/*--------------------------------*- C++ -*----------------------------------*\
| =========                 |                                                 |
| \\      /  F ield         | OpenFOAM: The Open Source CFD Toolbox           |
|  \\    /   O peration     | Version:  2206                                  |
|   \\  /    A nd           | Website:  www.openfoam.com                      |
|    \\/     M anipulation  |                                                 |
\*---------------------------------------------------------------------------*/
FoamFile
{
    version     2.0;
    format      ascii;
    arch        "LSB;label=32;scalar=64";
    class       surfaceScalarField;
    location    "19.5";
    object      phi;
}
// * * * * * * * * * * * * * * * * * * * * * * * * * * * * * * * * * * * * * //

dimensions      [0 3 -1 0 0 0 0];

oriented        oriented;

internalField   nonuniform List<scalar> 
9529
(
1.10799e-05
-2.71014e-06
2.64923e-06
1.1136e-05
-2.7087e-06
2.65258e-06
1.11873e-05
-2.70014e-06
2.64883e-06
1.1234e-05
-2.68558e-06
2.63891e-06
1.12764e-05
-2.66599e-06
2.62359e-06
1.13151e-05
-2.6421e-06
2.60343e-06
1.13507e-05
-2.61444e-06
2.57881e-06
1.1384e-05
-2.58323e-06
2.54993e-06
1.14157e-05
-2.54832e-06
2.51663e-06
1.14465e-05
-2.50923e-06
2.47846e-06
1.1477e-05
-2.46524e-06
2.4347e-06
1.1508e-05
-2.41537e-06
2.3844e-06
1.154e-05
-2.35843e-06
2.32642e-06
1.15736e-05
-2.29308e-06
2.25949e-06
1.16092e-05
-2.21788e-06
2.18224e-06
1.16473e-05
-2.13134e-06
2.09328e-06
1.1688e-05
-2.03202e-06
1.99129e-06
1.17315e-05
-1.91858e-06
1.87508e-06
1.17778e-05
-1.78992e-06
1.74367e-06
1.18266e-05
-1.64523e-06
1.59638e-06
1.18778e-05
-1.48406e-06
1.43292e-06
1.19308e-05
-1.3064e-06
1.25337e-06
1.19852e-05
-1.1127e-06
1.0583e-06
1.20403e-05
-9.03868e-07
8.48704e-07
1.20956e-05
-6.81299e-07
6.26027e-07
1.21503e-05
-4.46839e-07
3.92135e-07
1.22038e-05
-2.02804e-07
1.49364e-07
1.22551e-05
4.78618e-08
-9.92198e-08
1.23033e-05
3.01104e-07
-3.49242e-07
1.23475e-05
5.52485e-07
-5.9669e-07
1.23871e-05
7.98806e-07
-8.38435e-07
1.24216e-05
1.03706e-06
-1.07154e-06
1.24504e-05
1.26451e-06
-1.29336e-06
1.24732e-05
1.4788e-06
-1.50162e-06
1.24898e-05
1.67792e-06
-1.69443e-06
1.24998e-05
1.86022e-06
-1.8703e-06
1.25034e-05
2.02451e-06
-2.02812e-06
1.25007e-05
2.16994e-06
-2.16718e-06
1.24917e-05
2.29598e-06
-2.28704e-06
1.24769e-05
2.40245e-06
-2.38761e-06
1.24565e-05
2.48945e-06
-2.46904e-06
1.24308e-05
2.55742e-06
-2.53172e-06
1.23998e-05
2.60699e-06
-2.57605e-06
1.23631e-05
2.63875e-06
-2.60203e-06
1.23198e-05
2.65274e-06
-2.60944e-06
1.22701e-05
2.64904e-06
-2.59936e-06
1.22144e-05
2.62964e-06
-2.5739e-06
1.2153e-05
2.5968e-06
-2.53543e-06
1.20866e-05
2.55308e-06
-2.48667e-06
1.20158e-05
2.50137e-06
-2.43053e-06
1.19412e-05
2.44452e-06
-2.36994e-06
1.18636e-05
2.38516e-06
-2.30761e-06
1.17841e-05
2.32563e-06
-2.24605e-06
1.17033e-05
2.2679e-06
-2.18713e-06
1.1622e-05
2.21305e-06
-2.13178e-06
1.15409e-05
2.16149e-06
-2.08034e-06
1.14604e-05
2.11312e-06
-2.03268e-06
1.13812e-05
2.06743e-06
-1.98822e-06
1.13037e-05
2.02349e-06
-1.94597e-06
1.12283e-05
1.97999e-06
-1.90462e-06
1.11555e-05
1.93537e-06
-1.86256e-06
1.10857e-05
1.88781e-06
-1.81798e-06
1.10192e-05
1.83543e-06
-1.769e-06
1.09566e-05
1.77632e-06
-1.7137e-06
1.08983e-05
1.70862e-06
-1.65026e-06
1.08446e-05
1.63065e-06
-1.57699e-06
1.07961e-05
1.54093e-06
-1.49243e-06
1.07532e-05
1.43829e-06
-1.39539e-06
1.07163e-05
1.32191e-06
-1.28501e-06
1.06858e-05
1.19135e-06
-1.16083e-06
1.0662e-05
1.04658e-06
-1.02277e-06
1.06451e-05
8.87972e-07
-8.7114e-07
1.06355e-05
7.16355e-07
-7.06699e-07
1.06331e-05
5.32936e-07
-5.30575e-07
1.06381e-05
3.39287e-07
-3.44269e-07
1.06504e-05
1.37353e-07
-1.49608e-07
1.06697e-05
-7.06723e-08
5.12926e-08
1.06959e-05
-2.82216e-07
2.56016e-07
1.07284e-05
-4.94128e-07
4.61691e-07
1.07665e-05
-7.0346e-07
6.65303e-07
1.08099e-05
-9.07936e-07
8.64617e-07
1.08577e-05
-1.10539e-06
1.05751e-06
1.09095e-05
-1.29376e-06
1.24196e-06
1.09646e-05
-1.4712e-06
1.41614e-06
1.10222e-05
-1.63604e-06
1.57841e-06
1.10818e-05
-1.78692e-06
1.7274e-06
1.11425e-05
-1.92273e-06
1.86203e-06
1.12036e-05
-2.04267e-06
1.98152e-06
1.12645e-05
-2.14629e-06
2.08542e-06
1.13244e-05
-2.23353e-06
2.17364e-06
1.13827e-05
-2.30468e-06
2.2464e-06
1.14388e-05
-2.3604e-06
2.30421e-06
1.14926e-05
-2.40158e-06
2.3478e-06
1.15439e-05
-2.42922e-06
2.37797e-06
1.15926e-05
-2.44417e-06
2.39546e-06
1.16386e-05
-2.44674e-06
2.40078e-06
1.16813e-05
-2.43716e-06
2.39444e-06
1.17205e-05
-2.41661e-06
2.37739e-06
1.17562e-05
-2.38684e-06
2.35109e-06
1.17888e-05
-2.34972e-06
2.31718e-06
1.18186e-05
-2.30697e-06
2.27718e-06
1.18462e-05
-2.26003e-06
2.23237e-06
1.18725e-05
-2.20999e-06
2.18371e-06
1.18982e-05
-2.15748e-06
2.13179e-06
1.1924e-05
-2.10266e-06
2.07684e-06
1.19507e-05
-2.04534e-06
2.01872e-06
1.19786e-05
-1.98499e-06
1.957e-06
1.20085e-05
-1.92084e-06
1.89102e-06
1.20405e-05
-1.85195e-06
1.81993e-06
1.20749e-05
-1.77724e-06
1.74279e-06
1.21119e-05
-1.69563e-06
1.65862e-06
1.21515e-05
-1.60602e-06
1.56647e-06
1.21934e-05
-1.50746e-06
1.4655e-06
1.22375e-05
-1.39912e-06
1.35503e-06
1.22834e-05
-1.28044e-06
1.23456e-06
1.23306e-05
-1.15107e-06
1.10386e-06
1.23786e-05
-1.01095e-06
9.6294e-07
1.24269e-05
-8.60334e-07
8.12087e-07
1.24748e-05
-6.99711e-07
6.51832e-07
1.25217e-05
-5.29845e-07
4.82938e-07
1.2567e-05
-3.51723e-07
3.06379e-07
1.26102e-05
-1.6654e-07
1.23312e-07
1.26508e-05
2.42537e-08
-6.48031e-08
1.2688e-05
2.18799e-07
-2.56008e-07
1.27212e-05
4.14409e-07
-4.47568e-07
1.27498e-05
6.08524e-07
-6.3722e-07
1.27737e-05
7.99132e-07
-8.22998e-07
1.27924e-05
9.84183e-07
-1.00289e-06
1.28057e-05
1.16181e-06
-1.17507e-06
1.28132e-05
1.33004e-06
-1.33758e-06
1.28148e-05
1.48737e-06
-1.48898e-06
1.28103e-05
1.63172e-06
-1.62719e-06
1.27996e-05
1.76256e-06
-1.75181e-06
1.27824e-05
1.87694e-06
-1.85981e-06
1.2759e-05
1.97705e-06
-1.95361e-06
1.27293e-05
2.05682e-06
-2.02719e-06
1.26933e-05
2.12393e-06
-2.08785e-06
1.26511e-05
2.17169e-06
-2.12955e-06
2.19433e-06
-2.14003e-06
1.11348e-05
-2.76062e-06
1.11801e-05
-2.75401e-06
1.12201e-05
-2.74018e-06
1.1255e-05
-2.7205e-06
1.12852e-05
-2.69618e-06
1.13113e-05
-2.66815e-06
1.1334e-05
-2.63716e-06
1.13542e-05
-2.60342e-06
1.13725e-05
-2.56668e-06
1.13898e-05
-2.52647e-06
1.14066e-05
-2.48205e-06
1.14236e-05
-2.43242e-06
1.14416e-05
-2.37638e-06
1.1461e-05
-2.31253e-06
1.14825e-05
-2.23936e-06
1.15065e-05
-2.1553e-06
1.15332e-05
-2.0588e-06
1.15631e-05
-1.94842e-06
1.15961e-05
-1.82294e-06
1.16323e-05
-1.68141e-06
1.16715e-05
-1.52325e-06
1.17134e-05
-1.34833e-06
1.17577e-05
-1.157e-06
1.18039e-05
-9.50073e-07
1.18515e-05
-7.2889e-07
1.18999e-05
-4.95252e-07
1.19485e-05
-2.51437e-07
1.19967e-05
-2.84862e-10
1.20433e-05
2.54474e-07
1.20876e-05
5.08214e-07
1.21288e-05
7.57549e-07
1.21665e-05
9.99438e-07
1.21999e-05
1.2311e-06
1.22286e-05
1.45007e-06
1.22523e-05
1.65426e-06
1.22706e-05
1.84191e-06
1.22834e-05
2.01171e-06
1.22906e-05
2.1627e-06
1.22923e-05
2.29428e-06
1.22886e-05
2.40613e-06
1.22798e-05
2.4983e-06
1.2266e-05
2.57119e-06
1.22476e-05
2.62545e-06
1.22243e-05
2.66203e-06
1.21953e-05
2.68173e-06
1.21597e-05
2.68459e-06
1.21179e-05
2.67151e-06
1.20702e-05
2.64448e-06
1.20173e-05
2.60597e-06
1.19598e-05
2.55887e-06
1.18983e-05
2.50602e-06
1.18335e-05
2.44998e-06
1.17661e-05
2.39297e-06
1.16971e-05
2.33688e-06
1.16272e-05
2.28295e-06
1.15571e-05
2.23164e-06
1.14873e-05
2.1829e-06
1.14185e-05
2.13627e-06
1.13511e-05
2.09086e-06
1.12857e-05
2.04539e-06
1.12227e-05
1.99831e-06
1.11627e-05
1.94784e-06
1.11061e-05
1.8921e-06
1.10532e-05
1.82919e-06
1.10045e-05
1.75727e-06
1.09605e-05
1.67464e-06
1.09216e-05
1.57987e-06
1.08881e-05
1.47182e-06
1.08603e-05
1.34969e-06
1.08386e-05
1.2131e-06
1.08231e-05
1.06206e-06
1.0814e-05
8.97031e-07
1.08115e-05
7.18888e-07
1.08155e-05
5.28919e-07
1.0826e-05
3.28777e-07
1.08429e-05
1.20462e-07
1.08659e-05
-9.37064e-08
1.08947e-05
-3.1101e-07
1.09286e-05
-5.28052e-07
1.09672e-05
-7.42003e-07
1.10098e-05
-9.50533e-07
1.10559e-05
-1.15146e-06
1.11048e-05
-1.34268e-06
1.11559e-05
-1.52233e-06
1.12087e-05
-1.68879e-06
1.12624e-05
-1.84068e-06
1.13166e-05
-1.97689e-06
1.13705e-05
-2.09658e-06
1.14235e-05
-2.19931e-06
1.1475e-05
-2.28501e-06
1.15243e-05
-2.35401e-06
1.1571e-05
-2.4071e-06
1.16148e-05
-2.44539e-06
1.16557e-05
-2.47014e-06
1.16939e-05
-2.48233e-06
1.1729e-05
-2.48188e-06
1.17605e-05
-2.46866e-06
1.17882e-05
-2.44424e-06
1.18121e-05
-2.41078e-06
1.18327e-05
-2.37034e-06
1.18505e-05
-2.32478e-06
1.18662e-05
-2.2757e-06
1.18805e-05
-2.22433e-06
1.18945e-05
-2.1714e-06
1.19088e-05
-2.11696e-06
1.19241e-05
-2.06068e-06
1.19411e-05
-2.00195e-06
1.19602e-05
-1.93991e-06
1.19817e-05
-1.8735e-06
1.2006e-05
-1.80154e-06
1.20332e-05
-1.72281e-06
1.20633e-05
-1.63611e-06
1.20962e-05
-1.54034e-06
1.21316e-05
-1.43458e-06
1.21693e-05
-1.31816e-06
1.22089e-05
-1.19063e-06
1.22498e-05
-1.0519e-06
1.22916e-05
-9.02117e-07
1.23337e-05
-7.41772e-07
1.23755e-05
-5.71612e-07
1.24164e-05
-3.92635e-07
1.24559e-05
-2.06063e-07
1.24935e-05
-1.33552e-08
1.25286e-05
1.83671e-07
1.25605e-05
3.8249e-07
1.25888e-05
5.80251e-07
1.26131e-05
7.74871e-07
1.2633e-05
9.64268e-07
1.26483e-05
1.14653e-06
1.26586e-05
1.3197e-06
1.26638e-05
1.48218e-06
1.26636e-05
1.63195e-06
1.26578e-05
1.76828e-06
1.26463e-05
1.8885e-06
1.26292e-05
1.99415e-06
1.2606e-05
2.08e-06
1.25777e-05
2.1523e-06
1.25438e-05
2.20549e-06
2.23937e-06
1.11983e-05
-2.79983e-06
1.12319e-05
-2.78763e-06
1.12599e-05
-2.76818e-06
1.12824e-05
-2.74306e-06
1.13e-05
-2.71373e-06
1.13132e-05
-2.68133e-06
1.13228e-05
-2.64679e-06
1.13297e-05
-2.61034e-06
1.13346e-05
-2.5716e-06
1.13383e-05
-2.53008e-06
1.13413e-05
-2.48505e-06
1.13443e-05
-2.43551e-06
1.13482e-05
-2.38021e-06
1.13534e-05
-2.31774e-06
1.13606e-05
-2.24655e-06
1.13703e-05
-2.16499e-06
1.13829e-05
-2.07143e-06
1.13988e-05
-1.96435e-06
1.14183e-05
-1.84239e-06
1.14414e-05
-1.70451e-06
1.14682e-05
-1.55001e-06
1.14985e-05
-1.37864e-06
1.15321e-05
-1.19062e-06
1.15687e-05
-9.86707e-07
1.1608e-05
-7.68145e-07
1.16494e-05
-5.36693e-07
1.16926e-05
-2.94575e-07
1.17368e-05
-4.45347e-08
1.17813e-05
2.09974e-07
1.18251e-05
4.64432e-07
1.18675e-05
7.15177e-07
1.19077e-05
9.59165e-07
1.19453e-05
1.19355e-06
1.19795e-05
1.41582e-06
1.201e-05
1.62381e-06
1.20363e-05
1.81563e-06
1.20581e-05
1.98989e-06
1.20752e-05
2.14556e-06
1.20876e-05
2.28192e-06
1.20951e-05
2.39856e-06
1.2098e-05
2.49544e-06
1.20962e-05
2.57299e-06
1.209e-05
2.63165e-06
1.20797e-05
2.67235e-06
1.20648e-05
2.69666e-06
1.2044e-05
2.70532e-06
1.20162e-05
2.69938e-06
1.19822e-05
2.67846e-06
1.19429e-05
2.6452e-06
1.1899e-05
2.60283e-06
1.18508e-05
2.55418e-06
1.17991e-05
2.50172e-06
1.17445e-05
2.44759e-06
1.16878e-05
2.39355e-06
1.16299e-05
2.34087e-06
1.15714e-05
2.29012e-06
1.1513e-05
2.2413e-06
1.14553e-05
2.19398e-06
1.13989e-05
2.14729e-06
1.13443e-05
2.09997e-06
1.12921e-05
2.05053e-06
1.12427e-05
1.9972e-06
1.11967e-05
1.93815e-06
1.11544e-05
1.87147e-06
1.11163e-05
1.79535e-06
1.10828e-05
1.70817e-06
1.10541e-05
1.6085e-06
1.10307e-05
1.49527e-06
1.10127e-05
1.36772e-06
1.10002e-05
1.22552e-06
1.09936e-05
1.06874e-06
1.09927e-05
8.97926e-07
1.09975e-05
7.14004e-07
1.10081e-05
5.18327e-07
1.10243e-05
3.12613e-07
1.10458e-05
9.89282e-08
1.10724e-05
-1.20322e-07
1.11037e-05
-3.42217e-07
1.11388e-05
-5.63216e-07
1.11774e-05
-7.80606e-07
1.12189e-05
-9.92023e-07
1.12627e-05
-1.19527e-06
1.13082e-05
-1.38819e-06
1.13549e-05
-1.56897e-06
1.14021e-05
-1.73601e-06
1.14494e-05
-1.88796e-06
1.14962e-05
-2.0237e-06
1.1542e-05
-2.14242e-06
1.15865e-05
-2.24375e-06
1.16289e-05
-2.32747e-06
1.16688e-05
-2.3939e-06
1.17056e-05
-2.44385e-06
1.17389e-05
-2.47869e-06
1.17688e-05
-2.5001e-06
1.17959e-05
-2.50945e-06
1.18198e-05
-2.50574e-06
1.18394e-05
-2.48831e-06
1.18548e-05
-2.45965e-06
1.18664e-05
-2.42229e-06
1.18745e-05
-2.37848e-06
1.18799e-05
-2.33021e-06
1.18834e-05
-2.27912e-06
1.18856e-05
-2.22661e-06
1.18877e-05
-2.17347e-06
1.18904e-05
-2.11962e-06
1.18943e-05
-2.06459e-06
1.19e-05
-2.00768e-06
1.19081e-05
-1.94797e-06
1.19189e-05
-1.88429e-06
1.19327e-05
-1.81535e-06
1.19497e-05
-1.73981e-06
1.19699e-05
-1.65634e-06
1.19933e-05
-1.56374e-06
1.20197e-05
-1.46097e-06
1.20488e-05
-1.34727e-06
1.20803e-05
-1.22211e-06
1.21137e-05
-1.08531e-06
1.21485e-05
-9.36988e-07
1.21844e-05
-7.77588e-07
1.22206e-05
-6.07843e-07
1.22567e-05
-4.28756e-07
1.22922e-05
-2.4157e-07
1.23266e-05
-4.77639e-08
1.23594e-05
1.50871e-07
1.239e-05
3.51961e-07
1.24177e-05
5.52499e-07
1.24423e-05
7.50257e-07
1.24635e-05
9.43137e-07
1.24808e-05
1.12919e-06
1.2494e-05
1.30646e-06
1.25029e-05
1.47328e-06
1.25071e-05
1.62774e-06
1.25066e-05
1.76877e-06
1.25009e-05
1.89429e-06
1.24903e-05
2.00467e-06
1.24738e-05
2.09652e-06
1.24531e-05
2.17297e-06
1.24274e-05
2.23122e-06
2.27515e-06
1.12698e-05
-2.82691e-06
1.12907e-05
-2.80855e-06
1.13056e-05
-2.78309e-06
1.13151e-05
-2.75251e-06
1.13197e-05
-2.71835e-06
1.13202e-05
-2.6818e-06
1.1317e-05
-2.64359e-06
1.13107e-05
-2.60405e-06
1.13022e-05
-2.5631e-06
1.12922e-05
-2.52013e-06
1.12815e-05
-2.47434e-06
1.12707e-05
-2.42472e-06
1.12606e-05
-2.37004e-06
1.12517e-05
-2.30886e-06
1.12447e-05
-2.23957e-06
1.12402e-05
-2.1605e-06
1.12387e-05
-2.06995e-06
1.12407e-05
-1.96633e-06
1.12465e-05
-1.84819e-06
1.12564e-05
-1.7144e-06
1.12705e-05
-1.56413e-06
1.12889e-05
-1.39704e-06
1.13115e-05
-1.21323e-06
1.13382e-05
-1.01336e-06
1.13686e-05
-7.98596e-07
1.14026e-05
-5.70619e-07
1.14396e-05
-3.31596e-07
1.14792e-05
-8.41775e-08
1.15208e-05
1.68385e-07
1.15634e-05
4.2186e-07
1.16063e-05
6.72315e-07
1.16487e-05
9.1675e-07
1.16899e-05
1.1523e-06
1.17293e-05
1.37642e-06
1.17662e-05
1.5869e-06
1.18002e-05
1.7817e-06
1.18307e-05
1.95935e-06
1.18575e-05
2.11875e-06
1.18803e-05
2.2591e-06
1.1899e-05
2.37987e-06
1.19135e-05
2.48098e-06
1.19236e-05
2.56283e-06
1.19296e-05
2.62568e-06
1.19316e-05
2.67032e-06
1.193e-05
2.69828e-06
1.1924e-05
2.71136e-06
1.1911e-05
2.71233e-06
1.18906e-05
2.69887e-06
1.1865e-05
2.6708e-06
1.18346e-05
2.63322e-06
1.18e-05
2.58885e-06
1.17615e-05
2.54012e-06
1.172e-05
2.48912e-06
1.16761e-05
2.43746e-06
1.16306e-05
2.38634e-06
1.15844e-05
2.33641e-06
1.15379e-05
2.28774e-06
1.1492e-05
2.23991e-06
1.14472e-05
2.19209e-06
1.14041e-05
2.14306e-06
1.13633e-05
2.09134e-06
1.13253e-05
2.0352e-06
1.12906e-05
1.97285e-06
1.12596e-05
1.90243e-06
1.12328e-05
1.82221e-06
1.12103e-05
1.73059e-06
1.11926e-05
1.62624e-06
1.11798e-05
1.50811e-06
1.1172e-05
1.37552e-06
1.11693e-05
1.2282e-06
1.11717e-05
1.0663e-06
1.11792e-05
8.9041e-07
1.11917e-05
7.01534e-07
1.1209e-05
5.01073e-07
1.12308e-05
2.90792e-07
1.12569e-05
7.28129e-08
1.1287e-05
-1.50369e-07
1.13204e-05
-3.7562e-07
1.13565e-05
-5.9935e-07
1.13948e-05
-8.18949e-07
1.14349e-05
-1.03204e-06
1.1476e-05
-1.23638e-06
1.15176e-05
-1.42982e-06
1.15592e-05
-1.6106e-06
1.16003e-05
-1.77712e-06
1.16405e-05
-1.92811e-06
1.16793e-05
-2.06247e-06
1.17163e-05
-2.1795e-06
1.17515e-05
-2.27888e-06
1.17842e-05
-2.36023e-06
1.18142e-05
-2.42387e-06
1.18409e-05
-2.47052e-06
1.18636e-05
-2.50146e-06
1.18823e-05
-2.51872e-06
1.18976e-05
-2.52478e-06
1.19098e-05
-2.51792e-06
1.19169e-05
-2.49543e-06
1.19194e-05
-2.46222e-06
1.1918e-05
-2.42088e-06
1.19133e-05
-2.37375e-06
1.19061e-05
-2.32298e-06
1.18973e-05
-2.27038e-06
1.18879e-05
-2.21715e-06
1.18782e-05
-2.16383e-06
1.18691e-05
-2.11052e-06
1.18614e-05
-2.0568e-06
1.18556e-05
-2.00189e-06
1.18523e-05
-1.94473e-06
1.18521e-05
-1.88403e-06
1.18551e-05
-1.81839e-06
1.18616e-05
-1.74633e-06
1.18717e-05
-1.66642e-06
1.18853e-05
-1.57734e-06
1.19023e-05
-1.47797e-06
1.19225e-05
-1.36743e-06
1.19455e-05
-1.24513e-06
1.1971e-05
-1.11083e-06
1.19986e-05
-9.6458e-07
1.20278e-05
-8.06798e-07
1.20582e-05
-6.38195e-07
1.20892e-05
-4.59774e-07
1.21204e-05
-2.7279e-07
1.21514e-05
-7.8738e-08
1.21816e-05
1.20602e-07
1.22106e-05
3.22976e-07
1.22378e-05
5.25361e-07
1.22627e-05
7.2533e-07
1.2285e-05
9.20781e-07
1.23045e-05
1.10973e-06
1.23207e-05
1.29025e-06
1.23335e-05
1.46055e-06
1.23423e-05
1.61893e-06
1.23472e-05
1.76386e-06
1.23474e-05
1.89408e-06
1.23436e-05
2.00843e-06
1.23341e-05
2.10608e-06
1.23213e-05
2.18577e-06
1.23032e-05
2.24932e-06
2.30139e-06
1.13484e-05
1.13558e-05
1.13572e-05
1.13533e-05
1.13448e-05
1.13323e-05
1.13163e-05
1.12971e-05
1.12754e-05
1.1252e-05
1.12277e-05
1.12033e-05
1.11794e-05
1.11568e-05
1.1136e-05
1.11176e-05
1.11023e-05
1.10905e-05
1.10828e-05
1.10796e-05
1.10811e-05
1.10875e-05
1.1099e-05
1.11155e-05
1.11368e-05
1.11629e-05
1.11935e-05
1.12281e-05
1.12661e-05
1.13068e-05
1.13494e-05
1.13931e-05
1.14373e-05
1.14811e-05
1.15239e-05
1.1565e-05
1.16038e-05
1.164e-05
1.1673e-05
1.17027e-05
1.17287e-05
1.17511e-05
1.17696e-05
1.17843e-05
1.17948e-05
1.18008e-05
1.18017e-05
1.17961e-05
1.17846e-05
1.1768e-05
1.17469e-05
1.17219e-05
1.16937e-05
1.16628e-05
1.16301e-05
1.15964e-05
1.15624e-05
1.15287e-05
1.1496e-05
1.14649e-05
1.14361e-05
1.141e-05
1.13873e-05
1.13682e-05
1.1353e-05
1.13422e-05
1.13358e-05
1.13339e-05
1.13366e-05
1.13439e-05
1.13557e-05
1.13717e-05
1.13918e-05
1.14157e-05
1.14431e-05
1.14737e-05
1.1507e-05
1.15424e-05
1.15791e-05
1.16168e-05
1.16549e-05
1.16928e-05
1.173e-05
1.17661e-05
1.18007e-05
1.18334e-05
1.18639e-05
1.18918e-05
1.1917e-05
1.19393e-05
1.19586e-05
1.19746e-05
1.1987e-05
1.19949e-05
1.1999e-05
1.19978e-05
1.19915e-05
1.19807e-05
1.1966e-05
1.19483e-05
1.19284e-05
1.1907e-05
1.1885e-05
1.18632e-05
1.18423e-05
1.1823e-05
1.1806e-05
1.17917e-05
1.17806e-05
1.1773e-05
1.17691e-05
1.1769e-05
1.17727e-05
1.17802e-05
1.17912e-05
1.18056e-05
1.18229e-05
1.1843e-05
1.18653e-05
1.18895e-05
1.19151e-05
1.19419e-05
1.19692e-05
1.19968e-05
1.20241e-05
1.20505e-05
1.20757e-05
1.20993e-05
8.97205e-07
1.21209e-05
1.0881e-06
1.21402e-05
1.27097e-06
1.21569e-05
1.44387e-06
1.21704e-05
1.60538e-06
1.21809e-05
1.75337e-06
1.21873e-05
1.8877e-06
1.21905e-05
2.00519e-06
1.21882e-05
2.10836e-06
1.21835e-05
2.19055e-06
1.21729e-05
2.25991e-06
2.31811e-06
1.19079e-05
1.19317e-05
1.1954e-05
1.19747e-05
1.19931e-05
1.20092e-05
1.20221e-05
1.20322e-05
1.20379e-05
1.20408e-05
1.20385e-05
1.25346e-06
1.24422e-08
1.23921e-06
1.42517e-08
1.22363e-06
1.55825e-08
1.20721e-06
1.64139e-08
1.1904e-06
1.68117e-08
1.17353e-06
1.68736e-08
1.1569e-06
1.66293e-08
1.14084e-06
1.60593e-08
1.12569e-06
1.51481e-08
1.11175e-06
1.39458e-08
1.09924e-06
1.2502e-08
1.0884e-06
1.08481e-08
1.07931e-06
9.08174e-09
1.07212e-06
7.19696e-09
1.06691e-06
5.20833e-09
1.06376e-06
3.14645e-09
1.06263e-06
1.13494e-09
1.06314e-06
-5.16956e-10
1.06508e-06
-1.93131e-09
1.06824e-06
-3.15979e-09
1.07226e-06
-4.02638e-09
1.07681e-06
-4.54606e-09
1.0815e-06
-4.69095e-09
1.08603e-06
-4.52906e-09
1.09011e-06
-4.0839e-09
1.09346e-06
-3.34681e-09
1.09594e-06
-2.47769e-09
1.09746e-06
-1.524e-09
1.09784e-06
-3.75202e-10
1.0972e-06
6.32033e-10
1.09554e-06
1.66117e-09
1.09286e-06
2.68381e-09
1.08925e-06
3.60501e-09
1.0848e-06
4.45775e-09
1.07947e-06
5.32737e-09
1.07342e-06
6.05177e-09
1.06678e-06
6.64205e-09
1.05961e-06
7.16319e-09
1.05199e-06
7.62438e-09
1.04398e-06
8.012e-09
1.03568e-06
8.30011e-09
1.02725e-06
8.42588e-09
1.01887e-06
8.37731e-09
1.01069e-06
8.18663e-09
1.00282e-06
7.86899e-09
9.95387e-07
7.42908e-09
9.8852e-07
6.86732e-09
9.82326e-07
6.19404e-09
9.76885e-07
5.4415e-09
9.7224e-07
4.64426e-09
9.6841e-07
3.83057e-09
9.65386e-07
3.02371e-09
9.6316e-07
2.22599e-09
9.61742e-07
1.41821e-09
9.6108e-07
6.62216e-10
9.61113e-07
-3.28764e-11
9.61623e-07
-5.10307e-10
9.62632e-07
-1.0091e-09
9.64091e-07
-1.45889e-09
9.65878e-07
-1.78713e-09
9.67873e-07
-1.99497e-09
9.69996e-07
-2.12264e-09
9.72189e-07
-2.19371e-09
9.74414e-07
-2.22521e-09
9.76635e-07
-2.22044e-09
9.78814e-07
-2.17919e-09
9.80923e-07
-2.10892e-09
9.82948e-07
-2.02537e-09
9.84901e-07
-1.95218e-09
9.86807e-07
-1.90657e-09
9.88704e-07
-1.89699e-09
9.90633e-07
-1.92903e-09
9.9264e-07
-2.00639e-09
9.94769e-07
-2.12964e-09
9.97068e-07
-2.29873e-09
9.9958e-07
-2.51225e-09
1.00235e-06
-2.76752e-09
1.00541e-06
-3.0613e-09
1.0088e-06
-3.38603e-09
1.01253e-06
-3.7332e-09
1.01663e-06
-4.0972e-09
1.0211e-06
-4.47348e-09
1.02596e-06
-4.85661e-09
1.0312e-06
-5.23954e-09
1.03681e-06
-5.6112e-09
1.04277e-06
-5.96621e-09
1.04907e-06
-6.30003e-09
1.05568e-06
-6.60682e-09
1.06256e-06
-6.88008e-09
1.06967e-06
-7.11427e-09
1.07698e-06
-7.30365e-09
1.08442e-06
-7.44141e-09
1.09194e-06
-7.52125e-09
1.09948e-06
-7.53815e-09
1.10696e-06
-7.48634e-09
1.11433e-06
-7.3612e-09
1.12149e-06
-7.16145e-09
1.12838e-06
-6.88997e-09
1.13493e-06
-6.55089e-09
1.14108e-06
-6.15113e-09
1.14678e-06
-5.69711e-09
1.15197e-06
-5.19819e-09
1.15663e-06
-4.65932e-09
1.16072e-06
-4.08791e-09
1.16421e-06
-3.48683e-09
1.16708e-06
-2.86931e-09
1.16931e-06
-2.2355e-09
1.1709e-06
-1.5902e-09
1.17185e-06
-9.47509e-10
1.17214e-06
-2.84826e-10
1.17188e-06
2.5653e-10
1.17104e-06
8.39739e-10
1.16964e-06
1.39511e-09
1.16774e-06
1.9074e-09
1.16537e-06
2.36485e-09
1.16261e-06
2.75741e-09
1.15954e-06
3.0783e-09
1.15622e-06
3.32111e-09
1.15273e-06
3.48072e-09
1.14918e-06
3.55354e-09
1.14564e-06
3.53633e-09
1.14222e-06
3.42872e-09
1.13898e-06
3.23121e-09
1.13604e-06
2.94678e-09
1.13346e-06
2.58021e-09
1.13132e-06
2.13665e-09
1.12971e-06
1.6129e-09
1.12867e-06
1.03773e-09
1.12829e-06
3.79279e-10
1.12851e-06
-2.14009e-10
1.12935e-06
-8.42753e-10
1.13084e-06
-1.49425e-09
1.13296e-06
-2.11799e-09
1.13568e-06
-2.71906e-09
1.13885e-06
-3.17047e-09
1.1427e-06
-3.85086e-09
1.14684e-06
-4.13718e-09
-6.07876e-09
3.24876e-06
3.31848e-08
3.22697e-06
3.60394e-08
3.20479e-06
3.77584e-08
3.18288e-06
3.83228e-08
3.16169e-06
3.80009e-08
3.1415e-06
3.707e-08
3.12254e-06
3.55907e-08
3.10509e-06
3.35018e-08
3.0895e-06
3.07406e-08
3.07598e-06
2.74705e-08
3.0647e-06
2.37815e-08
3.05587e-06
1.96775e-08
3.04938e-06
1.55702e-08
3.0453e-06
1.12809e-08
3.04368e-06
6.82728e-09
3.04446e-06
2.35957e-09
3.04744e-06
-1.84006e-09
3.05241e-06
-5.4847e-09
3.05908e-06
-8.60483e-09
3.06685e-06
-1.09263e-08
3.07498e-06
-1.21576e-08
3.08309e-06
-1.26631e-08
3.09073e-06
-1.23231e-08
3.09747e-06
-1.12681e-08
3.10294e-06
-9.55419e-09
3.10681e-06
-7.21972e-09
3.10893e-06
-4.59765e-09
3.10928e-06
-1.87112e-09
3.10795e-06
9.53688e-10
3.10482e-06
3.75664e-09
3.09996e-06
6.52147e-09
3.09347e-06
9.1761e-09
3.08549e-06
1.15829e-08
3.07622e-06
1.37337e-08
3.06555e-06
1.59901e-08
3.05408e-06
1.75232e-08
3.0421e-06
1.86202e-08
3.02975e-06
1.95177e-08
3.01711e-06
2.02595e-08
3.00434e-06
2.07859e-08
2.99165e-06
2.09914e-08
2.97935e-06
2.07256e-08
2.96763e-06
2.00981e-08
2.95666e-06
1.91583e-08
2.94659e-06
1.79347e-08
2.93755e-06
1.64662e-08
2.92966e-06
1.47606e-08
2.92302e-06
1.28333e-08
2.9177e-06
1.07658e-08
2.9137e-06
8.64095e-09
2.911e-06
6.5272e-09
2.90954e-06
4.49031e-09
2.90923e-06
2.5353e-09
2.91003e-06
6.17015e-10
2.91186e-06
-1.16537e-09
2.91448e-06
-2.66114e-09
2.91793e-06
-3.95647e-09
2.92206e-06
-5.13483e-09
2.92676e-06
-6.16613e-09
2.93175e-06
-6.77832e-09
2.93685e-06
-7.09062e-09
2.94196e-06
-7.23152e-09
2.94701e-06
-7.24349e-09
2.95193e-06
-7.14909e-09
2.95666e-06
-6.94736e-09
2.96113e-06
-6.64508e-09
2.96528e-06
-6.26367e-09
2.96909e-06
-5.83716e-09
2.97257e-06
-5.42706e-09
2.97574e-06
-5.08106e-09
2.97866e-06
-4.81476e-09
2.98137e-06
-4.6439e-09
2.98395e-06
-4.57758e-09
2.98644e-06
-4.62103e-09
2.98891e-06
-4.77411e-09
2.99144e-06
-5.036e-09
2.99408e-06
-5.40849e-09
2.9969e-06
-5.88902e-09
2.99998e-06
-6.45741e-09
3.00333e-06
-7.09186e-09
3.00702e-06
-7.78179e-09
3.01106e-06
-8.51643e-09
3.01549e-06
-9.28614e-09
3.02033e-06
-1.00792e-08
3.02558e-06
-1.08615e-08
3.03124e-06
-1.16217e-08
3.03729e-06
-1.23499e-08
3.04371e-06
-1.30312e-08
3.05048e-06
-1.36483e-08
3.05755e-06
-1.41858e-08
3.06488e-06
-1.46292e-08
3.0724e-06
-1.4964e-08
3.08005e-06
-1.51756e-08
3.08776e-06
-1.52489e-08
3.09545e-06
-1.51702e-08
3.10302e-06
-1.49292e-08
3.11038e-06
-1.45226e-08
3.11744e-06
-1.39569e-08
3.12413e-06
-1.32413e-08
3.13037e-06
-1.23873e-08
3.13609e-06
-1.14138e-08
3.14123e-06
-1.03446e-08
3.14576e-06
-9.18568e-09
3.14963e-06
-7.95496e-09
3.15281e-06
-6.6658e-09
3.15527e-06
-5.33673e-09
3.15703e-06
-3.9892e-09
3.15807e-06
-2.63034e-09
3.1584e-06
-1.2824e-09
3.15807e-06
4.40017e-11
3.15703e-06
1.29704e-09
3.15538e-06
2.48917e-09
3.15318e-06
3.59407e-09
3.1505e-06
4.5932e-09
3.14741e-06
5.45638e-09
3.144e-06
6.16109e-09
3.14039e-06
6.69357e-09
3.13667e-06
7.04142e-09
3.13295e-06
7.19431e-09
3.12936e-06
7.14635e-09
3.126e-06
6.89423e-09
3.123e-06
6.43758e-09
3.12045e-06
5.78069e-09
3.11846e-06
4.93332e-09
3.11713e-06
3.90772e-09
3.11656e-06
2.70696e-09
3.11684e-06
1.33358e-09
3.11803e-06
-1.54454e-10
3.12015e-06
-1.73682e-09
3.1233e-06
-3.36345e-09
3.12747e-06
-5.01752e-09
3.13265e-06
-6.66909e-09
3.1388e-06
-8.2712e-09
3.1459e-06
-9.81648e-09
3.15392e-06
-1.11937e-08
3.16282e-06
-1.27452e-08
3.17244e-06
-1.37569e-08
-1.60242e-08
5.15443e-06
5.50177e-08
5.13065e-06
5.98179e-08
5.1056e-06
6.28146e-08
5.08035e-06
6.35729e-08
5.05555e-06
6.28026e-08
5.03126e-06
6.13565e-08
5.00759e-06
5.92577e-08
4.98484e-06
5.62502e-08
4.96362e-06
5.19597e-08
4.9442e-06
4.68937e-08
4.92671e-06
4.12682e-08
4.91134e-06
3.50537e-08
4.89831e-06
2.86006e-08
4.88788e-06
2.17112e-08
4.88021e-06
1.44972e-08
4.8754e-06
7.1646e-09
4.87336e-06
2.048e-10
4.87365e-06
-5.7731e-09
4.87626e-06
-1.12217e-08
4.88116e-06
-1.58258e-08
4.8878e-06
-1.87902e-08
4.89541e-06
-2.02787e-08
4.90348e-06
-2.03932e-08
4.91174e-06
-1.95284e-08
4.91978e-06
-1.7595e-08
4.92706e-06
-1.44952e-08
4.9332e-06
-1.07358e-08
4.93788e-06
-6.55334e-09
4.94096e-06
-2.12864e-09
4.94238e-06
2.3331e-09
4.94208e-06
6.82917e-09
4.94008e-06
1.11729e-08
4.93643e-06
1.52351e-08
4.93122e-06
1.89454e-08
4.92456e-06
2.2646e-08
4.91655e-06
2.55349e-08
4.90734e-06
2.78243e-08
4.89712e-06
2.97383e-08
4.88602e-06
3.13667e-08
4.87409e-06
3.271e-08
4.86138e-06
3.37039e-08
4.84845e-06
3.36557e-08
4.83555e-06
3.29969e-08
4.8229e-06
3.18052e-08
4.81067e-06
3.01733e-08
4.79897e-06
2.81592e-08
4.78804e-06
2.56957e-08
4.77811e-06
2.27619e-08
4.76929e-06
1.95815e-08
4.76165e-06
1.62816e-08
4.75522e-06
1.29545e-08
4.75005e-06
9.66096e-09
4.74615e-06
6.4377e-09
4.74344e-06
3.333e-09
4.74191e-06
3.62448e-10
4.74131e-06
-2.06792e-09
4.74168e-06
-4.32426e-09
4.74291e-06
-6.36248e-09
4.74488e-06
-8.13655e-09
4.74747e-06
-9.36907e-09
4.75058e-06
-1.01955e-08
4.75407e-06
-1.0727e-08
4.75784e-06
-1.10153e-08
4.76181e-06
-1.11108e-08
4.76589e-06
-1.10276e-08
4.77003e-06
-1.07852e-08
4.77418e-06
-1.04165e-08
4.77829e-06
-9.95286e-09
4.78236e-06
-9.4894e-09
4.78637e-06
-9.09815e-09
4.79036e-06
-8.79759e-09
4.79433e-06
-8.61404e-09
4.7983e-06
-8.54969e-09
4.80229e-06
-8.61189e-09
4.80631e-06
-8.79829e-09
4.81038e-06
-9.10248e-09
4.81451e-06
-9.53531e-09
4.81874e-06
-1.01186e-08
4.82308e-06
-1.08024e-08
4.82753e-06
-1.15425e-08
4.83209e-06
-1.23422e-08
4.83677e-06
-1.31934e-08
4.84157e-06
-1.40847e-08
4.84649e-06
-1.50009e-08
4.85153e-06
-1.59041e-08
4.85669e-06
-1.67809e-08
4.86196e-06
-1.76228e-08
4.86735e-06
-1.84159e-08
4.87284e-06
-1.91422e-08
4.87844e-06
-1.97816e-08
4.88412e-06
-2.03118e-08
4.88987e-06
-2.07111e-08
4.89565e-06
-2.09589e-08
4.90144e-06
-2.1034e-08
4.90718e-06
-2.09141e-08
4.91283e-06
-2.05751e-08
4.91831e-06
-2.001e-08
4.92358e-06
-1.92268e-08
4.92858e-06
-1.82372e-08
4.93325e-06
-1.70553e-08
4.93754e-06
-1.57008e-08
4.9414e-06
-1.42127e-08
4.94483e-06
-1.26089e-08
4.94776e-06
-1.08926e-08
4.95019e-06
-9.09206e-09
4.95206e-06
-7.20968e-09
4.95337e-06
-5.29735e-09
4.9541e-06
-3.35481e-09
4.95423e-06
-1.42002e-09
4.9538e-06
4.79256e-10
4.95277e-06
2.32398e-09
4.95118e-06
4.08274e-09
4.94906e-06
5.71308e-09
4.94644e-06
7.21563e-09
4.94338e-06
8.51745e-09
4.93996e-06
9.57811e-09
4.93627e-06
1.03807e-08
4.93241e-06
1.09052e-08
4.92847e-06
1.11325e-08
4.92457e-06
1.105e-08
4.92081e-06
1.0651e-08
4.91731e-06
9.93395e-09
4.91419e-06
8.90202e-09
4.91156e-06
7.56256e-09
4.90953e-06
5.93582e-09
4.90823e-06
4.01478e-09
4.90773e-06
1.82678e-09
4.90812e-06
-5.41222e-10
4.90946e-06
-3.07333e-09
4.91179e-06
-5.70076e-09
4.91515e-06
-8.37528e-09
4.91953e-06
-1.10482e-08
4.92492e-06
-1.36597e-08
4.93128e-06
-1.61791e-08
4.9386e-06
-1.85086e-08
4.94679e-06
-2.09418e-08
4.95574e-06
-2.27089e-08
-2.54572e-08
6.90141e-06
5.06524e-08
6.90234e-06
5.88952e-08
6.8993e-06
6.58513e-08
6.89202e-06
7.08538e-08
6.88055e-06
7.42673e-08
6.86506e-06
7.68489e-08
6.84587e-06
7.84461e-08
6.82356e-06
7.85632e-08
6.79889e-06
7.66302e-08
6.77262e-06
7.31651e-08
6.74533e-06
6.85541e-08
6.71766e-06
6.2726e-08
6.69055e-06
5.57077e-08
6.6646e-06
4.76689e-08
6.64021e-06
3.88835e-08
6.61776e-06
2.96165e-08
6.59755e-06
2.04153e-08
6.57993e-06
1.18476e-08
6.5649e-06
3.80443e-09
6.55266e-06
-3.58114e-09
6.54321e-06
-9.34773e-09
6.53621e-06
-1.32712e-08
6.53136e-06
-1.55461e-08
6.52823e-06
-1.64025e-08
6.52644e-06
-1.58064e-08
6.52579e-06
-1.3837e-08
6.52603e-06
-1.09755e-08
6.52698e-06
-7.50388e-09
6.52859e-06
-3.73837e-09
6.53076e-06
1.56644e-10
6.53286e-06
4.73616e-09
6.5348e-06
9.22859e-09
6.53645e-06
1.35834e-08
6.53772e-06
1.76753e-08
6.53889e-06
2.14728e-08
6.53956e-06
2.4866e-08
6.53959e-06
2.78018e-08
6.53893e-06
3.03954e-08
6.53746e-06
3.28345e-08
6.53521e-06
3.49571e-08
6.53212e-06
3.67977e-08
6.52812e-06
3.7652e-08
6.5233e-06
3.78214e-08
6.51774e-06
3.73614e-08
6.51155e-06
3.63683e-08
6.50473e-06
3.49795e-08
6.49727e-06
3.31498e-08
6.48941e-06
3.06254e-08
6.4813e-06
2.76931e-08
6.47303e-06
2.45476e-08
6.46474e-06
2.12439e-08
6.45667e-06
1.77339e-08
6.44903e-06
1.40768e-08
6.44196e-06
1.04013e-08
6.43547e-06
6.85869e-09
6.4298e-06
3.59523e-09
6.42486e-06
6.19833e-10
6.42062e-06
-2.11922e-09
6.41692e-06
-4.44067e-09
6.41385e-06
-6.30068e-09
6.41139e-06
-7.72859e-09
6.40941e-06
-8.75232e-09
6.40782e-06
-9.4197e-09
6.40649e-06
-9.78756e-09
6.40537e-06
-9.90487e-09
6.40442e-06
-9.83206e-09
6.40364e-06
-9.63763e-09
6.40307e-06
-9.38618e-09
6.40276e-06
-9.18199e-09
6.40277e-06
-9.10236e-09
6.40316e-06
-9.1899e-09
6.40402e-06
-9.47833e-09
6.40542e-06
-9.94789e-09
6.40744e-06
-1.06273e-08
6.41015e-06
-1.15083e-08
6.4136e-06
-1.25559e-08
6.41783e-06
-1.37597e-08
6.42287e-06
-1.51639e-08
6.42875e-06
-1.66777e-08
6.43539e-06
-1.8186e-08
6.44274e-06
-1.96958e-08