/*--------------------------------*- C++ -*----------------------------------*\
| =========                 |                                                 |
| \\      /  F ield         | OpenFOAM: The Open Source CFD Toolbox           |
|  \\    /   O peration     | Version:  2206                                  |
|   \\  /    A nd           | Website:  www.openfoam.com                      |
|    \\/     M anipulation  |                                                 |
\*---------------------------------------------------------------------------*/
FoamFile
{
    version     2.0;
    format      ascii;
    arch        "LSB;label=32;scalar=64";
    class       surfaceScalarField;
    location    "19.7001";
    object      ddtCorrDdt0(phi);
}
// * * * * * * * * * * * * * * * * * * * * * * * * * * * * * * * * * * * * * //

dimensions      [0 3 -2 0 0 0 0];

oriented        oriented;

internalField   nonuniform List<scalar> 
3613
(
-0.000285017
0.000297505
-0.000215573
-0.000371967
0.000318607
-0.000231658
-0.000442966
0.000323967
-0.000252967
-0.000514404
0.000293959
-0.000222522
-0.000577742
0.000219574
-0.000156236
-0.000620955
9.44281e-05
-5.12143e-05
-0.000626973
-7.48693e-05
8.08868e-05
-0.000588576
-0.000255109
0.000216712
-0.00052958
-0.000405935
0.000346939
-0.000499329
-0.000529772
0.000499522
-0.000502325
-0.000698759
0.000701755
-0.000407987
-0.000878811
0.000784473
-0.000211702
-0.000896967
0.000700681
-5.90466e-06
-0.000772073
0.000566276
0.000164801
-0.000600564
0.000429859
0.000305446
-0.000431321
0.000290676
0.000427957
-0.000267893
0.000145382
0.000523561
-9.8753e-05
3.14925e-06
0.000589245
4.31087e-05
-0.000108793
0.000630492
0.000151447
-0.000192694
0.000649524
0.00023126
-0.000250293
0.000640485
0.000300123
-0.000291084
0.000624648
0.000343633
-0.000327795
0.000681273
0.000280329
-0.000336954
0.000852398
7.53795e-05
-0.000246505
0.00100698
-0.000118489
-3.60887e-05
0.000981775
-0.000109762
0.000134963
0.000786235
9.6125e-05
9.9415e-05
0.000518325
0.000374375
-0.000106465
0.000256724
0.000614822
-0.000353221
1.70905e-05
0.000763333
-0.0005237
-0.000179316
0.000825418
-0.000629011
-0.000310634
0.000800768
-0.000669451
-0.000390257
0.000724013
-0.000644389
-0.000436547
0.000622653
-0.000576364
-0.000457472
0.00051239
-0.000491465
-0.000458149
0.000406412
-0.000405734
-0.000445506
0.000313746
-0.00032639
-0.00042906
0.000238687
-0.000255132
-0.000418235
0.00018053
-0.000191355
-0.00042195
0.000132138
-0.000128423
-0.000443718
7.61705e-05
-5.44023e-05
-0.000480439
-6.61155e-06
4.33325e-05
-0.000527162
-0.000125774
0.000172497
-0.000574457
-0.000286538
0.000333833
-0.000616853
-0.000475315
0.000517712
-0.000648298
-0.000676155
0.0007076
-0.000650213
-0.000866451
0.000868366
-0.000586576
-0.000997273
0.000933636
-0.000463417
-0.00100996
0.000886802
-0.000306537
-0.000926801
0.000769921
-0.000137489
-0.000781451
0.000612403
1.66824e-05
-0.00060205
0.000447879
0.000166118
-0.000408938
0.000259503
0.000326653
-0.000199721
3.9185e-05
0.000457824
1.96805e-05
-0.000150851
0.000548861
0.000199947
-0.000290984
0.000597049
0.000318763
-0.000366952
0.000607322
0.000356639
-0.000366912
0.000600174
0.000307297
-0.00030015
0.000585838
0.000198096
-0.00018376
0.000561935
6.00274e-05
-3.61244e-05
0.000524845
-6.32902e-05
0.00010038
0.000479011
-0.000129353
0.000175187
0.000431397
-0.000124345
0.000171959
0.000383587
-5.95376e-05
0.000107348
0.000328566
5.26947e-05
2.32627e-06
0.000264919
0.000193494
-0.000129847
0.000194501
0.000332766
-0.000262348
0.000119125
0.000448541
-0.000373165
4.02598e-05
0.000529837
-0.000450972
-3.84532e-05
0.000570745
-0.000492032
-0.000108573
0.000565181
-0.000495061
-0.000168769
0.000525626
-0.00046543
-0.000216328
0.000460249
-0.00041269
-0.000250506
0.000377328
-0.00034315
-0.000272691
0.000285982
-0.000263797
-0.000285823
0.000193688
-0.000180556
-0.000292744
0.000104337
-9.7416e-05
-0.000293858
1.88675e-05
-1.77537e-05
-0.000291157
-5.74834e-05
5.4783e-05
-0.000288735
-0.000121541
0.000119119
-0.00028937
-0.000175524
0.000176159
-0.000294239
-0.000223735
0.000228604
-0.000303743
-0.000271369
0.000280873
-0.000317516
-0.000323691
0.000337464
-0.00032963
-0.000382011
0.000394124
-0.000322815
-0.000438106
0.000431292
-0.000286342
-0.000470249
0.000433776
-0.000228205
-0.000461745
0.000403607
-0.000154472
-0.000422798
0.000349065
-7.8373e-05
-0.000361813
0.000285714
1.52129e-06
-0.000289691
0.000209797
0.000110534
-0.00021647
0.000107457
0.000238415
-0.000123921
-3.96001e-06
0.00033931
-2.25202e-05
-7.83748e-05
0.000398452
5.4275e-05
-0.000113417
0.000413107
9.65491e-05
-0.000111204
0.000392905
0.00010366
-8.34576e-05
0.000353006
8.92651e-05
-4.93666e-05
0.000303679
7.05473e-05
-2.12203e-05
0.000253542
5.69917e-05
-6.85419e-06
0.00020801
5.49468e-05
-9.41469e-06
0.00016825
6.88767e-05
-2.91168e-05
0.000132535
0.00010022
-6.45059e-05
0.000100195
0.000140176
-0.000107835
6.94551e-05
0.000184893
-0.000154153
3.91579e-05
0.00022919
-0.000198893
8.27451e-06
0.000267952
-0.000237068
-2.3402e-05
0.00029599
-0.000264313
-5.37273e-05
0.000306312
-0.000275987
-8.08736e-05
0.000295419
-0.000268273
-0.0001042
0.000269959
-0.000246633
-0.000122724
0.000232618
-0.000214094
-0.000136433
0.000187248
-0.000173539
-0.000146504
0.000137866
-0.000127795
-0.000154593
8.68778e-05
-7.87884e-05
-0.000160356
3.32504e-05
-2.74875e-05
-0.000161925
-2.28754e-05
2.44447e-05
-0.000159126
-7.77767e-05
7.49776e-05
-0.000153067
-0.000127743
0.000121683
-0.000145748
-0.000170554
0.000163235
-0.000139171
-0.000206489
0.000199911
-0.000133556
-0.00023709
0.000231475
-0.000262495
0.000253697
-0.000276567
0.000360402
-0.000358728
0.000400768
-0.000454379
0.000419618
-0.000558504
0.000398084
-0.000659994
0.000321063
-0.000745782
0.000180216
-0.000789478
-3.11727e-05
-0.000764604
-0.000279984
-0.000671091
-0.000499448
-0.000539066
-0.000661797
-0.00044167
-0.000796155
-0.000371942
-0.000948539
-0.000259662
-0.00100925
-0.000105508
-0.000926228
5.46814e-05
-0.000760753
0.000192985
-0.000569625
0.000305884
-0.000380791
0.000412169
-0.000205038
0.000513407
-5.81292e-05
0.000583031
8.18236e-05
0.000605889
0.000208402
0.000612915
0.000293097
0.000678971
0.000277577
0.00084916
0.00011014
0.00100968
-8.51387e-05
0.00100555
-0.000114365
0.00083903
5.67617e-05
0.000593264
0.000341891
0.000329378
0.00063826
8.51756e-05
0.000859024
-0.000120541
0.00096905
-0.00025912
0.000963997
-0.000354652
0.0008963
-0.000411911
0.000781271
-0.000435352
0.000646095
-0.000430972
0.00050801
-0.000405841
0.000381281
-0.000367587
0.000275491
-0.000324704
0.000195803
-0.000286581
0.000142408
-0.000265447
0.000111003
-0.000270469
8.11932e-05
-0.000305123
2.80422e-05
-0.000355995
-7.49021e-05
-0.000406841
-0.000235691
-0.000453463
-0.000428693
-0.000492477
-0.000637141
-0.000517644
-0.000841285
-0.00050697
-0.00100795
-0.000439864
-0.00107707
-0.000333905
-0.00103276
-0.00020505
-0.000910306
-7.31311e-05
-0.000733969
5.09338e-05
-0.000533003
0.00018017
-0.000328957
0.000317225
-0.000117374
0.000426364
9.08079e-05
0.000503447
0.000241681
0.000547634
0.000312452
0.00056521
0.000289722
0.000564986
0.000198319
0.000544875
8.01387e-05
0.000505642
-2.40568e-05
0.000455466
-7.91768e-05
0.000403527
-7.24063e-05
0.000351054
-7.06513e-06
0.000292098
0.000111651
0.000228296
0.000257296
0.000160855
0.000400206
8.94414e-05
0.000519955
1.53768e-05
0.000603902
-5.59145e-05
0.000642036
-0.000117568
0.000626834
-0.000167752
0.00057581
-0.000203802
0.000496299
-0.000224985
0.000398511
-0.000233334
0.000294331
-0.000233563
0.000193917
-0.000230889
0.000101663
-0.000224582
1.25604e-05
-0.000215179
-6.68864e-05
-0.000208802
-0.000127918
-0.000208866
-0.00017546
-0.000215389
-0.000217212
-0.00022674
-0.000260018
-0.000241698
-0.000308733
-0.000258019
-0.000365689
-0.000268963
-0.000427162
-0.000259153
-0.000480059
-0.000222125
-0.000498773
-0.000167326
-0.000477597
-0.000103466
-0.000425673
-3.97972e-05
-0.00035336
2.90347e-05
-0.000285302
0.000121034
-0.00021592
0.000217679
-0.000119165
0.000297911
-2.59563e-05
0.000347193
4.7267e-05
0.000358898
9.19551e-05
0.00034008
0.000108082
0.00030392
0.000106708
0.00025932
0.000101591
0.000212956
0.000101311
0.000168003
0.00011383
0.000126652
0.000141571
8.98735e-05
0.000176954
5.71284e-05
0.000217638
2.7242e-05
0.000259076
-1.34376e-06
0.000296538
-2.92544e-05
0.0003239
-5.44718e-05
0.000331529
-7.68087e-05
0.000317756
-9.5193e-05
0.000288344
-0.000108429
0.000245855
-0.000116111
0.00019493
-0.000119666
0.00014142
-0.000122343
8.95551e-05
-0.000125311
3.62184e-05
-0.00012488
-2.33068e-05
-0.000120374
-8.22825e-05
-0.000113446
-0.000134671
-0.000105716
-0.000178284
-9.83768e-05
-0.000213828
-9.22113e-05
-0.000243255
-0.00026716
-0.000228023
0.000422862
-0.000312362
0.000485107
-0.000414372
0.000521627
-0.000527052
0.000510764
-0.000641618
0.00043563
-0.000749841
0.000288439
-0.000841917
6.09041e-05
-0.000881309
-0.000240592
-0.000838643
-0.000542114
-0.000719324
-0.000781116
-0.000561366
-0.000954113
-0.000424203
-0.0010857
-0.000312643
-0.00112081
-0.000188098
-0.00105077
-5.22447e-05
-0.000896607
7.89889e-05
-0.000700859
0.000193653
-0.000495455
0.000289559
-0.000300945
0.000392723
-0.000161293
0.000486477
-1.19309e-05
0.0005227
0.000172179
0.000600497
0.0002153
0.000770471
0.000107603
0.000944289
-6.3678e-05
0.000977442
-0.000118292
0.00085479
8.28768e-06
0.000645327
0.000266224
0.000397068
0.00059015
0.000149695
0.000885634
-6.16846e-05
0.0010704
-0.000217713
0.00112508
-0.000326978
0.00107326
-0.000391217
0.000960539
-0.000418332
0.000808386
-0.000412367
0.00064013
-0.000379805
0.000475448
-0.000328649
0.000330125
-0.000268731
0.000215573
-0.000204531
0.000131604
-0.000147302
8.51785e-05
-0.000109493
7.31947e-05
-9.64987e-05
6.8199e-05
-0.00011724
4.87833e-05
-0.000175381
-1.67609e-05
-0.000231173
-0.000179899
-0.00028873
-0.000371137
-0.000340311
-0.000585559
-0.000381363
-0.000800233
-0.000403908
-0.000985403
-0.000383858
-0.00109712
-0.000326528
-0.00109009
-0.00024182
-0.000995013
-0.000140998
-0.000834791
-3.76486e-05
-0.000636353
6.15853e-05
-0.000428191
0.000170284
-0.000226073
0.000285771
-2.46793e-05
0.000383546
0.000143905
0.000451754
0.000244245
0.000489213
0.000252262
0.000500809
0.000186724
0.000486826
9.41216e-05
0.000450266
1.25036e-05
0.000401108
-3.00193e-05
0.000348755
-2.00531e-05
0.00029205
4.96399e-05
0.000231921
0.00017178
0.000170348
0.000318868
0.000107647
0.000462908
4.29231e-05
0.000584679
-2.19982e-05
0.000668823
-8.00967e-05
0.000700135
-0.000127655
0.000674393
-0.000162381
0.000610536
-0.000182291
0.000516209
-0.000187497
0.000403717
-0.000181045
0.000287879
-0.000168239
0.000181111
-0.00015588
8.93044e-05
-0.00014331
-9.66053e-09
-0.000126028
-8.41691e-05
-0.000116986
-0.00013696
-0.000118499
-0.000173947
-0.000129576
-0.000206135
-0.000145952
-0.000243642
-0.000165058
-0.000289626
-0.000185395
-0.000345352
-0.000204352
-0.000408206
-0.000214395
-0.000470015
-0.000201761
-0.000511407
-0.00016934
-0.000510018
-0.000121103
-0.000473909
-5.98755e-05
-0.000414588
-6.98441e-07
-0.000344479
5.38661e-05
-0.000270485
0.000121296
-0.000186595
0.000190372
-9.50319e-05
0.000247895
-1.02566e-05
0.000282759
5.70915e-05
0.000287398
0.000103443
0.000267442
0.000126664
0.000234611
0.000134423
0.000194655
0.000141266
0.00015168
0.000156806
0.000111129
0.000182122
7.44275e-05
0.000213655
4.23397e-05
0.000249726
1.40897e-05
0.000287326
-1.15996e-05
0.000322227
-3.50902e-05
0.000347391
-5.44628e-05
0.000350902
-7.09471e-05
0.00033424
-8.37203e-05
0.000301117
-9.1618e-05
0.000253753
-9.36454e-05
0.000196957
-9.06553e-05
0.00013843
-8.67066e-05
8.56064e-05
-8.65917e-05
3.61035e-05
-8.3936e-05
-2.59625e-05
-7.71034e-05
-8.91152e-05
-6.9825e-05
-0.000141949
-6.32254e-05
-0.000184883
-5.79612e-05
-0.000219092
-5.50922e-05
-0.000246124
-0.000266792
-0.000147243
0.000472404
-0.000210634
0.000548498
-0.000292931
0.000603924
-0.000383787
0.00060162
-0.000474024
0.000525867
-0.000564985
0.000379399
-0.000662723
0.000158643
-0.00076366
-0.000139655
-0.000790922
-0.000514852
-0.000744588
-0.00082745
-0.000640132
-0.00105857
-0.000516598
-0.00120924
-0.000395489
-0.00124192
-0.00028089
-0.00116537
-0.000161451
-0.00101605
-4.13416e-05
-0.000820968
7.0312e-05
-0.000607108
0.000170034
-0.000400667
0.000248938
-0.000240197
0.000337223
-0.000100215
0.000456733
5.26694e-05
0.00063628
3.57527e-05
0.000815953
-7.207e-05
0.000882609
-0.000130334
0.00080877
-4.44534e-05
0.000645103
0.000171954
0.000426302
0.000485025
0.000181991
0.000834461
-3.90913e-05
0.00110672
-0.000209117
0.00124043
-0.000320039
0.001236
-0.000386162
0.00113939
-0.000410332
0.000984708
-0.000399251
0.000797305
-0.000359765
0.000600644
-0.000299616
0.0004153
-0.000224669
0.000255178
-0.000144502
0.000135406
-6.30142e-05
5.01159e-05
1.03086e-05
1.18556e-05
5.48297e-05
2.86735e-05
7.32515e-05
4.97771e-05
6.36029e-05
5.84319e-05
1.69471e-05
2.98948e-05
-4.98243e-05
-0.000113128
-0.000122541
-0.00029842
-0.000190783
-0.000517317
-0.000249409
-0.000741608
-0.000295603
-0.000939209
-0.000315337
-0.00107738
-0.000298642
-0.00110679
-0.000255897
-0.00103776
-0.000190786
-0.000899902
-0.000113314
-0.000713825
-3.54214e-05
-0.000506083
3.99255e-05
-0.00030142
0.000136911
-0.000121665
0.000251937
2.88794e-05
0.000332278
0.000163904
0.000382428
0.000202112
0.000402358
0.000166794
0.000395113
0.000101366
0.000364286
4.33302e-05
0.000320037
1.42293e-05
0.000268175
3.1809e-05
0.000209767
0.000108048
0.000149863
0.000231684
9.21839e-05
0.000376548
3.61662e-05
0.000518926
-1.87053e-05
0.00063955
-6.9382e-05
0.0007195
-0.000107464
0.000738217
-0.000133797
0.000700726
-0.000147817
0.000624556
-0.000149936
0.000518328
-0.000140444
0.000394225
-0.000120151
0.000267586
-9.32864e-05
0.000154246
-7.05395e-05
6.65575e-05
-4.91184e-05
-2.14307e-05
-2.61124e-05
-0.000107175
-1.71685e-05
-0.000145904
-2.37191e-05
-0.000167396
-4.17445e-05
-0.00018811
-6.55966e-05
-0.00021979
-9.04282e-05
-0.000264795
-0.000114636
-0.000321145
-0.000137369
-0.000385472
-0.000156098
-0.000451287
-0.000162224
-0.000505281
-0.000148278
-0.000523964
-0.000118054
-0.000504133
-7.52208e-05
-0.000457421
-2.76039e-05
-0.000392096
1.64766e-05
-0.000314565
5.87344e-05
-0.000228853
0.000104305
-0.000140602
0.000147681
-5.36323e-05
0.000185879
1.88929e-05
0.000207875
8.1447e-05
0.000206849
0.00012769
0.000187203
0.000154068
0.000156228
0.000172241
0.000120062
0.000192972
8.4417e-05
0.000217767
5.16507e-05
0.000246422
2.28261e-05
0.00027855
-2.39808e-06
0.000312551
-2.45622e-05
0.000344391
-4.25638e-05
0.000365393
-5.51231e-05
0.000363461
-6.41171e-05
0.000343234
-6.94908e-05
0.00030649
-7.11323e-05
0.000255394
-6.82145e-05
0.000194039
-5.99405e-05
0.000130156
-4.92637e-05
7.49296e-05
-4.5967e-05
3.28068e-05
-3.90859e-05
-3.28437e-05
-2.87595e-05
-9.94416e-05
-2.16668e-05
-0.000149042
-1.78199e-05
-0.00018873
-1.72178e-05
-0.000219694
-2.07758e-05
-0.000242566
-0.000262143
-3.28573e-05
-5.46709e-05
-7.06596e-05
-8.53913e-05
-0.00011315
-0.000159177
-0.000232282
-0.000367243
-0.000517482
-0.000582411
-0.000578784
-0.00053559
-0.000452972
-0.000369308
-0.00027809
-0.000181282
-7.94783e-05
3.12766e-05
0.000136247
0.000254391
0.000442293
0.000622555
0.000704662
0.000685744
0.000572696
0.000399565
0.000168278
-6.28644e-05
-0.000244232
-0.000359186
-0.000415092
-0.000425776
-0.000400151
-0.000347069
-0.000273754
-0.000187302
-0.000100417
-1.50973e-05
8.62322e-05
0.000173825
0.000233159
0.000252286
0.000238072
0.000202189
0.000124644
3.82207e-05
-4.54335e-05
-0.0001214
-0.000188188
-0.000240611
-0.00026155
-0.000256844
-0.000228185
-0.000181383
-0.000123001
-5.94647e-05
7.26907e-06
0.000101546
0.000197822
0.000255179
0.000280626
0.000279531
0.000256321
0.000217787
0.000165772
0.000107086
5.02393e-05
-2.05979e-06
-4.98762e-05
-9.20358e-05
-0.000122672
-0.00013551
-0.000135849
-0.000124951
-0.000105715
-8.04771e-05
-5.11748e-05
-1.43998e-05
2.28746e-05
6.20881e-05
7.94823e-05
7.88781e-05
6.43845e-05
4.33075e-05
1.64058e-05
-1.34402e-05
-4.29463e-05
-7.04221e-05
-9.47414e-05
-0.000112791
-0.000115147
-0.000103967
-8.16825e-05
-5.26523e-05
-2.1767e-05
6.70242e-06
3.35276e-05
6.42632e-05
9.95207e-05
0.000120262
0.000126271
0.000119916
0.000101487
7.59529e-05
4.84317e-05
2.25511e-05
-9.36629e-07
-2.19344e-05
-4.00931e-05
-5.18529e-05
-5.73726e-05
-5.74906e-05
-5.29812e-05
-4.61256e-05
-3.86249e-05
-2.87163e-05
-1.31832e-05
6.31733e-07
1.3116e-05
1.78284e-05
1.90926e-05
1.61798e-05
1.05259e-05
6.83884e-06
-0.000238879
-0.000258181
4.0459e-05
3.62536e-06
-1.16184e-05
2.05436e-05
-1.69181e-05
4.31125e-05
-2.25687e-05
6.45181e-05
-2.14055e-05
7.78255e-05
-1.33074e-05
8.13287e-05
-3.50302e-06
7.47611e-05
6.56781e-06
6.5588e-05
9.1733e-06
7.41962e-05
-8.60825e-06
0.000115059
-4.08626e-05
0.000198279
-8.32196e-05
0.000318622
-0.000120344
0.000428856
-0.000110233
0.000458533
-2.9677e-05
0.000401289
5.7244e-05
0.000279012
0.000122277
0.000121075
0.000157936
-5.34689e-05
0.000174544
-0.000150878
9.74096e-05
-0.000225507
7.46286e-05
-0.000262212
3.67047e-05
-0.000264996
2.78395e-06
-0.000252804
-1.21917e-05
-0.000233659
-1.91452e-05
-0.000209966
-2.36929e-05
-0.000184658
-2.53086e-05
-0.000157067
-2.75903e-05
-0.000127829
-2.92387e-05
-9.95978e-05
-2.82308e-05
-7.21624e-05
-2.74354e-05
-4.56641e-05
-2.64984e-05
-2.57206e-05
-1.99435e-05
-7.94481e-06
-1.77759e-05
6.67193e-06
-1.46168e-05
1.70823e-05
-1.04104e-05
2.27104e-05
-5.62814e-06
2.43629e-05
-1.65254e-06
2.32027e-05
1.16018e-06
2.08797e-05
2.32307e-06
1.88497e-05
2.02992e-06
1.69965e-05
1.85316e-06
1.35867e-05
3.4098e-06
1.01667e-05
3.42009e-06
2.87736e-06
7.28936e-06
-4.3181e-06
7.19537e-06
-8.62003e-06
4.30194e-06
-6.97201e-06
-1.64798e-06
2.22169e-06
-9.19371e-06
1.88835e-05
-1.6662e-05
4.24453e-05
-2.35618e-05
6.56246e-05
-2.31793e-05
8.96909e-05
-2.40663e-05
0.000109032
-1.93416e-05
0.000119255
-1.02225e-05
0.00011697
2.28522e-06
0.000100038
1.69318e-05
6.71934e-05
3.28442e-05
2.16749e-05
4.55185e-05
-1.23535e-05
3.40284e-05
-4.67784e-05
3.44249e-05
-6.81238e-05
2.13454e-05
-7.43535e-05
6.22961e-06
-6.63813e-05
-7.97217e-06
-4.66861e-05
-1.96952e-05
-2.02952e-05
-2.63909e-05
7.22736e-06
-2.75226e-05
2.46797e-05
-1.74523e-05
3.94752e-05
-1.47955e-05
4.57157e-05
-6.24063e-06
4.31391e-05
2.57666e-06
3.27908e-05
1.03482e-05
1.57947e-05
1.69962e-05
-5.65647e-06
2.14511e-05
-2.2381e-05
1.67245e-05
-4.17129e-05
1.93319e-05
-5.79715e-05
1.62586e-05
-7.11254e-05
1.31538e-05
-7.90817e-05
7.9563e-06
-8.1579e-05
2.49736e-06
-7.86009e-05
-2.9781e-06
-7.0426e-05
-8.175e-06
-5.77054e-05
-1.27206e-05
-4.19103e-05
-1.57952e-05
-2.44345e-05
-1.74758e-05
-7.00338e-06
-1.74311e-05
8.0161e-06
-1.50195e-05
2.10994e-05
-1.30833e-05
3.0463e-05
-9.36368e-06
3.58898e-05
-5.42673e-06
3.77145e-05
-1.82477e-06
3.63938e-05
1.32077e-06
3.28792e-05
3.51455e-06
2.84392e-05
4.44002e-06
2.43861e-05
4.05308e-06
2.10713e-05
3.31482e-06
1.94674e-05
1.60384e-06
1.99997e-05
-5.32288e-07
2.20274e-05
-2.02773e-06
2.59126e-05
-3.88516e-06
3.05023e-05
-4.58972e-06
3.48262e-05
-4.32384e-06
3.8086e-05
-3.25986e-06
3.96873e-05
-1.60133e-06
3.92118e-05
4.75532e-07
3.64331e-05
2.77869e-06
3.13005e-05
5.13261e-06
2.3869e-05
7.43153e-06
1.41338e-05
9.73517e-06
5.42685e-06
8.70698e-06
-5.47231e-06
1.08992e-05
-1.65945e-05
1.11221e-05
-2.71881e-05
1.05937e-05
-3.66456e-05
9.45749e-06
-4.44365e-05
7.79085e-06
-5.01455e-05
5.70909e-06
-5.35333e-05
3.38774e-06
-5.45124e-05
9.79145e-07
-5.31379e-05
-1.3745e-06
-4.96483e-05
-3.48958e-06
-4.44309e-05
-5.2174e-06
-3.79333e-05
-6.49757e-06
-3.06108e-05
-7.32251e-06
-2.289e-05
-7.72083e-06
-1.51336e-05
-7.75634e-06
-7.49268e-06
-2.76079e-05
-1.51258e-05
-2.09979e-05
-2.3528e-05
-1.07345e-05
-3.2832e-05
9.67211e-06
-4.18121e-05
4.59494e-05
-4.95847e-05
9.90781e-05
-5.66316e-05
0.000168065
-6.24192e-05
0.000252179
-7.49406e-05
0.000323423
-7.98518e-05
0.000358943
-7.63826e-05
0.000355941
-8.02174e-05
0.000325297
-8.96998e-05
0.000292605
-7.75417e-05
0.000260031
2.89716e-06
0.000206664
0.000110611
0.000107945
0.000220996
-2.30314e-05
0.000288913
-0.000141037
0.00029255
-0.000240232
0.000196605
-0.000283149
0.000117545
-0.000284683
3.82386e-05
-0.000264623
-1.72756e-05
-0.000235255
-4.15605e-05
-0.000199847
-5.45528e-05
-0.0001615
-6.20402e-05
-0.000127809
-5.89998e-05
-0.000100157
-5.52424e-05
-7.82787e-05
-5.11168e-05
-6.1348e-05
-4.51616e-05
-4.5892e-05
-4.28914e-05
-3.0759e-05
-4.16314e-05
-1.07599e-05
-3.99426e-05
6.44909e-06
-3.4985e-05
1.94372e-05
-2.76049e-05
2.60187e-05
-1.69919e-05
2.64773e-05
-6.08677e-06
2.26299e-05
2.1948e-06
1.72074e-05
6.58276e-06
1.28136e-05
6.71677e-06
1.14119e-05
3.43163e-06
1.32161e-05
4.89352e-08
1.61511e-05
4.74809e-07
1.21647e-05
7.40648e-06
7.11531e-06
1.23388e-05
3.46748e-07
1.39639e-05
-3.4781e-06
8.1268e-06
-1.64427e-06
-3.48183e-06
7.64911e-06
-1.84871e-05
2.34988e-05
-3.25117e-05
4.51488e-05
-4.52118e-05
7.37072e-05
-5.17378e-05
9.86022e-05
-4.89614e-05
0.000113602
-3.43416e-05
0.000117128
-1.37484e-05
0.000110131
9.28198e-06
9.14538e-05
3.56092e-05
5.82892e-05
6.60087e-05
1.66121e-05
8.71956e-05
-2.68036e-05
7.74441e-05
-5.7573e-05
6.51942e-05
-7.4419e-05
3.81914e-05
-7.76996e-05
9.51025e-06
-6.81105e-05
-1.75613e-05
-4.64849e-05
-4.13208e-05
-1.82153e-05
-5.46605e-05
8.93358e-06
-5.46715e-05
3.22268e-05
-4.07455e-05
4.33986e-05
-2.59674e-05
4.53432e-05
-8.1853e-06
3.99121e-05
8.00783e-06
2.86231e-05
2.16371e-05
1.15256e-05
3.40937e-05
-6.98377e-06
3.99605e-05
-2.87466e-05
3.84873e-05
-4.65353e-05
3.71206e-05
-6.2123e-05
3.18462e-05
-7.32201e-05
2.4251e-05
-7.98076e-05
1.45438e-05
-8.11675e-05
3.85729e-06
-7.71083e-05
-7.03736e-06
-6.80739e-05
-1.72094e-05
-5.43031e-05
-2.64913e-05
-3.77362e-05
-3.23622e-05
-1.97156e-05
-3.54964e-05
-1.62782e-06
-3.55188e-05
1.39219e-05
-3.05692e-05
2.71477e-05
-2.63091e-05
3.63767e-05
-1.85928e-05
4.12233e-05
-1.02733e-05
4.23833e-05
-2.98482e-06
4.00396e-05
3.66447e-06
3.53898e-05
8.16433e-06
2.98079e-05
1.0022e-05
2.53687e-05
8.49226e-06
2.13009e-05
7.38256e-06
1.91693e-05
3.73544e-06
1.91457e-05
-5.08661e-07
2.12976e-05
-4.17966e-06
2.53501e-05
-7.93759e-06
2.9788e-05
-9.02767e-06
3.3779e-05
-8.31484e-06
3.65153e-05
-5.99613e-06
3.74204e-05
-2.5064e-06
3.6238e-05
1.65788e-06
3.29508e-05
6.06592e-06
2.76698e-05
1.04136e-05
2.05974e-05
1.45039e-05
1.21418e-05
1.81907e-05
1.17617e-06
1.96727e-05
-9.68381e-06
2.17592e-05
-2.06751e-05
2.21134e-05
-3.11769e-05
2.10955e-05
-4.05082e-05
1.87888e-05
-4.80637e-05
1.53463e-05
-5.33843e-05
1.10297e-05
-5.61906e-05
6.19407e-06
-5.64265e-05
1.21502e-06
-5.42305e-05
-3.5705e-06
-4.98635e-05
-7.85661e-06
-4.3729e-05
-1.13519e-05
-3.63307e-05
-1.38959e-05
-2.8188e-05
-1.54651e-05
-1.97658e-05
-1.6143e-05
-1.15061e-05
-1.60161e-05
-1.52848e-05
-5.58923e-05
-1.10469e-05
-5.80811e-05
-2.13391e-05
-5.6729e-05
-3.4184e-05
-4.9324e-05
-4.92172e-05
-3.24875e-05
-6.64211e-05
-4.21489e-06
-8.49041e-05
3.37754e-05
-0.000100409
7.85002e-05
-0.000119665
0.000134321
-0.000135673
0.000198246
-0.000140307
0.000247139
-0.000129111
0.000238257
-8.08179e-05
0.000171562
-1.08464e-05
8.6749e-05
8.77106e-05
1.15604e-06
0.000196204
-7.04118e-05
0.000292564
-0.000130137
0.000348638
-0.000167728
0.000330141
-0.00022717
0.000256047
-0.000244597
0.000134973
-0.000256286
4.99278e-05
-0.000257329
-1.62328e-05
-0.00024343
-5.54593e-05
-0.000221944
-7.60389e-05
-0.000189016
-9.49686e-05
-0.000143319
-0.000104697
-9.1508e-05
-0.000107053
-4.10907e-05
-0.000101534
-2.92626e-06
-8.33261e-05
2.37144e-05
-6.95321e-05
2.5851e-05
-4.3768e-05
2.11028e-05
-3.51945e-05
1.11101e-05
-2.49923e-05
6.41326e-06
-2.29081e-05
4.72114e-06
-1.52998e-05
2.57865e-06
-3.94432e-06
-1.02475e-07
4.87591e-06
-2.62172e-06
9.102e-06
-3.08444e-06
7.17949e-06
1.25064e-06
-9.03487e-07
1.12548e-05
-9.95528e-06
2.19064e-05
-1.01768e-05
2.70231e-05
2.28977e-06
2.69282e-05
1.24337e-05
1.84164e-05
2.24757e-05
1.0894e-05
1.56491e-05
7.45853e-06
-4.63379e-08
1.23315e-05
-2.33602e-05
2.37296e-05
-4.39099e-05
4.18152e-05
-6.32974e-05
6.31848e-05
-7.31073e-05
8.20396e-05
-6.78162e-05
9.0508e-05
-4.28101e-05
8.87244e-05
-1.19649e-05
8.22277e-05
1.57786e-05
6.91177e-05
4.87192e-05
4.22664e-05
9.286e-05
7.31883e-06
0.000122143
-3.24529e-05
0.000117216
-5.5319e-05
8.80603e-05
-6.47861e-05
4.76585e-05
-6.44409e-05
9.16508e-06
-5.44838e-05
-2.75184e-05
-3.1413e-05
-6.43917e-05
-1.91586e-06
-8.41577e-05
2.31303e-05
-7.97177e-05
3.71687e-05
-5.47838e-05
4.36858e-05
-3.24845e-05
4.30825e-05
-7.58196e-06
3.64738e-05
1.46165e-05
2.45287e-05
3.35822e-05
9.25578e-06
4.93666e-05
-8.01696e-06
5.72332e-05
-2.44752e-05
5.49456e-05
-4.01952e-05
5.28406e-05
-5.37139e-05
4.53649e-05
-6.40847e-05
3.46217e-05
-7.10696e-05
2.15287e-05
-7.46414e-05
7.42912e-06
-7.40376e-05
-7.64115e-06
-6.9631e-05
-2.16161e-05
-5.73653e-05
-3.87569e-05
-4.18067e-05
-4.79208e-05
-2.3449e-05
-5.38542e-05
-4.72386e-06
-5.42439e-05
1.23043e-05
-4.75974e-05
2.60211e-05
-4.00258e-05
3.61664e-05
-2.87381e-05
4.18598e-05
-1.59666e-05
4.47609e-05
-5.88593e-06
4.23488e-05
6.07659e-06
3.7004e-05
1.35091e-05
3.10457e-05
1.59803e-05
2.46533e-05
1.48847e-05
1.95752e-05
1.24606e-05
1.61061e-05
7.20455e-06
1.37052e-05
1.89223e-06
1.63071e-05
-6.78157e-06
2.04748e-05
-1.21053e-05
2.5647e-05
-1.41999e-05
3.06595e-05
-1.33273e-05
3.45855e-05
-9.92215e-06
3.67704e-05
-4.69133e-06
3.67995e-05
1.62883e-06
3.4492e-05
8.37338e-06
2.98941e-05
1.50116e-05
2.31966e-05
2.12014e-05
1.47945e-05
2.65928e-05
3.97481e-06
3.04924e-05
-7.1469e-06
3.28809e-05
-1.85223e-05
3.34888e-05
-2.95879e-05
3.21611e-05
-3.96484e-05
2.88493e-05
-4.80258e-05
2.37237e-05
-5.41503e-05
1.71541e-05
-5.76173e-05
9.66116e-06
-5.82397e-05
1.83736e-06
-5.6098e-05
-5.71216e-06
-5.14957e-05
-1.24589e-05
-4.49074e-05
-1.79402e-05
-3.69137e-05
-2.18896e-05
-2.81617e-05
-2.42171e-05
-1.92504e-05
-2.50543e-05
-1.06188e-05
-2.46477e-05
-2.33469e-05
-7.37386e-05
-1.94132e-06
-8.22572e-05
-1.28205e-05
-8.87083e-05
-2.77329e-05
-9.06182e-05
-4.73072e-05
-8.51066e-05
-7.19327e-05
-7.24422e-05
-9.75685e-05
-5.03885e-05
-0.000122463
-2.32478e-05
-0.000146806
6.36583e-06
-0.000165286
3.81501e-05
-0.000172091
7.35578e-05
-0.000164519
0.000102254
-0.000109514
0.000127174
-3.57658e-05
0.000147701
6.71837e-05
0.000159553
0.000184352
0.000170603
0.000281514
0.000183626
0.000335615
0.0001794
0.000334368
0.000153636
0.000281811
0.000101976
0.000186632
4.42758e-05
0.000107628
-6.49855e-06
3.45414e-05
-4.34602e-05
-1.84977e-05
-6.94164e-05
-5.00828e-05
-9.01452e-05
-7.42398e-05
-0.000108114
-8.67279e-05
-0.000123663
-9.15043e-05
-0.00012934
-9.58565e-05
-0.000114142
-9.85241e-05
-9.07342e-05
-9.29402e-05
-5.19788e-05
-8.25234e-05
-2.13069e-05
-6.58665e-05
-5.37245e-06
-4.09267e-05
-6.95319e-06
-2.13274e-05
-2.11156e-05
-1.13743e-06
-3.18257e-05
6.76577e-06
-3.53042e-05
8.35434e-06
-3.43694e-05
8.16728e-06
-2.99285e-05
2.73855e-06
-1.74735e-05
-1.33585e-05
7.85116e-06
-3.528e-05
4.24193e-05
-4.47449e-05
7.15064e-05
-2.67973e-05
8.20366e-05
1.90342e-06
7.40776e-05
3.04347e-05
6.36373e-05
2.60895e-05
5.65504e-05
7.04054e-06
5.10759e-05
-1.78857e-05
3.73369e-05
-3.01709e-05
2.25291e-05
-4.84897e-05
4.93021e-05
-9.98803e-05
6.52403e-05
-8.37544e-05
6.47933e-05
-4.23631e-05
5.35597e-05
-7.31235e-07
3.88112e-05
3.05271e-05
1.97694e-05
6.77609e-05
-3.57373e-07
0.000112987
-1.96386e-05
0.000141424
-4.56707e-05
0.000143248
-6.18602e-05
0.00010425
-6.96371e-05
5.54354e-05
-6.9959e-05
9.48699e-06
-6.59588e-05
-3.15186e-05
-3.89517e-05
-9.13988e-05
8.07337e-08
-0.00012319
3.30571e-05
-0.000112694
5.82098e-05
-7.99366e-05
6.37349e-05
-3.80096e-05
5.77634e-05
-1.61046e-06
4.2443e-05
2.99369e-05
1.98142e-05
5.6211e-05
-3.27998e-06
7.24607e-05
-2.72563e-05
8.12096e-05
-4.55799e-05
7.32691e-05
-5.65798e-05
6.38405e-05
-6.16155e-05
5.04006e-05
-6.14069e-05
3.4413e-05
-5.72515e-05
1.73733e-05
-5.28854e-05
3.063e-06
-4.84534e-05
-1.20731e-05
-4.26659e-05
-2.74035e-05
-3.72623e-05
-4.41605e-05
-3.35682e-05
-5.16149e-05
-2.66673e-05
-6.07551e-05
-1.55319e-05
-6.53793e-05
-1.46876e-06
-6.16605e-05
1.23633e-05
-5.38579e-05
2.53818e-05
-4.17566e-05
3.65248e-05
-2.71096e-05
4.42393e-05
-1.36004e-05
4.72376e-05
3.07828e-06
4.54839e-05
1.52627e-05
4.02732e-05
2.1191e-05
3.35336e-05
2.16243e-05
2.71225e-05
1.88717e-05
2.14004e-05
1.29267e-05
1.76301e-05
5.66251e-06
1.80065e-05
-7.15788e-06
2.10093e-05
-1.51081e-05
2.63007e-05
-1.94913e-05
3.2338e-05
-1.93646e-05
3.77572e-05
-1.53413e-05
4.14776e-05
-8.41173e-06
4.27697e-05
3.36763e-07
4.12469e-05
9.89613e-06
3.67573e-05
1.95012e-05
2.93854e-05
2.85732e-05
1.97246e-05
3.62536e-05
5.94352e-06
4.42735e-05
-8.00029e-06
4.68247e-05
-2.24777e-05
4.79662e-05
-3.65169e-05
4.62003e-05
-4.90606e-05
4.1393e-05
-5.9154e-05
3.38171e-05
-6.61602e-05
2.41603e-05
-6.98528e-05
1.33537e-05
-7.01928e-05
2.17738e-06
-6.73478e-05
-8.55715e-06
-6.16913e-05
-1.81154e-05
-5.36922e-05
-2.59393e-05
-4.39524e-05
-3.16294e-05
-3.31701e-05
-3.49995e-05
-2.20516e-05
-3.61727e-05
-1.11338e-05
-3.55656e-05
-3.36031e-05
-8.99558e-05
1.33671e-05
-0.000103564
7.87995e-07
-0.000112498
-1.87993e-05
-0.000118206
-4.15994e-05
-0.000120571
-6.95678e-05
-0.000115241
-0.000102898
-0.000101266
-0.000136439
-8.0428e-05
-0.000167644
-5.41575e-05
-0.000191557
-2.29151e-05
-0.000203334
1.43515e-05
-0.000201785
6.15115e-05
-0.000156674
0.000114027
-8.8281e-05
0.000180479
7.31146e-07
0.000254289
0.000110542
0.000328223
0.000207579
0.000391365
0.000272473
0.000431194
0.000294539
0.000435091
0.000277915
0.000395567
0.000226156
0.000339618
0.000163577
0.000271335
0.000102824
0.000196038
5.67999e-05
0.000126717
1.92376e-05
6.51409e-05
-1.26634e-05
1.63167e-05
-3.79037e-05
-2.25597e-05
-5.26279e-05
-5.7268e-05
-6.11482e-05
-8.848e-05
-6.73121e-05
-0.000118705
-6.27151e-05
-0.000151563
-4.96655e-05
-0.000183006
-3.44231e-05
-0.000203222
-2.07109e-05
-0.000218597
-5.95314e-06
-0.000226904
7.1704e-06
-0.000227672
7.533e-06
-0.000224064
4.74679e-06
-0.000212297
-3.59952e-06
-0.000194707
-1.48517e-05
-0.000170428
-3.76372e-05
-0.000129684
-7.60246e-05
-6.19316e-05
-0.000112497
2.48908e-05
-0.00011362
0.00011249
-8.5696e-05
0.000202779
-5.98546e-05
0.000275959
-4.70897e-05
0.000297501
-1.45017e-05
0.00028552
-5.90503e-06