/*--------------------------------*- C++ -*----------------------------------*\
| =========                 |                                                 |
| \\      /  F ield         | OpenFOAM: The Open Source CFD Toolbox           |
|  \\    /   O peration     | Version:  2206                                  |
|   \\  /    A nd           | Website:  www.openfoam.com                      |
|    \\/     M anipulation  |                                                 |
\*---------------------------------------------------------------------------*/
FoamFile
{
    version     2.0;
    format      ascii;
    arch        "LSB;label=32;scalar=64";
    class       volVectorField;
    location    "19.1001";
    object      ddtCorrDdt0(U);
}
// * * * * * * * * * * * * * * * * * * * * * * * * * * * * * * * * * * * * * //

dimensions      [0 1 -2 0 0 0 0];

internalField   nonuniform List<vector> 
1849
(
(1.24473e-06 4.70714e-05 0)
(5.89275e-06 0.000138911 0)
(1.73885e-05 0.000238862 0)
(3.60068e-05 0.000339073 0)
(6.09142e-05 0.000435861 0)
(9.16643e-05 0.000526111 0)
(0.000128508 0.000607818 0)
(0.000171301 0.000679481 0)
(0.000219189 0.000740091 0)
(0.00027116 0.000789232 0)
(0.000326241 0.000827488 0)
(0.000383495 0.000855877 0)
(0.000442522 0.000876688 0)
(0.000503354 0.000892429 0)
(0.000566001 0.000906599 0)
(0.000630154 0.000922831 0)
(0.000695516 0.000945356 0)
(0.000762335 0.000978203 0)
(0.000831415 0.00102584 0)
(0.000904118 0.00109173 0)
(0.000981897 0.00117989 0)
(0.00106627 0.00129311 0)
(0.00115889 0.00143445 0)
(0.00126136 0.00160636 0)
(0.00137567 0.00181115 0)
(0.00150466 0.00205065 0)
(0.00165021 0.00232666 0)
(0.00181781 0.00263979 0)
(0.00200224 0.00299196 0)
(0.00221478 0.00338375 0)
(0.00246289 0.00381744 0)
(0.00273029 0.00429227 0)
(0.00304308 0.0048127 0)
(0.00338841 0.00537969 0)
(0.00377581 0.00599867 0)
(0.00421347 0.00667274 0)
(0.00469269 0.00740866 0)
(0.00524396 0.00821315 0)
(0.00582727 0.00909158 0)
(0.00650079 0.0100586 0)
(0.00722578 0.0111209 0)
(0.00803725 0.0122952 0)
(0.00892611 0.0135902 0)
(0.00989416 0.015022 0)
(0.0109973 0.0166124 0)
(0.0121618 0.0183708 0)
(0.013514 0.0203369 0)
(0.0149425 0.0225114 0)
(0.0165652 0.0249411 0)
(0.0183295 0.0276382 0)
(0.0202778 0.0306362 0)
(0.0224557 0.0339674 0)
(0.0247963 0.0376524 0)
(0.0275098 0.0417678 0)
(0.0303779 0.0463075 0)
(0.0336872 0.0513759 0)
(0.0372665 0.0569724 0)
(0.0412359 0.0631822 0)
(0.0457286 0.0700819 0)
(0.050538 0.0776768 0)
(0.0561272 0.0861743 0)
(0.0620575 0.0954658 0)
(0.0688866 0.105872 0)
(0.0763062 0.11729 0)
(0.084624 0.12999 0)
(0.0937678 0.143926 0)
(0.103991 0.159512 0)
(0.115268 0.176876 0)
(0.127198 0.195848 0)
(0.140066 0.217318 0)
(0.156061 0.241687 0)
(0.174115 0.267075 0)
(0.192202 0.295423 0)
(0.212378 0.327228 0)
(0.234974 0.362543 0)
(0.259927 0.401588 0)
(0.287569 0.444685 0)
(0.318297 0.492251 0)
(0.352514 0.544835 0)
(0.390605 0.603021 0)
(0.433035 0.667466 0)
(0.48033 0.738893 0)
(0.533029 0.818187 0)
(0.59167 0.906262 0)
(0.656872 1.00409 0)
(0.729355 1.11264 0)
(0.810068 1.23304 0)
(0.900108 1.36653 0)
(1.00073 1.51464 0)
(1.1135 1.67921 0)
(1.24029 1.86262 0)
(1.3831 2.06753 0)
(1.54435 2.2974 0)
(1.7271 2.55683 0)
(1.93553 2.85235 0)
(2.17396 3.19472 0)
(2.45423 3.5974 0)
(2.77002 4.09426 0)
(3.225 4.6986 0)
(3.56755 5.61393 0)
(5.35066 6.63784 0)
(5.06369 9.30341 0)
(1.41659e-06 4.3683e-05 0)
(6.92353e-06 0.000128334 0)
(2.04834e-05 0.000220712 0)
(4.16961e-05 0.000313805 0)
(6.93467e-05 0.000404305 0)
(0.000103743 0.000488884 0)
(0.000146178 0.000564426 0)
(0.00019632 0.000629885 0)
(0.000252414 0.000684972 0)
(0.000312919 0.000729807 0)
(0.000376604 0.00076478 0)
(0.000442844 0.000790849 0)
(0.000511328 0.000809851 0)
(0.000581859 0.000824162 0)
(0.000654165 0.000836808 0)
(0.000728034 0.000851441 0)
(0.000803544 0.000872205 0)
(0.00088128 0.000903027 0)
(0.000961979 0.000947347 0)
(0.00104685 0.0010087 0)
(0.00113742 0.00109028 0)
(0.00123516 0.00119521 0)
(0.00134208 0.00132642 0)
(0.00146013 0.00148621 0)
(0.00159186 0.00167653 0)
(0.00174041 0.00189879 0)
(0.00190763 0.00215442 0)
(0.00210065 0.00244439 0)
(0.00231062 0.00277004 0)
(0.00256105 0.00313264 0)
(0.00283924 0.00353251 0)
(0.00315511 0.00397115 0)
(0.00350815 0.00445093 0)
(0.0039127 0.00497454 0)
(0.00435624 0.00554469 0)
(0.00486249 0.0061671 0)
(0.00542093 0.00684515 0)
(0.00604514 0.00758651 0)
(0.00673529 0.00839896 0)
(0.00749905 0.00929116 0)
(0.00835307 0.0102754 0)
(0.00927879 0.0113598 0)
(0.0103136 0.0125622 0)
(0.0114391 0.0138891 0)
(0.012693 0.0153603 0)
(0.0140712 0.0169925 0)
(0.015599 0.0188084 0)
(0.0172864 0.0208298 0)
(0.0191364 0.0230801 0)
(0.0212034 0.0255937 0)
(0.0234382 0.0283786 0)
(0.0259405 0.0314738 0)
(0.0286902 0.0348999 0)
(0.031749 0.0386994 0)
(0.0351525 0.0429214 0)
(0.0389031 0.0475961 0)
(0.0430681 0.0527951 0)
(0.0476933 0.0585439 0)
(0.0528068 0.0649118 0)
(0.0584817 0.071966 0)
(0.0648305 0.0798039 0)
(0.0717552 0.0884334 0)
(0.0796111 0.0980503 0)
(0.0881951 0.108629 0)
(0.097753 0.12035 0)
(0.10846 0.133415 0)
(0.119936 0.147564 0)
(0.133186 0.163876 0)
(0.147555 0.181701 0)
(0.163922 0.201618 0)
(0.180702 0.224301 0)
(0.199084 0.247587 0)
(0.221094 0.273815 0)
(0.24525 0.303395 0)
(0.271516 0.33623 0)
(0.300338 0.372472 0)
(0.332163 0.412437 0)
(0.367513 0.456497 0)
(0.406885 0.505145 0)
(0.450742 0.55887 0)
(0.499625 0.6183 0)
(0.554178 0.684066 0)
(0.615039 0.757053 0)
(0.682786 0.838152 0)
(0.757986 0.928241 0)
(0.841416 1.02811 0)
(0.934132 1.13899 0)
(1.03738 1.26179 0)
(1.15267 1.39739 0)
(1.28223 1.5474 0)
(1.42821 1.71415 0)
(1.59292 1.8999 0)
(1.77965 2.10722 0)
(1.99295 2.33948 0)
(2.23983 2.60167 0)
(2.52815 2.90111 0)
(2.88074 3.24667 0)
(3.30035 3.65635 0)
(3.92231 4.13752 0)
(4.57723 4.72985 0)
(6.02722 5.30235 0)
(7.38772 6.64298 0)
(1.59942e-06 4.15265e-05 0)
(8.72525e-06 0.000116364 0)
(2.14208e-05 0.000204966 0)
(4.50681e-05 0.000289231 0)
(7.38944e-05 0.000372874 0)
(0.000117928 0.000444195 0)
(0.000166562 0.000511294 0)
(0.000222659 0.00057056 0)
(0.000285381 0.000620699 0)
(0.00035312 0.000661664 0)
(0.000424459 0.00069367 0)
(0.000498671 0.000717428 0)
(0.0005756 0.000734146 0)
(0.000654842 0.000746383 0)
(0.00073594 0.000757207 0)
(0.000818712 0.000770326 0)
(0.000903424 0.000789269 0)
(0.000990656 0.000817452 0)
(0.0010813 0.000857888 0)
(0.00117672 0.000914141 0)
(0.00127838 0.000988947 0)
(0.00138802 0.00108543 0)
(0.00150768 0.0012059 0)
(0.00163989 0.00135243 0)
(0.00178748 0.0015263 0)
(0.00195398 0.00172903 0)
(0.00214178 0.00196165 0)
(0.00235793 0.00222597 0)
(0.0025941 0.00252139 0)
(0.0028728 0.00284993 0)
(0.00318664 0.00321157 0)
(0.00353642 0.00360796 0)
(0.00393966 0.0040416 0)
(0.00438537 0.00451358 0)
(0.00489241 0.00502849 0)
(0.00545493 0.00558998 0)
(0.00608484 0.00620202 0)
(0.0067851 0.00687241 0)
(0.00755904 0.00760623 0)
(0.00842575 0.00841492 0)
(0.00937455 0.00930589 0)
(0.0104318 0.0102934 0)
(0.0115816 0.0113854 0)
(0.0128563 0.0125926 0)
(0.0142544 0.0139292 0)
(0.0158106 0.0154112 0)
(0.017526 0.0170586 0)
(0.0194259 0.0188947 0)
(0.0215324 0.0209494 0)
(0.0238296 0.0232363 0)
(0.0263862 0.0257891 0)
(0.0291429 0.0285986 0)
(0.0322483 0.0317248 0)
(0.0356718 0.0351872 0)
(0.0394889 0.0390228 0)
(0.0437256 0.0432851 0)
(0.0483902 0.048042 0)
(0.053594 0.0532901 0)
(0.0593073 0.0590695 0)
(0.0657672 0.0654942 0)
(0.0727722 0.0725258 0)
(0.0807519 0.0804161 0)
(0.0893989 0.089059 0)
(0.099101 0.0986931 0)
(0.109933 0.109432 0)
(0.121608 0.121087 0)
(0.135024 0.134467 0)
(0.149478 0.149013 0)
(0.165541 0.165147 0)
(0.183378 0.182934 0)
(0.202749 0.202033 0)
(0.22438 0.224093 0)
(0.248876 0.248829 0)
(0.275807 0.276394 0)
(0.305241 0.306734 0)
(0.337519 0.339782 0)
(0.373175 0.375912 0)
(0.412769 0.415717 0)
(0.456819 0.459645 0)
(0.505854 0.508221 0)
(0.560489 0.561774 0)
(0.621522 0.621059 0)
(0.689751 0.687263 0)
(0.765694 0.761275 0)
(0.849864 0.843262 0)
(0.943312 0.933553 0)
(1.0471 1.03341 0)
(1.16199 1.14385 0)
(1.28984 1.26524 0)
(1.43378 1.39896 0)
(1.5963 1.54685 0)
(1.77959 1.71061 0)
(1.98705 1.89127 0)
(2.22412 2.09059 0)
(2.49869 2.31117 0)
(2.81953 2.55527 0)
(3.20662 2.8249 0)
(3.66846 3.11444 0)
(4.27831 3.42116 0)
(4.98452 3.71214 0)
(5.97337 3.77022 0)
(7.2211 3.98357 0)
(1.86329e-06 3.54252e-05 0)
(9.36742e-06 0.000105078 0)
(2.41914e-05 0.000184328 0)
(4.96047e-05 0.000260342 0)
(8.55918e-05 0.000331412 0)
(0.000129412 0.000397247 0)
(0.000184146 0.000454929 0)
(0.000244097 0.000507264 0)
(0.000315475 0.000550213 0)
(0.000389175 0.000587034 0)
(0.000469247 0.000614865 0)
(0.000551694 0.000635473 0)
(0.0006354 0.000650654 0)
(0.000721436 0.000661457 0)
(0.000809792 0.000670442 0)
(0.000900348 0.000681257 0)
(0.000993276 0.000697416 0)
(0.00108914 0.000722014 0)
(0.00118891 0.000757915 0)
(0.00129388 0.000808043 0)
(0.00140561 0.000875062 0)
(0.00152592 0.000961437 0)
(0.00165721 0.00106926 0)
(0.00180211 0.00120029 0)
(0.00196394 0.00135531 0)
(0.00214658 0.00153608 0)
(0.00235315 0.00174361 0)
(0.00258913 0.00197894 0)
(0.0028523 0.00224278 0)
(0.00314961 0.0025323 0)
(0.00350066 0.00285196 0)
(0.00387861 0.00320076 0)
(0.00432158 0.00358443 0)
(0.00481413 0.00400123 0)
(0.00536119 0.00445437 0)
(0.0059926 0.00495122 0)
(0.00666721 0.00548808 0)
(0.00745376 0.00608163 0)
(0.00829047 0.00672566 0)
(0.00925288 0.00744028 0)
(0.0103003 0.00823156 0)
(0.0114569 0.00910923 0)
(0.0127396 0.0100863 0)
(0.0141174 0.01115 0)
(0.0156796 0.0123439 0)
(0.0173576 0.0136537 0)
(0.0192699 0.0151242 0)
(0.0213521 0.0167518 0)
(0.023666 0.0185963 0)
(0.0262471 0.0206998 0)
(0.0289821 0.0229806 0)
(0.0320828 0.0254905 0)
(0.035425 0.0282361 0)
(0.0392099 0.0313 0)
(0.0434257 0.0347131 0)
(0.048047 0.0384525 0)
(0.0532395 0.0426826 0)
(0.0588155 0.0473416 0)
(0.0652051 0.0525826 0)
(0.0720666 0.0582831 0)
(0.079955 0.0646668 0)
(0.0885449 0.0715927 0)
(0.0981809 0.0793085 0)
(0.108928 0.0878879 0)
(0.120567 0.0972329 0)
(0.133894 0.107911 0)
(0.14826 0.119493 0)
(0.164196 0.132468 0)
(0.181835 0.146977 0)
(0.201215 0.162925 0)
(0.222339 0.18051 0)
(0.246428 0.199743 0)
(0.274074 0.220739 0)
(0.303978 0.245567 0)
(0.335909 0.273689 0)
(0.370758 0.304039 0)
(0.409627 0.336718 0)
(0.453082 0.372214 0)
(0.501522 0.411076 0)
(0.555254 0.45413 0)
(0.615066 0.500871 0)
(0.682464 0.551524 0)
(0.758229 0.608576 0)
(0.841933 0.673799 0)
(0.933559 0.747001 0)
(1.03497 0.828046 0)
(1.14793 0.918024 0)
(1.27278 1.0152 0)
(1.41148 1.11973 0)
(1.56753 1.23484 0)
(1.74333 1.36287 0)
(1.94035 1.50365 0)
(2.16189 1.65655 0)
(2.414 1.82155 0)
(2.70405 1.9993 0)
(3.03905 2.18789 0)
(3.43038 2.38358 0)
(3.88803 2.57331 0)
(4.43307 2.74153 0)
(5.09002 2.86292 0)
(5.82915 2.83457 0)
(6.77924 2.78065 0)
(1.86125e-06 3.11082e-05 0)
(1.00008e-05 9.1559e-05 0)
(2.49515e-05 0.000162951 0)
(5.4881e-05 0.000226592 0)
(9.23026e-05 0.000289604 0)
(0.000141632 0.000344574 0)
(0.00019902 0.000393984 0)
(0.000264818 0.000436533 0)
(0.000342743 0.000471023 0)
(0.000420854 0.000504176 0)
(0.000505982 0.000528655 0)
(0.000592722 0.000546459 0)
(0.000684358 0.000558558 0)
(0.000777059 0.000566941 0)
(0.000871896 0.000573885 0)
(0.000969786 0.000582551 0)
(0.00107062 0.000596214 0)
(0.00117458 0.000617729 0)
(0.00128274 0.000649324 0)
(0.00139663 0.000693938 0)
(0.00151771 0.000753638 0)
(0.00164799 0.000830496 0)
(0.00178996 0.00092586 0)
(0.00194615 0.00104155 0)
(0.00212068 0.001176 0)
(0.00231778 0.0013328 0)
(0.00254088 0.00151311 0)
(0.00279478 0.00171753 0)
(0.00308212 0.00194914 0)
(0.00340886 0.00219899 0)
(0.00376292 0.00247236 0)
(0.00418592 0.00276804 0)
(0.00463985 0.00309303 0)
(0.00519844 0.00345032 0)
(0.00575501 0.00383314 0)
(0.00646465 0.00426261 0)
(0.00716633 0.00471584 0)
(0.00802611 0.00522577 0)
(0.0089292 0.00577025 0)
(0.009956 0.00637363 0)
(0.0111209 0.00705073 0)
(0.0123423 0.00781551 0)
(0.0137578 0.00868656 0)
(0.015215 0.00960495 0)
(0.0169357 0.0106421 0)
(0.0187322 0.0117424 0)
(0.0207896 0.0129977 0)
(0.0230626 0.0143343 0)
(0.025621 0.0158769 0)
(0.0283757 0.017778 0)
(0.0313335 0.0198797 0)
(0.0345148 0.0220711 0)
(0.038252 0.0244903 0)
(0.0423236 0.0271085 0)
(0.0468494 0.0299954 0)
(0.0519972 0.0332906 0)
(0.0572731 0.0373764 0)
(0.0638077 0.0409421 0)
(0.0705379 0.0453926 0)
(0.0782766 0.0503397 0)
(0.086538 0.0556347 0)
(0.0958698 0.0616628 0)
(0.106231 0.0683168 0)
(0.1175 0.075612 0)
(0.130386 0.0841405 0)
(0.144298 0.093254 0)
(0.159823 0.103325 0)
(0.177141 0.114721 0)
(0.19615 0.127512 0)
(0.217159 0.141557 0)
(0.239451 0.156874 0)
(0.266779 0.173828 0)
(0.286577 0.192166 0)
(0.319647 0.21312 0)
(0.358667 0.236257 0)
(0.400406 0.261697 0)
(0.446399 0.289782 0)
(0.496944 0.320478 0)
(0.552638 0.354252 0)
(0.610459 0.391844 0)
(0.68057 0.433418 0)
(0.743284 0.478885 0)
(0.816418 0.528308 0)
(0.898363 0.583983 0)
(0.996499 0.643959 0)
(1.1068 0.709903 0)
(1.22708 0.790346 0)
(1.35715 0.878099 0)
(1.50392 0.965578 0)
(1.67229 1.06 0)
(1.86126 1.16781 0)
(2.07007 1.28494 0)
(2.30229 1.40655 0)
(2.56429 1.53516 0)
(2.86158 1.67229 0)
(3.1983 1.81415 0)
(3.57975 1.95267 0)
(4.0147 2.07624 0)
(4.50656 2.16751 0)
(5.07586 2.21261 0)
(5.68965 2.14749 0)
(6.37191 1.98007 0)
(1.9309e-06 2.66928e-05 0)
(1.10149e-05 7.73944e-05 0)
(2.5053e-05 0.000140336 0)
(5.89267e-05 0.000191258 0)
(9.90634e-05 0.000242726 0)
(0.000150497 0.000288624 0)
(0.000213483 0.000328087 0)
(0.000278178 0.000365273 0)
(0.000364687 0.000392364 0)
(0.000452038 0.00041608 0)
(0.000538896 0.000436998 0)
(0.0006277 0.000455127 0)
(0.000723264 0.000465599 0)
(0.000821195 0.000470617 0)
(0.000922043 0.000474881 0)
(0.00102699 0.00048068 0)
(0.00113567 0.000490735 0)
(0.00124786 0.000507794 0)
(0.00136477 0.000533135 0)
(0.00148789 0.000569709 0)
(0.00161845 0.000619182 0)
(0.0017579 0.000683716 0)
(0.00190972 0.000764659 0)
(0.00207456 0.000864992 0)
(0.00226137 0.000977208 0)
(0.00245468 0.00110815 0)
(0.00270253 0.00125247 0)
(0.00297105 0.00142028 0)
(0.00326339 0.00161954 0)
(0.00362374 0.00183438 0)
(0.00397028 0.00205848 0)
(0.00448415 0.00230251 0)
(0.00488937 0.00255913 0)
(0.00557708 0.00285467 0)
(0.0060832 0.00315726 0)
(0.00690065 0.00351176 0)
(0.00761574 0.00388172 0)
(0.00848975 0.00428588 0)
(0.00953499 0.00474899 0)
(0.0104473 0.00521042 0)
(0.0119251 0.00582304 0)
(0.0129849 0.00637725 0)
(0.0147116 0.0071501 0)
(0.0159951 0.00785001 0)
(0.0178876 0.00878126 0)
(0.0198208 0.00974791 0)
(0.0217296 0.0107739 0)
(0.0245074 0.0120063 0)
(0.0260278 0.0133231 0)
(0.0294408 0.0147789 0)
(0.0331538 0.0164106 0)
(0.0369985 0.0182245 0)
(0.0412278 0.0202261 0)
(0.0458491 0.0224512 0)
(0.0508487 0.0249103 0)
(0.0562953 0.0276497 0)
(0.0623251 0.0306721 0)
(0.0690073 0.0340358 0)
(0.076272 0.0378909 0)
(0.0841852 0.0421149 0)
(0.0929215 0.0467036 0)
(0.102627 0.0517082 0)
(0.113533 0.0570677 0)
(0.12564 0.0630811 0)
(0.139333 0.0698079 0)
(0.154709 0.0773046 0)
(0.170748 0.0857362 0)
(0.188886 0.0952145 0)
(0.208808 0.106213 0)
(0.230641 0.118448 0)
(0.255042 0.131518 0)
(0.282837 0.14581 0)
(0.314585 0.160169 0)
(0.348658 0.177305 0)
(0.384424 0.196109 0)
(0.424071 0.216894 0)
(0.468761 0.240179 0)
(0.519472 0.266167 0)
(0.572172 0.295123 0)
(0.634233 0.326996 0)
(0.702559 0.362693 0)
(0.778009 0.403081 0)
(0.863323 0.446533 0)
(0.947368 0.492771 0)
(1.06028 0.542495 0)
(1.14542 0.597025 0)
(1.28342 0.657661 0)
(1.44403 0.725147 0)
(1.60413 0.795227 0)
(1.78656 0.867688 0)
(1.98807 0.95836 0)
(2.19882 1.06152 0)
(2.42854 1.1588 0)
(2.69048 1.25368 0)
(2.9869 1.35342 0)
(3.31662 1.45461 0)
(3.68163 1.54603 0)
(4.08744 1.61973 0)
(4.53384 1.6622 0)
(5.02085 1.65816 0)
(5.52979 1.56772 0)
(6.03909 1.3769 0)
(2.3485e-06 2.05956e-05 0)
(1.15776e-05 6.25912e-05 0)
(2.32922e-05 0.000116231 0)
(6.37707e-05 0.000153017 0)
(9.80403e-05 0.000199201 0)
(0.000161767 0.000227477 0)
(0.000219764 0.000265086 0)
(0.000291641 0.000272876 0)
(0.000378761 0.000282456 0)
(0.000466534 0.000342308 0)
(0.000565379 0.000342669 0)
(0.000659375 0.000356068 0)
(0.000752516 0.000364326 0)
(0.000853662 0.000363882 0)
(0.000961085 0.000361959 0)
(0.00107647 0.000363437 0)
(0.0011895 0.000369895 0)
(0.00130986 0.000383118 0)
(0.0014299 0.000401402 0)
(0.00155524 0.000434654 0)
(0.00169212 0.000477966 0)
(0.00183008 0.000534408 0)
(0.00199315 0.000601228 0)
(0.00215418 0.000683879 0)
(0.00235075 0.000778913 0)
(0.00254299 0.00088814 0)
(0.00282475 0.00100485 0)
(0.0030071 0.001137 0)
(0.00337509 0.00128062 0)
(0.00378061 0.00143984 0)
(0.0042194 0.00160963 0)
(0.00471748 0.00179845 0)
(0.00526487 0.00200162 0)
(0.00587193 0.00222549 0)
(0.00653811 0.00247275 0)
(0.00727526 0.00274079 0)
(0.00807983 0.00304528 0)
(0.00896115 0.00336711 0)
(0.010035 0.00375153 0)
(0.0111122 0.00400403 0)
(0.0122926 0.00440318 0)
(0.0136227 0.00506976 0)
(0.0150639 0.00568762 0)
(0.0166929 0.0062212 0)
(0.018472 0.00684998 0)
(0.0204736 0.00758974 0)
(0.022703 0.00840593 0)
(0.0252047 0.0093716 0)
(0.028041 0.0104084 0)
(0.0310909 0.0113987 0)
(0.0343698 0.0125426 0)
(0.0380125 0.0139336 0)
(0.0421131 0.0155532 0)
(0.0466917 0.0173635 0)
(0.0517724 0.0193689 0)
(0.0574167 0.0215866 0)
(0.0637203 0.0240952 0)
(0.0707845 0.0264873 0)
(0.0785537 0.0296469 0)
(0.0868704 0.0329745 0)
(0.0960327 0.0366136 0)
(0.106125 0.0406764 0)
(0.11749 0.0451901 0)
(0.130379 0.0501105 0)
(0.144541 0.0555422 0)
(0.160227 0.0617082 0)
(0.177855 0.0686834 0)
(0.197855 0.0762604 0)
(0.219781 0.0845114 0)
(0.242945 0.0935116 0)
(0.267975 0.103846 0)
(0.294752 0.115618 0)
(0.329284 0.130198 0)
(0.36746 0.142777 0)
(0.40527 0.156691 0)
(0.446234 0.173168 0)
(0.492312 0.1918 0)
(0.544239 0.212626 0)
(0.601871 0.235532 0)
(0.666011 0.260334 0)
(0.737325 0.287981 0)
(0.816805 0.318767 0)
(0.906022 0.352883 0)
(1.00416 0.388642 0)
(1.11407 0.429486 0)
(1.23667 0.474448 0)
(1.36643 0.515582 0)
(1.50941 0.560721 0)
(1.67986 0.616975 0)
(1.83295 0.678501 0)
(1.99063 0.744263 0)
(2.28931 0.816535 0)
(2.53292 0.892982 0)
(2.79907 0.963379 0)
(3.0991 1.03593 0)
(3.42063 1.11181 0)
(3.7651 1.17127 0)
(4.14026 1.20828 0)
(4.54249 1.21807 0)
(4.96234 1.18874 0)
(5.38491 1.10106 0)
(5.7896 0.943063 0)
(2.99973e-06 1.56556e-05 0)
(9.14626e-06 5.25056e-05 0)
(3.2132e-05 8.54467e-05 0)
(5.86051e-05 0.000111367 0)
(0.00010673 0.000138568 0)
(0.000162629 0.000166621 0)
(0.000236479 0.000189227 0)
(0.000315623 0.000208914 0)
(0.000384423 0.000222252 0)
(0.00049304 0.000228769 0)
(0.000522528 0.000252219 0)
(0.000676427 0.000254355 0)
(0.000799852 0.000254287 0)
(0.000907983 0.000252724 0)
(0.00101777 0.000252388 0)
(0.00112645 0.00024593 0)
(0.00123402 0.0002515 0)
(0.00134332 0.000262798 0)
(0.00145579 0.00028032 0)
(0.00157585 0.000304008 0)
(0.00169983 0.00033669 0)
(0.0018383 0.000378315 0)
(0.00199265 0.000423894 0)
(0.00216649 0.000521958 0)
(0.002364 0.000560363 0)
(0.00258885 0.000640209 0)
(0.00284736 0.000732661 0)
(0.00314443 0.000842178 0)
(0.00347541 0.00091278 0)
(0.00384451 0.000990251 0)
(0.00426508 0.0011047 0)
(0.00474473 0.00123804 0)
(0.00528588 0.00138464 0)
(0.0058919 0.00154543 0)
(0.00656807 0.00172281 0)
(0.00732013 0.00191458 0)
(0.00815636 0.00216622 0)
(0.00907805 0.00222556 0)
(0.0101063 0.00245647 0)
(0.0112388 0.00279461 0)
(0.0124582 0.00317578 0)
(0.0137982 0.00356078 0)
(0.0153105 0.00397327 0)
(0.0169966 0.00442464 0)
(0.0188519 0.00490856 0)
(0.0209027 0.00543786 0)
(0.0231778 0.00601897 0)
(0.0257023 0.00667213 0)
(0.0285111 0.00737459 0)
(0.0316244 0.00813602 0)
(0.0350277 0.00900698 0)
(0.0387649 0.0100249 0)
(0.0429026 0.0111813 0)
(0.0475006 0.0124642 0)
(0.0526132 0.0138618 0)
(0.058297 0.0153995 0)
(0.0646493 0.0170699 0)
(0.0716718 0.0186968 0)
(0.0795033 0.0224278 0)
(0.0881871 0.0246197 0)
(0.0978556 0.0270142 0)
(0.108626 0.0300277 0)
(0.120516 0.0307562 0)
(0.133709 0.0341933 0)
(0.148243 0.0382337 0)
(0.164315 0.0421671 0)
(0.182233 0.0465202 0)
(0.201931 0.0505173 0)
(0.223713 0.0626296 0)
(0.248074 0.0699725 0)
(0.275732 0.0771602 0)
(0.310044 0.0833716 0)
(0.339417 0.0967778 0)
(0.373598 0.106047 0)
(0.41498 0.115142 0)
(0.460833 0.12628 0)
(0.510838 0.139087 0)
(0.566073 0.153532 0)
(0.62742 0.169602 0)
(0.695519 0.187395 0)
(0.771073 0.207055 0)
(0.855026 0.228835 0)
(0.948368 0.252853 0)
(1.05195 0.278695 0)
(1.16543 0.306957 0)
(1.29203 0.337831 0)
(1.43007 0.369632 0)
(1.57754 0.404681 0)
(1.74299 0.448518 0)
(1.92314 0.498185 0)
(2.10985 0.536569 0)
(2.32448 0.570744 0)
(2.56034 0.619185 0)
(2.84781 0.670975 0)
(3.06831 0.717477 0)
(3.45446 0.761401 0)
(3.79602 0.798761 0)
(4.14987 0.822926 0)
(4.51917 0.823521 0)
(4.89198 0.792187 0)
(5.25432 0.720025 0)
(5.59067 0.602101 0)
(2.28235e-06 1.13381e-05 0)
(1.19214e-05 2.95555e-05 0)
(2.57689e-05 7.17582e-05 0)
(8.98672e-05 7.04487e-05 0)
(0.000137198 8.95404e-05 0)
(0.000196357 0.000100561 0)
(0.000264297 0.000109201 0)
(0.000337766 0.000125971 0)
(0.000417254 0.000128518 0)
(0.000504826 0.00014113 0)
(0.000600015 0.000143969 0)
(0.0006956 0.00013459 0)
(0.000787713 0.000132179 0)
(0.000883287 0.000135095 0)
(0.000983987 0.000138401 0)
(0.00108657 0.000142111 0)
(0.00119004 0.000147513 0)
(0.00129701 0.000155616 0)
(0.00140981 0.000166984 0)
(0.00153084 0.000183608 0)
(0.00166248 0.000205626 0)
(0.0018076 0.000232448 0)
(0.00196678 0.000264295 0)
(0.0021495 0.000301616 0)
(0.00235795 0.000344753 0)
(0.00259016 0.000394646 0)
(0.00285129 0.000443504 0)
(0.00314936 0.000493588 0)
(0.00348649 0.000544525 0)
(0.00386012 0.00060316 0)
(0.00427554 0.000670855 0)
(0.004742 0.000744638 0)
(0.00526614 0.000824506 0)
(0.00585263 0.000911823 0)
(0.00650731 0.00100858 0)
(0.00723499 0.00111735 0)
(0.00805563 0.00124215 0)
(0.00895458 0.00137366 0)
(0.00992249 0.00152913 0)
(0.01098 0.00169439 0)
(0.0121537 0.00187611 0)
(0.0134689 0.00209211 0)
(0.0149533 0.00233616 0)
(0.0165805 0.00258987 0)
(0.0184021 0.00286134 0)
(0.0203768 0.00316449 0)
(0.0226667 0.00350088 0)
(0.025149 0.00390274 0)
(0.027886 0.0042485 0)
(0.0309978 0.00474723 0)
(0.0342817 0.00533722 0)
(0.0381116 0.00598677 0)
(0.0420967 0.00673666 0)
(0.0468241 0.00753196 0)
(0.0518648 0.00841885 0)
(0.0575502 0.00937473 0)
(0.0640665 0.0103916 0)
(0.0707232 0.0115097 0)
(0.0788289 0.0126927 0)
(0.0875868 0.0141209 0)
(0.0979757 0.0157101 0)
(0.108707 0.0176508 0)
(0.121294 0.0197168 0)
(0.134405 0.0220868 0)
(0.148267 0.0246705 0)
(0.166002 0.0271877 0)
(0.181542 0.0304591 0)
(0.202971 0.0331334 0)
(0.22435 0.0361797 0)
(0.246516 0.0404045 0)
(0.275921 0.0436136 0)
(0.304362 0.0497954 0)
(0.343172 0.0528044 0)
(0.385682 0.0590111 0)
(0.425999 0.0686949 0)
(0.47338 0.0770089 0)
(0.525262 0.0855668 0)
(0.582393 0.0946715 0)
(0.645273 0.104413 0)
(0.714566 0.114948 0)
(0.791057 0.126632 0)
(0.876038 0.139643 0)
(0.970525 0.153939 0)
(1.07516 0.169386 0)
(1.19043 0.186097 0)
(1.31737 0.204539 0)
(1.45749 0.224806 0)
(1.61032 0.247075 0)
(1.77759 0.273145 0)
(1.9641 0.301872 0)
(2.16945 0.325656 0)
(2.38539 0.346025 0)
(2.61229 0.373827 0)
(2.86999 0.408826 0)
(3.11775 0.427978 0)
(3.41883 0.43343 0)
(3.72869 0.445671 0)
(4.06606 0.45723 0)
(4.41333 0.45558 0)
(4.75349 0.434 0)
(5.07276 0.388177 0)
(5.35511 0.316082 0)
(4.09735e-06 5.94742e-06 0)
(1.75069e-05 9.30018e-06 0)
(4.62222e-05 1.31917e-05 0)
(8.80781e-05 1.9556e-05 0)
(0.000137953 2.60322e-05 0)
(0.000199102 3.28375e-05 0)
(0.000270202 3.89671e-05 0)
(0.000350442 4.35388e-05 0)
(0.000437955 4.7312e-05 0)
(0.000530364 5.14131e-05 0)
(0.000627066 5.25893e-05 0)
(0.000723706 4.98659e-05 0)
(0.000816392 4.77012e-05 0)
(0.000906696 4.67512e-05 0)
(0.00099703 4.48115e-05 0)
(0.00108736 4.19114e-05 0)
(0.00117797 3.95726e-05 0)
(0.00127116 3.97619e-05 0)
(0.00137014 4.24292e-05 0)
(0.00147837 4.93506e-05 0)
(0.00159998 5.8978e-05 0)
(0.00173915 7.18088e-05 0)
(0.00189974 8.64694e-05 0)
(0.00208776 0.000106651 0)
(0.00230529 0.000124465 0)
(0.00255364 0.000142723 0)
(0.00283385 0.000161827 0)
(0.00315906 0.000180962 0)
(0.00350803 0.000192921 0)
(0.00388999 0.00020275 0)
(0.00430707 0.000214916 0)
(0.00476866 0.000232901 0)
(0.00527532 0.000255247 0)
(0.00584418 0.000283278 0)
(0.00646338 0.000315586 0)
(0.00715788 0.000354479 0)
(0.00792997 0.000397286 0)
(0.0087669 0.000429362 0)
(0.00968355 0.000470848 0)
(0.010714 0.000540008 0)
(0.0118818 0.000635773 0)
(0.0132062 0.000746305 0)
(0.0146976 0.000848339 0)
(0.0163556 0.00093497 0)
(0.0182045 0.00101347 0)
(0.0202041 0.0010927 0)
(0.0224337 0.00119107 0)
(0.0248846 0.0013212 0)
(0.0275863 0.00147471 0)
(0.030593 0.00164221 0)
(0.0339267 0.00182695 0)
(0.037699 0.00205252 0)
(0.041904 0.00230693 0)
(0.0466486 0.00257042 0)
(0.0519234 0.00285766 0)
(0.0577781 0.00313593 0)
(0.0643209 0.00348751 0)
(0.0714955 0.00386435 0)
(0.0796732 0.00437026 0)
(0.0886983 0.00492384 0)
(0.0987291 0.00543617 0)
(0.109794 0.00593374 0)
(0.121847 0.00637176 0)
(0.135137 0.00713143 0)
(0.150183 0.00784457 0)
(0.166357 0.00897928 0)
(0.185234 0.00972169 0)
(0.204951 0.0108324 0)
(0.229117 0.0103898 0)
(0.257403 0.0163495 0)
(0.286028 0.0172551 0)
(0.315474 0.0130049 0)
(0.346811 0.0154763 0)
(0.383319 0.0215374 0)
(0.426326 0.0259034 0)
(0.474945 0.0281336 0)
(0.528371 0.0288843 0)
(0.587365 0.0334449 0)
(0.652677 0.037478 0)
(0.725134 0.0424023 0)
(0.804722 0.045243 0)
(0.891867 0.0485386 0)
(0.987432 0.0528176 0)
(1.09245 0.0579223 0)
(1.2079 0.0637868 0)
(1.33484 0.070309 0)
(1.47441 0.0775363 0)
(1.62777 0.0855518 0)
(1.79666 0.0945818 0)
(1.98322 0.103564 0)
(2.1875 0.111176 0)
(2.40976 0.117916 0)
(2.62963 0.129688 0)
(2.92433 0.14349 0)
(3.18241 0.143309 0)
(3.45764 0.13473 0)
(3.73866 0.131969 0)
(4.02285 0.130915 0)
(4.30839 0.126186 0)
(4.5864 0.115816 0)
(4.84289 0.0987537 0)
(5.06097 0.0733334 0)
(7.82985 6.94541 0)
(5.73175 3.75099 0)
(1.63268 1.99952 0)
(1.11342 0.69991 0)
(4.12989 -1.73402 0)
(2.81022 -3.32814 0)
(5.68475 -4.74081 0)
(9.52965 -4.48721 0)
(14.018 -2.87682 0)
(17.4898 -0.401286 0)
(18.5135 1.69712 0)
(16.7646 2.56332 0)
(12.9403 3.28837 0)
(7.6029 4.24475 0)
(3.13725 3.6388 0)
(-0.542871 1.87432 0)
(-2.95169 -0.295386 0)
(-3.47404 -2.10987 0)
(-2.34306 -3.00018 0)
(-0.040715 -2.97449 0)
(3.09821 -2.51275 0)
(6.50772 -1.79947 0)
(9.66329 -1.01897 0)
(12.3564 -0.31035 0)
(14.024 0.523985 0)
(14.1813 1.004 0)
(13.4257 1.27367 0)
(11.7181 1.24699 0)
(9.3482 0.981227 0)
(6.86931 0.548769 0)
(4.77208 0.101071 0)
(3.34909 -0.24311 0)
(8.84183 4.27919 0)
(8.73389 1.65727 0)
(9.52838 0.190471 0)
(9.19506 -0.804607 0)
(12.1139 -0.679293 0)
(15.3519 -0.575159 0)
(16.5082 -1.45966 0)
(17.0313 -2.48023 0)
(15.0079 -3.73236 0)
(10.3885 -2.39801 0)
(8.66821 -0.282796 0)
(8.3021 2.57893 0)
(7.24169 4.18662 0)
(4.83581 6.04798 0)
(3.15669 7.58109 0)
(3.15235 4.72252 0)
(3.54884 1.89744 0)
(4.24793 -0.386596 0)
(5.3153 -2.21763 0)
(6.37661 -3.55513 0)
(7.16855 -4.30556 0)
(7.93308 -4.40096 0)
(8.76833 -4.04193 0)
(9.20627 -3.12775 0)
(9.45661 -1.61342 0)
(9.36021 0.193065 0)
(8.99954 2.07666 0)
(8.43219 3.5234 0)
(7.7516 4.19107 0)
(7.26667 3.97747 0)
(6.87532 2.99868 0)
(6.57597 1.76799 0)
(8.75751 3.03795 0)
(9.56116 1.28191 0)
(9.66506 -0.203258 0)
(9.59819 -1.68676 0)
(9.55303 -3.08034 0)
(9.41023 -4.01804 0)
(9.25401 -4.36233 0)
(9.01099 -3.61539 0)
(8.20615 -1.9952 0)
(6.68641 0.0593173 0)
(5.99293 3.16062 0)
(3.89868 4.07565 0)
(3.76866 5.86176 0)
(4.03085 6.1327 0)
(3.9856 5.41376 0)
(4.39499 3.91167 0)
(4.67743 1.2133 0)
(4.61099 -1.12843 0)
(4.12129 -2.84903 0)
(3.81812 -4.23923 0)
(3.59888 -4.9223 0)
(3.4433 -4.82356 0)
(3.3882 -4.09771 0)
(3.38924 -3.00279 0)
(3.52779 -1.6564 0)
(3.75046 -0.217571 0)
(4.16268 1.29761 0)
(5.03562 2.37609 0)
(5.92824 2.64651 0)
(6.89527 2.41007 0)
(7.75823 1.75218 0)
(8.29511 0.97912 0)
(7.86348 2.28061 0)
(8.70644 1.04205 0)
(8.73818 -0.0409338 0)
(8.53234 -1.33123 0)
(7.74769 -2.51415 0)
(6.96434 -3.14188 0)
(6.06315 -3.11976 0)
(5.10857 -2.47491 0)
(4.37165 -1.01793 0)
(3.96369 1.16678 0)
(3.99816 3.27476 0)
(4.5995 5.28079 0)
(5.32482 6.44182 0)
(6.61499 6.43608 0)
(8.22912 5.69522 0)
(9.19861 3.92774 0)
(9.52907 1.73684 0)
(9.18942 -0.336942 0)
(8.45386 -1.93304 0)
(7.57496 -2.95782 0)
(6.58325 -3.70444 0)
(5.40194 -3.59403 0)
(4.83376 -3.33169 0)
(4.2557 -2.50226 0)
(3.93139 -1.43155 0)
(4.06217 -0.267333 0)
(4.57839 0.822279 0)
(5.38936 1.41694 0)
(6.32647 2.10395 0)
(7.07666 1.82283 0)
(7.70804 1.11179 0)
(8.08931 0.785471 0)
(7.03595 1.55678 0)
(7.56078 0.760916 0)
(7.63793 -0.122354 0)
(7.44498 -0.899525 0)
(6.90916 -1.56052 0)
(6.21695 -1.93706 0)
(5.19549 -1.82968 0)
(4.68524 -1.31117 0)
(3.49795 -0.294183 0)
(3.38583 1.00052 0)
(3.86673 2.52909 0)
(4.69995 3.733 0)
(5.92634 4.13477 0)
(7.28534 4.43874 0)
(8.48603 3.72101 0)
(9.42513 2.37846 0)
(9.87448 0.952516 0)
(9.79578 -0.387543 0)
(9.24616 -1.55924 0)
(8.45515 -2.39956 0)
(7.56968 -2.86729 0)
(6.69638 -2.98668 0)
(5.91122 -2.71162 0)
(5.27897 -2.20649 0)
(4.95577 -1.53012 0)
(4.97589 -0.859338 0)
(5.2913 0.0392544 0)
(5.81614 0.746955 0)
(6.43636 1.23634 0)
(7.05257 1.18855 0)
(7.4833 0.849379 0)
(7.72392 0.37775 0)
(6.50033 1.04563 0)
(6.83354 0.545059 0)
(6.96481 -0.0467997 0)
(6.73314 -0.523923 0)
(6.41673 -0.979428 0)
(5.78493 -1.14802 0)
(5.12986 -1.14842 0)
(4.49606 -0.739153 0)
(4.0482 0.022527 0)
(3.97058 0.916763 0)
(4.1461 1.95344 0)
(5.04971 2.63626 0)
(5.74321 3.22333 0)
(7.25612 3.1774 0)
(8.06102 2.88287 0)
(8.89198 2.14045 0)
(9.45543 1.14831 0)
(9.626 0.172287 0)
(9.43632 -0.705969 0)
(8.95422 -1.32157 0)
(8.30721 -1.82472 0)
(7.61273 -2.00303 0)
(6.94441 -1.87604 0)
(6.36877 -1.36548 0)
(5.98944 -1.079 0)
(5.81975 -0.424628 0)
(5.82962 -0.0208628 0)
(6.0108 0.262046 0)
(6.34669 0.592471 0)
(7.06567 0.65666 0)
(7.34719 0.46424 0)
(7.56201 0.191719 0)
(6.13714 0.707415 0)
(6.39812 0.378515 0)
(6.49871 0.00924546 0)
(6.38596 -0.311168 0)
(6.14442 -0.570618 0)
(5.7564 -0.670508 0)
(5.3294 -0.586753 0)
(4.92744 -0.27694 0)
(4.66985 0.230932 0)
(4.62867 0.864272 0)
(4.92982 1.41328 0)
(5.44612 1.96397 0)
(6.18794 2.29416 0)
(7.00983 2.25571 0)
(7.77932 1.9395 0)
(8.43336 1.37317 0)
(8.86166 0.636851 0)
(8.97672 -0.141297 0)
(8.83648 -0.769898 0)
(8.62191 -1.24052 0)
(8.20503 -1.50359 0)
(7.74368 -1.58432 0)
(7.30654 -1.48907 0)
(7.10069 -1.2614 0)
(6.89138 -0.944785 0)