/*--------------------------------*- C++ -*----------------------------------*\
| =========                 |                                                 |
| \\      /  F ield         | OpenFOAM: The Open Source CFD Toolbox           |
|  \\    /   O peration     | Version:  2206                                  |
|   \\  /    A nd           | Website:  www.openfoam.com                      |
|    \\/     M anipulation  |                                                 |
\*---------------------------------------------------------------------------*/
FoamFile
{
    version     2.0;
    format      ascii;
    arch        "LSB;label=32;scalar=64";
    class       volVectorField;
    location    "19.2";
    object      ddt0(U);
}
// * * * * * * * * * * * * * * * * * * * * * * * * * * * * * * * * * * * * * //

dimensions      [0 1 -2 0 0 0 0];

internalField   nonuniform List<vector> 
4810
(
(-5.20404e-06 0.00183882 0)
(-3.00159e-05 0.00486865 0)
(-7.92165e-05 0.00700756 0)
(-0.000147295 0.00835147 0)
(-0.000227562 0.00889013 0)
(-0.000310699 0.00859721 0)
(-0.000389076 0.00747166 0)
(-0.000455306 0.00552361 0)
(-0.000502047 0.00276766 0)
(-0.000522725 -0.000774138 0)
(-0.000511756 -0.00506648 0)
(-0.000464321 -0.0100515 0)
(-0.000374393 -0.0156494 0)
(-0.000237273 -0.021762 0)
(-4.82842e-05 -0.0282822 0)
(0.00019557 -0.0351004 0)
(0.000496906 -0.0421079 0)
(0.000856657 -0.0491987 0)
(0.00127567 -0.0562694 0)
(0.00175293 -0.0632204 0)
(0.00228753 -0.069957 0)
(0.00287657 -0.076391 0)
(0.00351771 -0.0824429 0)
(0.00420664 -0.0880426 0)
(0.00493982 -0.093131 0)
(0.00571222 -0.0976601 0)
(0.00651993 -0.101593 0)
(0.00735771 -0.104904 0)
(0.00822109 -0.107579 0)
(0.00910648 -0.109613 0)
(0.0100017 -0.111012 0)
(0.0109131 -0.111788 0)
(0.0118294 -0.11197 0)
(0.0127418 -0.111586 0)
(0.0136459 -0.110686 0)
(0.0145526 -0.109318 0)
(0.0154277 -0.10755 0)
(0.0163006 -0.105449 0)
(0.0171455 -0.103099 0)
(0.0179598 -0.100579 0)
(0.0187762 -0.0979891 0)
(0.0195195 -0.0954072 0)
(0.0203045 -0.0929542 0)
(0.020987 -0.0906909 0)
(0.0217296 -0.0887528 0)
(0.0223853 -0.0871854 0)
(0.0230728 -0.0861099 0)
(0.0237555 -0.085592 0)
(0.0243825 -0.0856595 0)
(0.0251494 -0.0864983 0)
(0.0257632 -0.0879216 0)
(0.0265789 -0.0902814 0)
(0.0273539 -0.0933404 0)
(0.0280941 -0.0970831 0)
(0.0290671 -0.102161 0)
(0.029895 -0.107866 0)
(0.0308015 -0.114366 0)
(0.0318373 -0.121715 0)
(0.0329702 -0.129927 0)
(0.0341864 -0.138983 0)
(0.0354938 -0.148831 0)
(0.0368991 -0.159407 0)
(0.0384083 -0.170653 0)
(0.0400314 -0.182521 0)
(0.0417795 -0.194968 0)
(0.0436616 -0.20795 0)
(0.0456843 -0.221422 0)
(0.0478525 -0.235335 0)
(0.0501703 -0.249643 0)
(0.052642 -0.264299 0)
(0.0552725 -0.279258 0)
(0.0580682 -0.294483 0)
(0.0610368 -0.309941 0)
(0.0641872 -0.325607 0)
(0.0675295 -0.341462 0)
(0.0710743 -0.357498 0)
(0.0748329 -0.373716 0)
(0.0788182 -0.390126 0)
(0.0830446 -0.406752 0)
(0.0875285 -0.423625 0)
(0.0922884 -0.440793 0)
(0.0973456 -0.458311 0)
(0.102724 -0.476251 0)
(0.108451 -0.494694 0)
(0.114558 -0.51374 0)
(0.121076 -0.533493 0)
(0.128048 -0.554083 0)
(0.135515 -0.575648 0)
(0.143526 -0.59834 0)
(0.152135 -0.622327 0)
(0.161405 -0.647792 0)
(0.171405 -0.674935 0)
(0.182208 -0.703973 0)
(0.193896 -0.73514 0)
(0.206555 -0.768692 0)
(0.220275 -0.804908 0)
(0.235145 -0.84409 0)
(0.251245 -0.886575 0)
(0.268642 -0.932733 0)
(0.28737 -0.982983 0)
(0.307404 -1.0378 0)
(0.328628 -1.09773 0)
(0.350756 -1.1634 0)
(0.373285 -1.23557 0)
(0.395172 -1.31508 0)
(0.414996 -1.40292 0)
(0.429806 -1.50045 0)
(0.434763 -1.60454 0)
(0.419106 -1.72223 0)
(0.41056 -1.85809 0)
(0.286998 -1.99555 0)
(0.0680675 -2.12237 0)
(-4.02377e-06 0.00185417 0)
(-2.35248e-05 0.00490805 0)
(-6.27994e-05 0.0070679 0)
(-0.000117668 0.0084277 0)
(-0.000181663 0.00897362 0)
(-0.000247109 0.00867847 0)
(-0.000307504 0.00754205 0)
(-0.000358129 0.00557591 0)
(-0.000393213 0.0027965 0)
(-0.000408225 -0.000773461 0)
(-0.000399053 -0.005098 0)
(-0.000361438 -0.0101209 0)
(-0.00029134 -0.0157619 0)
(-0.000183954 -0.0219229 0)
(-3.57705e-05 -0.0284958 0)
(0.000155544 -0.03537 0)
(0.000391725 -0.0424357 0)
(0.000673623 -0.0495858 0)
(0.00100129 -0.0567157 0)
(0.00137427 -0.0637249 0)
(0.00179133 -0.0705177 0)
(0.00225102 -0.0770053 0)
(0.00275097 -0.0831069 0)
(0.00328824 -0.0887525 0)
(0.00385954 -0.0938822 0)
(0.00446137 -0.098448 0)
(0.00508993 -0.102413 0)
(0.00574206 -0.105752 0)
(0.00641169 -0.108449 0)
(0.00710473 -0.110502 0)
(0.0077879 -0.111913 0)
(0.00851473 -0.112696 0)
(0.00921765 -0.112881 0)
(0.00992842 -0.112495 0)
(0.010649 -0.111589 0)
(0.0113343 -0.110208 0)
(0.0120554 -0.108427 0)
(0.0126937 -0.106303 0)
(0.0134115 -0.103936 0)
(0.0139855 -0.101384 0)
(0.0146932 -0.0987768 0)
(0.0152036 -0.0961602 0)
(0.0158821 -0.0936907 0)
(0.0163545 -0.0913964 0)
(0.0169766 -0.0894446 0)
(0.0174503 -0.0878573 0)
(0.0179966 -0.0867754 0)
(0.0185164 -0.0862535 0)
(0.0189811 -0.0863322 0)
(0.0196025 -0.0871967 0)
(0.0200038 -0.0886237 0)
(0.0207633 -0.0911125 0)
(0.0212065 -0.094029 0)
(0.0219891 -0.0981701 0)
(0.0226244 -0.102701 0)
(0.0233601 -0.108723 0)
(0.0240736 -0.115404 0)
(0.0248814 -0.122902 0)
(0.0257617 -0.131209 0)
(0.026701 -0.140295 0)
(0.0277241 -0.150149 0)
(0.0288517 -0.160761 0)
(0.0300829 -0.172098 0)
(0.0314081 -0.184107 0)
(0.032821 -0.196728 0)
(0.0343228 -0.209898 0)
(0.0359201 -0.223557 0)
(0.0376229 -0.237648 0)
(0.0394408 -0.252121 0)
(0.0413825 -0.266933 0)
(0.043454 -0.282045 0)
(0.0456601 -0.297425 0)
(0.048005 -0.313045 0)
(0.0504937 -0.328882 0)
(0.0531311 -0.344922 0)
(0.0559241 -0.361157 0)
(0.058881 -0.377588 0)
(0.0620122 -0.394229 0)
(0.0653303 -0.411102 0)
(0.0688498 -0.428243 0)
(0.0725871 -0.445699 0)
(0.0765615 -0.46353 0)
(0.0807932 -0.481808 0)
(0.0853049 -0.500619 0)
(0.0901211 -0.520065 0)
(0.0952703 -0.540258 0)
(0.100782 -0.561325 0)
(0.106691 -0.583412 0)
(0.113033 -0.606678 0)
(0.119852 -0.631299 0)
(0.127196 -0.657461 0)
(0.135117 -0.685371 0)
(0.143669 -0.71525 0)
(0.152912 -0.747339 0)
(0.162906 -0.781893 0)
(0.17371 -0.81919 0)
(0.185378 -0.859524 0)
(0.197951 -0.903211 0)
(0.211445 -0.950589 0)
(0.225838 -1.00202 0)
(0.241038 -1.05787 0)
(0.256854 -1.11853 0)
(0.272928 -1.18439 0)
(0.288681 -1.2558 0)
(0.303043 -1.33293 0)
(0.314924 -1.4162 0)
(0.32053 -1.50315 0)
(0.319512 -1.59601 0)
(0.30535 -1.69392 0)
(0.271126 -1.78704 0)
(0.161801 -1.87551 0)
(0.0444915 -1.85444 0)
(-2.17732e-06 0.00186496 0)
(-1.35315e-05 0.00493746 0)
(-4.28277e-05 0.00711265 0)
(-9.09845e-05 0.00848399 0)
(-0.000147531 0.00903576 0)
(-0.000200814 0.00874024 0)
(-0.000245206 0.00759762 0)
(-0.000276745 0.00562019 0)
(-0.000292459 0.00282455 0)
(-0.000292424 -0.000766962 0)
(-0.000278342 -0.00511849 0)
(-0.000248946 -0.0101728 0)
(-0.000198879 -0.0158492 0)
(-0.000123287 -0.0220489 0)
(-1.85264e-05 -0.028663 0)
(0.000117962 -0.0355798 0)
(0.00028756 -0.0426885 0)
(0.000490411 -0.0498816 0)
(0.000726193 -0.0570542 0)
(0.000994027 -0.0641053 0)
(0.00129328 -0.0709389 0)
(0.00162268 -0.0774655 0)
(0.00198061 -0.0836042 0)
(0.00236503 -0.089284 0)
(0.00277371 -0.0944447 0)
(0.00320408 -0.0990379 0)
(0.003653 -0.103027 0)
(0.00411882 -0.106386 0)
(0.00459511 -0.1091 0)
(0.00509447 -0.111166 0)
(0.00556796 -0.112587 0)
(0.00610867 -0.113378 0)
(0.00659122 -0.113566 0)
(0.00710891 -0.11318 0)
(0.00763146 -0.112269 0)
(0.0081031 -0.11088 0)
(0.00866102 -0.109089 0)
(0.00906525 -0.106948 0)
(0.00965283 -0.104567 0)
(0.00998365 -0.101993 0)
(0.010578 -0.0993696 0)
(0.0108637 -0.096731 0)
(0.0114115 -0.0942392 0)
(0.0117157 -0.0919345 0)
(0.012154 -0.0899489 0)
(0.0125276 -0.0883703 0)
(0.0128498 -0.087251 0)
(0.0132746 -0.0867458 0)
(0.013553 -0.0868262 0)
(0.0139708 -0.087664 0)
(0.0142995 -0.0892254 0)
(0.0147479 -0.0916203 0)
(0.0150891 -0.0946711 0)
(0.0157909 -0.0989572 0)
(0.0161691 -0.103434 0)
(0.0166951 -0.109406 0)
(0.0171946 -0.11601 0)
(0.0178229 -0.123526 0)
(0.0185559 -0.13199 0)
(0.0193167 -0.14131 0)
(0.02007 -0.151388 0)
(0.0208345 -0.162157 0)
(0.0216497 -0.173576 0)
(0.0225474 -0.185607 0)
(0.023544 -0.198221 0)
(0.0246435 -0.211389 0)
(0.0258438 -0.225075 0)
(0.0271388 -0.239232 0)
(0.0285217 -0.253809 0)
(0.0299872 -0.268754 0)
(0.0315338 -0.284017 0)
(0.0331636 -0.299556 0)
(0.0348824 -0.315338 0)
(0.0366961 -0.331337 0)
(0.0386112 -0.347538 0)
(0.0406337 -0.363935 0)
(0.0427704 -0.380534 0)
(0.0450285 -0.39735 0)
(0.0474173 -0.414411 0)
(0.0499479 -0.431754 0)
(0.0526345 -0.449429 0)
(0.0554929 -0.4675 0)
(0.0585401 -0.48604 0)
(0.0617943 -0.505137 0)
(0.0652752 -0.524894 0)
(0.069004 -0.545427 0)
(0.0730027 -0.566864 0)
(0.0772971 -0.58936 0)
(0.0819126 -0.613072 0)
(0.0868787 -0.63818 0)
(0.09223 -0.664876 0)
(0.098002 -0.693369 0)
(0.104232 -0.723885 0)
(0.110959 -0.756664 0)
(0.118221 -0.79196 0)
(0.126055 -0.830047 0)
(0.134489 -0.871205 0)
(0.143537 -0.915729 0)
(0.153191 -0.96392 0)
(0.163405 -1.01608 0)
(0.174077 -1.07248 0)
(0.185017 -1.13338 0)
(0.195919 -1.19896 0)
(0.206261 -1.26924 0)
(0.215374 -1.34411 0)
(0.221884 -1.42281 0)
(0.224802 -1.5049 0)
(0.221444 -1.58857 0)
(0.210808 -1.67074 0)
(0.180037 -1.74594 0)
(0.155301 -1.78906 0)
(0.0897942 -2.1398 0)
(1.63544e-06 0.00186604 0)
(1.19146e-06 0.00495759 0)
(-1.87815e-05 0.00715701 0)
(-5.55307e-05 0.0085444 0)
(-9.46542e-05 0.00909722 0)
(-0.00012873 0.00878965 0)
(-0.000157314 0.00762692 0)
(-0.000180041 0.00562729 0)
(-0.000195612 0.00281415 0)
(-0.00020142 -0.000787632 0)
(-0.000195219 -0.00514586 0)
(-0.000175323 -0.0102095 0)
(-0.000140053 -0.0159015 0)
(-8.71892e-05 -0.0221237 0)
(-1.54282e-05 -0.0287653 0)
(7.58827e-05 -0.0357123 0)
(0.000186216 -0.0428523 0)
(0.000314838 -0.0500764 0)
(0.000460825 -0.0572792 0)
(0.000623797 -0.0643597 0)
(0.000803543 -0.0712213 0)
(0.00100001 -0.0777746 0)
(0.00121279 -0.0839381 0)
(0.00144151 -0.0896406 0)
(0.00168493 -0.0948216 0)
(0.00194183 -0.0994326 0)
(0.00220983 -0.103437 0)
(0.00248924 -0.106809 0)
(0.00277189 -0.109533 0)
(0.00307872 -0.111608 0)
(0.00334203 -0.113037 0)
(0.00368981 -0.113831 0)
(0.00396384 -0.114024 0)
(0.00427523 -0.113638 0)
(0.00461402 -0.112726 0)
(0.00485091 -0.111335 0)
(0.00526752 -0.109531 0)
(0.00538963 -0.107387 0)
(0.00592089 -0.104986 0)
(0.00587952 -0.102404 0)
(0.00655285 -0.0997675 0)
(0.00634545 -0.0970992 0)
(0.00709882 -0.0946267 0)
(0.00686891 -0.0922552 0)
(0.00746345 -0.0903197 0)
(0.00752466 -0.0886762 0)
(0.00763071 -0.0875614 0)
(0.00825651 -0.0871099 0)
(0.007739 -0.0870118 0)
(0.00887217 -0.0881647 0)
(0.00804737 -0.089299 0)
(0.009097 -0.0921681 0)
(0.00884767 -0.0951008 0)
(0.00920946 -0.0991633 0)
(0.00971203 -0.104019 0)
(0.0103175 -0.110243 0)
(0.0105806 -0.116971 0)
(0.0107304 -0.124407 0)
(0.0109599 -0.132633 0)
(0.0113503 -0.141705 0)
(0.0118831 -0.151632 0)
(0.0125117 -0.162393 0)
(0.0131972 -0.173942 0)
(0.0139045 -0.186203 0)
(0.014608 -0.199089 0)
(0.0153051 -0.212514 0)
(0.016013 -0.226403 0)
(0.0167547 -0.240701 0)
(0.0175484 -0.25536 0)
(0.0184053 -0.270348 0)
(0.0193314 -0.285636 0)
(0.0203307 -0.301199 0)
(0.0214036 -0.317016 0)
(0.0225486 -0.333065 0)
(0.0237627 -0.349333 0)
(0.0250433 -0.365812 0)
(0.0263888 -0.382504 0)
(0.0278009 -0.399426 0)
(0.0292836 -0.416604 0)
(0.0308452 -0.43408 0)
(0.0324958 -0.451904 0)
(0.0342466 -0.47014 0)
(0.0361093 -0.488862 0)
(0.0380968 -0.508161 0)
(0.040222 -0.528138 0)
(0.0424991 -0.548911 0)
(0.0449437 -0.570612 0)
(0.0475735 -0.593387 0)
(0.0504073 -0.617407 0)
(0.0534637 -0.642854 0)
(0.0567634 -0.669918 0)
(0.0603286 -0.698812 0)
(0.0641811 -0.729761 0)
(0.0683423 -0.763006 0)
(0.0728313 -0.798799 0)
(0.0776661 -0.837406 0)
(0.0828571 -0.879096 0)
(0.0884036 -0.924145 0)
(0.0942886 -0.972823 0)
(0.100472 -1.02538 0)
(0.106875 -1.08203 0)
(0.113362 -1.14293 0)
(0.11972 -1.20811 0)
(0.125619 -1.27744 0)
(0.130611 -1.35054 0)
(0.133901 -1.42649 0)
(0.134757 -1.50434 0)
(0.131761 -1.58231 0)
(0.123092 -1.65746 0)
(0.105384 -1.72432 0)
(0.0924029 -1.79446 0)
(0.0347719 -1.48782 0)
(-9.80374e-05 -0.00514675 0)
(-8.95606e-05 -0.0102339 0)
(-7.06454e-05 -0.0159476 0)
(-4.40234e-05 -0.0221882 0)
(-1.1617e-05 -0.0288451 0)
(2.57079e-05 -0.0358048 0)
(6.79638e-05 -0.0429552 0)
(0.000115414 -0.050188 0)
(0.000168134 -0.057399 0)
(0.00022647 -0.0644878 0)
(0.000290118 -0.071359 0)
(0.000358855 -0.0779228 0)
(0.000432137 -0.0840979 0)
(0.000509641 -0.0898119 0)
(0.00059087 -0.0950041 0)
(0.000675729 -0.0996252 0)
(0.00076289 -0.103638 0)
(0.000854685 -0.107017 0)
(0.000942302 -0.109748 0)
(0.00105511 -0.111824 0)
(0.00110098 -0.11326 0)
(0.00127107 -0.11406 0)
(0.00133655 -0.114252 0)
(0.00140759 -0.113872 0)
(0.0016212 -0.112948 0)
(0.00154034 -0.111566 0)
(0.00188663 -0.109747 0)
(0.0017062 -0.107612 0)
(0.00208545 -0.105193 0)
(0.00195831 -0.102623 0)
(0.00217929 -0.0999539 0)
(0.00227854 -0.09732 0)
(0.00224515 -0.0947803 0)
(0.00250962 -0.0924745 0)
(0.00246632 -0.0904644 0)
(0.00249533 -0.0888376 0)
(0.00287083 -0.087783 0)
(0.00239872 -0.0871102 0)
(0.00308266 -0.0873879 0)
(0.00269929 -0.0879924 0)
(0.0026473 -0.0896689 0)
(0.00348087 -0.0922281 0)
(0.00198659 -0.0948682 0)
(0.00356874 -0.100133 0)
(0.0025787 -0.103703 0)
(0.00310752 -0.109754 0)
(0.00339184 -0.116544 0)
(0.0036811 -0.124351 0)
(0.00402127 -0.133087 0)
(0.00434646 -0.142645 0)
(0.00465426 -0.152925 0)
(0.00496225 -0.163812 0)
(0.00526603 -0.175241 0)
(0.00554036 -0.187215 0)
(0.00575889 -0.199769 0)
(0.00591522 -0.212919 0)
(0.00602762 -0.226644 0)
(0.00612773 -0.240894 0)
(0.00624821 -0.255605 0)
(0.00641284 -0.270707 0)
(0.00663657 -0.28614 0)
(0.00692597 -0.301853 0)
(0.0072812 -0.317807 0)
(0.00769892 -0.333971 0)
(0.00817572 -0.35033 0)
(0.00870888 -0.366878 0)
(0.00929666 -0.383626 0)
(0.00993456 -0.400597 0)
(0.0106176 -0.417824 0)
(0.0113375 -0.435352 0)
(0.0120856 -0.453236 0)
(0.0128527 -0.47154 0)
(0.0136334 -0.490341 0)
(0.0144263 -0.509728 0)
(0.0152368 -0.529804 0)
(0.0160738 -0.55069 0)
(0.016951 -0.57252 0)
(0.0178846 -0.595445 0)
(0.0188915 -0.619627 0)
(0.019985 -0.645245 0)
(0.0211773 -0.672499 0)
(0.022479 -0.701597 0)
(0.0239 -0.732763 0)
(0.0254462 -0.766233 0)
(0.0271229 -0.802254 0)
(0.0289322 -0.841085 0)
(0.0308748 -0.882986 0)
(0.032945 -0.928219 0)
(0.0351326 -0.977029 0)
(0.0374134 -1.02964 0)
(0.03975 -1.08621 0)
(0.0420792 -1.14684 0)
(0.0443139 -1.21148 0)
(0.0463229 -1.27991 0)
(0.047926 -1.35165 0)
(0.0488575 -1.42568 0)
(0.0487444 -1.5014 0)
(0.0469685 -1.57633 0)
(0.0411873 -1.64726 0)
(0.0309923 -1.70882 0)
(-0.00656741 -1.75902 0)
(-0.0492761 -1.72334 0)
(-3.24498e-05 0.000103353 0)
(-0.00015149 4.78855e-05 0)
(-0.000368323 9.55341e-05 0)
(-0.000592518 0.000120197 0)
(-0.000795196 0.00011425 0)
(-0.000956273 9.06495e-05 0)
(-0.00101487 3.68595e-05 0)
(-0.000939379 -5.70732e-05 0)
(-0.0006752 -0.000171486 0)
(-0.000147751 -0.000311105 0)
(0.000677814 -0.000477142 0)
(0.00181771 -0.000667603 0)
(0.00328057 -0.000880082 0)
(0.00508259 -0.00112966 0)
(0.00725612 -0.00140728 0)
(0.00983571 -0.0016911 0)
(0.0128229 -0.00195021 0)
(0.016249 -0.00223602 0)
(0.0201149 -0.00251576 0)
(0.0243459 -0.00277366 0)
(0.0288742 -0.00300214 0)
(0.0336499 -0.00314824 0)
(0.0386357 -0.00320323 0)
(0.0437197 -0.00310002 0)
(0.0487847 -0.00290359 0)
(0.0537662 -0.00266616 0)
(0.0585677 -0.0023877 0)
(0.0632892 -0.00213278 0)
(0.0672965 -0.00187344 0)
(0.0720433 -0.00151263 0)
(0.0748518 -0.0010292 0)
(0.0777604 -0.000574168 0)
(0.0803815 -0.000231177 0)
(0.0825427 -1.53029e-05 0)
(0.0843854 6.19986e-05 0)
(0.0860655 -1.20683e-05 0)
(0.087709 -0.000243015 0)
(0.0894435 -0.000628879 0)
(0.0914219 -0.00116087 0)
(0.0938031 -0.00174821 0)
(0.0966891 -0.00229763 0)
(0.100127 -0.00281422 0)
(0.104107 -0.0033188 0)
(0.108673 -0.00377464 0)
(0.113717 -0.00410255 0)
(0.119217 -0.00435298 0)
(0.125164 -0.00444087 0)
(0.131341 -0.00438997 0)
(0.13761 -0.00418841 0)
(0.143922 -0.00389258 0)
(0.1502 -0.00355732 0)
(0.15634 -0.00324846 0)
(0.162406 -0.00301919 0)
(0.168322 -0.00290465 0)
(0.174276 -0.00292946 0)
(0.180287 -0.00306453 0)
(0.18637 -0.00336661 0)
(0.192978 -0.00334022 0)
(0.199337 -0.00368044 0)
(0.206715 -0.00419536 0)
(0.214266 -0.00476101 0)
(0.222299 -0.00526621 0)
(0.231934 -0.00580094 0)
(0.238941 -0.0056082 0)
(0.252007 -0.00709123 0)
(0.260076 -0.0071551 0)
(0.272378 -0.0104323 0)
(0.284518 -0.00838835 0)
(0.295722 -0.00657321 0)
(0.306328 -0.00524184 0)
(0.316189 -0.00494442 0)
(0.326594 -0.0049268 0)
(0.336153 -0.00527388 0)
(0.346642 -0.00603861 0)
(0.357728 -0.00615342 0)
(0.369304 -0.00659417 0)
(0.381319 -0.00704438 0)
(0.393801 -0.00746991 0)
(0.406738 -0.007793 0)
(0.420121 -0.00818276 0)
(0.433871 -0.0083745 0)
(0.447907 -0.00845938 0)
(0.462164 -0.00847019 0)
(0.476565 -0.00842119 0)
(0.491059 -0.00832361 0)
(0.505595 -0.00819474 0)
(0.520128 -0.00805063 0)
(0.534602 -0.00790009 0)
(0.548996 -0.00774542 0)
(0.563276 -0.00758748 0)
(0.577405 -0.00743263 0)
(0.591325 -0.0072686 0)
(0.605011 -0.00709402 0)
(0.61842 -0.00690238 0)
(0.631517 -0.00670647 0)
(0.6443 -0.00654027 0)
(0.656845 -0.00643388 0)
(0.669211 -0.0063797 0)
(0.681359 -0.00628541 0)
(0.693163 -0.00611084 0)
(0.704528 -0.0058541 0)
(0.71538 -0.00553766 0)
(0.725642 -0.0051776 0)
(0.735222 -0.00479273 0)
(0.744102 -0.00439094 0)
(0.752264 -0.00400551 0)
(0.759805 -0.00366123 0)
(0.766672 -0.00336335 0)
(0.772699 -0.00317914 0)
(0.778793 -0.00309678 0)
(0.784095 -0.00324872 0)
(0.789929 -0.0035918 0)
(-7.33801e-05 3.91764e-05 0)
(-5.28507e-05 0.00039001 0)
(-0.00041331 0.000431961 0)
(-0.000702675 0.000296174 0)
(-0.000896925 0.000320001 0)
(-0.0010701 9.87521e-05 0)
(-0.0011596 -0.000101555 0)
(-0.00114279 -0.000296441 0)
(-0.000972077 -0.000757021 0)
(-0.000613073 -0.00123472 0)
(-2.68658e-05 -0.00171252 0)
(0.000770422 -0.00219966 0)
(0.00179863 -0.0026721 0)
(0.0030712 -0.00322472 0)
(0.0046538 -0.00385193 0)
(0.00657972 -0.00451203 0)
(0.00878541 -0.00516169 0)
(0.0113366 -0.0057864 0)
(0.0143202 -0.0063155 0)
(0.017642 -0.0068103 0)
(0.0212674 -0.00730592 0)
(0.0252023 -0.00783646 0)
(0.0294851 -0.00817924 0)
(0.0339956 -0.00837228 0)
(0.0386092 -0.0084081 0)
(0.0433569 -0.00833433 0)
(0.0481804 -0.00809943 0)
(0.0531579 -0.00764881 0)
(0.0581563 -0.00719002 0)
(0.0629915 -0.00674837 0)
(0.0676991 -0.00620183 0)
(0.0724018 -0.00561837 0)
(0.0770621 -0.00505262 0)
(0.0816195 -0.00453799 0)
(0.0860621 -0.00411252 0)
(0.0903936 -0.00381241 0)
(0.0946156 -0.00367269 0)
(0.0987317 -0.00371349 0)
(0.102797 -0.00402362 0)
(0.106873 -0.00456276 0)
(0.110932 -0.00518902 0)
(0.114943 -0.00585446 0)
(0.118948 -0.00654457 0)
(0.12302 -0.00724918 0)
(0.127133 -0.00795329 0)
(0.131593 -0.00862234 0)
(0.135902 -0.00929308 0)
(0.140606 -0.00960037 0)
(0.145289 -0.0100173 0)
(0.150579 -0.0103113 0)
(0.155787 -0.0105468 0)
(0.161676 -0.0106569 0)
(0.167488 -0.0108003 0)
(0.17397 -0.0109109 0)
(0.180528 -0.0111099 0)
(0.187595 -0.0113438 0)
(0.194986 -0.0116716 0)
(0.202586 -0.0120833 0)
(0.210608 -0.0125189 0)
(0.218896 -0.01305 0)
(0.228386 -0.0135381 0)
(0.237178 -0.0143303 0)
(0.247796 -0.0148252 0)
(0.25699 -0.0158186 0)
(0.268723 -0.0164169 0)
(0.278749 -0.0170877 0)
(0.289045 -0.0177897 0)
(0.300446 -0.0179058 0)
(0.310416 -0.018434 0)
(0.32214 -0.0183614 0)
(0.3366 -0.0171782 0)
(0.349377 -0.0192731 0)
(0.365238 -0.0168566 0)
(0.377911 -0.0192007 0)
(0.391957 -0.020196 0)
(0.40644 -0.0208662 0)
(0.421126 -0.0215046 0)
(0.435998 -0.0221421 0)
(0.451068 -0.0227466 0)
(0.466332 -0.0232941 0)
(0.481764 -0.023779 0)
(0.497366 -0.0241948 0)
(0.513146 -0.0245357 0)
(0.529095 -0.0248009 0)
(0.545206 -0.0249924 0)
(0.561456 -0.025111 0)
(0.577819 -0.0251571 0)
(0.594263 -0.0251304 0)
(0.610765 -0.025028 0)
(0.627273 -0.0248409 0)
(0.643737 -0.0245751 0)
(0.660083 -0.0242182 0)
(0.676272 -0.0237912 0)
(0.692232 -0.0233256 0)
(0.707877 -0.022861 0)
(0.723117 -0.0224087 0)
(0.738383 -0.0219715 0)
(0.75337 -0.0215338 0)
(0.767959 -0.0209815 0)
(0.782022 -0.0202736 0)
(0.795498 -0.0194166 0)
(0.808362 -0.0184327 0)
(0.820578 -0.0173471 0)
(0.832113 -0.0161935 0)
(0.84296 -0.0149964 0)
(0.853107 -0.0138017 0)
(0.862532 -0.0126559 0)
(0.871234 -0.0116002 0)
(0.879309 -0.01071 0)
(0.886636 -0.0100542 0)
(0.8939 -0.00969027 0)
(0.899704 -0.0097425 0)
(-2.91793e-05 0.000253829 0)
(-0.00017879 0.00050782 0)
(-0.000335024 0.000710832 0)
(-0.000725899 0.000678502 0)
(-0.000975554 0.000657512 0)
(-0.00145387 0.000453216 0)
(-0.00164114 0.000201897 0)
(-0.00194667 -0.000221805 0)
(-0.00190742 -0.00071479 0)
(-0.00195382 -0.0013743 0)
(-0.00146973 -0.00209415 0)
(-0.00143433 -0.0028723 0)
(-0.000480752 -0.00369421 0)
(0.000517823 -0.00455426 0)
(0.00172874 -0.00544258 0)
(0.00324431 -0.00633517 0)
(0.00504696 -0.00702555 0)
(0.00716567 -0.00883127 0)
(0.00951695 -0.00983656 0)
(0.0120076 -0.0104144 0)
(0.0145915 -0.0114196 0)
(0.0174414 -0.0117582 0)
(0.0207291 -0.012796 0)
(0.0242579 -0.0126463 0)
(0.027959 -0.0131012 0)
(0.0318872 -0.0135 0)
(0.0361245 -0.0134312 0)
(0.0404643 -0.0141587 0)
(0.0446656 -0.0128204 0)
(0.0489668 -0.0119769 0)
(0.0535385 -0.0114288 0)
(0.0583219 -0.0109727 0)
(0.063201 -0.0105149 0)
(0.0681091 -0.0100938 0)
(0.0730178 -0.0097474 0)
(0.0778925 -0.0095047 0)
(0.0826883 -0.00938657 0)
(0.0872894 -0.00940061 0)
(0.0917397 -0.00953684 0)
(0.096224 -0.00987775 0)
(0.100669 -0.0104333 0)
(0.104925 -0.0110722 0)
(0.108985 -0.0117418 0)
(0.112878 -0.0124158 0)
(0.116636 -0.0130815 0)
(0.120315 -0.0137103 0)
(0.123972 -0.0142837 0)
(0.12768 -0.0147589 0)
(0.13151 -0.0151783 0)
(0.135507 -0.0155249 0)
(0.139688 -0.0158087 0)
(0.144071 -0.0160938 0)
(0.14869 -0.0164519 0)
(0.153594 -0.0169092 0)
(0.158812 -0.0174755 0)
(0.164352 -0.0181565 0)
(0.170226 -0.0189431 0)
(0.176462 -0.0198301 0)
(0.183058 -0.0203983 0)
(0.190083 -0.0235627 0)
(0.19746 -0.0247482 0)
(0.205233 -0.0256978 0)
(0.213394 -0.0270492 0)
(0.221966 -0.0285179 0)
(0.230933 -0.029943 0)
(0.240003 -0.0313795 0)
(0.250881 -0.0313526 0)
(0.260295 -0.0332455 0)
(0.272835 -0.0318502 0)
(0.283542 -0.0333459 0)
(0.294993 -0.0345261 0)
(0.306092 -0.0349262 0)
(0.318534 -0.0349997 0)
(0.332135 -0.0356266 0)
(0.346014 -0.0366525 0)
(0.36001 -0.0377087 0)
(0.374225 -0.0386801 0)
(0.388725 -0.0395601 0)
(0.403511 -0.0403652 0)
(0.418556 -0.041116 0)
(0.433843 -0.0418077 0)
(0.449374 -0.0424222 0)
(0.465152 -0.0429456 0)
(0.481165 -0.0433746 0)
(0.497399 -0.0437043 0)
(0.513825 -0.043946 0)
(0.530443 -0.0440819 0)
(0.547176 -0.0441455 0)
(0.564105 -0.0440807 0)
(0.58101 -0.0439396 0)
(0.598149 -0.0436274 0)
(0.615027 -0.0431526 0)
(0.632066 -0.0424629 0)
(0.648655 -0.0415504 0)
(0.664899 -0.0408962 0)
(0.680791 -0.0404573 0)
(0.697115 -0.0398675 0)
(0.712614 -0.0389608 0)
(0.727874 -0.0378023 0)
(0.742879 -0.0364717 0)
(0.757553 -0.0349855 0)
(0.771844 -0.0333458 0)
(0.78568 -0.0315674 0)
(0.798974 -0.0296781 0)
(0.811641 -0.027711 0)
(0.823601 -0.025712 0)
(0.834763 -0.0237315 0)
(0.845043 -0.0218306 0)
(0.854386 -0.0200849 0)
(0.862749 -0.0186091 0)
(0.870105 -0.0174571 0)
(0.876497 -0.0167692 0)
(-2.81739e-05 0.000273764 0)
(-0.0001377 0.000747267 0)
(-0.000368531 0.00100539 0)
(-0.00071598 0.00106083 0)
(-0.0010244 0.00103746 0)
(-0.00143927 0.000783003 0)
(-0.00167676 0.000481133 0)
(-0.0020744 -0.000102093 0)
(-0.00208734 -0.00064658 0)
(-0.00230167 -0.00168967 0)
(-0.0021911 -0.00210579 0)
(-0.00202963 -0.00315205 0)
(-0.0013826 -0.00420239 0)
(-0.00074808 -0.00549315 0)
(0.000120022 -0.00677814 0)
(0.00118543 -0.00822347 0)
(0.00278665 -0.00944818 0)
(0.00446335 -0.010789 0)
(0.00516162 -0.0118942 0)
(0.00850724 -0.0132612 0)
(0.0110351 -0.0136559 0)
(0.0136492 -0.0158141 0)
(0.0165343 -0.0163504 0)
(0.019938 -0.0168531 0)
(0.0227896 -0.0172128 0)
(0.0285125 -0.0171895 0)
(0.0287025 -0.0174748 0)
(0.0339545 -0.0173848 0)
(0.0391645 -0.0173455 0)
(0.0438385 -0.0171773 0)
(0.0488136 -0.016855 0)
(0.0540177 -0.0164129 0)
(0.0592255 -0.015911 0)
(0.0643857 -0.0154104 0)
(0.0695085 -0.0149453 0)
(0.074534 -0.0145294 0)
(0.0794756 -0.0141994 0)
(0.0842318 -0.0137732 0)
(0.0889248 -0.014789 0)
(0.0933987 -0.0154416 0)
(0.0974167 -0.0150941 0)
(0.101309 -0.0154132 0)
(0.104992 -0.0157873 0)
(0.108487 -0.0161781 0)
(0.11182 -0.0166387 0)
(0.115021 -0.017152 0)
(0.118145 -0.0177116 0)
(0.121244 -0.0182631 0)
(0.124402 -0.018902 0)
(0.127704 -0.019549 0)
(0.131045 -0.0200438 0)
(0.134413 -0.0205546 0)
(0.13795 -0.0212223 0)
(0.141762 -0.0220431 0)
(0.145867 -0.0229982 0)
(0.15026 -0.024085 0)
(0.154961 -0.0252953 0)
(0.159996 -0.0266117 0)
(0.165505 -0.0280219 0)
(0.171322 -0.0295272 0)
(0.177227 -0.0310535 0)
(0.183505 -0.0326724 0)
(0.190257 -0.0343868 0)
(0.197393 -0.0361357 0)
(0.204937 -0.0377482 0)
(0.212851 -0.039318 0)
(0.221241 -0.0407896 0)
(0.230186 -0.0421458 0)
(0.239449 -0.0432768 0)
(0.249393 -0.0446648 0)
(0.260401 -0.046465 0)
(0.272202 -0.0477081 0)
(0.283693 -0.0487128 0)
(0.295555 -0.0499997 0)
(0.307945 -0.0514249 0)
(0.320658 -0.0528165 0)
(0.3337 -0.0541302 0)
(0.347118 -0.0553636 0)
(0.360888 -0.0565258 0)
(0.374982 -0.0576197 0)
(0.389402 -0.058634 0)
(0.404159 -0.0595553 0)
(0.419257 -0.0603724 0)
(0.434699 -0.061094 0)
(0.450459 -0.0616921 0)
(0.466558 -0.0622245 0)
(0.482923 -0.0625683 0)
(0.499611 -0.0629324 0)
(0.516538 -0.0629784 0)
(0.533673 -0.0631348 0)
(0.55122 -0.0628681 0)
(0.568512 -0.0625136 0)
(0.586476 -0.0617036 0)
(0.603086 -0.0596889 0)
(0.620257 -0.0585856 0)
(0.638348 -0.0583019 0)
(0.656995 -0.0578989 0)
(0.675614 -0.0569837 0)
(0.693895 -0.0557001 0)
(0.711781 -0.05418 0)
(0.729245 -0.052422 0)
(0.746197 -0.0503965 0)
(0.76251 -0.048103 0)
(0.778062 -0.0455637 0)
(0.792744 -0.0428095 0)
(0.806451 -0.0398835 0)
(0.819074 -0.0368443 0)
(0.830517 -0.0337684 0)
(0.840703 -0.0307523 0)
(0.849575 -0.0279162 0)
(0.857089 -0.0253896 0)
(0.86325 -0.0233349 0)
(-2.52796e-05 0.000403955 0)
(-0.000160239 0.000923642 0)
(-0.000361563 0.00134103 0)
(-0.000729768 0.00142123 0)
(-0.00103826 0.00143603 0)
(-0.0014173 0.00120389 0)
(-0.00173635 0.000820087 0)
(-0.00199519 0.000249404 0)
(-0.00222383 -0.000536451 0)
(-0.00223211 -0.00142514 0)
(-0.00230597 -0.00256507 0)
(-0.00193813 -0.00374426 0)
(-0.00161812 -0.00517125 0)
(-0.000853944 -0.00653907 0)
(-8.96066e-05 -0.00801982 0)
(0.00117935 -0.00943144 0)
(0.00240829 -0.0109493 0)
(0.00421177 -0.0122959 0)
(0.00607649 -0.0137991 0)
(0.00797938 -0.0155164 0)
(0.0102168 -0.0169183 0)
(0.0127785 -0.0181614 0)
(0.0155742 -0.0192656 0)
(0.0184707 -0.0202586 0)
(0.0216623 -0.0211075 0)
(0.025221 -0.0215767 0)
(0.029316 -0.0217735 0)
(0.0334253 -0.0223358 0)
(0.0374395 -0.0228021 0)
(0.0415782 -0.0228861 0)
(0.046032 -0.0227021 0)
(0.0507237 -0.0223971 0)
(0.0555757 -0.0220227 0)
(0.060536 -0.0216069 0)
(0.0655046 -0.0211606 0)
(0.0705764 -0.0207384 0)
(0.0756054 -0.0203463 0)
(0.080571 -0.0199924 0)
(0.0856329 -0.0197689 0)
(0.0900755 -0.0195826 0)
(0.0943919 -0.0195277 0)
(0.0984778 -0.0195782 0)
(0.102458 -0.0197872 0)
(0.106123 -0.0199817 0)
(0.109637 -0.0202419 0)
(0.112972 -0.0206323 0)
(0.116262 -0.0211386 0)
(0.119069 -0.0215343 0)
(0.122592 -0.022187 0)
(0.124182 -0.022841 0)
(0.127755 -0.0235483 0)
(0.13134 -0.0243435 0)
(0.134826 -0.0252585 0)
(0.138514 -0.026298 0)
(0.142436 -0.0274649 0)
(0.146556 -0.0287802 0)
(0.150895 -0.0302594 0)
(0.155475 -0.0318919 0)
(0.160374 -0.0337301 0)
(0.165537 -0.0358209 0)
(0.170841 -0.0378359 0)
(0.176318 -0.0397791 0)
(0.182139 -0.0419234 0)
(0.188475 -0.0443823 0)
(0.195231 -0.0466114 0)
(0.202417 -0.048932 0)
(0.210048 -0.0510469 0)
(0.218224 -0.0528274 0)
(0.22695 -0.0546214 0)
(0.236056 -0.0558335 0)
(0.245484 -0.0567035 0)
(0.255207 -0.0583479 0)
(0.265548 -0.0603353 0)
(0.276691 -0.0624058 0)
(0.288374 -0.0645376 0)
(0.30042 -0.0665731 0)
(0.312884 -0.0683946 0)
(0.325825 -0.0700277 0)
(0.339231 -0.0715533 0)
(0.353083 -0.0730279 0)
(0.367372 -0.0744624 0)
(0.382102 -0.0758374 0)
(0.397227 -0.0771266 0)
(0.412841 -0.0783073 0)
(0.428623 -0.0793647 0)
(0.445352 -0.0802858 0)
(0.461115 -0.0810672 0)
(0.479968 -0.0817007 0)
(0.493897 -0.0821852 0)
(0.517073 -0.082511 0)
(0.526744 -0.0826664 0)
(0.555877 -0.0826487 0)
(0.561936 -0.0824594 0)
(0.594355 -0.0821272 0)
(0.614783 -0.0817147 0)
(0.633773 -0.0811061 0)
(0.653376 -0.0801613 0)
(0.672857 -0.0788321 0)
(0.691713 -0.0771366 0)
(0.709975 -0.0750763 0)
(0.72772 -0.0726283 0)
(0.744886 -0.0697787 0)
(0.761349 -0.066534 0)
(0.77699 -0.0629164 0)
(0.791709 -0.0589609 0)
(0.8054 -0.0547188 0)
(0.81795 -0.05026 0)
(0.829246 -0.0456745 0)
(0.839185 -0.0410758 0)
(0.847678 -0.0366035 0)
(0.854651 -0.0324225 0)
(0.860041 -0.0287201 0)
(-2.51455e-05 0.000468472 0)
(-0.000144707 0.00116565 0)
(-0.000380645 0.00162083 0)
(-0.000703774 0.00182356 0)
(-0.00105816 0.00181898 0)
(-0.00141778 0.00159596 0)
(-0.00175611 0.00115407 0)
(-0.00203897 0.000490329 0)
(-0.00224352 -0.00038145 0)
(-0.00231404 -0.00143932 0)
(-0.0022858 -0.00268472 0)
(-0.00199213 -0.00404782 0)
(-0.00158297 -0.00559493 0)
(-0.000882666 -0.007214 0)
(-5.80105e-05 -0.00896105 0)
(0.00108309 -0.0107471 0)
(0.00241245 -0.0125851 0)
(0.00402425 -0.0144278 0)
(0.00594957 -0.0162444 0)
(0.00805927 -0.018054 0)
(0.0104694 -0.0196793 0)
(0.0130422 -0.0212135 0)
(0.0158851 -0.0225821 0)
(0.0188859 -0.0237726 0)
(0.0222847 -0.0247612 0)
(0.0258094 -0.0255553 0)
(0.0295676 -0.0262266 0)
(0.0335307 -0.0268612 0)
(0.0376229 -0.027304 0)
(0.0418225 -0.0274669 0)
(0.0461638 -0.0274262 0)
(0.0506502 -0.0272713 0)
(0.0552432 -0.027033 0)
(0.0599063 -0.0267156 0)
(0.0646142 -0.02634 0)
(0.069343 -0.0259338 0)
(0.0740601 -0.0255241 0)
(0.0787288 -0.0251578 0)
(0.0832821 -0.0248964 0)
(0.0876461 -0.0246912 0)
(0.0918546 -0.0244969 0)
(0.0959357 -0.0243625 0)
(0.0998813 -0.0242939 0)
(0.103596 -0.0243003 0)
(0.107266 -0.0244675 0)
(0.110637 -0.024592 0)
(0.11392 -0.0248093 0)
(0.117087 -0.0251327 0)
(0.120272 -0.0255239 0)
(0.12339 -0.026 0)
(0.126527 -0.0268614 0)
(0.129535 -0.0278907 0)
(0.132602 -0.0290307 0)
(0.135733 -0.0301883 0)
(0.139196 -0.0316398 0)
(0.142781 -0.0332212 0)
(0.146569 -0.0349597 0)
(0.150467 -0.0368678 0)
(0.154965 -0.0389535 0)
(0.15851 -0.0412183 0)
(0.163491 -0.0435857 0)
(0.169117 -0.046016 0)
(0.174919 -0.0485181 0)
(0.180773 -0.0510721 0)
(0.185433 -0.0536308 0)
(0.194976 -0.0561747 0)