/*--------------------------------*- C++ -*----------------------------------*\
| =========                 |                                                 |
| \\      /  F ield         | OpenFOAM: The Open Source CFD Toolbox           |
|  \\    /   O peration     | Version:  2206                                  |
|   \\  /    A nd           | Website:  www.openfoam.com                      |
|    \\/     M anipulation  |                                                 |
\*---------------------------------------------------------------------------*/
FoamFile
{
    version     2.0;
    format      ascii;
    arch        "LSB;label=32;scalar=64";
    class       surfaceScalarField;
    location    "18.8001";
    object      phi_0;
}
// * * * * * * * * * * * * * * * * * * * * * * * * * * * * * * * * * * * * * //

dimensions      [0 3 -1 0 0 0 0];

oriented        oriented;

internalField   nonuniform List<scalar> 
9557
(
6.74152e-07
-3.79432e-07
-4.57431e-07
1.13158e-06
2.67873e-06
-6.11558e-07
-6.55254e-07
2.87656e-06
6.71697e-06
-9.05117e-07
6.94428e-06
-8.38874e-07
-8.60787e-07
7.14981e-06
1.01706e-05
-1.09553e-06
1.03364e-05
-1.0047e-06
-9.65938e-07
1.04416e-05
1.19443e-05
-1.16009e-06
1.20082e-05
-1.06863e-06
-1.00389e-06
1.20462e-05
1.27979e-05
-1.15099e-06
1.2793e-05
-1.06371e-06
-9.94329e-07
1.27835e-05
1.31732e-05
-1.09845e-06
1.3131e-05
-1.02156e-06
-9.54976e-07
1.30917e-05
1.33106e-05
-1.02657e-06
1.32512e-05
-9.62178e-07
-9.02106e-07
1.31984e-05
1.33571e-05
-9.5068e-07
1.32936e-05
-8.98735e-07
-8.46931e-07
1.32385e-05
1.34117e-05
-8.77383e-07
1.33497e-05
-8.36724e-07
-7.93699e-07
1.32965e-05
1.34659e-05
-8.08812e-07
1.34074e-05
-7.78211e-07
-7.43835e-07
1.33575e-05
1.35091e-05
-7.46512e-07
1.34556e-05
-7.2478e-07
-6.98617e-07
1.34104e-05
1.35411e-05
-6.91252e-07
1.34936e-05
-6.77247e-07
-6.58594e-07
1.34536e-05
1.35637e-05
-6.43245e-07
1.35223e-05
-6.35866e-07
-6.23908e-07
1.34876e-05
1.35784e-05
-6.02253e-07
1.3543e-05
-6.00501e-07
-5.94404e-07
1.35135e-05
1.35866e-05
-5.67833e-07
1.35569e-05
-5.70797e-07
-5.69752e-07
1.35322e-05
1.35896e-05
-5.39449e-07
1.35652e-05
-5.46303e-07
-5.49523e-07
1.35449e-05
1.35887e-05
-5.16533e-07
1.3569e-05
-5.26553e-07
-5.33334e-07
1.35528e-05
1.35848e-05
-4.98516e-07
1.35694e-05
-5.111e-07
-5.20808e-07
1.35568e-05
1.35789e-05
-4.84837e-07
1.35672e-05
-4.99475e-07
-5.11549e-07
1.3558e-05
1.35718e-05
-4.74981e-07
1.35635e-05
-4.91249e-07
-5.05218e-07
1.35572e-05
1.35645e-05
-4.685e-07
1.35594e-05
-4.86071e-07
-5.01564e-07
1.35557e-05
1.35581e-05
-4.64992e-07
1.35557e-05
-4.8361e-07
-5.00355e-07
1.35544e-05
1.35522e-05
-4.63904e-07
1.35519e-05
-4.83377e-07
-5.0105e-07
1.35526e-05
1.3537e-05
-4.63653e-07
1.35373e-05
-4.83639e-07
-5.01885e-07
1.35381e-05
1.34599e-05
-4.58916e-07
1.3455e-05
-4.78728e-07
-4.96758e-07
1.34499e-05
1.31442e-05
-4.37099e-07
1.31207e-05
-4.55226e-07
-4.7135e-07
1.30953e-05
1.21295e-05
-3.69507e-07
1.20572e-05
-3.82968e-07
-3.94132e-07
1.198e-05
9.35561e-06
-2.18611e-07
9.19628e-06
-2.23638e-07
-2.24397e-07
9.02655e-06
3.33009e-06
3.10645e-06
2.88206e-06
4.64243e-07
-1.14941e-06
1.81675e-06
-4.02848e-08
-1.49567e-06
2.0002e-06
-3.43523e-07
-1.83914e-06
2.14238e-06
-5.81024e-07
-2.11159e-06
2.34909e-06
-8.1528e-07
-2.27191e-06
2.50616e-06
-1.06083e-06
-2.26865e-06
2.51419e-06
-1.29626e-06
-2.07952e-06
2.31495e-06
-1.44838e-06
-1.716e-06
1.86812e-06
-1.46374e-06
-1.17619e-06
1.19154e-06
-1.27601e-06
-4.9586e-07
3.08133e-07
-9.31373e-07
2.86801e-07
-6.3144e-07
-4.3329e-07
1.14296e-06
-1.64104e-06
1.67218e-07
2.00403e-06
-2.60454e-06
8.3748e-07
2.81253e-06
-3.48279e-06
1.54722e-06
3.5156e-06
-4.22534e-06
2.29213e-06
4.08419e-06
-4.82909e-06
3.08194e-06
4.49702e-06
-5.28683e-06
3.93521e-06
4.73383e-06
-5.58709e-06
4.86563e-06
4.77298e-06
-5.70341e-06
5.86777e-06
4.59805e-06
-5.60019e-06
6.91832e-06
4.20316e-06
-5.25371e-06
7.98512e-06
3.58632e-06
-4.65312e-06
9.04457e-06
2.73883e-06
-3.79828e-06
1.00883e-05
1.65131e-06
-2.69504e-06
1.10842e-05
3.71289e-07
-1.36723e-06
1.19506e-05
-9.37901e-07
7.15364e-08
1.26318e-05
-2.12893e-06
1.4477e-06
1.31069e-05
-3.12455e-06
2.64946e-06
1.33832e-05
-3.89576e-06
3.61946e-06
1.34886e-05
-4.44981e-06
4.3444e-06
1.34596e-05
-4.81453e-06
4.84353e-06
1.3327e-05
-5.01936e-06
5.15201e-06
1.31151e-05
-5.09271e-06
5.30457e-06
1.28529e-05
-5.06942e-06
5.33163e-06
1.25733e-05
-4.98847e-06
5.26806e-06
1.22973e-05
-4.88013e-06
5.15617e-06
1.20356e-05
-4.76247e-06
5.0242e-06
1.17905e-05
-4.64435e-06
4.88939e-06
1.15611e-05
-4.53083e-06
4.76023e-06
1.1345e-05
-4.42451e-06
4.64062e-06
1.11393e-05
-4.32649e-06
4.5322e-06
1.09409e-05
-4.23694e-06
4.43531e-06
1.07468e-05
-4.15552e-06
4.34964e-06
1.05538e-05
-4.08175e-06
4.27475e-06
1.03589e-05
-4.01533e-06
4.21018e-06
1.01598e-05
-3.95585e-06
4.15499e-06
9.95447e-06
-3.90176e-06
4.1071e-06
9.7403e-06
-3.85075e-06
4.06492e-06
9.51211e-06
-3.80211e-06
4.0303e-06
9.26216e-06
-3.75909e-06
4.00904e-06
8.98429e-06
-3.72768e-06
4.00555e-06
8.68154e-06
-3.70913e-06
4.01188e-06
8.3702e-06
-3.68842e-06
3.99976e-06
8.07583e-06
-3.63056e-06
3.92494e-06
7.82498e-06
-3.49089e-06
3.74174e-06
7.63714e-06
-3.23217e-06
3.42e-06
7.52082e-06
-2.83865e-06
2.95497e-06
7.47406e-06
-2.32013e-06
2.36689e-06
7.49164e-06
-1.70741e-06
1.68982e-06
7.56874e-06
-1.0378e-06
9.60703e-07
7.69564e-06
-3.49817e-07
2.22923e-07
7.86255e-06
3.20631e-07
-4.87548e-07
8.06071e-06
9.52366e-07
-1.15052e-06
8.28092e-06
1.52986e-06
-1.75007e-06
8.51398e-06
2.04271e-06
-2.27578e-06
8.75146e-06
2.48563e-06
-2.72311e-06
8.98613e-06
2.85799e-06
-3.09266e-06
9.21225e-06
3.16303e-06
-3.38915e-06
9.42559e-06
3.40688e-06
-3.62022e-06
9.62336e-06
3.59759e-06
-3.79537e-06
9.80412e-06
3.74421e-06
-3.92497e-06
9.96758e-06
3.85597e-06
-4.01942e-06
1.01143e-05
3.94187e-06
-4.08863e-06
1.02456e-05
4.0104e-06
-4.14162e-06
1.03624e-05
4.06973e-06
-4.18661e-06
1.0466e-05
4.12803e-06
-4.23162e-06
1.05576e-05
4.19308e-06
-4.28462e-06
1.06388e-05
4.26979e-06
-4.35104e-06
1.07125e-05
4.35928e-06
-4.43299e-06
1.07824e-05
4.45717e-06
-4.52704e-06
1.0851e-05
4.55247e-06
-4.62109e-06
1.09183e-05
4.63488e-06
-4.70212e-06
1.09826e-05
4.69647e-06
-4.76083e-06
1.10449e-05
4.72869e-06
-4.79098e-06
1.11109e-05
4.71307e-06
-4.77909e-06
1.11758e-05
4.62472e-06
-4.68963e-06
1.12364e-05
4.44911e-06
-4.5097e-06
1.12931e-05
4.17995e-06
-4.23665e-06
1.1346e-05
3.81416e-06
-3.86703e-06
1.1395e-05
3.35258e-06
-3.40158e-06
1.144e-05
2.80084e-06
-2.84586e-06
1.1481e-05
2.1698e-06
-2.21073e-06
1.15176e-05
1.47607e-06
-1.5127e-06
1.15494e-05
7.43494e-07
-7.75304e-07
1.15746e-05
8.17949e-09
-3.33322e-08
1.15914e-05
-7.005e-07
6.83617e-07
1.15987e-05
-1.36143e-06
1.35421e-06
1.15952e-05
-1.95812e-06
1.96153e-06
1.15808e-05
-2.47946e-06
2.49391e-06
1.15554e-05
-2.91978e-06
2.94519e-06
1.15195e-05
-3.27834e-06
3.31426e-06
1.1474e-05
-3.55864e-06
3.60414e-06
1.142e-05
-3.76709e-06
3.82102e-06
1.13586e-05
-3.91184e-06
3.97329e-06
1.12899e-05
-4.00167e-06
4.07035e-06
1.12132e-05
-4.04408e-06
4.12078e-06
1.11278e-05
-4.04558e-06
4.13097e-06
1.10349e-05
-4.01692e-06
4.10979e-06
1.09353e-05
-3.96893e-06
4.0686e-06
1.0829e-05
-3.91025e-06
4.01648e-06
1.07161e-05
-3.84764e-06
3.96059e-06
1.0596e-05
-3.78601e-06
3.90605e-06
1.04686e-05
-3.72844e-06
3.85589e-06
1.03337e-05
-3.67605e-06
3.8109e-06
1.0192e-05
-3.62774e-06
3.76944e-06
1.00447e-05
-3.58003e-06
3.72733e-06
9.89369e-06
-3.52722e-06
3.67826e-06
9.74116e-06
-3.46207e-06
3.6146e-06
9.58951e-06
-3.37689e-06
3.52854e-06
9.44099e-06
-3.26477e-06
3.41329e-06
9.29765e-06
-3.12051e-06
3.26385e-06
9.16141e-06
-2.94111e-06
3.07735e-06
9.03424e-06
-2.72571e-06
2.85288e-06
8.91826e-06
-2.47512e-06
2.5911e-06
8.81581e-06
-2.19138e-06
2.29383e-06
8.72939e-06
-1.87737e-06
1.96378e-06
8.66154e-06
-1.53671e-06
1.60457e-06
8.61437e-06
-1.17367e-06
1.22083e-06
8.5892e-06
-7.9315e-07
8.18325e-07
8.58602e-06
-4.01035e-07
4.04215e-07
8.60581e-06
-4.89457e-09
-1.48943e-08
8.64854e-06
3.87774e-07
-4.30507e-07
8.71164e-06
7.71482e-07
-8.34586e-07
8.79254e-06
1.14036e-06
-1.22126e-06
8.88844e-06
1.4894e-06
-1.58531e-06
8.99623e-06
1.8147e-06
-1.92249e-06
2.1135e-06
-2.22991e-06
2.627e-06
-8.99858e-07
2.30231e-06
-1.17098e-06
1.92021e-06
-1.45705e-06
1.53845e-06
-1.72982e-06
1.1664e-06
-1.89986e-06
8.50465e-07
-1.95271e-06
6.20473e-07
-1.84953e-06
4.77408e-07
-1.57293e-06
4.29221e-07
-1.128e-06
4.87541e-07
-5.54179e-07
6.62957e-07
1.11385e-07
9.91324e-07
8.14594e-07
1.46897e-06
1.52638e-06
2.07428e-06
2.20722e-06
2.7845e-06
2.80539e-06
3.58664e-06
3.28204e-06
4.4732e-06
3.61046e-06
5.43592e-06
3.77111e-06
6.45772e-06
3.75118e-06
7.51206e-06
3.54371e-06
8.57345e-06
3.14176e-06
9.63235e-06
2.52742e-06
1.06968e-05
1.67434e-06
1.17496e-05
5.98607e-07
1.26917e-05
-5.70818e-07
1.343e-05
-1.67628e-06
1.39335e-05
-2.63238e-06
1.42103e-05
-3.40135e-06
1.42939e-05
-3.97942e-06
1.42261e-05
-4.38195e-06
1.40427e-05
-4.63113e-06
1.37751e-05
-4.75182e-06
1.3458e-05
-4.77559e-06
1.31262e-05
-4.73756e-06
1.28031e-05
-4.66538e-06
1.24994e-05
-4.57647e-06
1.22174e-05
-4.48047e-06
1.19561e-05
-4.38307e-06
1.17129e-05
-4.28761e-06
1.14844e-05
-4.19601e-06
1.12672e-05
-4.1093e-06
1.10581e-05
-4.02783e-06
1.0854e-05
-3.95146e-06
1.06521e-05
-3.87983e-06
1.04495e-05
-3.81271e-06
1.02437e-05
-3.75001e-06
1.00327e-05
-3.69085e-06
9.81517e-06
-3.63318e-06
9.58793e-06
-3.57487e-06
9.34506e-06
-3.51622e-06
9.0789e-06
-3.46152e-06
8.786e-06
-3.41623e-06
8.47502e-06
-3.37744e-06
8.16824e-06
-3.32378e-06
7.89439e-06
-3.21705e-06
7.67925e-06
-3.01703e-06
7.53848e-06
-2.69787e-06
7.47503e-06
-2.25668e-06
7.48083e-06
-1.71321e-06
7.54771e-06
-1.10467e-06
7.66649e-06
-4.68597e-07
7.82502e-06
1.62095e-07
8.01498e-06
7.62414e-07
8.22795e-06
1.31688e-06
8.45553e-06
1.81514e-06
8.68981e-06
2.25135e-06
8.92389e-06
2.62391e-06
9.1521e-06
2.93481e-06
9.37017e-06
3.18881e-06
9.57518e-06
3.39258e-06
9.76555e-06
3.55383e-06
9.94081e-06
3.68071e-06
1.01013e-05
3.78136e-06
1.02479e-05
3.8638e-06
1.03816e-05
3.93604e-06
1.05035e-05
4.00612e-06
1.06153e-05
4.08126e-06
1.07196e-05
4.16556e-06
1.08194e-05
4.25945e-06
1.09179e-05
4.35863e-06
1.10164e-05
4.45404e-06
1.11144e-05
4.53688e-06
1.1212e-05
4.59883e-06
1.13118e-05
4.62895e-06
1.14153e-05
4.60955e-06
1.15188e-05
4.52121e-06
1.16189e-05
4.34903e-06
1.1714e-05
4.08484e-06
1.18028e-05
3.72534e-06
1.18837e-05
3.27161e-06
1.19552e-05
2.72938e-06
1.20156e-05
2.10942e-06
1.20636e-05
1.42811e-06
1.20979e-05
7.09151e-07
1.21172e-05
-1.11395e-08
1.21207e-05
-7.04019e-07
1.21082e-05
-1.34891e-06
1.20801e-05
-1.92998e-06
1.20373e-05
-2.4367e-06
1.19814e-05
-2.86385e-06
1.19139e-05
-3.21088e-06
1.18365e-05
-3.48126e-06
1.17508e-05
-3.68135e-06
1.1658e-05
-3.81902e-06
1.15585e-05
-3.90218e-06
1.1452e-05
-3.93762e-06
1.13395e-05
-3.93302e-06
1.1222e-05
-3.89947e-06
1.11002e-05
-3.84715e-06
1.09743e-05
-3.78428e-06
1.08439e-05
-3.71724e-06
1.07085e-05
-3.65065e-06
1.05676e-05
-3.58751e-06
1.04207e-05
-3.52919e-06
1.02681e-05
-3.47517e-06
1.01108e-05
-3.42272e-06
9.95052e-06
-3.36691e-06
9.78951e-06
-3.30106e-06
9.63032e-06
-3.21771e-06
9.47538e-06
-3.10984e-06
9.32685e-06
-2.97198e-06
9.18659e-06
-2.80085e-06
9.05636e-06
-2.59547e-06
8.93797e-06
-2.35674e-06
8.83348e-06
-2.08688e-06
8.74507e-06
-1.78896e-06
8.67496e-06
-1.46661e-06
8.62521e-06
-1.12392e-06
8.59756e-06
-7.65501e-07
8.59262e-06
-3.9609e-07
8.61029e-06
-2.25729e-08
8.65011e-06
3.47954e-07
8.71053e-06
7.11068e-07
8.78925e-06
1.06164e-06
8.88363e-06
1.39502e-06
8.99076e-06
1.70757e-06
1.99672e-06
7.22314e-06
-9.73189e-07
7.15939e-06
-1.10723e-06
6.93451e-06
-1.23216e-06
6.51151e-06
-1.30682e-06
5.90402e-06
-1.29238e-06
5.15112e-06
-1.1998e-06
4.35241e-06
-1.05082e-06
3.64456e-06
-8.65084e-07
3.15234e-06
-6.35775e-07
2.92175e-06
-3.23588e-07
2.95539e-06
7.77477e-08
3.19961e-06
5.70366e-07
3.60325e-06
1.12275e-06
4.14202e-06
1.66845e-06
4.80164e-06
2.14576e-06
5.56816e-06
2.51552e-06
6.42486e-06
2.75376e-06
7.3507e-06
2.84527e-06
8.32209e-06
2.77979e-06
9.32043e-06
2.54538e-06
1.03442e-05
2.11796e-06
1.14076e-05
1.46401e-06
1.24889e-05
5.93096e-07
1.34726e-05
-3.85102e-07
1.42349e-05
-1.3331e-06
1.47384e-05
-2.17985e-06
1.49967e-05
-2.89063e-06
1.5048e-05
-3.45263e-06
1.49383e-05
-3.86977e-06
1.47076e-05
-4.15125e-06
1.43927e-05
-4.31621e-06
1.40314e-05
-4.39051e-06
1.3659e-05
-4.40321e-06
1.32987e-05
-4.37726e-06
1.29608e-05
-4.32747e-06
1.26478e-05
-4.26345e-06
1.23587e-05
-4.19143e-06
1.20911e-05
-4.1154e-06
1.18415e-05
-4.038e-06
1.16064e-05
-3.96098e-06
1.13826e-05
-3.8855e-06
1.1167e-05
-3.81221e-06
1.09569e-05
-3.7413e-06
1.07496e-05
-3.67261e-06
1.05428e-05
-3.60591e-06
1.0334e-05
-3.54115e-06
1.01211e-05
-3.47795e-06
9.9029e-06
-3.41499e-06
9.67801e-06
-3.34999e-06
9.44294e-06
-3.28115e-06
9.19111e-06
-3.20969e-06
8.91572e-06
-3.14084e-06
8.61717e-06
-3.07888e-06
8.31017e-06
-3.01677e-06
8.02179e-06
-2.92867e-06
7.78151e-06
-2.77675e-06
7.61136e-06
-2.52773e-06
7.521e-06
-2.16632e-06
7.50873e-06
-1.70094e-06
7.56353e-06
-1.15948e-06
7.67158e-06
-5.76641e-07
7.82069e-06
1.29816e-08
8.00183e-06
5.81278e-07
8.20682e-06
1.11189e-06
8.42777e-06
1.59418e-06
8.65729e-06
2.02183e-06
8.88883e-06
2.39238e-06
9.11692e-06
2.70672e-06
9.33737e-06
2.96836e-06
9.54727e-06
3.18268e-06
9.74494e-06
3.35617e-06
9.92971e-06
3.49594e-06
1.01017e-05
3.60939e-06
1.02614e-05
3.70404e-06
1.04099e-05
3.78756e-06
1.05485e-05
3.86755e-06
1.06793e-05
3.95046e-06
1.08052e-05
4.03969e-06
1.09292e-05
4.1354e-06
1.10539e-05
4.234e-06
1.118e-05
4.32792e-06
1.13079e-05
4.40893e-06
1.14387e-05
4.46809e-06
1.15739e-05
4.49374e-06
1.17133e-05
4.4701e-06
1.18541e-05
4.38042e-06
1.19924e-05
4.21077e-06
1.21247e-05
3.95257e-06
1.22478e-05
3.60215e-06
1.23589e-05
3.16052e-06
1.24549e-05
2.63345e-06
1.25328e-05
2.0315e-06
1.25904e-05
1.37045e-06
1.26261e-05
6.73477e-07
1.26389e-05
-2.38947e-08
1.26288e-05
-6.93976e-07
1.25969e-05
-1.31701e-06
1.25449e-05
-1.87795e-06
1.24751e-05
-2.36686e-06
1.23901e-05
-2.77884e-06
1.22926e-05
-3.1134e-06
1.21851e-05
-3.37374e-06
1.20695e-05
-3.56577e-06
1.19472e-05
-3.69677e-06
1.1819e-05
-3.77398e-06
1.16855e-05
-3.80412e-06
1.15482e-05
-3.7957e-06
1.14082e-05
-3.7595e-06
1.12662e-05
-3.70514e-06
1.11223e-05
-3.64037e-06
1.09762e-05
-3.5711e-06
1.08271e-05
-3.50162e-06
1.06744e-05
-3.43477e-06
1.05173e-05
-3.37207e-06
1.03556e-05
-3.31351e-06
1.01901e-05
-3.25716e-06
1.00221e-05
-3.19898e-06
9.85411e-06
-3.13303e-06
9.68865e-06
-3.05225e-06
9.52845e-06
-2.94964e-06
9.37586e-06
-2.81939e-06
9.23283e-06
-2.65782e-06
9.10095e-06
-2.4636e-06
8.98173e-06
-2.23752e-06
8.87676e-06
-1.98191e-06
8.78783e-06
-1.70003e-06
8.71685e-06
-1.39562e-06
8.66565e-06
-1.07272e-06
8.63575e-06
-7.35601e-07
8.62852e-06
-3.88869e-07
8.64395e-06
-3.79986e-08
8.68084e-06
3.11066e-07
8.7381e-06
6.53807e-07
8.81391e-06
9.85832e-07
8.90585e-06
1.30308e-06
9.01119e-06
1.60223e-06
1.88086e-06
1.04617e-05
-9.93351e-07
1.03893e-05
-1.03483e-06
1.02274e-05
-1.07027e-06
9.98748e-06
-1.06687e-06
9.69851e-06
-1.0034e-06
9.37024e-06
-8.71533e-07
8.99426e-06
-6.74846e-07
8.55363e-06
-4.24452e-07
8.06007e-06
-1.42211e-07
7.54192e-06
1.94561e-07
7.08848e-06
5.31183e-07
6.80979e-06
8.49059e-07
6.77428e-06
1.15826e-06
6.9844e-06
1.45833e-06
7.40763e-06
1.72253e-06
8.00292e-06
1.92023e-06
8.73125e-06
2.02543e-06
9.56036e-06
2.01616e-06
1.04667e-05
1.87348e-06
1.14359e-05
1.57615e-06
1.24562e-05
1.09764e-06
1.34792e-05
4.41019e-07
1.43921e-05
-3.19763e-07
1.50798e-05
-1.07281e-06
1.55064e-05
-1.75967e-06
1.56907e-05
-2.36423e-06
1.56838e-05
-2.88366e-06
1.55295e-05
-3.29835e-06
1.52604e-05
-3.60071e-06
1.49134e-05
-3.80428e-06
1.45265e-05
-3.92925e-06
1.41324e-05
-3.9964e-06
1.37515e-05
-4.02236e-06
1.33932e-05
-4.01898e-06
1.30604e-05
-3.99462e-06
1.27523e-05
-3.95538e-06
1.24667e-05
-3.90579e-06
1.22005e-05
-3.84922e-06
1.19507e-05
-3.78815e-06
1.17141e-05
-3.72444e-06
1.1488e-05
-3.6594e-06
1.12697e-05
-3.59389e-06
1.10568e-05
-3.52837e-06
1.08471e-05
-3.46294e-06
1.06387e-05
-3.39747e-06
1.04293e-05
-3.33183e-06
1.02172e-05
-3.26581e-06
1.00009e-05
-3.19866e-06
9.77965e-06
-3.12877e-06
9.55226e-06
-3.05376e-06
9.31475e-06
-2.97219e-06
9.06017e-06
-2.88625e-06
8.78298e-06
-2.8017e-06
8.48767e-06
-2.72146e-06
8.19435e-06
-2.63536e-06
7.93312e-06
-2.51552e-06
7.73238e-06
-2.32698e-06
7.61012e-06
-2.04406e-06
7.5704e-06
-1.66121e-06
7.60508e-06
-1.19416e-06
7.6998e-06
-6.71368e-07
7.83931e-06
-1.26524e-07
8.01173e-06
4.08853e-07
8.20875e-06
9.14874e-07
8.42273e-06
1.3802e-06
8.64672e-06
1.79784e-06
8.87457e-06
2.16453e-06
9.10112e-06
2.48017e-06
9.32233e-06
2.74715e-06
9.53535e-06
2.96965e-06
9.73843e-06
3.15309e-06
9.93071e-06
3.30366e-06
1.01121e-05
3.428e-06
1.02831e-05
3.53309e-06
1.04445e-05
3.6261e-06
1.05981e-05
3.71398e-06
1.07461e-05
3.80239e-06
1.08916e-05
3.89425e-06
1.10373e-05
3.98968e-06
1.11855e-05
4.08581e-06
1.13372e-05
4.17623e-06
1.14932e-05
4.25293e-06
1.16545e-05
4.30675e-06
1.1822e-05
4.32627e-06
1.19946e-05
4.29749e-06
1.21692e-05
4.20581e-06
1.23414e-05
4.03859e-06
1.25066e-05
3.78733e-06
1.26605e-05
3.44829e-06
1.27985e-05
3.02253e-06
1.29162e-05
2.51576e-06
1.30096e-05
1.93809e-06
1.30755e-05
1.30449e-06
1.3112e-05
6.37049e-07
1.31184e-05
-3.03116e-08
1.30958e-05
-6.71436e-07
1.30464e-05
-1.2676e-06
1.29731e-05
-1.8046e-06
1.28793e-05
-2.27304e-06
1.27686e-05
-2.66818e-06
1.26446e-05
-2.9894e-06
1.25104e-05
-3.23949e-06
1.23682e-05
-3.42367e-06
1.22199e-05
-3.54842e-06
1.20664e-05
-3.62044e-06
1.1909e-05
-3.64679e-06
1.17498e-05
-3.63644e-06
1.15899e-05
-3.59959e-06
1.143e-05
-3.54524e-06
1.12702e-05
-3.48063e-06
1.11103e-05
-3.41118e-06
1.09495e-05
-3.34077e-06
1.07867e-05
-3.272e-06
1.0621e-05
-3.20644e-06
1.0452e-05
-3.14451e-06
1.028e-05
-3.08507e-06
1.0106e-05
-3.02503e-06
9.93236e-06
-2.95937e-06
9.76172e-06
-2.88162e-06
9.59703e-06
-2.78494e-06
9.44093e-06
-2.6633e-06
9.29558e-06
-2.51248e-06
9.16263e-06
-2.33064e-06
9.04335e-06
-2.11824e-06
8.93896e-06
-1.87752e-06
8.85078e-06
-1.61185e-06
8.78026e-06
-1.32511e-06
8.72892e-06
-1.02138e-06
8.69812e-06
-7.048e-07
8.68891e-06
-3.79662e-07
8.70153e-06
-5.06164e-08
8.73532e-06
2.77276e-07
8.78923e-06
5.999e-07
8.86163e-06
9.13425e-07
8.95042e-06
1.21429e-06
9.05312e-06
1.49953e-06
1.76685e-06
1.20406e-05
-9.87767e-07
1.19801e-05
-9.7431e-07
1.18636e-05
-9.53766e-07
1.17015e-05
-9.04761e-07
1.15115e-05
-8.13463e-07
1.13144e-05
-6.74373e-07
1.1129e-05
-4.89463e-07
1.09689e-05
-2.64413e-07
1.08307e-05
-3.93995e-09
1.07356e-05
2.89651e-07
1.06707e-05
5.96106e-07
1.06338e-05
8.85911e-07
1.06535e-05
1.13857e-06
1.07733e-05
1.33851e-06
1.10251e-05
1.47072e-06
1.14189e-05
1.52646e-06
1.19466e-05
1.49775e-06
1.25881e-05
1.37463e-06
1.33141e-05
1.14746e-06
1.4085e-05
8.05239e-07
1.4837e-05
3.45723e-07
1.54633e-05
-1.85317e-07
1.58863e-05
-7.42737e-07
1.61101e-05
-1.2966e-06
1.6173e-05
-1.82258e-06
1.61112e-05
-2.30247e-06
1.59274e-05
-2.69989e-06
1.56394e-05
-3.0103e-06
1.52855e-05
-3.2468e-06
1.49e-05
-3.41879e-06
1.45096e-05
-3.53887e-06
1.41308e-05
-3.61762e-06
1.37715e-05
-3.66304e-06
1.34343e-05
-3.6818e-06
1.31192e-05
-3.67951e-06
1.28247e-05
-3.66089e-06
1.25488e-05
-3.62981e-06
1.22889e-05
-3.58939e-06
1.20429e-05
-3.54212e-06
1.18084e-05
-3.48989e-06
1.15831e-05
-3.43412e-06
1.1365e-05
-3.3758e-06
1.11521e-05
-3.31551e-06
1.09427e-05
-3.25353e-06
1.07351e-05
-3.18984e-06
1.05276e-05
-3.12432e-06
1.03185e-05
-3.05672e-06
1.01064e-05
-2.98654e-06
9.89047e-06
-2.91288e-06
9.67062e-06
-2.83391e-06
9.44568e-06
-2.74725e-06
9.21136e-06
-2.65193e-06
8.96061e-06
-2.55095e-06
8.68937e-06
-2.45023e-06
8.40568e-06
-2.35166e-06
8.13355e-06
-2.24339e-06
7.90451e-06
-2.09795e-06
7.74499e-06
-1.88454e-06
7.66822e-06
-1.58444e-06
7.67271e-06
-1.19864e-06
7.74669e-06
-7.45355e-07
7.87344e-06
-2.53269e-07
8.03656e-06
2.45729e-07
8.22558e-06
7.25852e-07
8.43266e-06
1.17312e-06
8.651e-06
1.5795e-06
8.87473e-06
1.9408e-06
9.09899e-06
2.25591e-06
9.31995e-06
2.52619e-06
9.53484e-06
2.75477e-06
9.74185e-06
2.94609e-06
9.94002e-06
3.10549e-06
1.01291e-05
3.2389e-06
1.03095e-05
3.35268e-06
1.04823e-05
3.45336e-06
1.06491e-05
3.54719e-06
1.08124e-05
3.6391e-06
1.09749e-05
3.73167e-06
1.11396e-05
3.82503e-06
1.13085e-05
3.91688e-06
1.1483e-05
4.00175e-06
1.1664e-05
4.07196e-06
1.18522e-05
4.11854e-06
1.20476e-05
4.1308e-06
1.22487e-05
4.09639e-06
1.2452e-05
4.0025e-06
1.26528e-05
3.8378e-06
1.28458e-05
3.59439e-06
1.30253e-05
3.26879e-06
1.31857e-05
2.86214e-06
1.33215e-05
2.37999e-06
1.34276e-05
1.8319e-06
1.35004e-05
1.23175e-06
1.35373e-05
6.00124e-07
1.35384e-05
-3.14172e-08
1.35056e-05
-6.38601e-07
1.34419e-05
-1.2039e-06
1.33512e-05
-1.71394e-06
1.32379e-05
-2.15975e-06
1.31064e-05
-2.5366e-06
1.29606e-05
-2.84361e-06
1.28041e-05
-3.08302e-06
1.26397e-05
-3.25929e-06
1.24694e-05
-3.37808e-06
1.22947e-05
-3.4457e-06
1.21174e-05
-3.46953e-06
1.19397e-05
-3.45872e-06
1.17629e-05
-3.42285e-06
1.1588e-05
-3.37026e-06
1.14149e-05
-3.30762e-06
1.12436e-05
-3.2398e-06
1.1073e-05
-3.17016e-06
1.0902e-05
-3.10104e-06
1.07296e-05
-3.03405e-06
1.0555e-05
-2.96992e-06
1.03781e-05
-2.90818e-06
1.01998e-05
-2.84671e-06
1.0022e-05
-2.78152e-06
9.84729e-06
-2.70695e-06
9.6789e-06
-2.61656e-06
9.51977e-06
-2.50416e-06
9.37234e-06
-2.36505e-06
9.23841e-06
-2.19671e-06
9.11921e-06
-1.99904e-06
9.01568e-06
-1.77399e-06
8.92869e-06
-1.52486e-06
8.85924e-06
-1.25565e-06
8.80843e-06
-9.70566e-07
8.77734e-06
-6.73713e-07
8.76682e-06
-3.69148e-07
8.7772e-06
-6.09936e-08
8.8081e-06
2.46377e-07
8.85865e-06
5.49346e-07
8.92749e-06
8.44592e-07
9.01277e-06
1.12901e-06
9.11234e-06
1.39995e-06
1.65531e-06
1.27509e-05
-9.55206e-07
1.2687e-05
-9.104e-07
1.25934e-05
-8.6019e-07
1.24802e-05
-7.91497e-07
1.23614e-05
-6.94668e-07
1.22521e-05
-5.65152e-07
1.21654e-05
-4.02741e-07
1.21113e-05
-2.10281e-07
1.21002e-05
7.12547e-09
1.2148e-05
2.41915e-07
1.2264e-05
4.80046e-07
1.24484e-05
7.0155e-07
1.26967e-05
8.90211e-07
1.30012e-05
1.03406e-06
1.33518e-05
1.12007e-06
1.37422e-05
1.13606e-06
1.41661e-05
1.07385e-06
1.46143e-05
9.26423e-07
1.50761e-05
6.85674e-07
1.5527e-05
3.54382e-07
1.59132e-05
-4.04926e-08
1.61851e-05
-4.57236e-07
1.63266e-05
-8.84222e-07
1.6352e-05
-1.32198e-06
1.62688e-05
-1.73942e-06
1.60754e-05
-2.10908e-06
1.57988e-05
-2.42325e-06
1.5473e-05
-2.68454e-06
1.51226e-05
-2.89634e-06
1.47665e-05
-3.06271e-06
1.44161e-05
-3.18846e-06
1.40773e-05
-3.27884e-06
1.37531e-05
-3.33883e-06
1.34446e-05
-3.37332e-06
1.31519e-05
-3.38684e-06
1.28744e-05
-3.38337e-06
1.2611e-05
-3.36637e-06
1.23603e-05
-3.33867e-06
1.21207e-05
-3.30261e-06
1.18909e-05
-3.26001e-06
1.1669e-05
-3.21227e-06
1.14536e-05
-3.16039e-06
1.12431e-05
-3.10502e-06
1.10361e-05
-3.04652e-06
1.08312e-05
-2.98497e-06
1.06272e-05
-2.92032e-06
1.04228e-05
-2.8523e-06
1.02167e-05
-2.78043e-06
1.00079e-05
-2.7041e-06
9.7963e-06
-2.62229e-06
9.58216e-06
-2.53311e-06
9.36448e-06
-2.43426e-06
9.13879e-06
-2.32525e-06
8.89815e-06
-2.20959e-06
8.63976e-06
-2.09328e-06
8.37419e-06
-1.97782e-06
8.12764e-06
-1.8514e-06
7.93178e-06
-1.68867e-06
7.81052e-06
-1.46318e-06
7.77303e-06
-1.16116e-06
7.81438e-06
-7.86704e-07
7.91986e-06
-3.58744e-07
8.07052e-06
9.50612e-08
8.2506e-06
5.45776e-07
8.45062e-06
9.73104e-07
8.66338e-06
1.36674e-06
8.88302e-06
1.72116e-06
9.10481e-06
2.03413e-06
9.32504e-06
2.30595e-06
9.54102e-06
2.53879e-06
9.75092e-06
2.73619e-06
9.95373e-06
2.90268e-06
1.01491e-05
3.04349e-06
1.03375e-05
3.1643e-06
1.05199e-05
3.27095e-06
1.06981e-05
3.36897e-06
1.08745e-05
3.46272e-06
1.10517e-05
3.55447e-06
1.12324e-05
3.64433e-06
1.1419e-05
3.73034e-06
1.16129e-05
3.80784e-06
1.18149e-05
3.8699e-06
1.20254e-05
3.90804e-06
1.22438e-05
3.91247e-06
1.24678e-05
3.87231e-06
1.2694e-05
3.7763e-06
1.29173e-05
3.61452e-06
1.31317e-05
3.37998e-06
1.33309e-05
3.06963e-06
1.35083e-05
2.68471e-06
1.36577e-05
2.23055e-06
1.37736e-05
1.71603e-06
1.38516e-05
1.15378e-06
1.38892e-05
5.62534e-07
1.38867e-05
-2.89958e-08
1.38468e-05
-5.98661e-07
1.37731e-05
-1.13022e-06
1.36702e-05
-1.61107e-06
1.3543e-05
-2.03252e-06
1.33962e-05
-2.38979e-06
1.32342e-05
-2.68162e-06
1.30608e-05
-2.90964e-06
1.28791e-05
-3.07758e-06
1.26915e-05
-3.19044e-06
1.25e-05
-3.25423e-06
1.2307e-05
-3.27654e-06
1.21147e-05
-3.2664e-06
1.19246e-05
-3.23277e-06
1.17377e-05
-3.18334e-06
1.15542e-05
-3.1241e-06
1.13737e-05
-3.0593e-06
1.11954e-05
-2.99185e-06
1.10181e-05
-2.92381e-06
1.08408e-05
-2.85668e-06
1.06622e-05
-2.7914e-06
1.04822e-05
-2.72809e-06
1.0301e-05
-2.66552e-06
1.01203e-05
-2.60079e-06
9.94257e-06
-2.52927e-06
9.77113e-06
-2.44512e-06
9.60922e-06
-2.34225e-06
9.45969e-06
-2.21551e-06
9.32464e-06
-2.06166e-06
9.20539e-06
-1.8798e-06
9.10271e-06
-1.67131e-06
9.0171e-06
-1.43925e-06
8.94908e-06
-1.18763e-06
8.89928e-06
-9.20772e-07
8.86844e-06
-6.42865e-07
8.85717e-06
-3.57882e-07
8.86581e-06
-6.96298e-08
8.89415e-06
2.18034e-07
8.94154e-06
5.0196e-07
9.00684e-06
7.79288e-07
9.08852e-06
1.04733e-06
9.18474e-06
1.30374e-06
1.5466e-06
1.30436e-05
-9.07135e-07
1.29837e-05
-8.50523e-07
1.29126e-05
-7.89018e-07
1.28357e-05
-7.14645e-07
1.27621e-05
-6.21014e-07
1.27019e-05
-5.0495e-07
1.26655e-05
-3.66419e-07
1.2663e-05
-2.07716e-07
1.27033e-05
-3.32021e-08
1.27948e-05
1.50368e-07
1.29427e-05
3.3223e-07
1.31459e-05
4.98269e-07
1.34009e-05
6.35266e-07
1.37022e-05
7.32766e-07
1.40407e-05
7.81592e-07
1.44037e-05
7.72977e-07
1.47776e-05
7.00008e-07
1.51456e-05
5.58357e-07
1.54834e-05
3.47884e-07
1.57615e-05
7.63297e-08
1.59575e-05
-2.36461e-07
1.6071e-05
-5.70756e-07
1.61041e-05
-9.17309e-07
1.60486e-05
-1.2665e-06
1.59115e-05
-1.6023e-06
1.57111e-05
-1.90872e-06
1.54662e-05
-2.17836e-06
1.51923e-05
-2.41067e-06
1.49018e-05
-2.60579e-06
1.46035e-05
-2.76443e-06
1.4304e-05
-2.88895e-06
1.40079e-05
-2.98272e-06
1.37185e-05
-3.04943e-06
1.34379e-05
-3.09277e-06
1.31674e-05
-3.1163e-06
1.29073e-05
-3.12327e-06
1.26575e-05
-3.11656e-06
1.24174e-05
-3.0986e-06
1.21862e-05
-3.07145e-06
1.1963e-05
-3.03676e-06
1.17466e-05
-2.99583e-06
1.15358e-05
-2.94962e-06
1.13295e-05
-2.89878e-06
1.11267e-05
-2.8437e-06
1.09263e-05
-2.78452e-06
1.07272e-05
-2.72126e-06
1.05286e-05
-2.65371e-06
1.03296e-05
-2.58138e-06
1.01292e-05
-2.50372e-06
9.927e-06
-2.4201e-06
9.72336e-06
-2.32946e-06
9.51902e-06
-2.22992e-06
9.31314e-06
-2.11938e-06
9.10122e-06
-1.99766e-06
8.87646e-06
-1.86852e-06
8.63672e-06
-1.73808e-06
8.39354e-06
-1.60823e-06
8.17369e-06
-1.46882e-06
8.00821e-06
-1.2977e-06
7.91911e-06
-1.07206e-06
7.91317e-06
-7.80766e-07
7.98298e-06
-4.28553e-07
8.11171e-06
-3.36678e-08
8.27937e-06
3.78112e-07
8.47108e-06
7.81392e-07
8.67803e-06
1.1598e-06
8.89366e-06
1.50552e-06
9.11303e-06
1.81477e-06
9.3324e-06
2.08658e-06
9.54908e-06
2.32211e-06
9.76123e-06
2.52403e-06
9.96782e-06
2.6961e-06
1.01685e-05
2.84282e-06
1.03636e-05
2.96918e-06
1.05542e-05
3.08033e-06
1.07421e-05
3.18111e-06
1.09295e-05
3.27535e-06
1.11189e-05
3.36508e-06
1.13129e-05
3.45034e-06
1.15138e-05
3.52944e-06
1.17232e-05
3.59844e-06
1.19418e-05
3.65128e-06
1.21695e-05
3.68031e-06
1.24052e-05
3.67677e-06
1.26465e-05
3.63103e-06
1.28895e-05
3.53334e-06
1.31288e-05
3.3752e-06
1.33582e-05
3.15062e-06
1.35707e-05
2.85707e-06
1.37595e-05
2.49589e-06
1.3918e-05
2.07207e-06
1.40404e-05
1.59365e-06
1.41223e-05
1.0719e-06
1.41612e-05
5.23603e-07
1.41577e-05
-2.54526e-08
1.41144e-05
-5.55418e-07
1.40356e-05
-1.05143e-06
1.39261e-05
-1.50155e-06
1.37909e-05
-1.89727e-06
1.36348e-05
-2.2337e-06
1.34624e-05
-2.50921e-06
1.32776e-05
-2.72485e-06
1.30837e-05
-2.88371e-06
1.28835e-05
-2.99028e-06
1.26798e-05
-3.05049e-06
1.24752e-05
-3.07197e-06
1.22722e-05
-3.06341e-06
1.20726e-05
-3.03308e-06
1.18771e-05
-2.98785e-06
1.1686e-05
-2.93298e-06
1.14988e-05
-2.87217e-06
1.1315e-05
-2.80798e-06
1.11333e-05
-2.74217e-06
1.09527e-05
-2.67606e-06
1.07719e-05
-2.61064e-06
1.05903e-05
-2.54643e-06
1.04078e-05
-2.48302e-06
1.02256e-05
-2.4186e-06
1.0046e-05
-2.34968e-06
9.87215e-06
-2.27129e-06
9.70762e-06
-2.17773e-06
9.5557e-06
-2.06359e-06
9.41894e-06
-1.9249e-06
9.29897e-06
-1.75983e-06
9.1966e-06
-1.56894e-06
9.11209e-06
-1.35474e-06
9.04551e-06
-1.12105e-06
8.99699e-06
-8.7225e-07
8.96681e-06
-6.12683e-07
8.95531e-06
-3.46382e-07
8.96271e-06
-7.70325e-08
8.98891e-06
1.91831e-07
9.03344e-06
4.57433e-07
9.09542e-06
7.17313e-07
9.17359e-06
9.69161e-07
9.26641e-06
1.21092e-06
1.44088e-06
1.31458e-05
-8.54552e-07
1.30916e-05
-7.96375e-07
1.30359e-05
-7.33251e-07
1.29816e-05
-6.60382e-07
1.29346e-05
-5.74013e-07
1.29022e-05
-4.72505e-07
1.28921e-05
-3.56374e-07
1.29122e-05
-2.27801e-07
1.29694e-05
-9.0412e-08
1.30694e-05
5.03957e-08
1.32149e-05
1.8668e-07
1.34046e-05
3.08557e-07
1.36338e-05
4.06126e-07
1.38956e-05
4.70992e-07
1.41812e-05
4.95965e-07
1.44795e-05
4.74661e-07
1.47766e-05
4.02867e-07
1.50567e-05
2.78334e-07
1.53017e-05
1.02883e-07
1.54949e-05
-1.16854e-07
1.5628e-05
-3.69571e-07
1.56995e-05
-6.42283e-07
1.57077e-05
-9.25537e-07
1.56525e-05
-1.21125e-06
1.55392e-05
-1.48901e-06
1.53784e-05
-1.74793e-06
1.51816e-05
-1.98152e-06
1.49578e-05
-2.18692e-06
1.4715e-05
-2.36295e-06
1.44601e-05
-2.50953e-06
1.4199e-05
-2.62791e-06
1.39365e-05
-2.7202e-06
1.3676e-05
-2.78892e-06
1.342e-05
-2.83674e-06
1.317e-05
-2.86634e-06
1.2927e-05
-2.88029e-06
1.26914e-05
-2.88089e-06
1.2463e-05
-2.87019e-06
1.22414e-05
-2.84994e-06
1.20263e-05
-2.82159e-06
1.18167e-05
-2.7863e-06
1.16121e-05
-2.74497e-06
1.14115e-05
-2.69821e-06
1.12142e-05
-2.6464e-06
1.10194e-05
-2.58973e-06
1.08264e-05
-2.52825e-06
1.06345e-05
-2.46182e-06
1.04432e-05
-2.39003e-06
1.02518e-05
-2.31234e-06
1.00599e-05
-2.22818e-06
9.86736e-06
-2.13693e-06
9.67503e-06
-2.03759e-06
9.48406e-06
-1.92841e-06
9.29391e-06
-1.80751e-06
9.10025e-06
-1.67486e-06
8.89639e-06
-1.53421e-06
8.67995e-06
-1.39179e-06
8.46169e-06
-1.25057e-06
8.26724e-06
-1.10325e-06
8.1268e-06
-9.31617e-07
8.06179e-06
-7.15752e-07
8.07834e-06
-4.4511e-07
8.16789e-06
-1.23214e-07
8.31225e-06
2.33752e-07
8.49122e-06
6.0242e-07
8.69039e-06
9.60623e-07
8.90142e-06
1.2945e-06
9.11835e-06
1.59783e-06
9.33694e-06
1.86799e-06
9.55425e-06
2.10481e-06
9.76835e-06
2.30993e-06
9.97816e-06
2.48628e-06
1.01833e-05
2.63763e-06
1.03842e-05
2.76829e-06
1.05818e-05
2.88273e-06
1.07778e-05
2.98514e-06
1.09743e-05
3.07889e-06
1.11736e-05
3.16576e-06
1.13782e-05