/*--------------------------------*- C++ -*----------------------------------*\
| =========                 |                                                 |
| \\      /  F ield         | OpenFOAM: The Open Source CFD Toolbox           |
|  \\    /   O peration     | Version:  2206                                  |
|   \\  /    A nd           | Website:  www.openfoam.com                      |
|    \\/     M anipulation  |                                                 |
\*---------------------------------------------------------------------------*/
FoamFile
{
    version     2.0;
    format      ascii;
    arch        "LSB;label=32;scalar=64";
    class       volVectorField;
    location    "19.5999";
    object      ddtCorrDdt0(U);
}
// * * * * * * * * * * * * * * * * * * * * * * * * * * * * * * * * * * * * * //

dimensions      [0 1 -2 0 0 0 0];

internalField   nonuniform List<vector> 
3087
(
(-8.07276e-06 0.00131378 0)
(-4.73654e-05 0.00453669 0)
(-0.000150415 0.00826179 0)
(-0.00032425 0.0124489 0)
(-0.000572562 0.01707 0)
(-0.000902226 0.0220847 0)
(-0.00132144 0.0274536 0)
(-0.00183752 0.0331364 0)
(-0.00245696 0.0390902 0)
(-0.00318443 0.04527 0)
(-0.00402468 0.0516286 0)
(-0.00498069 0.0581184 0)
(-0.00605521 0.0646898 0)
(-0.00724981 0.0712938 0)
(-0.00856513 0.0778825 0)
(-0.0100017 0.0844132 0)
(-0.0115584 0.0908503 0)
(-0.013234 0.0971661 0)
(-0.0150253 0.103343 0)
(-0.0169302 0.109371 0)
(-0.0189461 0.115249 0)
(-0.0210707 0.120985 0)
(-0.0233015 0.126594 0)
(-0.0256366 0.132099 0)
(-0.0280729 0.137527 0)
(-0.0306131 0.142915 0)
(-0.0332406 0.148302 0)
(-0.036015 0.15374 0)
(-0.0387487 0.159269 0)
(-0.0418347 0.164953 0)
(-0.0447224 0.170856 0)
(-0.0479796 0.177041 0)
(-0.0511518 0.183588 0)
(-0.0545403 0.190533 0)
(-0.0580586 0.198017 0)
(-0.0615633 0.206043 0)
(-0.0654712 0.214806 0)
(-0.0691483 0.22427 0)
(-0.0734536 0.234684 0)
(-0.0774127 0.245981 0)
(-0.0821127 0.258447 0)
(-0.0864963 0.272006 0)
(-0.091582 0.286941 0)
(-0.0965895 0.303221 0)
(-0.102054 0.321043 0)
(-0.107825 0.340503 0)
(-0.11386 0.361687 0)
(-0.12034 0.384724 0)
(-0.127273 0.409773 0)
(-0.134559 0.436847 0)
(-0.142529 0.466181 0)
(-0.150907 0.497742 0)
(-0.160239 0.531828 0)
(-0.170008 0.56818 0)
(-0.180855 0.607178 0)
(-0.192542 0.648872 0)
(-0.20462 0.692536 0)
(-0.217859 0.741442 0)
(-0.231188 0.792907 0)
(-0.245745 0.847806 0)
(-0.26162 0.906324 0)
(-0.278728 0.968611 0)
(-0.297065 1.03495 0)
(-0.316758 1.10558 0)
(-0.337947 1.18075 0)
(-0.360745 1.26069 0)
(-0.385275 1.34572 0)
(-0.411674 1.43616 0)
(-0.440108 1.53234 0)
(-0.47074 1.63469 0)
(-0.503789 1.7436 0)
(-0.539465 1.85955 0)
(-0.577983 1.98306 0)
(-0.619635 2.11467 0)
(-0.664716 2.25503 0)
(-0.713588 2.40482 0)
(-0.766652 2.56482 0)
(-0.824373 2.7359 0)
(-0.887279 2.91903 0)
(-0.955978 3.11526 0)
(-1.03119 3.32585 0)
(-1.11369 3.5521 0)
(-1.20444 3.79561 0)
(-1.30454 4.05812 0)
(-1.41523 4.3417 0)
(-1.53793 4.64866 0)
(-1.67425 4.98177 0)
(-1.82603 5.34426 0)
(-1.99521 5.7401 0)
(-2.1839 6.17409 0)
(-2.394 6.65233 0)
(-2.62713 7.18268 0)
(-2.88337 7.77575 0)
(-3.16079 8.44568 0)
(-3.45219 9.2167 0)
(-3.7348 10.105 0)
(-3.96705 11.1848 0)
(-4.12926 12.6103 0)
(-4.01143 14.4769 0)
(-0.742095 18.491 0)
(-6.34436e-06 0.00133384 0)
(-3.70967e-05 0.00460497 0)
(-0.000117644 0.00838493 0)
(-0.000253184 0.012634 0)
(-0.000446781 0.0173254 0)
(-0.000704041 0.0224182 0)
(-0.0010319 0.0278712 0)
(-0.00143617 0.0336433 0)
(-0.00192086 0.0396914 0)
(-0.00249004 0.0459696 0)
(-0.00314693 0.0524301 0)
(-0.00389435 0.0590249 0)
(-0.00473442 0.0657029 0)
(-0.00566845 0.072415 0)
(-0.00669715 0.0791117 0)
(-0.00782027 0.08575 0)
(-0.00903761 0.0922932 0)
(-0.0103475 0.0987135 0)
(-0.0117481 0.104993 0)
(-0.0132379 0.111121 0)
(-0.0148145 0.117098 0)
(-0.0164763 0.12293 0)
(-0.0182211 0.128634 0)
(-0.0200476 0.13423 0)
(-0.0219524 0.139749 0)
(-0.0239401 0.145225 0)
(-0.0259888 0.150702 0)
(-0.0281741 0.156223 0)
(-0.030257 0.161849 0)
(-0.0327484 0.167628 0)
(-0.0349291 0.173617 0)
(-0.037572 0.17989 0)
(-0.0399435 0.186539 0)
(-0.0426719 0.193589 0)
(-0.0453919 0.201188 0)
(-0.0480963 0.209322 0)
(-0.051257 0.218226 0)
(-0.053954 0.227808 0)
(-0.0575445 0.238397 0)
(-0.0603815 0.249835 0)
(-0.0643114 0.262507 0)
(-0.0674818 0.27624 0)
(-0.0717028 0.291423 0)
(-0.0753562 0.307907 0)
(-0.0798557 0.32604 0)
(-0.0841741 0.345764 0)
(-0.088941 0.367271 0)
(-0.0940228 0.390699 0)
(-0.0993315 0.416098 0)
(-0.104995 0.443623 0)
(-0.111191 0.473445 0)
(-0.117628 0.505604 0)
(-0.124724 0.540266 0)
(-0.13248 0.577557 0)
(-0.140728 0.617162 0)
(-0.150541 0.659964 0)
(-0.160148 0.703887 0)
(-0.171227 0.753384 0)
(-0.181423 0.805339 0)
(-0.192652 0.8613 0)
(-0.205062 0.921046 0)
(-0.218428 0.984456 0)
(-0.232737 1.05194 0)
(-0.248137 1.12384 0)
(-0.264733 1.2004 0)
(-0.282593 1.28185 0)
(-0.30181 1.36851 0)
(-0.322512 1.4607 0)
(-0.344813 1.55881 0)
(-0.368854 1.6632 0)
(-0.394799 1.77435 0)
(-0.422796 1.89274 0)
(-0.453048 2.01892 0)
(-0.485777 2.15348 0)
(-0.521234 2.29711 0)
(-0.559702 2.4505 0)
(-0.601494 2.61451 0)
(-0.646974 2.79001 0)
(-0.696565 2.97809 0)
(-0.750754 3.17984 0)
(-0.810111 3.39664 0)
(-0.87526 3.62986 0)
(-0.946957 3.88128 0)
(-1.02604 4.1527 0)
(-1.11344 4.44638 0)
(-1.21023 4.7647 0)
(-1.31759 5.11066 0)
(-1.43679 5.4875 0)
(-1.56909 5.89928 0)
(-1.71564 6.35049 0)
(-1.8771 6.8468 0)
(-2.05327 7.39471 0)
(-2.24163 8.00212 0)
(-2.43756 8.67917 0)
(-2.62524 9.43557 0)
(-2.78514 10.286 0)
(-2.86088 11.2576 0)
(-2.80335 12.3583 0)
(-2.15783 13.5805 0)
(-0.918366 14.2328 0)
(-4.56407e-06 0.00134915 0)
(-2.69799e-05 0.00465659 0)
(-8.52024e-05 0.00847812 0)
(-0.000182177 0.0127746 0)
(-0.000320487 0.017519 0)
(-0.000504727 0.0226702 0)
(-0.000739834 0.0281859 0)
(-0.00102951 0.0340252 0)
(-0.00137692 0.0401441 0)
(-0.00178497 0.0464963 0)
(-0.00225586 0.0530337 0)
(-0.00279202 0.0597066 0)
(-0.00339466 0.0664649 0)
(-0.00406461 0.0732575 0)
(-0.00480242 0.0800356 0)
(-0.00560784 0.0867549 0)
(-0.00648094 0.0933781 0)
(-0.00742006 0.099878 0)
(-0.00842506 0.106234 0)
(-0.00949411 0.112439 0)
(-0.0106259 0.118489 0)
(-0.0118186 0.124394 0)
(-0.0130711 0.130167 0)
(-0.0143819 0.135833 0)
(-0.0157488 0.141419 0)
(-0.0171754 0.146962 0)
(-0.0186439 0.152503 0)
(-0.0202111 0.158087 0)
(-0.0217177 0.163781 0)
(-0.0234559 0.169626 0)
(-0.0250247 0.175698 0)
(-0.0269857 0.182041 0)
(-0.0286231 0.188755 0)
(-0.0306384 0.195886 0)
(-0.0325387 0.203558 0)
(-0.0344992 0.21179 0)
(-0.0367758 0.220782 0)
(-0.0386412 0.230471 0)
(-0.0413453 0.241175 0)
(-0.0431853 0.252728 0)
(-0.0462343 0.265549 0)
(-0.0482614 0.279423 0)
(-0.0515111 0.294778 0)
(-0.0539093 0.31144 0)
(-0.0573529 0.329785 0)
(-0.0601786 0.349694 0)
(-0.0638527 0.371475 0)
(-0.0672768 0.39514 0)
(-0.0711094 0.420792 0)
(-0.0752118 0.448686 0)
(-0.0794051 0.478773 0)
(-0.0840826 0.511384 0)
(-0.0887101 0.546422 0)
(-0.0943542 0.584446 0)
(-0.0995958 0.624828 0)
(-0.107105 0.668599 0)
(-0.114346 0.713483 0)
(-0.124044 0.762527 0)
(-0.131315 0.814875 0)
(-0.138664 0.871012 0)
(-0.147638 0.931803 0)
(-0.157455 0.996378 0)
(-0.167637 1.06482 0)
(-0.1785 1.13764 0)
(-0.190322 1.21519 0)
(-0.203136 1.29777 0)
(-0.216953 1.38565 0)
(-0.231834 1.47916 0)
(-0.247857 1.5787 0)
(-0.265135 1.68466 0)
(-0.283775 1.79753 0)
(-0.303902 1.91781 0)
(-0.325667 2.04604 0)
(-0.349222 2.18288 0)
(-0.374766 2.32895 0)
(-0.402485 2.48507 0)
(-0.432611 2.65207 0)
(-0.465404 2.83094 0)
(-0.501181 3.02273 0)
(-0.540295 3.22872 0)
(-0.583152 3.45021 0)
(-0.630187 3.68878 0)
(-0.681922 3.94613 0)
(-0.738926 4.22431 0)
(-0.80187 4.5255 0)
(-0.871505 4.85234 0)
(-0.948655 5.20769 0)
(-1.03414 5.59502 0)
(-1.12874 6.01803 0)
(-1.23294 6.48112 0)
(-1.34673 6.98893 0)
(-1.46902 7.54664 0)
(-1.5969 8.15942 0)
(-1.7247 8.83304 0)
(-1.83757 9.56428 0)
(-1.91998 10.3661 0)
(-1.93678 11.23 0)
(-1.78721 12.1241 0)
(-1.44585 12.9129 0)
(-0.566276 15.8689 0)
(-2.98735e-06 0.00136032 0)
(-1.76453e-05 0.00469182 0)
(-5.35727e-05 0.00854005 0)
(-0.000111559 0.0128674 0)
(-0.00019385 0.0176476 0)
(-0.000304157 0.0228383 0)
(-0.000445242 0.0283968 0)
(-0.000619391 0.0342811 0)
(-0.000828227 0.0404474 0)
(-0.00107329 0.0468488 0)
(-0.00135661 0.0534368 0)
(-0.00167902 0.060162 0)
(-0.00204128 0.0669738 0)
(-0.00244397 0.0738207 0)
(-0.00288728 0.0806533 0)
(-0.00337171 0.0874267 0)
(-0.00389641 0.0941037 0)
(-0.00446201 0.100656 0)
(-0.00506759 0.107064 0)
(-0.00571265 0.113319 0)
(-0.00639573 0.119418 0)
(-0.00711602 0.125371 0)
(-0.00787204 0.131192 0)
(-0.00866325 0.136904 0)
(-0.00948729 0.142535 0)
(-0.0103472 0.148121 0)
(-0.0112304 0.153707 0)
(-0.0121762 0.159333 0)
(-0.0130708 0.165068 0)
(-0.0141407 0.170958 0)
(-0.0150984 0.177089 0)
(-0.0162165 0.18348 0)
(-0.0172398 0.190236 0)
(-0.0184411 0.197418 0)
(-0.0195466 0.205135 0)
(-0.0208179 0.213442 0)
(-0.0220423 0.222474 0)
(-0.0233362 0.232261 0)
(-0.0247976 0.243011 0)
(-0.0260127 0.254674 0)
(-0.0278255 0.267568 0)
(-0.0289625 0.28155 0)
(-0.031071 0.297014 0)
(-0.0323228 0.313796 0)
(-0.0345695 0.332267 0)
(-0.036095 0.352316 0)
(-0.038479 0.374269 0)
(-0.0403247 0.39806 0)
(-0.042791 0.423931 0)
(-0.0451663 0.451984 0)
(-0.047537 0.48227 0)
(-0.0504863 0.515054 0)
(-0.0528216 0.550369 0)
(-0.0561642 0.588497 0)
(-0.0583101 0.629611 0)
(-0.0619371 0.673761 0)
(-0.0647485 0.720484 0)
(-0.0756786 0.767563 0)
(-0.0827509 0.823303 0)
(-0.0849008 0.8794 0)
(-0.08913 0.939299 0)
(-0.0953608 1.00385 0)
(-0.101831 1.07297 0)
(-0.108397 1.14663 0)
(-0.115394 1.22501 0)
(-0.122976 1.30841 0)
(-0.131192 1.39714 0)
(-0.140073 1.49155 0)
(-0.149668 1.59203 0)
(-0.160037 1.69904 0)
(-0.171254 1.81305 0)
(-0.183392 1.93456 0)
(-0.196511 2.06416 0)
(-0.210726 2.20247 0)
(-0.226128 2.35021 0)
(-0.242844 2.50817 0)
(-0.261019 2.67721 0)
(-0.280815 2.85833 0)
(-0.302409 3.05266 0)
(-0.326005 3.26146 0)
(-0.351804 3.48608 0)
(-0.380067 3.72812 0)
(-0.411102 3.98937 0)
(-0.445289 4.27189 0)
(-0.48306 4.578 0)
(-0.524911 4.91032 0)
(-0.571325 5.27181 0)
(-0.622753 5.66575 0)
(-0.679509 6.0957 0)
(-0.741705 6.56556 0)
(-0.809056 7.07932 0)
(-0.88054 7.64086 0)
(-0.954115 8.2537 0)
(-1.0249 8.91826 0)
(-1.08719 9.63739 0)
(-1.12854 10.4007 0)
(-1.12699 11.1908 0)
(-1.03973 11.964 0)
(-0.916435 12.6929 0)
(-0.410347 11.8635 0)
(-0.000276558 0.0405974 0)
(-0.000357932 0.0470236 0)
(-0.000451597 0.0536373 0)
(-0.000558164 0.0603891 0)
(-0.000678017 0.0672278 0)
(-0.000811528 0.074102 0)
(-0.000958804 0.080962 0)
(-0.00111992 0.0877629 0)
(-0.0012954 0.0944675 0)
(-0.00148472 0.101047 0)
(-0.00168821 0.107482 0)
(-0.00190639 0.113763 0)
(-0.00213791 0.11989 0)
(-0.00238123 0.125867 0)
(-0.00263689 0.131712 0)
(-0.00290385 0.137446 0)
(-0.00318176 0.143099 0)
(-0.00347049 0.148706 0)
(-0.00376848 0.154313 0)
(-0.00407942 0.159957 0)
(-0.00439848 0.165719 0)
(-0.00472287 0.171636 0)
(-0.00508367 0.177781 0)
(-0.00540236 0.184192 0)
(-0.00578968 0.190976 0)
(-0.00616256 0.198186 0)
(-0.00652716 0.205931 0)
(-0.00699375 0.21427 0)
(-0.00731392 0.223327 0)
(-0.00787127 0.233163 0)
(-0.00820459 0.243929 0)
(-0.00875908 0.25566 0)
(-0.00925245 0.268575 0)
(-0.00966031 0.282625 0)
(-0.0104338 0.298138 0)
(-0.0106859 0.314976 0)
(-0.0116488 0.33352 0)
(-0.0119365 0.353633 0)
(-0.0129066 0.375659 0)
(-0.0133837 0.399507 0)
(-0.0143132 0.425517 0)
(-0.0150199 0.45358 0)
(-0.0157756 0.484031 0)
(-0.0169013 0.516779 0)
(-0.0173815 0.552272 0)
(-0.018768 0.59007 0)
(-0.0187099 0.631567 0)
(-0.0205215 0.675243 0)
(-0.0179952 0.727626 0)
(-0.0180394 0.782011 0)
(-0.0234661 0.818093 0)
(-0.031569 0.87983 0)
(-0.0341859 0.943251 0)
(-0.0349172 1.00827 0)
(-0.0359616 1.07743 0)
(-0.0376181 1.15118 0)
(-0.0397422 1.22976 0)
(-0.0421784 1.31348 0)
(-0.0448653 1.40265 0)
(-0.0477703 1.49756 0)
(-0.0508964 1.5986 0)
(-0.0542846 1.7062 0)
(-0.057961 1.82083 0)
(-0.0619406 1.94301 0)
(-0.0662517 2.0733 0)
(-0.0709173 2.21233 0)
(-0.0759956 2.36085 0)
(-0.0815683 2.51967 0)
(-0.0876709 2.68972 0)
(-0.0942457 2.872 0)
(-0.101315 3.06758 0)
(-0.108965 3.2777 0)
(-0.11728 3.50381 0)
(-0.126373 3.74751 0)
(-0.136415 4.01068 0)
(-0.147602 4.29541 0)
(-0.160124 4.60406 0)
(-0.174122 4.93923 0)
(-0.189712 5.30379 0)
(-0.206963 5.70092 0)
(-0.225891 6.13404 0)
(-0.246385 6.60674 0)
(-0.268318 7.12265 0)
(-0.29127 7.68513 0)
(-0.314366 8.29645 0)
(-0.336413 8.95706 0)
(-0.355607 9.66443 0)
(-0.36891 10.411 0)
(-0.366902 11.1718 0)
(-0.341399 11.8948 0)
(-0.214251 12.5178 0)
(0.0137036 12.8205 0)
(-8.54446e-05 1.62339e-05 0)
(-0.00036149 0.000240044 0)
(-0.000997893 0.000299671 0)
(-0.00201257 0.000488223 0)
(-0.00330689 0.000672281 0)
(-0.00498449 0.000899155 0)
(-0.00712325 0.00113322 0)
(-0.00979365 0.00138333 0)
(-0.0130048 0.00165981 0)
(-0.0167505 0.00193987 0)
(-0.021003 0.0022108 0)
(-0.0257289 0.00248001 0)
(-0.0309389 0.0028004 0)
(-0.0366906 0.00314194 0)
(-0.0430109 0.00344942 0)
(-0.0498547 0.00369249 0)
(-0.0572359 0.00397114 0)
(-0.0651591 0.00428969 0)
(-0.0735285 0.00450743 0)
(-0.0822084 0.00458868 0)
(-0.0910757 0.00456502 0)
(-0.100052 0.00448759 0)
(-0.109095 0.00443369 0)
(-0.118159 0.00435834 0)
(-0.127274 0.00414572 0)
(-0.135819 0.00411526 0)
(-0.145983 0.00392928 0)
(-0.153543 0.00357529 0)
(-0.161651 0.00328398 0)
(-0.169832 0.00312907 0)
(-0.177948 0.00311915 0)
(-0.186228 0.00328071 0)
(-0.194877 0.00365001 0)
(-0.204155 0.00425186 0)
(-0.214257 0.00509412 0)
(-0.225529 0.0061919 0)
(-0.238167 0.00738729 0)
(-0.252497 0.00855846 0)
(-0.268469 0.00969053 0)
(-0.286179 0.0107921 0)
(-0.305762 0.0119434 0)
(-0.326967 0.0129932 0)
(-0.350262 0.0139134 0)
(-0.374874 0.0147594 0)
(-0.400958 0.0153425 0)
(-0.428564 0.0157049 0)
(-0.45732 0.0160201 0)
(-0.487447 0.0164021 0)
(-0.518852 0.0170754 0)
(-0.551984 0.0179115 0)
(-0.586885 0.0190207 0)
(-0.623744 0.0204272 0)
(-0.663286 0.0206716 0)
(-0.703705 0.0223979 0)
(-0.748757 0.0238114 0)
(-0.793761 0.0258426 0)
(-0.844892 0.0279284 0)
(-0.900826 0.031035 0)
(-0.953655 0.0353503 0)
(-1.03212 0.0395328 0)
(-1.09003 0.0381472 0)
(-1.16619 0.0531563 0)
(-1.24573 0.0433004 0)
(-1.32295 0.0389145 0)
(-1.40125 0.03863 0)
(-1.48608 0.0396588 0)
(-1.57073 0.0469293 0)
(-1.6642 0.0528114 0)
(-1.76357 0.0510105 0)
(-1.86895 0.0540297 0)
(-1.98043 0.0582335 0)
(-2.09818 0.0624018 0)
(-2.22304 0.0683019 0)
(-2.35464 0.0720286 0)
(-2.49282 0.0753219 0)
(-2.63756 0.0783995 0)
(-2.78878 0.0811815 0)
(-2.94617 0.0835591 0)
(-3.10922 0.0855528 0)
(-3.27751 0.0873021 0)
(-3.45028 0.0884939 0)
(-3.62669 0.0894669 0)
(-3.80734 0.0915448 0)
(-3.99369 0.0944825 0)
(-4.18593 0.0966706 0)
(-4.38275 0.0977597 0)
(-4.5825 0.0981317 0)
(-4.78397 0.0979132 0)
(-4.98637 0.0962528 0)
(-5.18742 0.0922557 0)
(-5.38187 0.0867885 0)
(-5.5712 0.0797389 0)
(-5.7251 0.0765808 0)
(-5.93057 0.0730784 0)
(-6.06016 0.0588569 0)
(-6.17359 0.0390723 0)
(-6.26829 0.0192771 0)
(-6.33347 0.000748493 0)
(-6.36125 -0.0177879 0)
(-6.35282 -0.0378809 0)
(5.87553e-05 0.000393702 0)
(-0.000364801 0.000437782 0)
(-0.000461282 0.00177858 0)
(-0.00192991 0.00166601 0)
(-0.00317342 0.00248149 0)
(-0.0047977 0.0028438 0)
(-0.00676913 0.00372577 0)
(-0.00913262 0.00445199 0)
(-0.0119529 0.00524398 0)
(-0.0152617 0.0059798 0)
(-0.0189381 0.00662563 0)
(-0.0229968 0.00720589 0)
(-0.0274579 0.007969 0)
(-0.0324638 0.00882863 0)
(-0.0380196 0.00964879 0)
(-0.0439829 0.0104079 0)
(-0.0504238 0.0110603 0)
(-0.0575223 0.0117953 0)
(-0.0652009 0.0124401 0)
(-0.0732759 0.0129377 0)
(-0.081673 0.0132474 0)
(-0.0903466 0.0134475 0)
(-0.0993008 0.0135857 0)
(-0.108656 0.0137051 0)
(-0.118254 0.0136505 0)
(-0.128151 0.0133987 0)
(-0.138131 0.013131 0)
(-0.148118 0.0129794 0)
(-0.158458 0.012995 0)
(-0.169177 0.0131138 0)
(-0.1802 0.013358 0)
(-0.191541 0.0137742 0)
(-0.203257 0.014402 0)
(-0.215414 0.0152851 0)
(-0.228063 0.0164619 0)
(-0.241397 0.0181651 0)
(-0.255574 0.0201798 0)
(-0.270603 0.0223669 0)
(-0.286539 0.0246643 0)
(-0.303415 0.0270362 0)
(-0.321556 0.0294761 0)
(-0.34054 0.0320522 0)
(-0.361724 0.0347074 0)
(-0.383362 0.0365334 0)
(-0.407234 0.0389769 0)
(-0.432493 0.0413914 0)
(-0.459744 0.0437019 0)
(-0.488109 0.0462014 0)
(-0.519401 0.0487739 0)
(-0.551385 0.0517102 0)
(-0.587516 0.0546036 0)
(-0.623956 0.0580675 0)
(-0.664893 0.0614891 0)
(-0.706867 0.0654597 0)
(-0.752678 0.0695895 0)
(-0.802693 0.0738282 0)
(-0.8502 0.0791547 0)
(-0.907216 0.0833037 0)
(-0.962654 0.0897917 0)
(-1.03409 0.0943938 0)
(-1.08801 0.103012 0)
(-1.16451 0.107142 0)
(-1.23282 0.114476 0)
(-1.30468 0.124518 0)
(-1.39795 0.132124 0)
(-1.49007 0.14393 0)
(-1.5946 0.129397 0)
(-1.68482 0.146501 0)
(-1.79181 0.158212 0)
(-1.90572 0.168143 0)
(-2.02496 0.1775 0)
(-2.15029 0.1865 0)
(-2.28202 0.195292 0)
(-2.41979 0.20433 0)
(-2.56381 0.213815 0)
(-2.71434 0.223546 0)
(-2.87154 0.233214 0)
(-3.03536 0.242342 0)
(-3.20542 0.25068 0)
(-3.38197 0.258574 0)
(-3.56459 0.265746 0)
(-3.75114 0.272317 0)
(-3.94412 0.279833 0)
(-4.14286 0.288406 0)
(-4.34782 0.296026 0)
(-4.55805 0.301915 0)
(-4.77247 0.305955 0)
(-4.99023 0.309719 0)
(-5.21368 0.310209 0)
(-5.43613 0.304275 0)
(-5.65602 0.292451 0)
(-5.86318 0.272324 0)
(-6.05387 0.255064 0)
(-6.23246 0.240202 0)
(-6.40221 0.211709 0)
(-6.56322 0.172208 0)
(-6.70709 0.129165 0)
(-6.83058 0.0836679 0)
(-6.91851 0.0341447 0)
(-6.98125 -0.0189732 0)
(-2.70625e-05 0.000260272 0)
(-0.000149397 0.00101224 0)
(-0.000486191 0.00191491 0)
(-0.00111926 0.00252787 0)
(-0.00186578 0.00348727 0)
(-0.00333988 0.00439098 0)
(-0.0049027 0.00554501 0)
(-0.00732153 0.00657962 0)
(-0.00946441 0.00791733 0)
(-0.0128907 0.0091315 0)
(-0.0150229 0.0103237 0)
(-0.0196836 0.0114878 0)
(-0.0240045 0.0126462 0)
(-0.0286306 0.0137731 0)
(-0.033707 0.0148735 0)
(-0.0391488 0.0156119 0)
(-0.0448135 0.0178566 0)
(-0.0508851 0.0189779 0)
(-0.057593 0.0198202 0)
(-0.0644327 0.0206265 0)
(-0.0716093 0.0214537 0)
(-0.0792527 0.0220395 0)
(-0.0870116 0.0226963 0)
(-0.0954094 0.0236132 0)
(-0.104478 0.0237778 0)
(-0.113805 0.0253964 0)
(-0.123022 0.0235021 0)
(-0.132632 0.0236463 0)
(-0.142969 0.0240664 0)
(-0.153918 0.0245501 0)
(-0.165323 0.0252041 0)
(-0.17717 0.0260732 0)
(-0.189459 0.0272121 0)
(-0.202165 0.0286264 0)
(-0.215083 0.0303333 0)
(-0.228512 0.0323547 0)
(-0.242753 0.034917 0)
(-0.257657 0.0378092 0)
(-0.273164 0.0409261 0)
(-0.28932 0.0442492 0)
(-0.306165 0.0477084 0)
(-0.323867 0.0514226 0)
(-0.342523 0.0551303 0)
(-0.362357 0.0590001 0)
(-0.383761 0.0628288 0)
(-0.406561 0.0663857 0)
(-0.430643 0.0699928 0)
(-0.456226 0.0740391 0)
(-0.48368 0.0785542 0)
(-0.513172 0.0834854 0)
(-0.544795 0.0887642 0)
(-0.578637 0.0944225 0)
(-0.614933 0.100409 0)
(-0.653825 0.106708 0)
(-0.695349 0.11347 0)
(-0.739699 0.120592 0)
(-0.786866 0.124915 0)
(-0.837522 0.145724 0)
(-0.89186 0.157898 0)
(-0.945811 0.168612 0)
(-1.01149 0.172136 0)
(-1.07432 0.182911 0)
(-1.14722 0.187722 0)
(-1.21412 0.202721 0)
(-1.29919 0.205322 0)
(-1.38444 0.215709 0)
(-1.46791 0.234814 0)
(-1.55904 0.248962 0)
(-1.65854 0.263144 0)
(-1.76429 0.278493 0)
(-1.87538 0.294527 0)
(-1.99284 0.310968 0)
(-2.11726 0.327703 0)
(-2.2487 0.344574 0)
(-2.38729 0.361522 0)
(-2.53311 0.378366 0)
(-2.68641 0.395308 0)
(-2.8477 0.411023 0)
(-3.015 0.426414 0)
(-3.19214 0.440316 0)
(-3.37442 0.451028 0)
(-3.55987 0.463316 0)
(-3.75379 0.478723 0)
(-3.95264 0.494289 0)
(-4.16095 0.50741 0)
(-4.3783 0.518269 0)
(-4.60122 0.526505 0)
(-4.83542 0.536788 0)
(-5.06693 0.541598 0)
(-5.30102 0.535427 0)
(-5.53173 0.519466 0)
(-5.75141 0.483505 0)
(-5.98103 0.452542 0)
(-6.21474 0.435152 0)
(-6.44628 0.402894 0)
(-6.6665 0.352659 0)
(-6.86839 0.292424 0)
(-7.0478 0.223965 0)
(-7.20201 0.146746 0)
(-7.32409 0.0627031 0)
(-2.79474e-05 0.00036701 0)
(-0.000186612 0.00123426 0)
(-0.000455504 0.00238531 0)
(-0.0011291 0.00347188 0)
(-0.00199389 0.00472925 0)
(-0.00327893 0.0059826 0)
(-0.00472049 0.00745931 0)
(-0.00667257 0.00888057 0)
(-0.00884734 0.0107613 0)
(-0.0112904 0.0113022 0)
(-0.0143205 0.0130376 0)
(-0.017969 0.0148714 0)
(-0.021604 0.0167972 0)
(-0.0256697 0.018712 0)
(-0.0302583 0.0202662 0)
(-0.0353095 0.0220781 0)
(-0.0409859 0.0227556 0)
(-0.0465294 0.0258706 0)
(-0.0525202 0.0267594 0)
(-0.0591101 0.0274802 0)
(-0.0658203 0.0283944 0)
(-0.0736701 0.028809 0)
(-0.0801931 0.0298077 0)
(-0.0913591 0.0305002 0)
(-0.0937085 0.0315957 0)
(-0.104806 0.0323126 0)
(-0.115886 0.0329273 0)
(-0.126403 0.0337757 0)
(-0.137511 0.034753 0)
(-0.149077 0.0355531 0)
(-0.160916 0.036637 0)
(-0.173027 0.0378772 0)
(-0.185446 0.0393047 0)
(-0.198254 0.0409576 0)
(-0.211231 0.0424694 0)
(-0.22547 0.0474099 0)
(-0.238612 0.0499611 0)
(-0.252541 0.0532561 0)
(-0.266965 0.056863 0)
(-0.28192 0.0606843 0)
(-0.297415 0.0646068 0)
(-0.313728 0.0690793 0)
(-0.330828 0.0735951 0)
(-0.348905 0.0786491 0)
(-0.369167 0.084297 0)
(-0.390219 0.0889147 0)
(-0.41161 0.0935276 0)
(-0.434284 0.0990468 0)
(-0.45902 0.105438 0)
(-0.485878 0.112444 0)
(-0.514726 0.119981 0)
(-0.545656 0.128187 0)
(-0.578864 0.13685 0)
(-0.614429 0.145951 0)
(-0.652478 0.155904 0)
(-0.693215 0.16661 0)
(-0.737901 0.177865 0)
(-0.786033 0.189808 0)
(-0.835358 0.201975 0)
(-0.886439 0.214779 0)
(-0.941628 0.228409 0)
(-1.00194 0.242253 0)
(-1.0666 0.256223 0)
(-1.13827 0.271418 0)
(-1.21136 0.284226 0)
(-1.28349 0.298638 0)
(-1.36253 0.31671 0)
(-1.44821 0.33884 0)
(-1.53972 0.361969 0)
(-1.63691 0.384617 0)
(-1.73986 0.406949 0)
(-1.84891 0.429402 0)
(-1.96445 0.452149 0)
(-2.08663 0.475342 0)
(-2.2158 0.499128 0)
(-2.35199 0.522983 0)
(-2.497 0.548657 0)
(-2.64848 0.571155 0)
(-2.81056 0.596593 0)
(-2.98143 0.620137 0)
(-3.1537 0.631889 0)
(-3.33611 0.647231 0)
(-3.53622 0.671748 0)
(-3.75249 0.699865 0)
(-3.97789 0.725264 0)
(-4.21002 0.745636 0)
(-4.44209 0.761148 0)
(-4.70039 0.77079 0)
(-4.8831 0.7738 0)
(-5.16485 0.770723 0)
(-5.39648 0.761726 0)
(-5.6705 0.748618 0)
(-6.05061 0.728843 0)
(-6.28441 0.695687 0)
(-6.53036 0.646701 0)
(-6.77532 0.582549 0)
(-7.0018 0.503854 0)
(-7.20769 0.410889 0)
(-7.38772 0.304255 0)
(-7.53709 0.185255 0)
(-2.39583e-05 0.000441314 0)
(-0.000181481 0.00148755 0)
(-0.000462351 0.00288102 0)
(-0.00113439 0.00419329 0)
(-0.00200508 0.0057025 0)
(-0.0032354 0.00727907 0)
(-0.00471733 0.00903678 0)
(-0.00656801 0.010867 0)
(-0.00873567 0.012778 0)
(-0.0111511 0.0147751 0)
(-0.014189 0.0168164 0)
(-0.0174614 0.0189327 0)
(-0.0212069 0.020894 0)
(-0.0251702 0.0228257 0)
(-0.0297149 0.0246557 0)
(-0.0344855 0.0265505 0)
(-0.0397542 0.0283716 0)
(-0.0453536 0.0302793 0)
(-0.0510808 0.0321109 0)
(-0.0570998 0.0338497 0)
(-0.0637956 0.0354073 0)
(-0.0708813 0.0371145 0)
(-0.0783428 0.0385553 0)
(-0.0864063 0.0395275 0)
(-0.0952913 0.0403474 0)
(-0.104235 0.0420633 0)
(-0.113079 0.0437694 0)
(-0.122378 0.0451075 0)
(-0.13232 0.0463211 0)
(-0.142683 0.0476053 0)
(-0.154471 0.0491041 0)
(-0.16499 0.0506606 0)
(-0.178379 0.0527436 0)
(-0.189473 0.0546782 0)
(-0.204048 0.0574561 0)
(-0.216262 0.0599849 0)
(-0.230823 0.0633209 0)
(-0.244499 0.0667311 0)
(-0.258859 0.0707232 0)
(-0.274515 0.0751897 0)
(-0.288334 0.0793265 0)
(-0.307682 0.0860765 0)
(-0.318904 0.0887476 0)
(-0.344445 0.0983122 0)
(-0.351661 0.103021 0)
(-0.374328 0.109318 0)
(-0.39895 0.116371 0)
(-0.423006 0.123955 0)
(-0.448539 0.132043 0)
(-0.475891 0.140704 0)
(-0.504646 0.14991 0)
(-0.535228 0.160071 0)
(-0.567861 0.170903 0)
(-0.602153 0.181695 0)
(-0.638281 0.193561 0)
(-0.677066 0.20692 0)
(-0.718915 0.221131 0)
(-0.763083 0.237314 0)
(-0.809078 0.254063 0)
(-0.857867 0.271399 0)
(-0.910886 0.289681 0)
(-0.967788 0.306056 0)
(-1.02807 0.32266 0)
(-1.09339 0.346636 0)
(-1.16101 0.370639 0)
(-1.23046 0.380517 0)
(-1.30259 0.393182 0)
(-1.38276 0.420882 0)
(-1.47154 0.452324 0)
(-1.56501 0.481164 0)
(-1.66272 0.509221 0)
(-1.76625 0.537883 0)
(-1.87618 0.567246 0)
(-1.99272 0.59734 0)
(-2.11626 0.628205 0)
(-2.24459 0.65982 0)
(-2.3902 0.691945 0)
(-2.51204 0.724736 0)
(-2.71572 0.757773 0)
(-2.80235 0.790908 0)
(-3.06264 0.824506 0)
(-3.26968 0.859764 0)
(-3.47712 0.895158 0)
(-3.69566 0.927964 0)
(-3.92151 0.957174 0)
(-4.15256 0.982425 0)
(-4.39106 1.00388 0)
(-4.64181 1.01573 0)
(-4.9068 1.02312 0)
(-5.18041 1.02961 0)
(-5.45871 1.03211 0)
(-5.73263 1.03868 0)
(-5.99974 1.02297 0)
(-6.27273 0.970689 0)
(-6.55126 0.904081 0)
(-6.8209 0.82608 0)
(-7.07349 0.730018 0)
(-7.30527 0.613534 0)
(-7.51026 0.477123 0)
(-7.68099 0.321726 0)
(-2.48238e-05 0.00049695 0)
(-0.000164794 0.00177104 0)
(-0.000486586 0.00332106 0)
(-0.00109993 0.00494137 0)
(-0.00196289 0.00673017 0)
(-0.00313467 0.00863562 0)
(-0.00458018 0.0107044 0)
(-0.00639265 0.0128461 0)
(-0.00848139 0.0151086 0)
(-0.0109889 0.01735 0)
(-0.0138672 0.0196853 0)
(-0.0171542 0.0220626 0)
(-0.0207547 0.0244675 0)
(-0.0246927 0.0268857 0)
(-0.0290508 0.0292751 0)
(-0.0337604 0.0316544 0)
(-0.0389365 0.0339398 0)
(-0.0444079 0.0362481 0)
(-0.0502459 0.0384009 0)
(-0.0563307 0.0403807 0)
(-0.0630667 0.0421963 0)
(-0.0700908 0.0439135 0)
(-0.0775178 0.0455945 0)
(-0.0853268 0.0471879 0)
(-0.093583 0.048852 0)
(-0.102206 0.0507559 0)
(-0.111112 0.0525713 0)
(-0.120356 0.0542014 0)
(-0.130047 0.0558243 0)
(-0.140178 0.0576452 0)
(-0.150756 0.0596118 0)
(-0.161721 0.0617995 0)
(-0.173333 0.0642101 0)
(-0.184716 0.06677 0)
(-0.197917 0.0699117 0)
(-0.209768 0.0731704 0)
(-0.223839 0.0772304 0)
(-0.236575 0.0811559 0)
(-0.251329 0.0859059 0)
(-0.265499 0.0908112 0)
(-0.281325 0.0963824 0)
(-0.296784 0.10166 0)
(-0.313716 0.107928 0)
(-0.331664 0.114283 0)
(-0.350008 0.12054 0)
(-0.369932 0.129058 0)
(-0.390308 0.138568 0)
(-0.411052 0.147616 0)
(-0.434241 0.157479 0)
(-0.458851 0.167382 0)
(-0.484945 0.178285 0)
(-0.514686 0.19064 0)
(-0.54092 0.202823 0)
(-0.574256 0.216222 0)
(-0.612433 0.230742 0)
(-0.64654 0.246348 0)
(-0.686728 0.262976 0)
(-0.727367 0.280845 0)
(-0.76998 0.299634 0)
(-0.819572 0.319022 0)
(-0.865221 0.33904 0)
(-0.912537 0.360119 0)
(-0.978574 0.382542 0)
(-1.03893 0.406244 0)
(-1.08035 0.429988 0)
(-1.15669 0.454894 0)
(-1.27687 0.482318 0)
(-1.35812 0.511718 0)
(-1.44545 0.542167 0)
(-1.53942 0.573925 0)
(-1.63598 0.607298 0)
(-1.73781 0.642082 0)
(-1.84681 0.67808 0)
(-1.96324 0.715227 0)
(-2.08754 0.753426 0)
(-2.22005 0.793132 0)
(-2.36211 0.832426 0)
(-2.51327 0.875841 0)
(-2.6746 0.917506 0)
(-2.84734 0.961087 0)
(-3.02489 1.01649 0)
(-3.20668 1.06901 0)
(-3.40232 1.11218 0)
(-3.61497 1.14919 0)
(-3.84045 1.18455 0)
(-4.07595 1.21887 0)
(-4.32241 1.25044 0)
(-4.58117 1.27707 0)
(-4.85212 1.29937 0)
(-5.13336 1.31655 0)
(-5.42254 1.32505 0)
(-5.71631 1.32177 0)
(-6.01133 1.29784 0)
(-6.30807 1.25027 0)
(-6.60581 1.18397 0)
(-6.89814 1.09725 0)
(-7.17723 0.985316 0)
(-7.43618 0.845677 0)
(-7.66742 0.677966 0)
(-7.8614 0.483124 0)
(-2.56135e-05 0.000566031 0)
(-0.00015722 0.00202976 0)
(-0.00048256 0.00377793 0)
(-0.0010634 0.00567573 0)
(-0.00190765 0.00773323 0)
(-0.00302995 0.0099432 0)
(-0.0044429 0.0123072 0)
(-0.00619292 0.0147818 0)
(-0.00825113 0.0173733 0)
(-0.0106892 0.0200145 0)
(-0.0134698 0.0227459 0)
(-0.0166256 0.0255382 0)
(-0.0201504 0.0283473 0)
(-0.0240271 0.0311562 0)
(-0.0282938 0.0339202 0)
(-0.032969 0.0366319 0)
(-0.0379763 0.039288 0)
(-0.043402 0.0418827 0)
(-0.0491345 0.0443799 0)
(-0.0551869 0.0467574 0)
(-0.061774 0.0490206 0)
(-0.0686286 0.0512312 0)
(-0.0758693 0.0533683 0)
(-0.0835021 0.0554441 0)
(-0.0915283 0.0574918 0)
(-0.0999443 0.0595532 0)
(-0.108693 0.0616214 0)
(-0.117753 0.0636892 0)
(-0.127182 0.0658085 0)
(-0.137038 0.0680516 0)
(-0.147302 0.0704388 0)
(-0.158031 0.0730183 0)
(-0.169012 0.075771 0)
(-0.180548 0.0788624 0)
(-0.192593 0.0823404 0)
(-0.204694 0.0861179 0)
(-0.217748 0.0903977 0)
(-0.230629 0.0948456 0)
(-0.244642 0.0999098 0)
(-0.258677 0.105292 0)
(-0.273655 0.11128 0)
(-0.288913 0.117655 0)
(-0.305334 0.124636 0)
(-0.322375 0.132222 0)
(-0.340283 0.140358 0)
(-0.359486 0.149686 0)
(-0.379516 0.159596 0)
(-0.400474 0.16981 0)
(-0.423004 0.180779 0)
(-0.446681 0.192221 0)
(-0.472471 0.205118 0)
(-0.499611 0.218291 0)
(-0.5289 0.232758 0)
(-0.559632 0.248741 0)
(-0.592608 0.266131 0)
(-0.627822 0.283879 0)
(-0.665941 0.302603 0)
(-0.706789 0.322405 0)
(-0.75004 0.344089 0)
(-0.795937 0.366567 0)
(-0.845564 0.388922 0)
(-0.898843 0.41485 0)
(-0.954857 0.442551 0)
(-1.01718 0.465293 0)
(-1.08646 0.493173 0)
(-1.15568 0.535178 0)
(-1.22419 0.575695 0)
(-1.30114 0.605331 0)
(-1.38896 0.635135 0)
(-1.48236 0.670391 0)
(-1.57987 0.709128 0)
(-1.68333 0.749942 0)
(-1.79372 0.792748 0)
(-1.91121 0.83747 0)
(-2.03626 0.883962 0)
(-2.16938 0.932237 0)
(-2.31124 0.982042 0)
(-2.46229 1.03416 0)
(-2.62243 1.08762 0)
(-2.79239 1.1436 0)
(-2.97262 1.20184 0)
(-3.16227 1.25689 0)
(-3.36184 1.30863 0)
(-3.57351 1.36018 0)
(-3.7986 1.41188 0)
(-4.03712 1.46135 0)
(-4.28891 1.50661 0)
(-4.55403 1.54649 0)
(-4.83238 1.57992 0)
(-5.12304 1.60521 0)
(-5.4242 1.61971 0)
(-5.73336 1.62034 0)
(-6.04811 1.60239 0)
(-6.36734 1.56103 0)
(-6.68934 1.49372 0)
(-7.00885 1.39775 0)
(-7.31819 1.26926 0)
(-7.60896 1.10507 0)
(-7.87199 0.903527 0)
(-8.09575 0.664822 0)
(-2.53856e-05 0.000627328 0)
(-0.000148934 0.00228357 0)
(-0.00046866 0.00422974 0)
(-0.00102885 0.00637078 0)
(-0.00184265 0.00869273 0)
(-0.00292391 0.0111884 0)
(-0.00429132 0.0138534 0)
(-0.00597539 0.0166539 0)
(-0.00798497 0.0195729 0)
(-0.0103226 0.0225897 0)
(-0.0130339 0.0256669 0)
(-0.0160835 0.0288095 0)
(-0.0195204 0.0319619 0)
(-0.0233115 0.0351153 0)
(-0.0274577 0.0382464 0)
(-0.0320211 0.0413177 0)
(-0.0368669 0.0443553 0)
(-0.0421945 0.047289 0)
(-0.0477325 0.0501626 0)
(-0.0537373 0.05293 0)
(-0.0601358 0.0555952 0)
(-0.0668102 0.0581608 0)
(-0.0738822 0.0606304 0)
(-0.0813274 0.0630436 0)
(-0.0891264 0.0654287 0)
(-0.0972742 0.0678245 0)
(-0.105752 0.0702585 0)
(-0.114554 0.072726 0)
(-0.123714 0.0752423 0)
(-0.133257 0.0778601 0)
(-0.143207 0.0806301 0)
(-0.153454 0.0835837 0)
(-0.164147 0.086783 0)
(-0.175274 0.0903113 0)
(-0.186753 0.0941729 0)
(-0.198599 0.0983858 0)
(-0.210994 0.10304 0)
(-0.223636 0.108053 0)
(-0.237012 0.113633 0)
(-0.250665 0.119652 0)
(-0.265137 0.126284 0)
(-0.280033 0.133377 0)
(-0.295913 0.141174 0)
(-0.312415 0.149582 0)
(-0.329895 0.158702 0)
(-0.348467 0.168694 0)
(-0.367888 0.179406 0)
(-0.388511 0.190996 0)
(-0.410335 0.203394 0)
(-0.433438 0.216516 0)