/*--------------------------------*- C++ -*----------------------------------*\
| =========                 |                                                 |
| \\      /  F ield         | OpenFOAM: The Open Source CFD Toolbox           |
|  \\    /   O peration     | Version:  2206                                  |
|   \\  /    A nd           | Website:  www.openfoam.com                      |
|    \\/     M anipulation  |                                                 |
\*---------------------------------------------------------------------------*/
FoamFile
{
    version     2.0;
    format      ascii;
    arch        "LSB;label=32;scalar=64";
    class       volVectorField;
    location    "19.2";
    object      ddt0(U);
}
// * * * * * * * * * * * * * * * * * * * * * * * * * * * * * * * * * * * * * //

dimensions      [0 1 -2 0 0 0 0];

internalField   nonuniform List<vector> 
1877
(
(1.72521 22.6532 0)
(-0.776215 21.4805 0)
(-3.14114 19.5944 0)
(-5.24458 17.0803 0)
(-6.9705 14.087 0)
(-8.28724 10.7914 0)
(-9.35037 7.32203 0)
(-10.2865 3.72761 0)
(-10.8389 0.126016 0)
(-11.2266 -3.42927 0)
(-11.3169 -6.91529 0)
(-11.0597 -10.1332 0)
(-10.5306 -12.9721 0)
(-9.79042 -15.3955 0)
(-8.84544 -17.3777 0)
(-7.63021 -18.8078 0)
(-6.04588 -19.3601 0)
(-4.28452 -19.2395 0)
(-2.42087 -18.4732 0)
(-0.530601 -17.1114 0)
(1.29798 -15.2242 0)
(2.96763 -12.9165 0)
(4.42068 -10.3323 0)
(5.73876 -7.5971 0)
(7.06584 -4.70652 0)
(8.09982 -1.72497 0)
(8.94977 1.08997 0)
(9.55439 3.82634 0)
(9.79003 6.41876 0)
(9.64512 8.74399 0)
(9.17555 10.7694 0)
(8.42793 12.488 0)
(7.41892 13.861 0)
(6.13747 14.7567 0)
(4.6342 15.0902 0)
(3.03347 14.9309 0)
(1.42037 14.2822 0)
(-0.154172 13.1723 0)
(-1.61467 11.6542 0)
(-2.87847 9.81521 0)
(-3.89206 7.76869 0)
(-4.70683 5.61702 0)
(-5.46221 3.38557 0)
(-6.03009 1.11844 0)
(-6.46318 -1.07604 0)
(-6.75964 -3.26649 0)
(-6.82642 -5.34569 0)
(-6.68652 -7.20943 0)
(-6.39402 -8.82702 0)
(-5.97488 -10.192 0)
(-5.41453 -11.275 0)
(-4.64515 -11.9359 0)
(-3.68517 -12.1024 0)
(-2.63328 -11.8657 0)
(-1.52472 -11.2379 0)
(-0.408598 -10.2495 0)
(0.651707 -8.94767 0)
(1.58692 -7.411 0)
(2.3632 -5.75066 0)
(3.08234 -4.05056 0)
(3.85242 -2.25513 0)
(4.44934 -0.421873 0)
(4.99871 1.32451 0)
(5.39567 3.04394 0)
(5.57232 4.63961 0)
(5.54401 6.04981 0)
(5.34233 7.27219 0)
(4.971 8.29135 0)
(4.41874 9.05829 0)
(3.66003 9.4388 0)
(2.77577 9.48557 0)
(1.83923 9.20919 0)
(0.888617 8.62506 0)
(-0.0312921 7.76322 0)
(-0.863451 6.67274 0)
(-1.55658 5.42652 0)
(-2.1015 4.10884 0)
(-2.59148 2.76352 0)
(-3.05712 1.36333 0)
(-3.39149 -0.0180417 0)
(-3.68052 -1.36086 0)
(-3.85177 -2.67188 0)
(-3.88463 -3.87455 0)
(-3.8074 -4.92977 0)
(-3.64556 -5.8333 0)
(-3.40339 -6.58107 0)
(-3.05753 -7.13446 0)
(-2.56446 -7.37243 0)
(-1.99292 -7.35833 0)
(-1.37098 -7.10024 0)
(-0.723783 -6.61025 0)
(-0.0849768 -5.90949 0)
(0.50056 -5.03369 0)
(0.987237 -4.04459 0)
(1.36928 -3.02261 0)
(1.76071 -2.00781 0)
(2.17233 -0.92433 0)
(2.49936 0.15727 0)
(2.80079 1.21016 0)
(3.00249 2.2231 0)
(3.08985 3.13998 0)
(3.0785 3.94371 0)
(2.97816 4.63358 0)
(2.78014 5.1923 0)
(2.46454 5.5705 0)
(2.02675 5.69774 0)
(1.5241 5.6265 0)
(0.994297 5.35842 0)
(0.460231 4.90649 0)
(-0.0450026 4.29362 0)
(-0.484159 3.55928 0)
(-0.830844 2.75826 0)
(-1.10654 1.94177 0)
(-1.39146 1.10961 0)
(-1.62326 0.242545 0)
(-1.81073 -0.595646 0)
(-1.95154 -1.42548 0)
(-2.00555 -2.21127 0)
(-1.97951 -2.91603 0)
(-1.89179 -3.52904 0)
(-1.75114 -4.07463 0)
(-1.54673 -4.48159 0)
(-1.21257 -4.74425 0)
(-0.936168 -4.90749 0)
(-0.27773 -4.71107 0)
(1.745 25.0985 0)
(-0.451129 23.8784 0)
(-2.56205 21.8015 0)
(-4.428 18.9456 0)
(-5.8807 15.5092 0)
(-6.80048 11.786 0)
(-7.28416 8.06336 0)
(-7.80185 4.37454 0)
(-8.23115 0.607484 0)
(-8.52915 -3.1833 0)
(-8.63922 -6.99556 0)
(-8.40991 -10.4984 0)
(-7.965 -13.5588 0)
(-7.37119 -16.1699 0)
(-6.64557 -18.3174 0)
(-5.7849 -19.9622 0)
(-4.68429 -20.8819 0)
(-3.34876 -20.8812 0)
(-1.91412 -20.1798 0)
(-0.43947 -18.8005 0)
(1.0045 -16.8079 0)
(2.31846 -14.3135 0)
(3.38863 -11.484 0)
(4.13371 -8.52879 0)
(4.73939 -5.62444 0)
(5.5367 -2.65859 0)
(6.13467 0.329021 0)
(6.72872 3.31161 0)
(7.0482 6.25194 0)
(7.04006 8.90306 0)
(6.79507 11.2004 0)
(6.35353 13.1434 0)
(5.74161 14.7236 0)
(4.96244 15.9093 0)
(3.95039 16.4905 0)
(2.7483 16.4162 0)
(1.47092 15.7987 0)
(0.164857 14.64 0)
(-1.08979 12.9767 0)
(-2.18292 10.9044 0)
(-3.004 8.58423 0)
(-3.4946 6.21556 0)
(-3.85256 3.92638 0)
(-4.30625 1.61381 0)
(-4.63266 -0.677958 0)
(-4.93425 -3.07505 0)
(-4.99716 -5.37272 0)
(-4.86822 -7.40647 0)
(-4.62453 -9.16454 0)
(-4.28497 -10.6429 0)
(-3.86556 -11.831 0)
(-3.34713 -12.6845 0)
(-2.66604 -12.9985 0)
(-1.88332 -12.8286 0)
(-1.05134 -12.2288 0)
(-0.206048 -11.2138 0)
(0.603911 -9.82564 0)
(1.31062 -8.14979 0)
(1.83723 -6.31489 0)
(2.14239 -4.48305 0)
(2.44081 -2.75722 0)
(2.86751 -0.951152 0)
(3.21216 0.866565 0)
(3.54777 2.75679 0)
(3.69138 4.54103 0)
(3.68665 6.11061 0)
(3.58035 7.46527 0)
(3.3783 8.5959 0)
(3.08827 9.49732 0)
(2.68295 10.119 0)
(2.11526 10.2613 0)
(1.45954 10.047 0)
(0.757599 9.47895 0)
(0.0404776 8.57494 0)
(-0.635459 7.38037 0)
(-1.19969 5.98343 0)
(-1.58427 4.50791 0)
(-1.79798 3.08305 0)
(-2.06599 1.71601 0)
(-2.31457 0.287492 0)
(-2.54329 -1.12932 0)
(-2.69829 -2.57169 0)
(-2.70883 -3.89931 0)
(-2.62671 -5.05461 0)
(-2.47894 -6.04067 0)
(-2.27546 -6.85183 0)
(-2.02379 -7.47947 0)
(-1.69219 -7.85815 0)
(-1.27182 -7.89217 0)
(-0.809929 -7.66499 0)
(-0.328494 -7.17595 0)
(0.148744 -6.43924 0)
(0.586325 -5.49282 0)
(0.941938 -4.40742 0)
(1.17021 -3.27902 0)
(1.28251 -2.21104 0)
(1.48326 -1.19781 0)
(1.6554 -0.105298 0)
(1.83921 1.00565 0)
(1.96313 2.11472 0)
(1.99086 3.12535 0)
(1.95692 4.00645 0)
(1.87397 4.75715 0)
(1.74579 5.37199 0)
(1.57019 5.84313 0)
(1.3171 6.09657 0)
(0.986785 6.06948 0)
(0.623151 5.82646 0)
(0.23915 5.36851 0)
(-0.141494 4.7137 0)
(-0.481864 3.90533 0)
(-0.741975 3.01216 0)
(-0.891445 2.11502 0)
(-0.989796 1.27147 0)
(-1.15186 0.42363 0)
(-1.26699 -0.44183 0)
(-1.37922 -1.34411 0)
(-1.40574 -2.21385 0)
(-1.35771 -2.98941 0)
(-1.26143 -3.66356 0)
(-1.12315 -4.25472 0)
(-0.956695 -4.72927 0)
(-0.697143 -5.06778 0)
(-0.481025 -5.27002 0)
(0.0298282 -5.12097 0)
(0.878231 27.0798 0)
(-0.824962 25.8887 0)
(-2.38441 23.6654 0)
(-3.69996 20.4732 0)
(-4.6565 16.5509 0)
(-5.12702 12.3066 0)
(-5.01818 8.24891 0)
(-4.82131 4.70351 0)
(-5.13716 0.998088 0)
(-5.46825 -3.04139 0)
(-5.74059 -7.1059 0)
(-5.60165 -10.811 0)
(-5.31796 -14.0256 0)
(-4.96303 -16.7504 0)
(-4.51458 -18.9913 0)
(-3.99208 -20.7553 0)
(-3.34779 -21.9158 0)
(-2.50574 -22.041 0)
(-1.53565 -21.431 0)
(-0.480883 -20.0823 0)
(0.611871 -18.0277 0)
(1.65212 -15.3597 0)
(2.51176 -12.2635 0)
(3.0338 -9.01391 0)
(3.12169 -5.95206 0)
(3.30291 -3.24249 0)
(3.77163 -0.22724 0)
(4.3649 2.96774 0)
(4.72872 6.12799 0)
(4.73094 8.98794 0)
(4.58681 11.4659 0)
(4.32518 13.5547 0)
(3.93366 15.2508 0)
(3.42569 16.557 0)
(2.75529 17.3744 0)
(1.90295 17.4344 0)
(0.98371 16.9184 0)
(0.0395442 15.7899 0)
(-0.877192 14.0513 0)
(-1.67895 11.7806 0)
(-2.25655 9.16625 0)
(-2.48251 6.49862 0)
(-2.34409 4.11264 0)
(-2.45391 1.99899 0)
(-2.70038 -0.409425 0)
(-3.11213 -2.95538 0)
(-3.19567 -5.39759 0)
(-3.09392 -7.56242 0)
(-2.9512 -9.41836 0)
(-2.74915 -10.9641 0)
(-2.49271 -12.2102 0)
(-2.19 -13.1473 0)
(-1.79128 -13.6156 0)
(-1.29111 -13.5023 0)
(-0.732288 -12.9439 0)
(-0.131231 -11.9331 0)
(0.479593 -10.4908 0)
(1.03309 -8.68842 0)
(1.44137 -6.67212 0)
(1.59501 -4.65548 0)
(1.48992 -2.88636 0)
(1.64057 -1.28749 0)
(1.90625 0.604262 0)
(2.25709 2.59974 0)
(2.33666 4.48044 0)
(2.29331 6.1438 0)
(2.21711 7.57911 0)
(2.08408 8.77624 0)
(1.89774 9.73524 0)
(1.65437 10.4335 0)
(1.31147 10.7282 0)
(0.880606 10.5833 0)
(0.407402 10.074 0)
(-0.0951986 9.18664 0)
(-0.587424 7.9419 0)
(-1.00138 6.42008 0)
(-1.25547 4.77165 0)
(-1.26714 3.2002 0)
(-1.17046 1.88497 0)
(-1.34615 0.536976 0)
(-1.53384 -0.984886 0)
(-1.71696 -2.51781 0)
(-1.70672 -3.9275 0)
(-1.63004 -5.15282 0)
(-1.52781 -6.18842 0)
(-1.38832 -7.03563 0)
(-1.22352 -7.70281 0)
(-1.02313 -8.15753 0)
(-0.761347 -8.25125 0)
(-0.456381 -8.0567 0)
(-0.124572 -7.58452 0)
(0.223114 -6.83778 0)
(0.558444 -5.84202 0)
(0.835864 -4.66497 0)
(0.998094 -3.42195 0)
(0.983136 -2.26432 0)
(0.927102 -1.30861 0)
(1.06023 -0.257557 0)
(1.21856 0.915309 0)
(1.32293 2.07565 0)
(1.30327 3.13376 0)
(1.24697 4.05791 0)
(1.16993 4.84233 0)
(1.06511 5.48426 0)
(0.938112 5.98281 0)
(0.774735 6.29972 0)
(0.557494 6.31681 0)
(0.309719 6.11488 0)
(0.0375246 5.6841 0)
(-0.245222 5.02813 0)
(-0.505379 4.17802 0)
(-0.698484 3.20521 0)
(-0.775164 2.21581 0)
(-0.717573 1.32868 0)
(-0.733932 0.555675 0)
(-0.818524 -0.345082 0)
(-0.95343 -1.30123 0)
(-0.967594 -2.22078 0)
(-0.904541 -3.04513 0)
(-0.820017 -3.7627 0)
(-0.708675 -4.37981 0)
(-0.585638 -4.88964 0)
(-0.402777 -5.28372 0)
(-0.253304 -5.52586 0)
(0.111404 -5.41938 0)
(0.248562 28.622 0)
(-0.492592 27.1962 0)
(-1.09242 24.7293 0)
(-1.60358 21.2553 0)
(-2.01787 16.9569 0)
(-2.24768 12.2486 0)
(-2.06277 7.76831 0)
(-1.93939 4.044 0)
(-1.92555 1.6225 0)
(-2.42288 -2.41083 0)
(-2.89902 -7.01113 0)
(-2.94818 -10.8453 0)
(-2.89415 -14.1894 0)
(-2.79321 -17.0093 0)
(-2.59595 -19.3221 0)
(-2.355 -21.1529 0)
(-2.08277 -22.4184 0)
(-1.72244 -22.748 0)
(-1.257 -22.2536 0)
(-0.70686 -21.0153 0)
(-0.0792848 -19.0082 0)
(0.571997 -16.2605 0)
(1.13552 -12.9122 0)
(1.45822 -9.27686 0)
(1.33914 -5.8389 0)
(1.29789 -2.98601 0)
(1.40467 -1.19552 0)
(1.94299 2.3911 0)
(2.31332 5.97185 0)
(2.35743 8.97991 0)
(2.32841 11.6122 0)
(2.2428 13.8338 0)
(2.06397 15.6606 0)
(1.80481 17.1156 0)
(1.45496 18.1024 0)
(1.02405 18.2346 0)
(0.621233 17.7096 0)
(0.243476 16.5483 0)
(-0.125959 14.7356 0)
(-0.47562 12.3048 0)
(-0.760459 9.41345 0)
(-0.885422 6.39429 0)
(-0.720752 3.72145 0)
(-0.724053 1.73964 0)
(-0.848061 0.620744 0)
(-1.28431 -2.88838 0)
(-1.46539 -5.39502 0)
(-1.48335 -7.61043 0)
(-1.48832 -9.53033 0)
(-1.44962 -11.1267 0)
(-1.35782 -12.4121 0)
(-1.23576 -13.3908 0)
(-1.07558 -13.9521 0)
(-0.856966 -13.908 0)
(-0.583778 -13.4227 0)
(-0.266238 -12.4664 0)
(0.0831764 -11.0229 0)
(0.420726 -9.12604 0)
(0.671347 -6.90367 0)
(0.735868 -4.62139 0)
(0.575875 -2.6561 0)
(0.585546 -1.24732 0)
(0.699612 -0.165278 0)
(0.990485 2.5757 0)
(1.03762 4.494 0)
(1.00482 6.20793 0)
(0.980532 7.69561 0)
(0.929403 8.93877 0)
(0.847801 9.95046 0)
(0.734542 10.7178 0)
(0.568431 11.0912 0)
(0.376852 10.9719 0)
(0.191326 10.4817 0)
(-0.00145193 9.59461 0)
(-0.198081 8.30169 0)
(-0.374255 6.65323 0)
(-0.489465 4.80353 0)
(-0.470743 3.0175 0)
(-0.376057 1.59744 0)
(-0.36806 0.758155 0)
(-0.506836 -0.632378 0)
(-0.691852 -2.51978 0)
(-0.723789 -3.96698 0)
(-0.715509 -5.23498 0)
(-0.699777 -6.30363 0)
(-0.655401 -7.17347 0)
(-0.59243 -7.85653 0)
(-0.517569 -8.33387 0)
(-0.415903 -8.47632 0)
(-0.275919 -8.31629 0)
(-0.110838 -7.87894 0)
(0.0756707 -7.14538 0)
(0.269141 -6.1186 0)
(0.436685 -4.84857 0)
(0.529503 -3.46038 0)
(0.478785 -2.15724 0)
(0.451486 -1.10765 0)
(0.432829 -0.558179 0)
(0.554212 0.750377 0)
(0.636636 2.08956 0)
(0.617366 3.18721 0)
(0.581738 4.14805 0)
(0.540893 4.95828 0)
(0.483166 5.62348 0)
(0.410828 6.15163 0)
(0.316329 6.50766 0)
(0.192964 6.55592 0)
(0.0679238 6.36553 0)
(-0.0575493 5.94128 0)
(-0.183764 5.26864 0)
(-0.297829 4.35875 0)
(-0.379089 3.27873 0)
(-0.400298 2.16183 0)
(-0.318467 1.17667 0)
(-0.306691 0.409462 0)
(-0.307764 0.00715087 0)
(-0.410637 -1.3115 0)
(-0.428958 -2.28261 0)
(-0.393237 -3.13021 0)
(-0.352918 -3.87755 0)
(-0.299567 -4.50412 0)
(-0.239925 -5.03343 0)
(-0.14986 -5.45324 0)
(-0.0829879 -5.7107 0)
(0.0946067 -5.63603 0)
(0.906452 28.8203 0)
(0.975973 27.3438 0)
(0.955979 24.8979 0)
(0.8316 21.4967 0)
(0.603828 17.2586 0)
(0.306382 12.5326 0)
(0.0439994 7.91461 0)
(-0.0694178 4.09417 0)
(-0.18644 1.90952 0)
(-0.48851 -1.94327 0)
(-0.806715 -6.8891 0)
(-0.948518 -10.7258 0)
(-1.04098 -14.1464 0)
(-1.09976 -17.0391 0)
(-1.08594 -19.3942 0)
(-1.03954 -21.234 0)
(-0.923528 -22.5082 0)
(-0.693753 -22.8869 0)
(-0.464631 -22.4338 0)
(-0.255465 -21.2616 0)
(-0.077659 -19.3163 0)
(0.069763 -16.579 0)
(0.176216 -13.1557 0)
(0.223488 -9.36224 0)
(0.168175 -5.73332 0)
(0.0219804 -2.87474 0)
(-0.0296345 -1.43107 0)
(0.0439295 2.12019 0)
(0.0852839 5.8406 0)
(0.0961793 8.86796 0)
(0.127109 11.5374 0)
(0.176178 13.788 0)
(0.240255 15.6395 0)
(0.332501 17.1121 0)
(0.463654 18.1081 0)
(0.641508 18.2426 0)
(0.764498 17.7202 0)
(0.820752 16.5869 0)
(0.804072 14.8262 0)
(0.713463 12.4616 0)
(0.558875 9.61987 0)
(0.368136 6.59688 0)
(0.20735 3.83831 0)
(0.121153 1.8328 0)
(0.0133753 0.786471 0)
(-0.216687 -2.62708 0)
(-0.411874 -5.22399 0)
(-0.533558 -7.47441 0)
(-0.626894 -9.44284 0)
(-0.688985 -11.0835 0)
(-0.705315 -12.4054 0)
(-0.670805 -13.4114 0)
(-0.570638 -14.0097 0)
(-0.445631 -13.988 0)
(-0.325098 -13.5295 0)
(-0.213259 -12.607 0)
(-0.11502 -11.1899 0)
(-0.0351212 -9.28485 0)
(0.0225345 -7.0105 0)
(0.0462542 -4.65071 0)
(0.01035 -2.60129 0)
(-0.0463953 -1.25736 0)
(-0.0325651 -0.304784 0)
(0.0065254 2.51933 0)
(0.0039 4.42758 0)
(0.00699724 6.1472 0)
(0.030045 7.63985 0)
(0.0657226 8.8852 0)
(0.119055 9.9013 0)
(0.195675 10.6782 0)
(0.306052 11.0679 0)
(0.400258 10.952 0)
(0.463726 10.4706 0)
(0.49511 9.60458 0)
(0.484722 8.34496 0)
(0.435601 6.73477 0)
(0.353688 4.91441 0)
(0.257093 3.1262 0)
(0.183162 1.65456 0)
(0.139497 0.762022 0)
(0.0408874 -0.508832 0)
(-0.0981651 -2.41117 0)
(-0.196312 -3.86321 0)
(-0.278517 -5.14965 0)
(-0.350071 -6.23952 0)
(-0.399186 -7.12935 0)
(-0.419049 -7.83023 0)
(-0.401435 -8.32888 0)
(-0.338147 -8.50605 0)
(-0.275153 -8.35772 0)
(-0.206964 -7.93747 0)
(-0.142504 -7.22461 0)
(-0.0851955 -6.2107 0)
(-0.035959 -4.93225 0)
(0.00148369 -3.51239 0)
(0.0122328 -2.16453 0)
(-0.00505505 -1.11739 0)
(-0.00655237 -0.568577 0)
(0.0101086 0.70049 0)
(0.0128834 2.04527 0)
(0.0116842 3.14788 0)
(0.0175741 4.11404 0)
(0.0290196 4.92607 0)
(0.0476132 5.59306 0)
(0.0786454 6.12615 0)
(0.12674 6.49214 0)
(0.191457 6.55233 0)
(0.236444 6.36548 0)
(0.267541 5.94799 0)
(0.278548 5.28648 0)
(0.269093 4.39159 0)
(0.240663 3.32563 0)
(0.197131 2.21242 0)
(0.155713 1.20535 0)
(0.122027 0.444295 0)
(0.0924189 0.00709086 0)
(0.0260444 -1.26492 0)
(-0.0403651 -2.23599 0)
(-0.0957681 -3.08893 0)
(-0.144681 -3.84809 0)
(-0.184154 -4.48388 0)
(-0.208397 -5.02572 0)
(-0.209086 -5.45823 0)
(-0.187659 -5.72177 0)
(-0.135758 -5.67301 0)
(0.0515354 -5.78385 0)
(0.0951595 -5.73436 0)
(-0.911297 0.455777 0)
(-1.82036 0.415962 0)
(-2.65343 0.36469 0)
(-3.3781 0.304641 0)
(-3.97145 0.237443 0)
(-4.41679 0.165283 0)
(-4.70379 0.0904819 0)
(-4.82675 0.0140256 0)
(-4.78577 -0.0608985 0)
(-4.59029 -0.130207 0)
(-4.2521 -0.192308 0)
(-3.78876 -0.245712 0)
(-3.21995 -0.289406 0)
(-2.56635 -0.32274 0)
(-1.84601 -0.344561 0)
(-1.0738 -0.361878 0)
(-0.35246 -0.423522 0)
(0.348412 -0.369772 0)
(1.05524 -0.33107 0)
(1.7076 -0.292294 0)
(2.28531 -0.250503 0)
(2.77702 -0.205514 0)
(3.17311 -0.157704 0)
(3.46621 -0.107989 0)
(3.65176 -0.0569922 0)
(3.72574 -0.00469197 0)
(3.68778 0.0473881 0)
(3.54108 0.0971106 0)
(3.29036 0.143621 0)
(2.94383 0.185845 0)
(2.51157 0.22257 0)
(2.00533 0.25296 0)
(1.43648 0.27614 0)
(0.815718 0.296374 0)
(0.225229 0.34972 0)
(-0.35463 0.306047 0)
(-0.947434 0.274344 0)
(-1.49414 0.241979 0)
(-1.97554 0.205376 0)
(-2.37865 0.164614 0)
(-2.69259 0.120676 0)
(-2.91005 0.0748761 0)
(-3.02758 0.0277713 0)
(-3.04199 -0.0191529 0)
(-2.95952 -0.0635875 0)
(-2.78469 -0.104117 0)
(-2.5272 -0.139764 0)
(-2.19812 -0.169802 0)
(-1.80964 -0.193594 0)
(-1.37369 -0.210628 0)
(-0.899974 -0.221923 0)
(-0.435213 -0.245031 0)
(0.025966 -0.240927 0)
(0.475913 -0.215866 0)
(0.903814 -0.194836 0)
(1.29029 -0.169485 0)
(1.62495 -0.141544 0)
(1.90032 -0.111447 0)
(2.11076 -0.0797793 0)
(2.25269 -0.047245 0)
(2.32384 -0.0138582 0)
(2.32253 0.0195382 0)
(2.25189 0.0515231 0)
(2.11435 0.0813901 0)
(1.91523 0.108431 0)
(1.66098 0.132008 0)
(1.35915 0.151594 0)
(1.01755 0.166645 0)
(0.643829 0.177094 0)
(0.274405 0.191578 0)
(-0.0937531 0.191938 0)
(-0.456945 0.173529 0)
(-0.801864 0.155275 0)
(-1.11124 0.134009 0)
(-1.37549 0.109939 0)
(-1.58741 0.0836762 0)
(-1.74177 0.0560254 0)
(-1.83577 0.0275314 0)
(-1.86737 -0.00127048 0)
(-1.83826 -0.0291509 0)
(-1.75135 -0.0549601 0)
(-1.61135 -0.0781316 0)
(-1.42453 -0.0981125 0)
(-1.19796 -0.114518 0)
(-0.939265 -0.126688 0)
(-0.655447 -0.133538 0)
(-0.361571 -0.138791 0)
(-0.0693864 -0.152527 0)
(0.210465 -0.138463 0)
(0.484325 -0.127063 0)
(0.73637 -0.112212 0)
(0.958526 -0.0955305 0)
(1.1455 -0.0773254 0)
(1.29324 -0.0579895 0)
(1.39905 -0.0379805 0)
(1.46154 -0.0174414 0)
(1.47908 0.00318252 0)
(1.45367 0.0230603 0)
(1.38667 0.0416252 0)
(1.28138 0.0584717 0)
(1.14184 0.0731955 0)
(0.97286 0.0854627 0)
(0.779828 0.0949675 0)
(0.568004 0.101343 0)
(0.343278 0.105743 0)
(0.126884 0.118332 0)
(-0.0824282 0.104625 0)
(-0.286646 0.0925654 0)
(-0.47125 0.0798961 0)
(-0.629543 0.0656612 0)
(-0.757059 0.0500378 0)
(-0.850352 0.0334377 0)
(-0.907369 0.0163223 0)
(-0.927043 -0.00111229 0)
(-0.909058 -0.0182629 0)
(-0.855686 -0.0342479 0)
(-0.769237 -0.0485772 0)
(-0.653657 -0.0608008 0)
(-0.513682 -0.0704429 0)
(-0.354767 -0.0767928 0)
(-0.183216 -0.0784909 0)
(-0.00778844 -0.0768551 0)
(0.155265 -0.07725 0)
(0.308683 -0.0567573 0)
(0.400121 -0.0237767 0)
(-1.53368 1.43373 0)
(-2.46794 1.31683 0)
(-3.30691 1.1594 0)
(-4.02092 0.966326 0)
(-4.58457 0.745481 0)
(-4.98092 0.506275 0)
(-5.20279 0.258187 0)
(-5.23693 0.00776164 0)
(-5.10352 -0.235074 0)
(-4.80498 -0.459165 0)
(-4.35957 -0.657865 0)
(-3.78915 -0.826041 0)
(-3.11782 -0.959758 0)
(-2.37177 -1.05705 0)
(-1.58215 -1.12239 0)
(-0.786182 -1.17709 0)
(0.0736719 -1.19902 0)
(0.888189 -1.1255 0)
(1.60342 -1.03064 0)
(2.25207 -0.917883 0)
(2.81806 -0.787563 0)
(3.28504 -0.642578 0)
(3.64334 -0.486458 0)
(3.88735 -0.323054 0)
(4.01403 -0.155578 0)
(4.01768 0.0140244 0)
(3.90834 0.181395 0)
(3.68548 0.340853 0)
(3.35729 0.488664 0)
(2.9339 0.621106 0)
(2.42809 0.734763 0)
(1.85512 0.826179 0)
(1.23623 0.895059 0)
(0.600465 0.95401 0)
(-0.0996057 0.98997 0)
(-0.775682 0.935858 0)
(-1.37446 0.86139 0)
(-1.92117 0.766644 0)
(-2.39699 0.651238 0)
(-2.78361 0.518473 0)
(-3.06944 0.373294 0)
(-3.2485 0.221272 0)
(-3.31475 0.0663604 0)
(-3.27228 -0.0860714 0)
(-3.12724 -0.229652 0)
(-2.88646 -0.359792 0)
(-2.56217 -0.473218 0)
(-2.16814 -0.56719 0)
(-1.7195 -0.639716 0)
(-1.2337 -0.691056 0)
(-0.732758 -0.729989 0)
(-0.201767 -0.755835 0)
(0.324061 -0.727125 0)
(0.802401 -0.677989 0)
(1.23664 -0.613102 0)
(1.62114 -0.5349 0)
(1.94529 -0.445409 0)
(2.20128 -0.347238 0)
(2.38424 -0.243177 0)
(2.4924 -0.135988 0)
(2.52119 -0.0270936 0)
(2.47608 0.0806354 0)
(2.35814 0.183473 0)
(2.17186 0.278872 0)
(1.92403 0.364554 0)
(1.6227 0.438304 0)
(1.2771 0.498128 0)
(0.89825 0.543173 0)
(0.501011 0.577258 0)
(0.0893962 0.60688 0)
(-0.324974 0.585274 0)
(-0.712647 0.545185 0)
(-1.06298 0.491534 0)
(-1.37081 0.424843 0)
(-1.62651 0.346963 0)
(-1.82254 0.260657 0)
(-1.95441 0.169119 0)
(-2.01918 0.0750647 0)
(-2.01553 -0.0188741 0)
(-1.94923 -0.109088 0)
(-1.82235 -0.192162 0)
(-1.64158 -0.26596 0)
(-1.41471 -0.328746 0)
(-1.15027 -0.378972 0)
(-0.857682 -0.416139 0)
(-0.54755 -0.444697 0)
(-0.227062 -0.462725 0)
(0.0989994 -0.458177 0)
(0.409993 -0.434637 0)
(0.691632 -0.398892 0)
(0.944447 -0.353873 0)
(1.16208 -0.300859 0)
(1.33882 -0.241584 0)
(1.47093 -0.177995 0)
(1.55668 -0.111991 0)
(1.59403 -0.0447443 0)
(1.58423 0.0220855 0)
(1.5295 0.0861816 0)
(1.43191 0.145708 0)
(1.29581 0.199352 0)
(1.12611 0.245807 0)
(0.928651 0.283746 0)
(0.709991 0.312163 0)
(0.478189 0.331076 0)
(0.243968 0.344355 0)
(-0.0056078 0.350534 0)
(-0.242778 0.324764 0)
(-0.450271 0.293076 0)
(-0.634208 0.254236 0)
(-0.788554 0.208478 0)
(-0.907818 0.157257 0)
(-0.988616 0.102379 0)
(-1.02952 0.0456876 0)
(-1.02821 -0.0115088 0)
(-0.988228 -0.0671511 0)
(-0.910658 -0.118835 0)
(-0.798976 -0.164912 0)
(-0.658007 -0.204024 0)
(-0.493123 -0.234494 0)
(-0.310626 -0.255306 0)
(-0.119171 -0.267098 0)
(0.0784602 -0.268285 0)
(0.268982 -0.250336 0)
(0.451185 -0.216657 0)
(0.599512 -0.110135 0)
(-1.64256 2.45036 0)
(-2.69782 2.26334 0)
(-3.64383 1.99428 0)
(-4.44834 1.65593 0)
(-5.08357 1.26451 0)
(-5.53051 0.838601 0)
(-5.78201 0.396215 0)
(-5.8186 -0.0465612 0)
(-5.67021 -0.471604 0)
(-5.33857 -0.862617 0)
(-4.84469 -1.20753 0)
(-4.21323 -1.49685 0)
(-3.47084 -1.72406 0)
(-2.64593 -1.88827 0)
(-1.76677 -1.99693 0)
(-0.859123 -2.0497 0)
(0.0687434 -1.99118 0)
(0.948518 -1.8913 0)
(1.75347 -1.7502 0)
(2.47704 -1.562 0)
(3.10391 -1.33634 0)
(3.62033 -1.08207 0)
(4.01687 -0.807218 0)
(4.28817 -0.51948 0)
(4.43167 -0.225076 0)
(4.43855 0.0707001 0)
(4.3235 0.360552 0)
(4.08415 0.636282 0)
(3.729 0.890938 0)
(3.26917 1.11788 0)
(2.71769 1.31065 0)
(2.08978 1.46439 0)
(1.40401 1.57845 0)
(0.678921 1.65049 0)
(-0.0811639 1.64403 0)
(-0.816527 1.57985 0)
(-1.49865 1.47305 0)
(-2.11641 1.3162 0)
(-2.65097 1.11591 0)
(-3.08474 0.881608 0)
(-3.40497 0.623777 0)
(-3.60591 0.353256 0)
(-3.67892 0.0788915 0)
(-3.63081 -0.189005 0)
(-3.46959 -0.440146 0)
(-3.20297 -0.666416 0)
(-2.84477 -0.861915 0)
(-2.40997 -1.02229 0)
(-1.9146 -1.14497 0)
(-1.3754 -1.23253 0)
(-0.80788 -1.2873 0)
(-0.221712 -1.28412 0)
(0.34711 -1.22983 0)
(0.878781 -1.154 0)
(1.36404 -1.04698 0)
(1.79157 -0.911991 0)
(2.15092 -0.754945 0)
(2.43432 -0.58163 0)
(2.63686 -0.397816 0)
(2.75738 -0.208783 0)
(2.78939 -0.0181278 0)
(2.74106 0.169059 0)
(2.61304 0.34714 0)
(2.41012 0.511799 0)
(2.13949 0.659129 0)
(1.80965 0.785261 0)
(1.43039 0.886757 0)
(1.01337 0.962115 0)
(0.571467 1.01381 0)
(0.109209 1.03789 0)
(-0.350966 0.998293 0)
(-0.781812 0.931734 0)
(-1.17512 0.842188 0)
(-1.52026 0.726428 0)
(-1.80652 0.589001 0)
(-2.02572 0.435731 0)
(-2.17313 0.272971 0)
(-2.24524 0.106331 0)
(-2.24038 -0.0583824 0)
(-2.16654 -0.215244 0)
(-2.02594 -0.359151 0)
(-1.82618 -0.486204 0)
(-1.57581 -0.593447 0)
(-1.28397 -0.679128 0)
(-0.960419 -0.744212 0)
(-0.61455 -0.790547 0)
(-0.25235 -0.804032 0)
(0.10535 -0.776731 0)
(0.445181 -0.738801 0)
(0.759582 -0.680819 0)
(1.04119 -0.603483 0)
(1.28267 -0.510636 0)
(1.47832 -0.406042 0)
(1.62428 -0.293516 0)
(1.71902 -0.176783 0)
(1.75981 -0.0585671 0)
(1.7486 0.0578744 0)
(1.68838 0.168865 0)
(1.58134 0.271658 0)
(1.43203 0.363831 0)
(1.24565 0.442996 0)
(1.02827 0.507148 0)
(0.786679 0.554815 0)
(0.528596 0.585566 0)
(0.262362 0.599455 0)
(-0.0100807 0.590458 0)
(-0.271528 0.552894 0)
(-0.50786 0.502005 0)
(-0.716155 0.435776 0)
(-0.890414 0.355706 0)
(-1.02529 0.265039 0)
(-1.11722 0.16748 0)
(-1.16478 0.066825 0)
(-1.16462 -0.033854 0)
(-1.12156 -0.130899 0)
(-1.03704 -0.221 0)
(-0.914769 -0.301297 0)
(-0.75963 -0.368878 0)
(-0.577629 -0.422006 0)
(-0.374148 -0.459907 0)
(-0.155958 -0.483249 0)
(0.0709431 -0.481497 0)
(0.300528 -0.444544 0)
(0.498486 -0.403252 0)
(0.737729 -0.259563 0)
(-2.00808 3.67294 0)
(-3.29766 3.38262 0)
(-4.45129 2.97647 0)
(-5.4258 2.46705 0)
(-6.1876 1.87742 0)
(-6.71571 1.23633 0)
(-7.00235 0.5702 0)
(-7.02881 -0.0947168 0)
(-6.83372 -0.728231 0)
(-6.42103 -1.30758 0)
(-5.81609 -1.81676 0)
(-5.04875 -2.24307 0)
(-4.15104 -2.57973 0)
(-3.15537 -2.82758 0)
(-2.09267 -2.99201 0)
(-0.991107 -3.06236 0)
(0.112734 -2.98888 0)
(1.15849 -2.82307 0)
(2.12265 -2.59711 0)
(2.98467 -2.31058 0)
(3.72769 -1.97182 0)
(4.33823 -1.59219 0)
(4.80612 -1.18371 0)
(5.12623 -0.757791 0)
(5.29532 -0.322372 0)
(5.30291 0.11433 0)
(5.16725 0.541278 0)
(4.88501 0.948051 0)
(4.46543 1.32514 0)
(3.92021 1.66311 0)
(3.2632 1.95242 0)
(2.5123 2.18557 0)
(1.68878 2.35939 0)
(0.812815 2.46643 0)
(-0.10009 2.47677 0)
(-0.988492 2.36952 0)
(-1.81559 2.19789 0)
(-2.56294 1.95891 0)
(-3.20625 1.65687 0)
(-3.72469 1.30415 0)
(-4.10378 0.916851 0)
(-4.33796 0.511691 0)
(-4.41585 0.101882 0)
(-4.35002 -0.295585 0)
(-4.14901 -0.66595 0)
(-3.82333 -0.999753 0)
(-3.38919 -1.28819 0)
(-2.86478 -1.52539 0)
(-2.26887 -1.71009 0)
(-1.62006 -1.84385 0)
(-0.935177 -1.92298 0)
(-0.233649 -1.91954 0)
(0.444545 -1.83969 0)
(1.07949 -1.71826 0)
(1.65684 -1.55347 0)
(2.16311 -1.34936 0)
(2.58725 -1.11341 0)
(2.92064 -0.854287 0)
(3.15792 -0.580753 0)
(3.29839 -0.300163 0)
(3.33221 -0.0179423 0)
(3.27317 0.258185 0)
(3.12016 0.520815 0)
(2.87905 0.763979 0)
(2.55801 0.981967 0)
(2.16642 1.16933 0)
(1.71523 1.32157 0)
(1.21744 1.43592 0)
(0.688831 1.51126 0)
(0.128026 1.53975 0)
(-0.430192 1.49197 0)
(-0.946146 1.3906 0)
(-1.41918 1.25391 0)
(-1.83433 1.07964 0)
(-2.17753 0.873349 0)
(-2.43892 0.643666 0)
(-2.61323 0.400325 0)
(-2.69575 0.151235 0)
(-2.68597 -0.0942208 0)
(-2.59392 -0.32681 0)
(-2.42297 -0.539909 0)
(-2.18234 -0.728096 0)
(-1.88218 -0.887327 0)
(-1.53314 -1.01572 0)
(-1.14635 -1.11405 0)
(-0.732192 -1.1803 0)
(-0.299685 -1.19753 0)
(0.127488 -1.1641 0)
(0.532912 -1.10281 0)
(0.907048 -1.01249 0)
(1.24078 -0.895014 0)
(1.52608 -0.754841 0)
(1.75645 -0.597647 0)
(1.92746 -0.429332 0)
(2.03788 -0.255484 0)
(2.08347 -0.0799241 0)
(2.06817 0.0924749 0)
(1.99533 0.256382 0)
(1.86763 0.408151 0)
(1.69008 0.544335 0)
(1.46875 0.661654 0)
(1.21054 0.757291 0)
(0.922932 0.829071 0)
(0.613917 0.876353 0)
(0.291571 0.897904 0)
(-0.0345815 0.885979 0)
(-0.34627 0.831462 0)
(-0.630974 0.751757 0)
(-0.882486 0.651149 0)
(-1.09258 0.530789 0)
(-1.255 0.394983 0)
(-1.36567 0.249223 0)
(-1.42333 0.0987281 0)
(-1.42315 -0.051605 0)
(-1.37305 -0.19597 0)
(-1.27371 -0.329881 0)
(-1.12962 -0.449502 0)
(-0.945948 -0.551692 0)
(-0.729394 -0.634234 0)
(-0.485538 -0.694914 0)
(-0.22198 -0.732241 0)
(0.0520233 -0.735544 0)
(0.346253 -0.694319 0)
(0.580808 -0.643598 0)
(0.919963 -0.469604 0)
(-2.79875 5.203 0)
(-4.59433 4.77967 0)
(-6.19018 4.18936 0)
(-7.52036 3.45385 0)
(-8.53277 2.60707 0)
(-9.19842 1.69043 0)
(-9.49334 0.748192 0)
(-9.43803 -0.181929 0)
(-9.08193 -1.0701 0)
(-8.44465 -1.88377 0)
(-7.56736 -2.59783 0)
(-6.49331 -3.19232 0)
(-5.26745 -3.6588 0)
(-3.93239 -4.00036 0)
(-2.52327 -4.22346 0)
(-1.0717 -4.30985 0)
(0.364106 -4.20148 0)
(1.71445 -3.96523 0)
(2.94968 -3.63063 0)
(4.04555 -3.21376 0)
(4.98349 -2.73183 0)
(5.74723 -2.19766 0)
(6.32544 -1.62499 0)
(6.7143 -1.02955 0)
(6.90621 -0.422282 0)
(6.89763 0.184842 0)
(6.70737 0.777425 0)
(6.33186 1.34264 0)
(5.78129 1.86769 0)
(5.06936 2.33951 0)
(4.21242 2.74577 0)
(3.23073 3.0776 0)
(2.14758 3.32888 0)
(0.984911 3.48295 0)
(-0.222006 3.49076 0)
(-1.39926 3.34106 0)
(-2.50294 3.09398 0)
(-3.49512 2.74975 0)
(-4.33827 2.31797 0)
(-5.00309 1.81529 0)
(-5.47104 1.26386 0)
(-5.73581 0.688407 0)
(-5.78497 0.109047 0)
(-5.65697 -0.451739 0)
(-5.35472 -0.973018 0)
(-4.89675 -1.43908 0)
(-4.30537 -1.83837 0)
(-3.60518 -2.16524 0)
(-2.8207 -2.41854 0)
(-1.97418 -2.60034 0)
(-1.08446 -2.70406 0)
(-0.178684 -2.69614 0)
(0.691997 -2.58259 0)
(1.50353 -2.40198 0)
(2.23637 -2.16073 0)
(2.87464 -1.86898 0)
(3.40431 -1.53646 0)
(3.815 -1.17261 0)
(4.10163 -0.789016 0)
(4.26284 -0.396057 0)
(4.28968 -0.00267582 0)
(4.20139 0.38033 0)
(3.99527 0.744196 0)
(3.67885 1.08143 0)
(3.26182 1.38399 0)
(2.75545 1.64437 0)
(2.17266 1.85708 0)
(1.52759 2.01931 0)
(0.835539 2.12634 0)
(0.107984 2.15965 0)
(-0.611716 2.09147 0)
(-1.28496 1.9535 0)
(-1.8999 1.7582 0)
(-2.43433 1.50957 0)
(-2.86942 1.2157 0)
(-3.19286 0.888331 0)
(-3.39979 0.541804 0)
(-3.48221 0.18839 0)
(-3.45095 -0.157511 0)
(-3.31498 -0.482831 0)
(-3.08058 -0.778286 0)
(-2.75969 -1.0373 0)
(-2.36556 -1.25592 0)
(-1.91225 -1.43202 0)
(-1.4141 -1.56581 0)
(-0.883614 -1.65383 0)
(-0.331844 -1.6795 0)
(0.213167 -1.63281 0)
(0.728759 -1.54068 0)
(1.20168 -1.40744 0)
(1.6211 -1.23872 0)
(1.97656 -1.04107 0)
(2.25984 -0.820653 0)
(2.46613 -0.584548 0)
(2.59496 -0.340745 0)
(2.63953 -0.0953441 0)
(2.61051 0.144043 0)
(2.50933 0.370953 0)
(2.33992 0.581139 0)
(2.10868 0.769816 0)
(1.82302 0.932091 0)
(1.49121 1.06427 0)
(1.1218 1.16463 0)
(0.723172 1.23294 0)
(0.304195 1.26532 0)
(-0.116249 1.24537 0)
(-0.513214 1.16647 0)
(-0.878891 1.0541 0)
(-1.2016 0.910928 0)
(-1.46893 0.740267 0)
(-1.67267 0.547845 0)
(-1.80834 0.341557 0)
(-1.87381 0.12888 0)
(-1.86657 -0.0823009 0)
(-1.79682 -0.283677 0)
(-1.66517 -0.469164 0)
(-1.47807 -0.634319 0)
(-1.24197 -0.776185 0)
(-0.965257 -0.892374 0)
(-0.654648 -0.979418 0)
(-0.317537 -1.03543 0)
(0.0301796 -1.04975 0)
(0.417393 -1.0065 0)
(0.713587 -0.945575 0)
(1.17592 -0.74252 0)
(-3.24485 7.47864 0)
(-5.84811 6.86129 0)
(-8.22833 5.98144 0)
(-10.2872 4.87353 0)
(-11.9389 3.59629 0)
(-13.1136 2.21587 0)
(-13.7682 0.809081 0)
(-13.7981 -0.532144 0)
(-13.343 -1.75247 0)
(-12.4237 -2.84953 0)
(-11.1083 -3.80394 0)
(-9.48071 -4.58476 0)
(-7.62847 -5.19024 0)
(-5.63427 -5.63473 0)
(-3.56349 -5.92559 0)
(-1.45688 -6.02007 0)
(0.63086 -5.82539 0)
(2.59123 -5.44176 0)
(4.35448 -4.97625 0)
(5.86977 -4.3954 0)
(7.13306 -3.71475 0)
(8.14388 -2.96632 0)
(8.89515 -2.17214 0)
(9.38621 -1.35 0)
(9.60467 -0.516254 0)
(9.5672 0.311381 0)
(9.29378 1.11871 0)
(8.7809 1.88991 0)
(8.03898 2.60812 0)
(7.08335 3.25728 0)
(5.93423 3.82357 0)
(4.61492 4.29606 0)
(3.15198 4.66337 0)
(1.57036 4.89581 0)
(-0.0976516 4.91218 0)
(-1.77083 4.69983 0)
(-3.37651 4.34482 0)
(-4.8411 3.83942 0)
(-6.10661 3.20068 0)
(-7.12499 2.46119 0)
(-7.8574 1.65674 0)
(-8.28231 0.827169 0)
(-8.34989 0.0203744 0)
(-8.14023 -0.733055 0)
(-7.66462 -1.43285 0)
(-6.95748 -2.06312 0)
(-6.06077 -2.60093 0)
(-5.01694 -3.03847 0)
(-3.86782 -3.37715 0)
(-2.65047 -3.62128 0)
(-1.3913 -3.75408 0)
(-0.112978 -3.72807 0)
(1.12283 -3.54388 0)
(2.26537 -3.29338 0)
(3.2727 -2.96225 0)
(4.13054 -2.54887 0)
(4.83228 -2.07763 0)
(5.36925 -1.56801 0)
(5.7349 -1.03594 0)
(5.92334 -0.495995 0)
(5.93604 0.0390411 0)
(5.79739 0.558779 0)
(5.50534 1.05243 0)
(5.06843 1.50938 0)
(4.49792 1.91987 0)
(3.80765 2.27614 0)
(3.01371 2.57279 0)
(2.13268 2.8062 0)
(1.17935 2.9629 0)
(0.173208 3.00272 0)
(-0.838907 2.89943 0)
(-1.8103 2.70913 0)
(-2.7006 2.43026 0)
(-3.47562 2.07053 0)
(-4.10761 1.64835 0)
(-4.57438 1.1829 0)
(-4.86357 0.694659 0)
(-4.95278 0.207973 0)
(-4.87595 -0.257241 0)
(-4.64676 -0.69701 0)
(-4.27999 -1.10063 0)
(-3.79671 -1.45376 0)
(-3.21824 -1.74996 0)
(-2.56638 -1.98753 0)
(-1.86267 -2.16777 0)
(-1.12367 -2.2845 0)
(-0.36101 -2.3171 0)