/*--------------------------------*- C++ -*----------------------------------*\
| =========                 |                                                 |
| \\      /  F ield         | OpenFOAM: The Open Source CFD Toolbox           |
|  \\    /   O peration     | Version:  2206                                  |
|   \\  /    A nd           | Website:  www.openfoam.com                      |
|    \\/     M anipulation  |                                                 |
\*---------------------------------------------------------------------------*/
FoamFile
{
    version     2.0;
    format      ascii;
    arch        "LSB;label=32;scalar=64";
    class       volScalarField;
    location    "18.9999";
    object      p;
}
// * * * * * * * * * * * * * * * * * * * * * * * * * * * * * * * * * * * * * //

dimensions      [0 2 -2 0 0 0 0];

internalField   nonuniform List<scalar> 
1865
(
-0.954937
-0.860593
-0.774799
-0.670375
-0.555828
-0.447077
-0.355206
-0.296828
-0.290181
-0.348086
-0.473034
-0.654529
-0.873358
-1.10336
-1.30503
-1.43556
-1.47601
-1.43744
-1.33838
-1.19484
-1.02531
-0.848809
-0.685906
-0.541252
-0.418738
-0.321974
-0.25199
-0.204739
-0.174695
-0.161366
-0.168458
-0.197987
-0.246122
-0.297671
-0.341869
-0.366758
-0.374298
-0.369445
-0.348607
-0.315817
-0.276958
-0.237586
-0.200678
-0.16846
-0.143628
-0.128665
-0.123518
-0.129198
-0.148637
-0.183143
-0.230756
-0.286515
-0.343043
-0.394742
-0.433716
-0.455308
-0.460024
-0.442729
-0.398687
-0.347448
-0.296122
-0.245706
-0.199541
-0.160525
-0.129864
-0.108621
-0.0995048
-0.104393
-0.122611
-0.151214
-0.185791
-0.221869
-0.257777
-0.290413
-0.31386
-0.324966
-0.322812
-0.307629
-0.281105
-0.24608
-0.205958
-0.164334
-0.124373
-0.0881328
-0.0569807
-0.0324651
-0.0155258
-0.00594573
-0.00304344
-0.0057707
-0.0126781
-0.0224246
-0.0336134
-0.0443
-0.051635
-0.0556963
-0.0584424
-0.057003
-0.0468127
-0.0370657
-0.0320574
-0.0294304
-0.0307781
-0.0363626
-0.045764
-0.0585409
-0.0737902
-0.0902143
-0.106908
-0.123666
-0.138733
-0.149882
-0.155875
-0.155814
-0.149303
-0.13687
-0.119295
-0.0979135
-0.0743046
-0.921329
-0.888009
-0.832015
-0.752068
-0.657217
-0.557556
-0.467059
-0.400453
-0.379991
-0.424785
-0.543271
-0.727411
-0.955896
-1.19681
-1.40845
-1.54566
-1.58747
-1.53577
-1.4169
-1.25319
-1.06487
-0.869344
-0.688138
-0.534537
-0.409189
-0.310426
-0.241124
-0.196781
-0.174479
-0.176087
-0.206359
-0.262148
-0.327313
-0.391998
-0.443009
-0.474291
-0.484893
-0.47175
-0.439259
-0.395276
-0.346272
-0.297795
-0.253934
-0.217555
-0.190811
-0.176167
-0.174279
-0.183317
-0.204478
-0.243398
-0.295926
-0.356484
-0.417027
-0.468368
-0.505391
-0.521415
-0.517362
-0.493169
-0.444589
-0.381118
-0.317516
-0.25968
-0.209394
-0.169041
-0.13927
-0.120522
-0.113689
-0.119959
-0.138777
-0.16759
-0.20232
-0.240003
-0.278972
-0.313616
-0.338549
-0.350675
-0.347999
-0.33186
-0.303853
-0.267218
-0.225617
-0.182969
-0.14296
-0.107677
-0.0777997
-0.0548304
-0.0397822
-0.0321538
-0.0310343
-0.0352883
-0.043531
-0.0539659
-0.0650116
-0.0752412
-0.0822733
-0.0838373
-0.0848187
-0.0819773
-0.0690423
-0.0565282
-0.048477
-0.0428026
-0.0413434
-0.0450651
-0.053067
-0.0644197
-0.0782496
-0.093317
-0.10915
-0.125509
-0.140034
-0.150768
-0.156522
-0.156313
-0.149966
-0.13778
-0.120694
-0.100085
-0.0774933
-0.962045
-0.943733
-0.911009
-0.861983
-0.799059
-0.726338
-0.653098
-0.592145
-0.563198
-0.5835
-0.66701
-0.819132
-1.02808
-1.25635
-1.46201
-1.59801
-1.63304
-1.5726
-1.44246
-1.26716
-1.06998
-0.871968
-0.687092
-0.527636
-0.402738
-0.307786
-0.243251
-0.208054
-0.200508
-0.223891
-0.276911
-0.348278
-0.428491
-0.505982
-0.567515
-0.600267
-0.60159
-0.576057
-0.530397
-0.472966
-0.411706
-0.353046
-0.301433
-0.259988
-0.230306
-0.213975
-0.212283
-0.224149
-0.248621
-0.290302
-0.346422
-0.410757
-0.475075
-0.528795
-0.565383
-0.578828
-0.568117
-0.535194
-0.484371
-0.418141
-0.347782
-0.281996
-0.227989
-0.185167
-0.154609
-0.136742
-0.13098
-0.137527
-0.155738
-0.18326
-0.217025
-0.25572
-0.295866
-0.331039
-0.356388
-0.368392
-0.365531
-0.34852
-0.319301
-0.281457
-0.239
-0.196252
-0.157199
-0.124104
-0.0959879
-0.0755207
-0.0632871
-0.0584785
-0.0599302
-0.0664095
-0.07654
-0.0884547
-0.1001
-0.109979
-0.116664
-0.118399
-0.115693
-0.108854
-0.0955997
-0.0797113
-0.0663665
-0.0576429
-0.0532163
-0.0538452
-0.0591834
-0.0680059
-0.0793197
-0.0922132
-0.106754
-0.121791
-0.134984
-0.144824
-0.150075
-0.149751
-0.143834
-0.132416
-0.116516
-0.0975193
-0.0769219
-1.02591
-1.02128
-1.01456
-1.00311
-0.985305
-0.957884
-0.923929
-0.881152
-0.84346
-0.829149
-0.852903
-0.928732
-1.07953
-1.2491
-1.41244
-1.52659
-1.55635
-1.5017
-1.37787
-1.21017
-1.02222
-0.834923
-0.661499
-0.509214
-0.388121
-0.305552
-0.252221
-0.230693
-0.242406
-0.287132
-0.356764
-0.446229
-0.544846
-0.63374
-0.695145
-0.720864
-0.711973
-0.672784
-0.611865
-0.539388
-0.464978
-0.395368
-0.335417
-0.288228
-0.255216
-0.236911
-0.232639
-0.244466
-0.275055
-0.318923
-0.376682
-0.443413
-0.510504
-0.567388
-0.604286
-0.618078
-0.604782
-0.56801
-0.513372
-0.446825
-0.375318
-0.306207
-0.248414
-0.204974
-0.172077
-0.152947
-0.146969
-0.152745
-0.169109
-0.194037
-0.226677
-0.265376
-0.304649
-0.339129
-0.364021
-0.375407
-0.372352
-0.354642
-0.324665
-0.286437
-0.244096
-0.20222
-0.164869
-0.134459
-0.108751
-0.0918551
-0.0825639
-0.0811582
-0.0864168
-0.0960259
-0.108614
-0.122437
-0.135396
-0.145321
-0.15148
-0.152398
-0.147643
-0.137697
-0.122943
-0.105041
-0.0864324
-0.0714842
-0.0628139
-0.0603953
-0.0619951
-0.0672229
-0.0754904
-0.0860928
-0.0985967
-0.111345
-0.122725
-0.131345
-0.135944
-0.135711
-0.130585
-0.120593
-0.106651
-0.0900459
-0.0722979
-1.10638
-1.11726
-1.1409
-1.1745
-1.2117
-1.24275
-1.25191
-1.23567
-1.19476
-1.14375
-1.10006
-1.07861
-1.10479
-1.17172
-1.2606
-1.33199
-1.35068
-1.30833
-1.20546
-1.06476
-0.90463
-0.742269
-0.592681
-0.462553
-0.356255
-0.287735
-0.253261
-0.249721
-0.279885
-0.343487
-0.434124
-0.545179
-0.65547
-0.748484
-0.80788
-0.826717
-0.805374
-0.750655
-0.673725
-0.586396
-0.499712
-0.421161
-0.351196
-0.298752
-0.264656
-0.244002
-0.23938
-0.251789
-0.282532
-0.326885
-0.384539
-0.451739
-0.519985
-0.578815
-0.618088
-0.633014
-0.620964
-0.58456
-0.528907
-0.46241
-0.391598
-0.324943
-0.264996
-0.219353
-0.18574
-0.164667
-0.157157
-0.161131
-0.174415
-0.197064
-0.228477
-0.265104
-0.302248
-0.335065
-0.358652
-0.369156
-0.365906
-0.34829
-0.318631
-0.281198
-0.240004
-0.199103
-0.16325
-0.134627
-0.114469
-0.101051
-0.0965318
-0.0997498
-0.107919
-0.120148
-0.135645
-0.152045
-0.166984
-0.178141
-0.183951
-0.183822
-0.176819
-0.163658
-0.145875
-0.125936
-0.105542
-0.0850346
-0.0692156
-0.0631822
-0.06037
-0.0612616
-0.0659647
-0.0737008
-0.083327
-0.0936686
-0.103247
-0.110655
-0.114714
-0.114983
-0.111063
-0.103094
-0.091792
-0.0783662
-0.064224
-0.622904
-0.592464
-0.561171
-0.529199
-0.497014
-0.465377
-0.435477
-0.631732
-0.602481
-0.57262
-0.542195
-0.51147
-0.48098
-0.451598
-0.650493
-0.624371
-0.59812
-0.571582
-0.54475
-0.517738
-0.490822
-0.66943
-0.647095
-0.625097
-0.603056
-0.580742
-0.557724
-0.533432
-0.688535
-0.670396
-0.653163
-0.636128
-0.618864
-0.600523
-0.57946
-0.706505
-0.692987
-0.681132
-0.670128
-0.658971
-0.646244
-0.629445
-0.72208
-0.714143
-0.708923
-0.705524
-0.702494
-0.697401
-0.686472
-0.7324
-0.730115
-0.732016
-0.737481
-0.745287
-0.752436
-0.753454
-0.73613
-0.738018
-0.745468
-0.758622
-0.777631
-0.800835
-0.823089
-0.734856
-0.73785
-0.74685
-0.762618
-0.787021
-0.820523
-0.871548
-0.408994
-0.388046
-0.374466
-0.365589
-0.355459
-0.341512
-0.324408
-0.304062
-0.278264
-0.247505
-0.21697
-0.192201
-0.194013
-0.229663
-0.298274
-0.40948
-0.572593
-0.780646
-1.01219
-1.20874
-1.31169
-1.2995
-1.21313
-1.06762
-0.895804
-0.722758
-0.564651
-0.433358
-0.329462
-0.250962
-0.19945
-0.161937
-0.140923
-0.133647
-0.135699
-0.145628
-0.160679
-0.178153
-0.194011
-0.205853
-0.21061
-0.205578
-0.189415
-0.164003
-0.129174
-0.0870345
-0.0449094
-0.00637338
0.0221848
0.0372225
0.0351881
0.0174658
-0.0187948
-0.0720327
-0.137478
-0.207376
-0.270374
-0.31396
-0.331648
-0.329484
-0.30749
-0.272353
-0.231406
-0.191387
-0.157419
-0.132963
-0.119791
-0.11746
-0.123891
-0.136712
-0.15295
-0.169476
-0.183103
-0.191127
-0.192305
-0.187142
-0.175702
-0.159229
-0.139164
-0.116976
-0.0940265
-0.0714955
-0.0505799
-0.0320202
-0.0164421
-0.00409413
0.00505527
0.0112852
0.0150566
0.0168695
0.0172607
0.0166235
0.0151868
0.0130633
0.0103344
0.00707967
0.00335461
-0.000834907
-0.00538302
-0.0103469
-0.0158024
-0.0218167
-0.0284053
-0.035513
-0.043014
-0.0507195
-0.0583803
-0.0656954
-0.0723316
-0.0779006
-0.0819588
-0.0840583
-0.0842609
-0.0818738
-0.0767709
-0.0690025
-0.0587845
-0.0464899
-0.0326205
-0.0177668
-0.424733
-0.401662
-0.382344
-0.366321
-0.352199
-0.337559
-0.321638
-0.303214
-0.274613
-0.227152
-0.171632
-0.135186
-0.13344
-0.177121
-0.260962
-0.384685
-0.569041
-0.815139
-1.08421
-1.30931
-1.4288
-1.4187
-1.30465
-1.12473
-0.924892
-0.733266
-0.562453
-0.426802
-0.319815
-0.240971
-0.185817
-0.148726
-0.128457
-0.121667
-0.127055
-0.140782
-0.159542
-0.1802
-0.19922
-0.213617
-0.220275
-0.216762
-0.201606
-0.175033
-0.138591
-0.0903253
-0.0443797
-0.00128745
0.0329634
0.0527844
0.0548166
0.0362934
-0.00379432
-0.0635525
-0.137728
-0.217841
-0.289662
-0.339305
-0.359157
-0.352387
-0.3236
-0.281622
-0.234486
-0.189095
-0.150748
-0.123688
-0.109907
-0.108719
-0.11744
-0.133242
-0.152724
-0.172274
-0.188274
-0.197662
-0.199315
-0.193519
-0.181105
-0.163467
-0.142158
-0.118734
-0.0945253
-0.0707987
-0.0488468
-0.0295985
-0.013603
-0.00109802
0.00792775
0.0138198
0.0171159
0.0184295
0.0183813
0.0174461
0.0158387
0.0135977
0.0107738
0.00744628
0.0037013
-0.00041823
-0.00504084
-0.00990927
-0.0152607
-0.0212246
-0.0278522
-0.035073
-0.0427555
-0.050701
-0.0586493
-0.066309
-0.0733404
-0.0793591
-0.0838834
-0.0867602
-0.0869936
-0.0846181
-0.0794425
-0.07148
-0.0609427
-0.0482198
-0.0338424
-0.0184354
-0.464468
-0.439185
-0.415332
-0.393045
-0.371939
-0.350644
-0.327455
-0.300187
-0.266053
-0.225665
-0.187037
-0.161449
-0.153959
-0.168361
-0.233303
-0.378163
-0.613153
-0.910288
-1.21325
-1.45447
-1.56987
-1.54158
-1.38223
-1.1656
-0.938372
-0.732612
-0.55365
-0.40818
-0.297528
-0.217712
-0.163323
-0.129437
-0.113175
-0.109553
-0.118819
-0.137479
-0.161392
-0.187014
-0.210219
-0.227543
-0.236404
-0.234168
-0.218491
-0.189849
-0.14868
-0.0974724
-0.0433346
0.00809294
0.051747
0.0784239
0.0822076
0.065376
0.01849
-0.0539052
-0.142953
-0.238457
-0.325489
-0.382444
-0.402734
-0.386799
-0.348179
-0.296566
-0.240176
-0.185942
-0.140229
-0.108947
-0.0944706
-0.0951086
-0.107557
-0.127893
-0.152205
-0.176562
-0.196455
-0.208028
-0.210268
-0.203737
-0.190003
-0.170743
-0.147577
-0.122258
-0.095908
-0.069821
-0.045967
-0.0254697
-0.00867445
0.00421984
0.0131203
0.0184967
0.0210544
0.0214008
0.0205454
0.0190921
0.0170928
0.0144726
0.0113316
0.00779461
0.00398344
-9.6877e-05
-0.00443131
-0.00921003
-0.0143687
-0.0201707
-0.0267978
-0.0342122
-0.0422351
-0.0506252
-0.059109
-0.0673931
-0.0751399
-0.0819391
-0.0873351
-0.0906342
-0.0913731
-0.0892119
-0.0839641
-0.0756577
-0.0645288
-0.0510146
-0.0357099
-0.0193062
-0.50753
-0.480078
-0.451665
-0.422685
-0.393825
-0.365922
-0.338886
-0.312219
-0.285719
-0.260315
-0.239675
-0.231083
-0.242334
-0.283836
-0.367731
-0.512113
-0.727262
-0.996386
-1.27336
-1.48698
-1.57339
-1.51574
-1.3543
-1.13771
-0.91291
-0.709902
-0.538155
-0.398321
-0.293207
-0.216722
-0.161685
-0.123195
-0.100492
-0.0978366
-0.112566
-0.137728
-0.166831
-0.197134
-0.222645
-0.240941
-0.250081
-0.247541
-0.231203
-0.198962
-0.153921
-0.0984187
-0.0372885
0.0216229
0.0711973
0.104865
0.120881
0.0998473
0.0431574
-0.0433167
-0.14668
-0.255034
-0.354318
-0.417175
-0.435785
-0.414954
-0.369676
-0.311759
-0.249972
-0.189864
-0.135589
-0.0974413
-0.0805003
-0.0824193
-0.0985783
-0.123293
-0.151557
-0.180176
-0.204065
-0.217427
-0.220163
-0.213417
-0.199048
-0.178831
-0.154549
-0.127572
-0.0993613
-0.0713349
-0.0454211
-0.0229258
-0.00419024
0.0103898
0.0202577
0.0257829
0.027824
0.0272912
0.0252259
0.0224489
0.0192026
0.0155083
0.0114134
0.00721127
0.00300938
-0.00113195
-0.00524205
-0.00954593
-0.0140462
-0.0193193
-0.0256555
-0.0330811
-0.0413642
-0.0502186
-0.0593396
-0.0684124
-0.0770992
-0.0849142
-0.0912646
-0.0954314
-0.0968348
-0.0949407
-0.0895639
-0.0807766
-0.068845
-0.05428
-0.0377734
-0.0200932
-0.554287
-0.524349
-0.490208
-0.454062
-0.418268
-0.385087
-0.35602
-0.332591
-0.31606
-0.306931
-0.306868
-0.32086
-0.354907
-0.414501
-0.506908
-0.649357
-0.825719
-1.02658
-1.22598
-1.36957
-1.41692
-1.35852
-1.21446
-1.02898
-0.836384
-0.656655
-0.505502
-0.382943
-0.287625
-0.216471
-0.166404
-0.135351
-0.120168
-0.120198
-0.132927
-0.15376
-0.177897
-0.202264
-0.223006
-0.236904
-0.241905
-0.237527
-0.217739
-0.182724
-0.134524
-0.0763729
-0.0118435
0.0490896
0.096753
0.126864
0.1323
0.108885
0.0460312
-0.0467596
-0.153527
-0.263105
-0.358977
-0.422107
-0.442344
-0.42319
-0.379103
-0.321393
-0.258863
-0.199166
-0.145426
-0.103915
-0.0840566
-0.0835849
-0.0985624
-0.122428
-0.149801
-0.177547
-0.201476
-0.216553
-0.222239
-0.21741
-0.205022
-0.186084
-0.161985
-0.134373
-0.105135
-0.0748689
-0.0460309
-0.0209251
-4.01511e-05
0.0162769
0.0271969
0.0329242
0.0341523
0.0327086
0.0297201
0.0261822
0.0218961
0.0168293
0.0111283
0.00558699
0.000631096
-0.00360126
-0.00728467
-0.0104974
-0.0138639
-0.0181058
-0.0237871
-0.0309843
-0.0394711
-0.0489231
-0.0589525
-0.0691732
-0.0791447
-0.088235
-0.0957069
-0.100775
-0.102677
-0.100938
-0.0953506
-0.0859834
-0.073155
-0.0574788
-0.039761
-0.0208427
-0.605781
-0.572311
-0.529911
-0.48409
-0.439287
-0.399693
-0.368473
-0.34838
-0.341772
-0.348496
-0.369235
-0.406784
-0.462363
-0.536576
-0.63234
-0.75083
-0.885338
-1.02222
-1.14489
-1.22224
-1.22977
-1.1645
-1.04051
-0.886955
-0.728697
-0.581733
-0.457144
-0.35719
-0.279975
-0.222685
-0.181806
-0.154819
-0.141028
-0.140506
-0.152386
-0.170668
-0.186857
-0.197999
-0.206036
-0.207319
-0.200739
-0.184914
-0.163225
-0.131431
-0.0920819
-0.0481306
-0.00333813
0.0397227
0.0795725
0.112752
0.127603
0.109611
0.0479099
-0.0470699
-0.158888
-0.265786
-0.352167
-0.412751
-0.433866
-0.418235
-0.377638
-0.323401
-0.263548
-0.205319
-0.154493
-0.113201
-0.0913776
-0.0902168
-0.102697
-0.124251
-0.150165
-0.175743
-0.197541
-0.212597
-0.217552
-0.21554
-0.206355
-0.189384
-0.166384
-0.140041
-0.110167
-0.0782609
-0.0488642
-0.0238948
-0.000578192
0.0200151
0.0343851
0.0404808
0.0429326
0.0422223
0.037304
0.0319375
0.0245451
0.0169716
0.00961653
0.0028413
-0.0029215
-0.0075753
-0.0111855
-0.0135509
-0.0158035
-0.018443
-0.0234015
-0.0302038
-0.0385651
-0.0482425
-0.058804
-0.0697678
-0.0807546
-0.0911484
-0.0998614
-0.105793
-0.10813
-0.106549
-0.10091
-0.0910655
-0.0773767
-0.0605815
-0.0416137
-0.021422
-0.665143
-0.625883
-0.572347
-0.513223
-0.456808
-0.408068
-0.370271
-0.349704
-0.353009
-0.377086
-0.420545
-0.486439
-0.569447
-0.660575
-0.754933
-0.853639
-0.955959
-1.042
-1.1034
-1.12208
-1.08772
-1.009
-0.893213
-0.759709
-0.627194
-0.507588
-0.406215
-0.32521
-0.263616
-0.21909
-0.188626
-0.169796
-0.162004
-0.163703
-0.170707
-0.180378
-0.187155
-0.187799
-0.184425
-0.173619
-0.157777
-0.137531
-0.113937
-0.086766
-0.0572191
-0.0269828
0.000254516
0.0233908
0.0471571
0.07236
0.0630785
0.0234876
-0.0236502
-0.0906439
-0.179994
-0.268593
-0.347553
-0.401435
-0.418872
-0.404399
-0.367912
-0.318091
-0.262811
-0.207299
-0.157376
-0.119719
-0.0983698
-0.095207
-0.106862
-0.127479
-0.151261
-0.174209
-0.194739
-0.21077
-0.220531
-0.223477
-0.217785
-0.201735
-0.179746
-0.153172
-0.120364
-0.0860966
-0.0534068
-0.0245397
8.48345e-05
0.0205013
0.0366061
0.0447886
0.0466319
0.0446108
0.0405242
0.0354652
0.027459
0.0189719
0.00924474
0.000388684
-0.00671216
-0.0115634
-0.0141897
-0.0156442
-0.0167397
-0.0184278
-0.0222988
-0.0286607
-0.0371275
-0.0473714
-0.0589529
-0.0713202
-0.083973
-0.0960251
-0.106166
-0.11319
-0.116293
-0.115154
-0.109367
-0.0987791
-0.0839353
-0.065702
-0.045137
-0.0234214
-0.737798
-0.688116
-0.617322
-0.541742
-0.467262
-0.401491
-0.354202
-0.332962
-0.34287
-0.380974
-0.447744
-0.548787
-0.666803
-0.779585
-0.883155
-0.972286
-1.05061
-1.10253
-1.10803
-1.07756
-1.01061
-0.911661
-0.790977
-0.663708
-0.543803
-0.439296
-0.353278
-0.287004
-0.239585
-0.208034
-0.188355
-0.177405
-0.175489
-0.181661
-0.191579
-0.201971
-0.203663
-0.192405
-0.173173
-0.15317
-0.131318
-0.109581
-0.0864368
-0.062812
-0.0408727
-0.0220701
-0.00856696
-0.00108393
-0.000533491
-0.00822314
-0.0258705
-0.064518
-0.103943
-0.167646
-0.246433
-0.30638
-0.349228
-0.384236
-0.393051
-0.376177
-0.341894
-0.296068
-0.245993
-0.196367
-0.151237
-0.116281
-0.0966933
-0.0948537
-0.107521
-0.129335
-0.154438
-0.17945
-0.203068
-0.223097
-0.237111
-0.243241
-0.238256
-0.22311
-0.201489
-0.172805
-0.13848
-0.102199
-0.0666464
-0.0338588
-0.00518083
0.0179212
0.0340211
0.044459
0.047502
0.0449258
0.0397471
0.029946
0.0214111
0.0141118
0.00504846
-0.00228284
-0.0103551
-0.016072
-0.0182469
-0.0181836
-0.0177525
-0.0190578
-0.021888
-0.0278047
-0.036768
-0.048032
-0.0609861
-0.0749804
-0.0892675
-0.102814
-0.114407
-0.122855
-0.127185
-0.126652
-0.120737
-0.109529
-0.0936716
-0.0741131
-0.0519915
-0.0285896
-0.823088
-0.758808
-0.667802
-0.573087
-0.476613
-0.389613
-0.327339
-0.299496
-0.313136
-0.372229
-0.473356
-0.609967
-0.765902
-0.912406
-1.03124
-1.11755
-1.17411
-1.19319
-1.15943
-1.08471
-0.981752
-0.860946
-0.729398
-0.599723
-0.483278
-0.385778
-0.308935
-0.252855
-0.216096
-0.194207
-0.182095
-0.179375
-0.18765
-0.204755
-0.216882
-0.220813
-0.21932
-0.209789
-0.196926
-0.178275
-0.152513
-0.131585
-0.108091
-0.0813753
-0.0589774
-0.0417949
-0.0308348
-0.0283743
-0.0363159
-0.0564861
-0.0906448
-0.134885
-0.182832
-0.237734
-0.289219
-0.337952
-0.379351
-0.392559
-0.373335
-0.342222
-0.308396
-0.266792
-0.221798
-0.178116
-0.139112
-0.109014
-0.0924438
-0.09241
-0.106787
-0.130912
-0.15976
-0.189272
-0.216963
-0.241377
-0.259323
-0.267554
-0.264476
-0.250154
-0.226642
-0.19562
-0.159468
-0.121101
-0.0833479
-0.048499
-0.0181889
0.00636558
0.0242252
0.0350464
0.038451
0.0365215
0.0303319
0.0205898
0.0106462
-0.00030511
-0.0084362
-0.0135133
-0.0186872
-0.0213129
-0.0213916
-0.0202033
-0.0189639
-0.019104
-0.0216292
-0.027502
-0.036893
-0.0492448
-0.0637147
-0.0793715
-0.0952747
-0.110496
-0.123934
-0.133938
-0.139216
-0.138954
-0.132739
-0.120834
-0.104005
-0.0833269
-0.0600916
-0.0356204
-0.909508
-0.82749
-0.719928
-0.604721
-0.486898
-0.379262
-0.296624
-0.254092
-0.265203
-0.336277
-0.462758
-0.633166
-0.833219
-1.03714
-1.19895
-1.29543
-1.33
-1.31147
-1.23987
-1.12285
-0.985103
-0.841359
-0.696633
-0.560948
-0.442865
-0.347126
-0.275143
-0.225596
-0.194106
-0.175619
-0.169819
-0.179482
-0.199876
-0.227646
-0.257416
-0.27752
-0.285715
-0.27705
-0.263442
-0.242539
-0.211667
-0.180015
-0.148874
-0.11984
-0.0965891
-0.0809564
-0.0732997
-0.0756505
-0.0905644
-0.119182
-0.160837
-0.21062
-0.263896
-0.314566
-0.356525
-0.385283
-0.409552
-0.405003
-0.371291
-0.333309
-0.292502
-0.247515
-0.203628
-0.163964
-0.129906
-0.104609
-0.0920049
-0.0945671
-0.111157
-0.137983
-0.170503
-0.204039
-0.236093
-0.265226
-0.286503
-0.296479
-0.294017
-0.279413
-0.254465
-0.221409
-0.183214
-0.143059
-0.103814
-0.0675833
-0.0361737
-0.0111763
0.00667267
0.0173767
0.0212992
0.0192309
0.0126494
0.00309736
-0.00809656
-0.0182102
-0.0257232
-0.0336095
-0.0351609
-0.0334058
-0.0302522
-0.0253702
-0.0220517
-0.0215907
-0.024162
-0.0302896
-0.0400522
-0.0530295
-0.0683917
-0.0849744
-0.101706
-0.118035
-0.132698
-0.143574
-0.149407
-0.149356
-0.142968
-0.1307
-0.113303
-0.0919746
-0.0681962
-0.0434258
)
;

boundaryField
{
    inlet
    {
        type            zeroGradient;
    }
    outlet
    {
        type            fixedValue;
        value           nonuniform List<scalar> 0();
    }
    topWall
    {
        type            zeroGradient;
    }
    lowerWall
    {
        type            zeroGradient;
    }
    leadingEdge
    {
        type            zeroGradient;
    }
    trailingEdge
    {
        type            zeroGradient;
    }
    upperSurface
    {
        type            zeroGradient;
    }
    lowerSurface
    {
        type            zeroGradient;
    }
    frontAndBack
    {
        type            empty;
    }
    procBoundary1to0
    {
        type            processor;
        value           nonuniform List<scalar> 10(-0.652805 -0.660613 -0.676764 -0.692548 -0.708145 -0.722232 -0.733301 -0.739297 -0.739957 -0.73785);
    }
    procBoundary1to2
    {
        type            processor;
        value           nonuniform List<scalar> 
16
(
-0.0501321
-0.0501321
-0.0547086
-0.0564616
-0.0549469
-0.0506944
-0.00256179
-0.00266731
-0.00254277
-0.00207355
-0.00163323
-0.0009542
-0.00175094
-0.0051732
-0.011203
-0.0188263
)
;
    }
    procBoundary1to5
    {
        type            processor;
        value           nonuniform List<scalar> 
119
(
-1.19467
-1.22324
-1.27838
-1.35788
-1.45108
-1.53881
-1.59802
-1.61331
-1.57009
-1.47853
-1.36075
-1.24027
-1.13667
-1.0711
-1.05209
-1.05534
-1.05079
-1.01349
-0.944378
-0.841436
-0.719349
-0.592381
-0.473305
-0.370581
-0.292476
-0.246026
-0.231916
-0.24562
-0.295045
-0.38003
-0.492905
-0.622968
-0.742797
-0.837864
-0.893208
-0.902861
-0.867722
-0.797894
-0.705975
-0.605809
-0.509063
-0.422411
-0.346661
-0.294936
-0.25899
-0.238134
-0.233158
-0.245043
-0.273987
-0.317214
-0.372294
-0.437518
-0.505044
-0.564352
-0.605714
-0.622288
-0.613496
-0.580232
-0.527715
-0.463997
-0.396381
-0.331652
-0.272775
-0.224529
-0.192211
-0.169494
-0.158593
-0.15907
-0.170127
-0.190861
-0.219436
-0.252765
-0.28698
-0.317335
-0.338954
-0.349072
-0.345831
-0.329123
-0.301241
-0.266
-0.227599
-0.187887
-0.152723
-0.126921
-0.11253
-0.10436
-0.10409
-0.110275
-0.121699
-0.137702
-0.156415
-0.175453
-0.192428
-0.204935
-0.21093
-0.209896
-0.2011
-0.185218
-0.164232
-0.140547
-0.116472
-0.094028
-0.0756108
-0.0620084
-0.05395
-0.0511
-0.0521034
-0.0562546
-0.0623001
-0.0700918
-0.0778696
-0.0840716
-0.0877659
-0.0888656
-0.086596
-0.0811963
-0.0732942
-0.063589
-0.0527522
)
;
    }
}


// ************************************************************************* //
