/*--------------------------------*- C++ -*----------------------------------*\
| =========                 |                                                 |
| \\      /  F ield         | OpenFOAM: The Open Source CFD Toolbox           |
|  \\    /   O peration     | Version:  2206                                  |
|   \\  /    A nd           | Website:  www.openfoam.com                      |
|    \\/     M anipulation  |                                                 |
\*---------------------------------------------------------------------------*/
FoamFile
{
    version     2.0;
    format      ascii;
    arch        "LSB;label=32;scalar=64";
    class       volVectorField;
    location    "19.5999";
    object      ddtCorrDdt0(U);
}
// * * * * * * * * * * * * * * * * * * * * * * * * * * * * * * * * * * * * * //

dimensions      [0 1 -2 0 0 0 0];

internalField   nonuniform List<vector> 
1840
(
(17.0549 -11.2279 0)
(14.8154 -13.6076 0)
(12.1637 -15.7551 0)
(9.16348 -17.5355 0)
(5.89613 -18.7669 0)
(2.51094 -19.2657 0)
(-0.803557 -18.938 0)
(-3.92054 -17.7957 0)
(-6.73358 -15.9131 0)
(-9.17887 -13.4088 0)
(-11.2352 -10.4262 0)
(-12.8915 -7.12368 0)
(-14.074 -3.68876 0)
(-14.847 -0.282753 0)
(-15.2807 3.08046 0)
(-15.3213 6.34134 0)
(-14.9424 9.34121 0)
(-14.1218 11.9225 0)
(-12.7827 13.9208 0)
(-10.8922 15.2199 0)
(-8.61616 15.9204 0)
(-6.06775 16.0033 0)
(-3.38363 15.4859 0)
(-0.676459 14.4348 0)
(1.98606 12.9465 0)
(4.60642 11.0958 0)
(7.12248 8.89181 0)
(9.27774 6.38049 0)
(11.0209 3.87666 0)
(12.3287 1.50076 0)
(13.1576 -0.781792 0)
(13.4969 -2.95996 0)
(13.3324 -4.98399 0)
(12.6516 -6.79888 0)
(11.5267 -8.38882 0)
(10.0565 -9.7759 0)
(8.28265 -10.9339 0)
(6.26708 -11.8006 0)
(4.10077 -12.2843 0)
(1.90512 -12.3079 0)
(-0.228908 -11.8538 0)
(-2.2323 -10.9422 0)
(-4.05431 -9.62465 0)
(-5.6737 -7.96878 0)
(-7.07396 -6.04134 0)
(-8.19629 -3.93196 0)
(-9.01574 -1.79004 0)
(-9.61747 0.323642 0)
(-9.97639 2.42596 0)
(-10.0649 4.4614 0)
(-9.8606 6.32952 0)
(-9.34315 7.93636 0)
(-8.46605 9.17648 0)
(-7.2313 9.98602 0)
(-5.74641 10.4132 0)
(-4.0964 10.432 0)
(-2.36191 10.0571 0)
(-0.620597 9.33605 0)
(1.0825 8.33299 0)
(2.75309 7.09954 0)
(4.36962 5.6397 0)
(5.78002 3.96451 0)
(6.93663 2.27387 0)
(7.84368 0.667796 0)
(8.4608 -0.877736 0)
(8.7716 -2.35089 0)
(8.75537 -3.70721 0)
(8.39895 -4.89952 0)
(7.70363 -5.88124 0)
(6.7626 -6.68401 0)
(5.60567 -7.29567 0)
(4.29489 -7.68708 0)
(2.90367 -7.81423 0)
(1.50467 -7.65779 0)
(0.15007 -7.22425 0)
(-1.12193 -6.54038 0)
(-2.29577 -5.64357 0)
(-3.36684 -4.5653 0)
(-4.30968 -3.33051 0)
(-5.05081 -2.00604 0)
(-5.64751 -0.709802 0)
(-6.09769 0.56586 0)
(-6.38934 1.8286 0)
(-6.50332 3.04149 0)
(-6.41332 4.14031 0)
(-6.09961 5.064 0)
(-5.51305 5.72919 0)
(-4.72483 6.16594 0)
(-3.77545 6.3653 0)
(-2.72785 6.31568 0)
(-1.63316 6.03248 0)
(-0.544756 5.55026 0)
(0.516165 4.90999 0)
(1.56676 4.13965 0)
(2.59368 3.2222 0)
(3.47367 2.16417 0)
(4.23013 1.12951 0)
(4.83623 0.138893 0)
(5.26808 -0.823427 0)
(5.51184 -1.73948 0)
(5.54739 -2.5722 0)
(5.36491 -3.2878 0)
(4.95142 -3.84574 0)
(4.37516 -4.27459 0)
(3.66061 -4.56664 0)
(2.85223 -4.70507 0)
(2.0004 -4.67318 0)
(1.14746 -4.47283 0)
(0.32373 -4.11957 0)
(-0.456022 -3.63547 0)
(-1.1933 -3.0387 0)
(-1.87872 -2.33139 0)
(-2.45719 -1.5264 0)
(-2.93864 -0.717839 0)
(-3.33093 0.0673228 0)
(-3.6233 0.843734 0)
(-3.80859 1.60764 0)
(-3.8672 2.3254 0)
(-3.79194 2.98048 0)
(-3.53899 3.4806 0)
(-3.05002 3.83699 0)
(-2.66313 4.11404 0)
(-1.62092 4.11993 0)
(17.5514 -9.11537 0)
(15.2422 -11.0236 0)
(12.5324 -12.7604 0)
(9.47323 -14.2403 0)
(6.15026 -15.2996 0)
(2.70204 -15.7583 0)
(-0.751663 -15.5348 0)
(-4.13727 -14.6252 0)
(-7.34335 -13.0492 0)
(-10.2161 -10.8576 0)
(-12.6878 -8.24826 0)
(-14.7254 -5.41214 0)
(-16.3143 -2.46806 0)
(-17.4503 0.535501 0)
(-18.0977 3.52565 0)
(-18.1801 6.34694 0)
(-17.5531 8.7738 0)
(-16.1585 10.647 0)
(-14.1562 11.9963 0)
(-11.6292 12.8305 0)
(-8.72418 13.1537 0)
(-5.6087 12.9816 0)
(-2.4035 12.3715 0)
(0.866987 11.3774 0)
(4.14925 9.95111 0)
(7.14815 8.06921 0)
(9.76858 6.11482 0)
(11.8858 4.19252 0)
(13.421 2.31015 0)
(14.3849 0.48028 0)
(14.813 -1.25281 0)
(14.6644 -2.84772 0)
(14.0576 -4.31344 0)
(13.0545 -5.65789 0)
(11.7072 -6.87934 0)
(10.0614 -7.96075 0)
(8.16089 -8.87364 0)
(6.06761 -9.56708 0)
(3.84231 -9.96842 0)
(1.56864 -10.0063 0)
(-0.700369 -9.65417 0)
(-2.92421 -8.90566 0)
(-5.01428 -7.75166 0)
(-6.87947 -6.26613 0)
(-8.49556 -4.59017 0)
(-9.82863 -2.80703 0)
(-10.8656 -0.956053 0)
(-11.6025 0.933423 0)
(-12.0042 2.78793 0)
(-12.0055 4.50422 0)
(-11.4964 5.95236 0)
(-10.5199 7.08159 0)
(-9.15229 7.9027 0)
(-7.46043 8.41183 0)
(-5.54487 8.5934 0)
(-3.50894 8.45388 0)
(-1.41121 8.03695 0)
(0.735427 7.36558 0)
(2.8764 6.39597 0)
(4.82246 5.12277 0)
(6.52775 3.78805 0)
(7.91815 2.46658 0)
(8.94151 1.16954 0)
(9.59438 -0.0892292 0)
(9.88807 -1.27195 0)
(9.79009 -2.34295 0)
(9.36003 -3.29623 0)
(8.65169 -4.13252 0)
(7.7034 -4.85299 0)
(6.55578 -5.45328 0)
(5.24845 -5.91296 0)
(3.83275 -6.20381 0)
(2.36092 -6.29763 0)
(0.878019 -6.17353 0)
(-0.602268 -5.82572 0)
(-2.05317 -5.2409 0)
(-3.39539 -4.40586 0)
(-4.59767 -3.42083 0)
(-5.63946 -2.3587 0)
(-6.49479 -1.25043 0)
(-7.15091 -0.110727 0)
(-7.59713 1.02464 0)
(-7.80353 2.10426 0)
(-7.71308 3.068 0)
(-7.2819 3.85163 0)
(-6.58559 4.45781 0)
(-5.65314 4.88554 0)
(-4.54066 5.12991 0)
(-3.31179 5.18094 0)
(-2.02616 5.0504 0)
(-0.702884 4.76663 0)
(0.659286 4.32922 0)
(1.99729 3.67874 0)
(3.20338 2.86348 0)
(4.26509 2.0301 0)
(5.13038 1.20691 0)
(5.7694 0.394505 0)
(6.17964 -0.389918 0)
(6.36083 -1.11863 0)
(6.2823 -1.76547 0)
(5.98313 -2.32427 0)
(5.50008 -2.79529 0)
(4.86129 -3.18214 0)
(4.09909 -3.48258 0)
(3.24616 -3.68132 0)
(2.33904 -3.765 0)
(1.41148 -3.7254 0)
(0.469846 -3.56204 0)
(-0.479287 -3.26314 0)
(-1.39242 -2.80182 0)
(-2.2266 -2.21803 0)
(-2.97352 -1.58134 0)
(-3.60735 -0.915753 0)
(-4.11105 -0.229485 0)
(-4.47784 0.463267 0)
(-4.69724 1.13312 0)
(-4.74049 1.74874 0)
(-4.57549 2.27896 0)
(-4.20409 2.70553 0)
(-3.68561 3.01399 0)
(-2.9442 3.20448 0)
(-2.39505 3.39734 0)
(-1.05105 3.2846 0)
(15.9245 -6.98737 0)
(13.7449 -8.49211 0)
(11.1782 -9.85623 0)
(8.26193 -11.0215 0)
(5.05364 -11.8724 0)
(1.64076 -12.2365 0)
(-1.88269 -11.9709 0)
(-5.37003 -11.0852 0)
(-8.67826 -9.71444 0)
(-11.6584 -7.91366 0)
(-14.2025 -5.76798 0)
(-16.2396 -3.38773 0)
(-17.7233 -0.894721 0)
(-18.5948 1.56469 0)
(-18.7147 3.8327 0)
(-17.9709 5.76464 0)
(-16.5149 7.31981 0)
(-14.4164 8.4817 0)
(-11.811 9.25245 0)
(-8.86648 9.65555 0)
(-5.74572 9.73486 0)
(-2.54427 9.50602 0)
(0.735502 8.91579 0)
(3.88185 7.80955 0)
(6.72371 6.5562 0)
(9.13841 5.2848 0)
(11.0297 3.98942 0)
(12.3936 2.67308 0)
(13.2636 1.36389 0)
(13.6649 0.0983751 0)
(13.597 -1.09679 0)
(13.1801 -2.24288 0)
(12.4263 -3.35049 0)
(11.3636 -4.39038 0)
(10.0237 -5.33136 0)
(8.43431 -6.15647 0)
(6.62258 -6.84798 0)
(4.62291 -7.38182 0)
(2.48212 -7.68977 0)
(0.243301 -7.68641 0)
(-2.04718 -7.28008 0)
(-4.27941 -6.5482 0)
(-6.364 -5.56484 0)
(-8.20971 -4.36107 0)
(-9.75036 -2.98423 0)
(-10.9468 -1.49604 0)
(-11.7618 0.025758 0)
(-12.1445 1.49334 0)
(-11.9704 2.81039 0)
(-11.3194 3.93276 0)
(-10.2348 4.84325 0)
(-8.78113 5.54149 0)
(-7.04721 6.02153 0)
(-5.13146 6.28836 0)
(-3.11095 6.35096 0)
(-1.01972 6.19535 0)
(1.10156 5.74855 0)
(3.09401 5.00369 0)
(4.88707 4.18107 0)
(6.39635 3.323 0)
(7.56434 2.42907 0)
(8.38883 1.50765 0)
(8.88774 0.590701 0)
(9.05562 -0.28428 0)
(8.92165 -1.09571 0)
(8.54585 -1.85368 0)
(7.9427 -2.56103 0)
(7.13563 -3.19565 0)
(6.15186 -3.73599 0)
(5.01808 -4.17666 0)
(3.76229 -4.51374 0)
(2.4148 -4.73072 0)
(0.99899 -4.79069 0)
(-0.469114 -4.63979 0)
(-1.92773 -4.23683 0)
(-3.3207 -3.68431 0)
(-4.58502 -3.00869 0)
(-5.66399 -2.22726 0)
(-6.5241 -1.36789 0)
(-7.14307 -0.471787 0)
(-7.49841 0.407158 0)
(-7.53175 1.21653 0)
(-7.25566 1.92435 0)
(-6.71343 2.52082 0)
(-5.93275 3.00638 0)
(-4.95943 3.37728 0)
(-3.85083 3.62704 0)
(-2.65862 3.76214 0)
(-1.41088 3.77951 0)
(-0.113174 3.65011 0)
(1.17105 3.30208 0)
(2.363 2.82979 0)
(3.42537 2.32041 0)
(4.30293 1.78553 0)
(4.96804 1.22338 0)
(5.42302 0.643613 0)
(5.67548 0.0746625 0)
(5.70272 -0.455632 0)
(5.55354 -0.93989 0)
(5.2462 -1.38306 0)
(4.79616 -1.78456 0)
(4.22126 -2.13018 0)
(3.54356 -2.40876 0)
(2.78588 -2.62125 0)
(1.96827 -2.76458 0)
(1.10413 -2.82223 0)
(0.198384 -2.76373 0)
(-0.71632 -2.54383 0)
(-1.59963 -2.22449 0)
(-2.4157 -1.83725 0)
(-3.12357 -1.39058 0)
(-3.6965 -0.894577 0)
(-4.12046 -0.367743 0)
(-4.38353 0.15901 0)
(-4.46481 0.654715 0)
(-4.34051 1.09553 0)
(-4.05737 1.47711 0)
(-3.62002 1.79728 0)
(-3.04437 2.05285 0)
(-2.38357 2.22541 0)
(-1.6174 2.39863 0)
(-0.970154 2.46958 0)
(0.337014 2.27441 0)
(12.1025 -5.09164 0)
(10.2759 -6.19289 0)
(8.10586 -7.16997 0)
(5.61946 -7.98701 0)
(2.85072 -8.56216 0)
(-0.163327 -8.71092 0)
(-3.25854 -8.34908 0)
(-6.26683 -7.63181 0)
(-9.03453 -6.5634 0)
(-11.4298 -5.18349 0)
(-13.3292 -3.5744 0)
(-14.6438 -1.84249 0)
(-15.313 -0.111799 0)
(-15.2098 1.4878 0)
(-14.5023 2.89797 0)
(-13.2285 4.10591 0)
(-11.4861 5.08691 0)
(-9.39507 5.81677 0)
(-7.08093 6.31703 0)
(-4.64828 6.61941 0)
(-2.16635 6.69756 0)
(0.325442 6.44204 0)
(2.67354 5.87086 0)
(4.7716 5.22721 0)
(6.53423 4.50711 0)
(7.94467 3.69498 0)
(9.01534 2.82416 0)
(9.76045 1.92522 0)
(10.197 1.01734 0)
(10.3056 0.118875 0)
(10.1576 -0.762243 0)
(9.75196 -1.6237 0)
(9.09485 -2.44634 0)
(8.19667 -3.20855 0)
(7.07295 -3.89267 0)
(5.74457 -4.48836 0)
(4.23384 -4.98372 0)
(2.56002 -5.34913 0)
(0.737069 -5.5167 0)
(-1.17287 -5.37752 0)
(-3.06272 -5.01338 0)
(-4.83656 -4.4589 0)
(-6.40713 -3.71779 0)
(-7.70518 -2.82269 0)
(-8.67301 -1.82659 0)
(-9.27288 -0.789799 0)
(-9.444 0.21987 0)
(-9.21493 1.1459 0)
(-8.6435 1.98153 0)
(-7.764 2.7207 0)
(-6.6327 3.33638 0)
(-5.31562 3.81778 0)
(-3.87356 4.17233 0)
(-2.35232 4.39134 0)
(-0.786125 4.42629 0)
(0.761425 4.20991 0)
(2.20854 3.87012 0)
(3.49043 3.46041 0)
(4.55861 2.96857 0)
(5.40472 2.39689 0)
(6.02905 1.77509 0)
(6.43566 1.13028 0)
(6.61645 0.48446 0)
(6.59398 -0.143016 0)
(6.39353 -0.747184 0)
(6.02058 -1.31901 0)
(5.48631 -1.84237 0)
(4.80382 -2.30264 0)
(3.99136 -2.69264 0)
(3.06836 -3.01018 0)
(2.05279 -3.24915 0)
(0.960314 -3.38769 0)
(-0.189579 -3.37669 0)
(-1.33838 -3.18885 0)
(-2.43282 -2.89801 0)
(-3.41615 -2.50652 0)
(-4.24495 -2.02107 0)
(-4.8868 -1.46694 0)
(-5.31962 -0.875586 0)
(-5.5171 -0.280404 0)
(-5.47502 0.283508 0)
(-5.23674 0.804495 0)
(-4.81594 1.28238 0)
(-4.23882 1.70359 0)
(-3.53793 2.05328 0)
(-2.74556 2.32986 0)
(-1.88874 2.5321 0)
(-0.986132 2.6417 0)
(-0.0595365 2.61279 0)
(0.841201 2.4554 0)
(1.67517 2.24607 0)
(2.40008 1.98531 0)
(2.99678 1.66558 0)
(3.45982 1.2963 0)
(3.78656 0.89972 0)
(3.97646 0.494216 0)
(4.01934 0.097906 0)
(3.94713 -0.281588 0)
(3.76141 -0.642809 0)
(3.47115 -0.974622 0)
(3.08704 -1.26723 0)
(2.62039 -1.51531 0)
(2.0847 -1.71677 0)
(1.49325 -1.87027 0)
(0.855796 -1.96587 0)
(0.181759 -1.97708 0)
(-0.499029 -1.87943 0)
(-1.15277 -1.72273 0)
(-1.74413 -1.51009 0)
(-2.24766 -1.24049 0)
(-2.64557 -0.924846 0)
(-2.92389 -0.58129 0)
(-3.07477 -0.227781 0)
(-3.07845 0.116172 0)
(-2.96848 0.437388 0)
(-2.74775 0.736887 0)
(-2.43171 1.00991 0)
(-2.03059 1.24159 0)
(-1.5599 1.42983 0)
(-1.06152 1.56973 0)
(-0.460392 1.67763 0)
(0.034147 1.6732 0)
(0.916735 1.52693 0)
(7.88552 -3.61886 0)
(6.5718 -4.40708 0)
(5.00564 -5.08953 0)
(3.209 -5.62768 0)
(1.20051 -5.96869 0)
(-0.948655 -5.99281 0)
(-3.07479 -5.72417 0)
(-5.06351 -5.22267 0)
(-6.81488 -4.49582 0)
(-8.23852 -3.58058 0)
(-9.26315 -2.53142 0)
(-9.85244 -1.41233 0)
(-9.95431 -0.291191 0)
(-9.67781 0.784236 0)
(-9.04223 1.78692 0)
(-8.10183 2.67346 0)
(-6.92122 3.41394 0)
(-5.56453 3.99263 0)
(-4.09111 4.40579 0)
(-2.54554 4.65063 0)
(-0.960221 4.71387 0)
(0.583 4.55333 0)
(1.99539 4.27008 0)
(3.25153 3.85908 0)
(4.3317 3.34618 0)
(5.22536 2.76455 0)
(5.9233 2.13775 0)
(6.42042 1.48344 0)
(6.72135 0.817729 0)
(6.81036 0.149619 0)
(6.71736 -0.510348 0)
(6.43707 -1.14969 0)
(5.97209 -1.75619 0)
(5.33231 -2.31777 0)
(4.53053 -2.82175 0)
(3.58243 -3.25123 0)
(2.50584 -3.59001 0)
(1.31355 -3.82111 0)
(0.0307201 -3.90331 0)
(-1.26629 -3.78892 0)
(-2.50051 -3.54108 0)
(-3.61719 -3.15986 0)
(-4.56784 -2.65829 0)
(-5.31055 -2.05982 0)
(-5.81728 -1.39491 0)
(-6.0664 -0.697343 0)
(-6.06468 0.000500382 0)
(-5.85023 0.675908 0)
(-5.43586 1.30652 0)
(-4.84797 1.86836 0)
(-4.11633 2.34337 0)
(-3.27213 2.72189 0)
(-2.34457 2.99745 0)
(-1.35958 3.16085 0)
(-0.353249 3.18812 0)
(0.621136 3.08622 0)
(1.52058 2.89781 0)
(2.3207 2.61045 0)
(3.00783 2.24809 0)
(3.56919 1.83302 0)
(3.99333 1.38262 0)
(4.27672 0.912152 0)
(4.41288 0.432789 0)
(4.41111 -0.0417645 0)
(4.28241 -0.498253 0)
(4.02803 -0.926743 0)
(3.65685 -1.31883 0)
(3.18033 -1.66642 0)
(2.61184 -1.96032 0)
(1.96659 -2.1937 0)
(1.25941 -2.36005 0)
(0.503956 -2.4485 0)
(-0.276718 -2.4449 0)
(-1.02958 -2.32198 0)
(-1.72221 -2.11895 0)
(-2.33122 -1.84501 0)
(-2.83171 -1.51024 0)
(-3.20519 -1.12888 0)
(-3.44244 -0.718393 0)
(-3.5311 -0.294973 0)
(-3.49354 0.123808 0)
(-3.33553 0.523488 0)
(-3.06738 0.889311 0)
(-2.70249 1.21012 0)
(-2.25634 1.4776 0)
(-1.74534 1.68862 0)
(-1.18404 1.83765 0)
(-0.588619 1.91418 0)
(0.0103015 1.90098 0)
(0.582697 1.82669 0)
(1.10783 1.6879 0)
(1.57209 1.49238 0)
(1.96502 1.25499 0)
(2.2766 0.98776 0)
(2.49991 0.701622 0)
(2.63317 0.406158 0)
(2.67206 0.110098 0)
(2.63132 -0.177339 0)
(2.51048 -0.448236 0)
(2.31533 -0.69626 0)
(2.05371 -0.916751 0)
(1.73459 -1.10496 0)
(1.36793 -1.25579 0)
(0.963352 -1.36474 0)
(0.528315 -1.42883 0)
(0.0756875 -1.4373 0)
(-0.368254 -1.37653 0)
(-0.780863 -1.26713 0)
(-1.14755 -1.11323 0)
(-1.45584 -0.921133 0)
(-1.69454 -0.698613 0)
(-1.85576 -0.455166 0)
(-1.93656 -0.20096 0)
(-1.93397 0.0551047 0)
(-1.86117 0.302855 0)
(-1.71858 0.532434 0)
(-1.51423 0.736959 0)
(-1.25261 0.908216 0)
(-0.942738 1.04544 0)
(-0.607231 1.14192 0)
(-0.195496 1.20518 0)
(0.139034 1.20787 0)
(0.714397 1.08016 0)
(5.34076 -2.67933 0)
(4.44284 -3.25229 0)
(3.37424 -3.73629 0)
(2.14758 -4.08891 0)
(0.789713 -4.31713 0)
(-0.615204 -4.33273 0)
(-1.98232 -4.15112 0)
(-3.25075 -3.80748 0)
(-4.36834 -3.30469 0)
(-5.28513 -2.66415 0)
(-5.96266 -1.92111 0)
(-6.38394 -1.11804 0)
(-6.53372 -0.290477 0)
(-6.42935 0.519269 0)
(-6.09386 1.2705 0)
(-5.54785 1.93417 0)
(-4.82522 2.48961 0)
(-3.96284 2.92353 0)
(-2.99759 3.23009 0)
(-1.96499 3.41452 0)
(-0.89451 3.47631 0)
(0.163787 3.39188 0)
(1.15028 3.17086 0)
(2.04578 2.86752 0)
(2.83551 2.49702 0)
(3.49957 2.0732 0)
(4.02662 1.60982 0)
(4.41159 1.12215 0)
(4.65531 0.623466 0)
(4.7514 0.120159 0)
(4.70426 -0.378179 0)
(4.52051 -0.860449 0)
(4.20071 -1.3167 0)
(3.75262 -1.73693 0)
(3.1872 -2.11109 0)
(2.51899 -2.42537 0)
(1.76014 -2.66197 0)
(0.923252 -2.82248 0)
(0.042102 -2.87329 0)
(-0.836656 -2.79253 0)
(-1.66757 -2.61583 0)
(-2.42306 -2.34309 0)
(-3.07503 -1.98143 0)
(-3.5976 -1.54623 0)
(-3.97294 -1.05943 0)
(-4.19411 -0.54318 0)
(-4.24731 -0.0191406 0)
(-4.15149 0.487813 0)
(-3.91179 0.958207 0)
(-3.54137 1.37718 0)
(-3.05856 1.73168 0)
(-2.484 2.0132 0)
(-1.83845 2.21855 0)
(-1.14305 2.34539 0)
(-0.429348 2.38408 0)
(0.276867 2.31851 0)
(0.942545 2.16775 0)
(1.54283 1.95631 0)
(2.06958 1.69443 0)
(2.50782 1.39071 0)
(2.84758 1.057 0)
(3.08508 0.706059 0)
(3.21902 0.346998 0)
(3.24212 -0.0112069 0)
(3.16901 -0.356371 0)
(2.99977 -0.680335 0)
(2.74146 -0.976886 0)
(2.40251 -1.23823 0)
(1.99372 -1.45789 0)
(1.52773 -1.63173 0)
(1.01935 -1.75441 0)
(0.475242 -1.81865 0)
(-0.0837522 -1.81134 0)
(-0.623115 -1.72421 0)
(-1.12017 -1.57333 0)
(-1.56144 -1.37443 0)
(-1.9313 -1.13049 0)
(-2.21748 -0.851187 0)
(-2.4129 -0.54952 0)
(-2.51334 -0.236075 0)
(-2.51516 0.0758926 0)
(-2.42933 0.371995 0)
(-2.25886 0.643219 0)
(-2.01338 0.882229 0)
(-1.70396 1.08295 0)
(-1.34224 1.24003 0)
(-0.939683 1.35129 0)
(-0.509258 1.41208 0)
(-0.0756252 1.41051 0)
(0.343157 1.3526 0)
(0.735352 1.25239 0)
(1.08786 1.11395 0)
(1.38983 0.943854 0)
(1.63324 0.748923 0)
(1.81328 0.537672 0)
(1.92876 0.318266 0)
(1.97436 0.0969202 0)
(1.95759 -0.118786 0)
(1.87986 -0.322632 0)
(1.74507 -0.509775 0)
(1.55896 -0.675894 0)
(1.32875 -0.817602 0)
(1.0629 -0.931194 0)
(0.767278 -1.01177 0)
(0.448258 -1.05804 0)
(0.11835 -1.05986 0)
(-0.204337 -1.01348 0)
(-0.504781 -0.934079 0)
(-0.774025 -0.822801 0)
(-1.0034 -0.682603 0)
(-1.18496 -0.518996 0)
(-1.31288 -0.339483 0)
(-1.38503 -0.151716 0)
(-1.39704 0.0374879 0)
(-1.35268 0.220086 0)
(-1.25497 0.389267 0)
(-1.10914 0.540165 0)
(-0.918543 0.666184 0)
(-0.691775 0.764585 0)
(-0.438803 0.826208 0)
(-0.139957 0.867315 0)
(0.117841 0.862021 0)
(0.541308 0.734678 0)
(4.1822 -1.9977 0)
(3.48104 -2.41661 0)
(2.66687 -2.77486 0)
(1.70383 -3.05354 0)
(0.644131 -3.17344 0)
(-0.405813 -3.15729 0)
(-1.43477 -3.02714 0)
(-2.40196 -2.77374 0)
(-3.26599 -2.4049 0)
(-3.98907 -1.93856 0)
(-4.54102 -1.39988 0)
(-4.90269 -0.818046 0)
(-5.06382 -0.219064 0)
(-5.01759 0.367253 0)
(-4.78829 0.914727 0)
(-4.3873 1.40256 0)
(-3.83958 1.81364 0)
(-3.17577 2.13635 0)
(-2.42588 2.36421 0)
(-1.61772 2.498 0)
(-0.776949 2.54318 0)
(0.0591798 2.4934 0)
(0.85446 2.3473 0)
(1.57504 2.12046 0)
(2.21571 1.84818 0)
(2.75949 1.53578 0)
(3.19517 1.19334 0)
(3.51681 0.831504 0)
(3.7224 0.459674 0)
(3.80833 0.0843743 0)
(3.77375 -0.286287 0)
(3.62584 -0.644733 0)
(3.36503 -0.982349 0)
(2.99936 -1.29102 0)
(2.54229 -1.56529 0)
(2.01157 -1.80042 0)
(1.39167 -1.98748 0)
(0.707889 -2.08447 0)
(0.0127275 -2.09942 0)
(-0.67667 -2.04489 0)
(-1.33386 -1.9155 0)
(-1.93623 -1.7143 0)
(-2.46132 -1.449 0)
(-2.88825 -1.13164 0)
(-3.20141 -0.777217 0)
(-3.39301 -0.401556 0)
(-3.45138 -0.0200135 0)
(-3.38627 0.351179 0)
(-3.20266 0.697525 0)
(-2.91096 1.00645 0)
(-2.52633 1.2683 0)
(-2.06522 1.47565 0)
(-1.54514 1.62441 0)
(-0.983582 1.71453 0)
(-0.398388 1.74654 0)
(0.174288 1.71673 0)
(0.71385 1.60101 0)
(1.215 1.44435 0)
(1.65741 1.25276 0)
(2.0275 1.03057 0)
(2.31779 0.786036 0)
(2.52404 0.52794 0)
(2.64518 0.263708 0)
(2.6758 -0.00041482 0)
(2.62325 -0.25591 0)
(2.4906 -0.495654 0)
(2.28341 -0.71447 0)
(2.00974 -0.907214 0)
(1.6779 -1.06933 0)
(1.29817 -1.19801 0)
(0.882396 -1.29048 0)
(0.443263 -1.34008 0)
(-0.00577649 -1.32689 0)
(-0.443801 -1.2579 0)
(-0.849266 -1.15256 0)
(-1.20971 -1.0089 0)
(-1.51487 -0.831503 0)
(-1.7547 -0.628232 0)
(-1.9223 -0.408098 0)
(-2.01501 -0.179429 0)
(-2.02603 0.0488255 0)
(-1.96545 0.266927 0)
(-1.83519 0.467545 0)
(-1.64241 0.643705 0)
(-1.39634 0.791012 0)
(-1.10671 0.905265 0)
(-0.785235 0.984108 0)
(-0.442825 1.02675 0)
(-0.0912181 1.03245 0)
(0.253327 0.99513 0)
(0.571603 0.919308 0)
(0.860217 0.818119 0)
(1.11032 0.694088 0)
(1.31401 0.552221 0)
(1.46682 0.398391 0)
(1.56686 0.238262 0)
(1.611 0.0761769 0)
(1.6021 -0.0822842 0)
(1.5425 -0.232219 0)
(1.4352 -0.369912 0)
(1.28523 -0.492274 0)
(1.09912 -0.597347 0)
(0.884591 -0.683332 0)
(0.641495 -0.745607 0)
(0.378386 -0.771034 0)
(0.112833 -0.766855 0)
(-0.145623 -0.737006 0)
(-0.387212 -0.680346 0)
(-0.604623 -0.599096 0)
(-0.790515 -0.496681 0)
(-0.938154 -0.377599 0)
(-1.04264 -0.247027 0)
(-1.10167 -0.110432 0)
(-1.1118 0.027045 0)
(-1.07594 0.160063 0)
(-0.996408 0.28339 0)
(-0.877018 0.39249 0)
(-0.720982 0.482059 0)
(-0.538505 0.550496 0)
(-0.329372 0.586127 0)
(-0.102273 0.604165 0)
(0.11344 0.595193 0)
(0.43493 0.470482 0)
(3.7157 -1.39932 0)
(3.06855 -1.68331 0)
(2.30748 -1.93218 0)
(1.46879 -2.12894 0)
(0.571185 -2.17045 0)
(-0.371827 -2.16749 0)
(-1.28245 -2.07804 0)
(-2.13206 -1.90013 0)
(-2.88903 -1.64419 0)
(-3.52132 -1.32323 0)
(-4.00418 -0.954007 0)
(-4.32015 -0.555722 0)
(-4.45929 -0.1465 0)
(-4.42067 0.255751 0)
(-4.21876 0.632677 0)
(-3.86449 0.967557 0)
(-3.37902 1.24883 0)
(-2.78804 1.46888 0)
(-2.12069 1.62607 0)
(-1.40274 1.71787 0)
(-0.663116 1.74246 0)
(0.076404 1.70325 0)
(0.792927 1.61943 0)
(1.44017 1.46071 0)
(2.00961 1.27343 0)
(2.49273 1.05846 0)
(2.8788 0.821697 0)
(3.1617 0.570778 0)
(3.33884 0.312537 0)
(3.40515 0.0522852 0)
(3.36469 -0.204845 0)
(3.22108 -0.452793 0)
(2.97795 -0.684899 0)
(2.64164 -0.896572 0)
(2.21968 -1.08562 0)
(1.72122 -1.25213 0)
(1.17083 -1.37705 0)
(0.579527 -1.41516 0)
(-0.0453207 -1.43719 0)
(-0.654942 -1.40346 0)
(-1.23382 -1.31345 0)
(-1.76336 -1.174 0)
(-2.22302 -0.991355 0)
(-2.59535 -0.773688 0)
(-2.86738 -0.531115 0)
(-3.03223 -0.274459 0)
(-3.07898 -0.0140795 0)
(-3.01912 0.239651 0)
(-2.8533 0.476598 0)
(-2.59122 0.688286 0)
(-2.24591 0.868206 0)
(-1.83264 1.01054 0)
(-1.3685 1.11108 0)
(-0.871041 1.16867 0)
(-0.358659 1.1854 0)
(0.148745 1.1609 0)
(0.638208 1.09484 0)
(1.08382 0.987231 0)
(1.47633 0.858467 0)
(1.80632 0.70799 0)
(2.0658 0.541441 0)
(2.25077 0.364892 0)
(2.35934 0.183781 0)
(2.38772 0.00250984 0)
(2.34061 -0.17324 0)
(2.22215 -0.338206 0)
(2.03687 -0.487897 0)
(1.79197 -0.620037 0)
(1.4954 -0.731111 0)
(1.15756 -0.818541 0)
(0.789908 -0.881928 0)
(0.399887 -0.911443 0)
(0.00428137 -0.895023 0)
(-0.379274 -0.855617 0)
(-0.734765 -0.785545 0)
(-1.05187 -0.687699 0)
(-1.32066 -0.567028 0)
(-1.53233 -0.428844 0)
(-1.6805 -0.279015 0)
(-1.76266 -0.123547 0)
(-1.77391 0.0317129 0)
(-1.72162 0.180252 0)
(-1.60797 0.317216 0)
(-1.43875 0.438231 0)
(-1.22241 0.539005 0)
(-0.967992 0.616259 0)
(-0.686498 0.668738 0)
(-0.387951 0.696759 0)
(-0.0842498 0.699897 0)
(0.216651 0.678459 0)
(0.501006 0.629417 0)
(0.753871 0.559555 0)
(0.973259 0.475802 0)
(1.15253 0.379678 0)
(1.28746 0.275049 0)
(1.37617 0.165834 0)
(1.41587 0.0552636 0)
(1.40883 -0.0530935 0)
(1.35727 -0.155855 0)
(1.26362 -0.250027 0)
(1.13216 -0.333679 0)
(0.967946 -0.406295 0)
(0.77652 -0.467298 0)
(0.563556 -0.507181 0)
(0.337587 -0.517212 0)
(0.106257 -0.519269 0)
(-0.116764 -0.500795 0)
(-0.325654 -0.462579 0)
(-0.51358 -0.407567 0)
(-0.673652 -0.338311 0)
(-0.800266 -0.257842 0)
(-0.8893 -0.169628 0)
(-0.938622 -0.0773859 0)
(-0.945566 0.0155523 0)
(-0.913011 0.1056 0)
(-0.842637 0.189135 0)
(-0.737379 0.262473 0)
(-0.601648 0.321924 0)
(-0.444285 0.36602 0)
(-0.264821 0.387755 0)
(-0.0821367 0.3886 0)
(0.101443 0.374353 0)
(0.337446 0.261201 0)
(3.4803 -0.799025 0)
(2.84876 -0.964862 0)
(2.11995 -1.10991 0)
(1.33378 -1.2135 0)
(0.473546 -1.29935 0)
(-0.423636 -1.28667 0)
(-1.26575 -1.22147 0)
(-2.05332 -1.11342 0)
(-2.75381 -0.964434 0)
(-3.33623 -0.780132 0)
(-3.77794 -0.569151 0)
(-4.0645 -0.341431 0)
(-4.18565 -0.106306 0)
(-4.14327 0.126045 0)
(-3.94735 0.34445 0)
(-3.60887 0.539809 0)
(-3.14746 0.706019 0)
(-2.58627 0.83815 0)
(-1.95155 0.932876 0)
(-1.27195 0.990952 0)
(-0.583455 1.01573 0)
(0.116557 1.0243 0)
(0.805197 0.969846 0)
(1.4131 0.867284 0)
(1.94797 0.75784 0)
(2.40323 0.63375 0)
(2.76655 0.497588 0)
(3.03075 0.353073 0)
(3.19269 0.203693 0)
(3.24759 0.0521344 0)
(3.19995 -0.0982324 0)
(3.04984 -0.243627 0)
(2.80386 -0.380871 0)
(2.47079 -0.506746 0)
(2.06088 -0.618612 0)
(1.58845 -0.717976 0)
(1.07542 -0.794754 0)
(0.499115 -0.866446 0)
(-0.103473 -0.864235 0)
(-0.664576 -0.830059 0)
(-1.20079 -0.772074 0)
(-1.69212 -0.689562 0)
(-2.11735 -0.584218 0)
(-2.46033 -0.459784 0)
(-2.70936 -0.321433 0)
(-2.85828 -0.175052 0)
(-2.89867 -0.025494 0)
(-2.8388 0.12131 0)
(-2.67951 0.258859 0)
(-2.43051 0.382373 0)
(-2.10402 0.487452 0)
(-1.71463 0.571158 0)
(-1.27821 0.631754 0)
(-0.811976 0.667857 0)
(-0.335994 0.680369 0)
(0.134294 0.678232 0)
(0.599683 0.646541 0)
(1.01693 0.580571 0)
(1.38054 0.505533 0)
(1.68754 0.419076 0)
(1.92928 0.32367 0)
(2.10128 0.222301 0)
(2.20124 0.118377 0)
(2.22701 0.0142216 0)
(2.18126 -0.0875436 0)
(2.0678 -0.183725 0)
(1.89117 -0.271938 0)
(1.65862 -0.34947 0)
(1.37883 -0.413705 0)
(1.06207 -0.464175 0)
(0.719075 -0.504293 0)
(0.357124 -0.528189 0)
(-0.0121374 -0.527837 0)
(-0.369031 -0.501888 0)
(-0.695502 -0.458715 0)
(-0.986922 -0.401482 0)
(-1.23363 -0.331897 0)
(-1.42727 -0.252753 0)
(-1.56247 -0.167289 0)
(-1.63635 -0.0786369 0)
(-1.64494 0.0105297 0)
(-1.59447 0.0968078 0)
(-1.48657 0.17648 0)
(-1.32753 0.246717 0)
(-1.12485 0.305787 0)
(-0.886804 0.352012 0)
(-0.623506 0.38399 0)
(-0.34585 0.401148 0)
(-0.0681111 0.406038 0)
(0.212575 0.40467 0)
(0.479811 0.371179 0)
(0.712612 0.329337 0)
(0.915033 0.281187 0)
(1.08095 0.226385 0)
(1.20592 0.166767 0)
(1.28785 0.104333 0)
(1.32453 0.0407152 0)
(1.31741 -0.0220292 0)
(1.26837 -0.0818535 0)
(1.17988 -0.137069 0)
(1.05625 -0.186038 0)
(0.902739 -0.227871 0)
(0.725207 -0.264942 0)
(0.532745 -0.292016 0)
(0.321014 -0.31366 0)
(0.101389 -0.309828 0)
(-0.10091 -0.294494 0)
(-0.291314 -0.270629 0)
(-0.463059 -0.238362 0)
(-0.609137 -0.198555 0)
(-0.724394 -0.152656 0)
(-0.805101 -0.102495 0)
(-0.849309 -0.0500367 0)
(-0.854959 0.0031017 0)
(-0.82444 0.0548072 0)
(-0.759448 0.102641 0)
(-0.662626 0.144567 0)
(-0.539447 0.178838 0)
(-0.395801 0.203223 0)
(-0.238105 0.215249 0)
(-0.0796571 0.212403 0)
(0.0831579 0.190081 0)
(0.230021 0.115171 0)
(3.56099 -0.246971 0)
(2.98772 -0.301356 0)
(2.302 -0.344323 0)
(1.52996 -0.377203 0)
(0.744015 -0.447697 0)
(-0.0557015 -0.418321 0)
(-0.885036 -0.393743 0)
(-1.6697 -0.355995 0)
(-2.37532 -0.30782 0)
(-2.97525 -0.250053 0)
(-3.44739 -0.18459 0)
(-3.77612 -0.114021 0)
(-3.95298 -0.0408347 0)
(-3.97336 0.032031 0)
(-3.8434 0.100892 0)
(-3.57498 0.162946 0)
(-3.18359 0.216181 0)
(-2.68914 0.259123 0)
(-2.11364 0.290826 0)
(-1.47989 0.311011 0)
(-0.807312 0.325122 0)
(-0.163179 0.347929 0)
(0.463433 0.319934 0)
(1.06925 0.282048 0)
(1.61813 0.246148 0)
(2.09435 0.206822 0)
(2.48725 0.16446 0)
(2.78892 0.119784 0)
(2.99446 0.0734349 0)
(3.10077 0.0259443 0)
(3.10592 -0.0216357 0)
(3.01365 -0.0681799 0)
(2.82439 -0.112548 0)
(2.54387 -0.153592 0)
(2.17947 -0.190462 0)
(1.73909 -0.221426 0)
(1.23211 -0.250936 0)
(0.730853 -0.314176 0)
(0.215555 -0.287151 0)
(-0.340067 -0.26924 0)
(-0.87532 -0.248136 0)
(-1.36862 -0.220546 0)
(-1.80356 -0.187145 0)
(-2.16549 -0.148554 0)
(-2.44251 -0.106 0)
(-2.62688 -0.061023 0)
(-2.71299 -0.0145814 0)
(-2.70085 0.0313124 0)
(-2.59428 0.0743596 0)
(-2.39968 0.113172 0)
(-2.12729 0.146661 0)
(-1.7895 0.173874 0)
(-1.40044 0.194117 0)
(-0.975349 0.206884 0)
(-0.528944 0.211823 0)
(-0.0881868 0.214916 0)
(0.339703 0.210684 0)
(0.738397 0.186225 0)
(1.10268 0.161776 0)
(1.41795 0.134518 0)
(1.67537 0.104958 0)
(1.86911 0.073943 0)
(1.99572 0.0420165 0)
(2.05392 0.0095654 0)
(2.04305 -0.0224835 0)
(1.96655 -0.0529075 0)
(1.82743 -0.0808798 0)
(1.63168 -0.105501 0)
(1.38648 -0.126417 0)
(1.09991 -0.142717 0)
(0.780396 -0.153862 0)
(0.446804 -0.163273 0)
(0.109429 -0.173967 0)
(-0.218808 -0.159362 0)
(-0.537551 -0.145787 0)
(-0.827445 -0.12704 0)
(-1.0777 -0.105218 0)
(-1.28031 -0.0808122 0)
(-1.42958 -0.0544642 0)
(-1.52193 -0.0271542 0)
(-1.55531 0.000546846 0)
(-1.53039 0.0275793 0)
(-1.45009 0.0524908 0)
(-1.31905 0.0747332 0)
(-1.14389 0.0937293 0)
(-0.932243 0.108754 0)
(-0.692378 0.119382 0)
(-0.432939 0.12515 0)
(-0.164062 0.128418 0)
(0.0954111 0.134623 0)
(0.342523 0.119778 0)
(0.576578 0.106044 0)
(0.784025 0.0907458 0)
(0.958688 0.0737279 0)
(1.09625 0.0553958 0)
(1.19387 0.0361702 0)
(1.25011 0.0163972 0)
(1.26387 -0.00334114 0)
(1.23703 -0.0222669 0)
(1.17113 -0.0398655 0)
(1.06948 -0.0556965 0)
(0.935929 -0.0692453 0)
(0.774181 -0.0798907 0)
(0.589876 -0.0895586 0)
(0.407726 -0.111887 0)
(0.221016 -0.101374 0)
(0.023101 -0.094541 0)
(-0.165685 -0.0861624 0)
(-0.337635 -0.0755236 0)
(-0.487205 -0.0630009 0)
(-0.609591 -0.0488109 0)
(-0.701042 -0.0334418 0)
(-0.759098 -0.0174506 0)
(-0.782458 -0.00117774 0)
(-0.770702 0.0148039 0)
(-0.725987 0.0296243 0)
(-0.650845 0.0426668 0)
(-0.549688 0.0531157 0)
(-0.427909 0.0602309 0)
(-0.293277 0.0637363 0)
(-0.154441 0.0607828 0)
(-0.0198123 0.0506397 0)
(0.0706972 0.0250539 0)
(-0.373241 -17.6153 0)
(-0.518776 -21.5369 0)
(-0.5474 -24.8453 0)
(-0.419969 -27.4898 0)
(-0.107781 -29.171 0)
(0.352484 -29.0895 0)
(0.775057 -27.8176 0)
(1.07975 -25.4682 0)
(1.22482 -22.1025 0)
(1.19818 -17.8627 0)
(0.98725 -13.1183 0)
(0.620453 -8.42153 0)
(0.251909 -4.40305 0)
(0.0444061 -1.78038 0)
(-0.240077 1.89488 0)
(-0.687009 7.15315 0)
(-1.02723 11.0551 0)
(-1.26714 14.5552 0)
(-1.39734 17.5262 0)
(-1.45447 19.965 0)
(-1.3614 21.8628 0)
(-1.10721 23.0706 0)
(-0.748002 23.0467 0)
(-0.401032 22.1269 0)
(-0.060734 20.312 0)
(0.25322 17.6633 0)
(0.508343 14.2945 0)
(0.657754 10.516 0)
(0.625481 6.81602 0)
(0.399056 3.65166 0)
(0.243599 1.42869 0)
(0.305132 -1.51006 0)
(0.327073 -5.66244 0)
(0.216785 -8.93543 0)
(0.106449 -11.8279 0)
(0.0355592 -14.3003 0)
(0.00795114 -16.3639 0)
(0.0478375 -17.9912 0)
(0.205154 -18.9436 0)
(0.391256 -18.8179 0)
(0.538958 -17.9356 0)
(0.63712 -16.3275 0)
(0.668464 -14.0702 0)
(0.618385 -11.2891 0)
(0.483291 -8.20441 0)
(0.286207 -5.1994 0)
(0.133036 -2.71391 0)
(0.0234205 -1.20035 0)
(-0.0878751 1.80799 0)
(-0.302321 4.91287 0)
(-0.504581 7.44836 0)
(-0.662042 9.67926 0)
(-0.769396 11.5536 0)
(-0.813863 13.0791 0)
(-0.806565 14.2393 0)
(-0.704923 14.8911 0)
(-0.54277 14.797 0)
(-0.374257 14.1534 0)
(-0.205687 12.945 0)
(-0.0430125 11.2171 0)
(0.101076 9.04838 0)
(0.201988 6.62635 0)
(0.212206 4.26709 0)
(0.11771 2.25141 0)
(0.0757184 0.829191 0)
(0.153455 -1.15862 0)
(0.204033 -3.65802 0)
(0.186741 -5.72247 0)
(0.166636 -7.5243 0)
(0.15958 -9.0525 0)
(0.164597 -10.3214 0)
(0.196291 -11.3093 0)
(0.259619 -11.8544 0)
(0.35487 -11.747 0)
(0.423576 -11.1712 0)
(0.458363 -10.1425 0)
(0.452804 -8.71753 0)
(0.405112 -6.98121 0)
(0.316136 -5.06814 0)
(0.198399 -3.21307 0)
(0.101953 -1.66629 0)
(0.0344167 -0.667361 0)
(-0.0343422 1.12296 0)
(-0.161747 3.03814 0)
(-0.285916 4.59698 0)
(-0.387382 5.95899 0)
(-0.461365 7.09839 0)
(-0.501816 8.0206 0)
(-0.49976 8.71329 0)
(-0.442606 9.0435 0)
(-0.360499 8.93593 0)
(-0.271696 8.49677 0)
(-0.180457 7.71021 0)
(-0.0923811 6.61156 0)
(-0.015692 5.27547 0)
(0.0405245 3.83557 0)
(0.0533534 2.46764 0)
(0.0166447 1.32943 0)
(0.0211226 0.553404 0)
(0.0720791 -0.934585 0)
(0.0972874 -2.31544 0)
(0.0992411 -3.51112 0)
(0.104309 -4.55484 0)
(0.115746 -5.43818 0)
(0.13531 -6.16712 0)
(0.166139 -6.71902 0)
(0.227909 -6.96168 0)
(0.27344 -6.83711 0)
(0.303296 -6.44262 0)
(0.313105 -5.77585 0)
(0.30408 -4.86491 0)
(0.272485 -3.78383 0)
(0.217356 -2.64208 0)
(0.152257 -1.55575 0)
(0.0811174 -0.643896 0)