/*--------------------------------*- C++ -*----------------------------------*\
| =========                 |                                                 |
| \\      /  F ield         | OpenFOAM: The Open Source CFD Toolbox           |
|  \\    /   O peration     | Version:  2206                                  |
|   \\  /    A nd           | Website:  www.openfoam.com                      |
|    \\/     M anipulation  |                                                 |
\*---------------------------------------------------------------------------*/
FoamFile
{
    version     2.0;
    format      ascii;
    arch        "LSB;label=32;scalar=64";
    class       volScalarField;
    location    "18.9999";
    object      p;
}
// * * * * * * * * * * * * * * * * * * * * * * * * * * * * * * * * * * * * * //

dimensions      [0 2 -2 0 0 0 0];

internalField   nonuniform List<scalar> 
4830
(
-0.00306264
-0.000443867
0.00178209
0.00370697
0.00510426
0.00602829
0.00653783
0.00667527
0.00649672
0.00607247
0.00547057
0.00476919
0.00403243
0.00330091
0.00262422
0.00204459
0.0015339
0.0011307
0.000809387
0.000530466
0.000250405
-8.05529e-05
-0.000521296
-0.00112927
-0.00196201
-0.00307397
-0.00450955
-0.00629239
-0.00847533
-0.0112741
-0.0146052
-0.0180901
-0.0217191
-0.0256674
-0.0298174
-0.0340508
-0.0382609
-0.0423257
-0.0461194
-0.0495199
-0.0524119
-0.0546916
-0.0562741
-0.0571108
-0.0571849
-0.0564974
-0.0550771
-0.0529782
-0.0502716
-0.0470429
-0.0433885
-0.0394083
-0.0352014
-0.0308616
-0.0264698
-0.0220785
-0.0177237
-0.0135589
-0.00982728
-0.00653528
-0.0036057
-0.00106923
0.00105201
0.00275786
0.00405646
0.00496442
0.00550697
0.00571651
0.00563119
0.00529331
0.00474769
0.00403913
0.00320952
0.00231453
0.00137457
0.000426089
-0.000507219
-0.00141201
-0.00228365
-0.00312261
-0.00393369
-0.00472729
-0.00551866
-0.00632775
-0.00718418
-0.00816371
-0.00934772
-0.0105562
-0.0116835
-0.0128501
-0.0140826
-0.0153471
-0.016616
-0.0178576
-0.019034
-0.020105
-0.0210299
-0.02177
-0.0222909
-0.0225597
-0.0225674
-0.0222997
-0.0217712
-0.0209966
-0.0199941
-0.0187963
-0.0174414
-0.0159681
-0.0144186
-0.0128384
-0.0112737
-0.00976666
-0.00835218
-0.00707556
-0.0058762
-0.00464386
-0.00377211
-0.00354851
-0.00315932
-0.00294837
-0.00295983
-0.00312641
-0.00341703
-0.003802
-0.00424309
-0.00469781
-0.00512209
-0.00547231
-0.00570891
-0.00579675
-0.0057201
-0.00544708
-0.00503354
-0.00437399
-0.00359125
-0.00272881
-0.00157773
-0.000778675
-0.00234368
0.000687365
0.00325832
0.0053961
0.00702869
0.00818114
0.00889646
0.00921868
0.00920461
0.00892052
0.00843343
0.00781214
0.00712701
0.00643066
0.00576197
0.00515868
0.00460582
0.00413267
0.00372336
0.00334446
0.00295745
0.00251452
0.00196029
0.0012404
0.000301122
-0.000909623
-0.0024355
-0.00430436
-0.00657528
-0.00942475
-0.0127984
-0.0163383
-0.0199964
-0.0239508
-0.0281015
-0.032329
-0.0365267
-0.0405741
-0.0443463
-0.0477218
-0.0505857
-0.0528336
-0.0543797
-0.0551742
-0.0552003
-0.0544584
-0.0529753
-0.0508043
-0.0480167
-0.0446981
-0.0409433
-0.0368513
-0.0325199
-0.0280394
-0.0234877
-0.018917
-0.0143801
-0.0100697
-0.00618322
-0.00269139
0.000450407
0.00320351
0.0055476
0.00747991
0.00900493
0.0101354
0.0108919
0.0113018
0.0113978
0.0112165
0.0107971
0.0101793
0.00940915
0.00852299
0.00754992
0.00651984
0.00545318
0.00436502
0.00326376
0.00215167
0.00102609
-0.000120425
-0.00129988
-0.00252893
-0.00384348
-0.00532261
-0.00695796
-0.00854682
-0.0100942
-0.0116963
-0.0133323
-0.0149673
-0.01657
-0.0181029
-0.0195243
-0.0207918
-0.0218637
-0.0227021
-0.0232733
-0.0235393
-0.0235209
-0.0231878
-0.0225693
-0.0216847
-0.0205577
-0.0192274
-0.0177367
-0.0161292
-0.0144495
-0.0127465
-0.0110663
-0.00946229
-0.00797586
-0.00660244
-0.00515359
-0.00388492
-0.00314279
-0.00264497
-0.00225903
-0.00205837
-0.00204808
-0.00219735
-0.00247672
-0.0028534
-0.00328947
-0.00374395
-0.00417466
-0.00454012
-0.00480273
-0.0049291
-0.00490146
-0.00470566
-0.00434643
-0.00381588
-0.00313482
-0.00234585
-0.00140837
-0.000606625
-0.00114799
0.00215104
0.00496696
0.00728643
0.00909049
0.0104009
0.0112573
0.0117067
0.0118057
0.0116182
0.0112109
0.0106509
0.0100034
0.00932462
0.0086568
0.00803091
0.00745494
0.00692472
0.00644746
0.00599552
0.00553099
0.0050093
0.00437944
0.00358954
0.00258828
0.00132597
-0.000240276
-0.00214352
-0.00444373
-0.00727984
-0.010624
-0.0141442
-0.0177661
-0.0216619
-0.0257486
-0.0299069
-0.034032
-0.0380068
-0.0417072
-0.0450129
-0.0478113
-0.0500005
-0.051496
-0.0522477
-0.0522363
-0.0514627
-0.049952
-0.0477561
-0.0449447
-0.0416013
-0.0378179
-0.03369
-0.0293113
-0.0247703
-0.0201435
-0.015484
-0.0108675
-0.00650787
-0.00254921
0.00105781
0.00432621
0.00721533
0.00970608
0.0117931
0.0134777
0.0147693
0.0156847
0.0162466
0.0164828
0.0164249
0.0161065
0.0155652
0.0148467
0.0139714
0.0129738
0.0118784
0.0107039
0.00946589
0.00817422
0.00683317
0.00544218
0.00399593
0.00248502
0.000893847
-0.000823751
-0.00272689
-0.00469748
-0.00660589
-0.00852588
-0.0104886
-0.0124564
-0.0143947
-0.0162666
-0.0180301
-0.019641
-0.0210549
-0.0222296
-0.0231276
-0.0237144
-0.0239722
-0.0238994
-0.0234988
-0.022794
-0.0218079
-0.0205718
-0.0191281
-0.0175234
-0.0158075
-0.0140299
-0.0122389
-0.0104838
-0.0088142
-0.00724168
-0.00564537
-0.00412715
-0.00303376
-0.00225651
-0.00167818
-0.00129009
-0.00109302
-0.00108239
-0.00123491
-0.00152029
-0.00190474
-0.00235042
-0.00281704
-0.00326379
-0.00365125
-0.00394347
-0.0041104
-0.00413149
-0.00400879
-0.00371101
-0.00330962
-0.00272615
-0.00201315
-0.00127403
-0.000437361
0.0004768
0.0039614
0.00692264
0.00934478
0.0112393
0.0126317
0.0135612
0.0140765
0.0142344
0.0140978
0.0137326
0.0132046
0.0125765
0.0119035
0.0112291
0.0105845
0.00999127
0.00941943
0.00889682
0.00839755
0.00788523
0.00731898
0.00665154
0.00583345
0.00481527
0.00354948
0.001993
0.000109814
-0.00215604
-0.00491727
-0.00816285
-0.0115871
-0.0151039
-0.0188758
-0.0228323
-0.0268571
-0.0308462
-0.0346857
-0.0382596
-0.0414523
-0.044153
-0.0462611
-0.0476938
-0.0484053
-0.048368
-0.0475854
-0.0460814
-0.0439053
-0.0411233
-0.0378153
-0.0340705
-0.0299805
-0.0256354
-0.0211212
-0.0165103
-0.0118572
-0.00725769
-0.00293423
0.00101764
0.00465728
0.00796981
0.0109154
0.0134764
0.0156454
0.0174219
0.0188134
0.0198334
0.0205003
0.0208371
0.0208705
0.0206297
0.0201556
0.019475
0.0186142
0.0176027
0.0164602
0.015205
0.0138524
0.0124122
0.0108897
0.00928579
0.00759664
0.00581517
0.00392077
0.00186139
-0.000356801
-0.00256454
-0.0047429
-0.00696515
-0.00920803
-0.011432
-0.0136007
-0.0156726
-0.0176024
-0.019344
-0.0208522
-0.0220853
-0.0230059
-0.0235756
-0.0238075
-0.0236769
-0.0232063
-0.022418
-0.0213412
-0.0200144
-0.0184832
-0.0167972
-0.015008
-0.0131673
-0.0113244
-0.00952754
-0.00780426
-0.00608215
-0.00438284
-0.00302938
-0.00201146
-0.00120516
-0.000619075
-0.000246713
-7.42326e-05
-8.8342e-05
-0.000265193
-0.000574465
-0.000981983
-0.00145011
-0.00193938
-0.00241015
-0.00282525
-0.00314978
-0.00335828
-0.00342502
-0.00337959
-0.00312722
-0.00284709
-0.00236652
-0.00172622
-0.00111928
-0.000218717
0.00252238
0.00607285
0.00906843
0.011509
0.0134148
0.0148143
0.0157486
0.0162684
0.0164312
0.0162995
0.0159383
0.0154121
0.0147819
0.0141019
0.0134157
0.0127554
0.0121431
0.0115481
0.0110002
0.0104777
0.00994647
0.00936877
0.0087006
0.007895
0.00690427
0.0056823
0.00418655
0.00237929
0.00020879
-0.00241721
-0.00549669
-0.00875302
-0.0120977
-0.0156812
-0.0194414
-0.023265
-0.027055
-0.0307068
-0.034107
-0.0371437
-0.039711
-0.0417123
-0.0430668
-0.0437367
-0.0436836
-0.0429133
-0.0414494
-0.0393367
-0.0366377
-0.0334276
-0.0297896
-0.0258103
-0.0215753
-0.0171657
-0.0126515
-0.00809328
-0.0036043
0.00060192
0.00447047
0.00805927
0.0113354
0.0142614
0.0168209
0.0190055
0.0208134
0.0222486
0.023321
0.024046
0.0244431
0.0245352
0.0243549
0.0239293
0.0232817
0.0224386
0.0214234
0.020253
0.018945
0.0175132
0.015967
0.0143117
0.0125487
0.0106758
0.00868467
0.00654496
0.00422291
0.00182225
-0.000551565
-0.00295188
-0.00539165
-0.00783129
-0.0102331
-0.0125569
-0.0147579
-0.0167887
-0.0186024
-0.0201535
-0.0214009
-0.0223071
-0.0228479
-0.0230259
-0.0228345
-0.0222969
-0.021438
-0.0202913
-0.0188993
-0.0173104
-0.0155762
-0.0137487
-0.0118799
-0.01002
-0.00820068
-0.00638435
-0.00455984
-0.00300791
-0.00180227
-0.000807555
-3.14409e-05
0.000514177
0.000842306
0.00096746
0.000907401
0.000687323
0.000337918
-0.000106325
-0.000608042
-0.00112871
-0.00162987
-0.0020768
-0.00243557
-0.0026871
-0.00280063
-0.00281983
-0.00261175
-0.00240519
-0.00203523
-0.00144728
-0.00101099
-4.81765e-05
0.00491622
0.00841644
0.0113471
0.0137204
0.0155581
0.016892
0.0177654
0.0182309
0.0183467
0.0181754
0.0177811
0.0172269
0.0165726
0.0158711
0.0151656
0.0144874
0.0138568
0.0132615
0.0127034
0.012178
0.0116541
0.0110955
0.0104612
0.00970618
0.00878473
0.00765198
0.00626573
0.00458753
0.00257023
0.000138049
-0.00271165
-0.00573365
-0.00884336
-0.0121754
-0.015675
-0.0192383
-0.022775
-0.0261853
-0.0293624
-0.0322012
-0.0346019
-0.0364724
-0.0377356
-0.0383599
-0.0382999
-0.0375621
-0.0361683
-0.0341587
-0.0315905
-0.0285335
-0.0250646
-0.0212641
-0.0172117
-0.0129839
-0.00864707
-0.00426767
1.86803e-05
0.00403242
0.00775407
0.0112198
0.0143895
0.0172293
0.0197229
0.0218606
0.0236393
0.0250622
0.0261381
0.0268801
0.0273043
0.0274329
0.0272912
0.026899
0.0262806
0.0254586
0.0244506
0.0232727
0.0219402
0.020465
0.0188554
0.0171161
0.0152485
0.0132505
0.0111078
0.00878637
0.00631822
0.00383704
0.00134287
-0.00120527
-0.00377663
-0.0063325
-0.00883442
-0.0112389
-0.0134993
-0.0155675
-0.0173967
-0.0189427
-0.0201649
-0.0210225
-0.0215205
-0.0216352
-0.0213842
-0.0207879
-0.0198741
-0.0186806
-0.0172518
-0.0156374
-0.0138898
-0.0120606
-0.0101997
-0.0083454
-0.00648327
-0.00459183
-0.00290351
-0.00155157
-0.000411923
0.00052146
0.00122324
0.00169661
0.00195283
0.00200724
0.00188076
0.00159992
0.00119589
0.000703231
0.000158845
-0.000399812
-0.000935676
-0.00141627
-0.00180938
-0.00210028
-0.00226315
-0.00232081
-0.00219185
-0.00199745
-0.00173111
-0.00123086
-0.000951895
0.000115545
0.00756976
0.0109183
0.013698
0.0159219
0.017614
0.0188111
0.0195606
0.019917
0.0199386
0.0196871
0.0192256
0.018616
0.0179165
0.0171789
0.0164455
0.0157466
0.0151018
0.0145177
0.0139627
0.013453
0.01296
0.0124479
0.0118784
0.0112087
0.0103948
0.00939282
0.00816105
0.00666136
0.00485072
0.00266607
0.000105304
-0.0026223
-0.00544035
-0.00846325
-0.0116458
-0.0148941
-0.0181238
-0.0212429
-0.024153
-0.0267563
-0.0289599
-0.0306774
-0.0318354
-0.0324092
-0.0323493
-0.0316609
-0.0303634
-0.0284919
-0.0260975
-0.0232432
-0.0199989
-0.0164374
-0.0126322
-0.00865481
-0.0045682
-0.000444465
0.00356609
0.00732303
0.0108326
0.0141082
0.017107
0.0197992
0.0221687
0.0242055
0.0259057
0.0272716
0.0283102
0.0290316
0.0294512
0.0295915
0.0294679
0.0291008
0.0285096
0.0277131
0.0267254
0.0255608
0.0242322
0.0227491
0.0211182
0.0193428
0.0174234
0.0153556
0.0131157
0.0106958
0.00820809
0.00570635
0.00314173
0.00052969
-0.00209145
-0.0046856
-0.00721225
-0.00962666
-0.0118819
-0.0139299
-0.0157236
-0.0172209
-0.0183808
-0.0191773
-0.0196083
-0.0196618
-0.0193569
-0.0187152
-0.0177676
-0.0165536
-0.0151192
-0.0135133
-0.0117866
-0.00998899
-0.00816075
-0.00630389
-0.00440795
-0.00264978
-0.00119193
4.92119e-05
0.00109946
0.00192598
0.00252263
0.00289519
0.00305451
0.00301788
0.00280808
0.00245251
0.00198261
0.00143276
0.000839177
0.000238184
-0.000334766
-0.000848872
-0.00127453
-0.00159674
-0.00179947
-0.00188322
-0.0018391
-0.0016612
-0.00150322
-0.00108598
-0.000924816
0.000265574
0.0104081
0.0135121
0.0160544
0.0180501
0.019527
0.0205262
0.0210976
0.0212964
0.0211809
0.0208117
0.0202508
0.0195593
0.0187943
0.0180063
0.0172364
0.0165145
0.0158602
0.0152836
0.0147487
0.0142714
0.0138294
0.0133876
0.0129097
0.0123555
0.0116827
0.0108484
0.00981172
0.00853511
0.00697838
0.00508956
0.00286966
0.000488846
-0.00198696
-0.00464966
-0.00746441
-0.0103479
-0.0132238
-0.0160087
-0.0186131
-0.0209475
-0.0229268
-0.0244712
-0.0255117
-0.0260294
-0.0259742
-0.0253489
-0.0241689
-0.0224638
-0.0202788
-0.0176692
-0.0146966
-0.0114262
-0.00792464
-0.00425731
-0.00048395
0.0033162
0.00698886
0.0104356
0.0136775
0.0167062
0.01948
0.021973
0.0241691
0.0260581
0.027636
0.0289044
0.0298691
0.0305394
0.030933
0.0310626
0.0309448
0.0305955
0.0300306
0.0292656
0.0283124
0.0271822
0.0258846
0.0244272
0.0228145
0.0210484
0.0191272
0.0170372
0.0147616
0.0123679
0.00993968
0.00744809
0.00488651
0.00228944
-0.000309168
-0.00287164
-0.00535535
-0.00771541
-0.00990534
-0.0118794
-0.0135941
-0.0150078
-0.0160761
-0.016802
-0.0171582
-0.0171547
-0.0168066
-0.0161373
-0.0151796
-0.0139736
-0.0125641
-0.0109989
-0.00932504
-0.00758421
-0.00579018
-0.00394128
-0.00217726
-0.00066781
0.00063185
0.00175738
0.00267266
0.00336313
0.00382939
0.00407726
0.00411957
0.00397549
0.00366917
0.00322864
0.00268512
0.00207245
0.00142592
0.000780654
0.000170257
-0.000375814
-0.000831633
-0.00117961
-0.0014133
-0.00152149
-0.00154505
-0.00141751
-0.00132917
-0.000963917
-0.000933679
0.000397107
0.0133386
0.0161184
0.0183512
0.0200533
0.0212548
0.0220007
0.0223439
0.0223417
0.0220527
0.0215351
0.0208486
0.0200529
0.0192041
0.0183515
0.0175353
0.0167847
0.016119
0.0155465
0.0150501
0.0146143
0.014237
0.0138852
0.0135223
0.0131098
0.0126066
0.0119716
0.0111649
0.0101495
0.00888815
0.00733845
0.00550052
0.0035096
0.00142147
-0.000836434
-0.00323946
-0.0057157
-0.00819745
-0.0106111
-0.0128765
-0.0149136
-0.0166452
-0.0179984
-0.0189101
-0.0193659
-0.0193175
-0.0187657
-0.0177198
-0.0162032
-0.0142553
-0.0119237
-0.00926099
-0.00632386
-0.00317224
0.000135055
0.00354222
0.00696434
0.0102512
0.0133443
0.0162713
0.0190061
0.0215105
0.0237614
0.0257435
0.0274465
0.0288666
0.0300051
0.0308662
0.031464
0.0318088
0.031914
0.0317924
0.0314567
0.0309207
0.0301951
0.0292902
0.0282151
0.0269761
0.0255773
0.0240206
0.0223058
0.0204243
0.0183583
0.0161431
0.0138673
0.0115261
0.00909852
0.00661245
0.0040997
0.00159269
-0.000871441
-0.00325134
-0.00550281
-0.00758062
-0.00944035
-0.0110403
-0.0123379
-0.0133103
-0.0139465
-0.0142345
-0.0141831
-0.0138068
-0.0131307
-0.0121881
-0.0110179
-0.00966258
-0.00816649
-0.00657002
-0.00489259
-0.00314095
-0.00143195
7.07e-05
0.0013841
0.00254296
0.00350816
0.00425873
0.00479071
0.00510517
0.00521031
0.00512132
0.00485879
0.00444825
0.00391761
0.00329714
0.00261956
0.00191894
0.00122933
0.00058257
6.81752e-06
-0.000476135
-0.000847087
-0.00110565
-0.00124177
-0.00131415
-0.00123454
-0.00120129
-0.000862758
-0.000958882
0.000523653
0.0162859
0.0186704
0.0205269
0.0218734
0.022742
0.023187
0.0232694
0.0230426
0.0225578
0.0218645
0.0210255
0.0201031
0.0191518
0.0182199
0.0173468
0.0165613
0.0158811
0.0153141
0.014859
0.0144749
0.0141714
0.0139224
0.0136914
0.0134414
0.0131328
0.0127251
0.0121786
0.0114572
0.0105264
0.00935024
0.00792679
0.00636234
0.00470271
0.00288711
0.000932258
-0.00110145
-0.00315603
-0.00516806
-0.00706769
-0.00878421
-0.0102492
-0.0113969
-0.0121724
-0.0125577
-0.0125156
-0.0120444
-0.0111437
-0.00982977
-0.00813867
-0.00611047
-0.00378686
-0.0012159
0.00154992
0.00445908
0.00745873
0.0104561
0.0133221
0.0160326
0.0186071
0.021011
0.0232109
0.0251864
0.0269225
0.0284097
0.0296444
0.0306264
0.0313655
0.0318712
0.0321547
0.0322259
0.032095
0.0317725
0.0312695
0.0305932
0.0297509
0.0287488
0.0275906
0.0262777
0.0248096
0.0231809
0.0213756
0.0194047
0.0173509
0.0152294
0.0130094
0.0107106
0.0083612
0.00598916
0.00362757
0.00131358
-0.000912935
-0.00301011
-0.00493571
-0.00664868
-0.00810755
-0.00927145
-0.0101426
-0.0106908
-0.0109196
-0.0108335
-0.010447
-0.00978578
-0.00888257
-0.0077737
-0.00649824
-0.00509377
-0.0035813
-0.00197579
-0.000377345
0.00106676
0.00234974
0.00349863
0.00447309
0.00524839
0.00581585
0.00617174
0.0063191
0.00626845
0.00603775
0.00564931
0.00513233
0.00451177
0.00381491
0.00307416
0.00232175
0.00159019
0.000909695
0.000307256
-0.000199003
-0.000590333
-0.000868857
-0.00103017
-0.00113852
-0.00109482
-0.001111
-0.000785983
-0.000996917
0.000632764
0.0191812
0.0211113
0.0225376
0.0234807
0.0239767
0.0240769
0.0238517
0.0233672
0.0226735
0.0218039
0.020797
0.0197245
0.0186532
0.0176286
0.0166881
0.0158599
0.0151608
0.0145984
0.0141714
0.0138558
0.0136316
0.013493
0.013405
0.013331
0.0132336
0.0130732
0.0128107
0.0124107
0.0118402
0.0110663
0.0100844
0.00897827
0.00778063
0.00643785
0.00496074
0.00339818
0.00179778
0.000212239
-0.00129927
-0.00267598
-0.00385753
-0.00478448
-0.00542464
-0.00572842
-0.00568639
-0.00530518
-0.00456325
-0.0034567
-0.00203286
-0.000324648
0.00164018
0.00382197
0.00617583
0.00865935
0.0112228
0.0137638
0.0161857
0.0184922
0.0206863
0.022732
0.0246017
0.0262769
0.0277436
0.0289929
0.0300215
0.0308314
0.0314331
0.0318369
0.0320508
0.0320829
0.0319412
0.0316351
0.0311709
0.0305539
0.0297887
0.0288781
0.0278228
0.0266217
0.0252705
0.023755
0.022072
0.0202893
0.0184381
0.0164835
0.0144353
0.0123179
0.0101545
0.0079724
0.00580341
0.00368248
0.00164715
-0.000263419
-0.00201022
-0.00355456
-0.0048547
-0.00589299
-0.00665059
-0.00712169
-0.00730582
-0.00720383
-0.00682742
-0.00620165
-0.00535914
-0.00433359
-0.00315794
-0.00185349
-0.000432643
0.00101382
0.00235053
0.00355807
0.00465277
0.00559552
0.00635951
0.00693106
0.00730117
0.00746777
0.00743676
0.00722203
0.00684967
0.00633839
0.00571695
0.00501512
0.00425072
0.00344908
0.00264545
0.00187433
0.00116357
0.000537867
1.25146e-05
-0.000396025
-0.000691056
-0.000871311
-0.00100677
-0.000988924
-0.00105002
-0.000732744
-0.0010367
0.00073169
0.0219618
0.023392
0.0243483
0.0248496
0.0249395
0.0246785
0.0241273
0.0233469
0.0223995
0.0213351
0.0201717
0.0189438
0.0177324
0.0166003
0.0155808
0.0146998
0.013974
0.0134103
0.0130073
0.0127564
0.0126215
0.0125967
0.0126596
0.012773
0.0129002
0.0130031
0.0130435
0.0129864
0.0127996
0.0124517
0.0119344
0.0113106
0.0106006
0.00975497
0.008779
0.00770976
0.00658396
0.00544338
0.00433607
0.00331235
0.00242408
0.0017247
0.00122471
0.0010021
0.00107813
0.00136251
0.0019168
0.00283981
0.00398582
0.00535722
0.00695189
0.00873014
0.0106558
0.0126969
0.0148033
0.0168685
0.0188349
0.0207221
0.0225165
0.024186
0.025708
0.0270662
0.0282485
0.0292458
0.0300534
0.0306823
0.0311405
0.0314372
0.0315782
0.0315703
0.0314205
0.0311356
0.0307182
0.030171
0.0294958
0.0286924
0.0277589
0.0266905
0.0254753
0.0241056
0.022628
0.0210796
0.0194317
0.0176817
0.0158491
0.0139522
0.0120125
0.0100561
0.0081123
0.00621361
0.00439464
0.00269093
0.00113795
-0.000225426
-0.00136916
-0.00228064
-0.00293505
-0.00333906
-0.00349433
-0.00339632
-0.00305044
-0.00247917
-0.00171899
-0.000796606
0.000277269
0.00149247
0.00275242
0.00393404
0.00502031
0.00601914
0.00689257
0.00761106
0.0081565
0.00851562
0.00868139
0.0086552
0.0084502
0.00807332
0.00755114
0.00691975
0.00619863
0.00541615
0.0045958
0.00375231
0.00290648
0.00209633
0.00135817
0.000713281
0.000173538
-0.000248888
-0.00055839
-0.000752365
-0.000903282
-0.000907042
-0.00100863
-0.0006904
-0.00106169
0.000842708
0.0245733
0.025469
0.0259189
0.0259542
0.025626
0.0249914
0.0241012
0.0230157
0.0217962
0.0204961
0.0191522
0.0177771
0.0164173
0.0151606
0.0140487
0.013103
0.0123396
0.011766
0.0113818
0.011179
0.0111387
0.0112301
0.0114466
0.0117554
0.0121184
0.0124986
0.0128583
0.013162
0.0133773
0.0134729
0.0134363
0.0133135
0.0131121
0.0127839
0.0123281
0.0117704
0.0111363
0.0104563
0.00976768
0.00911002
0.00852755
0.00805359
0.00769517
0.00753901
0.00780696
0.00788892
0.00809487
0.00896802
0.00986693
0.0108761
0.0120925
0.0134634
0.0149556
0.016549
0.0181863
0.0197674
0.0212756
0.022733
0.0241154
0.0253966
0.0265593
0.0275899
0.0284788
0.0292119
0.0297963
0.0302399
0.0305542
0.0307435
0.0308127
0.0307678
0.0306153
0.0303584
0.0299966
0.0295295
0.0289563
0.0282735
0.0274762
0.0265537
0.0254976
0.0243397
0.0231119
0.0217922
0.0203703
0.0188588
0.0172712
0.0156228
0.0139338
0.0122274
0.0105304
0.00887202
0.00728327
0.00579612
0.00444465
0.00326167
0.00226036
0.00147257
0.000909195
0.000560292
0.000411336
0.000472735
0.000752927
0.00126515
0.00195687
0.00279472
0.00377961
0.00481492
0.00580065
0.00672761
0.00759635
0.00836787
0.00901012
0.00950122
0.00982446
0.00997037
0.00993525
0.00971964
0.00933354
0.00880805
0.00816164
0.00741718
0.00660006
0.00573756
0.0048551
0.00397398
0.00310605
0.00227023
0.00150789
0.000847731
0.000298065
-0.000134445
-0.000455779
-0.000664126
-0.000818444
-0.000835941
-0.000976235
-0.000648791
-0.00107432
0.000954288
0.0270327
0.0273577
0.0272728
0.0268234
0.026066
0.0250414
0.0238005
0.0224008
0.0208998
0.0193485
0.0177875
0.0162424
0.0147323
0.0133365
0.0121157
0.011091
0.0102766
0.00968111
0.00930563
0.0091438
0.00918283
0.00939811
0.00976709
0.0102748
0.0108818
0.0115506
0.012244
0.0129253
0.0135608
0.0141168
0.0145766
0.014971
0.0152959
0.0155012
0.0155799
0.0155453
0.0154121
0.0152005
0.0149366
0.0146517
0.0143832
0.0141407
0.0139536
0.0138786
0.0141117
0.014198
0.0142974
0.0148678
0.0155117
0.0161938
0.0170303
0.0179907
0.0190512
0.0201985
0.0213564
0.0224533
0.0235099
0.0245334
0.0254989
0.0263879
0.0271872
0.027886
0.0284754
0.028946
0.0293042
0.0295675
0.0297399
0.0298248
0.0298263
0.0297499
0.0296011
0.0293799
0.0290828
0.0287053
0.0282434
0.0276911
0.0270373
0.0262755
0.0254319
0.0245266
0.0235392
0.0224567
0.0212856
0.0200336
0.01871
0.0173286
0.0159065
0.014464
0.0130245
0.0116135
0.0102584
0.00898905
0.00783492
0.00681115
0.00594112
0.00524825
0.00475411
0.00447863
0.00436013
0.00437034
0.00450926
0.00494592
0.00565266
0.00637856
0.00715409
0.00791728
0.00866069
0.00937373
0.0100161
0.010555
0.010966
0.0112293
0.0113331
0.0112756
0.0110394
0.0106354
0.0100988
0.00944046
0.00867681
0.00783191
0.00693216
0.00600337
0.00506824
0.00414663
0.00325575
0.00240709
0.00162889
0.000956908
0.000400305
-3.88808e-05
-0.000367984
-0.000587558
-0.000746601
-0.000774539
-0.000949145
-0.000603127
-0.00107416
0.00106095
0.0292977
0.0290373
0.0284155
0.0274915
0.0262971
0.024872
0.0232694
0.0215453
0.0197519
0.0179345
0.0161328
0.0143799
0.0126989
0.0111494
0.00979991
0.00867658
0.00779239
0.0071574
0.00677556
0.00664326
0.00675012
0.00708039
0.00760881
0.00831907
0.00917766
0.0101455
0.011185
0.0122584
0.0133293
0.014361
0.0153314
0.0162585
0.0171266
0.0178815
0.0185067
0.0190044
0.0193796
0.0196423
0.0198087
0.0199018
0.019947
0.0199582
0.0199617
0.0199841
0.0200698
0.0201527
0.0202966
0.0205679
0.020905
0.0212937
0.0217686
0.0223279
0.0229691
0.0236698
0.0243387
0.0249569
0.0255631
0.0261467
0.0266893
0.0271805
0.0276123
0.027977
0.0282633
0.0284754
0.0286206
0.0287104
0.0287478
0.0287358
0.0286772
0.0285766
0.0284376
0.0282598
0.0280359
0.0277552
0.0274105
0.0269915
0.0264924
0.0259401
0.0253428
0.0246759
0.0239274
0.0230989
0.0221919
0.02121
0.0201603
0.0190538
0.0179041
0.0167284
0.0155462
0.0143794
0.0132519
0.012192
0.0112155
0.010342
0.00958898
0.00896469
0.00853019
0.00844788
0.00823167
0.00791898
0.00817996
0.00867772
0.00916543
0.00969414
0.0102333
0.0107852
0.0113265
0.0118192
0.0122323
0.0125416
0.012726
0.0127712
0.0126683
0.0123993
0.0119788
0.011429
0.0107592
0.00998218
0.00911659
0.00818561
0.00721499
0.00622982
0.00525106
0.00429575
0.00338002
0.00251821
0.0017316
0.00105169
0.000490154
4.65119e-05
-0.000287557
-0.000514345
-0.00068356
-0.000725215
-0.00092606
-0.000552216
-0.00106051
0.00115933
0.0313286
0.0304921
0.0293672
0.0279801
0.0263566
0.0245348
0.0225656
0.0205052
0.0184027
0.0162983
0.0142288
0.0122328
0.0103449
0.00861913
0.00711753
0.00587241
0.00489667
0.00420247
0.00379736
0.00368059
0.00384461
0.0042766
0.00496322
0.00587547
0.00699585
0.00827809
0.00968273
0.0111698
0.0126985
0.0142258
0.0157238
0.0171989
0.0186242
0.0199396
0.0211195
0.0221579
0.023049
0.023791
0.02439
0.0248653
0.0252228
0.0254857
0.0256679
0.0257924
0.0258739
0.0259126
0.0259433
0.0259952
0.0260651
0.0261548
0.0262836
0.0264693
0.0267167
0.026964
0.027151
0.0273139
0.0274736
0.0276179
0.0277388
0.0278324
0.0278959
0.0279207
0.0279079
0.0278641
0.0278015
0.0277228
0.0276311
0.0275299
0.0274203
0.0273012
0.0271751
0.0270481
0.0269071
0.0267269
0.026498
0.0262211
0.0259213
0.0256003
0.0252279
0.0247935
0.0242942
0.0237264
0.0230878
0.0223795
0.0216057
0.0207737
0.0198942
0.0189802
0.0180476
0.0171152
0.0162038
0.0153304
0.0145113
0.0137677
0.0131062
0.0125235
0.0122123
0.0120772
0.0116672
0.0113848
0.011697
0.0121452
0.0124298
0.0127272
0.0130802
0.0134347
0.013758
0.0140255
0.0142128
0.0143013
0.0142749
0.0141102
0.0137957
0.0133545
0.0127929
0.0121146
0.0113298
0.010453
0.00950205
0.0084994
0.00747053
0.00643929
0.0054242
0.00443954
0.00349988
0.00262106
0.00182746
0.00114138
0.000574137
0.000125231
-0.00021483
-0.000449592
-0.000628447
-0.000688045
-0.000910683
-0.000500681
-0.00103709
0.00124507
0.0331589
0.0318028
0.0301942
0.0283534
0.0263051
0.0240877
0.0217524
0.0193485
0.0169152
0.0144896
0.0121119
0.00982876
0.007695
0.00575241
0.00406637
0.00266976
0.00156911
0.000786469
0.000334855
0.000217236
0.000430923
0.000965822
0.00180584
0.00293336
0.0043231
0.00592996
0.00771208
0.00962879
0.0116371
0.0136849
0.015734
0.0177798
0.019784
0.0216791
0.023431
0.0250228
0.026438
0.0276643
0.028698
0.029555
0.0302345
0.0307464
0.0311018
0.031321
0.0314209
0.0314166
0.0313347
0.0311982
0.0310205
0.0308179
0.030618
0.030452
0.0302966
0.0300724
0.0297961
0.0295152
0.0292301
0.0289382
0.0286417
0.0283433
0.0280436
0.0277379
0.0274345
0.0271488
0.0268833
0.0266408
0.0264254
0.026242
0.0260918
0.0259636
0.0258448
0.0257695
0.0257224
0.0256335
0.0255233
0.0254332
0.0253497
0.0252391
0.0250903
0.0248962
0.0246488
0.0243411
0.023969
0.0235305
0.0230265
0.0224611
0.0218411
0.0211761
0.0204782
0.019763
0.0190448
0.0183348
0.0176498
0.0170128
0.0164562
0.0159677
0.01559
0.0153153
0.0151061
0.0150298
0.0150907
0.0152007
0.0153149
0.0154643
0.0156313
0.0157823
0.015895
0.0159503
0.0159286
0.0158234
0.0155892
0.0152241
0.01476
0.0141878
0.0135057
0.01272
0.0118413
0.0108825
0.00986065
0.00879852
0.00772145
0.00665125
0.00560322
0.00458915
0.00362293
0.00272516
0.00192092
0.00122674
0.000650854
0.000193363
-0.000155548
-0.000400654
-0.000590167
-0.000668708
-0.000906801
-0.000454062
-0.00100861
0.00131564
0.0348785
0.0330389
0.0309735
0.0286985
0.0262336
0.0236177
0.0209049
0.0181376
0.0153411
0.0125495
0.00981173
0.00720144
0.00478053
0.00255251
0.000631554
-0.000936661
-0.00219691
-0.0030975
-0.00361937
-0.00376003
-0.00351826
-0.00289554
-0.00190274
-0.00054956
0.00113598
0.00310315
0.0053012
0.00768219
0.0101991
0.0127934
0.0154188
0.0180597
0.020664
0.0231578
0.0254969
0.0276524
0.0295981
0.0313119
0.0327815
0.034017
0.035017
0.0357756
0.0363053
0.0366254
0.036756
0.0367097
0.0365202
0.0362102
0.0358036
0.0353315
0.0348345
0.0343201
0.0337149
0.0330199
0.0323003
0.0315709
0.0308358
0.0301073
0.029395
0.0287098
0.0280479
0.0274238
0.0268515
0.0263359
0.0258797
0.025486
0.0251585
0.0249025
0.0247224
0.0245714
0.0244294
0.0244479
0.0245089
0.0244995
0.024557
0.0246634
0.0247705
0.0248666
0.0249423
0.0249856
0.0249859
0.0249344
0.0248235
0.0246473
0.0244028
0.0240914
0.0237174
0.023287
0.0228038
0.0222828
0.0217365
0.0211775
0.0206217
0.0200874
0.0195916
0.0191532
0.0188121
0.0185409
0.0183198
0.0181493
0.0180287
0.017974
0.0179438
0.0179184
0.0178879
0.0178368
0.0177482
0.0176179
0.0174043
0.0170853
0.0166857
0.0161969
0.0156132
0.0149309
0.0141514
0.0132799
0.0123256
0.0113002
0.0102196
0.00910761
0.00798969
0.00688401
0.00580176
0.00475325
0.00375457
0.00283552
0.00201386
0.00130404
0.000712371
0.000239471
-0.00012397
-0.000383209
-0.000584818
-0.0006788
-0.000925586
-0.000426407
-0.000984114
0.00136839
0.0366063
0.0343186
0.0318202
0.0291189
0.0262443
0.0232336
0.0201295
0.0169632
0.013734
0.0105074
0.00735432
0.00434885
0.00155721
-0.000971263
-0.00317387
-0.00501909
-0.00649058
-0.00754823
-0.00816641
-0.00833589
-0.00805496
-0.00732545
-0.00616715
-0.00458472
-0.00260457
-0.000275685
0.00235972
0.00524561
0.00832098
0.0115065
0.0147569
0.0180409
0.0212824
0.0244035
0.0273518
0.0300875
0.0325756
0.0347866
0.0367008
0.0383181
0.0396355
0.0406407
0.0413448
0.0417657
0.041922
0.0418466
0.0415588
0.0410929
0.0404874
0.0397843
0.0389843
0.0380496
0.0369845
0.0358591
0.0346981
0.0335177
0.032337
0.031187
0.0300686
0.0289926
0.0279917
0.0270686
0.0262298
0.0254852
0.0248386
0.0242925
0.0238479
0.0235073
0.0232683
0.0231139
0.02305
0.0230933
0.0231983
0.0233613
0.0235976
0.0238736
0.0241708
0.0244762
0.0247737
0.025049
0.0252901
0.0254854
0.0256248
0.0256992
0.0257024
0.025635
0.0254936
0.0252751
0.0249923
0.0246486
0.0242579
0.02383
0.0233824
0.0229481
0.0225416
0.0221639
0.0218288
0.0215071
0.0211822
0.0208919
0.0206443
0.0204254
0.0202157
0.0200083
0.0197945
0.0195752
0.0193161
0.0189859
0.0186052
0.0181703
0.017664
0.0170761
0.016402
0.0156383
0.0147836
0.0138409
0.0128212
0.0117362
0.0106018
0.00944356
0.00828746
0.00714339
0.00601824
0.0049251
0.0038915
0.00294259
0.00209431
0.00135823
0.000741536
0.000245177
-0.000139204
-0.000416392
-0.000631383
-0.000733661
-0.00098389
-0.000437171
-0.000978272
0.00139544
0.0384785
0.035793
0.0329003
0.0297788
0.0264622
0.0230243
0.0194743
0.0158344
0.0121136
0.00838275
0.00475715
0.00128649
-0.00195876
-0.00489354
-0.00745684
-0.00961439
-0.0113354
-0.0125875
-0.0133425
-0.0135898
-0.0133199
-0.0124924
-0.0111224
-0.0092341
-0.00688303
-0.00412157
-0.000999628
0.00242633
0.00608368
0.00988566
0.0137979
0.0177641
0.0216814
0.0254662
0.0290567
0.0324001
0.0354501
0.0381694
0.0405379
0.0425393
0.0441704
0.0454203
0.0462995
0.0468261
0.0470209
0.0469179
0.0465539
0.0459655
0.0451745
0.0441889
0.0429959
0.0416328
0.0401646
0.0386186
0.0370221
0.0354116
0.0337956
0.0322041
0.0306903
0.0292657
0.0279403
0.0267191
0.0256124
0.0246369
0.023795
0.0230842
0.0225079
0.0220765
0.0217854
0.0216185
0.0215786
0.0216715
0.0218815
0.0221839
0.022562
0.023003
0.0234902
0.0240053
0.024527
0.0250377
0.025524
0.0259718
0.0263675
0.0266932
0.0269327
0.0270877
0.0271673
0.0271553
0.0270465
0.0268656
0.0266348
0.026349
0.0260124
0.0256633
0.0253045
0.0249169
0.0244969
0.0240748
0.0236596
0.0232535