/*--------------------------------*- C++ -*----------------------------------*\
| =========                 |                                                 |
| \\      /  F ield         | OpenFOAM: The Open Source CFD Toolbox           |
|  \\    /   O peration     | Version:  2206                                  |
|   \\  /    A nd           | Website:  www.openfoam.com                      |
|    \\/     M anipulation  |                                                 |
\*---------------------------------------------------------------------------*/
FoamFile
{
    version     2.0;
    format      ascii;
    arch        "LSB;label=32;scalar=64";
    class       surfaceScalarField;
    location    "18.5001";
    object      ddtCorrDdt0(phi);
}
// * * * * * * * * * * * * * * * * * * * * * * * * * * * * * * * * * * * * * //

dimensions      [0 3 -2 0 0 0 0];

oriented        oriented;

internalField   nonuniform List<scalar> 
3529
(
7.59302e-12
1.07099e-10
-1.1478e-10
3.37926e-11
3.71597e-10
-3.97919e-10
7.36263e-11
5.98636e-10
-6.38567e-10
1.27715e-10
7.92487e-10
-8.46627e-10
1.93966e-10
9.5261e-10
-1.01892e-09
2.70687e-10
1.07514e-09
-1.152e-09
3.55031e-10
1.15975e-09
-1.2443e-09
4.44238e-10
1.20656e-09
-1.29607e-09
5.35675e-10
1.21748e-09
-1.30933e-09
6.27067e-10
1.19609e-09
-1.28794e-09
7.15945e-10
1.14821e-09
-1.23808e-09
8.01527e-10
1.08063e-09
-1.16736e-09
8.83211e-10
1.00239e-09
-1.08476e-09
9.60496e-10
9.22681e-10
-1.00032e-09
1.03344e-09
8.51425e-10
-9.24109e-10
1.10253e-09
7.97945e-10
-8.66958e-10
1.17009e-09
7.71055e-10
-8.38491e-10
1.23852e-09
7.78879e-10
-8.47127e-10
1.31063e-09
8.28652e-10
-9.00651e-10
1.39018e-09
9.25839e-10
-1.00507e-09
1.48102e-09
1.07518e-09
-1.16532e-09
1.58678e-09
1.27909e-09
-1.38451e-09
1.71199e-09
1.53932e-09
-1.66439e-09
1.8616e-09
1.85588e-09
-2.0055e-09
2.04029e-09
2.22794e-09
-2.4067e-09
2.25284e-09
2.65398e-09
-2.86662e-09
2.50414e-09
3.13205e-09
-3.38343e-09
2.79878e-09
3.65974e-09
-3.95457e-09
3.14034e-09
4.23611e-09
-4.57819e-09
3.53844e-09
4.85827e-09
-5.25685e-09
3.99179e-09
5.52969e-09
-5.98298e-09
4.50887e-09
6.2465e-09
-6.76373e-09
5.09352e-09
7.0159e-09
-7.60066e-09
5.74903e-09
7.83993e-09
-8.49561e-09
6.4845e-09
8.72714e-09
-9.46317e-09
7.29972e-09
9.68716e-09
-1.05029e-08
8.21011e-09
1.07286e-08
-1.16387e-08
9.21012e-09
1.18733e-08
-1.28736e-08
1.03223e-08
1.31264e-08
-1.42394e-08
1.15466e-08
1.4521e-08
-1.57462e-08
1.28975e-08
1.60669e-08
-1.74175e-08
1.43902e-08
1.7797e-08
-1.92894e-08
1.60311e-08
1.97316e-08
-2.13737e-08
1.78599e-08
2.18956e-08
-2.3726e-08
1.9868e-08
2.43374e-08
-2.63467e-08
2.21132e-08
2.70631e-08
-2.93103e-08
2.45909e-08
3.01513e-08
-3.26282e-08
2.73516e-08
3.36e-08
-3.63617e-08
3.04164e-08
3.74935e-08
-4.0559e-08
3.38135e-08
4.18496e-08
-4.52488e-08
3.76164e-08
4.67204e-08
-5.05246e-08
4.18208e-08
5.21766e-08
-5.63866e-08
4.65615e-08
5.82334e-08
-6.29765e-08
5.18002e-08
6.50424e-08
-7.02853e-08
5.77001e-08
7.25821e-08
-7.84809e-08
6.42578e-08
8.1042e-08
-8.75997e-08
7.15661e-08
9.04503e-08
-9.77557e-08
7.97559e-08
1.00931e-07
-1.09122e-07
8.88256e-08
1.12605e-07
-1.21672e-07
9.90391e-08
1.25553e-07
-1.35766e-07
1.10334e-07
1.4004e-07
-1.51332e-07
1.23006e-07
1.56073e-07
-1.68746e-07
1.37033e-07
1.74087e-07
-1.88111e-07
1.52715e-07
1.93892e-07
-2.09575e-07
1.70075e-07
2.16173e-07
-2.33531e-07
1.89418e-07
2.40837e-07
-2.6018e-07
2.1071e-07
2.68298e-07
-2.89589e-07
2.34043e-07
2.9892e-07
-3.22255e-07
2.6029e-07
3.3334e-07
-3.59586e-07
2.89454e-07
3.71506e-07
-4.00673e-07
3.2129e-07
4.13836e-07
-4.45672e-07
3.571e-07
4.61294e-07
-4.97105e-07
3.96694e-07
5.13813e-07
-5.53405e-07
4.4048e-07
5.72325e-07
-6.16112e-07
4.88924e-07
6.37392e-07
-6.85835e-07
5.42713e-07
7.09431e-07
-7.63221e-07
6.02574e-07
7.89164e-07
-8.49022e-07
6.692e-07
8.77552e-07
-9.44179e-07
7.43318e-07
9.75679e-07
-1.04979e-06
8.25764e-07
1.08465e-06
-1.1671e-06
9.17481e-07
1.20573e-06
-1.29745e-06
1.01951e-06
1.34031e-06
-1.44235e-06
1.1329e-06
1.49009e-06
-1.60348e-06
1.25877e-06
1.65682e-06
-1.78269e-06
1.39853e-06
1.84213e-06
-1.98189e-06
1.55394e-06
2.04769e-06
-2.20311e-06
1.7271e-06
2.27549e-06
-2.44865e-06
1.92072e-06
2.52751e-06
-2.72113e-06
2.13806e-06
2.80621e-06
-3.02355e-06
2.38288e-06
3.11518e-06
-3.36001e-06
2.65936e-06
3.45887e-06
-3.73534e-06
2.97269e-06
3.84198e-06
-4.15531e-06
3.3297e-06
4.27013e-06
-4.62714e-06
3.73933e-06
4.75102e-06
-5.16065e-06
4.21342e-06
5.29605e-06
-5.77014e-06
4.76935e-06
5.9222e-06
-6.47813e-06
5.42976e-06
6.65488e-06
-7.31529e-06
6.23738e-06
7.54086e-06
-8.34847e-06
7.27828e-06
8.62511e-06
-9.66601e-06
8.96445e-06
1.00289e-05
-1.17151e-05
1.21037e-05
1.14443e-05
-1.45836e-05
1.37551e-05
2.06879e-05
-2.23394e-05
8.59757e-12
9.83868e-11
3.85711e-11
3.41465e-10
8.21068e-11
5.54935e-10
1.43462e-10
7.30978e-10
2.18073e-10
8.77815e-10
3.06956e-10
9.86018e-10
4.05569e-10
1.06079e-09
5.09755e-10
1.102e-09
6.16435e-10
1.11016e-09
7.22842e-10
1.08921e-09
8.26425e-10
1.04352e-09
9.2634e-10
9.80321e-10
1.02068e-09
9.0739e-10
1.11031e-09
8.3318e-10
1.19494e-09
7.66767e-10
1.27591e-09
7.17013e-10
1.35486e-09
6.92021e-10
1.43458e-09
6.99307e-10
1.51805e-09
7.44896e-10
1.60964e-09
8.34684e-10
1.71337e-09
9.71729e-10
1.83396e-09
1.15873e-09
1.97661e-09
1.39676e-09
2.14709e-09
1.68543e-09
2.35097e-09
2.02397e-09
2.59399e-09
2.41095e-09
2.88147e-09
2.84425e-09
3.21916e-09
3.32196e-09
3.6126e-09
3.84189e-09
4.0665e-09
4.4044e-09
4.58914e-09
5.00696e-09
5.18446e-09
5.65127e-09
5.85826e-09
6.34182e-09
6.61454e-09
7.08365e-09
7.46098e-09
7.87978e-09
8.405e-09
8.74342e-09
9.45049e-09
9.68282e-09
1.06123e-08
1.07115e-08
1.18914e-08
1.18463e-08
1.33071e-08
1.31053e-08
1.4866e-08
1.45091e-08
1.65874e-08
1.60753e-08
1.84876e-08
1.78318e-08
2.05859e-08
1.9796e-08
2.2917e-08
2.20054e-08
2.54936e-08
2.44868e-08
2.83659e-08
2.72785e-08
3.15406e-08
3.04256e-08
3.50774e-08
3.39562e-08
3.89914e-08
3.79334e-08
4.3349e-08
4.23614e-08
4.82208e-08
4.73024e-08
5.36428e-08
5.28102e-08
5.9735e-08
5.895e-08
6.65033e-08
6.58145e-08
7.40882e-08
7.34587e-08
8.2527e-08
8.20119e-08
9.19195e-08
9.15388e-08
1.02432e-07
1.02093e-07
1.14131e-07
1.13856e-07
1.27215e-07
1.26956e-07
1.4175e-07
1.41539e-07
1.58039e-07
1.57798e-07
1.76015e-07
1.75917e-07
1.96107e-07
1.96081e-07
2.18321e-07
2.18624e-07
2.42869e-07
2.43749e-07
2.69955e-07
2.71834e-07
3.00141e-07
3.03153e-07
3.33663e-07
3.37984e-07
3.70846e-07
3.76652e-07
4.12292e-07
4.19849e-07
4.58305e-07
4.67798e-07
5.08996e-07
5.21635e-07
5.64805e-07
5.81582e-07
6.26628e-07
6.47609e-07
6.95432e-07
7.20359e-07
7.72109e-07
8.00876e-07
8.57572e-07
8.90216e-07
9.52755e-07
9.89469e-07
1.05873e-06
1.09975e-06
1.17673e-06
1.22232e-06
1.3078e-06
1.35903e-06
1.45292e-06
1.5117e-06
1.61356e-06
1.68149e-06
1.79165e-06
1.86961e-06
1.98957e-06
2.07757e-06
2.21079e-06
2.30629e-06
2.45941e-06
2.55758e-06
2.73954e-06
2.83505e-06
3.05595e-06
3.14246e-06
3.41503e-06
3.4829e-06
3.82582e-06
3.85934e-06
4.30103e-06
4.27581e-06
4.85923e-06
4.73785e-06
5.52981e-06
5.25162e-06
6.36159e-06
5.8231e-06
7.45315e-06
6.4493e-06
8.96225e-06
7.11601e-06
1.12526e-05
7.73855e-06
1.47026e-05
7.99436e-06
9.13252e-06
1.93252e-05
1.21255e-11
8.61469e-11
4.02142e-11
3.13236e-10
8.76497e-11
5.07371e-10
1.56932e-10
6.61568e-10
2.45865e-10
7.88748e-10
3.49469e-10
8.82201e-10
4.61197e-10
9.48758e-10
5.77194e-10
9.85588e-10
6.96954e-10
9.89897e-10
8.15082e-10
9.70406e-10
9.30992e-10
9.26971e-10
1.04263e-09
8.68051e-10
1.14841e-09
8.01243e-10
1.24819e-09
7.33188e-10
1.34245e-09
6.72391e-10
1.43243e-09
6.27022e-10
1.52015e-09
6.04317e-10
1.60859e-09
6.10752e-10
1.70144e-09
6.52102e-10
1.80306e-09
7.33227e-10
1.9183e-09
8.5671e-10
2.05241e-09
1.02481e-09
2.21136e-09
1.23796e-09
2.40134e-09
1.49547e-09
2.62893e-09
1.79634e-09
2.90016e-09
2.13961e-09
3.22112e-09
2.52314e-09
3.59699e-09
2.94566e-09
4.036e-09
3.40259e-09
4.54386e-09
3.89633e-09
5.12892e-09
4.42183e-09
5.79769e-09
4.98243e-09
6.55114e-09
5.58825e-09
7.40152e-09
6.2328e-09
8.3498e-09
6.93123e-09
9.40763e-09
7.68545e-09
1.05841e-08
8.50637e-09
1.18836e-08
9.41151e-09
1.33253e-08
1.04042e-08
1.49124e-08
1.15183e-08
1.6666e-08
1.27553e-08
1.85931e-08
1.41494e-08
2.07195e-08
1.57042e-08
2.30738e-08
1.74417e-08
2.56815e-08
1.93966e-08
2.85842e-08
2.15838e-08
3.18001e-08
2.40627e-08
3.53863e-08
2.68392e-08
3.93472e-08
2.99942e-08
4.37364e-08
3.3544e-08
4.85845e-08
3.75116e-08
5.40121e-08
4.18736e-08
6.00918e-08
4.67293e-08
6.68834e-08
5.21579e-08
7.45208e-08
5.81773e-08
8.30247e-08
6.4955e-08
9.24496e-08
7.25872e-08
1.02957e-07
8.10321e-08
1.1476e-07
9.02905e-08
1.27943e-07
1.00674e-07
1.42601e-07
1.12298e-07
1.58912e-07
1.25228e-07
1.77092e-07
1.39619e-07
1.97334e-07
1.55675e-07
2.19774e-07
1.73641e-07
2.44702e-07
1.93696e-07
2.72268e-07
2.16184e-07
3.02794e-07
2.41308e-07
3.36674e-07
2.69272e-07
3.74362e-07
3.00295e-07
4.1628e-07
3.34734e-07
4.63021e-07
3.73107e-07
5.14873e-07
4.15945e-07
5.71764e-07
4.64744e-07
6.34379e-07
5.18967e-07
7.038e-07
5.78189e-07
7.80959e-07
6.432e-07
8.66766e-07
7.15069e-07
9.62305e-07
7.94677e-07
1.06865e-06
8.83122e-07
1.18728e-06
9.81132e-07
1.31974e-06
1.08985e-06
1.46695e-06
1.21182e-06
1.62976e-06
1.34889e-06
1.80986e-06
1.50139e-06
2.00865e-06
1.67082e-06
2.22778e-06
1.85845e-06
2.47233e-06
2.06174e-06
2.7481e-06
2.28181e-06
3.05882e-06
2.52434e-06
3.40862e-06
2.79265e-06
3.80423e-06
3.08729e-06
4.25587e-06
3.40771e-06
4.77727e-06
3.75441e-06
5.38744e-06
4.12768e-06
6.1153e-06
4.52376e-06
7.00487e-06
4.93353e-06
8.12417e-06
5.33e-06
9.55383e-06
5.68634e-06
1.13685e-05
5.92387e-06
1.35231e-05
5.83973e-06
5.71116e-06
1.69445e-05
1.47089e-11
7.13304e-11
4.61993e-11
2.81632e-10
1.02307e-10
4.51142e-10
1.81306e-10
5.82472e-10
2.76932e-10
6.93009e-10
3.87559e-10
7.71421e-10
5.09237e-10
8.26832e-10
6.39089e-10
8.55397e-10
7.727e-10
8.55866e-10
9.03475e-10
8.39135e-10
1.03052e-09
7.99463e-10
1.14924e-09
7.48847e-10
1.26226e-09
6.87877e-10
1.36997e-09
6.25255e-10
1.47219e-09
5.70057e-10
1.56993e-09
5.29212e-10
1.6656e-09
5.08636e-10
1.76217e-09
5.14118e-10
1.86362e-09
5.50635e-10
1.97466e-09
6.22254e-10
2.10019e-09
7.31301e-10
2.24614e-09
8.79008e-10
2.41909e-09
1.0651e-09
2.62564e-09
1.28896e-09
2.8736e-09
1.54831e-09
3.16934e-09
1.84376e-09
3.51971e-09
2.17259e-09
3.93095e-09
2.53415e-09
4.40538e-09
2.92789e-09
4.95962e-09
3.34194e-09
5.59854e-09
3.78279e-09
6.32932e-09
4.25152e-09
7.15457e-09
4.76282e-09
8.08363e-09
5.30343e-09
9.12831e-09
5.88625e-09
1.02833e-08
6.53034e-09
1.15796e-08
7.20997e-09
1.30018e-08
7.98904e-09
1.45914e-08
8.81427e-09
1.63394e-08
9.77008e-09
1.82635e-08
1.08317e-08
2.03896e-08
1.20229e-08
2.27058e-08
1.33884e-08
2.53011e-08
1.48451e-08
2.81385e-08
1.65588e-08
3.13309e-08
1.83907e-08
3.48561e-08
2.05371e-08
3.87935e-08
2.29014e-08
4.31698e-08
2.56181e-08
4.79616e-08
2.87511e-08
5.32785e-08
3.21943e-08
5.91998e-08
3.59508e-08
6.58352e-08
4.00928e-08
7.32852e-08
4.4707e-08
8.15818e-08
4.98804e-08
9.10767e-08
5.54601e-08
1.01379e-07
6.22849e-08
1.12573e-07
6.98383e-08
1.25519e-07
7.7345e-08
1.3999e-07
8.62039e-08
1.56191e-07
9.60979e-08
1.7418e-07
1.0724e-07
1.94228e-07
1.19572e-07
2.16486e-07
1.33418e-07
2.41213e-07
1.48914e-07
2.68578e-07
1.66331e-07
2.98825e-07
1.85936e-07
3.3228e-07
2.07853e-07
3.69311e-07
2.32241e-07
4.10455e-07
2.5915e-07
4.5632e-07
2.88869e-07
5.09241e-07
3.20187e-07
5.66919e-07
3.58267e-07
6.28376e-07
4.03288e-07
6.96221e-07
4.51123e-07
7.72032e-07
5.02378e-07
8.56683e-07
5.58549e-07
9.51185e-07
6.20567e-07
1.05651e-06
6.89356e-07
1.17311e-06
7.66521e-07
1.30391e-06
8.50329e-07
1.45065e-06
9.4312e-07
1.61251e-06
1.04995e-06
1.78987e-06
1.17152e-06
1.98601e-06
1.30525e-06
2.20227e-06
1.45456e-06
2.43909e-06
1.62163e-06
2.70323e-06
1.79759e-06
3.00077e-06
1.98428e-06
3.33548e-06
2.18963e-06
3.7106e-06
2.41754e-06
4.13152e-06
2.66636e-06
4.60868e-06
2.93056e-06
5.15471e-06
3.20837e-06
5.78405e-06
3.49834e-06
6.51615e-06
3.79166e-06
7.37711e-06
4.07257e-06
8.39431e-06
4.31279e-06
9.60172e-06
4.47893e-06
1.10204e-05
4.50516e-06
1.26115e-05
4.24869e-06
3.68798e-06
1.46347e-05
1.39033e-11
5.73312e-11
5.16771e-11
2.43741e-10
1.11862e-10
3.90849e-10
1.98506e-10
4.95729e-10
3.01364e-10
5.90073e-10
4.21509e-10
6.51154e-10
5.52059e-10
6.96112e-10
6.93517e-10
7.13691e-10
8.33165e-10
7.15918e-10
9.71531e-10
7.00434e-10
1.10779e-09
6.62848e-10
1.23693e-09
6.19397e-10
1.3587e-09
5.65856e-10
1.47375e-09
5.10036e-10
1.58364e-09
4.60022e-10
1.6898e-09
4.22976e-10
1.79388e-09
4.04484e-10
1.899e-09
4.0893e-10
2.00906e-09
4.40518e-10
2.12883e-09
5.02471e-10
2.26395e-09
5.96212e-10
2.4203e-09
7.22701e-10
2.60489e-09
8.80582e-10
2.82471e-09
1.06912e-09
3.09032e-09
1.28264e-09
3.40485e-09
1.52911e-09
3.78098e-09
1.79633e-09
4.22408e-09
2.09085e-09
4.73297e-09
2.41883e-09
5.32123e-09
2.75352e-09
5.99614e-09
3.10778e-09
6.77717e-09
3.47036e-09
7.66373e-09
3.87606e-09
8.66037e-09
4.30655e-09
9.78792e-09
4.75858e-09
1.10282e-08
5.28989e-09
1.24317e-08
5.80637e-09
1.39636e-08
6.45683e-09
1.56847e-08
7.09314e-09
1.75805e-08
7.87418e-09
1.96518e-08
8.76033e-09
2.19451e-08
9.73038e-09
2.44072e-08
1.09259e-08
2.72366e-08
1.20159e-08
3.02466e-08
1.35484e-08
3.36898e-08
1.49468e-08
3.74483e-08
1.67783e-08
4.17425e-08
1.86069e-08
4.64197e-08
2.09406e-08
5.14157e-08
2.37559e-08
5.70431e-08
2.65664e-08
6.34504e-08
2.95425e-08
7.06162e-08
3.2926e-08
7.86396e-08
3.6683e-08
8.75642e-08
4.09555e-08
9.73917e-08
4.56326e-08
1.08474e-07
5.1203e-08
1.20999e-07
5.73133e-08
1.34947e-07
6.33969e-08
1.50174e-07
7.09772e-08
1.67157e-07
7.91151e-08
1.86057e-07
8.83407e-08
2.07089e-07
9.85399e-08
2.30635e-07
1.09872e-07
2.56889e-07
1.2266e-07
2.86154e-07
1.37066e-07
3.18566e-07
1.53524e-07
3.54423e-07
1.71996e-07
3.94035e-07
1.92629e-07
4.37703e-07
2.15482e-07
4.86057e-07
2.40515e-07
5.36286e-07
2.69958e-07
5.925e-07
3.02053e-07
6.64232e-07
3.31556e-07
7.46038e-07
3.69317e-07
8.35305e-07
4.13111e-07
9.31989e-07
4.61865e-07
1.0371e-06
5.15459e-07
1.15096e-06
5.75498e-07
1.27523e-06
6.42245e-07
1.40766e-06
7.17897e-07
1.54936e-06
8.01424e-07
1.70933e-06
8.89978e-07
1.89455e-06
9.86308e-07
2.11164e-06
1.08817e-06
2.34125e-06
1.22495e-06
2.58777e-06
1.3751e-06
2.87451e-06
1.51085e-06
3.19787e-06
1.66091e-06
3.55879e-06
1.82871e-06
3.95735e-06
2.01898e-06
4.39737e-06
2.22634e-06
4.88967e-06
2.43826e-06
5.44423e-06
2.65381e-06
6.07009e-06
2.87249e-06
6.77848e-06
3.08327e-06
7.58317e-06
3.26789e-06
8.49333e-06
3.40264e-06
9.51733e-06
3.45493e-06
1.06471e-05
3.37544e-06
1.18167e-05
3.07906e-06
2.53525e-06
1.29694e-05
1.46996e-11
4.2526e-11
5.37917e-11
2.04535e-10
1.19606e-10
3.24923e-10
2.1351e-10
4.01755e-10
3.20973e-10
4.82532e-10
4.50686e-10
5.21364e-10
5.815e-10
5.65163e-10
7.40238e-10
5.54783e-10
8.90059e-10
5.65872e-10
1.03052e-09
5.59721e-10
1.17053e-09
5.22588e-10
1.30468e-09
4.85024e-10
1.43379e-09
4.36558e-10
1.55814e-09
3.85515e-10
1.67738e-09
3.40641e-10
1.79468e-09
3.0557e-10
1.90959e-09
2.89481e-10
2.02595e-09
2.92487e-10
2.14684e-09
3.19533e-10
2.27565e-09
3.73612e-10
2.41914e-09
4.52675e-10
2.58314e-09
5.58736e-10
2.77384e-09
6.89871e-10
2.99821e-09
8.44745e-10
3.26426e-09
1.0165e-09
3.58903e-09
1.20428e-09
3.98329e-09
1.40193e-09
4.43909e-09
1.6349e-09
4.97242e-09
1.88532e-09
5.59583e-09
2.13001e-09
6.32156e-09
2.38193e-09
7.12823e-09
2.66357e-09
8.06876e-09
2.93536e-09
9.10292e-09
3.27232e-09
1.02687e-08
3.59273e-09
1.15659e-08
3.99256e-09
1.29792e-08
4.39288e-09
1.45954e-08
4.84057e-09
1.63237e-08
5.36465e-09
1.83381e-08
5.85974e-09
2.04841e-08
6.61507e-09
2.28097e-08
7.40489e-09
2.53091e-08
8.4279e-09
2.81413e-08
9.18367e-09
3.13638e-08
1.03261e-08
3.48309e-08
1.14797e-08
3.87995e-08
1.28093e-08
4.29245e-08
1.44817e-08
4.77965e-08
1.60698e-08
5.38803e-08
1.76722e-08
6.06003e-08
1.98467e-08
6.7744e-08
2.23985e-08
7.54476e-08
2.5222e-08
8.37944e-08
2.83358e-08
9.29573e-08
3.17923e-08
1.02972e-07
3.56175e-08
1.14266e-07
3.99098e-08
1.27052e-07
4.45273e-08
1.4051e-07
4.9939e-08
1.55806e-07
5.56815e-08
1.72906e-07
6.20146e-08
1.92117e-07
6.91308e-08
2.13647e-07
7.70095e-08
2.38005e-07
8.55147e-08
2.64968e-07
9.56968e-08
2.94538e-07
1.07497e-07
3.27494e-07
1.20568e-07
3.6438e-07
1.35109e-07
4.05189e-07
1.5182e-07
4.51209e-07
1.69462e-07
5.034e-07
1.88324e-07
5.64022e-07
2.09336e-07
6.24675e-07
2.414e-07
6.93954e-07
2.62276e-07
7.70333e-07
2.92938e-07
8.5688e-07
3.26564e-07
9.53813e-07
3.64932e-07
1.06084e-06
4.08436e-07
1.17968e-06
4.56651e-07
1.31188e-06
5.10049e-07
1.45935e-06
5.70428e-07
1.62238e-06
6.38394e-07
1.79915e-06
7.1321e-07
1.99104e-06
7.94414e-07
2.19123e-06
8.87982e-07
2.44557e-06
9.70605e-07
2.75528e-06
1.06539e-06
3.06976e-06
1.19636e-06
3.40627e-06
1.32441e-06
3.775e-06
1.45998e-06
4.16508e-06
1.6289e-06
4.59481e-06
1.79661e-06
5.08619e-06
1.94687e-06
5.63825e-06
2.10175e-06
6.25187e-06
2.25886e-06
6.92993e-06
2.40521e-06
7.67849e-06
2.51932e-06
8.49547e-06
2.58566e-06
9.36973e-06
2.58067e-06
1.02745e-05
2.47062e-06
1.11453e-05
2.20827e-06
1.7734e-06
1.19072e-05
1.29992e-11
2.9425e-11
5.23648e-11
1.65058e-10
1.24266e-10
2.52941e-10
2.19294e-10
3.06654e-10
3.38574e-10
3.63208e-10
4.70006e-10
3.89856e-10
6.13527e-10
4.21554e-10
7.67209e-10
4.00956e-10
9.22705e-10
4.10213e-10
1.0818e-09
4.00424e-10
1.22216e-09
3.82042e-10
1.3531e-09
3.53907e-10
1.48948e-09
3.00018e-10
1.62538e-09
2.49459e-10
1.75546e-09
2.10424e-10
1.87815e-09
1.82764e-10
1.99366e-09
1.73876e-10
2.10576e-09
1.80282e-10
2.22005e-09
2.05149e-10
2.34362e-09
2.49957e-10
2.47895e-09
3.17325e-10
2.63797e-09
3.99687e-10
2.82522e-09
5.02617e-10
3.04546e-09
6.24438e-10
3.32338e-09
7.38538e-10
3.6546e-09
8.7295e-10
4.03485e-09
1.02158e-09
4.51733e-09
1.15227e-09
5.12507e-09
1.27748e-09
5.8197e-09
1.43527e-09
6.58336e-09
1.6182e-09
7.43148e-09
1.81533e-09
8.34571e-09
2.02108e-09
9.37228e-09
2.24568e-09
1.04798e-08
2.48516e-09
1.17169e-08
2.75538e-09
1.30577e-08
3.05194e-09
1.45978e-08
3.30033e-09
1.62784e-08
3.68396e-09
1.80504e-08
4.08803e-09
2.00866e-08
4.57871e-09
2.22795e-08
5.21338e-09
2.48472e-08
5.86039e-09
2.76072e-08
6.42483e-09
3.07888e-08
7.14495e-09
3.43202e-08
7.94834e-09
3.82464e-08
8.88319e-09
4.27666e-08
9.9618e-09
4.76844e-08
1.11519e-08
5.29281e-08
1.24298e-08
5.88562e-08
1.3919e-08
6.55527e-08
1.5702e-08
7.30401e-08
1.77346e-08
8.13911e-08
1.99846e-08
9.071e-08
2.24733e-08
1.0111e-07
2.52178e-08
1.128e-07
2.82193e-08
1.25998e-07
3.13297e-08
1.39784e-07
3.61533e-08
1.55371e-07
4.00937e-08
1.72827e-07
4.45595e-08
1.92217e-07
4.97401e-08
2.13659e-07
5.55683e-08
2.38524e-07
6.06496e-08
2.66389e-07
6.78318e-08
2.97352e-07
7.6534e-08
3.31522e-07
8.6398e-08
3.70014e-07
9.6617e-08
4.10075e-07
1.11759e-07
4.54496e-07
1.25041e-07
5.05341e-07
1.37479e-07
5.6057e-07
1.54107e-07
6.33757e-07
1.68212e-07
6.99793e-07
1.96241e-07
7.75648e-07
2.17083e-07
8.6059e-07
2.41621e-07
9.56331e-07
2.69191e-07
1.06426e-06
3.00503e-07
1.1851e-06
3.35818e-07
1.31986e-06
3.75283e-07
1.47062e-06
4.19673e-07
1.63913e-06
4.69878e-07
1.82663e-06
5.25716e-07
2.03459e-06
5.86448e-07
2.2679e-06
6.54673e-07
2.51443e-06
7.24078e-07
2.78466e-06
7.95159e-07
3.09724e-06
8.83788e-07
3.42839e-06
9.9325e-07
3.78637e-06
1.10201e-06
4.22213e-06
1.19314e-06
4.71546e-06
1.30328e-06
5.22649e-06
1.43584e-06
5.77603e-06
1.55222e-06
6.36595e-06
1.66895e-06
7.00022e-06
1.77093e-06
7.68752e-06
1.83203e-06
8.41408e-06
1.85909e-06
9.16262e-06
1.83214e-06
9.90627e-06
1.72697e-06
1.05933e-05
1.5212e-06
1.20628e-06
1.11605e-05
1.17599e-11
1.75748e-11
6.07447e-11
1.15985e-10
1.25639e-10
1.87982e-10
2.24343e-10
2.079e-10
3.47821e-10
2.39701e-10
4.86623e-10
2.50986e-10
6.41947e-10
2.66171e-10
7.7321e-10
2.69562e-10
9.21204e-10
2.62124e-10
1.06766e-09
2.53765e-10
1.23161e-09
2.17991e-10
1.40804e-09
1.7726e-10
1.54892e-09
1.59084e-10
1.66004e-09
1.38115e-10
1.75408e-09
1.16348e-10
1.83828e-09
9.83722e-11
1.91785e-09
9.43118e-11
1.99667e-09
1.01252e-10
2.08047e-09
1.21355e-10
2.17713e-09
1.53137e-10
2.29771e-09
1.96806e-10
2.44702e-09
2.50253e-10
2.63124e-09
3.18459e-10
2.85757e-09
3.97954e-10
3.13168e-09
4.64467e-10
3.46058e-09
5.43862e-10
3.85709e-09
6.25078e-10
4.31188e-09
6.97236e-10
4.82657e-09
7.62829e-10
5.42718e-09
8.34458e-10
6.11434e-09
9.31132e-10
6.89074e-09
1.03872e-09
7.75696e-09
1.15496e-09
8.72073e-09
1.28173e-09
9.78456e-09
1.42148e-09
1.09574e-08
1.58227e-09
1.22456e-08
1.76382e-09
1.36657e-08
1.87995e-09
1.52299e-08
2.12001e-09
1.68979e-08
2.41962e-09
1.87177e-08
2.75955e-09
2.07949e-08
3.13617e-09
2.31567e-08
3.49968e-09
2.57138e-08
3.8682e-09
2.8582e-08
4.27759e-09
3.17473e-08
4.78332e-09
3.52756e-08
5.35535e-09
3.92146e-08
6.02248e-09
4.36108e-08
6.7565e-09
4.84221e-08
7.61879e-09
5.37137e-08
8.62822e-09
5.96358e-08
9.78002e-09
6.6236e-08
1.1135e-08
7.36621e-08
1.25583e-08
8.19846e-08
1.41512e-08
9.13369e-08
1.58653e-08
1.01875e-07
1.76811e-08
1.13532e-07
1.96725e-08
1.26683e-07
2.30035e-08
1.41338e-07
2.54384e-08
1.57723e-07
2.81748e-08
1.75821e-07
3.1642e-08
1.96028e-07
3.53613e-08
2.18393e-07
3.82844e-08
2.43174e-07
4.30512e-08
2.71199e-07
4.85086e-08
3.01702e-07
5.5895e-08
3.368e-07
6.15185e-08
3.75783e-07
7.27768e-08
4.20989e-07
7.98351e-08
4.72648e-07
8.58205e-08
5.2784e-07
9.8914e-08
5.83238e-07
1.12814e-07
6.51989e-07
1.2749e-07
7.26981e-07
1.4209e-07
8.10463e-07
1.5814e-07
9.03602e-07
1.76052e-07
1.00764e-06
1.96465e-07
1.12403e-06
2.19424e-07
1.25414e-06
2.45173e-07
1.39982e-06
2.73996e-07
1.56295e-06
3.06749e-07
1.74506e-06
3.43606e-07
1.94724e-06
3.84271e-07
2.17261e-06
4.29306e-07
2.41894e-06
4.77745e-07
2.68592e-06
5.2818e-07
2.98425e-06
5.85452e-07
3.32207e-06
6.55435e-07
3.69485e-06
7.29224e-07
4.09915e-06
7.88848e-07
4.55691e-06
8.45515e-07
5.07073e-06
9.2202e-07
5.61761e-06
1.00533e-06
6.2215e-06
1.06506e-06
6.87903e-06
1.1134e-06
7.54517e-06
1.16589e-06
8.21261e-06
1.19165e-06
8.87725e-06
1.1675e-06
9.51624e-06
1.08798e-06
1.00894e-05
9.48039e-07
7.48658e-07
1.0547e-05
2.89043e-12
1.45888e-11
5.85428e-11
6.02794e-11
1.56564e-10
8.9889e-11
2.71322e-10
9.31348e-11
3.90235e-10
1.20708e-10
5.1547e-10
1.25762e-10
6.46913e-10
1.34603e-10
7.78531e-10
1.37935e-10
9.12348e-10
1.28082e-10
1.0461e-09
1.19997e-10
1.16228e-09
1.01547e-10
1.26195e-09
7.76121e-11
1.35972e-09
6.10174e-11
1.4496e-09
4.82887e-11
1.52955e-09
3.61136e-11
1.60055e-09
2.7475e-11
1.66894e-09
2.56132e-11
1.73931e-09
3.09921e-11
1.8168e-09
4.35925e-11
1.90574e-09
6.43483e-11
2.01085e-09
9.14525e-11
2.13694e-09
1.24338e-10
2.29267e-09
1.62465e-10
2.48755e-09
2.03257e-10
2.71175e-09
2.39965e-10
2.97793e-09
2.77843e-10
3.29174e-09
3.10893e-10
3.653e-09
3.36172e-10
4.0597e-09
3.55782e-10
4.51431e-09
3.80094e-10
5.02946e-09
4.15591e-10
5.61049e-09
4.58001e-10
6.25841e-09
5.06668e-10
6.97907e-09
5.61435e-10
7.77452e-09
6.25565e-10
8.65481e-09
7.02331e-10
9.63663e-09
7.81469e-10
1.0656e-08
8.61005e-10
1.17789e-08
9.96589e-10
1.30337e-08
1.1653e-09
1.44481e-08
1.3447e-09
1.60584e-08
1.52683e-09
1.78436e-08
1.7147e-09
1.98278e-08
1.88555e-09
2.20423e-08
2.06343e-09
2.45501e-08
2.27683e-09
2.73497e-08
2.55557e-09
3.04561e-08
2.91669e-09
3.39372e-08
3.27493e-09
3.77719e-08
3.78536e-09
4.20669e-08
4.33349e-09
4.68581e-08
4.99026e-09
5.2315e-08
5.67772e-09
5.84634e-08
6.41082e-09
6.54066e-08
7.20735e-09
7.32637e-08
8.00894e-09
8.19301e-08
9.01405e-09
9.16384e-08
9.9649e-09
1.03241e-07
1.14006e-08
1.1601e-07
1.26698e-08
1.30103e-07
1.40814e-08
1.4595e-07
1.57958e-08
1.63457e-07
1.78529e-08
1.81757e-07
1.99855e-08
2.02563e-07
2.22449e-08
2.25254e-07
2.58175e-08
2.52886e-07
2.82628e-08
2.82755e-07
3.16504e-08
3.16131e-07
3.94003e-08
3.57419e-07
3.85471e-08
4.05281e-07
3.79578e-08
4.60769e-07
4.34265e-08
5.21614e-07
5.19693e-08
5.83346e-07
6.5759e-08
6.501e-07
7.53355e-08
7.25549e-07
8.26911e-08
8.09792e-07
9.18081e-08
9.03485e-07
1.02773e-07
1.00879e-06
1.14115e-07
1.12739e-06
1.26574e-07
1.26181e-06
1.39581e-07
1.41364e-06
1.54921e-07
1.58443e-06
1.72808e-07
1.77557e-06
1.93138e-07
1.98905e-06
2.15818e-07
2.22578e-06
2.41021e-07
2.4854e-06
2.68557e-07
2.77219e-06
2.98658e-07
3.09547e-06
3.32163e-07
3.45814e-06
3.66548e-07
3.85133e-06
3.95659e-07
4.27575e-06
4.21101e-07
4.7378e-06
4.59961e-07
5.24703e-06
4.96113e-07
5.80637e-06
5.05709e-07
6.40186e-06
5.17923e-07
7.034e-06
5.33751e-07
7.68978e-06
5.35867e-07
8.33153e-06
5.25745e-07
8.92663e-06
4.92888e-07
9.44591e-06
4.2876e-07
3.33911e-07
9.86065e-06
1.45638e-11
7.48025e-11
1.64688e-10
2.5778e-10
3.78502e-10
5.04205e-10
6.38814e-10
7.76639e-10
9.0472e-10
1.02458e-09
1.12614e-09
1.20359e-09
1.26464e-09
1.31278e-09
1.34894e-09
1.37626e-09
1.40193e-09
1.43277e-09
1.47645e-09
1.54066e-09
1.63221e-09
1.7564e-09
1.91897e-09
2.12207e-09
2.36213e-09
2.63977e-09
2.95077e-09
3.28675e-09
3.64267e-09
4.02254e-09
4.43831e-09
4.8961e-09
5.40298e-09
5.96415e-09
6.58993e-09
7.29196e-09
8.07368e-09
8.9344e-09
9.93122e-09
1.10962e-08
1.24414e-08
1.39683e-08
1.56839e-08
1.75698e-08
1.9634e-08
2.19109e-08
2.44668e-08
2.73832e-08
3.06588e-08
3.44443e-08
3.87787e-08
4.37689e-08
4.94471e-08
5.58576e-08
6.30654e-08
7.1074e-08
8.00885e-08
9.0053e-08
1.01454e-07
1.14123e-07
1.28205e-07
1.44001e-07
1.61854e-07
1.81839e-07
2.04084e-07
2.29901e-07
2.58165e-07
2.89815e-07
3.29215e-07
3.67762e-07
4.0572e-07
4.49146e-07
5.01116e-07
5.66875e-07
6.4221e-07
7.24901e-07
8.1671e-07
9.19482e-07
1.0336e-06
1.16017e-06
1.29975e-06
1.45467e-06
1.62748e-06
1.82062e-06
2.03644e-06
2.27746e-06
2.54602e-06
2.84467e-06
3.17684e-06
3.54339e-06
3.93904e-06
4.36014e-06
4.82011e-06
5.31622e-06
5.82193e-06
6.33985e-06
6.8736e-06
7.40947e-06
7.93521e-06
8.4281e-06
8.85686e-06
9.19077e-06
1.4673e-05
6.01487e-06
1.35879e-05
1.0851e-06
1.37773e-05
-1.8933e-07
1.51331e-05
-1.35584e-06
1.83747e-05
-3.24156e-06
2.37225e-05
-5.34783e-06
3.20312e-05
-8.30866e-06
4.05377e-05
-8.50653e-06
4.54906e-05
-4.95288e-06
4.06535e-05
4.8371e-06
3.11427e-05
9.51076e-06
2.26477e-05
8.49499e-06
1.27338e-05
9.91392e-06
1.59377e-06
1.114e-05
-7.95133e-06
9.54509e-06
-1.23715e-05
4.42015e-06
-1.19571e-05
-4.14349e-07
-7.18195e-06
-4.77518e-06
7.35906e-07
-7.91786e-06
1.00536e-05
-9.31774e-06
1.90515e-05
-8.99784e-06
2.67398e-05
-7.68837e-06
3.23766e-05
-5.63678e-06
3.51521e-05
-2.77548e-06
3.45598e-05
5.92337e-07
3.09989e-05
3.56092e-06
2.488e-05
6.11881e-06
1.77829e-05
7.09714e-06
1.14004e-05
6.38249e-06
6.8359e-06
4.56451e-06
2.52907e-06
1.97303e-05
5.60984e-06
2.14318e-05
-6.16461e-07
2.45562e-05
-3.3137e-06
2.91526e-05
-5.95221e-06
3.32902e-05
-7.37921e-06
3.50712e-05
-7.1288e-06
3.24742e-05
-5.71166e-06
2.60767e-05
-2.10908e-06
1.90369e-05
2.08697e-06
1.75524e-05
6.32157e-06
1.63491e-05
1.07141e-05
1.15446e-05
1.32995e-05
8.31225e-06
1.31463e-05
4.91715e-06
1.45351e-05
5.0733e-06
9.38894e-06
6.77874e-06
2.71471e-06
9.6788e-06
-3.3144e-06
1.24948e-05
-7.59115e-06
1.50573e-05
-1.04804e-05
1.74013e-05
-1.16617e-05
1.95615e-05
-1.1158e-05
2.1287e-05
-9.41383e-06
2.2325e-05
-6.67483e-06
2.25859e-05
-3.03634e-06
2.20629e-05
1.11534e-06
2.05424e-05
5.08135e-06
1.85877e-05
8.07358e-06
1.66802e-05
9.00459e-06
1.51526e-05
7.91015e-06
1.3976e-05
5.74103e-06
3.31558e-06
1.87103e-05
3.84404e-06
1.83534e-05
-2.59548e-07
1.8122e-05
-3.08228e-06
1.74237e-05
-5.2539e-06
1.64344e-05
-6.38999e-06
1.5199e-05
-5.8934e-06
1.34378e-05
-3.95043e-06
1.16323e-05
-3.03585e-07
9.30042e-06
4.41885e-06
6.61493e-06
9.00706e-06
4.12171e-06
1.32073e-05
3.55948e-06
1.38617e-05
3.34085e-06
1.33649e-05
4.27802e-06
1.3598e-05
5.47281e-06
8.19415e-06
5.75125e-06
2.43628e-06
5.79933e-06
-3.36249e-06
5.57568e-06
-7.36749e-06
5.33972e-06
-1.02445e-05
5.33643e-06
-1.16585e-05
5.69541e-06
-1.1517e-05
6.1479e-06
-9.86633e-06
6.66843e-06
-7.19535e-06
7.48067e-06
-3.84858e-06
8.66499e-06
-6.89891e-08
1.05655e-05
3.18084e-06
1.31093e-05
5.52976e-06
1.53966e-05
6.71733e-06
1.78021e-05
5.50465e-06
1.93088e-05
4.23428e-06
2.70321e-06
1.60909e-05
2.38779e-06
1.58314e-05
-4.47104e-11
1.47281e-05
-1.97893e-06
1.28951e-05
-3.42096e-06
1.08043e-05
-4.29914e-06
8.79658e-06
-3.8857e-06
7.11569e-06
-2.26954e-06
6.38425e-06
4.27861e-07
6.45034e-06
4.35276e-06
7.4484e-06
8.009e-06
1.00001e-05
1.06555e-05
1.19658e-05
1.1896e-05
1.36652e-05
1.16655e-05
1.765e-05
9.61314e-06
1.90073e-05
6.83687e-06
1.92732e-05
2.17039e-06
1.80354e-05
-2.12472e-06
1.6149e-05
-5.48108e-06
1.3716e-05
-7.81149e-06
1.11893e-05
-9.1317e-06
9.03032e-06
-9.35803e-06
7.49818e-06
-8.33419e-06
6.55194e-06
-6.24911e-06
6.47725e-06
-3.77389e-06
7.31024e-06
-9.01987e-07
8.95225e-06
1.53884e-06
1.1292e-05
3.19002e-06
1.36316e-05
4.37768e-06
1.5466e-05
3.67029e-06
1.66915e-05
3.00877e-06
2.09938e-06
1.37469e-05
1.61035e-06
1.35095e-05
2.3733e-07
1.26503e-05
-1.11976e-06
1.12313e-05
-2.00199e-06
9.4341e-06
-2.5019e-06
7.60749e-06
-2.05909e-06
6.2038e-06
-8.65846e-07
5.57844e-06
1.05322e-06
6.21424e-06
3.71696e-06
8.29975e-06
5.92348e-06
1.10337e-05
7.92158e-06
1.38701e-05
9.05961e-06
1.68206e-05
8.71502e-06
1.91693e-05
7.26447e-06
2.09826e-05
5.02359e-06
2.12663e-05
1.88671e-06
2.02799e-05
-1.13831e-06
1.85165e-05
-3.71769e-06
1.63142e-05
-5.60925e-06
1.3867e-05
-6.68445e-06
1.13993e-05
-6.89038e-06
9.46822e-06
-6.40307e-06
8.44647e-06
-5.22736e-06
8.26366e-06
-3.59107e-06
8.78085e-06
-1.41917e-06
9.82927e-06
4.90412e-07
1.13341e-05
1.68517e-06
1.32241e-05
2.4877e-06
1.43326e-05
2.56184e-06
1.51748e-05
2.16652e-06
1.51086e-06
1.23819e-05
1.13561e-06
1.23091e-05
3.10131e-07
1.17087e-05
-5.19352e-07
1.07242e-05
-1.01746e-06
9.45281e-06
-1.23054e-06
8.21233e-06
-8.18607e-07
7.35181e-06
-5.33115e-09
7.08452e-06
1.32051e-06
7.75184e-06
3.04963e-06
9.13547e-06
4.53986e-06
1.13371e-05
5.71993e-06
1.40427e-05
6.35403e-06
1.67367e-05
6.02102e-06
1.90577e-05
4.94343e-06
2.03866e-05
3.69467e-06
2.07909e-05
1.48244e-06
2.04273e-05
-7.74702e-07
1.93698e-05
-2.6602e-06
1.77568e-05
-3.99619e-06
1.58449e-05
-4.77254e-06
1.39799e-05
-5.02544e-06
1.22667e-05
-4.6898e-06
1.10224e-05
-3.98308e-06
1.03634e-05
-2.93204e-06
1.03383e-05
-1.39413e-06
1.08014e-05
2.72712e-08
1.16224e-05
8.64172e-07
1.26727e-05
1.43747e-06
1.36319e-05
1.60265e-06
1.44425e-05
1.35589e-06
9.34615e-07
1.15129e-05
7.83221e-07
1.15336e-05
2.89414e-07
1.11823e-05
-1.68071e-07
1.05984e-05
-4.33572e-07
9.82969e-06
-4.61829e-07
9.16474e-06
-1.53656e-07
8.73151e-06
4.27902e-07
8.71139e-06
1.34064e-06
9.35943e-06
2.40159e-06
1.05597e-05
3.3396e-06