/*--------------------------------*- C++ -*----------------------------------*\
| =========                 |                                                 |
| \\      /  F ield         | OpenFOAM: The Open Source CFD Toolbox           |
|  \\    /   O peration     | Version:  2206                                  |
|   \\  /    A nd           | Website:  www.openfoam.com                      |
|    \\/     M anipulation  |                                                 |
\*---------------------------------------------------------------------------*/
FoamFile
{
    version     2.0;
    format      ascii;
    arch        "LSB;label=32;scalar=64";
    class       volScalarField;
    location    "18.0999";
    object      p;
}
// * * * * * * * * * * * * * * * * * * * * * * * * * * * * * * * * * * * * * //

dimensions      [0 2 -2 0 0 0 0];

internalField   nonuniform List<scalar> 
3087
(
0.0306471
0.0286152
0.0261448
0.0234059
0.0205575
0.0177468
0.0151098
0.0127691
0.0108223
0.00927204
0.00821803
0.00777487
0.00798584
0.0081959
0.00877329
0.0100959
0.0113815
0.0127897
0.0141472
0.0146404
0.0141807
0.0130015
0.0110203
0.00814411
0.00449728
0.000242922
-0.00455803
-0.00980078
-0.0153742
-0.0213586
-0.0278306
-0.0344705
-0.0410388
-0.0473925
-0.0533545
-0.0587362
-0.0633586
-0.0670571
-0.069688
-0.0711343
-0.0713109
-0.0701888
-0.06778
-0.0641764
-0.0594927
-0.0538782
-0.0475215
-0.0406425
-0.0334828
-0.0262876
-0.0192735
-0.0126691
-0.00677871
-0.00155621
0.00327806
0.00747855
0.0107494
0.013156
0.0147542
0.0156179
0.0158249
0.0154634
0.0146662
0.0135414
0.0121918
0.0107313
0.00925465
0.00784477
0.00655143
0.00540389
0.00445678
0.00388772
0.00333156
0.00270265
0.00266148
0.00282991
0.0027756
0.00267482
0.00249661
0.00215936
0.00149817
0.000210413
-0.00176083
-0.00430304
-0.00741074
-0.0110287
-0.0150268
-0.0193451
-0.0240339
-0.0290597
-0.0342471
-0.0394678
-0.0446039
-0.049526
-0.0541031
-0.0582095
-0.0617287
-0.0645584
-0.066613
-0.0678268
-0.0681561
-0.0675845
-0.066142
-0.0638753
-0.0608495
-0.0571512
-0.052888
-0.0481858
-0.0431861
-0.0380392
-0.0328943
-0.0278845
-0.023139
-0.0188399
-0.0150677
-0.0115639
-0.00836948
-0.00579399
-0.00380683
-0.00244633
-0.00116914
-0.000840999
0.000668128
0.0204935
0.0179748
0.0151015
0.012046
0.0089558
0.00597105
0.00322253
0.00083316
-0.00108814
-0.00247458
-0.00331992
-0.0035241
-0.00313041
-0.00225352
-0.000876853
0.000899916
0.0027593
0.00461515
0.00656438
0.00825449
0.00886541
0.00843994
0.00722089
0.00514976
0.00224565
-0.0013466
-0.00547689
-0.0100418
-0.0149845
-0.0204213
-0.0262838
-0.0322648
-0.038198
-0.0439438
-0.0493348
-0.0542009
-0.0583801
-0.0617238
-0.0641017
-0.0654076
-0.0655619
-0.0645428
-0.0623571
-0.0590886
-0.0548431
-0.0497588
-0.0440101
-0.0378036
-0.0313703
-0.0249536
-0.0187592
-0.0129873
-0.00799777
-0.00376301
0.000248952
0.0035731
0.00595361
0.00750707
0.00830934
0.00846994
0.00805789
0.0071585
0.0059138
0.0044163
0.00279179
0.00116224
-0.000405236
-0.00183971
-0.00307647
-0.00402786
-0.00470581
-0.00512133
-0.00528243
-0.00538434
-0.00511118
-0.00450954
-0.00398197
-0.00352526
-0.00317649
-0.0030045
-0.0030191
-0.00341748
-0.00456719
-0.00643709
-0.00886835
-0.011794
-0.0151332
-0.0188557
-0.0229511
-0.0273288
-0.031878
-0.0364882
-0.0410413
-0.0454166
-0.0494944
-0.0531589
-0.0563033
-0.0588333
-0.0606693
-0.0617489
-0.0620295
-0.0614967
-0.0601705
-0.0580922
-0.05532
-0.0519329
-0.0480293
-0.0437262
-0.039156
-0.0344609
-0.0297839
-0.0252501
-0.0209611
-0.0170987
-0.0138535
-0.0108161
-0.00794262
-0.00567441
-0.0039251
-0.00268026
-0.00154195
-0.00103434
0.000239522
0.0108725
0.00783694
0.0045187
0.00107123
-0.00235456
-0.00560786
-0.00854822
-0.0110469
-0.0129895
-0.0142781
-0.0149285
-0.0148431
-0.0140714
-0.012688
-0.0107704
-0.00843056
-0.00582747
-0.00319501
-0.000689643
0.00178977
0.00375292
0.00439694
0.00397821
0.00271452
0.000658658
-0.00210827
-0.00548634
-0.00931288
-0.0136088
-0.0184354
-0.0235991
-0.0288846
-0.0341591
-0.0392797
-0.0440907
-0.0484382
-0.052176
-0.05517
-0.0573032
-0.0584801
-0.0586266
-0.0577308
-0.0557921
-0.0528867
-0.0491141
-0.0446033
-0.0395157
-0.034041
-0.0283917
-0.0228023
-0.0174857
-0.012625
-0.00859388
-0.00551683
-0.00212333
0.000178922
0.00169996
0.00242941
0.00231557
0.00162588
0.000518164
-0.000920432
-0.00256759
-0.00443549
-0.0063855
-0.00823153
-0.00994757
-0.0114539
-0.0126704
-0.0135609
-0.0141096
-0.0143114
-0.0141774
-0.0137377
-0.0129533
-0.0119183
-0.0108178
-0.00969437
-0.00866517
-0.00788247
-0.00733909
-0.00697289
-0.00710168
-0.00812784
-0.00986248
-0.0120748
-0.0147011
-0.0177367
-0.0211455
-0.0248418
-0.0287331
-0.0327134
-0.0366695
-0.0404899
-0.0440643
-0.0472862
-0.0500574
-0.0522904
-0.053911
-0.0548594
-0.0550948
-0.0546091
-0.0534084
-0.051529
-0.0490246
-0.0459682
-0.0424507
-0.0385806
-0.0344796
-0.030278
-0.0261108
-0.0221021
-0.0183371
-0.0149509
-0.0122802
-0.00977992
-0.00712178
-0.00526618
-0.00380841
-0.00271365
-0.00178633
-0.001246
-0.000208318
0.0022176
-0.00146117
-0.00535487
-0.00930723
-0.0131624
-0.0167643
-0.0199675
-0.0226374
-0.0246528
-0.0259111
-0.0263827
-0.0260318
-0.0248674
-0.0229617
-0.0204155
-0.0173872
-0.0140868
-0.010706
-0.00739488
-0.00426926
-0.00122897
0.000945723
0.00155574
0.00103535
-9.60256e-05
-0.00194475
-0.00445841
-0.00754408
-0.0111838
-0.0153064
-0.0197363
-0.0243296
-0.0289505
-0.0334561
-0.0377029
-0.0415513
-0.0448692
-0.0475363
-0.0494474
-0.050515
-0.0506715
-0.049918
-0.0482455
-0.0457225
-0.0424433
-0.0385304
-0.0341384
-0.0294439
-0.0246388
-0.0199264
-0.0155132
-0.0115599
-0.00831792
-0.0059092
-0.00349062
-0.00237415
-0.002125
-0.00242563
-0.0033226
-0.00453009
-0.00617394
-0.00825622
-0.0105161
-0.0128487
-0.0151557
-0.0173169
-0.019254
-0.0208894
-0.0221495
-0.0229752
-0.0233929
-0.0233565
-0.0228833
-0.0220025
-0.0207579
-0.0192487
-0.0175724
-0.0158027
-0.0140428
-0.0124524
-0.0111906
-0.0102269
-0.00940781
-0.00933736
-0.0103665
-0.0118547
-0.0136536
-0.0159198
-0.0185946
-0.0215734
-0.0247856
-0.0281298
-0.0314922
-0.0347675
-0.0378528
-0.0406483
-0.0430619
-0.0450123
-0.0464296
-0.0472558
-0.0474543
-0.0470238
-0.0459564
-0.0442838
-0.0420568
-0.0393436
-0.0362305
-0.032819
-0.0292219
-0.0255561
-0.0219386
-0.0184806
-0.0152662
-0.0124046
-0.0101388
-0.00804188
-0.0058686
-0.00441646
-0.00348813
-0.00267103
-0.00189248
-0.00125268
-0.000529306
-0.00564629
-0.00996123
-0.0144437
-0.0189309
-0.0232584
-0.0272622
-0.0307859
-0.0336847
-0.0358272
-0.0371023
-0.0374315
-0.03683
-0.0352775
-0.0328564
-0.029686
-0.0259296
-0.0217954
-0.0175137
-0.0133379
-0.00947425
-0.00585194
-0.00230755
2.13743e-05
0.00010172
-1.36349e-05
-0.000843235
-0.00248464
-0.00477716
-0.00764849
-0.0109978
-0.0146861
-0.0185911
-0.0225745
-0.0264941
-0.0302134
-0.0336027
-0.036542
-0.0389225
-0.0406466
-0.0416358
-0.0418329
-0.0412491
-0.0398674
-0.0377494
-0.0349809
-0.0316788
-0.027994
-0.0240974
-0.0201702
-0.0163937
-0.012955
-0.00988637
-0.00703829
-0.00515055
-0.0049645
-0.00469989
-0.00510079
-0.00620557
-0.00787533
-0.00997724
-0.0124296
-0.0151274
-0.0179262
-0.0207235
-0.023417
-0.025897
-0.0280732
-0.0298671
-0.0312057
-0.0320262
-0.0323447
-0.0321101
-0.0313347
-0.0300576
-0.028337
-0.0262648
-0.0239505
-0.0215138
-0.0190851
-0.016765
-0.014655
-0.0128978
-0.0113866
-0.0101662
-0.0101771
-0.0111
-0.0119844
-0.0134349
-0.0153563
-0.0175949
-0.0201209
-0.0228229
-0.0255876
-0.0283203
-0.0309253
-0.0333075
-0.0353797
-0.0370639
-0.0382912
-0.0390035
-0.0391851
-0.0388208
-0.037899
-0.0364455
-0.0345073
-0.0321516
-0.0294597
-0.0265266
-0.0234573
-0.0203581
-0.0173367
-0.0144881
-0.0118503
-0.00939182
-0.00718967
-0.00563393
-0.00466986
-0.00358792
-0.00291596
-0.00228523
-0.00175278
-0.00112656
-0.000805348
-0.0100242
-0.00797865
-0.0060794
-0.00429313
-0.00328507
-0.00292561
-0.00233325
-0.00198187
-0.00168714
-0.00156179
-0.00102092
-0.00103396
0.102727
0.102994
0.102594
0.101595
0.100137
0.0982514
0.0960066
0.0934733
0.0907135
0.0877801
0.0847158
0.0815533
0.0783156
0.0750162
0.0716592
0.0682405
0.0647493
0.06117
0.0574839
0.053671
0.0497115
0.045588
0.041287
0.0368005
0.0321282
0.0272783
0.0222697
0.0171323
0.0119088
0.00665357
0.00143372
-0.00366855
-0.00855948
-0.0131385
-0.0172992
-0.0209337
-0.023937
-0.0262112
-0.0276687
-0.0282252
-0.0277904
-0.0265489
-0.024362
-0.0212607
-0.0173077
-0.0125869
-0.00720154
-0.00127107
0.00507285
0.0116914
0.018444
0.0251926
0.0318021
0.0381445
0.0441073
0.0495953
0.0545308
0.0588549
0.0625276
0.0655273
0.0678493
0.0695041
0.0705152
0.0709166
0.0707491
0.0700662
0.068926
0.0674269
0.0655937
0.0634743
0.061115
0.0585549
0.0558244
0.0529445
0.0499276
0.0467775
0.0434905
0.0400571
0.0364631
0.0326919
0.0287265
0.0245514
0.0201551
0.015532
0.0106841
0.0056231
0.000371507
-0.00503631
-0.0105541
-0.0161234
-0.0216749
-0.0271278
-0.0323928
-0.0373752
-0.04198
-0.046116
-0.0496971
-0.0526453
-0.054892
-0.0563709
-0.0570659
-0.0570447
-0.0562632
-0.0547502
-0.0525595
-0.0497612
-0.0464395
-0.0426901
-0.0386162
-0.0343258
-0.0299294
-0.0255356
-0.0212477
-0.0171634
-0.013373
-0.0099543
-0.00697101
-0.00447142
-0.00248955
-0.00104029
-0.000125169
0.000282646
0.000240384
0.103287
0.103508
0.103079
0.102083
0.100552
0.098599
0.0962972
0.0937152
0.0909149
0.0879491
0.0848603
0.0816814
0.078435
0.0751342
0.0717823
0.0683741
0.064897
0.0613341
0.057665
0.0538681
0.0499224
0.0458088
0.0415125
0.0370243
0.0323426
0.0274748
0.0224389
0.0172646
0.0119946
0.00668272
0.00139656
-0.00378265
-0.00876156
-0.0134352
-0.0176932
-0.0214237
-0.024518
-0.026874
-0.028399
-0.0290272
-0.0287649
-0.0274521
-0.0252091
-0.022052
-0.018033
-0.0132341
-0.00775897
-0.00172928
0.00472042
0.011448
0.0183107
0.0251684
0.0318819
0.0383196
0.0443675
0.0499285
0.0549236
0.0592933
0.0629975
0.0660152
0.0683428
0.0699919
0.0709855
0.0713558
0.0711537
0.0704503
0.0693072
0.0677586
0.0658804
0.0637243
0.0613361
0.0587548
0.0560103
0.0531237
0.0501067
0.0469623
0.0436856
0.0402657
0.0366867
0.0329303
0.0289774
0.0248112
0.0204182
0.0157914
0.0109318
0.00585003
0.000568136
-0.00487944
-0.0104463
-0.0160754
-0.0216957
-0.0272234
-0.0325671
-0.0376314
-0.0423195
-0.0465358
-0.0501906
-0.0532021
-0.0554996
-0.057042
-0.0578123
-0.0577645
-0.0569471
-0.0553908
-0.0531476
-0.0502877
-0.046896
-0.0430699
-0.0389149
-0.0345418
-0.0300629
-0.0255886
-0.0212228
-0.0170658
-0.0132122
-0.00973925
-0.00671386
-0.00418293
-0.00218575
-0.000738326
0.000161045
0.000492509
0.00037217
0.1042
0.104321
0.103825
0.102721
0.1011
0.099055
0.0966644
0.0940023
0.0911332
0.0881112
0.0849792
0.0817698
0.0785059
0.0752003
0.0718549
0.0684625
0.0650082
0.0614722
0.057832
0.0540636
0.0501432
0.0460495
0.0417651
0.0372786
0.0325862
0.0276935
0.022617
0.0173854
0.0120411
0.00663823
0.00124385
-0.00405883
-0.00917171
-0.0139857
-0.018385
-0.0222521
-0.025472
-0.0279353
-0.0295437
-0.0302277
-0.0299656
-0.0286873
-0.0264227
-0.0232046
-0.019092
-0.014171
-0.00855025
-0.00235696
0.00426809
0.0111764
0.0182213
0.0252582
0.03214
0.0387298
0.0449104
0.050582
0.0556638
0.0600954
0.063837
0.0668686
0.0691882
0.0708083
0.0717537
0.0720642
0.0717982
0.0710254
0.0698032
0.0681905
0.0662499
0.0640366
0.0616001
0.058981
0.0562104
0.0533095
0.0502892
0.0471515
0.0438897
0.0404906
0.0369359
0.0332044
0.0292743
0.0251255
0.0207421
0.0161143
0.0112406
0.0061302
0.000803834
-0.0047045
-0.0103474
-0.0160675
-0.0217933
-0.0274371
-0.032903
-0.0380906
-0.0428977
-0.0472242
-0.0509756
-0.0540641
-0.0564165
-0.0579933
-0.058769
-0.0587234
-0.0578767
-0.0562641
-0.0539413
-0.050982
-0.047475
-0.0435216
-0.039232
-0.0347214
-0.0301061
-0.0254992
-0.0210083
-0.0167383
-0.0127886
-0.00923866
-0.00615876
-0.00359932
-0.0016017
-0.000193649
0.000630154
0.000820407
0.000562514
0.105322
0.105418
0.104765
0.103529
0.101784
0.0996161
0.0971117
0.0943476
0.0913912
0.0882984
0.0851119
0.0818634
0.0785767
0.0752643
0.0719268
0.0685535
0.0651257
0.0616213
0.058015
0.0542798
0.0503889
0.0463178
0.0420465
0.0375608
0.0328546
0.0279313
0.0228055
0.0175045
0.0120698
0.00655763
0.0010343
-0.00441792
-0.00969564
-0.0146826
-0.0192563
-0.0232919
-0.0266662
-0.0292619
-0.0309782
-0.0317511
-0.0314986
-0.0302167
-0.0279088
-0.024608
-0.0203762
-0.0153032
-0.00950296
-0.00310928
0.00372938
0.0108565
0.0181225
0.0253763
0.0324613
0.0392352
0.0455763
0.0513812
0.056567
0.061072
0.0648566
0.0679022
0.0702083
0.07179
0.0726783
0.0729228
0.0725875
0.0717317
0.0704201
0.0687204
0.0666989
0.0644145
0.0619188
0.0592541
0.0564523
0.0535345
0.0505109
0.0473818
0.0441384
0.0407647
0.0372394
0.033538
0.0296352
0.0255074
0.0211355
0.0165064
0.0116163
0.006472
0.00109276
-0.00448806
-0.0102223
-0.0160504
-0.0219019
-0.0276866
-0.0333009
-0.0386378
-0.0435896
-0.0480509
-0.0519201
-0.055101
-0.0575241
-0.0591494
-0.0599295
-0.0598627
-0.058965
-0.0572737
-0.0548466
-0.0517603
-0.0481082
-0.0439964
-0.0395405
-0.0348615
-0.0300804
-0.0253122
-0.0206707
-0.0162687
-0.0122086
-0.00857503
-0.00544072
-0.00286363
-0.000885302
0.000453672
0.00116648
0.00118049
0.00074848
0.106421
0.106399
0.105657
0.104301
0.102428
0.100136
0.0975161
0.0946494
0.091606
0.0884425
0.0852012
0.0819131
0.0786033
0.0752844
0.0719552
0.0686045
0.0652087
0.0617403
0.0581727
0.0544762
0.0506203
0.0465774
0.0423241
0.0378435
0.0331266
0.0281742
0.022999
0.0176264
0.0120972
0.00646817
0.000808741
-0.00480242
-0.0102599
-0.0154354
-0.020199
-0.024418
-0.02796
-0.0306972
-0.0325202
-0.0333598
-0.0331484
-0.0318606
-0.0295064
-0.0261161
-0.0217541
-0.0165149
-0.0105188
-0.0039072
0.00316259
0.0105244
0.0180279
0.0255129
0.0328094
0.0397741
0.0462804
0.0522214
0.0575115
0.0620881
0.0659118
0.0689651
0.0712493
0.0727844
0.0736123
0.073793
0.0733774
0.0724292
0.0710242
0.0692339
0.0671284
0.0647707
0.0622149
0.0595047
0.0566732
0.0537411
0.0507179
0.047602
0.0443822
0.0410398
0.0375499
0.0338845
0.0300147
0.0259133
0.0215573
0.0169308
0.0120267
0.00684958
0.00141717
-0.00423792
-0.0100672
-0.0160074
-0.0219911
-0.0279261
-0.0336973
-0.0391922
-0.0442976
-0.0489007
-0.0528908
-0.0561683
-0.0586577
-0.0603196
-0.0611039
-0.0610117
-0.0600565
-0.0582762
-0.0557316
-0.0525035
-0.0486901
-0.0444033
-0.039765
-0.0349039
-0.0299435
-0.0250012
-0.0202023
-0.0156666
-0.0114973
-0.007786
-0.00460761
-0.00203028
-9.21458e-05
0.00115289
0.00173306
0.00155192
0.000926996
0.107416
0.107309
0.106474
0.104996
0.103005
0.100597
0.0978651
0.094898
0.0917703
0.0885389
0.0852454
0.0819214
0.0785926
0.0752707
0.0719526
0.0686257
0.0652632
0.061833
0.0583061
0.0546496
0.0508295
0.046815
0.0425797
0.0381035
0.0333746
0.0283911
0.0231629
0.0177139
0.0120831
0.00632735
0.000519863
-0.00526427
-0.0109194
-0.0163034
-0.0212765
-0.0256988
-0.0294278
-0.032323
-0.0342588
-0.035152
-0.0349827
-0.0336953
-0.0312945
-0.0278083
-0.0233063
-0.0178897
-0.0116859
-0.00484394
0.00247132
0.0100827
0.0178287
0.0255533
0.0330814
0.0402509
0.0469294
0.0530113
0.058408
0.0630551
0.0669142
0.0699699
0.0722263
0.0737084
0.074471
0.0745962
0.074125
0.0730812
0.0715789
0.0697033
0.067519
0.0650918
0.06248
0.0597292
0.0568725
0.0539309
0.0509127
0.0478145
0.0446228
0.0413157
0.0378652
0.0342395
0.0304061
0.026334
0.0219966
0.0173744
0.0124575
0.00724774
0.00176113
-0.00397085
-0.00989956
-0.0159597
-0.022084
-0.028179
-0.0341206
-0.0397878
-0.0450608
-0.0498182
-0.0539423
-0.0573256
-0.0598799
-0.0615662
-0.0623554
-0.0622341
-0.0612143
-0.0593347
-0.0566604
-0.0532772
-0.0492885
-0.0448121
-0.0399763
-0.0349166
-0.0297655
-0.024639
-0.0196675
-0.0149856
-0.0107024
-0.00691305
-0.00369543
-0.00112876
0.000755157
0.0018877
0.00232381
0.00192581
0.00115113
0.108161
0.107965
0.107113
0.105554
0.103427
0.100904
0.0980806
0.095033
0.091839
0.0885549
0.0852183
0.081867
0.0785269
0.0752059
0.0719004
0.0685976
0.0652703
0.0618804
0.0583938
0.0547773
0.0509932
0.0470069
0.0427892
0.038317
0.0335749
0.0285578
0.0232725
0.0177397
0.0119962
0.00609769
0.000117876
-0.00587177
-0.0117618
-0.0173967
-0.0226272
-0.0273039
-0.0312713
-0.0343736
-0.0364676
-0.0374564
-0.0373332
-0.0360682
-0.0336239
-0.0300264
-0.0253563
-0.0197239
-0.0132678
-0.00614978
0.00145467
0.00936197
0.0173862
0.025343
0.033097
0.0404921
0.0473579
0.0535925
0.0591044
0.0638327
0.0677374
0.0708041
0.0730399
0.0744715
0.075153
0.0751792
0.0746613
0.0736071
0.0720234
0.0700604
0.0678085
0.0653258
0.0626686
0.0598867
0.0570143
0.0540716
0.0510659
0.0479922
0.0448345
0.0415681
0.0381616
0.0345798
0.0307863
0.0267464
0.0224297
0.017813
0.012883
0.00763859
0.00209329
-0.00372305
-0.00976214
-0.0159584
-0.0222458
-0.0285257
-0.0346632
-0.0405309
-0.0460014
-0.0509446
-0.0552324
-0.0587447
-0.0613861
-0.0631044
-0.063912
-0.0637693
-0.0626802
-0.060687
-0.0578618
-0.0542971
-0.0501036
-0.0454068
-0.0403423
-0.0350519
-0.0296788
-0.0243634
-0.0192239
-0.0143789
-0.00996369
-0.00608142
-0.0028162
-0.000253937
0.00157639
0.00258752
0.0028996
0.00222548
0.00151688
0.108611
0.108232
0.107222
0.105714
0.103655
0.101029
0.0981105
0.0950025
0.0917637
0.0884404
0.0850725
0.0817067
0.0783682
0.0750579
0.0717707
0.0684934
0.0652028
0.0618597
0.0584162
0.0548348
0.0510816
0.0471178
0.0429089
0.0384283
0.0336568
0.0285848
0.0232143
0.0175622
0.0116626
0.00557072
-0.000646912
-0.00691741
-0.0131121
-0.0190644
-0.0246189
-0.0296114
-0.0338698
-0.037222
-0.0395145
-0.0406559
-0.0406317
-0.0394146
-0.0369309
-0.0332202
-0.028373
-0.0225063
-0.015767
-0.00832647
-0.000373695
0.00789513
0.0162838
0.0245998
0.032663
0.0402946
0.0473883
0.0538271
0.0594806
0.0643027
0.0682595
0.0713476
0.073578
0.0749809
0.0756082
0.0755349
0.0748729
0.0737643
0.0722328
0.0702508
0.0679347
0.0654098
0.0627277
0.0599299
0.0570538
0.0541206
0.0511362
0.0480939
0.0449756
0.0417539
0.038394
0.0348572
0.0311033
0.0270936
0.0227935
0.0181756
0.0132224
0.00792911
0.00230604
-0.00361875
-0.00979705
-0.0161704
-0.0226669
-0.0291714
-0.0355463
-0.0416581
-0.0473678
-0.0525328
-0.0570128
-0.060678
-0.0634295
-0.0652232
-0.066061
-0.0659077
-0.0647472
-0.0626332
-0.0596446
-0.0558803
-0.0514583
-0.0465112
-0.0411815
-0.0356176
-0.0299697
-0.0243855
-0.0190081
-0.0139803
-0.0094161
-0.0054062
-0.0020624
0.000510654
0.00230873
0.0031595
0.00341209
0.00241209
0.00209401
0.108584
0.10811
0.106888
0.105136
0.103054
0.100644
0.0977652
0.0946203
0.0913739
0.0880735
0.0847329
0.0813745
0.0780404
0.0747491
0.0714903
0.0682428
0.0649837
0.0616819
0.0582928
0.0547532
0.0510168
0.0470576
0.0428377
0.0383232
0.0334903
0.0283252
0.022825
0.0170022
0.0108887
0.0045385
-0.00199387
-0.00861042
-0.0151557
-0.0214728
-0.0273947
-0.0327395
-0.0373149
-0.0409355
-0.0434508
-0.0447893
-0.0449089
-0.0437259
-0.0411897
-0.0373572
-0.0323236
-0.0262153
-0.0191907
-0.0114307
-0.00313265
0.0054973
0.0142527
0.0229338
0.0313525
0.0393334
0.0467269
0.0533894
0.0592556
0.0642585
0.0683244
0.0714642
0.0737065
0.0750956
0.075691
0.0755654
0.0748023
0.0735287
0.0719198
0.0700174
0.0677748
0.0652278
0.0625372
0.0597524
0.0568956
0.0539888
0.051039
0.0480376
0.0449648
0.0417906
0.0384774
0.0349825
0.0312622
0.0272735
0.0229775
0.0183422
0.0133457
0.00797914
0.00224998
-0.0038147
-0.0101719
-0.0167691
-0.0235122
-0.0302708
-0.0369097
-0.0432851
-0.0492466
-0.0546397
-0.0593126
-0.0631311
-0.0660016
-0.0678838
-0.0687628
-0.0685843
-0.0673437
-0.0651054
-0.0619536
-0.0579928
-0.0533472
-0.0481557
-0.0425673
-0.0367366
-0.0308191
-0.0249681
-0.0193318
-0.014052
-0.00926032
-0.00509162
-0.00162604
0.000999453
0.00286388
0.00355274
0.00383239
0.00250445
0.00277666
0.107818
0.107306
0.106013
0.104073
0.101712
0.0991972
0.096539
0.0936206
0.0904103
0.0871569
0.0839153
0.0806888
0.077437
0.0741781
0.0709659
0.0677681
0.0645489
0.0612787
0.0579227
0.0544329
0.0507315
0.0467627
0.0425065
0.0379324
0.0330086
0.0277156
0.0220467
0.0160135
0.00964915
0.00299339
-0.00388395
-0.0108597
-0.01779
-0.0245129
-0.0308402
-0.0365662
-0.041482
-0.0454162
-0.0482256
-0.0497929
-0.0500193
-0.0488246
-0.0462056
-0.0422215
-0.036973
-0.0305986
-0.0232682
-0.0151755
-0.00652923
0.00245326
0.0115563
0.0205723
0.0293067
0.0375832
0.0452497
0.0521767
0.0582605
0.0634247
0.0676562
0.0709284
0.0732416
0.0746544
0.0752439
0.0750946
0.0742953
0.0729409
0.0711703
0.0691705
0.0670182
0.0646257
0.0619648
0.0592091
0.0564053
0.0535543
0.0506607
0.0477173
0.044702
0.0415823
0.0383173
0.0348614
0.031168
0.0271908
0.0228864
0.0182182
0.0131599
0.00770029
0.00184499
-0.00438378
-0.0109517
-0.0177807
-0.0247585
-0.031766
-0.0386669
-0.0453085
-0.0515243
-0.0571453
-0.0620109
-0.0659948
-0.0690073
-0.0709816
-0.0718679
-0.0716276
-0.0702842
-0.0679037
-0.0645741
-0.0604066
-0.0555322
-0.0500959
-0.0442537
-0.0381658
-0.0319937
-0.0258965
-0.0200281
-0.0145346
-0.00954882
-0.00520282
-0.00159836
0.00110492
0.00306676
0.00374052
0.00414873
0.0025008
0.00333054
0.106077
0.105563
0.104249
0.102274
0.099789
0.0969993
0.0941854
0.0914482
0.0886159
0.0854979
0.0823751
0.0793051
0.0762558
0.0731727
0.0700483
0.0669221
0.0637754
0.0605631
0.0572445
0.0537782
0.0501105
0.0461618
0.041868
0.0372071
0.0321659
0.0267213
0.0208612
0.0146016
0.00795062
0.000954896
-0.00628178
-0.0136441
-0.0209846
-0.0281188
-0.034838
-0.0409403
-0.0462285
-0.0505044
-0.0535832
-0.0553162
-0.0556021
-0.054389
-0.051683
-0.0475488
-0.0420951
-0.0354724
-0.027861
-0.0194624
-0.0104939
-0.00118443
0.00824186
0.0175719
0.0266055
0.0351602
0.0430766
0.0502233
0.0564996
0.0618356
0.0661868
0.0695568
0.071976
0.0734626
0.0740905
0.0739515
0.073147
0.0717797
0.0699593
0.0678292
0.0655702
0.0632866
0.0608406
0.058163
0.0554274
0.0526679
0.0498647
0.0470053
0.0440684
0.0410194
0.0378133
0.0344008
0.0307331
0.0267611
0.0224387
0.0177278
0.0125981
0.00703977
0.00104837
-0.00535681
-0.0121135
-0.019142
-0.026344
-0.0335939
-0.0407432
-0.0476221
-0.0540522
-0.0598705
-0.0649202
-0.0690646
-0.0721866
-0.0742022
-0.0750583
-0.0747454
-0.0732989
-0.0707867
-0.0672983
-0.0629489
-0.0578729
-0.0522191
-0.0461508
-0.0398328
-0.0334289
-0.0271026
-0.0210119
-0.0153082
-0.0101314
-0.00561774
-0.00187276
0.000947692
0.00298163
0.00368447
0.00422882
0.00245201
0.00364232
0.103173
0.102697
0.10139
0.0994158
0.0969253
0.0940784
0.0910569
0.0881033
0.085432
0.082786
0.0799251
0.0770435
0.0742231
0.0714157
0.0685558
0.0655906
0.0625415
0.0594128
0.0561555
0.0527223
0.049064
0.0451199
0.0408207
0.0360965
0.0309267
0.0253188
0.0192462
0.0127088
0.00575085
-0.00156733
-0.0091521
-0.0168783
-0.0245831
-0.0320798
-0.0391878
-0.04568
-0.0513105
-0.0558532
-0.0591226
-0.0609735
-0.0613036
-0.0600617
-0.0572581
-0.0529774
-0.0473406
-0.040498
-0.0326433
-0.0239915
-0.0147628
-0.00518821
0.00449762
0.014077
0.0233449
0.0321163
0.0402299
0.0475508
0.0539775
0.0594415
0.0639064
0.0673689
0.0698415
0.0713909
0.0720779
0.0719805
0.0712031
0.0698565
0.0680508
0.0659083
0.063565
0.0611836
0.0588739
0.0564565
0.0538447
0.0511884
0.0485098
0.0457712
0.0429435
0.0399926
0.0368651
0.0335048
0.0298726
0.0259176
0.0215826
0.016832
0.0116302
0.00596026
-0.000160512
-0.00670402
-0.0136184
-0.0208234
-0.0282108
-0.0356461
-0.0429731
-0.0500292
-0.0566478
-0.062644
-0.0678358
-0.0720749
-0.0752403
-0.0772519
-0.0780642
-0.077673
-0.076129
-0.0734943
-0.0698651
-0.0653631
-0.0601273
-0.0543053
-0.0480593
-0.0415607
-0.0349749
-0.0284706
-0.0222078
-0.0163375
-0.0110009
-0.00633606
-0.00245094
0.000501084
0.00262759
0.00341396
0.00410503
0.00236255
0.00372616
0.0990319
0.0985731
0.0973024
0.0953506
0.0928889
0.0900679
0.0870486
0.0839855
0.0810866
0.0785881
0.076234
0.0737416
0.0711742
0.0686547
0.0661212
0.0634939
0.0606751
0.0576708
0.0545131
0.0511492
0.047523
0.0435784
0.0392502
0.0344736
0.0292033
0.0234257
0.0171413
0.0103664
0.00314472
-0.00445462
-0.0123293
-0.0203435
-0.0283578
-0.0362163
-0.043677
-0.0504626
-0.0563359
-0.0610771
-0.0644925
-0.0664269
-0.0667789
-0.065503
-0.0626113
-0.0582084
-0.0524137
-0.0453906
-0.0373403
-0.0284888
-0.0190724
-0.00932915
0.000508089
0.0102363
0.0196552
0.0285622
0.0367933
0.0442143
0.0507218
0.0562493
0.0607654
0.0642708
0.0667929
0.0683813
0.0691095
0.0690629
0.0683326
0.067034
0.0652802
0.0631846
0.0608708
0.0584566
0.0560793
0.0538298
0.0515118
0.0490261
0.0464851
0.0439015
0.0412218
0.0384023
0.0353967
0.0321259
0.0285333
0.0245933
0.0202568
0.0154773
0.010225
0.00448807
-0.00172023
-0.00836615
-0.0153893
-0.0227016
-0.0301895
-0.0377226
-0.0451805
-0.0523872
-0.0591308
-0.0652111
-0.0704586
-0.0747272
-0.077898
-0.0798865
-0.0806465
-0.0801876
-0.0785589
-0.0758218
-0.0720782
-0.0674537
-0.062092
-0.0561489
-0.0497867
-0.0431768
-0.0364769
-0.0298485
-0.023463
-0.0174752
-0.0120245
-0.00724673
-0.00325083
-0.000186408
0.00203705
0.0029298
0.00378108
0.00218321
0.00364442
0.0936145
0.0931636
0.0919077
0.0900035
0.0875878
0.0848248
0.0818666
0.078861
0.0759348
0.0732528
0.0710232
0.0690683
0.0670021
0.0648003
0.0626097
0.0603536
0.0579342
0.0552183
0.0522047
0.048947
0.0453889
0.041468
0.0371268
0.0323055
0.0269566
0.0210595
0.0146181
0.0076595
0.000237218
-0.00756471
-0.0156305
-0.0238515
-0.0321432
-0.0402776
-0.047956
-0.0549338
-0.0609725
-0.065843
-0.069347
-0.0713281
-0.0716845
-0.0703687
-0.0674185
-0.0629285
-0.0570223
-0.0498778
-0.0417036
-0.0327314
-0.0232049
-0.0133706
-0.00347215
0.00627335
0.0157025
0.0246385
0.032889
0.0403119
0.0468099
0.0523197
0.0568131
0.0602949
0.0627992
0.0643854
0.0651338
0.0651233
0.0644473
0.0632128
0.0615364
0.0595262
0.0572973
0.0549571
0.0525976
0.050327
0.0482078
0.0460483
0.0437233
0.0413112
0.0388149
0.0361677
0.0333155
0.0301862
0.0266847
0.0227817
0.0184653
0.0136904
0.00842668
0.00266596
-0.00357476
-0.0102536
-0.0173029
-0.0246273
-0.0321185
-0.0397011
-0.047235
-0.0544792
-0.0612316
-0.0673127
-0.0725515
-0.0767992
-0.0799371
-0.0818805
-0.0825827
-0.0820663
-0.0803657
-0.0775541
-0.0737359
-0.0690372
-0.0636021
-0.0575883
-0.0511624
-0.044497
-0.0377616
-0.0311058
-0.0246728
-0.01862
-0.0131022
-0.0082517
-0.00417566
-0.00101675
0.00129474
0.00229955
0.00331068
0.0019156
0.00346095
0.0870077
0.0864994
0.0852289
0.083348
0.0809983
0.0783087
0.0754369
0.0725301
0.0697092
0.0670696
0.0647341
0.0628923
0.0614001
0.0597929
0.0579787
0.0561103
0.0541003
0.0518293
0.0491428
0.046043
0.0425999
0.0387517
0.0344383
0.0296114
0.0242305
0.0182741
0.0117483
0.00468771
-0.00284074
-0.0107321
-0.01887
-0.0272286
-0.0357001
-0.0439579
-0.0517392
-0.0588083
-0.0649183
-0.0698397
-0.0733755
-0.0753698
-0.0757189
-0.0743681
-0.071388
-0.0668439
-0.0608804
-0.0536845
-0.0454718
-0.0364792
-0.0269546
-0.0171474
-0.00730231
0.00235417
0.0116563
0.0204816
0.0286454
0.0359701
0.0423594
0.047758
0.0521425
0.0555233
0.0579413
0.0594613
0.0601677
0.0601575
0.0595205
0.0583493
0.0567597
0.0548608
0.0527528
0.0505378
0.0482961
0.0460933
0.0440103
0.0420848
0.0401224
0.0379723
0.0356811
0.0332451
0.0305893
0.0276484
0.0243044
0.0204935
0.0162377
0.0115145
0.00629583
0.000577416
-0.00561917
-0.0122461
-0.0192252
-0.0264546
-0.033874
-0.041435
-0.0489148
-0.0560804
-0.062755
-0.0687581
-0.0739186
-0.0780909
-0.081159
-0.0830397
-0.0836865
-0.0831192
-0.0813735
-0.0785255
-0.074679
-0.0699598
-0.0645121
-0.0584936
-0.0520704
-0.0454133
-0.0386938
-0.0320759
-0.0256948
-0.0196665
-0.0141408
-0.00926952
-0.0051579
-0.00193442
0.0004393
0.00155689
0.00272016
0.00156393
0.00320127
0.0793058
0.0786958
0.0773537
0.0754474
0.0731374
0.0705386
0.0677646
0.0649757
0.0622957
0.0598135
0.0575935
0.0557163
0.0543453
0.053356
0.0522216
0.0507867
0.0492021
0.047375
0.0451639
0.0424178
0.0391476
0.0354313
0.0312141
0.0264462
0.0210997
0.0151624
0.00864464
0.00158676
-0.00592884
-0.0137743
-0.0218775
-0.0302797
-0.0387744
-0.0470182
-0.0547814
-0.0618267
-0.067908
-0.0727997
-0.0763075
-0.0782776
-0.0786076
-0.0772389
-0.0742487
-0.0697084
-0.0637663
-0.0566098
-0.0484568
-0.0395481
-0.0301355
-0.0204702
-0.0107985
-0.00135395
0.00768644
0.0162499
0.02419
0.0312969
0.0374616
0.0426402
0.0468168
0.0500081
0.0522618
0.0536495
0.0542599
0.0541935
0.0535574
0.0524421
0.0509335
0.0491538
0.0471932
0.0451395
0.0430676
0.0410299
0.0390679
0.0372368
0.0355496
0.0338056
0.0318273
0.029633
0.0272205
0.0245124
0.0214004
0.017773
0.0136406
0.00903396
0.00393289
-0.00166337
-0.00772868
-0.0142078
-0.0210094
-0.0280429
-0.0353205
-0.0427503
-0.0500554
-0.0570458
-0.0635521
-0.0693954
-0.074411
-0.0784579
-0.081423
-0.0832244
-0.0838153
-0.0832092
-0.0814465
-0.0786018
-0.0747761
-0.0700931
-0.0646952
-0.0587388
-0.0523892
-0.0458152
-0.0391853
-0.0326663
-0.026407
-0.0205032
-0.0150536
-0.0102175
-0.00612069
-0.00287475
-0.000468078
0.000762504
0.002054
0.00115506
0.00288012
0.0706466
0.0698804
0.0684261
0.0664509
0.0641187
0.061585
0.0589327
0.0562655
0.0537358
0.0514344
0.0494269
0.047736
0.0463923
0.0455495
0.0450946
0.0444232
0.043322
0.0419542
0.0402331
0.0379859
0.0350872
0.0315774
0.0275265
0.0229012
0.017678
0.0118551
0.00544957
-0.00149121
-0.00886208
-0.0165227
-0.0244844
-0.0328063
-0.0411649
-0.0492563
-0.0568719
-0.0637746
-0.0697245
-0.0745041
-0.0779261
-0.0798424
-0.0801478
-0.078785
-0.075825
-0.0713503
-0.0655065
-0.0584793
-0.0504876
-0.0417741
-0.0325923
-0.0231938
-0.0138236
-0.00472091
0.00392724
0.012081
0.0196517
0.0264175
0.0322381
0.0370826
0.0409462
0.0438526
0.0458577
0.04704
0.0474937
0.0473222
0.0466338
0.0455364
0.0441094
0.0424423
0.040638
0.0387701
0.0369029
0.0350814
0.0333331
0.0316786
0.0301472
0.0287245
0.0272034
0.0253823
0.0232545
0.0208277
0.0180176
0.0146722
0.010756
0.00634515
0.00144441
-0.00394204
-0.00978284
-0.0160121
-0.0225294
-0.0292909
-0.0363441
-0.0435136
-0.0505391
-0.0572596
-0.0635096
-0.0691168
-0.0739245
-0.0777977
-0.0806271
-0.0823332
-0.0828692
-0.0822407
-0.0804913
-0.077692
-0.0739388
-0.069351
-0.0640673
-0.0582411
-0.0520355
-0.0456171
-0.0391509
-0.0328007
-0.0267232
-0.0210278
-0.0157528
-0.0110215
-0.00699329
-0.00377806
-0.00136374
-3.07397e-05
0.00134627
0.000711493
0.00250312
0.0612131
0.060229
0.058611
0.0565274
0.0541374
0.0515944
0.0490359
0.0465126
0.0441473
0.0420448
0.0402653
0.0388579
0.0377545
0.036975
0.0367312
0.0368346
0.0365594
0.0357111
0.0344879
0.0327891
0.0304191
0.0272989
0.0235154
0.0191293
0.0141262
0.00851891
0.00233856
-0.00435488
-0.0114375
-0.0187873