/*--------------------------------*- C++ -*----------------------------------*\
| =========                 |                                                 |
| \\      /  F ield         | OpenFOAM: The Open Source CFD Toolbox           |
|  \\    /   O peration     | Version:  2206                                  |
|   \\  /    A nd           | Website:  www.openfoam.com                      |
|    \\/     M anipulation  |                                                 |
\*---------------------------------------------------------------------------*/
FoamFile
{
    version     2.0;
    format      ascii;
    arch        "LSB;label=32;scalar=64";
    class       volVectorField;
    location    "19.7001";
    object      U_0;
}
// * * * * * * * * * * * * * * * * * * * * * * * * * * * * * * * * * * * * * //

dimensions      [0 1 -1 0 0 0 0];

internalField   nonuniform List<vector> 
3087
(
(1.9968 0.252991 0)
(2.00282 0.327656 0)
(2.00569 0.394465 0)
(2.00525 0.451802 0)
(2.00147 0.498498 0)
(1.99449 0.533846 0)
(1.98463 0.557606 0)
(1.97087 0.569763 0)
(1.95252 0.569367 0)
(1.92983 0.558096 0)
(1.90317 0.538836 0)
(1.87365 0.514736 0)
(1.8425 0.489063 0)
(1.8111 0.464479 0)
(1.78018 0.442189 0)
(1.75032 0.422493 0)
(1.72192 0.405139 0)
(1.69516 0.389503 0)
(1.67006 0.374744 0)
(1.6466 0.359919 0)
(1.6247 0.344064 0)
(1.60437 0.326301 0)
(1.58568 0.30577 0)
(1.56872 0.281609 0)
(1.5537 0.25303 0)
(1.54088 0.219382 0)
(1.53056 0.180227 0)
(1.52304 0.135412 0)
(1.5186 0.0851253 0)
(1.5175 0.0299301 0)
(1.51994 -0.0292032 0)
(1.52601 -0.0908699 0)
(1.53562 -0.15315 0)
(1.54846 -0.213858 0)
(1.5642 -0.271381 0)
(1.58238 -0.324208 0)
(1.60247 -0.371062 0)
(1.62386 -0.410998 0)
(1.64593 -0.443462 0)
(1.66807 -0.468286 0)
(1.68985 -0.485643 0)
(1.71106 -0.495848 0)
(1.7317 -0.499073 0)
(1.75147 -0.495386 0)
(1.76983 -0.485489 0)
(1.78679 -0.47051 0)
(1.80249 -0.451654 0)
(1.81722 -0.429936 0)
(1.8314 -0.406078 0)
(1.84544 -0.380488 0)
(1.85968 -0.353284 0)
(1.87438 -0.324372 0)
(1.88969 -0.293512 0)
(1.90565 -0.260403 0)
(1.9222 -0.224769 0)
(1.93916 -0.186396 0)
(1.95626 -0.145175 0)
(1.97318 -0.101107 0)
(1.9896 -0.0542799 0)
(2.00519 -0.00489478 0)
(2.01964 0.0465772 0)
(2.03244 0.0990335 0)
(2.04299 0.150988 0)
(2.05092 0.201227 0)
(2.05587 0.248535 0)
(2.0576 0.291736 0)
(2.05593 0.329759 0)
(2.05078 0.361706 0)
(2.04224 0.386862 0)
(2.03014 0.404759 0)
(2.01377 0.414772 0)
(1.99325 0.416334 0)
(1.96876 0.410444 0)
(1.94097 0.398674 0)
(1.91107 0.383062 0)
(1.88051 0.365919 0)
(1.85087 0.349226 0)
(1.82292 0.333912 0)
(1.7973 0.320301 0)
(1.77436 0.308262 0)
(1.75429 0.29731 0)
(1.73711 0.286662 0)
(1.72274 0.275275 0)
(1.71113 0.262035 0)
(1.70222 0.246146 0)
(1.69572 0.226838 0)
(1.69147 0.203548 0)
(1.68931 0.175944 0)
(1.68908 0.143941 0)
(1.69062 0.107699 0)
(1.69378 0.0675976 0)
(1.69842 0.0242029 0)
(1.70443 -0.021742 0)
(1.7117 -0.0692608 0)
(1.72007 -0.116965 0)
(1.72941 -0.163521 0)
(1.73963 -0.207934 0)
(1.75064 -0.249246 0)
(1.76232 -0.286568 0)
(1.77451 -0.319127 0)
(1.787 -0.346354 0)
(1.7995 -0.367964 0)
(1.81171 -0.383993 0)
(1.82335 -0.394752 0)
(1.83444 -0.400591 0)
(1.8453 -0.401365 0)
(1.85563 -0.396602 0)
(1.86524 -0.38654 0)
(1.87409 -0.371828 0)
(1.88226 -0.353214 0)
(1.88995 -0.331425 0)
(1.89744 -0.307072 0)
(1.90498 -0.280607 0)
(1.91274 -0.252338 0)
(1.92082 -0.222469 0)
(1.92922 -0.191124 0)
(1.93792 -0.158383 0)
(1.94682 -0.124335 0)
(1.95578 -0.0890781 0)
(1.96466 -0.0526943 0)
(1.97333 -0.0152523 0)
(1.98165 0.0231202 0)
(1.98934 0.0620366 0)
(1.99603 0.100718 0)
(1.9279 0.244943 0)
(1.93562 0.322161 0)
(1.94112 0.391767 0)
(1.94415 0.452028 0)
(1.94456 0.501651 0)
(1.9423 0.539856 0)
(1.93755 0.566404 0)
(1.93047 0.581726 0)
(1.91933 0.58608 0)
(1.90426 0.57908 0)
(1.88505 0.563338 0)
(1.86263 0.541693 0)
(1.83813 0.517323 0)
(1.81264 0.492966 0)
(1.78707 0.470214 0)
(1.76197 0.449551 0)
(1.73778 0.430907 0)
(1.71478 0.413817 0)
(1.69312 0.397546 0)
(1.67285 0.381193 0)
(1.65402 0.363801 0)
(1.63672 0.344471 0)
(1.62099 0.322253 0)
(1.60702 0.296244 0)
(1.59497 0.265604 0)
(1.58507 0.229647 0)
(1.57754 0.187923 0)
(1.57261 0.140285 0)
(1.57048 0.08694 0)
(1.57131 0.0285 0)
(1.57523 -0.0339975 0)
(1.58227 -0.0990228 0)
(1.59224 -0.164402 0)
(1.60483 -0.227915 0)
(1.61971 -0.287853 0)
(1.63644 -0.342612 0)
(1.65455 -0.390827 0)
(1.67345 -0.431493 0)
(1.69253 -0.464075 0)
(1.71125 -0.488538 0)
(1.72919 -0.505245 0)
(1.74619 -0.51472 0)
(1.76249 -0.517133 0)
(1.77768 -0.512242 0)
(1.79126 -0.500878 0)
(1.80328 -0.484489 0)
(1.81398 -0.464517 0)
(1.82383 -0.442113 0)
(1.8334 -0.418026 0)
(1.84316 -0.392614 0)
(1.85344 -0.365914 0)
(1.86454 -0.337711 0)
(1.8766 -0.307656 0)
(1.88966 -0.275348 0)
(1.90365 -0.240389 0)
(1.9184 -0.202466 0)
(1.93363 -0.161398 0)
(1.94901 -0.117141 0)
(1.9642 -0.0697839 0)
(1.97885 -0.0195421 0)
(1.99263 0.0331495 0)
(2.00512 0.0873823 0)
(2.01577 0.141578 0)
(2.02419 0.194394 0)
(2.0301 0.244559 0)
(2.03327 0.290826 0)
(2.03351 0.332048 0)
(2.03071 0.367262 0)
(2.02488 0.395737 0)
(2.01617 0.416965 0)
(2.00424 0.430662 0)
(1.98846 0.436297 0)
(1.96927 0.433971 0)
(1.94686 0.425027 0)
(1.92202 0.411131 0)
(1.89586 0.39427 0)
(1.86984 0.376566 0)
(1.84507 0.35944 0)
(1.8222 0.343479 0)
(1.80168 0.328773 0)
(1.78381 0.315011 0)
(1.76873 0.301498 0)
(1.75647 0.287224 0)
(1.74706 0.271238 0)
(1.74034 0.252783 0)
(1.73606 0.231107 0)
(1.73403 0.205655 0)
(1.73401 0.17609 0)
(1.73578 0.142326 0)
(1.73911 0.104517 0)
(1.74378 0.0630251 0)
(1.74961 0.0183913 0)
(1.75644 -0.0286667 0)
(1.76413 -0.0771741 0)
(1.77249 -0.125688 0)
(1.78139 -0.17296 0)
(1.79076 -0.218004 0)
(1.80051 -0.259857 0)
(1.81053 -0.29761 0)
(1.82074 -0.330441 0)
(1.83098 -0.357714 0)
(1.84101 -0.379078 0)
(1.85055 -0.394577 0)
(1.85924 -0.404653 0)
(1.86703 -0.409923 0)
(1.87454 -0.410249 0)
(1.88133 -0.404827 0)
(1.88719 -0.393938 0)
(1.89217 -0.378462 0)
(1.89653 -0.359337 0)
(1.9006 -0.337328 0)
(1.90476 -0.31305 0)
(1.9093 -0.286908 0)
(1.91445 -0.259095 0)
(1.9203 -0.229707 0)
(1.92685 -0.198807 0)
(1.93401 -0.166445 0)
(1.94164 -0.132661 0)
(1.94958 -0.0975134 0)
(1.95764 -0.0610774 0)
(1.96566 -0.0234365 0)
(1.97348 0.0152934 0)
(1.98094 0.0548438 0)
(1.98773 0.0944974 0)
(1.85602 0.235765 0)
(1.86532 0.314536 0)
(1.87337 0.386002 0)
(1.87984 0.448374 0)
(1.88444 0.500302 0)
(1.88699 0.540931 0)
(1.88742 0.570027 0)
(1.88602 0.587838 0)
(1.8821 0.595182 0)
(1.87469 0.592574 0)
(1.86287 0.580429 0)
(1.84743 0.561583 0)
(1.82974 0.539077 0)
(1.81057 0.515565 0)
(1.79076 0.492902 0)
(1.77089 0.471799 0)
(1.75146 0.452338 0)
(1.73279 0.434182 0)
(1.71515 0.416685 0)
(1.69867 0.398981 0)
(1.68351 0.38018 0)
(1.66978 0.359334 0)
(1.65759 0.335462 0)
(1.64711 0.307632 0)
(1.63851 0.274986 0)
(1.63196 0.236834 0)
(1.62761 0.19273 0)
(1.6256 0.142545 0)
(1.62604 0.0865183 0)
(1.62899 0.0252961 0)
(1.63449 -0.040024 0)
(1.64248 -0.1078 0)
(1.6527 -0.175615 0)
(1.6648 -0.241263 0)
(1.67843 -0.302954 0)
(1.69321 -0.35902 0)
(1.70873 -0.408046 0)
(1.72458 -0.448989 0)
(1.74025 -0.481298 0)
(1.7552 -0.504999 0)
(1.76889 -0.520659 0)
(1.78119 -0.529105 0)
(1.79273 -0.530503 0)
(1.80292 -0.524173 0)
(1.81124 -0.51114 0)
(1.81791 -0.493252 0)
(1.8233 -0.472242 0)
(1.82796 -0.449399 0)
(1.83271 -0.425442 0)
(1.83801 -0.400579 0)
(1.84421 -0.374712 0)
(1.85155 -0.347549 0)
(1.86015 -0.31864 0)
(1.87008 -0.287461 0)
(1.88127 -0.25351 0)
(1.89354 -0.216375 0)
(1.90665 -0.175794 0)
(1.92025 -0.131677 0)
(1.93399 -0.0841002 0)
(1.94749 -0.0332946 0)
(1.96044 0.0203095 0)
(1.97246 0.0759101 0)
(1.98306 0.131957 0)
(1.99184 0.186913 0)
(1.99858 0.239467 0)
(2.00306 0.288327 0)
(2.0051 0.33228 0)
(2.00459 0.370289 0)
(2.00146 0.401565 0)
(1.99583 0.425604 0)
(1.98785 0.442179 0)
(1.97688 0.451178 0)
(1.96269 0.452129 0)
(1.94562 0.445921 0)
(1.92605 0.434034 0)
(1.9048 0.418093 0)
(1.88302 0.400008 0)
(1.86199 0.381577 0)
(1.84244 0.363695 0)
(1.82487 0.346661 0)
(1.80966 0.330306 0)
(1.79707 0.314008 0)
(1.78724 0.296874 0)
(1.7802 0.27818 0)
(1.77575 0.257174 0)
(1.7737 0.233165 0)
(1.77382 0.205619 0)
(1.77584 0.174215 0)
(1.77949 0.138872 0)
(1.78447 0.099737 0)
(1.79053 0.057149 0)
(1.79744 0.0116137 0)
(1.80499 -0.0361845 0)
(1.81303 -0.0852691 0)
(1.82134 -0.13418 0)
(1.8298 -0.181756 0)
(1.83833 -0.227012 0)
(1.84682 -0.268992 0)
(1.85517 -0.306783 0)
(1.86328 -0.339553 0)
(1.87109 -0.366609 0)
(1.87847 -0.387523 0)
(1.88524 -0.402294 0)
(1.89102 -0.41145 0)
(1.8955 -0.415883 0)
(1.89954 -0.41567 0)
(1.90254 -0.409271 0)
(1.90436 -0.397378 0)
(1.90524 -0.381099 0)
(1.90564 -0.361458 0)
(1.90609 -0.339542 0)
(1.9072 -0.315759 0)
(1.90906 -0.290321 0)
(1.9118 -0.263348 0)
(1.91553 -0.23485 0)
(1.92025 -0.204797 0)
(1.92589 -0.17315 0)
(1.93228 -0.139897 0)
(1.93924 -0.105078 0)
(1.94654 -0.0687737 0)
(1.95397 -0.0310892 0)
(1.96136 0.00784024 0)
(1.96855 0.047769 0)
(1.97533 0.0880999 0)
(1.78297 0.225568 0)
(1.79373 0.304888 0)
(1.80422 0.377321 0)
(1.81399 0.441012 0)
(1.82271 0.494514 0)
(1.83006 0.536857 0)
(1.83582 0.567724 0)
(1.83983 0.587376 0)
(1.84197 0.596837 0)
(1.84177 0.59839 0)
(1.83737 0.590946 0)
(1.829 0.574641 0)
(1.81811 0.554171 0)
(1.80546 0.532001 0)
(1.79168 0.509927 0)
(1.77742 0.488881 0)
(1.76314 0.469041 0)
(1.74927 0.450171 0)
(1.7361 0.431686 0)
(1.72389 0.412813 0)
(1.71286 0.392711 0)
(1.70315 0.370408 0)
(1.69493 0.344931 0)
(1.68834 0.315333 0)
(1.68355 0.280775 0)
(1.68066 0.240584 0)
(1.67976 0.194342 0)
(1.68088 0.141949 0)
(1.68405 0.0836723 0)
(1.68923 0.0201886 0)
(1.69637 -0.0473484 0)
(1.70527 -0.117154 0)
(1.71557 -0.1866 0)
(1.72686 -0.253542 0)
(1.73885 -0.316184 0)
(1.75123 -0.372868 0)
(1.76372 -0.422172 0)
(1.77601 -0.462989 0)
(1.78781 -0.494679 0)
(1.79869 -0.517265 0)
(1.80807 -0.531519 0)
(1.81543 -0.538641 0)
(1.82185 -0.53887 0)
(1.82653 -0.530725 0)
(1.82909 -0.515857 0)
(1.83003 -0.496404 0)
(1.82991 -0.474397 0)
(1.82962 -0.451429 0)
(1.82957 -0.427976 0)
(1.8303 -0.404033 0)
(1.83219 -0.379374 0)
(1.83551 -0.353598 0)
(1.84042 -0.326162 0)
(1.84698 -0.296446 0)
(1.85512 -0.263841 0)
(1.86469 -0.22784 0)
(1.87542 -0.188098 0)
(1.88699 -0.144468 0)
(1.89904 -0.0970098 0)
(1.91121 -0.0459659 0)
(1.92315 0.00821712 0)
(1.93454 0.0647631 0)
(1.94497 0.122247 0)
(1.95402 0.178895 0)
(1.9615 0.233362 0)
(1.96721 0.284321 0)
(1.971 0.33052 0)
(1.97272 0.370857 0)
(1.9723 0.404469 0)
(1.96974 0.430808 0)
(1.96521 0.449655 0)
(1.95883 0.461145 0)
(1.94966 0.465229 0)
(1.93787 0.461726 0)
(1.9236 0.452012 0)
(1.90751 0.437314 0)
(1.89054 0.41939 0)
(1.87366 0.400048 0)
(1.85785 0.380635 0)
(1.84363 0.361596 0)
(1.83148 0.34286 0)
(1.82172 0.323897 0)
(1.81457 0.304063 0)
(1.81 0.282763 0)
(1.80787 0.259299 0)
(1.80803 0.233049 0)
(1.81022 0.203526 0)
(1.81416 0.17044 0)
(1.81953 0.133719 0)
(1.82602 0.0935021 0)
(1.83331 0.0501013 0)
(1.84116 0.00398178 0)
(1.84935 -0.0442088 0)
(1.85766 -0.0934841 0)
(1.86588 -0.142418 0)
(1.87389 -0.189919 0)
(1.8816 -0.234993 0)
(1.88887 -0.276676 0)
(1.89559 -0.314069 0)
(1.90163 -0.346367 0)
(1.90689 -0.3729 0)
(1.91136 -0.393184 0)
(1.91502 -0.407055 0)
(1.91782 -0.414895 0)
(1.91949 -0.417857 0)
(1.91984 -0.417399 0)
(1.91862 -0.409759 0)
(1.91607 -0.396551 0)
(1.91285 -0.379751 0)
(1.9097 -0.360436 0)
(1.90699 -0.338996 0)
(1.90499 -0.315904 0)
(1.90394 -0.291382 0)
(1.90415 -0.265463 0)
(1.90574 -0.238088 0)
(1.90869 -0.209131 0)
(1.91289 -0.178465 0)
(1.91815 -0.14601 0)
(1.92422 -0.111765 0)
(1.93085 -0.0757996 0)
(1.93779 -0.0382429 0)
(1.94483 0.00073261 0)
(1.95181 0.0408678 0)
(1.95853 0.0816493 0)
(1.79773 0.542103 0)
(1.79016 0.521015 0)
(1.78169 0.500377 0)
(1.77282 0.480525 0)
(1.76402 0.461249 0)
(1.75568 0.442027 0)
(1.74812 0.422209 0)
(1.74157 0.400933 0)
(1.73624 0.377273 0)
(1.73231 0.350276 0)
(1.72991 0.319018 0)
(1.72917 0.282691 0)
(1.73013 0.240667 0)
(1.73282 0.192574 0)
(1.73719 0.13835 0)
(1.74314 0.0783006 0)
(1.75051 0.0131448 0)
(1.75913 -0.0558945 0)
(1.7687 -0.126862 0)
(1.77879 -0.197067 0)
(1.78908 -0.264469 0)
(1.79929 -0.327279 0)
(1.80916 -0.383861 0)
(1.8184 -0.432825 0)
(1.8268 -0.47308 0)
(1.83419 -0.503914 0)
(1.84044 -0.525138 0)
(1.84533 -0.537315 0)
(1.84836 -0.542122 0)
(1.84927 -0.541731 0)
(1.84785 -0.531447 0)
(1.84415 -0.514585 0)
(1.83907 -0.494152 0)
(1.83351 -0.471928 0)
(1.82798 -0.448986 0)
(1.82297 -0.426075 0)
(1.81907 -0.403154 0)
(1.81667 -0.379906 0)
(1.81599 -0.355782 0)
(1.81719 -0.33011 0)
(1.8203 -0.302159 0)
(1.82527 -0.271211 0)
(1.83195 -0.236661 0)
(1.8401 -0.198086 0)
(1.84942 -0.155286 0)
(1.85956 -0.108296 0)
(1.87018 -0.0573676 0)
(1.88095 -0.00297462 0)
(1.89157 0.0541063 0)
(1.9017 0.112539 0)
(1.91095 0.170414 0)
(1.91911 0.2263 0)
(1.92603 0.278848 0)
(1.93154 0.326786 0)
(1.93549 0.368976 0)
(1.93779 0.404496 0)
(1.93835 0.432718 0)
(1.93722 0.453363 0)
(1.93469 0.466527 0)
(1.9307 0.472826 0)
(1.92432 0.472043 0)
(1.91533 0.464376 0)
(1.90419 0.451131 0)
(1.89217 0.433876 0)
(1.87995 0.414275 0)
(1.86821 0.393741 0)
(1.8577 0.37306 0)
(1.84896 0.35221 0)
(1.84236 0.33086 0)
(1.83805 0.308615 0)
(1.83604 0.284908 0)
(1.83627 0.25916 0)
(1.8386 0.230832 0)
(1.84277 0.199501 0)
(1.84849 0.16492 0)
(1.85543 0.127036 0)
(1.86325 0.0859799 0)
(1.87164 0.0420362 0)
(1.88031 -0.00437466 0)
(1.88903 -0.0526433 0)
(1.89757 -0.101772 0)
(1.90567 -0.150379 0)
(1.91321 -0.197447 0)
(1.92008 -0.241972 0)
(1.92615 -0.282969 0)
(1.93126 -0.319524 0)
(1.93526 -0.350852 0)
(1.93806 -0.376375 0)
(1.9396 -0.395758 0)
(1.94001 -0.408922 0)
(1.93964 -0.416052 0)
(1.93801 -0.417866 0)
(1.93442 -0.4149 0)
(1.92866 -0.405392 0)
(1.92179 -0.391658 0)
(1.91463 -0.374729 0)
(1.90755 -0.355505 0)
(1.90107 -0.334731 0)
(1.89582 -0.312749 0)
(1.89214 -0.289616 0)
(1.89021 -0.265249 0)
(1.89003 -0.239457 0)
(1.89154 -0.21199 0)
(1.89456 -0.18263 0)
(1.89888 -0.151241 0)
(1.90421 -0.117789 0)
(1.91028 -0.0823448 0)
(1.91682 -0.0450641 0)
(1.92359 -0.00616189 0)
(1.9304 0.0340699 0)
(1.93709 0.0751476 0)
(0.143764 0.00599812 0)
(0.131869 0.00531084 0)
(0.121932 0.0042853 0)
(0.114697 0.00295491 0)
(0.110833 0.00146039 0)
(0.110432 -0.000216314 0)
(0.113307 -0.00169612 0)
(0.119078 -0.00281113 0)
(0.127114 -0.00355652 0)
(0.136484 -0.00393692 0)
(0.14635 -0.00398911 0)
(0.155859 -0.00371933 0)
(0.164304 -0.0031678 0)
(0.171148 -0.00243232 0)
(0.176046 -0.00160465 0)
(0.178813 -0.000752646 0)
(0.179533 0.000150046 0)
(0.178318 0.001034 0)
(0.17543 0.00176155 0)
(0.171165 0.00234304 0)
(0.165858 0.0027581 0)
(0.159865 0.00301086 0)
(0.153513 0.0031223 0)
(0.147097 0.00311284 0)
(0.140873 0.00298958 0)
(0.135068 0.00275439 0)
(0.129899 0.00241432 0)
(0.125555 0.00198387 0)
(0.122194 0.00148213 0)
(0.119948 0.000935318 0)
(0.118934 0.000354984 0)
(0.119112 -0.000326794 0)
(0.120419 -0.00093353 0)
(0.122856 -0.00146792 0)
(0.126338 -0.00193986 0)
(0.130743 -0.00235352 0)
(0.135949 -0.00270649 0)
(0.141826 -0.00298906 0)
(0.148219 -0.00319074 0)
(0.154948 -0.00330609 0)
(0.161819 -0.00333288 0)
(0.168648 -0.00327018 0)
(0.175257 -0.00312035 0)
(0.181478 -0.00288713 0)
(0.187157 -0.00257788 0)
(0.192151 -0.00220776 0)
(0.196348 -0.00179192 0)
(0.199676 -0.00135403 0)
(0.202087 -0.000909206 0)
(0.203567 -0.000482629 0)
(0.204143 -6.15079e-05 0)
(0.203882 0.000369981 0)
(0.202855 0.000716659 0)
(0.201142 0.000992876 0)
(0.198868 0.00120096 0)
(0.196177 0.00134043 0)
(0.193214 0.00141616 0)
(0.190122 0.00143062 0)
(0.187041 0.00138774 0)
(0.184095 0.00129529 0)
(0.181387 0.0011636 0)
(0.178993 0.00100444 0)
(0.176961 0.000830258 0)
(0.175306 0.000653864 0)
(0.174018 0.000488301 0)
(0.173061 0.000345145 0)
(0.172379 0.000235443 0)
(0.171894 0.000164158 0)
(0.171526 0.000134075 0)
(0.171195 0.000147876 0)
(0.170818 0.000213459 0)
(0.170304 0.000324733 0)
(0.169576 0.000467271 0)
(0.168578 0.00062962 0)
(0.167273 0.000801613 0)
(0.165641 0.000973632 0)
(0.163679 0.00113753 0)
(0.161399 0.00128639 0)
(0.158829 0.00141456 0)
(0.15601 0.00151762 0)
(0.152994 0.00159224 0)
(0.149842 0.00163634 0)
(0.146623 0.00164752 0)
(0.143405 0.00162307 0)
(0.140264 0.00156121 0)
(0.137278 0.00146151 0)
(0.134528 0.00132389 0)
(0.132091 0.00115015 0)
(0.130044 0.000943253 0)
(0.128458 0.000706923 0)
(0.127406 0.000444912 0)
(0.126946 0.000151952 0)
(0.127076 -0.000197417 0)
(0.127794 -0.0005227 0)
(0.12914 -0.000830834 0)
(0.131101 -0.001119 0)
(0.133649 -0.00138406 0)
(0.136738 -0.00162131 0)
(0.14031 -0.00182528 0)
(0.144293 -0.0019908 0)
(0.148601 -0.00211374 0)
(0.15314 -0.00219135 0)
(0.157809 -0.00222245 0)
(0.162506 -0.00220714 0)
(0.167129 -0.00214743 0)
(0.171583 -0.0020475 0)
(0.175782 -0.0019125 0)
(0.179652 -0.00174838 0)
(0.183132 -0.00156161 0)
(0.186177 -0.00135905 0)
(0.188758 -0.0011475 0)
(0.19086 -0.000933587 0)
(0.192482 -0.000723452 0)
(0.193638 -0.000523722 0)
(0.194347 -0.00034014 0)
(0.194647 -0.000169856 0)
(0.194598 6.38963e-06 0)
(0.19425 0.000145689 0)
(0.19364 0.000260642 0)
(0.192814 0.000353367 0)
(0.19182 0.000426103 0)
(0.190698 0.000482247 0)
(0.189481 0.000525279 0)
(0.188197 0.000558603 0)
(0.414581 0.0186147 0)
(0.402835 0.0158117 0)
(0.393675 0.0120548 0)
(0.387752 0.00748431 0)
(0.385433 0.00222037 0)
(0.38713 -0.00321326 0)
(0.392817 -0.00808376 0)
(0.401803 -0.0118849 0)
(0.413157 -0.0143693 0)
(0.425848 -0.01546 0)
(0.438812 -0.0152559 0)
(0.451082 -0.0139163 0)
(0.461883 -0.0116304 0)
(0.470553 -0.00871144 0)
(0.476693 -0.00550976 0)
(0.480203 -0.00227062 0)
(0.481118 0.000965553 0)
(0.47938 0.00392219 0)
(0.47543 0.00626717 0)
(0.469843 0.00799304 0)
(0.463127 0.00911224 0)
(0.455745 0.00967095 0)
(0.448099 0.00974433 0)
(0.440558 0.0094092 0)
(0.433442 0.00873262 0)
(0.42704 0.00776877 0)
(0.421588 0.00656085 0)
(0.417265 0.0051559 0)
(0.414183 0.00360816 0)
(0.412385 0.00195438 0)
(0.411874 0.000179403 0)
(0.412796 -0.00168495 0)
(0.415155 -0.0034868 0)
(0.41878 -0.00511989 0)
(0.423521 -0.00653314 0)
(0.429244 -0.00772969 0)
(0.435823 -0.00871891 0)
(0.443113 -0.0094809 0)
(0.450917 -0.00998346 0)
(0.459003 -0.0102099 0)
(0.467118 -0.0101653 0)
(0.475019 -0.00987046 0)
(0.482492 -0.00934766 0)
(0.489319 -0.00861639 0)
(0.495321 -0.00769469 0)
(0.500352 -0.00659578 0)
(0.504288 -0.0053695 0)
(0.507105 -0.00407404 0)
(0.508794 -0.00275513 0)
(0.509417 -0.00140243 0)
(0.509003 -7.1664e-05 0)
(0.507625 0.00115875 0)
(0.505426 0.00224743 0)
(0.502591 0.00316718 0)
(0.499274 0.00388479 0)
(0.495643 0.00437647 0)
(0.491858 0.00465373 0)
(0.488079 0.00472078 0)
(0.484444 0.00458909 0)
(0.481079 0.00428282 0)
(0.478084 0.00384113 0)
(0.475524 0.00331248 0)
(0.473435 0.00274786 0)
(0.471815 0.002193 0)
(0.470634 0.00168349 0)
(0.469835 0.00125083 0)
(0.469337 0.000921052 0)
(0.469042 0.000716657 0)
(0.468847 0.000623355 0)
(0.468651 0.000653475 0)
(0.468361 0.000813774 0)
(0.46786 0.00110318 0)
(0.467061 0.00148637 0)
(0.465918 0.00192634 0)
(0.464405 0.00239562 0)
(0.462518 0.00286902 0)
(0.460269 0.00332298 0)
(0.457692 0.00373682 0)
(0.454832 0.00409267 0)
(0.45175 0.0043758 0)
(0.448514 0.00457428 0)
(0.4452 0.00467909 0)
(0.441894 0.00468448 0)
(0.438679 0.0045861 0)
(0.435638 0.00437953 0)
(0.432855 0.00406274 0)
(0.430403 0.00363554 0)
(0.428356 0.00310112 0)
(0.426781 0.00246475 0)
(0.425733 0.00173789 0)
(0.42526 0.000920142 0)
(0.425406 2.52627e-05 0)
(0.426231 -0.000933248 0)
(0.427749 -0.00189304 0)
(0.429916 -0.00282603 0)
(0.432708 -0.0037149 0)
(0.436087 -0.00454123 0)
(0.439997 -0.00528453 0)
(0.444365 -0.00592446 0)
(0.449103 -0.00644264 0)
(0.454111 -0.00682386 0)
(0.459279 -0.00705815 0)
(0.464492 -0.00714108 0)
(0.469635 -0.00707167 0)
(0.474598 -0.006854 0)
(0.479279 -0.00650012 0)
(0.483587 -0.00602755 0)
(0.48745 -0.00545647 0)
(0.490811 -0.00480821 0)
(0.49363 -0.00410576 0)
(0.495886 -0.00337331 0)
(0.497575 -0.00263496 0)
(0.49871 -0.00191263 0)
(0.499315 -0.00122353 0)
(0.499426 -0.000575119 0)
(0.49909 1.35717e-05 0)
(0.498357 0.000538032 0)
(0.497285 0.000980545 0)
(0.495948 0.00134122 0)
(0.494401 0.00162652 0)
(0.492694 0.0018449 0)
(0.490871 0.00200627 0)
(0.488969 0.0021218 0)
(0.487015 0.00220286 0)
(0.686812 0.0308357 0)
(0.675478 0.026333 0)
(0.666383 0.0199945 0)
(0.660154 0.0119978 0)
(0.657431 0.00269688 0)
(0.658542 -0.00702878 0)
(0.663228 -0.0158714 0)
(0.67102 -0.0228968 0)
(0.681138 -0.0274858 0)
(0.69271 -0.0294781 0)
(0.704956 -0.0291321 0)
(0.717162 -0.0267833 0)
(0.728343 -0.022702 0)
(0.737583 -0.0174288 0)
(0.744333 -0.0115649 0)
(0.748424 -0.00550027 0)
(0.749953 0.000406811 0)
(0.74916 0.00578305 0)
(0.746356 0.0102817 0)
(0.741981 0.013686 0)
(0.736483 0.0160403 0)
(0.730297 0.0174472 0)
(0.723807 0.0179948 0)
(0.717344 0.0177512 0)
(0.711151 0.0167686 0)
(0.705454 0.0150993 0)
(0.700448 0.0128364 0)
(0.696286 0.010119 0)
(0.693106 0.00708236 0)
(0.691011 0.00383323 0)
(0.690055 0.000418078 0)
(0.690263 -0.0030207 0)
(0.691587 -0.00632872 0)
(0.693955 -0.00935679 0)
(0.697305 -0.012035 0)
(0.701595 -0.0143978 0)
(0.706775 -0.0164545 0)
(0.712766 -0.0181132 0)
(0.719458 -0.0192491 0)
(0.726723 -0.0197935 0)
(0.734426 -0.0197357 0)
(0.742409 -0.0190911 0)
(0.750481 -0.0178818 0)
(0.758386 -0.0161442 0)
(0.765892 -0.0139422 0)
(0.772726 -0.011407 0)
(0.778594 -0.0087022 0)
(0.783284 -0.0059582 0)
(0.786668 -0.00327468 0)
(0.788703 -0.000689651 0)
(0.789359 0.00177798 0)
(0.78861 0.00400449 0)
(0.786588 0.00581581 0)
(0.783486 0.00720212 0)
(0.779525 0.00817623 0)
(0.774971 0.00875804 0)
(0.770076 0.00896116 0)
(0.76506 0.00880445 0)
(0.760163 0.00833113 0)
(0.755569 0.00760302 0)
(0.751422 0.00668539 0)
(0.747826 0.00564247 0)
(0.744841 0.00454335 0)
(0.742488 0.00346452 0)
(0.740751 0.00247231 0)
(0.739578 0.00162476 0)
(0.738881 0.000974244 0)
(0.738545 0.00055749 0)
(0.738453 0.000389717 0)
(0.738512 0.000418436 0)
(0.738625 0.00076247 0)
(0.738638 0.00135589 0)
(0.738389 0.00210819 0)
(0.737784 0.00296858 0)
(0.736775 0.00388879 0)
(0.735331 0.00482015 0)
(0.733446 0.00571504 0)
(0.731136 0.00652959 0)
(0.72844 0.00722542 0)
(0.725415 0.0077703 0)
(0.72213 0.00813843 0)
(0.718666 0.00831065 0)
(0.715115 0.00827572 0)
(0.711577 0.00802963 0)
(0.708143 0.00757257 0)
(0.704907 0.00690917 0)
(0.701961 0.00604928 0)
(0.699396 0.00500822 0)
(0.697302 0.00380102 0)
(0.695756 0.00243757 0)
(0.694829 0.00093264 0)
(0.694584 -0.00067658 0)
(0.695073 -0.00230665 0)
(0.696313 -0.00394023 0)
(0.698291 -0.0055393 0)
(0.700982 -0.00706281 0)
(0.70435 -0.00847269 0)
(0.708343 -0.00972869 0)
(0.71289 -0.010792 0)
(0.717899 -0.0116277 0)
(0.723261 -0.0122072 0)
(0.728853 -0.0125125 0)
(0.734543 -0.0125381 0)
(0.740187 -0.012288 0)
(0.745657 -0.0117756 0)
(0.750826 -0.0110275 0)
(0.755583 -0.0100805 0)
(0.759834 -0.00897379 0)
(0.763505 -0.00774874 0)
(0.766544 -0.00644886 0)
(0.768923 -0.00511648 0)
(0.770638 -0.00379141 0)
(0.771704 -0.00250698 0)
(0.772147 -0.0012841 0)
(0.772011 -0.000147386 0)
(0.771357 0.000850454 0)
(0.770258 0.00169855 0)
(0.768797 0.00241154 0)
(0.767054 0.00299285 0)
(0.765099 0.00344918 0)
(0.762997 0.00379278 0)
(0.760801 0.00403967 0)
(0.758557 0.00420837 0)
(0.756296 0.00431809 0)
(0.967385 0.0442006 0)
(0.956523 0.0370409 0)
(0.947751 0.0277105 0)
(0.941472 0.0164153 0)
(0.937745 0.0036614 0)
(0.93684 -0.00924166 0)
(0.938549 -0.0208089 0)
(0.942239 -0.0301128 0)
(0.947457 -0.0367301 0)
(0.95405 -0.0401791 0)
(0.961342 -0.0408129 0)
(0.96925 -0.0384134 0)
(0.977521 -0.0329274 0)
(0.985219 -0.0252112 0)
(0.991206 -0.0165023 0)
(0.994901 -0.00768532 0)
(0.996048 0.000691024 0)
(0.994717 0.00814422 0)
(0.991331 0.014242 0)
(0.986403 0.0187427 0)
(0.980452 0.0216056 0)
(0.974009 0.0229768 0)
(0.967565 0.0231065 0)
(0.961514 0.0222426 0)
(0.956168 0.0205788 0)
(0.951733 0.0182484 0)
(0.948333 0.0153676 0)
(0.946042 0.0120429 0)
(0.944889 0.00837029 0)
(0.944854 0.00448106 0)
(0.945889 0.000461828 0)
(0.947894 -0.00355562 0)
(0.950698 -0.007394 0)
(0.95416 -0.0109344 0)
(0.958232 -0.0141537 0)
(0.962844 -0.0170875 0)
(0.967836 -0.0197259 0)
(0.972999 -0.0219727 0)
(0.978212 -0.0237325 0)
(0.983419 -0.0249506 0)
(0.988596 -0.0256022 0)
(0.993744 -0.0256589 0)
(0.998854 -0.0250868 0)
(1.00391 -0.0238539 0)
(1.00888 -0.0220288 0)
(1.01373 -0.0194507 0)
(1.01843 -0.0161284 0)
(1.02289 -0.0123946 0)
(1.02694 -0.00838674 0)
(1.03039 -0.0042744 0)
(1.03305 -0.000231683 0)
(1.03477 0.00357846 0)
(1.03542 0.00702723 0)
(1.03489 0.0100114 0)
(1.03316 0.0123506 0)
(1.03032 0.0138368 0)
(1.0265 0.0146905 0)
(1.02189 0.0148508 0)
(1.01674 0.014351 0)
(1.01134 0.0132879 0)
(1.00596 0.0117968 0)
(1.00086 0.0100391 0)
(0.996204 0.00816694 0)
(0.992105 0.00631559 0)
(0.988625 0.00458576 0)
(0.985777 0.00308235 0)
(0.983517 0.00191446 0)
(0.981777 0.00114418 0)
(0.980492 0.000711675 0)
(0.979525 0.000579387 0)
(0.978727 0.000741149 0)
(0.978001 0.00143632 0)
(0.977213 0.00245557 0)
(0.976221 0.00365987 0)
(0.974928 0.00496885 0)
(0.973271 0.00630987 0)
(0.971217 0.00761313 0)
(0.968762 0.00881473 0)
(0.965925 0.00985962 0)
(0.962751 0.0107028 0)
(0.959299 0.0113088 0)
(0.955643 0.0116509 0)
(0.951864 0.0117106 0)
(0.948052 0.0114799 0)
(0.94431 0.0109605 0)
(0.940729 0.0101524 0)
(0.93741 0.00905685 0)
(0.934453 0.00768341 0)
(0.931957 0.00604555 0)
(0.93001 0.00415225 0)
(0.928714 0.00203168 0)
(0.92817 -0.000273312 0)
(0.928443 -0.00266443 0)
(0.929545 -0.00507127 0)
(0.931466 -0.00743537 0)
(0.93418 -0.0097091 0)
(0.937652 -0.0118438 0)
(0.941832 -0.0137774 0)
(0.946644 -0.0154488 0)
(0.951992 -0.0168015 0)
(0.957756 -0.0177849 0)
(0.963804 -0.0183665 0)
(0.970001 -0.018528 0)
(0.976202 -0.0182637 0)
(0.982267 -0.0175862 0)
(0.988065 -0.0165315 0)
(0.993474 -0.0151522 0)
(0.998391 -0.0135034 0)
(1.00273 -0.0116451 0)
(1.0064 -0.00964492 0)
(1.00938 -0.00757376 0)
(1.01161 -0.00550009 0)
(1.01311 -0.00348182 0)
(1.01387 -0.00156089 0)
(1.01394 0.000227485 0)
(1.01333 0.00181671 0)
(1.01213 0.00315325 0)
(1.01042 0.00424818 0)
(1.00831 0.00511282 0)
(1.00588 0.0057639 0)
(1.00322 0.00622591 0)
(1.00041 0.00652899 0)
(0.997521 0.00670639 0)
(0.994604 0.00679205 0)
(1.20133 0.0539994 0)
(1.19768 0.046657 0)
(1.19399 0.0363852 0)
(1.19061 0.0236944 0)
(1.18757 0.00915009 0)
(1.18478 -0.00593802 0)
(1.18241 -0.0197317 0)
(1.18055 -0.030979 0)
(1.17926 -0.0387684 0)
(1.17864 -0.0428209 0)
(1.17866 -0.0439187 0)
(1.17939 -0.0433418 0)
(1.1807 -0.039265 0)
(1.18246 -0.0318429 0)
(1.18435 -0.0222113 0)
(1.18575 -0.0112693 0)
(1.18604 -0.000397603 0)
(1.18498 0.009378 0)
(1.18263 0.0174436 0)
(1.17915 0.0235225 0)
(1.17471 0.0276127 0)
(1.16952 0.0298055 0)
(1.16397 0.0302718 0)
(1.15844 0.0292355 0)
(1.15334 0.0269059 0)
(1.14898 0.0234889 0)
(1.14561 0.0192191 0)
(1.14337 0.0143266 0)
(1.14236 0.00903006 0)
(1.14266 0.00354844 0)
(1.14428 -0.00186215 0)
(1.14721 -0.00703968 0)
(1.15148 -0.0118869 0)
(1.15708 -0.0163158 0)
(1.16395 -0.020256 0)
(1.17191 -0.0236313 0)
(1.18064 -0.0263462 0)
(1.18976 -0.0283287 0)
(1.19884 -0.029585 0)
(1.2076 -0.0301984 0)
(1.21572 -0.0302083 0)
(1.22296 -0.0296055 0)
(1.22916 -0.0284013 0)
(1.2342 -0.026571 0)
(1.23799 -0.0241206 0)
(1.24054 -0.0211996 0)
(1.24206 -0.0179566 0)
(1.24282 -0.0144838 0)
(1.24301 -0.0107873 0)
(1.2428 -0.00681667 0)
(1.24233 -0.00257866 0)
(1.24168 0.00173808 0)
(1.2408 0.00584086 0)
(1.23964 0.00956795 0)
(1.2381 0.0127983 0)
(1.23605 0.0154513 0)
(1.23339 0.0174028 0)
(1.23013 0.0185277 0)
(1.2263 0.0188201 0)
(1.22197 0.0183413 0)
(1.21726 0.0171893 0)
(1.21231 0.0155001 0)
(1.20726 0.0134412 0)
(1.20233 0.011206 0)
(1.19763 0.00896722 0)
(1.19326 0.00688017 0)
(1.18929 0.00507664 0)
(1.18577 0.00364491 0)
(1.18268 0.00264538 0)
(1.17994 0.0021336 0)
(1.17742 0.00216047 0)
(1.17506 0.00271283 0)
(1.17281 0.00370851 0)
(1.17056 0.00504782 0)
(1.1682 0.00662377 0)
(1.16562 0.00832476 0)
(1.16274 0.0100422 0)
(1.15952 0.0116762 0)
(1.15592 0.0131386 0)
(1.15194 0.0143555 0)
(1.1476 0.0152672 0)
(1.14295 0.0158267 0)
(1.13806 0.0159995 0)
(1.13303 0.0157644 0)
(1.12797 0.0151146 0)
(1.12304 0.0140516 0)
(1.11838 0.0125795 0)
(1.11412 0.0107122 0)
(1.11044 0.00846975 0)
(1.10749 0.00587809 0)
(1.10542 0.00297103 0)
(1.10442 -0.000193631 0)
(1.10462 -0.00349569 0)
(1.10609 -0.00680782 0)
(1.10879 -0.0100382 0)
(1.11268 -0.013132 0)
(1.11771 -0.0160325 0)
(1.12381 -0.0186504 0)
(1.13084 -0.0209092 0)
(1.13859 -0.0227313 0)
(1.14686 -0.0240384 0)
(1.15539 -0.0247912 0)
(1.16394 -0.0249856 0)
(1.17231 -0.0246256 0)
(1.1803 -0.0237154 0)
(1.18775 -0.0223067 0)
(1.19453 -0.0204752 0)
(1.20056 -0.0182826 0)
(1.20576 -0.0158035 0)
(1.21009 -0.0131259 0)
(1.21352 -0.0103409 0)
(1.21604 -0.0075337 0)
(1.21768 -0.0047756 0)
(1.21846 -0.00212344 0)
(1.21841 0.000365107 0)
(1.2176 0.00261823 0)
(1.21612 0.00456054 0)
(1.21405 0.00618054 0)
(1.21148 0.00748685 0)
(1.20851 0.00849302 0)
(1.20524 0.00922193 0)
(1.20173 0.00970753 0)
(1.19808 0.00999117 0)
(1.19433 0.0101178 0)
(1.34859 0.0520046 0)
(1.34556 0.0449502 0)
(1.34332 0.0351407 0)
(1.34166 0.0230529 0)
(1.34037 0.00940372 0)
(1.33889 -0.00429679 0)
(1.33686 -0.0167121 0)
(1.33424 -0.0270451 0)
(1.33118 -0.034737 0)
(1.32815 -0.0395334 0)
(1.32534 -0.0415817 0)
(1.32215 -0.0404818 0)
(1.31833 -0.0360735 0)
(1.31384 -0.0289053 0)
(1.30889 -0.0196749 0)
(1.30351 -0.00912822 0)
(1.2977 0.00180675 0)
(1.29155 0.0119533 0)
(1.28505 0.0205574 0)
(1.27825 0.0272047 0)
(1.27128 0.0317412 0)
(1.2643 0.0341661 0)
(1.25754 0.034567 0)
(1.25133 0.0331203 0)
(1.24604 0.0301397 0)
(1.2418 0.0259801 0)
(1.23872 0.0209398 0)
(1.23692 0.0152516 0)
(1.23654 0.00909408 0)
(1.23772 0.00260619 0)
(1.24062 -0.00406007 0)
(1.24545 -0.010734 0)
(1.25238 -0.0172427 0)
(1.26145 -0.0233838 0)
(1.27259 -0.0289478 0)
(1.28566 -0.0337317 0)
(1.30041 -0.0375371 0)
(1.31654 -0.0401982 0)
(1.33365 -0.0416234 0)
(1.35123 -0.0418002 0)
(1.36835 -0.0408097 0)
(1.38447 -0.0388215 0)
(1.39919 -0.0360171 0)
(1.41197 -0.0323699 0)
(1.42239 -0.0279902 0)
(1.43015 -0.0231813 0)
(1.43536 -0.018337 0)
(1.43805 -0.0133615 0)
(1.43821 -0.00830838 0)
(1.43608 -0.00352819 0)
(1.43211 0.00086026 0)
(1.42674 0.00491768 0)
(1.4205 0.0087796 0)
(1.41386 0.0124609 0)
(1.40718 0.0157537 0)
(1.40056 0.0184326 0)
(1.39409 0.020579 0)
(1.3877 0.0220339 0)
(1.38131 0.0226749 0)