/*--------------------------------*- C++ -*----------------------------------*\
| =========                 |                                                 |
| \\      /  F ield         | OpenFOAM: The Open Source CFD Toolbox           |
|  \\    /   O peration     | Version:  2206                                  |
|   \\  /    A nd           | Website:  www.openfoam.com                      |
|    \\/     M anipulation  |                                                 |
\*---------------------------------------------------------------------------*/
FoamFile
{
    version     2.0;
    format      ascii;
    arch        "LSB;label=32;scalar=64";
    class       volVectorField;
    location    "19.1001";
    object      ddtCorrDdt0(U);
}
// * * * * * * * * * * * * * * * * * * * * * * * * * * * * * * * * * * * * * //

dimensions      [0 1 -2 0 0 0 0];

internalField   nonuniform List<vector> 
1877
(
(14.0291 11.3776 0)
(13.0896 14.2505 0)
(11.7805 16.7184 0)
(10.1734 18.7662 0)
(8.2942 20.3256 0)
(6.12524 21.1566 0)
(3.80021 21.2782 0)
(1.45695 20.707 0)
(-0.836199 19.4546 0)
(-2.98484 17.5663 0)
(-4.87212 15.1367 0)
(-6.40067 12.311 0)
(-7.57347 9.24894 0)
(-8.56353 6.04569 0)
(-9.39374 2.7461 0)
(-9.908 -0.520305 0)
(-10.2599 -3.76164 0)
(-10.3136 -6.90471 0)
(-10.0571 -9.77572 0)
(-9.56347 -12.2945 0)
(-8.88167 -14.4353 0)
(-8.00764 -16.1653 0)
(-6.8621 -17.3425 0)
(-5.39886 -17.742 0)
(-3.78875 -17.531 0)
(-2.0934 -16.7355 0)
(-0.382138 -15.4037 0)
(1.26181 -13.6032 0)
(2.74611 -11.4347 0)
(4.02461 -9.03712 0)
(5.20395 -6.52088 0)
(6.40652 -3.85817 0)
(7.3116 -1.14128 0)
(8.09645 1.42366 0)
(8.63887 3.93546 0)
(8.83547 6.29115 0)
(8.6937 8.38684 0)
(8.26799 10.2065 0)
(7.58945 11.7382 0)
(6.66438 12.9341 0)
(5.47489 13.6451 0)
(4.10161 13.8581 0)
(2.64822 13.6105 0)
(1.18555 12.9163 0)
(-0.234375 11.8079 0)
(-1.53828 10.3411 0)
(-2.65082 8.6028 0)
(-3.5336 6.70093 0)
(-4.26562 4.72023 0)
(-4.9635 2.66625 0)
(-5.44058 0.60449 0)
(-5.84457 -1.38612 0)
(-6.1005 -3.37159 0)
(-6.14237 -5.23265 0)
(-6.00389 -6.88541 0)
(-5.73209 -8.31215 0)
(-5.34575 -9.50818 0)
(-4.82246 -10.4337 0)
(-4.09403 -10.9394 0)
(-3.21697 -11.0226 0)
(-2.25786 -10.7414 0)
(-1.25366 -10.1065 0)
(-0.250892 -9.14646 0)
(0.68902 -7.90929 0)
(1.50314 -6.47573 0)
(2.17281 -4.95279 0)
(2.81798 -3.40561 0)
(3.49549 -1.76058 0)
(4.02278 -0.103592 0)
(4.50666 1.4841 0)
(4.84387 3.03692 0)
(4.98523 4.46426 0)
(4.94919 5.72091 0)
(4.76118 6.80572 0)
(4.41901 7.70013 0)
(3.90851 8.35274 0)
(3.20919 8.63385 0)
(2.40824 8.62245 0)
(1.56296 8.31509 0)
(0.709167 7.72999 0)
(-0.109792 6.89831 0)
(-0.841513 5.86926 0)
(-1.44172 4.71274 0)
(-1.9135 3.50549 0)
(-2.35879 2.27556 0)
(-2.76339 0.997549 0)
(-3.06138 -0.247225 0)
(-3.3154 -1.46743 0)
(-3.45284 -2.64494 0)
(-3.46825 -3.71236 0)
(-3.38948 -4.6433 0)
(-3.23603 -5.43704 0)
(-3.00715 -6.08542 0)
(-2.67457 -6.53933 0)
(-2.21324 -6.70677 0)
(-1.68983 -6.65158 0)
(-1.12368 -6.37656 0)
(-0.539754 -5.89312 0)
(0.0292693 -5.22166 0)
(0.541929 -4.40008 0)
(0.95825 -3.4911 0)
(1.28576 -2.56819 0)
(1.64573 -1.64975 0)
(1.99514 -0.660635 0)
(2.29057 0.311597 0)
(2.54831 1.26773 0)
(2.70943 2.17462 0)
(2.7713 2.98708 0)
(2.74916 3.69725 0)
(2.64808 4.30337 0)
(2.45852 4.78772 0)
(2.16067 5.09871 0)
(1.75642 5.18509 0)
(1.29923 5.09138 0)
(0.820467 4.82178 0)
(0.34248 4.39064 0)
(-0.104046 3.82174 0)
(-0.48797 3.15409 0)
(-0.794554 2.43745 0)
(-1.06338 1.70756 0)
(-1.32391 0.942003 0)
(-1.54757 0.180077 0)
(-1.7145 -0.605446 0)
(-1.88597 -1.23715 0)
(-1.95445 -2.23766 0)
(10.9482 11.8621 0)
(10.3396 15.1522 0)
(9.43129 17.9616 0)
(8.28238 20.2782 0)
(6.94285 22.0947 0)
(5.37221 23.2763 0)
(3.52465 23.4977 0)
(1.5497 22.9615 0)
(-0.450346 21.6432 0)
(-2.35887 19.5559 0)
(-4.02392 16.7928 0)
(-5.29477 13.5574 0)
(-6.07552 10.1288 0)
(-6.52556 6.74504 0)
(-7.0787 3.36545 0)
(-7.44111 -0.0692945 0)
(-7.75459 -3.55486 0)
(-7.82648 -6.99732 0)
(-7.59927 -10.12 0)
(-7.18807 -12.8393 0)
(-6.64023 -15.1475 0)
(-5.97353 -17.0307 0)
(-5.17373 -18.4417 0)
(-4.14436 -19.1336 0)
(-2.92553 -19.0225 0)
(-1.62436 -18.279 0)
(-0.295661 -16.921 0)
(0.991928 -15.009 0)
(2.14444 -12.656 0)
(3.05771 -10.0271 0)
(3.66992 -7.32379 0)
(4.21287 -4.69051 0)
(4.92125 -1.97832 0)
(5.47677 0.722169 0)
(6.01178 3.4902 0)
(6.26095 6.16482 0)
(6.23498 8.53973 0)
(6.01545 10.5908 0)
(5.62647 12.3166 0)
(5.08763 13.7101 0)
(4.3859 14.7209 0)
(3.45935 15.1149 0)
(2.3785 14.9475 0)
(1.23202 14.2782 0)
(0.0635094 13.1166 0)
(-1.04771 11.5052 0)
(-1.99914 9.54512 0)
(-2.6895 7.39587 0)
(-3.08643 5.24443 0)
(-3.43803 3.1721 0)
(-3.84398 1.04996 0)
(-4.15181 -1.03104 0)
(-4.4184 -3.21345 0)
(-4.45025 -5.2712 0)
(-4.32122 -7.07512 0)
(-4.09419 -8.62785 0)
(-3.78129 -9.92244 0)
(-3.39615 -10.9489 0)
(-2.91228 -11.6577 0)
(-2.27845 -11.8356 0)
(-1.56871 -11.6128 0)
(-0.817828 -10.995 0)
(-0.0603443 -10.0015 0)
(0.65527 -8.67803 0)
(1.26453 -7.11066 0)
(1.69717 -5.42506 0)
(1.93586 -3.77318 0)
(2.22354 -2.21699 0)
(2.57688 -0.560426 0)
(2.8902 1.0915 0)
(3.16324 2.80388 0)
(3.2651 4.39836 0)
(3.24602 5.79107 0)
(3.14047 6.98775 0)
(2.95223 7.98013 0)
(2.68606 8.7616 0)
(2.3076 9.25998 0)
(1.78681 9.32523 0)
(1.19791 9.06752 0)
(0.570598 8.48954 0)
(-0.0640228 7.61148 0)
(-0.653043 6.48096 0)
(-1.1329 5.18387 0)
(-1.44355 3.8379 0)
(-1.61966 2.55778 0)
(-1.88497 1.31369 0)
(-2.08258 0.0217403 0)
(-2.29392 -1.2765 0)
(-2.41025 -2.573 0)
(-2.40203 -3.74934 0)
(-2.31801 -4.7692 0)
(-2.17568 -5.63435 0)
(-1.98408 -6.33953 0)
(-1.74602 -6.87469 0)
(-1.42893 -7.1588 0)
(-1.03944 -7.14108 0)
(-0.61836 -6.88813 0)
(-0.182572 -6.39878 0)
(0.244249 -5.68851 0)
(0.627306 -4.79797 0)
(0.92695 -3.79732 0)
(1.10354 -2.7784 0)
(1.19834 -1.83147 0)
(1.39508 -0.907343 0)
(1.54307 0.0800383 0)
(1.70297 1.10615 0)
(1.78599 2.10224 0)
(1.79112 2.99396 0)
(1.74736 3.77029 0)
(1.66031 4.42835 0)
(1.53417 4.96304 0)
(1.3639 5.36446 0)
(1.12147 5.55578 0)
(0.814352 5.49689 0)
(0.481251 5.24362 0)
(0.134711 4.80043 0)
(-0.202042 4.18898 0)
(-0.497619 3.45551 0)
(-0.721564 2.66396 0)
(-0.86066 1.87338 0)
(-0.970369 1.10575 0)
(-1.12268 0.345247 0)
(-1.22548 -0.457874 0)
(-1.36716 -1.11042 0)
(-1.41047 -2.204 0)
(7.95907 12.2211 0)
(7.56006 15.7939 0)
(6.95203 18.8136 0)
(6.12545 21.279 0)
(5.11023 23.2314 0)
(3.88454 24.6429 0)
(2.40992 25.1715 0)
(0.842884 24.756 0)
(-0.680271 23.4517 0)
(-2.08404 21.2203 0)
(-3.27141 18.142 0)
(-4.12239 14.4598 0)
(-4.50096 10.5681 0)
(-4.35206 6.93515 0)
(-4.28143 3.74291 0)
(-4.59549 0.277219 0)
(-4.9931 -3.4323 0)
(-5.18133 -7.09858 0)
(-5.0349 -10.4086 0)
(-4.78093 -13.2695 0)
(-4.45224 -15.6803 0)
(-4.04069 -17.6504 0)
(-3.55981 -19.1759 0)
(-2.94731 -20.087 0)
(-2.16496 -20.0816 0)
(-1.28445 -19.4095 0)
(-0.332148 -18.0653 0)
(0.647781 -16.084 0)
(1.56416 -13.5613 0)
(2.29154 -10.6798 0)
(2.67554 -7.70758 0)
(2.66916 -4.97577 0)
(2.91888 -2.52999 0)
(3.31255 0.262167 0)
(3.89505 3.20492 0)
(4.1392 6.06126 0)
(4.10625 8.61521 0)
(3.9791 10.8212 0)
(3.74853 12.6716 0)
(3.40844 14.166 0)
(2.96595 15.2939 0)
(2.36916 15.9166 0)
(1.61609 15.8658 0)
(0.807753 15.284 0)
(-0.0261188 14.1397 0)
(-0.836341 12.4478 0)
(-1.53725 10.2967 0)
(-2.02114 7.87652 0)
(-2.16132 5.46475 0)
(-2.00441 3.3621 0)
(-2.14969 1.42607 0)
(-2.42433 -0.790244 0)
(-2.79637 -3.1221 0)
(-2.83068 -5.30789 0)
(-2.72595 -7.2242 0)
(-2.5912 -8.86123 0)
(-2.39966 -10.2153 0)
(-2.16263 -11.296 0)
(-1.88151 -12.0819 0)
(-1.50765 -12.4001 0)
(-1.04935 -12.2241 0)
(-0.540827 -11.6405 0)
(0.00268391 -10.6432 0)
(0.544183 -9.25675 0)
(1.0177 -7.56275 0)
(1.34331 -5.71014 0)
(1.42521 -3.90277 0)
(1.32348 -2.35562 0)
(1.50548 -0.858083 0)
(1.74369 0.889142 0)
(2.02752 2.68616 0)
(2.06177 4.36084 0)
(2.00609 5.83382 0)
(1.92599 7.09729 0)
(1.79735 8.14394 0)
(1.62631 8.97471 0)
(1.40057 9.55962 0)
(1.07857 9.74209 0)
(0.690844 9.54822 0)
(0.26777 9.01827 0)
(-0.177873 8.14776 0)
(-0.60908 6.96429 0)
(-0.964372 5.55085 0)
(-1.16437 4.05081 0)
(-1.13397 2.65244 0)
(-1.06042 1.49391 0)
(-1.22606 0.229923 0)
(-1.4261 -1.16331 0)
(-1.55226 -2.53746 0)
(-1.52213 -3.78549 0)
(-1.44557 -4.86597 0)
(-1.34266 -5.77414 0)
(-1.20691 -6.51219 0)
(-1.04919 -7.08418 0)
(-0.854213 -7.44459 0)
(-0.605421 -7.46843 0)
(-0.323625 -7.24617 0)
(-0.0173768 -6.76945 0)
(0.299088 -6.04254 0)
(0.593985 -5.09665 0)
(0.824548 -4.00653 0)
(0.939003 -2.88786 0)
(0.89711 -1.88091 0)
(0.909191 -1.03188 0)
(1.01517 -0.0300869 0)
(1.17375 1.04249 0)
(1.22149 2.07855 0)
(1.1829 3.01225 0)
(1.12573 3.82566 0)
(1.04711 4.51243 0)
(0.944872 5.07122 0)
(0.822651 5.49899 0)
(0.6623 5.74836 0)
(0.454395 5.72901 0)
(0.222422 5.50977 0)
(-0.0276131 5.08497 0)
(-0.281129 4.46657 0)
(-0.508098 3.69223 0)
(-0.673179 2.83286 0)
(-0.742873 1.96956 0)
(-0.723895 1.17913 0)
(-0.743515 0.47778 0)
(-0.788811 -0.352449 0)
(-0.95348 -1.1026 0)
(-1.00704 -2.14863 0)
(4.64821 12.2851 0)
(4.46442 16.1721 0)
(4.15105 19.4731 0)
(3.64022 22.208 0)
(2.95692 24.4348 0)
(2.12329 26.0838 0)
(1.189 26.6613 0)
(0.385674 26.1069 0)
(-0.260288 24.6279 0)
(-0.812056 22.2002 0)
(-1.30152 18.8631 0)
(-1.70263 14.8096 0)
(-1.90757 10.4653 0)
(-1.69492 6.45576 0)
(-1.62093 3.23213 0)
(-1.6838 1.18378 0)
(-2.22416 -3.03323 0)
(-2.60056 -7.03555 0)
(-2.63787 -10.4546 0)
(-2.60108 -13.4294 0)
(-2.50688 -15.923 0)
(-2.32743 -17.9529 0)
(-2.10504 -19.5463 0)
(-1.84283 -20.5996 0)
(-1.49469 -20.7196 0)
(-1.06593 -20.1617 0)
(-0.559362 -18.9175 0)
(0.00885146 -16.9638 0)
(0.575616 -14.3338 0)
(1.03857 -11.1814 0)
(1.26504 -7.83833 0)
(1.09326 -4.78827 0)
(1.08616 -2.37319 0)
(1.23828 -0.868459 0)
(1.74929 2.91045 0)
(1.9822 5.98878 0)
(1.98262 8.64286 0)
(1.95637 10.9655 0)
(1.88044 12.9217 0)
(1.72784 14.5275 0)
(1.50952 15.7903 0)
(1.22084 16.5689 0)
(0.866656 16.5475 0)
(0.523257 15.9648 0)
(0.19465 14.804 0)
(-0.133481 13.0497 0)
(-0.445894 10.7452 0)
(-0.684836 8.05118 0)
(-0.7445 5.29852 0)
(-0.583759 2.95483 0)
(-0.596172 1.35623 0)
(-0.774184 0.126482 0)
(-1.16703 -3.1011 0)
(-1.27222 -5.31762 0)
(-1.28096 -7.28662 0)
(-1.28692 -8.97868 0)
(-1.24527 -10.3733 0)
(-1.16122 -11.4859 0)
(-1.05218 -12.3129 0)
(-0.903437 -12.7168 0)
(-0.699582 -12.5999 0)
(-0.448651 -12.08 0)
(-0.157619 -11.124 0)
(0.153967 -9.72137 0)
(0.440088 -7.9187 0)
(0.637466 -5.86299 0)
(0.657828 -3.82029 0)
(0.533613 -2.11883 0)
(0.529782 -0.96645 0)
(0.660214 0.270456 0)
(0.890887 2.69282 0)
(0.912399 4.39863 0)
(0.877666 5.91559 0)
(0.847548 7.22027 0)
(0.791217 8.30506 0)
(0.712037 9.18495 0)
(0.607488 9.8319 0)
(0.447818 10.0744 0)
(0.271987 9.89764 0)
(0.105505 9.38234 0)
(-0.0676715 8.50941 0)
(-0.244942 7.27821 0)
(-0.398538 5.73857 0)
(-0.48185 4.0406 0)
(-0.423126 2.44369 0)
(-0.36633 1.20798 0)
(-0.352286 0.595027 0)
(-0.505956 -0.955848 0)
(-0.632546 -2.54692 0)
(-0.644363 -3.83658 0)
(-0.6331 -4.95783 0)
(-0.609546 -5.8934 0)
(-0.561076 -6.64871 0)
(-0.49864 -7.23492 0)
(-0.42375 -7.62426 0)
(-0.323692 -7.6837 0)
(-0.19261 -7.49321 0)
(-0.0372088 -7.04401 0)
(0.135476 -6.32061 0)
(0.306348 -5.33258 0)
(0.444051 -4.14283 0)
(0.505715 -2.88837 0)
(0.436822 -1.76702 0)
(0.43877 -0.900212 0)
(0.448314 -0.424676 0)
(0.5672 1.00895 0)
(0.603044 2.12064 0)
(0.573343 3.07859 0)
(0.539443 3.92002 0)
(0.495937 4.62839 0)
(0.437206 5.20827 0)
(0.364331 5.66486 0)
(0.265293 5.95852 0)
(0.14538 5.95329 0)
(0.0276504 5.7428 0)
(-0.090334 5.31985 0)
(-0.206838 4.67847 0)
(-0.308777 3.84496 0)
(-0.381589 2.89813 0)
(-0.404079 1.93957 0)
(-0.342686 1.07425 0)
(-0.317016 0.311271 0)
(-0.307869 -0.145327 0)
(-0.429195 -0.824722 0)
(-0.503426 -2.2544 0)
(0.474933 12.1998 0)
(0.453459 16.1787 0)
(0.454252 19.5682 0)
(0.460245 22.3678 0)
(0.498016 24.6414 0)
(0.608272 26.3145 0)
(0.817722 26.8561 0)
(0.957812 26.246 0)
(1.01647 24.7484 0)
(0.980424 22.3657 0)
(0.839572 19.117 0)
(0.600975 15.1282 0)
(0.306198 10.7493 0)
(0.0675781 6.56656 0)
(-0.0282231 3.24947 0)
(-0.150863 1.52439 0)
(-0.466437 -2.6442 0)
(-0.743421 -6.85693 0)
(-0.885082 -10.3271 0)
(-0.977542 -13.3832 0)
(-1.02768 -15.9449 0)
(-1.0109 -18.0189 0)
(-0.938264 -19.6248 0)
(-0.821858 -20.6869 0)
(-0.611276 -20.8558 0)
(-0.407951 -20.3377 0)
(-0.223415 -19.1442 0)
(-0.0679617 -17.2296 0)
(0.0559645 -14.598 0)
(0.140841 -11.3837 0)
(0.174524 -7.91388 0)
(0.118114 -4.6892 0)
(-0.00613921 -2.25909 0)
(-0.0250004 -1.10443 0)
(0.0445305 2.7013 0)
(0.0594867 5.87655 0)
(0.0656301 8.54436 0)
(0.0987012 10.8926 0)
(0.149046 12.8679 0)
(0.218116 14.4905 0)
(0.318394 15.767 0)
(0.445273 16.5619 0)
(0.591742 16.5397 0)
(0.708964 15.9679 0)
(0.758079 14.8389 0)
(0.733341 13.1366 0)
(0.643916 10.8871 0)
(0.502221 8.22784 0)
(0.337578 5.47051 0)
(0.207768 3.05661 0)
(0.128331 1.45819 0)
(-0.0136912 0.345438 0)
(-0.22097 -2.95345 0)
(-0.362248 -5.15958 0)
(-0.474924 -7.15797 0)
(-0.569045 -8.89161 0)
(-0.627817 -10.3265 0)
(-0.643245 -11.4731 0)
(-0.609664 -12.3262 0)
(-0.512125 -12.7657 0)
(-0.403771 -12.6725 0)
(-0.294891 -12.1808 0)
(-0.194304 -11.252 0)
(-0.107459 -9.86413 0)
(-0.0386241 -8.05357 0)
(0.00926649 -5.96168 0)
(0.0278742 -3.85785 0)
(0.00109894 -2.07752 0)
(-0.0303587 -0.957202 0)
(-0.0255269 0.176756 0)
(-0.0107423 2.62386 0)
(-0.00438261 4.33134 0)
(0.0080051 5.8577 0)
(0.0310684 7.1678 0)
(0.0652867 8.25483 0)
(0.115853 9.13761 0)
(0.18507 9.79526 0)
(0.290635 10.0572 0)
(0.371497 9.88207 0)
(0.424632 9.37614 0)
(0.44689 8.52505 0)
(0.431447 7.32317 0)
(0.383909 5.81164 0)
(0.31138 4.13376 0)
(0.231678 2.53448 0)
(0.171255 1.27996 0)
(0.11601 0.596621 0)
(0.0284198 -0.874209 0)
(-0.0835833 -2.44893 0)
(-0.17624 -3.74485 0)
(-0.255457 -4.88315 0)
(-0.320384 -5.83704 0)
(-0.363401 -6.61004 0)
(-0.379043 -7.21192 0)
(-0.359936 -7.61896 0)
(-0.300239 -7.70465 0)
(-0.242086 -7.52965 0)
(-0.181015 -7.09908 0)
(-0.123209 -6.39193 0)
(-0.0714333 -5.41171 0)
(-0.0278416 -4.21605 0)
(0.0042495 -2.93818 0)
(0.0109714 -1.77131 0)
(-0.00157391 -0.913207 0)
(0.00198298 -0.415423 0)
(0.0143371 0.960142 0)
(0.0145623 2.07468 0)
(0.0158058 3.03974 0)
(0.0222973 3.88726 0)
(0.0325117 4.59863 0)
(0.0501466 5.18149 0)
(0.07979 5.64471 0)
(0.128739 5.95062 0)
(0.181852 5.95425 0)
(0.217763 5.74873 0)
(0.239285 5.33221 0)
(0.243781 4.70234 0)
(0.230742 3.88331 0)
(0.201265 2.9454 0)
(0.158953 1.97788 0)
(0.119628 1.08861 0)
(0.0892294 0.348204 0)
(0.0527181 -0.104085 0)
(-0.0110243 -0.778911 0)
(-0.0927723 -2.21992 0)
(0.0219449 -0.72056 0)
(0.0364598 -2.16181 0)
(4.40817 0.231579 0)
(3.85906 0.288818 0)
(3.19254 0.337865 0)
(2.42551 0.377017 0)
(1.57206 0.407124 0)
(0.712672 0.452224 0)
(-0.151666 0.453153 0)
(-1.00891 0.41135 0)
(-1.83141 0.371546 0)
(-2.57468 0.322212 0)
(-3.21313 0.265507 0)
(-3.72788 0.202906 0)
(-4.10464 0.136402 0)
(-4.33567 0.0677156 0)
(-4.416 -0.00183321 0)
(-4.34896 -0.0691771 0)
(-4.14268 -0.131147 0)
(-3.8093 -0.186295 0)
(-3.36518 -0.233284 0)
(-2.82857 -0.271111 0)
(-2.21889 -0.29873 0)
(-1.55374 -0.314389 0)
(-0.854546 -0.323803 0)
(-0.179878 -0.365076 0)
(0.464696 -0.326059 0)
(1.09861 -0.294602 0)
(1.6811 -0.259233 0)
(2.19376 -0.220346 0)
(2.62546 -0.178381 0)
(2.96733 -0.134 0)
(3.21308 -0.088024 0)
(3.35918 -0.0406496 0)
(3.40159 0.0076384 0)
(3.34249 0.0550895 0)
(3.18419 0.100099 0)
(2.93233 0.141677 0)
(2.59502 0.17882 0)
(2.18247 0.210535 0)
(1.70663 0.235635 0)
(1.17942 0.252127 0)
(0.618341 0.264204 0)
(0.0618317 0.294407 0)
(-0.474001 0.267072 0)
(-1.00111 0.242385 0)
(-1.48494 0.212823 0)
(-1.90745 0.178791 0)
(-2.25631 0.140926 0)
(-2.52212 0.100352 0)
(-2.69912 0.0583177 0)
(-2.78414 0.0152471 0)
(-2.77614 -0.0273031 0)
(-2.68032 -0.0671339 0)
(-2.50204 -0.103294 0)
(-2.25033 -0.134969 0)
(-1.93543 -0.161433 0)
(-1.56842 -0.182116 0)
(-1.15921 -0.196772 0)
(-0.715467 -0.208436 0)
(-0.296808 -0.244461 0)
(0.114173 -0.216841 0)
(0.529614 -0.196297 0)
(0.916946 -0.174255 0)
(1.26233 -0.150175 0)
(1.55816 -0.123951 0)
(1.79803 -0.0958885 0)
(1.97719 -0.0665839 0)
(2.09293 -0.0365633 0)
(2.14319 -0.00586731 0)
(2.12767 0.0245501 0)
(2.04891 0.0533806 0)
(1.91002 0.0801032 0)
(1.7162 0.104105 0)
(1.47368 0.124837 0)
(1.18966 0.141872 0)
(0.871183 0.154914 0)
(0.523881 0.165545 0)
(0.190557 0.190369 0)
(-0.139932 0.173379 0)
(-0.471622 0.155479 0)
(-0.780723 0.137607 0)
(-1.05453 0.117486 0)
(-1.28549 0.0951153 0)
(-1.46758 0.0709467 0)
(-1.59665 0.0456597 0)
(-1.67059 0.0196599 0)
(-1.68765 -0.00640389 0)
(-1.65037 -0.0313565 0)
(-1.56128 -0.0543071 0)
(-1.42509 -0.074762 0)
(-1.24762 -0.0922611 0)
(-1.03542 -0.106522 0)
(-0.795452 -0.116958 0)
(-0.534038 -0.122873 0)
(-0.26806 -0.129918 0)
(-0.00277887 -0.136747 0)
(0.250684 -0.123672 0)
(0.496076 -0.112882 0)
(0.720041 -0.0990217 0)
(0.915725 -0.0835205 0)
(1.07853 -0.0666706 0)
(1.20494 -0.0488778 0)
(1.29277 -0.0305696 0)
(1.34073 -0.0117447 0)
(1.34792 0.00705883 0)
(1.31615 0.0249786 0)
(1.24696 0.0416282 0)
(1.14355 0.0566681 0)
(1.00969 0.0697567 0)
(0.849645 0.0806086 0)
(0.667472 0.089056 0)
(0.466337 0.0960588 0)
(0.271936 0.10899 0)
(0.077185 0.103475 0)
(-0.119852 0.0934648 0)
(-0.3056 0.0836195 0)
(-0.472087 0.0723418 0)
(-0.614553 0.0596282 0)
(-0.72907 0.0457703 0)
(-0.812845 0.0312164 0)
(-0.863834 0.016023 0)
(-0.881367 0.00137726 0)
(-0.865489 -0.0128765 0)
(-0.823095 -0.0258076 0)
(-0.745076 -0.0289409 0)
(-0.647237 -0.032956 0)
(4.44424 0.779636 0)
(3.7922 0.959732 0)
(3.02918 1.11148 0)
(2.17909 1.23154 0)
(1.27808 1.32963 0)
(0.313432 1.41204 0)
(-0.666367 1.37801 0)
(-1.58256 1.29658 0)
(-2.42123 1.17828 0)
(-3.16633 1.0253 0)
(-3.79099 0.842183 0)
(-4.27436 0.636015 0)
(-4.60331 0.415273 0)
(-4.77067 0.18776 0)
(-4.76985 -0.0398453 0)
(-4.61711 -0.258259 0)
(-4.31702 -0.458229 0)
(-3.88683 -0.633988 0)
(-3.3467 -0.781432 0)
(-2.71883 -0.89749 0)
(-2.02689 -0.980319 0)
(-1.2993 -1.03455 0)
(-0.562399 -1.07716 0)
(0.211853 -1.0703 0)
(0.93772 -1.00899 0)
(1.58463 -0.922054 0)
(2.16551 -0.81613 0)
(2.66569 -0.693497 0)
(3.07233 -0.557451 0)
(3.37711 -0.411781 0)
(3.57615 -0.260222 0)
(3.66549 -0.105257 0)
(3.64426 0.0504087 0)
(3.51856 0.202393 0)
(3.29009 0.346324 0)
(2.96716 0.478708 0)
(2.56004 0.595844 0)
(2.08109 0.694148 0)
(1.545 0.77071 0)
(0.971392 0.826947 0)
(0.378186 0.873923 0)
(-0.251733 0.877729 0)
(-0.849634 0.833517 0)
(-1.3898 0.764861 0)
(-1.87556 0.674979 0)
(-2.29076 0.566087 0)
(-2.62135 0.442084 0)
(-2.85821 0.307863 0)
(-2.99719 0.168553 0)
(-3.03148 0.0275352 0)
(-2.97017 -0.110166 0)
(-2.81555 -0.238732 0)
(-2.57614 -0.354365 0)
(-2.2632 -0.454129 0)
(-1.88953 -0.535826 0)
(-1.46912 -0.59784 0)
(-1.01926 -0.641948 0)
(-0.560087 -0.680192 0)
(-0.0615516 -0.697363 0)
(0.416366 -0.662637 0)
(0.841924 -0.611808 0)
(1.23006 -0.548758 0)
(1.57134 -0.474015 0)
(1.85536 -0.38941 0)
(2.07552 -0.297488 0)
(2.22787 -0.200993 0)
(2.31093 -0.102227 0)
(2.32077 -0.00243899 0)
(2.26429 0.0955794 0)
(2.14125 0.18833 0)
(1.95709 0.273696 0)
(1.71835 0.349653 0)
(1.43279 0.414212 0)
(1.10952 0.465719 0)
(0.759929 0.503698 0)
(0.401403 0.53279 0)
(0.0151635 0.559418 0)
(-0.368098 0.529464 0)
(-0.709619 0.488004 0)
(-1.01984 0.435884 0)
(-1.29069 0.372517 0)
(-1.51257 0.299639 0)
(-1.67916 0.219814 0)
(-1.78702 0.135983 0)
(-1.83327 0.0504111 0)
(-1.81838 -0.0343079 0)
(-1.74681 -0.114971 0)
(-1.62135 -0.188846 0)
(-1.4483 -0.253971 0)
(-1.23488 -0.308684 0)
(-0.988992 -0.351868 0)
(-0.719463 -0.383571 0)
(-0.436318 -0.407958 0)
(-0.140989 -0.420063 0)
(0.154481 -0.412824 0)
(0.431917 -0.389378 0)
(0.683361 -0.355191 0)
(0.907594 -0.312681 0)
(1.09871 -0.263084 0)
(1.25188 -0.208081 0)
(1.36405 -0.149501 0)
(1.43396 -0.0891049 0)
(1.45905 -0.0277439 0)
(1.44249 0.032908 0)
(1.38496 0.0905994 0)
(1.28921 0.14384 0)
(1.15932 0.191424 0)
(0.99993 0.232228 0)
(0.816414 0.265301 0)
(0.615245 0.290303 0)
(0.405944 0.309881 0)
(0.184836 0.33184 0)
(-0.0397868 0.315767 0)
(-0.245149 0.292498 0)
(-0.431712 0.263791 0)
(-0.596018 0.228302 0)
(-0.73253 0.186824 0)
(-0.837094 0.140745 0)
(-0.907475 0.0916709 0)
(-0.939919 0.0410245 0)
(-0.939873 -0.00934464 0)
(-0.899041 -0.0560485 0)
(-0.833592 -0.0982066 0)
(-0.749551 -0.134503 0)
(-0.56241 -0.164171 0)
(4.94031 1.40549 0)
(4.23488 1.71519 0)
(3.40344 1.97616 0)
(2.46993 2.18234 0)
(1.46364 2.3327 0)
(0.388647 2.40572 0)
(-0.691987 2.33703 0)
(-1.7133 2.21662 0)
(-2.65756 2.02513 0)
(-3.49572 1.7623 0)
(-4.19793 1.44053 0)
(-4.74098 1.07508 0)
(-5.11051 0.682743 0)
(-5.29823 0.278458 0)
(-5.29503 -0.122526 0)
(-5.12405 -0.504182 0)
(-4.78987 -0.852683 0)
(-4.31259 -1.15795 0)
(-3.71483 -1.41178 0)
(-3.02102 -1.60906 0)
(-2.25566 -1.75047 0)
(-1.44221 -1.84286 0)
(-0.606852 -1.87893 0)
(0.227477 -1.80653 0)
(1.01817 -1.70828 0)
(1.74305 -1.56985 0)
(2.38945 -1.38941 0)
(2.94346 -1.17563 0)
(3.3934 -0.936649 0)
(3.73128 -0.680268 0)
(3.95337 -0.41375 0)
(4.05456 -0.142082 0)
(4.03348 0.129315 0)
(3.89918 0.393222 0)
(3.6525 0.642242 0)
(3.30214 0.870091 0)
(2.8586 1.07086 0)
(2.33439 1.239 0)
(1.74426 1.37058 0)
(1.10593 1.46555 0)
(0.436275 1.51922 0)
(-0.251607 1.49389 0)
(-0.912592 1.4212 0)
(-1.52358 1.31156 0)
(-2.07104 1.15822 0)
(-2.53786 0.967439 0)
(-2.90929 0.747778 0)
(-3.17526 0.509043 0)
(-3.33181 0.260974 0)
(-3.36937 0.0116019 0)
(-3.30129 -0.229717 0)
(-3.12991 -0.453964 0)
(-2.86489 -0.654265 0)
(-2.51908 -0.825477 0)
(-2.10658 -0.964104 0)
(-1.64215 -1.06906 0)
(-1.1411 -1.14367 0)
(-0.617365 -1.18622 0)
(-0.0772714 -1.16206 0)
(0.440679 -1.11464 0)
(0.919797 -1.04047 0)
(1.35419 -0.936018 0)
(1.73359 -0.806829 0)
(2.04864 -0.658531 0)
(2.29273 -0.49648 0)
(2.46191 -0.325969 0)
(2.55501 -0.151514 0)
(2.56613 0.0231279 0)
(2.50542 0.193174 0)
(2.37191 0.353692 0)
(2.1714 0.500806 0)
(1.91089 0.631005 0)
(1.59847 0.740969 0)
(1.2435 0.827878 0)
(0.856819 0.890356 0)
(0.450643 0.928306 0)
(0.0271579 0.933447 0)
(-0.391066 0.895669 0)
(-0.776368 0.832829 0)
(-1.12546 0.746306 0)
(-1.42888 0.636575 0)
(-1.67713 0.508232 0)
(-1.86338 0.366757 0)
(-1.98405 0.217919 0)
(-2.03543 0.066467 0)
(-2.01849 -0.0821733 0)
(-1.93921 -0.222503 0)
(-1.80054 -0.350129 0)
(-1.6096 -0.461946 0)
(-1.37433 -0.555694 0)
(-1.10321 -0.629794 0)
(-0.804875 -0.685107 0)
(-0.486759 -0.722203 0)
(-0.157798 -0.725553 0)
(0.163384 -0.69997 0)
(0.468676 -0.662525 0)
(0.749236 -0.606452 0)
(0.998464 -0.533274 0)
(1.21013 -0.446507 0)
(1.37932 -0.349649 0)
(1.50287 -0.246221 0)
(1.57987 -0.139518 0)
(1.60648 -0.0318791 0)
(1.58773 0.0735722 0)
(1.52416 0.173457 0)
(1.41882 0.265242 0)
(1.27608 0.346787 0)
(1.10096 0.416129 0)
(0.899132 0.471709 0)
(0.677249 0.512814 0)
(0.44373 0.539675 0)
(0.195829 0.55028 0)
(-0.0546131 0.534375 0)
(-0.283894 0.497947 0)
(-0.493347 0.450172 0)
(-0.67775 0.388755 0)
(-0.830889 0.315618 0)
(-0.948339 0.233702 0)
(-1.02688 0.146177 0)
(-1.06456 0.056437 0)
(-1.06206 -0.0314216 0)
(-1.02085 -0.114466 0)
(-0.93799 -0.188507 0)
(-0.857592 -0.262435 0)
(-0.609001 -0.328216 0)
(5.95912 2.08114 0)
(5.11959 2.54446 0)
(4.12381 2.93892 0)
(2.99784 3.25391 0)
(1.77195 3.47928 0)
(0.460606 3.58366 0)
(-0.859585 3.50821 0)
(-2.10806 3.31571 0)
(-3.26096 3.02153 0)
(-4.27939 2.62488 0)
(-5.12658 2.14 0)
(-5.77456 1.58929 0)
(-6.20815 0.99894 0)
(-6.41657 0.39081 0)
(-6.39571 -0.209436 0)
(-6.17364 -0.775486 0)
(-5.75842 -1.28966 0)
(-5.17414 -1.73869 0)
(-4.44803 -2.11184 0)
(-3.60862 -2.40363 0)
(-2.68446 -2.61644 0)
(-1.70119 -2.75674 0)
(-0.685175 -2.80586 0)
(0.314722 -2.70845 0)
(1.25745 -2.54746 0)
(2.12331 -2.3293 0)
(2.89195 -2.05532 0)
(3.54825 -1.73428 0)
(4.07999 -1.37736 0)
(4.47837 -0.995987 0)
(4.74005 -0.600841 0)
(4.85825 -0.198678 0)
(4.83271 0.201685 0)
(4.67418 0.589739 0)
(4.38312 0.956551 0)
(3.96889 1.29367 0)
(3.44301 1.59235 0)
(2.81932 1.84452 0)
(2.11437 2.04465 0)
(1.34707 2.18974 0)
(0.533956 2.26938 0)
(-0.296369 2.24743 0)
(-1.0932 2.13036 0)
(-1.83319 1.95795 0)
(-2.49489 1.72496 0)
(-3.05691 1.43721 0)
(-3.50183 1.10675 0)
(-3.81807 0.748514 0)
(-4.00186 0.376726 0)
(-4.0399 0.00460579 0)
(-3.95274 -0.35284 0)
(-3.74249 -0.684343 0)
(-3.42152 -0.980933 0)
(-3.00529 -1.23502 0)
(-2.51018 -1.44173 0)
(-1.95332 -1.60038 0)
(-1.35162 -1.71315 0)
(-0.720612 -1.77228 0)
(-0.0796274 -1.74718 0)
(0.535957 -1.66724 0)
(1.10884 -1.54797 0)
(1.62578 -1.38849 0)
(2.07513 -1.1937 0)
(2.44706 -0.971112 0)
(2.73408 -0.729016 0)
(2.93218 -0.475501 0)
(3.03981 -0.216552 0)
(3.05066 0.0418631 0)
(2.97727 0.292455 0)
(2.81861 0.529025 0)
(2.58115 0.74615 0)
(2.2728 0.938769 0)
(1.90258 1.1022 0)
(1.48087 1.23253 0)
(1.01913 1.3276 0)
(0.529318 1.38547 0)
(0.021198 1.39581 0)
(-0.477282 1.3414 0)
(-0.939786 1.24248 0)
(-1.3594 1.11042 0)
(-1.72283 0.94519 0)
(-2.01873 0.752543 0)
(-2.23904 0.540609 0)
(-2.38016 0.3182 0)
(-2.43688 0.092154 0)
(-2.41261 -0.12883 0)
(-2.31405 -0.336626 0)
(-2.1457 -0.525589 0)
(-1.91632 -0.691053 0)
(-1.63522 -0.829831 0)
(-1.31173 -0.940599 0)
(-0.955153 -1.02421 0)
(-0.574032 -1.07817 0)
(-0.18062 -1.08437 0)
(0.202211 -1.049 0)
(0.565159 -0.98822 0)
(0.898101 -0.901202 0)
(1.19266 -0.78995 0)
(1.44189 -0.658919 0)
(1.64014 -0.513405 0)
(1.78388 -0.358786 0)
(1.87245 -0.199777 0)
(1.90027 -0.0400642 0)
(1.87553 0.115548 0)
(1.79812 0.26266 0)
(1.67183 0.39789 0)
(1.5017 0.518146 0)
(1.29338 0.620674 0)
(1.05318 0.703381 0)
(0.78787 0.765126 0)
(0.504471 0.804979 0)
(0.207249 0.817943 0)
(-0.0892998 0.798175 0)
(-0.365867 0.744433 0)
(-0.619014 0.671505 0)
(-0.841242 0.578906 0)
(-1.02531 0.469056 0)
(-1.16657 0.346128 0)
(-1.26003 0.214932 0)
(-1.30693 0.0799925 0)
(-1.29998 -0.0516858 0)
(-1.2543 -0.176592 0)
(-1.14653 -0.290607 0)
(-1.05996 -0.404212 0)
(-0.751415 -0.526275 0)
(7.88535 2.92586 0)
(6.77957 3.57711 0)
(5.46386 4.1358 0)
(3.96764 4.58887 0)
(2.32189 4.91813 0)
(0.558596 5.0701 0)
(-1.23571 4.96154 0)
(-2.95848 4.68865 0)
(-4.54754 4.26162 0)
(-5.93924 3.68812 0)
(-7.07803 2.99086 0)
(-7.92231 2.20199 0)
(-8.45237 1.35947 0)
(-8.64265 0.500282 0)
(-8.53701 -0.341105 0)
(-8.16184 -1.13801 0)
(-7.53975 -1.86214 0)
(-6.70663 -2.49042 0)
(-5.70159 -3.00867 0)
(-4.56395 -3.41226 0)
(-3.33167 -3.70494 0)
(-2.03765 -3.88965 0)
(-0.704407 -3.94115 0)
(0.598442 -3.80836 0)
(1.81561 -3.57479 0)
(2.92334 -3.2524 0)
(3.90034 -2.85596 0)
(4.7282 -2.40092 0)
(5.39207 -1.89935 0)
(5.88257 -1.36488 0)
(6.19815 -0.812462 0)
(6.32627 -0.251716 0)
(6.27749 0.304853 0)
(6.05959 0.843893 0)
(5.67422 1.35403 0)
(5.13216 1.82328 0)
(4.44693 2.23963 0)
(3.63492 2.5927 0)
(2.71552 2.8758 0)
(1.70927 3.08352 0)
(0.636603 3.19632 0)
(-0.459419 3.16455 0)
(-1.51419 3.00295 0)
(-2.49481 2.755 0)
(-3.36563 2.42076 0)
(-4.09492 2.01044 0)
(-4.65865 1.54024 0)
(-5.04319 1.0309 0)
(-5.24119 0.503064 0)
(-5.2518 -0.0230535 0)
(-5.10295 -0.527399 0)
(-4.799 -0.99258 0)
(-4.35739 -1.4048 0)
(-3.79878 -1.7555 0)
(-3.1448 -2.04015 0)
(-2.41752 -2.25833 0)
(-1.63732 -2.41152 0)
(-0.821927 -2.48861 0)
(0.000581425 -2.45624 0)
(0.786942 -2.33917 0)
(1.51537 -2.1608 0)
(2.16888 -1.92853 0)
(2.73313 -1.6516 0)
(3.19544 -1.33864 0)
(3.54705 -0.998825 0)
(3.78456 -0.643383 0)
(3.90402 -0.281253 0)
(3.90437 0.0784237 0)
(3.79867 0.425777 0)
(3.58675 0.753499 0)
(3.27627 1.0547 0)
(2.8768 1.32191 0)
(2.39924 1.54856 0)
(1.85565 1.73027 0)
(1.25869 1.86532 0)
(0.620745 1.94942 0)
(-0.0386338 1.96281 0)
(-0.679296 1.88066 0)
(-1.27823 1.7425 0)
(-1.82007 1.55339 0)
(-2.28475 1.31768 0)
(-2.65695 1.04338 0)
(-2.92687 0.741701 0)
(-3.09144 0.42563 0)
(-3.14208 0.105852 0)
(-3.09481 -0.204558 0)
(-2.95275 -0.49421 0)
(-2.72372 -0.755475 0)
(-2.4187 -0.983363 0)
(-2.04967 -1.17409 0)
(-1.62946 -1.32593 0)
(-1.17125 -1.43938 0)
(-0.68678 -1.50984 0)
(-0.185387 -1.51985 0)
(0.304945 -1.46865 0)
(0.765478 -1.37768 0)
(1.18517 -1.25015 0)
(1.55431 -1.09122 0)
(1.86348 -0.906945 0)
(2.10578 -0.70304 0)
(2.27767 -0.486253 0)
(2.37825 -0.263316 0)
(2.40225 -0.0404357 0)
(2.36149 0.175335 0)
(2.25519 0.378758 0)
(2.08831 0.565844 0)
(1.86704 0.732155 0)
(1.59833 0.873651 0)
(1.28963 0.987939 0)
(0.948281 1.07458 0)
(0.581097 1.13266 0)
(0.197598 1.15293 0)
(-0.179502 1.11858 0)
(-0.533857 1.04349 0)
(-0.858999 0.939037 0)
(-1.14285 0.807142 0)
(-1.37539 0.651328 0)
(-1.55134 0.47702 0)
(-1.66377 0.291457 0)
(-1.71793 0.101012 0)
(-1.70181 -0.0860752 0)
(-1.63955 -0.26104 0)
(-1.4868 -0.421191 0)
(-1.38529 -0.574585 0)
(-0.993182 -0.763531 0)
(11.0728 4.09421 0)
(9.61022 5.00768 0)
(7.86827 5.80481 0)
(5.87939 6.4659 0)
(3.68058 6.96346 0)
(1.31361 7.22058 0)
(-1.1638 7.10103 0)
(-3.62222 6.70727 0)
(-5.94788 6.08052 0)
(-8.04053 5.22318 0)
(-9.81577 4.17515 0)
(-11.1997 2.99132 0)
(-12.1378 1.73192 0)
(-12.5756 0.469525 0)
(-12.4816 -0.716142 0)
(-11.9581 -1.79672 0)
(-11.0339 -2.77031 0)
(-9.77291 -3.61035 0)
(-8.25069 -4.29336 0)
(-6.54314 -4.8218 0)
(-4.71931 -5.20888 0)
(-2.83205 -5.44966 0)
(-0.912102 -5.49338 0)
(0.973234 -5.26214 0)
(2.73045 -4.90602 0)
(4.29672 -4.46257 0)
(5.6375 -3.90623 0)
(6.74835 -3.26233 0)
(7.62567 -2.55967 0)
(8.26141 -1.81822 0)
(8.65684 -1.05522 0)
(8.79224 -0.286761 0)
(8.7048 0.470564 0)
(8.3965 1.20438 0)
(7.87049 1.89946 0)
(7.13842 2.54071 0)
(6.21582 3.11389 0)
(5.12249 3.6062 0)
(3.88169 4.01043 0)
(2.51647 4.31726 0)
(1.05042 4.48745 0)
(-0.478267 4.43894 0)
(-1.98913 4.21168 0)
(-3.41877 3.85491 0)
(-4.7045 3.36387 0)
(-5.79643 2.75986 0)
(-6.65386 2.07319 0)
(-7.2461 1.33628 0)
(-7.5481 0.586386 0)
(-7.5439 -0.134153 0)
(-7.29547 -0.809366 0)
(-6.81502 -1.43659 0)
(-6.13493 -1.9948 0)
(-5.29322 -2.46686 0)
(-4.32704 -2.84821 0)
(-3.27287 -3.14151 0)
(-2.1616 -3.34729 0)
(-1.01467 -3.444 0)
(0.142314 -3.38518 0)
(1.25074 -3.2028 0)
(2.26675 -2.96111 0)
(3.15613 -2.64075 0)
(3.90881 -2.24793 0)
(4.51791 -1.80568 0)
(4.97439 -1.33121 0)
(5.27376 -0.83914 0)
(5.40623 -0.342828 0)
(5.38522 0.145225 0)
(5.22492 0.616449 0)
(4.92588 1.0605 0)
(4.49711 1.46758 0)
(3.94995 1.8296 0)
(3.29787 2.14025 0)
(2.55587 2.39526 0)
(1.73865 2.59106 0)
(0.859546 2.71234 0)
(-0.0573613 2.71653 0)
(-0.96472 2.60079 0)
(-1.82689 2.41025 0)
(-2.60773 2.14001 0)
(-3.27747 1.80067 0)
(-3.81288 1.409 0)
(-4.19581 0.982109 0)
(-4.41622 0.539029 0)
(-4.45666 0.102304 0)
(-4.35759 -0.314836 0)
(-4.12291 -0.708781 0)
(-3.76857 -1.06628 0)
(-3.31365 -1.37633 0)
(-2.77664 -1.63421 0)
(-2.17704 -1.83936 0)
(-1.53334 -1.99242 0)
(-0.859777 -2.08483 0)
(-0.166984 -2.09508 0)