/*--------------------------------*- C++ -*----------------------------------*\
| =========                 |                                                 |
| \\      /  F ield         | OpenFOAM: The Open Source CFD Toolbox           |
|  \\    /   O peration     | Version:  2206                                  |
|   \\  /    A nd           | Website:  www.openfoam.com                      |
|    \\/     M anipulation  |                                                 |
\*---------------------------------------------------------------------------*/
FoamFile
{
    version     2.0;
    format      ascii;
    arch        "LSB;label=32;scalar=64";
    class       surfaceScalarField;
    location    "19.5999";
    object      phi_0;
}
// * * * * * * * * * * * * * * * * * * * * * * * * * * * * * * * * * * * * * //

dimensions      [0 3 -1 0 0 0 0];

oriented        oriented;

internalField   nonuniform List<scalar> 
3504
(
4.43327e-06
-2.29287e-09
1.82314e-09
4.43468e-06
-6.8949e-09
5.48108e-09
4.43697e-06
-1.12884e-08
8.99709e-09
4.44003e-06
-1.53188e-08
1.22645e-08
4.44372e-06
-1.89155e-08
1.52239e-08
4.44794e-06
-2.20851e-08
1.78649e-08
4.4526e-06
-2.48663e-08
2.02027e-08
4.45764e-06
-2.72937e-08
2.2259e-08
4.46298e-06
-2.94003e-08
2.40566e-08
4.46858e-06
-3.12226e-08
2.56212e-08
4.4744e-06
-3.2799e-08
2.69806e-08
4.48041e-06
-3.41653e-08
2.81622e-08
4.48657e-06
-3.5353e-08
2.91907e-08
4.49287e-06
-3.63888e-08
3.00876e-08
4.49929e-06
-3.72946e-08
3.08711e-08
4.50582e-06
-3.8088e-08
3.15564e-08
4.51245e-06
-3.8783e-08
3.21558e-08
4.51916e-06
-3.93914e-08
3.26794e-08
4.52595e-06
-3.99228e-08
3.31357e-08
4.5328e-06
-4.03849e-08
3.35315e-08
4.53972e-06
-4.07834e-08
3.38719e-08
4.54668e-06
-4.11228e-08
3.41611e-08
4.55368e-06
-4.14063e-08
3.4402e-08
4.56072e-06
-4.16363e-08
3.45968e-08
4.56779e-06
-4.18142e-08
3.4747e-08
4.57488e-06
-4.19405e-08
3.48534e-08
4.58197e-06
-4.20151e-08
3.49161e-08
4.58908e-06
-4.2038e-08
3.49351e-08
4.59618e-06
-4.20087e-08
3.49104e-08
4.60326e-06
-4.19267e-08
3.48413e-08
4.61033e-06
-4.17909e-08
3.47271e-08
4.61736e-06
-4.15994e-08
3.45669e-08
4.62435e-06
-4.13508e-08
3.43598e-08
4.63129e-06
-4.10444e-08
3.41053e-08
4.63816e-06
-4.06805e-08
3.38036e-08
4.64497e-06
-4.02596e-08
3.34553e-08
4.65169e-06
-3.97829e-08
3.30611e-08
4.65832e-06
-3.92519e-08
3.26225e-08
4.66485e-06
-3.86686e-08
3.21408e-08
4.67127e-06
-3.80351e-08
3.16181e-08
4.67756e-06
-3.73542e-08
3.10564e-08
4.68373e-06
-3.66291e-08
3.04583e-08
4.68977e-06
-3.58633e-08
2.98267e-08
4.69567e-06
-3.50606e-08
2.91642e-08
4.70142e-06
-3.42241e-08
2.84739e-08
4.70702e-06
-3.33573e-08
2.77583e-08
4.71246e-06
-3.24635e-08
2.70205e-08
4.71774e-06
-3.15466e-08
2.62631e-08
4.72286e-06
-3.06103e-08
2.54894e-08
4.72782e-06
-2.96586e-08
2.4702e-08
4.73261e-06
-2.86949e-08
2.39031e-08
4.73724e-06
-2.77212e-08
2.30943e-08
4.7417e-06
-2.67373e-08
2.22757e-08
4.746e-06
-2.57423e-08
2.14468e-08
4.75012e-06
-2.47351e-08
2.0606e-08
4.75409e-06
-2.37133e-08
1.97516e-08
4.75788e-06
-2.26739e-08
1.88802e-08
4.7615e-06
-2.16117e-08
1.79879e-08
4.76496e-06
-2.05207e-08
1.7069e-08
4.76823e-06
-1.9393e-08
1.61167e-08
4.77133e-06
-1.82187e-08
1.51225e-08
4.77424e-06
-1.69861e-08
1.40758e-08
4.77695e-06
-1.56804e-08
1.29641e-08
4.77947e-06
-1.42858e-08
1.1773e-08
4.78176e-06
-1.27808e-08
1.04842e-08
4.78383e-06
-1.11451e-08
9.0791e-09
4.78565e-06
-9.34963e-09
7.53317e-09
4.78719e-06
-7.3681e-09
5.824e-09
4.78843e-06
-5.15952e-09
3.91849e-09
4.78934e-06
-2.68246e-09
1.77602e-09
4.78987e-06
1.10661e-10
-6.42838e-10
4.78998e-06
3.28337e-09
-3.39629e-09
4.78962e-06
6.89739e-09
-6.53851e-09
4.78873e-06
1.1033e-08
-1.01419e-08
4.78724e-06
1.57825e-08
-1.42894e-08
4.78506e-06
2.12561e-08
-1.90799e-08
4.78211e-06
2.75864e-08
-2.46331e-08
4.77827e-06
3.49323e-08
-3.10923e-08
4.77342e-06
4.34835e-08
-3.86304e-08
4.76741e-06
5.34675e-08
-4.7456e-08
4.76007e-06
6.51595e-08
-5.7823e-08
4.75122e-06
7.88938e-08
-7.00414e-08
4.74063e-06
9.50794e-08
-8.44923e-08
4.72806e-06
1.14217e-07
-1.01646e-07
4.71322e-06
1.36923e-07
-1.22086e-07
4.6958e-06
1.63958e-07
-1.4654e-07
4.67546e-06
1.96269e-07
-1.75922e-07
4.6518e-06
2.35044e-07
-2.11387e-07
4.62443e-06
2.81773e-07
-2.54407e-07
4.59295e-06
3.38351e-07
-3.06867e-07
4.55696e-06
4.07202e-07
-3.71208e-07
4.51612e-06
4.9145e-07
-4.50618e-07
4.47027e-06
5.95145e-07
-5.49293e-07
4.41952e-06
7.23641e-07
-6.72889e-07
4.36445e-06
8.84054e-07
-8.2898e-07
4.30673e-06
1.08646e-06
-1.02874e-06
4.24893e-06
1.34441e-06
-1.28661e-06
4.19994e-06
1.68069e-06
-1.6317e-06
4.17352e-06
2.11714e-06
-2.09073e-06
4.27481e-06
2.71354e-06
-2.81483e-06
4.72995e-06
3.33781e-06
-3.79295e-06
4.5422e-06
6.72132e-06
-6.53357e-06
4.43335e-06
-2.84184e-09
4.435e-06
-8.54827e-09
4.43765e-06
-1.39361e-08
4.44112e-06
-1.87853e-08
4.44523e-06
-2.3029e-08
4.44985e-06
-2.67087e-08
4.45489e-06
-2.99052e-08
4.46027e-06
-3.26692e-08
4.46591e-06
-3.50463e-08
4.47178e-06
-3.70881e-08
4.47783e-06
-3.88457e-08
4.48403e-06
-4.03646e-08
4.49036e-06
-4.16837e-08
4.4968e-06
-4.28356e-08
4.50335e-06
-4.38454e-08
4.51e-06
-4.47319e-08
4.51673e-06
-4.55105e-08
4.52353e-06
-4.61941e-08
4.5304e-06
-4.67931e-08
4.53733e-06
-4.73157e-08
4.54431e-06
-4.77679e-08
4.55135e-06
-4.81544e-08
4.55842e-06
-4.84785e-08
4.56552e-06
-4.87425e-08
4.57266e-06
-4.89477e-08
4.57981e-06
-4.9094e-08
4.58698e-06
-4.91809e-08
4.59415e-06
-4.92081e-08
4.60131e-06
-4.91754e-08
4.60847e-06
-4.90823e-08
4.6156e-06
-4.89264e-08
4.62271e-06
-4.87048e-08
4.62977e-06
-4.8415e-08
4.63679e-06
-4.80565e-08
4.64374e-06
-4.76296e-08
4.65061e-06
-4.7135e-08
4.6574e-06
-4.65741e-08
4.6641e-06
-4.59488e-08
4.67069e-06
-4.52611e-08
4.67717e-06
-4.4514e-08
4.68353e-06
-4.37103e-08
4.68975e-06
-4.28544e-08
4.69584e-06
-4.19508e-08
4.70178e-06
-4.10042e-08
4.70758e-06
-4.00178e-08
4.71321e-06
-3.89957e-08
4.71869e-06
-3.79419e-08
4.72401e-06
-3.6861e-08
4.72916e-06
-3.57578e-08
4.73413e-06
-3.4638e-08
4.73895e-06
-3.3508e-08
4.7436e-06
-3.23693e-08
4.74808e-06
-3.12209e-08
4.7524e-06
-3.00612e-08
4.75655e-06
-2.88896e-08
4.76054e-06
-2.77038e-08
4.76437e-06
-2.65007e-08
4.76803e-06
-2.52749e-08
4.77153e-06
-2.40197e-08
4.77487e-06
-2.27264e-08
4.77803e-06
-2.13844e-08
4.78103e-06
-1.99804e-08
4.78384e-06
-1.84988e-08
4.78648e-06
-1.69207e-08
4.78892e-06
-1.52249e-08
4.79116e-06
-1.33855e-08
4.79319e-06
-1.13743e-08
4.79498e-06
-9.15553e-09
4.7965e-06
-6.68863e-09
4.79775e-06
-3.92768e-09
4.79868e-06
-8.19075e-10
4.79926e-06
2.70147e-09
4.79945e-06
6.7056e-09
4.79921e-06
1.12773e-08
4.79848e-06
1.6514e-08
4.7972e-06
2.25325e-08
4.79531e-06
2.94745e-08
4.79274e-06
3.75088e-08
4.78939e-06
4.68343e-08
4.78516e-06
5.76883e-08
4.77997e-06
7.03546e-08
4.77369e-06
8.51758e-08
4.7662e-06
1.0257e-07
4.75737e-06
1.23044e-07
4.74708e-06
1.47212e-07
4.73521e-06
1.75827e-07
4.72167e-06
2.09815e-07
4.70639e-06
2.50318e-07
4.68942e-06
2.98743e-07
4.67091e-06
3.56857e-07
4.65123e-06
4.26885e-07
4.63106e-06
5.1162e-07
4.61164e-06
6.14571e-07
4.59515e-06
7.40132e-07
4.5853e-06
8.939e-07
4.58905e-06
1.08271e-06
4.61819e-06
1.31527e-06
4.69912e-06
1.59977e-06
4.87384e-06
1.94242e-06
5.23436e-06
2.35301e-06
5.86044e-06
2.71174e-06
3.56171e-06
6.84092e-06
4.43346e-06
-3.50572e-09
4.43549e-06
-1.05708e-08
4.43866e-06
-1.71065e-08
4.44269e-06
-2.282e-08
4.44735e-06
-2.76854e-08
4.45248e-06
-3.18379e-08
4.45798e-06
-3.5408e-08
4.46377e-06
-3.84595e-08
4.46978e-06
-4.10554e-08
4.47596e-06
-4.32688e-08
4.48228e-06
-4.51635e-08
4.48871e-06
-4.67954e-08
4.49524e-06
-4.8213e-08
4.50186e-06
-4.9455e-08
4.50856e-06
-5.05476e-08
4.51534e-06
-5.15098e-08
4.52218e-06
-5.23576e-08
4.5291e-06
-5.31051e-08
4.53607e-06
-5.3763e-08
4.54309e-06
-5.43393e-08
4.55016e-06
-5.48401e-08
4.55728e-06
-5.52698e-08
4.56443e-06
-5.56317e-08
4.57162e-06
-5.59286e-08
4.57883e-06
-5.61608e-08
4.58606e-06
-5.6327e-08
4.59331e-06
-5.64261e-08
4.60056e-06
-5.64571e-08
4.6078e-06
-5.64217e-08
4.61504e-06
-5.63202e-08
4.62226e-06
-5.61482e-08
4.62946e-06
-5.5899e-08
4.63661e-06
-5.55687e-08
4.64371e-06
-5.51581e-08
4.65075e-06
-5.46671e-08
4.65771e-06
-5.40975e-08
4.66459e-06
-5.34502e-08
4.67137e-06
-5.27284e-08
4.67804e-06
-5.19336e-08
4.6846e-06
-5.10698e-08
4.69102e-06
-5.01388e-08
4.69732e-06
-4.91471e-08
4.70347e-06
-4.81009e-08
4.70947e-06
-4.70072e-08
4.71532e-06
-4.5867e-08
4.72101e-06
-4.46855e-08
4.72653e-06
-4.34668e-08
4.73189e-06
-4.22174e-08
4.73707e-06
-4.09411e-08
4.74208e-06
-3.96473e-08
4.74692e-06
-3.83475e-08
4.7516e-06
-3.70434e-08
4.75611e-06
-3.57305e-08
4.76045e-06
-3.44077e-08
4.76464e-06
-3.3074e-08
4.76866e-06
-3.17278e-08
4.77253e-06
-3.03666e-08
4.77623e-06
-2.89833e-08
4.77979e-06
-2.75721e-08
4.78318e-06
-2.61243e-08
4.78643e-06
-2.46276e-08
4.78952e-06
-2.30683e-08
4.79245e-06
-2.14292e-08
4.79522e-06
-1.96909e-08
4.79782e-06
-1.78294e-08
4.80025e-06
-1.58187e-08
4.80251e-06
-1.36251e-08
4.80456e-06
-1.12109e-08
4.80641e-06
-8.53355e-09
4.80802e-06
-5.54353e-09
4.80939e-06
-2.18382e-09
4.81048e-06
1.61088e-09
4.81126e-06
5.91853e-09
4.81172e-06
1.08234e-08
4.81181e-06
1.64242e-08
4.8115e-06
2.28414e-08
4.81075e-06
3.02221e-08
4.80952e-06
3.87386e-08
4.80776e-06
4.8591e-08
4.80544e-06
6.00173e-08
4.80249e-06
7.32975e-08
4.7989e-06
8.87689e-08
4.79463e-06
1.06843e-07
4.78966e-06
1.2801e-07
4.78402e-06
1.52848e-07
4.77779e-06
1.82064e-07
4.77107e-06
2.16529e-07
4.76412e-06
2.57269e-07
4.75735e-06
3.05517e-07
4.7514e-06
3.62808e-07
4.74723e-06
4.31052e-07
4.7463e-06
5.12554e-07
4.75083e-06
6.10042e-07
4.76429e-06
7.26664e-07
4.7921e-06
8.66091e-07
4.84277e-06
1.03205e-06
4.92959e-06
1.22844e-06
5.07289e-06
1.45647e-06
5.30135e-06
1.71395e-06
5.64704e-06
2.00732e-06
6.11139e-06
2.24739e-06
2.68296e-06
6.99015e-06
4.43364e-06
-4.35065e-09
4.43626e-06
-1.31871e-08
4.44021e-06
-2.10597e-08
4.44503e-06
-2.76334e-08
4.45039e-06
-3.3045e-08
4.45615e-06
-3.75956e-08
4.4622e-06
-4.14598e-08
4.46846e-06
-4.4723e-08
4.47487e-06
-4.74671e-08
4.48139e-06
-4.97878e-08
4.48799e-06
-5.17634e-08
4.49466e-06
-5.34631e-08
4.50139e-06
-5.49443e-08
4.50819e-06
-5.62516e-08
4.51505e-06
-5.74084e-08
4.52197e-06
-5.84299e-08
4.52894e-06
-5.93337e-08
4.53597e-06
-6.01351e-08
4.54305e-06
-6.08444e-08
4.55018e-06
-6.1469e-08
4.55736e-06
-6.20145e-08
4.56457e-06
-6.24848e-08
4.57183e-06
-6.28828e-08
4.57911e-06
-6.32139e-08
4.58643e-06
-6.34753e-08
4.59376e-06
-6.36633e-08
4.60111e-06
-6.37763e-08
4.60847e-06
-6.38114e-08
4.61582e-06
-6.37729e-08
4.62316e-06
-6.36659e-08
4.6305e-06
-6.34829e-08
4.63781e-06
-6.3209e-08
4.64508e-06
-6.284e-08
4.6523e-06
-6.23785e-08
4.65945e-06
-6.18224e-08
4.66653e-06
-6.11768e-08
4.67352e-06
-6.044e-08
4.68041e-06
-5.96196e-08
4.6872e-06
-5.8714e-08
4.69386e-06
-5.77317e-08
4.70039e-06
-5.66678e-08
4.70677e-06
-5.55356e-08
4.71301e-06
-5.434e-08
4.7191e-06
-5.30965e-08
4.72503e-06
-5.17948e-08
4.7308e-06
-5.04506e-08
4.73639e-06
-4.90583e-08
4.7418e-06
-4.76343e-08
4.74704e-06
-4.61747e-08
4.75209e-06
-4.47005e-08
4.75697e-06
-4.32295e-08
4.76169e-06
-4.17576e-08
4.76623e-06
-4.02778e-08
4.77062e-06
-3.87899e-08
4.77484e-06
-3.72943e-08
4.7789e-06
-3.57879e-08
4.78281e-06
-3.42747e-08
4.78656e-06
-3.27382e-08
4.79017e-06
-3.11787e-08
4.79363e-06
-2.9586e-08
4.79695e-06
-2.79473e-08
4.80013e-06
-2.62479e-08
4.80317e-06
-2.44702e-08
4.80607e-06
-2.25934e-08
4.80884e-06
-2.05932e-08
4.81146e-06
-1.84408e-08
4.81393e-06
-1.61002e-08
4.81625e-06
-1.35322e-08
4.81841e-06
-1.06928e-08
4.8204e-06
-7.53005e-09
4.8222e-06
-3.98513e-09
4.8238e-06
7.1847e-12
4.82519e-06
4.5351e-09
4.82634e-06
9.66962e-09
4.82726e-06
1.5503e-08
4.82794e-06
2.21639e-08
4.82836e-06
2.98036e-08
4.8285e-06
3.85926e-08
4.82837e-06
4.87258e-08
4.82796e-06
6.04324e-08
4.82729e-06
7.39633e-08
4.82641e-06
8.96511e-08
4.82536e-06
1.07895e-07
4.82422e-06
1.29142e-07
4.82316e-06
1.53909e-07
4.8224e-06
1.82829e-07
4.82224e-06
2.1669e-07
4.82316e-06
2.56344e-07
4.82589e-06
3.0279e-07
4.83143e-06
3.57265e-07
4.84117e-06
4.21311e-07
4.857e-06
4.96726e-07
4.88161e-06
5.85434e-07
4.91889e-06
6.89381e-07
4.97442e-06
8.10564e-07
5.05576e-06
9.50708e-07
5.17337e-06
1.11083e-06
5.3396e-06
1.29024e-06
5.5712e-06
1.48236e-06
5.88902e-06
1.6895e-06
6.28625e-06
1.85016e-06
2.02652e-06
6.94268e-06
4.43399e-06
-5.53958e-09
4.43757e-06
-1.67651e-08
4.44263e-06
-2.61267e-08
4.44847e-06
-3.34693e-08
4.45474e-06
-3.93175e-08
4.46132e-06
-4.41703e-08
4.46808e-06
-4.82199e-08
4.47494e-06
-5.15849e-08
4.48186e-06
-5.43843e-08
4.4888e-06
-5.67292e-08
4.49574e-06
-5.87061e-08
4.50268e-06
-6.04045e-08
4.50964e-06
-6.19021e-08
4.51664e-06
-6.32493e-08
4.52368e-06
-6.44503e-08
4.53076e-06
-6.55148e-08
4.53789e-06
-6.64617e-08
4.54506e-06
-6.73074e-08
4.55228e-06
-6.80602e-08
4.55954e-06
-6.87279e-08
4.56684e-06
-6.93148e-08
4.57418e-06
-6.98239e-08
4.58155e-06
-7.02541e-08
4.58896e-06
-7.06224e-08
4.5964e-06
-7.09155e-08
4.60386e-06
-7.11288e-08
4.61135e-06
-7.1258e-08
4.61883e-06
-7.12983e-08
4.62633e-06
-7.12655e-08
4.63382e-06
-7.11642e-08
4.64131e-06
-7.09742e-08
4.64878e-06
-7.06761e-08
4.65621e-06
-7.02682e-08
4.66359e-06
-6.97546e-08
4.67089e-06
-6.91305e-08
4.67812e-06
-6.8406e-08
4.68526e-06
-6.75751e-08
4.69229e-06
-6.66524e-08
4.69921e-06
-6.56283e-08
4.70599e-06
-6.45185e-08
4.71263e-06
-6.33049e-08
4.71912e-06
-6.20224e-08
4.72544e-06
-6.06588e-08
4.73159e-06
-5.92464e-08
4.73755e-06
-5.77551e-08
4.74333e-06
-5.62341e-08
4.74891e-06
-5.46441e-08
4.7543e-06
-5.30229e-08
4.75947e-06
-5.1337e-08
4.76444e-06
-4.96711e-08
4.76924e-06
-4.80344e-08
4.77388e-06
-4.63931e-08
4.77834e-06
-4.47382e-08
4.78262e-06
-4.30753e-08
4.78674e-06
-4.14079e-08
4.79068e-06
-3.97356e-08
4.79447e-06
-3.80615e-08
4.7981e-06
-3.63704e-08
4.80159e-06
-3.46649e-08
4.80494e-06
-3.29338e-08
4.80815e-06
-3.11637e-08
4.81124e-06
-2.93386e-08
4.81421e-06
-2.7441e-08
4.81707e-06
-2.54496e-08
4.81982e-06
-2.33426e-08
4.82246e-06
-2.1085e-08
4.825e-06
-1.86377e-08
4.82743e-06
-1.59647e-08
4.82976e-06
-1.30204e-08
4.83198e-06
-9.7518e-09
4.8341e-06
-6.10158e-09
4.83612e-06
-2.00987e-09
4.83806e-06
2.58774e-09
4.83994e-06
7.79744e-09
4.84171e-06
1.37343e-08
4.84337e-06
2.05024e-08
4.84494e-06
2.82343e-08
4.84644e-06
3.7085e-08
4.84793e-06
4.72429e-08
4.84943e-06
5.8931e-08
4.85098e-06
7.24153e-08
4.85266e-06
8.79632e-08
4.85469e-06
1.0587e-07
4.85729e-06
1.26545e-07
4.86082e-06
1.50373e-07
4.86552e-06
1.78128e-07
4.87173e-06
2.10486e-07
4.8802e-06
2.4787e-07
4.89186e-06
2.91132e-07
4.90793e-06
3.4119e-07
4.92997e-06
3.9927e-07
4.96001e-06
4.66687e-07
5.00084e-06
5.44607e-07
5.05626e-06
6.33964e-07
5.1313e-06
7.35527e-07
5.23218e-06
8.4982e-07
5.36657e-06
9.76441e-07
5.5434e-06
1.11342e-06
5.77265e-06
1.2531e-06
6.07081e-06
1.39135e-06
6.42279e-06
1.49817e-06
1.57631e-06
6.873e-06
4.43481e-06
-7.55314e-09
4.44013e-06
-2.2085e-08
4.44679e-06
-3.27801e-08
4.45385e-06
-4.05319e-08
4.46113e-06
-4.66023e-08
4.46859e-06
-5.16266e-08
4.47608e-06
-5.57078e-08
4.48354e-06
-5.90512e-08
4.49097e-06
-6.18102e-08
4.49836e-06
-6.412e-08
4.50568e-06
-6.60202e-08
4.51292e-06
-6.76533e-08
4.52016e-06
-6.91395e-08
4.52742e-06
-7.05093e-08
4.5347e-06
-7.17326e-08
4.54202e-06
-7.28269e-08
4.54936e-06
-7.38092e-08
4.55675e-06
-7.46954e-08
4.56418e-06
-7.54866e-08
4.57165e-06
-7.61951e-08
4.57915e-06
-7.68196e-08
4.58669e-06
-7.73649e-08
4.59426e-06
-7.78222e-08
4.60185e-06
-7.82086e-08
4.60943e-06
-7.85038e-08
4.61703e-06
-7.87226e-08
4.62459e-06
-7.88156e-08
4.63209e-06
-7.88004e-08
4.63959e-06
-7.87716e-08
4.64712e-06
-7.86883e-08
4.65461e-06
-7.84701e-08
4.66205e-06
-7.81156e-08
4.66941e-06
-7.76287e-08
4.67668e-06
-7.70218e-08
4.68384e-06
-7.629e-08
4.69088e-06
-7.54432e-08
4.69778e-06
-7.44763e-08
4.70454e-06
-7.34108e-08
4.71115e-06
-7.22395e-08
4.71759e-06
-7.09615e-08
4.72384e-06
-6.95504e-08
4.72988e-06
-6.80628e-08
4.73573e-06
-6.65103e-08
4.7414e-06
-6.49143e-08
4.74686e-06
-6.32215e-08
4.75213e-06
-6.14991e-08
4.7572e-06
-5.97138e-08
4.76211e-06
-5.79332e-08
4.76692e-06
-5.61496e-08
4.77155e-06
-5.4305e-08
4.77593e-06
-5.24078e-08
4.78004e-06
-5.05046e-08
4.78391e-06
-4.86122e-08
4.78757e-06
-4.67313e-08
4.79102e-06
-4.48622e-08
4.79429e-06
-4.30041e-08
4.79739e-06
-4.11552e-08
4.80032e-06
-3.93082e-08
4.80312e-06
-3.74577e-08
4.80578e-06
-3.55942e-08
4.80832e-06
-3.37033e-08
4.81075e-06
-3.17686e-08
4.81308e-06
-2.97719e-08
4.81532e-06
-2.76915e-08
4.81748e-06
-2.54995e-08
4.81956e-06
-2.31699e-08
4.8216e-06
-2.06726e-08
4.8236e-06
-1.79653e-08
4.82557e-06
-1.49917e-08
4.82752e-06
-1.17007e-08
4.82945e-06
-8.03906e-09
4.8314e-06
-3.95325e-09
4.83336e-06
6.24702e-10
4.83533e-06
5.8284e-09
4.83737e-06
1.16979e-08
4.83951e-06
1.83584e-08
4.8418e-06
2.59468e-08
4.84427e-06
3.46112e-08
4.847e-06
4.45153e-08
4.85008e-06
5.58453e-08
4.85367e-06
6.8828e-08
4.85791e-06
8.37219e-08
4.86296e-06
1.0082e-07
4.86907e-06
1.20442e-07
4.87639e-06
1.43051e-07
4.88563e-06
1.68882e-07
4.89774e-06
1.98385e-07
4.91326e-06
2.32347e-07
4.93342e-06
2.70973e-07
4.95972e-06
3.14886e-07
4.99363e-06
3.65362e-07
5.03679e-06
4.2353e-07
5.09183e-06
4.89567e-07
5.16242e-06
5.63376e-07
5.25286e-06
6.4508e-07
5.36803e-06
7.34651e-07
5.5132e-06
8.31267e-07
5.69473e-06
9.31887e-07
5.91772e-06
1.03011e-06
6.18902e-06
1.12005e-06
6.49875e-06
1.18844e-06
1.22713e-06
6.84794e-06
4.43657e-06
-1.13197e-08
4.44509e-06
-3.06049e-08
4.45425e-06
-4.19447e-08
4.46325e-06
-4.95287e-08
4.47206e-06
-5.54116e-08
4.48072e-06
-6.02906e-08
4.48913e-06
-6.41136e-08
4.49735e-06
-6.72712e-08
4.50538e-06
-6.98383e-08
4.51324e-06
-7.19872e-08
4.52086e-06
-7.36413e-08
4.52829e-06
-7.50841e-08
4.53572e-06
-7.65665e-08
4.54311e-06
-7.79012e-08
4.55044e-06
-7.90598e-08
4.55769e-06
-8.00798e-08
4.56488e-06
-8.09961e-08
4.572e-06
-8.18183e-08
4.57907e-06
-8.25578e-08
4.5861e-06
-8.32245e-08
4.59308e-06
-8.38003e-08
4.6e-06
-8.42843e-08
4.60686e-06
-8.46762e-08
4.61369e-06
-8.50425e-08
4.62049e-06
-8.53e-08
4.62725e-06
-8.54807e-08
4.63407e-06
-8.56421e-08
4.64101e-06
-8.5739e-08
4.64786e-06
-8.56256e-08
4.65454e-06
-8.53633e-08
4.66101e-06
-8.4938e-08
4.66727e-06
-8.43777e-08
4.67333e-06
-8.36853e-08
4.67916e-06
-8.28603e-08
4.68478e-06
-8.19044e-08
4.69016e-06
-8.08211e-08
4.69529e-06
-7.9614e-08
4.70016e-06
-7.8277e-08
4.70474e-06
-7.6819e-08
4.70904e-06
-7.52598e-08
4.71309e-06
-7.36003e-08
4.71688e-06
-7.18557e-08
4.72043e-06
-7.00542e-08
4.7237e-06
-6.81928e-08
4.72674e-06
-6.62526e-08
4.7295e-06
-6.42637e-08
4.73202e-06
-6.22323e-08
4.73426e-06
-6.01788e-08
4.73623e-06
-5.81113e-08
4.73795e-06
-5.6026e-08
4.73946e-06
-5.39214e-08
4.74077e-06
-5.18115e-08
4.74187e-06
-4.97147e-08
4.74278e-06
-4.76391e-08
4.7435e-06
-4.55882e-08
4.74406e-06
-4.35619e-08
4.74447e-06
-4.15596e-08
4.74473e-06
-3.95756e-08
4.74488e-06
-3.76058e-08
4.74493e-06
-3.56427e-08
4.7449e-06
-3.36698e-08
4.7448e-06
-3.16693e-08
4.74465e-06
-2.96267e-08
4.74448e-06
-2.75203e-08
4.74431e-06
-2.53275e-08
4.74416e-06
-2.30181e-08
4.74405e-06
-2.05653e-08
4.74403e-06
-1.79465e-08
4.74412e-06
-1.50777e-08
4.74433e-06
-1.19155e-08
4.7447e-06
-8.40622e-09
4.74527e-06
-4.52982e-09
4.74617e-06
-2.71143e-10
4.7473e-06
4.6993e-09
4.74882e-06
1.01804e-08
4.75079e-06
1.63887e-08
4.75331e-06
2.34286e-08
4.75649e-06
3.14235e-08
4.76049e-06
4.05212e-08
4.76544e-06
5.08878e-08
4.77156e-06
6.27133e-08
4.77907e-06
7.62111e-08
4.78827e-06
9.16202e-08
4.79952e-06
1.09196e-07
4.81332e-06
1.29247e-07
4.83013e-06
1.52068e-07
4.85056e-06
1.77955e-07
4.87556e-06
2.07349e-07
4.90564e-06
2.40895e-07
4.94163e-06
2.78895e-07
4.9858e-06
3.21189e-07
5.04142e-06
3.67911e-07
5.11123e-06
4.19759e-07
5.19744e-06
4.77165e-07
5.30428e-06
5.3824e-07
5.43429e-06
6.04641e-07
5.58973e-06
6.75824e-07
5.77553e-06
7.46093e-07
5.9942e-06
8.11439e-07
6.24692e-06
8.67334e-07
6.52872e-06
9.06637e-07
9.22451e-07
6.8334e-06
4.4409e-06
-1.94196e-08
4.45342e-06
-4.31267e-08
4.46495e-06
-5.34711e-08
4.47611e-06
-6.06915e-08
4.48659e-06
-6.58913e-08
4.49643e-06
-7.01253e-08
4.50541e-06
-7.30998e-08
4.51374e-06
-7.56019e-08
4.52145e-06
-7.75475e-08
4.52866e-06
-7.91909e-08
4.53568e-06
-8.06702e-08
4.5425e-06
-8.1902e-08
4.54871e-06
-8.27791e-08
4.55437e-06
-8.35557e-08
4.55959e-06
-8.42787e-08
4.56443e-06
-8.49236e-08
4.56893e-06
-8.54895e-08
4.57307e-06
-8.59617e-08
4.57685e-06
-8.63405e-08
4.58025e-06
-8.66282e-08
4.58329e-06
-8.68379e-08
4.58599e-06
-8.69813e-08
4.58834e-06
-8.70312e-08
4.59035e-06
-8.70506e-08
4.59201e-06
-8.69553e-08
4.59332e-06
-8.67945e-08
4.59427e-06
-8.65858e-08
4.59484e-06
-8.63114e-08
4.5951e-06
-8.58832e-08
4.59502e-06
-8.5286e-08
4.59457e-06
-8.44866e-08
4.59373e-06
-8.35408e-08
4.59251e-06
-8.24604e-08
4.59089e-06
-8.12455e-08
4.58889e-06
-7.99003e-08
4.5865e-06
-7.84309e-08
4.58373e-06
-7.6844e-08
4.58059e-06
-7.51387e-08
4.57709e-06
-7.33231e-08
4.57324e-06
-7.14085e-08
4.56905e-06
-6.94088e-08
4.56453e-06
-6.73403e-08
4.5597e-06
-6.5218e-08
4.55456e-06
-6.30564e-08
4.54915e-06
-6.08447e-08
4.54347e-06
-5.85841e-08
4.53755e-06
-5.63064e-08
4.53139e-06
-5.4023e-08
4.52503e-06
-5.17477e-08
4.51847e-06
-4.94731e-08
4.51177e-06
-4.7213e-08
4.50493e-06
-4.49716e-08
4.49798e-06
-4.27671e-08
4.49095e-06
-4.0605e-08
4.48385e-06
-3.84938e-08
4.47672e-06
-3.64288e-08
4.46957e-06
-3.44144e-08
4.46244e-06
-3.24399e-08
4.45534e-06
-3.05104e-08
4.44831e-06
-2.86106e-08
4.44137e-06
-2.67332e-08
4.43456e-06
-2.48531e-08
4.4279e-06
-2.29698e-08
4.42143e-06
-2.10519e-08
4.4152e-06
-1.90953e-08
4.40924e-06
-1.70555e-08
4.4036e-06
-1.49275e-08
4.39831e-06
-1.26557e-08
4.39345e-06
-1.02229e-08
4.38912e-06
-7.58614e-09
4.38538e-06
-4.66576e-09
4.38231e-06
-1.45164e-09
4.3799e-06
2.13827e-09
4.37834e-06
6.258e-09
4.37784e-06
1.06773e-08
4.37854e-06
1.56915e-08
4.38063e-06
2.1337e-08
4.38434e-06
2.77136e-08
4.38993e-06
3.49334e-08
4.39769e-06
4.31234e-08
4.40798e-06
5.24266e-08
4.4212e-06
6.29922e-08
4.43783e-06
7.499e-08
4.45842e-06
8.86061e-08
4.48362e-06
1.04048e-07
4.51414e-06
1.21543e-07
4.55075e-06
1.4135e-07
4.59431e-06
1.63787e-07
4.64588e-06
1.89323e-07
4.70647e-06
2.18302e-07
4.77708e-06
2.50585e-07
4.85911e-06
2.85881e-07
4.95462e-06
3.24246e-07
5.06579e-06
3.65999e-07
5.19259e-06
4.11435e-07
5.3403e-06
4.56927e-07
5.51536e-06
5.00773e-07
5.7176e-06
5.43852e-07
5.94609e-06
5.8295e-07
6.19952e-06
6.139e-07
6.47389e-06
6.32263e-07
6.34103e-07
6.76224e-06
4.45657e-06
-4.31912e-08
4.47444e-06
-6.0996e-08
4.48639e-06
-6.54188e-08
4.49368e-06
-6.79818e-08
4.49803e-06
-7.02433e-08
4.50003e-06
-7.21226e-08
4.49995e-06
-7.30192e-08
4.49803e-06
-7.3684e-08
4.49449e-06
-7.40084e-08
4.48946e-06
-7.41559e-08
4.48297e-06
-7.41852e-08
4.47516e-06
-7.40955e-08
4.46625e-06
-7.38633e-08
4.45623e-06
-7.35381e-08
4.44512e-06
-7.31698e-08
4.43296e-06
-7.2761e-08
4.41978e-06
-7.23058e-08
4.40561e-06
-7.17996e-08
4.39051e-06
-7.12419e-08
4.37452e-06
-7.06329e-08
4.35766e-06
-6.99773e-08
4.33996e-06
-6.92792e-08
4.32146e-06
-6.85357e-08
4.30217e-06
-6.77584e-08
4.28214e-06
-6.69299e-08
4.26142e-06
-6.60736e-08
4.24006e-06
-6.52202e-08
4.21816e-06
-6.44157e-08
4.19577e-06
-6.34871e-08
4.17281e-06
-6.23324e-08
4.14937e-06
-6.10454e-08
4.1255e-06
-5.96661e-08
4.10124e-06
-5.82001e-08
4.07664e-06
-5.66523e-08
4.05177e-06
-5.50292e-08
4.02668e-06
-5.33362e-08
4.00141e-06
-5.15781e-08
3.97603e-06
-4.97586e-08
3.95059e-06
-4.78837e-08
3.92515e-06
-4.59633e-08
3.89975e-06
-4.40088e-08
3.87443e-06
-4.20284e-08
3.84925e-06
-4.00293e-08
3.82417e-06
-3.79851e-08
3.79927e-06
-3.59379e-08
3.77463e-06
-3.39437e-08
3.7503e-06
-3.1981e-08
3.72633e-06
-3.0048e-08
3.70273e-06
-2.8156e-08
3.67956e-06
-2.62984e-08
3.65684e-06
-2.44882e-08
3.63459e-06
-2.27288e-08
3.61286e-06
-2.10308e-08
3.59165e-06
-1.93968e-08
3.57099e-06
-1.78319e-08
3.55089e-06
-1.63322e-08
3.53137e-06
-1.48994e-08
3.51246e-06
-1.35248e-08
3.49416e-06
-1.2215e-08
3.47651e-06
-1.09561e-08
3.45952e-06
-9.74212e-09
3.44322e-06
-8.55737e-09
3.42765e-06
-7.40091e-09
3.41285e-06
-6.25131e-09
3.39887e-06
-5.1099e-09
3.38575e-06
-3.93937e-09
3.37358e-06
-2.75771e-09
3.36239e-06
-1.46638e-09
3.35225e-06
-7.99733e-11
3.34327e-06
1.39265e-09
3.33553e-06
3.07294e-09
3.32917e-06
4.9135e-09
3.32444e-06
6.86145e-09
3.32165e-06
9.0485e-09
3.32099e-06
1.13424e-08
3.32264e-06
1.40434e-08
3.32697e-06
1.7e-08
3.33436e-06
2.03252e-08
3.34521e-06
2.40841e-08
3.35998e-06
2.83553e-08
3.37917e-06
3.32386e-08
3.40336e-06
3.87952e-08
3.43323e-06
4.51195e-08
3.46953e-06
5.23129e-08
3.51309e-06
6.04844e-08
3.5649e-06
6.97388e-08
3.62606e-06
8.01856e-08
3.69786e-06
9.19852e-08
3.78183e-06
1.05357e-07
3.87962e-06
1.20509e-07
3.99268e-06
1.37527e-07
4.12218e-06
1.56382e-07
4.26903e-06
1.77396e-07
4.43434e-06
2.00688e-07
4.61953e-06
2.26245e-07
4.82471e-06
2.51739e-07
5.05059e-06
2.74898e-07
5.29827e-06
2.96172e-07
5.56655e-06
3.14666e-07
5.85242e-06
3.28032e-07
6.15069e-06
3.33998e-07
3.30729e-07
6.45406e-06
4.38961e-06
4.32861e-06
4.26319e-06
4.19521e-06
4.12497e-06
4.05285e-06
3.97983e-06
3.90614e-06
3.83213e-06
3.75798e-06
3.68379e-06
3.6097e-06
3.53583e-06
3.4623e-06
3.38913e-06
3.31637e-06
3.24406e-06
3.17226e-06
3.10102e-06
3.03039e-06
2.96041e-06
2.89113e-06
2.82259e-06
2.75484e-06
2.68791e-06
2.62183e-06
2.55661e-06
2.4922e-06
2.42871e-06
2.36638e-06
2.30533e-06
2.24566e-06
2.18746e-06
2.13081e-06
2.07578e-06
2.02245e-06
1.97087e-06
1.92111e-06
1.87323e-06
1.82726e-06
1.78325e-06
1.74123e-06
1.7012e-06
1.66321e-06
1.62727e-06
1.59333e-06
1.56135e-06
1.5313e-06
1.50315e-06
1.47685e-06
1.45236e-06
1.42963e-06
1.4086e-06
1.3892e-06
1.37137e-06
1.35504e-06
1.34014e-06
1.32661e-06
1.3144e-06
1.30344e-06
1.2937e-06
1.28514e-06
1.27774e-06
1.27149e-06
1.26638e-06
1.26244e-06
1.25968e-06
1.25822e-06
1.25814e-06
1.25953e-06
1.2626e-06
1.26752e-06
1.27438e-06
1.28343e-06
1.29477e-06
1.30881e-06
1.32581e-06
1.34614e-06
1.37022e-06
1.39858e-06
1.43182e-06
1.47061e-06
1.51573e-06
1.56804e-06
1.62853e-06
1.69827e-06
1.77845e-06
1.87044e-06
1.97579e-06
2.0963e-06
2.23383e-06
2.39021e-06
2.56761e-06
2.7683e-06
2.99454e-06
3.24628e-06
3.52118e-06
3.81735e-06
4.13202e-06
4.46005e-06
4.79405e-06
5.12478e-06
3.80905e-06
2.91227e-06
1.83412e-06
1.97494e-06
6.73221e-07
1.16089e-06
8.11425e-08
5.92079e-07
-2.54655e-07
3.35798e-07
-4.18537e-07
1.63882e-07
-4.97931e-07
7.93941e-08
-5.40451e-07
4.25204e-08
-5.62999e-07
2.25478e-08
-5.77438e-07
1.4439e-08
-5.82038e-07
4.60009e-09
-5.84049e-07
2.01051e-09
-5.87258e-07
3.20891e-09
-5.85623e-07
-1.63466e-09
-5.71551e-07
-1.40724e-08
-5.42175e-07
-2.93759e-08
-4.98656e-07
-4.35186e-08
-4.43309e-07
-5.53474e-08
-3.78785e-07
-6.45241e-08
-3.08302e-07
-7.04828e-08
-2.3402e-07
-7.42813e-08
-1.57378e-07
-7.66422e-08
-7.89731e-08
-7.84049e-08
1.59506e-09
-8.05682e-08
8.60929e-08
-8.44978e-08
1.74678e-07
-8.85851e-08
2.6824e-07
-9.35621e-08
3.67377e-07
-9.91366e-08
4.72e-07
-1.04623e-07
-1.0914e-07
6.61522e-06
3.13797e-06
6.13998e-06
2.45018e-06
5.42484e-06
1.87603e-06
4.61185e-06
1.40507e-06
3.91011e-06
1.03754e-06
3.31218e-06
7.61814e-07
2.83867e-06
5.52896e-07
2.48296e-06
3.98235e-07
2.2275e-06
2.78009e-07
2.04912e-06
1.92817e-07
1.92955e-06
1.24169e-07
1.86472e-06
6.68439e-08
1.85136e-06
1.65672e-08
1.87944e-06
-2.97091e-08
1.94461e-06
-7.92421e-08
2.03496e-06
-1.19735e-07
2.14144e-06
-1.49992e-07
2.2575e-06
-1.71407e-07
2.37859e-06
-1.85613e-07
2.50231e-06
-1.94204e-07
2.62662e-06
-1.98598e-07
2.75019e-06
-2.00204e-07
2.87221e-06
-2.00432e-07
2.99219e-06
-2.00544e-07
3.10922e-06
-2.01524e-07
3.2241e-06
-2.03471e-07
3.33708e-06
-2.06538e-07
3.44813e-06
-2.10191e-07
3.55683e-06
-2.13322e-07
7.53795e-06
2.59017e-06
7.78279e-06
2.20535e-06
7.78073e-06
1.87809e-06
7.63171e-06
1.55408e-06
7.42752e-06
1.24174e-06
7.21183e-06
9.77502e-07
6.99958e-06
7.65145e-07
6.80418e-06
5.93639e-07
6.633e-06
4.49182e-07
6.49711e-06
3.2871e-07
6.39545e-06
2.25825e-07
6.32508e-06
1.37219e-07
6.27893e-06
6.27135e-08
6.25069e-06
-1.47114e-09
6.23818e-06
-6.67319e-08
6.23665e-06
-1.18202e-07
6.24537e-06
-1.58706e-07
6.26204e-06
-1.88084e-07
6.28559e-06
-2.09157e-07
6.31479e-06
-2.23411e-07
6.34835e-06
-2.3215e-07
6.38515e-06
-2.37013e-07
6.42429e-06
-2.39563e-07
6.46474e-06
-2.40995e-07
6.50563e-06
-2.42416e-07
6.54631e-06
-2.44152e-07
6.58583e-06
-2.46058e-07
6.62378e-06
-2.48142e-07
-2.48961e-07
7.51446e-06
2.01839e-06
7.88361e-06
1.8362e-06
8.12536e-06
1.63634e-06
8.27035e-06
1.40909e-06
8.34081e-06
1.17128e-06
8.35739e-06
9.60921e-07
8.35005e-06
7.72487e-07
8.33032e-06
6.13367e-07
8.30441e-06
4.75093e-07
8.28051e-06
3.52615e-07
8.25798e-06
2.48352e-07
8.23653e-06
1.58665e-07
8.21903e-06
8.02143e-08
8.20697e-06
1.05925e-08
8.19079e-06
-5.05515e-08
8.17518e-06
-1.02593e-07
8.15982e-06
-1.43342e-07
8.14609e-06
-1.74363e-07
8.13456e-06
-1.97625e-07
8.12538e-06
-2.14226e-07
8.11862e-06
-2.25389e-07
8.11434e-06
-2.32737e-07
8.11212e-06
-2.3734e-07
8.11121e-06
-2.40085e-07
8.11082e-06
-2.4203e-07
8.11039e-06
-2.4372e-07
8.10936e-06
-2.45026e-07
8.10734e-06
-2.46127e-07
-2.45997e-07
7.32414e-06
1.56725e-06
7.69499e-06
1.46535e-06
8.00937e-06
1.32195e-06
8.24806e-06
1.17041e-06
8.42133e-06
9.98004e-07
8.54661e-06
8.35646e-07
8.63701e-06
6.82087e-07
8.70446e-06
5.45911e-07
8.7532e-06
4.26352e-07
8.7844e-06
3.21416e-07
8.80266e-06
2.30094e-07
8.81327e-06
1.48053e-07
8.81711e-06
7.63756e-08
8.81314e-06
1.45642e-08
8.80375e-06
-4.11668e-08
8.78834e-06
-8.71797e-08
8.76925e-06
-1.24252e-07
8.74813e-06
-1.53241e-07
8.72639e-06
-1.75888e-07
8.70493e-06
-1.92763e-07
8.68431e-06
-2.04773e-07
8.66496e-06
-2.1338e-07
8.64706e-06
-2.19441e-07
8.6303e-06
-2.23332e-07
8.6143e-06
-2.26027e-07
8.59863e-06
-2.28044e-07
8.58306e-06
-2.29459e-07
8.56723e-06
-2.30299e-07
-2.30292e-07
7.20523e-06
1.20995e-06
7.52849e-06
1.14209e-06
7.81509e-06
1.03535e-06
8.06578e-06
9.19721e-07
8.26988e-06
7.93904e-07
8.43556e-06
6.69972e-07
8.56459e-06
5.53054e-07
8.66412e-06
4.46381e-07
8.74135e-06
3.49117e-07
8.80048e-06
2.6229e-07
8.84455e-06
1.86022e-07
8.87493e-06
1.17678e-07
8.89379e-06
5.75145e-08
8.90318e-06
5.17164e-09
8.90206e-06
-4.00477e-08
8.89421e-06
-7.93245e-08
8.88166e-06
-1.11707e-07
8.86576e-06
-1.37336e-07
8.84736e-06
-1.57492e-07
8.82755e-06
-1.72947e-07
8.80722e-06
-1.8445e-07
8.78693e-06
-1.93088e-07
8.76706e-06
-1.99569e-07
8.74776e-06
-2.04037e-07
8.72901e-06
-2.07276e-07
8.71063e-06