/*--------------------------------*- C++ -*----------------------------------*\
| =========                 |                                                 |
| \\      /  F ield         | OpenFOAM: The Open Source CFD Toolbox           |
|  \\    /   O peration     | Version:  2206                                  |
|   \\  /    A nd           | Website:  www.openfoam.com                      |
|    \\/     M anipulation  |                                                 |
\*---------------------------------------------------------------------------*/
FoamFile
{
    version     2.0;
    format      ascii;
    arch        "LSB;label=32;scalar=64";
    class       surfaceScalarField;
    location    "19.4001";
    object      phi_0;
}
// * * * * * * * * * * * * * * * * * * * * * * * * * * * * * * * * * * * * * //

dimensions      [0 3 -1 0 0 0 0];

oriented        oriented;

internalField   nonuniform List<scalar> 
9439
(
2.6329e-06
-1.82388e-06
-8.09021e-07
4.35085e-06
-7.24282e-08
-1.64551e-06
5.38064e-06
1.62085e-06
-2.65064e-06
5.89642e-06
3.00957e-06
-3.52535e-06
6.00781e-06
3.9923e-06
-4.1037e-06
5.85347e-06
4.59943e-06
-4.44509e-06
5.52456e-06
4.90599e-06
-4.57708e-06
5.05977e-06
4.9634e-06
-4.49862e-06
4.4328e-06
4.87669e-06
-4.24972e-06
3.58574e-06
4.75305e-06
-3.90598e-06
2.58777e-06
4.56483e-06
-3.56686e-06
1.68228e-06
4.1906e-06
-3.28511e-06
1.12186e-06
3.53384e-06
-2.97342e-06
9.90503e-07
2.60986e-06
-2.4785e-06
1.21721e-06
1.50361e-06
-1.73031e-06
1.68149e-06
3.17768e-07
-7.82043e-07
2.25233e-06
-7.99997e-07
2.29154e-07
2.86464e-06
-1.85433e-06
1.24202e-06
3.46801e-06
-2.78632e-06
2.18294e-06
4.03792e-06
-3.59128e-06
3.02137e-06
4.56424e-06
-4.27312e-06
3.7468e-06
5.0483e-06
-4.83739e-06
4.35332e-06
5.50698e-06
-5.29145e-06
4.83278e-06
5.97349e-06
-5.63067e-06
5.16415e-06
6.49287e-06
-5.82699e-06
5.30761e-06
7.10646e-06
-5.82231e-06
5.20872e-06
7.83182e-06
-5.54295e-06
4.81759e-06
8.65634e-06
-4.93075e-06
4.10622e-06
9.54785e-06
-3.98357e-06
3.09206e-06
1.04505e-05
-2.76019e-06
1.8575e-06
1.12809e-05
-1.38605e-06
5.55721e-07
1.19751e-05
-2.82762e-08
-6.65916e-07
1.25063e-05
1.19244e-06
-1.72362e-06
1.28697e-05
2.21515e-06
-2.57862e-06
1.30785e-05
3.01757e-06
-3.22634e-06
1.31565e-05
3.60688e-06
-3.68491e-06
1.31314e-05
4.00804e-06
-3.98293e-06
1.30244e-05
4.25427e-06
-4.14727e-06
1.28527e-05
4.37466e-06
-4.20291e-06
1.2638e-05
4.39378e-06
-4.1791e-06
1.24028e-05
4.34238e-06
-4.10717e-06
1.21614e-05
4.25161e-06
-4.01026e-06
1.19217e-05
4.1429e-06
-3.90318e-06
1.16862e-05
4.02979e-06
-3.79427e-06
1.14545e-05
3.91943e-06
-3.68769e-06
1.12255e-05
3.814e-06
-3.58503e-06
1.09976e-05
3.71351e-06
-3.48568e-06
1.0767e-05
3.61949e-06
-3.38882e-06
1.05258e-05
3.53745e-06
-3.29632e-06
1.02649e-05
3.47477e-06
-3.21381e-06
9.97961e-06
3.43262e-06
-3.14734e-06
9.67793e-06
3.39618e-06
-3.09451e-06
9.38134e-06
3.33202e-06
-3.03542e-06
9.11876e-06
3.19651e-06
-2.93393e-06
8.91799e-06
2.95003e-06
-2.74926e-06
8.7972e-06
2.57108e-06
-2.45029e-06
8.75824e-06
2.06546e-06
-2.0265e-06
8.80084e-06
1.45493e-06
-1.49753e-06
8.91786e-06
7.75258e-07
-8.92276e-07
9.08822e-06
7.80448e-08
-2.48406e-07
9.29316e-06
-5.91203e-07
3.86266e-07
9.5188e-06
-1.20747e-06
9.81823e-07
9.7525e-06
-1.75459e-06
1.52089e-06
9.98342e-06
-2.22401e-06
1.99309e-06
1.0203e-05
-2.61436e-06
2.39478e-06
1.04049e-05
-2.93001e-06
2.72811e-06
1.05848e-05
-3.17972e-06
2.99982e-06
1.07401e-05
-3.3752e-06
3.2199e-06
1.08699e-05
-3.52986e-06
3.40006e-06
1.09754e-05
-3.65711e-06
3.55164e-06
1.10604e-05
-3.76787e-06
3.68281e-06
1.11303e-05
-3.86571e-06
3.79579e-06
1.11893e-05
-3.94777e-06
3.8888e-06
1.12391e-05
-4.00835e-06
3.95858e-06
1.12824e-05
-4.04328e-06
3.99994e-06
1.13306e-05
-4.046e-06
3.99778e-06
1.13887e-05
-3.98067e-06
3.92265e-06
1.14508e-05
-3.8102e-06
3.74808e-06
1.15191e-05
-3.53437e-06
3.46603e-06
1.15932e-05
-3.14598e-06
3.0719e-06
1.16711e-05
-2.64689e-06
2.56895e-06
1.175e-05
-2.04927e-06
1.9704e-06
1.1826e-05
-1.37607e-06
1.30003e-06
1.18935e-05
-6.61792e-07
5.94288e-07
1.19466e-05
4.7948e-08
-1.01006e-07
1.19815e-05
7.20912e-07
-7.55759e-07
1.19953e-05
1.33409e-06
-1.34793e-06
1.19866e-05
1.87159e-06
-1.86293e-06
1.19553e-05
2.32489e-06
-2.29359e-06
1.19025e-05
2.69221e-06
-2.63938e-06
1.183e-05
2.97731e-06
-2.9048e-06
1.17397e-05
3.18793e-06
-3.09765e-06
1.1633e-05
3.33393e-06
-3.22722e-06
1.15105e-05
3.42514e-06
-3.3026e-06
3.47089e-06
-3.33382e-06
4.80466e-07
-2.30435e-06
1.38178e-06
-9.73737e-07
2.21188e-06
7.90746e-07
2.8363e-06
2.38515e-06
3.13893e-06
3.68967e-06
3.10195e-06
4.63642e-06
2.75223e-06
5.25571e-06
2.11369e-06
5.60194e-06
1.29619e-06
5.69418e-06
5.02503e-07
5.54673e-06
-5.07255e-08
5.11806e-06
-2.51251e-07
4.39112e-06
-1.0593e-07
3.38852e-06
3.1891e-07
2.18502e-06
9.35884e-07
8.86632e-07
1.62538e-06
-3.71724e-07
2.3545e-06
-1.52912e-06
3.05698e-06
-2.55681e-06
3.7059e-06
-3.43524e-06
4.27983e-06
-4.16521e-06
4.76625e-06
-4.75954e-06
5.16349e-06
-5.23463e-06
5.48462e-06
-5.61258e-06
5.75835e-06
-5.9044e-06
6.03044e-06
-6.09908e-06
6.36599e-06
-6.15786e-06
6.8328e-06
-6.00976e-06
7.43728e-06
-5.53523e-06
8.1666e-06
-4.71289e-06
8.98083e-06
-3.57442e-06
9.80962e-06
-2.21484e-06
1.05728e-05
-7.91411e-07
1.12201e-05
5.45129e-07
1.17266e-05
1.7086e-06
1.20875e-05
2.65671e-06
1.23127e-05
3.38163e-06
1.24217e-05
3.89904e-06
1.24382e-05
4.23783e-06
1.23797e-05
4.43317e-06
1.22587e-05
4.51475e-06
1.20949e-05
4.50611e-06
1.19054e-05
4.44116e-06
1.17031e-05
4.34518e-06
1.14958e-05
4.23712e-06
1.12867e-05
4.12854e-06
1.10765e-05
4.0242e-06
1.0863e-05
3.92704e-06
1.06398e-05
3.84261e-06
1.03982e-05
3.77905e-06
1.01319e-05
3.74112e-06
9.8441e-06
3.72041e-06
9.55072e-06
3.68956e-06
9.27669e-06
3.60604e-06
9.04888e-06
3.42432e-06
8.8884e-06
3.11051e-06
8.80689e-06
2.65258e-06
8.80926e-06
2.0631e-06
8.89083e-06
1.37336e-06
9.03595e-06
6.30134e-07
9.2245e-06
-1.10499e-07
9.4414e-06
-8.0811e-07
9.67267e-06
-1.43873e-06
9.90561e-06
-1.98753e-06
1.01297e-05
-2.4481e-06
1.0337e-05
-2.82165e-06
1.05221e-05
-3.11511e-06
1.06817e-05
-3.33934e-06
1.08143e-05
-3.50779e-06
1.09195e-05
-3.63501e-06
1.09977e-05
-3.7354e-06
1.10514e-05
-3.82156e-06
1.1086e-05
-3.90025e-06
1.11082e-05
-3.97001e-06
1.11236e-05
-4.02373e-06
1.11336e-05
-4.05323e-06
1.11426e-05
-4.055e-06
1.11555e-05
-3.99359e-06
1.11759e-05
-3.83066e-06
1.12067e-05
-3.56511e-06
1.12478e-05
-3.18708e-06
1.12981e-05
-2.69726e-06
1.1356e-05
-2.10714e-06
1.14188e-05
-1.43882e-06
1.14816e-05
-7.2461e-07
1.15384e-05
-8.85979e-09
1.15847e-05
6.74641e-07
1.16164e-05
1.30232e-06
1.16308e-05
1.85719e-06
1.16263e-05
2.3294e-06
1.16025e-05
2.71601e-06
1.15599e-05
3.01988e-06
1.14997e-05
3.2482e-06
1.14227e-05
3.41092e-06
1.13291e-05
3.51872e-06
3.5812e-06
-3.29409e-07
-1.97494e-06
-4.35347e-07
-8.678e-07
-3.2012e-07
6.7552e-07
-1.82839e-07
2.24786e-06
-1.44444e-07
3.65127e-06
-2.67039e-07
4.75901e-06
-5.33802e-07
5.52247e-06
-8.69767e-07
5.93791e-06
-1.18063e-06
6.00505e-06
-1.33462e-06
5.70072e-06
-1.25236e-06
5.0358e-06
-9.27174e-07
4.06594e-06
-3.67635e-07
2.82898e-06
3.64834e-07
1.45255e-06
1.16545e-06
8.60134e-08
1.98425e-06
-1.19052e-06
2.78469e-06
-2.32957e-06
3.53145e-06
-3.30356e-06
4.19638e-06
-4.10017e-06
4.75777e-06
-4.7266e-06
5.20218e-06
-5.20395e-06
5.52902e-06
-5.56146e-06
5.74909e-06
-5.83265e-06
5.88793e-06
-6.04324e-06
5.98104e-06
-6.19219e-06
6.07637e-06
-6.25318e-06
6.25808e-06
-6.19147e-06
6.59123e-06
-5.86837e-06
7.09783e-06
-5.21949e-06
7.74775e-06
-4.22434e-06
8.49022e-06
-2.95731e-06
9.24642e-06
-1.54761e-06
9.94706e-06
-1.55509e-07
1.05503e-05
1.10534e-06
1.10331e-05
2.17389e-06
1.13902e-05
3.02456e-06
1.16287e-05
3.6605e-06
1.17636e-05
4.10293e-06
1.18152e-05
4.38162e-06
1.18006e-05
4.52935e-06
1.17278e-05
4.57895e-06
1.1608e-05
4.56088e-06
1.14568e-05
4.49639e-06
1.12897e-05
4.40424e-06
1.11131e-05
4.30514e-06
1.09288e-05
4.20852e-06
1.07335e-05
4.12228e-06
1.05205e-05
4.05562e-06
1.02832e-05
4.01637e-06
1.00213e-05
4.00302e-06
9.74484e-06
3.9969e-06
9.47341e-06
3.96098e-06
9.23148e-06
3.84798e-06
9.04198e-06
3.61383e-06
8.92251e-06
3.22998e-06
8.88343e-06
2.69166e-06
8.92624e-06
2.0203e-06
9.04156e-06
1.25804e-06
9.21163e-06
4.6007e-07
9.41732e-06
-3.16193e-07
9.64386e-06
-1.03465e-06
9.87717e-06
-1.67204e-06
1.0105e-05
-2.21533e-06
1.03174e-05
-2.66049e-06
1.05075e-05
-3.01179e-06
1.06711e-05
-3.27868e-06
1.08059e-05
-3.4742e-06
1.09118e-05
-3.61363e-06
1.09893e-05
-3.71253e-06
1.10397e-05
-3.78582e-06
1.10644e-05
-3.84625e-06
1.1066e-05
-3.9019e-06
1.1051e-05
-3.95499e-06
1.10281e-05
-4.00082e-06
1.10024e-05
-4.02752e-06
1.09722e-05
-4.02476e-06
1.09417e-05
-3.96317e-06
1.09233e-05
-3.8122e-06
1.0918e-05
-3.55987e-06
1.09268e-05
-3.1958e-06
1.09494e-05
-2.71993e-06
1.09854e-05
-2.14316e-06
1.10332e-05
-1.48655e-06
1.10889e-05
-7.80362e-07
1.11467e-05
-6.66479e-08
1.12015e-05
6.19821e-07
1.12486e-05
1.25522e-06
1.12839e-05
1.82191e-06
1.13044e-05
2.30895e-06
1.13082e-05
2.71221e-06
1.12946e-05
3.0335e-06
1.12636e-05
3.27917e-06
1.12157e-05
3.45881e-06
1.11509e-05
3.58351e-06
3.66374e-06
-7.08155e-07
-1.26679e-06
-1.29859e-06
-2.77365e-07
-1.69861e-06
1.07554e-06
-1.95299e-06
2.50224e-06
-2.10558e-06
3.80387e-06
-2.19632e-06
4.84975e-06
-2.2393e-06
5.56545e-06
-2.22384e-06
5.92245e-06
-2.12498e-06
5.90619e-06
-1.87785e-06
5.45359e-06
-1.43077e-06
4.58873e-06
-7.64911e-07
3.40007e-06
4.56329e-08
2.01843e-06
9.23818e-07
5.74366e-07
1.81382e-06
-8.03989e-07
2.68912e-06
-2.06582e-06
3.51621e-06
-3.15666e-06
4.26431e-06
-4.05166e-06
4.90862e-06
-4.74449e-06
5.43383e-06
-5.25181e-06
5.82976e-06
-5.59987e-06
6.09154e-06
-5.82324e-06
6.21821e-06
-5.95933e-06
6.23438e-06
-6.05941e-06
6.18851e-06
-6.14633e-06
6.13207e-06
-6.19674e-06
6.09869e-06
-6.15809e-06
6.15715e-06
-5.92684e-06
6.3925e-06
-5.45484e-06
6.83061e-06
-4.66246e-06
7.42127e-06
-3.54797e-06
8.09964e-06
-2.22598e-06
8.78864e-06
-8.44508e-07
9.43305e-06
4.60937e-07
9.9955e-06
1.61144e-06
1.04547e-05
2.56534e-06
1.0805e-05
3.31017e-06
1.10525e-05
3.85544e-06
1.12094e-05
4.22473e-06
1.12902e-05
4.44855e-06
1.13084e-05
4.56084e-06
1.12719e-05
4.59735e-06
1.11869e-05
4.58138e-06
1.10699e-05
4.52118e-06
1.09339e-05
4.44119e-06
1.07814e-05
4.361e-06
1.06095e-05
4.29424e-06
1.04128e-05
4.25225e-06
1.01894e-05
4.23983e-06
9.94445e-06
4.24793e-06
9.69222e-06
4.24913e-06
9.45325e-06
4.19995e-06
9.25022e-06
4.05101e-06
9.1041e-06
3.75995e-06
9.03063e-06
3.30344e-06
9.03646e-06
2.68583e-06
9.11849e-06
1.93827e-06
9.26517e-06
1.11135e-06
9.45698e-06
2.68257e-07
9.67646e-06
-5.35671e-07
9.908e-06
-1.26618e-06
1.01378e-05
-1.90183e-06
1.03542e-05
-2.43176e-06
1.05485e-05
-2.85473e-06
1.07154e-05
-3.17873e-06
1.08522e-05
-3.41545e-06
1.09578e-05
-3.57982e-06
1.1033e-05
-3.68886e-06
1.10794e-05
-3.75893e-06
1.10997e-05
-3.8061e-06
1.10952e-05
-3.84175e-06
1.10669e-05
-3.8736e-06
1.10187e-05
-3.90682e-06
1.09578e-05
-3.93989e-06
1.08923e-05
-3.96196e-06
1.08235e-05
-3.95604e-06
1.07572e-05
-3.89688e-06
1.07028e-05
-3.7578e-06
1.06631e-05
-3.52014e-06
1.06403e-05
-3.173e-06
1.06358e-05
-2.71541e-06
1.065e-05
-2.15731e-06
1.06819e-05
-1.51852e-06
1.07293e-05
-8.27766e-07
1.07859e-05
-1.23231e-07
1.08467e-05
5.59067e-07
1.09062e-05
1.19572e-06
1.09594e-05
1.7687e-06
1.10021e-05
2.26622e-06
1.10312e-05
2.6831e-06
1.10447e-05
3.02003e-06
1.10415e-05
3.28237e-06
1.10212e-05
3.47908e-06
1.09837e-05
3.62105e-06
3.71924e-06
-8.62874e-07
-1.58386e-06
-2.05898e-06
-2.32553e-06
-2.43281e-06
-2.44333e-06
-2.39159e-06
-2.2713e-06
-1.97391e-06
-1.44083e-06
-7.09933e-07
1.35523e-07
1.04913e-06
1.97639e-06
2.89441e-06
3.76536e-06
4.56027e-06
5.25548e-06
5.83435e-06
6.28981e-06
6.62492e-06
6.83608e-06
6.90662e-06
6.82495e-06
6.62479e-06
6.38421e-06
6.17472e-06
6.05724e-06
6.05939e-06
6.24879e-06
6.64856e-06
7.19656e-06
7.81917e-06
8.44985e-06
9.04353e-06
9.56794e-06
1.00047e-05
1.0348e-05
1.06009e-05
1.07712e-05
1.08701e-05
1.09116e-05
1.0905e-05
1.08522e-05
1.07638e-05
1.06469e-05
1.05014e-05
1.03267e-05
1.01261e-05
9.90939e-06
9.6921e-06
9.49431e-06
9.33804e-06
9.24263e-06
9.21965e-06
9.27146e-06
9.39231e-06
9.56837e-06
9.77889e-06
1.00073e-05
1.02376e-05
1.04568e-05
1.06544e-05
1.08235e-05
1.0961e-05
1.10658e-05
1.11386e-05
1.11822e-05
1.11976e-05
1.11858e-05
1.11475e-05
1.10863e-05
1.10066e-05
1.09132e-05
1.0812e-05
1.07081e-05
1.0608e-05
1.05193e-05
1.04469e-05
1.03944e-05
1.03641e-05
1.03572e-05
1.03736e-05
1.04112e-05
1.04647e-05
1.05286e-05
1.05972e-05
1.06649e-05
1.07265e-05
1.07777e-05
1.08156e-05
2.9822e-06
1.08378e-05
3.26012e-06
1.08432e-05
3.47366e-06
1.08312e-05
3.63308e-06
3.74919e-06
1.06153e-05
1.06604e-05
1.06893e-05
1.07008e-05
6.06289e-06
1.17443e-07
5.93703e-06
1.25854e-07
5.80268e-06
1.34355e-07
5.65972e-06
1.42955e-07
5.50807e-06
1.51648e-07
5.34766e-06
1.60413e-07
5.17841e-06
1.69249e-07
5.00032e-06
1.78092e-07
4.81349e-06
1.86826e-07
4.61832e-06
1.95173e-07
4.41526e-06
2.03063e-07
4.20492e-06
2.10337e-07
3.98818e-06
2.16744e-07
3.7663e-06
2.21876e-07
3.54102e-06
2.25279e-07
3.3157e-06
2.25323e-07
3.0947e-06
2.20996e-07
2.88125e-06
2.13448e-07
2.67692e-06
2.04332e-07
2.48224e-06
1.94682e-07
2.29726e-06
1.84983e-07
2.12176e-06
1.75498e-07
1.95538e-06
1.6638e-07
1.79769e-06
1.57693e-07
1.64824e-06
1.49449e-07
1.50661e-06
1.41634e-07
1.37238e-06
1.34222e-07
1.24523e-06
1.27158e-07
1.12488e-06
1.2035e-07
1.01119e-06
1.1369e-07
9.04069e-07
1.07117e-07
8.03535e-07
1.00534e-07
7.09716e-07
9.38191e-08
6.2289e-07
8.68253e-08
5.43223e-07
7.9667e-08
4.70281e-07
7.29428e-08
4.03529e-07
6.67521e-08
3.42943e-07
6.05861e-08
2.8861e-07
5.43328e-08
2.40361e-07
4.82485e-08
1.97596e-07
4.27656e-08
1.59292e-07
3.8304e-08
1.2417e-07
3.51222e-08
9.0878e-08
3.32916e-08
5.81832e-08
3.26948e-08
2.5186e-08
3.29972e-08
-8.78608e-09
3.39721e-08
-4.37266e-08
3.49406e-08
3.61819e-08
-7.99086e-08
1.17847e-05
1.71472e-07
1.17232e-05
1.87396e-07
1.16541e-05
2.03498e-07
1.15772e-05
2.19794e-07
1.14926e-05
2.3628e-07
1.14001e-05
2.52895e-07
1.12996e-05
2.69709e-07
1.11911e-05
2.86684e-07
1.10742e-05
3.0373e-07
1.09492e-05
3.20119e-07
1.08163e-05
3.36013e-07
1.06754e-05
3.51161e-07
1.05269e-05
3.65242e-07
1.03709e-05
3.77916e-07
1.02075e-05
3.88712e-07
1.00355e-05
3.97309e-07
9.85302e-06
4.03446e-07
9.65952e-06
4.06955e-07
9.45564e-06
4.08209e-07
9.24253e-06
4.07795e-07
9.02132e-06
4.06188e-07
8.79308e-06
4.03737e-07
8.55875e-06
4.0071e-07
8.31912e-06
3.97319e-07
8.07485e-06
3.93724e-07
7.82643e-06
3.90052e-07
7.57427e-06
3.86383e-07
7.31868e-06
3.82745e-07
7.05987e-06
3.79165e-07
6.79793e-06
3.75631e-07
6.53292e-06
3.72124e-07
6.26485e-06
3.68602e-07
5.99368e-06
3.64996e-07
5.71928e-06
3.61221e-07
5.44183e-06
3.57116e-07
5.16247e-06
3.523e-07
4.88247e-06
3.46757e-07
4.6022e-06
3.40854e-07
4.32175e-06
3.3478e-07
4.04138e-06
3.28622e-07
3.76173e-06
3.2242e-07
3.4839e-06
3.16131e-07
3.20939e-06
3.09627e-07
2.93999e-06
3.02696e-07
2.67762e-06
2.9507e-07
2.42412e-06
2.86493e-07
2.18131e-06
2.76783e-07
1.95039e-06
2.65855e-07
2.53574e-07
1.733e-06
1.37884e-05
1.82324e-07
1.37728e-05
2.02979e-07
1.37525e-05
2.23791e-07
1.37275e-05
2.44785e-07
1.36978e-05
2.65958e-07
1.36635e-05
2.87259e-07
1.36244e-05
3.08761e-07
1.35807e-05
3.3043e-07
1.35322e-05
3.52181e-07
1.3479e-05
3.73314e-07
1.3421e-05
3.93995e-07
1.33582e-05
4.14004e-07
1.32903e-05
4.33097e-07
1.32173e-05
4.50964e-07
1.31388e-05
4.67181e-07
1.30547e-05
4.8146e-07
1.29645e-05
4.93614e-07
1.28679e-05
5.03608e-07
1.27644e-05
5.11636e-07
1.26542e-05
5.18031e-07
1.25373e-05
5.23125e-07
1.24138e-05
5.27196e-07
1.2284e-05
5.30464e-07
1.21482e-05
5.33121e-07
1.20066e-05
5.35381e-07
1.18592e-05
5.37425e-07
1.17062e-05
5.39359e-07
1.15477e-05
5.41266e-07
1.13837e-05
5.43223e-07
1.1214e-05
5.45282e-07
1.10387e-05
5.47478e-07
1.08574e-05
5.49827e-07
1.06701e-05
5.52335e-07
1.04763e-05
5.55006e-07
1.02755e-05
5.57883e-07
1.00667e-05
5.61103e-07
9.84885e-06
5.64643e-07
9.62133e-06
5.68376e-07
9.38385e-06
5.72258e-07
9.13619e-06
5.76281e-07
8.87822e-06
5.80394e-07
8.60991e-06
5.84444e-07
8.33136e-06
5.88169e-07
8.04285e-06
5.91208e-07
7.7448e-06
5.93126e-07
7.4378e-06
5.93485e-07
7.12276e-06
5.91824e-07
6.80092e-06
5.87703e-07
5.80798e-07
6.47369e-06
1.43694e-05
1.756e-07
1.43729e-05
1.99496e-07
1.43732e-05
2.23442e-07
1.43705e-05
2.47467e-07
1.43649e-05
2.71583e-07
1.43564e-05
2.95781e-07
1.43451e-05
3.2006e-07
1.43311e-05
3.44361e-07
1.43148e-05
3.68544e-07
1.42957e-05
3.92368e-07
1.4274e-05
4.15722e-07
1.42496e-05
4.38435e-07
1.42224e-05
4.60284e-07
1.41923e-05
4.81005e-07
1.41592e-05
5.00317e-07
1.41227e-05
5.17981e-07
1.40824e-05
5.33856e-07
1.40381e-05
5.47914e-07
1.39895e-05
5.60239e-07
1.39366e-05
5.71015e-07
1.38792e-05
5.80475e-07
1.38176e-05
5.88843e-07
1.37517e-05
5.96335e-07
1.36816e-05
6.03165e-07
1.36075e-05
6.09488e-07
1.35295e-05
6.15444e-07
1.34477e-05
6.21196e-07
1.33621e-05
6.2689e-07
1.32726e-05
6.32648e-07
1.31793e-05
6.3857e-07
1.30821e-05
6.44741e-07
1.29807e-05
6.5123e-07
1.28749e-05
6.58094e-07
1.27646e-05
6.6535e-07
1.26494e-05
6.73071e-07
1.25291e-05
6.81388e-07
1.24034e-05
6.90329e-07
1.22719e-05
6.99837e-07
1.21344e-05
7.09828e-07
1.19904e-05
7.20243e-07
1.18398e-05
7.3098e-07
1.16824e-05
7.41845e-07
1.1518e-05
7.52549e-07
1.13465e-05
7.62723e-07
1.11677e-05
7.71931e-07
1.09815e-05
7.79695e-07
1.07878e-05
7.85525e-07
1.05866e-05
7.88969e-07
7.89638e-07
1.03777e-05
1.45257e-05
1.63866e-07
1.45348e-05
1.90365e-07
1.45415e-05
2.1679e-07
1.45458e-05
2.43146e-07
1.45479e-05
2.69478e-07
1.45479e-05
2.95779e-07
1.45459e-05
3.22031e-07
1.45421e-05
3.48204e-07
1.45365e-05
3.74181e-07
1.4529e-05
3.99843e-07
1.45197e-05
4.25027e-07
1.45086e-05
4.49534e-07
1.44957e-05
4.73214e-07
1.44809e-05
4.95807e-07
1.4464e-05
5.17142e-07
1.4445e-05
5.37008e-07
1.44236e-05
5.55275e-07
1.43996e-05
5.71888e-07
1.4373e-05
5.86875e-07
1.43437e-05
6.00342e-07
1.43117e-05
6.12452e-07
1.42771e-05
6.23374e-07
1.42402e-05
6.33296e-07
1.42009e-05
6.42421e-07
1.41595e-05
6.50931e-07
1.41159e-05
6.58994e-07
1.40703e-05
6.66783e-07
1.40228e-05
6.74468e-07
1.39732e-05
6.82204e-07
1.39216e-05
6.90132e-07
1.3868e-05
6.98373e-07
1.38122e-05
7.07035e-07
1.37541e-05
7.16216e-07
1.36934e-05
7.26025e-07
1.363e-05
7.36481e-07
1.35638e-05
7.47623e-07
1.34946e-05
7.59524e-07
1.34223e-05
7.72125e-07
1.33468e-05
7.85332e-07
1.3268e-05
7.99065e-07
1.31857e-05
8.1319e-07
1.31001e-05
8.27495e-07
1.3011e-05
8.41692e-07
1.29182e-05
8.55462e-07
1.28217e-05
8.68421e-07
1.27213e-05
8.80108e-07
1.26168e-05
8.90076e-07
1.25078e-05
8.97942e-07
9.0333e-07
1.23941e-05
1.45584e-05
1.50366e-07
1.45695e-05
1.79315e-07
1.45782e-05
2.08041e-07
1.45848e-05
2.36548e-07
1.45894e-05
2.64907e-07
1.4592e-05
2.93125e-07
1.45929e-05
3.21191e-07
1.4592e-05
3.49105e-07
1.45894e-05
3.76765e-07
1.45852e-05
4.04088e-07
1.45792e-05
4.30937e-07
1.45716e-05
4.57127e-07
1.45623e-05
4.82513e-07
1.45513e-05
5.06838e-07
1.45385e-05
5.2996e-07
1.45238e-05
5.51677e-07
1.45073e-05
5.71849e-07
1.44888e-05
5.90394e-07
1.44683e-05
6.07303e-07
1.4446e-05
6.22626e-07
1.4422e-05
6.36475e-07
1.43964e-05
6.49008e-07
1.43693e-05
6.6039e-07
1.43409e-05
6.70795e-07
1.43114e-05
6.80426e-07
1.42809e-05
6.89485e-07
1.42495e-05
6.9817e-07
1.42173e-05
7.06678e-07
1.41843e-05
7.15197e-07
1.41506e-05
7.23899e-07
1.4116e-05
7.3294e-07
1.40806e-05
7.42453e-07
1.40443e-05
7.52552e-07
1.4007e-05
7.63304e-07
1.39687e-05
7.74768e-07
1.39292e-05
7.87118e-07
1.38884e-05
8.00336e-07
1.38463e-05
8.14232e-07
1.38028e-05
8.28764e-07
1.37581e-05
8.43849e-07
1.37119e-05
8.59332e-07
1.36644e-05
8.75003e-07
1.36155e-05
8.90604e-07
1.35652e-05
9.05803e-07
1.35134e-05
9.20202e-07
1.34601e-05
9.33378e-07
1.34052e-05
9.44964e-07
1.33485e-05
9.54676e-07
9.62173e-07
1.32896e-05
1.45767e-05
1.36986e-07
1.45877e-05
1.68299e-07
1.45965e-05
1.99233e-07
1.46033e-05
2.29818e-07
1.46081e-05
2.60136e-07
1.46109e-05
2.90227e-07
1.4612e-05
3.20098e-07
1.46114e-05
3.49766e-07
1.4609e-05
3.79155e-07
1.46049e-05
4.08191e-07
1.45991e-05
4.36752e-07
1.45915e-05
4.64666e-07
1.45823e-05
4.91776e-07
1.45712e-05
5.17865e-07
1.45585e-05
5.42742e-07
1.45439e-05
5.66222e-07
1.45276e-05
5.88147e-07
1.45096e-05
6.08411e-07
1.44899e-05
6.26977e-07
1.44687e-05
6.43859e-07
1.4446e-05
6.59125e-07
1.44222e-05
6.72883e-07
1.43973e-05
6.85296e-07
1.43715e-05
6.96547e-07
1.43451e-05
7.06836e-07
1.43182e-05
7.16389e-07
1.42909e-05
7.2543e-07
1.42634e-05
7.34189e-07
1.42357e-05
7.42889e-07
1.42079e-05
7.51728e-07
1.41799e-05
7.60901e-07
1.41518e-05
7.70578e-07
1.41235e-05
7.80893e-07
1.40948e-05
7.91991e-07
1.40656e-05
8.0395e-07
1.40361e-05
8.16614e-07
1.40065e-05
8.30001e-07
1.39764e-05
8.44241e-07
1.3946e-05
8.59209e-07
1.39151e-05
8.74726e-07
1.38839e-05
8.90592e-07
1.38523e-05
9.06578e-07
1.38204e-05
9.2244e-07
1.37884e-05
9.37886e-07
1.37561e-05
9.52515e-07
1.37236e-05
9.65858e-07
1.36909e-05
9.77614e-07
1.36579e-05
9.87661e-07
9.95652e-07
1.36245e-05
1.45995e-05
1.24185e-07
1.461e-05
1.57805e-07
1.46183e-05
1.90876e-07
1.46247e-05
2.23471e-07
1.46291e-05
2.55693e-07
1.46317e-05
2.87626e-07
1.46325e-05
3.19308e-07
1.46315e-05
3.50775e-07
1.46287e-05
3.81983e-07
1.4624e-05
4.12867e-07
1.46174e-05
4.43314e-07
1.4609e-05
4.73153e-07
1.45985e-05
5.02202e-07
1.45862e-05
5.3024e-07
1.45719e-05
5.57041e-07
1.45557e-05
5.82398e-07
1.45377e-05
6.06122e-07
1.4518e-05
6.28074e-07
1.44968e-05
6.48177e-07
1.44743e-05
6.66411e-07
1.44506e-05
6.82815e-07
1.4426e-05
6.9749e-07
1.44007e-05
7.10589e-07
1.43749e-05
7.22302e-07
1.43489e-05
7.32857e-07
1.43228e-05
7.42505e-07
1.42967e-05
7.51511e-07
1.42708e-05
7.60145e-07
1.4245e-05
7.68664e-07
1.42194e-05
7.77313e-07
1.4194e-05
7.86312e-07
1.41687e-05
7.9584e-07
1.41436e-05
8.06063e-07
1.41185e-05
8.17099e-07
1.40934e-05
8.29044e-07
1.40681e-05
8.41893e-07
1.40425e-05
8.55565e-07
1.40167e-05
8.70031e-07
1.39907e-05
8.8521e-07
1.39645e-05
9.00931e-07
1.39382e-05
9.16962e-07
1.39117e-05
9.33064e-07
1.38851e-05
9.48993e-07
1.38586e-05
9.6439e-07
1.38322e-05
9.78908e-07
1.38058e-05
9.92305e-07
1.37792e-05
1.00418e-06
1.37529e-05
1.014e-06
1.02155e-06
1.3727e-05
1.46282e-05
1.122e-07
1.4638e-05
1.48044e-07
1.46457e-05
1.83155e-07
1.46515e-05
2.1766e-07
1.46555e-05
2.51707e-07
1.46577e-05
2.85433e-07
1.46581e-05
3.18923e-07
1.46566e-05
3.52235e-07
1.46533e-05
3.85361e-07
1.46479e-05
4.18246e-07
1.46404e-05
4.50779e-07
1.46308e-05
4.82781e-07
1.4619e-05
5.14035e-07
1.46049e-05
5.4429e-07
1.45887e-05
5.73277e-07
1.45703e-05
6.00736e-07
1.455e-05
6.26431e-07
1.45279e-05
6.50171e-07
1.45043e-05
6.7183e-07
1.44793e-05
6.91351e-07
1.44534e-05
7.08751e-07
1.44268e-05
7.24121e-07
1.43997e-05
7.37616e-07
1.43726e-05
7.49451e-07
1.43456e-05
7.59888e-07
1.43188e-05
7.69223e-07
1.42926e-05
7.77775e-07
1.42669e-05
7.85867e-07
1.42417e-05
7.93807e-07
1.42171e-05
8.01892e-07
1.41931e-05
8.10382e-07
1.41694e-05
8.19485e-07
1.41461e-05
8.29392e-07
1.41229e-05
8.4024e-07
1.40999e-05
8.52119e-07
1.40767e-05
8.65032e-07
1.40534e-05
8.78907e-07
1.40298e-05
8.93659e-07
1.40058e-05
9.0917e-07
1.39815e-05
9.25247e-07
1.39568e-05
9.41636e-07
1.39318e-05
9.58068e-07
1.39065e-05
9.74257e-07
1.38811e-05
9.89832e-07
1.38556e-05
1.00445e-06
1.38301e-05
1.0178e-06
1.38047e-05
1.02955e-06
1.37794e-05
1.03929e-06
1.04668e-06
1.37543e-05
1.46618e-05
1.01273e-07
1.46707e-05
1.39211e-07
1.46776e-05
1.76206e-07
1.46828e-05
2.12463e-07
1.46863e-05
2.48195e-07
1.46882e-05
2.83606e-07
1.46882e-05
3.18854e-07
1.46864e-05
3.54028e-07
1.46826e-05
3.89156e-07
1.46767e-05
4.24198e-07
1.46684e-05
4.59038e-07
1.46577e-05
4.9347e-07
1.46445e-05
5.27241e-07
1.46288e-05
5.60051e-07
1.46105e-05
5.91554e-07
1.45898e-05
6.21415e-07
1.45669e-05
6.49324e-07
1.45421e-05
6.75021e-07
1.45156e-05
6.98319e-07
1.44878e-05
7.19118e-07
1.44592e-05
7.37413e-07
1.443e-05
7.53289e-07
1.44007e-05
7.66918e-07
1.43716e-05
7.78551e-07
1.4343e-05
7.885e-07
1.43151e-05
7.97121e-07
1.42881e-05
8.04802e-07
1.4262e-05
8.11938e-07
1.42369e-05
8.18904e-07
1.42127e-05
8.26064e-07
1.41894e-05
8.33729e-07
1.41667e-05
8.42135e-07
1.41446e-05
8.51519e-07
1.41228e-05
8.62041e-07
1.41011e-05
8.73785e-07
1.40794e-05
8.86755e-07
1.40574e-05
9.00879e-07
1.40351e-05
9.16036e-07
1.40122e-05
9.32057e-07
1.39887e-05
9.48715e-07
1.39646e-05
9.65726e-07
1.39399e-05
9.82778e-07
1.39146e-05
9.99537e-07
1.38888e-05
1.01563e-06
1.38626e-05
1.03069e-06
1.3836e-05
1.04435e-06
1.38093e-05
1.05624e-06
1.37826e-05
1.066e-06
1.0733e-06
1.3756e-05
1.47e-05
9.16959e-08
1.47076e-05
1.31542e-07
1.47136e-05
1.70197e-07
1.47181e-05
2.07957e-07
1.47212e-05
2.45147e-07
1.47227e-05
2.82079e-07
1.47226e-05
3.18976e-07
1.47206e-05
3.55979e-07
1.47166e-05
3.93167e-07
1.47103e-05
4.30522e-07
1.47014e-05
4.67916e-07
1.46898e-05
5.05113e-07
1.46752e-05
5.41791e-07
1.46577e-05
5.7756e-07
1.46373e-05
6.11994e-07
1.46141e-05
6.44641e-07
1.45883e-05
6.75086e-07
1.45604e-05
7.02974e-07
1.45306e-05
7.28039e-07
1.44996e-05
7.50132e-07
1.44678e-05
7.6922e-07
1.44357e-05
7.85395e-07
1.44038e-05
7.98856e-07
1.43724e-05
8.09906e-07
1.4342e-05
8.18928e-07
1.43127e-05
8.26361e-07
1.42849e-05
8.32685e-07
1.42584e-05
8.38389e-07
1.42334e-05
8.43938e-07
1.42097e-05
8.49781e-07
1.41871e-05
8.56294e-07
1.41655e-05
8.63742e-07
1.41446e-05
8.72415e-07
1.41241e-05
8.82507e-07
1.41038e-05
8.94104e-07
1.40834e-05
9.07204e-07
1.40625e-05
9.21714e-07
1.40411e-05
9.37475e-07
1.40189e-05
9.54272e-07
1.39958e-05
9.71829e-07
1.39717e-05
9.89821e-07
1.39466e-05
1.00789e-06
1.39204e-05
1.02564e-06
1.38934e-05
1.04268e-06
1.38655e-05
1.05859e-06
1.38369e-05
1.07296e-06
1.38077e-05
1.08539e-06
1.37782e-05
1.0955e-06
1.10294e-06
1.37486e-05
1.47418e-05
8.38239e-08
1.47481e-05
1.25316e-07
1.4753e-05
1.65295e-07
1.47567e-05
2.04191e-07
1.47594e-05
2.42518e-07
1.47607e-05
2.80715e-07
1.47606e-05
3.1906e-07
1.47588e-05
3.57796e-07
1.47549e-05
3.97072e-07
1.47485e-05
4.36903e-07
1.47393e-05
4.7715e-07
1.47269e-05
5.17527e-07
1.47111e-05
5.57611e-07
1.46918e-05
5.9688e-07
1.4669e-05
6.3478e-07
1.46429e-05
6.70723e-07
1.46138e-05
7.04136e-07
1.45823e-05
7.34536e-07
1.45488e-05
7.61556e-07
1.45139e-05
7.8498e-07
1.44784e-05
8.04753e-07
1.44428e-05
8.20978e-07
1.44078e-05
8.339e-07
1.43738e-05
8.43897e-07
1.43412e-05
8.51447e-07
1.43105e-05
8.57101e-07
1.42817e-05
8.61462e-07
1.4255e-05
8.6514e-07
1.42302e-05
8.6872e-07
1.42072e-05
8.72765e-07
1.41858e-05
8.77736e-07
1.41656e-05
8.83931e-07
1.41463e-05
8.91692e-07
1.41276e-05
9.01253e-07
1.41089e-05
9.12712e-07
1.40901e-05
9.26051e-07
1.40707e-05
9.41145e-07
1.40504e-05
9.57792e-07
1.40289e-05
9.75719e-07
1.40061e-05
9.9459e-07
1.39819e-05
1.01402e-06
1.39562e-05
1.03358e-06
1.3929e-05
1.05284e-06
1.39004e-05
1.07133e-06
1.38704e-05
1.0886e-06
1.38392e-05
1.10418e-06
1.38069e-05
1.11762e-06
1.37739e-05
1.12851e-06
1.13645e-06
1.37404e-05
1.47871e-05
7.81031e-08
1.47916e-05
1.20873e-07
1.47952e-05
1.61686e-07
1.47982e-05
2.01212e-07
1.48004e-05
2.4023e-07
1.48019e-05
2.79271e-07
1.48022e-05
3.18742e-07
1.4801e-05
3.59036e-07
1.47976e-05
4.00401e-07
1.47916e-05
4.42893e-07
1.47824e-05
4.86358e-07
1.47695e-05
5.30436e-07
1.47526e-05
5.74576e-07
1.47314e-05
6.18073e-07
1.4706e-05
6.60156e-07
1.46766e-05
7.00077e-07
1.46437e-05
7.37045e-07
1.46079e-05
7.70399e-07
1.45698e-05
7.99637e-07
1.45303e-05
8.24462e-07
1.44903e-05
8.44796e-07
1.44505e-05
8.60764e-07
1.44117e-05
8.72684e-07
1.43745e-05
8.81037e-07
1.43396e-05
8.8643e-07
1.43071e-05
8.89566e-07
1.42774e-05
8.91205e-07
1.42504e-05
8.92113e-07
1.42261e-05
8.93027e-07
1.42042e-05
8.94662e-07
1.41843e-05
8.97605e-07
1.4166e-05
9.02197e-07
1.41489e-05
9.08822e-07
1.41324e-05
9.17746e-07
1.41161e-05
9.29083e-07
1.40993e-05
9.42802e-07
1.40817e-05
9.58734e-07
1.40629e-05
9.76617e-07
1.40425e-05
9.96102e-07
1.40203e-05
1.01678e-06
1.39962e-05
1.03818e-06
1.39699e-05
1.05981e-06
1.39416e-05
1.08115e-06
1.39113e-05
1.10169e-06
1.3879e-05
1.12089e-06
1.38449e-05
1.13825e-06
1.38093e-05
1.15326e-06
1.37723e-05
1.16543e-06
1.17431e-06
1.37345e-05
1.48351e-05
7.50887e-08
1.48373e-05
1.18625e-07
1.48394e-05
1.59607e-07
1.48415e-05
1.99069e-07
1.48436e-05
2.38104e-07
1.48456e-05
2.7736e-07
1.48468e-05
3.1748e-07
1.48468e-05
3.59049e-07
1.48448e-05
4.02453e-07
1.48398e-05
4.47815e-07
1.48312e-05
4.9496e-07
1.48182e-05
5.43424e-07
1.48003e-05
5.92477e-07
1.47772e-05
6.41171e-07
1.4749e-05
6.88433e-07
1.47158e-05
7.33244e-07
1.46783e-05
7.74568e-07
1.46372e-05
8.1147e-07
1.45936e-05
8.43283e-07
1.45484e-05
8.6961e-07
1.45029e-05
8.9035e-07
1.4458e-05
9.05675e-07
1.44146e-05
9.16004e-07
1.43737e-05
9.21964e-07
1.43358e-05
9.24334e-07
1.43013e-05
9.24019e-07
1.42706e-05
9.21992e-07
1.42435e-05
9.19204e-07
1.42199e-05
9.16563e-07
1.41996e-05
9.15016e-07
1.41818e-05
9.15354e-07
1.41661e-05
9.17919e-07
1.41518e-05
9.23129e-07
1.41382e-05
9.31298e-07
1.41248e-05
9.42563e-07
1.41107e-05
9.56862e-07
1.40955e-05
9.73958e-07
1.40786e-05
9.93505e-07
1.40596e-05
1.01506e-06
1.40383e-05
1.03812e-06
1.40143e-05
1.06212e-06
1.39877e-05
1.08647e-06
1.39583e-05
1.11057e-06
1.39261e-05
1.13381e-06
1.38914e-05
1.15561e-06
1.38543e-05
1.17539e-06
1.3815e-05
1.19257e-06
1.37738e-05
1.20661e-06
1.21696e-06
1.37311e-05
1.4885e-05
7.54877e-08
1.48845e-05
1.1911e-07
1.48847e-05
1.59375e-07
1.4886e-05
1.97794e-07
1.48882e-05
2.35859e-07
1.48912e-05
2.74438e-07
1.48941e-05
3.14502e-07
1.48963e-05
3.56904e-07
1.48965e-05
4.02232e-07
1.48936e-05
4.50703e-07
1.48865e-05
5.0212e-07
1.4874e-05
5.55876e-07
1.48555e-05
6.10989e-07
1.48305e-05
6.66179e-07
1.4799e-05
7.19966e-07
1.47613e-05
7.70919e-07
1.47182e-05
8.1769e-07
1.46707e-05
8.58948e-07
1.46202e-05
8.93813e-07
1.4568e-05
9.21774e-07
1.45156e-05
9.42715e-07
1.44644e-05
9.56887e-07
1.44156e-05
9.64856e-07
1.43701e-05
9.67461e-07
1.43287e-05
9.65714e-07
1.4292e-05
9.60744e-07
1.42601e-05
9.53843e-07
1.4233e-05
9.46303e-07
1.42105e-05
9.39041e-07
1.41924e-05
9.33129e-07
1.41777e-05
9.30093e-07
1.41653e-05
9.30319e-07
1.41546e-05
9.33815e-07
1.41448e-05
9.41081e-07
1.4135e-05
9.52344e-07
1.41244e-05
9.67483e-07
1.41122e-05
9.86161e-07
1.40978e-05
1.00792e-06
1.40807e-05
1.03219e-06
1.40605e-05
1.05833e-06
1.40369e-05
1.08566e-06
1.40099e-05
1.11349e-06
1.39794e-05
1.1411e-06
1.39454e-05
1.16781e-06
1.3908e-05
1.19295e-06
1.38675e-05
1.21587e-06
1.38242e-05
1.23594e-06
1.37783e-05