/*--------------------------------*- C++ -*----------------------------------*\
| =========                 |                                                 |
| \\      /  F ield         | OpenFOAM: The Open Source CFD Toolbox           |
|  \\    /   O peration     | Version:  2206                                  |
|   \\  /    A nd           | Website:  www.openfoam.com                      |
|    \\/     M anipulation  |                                                 |
\*---------------------------------------------------------------------------*/
FoamFile
{
    version     2.0;
    format      ascii;
    arch        "LSB;label=32;scalar=64";
    class       volVectorField;
    location    "19.5999";
    object      U_0;
}
// * * * * * * * * * * * * * * * * * * * * * * * * * * * * * * * * * * * * * //

dimensions      [0 1 -1 0 0 0 0];

internalField   nonuniform List<vector> 
1865
(
(0.450247 -0.0238388 0)
(0.504702 -0.0247463 0)
(0.560589 -0.0264302 0)
(0.618076 -0.0290882 0)
(0.679694 -0.0331467 0)
(0.745385 -0.039529 0)
(0.829481 -0.0521215 0)
(0.902539 -0.0656285 0)
(1.46319 -0.0905785 0)
(1.51136 -0.0906971 0)
(1.56071 -0.0922991 0)
(1.61197 -0.0959718 0)
(1.6661 -0.102486 0)
(1.72374 -0.113361 0)
(1.78584 -0.130588 0)
(1.84739 -0.157834 0)
(2.31439 -0.120035 0)
(2.33424 -0.122183 0)
(2.35579 -0.126122 0)
(2.37912 -0.132515 0)
(2.40423 -0.142119 0)
(2.43075 -0.155941 0)
(2.45761 -0.175269 0)
(2.48214 -0.200462 0)
(2.68486 -0.128961 0)
(2.68811 -0.132478 0)
(2.69257 -0.137823 0)
(2.69801 -0.145508 0)
(2.70404 -0.156061 0)
(2.70999 -0.169951 0)
(2.71454 -0.187447 0)
(2.71609 -0.208225 0)
(2.78992 -0.125248 0)
(2.78618 -0.130043 0)
(2.78316 -0.136417 0)
(2.7806 -0.144751 0)
(2.77812 -0.155383 0)
(2.77509 -0.168491 0)
(2.77111 -0.183994 0)
(2.76541 -0.201421 0)
(2.80954 -0.12048 0)
(2.80283 -0.125901 0)
(2.79663 -0.132724 0)
(2.79071 -0.141196 0)
(2.7849 -0.15152 0)
(2.77839 -0.163807 0)
(2.77108 -0.177949 0)
(2.76249 -0.193493 0)
(2.79204 -0.110989 0)
(2.78298 -0.116862 0)
(2.77396 -0.123955 0)
(2.76474 -0.132494 0)
(2.75512 -0.142605 0)
(2.7448 -0.154313 0)
(2.73351 -0.167514 0)
(2.72094 -0.181787 0)
(2.73216 -0.102021 0)
(2.71675 -0.107588 0)
(2.70055 -0.114185 0)
(2.6833 -0.121992 0)
(2.66475 -0.131132 0)
(2.64462 -0.141628 0)
(2.62265 -0.153343 0)
(2.59859 -0.165909 0)
(2.4639 -0.0783642 0)
(2.43159 -0.0826425 0)
(2.39715 -0.0876321 0)
(2.36013 -0.0934838 0)
(2.32011 -0.100311 0)
(2.27663 -0.108146 0)
(2.22929 -0.116907 0)
(2.17764 -0.126336 0)
(1.43267 -0.0390533 0)
(1.37391 -0.0408024 0)
(1.31213 -0.0428557 0)
(1.24664 -0.0453038 0)
(1.17677 -0.0482261 0)
(1.10183 -0.0516292 0)
(1.02115 -0.0554261 0)
(0.934193 -0.0593667 0)
(1.02744 -0.141673 0)
(1.07627 -0.189411 0)
(1.11374 -0.238179 0)
(1.13487 -0.271506 0)
(1.13858 -0.281787 0)
(1.13502 -0.27338 0)
(1.13182 -0.242387 0)
(1.14247 -0.191832 0)
(1.17968 -0.12567 0)
(1.254 -0.0522994 0)
(1.37359 0.0134537 0)
(1.53673 0.0556988 0)
(1.73398 0.0650373 0)
(1.9536 0.03761 0)
(2.18927 -0.0342058 0)
(2.43606 -0.160839 0)
(2.66221 -0.325699 0)
(2.83352 -0.487958 0)
(2.94236 -0.616932 0)
(2.99484 -0.703621 0)
(3.00585 -0.759216 0)
(2.98179 -0.792492 0)
(2.92739 -0.79651 0)
(2.84754 -0.773128 0)
(2.74701 -0.729739 0)
(2.63242 -0.672469 0)
(2.50967 -0.605181 0)
(2.38375 -0.532531 0)
(2.25994 -0.460518 0)
(2.14297 -0.39095 0)
(2.03931 -0.32315 0)
(1.95164 -0.260436 0)
(1.86913 -0.214016 0)
(1.77379 -0.200587 0)
(1.6525 -0.223082 0)
(1.50947 -0.263302 0)
(1.37082 -0.292105 0)
(1.25842 -0.289292 0)
(1.18929 -0.245904 0)
(1.16802 -0.170921 0)
(1.18242 -0.0744518 0)
(1.23893 0.033532 0)
(1.31423 0.142735 0)
(1.39779 0.243913 0)
(1.48356 0.330404 0)
(1.56928 0.399801 0)
(1.65372 0.45206 0)
(1.73709 0.487 0)
(1.82142 0.503913 0)
(1.90863 0.501492 0)
(2.00158 0.477831 0)
(2.10288 0.430274 0)
(2.21467 0.355965 0)
(2.33847 0.252835 0)
(2.474 0.121481 0)
(2.60559 -0.0187964 0)
(2.71594 -0.148081 0)
(2.79246 -0.251961 0)
(2.83231 -0.325837 0)
(2.84243 -0.373465 0)
(2.83359 -0.395714 0)
(2.78207 -0.395314 0)
(2.70173 -0.36814 0)
(2.59747 -0.320123 0)
(2.4776 -0.260673 0)
(2.354 -0.20133 0)
(2.23408 -0.151855 0)
(2.12118 -0.119194 0)
(2.01752 -0.107305 0)
(1.92449 -0.115448 0)
(1.84261 -0.137805 0)
(1.77112 -0.165361 0)
(1.709 -0.189286 0)
(1.65552 -0.202645 0)
(1.60999 -0.200264 0)
(1.57314 -0.178941 0)
(1.54644 -0.139949 0)
(1.5301 -0.0869691 0)
(1.52508 -0.0248524 0)
(1.53185 0.04138 0)
(1.5499 0.106797 0)
(1.57797 0.167251 0)
(1.61467 0.21985 0)
(1.6585 0.262436 0)
(1.70793 0.293627 0)
(1.76148 0.312712 0)
(1.81761 0.319552 0)
(1.87503 0.314541 0)
(1.93303 0.298426 0)
(1.99128 0.272081 0)
(2.04997 0.236121 0)
(2.10953 0.190663 0)
(2.16977 0.13606 0)
(2.22816 0.0753809 0)
(2.28054 0.0129441 0)
(2.32219 -0.0463112 0)
(2.35078 -0.0983055 0)
(2.36562 -0.140988 0)
(2.36365 -0.174808 0)
(2.33991 -0.194347 0)
(2.29543 -0.197842 0)
(2.23381 -0.187466 0)
(2.16102 -0.170251 0)
(2.08483 -0.152918 0)
(2.0118 -0.14012 0)
(1.94521 -0.133647 0)
(1.88682 -0.132889 0)
(1.83688 -0.135647 0)
(1.79476 -0.138968 0)
(1.7594 -0.139837 0)
(1.72975 -0.135675 0)
(1.70518 -0.124525 0)
(1.68603 -0.105659 0)
(1.67244 -0.0792919 0)
(1.66459 -0.0463201 0)
(1.66284 -0.00837917 0)
(1.66738 0.0323907 0)
(1.67811 0.0734067 0)
(1.69443 0.111999 0)
(1.90793 -0.207242 0)
(1.94509 -0.249747 0)
(1.96691 -0.279196 0)
(1.98015 -0.29268 0)
(1.99004 -0.29081 0)
(1.99862 -0.275012 0)
(2.01041 -0.243092 0)
(2.03247 -0.201362 0)
(2.07084 -0.15563 0)
(2.13073 -0.113454 0)
(2.21732 -0.0854279 0)
(2.32969 -0.0802793 0)
(2.46288 -0.100467 0)
(2.60958 -0.148393 0)
(2.76518 -0.226924 0)
(2.90625 -0.332536 0)
(3.01541 -0.456215 0)
(3.08708 -0.572449 0)
(3.12277 -0.656383 0)
(3.13022 -0.707411 0)
(3.11584 -0.735777 0)
(3.07377 -0.738143 0)
(3.00061 -0.713119 0)
(2.90296 -0.667731 0)
(2.78547 -0.609098 0)
(2.65444 -0.54214 0)
(2.51612 -0.47087 0)
(2.37822 -0.400116 0)
(2.24572 -0.333456 0)
(2.12265 -0.273471 0)
(2.01401 -0.221627 0)
(1.92618 -0.179183 0)
(1.86027 -0.147756 0)
(1.80784 -0.130422 0)
(1.75571 -0.130246 0)
(1.69286 -0.142612 0)
(1.61114 -0.159167 0)
(1.51628 -0.16928 0)
(1.42341 -0.163835 0)
(1.34953 -0.138262 0)
(1.3071 -0.0878834 0)
(1.30233 -0.0147204 0)
(1.32379 0.0724673 0)
(1.37654 0.161622 0)
(1.45025 0.242665 0)
(1.53096 0.310202 0)
(1.61774 0.361573 0)
(1.70966 0.395125 0)
(1.80671 0.409115 0)
(1.91032 0.401759 0)
(2.0227 0.370711 0)
(2.14633 0.312896 0)
(2.28344 0.225346 0)
(2.43277 0.108813 0)
(2.57683 -0.0215611 0)
(2.69587 -0.141896 0)
(2.78259 -0.236319 0)
(2.83295 -0.301804 0)
(2.84461 -0.344442 0)
(2.83117 -0.361839 0)
(2.78244 -0.352572 0)
(2.69331 -0.313434 0)
(2.57234 -0.256362 0)
(2.44101 -0.191682 0)
(2.30929 -0.128486 0)
(2.18504 -0.0737842 0)
(2.0725 -0.0333988 0)
(1.97297 -0.0119627 0)
(1.88617 -0.0120719 0)
(1.81127 -0.0319084 0)
(1.74633 -0.0645242 0)
(1.68834 -0.100675 0)
(1.63498 -0.132127 0)
(1.58543 -0.152537 0)
(1.53979 -0.157408 0)
(1.49976 -0.144509 0)
(1.46858 -0.115158 0)
(1.44806 -0.0731293 0)
(1.43946 -0.0231282 0)
(1.44309 0.0307889 0)
(1.45855 0.0849216 0)
(1.4848 0.135388 0)
(1.52072 0.179213 0)
(1.56501 0.214425 0)
(1.616 0.239739 0)
(1.67205 0.254547 0)
(1.73182 0.25864 0)
(1.79456 0.25203 0)
(1.85995 0.234892 0)
(1.92799 0.207235 0)
(1.99825 0.169453 0)
(2.06869 0.122827 0)
(2.13486 0.0702833 0)
(2.19172 0.0160273 0)
(2.23481 -0.0345829 0)
(2.26215 -0.0791077 0)
(2.2717 -0.115397 0)
(2.2603 -0.139885 0)
(2.22652 -0.14928 0)
(2.17344 -0.144826 0)
(2.10692 -0.129552 0)
(2.03505 -0.109723 0)
(1.96584 -0.0916459 0)
(1.90236 -0.0792094 0)
(1.84603 -0.0741202 0)
(1.79696 -0.0761977 0)
(1.75433 -0.08362 0)
(1.71682 -0.0935302 0)
(1.68314 -0.102724 0)
(1.65236 -0.108365 0)
(1.62416 -0.108411 0)
(1.59887 -0.101681 0)
(1.57744 -0.0877619 0)
(1.56097 -0.0669607 0)
(1.55019 -0.0400641 0)
(1.54573 -0.00854783 0)
(1.54794 0.0256047 0)
(1.55689 0.0601697 0)
(1.57225 0.0929743 0)
(2.50107 -0.233967 0)
(2.50735 -0.263482 0)
(2.50333 -0.285309 0)
(2.49518 -0.292457 0)
(2.48663 -0.289909 0)
(2.48056 -0.278374 0)
(2.48098 -0.257367 0)
(2.49326 -0.231303 0)
(2.52037 -0.205314 0)
(2.56415 -0.184619 0)
(2.62683 -0.175136 0)
(2.69535 -0.182678 0)
(2.77221 -0.21173 0)
(2.86206 -0.264799 0)
(2.94807 -0.338379 0)
(3.0255 -0.427358 0)
(3.09029 -0.522881 0)
(3.13663 -0.606244 0)
(3.1555 -0.664537 0)
(3.15633 -0.693908 0)
(3.13595 -0.698909 0)
(3.08364 -0.671578 0)
(3.00254 -0.619504 0)
(2.89343 -0.551799 0)
(2.76186 -0.476152 0)
(2.61512 -0.398417 0)
(2.46196 -0.323717 0)
(2.31285 -0.256962 0)
(2.17413 -0.200104 0)
(2.05051 -0.154414 0)
(1.94528 -0.120845 0)
(1.8608 -0.099474 0)
(1.7979 -0.0894562 0)
(1.75401 -0.0898319 0)
(1.72376 -0.0984441 0)
(1.7011 -0.109244 0)
(1.67977 -0.114387 0)
(1.65781 -0.110038 0)
(1.63877 -0.0934178 0)
(1.61352 -0.066333 0)
(1.58126 -0.0310625 0)
(1.55348 0.0126302 0)
(1.54015 0.0643001 0)
(1.54853 0.120602 0)
(1.57901 0.178073 0)
(1.63034 0.230452 0)
(1.70022 0.270405 0)
(1.7861 0.293193 0)
(1.88617 0.295763 0)
(1.99865 0.27564 0)
(2.12243 0.229707 0)
(2.2558 0.155493 0)
(2.39715 0.0557461 0)
(2.53202 -0.0523375 0)
(2.64276 -0.151436 0)
(2.71492 -0.233392 0)
(2.74295 -0.292352 0)
(2.7433 -0.319428 0)
(2.69971 -0.323411 0)
(2.61323 -0.300271 0)
(2.50117 -0.251251 0)
(2.37495 -0.18523 0)
(2.24752 -0.116034 0)
(2.12643 -0.0530771 0)
(2.01669 -0.000327969 0)
(1.9223 0.039376 0)
(1.84443 0.0636828 0)
(1.78096 0.0700974 0)
(1.72981 0.0566781 0)
(1.69018 0.0259064 0)
(1.65719 -0.0135563 0)
(1.62447 -0.0524979 0)
(1.58833 -0.0847376 0)
(1.54777 -0.10609 0)
(1.50379 -0.113704 0)
(1.45982 -0.107171 0)
(1.42099 -0.0878032 0)
(1.3921 -0.0576284 0)
(1.37675 -0.019726 0)
(1.37319 0.02169 0)
(1.3844 0.0635594 0)
(1.40822 0.103012 0)
(1.44301 0.137015 0)
(1.48757 0.16405 0)
(1.54028 0.18327 0)
(1.5995 0.193718 0)
(1.66431 0.194123 0)
(1.73442 0.183418 0)
(1.80913 0.161644 0)
(1.88632 0.130331 0)
(1.96036 0.0921877 0)
(2.02447 0.0509962 0)
(2.07425 0.00999838 0)
(2.10625 -0.0271568 0)
(2.11901 -0.0584661 0)
(2.10996 -0.0833199 0)
(2.0795 -0.0946225 0)
(2.03226 -0.0956074 0)
(1.97455 -0.0868726 0)
(1.91351 -0.0726441 0)
(1.85591 -0.0571479 0)
(1.80501 -0.0435397 0)
(1.76207 -0.0341936 0)
(1.72632 -0.0305235 0)
(1.69604 -0.032926 0)
(1.66943 -0.0406575 0)
(1.6446 -0.051748 0)
(1.61958 -0.0635497 0)
(1.5932 -0.0736143 0)
(1.56563 -0.0799442 0)
(1.53777 -0.0812197 0)
(1.51095 -0.0768327 0)
(1.48674 -0.066707 0)
(1.46671 -0.0510097 0)
(1.45235 -0.0302935 0)
(1.44474 -0.00570978 0)
(1.44438 0.0211942 0)
(1.45145 0.0485825 0)
(1.46581 0.0746446 0)
(2.71246 -0.231273 0)
(2.70216 -0.253091 0)
(2.68663 -0.269098 0)
(2.66911 -0.277416 0)
(2.65398 -0.277305 0)
(2.64311 -0.269605 0)
(2.63832 -0.256429 0)
(2.64263 -0.241027 0)
(2.65642 -0.22713 0)
(2.67932 -0.219727 0)
(2.71639 -0.222783 0)
(2.76347 -0.239881 0)
(2.81799 -0.275997 0)
(2.87592 -0.33077 0)
(2.93297 -0.399613 0)
(2.987 -0.481049 0)
(3.03691 -0.568871 0)
(3.07692 -0.64035 0)
(3.09896 -0.677518 0)
(3.10172 -0.685378 0)
(3.07863 -0.663315 0)
(3.0267 -0.604361 0)
(2.93324 -0.519329 0)
(2.8066 -0.423084 0)
(2.65573 -0.326638 0)
(2.49038 -0.237993 0)
(2.3259 -0.164732 0)
(2.17103 -0.108166 0)
(2.03198 -0.0673342 0)
(1.91293 -0.041148 0)
(1.81628 -0.0287825 0)
(1.74237 -0.0286468 0)
(1.68986 -0.0382752 0)
(1.65607 -0.0555872 0)
(1.63854 -0.0771168 0)
(1.63386 -0.0966637 0)
(1.63744 -0.109628 0)
(1.64569 -0.113711 0)
(1.65938 -0.103413 0)
(1.67889 -0.075453 0)
(1.70229 -0.032475 0)
(1.72836 0.0167507 0)
(1.75649 0.0648128 0)
(1.78492 0.109114 0)
(1.81851 0.14766 0)
(1.86226 0.177808 0)
(1.91734 0.196569 0)
(1.98559 0.201823 0)
(2.06699 0.191817 0)
(2.16004 0.164038 0)
(2.26029 0.114646 0)
(2.35975 0.0424901 0)
(2.43291 -0.0484276 0)
(2.47418 -0.136646 0)
(2.49199 -0.201085 0)
(2.46696 -0.239806 0)
(2.405 -0.25284 0)
(2.32063 -0.2452 0)
(2.22616 -0.214011 0)
(2.12618 -0.166894 0)
(2.02232 -0.111181 0)
(1.92189 -0.0533892 0)
(1.8308 0.000648299 0)
(1.75307 0.0462699 0)
(1.69087 0.0812798 0)
(1.64495 0.103624 0)
(1.61274 0.111333 0)
(1.59134 0.105758 0)
(1.5815 0.0804065 0)
(1.58077 0.0429156 0)
(1.58141 0.00428892 0)
(1.57618 -0.0283343 0)
(1.56033 -0.0524017 0)
(1.53385 -0.0649991 0)
(1.49902 -0.065603 0)
(1.45838 -0.0575126 0)
(1.41791 -0.0442295 0)
(1.38392 -0.0262529 0)
(1.36034 -0.00343732 0)
(1.3515 0.0232734 0)
(1.35422 0.0503707 0)
(1.37454 0.0764347 0)
(1.40784 0.0990829 0)
(1.45308 0.116127 0)
(1.50842 0.126306 0)
(1.57137 0.128125 0)
(1.63959 0.119925 0)
(1.70935 0.102353 0)
(1.77481 0.0786732 0)
(1.82961 0.0510742 0)
(1.87247 0.0266691 0)
(1.8988 0.00544919 0)
(1.908 -0.0135337 0)
(1.8987 -0.0287446 0)
(1.87315 -0.0374394 0)
(1.83589 -0.0401625 0)
(1.79201 -0.0382648 0)
(1.74718 -0.033775 0)
(1.70572 -0.0280639 0)
(1.67015 -0.0222147 0)
(1.64181 -0.0169385 0)
(1.62048 -0.0128155 0)
(1.60496 -0.0107271 0)
(1.59334 -0.011113 0)
(1.58341 -0.0151447 0)
(1.57305 -0.0230808 0)
(1.55981 -0.0319222 0)
(1.54249 -0.0403232 0)
(1.52105 -0.0471474 0)
(1.49635 -0.051467 0)
(1.46989 -0.0524744 0)
(1.44368 -0.0496444 0)
(1.41955 -0.0428425 0)
(1.39918 -0.032178 0)
(1.38404 -0.0178235 0)
(1.37532 -0.000342954 0)
(1.37384 0.018963 0)
(1.37989 0.038544 0)
(1.39343 0.0569431 0)
(2.75717 -0.21987 0)
(2.74578 -0.237042 0)
(2.73019 -0.250929 0)
(2.71361 -0.259117 0)
(2.69838 -0.261394 0)
(2.68654 -0.258842 0)
(2.67969 -0.253251 0)
(2.67858 -0.246879 0)
(2.68485 -0.242645 0)
(2.69895 -0.244701 0)
(2.71968 -0.256965 0)
(2.74609 -0.282478 0)
(2.77721 -0.323689 0)
(2.81045 -0.380383 0)
(2.8439 -0.450047 0)
(2.8777 -0.532699 0)
(2.90825 -0.616119 0)
(2.93057 -0.672445 0)
(2.93977 -0.687418 0)
(2.93216 -0.678664 0)
(2.89625 -0.621465 0)
(2.82218 -0.521622 0)
(2.70948 -0.398188 0)
(2.56454 -0.271885 0)
(2.39783 -0.156599 0)
(2.22565 -0.0639826 0)
(2.05987 0.00249043 0)
(1.91005 0.0445835 0)
(1.78301 0.065066 0)
(1.68225 0.067045 0)
(1.60617 0.0540859 0)
(1.55174 0.030315 0)
(1.51561 0.000207374 0)
(1.49577 -0.0350449 0)
(1.49286 -0.0731174 0)
(1.50532 -0.107585 0)
(1.52713 -0.130839 0)
(1.55256 -0.140459 0)
(1.57835 -0.135039 0)
(1.60623 -0.114167 0)
(1.63807 -0.0808357 0)
(1.67486 -0.0381138 0)
(1.71561 0.010918 0)
(1.7576 0.0600342 0)
(1.80027 0.102595 0)
(1.84488 0.1328 0)
(1.89282 0.146789 0)
(1.94386 0.141893 0)
(1.9962 0.117162 0)
(2.04528 0.0760581 0)
(2.08226 0.0268453 0)
(2.09311 -0.020237 0)
(2.06058 -0.0632038 0)
(1.99133 -0.102369 0)
(1.91852 -0.13335 0)
(1.85747 -0.151118 0)
(1.80421 -0.154358 0)
(1.75437 -0.147897 0)
(1.70537 -0.124317 0)
(1.65178 -0.0857647 0)
(1.5909 -0.0366909 0)
(1.52917 0.0149831 0)
(1.47521 0.0603802 0)
(1.4337 0.0944213 0)
(1.40661 0.114584 0)
(1.39318 0.121672 0)
(1.39065 0.121289 0)
(1.40205 0.104322 0)
(1.42762 0.0685254 0)
(1.45735 0.026885 0)
(1.48096 -0.00779924 0)
(1.49472 -0.0308542 0)
(1.49801 -0.0428602 0)
(1.49143 -0.0468955 0)
(1.4776 -0.0412544 0)
(1.45761 -0.0291548 0)
(1.43143 -0.0145546 0)
(1.40348 -5.44371e-05 0)
(1.38025 0.0135992 0)
(1.36719 0.0264121 0)
(1.36489 0.0379908 0)
(1.37372 0.0478175 0)
(1.39418 0.0543603 0)
(1.42397 0.0581122 0)
(1.46025 0.0589219 0)
(1.50175 0.0566474 0)
(1.54319 0.0520075 0)
(1.57744 0.0459846 0)
(1.60233 0.0390027 0)
(1.61641 0.0312859 0)
(1.62043 0.0234078 0)
(1.61474 0.0161124 0)
(1.60167 0.0104842 0)
(1.58341 0.00636955 0)
(1.56223 0.00261413 0)
(1.54068 -0.000999473 0)
(1.52073 -0.00397461 0)
(1.5038 -0.00613692 0)
(1.49047 -0.0071751 0)
(1.48093 -0.00721334 0)
(1.47508 -0.0067744 0)
(1.47217 -0.00641225 0)
(1.47134 -0.00690866 0)
(1.47142 -0.00939055 0)
(1.47071 -0.0130417 0)
(1.46704 -0.0172271 0)
(1.45906 -0.0212935 0)
(1.44649 -0.0247211 0)
(1.42974 -0.027132 0)
(1.40977 -0.0282388 0)
(1.38797 -0.0278008 0)
(1.3662 -0.025573 0)
(1.346 -0.021288 0)
(1.3288 -0.014807 0)
(1.31573 -0.00626328 0)
(1.30771 0.00413736 0)
(1.30567 0.0158866 0)
(1.31005 0.0277476 0)
(1.3206 0.0387781 0)
(2.7521 -0.20956 0)
(2.73975 -0.224536 0)
(2.72591 -0.236825 0)
(2.71136 -0.24545 0)
(2.69771 -0.249962 0)
(2.68634 -0.251026 0)
(2.67839 -0.249597 0)
(2.67371 -0.247593 0)
(2.67138 -0.248071 0)
(2.67084 -0.254731 0)
(2.67183 -0.271025 0)
(2.67402 -0.299713 0)
(2.67672 -0.342298 0)
(2.67766 -0.398871 0)
(2.67481 -0.469246 0)
(2.6686 -0.547296 0)
(2.65022 -0.630213 0)
(2.61997 -0.68243 0)
(2.57386 -0.684715 0)
(2.51503 -0.654641 0)
(2.4372 -0.56226 0)
(2.33497 -0.424837 0)
(2.20678 -0.267189 0)
(2.05783 -0.114259 0)
(1.89708 0.012031 0)
(1.74185 0.100353 0)
(1.60877 0.151448 0)
(1.50095 0.170986 0)
(1.41564 0.165018 0)
(1.35365 0.142492 0)
(1.3118 0.110071 0)
(1.28592 0.0689561 0)
(1.27354 0.0202268 0)
(1.27128 -0.0357719 0)
(1.27304 -0.0900914 0)
(1.27113 -0.130339 0)
(1.26492 -0.152589 0)
(1.25515 -0.158179 0)
(1.24743 -0.1542 0)
(1.245 -0.134514 0)
(1.25125 -0.103906 0)
(1.26652 -0.0666778 0)
(1.29224 -0.0262441 0)
(1.32861 0.0138373 0)
(1.36795 0.0495972 0)
(1.40196 0.0770207 0)
(1.42454 0.0934551 0)
(1.43249 0.0993189 0)
(1.4216 0.0975057 0)
(1.38797 0.0877824 0)
(1.33924 0.0756449 0)
(1.29199 0.0655408 0)
(1.25731 0.0363238 0)
(1.2441 -0.0238078 0)
(1.24772 -0.0883238 0)
(1.25546 -0.130941 0)
(1.25972 -0.146596 0)
(1.2604 -0.142167 0)
(1.24855 -0.107026 0)
(1.21959 -0.0485914 0)
(1.18153 0.0125728 0)
(1.14756 0.0615549 0)
(1.1232 0.09535 0)
(1.11056 0.113869 0)
(1.10895 0.120443 0)
(1.1198 0.119498 0)
(1.14423 0.101388 0)
(1.18053 0.0641924 0)
(1.21768 0.0226979 0)
(1.24558 -0.0112093 0)
(1.26261 -0.0340712 0)
(1.26993 -0.0452923 0)
(1.27041 -0.0476858 0)
(1.26458 -0.0437459 0)
(1.25353 -0.0280432 0)
(1.23916 -0.00807498 0)
(1.22517 0.00919734 0)
(1.21342 0.0218267 0)
(1.20439 0.0303423 0)
(1.19833 0.036393 0)
(1.19562 0.0411542 0)
(1.1968 0.045087 0)
(1.20138 0.0477329 0)
(1.20852 0.0491397 0)
(1.21782 0.0488914 0)
(1.22874 0.047089 0)
(1.24061 0.0443774 0)
(1.25289 0.0410123 0)
(1.26425 0.0366488 0)
(1.27325 0.0313516 0)
(1.27931 0.0263651 0)
(1.28234 0.0217181 0)
(1.2821 0.0169032 0)
(1.27902 0.0123969 0)
(1.27415 0.00827096 0)
(1.26837 0.00439606 0)
(1.26241 0.000960402 0)
(1.25699 -0.00192065 0)
(1.25259 -0.00414705 0)
(1.24949 -0.00579475 0)
(1.24761 -0.00703629 0)
(1.2466 -0.00800117 0)
(1.24587 -0.00879881 0)
(1.24455 -0.00942214 0)
(1.24175 -0.00991259 0)
(1.23692 -0.010245 0)
(1.2299 -0.010268 0)
(1.2209 -0.0100246 0)
(1.21039 -0.00967791 0)
(1.19898 -0.00927108 0)
(1.18728 -0.0086741 0)
(1.17595 -0.00753941 0)
(1.16562 -0.00539307 0)
(1.15689 -0.00186704 0)
(1.15048 0.00300024 0)
(1.14699 0.00904112 0)
(1.14692 0.0158214 0)
(1.15038 0.0227442 0)
(1.15717 0.0293433 0)
(2.70683 -0.196341 0)
(2.69113 -0.209992 0)
(2.67418 -0.221625 0)
(2.65644 -0.23041 0)
(2.63844 -0.235935 0)
(2.62034 -0.238427 0)
(2.60201 -0.238694 0)
(2.58304 -0.237931 0)
(2.563 -0.2383 0)
(2.54033 -0.243548 0)
(2.5132 -0.258439 0)
(2.48004 -0.285154 0)
(2.43819 -0.323792 0)
(2.38317 -0.371399 0)
(2.31023 -0.435159 0)
(2.20401 -0.503878 0)
(2.05538 -0.545677 0)
(1.88489 -0.576052 0)
(1.73195 -0.57762 0)
(1.60055 -0.536504 0)
(1.49176 -0.439099 0)
(1.39532 -0.290328 0)
(1.29072 -0.114604 0)
(1.18559 0.0431178 0)
(1.10093 0.160885 0)
(1.03914 0.228849 0)
(0.996786 0.246907 0)
(0.970885 0.243617 0)
(0.955239 0.215965 0)
(0.952767 0.169885 0)
(0.956492 0.11728 0)
(0.956259 0.0650503 0)
(0.944321 0.0168865 0)
(0.915407 -0.0245847 0)
(0.869328 -0.0611559 0)
(0.818831 -0.090909 0)
(0.773201 -0.111327 0)
(0.735001 -0.121481 0)
(0.704486 -0.121665 0)
(0.681438 -0.112388 0)
(0.666864 -0.0941251 0)
(0.660793 -0.0689599 0)
(0.660213 -0.0381593 0)
(0.663495 -0.000741877 0)
(0.672392 0.0409809 0)
(0.683608 0.0798878 0)
(0.692656 0.110657 0)
(0.698003 0.130098 0)
(0.701144 0.137003 0)
(0.704854 0.131528 0)
(0.712099 0.102244 0)
(0.727186 0.053639 0)
(0.748594 -0.00998292 0)
(0.767282 -0.0748687 0)
(0.775998 -0.125982 0)
(0.776301 -0.153201 0)
(0.77024 -0.156878 0)
(0.760492 -0.13482 0)
(0.74681 -0.0812557 0)
(0.731472 -0.0189231 0)
(0.721581 0.03481 0)
(0.720019 0.0746713 0)
(0.7249 0.0997501 0)
(0.736224 0.110389 0)
(0.752832 0.107681 0)
(0.77382 0.089936 0)
(0.797116 0.0617786 0)
(0.816301 0.0311421 0)
(0.827328 0.00344352 0)
(0.830237 -0.0185976 0)
(0.827569 -0.0332121 0)
(0.822456 -0.0401894 0)
(0.815554 -0.0393114 0)
(0.808161 -0.0305747 0)
(0.801149 -0.0162783 0)
(0.796327 -0.000241724 0)
(0.794431 0.0141427 0)
(0.794117 0.0255512 0)
(0.794685 0.033843 0)
(0.796324 0.0395901 0)
(0.799776 0.0429908 0)
(0.805547 0.0443202 0)
(0.813772 0.0440971 0)
(0.824353 0.0412907 0)
(0.836767 0.0367152 0)
(0.850079 0.0315318 0)
(0.862927 0.026478 0)
(0.874831 0.022334 0)
(0.885018 0.019772 0)
(0.892671 0.0180905 0)
(0.897711 0.0170672 0)
(0.900574 0.0168581 0)
(0.901561 0.0164345 0)
(0.901258 0.0154392 0)
(0.900139 0.0134936 0)
(0.898554 0.0106602 0)
(0.896701 0.00717075 0)
(0.894915 0.00345172 0)
(0.893492 2.4431e-05 0)
(0.892441 -0.00278231 0)
(0.891717 -0.00473685 0)
(0.891185 -0.00587248 0)
(0.890627 -0.00648539 0)
(0.889763 -0.00673676 0)
(0.888412 -0.00663055 0)
(0.886459 -0.00625306 0)
(0.883914 -0.00569508 0)
(0.880894 -0.0050797 0)
(0.877533 -0.00450884 0)
(0.873945 -0.00398488 0)
(0.870249 -0.00337338 0)
(0.866626 -0.0023909 0)
(0.863382 -0.000762613 0)
(0.860883 0.00167855 0)
(0.859535 0.0049833 0)
(0.859675 0.009001 0)
(0.861509 0.0134995 0)
(0.865092 0.0181825 0)
(0.870334 0.02272 0)
(2.57221 -0.178659 0)
(2.54345 -0.190639 0)
(2.51241 -0.200864 0)
(2.47908 -0.208565 0)
(2.44332 -0.21331 0)
(2.40483 -0.215101 0)
(2.36297 -0.214124 0)
(2.31626 -0.210628 0)
(2.26253 -0.205388 0)
(2.19817 -0.202077 0)
(2.12166 -0.206997 0)
(2.0289 -0.222318 0)
(1.90881 -0.243349 0)
(1.75134 -0.259606 0)
(1.53635 -0.260799 0)
(1.26568 -0.262293 0)
(1.00056 -0.296144 0)
(0.805679 -0.356092 0)
(0.657618 -0.399564 0)
(0.531413 -0.39123 0)
(0.437433 -0.310568 0)
(0.378377 -0.172602 0)
(0.336516 -0.022951 0)
(0.317914 0.0983608 0)
(0.327257 0.177151 0)
(0.35418 0.216211 0)
(0.390488 0.229079 0)
(0.424766 0.219633 0)
(0.451979 0.188361 0)
(0.468139 0.150761 0)
(0.471682 0.115987 0)
(0.465537 0.0849458 0)
(0.453813 0.0549141 0)
(0.438913 0.0210078 0)
(0.419427 -0.0157986 0)
(0.393869 -0.048792 0)
(0.361752 -0.0735023 0)
(0.325707 -0.0881711 0)
(0.289271 -0.0931207 0)
(0.254979 -0.0881831 0)
(0.225453 -0.0744958 0)
(0.202468 -0.0530464 0)
(0.186848 -0.0252571 0)
(0.179496 0.00632349 0)
(0.182774 0.0390467 0)
(0.195806 0.0693194 0)
(0.217346 0.0930041 0)
(0.245382 0.106768 0)
(0.277605 0.107768 0)
(0.311907 0.0937539 0)
(0.344507 0.0652432 0)
(0.370055 0.0257742 0)
(0.383543 -0.0213435 0)
(0.381053 -0.0689385 0)
(0.362795 -0.106684 0)
(0.334189 -0.126202 0)
(0.301516 -0.123123 0)
(0.271996 -0.0990762 0)
(0.250972 -0.0580967 0)
(0.242462 -0.0112583 0)
(0.247655 0.0308381 0)
(0.263478 0.0609851 0)
(0.286056 0.0780752 0)
(0.312825 0.0824719 0)
(0.34106 0.0765786 0)
(0.367579 0.0632073 0)
(0.388891 0.0446079 0)
(0.402597 0.0232509 0)
(0.408199 0.00247954 0)
(0.406539 -0.0145902 0)
(0.399904 -0.025521 0)
(0.390291 -0.0297583 0)
(0.379865 -0.027739 0)
(0.370557 -0.0206171 0)
(0.364265 -0.00963715 0)
(0.362142 0.00268838 0)
(0.364529 0.0137405 0)
(0.370387 0.0222161 0)
(0.378684 0.0277696 0)
(0.388704 0.0306328 0)
(0.399963 0.0313528 0)
(0.412037 0.030473 0)
(0.424515 0.0284944 0)
(0.436769 0.0259792 0)
(0.44832 0.0232814 0)
(0.458686 0.0208353 0)
(0.467832 0.0189315 0)
(0.47569 0.017652 0)
(0.482628 0.0168189 0)
(0.488972 0.016356 0)
(0.494804 0.0160513 0)
(0.500287 0.0154861 0)
(0.50539 0.0145119 0)
(0.510076 0.0128891 0)
(0.514213 0.0105152 0)
(0.517652 0.00759902 0)
(0.520236 0.00443414 0)
(0.521948 0.00133475 0)
(0.522755 -0.00144247 0)
(0.522701 -0.00363969 0)
(0.522112 -0.00511871 0)
(0.521251 -0.00596498 0)
(0.52023 -0.00609324 0)
(0.519159 -0.00582426 0)
(0.518085 -0.00522968 0)
(0.51706 -0.00446208 0)
(0.516162 -0.00366806 0)
(0.515393 -0.00296021 0)
(0.514725 -0.00239255 0)
(0.514125 -0.00191454 0)
(0.513579 -0.00139318 0)
(0.513122 -0.000639427 0)
(0.512892 0.000546149 0)
(0.513123 0.00227854 0)
(0.514085 0.00459374 0)
(0.516041 0.00745656 0)
(0.519181 0.010695 0)
(0.523613 0.0140785 0)
(0.529357 0.0173603 0)
(2.12104 -0.135923 0)
(2.05968 -0.144833 0)
(1.99311 -0.151758 0)
(1.91807 -0.155389 0)
(1.8348 -0.155447 0)
(1.74408 -0.152054 0)
(1.64716 -0.145728 0)
(1.54557 -0.137496 0)
(1.44112 -0.126255 0)
(1.32937 -0.111876 0)
(1.18901 -0.0915597 0)
(1.01855 -0.0636173 0)
(0.822321 -0.0294812 0)
(0.64017 -0.00496502 0)
(0.515057 -0.00863612 0)
(0.424653 -0.0466286 0)
(0.331591 -0.143649 0)
(0.199162 -0.22817 0)
(0.0370584 -0.260938 0)
(-0.134875 -0.251323 0)
(-0.27919 -0.199486 0)
(-0.372922 -0.115974 0)
(-0.409409 -0.0204727 0)
(-0.395968 0.0663003 0)
(-0.346866 0.124951 0)
(-0.274601 0.156216 0)
(-0.191999 0.165495 0)
(-0.108388 0.159893 0)
(-0.0301762 0.143808 0)
(0.0366555 0.121275 0)
(0.0900983 0.0952424 0)
(0.129979 0.068082 0)
(0.156114 0.0413531 0)
(0.167989 0.0167181 0)
(0.165385 -0.00513865 0)
(0.148154 -0.0241051 0)
(0.119548 -0.0385033 0)
(0.0840283 -0.0473421 0)
(0.0458134 -0.0508504 0)
(0.00825083 -0.0490628 0)
(-0.0254277 -0.0420669 0)
(-0.0517273 -0.0302888 0)
(-0.0681705 -0.014571 0)
(-0.0724384 0.00410263 0)
(-0.064135 0.0238485 0)
(-0.0441146 0.0419202 0)
(-0.0127499 0.0557503 0)
(0.0267352 0.0630419 0)
(0.0696546 0.0625992 0)
(0.111084 0.0538095 0)
(0.144511 0.0363467 0)
(0.164527 0.0118292 0)
(0.166283 -0.0173237 0)
(0.146744 -0.0459621 0)
(0.108244 -0.0681745 0)
(0.0583529 -0.0797541 0)
(0.00570467 -0.0794918 0)
(-0.0406518 -0.0662178 0)
(-0.0719731 -0.0420728 0)
(-0.0842891 -0.0134538 0)
(-0.0789371 0.013363 0)
(-0.0606078 0.0329066 0)
(-0.032771 0.0440788 0)
(-0.000227229 0.047525 0)
(0.032462 0.0446105 0)
(0.0613022 0.0366967 0)
(0.0834475 0.0254517 0)
(0.097131 0.0128959 0)
(0.102289 0.000831271 0)
(0.0999729 -0.00922295 0)
(0.0923421 -0.0159753 0)
(0.0817865 -0.018969 0)
(0.0708756 -0.0182483 0)
(0.0618583 -0.0143085 0)
(0.0565811 -0.00809731 0)
(0.0557659 -0.000982854 0)
(0.0593649 0.00572936 0)
(0.0667347 0.0109184 0)
(0.0769371 0.0144037 0)
(0.0889114 0.0163802 0)
(0.101742 0.0170838 0)
(0.114661 0.0168127 0)
(0.127152 0.0158128 0)
(0.138784 0.0142139 0)
(0.149355 0.0123397 0)
(0.158763 0.0105765 0)
(0.16716 0.00916108 0)
(0.174783 0.00823348 0)
(0.181847 0.00780735 0)
(0.18855 0.00773853 0)
(0.195036 0.00778383 0)
(0.201306 0.00773752 0)
(0.207361 0.00740461 0)
(0.212948 0.00667265 0)
(0.217814 0.00553486 0)
(0.221713 0.00405011 0)
(0.224428 0.00233225 0)
(0.225925 0.000472593 0)
(0.226306 -0.00137771 0)
(0.225781 -0.0028905 0)
(0.224595 -0.0039596 0)
(0.223 -0.00460857 0)
(0.221247 -0.00491071 0)
(0.219537 -0.00492298 0)
(0.218013 -0.00470359 0)
(0.216736 -0.00436612 0)
(0.215772 -0.00393036 0)
(0.21508 -0.0034522 0)
(0.214632 -0.00303319 0)
(0.214409 -0.00261939 0)
(0.214384 -0.00214064 0)
(0.214586 -0.00151472 0)
(0.215122 -0.000630984 0)
(0.21616 0.000574431 0)
(0.218028 0.00213213 0)
(0.220963 0.00393194 0)
(0.225089 0.00588631 0)
(0.230509 0.00788166 0)
(0.237234 0.00978755 0)
(0.84059 -0.0630278 0)
(0.740313 -0.0655994 0)
(0.63381 -0.0649782 0)
(0.530295 -0.0592053 0)
(0.433153 -0.0481746 0)
(0.341953 -0.034277 0)
(0.258102 -0.0189954 0)
(0.184852 0.0015351 0)
(0.127216 0.0338053 0)
(0.0926628 0.074802 0)
(0.0916308 0.106289 0)
(0.121154 0.111702 0)
(0.161669 0.0915731 0)
(0.20081 0.0483498 0)
(0.221855 -0.00239651 0)
(0.208581 -0.0496446 0)
(0.14005 -0.0818278 0)
(0.00452137 -0.106361 0)
(-0.182855 -0.117977 0)
(-0.373279 -0.102277 0)
(-0.531855 -0.0755003 0)
(-0.644623 -0.0424485 0)
(-0.695544 -0.00754473 0)
(-0.68574 0.0254899 0)
(-0.63169 0.0496902 0)
(-0.545378 0.0626487 0)
(-0.440929 0.0661733 0)
(-0.333363 0.0629555 0)
(-0.231886 0.0550092 0)
(-0.141779 0.0453453 0)
(-0.0674646 0.0353433 0)
(-0.0102832 0.0260641 0)
(0.0290115 0.0172451 0)
(0.0514867 0.00883856 0)
(0.058324 0.000858756 0)
(0.0516721 -0.00679031 0)
(0.0338224 -0.0126076 0)
(0.0060333 -0.0165371 0)
(-0.0277347 -0.0190508 0)
(-0.0627649 -0.0188244 0)
(-0.0946154 -0.0161571 0)
(-0.120229 -0.0119089 0)
(-0.136517 -0.00631822 0)
(-0.141331 0.000491462 0)
(-0.133992 0.00756996 0)
(-0.113815 0.013848 0)
(-0.0822904 0.0186883 0)
(-0.0423853 0.0209032 0)
(0.000980942 0.0206112 0)
(0.0412212 0.0173852 0)
(0.0722921 0.0109028 0)
(0.0888394 0.00204215 0)
(0.0877096 -0.00900659 0)
(0.0674123 -0.0193975 0)
(0.0285509 -0.0273193 0)
(-0.0239654 -0.0317421 0)
(-0.0807503 -0.0311335 0)
(-0.130867 -0.0252211 0)
(-0.168035 -0.0164205 0)
(-0.187518 -0.0063833 0)
(-0.188894 0.00321028 0)
(-0.17514 0.0106262 0)
(-0.149686 0.0149767 0)
(-0.118711 0.0164002 0)
(-0.0871498 0.0153215 0)
(-0.0590303 0.012514 0)
(-0.0374441 0.00858931 0)
(-0.02416 0.00422626 0)
(-0.0194672 8.93175e-07 0)
(-0.0223965 -0.00352788 0)
(-0.0310867 -0.00590528 0)
(-0.0432451 -0.00697498 0)
(-0.0563341 -0.00675091 0)
(-0.0679049 -0.005433 0)
(-0.075884 -0.00332664 0)
(-0.0794203 -0.000989891 0)
(-0.078388 0.0013438 0)
(-0.0736309 0.00314821 0)
(-0.0657202 0.00437383 0)
(-0.0557611 0.00507758 0)
(-0.0448582 0.00531993 0)
(-0.0336558 0.00522626 0)
(-0.0228963 0.00487453 0)
(-0.0130122 0.00432918 0)
(-0.00430568 0.00376387 0)
(0.00311003 0.003224 0)
(0.00947902 0.00280133 0)
(0.0151795 0.00247665 0)
(0.0205654 0.0022911 0)
(0.0256988 0.00226594 0)
(0.030714 0.00225379 0)
(0.0357717 0.00221716 0)
(0.0407088 0.00212037 0)
(0.0452973 0.00186806 0)
(0.0493488 0.00144843 0)
(0.0525 0.0009162 0)
(0.0544681 0.000273829 0)
(0.0552038 -0.000415212 0)
(0.0547419 -0.00102767 0)
(0.0531989 -0.00152337 0)
(0.0507513 -0.00189314 0)
(0.0476496 -0.00214706 0)
(0.0441645 -0.00227363 0)
(0.0405056 -0.00230095 0)
(0.0368474 -0.00224452 0)
(0.0333808 -0.00215335 0)
(0.0301755 -0.00200917 0)
(0.0272171 -0.00188675 0)
(0.02464 -0.00178977 0)
(0.022355 -0.00165869 0)
(0.0203082 -0.00150501 0)
(0.0186145 -0.00129249 0)
(0.0174132 -0.000992522 0)
(0.0168979 -0.000553581 0)
(0.0172005 4.94173e-05 0)
(0.0185052 0.000694929 0)
(0.0210454 0.00136867 0)
(0.0249182 0.00204205 0)
(0.0301283 0.0026779 0)
(-0.036509 -0.328863 0)
(-0.136884 -0.353398 0)
(-0.234085 -0.381401 0)
(-0.324688 -0.401345 0)
(-0.40469 -0.39533 0)
(-0.470147 -0.344244 0)
(-0.516627 -0.228616 0)
(-0.53967 -0.0446754 0)
(-0.543621 0.190634 0)
(-0.514099 0.449404 0)
(-0.460874 0.704118 0)
(-0.393399 0.927009 0)
(-0.319705 1.09555 0)
(-0.237478 1.19271 0)