/*--------------------------------*- C++ -*----------------------------------*\
| =========                 |                                                 |
| \\      /  F ield         | OpenFOAM: The Open Source CFD Toolbox           |
|  \\    /   O peration     | Version:  2206                                  |
|   \\  /    A nd           | Website:  www.openfoam.com                      |
|    \\/     M anipulation  |                                                 |
\*---------------------------------------------------------------------------*/
FoamFile
{
    version     2.0;
    format      ascii;
    arch        "LSB;label=32;scalar=64";
    class       volVectorField;
    location    "19.2999";
    object      ddt0(U);
}
// * * * * * * * * * * * * * * * * * * * * * * * * * * * * * * * * * * * * * //

dimensions      [0 1 -2 0 0 0 0];

internalField   nonuniform List<vector> 
3062
(
(-6.34773 18.3383 0)
(-24.5152 23.1621 0)
(-37.6709 20.6222 0)
(-47.1405 12.2557 0)
(-58.5399 -4.7544 0)
(-69.1345 -32.6177 0)
(-80.4017 -71.7551 0)
(-91.8822 -117.913 0)
(-91.7877 -158.47 0)
(-49.6553 -156.87 0)
(-2.74687 -130.551 0)
(34.6366 -95.0695 0)
(59.9297 -60.3841 0)
(77.727 -33.6941 0)
(94.0313 -7.71372 0)
(103.488 17.1317 0)
(111.052 34.965 0)
(114.943 49.0369 0)
(111.836 63.8638 0)
(104.619 81.6201 0)
(112.969 88.0771 0)
(158.367 63.359 0)
(218.884 25.5674 0)
(215.592 29.8556 0)
(154.493 94.2362 0)
(64.1784 166.753 0)
(-12.1115 219.887 0)
(-66.2712 237.174 0)
(-77.6033 219.569 0)
(-76.1551 190.696 0)
(-66.1173 159.827 0)
(-50.4536 131.549 0)
(-31.9831 108.43 0)
(-13.7702 91.6371 0)
(1.32131 78.9632 0)
(11.8163 65.2636 0)
(15.3468 46.7327 0)
(2.97248 16.9811 0)
(-25.3031 -50.1147 0)
(-64.3999 -132.397 0)
(-101.047 -218.131 0)
(-133.076 -291.98 0)
(-151.84 -337.338 0)
(-147.092 -337.877 0)
(-128.221 -309.878 0)
(-100.75 -263.693 0)
(-69.8 -209.669 0)
(-39.5642 -155.843 0)
(-13.319 -107.449 0)
(8.41584 -67.4174 0)
(29.8866 -34.3922 0)
(44.7146 -6.38733 0)
(55.0319 10.0872 0)
(60.7813 19.3722 0)
(63.6328 24.0673 0)
(65.4097 25.4459 0)
(67.5527 23.8697 0)
(71.1637 19.212 0)
(76.3924 12.2175 0)
(82.0601 5.60727 0)
(85.8907 3.82199 0)
(85.1626 10.9504 0)
(79.7384 29.3306 0)
(68.0791 57.8698 0)
(52.2626 92.5748 0)
(33.9396 127.443 0)
(15.2522 156.583 0)
(-2.15772 175.531 0)
(-16.4404 181.635 0)
(-26.9457 176.189 0)
(-34.5204 163.932 0)
(-39.1475 146.912 0)
(-40.9246 127.365 0)
(-40.2013 107.327 0)
(-37.4429 88.3866 0)
(-33.2667 71.5602 0)
(-28.3973 57.1467 0)
(-23.5373 44.8072 0)
(-19.0512 33.9655 0)
(-14.6848 24.2513 0)
(-10.8526 15.3174 0)
(-10.4602 3.77834 0)
(-10.8216 -16.8369 0)
(-12.647 -40.2506 0)
(-15.5095 -65.9126 0)
(-18.9964 -93.2676 0)
(-22.5278 -120.223 0)
(-25.6831 -144.385 0)
(-28.1409 -163.236 0)
(-29.32 -174.162 0)
(-28.3884 -173.99 0)
(-25.9375 -166.592 0)
(-22.218 -153.278 0)
(-17.3773 -135.596 0)
(-11.697 -115.215 0)
(-5.53275 -93.8266 0)
(0.79967 -72.9117 0)
(6.98371 -53.5271 0)
(13.2497 -36.3015 0)
(20.8706 -21.0653 0)
(27.8436 -7.56071 0)
(34.0497 2.01342 0)
(38.9505 9.05316 0)
(42.1736 15.2936 0)
(43.6377 22.2779 0)
(-6.54673 34.9561 0)
(-19.2152 33.5386 0)
(-29.3658 28.7987 0)
(-36.8997 20.3696 0)
(-41.9217 4.67744 0)
(-45.2399 -20.9964 0)
(-45.7953 -56.3904 0)
(-46.4306 -105.091 0)
(-56.8282 -164.899 0)
(-51.0942 -196.448 0)
(-14.8561 -171.353 0)
(19.1846 -128.661 0)
(46.9336 -86.8483 0)
(69.5008 -52.7805 0)
(87.6491 -19.9219 0)
(104.359 0.72542 0)
(116.497 25.5537 0)
(120.32 49.3418 0)
(120.187 70.4426 0)
(140.423 70.9438 0)
(196.066 37.4357 0)
(251.11 2.68237 0)
(227.737 27.638 0)
(154.985 105.329 0)
(64.5645 184.541 0)
(-21.5393 248.336 0)
(-76.4492 271.406 0)
(-90.9227 252.22 0)
(-90.7021 218.811 0)
(-80.9916 180.486 0)
(-64.8271 143.653 0)
(-44.6842 111.899 0)
(-22.5313 87.694 0)
(-0.260069 72.2366 0)
(19.4027 63.9664 0)
(33.3997 55.3935 0)
(40.1827 41.4852 0)
(42.5127 23.6704 0)
(23.605 -2.57006 0)
(-8.72877 -99.6881 0)
(-48.4226 -181.498 0)
(-87.2496 -260.928 0)
(-118.127 -320.391 0)
(-131.303 -342.486 0)
(-125.745 -326.417 0)
(-109.373 -288.26 0)
(-86.2093 -237.601 0)
(-60.2276 -183.449 0)
(-35.0191 -132.196 0)
(-12.9932 -87.6216 0)
(5.3347 -52.1334 0)
(24.592 -23.2934 0)
(37.851 0.490633 0)
(47.499 13.7284 0)
(53.4271 20.5102 0)
(57.5362 22.4545 0)
(61.725 20.0931 0)
(66.8998 14.1622 0)
(72.776 6.66367 0)
(77.9363 1.39568 0)
(80.0362 3.00526 0)
(78.0026 15.078 0)
(70.4928 38.6906 0)
(58.0476 71.8285 0)
(41.9263 109.519 0)
(24.1258 145.64 0)
(6.42192 174.046 0)
(-9.47456 190.742 0)
(-21.794 192.965 0)
(-30.5185 184.561 0)
(-36.3581 169.244 0)
(-39.2286 149.295 0)
(-39.3339 127.09 0)
(-37.0911 104.795 0)
(-32.9482 84.1344 0)
(-27.4451 66.2673 0)
(-21.2626 51.608 0)
(-15.1585 39.6263 0)
(-9.78562 29.3506 0)
(-5.29595 20.0059 0)
(-1.88306 11.8467 0)
(1.41853 4.91667 0)
(2.46624 -16.9422 0)
(0.626662 -38.0647 0)
(-2.79135 -62.5159 0)
(-6.83885 -89.4308 0)
(-11.1897 -116.412 0)
(-15.5154 -140.926 0)
(-19.4802 -160.545 0)
(-22.6108 -172.787 0)
(-24.0025 -174.604 0)
(-23.7522 -168.498 0)
(-22.1947 -156.479 0)
(-19.3675 -139.906 0)
(-15.4212 -120.35 0)
(-10.6292 -99.4917 0)
(-5.24958 -78.8465 0)
(0.403111 -59.6012 0)
(6.05186 -42.4952 0)
(12.1431 -27.7316 0)
(19.259 -14.6775 0)
(25.1645 -3.51377 0)
(30.2082 4.93356 0)
(33.7124 12.7439 0)
(35.4839 21.5287 0)
(-4.64719 46.0984 0)
(-14.858 44.2592 0)
(-23.9689 37.459 0)
(-31.2103 25.6912 0)
(-35.5668 6.98794 0)
(-38.1234 -23.0673 0)
(-39.7168 -62.8699 0)
(-38.3163 -109.395 0)
(-37.2841 -160.964 0)
(-35.394 -202.978 0)
(-17.4048 -195.193 0)
(6.86459 -156.962 0)
(32.0749 -114.555 0)
(55.9687 -74.3722 0)
(76.9992 -41.0062 0)
(91.3763 -9.71649 0)
(106.564 16.9135 0)
(124.945 48.756 0)
(162.232 44.2631 0)
(225.078 8.3845 0)
(267.485 -14.7624 0)
(232.508 26.5591 0)
(154.364 110.644 0)
(67.0501 196.872 0)
(-28.8019 272.529 0)
(-87.0256 304.956 0)
(-105.496 288.771 0)
(-105.896 253.049 0)
(-95.639 209.15 0)
(-78.5123 164.323 0)
(-57.717 123.241 0)
(-35.0796 88.9412 0)
(-11.7522 63.3698 0)
(11.3768 48.7123 0)
(33.6701 45.8976 0)
(53.944 46.4347 0)
(62.3784 40.9043 0)
(64.8171 25.3689 0)
(60.0366 6.03803 0)
(38.2364 -63.3466 0)
(-0.466614 -141.665 0)
(-42.6033 -223.182 0)
(-80.2854 -292.138 0)
(-106.747 -332.016 0)
(-114.267 -330.058 0)
(-109.214 -302.55 0)
(-95.1224 -258.477 0)
(-75.3128 -206.89 0)
(-53.3657 -155.412 0)
(-31.9462 -108.767 0)
(-13.2907 -69.2266 0)
(2.7026 -38.946 0)
(19.4979 -14.7548 0)
(31.4185 4.39022 0)
(40.7613 14.1655 0)
(47.7726 17.0867 0)
(54.1579 14.533 0)
(60.7469 8.22235 0)
(66.9606 1.33268 0)
(71.3286 -1.64439 0)
(71.9742 3.78395 0)
(68.5251 20.6934 0)
(59.7911 49.1349 0)
(46.6221 86.1201 0)
(30.6362 126.384 0)
(13.5144 162.906 0)
(-2.94211 190.113 0)
(-17.0148 204.192 0)
(-27.0907 202.332 0)
(-33.8594 191.033 0)
(-37.642 172.679 0)
(-38.4962 149.901 0)
(-36.7898 125.239 0)
(-32.9867 100.899 0)
(-27.5814 78.6746 0)
(-21.079 59.8188 0)
(-14.008 44.8995 0)
(-6.98782 33.3579 0)
(-0.659854 24.1715 0)
(4.83887 16.7443 0)
(9.47484 8.62546 0)
(13.1741 -1.49147 0)
(14.7695 -15.5226 0)
(12.8653 -34.8528 0)
(9.39608 -58.6173 0)
(4.94543 -84.9359 0)
(-0.160126 -111.637 0)
(-5.54612 -136.223 0)
(-10.8679 -156.249 0)
(-15.6953 -169.414 0)
(-19.1632 -173.022 0)
(-21.0174 -168.23 0)
(-21.5319 -157.603 0)
(-20.6521 -142.331 0)
(-18.4186 -123.92 0)
(-15.0264 -103.958 0)
(-10.7224 -83.9301 0)
(-5.78014 -65.0781 0)
(-0.542892 -48.1677 0)
(4.65831 -33.4413 0)
(10.2931 -20.8852 0)
(16.397 -9.39738 0)
(21.0136 0.801016 0)
(24.781 9.92731 0)
(26.9198 20.5446 0)
(-3.16185 54.5035 0)
(-11.2301 53.8344 0)
(-18.3691 45.1383 0)
(-24.4597 30.3067 0)
(-28.0739 7.33925 0)
(-29.1026 -21.1391 0)
(-30.2871 -65.3736 0)
(-32.6723 -116.134 0)
(-34.9353 -165.39 0)
(-33.4886 -204.195 0)
(-23.4526 -206.896 0)
(-7.30111 -176.121 0)
(13.0448 -135.323 0)
(35.7994 -94.3432 0)
(59.8275 -56.8146 0)
(86.2546 -25.3252 0)
(120.656 -11.0005 0)
(177.772 -7.07858 0)
(240.038 -27.8242 0)
(259.241 -27.4584 0)
(222.705 23.846 0)
(144.542 106.473 0)
(66.8877 200.048 0)
(-33.4387 289.099 0)
(-99.9016 334.805 0)
(-123.407 327.306 0)
(-124.064 291.012 0)
(-111.965 242.763 0)
(-91.7089 191.224 0)
(-67.1798 142.425 0)
(-42.4408 100.224 0)
(-19.7524 66.637 0)
(1.1891 41.4573 0)
(21.0759 24.7693 0)
(42.4814 22.51 0)
(67.8852 26.7359 0)
(84.1481 32.666 0)
(89.0255 30.2834 0)
(87.8761 11.6744 0)
(72.7811 -32.0889 0)
(40.5951 -102.167 0)
(-0.348168 -182.736 0)
(-41.7899 -256.542 0)
(-76.5932 -307.801 0)
(-96.8398 -323.606 0)
(-101.641 -306.576 0)
(-96.7925 -271.168 0)
(-84.4591 -224.964 0)
(-67.2346 -175.462 0)
(-48.3717 -128.572 0)
(-29.9965 -87.7661 0)
(-13.7447 -53.802 0)
(-0.0673465 -28.067 0)
(14.1955 -9.02506 0)
(26.2384 4.55932 0)
(36.3813 9.16356 0)
(45.1303 7.07991 0)
(52.8577 1.40544 0)
(58.9928 -3.77212 0)
(62.3241 -3.70036 0)
(61.9768 5.9296 0)
(57.0869 27.4679 0)
(47.3057 60.2477 0)
(33.8336 100.83 0)
(18.1722 142.579 0)
(2.05507 178.991 0)
(-12.8921 204.641 0)
(-24.6709 214.986 0)
(-32.267 209.811 0)
(-36.6933 195.296 0)
(-38.0739 173.911 0)
(-36.6715 148.47 0)
(-33.0128 121.606 0)
(-27.6611 95.6184 0)
(-21.1367 72.2757 0)
(-13.946 52.7105 0)
(-6.61147 37.3133 0)
(1.0227 26.0006 0)
(9.41937 17.6743 0)
(16.1489 10.5158 0)
(21.1341 4.59034 0)
(24.3832 -3.04235 0)
(25.6066 -15.4383 0)
(24.3142 -32.7153 0)
(20.8867 -54.6492 0)
(16.1292 -79.9402 0)
(10.3276 -106.017 0)
(3.9717 -130.349 0)
(-2.56346 -150.501 0)
(-8.85487 -164.32 0)
(-14.1181 -169.458 0)
(-17.8772 -165.952 0)
(-20.2768 -156.776 0)
(-21.2206 -142.966 0)
(-20.6584 -125.921 0)
(-18.7079 -107.151 0)
(-15.5678 -88.0631 0)
(-11.5138 -69.8122 0)
(-6.85996 -53.1903 0)
(-1.99047 -38.5082 0)
(2.57433 -25.6313 0)
(6.92682 -14.6018 0)
(11.5887 -3.82285 0)
(15.4164 7.07243 0)
(18.2224 19.1166 0)
(-3.10434 60.2621 0)
(-8.33933 59.0388 0)
(-13.8822 50.8695 0)
(-18.7561 35.2975 0)
(-21.7105 11.9226 0)
(-22.9875 -20.1409 0)
(-23.2459 -61.5766 0)
(-25.3099 -119.104 0)
(-27.952 -169.706 0)
(-27.3228 -204.664 0)
(-19.495 -214.733 0)
(-6.09697 -193.031 0)
(16.1178 -159.083 0)
(46.0397 -123.688 0)
(83.4988 -92.6785 0)
(127.982 -74.0476 0)
(172.7 -71.1118 0)
(209.424 -61.1004 0)
(214.061 -30.1444 0)
(185.121 14.5385 0)
(124.891 89.4439 0)
(50.9654 191.309 0)
(-48.6205 292.833 0)
(-120.408 356.209 0)
(-149.161 363.761 0)
(-148.053 329.552 0)
(-131.951 278.248 0)
(-106.477 220.398 0)
(-76.8667 164.235 0)
(-47.6301 115.24 0)
(-20.8403 76.0707 0)
(1.20955 44.264 0)
(18.9971 23.1104 0)
(32.9517 8.47815 0)
(52.8052 -2.46737 0)
(74.1543 4.91342 0)
(93.1082 18.5999 0)
(105.394 26.5504 0)
(106.685 18.6134 0)
(98.9435 -14.2087 0)
(74.1085 -68.4436 0)
(37.2358 -142.088 0)
(-4.94382 -216.906 0)
(-44.9244 -275.74 0)
(-74.9228 -306.366 0)
(-89.0872 -301.147 0)
(-92.368 -275.374 0)
(-87.4254 -236.352 0)
(-76.1722 -191.174 0)
(-61.2113 -145.899 0)
(-44.9372 -104.552 0)
(-29.0993 -69.3592 0)
(-14.6132 -41.6849 0)
(-2.35092 -21.8401 0)
(11.6009 -8.77049 0)
(23.7939 -1.64325 0)
(34.3273 -1.84601 0)
(42.8265 -5.54734 0)
(48.6484 -7.9767 0)
(51.1898 -4.55318 0)
(49.9083 9.25926 0)
(43.707 35.2245 0)
(33.0482 72.1685 0)
(19.4796 115.23 0)
(4.46273 157.904 0)
(-10.3629 193.723 0)
(-23.4134 217.117 0)
(-32.4552 223.245 0)
(-37.2227 214.743 0)
(-38.8725 196.983 0)
(-37.5424 172.704 0)
(-33.6977 144.889 0)
(-28.0307 116.231 0)
(-21.1713 89.0286 0)
(-13.6577 64.9664 0)
(-6.12901 44.9993 0)
(1.54747 29.5583 0)
(10.8809 18.0321 0)
(19.365 9.10702 0)
(26.6758 4.29785 0)
(31.986 0.434318 0)
(35.1855 -5.32792 0)
(36.1974 -15.2889 0)
(34.9552 -30.4095 0)
(31.5834 -50.5121 0)
(26.4172 -74.3517 0)
(20.0612 -99.6044 0)
(12.8511 -123.44 0)
(5.25309 -143.508 0)
(-2.30295 -157.742 0)
(-9.11833 -164.111 0)
(-14.5719 -161.923 0)
(-18.6487 -154.196 0)
(-21.2339 -141.919 0)
(-22.2253 -126.419 0)
(-21.6412 -109.038 0)
(-19.6537 -91.1149 0)
(-16.5475 -73.7722 0)
(-12.6777 -57.7617 0)
(-8.49108 -43.2272 0)
(-4.62075 -29.9202 0)
(-1.5942 -17.7689 0)
(1.90021 -7.19124 0)
(5.88282 1.2772 0)
(9.08535 18.9849 0)
(-3.1828 -2.38827 0)
(-1.25214 16.0594 0)
(-0.47127 0.275423 0)
(-0.832067 0.277936 0)
(-1.21348 0.2402 0)
(-1.56485 0.157531 0)
(-1.8289 0.030697 0)
(-1.94603 -0.130803 0)
(-1.86682 -0.309285 0)
(-1.54548 -0.475126 0)
(-0.945934 -0.550159 0)
(-0.286853 -0.469564 0)
(0.353384 -0.272982 0)
(0.965831 -0.0952599 0)
(1.49746 -0.005577 0)
(1.93216 0.00318349 0)
(2.30619 -0.0836476 0)
(2.66551 -0.262217 0)
(3.07428 -0.53758 0)
(3.60246 -0.911012 0)
(4.38136 -1.2322 0)
(5.89036 -1.18576 0)
(6.81138 -0.870934 0)
(-0.107333 0.38262 0)
(-0.200647 0.449991 0)
(-0.320507 0.465428 0)
(-0.447378 0.41735 0)
(-0.563903 0.299319 0)
(-0.648428 0.112378 0)
(-0.68445 -0.13343 0)
(-0.651951 -0.417892 0)
(-0.565954 -0.696776 0)
(-0.32451 -0.914259 0)
(0.0997743 -1.03888 0)
(0.714653 -1.06977 0)
(1.49159 -1.02432 0)
(2.37408 -0.928308 0)
(3.30231 -0.802006 0)
(4.21529 -0.675963 0)
(5.02554 -0.579395 0)
(5.64563 -0.547637 0)
(5.91313 -0.62479 0)
(5.63306 -0.721058 0)
(4.82636 -0.841342 0)
(-0.0739898 0.402419 0)
(-0.0522699 0.491059 0)
(-0.0599738 0.513848 0)
(-0.0897723 0.459354 0)
(-0.133794 0.324135 0)
(-0.184877 0.112549 0)
(-0.236148 -0.162163 0)
(-0.27622 -0.474459 0)
(-0.290632 -0.78994 0)
(-0.247582 -1.07346 0)
(-0.129778 -1.3 0)
(0.0935495 -1.46331 0)
(0.428973 -1.56853 0)
(0.863405 -1.62231 0)
(1.37161 -1.63058 0)
(1.91957 -1.59626 0)
(2.46497 -1.51406 0)
(2.95686 -1.36338 0)
(3.35565 -1.09796 0)
(3.63884 -0.674439 0)
(3.721 -0.145883 0)
(-0.0386277 0.337059 0)
(-0.016094 0.458678 0)
(-0.0286671 0.508597 0)
(-0.066994 0.473307 0)
(-0.120413 0.351513 0)
(-0.183053 0.150547 0)
(-0.249613 -0.117382 0)
(-0.31086 -0.434123 0)
(-0.352628 -0.773664 0)
(-0.357249 -1.10407 0)
(-0.307369 -1.3972 0)
(-0.18888 -1.63919 0)
(0.00445778 -1.82435 0)
(0.269209 -1.94885 0)
(0.598501 -2.00902 0)
(0.977677 -2.00058 0)
(1.39461 -1.91494 0)
(1.83799 -1.73598 0)
(2.29906 -1.44198 0)
(2.78292 -1.01412 0)
(3.30499 -0.461312 0)
(0.0984292 0.301208 0)
(0.0860104 0.465865 0)
(0.0259993 0.553172 0)
(-0.0844484 0.545842 0)
(-0.208188 0.438738 0)
(-0.332669 0.241085 0)
(-0.449986 -0.0333967 0)
(-0.547058 -0.370198 0)
(-0.604979 -0.745625 0)
(-0.608749 -1.12603 0)
(-0.551598 -1.47991 0)
(-0.430206 -1.78754 0)
(-0.243615 -2.03542 0)
(0.00123315 -2.21634 0)
(0.303774 -2.32544 0)
(0.655731 -2.35672 0)
(1.05493 -2.30676 0)
(1.50451 -2.16912 0)
(2.01252 -1.93516 0)
(2.60012 -1.59638 0)
(3.29148 -1.1565 0)
(0.303631 0.0257304 0)
(0.300043 0.316023 0)
(0.215169 0.541639 0)
(0.0653824 0.675766 0)
(-0.12067 0.692785 0)
(-0.316896 0.590727 0)
(-0.5108 0.390166 0)
(-0.688919 0.0977862 0)
(-0.832008 -0.278995 0)
(-0.91433 -0.712896 0)
(-0.920645 -1.15792 0)
(-0.851612 -1.57532 0)
(-0.708188 -1.94647 0)
(-0.513111 -2.25672 0)
(-0.233712 -2.49736 0)
(0.0955196 -2.66336 0)
(0.483655 -2.75159 0)
(0.922114 -2.76001 0)
(1.41906 -2.68546 0)
(1.98711 -2.52856 0)
(2.64825 -2.29302 0)
(3.43078 -1.98424 0)
(0.651144 0.000858075 0)
(0.589085 0.391925 0)
(0.41183 0.703634 0)
(0.14808 0.894764 0)
(-0.159994 0.933443 0)
(-0.474097 0.828214 0)
(-0.771651 0.611359 0)
(-1.03477 0.286083 0)
(-1.23479 -0.153733 0)
(-1.34047 -0.670073 0)
(-1.3376 -1.19992 0)
(-1.2366 -1.69515 0)
(-1.04601 -2.13881 0)
(-0.782162 -2.5118 0)
(-0.456161 -2.80621 0)
(-0.0735166 -3.02664 0)
(0.351074 -3.1662 0)
(0.823052 -3.23025 0)
(1.35612 -3.22646 0)
(1.96399 -3.16005 0)
(2.66341 -3.03556 0)
(3.48629 -2.86582 0)
(1.1253 0.0277832 0)
(0.981553 0.561488 0)
(0.679041 0.988914 0)
(0.263373 1.25215 0)
(-0.202472 1.31101 0)
(-0.667646 1.19267 0)
(-1.10395 0.945982 0)
(-1.4823 0.560146 0)
(-1.76311 0.0196533 0)
(-1.89847 -0.621656 0)
(-1.88153 -1.26931 0)
(-1.73612 -1.86927 0)
(-1.48371 -2.40386 0)
(-1.14985 -2.84915 0)
(-0.746362 -3.20365 0)
(-0.295924 -3.46617 0)
(0.18995 -3.645 0)
(0.716387 -3.75705 0)
(1.28069 -3.8061 0)
(1.90694 -3.81621 0)
(2.62287 -3.80305 0)
(3.44822 -3.76601 0)
(1.78156 0.110931 0)
(1.52763 0.841192 0)
(1.05316 1.42513 0)
(0.432485 1.78234 0)
(-0.24379 1.86429 0)
(-0.909892 1.72256 0)
(-1.52814 1.43228 0)
(-2.0533 0.958294 0)
(-2.41903 0.258608 0)
(-2.57653 -0.561479 0)
(-2.53604 -1.3639 0)
(-2.33877 -2.08854 0)
(-2.01129 -2.72338 0)
(-1.57984 -3.25329 0)
(-1.07816 -3.6665 0)
(-0.536338 -3.97216 0)
(0.0238045 -4.18381 0)
(0.609289 -4.33225 0)
(1.21142 -4.42788 0)
(1.85357 -4.50348 0)
(2.57215 -4.58816 0)
(3.38515 -4.67776 0)
(2.68332 0.29802 0)
(2.27363 1.30226 0)
(1.56385 2.08692 0)
(0.670124 2.54599 0)
(-0.281355 2.63033 0)
(-1.21133 2.43621 0)
(-2.0678 2.07137 0)
(-2.76531 1.44985 0)
(-3.21823 0.512117 0)
(-3.40611 -0.538397 0)
(-3.35401 -1.5123 0)
(-3.08401 -2.39591 0)
(-2.6441 -3.16182 0)
(-2.09232 -3.76449 0)
(-1.46923 -4.21698 0)
(-0.814779 -4.54747 0)
(-0.168183 -4.76866 0)
(0.476587 -4.92635 0)
(1.11113 -5.04484 0)
(1.75904 -5.16446 0)
(2.46836 -5.3303 0)
(3.25578 -5.53835 0)
(3.99066 0.588837 0)
(3.34449 1.98867 0)
(2.28028 3.06182 0)
(0.984 3.67359 0)
(-0.357859 3.77173 0)
(-1.64232 3.50224 0)
(-2.78703 3.01622 0)
(-3.66205 2.14908 0)
(-4.21543 0.865304 0)
(-4.48618 -0.450377 0)
(-4.38338 -1.6857 0)
(-3.9956 -2.79516 0)
(-3.38934 -3.73583 0)
(-2.62554 -4.47397 0)
(-1.86252 -4.95187 0)
(-1.08503 -5.28269 0)
(-0.350893 -5.47979 0)
(0.33665 -5.60443 0)
(0.975144 -5.71706 0)
(1.58069 -5.84754 0)
(2.23324 -6.0702 0)
(2.94879 -6.38143 0)
(5.72323 1.07603 0)
(4.74152 2.99257 0)
(3.19613 4.39875 0)
(1.35245 5.13203 0)
(-0.556544 5.17395 0)
(-2.37654 4.75383 0)
(-3.93894 4.07677 0)
(-5.04068 2.88841 0)
(-5.74991 1.24001 0)
(-6.03842 -0.413957 0)
(-5.80996 -1.98428 0)
(-5.22884 -3.35353 0)
(-4.37905 -4.40837 0)
(-3.30432 -5.20615 0)
(-2.28054 -5.71248 0)
(-1.31124 -6.03388 0)
(-0.446967 -6.17122 0)
(0.284622 -6.22179 0)
(0.925286 -6.3003 0)
(1.46249 -6.42569 0)
(2.01179 -6.69768 0)
(2.58476 -7.11861 0)
(7.76962 1.95572 0)
(6.3851 4.64514 0)
(4.24954 6.55003 0)
(1.80881 7.54663 0)
(-0.732443 7.52448 0)
(-3.19389 6.81699 0)
(-5.20041 5.75495 0)
(-6.41403 4.03316 0)
(-7.35873 1.78798 0)
(-7.80613 -0.449449 0)
(-7.54305 -2.55769 0)
(-6.67834 -4.46971 0)
(-5.37111 -5.89102 0)
(-4.01892 -6.59177 0)
(-2.78207 -6.90477 0)
(-1.56291 -7.11442 0)
(-0.518126 -7.08028 0)
(0.244229 -6.93814 0)
(0.858108 -6.87102 0)
(1.27866 -6.89209 0)
(1.69957 -7.12612 0)
(2.11996 -7.6386 0)
(9.20045 2.69916 0)
(7.32811 6.3478 0)
(4.6718 8.67899 0)
(2.01923 10.0149 0)
(-1.2488 10.222 0)
(-4.54246 9.14432 0)
(-7.01134 7.36255 0)
(-8.41344 5.00185 0)
(-9.41382 2.38684 0)
(-9.36845 -0.215875 0)
(-8.5864 -2.7826 0)
(-7.81879 -5.05486 0)
(-6.7987 -6.75551 0)
(-5.14807 -7.90259 0)
(-2.87374 -8.32445 0)
(-1.62698 -8.26876 0)
(-0.549762 -7.92324 0)
(0.166839 -7.58504 0)
(0.732154 -7.43 0)
(0.853979 -7.33451 0)
(1.01247 -7.51693 0)
(1.1228 -8.01158 0)
(10.8436 4.71063 0)
(7.89888 9.29293 0)
(4.61236 12.257 0)
(1.17179 13.7705 0)
(-2.48614 13.5263 0)
(-5.72615 12.2508 0)
(-8.82434 9.99588 0)
(-10.9843 6.44143 0)
(-12.0407 2.52246 0)
(-11.9116 -1.29203 0)
(-10.7083 -4.5821 0)
(-8.73275 -6.95191 0)
(-6.55871 -8.62719 0)
(-4.28956 -9.90795 0)
(-2.63612 -10.0003 0)
(-0.98529 -9.66494 0)
(-0.088747 -8.80568 0)
(0.267759 -8.10804 0)
(0.602969 -7.34859 0)
(0.480616 -7.1617 0)
(0.336535 -7.27465 0)
(-0.186977 -7.84727 0)
(6.72224 6.66432 0)
(5.46361 12.4524 0)
(3.08928 14.2802 0)
(0.159669 17.2551 0)
(-3.30385 17.5761 0)
(-6.82801 16.1781 0)
(-9.91115 12.6174 0)
(-12.08 8.72123 0)
(-13.2223 3.88667 0)
(-13.4153 -1.1502 0)
(-12.4153 -5.62155 0)
(-10.2239 -9.12807 0)
(-7.18736 -11.092 0)
(-4.38316 -11.8009 0)
(-2.01321 -12.1677 0)
(-0.309915 -10.9065 0)
(0.265291 -9.06785 0)
(0.352772 -8.45833 0)
(0.10168 -7.88465 0)
(-0.446198 -7.20149 0)
(-1.28251 -6.77932 0)
(-2.39293 -7.20476 0)
(-6.92173 4.57953 0)
(-5.04441 11.6585 0)
(-3.82189 16.4511 0)
(-3.37677 19.6657 0)
(-3.7123 20.0486 0)
(-4.46368 18.1983 0)
(-5.3166 14.6131 0)
(-6.06888 9.52026 0)
(-6.32659 3.71396 0)
(-6.07674 -2.10873 0)
(-5.5518 -7.43801 0)
(-4.86806 -11.6401 0)
(-3.87239 -14.1847 0)
(-2.0122 -15.3314 0)
(-0.558911 -13.5059 0)
(0.280642 -11.5141 0)
(0.346768 -9.46993 0)
(-0.0800333 -7.8909 0)
(-1.0434 -6.72735 0)
(-2.57726 -5.76623 0)
(-4.38671 -5.30867 0)
(-6.34087 -5.71097 0)
(-7.53749 0.791667 0)
(-3.35814 8.97895 0)
(0.171592 14.453 0)
(2.92077 17.8949 0)
(4.3976 19.6918 0)
(4.57119 19.173 0)
(4.49331 16.082 0)
(4.13347 11.0368 0)
(3.56057 4.98675 0)
(3.22267 -1.07219 0)
(3.02507 -6.52808 0)
(2.60343 -10.8433 0)
(1.33347 -13.8697 0)
(0.282709 -15.3688 0)
(-0.572574 -14.5852 0)
(-1.77132 -12.4 0)
(-3.10635 -9.68167 0)
(-4.67307 -7.18581 0)
(-6.60001 -5.2591 0)
(-8.7384 -3.93331 0)
(-11.0322 -3.20492 0)
(-13.6364 -3.15942 0)
(-25.0136 0.878648 0)
(-23.0916 7.04203 0)
(-18.7832 11.9034 0)
(-12.7597 15.2945 0)
(-5.34582 16.5767 0)
(1.7779 15.3018 0)
(7.41167 11.7894 0)
(12.3362 7.19881 0)
(15.5048 1.47458 0)
(16.3505 -4.49085 0)
(14.8248 -8.45553 0)
(11.4542 -11.1208 0)
(6.5075 -12.9685 0)
(1.15401 -13.323 0)
(-4.10746 -11.7397 0)
(-9.00045 -8.99995 0)
(-13.4603 -6.47746 0)
(-16.1227 -4.46123 0)
(-18.4734 -2.78931 0)
(-20.675 -1.53476 0)
(-22.5036 -0.670866 0)
(-24.9313 0.0482891 0)
(-35.7678 -0.386153 0)
(-34.4705 1.87599 0)
(-28.645 3.36065 0)
(-19.6326 4.26171 0)
(-8.81595 4.75617 0)
(2.46524 4.81455 0)
(12.3677 3.75514 0)
(19.315 2.07292 0)
(22.0183 0.428714 0)
(21.9486 -1.28155 0)
(18.376 -2.61623 0)
(13.031 -3.40917 0)
(6.19642 -3.72847 0)
(-2.59089 -3.06555 0)
(-9.35654 -2.2566 0)
(-15.8416 -1.61142 0)
(-21.3257 -1.36045 0)
(-26.1044 -0.837561 0)
(-27.3456 -0.0866741 0)
(-28.8648 0.354182 0)
(-29.0545 0.580543 0)
(-29.8068 1.48143 0)
(7.74815 -0.238689 0)
(8.52414 0.4779 0)
(8.7435 1.13245 0)
(8.10427 1.54341 0)
(6.70299 1.59519 0)
(5.28538 1.31728 0)
(4.26482 0.952465 0)
(3.13143 0.581737 0)
(2.3344 0.264532 0)
(1.65164 0.16425 0)
(0.816307 0.183365 0)
(-0.0309489 0.161091 0)
(-0.723518 0.338606 0)
(-1.11408 0.317946 0)
(-1.29553 0.208072 0)
(-1.27351 0.0956749 0)
(-1.20991 0.00686081 0)
(-1.32494 0.102383 0)
(-1.91682 0.414114 0)
(-3.26215 0.885033 0)
(-5.51338 1.38071 0)
(-8.50395 1.74515 0)
(-12.4338 1.21541 0)
(-16.6572 1.80597 0)
(-20.1736 1.75402 0)
(-22.8638 1.22905 0)
(-24.4419 0.463089 0)
(-24.5581 -0.440561 0)
(-23.0732 -1.37736 0)
(-19.8498 -2.5255 0)
(-14.0299 -3.70742 0)
(-5.58345 -4.75432 0)
(4.08376 -5.39195 0)
(15.2007 -5.56863 0)
(25.7988 -5.25343 0)
(33.6714 -3.564 0)
(38.3866 -1.53218 0)
(39.3579 0.646832 0)
(35.8992 2.93159 0)
(28.18 4.97006 0)
(17.0992 6.24825 0)
(5.99719 6.62196 0)
(-4.67817 6.27391 0)
(-14.6986 4.78984 0)
(-21.7237 2.69058 0)
(-24.9894 0.431882 0)
(-24.1899 -1.71635 0)
(-19.582 -3.47243 0)
(-11.9753 -4.60254 0)
(-2.52947 -5.08601 0)
(7.34339 -5.15247 0)
(16.4604 -4.5597 0)
(24.0598 -3.23391 0)
(29.1739 -1.52543 0)
(30.8812 0.380762 0)
(28.6804 2.33779 0)
(22.5082 4.12965 0)
(13.2676 5.22338 0)
(2.15273 5.73547 0)
(-9.15956 5.8531 0)
(-18.8938 4.97031 0)
(-26.4959 3.04735 0)
(-30.8585 1.0748 0)
(-31.849 -0.697082 0)
(-29.2087 -2.16367 0)
(-24.2291 -3.31636 0)
(-17.5772 -3.66143 0)
(-9.93049 -4.00046 0)
(-2.17597 -3.77056 0)
(4.76935 -3.19123 0)
(10.076 -2.18456 0)
(13.4964 -1.10373 0)
(14.5936 -0.0745957 0)
(13.8647 0.85885 0)
(11.3314 1.55016 0)
(7.59345 1.82402 0)
(3.81941 2.02358 0)
(0.257151 1.7076 0)
(-2.6102 1.25851 0)
(-4.81475 0.793757 0)
(-6.03647 0.306977 0)
(-6.24522 -0.109821 0)
(-5.85617 -0.457629 0)
(-4.75462 -0.763804 0)
(-3.05566 -1.00422 0)
(-0.878811 -1.13644 0)
(1.50848 -1.146 0)
(3.89975 -1.05045 0)
(5.97509 -0.85882 0)
(7.58763 -0.572457 0)
(8.53408 -0.253443 0)
(8.78073 0.0764322 0)
(8.32452 0.389567 0)
(7.21542 0.596107 0)
(5.50029 0.855914 0)
(3.55143 1.08847 0)
(1.52543 1.05669 0)
(-0.536474 0.927008 0)
(-2.34883 0.726925 0)
(-3.74597 0.497371 0)
(-4.65123 0.26789 0)
(-5.05874 0.0479953 0)
(-4.99787 -0.15812 0)
(-4.5126 -0.337701 0)
(-3.67627 -0.473919 0)
(3.90084 -0.772929 0)
(2.71291 -0.440217 0)
(1.27049 0.107373 0)
(0.415363 0.775801 0)
(0.434858 1.43002 0)
(0.502536 1.5702 0)
(0.569438 1.16243 0)
(0.284619 0.932048 0)
(0.154034 1.03234 0)
(-0.164708 1.33349 0)
(-0.692132 1.53527 0)
(-1.27956 1.35593 0)
(-1.7448 1.03926 0)
(-2.38276 0.520373 0)
(-2.68406 -0.0292411 0)
(-2.67704 -0.364487 0)
(-2.40926 -0.204375 0)
(-2.13977 0.476635 0)
(-2.42796 1.46451 0)
(-3.6557 2.67654 0)
(-5.99644 4.04579 0)
(-9.85724 5.34812 0)
(-13.4156 6.57692 0)
(-16.051 6.40191 0)
(-19.325 5.17047 0)
(-21.6973 3.15956 0)
(-22.8615 0.893031 0)
(-22.6705 -1.2322 0)
(-21.0447 -3.46555 0)
(-17.8073 -6.48997 0)
(-12.156 -10.2454 0)
(-3.96528 -13.9053 0)
(6.31832 -15.9308 0)
(17.5006 -15.5693 0)
(27.7382 -13.7112 0)
(35.438 -9.78498 0)
(39.7378 -4.74966 0)
(40.1154 1.61831 0)
(34.6062 8.21658 0)
(26.9555 13.9214 0)
(16.1757 18.0743 0)
(3.05518 19.5457 0)
(-7.66626 16.8021 0)
(-16.98 12.2324 0)
(-22.6461 6.74357 0)
(-24.6085 1.25177 0)
(-23.3258 -4.23001 0)
(-18.5014 -9.15659 0)
(-10.9524 -12.5739 0)
(-1.74947 -14.3013 0)
(8.43889 -14.2981 0)
(17.7501 -12.3146 0)
(25.054 -9.10429 0)
(29.4415 -4.95832 0)
(30.5263 -0.057481 0)
(27.9649 5.45866 0)
(22.2656 11.581 0)
(11.2912 15.9458 0)
(-1.23092 18.1706 0)
(-11.5877 16.3673 0)
(-20.4209 12.6157 0)
(-26.2269 7.58864 0)
(-28.9203 2.52536 0)
(-28.9393 -2.07102 0)
(-26.6047 -5.89779 0)
(-21.3901 -8.6617 0)
(-14.7421 -10.3388 0)
(-7.8648 -10.8732 0)
(-0.614964 -10.2842 0)
(5.59626 -8.4101 0)
(9.9517 -5.91214 0)
(12.4995 -2.99006 0)
(13.1897 -0.0904037 0)
(11.998 2.51697 0)
(9.16292 4.66746 0)
(5.95878 5.81514 0)
(2.59329 5.60257 0)
(-0.628296 4.59887 0)
(-3.11042 3.34038 0)
(-4.85979 2.01397 0)
(-5.73582 0.67179 0)
(-5.72125 -0.381453 0)
(-5.00692 -1.20191 0)
(-3.74696 -1.98938 0)
(-2.01045 -2.76285 0)
(0.127032 -3.36643 0)
(2.45487 -3.55462 0)
(4.66926 -3.32232 0)
(6.53157 -2.69631 0)
(7.69988 -1.74815 0)
(8.23079 -0.664183 0)
(8.09257 0.315499 0)
(7.41237 1.24425 0)
(6.32955 2.16401 0)
(4.99339 2.84924 0)
(3.03059 3.27775 0)
(0.816589 3.23878 0)
(-1.20162 2.86043 0)
(-2.90705 2.24757 0)
(-4.16944 1.51783 0)
(-4.9421 0.776497 0)
(-5.21106 0.080982 0)
(-5.05098 -0.548711 0)
(-4.48832 -1.0874 0)
(-3.58343 -1.47869 0)
(3.56883 0.454996 0)
(3.16698 1.08938 0)
(2.55781 1.68826 0)
(1.84463 2.11573 0)
(1.07803 2.25083 0)
(0.290361 2.05791 0)
(-0.693624 1.64417 0)
(-1.74662 1.23717 0)
(-2.61973 0.909479 0)
(-3.44105 0.714419 0)
(-3.24376 0.758458 0)
(-2.82316 0.928512 0)
(-2.23018 0.998257 0)
(-1.8146 0.85991 0)
(-1.78575 0.492661 0)
(-2.09958 0.0203802 0)
(-2.95958 -0.0329274 0)
(-4.25661 0.685575 0)
(-5.3229 2.18356 0)
(-6.10121 4.29415 0)
(-6.80132 6.46944 0)
(-7.05086 9.02048 0)
(-9.04598 10.9484 0)
(-12.0353 9.82173 0)
(-13.2694 6.99037 0)
(-14.3642 3.11338 0)
(-15.0135 -0.595508 0)
(-15.3332 -3.56725 0)
(-15.2731 -6.79182 0)
(-14.6154 -11.3725 0)
(-11.8907 -17.2841 0)
(-6.01838 -21.5558 0)
(3.41804 -24.1353 0)
(13.4184 -24.3985 0)
(22.0546 -20.8936 0)
(28.3807 -14.0715 0)
(32.3235 -5.51883 0)
(33.019 4.29248 0)
(29.608 14.6097 0)
(21.9626 23.4238 0)
(12.723 28.9979 0)
(2.68878 30.3474 0)
(-6.51176 25.5195 0)
(-12.809 18.0942 0)
(-16.7918 9.40764 0)
(-18.896 0.221478 0)
(-18.4764 -8.58627 0)
(-14.9431 -16.0948 0)
(-8.47893 -21.0397 0)
(-0.783729 -23.1071 0)
(7.45922 -22.4255 0)
(14.5669 -18.8511 0)
(19.8456 -13.3872 0)
(22.7617 -6.37256 0)
(23.1072 2.05861 0)
(20.4803 11.1092 0)
(13.8086 19.5781 0)
(6.02879 26.0049 0)
(-1.74599 28.7208 0)
(-10.3944 25.087 0)
(-14.8017 18.3449 0)
(-17.0996 10.6005 0)
(-17.6029 3.50177 0)
(-17.1073 -2.97077 0)
(-15.8728 -9.24171 0)
(-13.4204 -14.4966 0)
(-9.9013 -18.2675 0)
(-5.53015 -18.8096 0)
(-0.625581 -16.8073 0)
(3.50082 -13.3705 0)
(6.30109 -8.39225 0)
(8.00167 -3.77901 0)
(8.8503 0.335215 0)
(8.94867 5.50675 0)
(8.14583 8.11665 0)
(5.75142 9.27312 0)
(2.60636 8.63997 0)
(0.290154 7.23173 0)
(-1.50303 5.41847 0)
(-3.00639 3.30622 0)
(-4.00778 0.915699 0)
(-4.46253 -1.35537 0)
(-4.50511 -3.11842 0)
(-4.17263 -4.40315 0)
(-3.25047 -5.36806 0)
(-1.56159 -5.83348 0)
(0.792059 -5.62839 0)
(3.20464 -4.8389 0)
(5.23658 -3.60281 0)
(6.55366 -2.10435 0)
(7.01925 -0.592411 0)
(6.71398 0.85624 0)
(6.38996 2.2185 0)
(5.76071 3.55802 0)
(4.53341 4.57948 0)
(2.87802 5.05516 0)
(1.09116 5.10321 0)
(-0.563818 4.63309 0)
(-1.94382 3.69814 0)
(-2.96234 2.51385 0)
(-3.6 1.31855 0)
(-3.87843 0.225476 0)
(-3.87596 -0.80568 0)
(-3.56703 -1.76176 0)
(-2.96621 -2.538 0)
(3.87467 0.192583 0)
(4.49354 0.906715 0)
(5.15445 1.59915 0)
(5.82404 2.15706 0)
(6.43288 2.49334 0)
(6.89766 2.59595 0)
(7.12705 2.5273 0)
(7.07548 2.37782 0)
(6.76951 2.21101 0)
(6.2773 2.02267 0)
(5.42622 1.77328 0)
(4.39217 1.51609 0)
(3.19334 1.26329 0)
(1.79881 1.06436 0)
(0.1693 0.973971 0)
(-1.70069 1.04463 0)
(-3.97797 1.34319 0)
(-6.48552 1.96309 0)
(-9.29871 2.91466 0)
(-11.6224 3.95014 0)
(-13.1126 5.12201 0)
(-13.4434 6.33519 0)
(-11.1657 7.09254 0)
(-6.63377 7.11555 0)
(-1.73682 6.49154 0)
(2.5959 5.84688 0)
(4.65637 4.35855 0)
(4.76668 1.30318 0)
(3.62778 -1.83249 0)
(2.03312 -7.17898 0)
(0.758679 -18.4743 0)
(-2.30675 -32.0032 0)
(-1.17919 -38.1022 0)
(2.53993 -36.9038 0)
(7.67964 -29.8119 0)
(10.9353 -19.593 0)
(13.8476 -7.51628 0)
(14.5804 2.67708 0)
(13.6202 18.942 0)
(10.8397 30.4772 0)
(7.48059 37.9545 0)
(1.82459 38.3491 0)
(-3.69992 32.4661 0)
(-5.99015 23.0308 0)
(-6.25273 12.2346 0)
(-6.66264 2.39694 0)
(-5.56534 -6.82795 0)
(-4.6545 -19.9497 0)
(-2.28605 -26.88 0)
(0.969543 -31.0285 0)
(5.16408 -30.2489 0)
(8.11056 -25.0296 0)
(9.08861 -17.3803 0)
(9.11957 -7.78852 0)
(8.13847 1.62676 0)
(5.30565 13.284 0)
(1.27241 24.6502 0)
(-2.71214 32.5725 0)
(-6.84864 35.6732 0)
(-12.1392 31.318 0)
(-13.7722 21.6218 0)
(-12.8496 10.8569 0)
(-10.5652 1.87018 0)
(-7.4601 -4.43214 0)
(-3.93124 -10.0215 0)
(-0.728492 -14.6083 0)
(1.02141 -18.0314 0)
(1.19071 -20.3044 0)
(0.772122 -20.162 0)
(1.11503 -17.5995 0)
(1.39094 -12.7937 0)
(1.54557 -7.19863 0)
(1.99871 -2.22575 0)
(2.71368 1.79357 0)
(3.97927 8.79088 0)
(5.40305 11.7511 0)
(6.50869 11.3682 0)
(7.3016 9.91738 0)
(7.91772 8.01296 0)
(8.1558 5.80519 0)
(7.03291 2.54698 0)
(5.56896 0.754118 0)
(4.19818 -0.682924 0)
(2.82408 -2.49634 0)
(1.40498 -4.81898 0)
(-0.0527357 -7.62113 0)
(-1.37007 -8.84064 0)
(-1.88684 -8.77204 0)
(-1.6058 -7.34848 0)
(-1.29648 -4.20438 0)
(-0.423929 -1.26368 0)
(0.334769 0.645166 0)
(0.794879 2.04231 0)
(0.710515 3.2178 0)
(0.388476 5.69116 0)
(-0.16371 6.95219 0)
(-0.877085 7.11262 0)