/*--------------------------------*- C++ -*----------------------------------*\
| =========                 |                                                 |
| \\      /  F ield         | OpenFOAM: The Open Source CFD Toolbox           |
|  \\    /   O peration     | Version:  2206                                  |
|   \\  /    A nd           | Website:  www.openfoam.com                      |
|    \\/     M anipulation  |                                                 |
\*---------------------------------------------------------------------------*/
FoamFile
{
    version     2.0;
    format      ascii;
    arch        "LSB;label=32;scalar=64";
    class       volVectorField;
    location    "18.8001";
    object      U;
}
// * * * * * * * * * * * * * * * * * * * * * * * * * * * * * * * * * * * * * //

dimensions      [0 1 -1 0 0 0 0];

internalField   nonuniform List<vector> 
1865
(
(0.471529 -0.0302154 0)
(0.533945 -0.0319284 0)
(0.599984 -0.0340704 0)
(0.668984 -0.0368643 0)
(0.742819 -0.0407338 0)
(0.821275 -0.0462616 0)
(0.913118 -0.0562461 0)
(1.00667 -0.06655 0)
(1.503 -0.0999501 0)
(1.55608 -0.10422 0)
(1.61141 -0.108852 0)
(1.66963 -0.114526 0)
(1.73166 -0.122109 0)
(1.79857 -0.132932 0)
(1.87159 -0.148606 0)
(1.95137 -0.172077 0)
(2.35993 -0.132296 0)
(2.38148 -0.138241 0)
(2.40485 -0.145324 0)
(2.43042 -0.154162 0)
(2.45853 -0.16562 0)
(2.48929 -0.180854 0)
(2.52242 -0.201357 0)
(2.55683 -0.228758 0)
(2.71906 -0.142025 0)
(2.72168 -0.149398 0)
(2.72548 -0.15809 0)
(2.73053 -0.168706 0)
(2.7367 -0.181927 0)
(2.74352 -0.198509 0)
(2.75016 -0.219262 0)
(2.75536 -0.244991 0)
(2.81784 -0.137218 0)
(2.81284 -0.145381 0)
(2.8084 -0.154969 0)
(2.80452 -0.166464 0)
(2.80106 -0.180348 0)
(2.7981 -0.197117 0)
(2.79489 -0.217164 0)
(2.79104 -0.240809 0)
(2.83436 -0.131542 0)
(2.82637 -0.140124 0)
(2.81864 -0.150145 0)
(2.81117 -0.161958 0)
(2.80368 -0.17596 0)
(2.7957 -0.192456 0)
(2.78695 -0.211691 0)
(2.77731 -0.23372 0)
(2.81377 -0.120689 0)
(2.80297 -0.129297 0)
(2.79184 -0.13931 0)
(2.78019 -0.151008 0)
(2.76792 -0.164652 0)
(2.75476 -0.180468 0)
(2.74027 -0.198573 0)
(2.72378 -0.218704 0)
(2.74927 -0.109863 0)
(2.7315 -0.117764 0)
(2.71243 -0.126922 0)
(2.69183 -0.137557 0)
(2.66942 -0.149877 0)
(2.64481 -0.163987 0)
(2.61755 -0.17982 0)
(2.58706 -0.196991 0)
(2.4741 -0.08344 0)
(2.43848 -0.0893207 0)
(2.39989 -0.0961272 0)
(2.35784 -0.10404 0)
(2.31178 -0.113219 0)
(2.26111 -0.123724 0)
(2.20528 -0.135449 0)
(2.14309 -0.147969 0)
(1.43795 -0.0413002 0)
(1.3751 -0.0438767 0)
(1.30798 -0.0468338 0)
(1.23574 -0.0502649 0)
(1.15753 -0.054233 0)
(1.07249 -0.058715 0)
(0.979812 -0.0634822 0)
(0.878854 -0.0680489 0)
(1.13965 -0.109884 0)
(1.29353 -0.158862 0)
(1.44351 -0.228895 0)
(1.57962 -0.325808 0)
(1.68308 -0.436452 0)
(1.74126 -0.535474 0)
(1.75785 -0.601899 0)
(1.74693 -0.638425 0)
(1.70843 -0.645437 0)
(1.64649 -0.615223 0)
(1.56795 -0.551756 0)
(1.47811 -0.463262 0)
(1.38045 -0.358112 0)
(1.28482 -0.246782 0)
(1.20844 -0.139304 0)
(1.17005 -0.0378951 0)
(1.19238 0.0608256 0)
(1.27744 0.152351 0)
(1.41897 0.22337 0)
(1.60893 0.259817 0)
(1.83857 0.25184 0)
(2.09945 0.190883 0)
(2.38108 0.0735906 0)
(2.64814 -0.0788771 0)
(2.8697 -0.232647 0)
(3.02999 -0.360977 0)
(3.12628 -0.448119 0)
(3.16914 -0.501478 0)
(3.16709 -0.543131 0)
(3.13042 -0.566019 0)
(3.06148 -0.57108 0)
(2.96663 -0.560383 0)
(2.85458 -0.53842 0)
(2.73245 -0.506243 0)
(2.60574 -0.465433 0)
(2.48037 -0.419566 0)
(2.36163 -0.371531 0)
(2.25464 -0.322727 0)
(2.16353 -0.274932 0)
(2.08845 -0.232508 0)
(2.0223 -0.202792 0)
(1.9539 -0.193553 0)
(1.87139 -0.206448 0)
(1.7682 -0.235133 0)
(1.64924 -0.266262 0)
(1.53428 -0.282356 0)
(1.43669 -0.270761 0)
(1.36667 -0.223481 0)
(1.33276 -0.143768 0)
(1.3271 -0.0450817 0)
(1.34625 0.0588147 0)
(1.38831 0.157626 0)
(1.44183 0.24451 0)
(1.50361 0.315263 0)
(1.57061 0.368796 0)
(1.64145 0.405391 0)
(1.71576 0.426082 0)
(1.79295 0.432491 0)
(1.87298 0.426086 0)
(1.95629 0.407327 0)
(2.04388 0.375376 0)
(2.13758 0.328094 0)
(2.23933 0.262772 0)
(2.34842 0.178148 0)
(2.45709 0.0797764 0)
(2.55244 -0.021024 0)
(2.62588 -0.114426 0)
(2.67506 -0.191351 0)
(2.69794 -0.251578 0)
(2.70102 -0.292037 0)
(2.68174 -0.315905 0)
(2.62585 -0.315101 0)
(2.54575 -0.291927 0)
(2.44541 -0.253478 0)
(2.3343 -0.209014 0)
(2.223 -0.1687 0)
(2.11693 -0.139298 0)
(2.01928 -0.124174 0)
(1.93191 -0.123877 0)
(1.85566 -0.135472 0)
(1.79012 -0.152827 0)
(1.73404 -0.168815 0)
(1.686 -0.177411 0)
(1.64497 -0.174546 0)
(1.61124 -0.157868 0)
(1.58629 -0.127478 0)
(1.57046 -0.0851124 0)
(1.56431 -0.03385 0)
(1.56821 0.02267 0)
(1.58205 0.0806496 0)
(1.60496 0.13614 0)
(1.63571 0.185998 0)
(1.67303 0.227906 0)
(1.71558 0.260137 0)
(1.76215 0.281572 0)
(1.81151 0.291659 0)
(1.86236 0.290404 0)
(1.91382 0.278228 0)
(1.96529 0.255794 0)
(2.01661 0.22393 0)
(2.068 0.18319 0)
(2.11928 0.134453 0)
(2.16913 0.0796107 0)
(2.21357 0.0232415 0)
(2.24926 -0.0305156 0)
(2.27364 -0.0781267 0)
(2.28497 -0.118124 0)
(2.28094 -0.149378 0)
(2.25844 -0.168495 0)
(2.21816 -0.174005 0)
(2.16317 -0.168607 0)
(2.09944 -0.157314 0)
(2.03434 -0.145565 0)
(1.97271 -0.136976 0)
(1.9169 -0.132714 0)
(1.86802 -0.13204 0)
(1.82616 -0.133111 0)
(1.79075 -0.133617 0)
(1.76092 -0.131266 0)
(2.03889 -0.206833 0)
(2.12859 -0.259737 0)
(2.20588 -0.328462 0)
(2.26509 -0.411119 0)
(2.29328 -0.489105 0)
(2.2899 -0.550095 0)
(2.26129 -0.595297 0)
(2.21249 -0.605995 0)
(2.15184 -0.592974 0)
(2.08563 -0.551787 0)
(2.02205 -0.484889 0)
(1.9685 -0.397638 0)
(1.92941 -0.296852 0)
(1.90919 -0.193465 0)
(1.90963 -0.0982766 0)
(1.92563 -0.0201317 0)
(1.96349 0.0384105 0)
(2.03357 0.0765614 0)
(2.14072 0.0915843 0)
(2.28733 0.0786738 0)
(2.46468 0.0341205 0)
(2.65816 -0.0458227 0)
(2.85267 -0.154571 0)
(3.02157 -0.269017 0)
(3.14943 -0.367576 0)
(3.22396 -0.441302 0)
(3.2529 -0.482701 0)
(3.25655 -0.497398 0)
(3.23454 -0.500236 0)
(3.16573 -0.491823 0)
(3.07058 -0.471674 0)
(2.95308 -0.443166 0)
(2.81977 -0.409043 0)
(2.67818 -0.370412 0)
(2.53637 -0.329676 0)
(2.40088 -0.289706 0)
(2.2768 -0.252723 0)
(2.16894 -0.220001 0)
(2.08117 -0.191859 0)
(2.01473 -0.168566 0)
(1.9663 -0.151219 0)
(1.9275 -0.141221 0)
(1.88905 -0.139283 0)
(1.8402 -0.143429 0)
(1.7702 -0.150931 0)
(1.67534 -0.15814 0)
(1.5646 -0.159618 0)
(1.45851 -0.145706 0)
(1.37369 -0.106366 0)
(1.33006 -0.0408408 0)
(1.31768 0.0361342 0)
(1.33 0.112806 0)
(1.37177 0.184689 0)
(1.42674 0.246899 0)
(1.49189 0.295084 0)
(1.56581 0.326951 0)
(1.64719 0.343411 0)
(1.73498 0.346095 0)
(1.82839 0.336123 0)
(1.92799 0.31329 0)
(2.03591 0.275599 0)
(2.15472 0.21947 0)
(2.28202 0.144919 0)
(2.4048 0.0593777 0)
(2.50995 -0.0264947 0)
(2.59102 -0.102115 0)
(2.64607 -0.167417 0)
(2.6673 -0.219582 0)
(2.66817 -0.257621 0)
(2.64218 -0.273574 0)
(2.58146 -0.264942 0)
(2.48897 -0.232756 0)
(2.37967 -0.187087 0)
(2.26387 -0.137509 0)
(2.15239 -0.0927241 0)
(2.05044 -0.0585485 0)
(1.96046 -0.0387087 0)
(1.88191 -0.0348709 0)
(1.81337 -0.0458509 0)
(1.75306 -0.0676798 0)
(1.69876 -0.0937879 0)
(1.64853 -0.116958 0)
(1.60184 -0.131737 0)
(1.55949 -0.135199 0)
(1.52304 -0.126225 0)
(1.49453 -0.104697 0)
(1.47581 -0.0721647 0)
(1.46731 -0.0311338 0)
(1.46934 0.0150208 0)
(1.48179 0.0629555 0)
(1.50393 0.109426 0)
(1.53463 0.151512 0)
(1.57256 0.186822 0)
(1.61649 0.213663 0)
(1.66511 0.230888 0)
(1.71741 0.238008 0)
(1.77257 0.234963 0)
(1.82998 0.221905 0)
(1.88924 0.198863 0)
(1.94981 0.166144 0)
(2.01025 0.124839 0)
(2.06733 0.0774402 0)
(2.11614 0.0286133 0)
(2.15294 -0.0173167 0)
(2.17562 -0.0577659 0)
(2.18262 -0.0905921 0)
(2.17113 -0.11349 0)
(2.14072 -0.124017 0)
(2.09463 -0.123055 0)
(2.03825 -0.114124 0)
(1.97831 -0.101973 0)
(1.92071 -0.0910373 0)
(1.86768 -0.0841164 0)
(1.82026 -0.082243 0)
(1.7784 -0.0849782 0)
(1.74147 -0.0908211 0)
(1.70854 -0.0975493 0)
(1.67874 -0.102765 0)
(1.65155 -0.104427 0)
(2.59023 -0.265255 0)
(2.61712 -0.312079 0)
(2.63146 -0.366427 0)
(2.62832 -0.420905 0)
(2.60648 -0.471279 0)
(2.56719 -0.511206 0)
(2.51382 -0.53399 0)
(2.45106 -0.536347 0)
(2.38312 -0.51783 0)
(2.31616 -0.479294 0)
(2.25594 -0.42296 0)
(2.2078 -0.351657 0)
(2.17705 -0.273903 0)
(2.16711 -0.198918 0)
(2.18284 -0.130637 0)
(2.22244 -0.0735782 0)
(2.27339 -0.0315058 0)
(2.3503 -0.0126553 0)
(2.4498 -0.0224006 0)
(2.56434 -0.0592109 0)
(2.69008 -0.118997 0)
(2.82437 -0.202684 0)
(2.96073 -0.302094 0)
(3.08133 -0.389608 0)
(3.17681 -0.448471 0)
(3.23601 -0.477157 0)
(3.25468 -0.48384 0)
(3.24766 -0.475683 0)
(3.20703 -0.447565 0)
(3.11447 -0.403012 0)
(2.99416 -0.353221 0)
(2.85194 -0.304124 0)
(2.69565 -0.257834 0)
(2.53757 -0.216717 0)
(2.38594 -0.181906 0)
(2.24705 -0.154131 0)
(2.12515 -0.133923 0)
(2.0238 -0.121365 0)
(1.94567 -0.115132 0)
(1.89032 -0.11296 0)
(1.85536 -0.113061 0)
(1.83545 -0.114547 0)
(1.8223 -0.115332 0)
(1.80849 -0.11254 0)
(1.7895 -0.101336 0)
(1.75505 -0.0807774 0)
(1.69791 -0.0563609 0)
(1.61478 -0.0313108 0)
(1.51902 -0.00725934 0)
(1.43598 0.0201308 0)
(1.38069 0.0572206 0)
(1.35905 0.10351 0)
(1.36259 0.151347 0)
(1.39309 0.194853 0)
(1.44983 0.227632 0)
(1.52145 0.246652 0)
(1.60742 0.252336 0)
(1.70585 0.24619 0)
(1.81603 0.227736 0)
(1.93859 0.193413 0)
(2.07247 0.140169 0)
(2.21106 0.0721394 0)
(2.33712 0.00438324 0)
(2.4402 -0.0556446 0)
(2.50933 -0.111436 0)
(2.54176 -0.160917 0)
(2.55052 -0.197015 0)
(2.52209 -0.215308 0)
(2.45625 -0.218618 0)
(2.36302 -0.199302 0)
(2.25393 -0.159948 0)
(2.14164 -0.111118 0)
(2.03674 -0.0634125 0)
(1.9449 -0.022263 0)
(1.86922 0.00868363 0)
(1.80938 0.0266739 0)
(1.76283 0.0313318 0)
(1.72568 0.0246784 0)
(1.69428 0.00636429 0)
(1.66325 -0.0198699 0)
(1.62789 -0.0471069 0)
(1.58694 -0.0708807 0)
(1.54252 -0.0874251 0)
(1.49842 -0.0946871 0)
(1.45836 -0.0920186 0)
(1.42541 -0.0793116 0)
(1.40193 -0.0569505 0)
(1.38969 -0.0270761 0)
(1.38911 0.00764164 0)
(1.3998 0.0448649 0)
(1.42083 0.0816434 0)
(1.45111 0.115171 0)
(1.4895 0.143391 0)
(1.53481 0.164732 0)
(1.58604 0.177794 0)
(1.64249 0.18151 0)
(1.70337 0.175307 0)
(1.76756 0.158953 0)
(1.83304 0.132994 0)
(1.89545 0.0999804 0)
(1.95043 0.0630304 0)
(1.99348 0.0256802 0)
(2.0214 -0.00791525 0)
(2.03327 -0.0369399 0)
(2.02726 -0.0605189 0)
(2.00368 -0.0726509 0)
(1.96663 -0.0761232 0)
(1.92127 -0.072216 0)
(1.87313 -0.0644661 0)
(1.82719 -0.055866 0)
(1.78554 -0.0485333 0)
(1.74891 -0.043969 0)
(1.71685 -0.0430647 0)
(1.68829 -0.0461465 0)
(1.66193 -0.0526601 0)
(1.63651 -0.0610757 0)
(1.61111 -0.0693701 0)
(1.58535 -0.0756369 0)
(1.55947 -0.0784057 0)
(2.75753 -0.276481 0)
(2.7543 -0.313519 0)
(2.74214 -0.353814 0)
(2.72223 -0.394546 0)
(2.69113 -0.431372 0)
(2.64575 -0.458987 0)
(2.59076 -0.473268 0)
(2.5302 -0.471032 0)
(2.46834 -0.452238 0)
(2.40908 -0.418372 0)
(2.35603 -0.371309 0)
(2.313 -0.313488 0)
(2.28458 -0.252024 0)
(2.27212 -0.196065 0)
(2.27536 -0.14944 0)
(2.29834 -0.112348 0)
(2.34098 -0.0913587 0)
(2.40064 -0.094225 0)
(2.47509 -0.122064 0)
(2.56192 -0.169806 0)
(2.65925 -0.237191 0)
(2.77109 -0.328018 0)
(2.88873 -0.423407 0)
(2.98732 -0.490475 0)
(3.05603 -0.522202 0)
(3.10097 -0.524321 0)
(3.1212 -0.495577 0)
(3.09525 -0.440947 0)
(3.02073 -0.366088 0)
(2.90732 -0.283322 0)
(2.76562 -0.207057 0)
(2.60507 -0.143056 0)
(2.43803 -0.0928524 0)
(2.27558 -0.0568445 0)
(2.12614 -0.0340445 0)
(1.99629 -0.0237068 0)
(1.88951 -0.0252283 0)
(1.80667 -0.0372179 0)
(1.74888 -0.0557001 0)
(1.71538 -0.0753959 0)
(1.70208 -0.09297 0)
(1.70272 -0.105819 0)
(1.71103 -0.111606 0)
(1.72133 -0.107695 0)
(1.7269 -0.091047 0)
(1.72351 -0.0598704 0)
(1.71449 -0.0171856 0)
(1.68846 0.0287809 0)
(1.64636 0.0667896 0)
(1.59434 0.0938536 0)
(1.54055 0.113249 0)
(1.50075 0.129094 0)
(1.48458 0.142697 0)
(1.49327 0.155946 0)
(1.5271 0.163827 0)
(1.58526 0.163951 0)
(1.66774 0.153261 0)
(1.77299 0.130138 0)
(1.89646 0.0938281 0)
(2.02646 0.0465087 0)
(2.14355 -0.00301607 0)
(2.2314 -0.0493624 0)
(2.28151 -0.0901255 0)
(2.30877 -0.114458 0)
(2.30287 -0.132369 0)
(2.26037 -0.139795 0)
(2.18885 -0.138646 0)
(2.09811 -0.124161 0)
(1.99792 -0.100203 0)
(1.89782 -0.0712666 0)
(1.80641 -0.0397195 0)
(1.73107 -0.00803082 0)
(1.67392 0.0177555 0)
(1.63511 0.0359299 0)
(1.61245 0.0475418 0)
(1.60195 0.051936 0)
(1.59998 0.0491863 0)
(1.60272 0.0364543 0)
(1.60345 0.0196 0)
(1.59551 0.0019089 0)
(1.57628 -0.0144352 0)
(1.54651 -0.0284831 0)
(1.50868 -0.0399414 0)
(1.46735 -0.047972 0)
(1.42801 -0.0508612 0)
(1.394 -0.0470183 0)
(1.36822 -0.035816 0)
(1.3534 -0.0173419 0)
(1.34912 0.00565323 0)
(1.35714 0.0313211 0)
(1.3778 0.0576973 0)
(1.40836 0.0822661 0)
(1.44771 0.10246 0)
(1.49447 0.116017 0)
(1.54697 0.12123 0)
(1.60332 0.117556 0)
(1.66092 0.105831 0)
(1.71522 0.0881175 0)
(1.76265 0.0671629 0)
(1.79957 0.0452394 0)
(1.8238 0.0242249 0)
(1.83453 0.00512214 0)
(1.8311 -0.0116099 0)
(1.81504 -0.0227214 0)
(1.78969 -0.0284283 0)
(1.75889 -0.0302764 0)
(1.72686 -0.0298624 0)
(1.69662 -0.0281861 0)
(1.66975 -0.0258749 0)
(1.64688 -0.0233355 0)
(1.62772 -0.0211542 0)
(1.61137 -0.0202907 0)
(1.59656 -0.0217931 0)
(1.5821 -0.0258834 0)
(1.56651 -0.0318827 0)
(1.54864 -0.0387086 0)
(1.52811 -0.0451098 0)
(1.5053 -0.0499104 0)
(1.48111 -0.0521604 0)
(2.78492 -0.268221 0)
(2.77394 -0.298955 0)
(2.75661 -0.331748 0)
(2.73096 -0.363733 0)
(2.69634 -0.390659 0)
(2.65385 -0.408911 0)
(2.60528 -0.416149 0)
(2.55287 -0.410682 0)
(2.49929 -0.392234 0)
(2.44723 -0.361893 0)
(2.39888 -0.321686 0)
(2.35717 -0.275133 0)
(2.32576 -0.227677 0)
(2.30706 -0.186006 0)
(2.30105 -0.155769 0)
(2.30856 -0.137011 0)
(2.33142 -0.133697 0)
(2.36696 -0.15104 0)
(2.41388 -0.190667 0)
(2.47144 -0.251234 0)
(2.54047 -0.336595 0)
(2.61907 -0.440852 0)
(2.68926 -0.524155 0)
(2.74454 -0.563056 0)
(2.77495 -0.567994 0)
(2.78658 -0.552229 0)
(2.76582 -0.484179 0)
(2.70343 -0.381046 0)
(2.60193 -0.262421 0)
(2.46872 -0.145841 0)
(2.31083 -0.0447939 0)
(2.14476 0.0307786 0)
(1.98603 0.0788282 0)
(1.84428 0.101718 0)
(1.72335 0.102867 0)
(1.62574 0.0874104 0)
(1.55314 0.0609477 0)
(1.50453 0.025823 0)
(1.47909 -0.0181786 0)
(1.47558 -0.0642458 0)
(1.48698 -0.101958 0)
(1.50522 -0.126256 0)
(1.52537 -0.137185 0)
(1.54644 -0.132964 0)
(1.5661 -0.110673 0)
(1.58239 -0.0715983 0)
(1.59327 -0.0167723 0)
(1.59272 0.043803 0)
(1.57967 0.0941767 0)
(1.56116 0.130155 0)
(1.54618 0.150487 0)
(1.5377 0.156563 0)
(1.53862 0.155301 0)
(1.55524 0.148414 0)
(1.5935 0.128049 0)
(1.65039 0.096599 0)
(1.71549 0.0557699 0)
(1.77514 0.0111975 0)
(1.82535 -0.0271493 0)
(1.86897 -0.0519308 0)
(1.89346 -0.0635309 0)
(1.89978 -0.0704173 0)
(1.8862 -0.0734401 0)
(1.85382 -0.0721639 0)
(1.80636 -0.064413 0)
(1.74636 -0.0528089 0)
(1.67684 -0.0396851 0)
(1.60373 -0.02588 0)
(1.53578 -0.0121668 0)
(1.47819 0.00185752 0)
(1.43466 0.0155894 0)
(1.40686 0.0273832 0)
(1.3942 0.03677 0)
(1.39483 0.0431474 0)
(1.41022 0.0444822 0)
(1.43515 0.0394863 0)
(1.46207 0.0298271 0)
(1.48416 0.0208444 0)
(1.49804 0.0138091 0)
(1.50301 0.00761728 0)
(1.4973 0.00117003 0)
(1.48202 -0.00447786 0)
(1.4606 -0.00983539 0)
(1.43585 -0.014895 0)
(1.40927 -0.0185457 0)
(1.38279 -0.0192086 0)
(1.36108 -0.0159542 0)
(1.34653 -0.00866243 0)
(1.33986 0.00198593 0)
(1.34102 0.0146711 0)
(1.35121 0.0283326 0)
(1.37082 0.041641 0)
(1.39858 0.052389 0)
(1.43211 0.060315 0)
(1.46837 0.0643733 0)
(1.50236 0.0644518 0)
(1.53124 0.0614654 0)
(1.55322 0.0559472 0)
(1.56748 0.0477389 0)
(1.57425 0.0381701 0)
(1.57398 0.0279594 0)
(1.56818 0.0185689 0)
(1.5586 0.01031 0)
(1.54694 0.00295323 0)
(1.53497 -0.00347841 0)
(1.52373 -0.00843393 0)
(1.51373 -0.0117036 0)
(1.50512 -0.0133215 0)
(1.49773 -0.0137875 0)
(1.49125 -0.0134128 0)
(1.48526 -0.0128375 0)
(1.4793 -0.0128122 0)
(1.47255 -0.0137781 0)
(1.464 -0.0158148 0)
(1.4529 -0.0186983 0)
(1.439 -0.0220316 0)
(1.42255 -0.0252972 0)
(1.40415 -0.0278971 0)
(1.38469 -0.0292473 0)
(2.76531 -0.258144 0)
(2.74924 -0.284094 0)
(2.72808 -0.310187 0)
(2.70085 -0.334258 0)
(2.66708 -0.353637 0)
(2.62724 -0.365929 0)
(2.58265 -0.369275 0)
(2.53504 -0.362197 0)
(2.48627 -0.344174 0)
(2.43818 -0.316226 0)
(2.39201 -0.280515 0)
(2.34884 -0.240476 0)
(2.31075 -0.202739 0)
(2.28274 -0.171792 0)
(2.26654 -0.151615 0)
(2.25878 -0.14434 0)
(2.25625 -0.14987 0)
(2.25771 -0.175612 0)
(2.26301 -0.224412 0)
(2.27398 -0.295273 0)
(2.27931 -0.386336 0)
(2.26235 -0.480563 0)
(2.22754 -0.551172 0)
(2.18144 -0.574024 0)
(2.13246 -0.568675 0)
(2.0749 -0.523397 0)
(2.00094 -0.421497 0)
(1.90953 -0.286754 0)
(1.79718 -0.135684 0)
(1.67156 0.00454297 0)
(1.55323 0.111306 0)
(1.4482 0.179125 0)
(1.35911 0.210353 0)
(1.28679 0.211358 0)
(1.23148 0.194154 0)
(1.19365 0.154547 0)
(1.1745 0.100418 0)
(1.1697 0.034989 0)
(1.173 -0.0298991 0)
(1.17569 -0.0832206 0)
(1.17362 -0.121162 0)
(1.16883 -0.142764 0)
(1.16317 -0.149469 0)
(1.16075 -0.146916 0)
(1.16417 -0.127153 0)
(1.1766 -0.0883082 0)
(1.20008 -0.0335795 0)
(1.23416 0.0298982 0)
(1.26804 0.0845534 0)
(1.29553 0.120713 0)
(1.31447 0.13784 0)
(1.32844 0.141354 0)
(1.33994 0.132246 0)
(1.34752 0.111415 0)
(1.34812 0.0845849 0)
(1.33984 0.0599192 0)
(1.32618 0.0412571 0)
(1.3149 0.0229444 0)
(1.31305 -0.00232746 0)
(1.31911 -0.02833 0)
(1.32793 -0.0446624 0)
(1.33427 -0.0507413 0)
(1.33466 -0.0502147 0)
(1.32107 -0.0406475 0)
(1.29221 -0.0236815 0)
(1.25332 -0.00391388 0)
(1.21238 0.0133633 0)
(1.17546 0.0253926 0)
(1.14601 0.0307178 0)
(1.12683 0.0323362 0)
(1.1193 0.0327097 0)
(1.1235 0.0316872 0)
(1.1407 0.0263305 0)
(1.16628 0.0151286 0)
(1.19503 0.00425274 0)
(1.22191 -0.00137011 0)
(1.24365 -0.00212929 0)
(1.25869 -0.00106553 0)
(1.26636 0.000104137 0)
(1.26795 0.00352388 0)
(1.26229 0.00802064 0)
(1.25171 0.0106337 0)
(1.23852 0.00996987 0)
(1.22403 0.00705414 0)
(1.20944 0.00377916 0)
(1.19588 0.00145474 0)
(1.18423 0.00113559 0)
(1.17549 0.00382526 0)
(1.17068 0.00971019 0)
(1.17069 0.0174221 0)
(1.17541 0.0255033 0)
(1.18431 0.0332518 0)
(1.19636 0.0401771 0)
(1.21023 0.0459296 0)
(1.22456 0.0501728 0)
(1.23821 0.0524465 0)
(1.25025 0.052227 0)
(1.26017 0.0494195 0)
(1.26769 0.0443071 0)
(1.27274 0.0373026 0)
(1.27565 0.0290336 0)
(1.27699 0.0200537 0)
(1.27721 0.0113105 0)
(1.27648 0.00358456 0)
(1.2748 -0.00256509 0)
(1.27223 -0.00698703 0)
(1.26894 -0.00978622 0)
(1.26511 -0.0110322 0)
(1.26091 -0.0108737 0)
(1.25629 -0.00970512 0)
(1.2512 -0.00804896 0)
(1.24559 -0.00646836 0)
(1.2394 -0.00546586 0)
(1.23247 -0.00535717 0)
(1.22466 -0.00621045 0)
(1.216 -0.00780247 0)
(1.20662 -0.00973764 0)
(1.19672 -0.0115835 0)
(1.18651 -0.0128609 0)
(2.70456 -0.240138 0)
(2.68181 -0.261926 0)
(2.65464 -0.282869 0)
(2.62212 -0.301314 0)
(2.58386 -0.315303 0)
(2.54025 -0.322936 0)
(2.49197 -0.322614 0)
(2.4405 -0.313098 0)
(2.38781 -0.293769 0)
(2.33476 -0.264817 0)
(2.28194 -0.229112 0)
(2.23017 -0.19215 0)
(2.18051 -0.16072 0)
(2.13488 -0.139833 0)
(2.09362 -0.12766 0)
(2.05427 -0.121482 0)
(2.01456 -0.124981 0)
(1.97229 -0.150227 0)
(1.91322 -0.204936 0)
(1.81723 -0.254119 0)
(1.66824 -0.301159 0)
(1.50177 -0.366897 0)
(1.3716 -0.432812 0)
(1.2659 -0.471075 0)
(1.16717 -0.460926 0)
(1.0711 -0.397407 0)
(0.975564 -0.283348 0)
(0.885168 -0.138429 0)
(0.81066 0.00161931 0)
(0.763169 0.115702 0)
(0.737452 0.19429 0)
(0.728774 0.234918 0)
(0.733482 0.244291 0)
(0.749391 0.230555 0)
(0.769917 0.193268 0)
(0.787771 0.142444 0)
(0.795622 0.0866851 0)
(0.788186 0.0326142 0)
(0.765257 -0.0169334 0)
(0.732691 -0.0595245 0)
(0.698984 -0.0927578 0)
(0.669044 -0.115946 0)
(0.644701 -0.128762 0)
(0.625375 -0.130638 0)
(0.611735 -0.120591 0)
(0.607322 -0.0981915 0)
(0.615064 -0.0619386 0)
(0.635514 -0.0114325 0)
(0.665345 0.0432364 0)
(0.696571 0.087233 0)
(0.721183 0.11568 0)
(0.73641 0.129161 0)
(0.743764 0.131866 0)
(0.745931 0.129995 0)
(0.746656 0.119138 0)
(0.752271 0.0944702 0)
(0.767614 0.0556645 0)
(0.790653 0.00687671 0)
(0.813641 -0.0368127 0)
(0.830299 -0.0636492 0)
(0.839203 -0.0723271 0)
(0.840968 -0.0700439 0)
(0.83487 -0.0505072 0)
(0.820404 -0.0199752 0)
(0.80276 0.00809108 0)
(0.787955 0.0282147 0)
(0.777664 0.0391401 0)
(0.771795 0.0404946 0)
(0.77056 0.0385749 0)
(0.773515 0.0310899 0)
(0.780514 0.0195655 0)
(0.790335 0.00718784 0)
(0.801008 -0.00283226 0)
(0.81017 -0.00959279 0)
(0.816514 -0.0118204 0)
(0.82087 -0.0109441 0)
(0.824655 -0.00883964 0)
(0.82772 -0.00361301 0)
(0.828833 0.0036804 0)
(0.828676 0.0107661 0)
(0.828345 0.0157269 0)
(0.828094 0.0177809 0)
(0.826952 0.0170306 0)
(0.824873 0.014564 0)
(0.822155 0.0112341 0)
(0.819556 0.00845908 0)
(0.81767 0.00703215 0)
(0.817084 0.00716256 0)
(0.81862 0.00901218 0)
(0.822599 0.0121853 0)
(0.828744 0.0164351 0)
(0.836565 0.0215215 0)
(0.845501 0.0270066 0)
(0.855032 0.0323582 0)
(0.864758 0.0368939 0)
(0.874417 0.0399823 0)
(0.883733 0.0411476 0)
(0.892416 0.0401393 0)
(0.900147 0.0369506 0)
(0.906646 0.0318849 0)
(0.911782 0.0253629 0)
(0.915468 0.0181238 0)
(0.917745 0.0110474 0)
(0.918759 0.00484056 0)
(0.918662 -9.2775e-05 0)
(0.917645 -0.00357265 0)
(0.915928 -0.00561546 0)
(0.913682 -0.00628809 0)
(0.911187 -0.00579597 0)
(0.908626 -0.00445098 0)
(0.906208 -0.00284987 0)
(0.903999 -0.00171393 0)
(0.902032 -0.00119675 0)
(0.900108 -0.00129461 0)
(0.898001 -0.00205432 0)
(0.895545 -0.00351456 0)
(0.892637 -0.00531373 0)
(0.889239 -0.00689399 0)
(0.885405 -0.00788532 0)
(2.55251 -0.214668 0)
(2.51313 -0.231831 0)
(2.46793 -0.247393 0)
(2.41601 -0.260146 0)
(2.35699 -0.268847 0)
(2.29143 -0.272271 0)
(2.22105 -0.269505 0)
(2.14811 -0.259763 0)
(2.07492 -0.241924 0)
(2.00185 -0.213582 0)
(1.92809 -0.175168 0)
(1.85196 -0.134094 0)
(1.77828 -0.102563 0)
(1.70829 -0.0854984 0)
(1.64266 -0.0808279 0)
(1.57744 -0.0814293 0)
(1.49748 -0.0795556 0)
(1.37367 -0.0654458 0)
(1.18789 -0.0409711 0)
(1.00058 -0.0448312 0)
(0.859526 -0.11041 0)
(0.755707 -0.224277 0)
(0.658785 -0.319785 0)
(0.545071 -0.359463 0)
(0.423769 -0.343569 0)
(0.310952 -0.283197 0)
(0.217775 -0.189563 0)
(0.152774 -0.0803933 0)
(0.11918 0.0261378 0)
(0.117443 0.111167 0)
(0.139388 0.167149 0)
(0.178315 0.194232 0)
(0.224952 0.196028 0)
(0.271717 0.179685 0)
(0.312294 0.154334 0)
(0.341753 0.123584 0)
(0.358803 0.0890319 0)
(0.363914 0.0506713 0)
(0.359019 0.00903299 0)
(0.343733 -0.0305801 0)
(0.318805 -0.0633604 0)
(0.286832 -0.0871578 0)
(0.251114 -0.100894 0)
(0.214203 -0.104179 0)
(0.17953 -0.097363 0)
(0.150464 -0.0792561 0)
(0.130921 -0.0496297 0)
(0.123861 -0.00998036 0)
(0.131775 0.0342999 0)
(0.152435 0.0727254 0)
(0.181172 0.100136 0)
(0.214154 0.114751 0)
(0.249268 0.11613 0)
(0.285369 0.104795 0)
(0.321217 0.08072 0)
(0.354339 0.0475583 0)
(0.380408 0.012273 0)
(0.395311 -0.0189845 0)
(0.398324 -0.0425911 0)
(0.392746 -0.0556883 0)
(0.382008 -0.0565242 0)
(0.369536 -0.0454013 0)
(0.358109 -0.0268 0)
(0.351156 -0.00580367 0)
(0.350152 0.0125893 0)
(0.354829 0.0254247 0)
(0.362796 0.0315917 0)
(0.372304 0.0316145 0)
(0.381801 0.0268286 0)
(0.390079 0.019766 0)
(0.396007 0.0126694 0)
(0.399464 0.00615088 0)
(0.400598 0.000123842 0)
(0.400251 -0.00524721 0)
(0.399349 -0.00839745 0)
(0.39824 -0.00889427 0)
(0.397077 -0.00685478 0)
(0.396775 -0.00279194 0)
(0.397751 0.00242264 0)
(0.400435 0.00790646 0)
(0.404552 0.0119885 0)
(0.409593 0.0139014 0)
(0.414821 0.0134977 0)
(0.419589 0.0112739 0)
(0.423483 0.00822924 0)
(0.426465 0.00541018 0)
(0.428844 0.00365883 0)
(0.431103 0.00348654 0)
(0.433667 0.00500257 0)
(0.437089 0.00794107 0)
(0.441732 0.0119356 0)
(0.447785 0.0165653 0)
(0.455332 0.0213517 0)
(0.46435 0.0257952 0)
(0.474662 0.0293275 0)
(0.485933 0.0314397 0)
(0.497717 0.0318288 0)
(0.509453 0.0304516 0)
(0.520558 0.0274673 0)
(0.530493 0.0231669 0)
(0.538772 0.0180293 0)
(0.545079 0.0125205 0)
(0.549356 0.00722287 0)
(0.551785 0.00261491 0)
(0.552616 -0.000996528 0)
(0.552264 -0.00342921 0)
(0.55119 -0.00470411 0)
(0.549785 -0.00494524 0)
(0.548429 -0.00439847 0)
(0.5474 -0.00336537 0)
(0.546857 -0.0022459 0)
(0.54674 -0.00137704 0)
(0.546896 -0.000925587 0)
(0.547121 -0.000924083 0)
(0.547202 -0.00147812 0)
(0.546926 -0.00243116 0)
(0.546113 -0.00348104 0)
(0.544735 -0.00436184 0)
(0.542906 -0.00483292 0)
(2.0739 -0.160496 0)
(1.99774 -0.171443 0)
(1.90872 -0.17878 0)
(1.80636 -0.181887 0)
(1.69196 -0.180653 0)
(1.56821 -0.175253 0)
(1.43958 -0.166133 0)
(1.30992 -0.153749 0)
(1.18981 -0.13909 0)
(1.08 -0.119647 0)
(1.00002 -0.0961482 0)
(0.919303 -0.064207 0)
(0.823506 -0.0277274 0)
(0.714773 0.0019459 0)
(0.591404 0.0272571 0)
(0.49265 0.0565059 0)
(0.432324 0.101085 0)
(0.413578 0.128695 0)
(0.411021 0.114426 0)
(0.417684 0.0318852 0)
(0.403174 -0.0690574 0)
(0.332101 -0.14863 0)
(0.206303 -0.194758 0)
(0.0589842 -0.209008 0)
(-0.087127 -0.19958 0)
(-0.214285 -0.164358 0)
(-0.307902 -0.109046 0)
(-0.358904 -0.0434811 0)
(-0.367942 0.0203385 0)
(-0.341711 0.0717585 0)
(-0.28916 0.106956 0)
(-0.220749 0.125033 0)
(-0.145892 0.128515 0)
(-0.0720706 0.121416 0)
(-0.00544944 0.106541 0)
(0.0496983 0.0859202 0)
(0.0909859 0.0616573 0)
(0.116634 0.0356774 0)
(0.12619 0.0104415 0)
(0.119747 -0.0131155 0)
(0.0987808 -0.0328503 0)
(0.0667038 -0.0474146 0)
(0.0275875 -0.0570401 0)
(-0.0154956 -0.0612569 0)
(-0.0580798 -0.0589986 0)
(-0.0951533 -0.0497809 0)
(-0.122167 -0.0332702 0)
(-0.134059 -0.0105332 0)
(-0.129223 0.0155497 0)
(-0.109174 0.0391598 0)
(-0.0762779 0.056079 0)
(-0.0347429 0.0643931 0)
(0.011265 0.064278 0)
(0.0560164 0.0569306 0)
(0.0937718 0.0435295 0)
(0.120744 0.0257536 0)
(0.134271 0.00574268 0)
(0.13315 -0.0144339 0)
(0.119465 -0.029769 0)
(0.0980851 -0.0376308 0)
(0.0742859 -0.0384655 0)
(0.0530779 -0.0326031 0)
(0.0382513 -0.0214527 0)
(0.0318643 -0.00801201 0)
(0.0341208 0.00426463 0)
(0.0427897 0.0127166 0)
(0.0544226 0.017052 0)
(0.0672304 0.0178558 0)
(0.0792443 0.0161353 0)
(0.0890952 0.0124823 0)
(0.0960823 0.00766031 0)
(0.100093 0.00254898 0)
(0.101298 -0.00208687 0)
(0.100128 -0.00543137 0)
(0.0975802 -0.00729647 0)
(0.0946424 -0.00748077 0)
(0.0922315 -0.00621767 0)
(0.0911515 -0.0036613 0)
(0.092032 -0.000445377 0)
(0.0949032 0.00270264 0)
(0.0996157 0.00502823 0)
(0.105474 0.00610833 0)
(0.111565 0.00597714 0)
(0.117065 0.00493663 0)
(0.121564 0.00341603 0)
(0.124944 0.00202378 0)
(0.127461 0.00115413 0)
(0.129658 0.00112371 0)
(0.132055 0.00196833 0)
(0.135243 0.00360785 0)
(0.139698 0.00588003 0)
(0.14572 0.00855186 0)
(0.153514 0.0113343 0)
(0.163089 0.0139125 0)
(0.17423 0.0159893 0)
(0.18651 0.0173279 0)
(0.1993 0.0177336 0)
(0.211929 0.0171343 0)
(0.223754 0.0155602 0)
(0.234171 0.013173 0)
(0.24276 0.010225 0)
(0.249231 0.00703724 0)
(0.25356 0.00393154 0)
(0.255938 0.00116086 0)
(0.25673 -0.00109749 0)
(0.256359 -0.0026624 0)
(0.255265 -0.00355418 0)
(0.253884 -0.00384163 0)
(0.252559 -0.00364188 0)
(0.251576 -0.00314224 0)
(0.251037 -0.00254203 0)
(0.250894 -0.00205442 0)
(0.250988 -0.00179009 0)
(0.251171 -0.00178309 0)
(0.251232 -0.00204778 0)
(0.250994 -0.0025139 0)
(0.250341 -0.00305579 0)
(0.249285 -0.00351049 0)
(0.247962 -0.00373083 0)
(0.769525 -0.0716834 0)
(0.650476 -0.0716881 0)
(0.53309 -0.0662388 0)
(0.420785 -0.0563603 0)
(0.313833 -0.0447664 0)
(0.213953 -0.0331732 0)
(0.122323 -0.0228458 0)
(0.0393752 -0.014062 0)
(-0.0429702 -0.00241557 0)
(-0.118086 0.017359 0)
(-0.171448 0.056457 0)
(-0.173842 0.0965899 0)
(-0.143524 0.116909 0)
(-0.0869551 0.117612 0)
(-0.0180354 0.0943886 0)
(0.0515686 0.0577766 0)
(0.115063 0.0249281 0)
(0.174904 0.00571448 0)
(0.228302 -0.00599463 0)
(0.256125 -0.0180757 0)
(0.237783 -0.037153 0)
(0.166921 -0.062131 0)
(0.0500722 -0.0825038 0)
(-0.0989089 -0.0918483 0)
(-0.248519 -0.0812631 0)
(-0.375763 -0.0627849 0)
(-0.472107 -0.0402592 0)
(-0.527005 -0.0156895 0)
(-0.538637 0.00852202 0)
(-0.512602 0.0285297 0)
(-0.456477 0.0416005 0)
(-0.380221 0.0479044 0)
(-0.294859 0.0486775 0)
(-0.211173 0.0453814 0)
(-0.133607 0.0395882 0)
(-0.0669575 0.0322397 0)
(-0.0148148 0.0238558 0)
(0.0202855 0.0147124 0)
(0.0379255 0.00519415 0)
(0.0394108 -0.00412014 0)
(0.0264632 -0.012014 0)
(0.000190825 -0.0177621 0)
(-0.035942 -0.0220125 0)
(-0.0770373 -0.0232229 0)
(-0.118344 -0.0217061 0)
(-0.155518 -0.0181501 0)
(-0.1839 -0.0125058 0)
(-0.199008 -0.00503866 0)
(-0.198597 0.00330747 0)
(-0.182833 0.0112606 0)
(-0.152923 0.0171772 0)
(-0.113716 0.0202481 0)
(-0.070401 0.020665 0)
(-0.02871 0.0181125 0)
(0.00603371 0.0133944 0)
(0.0299923 0.0071709 0)
(0.0403531 0.000467543 0)
(0.0372925 -0.00636543 0)
(0.0231578 -0.0114691 0)
(-0.000308275 -0.0139527 0)
(-0.02756 -0.0143703 0)
(-0.05237 -0.0122155 0)
(-0.0709995 -0.00802187 0)
(-0.0812294 -0.00318582 0)
(-0.082869 0.00123294 0)
(-0.0773382 0.00411062 0)
(-0.0675952 0.00569116 0)
(-0.0557022 0.00602568 0)
(-0.0439157 0.00537195 0)
(-0.034059 0.00407476 0)
(-0.027028 0.00246871 0)
(-0.0233949 0.000798294 0)
(-0.0230292 -0.000871871 0)
(-0.0254629 -0.00221614 0)
(-0.0299094 -0.00297574 0)
(-0.0353571 -0.0031736 0)
(-0.0405573 -0.00284861 0)
(-0.0445575 -0.00211521 0)
(-0.0466382 -0.00108752 0)
(-0.0464531 7.91146e-05 0)
(-0.0445968 0.000981042 0)
(-0.0414857 0.0014371 0)
(-0.0378793 0.00144553 0)
(-0.0345344 0.00111008 0)
(-0.0319521 0.000629268 0)
(-0.0304622 0.000220306 0)
(-0.0298235 -7.59916e-05 0)
(-0.0294754 -7.69656e-05 0)
(-0.0289615 0.000171763 0)
(-0.0276835 0.000732056 0)
(-0.0252239 0.00148998 0)
(-0.0211406 0.00237963 0)
(-0.0152281 0.00331446 0)
(-0.00743696 0.0041712 0)
(0.00209275 0.00485617 0)
(0.0128403 0.00530857 0)
(0.024215 0.00541901 0)
(0.0356245 0.0051744 0)
(0.046377 0.00461524 0)
(0.0558355 0.00379999 0)
(0.0635128 0.00281811 0)
(0.06912 0.00174926 0)
(0.0725881 0.000720062 0)
(0.0740476 -0.000181121 0)
(0.0738396 -0.000923365 0)
(0.0723943 -0.0014397 0)
(0.0701072 -0.00172771 0)
(0.0673498 -0.00182515 0)
(0.0645695 -0.00179828 0)
(0.0620482 -0.00165721 0)
(0.0598505 -0.00148301 0)
(0.0579972 -0.00134022 0)
(0.0563968 -0.00126518 0)
(0.0548938 -0.00127347 0)
(0.0533013 -0.00136246 0)
(0.0514532 -0.00151686 0)
(0.0492464 -0.00169173 0)
(0.04668 -0.00183382 0)
(0.0438677 -0.0018947 0)
(-0.0459004 0.0505327 0)
(-0.151941 0.000690471 0)
(-0.254107 -0.0907416 0)
(-0.348359 -0.224023 0)
(-0.425689 -0.381655 0)
(-0.485417 -0.546538 0)
(-0.523403 -0.701239 0)
(-0.553224 -0.824636 0)
(-0.566805 -0.892372 0)
(-0.557213 -0.881724 0)
(-0.490433 -0.748138 0)
(-0.36809 -0.517743 0)
(-0.203551 -0.22971 0)