/*--------------------------------*- C++ -*----------------------------------*\
| =========                 |                                                 |
| \\      /  F ield         | OpenFOAM: The Open Source CFD Toolbox           |
|  \\    /   O peration     | Version:  2206                                  |
|   \\  /    A nd           | Website:  www.openfoam.com                      |
|    \\/     M anipulation  |                                                 |
\*---------------------------------------------------------------------------*/
FoamFile
{
    version     2.0;
    format      ascii;
    arch        "LSB;label=32;scalar=64";
    class       volVectorField;
    location    "18.0999";
    object      U;
}
// * * * * * * * * * * * * * * * * * * * * * * * * * * * * * * * * * * * * * //

dimensions      [0 1 -1 0 0 0 0];

internalField   nonuniform List<vector> 
4866
(
(1.35931 -0.507729 0)
(1.37584 -0.534368 0)
(1.39147 -0.557009 0)
(1.40601 -0.576147 0)
(1.41935 -0.59224 0)
(1.43147 -0.605661 0)
(1.44236 -0.616695 0)
(1.45205 -0.62553 0)
(1.46057 -0.632251 0)
(1.46805 -0.636783 0)
(1.47482 -0.638756 0)
(1.48109 -0.637268 0)
(1.4867 -0.631523 0)
(1.49187 -0.621035 0)
(1.49674 -0.605271 0)
(1.50146 -0.583656 0)
(1.50615 -0.555657 0)
(1.51091 -0.520847 0)
(1.51582 -0.478957 0)
(1.52092 -0.429929 0)
(1.52627 -0.373955 0)
(1.53185 -0.311513 0)
(1.53765 -0.243382 0)
(1.54364 -0.170663 0)
(1.54977 -0.0948156 0)
(1.55587 -0.0178289 0)
(1.56171 0.058075 0)
(1.56711 0.131383 0)
(1.57189 0.200738 0)
(1.57584 0.265021 0)
(1.5788 0.323392 0)
(1.58065 0.375313 0)
(1.58132 0.420533 0)
(1.58078 0.459058 0)
(1.57903 0.491108 0)
(1.5761 0.517066 0)
(1.57206 0.537426 0)
(1.56696 0.552746 0)
(1.56086 0.563582 0)
(1.55368 0.570428 0)
(1.54531 0.573629 0)
(1.53589 0.573677 0)
(1.52542 0.571223 0)
(1.51398 0.566715 0)
(1.50164 0.56043 0)
(1.48852 0.552468 0)
(1.47475 0.542768 0)
(1.46048 0.531136 0)
(1.4459 0.517282 0)
(1.43119 0.500855 0)
(1.41657 0.481485 0)
(1.40223 0.458815 0)
(1.3884 0.43254 0)
(1.37532 0.402425 0)
(1.36319 0.368333 0)
(1.35226 0.330246 0)
(1.34277 0.288271 0)
(1.33493 0.242628 0)
(1.32894 0.193696 0)
(1.32495 0.142005 0)
(1.32305 0.088222 0)
(1.32328 0.0331383 0)
(1.32557 -0.0223359 0)
(1.32979 -0.0772455 0)
(1.33576 -0.13086 0)
(1.34327 -0.182486 0)
(1.3521 -0.231528 0)
(1.36198 -0.27748 0)
(1.37266 -0.31995 0)
(1.38386 -0.358672 0)
(1.39534 -0.393483 0)
(1.40687 -0.42434 0)
(1.41826 -0.451292 0)
(1.42937 -0.474442 0)
(1.44003 -0.493949 0)
(1.45014 -0.510025 0)
(1.45961 -0.522902 0)
(1.4684 -0.532805 0)
(1.47649 -0.539924 0)
(1.48393 -0.544366 0)
(1.49091 -0.54603 0)
(1.49752 -0.544505 0)
(1.5037 -0.539556 0)
(1.50961 -0.531047 0)
(1.51538 -0.518776 0)
(1.52111 -0.50249 0)
(1.5269 -0.481921 0)
(1.53284 -0.456824 0)
(1.53898 -0.427018 0)
(1.54535 -0.392415 0)
(1.55197 -0.353048 0)
(1.55881 -0.309089 0)
(1.56584 -0.260859 0)
(1.57301 -0.208831 0)
(1.58024 -0.153636 0)
(1.58748 -0.0960714 0)
(1.5946 -0.0371594 0)
(1.60143 0.0217323 0)
(1.6078 0.0795266 0)
(1.6136 0.135338 0)
(1.61868 0.188367 0)
(1.62293 0.237933 0)
(1.62625 0.283494 0)
(1.62855 0.324663 0)
(1.62978 0.361199 0)
(1.62993 0.393001 0)
(1.62901 0.420094 0)
(1.62702 0.442605 0)
(1.62401 0.460745 0)
(1.62004 0.474785 0)
(1.61516 0.485025 0)
(1.60936 0.491741 0)
(1.60246 0.495078 0)
(1.59456 0.495216 0)
(1.58572 0.49263 0)
(1.57599 0.487714 0)
(1.56547 0.480771 0)
(1.55429 0.472004 0)
(1.54259 0.461511 0)
(1.53052 0.449275 0)
(1.51826 0.435182 0)
(1.50601 0.41904 0)
(1.49395 0.400608 0)
(1.48227 0.37963 0)
(1.47114 0.355872 0)
(1.46075 0.32915 0)
(1.45125 0.299354 0)
(1.44282 0.266466 0)
(1.43558 0.230569 0)
(1.42965 0.191866 0)
(1.42515 0.150677 0)
(1.42212 0.107415 0)
(1.42061 0.0625805 0)
(1.42062 0.0167626 0)
(1.42211 -0.0293238 0)
(1.42498 -0.0749644 0)
(1.42913 -0.119623 0)
(1.43444 -0.162776 0)
(1.44075 -0.203941 0)
(1.36572 -0.526043 0)
(1.38095 -0.551695 0)
(1.39512 -0.573099 0)
(1.40802 -0.590849 0)
(1.41956 -0.605479 0)
(1.42969 -0.617434 0)
(1.43845 -0.627029 0)
(1.44588 -0.634444 0)
(1.45201 -0.639833 0)
(1.45686 -0.64332 0)
(1.46085 -0.644517 0)
(1.46421 -0.642238 0)
(1.46678 -0.635815 0)
(1.46881 -0.624863 0)
(1.47049 -0.608825 0)
(1.47199 -0.5871 0)
(1.47348 -0.559137 0)
(1.47508 -0.524492 0)
(1.47694 -0.482877 0)
(1.47917 -0.434208 0)
(1.48187 -0.378651 0)
(1.48513 -0.316654 0)
(1.48898 -0.248972 0)
(1.49344 -0.176679 0)
(1.49849 -0.101175 0)
(1.50403 -0.0243303 0)
(1.50983 0.051655 0)
(1.51569 0.125274 0)
(1.52139 0.195179 0)
(1.5267 0.260238 0)
(1.5314 0.31958 0)
(1.53533 0.37262 0)
(1.53833 0.419061 0)
(1.5403 0.458864 0)
(1.54119 0.492206 0)
(1.54097 0.519439 0)
(1.53963 0.541039 0)
(1.5372 0.557558 0)
(1.5337 0.569571 0)
(1.52916 0.577642 0)
(1.52337 0.58221 0)
(1.51634 0.583568 0)
(1.50815 0.582305 0)
(1.49884 0.578907 0)
(1.48854 0.57362 0)
(1.47737 0.566513 0)
(1.46547 0.557494 0)
(1.45303 0.546349 0)
(1.44022 0.532772 0)
(1.42723 0.516402 0)
(1.41425 0.496858 0)
(1.40149 0.473779 0)
(1.38915 0.446847 0)
(1.37746 0.415826 0)
(1.36666 0.38058 0)
(1.357 0.341064 0)
(1.34873 0.297372 0)
(1.34206 0.249782 0)
(1.33716 0.198727 0)
(1.33419 0.144791 0)
(1.33321 0.0886981 0)
(1.33424 0.0313164 0)
(1.3372 -0.0263227 0)
(1.34195 -0.0832221 0)
(1.34829 -0.138608 0)
(1.35601 -0.19175 0)
(1.36487 -0.242031 0)
(1.3746 -0.28892 0)
(1.38494 -0.332027 0)
(1.39561 -0.371099 0)
(1.40638 -0.405993 0)
(1.41704 -0.43671 0)
(1.4274 -0.463334 0)
(1.43731 -0.485994 0)
(1.44664 -0.504876 0)
(1.45531 -0.520212 0)
(1.46324 -0.532271 0)
(1.47037 -0.541322 0)
(1.47666 -0.54762 0)
(1.48215 -0.551357 0)
(1.48711 -0.552479 0)
(1.49156 -0.550439 0)
(1.49546 -0.545055 0)
(1.49902 -0.536257 0)
(1.50237 -0.523853 0)
(1.50565 -0.507571 0)
(1.50899 -0.487122 0)
(1.51249 -0.462237 0)
(1.51623 -0.432711 0)
(1.52029 -0.39843 0)
(1.52471 -0.3594 0)
(1.5295 -0.31577 0)
(1.53467 -0.267836 0)
(1.54019 -0.216056 0)
(1.54604 -0.161045 0)
(1.55216 -0.103577 0)
(1.55846 -0.0446173 0)
(1.56479 0.0145162 0)
(1.57099 0.0727024 0)
(1.57691 0.129063 0)
(1.58242 0.182793 0)
(1.58738 0.233199 0)
(1.59166 0.279718 0)
(1.59515 0.321934 0)
(1.59777 0.359578 0)
(1.59946 0.392521 0)
(1.60019 0.42076 0)
(1.59994 0.444404 0)
(1.59873 0.463642 0)
(1.59657 0.47874 0)
(1.5935 0.490005 0)
(1.58959 0.497758 0)
(1.58469 0.502259 0)
(1.57871 0.503579 0)
(1.57177 0.50204 0)
(1.56389 0.498078 0)
(1.55517 0.491968 0)
(1.54576 0.483885 0)
(1.5358 0.4739 0)
(1.52547 0.461981 0)
(1.51493 0.448002 0)
(1.50436 0.431766 0)
(1.49396 0.413036 0)
(1.48388 0.391563 0)
(1.4743 0.367117 0)
(1.46538 0.33952 0)
(1.45731 0.30867 0)
(1.45022 0.274554 0)
(1.44426 0.237288 0)
(1.43952 0.197105 0)
(1.4361 0.154351 0)
(1.43405 0.109469 0)
(1.43339 0.0629941 0)
(1.43414 0.0155596 0)
(1.43621 -0.0320474 0)
(1.43952 -0.0791064 0)
(1.44396 -0.125052 0)
(1.4494 -0.169334 0)
(1.45568 -0.211453 0)
(1.37608 -0.542877 0)
(1.38977 -0.567378 0)
(1.40222 -0.587384 0)
(1.41327 -0.603557 0)
(1.42283 -0.616523 0)
(1.43085 -0.626815 0)
(1.43736 -0.634819 0)
(1.44241 -0.64072 0)
(1.44611 -0.644576 0)
(1.44857 -0.646516 0)
(1.44987 -0.646855 0)
(1.45028 -0.643997 0)
(1.44981 -0.636689 0)
(1.44879 -0.625198 0)
(1.44743 -0.608853 0)
(1.44586 -0.587011 0)
(1.44428 -0.559113 0)
(1.44287 -0.524715 0)
(1.4418 -0.483522 0)
(1.44126 -0.435432 0)
(1.44141 -0.380587 0)
(1.44239 -0.319406 0)
(1.44431 -0.252609 0)
(1.44722 -0.18122 0)
(1.45116 -0.106584 0)
(1.45605 -0.0304522 0)
(1.46168 0.0450724 0)
(1.46784 0.118473 0)
(1.47429 0.188429 0)
(1.48077 0.253809 0)
(1.48704 0.313721 0)
(1.49285 0.36755 0)
(1.498 0.414954 0)
(1.50233 0.455847 0)
(1.50571 0.490364 0)
(1.50806 0.518822 0)
(1.50931 0.541668 0)
(1.50944 0.559432 0)
(1.50844 0.572683 0)
(1.50633 0.582004 0)
(1.50308 0.587927 0)
(1.49846 0.5908 0)
(1.49259 0.59088 0)
(1.4855 0.588704 0)
(1.47732 0.584521 0)
(1.4682 0.578347 0)
(1.45832 0.570066 0)
(1.44785 0.559458 0)
(1.43697 0.546217 0)
(1.42584 0.529976 0)
(1.41464 0.510345 0)
(1.40357 0.48695 0)
(1.39285 0.459466 0)
(1.38273 0.427635 0)
(1.37346 0.391271 0)
(1.36528 0.350354 0)
(1.35841 0.305027 0)
(1.35306 0.255591 0)
(1.34939 0.20252 0)
(1.34752 0.146453 0)
(1.34752 0.0881821 0)
(1.34939 0.0286533 0)
(1.35302 -0.0309736 0)
(1.35825 -0.0896748 0)
(1.36489 -0.146634 0)
(1.37272 -0.201086 0)
(1.38148 -0.252391 0)
(1.3909 -0.299997 0)
(1.40074 -0.343529 0)
(1.41072 -0.382742 0)
(1.42061 -0.417531 0)
(1.43022 -0.447924 0)
(1.43937 -0.474043 0)
(1.44792 -0.496045 0)
(1.45576 -0.514176 0)
(1.46285 -0.528691 0)
(1.46914 -0.539841 0)
(1.47456 -0.547922 0)
(1.47907 -0.553263 0)
(1.48262 -0.55615 0)
(1.48556 -0.556562 0)
(1.48784 -0.553915 0)
(1.48947 -0.547976 0)
(1.49067 -0.538806 0)
(1.49163 -0.526213 0)
(1.49249 -0.50991 0)
(1.4934 -0.489584 0)
(1.49449 -0.464946 0)
(1.49587 -0.435767 0)
(1.49763 -0.401911 0)
(1.49985 -0.363362 0)
(1.50259 -0.320242 0)
(1.50588 -0.272828 0)
(1.50974 -0.221553 0)
(1.51415 -0.16701 0)
(1.51909 -0.109946 0)
(1.52449 -0.0512907 0)
(1.53023 0.00773675 0)
(1.53614 0.0659676 0)
(1.54208 0.122538 0)
(1.5479 0.176645 0)
(1.55345 0.227589 0)
(1.55858 0.27479 0)
(1.56315 0.317816 0)
(1.56705 0.356366 0)
(1.57019 0.390285 0)
(1.57251 0.419548 0)
(1.57395 0.444238 0)
(1.57448 0.464523 0)
(1.57411 0.480647 0)
(1.57285 0.492911 0)
(1.57073 0.501647 0)
(1.56778 0.507183 0)
(1.56378 0.509718 0)
(1.55877 0.50929 0)
(1.55279 0.506328 0)
(1.54592 0.501099 0)
(1.53833 0.493731 0)
(1.53019 0.484275 0)
(1.52168 0.47269 0)
(1.51296 0.458847 0)
(1.50419 0.442556 0)
(1.49553 0.423581 0)
(1.48714 0.401674 0)
(1.47921 0.376606 0)
(1.4719 0.348201 0)
(1.46537 0.316358 0)
(1.45975 0.2811 0)
(1.45517 0.24257 0)
(1.45172 0.201022 0)
(1.44946 0.156829 0)
(1.44844 0.110464 0)
(1.44869 0.0624973 0)
(1.45019 0.0136079 0)
(1.45285 -0.035347 0)
(1.45659 -0.0836482 0)
(1.46129 -0.130696 0)
(1.46681 -0.175918 0)
(1.47299 -0.218805 0)
(1.39054 -0.557898 0)
(1.40236 -0.58107 0)
(1.41284 -0.599543 0)
(1.42182 -0.614053 0)
(1.42923 -0.625276 0)
(1.43503 -0.633775 0)
(1.43922 -0.639976 0)
(1.44187 -0.644175 0)
(1.44308 -0.646695 0)
(1.44319 -0.64757 0)
(1.44194 -0.646611 0)
(1.4394 -0.64211 0)
(1.43603 -0.634172 0)
(1.43216 -0.622201 0)
(1.42793 -0.605541 0)
(1.42349 -0.58358 0)
(1.41904 -0.555778 0)
(1.4148 -0.521703 0)
(1.411 -0.481062 0)
(1.40786 -0.433745 0)
(1.4056 -0.379873 0)
(1.40441 -0.319834 0)
(1.40444 -0.254302 0)
(1.40582 -0.184254 0)
(1.4086 -0.110961 0)
(1.41275 -0.0360428 0)
(1.41806 0.0385095 0)
(1.42434 0.11119 0)
(1.43132 0.180718 0)
(1.43874 0.245976 0)
(1.4463 0.306064 0)
(1.45372 0.360344 0)
(1.46076 0.408438 0)
(1.46719 0.450218 0)
(1.47283 0.485778 0)
(1.47755 0.515394 0)
(1.48123 0.539476 0)
(1.48379 0.558523 0)
(1.4852 0.573079 0)
(1.48544 0.58371 0)
(1.48453 0.590932 0)
(1.48242 0.595238 0)
(1.4789 0.596891 0)
(1.47416 0.596034 0)
(1.46824 0.593027 0)
(1.46132 0.587833 0)
(1.45358 0.580319 0)
(1.44522 0.570297 0)
(1.43637 0.557462 0)
(1.42719 0.541434 0)
(1.41789 0.521809 0)
(1.40867 0.498193 0)
(1.39978 0.470211 0)
(1.39145 0.437575 0)
(1.38392 0.40015 0)
(1.3774 0.35793 0)
(1.3721 0.311072 0)
(1.36821 0.259907 0)
(1.36588 0.204952 0)
(1.3652 0.146902 0)
(1.36624 0.0866243 0)
(1.36896 0.0251484 0)
(1.37324 -0.0362483 0)
(1.3789 -0.0965281 0)
(1.38575 -0.154825 0)
(1.39355 -0.210349 0)
(1.40206 -0.26243 0)
(1.41101 -0.310516 0)
(1.42015 -0.354246 0)
(1.42925 -0.393384 0)
(1.43808 -0.427866 0)
(1.44645 -0.457735 0)
(1.4542 -0.48316 0)
(1.46121 -0.504341 0)
(1.46739 -0.521586 0)
(1.47272 -0.53517 0)
(1.47714 -0.54533 0)
(1.4807 -0.552382 0)
(1.48337 -0.556625 0)
(1.48511 -0.558472 0)
(1.48623 -0.558274 0)
(1.48636 -0.554734 0)
(1.48573 -0.548216 0)
(1.48464 -0.538696 0)
(1.48325 -0.525905 0)
(1.48175 -0.509565 0)
(1.4803 -0.489364 0)
(1.47904 -0.465002 0)
(1.47811 -0.436231 0)
(1.47763 -0.402895 0)
(1.4777 -0.364958 0)
(1.47842 -0.322517 0)
(1.47985 -0.275827 0)
(1.48204 -0.225295 0)
(1.48499 -0.171487 0)
(1.48871 -0.115124 0)
(1.49316 -0.057089 0)
(1.49823 0.00149942 0)
(1.50376 0.0594421 0)
(1.50961 0.115894 0)
(1.51562 0.17006 0)
(1.52163 0.221242 0)
(1.52747 0.268854 0)
(1.53299 0.312441 0)
(1.53805 0.351685 0)
(1.54252 0.386407 0)
(1.54631 0.416556 0)
(1.54934 0.442192 0)
(1.55154 0.463456 0)
(1.55289 0.480572 0)
(1.55337 0.493823 0)
(1.55299 0.503521 0)
(1.55178 0.509989 0)
(1.54979 0.513574 0)
(1.54673 0.514404 0)
(1.54275 0.512516 0)
(1.53782 0.508198 0)
(1.53214 0.501526 0)
(1.52592 0.49257 0)
(1.51934 0.481308 0)
(1.51252 0.46762 0)
(1.50561 0.451313 0)
(1.49877 0.432143 0)
(1.49218 0.409854 0)
(1.48602 0.384214 0)
(1.48043 0.355046 0)
(1.47556 0.322289 0)
(1.47152 0.28599 0)
(1.46841 0.246309 0)
(1.46632 0.203526 0)
(1.46529 0.158036 0)
(1.46536 0.110342 0)
(1.46655 0.0610534 0)
(1.46882 0.0108988 0)
(1.47207 -0.0392133 0)
(1.47621 -0.0885565 0)
(1.48112 -0.136499 0)
(1.48666 -0.182457 0)
(1.49268 -0.225912 0)
(1.40915 -0.57061 0)
(1.41875 -0.5923 0)
(1.42692 -0.609099 0)
(1.43354 -0.621828 0)
(1.43853 -0.631226 0)
(1.4419 -0.637959 0)
(1.44371 -0.642526 0)
(1.44417 -0.645188 0)
(1.44316 -0.646035 0)
(1.44061 -0.645274 0)
(1.43667 -0.642542 0)
(1.43155 -0.637241 0)
(1.42562 -0.628639 0)
(1.41912 -0.616131 0)
(1.41221 -0.599127 0)
(1.40511 -0.577048 0)
(1.39803 -0.54938 0)
(1.39122 -0.515702 0)
(1.38492 -0.47573 0)
(1.37939 -0.429355 0)
(1.37491 -0.376681 0)
(1.3717 -0.318064 0)
(1.36997 -0.254133 0)
(1.36987 -0.185802 0)
(1.3715 -0.114265 0)
(1.37485 -0.0409999 0)
(1.37976 0.0321285 0)
(1.386 0.10364 0)
(1.39333 0.172303 0)
(1.40146 0.237027 0)
(1.41009 0.296919 0)
(1.41889 0.351325 0)
(1.42758 0.399838 0)
(1.43588 0.442291 0)
(1.44358 0.478728 0)
(1.45048 0.509402 0)
(1.45642 0.534665 0)
(1.46128 0.554977 0)
(1.46497 0.570859 0)
(1.46743 0.582845 0)
(1.46865 0.591439 0)
(1.46872 0.597069 0)
(1.46758 0.600087 0)
(1.4652 0.600737 0)
(1.46168 0.59895 0)
(1.45702 0.594809 0)
(1.45149 0.58813 0)
(1.44528 0.578758 0)
(1.43852 0.566409 0)
(1.43141 0.550679 0)
(1.42418 0.531112 0)
(1.41703 0.507263 0)
(1.41018 0.478782 0)
(1.40385 0.445416 0)
(1.39824 0.407021 0)
(1.39357 0.3636 0)
(1.39 0.315332 0)
(1.38771 0.262583 0)
(1.38682 0.205914 0)
(1.38741 0.146073 0)
(1.38952 0.0839966 0)
(1.39308 0.0208173 0)
(1.39796 -0.0420948 0)
(1.40397 -0.10369 0)
(1.41091 -0.163056 0)
(1.41855 -0.21938 0)
(1.42665 -0.271974 0)
(1.43495 -0.320299 0)
(1.44322 -0.363993 0)
(1.45125 -0.402852 0)
(1.45883 -0.436828 0)
(1.4658 -0.466018 0)
(1.47203 -0.490595 0)
(1.47739 -0.510834 0)
(1.48183 -0.527064 0)
(1.48529 -0.539603 0)
(1.4878 -0.548784 0)
(1.4894 -0.554914 0)
(1.49018 -0.558248 0)
(1.49014 -0.559195 0)
(1.48902 -0.558069 0)
(1.48695 -0.553372 0)
(1.48417 -0.546012 0)
(1.48088 -0.535976 0)
(1.47726 -0.52297 0)
(1.4735 -0.506613 0)
(1.46977 -0.486552 0)
(1.46625 -0.462492 0)
(1.4631 -0.434184 0)
(1.46046 -0.401455 0)
(1.45847 -0.364247 0)
(1.45723 -0.322639 0)
(1.45684 -0.276858 0)
(1.45737 -0.227285 0)
(1.45888 -0.174458 0)
(1.46136 -0.119065 0)
(1.46482 -0.0619355 0)
(1.46915 -0.00410719 0)
(1.47421 0.0532364 0)
(1.47987 0.109257 0)
(1.48596 0.163177 0)
(1.4923 0.214309 0)
(1.49873 0.262051 0)
(1.50506 0.305963 0)
(1.51114 0.34568 0)
(1.51682 0.381016 0)
(1.52197 0.411899 0)
(1.52648 0.438364 0)
(1.53028 0.460523 0)
(1.53329 0.478574 0)
(1.53548 0.492782 0)
(1.53682 0.503466 0)
(1.53733 0.510908 0)
(1.53717 0.515305 0)
(1.53615 0.517111 0)
(1.53421 0.516394 0)
(1.53121 0.512997 0)
(1.52742 0.507058 0)
(1.52318 0.498637 0)
(1.51857 0.48773 0)
(1.51369 0.474236 0)
(1.5087 0.457956 0)
(1.50379 0.43863 0)
(1.49911 0.415983 0)
(1.49483 0.389792 0)
(1.49107 0.35993 0)
(1.48795 0.326351 0)
(1.48558 0.289119 0)
(1.48403 0.248413 0)
(1.48336 0.204537 0)
(1.48362 0.157912 0)
(1.48483 0.109066 0)
(1.48698 0.0586435 0)
(1.49001 0.00742952 0)
(1.49384 -0.0436251 0)
(1.49835 -0.093785 0)
(1.50341 -0.1424 0)
(1.5089 -0.188879 0)
(1.51468 -0.232689 0)
(1.53882 -0.239023 0)
(0.242933 -0.00319969 0)
(0.247045 -0.00270489 0)
(0.249862 -0.00216509 0)
(0.251304 -0.00148195 0)
(0.251414 -0.000507364 0)
(0.250192 0.000504771 0)
(0.247732 0.00143308 0)
(0.244002 0.00236002 0)
(0.239028 0.0031839 0)
(0.232936 0.00382161 0)
(0.225968 0.00423515 0)
(0.218405 0.00450051 0)
(0.210501 0.00463514 0)
(0.202529 0.00459985 0)
(0.194803 0.004373 0)
(0.187632 0.00397509 0)
(0.181298 0.00344442 0)
(0.176022 0.00282991 0)
(0.171946 0.00218606 0)
(0.169132 0.00156957 0)
(0.167579 0.00101957 0)
(0.167139 0.000515465 0)
(0.167638 2.73558e-05 0)
(0.1689 -0.000350093 0)
(0.17076 -0.000657278 0)
(0.17302 -0.000882576 0)
(0.175478 -0.00104023 0)
(0.177981 -0.00116307 0)
(0.180425 -0.00124436 0)
(0.182735 -0.00126784 0)
(0.184832 -0.00122869 0)
(0.186655 -0.00113678 0)
(0.188164 -0.000997745 0)
(0.189341 -0.000817769 0)
(0.19017 -0.000653078 0)
(0.190616 -0.000495287 0)
(0.190703 -0.000296951 0)
(0.190411 -5.57656e-05 0)
(0.189787 0.000150391 0)
(0.188875 0.000339295 0)
(0.187727 0.000513383 0)
(0.18642 0.000648254 0)
(0.185041 0.000736324 0)
(0.183674 0.000791872 0)
(0.182372 0.000818448 0)
(0.181164 0.000813025 0)
(0.180068 0.000773047 0)
(0.179103 0.000694957 0)
(0.17829 0.000594407 0)
(0.177653 0.000484 0)
(0.177238 0.000358238 0)
(0.177082 0.000207524 0)
(0.177189 1.22424e-05 0)
(0.177554 -0.000176261 0)
(0.178189 -0.000369073 0)
(0.179109 -0.000571569 0)
(0.180315 -0.000765409 0)
(0.181793 -0.000939985 0)
(0.18351 -0.00108414 0)
(0.185411 -0.00118917 0)
(0.187431 -0.00127069 0)
(0.189521 -0.00133604 0)
(0.191635 -0.00138322 0)
(0.19373 -0.00140805 0)
(0.195767 -0.0014056 0)
(0.197714 -0.00137173 0)
(0.199545 -0.00130369 0)
(0.201237 -0.00120214 0)
(0.202772 -0.00107038 0)
(0.204134 -0.00091952 0)
(0.205318 -0.000763042 0)
(0.206328 -0.000606862 0)
(0.207165 -0.000453983 0)
(0.207828 -0.000306312 0)
(0.208314 -0.000162303 0)
(0.208621 -2.0082e-05 0)
(0.208751 0.000121554 0)
(0.208697 0.000257342 0)
(0.208441 0.000373898 0)
(0.207959 0.000487738 0)
(0.207243 0.000593402 0)
(0.206285 0.000693934 0)
(0.205088 0.000786859 0)
(0.203676 0.000864602 0)
(0.202081 0.000926418 0)
(0.200335 0.000973969 0)
(0.198464 0.00100936 0)
(0.196494 0.0010333 0)
(0.194452 0.00104531 0)
(0.192365 0.00104483 0)
(0.19026 0.00103354 0)
(0.188162 0.00101247 0)
(0.186095 0.000980375 0)
(0.184081 0.00093844 0)
(0.182144 0.000887192 0)
(0.180304 0.000826566 0)
(0.178584 0.000757987 0)
(0.177 0.000681867 0)
(0.17557 0.000598913 0)
(0.174313 0.000512619 0)
(0.173237 0.000421586 0)
(0.172354 0.000330119 0)
(0.171668 0.000239475 0)
(0.171177 0.000151097 0)
(0.17088 6.84251e-05 0)
(0.170761 -1.12197e-05 0)
(0.170805 -8.24714e-05 0)
(0.170996 -0.000141345 0)
(0.17131 -0.000188081 0)
(0.171721 -0.000222339 0)
(0.172204 -0.000244056 0)
(0.172732 -0.000253997 0)
(0.17328 -0.000253561 0)
(0.173827 -0.000244077 0)
(0.174352 -0.000227498 0)
(0.174839 -0.000205643 0)
(0.175276 -0.000179978 0)
(0.175654 -0.000152124 0)
(0.175966 -0.000124552 0)
(0.176215 -0.000100222 0)
(0.176408 -8.15038e-05 0)
(0.176555 -6.97148e-05 0)
(0.176671 -6.50675e-05 0)
(0.176769 -6.80341e-05 0)
(0.176863 -7.88395e-05 0)
(0.176965 -9.8211e-05 0)
(0.177094 -0.000127114 0)
(0.177266 -0.000164085 0)
(0.177496 -0.000206693 0)
(0.177794 -0.000253148 0)
(0.178171 -0.000301605 0)
(0.178631 -0.000350686 0)
(0.179178 -0.000399674 0)
(0.179815 -0.00044773 0)
(0.180541 -0.000493618 0)
(0.181353 -0.000535811 0)
(0.182243 -0.000572555 0)
(0.183201 -0.000602172 0)
(0.18421 -0.000623833 0)
(0.596681 -0.00664165 0)
(0.600774 -0.00424256 0)
(0.603225 -0.00192666 0)
(0.604127 0.000367012 0)
(0.603259 0.00261641 0)
(0.600444 0.00479845 0)
(0.595964 0.00683905 0)
(0.590041 0.00865825 0)
(0.582805 0.010197 0)
(0.574473 0.0113958 0)
(0.565493 0.0122196 0)
(0.556286 0.012639 0)
(0.547053 0.0126329 0)
(0.538014 0.0122149 0)
(0.5295 0.0113902 0)
(0.521869 0.0101693 0)
(0.515442 0.00861412 0)
(0.510435 0.00681471 0)
(0.506964 0.00488661 0)
(0.505038 0.00292998 0)
(0.504607 0.000967894 0)
(0.505569 -0.000872095 0)
(0.507718 -0.00238295 0)
(0.510881 -0.00351269 0)
(0.514801 -0.00424525 0)
(0.519189 -0.00457108 0)
(0.523721 -0.00453579 0)
(0.52816 -0.0042567 0)
(0.532406 -0.00383567 0)
(0.536328 -0.00332947 0)
(0.539779 -0.00277635 0)
(0.542645 -0.00219752 0)
(0.54487 -0.00162193 0)
(0.5464 -0.00111778 0)
(0.547249 -0.000573206 0)
(0.547527 2.15117e-05 0)
(0.547253 0.000682209 0)
(0.546361 0.0013107 0)
(0.544898 0.00184734 0)
(0.542988 0.00225028 0)
(0.540756 0.00249314 0)
(0.538332 0.00254887 0)
(0.535888 0.00241834 0)
(0.533565 0.00216349 0)
(0.531405 0.00185701 0)
(0.529439 0.00156527 0)
(0.527702 0.00129523 0)
(0.526238 0.00104144 0)
(0.525078 0.000801364 0)
(0.524237 0.000514171 0)
(0.52373 0.000147478 0)
(0.52353 -0.000255644 0)
(0.523693 -0.000714553 0)
(0.524255 -0.00118798 0)
(0.525184 -0.00166374 0)
(0.526475 -0.00212264 0)
(0.528125 -0.00254063 0)
(0.530117 -0.00289893 0)
(0.532405 -0.00317912 0)
(0.534888 -0.00336388 0)
(0.537459 -0.00344426 0)
(0.54005 -0.00341795 0)
(0.542609 -0.00329854 0)
(0.545088 -0.00311356 0)
(0.547438 -0.00287992 0)
(0.549606 -0.00261374 0)
(0.551551 -0.00234122 0)
(0.553235 -0.00207822 0)
(0.554624 -0.00183274 0)
(0.5557 -0.0016049 0)
(0.556473 -0.00139833 0)
(0.556973 -0.00121028 0)
(0.557222 -0.00102568 0)
(0.557236 -0.000820825 0)
(0.557013 -0.000610172 0)
(0.556572 -0.000393997 0)
(0.555919 -0.000161434 0)
(0.555056 0.000120661 0)
(0.553995 0.00045235 0)
(0.552732 0.000833148 0)
(0.551263 0.00126391 0)
(0.549586 0.00171435 0)
(0.547701 0.00213453 0)
(0.545634 0.00250456 0)
(0.543435 0.0028232 0)
(0.541144 0.00308992 0)
(0.538792 0.00330862 0)
(0.536402 0.00347899 0)
(0.533997 0.0035964 0)
(0.531604 0.00365949 0)
(0.529243 0.00367276 0)
(0.526939 0.00364224 0)
(0.524707 0.00356983 0)
(0.522564 0.00345594 0)
(0.520536 0.00330414 0)
(0.518631 0.00311596 0)
(0.516874 0.00289419 0)
(0.515273 0.00263957 0)
(0.513846 0.00235624 0)
(0.512602 0.00204664 0)
(0.511551 0.00171797 0)
(0.510697 0.00137566 0)
(0.510044 0.0010312 0)
(0.509586 0.000691293 0)
(0.509319 0.000365511 0)
(0.509228 5.79815e-05 0)
(0.509299 -0.000218058 0)
(0.509509 -0.000452155 0)
(0.509833 -0.00064364 0)
(0.510244 -0.000790177 0)
(0.510715 -0.000890492 0)
(0.511219 -0.000946793 0)
(0.511731 -0.000963369 0)
(0.512228 -0.000945 0)
(0.512693 -0.000896031 0)
(0.513112 -0.000821612 0)
(0.513473 -0.000727724 0)
(0.513767 -0.000621058 0)
(0.513988 -0.000506787 0)
(0.514142 -0.000401843 0)
(0.514237 -0.000311711 0)
(0.514289 -0.000241322 0)
(0.514311 -0.000194045 0)
(0.514318 -0.000172314 0)
(0.514324 -0.000173485 0)
(0.514341 -0.000203016 0)
(0.514388 -0.00026292 0)
(0.514484 -0.000349787 0)
(0.514644 -0.000457515 0)
(0.514877 -0.000580627 0)
(0.515188 -0.00071482 0)
(0.515579 -0.00085679 0)
(0.516052 -0.00100366 0)
(0.516606 -0.00115175 0)
(0.517239 -0.00129612 0)
(0.517946 -0.00143035 0)
(0.518717 -0.00154673 0)
(0.519537 -0.00163772 0)
(0.520389 -0.00170104 0)
(0.909187 -0.0148174 0)
(0.912486 -0.0110401 0)
(0.914818 -0.00696851 0)
(0.916067 -0.00256539 0)
(0.91654 0.00196748 0)
(0.916453 0.00639095 0)
(0.915583 0.010703 0)
(0.913695 0.0149674 0)
(0.910634 0.0192115 0)
(0.90638 0.0228122 0)
(0.900899 0.0246822 0)
(0.894181 0.0257928 0)
(0.886431 0.0263275 0)
(0.877916 0.0258986 0)
(0.86887 0.024254 0)
(0.859593 0.0214536 0)
(0.850497 0.0177041 0)
(0.842018 0.0133665 0)
(0.834444 0.00881781 0)
(0.827988 0.0043901 0)
(0.822735 0.000320858 0)
(0.818836 -0.00322644 0)
(0.816331 -0.00611804 0)
(0.815086 -0.00839332 0)
(0.815025 -0.0101009 0)
(0.816153 -0.011019 0)
(0.818233 -0.0112258 0)
(0.820998 -0.0111801 0)
(0.824289 -0.0108539 0)
(0.827995 -0.0101188 0)
(0.832024 -0.00891155 0)
(0.836261 -0.00742382 0)
(0.840542 -0.00571079 0)
(0.844656 -0.00382876 0)
(0.848522 -0.00204745 0)
(0.852059 -0.000592724 0)
(0.855014 0.000948535 0)
(0.85735 0.00242791 0)
(0.859139 0.00366818 0)
(0.860363 0.00466671 0)
(0.86099 0.00543088 0)
(0.861031 0.00589456 0)
(0.860437 0.00597038 0)
(0.859344 0.00587207 0)
(0.857922 0.00563006 0)
(0.856258 0.00526178 0)
(0.854418 0.00475503 0)
(0.85245 0.00401633 0)
(0.850416 0.00318421 0)
(0.848464 0.00230427 0)
(0.846694 0.00136686 0)
(0.845158 0.000393277 0)
(0.843895 -0.00058262 0)
(0.842945 -0.00155315 0)
(0.842323 -0.00251713 0)
(0.842052 -0.00350476 0)
(0.842166 -0.0045112 0)
(0.842655 -0.00547688 0)
(0.84348 -0.00629444 0)
(0.84462 -0.00672133 0)
(0.846065 -0.00695938 0)
(0.847761 -0.00709666 0)
(0.849624 -0.00712973 0)
(0.851592 -0.00703335 0)
(0.853639 -0.00679912 0)
(0.855734 -0.00642561 0)
(0.85783 -0.00592055 0)
(0.859872 -0.0052948 0)
(0.861818 -0.00450806 0)
(0.863618 -0.00361331 0)
(0.865268 -0.00274774 0)
(0.866723 -0.00190978 0)
(0.867944 -0.00109116 0)
(0.868897 -0.000293569 0)
(0.869552 0.000475642 0)
(0.869885 0.00121917 0)
(0.869863 0.00194136 0)
(0.869469 0.00262551 0)
(0.868695 0.00328496 0)
(0.867505 0.00392597 0)
(0.865859 0.00447942 0)
(0.863757 0.00503031 0)
(0.861245 0.0055428 0)
(0.858383 0.00590258 0)
(0.85525 0.00613442 0)
(0.851932 0.00627093 0)
(0.848501 0.00634822 0)
(0.845009 0.00637812 0)
(0.841514 0.00635788 0)
(0.838076 0.00628698 0)
(0.834741 0.00617193 0)
(0.831548 0.00601726 0)
(0.828524 0.0058154 0)
(0.825696 0.00555858 0)
(0.823092 0.00524902 0)
(0.820727 0.00489001 0)
(0.818618 0.00448575 0)
(0.816776 0.00404079 0)
(0.815214 0.0035626 0)
(0.813936 0.003057 0)
(0.812945 0.0025338 0)
(0.812234 0.00200181 0)
(0.811794 0.00147118 0)
(0.811608 0.000953002 0)
(0.811663 0.000458444 0)
(0.811924 3.32066e-06 0)
(0.812355 -0.000404883 0)
(0.812914 -0.000751189 0)
(0.813563 -0.00102771 0)
(0.814266 -0.00122971 0)
(0.81498 -0.00135559 0)
(0.815671 -0.00141189 0)
(0.816309 -0.00140307 0)
(0.816872 -0.00133626 0)
(0.817341 -0.00122286 0)
(0.817706 -0.0010741 0)
(0.817958 -0.000900833 0)
(0.818089 -0.000712067 0)
(0.81809 -0.000519642 0)
(0.81797 -0.000346862 0)
(0.817752 -0.000207219 0)
(0.817455 -0.000115439 0)
(0.817102 -6.50528e-05 0)
(0.816722 -5.12203e-05 0)
(0.816339 -7.18316e-05 0)
(0.81597 -0.00012888 0)
(0.815639 -0.000236643 0)
(0.815373 -0.000393325 0)
(0.815189 -0.000585019 0)
(0.815098 -0.000802771 0)
(0.81511 -0.00103179 0)
(0.81523 -0.00126006 0)
(0.815458 -0.00148643 0)
(0.815796 -0.00170874 0)
(0.816245 -0.00192071 0)
(0.816802 -0.00211323 0)
(0.817458 -0.00227599 0)
(0.818193 -0.00240016 0)
(0.818978 -0.00247956 0)
(1.20818 -0.0149297 0)
(1.21058 -0.00981286 0)
(1.21176 -0.00494155 0)
(1.21197 -0.000377022 0)
(1.21123 0.00397275 0)
(1.20937 0.00809198 0)
(1.20665 0.0120505 0)
(1.20335 0.0159118 0)
(1.1999 0.0194907 0)
(1.19662 0.0226758 0)
(1.19328 0.0255111 0)
(1.1896 0.0278249 0)
(1.18564 0.0293594 0)
(1.18157 0.0302535 0)
(1.17717 0.0302809 0)
(1.17198 0.0292925 0)
(1.16575 0.0272579 0)
(1.15842 0.0242969 0)
(1.15013 0.0206338 0)
(1.14102 0.0164518 0)
(1.13134 0.0118633 0)
(1.12141 0.00715713 0)
(1.11171 0.00267523 0)
(1.10254 -0.00143732 0)
(1.09417 -0.00514664 0)
(1.08678 -0.00812934 0)
(1.08058 -0.0099503 0)
(1.07575 -0.0110683 0)
(1.07221 -0.0116971 0)
(1.06992 -0.0119354 0)
(1.06885 -0.0119137 0)
(1.06873 -0.0115917 0)
(1.06975 -0.0109593 0)
(1.07181 -0.0101142 0)
(1.07485 -0.00906579 0)
(1.07871 -0.00754415 0)
(1.08317 -0.00554681 0)
(1.08798 -0.00350271 0)
(1.09298 -0.00154791 0)
(1.09803 0.000259983 0)
(1.10291 0.00194061 0)
(1.10742 0.00346935 0)
(1.11145 0.00453157 0)
(1.1149 0.00508513 0)
(1.11777 0.00534566 0)
(1.12009 0.0054401 0)
(1.12187 0.00543126 0)
(1.12315 0.00533837 0)
(1.12402 0.00510306 0)
(1.12456 0.00450582 0)
(1.12478 0.00369815 0)
(1.12475 0.00274975 0)
(1.12453 0.0016801 0)
(1.12423 0.000500216 0)
(1.12399 -0.000769518 0)
(1.1239 -0.0020851 0)
(1.12399 -0.00334798 0)
(1.12426 -0.00448247 0)
(1.1247 -0.00546789 0)
(1.12536 -0.00630884 0)
(1.12626 -0.00698221 0)
(1.12737 -0.00738101 0)
(1.12862 -0.0074686 0)
(1.12991 -0.00740714 0)
(1.13115 -0.00722167 0)
(1.13227 -0.00692034 0)
(1.13325 -0.00649165 0)
(1.13404 -0.00594582 0)
(1.13472 -0.00536067 0)
(1.13533 -0.0047775 0)
(1.13586 -0.00421636 0)
(1.13625 -0.00365517 0)
(1.13647 -0.00305373 0)
(1.13649 -0.00238867 0)
(1.13632 -0.00163793 0)
(1.13594 -0.000811048 0)
(1.1354 5.00776e-05 0)
(1.13472 0.000953292 0)
(1.13386 0.00199221 0)
(1.13276 0.00325606 0)
(1.13129 0.00469367 0)
(1.12937 0.00615943 0)
(1.12703 0.00752832 0)
(1.12429 0.0087507 0)
(1.12117 0.00974569 0)
(1.11771 0.0104882 0)
(1.11393 0.0110438 0)
(1.10982 0.0114126 0)
(1.10542 0.0115511 0)
(1.10081 0.0114618 0)
(1.09607 0.0111949 0)
(1.09129 0.0107948 0)
(1.08656 0.010276 0)
(1.08198 0.00965813 0)
(1.07761 0.00896735 0)
(1.07354 0.00821691 0)
(1.06981 0.00740936 0)
(1.06649 0.00654761 0)
(1.06361 0.00563614 0)
(1.06121 0.00468647 0)
(1.05931 0.00371686 0)
(1.05791 0.00274969 0)
(1.05702 0.00180295 0)
(1.05663 0.000890631 0)
(1.05672 4.02374e-05 0)
(1.05727 -0.000685487 0)
(1.05822 -0.00127917 0)
(1.05952 -0.00175269 0)
(1.06108 -0.00210995 0)
(1.06281 -0.00233981 0)
(1.06464 -0.00242913 0)
(1.06647 -0.00240165 0)
(1.06825 -0.00228172 0)
(1.0699 -0.00208322 0)
(1.07141 -0.00182284 0)
(1.07272 -0.0015199 0)
(1.07382 -0.00117818 0)
(1.07469 -0.000781444 0)
(1.07533 -0.000386881 0)
(1.07576 -4.0655e-05 0)
(1.076 0.000248511 0)
(1.07607 0.000476745 0)
(1.07599 0.000635099 0)
(1.0758 0.000694848 0)
(1.07552 0.000697217 0)
(1.0752 0.000625058 0)
(1.07485 0.000440101 0)
(1.0745 0.000177974 0)
(1.07421 -0.000118203 0)
(1.07401 -0.000450205 0)
(1.07389 -0.00081407 0)
(1.07386 -0.00120165 0)
(1.07392 -0.00160759 0)
(1.07406 -0.00202459 0)
(1.07429 -0.00244238 0)
(1.07462 -0.00284398 0)
(1.07504 -0.00320042 0)
(1.07554 -0.00345812 0)
(1.07609 -0.00361892 0)
(1.40228 -0.0225857 0)
(1.4108 -0.0164895 0)
(1.41959 -0.0100318 0)
(1.42815 -0.003422 0)
(1.43629 0.00303724 0)
(1.44391 0.00927739 0)
(1.45067 0.0152007 0)
(1.45632 0.0206676 0)
(1.46063 0.0254646 0)
(1.46339 0.0294942 0)
(1.46438 0.0328807 0)
(1.46355 0.0356726 0)
(1.4612 0.0371908 0)
(1.45759 0.0374972 0)
(1.45262 0.037459 0)
(1.4462 0.0367835 0)
(1.4384 0.035224 0)
(1.4294 0.0326376 0)
(1.41931 0.0292965 0)
(1.40809 0.0256707 0)
(1.39577 0.0219689 0)
(1.38258 0.0182139 0)
(1.36876 0.0144509 0)
(1.35452 0.0108056 0)
(1.34 0.00731473 0)
(1.32555 0.0040321 0)
(1.31163 0.00102825 0)
(1.29865 -0.00172233 0)
(1.28683 -0.0041931 0)
(1.27642 -0.0062516 0)
(1.26755 -0.00776001 0)
(1.26023 -0.00874671 0)