/*--------------------------------*- C++ -*----------------------------------*\
| =========                 |                                                 |
| \\      /  F ield         | OpenFOAM: The Open Source CFD Toolbox           |
|  \\    /   O peration     | Version:  2206                                  |
|   \\  /    A nd           | Website:  www.openfoam.com                      |
|    \\/     M anipulation  |                                                 |
\*---------------------------------------------------------------------------*/
FoamFile
{
    version     2.0;
    format      ascii;
    arch        "LSB;label=32;scalar=64";
    class       surfaceScalarField;
    location    "19.4001";
    object      phi_0;
}
// * * * * * * * * * * * * * * * * * * * * * * * * * * * * * * * * * * * * * //

dimensions      [0 3 -1 0 0 0 0];

oriented        oriented;

internalField   nonuniform List<scalar> 
9421
(
1.11348e-05
-1.14819e-08
-3.67188e-10
1.11423e-05
-2.45463e-07
2.37986e-07
1.1145e-05
-4.68835e-07
4.66124e-07
1.11426e-05
-6.78283e-07
6.80695e-07
1.11348e-05
-8.71091e-07
8.78913e-07
1.11213e-05
-1.04517e-06
1.05859e-06
1.11023e-05
-1.19908e-06
1.21813e-06
1.10777e-05
-1.33196e-06
1.35653e-06
1.10479e-05
-1.44344e-06
1.47327e-06
1.10133e-05
-1.53359e-06
1.56822e-06
1.09744e-05
-1.60273e-06
1.64158e-06
1.09319e-05
-1.65125e-06
1.69379e-06
1.08859e-05
-1.67921e-06
1.72515e-06
1.08369e-05
-1.68555e-06
1.7346e-06
1.0786e-05
-1.66969e-06
1.72058e-06
1.07347e-05
-1.63211e-06
1.68345e-06
1.06843e-05
-1.5731e-06
1.62349e-06
1.06361e-05
-1.493e-06
1.54115e-06
1.05913e-05
-1.39232e-06
1.4371e-06
1.05509e-05
-1.27183e-06
1.3123e-06
1.05154e-05
-1.13272e-06
1.16815e-06
1.04856e-05
-9.76618e-07
1.0065e-06
1.04615e-05
-8.05651e-07
8.29694e-07
1.04434e-05
-6.22376e-07
6.40484e-07
1.04312e-05
-4.29743e-07
4.41973e-07
1.04247e-05
-2.31087e-07
2.37577e-07
1.04236e-05
-3.03761e-08
3.14343e-08
1.04276e-05
1.68322e-07
-1.72332e-07
1.04363e-05
3.62081e-07
-3.70762e-07
1.04493e-05
5.48186e-07
-5.61184e-07
1.04663e-05
7.24109e-07
-7.41052e-07
1.04867e-05
8.87495e-07
-9.07971e-07
1.05103e-05
1.03623e-06
-1.05979e-06
1.05364e-05
1.16854e-06
-1.19469e-06
1.05647e-05
1.28301e-06
-1.31126e-06
1.05945e-05
1.37859e-06
-1.40844e-06
1.06254e-05
1.4546e-06
-1.4855e-06
1.06569e-05
1.51081e-06
-1.5423e-06
1.06888e-05
1.54749e-06
-1.57931e-06
1.07212e-05
1.56422e-06
-1.59666e-06
1.07544e-05
1.55768e-06
-1.59089e-06
1.07877e-05
1.52628e-06
-1.55962e-06
1.08205e-05
1.47045e-06
-1.50322e-06
1.08522e-05
1.39116e-06
-1.42285e-06
1.08824e-05
1.28988e-06
-1.32005e-06
1.09107e-05
1.16841e-06
-1.19674e-06
1.09369e-05
1.02891e-06
-1.05511e-06
1.09607e-05
8.73797e-07
-8.97608e-07
1.09819e-05
7.05762e-07
-7.26978e-07
1.10003e-05
5.27782e-07
-5.4621e-07
1.10158e-05
3.43176e-07
-3.58595e-07
1.10279e-05
1.55909e-07
-1.68018e-07
1.10364e-05
-2.9709e-08
2.11744e-08
1.10412e-05
-2.10784e-07
2.06033e-07
1.10419e-05
-3.84634e-07
3.83864e-07
1.10386e-05
-5.48846e-07
5.52227e-07
1.10309e-05
-7.01323e-07
7.08976e-07
1.10189e-05
-8.40323e-07
8.52272e-07
1.10028e-05
-9.64446e-07
9.80621e-07
1.09826e-05
-1.07266e-06
1.09288e-06
1.09586e-05
-1.16428e-06
1.18825e-06
1.09313e-05
-1.23892e-06
1.2662e-06
1.09012e-05
-1.29645e-06
1.32653e-06
1.08688e-05
-1.33697e-06
1.36936e-06
1.08343e-05
-1.3604e-06
1.39488e-06
1.07978e-05
-1.36548e-06
1.40202e-06
1.07601e-05
-1.35108e-06
1.3888e-06
1.07222e-05
-1.31758e-06
1.35547e-06
1.06851e-05
-1.26546e-06
1.30254e-06
1.06497e-05
-1.19538e-06
1.23077e-06
1.06168e-05
-1.10823e-06
1.14118e-06
1.05869e-05
-1.00513e-06
1.03501e-06
1.05606e-05
-8.8748e-07
9.13799e-07
1.05382e-05
-7.56943e-07
7.79344e-07
1.05199e-05
-6.15468e-07
6.33717e-07
1.05059e-05
-4.65259e-07
4.79224e-07
1.04963e-05
-3.08754e-07
3.18396e-07
1.04909e-05
-1.48655e-07
1.54037e-07
1.04897e-05
1.16753e-08
-1.04222e-08
1.04924e-05
1.69595e-07
-1.7231e-07
1.04989e-05
3.22918e-07
-3.29406e-07
1.05089e-05
4.69546e-07
-4.79582e-07
1.05222e-05
6.07501e-07
-6.20825e-07
1.05386e-05
7.34983e-07
-7.5132e-07
1.05576e-05
8.50431e-07
-8.69482e-07
1.0579e-05
9.52499e-07
-9.73899e-07
1.06024e-05
1.04007e-06
-1.06343e-06
1.06273e-05
1.11239e-06
-1.13732e-06
1.06534e-05
1.16906e-06
-1.19514e-06
1.06802e-05
1.20997e-06
-1.23683e-06
1.07077e-05
1.2352e-06
-1.26266e-06
1.07361e-05
1.24377e-06
-1.27215e-06
1.07652e-05
1.23321e-06
-1.26231e-06
1.07944e-05
1.20322e-06
-1.23244e-06
1.08232e-05
1.15433e-06
-1.18308e-06
1.0851e-05
1.08746e-06
-1.11526e-06
1.08774e-05
1.0039e-06
-1.03035e-06
1.09022e-05
9.05167e-07
-9.29915e-07
1.09249e-05
7.92981e-07
-8.15743e-07
1.09455e-05
6.69269e-07
-6.89795e-07
1.09635e-05
5.3612e-07
-5.54198e-07
1.0979e-05
3.95796e-07
-4.11244e-07
1.09916e-05
2.50798e-07
-2.63435e-07
1.10012e-05
1.04126e-07
-1.13701e-07
1.10075e-05
-4.11715e-08
3.48125e-08
1.10106e-05
-1.82976e-07
1.79967e-07
1.10101e-05
-3.19301e-07
3.19744e-07
1.10061e-05
-4.48319e-07
4.52287e-07
1.09986e-05
-5.68406e-07
5.75926e-07
1.09876e-05
-6.78158e-07
6.89194e-07
1.09732e-05
-7.76409e-07
7.9083e-07
1.09556e-05
-8.62217e-07
8.79817e-07
1.09351e-05
-9.34911e-07
9.55404e-07
1.09121e-05
-9.94063e-07
1.01708e-06
1.0887e-05
-1.03946e-06
1.06455e-06
1.08602e-05
-1.07106e-06
1.09784e-06
1.08318e-05
-1.08864e-06
1.11704e-06
1.08018e-05
-1.09095e-06
1.12097e-06
1.07708e-05
-1.0771e-06
1.10802e-06
1.07398e-05
-1.0474e-06
1.07848e-06
1.07092e-05
-1.00231e-06
1.03284e-06
1.06799e-05
-9.42538e-07
9.71855e-07
1.06524e-05
-8.68955e-07
8.96511e-07
1.0627e-05
-7.82633e-07
8.07965e-07
1.06043e-05
-6.84846e-07
7.07584e-07
1.05844e-05
-5.77058e-07
5.96926e-07
1.05676e-05
-4.60949e-07
4.77764e-07
1.0554e-05
-3.38228e-07
3.51873e-07
1.05435e-05
-2.11186e-07
2.21653e-07
1.05363e-05
-8.12053e-08
8.83878e-08
1.05321e-05
4.725e-08
-4.30789e-08
1.05313e-05
1.75528e-07
-1.74693e-07
1.0533e-05
2.97135e-07
-2.98782e-07
1.05383e-05
4.15159e-07
-4.20546e-07
1.05452e-05
5.30038e-07
-5.36864e-07
1.05545e-05
6.19319e-07
-6.28609e-07
7.50199e-07
-7.62493e-07
1.1308e-05
-2.39435e-08
1.13149e-05
-2.52401e-07
1.1316e-05
-4.69919e-07
1.1311e-05
-6.73251e-07
1.12997e-05
-8.59774e-07
1.1282e-05
-1.02751e-06
1.12581e-05
-1.17514e-06
1.12281e-05
-1.30197e-06
1.11924e-05
-1.40777e-06
1.11516e-05
-1.49273e-06
1.11061e-05
-1.55725e-06
1.10565e-05
-1.60167e-06
1.10031e-05
-1.6258e-06
1.09465e-05
-1.62893e-06
1.0888e-05
-1.61127e-06
1.08292e-05
-1.57332e-06
1.07715e-05
-1.51536e-06
1.07162e-05
-1.4377e-06
1.06646e-05
-1.34071e-06
1.06177e-05
-1.22498e-06
1.05765e-05
-1.09148e-06
1.05415e-05
-9.41601e-07
1.05131e-05
-7.77245e-07
1.04915e-05
-6.00756e-07
1.04766e-05
-4.1491e-07
1.04684e-05
-2.22884e-07
1.04665e-05
-2.84498e-08
1.04705e-05
1.64328e-07
1.048e-05
3.5257e-07
1.04946e-05
5.33554e-07
1.0514e-05
7.04789e-07
1.05375e-05
8.63954e-07
1.05647e-05
1.00898e-06
1.05952e-05
1.1381e-06
1.06283e-05
1.24993e-06
1.06634e-05
1.34345e-06
1.07e-05
1.41797e-06
1.07376e-05
1.47319e-06
1.0776e-05
1.50914e-06
1.08153e-05
1.52495e-06
1.08553e-05
1.51766e-06
1.08953e-05
1.48623e-06
1.09347e-05
1.43105e-06
1.09729e-05
1.35304e-06
1.10092e-05
1.25355e-06
1.10433e-05
1.13433e-06
1.10747e-05
9.97462e-07
1.11032e-05
8.45308e-07
1.11285e-05
6.80521e-07
1.11502e-05
5.06039e-07
1.11682e-05
3.25193e-07
1.1182e-05
1.42061e-07
1.11915e-05
-3.91867e-08
1.11964e-05
-2.15681e-07
1.11965e-05
-3.84771e-07
1.11918e-05
-5.44094e-07
1.11821e-05
-6.91616e-07
1.11674e-05
-8.25678e-07
1.1148e-05
-9.44995e-07
1.1124e-05
-1.04865e-06
1.10958e-05
-1.13607e-06
1.10638e-05
-1.20696e-06
1.10286e-05
-1.26129e-06
1.09907e-05
-1.29906e-06
1.09503e-05
-1.31993e-06
1.09076e-05
-1.32277e-06
1.08637e-05
-1.30717e-06
1.08196e-05
-1.27352e-06
1.07764e-05
-1.22228e-06
1.07351e-05
-1.15406e-06
1.06965e-05
-1.06964e-06
1.06614e-05
-9.7e-07
1.06303e-05
-8.564e-07
1.06037e-05
-7.3036e-07
1.05819e-05
-5.93683e-07
1.05651e-05
-4.48443e-07
1.05533e-05
-2.9697e-07
1.05465e-05
-1.41847e-07
1.05445e-05
1.36554e-08
1.05472e-05
1.66919e-07
1.05543e-05
3.15795e-07
1.05657e-05
4.58224e-07
1.05809e-05
5.9227e-07
1.05997e-05
7.16168e-07
1.06218e-05
8.28378e-07
1.06466e-05
9.27609e-07
1.06739e-05
1.0128e-06
1.07031e-05
1.08318e-06
1.07338e-05
1.13835e-06
1.07656e-05
1.17817e-06
1.07984e-05
1.20245e-06
1.08322e-05
1.20995e-06
1.08667e-05
1.19872e-06
1.09012e-05
1.1687e-06
1.09352e-05
1.12037e-06
1.0968e-05
1.05462e-06
1.09993e-05
9.72649e-07
1.10285e-05
8.75914e-07
1.10554e-05
7.66087e-07
1.10796e-05
6.45041e-07
1.11009e-05
5.14822e-07
1.11191e-05
3.77651e-07
1.11339e-05
2.36021e-07
1.1145e-05
9.30135e-08
1.11523e-05
-4.8471e-08
1.11556e-05
-1.86329e-07
1.11549e-05
-3.18605e-07
1.11501e-05
-4.43521e-07
1.11412e-05
-5.59505e-07
1.11283e-05
-6.65219e-07
1.11115e-05
-7.59584e-07
1.1091e-05
-8.41758e-07
1.10672e-05
-9.11149e-07
1.10406e-05
-9.67389e-07
1.10114e-05
-1.01031e-06
1.09802e-05
-1.03981e-06
1.09469e-05
-1.0554e-06
1.09119e-05
-1.05596e-06
1.0876e-05
-1.04115e-06
1.08399e-05
-1.0113e-06
1.08044e-05
-9.66834e-07
1.07703e-05
-9.08396e-07
1.07381e-05
-8.36787e-07
1.07085e-05
-7.5299e-07
1.06818e-05
-6.58177e-07
1.06585e-05
-5.53713e-07
1.06387e-05
-4.41171e-07
1.06226e-05
-3.22193e-07
1.06104e-05
-1.98909e-07
1.0602e-05
-7.28845e-08
1.05972e-05
5.20677e-08
1.05965e-05
1.7623e-07
1.05986e-05
2.95083e-07
1.06052e-05
4.08578e-07
1.06138e-05
5.21425e-07
1.06251e-05
6.07992e-07
7.35212e-07
1.14923e-05
-3.6792e-08
1.14985e-05
-2.58531e-07
1.14976e-05
-4.69088e-07
1.14897e-05
-6.65304e-07
1.14746e-05
-8.4467e-07
1.14524e-05
-1.00534e-06
1.14234e-05
-1.14613e-06
1.13879e-05
-1.26645e-06
1.13463e-05
-1.36622e-06
1.12993e-05
-1.4457e-06
1.12473e-05
-1.50527e-06
1.11908e-05
-1.54519e-06
1.11302e-05
-1.56522e-06
1.10665e-05
-1.56517e-06
1.10009e-05
-1.54571e-06
1.0935e-05
-1.50739e-06
1.08702e-05
-1.45057e-06
1.0808e-05
-1.3755e-06
1.07497e-05
-1.28245e-06
1.06966e-05
-1.17188e-06
1.06497e-05
-1.0445e-06
1.06096e-05
-9.01499e-07
1.05768e-05
-7.44502e-07
1.05517e-05
-5.7563e-07
1.05342e-05
-3.97445e-07
1.05243e-05
-2.12927e-07
1.05215e-05
-2.56486e-08
1.05254e-05
1.60372e-07
1.05357e-05
3.42271e-07
1.05519e-05
5.17357e-07
1.05735e-05
6.83162e-07
1.06001e-05
8.37418e-07
1.0631e-05
9.78089e-07
1.06656e-05
1.10345e-06
1.07035e-05
1.21211e-06
1.07438e-05
1.30308e-06
1.07861e-05
1.37566e-06
1.08298e-05
1.42949e-06
1.08747e-05
1.46431e-06
1.09207e-05
1.47895e-06
1.09674e-05
1.47089e-06
1.10142e-05
1.43948e-06
1.10602e-05
1.38507e-06
1.11047e-05
1.30852e-06
1.11471e-05
1.21112e-06
1.11869e-05
1.09454e-06
1.12236e-05
9.60782e-07
1.12567e-05
8.12162e-07
1.1286e-05
6.51278e-07
1.1311e-05
4.81019e-07
1.13315e-05
3.04706e-07
1.1347e-05
1.26549e-07
1.13573e-05
-4.95022e-08
1.13622e-05
-2.20605e-07
1.13616e-05
-3.84155e-07
1.13554e-05
-5.37847e-07
1.13435e-05
-6.79738e-07
1.13261e-05
-8.08256e-07
1.13033e-05
-9.22222e-07
1.12755e-05
-1.02085e-06
1.12431e-05
-1.10365e-06
1.12065e-05
-1.17043e-06
1.11664e-05
-1.22115e-06
1.11231e-05
-1.25576e-06
1.10769e-05
-1.27373e-06
1.10284e-05
-1.27424e-06
1.09786e-05
-1.25738e-06
1.09286e-05
-1.22358e-06
1.08796e-05
-1.17327e-06
1.08326e-05
-1.10703e-06
1.07885e-05
-1.02555e-06
1.07482e-05
-9.29695e-07
1.07124e-05
-8.20581e-07
1.06816e-05
-6.99571e-07
1.06562e-05
-5.68307e-07
1.06365e-05
-4.28714e-07
1.06225e-05
-2.82977e-07
1.06142e-05
-1.33561e-07
1.06115e-05
1.63971e-08
1.06141e-05
1.64311e-07
1.06218e-05
3.08071e-07
1.06344e-05
4.45663e-07
1.06514e-05
5.75197e-07
1.06726e-05
6.94949e-07
1.06976e-05
8.03414e-07
1.07259e-05
8.99335e-07
1.0757e-05
9.81712e-07
1.07904e-05
1.04979e-06
1.08256e-05
1.10314e-06
1.08622e-05
1.14151e-06
1.09001e-05
1.16454e-06
1.09392e-05
1.17085e-06
1.0979e-05
1.15896e-06
1.10187e-05
1.12896e-06
1.10578e-05
1.0813e-06
1.10956e-05
1.01683e-06
1.11316e-05
9.36673e-07
1.11652e-05
8.42235e-07
1.11962e-05
7.35127e-07
1.12241e-05
6.17163e-07
1.12486e-05
4.90339e-07
1.12694e-05
3.56839e-07
1.12863e-05
2.1914e-07
1.12989e-05
8.03933e-08
1.13071e-05
-5.66743e-08
1.13107e-05
-1.89988e-07
1.13098e-05
-3.17633e-07
1.13041e-05
-4.37879e-07
1.12939e-05
-5.49223e-07
1.1279e-05
-6.50408e-07
1.12599e-05
-7.40429e-07
1.12367e-05
-8.18542e-07
1.12098e-05
-8.84247e-07
1.11796e-05
-9.37228e-07
1.11466e-05
-9.77312e-07
1.11111e-05
-1.0043e-06
1.10732e-05
-1.01756e-06
1.10335e-05
-1.01625e-06
1.09928e-05
-1.00043e-06
1.09519e-05
-9.70392e-07
1.09117e-05
-9.26574e-07
1.08728e-05
-8.69568e-07
1.08361e-05
-8.00113e-07
1.08023e-05
-7.19104e-07
1.07717e-05
-6.27616e-07
1.07449e-05
-5.26903e-07
1.07221e-05
-4.18424e-07
1.07037e-05
-3.03744e-07
1.06896e-05
-1.84789e-07
1.06801e-05
-6.3368e-08
1.06746e-05
5.75671e-08
1.06739e-05
1.76891e-07
1.06764e-05
2.92579e-07
1.06839e-05
4.01041e-07
1.06944e-05
5.10985e-07
1.07078e-05
5.94618e-07
7.17618e-07
1.16841e-05
-4.97947e-08
1.16891e-05
-2.63615e-07
1.16862e-05
-4.66101e-07
1.16751e-05
-6.54217e-07
1.1656e-05
-8.25589e-07
1.16292e-05
-9.78509e-07
1.1595e-05
-1.11193e-06
1.15539e-05
-1.22538e-06
1.15065e-05
-1.31883e-06
1.14534e-05
-1.39258e-06
1.13951e-05
-1.44697e-06
1.1332e-05
-1.48212e-06
1.12647e-05
-1.49792e-06
1.11943e-05
-1.49474e-06
1.11221e-05
-1.47349e-06
1.10495e-05
-1.43482e-06
1.09781e-05
-1.37914e-06
1.09093e-05
-1.30675e-06
1.08447e-05
-1.21784e-06
1.07855e-05
-1.11271e-06
1.07329e-05
-9.9191e-07
1.06878e-05
-8.56354e-07
1.06507e-05
-7.07417e-07
1.0622e-05
-5.46954e-07
1.06019e-05
-3.77281e-07
1.05901e-05
-2.01153e-07
1.05864e-05
-2.1926e-08
1.05903e-05
1.56497e-07
1.06013e-05
3.31235e-07
1.0619e-05
4.99652e-07
1.06429e-05
6.593e-07
1.06723e-05
8.07961e-07
1.07068e-05
9.43649e-07
1.07455e-05
1.06466e-06
1.0788e-05
1.16964e-06
1.08335e-05
1.25758e-06
1.08814e-05
1.32779e-06
1.09311e-05
1.3798e-06
1.09823e-05
1.41311e-06
1.10349e-05
1.42634e-06
1.10883e-05
1.41749e-06
1.11416e-05
1.38613e-06
1.11941e-05
1.3326e-06
1.12449e-05
1.25771e-06
1.12934e-05
1.16268e-06
1.13388e-05
1.04911e-06
1.13806e-05
9.18953e-07
1.14183e-05
7.74438e-07
1.14515e-05
6.18102e-07
1.14797e-05
4.52792e-07
1.15026e-05
2.81811e-07
1.15197e-05
1.09467e-07
1.15308e-05
-6.05484e-08
1.15356e-05
-2.25439e-07
1.15341e-05
-3.82665e-07
1.15263e-05
-5.3e-07
1.15121e-05
-6.65596e-07
1.14919e-05
-7.87994e-07
1.14658e-05
-8.96124e-07
1.14342e-05
-9.89293e-07
1.13977e-05
-1.06712e-06
1.13567e-05
-1.12946e-06
1.13118e-05
-1.17625e-06
1.12633e-05
-1.2073e-06
1.12117e-05
-1.22209e-06
1.11577e-05
-1.22022e-06
1.11024e-05
-1.20206e-06
1.10468e-05
-1.16807e-06
1.09923e-05
-1.11871e-06
1.09398e-05
-1.05452e-06
1.08904e-05
-9.76153e-07
1.08451e-05
-8.84358e-07
1.08046e-05
-7.80109e-07
1.07696e-05
-6.6461e-07
1.07406e-05
-5.39332e-07
1.0718e-05
-4.06027e-07
1.07017e-05
-2.66716e-07
1.06919e-05
-1.23724e-07
1.06883e-05
1.99679e-08
1.06908e-05
1.61837e-07
1.0699e-05
2.99816e-07
1.07127e-05
4.31936e-07
1.07316e-05
5.56363e-07
1.07551e-05
6.71421e-07
1.07829e-05
7.75642e-07
1.08144e-05
8.67807e-07
1.08492e-05
9.46954e-07
1.08866e-05
1.01236e-06
1.09262e-05
1.06354e-06
1.09676e-05
1.10015e-06
1.10105e-05
1.12163e-06
1.10547e-05
1.12661e-06
1.10996e-05
1.11408e-06
1.11444e-05
1.08415e-06
1.11884e-05
1.03726e-06
1.12311e-05
9.74213e-07
1.12716e-05
8.96092e-07
1.13096e-05
8.04234e-07
1.13446e-05
7.00191e-07
1.1376e-05
5.85714e-07
1.14036e-05
4.62739e-07
1.14271e-05
3.33413e-07
1.1446e-05
2.00218e-07
1.146e-05
6.63281e-08
1.14691e-05
-6.57208e-08
1.1473e-05
-1.93894e-07
1.14717e-05
-3.16325e-07
1.14652e-05
-4.31349e-07
1.14535e-05
-5.37535e-07
1.14368e-05
-6.33716e-07
1.14153e-05
-7.18979e-07
1.13894e-05
-7.92661e-07
1.13595e-05
-8.5433e-07
1.1326e-05
-9.03719e-07
1.12893e-05
-9.40639e-07
1.12498e-05
-9.64753e-07
1.12077e-05
-9.75414e-07
1.11636e-05
-9.72165e-07
1.11184e-05
-9.55249e-07
1.1073e-05
-9.24984e-07
1.10282e-05
-8.8181e-07
1.09849e-05
-8.26296e-07
1.0944e-05
-7.59126e-07
1.0906e-05
-6.81123e-07
1.08716e-05
-5.93262e-07
1.08414e-05
-4.96687e-07
1.08157e-05
-3.92727e-07
1.07948e-05
-2.82866e-07
1.07788e-05
-1.68794e-07
1.07681e-05
-5.25961e-08
1.07619e-05
6.37747e-08
1.07611e-05
1.7762e-07
1.07641e-05
2.89571e-07
1.07724e-05
3.92761e-07
1.07846e-05
4.98792e-07
1.08e-05
5.79216e-07
6.97472e-07
1.18786e-05
-6.26541e-08
1.18824e-05
-2.674e-07
1.18771e-05
-4.60777e-07
1.18628e-05
-6.399e-07
1.18397e-05
-8.02541e-07
1.18083e-05
-9.47129e-07
1.17691e-05
-1.07272e-06
1.17227e-05
-1.17895e-06
1.16697e-05
-1.26584e-06
1.16108e-05
-1.33366e-06
1.15465e-05
-1.38266e-06
1.14772e-05
-1.41287e-06
1.14037e-05
-1.42444e-06
1.13272e-05
-1.4182e-06
1.12489e-05
-1.39518e-06
1.11702e-05
-1.35613e-06
1.10927e-05
-1.30159e-06
1.10178e-05
-1.23189e-06
1.09472e-05
-1.14721e-06
1.08822e-05
-1.04775e-06
1.08242e-05
-9.33879e-07
1.07741e-05
-8.06264e-07
1.07327e-05
-6.66011e-07
1.07004e-05
-5.14691e-07
1.06775e-05
-3.54344e-07
1.06638e-05
-1.87481e-07
1.06591e-05
-1.71889e-08
1.06628e-05
1.52787e-07
1.06745e-05
3.1955e-07
1.06936e-05
4.80525e-07
1.07196e-05
6.333e-07
1.07519e-05
7.75694e-07
1.07897e-05
9.05775e-07
1.08325e-05
1.02188e-06
1.08795e-05
1.12266e-06
1.093e-05
1.20711e-06
1.09833e-05
1.2745e-06
1.10388e-05
1.32426e-06
1.10962e-05
1.35569e-06
1.11552e-05
1.36733e-06
1.12151e-05
1.35763e-06
1.12749e-05
1.32636e-06
1.13337e-05
1.27382e-06
1.13906e-05
1.20077e-06
1.14449e-05
1.10839e-06
1.14958e-05
9.98223e-07
1.15426e-05
8.72129e-07
1.15848e-05
7.32278e-07
1.16217e-05
5.81128e-07
1.1653e-05
4.21477e-07
1.16782e-05
2.56648e-07
1.16967e-05
9.09587e-08
1.17084e-05
-7.21842e-08
1.1713e-05
-2.30049e-07
1.17105e-05
-3.80184e-07
1.17009e-05
-5.20466e-07
1.16845e-05
-6.49152e-07
1.16614e-05
-7.64896e-07
1.1632e-05
-8.66738e-07
1.15968e-05
-9.54086e-07
1.15563e-05
-1.02662e-06
1.15111e-05
-1.08421e-06
1.14616e-05
-1.12677e-06
1.14083e-05
-1.15399e-06
1.13516e-05
-1.16544e-06
1.12926e-05
-1.16114e-06
1.12321e-05
-1.14164e-06
1.11715e-05
-1.10741e-06
1.11118e-05
-1.05898e-06
1.10541e-05
-9.96888e-07
1.09997e-05
-9.21729e-07
1.09495e-05
-8.3419e-07
1.09045e-05
-7.3511e-07
1.08655e-05
-6.25538e-07
1.08329e-05
-5.06763e-07
1.08072e-05
-3.80346e-07
1.07886e-05
-2.48124e-07
1.07771e-05
-1.12256e-07
1.07727e-05
2.44546e-08
1.07749e-05
1.59583e-07
1.07836e-05
2.91121e-07
1.07984e-05
4.17148e-07
1.08189e-05
5.35883e-07
1.08446e-05
6.45707e-07
1.0875e-05
7.45199e-07
1.09097e-05
8.33171e-07
1.09479e-05
9.08688e-07
1.09893e-05
9.71048e-07
1.10331e-05
1.01972e-06
1.1079e-05
1.05424e-06
1.11267e-05
1.07389e-06
1.11759e-05
1.07746e-06
1.12257e-05
1.06426e-06
1.12754e-05
1.03444e-06
1.13242e-05
9.88417e-07
1.13715e-05
9.26946e-07
1.14165e-05
8.51067e-07
1.14587e-05
7.62056e-07
1.14975e-05
6.61406e-07
1.15324e-05
5.50804e-07
1.1563e-05
4.32121e-07
1.1589e-05
3.07462e-07
1.16098e-05
1.79352e-07
1.16252e-05
5.09085e-08
1.16351e-05
-7.5525e-08
1.16391e-05
-1.97967e-07
1.16374e-05
-3.14619e-07
1.163e-05
-4.23893e-07
1.16169e-05
-5.24445e-07
1.15983e-05
-6.15192e-07
1.15747e-05
-6.95315e-07
1.15463e-05
-7.64231e-07
1.15135e-05
-8.2157e-07
1.14769e-05
-8.67074e-07
1.14367e-05
-9.005e-07
1.13934e-05
-9.21426e-07
1.13473e-05
-9.29309e-07
1.12992e-05
-9.24052e-07
1.12499e-05
-9.05972e-07
1.12003e-05
-8.75423e-07
1.11514e-05
-8.32868e-07
1.1104e-05
-7.7887e-07
1.10589e-05
-7.14074e-07
1.1017e-05
-6.39241e-07
1.0979e-05
-5.55255e-07
1.09455e-05
-4.63152e-07
1.09169e-05
-3.64123e-07
1.08936e-05
-2.59565e-07
1.08757e-05
-1.50892e-07
1.08636e-05
-4.05193e-08
1.08567e-05
7.07183e-08
1.08558e-05
1.78525e-07
1.08592e-05
2.86078e-07
1.08682e-05
3.83815e-07
1.08819e-05
4.8505e-07
1.08993e-05
5.61899e-07
6.74839e-07
1.20717e-05
-7.50453e-08
1.20739e-05
-2.69618e-07
1.2066e-05
-4.52913e-07
1.20484e-05
-6.22228e-07
1.20213e-05
-7.75495e-07
1.19855e-05
-9.11281e-07
1.19415e-05
-1.02875e-06
1.18901e-05
-1.12756e-06
1.1832e-05
-1.20774e-06
1.17678e-05
-1.26947e-06
1.16981e-05
-1.3129e-06
1.16233e-05
-1.3381e-06
1.15443e-05
-1.3455e-06
1.14624e-05
-1.33624e-06
1.13786e-05
-1.31143e-06
1.12945e-05
-1.27196e-06
1.12114e-05
-1.21849e-06
1.11309e-05
-1.15144e-06
1.10547e-05
-1.07102e-06
1.09843e-05
-9.77346e-07
1.09211e-05
-8.70645e-07
1.08662e-05
-7.51368e-07
1.08205e-05
-6.20336e-07
1.07847e-05
-4.7882e-07
1.07589e-05
-3.28565e-07
1.07432e-05
-1.71806e-07
1.07373e-05
-1.13143e-08
1.07407e-05
1.4937e-07
1.07529e-05
3.07346e-07
1.07734e-05
4.60111e-07
1.08014e-05
6.05303e-07
1.08363e-05
7.40777e-07
1.08774e-05
8.6464e-07
1.0924e-05
9.75279e-07
1.09753e-05
1.07136e-06
1.10306e-05
1.15185e-06
1.10891e-05
1.21599e-06
1.11502e-05
1.26309e-06
1.12136e-05
1.29229e-06
1.12788e-05
1.30218e-06
1.13448e-05
1.2916e-06
1.14107e-05
1.26044e-06
1.14756e-05
1.20899e-06
1.15384e-05
1.13796e-06
1.15983e-05
1.0485e-06
1.16544e-05
9.42076e-07
1.1706e-05
8.20505e-07
1.17524e-05
6.85883e-07
1.1793e-05
5.40584e-07
1.18271e-05
3.87333e-07
1.18543e-05
2.29511e-07
1.18739e-05
7.1314e-08
1.18858e-05
-8.41316e-08
1.189e-05
-2.3419e-07
1.18863e-05
-3.76519e-07
1.1875e-05
-5.09118e-07
1.18562e-05
-6.30364e-07
1.18303e-05
-7.3903e-07
1.17978e-05
-8.34254e-07
1.17593e-05
-9.1551e-07
1.17152e-05
-9.82518e-07
1.16661e-05
-1.03513e-06
1.16125e-05
-1.07317e-06
1.15548e-05
-1.0963e-06
1.14936e-05
-1.10429e-06
1.143e-05
-1.09754e-06
1.1365e-05
-1.07662e-06
1.12997e-05
-1.04209e-06
1.12353e-05
-9.94535e-07
1.11729e-05
-9.34516e-07
1.11138e-05
-8.62614e-07
1.1059e-05
-7.79457e-07
1.10097e-05
-6.85778e-07
1.09666e-05
-5.82472e-07
1.09305e-05
-4.70646e-07
1.09018e-05
-3.5166e-07
1.08809e-05
-2.27146e-07
1.08677e-05
-9.90722e-08
1.08622e-05
2.99596e-08
1.08641e-05
1.57663e-07
1.08731e-05
2.82105e-07
1.08888e-05
4.01429e-07
1.09108e-05
5.13903e-07
1.09385e-05
6.17967e-07
1.09715e-05
7.12253e-07
1.10091e-05
7.95609e-07
1.10506e-05
8.67114e-07
1.10956e-05
9.26059e-07
1.11435e-05
9.71881e-07
1.11937e-05
1.004e-06
1.1246e-05
1.0216e-06
1.12998e-05
1.02365e-06
1.13543e-05
1.00977e-06
1.14087e-05
9.80084e-07
1.14621e-05
9.34995e-07
1.15138e-05
8.75229e-07
1.15631e-05
8.01781e-07
1.16093e-05
7.15875e-07
1.16517e-05
6.18945e-07
1.16899e-05
5.1261e-07
1.17234e-05
3.98675e-07
1.17516e-05
2.79206e-07
1.17742e-05
1.56776e-07
1.17907e-05
3.43686e-08
1.18011e-05
-8.58671e-08
1.18051e-05
-2.02017e-07
1.18029e-05
-3.12364e-07
1.17944e-05
-4.15411e-07
1.17799e-05
-5.09912e-07
1.17595e-05
-5.94874e-07
1.17338e-05
-6.69566e-07
1.1703e-05
-7.3347e-07
1.16677e-05
-7.86243e-07
1.16282e-05
-8.27619e-07
1.1585e-05
-8.57282e-07
1.15384e-05
-8.74767e-07
1.14888e-05
-8.79739e-07
1.14371e-05
-8.72387e-07
1.13842e-05
-8.53051e-07
1.13309e-05
-8.22137e-07
1.12782e-05
-7.80148e-07
1.1227e-05
-7.27648e-07
1.11782e-05
-6.65267e-07
1.11326e-05
-5.93711e-07
1.10912e-05
-5.13789e-07
1.10545e-05
-4.26431e-07
1.1023e-05
-3.32689e-07
1.09973e-05
-2.33867e-07
1.09775e-05
-1.3108e-07
1.09641e-05
-2.70842e-08
1.09564e-05
7.84209e-08
1.09552e-05
1.79749e-07
1.09591e-05
2.82136e-07
1.09687e-05
3.74237e-07
1.09837e-05
4.70005e-07
1.10028e-05
5.4285e-07
6.49858e-07
1.22585e-05
-8.68479e-08
1.22592e-05
-2.70259e-07
1.22489e-05
-4.42608e-07
1.2228e-05
-6.01387e-07
1.21972e-05
-7.44708e-07
1.21572e-05
-8.71271e-07
1.21088e-05
-9.8033e-07
1.20528e-05
-1.07156e-06
1.199e-05
-1.14494e-06
1.19211e-05
-1.20054e-06
1.18466e-05
-1.23839e-06
1.17671e-05
-1.25861e-06
1.16835e-05
-1.26194e-06
1.1597e-05
-1.24968e-06
1.15086e-05
-1.22303e-06
1.14197e-05
-1.18303e-06
1.13317e-05
-1.13052e-06
1.12462e-05
-1.066e-06
1.1165e-05
-9.89757e-07
1.10895e-05
-9.01892e-07
1.10214e-05
-8.02511e-07
1.09619e-05
-6.9186e-07
1.0912e-05
-5.70485e-07
1.08726e-05
-4.39348e-07
1.08439e-05
-2.9988e-07
1.08261e-05
-1.53999e-07
1.08189e-05
-4.15346e-09
1.08219e-05
1.46411e-07
1.08344e-05
2.94806e-07
1.08559e-05
4.38604e-07
1.08857e-05
5.7551e-07
1.09231e-05
7.03422e-07
1.09672e-05
8.20484e-07
1.10174e-05
9.25114e-07
1.10727e-05
1.016e-06
1.11325e-05
1.0921e-06
1.11959e-05
1.15256e-06
1.12624e-05
1.1966e-06
1.13315e-05
1.22324e-06
1.14024e-05
1.23122e-06
1.14743e-05
1.21971e-06
1.15461e-05
1.18866e-06
1.16167e-05
1.13837e-06
1.16851e-05
1.06955e-06
1.17503e-05
9.83291e-07
1.18114e-05
8.81024e-07
1.18674e-05
7.64474e-07
1.19176e-05
6.35646e-07
1.19614e-05
4.96821e-07
1.19981e-05
3.50679e-07
1.20269e-05
2.00662e-07
1.20475e-05
5.07326e-08
1.20596e-05
-9.6257e-08
1.20632e-05
-2.37791e-07
1.20584e-05
-3.71656e-07
1.20452e-05
-4.95993e-07
1.20242e-05
-6.09311e-07
1.19956e-05
-7.105e-07
1.19602e-05
-7.98798e-07
1.19184e-05
-8.7373e-07
1.18709e-05
-9.35024e-07
1.18183e-05
-9.82481e-07
1.17609e-05
-1.01582e-06
1.16994e-05
-1.03474e-06
1.16344e-05
-1.0393e-06
1.15669e-05
-1.03006e-06
1.14979e-05
-1.00765e-06
1.14285e-05
-9.7272e-07
1.13599e-05
-9.25928e-07
1.12933e-05
-8.67899e-07
1.12299e-05
-7.99223e-07
1.1171e-05
-7.20496e-07
1.11175e-05
-6.32363e-07
1.10707e-05
-5.35579e-07
1.10311e-05
-4.31069e-07
1.09994e-05
-3.1998e-07
1.0976e-05
-2.03732e-07
1.0961e-05
-8.40848e-08
1.09544e-05
3.65999e-08
1.09558e-05
1.5622e-07
1.0965e-05
2.72929e-07
1.09815e-05
3.84949e-07
1.10047e-05
4.90613e-07
1.10343e-05
5.88412e-07
1.10695e-05
6.77028e-07
1.11098e-05
7.5535e-07
1.11544e-05
8.22468e-07
1.12028e-05
8.77647e-07
1.12545e-05
9.20262e-07
1.13088e-05
9.49653e-07
1.13654e-05
9.64971e-07
1.14237e-05
9.65424e-07
1.14826e-05
9.50825e-07
1.15414e-05
9.21291e-07
1.15992e-05
8.77219e-07
1.16551e-05
8.19309e-07
1.17084e-05
7.48511e-07
1.17583e-05
6.65993e-07
1.18041e-05
5.73118e-07
1.18453e-05
4.7143e-07
1.18813e-05
3.62666e-07
1.19116e-05
2.4887e-07
1.19357e-05
1.32696e-07
1.19532e-05
1.68599e-08
1.1964e-05
-9.66407e-08
1.19679e-05
-2.0598e-07
1.19651e-05
-3.09537e-07
1.19556e-05
-4.0592e-07
1.19397e-05
-4.93985e-07
1.19177e-05
-5.72838e-07
1.18899e-05
-6.41825e-07
1.18569e-05
-7.00486e-07
1.18192e-05
-7.48484e-07
1.17771e-05
-7.85513e-07
1.1731e-05
-8.1118e-07
1.16813e-05
-8.25074e-07
1.16286e-05
-8.27118e-07
1.15739e-05
-8.17633e-07
1.15178e-05
-7.96988e-07
1.14613e-05
-7.65652e-07
1.14054e-05
-7.24168e-07
1.13508e-05
-6.73122e-07
1.12987e-05
-6.13142e-07
1.12499e-05
-5.44905e-07
1.12053e-05
-4.69155e-07
1.11656e-05
-3.86735e-07
1.11314e-05
-2.98555e-07
1.11034e-05
-2.05835e-07
1.10817e-05
-1.0939e-07
1.10669e-05
-1.22347e-08
1.10584e-05
8.68901e-08
1.10567e-05
1.81475e-07
1.1061e-05
2.77797e-07
1.10712e-05
3.64087e-07
1.10873e-05
4.53901e-07
1.11078e-05
5.22291e-07
6.2273e-07
1.24344e-05
-9.80042e-08
1.24335e-05
-2.69418e-07
1.2421e-05
-4.30099e-07
1.23974e-05
-5.77754e-07
1.23633e-05
-7.10675e-07
1.23198e-05
-8.27695e-07
1.22676e-05
-9.28128e-07
1.22077e-05
-1.01165e-06
1.21409e-05
-1.07815e-06
1.20679e-05
-1.12756e-06
1.19893e-05
-1.15981e-06
1.19058e-05
-1.17514e-06
1.18184e-05
-1.17456e-06
1.17281e-05
-1.15936e-06
1.16359e-05
-1.13084e-06
1.15431e-05
-1.0902e-06
1.1451e-05
-1.03844e-06
1.13612e-05
-9.76245e-07
1.12755e-05
-9.04002e-07
1.11955e-05
-8.21857e-07
1.11228e-05
-7.29835e-07
1.10589e-05
-6.27996e-07
1.1005e-05
-5.16613e-07
1.0962e-05
-3.96328e-07
1.09304e-05
-2.68239e-07
1.09103e-05
-1.33934e-07
1.09017e-05
4.46672e-09
1.0904e-05
1.44114e-07
1.09166e-05
2.82164e-07
1.0939e-05
4.1627e-07
1.09703e-05
5.44209e-07
1.10098e-05
6.63933e-07
1.10566e-05
7.73626e-07
1.111e-05
8.71724e-07
1.11691e-05
9.56926e-07
1.1233e-05
1.02816e-06
1.13011e-05
1.08451e-06
1.13726e-05
1.12508e-06
1.1447e-05
1.14886e-06
1.15234e-05
1.1548e-06
1.16007e-05
1.14237e-06
1.16779e-05
1.11152e-06
1.17537e-05
1.06255e-06
1.18271e-05
9.9616e-07
1.1897e-05
9.13406e-07
1.19624e-05
8.15651e-07
1.20223e-05
7.04544e-07
1.20759e-05
5.81995e-07
1.21226e-05
4.502e-07
1.21614e-05
3.11802e-07
1.21918e-05
1.70346e-07
1.22131e-05
2.93714e-08
1.22254e-05
-1.08485e-07
1.22284e-05
-2.40858e-07
1.22224e-05
-3.65687e-07
1.22077e-05
-4.81265e-07
1.21847e-05
-5.86244e-07
1.21538e-05
-6.79633e-07
1.21157e-05
-7.6075e-07
1.20712e-05
-8.29156e-07
1.20207e-05
-8.84556e-07
1.19649e-05
-9.26669e-07
1.19042e-05
-9.55145e-07
1.18393e-05
-9.69797e-07
1.17709e-05
-9.70944e-07
1.17e-05
-9.59206e-07
1.16277e-05
-9.35261e-07
1.15548e-05
-8.99856e-07
1.14826e-05
-8.53734e-07
1.14123e-05
-7.97591e-07
1.13451e-05
-7.32062e-07
1.12824e-05
-6.5774e-07
1.12252e-05
-5.75214e-07
1.11748e-05
-4.85121e-07
1.11319e-05
-3.88212e-07
1.10973e-05
-2.85417e-07
1.10715e-05
-1.77926e-07
1.10547e-05
-6.72891e-08
1.10469e-05
4.44276e-08
1.10478e-05
1.5535e-07
1.1057e-05
2.63735e-07
1.1074e-05
3.67887e-07
1.10984e-05
4.66215e-07
1.11296e-05
5.5727e-07
1.11668e-05
6.39778e-07
1.12095e-05
7.12655e-07
1.1257e-05
7.74998e-07
1.13086e-05
8.2605e-07
1.13637e-05
8.6512e-07
1.14219e-05
8.91475e-07
1.14825e-05
9.04341e-07
1.15448e-05
9.03171e-07
1.16078e-05
8.87866e-07
1.16705e-05
8.58537e-07
1.17322e-05
8.15581e-07
1.17918e-05
7.59673e-07
1.18486e-05
6.91716e-07
1.19018e-05
6.1282e-07
1.19506e-05
5.24278e-07
1.19945e-05
4.27557e-07
1.20328e-05
3.24336e-07
1.2065e-05
2.16681e-07
1.20904e-05
1.07288e-07
1.21087e-05
-1.49515e-09
1.21199e-05
-1.07775e-07
1.21237e-05
-2.09838e-07
1.21204e-05
-3.06175e-07
1.211e-05
-3.95514e-07
1.20928e-05
-4.76818e-07
1.20693e-05
-5.4929e-07
1.20398e-05
-6.12348e-07
1.20049e-05
-6.65566e-07
1.1965e-05
-7.08594e-07
1.19205e-05
-7.41057e-07
1.18719e-05
-7.62521e-07
1.18195e-05
-7.72725e-07
1.17642e-05
-7.71821e-07
1.17067e-05
-7.60151e-07
1.16479e-05
-7.38142e-07
1.15886e-05
-7.06326e-07
1.15297e-05
-6.65292e-07
1.14722e-05
-6.15657e-07
1.14171e-05
-5.58062e-07
1.13654e-05
-4.93173e-07
1.13179e-05
-4.21683e-07
1.12756e-05
-3.44362e-07
1.1239e-05
-2.61983e-07
1.12089e-05
-1.75708e-07
1.11855e-05
-8.60395e-08
1.11694e-05
3.88914e-09
1.11603e-05
9.602e-08
1.11581e-05
1.83673e-07
1.11627e-05
2.73148e-07
1.11734e-05
3.53353e-07
1.11905e-05
4.36864e-07
1.12123e-05
5.00422e-07
5.93696e-07
1.25948e-05
-1.08559e-07
1.25927e-05
-2.67306e-07
1.25784e-05
-4.15761e-07
1.25525e-05
-5.51858e-07
1.25159e-05
-6.74063e-07
1.24695e-05
-7.81329e-07
1.24144e-05
-8.73008e-07
1.23515e-05
-9.48738e-07
1.22816e-05
-1.00829e-06
1.22055e-05
-1.05144e-06
1.21237e-05
-1.07806e-06
1.20372e-05
-1.08859e-06
1.19468e-05
-1.08415e-06
1.18534e-05
-1.06601e-06
1.17581e-05
-1.03557e-06
1.16621e-05
-9.94181e-07
1.15667e-05
-9.43e-07
1.14733e-05
-8.82898e-07
1.13838e-05
-8.14418e-07
1.12997e-05
-7.37808e-07
1.1223e-05
-6.53074e-07
1.11551e-05
-5.60114e-07
1.10974e-05
-4.58939e-07
1.10509e-05
-3.49866e-07
1.10163e-05
-2.3365e-07
1.09939e-05
-1.11532e-07
1.09837e-05
1.47188e-08
1.09851e-05
1.42692e-07
1.09976e-05
2.69671e-07
1.10205e-05
3.93395e-07
1.1053e-05
5.11714e-07
1.10943e-05
6.22643e-07