/*--------------------------------*- C++ -*----------------------------------*\
| =========                 |                                                 |
| \\      /  F ield         | OpenFOAM: The Open Source CFD Toolbox           |
|  \\    /   O peration     | Version:  2206                                  |
|   \\  /    A nd           | Website:  www.openfoam.com                      |
|    \\/     M anipulation  |                                                 |
\*---------------------------------------------------------------------------*/
FoamFile
{
    version     2.0;
    format      ascii;
    arch        "LSB;label=32;scalar=64";
    class       surfaceScalarField;
    location    "19.8999";
    object      ddtCorrDdt0(phi);
}
// * * * * * * * * * * * * * * * * * * * * * * * * * * * * * * * * * * * * * //

dimensions      [0 3 -2 0 0 0 0];

oriented        oriented;

internalField   nonuniform List<scalar> 
6027
(
0.00019493
-3.19986e-05
7.77632e-06
0.000209596
-5.79877e-05
4.33215e-05
0.000212661
-7.03988e-05
6.7334e-05
0.000205602
-7.14629e-05
7.85215e-05
0.000192154
-6.66343e-05
8.00829e-05
0.000174438
-5.94946e-05
7.72102e-05
0.000154374
-5.27109e-05
7.27751e-05
0.000133557
-4.83508e-05
6.9168e-05
0.000112987
-4.80799e-05
6.86497e-05
9.29316e-05
-5.35339e-05
7.35891e-05
7.37104e-05
-6.5961e-05
8.51822e-05
5.63347e-05
-8.34161e-05
0.000100792
4.07446e-05
-0.000104823
0.000120413
2.69525e-05
-0.000129414
0.000143207
1.47927e-05
-0.000155725
0.000167885
4.07633e-06
-0.000182335
0.000193052
-5.38969e-06
-0.000207883
0.000217349
-1.38095e-05
-0.000231238
0.000239658
-2.13971e-05
-0.000251551
0.000259139
-2.83895e-05
-0.000268194
0.000275187
-3.50248e-05
-0.000280577
0.000287213
-4.14729e-05
-0.000287709
0.000294157
-4.77006e-05
-0.0002874
0.000293628
-5.40574e-05
-0.000281407
0.000287764
-6.05137e-05
-0.000270588
0.000277044
-6.69339e-05
-0.000255004
0.000261424
-7.30286e-05
-0.000234812
0.000240907
-7.8359e-05
-0.000210412
0.000215742
-8.24248e-05
-0.000182568
0.000186634
-8.48441e-05
-0.000152429
0.000154848
-8.55774e-05
-0.000121342
0.000122075
-8.50851e-05
-9.04917e-05
8.99994e-05
-8.43177e-05
-6.03439e-05
5.95764e-05
-8.39454e-05
-2.97753e-05
2.94029e-05
-8.29084e-05
2.7884e-06
-3.82535e-06
-8.04561e-05
3.57886e-05
-3.82409e-05
-7.68665e-05
6.78746e-05
-7.14643e-05
-7.26912e-05
9.78927e-05
-0.000102068
-6.83658e-05
0.000125141
-0.000129466
-6.42878e-05
0.000149213
-0.000153291
-6.06283e-05
0.000169979
-0.000173638
-5.73412e-05
0.000187564
-0.000190851
-5.42784e-05
0.000202201
-0.000205263
-5.12947e-05
0.000214174
-0.000217158
-4.82504e-05
0.000223819
-0.000226863
-4.50939e-05
0.000231511
-0.000234667
-4.18677e-05
0.000237718
-0.000240945
-3.8557e-05
0.000242702
-0.000246012
-3.46402e-05
0.000246019
-0.000249936
-2.91734e-05
0.000246647
-0.000252113
-2.17624e-05
0.000244557
-0.000251967
-1.37109e-05
0.000240429
-0.000248481
-4.99265e-06
0.000232892
-0.00024161
6.96703e-06
0.000220233
-0.000232193
2.10697e-05
0.000202965
-0.000217067
3.60687e-05
0.000182159
-0.000197158
5.24074e-05
0.000158399
-0.000174737
6.98772e-05
0.000131829
-0.000149299
8.8416e-05
0.000102699
-0.000121238
0.000106846
7.26495e-05
-9.10794e-05
0.000122772
4.45105e-05
-6.04361e-05
0.000134393
2.03101e-05
-3.19313e-05
0.000140653
1.16947e-06
-7.42968e-06
0.00014079
-1.22287e-05
1.20917e-05
0.000135538
-2.09241e-05
2.61765e-05
0.000126622
-2.71464e-05
3.60616e-05
0.00011523
-3.25183e-05
4.39104e-05
0.000102327
-3.84501e-05
5.1353e-05
8.84897e-05
-4.64502e-05
6.02878e-05
7.43554e-05
-5.7897e-05
7.20313e-05
6.08368e-05
-7.23643e-05
8.58829e-05
4.8232e-05
-8.89785e-05
0.000101583
3.68416e-05
-0.000107337
0.000118727
2.67318e-05
-0.000126609
0.000136719
1.78727e-05
-0.000145924
0.000154783
1.01614e-05
-0.000164369
0.00017208
3.44505e-06
-0.00018117
0.000187887
-2.45627e-06
-0.000195759
0.00020166
-7.74367e-06
-0.000207773
0.000213061
-1.26386e-05
-0.000216987
0.000221882
-1.73702e-05
-0.000223081
0.000227813
-2.21068e-05
-0.000225068
0.000229805
-2.70039e-05
-0.000222823
0.00022772
-3.21271e-05
-0.000217762
0.000222886
-3.74902e-05
-0.000209968
0.000215331
-4.30423e-05
-0.000199459
0.000205011
-4.86479e-05
-0.000186226
0.000191831
-5.40691e-05
-0.000170317
0.000175738
-5.89747e-05
-0.000151937
0.000156842
-6.30059e-05
-0.000131533
0.000135564
-6.59034e-05
-0.000109801
0.000112699
-6.7656e-05
-8.75458e-05
8.92984e-05
-6.86015e-05
-6.54198e-05
6.63652e-05
-6.9403e-05
-4.35273e-05
4.43288e-05
-7.04908e-05
-2.10773e-05
2.21652e-05
-7.12639e-05
2.40964e-06
-1.63658e-06
-7.12524e-05
2.61142e-05
-2.61256e-05
-7.03503e-05
4.97734e-05
-5.06756e-05
-6.86705e-05
7.27566e-05
-7.44364e-05
-6.6364e-05
9.45234e-05
-9.68299e-05
-6.35859e-05
0.000114698
-0.000117476
-6.04573e-05
0.000132989
-0.000136118
-5.70418e-05
0.000149201
-0.000152617
-5.3332e-05
0.000163242
-0.000166952
-4.93167e-05
0.000175116
-0.000179131
-4.49841e-05
0.000184922
-0.000189255
-4.03095e-05
0.000192816
-0.00019749
-3.52073e-05
0.000198816
-0.000203918
-2.9501e-05
0.000202417
-0.000208123
-2.34553e-05
0.000203154
-0.0002092
-1.70651e-05
0.000202231
-0.000208621
-9.38386e-06
0.000199751
-0.000207432
-1.76765e-07
0.000195107
-0.000204314
9.75411e-06
0.000187526
-0.000197457
1.96351e-05
0.000177296
-0.000187177
2.93991e-05
0.000164902
-0.000174666
3.94785e-05
0.000151367
-0.000161447
4.99172e-05
0.000135852
-0.000146291
6.03683e-05
0.000119791
-0.000130242
7.08164e-05
0.00010107
-0.000111518
8.12826e-05
8.34742e-05
-9.39405e-05
9.05221e-05
6.28743e-05
-7.21138e-05
9.83771e-05
4.80954e-05
-5.59504e-05
2.5777e-05
-2.99138e-05
0.000224899
-5.03659e-05
0.000231343
-6.44325e-05
0.000226761
-6.58161e-05
0.000214831
-5.95328e-05
0.000198047
-4.98502e-05
0.000178351
-3.97986e-05
0.000157453
-3.18129e-05
0.000136757
-2.76552e-05
0.000117139
-2.84622e-05
9.87066e-05
-3.51012e-05
8.118e-05
-4.84343e-05
6.52411e-05
-6.74772e-05
5.07441e-05
-9.03257e-05
3.75968e-05
-0.000116267
2.55822e-05
-0.00014371
1.45012e-05
-0.000171254
4.20044e-06
-0.000197582
-5.46211e-06
-0.000221575
-1.46381e-05
-0.000242375
-2.35005e-05
-0.000259332
-3.22043e-05
-0.000271874
-4.08162e-05
-0.000279097
-4.9145e-05
-0.000279071
-5.75068e-05
-0.000273045
-6.58179e-05
-0.000262277
-7.3903e-05
-0.000246919
-8.14592e-05
-0.000227256
-8.80839e-05
-0.000203787
-9.33729e-05
-0.000177279
-9.70726e-05
-0.000148729
-9.92322e-05
-0.000119182
-0.000100281
-8.94433e-05
-0.000100918
-5.97066e-05
-0.000101435
-2.92581e-05
-0.00010105
2.40382e-06
-9.93165e-05
3.40548e-05
-9.63333e-05
6.48914e-05
-9.24292e-05
9.39887e-05
-8.79378e-05
0.000120649
-8.31713e-05
0.000144446
-7.83533e-05
0.000165161
-7.35732e-05
0.000182784
-6.8821e-05
0.000197448
-6.40394e-05
0.000209392
-5.9188e-05
0.000218967
-5.43081e-05
0.000226631
-4.94247e-05
0.000232835
-4.43546e-05
0.000237632
-3.83866e-05
0.000240051
-3.14011e-05
0.000239661
-2.32566e-05
0.000236412
-1.28355e-05
0.000230008
3.06433e-07
0.00021975
1.54548e-05
0.000205085
3.20922e-05
0.000186327
5.00673e-05
0.000164184
6.94336e-05
0.000139032
9.02081e-05
0.000111054
0.000111207
8.16999e-05
0.000129934
5.39223e-05
0.000144453
2.99921e-05
0.000153487
1.12758e-05
0.00015607
-1.41339e-06
0.000152655
-8.8132e-06
0.000144877
-1.31468e-05
0.000134082
-1.63508e-05
0.000121475
-1.99113e-05
0.000108033
-2.50085e-05
9.43044e-05
-3.27214e-05
8.0528e-05
-4.41205e-05
6.74263e-05
-5.92627e-05
5.52127e-05
-7.67648e-05
4.41041e-05
-9.62282e-05
3.40919e-05
-0.000116597
2.50844e-05
-0.000136916
1.69652e-05
-0.00015625
9.59402e-06
-0.000173799
2.81951e-06
-0.000188984
-3.52142e-06
-0.000201432
-9.60706e-06
-0.000210901
-1.56135e-05
-0.000217075
-2.16499e-05
-0.000219032
-2.78289e-05
-0.000216644
-3.42045e-05
-0.000211387
-4.07801e-05
-0.000203393
-4.74883e-05
-0.000192751
-5.41705e-05
-0.000179543
-6.05743e-05
-0.000163913
-6.6384e-05
-0.000146127
-7.12965e-05
-0.000126621
-7.51322e-05
-0.000105965
-7.79391e-05
-8.4739e-05
-8.00352e-05
-6.33237e-05
-8.18891e-05
-4.16733e-05
-8.36049e-05
-1.93615e-05
-8.47018e-05
3.50649e-06
-8.49609e-05
2.63732e-05
-8.42852e-05
4.90977e-05
-8.26916e-05
7.1163e-05
-8.02693e-05
9.21012e-05
-7.71259e-05
0.000111555
-7.33579e-05
0.000129221
-6.90402e-05
0.000144883
-6.42274e-05
0.00015843
-5.89683e-05
0.000169856
-5.33022e-05
0.000179256
-4.72205e-05
0.000186734
-4.05985e-05
0.000192194
-3.31879e-05
0.000195006
-2.54128e-05
0.000195379
-1.70551e-05
0.000193873
-7.69167e-06
0.000190387
2.75439e-06
0.000184661
1.38606e-05
0.00017642
2.52097e-05
0.000165947
3.66955e-05
0.000153416
4.85379e-05
0.000139525
6.06987e-05
0.000123691
7.31321e-05
0.000107358
8.5344e-05
8.8858e-05
9.68982e-05
7.19201e-05
0.000106167
5.36056e-05
0.000113277
4.09856e-05
2.27695e-05
0.000245046
-6.00739e-05
0.000242949
-6.23362e-05
0.000232606
-5.54722e-05
0.000217116
-4.40435e-05
0.00019847
-3.12037e-05
0.000178351
-1.96797e-05
0.000158141
-1.16031e-05
0.000138872
-8.38641e-06
0.000121155
-1.07453e-05
0.000105
-1.89456e-05
8.98104e-05
-3.32451e-05
7.56341e-05
-5.33009e-05
6.23808e-05
-7.70724e-05
4.98647e-05
-0.000103751
3.78858e-05
-0.000131732
2.6279e-05
-0.000159648
1.49535e-05
-0.000186256
3.8453e-06
-0.000210467
-7.10938e-06
-0.000231421
-1.80147e-05
-0.000248426
-2.89492e-05
-0.000260939
-3.98724e-05
-0.000268174
-5.0416e-05
-0.000268528
-6.08286e-05
-0.000262633
-7.0977e-05
-0.000252128
-8.06612e-05
-0.000237234
-8.95933e-05
-0.000218324
-9.74369e-05
-0.000195943
-0.000103895
-0.000170821
-0.000108825
-0.000143799
-0.000112336
-0.000115671
-0.0001148
-8.69791e-05
-0.00011668
-5.78272e-05
-0.000118021
-2.79168e-05
-0.000118244
2.62654e-06
-0.000117085
3.28958e-05
-0.000114587
6.23938e-05
-0.000110939
9.03409e-05
-0.000106384
0.000116095
-0.000101177
0.000139239
-9.55331e-05
0.000159517
-8.95953e-05
0.000176846
-8.3449e-05
0.000191302
-7.7175e-05
0.000203118
-7.08962e-05
0.000212688
-6.47383e-05
0.000220473
-5.86123e-05
0.000226709
-5.18363e-05
0.000230855
-4.38586e-05
0.000232073
-3.45306e-05
0.000230333
-2.33562e-05
0.000225238
-9.79321e-06
0.000216445
6.27225e-06
0.000203684
2.44167e-05
0.00018694
4.41831e-05
0.000166561
6.54777e-05
0.000142889
8.83839e-05
0.000116126
0.000111795
8.76431e-05
0.000133213
6.02822e-05
0.000150547
3.6588e-05
0.000162371
1.81683e-05
0.000167741
5.90565e-06
0.000166775
-4.47277e-07
0.000160793
-2.83081e-06
0.000151278
-3.6322e-06
0.000139496
-4.5688e-06
0.000126553
-6.96876e-06
0.000113338
-1.17935e-05
0.000100332
-1.97148e-05
8.75531e-05
-3.13418e-05
7.525e-05
-4.69596e-05
6.37036e-05
-6.52183e-05
5.2972e-05
-8.54967e-05
4.30291e-05
-0.000106654
3.3761e-05
-0.000127648
2.50635e-05
-0.000147552
1.68305e-05
-0.000165566
8.95135e-06
-0.000181105
1.30882e-06
-0.00019379
-6.22337e-06
-0.000203369
-1.37569e-05
-0.000209542
-2.13002e-05
-0.000211489
-2.89134e-05
-0.000209031
-3.6623e-05
-0.000203677
-4.44123e-05
-0.000195603
-5.21993e-05
-0.000184964
-5.98237e-05
-0.000171919
-6.70535e-05
-0.000156683
-7.36233e-05
-0.000139557
-7.9304e-05
-0.00012094
-8.39903e-05
-0.000101279
-8.77657e-05
-8.09635e-05
-9.08979e-05
-6.01915e-05
-9.36536e-05
-3.89177e-05
-9.58938e-05
-1.71212e-05
-9.72757e-05
4.8884e-06
-9.77501e-05
2.68476e-05
-9.72128e-05
4.85605e-05
-9.56406e-05
6.95908e-05
-9.30797e-05
8.95403e-05
-8.95977e-05
0.000108073
-8.5273e-05
0.000124897
-8.01905e-05
0.000139801
-7.44415e-05
0.000152681
-6.81279e-05
0.000163543
-6.13416e-05
0.00017247
-5.40737e-05
0.000179466
-4.60267e-05
0.000184147
-3.71559e-05
0.000186135
-2.77287e-05
0.000185952
-1.75707e-05
0.000183715
-6.53901e-06
0.000179356
5.34598e-06
0.000172776
1.78727e-05
0.000163893
3.08757e-05
0.000152944
4.4246e-05
0.000140046
5.80751e-05
0.000125696
7.22101e-05
0.000109556
8.65018e-05
9.30659e-05
9.96768e-05
7.56831e-05
0.000111343
6.02542e-05
0.000119941
4.50076e-05
0.000125873
3.50533e-05
2.09658e-05
0.000253562
-5.97039e-05
0.000244363
-5.31374e-05
0.000230065
-4.11745e-05
0.000212798
-2.67767e-05
0.000194196
-1.26016e-05
0.00017547
-9.53039e-07
0.000157503
6.36398e-06
0.000140883
8.23334e-06
0.000125884
4.25329e-06
0.000112376
-5.43701e-06
9.97046e-05
-2.05742e-05
8.73477e-05
-4.0944e-05
7.52736e-05
-6.49983e-05
6.32614e-05
-9.17388e-05
5.11703e-05
-0.00011964
3.88892e-05
-0.000147366
2.6396e-05
-0.000173763
1.37128e-05
-0.000197784
8.56444e-07
-0.000218564
-1.21586e-05
-0.000235411
-2.5342e-05
-0.000247756
-3.85658e-05
-0.00025495
-5.13155e-05
-0.000255778
-6.37246e-05
-0.000250224
-7.56517e-05
-0.000240201
-8.68862e-05
-0.000226
-9.71655e-05
-0.000208045
-0.000106224
-0.000186885
-0.000113861
-0.000163184
-0.000120023
-0.000137637
-0.000124848
-0.000110846
-0.000128628
-8.3199e-05
-0.00013162
-5.48355e-05
-0.000133715
-2.58219e-05
-0.000134491
3.40262e-06
-0.000133816
3.22209e-05
-0.000131706
6.0284e-05
-0.000128273
8.69076e-05
-0.000123699
0.00011152
-0.000118188
0.000133729
-0.000111941
0.00015327
-0.000105137
0.000170042
-9.79626e-05
0.000184128
-9.06411e-05
0.000195797
-8.34025e-05
0.00020545
-7.63026e-05
0.000213373
-6.88009e-05
0.000219207
-6.00582e-05
0.000222113
-4.97931e-05
0.000221808
-3.75264e-05
0.000218066
-2.28703e-05
0.000210582
-5.6731e-06
0.000199248
1.38724e-05
0.000184139
3.53433e-05
0.000165469
5.84949e-05
0.000143409
8.33544e-05
0.00011803
0.000108895
9.05854e-05
0.000132704
6.38345e-05
0.000152538
4.04483e-05
0.000166917
2.2209e-05
0.000174985
1.00999e-05
0.000176587
4.30391e-06
0.000172798
3.34133e-06
0.000165223
4.74475e-06
0.000155047
6.54293e-06
0.000143336
7.14289e-06
0.000131012
5.35463e-06
0.000118781
4.37507e-07
0.000107021
-7.95406e-06
9.56673e-05
-1.99885e-05
8.44738e-05
-3.57661e-05
7.37185e-05
-5.44631e-05
6.33545e-05
-7.51326e-05
5.33656e-05
-9.66651e-05
4.36711e-05
-0.000117954
3.42045e-05
-0.000138086
2.49126e-05
-0.000156274
1.57364e-05
-0.000171929
6.60656e-06
-0.00018466
-2.54983e-06
-0.000194213
-1.17742e-05
-0.000200317
-2.09569e-05
-0.000202306
-3.00985e-05
-0.000199889
-3.9192e-05
-0.000194584
-4.81972e-05
-0.000186598
-5.70218e-05
-0.000176139
-6.55173e-05
-0.000163423
-7.34915e-05
-0.000148709
-8.07457e-05
-0.000132303
-8.71306e-05
-0.000114555
-9.26057e-05
-9.5804e-05
-9.72663e-05
-7.63029e-05
-0.000101286
-5.6172e-05
-0.000104723
-3.54808e-05
-0.000107374
-1.44702e-05
-0.000109025
6.53928e-06
-0.000109651
2.74744e-05
-0.000109173
4.80823e-05
-0.000107554
6.79721e-05
-0.000104813
8.67984e-05
-0.000100991
0.000104252
-9.61636e-05
0.000120069
-9.04336e-05
0.000134071
-8.39408e-05
0.000146188
-7.68371e-05
0.000156439
-6.91942e-05
0.000164827
-6.07922e-05
0.000171064
-5.13602e-05
0.000174715
-4.11834e-05
0.000175959
-3.02622e-05
0.000175031
-1.84902e-05
0.000171943
-5.80028e-06
0.000166666
7.76049e-06
0.000159215
2.20256e-05
0.000149628
3.68612e-05
0.000138108
5.21753e-05
0.000124732
6.80512e-05
0.00010982
8.40882e-05
9.35191e-05
9.96181e-05
7.7536e-05
0.000113008
6.22927e-05
0.00012404
4.92223e-05
0.000131544
3.75044e-05
0.000136127
3.04695e-05
2.0261e-05
0.000249816
-5.1246e-05
0.00023658
-3.99014e-05
0.000220718
-2.53124e-05
0.000203788
-9.84634e-06
0.000186918
4.26835e-06
0.000170886
1.50794e-05
0.000156155
2.10944e-05
0.000142916
2.14722e-05
0.000131105
1.60645e-05
0.000120416
5.25239e-06
0.000110228
-1.03863e-05
9.97132e-05
-3.04294e-05
8.87804e-05
-5.40655e-05
7.72089e-05
-8.01673e-05
6.49632e-05
-0.000107395
5.20198e-05
-0.000134423
3.84074e-05
-0.000160151
2.42006e-05
-0.000183577
9.48538e-06
-0.000203849
-5.64879e-06
-0.000220277
-2.11029e-05
-0.000232302
-3.66497e-05
-0.000239403
-5.16401e-05
-0.000240788
-6.59654e-05
-0.000235898
-7.95903e-05
-0.000226576
-9.23154e-05
-0.000213275
-0.000103923
-0.000196437
-0.000114219
-0.000176589
-0.000123084
-0.000154319
-0.000130516
-0.000130205
-0.00013665
-0.000104712
-0.000141683
-7.81656e-05
-0.000145701
-5.08182e-05
-0.000148474
-2.30483e-05
-0.000149736
4.66468e-06
-0.000149488
3.19723e-05
-0.000147709
5.85051e-05
-0.000144466
8.36645e-05
-0.000139899
0.000106954
-0.000134183
0.000128012
-0.000127519
0.000146606
-0.000120156
0.000162679
-0.000112404
0.000176376
-0.000104595
0.000187988
-9.68844e-05
0.00019774
-8.87991e-05
0.000205288
-7.93977e-05
0.000209806
-6.82018e-05
0.000210917
-5.48134e-05
0.00020842
-3.88474e-05
0.0002021
-2.02251e-05
0.000191959
8.36148e-07
0.000178187
2.3927e-05
0.000161048
4.87696e-05
0.000140627
7.5388e-05
0.000116791
0.000102824
9.05941e-05
0.000128676
6.47329e-05
0.000150626
4.18843e-05
0.000167188
2.38872e-05
0.000177557
1.18394e-05
0.00018152
6.13691e-06
0.000179993
5.83139e-06
0.000174557
8.77658e-06
0.000166452
1.28505e-05
0.000156673
1.63213e-05
0.000146053
1.77633e-05
0.000135244
1.61634e-05
0.000124685
1.09961e-05
0.000114581
2.15033e-06
0.000104819
-1.02262e-05
9.49775e-05
-2.59249e-05
8.50529e-05
-4.45384e-05
7.49531e-05
-6.50328e-05
6.47568e-05
-8.64689e-05
5.44579e-05
-0.000107655
4.40432e-05
-0.000127671
3.35258e-05
-0.000145757
2.29124e-05
-0.000161315
1.21922e-05
-0.00017394
1.34261e-06
-0.000183363
-9.61717e-06
-0.000189357
-2.04723e-05
-0.000191451
-3.11508e-05
-0.00018921
-4.16264e-05
-0.000184108
-5.18362e-05
-0.000176388
-6.16812e-05
-0.000166294
-7.10309e-05
-0.000154074
-7.97389e-05
-0.000140001
-8.76733e-05
-0.000124369
-9.47564e-05
-0.000107472
-0.000100995
-8.95652e-05
-0.000106468
-7.08302e-05
-0.00011123
-5.14095e-05
-0.000115169
-3.15418e-05
-0.000118089
-1.15505e-05
-0.000119932
8.38171e-06
-0.000120657
2.81997e-05
-0.000120178
4.76029e-05
-0.000118457
6.62518e-05
-0.000115501
8.38422e-05
-0.00011135
0.000100101
-0.000106098
0.000114816
-9.98923e-05
0.000127866
-9.29214e-05
0.000139217
-8.53125e-05
0.00014883
-7.69011e-05
0.000156415
-6.73564e-05
0.000161519
-5.67849e-05
0.000164143
-4.53215e-05
0.000164495
-3.2862e-05
0.000162571
-1.93556e-05
0.000158437
-4.83309e-06
0.000152143
1.0596e-05
0.000143786
2.67678e-05
0.000133456
4.36021e-05
0.000121274
6.10992e-05
0.000107235
7.90347e-05
9.18842e-05
9.62254e-05
7.63285e-05
0.00011185
6.19114e-05
0.000124733
4.94101e-05
0.000134489
3.94661e-05
0.000140527
3.14667e-05
0.000143675
2.7321e-05
2.04564e-05
0.000236357
-3.87557e-05
0.000221665
-2.52094e-05
0.000206328
-9.97514e-06
0.000191437
5.04505e-06
0.000177673
1.8032e-05
0.000165385
2.73674e-05
0.000154638
3.18417e-05
0.000145254
3.08561e-05
0.000136868
2.44504e-05
0.000129001
1.31194e-05
0.000121074
-2.45878e-06
0.000112339
-2.16949e-05
0.000102427
-4.41537e-05
9.1166e-05
-6.8906e-05
7.86597e-05
-9.48884e-05
6.49995e-05
-0.000120763
5.02912e-05
-0.000145443
3.46781e-05
-0.000167964
1.83117e-05
-0.000187483
1.33983e-06
-0.000203305
-1.60755e-05
-0.000214886
-3.36835e-05
-0.000221795
-5.08942e-05
-0.000223577
-6.71665e-05
-0.000219626
-8.25872e-05
-0.000211156
-9.68967e-05
-0.000198965
-0.000109901
-0.000183433
-0.000121469
-0.00016502
-0.000131571
-0.000144218
-0.000140271
-0.000121504
-0.000147681
-9.7302e-05
-0.000153873
-7.19734e-05
-0.000158767
-4.59251e-05
-0.000162141
-1.96737e-05
-0.000163887
6.41097e-06
-0.000164043
3.21284e-05
-0.000162573
5.70346e-05
-0.000159518
8.06099e-05
-0.000155
0.000102435
-0.000149199
0.000122211
-0.000142382
0.000139789
-0.000134915
0.000155212
-0.0001272
0.000168661
-0.00011943
0.000180218
-0.000111085
0.000189395
-0.000101184
0.000195387
-8.91352e-05
0.000197757
-7.4576e-05
0.000196358
-5.71336e-05
0.000190977
-3.68304e-05
0.000181797
-1.40164e-05
0.000169145
1.0793e-05
0.000153377
3.7279e-05
0.000134562
6.55205e-05
0.000112385
9.46025e-05
8.77089e-05
0.000122067
6.31297e-05
0.000145553
4.12472e-05
0.000163615
2.38217e-05
0.000175553
1.19491e-05
0.000181309
6.08377e-06
0.000181666
5.77956e-06
0.000178164
9.33358e-06
0.000172233
1.47073e-05
0.000164802
2.02817e-05
0.000156545
2.45787e-05
0.000147962
2.63464e-05
0.000139392
2.47327e-05
0.000131018
1.93708e-05
0.000122859
1.03093e-05
0.000114754
-2.12105e-06
0.000106311
-1.74819e-05
9.7147e-05
-3.53748e-05
8.72705e-05
-5.51563e-05
7.67642e-05
-7.59626e-05
6.5727e-05
-9.66174e-05
5.42369e-05
-0.000116181
4.23827e-05
-0.000133903
3.02488e-05
-0.000149181
1.78969e-05
-0.000161588
5.37155e-06
-0.000170838
-7.25897e-06
-0.000176727
-1.97432e-05
-0.000178967
-3.18678e-05
-0.000177086
-4.36615e-05
-0.000172314
-5.50335e-05
-0.000165016
-6.58829e-05
-0.000155445
-7.60998e-05
-0.000143857
-8.55804e-05
-0.00013052
-9.42499e-05
-0.000115699
-0.000102083
-9.96387e-05
-0.000109099
-8.25491e-05
-0.000115314
-6.46153e-05
-0.000120648
-4.60752e-05
-0.000124914
-2.72755e-05
-0.00012802
-8.44449e-06
-0.000130004
1.03655e-05
-0.000130771
2.89663e-05
-0.00013024
4.70718e-05
-0.000128382
6.4394e-05
-0.000125212
8.06717e-05
-0.000120802
9.56912e-05
-0.000115299
0.000109314
-0.000108904
0.00012147
-0.000101763
0.000132076
-9.37184e-05
0.000140786
-8.44174e-05
0.000147114
-7.38521e-05
0.000150954
-6.21338e-05
0.000152425
-4.91573e-05
0.000151519
-3.48791e-05
0.000148293
-1.93638e-05
0.000142922
-2.76955e-06
0.000135549
1.47075e-05
0.000126309
3.29273e-05
0.000115237
5.19259e-05
0.000102275
7.14562e-05
8.77042e-05
9.04595e-05
7.28809e-05
0.000107735
5.90534e-05
0.000122447
4.71986e-05
0.000133895
3.7962e-05
0.000141867
3.1495e-05
0.000146319
2.70141e-05
0.000148224
2.54164e-05
2.11587e-05
0.000215743
-2.48672e-05
0.000201721
-1.11874e-05
0.000188653
3.09283e-06
0.000177175
1.65228e-05
0.00016753
2.76776e-05
0.000159641
3.5256e-05
0.000153202
3.82806e-05
0.000147747
3.63116e-05
0.000142712
2.94848e-05
0.000137514
1.83173e-05
0.000131621
3.43453e-06
0.000124483
-1.45573e-05
0.000115522
-3.51923e-05
0.000104628
-5.80118e-05
9.19032e-05
-8.21639e-05
7.75643e-05
-0.000106424
6.18156e-05
-0.000129694
4.48845e-05
-0.000151033
2.70082e-05
-0.000169606
8.40786e-06
-0.000184705
-1.06742e-05
-0.000195804
-2.99573e-05
-0.000202512
-4.89844e-05
-0.00020455
-6.69807e-05
-0.00020163
-8.39752e-05
-0.000194161
-9.98403e-05
-0.0001831
-0.000114394
-0.000168879
-0.000127524
-0.00015189
-0.000139179
-0.000132563
-0.000149364
-0.00011132
-0.0001581
-8.85653e-05
-0.000165341
-6.47323e-05
-0.000170907
-4.03593e-05
-0.000174738
-1.58426e-05
-0.000176934
8.60664e-06
-0.000177458
3.26526e-05
-0.000176269
5.58456e-05
-0.000173421
7.77619e-05
-0.000169065
9.80791e-05
-0.000163465
0.00011661
-0.000157001
0.000133325
-0.000150082
0.000148293
-0.000142867
0.000161446
-0.000134627
0.000171978
-0.000124383
0.000179151
-0.000111526
0.00018253
-9.57003e-05
0.000181931
-7.65711e-05
0.000177228
-5.4336e-05
0.000168742
-2.95545e-05
0.000157016
-2.92915e-06
0.00014252
2.51377e-05
0.000125311
5.48023e-05
0.000104897
8.5167e-05
8.20204e-05
0.000113695
5.91804e-05
0.000138012
3.88128e-05
0.00015678
2.24796e-05
0.000169455
1.11462e-05
0.000176196
5.20902e-06
0.000177773
4.50615e-06
0.000175761
7.79187e-06
0.000171736
1.33587e-05
0.000166581
1.98617e-05
0.000160864
2.59986e-05
0.000154945
3.04982e-05
0.000149024
3.22673e-05
0.000143159
3.05978e-05
0.000137274
2.52563e-05
0.000131203
1.63795e-05
0.000124727
4.35524e-06
0.000117551
-1.03057e-05
0.000109281
-2.71052e-05
9.9732e-05
-4.56069e-05
8.89659e-05
-6.51965e-05
7.7234e-05
-8.48855e-05
6.47128e-05
-0.00010366
5.15676e-05
-0.000120757
3.79579e-05
-0.000135572
2.40132e-05
-0.000147643
9.84939e-06
-0.000156674
-4.40715e-06
-0.00016247
-1.85073e-05
-0.000164866
-3.20473e-05
-0.000163546
-4.51121e-05
-0.00015925
-5.76066e-05
-0.000152522
-6.94496e-05
-0.000143602
-8.05614e-05
-0.000132745
-9.08785e-05
-0.000120203
-0.000100366
-0.000106211
-0.000109015
-9.09899e-05
-0.000116799
-7.47649e-05
-0.00012363
-5.77847e-05
-0.000129316
-4.03892e-05
-0.000133794
-2.27968e-05
-0.00013711
-5.12884e-06
-0.000139201
1.24561e-05
-0.000139975
2.97407e-05
-0.000139379
4.6476e-05
-0.000137411
6.24253e-05
-0.000134131
7.73921e-05
-0.000129683
9.12429e-05
-0.000124266
0.000103897
-0.00011801
0.000115214
-0.000110687
0.000124753
-0.000101932
0.000132031
-9.16694e-05
0.000136852
-7.99272e-05
0.000139212
-6.65622e-05
0.00013906
-5.15331e-05
0.00013649
-3.49845e-05
0.000131744
-1.71736e-05
0.000125111
1.59254e-06
0.000116783
2.11232e-05
0.000106779
4.14741e-05
9.48857e-05
6.24348e-05
8.13142e-05
8.28379e-05
6.73011e-05
0.000101456
5.42628e-05
0.000117394
4.31159e-05
0.000130141
3.44508e-05
0.000139446
2.86571e-05
0.000145435
2.55062e-05
0.000148482
2.3967e-05
0.000149569
2.43298e-05
2.18765e-05
0.000190587
-1.18767e-05
0.00017898
4.19459e-07
0.000169413
1.26603e-05
0.000162146
2.37896e-05
0.000157078
3.27456e-05
0.00015377
3.85637e-05
0.000151578
4.04724e-05
0.000149823
3.80669e-05
0.000147855
3.14525e-05
0.000145063
2.11101e-05
0.000140975
7.52193e-06
0.000135198
-8.78018e-06
0.000127327
-2.73217e-05
0.000117007
-4.76918e-05
0.000104249
-6.94052e-05
8.94298e-05
-9.16049e-05
7.28496e-05
-0.000113114
5.48122e-05
-0.000132996
3.56342e-05
-0.000150428
1.5635e-05
-0.000164706
-4.88129e-06
-0.000175288
-2.56135e-05
-0.00018178
-4.61484e-05
-0.000184015
-6.58503e-05
-0.000181928
-8.43657e-05
-0.000175646
-0.000101662
-0.000165804
-0.000117665
-0.000152877
-0.000132288
-0.000137266
-0.000145456
-0.000119396
-0.000157083
-9.96917e-05
-0.000167037
-7.86113e-05
-0.000175168
-5.66016e-05
-0.000181495
-3.40321e-05
-0.000186069
-1.12686e-05
-0.000188848
1.13857e-05
-0.000189797
3.36016e-05
-0.000188962
5.50097e-05
-0.000186495
7.52957e-05
-0.000182676
9.42595e-05
-0.000177878
0.000111812
-0.000172413
0.000127861
-0.000166203
0.000142083
-0.00015827
0.000153512
-0.00014766
0.000161368
-0.000133874
0.000165364
-0.000116532
0.000165188
-9.54575e-05
0.000160857
-7.10419e-05
0.000152813
-4.41575e-05
0.000141858
-1.57453e-05
0.000128603
1.37083e-05
0.000113066
4.44665e-05
9.45524e-05
7.55908e-05
7.37731e-05
0.000104465
5.31458e-05
0.000128781
3.48649e-05
0.000147389
2.02053e-05
0.000159958
9.90997e-06
0.000166844
4.26025e-06
0.000168883
3.1699e-06
0.000167694
5.69558e-06
0.000164944
1.05422e-05
0.000161555
1.67474e-05
0.000158087
2.33294e-05
0.000154828
2.92574e-05
0.000151824
3.35025e-05
0.000148966
3.51246e-05
0.000146057
3.35072e-05
0.000142805
2.85082e-05
0.000138915
2.02699e-05
0.000134104
9.16561e-06
0.000128128
-4.32984e-06
0.000120752
-1.97284e-05
0.000111712
-3.65671e-05
0.000100893
-5.43777e-05
8.85755e-05
-7.2568e-05
7.51274e-05
-9.02117e-05
6.07996e-05
-0.000106429
4.58461e-05
-0.000120618
3.04744e-05
-0.000132272
1.48644e-05
-0.000141064
-8.24756e-07
-0.000146781
-1.63776e-05
-0.000149314
-3.13426e-05
-0.000148581
-4.56949e-05
-0.000144897
-5.93989e-05
-0.000138818
-7.23574e-05
-0.000130643
-8.45038e-05
-0.000120598
-9.57927e-05
-0.000108914
-0.000106193
-9.58108e-05
-0.000115656
-8.15271e-05
-0.000124026
-6.63946e-05
-0.000131171
-5.064e-05
-0.000137103
-3.44576e-05
-0.000141834
-1.80653e-05
-0.00014532
-1.64345e-06
-0.00014749
1.46263e-05
-0.000148289
3.05398e-05
-0.000147711
4.58983e-05
-0.000145821
6.05353e-05
-0.000142755
7.43256e-05
-0.000138678
8.71662e-05
-0.000133661
9.88808e-05
-0.000127327
0.00010888
-0.000119296
0.000116722
-0.000109456
0.00012219
-9.77287e-05
0.000125125
-8.39427e-05
0.000125426
-6.80985e-05
0.000123216
-5.04125e-05
0.000118804
-3.13205e-05
0.000112652
-1.12785e-05
0.000105069
9.4291e-06
9.60753e-05
3.09e-05
8.53076e-05
5.29595e-05
7.28262e-05
7.43799e-05
5.98938e-05
9.377e-05
4.7911e-05
0.000110317
3.77159e-05
0.000123596
2.98369e-05
0.000133543
2.4504e-05
0.000140378
2.18215e-05
0.000144573
2.1311e-05
0.000146688
2.1852e-05
0.000147554
2.34638e-05
2.20931e-05
0.000163811
-1.57894e-06
0.000155744
8.48604e-06
0.000150193
1.82116e-05
0.000147091
2.68914e-05
0.00014617
3.36666e-05
0.000147036
3.76979e-05
0.00014886
3.86485e-05
0.000150543
3.63837e-05
0.000151268
3.07275e-05
0.000150602
2.17759e-05
0.000148176
9.94835e-06
0.000143654
-4.25844e-06
0.000136782
-2.04498e-05
0.000127314
-3.8224e-05
0.000115054
-5.7145e-05
0.00010009
-7.66408e-05
8.29856e-05
-9.60093e-05
6.41626e-05
-0.000114173
4.3998e-05
-0.000130264
2.28894e-05
-0.000143597
1.19141e-06
-0.00015359
-2.07404e-05
-0.000159848
-4.25269e-05
-0.000162228
-6.37274e-05
-0.000160727
-8.38659e-05
-0.000155507
-0.000102734
-0.000146935
-0.000120209
-0.000135402
-0.00013618
-0.000121295
-0.000150539
-0.000105037
-0.000163184
-8.70468e-05
-0.000174037
-6.77583e-05
-0.000183058
-4.75803e-05
-0.000190225
-2.68658e-05
-0.000195551
-5.94222e-06
-0.000199046
1.48804e-05
-0.000200747
3.53028e-05
-0.000200793
5.50552e-05
-0.000199429
7.39322e-05
-0.000196931
9.17613e-05
-0.000193422
0.000108303
-0.000188337
0.000122776
-0.000180578
0.000134324
-0.000169284
0.000142218
-0.000154144
0.000146229
-0.000134826
0.000146046
-0.000111443
0.000141805
-8.46836e-05
0.000134098
-5.57682e-05
0.000123897
-2.58776e-05
0.000111967
4.51452e-06
9.82113e-05
3.58181e-05
8.17628e-05
6.6877e-05
6.34935e-05
9.50931e-05
4.5557e-05
0.000118358
2.98804e-05
0.000135834
1.73893e-05
0.000147468
8.57112e-06
0.000153806
3.57257e-06
0.00015577
2.29623e-06
0.000154922
4.01731e-06
0.000152848
7.7703e-06
0.000150489
1.29008e-05
0.000148464
1.87723e-05
0.000147095
2.46982e-05
0.000146518
2.98346e-05
0.000146657
3.33635e-05
0.000147065
3.47171e-05
0.000147173
3.33983e-05
0.000146555
2.9127e-05
0.000144862
2.19624e-05
0.000141781
1.22467e-05
0.000137074
3.77244e-07
0.000130577
-1.32312e-05
0.00012217
-2.81605e-05
0.000111758
-4.39659e-05
9.93307e-05
-6.01403e-05
8.51695e-05
-7.60505e-05
6.98362e-05
-9.10962e-05
5.37311e-05
-0.000104513
3.70952e-05
-0.000115636
2.02083e-05
-0.000124177
3.27723e-06
-0.00012985
-1.35011e-05
-0.000132535
-2.97999e-05
-0.000132282
-4.54095e-05
-0.000129288
-6.02892e-05
-0.000123938
-7.43801e-05
-0.000116552
-8.76085e-05
-0.00010737
-9.98819e-05
-9.66408e-05
-0.000111084
-8.46085e-05
-0.000121137
-7.1474e-05
-0.000130004
-5.75275e-05
-0.000137628
-4.30166e-05
-0.000143953
-2.81325e-05
-0.000148965
-1.30535e-05
-0.000152648
2.03963e-06
-0.000154988
1.69666e-05
-0.000156008
3.15599e-05
-0.000155785
4.56754e-05
-0.000154442
5.91916e-05
-0.000152055
7.1939e-05
-0.000148495
8.36064e-05
-0.000143218
9.36031e-05
-0.000135826
0.000101488
-0.000126225
0.000107121
-0.00011424
0.000110205
-9.97371e-05
0.000110622
-8.28151e-05
0.000108504
-6.38382e-05
0.000104239
-4.34373e-05
9.84028e-05
-2.22545e-05
9.14695e-05
-6.50629e-07
8.34651e-05
2.1564e-05
7.38606e-05
4.42236e-05
6.2648e-05
6.59827e-05
5.10672e-05
8.54186e-05
4.04579e-05
0.00010181
3.15199e-05
0.000114864
2.46613e-05
0.000124653
2.0048e-05
0.00013154
1.7617e-05
0.000136122
1.72399e-05
0.000139042
1.83912e-05
0.000140841