/*--------------------------------*- C++ -*----------------------------------*\
| =========                 |                                                 |
| \\      /  F ield         | OpenFOAM: The Open Source CFD Toolbox           |
|  \\    /   O peration     | Version:  2206                                  |
|   \\  /    A nd           | Website:  www.openfoam.com                      |
|    \\/     M anipulation  |                                                 |
\*---------------------------------------------------------------------------*/
FoamFile
{
    version     2.0;
    format      ascii;
    arch        "LSB;label=32;scalar=64";
    class       volVectorField;
    location    "19.1001";
    object      ddtCorrDdt0(U);
}
// * * * * * * * * * * * * * * * * * * * * * * * * * * * * * * * * * * * * * //

dimensions      [0 1 -2 0 0 0 0];

internalField   nonuniform List<vector> 
3080
(
(-1.20464e-05 -0.00147118 0)
(-6.7503e-05 -0.00454223 0)
(-0.000199446 -0.00772454 0)
(-0.000408501 -0.0109791 0)
(-0.00069173 -0.0142355 0)
(-0.00104717 -0.017419 0)
(-0.00147345 -0.0204651 0)
(-0.00196877 -0.0233143 0)
(-0.00252905 -0.0259158 0)
(-0.00314771 -0.028226 0)
(-0.00381757 -0.0302155 0)
(-0.0045309 -0.0318629 0)
(-0.00528042 -0.0331605 0)
(-0.00605823 -0.0341073 0)
(-0.00685675 -0.0347156 0)
(-0.00766849 -0.0350048 0)
(-0.00848711 -0.0350071 0)
(-0.00930683 -0.0347634 0)
(-0.0101212 -0.0343234 0)
(-0.0109258 -0.0337438 0)
(-0.0117172 -0.0330865 0)
(-0.0124936 -0.0324175 0)
(-0.0132547 -0.031805 0)
(-0.0140018 -0.0313182 0)
(-0.0147379 -0.0310259 0)
(-0.0154677 -0.0309946 0)
(-0.0161972 -0.0312886 0)
(-0.0169373 -0.0319644 0)
(-0.0176888 -0.0330801 0)
(-0.0184744 -0.0346808 0)
(-0.0192964 -0.0368017 0)
(-0.0201839 -0.0394809 0)
(-0.0211127 -0.0427348 0)
(-0.0221601 -0.0465881 0)
(-0.02326 -0.0510373 0)
(-0.0245204 -0.0560948 0)
(-0.0258526 -0.0617401 0)
(-0.0273846 -0.0679755 0)
(-0.0290075 -0.0747659 0)
(-0.0308642 -0.0821071 0)
(-0.0328397 -0.0899577 0)
(-0.0350576 -0.0983029 0)
(-0.0374628 -0.107115 0)
(-0.0400604 -0.116354 0)
(-0.0429581 -0.126036 0)
(-0.0459663 -0.136072 0)
(-0.0493904 -0.146552 0)
(-0.0528784 -0.157336 0)
(-0.0568118 -0.16857 0)
(-0.0608923 -0.180132 0)
(-0.0652996 -0.192102 0)
(-0.0700698 -0.204554 0)
(-0.0750065 -0.21735 0)
(-0.0803826 -0.230766 0)
(-0.0860303 -0.244698 0)
(-0.0919146 -0.259196 0)
(-0.0983156 -0.274723 0)
(-0.104919 -0.290945 0)
(-0.111925 -0.308105 0)
(-0.119417 -0.326314 0)
(-0.127373 -0.34569 0)
(-0.135812 -0.366357 0)
(-0.144775 -0.388449 0)
(-0.154307 -0.412108 0)
(-0.164455 -0.437493 0)
(-0.175282 -0.464771 0)
(-0.186858 -0.494119 0)
(-0.199257 -0.525708 0)
(-0.212556 -0.55972 0)
(-0.226844 -0.596326 0)
(-0.242226 -0.635723 0)
(-0.258805 -0.67811 0)
(-0.276704 -0.723698 0)
(-0.29608 -0.772713 0)
(-0.317108 -0.825399 0)
(-0.33998 -0.882009 0)
(-0.364917 -0.942823 0)
(-0.392175 -1.00814 0)
(-0.422047 -1.07828 0)
(-0.454873 -1.15361 0)
(-0.49106 -1.23454 0)
(-0.531071 -1.32151 0)
(-0.575465 -1.41505 0)
(-0.624915 -1.51574 0)
(-0.680226 -1.62428 0)
(-0.742361 -1.74148 0)
(-0.812485 -1.86832 0)
(-0.892014 -2.00596 0)
(-0.982688 -2.1559 0)
(-1.08665 -2.32 0)
(-1.2066 -2.50082 0)
(-1.34588 -2.70188 0)
(-1.50902 -2.92825 0)
(-1.70141 -3.18833 0)
(-1.93395 -3.49343 0)
(-2.21266 -3.87256 0)
(-2.606 -4.33109 0)
(-3.03898 -5.05747 0)
(-4.48646 -5.75829 0)
(-5.29725 -8.11352 0)
(-1.45166e-05 -0.00143495 0)
(-7.97921e-05 -0.00443292 0)
(-0.000233667 -0.0075382 0)
(-0.000477594 -0.0107132 0)
(-0.000808812 -0.0138898 0)
(-0.00122543 -0.0169948 0)
(-0.00172542 -0.0199643 0)
(-0.00230641 -0.0227414 0)
(-0.00296278 -0.0252757 0)
(-0.00368755 -0.0275265 0)
(-0.00447248 -0.0294636 0)
(-0.00530921 -0.0310678 0)
(-0.00618875 -0.0323299 0)
(-0.00710164 -0.0332503 0)
(-0.00803895 -0.0338395 0)
(-0.00899119 -0.0341177 0)
(-0.00995164 -0.0341163 0)
(-0.0109124 -0.0338752 0)
(-0.011867 -0.0334433 0)
(-0.0128101 -0.032876 0)
(-0.0137379 -0.0322339 0)
(-0.0146483 -0.0315814 0)
(-0.0155407 -0.030985 0)
(-0.0164168 -0.0305119 0)
(-0.0172798 -0.0302291 0)
(-0.0181361 -0.0302015 0)
(-0.0189902 -0.0304909 0)
(-0.0198623 -0.031154 0)
(-0.0207314 -0.0322429 0)
(-0.0216698 -0.0338059 0)
(-0.0226238 -0.0358764 0)
(-0.0236617 -0.0384891 0)
(-0.0247665 -0.041664 0)
(-0.0259674 -0.0454179 0)
(-0.0272916 -0.0497577 0)
(-0.0287262 -0.0546824 0)
(-0.0303346 -0.0601877 0)
(-0.032075 -0.0662567 0)
(-0.0340361 -0.0728789 0)
(-0.0361446 -0.0800212 0)
(-0.0385265 -0.0876775 0)
(-0.0410659 -0.0957971 0)
(-0.0439206 -0.104386 0)
(-0.046963 -0.113385 0)
(-0.0503126 -0.122802 0)
(-0.0539352 -0.132604 0)
(-0.0578015 -0.142763 0)
(-0.0620723 -0.153333 0)
(-0.0664821 -0.164187 0)
(-0.071441 -0.175534 0)
(-0.0764828 -0.187125 0)
(-0.0820835 -0.199267 0)
(-0.0879055 -0.211772 0)
(-0.094106 -0.224784 0)
(-0.100737 -0.238424 0)
(-0.10763 -0.252575 0)
(-0.11504 -0.267731 0)
(-0.122804 -0.283515 0)
(-0.131082 -0.300235 0)
(-0.139874 -0.317964 0)
(-0.149187 -0.33681 0)
(-0.159065 -0.356909 0)
(-0.169562 -0.378398 0)
(-0.180729 -0.401415 0)
(-0.192615 -0.426108 0)
(-0.205286 -0.452628 0)
(-0.218815 -0.481135 0)
(-0.23329 -0.511793 0)
(-0.248802 -0.544769 0)
(-0.265462 -0.580239 0)
(-0.283387 -0.618385 0)
(-0.302695 -0.659392 0)
(-0.323532 -0.703459 0)
(-0.346068 -0.750795 0)
(-0.370491 -0.801616 0)
(-0.397014 -0.856148 0)
(-0.425881 -0.914631 0)
(-0.457376 -0.977325 0)
(-0.491824 -1.04451 0)
(-0.529605 -1.11648 0)
(-0.571163 -1.19359 0)
(-0.617022 -1.27619 0)
(-0.6678 -1.36471 0)
(-0.724236 -1.45961 0)
(-0.787216 -1.56142 0)
(-0.857822 -1.67075 0)
(-0.937365 -1.78833 0)
(-1.02747 -1.91502 0)
(-1.13016 -2.05186 0)
(-1.24801 -2.20019 0)
(-1.38442 -2.36173 0)
(-1.5438 -2.53891 0)
(-1.733 -2.73497 0)
(-1.95955 -2.9554 0)
(-2.24605 -3.20593 0)
(-2.58872 -3.50407 0)
(-3.13846 -3.8399 0)
(-3.56113 -4.2926 0)
(-5.40774 -4.66214 0)
(-4.48291 -4.97907 0)
(-1.70537e-05 -0.00139192 0)
(-9.16571e-05 -0.00430746 0)
(-0.000265619 -0.00732554 0)
(-0.000543466 -0.0104074 0)
(-0.000922058 -0.0134891 0)
(-0.00139733 -0.016502 0)
(-0.00196781 -0.0193836 0)
(-0.00263127 -0.022078 0)
(-0.00338161 -0.0245352 0)
(-0.00421011 -0.026717 0)
(-0.00510742 -0.0285933 0)
(-0.00606393 -0.030147 0)
(-0.00706966 -0.0313678 0)
(-0.0081141 -0.0322578 0)
(-0.00918646 -0.0328254 0)
(-0.0102767 -0.0330917 0)
(-0.0113755 -0.0330861 0)
(-0.0124743 -0.0328483 0)
(-0.0135658 -0.0324258 0)
(-0.0146439 -0.0318728 0)
(-0.0157044 -0.0312483 0)
(-0.0167449 -0.0306146 0)
(-0.0177651 -0.0300365 0)
(-0.0187667 -0.0295791 0)
(-0.0197536 -0.0293071 0)
(-0.0207329 -0.0292835 0)
(-0.021711 -0.0295676 0)
(-0.0227064 -0.0302154 0)
(-0.0237106 -0.0312752 0)
(-0.0247657 -0.032793 0)
(-0.0258774 -0.0348065 0)
(-0.0270443 -0.0373417 0)
(-0.0283227 -0.0404252 0)
(-0.029684 -0.0440661 0)
(-0.0312025 -0.0482774 0)
(-0.0328376 -0.0530521 0)
(-0.0346746 -0.0583918 0)
(-0.0366618 -0.0642742 0)
(-0.0388962 -0.0706943 0)
(-0.0413149 -0.0776179 0)
(-0.0440112 -0.0850347 0)
(-0.0469472 -0.0929113 0)
(-0.0501575 -0.101223 0)
(-0.0536879 -0.109958 0)
(-0.0574555 -0.119065 0)
(-0.0616448 -0.128584 0)
(-0.0660264 -0.138411 0)
(-0.0709014 -0.148659 0)
(-0.0759938 -0.159197 0)
(-0.0815313 -0.170136 0)
(-0.0874513 -0.181464 0)
(-0.093674 -0.193126 0)
(-0.1004 -0.205323 0)
(-0.107483 -0.217956 0)
(-0.114938 -0.231085 0)
(-0.122969 -0.245061 0)
(-0.131311 -0.259579 0)
(-0.140218 -0.274889 0)
(-0.149704 -0.291077 0)
(-0.159731 -0.308247 0)
(-0.170356 -0.326503 0)
(-0.181634 -0.345968 0)
(-0.193617 -0.366773 0)
(-0.206357 -0.389055 0)
(-0.219914 -0.412949 0)
(-0.234361 -0.438595 0)
(-0.24978 -0.466141 0)
(-0.266264 -0.495745 0)
(-0.283916 -0.527561 0)
(-0.302855 -0.561762 0)
(-0.323205 -0.598506 0)
(-0.345102 -0.637968 0)
(-0.368708 -0.680329 0)
(-0.394203 -0.725771 0)
(-0.421793 -0.774483 0)
(-0.45171 -0.826665 0)
(-0.484216 -0.882523 0)
(-0.519617 -0.942276 0)
(-0.55826 -1.00615 0)
(-0.60055 -1.0744 0)
(-0.646959 -1.14727 0)
(-0.698042 -1.22506 0)
(-0.754454 -1.30806 0)
(-0.816975 -1.39659 0)
(-0.886544 -1.49103 0)
(-0.964297 -1.59176 0)
(-1.05162 -1.69921 0)
(-1.15023 -1.81387 0)
(-1.2623 -1.93628 0)
(-1.39059 -2.06705 0)
(-1.53877 -2.20688 0)
(-1.71165 -2.35656 0)
(-1.91654 -2.51691 0)
(-2.16166 -2.68848 0)
(-2.4679 -2.8715 0)
(-2.8363 -3.06138 0)
(-3.36682 -3.25663 0)
(-3.90373 -3.40272 0)
(-5.04745 -3.48968 0)
(-5.90258 -3.51465 0)
(-2.06199e-05 -0.00134469 0)
(-0.000106035 -0.00416389 0)
(-0.000294393 -0.00708238 0)
(-0.000598974 -0.0100629 0)
(-0.00102238 -0.0130407 0)
(-0.00155729 -0.0159489 0)
(-0.00219823 -0.0187289 0)
(-0.00294209 -0.0213276 0)
(-0.00378295 -0.0236978 0)
(-0.0047117 -0.0258011 0)
(-0.00571789 -0.0276095 0)
(-0.00679065 -0.029105 0)
(-0.00791871 -0.0302794 0)
(-0.00909031 -0.0311334 0)
(-0.0102934 -0.0316769 0)
(-0.0115166 -0.0319293 0)
(-0.0127495 -0.0319195 0)
(-0.0139825 -0.0316859 0)
(-0.0152073 -0.0312747 0)
(-0.016417 -0.0307383 0)
(-0.0176069 -0.0301339 0)
(-0.0187746 -0.0295216 0)
(-0.0199197 -0.028964 0)
(-0.0210441 -0.0285239 0)
(-0.0221524 -0.0282637 0)
(-0.0232518 -0.028244 0)
(-0.024351 -0.0285221 0)
(-0.025466 -0.0291509 0)
(-0.026601 -0.0301791 0)
(-0.0277765 -0.0316482 0)
(-0.0290247 -0.0335949 0)
(-0.0303413 -0.0360459 0)
(-0.0317571 -0.0390229 0)
(-0.0333056 -0.0425407 0)
(-0.0349774 -0.046603 0)
(-0.0368393 -0.0512137 0)
(-0.0388604 -0.0563608 0)
(-0.0411222 -0.0620395 0)
(-0.0435815 -0.0682239 0)
(-0.0463302 -0.0749066 0)
(-0.0493102 -0.0820494 0)
(-0.0526251 -0.0896482 0)
(-0.056206 -0.097656 0)
(-0.0601495 -0.106075 0)
(-0.0644084 -0.114863 0)
(-0.0690201 -0.124013 0)
(-0.0740517 -0.133535 0)
(-0.0793448 -0.143338 0)
(-0.0852223 -0.153589 0)
(-0.0912799 -0.164053 0)
(-0.0979652 -0.175016 0)
(-0.104952 -0.186282 0)
(-0.112414 -0.197997 0)
(-0.120384 -0.210233 0)
(-0.128723 -0.222898 0)
(-0.137675 -0.236355 0)
(-0.147074 -0.250375 0)
(-0.157061 -0.265155 0)
(-0.167675 -0.280756 0)
(-0.178935 -0.2973 0)
(-0.190851 -0.314896 0)
(-0.203478 -0.333655 0)
(-0.216882 -0.353694 0)
(-0.231124 -0.375138 0)
(-0.246273 -0.398117 0)
(-0.262411 -0.42277 0)
(-0.279628 -0.449237 0)
(-0.298022 -0.477662 0)
(-0.317704 -0.508194 0)
(-0.338798 -0.540981 0)
(-0.36144 -0.576174 0)
(-0.385779 -0.613929 0)
(-0.411985 -0.654406 0)
(-0.440251 -0.697766 0)
(-0.470791 -0.744173 0)
(-0.503849 -0.793794 0)
(-0.539699 -0.846802 0)
(-0.578659 -0.903371 0)
(-0.621091 -0.963679 0)
(-0.667413 -1.02791 0)
(-0.718111 -1.09625 0)
(-0.773754 -1.16888 0)
(-0.835008 -1.246 0)
(-0.902664 -1.32779 0)
(-0.977665 -1.41443 0)
(-1.06115 -1.50609 0)
(-1.1545 -1.60292 0)
(-1.25941 -1.70501 0)
(-1.378 -1.81238 0)
(-1.51295 -1.92493 0)
(-1.66773 -2.04233 0)
(-1.84677 -2.16382 0)
(-2.05635 -2.28801 0)
(-2.30339 -2.41169 0)
(-2.6021 -2.53073 0)
(-2.95528 -2.63002 0)
(-3.41178 -2.70875 0)
(-3.91497 -2.66608 0)
(-4.59196 -2.57121 0)
(-5.48014 -2.39017 0)
(-2.31985e-05 -0.00127954 0)
(-0.000117296 -0.00402082 0)
(-0.000327425 -0.00682585 0)
(-0.000662032 -0.0096816 0)
(-0.00112249 -0.0125367 0)
(-0.00170539 -0.0153272 0)
(-0.00240913 -0.0179962 0)
(-0.00323027 -0.0204918 0)
(-0.00416012 -0.0227671 0)
(-0.00518696 -0.0247845 0)
(-0.00629871 -0.0265171 0)
(-0.00748362 -0.0279483 0)
(-0.00872982 -0.0290702 0)
(-0.0100245 -0.029884 0)
(-0.0113543 -0.0303993 0)
(-0.0127063 -0.0306351 0)
(-0.014069 -0.0306199 0)
(-0.0154319 -0.0303906 0)
(-0.0167858 -0.0299916 0)
(-0.0181232 -0.0294734 0)
(-0.0194388 -0.028891 0)
(-0.02073 -0.0283026 0)
(-0.0219963 -0.0277679 0)
(-0.02324 -0.0273474 0)
(-0.0244662 -0.0271009 0)
(-0.0256829 -0.027086 0)
(-0.0268984 -0.0273579 0)
(-0.0281344 -0.0279664 0)
(-0.0293803 -0.0289585 0)
(-0.0306965 -0.0303754 0)
(-0.0320588 -0.0322476 0)
(-0.0335245 -0.0346059 0)
(-0.0350803 -0.0374665 0)
(-0.0367872 -0.040846 0)
(-0.0386341 -0.0447467 0)
(-0.0406783 -0.0491717 0)
(-0.042912 -0.0541103 0)
(-0.0453963 -0.0595567 0)
(-0.048114 -0.0654875 0)
(-0.051131 -0.0718923 0)
(-0.0544325 -0.078742 0)
(-0.0580605 -0.0860189 0)
(-0.0620424 -0.0937032 0)
(-0.0663437 -0.101756 0)
(-0.0710936 -0.110201 0)
(-0.0761257 -0.118945 0)
(-0.0816951 -0.128086 0)
(-0.0875685 -0.137497 0)
(-0.0939307 -0.147263 0)
(-0.100779 -0.157398 0)
(-0.10798 -0.167799 0)
(-0.115778 -0.178678 0)
(-0.124007 -0.189916 0)
(-0.132706 -0.201576 0)
(-0.142058 -0.213917 0)
(-0.151825 -0.226696 0)
(-0.162218 -0.240126 0)
(-0.17327 -0.254287 0)
(-0.184979 -0.269242 0)
(-0.19738 -0.285101 0)
(-0.210514 -0.301977 0)
(-0.224436 -0.319954 0)
(-0.239211 -0.339146 0)
(-0.2549 -0.359682 0)
(-0.271578 -0.381678 0)
(-0.289334 -0.405261 0)
(-0.308262 -0.430557 0)
(-0.328466 -0.457698 0)
(-0.350063 -0.48682 0)
(-0.373184 -0.518063 0)
(-0.397974 -0.551565 0)
(-0.42459 -0.587465 0)
(-0.453212 -0.625904 0)
(-0.484036 -0.667019 0)
(-0.517287 -0.710949 0)
(-0.553213 -0.757831 0)
(-0.592097 -0.8078 0)
(-0.63426 -0.860987 0)
(-0.680065 -0.91752 0)
(-0.729936 -0.97752 0)
(-0.784344 -1.04109 0)
(-0.843881 -1.10836 0)
(-0.909179 -1.17938 0)
(-0.981012 -1.25421 0)
(-1.06029 -1.33287 0)
(-1.1481 -1.41532 0)
(-1.24574 -1.50142 0)
(-1.35478 -1.59095 0)
(-1.47714 -1.68345 0)
(-1.61519 -1.77822 0)
(-1.77186 -1.87411 0)
(-1.95076 -1.9693 0)
(-2.15656 -2.06096 0)
(-2.39429 -2.14416 0)
(-2.67184 -2.21255 0)
(-2.99298 -2.25141 0)
(-3.3727 -2.25257 0)
(-3.80537 -2.1687 0)
(-4.26927 -1.96794 0)
(-4.83068 -1.70853 0)
(-2.34789e-05 -0.00122074 0)
(-0.000124478 -0.00384559 0)
(-0.000362916 -0.00653305 0)
(-0.000737697 -0.00926986 0)
(-0.00123877 -0.0120057 0)
(-0.00186488 -0.0146675 0)
(-0.00262303 -0.0172028 0)
(-0.00351133 -0.0195727 0)
(-0.00451951 -0.021737 0)
(-0.00563525 -0.0236591 0)
(-0.00684557 -0.0253099 0)
(-0.00813708 -0.0266725 0)
(-0.00949619 -0.0277395 0)
(-0.0109087 -0.0285119 0)
(-0.01236 -0.0289984 0)
(-0.0138361 -0.0292171 0)
(-0.0153244 -0.0291957 0)
(-0.0168132 -0.0289705 0)
(-0.0182921 -0.0285848 0)
(-0.0197531 -0.0280866 0)
(-0.021191 -0.0275283 0)
(-0.0226026 -0.0269653 0)
(-0.0239875 -0.0264548 0)
(-0.0253482 -0.0260546 0)
(-0.0266895 -0.0258219 0)
(-0.0280205 -0.0258118 0)
(-0.0293492 -0.0260763 0)
(-0.0307001 -0.0266638 0)
(-0.0320595 -0.0276165 0)
(-0.0334921 -0.0289744 0)
(-0.0349862 -0.0307688 0)
(-0.0365652 -0.0330241 0)
(-0.0382785 -0.0357613 0)
(-0.0401121 -0.038988 0)
(-0.0421424 -0.0427147 0)
(-0.0443434 -0.0469346 0)
(-0.0467948 -0.0516477 0)
(-0.049474 -0.0568361 0)
(-0.052456 -0.0624927 0)
(-0.0557147 -0.0685896 0)
(-0.05933 -0.0751199 0)
(-0.0632643 -0.082046 0)
(-0.0676018 -0.0893675 0)
(-0.0723025 -0.0970414 0)
(-0.0774194 -0.105066 0)
(-0.0829978 -0.113437 0)
(-0.0889147 -0.122076 0)
(-0.0954651 -0.131125 0)
(-0.102271 -0.14036 0)
(-0.109763 -0.15004 0)
(-0.117641 -0.159981 0)
(-0.126065 -0.170301 0)
(-0.135067 -0.181053 0)
(-0.14453 -0.19216 0)
(-0.154685 -0.203908 0)
(-0.165364 -0.216108 0)
(-0.176712 -0.228924 0)
(-0.188735 -0.242419 0)
(-0.201488 -0.256667 0)
(-0.215044 -0.271738 0)
(-0.229369 -0.287826 0)
(-0.244504 -0.304951 0)
(-0.260561 -0.323241 0)
(-0.277611 -0.342787 0)
(-0.295725 -0.3637 0)
(-0.315 -0.386106 0)
(-0.335536 -0.410126 0)
(-0.35744 -0.435883 0)
(-0.380835 -0.463499 0)
(-0.405857 -0.493099 0)
(-0.432652 -0.524804 0)
(-0.461384 -0.558734 0)
(-0.492235 -0.595008 0)
(-0.525408 -0.633745 0)
(-0.561129 -0.675059 0)
(-0.59965 -0.719056 0)
(-0.641254 -0.765839 0)
(-0.686258 -0.815499 0)
(-0.735022 -0.868115 0)
(-0.78796 -0.923752 0)
(-0.845531 -0.98245 0)
(-0.908284 -1.04423 0)
(-0.976846 -1.10907 0)
(-1.05194 -1.17691 0)
(-1.1344 -1.24761 0)
(-1.22522 -1.32096 0)
(-1.32554 -1.39661 0)
(-1.43675 -1.47403 0)
(-1.56047 -1.55245 0)
(-1.69861 -1.63073 0)
(-1.85346 -1.7072 0)
(-2.02768 -1.77945 0)
(-2.22435 -1.84399 0)
(-2.44666 -1.89557 0)
(-2.6983 -1.92727 0)
(-2.98145 -1.92744 0)
(-3.29713 -1.88362 0)
(-3.64466 -1.77404 0)
(-3.99756 -1.55937 0)
(-4.34518 -1.25714 0)
(-2.50612e-05 -0.00115552 0)
(-0.000134468 -0.00365185 0)
(-0.000395911 -0.00620737 0)
(-0.000811927 -0.00880468 0)
(-0.0013585 -0.0114015 0)
(-0.00202739 -0.0139423 0)
(-0.00283884 -0.0163622 0)
(-0.00379323 -0.018612 0)
(-0.00487564 -0.0206547 0)
(-0.00607146 -0.0224655 0)
(-0.0073688 -0.0240166 0)
(-0.00875688 -0.0252932 0)
(-0.0102212 -0.0262921 0)
(-0.0117447 -0.027015 0)
(-0.0133106 -0.0274688 0)
(-0.0149041 -0.0276695 0)
(-0.0165124 -0.027643 0)
(-0.0181228 -0.0274234 0)
(-0.0197232 -0.0270516 0)
(-0.0213044 -0.0265742 0)
(-0.02286 -0.0260416 0)
(-0.0243874 -0.0255066 0)
(-0.0258864 -0.0250233 0)
(-0.0273598 -0.0246465 0)
(-0.0288126 -0.0244302 0)
(-0.0302534 -0.0244268 0)
(-0.0316914 -0.0246853 0)
(-0.0331478 -0.0252516 0)
(-0.0346239 -0.0261647 0)
(-0.0361523 -0.0274601 0)
(-0.037772 -0.0291719 0)
(-0.0394658 -0.0313184 0)
(-0.041305 -0.0339203 0)
(-0.0432845 -0.0369851 0)
(-0.0454563 -0.0405192 0)
(-0.0478347 -0.0445205 0)
(-0.050463 -0.048984 0)
(-0.0533547 -0.0538973 0)
(-0.0565577 -0.0592497 0)
(-0.0600782 -0.0650203 0)
(-0.0639581 -0.0711945 0)
(-0.0682206 -0.0777526 0)
(-0.0728589 -0.0846656 0)
(-0.0779719 -0.0919441 0)
(-0.0834344 -0.099511 0)
(-0.0894726 -0.107448 0)
(-0.0958731 -0.115631 0)
(-0.102823 -0.124137 0)
(-0.11032 -0.132974 0)
(-0.118224 -0.142029 0)
(-0.126805 -0.151503 0)
(-0.135886 -0.16127 0)
(-0.14551 -0.171387 0)
(-0.155854 -0.182059 0)
(-0.166696 -0.193075 0)
(-0.178228 -0.204619 0)
(-0.190484 -0.216758 0)
(-0.203458 -0.229545 0)
(-0.217167 -0.243023 0)
(-0.231757 -0.257231 0)
(-0.247219 -0.27264 0)
(-0.263538 -0.288841 0)
(-0.280843 -0.306083 0)
(-0.299177 -0.324553 0)
(-0.318646 -0.344313 0)
(-0.339354 -0.365473 0)
(-0.361394 -0.388139 0)
(-0.38488 -0.412422 0)
(-0.409941 -0.438433 0)
(-0.436715 -0.466282 0)
(-0.465355 -0.496078 0)
(-0.496028 -0.527925 0)
(-0.528917 -0.561926 0)
(-0.564227 -0.598177 0)
(-0.602182 -0.636766 0)
(-0.64303 -0.677774 0)
(-0.687047 -0.721269 0)
(-0.734543 -0.767306 0)
(-0.785864 -0.81592 0)
(-0.841401 -0.867124 0)
(-0.901601 -0.9209 0)
(-0.966964 -0.977192 0)
(-1.03806 -1.0359 0)
(-1.11556 -1.09685 0)
(-1.2002 -1.15981 0)
(-1.29285 -1.22441 0)
(-1.39447 -1.29015 0)
(-1.5062 -1.3563 0)
(-1.62932 -1.42186 0)
(-1.76527 -1.48544 0)
(-1.91568 -1.54513 0)
(-2.08225 -1.59829 0)
(-2.26677 -1.64133 0)
(-2.47078 -1.66929 0)
(-2.69525 -1.67564 0)
(-2.93995 -1.65132 0)
(-3.20134 -1.58493 0)
(-3.47424 -1.46324 0)
(-3.74031 -1.26632 0)
(-3.97651 -0.989843 0)
(-2.7597e-05 -0.00109108 0)
(-0.00014954 -0.0034426 0)
(-0.000432429 -0.00584499 0)
(-0.000869893 -0.00830846 0)
(-0.00140109 -0.0108432 0)
(-0.00217739 -0.0131444 0)
(-0.00306608 -0.0153945 0)
(-0.00407883 -0.0175251 0)
(-0.00523164 -0.01946 0)
(-0.00650376 -0.0211728 0)
(-0.00787905 -0.0226405 0)
(-0.00935431 -0.0238379 0)
(-0.0109173 -0.024765 0)
(-0.0125463 -0.0254302 0)
(-0.0142212 -0.0258408 0)
(-0.0159265 -0.0260136 0)
(-0.0176479 -0.0259761 0)
(-0.0193714 -0.0257611 0)
(-0.021085 -0.0254057 0)
(-0.0227798 -0.0249521 0)
(-0.0244491 -0.0244467 0)
(-0.0260888 -0.0239395 0)
(-0.0276978 -0.0234827 0)
(-0.0292781 -0.0231289 0)
(-0.0308346 -0.0229294 0)
(-0.0323759 -0.0229333 0)
(-0.0339128 -0.0231863 0)
(-0.0354653 -0.0237315 0)
(-0.0370387 -0.0246038 0)
(-0.0386694 -0.025834 0)
(-0.0403864 -0.0274562 0)
(-0.0422038 -0.0294888 0)
(-0.0441443 -0.0319449 0)
(-0.0462694 -0.034837 0)
(-0.0485668 -0.0381643 0)
(-0.0511175 -0.0419316 0)
(-0.053903 -0.0461255 0)
(-0.0570068 -0.050746 0)
(-0.0604026 -0.0557673 0)
(-0.0641858 -0.0611926 0)
(-0.0683034 -0.0669796 0)
(-0.0728781 -0.0731444 0)
(-0.0778243 -0.0796277 0)
(-0.0832683 -0.0864563 0)
(-0.0891649 -0.0935857 0)
(-0.0955043 -0.100986 0)
(-0.102481 -0.108747 0)
(-0.109772 -0.116659 0)
(-0.117841 -0.124999 0)
(-0.1263 -0.133515 0)
(-0.135399 -0.142367 0)
(-0.145143 -0.151576 0)
(-0.155415 -0.161074 0)
(-0.16644 -0.171088 0)
(-0.178054 -0.181453 0)
(-0.190402 -0.19231 0)
(-0.2035 -0.20372 0)
(-0.217325 -0.215751 0)
(-0.231915 -0.228527 0)
(-0.247737 -0.242142 0)
(-0.264314 -0.256199 0)
(-0.281455 -0.271387 0)
(-0.299872 -0.287639 0)
(-0.319452 -0.304969 0)
(-0.340194 -0.323521 0)
(-0.362239 -0.34337 0)
(-0.385685 -0.364613 0)
(-0.410651 -0.387352 0)
(-0.437263 -0.411687 0)
(-0.46566 -0.437714 0)
(-0.495995 -0.465524 0)
(-0.528438 -0.495206 0)
(-0.563175 -0.526847 0)
(-0.600407 -0.560525 0)
(-0.640356 -0.596307 0)
(-0.683262 -0.634249 0)
(-0.729394 -0.674393 0)
(-0.779045 -0.716758 0)
(-0.83254 -0.761343 0)
(-0.890243 -0.808114 0)
(-0.952564 -0.857001 0)
(-1.01996 -0.907888 0)
(-1.09295 -0.960603 0)
(-1.1721 -1.01491 0)
(-1.25807 -1.07048 0)
(-1.35156 -1.12685 0)
(-1.45336 -1.18341 0)
(-1.56433 -1.23932 0)
(-1.68541 -1.29348 0)
(-1.81759 -1.34439 0)
(-1.96186 -1.3901 0)
(-2.11917 -1.42801 0)
(-2.29021 -1.45477 0)
(-2.47523 -1.466 0)
(-2.67358 -1.45618 0)
(-2.88324 -1.41848 0)
(-3.09935 -1.34473 0)
(-3.31467 -1.22659 0)
(-3.51469 -1.0552 0)
(-3.68238 -0.825753 0)
(-2.84758e-05 -0.000999326 0)
(-0.000153164 -0.00322767 0)
(-0.000445669 -0.00550312 0)
(-0.000891345 -0.00782242 0)
(-0.0015041 -0.0101171 0)
(-0.00228782 -0.0123316 0)
(-0.00320685 -0.0144592 0)
(-0.00427802 -0.0164365 0)
(-0.00552708 -0.0182105 0)
(-0.00685271 -0.0198176 0)
(-0.00840116 -0.0211234 0)
(-0.00997702 -0.022234 0)
(-0.0116332 -0.0231001 0)
(-0.0133567 -0.0237205 0)
(-0.0151265 -0.0240984 0)
(-0.0169307 -0.0242484 0)
(-0.0187547 -0.0241995 0)
(-0.0205812 -0.0239846 0)
(-0.0223967 -0.023641 0)
(-0.0241924 -0.0232101 0)
(-0.0259619 -0.0227347 0)
(-0.0277013 -0.0222604 0)
(-0.0294086 -0.021836 0)
(-0.0310839 -0.0215113 0)
(-0.0327314 -0.0213342 0)
(-0.0343602 -0.0213502 0)
(-0.0359849 -0.0216011 0)
(-0.0376194 -0.022126 0)
(-0.0392995 -0.0229568 0)
(-0.0410048 -0.0241208 0)
(-0.042817 -0.0256478 0)
(-0.0447449 -0.027558 0)
(-0.0467919 -0.0298604 0)
(-0.0490429 -0.0325668 0)
(-0.0514676 -0.035674 0)
(-0.054176 -0.0391908 0)
(-0.0571089 -0.043096 0)
(-0.0604135 -0.0474044 0)
(-0.0639896 -0.0520714 0)
(-0.0680117 -0.0571246 0)
(-0.0723733 -0.0625052 0)
(-0.0772031 -0.0682337 0)
(-0.0824925 -0.074282 0)
(-0.0881954 -0.080605 0)
(-0.0945267 -0.0872817 0)
(-0.101184 -0.0941333 0)
(-0.108591 -0.101376 0)
(-0.116368 -0.108767 0)
(-0.124813 -0.116468 0)
(-0.13387 -0.12446 0)
(-0.143491 -0.132684 0)
(-0.153743 -0.141192 0)
(-0.164778 -0.150176 0)
(-0.176367 -0.15942 0)
(-0.188695 -0.169072 0)
(-0.201805 -0.179187 0)
(-0.215705 -0.189813 0)
(-0.230466 -0.201021 0)
(-0.246132 -0.212942 0)
(-0.262325 -0.225652 0)
(-0.279623 -0.238774 0)
(-0.298321 -0.25294 0)
(-0.317866 -0.268103 0)
(-0.338507 -0.284263 0)
(-0.360421 -0.301544 0)
(-0.383671 -0.320012 0)
(-0.408387 -0.339756 0)
(-0.434693 -0.360875 0)
(-0.462714 -0.383457 0)
(-0.492586 -0.407584 0)
(-0.524461 -0.433335 0)
(-0.55851 -0.460786 0)
(-0.594915 -0.490004 0)
(-0.633873 -0.52105 0)
(-0.675597 -0.55397 0)
(-0.720317 -0.5888 0)
(-0.768285 -0.625558 0)
(-0.819777 -0.664239 0)
(-0.875093 -0.704807 0)
(-0.93456 -0.747193 0)
(-0.998555 -0.791284 0)
(-1.06747 -0.836916 0)
(-1.14177 -0.883864 0)
(-1.22194 -0.931839 0)
(-1.30852 -0.980464 0)
(-1.40207 -1.02923 0)
(-1.50318 -1.07748 0)
(-1.61246 -1.12431 0)
(-1.73054 -1.16859 0)
(-1.85799 -1.20887 0)
(-1.99531 -1.24327 0)
(-2.14277 -1.26944 0)
(-2.30032 -1.28443 0)
(-2.46733 -1.28461 0)
(-2.64222 -1.26568 0)
(-2.82212 -1.22271 0)
(-3.0019 -1.15037 0)
(-3.17444 -1.04371 0)
(-3.32733 -0.898807 0)
(-3.44973 -0.714586 0)
(-2.8205e-05 -0.000937412 0)
(-0.000157316 -0.00298469 0)
(-0.000453908 -0.00512311 0)
(-0.000934828 -0.00726304 0)
(-0.00158919 -0.00939233 0)
(-0.00240276 -0.0114616 0)
(-0.00339416 -0.0134071 0)
(-0.00453024 -0.0152309 0)
(-0.00583405 -0.0168749 0)
(-0.00726514 -0.0183307 0)
(-0.00882689 -0.0195628 0)
(-0.0104934 -0.0205755 0)
(-0.0122347 -0.0213693 0)
(-0.0140619 -0.0219268 0)
(-0.0159609 -0.0222511 0)
(-0.0178581 -0.0223824 0)
(-0.0197715 -0.0223336 0)
(-0.0216888 -0.0221261 0)
(-0.0235979 -0.021796 0)
(-0.0254885 -0.0213852 0)
(-0.0273514 -0.0209353 0)
(-0.0291817 -0.0204912 0)
(-0.0309781 -0.0201 0)
(-0.0327419 -0.0198066 0)
(-0.034478 -0.0196533 0)
(-0.0361955 -0.0196805 0)
(-0.037909 -0.0199266 0)
(-0.039632 -0.0204258 0)
(-0.0414007 -0.0212111 0)
(-0.0431952 -0.0223055 0)
(-0.045107 -0.0237295 0)
(-0.0471311 -0.0255067 0)
(-0.0492904 -0.0276479 0)
(-0.0516473 -0.0301579 0)
(-0.0541965 -0.0330347 0)
(-0.0570397 -0.036287 0)
(-0.0601156 -0.0398901 0)
(-0.0635878 -0.0438662 0)
(-0.0673449 -0.0481652 0)
(-0.0715631 -0.0528182 0)
(-0.0761656 -0.0577772 0)
(-0.0812216 -0.0630412 0)
(-0.0868105 -0.0686231 0)
(-0.0927998 -0.0744374 0)
(-0.0994518 -0.0805943 0)
(-0.106499 -0.086927 0)
(-0.114216 -0.093574 0)
(-0.122476 -0.100437 0)
(-0.131294 -0.107498 0)
(-0.140826 -0.11487 0)
(-0.150973 -0.122472 0)
(-0.161738 -0.130293 0)
(-0.173337 -0.138567 0)
(-0.185556 -0.147097 0)
(-0.198555 -0.155998 0)
(-0.21237 -0.16532 0)
(-0.227014 -0.175118 0)
(-0.242524 -0.185446 0)
(-0.258941 -0.196322 0)
(-0.27624 -0.207802 0)
(-0.294496 -0.2203 0)
(-0.313853 -0.233475 0)
(-0.334376 -0.247465 0)
(-0.356114 -0.262421 0)
(-0.379122 -0.278375 0)
(-0.40351 -0.295401 0)
(-0.429412 -0.313589 0)
(-0.456956 -0.333037 0)
(-0.486264 -0.35382 0)
(-0.517473 -0.375996 0)
(-0.550739 -0.399625 0)
(-0.586229 -0.424773 0)
(-0.62412 -0.451503 0)
(-0.664602 -0.479864 0)
(-0.707879 -0.509886 0)
(-0.754172 -0.541586 0)
(-0.803716 -0.574963 0)
(-0.856763 -0.609989 0)
(-0.91358 -0.646604 0)
(-0.974459 -0.684708 0)
(-1.03972 -0.724153 0)
(-1.10971 -0.764734 0)
(-1.18483 -0.806189 0)
(-1.2655 -0.848202 0)
(-1.35214 -0.890382 0)
(-1.44517 -0.932208 0)
(-1.54498 -0.973003 0)
(-1.65197 -1.01191 0)
(-1.76649 -1.04783 0)
(-1.88877 -1.07943 0)
(-2.01889 -1.105 0)
(-2.15669 -1.12249 0)
(-2.30158 -1.12943 0)
(-2.45242 -1.12298 0)
(-2.6072 -1.09994 0)
(-2.76278 -1.05694 0)
(-2.91437 -0.9907 0)
(-3.05566 -0.898704 0)
(-3.17694 -0.779738 0)
(-3.27084 -0.635735 0)
(-3.00855e-05 -0.000854923 0)
(-0.000163729 -0.00274987 0)
(-0.000474358 -0.00472034 0)
(-0.000982522 -0.00668966 0)
(-0.00166488 -0.008648 0)
(-0.00252356 -0.0105374 0)
(-0.00356029 -0.012322 0)
(-0.00475717 -0.0139841 0)
(-0.00611854 -0.0154807 0)
(-0.00761416 -0.0168024 0)
(-0.00924998 -0.0179144 0)
(-0.0109768 -0.0188315 0)
(-0.0128145 -0.0195327 0)
(-0.0147004 -0.02003 0)
(-0.0166841 -0.0203076 0)
(-0.0186422 -0.0204238 0)
(-0.020677 -0.0203589 0)
(-0.0226883 -0.0201559 0)
(-0.024684 -0.0198451 0)
(-0.0266604 -0.0194631 0)
(-0.028608 -0.019046 0)
(-0.0305238 -0.0186356 0)
(-0.0324078 -0.0182776 0)
(-0.0342607 -0.0180138 0)
(-0.0360875 -0.017883 0)
(-0.0378962 -0.0179223 0)
(-0.0396984 -0.0181664 0)
(-0.0415117 -0.0186451 0)
(-0.0433574 -0.0193879 0)
(-0.0452646 -0.0204128 0)
(-0.0472448 -0.0217351 0)
(-0.0493548 -0.0233784 0)
(-0.0516167 -0.0253532 0)
(-0.0540694 -0.0276601 0)
(-0.0567256 -0.030296 0)
(-0.0596939 -0.0332721 0)
(-0.0628931 -0.0365567 0)
(-0.066519 -0.0401826 0)
(-0.0704359 -0.0440923 0)
(-0.0748351 -0.0483233 0)
(-0.0796472 -0.0528328 0)
(-0.0849233 -0.0576132 0)
(-0.0907646 -0.0626916 0)
(-0.0970399 -0.0679826 0)
(-0.103968 -0.0735824 0)
(-0.111374 -0.0793735 0)
(-0.119396 -0.0854154 0)
(-0.128041 -0.0916807 0)
(-0.137255 -0.0981098 0)
(-0.147187 -0.104804 0)
(-0.157801 -0.111736 0)
(-0.169049 -0.118848 0)
(-0.181176 -0.126395 0)
(-0.193963 -0.134173 0)
(-0.207561 -0.142275 0)
(-0.222019 -0.150755 0)
(-0.237353 -0.159683 0)
(-0.253579 -0.169108 0)
(-0.270719 -0.179067 0)
(-0.288793 -0.189614 0)
(-0.307969 -0.200881 0)
(-0.3283 -0.212983 0)
(-0.34972 -0.225878 0)
(-0.372367 -0.239606 0)
(-0.39633 -0.254217 0)
(-0.421725 -0.269759 0)
(-0.448708 -0.286327 0)
(-0.477391 -0.304034 0)
(-0.507868 -0.322955 0)
(-0.540266 -0.343139 0)
(-0.574757 -0.36463 0)
(-0.61152 -0.387474 0)
(-0.65073 -0.411712 0)
(-0.692561 -0.437377 0)
(-0.737203 -0.464488 0)
(-0.784862 -0.493052 0)
(-0.835754 -0.523058 0)
(-0.890103 -0.554468 0)
(-0.948142 -0.587208 0)
(-1.01012 -0.621157 0)
(-1.07629 -0.656137 0)
(-1.14697 -0.691897 0)
(-1.2225 -0.728147 0)
(-1.30324 -0.764598 0)
(-1.38952 -0.800881 0)
(-1.48161 -0.83647 0)
(-1.57976 -0.870692 0)
(-1.68416 -0.902737 0)
(-1.79494 -0.931628 0)
(-1.91205 -0.956177 0)
(-2.03527 -0.974935 0)
(-2.16408 -0.98618 0)
(-2.29763 -0.98793 0)
(-2.4345 -0.977998 0)
(-2.57261 -0.954098 0)
(-2.70893 -0.914062 0)
(-2.83924 -0.856087 0)
(-2.95823 -0.779276 0)
(-3.05874 -0.683985 0)
(-3.13478 -0.573259 0)
(-3.13031e-05 -0.000775762 0)
(-0.000169209 -0.00250387 0)
(-0.000491892 -0.00429948 0)
(-0.00102015 -0.00608759 0)
(-0.00172834 -0.00786105 0)
(-0.00263052 -0.00956088 0)
(-0.00370166 -0.0111822 0)
(-0.00495875 -0.0126717 0)
(-0.00636753 -0.0140222 0)
(-0.00792696 -0.0152019 0)
(-0.00962173 -0.0161989 0)
(-0.0114158 -0.0170144 0)
(-0.0133238 -0.0176322 0)
(-0.0152783 -0.0180674 0)
(-0.0173293 -0.0183048 0)
(-0.019363 -0.0183928 0)
(-0.0214789 -0.0183091 0)
(-0.0235574 -0.0181128 0)
(-0.0256355 -0.0178201 0)
(-0.0277033 -0.0174608 0)
(-0.0297444 -0.0170692 0)
(-0.0317502 -0.01669 0)
(-0.0337217 -0.0163641 0)
(-0.0356609 -0.0161288 0)
(-0.0375727 -0.01602 0)
(-0.0394653 -0.0160715 0)
(-0.0413501 -0.0163117 0)
(-0.0432459 -0.0167663 0)
(-0.0451721 -0.0174591 0)
(-0.047171 -0.0184104 0)
(-0.0492179 -0.0196319 0)
(-0.0514215 -0.0211361 0)
(-0.0537681 -0.0229346 0)
(-0.0563232 -0.0250333 0)
(-0.0590554 -0.0274172 0)
(-0.0621453 -0.0301105 0)
(-0.0654404 -0.0330643 0)
(-0.0691992 -0.0363265 0)
(-0.0732588 -0.0398347 0)
(-0.0778041 -0.0436223 0)
(-0.0828123 -0.0476673 0)
(-0.0882712 -0.0519375 0)
(-0.0943493 -0.0564953 0)
(-0.100872 -0.0612386 0)
(-0.108068 -0.0662701 0)
(-0.115778 -0.0714972 0)
(-0.124096 -0.0769458 0)
(-0.133044 -0.0825812 0)
(-0.14262 -0.0883695 0)
(-0.15291 -0.094354 0)
(-0.163953 -0.100587 0)
(-0.175626 -0.10693 0)
(-0.188237 -0.113699 0)
(-0.201548 -0.120673 0)
(-0.21569 -0.127938 0)
(-0.230736 -0.135561 0)
(-0.246706 -0.143602 0)
(-0.263599 -0.152083 0)
(-0.28145 -0.161056 0)
(-0.300315 -0.170598 0)
(-0.32032 -0.180816 0)
(-0.341443 -0.191661 0)
(-0.363682 -0.203323 0)
(-0.387173 -0.215799 0)
(-0.41198 -0.229009 0)
(-0.438253 -0.243021 0)
(-0.466194 -0.257981 0)
(-0.495911 -0.273969 0)
(-0.527467 -0.290998 0)
(-0.560973 -0.309093 0)
(-0.596588 -0.328316 0)
(-0.634485 -0.348735 0)
(-0.674836 -0.370398 0)
(-0.717815 -0.393326 0)
(-0.763612 -0.417522 0)
(-0.812421 -0.442978 0)
(-0.864441 -0.469671 0)
(-0.919869 -0.497559 0)
(-0.978896 -0.526559 0)
(-1.04171 -0.556539 0)
(-1.10851 -0.587308 0)