/*--------------------------------*- C++ -*----------------------------------*\
| =========                 |                                                 |
| \\      /  F ield         | OpenFOAM: The Open Source CFD Toolbox           |
|  \\    /   O peration     | Version:  2206                                  |
|   \\  /    A nd           | Website:  www.openfoam.com                      |
|    \\/     M anipulation  |                                                 |
\*---------------------------------------------------------------------------*/
FoamFile
{
    version     2.0;
    format      ascii;
    arch        "LSB;label=32;scalar=64";
    class       volVectorField;
    location    "20.0001";
    object      ddtCorrDdt0(U);
}
// * * * * * * * * * * * * * * * * * * * * * * * * * * * * * * * * * * * * * //

dimensions      [0 1 -2 0 0 0 0];

internalField   nonuniform List<vector> 
4796
(
(5.55418 -126.776 0)
(-7.36454 -137.132 0)
(-15.9166 -140.579 0)
(-22.5303 -137.404 0)
(-27.755 -130.593 0)
(-31.2923 -121.066 0)
(-33.2039 -109.732 0)
(-33.666 -97.5669 0)
(-32.8718 -85.4411 0)
(-31.067 -74.0189 0)
(-28.5513 -63.6633 0)
(-25.6761 -54.4652 0)
(-22.7871 -46.2182 0)
(-20.1569 -38.5176 0)
(-17.8863 -31.0342 0)
(-15.7726 -23.5822 0)
(-13.7942 -15.9528 0)
(-13.9582 -6.28038 0)
(-14.4183 8.67016 0)
(-15.4997 26.4556 0)
(-16.5158 45.9328 0)
(-17.8391 66.5891 0)
(-19.2772 87.5589 0)
(-20.5307 107.636 0)
(-21.4595 125.468 0)
(-21.948 139.678 0)
(-21.8088 148.739 0)
(-20.6065 150.449 0)
(-18.497 146.483 0)
(-15.7173 138.187 0)
(-12.352 126.413 0)
(-8.52004 112.175 0)
(-4.42912 96.5319 0)
(-0.276854 80.4754 0)
(3.76756 64.8458 0)
(7.59388 50.289 0)
(11.1528 37.1801 0)
(14.7329 25.5438 0)
(18.666 15.1038 0)
(21.9278 6.27764 0)
(25.0562 -0.0543796 0)
(27.7913 -4.44757 0)
(30.0738 -7.53555 0)
(31.8704 -10.0834 0)
(33.0332 -12.9273 0)
(33.3972 -16.8184 0)
(32.8347 -22.2943 0)
(31.2889 -29.5764 0)
(28.8006 -38.5289 0)
(25.4991 -48.6921 0)
(21.5623 -59.3832 0)
(17.2144 -69.8313 0)
(12.6966 -79.3012 0)
(8.16839 -87.2174 0)
(3.30642 -93.1818 0)
(0.18353 -96.7849 0)
(-3.98927 -97.6108 0)
(-7.2116 -96.2124 0)
(-9.76061 -93.2081 0)
(-11.9324 -88.7915 0)
(-13.5431 -83.2141 0)
(-14.6324 -76.7246 0)
(-15.2733 -69.5486 0)
(-15.5347 -61.8609 0)
(-15.4758 -53.7983 0)
(-15.1587 -45.5225 0)
(-14.6471 -37.1549 0)
(-13.9809 -28.8046 0)
(-13.0686 -20.6075 0)
(-12.2381 -12.6063 0)
(-12.6769 -3.13336 0)
(-12.3062 8.75282 0)
(-12.1994 21.2383 0)
(-11.9768 33.7343 0)
(-11.7797 46.0563 0)
(-11.628 57.9656 0)
(-11.4481 69.1183 0)
(-11.1962 79.1275 0)
(-10.8414 87.5804 0)
(-10.354 94.0613 0)
(-9.68449 98.053 0)
(-8.70531 98.6712 0)
(-7.45288 96.7798 0)
(-5.98591 92.8631 0)
(-4.31204 87.1958 0)
(-2.4451 80.1247 0)
(-0.425552 72.0416 0)
(1.70224 63.3515 0)
(3.89029 54.4367 0)
(6.08918 45.6222 0)
(8.24888 37.1518 0)
(10.3168 29.1643 0)
(12.2704 21.6661 0)
(14.2517 14.5087 0)
(16.2622 7.47291 0)
(17.6927 0.716448 0)
(18.8325 -5.66176 0)
(19.4319 -12.0216 0)
(19.4502 -18.5671 0)
(18.9126 -25.4117 0)
(17.8516 -32.5581 0)
(16.332 -39.8855 0)
(14.4424 -47.177 0)
(12.282 -54.1544 0)
(9.9516 -60.5215 0)
(7.54745 -66.0086 0)
(5.15555 -70.3962 0)
(2.81123 -73.5525 0)
(0.57544 -75.1769 0)
(-1.42586 -74.9248 0)
(-3.16982 -73.5547 0)
(-4.7327 -71.1424 0)
(-6.12832 -67.7075 0)
(-7.31819 -63.3552 0)
(-8.30076 -58.2011 0)
(-9.07711 -52.3637 0)
(-9.64817 -45.9809 0)
(-10.0238 -39.1952 0)
(-10.2216 -32.1422 0)
(-10.2517 -24.9858 0)
(-10.0604 -17.9087 0)
(-9.77624 -10.9947 0)
(-10.2945 -3.16922 0)
(-10.0961 6.22492 0)
(-10.0668 15.7619 0)
(-9.85186 25.0822 0)
(-9.49035 34.0045 0)
(-9.08293 42.381 0)
(-8.62551 50.0584 0)
(-8.11273 56.8785 0)
(-7.54456 62.6786 0)
(-6.91622 67.2961 0)
(-6.21851 70.5359 0)
(-5.40539 72.0545 0)
(-4.44835 71.6766 0)
(-3.38352 70.0377 0)
(-2.20817 67.2399 0)
(8.30857 -113.996 0)
(-1.65691 -125.337 0)
(-13.8113 -131.119 0)
(-20.6171 -130.241 0)
(-26.3933 -125.373 0)
(-30.5392 -117.672 0)
(-33.0354 -108.047 0)
(-34.1169 -97.3988 0)
(-33.9793 -86.5459 0)
(-32.875 -76.0522 0)
(-31.1134 -66.2573 0)
(-29.0139 -57.2542 0)
(-26.8567 -48.927 0)
(-24.8274 -41.0202 0)
(-22.9961 -33.2516 0)
(-21.3184 -25.3331 0)
(-20.2963 -16.6972 0)
(-21.0444 -5.4201 0)
(-21.69 9.61502 0)
(-22.8688 27.5214 0)
(-23.9414 47.2087 0)
(-24.9878 67.9046 0)
(-25.8878 88.692 0)
(-26.4287 108.391 0)
(-26.4776 125.708 0)
(-25.9228 139.232 0)
(-24.5436 147.358 0)
(-21.9785 147.814 0)
(-18.6216 143.102 0)
(-14.6675 134.131 0)
(-10.2754 121.843 0)
(-5.60722 107.297 0)
(-0.870263 91.5731 0)
(3.75333 75.6411 0)
(8.10549 60.2854 0)
(12.0565 46.037 0)
(15.6917 33.1453 0)
(19.454 21.5064 0)
(23.0422 11.099 0)
(25.9357 2.83794 0)
(28.6362 -3.05125 0)
(30.922 -7.04563 0)
(32.8636 -9.67975 0)
(34.429 -11.6544 0)
(35.474 -13.75 0)
(35.8213 -16.7127 0)
(35.3047 -21.1314 0)
(33.8198 -27.3202 0)
(31.3541 -35.2527 0)
(28.0023 -44.5641 0)
(23.9421 -54.6334 0)
(19.3921 -64.7106 0)
(14.6042 -74.0411 0)
(9.81069 -82.0222 0)
(5.0537 -88.2885 0)
(0.564965 -92.2672 0)
(-3.40064 -93.6113 0)
(-6.79136 -92.7583 0)
(-9.68072 -90.3562 0)
(-12.1265 -86.5322 0)
(-14.0578 -81.5164 0)
(-15.5016 -75.5415 0)
(-16.5118 -68.8245 0)
(-17.1375 -61.5362 0)
(-17.4282 -53.8228 0)
(-17.4363 -45.8296 0)
(-17.2344 -37.677 0)
(-16.8702 -29.4521 0)
(-16.2908 -21.2525 0)
(-15.9209 -12.9472 0)
(-16.3872 -3.02681 0)
(-16.1005 8.71536 0)
(-16.0986 21.0173 0)
(-15.9044 33.4604 0)
(-15.5846 45.7604 0)
(-15.1992 57.6131 0)
(-14.6992 68.6671 0)
(-14.0505 78.5414 0)
(-13.2363 86.832 0)
(-12.24 93.1066 0)
(-11.0129 96.8384 0)
(-9.44618 97.0851 0)
(-7.63422 94.9661 0)
(-5.63154 90.8231 0)
(-3.46393 84.9563 0)
(-1.16403 77.7266 0)
(1.21443 69.5359 0)
(3.62043 60.7928 0)
(6.00701 51.8782 0)
(8.33209 43.1133 0)
(10.5613 34.7314 0)
(12.6673 26.8461 0)
(14.6999 19.4286 0)
(16.8148 12.3168 0)
(18.7002 5.4919 0)
(20.1448 -0.748262 0)
(21.2481 -6.58623 0)
(21.8021 -12.3453 0)
(21.7916 -18.2575 0)
(21.213 -24.482 0)
(20.0831 -31.059 0)
(18.4584 -37.8997 0)
(16.4231 -44.8079 0)
(14.0771 -51.5165 0)
(11.5267 -57.7307 0)
(8.875 -63.1697 0)
(6.20854 -67.5954 0)
(3.5915 -70.8197 0)
(1.1032 -72.6394 0)
(-1.15644 -72.6914 0)
(-3.17736 -71.5487 0)
(-5.0089 -69.3336 0)
(-6.64659 -66.1201 0)
(-8.07234 -62.0042 0)
(-9.28209 -57.0902 0)
(-10.2751 -51.4932 0)
(-11.0523 -45.3433 0)
(-11.624 -38.7783 0)
(-12.0088 -31.9293 0)
(-12.2087 -24.9437 0)
(-12.1723 -17.9724 0)
(-12.1483 -10.9873 0)
(-12.6781 -2.95116 0)
(-12.5158 6.25076 0)
(-12.5033 15.5628 0)
(-12.277 24.7254 0)
(-11.8597 33.5325 0)
(-11.339 41.8137 0)
(-10.7174 49.4054 0)
(-9.99647 56.1432 0)
(-9.18366 61.8608 0)
(-8.28246 66.3882 0)
(-7.28751 69.5255 0)
(-6.15269 70.8758 0)
(-4.8708 70.3737 0)
(-3.48989 68.6136 0)
(-2.01169 65.7005 0)
(13.3472 -100.292 0)
(2.03611 -112.741 0)
(-10.4775 -120.25 0)
(-18.4438 -122.521 0)
(-24.7751 -119.59 0)
(-29.4601 -113.672 0)
(-32.5722 -105.703 0)
(-34.2973 -96.5241 0)
(-34.8408 -86.8529 0)
(-34.474 -77.2392 0)
(-33.4759 -67.9985 0)
(-32.1136 -59.244 0)
(-30.6329 -50.9326 0)
(-29.2246 -42.8734 0)
(-27.998 -34.7814 0)
(-27.0077 -26.3145 0)
(-26.8401 -16.7742 0)
(-27.8633 -4.50661 0)
(-28.6732 10.9086 0)
(-29.9734 28.751 0)
(-31.0408 48.3056 0)
(-31.8035 68.7561 0)
(-32.1856 89.1227 0)
(-32.0125 108.239 0)
(-31.1562 124.84 0)
(-29.4855 137.494 0)
(-26.7538 144.362 0)
(-22.833 143.776 0)
(-18.2635 138.363 0)
(-13.1947 128.867 0)
(-7.84407 116.272 0)
(-2.41695 101.649 0)
(2.87011 86.0525 0)
(7.84771 70.4249 0)
(12.3967 55.4867 0)
(16.4696 41.664 0)
(20.2747 29.0527 0)
(24.0518 17.5386 0)
(27.1084 7.55022 0)
(29.6704 -0.0796546 0)
(31.8694 -5.54407 0)
(33.693 -9.19173 0)
(35.2646 -11.4756 0)
(36.5655 -13.0061 0)
(37.4708 -14.4841 0)
(37.7977 -16.6248 0)
(37.3482 -20.046 0)
(35.9672 -25.1447 0)
(33.5917 -32.0062 0)
(30.2709 -40.3812 0)
(26.1571 -49.7351 0)
(21.4722 -59.3586 0)
(16.4648 -68.5045 0)
(11.3659 -76.5155 0)
(6.34619 -82.9022 0)
(1.57118 -87.2733 0)
(-2.72756 -89.4068 0)
(-6.40126 -89.0886 0)
(-9.56761 -87.1972 0)
(-12.2963 -83.9061 0)
(-14.5544 -79.4256 0)
(-16.3472 -73.9618 0)
(-17.7122 -67.7079 0)
(-18.69 -60.8277 0)
(-19.3289 -53.4682 0)
(-19.6823 -45.7633 0)
(-19.8188 -37.8244 0)
(-19.7739 -29.7283 0)
(-19.5251 -21.532 0)
(-19.5391 -12.9776 0)
(-20.0608 -2.81294 0)
(-19.9036 8.75105 0)
(-19.9536 20.8413 0)
(-19.7407 33.1244 0)
(-19.3006 45.2717 0)
(-18.6857 56.9538 0)
(-17.8627 67.8118 0)
(-16.8122 77.4686 0)
(-15.5302 85.531 0)
(-14.0146 91.5564 0)
(-12.2102 94.9533 0)
(-10.0465 94.8578 0)
(-7.67393 92.5242 0)
(-5.13249 88.1945 0)
(-2.47065 82.1907 0)
(0.256825 74.8862 0)
(2.98246 66.6851 0)
(5.64672 57.9863 0)
(8.20179 49.1574 0)
(10.6258 40.5101 0)
(12.8987 32.2562 0)
(15.0283 24.4812 0)
(17.139 17.1305 0)
(19.2872 10.1049 0)
(20.9928 3.59592 0)
(22.4511 -2.15964 0)
(23.4962 -7.4724 0)
(24.0174 -12.6351 0)
(23.9889 -17.9099 0)
(23.3816 -23.495 0)
(22.1998 -29.4694 0)
(20.4889 -35.7814 0)
(18.3269 -42.263 0)
(15.814 -48.6624 0)
(13.0606 -54.6862 0)
(10.1749 -60.0448 0)
(7.25361 -64.4882 0)
(4.37711 -67.8103 0)
(1.62566 -69.8085 0)
(-0.900586 -70.1655 0)
(-3.18329 -69.232 0)
(-5.272 -67.241 0)
(-7.15615 -64.2672 0)
(-8.81832 -60.3971 0)
(-10.2552 -55.7307 0)
(-11.4667 -50.3808 0)
(-12.4545 -44.4724 0)
(-13.2271 -38.1382 0)
(-13.8006 -31.5049 0)
(-14.171 -24.7029 0)
(-14.3062 -17.8462 0)
(-14.5195 -10.8073 0)
(-15.055 -2.69702 0)
(-14.9534 6.28639 0)
(-14.9491 15.3679 0)
(-14.6975 24.3287 0)
(-14.2188 32.963 0)
(-13.5847 41.0916 0)
(-12.7995 48.5436 0)
(-11.8697 55.151 0)
(-10.8077 60.7478 0)
(-9.62581 65.1578 0)
(-8.32485 68.1595 0)
(-6.85593 69.3284 0)
(-5.23529 68.7065 0)
(-3.52774 66.8355 0)
(-1.73897 63.8275 0)
(19.41 -85.4356 0)
(6.30274 -99.1033 0)
(-5.49955 -108.687 0)
(-15.3151 -113.608 0)
(-22.6953 -113.028 0)
(-28.0434 -108.929 0)
(-31.8357 -102.615 0)
(-34.2588 -94.8634 0)
(-35.5171 -86.3487 0)
(-35.8821 -77.5909 0)
(-35.6223 -68.9143 0)
(-34.9812 -60.4512 0)
(-34.1878 -52.1894 0)
(-33.4524 -43.9852 0)
(-32.883 -35.5674 0)
(-32.5669 -26.5645 0)
(-33.0765 -16.2236 0)
(-34.3086 -3.2373 0)
(-35.3481 12.3189 0)
(-36.6908 29.9864 0)
(-37.6561 49.2128 0)
(-38.1328 69.1725 0)
(-38.0039 88.8762 0)
(-37.0571 107.161 0)
(-35.1887 122.775 0)
(-32.3812 134.35 0)
(-28.3436 139.825 0)
(-23.1741 138.382 0)
(-17.4645 132.346 0)
(-11.3904 122.484 0)
(-5.19403 109.787 0)
(0.884981 95.3091 0)
(6.63086 80.072 0)
(11.8903 64.9385 0)
(16.5759 50.5349 0)
(20.7601 37.1891 0)
(24.6891 24.9236 0)
(28.2575 13.83 0)
(30.8113 4.55172 0)
(32.9848 -2.46198 0)
(34.6698 -7.51036 0)
(36.0301 -10.8656 0)
(37.2153 -12.9049 0)
(38.2351 -14.1274 0)
(38.9938 -15.1309 0)
(39.3113 -16.5732 0)
(38.9633 -19.0774 0)
(37.7445 -23.1078 0)
(35.5294 -28.8648 0)
(32.3138 -36.2269 0)
(28.2171 -44.7661 0)
(23.4509 -53.8374 0)
(18.2727 -62.7111 0)
(12.9381 -70.7022 0)
(7.66377 -77.266 0)
(2.63214 -82.0188 0)
(-1.98121 -84.7225 0)
(-5.99831 -85.1175 0)
(-9.45185 -83.7095 0)
(-12.4702 -80.9365 0)
(-15.0423 -76.9707 0)
(-17.1658 -71.9989 0)
(-18.8724 -66.1991 0)
(-20.1971 -59.7242 0)
(-21.1842 -52.716 0)
(-21.8854 -45.3024 0)
(-22.36 -37.5871 0)
(-22.6314 -29.6348 0)
(-22.7155 -21.4594 0)
(-23.0623 -12.7329 0)
(-23.646 -2.49713 0)
(-23.6144 8.84712 0)
(-23.6841 20.6797 0)
(-23.4222 32.7018 0)
(-22.8498 44.5808 0)
(-22.0053 55.9811 0)
(-20.8642 66.5469 0)
(-19.4174 75.9059 0)
(-17.6674 83.6734 0)
(-15.6199 89.3953 0)
(-13.215 92.3743 0)
(-10.456 92.0123 0)
(-7.52883 89.4722 0)
(-4.47383 85.0002 0)
(-1.36097 78.9244 0)
(1.74309 71.6231 0)
(4.77098 63.4969 0)
(7.66678 54.9369 0)
(10.3869 46.2916 0)
(12.8985 37.8366 0)
(15.1966 29.7516 0)
(17.351 22.0983 0)
(19.5098 14.8143 0)
(21.5415 7.943 0)
(23.1554 1.8171 0)
(24.5616 -3.50762 0)
(25.5423 -8.3202 0)
(26.0405 -12.9029 0)
(26.0081 -17.544 0)
(25.3955 -22.4744 0)
(24.1907 -27.8148 0)
(22.4238 -33.5562 0)
(20.1634 -39.5652 0)
(17.5071 -45.6102 0)
(14.5685 -51.4052 0)
(11.4636 -56.6563 0)
(8.29878 -61.0972 0)
(5.16389 -64.5038 0)
(2.14605 -66.6807 0)
(-0.649294 -67.3448 0)
(-3.19198 -66.6275 0)
(-5.52908 -64.8718 0)
(-7.65483 -62.1436 0)
(-9.5526 -58.5276 0)
(-11.2172 -54.1186 0)
(-12.6478 -49.0259 0)
(-13.8457 -43.3706 0)
(-14.818 -37.2802 0)
(-15.5786 -30.8758 0)
(-16.1195 -24.2662 0)
(-16.4361 -17.5283 0)
(-16.8593 -10.4659 0)
(-17.4021 -2.38845 0)
(-17.3715 6.3421 0)
(-17.3706 15.164 0)
(-17.0844 23.8816 0)
(-16.5375 32.292 0)
(-15.7864 40.2139 0)
(-14.8358 47.4734 0)
(-13.6964 53.9014 0)
(-12.3846 59.3338 0)
(-10.9189 63.5932 0)
(-9.30666 66.4368 0)
(-7.4957 67.3883 0)
(-5.5334 66.6597 0)
(-3.49405 64.6945 0)
(-1.39227 61.6146 0)
(26.2045 -70.4789 0)
(12.7543 -84.6897 0)
(-0.04162 -95.9488 0)
(-11.2318 -103.086 0)
(-20.0885 -105.527 0)
(-26.3842 -103.335 0)
(-30.9029 -98.7293 0)
(-34.0446 -92.4077 0)
(-36.0349 -85.0377 0)
(-37.1221 -77.1288 0)
(-37.5793 -69.0184 0)
(-37.65 -60.8637 0)
(-37.5506 -52.6714 0)
(-37.4737 -44.3319 0)
(-37.5357 -35.6138 0)
(-37.8578 -26.1351 0)
(-38.9244 -15.1546 0)
(-40.3041 -1.75495 0)
(-41.5411 13.7869 0)
(-42.8486 31.1756 0)
(-43.6488 49.8913 0)
(-43.7762 69.1232 0)
(-43.0089 87.8505 0)
(-41.25 105.039 0)
(-38.4701 119.546 0)
(-34.6008 129.9 0)
(-29.338 133.891 0)
(-23.0477 131.706 0)
(-16.3218 125.184 0)
(-9.37873 115.133 0)
(-2.47583 102.53 0)
(4.13166 88.4062 0)
(10.2388 73.7158 0)
(15.7105 59.2328 0)
(20.5214 45.474 0)
(24.8038 32.6642 0)
(28.7051 20.8767 0)
(31.8483 10.48 0)
(34.0758 2.08373 0)
(35.7887 -4.30918 0)
(36.9797 -8.9463 0)
(37.8855 -12.0585 0)
(38.6756 -13.9478 0)
(39.4019 -14.9964 0)
(40.0033 -15.6886 0)
(40.3157 -16.5895 0)
(40.1045 -18.2886 0)
(39.1189 -21.2937 0)
(37.1645 -25.9176 0)
(34.1663 -32.185 0)
(30.1904 -39.7994 0)
(25.4249 -48.2064 0)
(20.1313 -56.7136 0)
(14.5899 -64.623 0)
(9.05691 -71.339 0)
(3.73885 -76.4386 0)
(-1.19928 -79.6696 0)
(-5.57575 -80.7947 0)
(-9.341 -79.8945 0)
(-12.6437 -77.6308 0)
(-15.5172 -74.1618 0)
(-17.9586 -69.6652 0)
(-19.9937 -64.3075 0)
(-21.6557 -58.2335 0)
(-22.9812 -51.5764 0)
(-24.0184 -44.4601 0)
(-24.8175 -36.9805 0)
(-25.3965 -29.1893 0)
(-25.8018 -21.0597 0)
(-26.4261 -12.2444 0)
(-27.0634 -2.07163 0)
(-27.1448 8.98911 0)
(-27.2116 20.495 0)
(-26.8848 32.1679 0)
(-26.1825 43.6844 0)
(-25.1254 54.713 0)
(-23.6822 64.8973 0)
(-21.8302 73.8631 0)
(-19.5915 81.2385 0)
(-16.9942 86.5844 0)
(-13.996 89.119 0)
(-10.6661 88.5205 0)
(-7.20475 85.8256 0)
(-3.66698 81.2847 0)
(-0.138144 75.2255 0)
(3.30158 68.0173 0)
(6.57906 60.0499 0)
(9.64221 51.6994 0)
(12.4621 43.2938 0)
(15.0284 35.0856 0)
(17.3642 27.2205 0)
(19.5544 19.7166 0)
(21.7069 12.5466 0)
(23.56 5.90025 0)
(25.1173 0.149383 0)
(26.4304 -4.78244 0)
(27.3467 -9.12823 0)
(27.8266 -13.1619 0)
(27.8032 -17.1855 0)
(27.2107 -21.4565 0)
(26.0175 -26.1371 0)
(24.234 -31.2653 0)
(21.9144 -36.7494 0)
(19.1496 -42.3878 0)
(16.0544 -47.9082 0)
(12.7508 -53.0137 0)
(9.35461 -57.424 0)
(5.9681 -60.9052 0)
(2.68465 -63.2568 0)
(-0.386604 -64.2198 0)
(-3.19288 -63.7403 0)
(-5.7746 -62.2297 0)
(-8.13814 -59.754 0)
(-10.2687 -56.3999 0)
(-12.1582 -52.2574 0)
(-13.8044 -47.4321 0)
(-15.2081 -42.0411 0)
(-16.3758 -36.2063 0)
(-17.3193 -30.0407 0)
(-18.0311 -23.6335 0)
(-18.5353 -17.0208 0)
(-19.1333 -9.97985 0)
(-19.6874 -2.02582 0)
(-19.7272 6.41537 0)
(-19.7214 14.9446 0)
(-19.3921 23.3764 0)
(-18.7703 31.5116 0)
(-17.8999 39.1728 0)
(-16.7849 46.1898 0)
(-15.4384 52.3938 0)
(-13.8786 57.622 0)
(-12.1263 61.6952 0)
(-10.1924 64.3483 0)
(-8.03135 65.0672 0)
(-5.73202 64.2376 0)
(-3.36755 62.1947 0)
(-0.967503 59.0733 0)
(33.2973 -56.2107 0)
(20.3984 -69.7003 0)
(6.98616 -81.8314 0)
(-5.52734 -90.9595 0)
(-16.065 -96.0569 0)
(-24.0622 -96.8437 0)
(-29.6119 -93.9497 0)
(-33.5744 -89.1105 0)
(-36.3482 -82.9092 0)
(-38.1894 -75.8624 0)
(-39.3629 -68.3277 0)
(-40.1278 -60.4946 0)
(-40.7 -52.4 0)
(-41.2511 -43.9624 0)
(-41.8916 -34.991 0)
(-42.7852 -25.1233 0)
(-44.2782 -13.6905 0)
(-45.751 -0.106748 0)
(-47.1026 15.2791 0)
(-48.2924 32.2329 0)
(-48.8208 50.2273 0)
(-48.4472 68.4354 0)
(-47.0758 86.0236 0)
(-44.6026 102.007 0)
(-40.9792 115.237 0)
(-36.128 124.253 0)
(-29.7509 126.703 0)
(-22.5253 123.907 0)
(-14.9445 117.045 0)
(-7.28962 106.974 0)
(0.171435 94.6545 0)
(7.18089 81.0619 0)
(13.5504 67.0731 0)
(19.1833 53.3577 0)
(24.1019 40.3261 0)
(28.4451 28.1658 0)
(32.1631 17.0899 0)
(34.8317 7.60852 0)
(36.7233 0.0976519 0)
(37.9875 -5.65305 0)
(38.7423 -9.87004 0)
(39.2312 -12.7746 0)
(39.6341 -14.6033 0)
(40.0508 -15.6154 0)
(40.4759 -16.1516 0)
(40.7724 -16.679 0)
(40.7052 -17.7359 0)
(40.0004 -19.8143 0)
(38.4 -23.3093 0)
(35.7468 -28.4041 0)
(32.0338 -34.9668 0)
(27.396 -42.5603 0)
(22.0799 -50.5609 0)
(16.3842 -58.283 0)
(10.6016 -65.095 0)
(4.97905 -70.51 0)
(-0.299725 -74.2236 0)
(-5.07248 -76.0537 0)
(-9.19815 -75.7531 0)
(-12.7902 -73.9904 0)
(-15.9606 -71.0093 0)
(-18.7126 -66.9759 0)
(-21.0631 -62.0504 0)
(-23.0464 -56.3727 0)
(-24.6931 -50.0682 0)
(-26.0456 -43.2552 0)
(-27.1477 -36.0231 0)
(-28.0155 -28.4113 0)
(-28.7174 -20.3637 0)
(-29.5645 -11.552 0)
(-30.2389 -1.55817 0)
(-30.4265 9.1567 0)
(-30.4802 20.2762 0)
(-30.09 31.535 0)
(-29.2544 42.6094 0)
(-27.9476 53.1501 0)
(-26.1471 62.8227 0)
(-23.8811 71.3029 0)
(-21.1861 78.2327 0)
(-18.0946 83.1501 0)
(-14.558 85.2385 0)
(-10.7095 84.4337 0)
(-6.76898 81.6315 0)
(-2.8047 77.0849 0)
(1.08854 71.1191 0)
(4.82069 64.0976 0)
(8.3162 56.389 0)
(11.522 48.3376 0)
(14.4158 40.2399 0)
(17.0039 32.3126 0)
(19.3327 24.6708 0)
(21.5281 17.3337 0)
(23.6347 10.3469 0)
(25.3089 3.99907 0)
(26.8117 -1.39921 0)
(28.0244 -5.97041 0)
(28.8818 -9.8921 0)
(29.3486 -13.4192 0)
(29.3466 -16.8533 0)
(28.7978 -20.4721 0)
(27.65 -24.4767 0)
(25.8905 -28.9544 0)
(23.5549 -33.8629 0)
(20.7238 -39.0383 0)
(17.509 -44.2286 0)
(14.0361 -49.1416 0)
(10.4305 -53.4908 0)
(6.80519 -57.0225 0)
(3.26052 -59.5242 0)
(-0.0939022 -60.7911 0)
(-3.17042 -60.5679 0)
(-5.99338 -59.3148 0)
(-8.59177 -57.1015 0)
(-10.9509 -54.017 0)
(-13.0607 -50.1516 0)
(-14.9168 -45.6045 0)
(-16.5197 -40.4892 0)
(-17.8763 -34.9213 0)
(-18.997 -29.0039 0)
(-19.8776 -22.8085 0)
(-20.5644 -16.336 0)
(-21.3057 -9.36888 0)
(-21.8644 -1.61613 0)
(-21.9724 6.4988 0)
(-21.9538 14.6977 0)
(-21.5838 22.8027 0)
(-20.8943 30.6228 0)
(-19.9145 37.9819 0)
(-18.6406 44.7075 0)
(-17.08 50.6341 0)
(-15.2612 55.6043 0)
(-13.2135 59.4413 0)
(-10.951 61.8736 0)
(-8.4426 62.3568 0)
(-5.82131 61.4454 0)
(-3.1492 59.3548 0)
(-0.468765 56.2306 0)
(39.3124 -44.0684 0)
(28.4534 -55.1773 0)
(15.5386 -66.8772 0)
(2.23101 -77.2094 0)
(-9.95446 -84.5751 0)
(-19.997 -88.2483 0)
(-27.4609 -88.0684 0)
(-32.6027 -84.7884 0)
(-36.3012 -79.8663 0)
(-38.9804 -73.7572 0)
(-40.9219 -66.8465 0)
(-42.383 -59.3711 0)
(-43.598 -51.4181 0)
(-44.7352 -42.94 0)
(-45.9005 -33.782 0)
(-47.2632 -23.6322 0)
(-49.0545 -11.9419 0)
(-50.5558 1.61291 0)
(-51.9088 16.6761 0)
(-52.8713 33.0088 0)
(-53.0008 50.058 0)
(-52.1609 67.1523 0)
(-50.2289 83.4931 0)
(-47.1128 98.1546 0)
(-42.7567 109.994 0)
(-36.9848 117.436 0)
(-29.6562 118.494 0)
(-21.7037 115.182 0)
(-13.459 108.121 0)
(-5.25473 98.1921 0)
(2.62129 86.3137 0)
(9.91999 73.4006 0)
(16.474 60.2297 0)
(22.2181 47.3649 0)
(27.2116 35.1404 0)
(31.4952 23.7758 0)
(34.8873 13.6516 0)
(37.126 5.2174 0)
(38.6632 -1.42569 0)
(39.5224 -6.54361 0)
(39.9113 -10.3524 0)
(40.053 -13.0645 0)
(40.1199 -14.8693 0)
(40.2368 -15.9409 0)
(40.4478 -16.4945 0)
(40.6823 -16.8437 0)
(40.7463 -17.4196 0)
(40.3079 -18.7063 0)
(39.1433 -21.1578 0)
(36.9722 -25.0542 0)
(33.6587 -30.4288 0)
(29.3065 -37.0446 0)
(24.1042 -44.3671 0)
(18.346 -51.748 0)
(12.3583 -58.5444 0)
(6.43303 -64.2114 0)
(0.79416 -68.3687 0)
(-4.39191 -70.7941 0)
(-8.94884 -71.2824 0)
(-12.8704 -70.0118 0)
(-16.3402 -67.5172 0)
(-19.3963 -63.9425 0)
(-22.051 -59.4444 0)
(-24.3363 -54.1618 0)
(-26.2835 -48.2151 0)
(-27.926 -41.7138 0)
(-29.3041 -34.7432 0)
(-30.4355 -27.3331 0)
(-31.3992 -19.4121 0)
(-32.421 -10.6989 0)
(-33.1275 -0.972019 0)
(-33.4037 9.35089 0)
(-33.4261 20.0286 0)
(-32.9252 30.7761 0)
(-31.8775 41.2705 0)
(-30.3044 51.2249 0)
(-28.196 60.3315 0)
(-25.5698 68.2795 0)
(-22.4683 74.7255 0)
(-18.9299 79.1842 0)
(-14.9059 80.7815 0)
(-10.6095 79.8235 0)
(-6.25701 76.9663 0)
(-1.93633 72.4782 0)
(2.2519 66.6804 0)
(6.2126 59.9188 0)
(9.87227 52.5401 0)
(13.1865 44.86 0)
(16.1394 37.1335 0)
(18.744 29.5379 0)
(21.0744 22.1597 0)
(23.256 15.0196 0)
(25.2188 8.25738 0)
(26.777 2.23302 0)
(28.1792 -2.85469 0)
(29.2968 -7.08868 0)
(30.1084 -10.6175 0)
(30.5723 -13.6814 0)
(30.606 -16.5676 0)
(30.1256 -19.5554 0)
(29.0579 -22.8779 0)
(27.365 -26.6735 0)
(25.0605 -30.9555 0)
(22.2107 -35.6072 0)
(18.9208 -40.4072 0)
(15.3171 -45.074 0)
(11.5311 -49.314 0)
(7.68632 -52.8629 0)
(3.89235 -55.4984 0)
(0.25695 -57.0161 0)
(-3.09852 -57.1329 0)
(-6.16404 -56.133 0)
(-8.99497 -54.1916 0)
(-11.5783 -51.3863 0)
(-13.9014 -47.8078 0)
(-15.9612 -43.5518 0)
(-17.7552 -38.7234 0)
(-19.2914 -33.4328 0)
(-20.5802 -27.7728 0)
(-21.6223 -21.7998 0)
(-22.4793 -15.4915 0)
(-23.3355 -8.65856 0)
(-23.8994 -1.17082 0)
(-24.0803 6.59269 0)
(-24.0536 14.4378 0)
(-23.6462 22.1849 0)
(-22.872 29.6382 0)
(-21.7507 36.6289 0)
(-20.289 42.9977 0)
(-18.5129 48.5979 0)
(-16.452 53.2795 0)
(-14.1397 56.8555 0)
(-11.5746 59.0207 0)
(-8.74987 59.2943 0)
(-5.84051 58.311 0)
(-2.8937 56.196 0)
(0.0366935 53.1034 0)
(41.757 -35.8562 0)
(34.9026 -43.1422 0)
(24.3678 -52.4149 0)
(11.7319 -62.3339 0)
(-1.33789 -71.0721 0)
(-13.2801 -77.1073 0)
(-23.1018 -79.8817 0)
(-30.4585 -79.2339 0)
(-35.5394 -75.6902 0)
(-39.2661 -70.6664 0)
(-42.0893 -64.5232 0)
(-44.3101 -57.5021 0)
(-46.1763 -49.7619 0)
(-47.8708 -41.3202 0)
(-49.5073 -32.0717 0)
(-51.2405 -21.7756 0)
(-53.1966 -10.0332 0)
(-54.6587 3.29375 0)
(-55.8871 17.8658 0)
(-56.5187 33.408 0)
(-56.2384 49.4216 0)
(-54.9413 65.3112 0)
(-52.5038 80.3303 0)
(-48.8395 93.5755 0)
(-43.8701 103.891 0)
(-37.2691 109.52 0)
(-29.2608 109.602 0)
(-20.7384 105.771 0)
(-11.9932 98.6173 0)
(-3.38031 88.9519 0)
(4.79622 77.6401 0)
(12.2988 65.5137 0)
(18.977 53.2508 0)
(24.7941 41.3169 0)
(29.7688 30.0097 0)
(33.8358 19.6405 0)
(36.7761 10.6397 0)
(38.6758 3.28948 0)
(39.8366 -2.53104 0)
(40.3587 -7.04895 0)
(40.4639 -10.4751 0)
(40.3408 -13.0109 0)
(40.1451 -14.8098 0)
(40.0064 -15.9844 0)
(39.9996 -16.6531 0)
(40.1104 -17.0016 0)
(40.2173 -17.3271 0)
(40.0399 -18.0182 0)
(39.2815 -19.5396 0)
(37.6706 -22.2694 0)
(34.9705 -26.402 0)
(31.0586 -31.8334 0)
(26.1494 -38.267 0)
(20.4783 -45.1135 0)
(14.3745 -51.7304 0)
(8.18098 -57.5367 0)
(2.17737 -62.0766 0)
(-3.43157 -65.0621 0)
(-8.47676 -66.3252 0)
(-12.8159 -65.6633 0)
(-16.6018 -63.676 0)
(-19.9602 -60.5722 0)
(-22.9128 -56.5072 0)
(-25.4839 -51.6238 0)
(-27.7084 -46.0435 0)
(-29.6173 -39.8678 0)
(-31.2414 -33.1748 0)
(-32.608 -25.991 0)
(-33.797 -18.2434 0)
(-34.9526 -9.71391 0)
(-35.6752 -0.327443 0)
(-35.9898 9.5407 0)
(-35.906 19.6646 0)
(-35.2444 29.7994 0)
(-34.0149 39.6738 0)
(-32.2097 49.0027 0)
(-29.823 57.4955 0)
(-26.8794 64.8571 0)
(-23.4251 70.7622 0)
(-19.4926 74.7232 0)
(-15.0484 75.8463 0)
(-10.3941 74.769 0)
(-5.71464 71.9101 0)
(-1.11851 67.5469 0)
(3.28626 61.9861 0)
(7.40508 55.5549 0)
(11.171 48.5697 0)
(14.5473 41.3078 0)
(17.5282 33.989 0)
(20.1452 26.7543 0)
(22.4873 19.6643 0)
(24.653 12.7727 0)
(26.4715 6.30408 0)
(27.9594 0.623358 0)
(29.2419 -4.17734 0)
(30.2489 -8.12843 0)
(30.999 -11.3291 0)
(31.4587 -13.9807 0)
(31.5461 -16.3525 0)
(31.1597 -18.7357 0)
(30.2053 -21.3806 0)
(28.6208 -24.4699 0)
(26.3968 -28.0824 0)
(23.5829 -32.1548 0)
(20.2716 -36.4981 0)
(16.5847 -40.8525 0)
(12.6576 -44.9305 0)
(8.62299 -48.4544 0)
(4.59984 -51.1838 0)
(0.698586 -52.9175 0)
(-2.94171 -53.41 0)
(-6.26175 -52.6795 0)
(-9.3221 -51.0251 0)
(-12.1237 -48.5131 0)
(-14.6523 -45.2334 0)
(-16.9052 -41.2811 0)
(-18.882 -36.7552 0)
(-20.5875 -31.7543 0)
(-22.0334 -26.363 0)
(-23.2317 -20.6249 0)
(-24.2511 -14.5043 0)
(-25.2082 -7.85637 0)
(-25.7809 -0.673975 0)
(-26.0119 6.71068 0)
(-25.9402 14.1484 0)
(-25.4492 21.4682 0)
(-24.57 28.4996 0)
(-23.3161 35.085 0)
(-21.6959 41.073 0)
(-19.7329 46.3208 0)
(-17.4609 50.6868 0)
(-14.9126 53.9765 0)
(-12.0652 55.8121 0)
(-8.96855 55.9358 0)
(-5.80469 54.8804 0)
(-2.62093 52.7645 0)
(0.520116 49.738 0)
(38.6462 -32.9428 0)
(36.2778 -35.6619 0)
(30.4415 -41.0883 0)
(20.9206 -48.3804 0)
(8.99538 -56.5075 0)
(-3.63842 -63.7665 0)
(-15.4622 -68.6957 0)
(-25.3921 -70.8196 0)
(-33.0805 -70.0832 0)
(-38.4697 -66.3792 0)
(-42.5214 -61.1619 0)
(-45.6683 -54.7802 0)
(-48.2621 -47.4201 0)
(-50.5293 -39.1512 0)
(-52.6018 -29.9492 0)
(-54.6124 -19.675 0)
(-56.618 -8.09551 0)
(-57.9737 4.80485 0)
(-58.9667 18.7213 0)
(-59.2374 33.3589 0)
(-58.5892 48.2902 0)
(-56.9201 62.9455 0)
(-54.1098 76.6147 0)
(-50.0562 88.4156 0)
(-44.5837 97.1302 0)
(-37.2602 100.844 0)
(-28.7775 100.082 0)
(-19.7684 95.803 0)
(-10.6004 88.6593 0)
(-1.66495 79.3692 0)
(6.73023 68.7225 0)
(14.3695 57.4753 0)
(21.1167 46.2057 0)
(26.9123 35.3017 0)
(31.7065 25.0792 0)
(35.3902 15.9051 0)
(37.8373 8.1091 0)
(39.3949 1.77983 0)
(40.217 -3.28051 0)
(40.4872 -7.25648 0)
(40.4034 -10.34 0)
(40.1144 -12.7097 0)
(39.7463 -14.4958 0)
(39.4142 -15.7783 0)
(39.2066 -16.6107 0)
(39.1549 -17.0743 0)
(39.2086 -17.3392 0)
(39.1863 -17.6881 0)
(38.7915 -18.4945 0)
(37.7128 -20.1692 0)
(35.6798 -23.0292 0)
(32.5076 -27.2083 0)
(28.0782 -32.4833 0)
(22.6993 -38.5313 0)
(16.6532 -44.7555 0)
(10.2885 -50.5308 0)
(3.95416 -55.3406 0)
(-2.08034 -58.8214 0)
(-7.62559 -60.7425 0)
(-12.5035 -60.9388 0)
(-16.6701 -59.4661 0)
(-20.3403 -56.8587 0)
(-23.5879 -53.2483 0)
(-26.4368 -48.7805 0)
(-28.9198 -43.5804 0)
(-31.0718 -37.7477 0)
(-32.92 -31.3523 0)
(-34.4917 -24.421 0)
(-35.863 -16.8964 0)
(-37.0974 -8.63946 0)
(-37.7938 0.308419 0)
(-38.0636 9.62131 0)
(-37.8631 19.1475 0)
(-37.063 28.6491 0)
(-35.6595 37.8592 0)
(-33.6421 46.5118 0)
(-31.0118 54.3443 0)
(-27.8001 61.0909 0)
(-24.0555 66.4231 0)
(-19.7875 69.8303 0)
(-15.0126 70.5337 0)
(-10.1062 69.3753 0)
(-5.20128 66.5676 0)
(-0.424277 62.3872 0)
(4.11175 57.125 0)
(8.31739 51.0792 0)
(12.1329 44.5313 0)
(15.5332 37.7232 0)
(18.5233 30.833 0)
(21.1478 23.9674 0)
(23.5149 17.181 0)
(25.6683 10.5826 0)
(27.356 4.45542 0)
(28.8111 -0.880775 0)
(29.9979 -5.39075 0)
(30.9182 -9.06578 0)
(31.6025 -11.978 0)
(32.0303 -14.2912 0)
(32.1446 -16.2314 0)
(31.856 -18.0591 0)
(31.0448 -20.0384 0)
(29.6083 -22.4051 0)
(27.5165 -25.3007 0)
(24.8014 -28.7323 0)
(21.536 -32.5594 0)
(17.8259 -36.5363 0)
(13.8066 -40.3834 0)
(9.62057 -43.8248 0)
(5.39851 -46.6089 0)
(1.2585 -48.5217 0)
(-2.66628 -49.3773 0)
(-6.25127 -48.9531 0)
(-9.53247 -47.6079 0)
(-12.5445 -45.4078 0)
(-15.2738 -42.4426 0)
(-17.7134 -38.8062 0)
(-19.8664 -34.5934 0)
(-21.7389 -29.8937 0)
(-23.3413 -24.7761 0)
(-24.6908 -19.2764 0)
(-25.8502 -13.3689 0)
(-26.8647 -6.97734 0)
(-27.4148 -0.178139 0)
(-27.647 6.77642 0)
(-27.5177 13.7739 0)
(-26.9582 20.6509 0)
(-25.9885 27.2413 0)
(-24.6171 33.3944 0)
(-22.8552 38.9707 0)
(-20.7286 43.8396 0)
(-18.2735 47.859 0)
(-15.5187 50.8223 0)
(-12.4256 52.3167 0)
(-9.10262 52.302 0)
(-5.72848 51.1928 0)
(-2.35556 49.1037 0)
(0.948199 46.1778 0)
(30.4809 -33.7489 0)
(30.8501 -33.8856 0)
(29.3468 -35.0912 0)
(24.9939 -38.4297 0)
(17.2121 -43.6117 0)
(6.78141 -49.719 0)
(-4.88658 -55.4506 0)
(-16.3835 -59.4336 0)
(-26.5823 -60.9681 0)
(-34.8882 -59.9991 0)
(-41.1352 -56.5302 0)
(-45.7292 -51.0502 0)
(-49.3623 -44.2848 0)
(-52.3517 -36.4017 0)
(-54.9146 -27.4645 0)
(-57.1954 -17.4337 0)
(-59.2216 -6.23667 0)
(-60.5092 6.06281 0)
(-61.3088 19.2146 0)
(-61.3721 32.9464 0)
(-60.546 46.8272 0)
(-58.7043 60.2932 0)
(-55.6797 72.6109 0)
(-51.3085 82.8659 0)
(-45.2087 89.66 0)
(-37.235 91.6656 0)
(-28.3032 90.0626 0)
(-18.763 85.3769 0)
(-9.11554 78.328 0)
(0.111597 69.5211 0)
(8.63964 59.622 0)
(16.3177 49.3579 0)
(22.9947 39.2038 0)
(28.561 29.4905 0)
(32.9378 20.5476 0)
(36.0662 12.6879 0)
(38.069 6.07671 0)
(39.2716 0.650951 0)
(39.8268 -3.74881 0)
(39.9378 -7.2674 0)
(39.7637 -10.0614 0)
(39.4135 -12.276 0)
(38.9753 -14.0255 0)
(38.5342 -15.3805 0)
(38.1692 -16.3647 0)
(37.9371 -16.9963 0)
(37.8498 -17.3427 0)
(37.8195 -17.5592 0)
(37.6401 -17.9205 0)
(37.0267 -18.7832 0)
(35.6497 -20.4935 0)
(33.2507 -23.3173 0)
(29.6846 -27.3502 0)
(24.8336 -32.2849 0)
(19.0735 -37.7861 0)
(12.7466 -43.2944 0)
(6.20051 -48.201 0)
(-0.217145 -52.0664 0)
(-6.24637 -54.5807 0)
(-11.6984 -55.5658 0)
(-16.4134 -54.8852 0)
(-20.449 -52.7925 0)
(-24.0041 -49.6677 0)
(-27.1325 -45.6403 0)
(-29.8662 -40.8414 0)
(-32.2432 -35.3737 0)
(-34.2938 -29.3042 0)
(-36.0399 -22.6622 0)
(-37.531 -15.428 0)
(-38.773 -7.55845 0)
(-39.4133 0.862856 0)
(-39.6295 9.60559 0)
(-39.313 18.5041 0)
(-38.3729 27.3282 0)
(-36.8033 35.834 0)
(-34.5962 43.7817 0)
(-31.7604 50.9313 0)
(-28.3358 57.0373 0)
(-24.3738 61.7832 0)
(-19.84 64.5602 0)
(-14.868 65.0017 0)
(-9.81448 63.7699 0)
(-4.79408 61.0539 0)
(0.0622411 57.1053 0)
(4.64262 52.1857 0)
(8.86568 46.5604 0)
(12.685 40.4756 0)
(16.0843 34.1312 0)
(19.0773 27.668 0)
(21.7332 21.1672 0)
(24.1574 14.6909 0)
(26.2587 8.42416 0)
(27.9229 2.69361 0)
(29.341 -2.30675 0)
(30.4553 -6.52663 0)
(31.312 -9.93329 0)
(31.9422 -12.5776 0)
(32.3359 -14.5888 0)
(32.4534 -16.1565 0)
(32.2184 -17.5014 0)
(31.4821 -18.8501 0)
(30.2323 -20.5188 0)
(28.3696 -22.7089 0)
(25.8392 -25.459 0)
(22.6696 -28.6601 0)
(19.0103 -32.1767 0)
(14.9693 -35.7293 0)
(10.6862 -39.0241 0)
(6.30748 -41.8056 0)
(1.96336 -43.8532 0)
(-2.22237 -44.9851 0)
(-6.09461 -44.9909 0)
(-9.60417 -43.9476 0)
(-12.821 -42.0717 0)
(-15.7448 -39.4352 0)
(-18.3644 -36.1284 0)
(-20.6839 -32.24 0)
(-22.7127 -27.851 0)
(-24.4568 -23.0254 0)
(-25.9293 -17.7983 0)
(-27.1801 -12.16 0)
(-28.213 -6.09507 0)
(-28.7481 0.288861 0)
(-28.9761 6.80681 0)
(-28.793 13.3472 0)
(-28.1664 19.7526 0)
(-27.1109 25.8715 0)
(-25.6329 31.5663 0)
(-23.7474 36.7074 0)
(-21.4842 41.1746 0)
(-18.8812 44.8325 0)
(-15.9509 47.4475 0)
(-12.6463 48.5694 0)
(-9.16342 48.4509 0)
(-5.63634 47.3105 0)
(-2.13138 45.2749 0)
(1.27913 42.4814 0)
(21.4697 -34.1702 0)
(21.0443 -34.5578 0)
(20.9586 -34.4832 0)
(20.0322 -34.6971 0)
(17.1082 -36.1419 0)
(11.5301 -39.0192 0)
(3.37484 -42.743 0)
(-6.49996 -46.4996 0)
(-16.9799 -49.2387 0)
(-26.9558 -50.1564 0)
(-35.6637 -48.8935 0)
(-42.8275 -45.4818 0)
(-48.4014 -40.0083 0)
(-52.7071 -32.8762 0)
(-56.214 -24.4882 0)