/*--------------------------------*- C++ -*----------------------------------*\
| =========                 |                                                 |
| \\      /  F ield         | OpenFOAM: The Open Source CFD Toolbox           |
|  \\    /   O peration     | Version:  2206                                  |
|   \\  /    A nd           | Website:  www.openfoam.com                      |
|    \\/     M anipulation  |                                                 |
\*---------------------------------------------------------------------------*/
FoamFile
{
    version     2.0;
    format      ascii;
    arch        "LSB;label=32;scalar=64";
    class       surfaceScalarField;
    location    "20.0001";
    object      phi_0;
}
// * * * * * * * * * * * * * * * * * * * * * * * * * * * * * * * * * * * * * //

dimensions      [0 3 -1 0 0 0 0];

oriented        oriented;

internalField   nonuniform List<scalar> 
5920
(
-1.20966e-06
1.05306e-07
-1.42902e-06
2.19357e-07
-1.74844e-06
3.19428e-07
-2.12524e-06
3.76799e-07
-2.50394e-06
3.78693e-07
-2.82144e-06
3.175e-07
-2.9917e-06
1.70266e-07
-2.96306e-06
-2.86395e-08
-2.76544e-06
-1.97621e-07
-2.40542e-06
-3.60021e-07
-1.93978e-06
-4.65637e-07
-1.43699e-06
-5.02796e-07
-9.38383e-07
-4.98605e-07
-4.75763e-07
-4.62619e-07
-7.22503e-08
-4.03513e-07
2.58055e-07
-3.30306e-07
5.03088e-07
-2.45033e-07
6.69665e-07
-1.66576e-07
7.71971e-07
-1.02306e-07
8.29358e-07
-5.73869e-08
8.62431e-07
-3.30732e-08
8.87963e-07
-2.5532e-08
9.20355e-07
-3.23917e-08
9.75845e-07
-5.54908e-08
1.06568e-06
-8.98397e-08
1.19399e-06
-1.28303e-07
1.36094e-06
-1.66953e-07
1.56471e-06
-2.03767e-07
1.80082e-06
-2.36108e-07
2.06037e-06
-2.59551e-07
2.33281e-06
-2.72443e-07
2.60978e-06
-2.76971e-07
2.88575e-06
-2.75967e-07
3.1577e-06
-2.71949e-07
3.42509e-06
-2.67389e-07
3.68959e-06
-2.64501e-07
3.95525e-06
-2.65665e-07
4.22918e-06
-2.73925e-07
4.52258e-06
-2.93404e-07
4.85365e-06
-3.3107e-07
5.25127e-06
-3.97615e-07
5.78177e-06
-5.30504e-07
-7.22198e-07
6.50397e-06
-2.9915e-07
8.90552e-08
-3.68039e-07
2.88246e-07
-4.9781e-07
4.49199e-07
-6.55626e-07
5.34615e-07
-8.05024e-07
5.28091e-07
-8.98347e-07
4.10823e-07
-8.74146e-07
1.46065e-07
-7.17372e-07
-1.85413e-07
-3.9387e-07
-5.21124e-07
3.12871e-08
-7.85178e-07
5.08571e-07
-9.42921e-07
1.00826e-06
-1.00248e-06
1.49845e-06
-9.88794e-07
1.96131e-06
-9.25485e-07
2.38053e-06
-8.22727e-07
2.74461e-06
-6.94386e-07
3.05333e-06
-5.53755e-07
3.30463e-06
-4.17875e-07
3.50339e-06
-3.01068e-07
3.65846e-06
-2.12453e-07
3.78242e-06
-1.57038e-07
3.88916e-06
-1.32274e-07
3.99238e-06
-1.35613e-07
4.10522e-06
-1.68323e-07
4.23734e-06
-2.21964e-07
4.39392e-06
-2.84876e-07
4.57567e-06
-3.4871e-07
4.77945e-06
-4.07549e-07
5.00014e-06
-4.56796e-07
5.23314e-06
-4.92552e-07
5.4748e-06
-5.141e-07
5.72215e-06
-5.24326e-07
5.973e-06
-5.2681e-07
6.22609e-06
-5.25038e-07
6.48145e-06
-5.22755e-07
6.74054e-06
-5.23588e-07
7.00604e-06
-5.3117e-07
7.28194e-06
-5.49825e-07
7.57375e-06
-5.85206e-07
7.88804e-06
-6.45362e-07
8.23239e-06
-7.4197e-07
8.59614e-06
-8.9425e-07
-1.11377e-06
8.98771e-06
2.12164e-06
-9.29512e-08
2.30928e-06
1.0061e-07
2.47717e-06
2.81302e-07
2.62809e-06
3.83702e-07
2.77924e-06
3.76939e-07
2.94934e-06
2.4072e-07
3.13831e-06
-4.29032e-08
3.37598e-06
-4.23078e-07
3.66411e-06
-8.09257e-07
3.98785e-06
-1.10892e-06
4.33021e-06
-1.28528e-06
4.66675e-06
-1.33902e-06
4.99486e-06
-1.31691e-06
5.31375e-06
-1.24437e-06
5.61375e-06
-1.12272e-06
5.89169e-06
-9.72335e-07
6.14811e-06
-8.10172e-07
6.38236e-06
-6.52126e-07
6.59497e-06
-5.13672e-07
6.78685e-06
-4.04341e-07
6.95958e-06
-3.29761e-07
7.11811e-06
-2.90804e-07
7.26789e-06
-2.85393e-07
7.40888e-06
-3.09311e-07
7.54162e-06
-3.54711e-07
7.66955e-06
-4.12799e-07
7.79601e-06
-4.75172e-07
7.92309e-06
-5.34631e-07
8.05223e-06
-5.85933e-07
8.18449e-06
-6.24811e-07
8.32038e-06
-6.49997e-07
8.46061e-06
-6.64555e-07
8.60573e-06
-6.71924e-07
8.75622e-06
-6.75533e-07
8.91285e-06
-6.79387e-07
9.07661e-06
-6.87347e-07
9.24869e-06
-7.03244e-07
9.43038e-06
-7.31518e-07
9.62269e-06
-7.77518e-07
9.82539e-06
-8.48063e-07
1.0035e-05
-9.51603e-07
1.02393e-05
-1.09857e-06
-1.29417e-06
1.04197e-05
5.9502e-06
-5.50374e-08
5.95655e-06
9.42658e-08
6.04918e-06
1.88673e-07
6.21711e-06
2.15769e-07
6.44451e-06
1.49539e-07
6.71498e-06
-2.97464e-08
6.99196e-06
-3.19889e-07
7.24861e-06
-6.79731e-07
7.45793e-06
-1.01857e-06
7.62455e-06
-1.27554e-06
7.76936e-06
-1.43009e-06
7.90207e-06
-1.47173e-06
8.03399e-06
-1.44882e-06
8.16817e-06
-1.37856e-06
8.30449e-06
-1.25904e-06
8.44535e-06
-1.1132e-06
8.59267e-06
-9.57486e-07
8.74555e-06
-8.05011e-07
8.90175e-06
-6.69869e-07
9.05806e-06
-5.6065e-07
9.21069e-06
-4.82389e-07
9.35618e-06
-4.363e-07
9.49124e-06
-4.20451e-07
9.61266e-06
-4.30728e-07
9.71946e-06
-4.6151e-07
9.81279e-06
-5.06129e-07
9.8943e-06
-5.56689e-07
9.96556e-06
-6.05887e-07
1.0029e-05
-6.49388e-07
1.00883e-05
-6.84097e-07
1.01471e-05
-7.08748e-07
1.02082e-05
-7.25656e-07
1.02734e-05
-7.37195e-07
1.03442e-05
-7.46273e-07
1.04216e-05
-7.5679e-07
1.05063e-05
-7.72123e-07
1.05986e-05
-7.95476e-07
1.06976e-05
-8.30591e-07
1.08017e-05
-8.81532e-07
1.09068e-05
-9.53155e-07
1.10054e-05
-1.05028e-06
1.10822e-05
-1.17536e-06
-1.32804e-06
1.11161e-05
9.46344e-06
-7.07634e-08
9.5271e-06
3.05999e-08
9.63076e-06
8.50202e-08
9.77521e-06
7.13102e-08
9.94606e-06
-2.13094e-08
1.01198e-05
-2.0347e-07
1.02608e-05
-4.60908e-07
1.03399e-05
-7.58806e-07
1.0346e-05
-1.02471e-06
1.03049e-05
-1.2344e-06
1.02433e-05
-1.36848e-06
1.0183e-05
-1.41149e-06
1.01345e-05
-1.40031e-06
1.0099e-05
-1.34304e-06
1.00844e-05
-1.24442e-06
1.00935e-05
-1.1223e-06
1.01273e-05
-9.91261e-07
1.01847e-05
-8.62412e-07
1.02611e-05
-7.46264e-07
1.03505e-05
-6.50136e-07
1.04467e-05
-5.7857e-07
1.05435e-05
-5.33087e-07
1.06355e-05
-5.12464e-07
1.07184e-05
-5.13607e-07
1.07894e-05
-5.32495e-07
1.08469e-05
-5.63656e-07
1.08911e-05
-6.00843e-07
1.09231e-05
-6.37908e-07
1.09451e-05
-6.71445e-07
1.09608e-05
-6.99721e-07
1.09745e-05
-7.22431e-07
1.099e-05
-7.41153e-07
1.10093e-05
-7.56565e-07
1.10339e-05
-7.70858e-07
1.10642e-05
-7.87044e-07
1.10999e-05
-8.07897e-07
1.11404e-05
-8.35918e-07
1.11835e-05
-8.73753e-07
1.12262e-05
-9.24161e-07
1.12634e-05
-9.90435e-07
1.12879e-05
-1.07478e-06
1.12915e-05
-1.17888e-06
-1.30507e-06
1.12685e-05
1.10647e-05
-1.10036e-07
1.11527e-05
-5.73701e-08
1.12769e-05
-3.9237e-08
1.14214e-05
-7.31683e-08
1.15669e-05
-1.66846e-07
1.16843e-05
-3.20778e-07
1.17436e-05
-5.20259e-07
1.17246e-05
-7.39767e-07
1.16408e-05
-9.40953e-07
1.15167e-05
-1.1103e-06
1.13733e-05
-1.22504e-06
1.12366e-05
-1.27483e-06
1.11107e-05
-1.27445e-06
1.10016e-05
-1.23394e-06
1.09189e-05
-1.1617e-06
1.08658e-05
-1.06922e-06
1.08422e-05
-9.67662e-07
1.08463e-05
-8.66447e-07
1.08731e-05
-7.73075e-07
1.09165e-05
-6.93546e-07
1.09704e-05
-6.32504e-07
1.10289e-05
-5.91518e-07
1.10864e-05
-5.69977e-07
1.11383e-05
-5.65504e-07
1.11803e-05
-5.74528e-07
1.12104e-05
-5.9375e-07
1.12287e-05
-6.19118e-07
1.12369e-05
-6.46139e-07
1.12379e-05
-6.72464e-07
1.12352e-05
-6.97041e-07
1.1232e-05
-7.19191e-07
1.12301e-05
-7.39212e-07
1.12309e-05
-7.57419e-07
1.12358e-05
-7.75752e-07
1.12448e-05
-7.96066e-07
1.12574e-05
-8.20433e-07
1.1272e-05
-8.50588e-07
1.12873e-05
-8.88981e-07
1.13012e-05
-9.38049e-07
1.13097e-05
-9.9898e-07
1.13083e-05
-1.07334e-06
1.12913e-05
-1.1619e-06
-1.26163e-06
1.12478e-05
1.17035e-05
-1.58565e-07
1.17846e-05
-1.38446e-07
1.18854e-05
-1.40057e-07
1.19899e-05
-1.77672e-07
1.20778e-05
-2.54786e-07
1.21298e-05
-3.72724e-07
1.2134e-05
-5.24496e-07
1.20874e-05
-6.93195e-07
1.20031e-05
-8.56656e-07
1.1884e-05
-9.91167e-07
1.17415e-05
-1.08252e-06
1.15971e-05
-1.13045e-06
1.14617e-05
-1.13902e-06
1.13429e-05
-1.11513e-06
1.12471e-05
-1.06589e-06
1.11772e-05
-9.99376e-07
1.11334e-05
-9.2387e-07
1.11138e-05
-8.46784e-07
1.11149e-05
-7.7419e-07
1.1132e-05
-7.1068e-07
1.11599e-05
-6.60411e-07
1.11937e-05
-6.25303e-07
1.12278e-05
-6.04113e-07
1.12581e-05
-5.95781e-07
1.12817e-05
-5.98091e-07
1.12966e-05
-6.0867e-07
1.13034e-05
-6.25951e-07
1.13042e-05
-6.46866e-07
1.13007e-05
-6.69056e-07
1.12952e-05
-6.9151e-07
1.12889e-05
-7.1289e-07
1.12826e-05
-7.3293e-07
1.12777e-05
-7.52474e-07
1.12748e-05
-7.72876e-07
1.12742e-05
-7.95483e-07
1.12755e-05
-8.21732e-07
1.12781e-05
-8.53127e-07
1.128e-05
-8.90968e-07
1.12788e-05
-9.36823e-07
1.12717e-05
-9.91865e-07
1.12545e-05
-1.05609e-06
1.12215e-05
-1.12897e-06
-1.20804e-06
1.11679e-05
1.18693e-05
-1.86381e-07
1.19181e-05
-1.87191e-07
1.19831e-05
-2.05119e-07
1.20526e-05
-2.47171e-07
1.21163e-05
-3.18426e-07
1.21561e-05
-4.12539e-07
1.21578e-05
-5.26242e-07
1.21194e-05
-6.54817e-07
1.20424e-05
-7.79579e-07
1.19357e-05
-8.84488e-07
1.18132e-05
-9.60054e-07
1.16868e-05
-1.00399e-06
1.1566e-05
-1.01829e-06
1.14581e-05
-1.00715e-06
1.13678e-05
-9.75637e-07
1.1298e-05
-9.29584e-07
1.12491e-05
-8.74983e-07
1.12197e-05
-8.17393e-07
1.12075e-05
-7.61914e-07
1.12095e-05
-7.12679e-07
1.12212e-05
-6.72103e-07
1.12373e-05
-6.41446e-07
1.12552e-05
-6.22016e-07
1.12731e-05
-6.13655e-07
1.12886e-05
-6.13608e-07
1.12998e-05
-6.19837e-07
1.1305e-05
-6.3123e-07
1.13054e-05
-6.47206e-07
1.13024e-05
-6.66031e-07
1.12962e-05
-6.85377e-07
1.1288e-05
-7.04648e-07
1.12792e-05
-7.24169e-07
1.12709e-05
-7.4416e-07
1.12634e-05
-7.65372e-07
1.12567e-05
-7.88776e-07
1.12504e-05
-8.1542e-07
1.12436e-05
-8.46395e-07
1.12353e-05
-8.82645e-07
1.12235e-05
-9.24999e-07
1.12056e-05
-9.73956e-07
1.11788e-05
-1.02927e-06
1.11397e-05
-1.08987e-06
-1.15349e-06
1.10851e-05
1.18837e-05
-2.07761e-07
1.19182e-05
-2.21681e-07
1.19612e-05
-2.4809e-07
1.20048e-05
-2.90793e-07
1.20388e-05
-3.52382e-07
1.20571e-05
-4.30903e-07
1.20527e-05
-5.21868e-07
1.20183e-05
-6.20348e-07
1.19554e-05
-7.16686e-07
1.18706e-05
-7.99705e-07
1.17727e-05
-8.62118e-07
1.16705e-05
-9.01815e-07
1.15715e-05
-9.19334e-07
1.14814e-05
-9.16982e-07
1.1404e-05
-8.98238e-07
1.13416e-05
-8.67241e-07
1.1295e-05
-8.28395e-07
1.12637e-05
-7.86019e-07
1.12458e-05
-7.44071e-07
1.12391e-05
-7.05993e-07
1.1241e-05
-6.74005e-07
1.12483e-05
-6.48685e-07
1.12572e-05
-6.3093e-07
1.1266e-05
-6.22458e-07
1.12735e-05
-6.21132e-07
1.12788e-05
-6.25134e-07
1.12814e-05
-6.33835e-07
1.12806e-05
-6.46415e-07
1.12764e-05
-6.61827e-07
1.12698e-05
-6.78727e-07
1.12615e-05
-6.96417e-07
1.12523e-05
-7.14957e-07
1.12427e-05
-7.34586e-07
1.12331e-05
-7.55725e-07
1.12233e-05
-7.78995e-07
1.1213e-05
-8.05106e-07
1.12014e-05
-8.34798e-07
1.11875e-05
-8.68724e-07
1.11698e-05
-9.07319e-07
1.11465e-05
-9.50676e-07
1.11156e-05
-9.98344e-07
1.10749e-05
-1.0492e-06
-1.10123e-06
1.10227e-05
1.18483e-05
-2.22611e-07
1.18712e-05
-2.44601e-07
1.18986e-05
-2.7542e-07
1.19254e-05
-3.17595e-07
1.19454e-05
-3.72392e-07
1.19531e-05
-4.38618e-07
1.19442e-05
-5.12958e-07
1.19149e-05
-5.91093e-07
1.18651e-05
-6.66899e-07
1.17992e-05
-7.33744e-07
1.17231e-05
-7.86053e-07
1.1643e-05
-8.21673e-07
1.15641e-05
-8.40439e-07
1.14907e-05
-8.43645e-07
1.14261e-05
-8.33628e-07
1.13722e-05
-8.13352e-07
1.13299e-05
-7.86083e-07
1.1299e-05
-7.55125e-07
1.12785e-05
-7.23594e-07
1.12668e-05
-6.94227e-07
1.12616e-05
-6.68863e-07
1.12612e-05
-6.48217e-07
1.12633e-05
-6.33033e-07
1.1266e-05
-6.25168e-07
1.12683e-05
-6.23492e-07
1.12695e-05
-6.26321e-07
1.12689e-05
-6.33226e-07
1.1266e-05
-6.4352e-07
1.12607e-05
-6.56527e-07
1.12534e-05
-6.71435e-07
1.12447e-05
-6.87692e-07
1.12349e-05
-7.05182e-07
1.12244e-05
-7.24006e-07
1.1213e-05
-7.44419e-07
1.12009e-05
-7.6682e-07
1.11874e-05
-7.91678e-07
1.11721e-05
-8.19472e-07
1.1154e-05
-8.50615e-07
1.1132e-05
-8.85336e-07
1.11049e-05
-9.23574e-07
1.10714e-05
-9.64825e-07
1.10303e-05
-1.00805e-06
-1.05155e-06
1.09806e-05
1.18218e-05
-2.32521e-07
1.18365e-05
-2.59367e-07
1.18535e-05
-2.92375e-07
1.18691e-05
-3.33193e-07
1.18791e-05
-3.8242e-07
1.18797e-05
-4.39202e-07
1.18679e-05
-5.01191e-07
1.18418e-05
-5.65003e-07
1.18016e-05
-6.2664e-07
1.17496e-05
-6.81779e-07
1.16898e-05
-7.2622e-07
1.16262e-05
-7.58085e-07
1.15627e-05
-7.7696e-07
1.15026e-05
-7.83562e-07
1.14485e-05
-7.79448e-07
1.14018e-05
-7.66729e-07
1.13636e-05
-7.47851e-07
1.13338e-05
-7.25374e-07
1.1312e-05
-7.01757e-07
1.12969e-05
-6.79121e-07
1.1287e-05
-6.58921e-07
1.12808e-05
-6.42087e-07
1.12776e-05
-6.29828e-07
1.12759e-05
-6.2344e-07
1.12741e-05
-6.21733e-07
1.12715e-05
-6.23655e-07
1.12675e-05
-6.29266e-07
1.1262e-05
-6.3803e-07
1.12549e-05
-6.49381e-07
1.12462e-05
-6.62751e-07
1.12362e-05
-6.77707e-07
1.12251e-05
-6.9406e-07
1.12129e-05
-7.11817e-07
1.11996e-05
-7.3111e-07
1.11849e-05
-7.52174e-07
1.11686e-05
-7.75308e-07
1.11499e-05
-8.00833e-07
1.11283e-05
-8.29014e-07
1.1103e-05
-8.59984e-07
1.10731e-05
-8.93643e-07
1.10378e-05
-9.29547e-07
1.09966e-05
-9.66831e-07
-1.00412e-06
1.09491e-05
1.17992e-05
-2.39082e-07
1.18082e-05
-2.68377e-07
1.18178e-05
-3.01954e-07
1.18255e-05
-3.40918e-07
1.18286e-05
-3.85567e-07
1.18247e-05
-4.35214e-07
1.18116e-05
-4.88135e-07
1.17884e-05
-5.41792e-07
1.17552e-05
-5.93426e-07
1.17133e-05
-6.39929e-07
1.16654e-05
-6.78319e-07
1.16144e-05
-7.07013e-07
1.15629e-05
-7.25479e-07
1.15134e-05
-7.34091e-07
1.14678e-05
-7.33894e-07
1.14275e-05
-7.26407e-07
1.13932e-05
-7.13501e-07
1.1365e-05
-6.97157e-07
1.13425e-05
-6.7932e-07
1.13251e-05
-6.61721e-07
1.13118e-05
-6.45644e-07
1.1302e-05
-6.32239e-07
1.12949e-05
-6.22716e-07
1.12889e-05
-6.17487e-07
1.1283e-05
-6.15758e-07
1.12766e-05
-6.17324e-07
1.12695e-05
-6.22159e-07
1.12614e-05
-6.29901e-07
1.12521e-05
-6.40076e-07
1.12416e-05
-6.52238e-07
1.12299e-05
-6.66036e-07
1.12171e-05
-6.81258e-07
1.12031e-05
-6.97834e-07
1.11878e-05
-7.15787e-07
1.11708e-05
-7.35223e-07
1.11519e-05
-7.56323e-07
1.11303e-05
-7.79311e-07
1.11057e-05
-8.04396e-07
1.10774e-05
-8.31705e-07
1.1045e-05
-8.61201e-07
1.1008e-05
-8.9257e-07
1.09664e-05
-9.25164e-07
-9.57897e-07
1.09201e-05
1.17761e-05
-2.43238e-07
1.17811e-05
-2.73363e-07
1.17857e-05
-3.06546e-07
1.17883e-05
-3.43518e-07
1.17871e-05
-3.84394e-07
1.17805e-05
-4.28592e-07
1.17671e-05
-4.74793e-07
1.17464e-05
-5.21111e-07
1.17186e-05
-5.65616e-07
1.16846e-05
-6.05884e-07
1.1646e-05
-6.39786e-07
1.1605e-05
-6.65954e-07
1.15633e-05
-6.83808e-07
1.15227e-05
-6.93508e-07
1.14846e-05
-6.95764e-07
1.14499e-05
-6.91717e-07
1.14193e-05
-6.82839e-07
1.13928e-05
-6.70684e-07
1.13704e-05
-6.56901e-07
1.13516e-05
-6.42974e-07
1.13361e-05
-6.30082e-07
1.13232e-05
-6.19382e-07
1.13122e-05
-6.11763e-07
1.13021e-05
-6.07368e-07
1.12922e-05
-6.05866e-07
1.12822e-05
-6.07289e-07
1.12717e-05
-6.11687e-07
1.12606e-05
-6.18777e-07
1.12487e-05
-6.28144e-07
1.12358e-05
-6.39392e-07
1.1222e-05
-6.52176e-07
1.1207e-05
-6.66294e-07
1.11908e-05
-6.81626e-07
1.11731e-05
-6.9807e-07
1.11535e-05
-7.1562e-07
1.11315e-05
-7.34386e-07
1.11068e-05
-7.54545e-07
1.10787e-05
-7.76313e-07
1.10469e-05
-7.99904e-07
1.10111e-05
-8.25432e-07
1.09713e-05
-8.5278e-07
1.09277e-05
-8.81533e-07
-9.10886e-07
1.08807e-05
1.17549e-05
-2.45692e-07
1.17571e-05
-2.75556e-07
1.17583e-05
-3.07715e-07
1.17574e-05
-3.42646e-07
1.17534e-05
-3.80363e-07
1.17451e-05
-4.20374e-07
1.1732e-05
-4.61628e-07
1.17136e-05
-5.02728e-07
1.16902e-05
-5.42188e-07
1.16623e-05
-5.78046e-07
1.16312e-05
-6.08702e-07
1.15982e-05
-6.32943e-07
1.15646e-05
-6.50141e-07
1.15313e-05
-6.60266e-07
1.14993e-05
-6.63782e-07
1.14692e-05
-6.61621e-07
1.14414e-05
-6.55008e-07
1.1416e-05
-6.45275e-07
1.13931e-05
-6.33996e-07
1.13725e-05
-6.22375e-07
1.1354e-05
-6.11545e-07
1.13374e-05
-6.02833e-07
1.13223e-05
-5.96704e-07
1.13079e-05
-5.92957e-07
1.12937e-05
-5.91616e-07
1.12795e-05
-5.93084e-07
1.12652e-05
-5.97361e-07
1.12504e-05
-6.04065e-07
1.12351e-05
-6.12797e-07
1.1219e-05
-6.23248e-07
1.12019e-05
-6.3515e-07
1.11838e-05
-6.48192e-07
1.11643e-05
-6.62107e-07
1.1143e-05
-6.76752e-07
1.11194e-05
-6.92061e-07
1.10931e-05
-7.0805e-07
1.10634e-05
-7.24868e-07
1.10299e-05
-7.42805e-07
1.09923e-05
-7.62261e-07
1.09504e-05
-7.83564e-07
1.09045e-05
-8.0684e-07
1.08549e-05
-8.3193e-07
-8.58265e-07
1.08022e-05
1.17362e-05
-2.46752e-07
1.17362e-05
-2.75563e-07
1.17347e-05
-3.06255e-07
1.17312e-05
-3.39142e-07
1.1725e-05
-3.74182e-07
1.17156e-05
-4.10943e-07
1.17026e-05
-4.48585e-07
1.16859e-05
-4.86013e-07
1.16655e-05
-5.21869e-07
1.16421e-05
-5.5458e-07
1.16162e-05
-5.82823e-07
1.15887e-05
-6.05472e-07
1.15604e-05
-6.21798e-07
1.15317e-05
-6.31604e-07
1.15032e-05
-6.35257e-07
1.14752e-05
-6.33591e-07
1.14479e-05
-6.27757e-07
1.14218e-05
-6.19135e-07
1.13969e-05
-6.09118e-07
1.13733e-05
-5.9881e-07
1.13512e-05
-5.89392e-07
1.13298e-05
-5.81506e-07
1.13086e-05
-5.7551e-07
1.12879e-05
-5.72179e-07
1.12679e-05
-5.71604e-07
1.12482e-05
-5.73411e-07
1.12282e-05
-5.7741e-07
1.12077e-05
-5.8349e-07
1.11863e-05
-5.91402e-07
1.11639e-05
-6.00837e-07
1.11402e-05
-6.11474e-07
1.1115e-05
-6.22976e-07
1.10879e-05
-6.35008e-07
1.10584e-05
-6.47292e-07
1.1026e-05
-6.5964e-07
1.09899e-05
-6.71965e-07
1.09494e-05
-6.84377e-07
1.09039e-05
-6.97267e-07
1.08528e-05
-7.1123e-07
1.07962e-05
-7.26958e-07
1.07344e-05
-7.4499e-07
1.06678e-05
-7.65393e-07
-7.87696e-07
1.05973e-05
1.17187e-05
-2.20091e-07
1.17178e-05
-2.45922e-07
1.17153e-05
-2.73036e-07
1.17109e-05
-3.01846e-07
1.17043e-05
-3.32571e-07
1.16953e-05
-3.6515e-07
1.16835e-05
-3.99182e-07
1.16689e-05
-4.33921e-07
1.16513e-05
-4.68473e-07
1.16309e-05
-5.01396e-07
1.16078e-05
-5.31535e-07
1.15827e-05
-5.5772e-07
1.1556e-05
-5.78794e-07
1.15282e-05
-5.93954e-07
1.14995e-05
-6.02889e-07
1.147e-05
-6.05824e-07
1.144e-05
-6.03509e-07
1.14093e-05
-5.97124e-07
1.13783e-05
-5.881e-07
1.1347e-05
-5.77809e-07
1.13155e-05
-5.6738e-07
1.1284e-05
-5.57803e-07
1.12522e-05
-5.49747e-07
1.12203e-05
-5.43593e-07
1.11879e-05
-5.39751e-07
1.11546e-05
-5.38393e-07
1.11206e-05
-5.39352e-07
1.10855e-05
-5.42329e-07
1.10491e-05
-5.47082e-07
1.10111e-05
-5.53393e-07
1.09712e-05
-5.60962e-07
1.09292e-05
-5.69435e-07
1.08846e-05
-5.78428e-07
1.08371e-05
-5.87487e-07
1.07859e-05
-5.96131e-07
1.07303e-05
-6.03967e-07
1.06691e-05
-6.10819e-07
1.06015e-05
-6.16794e-07
1.05266e-05
-6.22376e-07
1.04439e-05
-6.28466e-07
1.03531e-05
-6.36205e-07
1.02547e-05
-6.46605e-07
1.01494e-05
-6.60003e-07
-6.75875e-07
1.00375e-05
1.16648e-05
-2.16628e-07
1.16587e-05
-2.39833e-07
1.165e-05
-2.64356e-07
1.16387e-05
-2.90512e-07
1.16246e-05
-3.1846e-07
1.16076e-05
-3.48141e-07
1.15875e-05
-3.79152e-07
1.15644e-05
-4.10765e-07
1.15387e-05
-4.42797e-07
1.15101e-05
-4.72784e-07
1.14788e-05
-5.00225e-07
1.1445e-05
-5.23994e-07
1.14089e-05
-5.42699e-07
1.13704e-05
-5.55419e-07
1.13292e-05
-5.61692e-07
1.1285e-05
-5.61643e-07
1.12377e-05
-5.56127e-07
1.11872e-05
-5.4665e-07
1.1134e-05
-5.34886e-07
1.10784e-05
-5.2225e-07
1.10209e-05
-5.09857e-07
1.09617e-05
-4.98578e-07
1.09009e-05
-4.88979e-07
1.08386e-05
-4.81339e-07
1.07747e-05
-4.75835e-07
1.07088e-05
-4.72493e-07
1.06406e-05
-4.71099e-07
1.05696e-05
-4.71408e-07
1.04958e-05
-4.73218e-07
1.04186e-05
-4.76245e-07
1.03378e-05
-4.80168e-07
1.0253e-05
-4.84625e-07
1.01639e-05
-4.89281e-07
1.007e-05
-4.93608e-07
9.97076e-06
-4.9688e-07
9.86527e-06
-4.98485e-07
9.75247e-06
-4.98019e-07
9.63111e-06
-4.95425e-07
9.50002e-06
-4.91291e-07
9.35839e-06
-4.86831e-07
9.20584e-06
-4.83661e-07
9.04257e-06
-4.83337e-07
8.86895e-06
-4.86376e-07
-4.92023e-07
8.6851e-06
1.13967e-05
-1.99644e-07
1.13752e-05
-2.18317e-07
1.13491e-05
-2.38239e-07
1.13182e-05
-2.59652e-07
1.12824e-05
-2.82683e-07
1.12416e-05
-3.07268e-07
1.11954e-05
-3.33035e-07
1.1144e-05
-3.59329e-07
1.10872e-05
-3.86048e-07
1.10253e-05
-4.10816e-07
1.09583e-05
-4.33197e-07
1.08862e-05
-4.51971e-07
1.08092e-05
-4.65642e-07
1.07269e-05
-4.73149e-07
1.06391e-05
-4.73893e-07
1.05455e-05
-4.68069e-07
1.0446e-05
-4.56614e-07
1.03408e-05
-4.41457e-07
1.02305e-05
-4.24611e-07
1.0116e-05
-4.07743e-07
9.99811e-06
-3.91928e-07
9.87725e-06
-3.77712e-07
9.75364e-06
-3.65369e-07
9.62724e-06
-3.54945e-07
9.4978e-06
-3.46392e-07
9.36486e-06
-3.39549e-07
9.22794e-06
-3.34187e-07
9.08658e-06
-3.30044e-07
8.94026e-06
-3.26897e-07
8.78856e-06
-3.2455e-07
8.63118e-06
-3.22787e-07
8.46794e-06
-3.21378e-07
8.29836e-06
-3.19702e-07
8.12161e-06
-3.16861e-07
7.9373e-06
-3.12573e-07
7.74549e-06
-3.06677e-07
7.54599e-06
-2.98512e-07
7.33803e-06
-2.87472e-07
7.1206e-06
-2.73852e-07
6.89261e-06
-2.58849e-07
6.65333e-06
-2.44383e-07
6.40257e-06
-2.32574e-07
6.13983e-06
-2.23632e-07
-2.16157e-07
5.86396e-06
1.02827e-05
-1.39477e-07
1.02144e-05
-1.49996e-07
1.01374e-05
-1.61298e-07
1.00514e-05
-1.73589e-07
9.95568e-06
-1.86975e-07
9.84981e-06
-2.01405e-07
9.73342e-06
-2.1664e-07
9.60636e-06
-2.32275e-07
9.46813e-06
-2.47809e-07
9.31926e-06
-2.61952e-07
9.16001e-06
-2.73948e-07
8.99122e-06
-2.83178e-07
8.81412e-06
-2.88546e-07
8.63004e-06
-2.89065e-07
8.43766e-06
-2.8151e-07
8.23472e-06
-2.65138e-07
8.02183e-06
-2.4372e-07
7.80179e-06
-2.2142e-07
7.57767e-06
-2.00486e-07
7.35172e-06
-1.81797e-07
7.1253e-06
-1.65504e-07
6.89899e-06
-1.51402e-07
6.67277e-06
-1.39156e-07
6.44624e-06
-1.28411e-07
6.21869e-06
-1.18841e-07
5.98922e-06
-1.10082e-07
5.75701e-06
-1.01979e-07
5.52138e-06
-9.44119e-08
5.28183e-06
-8.73492e-08
5.03814e-06
-8.08517e-08
4.79043e-06
-7.50823e-08
4.53934e-06
-7.02861e-08
4.28661e-06
-6.69776e-08
4.03547e-06
-6.57212e-08
3.78869e-06
-6.5784e-08
3.54785e-06
-6.5845e-08
3.3147e-06
-6.53594e-08
3.08913e-06
-6.18981e-08
2.86806e-06
-5.27861e-08
2.64711e-06
-3.7898e-08
2.42283e-06
-2.01028e-08
2.19522e-06
-4.96028e-09
1.96527e-06
6.31332e-09
1.09016e-08
1.73821e-06
6.04939e-06
5.89939e-06
5.73809e-06
5.5645e-06
5.37753e-06
5.17612e-06
4.95948e-06
4.72721e-06
4.4794e-06
4.21745e-06
3.9435e-06
3.66032e-06
3.37178e-06
3.08271e-06
2.8012e-06
2.53606e-06
2.29234e-06
2.07092e-06
1.87044e-06
1.68864e-06
1.52314e-06
1.37174e-06
1.23258e-06
1.10417e-06
9.85327e-07
8.75245e-07
7.73265e-07
6.78853e-07
5.91504e-07
5.10653e-07
4.3557e-07
3.65284e-07
2.98307e-07
2.32585e-07
1.66801e-07
1.00956e-07
3.5597e-08
-2.63011e-08
-7.90872e-08
-1.16985e-07
-1.37088e-07
-1.42048e-07
-1.35735e-07
-1.24833e-07
6.90778e-06
-1.22162e-06
8.17804e-07
7.30898e-06
-1.81586e-06
1.41466e-06
7.42775e-06
-2.34813e-06
2.22936e-06
7.28893e-06
-2.79663e-06
2.93545e-06
6.98769e-06
-3.07888e-06
3.38012e-06
6.5601e-06
-3.1725e-06
3.60009e-06
6.05617e-06
-3.05981e-06
3.56375e-06
5.49619e-06
-2.75347e-06
3.31345e-06
4.83979e-06
-2.29672e-06
2.95312e-06
4.05758e-06
-1.75885e-06
2.54105e-06
3.26414e-06
-1.21497e-06
2.00841e-06
2.70726e-06
-7.02308e-07
1.25918e-06
2.55791e-06
-1.44875e-07
2.94222e-07
2.78982e-06
5.11539e-07
-7.43452e-07
3.27672e-06
1.25682e-06
-1.74372e-06
3.91531e-06
1.97709e-06
-2.61568e-06
4.6618e-06
2.56875e-06
-3.31525e-06
5.50271e-06
2.966e-06
-3.80691e-06
6.43165e-06
3.11295e-06
-4.04189e-06
7.43198e-06
2.95085e-06
-3.95118e-06
8.47704e-06
2.43216e-06
-3.47723e-06
9.51225e-06
1.57148e-06
-2.60669e-06
1.0429e-05
5.17858e-07
-1.43459e-06
1.113e-05
-5.19742e-07
-1.81251e-07
1.15885e-05
-1.42239e-06
9.63885e-07
1.18249e-05
-2.14987e-06
1.91341e-06
1.18813e-05
-2.69624e-06
2.63992e-06
1.18003e-05
-3.07348e-06
3.15442e-06
1.16174e-05
-3.30363e-06
3.48654e-06
1.13638e-05
-3.4117e-06
3.66528e-06
1.10725e-05
-3.42858e-06
3.7199e-06
1.07709e-05
-3.38594e-06
3.68755e-06
1.04749e-05
-3.30796e-06
3.604e-06
1.01904e-05
-3.21041e-06
3.49485e-06
9.91726e-06
-3.10309e-06
3.37624e-06
9.65293e-06
-2.99263e-06
3.25697e-06
9.39538e-06
-2.88275e-06
3.1403e-06
9.14319e-06
-2.77338e-06
3.02557e-06
8.89234e-06
-2.66257e-06
2.91342e-06
8.63247e-06
-2.55188e-06
2.81175e-06
8.34887e-06
-2.45051e-06
2.73411e-06
8.03372e-06
-2.37129e-06
2.68644e-06
7.70046e-06
-2.31476e-06
2.64803e-06
7.38255e-06
-2.25297e-06
2.57088e-06
7.12e-06
-2.13642e-06
2.39897e-06
6.94407e-06
-1.91643e-06
2.09235e-06
6.86619e-06
-1.56578e-06
1.64367e-06
6.87984e-06
-1.09561e-06
1.08196e-06
6.97501e-06
-5.44028e-07
4.48855e-07
7.13146e-06
4.47943e-08
-2.0124e-07
7.32492e-06
6.22416e-07
-8.15871e-07
7.53979e-06
1.1554e-06
-1.37027e-06
7.76262e-06
1.62746e-06
-1.85029e-06
7.98212e-06
2.03138e-06
-2.25088e-06
8.18996e-06
2.36739e-06
-2.57522e-06
8.38088e-06
2.64136e-06
-2.83227e-06
8.55276e-06
2.86211e-06
-3.034e-06
8.70626e-06
3.03915e-06
-3.19264e-06
8.84395e-06
3.18027e-06
-3.31797e-06
8.96987e-06
3.28941e-06
-3.41533e-06
9.09018e-06
3.36444e-06
-3.48474e-06
9.21385e-06
3.39473e-06
-3.5184e-06
9.34807e-06
3.36163e-06
-3.49586e-06
9.49417e-06
3.24466e-06
-3.39076e-06
9.65122e-06
3.02657e-06
-3.18362e-06
9.81744e-06
2.69838e-06
-2.8646e-06
9.98929e-06
2.26019e-06
-2.43204e-06
1.01615e-05
1.72311e-06
-1.89529e-06
1.03263e-05
1.11222e-06
-1.27706e-06
1.04718e-05
4.7006e-07
-6.15593e-07
1.05891e-05
-1.56631e-07
3.94079e-08
1.06729e-05
-7.37902e-07
6.54052e-07
1.07209e-05
-1.25252e-06
1.20456e-06
1.07329e-05
-1.68773e-06
1.67573e-06
1.07108e-05
-2.03787e-06
2.05993e-06
1.06578e-05
-2.30363e-06
2.35663e-06
1.05767e-05
-2.48883e-06
2.56998e-06
1.04679e-05
-2.59753e-06
2.70633e-06
1.03309e-05
-2.63404e-06
2.77101e-06
1.01697e-05
-2.6106e-06
2.7718e-06
9.98817e-06
-2.54503e-06
2.72657e-06
9.78971e-06
-2.45538e-06
2.65384e-06
9.57813e-06
-2.35804e-06
2.56963e-06
9.35794e-06
-2.26452e-06
2.4847e-06
9.13463e-06
-2.17881e-06
2.40212e-06
8.91425e-06
-2.09642e-06
2.3168e-06
-2.00599e-06
2.21706e-06
9.22781e-06
-1.46172e-06
9.29612e-06
-1.88416e-06
9.20343e-06
-2.25544e-06
8.95611e-06
-2.54931e-06
8.5994e-06
-2.72217e-06
8.1726e-06
-2.7457e-06
7.72517e-06
-2.61238e-06
7.30502e-06
-2.33332e-06
6.94032e-06
-1.93203e-06
6.61922e-06
-1.43775e-06
6.28837e-06
-8.84116e-07
5.91138e-06
-3.25313e-07
5.53763e-06
2.28872e-07
5.33422e-06
7.14947e-07
5.42022e-06
1.17082e-06
5.79906e-06
1.59825e-06
6.41712e-06
1.95069e-06
7.21455e-06
2.16857e-06
8.13877e-06
2.18872e-06
9.13907e-06
1.95055e-06
1.0152e-05
1.41928e-06
1.10721e-05
6.51299e-07
1.1785e-05
-1.95022e-07
1.22475e-05
-9.82261e-07
1.24712e-05
-1.64609e-06
1.2502e-05
-2.18063e-06
1.2391e-05
-2.58526e-06
1.21759e-05
-2.8584e-06
1.1892e-05
-3.01971e-06
1.15729e-05
-3.09257e-06
1.1246e-05
-3.10166e-06
1.0927e-05
-3.06696e-06
1.0622e-05
-3.00298e-06
1.03318e-05
-2.92023e-06
1.00547e-05
-2.82595e-06
9.78741e-06
-2.72535e-06
9.52675e-06
-2.6221e-06
9.271e-06
-2.51763e-06
9.01889e-06
-2.41045e-06
8.76557e-06
-2.29857e-06
8.49973e-06
-2.18467e-06
8.20765e-06
-2.07922e-06
7.88671e-06
-1.99382e-06
7.55779e-06
-1.92405e-06
7.25899e-06
-1.83762e-06
7.02968e-06
-1.68711e-06
6.898e-06
-1.4341e-06
6.86719e-06
-1.0648e-06
6.92636e-06
-6.03197e-07
7.05748e-06
-8.63291e-08
7.23446e-06
4.4544e-07
7.43939e-06
9.50463e-07
7.65858e-06
1.40827e-06
7.88069e-06
1.80927e-06
8.09721e-06
2.15088e-06
8.30269e-06
2.43588e-06
8.49464e-06
2.67016e-06
8.6732e-06
2.86059e-06
8.84078e-06
3.0127e-06
9.00191e-06
3.12827e-06
9.16326e-06
3.20309e-06
9.332e-06
3.226e-06
9.51234e-06
3.18129e-06
9.70506e-06
3.05194e-06
9.90795e-06
2.82368e-06
1.01171e-05
2.48928e-06
1.03269e-05
2.05037e-06
1.053e-05
1.52001e-06
1.07158e-05
9.26358e-07
1.08705e-05
3.15358e-07
1.09867e-05
-2.72802e-07
1.10604e-05
-8.11572e-07
1.10908e-05
-1.28298e-06
1.108e-05
-1.67685e-06
1.10313e-05
-1.98923e-06
1.0949e-05
-2.22129e-06
1.08355e-05
-2.37532e-06
1.06914e-05
-2.45346e-06
1.05197e-05
-2.46235e-06
1.03258e-05
-2.41667e-06
1.01137e-05
-2.33297e-06
9.88722e-06
-2.22891e-06
9.65028e-06
-2.1211e-06
9.40759e-06
-2.02183e-06
9.1643e-06
-1.93551e-06
8.92574e-06
-1.85786e-06
-1.77799e-06
1.05032e-05
-1.5452e-06
1.04504e-05
-1.83135e-06
1.02822e-05
-2.0872e-06
1.00127e-05
-2.27987e-06
9.67036e-06
-2.37981e-06
9.29133e-06
-2.36667e-06
8.91302e-06
-2.23407e-06
8.56844e-06
-1.98874e-06
8.28347e-06
-1.64706e-06
8.07808e-06
-1.23236e-06
7.96534e-06
-7.71373e-07
7.92659e-06
-2.86567e-07
7.95117e-06
2.04289e-07
8.01941e-06
6.46713e-07
8.16906e-06
1.02118e-06
8.4541e-06
1.3132e-06
8.90601e-06
1.49879e-06
9.51998e-06
1.5546e-06
1.02603e-05
1.44838e-06
1.10628e-05
1.14812e-06
1.18206e-05
6.61477e-07
1.24118e-05
6.00349e-08
1.27783e-05
-5.61526e-07
1.2939e-05
-1.14288e-06
1.29421e-05
-1.64923e-06
1.28227e-05
-2.06124e-06
1.26004e-05
-2.36298e-06
1.23121e-05
-2.57011e-06
1.19913e-05
-2.69892e-06
1.16625e-05
-2.76375e-06
1.13397e-05
-2.77885e-06
1.1029e-05
-2.7563e-06
1.07322e-05
-2.70616e-06
1.04485e-05
-2.63651e-06
1.0176e-05
-2.55344e-06
9.91208e-06
-2.46143e-06
9.65386e-06
-2.36388e-06
9.39918e-06
-2.26296e-06
9.14755e-06
-2.15882e-06
8.89851e-06
-2.04952e-06
8.64718e-06
-1.93334e-06
8.38176e-06
-1.8138e-06
8.08985e-06
-1.7019e-06
7.7735e-06
-1.6077e-06
7.45935e-06
-1.52348e-06
7.18885e-06
-1.41661e-06
6.99958e-06
-1.24483e-06
6.91294e-06
-9.78164e-07
6.92498e-06
-6.15236e-07
7.01984e-06
-1.81191e-07
7.17561e-06
2.89672e-07
7.36715e-06
7.58924e-07
7.57914e-06
1.19628e-06
7.8003e-06
1.5881e-06
8.02205e-06
1.92913e-06
8.23881e-06
2.21911e-06
8.4479e-06
2.46107e-06
8.64929e-06
2.6592e-06
8.84539e-06
2.8166e-06
9.04077e-06
2.93289e-06
9.2414e-06
3.00245e-06
9.45257e-06
3.01483e-06
9.67672e-06
2.95714e-06
9.91324e-06
2.81542e-06
1.01584e-05
2.57848e-06
1.04065e-05
2.24116e-06
1.06502e-05
1.80669e-06
1.08797e-05
1.29052e-06
1.10813e-05
7.24792e-07
1.12412e-05
1.55477e-07
1.13529e-05
-3.84578e-07
1.14142e-05
-8.72843e-07
1.14261e-05
-1.29489e-06
1.13924e-05
-1.64308e-06
1.13177e-05
-1.91458e-06
1.12063e-05
-2.10988e-06
1.10601e-05
-2.22917e-06
1.08819e-05
-2.27522e-06
1.06779e-05
-2.25838e-06
1.04537e-05
-2.19247e-06
1.02139e-05
-2.0931e-06
9.96243e-06
-1.97747e-06
9.70371e-06
-1.86238e-06
9.44217e-06
-1.76029e-06
9.18228e-06
-1.67562e-06
8.92901e-06
-1.60458e-06
-1.53678e-06
1.10815e-05
-1.51065e-06
1.09629e-05
-1.71268e-06
1.07699e-05
-1.89426e-06
1.05116e-05
-2.02151e-06
1.02075e-05
-2.07575e-06
9.88655e-06
-2.0457e-06
9.57956e-06
-1.92708e-06
9.31428e-06
-1.72346e-06
9.1131e-06
-1.44588e-06
8.99128e-06
-1.11054e-06
8.95638e-06
-7.36477e-07
9.01399e-06
-3.44174e-07
9.17267e-06
4.56083e-08
9.41573e-06
4.03657e-07
9.73401e-06
7.0289e-07
1.01256e-05
9.21642e-07
1.05866e-05
1.03775e-06
1.11084e-05
1.0328e-06
1.1667e-05
8.89792e-07
1.2212e-05
6.03118e-07
1.26685e-05
2.04989e-07
1.29727e-05
-2.4419e-07
1.31162e-05
-7.05012e-07
1.31268e-05
-1.15352e-06
1.30243e-05
-1.5467e-06
1.28265e-05
-1.86345e-06
1.25699e-05
-2.10637e-06
1.22823e-05
-2.2825e-06
1.19822e-05
-2.39886e-06
1.16815e-05
-2.46303e-06
1.13862e-05
-2.4835e-06
1.10988e-05
-2.46897e-06
1.08202e-05