/*--------------------------------*- C++ -*----------------------------------*\
| =========                 |                                                 |
| \\      /  F ield         | OpenFOAM: The Open Source CFD Toolbox           |
|  \\    /   O peration     | Version:  2206                                  |
|   \\  /    A nd           | Website:  www.openfoam.com                      |
|    \\/     M anipulation  |                                                 |
\*---------------------------------------------------------------------------*/
FoamFile
{
    version     2.0;
    format      ascii;
    arch        "LSB;label=32;scalar=64";
    class       surfaceScalarField;
    location    "19.5999";
    object      ddtCorrDdt0(phi);
}
// * * * * * * * * * * * * * * * * * * * * * * * * * * * * * * * * * * * * * //

dimensions      [0 3 -2 0 0 0 0];

oriented        oriented;

internalField   nonuniform List<scalar> 
9487
(
-8.58716e-07
-0.00019029
0.000189443
-2.94922e-07
-0.000149923
0.000149359
1.28061e-07
-0.00010971
0.000109287
1.46241e-06
-7.17667e-05
7.04323e-05
4.47784e-06
-3.76101e-05
3.45946e-05
6.70824e-06
-3.54312e-06
1.3127e-06
8.92622e-06
5.55829e-05
-5.78009e-05
9.45585e-06
0.00010108
-0.00010161
9.18196e-06
0.000145079
-0.000144805
8.3039e-06
0.000188315
-0.000187437
6.88326e-06
0.00023062
-0.000229199
4.95506e-06
0.000271591
-0.000269663
2.56322e-06
0.000310598
-0.000308206
-2.38807e-07
0.0003469
-0.000344098
-3.39158e-06
0.000379684
-0.000376531
-6.82813e-06
0.000408096
-0.000404659
-1.04618e-05
0.000431241
-0.000427608
-1.4137e-05
0.000448124
-0.000444449
-1.75025e-05
0.000457454
-0.000454089
-2.02338e-05
0.000456976
-0.000454245
-2.22595e-05
0.000449778
-0.000447752
-2.34201e-05
0.000436038
-0.000434878
-2.36012e-05
0.000416155
-0.000415974
-2.27402e-05
0.000390727
-0.000391588
-2.08614e-05
0.000360461
-0.00036234
-1.8042e-05
0.000326263
-0.000329083
-1.44054e-05
0.0002891
-0.000292736
-1.01046e-05
0.000249903
-0.000254204
-5.34416e-06
0.000209554
-0.000214314
-3.90826e-07
0.000168855
-0.000173808
4.47366e-06
0.000128799
-0.000133663
8.96046e-06
9.03074e-05
-9.47942e-05
1.29861e-05
5.45085e-05
-5.85341e-05
1.75411e-05
2.22941e-05
-2.68491e-05
2.91936e-05
-1.5319e-05
3.66654e-06
3.286e-05
-5.72422e-05
5.35758e-05
3.59442e-05
-9.1904e-05
8.88198e-05
3.78199e-05
-0.000122899
0.000121024
3.82157e-05
-0.000150965
0.000150569
3.69717e-05
-0.000176381
0.000177625
3.40262e-05
-0.000199378
0.000202324
2.94248e-05
-0.000220106
0.000224707
2.32945e-05
-0.000238601
0.000244731
1.58279e-05
-0.000254798
0.000262265
7.26158e-06
-0.000268549
0.000277115
-2.14321e-06
-0.000279653
0.000289058
-1.21114e-05
-0.000287859
0.000297827
-2.23647e-05
-0.000292786
0.000303039
-3.26036e-05
-0.000293611
0.00030385
-4.25228e-05
-0.000290956
0.000300875
-5.19591e-05
-0.000285226
0.000294662
-6.07694e-05
-0.000276383
0.000285193
-6.88504e-05
-0.00026451
0.000272591
-7.61281e-05
-0.00024977
0.000257047
-8.25573e-05
-0.000232373
0.000238803
-8.81292e-05
-0.000212577
0.000218149
-9.28629e-05
-0.000190677
0.000195411
-9.68011e-05
-0.000166998
0.000170936
-0.000100009
-0.000141834
0.000145042
-0.000102593
-0.0001154
0.000117985
-0.000104731
-8.77603e-05
8.9898e-05
-0.000106641
-5.85309e-05
6.04404e-05
-0.000108275
-2.66331e-05
2.82678e-05
-0.000109089
7.64126e-06
-6.82792e-06
-0.000108922
4.24931e-05
-4.26594e-05
-0.000107731
7.74561e-05
-7.86471e-05
-0.000105453
0.0001119
-0.000114179
-0.000102033
0.0001452
-0.00014862
-9.74248e-05
0.000176765
-0.000181373
-9.16003e-05
0.000205999
-0.000211824
-8.45525e-05
0.000232316
-0.000239364
-7.62927e-05
0.000255138
-0.000263398
-6.6845e-05
0.000273868
-0.000283316
-5.61796e-05
0.000287752
-0.000298418
-4.40179e-05
0.000295472
-0.000307634
-3.07714e-05
0.000295986
-0.000309233
-1.68872e-05
0.000291682
-0.000305566
-2.55936e-06
0.000283003
-0.000297331
1.19918e-05
0.000270512
-0.000285063
2.65342e-05
0.000254807
-0.000269349
4.08534e-05
0.000236506
-0.000250826
5.47655e-05
0.00021622
-0.000230132
6.81099e-05
0.000194506
-0.000207851
8.07649e-05
0.000171817
-0.000184472
9.26671e-05
0.000148465
-0.000160367
0.000103817
0.00012461
-0.000135759
0.000114259
0.000100278
-0.00011072
0.000123987
7.54422e-05
-8.5171e-05
0.000132738
5.03176e-05
-5.90687e-05
0.000140113
2.53818e-05
-3.2756e-05
0.000145986
8.89023e-07
-6.76215e-06
0.00015037
-2.33888e-05
1.90048e-05
0.000153212
-4.75255e-05
4.4683e-05
0.000154501
-7.15812e-05
7.02931e-05
0.000154253
-9.55907e-05
9.58385e-05
0.000152512
-0.000119508
0.000121249
0.000149349
-0.000143196
0.000146359
0.000144858
-0.00016642
0.000170911
0.000139148
-0.000188863
0.000194573
0.000132333
-0.000210138
0.000216954
0.000124512
-0.000229818
0.000237639
0.000115771
-0.000247459
0.0002562
0.000106212
-0.000262633
0.000272192
9.59432e-05
-0.000274938
0.000285207
8.50673e-05
-0.000283923
0.000294799
7.36848e-05
-0.000288769
0.000300151
6.22713e-05
-0.000289776
0.00030119
5.10036e-05
-0.000287596
0.000298864
4.00544e-05
-0.000282196
0.000293146
2.96359e-05
-0.000273664
0.000284083
1.99201e-05
-0.000262134
0.00027185
1.08437e-05
-0.000247655
0.000256731
3.13578e-06
-0.000231305
0.000239013
-4.07645e-06
-0.000212524
0.000219736
-1.13604e-05
-0.000191269
0.000198553
-1.75776e-05
-0.000168868
0.000175085
-2.30031e-05
-0.000145342
0.000150768
-2.75934e-05
-0.000121149
0.00012574
-3.12725e-05
-9.65285e-05
0.000100208
-3.43685e-05
-7.1806e-05
7.4902e-05
-3.80502e-05
-4.65926e-05
5.02744e-05
-4.37939e-05
-1.83745e-05
2.41182e-05
-4.90781e-05
1.23889e-05
-7.10468e-06
-5.33574e-05
4.33852e-05
-3.91059e-05
-5.71353e-05
7.38506e-05
-7.00727e-05
-6.07207e-05
0.000103187
-9.96013e-05
-6.41721e-05
0.000131258
-0.000127807
-6.75316e-05
0.000157852
-0.000154492
-7.07944e-05
0.000182734
-0.000179471
-7.38808e-05
0.000205548
-0.000202462
-7.67492e-05
0.000226173
-0.000223305
-7.92965e-05
0.000243896
-0.000241349
-8.16688e-05
0.000258904
-0.000256532
-8.32933e-05
0.000271238
-0.000269614
-8.4349e-05
0.000276173
-0.000275117
-8.49593e-05
0.000277806
-0.000277196
-8.50868e-05
0.000278357
-0.00027823
0.000263787
-0.000264606
-2.10156e-05
-0.000188788
-2.15783e-05
-0.00014936
-2.04097e-05
-0.000110879
-1.76923e-05
-7.4484e-05
-1.55096e-05
-3.97928e-05
-2.08574e-05
1.80461e-06
-1.8276e-05
5.30015e-05
-1.73475e-05
0.000100152
-1.7384e-05
0.000145115
-1.80306e-05
0.000188962
-1.90867e-05
0.000231676
-2.04178e-05
0.000272922
-2.1947e-05
0.000312127
-2.36165e-05
0.00034857
-2.53748e-05
0.000381442
-2.71727e-05
0.000409893
-2.89534e-05
0.000433022
-3.05838e-05
0.000449755
-3.16118e-05
0.000458482
-3.19362e-05
0.000457301
-3.14554e-05
0.000449297
-3.00686e-05
0.000434652
-2.77037e-05
0.00041379
-2.43405e-05
0.000387363
-2.00535e-05
0.000356174
-1.49712e-05
0.000321181
-9.25006e-06
0.000283378
-3.0703e-06
0.000243723
3.29945e-06
0.000203184
9.52892e-06
0.000162625
1.54104e-05
0.000122917
2.06555e-05
8.50623e-05
2.5194e-05
4.997e-05
3.2877e-05
1.4611e-05
4.27736e-05
-2.52156e-05
4.81335e-05
-6.26021e-05
5.22192e-05
-9.59897e-05
5.48362e-05
-0.000125516
5.57658e-05
-0.000151895
5.48957e-05
-0.000175511
5.21686e-05
-0.000196651
4.76047e-05
-0.000215542
4.13091e-05
-0.000232305
3.34642e-05
-0.000246953
2.43107e-05
-0.000259395
1.41182e-05
-0.00026946
3.16665e-06
-0.000276908
-8.26064e-06
-0.000281359
-1.98595e-05
-0.000282013
-3.12188e-05
-0.000279597
-4.21808e-05
-0.000274264
-5.25871e-05
-0.000265977
-6.23121e-05
-0.000254785
-7.12637e-05
-0.000240818
-7.93713e-05
-0.000224266
-8.65898e-05
-0.000205358
-9.29094e-05
-0.000184358
-9.83538e-05
-0.000161553
-0.00010297
-0.000137218
-0.000106842
-0.000111528
-0.000110123
-8.4479e-05
-0.000113
-5.56536e-05
-0.000115308
-2.43258e-05
-0.000116537
8.87021e-06
-0.000116604
4.25608e-05
-0.000115433
7.62847e-05
-0.000112956
0.000109424
-0.00010913
0.000141373
-0.000103925
0.00017156
-9.73319e-05
0.000199407
-8.93699e-05
0.000224354
-8.00778e-05
0.000245846
-6.949e-05
0.00026328
-5.75728e-05
0.000275835
-4.40313e-05
0.000281931
-2.96321e-05
0.000281587
-1.46353e-05
0.000276685
7.24506e-07
0.000267643
1.622e-05
0.000255016
3.16113e-05
0.000239415
4.66572e-05
0.000221461
6.11529e-05
0.000201724
7.49628e-05
0.000180696
8.80114e-05
0.000158769
0.00010027
0.000136206
0.000111766
0.000113114
0.000122523
8.95204e-05
0.000132416
6.5549e-05
0.00014111
4.16238e-05
0.000148293
1.81987e-05
0.000154028
-4.84527e-06
0.000158251
-2.76125e-05
0.000160909
-5.01827e-05
0.000161976
-7.26488e-05
0.000161447
-9.50615e-05
0.000159338
-0.000117399
0.000155695
-0.000139554
0.000150598
-0.000161323
0.000144153
-0.000182417
0.000136487
-0.000202472
0.000127742
-0.000221073
0.000118068
-0.000237785
0.000107614
-0.000252179
9.65164e-05
-0.000263841
8.49025e-05
-0.000272309
7.28634e-05
-0.000276729
6.08048e-05
-0.000277718
4.88621e-05
-0.000275653
3.7214e-05
-0.000270548
2.59983e-05
-0.000262448
1.54203e-05
-0.000251556
6.07737e-06
-0.000238312
-3.04451e-06
-0.000222183
-1.21006e-05
-0.000203468
-2.01552e-05
-0.000183214
-2.73434e-05
-0.00016168
-3.36249e-05
-0.000139061
-3.91032e-05
-0.000115671
-4.38972e-05
-9.17344e-05
-4.85016e-05
-6.72016e-05
-5.406e-05
-4.10342e-05
-6.05244e-05
-1.19101e-05
-6.61662e-05
1.80307e-05
-7.10216e-05
4.82407e-05
-7.52444e-05
7.80734e-05
-7.90453e-05
0.000106988
-8.25145e-05
0.000134727
-8.56746e-05
0.000161012
-8.85147e-05
0.000185574
-9.09863e-05
0.00020802
-9.30899e-05
0.000228277
-9.47253e-05
0.000245532
-9.60849e-05
0.000260264
-9.64459e-05
0.000271599
-9.61717e-05
0.000275899
-9.53888e-05
0.000277023
-9.40465e-05
0.000277015
0.000261488
-4.07841e-05
-0.000186553
-4.15716e-05
-0.000148573
-4.09763e-05
-0.000111474
-3.9927e-05
-7.55333e-05
-4.11691e-05
-3.85507e-05
-4.51165e-05
5.75197e-06
-4.52643e-05
5.31493e-05
-4.50297e-05
9.99171e-05
-4.51609e-05
0.000145246
-4.55934e-05
0.000189394
-4.62016e-05
0.000232284
-4.68466e-05
0.000273567
-4.74223e-05
0.000312703
-4.78579e-05
0.000349005
-4.81103e-05
0.000381694
-4.8147e-05
0.00040993
-4.79285e-05
0.000432804
-4.73343e-05
0.00044916
-4.5827e-05
0.000456975
-4.35323e-05
0.000455006
-4.03524e-05
0.000446117
-3.62249e-05
0.000430524
-3.11333e-05
0.000408699
-2.5121e-05
0.000381351
-1.83075e-05
0.00034936
-1.08571e-05
0.000313731
-2.99622e-06
0.000275517
5.01143e-06
0.000235716
1.29147e-05
0.000195281
2.04224e-05
0.000155118
2.7208e-05
0.000116131
3.31757e-05
7.90946e-05
3.95918e-05
4.35539e-05
4.93632e-05
4.83958e-06
5.78228e-05
-3.36752e-05
6.4172e-05
-6.89513e-05
6.88353e-05
-0.000100653
7.19149e-05
-0.000128596
7.32546e-05
-0.000153235
7.27042e-05
-0.000174961
7.01687e-05
-0.000194116
6.56319e-05
-0.000211005
5.91718e-05
-0.000225845
5.09571e-05
-0.000238739
4.12303e-05
-0.000249668
3.02717e-05
-0.000258502
1.83716e-05
-0.000265007
5.75179e-06
-0.000268739
-7.10034e-06
-0.00026916
-1.98115e-05
-0.000266885
-3.22073e-05
-0.000261868
-4.41168e-05
-0.000254067
-5.53906e-05
-0.000243512
-6.59104e-05
-0.000230298
-7.55864e-05
-0.00021459
-8.43491e-05
-0.000196596
-9.21544e-05
-0.000176552
-9.89984e-05
-0.000154709
-0.000104921
-0.000131296
-0.000109993
-0.000106456
-0.00011434
-8.01325e-05
-0.000118087
-5.19066e-05
-0.000121013
-2.14001e-05
-0.000122635
1.04927e-05
-0.000122883
4.28089e-05
-0.000121698
7.50989e-05
-0.000119018
0.000106744
-0.00011481
0.000137165
-0.000109059
0.000165808
-0.000101772
0.00019212
-9.29832e-05
0.000215565
-8.27445e-05
0.000235607
-7.11035e-05
0.000251639
-5.80195e-05
0.000262751
-4.32996e-05
0.000267211
-2.78563e-05
0.000266144
-1.19039e-05
0.000260733
4.30706e-06
0.000251432
2.05346e-05
0.000238789
3.65414e-05
0.000223408
5.2109e-05
0.000205893
6.70469e-05
0.000186786
8.12096e-05
0.000166533
9.45351e-05
0.000145443
0.000107041
0.0001237
0.000118768
0.000101387
0.00012968
7.8609e-05
0.000139493
5.57355e-05
0.000147908
3.32093e-05
0.000154896
1.12102e-05
0.000160428
-1.03766e-05
0.000164437
-3.16223e-05
0.000166884
-5.26287e-05
0.000167733
-7.34987e-05
0.000166966
-9.42938e-05
0.00016458
-0.000115013
0.000160602
-0.000135575
0.00015509
-0.000155811
0.000148135
-0.000175462
0.000139857
-0.000194195
0.000130404
-0.00021162
0.000119944
-0.000227325
0.000108651
-0.000240886
9.6695e-05
-0.000251885
8.42194e-05
-0.000259833
7.14175e-05
-0.000263927
5.86626e-05
-0.000264963
4.60592e-05
-0.00026305
3.37141e-05
-0.000258203
2.17387e-05
-0.000250473
1.0195e-05
-0.000240013
-1.10283e-06
-0.000227014
-1.17455e-05
-0.00021154
-2.13488e-05
-0.000193864
-3.00858e-05
-0.000174477
-3.80151e-05
-0.000153751
-4.51388e-05
-0.000131937
-5.15574e-05
-0.000109253
-5.75493e-05
-8.57426e-05
-6.37695e-05
-6.09813e-05
-7.07282e-05
-3.40755e-05
-7.74148e-05
-5.22346e-06
-8.34165e-05
2.40323e-05
-8.86708e-05
5.3495e-05
-9.32062e-05
8.26088e-05
-9.71389e-05
0.00011092
-0.000100529
0.000138117
-0.000103391
0.000163874
-0.000105729
0.000187912
-0.000107508
0.000209799
-0.000108779
0.000229548
-0.000109432
0.000246185
-0.000109702
0.000260534
-0.000108689
0.000270586
-0.000106986
0.000274196
-0.000104713
0.00027475
-0.000101814
0.000274116
0.000257624
-6.02638e-05
-0.000183484
-6.19977e-05
-0.000146839
-6.28907e-05
-0.000110581
-6.41113e-05
-7.43127e-05
-6.73652e-05
-3.52968e-05
-7.06278e-05
9.01452e-06
-7.2242e-05
5.47636e-05
-7.29716e-05
0.000100647
-7.34488e-05
0.000145724
-7.38004e-05
0.000189746
-7.39873e-05
0.000232471
-7.39094e-05
0.000273489
-7.3464e-05
0.000312257
-7.25772e-05
0.000348118
-7.12165e-05
0.000380334
-6.93782e-05
0.000408092
-6.70395e-05
0.000430465
-6.40532e-05
0.000446174
-5.98367e-05
0.000452758
-5.47461e-05
0.000449916
-4.87105e-05
0.000440081
-4.17051e-05
0.000423519
-3.37604e-05
0.000400754
-2.49758e-05
0.000372567
-1.55376e-05
0.000339922
-5.68802e-06
0.000303881
4.2998e-06
0.00026553
1.41243e-05
0.000225891
2.34796e-05
0.000185925
3.20884e-05
0.000146509
3.98603e-05
0.00010836
4.71801e-05
7.17748e-05
5.5896e-05
3.48379e-05
6.57298e-05
-4.99428e-06
7.40016e-05
-4.1947e-05
8.06774e-05
-7.56271e-05
8.57229e-05
-0.000105699
8.91386e-05
-0.000132012
9.077e-05
-0.000154866
9.04372e-05
-0.000174628
8.8009e-05
-0.000191688
8.34328e-05
-0.000206429
7.6758e-05
-0.00021917
6.81366e-05
-0.000230117
5.78114e-05
-0.000239343
4.60666e-05
-0.000246757
3.31877e-05
-0.000252129
1.93994e-05
-0.00025495
5.39644e-06
-0.000255158
-8.56437e-06
-0.000252925
-2.22832e-05
-0.000248149
-3.55778e-05
-0.000240773
-4.82799e-05
-0.000230809
-6.02442e-05
-0.000218334
-7.13531e-05
-0.000203481
-8.15192e-05
-0.00018643
-9.06811e-05
-0.000167391
-9.88063e-05
-0.000146584
-0.000105912
-0.000124191
-0.00011207
-0.000100297
-0.000117398
-7.48045e-05
-0.000121941
-4.73633e-05
-0.000125387
-1.79547e-05
-0.000127329
1.24348e-05
-0.000127732
4.32118e-05
-0.000126531
7.38984e-05
-0.000123671
0.000103884
-0.000119118
0.000132612
-0.000112857
0.000159548
-0.000104913
0.000184176
-9.53578e-05
0.000206009
-8.42844e-05
0.000224534
-7.17355e-05
0.00023909
-5.75502e-05
0.000248566
-4.18868e-05
0.000251547
-2.55625e-05
0.00024982
-8.81061e-06
0.000243981
8.09728e-06
0.000234524
2.48955e-05
0.000221991
4.13399e-05
0.000206964
5.72239e-05
0.000190009
7.23928e-05
0.000171618
8.67499e-05
0.000152176
0.000100246
0.000131947
0.000112892
0.000111054
0.000124697
8.95813e-05
0.000135513
6.7793e-05
0.000145071
4.61776e-05
0.000153188
2.50928e-05
0.000159899
4.49887e-06
0.000165156
-1.56332e-05
0.000168906
-3.53731e-05
0.00017111
-5.48321e-05
0.000171725
-7.41144e-05
0.000170723
-9.32915e-05
0.00016809
-0.00011238
0.000163837
-0.000131323
0.000158007
-0.000149981
0.000150675
-0.00016813
0.000141949
-0.000185469
0.000131968
-0.000201639
0.000120895
-0.000216252
0.000108908
-0.000228899
9.61833e-05
-0.00023916
8.28038e-05
-0.000246454
6.9156e-05
-0.00025028
5.55197e-05
-0.000251327
4.20031e-05
-0.000249533
2.87053e-05
-0.000244905
1.5736e-05
-0.000237504
3.18974e-06
-0.000227467
-8.8611e-06
-0.000214963
-2.02272e-05
-0.000200174
-3.07339e-05
-0.000183358
-4.03627e-05
-0.000164849
-4.916e-05
-0.000144953
-5.71996e-05
-0.000123898
-6.46641e-05
-0.000101788
-7.19475e-05
-7.84592e-05
-7.95737e-05
-5.33551e-05
-8.73945e-05
-2.62547e-05
-9.44035e-05
1.78554e-06
-0.000100692
3.03208e-05
-0.000106185
5.89878e-05
-0.000110867
8.72913e-05
-0.000114791
0.000114844
-0.000117985
0.000141311
-0.000120458
0.000166347
-0.000122214
0.000189668
-0.000123233
0.000210818
-0.000123608
0.000229923
-0.000123202
0.000245779
-0.000122265
0.000259597
-0.00011977
0.000268091
-0.000116584
0.00027101
-0.000112752
0.000270919
-0.000108209
0.000269572
0.000252107
-7.99259e-05
-0.000179216
-8.30867e-05
-0.000143678
-8.57379e-05
-0.00010793
-8.89757e-05
-7.10749e-05
-9.33762e-05
-3.08962e-05
-9.70209e-05
1.26591e-05
-9.94991e-05
5.72418e-05
-0.000100999
0.000102146
-0.000101841
0.000146566
-0.000102155
0.00019006
-0.000101934
0.00023225
-0.000101105
0.00027266
-9.95824e-05
0.000310735
-9.7307e-05
0.000345843
-9.42578e-05
0.000377284
-9.04563e-05
0.00040429
-8.59058e-05
0.000425914
-8.04154e-05
0.000440684
-7.33456e-05
0.000445689
-6.53499e-05
0.00044192
-5.63584e-05
0.00043109
-4.63731e-05
0.000413533
-3.54794e-05
0.00038986
-2.38564e-05
0.000360944
-1.17586e-05
0.000327824
4.98623e-07
0.000291624
1.25709e-05
0.000253457
2.41108e-05
0.000214351
3.48284e-05
0.000175208
4.45587e-05
0.000136778
5.34073e-05
9.95109e-05
6.23546e-05
6.28276e-05
7.29529e-05
2.42396e-05
8.25856e-05
-1.4627e-05
9.08468e-05
-5.02082e-05
9.76586e-05
-8.24388e-05
0.000102895
-0.000110934
0.000106484
-0.000135601
0.000108261
-0.000156643
0.000108023
-0.00017439
0.000105601
-0.000189265
0.000100896
-0.000201724
9.39216e-05
-0.000212196
8.48079e-05
-0.000221004
7.38273e-05
-0.000228362
6.11972e-05
-0.000234127
4.72406e-05
-0.000238172
3.24561e-05
-0.000240166
1.73984e-05
-0.0002401
2.29659e-06
-0.000237823
-1.26335e-05
-0.000233219
-2.71869e-05
-0.000226219
-4.11756e-05
-0.000216821
-5.44351e-05
-0.000205075
-6.68254e-05
-0.000191091
-7.8235e-05
-0.00017502
-8.85871e-05
-0.000157038
-9.78446e-05
-0.000137327
-0.000106016
-0.000116019
-0.00011316
-9.31534e-05
-0.000119367
-6.85967e-05
-0.0001246
-4.21303e-05
-0.000128477
-1.4078e-05
-0.000130698
1.46557e-05
-0.000131233
4.37463e-05
-0.00012999
7.26562e-05
-0.000126909
0.000100803
-0.000121974
0.000127676
-0.00011521
0.000152785
-0.000106694
0.00017566
-9.6523e-05
0.000195838
-8.47797e-05
0.000212791
-7.14536e-05
0.000225764
-5.62606e-05
0.000233373
-3.98918e-05
0.000235179
-2.28691e-05
0.000232797
-5.49301e-06
0.000226605
1.19418e-05
0.00021709
2.91505e-05
0.000204782
4.58816e-05
0.000190233
6.1935e-05
0.000173956
7.71758e-05
0.000156377
9.15457e-05
0.000137806
0.000105053
0.00011844
0.000117711
9.83962e-05
0.000129434
7.78582e-05
0.000139986
5.72408e-05
0.00014913
3.70333e-05
0.000156903
1.73205e-05
0.000163277
-1.87584e-06
0.000168212
-2.05677e-05
0.000171669
-3.88305e-05
0.000173605
-5.67678e-05
0.000173973
-7.44826e-05
0.000172736
-9.20545e-05
0.000169871
-0.000109514
0.000165376
-0.000126827
0.000159278
-0.000143884
0.000151639
-0.00016049
0.000142551
-0.000176381
0.00013214
-0.000191228
0.000120558
-0.000204669
0.000107974
-0.000216316
9.45499e-05
-0.000225736
8.03576e-05
-0.000232262
6.59431e-05
-0.000235865
5.1474e-05
-0.000236857
3.70924e-05
-0.000235152
2.29256e-05
-0.000230738
9.10289e-06
-0.000223681
-4.26234e-06
-0.000214101
-1.70634e-05
-0.000202162
-2.9175e-05
-0.000188062
-4.04902e-05
-0.000172042
-5.09727e-05
-0.000154366
-6.06598e-05
-0.000135266
-6.96777e-05
-0.00011488
-7.83006e-05
-9.31652e-05
-8.69267e-05
-6.98331e-05
-9.56117e-05
-4.46701e-05
-0.000103775
-1.80915e-05
-0.000111126
9.13693e-06
-0.000117654
3.68491e-05
-0.000123274
6.46076e-05
-0.000127974
9.19908e-05
-0.000131765
0.000118636
-0.000134652
0.000144198
-0.000136638
0.000168333
-0.000137727
0.000190757
-0.000137932
0.000211023
-0.000137337
0.000229328
-0.000135817
0.00024426
-0.000133511
0.000257291
-0.00012953
0.00026411
-0.00012487
0.00026635
-0.000119426
0.000265475
-0.000113159
0.000263304
0.000244843
-9.97386e-05
-0.000173561
-0.000104492
-0.000138924
-0.000108972
-0.00010345
-0.00011398
-6.60675e-05
-0.000119315
-2.55605e-05
-0.000123599
1.69429e-05
-0.000126741
6.03833e-05
-0.000128806
0.000104212
-0.000129925
0.000147685
-0.000130165
0.0001903
-0.000129507
0.000231592
-0.000127886
0.000271039
-0.000125232
0.000308081
-0.000121505
0.000342116
-0.000116717
0.000372497
-0.000110915
0.000398488
-0.000104078
0.000419077
-9.59047e-05
0.00043251
-8.58886e-05
0.000435673
-7.48596e-05
0.000430891
-6.27734e-05
0.000419003
-4.97129e-05
0.000400473
-3.58521e-05
0.000376
-2.14516e-05
0.000346543
-6.83531e-06
0.000313208
7.63493e-06
0.000277154
2.15818e-05
0.000239511
3.46626e-05
0.00020127
4.66337e-05
0.000163237
5.74669e-05
0.000125945
6.76225e-05
8.93552e-05
7.84697e-05
5.19804e-05
8.99269e-05
1.27824e-05
9.96317e-05
-2.43317e-05
0.000107931
-5.85075e-05
0.000114767
-8.92745e-05
0.000120038
-0.000116206
0.000123651
-0.000139215
0.000125433
-0.000158424
0.000125166
-0.000174123
0.000122642
-0.000186741
0.000117708
-0.000196791
0.000110365
-0.000204852
0.000100633
-0.000211272
8.88068e-05
-0.000216536
7.52527e-05
-0.000220573
6.04087e-05
-0.000223328
4.48067e-05
-0.000224564
2.87793e-05
-0.000224072
1.26152e-05
-0.000221659
-3.43117e-06
-0.000217173
-1.91246e-05
-0.000210526
-3.42579e-05
-0.000201687
-4.86506e-05
-0.000190682
-6.21513e-05
-0.00017759
-7.4639e-05
-0.000162532
-8.6027e-05
-0.00014565
-9.62747e-05
-0.000127079
-0.000105388
-0.000106906
-0.000113427
-8.5114e-05
-0.000120442
-6.1582e-05
-0.000126213
-3.63589e-05
-0.000130347
-9.94415e-06
-0.000132736
1.7045e-05
-0.000133287
4.42971e-05
-0.000131913
7.12817e-05
-0.000128591
9.74808e-05
-0.000123337
0.000122422
-0.0001162
0.000145647
-0.000107262
0.000166722
-9.66177e-05
0.000185194
-8.43166e-05
0.000200489
-7.02904e-05
0.000211738
-5.4313e-05
0.000217395
-3.73907e-05
0.000218256
-1.98525e-05
0.000215259
-2.03863e-06
0.000208791
1.57344e-05
0.000199317
3.31712e-05
0.000187345
5.00228e-05
0.000173381
6.61048e-05
0.000157874
8.13062e-05
0.000141175
9.55895e-05
0.000123523
0.000108976
0.000105054
0.00012146
8.5912e-05
0.000132857
6.64609e-05
0.000142928
4.717e-05
0.000151653
2.8308e-05
0.000159025
9.94835e-06
0.000165015
-7.86517e-06
0.000169597
-2.51505e-05
0.00017274
-4.19732e-05
0.000174396
-5.84237e-05
0.000174513
-7.45995e-05
0.000173044
-9.05852e-05
0.000169957
-0.000106427
0.000165243
-0.000122113
0.000158918
-0.000137558
0.000151027
-0.0001526
0.000141649
-0.000167003
0.00013089
-0.00018047
0.000118888
-0.000192667
0.000105794
-0.000203222
9.17013e-05
-0.000211643
7.68737e-05
-0.000217434
6.17986e-05
-0.00022079
4.66231e-05
-0.000221682
3.15021e-05
-0.000220031
1.6582e-05
-0.000215818
2.00206e-06
-0.000209101
-1.21098e-05
-0.000199989
-2.56371e-05
-0.000188635
-3.84767e-05
-0.000175223
-5.05542e-05
-0.000159965
-6.18509e-05
-0.000143069
-7.24314e-05
-0.000124686
-8.24776e-05
-0.000104833
-9.2287e-05
-8.33558e-05
-0.00010202
-6.01004e-05
-0.00011135
-3.534e-05
-0.00011978
-9.66128e-06
-0.000127376
1.67325e-05
-0.000134029
4.35029e-05
-0.000139665
7.02435e-05
-0.000144259
9.6585e-05
-0.000147797
0.000122173
-0.000150267
0.000146668
-0.000151671
0.000169737
-0.000152014
0.0001911
-0.000151342
0.000210351
-0.000149711
0.000227696
-0.000147011
0.00024156
-0.000143306
0.000253585
-0.000137791
0.000258595
-0.000131581
0.00026014
-0.000124441
0.000258335
-0.000116348
0.000255211
0.000235735
-0.000119566
-0.000166395
-0.00012599
-0.0001325
-0.000132257
-9.71835e-05
-0.000138765
-5.95595e-05
-0.000144856
-1.94691e-05
-0.000149753
2.18391e-05
-0.000153466
6.40965e-05
-0.000155948
0.000106694
-0.000157223
0.000148959
-0.000157296
0.000190373
-0.000156125
0.000230421
-0.000153651
0.000268565
-0.00014982
0.00030425
-0.000144623
0.000336919
-0.000138088
0.000365962
-0.000130256
0.000390656
-0.00012106
0.000409881
-0.000109877
0.000421327
-9.69876e-05
0.000422783
-8.2977e-05
0.00041688
-6.78965e-05
0.000403923
-5.18983e-05
0.000384475
-3.52237e-05
0.000359325
-1.82012e-05
0.000329521
-1.21972e-06
0.000296226
1.5307e-05
0.000260627
3.09757e-05
0.000223842
4.54685e-05
0.000186778
5.86563e-05
0.000150049
7.07716e-05
0.00011383
8.27338e-05
7.7393e-05
9.5278e-05
3.94362e-05
0.000106798
1.26282e-06
0.000116772
-3.43061e-05
0.00012524
-6.69758e-05
0.000132125
-9.61596e-05
0.000137383
-0.000121463
0.000140918
-0.00014275
0.00014256
-0.000160066
0.000142088
-0.000173652
0.000139263
-0.000183917
0.000133829
-0.000191357
0.000125672
-0.000196696
0.000115082
-0.000200682
0.00010243
-0.000203884
8.81372e-05
-0.00020628
7.25648e-05
-0.000207755
5.61061e-05
-0.000208105
3.91287e-05
-0.000207095
2.19694e-05
-0.0002045
4.92368e-06
-0.000200127
-1.17513e-05
-0.000193851
-2.78418e-05
-0.000185597
-4.31647e-05
-0.000175359
-5.75655e-05
-0.000163189
-7.09209e-05
-0.000149177
-8.31442e-05
-0.000133427
-9.41965e-05
-0.000116027
-0.000104089
-9.70136e-05
-0.000112859
-7.63443e-05
-0.000120447
-5.39942e-05
-0.000126558
-3.02474e-05
-0.000130858
-5.64431e-06
-0.00013333
1.95169e-05
-0.000133868
4.48356e-05
-0.000132402
6.98157e-05
-0.000128917
9.39953e-05
-0.000123431
0.000116937
-0.000116011
0.000138227
-0.000106753
0.000157464
-9.5751e-05
0.000174192
-8.30196e-05
0.000187758
-6.82627e-05
0.000196981
-5.18e-05
0.000200933
-3.44715e-05
0.000200928
-1.65934e-05
0.000197381
1.4746e-06
0.000190723
1.93933e-05
0.000181398
3.68646e-05
0.000169874
5.36507e-05
0.000156595
6.95902e-05
0.000141934
8.46071e-05
0.000126158
9.86972e-05
0.000109433
0.000111871
9.18803e-05
0.000124011
7.37716e-05
0.000134919
5.55527e-05
0.000144482
3.76076e-05
0.000152721
2.00685e-05
0.000159627
3.04288e-06
0.000165183
-1.3422e-05
0.000169373
-2.93399e-05
0.000172163
-4.47631e-05
0.00017351
-5.9771e-05
0.000173365
-7.44539e-05
0.000171674
-8.88945e-05
0.000168395
-0.000103148
0.000163503
-0.000117222
0.000157
-0.000131054
0.000148911
-0.000144512
0.000139299
-0.000157391
0.000128258
-0.000169429
0.000115904
-0.000180313
0.000102322
-0.00018964
8.76534e-05
-0.000196974
7.23731e-05
-0.000202154
5.677e-05
-0.000205187
4.10146e-05
-0.000205927
2.52742e-05
-0.00020429
9.7112e-06
-0.000200255
-5.52564e-06
-0.000193864
-2.03e-05
-0.000185215
-3.44912e-05
-0.000174444
-4.80053e-05
-0.000161709
-6.07956e-05
-0.000147175
-7.28833e-05
-0.000130982
-8.43825e-05
-0.000113186
-9.55002e-05
-9.37159e-05
-0.000106387
-7.24687e-05
-0.000116821
-4.96672e-05
-0.000126405
-2.57557e-05
-0.000135111
-9.54717e-07
-0.000142854
2.4475e-05
-0.000149526
5.01751e-05
-0.000155067
7.57848e-05
-0.000159436
0.000100954
-0.000162603
0.000125339
-0.00016455
0.000148615
-0.000165277
0.000170464
-0.000164802
0.000190626
-0.0001632
0.000208749
-0.000160483
0.00022498
-0.000156555
0.000237632
-0.000151397
0.000248427
-0.000144225
0.000251423
-0.000136472
0.000252387
-0.000127623
0.000249487
-0.000117716
0.000245304
0.000224807
-0.000139171
-0.000157684
-0.000147279
-0.000124391
-0.000155222
-8.92403e-05
-0.000162885
-5.18969e-05
-0.000169559
-1.27952e-05
-0.000175032
2.73119e-05
-0.000179192
6.82571e-05
-0.000181931
0.000109433
-0.00018322
0.000150248
-0.000183028
0.000190181
-0.000181306
0.000228698
-0.000177996
0.000265255
-0.000173025
0.000299279
-0.000166334
0.000330227
-0.000157956
0.000357584
-0.000147985
0.000380685
-0.000136306
0.000398202
-0.000122125
0.000407147
-0.000106544
0.000407201
-8.96691e-05
0.000400006
-7.17221e-05
0.000385976
-5.29235e-05
0.000365676
-3.35875e-05
0.000339989
-1.41178e-05
0.000310051
5.02422e-06
0.000277084
2.33819e-05
0.000242269
4.0561e-05
0.000206663
5.63187e-05
0.00017102
7.07075e-05
0.00013566
8.4297e-05
0.00010024
9.80923e-05
6.35978e-05
0.000111784
2.57448e-05
0.000123606
-1.056e-05
0.000133843
-4.45428e-05
0.000142462
-7.55951e-05
0.0001494
-0.000103097
0.000154616
-0.000126679
0.000158008
-0.000146142
0.000159407
-0.000161465
0.00015857
-0.000172814
0.000155077
-0.000180424
0.000148665
-0.000184945
0.000139624
-0.000187655
0.000128394
-0.000189452
0.00011515
-0.00019064
0.000100183
-0.000191313
8.38346e-05
-0.000191407
6.6492e-05
-0.000190763
4.85606e-05
-0.000189164
3.04294e-05
-0.000186368
1.24385e-05
-0.000182136
-5.12374e-06
-0.000176289
-2.20334e-05
-0.000168687
-3.81125e-05
-0.00015928
-5.32175e-05
-0.000148084
-6.7238e-05
-0.000135156
-8.01025e-05
-0.000120563
-9.17881e-05
-0.000104341
-0.000102316
-8.64862e-05
-0.000111669
-6.69912e-05
-0.000119619
-4.60436e-05
-0.000125865
-2.40017e-05
-0.000130289
-1.22019e-06
-0.000132804
2.20322e-05
-0.000133303
4.5334e-05
-0.000131732
6.82452e-05
-0.000128087
9.03495e-05
-0.000122401
0.000111252
-0.000114758
0.000130584
-0.000105266
0.000147971
-9.39909e-05
0.000162918
-8.08388e-05
0.000174606
-6.54725e-05
0.000181615
-4.87975e-05
0.000184258
-3.12376e-05
0.000183368
-1.31853e-05
0.000179328
4.95405e-06
0.000172584
2.28168e-05
0.000163535
4.01192e-05
0.000152571
5.66525e-05
0.000140062
7.22846e-05
0.000126302
8.69721e-05
0.000111471
0.000100732
9.56729e-05
0.000113523
7.90899e-05
0.000125175
6.21195e-05
0.000135518
4.5209e-05
0.000144573
2.85529e-05
0.000152332
1.23098e-05
0.000158784
-3.40971e-06
0.000163921
-1.85582e-05
0.000167717
-3.31362e-05
0.000170139
-4.71849e-05
0.000171144
-6.07765e-05
0.00017069
-7.39999e-05
0.000168736
-8.69406e-05
0.000165247
-9.96588e-05
0.000160192
-0.000112168
0.000153555
-0.000124417
0.000145335
-0.000136292
0.000135565
-0.000147621
0.000124295
-0.000158159
0.000111559
-0.000167577
9.7521e-05
-0.000175601
8.25088e-05
-0.000181962
6.6907e-05
-0.000186552
5.09033e-05
-0.000189183
3.46906e-05
-0.000189714
1.8453e-05
-0.000188053
2.36572e-06
-0.000184168
-1.34117e-05
-0.000178087
-2.87398e-05
-0.000169887
-4.35051e-05
-0.000159679
-5.76318e-05
-0.000147582
-7.11033e-05
-0.000133703
-8.39851e-05
-0.0001181
-9.64247e-05
-0.000100747
-0.000108529
-8.16113e-05
-0.000120091
-6.09065e-05
-0.000130827
-3.89317e-05
-0.000140663
-1.59193e-05
-0.00014952
7.90177e-06
-0.000157281
3.22362e-05
-0.000163858
5.67517e-05
-0.000169184
8.11107e-05
-0.000173208
0.000104978
-0.000175897
0.000128028
-0.000177233
0.000149951
-0.000177224
0.000170455
-0.000175898
0.000189299
-0.000173338
0.000206189
-0.000169512
0.000221154
-0.000164318
0.000232437
-0.000157528
0.000241637
-0.000148763
0.000242658
-0.000139603
0.000243227
-0.000129079
0.000238963
-0.000117368
0.000233593
0.000212104
-0.000158328
-0.000147437
-0.000168027