/*--------------------------------*- C++ -*----------------------------------*\
| =========                 |                                                 |
| \\      /  F ield         | OpenFOAM: The Open Source CFD Toolbox           |
|  \\    /   O peration     | Version:  2206                                  |
|   \\  /    A nd           | Website:  www.openfoam.com                      |
|    \\/     M anipulation  |                                                 |
\*---------------------------------------------------------------------------*/
FoamFile
{
    version     2.0;
    format      ascii;
    arch        "LSB;label=32;scalar=64";
    class       volVectorField;
    location    "18.6";
    object      ddt0(U);
}
// * * * * * * * * * * * * * * * * * * * * * * * * * * * * * * * * * * * * * //

dimensions      [0 1 -2 0 0 0 0];

internalField   nonuniform List<vector> 
3038
(
(2.72918e-06 0.000315569 0)
(1.37646e-05 0.000503009 0)
(2.7034e-05 0.000312387 0)
(3.38019e-05 -0.000261009 0)
(2.58736e-05 -0.00118356 0)
(-4.75077e-06 -0.00243666 0)
(-6.5468e-05 -0.0039941 0)
(-0.000162692 -0.00581201 0)
(-0.000302208 -0.00783597 0)
(-0.000488158 -0.0100088 0)
(-0.000723961 -0.0122736 0)
(-0.00101121 -0.0145753 0)
(-0.00135081 -0.0168604 0)
(-0.00174173 -0.0190791 0)
(-0.00218235 -0.0211858 0)
(-0.00266922 -0.0231426 0)
(-0.0031996 -0.0249175 0)
(-0.00376949 -0.0264882 0)
(-0.00437267 -0.0278393 0)
(-0.00500253 -0.0289635 0)
(-0.00565623 -0.0298607 0)
(-0.00632876 -0.0305405 0)
(-0.0070129 -0.0310189 0)
(-0.00770253 -0.0313209 0)
(-0.0083963 -0.0314783 0)
(-0.00909139 -0.0315317 0)
(-0.00978149 -0.0315256 0)
(-0.010467 -0.0315097 0)
(-0.0111411 -0.0315355 0)
(-0.0118282 -0.03166 0)
(-0.0124923 -0.0319334 0)
(-0.0131754 -0.0324112 0)
(-0.0138487 -0.0331389 0)
(-0.014549 -0.0341666 0)
(-0.0152558 -0.0355311 0)
(-0.0160063 -0.0372716 0)
(-0.0167837 -0.0394162 0)
(-0.0176057 -0.041988 0)
(-0.018499 -0.0450078 0)
(-0.0194346 -0.0484808 0)
(-0.0204917 -0.0524237 0)
(-0.0215807 -0.0568188 0)
(-0.0228395 -0.0616824 0)
(-0.0241428 -0.0669796 0)
(-0.0256196 -0.0727152 0)
(-0.0272103 -0.0788668 0)
(-0.0289207 -0.0853959 0)
(-0.0308446 -0.0923313 0)
(-0.0328508 -0.0995799 0)
(-0.0350979 -0.107206 0)
(-0.0374999 -0.115126 0)
(-0.04007 -0.123351 0)
(-0.0429239 -0.131907 0)
(-0.0458795 -0.140675 0)
(-0.0491507 -0.149813 0)
(-0.0525984 -0.159261 0)
(-0.056182 -0.168916 0)
(-0.0600281 -0.179266 0)
(-0.0640469 -0.18994 0)
(-0.068326 -0.201101 0)
(-0.0728847 -0.212823 0)
(-0.0777385 -0.225151 0)
(-0.0829041 -0.238141 0)
(-0.0883885 -0.251884 0)
(-0.0942147 -0.266477 0)
(-0.10041 -0.28202 0)
(-0.107009 -0.298615 0)
(-0.114045 -0.316379 0)
(-0.121564 -0.335427 0)
(-0.129613 -0.355884 0)
(-0.138249 -0.377877 0)
(-0.147531 -0.401539 0)
(-0.15753 -0.427009 0)
(-0.168321 -0.454431 0)
(-0.179991 -0.483954 0)
(-0.192633 -0.515734 0)
(-0.206355 -0.549936 0)
(-0.221278 -0.586736 0)
(-0.237542 -0.626322 0)
(-0.255302 -0.668901 0)
(-0.274742 -0.714695 0)
(-0.296067 -0.763961 0)
(-0.319506 -0.816964 0)
(-0.345325 -0.874028 0)
(-0.37385 -0.935498 0)
(-0.405443 -1.00181 0)
(-0.440487 -1.07345 0)
(-0.47942 -1.15101 0)
(-0.522772 -1.23523 0)
(-0.57112 -1.32707 0)
(-0.625069 -1.42773 0)
(-0.685297 -1.53897 0)
(-0.752236 -1.66297 0)
(-0.82698 -1.80401 0)
(-0.907731 -1.965 0)
(-1.00168 -2.16363 0)
(-1.09476 -2.38008 0)
(-1.21345 -2.72823 0)
(-1.54953 -3.00104 0)
(-1.48069 -3.92258 0)
(3.30229e-06 0.00030775 0)
(1.54399e-05 0.000489457 0)
(3.03529e-05 0.000300189 0)
(3.80628e-05 -0.000261599 0)
(2.88286e-05 -0.00116359 0)
(-6.82337e-06 -0.00238786 0)
(-7.76267e-05 -0.00390915 0)
(-0.000191388 -0.00568426 0)
(-0.000354735 -0.00766008 0)
(-0.000572684 -0.00978049 0)
(-0.000849003 -0.0119903 0)
(-0.00118571 -0.0142354 0)
(-0.00158376 -0.0164642 0)
(-0.00204182 -0.0186278 0)
(-0.00255846 -0.0206824 0)
(-0.00312951 -0.0225902 0)
(-0.00375218 -0.0243214 0)
(-0.00442041 -0.0258533 0)
(-0.00512761 -0.0271706 0)
(-0.00586697 -0.0282666 0)
(-0.00663505 -0.0291426 0)
(-0.00742393 -0.0298062 0)
(-0.00822625 -0.0302736 0)
(-0.00903574 -0.0305692 0)
(-0.00985083 -0.030726 0)
(-0.0106657 -0.0307815 0)
(-0.011475 -0.0307794 0)
(-0.0122789 -0.030769 0)
(-0.0130757 -0.0308009 0)
(-0.0138712 -0.0309284 0)
(-0.0146632 -0.0312026 0)
(-0.0154482 -0.0316744 0)
(-0.0162585 -0.0323936 0)
(-0.0170594 -0.033402 0)
(-0.0179125 -0.0347429 0)
(-0.0187725 -0.0364462 0)
(-0.0197002 -0.0385456 0)
(-0.0206539 -0.0410581 0)
(-0.0217068 -0.0440104 0)
(-0.0228122 -0.0474033 0)
(-0.0240279 -0.0512507 0)
(-0.02535 -0.0555484 0)
(-0.0267651 -0.0602843 0)
(-0.0283682 -0.065469 0)
(-0.0300296 -0.0710487 0)
(-0.0319532 -0.0770639 0)
(-0.0339382 -0.0834271 0)
(-0.0361848 -0.0901823 0)
(-0.0385868 -0.097271 0)
(-0.0411719 -0.104673 0)
(-0.0440341 -0.112418 0)
(-0.0470297 -0.120408 0)
(-0.0503568 -0.128748 0)
(-0.0538152 -0.137291 0)
(-0.0576281 -0.146242 0)
(-0.06154 -0.155333 0)
(-0.0658375 -0.165046 0)
(-0.0702519 -0.175013 0)
(-0.0749525 -0.185395 0)
(-0.0799858 -0.196266 0)
(-0.0853412 -0.20768 0)
(-0.0910226 -0.219689 0)
(-0.0970572 -0.232347 0)
(-0.10347 -0.245732 0)
(-0.110284 -0.259938 0)
(-0.117529 -0.275062 0)
(-0.125245 -0.291204 0)
(-0.133473 -0.308471 0)
(-0.142264 -0.326976 0)
(-0.151671 -0.346834 0)
(-0.161756 -0.368166 0)
(-0.172587 -0.391096 0)
(-0.184243 -0.415753 0)
(-0.196809 -0.442271 0)
(-0.210385 -0.470791 0)
(-0.225079 -0.501455 0)
(-0.241018 -0.534421 0)
(-0.258337 -0.569846 0)
(-0.277196 -0.607903 0)
(-0.297774 -0.648777 0)
(-0.320262 -0.692652 0)
(-0.344915 -0.739771 0)
(-0.371999 -0.790366 0)
(-0.401811 -0.844702 0)
(-0.434737 -0.903093 0)
(-0.471194 -0.965895 0)
(-0.511652 -1.03353 0)
(-0.556691 -1.10651 0)
(-0.607023 -1.18551 0)
(-0.663463 -1.27136 0)
(-0.727091 -1.36516 0)
(-0.798964 -1.46853 0)
(-0.881581 -1.58343 0)
(-0.974358 -1.71404 0)
(-1.09132 -1.86243 0)
(-1.20069 -2.04567 0)
(-1.43654 -2.24725 0)
(-1.38979 -2.54153 0)
(-2.37548 -2.90777 0)
(-0.875546 -2.74918 0)
(3.78615e-06 0.000298571 0)
(1.72172e-05 0.000474734 0)
(3.378e-05 0.000288175 0)
(4.2224e-05 -0.00026044 0)
(3.12064e-05 -0.00113914 0)
(-1.01989e-05 -0.00233039 0)
(-9.13593e-05 -0.00380964 0)
(-0.00022091 -0.00553509 0)
(-0.000406566 -0.00745489 0)
(-0.000654647 -0.00951464 0)
(-0.000969527 -0.0116608 0)
(-0.00135375 -0.013841 0)
(-0.00180814 -0.0160048 0)
(-0.00233182 -0.0181049 0)
(-0.00292208 -0.0200989 0)
(-0.00357542 -0.02195 0)
(-0.00428722 -0.0236295 0)
(-0.00505112 -0.025115 0)
(-0.00585975 -0.0263928 0)
(-0.00670677 -0.0274563 0)
(-0.00758557 -0.0283066 0)
(-0.00848807 -0.028951 0)
(-0.00940615 -0.0294061 0)
(-0.0103342 -0.0296957 0)
(-0.011267 -0.0298511 0)
(-0.0121993 -0.0299086 0)
(-0.0131259 -0.0299119 0)
(-0.0140462 -0.029908 0)
(-0.0149631 -0.0299467 0)
(-0.0158644 -0.0300769 0)
(-0.0167779 -0.0303517 0)
(-0.0176756 -0.0308183 0)
(-0.0186002 -0.0315262 0)
(-0.0195231 -0.0325141 0)
(-0.0204936 -0.0338246 0)
(-0.0214828 -0.0354863 0)
(-0.0225344 -0.0375313 0)
(-0.0236435 -0.0399805 0)
(-0.0248232 -0.04285 0)
(-0.026117 -0.0461555 0)
(-0.0274769 -0.0498898 0)
(-0.029014 -0.0540727 0)
(-0.0306204 -0.0586705 0)
(-0.032445 -0.0637054 0)
(-0.0343785 -0.0691328 0)
(-0.0365231 -0.0749559 0)
(-0.0388597 -0.0811567 0)
(-0.0413722 -0.0876889 0)
(-0.0441441 -0.0945806 0)
(-0.0471154 -0.101765 0)
(-0.0503301 -0.109254 0)
(-0.0538095 -0.117035 0)
(-0.0575471 -0.125104 0)
(-0.0614938 -0.133396 0)
(-0.0658212 -0.142111 0)
(-0.0702788 -0.150961 0)
(-0.0751086 -0.16036 0)
(-0.0801682 -0.170044 0)
(-0.0855688 -0.180153 0)
(-0.0913287 -0.190732 0)
(-0.097447 -0.201803 0)
(-0.103933 -0.213427 0)
(-0.11081 -0.225684 0)
(-0.118116 -0.238649 0)
(-0.125881 -0.252405 0)
(-0.134138 -0.267042 0)
(-0.142927 -0.282657 0)
(-0.152296 -0.299348 0)
(-0.1623 -0.317222 0)
(-0.173 -0.336386 0)
(-0.184465 -0.356956 0)
(-0.196772 -0.379048 0)
(-0.210006 -0.402782 0)
(-0.224263 -0.42828 0)
(-0.23965 -0.455672 0)
(-0.256287 -0.485088 0)
(-0.27431 -0.516665 0)
(-0.293872 -0.550546 0)
(-0.315143 -0.586881 0)
(-0.338326 -0.625829 0)
(-0.363636 -0.667557 0)
(-0.391333 -0.712242 0)
(-0.42172 -0.760097 0)
(-0.455149 -0.811339 0)
(-0.492027 -0.866219 0)
(-0.532822 -0.925007 0)
(-0.578093 -0.988041 0)
(-0.628523 -1.05573 0)
(-0.684958 -1.12857 0)
(-0.748418 -1.2072 0)
(-0.820319 -1.2924 0)
(-0.902118 -1.3853 0)
(-0.997243 -1.48732 0)
(-1.10579 -1.60062 0)
(-1.24341 -1.72795 0)
(-1.38534 -1.87238 0)
(-1.64064 -2.04811 0)
(-1.76095 -2.19617 0)
(-2.45624 -2.54987 0)
(-2.59333 -2.88464 0)
(4.04464e-06 0.000289137 0)
(1.7735e-05 0.000458391 0)
(3.42687e-05 0.000273952 0)
(4.22096e-05 -0.000258433 0)
(2.95185e-05 -0.00110984 0)
(-1.63589e-05 -0.00226485 0)
(-0.000106463 -0.00369862 0)
(-0.00025032 -0.0053696 0)
(-0.00045688 -0.00722714 0)
(-0.000733695 -0.00921838 0)
(-0.00108581 -0.0112916 0)
(-0.00151575 -0.0133968 0)
(-0.00202441 -0.0154858 0)
(-0.0026109 -0.017513 0)
(-0.00327249 -0.0194377 0)
(-0.00400496 -0.0212249 0)
(-0.00480296 -0.0228461 0)
(-0.00565968 -0.0242803 0)
(-0.0065673 -0.0255139 0)
(-0.00751814 -0.0265408 0)
(-0.00850442 -0.0273618 0)
(-0.00951759 -0.0279849 0)
(-0.010549 -0.0284259 0)
(-0.0115915 -0.0287082 0)
(-0.0126392 -0.0288615 0)
(-0.0136865 -0.0289218 0)
(-0.0147282 -0.028931 0)
(-0.0157633 -0.0289341 0)
(-0.0167902 -0.0289793 0)
(-0.0178113 -0.0291147 0)
(-0.0188257 -0.0293896 0)
(-0.0198502 -0.0298516 0)
(-0.0208714 -0.0305446 0)
(-0.0219286 -0.0315111 0)
(-0.0229956 -0.032785 0)
(-0.0241289 -0.034403 0)
(-0.025289 -0.0363854 0)
(-0.0265484 -0.0387631 0)
(-0.0278678 -0.041542 0)
(-0.0293077 -0.0447412 0)
(-0.0308625 -0.0483605 0)
(-0.0325367 -0.0523961 0)
(-0.0344031 -0.0568579 0)
(-0.0363735 -0.0617046 0)
(-0.0386131 -0.0669716 0)
(-0.0409618 -0.0725802 0)
(-0.0436042 -0.0785769 0)
(-0.0464299 -0.0848937 0)
(-0.049498 -0.0915273 0)
(-0.0528655 -0.0984901 0)
(-0.056428 -0.105698 0)
(-0.0603424 -0.113233 0)
(-0.0644684 -0.120989 0)
(-0.0689725 -0.129101 0)
(-0.0736402 -0.137349 0)
(-0.0787782 -0.146138 0)
(-0.0841145 -0.15514 0)
(-0.0897912 -0.164487 0)
(-0.095855 -0.174234 0)
(-0.102291 -0.184403 0)
(-0.109112 -0.195098 0)
(-0.116366 -0.20632 0)
(-0.124076 -0.218144 0)
(-0.132256 -0.230649 0)
(-0.140939 -0.24391 0)
(-0.150167 -0.258011 0)
(-0.159985 -0.27304 0)
(-0.170446 -0.289091 0)
(-0.18161 -0.306263 0)
(-0.193541 -0.324659 0)
(-0.206314 -0.344382 0)
(-0.220013 -0.365543 0)
(-0.234732 -0.38825 0)
(-0.250573 -0.412616 0)
(-0.267651 -0.438757 0)
(-0.286097 -0.466789 0)
(-0.306056 -0.496834 0)
(-0.32769 -0.529014 0)
(-0.351182 -0.563456 0)
(-0.376745 -0.600293 0)
(-0.404618 -0.639665 0)
(-0.43507 -0.681708 0)
(-0.468418 -0.726577 0)
(-0.505036 -0.774438 0)
(-0.545363 -0.825471 0)
(-0.589911 -0.879872 0)
(-0.639287 -0.937865 0)
(-0.69423 -0.99971 0)
(-0.755661 -1.0657 0)
(-0.824713 -1.13619 0)
(-0.902922 -1.21159 0)
(-0.992029 -1.29236 0)
(-1.09527 -1.37921 0)
(-1.21435 -1.47214 0)
(-1.36012 -1.57383 0)
(-1.52396 -1.67685 0)
(-1.76228 -1.80782 0)
(-1.98028 -1.86406 0)
(-2.37475 -2.01223 0)
(-2.93246 -2.19586 0)
(2.98874e-06 0.000281478 0)
(1.28629e-05 0.000446767 0)
(3.0117e-05 0.000260896 0)
(3.8247e-05 -0.000258754 0)
(2.07458e-05 -0.00108129 0)
(-3.26459e-05 -0.00219528 0)
(-0.000131102 -0.00357639 0)
(-0.000285867 -0.00518378 0)
(-0.000508445 -0.00697021 0)
(-0.000808626 -0.00888595 0)
(-0.00119313 -0.0108806 0)
(-0.00166533 -0.0129049 0)
(-0.00222576 -0.0149122 0)
(-0.00287313 -0.0168589 0)
(-0.00360424 -0.018706 0)
(-0.00441405 -0.0204203 0)
(-0.00529597 -0.0219751 0)
(-0.00624253 -0.0233505 0)
(-0.00724564 -0.0245338 0)
(-0.00829686 -0.0255194 0)
(-0.00938733 -0.0263078 0)
(-0.0105078 -0.026907 0)
(-0.011649 -0.0273321 0)
(-0.012803 -0.0276057 0)
(-0.0139627 -0.0277568 0)
(-0.0151223 -0.0278202 0)
(-0.0162755 -0.0278357 0)
(-0.0174231 -0.0278471 0)
(-0.0185571 -0.0278994 0)
(-0.0196919 -0.0280405 0)
(-0.0208137 -0.0283159 0)
(-0.0219478 -0.0287722 0)
(-0.0230816 -0.0294503 0)
(-0.024247 -0.0303914 0)
(-0.0254351 -0.0316283 0)
(-0.0266763 -0.0331939 0)
(-0.0279757 -0.0351127 0)
(-0.029346 -0.0374046 0)
(-0.0308288 -0.0400898 0)
(-0.0323927 -0.0431669 0)
(-0.0341302 -0.0466578 0)
(-0.0359674 -0.0505385 0)
(-0.0380194 -0.0548297 0)
(-0.0402231 -0.0594995 0)
(-0.0426415 -0.0645454 0)
(-0.0452977 -0.0699616 0)
(-0.0481483 -0.0756969 0)
(-0.0513006 -0.0817849 0)
(-0.0546846 -0.0881571 0)
(-0.0583494 -0.0948237 0)
(-0.0623353 -0.101786 0)
(-0.0665852 -0.108989 0)
(-0.0711523 -0.116464 0)
(-0.0760974 -0.124264 0)
(-0.0812529 -0.132213 0)
(-0.0868553 -0.140631 0)
(-0.0927441 -0.149284 0)
(-0.0990248 -0.158286 0)
(-0.105705 -0.16767 0)
(-0.112837 -0.177459 0)
(-0.120402 -0.187694 0)
(-0.128371 -0.198463 0)
(-0.136841 -0.209809 0)
(-0.14584 -0.221794 0)
(-0.155395 -0.234496 0)
(-0.165545 -0.247997 0)
(-0.17634 -0.262378 0)
(-0.187834 -0.277725 0)
(-0.200091 -0.29413 0)
(-0.213184 -0.311685 0)
(-0.22719 -0.330488 0)
(-0.242199 -0.350637 0)
(-0.258308 -0.372231 0)
(-0.275627 -0.39537 0)
(-0.294276 -0.420157 0)
(-0.314394 -0.446695 0)
(-0.336131 -0.475087 0)
(-0.359656 -0.505436 0)
(-0.385163 -0.537847 0)
(-0.412868 -0.572421 0)
(-0.443019 -0.609265 0)
(-0.475901 -0.648481 0)
(-0.511838 -0.690171 0)
(-0.55121 -0.734442 0)
(-0.594464 -0.7814 0)
(-0.642126 -0.83115 0)
(-0.69482 -0.883801 0)
(-0.753301 -0.939453 0)
(-0.818501 -0.998198 0)
(-0.891562 -1.06009 0)
(-0.973972 -1.12518 0)
(-1.06751 -1.19332 0)
(-1.17489 -1.26445 0)
(-1.29861 -1.33744 0)
(-1.44503 -1.41286 0)
(-1.61535 -1.48344 0)
(-1.82773 -1.55809 0)
(-2.07873 -1.6015 0)
(-2.35482 -1.60734 0)
(-2.78631 -1.63787 0)
(6.32013e-07 0.000268528 0)
(-4.42738e-06 0.000423059 0)
(6.78056e-06 0.000250914 0)
(2.27886e-05 -0.000243124 0)
(1.28065e-05 -0.00103329 0)
(-4.02856e-05 -0.00211211 0)
(-0.000144088 -0.00344904 0)
(-0.000311654 -0.00499562 0)
(-0.00055641 -0.00670436 0)
(-0.000886221 -0.00853073 0)
(-0.0013056 -0.0104313 0)
(-0.00181779 -0.0123607 0)
(-0.00242464 -0.0142748 0)
(-0.00312596 -0.0161328 0)
(-0.00391935 -0.0178972 0)
(-0.00479969 -0.0195352 0)
(-0.00576015 -0.0210198 0)
(-0.00679272 -0.0223321 0)
(-0.00788817 -0.0234603 0)
(-0.00903655 -0.0243998 0)
(-0.0102278 -0.0251517 0)
(-0.0114521 -0.0257238 0)
(-0.0126997 -0.026131 0)
(-0.0139618 -0.0263949 0)
(-0.0152307 -0.0265433 0)
(-0.0164996 -0.0266095 0)
(-0.0177626 -0.0266315 0)
(-0.019018 -0.0266515 0)
(-0.0202647 -0.0267119 0)
(-0.0214971 -0.0268579 0)
(-0.022738 -0.0271345 0)
(-0.0239654 -0.0275833 0)
(-0.0252203 -0.0282465 0)
(-0.0264792 -0.0291586 0)
(-0.027792 -0.0303567 0)
(-0.0291332 -0.0318647 0)
(-0.0305606 -0.0337136 0)
(-0.0320526 -0.0359154 0)
(-0.0336593 -0.0384911 0)
(-0.0353876 -0.0414465 0)
(-0.0372407 -0.0447815 0)
(-0.0392946 -0.048511 0)
(-0.0414713 -0.0525997 0)
(-0.0439266 -0.0570844 0)
(-0.0465216 -0.0618956 0)
(-0.0494246 -0.0670762 0)
(-0.0525468 -0.0725685 0)
(-0.0559372 -0.0783638 0)
(-0.0596584 -0.0844769 0)
(-0.0636158 -0.0908281 0)
(-0.0679619 -0.0974906 0)
(-0.0725624 -0.104362 0)
(-0.077583 -0.111557 0)
(-0.0828342 -0.11889 0)
(-0.0885996 -0.126684 0)
(-0.0946186 -0.134652 0)
(-0.101029 -0.14291 0)
(-0.107879 -0.151505 0)
(-0.115172 -0.160464 0)
(-0.122887 -0.169836 0)
(-0.131086 -0.179595 0)
(-0.139807 -0.18985 0)
(-0.149035 -0.200666 0)
(-0.158816 -0.212097 0)
(-0.169199 -0.224207 0)
(-0.180224 -0.237067 0)
(-0.191941 -0.250751 0)
(-0.204408 -0.265339 0)
(-0.217692 -0.280913 0)
(-0.231869 -0.29756 0)
(-0.247023 -0.315367 0)
(-0.263245 -0.334425 0)
(-0.280638 -0.354821 0)
(-0.299317 -0.376647 0)
(-0.319408 -0.39999 0)
(-0.341051 -0.424938 0)
(-0.364401 -0.451576 0)
(-0.389632 -0.479989 0)
(-0.416941 -0.510257 0)
(-0.446542 -0.542452 0)
(-0.47869 -0.576648 0)
(-0.513667 -0.612908 0)
(-0.551801 -0.651287 0)
(-0.593471 -0.691833 0)
(-0.639116 -0.734583 0)
(-0.68925 -0.779552 0)
(-0.74448 -0.826733 0)
(-0.805532 -0.87608 0)
(-0.873284 -0.927492 0)
(-0.948806 -0.980782 0)
(-1.03344 -1.03564 0)
(-1.12879 -1.09153 0)
(-1.23704 -1.14771 0)
(-1.36062 -1.20261 0)
(-1.50317 -1.2547 0)
(-1.66841 -1.29933 0)
(-1.86029 -1.33249 0)
(-2.08998 -1.34701 0)
(-2.34195 -1.31192 0)
(-2.63603 -1.25104 0)
(-4.01179e-06 0.000312423 0)
(-6.97474e-06 0.000426769 0)
(1.10942e-05 0.000220871 0)
(3.44438e-05 -0.000261521 0)
(2.67673e-05 -0.0010193 0)
(-3.78471e-05 -0.00203791 0)
(-0.000156049 -0.00330018 0)
(-0.000336659 -0.00477065 0)
(-0.000598855 -0.00640323 0)
(-0.000956384 -0.00814587 0)
(-0.00141314 -0.00995718 0)
(-0.00196901 -0.0117912 0)
(-0.00262543 -0.0136045 0)
(-0.00338235 -0.0153604 0)
(-0.00423641 -0.0170271 0)
(-0.0051818 -0.0185748 0)
(-0.00621232 -0.0199788 0)
(-0.00732155 -0.021221 0)
(-0.00850086 -0.0222898 0)
(-0.00973951 -0.0231798 0)
(-0.0110262 -0.0238921 0)
(-0.0123499 -0.0244345 0)
(-0.0137001 -0.0248216 0)
(-0.0150669 -0.0250744 0)
(-0.0164415 -0.0252194 0)
(-0.0178164 -0.0252883 0)
(-0.0191858 -0.0253176 0)
(-0.0205461 -0.0253464 0)
(-0.0218994 -0.0254169 0)
(-0.023234 -0.0255693 0)
(-0.0245767 -0.0258473 0)
(-0.0259102 -0.02629 0)
(-0.0272605 -0.0269367 0)
(-0.0286302 -0.0278212 0)
(-0.0300349 -0.0289751 0)
(-0.0314979 -0.0304268 0)
(-0.0330158 -0.0321949 0)
(-0.0346483 -0.0343061 0)
(-0.0363544 -0.036759 0)
(-0.0382367 -0.0395826 0)
(-0.0402243 -0.0427557 0)
(-0.0424309 -0.0463037 0)
(-0.0448061 -0.0502017 0)
(-0.0474025 -0.054447 0)
(-0.0502638 -0.0590456 0)
(-0.0533305 -0.0639403 0)
(-0.0567329 -0.0691773 0)
(-0.0603824 -0.0746803 0)
(-0.0643502 -0.0804655 0)
(-0.0686698 -0.0865338 0)
(-0.0732859 -0.0928214 0)
(-0.0782715 -0.099373 0)
(-0.0836636 -0.106204 0)
(-0.0893234 -0.113179 0)
(-0.0954849 -0.120558 0)
(-0.101979 -0.128131 0)
(-0.108914 -0.13599 0)
(-0.116311 -0.144161 0)
(-0.124171 -0.152659 0)
(-0.132494 -0.16152 0)
(-0.141306 -0.170816 0)
(-0.150664 -0.180546 0)
(-0.160599 -0.190793 0)
(-0.171133 -0.201619 0)
(-0.182297 -0.213085 0)
(-0.194141 -0.225254 0)
(-0.206716 -0.238195 0)
(-0.220085 -0.251975 0)
(-0.234321 -0.266669 0)
(-0.249505 -0.282356 0)
(-0.265721 -0.299115 0)
(-0.283063 -0.317024 0)
(-0.301636 -0.336161 0)
(-0.321558 -0.356604 0)
(-0.342958 -0.378428 0)
(-0.365977 -0.401707 0)
(-0.390774 -0.426512 0)
(-0.417523 -0.452906 0)
(-0.446416 -0.480947 0)
(-0.477669 -0.510681 0)
(-0.511529 -0.54215 0)
(-0.548275 -0.575379 0)
(-0.588224 -0.610378 0)
(-0.631741 -0.647141 0)
(-0.679247 -0.685638 0)
(-0.731226 -0.725807 0)
(-0.78824 -0.767543 0)
(-0.85095 -0.810673 0)
(-0.92014 -0.85494 0)
(-0.996743 -0.899958 0)
(-1.08188 -0.945165 0)
(-1.1769 -0.989727 0)
(-1.28343 -1.03247 0)
(-1.40338 -1.07157 0)
(-1.53891 -1.10453 0)
(-1.69274 -1.12759 0)
(-1.86618 -1.13449 0)
(-2.06297 -1.11963 0)
(-2.2825 -1.06744 0)
(-2.50992 -0.969825 0)
(-1.28949e-07 0.000322783 0)
(2.49093e-05 0.000365251 0)
(4.89417e-05 0.000189439 0)
(6.13686e-05 -0.000265448 0)
(5.24447e-06 -0.000923584 0)
(-2.4089e-05 -0.00195134 0)
(-0.000147966 -0.00315431 0)
(-0.000353889 -0.00453546 0)
(-0.000643531 -0.00606775 0)
(-0.00103097 -0.00770696 0)
(-0.00152116 -0.00941381 0)
(-0.00211204 -0.0111523 0)
(-0.00280965 -0.0128715 0)
(-0.00361878 -0.0145328 0)
(-0.00453495 -0.0161074 0)
(-0.00554911 -0.0175639 0)
(-0.00665372 -0.018879 0)
(-0.00784126 -0.0200407 0)
(-0.00910231 -0.021041 0)
(-0.010426 -0.0218747 0)
(-0.0118015 -0.0225421 0)
(-0.013218 -0.0230508 0)
(-0.0146644 -0.0234149 0)
(-0.01613 -0.0236545 0)
(-0.0176049 -0.0237949 0)
(-0.019081 -0.023866 0)
(-0.0205509 -0.0239023 0)
(-0.0220125 -0.0239404 0)
(-0.0234597 -0.0240206 0)
(-0.0249014 -0.0241808 0)
(-0.0263246 -0.0244601 0)
(-0.0277697 -0.0248985 0)
(-0.0291954 -0.0255271 0)
(-0.0306786 -0.0263844 0)
(-0.0321598 -0.0274904 0)
(-0.0337367 -0.0288826 0)
(-0.0353482 -0.0305667 0)
(-0.037088 -0.0325751 0)
(-0.0389248 -0.0349062 0)
(-0.0409026 -0.0375742 0)
(-0.0430714 -0.0405903 0)
(-0.0453727 -0.0439273 0)
(-0.047967 -0.0476309 0)
(-0.0506938 -0.0516215 0)
(-0.0537789 -0.0559765 0)
(-0.0570523 -0.060596 0)
(-0.0606671 -0.0655301 0)
(-0.0645888 -0.0707382 0)
(-0.0688024 -0.076185 0)
(-0.0734254 -0.0819198 0)
(-0.0783251 -0.0878332 0)
(-0.0837052 -0.0940675 0)
(-0.0893384 -0.100397 0)
(-0.0955417 -0.107148 0)
(-0.102038 -0.114043 0)
(-0.108959 -0.121175 0)
(-0.116361 -0.12858 0)
(-0.124253 -0.136274 0)
(-0.132637 -0.144279 0)
(-0.141536 -0.152623 0)
(-0.150957 -0.16135 0)
(-0.16094 -0.170536 0)
(-0.171531 -0.180208 0)
(-0.182751 -0.190411 0)
(-0.194642 -0.201203 0)
(-0.207251 -0.212648 0)
(-0.220626 -0.224803 0)
(-0.234829 -0.237729 0)
(-0.249941 -0.251488 0)
(-0.266044 -0.266155 0)
(-0.283227 -0.281805 0)
(-0.301584 -0.298506 0)
(-0.321225 -0.316325 0)
(-0.342267 -0.335325 0)
(-0.364842 -0.35557 0)
(-0.389091 -0.377121 0)
(-0.41517 -0.400031 0)
(-0.443249 -0.424349 0)
(-0.473515 -0.450109 0)
(-0.506179 -0.477336 0)
(-0.541476 -0.506039 0)
(-0.579672 -0.53621 0)
(-0.621068 -0.567818 0)
(-0.666007 -0.600808 0)
(-0.71488 -0.635098 0)
(-0.768125 -0.670562 0)
(-0.826241 -0.707013 0)
(-0.8898 -0.744184 0)
(-0.959463 -0.781698 0)
(-1.03599 -0.819031 0)
(-1.12026 -0.855459 0)
(-1.21328 -0.889971 0)
(-1.31618 -0.921174 0)
(-1.4302 -0.947138 0)
(-1.55656 -0.965178 0)
(-1.69645 -0.971765 0)
(-1.85044 -0.961706 0)
(-2.01766 -0.929091 0)
(-2.19802 -0.865328 0)
(-2.38034 -0.761097 0)
(7.16018e-06 0.000281477 0)
(3.43827e-05 0.000384322 0)
(5.63941e-05 0.000201798 0)
(5.73983e-05 -0.000237043 0)
(3.61227e-05 -0.000927274 0)
(-5.83491e-06 -0.00187585 0)
(-0.000142687 -0.00298971 0)
(-0.000352513 -0.00428953 0)
(-0.000633297 -0.00574296 0)
(-0.00107237 -0.00725759 0)
(-0.00153889 -0.00888747 0)
(-0.00222534 -0.0104761 0)
(-0.00298128 -0.0120748 0)
(-0.00385005 -0.0136242 0)
(-0.00483031 -0.0150972 0)
(-0.00590988 -0.0164645 0)
(-0.00708595 -0.0176955 0)
(-0.00835329 -0.0187772 0)
(-0.00969793 -0.0197054 0)
(-0.0111057 -0.0204786 0)
(-0.012566 -0.0210981 0)
(-0.0140692 -0.0215705 0)
(-0.0156046 -0.0219093 0)
(-0.017161 -0.0221339 0)
(-0.0187278 -0.0222687 0)
(-0.0202961 -0.0223422 0)
(-0.0218577 -0.0223867 0)
(-0.0234108 -0.022437 0)
(-0.0249435 -0.0225291 0)
(-0.0264777 -0.0226991 0)
(-0.0279821 -0.0229819 0)
(-0.0295167 -0.023416 0)
(-0.0310263 -0.0240287 0)
(-0.0325944 -0.0248563 0)
(-0.0341671 -0.0259161 0)
(-0.0358284 -0.0272415 0)
(-0.0375454 -0.0288405 0)
(-0.0393723 -0.0307356 0)
(-0.0413347 -0.0329378 0)
(-0.0434124 -0.0354424 0)
(-0.0457262 -0.0382822 0)
(-0.0481546 -0.0414074 0)
(-0.050908 -0.0448839 0)
(-0.0538078 -0.0486246 0)
(-0.0570609 -0.052699 0)
(-0.0605556 -0.0570385 0)
(-0.0643629 -0.0616484 0)
(-0.0685332 -0.0665382 0)
(-0.0729866 -0.0716308 0)
(-0.0778828 -0.0770055 0)
(-0.0830708 -0.0825367 0)
(-0.0887639 -0.0883771 0)
(-0.094732 -0.0942964 0)
(-0.10128 -0.100611 0)
(-0.10817 -0.107079 0)
(-0.115518 -0.113766 0)
(-0.123366 -0.120697 0)
(-0.131719 -0.127891 0)
(-0.140589 -0.135376 0)
(-0.14999 -0.143183 0)
(-0.159971 -0.151349 0)
(-0.170571 -0.159936 0)
(-0.181782 -0.168968 0)
(-0.193646 -0.178499 0)
(-0.206209 -0.188585 0)
(-0.219516 -0.199276 0)
(-0.233614 -0.210622 0)
(-0.248571 -0.222665 0)
(-0.264472 -0.23546 0)
(-0.281412 -0.249075 0)
(-0.299476 -0.263577 0)
(-0.318753 -0.279025 0)
(-0.33935 -0.295474 0)
(-0.361388 -0.312981 0)
(-0.385002 -0.3316 0)
(-0.410331 -0.35138 0)
(-0.437528 -0.372358 0)
(-0.466756 -0.394566 0)
(-0.498195 -0.418021 0)
(-0.532041 -0.442726 0)
(-0.568516 -0.468664 0)
(-0.607866 -0.495794 0)
(-0.65037 -0.524046 0)
(-0.696346 -0.553328 0)
(-0.746146 -0.583518 0)
(-0.800153 -0.614444 0)
(-0.858787 -0.645866 0)
(-0.922518 -0.677448 0)
(-0.991872 -0.708741 0)
(-1.06743 -0.739141 0)
(-1.14981 -0.767838 0)
(-1.23969 -0.793748 0)
(-1.33775 -0.815428 0)
(-1.44464 -0.830982 0)
(-1.56084 -0.837923 0)
(-1.68648 -0.833094 0)
(-1.8212 -0.812436 0)
(-1.96298 -0.771075 0)
(-2.10938 -0.703201 0)
(-2.25306 -0.60293 0)
(6.80673e-06 0.000260353 0)
(3.33777e-05 0.00035147 0)
(6.29754e-05 0.000174154 0)
(7.88951e-05 -0.000248339 0)
(5.89331e-05 -0.000885048 0)
(2.64822e-06 -0.00176192 0)
(-0.000145399 -0.00280847 0)
(-0.00035971 -0.00403239 0)
(-0.000690134 -0.0053611 0)
(-0.00111166 -0.0067925 0)
(-0.00166393 -0.00826782 0)
(-0.00232599 -0.00976394 0)
(-0.00312825 -0.0112359 0)
(-0.00403487 -0.0126748 0)
(-0.00505037 -0.0140434 0)
(-0.00624835 -0.0152826 0)
(-0.00749383 -0.0164222 0)
(-0.0088233 -0.0174338 0)
(-0.0102364 -0.018298 0)
(-0.0117204 -0.0190116 0)
(-0.0132618 -0.0195798 0)
(-0.0148484 -0.0200127 0)
(-0.0164688 -0.0203243 0)
(-0.0181115 -0.020533 0)
(-0.0197654 -0.0206615 0)
(-0.0214206 -0.0207373 0)
(-0.0230696 -0.0207904 0)
(-0.0247058 -0.0208534 0)
(-0.0263299 -0.0209585 0)
(-0.0279403 -0.0211384 0)
(-0.029535 -0.0214256 0)
(-0.0311468 -0.0218536 0)
(-0.0327462 -0.0224494 0)
(-0.0343945 -0.0232445 0)
(-0.0360568 -0.0242549 0)
(-0.0378044 -0.0255098 0)
(-0.0396153 -0.0270168 0)
(-0.0415354 -0.0287944 0)
(-0.0436031 -0.0308567 0)
(-0.0457882 -0.0331928 0)
(-0.0482177 -0.0358402 0)
(-0.0507868 -0.0387508 0)
(-0.0536593 -0.0419764 0)
(-0.0567477 -0.0454665 0)
(-0.0601343 -0.0492368 0)
(-0.0638392 -0.0532846 0)
(-0.0678421 -0.0575691 0)
(-0.0721954 -0.0620963 0)
(-0.076928 -0.0668601 0)
(-0.0820063 -0.0718074 0)
(-0.0875119 -0.0769819 0)
(-0.0934631 -0.0823907 0)
(-0.0997388 -0.0878777 0)
(-0.106621 -0.0937533 0)
(-0.113874 -0.0997663 0)
(-0.121607 -0.105972 0)
(-0.12986 -0.112396 0)
(-0.138645 -0.119063 0)
(-0.147972 -0.126006 0)
(-0.15787 -0.133252 0)
(-0.168368 -0.140844 0)
(-0.179484 -0.148782 0)
(-0.19125 -0.157146 0)
(-0.20371 -0.165982 0)
(-0.216902 -0.175331 0)
(-0.23086 -0.185242 0)
(-0.245626 -0.195744 0)
(-0.261265 -0.20685 0)
(-0.277882 -0.218619 0)
(-0.295575 -0.231141 0)
(-0.314424 -0.244475 0)
(-0.334515 -0.258651 0)
(-0.35596 -0.273703 0)
(-0.378884 -0.28968 0)
(-0.403415 -0.30663 0)
(-0.429687 -0.324592 0)
(-0.457849 -0.343598 0)
(-0.488054 -0.363669 0)
(-0.520472 -0.384808 0)
(-0.555283 -0.406999 0)
(-0.592691 -0.430199 0)
(-0.632912 -0.454338 0)
(-0.676202 -0.479314 0)
(-0.722856 -0.505011 0)
(-0.773189 -0.531277 0)
(-0.827525 -0.55791 0)
(-0.886199 -0.584627 0)
(-0.949575 -0.611061 0)
(-1.01804 -0.636736 0)
(-1.09199 -0.661029 0)
(-1.17182 -0.683121 0)
(-1.25788 -0.701937 0)
(-1.35049 -0.716093 0)
(-1.44982 -0.723839 0)
(-1.55582 -0.722998 0)
(-1.668 -0.710941 0)
(-1.78528 -0.68455 0)
(-1.9053 -0.640244 0)
(-2.02484 -0.574125 0)
(-2.13766 -0.482668 0)
(7.17666e-06 0.000237641 0)
(3.51086e-05 0.000322594 0)
(7.19787e-05 0.000151974 0)
(9.02594e-05 -0.00024156 0)
(7.02166e-05 -0.000844257 0)
(2.09963e-06 -0.00165556 0)
(-0.000150116 -0.00262736 0)
(-0.000381553 -0.00375092 0)
(-0.00072997 -0.00497677 0)
(-0.00117541 -0.00629277 0)
(-0.00176011 -0.00764616 0)
(-0.0024546 -0.00901898 0)
(-0.00329392 -0.0103669 0)
(-0.00423945 -0.0116833 0)
(-0.0053201 -0.0129188 0)
(-0.00652785 -0.0140536 0)
(-0.00779732 -0.0151012 0)
(-0.00923515 -0.0160099 0)
(-0.0107179 -0.0167988 0)
(-0.0122694 -0.0174533 0)
(-0.0138834 -0.0179707 0)
(-0.0155479 -0.0183617 0)
(-0.0172489 -0.0186437 0)
(-0.0189734 -0.0188351 0)
(-0.0207096 -0.0189579 0)
(-0.0224476 -0.0190366 0)
(-0.0241795 -0.0190995 0)
(-0.0258979 -0.0191751 0)
(-0.027605 -0.0192934 0)
(-0.0292948 -0.0194843 0)
(-0.0309763 -0.0197772 0)
(-0.0326695 -0.0202006 0)
(-0.0343523 -0.0207799 0)
(-0.0360849 -0.0215434 0)
(-0.037827 -0.0225032 0)
(-0.0396602 -0.0236876 0)
(-0.0415532 -0.0251005 0)
(-0.043563 -0.0267586 0)
(-0.045718 -0.0286735 0)
(-0.0480116 -0.0308372 0)
(-0.0505329 -0.033277 0)
(-0.0532403 -0.0359648 0)
(-0.0562197 -0.0389251 0)
(-0.0594678 -0.042142 0)
(-0.063008 -0.045611 0)
(-0.0668684 -0.0493309 0)
(-0.0710759 -0.0532959 0)
(-0.075591 -0.0574449 0)
(-0.0805511 -0.0618399 0)
(-0.0858268 -0.0663619 0)
(-0.0915983 -0.071134 0)
(-0.0977885 -0.0760845 0)
(-0.104353 -0.0811247 0)
(-0.111534 -0.0865299 0)
(-0.119106 -0.0920649 0)
(-0.127179 -0.0977693 0)
(-0.135803 -0.103659 0)
(-0.144989 -0.109768 0)
(-0.15474 -0.116136 0)
(-0.165077 -0.122787 0)
(-0.176027 -0.129749 0)
(-0.18764 -0.137051 0)
(-0.199961 -0.144726 0)
(-0.212985 -0.152842 0)
(-0.226755 -0.161433 0)
(-0.241297 -0.170572 0)
(-0.256623 -0.180269 0)
(-0.272831 -0.190443 0)
(-0.290085 -0.201142 0)
(-0.308483 -0.212499 0)
(-0.328051 -0.224593 0)
(-0.348855 -0.23744 0)
(-0.371024 -0.251066 0)
(-0.394697 -0.265503 0)
(-0.420005 -0.28079 0)
(-0.44708 -0.296947 0)
(-0.476061 -0.313999 0)
(-0.507092 -0.331951 0)
(-0.540322 -0.350807 0)
(-0.575911 -0.37053 0)
(-0.614029 -0.391064 0)
(-0.654873 -0.412291 0)
(-0.698681 -0.434079 0)
(-0.745727 -0.456297 0)
(-0.796278 -0.478825 0)
(-0.85059 -0.50144 0)
(-0.908917 -0.52384 0)
(-0.971535 -0.545624 0)
(-1.03871 -0.566325 0)
(-1.11068 -0.585333 0)
(-1.18762 -0.601881 0)
(-1.26961 -0.614954 0)
(-1.35665 -0.623314 0)
(-1.44858 -0.625406 0)
(-1.54499 -0.619403 0)
(-1.64505 -0.60321 0)
(-1.74733 -0.57456 0)
(-1.84936 -0.530955 0)
(-1.94786 -0.469973 0)
(-2.03748 -0.389626 0)
(7.30167e-06 0.000214695 0)
(3.66595e-05 0.000288395 0)
(7.72861e-05 0.000124082 0)
(9.63793e-05 -0.000241545 0)
(7.9419e-05 -0.000803377 0)
(1.2747e-06 -0.00153884 0)
(-0.000153389 -0.00243059 0)
(-0.000402779 -0.00345169 0)
(-0.000763154 -0.00457066 0)
(-0.00123421 -0.00576361 0)
(-0.0018436 -0.00698945 0)
(-0.00256696 -0.00823466 0)
(-0.00344569 -0.00945253 0)
(-0.00442099 -0.010645 0)
(-0.00555744 -0.0117567 0)
(-0.00678467 -0.0127948 0)
(-0.00813625 -0.0137277 0)
(-0.00959109 -0.0145494 0)
(-0.0111143 -0.0152589 0)
(-0.012758 -0.0158392 0)
(-0.014437 -0.0163041 0)
(-0.016169 -0.0166539 0)
(-0.0179441 -0.0169041 0)
(-0.0197467 -0.0170768 0)
(-0.0215625 -0.017192 0)
(-0.0233818 -0.0172742 0)
(-0.025195 -0.0173474 0)
(-0.0269968 -0.017436 0)
(-0.0287815 -0.0175649 0)
(-0.0305624 -0.0177642 0)
(-0.0323169 -0.0180586 0)
(-0.0340955 -0.0184776 0)
(-0.0358485 -0.0190381 0)
(-0.037664 -0.0197709 0)
(-0.0394761 -0.020678 0)
(-0.0413877 -0.0217902 0)
(-0.0433573 -0.0231049 0)
(-0.0454443 -0.0246387 0)
(-0.0476826 -0.0264005 0)
(-0.0500656 -0.0283846 0)
(-0.0526802 -0.0306111 0)
(-0.0554939 -0.0330593 0)
(-0.0585928 -0.0357516 0)
(-0.0619618 -0.0386723 0)
(-0.0656595 -0.0418338 0)
(-0.0696614 -0.0452161 0)
(-0.0740446 -0.0488529 0)
(-0.0787055 -0.0526295 0)
(-0.0838369 -0.0566426 0)
(-0.0893236 -0.0607714 0)
(-0.0952563 -0.0650603 0)
(-0.101744 -0.0696173 0)
(-0.108529 -0.0741596 0)
(-0.115972 -0.0790583 0)
(-0.123833 -0.0840729 0)
(-0.132208 -0.0892554 0)
(-0.141156 -0.094613 0)