/*--------------------------------*- C++ -*----------------------------------*\
| =========                 |                                                 |
| \\      /  F ield         | OpenFOAM: The Open Source CFD Toolbox           |
|  \\    /   O peration     | Version:  2206                                  |
|   \\  /    A nd           | Website:  www.openfoam.com                      |
|    \\/     M anipulation  |                                                 |
\*---------------------------------------------------------------------------*/
FoamFile
{
    version     2.0;
    format      ascii;
    arch        "LSB;label=32;scalar=64";
    class       volVectorField;
    location    "18.3";
    object      U;
}
// * * * * * * * * * * * * * * * * * * * * * * * * * * * * * * * * * * * * * //

dimensions      [0 1 -1 0 0 0 0];

internalField   nonuniform List<vector> 
4830
(
(-0.171716 -0.0239409 0)
(-0.118089 -0.0113645 0)
(-0.0866748 0.00294317 0)
(-0.0792514 0.0192279 0)
(-0.0951565 0.0363394 0)
(-0.13375 0.0503381 0)
(-0.193895 0.059015 0)
(-0.268488 0.0620637 0)
(-0.349212 0.0601911 0)
(-0.428448 0.0537163 0)
(-0.497246 0.0429569 0)
(-0.547738 0.0295984 0)
(-0.574777 0.0144134 0)
(-0.575965 -0.00238251 0)
(-0.55486 -0.0189963 0)
(-0.512727 -0.0342887 0)
(-0.442505 -0.0456516 0)
(-0.361922 -0.0534345 0)
(-0.264769 -0.0606023 0)
(-0.15671 -0.0660302 0)
(-0.038798 -0.0696605 0)
(0.0892437 -0.0713226 0)
(0.214978 -0.0751509 0)
(0.355737 -0.0829622 0)
(0.50913 -0.1035 0)
(0.672017 -0.116547 0)
(-0.0918114 -0.108616 0)
(-0.0309752 -0.0748857 0)
(0.0130956 -0.0371716 0)
(0.036309 0.000960333 0)
(0.0366286 0.0376022 0)
(0.0161622 0.0695134 0)
(-0.0185142 0.0933913 0)
(-0.0613846 0.107116 0)
(-0.10658 0.10931 0)
(-0.146135 0.0989803 0)
(-0.171544 0.0766936 0)
(-0.17761 0.0446331 0)
(-0.165268 0.00614737 0)
(-0.139619 -0.0340453 0)
(-0.0967379 -0.0732841 0)
(-0.0405887 -0.110096 0)
(0.0302009 -0.141582 0)
(0.115986 -0.166988 0)
(0.212547 -0.188155 0)
(0.318761 -0.205132 0)
(0.432717 -0.217833 0)
(0.551566 -0.22635 0)
(0.676459 -0.234281 0)
(0.800626 -0.245688 0)
(0.927956 -0.267657 0)
(1.04589 -0.30467 0)
(0.239832 -0.183405 0)
(0.277533 -0.141678 0)
(0.31474 -0.0847826 0)
(0.348885 -0.0187242 0)
(0.378232 0.0453124 0)
(0.400006 0.0976591 0)
(0.414424 0.133213 0)
(0.423018 0.14987 0)
(0.430235 0.150319 0)
(0.440935 0.131245 0)
(0.458383 0.0886423 0)
(0.482483 0.0346094 0)
(0.509639 -0.0211585 0)
(0.542615 -0.0743055 0)
(0.585108 -0.122953 0)
(0.635621 -0.168519 0)
(0.693062 -0.210832 0)
(0.757736 -0.249327 0)
(0.82898 -0.282378 0)
(0.905429 -0.308701 0)
(0.985687 -0.32793 0)
(1.06815 -0.341176 0)
(1.1525 -0.351465 0)
(1.23451 -0.362674 0)
(1.31669 -0.380669 0)
(1.38758 -0.404918 0)
(0.901926 -0.176148 0)
(0.872588 -0.132735 0)
(0.844769 -0.090427 0)
(0.826835 -0.0539375 0)
(0.824777 -0.015583 0)
(0.842876 0.0263754 0)
(0.878545 0.0661286 0)
(0.923204 0.0932546 0)
(0.972034 0.102246 0)
(1.02329 0.0893732 0)
(1.07131 0.0561316 0)
(1.11379 0.00856358 0)
(1.1512 -0.0467836 0)
(1.18519 -0.103904 0)
(1.21947 -0.159745 0)
(1.2568 -0.213407 0)
(1.29715 -0.263197 0)
(1.33966 -0.307501 0)
(1.3833 -0.344737 0)
(1.42712 -0.3739 0)
(1.47063 -0.395118 0)
(1.51356 -0.409535 0)
(1.55561 -0.419227 0)
(1.59552 -0.42787 0)
(1.63265 -0.439115 0)
(1.66129 -0.452783 0)
(1.49776 -0.168752 0)
(1.49079 -0.123302 0)
(1.49229 -0.0746294 0)
(1.49844 -0.0281507 0)
(1.50368 0.00976387 0)
(1.50901 0.0343774 0)
(1.51797 0.0488112 0)
(1.53486 0.0544148 0)
(1.55946 0.0482428 0)
(1.589 0.0282749 0)
(1.6204 -0.00582491 0)
(1.65131 -0.0503687 0)
(1.67957 -0.100679 0)
(1.70519 -0.15294 0)
(1.72941 -0.204981 0)
(1.75241 -0.255484 0)
(1.77295 -0.302417 0)
(1.79013 -0.343711 0)
(1.80371 -0.377893 0)
(1.81403 -0.40413 0)
(1.82173 -0.422214 0)
(1.82763 -0.433703 0)
(1.83281 -0.441092 0)
(1.83739 -0.447334 0)
(1.8392 -0.453499 0)
(1.83712 -0.46065 0)
(1.83676 -0.145899 0)
(1.82297 -0.112668 0)
(1.81896 -0.0791568 0)
(1.82386 -0.0480438 0)
(1.83698 -0.0195519 0)
(1.85803 0.00520795 0)
(1.88464 0.0230843 0)
(1.9148 0.0311695 0)
(1.94674 0.0268583 0)
(1.97873 0.00907793 0)
(2.00896 -0.0212602 0)
(2.03481 -0.0616673 0)
(2.05445 -0.10862 0)
(2.06784 -0.15912 0)
(2.07506 -0.209679 0)
(2.07622 -0.257934 0)
(2.07152 -0.301937 0)
(2.06163 -0.339529 0)
(2.04785 -0.369726 0)
(2.03129 -0.393073 0)
(2.01339 -0.410069 0)
(1.99543 -0.422115 0)
(1.97794 -0.430464 0)
(1.96039 -0.435943 0)
(1.94209 -0.439767 0)
(1.92218 -0.442553 0)
(1.99683 -0.127011 0)
(1.98417 -0.103966 0)
(1.98037 -0.0790272 0)
(1.98512 -0.0543675 0)
(1.99733 -0.0323712 0)
(2.01567 -0.0156138 0)
(2.03878 -0.00604438 0)
(2.0662 -0.00511997 0)
(2.09639 -0.0138306 0)
(2.12569 -0.0323055 0)
(2.151 -0.0596709 0)
(2.16984 -0.0939337 0)
(2.18201 -0.133045 0)
(2.18703 -0.174954 0)
(2.18512 -0.215995 0)
(2.17698 -0.254528 0)
(2.16331 -0.29009 0)
(2.14534 -0.321447 0)
(2.12493 -0.347698 0)
(2.10191 -0.368842 0)
(2.07711 -0.384585 0)
(2.05216 -0.395814 0)
(2.02713 -0.403503 0)
(2.00209 -0.408482 0)
(1.9768 -0.411495 0)
(1.95087 -0.412937 0)
(2.06604 -0.108779 0)
(2.05496 -0.0936021 0)
(2.05068 -0.0774189 0)
(2.05279 -0.0620298 0)
(2.06108 -0.0488138 0)
(2.07487 -0.03921 0)
(2.09312 -0.0345315 0)
(2.11442 -0.0359451 0)
(2.13695 -0.0440463 0)
(2.15895 -0.0589081 0)
(2.17825 -0.080074 0)
(2.19322 -0.106641 0)
(2.20498 -0.137186 0)
(2.20576 -0.170103 0)
(2.20355 -0.203752 0)
(2.19486 -0.236741 0)
(2.18064 -0.267986 0)
(2.16212 -0.296062 0)
(2.14026 -0.320095 0)
(2.11607 -0.339551 0)
(2.09054 -0.354634 0)
(2.06436 -0.365926 0)
(2.03795 -0.373983 0)
(2.01156 -0.379265 0)
(1.98524 -0.382188 0)
(1.95879 -0.383026 0)
(2.09095 -0.0945703 0)
(2.08166 -0.0860178 0)
(2.07781 -0.0765761 0)
(2.07899 -0.0671257 0)
(2.08474 -0.0590546 0)
(2.09494 -0.0536213 0)
(2.10834 -0.0519756 0)
(2.1238 -0.0550338 0)
(2.14006 -0.0633022 0)
(2.15566 -0.0768201 0)
(2.16924 -0.0952697 0)
(2.17946 -0.118153 0)
(2.18545 -0.143929 0)
(2.18699 -0.171317 0)
(2.18367 -0.199583 0)
(2.1754 -0.227351 0)
(2.1627 -0.253288 0)
(2.14616 -0.276682 0)
(2.12648 -0.296973 0)
(2.10445 -0.313834 0)
(2.08094 -0.327257 0)
(2.05666 -0.33755 0)
(2.03206 -0.345066 0)
(2.0074 -0.350101 0)
(1.98279 -0.352894 0)
(1.95824 -0.353589 0)
(2.09333 -0.0835495 0)
(2.08646 -0.0794634 0)
(2.08323 -0.0747939 0)
(2.08344 -0.0700804 0)
(2.0874 -0.0663492 0)
(2.09455 -0.0647181 0)
(2.10403 -0.0659543 0)
(2.11504 -0.0706245 0)
(2.12663 -0.0790618 0)
(2.13769 -0.0913122 0)
(2.14718 -0.10712 0)
(2.1542 -0.125951 0)
(2.15798 -0.146984 0)
(2.15808 -0.169424 0)
(2.15434 -0.192464 0)
(2.14678 -0.215127 0)
(2.13564 -0.236617 0)
(2.12131 -0.256409 0)
(2.10437 -0.274029 0)
(2.08547 -0.289128 0)
(2.06521 -0.301585 0)
(2.04412 -0.311459 0)
(2.02256 -0.318888 0)
(2.00078 -0.324015 0)
(1.97892 -0.326957 0)
(1.95708 -0.327782 0)
(2.09193 -0.0750878 0)
(2.08647 -0.0744908 0)
(2.08415 -0.0732873 0)
(2.08411 -0.0721885 0)
(2.08649 -0.0716371 0)
(2.09135 -0.0725517 0)
(2.09794 -0.0755068 0)
(2.10558 -0.080954 0)
(2.11358 -0.0891779 0)
(2.12113 -0.100238 0)
(2.12746 -0.113962 0)
(2.13188 -0.129997 0)
(2.13382 -0.147815 0)
(2.13296 -0.166765 0)
(2.12913 -0.186179 0)
(2.12231 -0.205407 0)
(2.11265 -0.223816 0)
(2.10044 -0.240901 0)
(2.08609 -0.256258 0)
(2.07002 -0.269589 0)
(2.05266 -0.280745 0)
(2.03438 -0.289709 0)
(2.01552 -0.296531 0)
(1.9963 -0.301282 0)
(1.9769 -0.304024 0)
(1.95748 -0.304796 0)
(2.09039 -0.0686482 0)
(2.08618 -0.0708022 0)
(2.08409 -0.0720334 0)
(2.0836 -0.0730906 0)
(2.08496 -0.0747787 0)
(2.08807 -0.0775465 0)
(2.09239 -0.0818432 0)
(2.09745 -0.0879869 0)
(2.10274 -0.0961767 0)
(2.10765 -0.106456 0)
(2.11161 -0.118705 0)
(2.11409 -0.132656 0)
(2.1147 -0.147918 0)
(2.11313 -0.164017 0)
(2.10922 -0.180462 0)
(2.10295 -0.19676 0)
(2.09442 -0.212419 0)
(2.08381 -0.227031 0)
(2.07137 -0.240311 0)
(2.05742 -0.252015 0)
(2.04229 -0.261967 0)
(2.02627 -0.270095 0)
(2.00964 -0.276383 0)
(1.99263 -0.28084 0)
(1.97541 -0.283483 0)
(1.95816 -0.284322 0)
(2.0872 -0.0637048 0)
(2.08389 -0.0674859 0)
(2.08187 -0.0704919 0)
(2.08114 -0.0734219 0)
(2.08183 -0.0767447 0)
(2.08372 -0.0808455 0)
(2.08646 -0.0860561 0)
(2.08969 -0.0926048 0)
(2.09303 -0.10064 0)
(2.09603 -0.110204 0)
(2.09825 -0.121213 0)
(2.09931 -0.133477 0)
(2.09888 -0.146717 0)
(2.09674 -0.16059 0)
(2.09275 -0.174721 0)
(2.08687 -0.188728 0)
(2.07916 -0.20224 0)
(2.06975 -0.214929 0)
(2.05882 -0.226543 0)
(2.04659 -0.236877 0)
(2.03331 -0.245753 0)
(2.01922 -0.253076 0)
(2.00455 -0.2588 0)
(1.9895 -0.262904 0)
(1.97424 -0.265385 0)
(1.95893 -0.266241 0)
(2.08246 -0.0599141 0)
(2.07984 -0.0648113 0)
(2.0781 -0.0690803 0)
(2.07732 -0.0732823 0)
(2.07752 -0.0777538 0)
(2.07853 -0.0827765 0)
(2.08012 -0.0885911 0)
(2.08202 -0.0953752 0)
(2.08392 -0.103244 0)
(2.08551 -0.112228 0)
(2.08645 -0.122268 0)
(2.08645 -0.133225 0)
(2.08527 -0.144891 0)
(2.08273 -0.157007 0)
(2.0787 -0.169289 0)
(2.07316 -0.181443 0)
(2.06613 -0.193181 0)
(2.0577 -0.204238 0)
(2.048 -0.214402 0)
(2.0372 -0.223504 0)
(2.02548 -0.231391 0)
(2.01303 -0.237961 0)
(2.00005 -0.24315 0)
(1.98671 -0.246926 0)
(1.97317 -0.249268 0)
(1.9596 -0.250167 0)
(2.07677 -0.0569949 0)
(2.07472 -0.0626339 0)
(2.07327 -0.0677884 0)
(2.07249 -0.0728807 0)
(2.07236 -0.0781462 0)
(2.07276 -0.0837854 0)
(2.07353 -0.0899804 0)
(2.07446 -0.0968694 0)
(2.07534 -0.104538 0)
(2.0759 -0.113008 0)
(2.07592 -0.122238 0)
(2.07517 -0.132122 0)
(2.07346 -0.142507 0)
(2.07065 -0.153198 0)
(2.06663 -0.16398 0)
(2.06139 -0.174625 0)
(2.05493 -0.184906 0)
(2.04731 -0.194614 0)
(2.03864 -0.203572 0)
(2.02902 -0.211637 0)
(2.01862 -0.218676 0)
(2.00759 -0.224588 0)
(1.99608 -0.229305 0)
(1.98424 -0.232787 0)
(1.97224 -0.235006 0)
(1.96021 -0.23595 0)
(2.07055 -0.0547923 0)
(2.06899 -0.060914 0)
(2.0678 -0.066656 0)
(2.06705 -0.0723266 0)
(2.06671 -0.0780989 0)
(2.06669 -0.0841183 0)
(2.06688 -0.0905217 0)
(2.06713 -0.097414 0)
(2.06726 -0.104858 0)
(2.06711 -0.11287 0)
(2.06647 -0.121418 0)
(2.06519 -0.130423 0)
(2.06312 -0.139769 0)
(2.06014 -0.149307 0)
(2.05619 -0.158872 0)
(2.05123 -0.168285 0)
(2.04527 -0.177369 0)
(2.03834 -0.185956 0)
(2.03054 -0.193901 0)
(2.02194 -0.201082 0)
(2.01267 -0.207384 0)
(2.00286 -0.212716 0)
(1.99263 -0.217014 0)
(1.98212 -0.220234 0)
(1.97146 -0.22235 0)
(1.96079 -0.223344 0)
(2.06409 -0.0531861 0)
(2.06292 -0.0595867 0)
(2.06197 -0.065684 0)
(2.06127 -0.071703 0)
(2.06081 -0.0777745 0)
(2.06051 -0.0840025 0)
(2.0603 -0.0904883 0)
(2.06007 -0.0973097 0)
(2.0597 -0.104513 0)
(2.05903 -0.112108 0)
(2.05795 -0.12007 0)
(2.05632 -0.128338 0)
(2.05402 -0.136822 0)
(2.05097 -0.145409 0)
(2.04712 -0.15397 0)
(2.04244 -0.162365 0)
(2.03692 -0.170454 0)
(2.0306 -0.178105 0)
(2.02355 -0.185197 0)
(2.01583 -0.191629 0)
(2.00753 -0.197302 0)
(1.99877 -0.202137 0)
(1.98966 -0.206075 0)
(1.9803 -0.209075 0)
(1.97083 -0.211108 0)
(1.96134 -0.21216 0)
(2.05761 -0.0520452 0)
(2.05677 -0.0585698 0)
(2.05602 -0.0648494 0)
(2.05539 -0.0710463 0)
(2.05485 -0.0772628 0)
(2.05438 -0.0835716 0)
(2.05391 -0.0900465 0)
(2.05336 -0.0967437 0)
(2.05263 -0.103696 0)
(2.05164 -0.110908 0)
(2.05026 -0.118358 0)
(2.0484 -0.126 0)
(2.04599 -0.133762 0)
(2.04294 -0.141558 0)
(2.03922 -0.149285 0)
(2.03481 -0.156834 0)
(2.0297 -0.164096 0)
(2.02392 -0.170963 0)
(2.01752 -0.177339 0)
(2.01056 -0.183139 0)
(2.00312 -0.188277 0)
(1.99528 -0.192689 0)
(1.98713 -0.196322 0)
(1.97878 -0.199137 0)
(1.97034 -0.20111 0)
(1.9619 -0.202225 0)
(2.05126 -0.0513092 0)
(2.05069 -0.0578385 0)
(2.05011 -0.0641699 0)
(2.04955 -0.0704193 0)
(2.04899 -0.0766669 0)
(2.04842 -0.0829625 0)
(2.04778 -0.0893578 0)
(2.04702 -0.0958921 0)
(2.04608 -0.102587 0)
(2.04487 -0.109442 0)
(2.04332 -0.11644 0)
(2.04135 -0.123541 0)
(2.03889 -0.130689 0)
(2.0359 -0.137816 0)
(2.03234 -0.144842 0)
(2.0282 -0.151681 0)
(2.02347 -0.158247 0)
(2.01818 -0.164454 0)
(2.01236 -0.170227 0)
(2.00607 -0.17549 0)
(1.99936 -0.180175 0)
(1.99232 -0.184228 0)
(1.98502 -0.187604 0)
(1.97756 -0.190269 0)
(1.97002 -0.1922 0)
(1.9625 -0.193383 0)
(2.04518 -0.0508559 0)
(2.04483 -0.0573032 0)
(2.0444 -0.0635936 0)
(2.04391 -0.0698069 0)
(2.04336 -0.076006 0)
(2.04273 -0.0822235 0)
(2.042 -0.0884938 0)
(2.04112 -0.0948425 0)
(2.04005 -0.101281 0)
(2.03872 -0.107807 0)
(2.03708 -0.114401 0)
(2.03507 -0.121031 0)
(2.03265 -0.127653 0)
(2.02976 -0.13421 0)
(2.02638 -0.140642 0)
(2.02251 -0.14688 0)
(2.01813 -0.152857 0)
(2.01328 -0.158506 0)
(2.00798 -0.163765 0)
(2.00228 -0.168572 0)
(1.99623 -0.172874 0)
(1.98989 -0.176624 0)
(1.98334 -0.179787 0)
(1.97666 -0.182332 0)
(1.96992 -0.18424 0)
(1.96321 -0.185499 0)
(2.03947 -0.0506832 0)
(2.03929 -0.0569814 0)
(2.03897 -0.0631598 0)
(2.03855 -0.0692719 0)
(2.03803 -0.0753634 0)
(2.03738 -0.0814557 0)
(2.03661 -0.0875688 0)
(2.03568 -0.0937169 0)
(2.03455 -0.0999034 0)
(2.03318 -0.106121 0)
(2.03153 -0.112351 0)
(2.02955 -0.118564 0)
(2.0272 -0.124725 0)
(2.02445 -0.130789 0)
(2.02127 -0.136709 0)
(2.01767 -0.142431 0)
(2.01364 -0.147904 0)
(2.0092 -0.153075 0)
(2.00438 -0.157894 0)
(1.9992 -0.162312 0)
(1.99373 -0.166289 0)
(1.98803 -0.169787 0)
(1.98214 -0.172775 0)
(1.97615 -0.175229 0)
(1.97012 -0.177134 0)
(1.96413 -0.178477 0)
(2.03424 -0.0506511 0)
(2.03419 -0.0567577 0)
(2.03398 -0.0627795 0)
(2.03361 -0.0687513 0)
(2.03312 -0.0747024 0)
(2.03249 -0.0806453 0)
(2.03171 -0.0865886 0)
(2.03077 -0.0925365 0)
(2.02964 -0.0984848 0)
(2.02829 -0.104421 0)
(2.02668 -0.110325 0)
(2.02478 -0.116172 0)
(2.02255 -0.121933 0)
(2.01997 -0.127572 0)
(2.01702 -0.133051 0)
(2.0137 -0.138331 0)
(2.00999 -0.143371 0)
(2.00593 -0.148133 0)
(2.00153 -0.15258 0)
(1.99683 -0.15667 0)
(1.99187 -0.160376 0)
(1.9867 -0.163667 0)
(1.98138 -0.166515 0)
(1.97596 -0.168908 0)
(1.97052 -0.170825 0)
(1.96511 -0.172259 0)
(2.0296 -0.0508173 0)
(2.02964 -0.0566973 0)
(2.0295 -0.0625267 0)
(2.02919 -0.0683278 0)
(2.02873 -0.074115 0)
(2.02812 -0.0798919 0)
(2.02737 -0.0856578 0)
(2.02645 -0.0914078 0)
(2.02536 -0.0971301 0)
(2.02407 -0.102811 0)
(2.02254 -0.108421 0)
(2.02075 -0.113939 0)
(2.01867 -0.119336 0)
(2.01626 -0.124589 0)
(2.01352 -0.129667 0)
(2.01043 -0.134544 0)
(2.007 -0.139191 0)
(2.00324 -0.143576 0)
(1.99916 -0.147676 0)
(1.99481 -0.151459 0)
(1.99021 -0.154902 0)
(1.98539 -0.157985 0)
(1.98043 -0.16068 0)
(1.97536 -0.162982 0)
(1.97023 -0.164876 0)
(1.9651 -0.166348 0)
(2.02565 -0.0510068 0)
(2.02574 -0.0566459 0)
(2.02562 -0.0622729 0)
(2.02532 -0.0678943 0)
(2.02486 -0.0735128 0)
(2.02426 -0.0791257 0)
(2.02351 -0.0847228 0)
(2.02261 -0.090296 0)
(2.02154 -0.0958132 0)
(2.02029 -0.101259 0)
(2.01883 -0.106599 0)
(2.01711 -0.111816 0)
(2.01511 -0.116884 0)
(2.0128 -0.121781 0)
(2.01016 -0.126493 0)
(2.00717 -0.130999 0)
(2.00384 -0.135283 0)
(2.00016 -0.139324 0)
(1.99616 -0.143104 0)
(1.99187 -0.146605 0)
(1.9873 -0.149806 0)
(1.9825 -0.152699 0)
(1.9775 -0.155263 0)
(1.97237 -0.157484 0)
(1.96711 -0.159367 0)
(1.96181 -0.16088 0)
(2.02192 -0.0512848 0)
(2.02194 -0.0566617 0)
(2.02173 -0.0620584 0)
(2.02132 -0.0674784 0)
(2.02074 -0.0729185 0)
(2.02 -0.0783651 0)
(2.01912 -0.083796 0)
(2.01808 -0.0892037 0)
(2.01688 -0.094525 0)
(2.01549 -0.0997555 0)
(2.01388 -0.104831 0)
(2.01199 -0.109749 0)
(2.00977 -0.114473 0)
(2.00719 -0.119007 0)
(2.00423 -0.123337 0)
(2.00086 -0.127451 0)
(1.99708 -0.131341 0)
(1.99289 -0.134996 0)
(1.9883 -0.138405 0)
(1.98332 -0.141559 0)
(1.97798 -0.144445 0)
(1.9723 -0.147053 0)
(1.96632 -0.149374 0)
(1.96006 -0.1514 0)
(1.95355 -0.153124 0)
(1.94683 -0.154538 0)
(2.01442 -0.0513512 0)
(2.01397 -0.0564472 0)
(2.01324 -0.0616007 0)
(2.01226 -0.0668131 0)
(2.01107 -0.072073 0)
(2.00968 -0.0773541 0)
(2.00809 -0.082621 0)
(2.00629 -0.0878368 0)
(2.00428 -0.0929546 0)
(2.002 -0.097922 0)
(1.99941 -0.102691 0)
(1.99643 -0.107229 0)
(1.99299 -0.111523 0)
(1.98905 -0.115578 0)
(1.98455 -0.119402 0)
(1.97947 -0.122997 0)
(1.97378 -0.126361 0)
(1.96746 -0.129494 0)
(1.96051 -0.132394 0)
(1.95293 -0.135055 0)
(1.94472 -0.13747 0)
(1.93588 -0.139633 0)
(1.92642 -0.141536 0)
(1.91638 -0.143171 0)
(1.90569 -0.144529 0)
(1.89444 -0.145591 0)
(1.98557 -0.0504558 0)
(1.98367 -0.0551641 0)
(1.98133 -0.0599638 0)
(1.97858 -0.0648488 0)
(1.97544 -0.0698077 0)
(1.97195 -0.0748118 0)
(1.96807 -0.0798119 0)
(1.9638 -0.0847454 0)
(1.95909 -0.0895381 0)
(1.95389 -0.0941186 0)
(1.94812 -0.0984198 0)
(1.94165 -0.102393 0)
(1.93437 -0.106026 0)
(1.92619 -0.10934 0)
(1.91702 -0.112358 0)
(1.90683 -0.115096 0)
(1.89557 -0.117565 0)
(1.88323 -0.119772 0)
(1.86978 -0.121721 0)
(1.8552 -0.123415 0)
(1.83949 -0.124855 0)
(1.82265 -0.126039 0)
(1.80467 -0.126963 0)
(1.78558 -0.127628 0)
(1.76542 -0.128042 0)
(1.74421 -0.128202 0)
(1.88592 -0.0477024 0)
(1.87992 -0.051807 0)
(1.87311 -0.0560104 0)
(1.86551 -0.0603739 0)
(1.8571 -0.0648174 0)
(1.84784 -0.0692221 0)
(1.83775 -0.0735871 0)
(1.82678 -0.0778634 0)
(1.81489 -0.0819273 0)
(1.80198 -0.0856627 0)
(1.78794 -0.0889946 0)
(1.7726 -0.0918844 0)
(1.75579 -0.0943445 0)
(1.73739 -0.0964127 0)
(1.71732 -0.0981252 0)
(1.69556 -0.0995135 0)
(1.67209 -0.100602 0)
(1.64689 -0.101405 0)
(1.61997 -0.101931 0)
(1.59134 -0.102182 0)
(1.56103 -0.102166 0)
(1.52909 -0.101891 0)
(1.49555 -0.101361 0)
(1.46053 -0.100579 0)
(1.42383 -0.0994736 0)
(1.38539 -0.0979949 0)
(1.57009 -0.0368883 0)
(1.5553 -0.0397273 0)
(1.53906 -0.0426572 0)
(1.52134 -0.0456727 0)
(1.50209 -0.048756 0)
(1.48129 -0.0518754 0)
(1.45894 -0.0549765 0)
(1.43502 -0.057963 0)
(1.40949 -0.060685 0)
(1.38226 -0.0629018 0)
(1.35248 -0.0643998 0)
(1.32002 -0.0651617 0)
(1.28487 -0.0652773 0)
(1.24715 -0.0648544 0)
(1.20705 -0.0639692 0)
(1.16483 -0.0626873 0)
(1.12069 -0.0610717 0)
(1.07486 -0.0591667 0)
(1.02755 -0.0570511 0)
(0.978977 -0.0547591 0)
(0.929322 -0.0523064 0)
(0.878759 -0.0497014 0)
(0.827538 -0.0469514 0)
(0.775758 -0.0440274 0)
(0.723962 -0.0409391 0)
(0.673127 -0.0377574 0)
(0.744229 -0.0180494 0)
(0.719247 -0.0190843 0)
(0.692539 -0.02015 0)
(0.664047 -0.0212405 0)
(0.633723 -0.0223331 0)
(0.60155 -0.0233858 0)
(0.567535 -0.0243432 0)
(0.531768 -0.0251065 0)
(0.494338 -0.0254623 0)
(0.455573 -0.024915 0)
(0.417362 -0.0231179 0)
(0.380193 -0.0202887 0)
(0.344102 -0.017002 0)
(0.309486 -0.0137285 0)
(0.276695 -0.0106283 0)
(0.245842 -0.00774644 0)
(0.216947 -0.0050984 0)
(0.190037 -0.00266924 0)
(0.165143 -0.000368726 0)
(0.142285 0.00184869 0)
(0.121471 0.00393164 0)
(0.102697 0.00586596 0)
(0.0859706 0.00763223 0)
(0.0711754 0.00894628 0)
(0.0580522 0.00950045 0)
(0.0463415 0.00954884 0)
(0.84337 -0.262101 0)
(0.926197 -0.372111 0)
(0.974672 -0.468652 0)
(0.989911 -0.536221 0)
(0.981537 -0.569814 0)
(0.956224 -0.581034 0)
(0.918483 -0.567094 0)
(0.87125 -0.529578 0)
(0.814993 -0.474108 0)
(0.745564 -0.41031 0)
(0.658973 -0.347468 0)
(0.558703 -0.287392 0)
(0.466984 -0.221635 0)
(0.407498 -0.136229 0)
(0.392125 -0.0250737 0)
(0.416086 0.103808 0)
(0.468638 0.235225 0)
(0.539671 0.357327 0)
(0.623628 0.463477 0)
(0.718806 0.549178 0)
(0.825744 0.60946 0)
(0.945347 0.638176 0)
(1.07781 0.629056 0)
(1.22141 0.576275 0)
(1.37258 0.476202 0)
(1.52628 0.331039 0)
(1.67237 0.155409 0)
(1.7951 -0.0227696 0)
(1.88673 -0.184213 0)
(1.94666 -0.3199 0)
(1.97831 -0.426925 0)
(1.98694 -0.506228 0)
(1.97805 -0.5614 0)
(1.95589 -0.596692 0)
(1.9238 -0.615086 0)
(1.88647 -0.620377 0)
(1.84718 -0.617773 0)
(1.80861 -0.610821 0)
(1.77197 -0.601686 0)
(1.73747 -0.591685 0)
(1.70497 -0.581596 0)
(1.67414 -0.571902 0)
(1.64452 -0.562898 0)
(1.61564 -0.554722 0)
(1.5871 -0.54731 0)
(1.5586 -0.540468 0)
(1.52974 -0.534166 0)
(1.49963 -0.528951 0)
(1.4669 -0.526086 0)
(1.43019 -0.526657 0)
(1.38929 -0.529682 0)
(1.34599 -0.530751 0)
(1.30361 -0.522843 0)
(1.26602 -0.498275 0)
(1.23656 -0.45134 0)
(1.21725 -0.380245 0)
(1.20928 -0.287325 0)
(1.21187 -0.177617 0)
(1.22433 -0.0579052 0)
(1.24414 0.0633048 0)
(1.26922 0.179107 0)
(1.29802 0.285702 0)
(1.3288 0.380436 0)
(1.35995 0.461876 0)
(1.39013 0.529749 0)
(1.41833 0.584765 0)
(1.44384 0.628388 0)
(1.46621 0.662561 0)
(1.48521 0.689579 0)
(1.50072 0.711907 0)
(1.51274 0.731818 0)
(1.52152 0.750753 0)
(1.52764 0.768748 0)
(1.53207 0.784529 0)
(1.53567 0.796197 0)
(1.53856 0.802567 0)
(1.54075 0.80401 0)
(1.54262 0.7952 0)
(1.5443 0.766953 0)
(1.54615 0.721505 0)
(1.54834 0.657848 0)
(1.55098 0.576081 0)
(1.55418 0.477639 0)
(1.55809 0.36522 0)
(1.56284 0.24278 0)
(1.56837 0.115989 0)
(1.57431 -0.00832817 0)
(1.58022 -0.125678 0)
(1.58565 -0.232366 0)
(1.59015 -0.325762 0)
(1.59335 -0.404323 0)
(1.59498 -0.467593 0)
(1.59492 -0.51607 0)
(1.59313 -0.550955 0)
(1.58972 -0.573894 0)
(1.58508 -0.586789 0)
(1.57864 -0.591335 0)
(1.57031 -0.587943 0)
(1.56029 -0.578633 0)
(1.5487 -0.565366 0)
(1.53577 -0.54967 0)
(1.52152 -0.532706 0)
(1.50595 -0.51527 0)
(1.48905 -0.497793 0)
(1.47094 -0.480296 0)
(1.45195 -0.462345 0)
(1.4326 -0.443056 0)
(1.41369 -0.421206 0)
(1.39608 -0.39545 0)
(1.38068 -0.364597 0)
(1.36821 -0.327858 0)
(1.3592 -0.285019 0)
(1.3539 -0.236483 0)
(1.3523 -0.18319 0)
(1.3542 -0.126434 0)
(1.35925 -0.0677263 0)
(1.15378 -0.377998 0)
(1.22082 -0.450279 0)
(1.24716 -0.501951 0)
(1.24975 -0.537286 0)
(1.23651 -0.551428 0)
(1.21047 -0.547815 0)
(1.17668 -0.525266 0)
(1.13923 -0.484726 0)
(1.10249 -0.428245 0)
(1.06871 -0.358888 0)
(1.03627 -0.280636 0)
(0.999577 -0.198843 0)
(0.952321 -0.120282 0)
(0.894341 -0.0490182 0)
(0.834831 0.0177683 0)
(0.794558 0.0932687 0)
(0.790643 0.180994 0)
(0.823133 0.272322 0)
(0.886056 0.356556 0)
(0.973967 0.424444 0)
(1.08255 0.468675 0)
(1.20797 0.483375 0)
(1.34612 0.463331 0)
(1.49229 0.403797 0)
(1.64112 0.302311 0)
(1.78405 0.16481 0)
(1.90541 0.0138523 0)
(1.99445 -0.128484 0)
(2.05029 -0.252001 0)
(2.07608 -0.35356 0)
(2.07767 -0.433181 0)
(2.06163 -0.492056 0)
(2.03243 -0.532488 0)
(1.99402 -0.556921 0)
(1.95093 -0.56899 0)
(1.90685 -0.572883 0)
(1.86405 -0.57161 0)
(1.82357 -0.567116 0)
(1.7857 -0.56073 0)
(1.75032 -0.553338 0)
(1.71708 -0.545491 0)
(1.68559 -0.537539 0)
(1.65535 -0.529727 0)
(1.62588 -0.522213 0)
(1.59674 -0.515026 0)
(1.56762 -0.508032 0)
(1.53825 -0.501003 0)
(1.50814 -0.49401 0)
(1.47625 -0.487833 0)
(1.44112 -0.483788 0)
(1.40166 -0.482471 0)
(1.35841 -0.481836 0)
(1.31414 -0.476332 0)
(1.27305 -0.458621 0)
(1.23936 -0.422013 0)
(1.21588 -0.362957 0)
(1.20463 -0.282235 0)
(1.20335 -0.18419 0)
(1.21257 -0.0747181 0)
(1.23116 0.0389129 0)
(1.25519 0.149277 0)
(1.28346 0.252351 0)
(1.3143 0.345411 0)
(1.34612 0.42682 0)
(1.37758 0.496008 0)
(1.40762 0.553369 0)
(1.43544 0.600022 0)
(1.46052 0.637664 0)
(1.48251 0.668398 0)
(1.50127 0.694507 0)
(1.5169 0.717972 0)
(1.52983 0.739811 0)
(1.54084 0.759773 0)
(1.55072 0.77677 0)
(1.55973 0.789718 0)
(1.56748 0.797979 0)
(1.57516 0.799675 0)
(1.5833 0.788769 0)
(1.59176 0.761277 0)
(1.59989 0.715937 0)
(1.60783 0.652163 0)
(1.61568 0.57023 0)
(1.62339 0.471566 0)
(1.6309 0.35885 0)
(1.63819 0.236129 0)
(1.64505 0.10926 0)
(1.65108 -0.0146594 0)
(1.6559 -0.131156 0)
(1.65921 -0.23656 0)
(1.66076 -0.328305 0)
(1.66038 -0.404964 0)
(1.65805 -0.466212 0)
(1.65378 -0.512678 0)
(1.64772 -0.54569 0)
(1.64023 -0.566974 0)
(1.63147 -0.578382 0)
(1.62076 -0.580933 0)
(1.60882 -0.575657 0)
(1.59557 -0.564823 0)
(1.58125 -0.550235 0)
(1.56607 -0.533308 0)
(1.55003 -0.515105 0)
(1.5331 -0.496387 0)
(1.5152 -0.477635 0)
(1.49633 -0.459024 0)
(1.47663 -0.440355 0)
(1.45648 -0.421011 0)
(1.43652 -0.399993 0)
(1.41757 -0.376065 0)
(1.40053 -0.347993 0)
(1.38625 -0.314803 0)
(1.37535 -0.276004 0)
(1.36822 -0.231692 0)
(1.36493 -0.182528 0)
(1.36532 -0.1296 0)
(1.36907 -0.0742725 0)
(1.44807 -0.442831 0)
(1.48379 -0.483753 0)
(1.49015 -0.509182 0)
(1.48174 -0.523671 0)
(1.46087 -0.526028 0)
(1.43141 -0.513254 0)
(1.39674 -0.485522 0)
(1.36015 -0.443872 0)
(1.32498 -0.390176 0)
(1.29403 -0.326847 0)
(1.26934 -0.256407 0)
(1.25243 -0.180717 0)
(1.24331 -0.0992095 0)
(1.23818 -0.013751 0)
(1.23464 0.0633194 0)
(1.23236 0.129564 0)
(1.23565 0.188278 0)
(1.25389 0.242213 0)
(1.29379 0.288981 0)
(1.35774 0.324326 0)
(1.44418 0.342759 0)
(1.54891 0.338844 0)
(1.66635 0.307504 0)
(1.79006 0.244742 0)
(1.91117 0.150702 0)
(2.01482 0.0372848 0)
(2.08884 -0.0775552 0)
(2.1318 -0.182355 0)
(2.14718 -0.273817 0)
(2.14331 -0.350475 0)
(2.1243 -0.41151 0)
(2.0904 -0.456336 0)
(2.04906 -0.486885 0)
(2.00374 -0.506205 0)
(1.95775 -0.51752 0)
(1.91316 -0.523138 0)
(1.8709 -0.524632 0)
(1.83127 -0.523196 0)
(1.79421 -0.519736 0)
(1.75944 -0.51491 0)
(1.7266 -0.50918 0)
(1.69531 -0.502852 0)
(1.66516 -0.496134 0)
(1.63574 -0.489191 0)
(1.60661 -0.482153 0)
(1.57747 -0.475029 0)
(1.54809 -0.467588 0)
(1.51823 -0.459553 0)
(1.48733 -0.451111 0)
(1.45423 -0.443241 0)
(1.41747 -0.437189 0)
(1.37638 -0.432917 0)
(1.33233 -0.427397 0)
(1.289 -0.414534 0)
(1.25106 -0.387408 0)
(1.22246 -0.340802 0)
(1.20615 -0.273137 0)
(1.20254 -0.187311 0)
(1.20774 -0.0888808 0)
(1.2246 0.0159152 0)
(1.24744 0.120324 0)
(1.27491 0.219377 0)
(1.30548 0.31018 0)
(1.33754 0.390929 0)
(1.3698 0.460818 0)
(1.40116 0.519935 0)
(1.43077 0.569123 0)
(1.45804 0.609832 0)
(1.48259 0.643931 0)
(1.50432 0.673396 0)
(1.52343 0.699811 0)
(1.54047 0.723875 0)
(1.55611 0.745349 0)
(1.57082 0.763478 0)
(1.58461 0.777442 0)
(1.59765 0.786205 0)
(1.61131 0.78709 0)
(1.62559 0.775816 0)
(1.6402 0.748579 0)
(1.65451 0.703586 0)
(1.66836 0.640227 0)
(1.6816 0.558839 0)
(1.69391 0.460887 0)
(1.70502 0.349051 0)
(1.7147 0.227385 0)
(1.72261 0.101952 0)
(1.72838 -0.0201955 0)
(1.73178 -0.134609 0)
(1.73269 -0.237712 0)
(1.73107 -0.327034 0)
(1.727 -0.401278 0)
(1.72063 -0.460232 0)
(1.7122 -0.504583 0)
(1.70205 -0.535741 0)
(1.69055 -0.555465 0)
(1.67759 -0.565328 0)
(1.66306 -0.566144 0)
(1.64762 -0.559568 0)
(1.6313 -0.54773 0)
(1.61438 -0.532334 0)
(1.59703 -0.514695 0)
(1.57928 -0.495774 0)
(1.56107 -0.476252 0)
(1.5423 -0.456603 0)
(1.52285 -0.437094 0)
(1.50272 -0.417722 0)
(1.48211 -0.398143 0)
(1.46146 -0.377632 0)
(1.44149 -0.355151 0)
(1.42304 -0.329521 0)
(1.40703 -0.299658 0)
(1.3942 -0.264828 0)
(1.38508 -0.224809 0)
(1.37988 -0.179947 0)
(1.37855 -0.131075 0)
(1.3808 -0.079374 0)
(1.68196 -0.473275 0)
(1.68528 -0.489447 0)
(1.6747 -0.501445 0)
(1.65312 -0.504044 0)
(1.62402 -0.495811 0)
(1.58997 -0.47641 0)
(1.55372 -0.446045 0)
(1.51831 -0.405267 0)
(1.48648 -0.35523 0)
(1.46038 -0.297586 0)
(1.44148 -0.234179 0)
(1.43056 -0.166963 0)
(1.42832 -0.0981109 0)
(1.4358 -0.0293304 0)
(1.45441 0.0396747 0)
(1.48312 0.104464 0)
(1.51918 0.160479 0)
(1.5631 0.205606 0)
(1.61649 0.237704 0)
(1.67997 0.254765 0)
(1.75354 0.255199 0)
(1.83561 0.236727 0)
(1.92277 0.196488 0)
(2.00903 0.133525 0)
(2.08548 0.054519 0)
(2.14259 -0.0302711 0)
(2.17107 -0.116651 0)
(2.17955 -0.196773 0)
(2.17698 -0.267846 0)
(2.15498 -0.3278 0)
(2.12182 -0.374458 0)
(2.08208 -0.40967 0)
(2.03895 -0.435874 0)
(1.99504 -0.454786 0)
(1.952 -0.467701 0)
(1.91068 -0.475777 0)
(1.87141 -0.480025 0)
(1.83428 -0.481307 0)
(1.79916 -0.480329 0)
(1.76586 -0.477646 0)
(1.7341 -0.473678 0)
(1.70359 -0.468726 0)
(1.67403 -0.46299 0)
(1.6451 -0.456619 0)
(1.61648 -0.44975 0)
(1.58787 -0.442464 0)
(1.55899 -0.434639 0)
(1.52973 -0.42595 0)
(1.49987 -0.416154 0)
(1.46878 -0.405595 0)
(1.43519 -0.395391 0)
(1.39774 -0.386634 0)
(1.3563 -0.378694 0)
(1.31314 -0.367801 0)
(1.27262 -0.347812 0)
(1.23949 -0.312719 0)
(1.21743 -0.258855 0)
(1.20825 -0.186495 0)
(1.21097 -0.0999756 0)
(1.22426 -0.00493802 0)
(1.24529 0.0927716 0)
(1.2716 0.187227 0)
(1.30147 0.275199 0)
(1.33338 0.354701 0)
(1.366 0.424702 0)
(1.39822 0.485031 0)
(1.42915 0.536268 0)
(1.45817 0.579594 0)
(1.48492 0.61657 0)
(1.50934 0.648807 0)
(1.5317 0.677529 0)
(1.55249 0.703269 0)
(1.57223 0.725885 0)
(1.59127 0.744826 0)
(1.60977 0.759295 0)
(1.62825 0.767964 0)
(1.64755 0.768168 0)
(1.66751 0.756255 0)
(1.68796 0.728978 0)
(1.70828 0.684426 0)
(1.7279 0.621918 0)
(1.74629 0.54184 0)
(1.76291 0.445667 0)
(1.77728 0.336011 0)
(1.78901 0.216855 0)
(1.79768 0.0943394 0)
(1.80299 -0.0246842 0)
(1.80486 -0.135842 0)
(1.80335 -0.235696 0)
(1.79865 -0.321906 0)
(1.79101 -0.393273 0)
(1.78081 -0.44968 0)
(1.76843 -0.49189 0)
(1.75435 -0.521277 0)
(1.73895 -0.53951 0)
(1.72207 -0.547901 0)
(1.7041 -0.547419 0)
(1.68553 -0.539984 0)
(1.66649 -0.5276 0)
(1.64726 -0.511867 0)
(1.62798 -0.493995 0)
(1.6087 -0.474834 0)
(1.58937 -0.454971 0)
(1.56985 -0.434826 0)
(1.55 -0.414698 0)
(1.52967 -0.39473 0)
(1.5089 -0.374814 0)
(1.48793 -0.354509 0)
(1.4673 -0.333045 0)
(1.44776 -0.309402 0)
(1.43019 -0.282496 0)
(1.41547 -0.251419 0)
(1.40426 -0.215656 0)
(1.39696 -0.175215 0)
(1.39365 -0.130618 0)
(1.39414 -0.0828093 0)
(1.82871 -0.469489 0)
(1.81224 -0.474462 0)
(1.788 -0.475442 0)
(1.75758 -0.469614 0)
(1.72323 -0.456136 0)
(1.68716 -0.434661 0)
(1.65152 -0.405126 0)
(1.61847 -0.367918 0)
(1.58994 -0.323874 0)
(1.56754 -0.274157 0)
(1.55252 -0.220115 0)
(1.54585 -0.163159 0)
(1.54832 -0.104607 0)
(1.56034 -0.0460027 0)
(1.58218 0.0105669 0)
(1.61422 0.0624913 0)
(1.6557 0.107514 0)
(1.70536 0.143284 0)
(1.76197 0.16742 0)
(1.82406 0.177948 0)
(1.8898 0.173334 0)
(1.95677 0.152413 0)
(2.02162 0.114803 0)
(2.07899 0.0625831 0)
(2.12293 0.00189459 0)
(2.15231 -0.0614515 0)
(2.16347 -0.125962 0)
(2.16213 -0.188225 0)
(2.14661 -0.244512 0)
(2.12122 -0.292228 0)
(2.0895 -0.331852 0)
(2.054 -0.364122 0)
(2.0166 -0.38965 0)
(1.97863 -0.409099 0)
(1.94098 -0.423277 0)
(1.90423 -0.433037 0)
(1.86871 -0.439167 0)
(1.83457 -0.442352 0)
(1.80181 -0.443168 0)
(1.77035 -0.442084 0)
(1.74004 -0.43947 0)
(1.71069 -0.435602 0)
(1.6821 -0.430668 0)
(1.65405 -0.424797 0)
(1.62629 -0.418102 0)
(1.59858 -0.410677 0)
(1.57066 -0.4025 0)
(1.54236 -0.393356 0)
(1.51366 -0.382874 0)
(1.48439 -0.370842 0)
(1.45385 -0.357715 0)
(1.42069 -0.344693 0)
(1.38367 -0.332751 0)
(1.34313 -0.320896 0)
(1.30209 -0.304973 0)
(1.26538 -0.279045 0)
(1.23777 -0.238088 0)
(1.22242 -0.180071 0)
(1.22001 -0.106785 0)
(1.22919 -0.0225387 0)
(1.24759 0.0671718 0)
(1.27238 0.156355 0)
(1.30126 0.240887 0)
(1.33267 0.318574 0)
(1.36529 0.388139 0)
(1.39797 0.449157 0)
(1.42983 0.501935 0)
(1.46023 0.547354 0)
(1.48884 0.586639 0)
(1.51564 0.62104 0)
(1.54088 0.651511 0)
(1.56499 0.678488 0)
(1.58839 0.701897 0)
(1.61142 0.721275 0)
(1.63435 0.735792 0)