/*--------------------------------*- C++ -*----------------------------------*\
| =========                 |                                                 |
| \\      /  F ield         | OpenFOAM: The Open Source CFD Toolbox           |
|  \\    /   O peration     | Version:  2206                                  |
|   \\  /    A nd           | Website:  www.openfoam.com                      |
|    \\/     M anipulation  |                                                 |
\*---------------------------------------------------------------------------*/
FoamFile
{
    version     2.0;
    format      ascii;
    arch        "LSB;label=32;scalar=64";
    class       volScalarField;
    location    "19.1001";
    object      p;
}
// * * * * * * * * * * * * * * * * * * * * * * * * * * * * * * * * * * * * * //

dimensions      [0 2 -2 0 0 0 0];

internalField   nonuniform List<scalar> 
3080
(
-1.20258
-1.16957
-1.14454
-1.06953
-0.942108
-0.783076
-0.602605
-0.417574
-0.246365
-0.105391
-0.00179024
0.0699712
0.118017
0.144399
0.149382
0.136732
0.107618
0.0595091
-0.0119853
-0.109903
-0.232109
-0.374111
-0.52034
-0.647728
-0.736468
-0.779326
-0.778391
-0.744185
-0.689483
-0.624675
-0.556478
-0.492148
-0.438199
-0.395009
-0.360135
-0.332646
-0.311455
-0.29563
-0.284431
-0.277139
-0.273343
-0.272746
-0.2753
-0.281324
-0.291276
-0.304817
-0.320655
-0.337381
-0.352099
-0.360832
-0.363
-0.359967
-0.35072
-0.336727
-0.319957
-0.30211
-0.284695
-0.26894
-0.255704
-0.2455
-0.238607
-0.235234
-0.235918
-0.241881
-0.253383
-0.267311
-0.286809
-0.310344
-0.335089
-0.358731
-0.378391
-0.391253
-0.395654
-0.391133
-0.378051
-0.357823
-0.332286
-0.303443
-0.273231
-0.242998
-0.212999
-0.185324
-0.162526
-0.143857
-0.128869
-0.117664
-0.110173
-0.106241
-0.105635
-0.108001
-0.112842
-0.119478
-0.12707
-0.134688
-0.141394
-0.146395
-0.149094
-0.149173
-0.146635
-0.141576
-0.134391
-0.12563
-0.115927
-0.105945
-0.0963296
-0.087675
-0.0804482
-0.0751737
-0.0725609
-0.0722717
-0.0738793
-0.077765
-0.0840346
-0.0921902
-1.0887
-1.10858
-1.10865
-1.0624
-0.970575
-0.843088
-0.692361
-0.543171
-0.410721
-0.301293
-0.214964
-0.148159
-0.0975862
-0.0691981
-0.0509689
-0.0457316
-0.054311
-0.0790543
-0.123619
-0.194155
-0.289598
-0.40436
-0.534318
-0.657998
-0.751136
-0.802903
-0.81054
-0.780968
-0.727033
-0.66071
-0.591108
-0.522404
-0.46141
-0.411543
-0.373701
-0.344262
-0.321936
-0.305986
-0.295319
-0.289246
-0.287393
-0.289429
-0.295446
-0.305867
-0.32082
-0.339497
-0.360291
-0.38081
-0.397289
-0.406556
-0.407797
-0.402063
-0.389399
-0.371754
-0.351241
-0.329812
-0.309111
-0.290431
-0.274719
-0.262502
-0.253852
-0.248632
-0.247441
-0.251392
-0.261592
-0.274939
-0.293614
-0.316172
-0.340236
-0.36345
-0.383041
-0.396253
-0.401074
-0.397395
-0.38525
-0.365935
-0.341235
-0.31312
-0.283551
-0.254204
-0.225796
-0.198502
-0.17524
-0.156803
-0.142133
-0.13121
-0.12405
-0.120504
-0.120345
-0.12324
-0.128695
-0.136008
-0.144295
-0.152533
-0.159732
-0.165043
-0.167797
-0.167694
-0.164669
-0.158882
-0.150788
-0.140994
-0.130198
-0.119123
-0.108456
-0.0988184
-0.090714
-0.0846358
-0.0813965
-0.0805323
-0.0816472
-0.0851383
-0.091055
-0.0989222
-0.983606
-0.996476
-1.00353
-0.985176
-0.936633
-0.862234
-0.772237
-0.684206
-0.604612
-0.530701
-0.461798
-0.401976
-0.349593
-0.297855
-0.255805
-0.22621
-0.211498
-0.213521
-0.233313
-0.274098
-0.33957
-0.424734
-0.527088
-0.637424
-0.729122
-0.785741
-0.803706
-0.78385
-0.736464
-0.67364
-0.605368
-0.538036
-0.47644
-0.42442
-0.383352
-0.353633
-0.330917
-0.31524
-0.305733
-0.30148
-0.302025
-0.307196
-0.31721
-0.332575
-0.352911
-0.377092
-0.403136
-0.427039
-0.444782
-0.453732
-0.453399
-0.444339
-0.427614
-0.405616
-0.380737
-0.355189
-0.330731
-0.308713
-0.290097
-0.275436
-0.264641
-0.257512
-0.254695
-0.256572
-0.263752
-0.277663
-0.295002
-0.315638
-0.338433
-0.360731
-0.379803
-0.393031
-0.398388
-0.395657
-0.384746
-0.366827
-0.343584
-0.316887
-0.288628
-0.260504
-0.233737
-0.208431
-0.185475
-0.167198
-0.153183
-0.142842
-0.136267
-0.133345
-0.133837
-0.13745
-0.143704
-0.151868
-0.160969
-0.16991
-0.177666
-0.1833
-0.186068
-0.185691
-0.182055
-0.175392
-0.166228
-0.155237
-0.143194
-0.130879
-0.119018
-0.108262
-0.0991284
-0.0921335
-0.0881974
-0.0865552
-0.0868283
-0.0898955
-0.0953368
-0.102755
-0.853609
-0.870354
-0.882516
-0.882932
-0.872258
-0.853277
-0.830813
-0.809434
-0.789602
-0.763782
-0.720493
-0.660854
-0.589165
-0.511447
-0.439264
-0.379634
-0.336364
-0.312728
-0.309494
-0.3242
-0.363174
-0.424893
-0.499913
-0.588847
-0.67351
-0.732514
-0.758131
-0.750562
-0.714748
-0.660853
-0.598664
-0.535843
-0.477637
-0.429043
-0.387986
-0.357183
-0.336328
-0.321987
-0.314244
-0.312361
-0.315798
-0.32458
-0.339187
-0.359879
-0.386025
-0.416313
-0.447128
-0.473823
-0.492604
-0.500555
-0.498018
-0.48496
-0.463548
-0.436626
-0.406914
-0.376875
-0.348372
-0.322788
-0.301101
-0.283538
-0.270291
-0.261165
-0.256837
-0.25724
-0.26236
-0.274772
-0.290235
-0.308983
-0.330131
-0.351121
-0.369346
-0.382344
-0.388154
-0.386415
-0.376966
-0.360807
-0.339481
-0.314732
-0.288354
-0.261951
-0.236854
-0.213818
-0.192667
-0.174766
-0.161446
-0.151954
-0.146239
-0.14418
-0.145523
-0.15004
-0.157281
-0.166435
-0.176422
-0.186147
-0.194512
-0.200468
-0.203206
-0.202459
-0.198103
-0.190437
-0.180062
-0.167738
-0.154323
-0.140657
-0.127495
-0.115533
-0.105273
-0.0971985
-0.0922973
-0.0893405
-0.0890865
-0.091745
-0.0967604
-0.103668
-0.964515
-0.899461
-0.803975
-0.696465
-0.592639
-0.503286
-0.432254
-0.381668
-0.353876
-0.348277
-0.362532
-0.402508
-0.461626
-0.522612
-0.590318
-0.651227
-0.682453
-0.685978
-0.6638
-0.62263
-0.571009
-0.516758
-0.465926
-0.421722
-0.384817
-0.35537
-0.336788
-0.325116
-0.319898
-0.320916
-0.327719
-0.34049
-0.359941
-0.386315
-0.418704
-0.454661
-0.489631
-0.519034
-0.538419
-0.544806
-0.539069
-0.521508
-0.495017
-0.46289
-0.428208
-0.393584
-0.36106
-0.331996
-0.307306
-0.286683
-0.270932
-0.260362
-0.254493
-0.253208
-0.256848
-0.266116
-0.279796
-0.296914
-0.316198
-0.33561
-0.352746
-0.365297
-0.371424
-0.370646
-0.362755
-0.34857
-0.329463
-0.307039
-0.282962
-0.258721
-0.235576
-0.214482
-0.195826
-0.179516
-0.166719
-0.15794
-0.153364
-0.152466
-0.154814
-0.160428
-0.168806
-0.178981
-0.189914
-0.200489
-0.209477
-0.215739
-0.218397
-0.217207
-0.21205
-0.203298
-0.191625
-0.17789
-0.163028
-0.147956
-0.133457
-0.120251
-0.108881
-0.0996107
-0.0928333
-0.0895318
-0.0890575
-0.09083
-0.0952579
-0.101719
-0.670017
-0.656211
-0.64389
-0.63408
-0.627872
-0.624493
-0.620701
-0.614047
-0.604327
-0.592171
-0.578029
-0.562174
-0.678718
-0.665028
-0.652632
-0.642204
-0.633679
-0.626543
-0.619928
-0.612146
-0.602009
-0.589526
-0.575229
-0.559616
-0.701327
-0.688323
-0.675915
-0.664436
-0.653889
-0.644211
-0.63495
-0.624988
-0.613337
-0.599805
-0.584663
-0.568133
-0.725839
-0.713337
-0.700928
-0.688832
-0.677086
-0.665516
-0.653734
-0.641102
-0.627031
-0.611306
-0.594008
-0.575224
-0.75206
-0.739835
-0.727343
-0.7147
-0.701898
-0.688725
-0.674909
-0.660132
-0.644032
-0.6264
-0.607218
-0.586532
-0.779119
-0.767063
-0.754463
-0.741337
-0.727653
-0.713257
-0.697911
-0.681369
-0.663397
-0.643834
-0.622645
-0.599859
-0.807191
-0.795253
-0.782572
-0.769073
-0.754679
-0.739266
-0.722621
-0.704548
-0.684881
-0.663495
-0.640335
-0.615407
-0.836173
-0.824378
-0.81168
-0.797928
-0.78296
-0.766654
-0.74886
-0.729428
-0.708222
-0.685146
-0.660135
-0.633167
-0.866279
-0.854769
-0.842214
-0.828367
-0.813004
-0.795951
-0.777095
-0.75635
-0.733626
-0.708846
-0.681938
-0.652846
-0.897515
-0.886546
-0.874383
-0.860657
-0.845068
-0.827432
-0.80767
-0.785746
-0.76162
-0.735236
-0.706518
-0.675355
-0.929965
-0.920031
-0.908715
-0.895464
-0.87985
-0.861684
-0.840991
-0.817862
-0.792351
-0.764448
-0.734055
-0.70096
-0.963287
-0.954978
-0.945047
-0.932762
-0.917537
-0.899154
-0.877722
-0.853471
-0.826613
-0.797274
-0.765373
-0.730541
-0.99824
-0.992799
-0.984995
-0.973773
-0.958581
-0.939616
-0.917244
-0.891833
-0.86376
-0.833346
-0.800498
-0.764537
-1.03274
-1.0319
-1.02883
-1.02074
-1.00623
-0.98639
-0.962312
-0.934854
-0.904914
-0.873422
-0.840268
-0.804061
-1.06939
-1.07441
-1.07539
-1.06993
-1.05698
-1.0369
-1.01138
-0.981939
-0.949791
-0.91736
-0.885069
-0.850367
-1.10743
-1.12305
-1.13107
-1.1284
-1.11468
-1.09132
-1.06131
-1.02807
-0.994584
-0.963419
-0.934037
-0.903462
-1.13825
-1.16753
-1.18635
-1.18895
-1.17448
-1.14632
-1.11014
-1.07175
-1.03655
-1.00754
-0.984294
-0.962455
-1.16129
-1.20126
-1.22818
-1.23505
-1.2205
-1.18809
-1.1456
-1.10157
-1.06406
-1.03879
-1.02607
-1.02121
-1.17276
-1.21379
-1.23912
-1.2435
-1.22716
-1.19257
-1.14723
-1.09942
-1.0607
-1.04067
-1.04264
-1.06296
-1.17078
-1.20437
-1.22493
-1.22751
-1.2088
-1.17246
-1.12877
-1.07995
-1.04089
-1.02369
-1.03447
-1.08191
-0.544644
-0.525737
-0.506185
-0.485671
-0.462802
-0.436956
-0.408122
-0.377577
-0.348782
-0.323016
-0.29922
-0.275813
-0.25295
-0.23223
-0.217083
-0.209783
-0.210988
-0.221248
-0.240788
-0.269094
-0.304883
-0.34662
-0.391331
-0.433444
-0.465335
-0.479334
-0.471256
-0.445365
-0.404405
-0.355339
-0.305317
-0.260809
-0.226704
-0.205251
-0.197524
-0.203913
-0.227254
-0.26185
-0.310914
-0.372366
-0.438248
-0.494736
-0.526075
-0.522665
-0.486723
-0.42554
-0.348234
-0.265189
-0.184989
-0.113741
-0.055742
-0.0130494
0.0146818
0.0282015
0.0287937
0.0199234
0.00362754
-0.0177849
-0.0416356
-0.0650189
-0.0854159
-0.101023
-0.110906
-0.115087
-0.114247
-0.108467
-0.098655
-0.0858034
-0.0713912
-0.0566801
-0.0427027
-0.0304778
-0.0209052
-0.0146482
-0.0122333
-0.013816
-0.0185627
-0.026303
-0.0363146
-0.0475451
-0.0586964
-0.0685103
-0.0755131
-0.0783064
-0.0760453
-0.0694005
-0.0584885
-0.044592
-0.0292583
-0.0138421
0.000483019
0.0127886
0.0224344
0.0291636
0.0329504
0.0338877
0.0327468
0.0298742
0.0259146
0.0216179
0.0177055
0.0149463
0.0140862
0.0156904
0.0195031
0.0254834
0.0330724
0.0415192
0.0500449
0.0580031
0.064855
0.0700922
0.0732884
0.0742079
-0.542797
-0.524975
-0.506477
-0.486752
-0.464073
-0.436313
-0.404222
-0.372055
-0.344049
-0.320772
-0.299259
-0.277523
-0.255522
-0.233885
-0.215493
-0.204502
-0.200782
-0.209911
-0.230648
-0.261719
-0.301165
-0.347061
-0.396789
-0.44477
-0.482295
-0.500369
-0.492723
-0.466714
-0.421448
-0.365518
-0.308353
-0.257748
-0.218835
-0.193509
-0.183701
-0.189253
-0.21233
-0.252125
-0.308328
-0.378277
-0.454207
-0.521007
-0.558988
-0.556654
-0.521576
-0.454076
-0.367569
-0.275504
-0.187903
-0.111088
-0.0489877
-0.00341141
0.0258231
0.0394389
0.0395652
0.0281126
0.00861478
-0.0158127
-0.0423486
-0.0678717
-0.0899225
-0.10654
-0.116655
-0.121554
-0.120058
-0.113351
-0.102549
-0.0884792
-0.0731833
-0.0574922
-0.0424712
-0.0291833
-0.0186257
-0.0116314
-0.00875562
-0.0100957
-0.0155076
-0.0242229
-0.0352856
-0.0475709
-0.0599799
-0.0711884
-0.0793206
-0.0827899
-0.0812136
-0.0738259
-0.0618065
-0.046735
-0.0303111
-0.0139478
0.00121216
0.0142013
0.0243408
0.0313123
0.0351178
0.036053
0.0342815
0.0308423
0.0263112
0.021404
0.0167722
0.0133933
0.0121306
0.0133881
0.0174815
0.0239378
0.0320722
0.0410707
0.0500973
0.0585259
0.0658552
0.0715019
0.074945
0.0759379
-0.550176
-0.530847
-0.510019
-0.487152
-0.461608
-0.433142
-0.402984
-0.373248
-0.3455
-0.319715
-0.294317
-0.267023
-0.237742
-0.209887
-0.188639
-0.177899
-0.181914
-0.195374
-0.219747
-0.2551
-0.30006
-0.353104
-0.411436
-0.468987
-0.516041
-0.54134
-0.536456
-0.502223
-0.444744
-0.375745
-0.30711
-0.248
-0.202488
-0.171151
-0.15708
-0.16226
-0.190442
-0.240857
-0.311168
-0.397631
-0.490763
-0.572928
-0.623978
-0.62747
-0.57813
-0.493163
-0.391268
-0.286977
-0.189857
-0.105327
-0.0375399
0.0119914
0.0433925
0.056984
0.0544747
0.039231
0.0148652
-0.0141566
-0.0444012
-0.0732418
-0.097241
-0.114769
-0.124888
-0.129531
-0.12772
-0.120273
-0.108296
-0.0929818
-0.076115
-0.0586971
-0.0418368
-0.0268235
-0.0149467
-0.00720072
-0.00405555
-0.00577509
-0.0117943
-0.0217941
-0.0343983
-0.048107
-0.0621893
-0.0752707
-0.0848164
-0.0886815
-0.0875796
-0.0794482
-0.0659943
-0.0492851
-0.031343
-0.0136801
0.0025514
0.016321
0.0269152
0.0340111
0.0376745
0.038182
0.0359984
0.0317754
0.0264236
0.0206845
0.0154609
0.0113642
0.009481
0.0106795
0.015122
0.0221934
0.0310496
0.0407677
0.0503503
0.0593159
0.0673629
0.0736711
0.0774466
0.0784806
-0.554896
-0.53304
-0.509711
-0.484754
-0.458065
-0.429725
-0.400248
-0.370582
-0.341832
-0.31439
-0.287625
-0.261091
-0.235002
-0.211231
-0.192447
-0.179756
-0.175863
-0.183704
-0.208693
-0.249895
-0.302574
-0.364503
-0.431597
-0.495914
-0.547714
-0.574713
-0.569486
-0.521562
-0.452357
-0.371776
-0.292677
-0.227089
-0.178926
-0.147038
-0.133437
-0.138062
-0.171559
-0.233442
-0.316963
-0.417133
-0.524109
-0.617102
-0.672835
-0.673146
-0.613955
-0.517052
-0.405858
-0.295819
-0.192708
-0.102289
-0.0294906
0.0231995
0.0556163
0.0690448
0.0653425
0.0475713
0.0200498
-0.0114409
-0.0434315
-0.0744675
-0.100864
-0.120431
-0.133321
-0.137258
-0.135164
-0.127337
-0.114785
-0.0988424
-0.0807978
-0.0623609
-0.0445359
-0.0279204
-0.0140842
-0.00472152
-0.000364207
-0.00126858
-0.00868247
-0.0201334
-0.0341788
-0.0490193
-0.0642808
-0.0789077
-0.0899925
-0.0957758
-0.0930411
-0.0836982
-0.0688087
-0.0507915
-0.0319115
-0.0133323
0.00369966
0.0178748
0.0285377
0.0353114
0.038396
0.0382682
0.0354805
0.0308945
0.0253744
0.0193958
0.0140955
0.010134
0.00842751
0.00992481
0.0147933
0.0223272
0.0315515
0.0414526
0.0512397
0.0604387
0.0687054
0.0752504
0.0790898
0.0800092
-0.564162
-0.540094
-0.514542
-0.48749
-0.459055
-0.429496
-0.398901
-0.367943
-0.337919
-0.309372
-0.282083
-0.256074
-0.231463
-0.209883
-0.193629
-0.184917
-0.186213
-0.199602
-0.225364
-0.263205
-0.313044
-0.372561
-0.435213
-0.492998
-0.53585
-0.552667
-0.537482
-0.493036
-0.427904
-0.354305
-0.283036
-0.222393
-0.175022
-0.139426
-0.115541
-0.122013
-0.163522
-0.23521
-0.324962
-0.428928
-0.534793
-0.62312
-0.673447
-0.669842
-0.609355
-0.511163
-0.401065
-0.295696
-0.197638
-0.111595
-0.0423286
0.00930426
0.0438686
0.0615501
0.0627009
0.0474775
0.0211091
-0.00953164
-0.0406526
-0.0708742
-0.098008
-0.117911
-0.130266
-0.135181
-0.133945
-0.127406
-0.116292
-0.101617
-0.0843045
-0.0662605
-0.0485082
-0.0317846
-0.0182039
-0.00893374
-0.0045215
-0.00608278
-0.0117923
-0.0223219
-0.0358814
-0.0502751
-0.0645595
-0.0776561
-0.087865
-0.092304
-0.0897575
-0.0805017
-0.0658894
-0.0487079
-0.0312184
-0.013972
0.002158
0.0153915
0.0252718
0.0316502
0.0347334
0.035077
0.0329638
0.0286512
0.0237742
0.0186742
0.0138947
0.0105417
0.0091637
0.0111778
0.0165876
0.0245253
0.0337681
0.0434178
0.0530898
0.0619637
0.069539
0.075605
0.0792799
0.0799422
-0.575205
-0.548649
-0.52053
-0.490852
-0.459888
-0.428633
-0.397234
-0.365464
-0.334329
-0.304772
-0.276728
-0.250867
-0.227773
-0.208392
-0.194464
-0.188123
-0.191156
-0.204884
-0.229694
-0.264782
-0.308912
-0.359251
-0.410749
-0.456879
-0.489255
-0.500794
-0.487909
-0.4514
-0.397129
-0.334853
-0.273511
-0.21967
-0.177817
-0.149783
-0.137436
-0.148916
-0.18956
-0.254935
-0.336639
-0.428192
-0.517042
-0.58878
-0.628183
-0.620279
-0.565236
-0.478858
-0.381156
-0.286058
-0.200342
-0.125235
-0.0635389
-0.0168003
0.0148235
0.0321523
0.0364078
0.0295146
0.0117283
-0.0117342
-0.0361077
-0.0604383
-0.0835369
-0.101748
-0.114113
-0.121146
-0.122508
-0.119075
-0.110955
-0.0988181
-0.084449
-0.0683468
-0.0520377
-0.0371953
-0.025076
-0.0162437
-0.0117024
-0.0122427
-0.0178957
-0.0276313
-0.0394467
-0.0517647
-0.0634588
-0.0733049
-0.0804666
-0.0835818
-0.0807116
-0.0722418
-0.0595094
-0.0445371
-0.0290052
-0.0141468
-0.000626938
0.0105818
0.0188962
0.0241814
0.0267114
0.0269189
0.0255222
0.0229823
0.0195274
0.0162104
0.0137364
0.0125038
0.0129105
0.0160098
0.0219263
0.0297024
0.038382
0.0469063
0.0553912
0.063457
0.070382
0.0759598
0.0789869
0.0788165
-0.588404
-0.559291
-0.528503
-0.496236
-0.462847
-0.428923
-0.394928
-0.361184
-0.328398
-0.297765
-0.269561
-0.243344
-0.220707
-0.203109
-0.191548
-0.18731
-0.191201
-0.203819
-0.226028
-0.25681
-0.293795
-0.33443
-0.375794
-0.412097
-0.436893
-0.445258
-0.43468
-0.40611
-0.364386
-0.316341
-0.268493
-0.226952
-0.196194
-0.176721
-0.170294
-0.184416
-0.222137
-0.277259
-0.343245
-0.413145
-0.479289
-0.529821
-0.552574
-0.542581
-0.497331
-0.428468
-0.350356
-0.272135
-0.201472
-0.139465
-0.0874189
-0.0466127
-0.0172385
0.00167583
0.0103637
0.00902501
-0.000353695
-0.0148605
-0.0312287
-0.049316
-0.0671789
-0.0824257
-0.0933462
-0.099834
-0.102362
-0.102664
-0.0986002
-0.0900599
-0.0794717
-0.0673796
-0.0545043
-0.0424935
-0.0326025
-0.0262111
-0.0237795
-0.0247237
-0.0290269
-0.0360797
-0.0448615
-0.0538968
-0.0619546
-0.0688591
-0.0735216
-0.0743645
-0.0708652
-0.0633153
-0.0525905
-0.0399207
-0.0265209
-0.0141158
-0.00361564
0.0052526
0.0118315
0.0159787
0.0180597
0.0187869
0.0192781
0.0191767
0.0170262
0.0146955
0.0140511
0.0148803
0.0167592
0.0208768
0.0274718
0.0350754
0.0432011
0.0500337
0.0557938
0.0623009
0.0686043
0.0737307
0.0761062
0.0756687
-0.603887
-0.572249
-0.538725
-0.503576
-0.467158
-0.429984
-0.392821
-0.356355
-0.321285
-0.288361
-0.258278
-0.231473
-0.209204
-0.192364
-0.181637
-0.177935
-0.181936
-0.194124
-0.214563
-0.241795
-0.273513
-0.30773
-0.341755
-0.371656
-0.392504
-0.39972
-0.392518
-0.372203
-0.342054
-0.306679
-0.270869
-0.239715
-0.216689
-0.202626
-0.200427
-0.214752
-0.245914
-0.288506
-0.3362
-0.385439
-0.431142
-0.46363
-0.475043
-0.463235
-0.427478
-0.375173
-0.31544
-0.255382
-0.199732
-0.149857
-0.106891
-0.0716904
-0.0449887
-0.0269352
-0.0164644
-0.0125631
-0.0141301
-0.020026
-0.0290145
-0.0401041
-0.0518633
-0.0632262
-0.0732823
-0.0787481
-0.0829449
-0.086373
-0.0862448
-0.0836079
-0.0788831
-0.0706935
-0.0616098
-0.0526886
-0.0447611
-0.0386739
-0.0353809
-0.0355002
-0.0385776
-0.04387
-0.0505806
-0.0570184
-0.0620724
-0.0656264
-0.0672436
-0.0661546
-0.0620197
-0.0548671
-0.0454624
-0.0348482
-0.0239506
-0.0138634
-0.00540196
0.00151181
0.0064718
0.00948807
0.0109439
0.0114275
0.0118831
0.0121638
0.0120636
0.0124121
0.0138043
0.0162366
0.0196685
0.0244057
0.0304359
0.0372722
0.0444272
0.0508616
0.056266
0.0613252
0.0657926
0.0710453
0.0729905
0.0700241
-0.621154
-0.586758
-0.55016
-0.511692
-0.471823
-0.431158
-0.390506
-0.35068
-0.312394
-0.276405
-0.243718
-0.21547
-0.192401
-0.17515
-0.164488
-0.161119
-0.165465
-0.177614
-0.197225
-0.222735
-0.252056
-0.283025
-0.31262
-0.338393
-0.357697
-0.366477
-0.362978
-0.349215
-0.327751
-0.301854
-0.275219
-0.251849
-0.234618
-0.225018
-0.225482
-0.237792
-0.260278
-0.289153
-0.322017
-0.355929
-0.385061
-0.403749
-0.408823
-0.396533
-0.367678
-0.328336
-0.283488
-0.237779
-0.194656
-0.155653
-0.121558
-0.0925067
-0.0684689
-0.0509438
-0.03907
-0.031659
-0.0284562
-0.028848
-0.0319863
-0.0372144
-0.0439841
-0.0517383
-0.0595451
-0.0662743
-0.0724759
-0.0777158
-0.0808638
-0.0818825
-0.081301
-0.0781911
-0.0732631
-0.0669674
-0.0609764
-0.0559369
-0.0523162
-0.0505592
-0.0507248
-0.052734
-0.0558048
-0.058721
-0.0608028
-0.0615792
-0.0607455
-0.0580726
-0.0533636
-0.0467056
-0.0385937
-0.0297344
-0.0208216
-0.0126995
-0.00609272
-0.0011057
0.00218069
0.00392569
0.00464687
0.00476134
0.00506299
0.00630703
0.00767192
0.00894571
0.0110572
0.0144164
0.0187878
0.0241883
0.0304896
0.0372249
0.0438468
0.0498443
0.0550144
0.0594028
0.0626586
0.0647014
0.0652331
0.0633484
-0.641218
-0.603924
-0.563959
-0.521668
-0.477622
-0.432536
-0.38732
-0.343001
-0.300504
-0.260806
-0.225172
-0.194691
-0.170027
-0.151963
-0.141219
-0.138274
-0.143296
-0.156123
-0.176148
-0.201617
-0.230422
-0.260503
-0.28902
-0.313509
-0.332661
-0.343865
-0.343896
-0.335185
-0.320159
-0.301256
-0.281371
-0.26357
-0.250402
-0.243332
-0.243648
-0.251813
-0.266061
-0.28462
-0.306487
-0.328121
-0.345422
-0.355079
-0.354522
-0.342266
-0.319789
-0.290042
-0.25628
-0.221542
-0.188299
-0.157931
-0.131021
-0.107736
-0.0873711
-0.0707964
-0.0585756
-0.0495644
-0.0432934
-0.039543
-0.0380814
-0.0388111
-0.0416436
-0.0463559
-0.0525052
-0.0594774
-0.0668474
-0.0742089
-0.0809289
-0.0866237
-0.090177
-0.0907975
-0.0891844
-0.0865124
-0.0818973
-0.076665
-0.0716394
-0.0675576
-0.06468
-0.0629445
-0.0618974
-0.0611463
-0.0601654
-0.0583247
-0.055421
-0.0513423
-0.0460158
-0.0395759
-0.0323646
-0.02484
-0.0174882
-0.0111955
-0.00655491
-0.00343672
-0.00190651
-0.00156783
-0.00185613
-0.00220477
-0.00189414
-0.00066584
0.00139411
0.00341106
0.00593939
0.0103133
0.0155395
0.0214521
0.0278961
0.034502
0.0408576
0.0465733
0.0513967
0.0552191
0.0578617
0.059063
0.0583438
0.0555146
-0.664456
-0.624187
-0.58057
-0.533925
-0.484926
-0.4345
-0.383772
-0.333968
-0.286252
-0.241924
-0.202424
-0.16881
-0.141951
-0.122698
-0.111705
-0.109336
-0.115604
-0.130145
-0.151942
-0.179082
-0.209473
-0.240783
-0.27033
-0.296396
-0.317524
-0.330205
-0.333139
-0.328541
-0.318231
-0.30421
-0.288869
-0.27466
-0.263714
-0.257237
-0.255908
-0.25969
-0.267485
-0.278676
-0.291959
-0.304368
-0.313182
-0.316321
-0.312417
-0.300971
-0.28275
-0.259656
-0.234022
-0.207749
-0.182414
-0.158929
-0.137673
-0.118853
-0.102417
-0.0876218
-0.0751405
-0.0647909
-0.0563452
-0.0498017
-0.0452738
-0.0430047
-0.0431913
-0.045861
-0.050841
-0.0578478
-0.0665635
-0.0760935
-0.0856065
-0.0947005
-0.102501
-0.108108
-0.109953
-0.108504
-0.106526
-0.102187
-0.094554
-0.0877
-0.0817347
-0.076116
-0.0709725
-0.0662176
-0.0615486
-0.0568191
-0.0518056
-0.0463197
-0.0403397
-0.0339477
-0.0273086
-0.0207112
-0.0147872
-0.0101741
-0.00727937
-0.00621152
-0.00637723
-0.00737238
-0.00859018
-0.00920119
-0.00951813
-0.00845767
-0.00610763
-0.00397099
-0.000507818
0.00443697
0.0101257
0.0163941
0.0230037
0.0295768
0.035728
0.0411098
0.0454601
0.0485941
0.0503339
0.0505057
0.0489522
0.0456729
-0.691782
-0.648451
-0.600804
-0.549149
-0.494316
-0.437484
-0.380042
-0.32349
-0.269356
-0.219266
-0.174769
-0.137114
-0.10739
-0.0865202
-0.0751701
-0.0736583
-0.0818718
-0.0992497
-0.124387
-0.155193
-0.189414
-0.224344
-0.257256
-0.286477
-0.309939
-0.324369
-0.329999
-0.328503
-0.321381
-0.310483
-0.297865
-0.285636
-0.275536
-0.268532
-0.26506
-0.264964
-0.267738
-0.272967
-0.279237
-0.284549
-0.287248
-0.286074
-0.280235
-0.269492
-0.254365
-0.236364
-0.216894
-0.197073
-0.177857
-0.159816
-0.143262
-0.128338
-0.114833
-0.102065
-0.0899908
-0.0793445
-0.0704841
-0.0629839
-0.0568613
-0.0528208
-0.0512698
-0.0524093
-0.0563031
-0.0628727
-0.0718933
-0.0828897
-0.0950428
-0.107248
-0.118675
-0.128025
-0.133934
-0.134807
-0.133017
-0.130505
-0.122372
-0.111344
-0.101868
-0.0925966
-0.0833858
-0.0746325
-0.0663701
-0.0585262
-0.0511341
-0.0440963
-0.0372378
-0.0305699
-0.0241736
-0.0183398
-0.0136763
-0.0107592
-0.00974157
-0.0103612
-0.0120763
-0.0142658
-0.0161603
-0.0172136
-0.0179707
-0.0175497
-0.0154885
-0.0126362
-0.00851861
-0.00323492
0.00282119
0.0093577
0.0160678
0.0225943
0.02857
0.0336648
0.0376033
0.0401645
0.0411685
0.0404844
0.0380622
0.0339999
-0.724012
-0.677813
-0.625876
-0.56849
-0.506749
-0.442182
-0.37654
-0.311719
-0.249694
-0.192423
-0.1417
-0.0990622
-0.0658051
-0.0429769
-0.0313141
-0.0311266
-0.0421859
-0.0637236
-0.0940418
-0.130765
-0.171067
-0.211858
-0.250082
-0.283684
-0.310123
-0.326839
-0.334676
-0.335119
-0.32969
-0.320257
-0.308748
-0.297069
-0.286668
-0.278288
-0.272291
-0.268589
-0.267065
-0.267319
-0.268194
-0.268482
-0.267139
-0.263301
-0.256461
-0.246566
-0.23403
-0.219884
-0.205055
-0.190113
-0.175402
-0.161409
-0.148955
-0.138412
-0.128724
-0.117914
-0.107558
-0.0973889
-0.0880944
-0.0805212
-0.0732444
-0.0679526
-0.0652675
-0.0654497
-0.0686697
-0.0749742
-0.0842604
-0.0961675
-0.109964
-0.124701
-0.138963
-0.151226
-0.160011
-0.164104
-0.163551
-0.160381
-0.152125
-0.139372
-0.125818
-0.112448
-0.0993943
-0.08677
-0.0749177
-0.0639936
-0.0540697
-0.0451743
-0.0372168
-0.0300392
-0.0237033
-0.0185392
-0.0150752
-0.0136473
-0.0141688
-0.0162304
-0.0191886
-0.0222332
-0.0246997
-0.0265963
-0.0278528
-0.0275847
-0.0256742
-0.0224726
-0.0180159
-0.0124824
-0.00617925
0.000539359
0.0072979
0.0137394
0.0195264
0.0243209
0.0278188
0.0297912
0.0300747
0.0285852
0.0253541
0.0205577
-0.762577
-0.713868
-0.657326
-0.593313
-0.523374
-0.44949
-0.373867
-0.298924
-0.227181
-0.161068
-0.102744
-0.0540238
-0.0164454
0.00871121
0.0205542
0.0187522
0.00367984
-0.023675
-0.0613853
-0.106765
-0.155779
-0.205062
-0.250619
-0.289746
-0.319864
-0.339068
-0.348238
-0.349234
-0.34395
-0.334302
-0.322319
-0.309767
-0.297846
-0.287324
-0.278565
-0.271607
-0.266512
-0.262932
-0.260003
-0.256885
-0.252857
-0.247363
-0.240125
-0.231184
-0.220849
-0.209736
-0.198333
-0.186892
-0.17594
-0.166706
-0.159575
-0.152902
-0.144913
-0.136037
-0.127223
-0.118121
-0.108801
-0.100066
-0.0924314
-0.0866502
-0.0834532
-0.0832903
-0.0863675
-0.0927194
-0.102396
-0.115196
-0.130469
-0.147139
-0.163669
-0.178327
-0.189531
-0.195727
-0.196727
-0.19276
-0.183695
-0.170226
-0.153544
-0.135682
-0.118593
-0.102316
-0.0870023
-0.0730443
-0.0606044
-0.0497634
-0.0404981
-0.0327002
-0.0263493
-0.0217505
-0.0192699
-0.0190255
-0.0207587
-0.0239166
-0.0277152
-0.0313722
-0.034662
-0.0374561
-0.0389888
-0.0388171
-0.0369521
-0.0335912
-0.028936
-0.0231916
-0.0167034
-0.00984
-0.00301169
0.00335709
0.00890608
0.0133831
0.0165003
0.0179612
0.017606
0.0153847
0.0113759
0.00581364
-0.809663
-0.75926
-0.697681
-0.625874
-0.546018
-0.460673
-0.372738
-0.285346
-0.201703
-0.12486
-0.0574185
-0.00147417
0.0412163
0.0691002
0.0809943
0.0762828
0.0556204
0.0203375
-0.0273453
-0.0836994
-0.14527
-0.206303
-0.261563
-0.307301
-0.341673
-0.363125
-0.372511
-0.372242
-0.365156
-0.353593
-0.339545
-0.324695
-0.310256
-0.297045
-0.285449
-0.275549
-0.267408
-0.260781
-0.255033
-0.249529
-0.243779
-0.237429
-0.230313
-0.222462
-0.214058
-0.205428
-0.196964
-0.189088
-0.182625
-0.178446
-0.174935
-0.170137
-0.164149
-0.157359
-0.149532
-0.14045
-0.130562
-0.1215
-0.113852
-0.108015
-0.104674
-0.104434
-0.107662
-0.114315
-0.1245
-0.138218
-0.154864
-0.173316
-0.191953
-0.208716
-0.221756
-0.229531
-0.231223
-0.226791
-0.216711
-0.201973
-0.183356
-0.161879
-0.140477
-0.120669
-0.102174
-0.0853469
-0.0705167
-0.0577744
-0.0471777
-0.0386797
-0.0322471
-0.0280346
-0.0262555
-0.0268589
-0.0294405
-0.0333054
-0.0376437
-0.042021
-0.0462322
-0.0495229
-0.0512428
-0.0511907
-0.0493522
-0.0459393
-0.0411541
-0.0352364
-0.0285734
-0.0215749
-0.0146676
-0.00829938
-0.00291619
0.00120086
0.00391327
0.00492888
0.00400728
0.00111983
-0.00361143
-0.0099041
-0.867159
-0.817177
-0.749978
-0.669314
-0.577886
-0.478522
-0.375299
-0.272477
-0.174189
-0.0842403
-0.00570038
0.0589942
0.107675
0.138172
0.149258
0.140097
0.1118
0.0657239
0.00454895
-0.0677465
-0.144962
-0.220621
-0.28817
-0.341089
-0.379955
-0.402888
-0.410631
-0.406892
-0.395749
-0.37996
-0.36178
-0.343031
-0.324984
-0.308426
-0.293731
-0.280956
-0.270094
-0.260986
-0.253167
-0.24611
-0.239434
-0.232885
-0.226324
-0.219739
-0.21324
-0.207102
-0.201738
-0.197714
-0.19604
-0.195586
-0.194259
-0.19167
-0.187434
-0.181487
-0.173646
-0.163975
-0.154128
-0.144911
-0.137036
-0.131129
-0.127758
-0.127529
-0.131011
-0.138126
-0.148884
-0.163493
-0.181442
-0.201559
-0.222101
-0.240838
-0.255325
-0.264495
-0.266608
-0.261728
-0.250502
-0.234056
-0.21356
-0.189782
-0.164579
-0.141043
-0.119691
-0.100302
-0.0832789
-0.0688122
-0.0569456
-0.047715
-0.0411014
-0.0370913
-0.0357544
-0.0369039
-0.0400057
-0.0442872
-0.0491727
-0.0543952
-0.0592213
-0.0628034
-0.0647324
-0.0647973
-0.062999
-0.0595448
-0.0545853
-0.0484674
-0.0416092
-0.034444
-0.0274197
-0.0209943
-0.0156499
-0.0117953
-0.00949502
-0.00887169
-0.0102442
-0.0136946
-0.01906
-0.0260153
-0.93509
-0.889139
-0.8171
-0.726022
-0.620829
-0.504763
-0.383378
-0.262036
-0.14635
-0.0412213
0.0498717
0.124709
0.181845
0.216198
0.225059
0.209685
0.171945
0.112951
0.0355257
-0.0569907
-0.157062
-0.253373
-0.337538
-0.396824
-0.438552
-0.464717
-0.46595
-0.454232
-0.435953
-0.413766
-0.389553
-0.365324
-0.342511
-0.321873
-0.303733
-0.288086
-0.274794
-0.263666
-0.25435
-0.246391
-0.239416
-0.233184
-0.22756
-0.222499
-0.218108
-0.214719
-0.212866
-0.213399
-0.215761
-0.218096
-0.219274
-0.217263
-0.213651
-0.208484
-0.199691
-0.189436
-0.179058
-0.169413
-0.161272
-0.155229
-0.151777
-0.151494
-0.155084
-0.162643
-0.173968
-0.189302
-0.208366
-0.229943
-0.252141
-0.272588
-0.288689
-0.298727
-0.301225
-0.295984
-0.283708
-0.265655
-0.2433
-0.217775
-0.19
-0.162874
-0.138701
-0.117156
-0.0982401
-0.0822632
-0.0692897
-0.0593621
-0.0524507
-0.0485016
-0.0474126
-0.0488662
-0.0522262
-0.0568561
-0.0624375
-0.0683047
-0.0734817
-0.077346
-0.0794775
-0.0796349
-0.0778783
-0.074301
-0.069129
-0.0627503
-0.0556155
-0.0482007
-0.0409757
-0.0344082
-0.028989
-0.025216
-0.0232521
-0.0229868
-0.0246829
-0.0285653
-0.0344507
-0.0419695
-1.01408
-0.977602
-0.905108
-0.804455
-0.68263
-0.545639
-0.402999
-0.259699
-0.12329
-0.000492691
0.10444
0.18886
0.251038
0.288313
0.299887
0.284628
0.241394
0.171136
0.0763213
-0.0385284
-0.165373
-0.290887
-0.399588
-0.478441
-0.523463
-0.544213
-0.543904
-0.522989
-0.490373
-0.457086
-0.424052
-0.392408
-0.363418
-0.337801
-0.315765
-0.297141
-0.281602
-0.268812
-0.258435
-0.250065
-0.243294
-0.237828
-0.233514
-0.230315
-0.22845
-0.2284
-0.230904
-0.235679
-0.241433
-0.246739
-0.248368
-0.247253
-0.244306
-0.237416
-0.227448
-0.216291
-0.205061
-0.194702
-0.185996
-0.179527
-0.175748
-0.17517
-0.178585
-0.186408
-0.198176
-0.213979
-0.233845
-0.256579
-0.280157
-0.302077
-0.319581
-0.330233
-0.333225
-0.327796
-0.31471
-0.295346
-0.271357
-0.244338
-0.215197
-0.185391
-0.158394
-0.135005
-0.114588
-0.0973729
-0.0835038
-0.0729617
-0.0657408
-0.0617597
-0.0607734
-0.0623394
-0.0658793
-0.0710342
-0.0772298
-0.0834792
-0.0889893
-0.0931373
-0.0954485
-0.0956705
-0.0938757
-0.0901031
-0.084637
-0.0778964
-0.0703651
-0.062569
-0.0550182
-0.0481863
-0.0425579
-0.0386816
-0.0368915
-0.0368904
-0.0387804
-0.0429334
-0.0491889
-0.0571317
-1.08973
-1.06763
-1.00062
-0.897199
-0.761235
-0.606147
-0.442439
-0.277024
-0.12051
0.01867
0.136453
0.230315
0.29845
0.341327
0.351505
0.327403
0.274226
0.196994
0.0963432
-0.0269288
-0.168187
-0.315784
-0.449843