/*--------------------------------*- C++ -*----------------------------------*\
| =========                 |                                                 |
| \\      /  F ield         | OpenFOAM: The Open Source CFD Toolbox           |
|  \\    /   O peration     | Version:  2206                                  |
|   \\  /    A nd           | Website:  www.openfoam.com                      |
|    \\/     M anipulation  |                                                 |
\*---------------------------------------------------------------------------*/
FoamFile
{
    version     2.0;
    format      ascii;
    arch        "LSB;label=32;scalar=64";
    class       volScalarField;
    location    "19.4001";
    object      p;
}
// * * * * * * * * * * * * * * * * * * * * * * * * * * * * * * * * * * * * * //

dimensions      [0 2 -2 0 0 0 0];

internalField   nonuniform List<scalar> 
3062
(
0.808309
0.808206
0.807943
0.807526
0.806979
0.806309
0.80552
0.804614
0.803598
0.802479
0.801264
0.799961
0.798574
0.797112
0.795579
0.793982
0.792327
0.790619
0.788863
0.787064
0.785227
0.783356
0.781457
0.779533
0.777588
0.775627
0.773654
0.771673
0.769687
0.767703
0.765722
0.76375
0.76179
0.759846
0.757922
0.756023
0.754152
0.752314
0.750513
0.748753
0.747037
0.745371
0.743759
0.742204
0.74071
0.739283
0.737926
0.736644
0.735442
0.734324
0.733295
0.73236
0.731526
0.730797
0.730181
0.729684
0.729314
0.729081
0.728999
0.729078
0.729326
0.729759
0.73039
0.731238
0.732323
0.733665
0.735289
0.737222
0.739497
0.742147
0.745212
0.748738
0.752773
0.757375
0.762607
0.768543
0.775262
0.782856
0.791428
0.801093
0.81198
0.824231
0.838004
0.85347
0.870813
0.890224
0.911896
0.936006
0.962694
0.992023
1.02392
1.05806
1.0937
1.12942
1.16264
1.18851
1.19981
1.17763
1.11814
0.813471
0.807785
0.807686
0.80743
0.807026
0.806493
0.805842
0.805073
0.804189
0.803197
0.802102
0.800912
0.799633
0.798272
0.796833
0.795324
0.79375
0.792117
0.79043
0.788694
0.786915
0.785097
0.783245
0.781364
0.779457
0.777529
0.775585
0.773628
0.771663
0.769694
0.767724
0.76576
0.763803
0.761858
0.75993
0.758021
0.756137
0.754282
0.752459
0.750672
0.748927
0.747227
0.745576
0.743978
0.742438
0.740961
0.739549
0.738209
0.736944
0.735759
0.73466
0.733652
0.73274
0.73193
0.731228
0.730642
0.730177
0.729843
0.72965
0.729612
0.729741
0.730049
0.730547
0.731254
0.732188
0.73337
0.734824
0.736576
0.738656
0.741098
0.743941
0.747229
0.75101
0.755341
0.760286
0.765917
0.772317
0.779579
0.78781
0.797132
0.807684
0.819623
0.83313
0.848409
0.86569
0.885234
0.907331
0.9323
0.960484
0.992245
1.02793
1.06786
1.11224
1.16104
1.21387
1.26963
1.32593
1.37849
1.41849
1.43223
1.37985
0.807396
0.807299
0.807049
0.806653
0.806132
0.805494
0.804739
0.803872
0.802897
0.80182
0.800648
0.799388
0.798044
0.796623
0.795132
0.793575
0.791958
0.790287
0.788566
0.786802
0.784998
0.78316
0.781292
0.779398
0.777483
0.775552
0.773607
0.771654
0.769697
0.767739
0.765786
0.763841
0.761907
0.75999
0.758093
0.75622
0.754376
0.752564
0.750788
0.749054
0.747364
0.745724
0.744138
0.742609
0.741142
0.739742
0.738414
0.737161
0.735989
0.734904
0.733911
0.733015
0.732223
0.731541
0.730977
0.730537
0.73023
0.730065
0.730058
0.730226
0.730577
0.731126
0.731889
0.732887
0.734142
0.73568
0.737528
0.739718
0.742287
0.745277
0.748733
0.752709
0.757266
0.762474
0.768411
0.775167
0.782848
0.791572
0.801476
0.812718
0.82548
0.839973
0.856439
0.875158
0.896453
0.920697
0.948316
0.979793
1.01567
1.05653
1.10301
1.15571
1.21513
1.2815
1.35448
1.4327
1.51297
1.58928
1.6509
1.68473
0.807138
0.807042
0.806795
0.806405
0.805891
0.805262
0.804517
0.80366
0.802696
0.801631
0.800472
0.799223
0.797892
0.796483
0.795003
0.793457
0.791851
0.79019
0.78848
0.786726
0.784931
0.783102
0.781243
0.779358
0.777451
0.775528
0.773591
0.771646
0.769697
0.767746
0.765801
0.763863
0.761937
0.760027
0.758137
0.756271
0.754434
0.752629
0.750861
0.749133
0.74745
0.745817
0.744237
0.742715
0.741255
0.739862
0.738541
0.737296
0.736132
0.735055
0.73407
0.733184
0.732403
0.731734
0.731184
0.730761
0.730472
0.730326
0.730336
0.730526
0.730905
0.731486
0.732286
0.733325
0.734628
0.73622
0.73813
0.740393
0.743046
0.746131
0.749699
0.753805
0.758512
0.763895
0.770036
0.777033
0.784995
0.794052
0.80435
0.816062
0.829386
0.844554
0.861836
0.881547
0.904055
0.929793
0.959261
0.993042
1.03181
1.07631
1.12739
1.1859
1.25266
1.32821
1.41252
1.50435
1.60025
1.69337
1.7717
1.81893
0.806281
0.805771
0.805146
0.804406
0.803554
0.802596
0.801537
0.800383
0.79914
0.797815
0.796412
0.794937
0.793397
0.791796
0.790141
0.788436
0.786686
0.784896
0.783072
0.781217
0.779336
0.777433
0.775514
0.773581
0.771639
0.769693
0.767747
0.765805
0.76387
0.761948
0.760041
0.758154
0.756291
0.754457
0.752655
0.750889
0.749164
0.747485
0.745854
0.744276
0.742757
0.7413
0.739909
0.73859
0.737348
0.736187
0.735113
0.734131
0.733248
0.73247
0.731805
0.73126
0.730844
0.730564
0.730431
0.730446
0.73064
0.73103
0.731625
0.73244
0.733497
0.73482
0.736436
0.738375
0.74067
0.74336
0.74649
0.750109
0.754275
0.759054
0.764519
0.770758
0.77787
0.78597
0.795188
0.80568
0.817623
0.831225
0.846729
0.864418
0.884627
0.907748
0.934241
0.964649
0.999605
1.03984
1.08621
1.13964
1.20112
1.27159
1.35174
1.4416
1.53988
1.64286
1.74306
1.82745
1.87931
0.916665
0.882804
0.860668
0.851684
0.84654
0.841355
0.836263
0.831753
0.827845
0.824309
0.820993
0.817841
0.81481
0.811859
0.808966
0.80612
0.803311
0.800524
0.797748
0.794975
0.792198
0.789413
0.786618
0.78381
0.780989
0.778159
0.775288
0.772234
0.76903
0.76584
0.762678
0.759518
0.756358
0.753209
0.750082
0.746985
0.743929
0.740926
0.737986
0.735121
0.73234
0.729651
0.727059
0.724575
0.722203
0.719947
0.717804
0.715772
0.713846
0.71202
0.710283
0.708625
0.707032
0.705492
0.703988
0.702505
0.701026
0.699534
0.698011
0.696445
0.694828
0.693157
0.691404
0.689553
0.687582
0.685471
0.683189
0.680713
0.678013
0.675057
0.671813
0.668245
0.664314
0.659973
0.655174
0.649859
0.643966
0.637424
0.630153
0.622065
0.613061
0.603033
0.59186
0.579414
0.565552
0.550121
0.532955
0.51388
0.492716
0.46928
0.443393
0.414906
0.383686
0.349743
0.313175
0.273911
0.23186
0.18712
0.139986
0.0908652
0.881233
0.867763
0.855142
0.84847
0.84375
0.839082
0.834497
0.830335
0.82662
0.823221
0.820042
0.817032
0.814099
0.811205
0.80836
0.805564
0.802804
0.800061
0.797326
0.794591
0.791853
0.789106
0.786351
0.783577
0.780783
0.777956
0.775075
0.772092
0.769016
0.765916
0.76282
0.759721
0.756619
0.753525
0.750447
0.747397
0.744387
0.741428
0.738532
0.735706
0.732972
0.730317
0.727736
0.725258
0.722896
0.720646
0.718508
0.716477
0.714547
0.712712
0.710963
0.709291
0.707685
0.70613
0.704607
0.703104
0.701605
0.700097
0.698564
0.696987
0.695391
0.693712
0.691943
0.690072
0.688086
0.685955
0.683672
0.681206
0.678508
0.675548
0.672302
0.668737
0.664809
0.660474
0.655683
0.65038
0.644499
0.637969
0.63071
0.622631
0.613632
0.603604
0.592424
0.579964
0.566083
0.550622
0.533411
0.514272
0.493012
0.469433
0.443361
0.414664
0.383249
0.349085
0.312163
0.27243
0.229881
0.184622
0.136966
0.0873739
0.865924
0.861244
0.853768
0.847354
0.842448
0.838053
0.833797
0.829802
0.826116
0.822654
0.819439
0.816504
0.813618
0.810724
0.80787
0.805075
0.802322
0.799598
0.796884
0.794164
0.79144
0.788713
0.785974
0.783219
0.780444
0.777658
0.77484
0.771945
0.76898
0.765985
0.762988
0.759991
0.756998
0.754014
0.751047
0.748099
0.745182
0.74232
0.73952
0.736785
0.734124
0.731534
0.729021
0.7266
0.724282
0.722069
0.719958
0.717944
0.716021
0.714184
0.712429
0.710747
0.709127
0.707557
0.706024
0.704513
0.703009
0.701498
0.69997
0.698413
0.696816
0.695153
0.693422
0.691605
0.689662
0.687606
0.685411
0.683027
0.680409
0.677543
0.674409
0.670968
0.667177
0.662991
0.658358
0.653219
0.647509
0.641151
0.634061
0.626148
0.61731
0.60744
0.596413
0.584096
0.570341
0.554979
0.537838
0.518745
0.497463
0.4737
0.447291
0.418108
0.386122
0.351354
0.313661
0.272961
0.229321
0.182928
0.134074
0.0831304
0.855396
0.852982
0.848019
0.842842
0.838577
0.834819
0.831164
0.827604
0.824243
0.821074
0.818072
0.815208
0.812397
0.80961
0.806863
0.80416
0.801489
0.798835
0.796183
0.793529
0.790868
0.788199
0.785505
0.78279
0.780039
0.777315
0.77461
0.771823
0.768962
0.766073
0.763181
0.760289
0.757403
0.754529
0.751677
0.748849
0.746045
0.743277
0.740566
0.737919
0.735341
0.732834
0.730404
0.728056
0.725801
0.723653
0.721604
0.719632
0.717733
0.715914
0.714172
0.712501
0.710891
0.709332
0.707815
0.706323
0.704839
0.703349
0.701848
0.700327
0.698771
0.697172
0.695511
0.693775
0.691939
0.689984
0.68789
0.68562
0.683148
0.680449
0.677496
0.674252
0.670674
0.666715
0.662325
0.657442
0.651999
0.645912
0.639095
0.631437
0.622843
0.613241
0.602491
0.590415
0.576842
0.561613
0.544559
0.52555
0.504275
0.480226
0.453327
0.423347
0.390411
0.354838
0.316208
0.274304
0.229231
0.181227
0.1306
0.0777497
0.847466
0.846123
0.843036
0.839317
0.835825
0.832576
0.829366
0.826174
0.823079
0.820105
0.817228
0.814426
0.811682
0.808974
0.806295
0.803642
0.801008
0.798382
0.795761
0.793144
0.790524
0.787897
0.785257
0.782601
0.779933
0.777263
0.774579
0.771845
0.769068
0.766271
0.763471
0.760671
0.757876
0.755093
0.752333
0.749605
0.746905
0.744236
0.741616
0.739054
0.736553
0.734121
0.73176
0.729468
0.727252
0.725161
0.723186
0.721271
0.71941
0.71762
0.7159
0.714249
0.712656
0.711121
0.709637
0.708176
0.706719
0.705263
0.70381
0.702349
0.700865
0.699344
0.697772
0.696135
0.694413
0.692588
0.690638
0.688536
0.686254
0.683765
0.68104
0.678043
0.674733
0.671065
0.666988
0.662436
0.657351
0.65163
0.645202
0.6379
0.629602
0.620356
0.610015
0.598327
0.585094
0.570144
0.553284
0.534284
0.512848
0.488664
0.461559
0.43138
0.398061
0.361536
0.32157
0.278062
0.231125
0.181003
0.12804
0.0726893
0.841331
0.840514
0.838449
0.835649
0.832724
0.829865
0.827015
0.824149
0.821312
0.818535
0.815817
0.813151
0.810526
0.807927
0.805346
0.80278
0.800226
0.797677
0.795131
0.792582
0.790028
0.787466
0.784892
0.782302
0.779697
0.777076
0.774439
0.771777
0.769091
0.766389
0.76368
0.760973
0.758271
0.755583
0.752916
0.750276
0.747666
0.745091
0.742563
0.74009
0.737675
0.735323
0.733039
0.730828
0.728698
0.726663
0.724712
0.722826
0.721002
0.719249
0.717565
0.715943
0.714372
0.712865
0.711439
0.710044
0.708637
0.707231
0.705838
0.704448
0.703047
0.701618
0.700149
0.698628
0.697028
0.695348
0.693569
0.691659
0.68959
0.687336
0.684869
0.682156
0.679155
0.675822
0.672103
0.667937
0.663254
0.657968
0.651987
0.645196
0.637496
0.628808
0.618967
0.607762
0.594992
0.580459
0.563937
0.545171
0.523881
0.499775
0.472588
0.442088
0.408075
0.370393
0.328909
0.283565
0.234438
0.181762
0.125918
0.0674427
0.836339
0.835765
0.834274
0.832132
0.829743
0.827298
0.824808
0.822264
0.819695
0.817135
0.814595
0.812075
0.809571
0.807075
0.804586
0.802101
0.799619
0.797135
0.794648
0.792154
0.789651
0.787139
0.784614
0.782075
0.779522
0.776954
0.774374
0.771778
0.769166
0.766541
0.763912
0.761285
0.758667
0.756063
0.753479
0.750922
0.748395
0.745906
0.743461
0.741069
0.738734
0.736458
0.734246
0.732103
0.730034
0.728043
0.726129
0.724284
0.722509
0.720801
0.719161
0.717583
0.716064
0.714607
0.713206
0.711838
0.710485
0.709149
0.707832
0.706525
0.705216
0.703892
0.702541
0.701153
0.699712
0.698205
0.696616
0.694918
0.693087
0.691099
0.688927
0.686538
0.683892
0.680946
0.677649
0.673939
0.669749
0.664995
0.659587
0.653419
0.646373
0.638321
0.629107
0.61854
0.60641
0.592486
0.576513
0.558208
0.537261
0.513344
0.486134
0.455328
0.420658
0.381897
0.338874
0.291497
0.239817
0.184069
0.124695
0.0623348
0.832142
0.831706
0.830579
0.828904
0.826941
0.82484
0.822642
0.820359
0.818018
0.815649
0.81327
0.810886
0.808497
0.806106
0.80371
0.80131
0.798904
0.796491
0.79407
0.79164
0.789199
0.786746
0.784281
0.781802
0.779309
0.776804
0.774285
0.771755
0.769212
0.766661
0.764108
0.761559
0.75902
0.756495
0.75399
0.751511
0.749064
0.746653
0.744285
0.741966
0.739701
0.737492
0.735345
0.733265
0.731253
0.729314
0.727449
0.725653
0.723926
0.722265
0.720671
0.719139
0.717668
0.716255
0.714894
0.713577
0.712293
0.711037
0.709805
0.708591
0.707385
0.706178
0.70496
0.703721
0.702448
0.701127
0.699743
0.698275
0.696705
0.695007
0.693156
0.69112
0.688865
0.686347
0.683518
0.68032
0.676685
0.672534
0.667776
0.662305
0.655998
0.648716
0.640299
0.630551
0.619245
0.606128
0.590915
0.573289
0.552902
0.529377
0.502328
0.471372
0.436142
0.396314
0.351627
0.301933
0.247248
0.187815
0.124132
0.0569704
0.828545
0.828201
0.827309
0.825957
0.824316
0.8225
0.820556
0.818506
0.816376
0.814192
0.811973
0.809729
0.807463
0.805181
0.802883
0.800571
0.798245
0.795905
0.793552
0.791185
0.788805
0.78641
0.784001
0.781579
0.779142
0.776693
0.774233
0.771762
0.769283
0.7668
0.764316
0.761838
0.75937
0.756917
0.754484
0.752078
0.749702
0.747362
0.745064
0.742813
0.740613
0.738469
0.736384
0.734363
0.732408
0.730522
0.728705
0.726957
0.725277
0.723663
0.722116
0.720632
0.719211
0.71785
0.716544
0.715288
0.714076
0.712899
0.711755
0.710639
0.709544
0.708462
0.707386
0.706305
0.70521
0.704089
0.702928
0.701712
0.700422
0.699038
0.697535
0.695886
0.694058
0.692012
0.689703
0.687076
0.684066
0.680598
0.676583
0.671915
0.666471
0.660107
0.652652
0.643903
0.633621
0.621532
0.607324
0.590641
0.571086
0.548219
0.521573
0.490661
0.455002
0.414144
0.367708
0.315442
0.257295
0.193483
0.124564
0.0514694
0.825422
0.825139
0.824408
0.823286
0.821893
0.820312
0.818586
0.816737
0.814793
0.812775
0.810703
0.808588
0.806438
0.804258
0.802052
0.799824
0.797575
0.795306
0.793019
0.790715
0.788394
0.786057
0.783705
0.781338
0.778958
0.776565
0.774162
0.771751
0.769334
0.766914
0.764496
0.762084
0.759683
0.757298
0.754933
0.752594
0.750285
0.748012
0.745779
0.743592
0.741454
0.739371
0.737344
0.735379
0.733478
0.731643
0.729875
0.728176
0.726543
0.724979
0.723481
0.722049
0.720681
0.719375
0.71813
0.716941
0.715801
0.714709
0.713659
0.712648
0.711672
0.710724
0.709797
0.708885
0.707979
0.707071
0.706148
0.705199
0.704207
0.703157
0.702026
0.700792
0.699424
0.69789
0.696146
0.694143
0.691823
0.689112
0.685926
0.682162
0.677699
0.672389
0.666058
0.658497
0.649456
0.638642
0.625713
0.610272
0.591865
0.569979
0.544048
0.513464
0.477599
0.435836
0.387624
0.332545
0.270415
0.201391
0.126079
0.0456103
0.822686
0.822447
0.821831
0.820877
0.819675
0.818285
0.81674
0.815064
0.81328
0.811411
0.809474
0.80748
0.80544
0.80336
0.801246
0.7991
0.796928
0.79473
0.79251
0.790269
0.788007
0.785728
0.783431
0.781119
0.778794
0.776456
0.774109
0.771754
0.769394
0.767033
0.764675
0.762324
0.759985
0.757661
0.755358
0.753081
0.750834
0.748622
0.746449
0.744321
0.742241
0.740213
0.738242
0.73633
0.73448
0.732695
0.730976
0.729324
0.727741
0.726225
0.724778
0.723398
0.722085
0.720839
0.719657
0.718537
0.717476
0.716471
0.715519
0.714618
0.713765
0.712955
0.712184
0.711448
0.710739
0.710052
0.709378
0.708707
0.708029
0.707329
0.706591
0.705795
0.704917
0.703928
0.702791
0.701464
0.699891
0.698009
0.695738
0.692979
0.689617
0.685506
0.680471
0.6743
0.666735
0.657466
0.646125
0.632271
0.615392
0.59489
0.570088
0.54023
0.504504
0.462078
0.412153
0.354065
0.287402
0.212182
0.129025
0.0393161
0.820275
0.820069
0.819537
0.81871
0.817656
0.816419
0.815026
0.813497
0.811855
0.810118
0.808302
0.806421
0.804483
0.802497
0.800468
0.798402
0.796302
0.794173
0.792016
0.789834
0.78763
0.785406
0.783163
0.780904
0.778631
0.776345
0.77405
0.771748
0.769443
0.767137
0.764835
0.762541
0.760258
0.757992
0.755746
0.753526
0.751336
0.74918
0.747064
0.74499
0.742964
0.740989
0.739069
0.737208
0.735407
0.733671
0.731999
0.730396
0.72886
0.727394
0.725997
0.724671
0.723414
0.722228
0.721112
0.720064
0.719083
0.718168
0.717317
0.716529
0.715802
0.715134
0.714523
0.713967
0.713461
0.713001
0.712584
0.712202
0.711848
0.711512
0.711182
0.710844
0.71048
0.710065
0.709572
0.708962
0.708191
0.707202
0.705923
0.704266
0.70212
0.699348
0.69578
0.691204
0.685359
0.677925
0.668508
0.656634
0.641726
0.6231
0.599952
0.571355
0.53627
0.493582
0.44216
0.380972
0.309244
0.226708
0.13386
0.0323623
0.818144
0.817962
0.817495
0.816765
0.815827
0.814715
0.813448
0.812045
0.810524
0.808903
0.807197
0.805416
0.803573
0.801673
0.799725
0.797733
0.795703
0.793639
0.791543
0.78942
0.787271
0.7851
0.782909
0.780701
0.778478
0.776242
0.773997
0.771745
0.76949
0.767236
0.764986
0.762743
0.760513
0.7583
0.756107
0.75394
0.751802
0.749698
0.747632
0.745609
0.743633
0.741707
0.739836
0.738022
0.736268
0.734578
0.732953
0.731395
0.729907
0.728489
0.727143
0.72587
0.72467
0.723544
0.722494
0.72152
0.72062
0.719796
0.719046
0.718372
0.717773
0.717249
0.7168
0.716425
0.716125
0.715897
0.71574
0.715652
0.715628
0.715665
0.715754
0.715889
0.716055
0.716237
0.716414
0.716558
0.716633
0.716592
0.716375
0.715906
0.715085
0.713786
0.711851
0.709075
0.705201
0.699906
0.692783
0.683325
0.670903
0.654746
0.633913
0.607286
0.573556
0.531245
0.478765
0.414559
0.337282
0.246213
0.141476
0.0249184
0.816259
0.816097
0.815679
0.815024
0.814178
0.813167
0.812007
0.81071
0.809294
0.807774
0.806164
0.804475
0.802717
0.800897
0.799023
0.797101
0.795136
0.793133
0.791095
0.789027
0.786931
0.78481
0.782668
0.780508
0.778332
0.776143
0.773944
0.771739
0.769531
0.767324
0.765122
0.762927
0.760745
0.75858
0.756435
0.754316
0.752226
0.75017
0.748151
0.746175
0.744245
0.742365
0.740538
0.738768
0.737059
0.735412
0.733832
0.732319
0.730876
0.729506
0.72821
0.726989
0.725845
0.72478
0.723795
0.722894
0.722075
0.721341
0.720692
0.720131
0.719659
0.719278
0.718991
0.718798
0.718703
0.718707
0.718811
0.719018
0.719327
0.71974
0.720254
0.720868
0.721575
0.722368
0.723235
0.724158
0.725112
0.726064
0.726966
0.727758
0.728357
0.728654
0.728506
0.727726
0.726071
0.723225
0.718781
0.712216
0.702859
0.689862
0.672156
0.648415
0.617024
0.576063
0.523326
0.456484
0.373216
0.272098
0.152514
0.0170042
0.814594
0.814447
0.814068
0.813473
0.812701
0.811773
0.8107
0.809493
0.808167
0.806735
0.80521
0.803602
0.80192
0.800173
0.798367
0.796509
0.794605
0.792659
0.790675
0.788658
0.786611
0.784538
0.782442
0.780326
0.778194
0.776049
0.773894
0.771732
0.769568
0.767404
0.765245
0.763095
0.760957
0.758835
0.756735
0.754659
0.752613
0.7506
0.748625
0.746691
0.744803
0.742965
0.74118
0.739451
0.737783
0.736178
0.734639
0.733169
0.73177
0.730445
0.729197
0.728027
0.726938
0.725932
0.725011
0.724181
0.723441
0.722795
0.722245
0.721795
0.721448
0.721208
0.721079
0.721066
0.721172
0.721405
0.721767
0.722266
0.722906
0.723692
0.72463
0.725723
0.726974
0.728383
0.729948
0.731664
0.733518
0.735491
0.737554
0.739663
0.741758
0.743751
0.745526
0.746921
0.747717
0.747623
0.746247
0.743072
0.737409
0.728358
0.71474
0.695033
0.667298
0.629114
0.577521
0.509131
0.41999
0.307182
0.167418
0.00585652
0.813128
0.812993
0.812645
0.812098
0.811385
0.810525
0.809525
0.808394
0.807144
0.805788
0.804337
0.802801
0.801188
0.799505
0.797762
0.795962
0.794113
0.792219
0.790285
0.788316
0.786314
0.784285
0.782232
0.780158
0.778066
0.775961
0.773846
0.771724
0.769599
0.767475
0.765356
0.763245
0.761147
0.759065
0.757004
0.754969
0.752962
0.750988
0.749052
0.747157
0.745307
0.743507
0.74176
0.74007
0.738439
0.736873
0.735373
0.733943
0.732585
0.731304
0.730101
0.72898
0.727943
0.726994
0.726135
0.725372
0.724709
0.724148
0.723694
0.72335
0.723124
0.72302
0.723044
0.723204
0.723506
0.72396
0.724574
0.725357
0.72632
0.727472
0.728825
0.73039
0.732178
0.734198
0.736459
0.738968
0.741727
0.744734
0.747978
0.751439
0.755081
0.758846
0.762649
0.766365
0.769814
0.772746
0.774809
0.775516
0.774201
0.769948
0.761512
0.747212
0.724799
0.691317
0.642971
0.575116
0.481852
0.357893
0.192546
-0.00747612
0.811844
0.811719
0.811396
0.810888
0.810224
0.809419
0.808479
0.807411
0.806226
0.804936
0.803549
0.802075
0.800522
0.798898
0.797209
0.795462
0.793663
0.791817
0.789928
0.788002
0.786042
0.784053
0.782039
0.780002
0.777948
0.77588
0.773801
0.771714
0.769625
0.767537
0.765454
0.763379
0.761316
0.75927
0.757245
0.755245
0.753273
0.751335
0.749433
0.747573
0.745759
0.743993
0.74228
0.740624
0.739029
0.737497
0.736033
0.73464
0.733322
0.73208
0.73092
0.729845
0.728857
0.727961
0.727162
0.726463
0.725871
0.72539
0.725026
0.724785
0.724672
0.724697
0.724867
0.725192
0.725681
0.726346
0.7272
0.728255
0.729527
0.731032
0.732786
0.734807
0.737116
0.739731
0.742672
0.74596
0.749612
0.753644
0.758068
0.762888
0.768097
0.773672
0.779569
0.785707
0.791963
0.798143
0.803963
0.809005
0.812665
0.814079
0.812008
0.804691
0.789637
0.763326
0.720984
0.656204
0.561041
0.427797
0.238707
0.00400961
0.81073
0.810613
0.81031
0.809833
0.809208
0.808448
0.807558
0.806544
0.805414
0.804178
0.802847
0.801427
0.799927
0.798353
0.796713
0.795012
0.793257
0.791454
0.789605
0.787718
0.785796
0.783843
0.781864
0.779861
0.777841
0.775805
0.773758
0.771704
0.769647
0.767591
0.765539
0.763496
0.761465
0.75945
0.757457
0.755488
0.753547
0.75164
0.74977
0.747941
0.746157
0.744422
0.74274
0.741115
0.739551
0.738051
0.73662
0.73526
0.733977
0.732772
0.731652
0.730618
0.729676
0.72883
0.728085
0.727445
0.726919
0.726513
0.726233
0.726085
0.726079
0.726224
0.72653
0.727008
0.727671
0.728535
0.729613
0.730924
0.732487
0.734323
0.736456
0.73891
0.741713
0.744895
0.748488
0.752524
0.757039
0.762067
0.767642
0.773797
0.780556
0.787938
0.795942
0.804546
0.81369
0.823263
0.833069
0.842801
0.851975
0.859853
0.86532
0.866685
0.861415
0.845562
0.813382
0.755438
0.660121
0.509521
0.288191
0.0296196
0.809775
0.809664
0.809377
0.808925
0.808332
0.807609
0.80676
0.805789
0.804705
0.803517
0.802232
0.800858
0.799403
0.797873
0.796275
0.794615
0.792899
0.791132
0.78932
0.787466
0.785577
0.783656
0.781708
0.779736
0.777744
0.775738
0.77372
0.771694
0.769664
0.767636
0.765612
0.763596
0.761593
0.759606
0.75764
0.755698
0.753785
0.751905
0.750062
0.74826
0.746502
0.744794
0.74314
0.741542
0.740005
0.738534
0.737131
0.735802
0.734549
0.733378
0.732293
0.731297
0.730396
0.729595
0.728898
0.728313
0.727846
0.727507
0.727303
0.727241
0.727332
0.727585
0.728015
0.728633
0.729456
0.7305
0.731784
0.733329
0.73516
0.737301
0.739783
0.742637
0.7459
0.74961
0.75381
0.758548
0.763875
0.769844
0.776515
0.783946
0.792199
0.801331
0.811397
0.822434
0.834461
0.84746
0.861355
0.875977
0.89102
0.905959
0.919937
0.931555
0.938605
0.937301
0.92188
0.880232
0.797186
0.625458
0.339779
-0.15121
0.80897
0.808864
0.80859
0.808158
0.80759
0.806897
0.806081
0.805147
0.8041
0.80295
0.801704
0.800369
0.798952
0.797459
0.795896
0.794271
0.792588
0.790853
0.789072
0.787248
0.785387
0.783494
0.781572
0.779626
0.77766
0.775678
0.773685
0.771683
0.769678
0.767673
0.765673
0.763681
0.761701
0.759738
0.757795
0.755877
0.753987
0.75213
0.750309
0.74853
0.746796
0.745111
0.743479
0.741905
0.740392
0.738944
0.737567
0.736263
0.735038
0.733896
0.732841
0.731879
0.731014
0.730252
0.729599
0.729061
0.728647
0.728365
0.728228
0.728242
0.728418
0.728768
0.729306
0.730049
0.731012
0.732217
0.733684
0.735438
0.737507
0.739922
0.742717
0.745931
0.749607
0.753794
0.758546
0.763922
0.76999
0.776823
0.784502
0.793116
0.802759
0.813534
0.825546
0.8389
0.853699
0.870027
0.887941
0.907441
0.928435
0.950681
0.973687
0.996553
1.01774
1.0345
1.04247
1.03185
0.99034
0.856949
0.598263
-0.406254
0.0401468
-0.011795
-0.0645098
-0.117473
-0.170136
-0.221967
-0.272466
-0.321172
-0.367673
-0.41162
-0.452703
-0.490775
-0.525573
-0.557221
-0.585876
-0.611006
-0.632452
-0.650408
-0.664986
-0.676354
-0.684601
-0.689773
-0.69196
-0.691298
-0.687904
-0.682194
-0.674627
-0.665303
-0.654389
0.0361997
-0.0162193
-0.0694055
-0.122799
-0.175825
-0.227946
-0.278648
-0.327482
-0.374032
-0.418004
-0.459156
-0.497263
-0.532047
-0.563523
-0.591532
-0.616048
-0.637343
-0.655312
-0.670022
-0.681614
-0.690032
-0.695328
-0.697663
-0.69718
-0.69405
-0.688595
-0.681136
-0.67188
-0.661056
0.0305031
-0.0233435
-0.0778497
-0.132423
-0.186462
-0.239439
-0.290806
-0.340154
-0.387034
-0.431218
-0.472367
-0.510391
-0.545026
-0.576354
-0.604246
-0.628729
-0.649813
-0.66774
-0.68273
-0.694581
-0.70325
-0.708882
-0.711645
-0.711662
-0.709091
-0.704148
-0.697084
-0.688151
-0.67762
0.0231596
-0.0325915
-0.0888937
-0.145023
-0.200444
-0.254544
-0.306846
-0.356821
-0.404165
-0.448522
-0.48973
-0.52762
-0.562108
-0.593233
-0.620996
-0.645371
-0.666002
-0.683559
-0.698462
-0.710415
-0.719287
-0.725224
-0.728338
-0.728728
-0.726526
-0.72189
-0.715039
-0.706233
-0.695762
0.0155247
-0.0427977
-0.101529
-0.159872
-0.217228
-0.272964
-0.326555
-0.377489
-0.425468
-0.470157
-0.511478
-0.549233
-0.583515
-0.614234
-0.641577
-0.665503
-0.68607
-0.703635
-0.718378
-0.730243
-0.739212
-0.745345
-0.748705
-0.749352
-0.747368
-0.74287
-0.736042
-0.727124
-0.716405
0.0070175
-0.0545711
-0.11641
-0.177583
-0.237392
-0.295173
-0.350351
-0.402446
-0.451139
-0.496204
-0.537532
-0.575089
-0.608919
-0.639128
-0.665853
-0.689247
-0.709475
-0.72671
-0.741126
-0.752819
-0.761803
-0.768069
-0.771613
-0.772437
-0.770554
-0.766037
-0.759032
-0.74974
-0.00217721
-0.0678742
-0.13362
-0.198324
-0.261181
-0.321462
-0.378556
-0.432002
-0.481509
-0.526918
-0.56819
-0.605368
-0.638589
-0.668048
-0.693976
-0.716615
-0.736189
-0.752904
-0.76696
-0.778468
-0.787436
-0.793815
-0.79753
-0.798495
-0.796641
-0.791968
-0.784562
-0.774591
-0.0126312
-0.0834548
-0.154053
-0.223086
-0.289628
-0.352861
-0.412154
-0.467072
-0.517381
-0.563014
-0.604021
-0.640548
-0.67284
-0.701213
-0.726014
-0.747577
-0.766212
-0.782198
-0.795759
-0.807008
-0.81594
-0.822462
-0.826399
-0.82755
-0.82572
-0.820786
-0.812758
-0.801765
-0.0244834
-0.101717
-0.178325
-0.252613
-0.323519
-0.390149
-0.451879
-0.508313
-0.559318
-0.604944
-0.645368
-0.680854
-0.711781
-0.738623
-0.761876
-0.781989
-0.799361
-0.814361
-0.827278
-0.83824
-0.847204
-0.853997
-0.858336
-0.859859
-0.858174
-0.852976
-0.844159
-0.831797
-0.0383209
-0.12363
-0.207712
-0.288334
-0.36432
-0.434746
-0.499046
-0.556901
-0.608347
-0.653587
-0.692954
-0.726839
-0.755805
-0.780508
-0.801656
-0.819836
-0.835529
-0.849224
-0.861342
-0.87202
-0.881151
-0.888487
-0.893599
-0.895845
-0.894544
-0.889161
-0.879375
-0.865185
-0.0547183
-0.150261
-0.243643
-0.331852
-0.413681
-0.488263
-0.555143
-0.614124
-0.665559
-0.709821
-0.747452
-0.778948
-0.805133
-0.82689
-0.845194
-0.860815
-0.87428
-0.886264
-0.897389
-0.907762
-0.917304
-0.925708
-0.932279
-0.935936
-0.93557
-0.930304
-0.919433
-0.902787
-0.0747885
-0.183547
-0.288453
-0.385532
-0.473867
-0.552864
-0.622098
-0.681514
-0.732119
-0.774495
-0.809409
-0.837482
-0.859887
-0.877703
-0.8924
-0.9048
-0.915364
-0.925136
-0.935047
-0.945204
-0.955573
-0.965748
-0.974713
-0.980629
-0.982136
-0.97779
-0.965634
-0.945751
-0.0997911
-0.226611
-0.346339
-0.453342
-0.548017
-0.63094
-0.701544
-0.76035
-0.809364
-0.849193
-0.880266
-0.903544
-0.920648
-0.933053
-0.942827
-0.951176
-0.958076
-0.964886
-0.973115
-0.983324
-0.995387
-1.00855
-1.02183
-1.03142
-1.03579
-1.034
-1.02046
-0.995258
-0.131001
-0.282909
-0.422058
-0.539432
-0.640277
-0.726823
-0.797849
-0.855067
-0.900291
-0.935943
-0.962538
-0.979388
-0.988745
-0.994466
-0.997736
-0.999832
-1.00176
-1.00453
-1.00984
-1.01973
-1.03433
-1.05233
-1.07152
-1.08869
-1.09958
-1.10026
-1.0864
-1.05632
-0.174567
-0.356979
-0.516271
-0.64557
-0.755196
-0.844096
-0.91639
-0.970606
-1.0073
-1.03445
-1.05275
-1.06046
-1.0602
-1.05637
-1.05142
-1.04637
-1.04227
-1.04044
-1.04268
-1.05172
-1.06886
-1.09325
-1.12353
-1.15249
-1.17272
-1.17677
-1.16041
-1.1223
-0.249162
-0.479206
-0.652774
-0.791352
-0.909423
-0.994042
-1.05561
-1.09791
-1.12447
-1.14008
-1.14585
-1.14106
-1.12794
-1.1124
-1.09796
-1.08496
-1.07303
-1.06424
-1.06336
-1.07427
-1.09691
-1.13058
-1.17343
-1.21867
-1.25343
-1.2655
-1.24588
-1.19606
-0.350063
-0.677718
-0.87936
-0.999851
-1.0997
-1.16671
-1.206
-1.22918
-1.24186
-1.24335
-1.23503
-1.21685
-1.19111
-1.16507
-1.1423
-1.12144
-1.09966
-1.07747
-1.06159
-1.06433
-1.0884
-1.13012
-1.18479
-1.24769
-1.30251
-1.33034
-1.31581
-1.26071
-0.460878
-0.892331
-1.13207
-1.23235
-1.2733
-1.28725
-1.2884
-1.28531
-1.28316
-1.27658
-1.25733
-1.22637
-1.19279
-1.16556
-1.14544
-1.12879
-1.11291
-1.09779
-1.08772
-1.08717
-1.10371
-1.13845
-1.18892
-1.24896
-1.30518
-1.33614
-1.32651
-1.27347
-0.903531
-1.15962
-1.28803
-1.31747
-1.28872
-1.28786
-1.29987
-1.30157
-1.29535
-1.28401
-1.26496
-1.23564
-1.20221
-1.17281
-1.14959
-1.13053
-1.11375
-1.09974
-1.09352
-1.09706
-1.11266
-1.14181
-1.1833
-1.23249
-1.27947
-1.3051
-1.29532
-1.25109
-2.29818
-1.54314
-1.31781
-1.36734
-1.33922
-1.31551
-1.30136
-1.29343
-1.28399
-1.26948
-1.24927
-1.22483
-1.19878
-1.1744
-1.15293
-1.13507
-1.12091
-1.11102
-1.10595
-1.10945
-1.12357
-1.14903
-1.18452
-1.2253
-1.26084
-1.27816
-1.26535
-1.2219
)
;

boundaryField
{
    inlet
    {
        type            zeroGradient;
    }
    outlet
    {
        type            fixedValue;
        value           nonuniform List<scalar> 0();
    }
    topWall
    {
        type            zeroGradient;
    }
    lowerWall
    {
        type            zeroGradient;
    }
    leadingEdge
    {
        type            zeroGradient;
    }
    trailingEdge
    {
        type            zeroGradient;
    }
    upperSurface
    {
        type            zeroGradient;
    }
    lowerSurface
    {
        type            zeroGradient;
    }
    frontAndBack
    {
        type            empty;
    }
    procBoundary0to1
    {
        type            processor;
        value           nonuniform List<scalar> 
21
(
-0.642247
-0.649013
-0.665823
-0.68396
-0.704229
-0.738457
-0.738457
-0.762371
-0.78816
-0.8163
-0.847139
-0.881227
-0.919589
-0.962328
-1.01377
-1.06838
-1.12585
-1.17761
-1.19027
-1.1751
-1.1555
)
;
    }
    procBoundary0to4
    {
        type            processor;
        value           nonuniform List<scalar> 
101
(
0.807008
0.806914
0.806669
0.806669
0.806281
0.80577
0.805145
0.804405
0.803553
0.802595
0.801536
0.800382
0.799139
0.797813
0.79641
0.794935
0.793395
0.791794
0.790139
0.788433
0.786683
0.784894
0.783069
0.781213
0.779332
0.777429
0.775509
0.773576
0.771634
0.769687
0.76774
0.765798
0.763862
0.761939
0.760031
0.758144
0.75628
0.754445
0.752641
0.750875
0.749148
0.747467
0.745835
0.744256
0.742735