/*--------------------------------*- C++ -*----------------------------------*\
| =========                 |                                                 |
| \\      /  F ield         | OpenFOAM: The Open Source CFD Toolbox           |
|  \\    /   O peration     | Version:  2206                                  |
|   \\  /    A nd           | Website:  www.openfoam.com                      |
|    \\/     M anipulation  |                                                 |
\*---------------------------------------------------------------------------*/
FoamFile
{
    version     2.0;
    format      ascii;
    arch        "LSB;label=32;scalar=64";
    class       surfaceScalarField;
    location    "19.2";
    object      phi_0;
}
// * * * * * * * * * * * * * * * * * * * * * * * * * * * * * * * * * * * * * //

dimensions      [0 3 -1 0 0 0 0];

oriented        oriented;

internalField   nonuniform List<scalar> 
3539
(
7.04174e-06
-2.89723e-07
2.6464e-07
7.01548e-06
-3.54489e-07
3.80744e-07
6.93343e-06
-3.87155e-07
4.69204e-07
6.79789e-06
-3.87588e-07
5.23127e-07
6.62201e-06
-3.64775e-07
5.40655e-07
6.42571e-06
-3.32021e-07
5.28328e-07
6.22836e-06
-3.02282e-07
4.99628e-07
6.04294e-06
-2.83537e-07
4.68959e-07
5.8759e-06
-2.78162e-07
4.45204e-07
5.72968e-06
-2.84452e-07
4.30669e-07
5.60405e-06
-2.97465e-07
4.23096e-07
5.49715e-06
-3.1049e-07
4.17386e-07
5.40661e-06
-3.16761e-07
4.07303e-07
5.33068e-06
-3.10736e-07
3.86665e-07
5.26916e-06
-2.886e-07
3.50126e-07
5.22264e-06
-2.48452e-07
2.94971e-07
5.19184e-06
-1.9047e-07
2.21269e-07
5.1774e-06
-1.16222e-07
1.30664e-07
5.17981e-06
-2.92632e-08
2.68492e-08
5.19919e-06
6.532e-08
-8.46944e-08
5.23454e-06
1.61512e-07
-1.96867e-07
5.28398e-06
2.53036e-07
-3.02476e-07
5.34551e-06
3.34842e-07
-3.96372e-07
5.41714e-06
4.02966e-07
-4.7459e-07
5.49696e-06
4.54489e-07
-5.34311e-07
5.58313e-06
4.87574e-07
-5.73744e-07
5.67385e-06
5.01188e-07
-5.91909e-07
5.76751e-06
4.94781e-07
-5.8844e-07
5.86274e-06
4.68264e-07
-5.63499e-07
5.95818e-06
4.22322e-07
-5.17759e-07
6.05204e-06
3.58952e-07
-4.52811e-07
6.14087e-06
2.82303e-07
-3.71134e-07
6.21957e-06
1.97599e-07
-2.76298e-07
6.28255e-06
1.10391e-07
-1.73375e-07
6.32546e-06
2.52588e-08
-6.81655e-08
6.34533e-06
-5.38055e-08
3.39353e-08
6.34018e-06
-1.2331e-07
1.28461e-07
6.30852e-06
-1.79848e-07
2.11503e-07
6.25152e-06
-2.22244e-07
2.79252e-07
6.17354e-06
-2.51633e-07
3.29607e-07
6.08159e-06
-2.70951e-07
3.62901e-07
5.98335e-06
-2.83518e-07
3.81761e-07
5.88531e-06
-2.91871e-07
3.89906e-07
5.79168e-06
-2.97085e-07
3.90723e-07
5.70474e-06
-2.9895e-07
3.85882e-07
5.62577e-06
-2.9642e-07
3.75393e-07
5.55548e-06
-2.8801e-07
3.58301e-07
5.49441e-06
-2.72228e-07
3.33293e-07
5.44324e-06
-2.47845e-07
2.99021e-07
5.40277e-06
-2.14037e-07
2.54503e-07
5.37354e-06
-1.70621e-07
1.99851e-07
5.35587e-06
-1.18145e-07
1.35814e-07
5.34991e-06
-5.81322e-08
6.40999e-08
5.35556e-06
6.90608e-09
-1.25577e-08
5.37221e-06
7.35806e-08
-9.02293e-08
5.39867e-06
1.37984e-07
-1.64452e-07
5.43365e-06
1.96835e-07
-2.31813e-07
5.47567e-06
2.47557e-07
-2.89579e-07
5.52331e-06
2.88144e-07
-3.35776e-07
5.57526e-06
3.17202e-07
-3.69158e-07
5.6303e-06
3.34049e-07
-3.89088e-07
5.68719e-06
3.38464e-07
-3.95352e-07
5.7448e-06
3.30477e-07
-3.88085e-07
5.80208e-06
3.10398e-07
-3.67684e-07
5.85792e-06
2.79023e-07
-3.34865e-07
5.91085e-06
2.37965e-07
-2.90895e-07
5.95878e-06
1.89543e-07
-2.37466e-07
5.99922e-06
1.36429e-07
-1.76873e-07
6.0299e-06
8.11525e-08
-1.11833e-07
6.04925e-06
2.59424e-08
-4.52877e-08
6.05631e-06
-2.71554e-08
2.00929e-08
6.05066e-06
-7.62936e-08
8.19474e-08
6.03219e-06
-1.19698e-07
1.38162e-07
6.0015e-06
-1.56156e-07
1.86852e-07
5.96024e-06
-1.85303e-07
2.26563e-07
5.91085e-06
-2.07385e-07
2.56769e-07
5.85623e-06
-2.22911e-07
2.77534e-07
5.79926e-06
-2.32351e-07
2.89317e-07
5.74237e-06
-2.35984e-07
2.92875e-07
5.68736e-06
-2.33908e-07
2.88921e-07
5.63565e-06
-2.25998e-07
2.77704e-07
5.58851e-06
-2.1201e-07
2.59156e-07
5.54704e-06
-1.91764e-07
2.33233e-07
5.51223e-06
-1.65218e-07
2.00022e-07
5.48495e-06
-1.32526e-07
1.59809e-07
5.4658e-06
-9.41788e-08
1.13333e-07
5.45515e-06
-5.11017e-08
6.17488e-08
5.45326e-06
-4.96911e-09
6.85755e-09
5.45993e-06
4.20299e-08
-4.86984e-08
5.47451e-06
8.74431e-08
-1.02027e-07
5.49608e-06
1.29147e-07
-1.50712e-07
5.52348e-06
1.65285e-07
-1.92691e-07
5.55555e-06
1.94364e-07
-2.26431e-07
5.59115e-06
2.15368e-07
-2.50971e-07
5.6292e-06
2.27838e-07
-2.6588e-07
5.66863e-06
2.31701e-07
-2.7114e-07
5.70854e-06
2.27086e-07
-2.66987e-07
5.74802e-06
2.14284e-07
-2.53766e-07
5.78616e-06
1.93887e-07
-2.32025e-07
5.82193e-06
1.6698e-07
-2.02756e-07
5.85411e-06
1.35032e-07
-1.67211e-07
5.88135e-06
9.96531e-08
-1.26897e-07
5.90248e-06
6.2393e-08
-8.35206e-08
5.9167e-06
2.46764e-08
-3.88962e-08
5.92357e-06
-1.216e-08
5.2942e-09
5.92294e-06
-4.69055e-08
4.75297e-08
5.9149e-06
-7.84044e-08
8.64502e-08
5.8996e-06
-1.05572e-07
1.20865e-07
5.8776e-06
-1.27748e-07
1.49748e-07
5.84994e-06
-1.44623e-07
1.72286e-07
5.81794e-06
-1.56152e-07
1.88151e-07
5.78304e-06
-1.62505e-07
1.97405e-07
5.74667e-06
-1.63906e-07
2.00279e-07
5.71018e-06
-1.60606e-07
1.97094e-07
5.67488e-06
-1.52854e-07
1.88157e-07
5.64192e-06
-1.40839e-07
1.73796e-07
5.61227e-06
-1.24739e-07
1.54397e-07
5.58671e-06
-1.048e-07
1.30354e-07
5.56595e-06
-8.13184e-08
1.02084e-07
5.55054e-06
-5.47118e-08
7.01223e-08
5.54091e-06
-2.56367e-08
3.52602e-08
4.92315e-09
-1.32169e-09
6.60708e-06
-2.32187e-07
6.49674e-06
-2.4415e-07
6.34549e-06
-2.35903e-07
6.17198e-06
-2.14081e-07
5.99518e-06
-1.87976e-07
5.82841e-06
-1.65251e-07
5.67756e-06
-1.51434e-07
5.54393e-06
-1.49901e-07
5.42618e-06
-1.60417e-07
5.32146e-06
-1.79732e-07
5.22666e-06
-2.0266e-07
5.13933e-06
-2.23167e-07
5.05831e-06
-2.35736e-07
4.98395e-06
-2.36377e-07
4.91817e-06
-2.22817e-07
4.86379e-06
-1.94077e-07
4.82354e-06
-1.5022e-07
4.79953e-06
-9.22094e-08
4.7932e-06
-2.29303e-08
4.8053e-06
5.32145e-08
4.83568e-06
1.31135e-07
4.88305e-06
2.05664e-07
4.94566e-06
2.72236e-07
5.02153e-06
3.27092e-07
5.10867e-06
3.67352e-07
5.2052e-06
3.91039e-07
5.3094e-06
3.9699e-07
5.41935e-06
3.84831e-07
5.53246e-06
3.5516e-07
5.6445e-06
3.10279e-07
5.74945e-06
2.53998e-07
5.84066e-06
1.91093e-07
5.91237e-06
1.25893e-07
5.96062e-06
6.21377e-08
5.98333e-06
2.55113e-09
5.97969e-06
-5.01605e-08
5.94991e-06
-9.35304e-08
5.89703e-06
-1.26968e-07
5.82663e-06
-1.51847e-07
5.7454e-06
-1.70403e-07
5.65934e-06
-1.84892e-07
5.57279e-06
-1.96965e-07
5.48825e-06
-2.07333e-07
5.40699e-06
-2.15822e-07
5.32964e-06
-2.21604e-07
5.25667e-06
-2.23453e-07
5.18868e-06
-2.20021e-07
5.12657e-06
-2.10117e-07
5.07156e-06
-1.92831e-07
5.02512e-06
-1.67593e-07
4.98875e-06
-1.34252e-07
4.96379e-06
-9.31879e-08
4.95107e-06
-4.54096e-08
4.95095e-06
7.02609e-09
4.96333e-06
6.1198e-08
4.9874e-06
1.13914e-07
5.02199e-06
1.62244e-07
5.06575e-06
2.03794e-07
5.11721e-06
2.36683e-07
5.17486e-06
2.59552e-07
5.2373e-06
2.71613e-07
5.30318e-06
2.72586e-07
5.37102e-06
2.62632e-07
5.43895e-06
2.42475e-07
5.50436e-06
2.1361e-07
5.56423e-06
1.78092e-07
5.61564e-06
1.38135e-07
5.65619e-06
9.5876e-08
5.68419e-06
5.31585e-08
5.6987e-06
1.14284e-08
5.69947e-06
-2.79218e-08
5.68656e-06
-6.33902e-08
5.66079e-06
-9.39228e-08
5.62388e-06
-1.1925e-07
5.57826e-06
-1.3968e-07
5.52652e-06
-1.55641e-07
5.4711e-06
-1.6749e-07
5.41413e-06
-1.75385e-07
5.35735e-06
-1.79207e-07
5.30213e-06
-1.7869e-07
5.24967e-06
-1.73528e-07
5.20107e-06
-1.63418e-07
5.15746e-06
-1.48149e-07
5.11991e-06
-1.27668e-07
5.08949e-06
-1.02106e-07
5.06713e-06
-7.18238e-08
5.05356e-06
-3.75257e-08
5.04914e-06
-5.50769e-10
5.05385e-06
3.73216e-08
5.06728e-06
7.40068e-08
5.08876e-06
1.07665e-07
5.11735e-06
1.36703e-07
5.15188e-06
1.59828e-07
5.19114e-06
1.76107e-07
5.23395e-06
1.85036e-07
5.27916e-06
1.86488e-07
5.32563e-06
1.80619e-07
5.37202e-06
1.67896e-07
5.41667e-06
1.49233e-07
5.45777e-06
1.25881e-07
5.49361e-06
9.91853e-08
5.52281e-06
7.04541e-08
5.54432e-06
4.08854e-08
5.5575e-06
1.14983e-08
5.56209e-06
-1.67537e-08
5.55805e-06
-4.28584e-08
5.54548e-06
-6.58379e-08
5.52504e-06
-8.51352e-08
5.49784e-06
-1.00544e-07
5.46531e-06
-1.12099e-07
5.42907e-06
-1.19905e-07
5.39065e-06
-1.24083e-07
5.35148e-06
-1.24742e-07
5.31287e-06
-1.21991e-07
5.2759e-06
-1.15891e-07
5.24154e-06
-1.06471e-07
5.21061e-06
-9.38138e-08
5.18388e-06
-7.80732e-08
5.16205e-06
-5.94814e-08
5.14569e-06
-3.83541e-08
5.13528e-06
-1.52227e-08
9.16383e-09
5.87521e-06
-1.10477e-07
5.73948e-06
-1.08421e-07
5.60366e-06
-1.00077e-07
5.47842e-06
-8.88432e-08
5.36839e-06
-7.79535e-08
5.27387e-06
-7.07246e-08
5.19247e-06
-7.00363e-08
5.12032e-06
-7.77473e-08
5.05285e-06
-9.29471e-08
4.98582e-06
-1.12701e-07
4.91621e-06
-1.3305e-07
4.84322e-06
-1.50181e-07
4.76829e-06
-1.60807e-07
4.69429e-06
-1.62374e-07
4.62484e-06
-1.53366e-07
4.56397e-06
-1.33215e-07
4.51564e-06
-1.01887e-07
4.48347e-06
-6.00346e-08
4.47003e-06
-9.49871e-09
4.47661e-06
4.66422e-08
4.50356e-06
1.04185e-07
4.55017e-06
1.59052e-07
4.61492e-06
2.07485e-07
4.69572e-06
2.4629e-07
4.79006e-06
2.73018e-07
4.89503e-06
2.86064e-07
5.00725e-06
2.84771e-07
5.12221e-06
2.69866e-07
5.23393e-06
2.43442e-07
5.33573e-06
2.0848e-07
5.42154e-06
1.68191e-07
5.48692e-06
1.25715e-07
5.52936e-06
8.3446e-08
5.5485e-06
4.3001e-08
5.54499e-06
6.06257e-09
5.52088e-06
-2.60532e-08
5.47984e-06
-5.24898e-08
5.42687e-06
-7.40011e-08
5.36665e-06
-9.16278e-08
5.30266e-06
-1.06408e-07
5.23697e-06
-1.19199e-07
5.17054e-06
-1.3054e-07
5.10373e-06
-1.40524e-07
5.03673e-06
-1.48817e-07
4.96986e-06
-1.54736e-07
4.90377e-06
-1.5736e-07
4.83947e-06
-1.55729e-07
4.77839e-06
-1.49036e-07
4.72222e-06
-1.36662e-07
4.67285e-06
-1.18217e-07
4.63221e-06
-9.36118e-08
4.60228e-06
-6.32575e-08
4.58461e-06
-2.77475e-08
4.58019e-06
1.14452e-08
4.58934e-06
5.20517e-08
4.61174e-06
9.15103e-08
4.64645e-06
1.27537e-07
4.6921e-06
1.58143e-07
4.74705e-06
1.8174e-07
4.80939e-06
1.97206e-07
4.87708e-06
2.03922e-07
4.94787e-06
2.01799e-07
5.01907e-06
1.91433e-07
5.08752e-06
1.74023e-07
5.15005e-06
1.5108e-07
5.2039e-06
1.24238e-07
5.24692e-06
9.51188e-08
5.27772e-06
6.5081e-08
5.29571e-06
3.51691e-08
5.30087e-06
6.26207e-09
5.29349e-06
-2.05401e-08
5.27437e-06
-4.42711e-08
5.2451e-06
-6.46512e-08
5.2077e-06
-8.1849e-08
5.16414e-06
-9.61225e-08
5.11619e-06
-1.07695e-07
5.06539e-06
-1.16687e-07
5.01307e-06
-1.23068e-07
4.96048e-06
-1.2661e-07
4.90874e-06
-1.26952e-07
4.85896e-06
-1.23751e-07
4.81227e-06
-1.16724e-07
4.7698e-06
-1.05677e-07
4.7327e-06
-9.05738e-08
4.70214e-06
-7.15486e-08
4.67925e-06
-4.8932e-08
4.665e-06
-2.32729e-08
4.65997e-06
4.47438e-09
4.66441e-06
3.28872e-08
4.67817e-06
6.02479e-08
4.70069e-06
8.51388e-08
4.73108e-06
1.06314e-07
4.76816e-06
1.22755e-07
4.81053e-06
1.33733e-07
4.85671e-06
1.38851e-07
4.90515e-06
1.3805e-07
4.95407e-06
1.31704e-07
5.00141e-06
1.2055e-07
5.04515e-06
1.05494e-07
5.08352e-06
8.75194e-08
5.11506e-06
6.76382e-08
5.13877e-06
4.67462e-08
5.15409e-06
2.55691e-08
5.16082e-06
4.764e-09
5.15894e-06
-1.4877e-08
5.14868e-06
-3.25959e-08
5.13076e-06
-4.79166e-08
5.10635e-06
-6.0728e-08
5.07684e-06
-7.10306e-08
5.0436e-06
-7.88639e-08
5.00796e-06
-8.4259e-08
4.97111e-06
-8.72306e-08
4.93414e-06
-8.77798e-08
4.89803e-06
-8.58809e-08
4.86362e-06
-8.14789e-08
4.8317e-06
-7.45521e-08
4.80303e-06
-6.51449e-08
4.77833e-06
-5.33695e-08
4.75827e-06
-3.94241e-08
4.7435e-06
-2.35782e-08
4.73449e-06
-6.21771e-09
1.20625e-08
5.0989e-06
-3.07136e-08
5.02731e-06
-3.68276e-08
4.96631e-06
-3.90809e-08
4.91627e-06
-3.87999e-08
4.87569e-06
-3.73759e-08
4.84157e-06
-3.66018e-08
4.8103e-06
-3.87653e-08
4.77784e-06
-4.52846e-08
4.74006e-06
-5.51755e-08
4.69424e-06
-6.68718e-08
4.63977e-06
-7.8582e-08
4.57802e-06
-8.84362e-08
4.51184e-06
-9.46257e-08
4.44499e-06
-9.55258e-08
4.38148e-06
-8.98565e-08
4.32507e-06
-7.68023e-08
4.27932e-06
-5.61352e-08
4.24767e-06
-2.83874e-08
4.23284e-06
5.3332e-09
4.23663e-06
4.28566e-08
4.25975e-06
8.10599e-08
4.30162e-06
1.17182e-07
4.36054e-06
1.48571e-07
4.43383e-06
1.73001e-07
4.51795e-06
1.88897e-07
4.60848e-06
1.95533e-07
4.70003e-06
1.9322e-07
4.78691e-06
1.82986e-07
4.86416e-06
1.66189e-07
4.92811e-06
1.44532e-07
4.97656e-06
1.19738e-07
5.00887e-06
9.34087e-08
5.02548e-06
6.68368e-08
5.02754e-06
4.09424e-08
5.0169e-06
1.66979e-08
4.99573e-06
-4.87681e-09
4.96676e-06
-2.35225e-08
4.9322e-06
-3.94463e-08
4.89352e-06
-5.2941e-08
4.85151e-06
-6.43975e-08
4.80653e-06
-7.42183e-08
4.75868e-06
-8.26966e-08
4.70808e-06
-8.99202e-08
4.655e-06
-9.5741e-08
4.60006e-06
-9.9794e-08
4.54425e-06
-1.01552e-07
4.48892e-06
-1.00393e-07
4.4356e-06
-9.57178e-08
4.38599e-06
-8.70529e-08
4.3419e-06
-7.41261e-08
4.30521e-06
-5.69243e-08
4.27768e-06
-3.57234e-08
4.26097e-06
-1.10415e-08
4.25629e-06
1.61313e-08
4.26426e-06
4.4075e-08
4.2848e-06
7.09716e-08
4.31705e-06
9.5283e-08
4.3596e-06
1.15594e-07
4.41056e-06
1.30782e-07
4.46766e-06
1.40111e-07
4.52827e-06
1.43309e-07
4.5894e-06
1.40673e-07
4.64795e-06
1.32876e-07
4.70125e-06
1.20728e-07
4.74712e-06
1.05209e-07
4.78401e-06
8.73469e-08
4.81104e-06
6.80896e-08
4.82791e-06
4.82176e-08
4.83469e-06
2.83873e-08
4.83166e-06
9.2908e-09
4.81942e-06
-8.30316e-09
4.7992e-06
-2.40511e-08
4.77247e-06
-3.79197e-08
4.74059e-06
-4.99656e-08
4.70473e-06
-6.02649e-08
4.6659e-06
-6.88676e-08
4.62497e-06
-7.57589e-08
4.58274e-06
-8.08331e-08
4.54001e-06
-8.3881e-08
4.49766e-06
-8.46019e-08
4.45661e-06
-8.27034e-08
4.41786e-06
-7.79727e-08
4.38247e-06
-7.02897e-08
4.35155e-06
-5.96481e-08
4.32618e-06
-4.61793e-08
4.30742e-06
-3.01768e-08
4.29622e-06
-1.2071e-08
4.29328e-06
7.41849e-09
4.29899e-06
2.71709e-08
4.31326e-06
4.59776e-08
4.3355e-06
6.28979e-08
4.36475e-06
7.70656e-08
4.39973e-06
8.77827e-08
4.43887e-06
9.45846e-08
4.48043e-06
9.72946e-08
4.5224e-06
9.60815e-08
4.56277e-06
9.13376e-08
4.59977e-06
8.35417e-08
4.63198e-06
7.32831e-08
4.65831e-06
6.11976e-08
4.67804e-06
4.79001e-08
4.69087e-06
3.3923e-08
4.69671e-06
1.97244e-08
4.69569e-06
5.79009e-09
4.68809e-06
-7.27937e-09
4.67459e-06
-1.91011e-08
4.65618e-06
-2.95073e-08
4.63386e-06
-3.84067e-08
4.60857e-06
-4.57363e-08
4.58116e-06
-5.14518e-08
4.55241e-06
-5.55173e-08
4.52308e-06
-5.7896e-08
4.49383e-06
-5.85339e-08
4.46532e-06
-5.73635e-08
4.43817e-06
-5.43348e-08
4.41306e-06
-4.94404e-08
4.39064e-06
-4.27207e-08
4.37154e-06
-3.42745e-08
4.35639e-06
-2.4269e-08
4.34574e-06
-1.29302e-08
4.3401e-06
-5.74638e-10
1.23256e-08
4.43907e-06
2.42973e-09
4.4188e-06
-1.04375e-08
4.40086e-06
-1.88925e-08
4.38534e-06
-2.35592e-08
4.37172e-06
-2.51811e-08
4.35902e-06
-2.46771e-08
4.34584e-06
-2.34189e-08
4.32999e-06
-2.29149e-08
4.30891e-06
-2.42049e-08
4.28114e-06
-2.7409e-08
4.24642e-06
-3.21512e-08
4.20557e-06
-3.7725e-08
4.16018e-06
-4.30456e-08
4.11239e-06
-4.68379e-08
4.06461e-06
-4.77435e-08
4.0193e-06
-4.45524e-08
3.979e-06
-3.64998e-08
3.94605e-06
-2.31858e-08
3.92291e-06
-5.24844e-09
3.91182e-06
1.64253e-08
3.91434e-06
4.03314e-08
3.93078e-06
6.46243e-08
3.96028e-06
8.76825e-08
4.00098e-06
1.07869e-07
4.05018e-06
1.23801e-07
4.10454e-06
1.34536e-07
4.16042e-06
1.39652e-07
4.21446e-06
1.39184e-07
4.26392e-06
1.33523e-07
4.30675e-06
1.23362e-07
4.34165e-06
1.09633e-07
4.36798e-06
9.34068e-08
4.38563e-06
7.57569e-08
4.39482e-06
5.7641e-08
4.39593e-06
3.9833e-08
4.38961e-06
2.30235e-08
4.37692e-06
7.81072e-09
4.35892e-06
-5.51729e-09
4.3366e-06
-1.71285e-08
4.31078e-06
-2.71198e-08
4.28208e-06
-3.56958e-08
4.25093e-06
-4.30737e-08
4.21765e-06
-4.94193e-08
4.18251e-06
-5.47813e-08
4.14584e-06
-5.90628e-08
4.10806e-06
-6.20186e-08
4.06981e-06
-6.33049e-08
4.03193e-06
-6.25106e-08
3.99542e-06
-5.92036e-08
3.96145e-06
-5.30875e-08
3.93134e-06
-4.40123e-08
3.90642e-06
-3.20043e-08
3.88805e-06
-1.73515e-08
3.8775e-06
-4.93304e-10
3.87586e-06
1.77705e-08
3.88362e-06
3.63127e-08
3.90052e-06
5.40703e-08
3.9257e-06
7.01011e-08
3.95778e-06
8.35218e-08
3.99492e-06
9.36416e-08
4.03499e-06
1.00041e-07
4.07569e-06
1.02607e-07
4.11488e-06
1.01479e-07
4.15078e-06
9.69732e-08
4.18197e-06
8.95451e-08
4.20742e-06
7.97565e-08
4.22655e-06
6.82114e-08
4.23915e-06
5.54964e-08
4.24523e-06
4.21322e-08
4.24502e-06
2.86055e-08
4.23891e-06
1.53927e-08
4.22764e-06
2.97166e-09
4.21207e-06
-8.48378e-09
4.19302e-06
-1.88685e-08
4.17117e-06
-2.81107e-08
4.14707e-06
-3.61695e-08
4.1212e-06
-4.30011e-08
4.09398e-06
-4.8536e-08
4.06581e-06
-5.26652e-08
4.03717e-06
-5.52341e-08
4.0086e-06
-5.60391e-08
3.98079e-06
-5.48877e-08
3.95446e-06
-5.16505e-08
3.93045e-06
-4.62715e-08
3.90958e-06
-3.87787e-08
3.8927e-06
-2.92979e-08
3.88059e-06
-1.80742e-08
3.87401e-06
-5.49214e-09
3.87351e-06
7.9258e-09
3.8793e-06
2.1378e-08
3.89113e-06
3.41504e-08
3.90837e-06
4.56537e-08
3.9301e-06
5.53354e-08
3.95513e-06
6.27545e-08
3.98208e-06
6.76341e-08
4.0095e-06
6.98758e-08
4.03605e-06
6.95353e-08
4.06059e-06
6.67961e-08
4.0822e-06
6.19323e-08
4.10019e-06
5.52894e-08
4.11413e-06
4.72581e-08
4.12378e-06
3.82453e-08
4.12908e-06
2.86237e-08
4.13008e-06
1.87293e-08
4.12695e-06
8.91775e-09
4.12007e-06
-3.96788e-10
4.10994e-06
-8.9752e-09
4.0971e-06
-1.66638e-08
4.08203e-06
-2.33349e-08
4.06519e-06
-2.88986e-08
4.04703e-06
-3.32917e-08
4.02798e-06
-3.64656e-08
4.00846e-06
-3.83799e-08
3.98892e-06
-3.89883e-08
3.96979e-06
-3.82415e-08
3.95157e-06
-3.61139e-08
3.93475e-06
-3.26127e-08
3.91981e-06
-2.7781e-08
3.90723e-06
-2.17037e-08
3.89749e-06
-1.4523e-08
3.89099e-06
-6.43045e-09
3.8881e-06
2.31482e-09
1.13548e-08
3.52769e-06
9.88094e-09
3.51894e-06
-1.68728e-09
3.50968e-06
-9.63792e-09
3.50028e-06
-1.41557e-08
3.49079e-06
-1.5693e-08
3.48101e-06
-1.49001e-08
3.47053e-06
-1.29381e-08
3.4588e-06
-1.11822e-08
3.44529e-06
-1.06998e-08
3.42969e-06
-1.18073e-08
3.41194e-06
-1.43952e-08
3.39227e-06
-1.80604e-08
3.37111e-06
-2.18798e-08
3.34903e-06
-2.47671e-08
3.32695e-06
-2.5662e-08
3.30604e-06
-2.36372e-08
3.28748e-06
-1.79451e-08
3.27299e-06
-8.6879e-09
3.26403e-06
3.70347e-09
3.2617e-06
1.87546e-08
3.2666e-06
3.54311e-08
3.27865e-06
5.25799e-08
3.29728e-06
6.90482e-08
3.32143e-06
8.37249e-08
3.34958e-06
9.56454e-08
3.38002e-06
1.04098e-07
3.41103e-06
1.08646e-07
3.44106e-06
1.09149e-07
3.4688e-06
1.05782e-07
3.49317e-06
9.89919e-08
3.51339e-06
8.94117e-08
3.52901e-06
7.77949e-08
3.53984e-06
6.49183e-08
3.54599e-06
5.14995e-08
3.54765e-06
3.81676e-08
3.54522e-06
2.54553e-08
3.53927e-06
1.3764e-08
3.53043e-06
3.32346e-09
3.51913e-06
-5.83462e-09
3.5058e-06
-1.3788e-08
3.49075e-06
-2.06422e-08
3.47421e-06
-2.65385e-08
3.45637e-06
-3.15762e-08
3.43736e-06
-3.5774e-08
3.41735e-06
-3.90556e-08
3.39658e-06
-4.12496e-08
3.37539e-06
-4.21114e-08
3.35425e-06
-4.13699e-08
3.33382e-06
-3.87764e-08
3.31488e-06
-3.41462e-08
3.29826e-06
-2.73905e-08
3.28481e-06
-1.8555e-08
3.27534e-06
-7.87903e-09
3.27072e-06
4.1218e-09
3.27144e-06
1.70585e-08
3.27756e-06
3.01882e-08
3.28879e-06
4.28364e-08
3.30454e-06
5.43531e-08
3.32392e-06
6.4144e-08
3.34582e-06
7.17366e-08
3.36904e-06
7.68271e-08
3.39238e-06
7.92623e-08
3.41482e-06
7.90467e-08
3.43545e-06
7.63428e-08
3.45356e-06
7.14291e-08
3.46865e-06
6.46668e-08
3.4804e-06
5.64671e-08
3.48864e-06
4.72549e-08
3.49333e-06
3.74385e-08
3.49454e-06
2.73956e-08
3.49247e-06
1.74617e-08
3.48749e-06
7.95495e-09
3.47992e-06
-9.14348e-10
3.47006e-06
-9.00822e-09
3.45821e-06
-1.62585e-08
3.44464e-06
-2.26058e-08
3.42963e-06
-2.79924e-08
3.41345e-06
-3.23479e-08
3.39637e-06
-3.55862e-08
3.37873e-06
-3.75977e-08
3.36094e-06
-3.82526e-08
3.34349e-06
-3.74322e-08
3.3269e-06
-3.5061e-08
3.31175e-06
-3.11235e-08
3.29863e-06
-2.5654e-08
3.28808e-06
-1.87511e-08
3.28063e-06
-1.06196e-08
3.27672e-06
-1.59024e-09
3.27667e-06
7.98138e-09
3.28047e-06
1.75766e-08
3.28788e-06
2.67379e-08
3.29849e-06
3.50487e-08
3.3117e-06
4.21224e-08
3.32681e-06
4.76463e-08
3.34303e-06
5.14128e-08
3.35958e-06
5.33205e-08
3.37576e-06
5.33593e-08
3.39093e-06
5.16242e-08
3.40457e-06
4.8296e-08
3.41624e-06
4.3615e-08
3.42565e-06
3.78538e-08
3.43259e-06
3.13044e-08
3.43695e-06
2.42643e-08
3.43869e-06
1.69853e-08
3.43788e-06
9.73025e-09
3.4347e-06
2.77798e-09
3.42939e-06
-3.66083e-09
3.42219e-06
-9.46666e-09
3.41338e-06
-1.45237e-08
3.40324e-06
-1.87573e-08
3.39206e-06
-2.21098e-08
3.38013e-06
-2.45367e-08
3.36775e-06
-2.60039e-08
3.35524e-06
-2.64791e-08
3.34293e-06
-2.59318e-08
3.33117e-06
-2.43483e-08
3.3203e-06
-2.17429e-08
3.31067e-06
-1.81562e-08
3.30264e-06
-1.36665e-08
3.2965e-06
-8.38495e-09
3.29253e-06
-2.4638e-09
3.29095e-06
3.89498e-09
1.04254e-08
2.37676e-06
9.04024e-09
2.37538e-06
-3.04264e-10
2.37236e-06
-6.61552e-09
2.36831e-06
-1.01095e-08
2.36383e-06
-1.12066e-08
2.35945e-06
-1.05197e-08
2.35552e-06
-9.01256e-09
2.35203e-06
-7.69092e-09
2.34857e-06
-7.24465e-09
2.34474e-06
-7.97806e-09
2.3402e-06
-9.84883e-09
2.3347e-06
-1.25674e-08
2.32811e-06
-1.52855e-08
2.32065e-06
-1.73022e-08
2.31263e-06
-1.76428e-08
2.30485e-06
-1.58629e-08
2.29837e-06
-1.14631e-08
2.29378e-06
-4.09281e-09
2.29263e-06
4.84485e-09
2.29525e-06
1.61363e-08
2.30208e-06
2.86077e-08
2.31322e-06
4.14356e-08
2.32851e-06
5.37605e-08
2.34746e-06
6.47734e-08
2.36935e-06
7.37559e-08
2.39329e-06
8.01598e-08
2.41828e-06
8.36521e-08
2.44331e-06
8.4124e-08
2.46738e-06
8.17041e-08
2.48965e-06
7.67264e-08
2.50939e-06
6.96692e-08
2.5261e-06
6.10892e-08
2.53946e-06
5.15596e-08
2.54936e-06
4.15996e-08
2.55587e-06
3.16532e-08
2.55921e-06
2.21154e-08
2.55968e-06
1.32979e-08
2.55766e-06
5.33546e-09
2.55346e-06
-1.63231e-09
2.54753e-06
-7.85684e-09
2.54017e-06
-1.32801e-08
2.5316e-06
-1.79654e-08
2.52197e-06
-2.19555e-08
2.51144e-06
-2.52426e-08
2.50015e-06
-2.77626e-08
2.48828e-06
-2.93808e-08
2.4761e-06
-2.99309e-08
2.46396e-06
-2.9228e-08
2.45231e-06
-2.71316e-08
2.44172e-06
-2.3554e-08
2.43276e-06
-1.84257e-08
2.426e-06
-1.18018e-08
2.42184e-06
-3.71963e-09
2.42115e-06
4.81552e-09
2.42393e-06
1.42789e-08
2.43024e-06
2.3876e-08
2.43995e-06
3.31286e-08
2.45274e-06
4.15651e-08
2.46812e-06
4.87667e-08
2.48546e-06
5.43965e-08
2.50406e-06
5.82272e-08
2.52318e-06
6.01392e-08
2.5421e-06
6.01247e-08
2.56015e-06
5.82891e-08
2.57676e-06
5.48203e-08
2.59146e-06
4.99732e-08
2.60388e-06
4.40418e-08
2.61381e-06
3.73289e-08
2.62112e-06
3.01303e-08
2.62577e-06
2.27398e-08
2.62783e-06
1.54026e-08
2.62747e-06
8.31996e-09
2.62487e-06
1.67818e-09
2.62028e-06
-4.41569e-09
2.61394e-06
-9.92193e-09
2.60609e-06
-1.47492e-08
2.59694e-06
-1.8845e-08
2.58674e-06
-2.21474e-08
2.57575e-06
-2.4592e-08
2.56424e-06
-2.60947e-08
2.55256e-06
-2.65736e-08
2.54109e-06
-2.59546e-08
2.53021e-06
-2.41876e-08
2.52039e-06
-2.12976e-08
2.51203e-06
-1.72993e-08
2.50556e-06
-1.22809e-08
2.50129e-06
-6.34282e-09
2.49961e-06
8.42562e-11
2.50067e-06
6.92473e-09
2.50445e-06
1.37988e-08
2.5108e-06
2.03787e-08
2.5195e-06
2.6354e-08
2.53017e-06
3.14487e-08
2.54238e-06
3.54411e-08
2.55561e-06
3.81831e-08
2.56933e-06
3.95976e-08
2.58302e-06
3.96731e-08
2.59617e-06
3.84695e-08
2.60836e-06
3.61055e-08
2.61922e-06
3.27524e-08
2.62847e-06
2.86114e-08
2.63589e-06
2.38857e-08
2.64136e-06
1.87882e-08
2.64484e-06
1.3511e-08
2.64636e-06
8.20676e-09
2.64598e-06
3.15373e-09
2.64386e-06
-1.53357e-09
2.6402e-06
-5.80583e-09
2.6352e-06
-9.52509e-09
2.62908e-06
-1.26405e-08
2.62208e-06
-1.51066e-08
2.61443e-06
-1.68858e-08
2.60637e-06
-1.79496e-08
2.59817e-06
-1.82756e-08
2.59009e-06
-1.78504e-08
2.58241e-06
-1.66705e-08
2.57542e-06
-1.47486e-08
2.56937e-06
-1.21099e-08
2.56452e-06
-8.81584e-09
2.5611e-06
-4.97088e-09
2.55936e-06
-7.2005e-10
2.55942e-06
3.83677e-09
8.50708e-09
1.27982e-06
5.11713e-09
1.28064e-06
-1.11951e-09
1.27974e-06
-5.7156e-09
1.278e-06
-8.37445e-09
1.27615e-06
-9.35537e-09
1.2748e-06
-9.16989e-09
1.27424e-06
-8.45217e-09
1.27433e-06
-7.78391e-09
1.27468e-06
-7.59445e-09
1.27479e-06
-8.08701e-09
1.27425e-06
-9.30293e-09
1.27261e-06
-1.0936e-08
1.26987e-06
-1.25405e-08
1.26618e-06
-1.36129e-08
1.26206e-06
-1.35186e-08
1.25831e-06
-1.21151e-08
1.25562e-06
-8.77094e-09
1.25512e-06
-3.59625e-09
1.25761e-06
2.35789e-09
1.26385e-06
9.89181e-09
1.27416e-06
1.82941e-08
1.2887e-06
2.69034e-08
1.3073e-06
3.51535e-08
1.32954e-06
4.25317e-08
1.35475e-06
4.85542e-08
1.38205e-06
5.28549e-08
1.41047e-06
5.52312e-08
1.43897e-06
5.5627e-08
1.46655e-06
5.41186e-08
1.49237e-06
5.09121e-08
1.51573e-06
4.63117e-08
1.53612e-06
4.06943e-08
1.55326e-06
3.44232e-08
1.56702e-06
2.78376e-08
1.57745e-06
2.12244e-08
1.58476e-06
1.48015e-08
1.58926e-06
8.79976e-09
1.5912e-06
3.39375e-09
1.59093e-06
-1.35564e-09
1.58877e-06
-5.69846e-09
1.58499e-06
-9.50259e-09
1.57982e-06
-1.27919e-08
1.57344e-06
-1.55816e-08
1.56606e-06
-1.78644e-08
1.5579e-06
-1.95972e-08
1.54919e-06
-2.06765e-08
1.54026e-06
-2.09962e-08
1.53148e-06
-2.04506e-08
1.52334e-06
-1.89915e-08
1.51631e-06
-1.6522e-08
1.51091e-06
-1.30226e-08
1.50759e-06
-8.4863e-09
1.5069e-06
-3.02693e-09
1.50913e-06
2.58071e-09
1.51459e-06
8.82214e-09
1.52327e-06
1.51928e-08
1.53506e-06
2.13384e-08
1.54968e-06
2.69446e-08
1.56671e-06
3.17375e-08
1.58561e-06
3.5497e-08
1.60576e-06
3.80784e-08
1.62649e-06
3.94113e-08
1.64712e-06
3.94895e-08
1.66704e-06
3.83709e-08
1.68569e-06
3.61717e-08
1.70261e-06
3.30581e-08
1.71743e-06
2.92176e-08
1.72992e-06
2.4836e-08
1.73994e-06
2.01153e-08
1.74743e-06
1.5249e-08
1.75243e-06
1.03976e-08
1.75507e-06
5.68619e-09
1.75548e-06
1.26375e-09
1.75387e-06
-2.80335e-09
1.75047e-06
-6.52449e-09
1.74552e-06
-9.79296e-09
1.73924e-06
-1.25715e-08
1.73191e-06
-1.4811e-08
1.72379e-06
-1.64733e-08
1.71519e-06
-1.74939e-08
1.70644e-06
-1.78242e-08
1.69789e-06
-1.74058e-08
1.68994e-06
-1.6237e-08
1.68297e-06
-1.43329e-08
1.67737e-06
-1.1695e-08
1.67348e-06
-8.39591e-09
1.67159e-06
-4.44671e-09
1.67196e-06
-2.83122e-10
1.67475e-06
4.12962e-09
1.67994e-06
8.60756e-09
1.68742e-06
1.29015e-08
1.69697e-06
1.68008e-08
1.70829e-06
2.01289e-08
1.72099e-06
2.2745e-08
1.73462e-06
2.4553e-08
1.74871e-06
2.55035e-08
1.7628e-06
2.55883e-08
1.77642e-06
2.4844e-08
1.78919e-06
2.33419e-08
1.80075e-06
2.11848e-08
1.81086e-06
1.85085e-08
1.8193e-06
1.54461e-08
1.82595e-06
1.21323e-08
1.83077e-06
8.69547e-09
1.83376e-06
5.21861e-09
1.83505e-06
1.86245e-09
1.83465e-06
-1.13647e-09
1.83282e-06
-3.97391e-09
1.82973e-06
-6.441e-09
1.8256e-06
-8.51061e-09
1.82065e-06
-1.01521e-08
1.8151e-06
-1.13388e-08
1.8092e-06
-1.20509e-08
1.8032e-06
-1.22724e-08
1.79734e-06
-1.19937e-08
1.79189e-06
-1.12116e-08
1.78707e-06
-9.92908e-09
1.78314e-06
-8.17929e-09
1.78035e-06
-6.02562e-09
1.77887e-06
-3.49887e-09
1.77885e-06
-6.94887e-10
1.78043e-06
2.25481e-09
5.2923e-09
4.74765e-07
1.11731e-09
4.75745e-07
-2.09898e-09
4.74637e-07
-4.60761e-09
4.72419e-07
-6.15661e-09
4.69921e-07
-6.85722e-09
4.67708e-07
-6.95714e-09
4.65987e-07
-6.73107e-09
4.64703e-07
-6.4998e-09
4.63577e-07
-6.46899e-09
4.62242e-07
-6.75169e-09
4.60305e-07
-7.36615e-09
4.57545e-07
-8.176e-09
4.53987e-07
-8.98195e-09
4.49879e-07
-9.50475e-09
4.4584e-07
-9.47961e-09
4.42438e-07
-8.71345e-09
4.40663e-07
-6.99582e-09
4.41414e-07
-4.34771e-09
4.44876e-07
-1.1039e-09
4.52482e-07
2.28549e-09
4.642e-07
6.57686e-09
4.80225e-07
1.08778e-08
5.00366e-07
1.50123e-08
5.2411e-07
1.87877e-08
5.50733e-07
2.19315e-08
5.7937e-07
2.4218e-08
6.09051e-07
2.55499e-08
6.38773e-07
2.59049e-08
6.67575e-07
2.53167e-08
6.94612e-07
2.3875e-08
7.19196e-07
2.17277e-08
7.40828e-07
1.90627e-08
7.59206e-07
1.60453e-08
7.74198e-07
1.28459e-08
7.8582e-07
9.60197e-09
7.94195e-07
6.42681e-09
7.99557e-07
3.43728e-09
8.02278e-07
6.72692e-10
8.02511e-07
-1.58833e-09
8.00645e-07
-3.83213e-09
7.96949e-07
-5.80722e-09
7.91692e-07
-7.53481e-09
7.8514e-07
-9.02938e-09
7.77548e-07
-1.02722e-08
7.69188e-07
-1.12371e-08
7.60388e-07
-1.18766e-08
7.51535e-07
-1.21438e-08
7.43052e-07
-1.19669e-08
7.35369e-07
-1.13088e-08
7.28972e-07
-1.01251e-08
7.24352e-07
-8.40213e-09
7.22e-07
-6.13507e-09
7.22325e-07
-3.35195e-09
7.25401e-07
-4.94817e-10
7.31816e-07
2.4071e-09
7.41386e-07
5.62269e-09
7.53995e-07
8.72914e-09
7.69366e-07
1.15736e-08
7.87077e-07
1.4027e-08
8.06596e-07
1.59782e-08
8.27316e-07
1.73579e-08
8.48595e-07
1.81324e-08
8.69782e-07
1.8303e-08
8.90274e-07
1.78782e-08
9.09536e-07
1.69094e-08
9.27117e-07
1.54777e-08
9.42659e-07
1.36755e-08
9.55881e-07
1.16135e-08
9.66636e-07
9.36052e-09
9.74888e-07
6.99696e-09
9.80665e-07
4.62074e-09
9.84086e-07
2.26534e-09
9.8519e-07
1.59701e-10
9.84225e-07
-1.83807e-09
9.81406e-07
-3.70573e-09
9.76973e-07
-5.35995e-09
9.71185e-07
-6.78329e-09
9.64329e-07
-7.95534e-09
9.56699e-07
-8.84327e-09
9.48628e-07
-9.42313e-09
9.40467e-07
-9.6625e-09
9.326e-07
-9.53912e-09
9.2539e-07
-9.02716e-09
9.19181e-07
-8.124e-09
9.14352e-07
-6.86592e-09
9.11203e-07
-5.24683e-09
9.10073e-07
-3.31716e-09
9.10938e-07
-1.14743e-09
9.14231e-07
8.36819e-10
9.19767e-07
3.07113e-09
9.27445e-07
5.22371e-09
9.37062e-07
7.18315e-09
9.48323e-07
8.86788e-09
9.60854e-07
1.02148e-08
9.74234e-07
1.11721e-08
9.88025e-07
1.17131e-08
1.00178e-06
1.18307e-08
1.01509e-06
1.15379e-08
1.02756e-06
1.08748e-08
1.03885e-06
9.8864e-09
1.04874e-06
8.62608e-09
1.05702e-06
7.16365e-09
1.06359e-06
5.56103e-09
1.06839e-06
3.89176e-09
1.0714e-06
2.21003e-09
1.07276e-06
5.09443e-10
1.07251e-06
-8.93859e-10
1.07086e-06
-2.32536e-09
1.06801e-06
-3.58213e-09
1.06414e-06
-4.64761e-09
1.05949e-06
-5.50287e-09
1.05429e-06
-6.13835e-09
1.04879e-06
-6.54409e-09
1.04323e-06
-6.71395e-09
1.03787e-06
-6.63466e-09
1.03296e-06
-6.29944e-09
1.02874e-06
-5.71093e-09
1.02544e-06
-4.87906e-09
1.02323e-06
-3.82192e-09
1.02232e-06
-2.58242e-09
1.02277e-06
-1.1486e-09
1.02481e-06
2.14285e-10
1.69824e-09
8.12375e-08
7.91385e-08
7.45309e-08
6.83743e-08
6.15171e-08
5.45599e-08
4.78288e-08
4.13291e-08
3.48601e-08
2.81084e-08
2.07422e-08
1.25662e-08
3.58426e-09
-5.92048e-09
-1.54001e-08
-2.41136e-08
-3.11094e-08
-3.54571e-08
-3.6561e-08
-3.42755e-08
-2.76986e-08
-1.68209e-08
-1.80857e-09
1.69791e-08
3.89106e-08
6.31286e-08
8.86785e-08
1.14583e-07
1.399e-07
1.63775e-07
1.85503e-07
2.04565e-07
2.20611e-07
2.33457e-07
2.43059e-07
2.49485e-07
2.52923e-07
2.53595e-07
2.52007e-07
2.48175e-07
2.42368e-07
2.34833e-07
2.25804e-07
2.15531e-07
2.04294e-07
1.92418e-07
1.80274e-07
1.68307e-07
1.56998e-07
1.46873e-07
1.38471e-07
1.32336e-07
1.28984e-07
1.28489e-07
1.30896e-07
1.36519e-07
1.45248e-07
1.56822e-07
1.70849e-07
1.86827e-07
2.04185e-07
2.22317e-07
2.4062e-07
2.58498e-07
2.75408e-07
2.90885e-07
3.04561e-07
3.16174e-07
3.25535e-07