/*--------------------------------*- C++ -*----------------------------------*\
| =========                 |                                                 |
| \\      /  F ield         | OpenFOAM: The Open Source CFD Toolbox           |
|  \\    /   O peration     | Version:  2206                                  |
|   \\  /    A nd           | Website:  www.openfoam.com                      |
|    \\/     M anipulation  |                                                 |
\*---------------------------------------------------------------------------*/
FoamFile
{
    version     2.0;
    format      ascii;
    arch        "LSB;label=32;scalar=64";
    class       volScalarField;
    location    "19.5";
    object      p;
}
// * * * * * * * * * * * * * * * * * * * * * * * * * * * * * * * * * * * * * //

dimensions      [0 2 -2 0 0 0 0];

internalField   nonuniform List<scalar> 
4797
(
-0.0169654
-0.0166928
-0.0164663
-0.0162915
-0.0161795
-0.01618
-0.0163353
-0.016686
-0.0172766
-0.0181428
-0.0193079
-0.0207769
-0.0226858
-0.0253429
-0.028177
-0.0309159
-0.0338792
-0.0370116
-0.0401633
-0.0432262
-0.0460876
-0.048631
-0.0507487
-0.0523464
-0.0533477
-0.0537098
-0.0534246
-0.0524998
-0.0509693
-0.0488855
-0.0463171
-0.0433449
-0.040059
-0.0365534
-0.03292
-0.0292477
-0.0256194
-0.0220193
-0.0183382
-0.0149701
-0.0121453
-0.00968201
-0.00752059
-0.00568928
-0.00417997
-0.00296768
-0.00202328
-0.0013126
-0.000800631
-0.00045423
-0.000238561
-0.000123359
-0.000101433
-0.000161155
-0.000304609
-0.00053737
-0.000865201
-0.00130643
-0.00188761
-0.00262884
-0.00354897
-0.00466552
-0.00598242
-0.00751589
-0.00946036
-0.0118178
-0.0141578
-0.0164523
-0.0188862
-0.0213744
-0.0238303
-0.0261884
-0.028374
-0.0303133
-0.0319392
-0.0331928
-0.0340268
-0.0344208
-0.0343607
-0.0338549
-0.0329239
-0.0315992
-0.0299236
-0.0279474
-0.0257281
-0.0233289
-0.0208125
-0.0182408
-0.0156742
-0.0130896
-0.0103628
-0.00784999
-0.00574231
-0.00386594
-0.00218531
-0.000733398
0.000490333
0.0014982
0.00230456
0.00292811
0.00339016
0.0037121
0.00391367
0.00401076
0.00401461
0.00393691
0.00378059
0.00354347
0.00322105
0.00280668
0.00229179
0.00166631
0.000920876
5.24519e-05
-0.000934545
-0.00206835
-0.00352583
-0.00516843
-0.00670784
-0.00820578
-0.00975516
-0.0112854
-0.0127363
-0.0140589
-0.0151978
-0.0160993
-0.0167131
-0.016995
-0.0169033
-0.0164283
-0.0155143
-0.0142363
-0.0124642
-0.0103616
-0.0078527
-0.00476117
-0.00206425
-0.0114635
-0.0112625
-0.0111367
-0.0110991
-0.011174
-0.0113964
-0.0118059
-0.0124415
-0.0133414
-0.0145403
-0.0160571
-0.0179098
-0.0202603
-0.023292
-0.026477
-0.0296082
-0.0329526
-0.0364391
-0.0399231
-0.0432912
-0.0464244
-0.0492012
-0.0515091
-0.0532488
-0.0543408
-0.0547547
-0.0544632
-0.0534863
-0.0518625
-0.0496466
-0.0469121
-0.0437454
-0.0402401
-0.0364925
-0.0325973
-0.0286457
-0.0247042
-0.0207445
-0.0167633
-0.0131749
-0.0100945
-0.00733758
-0.0049032
-0.00281766
-0.00107204
0.000353822
0.00148593
0.002356
0.00299764
0.00344331
0.00372359
0.00386289
0.00386725
0.0037558
0.0035321
0.00318978
0.00271941
0.00210638
0.001329
0.000368149
-0.000792202
-0.00216625
-0.00375754
-0.00560125
-0.00788293
-0.0105042
-0.0131005
-0.0156883
-0.0184008
-0.0211501
-0.0238502
-0.0264304
-0.0288128
-0.0309206
-0.0326839
-0.0340411
-0.0349426
-0.0353747
-0.0353148
-0.0347762
-0.0337824
-0.0323657
-0.0305715
-0.0284538
-0.0260724
-0.023491
-0.0207744
-0.0179866
-0.0151757
-0.0123021
-0.00933736
-0.00664078
-0.00431675
-0.00220154
-0.000299055
0.00136007
0.00277597
0.00395698
0.00491521
0.00566757
0.00623346
0.00663256
0.00688322
0.00700014
0.00699452
0.00687922
0.00665993
0.00633544
0.00590226
0.00535559
0.00468897
0.0038952
0.00296713
0.00190259
0.000705548
-0.000671264
-0.00237756
-0.00420761
-0.00593298
-0.00764604
-0.00939588
-0.0111109
-0.0127322
-0.0142071
-0.0154783
-0.01649
-0.0171901
-0.0175332
-0.0174743
-0.0170179
-0.0160875
-0.0147724
-0.0129433
-0.0107427
-0.00816754
-0.00493458
-0.00216207
-0.00634773
-0.00619974
-0.00615723
-0.00623325
-0.00645456
-0.00685275
-0.00746412
-0.00832601
-0.00947366
-0.0109401
-0.0127431
-0.0149155
-0.0176255
-0.0209427
-0.0243926
-0.0278352
-0.0314857
-0.0352565
-0.0390072
-0.0426209
-0.0459731
-0.0489386
-0.0514017
-0.0532595
-0.0544284
-0.0548875
-0.0546004
-0.0535915
-0.0519033
-0.0495942
-0.0467399
-0.0434305
-0.0397627
-0.0358339
-0.03174
-0.0275697
-0.0233732
-0.0191319
-0.0149701
-0.011233
-0.00793852
-0.00495925
-0.0023193
-3.97904e-05
0.00188639
0.00347559
0.00475148
0.0057437
0.00648405
0.00700356
0.00733119
0.00748919
0.00748238
0.00733232
0.00704529
0.00661512
0.00603203
0.00528284
0.00435017
0.00321542
0.00186388
0.00028392
-0.00153093
-0.00363179
-0.00617447
-0.00899081
-0.011782
-0.0146012
-0.0175341
-0.0204896
-0.0233831
-0.0261399
-0.0286794
-0.0309225
-0.0327977
-0.0342412
-0.0352008
-0.0356669
-0.0356146
-0.0350583
-0.0340228
-0.0325428
-0.0306643
-0.0284438
-0.0259435
-0.0232268
-0.0203594
-0.017404
-0.0143945
-0.0112941
-0.00818195
-0.00536305
-0.0028636
-0.000567018
0.0015028
0.00332001
0.00488306
0.00619701
0.00727213
0.00812375
0.00876975
0.00922854
0.00951744
0.00965014
0.00963825
0.00949463
0.00922641
0.00883434
0.00831539
0.00766576
0.00688084
0.0059551
0.00488309
0.00366335
0.0022954
0.000719739
-0.00117202
-0.00313677
-0.00500337
-0.00688426
-0.00879104
-0.010651
-0.0124069
-0.0140035
-0.0153818
-0.0164852
-0.0172604
-0.0176612
-0.0176416
-0.0172105
-0.0162882
-0.0149639
-0.0131198
-0.0108729
-0.00827956
-0.00497983
-0.00221712
-0.00166931
-0.0015607
-0.00158177
-0.00174353
-0.0020736
-0.00260216
-0.00336334
-0.00439332
-0.00572649
-0.0073934
-0.0094144
-0.0118353
-0.0148135
-0.0183233
-0.0219519
-0.0256232
-0.0294993
-0.0334782
-0.0374243
-0.0412182
-0.0447322
-0.0478385
-0.050419
-0.0523692
-0.0536023
-0.0541021
-0.0538315
-0.0528151
-0.0510966
-0.0487365
-0.0458136
-0.0424194
-0.0386515
-0.0346077
-0.030382
-0.0260576
-0.0216748
-0.0172495
-0.0130019
-0.0091783
-0.00573198
-0.00260031
0.000180238
0.00259391
0.00464556
0.00634871
0.00772528
0.00880321
0.00961287
0.0101842
0.0105448
0.010716
0.0107014
0.0105232
0.0101899
0.00969553
0.00903071
0.00818305
0.00713724
0.00587606
0.00438438
0.00265204
0.000668429
-0.00162877
-0.00435386
-0.00729453
-0.0102189
-0.0132059
-0.0162972
-0.0194006
-0.0224334
-0.0253184
-0.0279727
-0.0303163
-0.0322756
-0.0337862
-0.0347939
-0.0352916
-0.0352549
-0.0346976
-0.0336447
-0.0321319
-0.0302071
-0.0279271
-0.0253544
-0.022553
-0.0195871
-0.016515
-0.01336
-0.0101077
-0.00692514
-0.00403917
-0.00141671
0.00100404
0.0031875
0.00511302
0.0067774
0.00818336
0.0093399
0.010261
0.0109634
0.0114646
0.0117811
0.0119259
0.0119108
0.0117486
0.0114469
0.0110077
0.0104291
0.00970739
0.0088388
0.00781915
0.0066439
0.00531163
0.00381578
0.00209258
8.06059e-05
-0.00196585
-0.00392952
-0.00592957
-0.00794699
-0.00990995
-0.0117625
-0.013448
-0.0149068
-0.016082
-0.0169196
-0.017373
-0.0173961
-0.0170003
-0.01611
-0.0148047
-0.012987
-0.0107454
-0.00818836
-0.00489427
-0.00222561
0.00253152
0.00261288
0.00254761
0.002328
0.00192626
0.00131186
0.000451922
-0.000688661
-0.00214436
-0.00394493
-0.0061138
-0.00870762
-0.011859
-0.0154699
-0.0191941
-0.0230104
-0.0270293
-0.0311379
-0.0352058
-0.0391126
-0.042729
-0.0459264
-0.0485857
-0.0506014
-0.051887
-0.0524285
-0.0521886
-0.0511906
-0.0494783
-0.0471133
-0.0441751
-0.0407549
-0.0369488
-0.0328544
-0.0285655
-0.0241569
-0.0196639
-0.0151597
-0.0109125
-0.00705714
-0.0035218
-0.000305485
0.00255408
0.00504457
0.00716849
0.00893775
0.0103732
0.0115015
0.0123521
0.0129541
0.0133344
0.0135138
0.0134959
0.0133005
0.0129386
0.0124047
0.0116893
0.0107805
0.00966386
0.00832322
0.00674295
0.00491252
0.00281637
0.000387935
-0.0024417
-0.00543732
-0.00843352
-0.0115245
-0.0147118
-0.0179042
-0.0210217
-0.0239851
-0.0267109
-0.029119
-0.0311352
-0.0326937
-0.0337408
-0.0342713
-0.0342598
-0.0337193
-0.0326744
-0.0311611
-0.0292281
-0.0269316
-0.024333
-0.0214965
-0.0184852
-0.0153501
-0.0121063
-0.00878605
-0.00560845
-0.00270408
-1.17297e-05
0.00247586
0.00472144
0.00670778
0.00842968
0.00988854
0.0110925
0.0120547
0.0127912
0.0133188
0.0136535
0.0138076
0.0137935
0.0136229
0.013304
0.0128387
0.0122265
0.011464
0.0105471
0.00947179
0.00823436
0.00683233
0.00525256
0.00343524
0.00137165
-0.000704996
-0.00272699
-0.00479707
-0.00687792
-0.00890121
-0.010812
-0.0125529
-0.0140647
-0.015291
-0.0161784
-0.0166799
-0.0167494
-0.0164006
-0.0155669
-0.0143071
-0.0125585
-0.0103688
-0.00790555
-0.00468511
-0.00218503
0.00623579
0.00630255
0.00621204
0.00596065
0.00552135
0.00486337
0.00395322
0.00275641
0.00123839
-0.00063117
-0.00287969
-0.00556928
-0.00879991
-0.0124248
-0.0161675
-0.0200474
-0.024127
-0.0282873
-0.0324041
-0.036358
-0.0400199
-0.0432611
-0.0459628
-0.0480187
-0.0493446
-0.0499289
-0.0497351
-0.0487834
-0.0471158
-0.0447936
-0.0418949
-0.0385093
-0.0347317
-0.0306566
-0.0263722
-0.0219447
-0.0174211
-0.0129397
-0.0087569
-0.00491566
-0.00135809
0.00187891
0.00476088
0.00727593
0.00942426
0.0112167
0.0126735
0.0138207
0.0146872
0.0153016
0.0156903
0.015874
0.0158579
0.0156562
0.0152826
0.0147329
0.0139973
0.0130633
0.0119166
0.0105415
0.00892207
0.00704599
0.00489324
0.00239989
-0.000458902
-0.00344505
-0.00645504
-0.00958684
-0.0128086
-0.0160321
-0.0191807
-0.0221749
-0.0249313
-0.0273694
-0.0294156
-0.0310044
-0.0320831
-0.0326467
-0.0326707
-0.0321659
-0.0311562
-0.0296769
-0.0277755
-0.0255076
-0.022933
-0.0201135
-0.0171085
-0.0139621
-0.010693
-0.00738834
-0.00426959
-0.0013845
0.00132334
0.00382324
0.00608112
0.00808185
0.00981925
0.0112942
0.0125141
0.0134915
0.014242
0.0147822
0.0151274
0.0152896
0.0152813
0.015113
0.014793
0.0143231
0.0137027
0.0129293
0.0119983
0.0109049
0.00964527
0.00821536
0.00659619
0.00473954
0.00268747
0.000629868
-0.00140999
-0.00350258
-0.00560136
-0.00764383
-0.00957624
-0.0113413
-0.0128801
-0.0141373
-0.0150605
-0.0156048
-0.0157258
-0.015434
-0.0146789
-0.013492
-0.0118555
-0.00976356
-0.00743874
-0.00435909
-0.0021
0.0094384
0.00950988
0.00941076
0.00915074
0.00870452
0.00804073
0.00712512
0.00592224
0.00439714
0.00251882
0.000255297
-0.00245598
-0.00567729
-0.00923408
-0.012925
-0.0167937
-0.0208582
-0.0250009
-0.029101
-0.0330391
-0.0366887
-0.0399259
-0.0426345
-0.0447103
-0.0460759
-0.0467067
-0.0465763
-0.0456998
-0.0441162
-0.0418837
-0.0390779
-0.0357843
-0.0320938
-0.0280972
-0.0238784
-0.0194983
-0.0150272
-0.0106663
-0.00659964
-0.00280901
0.000713911
0.00391765
0.00677127
0.00926279
0.0113917
0.013169
0.0146144
0.0157538
0.0166154
0.0172277
0.0176165
0.0178025
0.0177943
0.017598
0.0172295
0.0166862
0.0159582
0.0150324
0.0138938
0.0125261
0.0109134
0.00904125
0.00688456
0.00439085
0.00157982
-0.00133912
-0.00431607
-0.00743166
-0.0106323
-0.013835
-0.0169651
-0.0199437
-0.0226896
-0.0251247
-0.0271755
-0.028777
-0.0298917
-0.0304901
-0.0305605
-0.0301115
-0.0291642
-0.0277526
-0.0259218
-0.0237246
-0.0212182
-0.0184616
-0.0155104
-0.0124007
-0.0091686
-0.00596542
-0.00295355
-0.000119202
0.00255154
0.00501512
0.00724263
0.00921899
0.0109365
0.0123954
0.0136036
0.0145739
0.0153215
0.0158628
0.0162132
0.0163851
0.0163877
0.0162322
0.0159266
0.0154725
0.0148689
0.0141128
0.0131995
0.0121234
0.0108794
0.00946168
0.00784743
0.0060046
0.00401524
0.00201853
1.23791e-06
-0.00207155
-0.0041477
-0.00617106
-0.00808915
-0.00984641
-0.0113868
-0.0126564
-0.0136037
-0.014185
-0.0143679
-0.0141439
-0.0134871
-0.0123984
-0.010915
-0.00896199
-0.00681345
-0.00393586
-0.00198046
0.0121612
0.0122501
0.0121583
0.0119117
0.0114865
0.0108497
0.00996724
0.00880227
0.00731945
0.00548661
0.00326747
0.000603811
-0.00252986
-0.00595181
-0.00953279
-0.0133256
-0.0173053
-0.0213611
-0.0253823
-0.0292517
-0.0328458
-0.0360433
-0.0387293
-0.0408016
-0.0422121
-0.0428954
-0.0428436
-0.0420688
-0.0406047
-0.0385053
-0.0358412
-0.0326924
-0.029145
-0.0252855
-0.02119
-0.0169179
-0.0125805
-0.00840679
-0.00448693
-0.000788854
0.00264665
0.00576942
0.00855261
0.0109829
0.0130589
0.0147909
0.0161991
0.01731
0.0181519
0.0187521
0.0191356
0.019323
0.0193273
0.0191476
0.0188003
0.0182843
0.0175889
0.0167012
0.0156047
0.0142821
0.0127172
0.0108931
0.00878051
0.00634425
0.00364607
0.000842463
-0.00205957
-0.00510376
-0.00822983
-0.0113628
-0.0144306
-0.0173558
-0.0200595
-0.0224653
-0.024501
-0.0261001
-0.0272477
-0.0278864
-0.0280153
-0.0276415
-0.0267829
-0.0254707
-0.0237467
-0.02166
-0.0192645
-0.0166157
-0.0137623
-0.0107366
-0.00761221
-0.00457314
-0.00169397
0.00105634
0.00364668
0.00603463
0.00819488
0.0101116
0.0117771
0.0131924
0.0143658
0.0153104
0.0160418
0.0165752
0.0169254
0.0171103
0.0171328
0.0170012
0.0167248
0.0163052
0.0157406
0.0150274
0.0141599
0.0131322
0.0119378
0.0105678
0.00899939
0.0072243
0.00534489
0.00344314
0.00148638
-0.000525928
-0.00254262
-0.00451364
-0.00638843
-0.00811321
-0.00963416
-0.0108999
-0.0118609
-0.0124754
-0.0127236
-0.0125785
-0.0120359
-0.0110715
-0.00976786
-0.00799191
-0.00606107
-0.00343498
-0.00182993
0.0144395
0.0145476
0.014481
0.0142663
0.0138856
0.0133044
0.0124879
0.0113984
0.00999938
0.00825646
0.00613242
0.00357748
0.000598261
-0.00263413
-0.00605375
-0.00971267
-0.0135544
-0.0174742
-0.0213679
-0.0251231
-0.0286218
-0.0317481
-0.034391
-0.036449
-0.0378974
-0.0386446
-0.0386899
-0.0380428
-0.036731
-0.0348027
-0.0323219
-0.0293629
-0.0260058
-0.0223309
-0.0184047
-0.0142984
-0.0101797
-0.00623342
-0.00247565
0.00108802
0.00439673
0.00740549
0.0100871
0.0124265
0.014422
0.0160848
0.017437
0.0185053
0.0193174
0.0199001
0.0202775
0.0204706
0.0204929
0.0203412
0.0200294
0.0195574
0.0189152
0.0180892
0.0170625
0.0158169
0.0143346
0.0125968
0.0105753
0.00825378
0.00571853
0.00306718
0.000278866
-0.00265172
-0.00566244
-0.00868644
-0.0116548
-0.0144933
-0.0171263
-0.0194806
-0.0214864
-0.0230798
-0.0242495
-0.0249368
-0.0251388
-0.0248599
-0.0241145
-0.0229303
-0.0213451
-0.0194035
-0.0171554
-0.0146514
-0.0119314
-0.00903751
-0.00609779
-0.00325856
-0.000523929
0.0021038
0.004576
0.00685592
0.00891925
0.0107497
0.0123401
0.0136921
0.0148144
0.0157215
0.0164287
0.0169502
0.017304
0.0175088
0.0175557
0.0174582
0.0172242
0.0168547
0.0163478
0.0156989
0.0149018
0.013949
0.0128335
0.0115438
0.0100608
0.0083997
0.00666383
0.00488199
0.00301878
0.00110073
-0.00082572
-0.00271566
-0.00452092
-0.00619072
-0.00767429
-0.00892261
-0.00988748
-0.0105417
-0.0108522
-0.0107967
-0.0103816
-0.00956702
-0.00845827
-0.00689402
-0.0052196
-0.00288032
-0.00165508
0.0163153
0.0164445
0.0164276
0.0162587
0.0159379
0.0154321
0.0147048
0.0137186
0.0124359
0.0108203
0.00883357
0.00644018
0.00367494
0.000666135
-0.00256511
-0.00604432
-0.00970189
-0.013444
-0.0171728
-0.0207813
-0.024158
-0.0271919
-0.0297765
-0.0318274
-0.0332997
-0.0341212
-0.0342822
-0.0337859
-0.0326537
-0.0309275
-0.0286643
-0.0259311
-0.0228019
-0.0193479
-0.0156287
-0.0117468
-0.00790466
-0.00419855
-0.000621199
0.00277437
0.00592705
0.00879564
0.0113518
0.0135793
0.0154756
0.0170527
0.0183395
0.0193628
0.0201462
0.0207131
0.0210864
0.0212904
0.0213403
0.0212273
0.0209636
0.0205509
0.0199795
0.0192353
0.0183009
0.0171574
0.0157863
0.0141664
0.0122732
0.0101131
0.00777611
0.00529998
0.00265799
-0.000123025
-0.00298615
-0.00587149
-0.00871347
-0.0114416
-0.0139842
-0.0162709
-0.0182334
-0.0198303
-0.021016
-0.0217579
-0.0220456
-0.021879
-0.0212684
-0.0202367
-0.018817
-0.0170495
-0.0149792
-0.0126491
-0.0100939
-0.00738578
-0.00468539
-0.00205633
0.000516929
0.00299085
0.0053183
0.00746654
0.00941111
0.0111359
0.0126339
0.0139075
0.0149657
0.0158288
0.0165136
0.0170314
0.0173962
0.017619
0.0176995
0.017647
0.0174679
0.0171632
0.0167305
0.0161645
0.0154582
0.0146033
0.013591
0.0124075
0.0110439
0.00954454
0.00797378
0.00632135
0.00457926
0.00278195
0.000968807
-0.000818914
-0.00253594
-0.00413496
-0.00556858
-0.00679044
-0.00775287
-0.00844732
-0.00882227
-0.00886446
-0.00858761
-0.00794078
-0.00704129
-0.00571241
-0.00431969
-0.00229357
-0.00146347
0.0178419
0.0179994
0.0180446
0.0179415
0.0176933
0.0172782
0.0166586
0.0157959
0.0146518
0.0131898
0.0113728
0.00917982
0.00666497
0.00389998
0.000877358
-0.00239214
-0.0058383
-0.00937792
-0.0129193
-0.0163618
-0.0196006
-0.02253
-0.0250468
-0.0270981
-0.0285964
-0.0295012
-0.0297921
-0.0294651
-0.0285344
-0.0270334
-0.025012
-0.0225305
-0.0196546
-0.0164419
-0.0129605
-0.00936873
-0.00582472
-0.00234989
0.00102502
0.00422935
0.00720783
0.00991985
0.012336
0.0144388
0.0162249
0.017713
0.0189283
0.0199054
0.0206681
0.0212343
0.02162
0.0218435
0.0219286
0.0218624
0.0216567
0.0213142
0.0208265
0.0201791
0.0193543
0.0183326
0.0170942
0.0156162
0.0138842
0.0119284
0.00980435
0.00750837
0.00503737
0.00243004
-0.000264639
-0.00299178
-0.00568969
-0.0082925
-0.0107329
-0.012943
-0.0148582
-0.016455
-0.0176638
-0.0184677
-0.0188526
-0.0188135
-0.0183559
-0.0174965
-0.0162632
-0.0146919
-0.0128213
-0.0106829
-0.00832287
-0.00586771
-0.00342509
-0.000996648
0.00139239
0.00368963
0.00585425
0.00785452
0.00966613
0.011273
0.0126675
0.0138577
0.0148562
0.0156762
0.016339
0.0168587
0.0172409
0.0174907
0.017614
0.0176165
0.017503
0.0172746
0.0169286
0.0164595
0.0158597
0.01512
0.0142294
0.013176
0.011968
0.0106566
0.0092538
0.00774302
0.00614292
0.00448418
0.00280039
0.00112969
-0.000486194
-0.00200376
-0.00337892
-0.00456792
-0.00553307
-0.00625787
-0.00670224
-0.00684855
-0.0067178
-0.00625091
-0.00557142
-0.00449214
-0.00339496
-0.00169826
-0.00126373
0.0190826
0.0192783
0.0193797
0.0193624
0.0192063
0.0188893
0.0183876
0.0176615
0.0166714
0.0153795
0.0137532
0.0117886
0.00953548
0.00701066
0.00420672
0.00116238
-0.00205981
-0.00538566
-0.00872976
-0.0119985
-0.0150939
-0.0179157
-0.0203786
-0.0224188
-0.0239542
-0.0249515
-0.0253841
-0.0252408
-0.0245269
-0.0232664
-0.0215016
-0.0192863
-0.0166728
-0.0137101
-0.0105076
-0.0072447
-0.00398296
-0.000738666
0.00241763
0.00541939
0.00821527
0.0107647
0.0130382
0.0150168
0.0166937
0.0180909
0.0192446
0.0201777
0.0209182
0.0214913
0.021911
0.0221826
0.0223122
0.0223022
0.0221638
0.0219009
0.0215068
0.020967
0.0202635
0.0193759
0.0182819
0.0169634
0.0154235
0.0136901
0.0117708
0.00965836
0.00737436
0.00495349
0.00243823
-0.000120726
-0.00266627
-0.00513736
-0.00747036
-0.00960015
-0.0114837
-0.0130677
-0.0143085
-0.0151827
-0.0156746
-0.0157761
-0.0154856
-0.0148128
-0.0137807
-0.0124203
-0.010759
-0.00882466
-0.0067096
-0.00453952
-0.0023386
-0.000118152
0.0020695
0.00417798
0.00617003
0.00801463
0.00968819
0.0111748
0.0124679
0.0135736
0.0145122
0.0152996
0.015948
0.0164707
0.0168761
0.0171682
0.0173472
0.017416
0.0173785
0.0172363
0.0169874
0.0166262
0.0161444
0.0155308
0.0147744
0.0138755
0.012858
0.0117332
0.0104878
0.00913197
0.00768657
0.00617611
0.00463063
0.00308482
0.00157657
0.000145597
-0.00116708
-0.00232143
-0.00329325
-0.00404685
-0.00456403
-0.00481809
-0.00483673
-0.00455613
-0.00410169
-0.00327683
-0.00247707
-0.00111469
-0.00106418
0.0201034
0.0203457
0.0205052
0.0205726
0.0205155
0.020313
0.0199397
0.0193546
0.0185204
0.0174034
0.015982
0.0142633
0.012254
0.00994903
0.00736902
0.00455295
0.00155442
-0.00155898
-0.00470865
-0.00780801
-0.0107651
-0.0134899
-0.0159107
-0.0179401
-0.0195223
-0.0206203
-0.0212041
-0.0212562
-0.0207689
-0.0197551
-0.0182514
-0.0163018
-0.0139417
-0.0112399
-0.00836956
-0.0054265
-0.00241885
0.000587628
0.00351895
0.00631579
0.00892824
0.0113177
0.0134543
0.0153096
0.0168915
0.0182255
0.0193326
0.0202345
0.0209612
0.0215433
0.0220005
0.0223349
0.0225346
0.0225967
0.0225333
0.0223569
0.0220645
0.0216396
0.0210633
0.0203153
0.0193764
0.0182425
0.0169132
0.0153821
0.0136495
0.0117275
0.00963605
0.00740409
0.00506976
0.0026793
0.000285279
-0.00205559
-0.0042839
-0.00634491
-0.00819405
-0.00977587
-0.0110562
-0.0120068
-0.0126125
-0.0128652
-0.012755
-0.0122787
-0.0114562
-0.0103111
-0.00885837
-0.00715427
-0.00533069
-0.00343231
-0.00145793
0.000544017
0.0025233
0.00443928
0.00625618
0.00794501
0.00948382
0.0108524
0.0120488
0.0130852
0.0139771
0.0147357
0.0153758
0.0159121
0.0163541
0.0167019
0.0169494
0.0170955
0.017143
0.0170942
0.0169477
0.0166979
0.0163389
0.0158617
0.0152654
0.0145523
0.0137175
0.0127553
0.0116719
0.0104789
0.00919174
0.00783207
0.00642674
0.00500668
0.00360592
0.00226096
0.00101122
-0.000116715
-0.00108879
-0.00187746
-0.00246841
-0.00283086
-0.00299641
-0.00290315
-0.0026769
-0.00210636
-0.00159818
-0.000563228
-0.000875422
0.0209338
0.0212671
0.0214921
0.0216375
0.0216813
0.0215996
0.0213526
0.0209072
0.0202325
0.0192993
0.0180857
0.0165795
0.0147756
0.0126815
0.0103173
0.00771658
0.00492762
0.00201234
-0.000957065
-0.00390156
-0.00673789
-0.00938494
-0.011763
-0.0137977
-0.0154361
-0.016639
-0.0173764
-0.0176298
-0.0173779
-0.016612
-0.0153601
-0.013651
-0.0115285
-0.00913966
-0.00660267
-0.00392968
-0.00117257
0.00159232
0.00430076
0.00689701
0.00933383
0.0115738
0.013576
0.0153277
0.0168408
0.0181345
0.0192196
0.0201152
0.0208484
0.021452
0.0219561
0.0223664
0.0226564
0.022805
0.0228221
0.0227395
0.0225555
0.0222508
0.0218078
0.0212091
0.0204382
0.0194824
0.01833
0.0169774
0.0154287
0.0136931
0.0117871
0.00973631
0.00757454
0.00534352
0.00309152
0.000871527
-0.00126227
-0.00326403
-0.00508227
-0.00667363
-0.00800357
-0.0090404
-0.00975964
-0.0101631
-0.010248
-0.0099756
-0.00935642
-0.00841198
-0.0071687
-0.0057482
-0.00421606
-0.00255908
-0.000816293
0.000961196
0.00273141
0.00445636
0.00610289
0.00764416
0.00905506
0.0103174
0.0114335
0.0124202
0.0132825
0.0140301
0.0146773
0.0152402
0.0157306
0.0161451
0.0164727
0.016706
0.0168438
0.0168881
0.0168451
0.0167184
0.0165012
0.0161824
0.015752
0.0152009
0.0145245
0.0137236
0.0128024
0.0117688
0.0106363
0.0094237
0.00815439
0.00685569
0.00555837
0.00429548
0.0030994
0.00199854
0.00102131
0.000191273
-0.000477035
-0.000952992
-0.00125631
-0.00133481
-0.0013325
-0.00101097
-0.000777363
-6.06563e-05
-0.000716772
0.0215943
0.0220848
0.0224035
0.0226337
0.0227768
0.0228013
0.0226755
0.0223672
0.0218431
0.0210725
0.0200317
0.0187059
0.0170899
0.0151887
0.0130194
0.0106121
0.00801036
0.00526973
0.00245633
-0.000356167
-0.00309176
-0.00567732
-0.00803113
-0.0100869
-0.011794
-0.0131107
-0.014001
-0.0144422
-0.0144359
-0.0139176
-0.012874
-0.0113749
-0.00953554
-0.0074816
-0.00522663
-0.00280649
-0.000296644
0.00223597
0.00473214
0.00713972
0.00941581
0.0115153
0.0134061
0.0150837
0.0165648
0.0178495
0.0189444
0.0198647
0.0206322
0.0212783
0.0218392
0.0223311
0.0227273
0.0229804
0.0230893
0.0231062
0.0230325
0.0228479
0.022535
0.0220756
0.0214522
0.0206507
0.0196608
0.0184777
0.0171018
0.0155402
0.0138072
0.0119245
0.00992082
0.00783285
0.00570576
0.00359212
0.00153717
-0.000415052
-0.00221679
-0.0038291
-0.0052229
-0.00635793
-0.00717011
-0.00771109
-0.0080406
-0.00799347
-0.00753471
-0.0067839
-0.00580473
-0.00467522
-0.00338588
-0.00195945
-0.000444447
0.00111713
0.00268711
0.00423009
0.00571635
0.00712124
0.00841405
0.00958717
0.0106521
0.0116108
0.0124652
0.0132228
0.0138965
0.0145027
0.0150523
0.0155428
0.0159593
0.0162863
0.0165152
0.016656
0.0167359
0.0167474
0.0166712
0.0164951
0.0162115
0.0158131
0.0152938
0.0146503
0.013884
0.0130014
0.0120142
0.0109383
0.00979415
0.00860569
0.007401
0.00621166
0.00506217
0.00398058
0.00299213
0.00211827
0.00136931
0.000777248
0.000376684
0.0001549
-9.06061e-05
-5.44383e-05
-1.68013e-05
0.000365723
-0.000661536
0.0221426
0.0228123
0.0232815
0.0236028
0.0238436
0.0239739
0.0239589
0.0237683
0.0233705
0.0227356
0.0218392
0.0206647
0.0192046
0.0174621
0.0154522
0.0132022
0.0107497
0.00814507
0.00546148
0.00275532
8.77613e-05
-0.00245603
-0.00480164
-0.00689583
-0.00868742
-0.0101269
-0.0111445
-0.0116879
-0.0120204
-0.0118135
-0.0108253
-0.00953876
-0.00801035
-0.00622947
-0.00421745
-0.00204341
0.000227944
0.00253789
0.00483183
0.00706401
0.00919323
0.0111697
0.0129747
0.0146216
0.0161012
0.0174082
0.0185463
0.0195256
0.0203623
0.0210799
0.0217116
0.0222888
0.0228002
0.0231755
0.0233873
0.0235038
0.0235373
0.0234658
0.0232714
0.0229369
0.0224451
0.021781
0.0209336
0.0198963
0.0186689
0.017257
0.0156727
0.0139336
0.0120622
0.010092
0.00807287
0.00604768
0.00405601
0.0021393
0.000337838
-0.00130787
-0.00276591
-0.00400911
-0.00494965
-0.00552199
-0.00618158
-0.00641107
-0.00593239
-0.00540657
-0.00473499
-0.00385497
-0.00279677
-0.00160532
-0.000316706
0.00103267
0.00240813
0.00377924
0.00511892
0.00639492
0.00759057
0.00870777
0.00974509
0.0106986
0.0115683
0.0123595
0.013082
0.0137488
0.0143699
0.0149455
0.0154568
0.0158812
0.0162032
0.0164589
0.0166677
0.0168041
0.016856
0.0168146
0.0166704
0.016414
0.0160367
0.0155336
0.0149054
0.0141585
0.0133026
0.0123504
0.0113178
0.0102266
0.00910812
0.00798093
0.00686759
0.0057963
0.00479111
0.0038702
0.00304433
0.00233994
0.00178628
0.00144944
0.000991929
0.000856214
0.000729773
0.000798415
-0.000570796
0.0226716
0.0234962
0.0241535
0.0245956
0.0249361
0.0251653
0.0252455
0.02515
0.0248503
0.0243179
0.0235289
0.0224662
0.0211219
0.0194982
0.0176089
0.0154777
0.0131377
0.0106401
0.00805118
0.00541101
0.0027759
0.000240979
-0.00212167
-0.00427044
-0.00614942
-0.00770417
-0.00885967
-0.0094186
-0.0100865
-0.0101573
-0.00915251
-0.00811785
-0.00691045
-0.00538029
-0.00361537
-0.00168836
0.00035226
0.00245283
0.00456579
0.00665458
0.00865766
0.0105476
0.0123282
0.0139817
0.0154943
0.0168605
0.0180783
0.0191506
0.0200878
0.0209051
0.0216282
0.0222957
0.0229183
0.0234171
0.0237392
0.0239575
0.0240938
0.0241256
0.024035
0.0238064
0.0234233
0.0228714
0.0221401
0.0212232
0.0201199
0.0188354
0.01738
0.0157652
0.0140031
0.01213
0.0101887
0.0082225
0.00627061
0.00436796
0.00254867
0.000858667
-0.000675238
-0.00203258
-0.00306899
-0.00384542
-0.00462034
-0.00493175
-0.00469784
-0.00441163
-0.00399907
-0.00334986
-0.00252466
-0.00156382
-0.000492787
0.000656471
0.00185608
0.00308018
0.00429175
0.00546836
0.00661016
0.00770478
0.00874228
0.00971916
0.010632
0.0114802
0.0122707
0.013014
0.0137191
0.0143877
0.0149986
0.0155109
0.0159345
0.0163174
0.0166438
0.0168965
0.0170678
0.0171491
0.0171322
0.017008
0.0167641
0.0163905
0.0158856
0.0152558
0.0145106
0.0136601
0.0127181
0.0117128
0.0106624
0.00958225
0.00849182
0.00741899
0.00638666
0.00541237
0.00450933
0.00370551
0.00303299
0.00249866
0.00197759
0.00170046
0.00123425
0.00120516
-0.000493247
0.0232693
0.0242182
0.0250255
0.0256195
0.0260758
0.0264077
0.0265787
0.0265637
0.0263375
0.0258744
0.025153
0.0241573
0.0228796
0.0213226
0.0194998
0.0174331
0.0151546
0.0127171
0.0101817
0.00756802
0.00493251
0.00238755
9.87097e-06
-0.00220466
-0.00421449
-0.00586368
-0.00704586
-0.00789133
-0.00857309
-0.00885227
-0.00827427
-0.00727955
-0.00631506
-0.00505577
-0.00353207
-0.00182954
9.33449e-06
0.00193897
0.00391822
0.00588407
0.00781306
0.00969107
0.0114937
0.0131985
0.0147886
0.0162541
0.0175867
0.0187829
0.0198471
0.0207912
0.0216328
0.0224037
0.0231312
0.0237337
0.024172
0.0244996
0.024737
0.0248641
0.0248647
0.0247244
0.0244283
0.0239629
0.0233186
0.0224896
0.0214752
0.0202796
0.0189139
0.0173885
0.015704
0.0138933
0.0120062
0.0100814
0.00815632
0.00626015
0.00440418
0.00266084
0.00105505
-0.000385336
-0.00160959
-0.00263831
-0.00333916
-0.00372128
-0.00388345
-0.00387737
-0.0036625
-0.00323762
-0.00263605
-0.00188517
-0.00100701
-2.8721e-05
0.0010343
0.00213316
0.00324996
0.0043835
0.00551032
0.00661377
0.00768349
0.00871244
0.0096935
0.0106186
0.0114933
0.0123323
0.0131355
0.0138977
0.0145967
0.015202
0.0157536
0.0162561
0.0166918
0.0170537
0.017334
0.0175244
0.0176188
0.0176068
0.0174694
0.0171944
0.0167859
0.0162552
0.0156091
0.0148505
0.0139912
0.0130548
0.0120618
0.011014
0.00993146
0.00884798
0.00778711
0.00675568
0.00577392
0.00487654
0.00406714
0.00339677
0.00281527
0.00244725
0.00167822
0.00157874
-0.000459951
0.0240114
0.0250407
0.0259856
0.0267436
0.0273211
0.0277464
0.0279936
0.0280388
0.0278604
0.0274359
0.026746
0.025777
0.0245224
0.0229868
0.0211865
0.0191434
0.0169024
0.0145248
0.0120234
0.00936609
0.00664524
0.00401116
0.00160098
-0.000686114
-0.00270358
-0.00439536
-0.00585732
-0.00702806
-0.00765974
-0.00783708
-0.0076747
-0.00715691
-0.0063758
-0.00530991
-0.00398802
-0.00246212
-0.000759055
0.00105407
0.00292713
0.00485544
0.00679803
0.00871749
0.0105863
0.0123818
0.0140843
0.0156807
0.0171482
0.0184801
0.0196794
0.0207679
0.0217636
0.0226557
0.0234516
0.0241686
0.0247191
0.0251455
0.0254715
0.0256775
0.025749
0.025674
0.0254397
0.0250341
0.024448
0.0236767
0.0227212
0.0215934
0.0203174
0.0189061
0.0172981
0.0154973
0.0135961
0.0116543
0.00971959
0.00784309
0.00591029
0.00409634
0.00240007
0.000859465
-0.000398116
-0.0015693
-0.00239214
-0.00302673
-0.00346472
-0.00366823
-0.00366279
-0.0034568
-0.00306008
-0.00249516
-0.00176573
-0.000919718
1.25591e-05
0.00103773
0.00212481
0.00325107
0.00439142
0.00552501
0.00664396
0.00774489
0.00881353
0.00982863
0.0107974
0.0117516
0.0126588
0.013488
0.0142607
0.0149769
0.0156452
0.01625
0.0167839
0.0172415
0.0176134
0.0178945
0.0180943
0.0182098
0.0182001
0.0180253
0.0176893
0.017221
0.0166392
0.0159413
0.0151444
0.0142638
0.0133065
0.0122773
0.0111889
0.0100794
0.00898193
0.00788556
0.00681216
0.00586657
0.00499414
0.00422569
0.0035137
0.00295894
0.00198586
0.00183518
-0.000563218
0.0248687
0.0260436
0.0270546
0.0279457
0.0286706
0.0292062
0.0295347
0.0296362
0.0294918
0.0290833
0.0283942
0.0274116
0.0261295
0.0245599
0.0227305
0.0206367
0.0183194
0.0159335
0.0134521
0.0107028
0.00789747
0.00535312
0.00295298
0.000458902
-0.00171171
-0.00374045
-0.00526297
-0.00635006
-0.00720999
-0.00770601
-0.00779704
-0.0075127
-0.00691036
-0.0060171
-0.00483303
-0.00341897
-0.001833
-7.81736e-05
0.00180436
0.00376051
0.0057469
0.00773634
0.00970555
0.0116161
0.0134403
0.0151984
0.0168313
0.0183238
0.0197021
0.0209427
0.0220298
0.0230361
0.0239441
0.0247124
0.0253714
0.0259062
0.0263217
0.0266082
0.0267482
0.026729
0.0265403
0.0261718
0.0256169
0.0248771
0.0239519
0.0228411
0.0215494
0.0201857
0.0186188
0.0168009
0.0149095
0.0129848
0.0111256
0.00913711
0.00706779
0.00525279
0.00353087
0.00181661
0.000447979
-0.000754626
-0.00185681
-0.00273731
-0.00338068
-0.00379698
-0.00399544
-0.00397083
-0.00371971
-0.00329415
-0.00271296