/*--------------------------------*- C++ -*----------------------------------*\
| =========                 |                                                 |
| \\      /  F ield         | OpenFOAM: The Open Source CFD Toolbox           |
|  \\    /   O peration     | Version:  2206                                  |
|   \\  /    A nd           | Website:  www.openfoam.com                      |
|    \\/     M anipulation  |                                                 |
\*---------------------------------------------------------------------------*/
FoamFile
{
    version     2.0;
    format      ascii;
    arch        "LSB;label=32;scalar=64";
    class       volVectorField;
    location    "19.4001";
    object      ddt0(U);
}
// * * * * * * * * * * * * * * * * * * * * * * * * * * * * * * * * * * * * * //

dimensions      [0 1 -2 0 0 0 0];

internalField   nonuniform List<vector> 
4866
(
(-6.28256e-06 0.00867635 0)
(-0.000125544 0.0234533 0)
(-0.000279763 0.0375462 0)
(-0.000581971 0.0506323 0)
(-0.00107469 0.0625497 0)
(-0.00169554 0.0732228 0)
(-0.00239798 0.0825588 0)
(-0.00317139 0.0904624 0)
(-0.00400831 0.0968764 0)
(-0.0048943 0.101785 0)
(-0.00581423 0.105196 0)
(-0.00675461 0.107131 0)
(-0.00770286 0.107623 0)
(-0.0086485 0.10671 0)
(-0.00958287 0.104439 0)
(-0.0104977 0.100865 0)
(-0.0113849 0.0960487 0)
(-0.012235 0.090055 0)
(-0.013038 0.0829532 0)
(-0.0137843 0.0748155 0)
(-0.014465 0.0657186 0)
(-0.0150718 0.0557452 0)
(-0.0155976 0.0449851 0)
(-0.0160359 0.0335353 0)
(-0.0163813 0.0214998 0)
(-0.0166286 0.00898832 0)
(-0.0167744 -0.00388412 0)
(-0.0168143 -0.0169988 0)
(-0.0167482 -0.0302323 0)
(-0.0165725 -0.0434639 0)
(-0.0162746 -0.0565576 0)
(-0.0159239 -0.0693924 0)
(-0.0153939 -0.0818664 0)
(-0.0147965 -0.0938305 0)
(-0.0140988 -0.10517 0)
(-0.0133115 -0.115761 0)
(-0.0124289 -0.125508 0)
(-0.0114924 -0.134304 0)
(-0.010457 -0.14208 0)
(-0.00940682 -0.148743 0)
(-0.00825891 -0.154261 0)
(-0.00710931 -0.15856 0)
(-0.00593081 -0.161629 0)
(-0.00467522 -0.163462 0)
(-0.00355165 -0.16399 0)
(-0.00223981 -0.163349 0)
(-0.00115593 -0.161389 0)
(7.69492e-05 -0.15831 0)
(0.00112349 -0.153997 0)
(0.00224079 -0.148638 0)
(0.00320937 -0.142161 0)
(0.00414286 -0.134685 0)
(0.00506673 -0.126326 0)
(0.00579341 -0.116769 0)
(0.00657799 -0.106606 0)
(0.00718461 -0.0957086 0)
(0.00764499 -0.0841474 0)
(0.0080056 -0.0720244 0)
(0.00826272 -0.0594418 0)
(0.00839742 -0.0465044 0)
(0.00839542 -0.0333099 0)
(0.00825045 -0.019954 0)
(0.00796204 -0.00653656 0)
(0.0075327 0.00683119 0)
(0.00696277 0.0200389 0)
(0.00625036 0.0329793 0)
(0.00539235 0.0455548 0)
(0.00438762 0.0576691 0)
(0.00323571 0.0692316 0)
(0.00193699 0.0801543 0)
(0.000490317 0.0903618 0)
(-0.00110556 0.0997888 0)
(-0.00285291 0.108386 0)
(-0.00475431 0.116113 0)
(-0.00681513 0.122944 0)
(-0.00904302 0.128859 0)
(-0.0114496 0.133855 0)
(-0.0140498 0.137939 0)
(-0.0168634 0.141139 0)
(-0.0199147 0.143496 0)
(-0.0232341 0.145072 0)
(-0.0268595 0.145943 0)
(-0.0308388 0.146203 0)
(-0.0352319 0.145961 0)
(-0.040114 0.145348 0)
(-0.0455764 0.144509 0)
(-0.051732 0.143619 0)
(-0.0587141 0.142866 0)
(-0.0666955 0.142491 0)
(-0.0758681 0.142736 0)
(-0.0864731 0.143904 0)
(-0.0988075 0.146337 0)
(-0.113233 0.150435 0)
(-0.130187 0.156647 0)
(-0.150205 0.165504 0)
(-0.173947 0.177616 0)
(-0.202228 0.193722 0)
(-0.236054 0.214687 0)
(-0.276665 0.241576 0)
(-0.325592 0.275685 0)
(-0.384736 0.318673 0)
(-0.456444 0.372678 0)
(-0.5436 0.440611 0)
(-0.649735 0.526622 0)
(-0.77927 0.636757 0)
(-0.93701 0.780481 0)
(-1.12969 0.972462 0)
(-1.35599 1.24153 0)
(-1.6341 1.62968 0)
(-1.83883 2.25782 0)
(-2.25273 3.31106 0)
(-0.53853 6.5799 0)
(7.25028e-05 0.00883064 0)
(5.34474e-05 0.0234708 0)
(-8.02507e-05 0.0377226 0)
(-0.000400952 0.0510583 0)
(-0.000849205 0.0631485 0)
(-0.00134739 0.0739116 0)
(-0.00188772 0.0833048 0)
(-0.00248177 0.0912638 0)
(-0.00312701 0.0977342 0)
(-0.00381439 0.10269 0)
(-0.00453394 0.10613 0)
(-0.00527355 0.108077 0)
(-0.00602247 0.108566 0)
(-0.00677143 0.10764 0)
(-0.0075103 0.105353 0)
(-0.0082292 0.101757 0)
(-0.00891931 0.0969108 0)
(-0.00957364 0.0908783 0)
(-0.0101871 0.0837265 0)
(-0.0107552 0.075528 0)
(-0.0112731 0.0663608 0)
(-0.0117361 0.0563092 0)
(-0.0121388 0.0454644 0)
(-0.0124759 0.0339244 0)
(-0.0127423 0.0217938 0)
(-0.0129336 0.00918322 0)
(-0.0130466 -0.00379193 0)
(-0.0130775 -0.0170117 0)
(-0.0130284 -0.0303527 0)
(-0.0128846 -0.043691 0)
(-0.0126851 -0.0568901 0)
(-0.0123714 -0.0698383 0)
(-0.0119651 -0.0824194 0)
(-0.011508 -0.0944797 0)
(-0.0109557 -0.105915 0)
(-0.0103486 -0.116589 0)
(-0.00966576 -0.126415 0)
(-0.00892443 -0.135283 0)
(-0.00814199 -0.143115 0)
(-0.00730017 -0.149839 0)
(-0.00642147 -0.155395 0)
(-0.00554293 -0.159726 0)
(-0.00458176 -0.162832 0)
(-0.00367 -0.16465 0)
(-0.00274487 -0.165205 0)
(-0.00172967 -0.164538 0)
(-0.000920863 -0.162544 0)
(5.38554e-05 -0.159426 0)
(0.000913876 -0.155107 0)
(0.00169228 -0.149632 0)
(0.00245512 -0.14309 0)
(0.00319167 -0.135583 0)
(0.00389776 -0.127169 0)
(0.00436594 -0.11751 0)
(0.00504168 -0.107262 0)
(0.00556757 -0.0962498 0)
(0.00593545 -0.0845691 0)
(0.0062132 -0.0723465 0)
(0.0064106 -0.0596636 0)
(0.00650997 -0.0465964 0)
(0.00650415 -0.0332483 0)
(0.00639382 -0.0197354 0)
(0.00617757 -0.00617172 0)
(0.0058541 0.00733675 0)
(0.00542176 0.0206853 0)
(0.00487735 0.0337703 0)
(0.00421605 0.0464889 0)
(0.00343491 0.0587443 0)
(0.00253567 0.0704465 0)
(0.00152343 0.0815142 0)
(0.000402313 0.0918731 0)
(-0.000827275 0.101457 0)
(-0.00217116 0.11021 0)
(-0.00363893 0.118091 0)
(-0.00524108 0.125075 0)
(-0.006986 0.131151 0)
(-0.00887883 0.136325 0)
(-0.0109239 0.140615 0)
(-0.0131288 0.144051 0)
(-0.0155082 0.146678 0)
(-0.0180878 0.14856 0)
(-0.020904 0.149777 0)
(-0.0240049 0.150433 0)
(-0.0274487 0.150651 0)
(-0.0313033 0.150576 0)
(-0.0356461 0.15038 0)
(-0.040568 0.150258 0)
(-0.0461774 0.150437 0)
(-0.0526039 0.151169 0)
(-0.0600131 0.152765 0)
(-0.0685929 0.155559 0)
(-0.0785859 0.159956 0)
(-0.0902962 0.166423 0)
(-0.104099 0.175513 0)
(-0.120449 0.187876 0)
(-0.139895 0.20427 0)
(-0.16311 0.225591 0)
(-0.190911 0.252922 0)
(-0.224293 0.28757 0)
(-0.264449 0.331141 0)
(-0.312807 0.385644 0)
(-0.371017 0.453596 0)
(-0.440891 0.538326 0)
(-0.524352 0.64435 0)
(-0.623143 0.777765 0)
(-0.738136 0.947073 0)
(-0.86758 1.16457 0)
(-1.00693 1.44929 0)
(-1.13271 1.82203 0)
(-1.23101 2.3278 0)
(-1.16532 2.963 0)
(-0.740687 3.5272 0)
(-3.02541e-06 0.00834548 0)
(8.15823e-05 0.0237188 0)
(-5.09187e-06 0.0381569 0)
(-0.000315796 0.0514966 0)
(-0.000676876 0.0635937 0)
(-0.00101099 0.0744005 0)
(-0.00135838 0.0838479 0)
(-0.00175318 0.0918572 0)
(-0.00219883 0.0983701 0)
(-0.00268647 0.103361 0)
(-0.00320552 0.106831 0)
(-0.00374584 0.108802 0)
(-0.00429769 0.109304 0)
(-0.00485077 0.108378 0)
(-0.00539491 0.106072 0)
(-0.00592141 0.102442 0)
(-0.00642399 0.0975537 0)
(-0.00689752 0.0914748 0)
(-0.00733707 0.0842766 0)
(-0.00773863 0.0760321 0)
(-0.00809917 0.0668176 0)
(-0.00841641 0.056715 0)
(-0.00868842 0.0458138 0)
(-0.00891355 0.0342113 0)
(-0.00909004 0.0220125 0)
(-0.00921583 0.00932903 0)
(-0.00928892 -0.00372252 0)
(-0.00930641 -0.0170208 0)
(-0.00926838 -0.0304421 0)
(-0.00916776 -0.0438571 0)
(-0.00901744 -0.0571425 0)
(-0.00880015 -0.0701784 0)
(-0.00850636 -0.0828351 0)
(-0.0082005 -0.0949651 0)
(-0.00776881 -0.106471 0)
(-0.00739345 -0.117205 0)
(-0.00684001 -0.127099 0)
(-0.00637859 -0.136012 0)
(-0.00577878 -0.143899 0)
(-0.00517884 -0.150661 0)
(-0.00461308 -0.156239 0)
(-0.00388285 -0.160618 0)
(-0.00331484 -0.163712 0)
(-0.0025965 -0.165554 0)
(-0.00192892 -0.166124 0)
(-0.00127333 -0.165404 0)
(-0.00066065 -0.163422 0)
(0.000105692 -0.160306 0)
(0.000577535 -0.155864 0)
(0.00116917 -0.150357 0)
(0.00183926 -0.143886 0)
(0.00220003 -0.136203 0)
(0.00261948 -0.127621 0)
(0.00314019 -0.118318 0)
(0.00349095 -0.107759 0)
(0.00391797 -0.0966647 0)
(0.00419723 -0.0849046 0)
(0.00438623 -0.0725761 0)
(0.00452721 -0.059779 0)
(0.00460678 -0.0466062 0)
(0.00461781 -0.0331637 0)
(0.00456709 -0.019565 0)
(0.00444972 -0.00591946 0)
(0.00424436 0.00767263 0)
(0.00393517 0.0211153 0)
(0.00352691 0.0343108 0)
(0.0030393 0.047155 0)
(0.00249029 0.0595411 0)
(0.00188314 0.0713662 0)
(0.00120488 0.0825406 0)
(0.000437191 0.0929928 0)
(-0.000432059 0.10267 0)
(-0.00140104 0.111533 0)
(-0.00245619 0.119549 0)
(-0.0035819 0.126688 0)
(-0.00477054 0.132927 0)
(-0.00602861 0.138256 0)
(-0.007377 0.142688 0)
(-0.00884579 0.146259 0)
(-0.010469 0.149032 0)
(-0.0122785 0.151093 0)
(-0.0143042 0.152544 0)
(-0.0165751 0.153503 0)
(-0.0191217 0.154101 0)
(-0.0219781 0.154489 0)
(-0.0251878 0.154841 0)
(-0.0288067 0.15536 0)
(-0.0329077 0.156286 0)
(-0.0375849 0.157905 0)
(-0.0429552 0.160543 0)
(-0.0491713 0.164602 0)
(-0.0564198 0.170531 0)
(-0.0649308 0.178869 0)
(-0.0749753 0.190231 0)
(-0.0869016 0.205351 0)
(-0.101137 0.225089 0)
(-0.118188 0.25048 0)
(-0.138666 0.282767 0)
(-0.163293 0.32343 0)
(-0.192903 0.374265 0)
(-0.228486 0.4375 0)
(-0.271072 0.515723 0)
(-0.321489 0.612165 0)
(-0.380591 0.731189 0)
(-0.44859 0.87773 0)
(-0.524554 1.05865 0)
(-0.604529 1.28177 0)
(-0.679469 1.55525 0)
(-0.729098 1.88882 0)
(-0.726512 2.28865 0)
(-0.560319 2.75302 0)
(-0.241413 3.39381 0)
(-0.000173381 0.00826432 0)
(-0.000181566 0.0238246 0)
(-2.62554e-05 0.0383852 0)
(-0.0001129 0.0517839 0)
(-0.000309083 0.0638882 0)
(-0.000518912 0.0746764 0)
(-0.000749466 0.0841378 0)
(-0.00100693 0.0921998 0)
(-0.0012906 0.0987752 0)
(-0.00159729 0.103815 0)
(-0.00192155 0.107315 0)
(-0.00225644 0.109297 0)
(-0.00259431 0.109799 0)
(-0.00292849 0.108867 0)
(-0.0032551 0.106551 0)
(-0.00357125 0.10291 0)
(-0.00387428 0.098005 0)
(-0.00416199 0.0919012 0)
(-0.00443103 0.0846686 0)
(-0.0046772 0.0763817 0)
(-0.00489643 0.06712 0)
(-0.00508538 0.0569694 0)
(-0.00524202 0.0460216 0)
(-0.00536569 0.0343747 0)
(-0.00545658 0.0221329 0)
(-0.0055154 0.00940642 0)
(-0.00554276 -0.00368956 0)
(-0.00553935 -0.0170345 0)
(-0.0055033 -0.0305049 0)
(-0.00544266 -0.0439702 0)
(-0.00532417 -0.0573117 0)
(-0.00522485 -0.0703978 0)
(-0.00500779 -0.0831096 0)
(-0.00487919 -0.0952831 0)
(-0.00455191 -0.106842 0)
(-0.00441632 -0.117609 0)
(-0.00399377 -0.127555 0)
(-0.0038218 -0.136486 0)
(-0.00337602 -0.144426 0)
(-0.00308664 -0.151189 0)
(-0.00274427 -0.15681 0)
(-0.00223497 -0.161195 0)
(-0.00208503 -0.164286 0)
(-0.00138634 -0.166179 0)
(-0.00129007 -0.166686 0)
(-0.000678368 -0.166007 0)
(-0.000398171 -0.16402 0)
(6.13812e-05 -0.160836 0)
(0.000259653 -0.156355 0)
(0.000888287 -0.150975 0)
(0.000953104 -0.144218 0)
(0.001257 -0.136558 0)
(0.00157324 -0.128071 0)
(0.00182393 -0.118691 0)
(0.00188314 -0.108067 0)
(0.00221827 -0.0969293 0)
(0.00243184 -0.0851173 0)
(0.00256369 -0.0727329 0)
(0.00269898 -0.0599002 0)
(0.00281755 -0.0467196 0)
(0.00286028 -0.0332641 0)
(0.00279997 -0.0196 0)
(0.00265844 -0.00582363 0)
(0.00248567 0.00793342 0)
(0.00232103 0.0215227 0)
(0.00216485 0.0348059 0)
(0.00198135 0.0476737 0)
(0.00172665 0.060053 0)
(0.00137701 0.0718908 0)
(0.000943486 0.0831314 0)
(0.0004629 0.0936995 0)
(-2.37911e-05 0.103506 0)
(-0.000491333 0.112466 0)
(-0.000941311 0.120522 0)
(-0.00139941 0.127655 0)
(-0.00190454 0.13388 0)
(-0.00249834 0.139233 0)
(-0.00321566 0.14376 0)
(-0.00407996 0.147503 0)
(-0.00510144 0.150512 0)
(-0.00627954 0.152844 0)
(-0.00760877 0.154576 0)
(-0.00908315 0.15581 0)
(-0.0107007 0.156678 0)
(-0.0124695 0.157341 0)
(-0.0144099 0.157994 0)
(-0.016557 0.158865 0)
(-0.018961 0.160216 0)
(-0.0216878 0.162359 0)
(-0.0248159 0.165658 0)
(-0.0284461 0.170541 0)
(-0.0327001 0.177496 0)
(-0.0376989 0.187073 0)
(-0.0436129 0.199981 0)
(-0.0506806 0.217031 0)
(-0.0591677 0.239161 0)
(-0.0693737 0.267479 0)
(-0.0816799 0.303308 0)
(-0.0965396 0.348214 0)
(-0.114401 0.404052 0)
(-0.135874 0.473107 0)
(-0.161659 0.557774 0)
(-0.192047 0.661654 0)
(-0.22708 0.788311 0)
(-0.26664 0.941678 0)
(-0.30932 1.12623 0)
(-0.351848 1.34616 0)
(-0.387675 1.60458 0)
(-0.407542 1.90104 0)
(-0.394093 2.22983 0)
(-0.33676 2.54036 0)
(-0.225207 2.89143 0)
(-0.00116341 0.106792 0)
(-0.00126793 0.103136 0)
(-0.00136008 0.0982158 0)
(-0.00144102 0.0920987 0)
(-0.00151211 0.0848539 0)
(-0.00157546 0.0765533 0)
(-0.00163219 0.0672746 0)
(-0.00168258 0.0571019 0)
(-0.00172553 0.0461275 0)
(-0.00175943 0.0344513 0)
(-0.00178253 0.0221799 0)
(-0.00179385 0.00942537 0)
(-0.00179256 -0.00369609 0)
(-0.00178006 -0.0170643 0)
(-0.00175363 -0.0305562 0)
(-0.00172775 -0.0440432 0)
(-0.00166304 -0.0574071 0)
(-0.0016226 -0.0705148 0)
(-0.00155941 -0.0832466 0)
(-0.00149254 -0.0954457 0)
(-0.00140036 -0.107018 0)
(-0.00134388 -0.117814 0)
(-0.00121562 -0.127767 0)
(-0.00117651 -0.136728 0)
(-0.00100174 -0.14467 0)
(-0.000986482 -0.151451 0)
(-0.00078603 -0.157089 0)
(-0.000740049 -0.161459 0)
(-0.000618114 -0.164592 0)
(-0.000412982 -0.166451 0)
(-0.000473316 -0.16698 0)
(-0.00011784 -0.166309 0)
(-0.00018037 -0.164301 0)
(1.33233e-05 -0.161084 0)
(0.000168547 -0.156704 0)
(0.000321881 -0.151167 0)
(0.000164086 -0.144339 0)
(0.000635917 -0.136909 0)
(0.000450088 -0.128164 0)
(0.000374304 -0.118619 0)
(0.000429817 -0.108458 0)
(0.000521 -0.0970612 0)
(0.000744664 -0.0853259 0)
(0.000851244 -0.072979 0)
(0.000845406 -0.0600502 0)
(0.000783109 -0.0466747 0)
(0.000765166 -0.0330234 0)
(0.000847514 -0.0192749 0)
(0.000991391 -0.00557225 0)
(0.00110906 0.00800012 0)
(0.00112884 0.0214093 0)
(0.00103297 0.03463 0)
(0.000866319 0.0475987 0)
(0.000708856 0.0601871 0)
(0.000636249 0.0722273 0)
(0.000683519 0.0835586 0)
(0.000835521 0.0940766 0)
(0.00103811 0.103742 0)
(0.00122036 0.112565 0)
(0.00131738 0.12057 0)
(0.00128816 0.12777 0)
(0.00112003 0.134159 0)
(0.000827982 0.139725 0)
(0.000443238 0.144456 0)
(4.12294e-06 0.148364 0)
(-0.000455529 0.151485 0)
(-0.000913091 0.153888 0)
(-0.00135849 0.155667 0)
(-0.0017907 0.156948 0)
(-0.00221626 0.157875 0)
(-0.0026433 0.158621 0)
(-0.00309181 0.15939 0)
(-0.00358786 0.160425 0)
(-0.00415296 0.161996 0)
(-0.00481011 0.164423 0)
(-0.00558328 0.168068 0)
(-0.00650964 0.173365 0)
(-0.00764915 0.18077 0)
(-0.0090193 0.190962 0)
(-0.0106432 0.204661 0)
(-0.0126071 0.222618 0)
(-0.0150082 0.245808 0)
(-0.0179391 0.275435 0)
(-0.021541 0.312904 0)
(-0.026025 0.359867 0)
(-0.0315545 0.418289 0)
(-0.0386211 0.491124 0)
(-0.046986 0.579142 0)
(-0.0564089 0.685769 0)
(-0.0679984 0.81594 0)
(-0.0814561 0.972505 0)
(-0.0953543 1.15826 0)
(-0.108598 1.37566 0)
(-0.118806 1.6249 0)
(-0.122034 1.90276 0)
(-0.110627 2.19853 0)
(-0.0881413 2.50166 0)
(-0.0485211 2.53461 0)
(-0.00021765 0.000312314 0)
(-0.000947859 0.000490446 0)
(-0.00237385 0.000765042 0)
(-0.00438255 0.00104771 0)
(-0.00672152 0.0013291 0)
(-0.00947868 0.00157468 0)
(-0.0125754 0.00181326 0)
(-0.0159814 0.00195785 0)
(-0.0196498 0.00206321 0)
(-0.0233738 0.00212082 0)
(-0.0270199 0.0020985 0)
(-0.0304865 0.00198238 0)
(-0.033667 0.00179205 0)
(-0.0364838 0.00154981 0)
(-0.0388729 0.00122332 0)
(-0.0407329 0.000789568 0)
(-0.0419223 0.000256603 0)
(-0.0423135 -0.000334255 0)
(-0.0417712 -0.0010233 0)
(-0.0401154 -0.0018965 0)
(-0.0372117 -0.00288393 0)
(-0.0330458 -0.00386566 0)
(-0.0275833 -0.0048451 0)
(-0.02081 -0.00576147 0)
(-0.0127634 -0.00659267 0)
(-0.00346499 -0.00736172 0)
(0.00696389 -0.00805795 0)
(0.0186532 -0.00857345 0)
(0.0305992 -0.00911807 0)
(0.0452778 -0.00957936 0)
(0.058709 -0.0096006 0)
(0.0724897 -0.00908205 0)
(0.0863545 -0.00813968 0)
(0.0995124 -0.00688401 0)
(0.111663 -0.0053993 0)
(0.122644 -0.00377338 0)
(0.132237 -0.00209724 0)
(0.140369 -0.000454416 0)
(0.146802 0.00104015 0)
(0.151689 0.0022597 0)
(0.155028 0.00329735 0)
(0.157237 0.004185 0)
(0.158261 0.00477937 0)
(0.158392 0.00488267 0)
(0.158094 0.00474551 0)
(0.156913 0.00421138 0)
(0.156405 0.00276286 0)
(0.156939 0.000955926 0)
(0.158066 -0.000948623 0)
(0.160102 -0.00267743 0)
(0.163135 -0.00403683 0)
(0.167192 -0.00504572 0)
(0.172151 -0.00575338 0)
(0.178057 -0.00624234 0)
(0.184751 -0.00647997 0)
(0.191831 -0.00647421 0)
(0.199407 -0.00614493 0)
(0.206613 -0.0053249 0)
(0.213982 -0.00484675 0)
(0.220588 -0.00405104 0)
(0.227248 -0.00356859 0)
(0.232187 -0.00282834 0)
(0.239115 -0.00242544 0)
(0.239791 -0.00179579 0)
(0.249637 -0.000315814 0)
(0.249983 -0.00278225 0)
(0.256619 -0.00798365 0)
(0.264293 -0.00750723 0)
(0.270879 -0.00559705 0)
(0.275909 -0.00337766 0)
(0.28026 -0.00220322 0)
(0.285652 -0.00155971 0)
(0.289175 -0.00166858 0)
(0.293842 -0.00210503 0)
(0.298509 -0.000883053 0)
(0.30292 0.000375039 0)
(0.306811 0.00142356 0)
(0.309939 0.00200011 0)
(0.312353 0.00218224 0)
(0.314442 0.00176965 0)
(0.316511 0.00141923 0)
(0.318824 0.00124448 0)
(0.321459 0.0012076 0)
(0.324296 0.00120105 0)
(0.327179 0.00120662 0)
(0.329975 0.00125475 0)
(0.332526 0.00139746 0)
(0.334654 0.00167016 0)
(0.336237 0.00209598 0)
(0.33718 0.00266454 0)
(0.337319 0.00336148 0)
(0.336524 0.00410826 0)
(0.334668 0.00497809 0)
(0.331631 0.00588809 0)
(0.327422 0.00668955 0)
(0.322041 0.00759886 0)
(0.315403 0.00861798 0)
(0.307448 0.00944127 0)
(0.298265 0.0101263 0)
(0.287677 0.0112269 0)
(0.275512 0.0125109 0)
(0.262177 0.0134101 0)
(0.247833 0.0142522 0)
(0.232635 0.015286 0)
(0.216388 0.0165748 0)
(0.196742 0.0178527 0)
(0.177551 0.0192352 0)
(0.154365 0.0206746 0)
(0.130825 0.0220917 0)
(0.104302 0.0234075 0)
(0.0763869 0.0246467 0)
(0.0462457 0.0258891 0)
(-7.00149e-05 0.000758472 0)
(-0.000724544 0.00177374 0)
(-0.00160991 0.00356887 0)
(-0.00453399 0.00384206 0)
(-0.00680168 0.00435784 0)
(-0.00949352 0.00510603 0)
(-0.0125147 0.00510063 0)
(-0.0157509 0.00606406 0)
(-0.0191804 0.00602252 0)
(-0.0227499 0.00594321 0)
(-0.0263658 0.00574868 0)
(-0.0298886 0.00532314 0)
(-0.033258 0.00477021 0)
(-0.036451 0.00421381 0)
(-0.0394675 0.00351975 0)
(-0.0421996 0.002607 0)
(-0.0445174 0.001471 0)
(-0.0463798 0.000157421 0)
(-0.0477492 -0.00140623 0)
(-0.0484193 -0.00312048 0)
(-0.0481802 -0.00494207 0)
(-0.0470707 -0.00692316 0)
(-0.0450786 -0.00899203 0)
(-0.0421609 -0.0110141 0)
(-0.0383419 -0.0130241 0)
(-0.0336038 -0.0149618 0)
(-0.0279129 -0.0167862 0)
(-0.0213599 -0.0184134 0)
(-0.0139803 -0.0198181 0)
(-0.00571306 -0.0209786 0)
(0.0033632 -0.0217431 0)
(0.0132292 -0.0220942 0)
(0.0237759 -0.0220301 0)
(0.0348494 -0.0215354 0)
(0.0463256 -0.0206226 0)
(0.0581047 -0.01933 0)
(0.0700861 -0.0177079 0)
(0.0821744 -0.0158336 0)
(0.0942619 -0.0137711 0)
(0.106392 -0.0118865 0)
(0.118606 -0.0102299 0)
(0.13078 -0.00867794 0)
(0.142697 -0.00714373 0)
(0.154557 -0.00578349 0)
(0.165571 -0.00479054 0)
(0.178616 -0.0041475 0)
(0.189135 -0.00410475 0)
(0.200149 -0.00472325 0)
(0.210409 -0.00450292 0)
(0.220615 -0.00513276 0)
(0.230307 -0.00602424 0)
(0.240022 -0.00705526 0)
(0.248906 -0.00832876 0)
(0.258269 -0.00949849 0)
(0.266832 -0.0105402 0)
(0.275912 -0.0111324 0)
(0.284607 -0.0114475 0)
(0.29243 -0.0115383 0)
(0.302123 -0.0111181 0)
(0.308142 -0.011171 0)
(0.320475 -0.00990819 0)
(0.324172 -0.0102601 0)
(0.337 -0.00866779 0)
(0.342296 -0.00904931 0)
(0.35136 -0.00907386 0)
(0.361796 -0.00850279 0)
(0.366242 -0.00959127 0)
(0.376551 -0.00870551 0)
(0.379413 -0.0103755 0)
(0.387901 -0.0103153 0)
(0.398646 -0.00917917 0)
(0.405518 -0.0131159 0)
(0.417052 -0.00784445 0)
(0.425432 -0.0100004 0)
(0.435222 -0.0109624 0)
(0.445861 -0.0113406 0)
(0.457015 -0.011105 0)
(0.468537 -0.0102406 0)
(0.480301 -0.00909397 0)
(0.492189 -0.00825736 0)
(0.504115 -0.00805454 0)
(0.516139 -0.00837352 0)
(0.528337 -0.00881488 0)
(0.540686 -0.00904056 0)
(0.553072 -0.0088849 0)
(0.565329 -0.00838141 0)
(0.577306 -0.00761152 0)
(0.588897 -0.0066338 0)
(0.600055 -0.00547972 0)
(0.61075 -0.00417639 0)
(0.620814 -0.00265537 0)
(0.630254 -0.00104858 0)
(0.638989 0.000816689 0)
(0.646764 0.00286204 0)
(0.653773 0.0045672 0)
(0.660252 0.00627756 0)
(0.665899 0.00851142 0)
(0.670344 0.0109293 0)
(0.674014 0.0130689 0)
(0.676348 0.0151958 0)
(0.679957 0.0170413 0)
(0.683077 0.0182047 0)
(0.685543 0.0195826 0)
(0.687007 0.021745 0)
(0.687099 0.0245697 0)
(0.685895 0.0275403 0)
(0.683197 0.0304775 0)
(0.679832 0.0335532 0)
(0.674472 0.0367674 0)
(0.668171 0.0401867 0)
(0.660414 0.0436734 0)
(0.65082 0.0471626 0)
(-0.000130031 0.00105249 0)
(-0.000624645 0.00302093 0)
(-0.00175299 0.00475205 0)
(-0.00331655 0.00583048 0)
(-0.00541029 0.00704137 0)
(-0.0082542 0.00813075 0)
(-0.0114369 0.00898571 0)
(-0.0149563 0.00972409 0)
(-0.0186188 0.0101246 0)
(-0.0223218 0.0103828 0)
(-0.0263898 0.0103091 0)
(-0.0297956 0.00997216 0)
(-0.0344863 0.009392 0)
(-0.0383744 0.00860596 0)
(-0.0420651 0.00759772 0)
(-0.0455836 0.00638293 0)
(-0.0487931 0.00494267 0)
(-0.0517613 0.00352097 0)
(-0.0543947 0.00141972 0)
(-0.0565393 -0.00162122 0)
(-0.0582248 -0.0042789 0)
(-0.0596806 -0.00658766 0)
(-0.0607688 -0.00981648 0)
(-0.0613256 -0.0123939 0)
(-0.0614252 -0.0152828 0)
(-0.061031 -0.0182067 0)
(-0.0600849 -0.0211355 0)
(-0.0585738 -0.0234731 0)
(-0.0565761 -0.0265845 0)
(-0.0541764 -0.0288342 0)
(-0.0511854 -0.0304374 0)
(-0.0474302 -0.0313557 0)
(-0.0428771 -0.0318131 0)
(-0.0375621 -0.0318232 0)
(-0.0315104 -0.0314 0)
(-0.0247286 -0.0305876 0)
(-0.0172479 -0.0294376 0)
(-0.00910077 -0.0280124 0)
(-0.000603191 -0.0263798 0)
(0.00833668 -0.0246161 0)
(0.018088 -0.0230653 0)
(0.0286382 -0.0217574 0)
(0.0396257 -0.0206837 0)
(0.0506901 -0.0198521 0)
(0.061638 -0.0193654 0)
(0.0724283 -0.0192134 0)
(0.0830706 -0.019344 0)
(0.0935368 -0.0197958 0)
(0.103712 -0.020395 0)
(0.113686 -0.0210543 0)
(0.123305 -0.0216587 0)
(0.132328 -0.0222919 0)
(0.140687 -0.0230149 0)
(0.148514 -0.0236836 0)
(0.15592 -0.0241307 0)
(0.162927 -0.0242626 0)
(0.169582 -0.0240789 0)
(0.175815 -0.0231439 0)
(0.181813 -0.0239056 0)
(0.187481 -0.0234452 0)
(0.192916 -0.0221962 0)
(0.198046 -0.0210154 0)
(0.202839 -0.0204656 0)
(0.207195 -0.0201801 0)
(0.212257 -0.0193045 0)
(0.21542 -0.0203201 0)
(0.219953 -0.0196675 0)
(0.223527 -0.0197143 0)
(0.226769 -0.0201196 0)
(0.230411 -0.020404 0)
(0.234298 -0.0185183 0)
(0.237464 -0.0193349 0)
(0.240224 -0.0203154 0)
(0.243469 -0.0213185 0)
(0.246909 -0.0220339 0)
(0.250295 -0.0222681 0)
(0.253722 -0.0220665 0)
(0.257471 -0.0217401 0)
(0.261817 -0.0216711 0)
(0.266864 -0.0220767 0)
(0.272487 -0.0228528 0)
(0.278469 -0.0237186 0)
(0.284649 -0.0243981 0)
(0.290987 -0.0247499 0)
(0.297537 -0.0247417 0)
(0.304353 -0.0244187 0)
(0.311529 -0.0238306 0)
(0.319078 -0.0229209 0)
(0.326994 -0.0218635 0)
(0.335612 -0.020378 0)
(0.344117 -0.0186284 0)
(0.353675 -0.0167714 0)
(0.363063 -0.013871 0)
(0.372233 -0.0111794 0)
(0.38205 -0.00953154 0)
(0.392791 -0.00730793 0)
(0.403873 -0.0043175 0)
(0.414601 -0.0015316 0)
(0.425836 0.000957838 0)
(0.436429 0.00317527 0)
(0.452464 0.00505648 0)
(0.464281 0.00701457 0)
(0.476835 0.00951946 0)
(0.490554 0.0126523 0)
(0.504975 0.0162032 0)
(0.519939 0.0199082 0)
(0.535539 0.0236321 0)
(0.551795 0.0273928 0)
(0.568728 0.0312734 0)
(0.586257 0.0353028 0)
(0.604302 0.0394773 0)
(0.622568 0.0436902 0)
(-0.000117012 0.00135907 0)
(-0.000648899 0.0038953 0)
(-0.00161206 0.00638475 0)
(-0.00354041 0.00819447 0)
(-0.00555113 0.0101094 0)
(-0.00844363 0.0114161 0)
(-0.0112086 0.0127808 0)
(-0.0148422 0.0135371 0)
(-0.0181923 0.0143082 0)
(-0.0221998 0.0145907 0)
(-0.0259965 0.0142029 0)
(-0.0302243 0.0140841 0)
(-0.0343396 0.0138441 0)
(-0.0383311 0.0131022 0)
(-0.0423687 0.0119573 0)
(-0.0463814 0.0104313 0)
(-0.0501234 0.00838858 0)
(-0.0542253 0.00652313 0)
(-0.0557067 0.00376379 0)
(-0.060864 0.00156959 0)
(-0.0638886 -0.00166668 0)
(-0.0666289 -0.00488042 0)
(-0.069153 -0.00792477 0)
(-0.0715505 -0.0111158 0)
(-0.0730976 -0.0141349 0)
(-0.0752765 -0.0172356 0)
(-0.0753942 -0.0201275 0)
(-0.0780136 -0.023017 0)
(-0.0774289 -0.0256755 0)
(-0.0765352 -0.028228 0)
(-0.0755803 -0.0304632 0)
(-0.0739716 -0.0323653 0)
(-0.0715854 -0.0338262 0)
(-0.0684897 -0.0347625 0)
(-0.0646816 -0.0352587 0)
(-0.0600619 -0.0353286 0)
(-0.0546262 -0.0349979 0)
(-0.0483702 -0.0342872 0)
(-0.0416585 -0.0325665 0)
(-0.0332936 -0.0339604 0)
(-0.0257357 -0.0330988 0)
(-0.0175424 -0.0326108 0)
(-0.00899183 -0.0316846 0)
(-0.000345111 -0.0305877 0)
(0.00839006 -0.0297881 0)
(0.0170536 -0.0293121 0)
(0.0255574 -0.0291823 0)
(0.0338057 -0.0292089 0)
(0.0418658 -0.0296607 0)
(0.0499619 -0.0300008 0)
(0.0572495 -0.0293285 0)
(0.063442 -0.0284406 0)
(0.0690303 -0.028012 0)
(0.0743807 -0.0279056 0)
(0.0794131 -0.0277459 0)
(0.083971 -0.0273264 0)
(0.0880499 -0.0266194 0)
(0.091818 -0.0257018 0)
(0.0952774 -0.0247173 0)
(0.0982426 -0.0236272 0)
(0.100831 -0.0221827 0)
(0.103076 -0.0209765 0)
(0.104898 -0.0202567 0)
(0.106252 -0.0197896 0)
(0.107321 -0.019408 0)
(0.108152 -0.0189641 0)
(0.108515 -0.0188485 0)
(0.108741 -0.018829 0)
(0.108854 -0.0181592 0)
(0.107934 -0.0178569 0)
(0.106526 -0.0179728 0)
(0.105063 -0.0183628 0)
(0.103457 -0.0184493 0)
(0.101712 -0.0185503 0)
(0.0996646 -0.0189015 0)
(0.0973258 -0.0194365 0)
(0.0949692 -0.0199832 0)
(0.0928475 -0.0204674 0)
(0.0909859 -0.020951 0)
(0.0892443 -0.0215453 0)
(0.0874892 -0.0222829 0)
(0.0857063 -0.0230929 0)
(0.0840014 -0.0238414 0)
(0.0825506 -0.0244424 0)
(0.0815156 -0.02482 0)
(0.0810172 -0.0249941 0)
(0.0812476 -0.0250778 0)
(0.0819826 -0.0246672 0)
(0.0838974 -0.0248406 0)
(0.0864699 -0.0238972 0)
(0.089544 -0.0232342 0)
(0.0957241 -0.0234924 0)
(0.0994152 -0.0196461 0)
(0.105933 -0.0173807 0)
(0.114723 -0.0190435 0)
(0.124511 -0.0179681 0)
(0.136019 -0.0145866 0)
(0.149876 -0.0125995 0)
(0.16661 -0.0122371 0)
(0.185684 -0.0128501 0)
(0.206079 -0.0136843 0)
(0.228134 -0.013642 0)
(0.251998 -0.0125839 0)
(0.27748 -0.0108792 0)
(0.304542 -0.00890443 0)
(0.333331 -0.00688414 0)
(0.36386 -0.00489136 0)
(0.395944 -0.0028507 0)
(0.429292 -0.000597502 0)
(0.463643 0.00194946 0)
(0.498924 0.00493426 0)
(0.534334 0.00773744 0)
(-0.000114476 0.00171963 0)
(-0.000639274 0.00492813 0)
(-0.00174164 0.00792318 0)
(-0.00346654 0.0104677 0)
(-0.00577993 0.0126122 0)
(-0.00831631 0.0146536 0)
(-0.0114783 0.0161965 0)
(-0.014679 0.0175957 0)
(-0.0184731 0.018428 0)
(-0.0220757 0.0190988 0)
(-0.0262977 0.0191901 0)
(-0.0302043 0.0191719 0)
(-0.0347008 0.0185132 0)
(-0.0385644 0.0176883 0)
(-0.0429126 0.0163211 0)
(-0.0467245 0.0148164 0)
(-0.0507394 0.0128989 0)
(-0.0545549 0.0106805 0)
(-0.0580397 0.00831773 0)
(-0.0617358 0.00572685 0)
(-0.0644728 0.00280508 0)
(-0.0678219 -0.000617039 0)
(-0.0705916 -0.00407711 0)
(-0.0735937 -0.00773474 0)
(-0.0757998 -0.0113388 0)
(-0.077866 -0.0150249 0)
(-0.0794708 -0.0185995 0)
(-0.0804082 -0.0220388 0)
(-0.0811335 -0.0257195 0)
(-0.081634 -0.0293061 0)
(-0.0817464 -0.0324118 0)
(-0.0811546 -0.0349619 0)
(-0.080215 -0.037057 0)
(-0.0783629 -0.0387941 0)
(-0.0758852 -0.0402122 0)
(-0.0728152 -0.0412707 0)
(-0.0689245 -0.0419906 0)
(-0.0644923 -0.0423053 0)
(-0.0589762 -0.0423215 0)
(-0.0522857 -0.042233 0)
(-0.0461662 -0.0415597 0)
(-0.0388918 -0.0410419 0)
(-0.0321323 -0.040187 0)
(-0.0241388 -0.0397833 0)
(-0.0164863 -0.0387731 0)
(-0.00889597 -0.0379737 0)
(-0.000667797 -0.037701 0)
(0.00558039 -0.0368855 0)
(0.0150314 -0.0368451 0)
(0.0150328 -0.0365615 0)
(0.0235888 -0.0362246 0)
(0.0319012 -0.0359337 0)
(0.0383164 -0.0355865 0)
(0.0441132 -0.0350453 0)
(0.0494262 -0.0342715 0)
(0.0540816 -0.0332896 0)
(0.0581526 -0.0321678 0)
(0.0618106 -0.0308408 0)
(0.0653297 -0.0299202 0)
(0.0687213 -0.0291606 0)
(0.0711636 -0.0268617 0)
(0.0722922 -0.0242201 0)
(0.0728571 -0.0226637 0)
(0.0735206 -0.021624 0)
(0.0738436 -0.0209254 0)
(0.0734121 -0.0200322 0)
(0.072072 -0.0191388 0)
(0.0708255 -0.0184289 0)
(0.0692524 -0.0181752 0)
(0.0659667 -0.0175377 0)
(0.0620502 -0.016594 0)
(0.058039 -0.0158674 0)
(0.0537948 -0.0154953 0)
(0.0491112 -0.0155386 0)
(0.0440041 -0.015878 0)
(0.0386311 -0.0162297 0)
(0.0331483 -0.0164203 0)
(0.0276406 -0.0165222 0)
(0.0221617 -0.016739 0)
(0.0167581 -0.01723 0)
(0.0114612 -0.0180214 0)
(0.00632264 -0.0190282 0)
(0.00136508 -0.0201302 0)
(-0.00317441 -0.021226 0)
(-0.00750742 -0.0222551 0)
(-0.0109 -0.0232015 0)
(-0.0137234 -0.0240602 0)
(-0.0173627 -0.0248621 0)
(-0.0131788 -0.0256048 0)
(-0.0251433 -0.0262991 0)
(-0.00496941 -0.0270686 0)
(-0.0215861 -0.0277399 0)
(-0.00996906 -0.0285412 0)
(0.0143649 -0.0297427 0)
(0.0152848 -0.0307304 0)
(0.026728 -0.0316277 0)
(0.0446529 -0.033148 0)
(0.0626815 -0.0352802 0)
(0.0829136 -0.037571 0)
(0.105482 -0.03966 0)
(0.128901 -0.0412464 0)
(0.153092 -0.0422701 0)
(0.178814 -0.0430301 0)
(0.206708 -0.0437929 0)
(0.237077 -0.0445792 0)
(0.269916 -0.0452223 0)
(0.304994 -0.0454863 0)
(0.341935 -0.0451617 0)
(0.380316 -0.0441259 0)
(0.419951 -0.0424119 0)
(0.459875 -0.0400975 0)
(0.50325 -0.0372168 0)
(-0.000117305 0.00206532 0)
(-0.00063502 0.0059349 0)
(-0.00176494 0.00950086 0)
(-0.00348786 0.0126316 0)
(-0.00571266 0.0153917 0)
(-0.0083534 0.0177955 0)
(-0.0113763 0.019825 0)
(-0.0147247 0.0214326 0)
(-0.0183772 0.0225923 0)
(-0.022168 0.0233714 0)
(-0.026241 0.0236439 0)
(-0.030334 0.023593 0)
(-0.0345233 0.0231248 0)
(-0.0387057 0.0222417 0)
(-0.042782 0.0210013 0)
(-0.0468906 0.01933 0)
(-0.0508617 0.0172846 0)
(-0.0547619 0.0148513 0)
(-0.0584047 0.0121733 0)
(-0.0619295 0.00917778 0)
(-0.065123 0.00584276 0)
(-0.0680931 0.00225381 0)
(-0.0708827 -0.00147915 0)
(-0.073351 -0.00528831 0)
(-0.0754628 -0.00917744 0)
(-0.0772722 -0.0131308 0)
(-0.0787314 -0.0170798 0)
(-0.0797924 -0.021 0)
(-0.0804792 -0.0248874 0)
(-0.0808219 -0.0285954 0)
(-0.080794 -0.031986 0)
(-0.0802867 -0.0350144 0)
(-0.079218 -0.0377029 0)
(-0.0775739 -0.0400859 0)
(-0.0753747 -0.0421332 0)
(-0.0726109 -0.0438189 0)
(-0.0692455 -0.0451545 0)
(-0.0652975 -0.0461864 0)
(-0.0607586 -0.0469331 0)
(-0.0557559 -0.0474702 0)
(-0.0503382 -0.0478017 0)
(-0.0446394 -0.0479147 0)
(-0.0383218 -0.0478429 0)
(-0.0317342 -0.0475357 0)
(-0.0249347 -0.0474035 0)
(-0.0177959 -0.046988 0)
(-0.0105751 -0.0463641 0)
(-0.00394387 -0.0454007 0)
(0.0036114 -0.0445454 0)
(0.0101771 -0.0430864 0)
(0.0169879 -0.0431157 0)
(0.022446 -0.0429673 0)
(0.0271127 -0.0419555 0)
(0.0318301 -0.0405829 0)
(0.0361367 -0.0389273 0)
(0.0400476 -0.0372818 0)
(0.0433763 -0.0355997 0)
(0.0458278 -0.0338489 0)
(0.0493121 -0.0320181 0)
(0.0465329 -0.030058 0)
(0.0460965 -0.0279395 0)
(0.055406 -0.0257605 0)