/*--------------------------------*- C++ -*----------------------------------*\
| =========                 |                                                 |
| \\      /  F ield         | OpenFOAM: The Open Source CFD Toolbox           |
|  \\    /   O peration     | Version:  2206                                  |
|   \\  /    A nd           | Website:  www.openfoam.com                      |
|    \\/     M anipulation  |                                                 |
\*---------------------------------------------------------------------------*/
FoamFile
{
    version     2.0;
    format      ascii;
    arch        "LSB;label=32;scalar=64";
    class       volVectorField;
    location    "18.0999";
    object      U_0;
}
// * * * * * * * * * * * * * * * * * * * * * * * * * * * * * * * * * * * * * //

dimensions      [0 1 -1 0 0 0 0];

internalField   nonuniform List<vector> 
3080
(
(1.80674 0.233713 0)
(1.79333 0.226685 0)
(1.77945 0.216379 0)
(1.76563 0.203171 0)
(1.75233 0.187328 0)
(1.7399 0.169011 0)
(1.72863 0.148317 0)
(1.71872 0.125339 0)
(1.71034 0.100206 0)
(1.70361 0.0731242 0)
(1.69863 0.0444079 0)
(1.69547 0.0145255 0)
(1.69415 -0.0158045 0)
(1.69462 -0.0457375 0)
(1.69678 -0.0746051 0)
(1.70048 -0.101752 0)
(1.70553 -0.126575 0)
(1.71171 -0.148561 0)
(1.71876 -0.167329 0)
(1.72644 -0.182644 0)
(1.73448 -0.194418 0)
(1.7427 -0.202665 0)
(1.75109 -0.207367 0)
(1.75977 -0.208244 0)
(1.76853 -0.205011 0)
(1.7773 -0.197664 0)
(1.78595 -0.186314 0)
(1.79434 -0.171183 0)
(1.80242 -0.152554 0)
(1.81014 -0.130746 0)
(1.81748 -0.106124 0)
(1.82439 -0.0791069 0)
(1.8308 -0.0502186 0)
(1.83657 -0.0202022 0)
(1.84143 0.00984292 0)
(1.8452 0.0390145 0)
(1.84773 0.0665276 0)
(1.84886 0.0917538 0)
(1.84854 0.114331 0)
(1.84685 0.133907 0)
(1.84379 0.150137 0)
(1.83948 0.162898 0)
(1.83398 0.172191 0)
(1.82719 0.178019 0)
(1.8191 0.180309 0)
(1.81002 0.179238 0)
(1.8002 0.175138 0)
(1.79001 0.168253 0)
(1.77984 0.158822 0)
(1.77001 0.147069 0)
(1.7608 0.133173 0)
(1.75242 0.117286 0)
(1.74504 0.0995599 0)
(1.73878 0.0801667 0)
(1.73373 0.0593192 0)
(1.72996 0.0372918 0)
(1.72752 0.0144558 0)
(1.72642 -0.00863615 0)
(1.72663 -0.0313958 0)
(1.72808 -0.0533447 0)
(1.73068 -0.0740154 0)
(1.7343 -0.0929779 0)
(1.73878 -0.109864 0)
(1.74397 -0.124391 0)
(1.74967 -0.136372 0)
(1.75571 -0.145721 0)
(1.76193 -0.15243 0)
(1.76829 -0.156491 0)
(1.7749 -0.157744 0)
(1.78162 -0.155958 0)
(1.78839 -0.151099 0)
(1.79511 -0.143217 0)
(1.80164 -0.132453 0)
(1.80791 -0.119017 0)
(1.81386 -0.103155 0)
(1.81943 -0.0851581 0)
(1.82457 -0.0653575 0)
(1.82923 -0.0441485 0)
(1.83329 -0.0220386 0)
(1.83662 0.000238863 0)
(1.8391 0.0220674 0)
(1.84065 0.0429842 0)
(1.84111 0.0625586 0)
(1.84094 0.0803287 0)
(1.83965 0.0959367 0)
(1.83718 0.109171 0)
(1.83384 0.119944 0)
(1.82965 0.128195 0)
(1.82467 0.13391 0)
(1.81884 0.137053 0)
(1.8123 0.137595 0)
(1.80525 0.135693 0)
(1.79789 0.131479 0)
(1.79048 0.12508 0)
(1.78328 0.116656 0)
(1.77648 0.106369 0)
(1.77025 0.0943755 0)
(1.76472 0.0808393 0)
(1.75999 0.0659379 0)
(1.75612 0.0498725 0)
(1.75319 0.0328817 0)
(1.75122 0.0152667 0)
(1.75023 -0.00254415 0)
(1.75021 -0.0201103 0)
(1.75111 -0.0370806 0)
(1.75286 -0.0531164 0)
(1.75539 -0.0679038 0)
(1.75859 -0.0811701 0)
(1.76235 -0.0926992 0)
(1.76652 -0.102343 0)
(1.771 -0.110027 0)
(1.77566 -0.115736 0)
(1.78044 -0.119476 0)
(1.7854 -0.121173 0)
(1.79052 -0.120649 0)
(1.79568 -0.117856 0)
(1.80084 -0.112807 0)
(1.8059 -0.105626 0)
(1.81077 -0.0963585 0)
(1.8153 -0.0856676 0)
(1.81984 -0.0716424 0)
(1.82325 -0.0603058 0)
(1.82821 -0.0358433 0)
(1.81115 0.245141 0)
(1.80059 0.238937 0)
(1.78933 0.228961 0)
(1.77792 0.215601 0)
(1.7668 0.199203 0)
(1.75631 0.180004 0)
(1.74675 0.158173 0)
(1.73834 0.133862 0)
(1.73123 0.107247 0)
(1.72556 0.0785685 0)
(1.72143 0.0481719 0)
(1.7189 0.0165604 0)
(1.71799 -0.0154863 0)
(1.71864 -0.0470554 0)
(1.72074 -0.0774377 0)
(1.72416 -0.105935 0)
(1.72871 -0.131903 0)
(1.7342 -0.154799 0)
(1.74036 -0.174218 0)
(1.74697 -0.189933 0)
(1.75376 -0.201898 0)
(1.76051 -0.210213 0)
(1.76718 -0.215003 0)
(1.77405 -0.216046 0)
(1.78093 -0.212871 0)
(1.78774 -0.205418 0)
(1.79437 -0.193849 0)
(1.80072 -0.178434 0)
(1.80679 -0.159488 0)
(1.81257 -0.137352 0)
(1.81809 -0.112391 0)
(1.82334 -0.0850071 0)
(1.82832 -0.0556848 0)
(1.83294 -0.0250851 0)
(1.83703 0.00577346 0)
(1.84039 0.035921 0)
(1.84286 0.0645992 0)
(1.8443 0.0911406 0)
(1.8446 0.115017 0)
(1.84375 0.135795 0)
(1.8418 0.153167 0)
(1.83881 0.167025 0)
(1.83494 0.177365 0)
(1.83026 0.184257 0)
(1.82451 0.187704 0)
(1.81775 0.187562 0)
(1.81019 0.184071 0)
(1.80207 0.17745 0)
(1.79377 0.167936 0)
(1.78565 0.155805 0)
(1.77795 0.14129 0)
(1.77089 0.124591 0)
(1.76464 0.105906 0)
(1.75932 0.0854435 0)
(1.75503 0.0634429 0)
(1.75183 0.0402011 0)
(1.74979 0.0161134 0)
(1.7489 -0.00822617 0)
(1.74915 -0.0321825 0)
(1.75046 -0.0552496 0)
(1.75276 -0.0769316 0)
(1.75592 -0.0967718 0)
(1.75981 -0.114377 0)
(1.76426 -0.129448 0)
(1.76911 -0.141793 0)
(1.77417 -0.151347 0)
(1.77928 -0.158152 0)
(1.78436 -0.162302 0)
(1.78958 -0.163705 0)
(1.79489 -0.162021 0)
(1.80021 -0.157139 0)
(1.80545 -0.149117 0)
(1.8105 -0.138131 0)
(1.81528 -0.124413 0)
(1.81979 -0.108229 0)
(1.82401 -0.0898748 0)
(1.82792 -0.0696774 0)
(1.83149 -0.0480107 0)
(1.83466 -0.0253404 0)
(1.83731 -0.00233938 0)
(1.83933 0.0202813 0)
(1.84064 0.0419857 0)
(1.84115 0.0622751 0)
(1.84121 0.0808092 0)
(1.84051 0.0973328 0)
(1.83896 0.111493 0)
(1.83675 0.123079 0)
(1.83387 0.132053 0)
(1.83042 0.138443 0)
(1.8264 0.142299 0)
(1.82166 0.143526 0)
(1.81639 0.142082 0)
(1.81068 0.138101 0)
(1.80477 0.131689 0)
(1.79893 0.123036 0)
(1.79334 0.112341 0)
(1.78817 0.0997933 0)
(1.78354 0.0855898 0)
(1.77954 0.069934 0)
(1.77626 0.0530477 0)
(1.77374 0.0351869 0)
(1.77204 0.0166704 0)
(1.77116 -0.00204626 0)
(1.77111 -0.0204878 0)
(1.77184 -0.0382847 0)
(1.7733 -0.0550801 0)
(1.77541 -0.0705395 0)
(1.77809 -0.0843709 0)
(1.78122 -0.0963433 0)
(1.7847 -0.106305 0)
(1.78839 -0.114191 0)
(1.79218 -0.120013 0)
(1.79597 -0.123835 0)
(1.79985 -0.125654 0)
(1.80386 -0.125245 0)
(1.80791 -0.12248 0)
(1.81194 -0.11736 0)
(1.81586 -0.110026 0)
(1.8196 -0.100536 0)
(1.82304 -0.0895961 0)
(1.82644 -0.0752541 0)
(1.82901 -0.0636666 0)
(1.83265 -0.0385151 0)
(1.81213 0.253765 0)
(1.80458 0.248562 0)
(1.7961 0.239074 0)
(1.78729 0.22572 0)
(1.77858 0.208948 0)
(1.77029 0.189065 0)
(1.76269 0.166304 0)
(1.75601 0.140874 0)
(1.75042 0.112993 0)
(1.74603 0.0829396 0)
(1.74295 0.0510914 0)
(1.74121 0.0179902 0)
(1.74084 -0.0155194 0)
(1.74175 -0.0484682 0)
(1.74383 -0.0801126 0)
(1.74696 -0.109717 0)
(1.75096 -0.136609 0)
(1.75566 -0.160213 0)
(1.76085 -0.180096 0)
(1.76628 -0.196025 0)
(1.77173 -0.207981 0)
(1.77694 -0.216147 0)
(1.78181 -0.220819 0)
(1.78675 -0.221919 0)
(1.79168 -0.218759 0)
(1.79645 -0.211133 0)
(1.80093 -0.199299 0)
(1.80512 -0.183609 0)
(1.80906 -0.164416 0)
(1.81283 -0.142058 0)
(1.81649 -0.116897 0)
(1.82006 -0.0893295 0)
(1.82356 -0.0598087 0)
(1.82695 -0.0289253 0)
(1.83013 0.00241236 0)
(1.83292 0.0331743 0)
(1.83519 0.0626187 0)
(1.8368 0.0900631 0)
(1.83764 0.11492 0)
(1.83765 0.136701 0)
(1.8368 0.155044 0)
(1.83512 0.169749 0)
(1.83271 0.180819 0)
(1.82973 0.188407 0)
(1.82628 0.192706 0)
(1.82188 0.193584 0)
(1.81667 0.190877 0)
(1.81075 0.184691 0)
(1.8045 0.175253 0)
(1.79826 0.162908 0)
(1.79226 0.147947 0)
(1.78671 0.130613 0)
(1.78177 0.111147 0)
(1.77757 0.0897944 0)
(1.77419 0.0668232 0)
(1.77172 0.0425533 0)
(1.77019 0.0174053 0)
(1.76962 -0.00798589 0)
(1.76996 -0.0329457 0)
(1.77117 -0.0569443 0)
(1.77316 -0.0794624 0)
(1.77583 -0.10002 0)
(1.77907 -0.118203 0)
(1.78273 -0.133689 0)
(1.78665 -0.146275 0)
(1.79068 -0.155902 0)
(1.79464 -0.162656 0)
(1.79838 -0.166738 0)
(1.80215 -0.168207 0)
(1.806 -0.166619 0)
(1.80983 -0.161687 0)
(1.81352 -0.153498 0)
(1.81699 -0.142284 0)
(1.82023 -0.128316 0)
(1.82324 -0.111886 0)
(1.82605 -0.0932882 0)
(1.8287 -0.0728388 0)
(1.83117 -0.0508957 0)
(1.83345 -0.0278908 0)
(1.83546 -0.00442243 0)
(1.83712 0.0187399 0)
(1.83837 0.0410291 0)
(1.83913 0.0619253 0)
(1.83931 0.0810707 0)
(1.83891 0.0981688 0)
(1.83807 0.112906 0)
(1.8367 0.12507 0)
(1.8349 0.134577 0)
(1.83277 0.141419 0)
(1.83038 0.145709 0)
(1.82752 0.147559 0)
(1.82405 0.146707 0)
(1.82007 0.143118 0)
(1.81576 0.136835 0)
(1.8114 0.128094 0)
(1.80717 0.11714 0)
(1.80319 0.104197 0)
(1.79959 0.0894868 0)
(1.79647 0.0732367 0)
(1.79388 0.055689 0)
(1.79189 0.0371181 0)
(1.79055 0.0178597 0)
(1.78986 -0.00160693 0)
(1.78982 -0.0207732 0)
(1.7904 -0.0392547 0)
(1.79156 -0.0566771 0)
(1.79323 -0.0726891 0)
(1.79535 -0.0869806 0)
(1.79782 -0.0993056 0)
(1.80055 -0.109501 0)
(1.80341 -0.117504 0)
(1.80631 -0.123344 0)
(1.80911 -0.12714 0)
(1.81186 -0.129 0)
(1.81475 -0.128702 0)
(1.81765 -0.125968 0)
(1.82053 -0.120763 0)
(1.82327 -0.113271 0)
(1.82583 -0.103573 0)
(1.82814 -0.092399 0)
(1.83035 -0.0778196 0)
(1.83201 -0.066022 0)
(1.83428 -0.040316 0)
(1.80993 0.259147 0)
(1.80535 0.254998 0)
(1.79964 0.246179 0)
(1.79354 0.233088 0)
(1.78744 0.216201 0)
(1.78156 0.19589 0)
(1.77617 0.172453 0)
(1.77145 0.14615 0)
(1.76758 0.117249 0)
(1.76467 0.0860676 0)
(1.7628 0.0530209 0)
(1.76202 0.0186944 0)
(1.7623 -0.0159914 0)
(1.76356 -0.0500254 0)
(1.76567 -0.0826344 0)
(1.7685 -0.113054 0)
(1.77189 -0.140601 0)
(1.7757 -0.164678 0)
(1.77975 -0.184833 0)
(1.78389 -0.200812 0)
(1.78791 -0.212601 0)
(1.79158 -0.220452 0)
(1.79463 -0.224828 0)
(1.7975 -0.225921 0)
(1.8004 -0.22261 0)
(1.80306 -0.214662 0)
(1.80524 -0.202492 0)
(1.80718 -0.186561 0)
(1.80901 -0.167219 0)
(1.81079 -0.144789 0)
(1.81258 -0.119612 0)
(1.81444 -0.0920609 0)
(1.81642 -0.0625618 0)
(1.81853 -0.0316589 0)
(1.82072 -0.000166962 0)
(1.82286 0.030867 0)
(1.82484 0.0607129 0)
(1.82654 0.0886856 0)
(1.82782 0.11417 0)
(1.82859 0.136644 0)
(1.8288 0.155708 0)
(1.8284 0.171113 0)
(1.82745 0.182772 0)
(1.82606 0.190774 0)
(1.82444 0.195433 0)
(1.82242 0.197132 0)
(1.81952 0.195257 0)
(1.81578 0.189587 0)
(1.81163 0.180384 0)
(1.80741 0.168024 0)
(1.80328 0.152826 0)
(1.79941 0.135078 0)
(1.79596 0.115054 0)
(1.79305 0.0930317 0)
(1.79076 0.0693063 0)
(1.78915 0.0442237 0)
(1.78828 0.0182332 0)
(1.78813 -0.00798671 0)
(1.78866 -0.0337263 0)
(1.78981 -0.0584367 0)
(1.7915 -0.0815819 0)
(1.79365 -0.102668 0)
(1.79616 -0.121266 0)
(1.79893 -0.137034 0)
(1.80184 -0.149752 0)
(1.80478 -0.159355 0)
(1.80757 -0.165956 0)
(1.81 -0.169844 0)
(1.81222 -0.17129 0)
(1.81458 -0.169747 0)
(1.8169 -0.164687 0)
(1.81895 -0.156274 0)
(1.82074 -0.144835 0)
(1.8224 -0.130674 0)
(1.82396 -0.114071 0)
(1.82544 -0.0953412 0)
(1.82684 -0.0747906 0)
(1.82821 -0.0527504 0)
(1.82954 -0.0296257 0)
(1.83083 -0.00598836 0)
(1.83202 0.0174088 0)
(1.83306 0.0400181 0)
(1.83386 0.0613519 0)
(1.83435 0.0809847 0)
(1.83451 0.0985387 0)
(1.83432 0.11369 0)
(1.8338 0.126203 0)
(1.83298 0.135968 0)
(1.83196 0.143043 0)
(1.83085 0.147575 0)
(1.8297 0.149774 0)
(1.82805 0.1496 0)
(1.82579 0.146398 0)
(1.82306 0.140322 0)
(1.82024 0.131627 0)
(1.81746 0.120547 0)
(1.8148 0.107354 0)
(1.81236 0.0923091 0)
(1.81023 0.0756453 0)
(1.80846 0.0576202 0)
(1.80712 0.0385251 0)
(1.80624 0.0187124 0)
(1.80583 -0.00131789 0)
(1.80588 -0.021027 0)
(1.80637 -0.0400172 0)
(1.80724 -0.0579036 0)
(1.80846 -0.0743245 0)
(1.80998 -0.0889576 0)
(1.81173 -0.101542 0)
(1.81365 -0.111899 0)
(1.81565 -0.119955 0)
(1.81764 -0.125749 0)
(1.81948 -0.129436 0)
(1.82108 -0.131257 0)
(1.82282 -0.131057 0)
(1.82461 -0.128303 0)
(1.8263 -0.122969 0)
(1.82779 -0.115316 0)
(1.82912 -0.10545 0)
(1.83031 -0.0940902 0)
(1.83146 -0.0792685 0)
(1.83221 -0.0672844 0)
(1.83317 -0.0412451 0)
(1.80463 0.261357 0)
(1.80289 0.259246 0)
(1.80004 0.250829 0)
(1.79676 0.237909 0)
(1.79337 0.220962 0)
(1.79003 0.200351 0)
(1.78698 0.176418 0)
(1.78438 0.149464 0)
(1.78239 0.119784 0)
(1.78111 0.0877313 0)
(1.78062 0.0537581 0)
(1.78092 0.0184999 0)
(1.78198 -0.0170387 0)
(1.78367 -0.0518197 0)
(1.78587 -0.0850424 0)
(1.78843 -0.115927 0)
(1.79119 -0.143803 0)
(1.79401 -0.168076 0)
(1.79678 -0.188287 0)
(1.79939 -0.204155 0)
(1.80177 -0.215629 0)
(1.80377 -0.222935 0)
(1.80524 -0.22659 0)
(1.80621 -0.227391 0)
(1.8069 -0.224487 0)
(1.8071 -0.215944 0)
(1.80707 -0.203479 0)
(1.80686 -0.18739 0)
(1.80646 -0.167985 0)
(1.80611 -0.145585 0)
(1.80596 -0.120524 0)
(1.80609 -0.0931577 0)
(1.80657 -0.0638896 0)
(1.80743 -0.0332257 0)
(1.80866 -0.00191036 0)
(1.81016 0.0290601 0)
(1.81184 0.0589542 0)
(1.81356 0.0870968 0)
(1.81523 0.112866 0)
(1.81671 0.13572 0)
(1.81793 0.155231 0)
(1.81882 0.171104 0)
(1.81937 0.183199 0)
(1.8196 0.191551 0)
(1.81961 0.196382 0)
(1.8194 0.198176 0)
(1.81869 0.197729 0)
(1.8172 0.192604 0)
(1.81525 0.183605 0)
(1.81314 0.1713 0)
(1.81096 0.155977 0)
(1.80888 0.137944 0)
(1.80703 0.117519 0)
(1.80552 0.095008 0)
(1.80443 0.0707275 0)
(1.80381 0.0450456 0)
(1.8037 0.0184415 0)
(1.80407 -0.0083568 0)
(1.80486 -0.0346183 0)
(1.80602 -0.0597796 0)
(1.80744 -0.0832954 0)
(1.80906 -0.104674 0)
(1.81079 -0.123483 0)
(1.81257 -0.139375 0)
(1.81432 -0.152113 0)
(1.81599 -0.161601 0)
(1.81752 -0.16793 0)
(1.81874 -0.171409 0)
(1.81969 -0.17254 0)
(1.82048 -0.17138 0)
(1.82109 -0.165996 0)
(1.82144 -0.157328 0)
(1.82169 -0.14575 0)
(1.82175 -0.131521 0)
(1.82179 -0.114892 0)
(1.82184 -0.0961473 0)
(1.82196 -0.0756013 0)
(1.82221 -0.0535926 0)
(1.82261 -0.0305166 0)
(1.82318 -0.00690681 0)
(1.82388 0.016505 0)
(1.82467 0.0391767 0)
(1.82548 0.0606374 0)
(1.82625 0.0804515 0)
(1.82694 0.0982284 0)
(1.82749 0.113636 0)
(1.82789 0.126419 0)
(1.82813 0.136417 0)
(1.82823 0.143599 0)
(1.82823 0.148086 0)
(1.82816 0.150184 0)
(1.82803 0.150522 0)
(1.82754 0.148247 0)
(1.82655 0.1423 0)
(1.82553 0.133691 0)
(1.82431 0.122613 0)
(1.82303 0.109323 0)
(1.82182 0.0940876 0)
(1.82074 0.0771568 0)
(1.81986 0.0588103 0)
(1.81923 0.0393586 0)
(1.81887 0.0191672 0)
(1.8188 -0.00124002 0)
(1.819 -0.0213002 0)
(1.81943 -0.0406051 0)
(1.82005 -0.058766 0)
(1.82082 -0.0754209 0)
(1.82171 -0.0902446 0)
(1.82268 -0.102973 0)
(1.82371 -0.113421 0)
(1.82475 -0.121501 0)
(1.82576 -0.127208 0)
(1.82666 -0.13067 0)
(1.82732 -0.132194 0)
(1.82795 -0.132172 0)
(1.82853 -0.129464 0)
(1.82896 -0.123894 0)
(1.82936 -0.116084 0)
(1.8295 -0.106113 0)
(1.82955 -0.0946719 0)
(1.8295 -0.0797387 0)
(1.82938 -0.0676456 0)
(1.82913 -0.0414481 0)
(1.82665 -0.105669 0)
(1.82543 -0.0940782 0)
(1.82411 -0.0790718 0)
(1.82304 -0.0669551 0)
(1.82151 -0.0407974 0)
(0.152567 0.000304078 0)
(0.151987 0.000310193 0)
(0.151393 0.000310032 0)
(0.150801 0.000302024 0)
(0.15023 0.000284623 0)
(0.149701 0.0002577 0)
(0.149237 0.000220861 0)
(0.148858 0.000174792 0)
(0.148587 0.000120776 0)
(0.14844 6.09901e-05 0)
(0.14842 -1.18317e-05 0)
(0.148532 -8.17831e-05 0)
(0.148782 -0.000147401 0)
(0.149163 -0.000208325 0)
(0.149669 -0.000263408 0)
(0.150285 -0.00031177 0)
(0.150998 -0.000352455 0)
(0.15179 -0.0003845 0)
(0.152641 -0.000406968 0)
(0.153531 -0.00041924 0)
(0.154436 -0.000420618 0)
(0.155333 -0.000410886 0)
(0.156196 -0.000390672 0)
(0.157004 -0.000361179 0)
(0.15774 -0.000324073 0)
(0.158387 -0.000281148 0)
(0.158936 -0.000234626 0)
(0.15938 -0.000186351 0)
(0.159718 -0.000138135 0)
(0.159953 -9.16506e-05 0)
(0.160087 -4.80821e-05 0)
(0.160131 -4.62847e-06 0)
(0.160096 3.62585e-05 0)
(0.15999 7.12564e-05 0)
(0.159819 0.000101937 0)
(0.15959 0.000129053 0)
(0.159309 0.000153393 0)
(0.158981 0.000175742 0)
(0.158609 0.000196784 0)
(0.158195 0.000216976 0)
(0.157739 0.000236501 0)
(0.157243 0.000255181 0)
(0.156708 0.000272588 0)
(0.156137 0.000288137 0)
(0.155533 0.000301212 0)
(0.154903 0.00031099 0)
(0.154254 0.000316466 0)
(0.153596 0.000316502 0)
(0.152943 0.000310277 0)
(0.152309 0.000296851 0)
(0.151708 0.000276084 0)
(0.151158 0.000247921 0)
(0.150674 0.000212465 0)
(0.150273 0.000170338 0)
(0.149969 0.000122409 0)
(0.149775 6.98133e-05 0)
(0.149696 1.08966e-05 0)
(0.149733 -5.40577e-05 0)
(0.149886 -0.000113417 0)
(0.150156 -0.000168025 0)
(0.150535 -0.000217194 0)
(0.151013 -0.000259968 0)
(0.151575 -0.000295281 0)
(0.152205 -0.000322193 0)
(0.152885 -0.000340121 0)
(0.153595 -0.000349058 0)
(0.154316 -0.000349268 0)
(0.155027 -0.000341158 0)
(0.155713 -0.000325485 0)
(0.156357 -0.000303235 0)
(0.156946 -0.000275569 0)
(0.157471 -0.000243633 0)
(0.157922 -0.00020892 0)
(0.158295 -0.000172551 0)
(0.158588 -0.000135562 0)
(0.158799 -9.91617e-05 0)
(0.158931 -6.417e-05 0)
(0.158986 -2.89385e-05 0)
(0.158972 9.7179e-06 0)
(0.158895 4.33045e-05 0)
(0.158755 7.41388e-05 0)
(0.158557 0.00010257 0)
(0.158303 0.000128981 0)
(0.157997 0.000153687 0)
(0.157643 0.000176785 0)
(0.157241 0.000198172 0)
(0.156797 0.000217681 0)
(0.156313 0.000235034 0)
(0.155794 0.000249769 0)
(0.155246 0.000261341 0)
(0.154677 0.000269188 0)
(0.154093 0.00027268 0)
(0.153506 0.00027108 0)
(0.152927 0.000263929 0)
(0.152368 0.000251117 0)
(0.151842 0.000232544 0)
(0.151361 0.000208201 0)
(0.150938 0.000178282 0)
(0.150584 0.000143304 0)
(0.15031 0.000104066 0)
(0.150126 6.15321e-05 0)
(0.150039 1.5637e-05 0)
(0.150047 -3.83565e-05 0)
(0.150152 -8.87695e-05 0)
(0.150354 -0.000135455 0)
(0.150651 -0.000178204 0)
(0.151034 -0.000216372 0)
(0.151495 -0.000249271 0)
(0.152022 -0.000276229 0)
(0.152602 -0.000296733 0)
(0.153222 -0.000310547 0)
(0.153867 -0.000317517 0)
(0.154522 -0.000317648 0)
(0.155174 -0.000311129 0)
(0.155809 -0.000298448 0)
(0.156414 -0.000280087 0)
(0.156978 -0.000256669 0)
(0.157491 -0.000228751 0)
(0.157946 -0.000195849 0)
(0.15833 -0.00016066 0)
(0.158642 -0.000114566 0)
(0.158868 -7.09011e-05 0)
(0.158947 -6.89354e-06 0)
(0.440208 0.000820621 0)
(0.439745 0.000849601 0)
(0.439267 0.000856778 0)
(0.438792 0.000837618 0)
(0.438341 0.000788582 0)
(0.437934 0.000706594 0)
(0.437594 0.00059218 0)
(0.437343 0.00044793 0)
(0.437201 0.00027724 0)
(0.437182 8.17123e-05 0)
(0.437301 -0.000130028 0)
(0.437563 -0.000342647 0)
(0.437961 -0.000547261 0)
(0.438488 -0.000738371 0)
(0.439133 -0.000911427 0)
(0.439882 -0.00106243 0)
(0.440718 -0.00118783 0)
(0.441625 -0.00128456 0)
(0.44258 -0.00134995 0)
(0.443562 -0.00138137 0)
(0.444545 -0.00137691 0)
(0.445504 -0.00133609 0)
(0.446415 -0.00126101 0)
(0.447254 -0.00115605 0)
(0.448003 -0.00102683 0)
(0.448648 -0.000880255 0)
(0.449179 -0.000722758 0)
(0.449591 -0.00056083 0)
(0.449885 -0.000400757 0)
(0.450064 -0.000248199 0)
(0.450139 -0.000106016 0)
(0.450117 2.75441e-05 0)
(0.450006 0.000147226 0)
(0.44982 0.000252291 0)
(0.44957 0.000344282 0)
(0.449264 0.000425483 0)
(0.448909 0.0004983 0)
(0.448509 0.000565099 0)
(0.448069 0.000627881 0)
(0.44759 0.000688024 0)
(0.447073 0.000746083 0)
(0.44652 0.00080181 0)
(0.445932 0.00085419 0)
(0.445311 0.000901436 0)
(0.444662 0.000940883 0)
(0.443992 0.000969412 0)
(0.443308 0.000983925 0)
(0.442621 0.000981515 0)
(0.441946 0.00095916 0)
(0.441296 0.000914399 0)
(0.440688 0.000845877 0)
(0.440139 0.000753522 0)
(0.439666 0.000638334 0)
(0.439283 0.000502301 0)
(0.439005 0.0003481 0)
(0.43884 0.000179898 0)
(0.438796 -1.53049e-06 0)
(0.438883 -0.000187586 0)
(0.439096 -0.000366861 0)
(0.439427 -0.000534488 0)
(0.439865 -0.000686525 0)
(0.4404 -0.000818901 0)
(0.441015 -0.000927535 0)
(0.441691 -0.00100887 0)
(0.442409 -0.00106085 0)
(0.443145 -0.00108301 0)
(0.443878 -0.00107622 0)
(0.444589 -0.0010425 0)
(0.44526 -0.00098473 0)
(0.445874 -0.000906161 0)
(0.446418 -0.000810544 0)
(0.446883 -0.000701876 0)
(0.44726 -0.000584239 0)
(0.447547 -0.000462194 0)
(0.447742 -0.000339902 0)
(0.447846 -0.000220179 0)
(0.447864 -0.000103346 0)
(0.447801 8.29265e-06 0)
(0.44766 0.000116132 0)
(0.447447 0.000216015 0)
(0.447171 0.000307986 0)
(0.446836 0.000393116 0)
(0.446447 0.0004723 0)
(0.446009 0.000546211 0)
(0.445524 0.000615188 0)
(0.444996 0.000679147 0)
(0.444429 0.000737461 0)
(0.443827 0.000788954 0)
(0.443196 0.000832045 0)
(0.442542 0.000864919 0)
(0.441873 0.000885693 0)
(0.441199 0.000892552 0)
(0.440529 0.000883739 0)
(0.439877 0.00085755 0)
(0.439255 0.000812862 0)
(0.438676 0.000749382 0)
(0.438152 0.000667707 0)
(0.437697 0.00056904 0)
(0.437322 0.00045512 0)
(0.437037 0.000328071 0)
(0.436848 0.000190003 0)
(0.436759 4.18045e-05 0)
(0.43678 -0.000114907 0)
(0.436911 -0.000267542 0)
(0.437145 -0.000412796 0)
(0.437476 -0.000547494 0)
(0.437894 -0.000668559 0)
(0.43839 -0.000773174 0)
(0.43895 -0.000859073 0)
(0.439561 -0.00092465 0)
(0.440208 -0.000968896 0)
(0.440875 -0.000991423 0)
(0.441546 -0.00099238 0)
(0.442207 -0.000972576 0)
(0.442845 -0.000933488 0)
(0.443446 -0.000877281 0)
(0.444001 -0.000805608 0)
(0.4445 -0.000721253 0)
(0.444934 -0.000624223 0)
(0.445308 -0.000517067 0)
(0.445586 -0.0003975 0)
(0.445834 -0.000272574 0)
(0.445896 -3.9671e-05 0)
(0.711082 0.00120738 0)
(0.710536 0.00125774 0)
(0.709969 0.00127163 0)
(0.7094 0.00124076 0)
(0.708853 0.00115925 0)
(0.708351 0.00102291 0)
(0.707921 0.000830438 0)
(0.70759 0.000586069 0)
(0.707379 0.000296574 0)
(0.707307 -2.88318e-05 0)
(0.707391 -0.000366394 0)
(0.707633 -0.000706146 0)
(0.708027 -0.00103474 0)
(0.708561 -0.00134062 0)
(0.709221 -0.0016162 0)
(0.709991 -0.00185585 0)
(0.710854 -0.00205466 0)
(0.711788 -0.00220777 0)
(0.712773 -0.00231023 0)
(0.713784 -0.00235699 0)
(0.714792 -0.00234355 0)
(0.715771 -0.00226816 0)
(0.716692 -0.0021339 0)
(0.71753 -0.00194807 0)
(0.718264 -0.00172117 0)
(0.718879 -0.00146387 0)
(0.719366 -0.00118786 0)
(0.71972 -0.000905316 0)
(0.719943 -0.000627523 0)
(0.72004 -0.000361954 0)
(0.720022 -0.00011354 0)
(0.719902 0.000107813 0)
(0.719695 0.000302201 0)
(0.719411 0.000472798 0)
(0.719065 0.000621876 0)
(0.718665 0.000752765 0)
(0.718221 0.000869581 0)
(0.717736 0.000976552 0)
(0.717216 0.0010774 0)
(0.71666 0.00117484 0)
(0.716069 0.00127016 0)
(0.715442 0.00136304 0)
(0.714781 0.00145155 0)
(0.714085 0.00153228 0)
(0.713359 0.00160061 0)
(0.712608 0.00165108 0)
(0.711839 0.00167796 0)
(0.711064 0.00167551 0)
(0.710297 0.00163876 0)
(0.709553 0.00156358 0)
(0.708849 0.00144714 0)
(0.708205 0.00128901 0)
(0.707638 0.00109084 0)
(0.707166 0.000856457 0)
(0.706805 0.000591873 0)
(0.706566 0.00030224 0)
(0.706458 -3.60467e-06 0)
(0.706486 -0.000311194 0)
(0.70665 -0.000610199 0)
(0.70694 -0.000892636 0)
(0.707347 -0.00115012 0)
(0.707857 -0.00137469 0)
(0.708454 -0.00155845 0)
(0.709117 -0.00169426 0)
(0.709824 -0.00177782 0)
(0.71055 -0.00180853 0)
(0.711268 -0.00178859 0)
(0.71196 -0.00172186 0)
(0.712606 -0.00161313 0)
(0.713189 -0.00146831 0)
(0.713695 -0.00129407 0)
(0.714113 -0.00109835 0)
(0.714436 -0.000888147 0)
(0.714661 -0.000670208 0)
(0.714785 -0.000450901 0)
(0.714811 -0.000235291 0)
(0.714744 -3.05821e-05 0)
(0.714592 0.000160174 0)
(0.714362 0.000335648 0)
(0.714059 0.000498451 0)
(0.713692 0.000649228 0)
(0.713266 0.0007889 0)
(0.712787 0.000918809 0)
(0.712257 0.00104019 0)
(0.711682 0.00115372 0)
(0.711062 0.00125925 0)
(0.710403 0.00135568 0)
(0.709707 0.00144096 0)
(0.708978 0.00151229 0)
(0.708225 0.00156644 0)
(0.707453 0.00159995 0)
(0.706672 0.00160931 0)
(0.705894 0.00159109 0)
(0.705132 0.0015424 0)
(0.704398 0.00146153 0)
(0.703706 0.00134807 0)
(0.703072 0.00120276 0)
(0.702509 0.00102754 0)
(0.702029 0.000825516 0)
(0.701643 0.000600857 0)
(0.701361 0.000358259 0)
(0.701187 0.000102888 0)
(0.701128 -0.000158316 0)
(0.701186 -0.000416468 0)
(0.701356 -0.000663002 0)
(0.70163 -0.000892497 0)
(0.701999 -0.00109903 0)
(0.702452 -0.00127736 0)
(0.702973 -0.00142333 0)
(0.703549 -0.00153397 0)
(0.704162 -0.00160751 0)
(0.704796 -0.00164333 0)
(0.705433 -0.00164176 0)
(0.706058 -0.00160466 0)
(0.706656 -0.00153499 0)
(0.707214 -0.00143658 0)
(0.707721 -0.00131342 0)
(0.70817 -0.00116903 0)
(0.708547 -0.00100673 0)
(0.708867 -0.000833024 0)
(0.709087 -0.000632124 0)
(0.709286 -0.000448142 0)
(0.709289 -9.04811e-05 0)
(0.963135 0.00186893 0)
(0.962264 0.00195958 0)
(0.961357 0.00199438 0)
(0.960439 0.00195984 0)
(0.959538 0.00184636 0)
(0.958685 0.00164851 0)
(0.957918 0.00136811 0)
(0.957271 0.00100771 0)
(0.956777 0.000577186 0)
(0.956462 9.41154e-05 0)
(0.956347 -0.000422653 0)
(0.956441 -0.000941891 0)
(0.956734 -0.00144136 0)
(0.957207 -0.00190813 0)
(0.95784 -0.00233034 0)
(0.958611 -0.00269752 0)
(0.959498 -0.00300042 0)
(0.96048 -0.00323063 0)
(0.96153 -0.0033804 0)
(0.96262 -0.0034419 0)
(0.963715 -0.00340844 0)
(0.964776 -0.00327862 0)
(0.965766 -0.00305875 0)
(0.966649 -0.00276155 0)
(0.9674 -0.00240458 0)
(0.967999 -0.0020048 0)
(0.968433 -0.00158013 0)
(0.968698 -0.00114757 0)
(0.968792 -0.000722562 0)
(0.968724 -0.000321018 0)
(0.968514 4.33471e-05 0)
(0.968177 0.000366379 0)
(0.967736 0.000647643 0)
(0.967207 0.000889835 0)
(0.96661 0.00109752 0)
(0.965957 0.00127674 0)
(0.96526 0.00143432 0)
(0.964527 0.00157714 0)
(0.963761 0.00171133 0)
(0.962964 0.00184144 0)
(0.962135 0.0019698 0)
(0.961272 0.00209627 0)
(0.960374 0.00221826 0)
(0.959441 0.00233084 0)
(0.958476 0.00242709 0)
(0.957484 0.00249889 0)
(0.956473 0.00253775 0)
(0.955456 0.0025351 0)
(0.95445 0.00248291 0)
(0.953472 0.00237434 0)
(0.952543 0.0022055 0)
(0.951685 0.00197519 0)
(0.950922 0.00168543 0)
(0.950274 0.00134072 0)
(0.94976 0.000949352 0)
(0.949394 0.000521428 0)
(0.949187 7.07886e-05 0)
(0.949148 -0.000384914 0)
(0.949272 -0.000824721 0)
(0.949548 -0.00123574 0)
(0.949962 -0.00160904 0)
(0.950499 -0.00193438 0)
(0.951138 -0.00220002 0)
(0.951857 -0.00239396 0)
(0.952624 -0.00250851 0)
(0.953407 -0.00254326 0)
(0.954176 -0.00250333 0)
(0.954907 -0.0023956 0)
(0.955577 -0.00222737 0)
(0.956168 -0.00200724 0)
(0.956663 -0.00174516 0)
(0.957049 -0.00145208 0)
(0.957321 -0.00113847 0)
(0.957472 -0.000813659 0)
(0.957501 -0.000486736 0)
(0.957412 -0.000170978 0)
(0.957216 0.000126927 0)
(0.956922 0.000404088 0)
(0.95654 0.00065904 0)
(0.95608 0.000892752 0)
(0.955551 0.00110694 0)
(0.95496 0.00130396 0)
(0.954313 0.00148641 0)
(0.953615 0.00165649 0)
(0.952869 0.00181552 0)
(0.952077 0.00196356 0)
(0.951242 0.00209924 0)
(0.950367 0.00221976 0)
(0.949458 0.00232113 0)
(0.948519 0.00239843 0)
(0.94756 0.00244634 0)
(0.94659 0.00245957 0)
(0.945623 0.00243303 0)
(0.944671 0.00236238 0)
(0.943752 0.00224492 0)
(0.942881 0.00208001 0)
(0.942075 0.00186873 0)
(0.941351 0.00161371 0)
(0.940723 0.00131947 0)
(0.940205 0.000991867 0)
(0.939806 0.000638096 0)
(0.939535 0.000265936 0)
(0.939397 -0.000115571 0)
(0.939394 -0.000494752 0)
(0.939522 -0.000855989 0)
(0.939772 -0.00119048 0)
(0.940131 -0.00149097 0)
(0.940586 -0.00174991 0)
(0.941119 -0.00196103 0)
(0.941711 -0.0021199 0)
(0.942344 -0.002224 0)
(0.942997 -0.00227237 0)
(0.94365 -0.00226559 0)
(0.944283 -0.00220668 0)
(0.94488 -0.00210062 0)
(0.945426 -0.00195309 0)
(0.945907 -0.0017707 0)
(0.946319 -0.00155996 0)
(0.946646 -0.00132329 0)
(0.946905 -0.00108229 0)
(0.947047 -0.000784128 0)
(0.947176 -0.000544312 0)
(0.947051 -7.34813e-05 0)
(1.18519 0.00291192 0)
(1.18375 0.00304916 0)
(1.18227 0.00311179 0)
(1.18078 0.00307757 0)
(1.17932 0.00293032 0)
(1.17794 0.00266104 0)
(1.17667 0.00226389 0)
(1.17557 0.00173885 0)
(1.17467 0.00109978 0)
(1.17403 0.000378081 0)
(1.17367 -0.000382186 0)
(1.1736 -0.0011396 0)
(1.1738 -0.00185283 0)
(1.17425 -0.00249288 0)
(1.17492 -0.00305329 0)
(1.17578 -0.00353099 0)
(1.17679 -0.00392244 0)
(1.17794 -0.00422237 0)
(1.17919 -0.00442362 0)
(1.18049 -0.00451344 0)
(1.18182 -0.00447438 0)
(1.18312 -0.00429805 0)
(1.18432 -0.00399148 0)
(1.1854 -0.00357276 0)
(1.18629 -0.00306634 0)
(1.18699 -0.00249696 0)
(1.18748 -0.00188954 0)
(1.18773 -0.00126827 0)
(1.18776 -0.00065846 0)
(1.18757 -8.84761e-05 0)
(1.18718 0.000424613 0)
(1.18663 0.000876204 0)
(1.18593 0.00126425 0)
(1.18512 0.00159165 0)
(1.18423 0.00186553 0)
(1.18326 0.00209561 0)
(1.18223 0.0022928 0)
(1.18117 0.00246835 0)
(1.18006 0.00263247 0)
(1.17893 0.00279293 0)
(1.17775 0.00295397 0)
(1.17654 0.00311595 0)
(1.17528 0.00327538 0)
(1.17398 0.00342503 0)
(1.17264 0.00355464 0)
(1.17127 0.00365221 0)
(1.16986 0.00370506 0)
(1.16844 0.00370069 0)
(1.16703 0.00362741 0)
(1.16566 0.00347575 0)
(1.16434 0.00323991 0)
(1.16312 0.00291825 0)
(1.16202 0.0025135 0)
(1.16107 0.00203195 0)
(1.1603 0.00148398 0)
(1.15973 0.000886502 0)
(1.15938 0.000259687 0)
(1.15926 -0.000374977 0)
(1.15936 -0.000991371 0)
(1.15967 -0.00156458 0)
(1.16016 -0.00208403 0)
(1.16083 -0.00253743 0)
(1.16164 -0.00290731 0)
(1.16256 -0.00317334 0)
(1.16355 -0.00332292 0)
(1.16456 -0.0033584 0)
(1.16555 -0.00329073 0)
(1.16649 -0.00312957 0)
(1.16734 -0.00288386 0)
(1.16808 -0.00256555 0)
(1.16869 -0.00218921 0)
(1.16916 -0.00176998 0)
(1.16947 -0.00132286 0)
(1.16962 -0.000861036 0)
(1.16961 -0.000400802 0)
(1.16944 3.79375e-05 0)
(1.16912 0.000447225 0)
(1.16868 0.00082402 0)
(1.16812 0.00116714 0)
(1.16747 0.00147797 0)
(1.16674 0.00175988 0)
(1.16593 0.00201726 0)
(1.16506 0.00225467 0)
(1.16413 0.00247602 0)
(1.16314 0.00268375 0)
(1.16209 0.00287834 0)
(1.161 0.00305806 0)
(1.15985 0.00321908 0)
(1.15866 0.00335578 0)
(1.15743 0.00346119 0)
(1.15617 0.00352774 0)
(1.1549 0.00354792 0)
(1.15364 0.00351453 0)
(1.15239 0.00342107 0)
(1.15119 0.0032631 0)
(1.15005 0.00303909 0)
(1.14899 0.00275013 0)
(1.14804 0.00239965 0)
(1.14721 0.00199345 0)
(1.14652 0.0015393 0)
(1.14598 0.00104719 0)
(1.14561 0.000529328 0)
(1.14541 8.74181e-08 0)
(1.14538 -0.000525615 0)
(1.14552 -0.00102811 0)
(1.14581 -0.00149153 0)
(1.14625 -0.0019056 0)
(1.14681 -0.00226018 0)
(1.14746 -0.00254677 0)
(1.14819 -0.00275955 0)
(1.14897 -0.00289532 0)
(1.14976 -0.00295277 0)
(1.15055 -0.00293313 0)
(1.15131 -0.00284131 0)
(1.15201 -0.00268488 0)
(1.15264 -0.00247257 0)
(1.15319 -0.00221423 0)
(1.15363 -0.00192036 0)
(1.15397 -0.0015923 0)
(1.15421 -0.00126349 0)
(1.15429 -0.00085662 0)
(1.15438 -0.000550464 0)
(1.1541 4.14653e-05 0)
(1.35834 0.00468588 0)
(1.3563 0.00487078 0)
(1.35422 0.00495314 0)
(1.35215 0.00489979 0)
(1.35014 0.00468706 0)
(1.34825 0.00430095 0)
(1.34653 0.00373621 0)
(1.34505 0.00300851 0)
(1.3439 0.00214807 0)
(1.34314 0.00117528 0)
(1.34283 0.000118573 0)
(1.34298 -0.000950947 0)
(1.34357 -0.00197002 0)
(1.34451 -0.00291468 0)
(1.34574 -0.00376946 0)
(1.3472 -0.0045198 0)
(1.34882 -0.00514978 0)
(1.35056 -0.0056435 0)
(1.35238 -0.00598476 0)