/*--------------------------------*- C++ -*----------------------------------*\
| =========                 |                                                 |
| \\      /  F ield         | OpenFOAM: The Open Source CFD Toolbox           |
|  \\    /   O peration     | Version:  2206                                  |
|   \\  /    A nd           | Website:  www.openfoam.com                      |
|    \\/     M anipulation  |                                                 |
\*---------------------------------------------------------------------------*/
FoamFile
{
    version     2.0;
    format      ascii;
    arch        "LSB;label=32;scalar=64";
    class       surfaceScalarField;
    location    "18.3999";
    object      ddtCorrDdt0(phi);
}
// * * * * * * * * * * * * * * * * * * * * * * * * * * * * * * * * * * * * * //

dimensions      [0 3 -2 0 0 0 0];

oriented        oriented;

internalField   nonuniform List<scalar> 
3590
(
4.50661e-05
-2.46246e-05
3.95457e-05
-3.02325e-05
3.57529e-05
3.29759e-05
-3.53042e-05
4.18741e-05
2.55471e-05
-3.96768e-05
4.71056e-05
1.74993e-05
-4.30926e-05
5.11405e-05
9.11125e-06
-4.49827e-05
5.33707e-05
8.36972e-07
-4.52381e-05
5.35124e-05
-7.06194e-06
-4.3697e-05
5.15959e-05
-1.43248e-05
-4.04393e-05
4.77021e-05
-2.0782e-05
-3.55873e-05
4.20445e-05
-2.63776e-05
-2.93589e-05
3.49544e-05
-3.10198e-05
-2.21846e-05
2.68269e-05
-3.45982e-05
-1.44877e-05
1.80661e-05
-3.71688e-05
-6.5271e-06
9.09766e-06
-3.88307e-05
1.48386e-06
1.78081e-07
-3.95618e-05
9.39628e-06
-8.66518e-06
-3.92711e-05
1.69599e-05
-1.72507e-05
-3.79355e-05
2.37903e-05
-2.51258e-05
-3.53949e-05
2.94331e-05
-3.19737e-05
-3.15198e-05
3.3737e-05
-3.7612e-05
-2.63999e-05
3.65637e-05
-4.16836e-05
-2.03835e-05
3.80251e-05
-4.40416e-05
-1.38135e-05
3.80742e-05
-4.46442e-05
-6.98151e-06
3.6838e-05
-4.367e-05
-1.41876e-07
3.43989e-05
-4.12385e-05
6.558e-06
3.08338e-05
-3.75336e-05
1.31301e-05
2.61688e-05
-3.27409e-05
1.93093e-05
2.08549e-05
-2.7034e-05
2.46752e-05
1.52028e-05
-2.05687e-05
2.90319e-05
9.41731e-06
-1.37739e-05
3.22918e-05
3.77305e-06
-7.03297e-06
3.43877e-05
-1.62056e-06
-4.75399e-07
3.52733e-05
-6.71226e-06
5.82674e-06
3.48557e-05
-1.14082e-05
1.18257e-05
3.31387e-05
-1.5646e-05
1.73631e-05
3.02789e-05
-1.93765e-05
2.22363e-05
2.64815e-05
-2.26226e-05
2.64199e-05
2.1918e-05
-2.53521e-05
2.99156e-05
1.67737e-05
-2.74512e-05
3.25954e-05
1.13245e-05
-2.87375e-05
3.41866e-05
5.81259e-06
-2.90722e-05
3.45842e-05
4.39937e-07
-2.8375e-05
3.37477e-05
-4.62857e-06
-2.66415e-05
3.17101e-05
-9.28145e-06
-2.3924e-05
2.85769e-05
-1.3488e-05
-2.03072e-05
2.45138e-05
-1.71637e-05
-1.60462e-05
1.97219e-05
-2.01846e-05
-1.13808e-05
1.44017e-05
-2.25464e-05
-6.46467e-06
8.8265e-06
-2.43169e-05
-1.48412e-06
3.25463e-06
-2.55229e-05
3.46243e-06
-2.25646e-06
-2.60888e-05
8.28478e-06
-7.71881e-06
-2.59646e-05
1.28229e-05
-1.29472e-05
-2.50698e-05
1.67708e-05
-1.76656e-05
-2.32972e-05
1.99662e-05
-2.17388e-05
-2.06224e-05
2.23064e-05
-2.49812e-05
-1.71659e-05
2.37826e-05
-2.72392e-05
-1.31933e-05
2.43712e-05
-2.83438e-05
-8.90482e-06
2.41173e-05
-2.84057e-05
-4.49045e-06
2.30529e-05
-2.74672e-05
-1.22532e-07
2.12535e-05
-2.56214e-05
4.12898e-06
1.87435e-05
-2.2995e-05
8.31206e-06
1.55349e-05
-1.9718e-05
1.22194e-05
1.19993e-05
-1.59066e-05
1.56242e-05
8.2438e-06
-1.16486e-05
1.84428e-05
4.44025e-06
-7.2589e-06
2.05994e-05
7.47378e-07
-2.90399e-06
2.20468e-05
-2.76769e-06
1.32031e-06
2.27285e-05
-6.06694e-06
5.3852e-06
2.25603e-05
-9.05415e-06
9.2224e-06
2.15274e-05
-1.16672e-05
1.27001e-05
1.97052e-05
-1.38649e-05
1.56871e-05
1.72226e-05
-1.56661e-05
1.81488e-05
1.42177e-05
-1.70534e-05
2.00583e-05
1.0888e-05
-1.79449e-05
2.12746e-05
7.38911e-06
-1.82703e-05
2.17692e-05
3.88517e-06
-1.79984e-05
2.15023e-05
4.96354e-07
-1.71074e-05
2.04962e-05
-2.68896e-06
-1.56233e-05
1.88086e-05
-5.65543e-06
-1.35611e-05
1.65276e-05
-8.37113e-06
-1.10502e-05
1.37659e-05
-1.07311e-05
-8.26197e-06
1.06219e-05
-1.26897e-05
-5.27393e-06
7.23255e-06
-1.42714e-05
-2.22138e-06
3.80305e-06
-1.54938e-05
8.11563e-07
4.10828e-07
-1.63418e-05
3.7745e-06
-2.92648e-06
-1.67596e-05
6.61459e-06
-6.19679e-06
-1.66932e-05
9.19513e-06
-9.26155e-06
-1.60749e-05
1.13621e-05
-1.19804e-05
-1.48493e-05
1.3054e-05
-1.42795e-05
-1.30505e-05
1.42179e-05
-1.60167e-05
-1.08096e-05
1.48822e-05
-1.71231e-05
-8.26865e-06
1.50067e-05
-1.75477e-05
-5.55491e-06
1.46275e-05
-1.73412e-05
-2.799e-06
1.37831e-05
-1.6539e-05
-1.10333e-07
1.25201e-05
-1.52088e-05
2.52043e-06
1.0807e-05
-1.34378e-05
5.11641e-06
8.72572e-06
-1.13217e-05
7.52855e-06
6.49034e-06
-8.90249e-06
9.64883e-06
4.12036e-06
-6.24063e-06
1.14415e-05
1.76256e-06
-3.5552e-06
1.28454e-05
-5.07183e-07
-8.96697e-07
1.38259e-05
-2.65941e-06
1.67889e-06
1.43298e-05
-4.6607e-06
4.15677e-06
1.42968e-05
-6.43306e-06
6.46602e-06
1.3711e-05
-7.93387e-06
8.51976e-06
1.26103e-05
-9.13775e-06
1.02384e-05
1.10805e-05
-1.00641e-05
1.1594e-05
9.22848e-06
-1.06947e-05
1.25467e-05
7.17849e-06
-1.0985e-05
1.3035e-05
5.03704e-06
-1.09243e-05
1.30658e-05
2.90138e-06
-1.05066e-05
1.26423e-05
8.48946e-07
-9.74043e-06
1.17929e-05
-1.09716e-06
-8.61949e-06
1.05656e-05
-2.946e-06
-7.17695e-06
9.02579e-06
-4.63645e-06
-5.54194e-06
7.23239e-06
-6.10375e-06
-3.76228e-06
5.22958e-06
-7.34263e-06
-1.90201e-06
3.14088e-06
-8.35246e-06
-4.11323e-08
1.05096e-06
-9.12488e-06
1.77548e-06
-1.00306e-06
-9.64106e-06
3.52167e-06
-3.00549e-06
-9.85618e-06
5.16849e-06
-4.95337e-06
-9.72712e-06
6.63668e-06
-6.76573e-06
-9.12351e-06
7.76768e-06
-8.3713e-06
-8.19372e-06
8.68428e-06
-9.61411e-06
9.30415e-06
-1.06611e-05
4.66287e-05
-1.97293e-05
4.05924e-05
-2.41961e-05
3.35553e-05
-2.82671e-05
2.57089e-05
-3.18305e-05
1.72745e-05
-3.46582e-05
8.61226e-06
-3.63205e-05
-5.11069e-08
-3.65747e-05
-8.56039e-06
-3.51878e-05
-1.66673e-05
-3.23324e-05
-2.40769e-05
-2.81776e-05
-3.05659e-05
-2.28698e-05
-3.60286e-05
-1.6722e-05
-4.04447e-05
-1.00716e-05
-4.3791e-05
-3.1808e-06
-4.60352e-05
3.72807e-06
-4.70398e-05
1.0401e-05
-4.64934e-05
1.64135e-05
-4.41458e-05
2.14427e-05
-4.00388e-05
2.53261e-05
-3.4422e-05
2.81202e-05
-2.76502e-05
2.97919e-05
-2.00519e-05
3.04268e-05
-1.19978e-05
3.00201e-05
-3.74205e-06
2.85823e-05
4.66918e-06
2.59877e-05
1.29294e-05
2.25735e-05
2.05269e-05
1.85713e-05
2.71074e-05
1.42744e-05
3.23949e-05
9.91525e-06
3.62156e-05
5.5967e-06
3.85895e-05
1.39914e-06
3.9529e-05
-2.56009e-06
3.90443e-05
-6.22754e-06
3.72882e-05
-9.65215e-06
3.44743e-05
-1.2832e-05
3.07793e-05
-1.56816e-05
2.63326e-05
-1.81759e-05
2.12675e-05
-2.0287e-05
1.57605e-05
-2.19441e-05
1.00051e-05
-2.29821e-05
4.19352e-06
-2.32606e-05
-1.57976e-06
-2.26017e-05
-7.21829e-06
-2.1003e-05
-1.2513e-05
-1.86293e-05
-1.72914e-05
-1.55288e-05
-2.14586e-05
-1.1879e-05
-2.49679e-05
-7.87152e-06
-2.777e-05
-3.66255e-06
-2.98517e-05
5.97641e-07
-3.11652e-05
4.77592e-06
-3.15221e-05
8.64167e-06
-3.07081e-05
1.2009e-05
-2.86851e-05
1.47477e-05
-2.55826e-05
1.68637e-05
-2.15997e-05
1.83235e-05
-1.69599e-05
1.91428e-05
-1.18448e-05
1.92561e-05
-6.57382e-06
1.88463e-05
-1.17937e-06
1.76584e-05
4.30957e-06
1.57646e-05
9.59696e-06
1.34561e-05
1.4395e-05
1.07369e-05
1.85296e-05
7.86471e-06
2.1825e-05
4.94846e-06
2.41968e-05
2.06837e-06
2.56462e-05
-7.02011e-07
2.6152e-05
-3.27341e-06
2.56994e-05
-5.6144e-06
2.43829e-05
-7.73768e-06
2.23477e-05
-9.63199e-06
1.97234e-05
-1.12406e-05
1.66161e-05
-1.25589e-05
1.31402e-05
-1.35775e-05
9.45184e-06
-1.42566e-05
5.65979e-06
-1.44783e-05
1.85506e-06
-1.41936e-05
-1.94337e-06
-1.3309e-05
-5.61695e-06
-1.19497e-05
-9.02676e-06
-1.01513e-05
-1.20859e-05
-7.99108e-06
-1.47459e-05
-5.60196e-06
-1.6944e-05
-3.07583e-06
-1.86581e-05
-5.07235e-07
-1.98741e-05
2.02753e-06
-2.05031e-05
4.40348e-06
-2.04095e-05
6.52107e-06
-1.95255e-05
8.31106e-06
-1.79063e-05
9.74299e-06
-1.56658e-05
1.08135e-05
-1.2947e-05
1.14991e-05
-9.87719e-06
1.18124e-05
-6.61904e-06
1.17485e-05
-3.27216e-06
1.12806e-05
1.66649e-07
1.03443e-05
3.61871e-06
9.06808e-06
6.88987e-06
7.53586e-06
9.83343e-06
5.78216e-06
1.23652e-05
3.9586e-06
1.43654e-05
2.12015e-06
1.58023e-05
3.25654e-07
1.66625e-05
-1.36737e-06
1.69141e-05
-2.91105e-06
1.65436e-05
-4.29017e-06
1.56138e-05
-5.50329e-06
1.4221e-05
-6.54104e-06
1.24581e-05
-7.37484e-06
1.04048e-05
-8.01084e-06
8.15211e-06
-8.44199e-06
5.79381e-06
-8.62672e-06
3.39285e-06
-8.52333e-06
9.57689e-07
-8.07148e-06
-1.46904e-06
-7.3137e-06
-3.78634e-06
-6.30219e-06
-5.9176e-06
-5.04568e-06
-7.82065e-06
-3.63889e-06
-9.44318e-06
-2.13976e-06
-1.07414e-05
-6.03807e-07
-1.17033e-05
9.20809e-07
-1.22922e-05
2.3644e-06
-1.24433e-05
3.67276e-06
-1.20946e-05
4.81972e-06
-1.12015e-05
5.74364e-06
-9.86357e-06
6.42972e-06
-8.26676e-06
7.08744e-06
7.3505e-06
4.29683e-05
-1.49048e-05
3.71284e-05
-1.83562e-05
3.0351e-05
-2.14897e-05
2.27404e-05
-2.42199e-05
1.44688e-05
-2.63866e-05
5.7754e-06
-2.7627e-05
-3.22108e-06
-2.75782e-05
-1.21836e-05
-2.62252e-05
-2.0749e-05
-2.3767e-05
-2.86089e-05
-2.03177e-05
-3.54689e-05
-1.60099e-05
-4.11415e-05
-1.10494e-05
-4.55263e-05
-5.68684e-06
-4.84981e-05
-2.08994e-07
-4.97683e-05
4.99832e-06
-4.90237e-05
9.65639e-06
-4.62586e-05
1.36483e-05
-4.1713e-05
1.68971e-05
-3.56948e-05
1.93079e-05
-2.85189e-05
2.09442e-05
-2.06184e-05
2.18914e-05
-1.23242e-05
2.21326e-05
-3.80352e-06
2.14994e-05
4.80394e-06
1.99748e-05
1.30082e-05
1.77835e-05
2.03943e-05
1.51874e-05
2.65813e-05
1.23843e-05
3.13903e-05
9.46542e-06
3.48119e-05
6.49367e-06
3.68982e-05
3.51036e-06
3.76844e-05
6.12964e-07
3.72801e-05
-2.15578e-06
3.58778e-05
-4.82534e-06
3.35936e-05
-7.36796e-06
3.05008e-05
-9.73918e-06
2.66966e-05
-1.18774e-05
2.22655e-05
-1.37448e-05
1.73029e-05
-1.53243e-05
1.19322e-05
-1.65734e-05
6.2844e-06
-1.73343e-05
4.18072e-07
-1.73943e-05
-5.53157e-06
-1.66521e-05
-1.13168e-05
-1.52178e-05
-1.67293e-05
-1.32168e-05
-2.15501e-05
-1.07079e-05
-2.56252e-05
-7.804e-06
-2.88571e-05
-4.63961e-06
-3.11609e-05
-1.35875e-06
-3.23858e-05
1.82256e-06
-3.23382e-05
4.72831e-06
-3.09968e-05
7.30028e-06
-2.84972e-05
9.50934e-06
-2.50117e-05
1.12623e-05
-2.07213e-05
1.25733e-05
-1.58641e-05
1.34663e-05
-1.06698e-05
1.39485e-05
-5.33426e-06
1.39206e-05
1.9612e-07
1.33159e-05
5.63007e-06
1.22245e-05
1.06907e-05
1.07039e-05
1.51719e-05
8.97501e-06
1.88289e-05
7.07987e-06
2.15983e-05
5.09534e-06
2.3481e-05
3.06574e-06
2.44948e-05
1.0546e-06
2.46527e-05
-8.59986e-07
2.40415e-05
-2.66221e-06
2.27821e-05
-4.35499e-06
2.09478e-05
-5.90337e-06
1.85948e-05
-7.27902e-06
1.58047e-05
-8.45047e-06
1.26563e-05
-9.4104e-06
9.23438e-06
-1.01556e-05
5.61117e-06
-1.06334e-05
1.84714e-06
-1.07142e-05
-2.02445e-06
-1.0322e-05
-5.84038e-06
-9.49304e-06
-9.45612e-06
-8.33398e-06
-1.27211e-05
-6.88631e-06
-1.55081e-05
-5.20409e-06
-1.77482e-05
-3.36187e-06
-1.93887e-05
-1.43534e-06
-2.03536e-05
4.57638e-07
-2.05334e-05
2.20736e-06
-1.99134e-05
3.7835e-06
-1.85725e-05
5.18013e-06
-1.66041e-05
6.34271e-06
-1.41193e-05
7.25812e-06
-1.12445e-05
7.93868e-06
-8.12655e-06
8.38117e-06
-4.85958e-06
8.54545e-06
-1.47558e-06
8.36453e-06
1.94692e-06
7.85808e-06
5.22988e-06
7.06138e-06
8.23441e-06
6.06356e-06
1.08317e-05
4.93857e-06
1.28967e-05
3.71714e-06
1.44089e-05
2.44647e-06
1.53673e-05
1.16174e-06
1.57672e-05
-7.42569e-08
1.56284e-05
-1.22861e-06
1.50217e-05
-2.30437e-06
1.40134e-05
-3.28187e-06
1.26515e-05
-4.14135e-06
1.09811e-05
-4.87063e-06
9.06799e-06
-5.46175e-06
6.97083e-06
-5.91368e-06
4.74349e-06
-6.21465e-06
2.41546e-06
-6.29869e-06
-2.44437e-09
-6.10542e-06
-2.41561e-06
-5.65831e-06
-4.72897e-06
-5.00034e-06
-6.85178e-06
-4.17938e-06
-8.68021e-06
-3.21726e-06
-1.01616e-05
-2.15754e-06
-1.12604e-05
-1.04095e-06
-1.1938e-05
7.38561e-08
-1.21366e-05
1.11936e-06
-1.18419e-05
2.06968e-06
-1.10985e-05
2.9294e-06
-9.94473e-06
3.66594e-06
-8.42971e-06
4.22862e-06
-6.73499e-06
4.73498e-06
-4.78582e-06
5.13824e-06
5.18822e-06
3.3584e-05
-1.07351e-05
2.85009e-05
-1.32731e-05
2.2559e-05
-1.55478e-05
1.58348e-05
-1.74957e-05
8.44284e-06
-1.89946e-05
5.29135e-07
-1.97133e-05
-7.68155e-06
-1.93675e-05
-1.57073e-05
-1.81994e-05
-2.3186e-05
-1.62883e-05
-2.9814e-05
-1.36898e-05
-3.53036e-05
-1.05203e-05
-3.94014e-05
-6.95156e-06
-4.18822e-05
-3.20599e-06
-4.25314e-05
4.40209e-07
-4.13606e-05
3.82749e-06
-3.85955e-05
6.8913e-06
-3.44603e-05
9.51316e-06
-2.92071e-05
1.16438e-05
-2.31661e-05
1.3267e-05
-1.66392e-05
1.44173e-05
-9.85989e-06
1.51121e-05
-2.97635e-06
1.52491e-05
3.82066e-06
1.47024e-05
1.01984e-05
1.35971e-05
1.57886e-05
1.21932e-05
2.04248e-05
1.05511e-05
2.40819e-05
8.72728e-06
2.6781e-05
6.76632e-06
2.85506e-05
4.72405e-06
2.94099e-05
2.65108e-06
2.9435e-05
5.87864e-07
2.87144e-05
-1.43524e-06
2.7291e-05
-3.40186e-06
2.51992e-05
-5.27619e-06
2.24752e-05
-7.01515e-06
1.91739e-05
-8.57607e-06
1.53583e-05
-9.92919e-06
1.10889e-05
-1.1055e-05
6.42775e-06
-1.19122e-05
1.47241e-06
-1.2379e-05
-3.68882e-06
-1.2233e-05
-8.78824e-06
-1.15527e-05
-1.35438e-05
-1.04622e-05
-1.77713e-05
-8.9893e-06
-2.12956e-05
-7.18369e-06
-2.39719e-05
-5.12761e-06
-2.56843e-05
-2.92723e-06
-2.63161e-05
-7.26998e-07
-2.58657e-05
1.37219e-06
-2.44645e-05
3.32714e-06
-2.22359e-05
5.07169e-06
-1.9298e-05
6.57142e-06
-1.58257e-05
7.78998e-06
-1.19838e-05
8.73141e-06
-7.90874e-06
9.39124e-06
-3.71062e-06
9.75036e-06
5.10367e-07
9.69959e-06
4.61331e-06
9.21299e-06
8.38065e-06
8.45712e-06
1.16031e-05
7.48149e-06
1.42377e-05
6.34038e-06
1.62562e-05
5.06139e-06
1.76636e-05
3.68789e-06
1.84595e-05
2.26988e-06
1.86621e-05
8.52022e-07
1.83299e-05
-5.27799e-07
1.7517e-05
-1.84928e-06
1.62529e-05
-3.09098e-06
1.45749e-05
-4.22537e-06
1.25227e-05
-5.22678e-06
1.01484e-05
-6.07619e-06
7.50079e-06
-6.76278e-06
4.62529e-06
-7.28008e-06
1.57453e-06
-7.58262e-06
-1.57264e-06
-7.56707e-06
-4.71083e-06
-7.18384e-06
-7.64093e-06
-6.56294e-06
-1.02471e-05
-5.72779e-06
-1.24315e-05
-4.70196e-06
-1.41116e-05
-3.52397e-06
-1.52234e-05
-2.25002e-06
-1.57078e-05
-9.50949e-07
-1.55653e-05
3.15125e-07
-1.48688e-05
1.51081e-06
-1.36894e-05
2.6041e-06
-1.20854e-05
3.57615e-06
-1.01443e-05
4.40162e-06
-7.95492e-06
5.06876e-06
-5.59338e-06
5.57714e-06
-3.12332e-06
5.91111e-06
-5.93097e-07
6.01523e-06
1.91835e-06
5.85309e-06
4.29824e-06
5.47819e-06
6.40795e-06
4.95168e-06
8.17516e-06
4.29635e-06
9.57665e-06
3.53708e-06
1.0598e-05
2.69585e-06
1.12366e-05
1.80787e-06
1.14898e-05
9.08504e-07
1.13873e-05
2.82815e-08
1.09703e-05
-8.11698e-07
1.02633e-05
-1.59733e-06
9.29402e-06
-2.31258e-06
8.09336e-06
-2.94069e-06
6.69365e-06
-3.47092e-06
5.12803e-06
-3.89614e-06
3.42932e-06
-4.21497e-06
1.63088e-06
-4.41621e-06
-2.1919e-07
-4.44862e-06
-2.06877e-06
-4.25584e-06
-3.81109e-06
-3.91599e-06
-5.36079e-06
-3.45064e-06
-6.66477e-06
-2.8754e-06
-7.67473e-06
-2.2073e-06
-8.35614e-06
-1.47613e-06
-8.67936e-06
-7.17728e-07
-8.64003e-06
3.4526e-08
-8.27363e-06
7.52952e-07
-7.62276e-06
1.41881e-06
-6.71246e-06
2.0191e-06
-5.58361e-06
2.53709e-06
-4.29504e-06
2.94004e-06
-2.89948e-06
3.33939e-06
-1.32565e-06
3.56438e-06
3.53528e-06
2.24598e-05
-7.61587e-06
1.86345e-05
-9.4478e-06
1.41502e-05
-1.10636e-05
9.06189e-06
-1.24074e-05
3.45033e-06
-1.33831e-05
-2.48715e-06
-1.37759e-05
-8.42003e-06
-1.34347e-05
-1.40117e-05
-1.26078e-05
-1.90055e-05
-1.12945e-05
-2.3164e-05
-9.53125e-06
-2.62812e-05
-7.40307e-06
-2.82023e-05
-5.03041e-06
-2.88641e-05
-2.54425e-06
-2.83548e-05
-6.90103e-08
-2.68178e-05
2.29047e-06
-2.43821e-05
4.45553e-06
-2.12198e-05
6.35089e-06
-1.75023e-05
7.92634e-06
-1.33946e-05
9.15925e-06
-9.03251e-06
1.00552e-05
-4.537e-06
1.06166e-05
-5.49674e-08
1.0767e-05
4.25237e-06
1.03951e-05
8.11415e-06
9.73537e-06
1.14713e-05
8.83605e-06
1.42971e-05
7.72537e-06
1.65714e-05
6.45295e-06
1.8273e-05
5.06475e-06
1.93926e-05
3.60444e-06
1.99337e-05
2.10992e-06
1.99231e-05
5.98478e-07
1.93879e-05
-9.00048e-07
1.83382e-05
-2.35217e-06
1.67924e-05
-3.73036e-06
1.47818e-05
-5.00451e-06
1.23502e-05
-6.14446e-06
9.54419e-06
-7.12321e-06
6.411e-06
-7.92176e-06
3.00165e-06
-8.5029e-06
-5.85944e-07
-8.79141e-06
-4.18659e-06
-8.63238e-06
-7.58932e-06
-8.14993e-06
-1.06511e-05
-7.4005e-06
-1.32496e-05
-6.3908e-06
-1.52761e-05
-5.15711e-06
-1.66471e-05
-3.75667e-06
-1.73128e-05
-2.26154e-06
-1.73081e-05
-7.31634e-07
-1.67022e-05
7.66235e-07
-1.5551e-05
2.17594e-06
-1.39331e-05
3.45379e-06
-1.19252e-05
4.56351e-06
-9.61426e-06
5.47909e-06
-7.07389e-06
6.19104e-06
-4.38129e-06
6.69864e-06
-1.6162e-06
6.98527e-06
1.12812e-06
6.95527e-06
3.69748e-06
6.64363e-06
6.0066e-06
6.148e-06
8.00422e-06
5.48388e-06
9.66435e-06
4.68025e-06
1.09557e-05
3.77002e-06
1.18559e-05
2.78769e-06
1.23573e-05
1.76855e-06
1.24737e-05
7.35548e-07
1.22295e-05
-2.83522e-07
1.16418e-05
-1.26164e-06
1.07305e-05
-2.17968e-06
9.52281e-06
-3.01765e-06
8.05267e-06
-3.75664e-06
6.35758e-06
-4.38109e-06
4.47406e-06
-4.87926e-06
2.43654e-06
-5.24255e-06
2.95475e-07
-5.44155e-06
-1.84617e-06
-5.42542e-06
-3.87949e-06
-5.15052e-06
-5.72336e-06
-4.71907e-06
-7.31151e-06
-4.13963e-06
-8.58596e-06
-3.4275e-06
-9.49966e-06
-2.61026e-06
-1.00236e-05
-1.72604e-06
-1.01663e-05
-8.08258e-07
-9.95777e-06
1.06568e-07
-9.42831e-06
9.81356e-07
-8.61457e-06
1.79036e-06
-7.55163e-06
2.5132e-06
-6.28172e-06
3.13171e-06
-4.84842e-06
3.63547e-06
-3.29297e-06
4.02169e-06
-1.65869e-06
4.27683e-06
-3.22232e-11
4.35657e-06
1.60654e-06
4.24651e-06
3.08037e-06
4.00436e-06
4.38579e-06
3.64626e-06
5.49746e-06
3.18469e-06
6.3935e-06
2.64103e-06
7.05161e-06
2.03774e-06
7.45979e-06
1.3997e-06
7.62183e-06
7.46461e-07
7.55284e-06
9.72764e-08
7.2678e-06
-5.26662e-07
6.78132e-06
-1.11085e-06
6.11145e-06
-1.64272e-06
5.28127e-06
-2.11051e-06
4.31516e-06
-2.5048e-06
3.23818e-06
-2.81916e-06
2.07336e-06
-3.05015e-06
8.47914e-07
-3.19076e-06
-3.85563e-07
-3.21514e-06
-1.55746e-06
-3.08394e-06
-2.63151e-06
-2.84193e-06
-3.56751e-06
-2.51464e-06
-4.3336e-06
-2.10932e-06
-4.90154e-06
-1.63935e-06
-5.25322e-06
-1.12445e-06
-5.38495e-06
-5.86e-07
-5.30959e-06
-4.08329e-08
-5.0447e-06
4.88062e-07
-4.60566e-06
9.7977e-07
-4.00685e-06
1.42028e-06
-3.27088e-06
1.80112e-06
-2.42454e-06
2.09369e-06
-1.46195e-06
2.37676e-06
-4.15293e-07
2.51768e-06
2.4497e-06
1.51972e-05
-5.47788e-06
1.25514e-05
-6.80197e-06
9.44544e-06
-7.95762e-06
5.94095e-06
-8.90286e-06
2.12093e-06
-9.56306e-06
-1.8496e-06
-9.80532e-06
-5.71241e-06
-9.57184e-06
-9.30441e-06
-9.01578e-06
-1.24797e-05
-8.11914e-06
-1.51042e-05
-6.90673e-06
-1.7071e-05
-5.43635e-06
-1.83145e-05
-3.7869e-06
-1.88208e-05
-2.0379e-06
-1.86255e-05
-2.64326e-07
-1.77828e-05
1.44775e-06
-1.63542e-05
3.02691e-06
-1.44239e-05
4.42061e-06
-1.20873e-05
5.58973e-06
-9.43923e-06
6.51121e-06
-6.56622e-06
7.18222e-06
-3.55372e-06
7.60408e-06
-5.30608e-07
7.74391e-06
2.36953e-06
7.49494e-06
5.0226e-06
7.0823e-06
7.39526e-06
6.46339e-06
9.43703e-06
5.68361e-06
1.11116e-05
4.77841e-06
1.23964e-05
3.77996e-06
1.32799e-05
2.72086e-06
1.37606e-05
1.62925e-06
1.38407e-05
5.18422e-07
1.35277e-05
-5.87068e-07
1.28331e-05
-1.6576e-06
1.1774e-05
-2.67129e-06
1.03755e-05
-3.60599e-06
8.66973e-06
-4.43866e-06
6.69569e-06
-5.14917e-06
4.50178e-06
-5.72785e-06
2.13857e-06
-6.13969e-06
-3.37096e-07
-6.31574e-06
-2.77248e-06
-6.197e-06
-5.05633e-06
-5.86608e-06
-7.11189e-06
-5.34495e-06
-8.86644e-06
-4.63625e-06
-1.02574e-05
-3.76615e-06
-1.12396e-05
-2.77451e-06
-1.17925e-05
-1.70863e-06
-1.19145e-05
-6.09652e-07
-1.16243e-05
4.76041e-07
-1.09527e-05
1.50439e-06
-9.93954e-06
2.44062e-06
-8.63243e-06
3.2564e-06
-7.08419e-06
3.93084e-06
-5.34658e-06
4.45344e-06
-3.47205e-06
4.82411e-06
-1.53561e-06
5.04883e-06
4.00196e-07
5.01947e-06
2.21953e-06
4.8243e-06
3.89237e-06
4.47516e-06
5.36855e-06
4.0077e-06
6.61215e-06
3.43665e-06
7.59763e-06
2.78455e-06
8.30917e-06
2.07615e-06
8.74122e-06
1.33651e-06
8.89331e-06
5.83457e-07
8.77388e-06
-1.64094e-07
8.39702e-06
-8.84785e-07
7.77848e-06
-1.56114e-06
6.93884e-06
-2.178e-06
5.90349e-06
-2.72129e-06
4.70155e-06
-3.17915e-06
3.36556e-06
-3.54327e-06
1.9338e-06
-3.81079e-06
4.18053e-07
-3.92581e-06
-1.07926e-06
-3.92811e-06
-2.49992e-06
-3.72986e-06
-3.79418e-06
-3.42481e-06
-4.92019e-06
-3.01362e-06
-5.8419e-06
-2.50579e-06
-6.53115e-06
-1.92101e-06
-6.97248e-06
-1.28471e-06
-7.15859e-06
-6.22144e-07
-7.09437e-06
4.2353e-08
-6.79575e-06
6.8274e-07
-6.28231e-06
1.27692e-06
-5.57734e-06
1.80823e-06
-4.70885e-06
2.26322e-06
-3.70617e-06
2.63279e-06
-2.60245e-06
2.91798e-06
-1.42998e-06
3.10435e-06
-2.38927e-07
3.16552e-06
9.17649e-07
3.08994e-06
2.00208e-06
2.91993e-06
2.98147e-06
2.66688e-06
3.82764e-06
2.33852e-06
4.51975e-06
1.94893e-06
5.04356e-06
1.51393e-06
5.39232e-06
1.05094e-06
5.56295e-06
5.75833e-07
5.55925e-06
1.00982e-07
5.39129e-06
-3.58706e-07
5.07039e-06
-7.89945e-07
4.61056e-06
-1.18289e-06
4.02858e-06
-1.52853e-06
3.34332e-06
-1.81954e-06
2.57543e-06
-2.05127e-06
1.74635e-06
-2.22106e-06
8.75527e-07
-2.31994e-06
-3.7802e-09
-2.33584e-06
-8.45071e-07
-2.24265e-06
-1.61919e-06
-2.06781e-06
-2.29955e-06
-1.83428e-06
-2.86493e-06
-1.54394e-06
-3.29803e-06
-1.20625e-06
-3.58776e-06
-8.34721e-07
-3.72933e-06
-4.44431e-07
-3.7213e-06
-4.88611e-08
-3.56924e-06
3.36006e-07
-3.28439e-06
6.94917e-07
-2.87843e-06
1.01431e-06
-2.36629e-06
1.28898e-06
-1.76276e-06
1.49014e-06
-1.06244e-06
1.67641e-06
-3.12729e-07
1.76793e-06
1.65873e-06
1.16768e-05
-3.87434e-06
9.6828e-06
-4.80796e-06
7.34403e-06
-5.61885e-06
4.72097e-06
-6.2798e-06
1.88662e-06
-6.7287e-06
-1.05411e-06
-6.86459e-06
-3.89426e-06
-6.73168e-06
-6.54741e-06
-6.36263e-06
-8.92126e-06
-5.74528e-06
-1.09221e-05
-4.90593e-06
-1.24718e-05
-3.88659e-06
-1.35185e-05
-2.74019e-06
-1.40347e-05
-1.52172e-06
-1.40199e-05
-2.79094e-07
-1.35005e-05
9.28266e-07
-1.25215e-05
2.04794e-06
-1.11423e-05
3.04148e-06
-9.4337e-06
3.88108e-06
-7.46838e-06
4.54589e-06
-5.31355e-06
5.0274e-06
-3.04167e-06
5.33219e-06
-7.6925e-07
5.47149e-06
1.52956e-06
5.19613e-06
3.56537e-06
5.04649e-06
5.42528e-06
4.60348e-06
7.04507e-06
4.06382e-06
8.39131e-06
3.43216e-06
9.44046e-06
2.73082e-06
1.01791e-05
1.98225e-06
1.06014e-05
1.20689e-06
1.07037e-05
4.16112e-07
1.04895e-05
-3.72797e-07
9.96916e-06
-1.1373e-06
9.15895e-06
-1.86108e-06
8.07986e-06
-2.5269e-06
6.7586e-06
-3.1174e-06
5.22801e-06
-3.61857e-06
3.52487e-06
-4.02471e-06
1.71634e-06
-4.33116e-06
-1.93816e-07
-4.40559e-06
-2.05634e-06
-4.33447e-06
-3.80103e-06
-4.12139e-06
-5.38227e-06
-3.7637e-06
-6.74647e-06
-3.27206e-06
-7.84478e-06
-2.66783e-06
-8.64049e-06
-1.97879e-06
-9.1125e-06
-1.23662e-06
-9.25233e-06
-4.69819e-07
-9.06767e-06
2.91381e-07
-8.5794e-06
1.01612e-06
-7.81698e-06
1.6782e-06
-6.81784e-06
2.25726e-06
-5.62632e-06
2.73932e-06
-4.28252e-06
3.10964e-06
-2.82687e-06
3.36846e-06
-1.29743e-06
3.51939e-06
1.96758e-07
3.52528e-06
1.63344e-06
3.38762e-06
2.9591e-06
3.1495e-06
4.13558e-06
2.83123e-06
5.13449e-06
2.43774e-06
5.93432e-06
1.98472e-06
6.52086e-06
1.48961e-06
6.88743e-06
9.6994e-07
7.03117e-06
4.39717e-07
6.95584e-06
-8.87661e-08
6.67178e-06
-6.00717e-07
6.19229e-06
-1.08165e-06
5.53421e-06
-1.51992e-06
4.71864e-06
-1.90572e-06
3.76935e-06
-2.22985e-06
2.7142e-06
-2.48813e-06
1.58285e-06
-2.67944e-06
3.94237e-07
-2.73719e-06
-7.8861e-07
-2.74526e-06
-1.90516e-06
-2.61331e-06
-2.92433e-06
-2.40564e-06
-3.81732e-06
-2.12062e-06
-4.55592e-06
-1.76719e-06
-5.11701e-06
-1.35992e-06
-5.48567e-06
-9.16056e-07
-5.65431e-06
-4.53503e-07
-5.62339e-06
1.14339e-08
-5.40267e-06
4.62032e-07
-5.00804e-06
8.82279e-07
-4.45902e-06
1.25922e-06
-3.77743e-06
1.58163e-06
-2.98723e-06
1.84258e-06
-2.10849e-06
2.03925e-06
-1.17451e-06
2.17037e-06
-2.29253e-07
2.22027e-06
6.95475e-07
2.16521e-06
1.56566e-06
2.04974e-06
2.35446e-06
1.87809e-06
3.04102e-06
1.65195e-06
3.60834e-06
1.38162e-06
4.04379e-06
1.07848e-06
4.34009e-06
7.54628e-07
4.49472e-06
4.21204e-07
4.50867e-06
8.70424e-08
4.38787e-06
-2.37912e-07
4.14194e-06
-5.44015e-07
3.78206e-06
-8.23009e-07
3.32186e-06
-1.06834e-06
2.77699e-06
-1.27467e-06
2.16492e-06
-1.4392e-06
1.50611e-06
-1.56225e-06
8.12935e-07
-1.62677e-06
1.10887e-07
-1.63379e-06
-5.65243e-07
-1.56652e-06
-1.18301e-06
-1.45005e-06
-1.7281e-06
-1.28918e-06
-2.18488e-06
-1.08716e-06
-2.53954e-06
-8.51583e-07
-2.78211e-06
-5.92161e-07
-2.90739e-06
-3.19149e-07
-2.91323e-06
-4.30116e-08
-2.80314e-06
2.25917e-07
-2.58566e-06
4.77439e-07
-2.27119e-06
6.99841e-07
-1.87101e-06
8.88789e-07
-1.40157e-06
1.02069e-06
-8.5586e-07
1.13066e-06
-2.69234e-07
1.18127e-06
1.04328e-06
1.01628e-05
-2.48328e-06
8.44582e-06
-3.09097e-06
6.44089e-06
-3.61391e-06
4.20282e-06
-4.04173e-06
1.82446e-06
-4.35033e-06
-6.92619e-07
-4.34751e-06
-3.09411e-06
-4.33018e-06
-5.34838e-06
-4.10837e-06
-7.37584e-06
-3.71781e-06
-9.09676e-06
-3.18501e-06
-1.04459e-05
-2.53741e-06
-1.13778e-05
-1.80836e-06
-1.18676e-05
-1.0319e-06
-1.19089e-05
-2.37726e-07
-1.15193e-05
5.38603e-07
-1.07328e-05
1.26149e-06
-9.59765e-06
1.9063e-06
-8.17069e-06
2.45411e-06
-6.51654e-06
2.89175e-06
-4.69981e-06
3.21066e-06
-2.78333e-06
3.41572e-06
-8.21674e-07
3.50983e-06
1.04278e-06
3.33168e-06
2.84362e-06
3.24564e-06
4.46351e-06
2.9836e-06
5.87968e-06
2.64764e-06
7.06275e-06
2.2491e-06
7.99089e-06
1.80267e-06
8.6502e-06
1.32295e-06
9.03425e-06
8.22841e-07
9.13871e-06
3.11662e-07
8.96488e-06
-1.9898e-07
8.52382e-06
-6.96228e-07
7.83029e-06
-1.16755e-06
6.90499e-06
-1.60159e-06
5.7745e-06
-1.98691e-06
4.46846e-06
-2.31253e-06
3.02155e-06
-2.5778e-06
1.48268e-06
-2.79229e-06
-1.46903e-07
-2.776e-06
-1.70528e-06
-2.77609e-06
-3.17389e-06
-2.65279e-06
-4.50912e-06
-2.42846e-06
-5.6631e-06
-2.11808e-06
-6.59505e-06
-1.73588e-06
-7.27421e-06
-1.29964e-06
-7.68206e-06
-8.28755e-07
-7.81094e-06
-3.40951e-07
-7.66557e-06
1.46019e-07
-7.2621e-06
6.12647e-07
-6.62498e-06
1.04108e-06
-5.78464e-06
1.41692e-06
-4.77558e-06
1.73027e-06
-3.63952e-06
1.97357e-06
-2.41351e-06
2.14245e-06
-1.13235e-06
2.23823e-06
1.29909e-07
2.26302e-06
1.35654e-06
2.16099e-06
2.48323e-06
2.02281e-06
3.48557e-06
1.82888e-06
4.33962e-06
1.58369e-06
5.02596e-06
1.29838e-06
5.53122e-06
9.84354e-07
5.8482e-06
6.52959e-07
5.97435e-06
3.13576e-07
5.91229e-06
-2.67151e-08
5.66968e-06
-3.581e-07
5.25765e-06
-6.69623e-07
4.69212e-06
-9.54394e-07
3.99212e-06
-1.20572e-06
3.17947e-06
-1.4172e-06
2.27723e-06
-1.58589e-06
1.31416e-06
-1.71636e-06
3.08615e-07
-1.73164e-06
-6.9006e-07
-1.74658e-06
-1.62888e-06
-1.67449e-06
-2.48705e-06
-1.54746e-06
-3.23894e-06
-1.36873e-06
-3.86023e-06
-1.1459e-06
-4.3315e-06
-8.88647e-07
-4.63968e-06
-6.07866e-07
-4.77884e-06
-3.14352e-07
-4.75008e-06
-1.73165e-08
-4.56029e-06
2.72239e-07
-4.2208e-06
5.42796e-07
-3.74781e-06
7.86223e-07
-3.16208e-06
9.95907e-07
-2.48591e-06
1.1664e-06
-1.74034e-06
1.29368e-06
-9.47964e-07
1.378e-06
-1.50124e-07
1.42243e-06
6.43674e-07
1.37141e-06
1.38137e-06
1.31205e-06
2.05041e-06
1.20904e-06
2.6335e-06
1.06887e-06
3.11576e-06
8.99355e-07
3.48617e-06
7.08073e-07
3.73796e-06
5.02842e-07
3.86829e-06
2.90871e-07
3.87826e-06
7.70704e-08
3.77252e-06
-1.32168e-07
3.55836e-06
-3.29856e-07
3.24592e-06
-5.10569e-07
2.84759e-06
-6.70003e-07
2.3773e-06
-8.04389e-07
1.84947e-06
-9.11372e-07
1.28042e-06
-9.93194e-07
6.93166e-07
-1.03952e-06
8.84552e-08
-1.02908e-06
-4.81731e-07
-9.9634e-07
-1.00371e-06
-9.28075e-07
-1.46464e-06
-8.28247e-07
-1.8503e-06
-7.01508e-07
-2.1488e-06
-5.53081e-07
-2.35169e-06
-3.89271e-07
-2.45402e-06
-2.16825e-07
-2.45495e-06
-4.20711e-08
-2.35785e-06
1.28814e-07
-2.16935e-06
2.88944e-07
-1.90061e-06
4.31094e-07
-1.56085e-06
5.49029e-07
-1.17023e-06
6.30052e-07
-7.26293e-07
6.86674e-07
-2.4566e-07
7.006e-07
5.60511e-07
9.4343e-06
-1.14268e-06
7.79533e-06
-1.45197e-06
5.90807e-06
-1.72665e-06
3.83255e-06
-1.9662e-06
1.67746e-06
-2.19525e-06
-7.95587e-07
-1.87445e-06
-2.96893e-06
-2.15684e-06
-5.03026e-06
-2.04702e-06
-6.88864e-06
-1.85944e-06
-8.46703e-06
-1.60661e-06
-9.7053e-06
-1.29916e-06
-1.05622e-05
-9.51435e-07
-1.10141e-05
-5.80055e-07
-1.10536e-05
-1.98156e-07
-1.0695e-05
1.79976e-07
-9.96922e-06
5.35713e-07
-8.91827e-06
8.55337e-07
-7.5951e-06
1.13095e-06
-6.05886e-06
1.3555e-06
-4.37482e-06
1.52662e-06
-2.60647e-06
1.64735e-06
-8.33487e-07
1.73687e-06
9.72093e-07
1.52609e-06
2.63455e-06
1.58319e-06
4.13019e-06
1.48795e-06
5.44373e-06
1.33412e-06
6.54588e-06
1.14694e-06
7.41275e-06
9.35817e-07
8.02869e-06
7.06992e-07
8.38526e-06
4.66282e-07
8.47769e-06
2.1922e-07
8.31e-06
-3.12755e-08
7.89158e-06
-2.77821e-07
7.23668e-06
-5.1263e-07
6.36643e-06
-7.31361e-07
5.30899e-06
-9.29461e-07
4.09643e-06
-1.09998e-06
2.76822e-06
-1.24957e-06
1.38137e-06
-1.40545e-06
-2.07086e-07
-1.18754e-06
-1.60486e-06
-1.37833e-06
-2.93689e-06
-1.32074e-06
-4.15148e-06
-1.21388e-06
-5.20202e-06
-1.06753e-06
-6.05064e-06
-8.87269e-07
-6.67005e-06
-6.80222e-07
-7.04359e-06
-4.55227e-07
-7.16335e-06
-2.21184e-07
-7.03262e-06
1.52839e-08
-6.66435e-06
2.44384e-07
-6.07949e-06
4.56215e-07
-5.30677e-06
6.44206e-07
-4.37983e-06
8.03329e-07
-3.33651e-06
9.30258e-07
-2.21694e-06
1.02288e-06
-1.05839e-06
1.07969e-06
8.92624e-08
1.11536e-06
1.25026e-06
9.99997e-07
2.27242e-06
1.00065e-06
3.18589e-06
9.15422e-07
3.96798e-06
8.01591e-07
4.5989e-06
6.67473e-07
5.06468e-06
5.18567e-07
5.35789e-06
3.59759e-07
5.47473e-06
1.96729e-07
5.41698e-06
3.1047e-08
5.19141e-06
-1.32535e-07
4.80918e-06
-2.87388e-07
4.28505e-06
-4.30268e-07
3.6374e-06
-5.5806e-07
2.88839e-06
-6.68198e-07
2.06203e-06
-7.59525e-07
1.1775e-06
-8.31838e-07
2.75138e-07
-8.29272e-07
-6.49489e-07
-8.21959e-07
-1.49899e-06
-8.24978e-07
-2.27531e-06
-7.71145e-07
-2.95563e-06
-6.88414e-07
-3.51746e-06
-5.84064e-07
-3.94354e-06
-4.62566e-07
-4.22267e-06
-3.28737e-07
-4.34847e-06
-1.88542e-07
-4.32107e-06
-4.47216e-08
-4.14627e-06
9.7447e-08
-3.83469e-06
2.31208e-07
-3.40129e-06
3.5283e-07
-2.86436e-06
4.58972e-07
-2.24513e-06
5.4718e-07
-1.56716e-06
6.15703e-07
-8.53749e-07
6.6459e-07
-1.38849e-07
7.07524e-07
6.17e-07
6.15569e-07
1.27807e-06
6.50976e-07
1.88242e-06
6.04705e-07
2.41164e-06
5.39645e-07
2.85065e-06
4.60351e-07
3.1884e-06
3.70315e-07
3.41858e-06
2.72674e-07
3.53824e-06
1.71198e-07
3.54783e-06
6.7492e-08
3.45101e-06
-3.5357e-08
3.25418e-06
-1.33016e-07
2.96688e-06
-2.23273e-07
2.60094e-06
-3.04057e-07
2.17021e-06
-3.73663e-07
1.68954e-06
-4.30707e-07
1.17155e-06
-4.75206e-07
6.46099e-07
-5.14064e-07
7.95679e-08
-4.62551e-07
-4.2793e-07
-4.88841e-07
-8.95051e-07
-4.60957e-07
-1.30816e-06