/*--------------------------------*- C++ -*----------------------------------*\
| =========                 |                                                 |
| \\      /  F ield         | OpenFOAM: The Open Source CFD Toolbox           |
|  \\    /   O peration     | Version:  2206                                  |
|   \\  /    A nd           | Website:  www.openfoam.com                      |
|    \\/     M anipulation  |                                                 |
\*---------------------------------------------------------------------------*/
FoamFile
{
    version     2.0;
    format      ascii;
    arch        "LSB;label=32;scalar=64";
    class       volVectorField;
    location    "18.3";
    object      ddt0(U);
}
// * * * * * * * * * * * * * * * * * * * * * * * * * * * * * * * * * * * * * //

dimensions      [0 1 -2 0 0 0 0];

internalField   nonuniform List<vector> 
3088
(
(-85.625 18.3614 0)
(-69.4869 32.6287 0)
(-32.7066 48.1751 0)
(0.0383345 47.0093 0)
(17.5401 43.7693 0)
(20.2922 38.9434 0)
(19.119 33.5712 0)
(17.0172 28.1136 0)
(15.1335 23.6513 0)
(13.5392 19.5971 0)
(12.3276 16.119 0)
(11.3301 13.1018 0)
(10.4277 10.478 0)
(9.57909 8.22453 0)
(8.87688 6.22825 0)
(8.34865 4.47927 0)
(8.27535 2.87672 0)
(9.10274 1.28772 0)
(11.4246 0.180635 0)
(14.0315 -1.57983 0)
(-89.0875 58.917 0)
(-95.9786 57.884 0)
(-104.241 67.7696 0)
(-104.69 78.5238 0)
(-89.8115 81.0561 0)
(-66.2065 76.7044 0)
(-40.1599 65.6383 0)
(-16.514 50.9217 0)
(3.77974 34.8341 0)
(19.0779 20.0643 0)
(30.5989 7.93655 0)
(38.3114 -2.72552 0)
(43.2961 -7.84861 0)
(47.4136 -13.8065 0)
(50.1175 -18.4767 0)
(52.217 -21.2524 0)
(54.2878 -23.4904 0)
(55.9563 -26.0631 0)
(57.3531 -29.2152 0)
(58.9628 -32.6615 0)
(60.7418 -36.0554 0)
(60.6985 -40.8198 0)
(56.2617 -50.0404 0)
(52.7911 -60.9739 0)
(69.8957 -56.9164 0)
(123.24 -21.9422 0)
(187.69 23.287 0)
(191.486 26.1361 0)
(139.932 -17.5659 0)
(66.5459 -77.8816 0)
(0.0847144 -126.586 0)
(-69.0632 -161.668 0)
(-96.6793 -169.556 0)
(-100.484 -154.328 0)
(-97.8249 -135.346 0)
(-90.5926 -115.321 0)
(-80.7716 -95.6533 0)
(-69.6157 -77.3788 0)
(-57.9113 -61.3017 0)
(-46.2508 -48.03 0)
(-34.9165 -38.1355 0)
(-23.6481 -32.4916 0)
(-12.4762 -32.773 0)
(-1.37657 -39.8827 0)
(11.2757 -50.8395 0)
(17.7182 -62.7247 0)
(19.6155 -65.6407 0)
(16.0403 -56.7986 0)
(12.3882 -40.1576 0)
(4.30631 -18.9463 0)
(-12.1342 27.6687 0)
(-33.4116 106.476 0)
(-50.3906 179.731 0)
(-66.8979 247.457 0)
(-82.5034 300.763 0)
(-91.8655 327.333 0)
(-90.8532 318.907 0)
(-82.9984 289.162 0)
(-69.7899 244.743 0)
(-53.0051 193.404 0)
(-35.084 142.069 0)
(-18.6679 95.3938 0)
(-5.30874 55.9008 0)
(7.68111 25.3598 0)
(20.1572 -3.63199 0)
(29.8385 -23.6247 0)
(36.8998 -36.0303 0)
(40.9131 -42.4565 0)
(43.4283 -44.3293 0)
(45.1856 -43.0688 0)
(46.7853 -39.9948 0)
(48.4241 -35.9193 0)
(50.0881 -31.2405 0)
(51.8255 -26.1144 0)
(53.8092 -20.3521 0)
(56.0877 -13.5377 0)
(58.873 -5.64534 0)
(61.8775 2.52284 0)
(64.6286 8.86702 0)
(66.2408 10.6166 0)
(66.2039 6.03907 0)
(65.0639 -5.31175 0)
(61.6253 -23.1 0)
(56.5375 -44.7453 0)
(50.6442 -66.7053 0)
(43.9501 -86.1428 0)
(36.4918 -101.645 0)
(28.2075 -112.834 0)
(19.0617 -119.871 0)
(9.17421 -122.821 0)
(-1.02615 -122.302 0)
(-11.0869 -119.012 0)
(-20.6493 -113.05 0)
(-29.3207 -104.7 0)
(-36.7938 -94.4165 0)
(-42.8622 -82.7691 0)
(-47.4232 -70.3802 0)
(-50.4682 -57.8712 0)
(-52.0592 -45.8254 0)
(-52.3151 -34.7646 0)
(-51.4084 -25.1209 0)
(-49.5628 -17.1967 0)
(-47.05 -11.1242 0)
(-44.189 -6.85376 0)
(-41.289 -4.16368 0)
(-38.6229 -2.68059 0)
(-36.4071 -1.86724 0)
(-34.7971 -1.04659 0)
(-33.8426 0.460266 0)
(-33.2894 3.21101 0)
(-33.1532 7.70989 0)
(-33.2996 14.2459 0)
(-33.5828 22.8048 0)
(-33.9361 33.2274 0)
(-34.286 45.2437 0)
(-34.4862 58.4505 0)
(-34.4329 72.4199 0)
(-33.9694 86.6656 0)
(-32.9419 100.669 0)
(-31.2586 113.895 0)
(-28.94 125.688 0)
(-25.8799 134.866 0)
(-21.4944 139.052 0)
(-87.3934 29.4166 0)
(-90.5655 36.1491 0)
(-84.6092 45.3667 0)
(-69.6373 52.611 0)
(-50.0217 55.1524 0)
(-28.1967 51.8532 0)
(-6.44025 42.7914 0)
(11.7381 31.1937 0)
(26.0744 19.9501 0)
(36.0682 8.38798 0)
(42.2247 1.02171 0)
(46.7459 -6.05921 0)
(49.3629 -12.2038 0)
(50.9478 -16.8609 0)
(51.4721 -19.8875 0)
(51.4203 -21.9648 0)
(51.3799 -24.025 0)
(51.3325 -26.4355 0)
(51.1188 -29.3817 0)
(50.7161 -33.0341 0)
(50.4144 -37.1697 0)
(50.5584 -41.2256 0)
(49.806 -45.6739 0)
(44.8187 -53.4477 0)
(36.9625 -64.9935 0)
(42.3229 -68.367 0)
(81.2654 -44.3222 0)
(144.343 -0.995402 0)
(176.146 23.394 0)
(139.976 -1.25036 0)
(81.2187 -50.8215 0)
(16.7913 -99.844 0)
(-57.1214 -136.39 0)
(-89.7646 -149.472 0)
(-95.6517 -139.911 0)
(-93.0087 -122.523 0)
(-86.1686 -104.729 0)
(-76.8492 -87.9876 0)
(-66.3023 -72.6615 0)
(-55.1486 -59.5979 0)
(-43.5613 -49.7369 0)
(-31.5957 -44.249 0)
(-19.7816 -44.7303 0)
(-8.71272 -51.2544 0)
(0.76333 -59.6789 0)
(4.80766 -65.0558 0)
(3.76256 -63.1827 0)
(0.372633 -53.5096 0)
(-5.18458 -36.5497 0)
(-18.2969 -2.44192 0)
(-38.6096 51.5696 0)
(-59.6041 122.302 0)
(-75.8012 195.842 0)
(-90.5909 261.949 0)
(-102.394 310.832 0)
(-104.595 327.921 0)
(-96.1034 311.781 0)
(-81.2967 275.604 0)
(-61.9769 227.068 0)
(-40.6873 174.347 0)
(-20.3294 123.867 0)
(-3.43176 79.5625 0)
(10.4695 43.3874 0)
(26.062 11.5613 0)
(36.1268 -14.604 0)
(43.7632 -30.7669 0)
(48.2653 -40.3394 0)
(50.6642 -44.9263 0)
(52.071 -45.9081 0)
(52.9792 -44.3387 0)
(53.997 -41.299 0)
(55.1452 -37.3152 0)
(56.4098 -32.7384 0)
(57.7752 -27.7577 0)
(59.3314 -22.2656 0)
(61.1824 -15.8695 0)
(63.4443 -8.32141 0)
(65.9974 -0.123008 0)
(68.3997 6.88087 0)
(69.7549 9.87194 0)
(69.3676 6.81081 0)
(67.7072 -2.70497 0)
(64.2254 -18.6366 0)
(58.2597 -38.8858 0)
(51.4804 -59.9873 0)
(44.0574 -78.7638 0)
(36.0664 -93.59 0)
(27.5315 -104.066 0)
(18.4121 -110.425 0)
(8.77026 -112.88 0)
(-1.08249 -112.304 0)
(-10.8206 -109.295 0)
(-20.1374 -103.979 0)
(-28.6789 -96.6075 0)
(-36.1569 -87.5603 0)
(-42.3639 -77.3118 0)
(-47.1832 -66.3904 0)
(-50.5854 -55.3353 0)
(-52.6147 -44.6597 0)
(-53.3809 -34.8218 0)
(-53.0559 -26.1961 0)
(-51.8654 -19.039 0)
(-50.0667 -13.4487 0)
(-47.9412 -9.37342 0)
(-45.7575 -6.60626 0)
(-43.7693 -4.79987 0)
(-42.2005 -3.47203 0)
(-41.2062 -2.06175 0)
(-40.7425 -0.0349707 0)
(-40.6864 3.13277 0)
(-41.042 7.94375 0)
(-41.6137 14.6582 0)
(-42.2583 23.2843 0)
(-42.8597 33.6691 0)
(-43.2894 45.5207 0)
(-43.3996 58.4286 0)
(-43.0468 71.9481 0)
(-42.0617 85.5876 0)
(-40.3068 98.8683 0)
(-37.738 111.338 0)
(-34.4022 122.358 0)
(-30.113 130.541 0)
(-24.2306 133.18 0)
(-36.5483 43.9136 0)
(-35.4335 42.1729 0)
(-30.1752 43.0731 0)
(-19.4454 43.149 0)
(-5.67649 40.1345 0)
(8.66367 34.8615 0)
(22.8047 27.1004 0)
(33.5017 17.9026 0)
(41.0688 11.1864 0)
(46.7058 3.95331 0)
(49.9578 -3.02385 0)
(51.6648 -8.97814 0)
(52.221 -13.2445 0)
(51.7991 -16.4456 0)
(50.7824 -19.0797 0)
(49.6592 -21.2835 0)
(48.6755 -23.4369 0)
(47.7909 -25.8513 0)
(46.8767 -28.6663 0)
(45.7721 -31.9909 0)
(44.283 -35.9241 0)
(42.5213 -40.4535 0)
(40.9952 -45.0874 0)
(38.9198 -49.079 0)
(33.8652 -54.8996 0)
(24.075 -64.6962 0)
(18.6936 -71.4833 0)
(37.2536 -61.0491 0)
(86.8337 -25.1915 0)
(139.596 6.85018 0)
(137.9 9.06876 0)
(95.6419 -19.308 0)
(39.0715 -76.3403 0)
(-20.3553 -111.511 0)
(-77.3912 -127.847 0)
(-90.217 -125.778 0)
(-88.3964 -112.594 0)
(-81.8028 -97.0579 0)
(-72.3983 -82.7632 0)
(-61.747 -70.845 0)
(-50.3439 -61.7358 0)
(-38.5899 -56.5413 0)
(-27.2999 -56.4064 0)
(-17.721 -60.4266 0)
(-11.4781 -64.6185 0)
(-9.85382 -65.399 0)
(-11.9449 -60.3707 0)
(-17.062 -47.7578 0)
(-28.5312 -23.8132 0)
(-44.6884 16.0657 0)
(-65.5186 71.0587 0)
(-85.2487 139.928 0)
(-101.45 210.819 0)
(-114.459 273.366 0)
(-121.171 315.568 0)
(-114.249 320.257 0)
(-97.9289 296.976 0)
(-75.9141 255.391 0)
(-50.8763 204.34 0)
(-26.0083 152.014 0)
(-4.41129 104.183 0)
(12.6786 63.6776 0)
(29.9918 29.4734 0)
(41.9908 -1.6344 0)
(50.5064 -22.3654 0)
(55.5066 -35.4201 0)
(57.9461 -42.8948 0)
(59.0876 -46.2337 0)
(59.6473 -46.6697 0)
(59.9761 -45.0317 0)
(60.542 -42.1374 0)
(61.2983 -38.3239 0)
(62.2118 -33.8795 0)
(63.2201 -29.0211 0)
(64.3418 -23.7322 0)
(65.7298 -17.675 0)
(67.3915 -10.4529 0)
(69.3831 -2.30447 0)
(71.3493 5.26421 0)
(72.4022 9.46661 0)
(71.698 7.93142 0)
(69.5764 0.167153 0)
(65.9034 -13.6729 0)
(59.6029 -32.3081 0)
(51.8698 -52.4493 0)
(43.7268 -70.7332 0)
(35.1973 -85.1417 0)
(26.386 -95.1838 0)
(17.2882 -101.121 0)
(7.92702 -103.289 0)
(-1.5116 -102.684 0)
(-10.8335 -99.9269 0)
(-19.7821 -95.1752 0)
(-28.0448 -88.665 0)
(-35.3671 -80.7208 0)
(-41.5553 -71.7382 0)
(-46.4922 -62.1611 0)
(-50.1395 -52.4486 0)
(-52.5315 -43.0428 0)
(-53.7663 -34.3377 0)
(-54.0005 -26.6529 0)
(-53.4402 -20.2034 0)
(-52.3199 -15.0608 0)
(-50.8968 -11.1741 0)
(-49.4205 -8.34138 0)
(-48.1326 -6.2351 0)
(-47.2408 -4.44005 0)
(-46.8349 -2.52348 0)
(-46.82 -0.0343969 0)
(-47.2868 3.53953 0)
(-48.0952 8.63394 0)
(-49.0693 15.4669 0)
(-50.0424 24.0578 0)
(-50.849 34.2581 0)
(-51.3209 45.772 0)
(-51.3075 58.1961 0)
(-50.6354 71.0639 0)
(-49.1374 83.9033 0)
(-46.7045 96.3063 0)
(-43.3573 107.902 0)
(-39.1719 118.011 0)
(-33.7722 124.869 0)
(-26.6406 126.036 0)
(1.28618 39.9233 0)
(4.3339 35.6498 0)
(8.55391 34.3335 0)
(15.9551 32.0087 0)
(24.5676 27.723 0)
(31.8983 23.6948 0)
(39.1392 18.6646 0)
(44.6906 12.7811 0)
(48.3907 6.49883 0)
(51.1205 0.382721 0)
(52.4251 -4.70764 0)
(52.4463 -8.83228 0)
(51.6504 -12.2852 0)
(50.4043 -15.2263 0)
(49.0051 -17.7379 0)
(47.6273 -19.9888 0)
(46.334 -22.2301 0)
(45.0815 -24.6644 0)
(43.7618 -27.4046 0)
(42.252 -30.5062 0)
(40.4159 -33.987 0)
(38.0688 -37.8994 0)
(35.0982 -42.309 0)
(31.7314 -46.8816 0)
(28.2536 -51.0045 0)
(23.5656 -54.8029 0)
(15.0929 -60.1801 0)
(4.72881 -66.1119 0)
(3.35438 -64.9974 0)
(23.1938 -49.3449 0)
(75.304 -23.4541 0)
(114.08 -4.91108 0)
(95.8304 -8.60021 0)
(60.1749 -33.1192 0)
(9.53979 -83.1345 0)
(-39.5378 -104.451 0)
(-75.2584 -111.467 0)
(-81.629 -106.02 0)
(-76.591 -93.3682 0)
(-68.1421 -81.4675 0)
(-57.6032 -72.6531 0)
(-46.6415 -67.4581 0)
(-36.8077 -65.9789 0)
(-29.5362 -66.9267 0)
(-25.9691 -67.254 0)
(-26.4363 -64.1301 0)
(-30.6974 -55.2584 0)
(-40.3992 -37.8996 0)
(-54.3304 -7.99115 0)
(-72.527 34.8794 0)
(-92.7989 91.2675 0)
(-111.785 157.438 0)
(-127.384 224.397 0)
(-137.713 281.041 0)
(-136.515 311.433 0)
(-119.991 304.583 0)
(-95.3329 274.335 0)
(-66.2665 228.798 0)
(-36.4459 177.324 0)
(-9.45424 127.597 0)
(12.3539 84.0698 0)
(31.0663 47.4432 0)
(46.8979 14.2984 0)
(56.2192 -10.8993 0)
(62.0984 -27.5354 0)
(64.8059 -38.0815 0)
(65.8209 -44.0068 0)
(66.1127 -46.5944 0)
(66.1647 -46.8132 0)
(66.2095 -45.2927 0)
(66.4616 -42.591 0)
(66.9151 -38.976 0)
(67.4964 -34.6654 0)
(68.1223 -29.894 0)
(68.7689 -24.7374 0)
(69.5794 -18.9281 0)
(70.6942 -12.0108 0)
(72.0064 -3.95996 0)
(73.4619 4.05008 0)
(74.1827 9.39667 0)
(73.2007 9.38931 0)
(70.7197 3.29793 0)
(66.641 -8.46033 0)
(60.5971 -25.216 0)
(52.0245 -44.1671 0)
(43.1108 -62.0217 0)
(34.0479 -76.2674 0)
(24.9219 -86.1606 0)
(15.8025 -91.9526 0)
(6.70449 -94.0748 0)
(-2.29531 -93.5013 0)
(-11.1371 -90.9966 0)
(-19.6301 -86.7565 0)
(-27.5069 -81.0107 0)
(-34.5529 -74.0413 0)
(-40.5994 -66.1827 0)
(-45.5375 -57.807 0)
(-49.3276 -49.3018 0)
(-51.9957 -41.042 0)
(-53.6265 -33.3632 0)
(-54.3584 -26.5349 0)
(-54.3739 -20.7329 0)
(-53.8856 -16.0004 0)
(-53.1305 -12.279 0)
(-52.3456 -9.37103 0)
(-51.7518 -6.98612 0)
(-51.4992 -4.80246 0)
(-51.5613 -2.4664 0)
(-52.073 0.451707 0)
(-52.9975 4.4063 0)
(-54.2024 9.73364 0)
(-55.518 16.6154 0)
(-56.7521 25.071 0)
(-57.7079 34.9546 0)
(-58.187 45.9742 0)
(-58.0182 57.7359 0)
(-57.0112 69.7657 0)
(-55.0142 81.6353 0)
(-51.9798 93.039 0)
(-48.0196 103.701 0)
(-43.1928 112.812 0)
(-36.8269 117.971 0)
(-28.8277 117.994 0)
(20.5678 38.6063 0)
(23.4591 34.4564 0)
(26.9686 30.7506 0)
(31.3474 27.0642 0)
(35.9923 23.4949 0)
(40.0297 19.4377 0)
(44.2818 14.4732 0)
(47.6753 9.14572 0)
(49.7934 4.16614 0)
(50.8177 -0.391919 0)
(50.8938 -4.44516 0)
(50.2934 -8.01909 0)
(49.3067 -11.1663 0)
(48.11 -13.9168 0)
(46.8189 -16.3696 0)
(45.5094 -18.6595 0)
(44.2032 -20.9262 0)
(42.8541 -23.2966 0)
(41.361 -25.8589 0)
(39.6277 -28.6786 0)
(37.5717 -31.8097 0)
(35.0403 -35.2 0)
(31.8413 -38.6628 0)
(27.9948 -42.3457 0)
(23.5423 -46.9202 0)
(18.4913 -51.7605 0)
(12.4086 -53.2012 0)
(5.77805 -52.1346 0)
(-1.40331 -53.0927 0)
(-6.41646 -59.6629 0)
(-1.97 -64.0569 0)
(20.9277 -49.4385 0)
(59.5111 -28.0925 0)
(81.8651 -20.2119 0)
(59.7832 -23.1167 0)
(25.3337 -47.0497 0)
(-7.45945 -75.9199 0)
(-46.2628 -90.8806 0)
(-66.985 -94.5573 0)
(-71.6106 -91.1695 0)
(-66.7652 -84.2945 0)
(-58.551 -77.6534 0)
(-51.034 -73.6695 0)
(-46.0415 -71.2454 0)
(-44.6206 -67.5877 0)
(-47.2909 -60.2553 0)
(-54.6181 -46.8978 0)
(-67.1146 -24.5139 0)
(-82.6517 9.0294 0)
(-101.545 54.2574 0)
(-121.433 110.66 0)
(-139.755 173.967 0)
(-153.891 235.826 0)
(-159.119 283.001 0)
(-146.545 296.901 0)
(-120.077 280.102 0)
(-86.6732 243.738 0)
(-51.4022 196.642 0)
(-18.735 147.442 0)
(8.5402 102.467 0)
(30.3768 64.2555 0)
(48.9066 30.9107 0)
(59.9435 2.63202 0)
(66.7975 -17.1069 0)
(70.2248 -30.5694 0)
(71.4608 -39.2441 0)
(71.7698 -44.2646 0)
(71.7606 -46.5567 0)
(71.6867 -46.7415 0)
(71.7328 -45.3877 0)
(71.8457 -42.8331 0)
(72.0669 -39.3391 0)
(72.3054 -35.0807 0)
(72.4836 -30.3073 0)
(72.5756 -25.1853 0)
(72.7052 -19.55 0)
(73.1321 -12.912 0)
(73.8439 -5.02022 0)
(74.6888 3.29479 0)
(75.0898 9.65601 0)
(73.8838 11.1537 0)
(71.1668 6.68436 0)
(66.7611 -3.20634 0)
(60.7405 -17.7493 0)
(52.2346 -35.3713 0)
(42.3889 -52.6425 0)
(32.7619 -66.9255 0)
(23.2853 -76.9467 0)
(14.0634 -82.8601 0)
(5.16381 -85.2162 0)
(-3.40851 -84.7893 0)
(-11.7334 -82.5678 0)
(-19.7117 -78.7983 0)
(-27.1296 -73.7297 0)
(-33.8149 -67.6193 0)
(-39.6287 -60.7498 0)
(-44.4746 -53.433 0)
(-48.314 -45.9946 0)
(-51.166 -38.7506 0)
(-53.1049 -31.9829 0)
(-54.2538 -25.9148 0)
(-54.7757 -20.6842 0)
(-54.8618 -16.3105 0)
(-54.7296 -12.7166 0)
(-54.5981 -9.72487 0)
(-54.6352 -7.11414 0)
(-54.8693 -4.62248 0)
(-55.4572 -1.91611 0)
(-56.4385 1.40084 0)
(-57.7555 5.67613 0)
(-59.2886 11.1691 0)
(-60.8624 18.0271 0)
(-62.2732 26.2546 0)
(-63.3075 35.7017 0)
(-63.7465 46.0792 0)
(-63.3938 57.0112 0)
(-62.0586 68.0512 0)
(-59.6307 78.86 0)
(-56.1567 89.2725 0)
(-51.8141 99.0404 0)
(-46.4745 106.979 0)
(-39.2723 110.249 0)
(-30.7219 109.112 0)
(24.423 34.0016 0)
(27.9883 29.7871 0)
(31.6128 26.2244 0)
(35.1335 22.7462 0)
(38.5676 19.2284 0)
(41.8064 15.419 0)
(44.4686 11.2834 0)
(46.3098 7.19148 0)
(47.4234 3.25441 0)
(47.9071 -0.541417 0)
(47.8324 -4.10112 0)
(47.3467 -7.31584 0)
(46.5891 -10.1895 0)
(45.638 -12.7781 0)
(44.5556 -15.1533 0)
(43.3858 -17.3974 0)
(42.131 -19.5989 0)
(40.7491 -21.8411 0)
(39.1706 -24.198 0)
(37.3461 -26.7334 0)
(35.1396 -29.4054 0)
(32.5098 -32.2674 0)
(29.3774 -35.3788 0)
(25.6287 -38.4919 0)
(21.1965 -41.3422 0)
(15.7664 -44.2376 0)
(9.23332 -47.3225 0)
(2.69837 -49.6653 0)
(-2.34396 -51.0729 0)
(-6.92503 -52.8234 0)
(-13.557 -55.9438 0)
(-18.9731 -59.3145 0)
(-13.9341 -58.1965 0)
(5.43185 -49.1176 0)
(31.4362 -29.1551 0)
(42.6743 -29.753 0)
(25.4667 -34.9352 0)
(-0.208606 -53.447 0)
(-29.9244 -69.8525 0)
(-44.5822 -80.5762 0)
(-63.22 -84.4613 0)
(-68.077 -83.2724 0)
(-68.0928 -78.88 0)
(-67.5953 -73.6073 0)
(-68.8656 -65.7398 0)
(-74.0478 -53.8357 0)
(-84.1673 -35.9222 0)
(-98.1975 -9.4269 0)
(-115.197 26.9745 0)
(-134.898 73.7995 0)
(-154.798 129.56 0)
(-171.771 189.226 0)
(-181.332 243.103 0)
(-174.7 274.643 0)
(-147.916 271.759 0)
(-110.578 245.777 0)
(-69.7618 206.038 0)
(-31.2243 160.879 0)
(1.6785 116.84 0)
(27.3131 78.3488 0)
(47.4709 45.5686 0)
(61.439 17.2338 0)
(68.8784 -4.80295 0)
(73.1127 -20.7811 0)
(75.0093 -32.1101 0)
(75.7321 -39.7031 0)
(76.0707 -44.331 0)
(76.317 -46.5293 0)
(76.49 -46.7499 0)
(76.664 -45.4564 0)
(76.8119 -42.9604 0)
(76.7755 -39.4113 0)
(76.6015 -35.0618 0)
(76.2246 -30.1732 0)
(75.6551 -24.9856 0)
(75.0127 -19.4567 0)
(74.6018 -13.1155 0)
(74.6657 -5.48448 0)
(74.9105 2.97282 0)
(75.0524 10.1838 0)
(73.7331 13.1255 0)
(70.9104 10.2766 0)
(66.3807 2.05577 0)
(60.2131 -10.3808 0)
(52.3011 -26.2139 0)
(41.8106 -42.6475 0)
(31.4852 -57.0289 0)
(21.62 -67.4687 0)
(12.2348 -73.7995 0)
(3.42155 -76.6261 0)
(-4.80892 -76.5538 0)
(-12.6072 -74.6591 0)
(-20.0434 -71.3591 0)
(-26.9664 -66.9019 0)
(-33.2351 -61.5335 0)
(-38.7452 -55.5173 0)
(-43.4195 -49.1202 0)
(-47.2242 -42.6123 0)
(-50.1748 -36.2551 0)
(-52.3369 -30.2813 0)
(-53.8202 -24.8713 0)
(-54.7702 -20.1283 0)
(-55.3585 -16.0494 0)
(-55.783 -12.5483 0)
(-56.2163 -9.49467 0)
(-56.7119 -6.71072 0)
(-57.4523 -3.95358 0)
(-58.5083 -0.901766 0)
(-59.8863 2.75119 0)
(-61.5299 7.26809 0)
(-63.3131 12.8517 0)
(-65.0583 19.61 0)
(-66.5604 27.526 0)
(-67.6021 36.4425 0)
(-67.9566 46.0709 0)
(-67.4045 56.0482 0)
(-65.7768 65.9989 0)
(-63.0444 75.7151 0)
(-59.3742 85.1631 0)
(-54.9122 93.9893 0)
(-49.0324 100.376 0)
(-41.1296 102.216 0)
(-31.9252 99.7402 0)
(23.7531 29.9508 0)
(27.6767 26.5204 0)
(31.0975 23.2303 0)
(34.1908 20.0005 0)
(36.981 16.718 0)
(39.4175 13.3152 0)
(41.4232 9.74001 0)
(42.912 6.11003 0)
(43.8914 2.5722 0)
(44.4179 -0.799625 0)
(44.5391 -3.94191 0)
(44.32 -6.82255 0)
(43.8379 -9.46039 0)
(43.1505 -11.8841 0)
(42.2931 -14.1288 0)
(41.2823 -16.2478 0)
(40.1064 -18.2989 0)
(38.7246 -20.341 0)
(37.1057 -22.4517 0)
(35.188 -24.6611 0)
(32.9215 -26.9789 0)
(30.2201 -29.3764 0)
(27.0004 -31.7971 0)
(23.2718 -34.3263 0)
(19.0126 -37.0019 0)
(14.0846 -39.3321 0)
(8.54215 -40.9062 0)
(2.626 -42.327 0)
(-3.43109 -44.2707 0)
(-9.60479 -46.7184 0)
(-16.3872 -49.8331 0)
(-24.0214 -52.5559 0)
(-31.5006 -56.0016 0)
(-36.1304 -57.1936 0)
(-32.2141 -51.3822 0)
(-21.2665 -45.296 0)
(-8.29567 -39.8128 0)
(-1.10222 -38.4383 0)
(-10.3256 -44.4728 0)
(-28.5024 -56.1445 0)
(-49.1289 -65.1208 0)
(-66.1062 -71.4393 0)
(-78.364 -73.3808 0)
(-91.3128 -69.7874 0)
(-101.306 -60.2936 0)
(-112.015 -44.7899 0)
(-125.845 -22.7141 0)
(-142.364 7.39438 0)
(-161.64 46.3915 0)
(-181.572 94.0912 0)
(-198.507 147.665 0)
(-207.334 200.405 0)
(-200.901 239.655 0)
(-172.011 248.027 0)
(-131.227 232.313 0)
(-85.3292 200.993 0)
(-41.5366 164.08 0)
(-5.45983 125.603 0)
(21.3988 89.1944 0)
(43.9784 57.2278 0)
(58.9658 30.7126 0)
(67.971 8.49131 0)
(72.6192 -9.29324 0)
(75.4068 -23.0035 0)
(77.0704 -33.1932 0)
(78.2269 -40.3783 0)
(79.2443 -44.8745 0)
(80.1261 -46.9702 0)
(80.7574 -47.0791 0)
(81.2071 -45.6724 0)
(81.3375 -42.9711 0)
(80.9724 -39.1269 0)
(80.2647 -34.4956 0)
(79.2002 -29.3577 0)
(77.845 -24.0011 0)
(76.3378 -18.5089 0)
(74.9986 -12.492 0)
(74.2265 -5.29935 0)
(73.9577 3.02487 0)
(73.8498 10.8448 0)
(72.6144 15.1457 0)
(69.9093 13.9329 0)
(65.4948 7.33606 0)
(59.3709 -3.32809 0)
(51.6901 -16.921 0)
(41.8581 -32.3779 0)
(30.5611 -46.5738 0)
(20.1256 -57.6104 0)
(10.4542 -64.6347 0)
(1.57892 -68.1188 0)
(-6.47262 -68.8061 0)
(-13.7791 -67.2746 0)
(-20.6301 -64.43 0)
(-27.0257 -60.5329 0)
(-32.8526 -55.8356 0)
(-38.014 -50.563 0)
(-42.4563 -44.952 0)
(-46.1572 -39.2397 0)
(-49.1337 -33.6412 0)
(-51.4445 -28.343 0)
(-53.1842 -23.4861 0)
(-54.4791 -19.1438 0)
(-55.4866 -15.3034 0)
(-56.3663 -11.8866 0)
(-57.1886 -8.78845 0)
(-58.1341 -5.85257 0)
(-59.301 -2.83262 0)
(-60.735 0.521505 0)
(-62.4344 4.43922 0)
(-64.3274 9.1206 0)
(-66.2788 14.713 0)
(-68.1095 21.286 0)
(-69.6185 28.8041 0)
(-70.5963 37.101 0)
(-70.8225 45.8841 0)
(-70.0846 54.8197 0)
(-68.2793 63.6873 0)
(-65.527 72.4486 0)
(-62.1061 81.0974 0)
(-57.8258 88.8182 0)
(-51.1247 92.9136 0)
(-42.2394 93.0434 0)
(-31.6821 88.909 0)
(21.5427 25.4013 0)
(25.2522 22.597 0)
(28.4629 19.7909 0)
(31.3219 16.9367 0)
(33.8313 14.004 0)
(36.0613 11.0046 0)
(37.9303 7.92661 0)
(39.3863 4.82417 0)
(40.4395 1.77154 0)
(41.1255 -1.17802 0)
(41.4744 -3.97977 0)
(41.5233 -6.59583 0)
(41.3145 -9.01238 0)
(40.8759 -11.2362 0)
(40.2203 -13.291 0)
(39.3528 -15.2158 0)
(38.2554 -17.0465 0)
(36.8953 -18.8335 0)
(35.2762 -20.6674 0)
(33.3088 -22.5386 0)
(30.9679 -24.4366 0)
(28.2071 -26.3774 0)
(24.9949 -28.3976 0)
(21.2889 -30.4225 0)
(17.0691 -32.3095 0)
(12.3316 -33.9876 0)
(7.11668 -35.4556 0)
(1.48417 -36.8989 0)
(-4.52753 -38.6262 0)
(-10.8176 -40.5316 0)
(-17.5325 -42.4332 0)
(-25.0522 -44.3944 0)
(-33.528 -46.7454 0)
(-42.6653 -49.4508 0)
(-50.3353 -50.3239 0)
(-54.0374 -49.775 0)
(-54.9259 -48.4133 0)
(-53.2121 -45.6226 0)
(-51.0553 -44.0162 0)
(-53.2205 -44.8973 0)
(-61.3776 -47.1701 0)
(-76.2644 -51.1339 0)
(-95.031 -53.4918 0)
(-114.644 -51.3693 0)
(-134.461 -43.3662 0)
(-154.323 -27.9867 0)
(-174.458 -4.37143 0)
(-194.463 27.5286 0)
(-212.669 66.7713 0)
(-225.723 110.645 0)
(-228.116 153.853 0)
(-215.343 189.262 0)
(-182.622 205.74 0)
(-138.039 203.202 0)
(-87.7035 185.6 0)
(-42.0655 159.026 0)
(-16.3695 127.892 0)
(17.9423 96.9581 0)
(38.5789 66.6717 0)
(53.3637 41.68 0)
(63.0436 21.2294 0)
(68.717 3.19721 0)
(72.0552 -12.4349 0)
(74.9966 -25.1656 0)
(77.5468 -35.002 0)
(79.8275 -41.9653 0)
(81.8891 -46.2399 0)
(83.5504 -48.0583 0)
(84.6786 -47.8105 0)
(85.3915 -46.0137 0)
(85.2742 -42.7371 0)
(84.4435 -38.3432 0)
(83.0442 -33.2529 0)
(81.1556 -27.7587 0)
(78.902 -22.163 0)
(76.4444 -16.6543 0)
(74.1066 -10.963 0)
(72.3879 -4.36821 0)
(71.4939 3.48505 0)
(71.0291 11.4915 0)
(70.2397 16.9322 0)
(67.9461 17.3303 0)
(64.0428 12.4249 0)
(58.3418 3.3845 0)
(50.9688 -8.22629 0)
(42.0532 -21.7572 0)
(30.6881 -35.6328 0)
(19.1884 -47.1886 0)
(8.97115 -55.2344 0)
(-0.193773 -59.6486 0)
(-8.23839 -61.1891 0)
(-15.2758 -60.5158 0)
(-21.5515 -58.071 0)
(-27.3705 -54.6671 0)
(-32.7016 -50.5394 0)
(-37.4742 -45.9076 0)
(-41.6401 -40.975 0)
(-45.185 -35.9327 0)
(-48.1304 -30.9662 0)
(-50.5274 -26.2298 0)
(-52.4536 -21.8332 0)
(-54.0156 -17.8257 0)
(-55.3466 -14.1864 0)
(-56.5305 -10.8431 0)
(-57.6976 -7.70734 0)
(-58.9905 -4.61289 0)
(-60.4754 -1.36271 0)
(-62.1938 2.23167 0)
(-64.1311 6.34326 0)
(-66.2031 11.1127 0)
(-68.2598 16.6372 0)
(-70.1098 22.9596 0)
(-71.5539 30.0331 0)
(-72.4009 37.6765 0)
(-72.4586 45.5898 0)
(-71.5779 53.512 0)
(-69.8187 61.4287 0)
(-67.5493 69.507 0)
(-64.9585 77.4337 0)
(-60.5888 83.1094 0)
(-53.0028 84.7295 0)
(-42.7505 82.5446 0)
(-30.9282 76.6363 0)
(19.1398 21.6498 0)
(22.5927 19.3878 0)
(25.6329 16.9943 0)
(28.3484 14.4887 0)
(30.7473 11.8741 0)
(32.8746 9.16192 0)
(34.6954 6.3772 0)
(36.1973 3.57666 0)
(37.3808 0.825463 0)
(38.2531 -1.82469 0)
(38.8238 -4.33264 0)
(39.1084 -6.66869 0)
(39.1269 -8.82232 0)
(38.8933 -10.798 0)
(38.4124 -12.6122 0)
(37.6841 -14.2908 0)
(36.681 -15.8517 0)
(35.3906 -17.352 0)
(33.8037 -18.8679 0)
(31.8254 -20.369 0)
(29.4702 -21.8703 0)
(26.6801 -23.3749 0)
(23.4243 -24.8924 0)
(19.6912 -26.425 0)
(15.4895 -27.9343 0)
(10.8628 -29.2689 0)
(5.88103 -30.2533 0)
(0.516873 -31.0306 0)
(-5.40995 -32.1387 0)
(-11.9505 -33.7502 0)
(-18.8992 -35.2762 0)
(-26.228 -36.7269 0)
(-34.1957 -38.2039 0)
(-43.0609 -39.7619 0)
(-52.3893 -40.9804 0)
(-61.0902 -42.393 0)
(-68.7146 -43.653 0)
(-74.9854 -44.0621 0)
(-79.868 -43.5892 0)
(-84.158 -42.578 0)
(-89.2925 -41.0638 0)
(-96.2847 -38.9477 0)
(-107.752 -36.059 0)
(-123.06 -30.4239 0)
(-141.448 -20.7291 0)
(-161.211 -5.40894 0)
(-179.851 16.2668 0)
(-194.392 43.7279 0)
(-201.81 75.0778 0)
(-199.217 107.029 0)
(-185.522 135.914 0)
(-159.229 156.061 0)
(-122.325 162.026 0)
(-82.2936 155.787 0)
(-40.9777 142.976 0)
(-14.4355 124.194 0)
(12.4173 101.383 0)
(35.7923 75.0234 0)
(46.4359 52.1493 0)
(55.0238 32.788 0)
(61.2511 15.8776 0)
(65.706 -0.760372 0)
(69.4616 -15.8483 0)
(73.6811 -28.2946 0)
(77.6786 -37.9293 0)
(81.2975 -44.6718 0)
(84.415 -48.5337 0)
(86.735 -49.7303 0)
(88.2355 -48.8292 0)
(88.9521 -46.2744 0)
(88.2675 -42.0517 0)
(86.7753 -36.8838 0)
(84.5062 -31.1598 0)
(81.6671 -25.1906 0)
(78.4442 -19.2971 0)
(75.0079 -13.7533 0)
(71.6623 -8.41428 0)
(68.932 -2.56072 0)
(67.2337 4.47369 0)
(66.2952 12.081 0)
(65.9366 18.1773 0)
(64.4257 20.0122 0)
(61.5596 16.8331 0)
(56.8892 9.48037 0)
(50.3579 -0.465491 0)
(42.1884 -11.68 0)
(32.3861 -24.2295 0)
(20.0369 -35.8299 0)
(8.59022 -45.05 0)
(-1.40762 -50.9387 0)
(-9.82888 -53.7128 0)
(-16.8091 -53.9637 0)
(-22.7976 -52.3364 0)
(-28.0683 -49.3701 0)
(-32.8699 -45.7295 0)
(-37.1939 -41.6224 0)
(-41.0271 -37.2392 0)
(-44.3665 -32.7498 0)
(-47.2308 -28.3035 0)
(-49.6613 -24.0242 0)
(-51.717 -20.0002 0)
(-53.48 -16.2674 0)
(-55.0387 -12.7997 0)
(-56.4517 -9.52022 0)
(-57.8804 -6.32685 0)
(-59.4139 -3.07358 0)
(-61.1157 0.39117 0)
(-63.0214 4.2103 0)
(-65.1102 8.49214 0)
(-67.2832 13.2955 0)
(-69.3607 18.6493 0)
(-71.1277 24.5782 0)
(-72.4032 31.0632 0)
(-73.0693 37.9676 0)
(-73.0457 45.0474 0)
(-72.3479 52.1896 0)
(-71.2964 59.6588 0)
(-70.257 67.5559 0)
(-68.0257 74.2441 0)
(-61.98 76.6999 0)
(-52.7688 75.2021 0)
(-41.0617 70.2281 0)
(-25.3477 63.3291 0)
(17.1029 18.0372 0)
(20.2903 16.1654 0)
(23.1496 14.0937 0)
(25.7471 11.8825 0)
(28.0748 9.54236 0)
(30.1586 7.11061 0)
(31.9859 4.6338 0)
(33.5421 2.15834 0)
(34.8187 -0.270516 0)
(35.8182 -2.61157 0)
(36.5468 -4.82932 0)
(37.0125 -6.89593 0)
(37.2232 -8.79479 0)
(37.1804 -10.5204 0)
(36.8782 -12.0799 0)
(36.3055 -13.4881 0)
(35.4286 -14.755 0)
(34.2377 -15.9372 0)
(32.722 -17.1063 0)
(30.7696 -18.2141 0)
(28.42 -19.2845 0)
(25.6211 -20.3342 0)
(22.3634 -21.3995 0)
(18.6364 -22.4724 0)
(14.4409 -23.5102 0)
(9.83348 -24.4463 0)
(4.91111 -25.1272 0)
(-0.329627 -25.4623 0)
(-6.12647 -25.9027 0)
(-12.7451 -27.0498 0)
(-19.9192 -28.2452 0)
(-27.2724 -29.1984 0)
(-35.0748 -30.0372 0)
(-43.4536 -30.8935 0)
(-52.3511 -31.7922 0)
(-61.6011 -32.8965 0)
(-70.908 -34.223 0)
(-79.8258 -35.4852 0)
(-87.8601 -36.3655 0)
(-94.9328 -36.6102 0)
(-101.653 -35.8286 0)
(-107.323 -32.6402 0)
(-113.376 -27.0043 0)
(-120.515 -18.5591 0)
(-129.025 -6.89683 0)
(-138.43 8.47982 0)
(-146.038 27.3544 0)
(-149.951 49.0145 0)
(-148.042 72.4285 0)
(-139.212 95.2753 0)
(-122.55 114.089 0)
(-98.7621 126.004 0)
(-69.3134 129.194 0)
(-39.001 124.596 0)
(-15.2329 115.073 0)
(7.42112 101.732 0)
(23.5426 83.5376 0)
(34.1659 63.3739 0)
(42.1752 44.1289 0)
(49.0247 27.052 0)
(56.0817 11.1325 0)
(61.4245 -5.6955 0)
(67.1292 -20.7316 0)
(73.0523 -33.1394 0)
(78.4366 -42.5402 0)
(83.0976 -48.7034 0)
(86.8044 -51.6627 0)
(89.3288 -51.8429 0)
(90.8768 -49.9462 0)
(90.8782 -46.0114 0)
(89.5178 -40.6016 0)
(87.2205 -34.514 0)
(84.0655 -28.1396 0)
(80.2786 -21.7327 0)
(76.0501 -15.5573 0)
(71.6029 -9.9528 0)
(67.2602 -4.90808 0)
(63.5321 0.188956 0)
(60.9418 6.16141 0)
(59.4159 12.8305 0)
(58.9705 18.738 0)
(58.4785 21.5742 0)
(56.9462 19.9495 0)
(53.9112 14.3991 0)
(49.0123 6.14141 0)
(42.2679 -3.40901 0)
(33.9904 -13.3511 0)
(23.8358 -24.1839 0)
(11.6096 -33.3645 0)
(0.172846 -40.8266 0)
(-9.68155 -45.8766 0)
(-17.4774 -47.5969 0)
(-23.7779 -46.7673 0)
(-29.0912 -44.5932 0)
(-33.4594 -41.4165 0)
(-37.317 -37.7532 0)
(-40.7663 -33.8032 0)
(-43.8416 -29.7237 0)
(-46.5717 -25.6599 0)
(-48.9828 -21.7258 0)
(-51.1103 -17.9995 0)
(-53.0053 -14.5095 0)
(-54.7075 -11.208 0)
(-56.2777 -7.99399 0)
(-57.8508 -4.76334 0)
(-59.502 -1.40271 0)
(-61.2928 2.20821 0)
(-63.2735 6.17551 0)
(-65.4497 10.5479 0)
(-67.7177 15.3114 0)
(-69.8246 20.455 0)
(-71.4574 26.0345 0)
(-72.4414 32.0806 0)
(-72.8925 38.4627 0)
(-73.1615 44.9422 0)
(-73.5966 51.6385 0)
(-74.2086 59.238 0)
(-73.4255 66.3418 0)
(-67.932 69.1316 0)
(-58.7146 68.2366 0)
(-46.1702 63.4699 0)
(-31.5023 55.5233 0)
(-14.9116 46.6119 0)
(15.4818 14.8595 0)
(18.3892 13.2819 0)
(21.0543 11.4747 0)
(23.501 9.5095 0)
(25.7359 7.40991 0)
(27.7581 5.21496 0)
(29.5665 2.97638 0)
(31.1505 0.740504 0)
(32.5038 -1.4479 0)
(33.6251 -3.54691 0)
(34.5125 -5.5209 0)
(35.1618 -7.34169 0)
(35.5664 -8.98953 0)
(35.7144 -10.4538 0)
(35.5885 -11.7363 0)
(35.1696 -12.8462 0)
(34.417 -13.7883 0)
(33.3151 -14.6176 0)
(31.8657 -15.4061 0)
(29.926 -16.0861 0)
(27.5759 -16.7112 0)
(24.7664 -17.3085 0)
(21.5012 -17.9107 0)
(17.7802 -18.5102 0)
(13.6038 -19.105 0)
(9.0213 -19.7087 0)
(4.13471 -20.1622 0)
(-1.00466 -20.0898 0)
(-6.55857 -19.6544 0)
(-12.9687 -19.9936 0)
(-20.3694 -20.9315 0)
(-27.9265 -21.4604 0)
(-35.7804 -21.911 0)
(-44.1973 -22.318 0)
(-53.0904 -22.9037 0)
(-62.2178 -23.8025 0)
(-71.3794 -25.0877 0)
(-80.3336 -26.6033 0)
(-88.7385 -28.0088 0)
(-96.1955 -28.8856 0)
(-102.691 -28.9492 0)
(-108.425 -27.4544 0)
(-112.227 -22.5774 0)
(-115.169 -14.017 0)
(-117.478 -1.7982 0)
(-118.957 13.0241 0)
(-118.988 29.1223 0)
(-116.231 46.581 0)
(-109.152 64.8895 0)
(-97.4395 82.5341 0)
(-80.7319 96.1989 0)
(-60.6039 103.034 0)
(-39.9048 104.391 0)
(-20.6414 102.478 0)
(-3.84059 96.0121 0)
(10.5671 86.6732 0)
(21.9545 73.3457 0)
(30.5976 55.5408 0)
(37.9995 36.581 0)
(45.1776 20.1221 0)
(53.7851 4.30575 0)
(60.4974 -12.5957 0)
(67.506 -27.4112 0)
(74.2112 -39.3689 0)
(79.9428 -48.0083 0)
(84.5696 -53.1083 0)
(87.862 -54.8007 0)
(89.9142 -53.7026 0)
(90.8349 -50.3792 0)
(89.9711 -44.9862 0)
(87.9654 -38.5259 0)
(84.7141 -31.4616 0)
(80.5373 -24.2329 0)
(75.7362 -17.1596 0)
(70.5782 -10.6496 0)
(65.2855 -5.04933 0)
(60.1831 -0.40232 0)
(55.721 3.89207 0)
(52.3614 8.71095 0)
(50.2598 14.1592 0)
(49.3551 19.123 0)
(49.51 22.0411 0)
(49.059 21.3387 0)
(47.8299 17.4023 0)
(45.0758 10.9553 0)
(40.5548 3.11444 0)
(34.4103 -5.07369 0)
(27.1025 -13.3941 0)
(16.2653 -22.4414 0)
(8.40244 -29.6942 0)
(-3.65031 -35.6728 0)
(-14.079 -39.7139 0)
(-21.9111 -40.7219 0)
(-28.4982 -39.6742 0)
(-33.6296 -37.4795 0)
(-37.4707 -34.3124 0)
(-40.7368 -30.7199 0)
(-43.6368 -26.9627 0)
(-46.2616 -23.198 0)
(-48.6444 -19.5212 0)
(-50.8019 -16.0093 0)
(-52.7588 -12.6993 0)
(-54.5397 -9.53043 0)
(-56.1711 -6.36301 0)
(-57.7734 -3.08225 0)
(-59.418 0.410477 0)
(-61.1575 4.23764 0)
(-63.0599 8.49536 0)
(-65.1627 13.1188 0)
(-67.3445 17.8604 0)
(-69.2791 22.4518 0)
(-70.6774 27.0388 0)
(-71.7407 32.1262 0)
(-73.254 38.3333 0)
(-75.7449 45.8445 0)
(-77.8264 53.5728 0)
(-76.3393 59.6287 0)
(-69.7067 61.6246 0)
(-58.977 59.4279 0)
(-44.9109 54.4419 0)
(-28.6934 47.2162 0)
(-9.77469 39.2108 0)
(14.905 24.8831 0)
(14.1018 12.0078 0)
(16.7253 10.615 0)
(19.1745 8.99618 0)
(21.4623 7.21782 0)
(23.5955 5.30056 0)
(25.5583 3.29094 0)
(27.3582 1.24903 0)
(28.9801 -0.780237 0)
(30.4133 -2.75519 0)
(31.6511 -4.63545 0)
(32.683 -6.38486 0)
(33.4933 -7.97248 0)
(34.0622 -9.37359 0)
(34.3656 -10.5714 0)
(34.3755 -11.5625 0)
(34.067 -12.352 0)
(33.3888 -12.9389 0)