/*--------------------------------*- C++ -*----------------------------------*\
| =========                 |                                                 |
| \\      /  F ield         | OpenFOAM: The Open Source CFD Toolbox           |
|  \\    /   O peration     | Version:  2206                                  |
|   \\  /    A nd           | Website:  www.openfoam.com                      |
|    \\/     M anipulation  |                                                 |
\*---------------------------------------------------------------------------*/
FoamFile
{
    version     2.0;
    format      ascii;
    arch        "LSB;label=32;scalar=64";
    class       surfaceScalarField;
    location    "18.3";
    object      phi;
}
// * * * * * * * * * * * * * * * * * * * * * * * * * * * * * * * * * * * * * //

dimensions      [0 3 -1 0 0 0 0];

oriented        oriented;

internalField   nonuniform List<scalar> 
6027
(
-7.59392e-07
-4.56687e-07
-1.41136e-06
3.15632e-06
-1.88964e-06
7.09375e-06
-2.07936e-06
9.94517e-06
-2.01954e-06
1.15081e-05
-1.88933e-06
1.19923e-05
-1.73856e-06
1.20578e-05
-1.60402e-06
1.19461e-05
-1.49022e-06
1.18042e-05
-1.39484e-06
1.16863e-05
-1.31286e-06
1.15871e-05
-1.2417e-06
1.1498e-05
-1.18011e-06
1.14191e-05
-1.12653e-06
1.13483e-05
-1.07832e-06
1.12774e-05
-1.02864e-06
1.11791e-05
-9.56251e-07
1.09358e-05
-8.09429e-07
1.0194e-05
-4.94408e-07
8.04902e-06
2.69386e-06
1.00231e-06
-3.13453e-07
-1.14554e-06
2.32722e-06
-3.12828e-07
-1.01209e-06
3.60186e-06
-4.94539e-07
-7.80096e-07
4.81813e-06
-8.33374e-07
-3.82894e-07
5.91924e-06
-1.27783e-06
1.76719e-07
6.85598e-06
-1.77109e-06
8.34359e-07
7.60673e-06
-2.25732e-06
1.50657e-06
8.17423e-06
-2.68968e-06
2.12217e-06
8.57506e-06
-3.05178e-06
2.65095e-06
8.83054e-06
-3.33287e-06
3.0774e-06
8.96141e-06
-3.54209e-06
3.41121e-06
8.99637e-06
-3.68998e-06
3.65502e-06
8.95186e-06
-3.78155e-06
3.82607e-06
8.84171e-06
-3.82627e-06
3.93641e-06
8.67277e-06
-3.82536e-06
3.9943e-06
8.45983e-06
-3.78499e-06
3.99793e-06
8.21366e-06
-3.71148e-06
3.95765e-06
7.94678e-06
-3.60858e-06
3.87547e-06
7.66997e-06
-3.47863e-06
3.75543e-06
7.39084e-06
-3.32357e-06
3.60271e-06
7.11375e-06
-3.14587e-06
3.42295e-06
6.84443e-06
-2.94907e-06
3.21839e-06
6.59556e-06
-2.73407e-06
2.98293e-06
6.37441e-06
-2.49393e-06
2.71508e-06
6.14156e-06
-2.22114e-06
2.454e-06
5.79375e-06
-1.94058e-06
2.28838e-06
5.25035e-06
-1.7328e-06
2.2762e-06
4.60584e-06
-1.67786e-06
2.32238e-06
4.0718e-06
-1.72424e-06
2.25827e-06
3.79777e-06
-1.71845e-06
1.99248e-06
3.81547e-06
-1.53911e-06
1.52141e-06
4.10206e-06
-1.17694e-06
8.90356e-07
4.56164e-06
-6.36413e-07
1.76835e-07
5.07546e-06
-2.85531e-09
-5.10966e-07
5.5788e-06
6.19724e-07
-1.12307e-06
6.04875e-06
1.1772e-06
-1.64715e-06
6.47433e-06
1.65531e-06
-2.08089e-06
6.84984e-06
2.05263e-06
-2.42814e-06
7.17289e-06
2.37382e-06
-2.69688e-06
7.44379e-06
2.62673e-06
-2.89763e-06
7.66498e-06
2.82147e-06
-3.04265e-06
7.83968e-06
2.97056e-06
-3.14527e-06
7.97088e-06
3.0882e-06
-3.2194e-06
8.06051e-06
3.19369e-06
-3.28333e-06
8.11069e-06
3.30827e-06
-3.35845e-06
8.12814e-06
3.4442e-06
-3.46164e-06
8.12692e-06
3.60227e-06
-3.60106e-06
8.12557e-06
3.76491e-06
-3.76357e-06
8.136e-06
3.90313e-06
-3.91357e-06
8.16131e-06
3.99416e-06
-4.01947e-06
8.20987e-06
4.01311e-06
-4.06167e-06
8.31247e-06
3.91041e-06
-4.01301e-06
8.46028e-06
3.61094e-06
-3.75874e-06
8.64645e-06
3.10679e-06
-3.29296e-06
8.86763e-06
2.41677e-06
-2.63795e-06
9.1151e-06
1.5803e-06
-1.82776e-06
9.37057e-06
6.67627e-07
-9.23107e-07
9.61041e-06
-2.24913e-07
-1.49248e-08
9.81867e-06
-1.03225e-06
8.23991e-07
9.98292e-06
-1.71407e-06
1.54982e-06
1.00972e-05
-2.25161e-06
2.13734e-06
1.01623e-05
-2.6456e-06
2.5805e-06
1.01831e-05
-2.9092e-06
2.88838e-06
1.01672e-05
-3.06462e-06
3.08053e-06
1.01197e-05
-3.13082e-06
3.17834e-06
1.00423e-05
-3.11939e-06
3.19681e-06
9.93968e-06
-3.05226e-06
3.15483e-06
9.82121e-06
-2.95029e-06
3.06876e-06
9.69307e-06
-2.82913e-06
2.95727e-06
9.55864e-06
-2.70088e-06
2.83531e-06
9.41948e-06
-2.57432e-06
2.71349e-06
9.27587e-06
-2.45518e-06
2.59879e-06
9.12771e-06
-2.34673e-06
2.49489e-06
8.97481e-06
-2.25106e-06
2.40396e-06
8.81683e-06
-2.16974e-06
2.32772e-06
8.65308e-06
-2.1048e-06
2.26856e-06
8.48249e-06
-2.05959e-06
2.23017e-06
8.30438e-06
-2.03814e-06
2.21625e-06
8.11927e-06
-2.04248e-06
2.22758e-06
7.92956e-06
-2.0686e-06
2.25832e-06
7.73916e-06
-2.1038e-06
2.2942e-06
7.55265e-06
-2.12885e-06
2.31536e-06
7.37515e-06
-2.12325e-06
2.30075e-06
7.2115e-06
-2.0671e-06
2.23075e-06
7.06499e-06
-1.94729e-06
2.09381e-06
6.93742e-06
-1.76181e-06
1.88937e-06
6.83018e-06
-1.51838e-06
1.62563e-06
6.74483e-06
-1.2298e-06
1.31515e-06
6.68329e-06
-9.0994e-07
9.71478e-07
6.64758e-06
-5.71587e-07
6.073e-07
6.63933e-06
-2.26139e-07
2.34384e-07
6.65904e-06
1.16591e-07
-1.36298e-07
6.70606e-06
4.49654e-07
-4.96671e-07
6.77869e-06
7.66489e-07
-8.39128e-07
6.8743e-06
1.06118e-06
-1.15678e-06
6.98947e-06
1.32883e-06
-1.444e-06
7.12032e-06
1.56587e-06
-1.69672e-06
7.26273e-06
1.77022e-06
-1.91263e-06
7.41261e-06
1.94131e-06
-2.09118e-06
7.56606e-06
2.08001e-06
-2.23346e-06
7.71957e-06
2.18855e-06
-2.34206e-06
7.87014e-06
2.27024e-06
-2.42081e-06
8.01538e-06
2.32919e-06
-2.47444e-06
8.15366e-06
2.36983e-06
-2.50811e-06
8.28418e-06
2.39649e-06
-2.52701e-06
8.40701e-06
2.41304e-06
-2.53587e-06
8.52298e-06
2.42247e-06
-2.53844e-06
8.6335e-06
2.42642e-06
-2.53694e-06
8.74027e-06
2.42479e-06
-2.53156e-06
8.84483e-06
2.41578e-06
-2.52034e-06
8.9484e-06
2.39614e-06
-2.49971e-06
9.05191e-06
2.36138e-06
-2.46489e-06
9.15603e-06
2.30618e-06
-2.4103e-06
9.26119e-06
2.22533e-06
-2.33049e-06
9.3676e-06
2.11411e-06
-2.22052e-06
9.47521e-06
1.96865e-06
-2.07627e-06
9.58361e-06
1.78623e-06
-1.89462e-06
9.69197e-06
1.56535e-06
-1.67371e-06
9.799e-06
1.30589e-06
-1.41292e-06
9.90298e-06
1.00908e-06
-1.11305e-06
1.0002e-05
6.77477e-07
-7.76481e-07
1.00939e-05
3.15145e-07
-4.07027e-07
-7.0882e-08
-1.14085e-08
4.22845e-06
-1.38558e-06
5.32829e-06
-1.41267e-06
6.38431e-06
-1.55056e-06
7.33333e-06
-1.78239e-06
8.13044e-06
-2.07494e-06
8.75449e-06
-2.39515e-06
9.20571e-06
-2.70854e-06
9.49817e-06
-2.98214e-06
9.65235e-06
-3.20595e-06
9.69992e-06
-3.38045e-06
9.66211e-06
-3.50428e-06
9.55636e-06
-3.58423e-06
9.39484e-06
-3.62003e-06
9.18776e-06
-3.61918e-06
8.94815e-06
-3.58575e-06
8.68768e-06
-3.52452e-06
8.41538e-06
-3.43918e-06
8.13868e-06
-3.33189e-06
7.86376e-06
-3.20371e-06
7.59564e-06
-3.05545e-06
7.33744e-06
-2.88766e-06
7.08978e-06
-2.70141e-06
6.85405e-06
-2.49834e-06
6.64036e-06
-2.28024e-06
6.46239e-06
-2.04317e-06
6.29779e-06
-1.77598e-06
6.0546e-06
-1.48961e-06
5.62834e-06
-1.2516e-06
5.04829e-06
-1.14418e-06
4.49853e-06
-1.1687e-06
4.15967e-06
-1.20025e-06
4.09355e-06
-1.11082e-06
4.30465e-06
-8.47521e-07
4.71668e-06
-4.14878e-07
5.2086e-06
1.27801e-07
5.69525e-06
6.9055e-07
6.14989e-06
1.20067e-06
6.56135e-06
1.64117e-06
6.92446e-06
2.01072e-06
7.23782e-06
2.31336e-06
7.50133e-06
2.55796e-06
7.71617e-06
2.75572e-06
7.88406e-06
2.92031e-06
8.0078e-06
3.06995e-06
8.0932e-06
3.22287e-06
8.15063e-06
3.38677e-06
8.19629e-06
3.55662e-06
8.24504e-06
3.71616e-06
8.30383e-06
3.84434e-06
8.38044e-06
3.91755e-06
8.49455e-06
3.899e-06
8.66379e-06
3.74117e-06
8.87551e-06
3.39921e-06
9.12126e-06
2.86104e-06
9.39336e-06
2.14467e-06
9.67895e-06
1.29472e-06
9.9529e-06
3.93676e-07
1.01929e-05
-4.64921e-07
1.03843e-05
-1.22366e-06
1.05184e-05
-1.84817e-06
1.0594e-05
-2.32718e-06
1.06159e-05
-2.6675e-06
1.05935e-05
-2.88679e-06
1.05344e-05
-3.00557e-06
1.04413e-05
-3.03767e-06
1.03212e-05
-2.99926e-06
1.01834e-05
-2.91452e-06
1.00349e-05
-2.80176e-06
9.88009e-06
-2.67432e-06
9.72125e-06
-2.54205e-06
9.55911e-06
-2.41219e-06
9.39347e-06
-2.28954e-06
9.22401e-06
-2.17726e-06
9.05048e-06
-2.07753e-06
8.87265e-06
-1.9919e-06
8.69e-06
-1.92215e-06
8.50171e-06
-1.87129e-06
8.30709e-06
-1.84352e-06
8.10654e-06
-1.84193e-06
7.90233e-06
-1.8644e-06
7.69851e-06
-1.89997e-06
7.49983e-06
-1.93017e-06
7.31143e-06
-1.93485e-06
7.13891e-06
-1.89458e-06
6.98631e-06
-1.79469e-06
6.85558e-06
-1.63108e-06
6.74758e-06
-1.41039e-06
6.66309e-06
-1.1453e-06
6.60312e-06
-8.49968e-07
6.56887e-06
-5.37338e-07
6.56139e-06
-2.1866e-07
6.58091e-06
9.70706e-08
6.62685e-06
4.0371e-07
6.69776e-06
6.95578e-07
6.79132e-06
9.67622e-07
6.90448e-06
1.21567e-06
7.03373e-06
1.43663e-06
7.17527e-06
1.62868e-06
7.32529e-06
1.79129e-06
7.4801e-06
1.9252e-06
7.63639e-06
2.03225e-06
7.79136e-06
2.11527e-06
7.94283e-06
2.17772e-06
8.08934e-06
2.22332e-06
8.23015e-06
2.25568e-06
8.36527e-06
2.27792e-06
8.49545e-06
2.29229e-06
8.622e-06
2.29987e-06
8.74646e-06
2.30033e-06
8.8702e-06
2.29204e-06
8.99432e-06
2.27202e-06
9.11969e-06
2.23601e-06
9.24676e-06
2.17911e-06
9.37566e-06
2.09643e-06
9.50618e-06
1.9836e-06
9.63772e-06
1.83711e-06
9.76931e-06
1.65463e-06
9.89952e-06
1.43515e-06
1.00264e-05
1.17899e-06
1.01477e-05
8.87755e-07
1.02611e-05
5.64095e-07
1.03641e-05
2.1215e-07
-1.60398e-07
7.69531e-06
-1.98713e-06
8.32871e-06
-2.04607e-06
8.92295e-06
-2.1448e-06
9.44103e-06
-2.30047e-06
9.85118e-06
-2.48509e-06
1.01334e-05
-2.67737e-06
1.02926e-05
-2.86778e-06
1.0346e-05
-3.03546e-06
1.0311e-05
-3.17096e-06
1.02066e-05
-3.27603e-06
1.00474e-05
-3.3451e-06
9.84404e-06
-3.3809e-06
9.60978e-06
-3.38577e-06
9.35452e-06
-3.36392e-06
9.08749e-06
-3.31873e-06
8.81549e-06
-3.25251e-06
8.54326e-06
-3.16696e-06
8.27448e-06
-3.06311e-06
8.01229e-06
-2.94152e-06
7.75953e-06
-2.80268e-06
7.51884e-06
-2.64697e-06
7.29228e-06
-2.47485e-06
7.0802e-06
-2.28626e-06
6.88314e-06
-2.08318e-06
6.70832e-06
-1.86835e-06
6.57078e-06
-1.63845e-06
6.46813e-06
-1.38696e-06
6.3368e-06
-1.12027e-06
6.0684e-06
-8.75785e-07
5.61012e-06
-7.10409e-07
5.07588e-06
-6.66019e-07
4.6498e-06
-6.84737e-07
4.45585e-06
-6.5357e-07
4.53087e-06
-4.89897e-07
4.85765e-06
-1.98983e-07
5.31551e-06
2.32693e-07
5.79389e-06
7.22289e-07
6.24169e-06
1.19337e-06
6.646e-06
1.60642e-06
7.00219e-06
1.95717e-06
7.30765e-06
2.25249e-06
7.56288e-06
2.5005e-06
7.76967e-06
2.71352e-06
7.93232e-06
2.9073e-06
8.05963e-06
3.09556e-06
8.16435e-06
3.28205e-06
8.26061e-06
3.46035e-06
8.36007e-06
3.6167e-06
8.47312e-06
3.7313e-06
8.61424e-06
3.77642e-06
8.79822e-06
3.71503e-06
9.03026e-06
3.50913e-06
9.30268e-06
3.1268e-06
9.60484e-06
2.55887e-06
9.92455e-06
1.82496e-06
1.02415e-05
9.77773e-07
1.05252e-05
1.10011e-07
1.07564e-05
-6.96127e-07
1.0923e-05
-1.39025e-06
1.10209e-05
-1.9461e-06
1.1054e-05
-2.36034e-06
1.1032e-05
-2.64551e-06
1.09659e-05
-2.82065e-06
1.08622e-05
-2.90185e-06
1.07266e-05
-2.9021e-06
1.05712e-05
-2.84381e-06
1.04039e-05
-2.74725e-06
1.02297e-05
-2.62761e-06
1.00516e-05
-2.49618e-06
9.87071e-06
-2.36115e-06
9.68719e-06
-2.22866e-06
9.50065e-06
-2.103e-06
9.31074e-06
-1.98735e-06
9.11731e-06
-1.88411e-06
8.92036e-06
-1.79495e-06
8.71971e-06
-1.7215e-06
8.51481e-06
-1.6664e-06
8.30513e-06
-1.63383e-06
8.09092e-06
-1.62772e-06
7.87423e-06
-1.64772e-06
7.6591e-06
-1.68484e-06
7.45044e-06
-1.72151e-06
7.25334e-06
-1.73775e-06
7.07362e-06
-1.71486e-06
6.9162e-06
-1.63727e-06
6.78359e-06
-1.49847e-06
6.67631e-06
-1.30311e-06
6.59433e-06
-1.06332e-06
6.53771e-06
-7.93352e-07
6.50677e-06
-5.06395e-07
6.50177e-06
-2.13658e-07
6.52263e-06
7.62052e-08
6.56873e-06
3.57607e-07
6.63874e-06
6.25575e-07
6.73058e-06
8.75783e-07
6.84156e-06
1.10468e-06
6.96852e-06
1.30966e-06
7.10807e-06
1.48913e-06
7.25673e-06
1.64263e-06
7.41117e-06
1.77076e-06
7.56836e-06
1.87506e-06
7.72574e-06
1.95789e-06
7.88132e-06
2.02213e-06
8.0338e-06
2.07085e-06
8.18252e-06
2.10696e-06
8.32754e-06
2.1329e-06
8.46957e-06
2.15026e-06
8.60979e-06
2.15965e-06
8.74947e-06
2.16065e-06
8.88982e-06
2.15169e-06
9.03192e-06
2.12992e-06
9.1765e-06
2.09143e-06
9.32382e-06
2.03179e-06
9.47366e-06
1.94658e-06
9.62539e-06
1.83187e-06
9.77791e-06
1.68459e-06
9.92969e-06
1.50285e-06
1.00787e-05
1.28613e-06
1.02225e-05
1.03519e-06
1.03584e-05
7.51855e-07
1.04838e-05
4.38719e-07
1.0596e-05
9.99525e-08
-2.55566e-07
1.01604e-05
-2.20239e-06
1.03929e-05
-2.27858e-06
1.06088e-05
-2.36066e-06
1.07758e-05
-2.46747e-06
1.08738e-05
-2.58304e-06
1.08989e-05
-2.70248e-06
1.08548e-05
-2.82368e-06
1.07518e-05
-2.9325e-06
1.06015e-05
-3.02066e-06
1.04099e-05
-3.08438e-06
1.01876e-05
-3.12288e-06
9.9442e-06
-3.13748e-06
9.68835e-06
-3.12992e-06
9.42624e-06
-3.10181e-06
9.16219e-06
-3.05468e-06
8.89939e-06
-2.98971e-06
8.64028e-06
-2.90785e-06
8.38695e-06
-2.80977e-06
8.14139e-06
-2.69596e-06
7.90551e-06
-2.5668e-06
7.68128e-06
-2.42275e-06
7.47076e-06
-2.26432e-06
7.27632e-06
-2.09182e-06
7.09969e-06
-1.90655e-06
6.9407e-06
-1.70936e-06
6.80125e-06
-1.499e-06
6.69197e-06
-1.27767e-06
6.62431e-06
-1.05261e-06
6.57782e-06
-8.29293e-07
6.47693e-06
-6.09526e-07
6.21872e-06
-4.078e-07
5.79626e-06
-2.62279e-07
5.35371e-06
-2.11026e-07
5.05222e-06
-1.88399e-07
4.95619e-06
-1.02957e-07
5.09763e-06
9.12553e-08
5.4397e-06
3.80218e-07
5.87175e-06
7.6132e-07
6.30622e-06
1.17194e-06
6.7067e-06
1.5567e-06
7.0593e-06
1.89989e-06
7.3609e-06
2.1989e-06
7.61372e-06
2.4607e-06
7.82403e-06
2.69699e-06
8.00191e-06
2.91769e-06
8.16015e-06
3.12381e-06
8.31192e-06
3.30858e-06
8.46975e-06
3.45887e-06
8.64666e-06
3.55439e-06
8.85638e-06
3.5667e-06
9.10728e-06
3.46413e-06
9.4011e-06
3.21531e-06
9.73118e-06
2.79672e-06
1.00856e-05
2.20448e-06
1.04465e-05
1.46406e-06
1.0784e-05
6.40282e-07
1.10669e-05
-1.72959e-07
1.1279e-05
-9.08196e-07
1.14124e-05
-1.52364e-06
1.14689e-05
-2.00261e-06
1.1458e-05
-2.34942e-06
1.13927e-05
-2.5802e-06
1.1284e-05
-2.71195e-06
1.11393e-05
-2.75722e-06
1.09705e-05
-2.73332e-06
1.07878e-05
-2.6611e-06
1.05972e-05
-2.55666e-06
1.0402e-05
-2.43242e-06
1.02037e-05
-2.29786e-06
1.00028e-05
-2.16026e-06
9.79922e-06
-2.02505e-06
9.59262e-06
-1.8964e-06
9.38292e-06
-1.77765e-06
9.1703e-06
-1.67149e-06
8.95513e-06
-1.57978e-06
8.73763e-06
-1.50399e-06
8.51757e-06
-1.44635e-06
8.29453e-06
-1.41079e-06
8.06864e-06
-1.40183e-06
7.84163e-06
-1.42071e-06
7.61736e-06
-1.46057e-06
7.40086e-06
-1.50501e-06
7.19721e-06
-1.5341e-06
7.01191e-06
-1.52956e-06
6.85076e-06
-1.47613e-06
6.71708e-06
-1.36479e-06
6.61146e-06
-1.1975e-06
6.53316e-06
-9.85014e-07
6.48129e-06
-7.41485e-07
6.45522e-06
-4.80317e-07
6.45432e-06
-2.12765e-07
6.47806e-06
5.24716e-08
6.52565e-06
3.10017e-07
6.59579e-06
5.55431e-07
6.68661e-06
7.84968e-07
6.79569e-06
9.95601e-07
6.92025e-06
1.1851e-06
7.05727e-06
1.35211e-06
7.20369e-06
1.49621e-06
7.35656e-06
1.61789e-06
7.51319e-06
1.71843e-06
7.67132e-06
1.79977e-06
7.82918e-06
1.86427e-06
7.98562e-06
1.9144e-06
8.14014e-06
1.95244e-06
8.29288e-06
1.98017e-06
8.44449e-06
1.99865e-06
8.59593e-06
2.00822e-06
8.74823e-06
2.00834e-06
8.90255e-06
1.99738e-06
9.05984e-06
1.97263e-06
9.22068e-06
1.9306e-06
9.3851e-06
1.86737e-06
9.55261e-06
1.77907e-06
9.72218e-06
1.6623e-06
9.89225e-06
1.51452e-06
1.00608e-05
1.33435e-06
1.02252e-05
1.12173e-06
1.03826e-05
8.77786e-07
1.05301e-05
6.04329e-07
1.06651e-05
3.03724e-07
1.07847e-05
-1.96463e-08
-3.55093e-07
1.14601e-05
-2.15433e-06
1.1429e-05
-2.24751e-06
1.1398e-05
-2.32962e-06
1.1347e-05
-2.41652e-06
1.12723e-05
-2.50833e-06
1.117e-05
-2.60012e-06
1.10321e-05
-2.68578e-06
1.08604e-05
-2.76086e-06
1.06611e-05
-2.82139e-06
1.04413e-05
-2.86451e-06
1.02073e-05
-2.88889e-06
9.96443e-06
-2.89462e-06
9.71678e-06
-2.88227e-06
9.4674e-06
-2.85243e-06
9.2186e-06
-2.80588e-06
8.9723e-06
-2.74341e-06
8.73014e-06
-2.66569e-06
8.49369e-06
-2.57332e-06
8.26461e-06
-2.46688e-06
8.04454e-06
-2.34673e-06
7.83521e-06
-2.21342e-06
7.63854e-06
-2.06765e-06
7.45678e-06
-1.91006e-06
7.29187e-06
-1.74164e-06
7.14563e-06
-1.56313e-06
7.02019e-06
-1.37356e-06
6.91742e-06
-1.1749e-06
6.83966e-06
-9.7485e-07
6.78953e-06
-7.79158e-07
6.76289e-06
-5.82886e-07
6.72924e-06
-3.74151e-07
6.62427e-06
-1.57309e-07
6.37947e-06
3.37749e-08
6.02423e-06
1.66832e-07
5.68899e-06
2.32283e-07
5.50822e-06
2.72031e-07
5.49906e-06
3.89371e-07
5.6695e-06
5.90888e-07
5.98302e-06
8.58416e-07
6.36696e-06
1.17276e-06
6.75195e-06
1.5149e-06
7.10185e-06
1.849e-06
7.41021e-06
2.15234e-06
7.67994e-06
2.42726e-06
7.91877e-06
2.67885e-06
8.13907e-06
2.90352e-06
8.35449e-06
3.09316e-06
8.57842e-06
3.23494e-06
8.82392e-06
3.30889e-06
9.10143e-06
3.28919e-06
9.41691e-06
3.14865e-06
9.77052e-06
2.86169e-06
1.01552e-05
2.41204e-06
1.05565e-05
1.80318e-06
1.09484e-05
1.07214e-06
1.12921e-05
2.96657e-07
1.15602e-05
-4.41066e-07
1.17403e-05
-1.08831e-06
1.18315e-05
-1.61484e-06
1.18426e-05
-2.01371e-06
1.17878e-05
-2.29461e-06
1.16817e-05
-2.47412e-06
1.15358e-05
-2.56609e-06
1.13612e-05
-2.58261e-06
1.11696e-05
-2.54175e-06
1.09682e-05
-2.45967e-06
1.07607e-05
-2.34915e-06
1.05488e-05
-2.22048e-06
1.0333e-05
-2.08211e-06
1.01137e-05
-1.94092e-06
9.89078e-06
-1.80217e-06
9.66452e-06
-1.67014e-06
9.4354e-06
-1.54853e-06
9.20418e-06
-1.44027e-06
8.97174e-06
-1.34734e-06
8.73876e-06
-1.27101e-06
8.50536e-06
-1.21295e-06
8.2711e-06
-1.17653e-06
8.03585e-06
-1.16658e-06
7.80095e-06
-1.18581e-06
7.56986e-06
-1.22948e-06
7.34763e-06
-1.28278e-06
7.13946e-06
-1.32593e-06
6.95045e-06
-1.34055e-06
6.78651e-06
-1.31218e-06
6.65214e-06
-1.23042e-06
6.54857e-06
-1.09392e-06
6.47462e-06
-9.11067e-07
6.42849e-06
-6.95354e-07
6.40854e-06
-4.60364e-07
6.41325e-06
-2.17478e-07
6.44133e-06
2.43879e-08
6.49178e-06
2.59567e-07
6.56325e-06
4.83965e-07
6.65397e-06
6.94245e-07
6.7618e-06
8.8777e-07
6.88428e-06
1.06262e-06
7.01878e-06
1.21762e-06
7.16261e-06
1.35239e-06
7.31321e-06
1.46728e-06
7.46829e-06
1.56335e-06
7.62588e-06
1.64217e-06
7.78452e-06
1.70563e-06
7.94325e-06
1.75567e-06
8.10173e-06
1.79396e-06
8.26017e-06
1.82173e-06
8.4191e-06
1.83972e-06
8.57927e-06
1.84805e-06
8.74164e-06
1.84596e-06
8.90725e-06
1.83177e-06
9.07687e-06
1.80301e-06
9.25087e-06
1.7566e-06
9.42907e-06
1.68917e-06
9.61072e-06
1.59743e-06
9.79444e-06
1.47857e-06
9.97832e-06
1.33065e-06
1.01598e-05
1.15284e-06
1.0336e-05
9.45534e-07
1.05038e-05
7.10003e-07
1.06603e-05
4.47827e-07
1.08029e-05
1.61108e-07
1.09281e-05
-1.44837e-07
-4.57903e-07
1.18607e-05
-2.02271e-06
1.17379e-05
-2.12478e-06
1.16189e-05
-2.21059e-06
1.14934e-05
-2.29101e-06
1.13547e-05
-2.36967e-06
1.11995e-05
-2.44492e-06
1.10271e-05
-2.51332e-06
1.08379e-05
-2.57165e-06
1.06342e-05
-2.61774e-06
1.04194e-05
-2.64971e-06
1.01967e-05
-2.66621e-06
9.96891e-06
-2.66679e-06
9.73818e-06
-2.65154e-06
9.50649e-06
-2.62074e-06
9.27549e-06
-2.57488e-06
9.04662e-06
-2.51454e-06
8.82125e-06
-2.44032e-06
8.60081e-06
-2.35288e-06
8.38679e-06
-2.25285e-06
8.18075e-06
-2.14069e-06
7.98447e-06
-2.01714e-06
7.79972e-06
-1.88291e-06
7.62836e-06
-1.7387e-06
7.47224e-06
-1.58552e-06
7.33334e-06
-1.42423e-06
7.21507e-06
-1.25528e-06
7.1212e-06
-1.08104e-06
7.05098e-06
-9.04627e-07
6.99935e-06
-7.27525e-07
6.96372e-06
-5.47255e-07
6.95018e-06
-3.60614e-07
6.96079e-06
-1.67917e-07
6.96014e-06
3.44199e-08
6.88742e-06
2.39557e-07
6.7023e-06
4.17403e-07
6.44011e-06
5.34226e-07
6.20904e-06
6.20438e-07
6.10273e-06
6.97197e-07
6.1373e-06
8.2385e-07
6.29447e-06
1.01559e-06
6.54969e-06
1.25968e-06
6.86385e-06
1.53483e-06
7.19463e-06
1.82156e-06
7.51508e-06
2.10681e-06
7.81579e-06
2.37815e-06
8.10349e-06
2.61581e-06
8.3895e-06
2.80715e-06
8.68548e-06
2.93896e-06
9.00264e-06
2.99173e-06
9.34935e-06
2.94248e-06
9.73042e-06
2.76758e-06
1.01446e-05
2.44751e-06
1.05822e-05
1.97441e-06
1.10222e-05
1.3632e-06
1.14256e-05
6.68734e-07
1.1753e-05
-3.07656e-08
1.19853e-05
-6.73319e-07
1.21175e-05
-1.22057e-06
1.2158e-05
-1.65531e-06
1.21223e-05
-1.97804e-06
1.20274e-05
-2.19969e-06
1.18884e-05
-2.33506e-06
1.17176e-05
-2.39532e-06
1.15266e-05
-2.39163e-06
1.13232e-05
-2.33827e-06
1.11111e-05
-2.24758e-06
1.08919e-05
-2.13003e-06
1.06664e-05
-1.99489e-06
1.04347e-05
-1.85048e-06
1.01976e-05
-1.7038e-06
9.95563e-06
-1.56019e-06
9.70981e-06
-1.42431e-06
9.46159e-06
-1.30032e-06
9.21253e-06
-1.1912e-06
8.96408e-06
-1.09889e-06
8.71743e-06
-1.02436e-06
8.473e-06
-9.6852e-07
8.23033e-06
-9.3387e-07
7.9888e-06
-9.25046e-07
7.74898e-06
-9.4598e-07
7.51376e-06
-9.94258e-07
7.28806e-06
-1.05708e-06
7.07724e-06
-1.1151e-06
6.88633e-06
-1.14964e-06
6.7206e-06
-1.14646e-06
6.58569e-06
-1.09551e-06
6.48397e-06
-9.92204e-07
6.41446e-06
-8.41558e-07
6.37456e-06
-6.55454e-07
6.36158e-06
-4.47382e-07
6.3731e-06
-2.29001e-07
6.40694e-06
-9.44698e-09
6.4616e-06
2.049e-07
6.53566e-06
4.09905e-07
6.62742e-06
6.02488e-07
6.73491e-06
7.80276e-07
6.85598e-06
9.41553e-07
6.98832e-06
1.08527e-06
7.12965e-06
1.21106e-06
7.27778e-06
1.31915e-06
7.43076e-06
1.41037e-06
7.58699e-06
1.48594e-06
7.74528e-06
1.54734e-06
7.90495e-06
1.59601e-06
8.0658e-06
1.6331e-06
8.22801e-06
1.65951e-06
8.39202e-06
1.67572e-06
8.55855e-06
1.68152e-06
8.72852e-06
1.676e-06
8.90275e-06
1.65754e-06
9.08182e-06
1.62393e-06
9.26587e-06
1.57254e-06
9.45452e-06
1.50053e-06
9.64675e-06
1.4052e-06
9.84095e-06
1.28437e-06
1.00349e-05
1.13672e-06
1.02257e-05
9.62022e-07
1.04103e-05
7.60981e-07
1.05855e-05
5.34763e-07
1.07488e-05
2.84492e-07
1.08976e-05
1.23268e-08
1.1027e-05
-2.74205e-07
-5.62783e-07
1.19051e-05
-1.87006e-06
1.17557e-05
-1.97533e-06
1.16089e-05
-2.06387e-06
1.14605e-05
-2.14262e-06
1.1306e-05
-2.21516e-06
1.11426e-05
-2.2815e-06
1.09691e-05
-2.33981e-06
1.07858e-05
-2.38831e-06
1.05935e-05
-2.42549e-06
1.03938e-05
-2.44998e-06
1.01883e-05
-2.4607e-06
9.97859e-06
-2.45711e-06
9.76617e-06
-2.43912e-06
9.55236e-06
-2.40693e-06
9.33842e-06
-2.36094e-06
9.12559e-06
-2.30171e-06
8.91518e-06
-2.22991e-06
8.70865e-06
-2.14635e-06
8.50752e-06
-2.05172e-06
8.3134e-06
-1.94657e-06
8.128e-06
-1.83173e-06
7.95313e-06
-1.70804e-06
7.79078e-06
-1.57635e-06
7.64282e-06
-1.43756e-06
7.51092e-06
-1.29233e-06
7.39715e-06
-1.14152e-06
7.30334e-06
-9.87228e-07
7.23053e-06
-8.31824e-07
7.17891e-06
-6.75905e-07
7.14928e-06
-5.1762e-07
7.14355e-06
-3.54887e-07
7.16259e-06
-1.86952e-07
7.20926e-06
-1.22522e-08
7.27451e-06
1.74309e-07
7.32875e-06
3.63164e-07
7.32679e-06
5.36178e-07
7.24989e-06
6.97342e-07
7.10828e-06
8.3881e-07
6.97106e-06
9.61066e-07
6.90358e-06
1.08306e-06
6.93714e-06
1.22612e-06
7.07005e-06
1.40193e-06
7.27427e-06
1.61734e-06
7.52957e-06
1.85151e-06
7.82497e-06
2.08275e-06
8.14485e-06
2.29593e-06
8.48343e-06
2.46856e-06
8.84367e-06
2.57872e-06
9.23117e-06
2.60423e-06
9.65041e-06
2.52324e-06
1.01014e-05
2.31664e-06
1.0576e-05
1.97287e-06
1.10549e-05
1.49549e-06
1.15019e-05
9.16256e-07
1.1874e-05
2.9658e-07
1.21465e-05
-3.03228e-07
1.23134e-05
-8.40201e-07
1.23813e-05
-1.2885e-06
1.2368e-05
-1.64206e-06
1.22919e-05
-1.90191e-06
1.21681e-05
-2.07591e-06
1.20113e-05
-2.17824e-06
1.18322e-05
-2.21624e-06
1.16381e-05
-2.19745e-06
1.1432e-05
-2.13223e-06
1.12151e-05
-2.03067e-06
1.09876e-05
-1.90248e-06
1.07497e-05
-1.75707e-06
1.05026e-05
-1.60332e-06
1.02475e-05
-1.44868e-06
9.98601e-06
-1.29874e-06
9.72058e-06
-1.15888e-06
9.45378e-06
-1.03351e-06
9.18801e-06
-9.25433e-07
8.92536e-06
-8.36243e-07
8.66743e-06
-7.66424e-07
8.41491e-06
-7.16009e-07
8.16734e-06
-6.86295e-07
7.92344e-06
-6.81147e-07
7.68268e-06
-7.05223e-07
7.44691e-06
-7.5848e-07
7.22056e-06
-8.30732e-07
7.00912e-06
-9.03663e-07
6.8178e-06
-9.58325e-07
6.65147e-06
-9.80132e-07
6.51572e-06
-9.59761e-07
6.4149e-06
-8.9138e-07
6.34906e-06
-7.75721e-07
6.31525e-06
-6.21641e-07
6.30969e-06
-4.41831e-07
6.32896e-06
-2.48266e-07
6.36992e-06
-5.04059e-08
6.43017e-06
1.44653e-07
6.50806e-06
3.32012e-07
6.60199e-06
5.08556e-07
6.71017e-06
6.72094e-07
6.83068e-06
8.2105e-07
6.96151e-06
9.54436e-07
7.10074e-06
1.07183e-06
7.24654e-06
1.17336e-06
7.39731e-06
1.2596e-06
7.55178e-06
1.33147e-06
7.70905e-06
1.39007e-06
7.86865e-06
1.4364e-06
8.03047e-06
1.47128e-06
8.19469e-06
1.4953e-06
8.36181e-06
1.5086e-06
8.53256e-06
1.51077e-06
8.70771e-06
1.50084e-06
8.88796e-06
1.47729e-06
9.07366e-06
1.43823e-06
9.26475e-06
1.38146e-06
9.46057e-06
1.3047e-06
9.65993e-06
1.20584e-06
9.861e-06
1.0833e-06
1.00613e-05
9.36379e-07
1.0258e-05
7.65353e-07
1.0448e-05
5.71003e-07
1.06288e-05
3.53976e-07
1.07983e-05
1.1497e-07
1.09528e-05
-1.4217e-07
1.10856e-05
-4.0699e-07
-6.67448e-07
1.18045e-05
-1.72845e-06
1.16615e-05
-1.83235e-06
1.15184e-05
-1.92074e-06
1.13737e-05
-1.9979e-06
1.12249e-05
-2.06632e-06
1.107e-05
-2.12663e-06
1.09082e-05
-2.178e-06
1.07392e-05
-2.21933e-06
1.05632e-05
-2.24953e-06
1.03809e-05
-2.26761e-06
1.0193e-05
-2.27282e-06
1.00006e-05
-2.26473e-06
9.80478e-06
-2.2433e-06
9.60663e-06
-2.20877e-06
9.40729e-06
-2.16161e-06
9.20802e-06
-2.10244e-06
9.01017e-06
-2.03206e-06
8.81522e-06
-1.9514e-06
8.6247e-06
-1.86121e-06
8.4403e-06
-1.76217e-06
8.26378e-06
-1.65522e-06
8.09699e-06
-1.54124e-06
7.94176e-06
-1.42112e-06
7.79984e-06
-1.29564e-06
7.67311e-06
-1.16559e-06
7.56355e-06
-1.03196e-06
7.47268e-06
-8.96352e-07
7.40148e-06
-7.60624e-07
7.35102e-06
-6.25452e-07
7.32268e-06
-4.89276e-07
7.31781e-06
-3.50015e-07
7.33837e-06
-2.07516e-07
7.38771e-06
-6.15932e-08
7.47047e-06
9.15506e-08
7.58251e-06
2.51125e-07
7.70569e-06
4.12999e-07
7.82434e-06
5.78693e-07
7.91651e-06
7.46641e-07
7.96702e-06
9.10558e-07
7.97874e-06
1.07133e-06
7.97319e-06
1.23167e-06
7.98419e-06
1.39092e-06
8.04872e-06
1.55282e-06
8.17947e-06
1.72076e-06
8.37576e-06
1.88646e-06
8.63511e-06
2.03659e-06
8.95151e-06
2.15216e-06
9.31989e-06
2.21033e-06
9.73564e-06
2.18848e-06
1.01915e-05
2.06737e-06
1.06735e-05
1.83469e-06
1.11566e-05
1.48972e-06
1.16058e-05
1.04629e-06
1.19808e-05
5.41271e-07
1.22542e-05
2.31317e-08
1.24213e-05
-4.70264e-07
1.24961e-05
-9.15024e-07
1.25008e-05
-1.29321e-06
1.24481e-05
-1.58932e-06
1.23471e-05
-1.80094e-06
1.22137e-05
-1.94253e-06
1.20585e-05
-2.02303e-06
1.18863e-05
-2.04407e-06
1.16988e-05
-2.00991e-06
1.14957e-05
-1.92914e-06
1.12764e-05
-1.8114e-06
1.1041e-05
-1.66702e-06
1.07904e-05
-1.5065e-06
1.05268e-05
-1.33972e-06
1.02527e-05
-1.17458e-06
9.97129e-06
-1.01731e-06
9.68657e-06
-8.7416e-07
9.4023e-06
-7.49252e-07
9.12175e-06
-6.44875e-07
8.84753e-06
-5.62026e-07
8.5816e-06
-5.005e-07
8.32488e-06
-4.59281e-07
8.0768e-06
-4.3822e-07
7.83557e-06
-4.39916e-07
7.59933e-06
-4.68979e-07
7.36815e-06
-5.273e-07
7.1453e-06
-6.07884e-07
6.93602e-06
-6.94386e-07
6.74583e-06
-7.68129e-07
6.57974e-06
-8.14043e-07
6.44273e-06
-8.22759e-07
6.34069e-06
-7.89332e-07
6.27613e-06
-7.11169e-07
6.24691e-06
-5.92413e-07
6.24844e-06
-4.43368e-07
6.27594e-06
-2.75765e-07
6.32515e-06
-9.9613e-08
6.39257e-06
7.72368e-08
6.4758e-06
2.48781e-07
6.57319e-06
4.11162e-07
6.68315e-06
5.62131e-07
6.80402e-06
7.00182e-07
6.93412e-06
8.24341e-07
7.07183e-06
9.34123e-07
7.21568e-06
1.0295e-06
7.36443e-06
1.11085e-06
7.51709e-06
1.17882e-06
7.67299e-06
1.23416e-06
7.83181e-06
1.27758e-06
7.99351e-06
1.30958e-06
8.15837e-06
1.33044e-06
8.32694e-06
1.34003e-06
8.49991e-06
1.33779e-06
8.67801e-06
1.32274e-06
8.8618e-06
1.29351e-06
9.05149e-06
1.24854e-06
9.2468e-06
1.18615e-06
9.44684e-06
1.10465e-06
9.65018e-06
1.0025e-06
9.85484e-06
8.78641e-07
1.00583e-05
7.3291e-07
1.02578e-05
5.65814e-07
1.04512e-05
3.77615e-07
1.06372e-05
1.68014e-07
1.08135e-05
-6.13793e-08
1.09737e-05
-3.02345e-07
1.11092e-05
-5.42455e-07
-7.70544e-07
1.16822e-05
-1.60639e-06
1.15559e-05
-1.7061e-06
1.14269e-05
-1.79176e-06
1.12949e-05
-1.86586e-06
1.11586e-05
-1.93003e-06
1.10168e-05
-1.98484e-06
1.08687e-05
-2.02991e-06
1.0714e-05
-2.06459e-06
1.05526e-05
-2.08815e-06
1.03849e-05
-2.09994e-06
1.02116e-05
-2.0995e-06
1.00335e-05
-2.08659e-06
9.85141e-06
-2.06123e-06
9.66639e-06
-2.02375e-06
9.47947e-06
-1.97468e-06
9.29178e-06
-1.91476e-06
9.10462e-06
-1.8449e-06
8.91941e-06
-1.76618e-06
8.73769e-06
-1.67949e-06
8.56115e-06
-1.58563e-06
8.39159e-06
-1.48565e-06
8.23086e-06
-1.38052e-06
8.08088e-06
-1.27114e-06
7.94351e-06
-1.15827e-06
7.8206e-06
-1.04268e-06
7.71385e-06
-9.25212e-07
7.62452e-06
-8.0702e-07
7.55366e-06
-6.89766e-07
7.50312e-06
-5.74908e-07
7.4756e-06
-4.61759e-07
7.47311e-06
-3.47528e-07
7.49707e-06
-2.31468e-07
7.54896e-06
-1.13488e-07
7.6325e-06
8.01058e-09
7.74931e-06
1.34318e-07
7.89602e-06
2.6629e-07
8.06791e-06
4.06797e-07
8.25695e-06
5.57598e-07
8.45022e-06
7.17295e-07
8.63639e-06
8.85159e-07
8.80882e-06
1.05924e-06
8.96344e-06
1.23631e-06
9.10739e-06
1.40886e-06
9.25791e-06
1.57024e-06
9.4335e-06
1.71087e-06
9.64932e-06
1.82077e-06
9.91441e-06
1.88707e-06
1.02298e-05
1.89497e-06
1.05878e-05
1.83043e-06
1.09734e-05
1.68176e-06
1.13643e-05
1.44384e-06
1.17318e-05
1.12222e-06
1.20461e-05
7.31981e-07
1.22846e-05
3.02777e-07
1.24382e-05
-1.30513e-07
1.25131e-05
-5.45159e-07
1.25254e-05
-9.27347e-07
1.2487e-05
-1.25477e-06
1.24088e-05
-1.51112e-06
1.23046e-05
-1.69675e-06
1.21812e-05
-1.81915e-06
1.20418e-05
-1.88362e-06
1.18847e-05
-1.88691e-06
1.17073e-05
-1.83257e-06
1.15077e-05
-1.72953e-06
1.12849e-05
-1.58857e-06
1.10395e-05
-1.42167e-06
1.07741e-05
-1.24112e-06
1.04923e-05
-1.05791e-06
1.01981e-05
-8.80333e-07
9.89679e-06
-7.16021e-07
9.5941e-06
-5.71473e-07
9.29478e-06
-4.49933e-07
9.00275e-06
-3.52848e-07
8.72102e-06
-2.80293e-07
8.45169e-06
-2.31175e-07
8.19576e-06
-2.03345e-07
7.95266e-06
-1.95118e-07
7.72025e-06
-2.07506e-07
7.49547e-06
-2.44205e-07
7.27629e-06
-3.08114e-07
7.06361e-06
-3.95209e-07
6.86159e-06
-4.92362e-07
6.67553e-06
-5.82069e-07
6.51099e-06
-6.49505e-07
6.37307e-06
-6.84838e-07
6.26711e-06
-6.83376e-07
6.19885e-06
-6.42909e-07
6.16936e-06
-5.62924e-07
6.17503e-06
-4.49037e-07
6.20985e-06
-3.10583e-07
6.26753e-06
-1.57297e-07
6.34317e-06
1.59502e-09
6.4334e-06
1.58556e-07
6.5359e-06
3.08662e-07
6.64906e-06
4.4897e-07
6.77145e-06
5.77791e-07
6.90173e-06
6.94063e-07
7.03865e-06
7.97203e-07
7.18111e-06
8.87039e-07
7.32821e-06
9.63754e-07
7.47924e-06
1.02779e-06
7.6337e-06
1.0797e-06
7.79138e-06
1.1199e-06
7.95234e-06
1.14863e-06
8.11692e-06
1.16585e-06
8.2857e-06
1.17125e-06
8.45935e-06
1.16414e-06
8.63855e-06
1.14354e-06
8.82378e-06
1.10827e-06
9.01513e-06
1.05719e-06
9.21207e-06
9.89213e-07
9.41346e-06
9.03268e-07
9.61768e-06
7.98276e-07
9.82284e-06
6.73478e-07
1.00269e-05
5.28849e-07
1.02281e-05
3.64608e-07
1.04258e-05
1.79914e-07
1.0619e-05
-2.51612e-08
1.08014e-05
-2.43797e-07
1.09631e-05
-4.64038e-07
1.10946e-05
-6.73914e-07
-8.63159e-07
1.1582e-05
-1.50205e-06
1.14715e-05
-1.59559e-06
1.13562e-05
-1.67649e-06
1.12364e-05
-1.74599e-06
1.11115e-05
-1.80516e-06
1.0981e-05
-1.85432e-06
1.08443e-05
-1.89329e-06
1.07015e-05
-1.92171e-06
1.05524e-05