/*--------------------------------*- C++ -*----------------------------------*\
| =========                 |                                                 |
| \\      /  F ield         | OpenFOAM: The Open Source CFD Toolbox           |
|  \\    /   O peration     | Version:  2206                                  |
|   \\  /    A nd           | Website:  www.openfoam.com                      |
|    \\/     M anipulation  |                                                 |
\*---------------------------------------------------------------------------*/
FoamFile
{
    version     2.0;
    format      ascii;
    arch        "LSB;label=32;scalar=64";
    class       volVectorField;
    location    "19.2";
    object      U_0;
}
// * * * * * * * * * * * * * * * * * * * * * * * * * * * * * * * * * * * * * //

dimensions      [0 1 -1 0 0 0 0];

internalField   nonuniform List<vector> 
1826
(
(1.47765 0.000552325 0)
(1.47788 0.00164573 0)
(1.47842 0.00269868 0)
(1.47923 0.00368217 0)
(1.48026 0.00457906 0)
(1.48149 0.00538464 0)
(1.48287 0.00610145 0)
(1.4844 0.00673465 0)
(1.48605 0.00729033 0)
(1.4878 0.00777563 0)
(1.48964 0.0081984 0)
(1.49155 0.0085665 0)
(1.49353 0.00888718 0)
(1.49556 0.00916682 0)
(1.49765 0.00941092 0)
(1.49977 0.00962409 0)
(1.50193 0.00981018 0)
(1.50413 0.00997239 0)
(1.50636 0.0101134 0)
(1.50861 0.0102353 0)
(1.51088 0.0103397 0)
(1.51317 0.0104281 0)
(1.51548 0.0105014 0)
(1.5178 0.0105602 0)
(1.52014 0.0106052 0)
(1.52248 0.0106365 0)
(1.52483 0.0106543 0)
(1.52718 0.0106586 0)
(1.52953 0.0106493 0)
(1.53187 0.0106264 0)
(1.53421 0.0105896 0)
(1.53654 0.0105387 0)
(1.53886 0.0104736 0)
(1.54117 0.010394 0)
(1.54345 0.0103 0)
(1.54572 0.0101917 0)
(1.54795 0.0100694 0)
(1.55016 0.00993347 0)
(1.55234 0.0097843 0)
(1.55448 0.00962246 0)
(1.55659 0.0094486 0)
(1.55865 0.00926343 0)
(1.56068 0.00906775 0)
(1.56266 0.00886236 0)
(1.56459 0.0086481 0)
(1.56647 0.00842572 0)
(1.5683 0.00819612 0)
(1.57009 0.00796003 0)
(1.57182 0.00771836 0)
(1.57349 0.0074717 0)
(1.57511 0.00722074 0)
(1.57668 0.00696568 0)
(1.5782 0.00670657 0)
(1.57965 0.00644315 0)
(1.58106 0.00617492 0)
(1.5824 0.0059012 0)
(1.58369 0.00562082 0)
(1.58493 0.00533241 0)
(1.5861 0.00503411 0)
(1.58722 0.00472348 0)
(1.58827 0.00439796 0)
(1.58926 0.00405367 0)
(1.59018 0.00368713 0)
(1.59103 0.00329264 0)
(1.59181 0.0028656 0)
(1.59251 0.00239822 0)
(1.59312 0.00188432 0)
(1.59363 0.00131525 0)
(1.59404 0.0006813 0)
(1.59433 -3.10663e-05 0)
(1.59449 -0.000835135 0)
(1.5945 -0.00174829 0)
(1.59435 -0.00279003 0)
(1.594 -0.00398291 0)
(1.59344 -0.00535388 0)
(1.59263 -0.00693513 0)
(1.59154 -0.0087653 0)
(1.59012 -0.0108909 0)
(1.58832 -0.0133681 0)
(1.58609 -0.0162646 0)
(1.58336 -0.0196632 0)
(1.58004 -0.0236649 0)
(1.57604 -0.0283941 0)
(1.57126 -0.0340048 0)
(1.56555 -0.0406883 0)
(1.55876 -0.0486835 0)
(1.55072 -0.0582916 0)
(1.54119 -0.0698944 0)
(1.52993 -0.0839794 0)
(1.51664 -0.101175 0)
(1.50095 -0.122294 0)
(1.48245 -0.148402 0)
(1.46061 -0.180906 0)
(1.43483 -0.221696 0)
(1.40433 -0.273304 0)
(1.36805 -0.339392 0)
(1.32455 -0.424674 0)
(1.27054 -0.53772 0)
(1.2034 -0.686797 0)
(1.09478 -0.906508 0)
(0.986248 -1.20212 0)
(0.335423 -2.00756 0)
(1.47765 0.000416054 0)
(1.47786 0.00124055 0)
(1.47834 0.00203766 0)
(1.47909 0.00278737 0)
(1.48005 0.00347687 0)
(1.48119 0.00410119 0)
(1.4825 0.0046604 0)
(1.48396 0.00515707 0)
(1.48554 0.00559507 0)
(1.48723 0.00597923 0)
(1.48901 0.00631502 0)
(1.49088 0.00660809 0)
(1.49281 0.00686381 0)
(1.49481 0.007087 0)
(1.49686 0.00728191 0)
(1.49896 0.00745217 0)
(1.50109 0.00760084 0)
(1.50327 0.00773047 0)
(1.50547 0.00784316 0)
(1.5077 0.00794061 0)
(1.50996 0.00802418 0)
(1.51224 0.00809493 0)
(1.51453 0.00815364 0)
(1.51684 0.0082009 0)
(1.51916 0.00823712 0)
(1.52148 0.00826254 0)
(1.52382 0.00827728 0)
(1.52615 0.00828139 0)
(1.52849 0.00827481 0)
(1.53082 0.00825748 0)
(1.53315 0.00822928 0)
(1.53546 0.00819005 0)
(1.53777 0.00813966 0)
(1.54006 0.00807804 0)
(1.54233 0.00800525 0)
(1.54457 0.00792135 0)
(1.5468 0.00782661 0)
(1.54899 0.00772123 0)
(1.55116 0.00760562 0)
(1.55329 0.00748014 0)
(1.55538 0.00734535 0)
(1.55743 0.00720169 0)
(1.55944 0.00704986 0)
(1.56141 0.00689036 0)
(1.56333 0.00672393 0)
(1.56521 0.00655104 0)
(1.56703 0.00637248 0)
(1.56881 0.00618863 0)
(1.57053 0.00600032 0)
(1.5722 0.00580774 0)
(1.57382 0.00561164 0)
(1.57538 0.00541179 0)
(1.57689 0.00520866 0)
(1.57834 0.00500148 0)
(1.57974 0.00479043 0)
(1.58108 0.00457418 0)
(1.58236 0.00435255 0)
(1.58358 0.00412357 0)
(1.58474 0.00388658 0)
(1.58585 0.00363872 0)
(1.58688 0.00337883 0)
(1.58785 0.00310273 0)
(1.58875 0.00280876 0)
(1.58958 0.00249092 0)
(1.59032 0.002147 0)
(1.59097 0.00176828 0)
(1.59153 0.00135317 0)
(1.59199 0.00088825 0)
(1.59233 0.000376777 0)
(1.59254 -0.000201938 0)
(1.59261 -0.000855303 0)
(1.59251 -0.00159747 0)
(1.59222 -0.0024451 0)
(1.59172 -0.00341694 0)
(1.59098 -0.00453505 0)
(1.58995 -0.00582591 0)
(1.5886 -0.00732154 0)
(1.58688 -0.00906057 0)
(1.58472 -0.0110897 0)
(1.58206 -0.0134658 0)
(1.57881 -0.016258 0)
(1.57487 -0.0195516 0)
(1.57011 -0.0234518 0)
(1.56441 -0.0280893 0)
(1.55757 -0.0336272 0)
(1.5494 -0.0402707 0)
(1.53963 -0.0482797 0)
(1.52797 -0.0579851 0)
(1.51404 -0.0698117 0)
(1.49736 -0.0843085 0)
(1.47738 -0.10219 0)
(1.45337 -0.12439 0)
(1.42443 -0.152142 0)
(1.38938 -0.18708 0)
(1.34668 -0.231374 0)
(1.29417 -0.287942 0)
(1.22877 -0.360582 0)
(1.14575 -0.454572 0)
(1.03741 -0.575964 0)
(0.891998 -0.733636 0)
(0.687299 -0.927951 0)
(0.33826 -1.09229 0)
(1.47764 0.000290416 0)
(1.47784 0.000866331 0)
(1.4783 0.00142455 0)
(1.479 0.00195201 0)
(1.4799 0.00243991 0)
(1.48099 0.00288418 0)
(1.48225 0.00328406 0)
(1.48365 0.0036407 0)
(1.48518 0.00395642 0)
(1.48682 0.00423427 0)
(1.48857 0.00447782 0)
(1.4904 0.00469083 0)
(1.4923 0.00487693 0)
(1.49427 0.00503948 0)
(1.49629 0.00518143 0)
(1.49837 0.00530535 0)
(1.50049 0.00541345 0)
(1.50264 0.00550755 0)
(1.50483 0.00558917 0)
(1.50705 0.00565958 0)
(1.50929 0.00571976 0)
(1.51156 0.0057705 0)
(1.51384 0.00581242 0)
(1.51614 0.00584597 0)
(1.51844 0.00587145 0)
(1.52076 0.0058891 0)
(1.52308 0.00589901 0)
(1.52541 0.0059013 0)
(1.52773 0.00589579 0)
(1.53005 0.00588262 0)
(1.53237 0.00586169 0)
(1.53467 0.00583293 0)
(1.53697 0.00579623 0)
(1.53924 0.00575161 0)
(1.5415 0.00569906 0)
(1.54374 0.00563869 0)
(1.54595 0.00557062 0)
(1.54814 0.00549505 0)
(1.55029 0.0054122 0)
(1.55241 0.00532238 0)
(1.55449 0.00522589 0)
(1.55654 0.00512314 0)
(1.55854 0.00501447 0)
(1.5605 0.00490039 0)
(1.56242 0.00478119 0)
(1.56428 0.00465744 0)
(1.5661 0.00452939 0)
(1.56787 0.00439763 0)
(1.56959 0.00426233 0)
(1.57126 0.00412398 0)
(1.57287 0.00398265 0)
(1.57443 0.00383856 0)
(1.57593 0.0036916 0)
(1.57738 0.0035416 0)
(1.57877 0.00338823 0)
(1.5801 0.00323095 0)
(1.58138 0.00306911 0)
(1.58259 0.0029018 0)
(1.58375 0.00272782 0)
(1.58484 0.00254591 0)
(1.58586 0.00235407 0)
(1.58682 0.00215066 0)
(1.5877 0.00193254 0)
(1.5885 0.00169764 0)
(1.58921 0.00144129 0)
(1.58983 0.00116057 0)
(1.59036 0.000849268 0)
(1.59077 0.000503108 0)
(1.59105 0.000117349 0)
(1.5912 -0.000312971 0)
(1.59119 -0.000801341 0)
(1.59101 -0.00135565 0)
(1.59062 -0.00198899 0)
(1.58999 -0.00271591 0)
(1.58911 -0.00355277 0)
(1.58791 -0.00451928 0)
(1.58636 -0.00563948 0)
(1.5844 -0.0069425 0)
(1.58196 -0.00846363 0)
(1.57895 -0.0102458 0)
(1.57529 -0.0123415 0)
(1.57085 -0.0148155 0)
(1.56549 -0.0177479 0)
(1.55904 -0.0212387 0)
(1.5513 -0.0254131 0)
(1.542 -0.0304287 0)
(1.53085 -0.0364862 0)
(1.51745 -0.0438417 0)
(1.50133 -0.0528245 0)
(1.48189 -0.0638609 0)
(1.45838 -0.0775056 0)
(1.42985 -0.0944816 0)
(1.39508 -0.115734 0)
(1.35249 -0.142497 0)
(1.30001 -0.176367 0)
(1.23487 -0.219366 0)
(1.15333 -0.273986 0)
(1.0502 -0.343107 0)
(0.917857 -0.429449 0)
(0.745657 -0.534756 0)
(0.512551 -0.656704 0)
(0.188022 -0.808646 0)
(1.47764 0.000171632 0)
(1.47783 0.000512139 0)
(1.47827 0.000842714 0)
(1.47894 0.00115596 0)
(1.47981 0.00144675 0)
(1.48087 0.00171251 0)
(1.48209 0.0019525 0)
(1.48345 0.00216715 0)
(1.48495 0.00235766 0)
(1.48657 0.00252569 0)
(1.48828 0.00267326 0)
(1.49009 0.00280249 0)
(1.49197 0.00291548 0)
(1.49392 0.00301421 0)
(1.49593 0.00310043 0)
(1.49799 0.00317568 0)
(1.50009 0.00324128 0)
(1.50224 0.00329835 0)
(1.50442 0.00334782 0)
(1.50663 0.00339046 0)
(1.50886 0.00342687 0)
(1.51111 0.00345755 0)
(1.51339 0.00348288 0)
(1.51568 0.00350313 0)
(1.51798 0.0035185 0)
(1.52029 0.00352915 0)
(1.5226 0.00353511 0)
(1.52492 0.00353655 0)
(1.52724 0.00353316 0)
(1.52955 0.00352525 0)
(1.53186 0.00351261 0)
(1.53415 0.00349534 0)
(1.53644 0.00347328 0)
(1.53871 0.0034465 0)
(1.54096 0.0034149 0)
(1.54319 0.00337866 0)
(1.5454 0.00333769 0)
(1.54757 0.00329229 0)
(1.54972 0.00324238 0)
(1.55184 0.00318834 0)
(1.55391 0.00313014 0)
(1.55595 0.00306822 0)
(1.55795 0.00300252 0)
(1.55991 0.00293362 0)
(1.56182 0.00286137 0)
(1.56368 0.00278644 0)
(1.5655 0.00270856 0)
(1.56726 0.00262852 0)
(1.56898 0.00254589 0)
(1.57064 0.00246148 0)
(1.57225 0.00237474 0)
(1.5738 0.00228635 0)
(1.5753 0.00219564 0)
(1.57675 0.00210305 0)
(1.57813 0.0020078 0)
(1.57946 0.00191007 0)
(1.58073 0.00180887 0)
(1.58194 0.00170424 0)
(1.58309 0.00159463 0)
(1.58417 0.00148017 0)
(1.58519 0.00135844 0)
(1.58613 0.00122979 0)
(1.587 0.00109056 0)
(1.58778 0.000941487 0)
(1.58848 0.000777083 0)
(1.58908 0.000598775 0)
(1.58958 0.000398007 0)
(1.58995 0.000176991 0)
(1.5902 -7.45647e-05 0)
(1.5903 -0.000345876 0)
(1.59024 -0.000659895 0)
(1.58999 -0.00101525 0)
(1.58953 -0.00142057 0)
(1.58882 -0.00188561 0)
(1.58783 -0.0024205 0)
(1.58652 -0.00303749 0)
(1.58483 -0.0037518 0)
(1.5827 -0.00458184 0)
(1.58006 -0.00554987 0)
(1.57681 -0.0066829 0)
(1.57286 -0.00801406 0)
(1.56806 -0.00958414 0)
(1.56228 -0.0114438 0)
(1.55531 -0.013656 0)
(1.54693 -0.0163 0)
(1.53684 -0.0194758 0)
(1.5247 -0.0233105 0)
(1.51007 -0.0279665 0)
(1.4924 -0.033653 0)
(1.47099 -0.0406403 0)
(1.44498 -0.0492789 0)
(1.41324 -0.0600245 0)
(1.37436 -0.0734672 0)
(1.32649 -0.0903655 0)
(1.26728 -0.111675 0)
(1.19369 -0.138568 0)
(1.10182 -0.172378 0)
(0.986801 -0.214416 0)
(0.842549 -0.265498 0)
(0.662413 -0.324359 0)
(0.43889 -0.388125 0)
(0.167081 -0.407169 0)
(1.47977 0.000478831 0)
(1.48081 0.000567208 0)
(1.48201 0.000647167 0)
(1.48336 0.000718808 0)
(1.48484 0.00078249 0)
(1.48644 0.000838742 0)
(1.48814 0.000888202 0)
(1.48994 0.00093156 0)
(1.49181 0.000969499 0)
(1.49375 0.00100266 0)
(1.49575 0.00103162 0)
(1.4978 0.00105689 0)
(1.4999 0.00107889 0)
(1.50204 0.001098 0)
(1.50421 0.00111453 0)
(1.50641 0.00112872 0)
(1.50864 0.00114078 0)
(1.5109 0.00115087 0)
(1.51317 0.00115911 0)
(1.51545 0.0011656 0)
(1.51775 0.00117041 0)
(1.52005 0.00117359 0)
(1.52236 0.00117515 0)
(1.52468 0.00117518 0)
(1.52699 0.0011735 0)
(1.5293 0.00117032 0)
(1.53161 0.00116548 0)
(1.5339 0.00115909 0)
(1.53618 0.00115105 0)
(1.53845 0.00114144 0)
(1.5407 0.00113012 0)
(1.54292 0.00111728 0)
(1.54513 0.00110274 0)
(1.54729 0.00108675 0)
(1.54944 0.00106909 0)
(1.55155 0.00105008 0)
(1.55363 0.00102949 0)
(1.55566 0.00100765 0)
(1.55766 0.000984331 0)
(1.55961 0.000959902 0)
(1.56152 0.000934086 0)
(1.56337 0.000907315 0)
(1.5652 0.000879206 0)
(1.56695 0.000850335 0)
(1.56867 0.000820087 0)
(1.57032 0.000789286 0)
(1.57194 0.000756971 0)
(1.57348 0.000724244 0)
(1.57499 0.000689778 0)
(1.57642 0.000654867 0)
(1.57782 0.000617936 0)
(1.57914 0.000580284 0)
(1.58042 0.000540254 0)
(1.58161 0.000499003 0)
(1.58277 0.000454765 0)
(1.58383 0.000408741 0)
(1.58485 0.000358543 0)
(1.58577 0.000306208 0)
(1.58665 0.00024745 0)
(1.5874 0.000186817 0)
(1.58812 0.000115731 0)
(1.58868 4.43169e-05 0)
(1.58919 -4.51359e-05 0)
(1.58952 -0.000129704 0)
(1.58977 -0.000254853 0)
(1.58983 -0.000356478 0)
(1.58974 -0.000485811 0)
(1.58946 -0.000632797 0)
(1.58896 -0.000800196 0)
(1.58821 -0.000991851 0)
(1.58716 -0.0012113 0)
(1.58579 -0.00146294 0)
(1.58402 -0.00175237 0)
(1.5818 -0.00208635 0)
(1.57905 -0.00247298 0)
(1.57568 -0.00292208 0)
(1.57157 -0.00344563 0)
(1.56659 -0.00405835 0)
(1.56058 -0.00477841 0)
(1.55333 -0.00562836 0)
(1.54461 -0.00663636 0)
(1.53411 -0.00783789 0)
(1.52145 -0.00927786 0)
(1.50617 -0.0110135 0)
(1.48768 -0.0131184 0)
(1.46524 -0.015687 0)
(1.43792 -0.0188417 0)
(1.40451 -0.0227403 0)
(1.36349 -0.0275859 0)
(1.31291 -0.0336367 0)
(1.25028 -0.0412133 0)
(1.17248 -0.0506972 0)
(1.07562 -0.0625019 0)
(0.955122 -0.0770002 0)
(0.805735 -0.0942848 0)
(0.622836 -0.113978 0)
(0.400918 -0.133411 0)
(0.142341 -0.153004 0)
(1.46082 0.00792083 0)
(1.45128 0.0148469 0)
(1.43397 0.0174262 0)
(1.41113 0.0185004 0)
(1.387 0.019197 0)
(1.36294 0.019666 0)
(1.3388 0.0199402 0)
(1.3144 0.0200624 0)
(1.28977 0.0200892 0)
(1.26504 0.0200525 0)
(1.2403 0.0199662 0)
(1.21558 0.0198306 0)
(1.19091 0.0196424 0)
(1.16633 0.0194175 0)
(1.14187 0.0191719 0)
(1.11755 0.0189108 0)
(1.09337 0.0186347 0)
(1.06935 0.0183432 0)
(1.0455 0.0180361 0)
(1.02185 0.0177149 0)
(0.998415 0.0173831 0)
(0.975203 0.0170425 0)
(0.952231 0.016692 0)
(0.929512 0.0163337 0)
(0.907062 0.015966 0)
(0.884894 0.0155902 0)
(0.863024 0.0152128 0)
(0.841475 0.0148515 0)
(0.820009 0.0144782 0)
(0.799078 0.0140587 0)
(0.778536 0.0135965 0)
(0.758407 0.0131058 0)
(0.738751 0.012593 0)
(0.719605 0.0120609 0)
(0.700989 0.0115127 0)
(0.682926 0.0109512 0)
(0.665439 0.0103789 0)
(0.648549 0.00979812 0)
(0.632275 0.00921072 0)
(0.616636 0.00861951 0)
(0.601643 0.00802749 0)
(0.587309 0.00743778 0)
(0.573637 0.00685469 0)
(0.560639 0.00626806 0)
(0.548329 0.00568657 0)
(0.536695 0.00512774 0)
(0.52572 0.00459522 0)
(0.515396 0.00408777 0)
(0.50571 0.00360452 0)
(0.49665 0.00314603 0)
(0.488204 0.00271098 0)
(0.480353 0.00229888 0)
(0.473081 0.00191007 0)
(0.466365 0.00154532 0)
(0.460186 0.00120436 0)
(0.454517 0.000886746 0)
(0.449341 0.000590988 0)
(0.44463 0.00031529 0)
(0.440375 6.33129e-05 0)
(0.436542 -0.000171976 0)
(0.433133 -0.00039543 0)
(0.430112 -0.00060856 0)
(0.427501 -0.000814336 0)
(0.425254 -0.0010154 0)
(0.423421 -0.00121379 0)
(0.421935 -0.00141585 0)
(0.420901 -0.00161279 0)
(0.420197 -0.00183737 0)
(0.420043 -0.00203856 0)
(0.420305 -0.00231096 0)
(0.421116 -0.00267198 0)
(0.422531 -0.00305477 0)
(0.424569 -0.00344266 0)
(0.427311 -0.00385987 0)
(0.430792 -0.00432448 0)
(0.435128 -0.00486083 0)
(0.440408 -0.00539176 0)
(0.446745 -0.00600511 0)
(0.454271 -0.0067074 0)
(0.463144 -0.00752614 0)
(0.473554 -0.00848351 0)
(0.485715 -0.00957503 0)
(0.499868 -0.0108166 0)
(0.516287 -0.0122275 0)
(0.535281 -0.0138285 0)
(0.557196 -0.0156382 0)
(0.58241 -0.0176747 0)
(0.611352 -0.0199651 0)
(0.644507 -0.0225449 0)
(0.682442 -0.0254362 0)
(0.725758 -0.028638 0)
(0.775125 -0.0321464 0)
(0.830871 -0.0360756 0)
(0.894352 -0.0405042 0)
(0.966267 -0.0454487 0)
(1.04638 -0.0503658 0)
(1.13477 -0.0546543 0)
(1.23075 -0.0583511 0)
(1.33338 -0.0613539 0)
(1.44138 -0.0632508 0)
(1.5527 -0.0635839 0)
(1.66462 -0.0620069 0)
(1.47989 0.0112657 0)
(1.48676 0.0207579 0)
(1.49459 0.0242297 0)
(1.49752 0.0260444 0)
(1.49889 0.0272126 0)
(1.49979 0.0282538 0)
(1.50013 0.0288018 0)
(1.49982 0.0292969 0)
(1.49891 0.0296106 0)
(1.49746 0.0298396 0)
(1.49552 0.0300397 0)
(1.49314 0.0302008 0)
(1.49034 0.0302828 0)
(1.48717 0.0303205 0)
(1.48365 0.0303413 0)
(1.47977 0.0303476 0)
(1.47554 0.0303363 0)
(1.47098 0.0303058 0)
(1.4661 0.0302541 0)
(1.46092 0.0301789 0)
(1.45544 0.0300826 0)
(1.44968 0.0299679 0)
(1.44364 0.0298332 0)
(1.43734 0.0296774 0)
(1.43079 0.029502 0)
(1.424 0.029313 0)
(1.41698 0.0291134 0)
(1.40976 0.0289047 0)
(1.40237 0.0286503 0)
(1.39481 0.0283209 0)
(1.38709 0.0279319 0)
(1.3792 0.0275001 0)
(1.37117 0.0270293 0)
(1.36303 0.0265192 0)
(1.35478 0.0259711 0)
(1.34645 0.0253866 0)
(1.33806 0.0247673 0)
(1.32962 0.0241146 0)
(1.32115 0.023431 0)
(1.31266 0.0227202 0)
(1.30419 0.0219851 0)
(1.29574 0.0212286 0)
(1.28733 0.0204552 0)
(1.27897 0.0196669 0)
(1.27062 0.0188645 0)
(1.26237 0.018055 0)
(1.25422 0.017243 0)
(1.24617 0.016431 0)
(1.23826 0.0156244 0)
(1.23047 0.0148158 0)
(1.22283 0.0140175 0)
(1.21534 0.0132314 0)
(1.20803 0.0124638 0)
(1.20088 0.0117139 0)
(1.19393 0.0109861 0)
(1.18714 0.0102776 0)
(1.18057 0.00959193 0)
(1.17418 0.00892395 0)
(1.16801 0.00827711 0)
(1.16203 0.00764416 0)
(1.1563 0.00702814 0)
(1.15077 0.00641832 0)
(1.14551 0.005818 0)
(1.14047 0.0052121 0)
(1.13573 0.00460521 0)
(1.13123 0.00397625 0)
(1.12709 0.00333193 0)
(1.12322 0.00264229 0)
(1.11976 0.001918 0)
(1.1166 0.00112847 0)
(1.11389 0.000285754 0)
(1.11159 -0.000653173 0)
(1.10983 -0.00166889 0)
(1.10866 -0.00282752 0)
(1.10819 -0.00402611 0)
(1.10845 -0.00542241 0)
(1.10955 -0.00699726 0)
(1.11162 -0.00876719 0)
(1.11478 -0.0107605 0)
(1.11918 -0.0130106 0)
(1.12499 -0.0155556 0)
(1.13237 -0.0184389 0)
(1.14155 -0.0217083 0)
(1.15276 -0.0254141 0)
(1.16627 -0.0296108 0)
(1.18236 -0.0343557 0)
(1.20141 -0.0397193 0)
(1.22382 -0.0457909 0)
(1.25004 -0.0526894 0)
(1.28062 -0.0605115 0)
(1.31609 -0.0692424 0)
(1.35689 -0.0788163 0)
(1.40337 -0.0893031 0)
(1.45578 -0.100758 0)
(1.51512 -0.113227 0)
(1.57988 -0.125835 0)
(1.65253 -0.137586 0)
(1.73232 -0.148395 0)
(1.81896 -0.157809 0)
(1.91208 -0.164845 0)
(2.01041 -0.168351 0)
(2.11178 -0.167339 0)
(1.47847 0.00517294 0)
(1.48163 0.0113202 0)
(1.48608 0.0145195 0)
(1.49042 0.0168935 0)
(1.49394 0.0188379 0)
(1.49724 0.0204921 0)
(1.50032 0.0218122 0)
(1.50328 0.0228855 0)
(1.50589 0.0237564 0)
(1.50845 0.0245229 0)
(1.51064 0.0251852 0)
(1.51314 0.025763 0)
(1.51527 0.0262868 0)
(1.51721 0.0267632 0)
(1.51902 0.0271937 0)
(1.5207 0.0275846 0)
(1.52226 0.0279467 0)
(1.5237 0.0282697 0)
(1.52502 0.0285575 0)
(1.52622 0.0288135 0)
(1.52729 0.0290352 0)
(1.52825 0.0292253 0)
(1.52909 0.029375 0)
(1.52982 0.0295339 0)
(1.53043 0.0296346 0)
(1.53093 0.0297039 0)
(1.5313 0.0297629 0)
(1.53156 0.0298029 0)
(1.5317 0.0297794 0)
(1.53172 0.0297097 0)
(1.53164 0.0295592 0)
(1.53143 0.0293499 0)
(1.53109 0.0290895 0)
(1.53062 0.0287795 0)
(1.53001 0.0284205 0)
(1.52928 0.028014 0)
(1.52843 0.0275621 0)
(1.52744 0.0270625 0)
(1.52634 0.0265166 0)
(1.52512 0.0259324 0)
(1.52378 0.0253171 0)
(1.52233 0.0246743 0)
(1.52078 0.0240044 0)
(1.51912 0.0233131 0)
(1.51737 0.0226052 0)
(1.51552 0.0218818 0)
(1.51359 0.0211458 0)
(1.51159 0.0204025 0)
(1.50951 0.0196557 0)
(1.50736 0.0189047 0)
(1.50516 0.0181508 0)
(1.50291 0.0173989 0)
(1.50062 0.0166546 0)
(1.4983 0.0159209 0)
(1.49596 0.0151992 0)
(1.4936 0.0144891 0)
(1.49124 0.0137902 0)
(1.48888 0.0131008 0)
(1.48652 0.012419 0)
(1.48419 0.0117414 0)
(1.48188 0.0110647 0)
(1.47962 0.0103834 0)
(1.4774 0.00969189 0)
(1.47524 0.00898251 0)
(1.47316 0.00824844 0)
(1.47116 0.0074811 0)
(1.46927 0.00667231 0)
(1.4675 0.00581855 0)
(1.46584 0.00486002 0)
(1.46438 0.00382349 0)
(1.46308 0.00266663 0)
(1.46202 0.00140213 0)
(1.46117 -2.61665e-05 0)
(1.46059 -0.00162438 0)
(1.46032 -0.00341405 0)
(1.46044 -0.00542622 0)
(1.461 -0.00769544 0)
(1.46207 -0.0102629 0)
(1.46374 -0.0131749 0)
(1.46609 -0.0164839 0)
(1.46923 -0.0202491 0)
(1.4733 -0.0245353 0)
(1.47844 -0.0294139 0)
(1.48482 -0.0349614 0)
(1.49264 -0.0412646 0)
(1.50212 -0.0484095 0)
(1.51354 -0.056497 0)
(1.52715 -0.0656569 0)
(1.54331 -0.0760715 0)
(1.5623 -0.087879 0)
(1.5844 -0.101025 0)
(1.61009 -0.115414 0)
(1.64004 -0.131113 0)
(1.67487 -0.148223 0)
(1.71607 -0.166455 0)
(1.75964 -0.185447 0)
(1.81515 -0.204866 0)
(1.87901 -0.223894 0)
(1.95129 -0.241272 0)
(2.03226 -0.255426 0)
(2.12117 -0.26442 0)
(2.21623 -0.266553 0)
(1.47801 0.00312094 0)
(1.47978 0.00857115 0)
(1.48287 0.0125369 0)
(1.48628 0.0154831 0)
(1.48933 0.0177353 0)
(1.49217 0.0195361 0)
(1.49498 0.0209537 0)
(1.49775 0.0221236 0)
(1.50047 0.023091 0)
(1.50313 0.023876 0)
(1.50571 0.0244621 0)
(1.50821 0.0249494 0)
(1.51068 0.0254166 0)
(1.51314 0.0258583 0)
(1.51559 0.0262537 0)
(1.51804 0.0266013 0)
(1.52044 0.0269047 0)
(1.52283 0.027176 0)
(1.52518 0.0274166 0)
(1.52754 0.027632 0)
(1.52987 0.0278206 0)
(1.5322 0.0279825 0)
(1.53448 0.0281163 0)
(1.53677 0.0282167 0)
(1.53903 0.0282898 0)
(1.54132 0.0283416 0)
(1.54352 0.0283699 0)
(1.54586 0.0283718 0)
(1.54819 0.0283386 0)
(1.55043 0.0282638 0)
(1.55261 0.0281442 0)
(1.55474 0.0279816 0)
(1.5568 0.0277763 0)
(1.55878 0.0275294 0)
(1.56069 0.0272418 0)
(1.56253 0.0269144 0)
(1.56428 0.0265481 0)
(1.56596 0.0261443 0)
(1.56754 0.0257049 0)
(1.56901 0.025226 0)
(1.57041 0.0247027 0)
(1.57172 0.0241506 0)
(1.57295 0.0235948 0)
(1.57409 0.0230228 0)
(1.57514 0.0224146 0)
(1.57612 0.0217851 0)
(1.577 0.0211404 0)
(1.5778 0.0204872 0)
(1.57851 0.0198343 0)
(1.57913 0.019173 0)
(1.57967 0.018496 0)
(1.58015 0.0178091 0)
(1.58056 0.0171209 0)
(1.58091 0.0164361 0)
(1.58119 0.0157561 0)
(1.58142 0.0150811 0)
(1.58159 0.0144107 0)
(1.58172 0.013743 0)
(1.5818 0.0130758 0)
(1.58185 0.0124056 0)
(1.58188 0.011728 0)
(1.58187 0.0110374 0)
(1.58186 0.0103276 0)
(1.58183 0.00959065 0)
(1.5818 0.00881736 0)
(1.58178 0.00799705 0)
(1.58177 0.00711915 0)
(1.58179 0.00617176 0)
(1.58185 0.00513925 0)
(1.58195 0.00400312 0)
(1.5821 0.00274272 0)
(1.58231 0.00133758 0)
(1.58262 -0.000238315 0)
(1.58302 -0.00200662 0)
(1.58354 -0.00399483 0)
(1.5842 -0.00624512 0)
(1.58504 -0.00880261 0)
(1.58608 -0.0117156 0)
(1.58738 -0.0150377 0)
(1.58899 -0.0188296 0)
(1.59096 -0.0231632 0)
(1.59337 -0.0281175 0)
(1.59631 -0.033784 0)
(1.59989 -0.0402607 0)
(1.60424 -0.0476791 0)
(1.60953 -0.056149 0)
(1.61595 -0.0657779 0)
(1.62373 -0.0767509 0)
(1.63337 -0.089219 0)
(1.64454 -0.103393 0)
(1.65787 -0.119417 0)
(1.67472 -0.137489 0)
(1.69627 -0.157754 0)
(1.72265 -0.180257 0)
(1.75502 -0.204646 0)
(1.79483 -0.231051 0)
(1.84291 -0.259441 0)
(1.90025 -0.288437 0)
(1.96813 -0.31593 0)
(2.04731 -0.339832 0)
(2.13748 -0.356828 0)
(2.23661 -0.364349 0)
(1.47783 0.00224527 0)
(1.47886 0.00650397 0)
(1.48089 0.00987423 0)
(1.48337 0.0124199 0)
(1.48585 0.0143981 0)
(1.4883 0.0160163 0)
(1.49077 0.0173553 0)
(1.49327 0.0184576 0)
(1.49576 0.0193668 0)
(1.49823 0.0201322 0)
(1.50068 0.0207879 0)
(1.50311 0.0213607 0)
(1.50552 0.0218791 0)
(1.50793 0.0223501 0)
(1.51035 0.0227708 0)
(1.51279 0.023146 0)
(1.51523 0.023484 0)
(1.51769 0.0237905 0)
(1.52016 0.0240676 0)
(1.52264 0.0243174 0)
(1.52513 0.0245395 0)
(1.52764 0.0247347 0)
(1.53016 0.0249014 0)
(1.53269 0.0250538 0)
(1.53522 0.0251812 0)
(1.53775 0.0252794 0)
(1.54028 0.0253391 0)
(1.54279 0.0253554 0)
(1.54529 0.0253472 0)
(1.54779 0.0253227 0)
(1.5503 0.0252695 0)
(1.55279 0.0251785 0)
(1.55527 0.0250453 0)
(1.5577 0.0248725 0)
(1.56012 0.0246563 0)
(1.56247 0.0244026 0)
(1.56481 0.0241066 0)
(1.56708 0.023778 0)
(1.56933 0.0234113 0)
(1.57149 0.0230177 0)
(1.57363 0.0225827 0)
(1.57566 0.0221239 0)
(1.57766 0.0216237 0)
(1.57956 0.0211066 0)
(1.58145 0.0205554 0)
(1.58322 0.0200038 0)
(1.58497 0.0194228 0)
(1.5866 0.0188461 0)
(1.58824 0.0182553 0)
(1.58985 0.0176568 0)
(1.59135 0.0170538 0)
(1.59277 0.0164491 0)
(1.59411 0.0158441 0)
(1.59537 0.0152394 0)
(1.59657 0.0146354 0)
(1.5977 0.0140319 0)
(1.59877 0.0134281 0)
(1.59979 0.0128221 0)
(1.60076 0.0122115 0)
(1.60168 0.011593 0)
(1.60257 0.0109623 0)
(1.60341 0.0103141 0)
(1.60423 0.00964164 0)
(1.60502 0.00893727 0)
(1.60578 0.00819231 0)
(1.60651 0.00739625 0)
(1.60723 0.00653707 0)
(1.60794 0.0056014 0)
(1.60864 0.00457067 0)
(1.60934 0.00342688 0)
(1.61003 0.0021512 0)
(1.61073 0.000723065 0)
(1.61145 -0.000878162 0)
(1.61216 -0.00268655 0)
(1.6129 -0.00473913 0)
(1.61367 -0.00707889 0)
(1.61449 -0.0097511 0)
(1.61538 -0.0128059 0)
(1.61634 -0.0163031 0)
(1.61742 -0.0203114 0)
(1.61865 -0.024915 0)
(1.62009 -0.0302099 0)
(1.6218 -0.0362947 0)
(1.62378 -0.0432881 0)
(1.6263 -0.0513349 0)
(1.62904 -0.060611 0)
(1.6329 -0.0713115 0)
(1.63777 -0.0836451 0)
(1.64393 -0.0978097 0)
(1.6519 -0.113958 0)
(1.66221 -0.132542 0)
(1.67538 -0.154061 0)
(1.69205 -0.178792 0)
(1.71326 -0.206831 0)
(1.74035 -0.238266 0)
(1.77489 -0.273212 0)
(1.81855 -0.311298 0)
(1.87335 -0.351486 0)
(1.94101 -0.391489 0)
(2.02379 -0.429281 0)
(2.12186 -0.45829 0)
(2.23287 -0.475218 0)
(1.47774 0.00170837 0)
(1.4784 0.00502006 0)
(1.47982 0.00788442 0)
(1.48174 0.0102451 0)
(1.48384 0.0121891 0)
(1.486 0.0138257 0)
(1.48822 0.0152105 0)
(1.49049 0.0163773 0)
(1.49279 0.0173576 0)
(1.49511 0.0181862 0)
(1.49742 0.0188885 0)
(1.49974 0.0194906 0)
(1.50205 0.020014 0)
(1.50438 0.0204744 0)
(1.50672 0.02088 0)
(1.50907 0.0212379 0)
(1.51144 0.0215545 0)
(1.51383 0.0218347 0)
(1.51622 0.0220815 0)
(1.51864 0.0222975 0)
(1.52106 0.0224846 0)
(1.5235 0.0226445 0)
(1.52596 0.0227781 0)
(1.52842 0.0228865 0)
(1.5309 0.0229683 0)
(1.53338 0.0230236 0)
(1.53587 0.0230513 0)
(1.53837 0.0230531 0)
(1.54087 0.0230346 0)
(1.54337 0.0229946 0)
(1.54587 0.0229255 0)
(1.54836 0.0228216 0)
(1.55085 0.0226822 0)
(1.55332 0.0225091 0)
(1.55577 0.0223021 0)
(1.55819 0.0220633 0)
(1.56059 0.0217923 0)
(1.56295 0.0214922 0)
(1.56528 0.0211617 0)
(1.56757 0.0208023 0)
(1.56981 0.0204117 0)
(1.572 0.0199961 0)
(1.57414 0.019561 0)
(1.57622 0.0191117 0)
(1.57825 0.0186427 0)
(1.58021 0.0181567 0)
(1.58211 0.0176529 0)
(1.58394 0.0171337 0)
(1.58571 0.0165943 0)
(1.5874 0.0160492 0)
(1.58903 0.0155105 0)
(1.59061 0.0149757 0)
(1.59214 0.0144394 0)
(1.5936 0.0139004 0)
(1.59501 0.0133579 0)
(1.59637 0.0128111 0)
(1.59767 0.0122616 0)
(1.59892 0.0117031 0)
(1.60012 0.0111365 0)
(1.60127 0.0105581 0)
(1.60238 0.00996337 0)
(1.60345 0.00934715 0)
(1.60448 0.00870328 0)
(1.60547 0.00802487 0)
(1.60643 0.00730271 0)
(1.60736 0.00652731 0)
(1.60825 0.00568594 0)
(1.60911 0.00476401 0)
(1.60994 0.00374536 0)
(1.61074 0.00261284 0)
(1.61151 0.00134723 0)
(1.61225 -7.37349e-05 0)
(1.61295 -0.00167487 0)
(1.61365 -0.00348814 0)
(1.61433 -0.00554885 0)
(1.61498 -0.00789737 0)
(1.6156 -0.0105816 0)
(1.61621 -0.0136576 0)
(1.61681 -0.0171911 0)
(1.61742 -0.0212612 0)
(1.61807 -0.0259585 0)
(1.61871 -0.031385 0)
(1.61946 -0.0376588 0)
(1.62037 -0.0449275 0)
(1.62156 -0.0533499 0)
(1.62312 -0.0631507 0)
(1.62515 -0.0745986 0)
(1.62781 -0.0879322 0)
(1.6314 -0.10344 0)
(1.63626 -0.121522 0)
(1.64287 -0.142677 0)
(1.65183 -0.167414 0)
(1.66391 -0.196197 0)
(1.68021 -0.229489 0)
(1.70217 -0.267763 0)
(1.7317 -0.31136 0)
(1.77101 -0.360212 0)
(1.8232 -0.413741 0)
(1.89048 -0.469227 0)
(1.97924 -0.526187 0)
(2.08703 -0.571392 0)
(2.22037 -0.610374 0)
(1.4777 0.00135075 0)
(1.47818 0.00400016 0)
(1.47925 0.0064162 0)
(1.48077 0.00850332 0)
(1.48252 0.0102617 0)
(1.4844 0.0117486 0)
(1.48637 0.0130125 0)
(1.48842 0.014084 0)
(1.49054 0.0149883 0)
(1.4927 0.0157533 0)
(1.49489 0.0164038 0)
(1.4971 0.0169628 0)
(1.49934 0.0174486 0)
(1.50159 0.0178753 0)
(1.50387 0.0182522 0)
(1.50617 0.0185854 0)
(1.50848 0.0188803 0)
(1.51082 0.0191412 0)
(1.51317 0.0193719 0)
(1.51554 0.0195751 0)
(1.51792 0.0197528 0)
(1.52032 0.0199064 0)
(1.52273 0.0200369 0)
(1.52516 0.0201453 0)
(1.52759 0.0202317 0)
(1.53003 0.0202953 0)
(1.53248 0.0203353 0)
(1.53494 0.0203515 0)
(1.53739 0.0203438 0)
(1.53984 0.0203113 0)
(1.54229 0.020252 0)
(1.54473 0.0201639 0)
(1.54716 0.0200463 0)
(1.54958 0.0198994 0)
(1.55198 0.0197232 0)
(1.55435 0.019518 0)
(1.5567 0.0192842 0)
(1.55902 0.0190227 0)
(1.5613 0.018734 0)
(1.56354 0.0184197 0)
(1.56574 0.0180804 0)
(1.5679 0.017719 0)
(1.57001 0.0173371 0)
(1.57207 0.016937 0)
(1.57407 0.0165187 0)
(1.57603 0.0160852 0)
(1.57792 0.0156372 0)
(1.57976 0.0151776 0)
(1.58154 0.0147081 0)
(1.58326 0.0142349 0)
(1.58493 0.013762 0)
(1.58653 0.0132871 0)
(1.58808 0.0128077 0)
(1.58958 0.0123234 0)
(1.59102 0.0118348 0)
(1.59241 0.0113413 0)
(1.59375 0.0108422 0)
(1.59504 0.0103355 0)
(1.59627 0.00981887 0)
(1.59747 0.00928897 0)
(1.59861 0.00874165 0)
(1.59971 0.00817195 0)
(1.60077 0.00757382 0)
(1.60178 0.00694001 0)
(1.60275 0.00626267 0)
(1.60367 0.00553087 0)
(1.60455 0.0047333 0)
(1.60538 0.00385669 0)
(1.60616 0.00288573 0)
(1.60689 0.00180319 0)
(1.60756 0.00058939 0)
(1.60817 -0.00077836 0)
(1.60872 -0.00232818 0)
(1.60921 -0.00409229 0)
(1.60961 -0.00610292 0)
(1.60995 -0.00839834 0)
(1.6102 -0.0110288 0)
(1.61038 -0.0140549 0)
(1.61048 -0.0175462 0)
(1.61049 -0.0215845 0)
(1.61042 -0.0262597 0)
(1.61029 -0.0316838 0)
(1.61011 -0.0379997 0)
(1.6099 -0.0453759 0)
(1.6097 -0.0540043 0)
(1.60958 -0.0641166 0)
(1.60962 -0.0759889 0)
(1.60997 -0.089937 0)
(1.61081 -0.106352 0)
(1.61243 -0.125718 0)
(1.61524 -0.14862 0)
(1.61977 -0.175747 0)
(1.62678 -0.207889 0)
(1.63735 -0.245931 0)
(1.65303 -0.29085 0)
(1.67595 -0.343535 0)
(1.70906 -0.40472 0)
(1.75634 -0.474178 0)
(1.82149 -0.549588 0)
(1.91569 -0.631054 0)
(2.02798 -0.69306 0)
(2.20469 -0.776505 0)
(1.47768 0.00108969 0)
(1.47805 0.0032302 0)
(1.47889 0.00523271 0)
(1.48013 0.00701589 0)
(1.48162 0.0085629 0)
(1.48327 0.00989478 0)
(1.48505 0.0110489 0)
(1.48693 0.0120431 0)
(1.4889 0.0128958 0)
(1.49094 0.0136277 0)
(1.49303 0.0142579 0)
(1.49516 0.0148033 0)
(1.49732 0.015278 0)
(1.49951 0.0156937 0)
(1.50173 0.0160589 0)
(1.50398 0.01638 0)
(1.50625 0.0166622 0)
(1.50854 0.0169102 0)
(1.51086 0.0171279 0)
(1.51319 0.0173178 0)
(1.51554 0.0174823 0)
(1.51791 0.0176228 0)
(1.52029 0.0177404 0)
(1.52268 0.0178362 0)
(1.52508 0.0179102 0)
(1.52749 0.0179624 0)
(1.5299 0.0179924 0)
(1.53232 0.0180001 0)
(1.53473 0.0179857 0)
(1.53715 0.0179492 0)
(1.53956 0.01789 0)
(1.54196 0.0178068 0)
(1.54436 0.0176985 0)
(1.54674 0.0175649 0)
(1.54909 0.0174059 0)
(1.55143 0.0172219 0)
(1.55374 0.0170133 0)
(1.55602 0.016781 0)
(1.55826 0.0165256 0)
(1.56047 0.0162484 0)
(1.56264 0.0159501 0)
(1.56476 0.0156326 0)
(1.56684 0.0152974 0)
(1.56887 0.0149466 0)
(1.57085 0.014581 0)
(1.57277 0.0142025 0)
(1.57465 0.0138121 0)
(1.57646 0.0134118 0)
(1.57823 0.013003 0)
(1.57993 0.0125882 0)
(1.58158 0.0121691 0)
(1.58317 0.0117461 0)
(1.5847 0.0113187 0)
(1.58619 0.0108873 0)
(1.58762 0.0104513 0)
(1.58899 0.0100102 0)
(1.59032 0.00956243 0)
(1.59159 0.00910631 0)
(1.59281 0.0086388 0)
(1.59398 0.0081573 0)
(1.5951 0.00765733 0)
(1.59617 0.00713465 0)
(1.59719 0.00658294 0)
(1.59816 0.00599617 0)
(1.59908 0.00536536 0)
(1.59994 0.00468316 0)
(1.60075 0.00393631 0)
(1.6015 0.003114 0)
(1.60218 0.00220158 0)