/*--------------------------------*- C++ -*----------------------------------*\
| =========                 |                                                 |
| \\      /  F ield         | OpenFOAM: The Open Source CFD Toolbox           |
|  \\    /   O peration     | Version:  2206                                  |
|   \\  /    A nd           | Website:  www.openfoam.com                      |
|    \\/     M anipulation  |                                                 |
\*---------------------------------------------------------------------------*/
FoamFile
{
    version     2.0;
    format      ascii;
    arch        "LSB;label=32;scalar=64";
    class       surfaceScalarField;
    location    "19.5";
    object      phi_0;
}
// * * * * * * * * * * * * * * * * * * * * * * * * * * * * * * * * * * * * * //

dimensions      [0 3 -1 0 0 0 0];

oriented        oriented;

internalField   nonuniform List<scalar> 
3588
(
7.35117e-07
-8.62189e-07
1.27073e-07
1.40437e-06
-8.77103e-07
2.07854e-07
2.06942e-06
-8.33589e-07
1.68539e-07
2.77115e-06
-6.65828e-07
-3.59051e-08
3.47392e-06
-2.89508e-07
-4.13262e-07
4.10845e-06
3.02277e-07
-9.36804e-07
4.59148e-06
1.02983e-06
-1.51286e-06
4.8739e-06
1.73335e-06
-2.01578e-06
4.97816e-06
2.27987e-06
-2.38413e-06
4.95126e-06
2.63387e-06
-2.60697e-06
4.82666e-06
2.81689e-06
-2.69229e-06
4.62199e-06
2.84489e-06
-2.64021e-06
4.36079e-06
2.71785e-06
-2.45666e-06
4.02461e-06
2.50602e-06
-2.16984e-06
3.5556e-06
2.28908e-06
-1.82008e-06
2.93819e-06
2.07904e-06
-1.46163e-06
2.28346e-06
1.80666e-06
-1.15193e-06
1.77139e-06
1.41059e-06
-8.98518e-07
1.52774e-06
8.88628e-07
-6.44973e-07
1.56534e-06
2.94978e-07
-3.32581e-07
1.78279e-06
-2.6785e-07
5.03958e-08
2.11908e-06
-8.01064e-07
4.6478e-07
2.534e-06
-1.25568e-06
8.40754e-07
3.00404e-06
-1.61745e-06
1.14741e-06
3.5227e-06
-1.88719e-06
1.36853e-06
4.09294e-06
-2.05901e-06
1.48877e-06
4.72081e-06
-2.11622e-06
1.48835e-06
5.40909e-06
-2.03345e-06
1.34516e-06
6.1497e-06
-1.78755e-06
1.04694e-06
6.90481e-06
-1.37463e-06
6.19519e-07
7.60302e-06
-8.38241e-07
1.40035e-07
8.17518e-06
-2.6412e-07
-3.08046e-07
8.58301e-06
2.69889e-07
-6.77721e-07
8.82826e-06
7.31619e-07
-9.76866e-07
8.93252e-06
1.12008e-06
-1.22433e-06
8.92011e-06
1.43095e-06
-1.41854e-06
8.8095e-06
1.66293e-06
-1.55231e-06
8.6203e-06
1.80848e-06
-1.61929e-06
8.37479e-06
1.87048e-06
-1.62497e-06
8.09284e-06
1.85921e-06
-1.57726e-06
7.79219e-06
1.78511e-06
-1.48446e-06
7.48943e-06
1.65988e-06
-1.35712e-06
7.20017e-06
1.49554e-06
-1.20629e-06
6.93268e-06
1.3103e-06
-1.04281e-06
6.68234e-06
1.13123e-06
-8.80885e-07
6.43301e-06
9.89752e-07
-7.40417e-07
6.16256e-06
9.15464e-07
-6.45014e-07
5.85673e-06
9.20986e-07
-6.15157e-07
5.52201e-06
9.87886e-07
-6.53167e-07
5.18645e-06
1.07094e-06
-7.3538e-07
4.88049e-06
1.12049e-06
-8.14525e-07
4.62532e-06
1.09763e-06
-8.42469e-07
4.43924e-06
9.75797e-07
-7.89713e-07
4.33314e-06
7.52476e-07
-6.46377e-07
4.3042e-06
4.51585e-07
-4.22642e-07
4.34265e-06
1.10432e-07
-1.4889e-07
4.4357e-06
-2.33293e-07
1.40245e-07
4.57009e-06
-5.51159e-07
4.16774e-07
4.73404e-06
-8.27095e-07
6.63148e-07
4.91666e-06
-1.0522e-06
8.69576e-07
5.109e-06
-1.22381e-06
1.03147e-06
5.30427e-06
-1.34403e-06
1.14876e-06
5.49783e-06
-1.41754e-06
1.22399e-06
5.68722e-06
-1.45006e-06
1.26067e-06
5.8724e-06
-1.44748e-06
1.26229e-06
6.05595e-06
-1.41448e-06
1.23093e-06
6.2425e-06
-1.35252e-06
1.16597e-06
6.43703e-06
-1.2584e-06
1.06387e-06
6.64343e-06
-1.12587e-06
9.19481e-07
6.86354e-06
-9.47375e-07
7.27258e-07
7.09511e-06
-7.17896e-07
4.86331e-07
7.3244e-06
-4.39405e-07
2.10116e-07
7.5286e-06
-1.31253e-07
-7.2945e-08
7.68746e-06
1.73004e-07
-3.31869e-07
7.78863e-06
4.4776e-07
-5.48933e-07
7.83106e-06
6.73395e-07
-7.15825e-07
7.8175e-06
8.46826e-07
-8.33264e-07
7.74233e-06
9.74366e-07
-8.99193e-07
7.59377e-06
1.04758e-06
-8.99027e-07
7.37998e-06
1.0551e-06
-8.413e-07
7.118e-06
1.01083e-06
-7.48854e-07
6.83082e-06
9.35676e-07
-6.48497e-07
6.54169e-06
8.53735e-07
-5.64604e-07
6.26773e-06
7.8555e-07
-5.11589e-07
6.02031e-06
7.4034e-07
-4.92921e-07
5.80599e-06
7.16845e-07
-5.02529e-07
5.6262e-06
7.06554e-07
-5.26762e-07
5.47835e-06
6.97055e-07
-5.49205e-07
5.35852e-06
6.75144e-07
-5.55319e-07
5.26439e-06
6.27928e-07
-5.33794e-07
5.19451e-06
5.46862e-07
-4.76987e-07
5.1484e-06
4.29993e-07
-3.8388e-07
5.12618e-06
2.80354e-07
-2.58131e-07
5.12857e-06
1.04535e-07
-1.0693e-07
5.1557e-06
-8.74977e-08
6.03656e-08
5.20606e-06
-2.83123e-07
2.32767e-07
5.27663e-06
-4.68721e-07
3.9815e-07
5.36389e-06
-6.34605e-07
5.47348e-07
5.46394e-06
-7.73504e-07
6.73454e-07
5.57326e-06
-8.80787e-07
7.71468e-07
5.68918e-06
-9.54058e-07
8.38133e-07
5.80972e-06
-9.92319e-07
8.71782e-07
5.9325e-06
-9.95008e-07
8.72229e-07
6.05491e-06
-9.63009e-07
8.40597e-07
6.17503e-06
-8.99026e-07
7.78904e-07
6.29198e-06
-8.07072e-07
6.90126e-07
6.40608e-06
-6.91152e-07
5.77043e-07
6.51784e-06
-5.5444e-07
4.42682e-07
6.62623e-06
-3.99749e-07
2.91364e-07
6.72594e-06
-2.31554e-07
1.31839e-07
6.80995e-06
-5.878e-08
-2.52279e-08
6.87206e-06
1.08504e-07
-1.70608e-07
6.90715e-06
2.62792e-07
-2.97885e-07
6.91e-06
4.00986e-07
-4.03837e-07
6.87369e-06
5.18034e-07
-4.8172e-07
6.79446e-06
6.06438e-07
-5.27216e-07
6.67531e-06
6.59869e-07
-5.40712e-07
6.52611e-06
6.79769e-07
-5.30567e-07
6.74606e-07
-5.09364e-07
3.01541e-07
-1.16373e-06
6.69368e-07
-1.24493e-06
1.02965e-06
-1.19387e-06
1.38975e-06
-1.02593e-06
1.78047e-06
-6.80233e-07
2.21419e-06
-1.31433e-07
2.6539e-06
5.90114e-07
3.00982e-06
1.37743e-06
3.229e-06
2.06069e-06
3.30664e-06
2.55622e-06
3.23984e-06
2.88369e-06
3.00947e-06
3.07527e-06
2.58805e-06
3.13927e-06
1.99409e-06
3.09998e-06
1.34922e-06
2.93396e-06
8.34842e-07
2.59341e-06
5.74651e-07
2.06685e-06
5.78158e-07
1.40708e-06
8.02012e-07
6.64773e-07
1.13221e-06
-3.5224e-08
1.5387e-06
-6.74335e-07
1.95649e-06
-1.21886e-06
2.36688e-06
-1.66606e-06
2.76909e-06
-2.01966e-06
3.17082e-06
-2.28891e-06
3.5874e-06
-2.4756e-06
4.04047e-06
-2.56929e-06
4.5501e-06
-2.54308e-06
5.12405e-06
-2.3615e-06
5.75273e-06
-2.00331e-06
6.40148e-06
-1.48699e-06
7.00798e-06
-8.70622e-07
7.51458e-06
-2.36709e-07
7.89217e-06
3.54032e-07
8.13813e-06
8.74116e-07
8.26758e-06
1.30149e-06
8.29888e-06
1.63163e-06
8.24274e-06
1.86461e-06
8.11457e-06
1.99865e-06
7.93064e-06
2.04314e-06
7.70783e-06
2.00792e-06
7.46203e-06
1.90569e-06
7.20805e-06
1.74952e-06
6.95208e-06
1.56627e-06
6.68902e-06
1.39428e-06
6.40722e-06
1.27155e-06
6.09926e-06
1.22342e-06
5.77222e-06
1.24803e-06
5.44796e-06
1.31215e-06
5.15061e-06
1.36828e-06
4.89734e-06
1.37376e-06
4.70469e-06
1.29028e-06
4.58442e-06
1.09607e-06
4.53781e-06
7.9909e-07
4.55833e-06
4.31059e-07
4.6359e-06
3.28596e-08
4.75708e-06
-3.54474e-07
4.90959e-06
-7.0367e-07
5.08121e-06
-9.98713e-07
5.26063e-06
-1.23162e-06
5.43864e-06
-1.40182e-06
5.60874e-06
-1.51413e-06
5.76777e-06
-1.57657e-06
5.91462e-06
-1.59691e-06
6.05106e-06
-1.58393e-06
6.18205e-06
-1.54547e-06
6.31465e-06
-1.48511e-06
6.45562e-06
-1.39938e-06
6.60954e-06
-1.27979e-06
6.77887e-06
-1.11671e-06
6.96349e-06
-9.02515e-07
7.15919e-06
-6.35105e-07
7.35134e-06
-3.23397e-07
7.51815e-06
6.19228e-09
7.64433e-06
3.21584e-07
7.71779e-06
5.99934e-07
7.73339e-06
8.31227e-07
7.69641e-06
1.01135e-06
7.60672e-06
1.13726e-06
7.46023e-06
1.20159e-06
7.26465e-06
1.20642e-06
7.03371e-06
1.16661e-06
6.78607e-06
1.10137e-06
6.54088e-06
1.03074e-06
6.31253e-06
9.68694e-07
6.11022e-06
9.19154e-07
5.93826e-06
8.78518e-07
5.79694e-06
8.38371e-07
5.68486e-06
7.87229e-07
5.60035e-06
7.12435e-07
5.54119e-06
6.0602e-07
5.50581e-06
4.65377e-07
5.4934e-06
2.92759e-07
5.50367e-06
9.42634e-08
5.53606e-06
-1.19885e-07
5.58773e-06
-3.3479e-07
5.6556e-06
-5.36595e-07
5.73595e-06
-7.14956e-07
5.82483e-06
-8.62381e-07
5.9186e-06
-9.74557e-07
6.01472e-06
-1.05017e-06
6.11247e-06
-1.09007e-06
6.21098e-06
-1.09351e-06
6.30775e-06
-1.05978e-06
6.40128e-06
-9.92561e-07
6.49126e-06
-8.97046e-07
6.57812e-06
-7.78013e-07
6.66275e-06
-6.39073e-07
6.74584e-06
-4.82838e-07
6.82614e-06
-3.11852e-07
6.89889e-06
-1.31536e-07
6.95797e-06
4.94321e-08
6.99727e-06
2.23492e-07
7.01539e-06
3.82865e-07
7.01224e-06
5.21184e-07
6.98226e-06
6.36415e-07
6.91779e-06
7.24337e-07
6.81895e-06
7.78616e-07
8.00126e-07
1.01203e-07
-1.26493e-06
1.89022e-07
-1.33275e-06
2.67762e-07
-1.27261e-06
3.49114e-07
-1.10728e-06
4.62411e-07
-7.93529e-07
5.99673e-07
-2.68696e-07
8.05044e-07
3.84743e-07
1.01845e-06
1.16403e-06
1.16454e-06
1.9146e-06
1.16864e-06
2.55212e-06
1.01027e-06
3.04206e-06
7.18985e-07
3.36655e-06
3.53792e-07
3.50446e-06
2.99618e-08
3.42381e-06
-1.49238e-07
3.11315e-06
-1.39062e-07
2.58324e-06
5.72592e-08
1.87053e-06
4.22756e-07
1.04158e-06
8.66547e-07
2.20982e-07
1.35082e-06
-5.19497e-07
1.82139e-06
-1.14491e-06
2.25516e-06
-1.65262e-06
2.63942e-06
-2.05032e-06
2.96995e-06
-2.35019e-06
3.25233e-06
-2.57129e-06
3.5045e-06
-2.72777e-06
3.75704e-06
-2.82183e-06
4.05249e-06
-2.83853e-06
4.42605e-06
-2.73506e-06
4.87596e-06
-2.45322e-06
5.38833e-06
-1.99936e-06
5.92402e-06
-1.40631e-06
6.42908e-06
-7.41772e-07
6.86119e-06
-7.80775e-08
7.20017e-06
5.3514e-07
7.44039e-06
1.06128e-06
7.5871e-06
1.48491e-06
7.65138e-06
1.80034e-06
7.64538e-06
2.00465e-06
7.57625e-06
2.11227e-06
7.45388e-06
2.13029e-06
7.28424e-06
2.07532e-06
7.08442e-06
1.94934e-06
6.85827e-06
1.79243e-06
6.6043e-06
1.64825e-06
6.32212e-06
1.55374e-06
6.02006e-06
1.52547e-06
5.71729e-06
1.55079e-06
5.43517e-06
1.59427e-06
5.18982e-06
1.61363e-06
4.99706e-06
1.56652e-06
4.87048e-06
1.41686e-06
4.814e-06
1.15256e-06
4.82334e-06
7.89745e-07
4.8899e-06
3.64499e-07
5.00187e-06
-7.91045e-08
5.14589e-06
-4.98493e-07
5.30926e-06
-8.67048e-07
5.47982e-06
-1.16927e-06
5.64611e-06
-1.39791e-06
5.79991e-06
-1.55562e-06
5.93585e-06
-1.65007e-06
6.05271e-06
-1.69342e-06
6.1503e-06
-1.6945e-06
6.23089e-06
-1.66451e-06
6.3023e-06
-1.61688e-06
6.37432e-06
-1.55714e-06
6.45651e-06
-1.48157e-06
6.55482e-06
-1.3781e-06
6.67172e-06
-1.2336e-06
6.80698e-06
-1.03777e-06
6.9581e-06
-7.86225e-07
7.11812e-06
-4.83417e-07
7.27064e-06
-1.46331e-07
7.39825e-06
1.93971e-07
7.48789e-06
5.10292e-07
7.53285e-06
7.86273e-07
7.53307e-06
1.01112e-06
7.49076e-06
1.17958e-06
7.40365e-06
1.2887e-06
7.27322e-06
1.33685e-06
7.10832e-06
1.33152e-06
6.92012e-06
1.28957e-06
6.72402e-06
1.22684e-06
6.53517e-06
1.15754e-06
6.36389e-06
1.09043e-06
6.21605e-06
1.02636e-06
6.09432e-06
9.60104e-07
5.99986e-06
8.81686e-07
5.93163e-06
7.80663e-07
5.88759e-06
6.50058e-07
5.86571e-06
4.8726e-07
5.86452e-06
2.9395e-07
5.88293e-06
7.58563e-08
5.91899e-06
-1.55948e-07
5.96941e-06
-3.85215e-07
6.0313e-06
-5.98481e-07
6.1011e-06
-7.84754e-07
6.17507e-06
-9.3635e-07
6.24935e-06
-1.04884e-06
6.32113e-06
-1.12195e-06
6.39028e-06
-1.15922e-06
6.45875e-06
-1.16199e-06
6.52386e-06
-1.12489e-06
6.58519e-06
-1.05389e-06
6.64387e-06
-9.55727e-07
6.70128e-06
-8.35423e-07
6.75862e-06
-6.96409e-07
6.81667e-06
-5.40888e-07
6.87523e-06
-3.70413e-07
6.93105e-06
-1.87359e-07
6.97845e-06
2.02955e-09
7.01404e-06
1.87901e-07
7.03573e-06
3.61184e-07
7.04249e-06
5.1442e-07
7.03407e-06
6.44833e-07
7.00691e-06
7.51495e-07
6.95609e-06
8.29441e-07
8.75084e-07
-8.73465e-08
-1.17759e-06
-2.17364e-07
-1.20273e-06
-3.6342e-07
-1.12655e-06
-5.17472e-07
-9.53228e-07
-6.57992e-07
-6.53009e-07
-7.55236e-07
-1.71452e-07
-7.99575e-07
4.29082e-07
-7.91769e-07
1.15622e-06
-7.71036e-07
1.89387e-06
-7.74515e-07
2.5556e-06
-8.08459e-07
3.076e-06
-8.46346e-07
3.40444e-06
-8.59776e-07
3.51789e-06
-7.98243e-07
3.36227e-06
-6.1569e-07
2.9306e-06
-2.7127e-07
2.23882e-06
2.21582e-07
1.37768e-06
7.90207e-07
4.72959e-07
1.36642e-06
-3.55233e-07
1.90876e-06
-1.06183e-06
2.39675e-06
-1.6329e-06
2.81477e-06
-2.07063e-06
3.15181e-06
-2.38736e-06
3.40447e-06
-2.60286e-06
3.57949e-06
-2.74631e-06
3.69742e-06
-2.8457e-06
3.78708e-06
-2.9115e-06
3.88137e-06
-2.93281e-06
4.03369e-06
-2.88739e-06
4.27857e-06
-2.6981e-06
4.61478e-06
-2.33556e-06
5.01888e-06
-1.81041e-06
5.45123e-06
-1.17412e-06
5.86847e-06
-4.9532e-07
6.24092e-06
1.62692e-07
6.54865e-06
7.53543e-07
6.78347e-06
1.2501e-06
6.94601e-06
1.63779e-06
7.0398e-06
1.91087e-06
7.07611e-06
2.07596e-06
7.05877e-06
2.14763e-06
6.98326e-06
2.15083e-06
6.85214e-06
2.08047e-06
6.67554e-06
1.96902e-06
6.45842e-06
1.86537e-06
6.21127e-06
1.80089e-06
5.95187e-06
1.78487e-06
5.70155e-06
1.80111e-06
5.47885e-06
1.81696e-06
5.29858e-06
1.7939e-06
5.1763e-06
1.68881e-06
5.11972e-06
1.47343e-06
5.12634e-06
1.14594e-06
5.18935e-06
7.26735e-07
5.29963e-06
2.54211e-07
5.44166e-06
-2.21127e-07
5.60229e-06
-6.59125e-07
5.7677e-06
-1.03246e-06
5.92631e-06
-1.32788e-06
6.06752e-06
-1.53911e-06
6.18474e-06
-1.67284e-06
6.2753e-06
-1.74063e-06
6.3417e-06
-1.75982e-06
6.38121e-06
-1.73401e-06
6.39878e-06
-1.68208e-06
6.40529e-06
-1.62339e-06
6.41334e-06
-1.56519e-06
6.43351e-06
-1.50173e-06
6.47315e-06
-1.41775e-06
6.53517e-06
-1.29562e-06
6.61943e-06
-1.12203e-06
6.72357e-06
-8.90374e-07
6.84311e-06
-6.02956e-07
6.96853e-06
-2.71743e-07
7.08402e-06
7.8474e-08
7.17827e-06
4.16047e-07
7.24265e-06
7.21896e-07
7.27433e-06
9.79433e-07
7.27342e-06
1.18049e-06
7.23933e-06
1.32279e-06
7.17152e-06
1.40466e-06
7.07204e-06
1.431e-06
6.9485e-06
1.4131e-06
6.81171e-06
1.36364e-06
6.67409e-06
1.29515e-06
6.546e-06
1.21852e-06
6.43424e-06
1.13812e-06
6.34337e-06
1.05097e-06
6.27586e-06
9.49204e-07
6.23124e-06
8.25279e-07
6.20778e-06
6.73517e-07
6.20345e-06
4.9159e-07
6.21644e-06
2.80964e-07
6.24474e-06
4.75579e-08
6.28469e-06
-1.95901e-07
6.33263e-06
-4.33152e-07
6.38538e-06
-6.51235e-07
6.44005e-06
-8.3943e-07
6.49405e-06
-9.90348e-07
6.54406e-06
-1.09885e-06
6.58762e-06
-1.16551e-06
6.62426e-06
-1.19586e-06
6.6581e-06
-1.19582e-06
6.68598e-06
-1.15277e-06
6.70992e-06
-1.07784e-06
6.73379e-06
-9.79597e-07
6.76039e-06
-8.62016e-07
6.79101e-06
-7.27034e-07
6.82556e-06
-5.75437e-07
6.86374e-06
-4.08593e-07
6.90429e-06
-2.27907e-07
6.9434e-06
-3.70807e-08
6.97656e-06
1.54738e-07
7.0005e-06
3.37248e-07
7.01204e-06
5.0288e-07
7.01085e-06
6.46018e-07
6.99956e-06
7.62785e-07
6.97814e-06
8.50861e-07
9.09125e-07
-2.26546e-07
-4.8607e-07
-7.43127e-07
-9.87809e-07
-1.20619e-06
-1.36383e-06
-1.47633e-06
-1.52054e-06
-1.50965e-06
-1.46383e-06
-1.38995e-06
-1.28377e-06
-1.1062e-06
-7.96362e-07
-3.21357e-07
2.82353e-07
9.44122e-07
1.59233e-06
2.19646e-06
2.73633e-06
3.19722e-06
3.56683e-06
3.83976e-06
4.01272e-06
4.0864e-06
4.07419e-06
4.0161e-06
3.95124e-06
3.90847e-06
3.94003e-06
4.08201e-06
4.32566e-06
4.64201e-06
4.99467e-06
5.34936e-06
5.68063e-06
5.97062e-06
6.20813e-06
6.38768e-06
6.50929e-06
6.57501e-06
6.592e-06
6.54664e-06
6.43886e-06
6.28283e-06
6.09708e-06
5.90426e-06
5.7243e-06
5.57389e-06
5.47112e-06
5.42718e-06
5.44291e-06
5.51367e-06
5.63099e-06
5.78181e-06
5.9475e-06
6.1143e-06
6.26888e-06
6.40123e-06
6.50549e-06
6.57658e-06
6.61533e-06
6.62055e-06
6.59084e-06
6.53931e-06
6.48076e-06
6.42669e-06
6.38567e-06
6.36575e-06
6.37134e-06
6.40301e-06
6.45889e-06
6.53549e-06
6.62747e-06
6.72394e-06
6.81418e-06
6.89008e-06
6.94626e-06
6.9796e-06
6.99031e-06
6.97929e-06
6.94403e-06
6.8851e-06
6.80773e-06
6.72641e-06
6.64822e-06
6.58029e-06
6.52836e-06
6.49464e-06
6.47918e-06
6.48087e-06
6.49798e-06
6.52838e-06
6.56902e-06
6.61399e-06
6.659e-06
6.70044e-06
6.73599e-06
6.76431e-06
6.78436e-06
6.79628e-06
6.79835e-06
6.78977e-06
6.77717e-06
6.76576e-06
6.7581e-06
6.75559e-06
6.75914e-06
6.76993e-06
6.7879e-06
6.81208e-06
6.84049e-06
6.86914e-06
6.8945e-06
6.91341e-06
6.92386e-06
6.9254e-06
6.9195e-06
4.07388e-06
1.95164e-07
3.86369e-06
2.10184e-07
3.63581e-06
2.27882e-07
3.38719e-06
2.48622e-07
3.11475e-06
2.72434e-07
2.81578e-06
2.9897e-07
3.27198e-07
2.48859e-06
7.3185e-06
3.05316e-07
7.19843e-06
3.30249e-07
7.06692e-06
3.59395e-07
6.92221e-06
3.93333e-07
6.76211e-06
4.32536e-07
6.58409e-06
4.76984e-07
5.25607e-07
6.38569e-06
8.23537e-06
3.57757e-07
8.17898e-06
3.86647e-07
8.11807e-06
4.20298e-07
8.05194e-06
4.5946e-07
7.97966e-06
5.04816e-07
7.89991e-06
5.56736e-07
6.15086e-07
7.81043e-06
8.46529e-06
3.8725e-07
8.43497e-06
4.16967e-07
8.40391e-06
4.51353e-07
8.3721e-06
4.91273e-07
8.33902e-06
5.37899e-07
8.3038e-06
5.91951e-07
6.53785e-07
8.2651e-06
8.54006e-06
4.07278e-07
8.52098e-06
4.36043e-07
8.50291e-06
4.69426e-07
8.48604e-06
5.08147e-07
8.47099e-06
5.52945e-07
8.45787e-06
6.05076e-07
6.66375e-07
8.44528e-06
8.50241e-06
4.18177e-07
8.49305e-06
4.45407e-07
8.48592e-06
4.76556e-07
8.48178e-06
5.12287e-07
8.48109e-06
5.5364e-07
8.4837e-06
6.02457e-07
6.61155e-07
8.48892e-06
8.23786e-06
4.05996e-07
8.25275e-06
4.30509e-07
8.27121e-06
4.58102e-07
8.29401e-06
4.8948e-07
8.32165e-06
5.26009e-07
8.35427e-06
5.6983e-07
6.24126e-07
8.3913e-06
7.23719e-06
3.36019e-07
7.31147e-06
3.56225e-07
7.39147e-06
3.78105e-07
7.47883e-06
4.02125e-07
7.57548e-06
4.29354e-07
7.68385e-06
4.61462e-07
5.01322e-07
7.80665e-06
4.79492e-06
1.78386e-07
4.95988e-06
1.91261e-07
5.13387e-06
2.04118e-07
5.31864e-06
2.17355e-07
5.5169e-06
2.31096e-07
5.73223e-06
2.46123e-07
2.52159e-07
5.9814e-06
1.70521e-06
1.89647e-06
2.10059e-06
2.31795e-06
2.54904e-06
2.79516e-06
3.04732e-06
2.13452e-06
3.54067e-07
1.76707e-06
3.67451e-07
1.40319e-06
3.63883e-07
1.05446e-06
3.48729e-07
7.27096e-07
3.2736e-07
4.23543e-07
3.03552e-07
1.37939e-07
2.85604e-07
-1.41637e-07
2.79577e-07
-4.22262e-07
2.80625e-07
-6.94046e-07
2.71783e-07
-9.21742e-07
2.27696e-07
-1.0584e-06
1.36662e-07
-1.06498e-06
6.5722e-09
-9.78559e-07
-8.64173e-08
-8.13292e-07
-1.65266e-07
-6.40947e-07
-1.72345e-07
-4.91602e-07
-1.49344e-07
-3.39006e-07
-1.52597e-07
-1.39728e-07
-1.99277e-07
1.0161e-07
-2.41338e-07
3.51484e-07
-2.49874e-07
5.45473e-07
-1.93988e-07
6.37063e-07
-9.15901e-08
6.20269e-07
1.67939e-08
4.97248e-07
1.23021e-07
2.82854e-07
2.14393e-07
5.41148e-09
2.77443e-07
-3.03509e-07
3.08921e-07
-5.9818e-07
2.94671e-07
-8.46287e-07
2.48107e-07
-1.02462e-06
1.78328e-07
-1.11719e-06
9.25746e-08
-1.12388e-06
6.6917e-09
-1.05597e-06
-6.79119e-08
-9.20814e-07
-1.35156e-07
-7.4068e-07
-1.80134e-07
-5.41079e-07
-1.99601e-07
-3.45231e-07
-1.95848e-07
-1.73165e-07
-1.72066e-07
-4.03611e-08
-1.32803e-07
4.41586e-08
-8.45197e-08
7.47779e-08
-3.06193e-08
6.02845e-08
1.44934e-08
3.67192e-09
5.66126e-08
-8.90097e-08
9.26816e-08
-2.10666e-07
1.21656e-07
-3.44111e-07
1.33446e-07
-4.7299e-07
1.28878e-07
-5.78199e-07
1.0521e-07
-6.40797e-07
6.25976e-08
-6.47967e-07
7.17068e-09
-6.06636e-07
-4.13311e-08
-5.22968e-07
-8.36679e-08
-4.14361e-07
-1.08608e-07
-2.99665e-07
-1.14696e-07
-1.94606e-07
-1.05059e-07
-1.11026e-07
-8.35801e-08
-5.64518e-08
-5.4574e-08
-3.27432e-08
-2.37086e-08
-3.6734e-08
3.99073e-09
-5.99177e-08
2.31837e-08
-9.62783e-08
3.63606e-08
-1.34523e-07
3.82451e-08
-1.64568e-07
3.00449e-08
-1.78725e-07
1.41569e-08
-1.74566e-07
-4.15913e-09
-1.53749e-07
-2.08171e-08
-1.19605e-07
-3.41441e-08
-7.90395e-08
-4.05654e-08
-3.87666e-08
-4.02729e-08
-4.82584e-09
-3.39408e-08
1.80652e-08
-2.2891e-08
2.78237e-08
-9.75857e-09
2.49307e-08
2.89298e-09
1.12425e-08
1.36882e-08
-1.04903e-08
2.17328e-08
-3.69195e-08
2.64292e-08
-6.35635e-08
2.66439e-08
-8.59426e-08
2.23791e-08
-1.00382e-07
1.44392e-08
-1.04924e-07
4.54252e-09
-1.01003e-07
-3.92153e-09
-8.97838e-08
-1.1219e-08
-7.40615e-08
-1.57222e-08
-5.74653e-08
-1.65963e-08
-4.33367e-08
-1.41286e-08
-3.43269e-08
-9.00981e-09
-3.18215e-08
-2.50532e-09
-3.56974e-08
3.87584e-09
-4.4797e-08
9.09963e-09
-5.70432e-08
1.22462e-08
-6.97837e-08
1.27404e-08
-8.00713e-08
1.02876e-08
-8.51892e-08
5.11791e-09
-8.42607e-08
-9.28569e-10
-7.58657e-08
-8.39492e-09
-5.94265e-08
-1.64393e-08
-3.56781e-08
-2.37484e-08
-5.86284e-09
-2.98152e-08
2.83611e-08
-3.4224e-08
6.49798e-08
-3.66186e-08
1.01848e-07
-3.68684e-08
1.36952e-07
-3.51035e-08
1.6859e-07
-3.1638e-08
1.95525e-07
-2.6935e-08
2.1708e-07
-2.15559e-08
2.33132e-07
-1.60516e-08
2.4397e-07
-1.08376e-08
2.50243e-07
-6.2737e-09
2.52835e-07
-2.59161e-09
2.52666e-07
1.68716e-10
2.50626e-07
2.0408e-09
2.47365e-07
3.26071e-09
2.43355e-07
4.00971e-09
2.38838e-07
4.51749e-09
2.3379e-07
5.04726e-09
2.28018e-07
5.77284e-09
2.21229e-07
6.78833e-09
2.13126e-07
8.10343e-09
9.59206e-09
6.16152e-06
5.78235e-07
5.89941e-06
6.29562e-07
5.58609e-06
6.77196e-07
5.21681e-06
7.18016e-07
4.79295e-06
7.51214e-07
4.32076e-06
7.75745e-07
3.81683e-06
7.89538e-07
3.30837e-06
7.88038e-07
2.82715e-06
7.61845e-07
2.40285e-06
6.96077e-07
2.05074e-06
5.79805e-07
1.75078e-06
4.36623e-07
1.47022e-06
2.87132e-07
1.2229e-06
1.60907e-07
9.86661e-07
7.0971e-08
8.13357e-07
9.58404e-10
7.18272e-07
-5.42594e-08
7.0239e-07
-1.36716e-07
7.42118e-07
-2.39005e-07
8.17649e-07
-3.16869e-07
9.23065e-07
-3.5529e-07
1.03226e-06
-3.03186e-07
1.10621e-06
-1.6554e-07
1.08847e-06
3.45356e-08
9.37173e-07
2.74318e-07
6.87676e-07
4.6389e-07
3.82676e-07
5.82443e-07
7.15378e-08
6.20059e-07
-2.25784e-07
5.91993e-07
-4.8028e-07
5.02604e-07
-6.62327e-07
3.60375e-07
-7.58208e-07
1.88455e-07
-7.66426e-07
1.49098e-08
-6.99741e-07
-1.34597e-07
-5.73684e-07
-2.61214e-07
-4.07854e-07
-3.45964e-07
-2.25164e-07
-3.82291e-07
-4.67846e-08
-3.74227e-07
1.07145e-07
-3.25996e-07
2.20965e-07
-2.46624e-07
2.85299e-07
-1.48854e-07
3.00248e-07
-4.55683e-08
2.68077e-07
4.66645e-08
1.93477e-07
1.31213e-07
8.74342e-08
1.98724e-07
-3.41801e-08
2.4327e-07
-1.66204e-07
2.6547e-07
-2.92799e-07
2.55473e-07
-3.91513e-07
2.03923e-07
-4.38841e-07
1.09926e-07
-4.27601e-07
-4.06877e-09
-3.63559e-07
-1.05373e-07
-2.60728e-07
-1.86499e-07
-1.39457e-07
-2.29879e-07
-1.52187e-08
-2.38934e-07
9.84131e-08
-2.18691e-07
1.89072e-07
-1.74239e-07
2.48966e-07
-1.14468e-07
2.75819e-07
-5.05615e-08
2.75655e-07
4.15505e-09
2.55873e-07
4.29658e-08
2.27257e-07
6.49762e-08
1.99071e-07
6.6431e-08
1.79729e-07
4.93874e-08
1.76617e-07
1.72682e-08
1.8984e-07
-1.73815e-08
2.18527e-07
-4.95046e-08
2.58496e-07
-7.41133e-08
3.0258e-07
-8.46494e-08
3.4439e-07
-8.20824e-08
3.78613e-07
-6.81638e-08
4.01307e-07
-4.55848e-08
4.11027e-07
-1.94791e-08
4.09074e-07
4.84577e-09
3.9615e-07
2.66129e-08
3.77019e-07
4.08633e-08
3.55992e-07
4.74561e-08
3.36457e-07
4.61789e-08
3.22373e-07
3.64635e-08
3.16902e-07
1.99104e-08
3.2058e-07
8.63968e-10
3.34073e-07
-1.7414e-08
3.54601e-07
-3.17472e-08
3.78565e-07
-3.96863e-08
4.02734e-07
-4.07656e-08
4.23845e-07
-3.52389e-08
4.38967e-07
-2.41321e-08
4.46434e-07
-9.97278e-09
4.4747e-07
2.8399e-09
4.43583e-07
1.29864e-08
4.36694e-07
1.91352e-08
4.29505e-07
1.99297e-08
4.24995e-07
1.47979e-08
4.25481e-07
4.63176e-09
4.32252e-07
-7.69989e-09
4.46833e-07
-2.29757e-08
4.69083e-07
-3.86895e-08
4.98475e-07
-5.31406e-08
5.33702e-07
-6.50416e-08
5.72971e-07
-7.3493e-08
6.14246e-07
-7.78936e-08
6.55413e-07
-7.80354e-08
6.94459e-07
-7.41493e-08
7.29661e-07
-6.68402e-08
7.59806e-07
-5.70801e-08
7.84289e-07
-4.60389e-08
8.03066e-07
-3.48287e-08
8.16573e-07
-2.43449e-08
8.25485e-07
-1.51857e-08
8.30759e-07
-7.86545e-09
8.33151e-07
-2.22277e-09
8.33881e-07
1.3106e-09
8.33501e-07
3.64034e-09
8.32518e-07
4.99248e-09
8.31214e-07
5.82148e-09
8.29618e-07
6.64379e-09
8.2747e-07
7.92086e-09
8.24495e-07
9.76291e-09
8.20376e-07
1.22229e-08
1.50542e-08
7.70753e-06
6.81143e-07
7.58685e-06
7.50238e-07
7.4422e-06
8.21844e-07
7.26712e-06
8.93098e-07
7.05774e-06
9.60599e-07
6.81402e-06
1.01946e-06
6.54062e-06
1.06294e-06
6.24652e-06
1.08214e-06
5.94204e-06
1.06633e-06
5.63182e-06
1.0063e-06
5.31312e-06
8.98501e-07
4.99596e-06
7.53784e-07
4.69678e-06
5.86319e-07
4.43736e-06
4.20323e-07
4.23256e-06
2.75769e-07
4.07324e-06
1.60282e-07
3.94645e-06
7.2526e-08
3.80472e-06
5.01408e-09
3.61082e-06
-4.50969e-08
3.33969e-06
-4.57401e-08
3.00056e-06
-1.61659e-08
2.65839e-06
3.89894e-08
2.39694e-06
9.59051e-08
2.2111e-06
2.20381e-07
2.04681e-06
4.38601e-07
1.84316e-06
6.67548e-07
1.59029e-06
8.35304e-07
1.30656e-06
9.03796e-07
1.02071e-06
8.77843e-07
7.55235e-07
7.68076e-07
5.34905e-07
5.80706e-07
3.86064e-07
3.37295e-07
3.24921e-07
7.60536e-08
3.25658e-07
-1.35335e-07
3.93196e-07
-3.28752e-07
5.02891e-07
-4.55659e-07
6.28118e-07
-5.07518e-07
7.53987e-07
-5.00097e-07
8.58497e-07
-4.30506e-07
9.26771e-07
-3.14897e-07
9.55735e-07
-1.77818e-07
9.44198e-07
-3.40311e-08
9.0155e-07
8.9313e-08
8.29813e-07
2.0295e-07
7.40262e-07
2.88275e-07
6.4201e-07
3.41522e-07
5.45729e-07
3.6175e-07
4.58649e-07
3.42554e-07
3.96977e-07
2.65594e-07
3.777e-07
1.29203e-07
4.08527e-07
-3.48951e-08
4.89313e-07
-1.8616e-07
5.8951e-07
-2.86696e-07
6.90066e-07
-3.30435e-07
7.86931e-07
-3.35799e-07
8.78148e-07
-3.09908e-07
9.61406e-07
-2.57496e-07
1.03209e-06
-1.85152e-07
1.08693e-06
-1.05398e-07
1.12217e-06
-3.10916e-08
1.13569e-06
2.94521e-08
1.13702e-06
6.36462e-08
1.13406e-06
6.93881e-08
1.12944e-06
5.4011e-08
1.1231e-06
2.36063e-08
1.1291e-06
-2.33857e-08
1.15017e-06
-7.05778e-08
1.18118e-06
-1.0512e-07
1.21516e-06
-1.18629e-07
1.2485e-06
-1.15422e-07
1.27789e-06
-9.75494e-08
1.29714e-06
-6.48403e-08
1.30425e-06
-2.65822e-08
1.29861e-06
1.04794e-08
1.28486e-06
4.03645e-08
1.26827e-06
5.74546e-08
1.25147e-06
6.42573e-08
1.23581e-06
6.18402e-08
1.22533e-06
4.69378e-08
1.22244e-06
2.28017e-08
1.22822e-06
-4.91502e-09
1.24281e-06
-3.20006e-08
1.26321e-06
-5.21553e-08
1.28634e-06
-6.28156e-08
1.31e-06
-6.44268e-08
1.33175e-06
-5.69795e-08
1.3479e-06
-4.02874e-08
1.35719e-06
-1.92653e-08
1.35918e-06
8.49918e-10
1.3561e-06
1.60741e-08
1.35025e-06
2.49851e-08
1.34393e-06
2.62405e-08
1.33941e-06
1.93195e-08
1.33878e-06
5.268e-09
1.34478e-06
-1.36996e-08
1.35761e-06
-3.58064e-08
1.37733e-06
-5.8412e-08
1.40351e-06
-7.93224e-08
1.4352e-06
-9.67301e-08
1.47104e-06
-1.0933e-07
1.50935e-06
-1.16205e-07
1.54814e-06
-1.16831e-07
1.5853e-06
-1.11301e-07
1.61892e-06
-1.0046e-07
1.64765e-06
-8.58155e-08
1.67076e-06
-6.91462e-08
1.68807e-06
-5.214e-08
1.69994e-06
-3.62172e-08
1.70716e-06
-2.23994e-08
1.71058e-06
-1.12908e-08
1.71143e-06
-3.06893e-09
1.71045e-06
2.28765e-09
1.70886e-06
5.22639e-09
1.70721e-06
6.65071e-09
1.70565e-06
7.3761e-09
1.70425e-06
8.04001e-09
1.70288e-06
9.29371e-09
1.70122e-06
1.14205e-08
1.69861e-06
1.4839e-08
1.91691e-08
8.22045e-06
7.258e-07
8.16623e-06
8.04457e-07
8.09719e-06
8.90882e-07
8.0074e-06
9.82887e-07
7.89252e-06
1.07548e-06
7.75098e-06
1.16099e-06
7.58396e-06
1.22997e-06
7.39434e-06
1.27176e-06
7.18489e-06
1.27577e-06
6.95738e-06
1.23381e-06
6.71348e-06
1.1424e-06
6.45954e-06
1.00772e-06
6.20203e-06
8.43831e-07
5.95525e-06
6.67107e-07
5.73421e-06
4.96806e-07
5.54687e-06
3.47619e-07
5.39067e-06
2.28733e-07
5.25831e-06
1.37367e-07
5.13452e-06
7.86931e-08
5.02635e-06
6.24358e-08
4.90839e-06
1.01786e-07
4.73831e-06
2.09072e-07
4.4728e-06
3.61421e-07
4.15415e-06
5.39031e-07
3.86535e-06
7.27402e-07
3.62197e-06
9.10923e-07
3.39797e-06
1.0593e-06
3.17395e-06
1.12782e-06
2.93781e-06
1.11398e-06
2.68055e-06
1.02533e-06
2.42812e-06
8.33133e-07
2.20424e-06
5.61182e-07
2.03525e-06
2.45037e-07
1.94907e-06
-4.91477e-08
1.9238e-06
-3.03485e-07
1.94625e-06
-4.78105e-07
1.99117e-06
-5.52443e-07
2.04475e-06
-5.53675e-07
2.09551e-06
-4.81268e-07
2.1198e-06
-3.39183e-07
2.11127e-06
-1.69286e-07
2.07212e-06
5.11494e-09
2.00863e-06
1.52805e-07
1.94439e-06
2.6719e-07
1.89186e-06
3.40806e-07
1.85801e-06
3.75368e-07
1.84226e-06
3.77504e-07
1.84929e-06
3.35523e-07
1.88816e-06
2.26722e-07
1.95848e-06
5.88825e-08
2.05999e-06
-1.36408e-07
2.16783e-06
-2.93991e-07
2.25357e-06
-3.72441e-07
2.30698e-06
-3.83842e-07
2.33345e-06
-3.62272e-07
2.33463e-06
-3.11091e-07
2.32063e-06
-2.43495e-07
2.30811e-06
-1.7263e-07
2.31411e-06
-1.11394e-07
2.34244e-06
-5.94258e-08
2.38214e-06
-1.02484e-08
2.42723e-06
1.85542e-08
2.46819e-06
2.84325e-08
2.4974e-06
2.4795e-08
2.50907e-06
1.19357e-08
2.50284e-06
-1.71523e-08
2.48649e-06
-5.42303e-08
2.46967e-06
-8.82998e-08
2.45723e-06
-1.06181e-07
2.45091e-06
-1.09108e-07
2.45042e-06
-9.706e-08
2.45434e-06
-6.87622e-08
2.46108e-06
-3.33242e-08
2.46738e-06
4.18484e-09
2.4723e-06
3.54452e-08
2.47409e-06
5.56601e-08
2.47404e-06
6.43129e-08
2.47468e-06
6.11952e-08
2.47806e-06
4.35581e-08
2.48461e-06
1.62548e-08
2.49401e-06
-1.43168e-08
2.50488e-06
-4.28649e-08
2.51594e-06
-6.32243e-08
2.5256e-06
-7.24701e-08
2.53316e-06
-7.19925e-08
2.53758e-06
-6.1392e-08
2.53789e-06
-4.05959e-08
2.53374e-06
-1.51202e-08
2.52578e-06
8.80898e-09
2.51526e-06
2.65971e-08
2.50453e-06
3.57145e-08
2.49569e-06
3.50781e-08
2.4907e-06
2.43113e-08
2.4908e-06
5.16521e-09
2.49709e-06
-1.99832e-08
2.5089e-06
-4.76161e-08
2.52581e-06
-7.53313e-08
2.54728e-06
-1.0079e-07
2.57258e-06
-1.22026e-07
2.60091e-06
-1.37666e-07
2.63134e-06
-1.46632e-07
2.66265e-06
-1.48142e-07
2.69339e-06
-1.42035e-07
2.72191e-06
-1.28983e-07
2.74674e-06
-1.10645e-07
2.76687e-06
-8.92735e-08
2.78167e-06
-6.69399e-08
2.79098e-06
-4.55343e-08
2.79513e-06
-2.65415e-08
2.79463e-06
-1.07974e-08
2.79024e-06
1.32646e-09
2.78289e-06
9.6364e-09
2.77394e-06
1.41737e-08
2.76452e-06
1.60728e-08
2.75538e-06
1.65138e-08
2.74693e-06
1.64922e-08
2.73925e-06
1.69725e-08
2.73207e-06
1.85966e-08
2.72488e-06
2.20373e-08
2.70275e-08
8.43028e-06
7.40795e-07
8.40843e-06
8.26312e-07
8.37351e-06
9.25804e-07
8.31874e-06
1.03765e-06
8.2388e-06
1.15542e-06
8.13045e-06
1.26934e-06
7.99306e-06
1.36736e-06
7.82914e-06
1.43568e-06
7.64277e-06
1.46214e-06
7.43796e-06
1.43862e-06
7.21759e-06
1.36277e-06
6.98582e-06
1.23948e-06
6.74927e-06
1.08039e-06
6.519e-06
8.97377e-07
6.30873e-06
7.07075e-07
6.12972e-06
5.26621e-07
5.99193e-06
3.66531e-07
5.89575e-06
2.33543e-07
5.82926e-06
1.45187e-07
5.78601e-06
1.05684e-07
5.77328e-06
1.14518e-07
5.79937e-06
1.8298e-07
5.85026e-06
3.10527e-07
5.89414e-06
4.95149e-07
5.89953e-06
7.22014e-07
5.85623e-06
9.54223e-07
5.77638e-06
1.13915e-06
5.67665e-06
1.22756e-06
5.55759e-06
1.23304e-06
5.39837e-06
1.18456e-06
5.19374e-06
1.03776e-06
4.95349e-06
8.01431e-07
4.6818e-06
5.16728e-07
4.40493e-06
2.27725e-07
4.14363e-06
-4.21905e-08
3.906e-06
-2.40478e-07
3.702e-06
-3.4844e-07
3.53705e-06
-3.88729e-07
3.42339e-06
-3.676e-07
3.36579e-06
-2.81592e-07
3.35325e-06
-1.56743e-07
3.36526e-06
-6.89716e-09
3.37573e-06
1.42341e-07
3.38062e-06
2.62293e-07
3.38675e-06
3.3468e-07
3.40123e-06
3.60891e-07
3.43206e-06
3.46671e-07
3.48527e-06
2.82311e-07
3.55441e-06
1.57584e-07
3.63359e-06
-2.02955e-08
3.69823e-06
-2.01054e-07
3.74959e-06
-3.45347e-07
3.78951e-06
-4.12359e-07
3.8147e-06
-4.09033e-07
3.8234e-06
-3.70977e-07
3.82256e-06
-3.10251e-07
3.81974e-06
-2.40674e-07
3.817e-06