/*--------------------------------*- C++ -*----------------------------------*\
| =========                 |                                                 |
| \\      /  F ield         | OpenFOAM: The Open Source CFD Toolbox           |
|  \\    /   O peration     | Version:  2206                                  |
|   \\  /    A nd           | Website:  www.openfoam.com                      |
|    \\/     M anipulation  |                                                 |
\*---------------------------------------------------------------------------*/
FoamFile
{
    version     2.0;
    format      ascii;
    arch        "LSB;label=32;scalar=64";
    class       surfaceScalarField;
    location    "19.7001";
    object      phi;
}
// * * * * * * * * * * * * * * * * * * * * * * * * * * * * * * * * * * * * * //

dimensions      [0 3 -1 0 0 0 0];

oriented        oriented;

internalField   nonuniform List<scalar> 
9419
(
1.01448e-05
1.85536e-06
-1.79197e-06
1.01232e-05
1.44485e-06
-1.42319e-06
1.01411e-05
9.82941e-07
-1.00087e-06
1.01934e-05
4.89933e-07
-5.42242e-07
1.02718e-05
-9.61637e-09
-6.87233e-08
1.03697e-05
-4.94395e-07
3.96438e-07
1.04814e-05
-9.50712e-07
8.38999e-07
1.0601e-05
-1.36872e-06
1.24911e-06
1.0723e-05
-1.74219e-06
1.62027e-06
1.08422e-05
-2.06831e-06
1.94905e-06
1.09545e-05
-2.34757e-06
2.23524e-06
1.10566e-05
-2.58275e-06
2.48068e-06
1.11462e-05
-2.77884e-06
2.6893e-06
1.12221e-05
-2.94125e-06
2.86534e-06
1.12845e-05
-3.0751e-06
3.01264e-06
1.13347e-05
-3.18434e-06
3.13416e-06
1.13746e-05
-3.27063e-06
3.23074e-06
1.14063e-05
-3.33422e-06
3.30249e-06
1.14308e-05
-3.37352e-06
3.34903e-06
1.14504e-05
-3.38881e-06
3.36925e-06
1.14721e-05
-3.37387e-06
3.35212e-06
1.14946e-05
-3.3013e-06
3.27876e-06
1.15209e-05
-3.17161e-06
3.14534e-06
1.15525e-05
-2.97982e-06
2.94821e-06
1.159e-05
-2.72261e-06
2.68516e-06
1.1633e-05
-2.40065e-06
2.35758e-06
1.1681e-05
-2.01895e-06
1.97099e-06
1.17327e-05
-1.58683e-06
1.53517e-06
1.17862e-05
-1.11765e-06
1.06408e-06
1.18389e-05
-6.29288e-07
5.76634e-07
1.18874e-05
-1.43925e-07
9.5369e-08
1.19295e-05
3.22602e-07
-3.64643e-07
1.19627e-05
7.5796e-07
-7.91182e-07
1.19852e-05
1.15247e-06
-1.17498e-06
1.19956e-05
1.49962e-06
-1.51004e-06
1.19932e-05
1.79603e-06
-1.79357e-06
1.19776e-05
2.0413e-06
-2.02572e-06
1.1949e-05
2.2376e-06
-2.20905e-06
1.19079e-05
2.38896e-06
-2.34784e-06
1.18546e-05
2.50058e-06
-2.44721e-06
1.17887e-05
2.57782e-06
-2.51196e-06
1.17099e-05
2.62503e-06
-2.54627e-06
1.16191e-05
2.64662e-06
-2.55581e-06
1.1518e-05
2.64862e-06
-2.54753e-06
1.14086e-05
2.63586e-06
-2.5264e-06
1.1293e-05
2.61042e-06
-2.49489e-06
1.11742e-05
2.57159e-06
-2.4528e-06
1.10554e-05
2.51616e-06
-2.39735e-06
1.09401e-05
2.43916e-06
-2.3238e-06
1.08316e-05
2.33496e-06
-2.22647e-06
1.0733e-05
2.19843e-06
-2.09987e-06
1.06469e-05
2.02594e-06
-1.9398e-06
1.05749e-05
1.81609e-06
-1.74415e-06
1.05183e-05
1.56992e-06
-1.51327e-06
1.04775e-05
1.29086e-06
-1.25002e-06
1.04524e-05
9.84345e-07
-9.59262e-07
1.04422e-05
6.57567e-07
-6.47392e-07
1.04459e-05
3.18686e-07
-3.22379e-07
1.04614e-05
-2.32169e-08
7.7006e-09
1.04867e-05
-3.59613e-07
3.34278e-07
1.05201e-05
-6.84277e-07
6.50877e-07
1.05596e-05
-9.92083e-07
9.52662e-07
1.06029e-05
-1.27895e-06
1.23557e-06
1.06484e-05
-1.54197e-06
1.4965e-06
1.06944e-05
-1.77884e-06
1.7329e-06
1.07394e-05
-1.98797e-06
1.9429e-06
1.07827e-05
-2.16869e-06
2.12545e-06
1.08234e-05
-2.3204e-06
2.2797e-06
1.0861e-05
-2.4427e-06
2.40508e-06
1.0895e-05
-2.53543e-06
2.50146e-06
1.0925e-05
-2.59973e-06
2.56965e-06
1.09514e-05
-2.63687e-06
2.61053e-06
1.09759e-05
-2.64818e-06
2.62366e-06
1.10018e-05
-2.62597e-06
2.60008e-06
1.10258e-05
-2.55848e-06
2.53447e-06
1.10489e-05
-2.45034e-06
2.42724e-06
1.10718e-05
-2.30207e-06
2.27915e-06
1.1095e-05
-2.11454e-06
2.0914e-06
1.11184e-05
-1.8897e-06
1.86622e-06
1.11422e-05
-1.6308e-06
1.60705e-06
1.1166e-05
-1.34244e-06
1.31864e-06
1.11895e-05
-1.03057e-06
1.00708e-06
1.12121e-05
-7.02478e-07
6.79887e-07
1.12328e-05
-3.67241e-07
3.46545e-07
1.12506e-05
-3.53548e-08
1.75185e-08
1.12647e-05
2.86181e-07
-3.00259e-07
1.12741e-05
5.91266e-07
-6.00684e-07
1.1278e-05
8.74818e-07
-8.78726e-07
1.12756e-05
1.13295e-06
-1.13059e-06
1.12664e-05
1.36304e-06
-1.35381e-06
1.12499e-05
1.56369e-06
-1.54716e-06
1.12258e-05
1.73463e-06
-1.71059e-06
1.11943e-05
1.87643e-06
-1.84492e-06
1.11556e-05
1.9903e-06
-1.95156e-06
1.111e-05
2.07771e-06
-2.03217e-06
1.10582e-05
2.14008e-06
-2.08821e-06
1.10002e-05
2.17835e-06
-2.12043e-06
1.0937e-05
2.19223e-06
-2.12894e-06
1.08702e-05
2.18122e-06
-2.11444e-06
1.08019e-05
2.14564e-06
-2.07736e-06
1.07342e-05
2.08499e-06
-2.01727e-06
1.0669e-05
1.99851e-06
-1.93335e-06
1.06082e-05
1.88552e-06
-1.82471e-06
1.05532e-05
1.74576e-06
-1.69079e-06
1.05052e-05
1.57967e-06
-1.53168e-06
1.0465e-05
1.38864e-06
-1.34839e-06
1.04329e-05
1.17498e-06
-1.14288e-06
1.04091e-05
9.4188e-07
-9.18052e-07
1.03934e-05
6.93286e-07
-6.77643e-07
1.03856e-05
4.33707e-07
-4.2588e-07
1.03845e-05
1.68443e-07
-1.67376e-07
1.03895e-05
-9.63422e-08
9.13278e-08
1.04003e-05
-3.56087e-07
3.45286e-07
1.04161e-05
-6.07091e-07
5.91286e-07
1.04361e-05
-8.45726e-07
8.25746e-07
1.04595e-05
-1.06876e-06
1.04537e-06
1.04856e-05
-1.27339e-06
1.24733e-06
1.05136e-05
-1.45726e-06
1.42923e-06
1.05429e-05
-1.61853e-06
1.5892e-06
1.05728e-05
-1.75544e-06
1.72555e-06
1.06027e-05
-1.86712e-06
1.8373e-06
1.06319e-05
-1.95329e-06
1.92409e-06
1.066e-05
-2.0142e-06
1.98606e-06
1.0687e-05
-2.05095e-06
2.02394e-06
1.0714e-05
-2.06442e-06
2.03742e-06
1.07417e-05
-2.04829e-06
2.02062e-06
1.07688e-05
-1.99826e-06
1.9711e-06
1.0795e-05
-1.91553e-06
1.8894e-06
1.082e-05
-1.80202e-06
1.77697e-06
1.08439e-05
-1.65965e-06
1.63572e-06
1.08667e-05
-1.49075e-06
1.46797e-06
1.08883e-05
-1.29811e-06
1.27657e-06
1.09084e-05
-1.08504e-06
1.06487e-06
1.09271e-05
-8.55406e-07
8.36747e-07
1.0944e-05
-6.13574e-07
5.96659e-07
1.09588e-05
-3.64553e-07
3.49742e-07
-1.14686e-07
1.02509e-07
1.01864e-05
1.90107e-06
1.01806e-05
1.45068e-06
1.02116e-05
9.51905e-07
1.02737e-05
4.27896e-07
1.03588e-05
-9.47685e-08
1.04611e-05
-5.96636e-07
1.05744e-05
-1.06406e-06
1.0693e-05
-1.48729e-06
1.08112e-05
-1.86046e-06
1.09243e-05
-2.1814e-06
1.10281e-05
-2.45135e-06
1.11195e-05
-2.67415e-06
1.11964e-05
-2.85568e-06
1.12576e-05
-3.00251e-06
1.13033e-05
-3.12082e-06
1.13345e-05
-3.21548e-06
1.13534e-05
-3.28953e-06
1.13631e-05
-3.34398e-06
1.13667e-05
-3.37707e-06
1.13646e-05
-3.38676e-06
1.13582e-05
-3.36739e-06
1.13538e-05
-3.29689e-06
1.13547e-05
-3.17253e-06
1.13625e-05
-2.98768e-06
1.13781e-05
-2.73822e-06
1.14017e-05
-2.42426e-06
1.14331e-05
-2.05034e-06
1.14716e-05
-1.62526e-06
1.15158e-05
-1.16183e-06
1.15632e-05
-6.76741e-07
1.16107e-05
-1.91424e-07
1.16557e-05
2.77638e-07
1.16955e-05
7.18146e-07
1.17278e-05
1.12017e-06
1.17506e-05
1.47678e-06
1.17625e-05
1.78413e-06
1.17626e-05
2.04126e-06
1.17503e-05
2.24988e-06
1.17256e-05
2.41368e-06
1.16884e-05
2.53769e-06
1.16388e-05
2.62746e-06
1.1576e-05
2.68781e-06
1.15001e-05
2.72255e-06
1.14128e-05
2.73592e-06
1.13163e-05
2.73234e-06
1.12133e-05
2.71346e-06
1.11067e-05
2.67817e-06
1.09999e-05
2.62292e-06
1.08964e-05
2.54269e-06
1.07993e-05
2.43204e-06
1.07115e-05
2.28629e-06
1.0635e-05
2.10239e-06
1.05716e-05
1.87953e-06
1.05222e-05
1.6193e-06
1.04875e-05
1.32562e-06
1.04673e-05
1.00449e-06
1.04614e-05
6.63499e-07
1.04686e-05
3.11497e-07
1.04866e-05
-4.12002e-08
1.05134e-05
-3.86433e-07
1.0547e-05
-7.17911e-07
1.05854e-05
-1.03045e-06
1.06263e-05
-1.3199e-06
1.06678e-05
-1.58348e-06
1.07083e-05
-1.81928e-06
1.07463e-05
-2.02601e-06
1.07811e-05
-2.2035e-06
1.08122e-05
-2.35147e-06
1.08393e-05
-2.46985e-06
1.08624e-05
-2.55846e-06
1.08811e-05
-2.61846e-06
1.08953e-05
-2.65109e-06
1.09067e-05
-2.65957e-06
1.09182e-05
-2.63746e-06
1.09275e-05
-2.56781e-06
1.09365e-05
-2.45932e-06
1.09461e-05
-2.31171e-06
1.09571e-05
-2.12545e-06
1.09696e-05
-1.9022e-06
1.09838e-05
-1.645e-06
1.09996e-05
-1.35828e-06
1.10169e-05
-1.04783e-06
1.10351e-05
-7.2068e-07
1.10534e-05
-3.8554e-07
1.10706e-05
-5.26295e-08
1.10859e-05
2.70873e-07
1.10982e-05
5.78966e-07
1.11065e-05
8.66555e-07
1.11098e-05
1.1297e-06
1.11072e-05
1.36563e-06
1.10981e-05
1.57277e-06
1.10821e-05
1.75062e-06
1.10591e-05
1.89948e-06
1.10291e-05
2.02024e-06
1.09927e-05
2.11413e-06
1.09503e-05
2.18243e-06
1.09026e-05
2.22614e-06
1.08496e-05
2.24521e-06
1.07929e-05
2.23791e-06
1.07346e-05
2.20396e-06
1.06766e-05
2.14291e-06
1.0621e-05
2.05412e-06
1.05693e-05
1.93721e-06
1.05228e-05
1.79224e-06
1.04825e-05
1.62002e-06
1.04489e-05
1.42223e-06
1.04224e-05
1.20147e-06
1.04032e-05
9.61149e-07
1.0391e-05
7.05406e-07
1.03856e-05
4.39148e-07
1.03859e-05
1.68099e-07
1.03916e-05
-1.02014e-07
1.04022e-05
-3.66651e-07
1.04167e-05
-6.21654e-07
1.04344e-05
-8.63408e-07
1.04545e-05
-1.08882e-06
1.04763e-05
-1.29518e-06
1.04993e-05
-1.48027e-06
1.05229e-05
-1.64212e-06
1.05464e-05
-1.77897e-06
1.05693e-05
-1.89006e-06
1.05912e-05
-1.97515e-06
1.06114e-05
-2.03438e-06
1.06296e-05
-2.06917e-06
1.06471e-05
-2.08187e-06
1.06663e-05
-2.06753e-06
1.06845e-05
-2.01644e-06
1.07016e-05
-1.93261e-06
1.07179e-05
-1.81835e-06
1.07337e-05
-1.67545e-06
1.07491e-05
-1.50613e-06
1.0764e-05
-1.31309e-06
1.07786e-05
-1.09957e-06
1.07926e-05
-8.69389e-07
1.08058e-05
-6.26827e-07
1.0818e-05
-3.76785e-07
-1.25354e-07
1.02655e-05
1.92835e-06
1.02754e-05
1.44079e-06
1.03189e-05
9.08385e-07
1.03899e-05
3.56928e-07
1.0481e-05
-1.85901e-07
1.05863e-05
-7.01931e-07
1.06997e-05
-1.17745e-06
1.08153e-05
-1.60288e-06
1.09277e-05
-1.97287e-06
1.10323e-05
-2.28599e-06
1.11253e-05
-2.54434e-06
1.12039e-05
-2.75279e-06
1.12663e-05
-2.91803e-06
1.13115e-05
-3.04776e-06
1.134e-05
-3.14926e-06
1.1353e-05
-3.22849e-06
1.13526e-05
-3.28912e-06
1.13409e-05
-3.33227e-06
1.1321e-05
-3.35721e-06
1.12951e-05
-3.36089e-06
1.12631e-05
-3.33538e-06
1.12342e-05
-3.26795e-06
1.12112e-05
-3.14955e-06
1.11962e-05
-2.97266e-06
1.11906e-05
-2.7326e-06
1.11951e-05
-2.42882e-06
1.12101e-05
-2.06532e-06
1.12352e-05
-1.65038e-06
1.12695e-05
-1.19612e-06
1.1311e-05
-7.18162e-07
1.13563e-05
-2.36751e-07
1.14028e-05
2.31091e-07
1.14478e-05
6.73219e-07
1.14883e-05
1.0796e-06
1.15221e-05
1.44303e-06
1.1547e-05
1.75924e-06
1.15614e-05
2.02679e-06
1.15644e-05
2.24693e-06
1.15552e-05
2.42287e-06
1.15336e-05
2.55933e-06
1.14993e-05
2.6617e-06
1.14522e-05
2.73499e-06
1.13917e-05
2.78303e-06
1.1319e-05
2.80863e-06
1.12366e-05
2.81477e-06
1.11472e-05
2.8028e-06
1.10541e-05
2.77127e-06
1.09605e-05
2.71649e-06
1.08698e-05
2.63346e-06
1.07848e-05
2.51706e-06
1.0708e-05
2.36304e-06
1.06416e-05
2.16884e-06
1.0587e-05
1.93408e-06
1.05455e-05
1.66084e-06
1.05175e-05
1.35359e-06
1.05031e-05
1.01888e-06
1.05018e-05
6.64848e-07
1.05121e-05
3.01118e-07
1.05321e-05
-6.12158e-08
1.05599e-05
-4.14192e-07
1.05933e-05
-7.51302e-07
1.06301e-05
-1.06727e-06
1.06682e-05
-1.35796e-06
1.07054e-05
-1.62074e-06
1.07402e-05
-1.85406e-06
1.07712e-05
-2.05695e-06
1.07975e-05
-2.22989e-06
1.08189e-05
-2.3728e-06
1.08351e-05
-2.48608e-06
1.08466e-05
-2.56996e-06
1.0854e-05
-2.62588e-06
1.08578e-05
-2.65485e-06
1.0858e-05
-2.65981e-06
1.08534e-05
-2.63282e-06
1.08481e-05
-2.56252e-06
1.08435e-05
-2.45467e-06
1.08404e-05
-2.30863e-06
1.08395e-05
-2.12461e-06
1.08414e-05
-1.90409e-06
1.08463e-05
-1.64991e-06
1.08544e-05
-1.36631e-06
1.08654e-05
-1.05887e-06
1.08791e-05
-7.34372e-07
1.08946e-05
-4.01076e-07
1.09109e-05
-6.88839e-08
1.09268e-05
2.54918e-07
1.09414e-05
5.64452e-07
1.09532e-05
8.54661e-07
1.09614e-05
1.12156e-06
1.09647e-05
1.36227e-06
1.09625e-05
1.57505e-06
1.0954e-05
1.75912e-06
1.0939e-05
1.91449e-06
1.09175e-05
2.04173e-06
1.08899e-05
2.14167e-06
1.0857e-05
2.21532e-06
1.08194e-05
2.26376e-06
1.07772e-05
2.28745e-06
1.07311e-05
2.28401e-06
1.06832e-05
2.25186e-06
1.06355e-05
2.19064e-06
1.05896e-05
2.09997e-06
1.0547e-05
1.97981e-06
1.05087e-05
1.83055e-06
1.04755e-05
1.65328e-06
1.04479e-05
1.44983e-06
1.04263e-05
1.22298e-06
1.04111e-05
9.76398e-07
1.0402e-05
7.14483e-07
1.03989e-05
4.42251e-07
1.04014e-05
1.65665e-07
1.04084e-05
-1.0903e-07
1.04191e-05
-3.77341e-07
1.04327e-05
-6.35286e-07
1.04485e-05
-8.79217e-07
1.04657e-05
-1.10601e-06
1.04836e-05
-1.3131e-06
1.05016e-05
-1.4983e-06
1.05193e-05
-1.65974e-06
1.05363e-05
-1.79599e-06
1.05523e-05
-1.90615e-06
1.0567e-05
-1.9898e-06
1.05797e-05
-2.04712e-06
1.059e-05
-2.07947e-06
1.05986e-05
-2.09042e-06
1.06091e-05
-2.07801e-06
1.06178e-05
-2.02521e-06
1.06258e-05
-1.94055e-06
1.06335e-05
-1.82606e-06
1.06413e-05
-1.6833e-06
1.06495e-05
-1.51431e-06
1.06581e-05
-1.32168e-06
1.06671e-05
-1.10859e-06
1.06765e-05
-8.78783e-07
1.06861e-05
-6.36464e-07
1.06958e-05
-3.86411e-07
-1.34427e-07
1.03853e-05
1.93677e-06
1.04109e-05
1.41513e-06
1.04668e-05
8.5248e-07
1.05462e-05
2.7754e-07
1.06425e-05
-2.82122e-07
1.07494e-05
-8.08883e-07
1.0861e-05
-1.28899e-06
1.09713e-05
-1.71325e-06
1.10754e-05
-2.07698e-06
1.11691e-05
-2.37964e-06
1.12491e-05
-2.62432e-06
1.1313e-05
-2.81677e-06
1.13596e-05
-2.96461e-06
1.13883e-05
-3.07642e-06
1.13994e-05
-3.16036e-06
1.1394e-05
-3.22311e-06
1.13734e-05
-3.26852e-06
1.13395e-05
-3.29839e-06
1.12956e-05
-3.31328e-06
1.12448e-05
-3.31013e-06
1.11909e-05
-3.2814e-06
1.11391e-05
-3.21615e-06
1.10933e-05
-3.1038e-06
1.10564e-05
-2.9358e-06
1.10305e-05
-2.70666e-06
1.10168e-05
-2.41511e-06
1.1016e-05
-2.06449e-06
1.1028e-05
-1.66244e-06
1.10523e-05
-1.22037e-06
1.10871e-05
-7.53005e-07
1.11293e-05
-2.78971e-07
1.11762e-05
1.84221e-07
1.12247e-05
6.24685e-07
1.12719e-05
1.03242e-06
1.13149e-05
1.40008e-06
1.13511e-05
1.72304e-06
1.13784e-05
1.99947e-06
1.13952e-05
2.2301e-06
1.14004e-05
2.41769e-06
1.13932e-05
2.56647e-06
1.13735e-05
2.68142e-06
1.13412e-05
2.76735e-06
1.12961e-05
2.82808e-06
1.12389e-05
2.86588e-06
1.11716e-05
2.88208e-06
1.10971e-05
2.87722e-06
1.10186e-05
2.84976e-06
1.09392e-05
2.7959e-06
1.0862e-05
2.71073e-06
1.07896e-05
2.58944e-06
1.07245e-05
2.42814e-06
1.06687e-05
2.22461e-06
1.06238e-05
1.97897e-06
1.05908e-05
1.69384e-06
1.05701e-05
1.37426e-06
1.05617e-05
1.02728e-06
1.0565e-05
6.61573e-07
1.05786e-05
2.87576e-07
1.06004e-05
-8.3067e-08
1.06287e-05
-4.42465e-07
1.06613e-05
-7.83871e-07
1.06959e-05
-1.10188e-06
1.07303e-05
-1.39242e-06
1.07625e-05
-1.65297e-06
1.07908e-05
-1.8823e-06
1.08139e-05
-2.08004e-06
1.08311e-05
-2.2471e-06
1.08423e-05
-2.38403e-06
1.0848e-05
-2.49172e-06
1.08488e-05
-2.57084e-06
1.08454e-05
-2.62248e-06
1.08385e-05
-2.64787e-06
1.08261e-05
-2.64744e-06
1.08075e-05
-2.61423e-06
1.07888e-05
-2.54385e-06
1.07713e-05
-2.43712e-06
1.0756e-05
-2.29334e-06
1.07439e-05
-2.11248e-06
1.07355e-05
-1.89576e-06
1.07315e-05
-1.64585e-06
1.07319e-05
-1.36674e-06
1.07368e-05
-1.06379e-06
1.0746e-05
-7.43513e-07
1.07586e-05
-4.13665e-07
1.07734e-05
-8.37672e-08
1.07895e-05
2.38821e-07
1.08056e-05
5.4836e-07
1.08204e-05
8.39858e-07
1.08327e-05
1.10932e-06
1.08412e-05
1.35376e-06
1.0845e-05
1.57121e-06
1.08435e-05
1.76068e-06
1.08361e-05
1.92188e-06
1.08228e-05
2.05495e-06
1.08041e-05
2.16037e-06
1.07806e-05
2.23887e-06
1.07531e-05
2.29126e-06
1.07221e-05
2.31845e-06
1.0687e-05
2.31906e-06
1.06497e-05
2.28915e-06
1.06122e-05
2.22821e-06
1.05758e-05
2.1363e-06
1.05419e-05
2.01377e-06
1.05113e-05
1.86112e-06
1.0485e-05
1.67957e-06
1.04636e-05
1.47122e-06
1.04475e-05
1.23909e-06
1.04369e-05
9.87058e-07
1.04316e-05
7.19785e-07
1.04313e-05
4.42499e-07
1.04355e-05
1.61508e-07
1.04432e-05
-1.16796e-07
1.04538e-05
-3.87892e-07
1.04663e-05
-6.47763e-07
1.04799e-05
-8.92815e-07
1.04938e-05
-1.11997e-06
1.05076e-05
-1.32683e-06
1.05205e-05
-1.51121e-06
1.05323e-05
-1.67156e-06
1.0543e-05
-1.80666e-06
1.05522e-05
-1.9154e-06
1.05597e-05
-1.99729e-06
1.05653e-05
-2.05273e-06
1.05689e-05
-2.08309e-06
1.05705e-05
-2.092e-06
1.05706e-05
-2.07806e-06
1.05695e-05
-2.02411e-06
1.05683e-05
-1.93942e-06
1.05677e-05
-1.8254e-06
1.05678e-05
-1.68345e-06
1.0569e-05
-1.51548e-06
1.05714e-05
-1.32403e-06
1.0575e-05
-1.1122e-06
1.05798e-05
-8.83622e-07
1.05858e-05
-6.42429e-07
1.05926e-05
-3.93284e-07
-1.41698e-07
1.05485e-05
1.05902e-05
1.06583e-05
1.07454e-05
1.08454e-05
1.09521e-05
1.10593e-05
1.11617e-05
1.12546e-05
1.13345e-05
1.13988e-05
1.14459e-05
1.14752e-05
1.14863e-05
1.14794e-05
1.14546e-05
1.14126e-05
1.13566e-05
1.12905e-05
1.12178e-05
1.11425e-05
1.10691e-05
1.1002e-05
1.09447e-05
1.08997e-05
1.08688e-05
1.0853e-05
1.08525e-05
1.08669e-05
1.08949e-05
1.09333e-05
1.09794e-05
1.10301e-05
1.10823e-05
1.11327e-05
1.11784e-05
1.12169e-05
1.12461e-05
1.12643e-05
1.12707e-05
1.12646e-05
1.12463e-05
1.12162e-05
1.11749e-05
1.11238e-05
1.10653e-05
1.10023e-05
1.09376e-05
1.08743e-05
1.08153e-05
1.07628e-05
1.07187e-05
1.06843e-05
1.06605e-05
1.06476e-05
1.06455e-05
1.06536e-05
1.06704e-05
1.0694e-05
1.07225e-05
1.0754e-05
1.0786e-05
1.08167e-05
1.08438e-05
1.08657e-05
1.08813e-05
1.08896e-05
1.08907e-05
1.0885e-05
1.08737e-05
1.08578e-05
1.08379e-05
1.08119e-05
1.07813e-05
1.07502e-05
1.07204e-05
1.06934e-05
1.06704e-05
1.06523e-05
1.06397e-05
1.06328e-05
1.06317e-05
1.06362e-05
1.06456e-05
1.06587e-05
1.06745e-05
1.06916e-05
1.07087e-05
1.07245e-05
1.07377e-05
1.07472e-05
1.07521e-05
1.07519e-05
1.07466e-05
1.07363e-05
1.07219e-05
1.07046e-05
1.06851e-05
1.06617e-05
1.06349e-05
1.06071e-05
1.05799e-05
1.05545e-05
1.0532e-05
1.05131e-05
1.04984e-05
1.04882e-05
1.04825e-05
1.04812e-05
1.04841e-05
1.04903e-05
1.04991e-05
1.05096e-05
1.05211e-05
1.05325e-05
1.05432e-05
1.05523e-05
1.05594e-05
1.05643e-05
1.05671e-05
1.05681e-05
1.05678e-05
1.05664e-05
1.05639e-05
1.05596e-05
1.05499e-05
1.05398e-05
1.05301e-05
1.05213e-05
1.05138e-05
1.05081e-05
1.05044e-05
1.05027e-05
1.05031e-05
1.05056e-05
1.05099e-05
-1.47337e-07
-2.26968e-07
-1.31627e-07
-1.37637e-07
-8.93304e-08
-9.58828e-08
-4.17544e-08
-9.95713e-08
3.68846e-09
-1.45692e-07
4.61212e-08
-2.30273e-07
8.45807e-08
-3.45501e-07
1.15228e-07
-4.8182e-07
1.36319e-07
-6.28515e-07
1.46695e-07
-7.74042e-07
1.45527e-07
-9.07612e-07
1.3357e-07
-1.02e-06
1.12387e-07
-1.10417e-06
8.41711e-08
-1.15558e-06
5.14086e-08
-1.17197e-06
1.6395e-08
-1.15799e-06
-1.39832e-08
-1.11357e-06
-4.44218e-08
-1.04171e-06
-7.18593e-08
-9.4761e-07
-9.40995e-08
-8.37855e-07
-1.09754e-07
-7.19241e-07
-1.18614e-07
-5.9865e-07
-1.20591e-07
-4.82751e-07
-1.15899e-07
-3.77816e-07
-1.04935e-07
-2.89362e-07
-8.84541e-08
-2.2177e-07
-6.75914e-08
-1.7837e-07
-4.34005e-08
-1.61395e-07
-1.69744e-08
-1.68334e-07
6.93937e-09
-1.9818e-07
2.98461e-08
-2.48707e-07
5.05265e-08
-3.16061e-07
6.73541e-08
-3.95477e-07
7.94161e-08
-4.81608e-07
8.61306e-08
-5.68696e-07
8.70885e-08
-6.50664e-07
8.19684e-08
-7.21613e-07
7.09483e-08
-7.76411e-07
5.47979e-08
-8.10936e-07
3.45254e-08
-8.22383e-07
1.14475e-08
-8.12543e-07
-9.84067e-09
-7.80861e-07
-3.16821e-08
-7.29008e-07
-5.18528e-08
-6.6057e-07
-6.84375e-08
-5.8016e-07
-8.04104e-08
-4.92734e-07
-8.74255e-08
-4.0334e-07
-8.9394e-08
-3.16962e-07
-8.63782e-08
-2.37424e-07
-7.9538e-08
-1.67994e-07
-6.94299e-08
-1.111e-07
-5.68938e-08
-6.82103e-08
-4.289e-08
-3.99208e-08
-2.82895e-08
-2.60662e-08
-1.38546e-08
-2.52477e-08
-8.1842e-10
-3.49674e-08
9.71964e-09
-5.36576e-08
1.86902e-08
-7.82578e-08
2.46002e-08
-1.0534e-07
2.70824e-08
-1.31521e-07
2.61805e-08
-1.53316e-07
2.17951e-08
-1.67996e-07
1.46806e-08
-1.73386e-07
5.38943e-09
-1.69579e-07
-3.80698e-09
-1.56162e-07
-1.3417e-08
-1.33194e-07
-2.29682e-08
-1.01776e-07
-3.14174e-08
-6.36761e-08
-3.81003e-08
-2.11335e-08
-4.25426e-08
2.34411e-08
-4.45746e-08
6.81916e-08
-4.47504e-08
1.11348e-07
-4.31559e-08
1.51294e-07
-3.99466e-08
1.86593e-07
-3.52988e-08
2.16079e-07
-2.94861e-08
2.38932e-07
-2.28534e-08
2.54746e-07
-1.58133e-08
2.63469e-07
-8.7233e-09
2.6528e-07
-1.81147e-09
2.61732e-07
3.54851e-09
2.53253e-07
8.47882e-09
2.41092e-07
1.21615e-08
2.26721e-07
1.43704e-08
2.11677e-07
1.5044e-08
1.97553e-07
1.4124e-08
1.85849e-07
1.17047e-08
1.77766e-07
8.08301e-09
1.74403e-07
3.36236e-09
1.75749e-07
-1.34541e-09
1.82077e-07
-6.32795e-09
1.9356e-07
-1.14838e-08
2.0987e-07
-1.63098e-08
2.30371e-07
-2.05012e-08
2.54235e-07
-2.38634e-08
2.80528e-07
-2.62935e-08
3.08288e-07
-2.77591e-08
3.36572e-07
-2.82842e-08
3.64503e-07
-2.7931e-08
3.91305e-07
-2.6802e-08
4.16336e-07
-2.50308e-08
4.39108e-07
-2.27728e-08
4.59312e-07
-2.02036e-08
4.76814e-07
-1.75025e-08
4.91635e-07
-1.48209e-08
5.03924e-07
-1.2289e-08
5.13966e-07
-1.00417e-08
5.22173e-07
-8.20709e-09
5.29052e-07
-6.87896e-09
5.35157e-07
-6.10544e-09
5.4106e-07
-5.9026e-09
5.47311e-07
-6.25082e-09
5.54409e-07
-7.09803e-09
5.62766e-07
-8.35719e-09
5.7268e-07
-9.91374e-09
5.84322e-07
-1.16425e-08
5.97745e-07
-1.34229e-08
6.12871e-07
-1.51259e-08
6.29478e-07
-1.66068e-08
6.47218e-07
-1.77395e-08
6.65672e-07
-1.84549e-08
6.84396e-07
-1.87235e-08
7.02914e-07
-1.85182e-08
7.20742e-07
-1.78283e-08
7.37426e-07
-1.66841e-08
7.52556e-07
-1.51293e-08
7.65779e-07
-1.32231e-08
7.76791e-07
-1.10126e-08
7.85346e-07
-8.55463e-09
7.9129e-07
-5.94385e-09
7.94555e-07
-3.26472e-09
7.95094e-07
-5.39446e-10
7.93399e-07
1.69494e-09
7.89358e-07
4.04145e-09
7.83239e-07
6.11896e-09
7.75444e-07
7.79509e-09
7.66305e-07
9.13907e-09
1.01214e-08
-3.77284e-07
-2.59516e-07
-2.92163e-07
-1.74451e-07
-2.5334e-07
-8.05775e-08
-2.59911e-07
1.02596e-08
-3.09523e-07
9.57329e-08
-3.96195e-07
1.71253e-07
-5.09925e-07
2.28958e-07
-6.39902e-07
2.66295e-07
-7.76487e-07
2.8328e-07
-9.08326e-07
2.77366e-07
-1.0254e-06
2.50641e-07
-1.11897e-06
2.05963e-07
-1.18208e-06
1.47274e-07
-1.20989e-06
7.92204e-08
-1.20175e-06
8.25448e-09
-1.1625e-06
-5.32305e-08
-1.09305e-06
-1.13876e-07
-9.98879e-07
-1.66026e-07
-8.85369e-07
-2.07609e-07
-7.60326e-07
-2.34798e-07
-6.29805e-07
-2.49135e-07
-4.99916e-07
-2.5048e-07
-3.76583e-07
-2.39232e-07
-2.65513e-07
-2.16006e-07
-1.71953e-07
-1.82013e-07
-1.00224e-07
-1.39321e-07
-5.29798e-08
-9.06444e-08
-3.12603e-08
-3.86939e-08
-3.34361e-08
9.11525e-09
-5.87305e-08
5.51405e-08
-1.04339e-07
9.61353e-08
-1.65438e-07
1.28453e-07
-2.36539e-07
1.50517e-07
-3.11872e-07
1.61464e-07
-3.85529e-07
1.60745e-07
-4.51018e-07
1.47457e-07
-5.02218e-07
1.22148e-07
-5.34099e-07
8.6679e-08
-5.4261e-07
4.30363e-08
-5.2976e-07
-1.40225e-09
-4.93486e-07
-4.61146e-08
-4.35295e-07
-8.98732e-08
-3.5873e-07
-1.28417e-07
-2.68063e-07
-1.59105e-07
-1.68079e-07
-1.80394e-07
-6.38443e-08
-1.9166e-07
3.98546e-08
-1.93093e-07
1.39563e-07
-1.86086e-07
2.31361e-07
-1.71336e-07
3.12257e-07
-1.50326e-07
3.80158e-07
-1.24794e-07
4.3394e-07
-9.66724e-08
4.73518e-07
-6.78673e-08
4.99655e-07
-3.99917e-08
5.137e-07
-1.48633e-08
5.17829e-07
5.59053e-09
5.14817e-07
2.17017e-08
5.07386e-07
3.20318e-08
4.98643e-07
3.58253e-08
4.91783e-07
3.30406e-08
4.90378e-07
2.31994e-08
4.96758e-07
8.30055e-09
5.10419e-07
-8.27135e-09
5.34034e-07
-2.74217e-08
5.67571e-07
-4.69541e-08
6.09971e-07
-6.53677e-08
6.59768e-07
-8.12144e-08
7.15017e-07
-9.33494e-08
7.73518e-07
-1.01044e-07
8.33158e-07
-1.04214e-07
8.91917e-07
-1.03509e-07
9.48206e-07
-9.94452e-08
1.00057e-06
-9.23077e-08
1.04766e-06
-8.23944e-08
1.08841e-06
-7.02309e-08
1.12217e-06
-5.66206e-08
1.14878e-06
-4.24175e-08
1.16849e-06
-2.84318e-08
1.18209e-06
-1.5415e-08
1.1898e-06
-4.16375e-09
1.19361e-06
4.67565e-09
1.19453e-06
1.1234e-08
1.19392e-06
1.49819e-08
1.19324e-06
1.57247e-08
1.19408e-06
1.32815e-08
1.19776e-06
8.02696e-09
1.20508e-06
7.63894e-10
1.21647e-06
-8.02829e-09
1.23318e-06
-1.8055e-08
1.25537e-06
-2.85136e-08
1.2827e-06
-3.88128e-08
1.31467e-06
-4.8281e-08
1.35054e-06
-5.63733e-08
1.3894e-06
-6.27245e-08
1.43026e-06
-6.71539e-08
1.47212e-06
-6.96174e-08
1.51401e-06
-7.01748e-08
1.55506e-06
-6.89795e-08
1.59451e-06
-6.62576e-08
1.63177e-06
-6.22839e-08
1.66637e-06
-5.73736e-08
1.69804e-06
-5.18714e-08
1.72666e-06
-4.61303e-08
1.75232e-06
-4.04818e-08
1.77526e-06
-3.52262e-08
1.79585e-06
-3.06272e-08
1.81454e-06
-2.69004e-08
1.83187e-06
-2.42049e-08
1.84839e-06
-2.26323e-08
1.8647e-06
-2.22052e-08
1.88134e-06
-2.28923e-08
1.89883e-06
-2.45939e-08
1.91759e-06
-2.71158e-08
1.93787e-06
-3.01962e-08
1.95979e-06
-3.35617e-08
1.98334e-06
-3.69705e-08
2.00839e-06
-4.01708e-08
2.03463e-06
-4.28536e-08
2.06163e-06
-4.47399e-08
2.08887e-06
-4.56952e-08
2.11586e-06
-4.57096e-08
2.14212e-06
-4.47765e-08
2.16715e-06
-4.28639e-08
2.19049e-06
-4.00197e-08
2.2117e-06
-3.6343e-08
2.23044e-06
-3.19614e-08
2.24644e-06
-2.70104e-08
2.25953e-06
-2.16424e-08
2.26961e-06
-1.60248e-08
2.27671e-06
-1.03663e-08
2.28102e-06
-4.85438e-09
2.28252e-06
2.01672e-10
2.28158e-06
4.97718e-09
2.27847e-06
9.22619e-09
2.27364e-06
1.26244e-08
2.26757e-06
1.52097e-08
1.69696e-08
2.14542e-07
-3.92597e-07
3.08334e-07
-2.68243e-07
3.58923e-07
-1.31167e-07
3.67852e-07
1.33131e-09
3.41243e-07
1.22341e-07
2.82444e-07
2.30052e-07
1.99606e-07
3.11797e-07
1.02648e-07
3.63253e-07
3.15353e-09
3.82775e-07
-9.23993e-08
3.72919e-07
-1.74212e-07
3.32454e-07
-2.33524e-07
2.65275e-07
-2.65682e-07
1.79432e-07
-2.68466e-07
8.20047e-08
-2.47953e-07
-1.22582e-08
-1.99993e-07
-1.01191e-07
-1.28417e-07
-1.85452e-07
-3.73847e-08
-2.57059e-07
6.66504e-08
-3.11644e-07
1.81671e-07
-3.49818e-07
3.01436e-07
-3.689e-07
4.20735e-07
-3.69779e-07
5.34709e-07
-3.53206e-07
6.38412e-07
-3.19709e-07
7.27433e-07
-2.71034e-07
7.98571e-07
-2.10459e-07
8.49834e-07
-1.41907e-07
8.8053e-07
-6.93903e-08
8.90384e-07
-7.37928e-10
8.83836e-07
6.16885e-08
8.63485e-07
1.16486e-07
8.33091e-07
1.58847e-07
7.96777e-07
1.86831e-07
7.58462e-07
1.99778e-07
7.21048e-07
1.9816e-07
6.89689e-07
1.78817e-07
6.69042e-07
1.42795e-07
6.6284e-07
9.28812e-08
6.74273e-07
3.16031e-08
7.0291e-07
-3.00396e-08
7.52327e-07
-9.55313e-08
8.20462e-07
-1.58008e-07
9.04429e-07
-2.12384e-07
1.00034e-06
-2.55013e-07
1.10386e-06
-2.83918e-07
1.21082e-06
-2.98623e-07
1.31769e-06
-2.99958e-07
1.42095e-06
-2.89353e-07
1.51765e-06
-2.68034e-07
1.60514e-06
-2.37814e-07
1.6815e-06
-2.01155e-07
1.74555e-06
-1.60722e-07
1.79699e-06
-1.19312e-07
1.83659e-06
-7.95875e-08
1.86546e-06
-4.37294e-08
1.88469e-06
-1.36432e-08
1.89804e-06
8.35569e-09
1.90673e-06
2.33341e-08
1.91294e-06
2.9622e-08
1.91948e-06
2.65027e-08
1.92936e-06
1.33157e-08
1.94362e-06
-5.95713e-09
1.96534e-06
-2.99898e-08
1.99502e-06
-5.71089e-08
2.03299e-06
-8.49182e-08
2.07864e-06
-1.1102e-07
2.1309e-06
-1.33475e-07
2.18826e-06
-1.50708e-07
2.24867e-06
-1.61461e-07
2.30989e-06
-1.65432e-07
2.37039e-06
-1.64004e-07
2.429e-06
-1.58063e-07
2.48455e-06
-1.47854e-07
2.53563e-06
-1.33478e-07
2.58098e-06
-1.15574e-07
2.61984e-06
-9.54805e-08
2.65197e-06
-7.45509e-08
2.6776e-06
-5.40623e-08
2.69736e-06
-3.51761e-08
2.71205e-06
-1.88505e-08
2.72248e-06
-5.75478e-09
2.73032e-06
3.39053e-09
2.73646e-06
8.8421e-09
2.74216e-06
1.00322e-08
2.7489e-06
6.54144e-09
2.75758e-06
-6.55067e-10
2.76946e-06
-1.11226e-08
2.78553e-06
-2.40988e-08
2.80625e-06
-3.87673e-08
2.83192e-06
-5.4189e-08
2.8625e-06
-6.93854e-08
2.89756e-06
-8.33433e-08
2.93643e-06
-9.5243e-08
2.97827e-06
-1.04566e-07
3.02219e-06
-1.11075e-07
3.06728e-06
-1.14706e-07
3.11261e-06
-1.15511e-07
3.15732e-06
-1.13685e-07
3.20062e-06
-1.0956e-07
3.24188e-06
-1.03539e-07
3.28058e-06
-9.6077e-08
3.31639e-06
-8.76836e-08
3.34914e-06
-7.88778e-08
3.37881e-06
-7.01505e-08
3.40554e-06
-6.19605e-08
3.42963e-06
-5.47104e-08
3.45145e-06
-4.87241e-08
3.47148e-06
-4.42363e-08
3.49023e-06
-4.13799e-08
3.50821e-06
-4.01818e-08
3.52591e-06
-4.05986e-08
3.54387e-06
-4.25465e-08
3.56256e-06
-4.58069e-08
3.58233e-06
-4.99654e-08
3.60334e-06
-5.4572e-08
3.62567e-06
-5.93018e-08
3.64933e-06
-6.38302e-08
3.67414e-06
-6.76622e-08
3.6997e-06
-7.03079e-08
3.72556e-06
-7.15524e-08
3.75129e-06
-7.14364e-08
3.77649e-06
-6.99811e-08
3.80071e-06
-6.70811e-08
3.8235e-06
-6.28112e-08
3.84447e-06
-5.73135e-08
3.86328e-06
-5.07749e-08
3.87969e-06
-4.34126e-08
3.8935e-06
-3.54518e-08
3.90459e-06
-2.71136e-08
3.91291e-06
-1.86889e-08
3.91857e-06
-1.05192e-08
3.92161e-06
-2.8322e-09
3.9226e-06
3.98571e-09
3.92177e-06
1.00531e-08
3.91947e-06
1.49252e-08
3.91614e-06
1.8535e-08
2.08605e-08
1.63347e-06
-5.20256e-07
1.73658e-06
-3.71347e-07
1.80993e-06
-2.04517e-07
1.84502e-06
-3.37592e-08
1.84921e-06
1.18144e-07
1.82935e-06
2.49912e-07
1.7925e-06
3.48646e-07
1.74522e-06
4.10533e-07
1.69229e-06
4.35706e-07
1.63667e-06
4.28541e-07
1.58722e-06
3.81903e-07
1.55222e-06
3.00279e-07
1.53473e-06
1.96923e-07
1.53621e-06
8.0519e-08
1.55769e-06
-3.37385e-08
1.60126e-06
-1.44756e-07
1.66243e-06
-2.46626e-07
1.73912e-06
-3.33743e-07
1.82928e-06
-4.01812e-07
1.92792e-06
-4.48449e-07
2.03113e-06
-4.72117e-07
2.13656e-06
-4.75208e-07
2.24158e-06
-4.58221e-07
2.34108e-06
-4.19214e-07
2.42993e-06
-3.59883e-07
2.50425e-06
-2.84785e-07
2.56196e-06
-1.99615e-07
2.60338e-06
-1.10803e-07
2.62691e-06
-2.42692e-08
2.63843e-06
5.01635e-08
2.63999e-06
1.14933e-07
2.63488e-06
1.63952e-07
2.62585e-06
1.95863e-07
2.61475e-06
2.10879e-07
2.60264e-06
2.10262e-07
2.59346e-06
1.88005e-07
2.59235e-06
1.43901e-07
2.60175e-06
8.34834e-08
2.62306e-06
1.02959e-08
2.66209e-06
-6.90776e-08
2.71822e-06
-1.51655e-07
2.7893e-06
-2.29089e-07
2.87227e-06
-2.95355e-07
2.96371e-06
-3.46449e-07
3.06002e-06
-3.80236e-07
3.15787e-06
-3.96469e-07
3.25502e-06
-3.97105e-07
3.34979e-06
-3.84121e-07
3.44037e-06
-3.58618e-07
3.52496e-06
-3.22408e-07
3.60204e-06
-2.78228e-07
3.67041e-06
-2.29091e-07
3.7295e-06
-1.78408e-07
3.7793e-06
-1.29388e-07
3.82048e-06
-8.49019e-08
3.85419e-06
-4.73619e-08
3.88111e-06
-1.85561e-08
3.90356e-06
8.85001e-10
3.92269e-06
1.04852e-08
3.93966e-06
9.53444e-09
3.95529e-06
-2.31529e-09
3.97247e-06
-2.31309e-08
3.99317e-06
-5.06911e-08
4.0187e-06
-8.26408e-08
4.04968e-06
-1.15903e-07
4.0859e-06
-1.47237e-07
4.127e-06
-1.74571e-07
4.17241e-06
-1.96116e-07
4.22078e-06
-2.09838e-07
4.26992e-06
-2.1457e-07
4.31975e-06
-2.13836e-07
4.37037e-06
-2.08685e-07
4.42147e-06
-1.98951e-07
4.47149e-06
-1.83498e-07
4.51798e-06
-1.62061e-07
4.55977e-06
-1.37269e-07
4.59617e-06
-1.10956e-07
4.62694e-06
-8.48357e-08
4.65231e-06
-6.05375e-08
4.67272e-06
-3.92593e-08
4.68897e-06
-2.20046e-08
4.70185e-06
-9.49773e-09
4.71266e-06
-1.96283e-09
4.7223e-06
3.93606e-10
4.73156e-06
-2.71794e-09
4.74164e-06
-1.07351e-08
4.75352e-06
-2.30051e-08
4.76797e-06
-3.85481e-08
4.78559e-06
-5.63867e-08
4.80684e-06
-7.54439e-08
4.83194e-06
-9.44838e-08
4.8607e-06
-1.12102e-07
4.89268e-06
-1.2722e-07