/*--------------------------------*- C++ -*----------------------------------*\
| =========                 |                                                 |
| \\      /  F ield         | OpenFOAM: The Open Source CFD Toolbox           |
|  \\    /   O peration     | Version:  2206                                  |
|   \\  /    A nd           | Website:  www.openfoam.com                      |
|    \\/     M anipulation  |                                                 |
\*---------------------------------------------------------------------------*/
FoamFile
{
    version     2.0;
    format      ascii;
    arch        "LSB;label=32;scalar=64";
    class       volScalarField;
    location    "18.5001";
    object      p;
}
// * * * * * * * * * * * * * * * * * * * * * * * * * * * * * * * * * * * * * //

dimensions      [0 2 -2 0 0 0 0];

internalField   nonuniform List<scalar> 
3050
(
0.873266
0.87316
0.872886
0.872454
0.871886
0.871194
0.870378
0.869444
0.868398
0.867248
0.866002
0.864668
0.863251
0.861758
0.860197
0.858572
0.85689
0.855156
0.853375
0.851552
0.849692
0.8478
0.845879
0.843934
0.841969
0.839988
0.837996
0.835995
0.833991
0.831988
0.829989
0.827998
0.82602
0.824058
0.822116
0.820199
0.818311
0.816455
0.814637
0.812859
0.811126
0.809443
0.807813
0.80624
0.804729
0.803284
0.801908
0.800606
0.799383
0.798243
0.797191
0.796231
0.795369
0.79461
0.793959
0.793425
0.793014
0.792735
0.792601
0.792619
0.7928
0.793155
0.793698
0.794446
0.795416
0.796627
0.798102
0.799864
0.801941
0.804365
0.807169
0.810393
0.81408
0.818279
0.823042
0.828431
0.834512
0.841358
0.84905
0.857677
0.867333
0.87812
0.890142
0.903505
0.918309
0.934639
0.952548
0.972036
0.993009
1.01522
1.03818
1.06097
1.08207
1.0987
1.10649
1.09561
1.05368
0.919406
0.658532
-0.353665
0.874073
0.873962
0.873675
0.873223
0.87263
0.871908
0.871059
0.870089
0.869005
0.867817
0.866532
0.865159
0.863704
0.862175
0.860578
0.858919
0.857203
0.855438
0.853626
0.851774
0.849886
0.847966
0.846018
0.844047
0.842057
0.840052
0.838035
0.83601
0.833982
0.831955
0.829933
0.827918
0.825917
0.823931
0.821966
0.820026
0.818115
0.816236
0.814395
0.812594
0.810839
0.809133
0.80748
0.805884
0.804349
0.80288
0.801479
0.800152
0.798902
0.797733
0.79665
0.795657
0.794759
0.793961
0.793267
0.792685
0.792222
0.791886
0.791686
0.791628
0.791724
0.791983
0.792417
0.793042
0.793871
0.794922
0.796214
0.797768
0.799607
0.801758
0.80425
0.807115
0.810389
0.814111
0.818324
0.823075
0.828415
0.834398
0.841083
0.848528
0.856794
0.865939
0.876015
0.887061
0.899095
0.912095
0.925986
0.940597
0.95562
0.970527
0.984458
0.996011
1.00297
1.00154
0.985958
0.944057
0.860714
0.688262
0.402707
-0.093302
0.87503
0.874913
0.87461
0.874133
0.873508
0.872749
0.871859
0.870845
0.869716
0.868481
0.86715
0.865731
0.864231
0.862658
0.861019
0.859319
0.857565
0.855762
0.853915
0.852029
0.850108
0.848156
0.846178
0.844177
0.842157
0.840123
0.838078
0.836025
0.833969
0.831914
0.829864
0.827822
0.825793
0.82378
0.821788
0.819821
0.817882
0.815977
0.814109
0.812281
0.810499
0.808766
0.807086
0.805463
0.803901
0.802404
0.800974
0.799617
0.798336
0.797134
0.796016
0.794985
0.794046
0.793203
0.792461
0.791825
0.791302
0.7909
0.790624
0.790482
0.790481
0.790631
0.790942
0.791427
0.792097
0.792968
0.794055
0.795375
0.796947
0.798793
0.800936
0.803402
0.806217
0.809412
0.813018
0.817068
0.821597
0.82664
0.83223
0.838399
0.845174
0.852569
0.860585
0.869199
0.878351
0.887927
0.897733
0.907458
0.916616
0.924469
0.929898
0.93121
0.925868
0.909917
0.877613
0.819493
0.724
0.573006
0.351598
0.0919038
0.876146
0.876021
0.875698
0.87519
0.874526
0.873721
0.872782
0.871715
0.87053
0.86924
0.867854
0.866381
0.864829
0.863206
0.861518
0.859772
0.857974
0.856128
0.854241
0.852316
0.850357
0.84837
0.846356
0.844322
0.842269
0.840202
0.838124
0.83604
0.833952
0.831865
0.829783
0.82771
0.825649
0.823605
0.821582
0.819583
0.817614
0.815677
0.813778
0.81192
0.810107
0.808343
0.806633
0.804979
0.803386
0.801857
0.800395
0.799004
0.797688
0.79645
0.795292
0.79422
0.793235
0.792343
0.791547
0.790851
0.790263
0.789786
0.789427
0.78919
0.789083
0.789113
0.78929
0.789621
0.790117
0.790791
0.791653
0.792717
0.793999
0.795514
0.797279
0.799313
0.801634
0.804262
0.807218
0.81052
0.814188
0.818236
0.822676
0.827512
0.832737
0.838328
0.844239
0.850391
0.856657
0.862845
0.868668
0.873709
0.877362
0.878761
0.876667
0.869315
0.854215
0.827847
0.785438
0.720576
0.625356
0.492016
0.303008
0.0688583
0.877431
0.877297
0.876949
0.876402
0.87569
0.87483
0.87383
0.872699
0.87145
0.870095
0.868645
0.867109
0.865497
0.863816
0.862073
0.860275
0.858426
0.856534
0.854601
0.852633
0.850633
0.848605
0.846553
0.844481
0.842391
0.840287
0.838174
0.836053
0.83393
0.831808
0.82969
0.827582
0.825485
0.823405
0.821347
0.819313
0.817308
0.815336
0.813402
0.811509
0.809662
0.807864
0.806119
0.804431
0.802803
0.801239
0.799741
0.798313
0.796959
0.79568
0.79448
0.793362
0.792328
0.791383
0.790528
0.789768
0.789109
0.788553
0.788103
0.787765
0.787544
0.787445
0.787476
0.787643
0.787953
0.788415
0.789038
0.78983
0.790803
0.791967
0.793332
0.794909
0.79671
0.798745
0.801021
0.803546
0.806321
0.809345
0.812607
0.816086
0.819746
0.823529
0.827349
0.831081
0.834545
0.83749
0.839563
0.840278
0.838965
0.834711
0.82627
0.811959
0.789533
0.756037
0.707685
0.639838
0.54663
0.422785
0.257733
0.0583381
0.878899
0.878752
0.878374
0.877779
0.877007
0.87608
0.875007
0.873801
0.872475
0.871044
0.86952
0.867913
0.866232
0.864486
0.862681
0.860825
0.858921
0.856976
0.854994
0.852978
0.850933
0.848862
0.846767
0.844653
0.842523
0.840379
0.838226
0.836066
0.833903
0.831741
0.829585
0.827436
0.8253
0.823181
0.821082
0.819009
0.816965
0.814954
0.812981
0.81105
0.809164
0.807328
0.805545
0.803819
0.802153
0.80055
0.799014
0.797547
0.796151
0.794829
0.793583
0.792417
0.791331
0.790329
0.789412
0.788585
0.787849
0.787208
0.786663
0.786218
0.785877
0.785643
0.78552
0.785514
0.785628
0.785869
0.786241
0.78675
0.7874
0.788198
0.789148
0.790255
0.791519
0.792944
0.794525
0.796258
0.79813
0.800121
0.802204
0.804333
0.806448
0.808462
0.810258
0.811673
0.812489
0.812414
0.811056
0.807897
0.802251
0.793214
0.77961
0.759919
0.732204
0.694051
0.642509
0.574204
0.485212
0.372648
0.233286
0.0723807
0.880566
0.880404
0.879986
0.879332
0.878486
0.877476
0.876316
0.87502
0.873605
0.872086
0.870476
0.868788
0.867031
0.865212
0.86334
0.861419
0.859456
0.857454
0.855418
0.853351
0.851256
0.849137
0.846997
0.844838
0.842664
0.840477
0.83828
0.836077
0.833871
0.831666
0.829466
0.827274
0.825094
0.822931
0.820788
0.818671
0.816583
0.814529
0.812513
0.810539
0.808612
0.806734
0.80491
0.803142
0.801435
0.799791
0.798213
0.796703
0.795264
0.793896
0.792603
0.791386
0.790246
0.789184
0.788203
0.787305
0.786491
0.785761
0.785118
0.784562
0.784096
0.783721
0.78344
0.783255
0.783168
0.783181
0.783295
0.783511
0.783832
0.784257
0.784784
0.785411
0.786133
0.786943
0.787826
0.788768
0.789741
0.790713
0.791637
0.792451
0.793072
0.793393
0.79327
0.792515
0.790886
0.788066
0.783649
0.777111
0.767783
0.754817
0.737146
0.713447
0.682109
0.641219
0.588582
0.521887
0.438836
0.338039
0.218924
0.0841099
0.882453
0.882271
0.881804
0.881074
0.880137
0.879025
0.877759
0.876357
0.874837
0.873217
0.871511
0.869732
0.867889
0.865991
0.864044
0.862054
0.860025
0.857962
0.855868
0.853747
0.8516
0.849431
0.847242
0.845035
0.842814
0.84058
0.838337
0.836088
0.833835
0.831583
0.829335
0.827095
0.824867
0.822656
0.820465
0.8183
0.816165
0.814063
0.812
0.80998
0.808006
0.806083
0.804214
0.802402
0.800651
0.798963
0.797341
0.795786
0.794301
0.792886
0.791544
0.790274
0.789078
0.787956
0.78691
0.785939
0.785044
0.784224
0.78348
0.782811
0.782217
0.7817
0.781258
0.780891
0.780598
0.780379
0.780232
0.780154
0.780142
0.780191
0.780294
0.780443
0.780625
0.780824
0.781019
0.781182
0.781277
0.781259
0.781065
0.78062
0.779825
0.778554
0.776647
0.773901
0.770059
0.764798
0.757711
0.748292
0.735912
0.719802
0.699025
0.672464
0.638815
0.596611
0.544272
0.480259
0.403247
0.312545
0.208316
0.0924545
0.884585
0.884379
0.883848
0.883021
0.881967
0.880731
0.879339
0.877811
0.876169
0.874433
0.872619
0.870738
0.868802
0.866817
0.864789
0.862725
0.860627
0.858499
0.856344
0.854165
0.851962
0.84974
0.847499
0.845242
0.842971
0.840688
0.838395
0.836095
0.833792
0.831489
0.829189
0.826897
0.824617
0.822353
0.82011
0.817892
0.815705
0.813551
0.811437
0.809366
0.807343
0.805371
0.803453
0.801594
0.799797
0.798063
0.796395
0.794794
0.793261
0.791798
0.790405
0.789082
0.787829
0.786647
0.785534
0.784491
0.783515
0.782604
0.781758
0.780975
0.780254
0.779593
0.778989
0.77844
0.777942
0.777492
0.777084
0.776713
0.77637
0.776047
0.775731
0.775408
0.77506
0.774663
0.774188
0.773599
0.772851
0.771885
0.770632
0.769001
0.766884
0.764143
0.760608
0.756067
0.750261
0.742868
0.733496
0.721671
0.706819
0.688257
0.665182
0.636673
0.601696
0.559143
0.507894
0.446932
0.3755
0.293356
0.201025
0.100199
0.886998
0.886759
0.886143
0.88519
0.883988
0.882599
0.881054
0.879379
0.877597
0.875729
0.873792
0.8718
0.869761
0.867683
0.86557
0.863426
0.861255
0.85906
0.856841
0.854602
0.852343
0.850065
0.847771
0.845461
0.843138
0.840803
0.838458
0.836105
0.833748
0.83139
0.829034
0.826686
0.824349
0.822028
0.819728
0.817453
0.815208
0.812999
0.810829
0.808703
0.806626
0.804601
0.802632
0.800723
0.798876
0.797093
0.795378
0.793729
0.792149
0.790636
0.789192
0.787816
0.786507
0.785264
0.784087
0.782971
0.781914
0.780914
0.779967
0.779072
0.778225
0.777421
0.776657
0.775928
0.775227
0.774549
0.773885
0.773225
0.772559
0.771872
0.771148
0.770367
0.769506
0.768535
0.767419
0.766112
0.764564
0.762707
0.760462
0.757734
0.754403
0.750326
0.745328
0.739197
0.731677
0.722457
0.711169
0.697376
0.680565
0.660141
0.635429
0.605678
0.570082
0.527813
0.478085
0.420244
0.353897
0.279077
0.196427
0.107353
0.889736
0.889453
0.888722
0.8876
0.886208
0.884628
0.882902
0.881054
0.879111
0.877094
0.875023
0.872909
0.870761
0.868583
0.866379
0.864152
0.861905
0.859638
0.857354
0.855052
0.852733
0.850398
0.848048
0.845684
0.843306
0.840916
0.838516
0.836107
0.833693
0.831276
0.82886
0.826451
0.824053
0.82167
0.819308
0.816971
0.814665
0.812395
0.810165
0.80798
0.805845
0.803764
0.801741
0.799779
0.79788
0.796048
0.794284
0.792587
0.790958
0.789396
0.787902
0.786473
0.785109
0.783808
0.782567
0.781382
0.780247
0.779159
0.778114
0.777109
0.776138
0.775196
0.774276
0.773371
0.772474
0.771574
0.770662
0.769723
0.768744
0.767706
0.76659
0.765371
0.764021
0.762505
0.760782
0.758802
0.756506
0.753822
0.750665
0.746933
0.742504
0.737232
0.730942
0.723426
0.714435
0.703677
0.69081
0.67544
0.657112
0.635317
0.609491
0.57903
0.543311
0.501723
0.453723
0.398906
0.337099
0.268472
0.193648
0.113773
0.89286
0.892516
0.891625
0.890273
0.888632
0.886817
0.884873
0.882824
0.880696
0.878513
0.876295
0.874052
0.871789
0.869508
0.867212
0.864901
0.862577
0.86024
0.857889
0.855525
0.853147
0.850755
0.848348
0.845928
0.843494
0.841048
0.83859
0.836122
0.833646
0.831166
0.828685
0.82621
0.823744
0.821294
0.818865
0.816461
0.814088
0.811751
0.809456
0.807208
0.805011
0.802869
0.800787
0.798769
0.796817
0.794934
0.79312
0.791375
0.789697
0.788087
0.786543
0.785064
0.783646
0.782289
0.780988
0.779737
0.778528
0.777356
0.776216
0.775105
0.774016
0.77294
0.77187
0.770797
0.769709
0.768597
0.767447
0.766241
0.764963
0.763592
0.762103
0.76047
0.75866
0.756633
0.754345
0.751741
0.748757
0.745317
0.741333
0.736699
0.731292
0.724968
0.717557
0.708857
0.698631
0.686605
0.672467
0.655864
0.636398
0.613635
0.587106
0.556331
0.52083
0.480159
0.433946
0.38195
0.324125
0.260701
0.192245
0.119699
0.896458
0.896023
0.894896
0.893221
0.891258
0.889158
0.886961
0.884679
0.882339
0.879972
0.877594
0.875211
0.872824
0.870435
0.868041
0.865643
0.863239
0.860829
0.858411
0.855983
0.853544
0.851094
0.848631
0.846155
0.843665
0.841163
0.838648
0.83612
0.83358
0.831032
0.828482
0.825936
0.8234
0.820878
0.818377
0.815901
0.813456
0.811048
0.808684
0.806367
0.804104
0.801899
0.799755
0.797677
0.795668
0.793732
0.791869
0.790077
0.788353
0.786696
0.785104
0.783577
0.78211
0.780701
0.779345
0.778032
0.776752
0.7755
0.774273
0.773064
0.771863
0.770662
0.76945
0.768217
0.766952
0.76564
0.764265
0.762808
0.761249
0.759564
0.757727
0.755708
0.75347
0.750971
0.748164
0.744989
0.741381
0.73726
0.732534
0.727099
0.720831
0.713592
0.705222
0.695527
0.684282
0.671233
0.656097
0.638558
0.618271
0.59486
0.56794
0.537129
0.502067
0.462433
0.417976
0.368554
0.314189
0.25513
0.191882
0.125225
0.900657
0.900082
0.898592
0.89645
0.894061
0.891618
0.889128
0.886585
0.884017
0.881459
0.878921
0.876403
0.8739
0.871406
0.868919
0.866437
0.863956
0.861475
0.85899
0.856499
0.854
0.85149
0.848968
0.846432
0.843882
0.841318
0.838741
0.836148
0.833539
0.830917
0.828291
0.825667
0.823053
0.820452
0.817871
0.815317
0.812793
0.810307
0.807866
0.805477
0.803144
0.800871
0.798661
0.796521
0.794455
0.792467
0.790555
0.788714
0.786941
0.785237
0.7836
0.782026
0.780512
0.779061
0.777666
0.7763
0.774947
0.773616
0.772305
0.771004
0.769699
0.768379
0.767035
0.765652
0.764218
0.762723
0.761142
0.759452
0.757632
0.755657
0.753499
0.751125
0.748497
0.74557
0.742294
0.738609
0.734446
0.729723
0.724349
0.718218
0.711213
0.703204
0.694039
0.68353
0.671465
0.657614
0.641724
0.623512
0.602674
0.578882
0.551812
0.521161
0.486662
0.448098
0.405307
0.358202
0.306834
0.251445
0.192479
0.13058
0.90565
0.904832
0.902768
0.899968
0.897044
0.894186
0.891336
0.888472
0.885635
0.88286
0.880144
0.877479
0.874856
0.87226
0.869681
0.867118
0.864566
0.86202
0.859476
0.856931
0.85438
0.851821
0.84925
0.846663
0.844061
0.841444
0.83881
0.836152
0.833469
0.83077
0.828065
0.82536
0.822663
0.819978
0.817314
0.814678
0.812071
0.809499
0.806974
0.804504
0.802091
0.799742
0.79746
0.795252
0.793126
0.791094
0.789146
0.787262
0.78544
0.78369
0.782009
0.78039
0.778823
0.777327
0.77591
0.774515
0.773105
0.771703
0.770317
0.768933
0.767535
0.76611
0.764648
0.763126
0.761534
0.759868
0.758098
0.756196
0.754136
0.751895
0.749442
0.746743
0.743759
0.740444
0.736747
0.732605
0.727949
0.722696
0.71675
0.710001
0.702343
0.693689
0.683897
0.672755
0.660056
0.6456
0.629165
0.6105
0.589327
0.565356
0.538316
0.507975
0.474137
0.436656
0.395408
0.350334
0.30151
0.249174
0.193711
0.135659
0.911785
0.910442
0.907356
0.903637
0.900145
0.896897
0.893688
0.890497
0.887404
0.884432
0.881556
0.878756
0.876014
0.873308
0.870632
0.867981
0.86535
0.862728
0.86011
0.857495
0.854879
0.852255
0.849618
0.846966
0.844302
0.841636
0.838955
0.836224
0.833451
0.830657
0.827861
0.825065
0.822273
0.819494
0.816737
0.814012
0.811316
0.80865
0.806034
0.803474
0.800976
0.798546
0.796187
0.793897
0.791685
0.7896
0.787627
0.785712
0.783855
0.782066
0.780351
0.778702
0.777115
0.775587
0.774108
0.77265
0.771194
0.769743
0.768295
0.766838
0.765357
0.76384
0.762272
0.760638
0.758923
0.757106
0.755164
0.75307
0.750798
0.748321
0.745608
0.742625
0.739332
0.735682
0.731625
0.727098
0.722036
0.716351
0.709955
0.702708
0.694466
0.685237
0.674938
0.663316
0.650158
0.635288
0.618515
0.599618
0.578318
0.554292
0.527346
0.497315
0.464145
0.427821
0.388105
0.344871
0.298229
0.248432
0.195825
0.140861
0.919716
0.917302
0.912339
0.907163
0.902899
0.899141
0.895487
0.891929
0.888569
0.885401
0.882402
0.879539
0.876731
0.873946
0.871202
0.868502
0.865833
0.863182
0.860534
0.857882
0.855226
0.85256
0.84987
0.847158
0.844411
0.841693
0.838992
0.836208
0.83335
0.830465
0.827576
0.824688
0.821806
0.818936
0.816088
0.813263
0.810462
0.807698
0.804991
0.802346
0.799772
0.797267
0.794839
0.792492
0.790241
0.788097
0.78605
0.784079
0.782183
0.780366
0.778628
0.776961
0.775355
0.773802
0.772289
0.770802
0.769323
0.767839
0.766342
0.764823
0.76327
0.761673
0.760015
0.758285
0.756456
0.754504
0.752413
0.750153
0.747691
0.745002
0.742061
0.73883
0.735268
0.731327
0.726956
0.722097
0.716679
0.710625
0.703843
0.696229
0.687679
0.678116
0.667417
0.655405
0.641906
0.626758
0.609792
0.590858
0.569736
0.545878
0.519186
0.489378
0.456534
0.421142
0.382763
0.341135
0.29635
0.248656
0.198363
0.145868
0.930244
0.925564
0.918088
0.911675
0.90677
0.902376
0.89812
0.894127
0.890442
0.886983
0.883769
0.880836
0.877953
0.875061
0.87221
0.869418
0.866668
0.863948
0.861237
0.858521
0.855801
0.853078
0.850343
0.847591
0.844821
0.84204
0.839225
0.836334
0.833373
0.830382
0.827389
0.824397
0.821408
0.818428
0.815465
0.81252
0.809607
0.806748
0.803952
0.80122
0.798562
0.795973
0.793462
0.791043
0.788727
0.786517
0.784409
0.782396
0.780476
0.778642
0.776891
0.775212
0.773597
0.772031
0.770503
0.768997
0.767497
0.765991
0.764466
0.762914
0.761318
0.759658
0.757926
0.756108
0.754175
0.752126
0.749931
0.747556
0.74495
0.742095
0.738971
0.735543
0.731767
0.727597
0.722983
0.717866
0.712181
0.705852
0.698796
0.690922
0.682129
0.672309
0.661338
0.64908
0.635392
0.620113
0.603068
0.584079
0.562935
0.539337
0.513105
0.484092
0.452268
0.4177
0.380249
0.339813
0.296454
0.25036
0.201809
0.151183
0.945553
0.932083
0.919463
0.912791
0.908072
0.903404
0.898821
0.89466
0.890947
0.88755
0.884373
0.881366
0.878435
0.875543
0.872701
0.869909
0.867152
0.864413
0.861681
0.85895
0.856216
0.853473
0.850723
0.847954
0.845163
0.842341
0.839464
0.836485
0.833413
0.830318
0.827226
0.824132
0.821035
0.817945
0.814872
0.811826
0.808819
0.805865
0.802971
0.800148
0.797417
0.794764
0.792185
0.789708
0.787347
0.7851
0.782964
0.780935
0.779008
0.777176
0.77543
0.773762
0.77216
0.77061
0.769092
0.767593
0.766099
0.764594
0.763066
0.761494
0.759899
0.758226
0.756459
0.75459
0.752604
0.750474
0.748193
0.745733
0.743046
0.740098
0.736864
0.733312
0.729399
0.725081
0.720308
0.715026
0.70917
0.702669
0.695443
0.687403
0.678449
0.668473
0.657353
0.644959
0.631151
0.615776
0.598664
0.579637
0.558508
0.535077
0.509168
0.480645
0.449417
0.415456
0.378759
0.339283
0.297016
0.252073
0.204697
0.155353
0.980986
0.947125
0.924989
0.916005
0.910862
0.905679
0.900587
0.896079
0.892172
0.888638
0.885324
0.882175
0.879146
0.876198
0.873308
0.870466
0.86766
0.864876
0.862104
0.859335
0.856562
0.853782
0.850992
0.848188
0.845372
0.842547
0.839679
0.836629
0.833429
0.830244
0.827087
0.823931
0.820776
0.817632
0.814509
0.811416
0.808364
0.805364
0.802428
0.799565
0.796787
0.794099
0.791509
0.789026
0.786656
0.7844
0.782259
0.78023
0.778307
0.776483
0.774749
0.773095
0.771506
0.76997
0.768471
0.766992
0.765518
0.764031
0.762513
0.760952
0.759336
0.757667
0.755916
0.754065
0.752095
0.749986
0.74771
0.745239
0.742549
0.739604
0.736372
0.732817
0.7289
0.724577
0.719796
0.714503
0.708635
0.702122
0.694885
0.686836
0.677877
0.667901
0.656789
0.64441
0.630625
0.615281
0.598215
0.579253
0.558218
0.534927
0.509203
0.480894
0.449872
0.416129
0.379773
0.34076
0.298992
0.254556
0.20771
0.158856
-2.26614
-1.49576
-1.24497
-1.3
-1.26928
-1.24137
-1.22246
-1.20923
-1.19286
-1.16885
-1.13963
-1.10693
-1.07579
-1.04958
-1.02996
-1.01739
-1.01304
-1.01758
-1.03436
-1.0649
-1.10859
-1.16152
-1.21418
-1.25053
-1.25434
-1.21659
-1.14937
-0.850272
-1.08928
-1.21539
-1.254
-1.22
-1.21153
-1.2187
-1.21751
-1.20739
-1.18935
-1.1587
-1.11647
-1.0756
-1.04447
-1.02297
-1.00807
-0.999174
-1.00315
-1.02093
-1.05524
-1.10534
-1.16726
-1.232
-1.2812
-1.2937
-1.2599
-1.1813
-0.398687
-0.823005
-1.05968
-1.16051
-1.19824
-1.21076
-1.21024
-1.20552
-1.19677
-1.17642
-1.1414
-1.09824
-1.05891
-1.03234
-1.01479
-1.00036
-0.990426
-0.989342
-1.00738
-1.04833
-1.10908
-1.18463
-1.2637
-1.32423
-1.33849
-1.2966
-1.20693
-0.284973
-0.610125
-0.807744
-0.925193
-1.02157
-1.08542
-1.12145
-1.13971
-1.14434
-1.13666
-1.11825
-1.0913
-1.05933
-1.02977
-1.00544
-0.983427
-0.964327
-0.961219
-0.985725
-1.0379
-1.108
-1.18843
-1.26957
-1.32858
-1.33729
-1.28913
-1.19632
-0.182723
-0.410982
-0.581421
-0.716908
-0.831749
-0.912737
-0.970195
-1.00731
-1.02786
-1.03643
-1.03403
-1.02122
-1.0029
-0.985619
-0.97264
-0.964147
-0.962792
-0.975174
-1.00443
-1.049
-1.10546
-1.16864
-1.22851
-1.26285
-1.25945
-1.21291
-1.13364
-0.107087
-0.287911
-0.44479
-0.571608
-0.67861
-0.764081
-0.832524
-0.881683
-0.913905
-0.936361
-0.948422
-0.950551
-0.94701
-0.94255
-0.939951
-0.940795
-0.946173
-0.959433
-0.983916
-1.01818
-1.06026
-1.10456
-1.14049
-1.16241
-1.15737
-1.12227
-1.0629
-0.0629046
-0.213452
-0.350669
-0.465781
-0.564408
-0.648104
-0.71601
-0.769476
-0.810905
-0.84268
-0.865309
-0.878744
-0.886337
-0.892111
-0.897858
-0.904999
-0.914881
-0.930017
-0.951743
-0.978791
-1.00893
-1.03838
-1.06137
-1.07371
-1.0692
-1.0428
-0.997938
-0.0313122
-0.156942
-0.275062
-0.380118
-0.472837
-0.553454
-0.62149
-0.677627
-0.723621
-0.760385
-0.788902
-0.809993
-0.826048
-0.839396
-0.851516
-0.863875
-0.877874
-0.89435
-0.913795
-0.93556
-0.958197
-0.979392
-0.993218
-0.999004
-0.993875
-0.972481
-0.938896
-0.00608121
-0.113783
-0.21731
-0.312769
-0.399418
-0.476509
-0.543628
-0.600927
-0.649189
-0.689494
-0.722484
-0.74932
-0.771413
-0.790283
-0.807182
-0.823366
-0.839774
-0.856691
-0.874429
-0.892668
-0.91021
-0.92517
-0.93496
-0.93792
-0.932129
-0.916127
-0.891116
0.01411
-0.080485
-0.172685
-0.25955
-0.339962
-0.412965
-0.478163
-0.535463
-0.585175
-0.627966
-0.664369
-0.69522
-0.721522
-0.744383
-0.764819
-0.783735
-0.801813
-0.819263
-0.836175
-0.852306
-0.866839
-0.87854
-0.885808
-0.887252
-0.882028
-0.869469
-0.850082
0.0305549
-0.053906
-0.136982
-0.216485
-0.291284
-0.360424
-0.423404
-0.479957
-0.530162
-0.574381
-0.613009
-0.646631
-0.675976
-0.701818
-0.724909
-0.745915
-0.765306
-0.783293
-0.799863
-0.814782
-0.827519
-0.837269
-0.843054
-0.844018
-0.83967
-0.8297
-0.814529
0.0443881
-0.0320981
-0.107849
-0.181201
-0.25112
-0.316718
-0.377417
-0.432864
-0.482989
-0.527943
-0.56797
-0.603471
-0.634944
-0.662922
-0.687951
-0.710503
-0.730911
-0.749333
-0.76578
-0.780076
-0.791861
-0.800622
-0.805777
-0.806807
-0.803397
-0.795475
-0.783389
0.0562009
-0.0139711
-0.0838393
-0.152087
-0.217815
-0.280227
-0.338724
-0.392912
-0.442618
-0.487845
-0.528708
-0.565451
-0.598391
-0.627891
-0.654328
-0.678028
-0.699227
-0.718052
-0.734519
-0.74853
-0.759861
-0.768178
-0.77311
-0.774375
-0.771835
-0.765527
-0.755754
0.0665862
0.00145972
-0.0636628
-0.127709
-0.189902
-0.249533
-0.30602
-0.358942
-0.408058
-0.453267
-0.49458
-0.532116
-0.566054
-0.596628
-0.624082
-0.648636
-0.670462
-0.689632
-0.706185
-0.720104
-0.731261
-0.739415
-0.744362
-0.745971
-0.74422
-0.739196
-0.731173
0.0756972
0.0146107
-0.046695
-0.107317
-0.166584
-0.223856
-0.278577
-0.330315
-0.378777
-0.423803
-0.465305
-0.503325
-0.537917
-0.569234
-0.597406
-0.622572
-0.644854
-0.664296
-0.680948
-0.694852
-0.705963
-0.714081
-0.719124
-0.721069
-0.719952
-0.715896
-0.709146
0.0841125
0.0262362
-0.03204
-0.0899188
-0.146832
-0.202168
-0.255427
-0.306128
-0.354002
-0.398776
-0.440358
-0.478672
-0.51371
-0.545583
-0.574239
-0.599946
-0.6225
-0.642007
-0.658806
-0.672881
-0.684002
-0.692115
-0.697241
-0.699448
-0.698819
-0.695456
-0.689629
0.0916501
0.0363076
-0.0196108
-0.0753434
-0.130404
-0.184195
-0.236248
-0.286104
-0.333418
-0.37797
-0.419491
-0.458015
-0.493272
-0.525532
-0.554544
-0.580632
-0.603547
-0.622769
-0.639434
-0.653645
-0.664834
-0.672928
-0.678116
-0.680477
-0.68012
-0.677217
-0.672038
0.0989057
0.045423
-0.00872306
-0.062965
-0.116698
-0.169435
-0.220631
-0.269915
-0.316862
-0.361258
-0.402833
-0.441453
-0.477002
-0.509347
-0.538675
-0.564751
-0.587686
-0.607448
-0.624379
-0.638525
-0.649599
-0.657607
-0.662739
-0.665122
-0.66487
-0.662226
-0.657426
0.104489
0.0524143
-0.000437194
-0.0535299
-0.106296
-0.158219
-0.208804
-0.257626
-0.304294
-0.348519
-0.390107
-0.428834
-0.464591
-0.497042
-0.526453
-0.552591
-0.57555
-0.595508
-0.612347
-0.626191
-0.637079
-0.644985
-0.649968
-0.65223
-0.651922
-0.649281
-0.644599
0.108427
0.0567983
0.00439205
-0.0482906
-0.100716
-0.152371
-0.202773
-0.251487
-0.298125
-0.342368
-0.383917
-0.422641
-0.458347
-0.491105
-0.520812
-0.547493
-0.570851
-0.590844
-0.607624
-0.62129
-0.631997
-0.639812
-0.644781
-0.647024
-0.646688
-0.64399
-0.639334
0.871291
0.871196
0.870951
0.870564
0.870053
0.869428
0.868688
0.867837
0.866878
0.865819
0.871294
0.871199
0.870954
0.870567
0.870056
0.869431
0.868691
0.86784
0.866881
0.865822
0.864669
0.863426
0.862101
0.860698
0.859224
0.857684
0.856083
0.854428
0.852723
0.850974
0.849185
0.847361
0.845506
0.843625
0.841723
0.839804
0.837872
0.835931
0.833985
0.832039
0.830098
0.828164
0.826242
0.824336
0.82245
0.820588
0.818754
0.816953
0.815188
0.813464
0.811785
0.810155
0.808579
0.807061
0.805604
0.804215
0.802897
0.801656
0.800496
0.799423
0.798443
0.797562
0.796785
0.796122
0.795578
0.795164
0.794886
0.794755
0.794773
0.794969
0.795361
0.795959
0.796777
0.797838
0.799164
0.800785
0.802728
0.805028
0.807723
0.810859
0.814484
0.818657
0.823443
0.828917
0.835165
0.842288
0.850398
0.859629
0.870134
0.882092
0.895709
0.91123
0.928937
0.949165
0.972306
0.998819
1.02925
1.06422
1.10448
1.15085
1.20429
1.26577
1.33622
1.41634
1.50615
1.60436
1.70724
1.80733
1.89163
1.94343
0.871425
0.871329
0.871083
0.870693
0.870179
0.869549
0.868805
0.867948
0.866984
0.86592
0.86476
0.863512
0.86218
0.860772
0.859292
0.857746
0.856141
0.854481
0.852771
0.851017
0.849223
0.847395
0.845536
0.843651
0.841745
0.839822
0.837886
0.835942
0.833993
0.832043
0.830099
0.828162
0.826236
0.824327
0.822438
0.820573
0.818737
0.816933
0.815165
0.813439
0.811757
0.810125
0.808546
0.807025
0.805567
0.804175
0.802855
0.801611
0.800449
0.799373
0.79839
0.797506
0.796726
0.796059
0.795511
0.79509
0.794804
0.79466
0.794673
0.794865
0.795247
0.795831
0.796634
0.797678
0.798985
0.800581
0.802497
0.804765
0.807424
0.810516
0.81409
0.818204
0.822919
0.828311
0.834462
0.841469
0.849444
0.858513
0.868824
0.88055
0.893889
0.909072
0.926369
0.946096
0.96862
0.994371
1.02385
1.05764
1.09641
1.14091
1.19198
1.25047
1.31719
1.39269
1.47693
1.56866
1.66445
1.75744
1.83565
1.88277
0.871685
0.871588
0.871338
0.870942
0.870421
0.869783
0.869029
0.868162
0.867187
0.86611
0.864939
0.863679
0.862335
0.860915
0.859424
0.857867
0.856251
0.85458
0.85286
0.851097
0.849293
0.847456
0.845588
0.843695
0.841781
0.83985
0.837906
0.835954
0.833997
0.83204
0.830088
0.828144
0.826212
0.824295
0.822399
0.820527
0.818684
0.816873
0.815099
0.813365
0.811677
0.810038
0.808453
0.806925
0.80546
0.804061
0.802734
0.801483
0.800313
0.79923
0.798238
0.797344
0.796554
0.795874
0.795313
0.794875
0.794571
0.794408
0.794404
0.794575
0.794929
0.795481
0.796248
0.797251
0.798511
0.800054
0.801907
0.804104
0.80668
0.809676
0.81314
0.817125
0.821691
0.826908
0.832855
0.839623
0.847315
0.856051
0.865968
0.877224
0.89
0.904507
0.920986
0.939717
0.961024
0.985278
1.0129
1.04438
1.08025
1.1211
1.16755
1.22021
1.27957
1.34586
1.41875
1.49685
1.57698
1.65313
1.7146
1.74832
0.872077
0.871978
0.871722
0.871317
0.870785
0.870134
0.869365
0.868482
0.867489
0.866395
0.865206
0.863927
0.862566
0.861128
0.859619
0.858045
0.856413
0.854726
0.852991
0.851213
0.849396
0.847544
0.845663
0.843757
0.841831
0.839887
0.837931
0.835967
0.833999
0.83203
0.830067
0.828111
0.826167
0.82424
0.822332
0.820449
0.818595
0.816773
0.814988
0.813244
0.811545
0.809896
0.8083
0.806761
0.805285
0.803875
0.802536
0.801273
0.80009
0.798993
0.797987
0.797076
0.796269
0.795569
0.794986
0.794524
0.794193
0.794002
0.793967
0.7941
0.794411
0.794914
0.795625
0.796564
0.797751
0.799211
0.800969
0.803055
0.805505
0.808356
0.811651
0.815442
0.819782
0.824737
0.830379
0.83679
0.844064
0.852308
0.861642
0.872207
0.88416
0.897679
0.91297
0.930262
0.949814
0.971916
0.996885
1.02506
1.05681
1.09248
1.13237
1.17669
1.22542
1.27815
1.33378
1.38992
1.44228
1.48202
1.49537
1.44228
0.872602
0.8725
0.872237
0.87182
0.871273
0.870603
0.869814
0.868909
0.867893
0.866774
0.86556
0.864257
0.862871
0.861409
0.859877
0.858281
0.856626
0.854918
0.853163
0.851365
0.849529
0.847659
0.84576
0.843837
0.841893
0.839933
0.837961
0.835981
0.833997
0.832013
0.830034
0.828062
0.826103
0.824161
0.822238
0.82034
0.818471
0.816634
0.814834
0.813076
0.811362
0.809697
0.808086
0.806533
0.805041
0.803616
0.802261
0.80098
0.79978
0.798664
0.797637
0.796705
0.795873
0.795147
0.794533
0.794039
0.793672
0.793443
0.793364
0.793446
0.793699
0.794135
0.794772
0.795625
0.796715
0.798063
0.799694
0.801635
0.803917
0.806576
0.80965
0.813185
0.81723
0.821843
0.827086
0.833033
0.839765
0.847372
0.855957
0.865635
0.876535
0.888798
0.902582
0.918057
0.935406
0.954819
0.976488
1.00059
1.02726
1.05655
1.0884
1.12248
1.15804
1.19364
1.2267
1.25235
1.26337
1.24069
1.18065
0.873204
)
;

boundaryField
{
    inlet
    {
        type            zeroGradient;
    }
    outlet
    {
        type            fixedValue;
        value           nonuniform List<scalar> 0();
    }
    topWall
    {
        type            zeroGradient;
    }
    lowerWall
    {
        type            zeroGradient;
    }
    leadingEdge
    {
        type            zeroGradient;
    }
    trailingEdge
    {
        type            zeroGradient;
    }
    upperSurface
    {
        type            zeroGradient;
    }
    lowerSurface
    {
        type            zeroGradient;
    }
    frontAndBack
    {
        type            empty;
    }
    procBoundary4to0
    {
        type            processor;
        value           nonuniform List<scalar> 
101
(
0.871416
0.87132
0.871074
0.870684
0.87017
0.86954
0.868795
0.867938
0.866974
0.865909
0.864665
0.864665
0.863422
0.862097
0.860694
0.859219
0.857679
0.856078
0.854423
0.852718
0.850968
0.849179
0.847354
0.845499
0.843618
0.841715
0.839796
0.837863
0.835921
0.833975
0.832028
0.830086
0.828152
0.826229
0.824322
0.822435
0.820572
0.818737
0.816934
0.815168
0.813443
0.811762
0.810131
0.808552
0.807032
0.805574
0.804182
0.802862
0.801618
0.800456
0.79938
0.798397
0.797512
0.796732
0.796065
0.795516
0.795098
0.794815
0.794685
0.794699
0.794886
0.795271
0.795863
0.796675
0.797729
0.799048
0.80066
0.802595
0.804886
0.807573
0.810698
0.814313
0.818475
0.823249
0.828711
0.834947
0.842056
0.850152
0.859369
0.869859
0.881801
0.895402
0.910906
0.928597
0.948809
0.971933
0.99843
1.02884
1.0638
1.10405
1.15042
1.20385
1.26533
1.3358
1.41595
1.50582
1.60411
1.7071