/*--------------------------------*- C++ -*----------------------------------*\
| =========                 |                                                 |
| \\      /  F ield         | OpenFOAM: The Open Source CFD Toolbox           |
|  \\    /   O peration     | Version:  2206                                  |
|   \\  /    A nd           | Website:  www.openfoam.com                      |
|    \\/     M anipulation  |                                                 |
\*---------------------------------------------------------------------------*/
FoamFile
{
    version     2.0;
    format      ascii;
    arch        "LSB;label=32;scalar=64";
    class       volScalarField;
    location    "18.3999";
    object      p;
}
// * * * * * * * * * * * * * * * * * * * * * * * * * * * * * * * * * * * * * //

dimensions      [0 2 -2 0 0 0 0];

internalField   nonuniform List<scalar> 
4797
(
-0.0200429
-0.0196794
-0.0193773
-0.0191009
-0.0188048
-0.0184753
-0.018181
-0.0178971
-0.0176233
-0.0174293
-0.0173566
-0.0174442
-0.0177381
-0.0182788
-0.0190902
-0.0201708
-0.0216215
-0.0238451
-0.026244
-0.0285207
-0.0310239
-0.0337021
-0.0364111
-0.0390537
-0.0415262
-0.0437231
-0.0455473
-0.046914
-0.0477549
-0.0480252
-0.0477286
-0.0468662
-0.0454679
-0.0435822
-0.0412701
-0.038606
-0.0356733
-0.0325589
-0.0293465
-0.026122
-0.0229721
-0.0199114
-0.01676
-0.0138018
-0.0113911
-0.00938491
-0.00764526
-0.0062005
-0.00504472
-0.0041471
-0.00347586
-0.00299482
-0.00266899
-0.00246515
-0.00234667
-0.00228608
-0.00227077
-0.00228919
-0.00235878
-0.00249002
-0.00267879
-0.00294166
-0.00331925
-0.00383093
-0.00449583
-0.00533451
-0.00635366
-0.00755342
-0.00911448
-0.0111372
-0.013141
-0.0150679
-0.0171403
-0.0192743
-0.0213858
-0.0234162
-0.0252956
-0.0269561
-0.0283363
-0.0293824
-0.0300522
-0.0303233
-0.0301904
-0.0296578
-0.028745
-0.0274829
-0.0259108
-0.0240761
-0.0220335
-0.0198424
-0.0175622
-0.0152501
-0.012971
-0.0107267
-0.00834122
-0.00609851
-0.00426892
-0.00270199
-0.00130937
-0.000124298
0.000854004
0.00164283
0.00225884
0.00272251
0.00305726
0.00328633
0.00342988
0.0035064
0.00352935
0.00350573
0.00343396
0.00331233
0.00313525
0.00289491
0.00258235
0.00218549
0.00169253
0.00110066
0.000415173
-0.000375723
-0.00145573
-0.00274087
-0.00390036
-0.00498347
-0.00610763
-0.00719647
-0.00818716
-0.00903031
-0.00966748
-0.0100436
-0.0101006
-0.00979462
-0.00907238
-0.00790845
-0.00632005
-0.00409441
-0.00169913
-0.025603
-0.0253941
-0.0251991
-0.0249884
-0.0246169
-0.0242026
-0.0238223
-0.0233169
-0.0227795
-0.0222759
-0.0218511
-0.0215525
-0.0214361
-0.0215408
-0.0218926
-0.0225001
-0.0234024
-0.0250935
-0.0269714
-0.0287225
-0.0307662
-0.0329947
-0.0352803
-0.0375388
-0.0396715
-0.0415797
-0.0431722
-0.0443692
-0.0451049
-0.0453351
-0.045064
-0.0442884
-0.0430333
-0.0413418
-0.0392696
-0.0368854
-0.0342678
-0.0314953
-0.0286481
-0.0258092
-0.023062
-0.0204601
-0.017819
-0.015218
-0.0131664
-0.0115763
-0.0102169
-0.00912401
-0.00829452
-0.0076892
-0.00727216
-0.00700269
-0.00685712
-0.00680767
-0.00678074
-0.00674446
-0.00668288
-0.00658229
-0.00651084
-0.00651945
-0.00653547
-0.00654676
-0.00664924
-0.00685989
-0.0071993
-0.00769054
-0.00834793
-0.00915875
-0.010254
-0.0118962
-0.0135187
-0.0150578
-0.0167706
-0.0185595
-0.0203517
-0.022095
-0.0237228
-0.0251716
-0.0263836
-0.0273079
-0.0279043
-0.0281456
-0.0280336
-0.0275662
-0.0267619
-0.0256471
-0.0242577
-0.022639
-0.0208413
-0.0189193
-0.0169287
-0.0149239
-0.0129696
-0.0110973
-0.00912502
-0.00718319
-0.00566031
-0.00443915
-0.003362
-0.00246885
-0.00176066
-0.00121322
-0.000808256
-0.000523799
-0.0003338
-0.000209583
-0.000132129
-8.2661e-05
-4.01601e-05
-3.87133e-06
1.16051e-05
1.29681e-05
-7.55342e-06
-6.71881e-05
-0.000174945
-0.000346624
-0.000593472
-0.000922757
-0.00133837
-0.0018319
-0.00255589
-0.00357329
-0.00445641
-0.00526448
-0.00614081
-0.00700003
-0.00778653
-0.00845662
-0.00895537
-0.00923122
-0.0092311
-0.00891565
-0.0082308
-0.00716533
-0.00572257
-0.00370147
-0.00153414
-0.0312255
-0.0312095
-0.0311361
-0.0309044
-0.0305417
-0.0300789
-0.0294984
-0.0287968
-0.0280049
-0.0271709
-0.0263569
-0.0256154
-0.0250228
-0.0246347
-0.024481
-0.0245718
-0.0249451
-0.026045
-0.0273432
-0.0283878
-0.0299795
-0.0317412
-0.033573
-0.0354191
-0.0371858
-0.0387827
-0.0401258
-0.04114
-0.0417626
-0.0419512
-0.0417076
-0.041025
-0.0399238
-0.0384432
-0.0366315
-0.0345551
-0.0322825
-0.0298849
-0.0274424
-0.0250297
-0.0227187
-0.0205935
-0.0185381
-0.0163597
-0.0147477
-0.0136199
-0.0126766
-0.0119789
-0.0115125
-0.0112332
-0.0111061
-0.0110886
-0.0111313
-0.0111855
-0.0112326
-0.0112677
-0.0111664
-0.0110201
-0.0109108
-0.0107116
-0.0104568
-0.0102131
-0.0100202
-0.00988598
-0.00985678
-0.00996326
-0.0102265
-0.0106429
-0.0112672
-0.0124662
-0.0136114
-0.0147092
-0.0160465
-0.0174615
-0.0189072
-0.0203385
-0.0216914
-0.0229091
-0.0239374
-0.0247278
-0.0252418
-0.0254531
-0.025363
-0.0249666
-0.0242804
-0.0233272
-0.0221399
-0.0207613
-0.019236
-0.0176123
-0.015944
-0.0142803
-0.0126796
-0.0111951
-0.0097046
-0.00810434
-0.0069617
-0.00611083
-0.00537283
-0.00480449
-0.00439528
-0.00410897
-0.00393357
-0.00384557
-0.00381801
-0.00381186
-0.00383275
-0.00384834
-0.00376369
-0.00362867
-0.00353869
-0.00342653
-0.00327977
-0.00314082
-0.00301187
-0.00292711
-0.00289967
-0.00293745
-0.00306161
-0.00326305
-0.00362464
-0.00436482
-0.00483567
-0.00535224
-0.0059788
-0.00659137
-0.00716056
-0.00764859
-0.0080027
-0.0081766
-0.00812431
-0.00780922
-0.00718207
-0.0062386
-0.00497167
-0.00320872
-0.00132859
-0.0368435
-0.037
-0.0370202
-0.0368456
-0.0364771
-0.0359041
-0.0351306
-0.0341809
-0.0330961
-0.031924
-0.0307286
-0.0295623
-0.0284819
-0.0275497
-0.0268297
-0.0263612
-0.0261744
-0.0265475
-0.0271095
-0.0277305
-0.0287806
-0.0300096
-0.0313592
-0.0327673
-0.0341484
-0.0354189
-0.0364995
-0.0373202
-0.0378225
-0.0379663
-0.03775
-0.037166
-0.036228
-0.0349707
-0.03344
-0.031693
-0.0297878
-0.0277948
-0.0257873
-0.0238306
-0.0219779
-0.0203294
-0.0188655
-0.0171657
-0.0161672
-0.0155145
-0.0149661
-0.0146947
-0.014634
-0.0147143
-0.0148973
-0.015165
-0.0154428
-0.0156346
-0.0157526
-0.015799
-0.0157221
-0.0155289
-0.0152509
-0.0148701
-0.0143718
-0.0138684
-0.0133981
-0.0129115
-0.0124787
-0.0121511
-0.0119828
-0.0119851
-0.0121907
-0.0128516
-0.0133338
-0.0140597
-0.0150039
-0.0160192
-0.0170999
-0.0181987
-0.0192594
-0.0202337
-0.021069
-0.0217183
-0.0221453
-0.0223261
-0.0222604
-0.0219408
-0.0213829
-0.0206026
-0.0196323
-0.0185127
-0.0172808
-0.0159754
-0.0146488
-0.0133489
-0.0121222
-0.0110113
-0.00997863
-0.00874328
-0.00820874
-0.00773054
-0.00730989
-0.00707503
-0.00699484
-0.00699837
-0.00707123
-0.00719137
-0.00736783
-0.00751275
-0.00756536
-0.00757491
-0.00751288
-0.00737284
-0.0071554
-0.0068529
-0.00657197
-0.00629125
-0.00592716
-0.00555009
-0.0052124
-0.00494187
-0.00476486
-0.00463459
-0.00464416
-0.00503776
-0.00503348
-0.00529311
-0.00565949
-0.00600506
-0.00634407
-0.00664267
-0.00684773
-0.00691962
-0.00682241
-0.00652044
-0.00597184
-0.00517133
-0.00410445
-0.00264433
-0.00109502
-0.0422618
-0.0426293
-0.0427774
-0.0426536
-0.0422574
-0.0415679
-0.0405986
-0.0393829
-0.0379662
-0.0364018
-0.0347601
-0.0331223
-0.0315503
-0.030108
-0.0288321
-0.0277932
-0.0270519
-0.0265401
-0.0263539
-0.0267521
-0.0271844
-0.0278563
-0.0287141
-0.0296664
-0.0306498
-0.0315882
-0.0324034
-0.0330282
-0.0334102
-0.0335082
-0.033319
-0.0328318
-0.03206
-0.0310299
-0.029784
-0.0283688
-0.0268387
-0.0252622
-0.0237063
-0.0222174
-0.0208471
-0.0196854
-0.0187364
-0.0177387
-0.0173172
-0.0171602
-0.0170701
-0.0172584
-0.0176456
-0.0181143
-0.0186218
-0.0191491
-0.0196272
-0.0199989
-0.0202361
-0.0203149
-0.0202212
-0.0199474
-0.0195076
-0.0189147
-0.0181925
-0.0173929
-0.0165525
-0.0157143
-0.0149173
-0.0141499
-0.0135371
-0.0131408
-0.0128993
-0.0128822
-0.0127675
-0.0130912
-0.0136419
-0.014277
-0.0149953
-0.0157435
-0.0164967
-0.0172199
-0.0178579
-0.0183632
-0.0187003
-0.0188502
-0.018809
-0.0185684
-0.0181391
-0.017534
-0.0167869
-0.0159347
-0.0150065
-0.0140368
-0.0130666
-0.0121427
-0.0113179
-0.0106093
-0.01
-0.00941147
-0.00929074
-0.00913433
-0.00909229
-0.00925814
-0.00953552
-0.00983132
-0.0101735
-0.0105379
-0.0108715
-0.0111356
-0.0112972
-0.0113498
-0.0112813
-0.0110905
-0.0107813
-0.0103615
-0.0098643
-0.00931026
-0.00871147
-0.00808374
-0.00744056
-0.00684125
-0.00636696
-0.00595167
-0.00560779
-0.0054425
-0.0051037
-0.00505416
-0.00515137
-0.00525488
-0.00537393
-0.00548843
-0.00554072
-0.00550683
-0.00536864
-0.00508915
-0.00463273
-0.0039893
-0.00314898
-0.00202584
-0.000841536
-0.00136333
-0.000557506
0.0264636
0.0281029
0.0295754
0.0308562
0.0319235
0.0327577
0.0333419
0.0336615
0.0337035
0.0334528
0.0328844
0.0320912
0.0310185
0.0296773
0.0280862
0.0262683
0.024251
0.0220662
0.0197498
0.0173408
0.0148799
0.0124098
0.00997578
0.00762408
0.00539946
0.00334615
0.0015063
-8.17431e-05
-0.00138367
-0.0023753
-0.00303246
-0.00332936
-0.00332477
-0.00298978
-0.00233128
-0.00136747
-0.000123919
0.00136895
0.00307652
0.00496084
0.00698201
0.0090993
0.0112724
0.0134616
0.0156296
0.017742
0.0197671
0.0216774
0.0234495
0.0250633
0.0265024
0.0277533
0.0288057
0.0296519
0.0302867
0.030707
0.0309104
0.0308912
0.0306358
0.0302111
0.0295888
0.0287708
0.0277654
0.0265821
0.0252322
0.0237284
0.0220858
0.0203216
0.0184553
0.0165079
0.0145033
0.0124675
0.0104287
0.00841667
0.00646257
0.00459906
0.00285934
0.00127548
-0.000121539
-0.00130241
-0.00223884
-0.00290566
-0.00327684
-0.0034098
-0.00326633
-0.00284598
-0.0021602
-0.00122775
-7.1935e-05
0.00128011
0.00279806
0.00444917
0.00619934
0.00801425
0.00986002
0.0117035
0.0135131
0.0152603
0.0169201
0.0184705
0.0198931
0.0211726
0.0222973
0.0232584
0.0240497
0.0246677
0.0251106
0.0253768
0.0254628
0.0253701
0.0251369
0.0247521
0.0242202
0.0235502
0.0227513
0.0218333
0.0208059
0.0196789
0.0184629
0.0171691
0.0158103
0.0144013
0.0129588
0.0115009
0.0100469
0.00861683
0.00723132
0.00591105
0.00467667
0.00354829
0.00254542
0.00168727
0.000990186
0.00045884
0.000119702
-6.73279e-05
-4.60555e-05
0.0264974
0.0281697
0.0296744
0.0309867
0.0320845
0.0329479
0.0335599
0.0339059
0.0339739
0.0337559
0.0332634
0.0324422
0.0313507
0.0299892
0.0283738
0.0265284
0.0244794
0.0222584
0.019903
0.0174529
0.0149485
0.012433
0.00995119
0.00754816
0.00527079
0.0031658
0.00127905
-0.000347519
-0.00168502
-0.00270793
-0.0033992
-0.00375892
-0.00374919
-0.0034001
-0.00272301
-0.00173705
-0.00046716
0.00105621
0.00279786
0.0047192
0.00677923
0.00893579
0.0111485
0.013377
0.0155818
0.0177277
0.0197838
0.0217228
0.0235213
0.025159
0.0266196
0.0278898
0.0289592
0.0298204
0.0304682
0.0308994
0.0311113
0.031108
0.0309055
0.0304661
0.029832
0.0290063
0.0279933
0.0268012
0.0254403
0.0239231
0.0222644
0.0204818
0.0185947
0.016624
0.014593
0.0125285
0.0104587
0.00841344
0.00642419
0.00452363
0.00274522
0.00112276
-0.000310602
-0.00152294
-0.0024894
-0.00319239
-0.00363729
-0.00376179
-0.00360625
-0.0031725
-0.00247085
-0.00151899
-0.000340039
0.00103857
0.00258594
0.00426851
0.00605126
0.00789983
0.00977919
0.0116546
0.0134944
0.0152699
0.016956
0.0185304
0.0199745
0.0212729
0.0224138
0.0233885
0.0241913
0.0248182
0.0252662
0.0255358
0.0256315
0.0255665
0.0253262
0.024933
0.0243938
0.0237163
0.0229098
0.0219836
0.0209475
0.0198112
0.0185847
0.0172788
0.0159056
0.0144798
0.0130188
0.0115409
0.0100654
0.00861242
0.00720303
0.00585841
0.00459962
0.00344769
0.00242487
0.00154964
0.000844009
0.000286946
-6.26496e-05
-0.000240666
-9.88464e-05
0.0265951
0.028306
0.0298464
0.0311914
0.0323191
0.0332094
0.0338448
0.0342104
0.0342951
0.0340898
0.0335893
0.0327765
0.0316852
0.0303167
0.0286868
0.0268166
0.0247331
0.0224694
0.0200665
0.0175662
0.0150075
0.0124331
0.0098894
0.00742322
0.00508345
0.00291952
0.000977251
-0.000702155
-0.00208189
-0.00314515
-0.00385826
-0.00422082
-0.00422409
-0.00387491
-0.00318589
-0.00217752
-0.000876306
0.000685889
0.00247226
0.00444271
0.00655508
0.00876532
0.0110313
0.0133116
0.0155647
0.0177543
0.0198492
0.0218224
0.0236503
0.0253128
0.0267938
0.0280805
0.0291628
0.030033
0.0306866
0.0311203
0.0313327
0.0313272
0.0311107
0.0306842
0.0300562
0.0292334
0.0282212
0.027027
0.0256605
0.0241342
0.0224627
0.0206635
0.0187558
0.0167606
0.0147003
0.0126012
0.0104931
0.00840586
0.00637095
0.00442247
0.00259604
0.000927187
-0.000549529
-0.00180202
-0.00280596
-0.00354272
-0.00399314
-0.00414164
-0.00399585
-0.00356099
-0.00284879
-0.00187803
-0.000672952
0.000738065
0.00232308
0.00404738
0.00587444
0.00776825
0.00969293
0.0116123
0.0134931
0.0153058
0.0170252
0.0186289
0.0200979
0.0214169
0.0225743
0.0235616
0.0243732
0.0250051
0.0254548
0.0257239
0.0258211
0.0257516
0.0255147
0.0251203
0.0245778
0.0238967
0.0230861
0.0221556
0.0211145
0.019972
0.0187372
0.0174201
0.0160315
0.0145861
0.0131026
0.0116
0.0100976
0.00861577
0.00717601
0.00580074
0.00451215
0.0033322
0.00228242
0.00137824
0.000637515
9.14181e-05
-0.000235235
-0.0003806
-0.0001478
0.0266081
0.0283319
0.0298847
0.0312443
0.0323917
0.0333084
0.0339745
0.034373
0.0344912
0.0343155
0.0338367
0.033054
0.0319737
0.0306112
0.0289795
0.0271015
0.0250021
0.0227104
0.0202711
0.0177284
0.0151208
0.0124931
0.00989176
0.00736372
0.00495696
0.00272366
0.000713417
-0.00103066
-0.00247284
-0.00357269
-0.00432088
-0.0047044
-0.00471804
-0.00436884
-0.00367048
-0.00264391
-0.00131637
0.000279425
0.0021049
0.00411914
0.00628033
0.00854287
0.0108587
0.0131866
0.0154842
0.0177127
0.0198412
0.021844
0.0236973
0.0253809
0.0268795
0.0281809
0.0292749
0.0301541
0.0308139
0.0312522
0.0314688
0.0314653
0.0312542
0.0308389
0.0302228
0.0294103
0.0284078
0.027222
0.0258613
0.0243376
0.0226651
0.0208619
0.0189465
0.0169385
0.0148611
0.0127404
0.0106048
0.00848295
0.00640577
0.00440983
0.00253343
0.000813955
-0.000713579
-0.00201621
-0.00306683
-0.00384401
-0.00432625
-0.0045031
-0.00437384
-0.00394601
-0.00323244
-0.00225207
-0.00103098
0.000401752
0.00201389
0.00377052
0.00563485
0.00756753
0.00953075
0.011489
0.0134067
0.0152534
0.0170044
0.0186374
0.0201326
0.0214748
0.0226525
0.0236571
0.0244825
0.0251255
0.0255856
0.0258651
0.02597
0.0259044
0.0256745
0.0252876
0.0247513
0.0240749
0.0232685
0.0223419
0.0213041
0.0201644
0.0189308
0.0176111
0.0162153
0.014758
0.0132582
0.0117356
0.0102093
0.00870007
0.00723053
0.00582444
0.00450448
0.00329265
0.00221269
0.0012836
0.000528618
-3.61122e-05
-0.000366323
-0.00047948
-0.000208393
0.0264626
0.0281659
0.0296986
0.0310438
0.0321794
0.0330911
0.0337577
0.0341648
0.0343008
0.0341518
0.0337078
0.0329655
0.0319287
0.030607
0.0290176
0.0271828
0.0251185
0.0228469
0.0204349
0.0179301
0.0153427
0.0127127
0.0100942
0.00753863
0.00508947
0.00280638
0.00074607
-0.00104733
-0.00253534
-0.00368484
-0.00447838
-0.00490191
-0.00495312
-0.00463374
-0.00395772
-0.00294535
-0.00162226
-2.04203e-05
0.00181517
0.0038419
0.00602032
0.0083012
0.0106304
0.0129799
0.0152967
0.0175376
0.0196765
0.0216899
0.0235502
0.0252355
0.026732
0.0280304
0.0291221
0.0300004
0.030662
0.0311065
0.0313318
0.0313369
0.0311435
0.0307486
0.0301602
0.0293816
0.0284155
0.027266
0.0259424
0.0244576
0.0228233
0.0210569
0.0191724
0.0171873
0.0151261
0.0130109
0.010871
0.0087369
0.00663647
0.0046071
0.0026918
0.000929392
-0.000645813
-0.00199747
-0.00309231
-0.00390984
-0.00443324
-0.0046494
-0.00455475
-0.00415779
-0.0034723
-0.00251532
-0.00130907
0.000117945
0.00173186
0.00349464
0.00537003
0.0073166
0.00929575
0.0112723
0.0132086
0.0150732
0.0168425
0.0184931
0.0200028
0.021357
0.0225457
0.0235611
0.0243975
0.0250525
0.0255283
0.0258242
0.0259443
0.0258952
0.0256842
0.025318
0.0248033
0.02415
0.0233704
0.0224742
0.0214682
0.0203614
0.0191582
0.0178604
0.0164782
0.0150256
0.0135242
0.0119982
0.0104635
0.00893755
0.00744583
0.00601429
0.00466703
0.00342727
0.00231906
0.00136536
0.000590364
7.68887e-06
-0.000344377
-0.00045941
-0.000243558
0.0261109
0.027747
0.029213
0.0304966
0.0315851
0.0324884
0.033157
0.0335825
0.0337537
0.0336512
0.0332649
0.0325943
0.0316329
0.0303959
0.0288862
0.0271221
0.025116
0.0229149
0.0205624
0.0180854
0.0155341
0.012949
0.0103848
0.00785737
0.00541276
0.00312707
0.00105797
-0.000758479
-0.0022798
-0.00347141
-0.0043127
-0.00478835
-0.0048999
-0.00462679
-0.00399137
-0.00301966
-0.0017434
-0.000192336
0.00159631
0.00358081
0.00574083
0.00801503
0.0103012
0.0126436
0.0149527
0.0171705
0.0192917
0.0212927
0.0231393
0.0248128
0.0263032
0.0276015
0.0286964
0.0295775
0.030243
0.0306987
0.0309397
0.0309761
0.0308027
0.0304429
0.0298991
0.0291736
0.0282665
0.027176
0.025907
0.0244714
0.0228758
0.0211647
0.0193353
0.0173904
0.0153727
0.0132966
0.0111941
0.00909149
0.00700461
0.00497924
0.00306088
0.00128883
-0.000306937
-0.00168818
-0.00282052
-0.00367882
-0.00424633
-0.00451152
-0.00446837
-0.00412038
-0.00348034
-0.00256827
-0.00141014
-3.80091e-05
0.00151915
0.00323881
0.00509096
0.00701898
0.00898215
0.0109484
0.0128691
0.0147194
0.0164861
0.0181383
0.0196516
0.021015
0.0222189
0.0232521
0.0241052
0.0247753
0.0252763
0.0255929
0.025737
0.0257183
0.0255446
0.0252211
0.0247515
0.0241415
0.0234055
0.0225523
0.0215832
0.0205112
0.0193587
0.0180996
0.0167475
0.0153168
0.0138339
0.0123332
0.0108154
0.00929608
0.00780552
0.00637285
0.00502092
0.00376813
0.00263785
0.00166338
0.000860277
0.000254974
-0.000143116
-0.00029815
-0.00026507
0.0254685
0.0270046
0.0283878
0.0295996
0.0306181
0.0314524
0.0321104
0.0325616
0.0327804
0.0327494
0.0324593
0.0319089
0.0310174
0.029861
0.0284483
0.0268691
0.0250263
0.0229642
0.0207314
0.0183634
0.0159021
0.0133665
0.0109027
0.00841797
0.00594903
0.00364737
0.00158671
-0.000249581
-0.00180778
-0.00303625
-0.00391538
-0.00443168
-0.00459101
-0.0043848
-0.00381316
-0.00290892
-0.00169744
-0.000198781
0.00154409
0.00346302
0.00554278
0.00771729
0.0099565
0.012214
0.0144581
0.0165929
0.0186751
0.0206631
0.0224815
0.0241104
0.025557
0.0268254
0.0278981
0.0287626
0.0294267
0.0298966
0.0301716
0.0302511
0.0301369
0.0298379
0.0293684
0.0287297
0.0279019
0.0268695
0.0256748
0.0243888
0.0229259
0.0212999
0.0195525
0.0177109
0.0157853
0.013745
0.0116818
0.00963875
0.0075554
0.00551741
0.00359353
0.00182718
0.000219074
-0.001183
-0.00233913
-0.00322931
-0.00383478
-0.00414623
-0.00415906
-0.00387495
-0.00330337
-0.00246267
-0.00137204
-5.56636e-05
0.00144529
0.00310664
0.00487268
0.00671976
0.00861776
0.0105304
0.0123945
0.0142031
0.0159647
0.0176038
0.0190939
0.0204369
0.0216301
0.0226634
0.0235277
0.0242179
0.024744
0.0251069
0.0253013
0.0253365
0.0252162
0.0249474
0.024529
0.0239568
0.0232777
0.0225194
0.0216636
0.0206835
0.019592
0.0183988
0.0171062
0.0157128
0.0142458
0.0128025
0.0113181
0.00979506
0.00829666
0.00686831
0.00551927
0.00425752
0.00311283
0.00213041
0.00130043
0.000684022
0.000194863
6.62049e-06
-0.000339136
0.0247368
0.0261742
0.0274537
0.0285729
0.0295231
0.0302753
0.030891
0.0313376
0.0315546
0.0315305
0.0312622
0.0307431
0.0300383
0.0290417
0.0277593
0.0262748
0.0245964
0.0226697
0.0205617
0.0182824
0.015945
0.0136853
0.0113487
0.00894572
0.00658665
0.00430842
0.0023593
0.000510239
-0.0010999
-0.00234389
-0.00327681
-0.00387457
-0.00411143
-0.00398625
-0.0034967
-0.00267311
-0.00153808
-0.000113956
0.00156679
0.00341715
0.00537657
0.00745322
0.00968643
0.0119412
0.0140797
0.0160895
0.0180445
0.0199166
0.0216599
0.0232416
0.0246651
0.0259476
0.0270064
0.0278331
0.0284879
0.0289554
0.0292336
0.0293305
0.0292561
0.0290177
0.0286221
0.0280609
0.0273185
0.0263998
0.0252957
0.0240561
0.0227011
0.0211912
0.0195392
0.0177736
0.0159373
0.0140631
0.0121318
0.0101221
0.00813523
0.00617111
0.00427329
0.00258625
0.000963164
-0.000475243
-0.00164089
-0.00256854
-0.00323563
-0.00361933
-0.00370185
-0.00348615
-0.00298934
-0.00222773
-0.00121733
2.36405e-05
0.00145044
0.00301816
0.00469362
0.00648291
0.0083753
0.0102041
0.0119676
0.0136982
0.015372
0.0169513
0.018391
0.0197318
0.0209476
0.0219835
0.0228358
0.0235334
0.0240615
0.0244372
0.0246664
0.0247569
0.0247038
0.0245078
0.024174
0.0236923
0.0230741
0.0223515
0.0215424
0.0206636
0.0196977
0.0186115
0.0173408
0.0159581
0.014625
0.0132352
0.011806
0.010364
0.00888469
0.00750476
0.0062032
0.00492248
0.00375392
0.00277615
0.00189645
0.00126219
0.000602718
0.000442862
-0.000542349
0.0239169
0.0252212
0.0263822
0.0274061
0.0282697
0.0289108
0.0294999
0.0300371
0.0303358
0.0303878
0.0302085
0.0297944
0.0291524
0.0282691
0.0271329
0.0256831
0.0240074
0.022166
0.0202289
0.0181374
0.0160009
0.013937
0.0115513
0.00892423
0.00661867
0.00462979
0.00276105
0.0010013
-0.000570584
-0.00168114
-0.00262915
-0.00322944
-0.00347041
-0.00335249
-0.00291252
-0.00217367
-0.00112207
0.000203058
0.00176952
0.00354935
0.00543821
0.00743381
0.00952595
0.0116609
0.0137171
0.0157026
0.0175687
0.0194028
0.021094
0.0225314
0.0238104
0.0249903
0.025985
0.0267576
0.0274225
0.0279164
0.0281899
0.0283043
0.0282523
0.0280524
0.0277733
0.0273639
0.0267525
0.0259591
0.024971
0.0237319
0.0223801
0.0209758
0.019455
0.0177844
0.0161137
0.0144
0.0124681
0.0103679
0.00835644
0.00647728
0.00473779
0.00309323
0.00156073
0.000141752
-0.000917844
-0.00185958
-0.00255013
-0.00294553
-0.00305725
-0.0028958
-0.0024813
-0.00180675
-0.000882466
0.000258089
0.00159638
0.00307746
0.0046739
0.00636534
0.008146
0.00990888
0.0116191
0.0132985
0.0149707
0.0165097
0.0178321
0.0190541
0.020186
0.0211825
0.0220327
0.022763
0.023325
0.0237182
0.0239826
0.0241128
0.0241069
0.0239709
0.0237115
0.0233335
0.0228197
0.0221744
0.0214078
0.0205871
0.0197151
0.0186911
0.017492
0.0162025
0.0149285
0.0135976
0.0121822
0.0107317
0.00932655
0.00801291
0.00674685
0.0055331
0.00436631
0.0034464
0.00256838
0.00195801
0.0011158
0.00101139
-0.000729762
0.0233103
0.0245599
0.0255933
0.0264755
0.0272712
0.0279372
0.0284497
0.028817
0.0290197
0.0290359
0.0288618
0.0284884
0.0279069
0.0271054
0.0260738
0.0248034
0.0233082
0.0216007
0.0196986
0.0176025
0.015602
0.014106
0.0118898
0.00891943
0.00663175
0.00484859
0.00272931
0.000895935
-0.000384603
-0.0014425
-0.0023381
-0.0028237
-0.00303756
-0.00290726
-0.00244045
-0.00165772
-0.0005789
0.00071894
0.00221399
0.00390829
0.00572734
0.00763543
0.00960019
0.0115858
0.0135811
0.0155147
0.0173327
0.019055
0.0206187
0.0219686
0.0231481
0.0242452
0.025215
0.0259332
0.0265002
0.026947
0.0272182
0.0273608
0.0273541
0.0272012
0.0269179
0.0264924
0.0259104
0.0251745
0.0242799
0.0232186
0.0220139
0.0206455
0.0191025
0.0174623
0.0161932
0.014909
0.0127646
0.0104122
0.00848463
0.00680818
0.00513339
0.00328402
0.0017475
0.000522552
-0.000504226
-0.00138672
-0.00203319
-0.00240235
-0.00252255
-0.00236953
-0.00195346
-0.00127919
-0.000386424
0.000685728
0.00194116
0.00335213
0.00486943
0.00646476
0.00811004
0.00981452
0.0114803
0.0130845
0.0146463
0.0160969
0.0173934
0.0185433
0.0196582
0.0206326
0.0213913
0.0220472
0.0226104
0.0229954
0.0232821
0.0234421
0.0234726
0.0233808
0.0231677
0.0228327
0.0223725
0.0217661
0.0209968
0.0203482
0.0198727
0.0189894
0.0176619
0.0162897
0.014967
0.0137267
0.0124246
0.0110898
0.00979181
0.0084711
0.00711324
0.00588689
0.00483686
0.00392385
0.00306498
0.00242384
0.00154913
0.0014745
-0.000683693
0.0228875
0.0239545
0.0248797
0.0256915
0.0264239
0.0269727
0.0273808
0.0277096
0.0278993
0.0279288
0.0277848
0.0274524
0.0269182
0.0261691
0.0251934
0.0239857
0.0225547
0.0209212
0.0191047
0.0171001
0.0150043
0.0129849
0.0107945
0.00844289
0.00620235
0.00441269
0.0026388
0.0007608
-0.00062045
-0.00188242
-0.00258305
-0.00293063
-0.00303577
-0.00279984
-0.00222501
-0.00135143
-0.000227961
0.00111834
0.00267896
0.00437805
0.00616263
0.00803827
0.00994921
0.0118612
0.0137378
0.0155438
0.0172384
0.0188158
0.0202911
0.0216125
0.0227602
0.0237215
0.0245299
0.0251954
0.0257387
0.0261599
0.0264061
0.026534
0.0265298
0.0263973
0.0261434
0.025761
0.0252367
0.0245617
0.0237294
0.0227376
0.0215977
0.0203206
0.0189121
0.0173681
0.0157433
0.0141124
0.0122633
0.0103495
0.00848035
0.00673811
0.00509916
0.00339056
0.00184846
0.000636868
-0.00056441
-0.00136277
-0.00183905
-0.00215116
-0.00222202
-0.00201953
-0.00156321
-0.000876558
1.80788e-05
0.0011085
0.0023776
0.00375327
0.00521117
0.00676031
0.00834943
0.00995088
0.0115203
0.0130297
0.0144626
0.0158427
0.0171235
0.018255
0.0192741
0.0201548
0.0208747
0.0215168
0.0220558
0.0224255
0.0227058
0.0228736
0.0229228
0.02286
0.0226873
0.0224049
0.022013
0.0215092
0.0208925
0.0202023
0.0194345
0.0184953
0.0174015
0.0162511
0.0150731
0.013839
0.0125464
0.0112474
0.00995212
0.00863962
0.00736461
0.00620403
0.00518522
0.00410855
0.00325114
0.0026698
0.00180823
0.0016353
-0.000409003
0.0226098
0.0235251
0.0243494
0.0250613
0.0256814
0.0261928
0.0265747
0.0268096
0.0269272
0.0269136
0.0267468
0.0264101
0.0258864
0.0251586
0.0242133
0.0230439
0.0216524
0.0200509
0.0182597
0.0163077
0.0142523
0.0121544
0.00996698
0.00767908
0.00543377
0.00335755
0.00155324
-0.000161954
-0.0014103
-0.0023925
-0.00324403
-0.00376411
-0.0036677
-0.00320652
-0.00247532
-0.00145968
-0.000218526
0.00124579
0.00288934
0.00466129
0.00653674
0.00843886
0.0103248
0.0122032
0.0140357
0.0157768
0.0174027
0.0188998
0.0202603
0.0214624
0.0224958
0.0233598
0.0240789
0.0246783
0.0251533
0.0255355
0.0258075
0.0259004
0.0258591
0.0257111
0.0254505
0.0250685
0.0245558
0.0239036
0.0231047
0.0221547
0.0210549
0.0198103
0.0184314
0.0169398
0.0153623
0.0136938
0.0118913
0.0100114
0.00812869
0.00630701
0.00461784
0.00304733
0.00155223
0.000255849
-0.000861294
-0.00165526
-0.00215268
-0.00237857
-0.00231958
-0.00204346
-0.00150031
-0.000727436
0.000241471
0.00138732
0.00268084
0.0040876
0.00559393
0.00713284
0.00867532
0.010229
0.0117503
0.0132063
0.0145806
0.0158679
0.0170453
0.0180907
0.0190071
0.0198348
0.0205492
0.0211413
0.0216304
0.0220421
0.0222808
0.0224192
0.0224637
0.0224055
0.0222454
0.021982
0.0216131
0.0211372
0.0205612
0.0199052
0.019165
0.0182918
0.0172685
0.0161378
0.014941
0.013704
0.0124352
0.0111476
0.00989426
0.00862195
0.00738007
0.00622794
0.00515805
0.00415869
0.0032997
0.00262985
0.00184528
0.00154819
-0.000109194
0.0224582
0.0232519
0.0239302
0.0245191
0.0250659
0.0255402
0.0258407
0.0259894
0.0260462
0.0259913
0.0257971
0.0254433
0.0249085
0.0241725
0.0232198
0.0220417
0.0206379
0.019018
0.0171994
0.015207
0.0130786
0.0108795
0.00863473
0.00635943
0.00414813
0.00209557
0.000245849
-0.00142562
-0.00283868
-0.00381986
-0.00442937
-0.0047711
-0.00482421
-0.0043933
-0.00331721
-0.00200885
-0.000647385
0.000966703
0.00276348
0.00467171
0.00664986
0.00865162
0.0106313
0.0125357
0.0143515
0.0160594
0.0176369
0.0190711
0.0203533
0.0214724
0.0224233
0.0232097
0.0238448
0.0243464
0.0247427
0.0250826
0.025331
0.0253839
0.0253045
0.0251313
0.0248574
0.0244701
0.0239592
0.0233135
0.0225235
0.0215825
0.0204889
0.0192448
0.0178558
0.0163337
0.0146958
0.0129545
0.0111364
0.00927372
0.007411
0.00560396
0.00389398
0.00229363
0.000826623
-0.000449101
-0.00151492
-0.0023268
-0.00283384
-0.00303518
-0.00290734
-0.00247367
-0.00180387
-0.000940754
0.000130568
0.00138011
0.00276664
0.00425482
0.0058122
0.00740356
0.00899621
0.0105454
0.0120373
0.0134566
0.0147876
0.0160188
0.0171356
0.0181267
0.0189934
0.0197451
0.0203802
0.0209131
0.0213788
0.0217683
0.0219915
0.0221004
0.0221263
0.0220596
0.0218979
0.0216399
0.0212821
0.0208216
0.0202573
0.0195906
0.0188167
0.0179237
0.0169151
0.0158137
0.0146395
0.0134094
0.0121457
0.010873
0.00960622
0.0083529
0.00714028
0.00600995
0.00495334
0.00400449
0.00312672
0.00241621
0.00171793
0.00133584
8.73228e-05
0.0223311
0.0230111
0.0235792
0.0240831
0.0245632
0.0249646
0.0251671
0.0252343
0.0252268
0.0251155
0.0248729
0.024476
0.0238999
0.0231221
0.0221246
0.0208969
0.0194374
0.0177545
0.0158664
0.0137995
0.0115901
0.00930205
0.00697476
0.00464165
0.00238021
0.000276319
-0.00161786
-0.00327138
-0.00463995
-0.00566545
-0.00615818
-0.00634782
-0.0065195
-0.00587392
-0.0045326
-0.00318755
-0.00163179
0.000188846
0.00217578
0.00426722
0.00641322
0.00856046
0.0106634
0.012684
0.0145684
0.0162965
0.0178712
0.0192792
0.0205117
0.021567
0.0224472
0.0231603
0.0237218
0.0241551
0.0244979
0.0247885
0.0249888
0.0250026
0.0248727
0.0246561
0.0243476
0.0239304
0.0233929
0.0227225
0.0219077
0.0209403
0.0198161
0.0185363
0.017107
0.0155404
0.0138517
0.0120561
0.0101864
0.00827806
0.00637204
0.00451816
0.00276398
0.00113958
-0.000322786
-0.00158742
-0.0026345
-0.00341534
-0.00375082
-0.00392521
-0.00401051
-0.00342158
-0.00244989
-0.00149486
-0.000320072
0.0010547
0.00256137
0.00416397
0.00582445
0.00750316
0.00916662
0.0107858
0.0123145
0.0137357
0.0150524
0.0162529
0.0173273
0.0182712
0.0190874
0.0197835
0.0203683
0.0208596
0.0212849
0.0216372
0.0218523
0.0219144
0.0218983
0.0218051
0.0216219
0.0213452
0.0209709
0.0204946
0.0199139
0.0192278
0.0184337
0.0175269
0.0165095
0.0153947
0.0142003
0.012945
0.0116597
0.0103692
0.00908954
0.00783911
0.00663953
0.00552926
0.00449427
0.00358538
0.00272352
0.00209743
0.00149274
0.00111595
0.000141104
0.0221667
0.0227599
0.0232544
0.0237035
0.0241155
0.0244031
0.0244952
0.0244993
0.0244327
0.0242622
0.0239609
0.0235018
0.022857
0.0220019
0.0209177
0.0195937
0.0180286
0.016231
0.0142203
0.0120266
0.00968977
0.00726562
0.00481594
0.00239075
5.7043e-05
-0.00210505
-0.0040362
-0.00569322
-0.00703673
-0.00801486
-0.00844134
-0.00859749
-0.00855321
-0.00775502
-0.00644142
-0.00487352
-0.00307081
-0.00105363
0.00113896
0.00343978
0.0057854
0.00811787
0.0103851
0.0125441
0.0145533
0.0163698
0.0179829
0.0194061
0.0206339
0.0216657
0.022508
0.0231737
0.0236833
0.0240686
0.024372
0.0246138
0.0247475
0.0247073
0.0245289
0.0242668
0.0239135
0.0234519
0.0228687
0.02215
0.0212826
0.020257
0.0190681
0.0177159
0.0162062
0.0145512
0.0127686
0.0108815
0.00892135
0.00693292
0.00496112
0.00304772
0.00124069
-0.000418932
-0.00189518
-0.00315718
-0.00417968
-0.00491686
-0.00517977
-0.00532264
-0.00531737
-0.00462282
-0.00360679
-0.00248112
-0.00115845
0.000358382
0.00201241
0.00375943
0.00555659
0.00736117
0.00913459
0.0108442
0.0124583
0.0139401
0.0152799
0.0164874
0.017556
0.0184825
0.0192714
0.0199327
0.0204809
0.0209385
0.0213246
0.0216288
0.02181
0.0218449
0.0217798
0.0216445
0.0214242
0.0211113
0.0207014