/*--------------------------------*- C++ -*----------------------------------*\
| =========                 |                                                 |
| \\      /  F ield         | OpenFOAM: The Open Source CFD Toolbox           |
|  \\    /   O peration     | Version:  2206                                  |
|   \\  /    A nd           | Website:  www.openfoam.com                      |
|    \\/     M anipulation  |                                                 |
\*---------------------------------------------------------------------------*/
FoamFile
{
    version     2.0;
    format      ascii;
    arch        "LSB;label=32;scalar=64";
    class       volVectorField;
    location    "19.4001";
    object      U_0;
}
// * * * * * * * * * * * * * * * * * * * * * * * * * * * * * * * * * * * * * //

dimensions      [0 1 -1 0 0 0 0];

internalField   nonuniform List<vector> 
3080
(
(0.150492 -0.215796 0)
(0.333014 -0.251302 0)
(0.572768 -0.20051 0)
(0.824967 -0.0636711 0)
(1.07962 0.152605 0)
(1.29295 0.399644 0)
(1.42943 0.617156 0)
(1.49784 0.777103 0)
(1.51917 0.882171 0)
(1.50966 0.938162 0)
(1.47532 0.959996 0)
(1.42115 0.94689 0)
(1.355 0.90514 0)
(1.2851 0.841035 0)
(1.21893 0.758059 0)
(1.14842 0.667398 0)
(1.0457 0.595585 0)
(0.896076 0.558424 0)
(0.749618 0.524568 0)
(0.663873 0.44246 0)
(0.656775 0.302636 0)
(0.714145 0.122389 0)
(0.814801 -0.0678954 0)
(0.923756 -0.241881 0)
(1.03066 -0.391373 0)
(1.12894 -0.514673 0)
(1.2139 -0.613035 0)
(1.28338 -0.690398 0)
(1.33759 -0.752141 0)
(1.37853 -0.803007 0)
(1.40962 -0.844263 0)
(1.43618 -0.872292 0)
(1.46795 -0.876299 0)
(1.51389 -0.839123 0)
(1.57993 -0.747718 0)
(1.66382 -0.599681 0)
(1.76112 -0.404939 0)
(1.86194 -0.186483 0)
(1.95197 0.0248235 0)
(2.02367 0.210482 0)
(2.07399 0.360813 0)
(2.10295 0.473496 0)
(2.1131 0.551187 0)
(2.10851 0.599381 0)
(2.09139 0.624469 0)
(2.06387 0.629737 0)
(2.03021 0.621362 0)
(1.99294 0.605703 0)
(1.95409 0.586665 0)
(1.91466 0.566681 0)
(1.87503 0.547145 0)
(1.83506 0.52892 0)
(1.79412 0.513099 0)
(1.75117 0.501114 0)
(1.7052 0.493912 0)
(1.65616 0.490531 0)
(1.60561 0.487037 0)
(1.55647 0.476954 0)
(1.51217 0.453022 0)
(1.47607 0.409684 0)
(1.45015 0.345005 0)
(1.4353 0.261058 0)
(1.43127 0.162896 0)
(1.43702 0.0573837 0)
(1.45069 -0.0478846 0)
(1.4704 -0.147632 0)
(1.49455 -0.238549 0)
(1.52147 -0.318524 0)
(1.54958 -0.386673 0)
(1.57746 -0.44315 0)
(1.604 -0.488964 0)
(1.62848 -0.525601 0)
(1.65053 -0.554624 0)
(1.67013 -0.577342 0)
(1.6874 -0.594664 0)
(1.70246 -0.607032 0)
(1.71592 -0.614155 0)
(1.72931 -0.613964 0)
(1.74304 -0.602919 0)
(1.75754 -0.578203 0)
(1.77279 -0.538079 0)
(1.78891 -0.481601 0)
(1.80581 -0.408871 0)
(1.82321 -0.321313 0)
(1.84074 -0.221785 0)
(1.85782 -0.114727 0)
(1.87335 -0.00683891 0)
(1.88638 0.0964728 0)
(1.89632 0.191456 0)
(1.90268 0.27531 0)
(1.90518 0.346282 0)
(1.90373 0.403633 0)
(1.89845 0.447491 0)
(1.88967 0.478637 0)
(1.87733 0.498233 0)
(1.86052 0.507134 0)
(1.83971 0.506634 0)
(1.81519 0.499687 0)
(1.78764 0.488654 0)
(1.75796 0.474989 0)
(1.72717 0.459042 0)
(1.69632 0.440106 0)
(1.66642 0.416793 0)
(1.63831 0.387574 0)
(1.61261 0.351266 0)
(1.58985 0.307294 0)
(1.57047 0.255753 0)
(1.5549 0.197336 0)
(1.54348 0.133247 0)
(1.5365 0.0651039 0)
(1.53403 -0.00507639 0)
(1.53592 -0.074879 0)
(1.54183 -0.142436 0)
(1.55127 -0.20611 0)
(0.0745299 -0.403976 0)
(0.210453 -0.437482 0)
(0.361038 -0.391926 0)
(0.51243 -0.276678 0)
(0.681848 -0.0736763 0)
(0.87282 0.209781 0)
(1.03391 0.491515 0)
(1.13746 0.708545 0)
(1.19534 0.85687 0)
(1.21844 0.946469 0)
(1.21607 0.99222 0)
(1.19265 0.994736 0)
(1.15292 0.963394 0)
(1.10051 0.899775 0)
(1.02601 0.827094 0)
(0.907691 0.776036 0)
(0.750243 0.751249 0)
(0.616976 0.707986 0)
(0.550922 0.605279 0)
(0.558489 0.442887 0)
(0.6311 0.235738 0)
(0.744466 0.0167133 0)
(0.86738 -0.184716 0)
(0.987409 -0.357031 0)
(1.09803 -0.496956 0)
(1.19416 -0.605466 0)
(1.27318 -0.686883 0)
(1.33407 -0.747249 0)
(1.37718 -0.793101 0)
(1.40454 -0.830692 0)
(1.41957 -0.862465 0)
(1.42643 -0.885867 0)
(1.43405 -0.895777 0)
(1.45058 -0.881053 0)
(1.48571 -0.80811 0)
(1.54238 -0.677617 0)
(1.61823 -0.495771 0)
(1.70705 -0.27956 0)
(1.79601 -0.0584037 0)
(1.87442 0.143568 0)
(1.93686 0.313376 0)
(1.98096 0.445502 0)
(2.00696 0.540577 0)
(2.01716 0.602974 0)
(2.01528 0.638862 0)
(2.00168 0.654308 0)
(1.97926 0.652851 0)
(1.95068 0.640738 0)
(1.91844 0.623505 0)
(1.88434 0.60438 0)
(1.84917 0.585393 0)
(1.81298 0.568087 0)
(1.77508 0.55405 0)
(1.73452 0.544765 0)
(1.69073 0.54052 0)
(1.64429 0.539055 0)
(1.59725 0.535104 0)
(1.55248 0.521367 0)
(1.5133 0.490663 0)
(1.48235 0.438227 0)
(1.46132 0.363207 0)
(1.45078 0.268583 0)
(1.45038 0.160458 0)
(1.45894 0.0464926 0)
(1.4746 -0.0653818 0)
(1.49558 -0.170106 0)
(1.52025 -0.264301 0)
(1.54691 -0.345895 0)
(1.57397 -0.414154 0)
(1.60008 -0.469488 0)
(1.62419 -0.513241 0)
(1.64555 -0.547261 0)
(1.66381 -0.573488 0)
(1.67903 -0.593522 0)
(1.69153 -0.608387 0)
(1.7015 -0.618668 0)
(1.70917 -0.624438 0)
(1.7162 -0.624118 0)
(1.72313 -0.613795 0)
(1.73063 -0.589589 0)
(1.73901 -0.55039 0)
(1.74856 -0.49493 0)
(1.75941 -0.42312 0)
(1.77145 -0.336238 0)
(1.7845 -0.237005 0)
(1.79823 -0.129685 0)
(1.8118 -0.0204629 0)
(1.82427 0.0848996 0)
(1.83498 0.182578 0)
(1.84329 0.269614 0)
(1.84872 0.344057 0)
(1.85096 0.404974 0)
(1.84991 0.452352 0)
(1.84561 0.486934 0)
(1.83821 0.510004 0)
(1.82712 0.522963 0)
(1.81183 0.526616 0)
(1.79284 0.523082 0)
(1.77058 0.514737 0)
(1.74594 0.502857 0)
(1.71988 0.487662 0)
(1.69343 0.468451 0)
(1.66755 0.443972 0)
(1.64304 0.412872 0)
(1.62053 0.374101 0)
(1.60055 0.327165 0)
(1.58361 0.272204 0)
(1.57016 0.209956 0)
(1.56058 0.141713 0)
(1.55514 0.0692259 0)
(1.55392 -0.00526498 0)
(1.55671 -0.0790934 0)
(1.56311 -0.150256 0)
(1.57263 -0.216986 0)
(0.041417 -0.492333 0)
(0.109242 -0.531492 0)
(0.177834 -0.487888 0)
(0.256001 -0.38359 0)
(0.35984 -0.205357 0)
(0.498284 0.0536101 0)
(0.647739 0.35279 0)
(0.768038 0.609136 0)
(0.85326 0.795548 0)
(0.907635 0.917349 0)
(0.935599 0.981717 0)
(0.94028 1.00435 0)
(0.914247 0.994207 0)
(0.848142 0.965261 0)
(0.734245 0.945398 0)
(0.597497 0.929688 0)
(0.491272 0.878805 0)
(0.446781 0.766164 0)
(0.467168 0.5895 0)
(0.552298 0.361252 0)
(0.679022 0.11611 0)
(0.815804 -0.113209 0)
(0.949754 -0.311905 0)
(1.07307 -0.473898 0)
(1.18053 -0.598774 0)
(1.2698 -0.689881 0)
(1.34 -0.752506 0)
(1.39078 -0.793524 0)
(1.42235 -0.821016 0)
(1.43683 -0.843743 0)
(1.43674 -0.866897 0)
(1.42851 -0.887339 0)
(1.41729 -0.897967 0)
(1.41011 -0.892556 0)
(1.41584 -0.839756 0)
(1.44474 -0.730322 0)
(1.49714 -0.567432 0)
(1.56877 -0.36285 0)
(1.65023 -0.140898 0)
(1.72934 0.0700719 0)
(1.79895 0.254273 0)
(1.85463 0.403248 0)
(1.8945 0.514896 0)
(1.91901 0.591943 0)
(1.93019 0.639772 0)
(1.93089 0.664612 0)
(1.92143 0.67232 0)
(1.90386 0.666585 0)
(1.88036 0.652956 0)
(1.85311 0.635944 0)
(1.82349 0.618489 0)
(1.79179 0.602996 0)
(1.75751 0.591532 0)
(1.72006 0.585392 0)
(1.67943 0.583989 0)
(1.63674 0.583843 0)
(1.59423 0.578652 0)
(1.5547 0.560673 0)
(1.52108 0.523004 0)
(1.49566 0.461685 0)
(1.47975 0.376696 0)
(1.47371 0.272136 0)
(1.47708 0.154819 0)
(1.48852 0.0331789 0)
(1.5061 -0.0844878 0)
(1.52812 -0.193349 0)
(1.55289 -0.28996 0)
(1.57871 -0.372331 0)
(1.60408 -0.439924 0)
(1.62778 -0.493451 0)
(1.64887 -0.534528 0)
(1.66665 -0.565329 0)
(1.68077 -0.588178 0)
(1.69126 -0.605034 0)
(1.69852 -0.616999 0)
(1.70307 -0.624505 0)
(1.70541 -0.628033 0)
(1.70624 -0.627878 0)
(1.7063 -0.617857 0)
(1.70664 -0.59406 0)
(1.70824 -0.556014 0)
(1.71139 -0.501975 0)
(1.71625 -0.431639 0)
(1.72292 -0.346185 0)
(1.73142 -0.248232 0)
(1.74162 -0.141815 0)
(1.75292 -0.0325992 0)
(1.76444 0.0734623 0)
(1.77549 0.172556 0)
(1.78536 0.261644 0)
(1.7934 0.338627 0)
(1.79911 0.402417 0)
(1.80213 0.452835 0)
(1.80223 0.49055 0)
(1.79937 0.516812 0)
(1.79352 0.533144 0)
(1.78384 0.540928 0)
(1.77038 0.541009 0)
(1.75359 0.535514 0)
(1.73415 0.525671 0)
(1.71305 0.511527 0)
(1.69128 0.492389 0)
(1.66977 0.467137 0)
(1.64923 0.434567 0)
(1.6303 0.393735 0)
(1.61355 0.344208 0)
(1.59948 0.286157 0)
(1.58858 0.220397 0)
(1.58121 0.148318 0)
(1.57762 0.0718183 0)
(1.57785 -0.00661221 0)
(1.58165 -0.0840456 0)
(1.58857 -0.158349 0)
(1.59806 -0.22764 0)
(0.00881771 -0.529199 0)
(0.00448631 -0.564602 0)
(0.00541211 -0.521105 0)
(0.021247 -0.431538 0)
(0.0612385 -0.278567 0)
(0.145201 -0.0503505 0)
(0.266214 0.228374 0)
(0.395541 0.496209 0)
(0.503206 0.707786 0)
(0.581091 0.858045 0)
(0.625121 0.954399 0)
(0.63263 1.01755 0)
(0.592908 1.05439 0)
(0.517067 1.07184 0)
(0.432349 1.06633 0)
(0.367753 1.01794 0)
(0.352582 0.91092 0)
(0.3886 0.733753 0)
(0.487072 0.495282 0)
(0.627441 0.229646 0)
(0.779725 -0.0278359 0)
(0.929022 -0.255185 0)
(1.0663 -0.442876 0)
(1.18536 -0.588282 0)
(1.28306 -0.693786 0)
(1.35914 -0.764983 0)
(1.41564 -0.808144 0)
(1.45434 -0.830416 0)
(1.47535 -0.838918 0)
(1.4796 -0.84472 0)
(1.46689 -0.854985 0)
(1.44287 -0.86886 0)
(1.41468 -0.879995 0)
(1.38703 -0.877549 0)
(1.36971 -0.843992 0)
(1.37301 -0.758149 0)
(1.40147 -0.61787 0)
(1.45329 -0.431111 0)
(1.52211 -0.217353 0)
(1.59674 -0.00440696 0)
(1.66827 0.188243 0)
(1.73126 0.349923 0)
(1.78203 0.475961 0)
(1.81918 0.567263 0)
(1.84311 0.627798 0)
(1.85551 0.663153 0)
(1.85856 0.679522 0)
(1.85287 0.681994 0)
(1.83939 0.674395 0)
(1.82021 0.661234 0)
(1.79719 0.646759 0)
(1.77098 0.634136 0)
(1.74135 0.625823 0)
(1.70814 0.622836 0)
(1.67193 0.623753 0)
(1.63422 0.624132 0)
(1.59725 0.616957 0)
(1.56373 0.594304 0)
(1.53631 0.549648 0)
(1.51691 0.479623 0)
(1.5065 0.385257 0)
(1.50525 0.271459 0)
(1.51256 0.145788 0)
(1.5269 0.0175892 0)
(1.54624 -0.104955 0)
(1.56891 -0.216943 0)
(1.59321 -0.314957 0)
(1.61751 -0.397141 0)
(1.64043 -0.463249 0)
(1.66091 -0.51425 0)
(1.67815 -0.552016 0)
(1.69162 -0.579033 0)
(1.70109 -0.597972 0)
(1.70659 -0.611218 0)
(1.70851 -0.620347 0)
(1.70768 -0.625987 0)
(1.70435 -0.627579 0)
(1.69906 -0.62509 0)
(1.69254 -0.614044 0)
(1.6863 -0.591633 0)
(1.68145 -0.555132 0)
(1.67839 -0.502882 0)
(1.67745 -0.434538 0)
(1.6789 -0.351216 0)
(1.68293 -0.255431 0)
(1.68956 -0.150974 0)
(1.69843 -0.043034 0)
(1.70877 0.0624699 0)
(1.71985 0.161754 0)
(1.7309 0.251764 0)
(1.74115 0.330339 0)
(1.74992 0.396252 0)
(1.75664 0.449203 0)
(1.76086 0.489743 0)
(1.76229 0.518997 0)
(1.76092 0.538379 0)
(1.75662 0.54949 0)
(1.74854 0.553485 0)
(1.73731 0.551024 0)
(1.72329 0.543443 0)
(1.70734 0.530559 0)
(1.69051 0.511714 0)
(1.67364 0.485993 0)
(1.65741 0.452305 0)
(1.64245 0.409768 0)
(1.62935 0.357989 0)
(1.61859 0.297192 0)
(1.61063 0.228277 0)
(1.6058 0.152742 0)
(1.60433 0.0726494 0)
(1.60619 -0.0092546 0)
(1.61104 -0.0897661 0)
(1.61842 -0.166645 0)
(1.62776 -0.237895 0)
(0.260986 0.934085 0)
(0.279761 1.03401 0)
(0.276628 1.09754 0)
(0.264796 1.12026 0)
(0.257739 1.10096 0)
(0.274406 1.0181 0)
(0.331361 0.857381 0)
(0.446386 0.625736 0)
(0.602196 0.350557 0)
(0.771757 0.0696483 0)
(0.937225 -0.18557 0)
(1.08838 -0.400421 0)
(1.21829 -0.568682 0)
(1.32331 -0.690971 0)
(1.40299 -0.772819 0)
(1.46 -0.82268 0)
(1.4974 -0.84794 0)
(1.51962 -0.853602 0)
(1.52922 -0.847147 0)
(1.52399 -0.835044 0)
(1.50253 -0.829326 0)
(1.46753 -0.834002 0)
(1.42501 -0.843879 0)
(1.38234 -0.846633 0)
(1.34591 -0.825057 0)
(1.32676 -0.76213 0)
(1.33198 -0.646529 0)
(1.36301 -0.481794 0)
(1.41598 -0.283427 0)
(1.48216 -0.075044 0)
(1.55131 0.119982 0)
(1.61717 0.289484 0)
(1.67514 0.426815 0)
(1.7223 0.530668 0)
(1.75754 0.603362 0)
(1.78133 0.649548 0)
(1.795 0.674901 0)
(1.80024 0.685276 0)
(1.79801 0.685929 0)
(1.78817 0.678369 0)
(1.77253 0.667699 0)
(1.75225 0.658867 0)
(1.72781 0.654371 0)
(1.69967 0.654731 0)
(1.66891 0.65775 0)
(1.63719 0.658303 0)
(1.6067 0.648877 0)
(1.58005 0.621448 0)
(1.55959 0.569809 0)
(1.54682 0.491537 0)
(1.54241 0.388528 0)
(1.54633 0.266366 0)
(1.55775 0.133307 0)
(1.57485 -0.000273816 0)
(1.59564 -0.126455 0)
(1.61844 -0.240356 0)
(1.6416 -0.338619 0)
(1.66359 -0.419597 0)
(1.68328 -0.483402 0)
(1.69985 -0.531261 0)
(1.71271 -0.565333 0)
(1.72155 -0.588361 0)
(1.72635 -0.603126 0)
(1.72709 -0.612267 0)
(1.72344 -0.617858 0)
(1.71616 -0.620415 0)
(1.70642 -0.620149 0)
(1.69486 -0.615916 0)
(1.68227 -0.604746 0)
(1.66999 -0.583109 0)
(1.65907 -0.548133 0)
(1.65012 -0.497936 0)
(1.6437 -0.432056 0)
(1.64022 -0.351502 0)
(1.63997 -0.258647 0)
(1.6431 -0.157074 0)
(1.64944 -0.0515992 0)
(1.65835 0.052201 0)
(1.66911 0.15052 0)
(1.68091 0.240393 0)
(1.69291 0.319616 0)
(1.70427 0.386899 0)
(1.71427 0.441851 0)
(1.72228 0.484831 0)
(1.7278 0.516794 0)
(1.73057 0.539078 0)
(1.73071 0.553044 0)
(1.72813 0.560047 0)
(1.7225 0.56086 0)
(1.71408 0.555584 0)
(1.70333 0.54424 0)
(1.69154 0.526037 0)
(1.67954 0.500186 0)
(1.66795 0.465714 0)
(1.65738 0.421787 0)
(1.64836 0.368072 0)
(1.64132 0.304904 0)
(1.63667 0.233246 0)
(1.63469 0.154702 0)
(1.63555 0.0715169 0)
(1.63912 -0.0132554 0)
(1.64501 -0.0962265 0)
(1.65274 -0.175029 0)
(1.66173 -0.247574 0)
(0.827456 0.0440291 0)
(0.758311 0.0458093 0)
(0.685302 0.0472555 0)
(0.609161 0.0481188 0)
(0.52838 0.0469325 0)
(0.451186 0.0426031 0)
(0.37812 0.0356763 0)
(0.309215 0.0276799 0)
(0.245065 0.019779 0)
(0.186393 0.0123975 0)
(0.13355 0.00574103 0)
(0.0865983 -0.00048493 0)
(1.79167 0.0946053 0)
(1.74838 0.100778 0)
(1.70184 0.106679 0)
(1.65178 0.112033 0)
(1.59867 0.11619 0)
(1.53912 0.118386 0)
(1.47266 0.118648 0)
(1.39939 0.117325 0)
(1.31966 0.114771 0)
(1.23398 0.111203 0)
(1.14286 0.106751 0)
(1.04698 0.101658 0)
(2.12201 0.125594 0)
(2.10067 0.134138 0)
(2.07766 0.142369 0)
(2.05287 0.150069 0)
(2.02601 0.157028 0)
(1.99673 0.163142 0)
(1.96461 0.16839 0)
(1.92905 0.172846 0)
(1.88957 0.176607 0)
(1.84591 0.179756 0)
(1.79787 0.182344 0)
(1.74543 0.184378 0)
(2.22338 0.139393 0)
(2.21132 0.148973 0)
(2.19865 0.158266 0)
(2.18535 0.167195 0)
(2.17133 0.175685 0)
(2.15637 0.183645 0)
(2.14017 0.191007 0)
(2.12235 0.197796 0)
(2.10264 0.204097 0)
(2.08066 0.209976 0)
(2.05638 0.215441 0)
(2.02969 0.220429 0)
(2.25337 0.149465 0)
(2.24427 0.159363 0)
(2.23502 0.168927 0)
(2.22566 0.178155 0)
(2.21616 0.187018 0)
(2.20638 0.195529 0)
(2.19618 0.203676 0)
(2.18535 0.211507 0)
(2.17371 0.219091 0)
(2.16109 0.226463 0)
(2.14738 0.233569 0)
(2.13248 0.240298 0)
(2.26476 0.157985 0)
(2.25618 0.167941 0)
(2.24765 0.177489 0)
(2.23924 0.186679 0)
(2.23093 0.19557 0)
(2.22269 0.204199 0)
(2.21436 0.212653 0)
(2.20581 0.220974 0)
(2.19689 0.229187 0)
(2.18748 0.237287 0)
(2.17747 0.24521 0)
(2.16678 0.252839 0)
(2.27311 0.166915 0)
(2.26418 0.17681 0)
(2.25546 0.186198 0)
(2.24702 0.195198 0)
(2.23885 0.20391 0)
(2.2309 0.21245 0)
(2.22303 0.220948 0)
(2.21511 0.229448 0)
(2.20697 0.237955 0)
(2.19849 0.246451 0)
(2.18954 0.254868 0)
(2.18001 0.263084 0)
(2.28123 0.176415 0)
(2.27165 0.186073 0)
(2.26245 0.195135 0)
(2.25371 0.203778 0)
(2.24541 0.212159 0)
(2.23746 0.220492 0)
(2.22969 0.22894 0)
(2.22196 0.237539 0)
(2.21408 0.246298 0)
(2.20588 0.255193 0)
(2.19721 0.26415 0)
(2.18791 0.273039 0)
(2.28954 0.186745 0)
(2.27913 0.195978 0)
(2.26938 0.204523 0)
(2.26032 0.21262 0)
(2.25192 0.220515 0)
(2.244 0.228521 0)
(2.23639 0.236822 0)
(2.22887 0.245465 0)
(2.22121 0.254464 0)
(2.21319 0.263791 0)
(2.20461 0.273365 0)
(2.19527 0.283048 0)
(2.29767 0.19815 0)
(2.28631 0.206613 0)
(2.27597 0.214326 0)
(2.26668 0.221612 0)
(2.2583 0.22882 0)
(2.25061 0.236365 0)
(2.24336 0.244436 0)
(2.23627 0.25309 0)
(2.22902 0.262347 0)
(2.22136 0.272178 0)
(2.21301 0.282495 0)
(2.20371 0.293153 0)
(2.30523 0.210936 0)
(2.29278 0.218202 0)
(2.28188 0.224656 0)
(2.27248 0.230737 0)
(2.26432 0.236941 0)
(2.25708 0.243807 0)
(2.25048 0.251538 0)
(2.2441 0.260188 0)
(2.23756 0.269763 0)
(2.23055 0.280222 0)
(2.22272 0.291461 0)
(2.21376 0.303317 0)
(2.31363 0.224851 0)
(2.29968 0.230307 0)
(2.28803 0.235026 0)
(2.27854 0.239555 0)
(2.27075 0.24449 0)
(2.26417 0.250478 0)
(2.25841 0.257708 0)
(2.25293 0.266253 0)
(2.24731 0.276132 0)
(2.24113 0.287293 0)
(2.234 0.299624 0)
(2.22558 0.31296 0)
(2.32274 0.241806 0)
(2.30757 0.244287 0)
(2.2957 0.24615 0)
(2.28684 0.248306 0)
(2.28013 0.251557 0)
(2.27489 0.256538 0)
(2.2706 0.263273 0)
(2.26657 0.271776 0)
(2.26225 0.282052 0)
(2.25715 0.294001 0)
(2.25085 0.307432 0)
(2.24304 0.322129 0)
(2.31615 0.259131 0)
(2.30197 0.258232 0)
(2.29176 0.256766 0)
(2.28482 0.255838 0)
(2.28027 0.256741 0)
(2.2777 0.260146 0)
(2.27644 0.26606 0)
(2.27536 0.274566 0)
(2.27399 0.285494 0)
(2.272 0.298725 0)
(2.26877 0.314097 0)
(2.26377 0.33128 0)
(2.26738 0.274283 0)
(2.25815 0.268024 0)
(2.25426 0.262744 0)
(2.254 0.25964 0)
(2.25635 0.258549 0)
(2.26008 0.260609 0)
(2.26407 0.266007 0)
(2.26754 0.274467 0)
(2.26975 0.285684 0)
(2.27045 0.299305 0)
(2.27023 0.315309 0)
(2.26964 0.333791 0)
(2.1229 0.285002 0)
(2.12778 0.273235 0)
(2.13757 0.262323 0)
(2.15166 0.254128 0)
(2.16867 0.251221 0)
(2.18684 0.252771 0)
(2.2044 0.258714 0)
(2.22004 0.269179 0)
(2.23299 0.282784 0)
(2.24297 0.298513 0)
(2.25018 0.315824 0)
(2.25533 0.335179 0)
(1.75614 0.268423 0)
(1.79462 0.25261 0)
(1.8351 0.237553 0)
(1.87711 0.226739 0)
(1.91961 0.221623 0)
(1.96223 0.222623 0)
(2.00414 0.229899 0)
(2.04409 0.242885 0)
(2.08156 0.260259 0)
(2.1157 0.280167 0)
(2.14603 0.301117 0)
(2.17318 0.323846 0)
(1.11453 0.214392 0)
(1.18595 0.198626 0)
(1.25663 0.184084 0)
(1.32665 0.17344 0)
(1.39616 0.168549 0)
(1.46538 0.17002 0)
(1.53432 0.177996 0)
(1.6028 0.191887 0)
(1.67087 0.210334 0)
(1.73874 0.231782 0)
(1.80759 0.254889 0)
(1.87768 0.279114 0)
(0.351966 0.108227 0)
(0.442241 0.0937091 0)
(0.528186 0.0814002 0)
(0.608847 0.0737184 0)
(0.685573 0.071985 0)
(0.761013 0.0758909 0)
(0.837765 0.0861577 0)
(0.917392 0.102046 0)
(1.00151 0.12144 0)
(1.09184 0.142187 0)
(1.19 0.162772 0)
(1.29735 0.182272 0)
(-0.17205 0.0214258 0)
(-0.111795 0.018705 0)
(-0.0585703 0.0185811 0)
(-0.0110111 0.0197552 0)
(0.0342337 0.0224978 0)
(0.0769261 0.0263634 0)
(0.125791 0.0327455 0)
(0.186693 0.0400989 0)
(0.256396 0.0472864 0)
(0.335547 0.0540783 0)
(0.430931 0.0620907 0)
(0.541528 0.0672953 0)
(0.0461096 -0.00519785 0)
(0.00661536 -0.00809863 0)
(-0.0285515 -0.00953902 0)
(-0.0594167 -0.0102935 0)
(-0.0887562 -0.0125929 0)
(-0.113577 -0.0164501 0)
(-0.13102 -0.0199141 0)
(-0.140005 -0.0211528 0)
(-0.143305 -0.0143652 0)
(-0.14736 -0.00252461 0)
(-0.153928 0.00805668 0)
(-0.163285 0.014582 0)
(-0.171155 0.0173334 0)
(-0.172203 0.0157538 0)
(-0.163363 0.00723453 0)
(-0.143862 -0.00415981 0)
(-0.115912 -0.0126145 0)
(-0.0849132 -0.0166382 0)
(-0.0538626 -0.0173224 0)
(-0.0246868 -0.0163539 0)
(0.00197945 -0.0145489 0)
(0.0236247 -0.0111538 0)
(0.0355892 -0.00443241 0)
(0.0344614 0.00587752 0)
(0.017887 0.0166504 0)
(-0.0167118 0.0266467 0)
(-0.0677756 0.0330972 0)
(-0.127034 0.034996 0)
(-0.186635 0.0322796 0)
(-0.237728 0.0250527 0)
(-0.2717 0.0141106 0)
(-0.283126 0.00125221 0)
(-0.271021 -0.0117328 0)
(-0.237746 -0.0236402 0)
(-0.186863 -0.0316218 0)
(-0.126153 -0.0343542 0)
(-0.0640558 -0.0321399 0)
(-0.00779982 -0.0249071 0)
(0.0325123 -0.0130141 0)
(0.0482582 0.00281196 0)
(0.0359323 0.0210733 0)
(-0.00823584 0.0398549 0)
(-0.0827063 0.054168 0)
(-0.176869 0.0602095 0)
(-0.275032 0.0581638 0)
(-0.365856 0.0490326 0)
(-0.436269 0.0346693 0)
(-0.478635 0.0179417 0)
(-0.490181 0.000872354 0)
(-0.47236 -0.015651 0)
(-0.430517 -0.0284632 0)
(-0.371005 -0.035952 0)
(-0.301389 -0.038629 0)
(-0.228638 -0.0373372 0)
(-0.160951 -0.0331594 0)
(-0.101304 -0.0271336 0)
(-0.0530781 -0.0203367 0)
(-0.0182028 -0.0133496 0)
(0.00231418 -0.00676921 0)
(0.00984095 -0.000883005 0)
(0.00732563 0.00409774 0)
(-0.00334189 0.00750115 0)
(-0.0194796 0.00973002 0)
(-0.0379518 0.0105656 0)
(-0.0567322 0.0100312 0)
(-0.0735476 0.00856185 0)
(-0.0869201 0.0064211 0)
(-0.0956387 0.00385291 0)
(-0.0989648 0.00102264 0)
(-0.0970698 -0.00210575 0)
(-0.0902281 -0.00477419 0)
(-0.0788011 -0.00690651 0)
(-0.0636702 -0.00846588 0)
(-0.0458288 -0.00940586 0)
(-0.0265285 -0.00975359 0)
(-0.00682955 -0.00955423 0)
(0.0120947 -0.0088349 0)
(0.0290227 -0.00756198 0)
(0.0430083 -0.00573743 0)
(0.0527345 -0.0034794 0)
(0.0573972 -0.000863254 0)
(0.0569437 0.00209137 0)
(0.0515712 0.0048052 0)
(0.0414355 0.00694887 0)
(0.0273425 0.00851426 0)
(0.010769 0.00929905 0)
(-0.00646777 0.00919786 0)
(-0.0223138 0.00808771 0)
(-0.0347914 0.00602936 0)
(-0.0421822 0.003261 0)
(-0.0436956 0.000108404 0)
(-0.0396538 -0.00286158 0)
(-0.0305822 -0.00511596 0)
(-0.0175742 -0.00655649 0)
(-0.00201262 -0.00719587 0)
(0.0143582 -0.00722999 0)
(0.0302015 -0.00668163 0)
(0.0445111 -0.00561861 0)
(0.0562501 -0.00415301 0)
(0.0646542 -0.00245912 0)
(0.0693169 -0.000725529 0)
(0.0704382 0.000929021 0)
(0.0684385 0.00227843 0)
(0.06396 0.00321954 0)
(0.0578096 0.00376029 0)
(0.050896 0.0038808 0)
(0.0441243 0.00355217 0)
(0.0384652 0.00275348 0)
(0.0348682 0.00161049 0)
(0.0338839 0.000256242 0)
(0.0355524 -0.00117026 0)
(0.0398049 -0.00237646 0)
(0.046365 -0.00329992 0)
(0.0546771 -0.003918 0)
(0.945363 0.0960538 0)
(0.839634 0.0899927 0)
(0.7329 0.0831963 0)
(0.629917 0.0758041 0)
(0.530912 0.0674603 0)
(0.439441 0.0579272 0)
(0.355298 0.0465424 0)
(0.275539 0.0327427 0)
(0.195953 0.0187057 0)
(0.125359 0.011239 0)
(0.0740951 0.0078165 0)
(0.0345177 0.0024557 0)
(0.00522931 -0.00875225 0)
(-0.0180804 -0.026657 0)
(-0.023979 -0.0440959 0)
(-0.0211843 -0.0576386 0)
(-0.0101132 -0.0616949 0)
(0.00428441 -0.0554189 0)
(0.0194578 -0.0452999 0)
(0.0327219 -0.0371011 0)
(0.0449803 -0.028718 0)
(0.0564057 -0.0180473 0)
(0.0630815 -0.00290944 0)
(0.0576722 0.0164619 0)
(0.0349575 0.039064 0)
(-0.00503177 0.0606198 0)
(-0.0593712 0.077806 0)
(-0.121368 0.0863124 0)
(-0.182291 0.0829782 0)
(-0.233402 0.0657593 0)
(-0.267781 0.035259 0)
(-0.2779 -0.00252151 0)
(-0.26378 -0.0399375 0)
(-0.230176 -0.0698324 0)
(-0.182398 -0.0891955 0)
(-0.126284 -0.0951212 0)
(-0.0682961 -0.0887555 0)
(-0.0154149 -0.0709532 0)
(0.0237192 -0.0421118 0)
(0.0406976 -0.00343461 0)
(0.0299374 0.0413999 0)
(-0.0127004 0.0839216 0)
(-0.0824631 0.116698 0)
(-0.168718 0.13494 0)
(-0.260181 0.136073 0)
(-0.337656 0.117271 0)
(-0.397414 0.0819059 0)
(-0.425666 0.0355559 0)
(-0.419369 -0.0125086 0)
(-0.387058 -0.0537339 0)
(-0.334676 -0.0835296 0)
(-0.270461 -0.100496 0)
(-0.201254 -0.106814 0)
(-0.131928 -0.103877 0)
(-0.0668409 -0.0934171 0)
(-0.0106795 -0.0775454 0)
(0.0334733 -0.0583406 0)
(0.0646882 -0.0382728 0)
(0.0824005 -0.0192169 0)
(0.0883398 -0.00244426 0)
(0.0844812 0.0112025 0)
(0.0732534 0.0203171 0)
(0.0578929 0.0255444 0)
(0.0414348 0.0269082 0)
(0.0259026 0.0251857 0)
(0.0128325 0.0208811 0)
(0.00349946 0.01473 0)
(-0.00117493 0.00738482 0)
(-0.000894214 -0.000469274 0)
(0.00463868 -0.00841169 0)
(0.0149917 -0.0155713 0)
(0.0292243 -0.0214882 0)
(0.0466507 -0.0258405 0)
(0.0661841 -0.0284268 0)
(0.0866499 -0.0293207 0)
(0.107036 -0.0286678 0)
(0.126416 -0.0264328 0)
(0.143757 -0.0224741 0)
(0.158022 -0.0169072 0)
(0.168265 -0.010107 0)
(0.173887 -0.00254598 0)
(0.174447 0.00521823 0)
(0.169824 0.0123747 0)
(0.160999 0.0181248 0)
(0.149174 0.0219852 0)
(0.135933 0.0236086 0)
(0.122747 0.0228182 0)
(0.111342 0.0192175 0)
(0.103553 0.012953 0)
(0.10084 0.00478373 0)
(0.103723 -0.00418409 0)
(0.112206 -0.0124965 0)
(0.125507 -0.0189247 0)
(0.142117 -0.023043 0)
(0.160581 -0.0248417 0)
(0.179507 -0.0246908 0)
(0.197616 -0.0227957 0)
(0.213847 -0.0194046 0)
(0.227236 -0.0148984 0)
(0.237124 -0.0097279 0)
(0.243247 -0.00438619 0)
(0.245759 0.000678398 0)
(0.245122 0.00491016 0)
(0.242202 0.00777864 0)
(0.237977 0.0092124 0)
(0.233349 0.0093934 0)
(0.229147 0.00838037 0)
(0.226193 0.00609409 0)
(0.225302 0.00268906 0)
(0.226855 -0.00144882 0)
(0.231147 -0.00567485 0)
(0.238154 -0.00936264 0)
(0.24735 -0.0122045 0)
(0.258108 -0.0141056 0)
(1.6878 0.185783 0)
(1.6252 0.186201 0)
(1.55789 0.184815 0)
(1.48563 0.180893 0)
(1.40911 0.174049 0)
(1.32929 0.164111 0)
(1.24696 0.151548 0)
(1.16333 0.137662 0)
(1.07924 0.123723 0)
(0.996946 0.10957 0)
(0.917615 0.0953035 0)
(0.844313 0.0813027 0)
(0.778797 0.0665016 0)
(0.717603 0.0489013 0)
(0.652176 0.0281252 0)
(0.579049 0.00746442 0)
(0.497619 -0.0104855 0)
(0.414832 -0.0247129 0)
(0.345406 -0.0349209 0)
(0.293233 -0.0440184 0)
(0.256642 -0.0507582 0)
(0.23114 -0.0450334 0)
(0.214871 -0.0158589 0)
(0.204127 0.0270277 0)
(0.189933 0.071752 0)
(0.162559 0.110743 0)
(0.1219 0.138372 0)
(0.074311 0.148097 0)
(0.0260348 0.135966 0)
(-0.0150322 0.101389 0)
(-0.0408184 0.0485983 0)
(-0.0512146 -0.0117611 0)
(-0.0455328 -0.0672158 0)
(-0.0278125 -0.108916 0)
(-0.00123133 -0.135061 0)
(0.030899 -0.145627 0)
(0.0654445 -0.139306 0)
(0.101453 -0.111031 0)
(0.134931 -0.0627792 0)
(0.157348 -0.000809498 0)
(0.15849 0.0681552 0)
(0.134062 0.134709 0)
(0.088466 0.186266 0)
(0.0306436 0.211808 0)
(-0.0310691 0.206908 0)
(-0.0824993 0.171932 0)
(-0.107511 0.110041 0)
(-0.108403 0.0333944 0)
(-0.0919512 -0.0428382 0)
(-0.0564797 -0.103352 0)
(-0.0074402 -0.144308 0)
(0.0481305 -0.166425 0)
(0.104035 -0.172728 0)
(0.158697 -0.166216 0)
(0.209463 -0.148553 0)
(0.252865 -0.122143 0)
(0.286262 -0.0909102 0)
(0.308756 -0.0587383 0)
(0.320555 -0.0283809 0)
(0.323454 -0.0018266 0)
(0.31871 0.0188756 0)
(0.308787 0.032455 0)
(0.29627 0.0393327 0)
(0.283111 0.0404838 0)
(0.27062 0.0371375 0)
(0.259959 0.0299583 0)
(0.252238 0.0199316 0)
(0.248161 0.00806133 0)
(0.247979 -0.00468614 0)
(0.252291 -0.01687 0)
(0.260873 -0.0280845 0)
(0.273061 -0.0375035 0)
(0.288149 -0.0443901 0)
(0.305155 -0.048305 0)
(0.323003 -0.0492699 0)
(0.340931 -0.0477002 0)
(0.358437 -0.0439184 0)
(0.374589 -0.0379941 0)
(0.38832 -0.0297797 0)
(0.398734 -0.0195654 0)
(0.40525 -0.00775813 0)
(0.407878 0.00494088 0)
(0.406939 0.0168545 0)
(0.402919 0.0265862 0)
(0.396614 0.0331573 0)
(0.389058 0.0358259 0)
(0.381226 0.0344274 0)
(0.374257 0.0283974 0)
(0.369814 0.0178848 0)
(0.369426 0.00404668 0)
(0.373861 -0.0111397 0)
(0.382974 -0.0246585 0)
(0.395804 -0.0350228 0)
(0.410913 -0.0415709 0)
(0.427105 -0.0444255 0)
(0.44346 -0.0441957 0)
(0.459308 -0.0412569 0)
(0.47403 -0.0356371 0)
(0.486899 -0.0278403 0)
(0.497295 -0.0187268 0)
(0.504839 -0.00935856 0)
(0.509458 -0.000772491 0)
(0.511352 0.00619114 0)
(0.511227 0.0109364 0)
(0.509794 0.0133599 0)
(0.50746 0.0136094 0)
(0.504816 0.011783 0)
(0.502408 0.00730037 0)
(0.501084 0.00124442 0)
(0.501804 -0.00577412 0)
(0.505126 -0.0128245 0)
(0.510909 -0.0190498 0)
(0.518722 -0.0238063 0)
(0.528035 -0.0268549 0)
(2.00008 0.224813 0)
(1.96746 0.228253 0)
(1.93212 0.230231 0)
(1.89396 0.230181 0)
(1.85272 0.227545 0)
(1.80817 0.222005 0)
(1.76019 0.213752 0)
(1.70908 0.203445 0)
(1.65555 0.191708 0)
(1.60068 0.178794 0)
(1.54551 0.164574 0)
(1.49057 0.148575 0)
(1.4357 0.130563 0)
(1.38015 0.111486 0)
(1.32361 0.0940187 0)
(1.26588 0.0809381 0)
(1.20763 0.0735616 0)
(1.14817 0.0697144 0)
(1.0854 0.0655844 0)
(1.01531 0.0591332 0)
(0.932525 0.0494513 0)
(0.835147 0.0401392 0)
(0.732808 0.0394234 0)
(0.644135 0.0554014 0)
(0.578593 0.0841283 0)
(0.536479 0.123657 0)
(0.512573 0.158403 0)
(0.501599 0.174186 0)
(0.496265 0.168742 0)
(0.497894 0.134218 0)
(0.502576 0.0765613 0)
(0.502331 0.00815084 0)
(0.497561 -0.0543637 0)
(0.488582 -0.103185 0)
(0.474202 -0.135596 0)
(0.455059 -0.152071 0)
(0.433479 -0.153634 0)
(0.414577 -0.141295 0)
(0.406527 -0.102105 0)
(0.412682 -0.0315762 0)
(0.424287 0.0641329 0)
(0.426967 0.158168 0)
(0.417616 0.228026 0)
(0.402221 0.259815 0)
(0.383968 0.254836 0)
(0.371869 0.209995 0)
(0.369105 0.128657 0)
(0.370908 0.0305591 0)
(0.379307 -0.0636362 0)
(0.400305 -0.139359 0)
(0.430878 -0.190343 0)
(0.467975 -0.21889 0)
(0.507558 -0.227659 0)
(0.547332 -0.219951 0)
(0.586145 -0.197365 0)
(0.621812 -0.161964 0)
(0.650329 -0.118665 0)
(0.669132 -0.0741152 0)
(0.678221 -0.0332397 0)
(0.679481 0.000866336 0)
(0.674252 0.0270274 0)
(0.664772 0.0446209 0)
(0.653702 0.0540223 0)
(0.64187 0.0557407 0)
(0.63012 0.0507485 0)
(0.61904 0.0409427 0)
(0.609768 0.0274601 0)
(0.603172 0.0114473 0)
(0.600038 -0.00584325 0)
(0.601061 -0.0228665 0)
(0.6053 -0.0384502 0)
(0.611915 -0.0516965 0)
(0.62053 -0.0617134 0)
(0.631201 -0.0671426 0)
(0.643246 -0.0688055 0)
(0.655857 -0.0680736 0)
(0.668877 -0.0640287 0)
(0.682502 -0.0551284 0)
(0.696247 -0.0424365 0)
(0.709002 -0.0269169 0)
(0.719776 -0.0104292 0)
(0.727334 0.0051893 0)
(0.730973 0.0188923 0)
(0.731699 0.0297854 0)
(0.731172 0.0366659 0)
(0.730581 0.0391425 0)
(0.730449 0.0382467 0)
(0.731037 0.0310367 0)
(0.732637 0.0178117 0)
(0.735946 0.000704187 0)
(0.741929 -0.0181497 0)
(0.750359 -0.0349381 0)
(0.760162 -0.0475452 0)
(0.770685 -0.0553056 0)
(0.781348 -0.0584025 0)
(0.791749 -0.057573 0)
(0.80161 -0.0536053 0)
(0.810688 -0.0468443 0)
(0.818438 -0.0377874 0)
(0.824475 -0.0273001 0)
(0.82871 -0.0163894 0)
(0.831415 -0.00615285 0)
(0.833047 0.00238365 0)
(0.834049 0.00852148 0)
(0.834873 0.0120708 0)
(0.835728 0.0134159 0)
(0.836895 0.0130176 0)
(0.838149 0.00978329 0)
(0.839622 0.00358385 0)
(0.841643 -0.00454703 0)
(0.844485 -0.0135904 0)
(0.848064 -0.0219121 0)
(0.852262 -0.0285645 0)
(0.856895 -0.0332722 0)
(2.11608 0.246521 0)
(2.09805 0.251905 0)
(2.07847 0.255938 0)
(2.05714 0.258124 0)
(2.03379 0.258023 0)
(2.00803 0.255344 0)
(1.97959 0.250025 0)
(1.9484 0.242252 0)
(1.91474 0.232318 0)
(1.87911 0.220476 0)
(1.84203 0.206823 0)
(1.80382 0.19141 0)
(1.76451 0.174648 0)
(1.72409 0.157609 0)
(1.68249 0.141802 0)
(1.64044 0.128679 0)
(1.59885 0.118935 0)
(1.55815 0.112308 0)
(1.51816 0.108329 0)
(1.47812 0.107696 0)
(1.43742 0.114544 0)
(1.39496 0.129923 0)
(1.34739 0.143837 0)
(1.29411 0.154144 0)
(1.23552 0.164244 0)
(1.18482 0.175246 0)
(1.15486 0.182087 0)
(1.14288 0.180155 0)
(1.14279 0.164485 0)
(1.15357 0.127093 0)
(1.16552 0.0711106 0)
(1.16889 0.00619512 0)
(1.16151 -0.0487162 0)
(1.14638 -0.088186 0)
(1.12365 -0.111676 0)
(1.09193 -0.118566 0)
(1.05195 -0.109255 0)
(1.00018 -0.0871884 0)
(0.937332 -0.057347 0)
(0.877179 -0.0176158 0)
(0.833906 0.0489891 0)
(0.815529 0.140771 0)
(0.818959 0.215058 0)
(0.830442 0.249022 0)
(0.845793 0.250664 0)
(0.861814 0.218965 0)
(0.870613 0.143204 0)
(0.870237 0.0430684 0)
(0.864533 -0.0619021 0)