/*--------------------------------*- C++ -*----------------------------------*\
| =========                 |                                                 |
| \\      /  F ield         | OpenFOAM: The Open Source CFD Toolbox           |
|  \\    /   O peration     | Version:  2206                                  |
|   \\  /    A nd           | Website:  www.openfoam.com                      |
|    \\/     M anipulation  |                                                 |
\*---------------------------------------------------------------------------*/
FoamFile
{
    version     2.0;
    format      ascii;
    arch        "LSB;label=32;scalar=64";
    class       surfaceScalarField;
    location    "18.3";
    object      phi;
}
// * * * * * * * * * * * * * * * * * * * * * * * * * * * * * * * * * * * * * //

dimensions      [0 3 -1 0 0 0 0];

oriented        oriented;

internalField   nonuniform List<scalar> 
5978
(
9.10254e-06
-9.1743e-07
9.73774e-07
9.03848e-06
-9.14826e-07
9.78882e-07
8.96892e-06
-8.94155e-07
9.6372e-07
8.89621e-06
-8.5754e-07
9.30244e-07
8.82282e-06
-8.06837e-07
8.80232e-07
8.75101e-06
-7.43518e-07
8.15326e-07
8.68274e-06
-6.68692e-07
7.36964e-07
8.6196e-06
-5.83219e-07
6.4636e-07
8.56286e-06
-4.87909e-07
5.44641e-07
8.51356e-06
-3.83723e-07
4.33023e-07
8.47252e-06
-2.7194e-07
3.12981e-07
8.44042e-06
-1.54325e-07
1.86429e-07
8.41779e-06
-3.34454e-08
5.60748e-08
8.40466e-06
8.77964e-08
-7.46622e-08
8.40076e-06
2.06801e-07
-2.02908e-07
8.40564e-06
3.20958e-07
-3.25838e-07
8.41862e-06
4.27759e-07
-4.40731e-07
8.43881e-06
5.24925e-07
-5.45116e-07
8.46521e-06
6.10525e-07
-6.36925e-07
8.49676e-06
6.8304e-07
-7.14593e-07
8.53251e-06
7.41338e-07
-7.77088e-07
8.57179e-06
7.84533e-07
-8.23808e-07
8.61438e-06
8.11637e-07
-8.5423e-07
8.66027e-06
8.21293e-07
-8.67183e-07
8.70883e-06
8.12439e-07
-8.60994e-07
8.75923e-06
7.84734e-07
-8.35138e-07
8.81062e-06
7.38176e-07
-7.89565e-07
8.86215e-06
6.73371e-07
-7.24906e-07
8.91307e-06
5.91463e-07
-6.42379e-07
8.96263e-06
4.94064e-07
-5.43622e-07
9.01005e-06
3.83296e-07
-4.3072e-07
9.05439e-06
2.61963e-07
-3.06306e-07
9.09423e-06
1.34018e-07
-1.73856e-07
9.12786e-06
4.78399e-09
-3.84093e-08
9.15431e-06
-1.21315e-07
9.4858e-08
9.1728e-06
-2.40609e-07
2.22125e-07
9.1826e-06
-3.49889e-07
3.40086e-07
9.18344e-06
-4.47079e-07
4.46242e-07
9.1759e-06
-5.31235e-07
5.38776e-07
9.16048e-06
-6.00846e-07
6.16258e-07
9.13745e-06
-6.54891e-07
6.77925e-07
9.10692e-06
-6.93076e-07
7.23602e-07
9.06893e-06
-7.15009e-07
7.53e-07
9.02422e-06
-7.2101e-07
7.6572e-07
8.97438e-06
-7.12369e-07
7.62215e-07
8.92108e-06
-6.90492e-07
7.43785e-07
8.86614e-06
-6.56726e-07
7.11667e-07
8.81134e-06
-6.12302e-07
6.67104e-07
8.7583e-06
-5.58302e-07
6.11346e-07
8.70839e-06
-4.95666e-07
5.45571e-07
8.66277e-06
-4.2525e-07
4.70871e-07
8.62236e-06
-3.47933e-07
3.88344e-07
8.5879e-06
-2.64726e-07
2.99187e-07
8.55999e-06
-1.769e-07
2.04807e-07
8.53915e-06
-8.62008e-08
1.07041e-07
8.52552e-06
5.32521e-09
8.30689e-09
8.51897e-06
9.58205e-08
-8.92672e-08
8.51922e-06
1.83417e-07
-1.83666e-07
8.52584e-06
2.66298e-07
-2.72924e-07
8.53829e-06
3.4276e-07
-3.55205e-07
8.55588e-06
4.11307e-07
-4.28901e-07
8.57789e-06
4.70697e-07
-4.92709e-07
8.60361e-06
5.19966e-07
-5.45679e-07
8.63243e-06
5.58368e-07
-5.87194e-07
8.66406e-06
5.85204e-07
-6.1683e-07
8.69844e-06
5.99602e-07
-6.33987e-07
8.73536e-06
6.00644e-07
-6.37558e-07
8.77419e-06
5.87928e-07
-6.26763e-07
8.81431e-06
5.61302e-07
-6.01418e-07
8.85501e-06
5.20987e-07
-5.61691e-07
8.89561e-06
4.67653e-07
-5.08256e-07
8.93543e-06
4.02362e-07
-4.42178e-07
8.97374e-06
3.26569e-07
-3.64879e-07
9.00974e-06
2.42175e-07
-2.78176e-07
9.04244e-06
1.5168e-07
-1.84375e-07
9.07048e-06
5.85038e-08
-8.65496e-08
9.09296e-06
-3.39345e-08
1.14542e-08
9.10932e-06
-1.23089e-07
1.06732e-07
9.11919e-06
-2.06754e-07
1.96889e-07
9.12275e-06
-2.83344e-07
2.79777e-07
9.12001e-06
-3.51182e-07
3.53929e-07
9.11075e-06
-4.0873e-07
4.1799e-07
9.09536e-06
-4.5543e-07
4.70812e-07
9.07426e-06
-4.911e-07
5.122e-07
9.04756e-06
-5.15257e-07
5.41959e-07
9.01556e-06
-5.27694e-07
5.59693e-07
8.97917e-06
-5.28851e-07
5.65238e-07
8.93959e-06
-5.19517e-07
5.59105e-07
8.89804e-06
-5.00501e-07
5.42046e-07
8.85584e-06
-4.72618e-07
5.14816e-07
8.81426e-06
-4.36677e-07
4.78262e-07
8.77442e-06
-3.93457e-07
4.33299e-07
8.73728e-06
-3.43706e-07
3.80841e-07
8.70365e-06
-2.88177e-07
3.21807e-07
8.67418e-06
-2.27699e-07
2.57173e-07
8.64939e-06
-1.63249e-07
1.88037e-07
8.62975e-06
-9.60881e-08
1.15726e-07
8.61551e-06
-2.77472e-08
4.19903e-08
8.60663e-06
4.03449e-08
-3.14626e-08
8.60296e-06
1.06802e-07
-1.03137e-07
8.60426e-06
1.70267e-07
-1.71568e-07
8.61018e-06
2.29455e-07
-2.35371e-07
8.62027e-06
2.83206e-07
-2.93296e-07
8.63402e-06
3.30534e-07
-3.44289e-07
8.65091e-06
3.70652e-07
-3.87541e-07
8.67045e-06
4.02958e-07
-4.225e-07
8.69232e-06
4.26944e-07
-4.48814e-07
8.71644e-06
4.42031e-07
-4.66145e-07
8.74275e-06
4.47538e-07
-4.73855e-07
8.77089e-06
4.43012e-07
-4.71148e-07
8.80038e-06
4.28296e-07
-4.57785e-07
8.83068e-06
4.03415e-07
-4.33721e-07
8.86123e-06
3.6872e-07
-3.99271e-07
8.89145e-06
3.24885e-07
-3.55105e-07
8.92077e-06
2.7282e-07
-3.0214e-07
8.94853e-06
2.13895e-07
-2.4165e-07
8.9742e-06
1.49174e-07
-1.74841e-07
8.99644e-06
8.22223e-08
-1.04466e-07
9.01505e-06
1.23118e-08
-3.09197e-08
9.02894e-06
-5.25861e-08
3.86941e-08
9.03757e-06
-1.20677e-07
1.1205e-07
9.0424e-06
-1.73529e-07
1.68693e-07
-2.50074e-07
2.53037e-07
9.08272e-06
-8.48059e-07
9.00616e-06
-8.38268e-07
8.92503e-06
-8.13023e-07
8.84199e-06
-7.74503e-07
8.75962e-06
-7.24461e-07
8.68019e-06
-6.64097e-07
8.60564e-06
-5.94134e-07
8.53745e-06
-5.15037e-07
8.47682e-06
-4.27276e-07
8.42466e-06
-3.31556e-07
8.38169e-06
-2.28978e-07
8.34856e-06
-1.21194e-07
8.32566e-06
-1.05419e-08
8.31291e-06
1.00546e-07
8.31004e-06
2.09672e-07
8.31657e-06
3.14429e-07
8.33182e-06
4.12507e-07
8.35495e-06
5.01798e-07
8.38499e-06
5.8048e-07
8.42099e-06
6.47045e-07
8.46209e-06
7.00238e-07
8.50773e-06
7.38889e-07
8.55763e-06
7.61738e-07
8.61131e-06
7.67613e-07
8.66788e-06
7.55864e-07
8.72647e-06
7.26148e-07
8.78611e-06
6.78537e-07
8.84583e-06
6.13647e-07
8.9047e-06
5.32601e-07
8.96172e-06
4.3704e-07
9.01578e-06
3.29231e-07
9.06542e-06
2.12327e-07
9.10853e-06
9.09044e-08
9.14354e-06
-3.02208e-08
9.16955e-06
-1.47329e-07
9.18602e-06
-2.57076e-07
9.19271e-06
-3.56576e-07
9.18991e-06
-4.44279e-07
9.17753e-06
-5.18859e-07
9.1554e-06
-5.78717e-07
9.12415e-06
-6.23636e-07
9.084e-06
-6.52932e-07
9.03578e-06
-6.66785e-07
8.98117e-06
-6.66403e-07
8.92207e-06
-6.53266e-07
8.86043e-06
-6.28848e-07
8.79818e-06
-5.9448e-07
8.73715e-06
-5.51268e-07
8.67892e-06
-5.00081e-07
8.62485e-06
-4.41592e-07
8.576e-06
-3.76396e-07
8.53321e-06
-3.05149e-07
8.49717e-06
-2.28688e-07
8.46846e-06
-1.48183e-07
8.44744e-06
-6.51875e-08
8.43416e-06
1.86112e-08
8.42846e-06
1.01518e-07
8.43006e-06
1.81816e-07
8.43854e-06
2.57824e-07
8.45333e-06
3.2797e-07
8.47378e-06
3.90853e-07
8.49921e-06
4.45271e-07
8.52896e-06
4.90216e-07
8.56254e-06
5.24785e-07
8.59968e-06
5.48066e-07
8.6401e-06
5.59178e-07
8.68324e-06
5.57502e-07
8.72844e-06
5.42732e-07
8.77497e-06
5.1477e-07
8.82205e-06
4.73907e-07
8.86887e-06
4.20839e-07
8.91457e-06
3.5666e-07
8.95823e-06
2.82904e-07
8.99876e-06
2.01647e-07
9.03467e-06
1.15769e-07
9.06456e-06
2.86206e-08
9.08766e-06
-5.7032e-08
9.10345e-06
-1.38884e-07
9.11167e-06
-2.14978e-07
9.11206e-06
-2.83733e-07
9.10466e-06
-3.43776e-07
9.08998e-06
-3.94051e-07
9.06845e-06
-4.33903e-07
9.0402e-06
-4.62853e-07
9.00566e-06
-4.80709e-07
8.96581e-06
-4.87843e-07
8.92196e-06
-4.85009e-07
8.8755e-06
-4.73051e-07
8.82781e-06
-4.52813e-07
8.78028e-06
-4.25084e-07
8.73417e-06
-3.90575e-07
8.69063e-06
-3.4991e-07
8.65058e-06
-3.03654e-07
8.61478e-06
-2.52381e-07
8.58385e-06
-1.96771e-07
8.55831e-06
-1.37705e-07
8.53852e-06
-7.63009e-08
8.52459e-06
-1.38167e-08
8.51645e-06
4.84835e-08
8.51393e-06
1.09319e-07
8.51677e-06
1.67432e-07
8.52459e-06
2.21634e-07
8.53695e-06
2.70843e-07
8.55337e-06
3.1412e-07
8.57335e-06
3.50671e-07
8.5965e-06
3.79811e-07
8.62256e-06
4.0088e-07
8.65137e-06
4.13222e-07
8.6826e-06
4.16305e-07
8.71575e-06
4.09862e-07
8.7503e-06
3.93753e-07
8.78563e-06
3.6808e-07
8.82111e-06
3.33245e-07
8.85603e-06
2.89958e-07
8.88969e-06
2.39161e-07
8.92124e-06
1.82352e-07
8.94974e-06
1.20672e-07
8.9739e-06
5.80645e-08
8.99316e-06
-6.95466e-09
9.00683e-06
-6.62517e-08
9.01439e-06
-1.28237e-07
9.01732e-06
-1.76463e-07
-2.43927e-07
9.04464e-06
-7.66156e-07
8.95657e-06
-7.50203e-07
8.86531e-06
-7.21759e-07
8.77368e-06
-6.82877e-07
8.6843e-06
-6.35076e-07
8.59937e-06
-5.79174e-07
8.52066e-06
-5.15424e-07
8.44949e-06
-4.43864e-07
8.38685e-06
-3.64639e-07
8.33353e-06
-2.78236e-07
8.29018e-06
-1.85629e-07
8.25734e-06
-8.83446e-08
8.23519e-06
1.16022e-08
8.22366e-06
1.12079e-07
8.22246e-06
2.10873e-07
8.23112e-06
3.05769e-07
8.24899e-06
3.94637e-07
8.27527e-06
4.75512e-07
8.30911e-06
5.46647e-07
8.34964e-06
6.06512e-07
8.39617e-06
6.5371e-07
8.44817e-06
6.86885e-07
8.50509e-06
7.04822e-07
8.56606e-06
7.06643e-07
8.63014e-06
6.91784e-07
8.69633e-06
6.59952e-07
8.76356e-06
6.11305e-07
8.83072e-06
5.46491e-07
8.89666e-06
4.66661e-07
8.96014e-06
3.73563e-07
9.01962e-06
2.69747e-07
9.07295e-06
1.59002e-07
9.11786e-06
4.59938e-08
9.15299e-06
-6.53548e-08
9.17744e-06
-1.71776e-07
9.19069e-06
-2.70327e-07
9.19329e-06
-3.59181e-07
9.18503e-06
-4.36011e-07
9.16539e-06
-4.9922e-07
9.13504e-06
-5.48371e-07
9.09426e-06
-5.82856e-07
9.04398e-06
-6.02648e-07
8.98597e-06
-6.08781e-07
8.92232e-06
-6.02755e-07
8.85518e-06
-5.86124e-07
8.78666e-06
-5.60324e-07
8.71872e-06
-5.26546e-07
8.65317e-06
-4.85711e-07
8.59151e-06
-4.38426e-07
8.53498e-06
-3.85062e-07
8.48453e-06
-3.25944e-07
8.4409e-06
-2.61516e-07
8.40467e-06
-1.92465e-07
8.37631e-06
-1.19823e-07
8.35603e-06
-4.49012e-08
8.34382e-06
3.08225e-08
8.33954e-06
1.05794e-07
8.34292e-06
1.78437e-07
8.35354e-06
2.47206e-07
8.37087e-06
3.10639e-07
8.39432e-06
3.67405e-07
8.42328e-06
4.16312e-07
8.45721e-06
4.56283e-07
8.4957e-06
4.86297e-07
8.53833e-06
5.05433e-07
8.58454e-06
5.1297e-07
8.63361e-06
5.08432e-07
8.68482e-06
4.91521e-07
8.73735e-06
4.62236e-07
8.79032e-06
4.20941e-07
8.84276e-06
3.68393e-07
8.89365e-06
3.05777e-07
8.94175e-06
2.34803e-07
8.98548e-06
1.57913e-07
9.02309e-06
7.81598e-08
9.05338e-06
-1.66852e-09
9.07559e-06
-7.92395e-08
9.08922e-06
-1.52519e-07
9.09405e-06
-2.1981e-07
9.09006e-06
-2.7974e-07
9.07749e-06
-3.31207e-07
9.05673e-06
-3.73287e-07
9.02807e-06
-4.05248e-07
8.99206e-06
-4.26841e-07
8.94979e-06
-4.38435e-07
8.90267e-06
-4.40725e-07
8.85221e-06
-4.34551e-07
8.79993e-06
-4.20769e-07
8.74729e-06
-4.00181e-07
8.69569e-06
-3.73482e-07
8.64638e-06
-3.41267e-07
8.60045e-06
-3.03979e-07
8.55877e-06
-2.61975e-07
8.52204e-06
-2.15645e-07
8.49079e-06
-1.6552e-07
8.46543e-06
-1.12348e-07
8.44619e-06
-5.70612e-08
8.43312e-06
-7.42493e-10
8.42614e-06
5.5458e-08
8.4251e-06
1.10365e-07
8.42971e-06
1.62818e-07
8.43963e-06
2.11714e-07
8.45444e-06
2.56035e-07
8.47369e-06
2.94864e-07
8.49698e-06
3.27379e-07
8.52399e-06
3.52808e-07
8.55443e-06
3.70441e-07
8.58792e-06
3.79728e-07
8.62394e-06
3.80285e-07
8.66195e-06
3.71856e-07
8.70133e-06
3.5437e-07
8.7414e-06
3.28009e-07
8.7814e-06
2.93242e-07
8.82051e-06
2.50849e-07
8.8578e-06
2.01867e-07
8.89215e-06
1.48004e-07
8.92218e-06
9.06421e-08
8.94698e-06
3.32662e-08
8.96559e-06
-2.5564e-08
8.97789e-06
-7.85546e-08
8.98336e-06
-1.337e-07
8.98335e-06
-1.76456e-07
-2.33737e-07
8.98644e-06
-6.72651e-07
8.88841e-06
-6.52166e-07
8.78905e-06
-6.22399e-07
8.69136e-06
-5.85192e-07
8.59781e-06
-5.41522e-07
8.51017e-06
-4.91535e-07
8.4298e-06
-4.35053e-07
8.35779e-06
-3.71858e-07
8.29504e-06
-3.01885e-07
8.24223e-06
-2.25434e-07
8.19993e-06
-1.43326e-07
8.1685e-06
-5.69097e-08
8.14804e-06
3.20581e-08
8.13848e-06
1.21637e-07
8.13956e-06
2.09799e-07
8.15082e-06
2.94504e-07
8.17168e-06
3.73779e-07
8.20142e-06
4.4577e-07
8.23929e-06
5.08775e-07
8.28459e-06
5.61212e-07
8.3367e-06
6.01604e-07
8.39493e-06
6.28658e-07
8.45839e-06
6.41356e-07
8.52611e-06
6.3892e-07
8.59709e-06
6.20813e-07
8.67019e-06
5.86846e-07
8.74424e-06
5.37257e-07
8.81798e-06
4.72752e-07
8.89004e-06
3.94596e-07
8.95881e-06
3.04793e-07
9.02208e-06
2.06476e-07
9.07724e-06
1.0385e-07
9.12233e-06
8.97636e-10
9.156e-06
-9.90231e-08
9.17722e-06
-1.92999e-07
9.18594e-06
-2.79043e-07
9.18203e-06
-3.55269e-07
9.1657e-06
-4.19678e-07
9.13739e-06
-4.70915e-07
9.09727e-06
-5.08246e-07
9.04622e-06
-5.31813e-07
8.98612e-06
-5.42545e-07
8.91922e-06
-5.41879e-07
8.84787e-06
-5.31409e-07
8.77439e-06
-5.12639e-07
8.70093e-06
-4.86867e-07
8.62949e-06
-4.55103e-07
8.5617e-06
-4.17927e-07
8.49882e-06
-3.75548e-07
8.44183e-06
-3.28064e-07
8.3915e-06
-2.75614e-07
8.34847e-06
-2.1849e-07
8.31324e-06
-1.57239e-07
8.28615e-06
-9.27277e-08
8.26734e-06
-2.60958e-08
8.25684e-06
4.13294e-08
8.2545e-06
1.08133e-07
8.26007e-06
1.72867e-07
8.27317e-06
2.34103e-07
8.29334e-06
2.90474e-07
8.32004e-06
3.40698e-07
8.35278e-06
3.83572e-07
8.39109e-06
4.17972e-07
8.43449e-06
4.42897e-07
8.48236e-06
4.57566e-07
8.53397e-06
4.6136e-07
8.58857e-06
4.5383e-07
8.64534e-06
4.34756e-07
8.70334e-06
4.04233e-07
8.76156e-06
3.62719e-07
8.81887e-06
3.11086e-07
8.87392e-06
2.50729e-07
8.92496e-06
1.83765e-07
8.96998e-06
1.12889e-07
9.00742e-06
4.07238e-08
9.03623e-06
-3.04847e-08
9.05573e-06
-9.87338e-08
9.06554e-06
-1.6233e-07
9.06561e-06
-2.19878e-07
9.05609e-06
-2.70225e-07
9.03722e-06
-3.12336e-07
9.00925e-06
-3.4532e-07
8.97287e-06
-3.68867e-07
8.92928e-06
-3.83251e-07
8.88e-06
-3.89152e-07
8.82666e-06
-3.87388e-07
8.77091e-06
-3.788e-07
8.71432e-06
-3.64177e-07
8.65839e-06
-3.44254e-07
8.60452e-06
-3.1961e-07
8.55385e-06
-2.90596e-07
8.50727e-06
-2.57398e-07
8.46549e-06
-2.20194e-07
8.42909e-06
-1.79242e-07
8.39852e-06
-1.34949e-07
8.37409e-06
-8.79215e-08
8.35599e-06
-3.89602e-08
8.34426e-06
1.09809e-08
8.33886e-06
6.08639e-08
8.33961e-06
1.09613e-07
8.34627e-06
1.56158e-07
8.35852e-06
1.99468e-07
8.37598e-06
2.3857e-07
8.3983e-06
2.72548e-07
8.42512e-06
3.00554e-07
8.45612e-06
3.21815e-07
8.49082e-06
3.35733e-07
8.52872e-06
3.41828e-07
8.56926e-06
3.39752e-07
8.6118e-06
3.29314e-07
8.65564e-06
3.10533e-07
8.69996e-06
2.83685e-07
8.74387e-06
2.49332e-07
8.78634e-06
2.08383e-07
8.82607e-06
1.62128e-07
8.86162e-06
1.12455e-07
8.89159e-06
6.06713e-08
8.91544e-06
9.42441e-09
8.93201e-06
-4.21384e-08
8.94174e-06
-8.82848e-08
8.94394e-06
-1.35896e-07
8.93984e-06
-1.72355e-07
-2.18717e-07
8.90648e-06
-5.69356e-07
8.80102e-06
-5.46708e-07
8.6968e-06
-5.18176e-07
8.59643e-06
-4.84828e-07
8.5017e-06
-4.46794e-07
8.41398e-06
-4.03808e-07
8.33435e-06
-3.55427e-07
8.26372e-06
-3.01225e-07
8.20281e-06
-2.40974e-07
8.15219e-06
-1.74822e-07
8.11231e-06
-1.03438e-07
8.08341e-06
-2.80133e-08
8.0656e-06
4.98654e-08
8.05882e-06
1.28423e-07
8.06282e-06
2.05792e-07
8.07724e-06
2.80089e-07
8.10155e-06
3.49467e-07
8.13516e-06
4.12157e-07
8.17746e-06
4.66481e-07
8.22781e-06
5.10859e-07
8.28547e-06
5.43944e-07
8.34953e-06
5.646e-07
8.41901e-06
5.71872e-07
8.4929e-06
5.65035e-07
8.57007e-06
5.43642e-07
8.64931e-06
5.076e-07
8.72933e-06
4.57237e-07
8.80869e-06
3.93398e-07
8.88564e-06
3.17642e-07
8.95782e-06
2.32618e-07
9.02228e-06
1.42013e-07
9.07659e-06
4.95393e-08
9.11908e-06
-4.15945e-08
9.14861e-06
-1.28552e-07
9.16462e-06
-2.09009e-07
9.16676e-06
-2.81184e-07
9.15498e-06
-3.43483e-07
9.12955e-06
-3.94248e-07
9.09086e-06
-4.32226e-07
9.04e-06
-4.57384e-07
8.97887e-06
-4.70688e-07
8.9099e-06
-4.73571e-07
8.83564e-06
-4.67623e-07
8.75861e-06
-4.54381e-07
8.68121e-06
-4.35239e-07
8.60559e-06
-4.11243e-07
8.53339e-06
-3.82903e-07
8.46579e-06
-3.50326e-07
8.40373e-06
-3.13491e-07
8.34801e-06
-2.72343e-07
8.29929e-06
-2.26897e-07
8.25813e-06
-1.77324e-07
8.22493e-06
-1.24044e-07
8.19999e-06
-6.77832e-08
8.18344e-06
-9.54752e-09
8.1753e-06
4.94644e-08
8.17548e-06
1.07962e-07
8.18373e-06
1.64613e-07
8.19974e-06
2.18087e-07
8.22313e-06
2.67089e-07
8.25346e-06
3.1037e-07
8.29029e-06
3.46738e-07
8.33309e-06
3.75171e-07
8.38121e-06
3.94782e-07
8.43394e-06
4.0483e-07
8.49055e-06
4.04753e-07
8.55019e-06
3.94187e-07
8.61193e-06
3.73019e-07
8.6747e-06
3.41461e-07
8.7373e-06
3.00125e-07
8.79825e-06
2.50129e-07
8.85562e-06
1.93366e-07
8.90719e-06
1.32196e-07
8.95113e-06
6.8946e-08
8.98616e-06
5.68813e-09
9.01137e-06
-5.56944e-08
9.02624e-06
-1.13603e-07
9.03061e-06
-1.66699e-07
9.02458e-06
-2.1384e-07
9.00827e-06
-2.53918e-07
8.98187e-06
-2.85942e-07
8.94612e-06
-3.09568e-07
8.90228e-06
-3.2503e-07
8.852e-06
-3.3297e-07
8.79703e-06
-3.34184e-07
8.73913e-06
-3.29485e-07
8.67998e-06
-3.19649e-07
8.62122e-06
-3.05419e-07
8.5643e-06
-2.87328e-07
8.51029e-06
-2.65607e-07
8.46005e-06
-2.40357e-07
8.4143e-06
-2.1164e-07
8.37363e-06
-1.79529e-07
8.33857e-06
-1.44178e-07
8.3095e-06
-1.05883e-07
8.28672e-06
-6.51362e-08
8.27038e-06
-2.26198e-08
8.26054e-06
2.08145e-08
8.25717e-06
6.42377e-08
8.26012e-06
1.06661e-07
8.26919e-06
1.47092e-07
8.2841e-06
1.84559e-07
8.30455e-06
2.18119e-07
8.33023e-06
2.46863e-07
8.36076e-06
2.70022e-07
8.39566e-06
2.86922e-07
8.4344e-06
2.96994e-07
8.47641e-06
2.99813e-07
8.52107e-06
2.95096e-07
8.56764e-06
2.82743e-07
8.61529e-06
2.62882e-07
8.66306e-06
2.35916e-07
8.7098e-06
2.02587e-07
8.75407e-06
1.64116e-07
8.79423e-06
1.21974e-07
8.82893e-06
7.77502e-08
8.85706e-06
3.2537e-08
8.87818e-06
-1.16959e-08
8.89132e-06
-5.52734e-08
8.89721e-06
-9.41777e-08
8.89491e-06
-1.33595e-07
8.88564e-06
-1.63081e-07
-1.98363e-07
8.80431e-06
-4.5968e-07
8.69552e-06
-4.37923e-07
8.59039e-06
-4.13049e-07
8.49074e-06
-3.85178e-07
8.39791e-06
-3.53956e-07
8.31288e-06
-3.18783e-07
8.23646e-06
-2.7901e-07
8.16934e-06
-2.34097e-07
8.11209e-06
-1.83729e-07
8.06521e-06
-1.27942e-07
8.02904e-06
-6.72721e-08
8.00382e-06
-2.79112e-09
7.98964e-06
6.40505e-08
7.98645e-06
1.31609e-07
7.99409e-06
1.98152e-07
8.01225e-06
2.61925e-07
8.04056e-06
3.21166e-07
8.07854e-06
3.74172e-07
8.12561e-06
4.19409e-07
8.18101e-06
4.5546e-07
8.24389e-06
4.81061e-07
8.31333e-06
4.95168e-07
8.38829e-06
4.96911e-07
8.46768e-06
4.8564e-07
8.55031e-06
4.61012e-07
8.63486e-06
4.23056e-07
8.71982e-06
3.72275e-07
8.80337e-06
3.0985e-07
8.88293e-06
2.38076e-07
8.95537e-06
1.60178e-07
9.01789e-06
7.94913e-08
9.06844e-06
-1.00343e-09
9.10546e-06
-7.86218e-08
9.12809e-06
-1.51176e-07
9.136e-06
-2.16921e-07
9.12917e-06
-2.74354e-07
9.10752e-06
-3.21834e-07
9.07123e-06
-3.57955e-07
9.02151e-06
-3.82509e-07
8.9605e-06
-3.96369e-07
8.89078e-06
-4.00975e-07
8.81513e-06
-3.97917e-07
8.73624e-06
-3.88732e-07
8.65671e-06
-3.74849e-07
8.57876e-06
-3.57293e-07
8.504e-06
-3.36477e-07
8.43353e-06
-3.12436e-07
8.36825e-06
-2.85043e-07
8.30888e-06
-2.54121e-07
8.25606e-06
-2.19529e-07
8.21037e-06
-1.81207e-07
8.17229e-06
-1.39242e-07
8.14219e-06
-9.39449e-08
8.12033e-06
-4.59222e-08
8.10685e-06
3.93112e-09
8.10179e-06
5.45263e-08
8.10508e-06
1.04675e-07
8.11655e-06
1.53142e-07
8.13597e-06
1.9866e-07
8.16304e-06
2.40022e-07
8.19732e-06
2.76089e-07
8.23829e-06
3.05771e-07
8.28536e-06
3.28097e-07
8.33789e-06
3.42257e-07
8.39512e-06
3.47598e-07
8.45623e-06
3.43641e-07
8.52029e-06
3.30134e-07
8.58619e-06
3.07111e-07
8.65267e-06
2.74982e-07
8.71811e-06
2.34687e-07
8.78034e-06
1.87897e-07
8.83702e-06
1.36683e-07
8.8862e-06
8.30172e-08
8.92639e-06
2.87584e-08
8.95648e-06
-2.44003e-08
8.97582e-06
-7.50371e-08
8.98419e-06
-1.21969e-07
8.98161e-06
-1.64118e-07
8.9681e-06
-2.00337e-07
8.9438e-06
-2.29611e-07
8.90944e-06
-2.51583e-07
8.86637e-06
-2.66496e-07
8.81631e-06
-2.74969e-07
8.7611e-06
-2.77765e-07
8.70258e-06
-2.75667e-07
8.64252e-06
-2.69425e-07
8.58262e-06
-2.59741e-07
8.52427e-06
-2.47072e-07
8.46851e-06
-2.31568e-07
8.41615e-06
-2.13252e-07
8.36789e-06
-1.92097e-07
8.32433e-06
-1.68076e-07
8.28599e-06
-1.41187e-07
8.25331e-06
-1.11502e-07
8.22666e-06
-7.92332e-08
8.2063e-06
-4.47774e-08
8.19241e-06
-8.72302e-09
8.18504e-06
2.81832e-08
8.18418e-06
6.50926e-08
8.18975e-06
1.01089e-07
8.20161e-06
1.35231e-07
8.21956e-06
1.66613e-07
8.24329e-06
1.94392e-07
8.27241e-06
2.17741e-07
8.3065e-06
2.35935e-07
8.34505e-06
2.48369e-07
8.38749e-06
2.54552e-07
8.43318e-06
2.5413e-07
8.48136e-06
2.46915e-07
8.53117e-06
2.32931e-07
8.58158e-06
2.12468e-07
8.63133e-06
1.86165e-07
8.6788e-06
1.55116e-07
8.72232e-06
1.20606e-07
8.76044e-06
8.385e-08
8.79213e-06
4.60616e-08
8.81645e-06
8.21788e-09
8.83308e-06
-2.83316e-08
8.84141e-06
-6.36043e-08
8.84223e-06
-9.49927e-08
8.83432e-06
-1.25688e-07
8.81913e-06
-1.47887e-07
-1.72716e-07
8.68139e-06
-3.48806e-07
8.57413e-06
-3.30671e-07
8.47231e-06
-3.11221e-07
8.37714e-06
-2.90015e-07
8.2895e-06
-2.66312e-07
8.21001e-06
-2.39292e-07
8.13921e-06
-2.08215e-07
8.07764e-06
-1.72522e-07
8.02579e-06
-1.31876e-07
7.98409e-06
-8.62435e-08
7.95287e-06
-3.6051e-08
7.93234e-06
1.77391e-08
7.92261e-06
7.37726e-08
7.92374e-06
1.30486e-07
7.93566e-06
1.86231e-07
7.95818e-06
2.39405e-07
7.99094e-06
2.88399e-07
8.03349e-06
3.3163e-07
8.08523e-06
3.67669e-07
8.14543e-06
3.95256e-07
8.2132e-06
4.13297e-07
8.28753e-06
4.20835e-07
8.36738e-06
4.17064e-07
8.45158e-06
4.01438e-07
8.53883e-06
3.73763e-07
8.62758e-06
3.34304e-07
8.71586e-06
2.83992e-07
8.80085e-06
2.24866e-07
8.87919e-06
1.59737e-07
8.94788e-06
9.14805e-08
9.00459e-06
2.27864e-08
9.0475e-06
-4.39131e-08
9.07554e-06
-1.06659e-07
9.08828e-06
-1.63926e-07
9.08567e-06
-2.14308e-07
9.06747e-06
-2.56149e-07
9.03377e-06
-2.88136e-07
8.98582e-06
-3.10006e-07
8.92591e-06
-3.22603e-07
8.85685e-06
-3.27302e-07
8.78153e-06
-3.25662e-07
8.70281e-06
-3.19197e-07
8.62337e-06
-3.09291e-07
8.5454e-06
-2.96882e-07
8.4704e-06
-2.82289e-07
8.3994e-06
-2.65473e-07
8.33319e-06
-2.46224e-07
8.27241e-06
-2.24266e-07
8.21763e-06
-1.99341e-07
8.16936e-06
-1.71265e-07
8.12811e-06
-1.3995e-07
8.0943e-06
-1.05434e-07
8.0683e-06
-6.7941e-08
8.05035e-06
-2.79751e-08
8.04062e-06
1.36562e-08
8.03921e-06
5.59382e-08
8.04614e-06
9.77422e-08
8.06133e-06
1.37958e-07
8.08454e-06
1.75452e-07
8.11544e-06
2.09114e-07
8.15364e-06
2.3789e-07
8.19862e-06
2.60798e-07
8.24974e-06
2.76968e-07
8.30633e-06
2.85675e-07
8.36755e-06
2.86371e-07
8.43248e-06
2.78718e-07
8.49997e-06
2.62638e-07
8.56867e-06
2.38416e-07
8.63675e-06
2.069e-07
8.70189e-06
1.69551e-07
8.76168e-06
1.28104e-07
8.81415e-06
8.42144e-08
8.85767e-06
3.94925e-08
8.89104e-06
-4.61437e-09
8.91355e-06
-4.69069e-08
8.92493e-06
-8.64184e-08
8.92516e-06
-1.22201e-07
8.91416e-06
-1.53111e-07
8.89202e-06
-1.78197e-07
8.85952e-06
-1.97109e-07
8.81807e-06
-2.10141e-07
8.76946e-06
-2.17882e-07
8.71555e-06
-2.21057e-07
8.65819e-06
-2.20405e-07
8.59915e-06
-2.16627e-07
8.54008e-06
-2.10356e-07
8.48231e-06
-2.01969e-07
8.42678e-06
-1.91547e-07
8.37427e-06
-1.7905e-07
8.32539e-06
-1.6438e-07
8.28073e-06
-1.47429e-07
8.24076e-06
-1.28114e-07
8.20596e-06
-1.06387e-07
8.17672e-06
-8.22634e-08
8.15338e-06
-5.58868e-08
8.13618e-06
-2.75834e-08
8.12533e-06
2.13356e-09
8.12092e-06
3.25942e-08
8.12301e-06
6.29957e-08
8.13162e-06
9.2478e-08
8.14662e-06
1.20234e-07
8.16777e-06
1.45464e-07
8.19476e-06
1.674e-07
8.22719e-06
1.85309e-07
8.26458e-06
1.98546e-07
8.30637e-06
2.06578e-07
8.35192e-06
2.0901e-07
8.40044e-06
2.05604e-07
8.45103e-06
1.96323e-07
8.50259e-06
1.81378e-07
8.55368e-06
1.61376e-07
8.6026e-06
1.37246e-07
8.64767e-06
1.10039e-07
8.68755e-06
8.07336e-08
8.72107e-06
5.03289e-08
8.74739e-06
1.97369e-08
8.76591e-06
-1.02979e-08
8.7765e-06
-3.8927e-08
8.77885e-06
-6.59483e-08
8.7735e-06
-8.96403e-08
8.75935e-06
-1.11538e-07
8.73818e-06
-1.2672e-07
-1.42676e-07
8.54164e-06
-2.4283e-07
8.44111e-06
-2.30139e-07
8.34707e-06
-2.17186e-07
8.2602e-06
-2.03137e-07
8.18092e-06
-1.87034e-07
8.1096e-06
-1.67972e-07
8.0466e-06
-1.45224e-07
7.99237e-06
-1.18291e-07
7.94738e-06
-8.68789e-08
7.91205e-06
-5.09211e-08
7.88675e-06
-1.07433e-08
7.8717e-06
3.27887e-08
7.86711e-06
7.83547e-08
7.87315e-06
1.2445e-07
7.88981e-06
1.69576e-07
7.91694e-06
2.12269e-07
7.95428e-06
2.51066e-07
8.00137e-06
2.84539e-07
8.05765e-06
3.1139e-07
8.12238e-06
3.30526e-07
8.19463e-06
3.41046e-07
8.27334e-06
3.42124e-07
8.35737e-06
3.33033e-07
8.44543e-06
3.13378e-07
8.5359e-06
2.83294e-07
8.62658e-06
2.43622e-07
8.71436e-06
1.96214e-07
8.79576e-06
1.43465e-07
8.86773e-06
8.77672e-08
8.92773e-06
3.14772e-08
8.97382e-06
-2.33027e-08
9.00485e-06
-7.49467e-08
9.02045e-06
-1.22251e-07
9.02051e-06
-1.63992e-07
9.00464e-06
-1.98439e-07
8.97301e-06
-2.24513e-07
8.92697e-06
-2.42097e-07
8.869e-06
-2.5204e-07
8.80203e-06
-2.55633e-07
8.72906e-06
-2.54327e-07
8.65295e-06
-2.49557e-07
8.57634e-06
-2.42586e-07
8.50124e-06
-2.34185e-07
8.42892e-06
-2.24569e-07
8.36028e-06
-2.13648e-07
8.29597e-06
-2.01156e-07
8.23649e-06
-1.86746e-07
8.1823e-06
-1.70076e-07
8.13383e-06
-1.50874e-07
8.09153e-06
-1.28968e-07
8.05587e-06
-1.04291e-07
8.0273e-06
-7.68642e-08
8.00621e-06
-4.68424e-08
7.99287e-06
-1.46359e-08
7.98752e-06
1.90071e-08
7.99035e-06
5.31013e-08
8.00144e-06
8.66577e-08
8.02068e-06
1.18719e-07
8.04784e-06
1.48285e-07
8.08262e-06
1.7434e-07
8.12459e-06
1.95919e-07
8.17324e-06
2.12148e-07
8.22793e-06
2.2228e-07
8.28787e-06
2.25737e-07
8.35208e-06
2.22159e-07
8.41935e-06
2.11441e-07
8.48818e-06
1.93812e-07
8.55653e-06
1.70067e-07
8.62198e-06
1.41448e-07
8.68221e-06
1.09322e-07
8.73527e-06
7.50486e-08
8.77952e-06
3.99653e-08
8.81376e-06
5.2494e-09
8.83732e-06
-2.81725e-08
8.84999e-06
-5.95803e-08
8.85176e-06
-8.81843e-08
8.8424e-06
-1.12845e-07
8.82206e-06
-1.32775e-07
8.7916e-06
-1.4773e-07
8.75251e-06
-1.58021e-07
8.70657e-06
-1.64203e-07
8.65562e-06
-1.6693e-07
8.60143e-06
-1.66866e-07
8.54566e-06
-1.64641e-07
8.48983e-06
-1.60795e-07
8.43509e-06
-1.55616e-07
8.38226e-06
-1.49139e-07
8.332e-06
-1.41285e-07
8.28486e-06
-1.31913e-07
8.24134e-06
-1.20858e-07
8.20188e-06
-1.07971e-07
8.16691e-06
-9.31407e-08
8.13682e-06
-7.63002e-08
8.11199e-06
-5.74353e-08
8.09275e-06
-3.66474e-08
8.07938e-06
-1.42154e-08
8.07212e-06
9.40269e-09
8.07114e-06
3.35705e-08
8.07661e-06
5.75209e-08
8.08854e-06
8.05538e-08
8.10676e-06
1.02015e-07
8.13101e-06
1.21211e-07
8.16096e-06
1.37447e-07
8.1962e-06
1.50078e-07
8.23617e-06
1.58566e-07
8.28024e-06
1.62511e-07
8.32759e-06
1.61662e-07
8.37724e-06
1.55958e-07
8.42797e-06
1.45593e-07
8.47822e-06
1.31122e-07
8.5263e-06
1.13302e-07
8.57065e-06
9.28959e-08
8.60997e-06
7.07132e-08
8.64317e-06
4.75375e-08
8.66941e-06
2.40871e-08
8.6882e-06
9.45748e-10
8.69932e-06
-2.14149e-08
8.70279e-06
-4.23968e-08
8.6983e-06
-6.14609e-08
8.68622e-06
-7.7563e-08
8.66628e-06
-9.15922e-08
8.64033e-06
-1.0077e-07
-1.10267e-07
8.39094e-06
-1.4823e-07
8.30251e-06
-1.41709e-07
8.22066e-06
-1.35333e-07
8.1456e-06
-1.28082e-07
8.07751e-06
-1.18943e-07
8.01659e-06
-1.07053e-07
7.96316e-06
-9.17882e-08
7.91764e-06
-7.27736e-08
7.88056e-06
-4.97997e-08
7.85243e-06
-2.27939e-08
7.83368e-06
8.00762e-09
7.82467e-06
4.18032e-08
7.82574e-06
7.7285e-08
7.83707e-06
1.1312e-07
7.85869e-06
1.47956e-07
7.89051e-06
1.80443e-07
7.93231e-06
2.0927e-07
7.9837e-06
2.33146e-07
8.04419e-06
2.50906e-07
8.11301e-06
2.61698e-07
8.18912e-06
2.64944e-07
8.27124e-06
2.59998e-07
8.35802e-06
2.46258e-07
8.44771e-06
2.23688e-07
8.53776e-06
1.93239e-07
8.62481e-06
1.56576e-07
8.70537e-06
1.1565e-07
8.77647e-06
7.23694e-08
8.83556e-06
2.86748e-08
8.8808e-06
-1.37595e-08
8.91122e-06
-5.37213e-08
8.92661e-06
-9.03368e-08
8.92682e-06
-1.22461e-07
8.91135e-06
-1.48527e-07
8.88065e-06
-1.6774e-07
8.83639e-06
-1.80251e-07
8.78121e-06
-1.86914e-07
8.71807e-06
-1.88902e-07
8.64992e-06
-1.8748e-07
8.5795e-06
-1.83909e-07
8.50915e-06
-1.79211e-07
8.44049e-06
-1.73922e-07
8.37448e-06
-1.68172e-07
8.31176e-06
-1.6185e-07
8.25278e-06
-1.54675e-07
8.19791e-06
-1.4628e-07
8.14745e-06
-1.36287e-07
8.10174e-06
-1.24369e-07
8.06116e-06
-1.10295e-07
8.02614e-06
-9.39452e-08
7.99714e-06
-7.52907e-08
7.97464e-06
-5.43665e-08
7.95908e-06
-3.12822e-08
7.95083e-06
-6.38487e-09
7.95027e-06
1.95632e-08
7.95768e-06
4.56999e-08
7.97307e-06
7.12637e-08
7.99635e-06
9.54346e-08
8.02732e-06
1.1732e-07
8.06565e-06
1.36013e-07
8.11089e-06
1.50678e-07
8.16243e-06
1.60609e-07
8.21947e-06
1.65236e-07
8.28101e-06
1.64197e-07
8.34574e-06
1.57432e-07
8.41192e-06
1.4526e-07
8.47735e-06
1.28383e-07
8.53967e-06
1.07747e-07
8.59676e-06
8.43541e-08
8.6468e-06
5.92846e-08
8.68828e-06
3.35683e-08
8.72017e-06
8.07494e-09
8.74197e-06
-1.65558e-08
8.75363e-06
-3.98294e-08
8.75508e-06
-6.10335e-08
8.74608e-06
-7.91781e-08
8.7269e-06
-9.36634e-08
8.69854e-06
-1.04416e-07
8.66254e-06
-1.11737e-07
8.62063e-06
-1.16103e-07
8.57448e-06
-1.18062e-07
8.52572e-06
-1.18169e-07
8.47581e-06
-1.16949e-07
8.42598e-06
-1.14816e-07
8.37715e-06
-1.11959e-07
8.32992e-06
-1.0839e-07
8.2848e-06
-1.04021e-07
8.24222e-06
-9.87021e-08
8.20255e-06
-9.2248e-08
8.16617e-06
-8.44769e-08
8.13345e-06
-7.52449e-08
8.10476e-06
-6.44571e-08
8.0805e-06
-5.20396e-08
8.06101e-06
-3.7944e-08
8.0466e-06
-2.22319e-08
8.03756e-06
-5.17885e-09
8.03423e-06
1.27286e-08
8.03698e-06
3.08275e-08
8.04599e-06
4.85126e-08
8.06119e-06
6.53473e-08
8.08237e-06
8.0834e-08
8.10919e-06
9.43897e-08
8.14124e-06
1.05397e-07
8.17802e-06
1.133e-07
8.21889e-06
1.17702e-07
8.263e-06
1.18391e-07
8.30934e-06
1.15322e-07
8.35659e-06
1.08715e-07
8.40314e-06
9.90362e-08
8.44744e-06
8.68219e-08
8.48814e-06
7.26096e-08
8.52403e-06
5.69992e-08
8.55417e-06
4.05786e-08
8.57786e-06
2.385e-08
8.59473e-06
7.21279e-09
8.60468e-06
-9.00673e-09
8.60766e-06
-2.4393e-08
8.60352e-06
-3.82583e-08
8.59229e-06
-5.02269e-08
8.57458e-06
-5.98549e-08
8.55096e-06
-6.79693e-08
8.52301e-06
-7.28192e-08
-7.85989e-08
8.23714e-06
-7.12733e-08
8.16577e-06
-7.03357e-08
8.09994e-06
-6.95047e-08
8.03962e-06
-6.77682e-08
7.9849e-06
-6.42144e-08
7.93597e-06
-5.8132e-08
7.89325e-06
-4.90671e-08
7.85728e-06
-3.68011e-08
7.8287e-06
-2.12236e-08
7.80818e-06
-2.26942e-09
7.79631e-06
1.98758e-08
7.7937e-06
4.44191e-08
7.80067e-06
7.03094e-08
7.81734e-06
9.64548e-08
7.84382e-06
1.21474e-07
7.88011e-06
1.4415e-07
7.92598e-06
1.634e-07
7.98107e-06
1.78057e-07
8.04496e-06
1.87019e-07
8.11683e-06
1.89823e-07
8.1951e-06
1.86672e-07
8.27784e-06
1.77266e-07
8.36296e-06
1.61136e-07
8.44771e-06
1.38939e-07
8.52872e-06
1.1223e-07
8.60279e-06
8.25041e-08
8.66717e-06
5.12703e-08
8.71962e-06
1.99228e-08
8.75871e-06
-1.04181e-08
8.78392e-06
-3.89746e-08
8.79532e-06
-6.51196e-08