/*--------------------------------*- C++ -*----------------------------------*\
| =========                 |                                                 |
| \\      /  F ield         | OpenFOAM: The Open Source CFD Toolbox           |
|  \\    /   O peration     | Version:  2206                                  |
|   \\  /    A nd           | Website:  www.openfoam.com                      |
|    \\/     M anipulation  |                                                 |
\*---------------------------------------------------------------------------*/
FoamFile
{
    version     2.0;
    format      ascii;
    arch        "LSB;label=32;scalar=64";
    class       volVectorField;
    location    "18.3";
    object      ddtCorrDdt0(U);
}
// * * * * * * * * * * * * * * * * * * * * * * * * * * * * * * * * * * * * * //

dimensions      [0 1 -2 0 0 0 0];

internalField   nonuniform List<vector> 
3050
(
(17.5699 18.7593 0)
(21.8343 9.29866 0)
(25.0874 0.581787 0)
(27.5681 -6.97003 0)
(28.9041 -13.6025 0)
(29.1357 -19.4734 0)
(28.3903 -24.8034 0)
(26.8394 -29.7954 0)
(24.6704 -34.5725 0)
(22.0308 -39.1466 0)
(19.0226 -43.4362 0)
(15.7141 -47.2867 0)
(12.1579 -50.4722 0)
(8.41641 -52.6624 0)
(4.5842 -53.2989 0)
(0.846378 -52.5793 0)
(-2.69287 -50.5951 0)
(-5.94579 -47.3973 0)
(-8.82333 -43.111 0)
(-11.2529 -37.9295 0)
(-13.1971 -32.0934 0)
(-14.6558 -25.851 0)
(-15.6796 -19.3912 0)
(-16.5807 -12.7069 0)
(-17.6988 -5.43514 0)
(-18.2437 2.42097 0)
(-18.6731 10.3652 0)
(-18.7705 18.2336 0)
(-18.5285 25.7898 0)
(-18.0433 32.8578 0)
(-17.3464 39.2944 0)
(-16.4355 44.9352 0)
(-15.2735 49.5445 0)
(-13.7224 52.7088 0)
(-11.5202 53.6689 0)
(-8.87115 52.7674 0)
(-6.0346 50.4185 0)
(-2.3398 46.8718 0)
(-0.447748 42.0665 0)
(3.54924 36.3925 0)
(6.766 30.2207 0)
(9.60973 23.9021 0)
(12.5106 17.4303 0)
(15.5225 10.7769 0)
(17.9042 4.12589 0)
(19.7087 -1.90008 0)
(20.822 -7.4215 0)
(21.1489 -12.5117 0)
(20.7581 -17.2017 0)
(19.7568 -21.5481 0)
(18.2702 -25.5939 0)
(16.4072 -29.3351 0)
(14.2503 -32.7224 0)
(11.861 -35.6689 0)
(9.28742 -38.0438 0)
(6.57771 -39.64 0)
(3.79251 -40.0732 0)
(1.06566 -39.5447 0)
(-1.53354 -38.1139 0)
(-3.94376 -35.8182 0)
(-6.10085 -32.7402 0)
(-7.95204 -29.0093 0)
(-9.46868 -24.7886 0)
(-10.6465 -20.2475 0)
(-11.5023 -15.5237 0)
(-12.1933 -10.6528 0)
(-13.0308 -5.42983 0)
(-13.574 0.266278 0)
(-13.9337 6.05203 0)
(-14.0936 11.8333 0)
(-13.9611 17.4345 0)
(-13.5958 22.6976 0)
(-13.0322 27.5031 0)
(-12.2773 31.7282 0)
(-11.3259 35.2322 0)
(-10.1293 37.8097 0)
(-8.53139 39.0619 0)
(-6.5566 38.8675 0)
(-4.38584 37.6467 0)
(-2.04937 35.4804 0)
(0.387268 32.4841 0)
(2.80352 28.8064 0)
(5.08883 24.6624 0)
(7.18658 20.2428 0)
(9.10129 15.6561 0)
(10.9607 10.9508 0)
(12.7675 6.117 0)
(14.0085 1.37081 0)
(14.8922 -3.06927 0)
(15.2785 -7.30491 0)
(15.1466 -11.3063 0)
(14.557 -15.0352 0)
(13.5861 -18.4771 0)
(12.308 -21.6111 0)
(10.786 -24.3966 0)
(9.07211 -26.7772 0)
(7.20757 -28.6721 0)
(5.23076 -29.9469 0)
(3.18614 -30.3347 0)
(1.175 -29.9685 0)
(-0.746977 -28.9352 0)
(-2.54081 -27.2673 0)
(-4.16262 -25.0249 0)
(-5.5731 -22.2971 0)
(-6.74618 -19.1947 0)
(-7.67412 -15.8377 0)
(-8.36483 -12.332 0)
(-8.89029 -8.73053 0)
(-9.47535 -4.94141 0)
(-9.99419 -0.806361 0)
(-10.2545 3.45716 0)
(-10.4144 7.72859 0)
(-10.3405 11.8997 0)
(-10.0607 15.8488 0)
(-9.60086 19.4749 0)
(-8.97327 22.7344 0)
(-8.17485 25.4573 0)
(-7.16225 27.7674 0)
(-5.88921 28.776 0)
(-4.20456 29.0492 0)
(-2.90578 28.9996 0)
(-0.126351 26.5242 0)
(22.6254 14.2066 0)
(26.7309 5.36185 0)
(29.9814 -2.18615 0)
(32.0097 -8.64192 0)
(32.8074 -14.1436 0)
(32.4914 -18.9599 0)
(31.2146 -23.4087 0)
(29.1806 -27.7156 0)
(26.589 -31.9759 0)
(23.5855 -36.1521 0)
(20.2566 -40.1185 0)
(16.6493 -43.698 0)
(12.8062 -46.6656 0)
(8.79032 -48.7168 0)
(4.6969 -49.3645 0)
(0.702153 -48.7924 0)
(-3.09664 -47.0514 0)
(-6.60967 -44.1878 0)
(-9.74924 -40.3126 0)
(-12.4517 -35.5919 0)
(-14.6939 -30.2233 0)
(-16.483 -24.3919 0)
(-17.9082 -18.211 0)
(-19.2646 -11.6205 0)
(-20.5428 -4.45495 0)
(-21.3054 3.056 0)
(-21.868 10.6566 0)
(-22.0467 18.1924 0)
(-21.8625 25.4457 0)
(-21.3724 32.2428 0)
(-20.5895 38.4185 0)
(-19.5 43.7677 0)
(-18.0261 47.9875 0)
(-15.9278 50.5632 0)
(-13.0514 50.9022 0)
(-9.77464 49.6656 0)
(-6.22293 47.0669 0)
(-2.34354 43.38 0)
(1.70995 38.5196 0)
(5.58634 32.8194 0)
(9.19537 26.8653 0)
(12.7046 20.7163 0)
(16.2799 14.3394 0)
(19.3529 7.91179 0)
(21.6555 2.05529 0)
(23.2324 -3.19306 0)
(23.957 -7.94852 0)
(23.8807 -12.2803 0)
(23.0899 -16.3043 0)
(21.7061 -20.1158 0)
(19.8666 -23.7471 0)
(17.6829 -27.167 0)
(15.2328 -30.3018 0)
(12.5695 -33.0474 0)
(9.73518 -35.2664 0)
(6.78081 -36.7632 0)
(3.77559 -37.2015 0)
(0.847871 -36.7705 0)
(-1.94444 -35.5005 0)
(-4.54233 -33.429 0)
(-6.88575 -30.6319 0)
(-8.92874 -27.2213 0)
(-10.6496 -23.3313 0)
(-12.0491 -19.0914 0)
(-13.1683 -14.5895 0)
(-14.1833 -9.81506 0)
(-15.2147 -4.65223 0)
(-15.8345 0.812992 0)
(-16.3107 6.33932 0)
(-16.5147 11.8558 0)
(-16.4202 17.2006 0)
(-16.064 22.227 0)
(-15.4561 26.8072 0)
(-14.5867 30.8009 0)
(-13.4183 34.0322 0)
(-11.8365 36.243 0)
(-9.6819 36.9625 0)
(-7.18058 36.5323 0)
(-4.46671 35.1202 0)
(-1.61038 32.8423 0)
(1.29182 29.8324 0)
(4.12633 26.2498 0)
(6.80507 22.2635 0)
(9.30077 18.013 0)
(11.6693 13.5794 0)
(13.8882 9.02457 0)
(15.5882 4.53393 0)
(16.7773 0.356835 0)
(17.443 -3.57471 0)
(17.5456 -7.29254 0)
(17.1258 -10.8001 0)
(16.2478 -14.1083 0)
(14.993 -17.2092 0)
(13.4417 -20.0722 0)
(11.66 -22.646 0)
(9.69955 -24.8618 0)
(7.60096 -26.6303 0)
(5.40516 -27.822 0)
(3.16486 -28.2043 0)
(0.979236 -27.907 0)
(-1.10639 -26.9874 0)
(-3.05313 -25.4769 0)
(-4.81897 -23.4313 0)
(-6.37044 -20.9302 0)
(-7.68919 -18.0677 0)
(-8.77339 -14.9375 0)
(-9.64325 -11.6111 0)
(-10.3931 -8.10472 0)
(-11.1538 -4.35188 0)
(-11.695 -0.353658 0)
(-12.0472 3.70095 0)
(-12.2261 7.76345 0)
(-12.1634 11.7237 0)
(-11.8782 15.4712 0)
(-11.3736 18.8964 0)
(-10.6573 21.975 0)
(-9.6929 24.4497 0)
(-8.38389 26.4445 0)
(-6.75941 27.1899 0)
(-4.67423 27.2399 0)
(-3.0992 27.0697 0)
(0.238828 24.5257 0)
(27.5179 9.28213 0)
(31.5996 1.75335 0)
(34.3614 -4.57189 0)
(35.7605 -9.79082 0)
(35.9149 -14.1134 0)
(34.9764 -17.8933 0)
(33.1523 -21.497 0)
(30.6726 -25.1692 0)
(27.7336 -28.9769 0)
(24.4521 -32.8206 0)
(20.8808 -36.5115 0)
(17.0589 -39.8501 0)
(13.023 -42.6204 0)
(8.82622 -44.5462 0)
(4.56009 -45.2143 0)
(0.391769 -44.7827 0)
(-3.59281 -43.2763 0)
(-7.30922 -40.7379 0)
(-10.6761 -37.2614 0)
(-13.6376 -32.9808 0)
(-16.1685 -28.0447 0)
(-18.2863 -22.5805 0)
(-20.1123 -16.646 0)
(-21.8464 -10.2065 0)
(-23.2235 -3.29385 0)
(-24.1957 3.82543 0)
(-24.865 11.0538 0)
(-25.1178 18.2196 0)
(-24.9817 25.1202 0)
(-24.4808 31.5814 0)
(-23.6069 37.4116 0)
(-22.3071 42.3526 0)
(-20.4053 46.0113 0)
(-17.5626 47.6836 0)
(-13.9911 47.5175 0)
(-9.9788 45.8837 0)
(-5.63492 42.9751 0)
(-1.07145 39.0289 0)
(3.51027 34.2163 0)
(7.90636 28.7866 0)
(12.1355 23.0091 0)
(16.344 16.9907 0)
(20.0677 10.857 0)
(22.9606 5.22427 0)
(25.0469 0.258635 0)
(26.209 -4.15427 0)
(26.5004 -8.08109 0)
(25.9962 -11.6517 0)
(24.8013 -15.0259 0)
(23.0629 -18.3241 0)
(20.9229 -21.5719 0)
(18.4791 -24.7052 0)
(15.7966 -27.614 0)
(12.9237 -30.1771 0)
(9.89991 -32.2576 0)
(6.76955 -33.6755 0)
(3.60381 -34.1457 0)
(0.522075 -33.8214 0)
(-2.42357 -32.7194 0)
(-5.1766 -30.8743 0)
(-7.68163 -28.3526 0)
(-9.89979 -25.2474 0)
(-11.8147 -21.663 0)
(-13.4359 -17.6916 0)
(-14.8335 -13.3831 0)
(-16.1433 -8.72372 0)
(-17.265 -3.72562 0)
(-18.0296 1.44767 0)
(-18.5909 6.69867 0)
(-18.8433 11.9296 0)
(-18.7855 16.9877 0)
(-18.4253 21.7329 0)
(-17.7479 26.0207 0)
(-16.7135 29.6798 0)
(-15.2221 32.4938 0)
(-13.0791 34.0815 0)
(-10.3625 34.3722 0)
(-7.34002 33.6695 0)
(-4.10729 32.077 0)
(-0.768777 29.7231 0)
(2.56004 26.7442 0)
(5.77859 23.279 0)
(8.83951 19.4587 0)
(11.7551 15.3924 0)
(14.4497 11.1805 0)
(16.5931 7.00716 0)
(18.1686 3.13844 0)
(19.1662 -0.45692 0)
(19.5606 -3.82589 0)
(19.3843 -6.99548 0)
(18.6845 -10.0102 0)
(17.5349 -12.9029 0)
(16.023 -15.6724 0)
(14.2335 -18.2795 0)
(12.2323 -20.6557 0)
(10.0698 -22.7193 0)
(7.78569 -24.377 0)
(5.42131 -25.5073 0)
(3.03326 -25.9134 0)
(0.712345 -25.6976 0)
(-1.50237 -24.9015 0)
(-3.5743 -23.5546 0)
(-5.46571 -21.7072 0)
(-7.14887 -19.4269 0)
(-8.61151 -16.7894 0)
(-9.85825 -13.8634 0)
(-10.9238 -10.6936 0)
(-11.8935 -7.28675 0)
(-12.7772 -3.64355 0)
(-13.3636 0.151109 0)
(-13.7953 3.98955 0)
(-13.9988 7.82736 0)
(-13.949 11.5529 0)
(-13.6485 15.0641 0)
(-13.08 18.2405 0)
(-12.2406 21.0657 0)
(-11.0273 23.1952 0)
(-9.33846 24.7492 0)
(-7.34782 25.222 0)
(-4.85598 25.0768 0)
(-3.00082 24.7683 0)
(0.867545 22.1649 0)
(32.428 4.79479 0)
(35.9474 -1.36962 0)
(37.9555 -6.32854 0)
(38.5721 -10.2172 0)
(37.8612 -13.3352 0)
(36.2683 -16.185 0)
(34.0519 -19.1279 0)
(31.3293 -22.3245 0)
(28.1974 -25.7772 0)
(24.7024 -29.2968 0)
(20.9683 -32.7208 0)
(17.022 -35.8459 0)
(12.8648 -38.4329 0)
(8.55247 -40.2399 0)
(4.18253 -40.9359 0)
(-0.0918159 -40.6334 0)
(-4.19813 -39.3424 0)
(-8.06045 -37.1003 0)
(-11.6074 -33.9839 0)
(-14.7928 -30.097 0)
(-17.6005 -25.5456 0)
(-20.064 -20.4101 0)
(-22.2919 -14.7295 0)
(-24.2814 -8.54901 0)
(-25.7445 -2.0114 0)
(-26.8983 4.71319 0)
(-27.6518 11.5481 0)
(-27.9744 18.3089 0)
(-27.8773 24.8099 0)
(-27.3518 30.8639 0)
(-26.3464 36.2335 0)
(-24.7043 40.5757 0)
(-22.0671 43.2869 0)
(-18.3866 44.065 0)
(-14.0848 43.3566 0)
(-9.33386 41.3271 0)
(-4.30332 38.1953 0)
(0.819366 34.171 0)
(5.85565 29.4405 0)
(10.7872 24.2048 0)
(15.6867 18.6228 0)
(20.0329 12.8466 0)
(23.5589 7.55281 0)
(26.1798 2.91499 0)
(27.7888 -1.14495 0)
(28.4517 -4.6627 0)
(28.2419 -7.74708 0)
(27.2445 -10.5755 0)
(25.7239 -13.3785 0)
(23.7618 -16.253 0)
(21.4322 -19.1756 0)
(18.8092 -22.037 0)
(15.9941 -24.7496 0)
(13.0025 -27.1585 0)
(9.85996 -29.113 0)
(6.61471 -30.4565 0)
(3.34107 -30.9606 0)
(0.148513 -30.7377 0)
(-2.91512 -29.7961 0)
(-5.79839 -28.1664 0)
(-8.45324 -25.9042 0)
(-10.8486 -23.0822 0)
(-12.9738 -19.7749 0)
(-14.8484 -16.0418 0)
(-16.5385 -11.9185 0)
(-18.0746 -7.44451 0)
(-19.2353 -2.7052 0)
(-20.1509 2.16539 0)
(-20.7782 7.12789 0)
(-21.0761 12.0509 0)
(-21.0372 16.7867 0)
(-20.6391 21.1884 0)
(-19.8322 25.0888 0)
(-18.5103 28.2823 0)
(-16.4698 30.4289 0)
(-13.6805 31.3207 0)
(-10.4523 31.2474 0)
(-6.92596 30.283 0)
(-3.22405 28.5509 0)
(0.525173 26.172 0)
(4.20935 23.2624 0)
(7.778 19.9395 0)
(11.2266 16.3219 0)
(14.4049 12.5095 0)
(16.9753 8.71099 0)
(18.9728 5.21701 0)
(20.3187 1.98045 0)
(21.0229 -1.02576 0)
(21.124 -3.80856 0)
(20.6524 -6.42163 0)
(19.6803 -8.94874 0)
(18.3242 -11.4529 0)
(16.628 -13.9093 0)
(14.6857 -16.2811 0)
(12.5537 -18.487 0)
(10.2687 -20.4232 0)
(7.86523 -21.985 0)
(5.38567 -23.0627 0)
(2.88935 -23.4991 0)
(0.458279 -23.3662 0)
(-1.87041 -22.694 0)
(-4.06165 -21.5086 0)
(-6.08159 -19.8529 0)
(-7.90787 -17.7813 0)
(-9.53267 -15.3499 0)
(-10.9664 -12.6059 0)
(-12.2467 -9.58218 0)
(-13.4057 -6.3107 0)
(-14.3335 -2.84987 0)
(-15.0226 0.704963 0)
(-15.5065 4.31792 0)
(-15.7311 7.91168 0)
(-15.68 11.375 0)
(-15.3379 14.6075 0)
(-14.6619 17.4751 0)
(-13.6083 19.9523 0)
(-11.9851 21.5559 0)
(-9.8754 22.6506 0)
(-7.53372 22.8764 0)
(-4.66488 22.5686 0)
(-2.54073 22.1091 0)
(1.79078 19.4813 0)
(36.7564 0.905058 0)
(39.3616 -3.74391 0)
(40.4284 -7.18715 0)
(39.9559 -9.70323 0)
(38.5968 -11.8693 0)
(36.5703 -14.0735 0)
(34.0468 -16.5169 0)
(31.1407 -19.2861 0)
(27.9003 -22.3698 0)
(24.3622 -25.644 0)
(20.5499 -28.842 0)
(16.5343 -31.7425 0)
(12.338 -34.156 0)
(7.98233 -35.853 0)
(3.56988 -36.5837 0)
(-0.757928 -36.3981 0)
(-4.93989 -35.3027 0)
(-8.91079 -33.3254 0)
(-12.6079 -30.5234 0)
(-15.9942 -26.97 0)
(-19.0638 -22.7403 0)
(-21.8511 -17.9005 0)
(-24.374 -12.5202 0)
(-26.4258 -6.70159 0)
(-28.1053 -0.61265 0)
(-29.3868 5.70691 0)
(-30.224 12.1226 0)
(-30.6128 18.4471 0)
(-30.5318 24.4953 0)
(-29.9204 30.0406 0)
(-28.616 34.7629 0)
(-26.2557 38.1133 0)
(-22.6345 39.6265 0)
(-18.2074 39.7148 0)
(-13.1767 38.4681 0)
(-7.76375 36.1044 0)
(-2.19349 32.8198 0)
(3.34934 28.7977 0)
(8.86922 24.2202 0)
(14.4104 19.1783 0)
(19.3235 13.7971 0)
(23.4646 8.93344 0)
(26.6029 4.69949 0)
(28.6492 1.05475 0)
(29.6761 -2.01433 0)
(29.6999 -4.59162 0)
(28.9317 -6.88593 0)
(27.6384 -9.15136 0)
(25.9166 -11.5205 0)
(23.836 -14.0233 0)
(21.4455 -16.6429 0)
(18.784 -19.2949 0)
(15.8802 -21.8011 0)
(12.8131 -24.0378 0)
(9.60928 -25.8714 0)
(6.29801 -27.1468 0)
(2.9565 -27.6894 0)
(-0.313106 -27.5623 0)
(-3.46677 -26.7702 0)
(-6.45947 -25.3359 0)
(-9.2505 -23.3011 0)
(-11.8155 -20.7188 0)
(-14.1491 -17.6445 0)
(-16.2715 -14.1276 0)
(-18.1975 -10.2231 0)
(-19.8052 -6.0045 0)
(-21.1163 -1.59055 0)
(-22.1479 2.97922 0)
(-22.8479 7.61734 0)
(-23.187 12.1889 0)
(-23.1321 16.5474 0)
(-22.6203 20.5224 0)
(-21.5232 23.9007 0)
(-19.612 26.3317 0)
(-16.8522 27.6395 0)
(-13.5391 28.0571 0)
(-9.82331 27.6209 0)
(-5.85661 26.4396 0)
(-1.78819 24.6198 0)
(2.25853 22.2603 0)
(6.23968 19.4666 0)
(10.1528 16.3324 0)
(13.7358 12.9212 0)
(16.7562 9.58195 0)
(19.1587 6.52353 0)
(20.8478 3.70135 0)
(21.8504 1.10714 0)
(22.2026 -1.25708 0)
(21.9135 -3.43916 0)
(21.1879 -5.55778 0)
(20.0769 -7.68876 0)
(18.6344 -9.85775 0)
(16.899 -12.0521 0)
(14.9036 -14.2157 0)
(12.6799 -16.2328 0)
(10.3088 -18.0237 0)
(7.83129 -19.4929 0)
(5.2767 -20.5246 0)
(2.70343 -20.9935 0)
(0.18731 -20.9388 0)
(-2.23591 -20.3822 0)
(-4.53527 -19.3447 0)
(-6.68179 -17.86 0)
(-8.65687 -15.9699 0)
(-10.4551 -13.7172 0)
(-12.0868 -11.1419 0)
(-13.562 -8.28793 0)
(-14.8145 -5.20816 0)
(-15.8123 -1.98719 0)
(-16.5993 1.3285 0)
(-17.1284 4.69113 0)
(-17.3709 8.00272 0)
(-17.2952 11.1562 0)
(-16.8553 14.0482 0)
(-15.9532 16.5074 0)
(-14.4409 18.3767 0)
(-12.4209 19.5587 0)
(-9.85266 20.127 0)
(-7.22986 20.1777 0)
(-4.05062 19.7516 0)
(-1.68781 19.1337 0)
(2.98044 16.5398 0)
(39.9233 -2.04352 0)
(41.3729 -5.01766 0)
(41.1358 -6.95303 0)
(39.9614 -8.4385 0)
(38.1125 -9.91953 0)
(35.7985 -11.644 0)
(33.1405 -13.7218 0)
(30.1901 -16.1787 0)
(26.9574 -18.9628 0)
(23.4443 -21.9479 0)
(19.6712 -24.934 0)
(15.6668 -27.6435 0)
(11.485 -29.8727 0)
(7.15252 -31.4569 0)
(2.74945 -32.2147 0)
(-1.59778 -32.1161 0)
(-5.82483 -31.1793 0)
(-9.88136 -29.4212 0)
(-13.7127 -26.8831 0)
(-17.2895 -23.6209 0)
(-20.603 -19.6964 0)
(-23.6184 -15.1707 0)
(-26.1963 -10.1332 0)
(-28.4158 -4.7534 0)
(-30.2376 0.933266 0)
(-31.6287 6.82667 0)
(-32.5609 12.777 0)
(-32.9898 18.6139 0)
(-32.8394 24.1112 0)
(-31.9238 28.9542 0)
(-29.8476 32.5853 0)
(-26.3844 34.5688 0)
(-21.9687 35.2255 0)
(-16.7969 34.6107 0)
(-11.1265 32.9167 0)
(-5.22865 30.3299 0)
(0.682808 27.0055 0)
(6.63169 23.102 0)
(12.6403 18.6151 0)
(18.054 13.7406 0)
(22.6995 9.372 0)
(26.2666 5.59514 0)
(28.686 2.42296 0)
(30.0368 -0.148587 0)
(30.3285 -2.19916 0)
(29.806 -3.95674 0)
(28.7641 -5.69517 0)
(27.2984 -7.55283 0)
(25.491 -9.5775 0)
(23.3848 -11.7716 0)
(20.9996 -14.0998 0)
(18.3513 -16.4867 0)
(15.4668 -18.8115 0)
(12.3843 -20.8992 0)
(9.15499 -22.5934 0)
(5.82838 -23.7935 0)
(2.45628 -24.3618 0)
(-0.87111 -24.3089 0)
(-4.10222 -23.6411 0)
(-7.19632 -22.3723 0)
(-10.121 -20.5341 0)
(-12.8588 -18.169 0)
(-15.3977 -15.3219 0)
(-17.7104 -12.0368 0)
(-19.7046 -8.37811 0)
(-21.4351 -4.47778 0)
(-22.871 -0.365663 0)
(-23.9795 3.88852 0)
(-24.7237 8.16684 0)
(-25.0488 12.3321 0)
(-24.8716 16.2218 0)
(-24.0367 19.5933 0)
(-22.2569 22.0692 0)
(-19.6043 23.6077 0)
(-16.3064 24.3394 0)
(-12.5128 24.2974 0)
(-8.39667 23.564 0)
(-4.13285 22.2398 0)
(0.141868 20.401 0)
(4.40224 18.1354 0)
(8.64769 15.484 0)
(12.5201 12.474 0)
(15.9094 9.62981 0)
(18.6367 7.03204 0)
(20.6296 4.66836 0)
(21.9129 2.54242 0)
(22.5418 0.63443 0)
(22.5126 -1.11778 0)
(22.0504 -2.82453 0)
(21.2012 -4.57297 0)
(20.0216 -6.38576 0)
(18.5498 -8.25747 0)
(16.8067 -10.1657 0)
(14.8102 -12.0738 0)
(12.5895 -13.9181 0)
(10.1899 -15.589 0)
(7.66249 -16.9508 0)
(5.06855 -17.9259 0)
(2.45111 -18.4146 0)
(-0.130411 -18.422 0)
(-2.63898 -17.9626 0)
(-5.04527 -17.0536 0)
(-7.32515 -15.7218 0)
(-9.46059 -14.0002 0)
(-11.4363 -11.9237 0)
(-13.2289 -9.52732 0)
(-14.7762 -6.86095 0)
(-16.1109 -4.02697 0)
(-17.2093 -1.0544 0)
(-18.0451 2.0119 0)
(-18.5877 5.0893 0)
(-18.7923 8.07947 0)
(-18.5901 10.863 0)
(-17.8773 13.275 0)
(-16.4672 15.0734 0)
(-14.48 16.3268 0)
(-12.0976 17.0894 0)
(-9.2211 17.3232 0)
(-6.39643 17.2317 0)
(-2.99781 16.6918 0)
(-0.461347 15.9219 0)
(4.34401 13.472 0)
(41.2661 -3.63428 0)
(41.1826 -4.99138 0)
(40.1535 -5.83588 0)
(38.4808 -6.65517 0)
(36.3778 -7.70337 0)
(33.9811 -9.10634 0)
(31.3498 -10.9158 0)
(28.4919 -13.1154 0)
(25.3861 -15.632 0)
(22.0064 -18.3438 0)
(18.3488 -21.0721 0)
(14.4459 -23.5874 0)
(10.3431 -25.6419 0)
(6.08528 -27.0852 0)
(1.73644 -27.8412 0)
(-2.60558 -27.8256 0)
(-6.86416 -27.0066 0)
(-10.9938 -25.4304 0)
(-14.9415 -23.1211 0)
(-18.6484 -20.101 0)
(-22.0544 -16.438 0)
(-25.149 -12.2699 0)
(-27.8863 -7.6665 0)
(-30.2328 -2.68016 0)
(-32.1627 2.59496 0)
(-33.6401 8.03298 0)
(-34.6014 13.4803 0)
(-34.9315 18.7288 0)
(-34.406 23.4409 0)
(-32.5638 27.0323 0)
(-29.2978 29.2232 0)
(-24.9708 30.2148 0)
(-19.7724 30.0477 0)
(-13.9826 28.8676 0)
(-7.91831 26.8764 0)
(-1.80889 24.2109 0)
(4.40454 20.9925 0)
(10.6973 17.0643 0)
(16.4287 12.7531 0)
(21.3762 8.92752 0)
(25.2065 5.65533 0)
(27.8653 2.99195 0)
(29.4374 0.941022 0)
(29.9695 -0.586674 0)
(29.6805 -1.82039 0)
(28.8961 -3.02751 0)
(27.707 -4.36202 0)
(26.1986 -5.88527 0)
(24.4175 -7.61735 0)
(22.3808 -9.54235 0)
(20.0892 -11.6108 0)
(17.5395 -13.744 0)
(14.7387 -15.8332 0)
(11.717 -17.7436 0)
(8.52649 -19.3217 0)
(5.22151 -20.4277 0)
(1.85161 -20.9913 0)
(-1.52335 -21.0013 0)
(-4.83871 -20.4405 0)
(-8.04119 -19.3196 0)
(-11.0905 -17.6512 0)
(-13.9461 -15.459 0)
(-16.5869 -12.8147 0)
(-18.9892 -9.79524 0)
(-21.1222 -6.45788 0)
(-22.9566 -2.85133 0)
(-24.4631 0.946935 0)
(-25.5966 4.83661 0)
(-26.2848 8.69386 0)
(-26.413 12.3474 0)
(-25.8083 15.5371 0)
(-24.124 17.8828 0)
(-21.634 19.485 0)
(-18.4249 20.3605 0)
(-14.6574 20.5521 0)
(-10.5161 20.1448 0)
(-6.19461 19.2294 0)
(-1.845 17.8636 0)
(2.5235 16.0958 0)
(6.90072 13.8801 0)
(10.9523 11.3356 0)
(14.5279 8.96205 0)
(17.4351 6.81153 0)
(19.6251 4.90714 0)
(21.1224 3.25291 0)
(21.9872 1.80292 0)
(22.2538 0.488234 0)
(22.0523 -0.782449 0)
(21.4918 -2.10873 0)
(20.6097 -3.53007 0)
(19.4437 -5.04999 0)
(18.0149 -6.65465 0)
(16.3326 -8.31285 0)
(14.4032 -9.98074 0)
(12.24 -11.6044 0)
(9.87449 -13.109 0)
(7.36258 -14.3824 0)
(4.76656 -15.3031 0)
(2.13261 -15.7953 0)
(-0.504667 -15.8481 0)
(-3.10614 -15.4677 0)
(-5.62667 -14.6631 0)
(-8.02829 -13.4529 0)
(-10.2804 -11.8701 0)
(-12.3572 -9.96157 0)
(-14.2357 -7.78148 0)
(-15.8894 -5.37443 0)
(-17.2938 -2.7818 0)
(-18.4248 -0.0622675 0)
(-19.2461 2.71041 0)
(-19.7019 5.446 0)
(-19.7083 8.01245 0)
(-19.1129 10.2196 0)
(-17.8218 11.9191 0)
(-16 13.1627 0)
(-13.6719 13.9549 0)
(-10.9941 14.3343 0)
(-7.94778 14.3153 0)
(-5.02957 14.121 0)
(-1.5424 13.486 0)
(1.05682 12.6121 0)
(5.72441 10.4335 0)
(39.9088 -3.69427 0)
(38.9708 -3.97864 0)
(37.4464 -4.21503 0)
(35.5589 -4.65069 0)
(33.4465 -5.42821 0)
(31.1678 -6.62311 0)
(28.729 -8.23831 0)
(26.0999 -10.2191 0)
(23.2333 -12.4781 0)
(20.0853 -14.9077 0)
(16.6351 -17.3635 0)
(12.9019 -19.6469 0)
(8.93842 -21.533 0)
(4.78927 -22.8304 0)
(0.537357 -23.5288 0)
(-3.73942 -23.5296 0)
(-7.98222 -22.7908 0)
(-12.137 -21.353 0)
(-16.1323 -19.2379 0)
(-19.9077 -16.4857 0)
(-23.4123 -13.1589 0)
(-26.6032 -9.32926 0)
(-29.4413 -5.0749 0)
(-31.8798 -0.482511 0)
(-33.861 4.34812 0)
(-35.2978 9.27636 0)
(-36.0368 14.0881 0)
(-35.8139 18.4184 0)
(-34.0784 21.7002 0)
(-31.0103 23.8706 0)
(-26.7962 24.9731 0)
(-21.6486 25.0474 0)
(-15.8656 24.2354 0)
(-9.80522 22.7232 0)
(-3.71316 20.6448 0)
(2.54315 18.0831 0)
(8.88905 14.7008 0)
(14.6816 11.0086 0)
(19.6544 7.77282 0)
(23.4972 5.04805 0)
(26.1837 2.91169 0)
(27.8108 1.36946 0)
(28.4749 0.328062 0)
(28.3617 -0.422778 0)
(27.813 -1.13283 0)
(26.9119 -1.96766 0)
(25.7362 -3.00209 0)
(24.3277 -4.26852 0)
(22.6961 -5.76264 0)
(20.8337 -7.44707 0)
(18.7234 -9.26416 0)
(16.3489 -11.1399 0)
(13.705 -12.9838 0)
(10.8077 -14.6849 0)
(7.70427 -16.1128 0)
(4.45753 -17.1256 0)
(1.11347 -17.6213 0)
(-2.27503 -17.626 0)
(-5.63867 -17.1296 0)
(-8.90683 -16.1234 0)
(-12.0305 -14.6184 0)
(-14.9715 -12.645 0)
(-17.6966 -10.2498 0)
(-20.1757 -7.49046 0)
(-22.3725 -4.42919 0)
(-24.2384 -1.14156 0)
(-25.7081 2.28144 0)
(-26.6914 5.72184 0)
(-27.0546 8.99067 0)
(-26.543 11.8055 0)
(-25.0041 13.9438 0)
(-22.6552 15.4537 0)
(-19.5736 16.3377 0)
(-15.9111 16.6327 0)
(-11.8649 16.4286 0)
(-7.64203 15.8139 0)
(-3.39803 14.8497 0)
(0.889927 13.5511 0)
(5.20899 11.7669 0)
(9.21825 9.67305 0)
(12.7587 7.75429 0)
(15.6509 6.03675 0)
(17.8674 4.56206 0)
(19.4448 3.33716 0)
(20.4449 2.31114 0)
(20.945 1.41128 0)
(20.9802 0.553626 0)
(20.7136 -0.356086 0)
(20.1598 -1.37925 0)
(19.3447 -2.52781 0)
(18.2825 -3.79252 0)
(16.9764 -5.14907 0)
(15.4251 -6.56056 0)
(13.6262 -7.98552 0)
(11.5838 -9.38344 0)
(9.31825 -10.7026 0)
(6.87595 -11.8499 0)
(4.32179 -12.6994 0)
(1.69999 -13.1472 0)
(-0.958656 -13.1843 0)
(-3.61126 -12.8448 0)
(-6.2023 -12.1325 0)
(-8.68345 -11.0608 0)
(-11.0142 -9.65489 0)
(-13.1584 -7.94998 0)
(-15.0839 -5.98794 0)
(-16.7582 -3.81656 0)
(-18.1435 -1.49541 0)
(-19.192 0.905555 0)
(-19.8393 3.29621 0)
(-19.9967 5.54209 0)
(-19.4671 7.46253 0)
(-18.3296 9.00307 0)
(-16.6497 10.1574 0)
(-14.4877 10.9159 0)
(-11.9273 11.308 0)
(-9.109 11.3981 0)
(-6.08745 11.2484 0)
(-3.22573 11.0032 0)
(0.162643 10.2822 0)
(2.66524 9.40242 0)
(6.86973 7.61913 0)
(36.154 -2.69285 0)
(34.7425 -2.47611 0)
(33.0833 -2.41779 0)
(31.2998 -2.66763 0)
(29.4363 -3.31891 0)
(27.4859 -4.39442 0)
(25.4051 -5.85686 0)
(23.1308 -7.63111 0)
(20.5989 -9.62679 0)
(17.7589 -11.7514 0)
(14.5828 -13.896 0)
(11.0766 -15.8968 0)
(7.28794 -17.5426 0)
(3.26641 -18.6474 0)
(-0.842003 -19.3079 0)
(-4.96321 -19.3263 0)
(-9.12156 -18.5896 0)
(-13.2663 -17.2603 0)
(-17.2743 -15.3337 0)
(-21.0854 -12.8125 0)
(-24.6527 -9.75568 0)
(-27.9144 -6.24767 0)
(-30.7903 -2.38381 0)
(-33.1764 1.74795 0)
(-34.9495 6.03262 0)
(-35.9278 10.2263 0)
(-35.7746 13.9378 0)
(-34.0573 16.7505 0)
(-31.0984 18.6888 0)
(-26.981 19.7163 0)
(-21.9459 19.8676 0)
(-16.3162 19.2892 0)
(-10.4671 18.1475 0)
(-4.62677 16.6076 0)
(1.43069 14.6592 0)
(7.51101 11.7704 0)
(13.0268 8.76441 0)
(17.6703 6.16819 0)
(21.2027 4.02462 0)
(23.6415 2.41331 0)
(25.1071 1.34138 0)
(25.7308 0.717376 0)
(25.6983 0.361131 0)
(25.3271 0.0561836 0)
(24.6945 -0.355822 0)
(23.8637 -0.954523 0)
(22.8619 -1.7823 0)
(21.6867 -2.84824 0)
(20.3173 -4.12767 0)
(18.7245 -5.57376 0)
(16.8799 -7.12931 0)
(14.7585 -8.72914 0)
(12.3448 -10.2935 0)
(9.64163 -11.736 0)
(6.68048 -12.964 0)
(3.5185 -13.8402 0)
(0.223772 -14.236 0)
(-3.13298 -14.2279 0)
(-6.48015 -13.8027 0)
(-9.74802 -12.9297 0)
(-12.8863 -11.5943 0)
(-15.8517 -9.81075 0)
(-18.5989 -7.62982 0)
(-21.0716 -5.12804 0)
(-23.1983 -2.3885 0)
(-24.8914 0.498812 0)
(-26.0418 3.41353 0)
(-26.5056 6.16723 0)
(-25.9722 8.50393 0)
(-24.5539 10.3376 0)
(-22.3374 11.6511 0)
(-19.4175 12.4374 0)
(-15.9467 12.7414 0)
(-12.1256 12.6525 0)
(-8.16799 12.263 0)
(-4.22708 11.6269 0)
(-0.241129 10.7407 0)
(3.7891 9.36012 0)
(7.51672 7.72472 0)
(10.7782 6.2514 0)
(13.4273 4.95295 0)
(15.4641 3.86982 0)
(16.9403 3.01046 0)
(17.9227 2.33323 0)
(18.5006 1.77315 0)
(18.7312 1.25784 0)
(18.6999 0.705919 0)
(18.4591 0.048274 0)
(18.0069 -0.738283 0)
(17.3437 -1.65365 0)
(16.4615 -2.68379 0)
(15.3488 -3.80124 0)
(13.9944 -4.96818 0)
(12.3897 -6.14407 0)
(10.5327 -7.29662 0)
(8.43547 -8.39887 0)
(6.13204 -9.38832 0)
(3.67643 -10.1388 0)
(1.11266 -10.5133 0)
(-1.50888 -10.5241 0)
(-4.13873 -10.2154 0)
(-6.7171 -9.58417 0)
(-9.18991 -8.63831 0)
(-11.5076 -7.39929 0)
(-13.6208 -5.90118 0)
(-15.48 -4.18829 0)
(-17.0323 -2.31336 0)
(-18.2191 -0.341366 0)
(-18.9721 1.6355 0)
(-19.189 3.48763 0)
(-18.7266 5.07487 0)
(-17.7301 6.38039 0)
(-16.2164 7.38624 0)
(-14.2516 8.07187 0)
(-11.921 8.44487 0)
(-9.33753 8.56528 0)
(-6.62966 8.50578 0)
(-3.86793 8.32851 0)
(-1.22749 8.06412 0)
(1.81636 7.29518 0)
(4.02516 6.53237 0)
(7.45153 5.2331 0)
(30.1421 -1.27656 0)
(28.7266 -0.905406 0)
(27.3128 -0.783106 0)
(25.9227 -1.00717 0)
(24.5282 -1.61599 0)
(23.0669 -2.59389 0)
(21.4596 -3.88546 0)
(19.6291 -5.41391 0)
(17.5131 -7.10123 0)
(15.0648 -8.87645 0)
(12.2525 -10.6641 0)
(9.06048 -12.3368 0)
(5.48296 -13.7568 0)
(1.60991 -14.774 0)
(-1.72659 -15.3055 0)
(-6.57912 -15.1762 0)
(-10.4474 -14.4806 0)
(-14.4965 -13.2373 0)
(-18.438 -11.4333 0)
(-22.177 -9.10544 0)
(-25.6578 -6.32138 0)
(-28.7761 -3.17181 0)
(-31.3696 0.209183 0)
(-33.2281 3.70075 0)
(-34.1513 7.09372 0)
(-33.7275 10.0137 0)
(-31.9729 12.2558 0)
(-29.0258 13.7839 0)
(-25.0185 14.5909 0)
(-20.2075 14.7271 0)
(-14.9418 14.3111 0)
(-9.59734 13.4917 0)
(-4.30272 12.4509 0)
(1.26647 11.0107 0)
(6.68457 8.62599 0)
(11.51 6.36712 0)
(15.4298 4.45401 0)
(18.3134 2.91205 0)
(20.2308 1.807 0)
(21.3259 1.1449 0)
(21.7298 0.843282 0)
(21.6767 0.75704 0)
(21.4048 0.719824 0)
(20.9841 0.604011 0)
(20.463 0.335675 0)
(19.8536 -0.133149 0)
(19.1408 -0.823105 0)
(18.2894 -1.7241 0)
(17.2551 -2.80222 0)
(15.9964 -4.0115 0)
(14.4761 -5.29717 0)
(12.6709 -6.60422 0)
(10.5681 -7.87251 0)
(8.15548 -9.02593 0)
(5.42809 -10.0154 0)
(2.40536 -10.7185 0)
(-0.811207 -10.9931 0)
(-4.10617 -10.9357 0)
(-7.38109 -10.5109 0)
(-10.5469 -9.69173 0)
(-13.5461 -8.4789 0)
(-16.3373 -6.89762 0)
(-18.872 -5.00383 0)
(-21.0674 -2.87618 0)
(-22.8049 -0.60035 0)
(-23.9503 1.69929 0)
(-24.3247 3.84143 0)
(-23.7452 5.64778 0)
(-22.4114 7.08956 0)
(-20.3532 8.14554 0)
(-17.6758 8.79484 0)
(-14.5335 9.06405 0)
(-11.116 9.04281 0)
(-7.6279 8.8299 0)
(-4.20542 8.47408 0)
(-0.748332 7.94267 0)
(2.73605 6.92271 0)
(5.91985 5.74584 0)
(8.65871 4.70904 0)
(10.853 3.80769 0)
(12.5274 3.07441 0)
(13.7461 2.51576 0)
(14.5819 2.10031 0)
(15.1147 1.78113 0)
(15.4219 1.50396 0)
(15.532 1.20532 0)
(15.5172 0.82951 0)
(15.3668 0.342305 0)
(15.0672 -0.263954 0)
(14.596 -0.982782 0)
(13.9285 -1.79781 0)
(13.0432 -2.68286 0)
(11.9232 -3.60396 0)
(10.558 -4.5253 0)
(8.94531 -5.42175 0)
(7.09372 -6.28512 0)
(5.02288 -7.08494 0)
(2.76432 -7.7027 0)
(0.367153 -7.96222 0)
(-2.09509 -7.93278 0)
(-4.57177 -7.64215 0)
(-6.99676 -7.08452 0)
(-9.30532 -6.26886 0)
(-11.4335 -5.21912 0)
(-13.3155 -3.97063 0)
(-14.886 -2.56827 0)
(-16.0817 -1.06927 0)
(-16.8426 0.440315 0)
(-17.0574 1.84863 0)
(-16.6805 3.07044 0)
(-15.8243 4.10197 0)
(-14.5167 4.92725 0)
(-12.8225 5.51654 0)
(-10.8276 5.86567 0)
(-8.62192 6.00476 0)
(-6.31649 6.00347 0)
(-4.01018 5.92383 0)
(-1.71584 5.77654 0)
(0.531469 5.48262 0)
(2.96226 4.79984 0)
(4.66738 4.23786 0)
(7.13068 3.425 0)
(22.5088 0.0482059 0)
(21.4881 0.350692 0)
(20.5966 0.389865 0)
(19.7898 0.121052 0)
(18.9874 -0.460248 0)
(18.0924 -1.32501 0)
(17.0097 -2.42331 0)
(15.6594 -3.69741 0)
(13.9778 -5.08532 0)
(11.9279 -6.51668 0)
(9.51665 -7.89881 0)
(6.71199 -9.13987 0)
(3.39581 -10.2405 0)
(0.177749 -11.0162 0)
(-4.12234 -11.2389 0)
(-7.85225 -10.9574 0)
(-11.6583 -10.3686 0)
(-15.445 -9.26375 0)
(-19.0357 -7.63559 0)
(-22.364 -5.5688 0)
(-25.319 -3.1354 0)
(-27.7511 -0.476261 0)
(-29.3995 2.04355 0)
(-29.8881 4.37164 0)
(-29.0705 6.49601 0)
(-27.216 8.14281 0)
(-24.3386 9.22312 0)
(-20.6063 9.77801 0)
(-16.2981 9.87663 0)
(-11.7568 9.63043 0)
(-7.28787 9.17235 0)
(-2.8392 8.6108 0)
(1.82961 7.4533 0)
(6.12815 5.72411 0)
(9.81581 4.2349 0)
(12.652 2.99536 0)
(14.6244 2.02017 0)
(15.851 1.36257 0)
(16.4775 1.01733 0)
(16.6104 0.913485 0)
(16.5289 0.955598 0)
(16.3305 1.03455 0)
(16.083 1.06674 0)
(15.8165 0.994375 0)
(15.5304 0.770395 0)
(15.2008 0.366647 0)
(14.7883 -0.218152 0)
(14.246 -0.963479 0)
(13.526 -1.83805 0)
(12.5823 -2.80392 0)
(11.3764 -3.81945 0)
(9.88865 -4.83723 0)
(8.13101 -5.77005 0)
(6.10168 -6.53428 0)
(3.74694 -7.14742 0)
(1.02529 -7.55514 0)
(-1.89272 -7.6533 0)
(-4.86548 -7.62738 0)
(-7.81151 -7.3873 0)
(-10.6374 -6.82477 0)
(-13.2564 -5.87432 0)
(-15.5954 -4.5332 0)
(-17.5804 -2.90841 0)
(-19.1057 -1.1859 0)
(-20.0456 0.479132 0)
(-20.1936 1.97648 0)
(-19.6046 3.24761 0)
(-18.3846 4.28818 0)
(-16.5929 5.08104 0)
(-14.3361 5.59575 0)
(-11.7474 5.84118 0)
(-8.98212 5.88152 0)
(-6.20575 5.81291 0)
(-3.51638 5.69504 0)
(-0.810382 5.44854 0)
(1.86923 4.75729 0)
(4.27754 4.01942 0)
(6.30361 3.38314 0)
(7.89818 2.83058 0)
(9.10311 2.38534 0)
(9.98171 2.05378 0)
(10.5999 1.81556 0)
(11.0253 1.64158 0)
(11.317 1.49851 0)
(11.5204 1.3504 0)
(11.6516 1.15384 0)
(11.7123 0.874046 0)
(11.6919 0.499961 0)
(11.562 0.0354663 0)
(11.2913 -0.510241 0)
(10.8489 -1.12535 0)
(10.2095 -1.79122 0)
(9.35471 -2.48225 0)
(8.27416 -3.16951 0)
(6.96562 -3.83019 0)
(5.43682 -4.46053 0)
(3.69562 -5.05434 0)
(1.74592 -5.50827 0)
(-0.339316 -5.6452 0)
(-2.47346 -5.57406 0)
(-4.60693 -5.30752 0)
(-6.66668 -4.84543 0)
(-8.57872 -4.19821 0)
(-10.2721 -3.38853 0)
(-11.6788 -2.45015 0)
(-12.7378 -1.42581 0)
(-13.4033 -0.377226 0)
(-13.5881 0.613783 0)
(-13.3112 1.4919 0)
(-12.6515 2.25488 0)
(-11.6391 2.89075 0)
(-10.3326 3.37567 0)
(-8.80059 3.70065 0)
(-7.1198 3.87699 0)
(-5.36543 3.93501 0)
(-3.61417 3.93136 0)
(-1.90767 3.90198 0)
(-0.190101 3.78019 0)
(1.46221 3.47487 0)
(3.11894 3.01136 0)
(4.22224 2.67835 0)
(5.79311 2.23067 0)
(14.406 0.886071 0)
(13.9598 1.00227 0)
(13.6544 0.910182 0)
(13.4144 0.597284 0)
(13.1458 0.0769759 0)
(12.7523 -0.618676 0)
(12.1429 -1.45093 0)
(11.2417 -2.37707 0)
(10.004 -3.34563 0)
(8.41698 -4.31562 0)
(6.35076 -5.39627 0)
(3.70142 -6.31205 0)
(1.38297 -6.97843 0)
(-1.74825 -7.36507 0)
(-5.40455 -7.48726 0)
(-8.56517 -7.40263 0)
(-11.8292 -6.92867 0)
(-14.9122 -5.95684 0)
(-17.6743 -4.53672 0)
(-19.9926 -2.81656 0)
(-21.7046 -0.998074 0)
(-22.5835 0.756448 0)
(-21.7538 2.33468 0)
(-21.756 3.59095 0)
(-19.7999 4.49908 0)
(-17.3348 5.21958 0)
(-14.3383 5.61686 0)
(-11.0234 5.74654 0)
(-7.66566 5.7172 0)
(-4.43018 5.63855 0)
(-1.13547 5.42027 0)
(2.08784 4.50629 0)
(4.91971 3.56547 0)
(7.20605 2.79715 0)
(8.84292 2.13568 0)
(9.89628 1.60603 0)
(10.4865 1.25155 0)
(10.7089 1.06773 0)
(10.7222 1.02441 0)
(10.6539 1.06783 0)
(10.5663 1.14528 0)
(10.4996 1.21705 0)
(10.4676 1.23707 0)
(10.4597 1.16143 0)
(10.4487 0.958898 0)
(10.3952 0.615409 0)
(10.2539 0.13756 0)
(9.97691 -0.45202 0)