/*--------------------------------*- C++ -*----------------------------------*\
| =========                 |                                                 |
| \\      /  F ield         | OpenFOAM: The Open Source CFD Toolbox           |
|  \\    /   O peration     | Version:  2206                                  |
|   \\  /    A nd           | Website:  www.openfoam.com                      |
|    \\/     M anipulation  |                                                 |
\*---------------------------------------------------------------------------*/
FoamFile
{
    version     2.0;
    format      ascii;
    arch        "LSB;label=32;scalar=64";
    class       surfaceScalarField;
    location    "19.2999";
    object      phi_0;
}
// * * * * * * * * * * * * * * * * * * * * * * * * * * * * * * * * * * * * * //

dimensions      [0 3 -1 0 0 0 0];

oriented        oriented;

internalField   nonuniform List<scalar> 
9446
(
1.14666e-05
-2.88134e-06
2.90527e-06
1.14281e-05
-3.08228e-06
3.12085e-06
1.13761e-05
-3.21478e-06
3.26674e-06
1.13112e-05
-3.28853e-06
3.35343e-06
1.12316e-05
-3.30913e-06
3.38877e-06
1.11378e-05
-3.2837e-06
3.37742e-06
1.10317e-05
-3.2254e-06
3.33154e-06
1.09139e-05
-3.14529e-06
3.26309e-06
1.0785e-05
-3.05212e-06
3.18107e-06
1.06457e-05
-2.95199e-06
3.09126e-06
1.04979e-05
-2.84782e-06
2.99557e-06
1.0345e-05
-2.73896e-06
2.89187e-06
1.01918e-05
-2.62114e-06
2.7744e-06
1.0044e-05
-2.48714e-06
2.63488e-06
9.90795e-06
-2.32828e-06
2.46437e-06
9.78903e-06
-2.13633e-06
2.25525e-06
9.69141e-06
-1.90543e-06
2.00305e-06
9.61751e-06
-1.63348e-06
1.70739e-06
9.56804e-06
-1.32253e-06
1.372e-06
9.54238e-06
-9.78429e-07
1.00408e-06
9.53862e-06
-6.09934e-07
6.13696e-07
9.55377e-06
-2.27486e-07
2.12337e-07
9.5843e-06
1.57151e-07
-1.87686e-07
9.62748e-06
5.34171e-07
-5.77346e-07
9.68033e-06
8.96699e-07
-9.49548e-07
9.73985e-06
1.23917e-06
-1.29869e-06
9.80315e-06
1.5574e-06
-1.6207e-06
9.86768e-06
1.84847e-06
-1.91299e-06
9.9313e-06
2.11033e-06
-2.17395e-06
9.99254e-06
2.34169e-06
-2.40293e-06
1.00505e-05
2.54168e-06
-2.59959e-06
1.01044e-05
2.70965e-06
-2.76359e-06
1.01539e-05
2.84528e-06
-2.89476e-06
1.01986e-05
2.94854e-06
-2.99322e-06
1.02385e-05
3.01976e-06
-3.05973e-06
1.0275e-05
3.05932e-06
-3.09581e-06
1.03114e-05
3.06201e-06
-3.09842e-06
1.03484e-05
3.0152e-06
-3.0522e-06
1.03845e-05
2.91368e-06
-2.94973e-06
1.04207e-05
2.75648e-06
-2.79267e-06
1.04577e-05
2.54373e-06
-2.58082e-06
1.04961e-05
2.27691e-06
-2.31523e-06
1.05356e-05
1.95955e-06
-1.99907e-06
1.0576e-05
1.59753e-06
-1.63797e-06
1.06169e-05
1.19919e-06
-1.24004e-06
1.06573e-05
7.75576e-07
-8.16018e-07
1.06959e-05
3.41558e-07
-3.80104e-07
1.07308e-05
-8.57723e-08
5.08194e-08
1.07608e-05
-4.95319e-07
4.65393e-07
1.07842e-05
-8.77747e-07
8.54276e-07
1.08e-05
-1.22578e-06
1.21005e-06
1.08069e-05
-1.53449e-06
1.52754e-06
1.08043e-05
-1.80133e-06
1.8039e-06
1.07919e-05
-2.02597e-06
2.03844e-06
1.07695e-05
-2.20988e-06
2.23229e-06
1.07374e-05
-2.3558e-06
2.38783e-06
1.06964e-05
-2.46714e-06
2.5082e-06
1.0647e-05
-2.54725e-06
2.5966e-06
1.059e-05
-2.59882e-06
2.6558e-06
1.0526e-05
-2.62335e-06
2.68734e-06
1.04566e-05
-2.62167e-06
2.6911e-06
1.03843e-05
-2.59492e-06
2.66721e-06
1.03118e-05
-2.54278e-06
2.61532e-06
1.02417e-05
-2.46378e-06
2.53393e-06
1.01764e-05
-2.35604e-06
2.4213e-06
1.01182e-05
-2.21777e-06
2.27598e-06
1.00688e-05
-2.04794e-06
2.09728e-06
1.00297e-05
-1.84661e-06
1.88575e-06
1.00017e-05
-1.61528e-06
1.6433e-06
9.98531e-06
-1.35672e-06
1.3731e-06
9.98013e-06
-1.07477e-06
1.07995e-06
9.98632e-06
-7.74936e-07
7.6874e-07
1.00046e-05
-4.6298e-07
4.44675e-07
1.00341e-05
-1.44945e-07
1.15508e-07
1.0073e-05
1.71663e-07
-2.106e-07
1.01202e-05
4.81307e-07
-5.28506e-07
1.01743e-05
7.79408e-07
-8.3351e-07
1.02339e-05
1.06191e-06
-1.12148e-06
1.02975e-05
1.32532e-06
-1.38892e-06
1.03637e-05
1.56664e-06
-1.63288e-06
1.04312e-05
1.78346e-06
-1.851e-06
1.04989e-05
1.97397e-06
-2.04166e-06
1.05657e-05
2.1369e-06
-2.20364e-06
1.06306e-05
2.27138e-06
-2.33627e-06
1.06929e-05
2.37687e-06
-2.43917e-06
1.07523e-05
2.45325e-06
-2.51265e-06
1.08091e-05
2.50056e-06
-2.55739e-06
1.08643e-05
2.51672e-06
-2.57188e-06
1.09173e-05
2.4958e-06
-2.54882e-06
1.0967e-05
2.43541e-06
-2.48517e-06
1.10128e-05
2.33544e-06
-2.3812e-06
1.10542e-05
2.19662e-06
-2.23796e-06
1.10907e-05
2.02037e-06
-2.05692e-06
1.11221e-05
1.80888e-06
-1.84028e-06
1.1148e-05
1.56523e-06
-1.59109e-06
1.11679e-05
1.29348e-06
-1.31342e-06
1.11816e-05
9.98684e-07
-1.01237e-06
1.11887e-05
6.87045e-07
-6.94153e-07
1.11888e-05
3.66164e-07
-3.66284e-07
1.11815e-05
4.57323e-08
-3.84525e-08
1.11666e-05
-2.66911e-07
2.81867e-07
1.11437e-05
-5.65868e-07
5.88721e-07
1.11128e-05
-8.46007e-07
8.76895e-07
1.10739e-05
-1.10311e-06
1.14205e-06
1.1027e-05
-1.33398e-06
1.38087e-06
1.09724e-05
-1.53646e-06
1.59108e-06
1.09104e-05
-1.70938e-06
1.77137e-06
1.08415e-05
-1.8524e-06
1.92129e-06
1.07663e-05
-1.96582e-06
2.04106e-06
1.06853e-05
-2.05028e-06
2.13128e-06
1.05991e-05
-2.10639e-06
2.19259e-06
1.05084e-05
-2.13432e-06
2.22502e-06
1.04145e-05
-2.13421e-06
2.22807e-06
1.03193e-05
-2.10713e-06
2.20232e-06
1.02247e-05
-2.05382e-06
2.14845e-06
1.01325e-05
-1.97454e-06
2.06674e-06
1.00445e-05
-1.86943e-06
1.95743e-06
9.96226e-06
-1.73872e-06
1.82096e-06
9.88706e-06
-1.58313e-06
1.65834e-06
9.81983e-06
-1.40406e-06
1.47129e-06
9.76122e-06
-1.20373e-06
1.26234e-06
9.71159e-06
-9.85159e-07
1.03479e-06
9.67109e-06
-7.52057e-07
7.92559e-07
9.6397e-06
-5.08658e-07
5.40047e-07
9.61727e-06
-2.59687e-07
2.82113e-07
9.60358e-06
-1.05579e-08
2.42509e-08
9.59833e-06
2.34648e-07
-2.29403e-07
9.60117e-06
4.72442e-07
-4.75278e-07
9.61161e-06
6.99596e-07
-7.10037e-07
9.62906e-06
9.13181e-07
-9.3063e-07
9.65283e-06
1.11057e-06
-1.13434e-06
9.68218e-06
1.28948e-06
-1.31883e-06
9.71632e-06
1.44803e-06
-1.48217e-06
9.75441e-06
1.58475e-06
-1.62284e-06
9.7956e-06
1.69859e-06
-1.73978e-06
9.83906e-06
1.78886e-06
-1.83232e-06
1.85526e-06
-1.90024e-06
1.18189e-05
-2.83329e-06
1.17558e-05
-3.01918e-06
1.16796e-05
-3.13856e-06
1.15905e-05
-3.19946e-06
1.1488e-05
-3.20666e-06
1.13746e-05
-3.17026e-06
1.12518e-05
-3.10261e-06
1.11204e-05
-3.01388e-06
1.09805e-05
-2.91228e-06
1.08325e-05
-2.8039e-06
1.0677e-05
-2.69234e-06
1.05163e-05
-2.5783e-06
1.03543e-05
-2.45917e-06
1.01965e-05
-2.32925e-06
1.00488e-05
-2.18066e-06
9.91752e-06
-2.00501e-06
9.8074e-06
-1.79531e-06
9.72165e-06
-1.54773e-06
9.66151e-06
-1.26239e-06
9.62651e-06
-9.43426e-07
9.61477e-06
-5.98193e-07
9.62343e-06
-2.36146e-07
9.64868e-06
1.31897e-07
9.68746e-06
4.9539e-07
9.7369e-06
8.47259e-07
9.79418e-06
1.18189e-06
9.85664e-06
1.49494e-06
9.92198e-06
1.78313e-06
9.9883e-06
2.04402e-06
1.00542e-05
2.27583e-06
1.01185e-05
2.47731e-06
1.01806e-05
2.64759e-06
1.02398e-05
2.78609e-06
1.02958e-05
2.89248e-06
1.0349e-05
2.9666e-06
1.04004e-05
3.0079e-06
1.04524e-05
3.01e-06
1.0505e-05
2.96262e-06
1.05574e-05
2.86131e-06
1.06095e-05
2.70437e-06
1.06614e-05
2.49183e-06
1.07129e-05
2.22545e-06
1.07634e-05
1.90899e-06
1.08124e-05
1.54851e-06
1.08591e-05
1.15249e-06
1.09025e-05
7.3224e-07
1.09407e-05
3.03296e-07
1.09725e-05
-1.17517e-07
1.09965e-05
-5.193e-07
1.10116e-05
-8.92846e-07
1.10169e-05
-1.23112e-06
1.10119e-05
-1.5295e-06
1.09963e-05
-1.78577e-06
1.09703e-05
-1.99991e-06
1.09341e-05
-2.17368e-06
1.08883e-05
-2.31003e-06
1.08337e-05
-2.4125e-06
1.07709e-05
-2.48445e-06
1.07006e-05
-2.52849e-06
1.06236e-05
-2.54641e-06
1.05421e-05
-2.54017e-06
1.04584e-05
-2.51126e-06
1.03751e-05
-2.45946e-06
1.02947e-05
-2.38335e-06
1.02196e-05
-2.28092e-06
1.0152e-05
-2.15022e-06
1.0094e-05
-1.98991e-06
1.00471e-05
-1.7997e-06
1.00124e-05
-1.58063e-06
9.99075e-06
-1.33505e-06
9.98222e-06
-1.06624e-06
9.98641e-06
-7.79128e-07
1.00035e-05
-4.80069e-07
1.00331e-05
-1.74513e-07
1.00734e-05
1.31331e-07
1.01233e-05
4.31456e-07
1.01813e-05
7.21362e-07
1.02461e-05
9.97077e-07
1.03163e-05
1.25511e-06
1.03905e-05
1.49248e-06
1.04672e-05
1.70672e-06
1.05453e-05
1.89594e-06
1.06235e-05
2.05869e-06
1.07009e-05
2.19395e-06
1.07768e-05
2.30097e-06
1.08508e-05
2.3793e-06
1.09229e-05
2.42843e-06
1.09936e-05
2.44599e-06
1.10622e-05
2.42721e-06
1.11275e-05
2.37009e-06
1.11887e-05
2.27432e-06
1.12448e-05
2.14048e-06
1.12952e-05
1.96992e-06
1.13394e-05
1.76477e-06
1.13765e-05
1.5281e-06
1.1406e-05
1.26391e-06
1.14275e-05
9.77211e-07
1.14404e-05
6.74127e-07
1.14443e-05
3.62323e-07
1.14386e-05
5.13978e-08
1.14232e-05
-2.51534e-07
1.13981e-05
-5.407e-07
1.13632e-05
-8.11112e-07
1.13188e-05
-1.05871e-06
1.12652e-05
-1.28045e-06
1.12031e-05
-1.47431e-06
1.11329e-05
-1.63922e-06
1.10554e-05
-1.77488e-06
1.09712e-05
-1.88164e-06
1.08811e-05
-1.96012e-06
1.07856e-05
-2.01091e-06
1.06857e-05
-2.03442e-06
1.05829e-05
-2.0314e-06
1.0479e-05
-2.00322e-06
1.03758e-05
-1.95069e-06
1.02754e-05
-1.87415e-06
1.01797e-05
-1.77366e-06
1.00902e-05
-1.64929e-06
1.00086e-05
-1.50146e-06
9.93576e-06
-1.33125e-06
9.87255e-06
-1.14053e-06
9.81938e-06
-9.31981e-07
9.77638e-06
-7.09058e-07
9.74351e-06
-4.75787e-07
9.72054e-06
-2.36717e-07
9.70714e-06
2.83433e-09
9.70298e-06
2.38812e-07
9.70761e-06
4.67811e-07
9.72053e-06
6.86678e-07
9.74114e-06
8.92575e-07
9.76873e-06
1.08298e-06
9.80253e-06
1.25568e-06
9.84171e-06
1.40885e-06
9.88539e-06
1.54107e-06
9.93269e-06
1.65129e-06
9.98274e-06
1.73882e-06
1.80323e-06
1.21664e-05
-2.76203e-06
1.20802e-05
-2.93298e-06
1.19808e-05
-3.0392e-06
1.18687e-05
-3.08738e-06
1.17454e-05
-3.08336e-06
1.16138e-05
-3.03864e-06
1.14756e-05
-2.96446e-06
1.13318e-05
-2.87003e-06
1.11823e-05
-2.76283e-06
1.1027e-05
-2.64855e-06
1.08658e-05
-2.53113e-06
1.06998e-05
-2.41231e-06
1.05317e-05
-2.29111e-06
1.03661e-05
-2.1636e-06
1.02087e-05
-2.02326e-06
1.00658e-05
-1.86215e-06
9.94318e-06
-1.67267e-06
9.84485e-06
-1.4494e-06
9.77292e-06
-1.19046e-06
9.72746e-06
-8.97966e-07
9.70686e-06
-5.77591e-07
9.70829e-06
-2.37582e-07
9.72795e-06
1.12237e-07
9.7622e-06
4.6114e-07
9.80823e-06
8.01228e-07
9.86336e-06
1.12676e-06
9.92515e-06
1.43315e-06
9.99149e-06
1.71679e-06
1.00606e-05
1.97491e-06
1.01311e-05
2.20537e-06
1.02018e-05
2.40658e-06
1.0272e-05
2.57741e-06
1.0341e-05
2.71702e-06
1.04087e-05
2.82478e-06
1.04752e-05
2.90016e-06
1.05414e-05
2.9417e-06
1.06088e-05
2.94256e-06
1.06771e-05
2.89431e-06
1.07454e-05
2.79298e-06
1.08131e-05
2.6367e-06
1.08795e-05
2.42548e-06
1.09437e-05
2.1612e-06
1.10049e-05
1.8478e-06
1.1062e-05
1.49141e-06
1.1114e-05
1.10054e-06
1.11595e-05
6.86675e-07
1.11968e-05
2.66018e-07
1.12246e-05
-1.453e-07
1.12418e-05
-5.36538e-07
1.12477e-05
-8.9876e-07
1.12419e-05
-1.22528e-06
1.12243e-05
-1.51186e-06
1.11951e-05
-1.75665e-06
1.11551e-05
-1.95989e-06
1.11049e-05
-2.12349e-06
1.10454e-05
-2.2505e-06
1.09773e-05
-2.34442e-06
1.09014e-05
-2.40851e-06
1.08183e-05
-2.44537e-06
1.07293e-05
-2.45747e-06
1.06367e-05
-2.44754e-06
1.05426e-05
-2.4172e-06
1.04495e-05
-2.36637e-06
1.03599e-05
-2.29374e-06
1.02762e-05
-2.19723e-06
1.02007e-05
-2.07468e-06
1.01353e-05
-1.92449e-06
1.00816e-05
-1.74603e-06
1.0041e-05
-1.53996e-06
1.00141e-05
-1.30824e-06
1.00019e-05
-1.05399e-06
1.00044e-05
-7.81593e-07
1.00207e-05
-4.96381e-07
1.005e-05
-2.03816e-07
1.00912e-05
9.00893e-08
1.01433e-05
3.79388e-07
1.02049e-05
6.59768e-07
1.02746e-05
9.27344e-07
1.03511e-05
1.17866e-06
1.04328e-05
1.41077e-06
1.05183e-05
1.62117e-06
1.06064e-05
1.80786e-06
1.06958e-05
1.96928e-06
1.07855e-05
2.1042e-06
1.08748e-05
2.21171e-06
1.09631e-05
2.29103e-06
1.10503e-05
2.34123e-06
1.11363e-05
2.35992e-06
1.12203e-05
2.34323e-06
1.1301e-05
2.28942e-06
1.13772e-05
2.19812e-06
1.14478e-05
2.06983e-06
1.15119e-05
1.90583e-06
1.15685e-05
1.70819e-06
1.16167e-05
1.47991e-06
1.16557e-05
1.22493e-06
1.16847e-05
9.48169e-07
1.17032e-05
6.55651e-07
1.17105e-05
3.55042e-07
1.17061e-05
5.57594e-08
1.169e-05
-2.3542e-07
1.16622e-05
-5.12901e-07
1.1623e-05
-7.71897e-07
1.15728e-05
-1.00857e-06
1.15124e-05
-1.22004e-06
1.14425e-05
-1.40442e-06
1.1364e-05
-1.56072e-06
1.12778e-05
-1.68866e-06
1.11847e-05
-1.78853e-06
1.10855e-05
-1.86092e-06
1.0981e-05
-1.90645e-06
1.08724e-05
-1.92581e-06
1.07613e-05
-1.92022e-06
1.06493e-05
-1.89122e-06
1.05383e-05
-1.83974e-06
1.04304e-05
-1.7662e-06
1.03274e-05
-1.67067e-06
1.02312e-05
-1.5531e-06
1.01434e-05
-1.41368e-06
1.00653e-05
-1.25314e-06
9.99773e-06
-1.07296e-06
9.94123e-06
-8.75484e-07
9.89599e-06
-6.63823e-07
9.86195e-06
-4.41748e-07
9.83881e-06
-2.13578e-07
9.82615e-06
1.54973e-08
9.82355e-06
2.41418e-07
9.8305e-06
4.60855e-07
9.84645e-06
6.70726e-07
9.87077e-06
8.6826e-07
9.90272e-06
1.05102e-06
9.9415e-06
1.2169e-06
9.98622e-06
1.36414e-06
1.0036e-05
1.49131e-06
1.00899e-05
1.59741e-06
1.0147e-05
1.68169e-06
1.74362e-06
1.24982e-05
-2.66922e-06
1.23905e-05
-2.82525e-06
1.22699e-05
-2.91867e-06
1.21377e-05
-2.9552e-06
1.19966e-05
-2.94226e-06
1.18495e-05
-2.89152e-06
1.16983e-05
-2.81323e-06
1.1544e-05
-2.71571e-06
1.13867e-05
-2.60552e-06
1.12258e-05
-2.48773e-06
1.10609e-05
-2.36616e-06
1.08918e-05
-2.24325e-06
1.07202e-05
-2.11944e-06
1.05492e-05
-1.99266e-06
1.03841e-05
-1.85814e-06
1.0231e-05
-1.70906e-06
1.00962e-05
-1.53785e-06
9.98476e-06
-1.33797e-06
9.8999e-06
-1.1056e-06
9.84258e-06
-8.40647e-07
9.81176e-06
-5.46773e-07
9.80489e-06
-2.30704e-07
9.8183e-06
9.88241e-08
9.84781e-06
4.31634e-07
9.89042e-06
7.5861e-07
9.94353e-06
1.07366e-06
1.00048e-05
1.37188e-06
1.00722e-05
1.64935e-06
1.01442e-05
1.90297e-06
1.02192e-05
2.13032e-06
1.02963e-05
2.3295e-06
1.03746e-05
2.49912e-06
1.04535e-05
2.6381e-06
1.05327e-05
2.74558e-06
1.06122e-05
2.82067e-06
1.06928e-05
2.86114e-06
1.07752e-05
2.8601e-06
1.08589e-05
2.81069e-06
1.09425e-05
2.70934e-06
1.1025e-05
2.55421e-06
1.11051e-05
2.34535e-06
1.11815e-05
2.08478e-06
1.12528e-05
1.77654e-06
1.13174e-05
1.42683e-06
1.13738e-05
1.04412e-06
1.14206e-05
6.39883e-07
1.14559e-05
2.30772e-07
1.14786e-05
-1.68077e-07
1.14883e-05
-5.46164e-07
1.14844e-05
-8.94931e-07
1.14672e-05
-1.20807e-06
1.1437e-05
-1.48169e-06
1.13946e-05
-1.71424e-06
1.1341e-05
-1.90622e-06
1.12772e-05
-2.05969e-06
1.12043e-05
-2.17765e-06
1.11233e-05
-2.26341e-06
1.10349e-05
-2.32009e-06
1.094e-05
-2.3505e-06
1.08403e-05
-2.35771e-06
1.07376e-05
-2.34487e-06
1.06342e-05
-2.31375e-06
1.05323e-05
-2.26447e-06
1.04343e-05
-2.19583e-06
1.03429e-05
-2.10576e-06
1.02602e-05
-1.99197e-06
1.01882e-05
-1.85258e-06
1.01288e-05
-1.68662e-06
1.00832e-05
-1.49435e-06
1.00523e-05
-1.27734e-06
1.00367e-05
-1.03841e-06
1.00366e-05
-7.81489e-07
1.00516e-05
-5.11305e-07
1.00807e-05
-2.33005e-07
1.0123e-05
4.77886e-08
1.01773e-05
3.25136e-07
1.02423e-05
5.94781e-07
1.03167e-05
8.52962e-07
1.0399e-05
1.0963e-06
1.04879e-05
1.32188e-06
1.05819e-05
1.52718e-06
1.06797e-05
1.71011e-06
1.07799e-05
1.869e-06
1.08817e-05
2.00249e-06
1.09839e-05
2.10944e-06
1.10861e-05
2.18882e-06
1.11879e-05
2.23943e-06
1.12889e-05
2.25897e-06
1.13878e-05
2.24429e-06
1.14834e-05
2.19388e-06
1.15741e-05
2.10738e-06
1.16587e-05
1.98523e-06
1.17359e-05
1.82865e-06
1.18044e-05
1.63966e-06
1.18632e-05
1.42116e-06
1.19111e-05
1.177e-06
1.19472e-05
9.12011e-07
1.19708e-05
6.32108e-07
1.1981e-05
3.44829e-07
1.19775e-05
5.92952e-08
1.19602e-05
-2.18157e-07
1.19295e-05
-4.8217e-07
1.18858e-05
-7.28205e-07
1.18299e-05
-9.52644e-07
1.17626e-05
-1.15281e-06
1.16851e-05
-1.32693e-06
1.15985e-05
-1.47405e-06
1.15037e-05
-1.5939e-06
1.14019e-05
-1.68673e-06
1.1294e-05
-1.75303e-06
1.11811e-05
-1.79351e-06
1.10644e-05
-1.80914e-06
1.09456e-05
-1.8014e-06
1.08263e-05
-1.77192e-06
1.07083e-05
-1.72174e-06
1.05935e-05
-1.65144e-06
1.0484e-05
-1.56113e-06
1.03816e-05
-1.45072e-06
1.02881e-05
-1.32021e-06
1.0205e-05
-1.17003e-06
1.01333e-05
-1.00127e-06
1.00737e-05
-8.1586e-07
1.00264e-05
-6.16547e-07
9.99145e-06
-4.06768e-07
9.96845e-06
-1.90576e-07
9.95688e-06
2.70625e-08
9.95625e-06
2.42044e-07
9.96601e-06
4.51099e-07
9.98551e-06
6.51223e-07
1.00141e-05
8.3971e-07
1.00509e-05
1.01419e-06
1.00952e-05
1.17264e-06
1.01459e-05
1.31336e-06
1.02023e-05
1.43498e-06
1.02632e-05
1.53645e-06
1.03279e-05
1.61697e-06
1.67587e-06
1.28046e-05
-2.55815e-06
1.26785e-05
-2.69915e-06
1.25399e-05
-2.78004e-06
1.23911e-05
-2.8064e-06
1.22356e-05
-2.78677e-06
1.20763e-05
-2.73216e-06
1.19149e-05
-2.65186e-06
1.17525e-05
-2.55334e-06
1.15893e-05
-2.44236e-06
1.14249e-05
-2.32326e-06
1.12582e-05
-2.19945e-06
1.10884e-05
-2.07348e-06
1.09158e-05
-1.94685e-06
1.07424e-05
-1.81924e-06
1.05722e-05
-1.68791e-06
1.04108e-05
-1.54768e-06
1.02647e-05
-1.39179e-06
1.014e-05
-1.21326e-06
1.00411e-05
-1.00674e-06
9.97035e-06
-7.69859e-07
9.92757e-06
-5.03986e-07
9.91079e-06
-2.13925e-07
9.91669e-06
9.2918e-08
9.94092e-06
4.07408e-07
9.97987e-06
7.19657e-07
1.00309e-05
1.02264e-06
1.00917e-05
1.31111e-06
1.01602e-05
1.58078e-06
1.0235e-05
1.82824e-06
1.03145e-05
2.05074e-06
1.03979e-05
2.24617e-06
1.04841e-05
2.41287e-06
1.05726e-05
2.54958e-06
1.0663e-05
2.65526e-06
1.0755e-05
2.72867e-06
1.08492e-05
2.76692e-06
1.09459e-05
2.76342e-06
1.1044e-05
2.71259e-06
1.11421e-05
2.61122e-06
1.12386e-05
2.45766e-06
1.13318e-05
2.25216e-06
1.14197e-05
1.99693e-06
1.15001e-05
1.69611e-06
1.15711e-05
1.35581e-06
1.16309e-05
9.84295e-07
1.16779e-05
5.92869e-07
1.17103e-05
1.98401e-07
1.17275e-05
-1.8522e-07
1.1729e-05
-5.47728e-07
1.17152e-05
-8.81087e-07
1.16865e-05
-1.17941e-06
1.1644e-05
-1.43917e-06
1.15888e-05
-1.65907e-06
1.15223e-05
-1.83971e-06
1.14458e-05
-1.98317e-06
1.13605e-05
-2.09237e-06
1.12676e-05
-2.17045e-06
1.11679e-05
-2.2204e-06
1.10626e-05
-2.24524e-06
1.09534e-05
-2.2485e-06
1.0842e-05
-2.23352e-06
1.07305e-05
-2.20222e-06
1.0621e-05
-2.15495e-06
1.05158e-05
-2.09068e-06
1.04175e-05
-2.00741e-06
1.03283e-05
-1.90278e-06
1.02504e-05
-1.7747e-06
1.01857e-05
-1.62186e-06
1.01354e-05
-1.44412e-06
1.01007e-05
-1.24264e-06
1.00822e-05
-1.01983e-06
1.00799e-05
-7.79188e-07
1.00936e-05
-5.2502e-07
1.01227e-05
-2.62106e-07
1.01661e-05
4.38495e-09
1.02225e-05
2.6873e-07
1.02907e-05
5.26525e-07
1.03695e-05
7.74149e-07
1.04575e-05
1.00832e-06
1.05533e-05
1.22615e-06
1.06553e-05
1.42512e-06
1.07623e-05
1.60311e-06
1.0873e-05
1.75833e-06
1.09862e-05
1.8893e-06
1.11009e-05
1.99469e-06
1.12165e-05
2.07328e-06
1.13322e-05
2.12369e-06
1.14474e-05
2.14382e-06
1.15605e-05
2.13111e-06
1.16702e-05
2.08425e-06
1.17747e-05
2.0029e-06
1.18724e-05
1.88746e-06
1.1962e-05
1.7391e-06
1.20418e-05
1.55981e-06
1.21105e-05
1.35245e-06
1.21668e-05
1.12076e-06
1.22094e-05
8.69429e-07
1.22373e-05
6.04193e-07
1.22497e-05
3.32394e-07
1.22464e-05
6.26426e-08
1.22274e-05
-1.99198e-07
1.21933e-05
-4.48066e-07
1.21448e-05
-6.79721e-07
1.2083e-05
-8.90796e-07
1.2009e-05
-1.07879e-06
1.19241e-05
-1.24204e-06
1.18296e-05
-1.37961e-06
1.17269e-05
-1.49118e-06
1.16171e-05
-1.57689e-06
1.15013e-05
-1.63725e-06
1.13808e-05
-1.673e-06
1.1257e-05
-1.68534e-06
1.11315e-05
-1.67589e-06
1.10058e-05
-1.64625e-06
1.08817e-05
-1.59763e-06
1.0761e-05
-1.53074e-06
1.06457e-05
-1.44584e-06
1.05378e-05
-1.34282e-06
1.04392e-05
-1.22159e-06
1.03515e-05
-1.08231e-06
1.02759e-05
-9.25709e-07
1.02133e-05
-7.53288e-07
1.01642e-05
-5.67362e-07
1.01284e-05
-3.70993e-07
1.01057e-05
-1.67918e-07
1.00955e-05
3.72529e-08
1.00972e-05
2.40349e-07
1.01102e-05
4.38158e-07
1.01337e-05
6.27745e-07
1.01669e-05
8.06467e-07
1.02091e-05
9.72023e-07
1.02593e-05
1.12244e-06
1.03166e-05
1.25608e-06
1.03799e-05
1.3716e-06
1.04484e-05
1.46794e-06
1.05212e-05
1.54417e-06
1.59946e-06
1.30771e-05
-2.43294e-06
1.29369e-05
-2.55893e-06
1.27847e-05
-2.62782e-06
1.26239e-05
-2.64555e-06
1.24582e-05
-2.6211e-06
1.22904e-05
-2.5644e-06
1.21223e-05
-2.48375e-06
1.19548e-05
-2.3858e-06
1.1788e-05
-2.2756e-06
1.16216e-05
-2.15687e-06
1.14547e-05
-2.0325e-06
1.1286e-05
-1.90483e-06
1.11149e-05
-1.77575e-06
1.09419e-05
-1.64624e-06
1.07696e-05
-1.51557e-06
1.06026e-05
-1.38067e-06
1.04471e-05
-1.23627e-06
1.03097e-05
-1.07586e-06
1.01961e-05
-8.93205e-07
1.01103e-05
-6.84002e-07
1.00534e-05
-4.47148e-07
1.00246e-05
-1.8512e-07
1.00211e-05
9.64508e-08
1.00388e-05
3.89687e-07
1.00734e-05
6.85062e-07
1.01219e-05
9.74121e-07
1.0182e-05
1.25108e-06
1.02515e-05
1.51126e-06
1.03289e-05
1.75086e-06
1.04128e-05
1.96686e-06
1.05021e-05
2.15687e-06
1.05959e-05
2.31907e-06
1.06934e-05
2.45204e-06
1.07941e-05
2.55454e-06
1.08978e-05
2.62499e-06
1.10047e-05
2.65998e-06
1.11147e-05
2.65344e-06
1.12264e-05
2.60092e-06
1.13379e-05
2.49967e-06
1.14472e-05
2.34839e-06
1.15518e-05
2.14757e-06
1.16492e-05
1.89947e-06
1.17372e-05
1.6082e-06
1.18132e-05
1.27972e-06
1.18755e-05
9.2207e-07
1.19219e-05
5.46405e-07
1.19511e-05
1.69216e-07
1.19625e-05
-1.96579e-07
1.19562e-05
-5.414e-07
1.19327e-05
-8.57662e-07
1.18933e-05
-1.13996e-06
1.18392e-05
-1.38511e-06
1.17722e-05
-1.59205e-06
1.16939e-05
-1.76144e-06
1.1606e-05
-1.89523e-06
1.15097e-05
-1.99611e-06
1.14063e-05
-2.06704e-06
1.12969e-05
-2.11098e-06
1.11828e-05
-2.13118e-06
1.10657e-05
-2.13136e-06
1.09471e-05
-2.11495e-06
1.08289e-05
-2.084e-06
1.0713e-05
-2.03911e-06
1.06018e-05
-1.97948e-06
1.04977e-05
-1.90324e-06
1.04029e-05
-1.80802e-06
1.03198e-05
-1.69156e-06
1.02502e-05
-1.55228e-06
1.01957e-05
-1.38963e-06
1.01574e-05
-1.20434e-06
1.0136e-05
-9.98394e-07
1.01316e-05
-7.74847e-07
1.01442e-05
-5.37595e-07
1.01732e-05
-2.9107e-07
1.02176e-05
-4.00282e-08
1.0276e-05
2.1028e-07
1.03474e-05
4.55175e-07
1.04304e-05
6.91153e-07
1.05237e-05
9.15022e-07
1.06259e-05
1.12396e-06
1.07355e-05
1.31546e-06
1.08513e-05
1.48737e-06
1.09718e-05
1.63784e-06
1.10958e-05
1.76525e-06
1.12223e-05
1.86816e-06
1.13504e-05
1.9452e-06
1.14792e-05
1.9949e-06
1.16076e-05
2.01541e-06
1.17341e-05
2.00466e-06
1.18568e-05
1.96149e-06
1.19741e-05
1.8856e-06
1.20842e-05
1.77743e-06
1.21851e-05
1.63817e-06
1.22751e-05
1.46977e-06
1.23526e-05
1.27497e-06
1.2416e-05
1.05733e-06
1.24641e-05
8.21366e-07
1.24956e-05
5.72661e-07
1.25097e-05
3.18328e-07
1.25061e-05
6.61988e-08
1.24853e-05
-1.78337e-07
1.24478e-05
-4.10567e-07
1.23946e-05
-6.26572e-07
1.23271e-05
-8.23247e-07
1.22466e-05
-9.98276e-07
1.21546e-05
-1.15008e-06
1.20527e-05
-1.27774e-06
1.19424e-05
-1.38088e-06
1.18251e-05
-1.45957e-06
1.17021e-05
-1.51428e-06
1.1575e-05
-1.54585e-06
1.14452e-05
-1.55551e-06
1.13141e-05
-1.54485e-06
1.11833e-05
-1.51546e-06
1.10543e-05
-1.46862e-06
1.09288e-05
-1.40525e-06
1.08088e-05
-1.32578e-06
1.06962e-05
-1.23023e-06
1.05931e-05
-1.11848e-06
1.05012e-05
-9.90473e-07
1.04221e-05
-8.4661e-07
1.03568e-05
-6.87955e-07
1.03058e-05
-5.16365e-07
1.02693e-05
-3.34483e-07
1.02471e-05
-1.45672e-07
1.02384e-05
4.59281e-08
1.02426e-05
2.36128e-07
1.0259e-05
4.21776e-07
1.02867e-05
5.99993e-07
1.0325e-05
7.682e-07
1.03729e-05
9.24155e-07
1.04294e-05
1.06593e-06
1.04935e-05
1.19193e-06
1.05643e-05
1.3008e-06
1.06408e-05
1.39144e-06
1.07222e-05
1.46284e-06
1.514e-06
1.331e-05
-2.29831e-06
1.31605e-05
-2.40942e-06
1.29998e-05
-2.46716e-06
1.2832e-05
-2.47778e-06
1.26609e-05
-2.45001e-06
1.24891e-05
-2.39259e-06
1.23182e-05
-2.31278e-06
1.21488e-05
-2.21641e-06
1.19811e-05
-2.1079e-06
1.18147e-05
-1.99051e-06
1.16489e-05
-1.86669e-06
1.14826e-05
-1.7385e-06
1.13146e-05
-1.60776e-06
1.11444e-05
-1.47605e-06
1.0973e-05
-1.34417e-06
1.08035e-05
-1.21121e-06
1.06413e-05
-1.074e-06
1.04928e-05
-9.27368e-07
1.03647e-05
-7.65193e-07
1.02627e-05
-5.81914e-07
1.01897e-05
-3.74143e-07
1.01463e-05
-1.41744e-07
1.01308e-05
1.11927e-07
1.01398e-05
3.80661e-07
1.01688e-05
6.56137e-07
1.02138e-05
9.29031e-07
1.02724e-05
1.19248e-06
1.03424e-05
1.44132e-06
1.04219e-05
1.67133e-06
1.05096e-05
1.87916e-06
1.06043e-05
2.06219e-06
1.07049e-05
2.21843e-06
1.08107e-05
2.34627e-06
1.0921e-05
2.44425e-06
1.10355e-05
2.51049e-06
1.11542e-05
2.54131e-06
1.12762e-05
2.53145e-06
1.13997e-05
2.47738e-06
1.15226e-05
2.37676e-06
1.16424e-05
2.22863e-06
1.17563e-05
2.03364e-06
1.18616e-05
1.79419e-06
1.19555e-05
1.51433e-06
1.20354e-05
1.1998e-06
1.20991e-05
8.58352e-07
1.21445e-05
5.01011e-07
1.21702e-05
1.43512e-07
1.2176e-05
-2.02382e-07
1.21623e-05
-5.27754e-07
1.21303e-05
-8.25576e-07
1.20812e-05
-1.09092e-06
1.20171e-05
-1.32094e-06
1.19398e-05
-1.51475e-06
1.18513e-05
-1.67299e-06
1.17535e-05
-1.79747e-06
1.1648e-05
-1.89059e-06
1.15361e-05
-1.95507e-06
1.14189e-05
-1.99383e-06
1.1298e-05
-2.01023e-06
1.11747e-05
-2.00807e-06
1.10505e-05
-1.99078e-06
1.09271e-05
-1.96057e-06
1.08063e-05
-1.9183e-06
1.06902e-05
-1.86341e-06
1.05812e-05
-1.79425e-06
1.04817e-05
-1.70851e-06
1.0394e-05
-1.60384e-06
1.03201e-05
-1.47838e-06
1.02617e-05
-1.33123e-06
1.022e-05
-1.16267e-06
1.01958e-05
-9.74225e-07
1.01895e-05
-7.68507e-07
1.02009e-05
-5.49004e-07
1.02296e-05
-3.19777e-07
1.02748e-05
-8.52443e-08
1.03352e-05
1.49925e-07
1.04094e-05
3.80953e-07
1.04963e-05
6.04269e-07
1.05945e-05
8.16792e-07
1.07027e-05
1.01577e-06
1.08194e-05
1.19873e-06
1.09433e-05
1.36351e-06
1.10729e-05
1.50821e-06
1.12071e-05
1.63113e-06
1.13445e-05
1.73073e-06
1.14841e-05
1.80555e-06
1.16249e-05
1.85413e-06
1.17655e-05
1.87485e-06
1.19041e-05
1.86606e-06
1.20388e-05
1.82677e-06
1.21676e-05
1.7568e-06
1.22884e-05
1.65666e-06
1.2399e-05
1.52747e-06
1.24978e-05
1.37107e-06
1.25827e-05
1.19004e-06
1.26522e-05
9.87837e-07
1.27047e-05
7.68816e-07
1.27391e-05
5.38333e-07
1.27541e-05
3.03248e-07
1.275e-05
7.03438e-08
1.27271e-05
-1.55428e-07
1.26863e-05
-3.6976e-07
1.26288e-05
-5.69068e-07
1.2556e-05
-7.50499e-07
1.24697e-05
-9.11913e-07
1.23714e-05
-1.05181e-06
1.22629e-05
-1.16927e-06
1.21459e-05
-1.26387e-06
1.2022e-05
-1.33566e-06
1.18928e-05
-1.38509e-06
1.176e-05
-1.41301e-06
1.1625e-05
-1.42058e-06
1.14895e-05
-1.40926e-06
1.13546e-05
-1.38056e-06
1.12217e-05
-1.33581e-06
1.10926e-05
-1.27608e-06
1.09688e-05
-1.20204e-06
1.08525e-05
-1.11393e-06
1.07457e-05
-1.01169e-06
1.06504e-05
-8.95154e-07
1.05682e-05
-7.64431e-07
1.05004e-05
-6.20163e-07
1.04478e-05
-4.63749e-07
1.04107e-05
-2.97341e-07
1.03889e-05
-1.23876e-07
1.03818e-05
5.30258e-08
1.03886e-05
2.29322e-07
1.04085e-05
4.01875e-07
1.04406e-05
5.67871e-07
1.0484e-05
7.24786e-07
1.05378e-05
8.70428e-07
1.06008e-05
1.00292e-06
1.0672e-05
1.12067e-06
1.07505e-05
1.22233e-06
1.08352e-05
1.30671e-06
1.09254e-05
1.37271e-06
1.41922e-06
1.35001e-05
-2.15934e-06
1.33466e-05
-2.25593e-06
1.31829e-05
-2.30353e-06
1.30136e-05
-2.30842e-06
1.28421e-05
-2.27854e-06
1.26709e-05
-2.22135e-06
1.25012e-05
-2.14306e-06
1.23334e-05
-2.04869e-06
1.21676e-05
-1.94211e-06
1.20034e-05
-1.82627e-06
1.18401e-05
-1.7034e-06
1.16769e-05
-1.5753e-06
1.15128e-05
-1.44363e-06
1.13468e-05
-1.31008e-06
1.11788e-05
-1.17616e-06
1.10102e-05
-1.04258e-06
1.08445e-05
-9.08369e-07
1.06877e-05
-7.70518e-07
1.05466e-05
-6.24124e-07
1.04281e-05
-4.63368e-07
1.03372e-05
-2.8325e-07
1.02765e-05
-8.10751e-08
1.02459e-05
1.4248e-07
1.02431e-05
3.83494e-07
1.0264e-05
6.35271e-07
1.0304e-05
8.89024e-07
1.036e-05
1.13651e-06
1.04294e-05
1.37185e-06
1.05104e-05
1.59038e-06
1.06012e-05
1.78836e-06
1.07005e-05
1.9629e-06
1.08071e-05
2.11175e-06
1.09202e-05
2.23317e-06
1.1039e-05
2.3255e-06
1.11629e-05
2.38658e-06
1.12915e-05
2.41275e-06
1.14233e-05
2.39959e-06
1.15565e-05
2.34422e-06
1.16885e-05
2.24473e-06
1.18167e-05
2.10047e-06
1.19379e-05
1.91237e-06
1.20492e-05
1.6829e-06
1.21475e-05
1.41603e-06
1.22301e-05
1.11726e-06
1.22944e-05
7.9401e-07
1.23383e-05
4.57071e-07
1.23606e-05
1.21201e-07
1.23614e-05
-2.03131e-07
1.23414e-05
-5.07724e-07
1.23019e-05
-7.86158e-07
1.2245e-05
-1.03396e-06
1.21726e-05
-1.2486e-06
1.20872e-05
-1.42926e-06
1.19907e-05
-1.57655e-06
1.18853e-05
-1.69204e-06
1.17726e-05
-1.77788e-06
1.16541e-05
-1.83658e-06
1.15312e-05
-1.87096e-06
1.14054e-05
-1.88438e-06
1.12779e-05
-1.88056e-06
1.11499e-05
-1.86285e-06
1.1023e-05
-1.83362e-06
1.08987e-05
-1.79398e-06
1.0779e-05
-1.74374e-06
1.06663e-05
-1.68151e-06
1.05628e-05
-1.60511e-06
1.04712e-05
-1.51216e-06
1.03934e-05
-1.40059e-06
1.03313e-05
-1.26917e-06
1.02864e-05
-1.11774e-06
1.02595e-05
-9.47336e-07
1.02511e-05
-7.60101e-07
1.02612e-05
-5.59096e-07
1.02894e-05
-3.48011e-07
1.03351e-05
-1.30921e-07
1.03971e-05
8.79515e-08
1.04739e-05
3.04165e-07
1.05643e-05
5.13869e-07
1.0667e-05
7.14074e-07
1.07807e-05
9.02103e-07
1.09039e-05
1.07554e-06
1.10351e-05
1.23222e-06
1.11731e-05
1.37023e-06
1.13164e-05
1.48782e-06
1.14638e-05
1.5834e-06
1.16138e-05
1.65546e-06
1.17654e-05
1.70258e-06
1.19168e-05
1.72341e-06
1.20662e-05
1.7167e-06
1.22112e-05
1.68172e-06
1.23497e-05
1.61831e-06
1.24794e-05
1.52694e-06
1.25982e-05
1.40868e-06
1.27041e-05
1.26523e-06
1.27951e-05
1.09906e-06
1.28694e-05
9.13511e-07
1.29254e-05
7.12822e-07
1.29616e-05
5.02116e-07
1.29771e-05
2.87761e-07
1.2972e-05
7.54275e-08
1.2947e-05
-1.30403e-07
1.29031e-05
-3.25842e-07
1.28416e-05
-5.07637e-07
1.27643e-05
-6.73186e-07
1.26729e-05
-8.20496e-07
1.25692e-05
-9.48148e-07
1.24552e-05
-1.05523e-06
1.23327e-05
-1.14133e-06
1.22034e-05
-1.20645e-06
1.20693e-05
-1.251e-06
1.19321e-05
-1.27577e-06
1.17933e-05
-1.28177e-06
1.16543e-05
-1.27028e-06
1.15164e-05
-1.24263e-06
1.13808e-05
-1.2002e-06
1.12489e-05
-1.1442e-06
1.11224e-05
-1.07556e-06
1.10033e-05
-9.9479e-07
1.08936e-05
-9.01996e-07
1.07954e-05
-7.97004e-07
1.07107e-05
-6.79678e-07
1.06408e-05
-5.50273e-07
1.05867e-05
-4.09702e-07
1.0549e-05
-2.59643e-07
1.05277e-05
-1.02522e-07
1.05222e-05
5.85522e-08
1.05316e-05
2.19917e-07
1.0555e-05
3.78421e-07
1.05916e-05
5.3133e-07
1.06402e-05
6.76183e-07
1.06998e-05
8.10825e-07
1.07693e-05
9.334e-07
1.08477e-05
1.0423e-06
1.09339e-05
1.13613e-06
1.10269e-05
1.21363e-06
1.1126e-05
1.27364e-06
1.31504e-06
1.3647e-05
-2.02106e-06
1.34949e-05
-2.10384e-06
1.33339e-05
-2.1425e-06
1.31684e-05
-2.14292e-06
1.30017e-05
-2.1118e-06
1.28357e-05
-2.05534e-06
1.26713e-05
-1.97871e-06
1.25088e-05
-1.88616e-06
1.23478e-05
-1.78112e-06
1.21878e-05
-1.66632e-06
1.20284e-05
-1.54397e-06
1.18689e-05
-1.41585e-06
1.17088e-05
-1.28351e-06
1.15473e-05
-1.14856e-06
1.13838e-05
-1.01267e-06
1.12185e-05
-8.77242e-07
1.1053e-05
-7.42882e-07
1.08915e-05
-6.09019e-07
1.07402e-05
-4.72873e-07
1.06066e-05
-3.29692e-07
1.04972e-05
-1.73904e-07
1.0417e-05
-8.4594e-10
1.0368e-05
1.91489e-07
1.03495e-05
4.0197e-07
1.03587e-05
6.26112e-07
1.0391e-05
8.56732e-07
1.04423e-05
1.08519e-06
1.05097e-05
1.30445e-06
1.05907e-05
1.50931e-06
1.06835e-05
1.69559e-06
1.07864e-05
1.86004e-06
1.08979e-05
2.0002e-06
1.1017e-05
2.11407e-06
1.11427e-05
2.19983e-06