/*--------------------------------*- C++ -*----------------------------------*\
| =========                 |                                                 |
| \\      /  F ield         | OpenFOAM: The Open Source CFD Toolbox           |
|  \\    /   O peration     | Version:  2206                                  |
|   \\  /    A nd           | Website:  www.openfoam.com                      |
|    \\/     M anipulation  |                                                 |
\*---------------------------------------------------------------------------*/
FoamFile
{
    version     2.0;
    format      ascii;
    arch        "LSB;label=32;scalar=64";
    class       volVectorField;
    location    "19.2999";
    object      U;
}
// * * * * * * * * * * * * * * * * * * * * * * * * * * * * * * * * * * * * * //

dimensions      [0 1 -1 0 0 0 0];

internalField   nonuniform List<vector> 
4810
(
(1.64077 -0.439029 0)
(1.63744 -0.479034 0)
(1.63203 -0.507126 0)
(1.62486 -0.524966 0)
(1.61575 -0.534042 0)
(1.60439 -0.534981 0)
(1.59122 -0.529319 0)
(1.57619 -0.519144 0)
(1.55949 -0.5061 0)
(1.54118 -0.491417 0)
(1.52137 -0.47581 0)
(1.50031 -0.459391 0)
(1.47847 -0.441655 0)
(1.45653 -0.421564 0)
(1.43535 -0.397752 0)
(1.41582 -0.368832 0)
(1.39872 -0.333716 0)
(1.38467 -0.291865 0)
(1.37401 -0.243407 0)
(1.36684 -0.189106 0)
(1.36307 -0.130245 0)
(1.36243 -0.068453 0)
(1.36449 -0.00556571 0)
(1.36875 0.0565746 0)
(1.37481 0.116738 0)
(1.38226 0.173917 0)
(1.39068 0.227336 0)
(1.39965 0.276446 0)
(1.40881 0.320866 0)
(1.41785 0.360376 0)
(1.42656 0.394841 0)
(1.43481 0.424159 0)
(1.44251 0.448267 0)
(1.44959 0.467151 0)
(1.45601 0.480863 0)
(1.46159 0.489527 0)
(1.4668 0.493142 0)
(1.47213 0.489959 0)
(1.47736 0.47825 0)
(1.48254 0.457699 0)
(1.48772 0.428289 0)
(1.49305 0.390118 0)
(1.49856 0.343551 0)
(1.50426 0.289311 0)
(1.51009 0.228506 0)
(1.516 0.16264 0)
(1.52187 0.0936861 0)
(1.52746 0.0243364 0)
(1.53254 -0.0431593 0)
(1.5369 -0.107183 0)
(1.54034 -0.166391 0)
(1.54267 -0.219779 0)
(1.54375 -0.26672 0)
(1.54347 -0.306956 0)
(1.54176 -0.34055 0)
(1.53864 -0.367812 0)
(1.53413 -0.389217 0)
(1.52834 -0.405297 0)
(1.5214 -0.416559 0)
(1.51335 -0.423364 0)
(1.5042 -0.425799 0)
(1.49436 -0.423932 0)
(1.48407 -0.41786 0)
(1.47372 -0.407422 0)
(1.4637 -0.392343 0)
(1.45437 -0.37234 0)
(1.44605 -0.3472 0)
(1.43898 -0.316864 0)
(1.43337 -0.281491 0)
(1.42932 -0.24146 0)
(1.42696 -0.19735 0)
(1.42633 -0.149941 0)
(1.42689 -0.100059 0)
(1.42962 -0.0486351 0)
(1.43378 0.0030812 0)
(1.43929 0.0540052 0)
(1.44599 0.103368 0)
(1.45368 0.150478 0)
(1.46215 0.194728 0)
(1.4712 0.235588 0)
(1.48063 0.272619 0)
(1.49026 0.305494 0)
(1.4999 0.333972 0)
(1.50942 0.35789 0)
(1.51867 0.377139 0)
(1.52756 0.391692 0)
(1.53597 0.401595 0)
(1.54397 0.40683 0)
(1.55197 0.406671 0)
(1.55947 0.400237 0)
(1.56653 0.387378 0)
(1.57305 0.368176 0)
(1.57893 0.342808 0)
(1.58413 0.31156 0)
(1.58859 0.27485 0)
(1.59226 0.233242 0)
(1.5951 0.187461 0)
(1.59704 0.138401 0)
(1.59805 0.0871457 0)
(1.59807 0.0350457 0)
(1.59703 -0.0163926 0)
(1.59491 -0.0661658 0)
(1.59166 -0.113376 0)
(1.58726 -0.157255 0)
(1.58172 -0.197191 0)
(1.57505 -0.232735 0)
(1.56728 -0.263607 0)
(1.55846 -0.289675 0)
(1.54866 -0.310925 0)
(1.53796 -0.327434 0)
(1.52645 -0.339315 0)
(1.5142 -0.346633 0)
(1.50123 -0.349351 0)
(1.48787 -0.347503 0)
(1.47431 -0.341249 0)
(1.46081 -0.33066 0)
(1.44766 -0.315767 0)
(1.43511 -0.296608 0)
(1.42337 -0.273274 0)
(1.41264 -0.245957 0)
(1.40306 -0.214972 0)
(1.3947 -0.180764 0)
(1.38762 -0.143895 0)
(1.38184 -0.105017 0)
(1.37736 -0.0648527 0)
(1.37416 -0.0242253 0)
(1.3722 0.0160592 0)
(1.37145 0.0554215 0)
(1.37185 0.09332 0)
(1.37333 0.129253 0)
(1.37582 0.162767 0)
(1.37921 0.19346 0)
(1.3834 0.220995 0)
(1.38826 0.245097 0)
(1.3937 0.265561 0)
(1.39959 0.282243 0)
(1.40579 0.295062 0)
(1.69465 -0.43469 0)
(1.68789 -0.47218 0)
(1.67903 -0.498047 0)
(1.66843 -0.51387 0)
(1.65571 -0.520776 0)
(1.64119 -0.519491 0)
(1.62516 -0.511967 0)
(1.60773 -0.5001 0)
(1.58906 -0.485436 0)
(1.56919 -0.469183 0)
(1.54811 -0.452136 0)
(1.52594 -0.4346 0)
(1.50299 -0.416325 0)
(1.47981 -0.396517 0)
(1.45718 -0.373964 0)
(1.43598 -0.347283 0)
(1.4171 -0.315243 0)
(1.40125 -0.277053 0)
(1.38888 -0.232546 0)
(1.38018 -0.182211 0)
(1.37507 -0.12711 0)
(1.3733 -0.0687009 0)
(1.37442 -0.00866163 0)
(1.37794 0.0511681 0)
(1.38337 0.109467 0)
(1.39033 0.165243 0)
(1.39843 0.21771 0)
(1.40727 0.266283 0)
(1.41654 0.310523 0)
(1.42596 0.350124 0)
(1.43533 0.384873 0)
(1.4445 0.414619 0)
(1.45335 0.439265 0)
(1.46181 0.458761 0)
(1.46983 0.473093 0)
(1.47728 0.482291 0)
(1.48466 0.486093 0)
(1.49217 0.482796 0)
(1.49963 0.471111 0)
(1.50714 0.4506 0)
(1.51461 0.421165 0)
(1.52205 0.382931 0)
(1.52944 0.336314 0)
(1.53672 0.282078 0)
(1.54379 0.221363 0)
(1.55054 0.155715 0)
(1.55683 0.0871575 0)
(1.5624 0.0184965 0)
(1.56703 -0.0480986 0)
(1.57055 -0.111009 0)
(1.5728 -0.168908 0)
(1.57366 -0.220834 0)
(1.57303 -0.266203 0)
(1.5709 -0.304807 0)
(1.56726 -0.336766 0)
(1.56217 -0.362442 0)
(1.55571 -0.382353 0)
(1.548 -0.39706 0)
(1.53914 -0.407062 0)
(1.52914 -0.412685 0)
(1.51818 -0.414126 0)
(1.50661 -0.411653 0)
(1.49469 -0.405368 0)
(1.4828 -0.395127 0)
(1.47132 -0.380653 0)
(1.46058 -0.361636 0)
(1.45092 -0.337819 0)
(1.44261 -0.309088 0)
(1.43588 -0.275522 0)
(1.43088 -0.237418 0)
(1.4277 -0.195251 0)
(1.42663 -0.149713 0)
(1.42696 -0.101759 0)
(1.42947 -0.0523476 0)
(1.43365 -0.0023979 0)
(1.43935 0.0469899 0)
(1.44642 0.0950344 0)
(1.45467 0.141045 0)
(1.46389 0.184418 0)
(1.47388 0.224628 0)
(1.48444 0.261236 0)
(1.49537 0.293897 0)
(1.50648 0.32235 0)
(1.51763 0.346407 0)
(1.52866 0.365935 0)
(1.53948 0.380859 0)
(1.54995 0.391148 0)
(1.56016 0.396676 0)
(1.57034 0.39678 0)
(1.58007 0.39078 0)
(1.58935 0.378516 0)
(1.59806 0.36002 0)
(1.60605 0.335451 0)
(1.61323 0.305086 0)
(1.61951 0.26934 0)
(1.62479 0.228774 0)
(1.62901 0.184105 0)
(1.63207 0.13622 0)
(1.63392 0.086199 0)
(1.63448 0.0354146 0)
(1.63368 -0.0146632 0)
(1.6315 -0.063046 0)
(1.62793 -0.108848 0)
(1.62297 -0.151321 0)
(1.61666 -0.189877 0)
(1.60904 -0.224089 0)
(1.6002 -0.253693 0)
(1.59022 -0.278573 0)
(1.57919 -0.298734 0)
(1.56723 -0.314256 0)
(1.55442 -0.325243 0)
(1.54083 -0.331771 0)
(1.52656 -0.333868 0)
(1.51193 -0.331672 0)
(1.49712 -0.325367 0)
(1.48242 -0.315034 0)
(1.4681 -0.3007 0)
(1.45443 -0.28238 0)
(1.44167 -0.260125 0)
(1.43002 -0.234077 0)
(1.41963 -0.204497 0)
(1.41061 -0.171778 0)
(1.40303 -0.136439 0)
(1.39689 -0.0990991 0)
(1.3922 -0.0604557 0)
(1.38892 -0.0213091 0)
(1.38701 0.0175396 0)
(1.38641 0.0555241 0)
(1.38706 0.0921131 0)
(1.3889 0.126823 0)
(1.39183 0.159216 0)
(1.39577 0.188904 0)
(1.40058 0.215559 0)
(1.40617 0.238914 0)
(1.4124 0.258769 0)
(1.41915 0.274982 0)
(1.42629 0.287466 0)
(1.74775 -0.426638 0)
(1.73771 -0.461529 0)
(1.72563 -0.485137 0)
(1.71166 -0.498928 0)
(1.6956 -0.503733 0)
(1.67815 -0.500675 0)
(1.65948 -0.491752 0)
(1.63983 -0.478682 0)
(1.61936 -0.462886 0)
(1.59809 -0.445495 0)
(1.57596 -0.427321 0)
(1.55297 -0.408805 0)
(1.52925 -0.389936 0)
(1.5052 -0.370199 0)
(1.48145 -0.348615 0)
(1.45884 -0.323908 0)
(1.4383 -0.294783 0)
(1.42064 -0.260233 0)
(1.40647 -0.219789 0)
(1.39607 -0.173625 0)
(1.38947 -0.122525 0)
(1.38642 -0.0677389 0)
(1.38653 -0.0107985 0)
(1.38924 0.046553 0)
(1.39403 0.102826 0)
(1.4005 0.157022 0)
(1.40829 0.208328 0)
(1.41703 0.256115 0)
(1.42644 0.299894 0)
(1.43626 0.339292 0)
(1.44628 0.374039 0)
(1.45635 0.403938 0)
(1.46635 0.428851 0)
(1.47621 0.448684 0)
(1.48587 0.463365 0)
(1.49522 0.472832 0)
(1.50473 0.47661 0)
(1.51442 0.473141 0)
(1.52413 0.4614 0)
(1.53391 0.440931 0)
(1.54361 0.411587 0)
(1.55312 0.37351 0)
(1.56234 0.327148 0)
(1.57114 0.27329 0)
(1.57938 0.21309 0)
(1.58689 0.148112 0)
(1.59351 0.0804602 0)
(1.59895 0.0129729 0)
(1.60302 -0.0522536 0)
(1.60559 -0.113621 0)
(1.60653 -0.169845 0)
(1.6058 -0.220017 0)
(1.60337 -0.263612 0)
(1.5993 -0.300473 0)
(1.59367 -0.330757 0)
(1.58659 -0.354859 0)
(1.57817 -0.373313 0)
(1.56856 -0.38668 0)
(1.55781 -0.395442 0)
(1.54596 -0.399944 0)
(1.53332 -0.40053 0)
(1.52015 -0.397572 0)
(1.50675 -0.39118 0)
(1.49347 -0.38123 0)
(1.48068 -0.367442 0)
(1.46872 -0.349482 0)
(1.45791 -0.327059 0)
(1.44854 -0.300012 0)
(1.44085 -0.268368 0)
(1.435 -0.23236 0)
(1.43113 -0.192415 0)
(1.42933 -0.149119 0)
(1.42963 -0.103347 0)
(1.43192 -0.0560193 0)
(1.43606 -0.00799578 0)
(1.4419 0.0396778 0)
(1.44929 0.0861975 0)
(1.45804 0.130899 0)
(1.46795 0.173185 0)
(1.47882 0.212541 0)
(1.49045 0.248522 0)
(1.50263 0.280772 0)
(1.51517 0.309012 0)
(1.52791 0.333026 0)
(1.54069 0.352655 0)
(1.5534 0.367783 0)
(1.56592 0.378316 0)
(1.57829 0.384055 0)
(1.59063 0.384417 0)
(1.60255 0.37885 0)
(1.61402 0.367196 0)
(1.62488 0.349469 0)
(1.63494 0.325812 0)
(1.64406 0.296491 0)
(1.65213 0.261913 0)
(1.65899 0.222632 0)
(1.66455 0.179353 0)
(1.66871 0.13295 0)
(1.67136 0.0844946 0)
(1.67241 0.0353696 0)
(1.67181 -0.0130125 0)
(1.66953 -0.0596825 0)
(1.66559 -0.103785 0)
(1.66003 -0.144601 0)
(1.6529 -0.181568 0)
(1.64431 -0.214285 0)
(1.63437 -0.242507 0)
(1.62321 -0.266123 0)
(1.61095 -0.285139 0)
(1.59771 -0.299636 0)
(1.58361 -0.309716 0)
(1.56873 -0.31546 0)
(1.55324 -0.316976 0)
(1.53742 -0.314478 0)
(1.52146 -0.308162 0)
(1.50564 -0.298125 0)
(1.49024 -0.284401 0)
(1.47555 -0.26699 0)
(1.46182 -0.24591 0)
(1.44929 -0.221254 0)
(1.43815 -0.193225 0)
(1.4285 -0.162158 0)
(1.42044 -0.12852 0)
(1.41399 -0.0928891 0)
(1.40913 -0.0559292 0)
(1.40583 -0.018409 0)
(1.40402 0.0188707 0)
(1.40364 0.0553539 0)
(1.40463 0.0905202 0)
(1.4069 0.123897 0)
(1.41036 0.155063 0)
(1.41491 0.183645 0)
(1.42044 0.209324 0)
(1.42681 0.231843 0)
(1.43391 0.251005 0)
(1.4416 0.26667 0)
(1.44974 0.278742 0)
(1.79845 -0.414988 0)
(1.78536 -0.447277 0)
(1.77023 -0.468692 0)
(1.75315 -0.480451 0)
(1.73425 -0.483361 0)
(1.71426 -0.478906 0)
(1.69333 -0.468978 0)
(1.67178 -0.455135 0)
(1.64979 -0.438648 0)
(1.62737 -0.420529 0)
(1.60443 -0.401555 0)
(1.58088 -0.382246 0)
(1.55672 -0.362785 0)
(1.53215 -0.342936 0)
(1.50764 -0.322005 0)
(1.48393 -0.298919 0)
(1.46191 -0.272421 0)
(1.44249 -0.241363 0)
(1.42643 -0.204995 0)
(1.41417 -0.163149 0)
(1.40587 -0.116288 0)
(1.40136 -0.0654039 0)
(1.40029 -0.0118549 0)
(1.4021 0.0427692 0)
(1.40623 0.0968282 0)
(1.41222 0.149244 0)
(1.41971 0.199166 0)
(1.42838 0.245918 0)
(1.43794 0.288961 0)
(1.44816 0.327876 0)
(1.45883 0.362339 0)
(1.4698 0.392108 0)
(1.48096 0.417004 0)
(1.49223 0.436889 0)
(1.50351 0.451649 0)
(1.51473 0.461133 0)
(1.5263 0.464717 0)
(1.53811 0.461013 0)
(1.55002 0.449181 0)
(1.56199 0.428776 0)
(1.5738 0.399649 0)
(1.58528 0.361953 0)
(1.59625 0.31615 0)
(1.6065 0.263042 0)
(1.61582 0.203789 0)
(1.62399 0.13996 0)
(1.63078 0.0737227 0)
(1.63594 0.00790609 0)
(1.63931 -0.055493 0)
(1.64079 -0.114915 0)
(1.64035 -0.16913 0)
(1.638 -0.217288 0)
(1.63378 -0.258924 0)
(1.62782 -0.293936 0)
(1.62024 -0.322516 0)
(1.61122 -0.345067 0)
(1.60092 -0.362114 0)
(1.58945 -0.3742 0)
(1.5769 -0.381788 0)
(1.56338 -0.385284 0)
(1.54921 -0.385167 0)
(1.5346 -0.381847 0)
(1.51986 -0.375458 0)
(1.50532 -0.365901 0)
(1.49134 -0.352903 0)
(1.47827 -0.336111 0)
(1.46644 -0.315199 0)
(1.45614 -0.289951 0)
(1.44762 -0.260337 0)
(1.44107 -0.226531 0)
(1.43661 -0.188912 0)
(1.43433 -0.148038 0)
(1.43427 -0.104643 0)
(1.43635 -0.0595513 0)
(1.44047 -0.01362 0)
(1.44646 0.0321396 0)
(1.45415 0.0769283 0)
(1.46338 0.120109 0)
(1.47395 0.161098 0)
(1.48567 0.199388 0)
(1.49832 0.234535 0)
(1.5117 0.266172 0)
(1.52561 0.294004 0)
(1.53989 0.317793 0)
(1.55437 0.337352 0)
(1.56892 0.352525 0)
(1.58343 0.363168 0)
(1.59789 0.369038 0)
(1.61232 0.369631 0)
(1.62639 0.364492 0)
(1.63997 0.353476 0)
(1.6529 0.336584 0)
(1.66495 0.313952 0)
(1.67594 0.285837 0)
(1.68571 0.252632 0)
(1.69409 0.214878 0)
(1.70093 0.173266 0)
(1.70611 0.128648 0)
(1.70949 0.0820823 0)
(1.71097 0.0349588 0)
(1.7105 -0.0113961 0)
(1.70806 -0.0560457 0)
(1.70371 -0.0981653 0)
(1.69751 -0.137076 0)
(1.68957 -0.172248 0)
(1.68001 -0.203307 0)
(1.66899 -0.230023 0)
(1.65667 -0.252299 0)
(1.64319 -0.270131 0)
(1.62872 -0.283587 0)
(1.61338 -0.292766 0)
(1.59728 -0.297774 0)
(1.58066 -0.298776 0)
(1.56375 -0.29603 0)
(1.54675 -0.289745 0)
(1.52993 -0.280044 0)
(1.51356 -0.266971 0)
(1.49793 -0.250525 0)
(1.48332 -0.230699 0)
(1.46998 -0.207541 0)
(1.45812 -0.181197 0)
(1.44789 -0.151939 0)
(1.43938 -0.120173 0)
(1.43264 -0.0864262 0)
(1.42765 -0.0513188 0)
(1.42436 -0.0155848 0)
(1.42271 0.0199834 0)
(1.42262 0.0548332 0)
(1.424 0.0884559 0)
(1.42678 0.120388 0)
(1.43084 0.150221 0)
(1.43609 0.177595 0)
(1.4424 0.202208 0)
(1.44963 0.223804 0)
(1.45767 0.242192 0)
(1.46636 0.257229 0)
(1.47557 0.268807 0)
(1.8451 -0.400177 0)
(1.82944 -0.429795 0)
(1.81167 -0.44901 0)
(1.79193 -0.458842 0)
(1.77072 -0.460193 0)
(1.74864 -0.454712 0)
(1.72593 -0.444128 0)
(1.7029 -0.429872 0)
(1.67972 -0.41308 0)
(1.65642 -0.39463 0)
(1.63293 -0.375201 0)
(1.60911 -0.355314 0)
(1.58483 -0.335299 0)
(1.56012 -0.315176 0)
(1.53525 -0.294555 0)
(1.5108 -0.272641 0)
(1.48759 -0.248334 0)
(1.46655 -0.220455 0)
(1.44857 -0.188035 0)
(1.4343 -0.150569 0)
(1.42406 -0.108154 0)
(1.41784 -0.0614715 0)
(1.41535 -0.0116514 0)
(1.41611 0.0398869 0)
(1.41949 0.0914941 0)
(1.42496 0.141897 0)
(1.43216 0.190197 0)
(1.44075 0.235665 0)
(1.45048 0.277711 0)
(1.46109 0.315868 0)
(1.47241 0.349768 0)
(1.48427 0.379126 0)
(1.49656 0.403726 0)
(1.50919 0.4234 0)
(1.52204 0.437993 0)
(1.53507 0.447272 0)
(1.5486 0.450512 0)
(1.56242 0.446513 0)
(1.5764 0.434574 0)
(1.59043 0.414275 0)
(1.60426 0.385477 0)
(1.61762 0.348351 0)
(1.63023 0.303392 0)
(1.6418 0.251418 0)
(1.65204 0.193578 0)
(1.66071 0.131417 0)
(1.66755 0.0671238 0)
(1.6723 0.00347681 0)
(1.67487 -0.0576534 0)
(1.6752 -0.114764 0)
(1.67334 -0.16669 0)
(1.66935 -0.21264 0)
(1.66337 -0.252196 0)
(1.65558 -0.285293 0)
(1.64618 -0.312148 0)
(1.63534 -0.333177 0)
(1.62327 -0.348883 0)
(1.61009 -0.359763 0)
(1.59592 -0.366281 0)
(1.58093 -0.368921 0)
(1.56541 -0.368237 0)
(1.54956 -0.364662 0)
(1.53366 -0.358362 0)
(1.51804 -0.34927 0)
(1.50302 -0.337126 0)
(1.48897 -0.321576 0)
(1.47621 -0.302262 0)
(1.46506 -0.278925 0)
(1.45578 -0.251472 0)
(1.44856 -0.220009 0)
(1.44356 -0.184852 0)
(1.44085 -0.146504 0)
(1.44047 -0.105622 0)
(1.44237 -0.0629608 0)
(1.44647 -0.0193359 0)
(1.45262 0.0243369 0)
(1.46062 0.0672176 0)
(1.47031 0.10869 0)
(1.48151 0.14819 0)
(1.49402 0.185216 0)
(1.50764 0.21933 0)
(1.52217 0.25016 0)
(1.5374 0.277394 0)
(1.55315 0.300777 0)
(1.56926 0.320095 0)
(1.58558 0.335159 0)
(1.60199 0.345786 0)
(1.61844 0.351711 0)
(1.63488 0.352509 0)
(1.65098 0.347802 0)
(1.66657 0.337458 0)
(1.68145 0.321478 0)
(1.69538 0.299987 0)
(1.70814 0.273231 0)
(1.71952 0.24159 0)
(1.72933 0.205595 0)
(1.73736 0.165925 0)
(1.74346 0.12341 0)
(1.74747 0.079077 0)
(1.74928 0.0342947 0)
(1.74883 -0.00971064 0)
(1.74617 -0.0520444 0)
(1.74134 -0.0919298 0)
(1.73446 -0.128725 0)
(1.72568 -0.161936 0)
(1.71515 -0.191211 0)
(1.70308 -0.216331 0)
(1.68966 -0.237197 0)
(1.67505 -0.253803 0)
(1.65943 -0.266203 0)
(1.64296 -0.274495 0)
(1.62579 -0.278817 0)
(1.60816 -0.279377 0)
(1.5903 -0.276447 0)
(1.57239 -0.270249 0)
(1.5547 -0.260925 0)
(1.53749 -0.248542 0)
(1.52105 -0.233101 0)
(1.50565 -0.214586 0)
(1.49158 -0.193009 0)
(1.47906 -0.168463 0)
(1.46828 -0.141155 0)
(1.45935 -0.111426 0)
(1.45233 -0.0797384 0)
(1.44722 -0.0466626 0)
(1.44399 -0.0128862 0)
(1.44254 0.0208208 0)
(1.44278 0.0538976 0)
(1.44462 0.0858484 0)
(1.44796 0.116221 0)
(1.45269 0.144614 0)
(1.4587 0.170682 0)
(1.46586 0.194131 0)
(1.47402 0.21472 0)
(1.48305 0.232254 0)
(1.49282 0.24658 0)
(1.50318 0.257577 0)
(1.88636 -0.382795 0)
(1.8687 -0.40971 0)
(1.84888 -0.426724 0)
(1.82716 -0.434754 0)
(1.80426 -0.434844 0)
(1.78069 -0.428643 0)
(1.75674 -0.417715 0)
(1.73272 -0.403345 0)
(1.70877 -0.386544 0)
(1.68492 -0.368073 0)
(1.66111 -0.348512 0)
(1.63722 -0.328322 0)
(1.61308 -0.307867 0)
(1.58857 -0.287356 0)
(1.56375 -0.26672 0)
(1.539 -0.245487 0)
(1.51497 -0.222814 0)
(1.49257 -0.197621 0)
(1.47276 -0.168834 0)
(1.45638 -0.135663 0)
(1.44397 -0.0978253 0)
(1.43574 -0.0556275 0)
(1.43153 -0.00990812 0)
(1.43095 0.0381063 0)
(1.4334 0.0869288 0)
(1.43827 0.135037 0)
(1.44512 0.181449 0)
(1.45362 0.225368 0)
(1.46348 0.266149 0)
(1.47447 0.303277 0)
(1.4864 0.336341 0)
(1.49912 0.36502 0)
(1.51248 0.389069 0)
(1.52639 0.408293 0)
(1.54072 0.422501 0)
(1.55544 0.431382 0)
(1.57079 0.434154 0)
(1.58648 0.429796 0)
(1.60241 0.417715 0)
(1.61838 0.397542 0)
(1.63403 0.369191 0)
(1.64903 0.332872 0)
(1.66302 0.289089 0)
(1.67567 0.238649 0)
(1.68665 0.182671 0)
(1.69566 0.122655 0)
(1.70244 0.060784 0)
(1.70673 -0.000248793 0)
(1.70847 -0.058712 0)
(1.70769 -0.113177 0)
(1.70445 -0.162553 0)
(1.69892 -0.206115 0)
(1.6913 -0.243499 0)
(1.68182 -0.274663 0)
(1.67073 -0.299822 0)
(1.65827 -0.319371 0)
(1.64462 -0.33379 0)
(1.62994 -0.34356 0)
(1.61437 -0.349148 0)
(1.59814 -0.35109 0)
(1.58149 -0.349978 0)
(1.5646 -0.346255 0)
(1.54775 -0.340126 0)
(1.53123 -0.331557 0)
(1.51535 -0.320317 0)
(1.50046 -0.306055 0)
(1.48691 -0.288396 0)
(1.475 -0.267041 0)
(1.46503 -0.241838 0)
(1.4572 -0.212831 0)
(1.45168 -0.180264 0)
(1.44857 -0.144573 0)
(1.44789 -0.106347 0)
(1.44963 -0.0662811 0)
(1.45371 -0.0251287 0)
(1.46 0.0162802 0)
(1.46829 0.0570857 0)
(1.47842 0.0966752 0)
(1.49022 0.134502 0)
(1.50348 0.170079 0)
(1.51802 0.202971 0)
(1.53362 0.232804 0)
(1.55009 0.259259 0)
(1.56724 0.282061 0)
(1.58489 0.300976 0)
(1.60288 0.315788 0)
(1.62108 0.326284 0)
(1.63939 0.332203 0)
(1.6577 0.333186 0)
(1.67569 0.328923 0)
(1.69315 0.319292 0)
(1.70985 0.304291 0)
(1.72553 0.284039 0)
(1.73991 0.258784 0)
(1.75275 0.228906 0)
(1.76381 0.194916 0)
(1.77288 0.157465 0)
(1.77976 0.117363 0)
(1.78429 0.075589 0)
(1.78634 0.0334728 0)
(1.78587 -0.00787905 0)
(1.78294 -0.0476214 0)
(1.77763 -0.085029 0)
(1.77009 -0.119509 0)
(1.7605 -0.150602 0)
(1.74905 -0.177979 0)
(1.73598 -0.201434 0)
(1.72149 -0.220859 0)
(1.70581 -0.236235 0)
(1.68912 -0.247607 0)
(1.67162 -0.255073 0)
(1.6535 -0.258791 0)
(1.63502 -0.258985 0)
(1.61637 -0.255928 0)
(1.59774 -0.249851 0)
(1.57936 -0.240926 0)
(1.56147 -0.229246 0)
(1.54435 -0.214831 0)
(1.52829 -0.197664 0)
(1.51358 -0.17773 0)
(1.50047 -0.155074 0)
(1.48918 -0.12984 0)
(1.47986 -0.102296 0)
(1.47258 -0.0728381 0)
(1.46737 -0.0419776 0)
(1.46419 -0.0103397 0)
(1.46296 0.0213404 0)
(1.46356 0.0524941 0)
(1.4659 0.0826354 0)
(1.46985 0.111322 0)
(1.4753 0.138167 0)
(1.48212 0.162829 0)
(1.49018 0.185025 0)
(1.49932 0.204516 0)
(1.50941 0.221111 0)
(1.52031 0.234646 0)
(1.53188 0.244974 0)
(1.9213 -0.363547 0)
(1.90231 -0.38773 0)
(1.88113 -0.402583 0)
(1.85819 -0.408983 0)
(1.8343 -0.408076 0)
(1.80992 -0.401411 0)
(1.78537 -0.390372 0)
(1.76091 -0.3761 0)
(1.73665 -0.359488 0)
(1.71263 -0.341199 0)
(1.68878 -0.321728 0)
(1.66501 -0.301467 0)
(1.64116 -0.280754 0)
(1.61707 -0.259875 0)
(1.59265 -0.238981 0)
(1.56802 -0.217955 0)
(1.54364 -0.196289 0)
(1.52026 -0.173131 0)
(1.49885 -0.147452 0)
(1.48038 -0.118287 0)
(1.46564 -0.0850085 0)
(1.45509 -0.0475142 0)
(1.4488 -0.00627184 0)
(1.44652 0.0377604 0)
(1.44774 0.083293 0)
(1.45182 0.128769 0)
(1.45819 0.172986 0)
(1.46649 0.215075 0)
(1.47642 0.254325 0)
(1.48772 0.290162 0)
(1.5002 0.322132 0)
(1.51369 0.349884 0)
(1.52804 0.373149 0)
(1.54312 0.391705 0)
(1.5588 0.405321 0)
(1.57509 0.413607 0)
(1.59212 0.415771 0)
(1.60952 0.410984 0)
(1.62717 0.398772 0)
(1.64476 0.378835 0)
(1.66192 0.351119 0)
(1.67826 0.315852 0)
(1.69338 0.273539 0)
(1.70688 0.224969 0)
(1.71842 0.171223 0)
(1.72766 0.11377 0)
(1.73428 0.0547793 0)
(1.73808 -0.00325143 0)
(1.73903 -0.0587039 0)
(1.7372 -0.11024 0)
(1.73272 -0.156855 0)
(1.72582 -0.19789 0)
(1.71675 -0.233027 0)
(1.7058 -0.262244 0)
(1.69326 -0.285747 0)
(1.67939 -0.303895 0)
(1.66442 -0.317122 0)
(1.64851 -0.325884 0)
(1.63183 -0.330669 0)
(1.61463 -0.332047 0)
(1.59709 -0.330623 0)
(1.57941 -0.326848 0)
(1.56181 -0.320955 0)
(1.54458 -0.312952 0)
(1.52801 -0.302643 0)
(1.51244 -0.289694 0)
(1.4982 -0.273723 0)
(1.48564 -0.254398 0)
(1.47505 -0.231514 0)
(1.46666 -0.205047 0)
(1.46066 -0.175173 0)
(1.45716 -0.142255 0)
(1.45619 -0.106814 0)
(1.45776 -0.0694841 0)
(1.4618 -0.0309703 0)
(1.4682 0.0079853 0)
(1.47677 0.046558 0)
(1.48731 0.0840993 0)
(1.49965 0.120083 0)
(1.51362 0.154035 0)
(1.52901 0.185528 0)
(1.54562 0.21419 0)
(1.56324 0.239692 0)
(1.58169 0.261752 0)
(1.60077 0.280114 0)
(1.62031 0.294545 0)
(1.64016 0.304816 0)
(1.66017 0.310678 0)
(1.6802 0.311834 0)
(1.69992 0.308024 0)
(1.71908 0.299137 0)
(1.73743 0.285183 0)
(1.75463 0.266299 0)
(1.7704 0.242724 0)
(1.78448 0.214814 0)
(1.7966 0.183056 0)
(1.80653 0.148074 0)
(1.81406 0.110646 0)
(1.81899 0.0717308 0)
(1.82119 0.0325627 0)
(1.82064 -0.00586917 0)
(1.81742 -0.0427839 0)
(1.81164 -0.0775116 0)
(1.80349 -0.109506 0)
(1.79315 -0.138345 0)
(1.78088 -0.16372 0)
(1.7669 -0.185432 0)
(1.75148 -0.203373 0)
(1.73483 -0.21751 0)
(1.71721 -0.227884 0)
(1.69882 -0.234597 0)
(1.6799 -0.23781 0)
(1.66069 -0.237743 0)
(1.64139 -0.23465 0)
(1.62218 -0.228763 0)
(1.60326 -0.220271 0)
(1.58486 -0.2093 0)
(1.56722 -0.195906 0)
(1.55063 -0.180087 0)
(1.5354 -0.16182 0)
(1.52179 -0.141112 0)
(1.51007 -0.118046 0)
(1.50039 -0.0928147 0)
(1.49288 -0.0657423 0)
(1.48758 -0.0372721 0)
(1.48448 -0.00795285 0)
(1.48347 0.0215303 0)
(1.48444 0.050605 0)
(1.48728 0.0787964 0)
(1.49186 0.105672 0)
(1.49805 0.13085 0)
(1.50571 0.154001 0)
(1.51469 0.174845 0)
(1.52485 0.19315 0)
(1.53603 0.208714 0)
(1.54809 0.221367 0)
(1.56092 0.230941 0)
(1.94944 -0.343224 0)
(1.92982 -0.364662 0)
(1.90803 -0.377425 0)
(1.88467 -0.382383 0)
(1.86055 -0.380701 0)
(1.83608 -0.373768 0)
(1.81158 -0.362784 0)
(1.78727 -0.348739 0)
(1.76322 -0.332414 0)
(1.73942 -0.314396 0)
(1.71583 -0.295122 0)
(1.69238 -0.274931 0)
(1.66893 -0.254117 0)
(1.64535 -0.232964 0)
(1.62151 -0.211729 0)
(1.59735 -0.190547 0)
(1.57308 -0.169278 0)
(1.54922 -0.147409 0)
(1.5266 -0.124115 0)
(1.50624 -0.0984244 0)
(1.48914 -0.0694654 0)
(1.47602 -0.0367368 0)
(1.46726 -0.000284968 0)
(1.46283 0.0392918 0)
(1.46238 0.0809582 0)
(1.46532 0.123347 0)
(1.471 0.164993 0)
(1.47894 0.204918 0)
(1.48881 0.24233 0)
(1.50032 0.276596 0)
(1.51325 0.307219 0)
(1.5274 0.33381 0)
(1.54261 0.356068 0)
(1.55874 0.373742 0)
(1.57563 0.386562 0)
(1.5933 0.394091 0)
(1.61174 0.395602 0)
(1.63055 0.390433 0)
(1.64958 0.378173 0)
(1.66849 0.358576 0)
(1.68685 0.331639 0)
(1.70425 0.297616 0)
(1.72023 0.257019 0)
(1.73438 0.210615 0)
(1.74629 0.159437 0)
(1.75563 0.104904 0)
(1.76205 0.0491625 0)
(1.76536 -0.00554222 0)
(1.76558 -0.0577067 0)
(1.76284 -0.106098 0)
(1.75731 -0.149798 0)
(1.74927 -0.188214 0)
(1.73903 -0.221065 0)
(1.72691 -0.248337 0)
(1.71323 -0.270219 0)
(1.69826 -0.287035 0)
(1.68225 -0.299172 0)
(1.66541 -0.307061 0)
(1.64791 -0.311191 0)
(1.63001 -0.312133 0)
(1.61187 -0.310483 0)
(1.59365 -0.30671 0)
(1.57555 -0.301087 0)
(1.55782 -0.293663 0)
(1.54074 -0.284283 0)
(1.52463 -0.272642 0)
(1.50984 -0.258361 0)
(1.49671 -0.241083 0)
(1.48556 -0.220559 0)
(1.47666 -0.196697 0)
(1.47019 -0.169602 0)
(1.46629 -0.139561 0)
(1.46503 -0.107026 0)
(1.46641 -0.0725687 0)
(1.47039 -0.0368363 0)
(1.47685 -0.000516804 0)
(1.48565 0.0356702 0)
(1.49655 0.0710078 0)
(1.5094 0.10499 0)
(1.52401 0.137154 0)
(1.54017 0.167086 0)
(1.5577 0.194413 0)
(1.57638 0.218807 0)
(1.59601 0.239975 0)
(1.61639 0.257653 0)
(1.63734 0.271593 0)
(1.65868 0.281561 0)
(1.68022 0.287323 0)
(1.70179 0.288638 0)
(1.72305 0.285298 0)
(1.74369 0.277223 0)
(1.7634 0.264438 0)
(1.78188 0.247064 0)
(1.79881 0.225322 0)
(1.81389 0.199549 0)
(1.82688 0.170213 0)
(1.8375 0.13792 0)
(1.84552 0.103414 0)
(1.85073 0.0676208 0)
(1.85298 0.0316523 0)
(1.8523 -0.00363303 0)
(1.84877 -0.0375201 0)
(1.84256 -0.0694012 0)
(1.83384 -0.0987761 0)
(1.82286 -0.125256 0)
(1.80986 -0.148554 0)
(1.79512 -0.168474 0)
(1.7789 -0.184907 0)
(1.76147 -0.197816 0)
(1.74308 -0.207237 0)
(1.72399 -0.213268 0)
(1.70445 -0.216063 0)
(1.68469 -0.215819 0)
(1.66491 -0.212761 0)
(1.64528 -0.207117 0)
(1.62597 -0.199091 0)
(1.60718 -0.188841 0)
(1.58916 -0.176465 0)
(1.57217 -0.161992 0)
(1.55653 -0.145405 0)
(1.54252 -0.126681 0)
(1.53043 -0.105849 0)
(1.52046 -0.0830324 0)
(1.51275 -0.0584787 0)
(1.50737 -0.0325543 0)
(1.50433 -0.00573725 0)
(1.50354 0.0213785 0)
(1.50489 0.0482155 0)
(1.50824 0.0743101 0)
(1.51345 0.09924 0)
(1.52038 0.122633 0)
(1.52888 0.144166 0)
(1.53879 0.163564 0)
(1.54996 0.180589 0)
(1.56225 0.195036 0)
(1.5755 0.206717 0)
(1.5896 0.215449 0)
(1.9707 -0.322622 0)
(1.95118 -0.341345 0)
(1.92957 -0.352127 0)
(1.90658 -0.355836 0)
(1.88299 -0.353565 0)
(1.85916 -0.346501 0)
(1.83538 -0.33566 0)
(1.8118 -0.321883 0)
(1.78846 -0.305844 0)
(1.76531 -0.288071 0)
(1.74229 -0.268975 0)
(1.71933 -0.248872 0)
(1.69637 -0.228029 0)
(1.67332 -0.206702 0)
(1.65007 -0.185167 0)
(1.62654 -0.163675 0)
(1.60273 -0.142336 0)
(1.57888 -0.121023 0)
(1.55559 -0.099276 0)
(1.53376 -0.0762759 0)
(1.51447 -0.0511045 0)
(1.49871 -0.0229739 0)
(1.48715 0.00852571 0)
(1.48009 0.0432421 0)
(1.47742 0.0804813 0)
(1.47871 0.119124 0)
(1.48332 0.157739 0)
(1.49062 0.195101 0)
(1.50021 0.230339 0)
(1.51176 0.262743 0)
(1.52499 0.291757 0)
(1.53965 0.316952 0)
(1.55557 0.337998 0)
(1.57255 0.354615 0)
(1.59045 0.366499 0)
(1.60924 0.373184 0)
(1.62879 0.374014 0)
(1.64874 0.368468 0)
(1.66887 0.356203 0)
(1.68878 0.337037 0)
(1.70805 0.311015 0)
(1.72621 0.278418 0)
(1.74279 0.239757 0)
(1.75734 0.195768 0)
(1.76945 0.147432 0)
(1.77876 0.096112 0)
(1.78493 0.0439105 0)
(1.78779 -0.00720759 0)
(1.7874 -0.0558724 0)
(1.78392 -0.100967 0)
(1.77758 -0.141656 0)
(1.76871 -0.177408 0)
(1.75763 -0.207968 0)
(1.74469 -0.23332 0)
(1.73022 -0.253628 0)
(1.71451 -0.269173 0)
(1.69783 -0.280303 0)
(1.68038 -0.287422 0)
(1.66238 -0.291011 0)
(1.64405 -0.291632 0)
(1.62556 -0.289856 0)
(1.60706 -0.286144 0)
(1.58871 -0.280797 0)
(1.5707 -0.273921 0)
(1.5533 -0.265429 0)
(1.53681 -0.255055 0)
(1.52159 -0.24243 0)
(1.50799 -0.227183 0)
(1.49634 -0.209024 0)
(1.48693 -0.187804 0)
(1.48 -0.163551 0)
(1.4757 -0.136474 0)
(1.47411 -0.10695 0)
(1.47527 -0.0754849 0)
(1.47912 -0.0426695 0)
(1.48559 -0.00913995 0)
(1.49453 0.0244657 0)
(1.50576 0.0574605 0)
(1.51904 0.0892927 0)
(1.53421 0.119521 0)
(1.55107 0.147739 0)
(1.56942 0.173584 0)
(1.58904 0.196728 0)
(1.60973 0.216873 0)
(1.63128 0.233751 0)
(1.65349 0.247106 0)
(1.67614 0.256708 0)
(1.69902 0.262344 0)
(1.7219 0.263834 0)
(1.74444 0.261034 0)
(1.76628 0.253869 0)
(1.78712 0.242355 0)
(1.80661 0.226608 0)
(1.82444 0.206834 0)
(1.84031 0.183349 0)
(1.85395 0.156606 0)
(1.86507 0.127193 0)
(1.87342 0.0958347 0)
(1.87876 0.0633866 0)
(1.88098 0.0308182 0)
(1.88012 -0.00114203 0)
(1.87629 -0.0318531 0)
(1.86967 -0.0607632 0)
(1.86048 -0.0874207 0)
(1.84895 -0.111466 0)
(1.83537 -0.13263 0)
(1.82002 -0.150727 0)
(1.80318 -0.165649 0)
(1.78515 -0.177358 0)
(1.76621 -0.185882 0)
(1.74664 -0.191309 0)
(1.72667 -0.193767 0)
(1.70656 -0.19342 0)
(1.68646 -0.190464 0)
(1.66656 -0.18511 0)
(1.64701 -0.177572 0)
(1.628 -0.168041 0)
(1.60973 -0.156659 0)
(1.59248 -0.143501 0)
(1.57655 -0.128575 0)
(1.56225 -0.11185 0)
(1.54986 -0.0933053 0)
(1.53963 -0.0729904 0)
(1.53174 -0.0510684 0)
(1.52627 -0.0278295 0)
(1.52327 -0.00367405 0)
(1.52267 0.0209 0)
(1.52435 0.0453408 0)
(1.52817 0.0691939 0)
(1.53398 0.0920491 0)
(1.54162 0.113539 0)
(1.55094 0.133347 0)
(1.56177 0.151193 0)
(1.57396 0.166836 0)
(1.58735 0.18006 0)
(1.60181 0.190667 0)
(1.61719 0.198475 0)
(1.98544 -0.302503 0)
(1.96667 -0.318599 0)
(1.94599 -0.327567 0)
(1.92416 -0.330225 0)
(1.90186 -0.327509 0)
(1.87939 -0.320387 0)
(1.85697 -0.309694 0)
(1.83468 -0.296131 0)
(1.81251 -0.280281 0)
(1.79039 -0.262626 0)
(1.76824 -0.243568 0)
(1.74598 -0.223439 0)
(1.72358 -0.202514 0)
(1.70101 -0.181042 0)
(1.67826 -0.15928 0)
(1.65528 -0.137478 0)
(1.632 -0.115848 0)
(1.60851 -0.0945675 0)
(1.58511 -0.0735561 0)
(1.56244 -0.0523555 0)
(1.54145 -0.0301645 0)
(1.5232 -0.00605989 0)
(1.50872 0.0206199 0)
(1.49865 0.0502101 0)
(1.49319 0.0825029 0)
(1.49218 0.116719 0)
(1.49513 0.151671 0)
(1.50137 0.185975 0)
(1.51035 0.21862 0)
(1.52165 0.248817 0)
(1.53493 0.27594 0)
(1.54989 0.299512 0)
(1.56629 0.319162 0)
(1.5839 0.334573 0)
(1.60256 0.345402 0)
(1.62221 0.351173 0)
(1.64259 0.351322 0)
(1.66338 0.345446 0)
(1.6843 0.33326 0)
(1.70491 0.314643 0)
(1.72477 0.289681 0)
(1.74339 0.258672 0)
(1.7603 0.222124 0)
(1.77503 0.180742 0)
(1.78719 0.135454 0)
(1.7964 0.0875552 0)
(1.80233 0.0390729 0)
(1.80483 -0.00830829 0)
(1.80398 -0.0533676 0)
(1.8 -0.0951078 0)
(1.79317 -0.132764 0)
(1.78381 -0.165854 0)
(1.77226 -0.194146 0)
(1.75889 -0.217616 0)
(1.74402 -0.236397 0)
(1.72795 -0.25073 0)
(1.71096 -0.260924 0)
(1.69326 -0.267354 0)
(1.67507 -0.270484 0)
(1.65661 -0.270853 0)
(1.63804 -0.269008 0)
(1.61948 -0.265398 0)
(1.60109 -0.260336 0)
(1.58303 -0.253975 0)
(1.56552 -0.246294 0)
(1.54882 -0.237091 0)
(1.53329 -0.226039 0)
(1.5193 -0.212769 0)
(1.50719 -0.196949 0)
(1.4973 -0.178375 0)
(1.48989 -0.157002 0)
(1.48515 -0.132958 0)
(1.48318 -0.106539 0)
(1.48405 -0.0781772 0)
(1.48771 -0.048405 0)
(1.4941 -0.0178027 0)
(1.50309 0.0130392 0)
(1.51453 0.0435317 0)
(1.52817 0.0730811 0)
(1.54382 0.101231 0)
(1.56127 0.127598 0)
(1.58033 0.151825 0)
(1.60078 0.173591 0)
(1.62241 0.192599 0)
(1.64498 0.208578 0)
(1.66827 0.22128 0)
(1.69204 0.230482 0)
(1.71604 0.236006 0)
(1.73996 0.23772 0)
(1.76352 0.235519 0)
(1.78632 0.229345 0)
(1.80801 0.219213 0)
(1.82826 0.205217 0)
(1.84675 0.187539 0)
(1.86318 0.166474 0)
(1.87726 0.142466 0)
(1.8887 0.116103 0)
(1.8972 0.0880705 0)
(1.90253 0.0591674 0)
(1.90463 0.0301411 0)
(1.90355 0.00162702 0)
(1.89943 -0.0258083 0)
(1.89246 -0.0516712 0)
(1.88288 -0.0755512 0)
(1.87094 -0.0971189 0)
(1.85693 -0.116125 0)
(1.84114 -0.132395 0)
(1.82389 -0.145826 0)
(1.80549 -0.15638 0)
(1.78623 -0.16407 0)
(1.7664 -0.168958 0)
(1.74622 -0.171138 0)
(1.72592 -0.17074 0)
(1.70567 -0.167927 0)
(1.68563 -0.162895 0)
(1.66596 -0.155863 0)
(1.64684 -0.147051 0)
(1.62848 -0.136658 0)