/*--------------------------------*- C++ -*----------------------------------*\
| =========                 |                                                 |
| \\      /  F ield         | OpenFOAM: The Open Source CFD Toolbox           |
|  \\    /   O peration     | Version:  2206                                  |
|   \\  /    A nd           | Website:  www.openfoam.com                      |
|    \\/     M anipulation  |                                                 |
\*---------------------------------------------------------------------------*/
FoamFile
{
    version     2.0;
    format      ascii;
    arch        "LSB;label=32;scalar=64";
    class       volVectorField;
    location    "18.9";
    object      U;
}
// * * * * * * * * * * * * * * * * * * * * * * * * * * * * * * * * * * * * * //

dimensions      [0 1 -1 0 0 0 0];

internalField   nonuniform List<vector> 
3062
(
(1.47762 0.000195216 0)
(1.4777 0.000584111 0)
(1.47788 0.00096853 0)
(1.47816 0.00134523 0)
(1.47853 0.00171151 0)
(1.47898 0.00206517 0)
(1.47952 0.00240442 0)
(1.48013 0.0027278 0)
(1.48082 0.00303425 0)
(1.48157 0.00332306 0)
(1.4824 0.00359384 0)
(1.48328 0.00384647 0)
(1.48421 0.00408102 0)
(1.4852 0.00429773 0)
(1.48624 0.00449693 0)
(1.48731 0.00467903 0)
(1.48843 0.00484446 0)
(1.48958 0.00499366 0)
(1.49076 0.00512704 0)
(1.49197 0.00524499 0)
(1.49321 0.00534786 0)
(1.49446 0.00543594 0)
(1.49574 0.00550947 0)
(1.49703 0.00556866 0)
(1.49833 0.00561365 0)
(1.49965 0.00564456 0)
(1.50097 0.00566147 0)
(1.50229 0.00566445 0)
(1.50362 0.0056535 0)
(1.50494 0.00562868 0)
(1.50627 0.00559001 0)
(1.50758 0.00553749 0)
(1.50889 0.00547116 0)
(1.51019 0.00539106 0)
(1.51147 0.00529726 0)
(1.51274 0.00518978 0)
(1.51398 0.00506872 0)
(1.51521 0.00493409 0)
(1.51641 0.004786 0)
(1.51758 0.00462438 0)
(1.51873 0.00444936 0)
(1.51984 0.00426077 0)
(1.52091 0.00405861 0)
(1.52195 0.00384265 0)
(1.52295 0.00361267 0)
(1.5239 0.0033683 0)
(1.52481 0.00310903 0)
(1.52567 0.0028343 0)
(1.52648 0.00254318 0)
(1.52723 0.00223482 0)
(1.52793 0.00190789 0)
(1.52856 0.00156095 0)
(1.52913 0.00119251 0)
(1.52964 0.000800088 0)
(1.53006 0.000382738 0)
(1.53042 -6.37871e-05 0)
(1.53069 -0.000538427 0)
(1.53087 -0.00104907 0)
(1.53095 -0.00159888 0)
(1.53094 -0.00219219 0)
(1.53081 -0.00283438 0)
(1.53057 -0.00353137 0)
(1.5302 -0.00428981 0)
(1.52968 -0.00511736 0)
(1.52902 -0.00602281 0)
(1.52819 -0.0070162 0)
(1.52717 -0.00810906 0)
(1.52596 -0.00931457 0)
(1.52452 -0.0106479 0)
(1.52283 -0.0121267 0)
(1.52087 -0.0137712 0)
(1.51861 -0.0156048 0)
(1.516 -0.0176552 0)
(1.51302 -0.0199544 0)
(1.50961 -0.02254 0)
(1.50572 -0.0254566 0)
(1.50129 -0.028757 0)
(1.49626 -0.0325037 0)
(1.49053 -0.036772 0)
(1.48403 -0.0416523 0)
(1.47664 -0.0472541 0)
(1.46825 -0.0537107 0)
(1.4587 -0.0611856 0)
(1.44784 -0.0698808 0)
(1.43548 -0.0800472 0)
(1.42138 -0.0919994 0)
(1.40529 -0.106135 0)
(1.38692 -0.12296 0)
(1.36589 -0.143127 0)
(1.3418 -0.167482 0)
(1.31416 -0.197139 0)
(1.28236 -0.233588 0)
(1.24567 -0.278819 0)
(1.20313 -0.335684 0)
(1.15331 -0.407857 0)
(1.09373 -0.501981 0)
(1.02093 -0.624169 0)
(0.91516 -0.80029 0)
(0.800128 -1.03249 0)
(0.281965 -1.64049 0)
(1.47762 0.000149041 0)
(1.47769 0.000445892 0)
(1.47787 0.000739374 0)
(1.47814 0.00102711 0)
(1.4785 0.00130711 0)
(1.47894 0.00157775 0)
(1.47946 0.00183768 0)
(1.48006 0.00208579 0)
(1.48073 0.00232125 0)
(1.48147 0.00254349 0)
(1.48228 0.00275217 0)
(1.48314 0.00294715 0)
(1.48406 0.00312843 0)
(1.48503 0.00329612 0)
(1.48605 0.00345044 0)
(1.48711 0.00359161 0)
(1.48821 0.00371993 0)
(1.48935 0.00383567 0)
(1.49051 0.00393909 0)
(1.49171 0.00403043 0)
(1.49293 0.0041099 0)
(1.49417 0.00417769 0)
(1.49544 0.00423393 0)
(1.49671 0.00427874 0)
(1.498 0.00431221 0)
(1.49931 0.00433438 0)
(1.50061 0.0043453 0)
(1.50193 0.00434502 0)
(1.50324 0.00433344 0)
(1.50456 0.0043107 0)
(1.50587 0.00427675 0)
(1.50717 0.00423166 0)
(1.50847 0.00417535 0)
(1.50975 0.00410799 0)
(1.51103 0.00402951 0)
(1.51228 0.00394008 0)
(1.51351 0.00383961 0)
(1.51473 0.00372833 0)
(1.51591 0.0036061 0)
(1.51707 0.00347314 0)
(1.51821 0.00332925 0)
(1.5193 0.00317462 0)
(1.52037 0.0030089 0)
(1.52139 0.00283228 0)
(1.52238 0.00264411 0)
(1.52332 0.00244464 0)
(1.52421 0.00223276 0)
(1.52505 0.00200878 0)
(1.52585 0.00177097 0)
(1.52658 0.00151979 0)
(1.52726 0.00125262 0)
(1.52788 0.000970106 0)
(1.52843 0.000668581 0)
(1.5289 0.000348863 0)
(1.52931 6.44101e-06 0)
(1.52963 -0.000357808 0)
(1.52987 -0.000747745 0)
(1.53002 -0.00116341 0)
(1.53007 -0.00161268 0)
(1.53001 -0.00209772 0)
(1.52984 -0.00262286 0)
(1.52954 -0.00319301 0)
(1.52911 -0.00381356 0)
(1.52853 -0.00449068 0)
(1.52779 -0.00523148 0)
(1.52687 -0.00604416 0)
(1.52576 -0.00693804 0)
(1.52444 -0.00792385 0)
(1.52287 -0.00901391 0)
(1.52105 -0.0102225 0)
(1.51893 -0.0115661 0)
(1.51648 -0.0130641 0)
(1.51366 -0.0147386 0)
(1.51044 -0.0166162 0)
(1.50675 -0.0187276 0)
(1.50253 -0.0211094 0)
(1.49773 -0.0238051 0)
(1.49225 -0.0268666 0)
(1.48601 -0.0303561 0)
(1.47889 -0.0343491 0)
(1.47078 -0.0389371 0)
(1.46152 -0.0442321 0)
(1.45094 -0.0503723 0)
(1.43884 -0.0575291 0)
(1.42496 -0.0659166 0)
(1.40902 -0.0758049 0)
(1.39066 -0.0875372 0)
(1.36945 -0.101553 0)
(1.34488 -0.118419 0)
(1.31632 -0.138874 0)
(1.28295 -0.163887 0)
(1.24378 -0.194735 0)
(1.19747 -0.233116 0)
(1.14222 -0.281279 0)
(1.0755 -0.342213 0)
(0.99336 -0.419797 0)
(0.8897 -0.518779 0)
(0.754944 -0.645445 0)
(0.572449 -0.801297 0)
(0.2729 -0.926597 0)
(1.47762 0.000104078 0)
(1.47769 0.00031128 0)
(1.47786 0.000516111 0)
(1.47813 0.000716982 0)
(1.47848 0.000912551 0)
(1.47891 0.00110173 0)
(1.47942 0.00128359 0)
(1.48001 0.00145739 0)
(1.48067 0.00162254 0)
(1.4814 0.00177863 0)
(1.48219 0.00192541 0)
(1.48304 0.00206276 0)
(1.48395 0.00219062 0)
(1.48491 0.00230906 0)
(1.48591 0.00241816 0)
(1.48696 0.00251804 0)
(1.48805 0.00260884 0)
(1.48917 0.00269071 0)
(1.49033 0.00276376 0)
(1.49151 0.0028281 0)
(1.49273 0.00288384 0)
(1.49396 0.00293102 0)
(1.49521 0.00296971 0)
(1.49648 0.00299992 0)
(1.49776 0.00302168 0)
(1.49905 0.00303497 0)
(1.50035 0.00303979 0)
(1.50165 0.00303616 0)
(1.50296 0.00302393 0)
(1.50427 0.00300326 0)
(1.50557 0.00297403 0)
(1.50686 0.00293638 0)
(1.50815 0.00289015 0)
(1.50943 0.00283557 0)
(1.51069 0.00277246 0)
(1.51193 0.00270115 0)
(1.51316 0.00262137 0)
(1.51436 0.00253352 0)
(1.51554 0.00243729 0)
(1.51669 0.00233311 0)
(1.51781 0.00222052 0)
(1.5189 0.00210005 0)
(1.51995 0.001971 0)
(1.52096 0.00183402 0)
(1.52194 0.00168804 0)
(1.52287 0.00153389 0)
(1.52375 0.00136994 0)
(1.52458 0.00119736 0)
(1.52536 0.00101366 0)
(1.52608 0.00082055 0)
(1.52675 0.000614354 0)
(1.52735 0.000397524 0)
(1.52788 0.00016476 0)
(1.52834 -8.04249e-05 0)
(1.52872 -0.000345393 0)
(1.52902 -0.000624974 0)
(1.52924 -0.000927924 0)
(1.52936 -0.00124556 0)
(1.52938 -0.00159101 0)
(1.52929 -0.00196369 0)
(1.52908 -0.0023671 0)
(1.52874 -0.00280512 0)
(1.52826 -0.0032817 0)
(1.52763 -0.00380131 0)
(1.52683 -0.00436929 0)
(1.52585 -0.00499178 0)
(1.52466 -0.00567579 0)
(1.52325 -0.00642933 0)
(1.52159 -0.00726162 0)
(1.51966 -0.00818328 0)
(1.51741 -0.00920665 0)
(1.51482 -0.0103461 0)
(1.51183 -0.0116182 0)
(1.50842 -0.0130428 0)
(1.5045 -0.0146429 0)
(1.50003 -0.0164459 0)
(1.49493 -0.0184844 0)
(1.4891 -0.0207974 0)
(1.48245 -0.0234318 0)
(1.47485 -0.0264445 0)
(1.46617 -0.0299049 0)
(1.45622 -0.0338979 0)
(1.44482 -0.0385289 0)
(1.43172 -0.0439288 0)
(1.41663 -0.0502619 0)
(1.39919 -0.0577358 0)
(1.37899 -0.0666152 0)
(1.35549 -0.0772395 0)
(1.32804 -0.090047 0)
(1.29582 -0.105607 0)
(1.2578 -0.124658 0)
(1.21266 -0.148166 0)
(1.15868 -0.177368 0)
(1.0936 -0.213848 0)
(1.01435 -0.259486 0)
(0.91678 -0.316507 0)
(0.794816 -0.386961 0)
(0.640138 -0.472072 0)
(0.436229 -0.569847 0)
(0.159502 -0.686491 0)
(1.47762 5.99591e-05 0)
(1.47769 0.000179184 0)
(1.47786 0.000296967 0)
(1.47812 0.000412444 0)
(1.47847 0.000524888 0)
(1.47889 0.000633712 0)
(1.4794 0.000738421 0)
(1.47998 0.000838607 0)
(1.48063 0.00093395 0)
(1.48135 0.00102423 0)
(1.48213 0.00110928 0)
(1.48297 0.00118903 0)
(1.48387 0.00126342 0)
(1.48482 0.00133245 0)
(1.48582 0.00139612 0)
(1.48686 0.00145446 0)
(1.48794 0.00150747 0)
(1.48906 0.00155519 0)
(1.49021 0.00159759 0)
(1.49138 0.00163468 0)
(1.49259 0.00166643 0)
(1.49381 0.0016928 0)
(1.49506 0.00171375 0)
(1.49632 0.00172921 0)
(1.4976 0.00173912 0)
(1.49888 0.00174344 0)
(1.50017 0.00174208 0)
(1.50147 0.00173505 0)
(1.50277 0.00172218 0)
(1.50407 0.00170358 0)
(1.50537 0.00167907 0)
(1.50665 0.00164888 0)
(1.50794 0.00161276 0)
(1.5092 0.00157102 0)
(1.51046 0.00152337 0)
(1.5117 0.00147023 0)
(1.51292 0.00141124 0)
(1.51411 0.00134691 0)
(1.51528 0.00127681 0)
(1.51643 0.0012015 0)
(1.51754 0.00112042 0)
(1.51862 0.00103424 0)
(1.51967 0.000942147 0)
(1.52067 0.00084499 0)
(1.52164 0.000741567 0)
(1.52256 0.000633013 0)
(1.52344 0.000517525 0)
(1.52425 0.000396704 0)
(1.52503 0.000267869 0)
(1.52574 0.000133335 0)
(1.5264 -1.08493e-05 0)
(1.52698 -0.000161218 0)
(1.5275 -0.000323809 0)
(1.52794 -0.000492976 0)
(1.52832 -0.000678586 0)
(1.5286 -0.000870916 0)
(1.52879 -0.00108513 0)
(1.52889 -0.00130236 0)
(1.52889 -0.0015417 0)
(1.52878 -0.00179892 0)
(1.52854 -0.0020767 0)
(1.52817 -0.00237826 0)
(1.52766 -0.00270613 0)
(1.52699 -0.00306304 0)
(1.52615 -0.00345231 0)
(1.52512 -0.00387789 0)
(1.52388 -0.00434423 0)
(1.52241 -0.00485642 0)
(1.52068 -0.00542033 0)
(1.51867 -0.00604271 0)
(1.51633 -0.00673137 0)
(1.51363 -0.00749538 0)
(1.51054 -0.00834531 0)
(1.50698 -0.00929353 0)
(1.50292 -0.0103546 0)
(1.49826 -0.0115457 0)
(1.49295 -0.0128874 0)
(1.48688 -0.0144043 0)
(1.47994 -0.0161258 0)
(1.472 -0.0180878 0)
(1.46291 -0.020334 0)
(1.45249 -0.022918 0)
(1.44051 -0.0259064 0)
(1.4267 -0.0293818 0)
(1.41075 -0.0334483 0)
(1.39227 -0.0382375 0)
(1.37077 -0.0439168 0)
(1.34564 -0.0507012 0)
(1.31615 -0.0588675 0)
(1.28135 -0.0687733 0)
(1.24005 -0.0808801 0)
(1.19074 -0.0957792 0)
(1.13149 -0.114215 0)
(1.05981 -0.13709 0)
(0.972558 -0.165433 0)
(0.865818 -0.20025 0)
(0.734716 -0.242151 0)
(0.573969 -0.290087 0)
(0.377557 -0.341922 0)
(0.141045 -0.354819 0)
(1.47812 0.000111243 0)
(1.47846 0.00014135 0)
(1.47888 0.000170502 0)
(1.47939 0.000198619 0)
(1.47996 0.000225635 0)
(1.48061 0.000251502 0)
(1.48132 0.00027618 0)
(1.4821 0.000299636 0)
(1.48294 0.000321832 0)
(1.48383 0.000342728 0)
(1.48478 0.000362273 0)
(1.48577 0.000380408 0)
(1.48681 0.000397057 0)
(1.48788 0.000412133 0)
(1.489 0.000425531 0)
(1.49014 0.000437136 0)
(1.49132 0.000446819 0)
(1.49252 0.000454445 0)
(1.49374 0.000459874 0)
(1.49498 0.000462964 0)
(1.49624 0.00046358 0)
(1.49751 0.000461588 0)
(1.49879 0.000456872 0)
(1.50008 0.000449317 0)
(1.50137 0.000438848 0)
(1.50267 0.000425342 0)
(1.50396 0.000408814 0)
(1.50526 0.000389111 0)
(1.50654 0.000366405 0)
(1.50782 0.000340464 0)
(1.50908 0.000311589 0)
(1.51034 0.000279486 0)
(1.51157 0.000244571 0)
(1.51279 0.000206497 0)
(1.51398 0.00016575 0)
(1.51515 0.00012193 0)
(1.51628 7.55698e-05 0)
(1.5174 2.61872e-05 0)
(1.51847 -2.562e-05 0)
(1.51951 -8.05003e-05 0)
(1.52051 -0.000137728 0)
(1.52147 -0.000198239 0)
(1.52239 -0.000261071 0)
(1.52326 -0.000327636 0)
(1.52407 -0.000396506 0)
(1.52484 -0.000469925 0)
(1.52554 -0.000545589 0)
(1.5262 -0.000627058 0)
(1.52677 -0.000710695 0)
(1.52729 -0.00080192 0)
(1.52772 -0.000895026 0)
(1.52809 -0.000998947 0)
(1.52835 -0.0011034 0)
(1.52854 -0.00122598 0)
(1.52862 -0.00134302 0)
(1.52861 -0.00147356 0)
(1.52848 -0.00161421 0)
(1.52823 -0.00176489 0)
(1.52784 -0.00192758 0)
(1.52731 -0.00210362 0)
(1.52662 -0.0022941 0)
(1.52575 -0.00250038 0)
(1.5247 -0.00272415 0)
(1.52343 -0.0029673 0)
(1.52192 -0.00323196 0)
(1.52015 -0.00352047 0)
(1.51809 -0.00383555 0)
(1.5157 -0.00418027 0)
(1.51295 -0.00455818 0)
(1.50979 -0.00497331 0)
(1.50616 -0.0054304 0)
(1.502 -0.00593495 0)
(1.49725 -0.00649343 0)
(1.49183 -0.00711348 0)
(1.48562 -0.00780421 0)
(1.47853 -0.0085765 0)
(1.4704 -0.00944351 0)
(1.4611 -0.0104212 0)
(1.45041 -0.0115289 0)
(1.43812 -0.0127908 0)
(1.42394 -0.0142366 0)
(1.40754 -0.0159033 0)
(1.3885 -0.0178378 0)
(1.36631 -0.0200993 0)
(1.34032 -0.0227636 0)
(1.30976 -0.0259275 0)
(1.27361 -0.0297152 0)
(1.23061 -0.0342855 0)
(1.17915 -0.0398394 0)
(1.11721 -0.0466252 0)
(1.04224 -0.0549368 0)
(0.951107 -0.0650916 0)
(0.840131 -0.0773686 0)
(0.705069 -0.0918254 0)
(0.542254 -0.108106 0)
(0.346932 -0.12424 0)
(0.121353 -0.138263 0)
(1.46038 0.00805961 0)
(1.4504 0.015018 0)
(1.43245 0.0175706 0)
(1.40884 0.0186407 0)
(1.38392 0.0193439 0)
(1.35905 0.0198301 0)
(1.33403 0.0201206 0)
(1.30868 0.0202625 0)
(1.28305 0.0203146 0)
(1.25726 0.0203074 0)
(1.2314 0.0202469 0)
(1.20551 0.0201287 0)
(1.17963 0.0199658 0)
(1.15378 0.0197751 0)
(1.12799 0.019564 0)
(1.10227 0.0193327 0)
(1.07665 0.0190813 0)
(1.05113 0.0188114 0)
(1.02574 0.0185274 0)
(1.00049 0.0182313 0)
(0.975414 0.0179232 0)
(0.950517 0.0176038 0)
(0.92582 0.0172716 0)
(0.901344 0.0169283 0)
(0.8771 0.0165762 0)
(0.853126 0.0162258 0)
(0.829392 0.0158918 0)
(0.805721 0.0155342 0)
(0.782593 0.0151123 0)
(0.759856 0.0146326 0)
(0.737539 0.0141116 0)
(0.715723 0.0135563 0)
(0.694458 0.0129701 0)
(0.673782 0.0123566 0)
(0.653733 0.011719 0)
(0.634352 0.0110611 0)
(0.615675 0.0103854 0)
(0.597738 0.00969321 0)
(0.580572 0.00898588 0)
(0.56421 0.00826863 0)
(0.548678 0.00753646 0)
(0.534025 0.00678811 0)
(0.52025 0.00605487 0)
(0.507353 0.00534697 0)
(0.495336 0.00466294 0)
(0.484204 0.00400111 0)
(0.47395 0.00336116 0)
(0.464571 0.00274541 0)
(0.456049 0.0021561 0)
(0.448369 0.00159642 0)
(0.441505 0.00106673 0)
(0.435438 0.000566667 0)
(0.430137 0.000111904 0)
(0.425573 -0.000310937 0)
(0.421717 -0.000708997 0)
(0.418543 -0.00108086 0)
(0.416029 -0.00142636 0)
(0.414145 -0.00175355 0)
(0.412895 -0.00204264 0)
(0.412232 -0.00237782 0)
(0.412248 -0.00262711 0)
(0.412829 -0.00295992 0)
(0.414055 -0.00332683 0)
(0.415909 -0.00363293 0)
(0.418371 -0.00391225 0)
(0.421435 -0.00417268 0)
(0.425105 -0.00443628 0)
(0.429393 -0.00471779 0)
(0.434322 -0.0049817 0)
(0.439914 -0.00525292 0)
(0.446198 -0.00554029 0)
(0.453206 -0.00584688 0)
(0.46098 -0.00618671 0)
(0.469572 -0.00655986 0)
(0.479035 -0.00696257 0)
(0.489426 -0.00739713 0)
(0.500808 -0.00786589 0)
(0.513246 -0.00837021 0)
(0.526806 -0.00891045 0)
(0.541557 -0.00948633 0)
(0.557566 -0.0100964 0)
(0.574898 -0.0107393 0)
(0.593615 -0.0114112 0)
(0.613778 -0.0121079 0)
(0.635442 -0.0128281 0)
(0.658664 -0.0135684 0)
(0.683488 -0.0143229 0)
(0.709948 -0.0150835 0)
(0.738064 -0.015837 0)
(0.767838 -0.0165606 0)
(0.799223 -0.0172305 0)
(0.832155 -0.0178287 0)
(0.866419 -0.018362 0)
(0.902102 -0.0188278 0)
(0.938899 -0.0191702 0)
(0.976446 -0.0193308 0)
(1.01452 -0.0192876 0)
(1.05278 -0.0190286 0)
(1.0909 -0.018548 0)
(1.12853 -0.017865 0)
(1.47997 0.0115901 0)
(1.48684 0.0210987 0)
(1.49478 0.0247803 0)
(1.49733 0.0265025 0)
(1.4984 0.0277673 0)
(1.49893 0.0288216 0)
(1.49884 0.029496 0)
(1.49804 0.0300583 0)
(1.49656 0.0304379 0)
(1.49448 0.0307636 0)
(1.49184 0.0310539 0)
(1.4887 0.0312646 0)
(1.48511 0.0314213 0)
(1.48107 0.0315569 0)
(1.4766 0.0316778 0)
(1.47171 0.0317804 0)
(1.46641 0.0318619 0)
(1.46072 0.0319172 0)
(1.45466 0.031947 0)
(1.44823 0.0319537 0)
(1.44146 0.0319374 0)
(1.43434 0.0318957 0)
(1.42689 0.0318286 0)
(1.41913 0.0317372 0)
(1.41108 0.0316231 0)
(1.40274 0.0314878 0)
(1.39414 0.0313328 0)
(1.38533 0.0311275 0)
(1.37631 0.030841 0)
(1.36709 0.0304831 0)
(1.35766 0.0300647 0)
(1.34807 0.0295873 0)
(1.33833 0.0290497 0)
(1.32848 0.0284522 0)
(1.31854 0.0277954 0)
(1.30853 0.0270828 0)
(1.29848 0.0263183 0)
(1.28842 0.0255021 0)
(1.27837 0.0246344 0)
(1.26836 0.0237178 0)
(1.25844 0.0227567 0)
(1.24854 0.0217511 0)
(1.23878 0.0207147 0)
(1.22916 0.0196465 0)
(1.21973 0.0185526 0)
(1.2105 0.0174424 0)
(1.2015 0.0163231 0)
(1.19275 0.0152001 0)
(1.18429 0.0140823 0)
(1.17611 0.0129735 0)
(1.16826 0.0118812 0)
(1.16073 0.0108044 0)
(1.15356 0.0097511 0)
(1.14673 0.0087168 0)
(1.1403 0.00770915 0)
(1.13424 0.00671838 0)
(1.12861 0.00575268 0)
(1.12337 0.00479818 0)
(1.11859 0.00386213 0)
(1.11424 0.00292275 0)
(1.11038 0.00199077 0)
(1.10691 0.00104093 0)
(1.10399 0.000102684 0)
(1.10149 -0.000870773 0)
(1.09957 -0.00184477 0)
(1.09825 -0.00285164 0)
(1.09758 -0.00385218 0)
(1.09754 -0.00485994 0)
(1.09817 -0.00594155 0)
(1.09954 -0.0070715 0)
(1.10168 -0.00825133 0)
(1.10464 -0.00948894 0)
(1.10846 -0.0107924 0)
(1.11319 -0.0121691 0)
(1.11889 -0.0136267 0)
(1.12561 -0.0151717 0)
(1.13341 -0.0168094 0)
(1.14235 -0.0185432 0)
(1.1525 -0.0203749 0)
(1.16391 -0.0223042 0)
(1.17665 -0.02433 0)
(1.19078 -0.0264523 0)
(1.20635 -0.0286682 0)
(1.22344 -0.0309735 0)
(1.24212 -0.0333646 0)
(1.26243 -0.0358318 0)
(1.28442 -0.0383608 0)
(1.30813 -0.0409393 0)
(1.33358 -0.0435471 0)
(1.36081 -0.0461213 0)
(1.38975 -0.0485946 0)
(1.42033 -0.0508989 0)
(1.45239 -0.0529919 0)
(1.48574 -0.0548593 0)
(1.52026 -0.0564274 0)
(1.55578 -0.0576016 0)
(1.59216 -0.0583213 0)
(1.62913 -0.0585585 0)
(1.66656 -0.0582975 0)
(1.70412 -0.0575143 0)
(1.4785 0.00539755 0)
(1.48172 0.0117495 0)
(1.48624 0.015136 0)
(1.49045 0.0175833 0)
(1.4939 0.0196798 0)
(1.49686 0.0214459 0)
(1.49974 0.0229293 0)
(1.50222 0.0241238 0)
(1.5046 0.0251531 0)
(1.50654 0.0260311 0)
(1.50863 0.0268281 0)
(1.51039 0.0275547 0)
(1.51187 0.0282189 0)
(1.51317 0.0288295 0)
(1.5143 0.0293921 0)
(1.51528 0.0299098 0)
(1.5161 0.0303861 0)
(1.51679 0.0308362 0)
(1.51731 0.0312506 0)
(1.51771 0.0316272 0)
(1.51796 0.0319611 0)
(1.51808 0.0322784 0)
(1.51806 0.0325391 0)
(1.5179 0.03278 0)
(1.51759 0.0329937 0)
(1.51713 0.0332069 0)
(1.51655 0.0333584 0)
(1.51585 0.0333955 0)
(1.51503 0.0333542 0)
(1.51407 0.0332459 0)
(1.51296 0.0330704 0)
(1.5117 0.0328257 0)
(1.51029 0.0325093 0)
(1.50875 0.0321193 0)
(1.50706 0.0316542 0)
(1.50525 0.0311133 0)
(1.5033 0.0305 0)
(1.50123 0.0298205 0)
(1.49903 0.0290768 0)
(1.49671 0.0282712 0)
(1.4943 0.0274088 0)
(1.49179 0.0264945 0)
(1.48919 0.0255295 0)
(1.48652 0.0245181 0)
(1.48378 0.0234664 0)
(1.48099 0.0223785 0)
(1.47815 0.021259 0)
(1.47529 0.020116 0)
(1.47243 0.0189586 0)
(1.46957 0.0177937 0)
(1.46673 0.0166262 0)
(1.46392 0.015459 0)
(1.46117 0.0142952 0)
(1.45849 0.0131354 0)
(1.4559 0.0119799 0)
(1.45341 0.0108265 0)
(1.45104 0.00967754 0)
(1.44881 0.00850386 0)
(1.44674 0.00731804 0)
(1.44484 0.00611593 0)
(1.44311 0.00488492 0)
(1.44162 0.00365348 0)
(1.44034 0.00236849 0)
(1.43934 0.00106448 0)
(1.43858 -0.000301682 0)
(1.43809 -0.00170461 0)
(1.43792 -0.00318317 0)
(1.4381 -0.00472997 0)
(1.43866 -0.00635114 0)
(1.43965 -0.00805838 0)
(1.44109 -0.00986351 0)
(1.44301 -0.0117775 0)
(1.44547 -0.0138113 0)
(1.4485 -0.0159756 0)
(1.45215 -0.0182798 0)
(1.45647 -0.0207322 0)
(1.46152 -0.0233404 0)
(1.46734 -0.026109 0)
(1.47401 -0.0290411 0)
(1.48158 -0.0321326 0)
(1.49011 -0.035378 0)
(1.49964 -0.0387826 0)
(1.51025 -0.0423512 0)
(1.52202 -0.0460777 0)
(1.53498 -0.0499448 0)
(1.5492 -0.0539321 0)
(1.56472 -0.0580158 0)
(1.58162 -0.0621855 0)
(1.59993 -0.0664245 0)
(1.61962 -0.0706149 0)
(1.64068 -0.0746568 0)
(1.66306 -0.0784255 0)
(1.68674 -0.0818195 0)
(1.71175 -0.0848656 0)
(1.73811 -0.0875201 0)
(1.76576 -0.0896727 0)
(1.79458 -0.0912183 0)
(1.82437 -0.092086 0)
(1.85489 -0.092219 0)
(1.88589 -0.0915452 0)
(1.47803 0.00331108 0)
(1.47982 0.00904888 0)
(1.48292 0.0132602 0)
(1.48625 0.0163937 0)
(1.48915 0.018832 0)
(1.49177 0.0208055 0)
(1.49433 0.0224082 0)
(1.49681 0.0237165 0)
(1.49919 0.0248092 0)
(1.50143 0.0257467 0)
(1.50355 0.0265395 0)
(1.50559 0.0272552 0)
(1.50759 0.0279263 0)
(1.50955 0.0285364 0)
(1.51145 0.0290834 0)
(1.5133 0.029572 0)
(1.5151 0.0300209 0)
(1.51685 0.0304199 0)
(1.51857 0.0307796 0)
(1.52026 0.0311116 0)
(1.52192 0.0314177 0)
(1.52355 0.0316849 0)
(1.52515 0.0319213 0)
(1.52675 0.0321283 0)
(1.52832 0.0323035 0)
(1.53002 0.0324437 0)
(1.53163 0.0325496 0)
(1.5332 0.0326078 0)
(1.53473 0.0326078 0)
(1.53621 0.0325447 0)
(1.53764 0.0324152 0)
(1.539 0.0322193 0)
(1.54031 0.0319566 0)
(1.54155 0.0316263 0)
(1.54272 0.0312214 0)
(1.54381 0.0307712 0)
(1.54481 0.0302745 0)
(1.54574 0.0296867 0)
(1.5466 0.0290309 0)
(1.54737 0.0283145 0)
(1.54807 0.0275423 0)
(1.54868 0.0267162 0)
(1.54921 0.0258375 0)
(1.54967 0.0249112 0)
(1.55003 0.0239481 0)
(1.55031 0.0229461 0)
(1.55051 0.0218982 0)
(1.55065 0.020812 0)
(1.55074 0.0196996 0)
(1.55077 0.0185689 0)
(1.55076 0.0174242 0)
(1.5507 0.0162681 0)
(1.55062 0.0151027 0)
(1.55052 0.0139264 0)
(1.55041 0.0127352 0)
(1.5503 0.0115277 0)
(1.55022 0.0103061 0)
(1.55018 0.00906755 0)
(1.55017 0.00780665 0)
(1.55022 0.00651707 0)
(1.55034 0.00519283 0)
(1.55054 0.00382542 0)
(1.55083 0.0024076 0)
(1.55123 0.000934921 0)
(1.55177 -0.00060618 0)
(1.55244 -0.00222071 0)
(1.55326 -0.00391325 0)
(1.55427 -0.0056927 0)
(1.55548 -0.00757487 0)
(1.55691 -0.00957454 0)
(1.5586 -0.0117038 0)
(1.56056 -0.0139745 0)
(1.56283 -0.0163989 0)
(1.56544 -0.0189898 0)
(1.56843 -0.0217598 0)
(1.57184 -0.0247207 0)
(1.57571 -0.0278851 0)
(1.58009 -0.0312599 0)
(1.58503 -0.034857 0)
(1.59059 -0.0386683 0)
(1.59681 -0.0426746 0)
(1.60375 -0.0468939 0)
(1.61151 -0.0513496 0)
(1.62019 -0.0560392 0)
(1.62986 -0.0609408 0)
(1.6406 -0.0660277 0)
(1.65249 -0.0712693 0)
(1.66564 -0.0766223 0)
(1.67987 -0.0820234 0)
(1.69511 -0.0874042 0)
(1.71216 -0.092696 0)
(1.73022 -0.0978269 0)
(1.75075 -0.102723 0)
(1.77287 -0.107284 0)
(1.79649 -0.11138 0)
(1.82159 -0.114867 0)
(1.84803 -0.117607 0)
(1.87567 -0.11948 0)
(1.90426 -0.120379 0)
(1.93359 -0.120212 0)
(1.47783 0.00242892 0)
(1.47886 0.00702927 0)
(1.48087 0.0107058 0)
(1.48326 0.0135016 0)
(1.4856 0.0157151 0)
(1.48783 0.0175647 0)
(1.49004 0.0191325 0)
(1.49224 0.0204573 0)
(1.49438 0.0215821 0)
(1.49645 0.0225571 0)
(1.49845 0.0234199 0)
(1.50041 0.0242069 0)
(1.50234 0.0249297 0)
(1.50424 0.02559 0)
(1.50613 0.0261917 0)
(1.50801 0.0267441 0)
(1.50988 0.027254 0)
(1.51174 0.0277266 0)
(1.5136 0.0281611 0)
(1.51547 0.0285583 0)
(1.51733 0.0289164 0)
(1.5192 0.0292451 0)
(1.52107 0.0295377 0)
(1.52295 0.0297907 0)
(1.52481 0.0299945 0)
(1.52667 0.0301572 0)
(1.52854 0.0302955 0)
(1.53042 0.0303972 0)
(1.53231 0.0304457 0)
(1.5342 0.0304333 0)
(1.53609 0.0303582 0)
(1.53794 0.0302217 0)
(1.53979 0.0300204 0)
(1.5416 0.0297563 0)
(1.5434 0.0294245 0)
(1.54514 0.0290321 0)
(1.54686 0.0285712 0)
(1.54853 0.0280502 0)
(1.55016 0.0274606 0)
(1.55173 0.0268173 0)
(1.55326 0.0261003 0)
(1.55472 0.0253385 0)
(1.55614 0.0245167 0)
(1.55749 0.0236571 0)
(1.5588 0.022751 0)
(1.56013 0.0218047 0)
(1.56134 0.020823 0)
(1.56247 0.0198103 0)
(1.56354 0.0187705 0)
(1.56454 0.0177065 0)
(1.56548 0.0166211 0)
(1.56637 0.0155169 0)
(1.56722 0.0143979 0)
(1.56803 0.0132629 0)
(1.56881 0.0120999 0)
(1.56958 0.0109042 0)
(1.57036 0.00968308 0)
(1.57114 0.00843523 0)
(1.57193 0.00715414 0)
(1.57273 0.00583281 0)
(1.57356 0.00446327 0)
(1.57443 0.00304113 0)
(1.57535 0.00155778 0)
(1.57634 8.23204e-06 0)
(1.57739 -0.0016158 0)
(1.57851 -0.00332688 0)
(1.57974 -0.00513654 0)
(1.58107 -0.00705708 0)
(1.58254 -0.00910263 0)
(1.58415 -0.0112873 0)
(1.58593 -0.0136247 0)
(1.5879 -0.0161293 0)
(1.59009 -0.0188162 0)
(1.59252 -0.0217009 0)
(1.59522 -0.0247991 0)
(1.59823 -0.0281262 0)
(1.60159 -0.0316972 0)
(1.6053 -0.0355266 0)
(1.60951 -0.0396274 0)
(1.61407 -0.0440123 0)
(1.61938 -0.0486938 0)
(1.62544 -0.0536819 0)
(1.63224 -0.0589813 0)
(1.63986 -0.0645883 0)
(1.6484 -0.0704912 0)
(1.65794 -0.0766685 0)
(1.66859 -0.0830885 0)
(1.68046 -0.0896874 0)
(1.69369 -0.0963844 0)
(1.70841 -0.10317 0)
(1.72469 -0.109997 0)
(1.74258 -0.116814 0)
(1.76206 -0.123525 0)
(1.78317 -0.129877 0)
(1.80595 -0.135649 0)
(1.83039 -0.140675 0)
(1.85639 -0.144795 0)
(1.88378 -0.147847 0)
(1.91233 -0.149682 0)
(1.94178 -0.150175 0)
(1.47774 0.00190098 0)
(1.47838 0.00559594 0)
(1.47976 0.00881689 0)
(1.48158 0.0114925 0)
(1.48352 0.0137324 0)
(1.48547 0.0156541 0)
(1.48742 0.0173152 0)
(1.48938 0.0187448 0)
(1.49133 0.0199775 0)
(1.49323 0.0210522 0)
(1.49511 0.0219991 0)
(1.49695 0.0228411 0)
(1.49877 0.0235953 0)
(1.50057 0.024274 0)
(1.50236 0.0248853 0)
(1.50414 0.0254372 0)
(1.50592 0.0259362 0)
(1.50769 0.0263869 0)
(1.50946 0.0267919 0)
(1.51124 0.027155 0)
(1.51302 0.0274784 0)
(1.51481 0.0277642 0)
(1.5166 0.0280121 0)
(1.51841 0.0282225 0)
(1.52023 0.0283952 0)
(1.52205 0.0285332 0)
(1.52389 0.0286387 0)
(1.52575 0.0287038 0)
(1.52762 0.0287192 0)
(1.52951 0.0286802 0)
(1.5314 0.0285862 0)
(1.53328 0.0284364 0)
(1.53517 0.0282298 0)
(1.53704 0.027965 0)
(1.53891 0.0276425 0)
(1.54075 0.0272633 0)
(1.54257 0.0268284 0)
(1.54437 0.0263335 0)
(1.54613 0.025781 0)
(1.54786 0.0251726 0)
(1.54954 0.0245175 0)
(1.55118 0.02381 0)
(1.55276 0.0230512 0)
(1.55429 0.0222423 0)
(1.55576 0.0213812 0)
(1.55717 0.0204785 0)
(1.55852 0.0195522 0)
(1.55983 0.0186025 0)
(1.56109 0.0176221 0)
(1.56229 0.0166137 0)
(1.56346 0.0155766 0)
(1.56458 0.0145133 0)
(1.56566 0.0134249 0)
(1.56675 0.0123089 0)
(1.56782 0.0111645 0)
(1.5688 0.00998944 0)
(1.56976 0.00878057 0)
(1.57072 0.00753341 0)
(1.57167 0.00624259 0)
(1.57263 0.00490243 0)
(1.5736 0.00350664 0)
(1.57458 0.00204861 0)
(1.5756 0.000520373 0)
(1.57664 -0.00108622 0)
(1.57776 -0.00278013 0)
(1.57895 -0.0045727 0)
(1.5802 -0.00647632 0)
(1.58155 -0.00850445 0)
(1.58301 -0.0106718 0)
(1.58458 -0.0129942 0)
(1.5863 -0.0154881 0)
(1.58819 -0.0181707 0)
(1.59026 -0.02106 0)
(1.59254 -0.0241748 0)
(1.59507 -0.027534 0)
(1.59789 -0.0311575 0)
(1.60103 -0.0350636 0)
(1.60454 -0.0392751 0)
(1.60848 -0.0438088 0)
(1.61291 -0.0486975 0)
(1.61787 -0.0539824 0)
(1.62343 -0.0596632 0)
(1.62968 -0.0657281 0)
(1.63672 -0.0721773 0)
(1.64466 -0.0790123 0)
(1.6536 -0.0862238 0)
(1.66366 -0.0937873 0)
(1.67496 -0.101662 0)
(1.68766 -0.109801 0)
(1.70186 -0.118159 0)
(1.71771 -0.126659 0)
(1.73528 -0.135184 0)
(1.75465 -0.143569 0)
(1.77588 -0.151589 0)
(1.79899 -0.159028 0)
(1.82395 -0.165675 0)
(1.85069 -0.171309 0)
(1.87902 -0.175698 0)
(1.90873 -0.178623 0)
(1.93948 -0.179903 0)
(1.4777 0.00156065 0)
(1.47815 0.00463472 0)
(1.47915 0.00745854 0)
(1.48056 0.00992266 0)
(1.48215 0.0120356 0)
(1.48381 0.0138615 0)
(1.4855 0.0154515 0)
(1.48724 0.0168365 0)
(1.48899 0.018043 0)
(1.49074 0.0191002 0)
(1.49248 0.0200337 0)
(1.49421 0.0208648 0)
(1.49593 0.0216107 0)
(1.49765 0.0222838 0)
(1.49936 0.0228921 0)
(1.50107 0.0234426 0)
(1.50278 0.0239411 0)
(1.50449 0.0243925 0)
(1.50621 0.0248002 0)
(1.50792 0.0251675 0)
(1.50965 0.025496 0)
(1.51138 0.0257874 0)
(1.51312 0.026042 0)
(1.51487 0.0262594 0)
(1.51663 0.026439 0)
(1.51839 0.0265802 0)
(1.52017 0.0266822 0)
(1.52195 0.026742 0)
(1.52375 0.0267556 0)
(1.52556 0.0267195 0)
(1.52737 0.0266322 0)
(1.52917 0.0264924 0)
(1.53097 0.0262987 0)
(1.53277 0.0260506 0)
(1.53455 0.025748 0)
(1.53631 0.0253915 0)
(1.53806 0.0249811 0)
(1.53978 0.0245159 0)
(1.54147 0.0239967 0)
(1.54313 0.0234252 0)
(1.54476 0.0228035 0)
(1.54635 0.022133 0)
(1.54789 0.0214157 0)
(1.5494 0.0206534 0)
(1.55085 0.0198492 0)
(1.55225 0.0190083 0)
(1.55361 0.018139 0)
(1.55492 0.0172388 0)
(1.55618 0.0163061 0)
(1.5574 0.0153408 0)
(1.55858 0.0143453 0)
(1.55972 0.0133187 0)
(1.56082 0.0122596 0)
(1.56188 0.0111654 0)
(1.56291 0.0100478 0)
(1.56393 0.00890501 0)
(1.56493 0.00772364 0)
(1.56592 0.00649467 0)
(1.5669 0.00521374 0)
(1.56787 0.00387634 0)
(1.56885 0.0024765 0)
(1.56984 0.00100543 0)
(1.57084 -0.000544455 0)
(1.57188 -0.0021841 0)
(1.57294 -0.00392623 0)
(1.57406 -0.00577987 0)
(1.57523 -0.00775705 0)
(1.57647 -0.00987304 0)
(1.5778 -0.0121447 0)
(1.57924 -0.0145898 0)
(1.58079 -0.0172274 0)
(1.58248 -0.0200772 0)
(1.58433 -0.0231603 0)
(1.58638 -0.026499 0)
(1.58864 -0.030117 0)
(1.59116 -0.034039 0)
(1.59397 -0.038291 0)
(1.59712 -0.042901 0)
(1.60067 -0.0478975 0)
(1.60467 -0.053313 0)
(1.60919 -0.059176 0)
(1.61429 -0.0655002 0)
(1.62007 -0.0722966 0)
(1.62663 -0.079581 0)
(1.63408 -0.0873658 0)
(1.64254 -0.0956519 0)
(1.65215 -0.104426 0)
(1.66304 -0.113658 0)
(1.67538 -0.123301 0)
(1.68932 -0.13329 0)
(1.70502 -0.143528 0)
(1.7226 -0.153881 0)
(1.74218 -0.164172 0)
(1.76384 -0.174178 0)
(1.78764 -0.183639 0)
(1.81356 -0.192265 0)
(1.84154 -0.199745 0)
(1.8714 -0.20576 0)
(1.90287 -0.210007 0)
(1.93558 -0.212229 0)
(1.47767 0.00132119 0)
(1.47801 0.00393337 0)
(1.47878 0.006394 0)
(1.47989 0.00861242 0)
(1.4812 0.0105694 0)
(1.48262 0.0122955 0)
(1.48411 0.0138259 0)
(1.48566 0.0151828 0)
(1.48726 0.0163838 0)
(1.48887 0.0174484 0)
(1.4905 0.0183965 0)
(1.49213 0.0192449 0)
(1.49376 0.0200074 0)
(1.4954 0.0206942 0)
(1.49704 0.0213135 0)
(1.49869 0.021872 0)
(1.50034 0.0223756 0)
(1.50199 0.022829 0)
(1.50365 0.0232359 0)
(1.50532 0.0235991 0)
(1.50699 0.0239208 0)
(1.50867 0.0242026 0)
(1.51036 0.0244453 0)
(1.51206 0.0246492 0)
(1.51376 0.0248142 0)
(1.51548 0.0249401 0)
(1.5172 0.0250264 0)
(1.51893 0.025072 0)
(1.52067 0.0250743 0)
(1.52241 0.0250306 0)
(1.52416 0.0249391 0)
(1.5259 0.0247987 0)
(1.52763 0.0246083 0)
(1.52936 0.0243677 0)
(1.53107 0.0240767 0)
(1.53277 0.0237353 0)
(1.53445 0.0233434 0)
(1.5361 0.0229013 0)
(1.53773 0.0224097 0)
(1.53932 0.0218699 0)
(1.54088 0.021284 0)
(1.54241 0.0206529 0)
(1.54389 0.0199783 0)
(1.54534 0.0192614 0)
(1.54674 0.018505 0)
(1.54809 0.0177114 0)
(1.5494 0.0168838 0)
(1.55066 0.0160236 0)
(1.55188 0.0151301 0)
(1.55305 0.0142048 0)
(1.55419 0.0132473 0)
(1.55528 0.0122579 0)
(1.55634 0.0112351 0)
(1.55737 0.0101787 0)
(1.55836 0.00908986 0)
(1.55933 0.00796473 0)
(1.56028 0.00679464 0)
(1.56121 0.00557302 0)
(1.56213 0.00429541 0)
(1.56304 0.00295645 0)
(1.56395 0.00154891 0)
(1.56487 6.39258e-05 0)
(1.56579 -0.00150796 0)
(1.56673 -0.00317761 0)
(1.5677 -0.00495678 0)
(1.5687 -0.00685723 0)
(1.56974 -0.00889296 0)
(1.57084 -0.0110804 0)
(1.57201 -0.0134376 0)
(1.57327 -0.0159838 0)
(1.57462 -0.0187401 0)
(1.57609 -0.0217287 0)
(1.5777 -0.024974 0)
(1.57948 -0.0285019 0)
(1.58145 -0.0323404 0)
(1.58364 -0.0365193 0)
(1.5861 -0.0410704 0)
(1.58887 -0.0460274 0)
(1.59201 -0.0514256 0)
(1.59556 -0.0573013 0)
(1.5996 -0.0636902 0)
(1.60422 -0.070625 0)
(1.60948 -0.0781351 0)
(1.61551 -0.0862469 0)