/*--------------------------------*- C++ -*----------------------------------*\
| =========                 |                                                 |
| \\      /  F ield         | OpenFOAM: The Open Source CFD Toolbox           |
|  \\    /   O peration     | Version:  2206                                  |
|   \\  /    A nd           | Website:  www.openfoam.com                      |
|    \\/     M anipulation  |                                                 |
\*---------------------------------------------------------------------------*/
FoamFile
{
    version     2.0;
    format      ascii;
    arch        "LSB;label=32;scalar=64";
    class       volVectorField;
    location    "18.6";
    object      ddtCorrDdt0(U);
}
// * * * * * * * * * * * * * * * * * * * * * * * * * * * * * * * * * * * * * //

dimensions      [0 1 -2 0 0 0 0];

internalField   nonuniform List<vector> 
1826
(
(-34.5885 -55.9416 0)
(4.07607 -85.3961 0)
(53.2563 -97.1842 0)
(99.6463 -88.5956 0)
(158.899 -52.3263 0)
(214.5 -5.61578 0)
(251.452 37.9777 0)
(286.894 67.2557 0)
(320.055 97.9051 0)
(343.753 118.965 0)
(349.4 136.416 0)
(315.854 162.95 0)
(222.661 198.912 0)
(98.6029 236.732 0)
(-27.6473 265.246 0)
(-147.702 266.908 0)
(-235.269 224.608 0)
(-311.959 156.19 0)
(-382.176 73.2309 0)
(-445.305 -22.1098 0)
(-499.999 -137.044 0)
(-546.209 -269.57 0)
(-572.391 -389.311 0)
(-517.637 -428.443 0)
(-414.551 -396.87 0)
(-289.81 -324.566 0)
(-165.027 -245.124 0)
(-63.0818 -180.471 0)
(17.7107 -141.296 0)
(91.0835 -94.8794 0)
(146.999 -46.8784 0)
(190.274 -3.03485 0)
(219.594 30.941 0)
(237.086 58.3146 0)
(244.757 81.4072 0)
(238.407 98.7837 0)
(222.784 109.197 0)
(206.026 104.711 0)
(203.181 76.4481 0)
(220.363 20.8894 0)
(251.308 -45.7381 0)
(284.465 -94.1614 0)
(290.922 -97.2848 0)
(270.507 -58.8918 0)
(232.099 5.40099 0)
(177.471 86.0329 0)
(103.012 158.522 0)
(41.719 214.521 0)
(-22.6939 245.625 0)
(-66.7288 247.216 0)
(-96.3927 225.994 0)
(-116.359 193.229 0)
(-127.407 155.855 0)
(-131.489 118.437 0)
(-131.702 83.0257 0)
(-131.266 50.0856 0)
(-131.6 20.2656 0)
(-134.047 -5.69194 0)
(-141.235 -30.3723 0)
(-152.77 -57.0496 0)
(-168.3 -89.1596 0)
(-187.772 -129.333 0)
(-208.646 -174.771 0)
(-221.543 -213.905 0)
(-210.194 -227.611 0)
(-179.91 -217.881 0)
(-135.646 -189.44 0)
(-85.229 -153.176 0)
(-38.5175 -118.901 0)
(-3.29756 -88.1174 0)
(63.9488 -42.3615 0)
(111.499 7.93733 0)
(157.23 45.3424 0)
(188.605 65.7803 0)
(202.679 67.413 0)
(202.049 52.8695 0)
(193.249 30.23 0)
(177.765 6.73009 0)
(157.831 -11.6079 0)
(136.306 -20.1948 0)
(115.645 -17.0111 0)
(97.3305 -2.86823 0)
(81.2791 20.9293 0)
(63.721 49.9714 0)
(46.248 78.5212 0)
(28.4681 102.921 0)
(9.65823 120.542 0)
(-9.43331 129.841 0)
(-27.3345 129.371 0)
(-43.0767 120.851 0)
(-56.3891 106.446 0)
(-66.977 87.6347 0)
(-75.0987 65.9532 0)
(-81.4476 42.6909 0)
(29.4028 -48.8458 0)
(62.3431 -118.815 0)
(83.837 -147.359 0)
(120.346 -146.705 0)
(168.394 -115.972 0)
(223.91 -68.463 0)
(281.251 -23.1683 0)
(329.725 18.0896 0)
(353.463 68.0979 0)
(337.538 127.265 0)
(273.067 197.147 0)
(175.503 269.496 0)
(77.7183 326.147 0)
(-9.28497 352.735 0)
(-78.0662 361.256 0)
(-117.844 324.854 0)
(-152.146 272.336 0)
(-189.645 207.506 0)
(-237.672 128.809 0)
(-295.261 31.9643 0)
(-359.099 -85.936 0)
(-421.859 -223.351 0)
(-477.48 -363.266 0)
(-507.741 -469.815 0)
(-469.361 -490.769 0)
(-383.598 -444.476 0)
(-274.688 -367.268 0)
(-165.865 -289.007 0)
(-71.8819 -221.668 0)
(0.608675 -161.002 0)
(63.2064 -109.42 0)
(119.071 -49.2084 0)
(160.151 1.05277 0)
(190.568 41.1587 0)
(209.955 74.2946 0)
(217.091 102.952 0)
(217.285 116.807 0)
(222.872 103.668 0)
(244.075 57.2496 0)
(272.957 -11.7163 0)
(298.233 -71.3008 0)
(296.152 -90.6167 0)
(274.907 -69.6647 0)
(238.587 -16.81 0)
(189.54 61.2382 0)
(119.919 147.951 0)
(53.9874 226.269 0)
(-9.18896 277.134 0)
(-57.1153 294.718 0)
(-89.718 279.619 0)
(-111.293 247.173 0)
(-122.398 204.703 0)
(-124.438 159.133 0)
(-119.63 115.746 0)
(-110.732 77.4471 0)
(-100.493 45.1751 0)
(-92.2089 18.2601 0)
(-87.3918 -3.98146 0)
(-89.1641 -23.0223 0)
(-98.4147 -44.4217 0)
(-113.336 -72.3721 0)
(-132.019 -109.408 0)
(-152.638 -154.427 0)
(-171.986 -201.378 0)
(-182.136 -238.07 0)
(-171.336 -246.687 0)
(-144.797 -232.419 0)
(-106.469 -201.833 0)
(-61.8353 -165.186 0)
(-18.2905 -129.449 0)
(23.1015 -92.4358 0)
(68.6781 -41.7861 0)
(109.538 4.00335 0)
(144.289 36.7522 0)
(168.066 53.1561 0)
(178.743 52.1684 0)
(177.172 39.0629 0)
(167.67 22.3831 0)
(151.96 8.43085 0)
(132.724 1.52738 0)
(112.465 3.80224 0)
(93.3783 16.4541 0)
(75.0596 39.7779 0)
(55.7675 67.9172 0)
(38.3921 96.5594 0)
(20.9469 121.383 0)
(3.20913 139.435 0)
(-13.943 148.164 0)
(-28.9777 145.194 0)
(-41.6401 134.317 0)
(-51.5678 117.055 0)
(-58.5115 95.4828 0)
(-62.6772 71.6335 0)
(-65.4372 46.9923 0)
(27.3331 -111.572 0)
(56.4561 -142.41 0)
(69.94 -162.582 0)
(88.9892 -169.462 0)
(121.505 -149.732 0)
(158.868 -108.563 0)
(188.462 -51.695 0)
(197.985 19.1872 0)
(185.248 98.7603 0)
(153.621 191.131 0)
(106.489 283.487 0)
(33.1509 358.47 0)
(-18.8748 407.317 0)
(-53.5767 425.831 0)
(-58.0849 392.923 0)
(-59.0811 347.184 0)
(-49.0302 293.921 0)
(-44.0218 237.582 0)
(-51.21 172.516 0)
(-84.8901 93.3426 0)
(-142.595 -19.1038 0)
(-222.257 -152.73 0)
(-305.018 -304.865 0)
(-374.632 -438.979 0)
(-411.239 -519.716 0)
(-387.968 -519.287 0)
(-323.909 -465.354 0)
(-239.727 -389.707 0)
(-154.327 -310.391 0)
(-77.7695 -233.787 0)
(-13.7788 -164.534 0)
(35.2151 -103.287 0)
(86.3905 -43.1394 0)
(126.481 7.53196 0)
(158.96 55.9209 0)
(181.154 91.861 0)
(199.748 103.736 0)
(226.048 80.0698 0)
(258.435 25.935 0)
(283.971 -33.8019 0)
(288.449 -70.8815 0)
(271.087 -70.9807 0)
(239.06 -36.0161 0)
(195.982 31.2229 0)
(131.321 124.388 0)
(63.2318 218.019 0)
(2.69543 289.88 0)
(-48.729 328.558 0)
(-85.3582 329.976 0)
(-108.444 303.235 0)
(-120.314 259.317 0)
(-121.186 206.568 0)
(-113.183 152.875 0)
(-99.1027 104.175 0)
(-81.7592 63.5392 0)
(-64.2417 28.6652 0)
(-47.8629 6.27925 0)
(-35.8277 -7.27705 0)
(-32.0435 -19.1382 0)
(-39.3967 -32.4253 0)
(-54.8991 -55.056 0)
(-75.2199 -89.2692 0)
(-97.4836 -133.931 0)
(-119.102 -183.691 0)
(-136.665 -229.045 0)
(-142.895 -257.025 0)
(-131.352 -256.879 0)
(-106.844 -238.701 0)
(-73.5534 -208.478 0)
(-38.1195 -171.081 0)
(-5.38949 -128.022 0)
(29.1671 -83.7101 0)
(67.1498 -33.7716 0)
(99.3346 6.56751 0)
(124.518 32.3687 0)
(140.948 43.4229 0)
(145.947 41.3766 0)
(141.736 32.7019 0)
(130.955 24.1415 0)
(115.759 19.8861 0)
(98.6498 22.8936 0)
(81.2203 36.3544 0)
(62.013 58.8007 0)
(44.0944 86.2099 0)
(27.4034 114.191 0)
(11.0889 138.696 0)
(-4.57925 156.259 0)
(-18.4608 163.049 0)
(-29.6719 157.864 0)
(-38.6198 144.31 0)
(-44.9137 124.002 0)
(-48.3423 99.4456 0)
(-48.5878 73.3381 0)
(-46.7199 48.0895 0)
(12.9508 -142.355 0)
(28.8069 -160.179 0)
(32.5483 -172.519 0)
(35.5125 -175.705 0)
(39.7593 -159.982 0)
(46.4096 -117.945 0)
(50.2541 -54.8711 0)
(53.536 29.9449 0)
(51.5948 109.148 0)
(30.7846 222.823 0)
(-2.71246 333.34 0)
(-45.4335 404.335 0)
(-69.5657 434.762 0)
(-73.2051 422.745 0)
(-65.0905 378.336 0)
(-33.1356 328.122 0)
(2.21966 277.731 0)
(35.6944 229.811 0)
(61.9559 182.265 0)
(78.0405 129.754 0)
(63.288 54.5542 0)
(9.51628 -71.1831 0)
(-92.0934 -213.338 0)
(-191.851 -362.233 0)
(-272.978 -479.473 0)
(-312.652 -532.184 0)
(-302.974 -516.014 0)
(-261.526 -460.308 0)
(-202.843 -385.284 0)
(-140.157 -303.97 0)
(-81.2388 -224.116 0)
(-28.849 -149.24 0)
(16.6261 -87.0929 0)
(51.4225 -35.2837 0)
(93.5519 14.5937 0)
(131.352 65.1389 0)
(168.857 70.2078 0)
(206.846 44.0877 0)
(238.579 -0.35787 0)
(254.329 -41.6399 0)
(247.565 -58.4853 0)
(224.587 -42.3743 0)
(188.351 6.67033 0)
(132.642 92.7878 0)
(67.9637 191.402 0)
(8.13703 280.167 0)
(-44.3314 342.368 0)
(-84.7597 369.085 0)
(-108.682 355.3 0)
(-121.025 316.481 0)
(-121.259 260.483 0)
(-110.858 197.495 0)
(-92.6078 136.373 0)
(-69.7366 83.8903 0)
(-46.3403 40.1068 0)
(-21.471 14.3529 0)
(0.237638 -13.704 0)
(19.4075 -20.7338 0)
(25.755 -19.8649 0)
(20.2555 -20.1548 0)
(3.89351 -34.5724 0)
(-17.5246 -65.9641 0)
(-41.753 -110.363 0)
(-66.0744 -162.155 0)
(-87.6401 -212.735 0)
(-103.13 -252.305 0)
(-105.802 -268.404 0)
(-95.0939 -260.777 0)
(-75.9577 -237.02 0)
(-51.8879 -201.586 0)
(-26.4061 -158.334 0)
(-2.14259 -111.82 0)
(24.9588 -68.4507 0)
(54.5187 -23.2451 0)
(79.0838 11.0553 0)
(97.4573 29.6298 0)
(106.873 38.2492 0)
(106.491 37.9817 0)
(100.466 34.7702 0)
(89.7907 33.8878 0)
(76.133 39.7731 0)
(59.5853 54.4381 0)
(42.2918 76.4081 0)
(26.2793 103.037 0)
(11.124 130.129 0)
(-3.06851 153.788 0)
(-15.5775 169.949 0)
(-24.7293 173.633 0)
(-30.6425 166.138 0)
(-34.1755 150.015 0)
(-35.4341 126.956 0)
(-34.6624 99.4396 0)
(-31.6351 70.4756 0)
(-26.2421 43.4852 0)
(-3.21586 -179.431 0)
(-4.87544 -163.709 0)
(-11.3407 -122.733 0)
(-1.91236 -61.5843 0)
(-0.86918 24.297 0)
(-10.7396 124.536 0)
(-54.9013 257.172 0)
(-84.434 357.832 0)
(-103.459 416.295 0)
(-96.4904 422.664 0)
(-76.3493 386.754 0)
(-50.366 338.005 0)
(-7.99605 279.469 0)
(44.9929 225.147 0)
(100.849 182.281 0)
(149.171 142.082 0)
(185.748 106.425 0)
(191.12 69.679 0)
(169.937 15.0735 0)
(116.114 -118.26 0)
(13.323 -254.535 0)
(-111.969 -394.411 0)
(-190.535 -491.261 0)
(-228.633 -516.661 0)
(-231.278 -488.241 0)
(-210.179 -430.658 0)
(-174.897 -356.872 0)
(-132.161 -277.907 0)
(-87.2777 -200.405 0)
(-44.9429 -127.536 0)
(-5.92386 -68.375 0)
(30.3902 -27.3659 0)
(70.3124 15.5048 0)
(122.283 26.8197 0)
(165.154 8.35492 0)
(191.783 -22.1422 0)
(198.473 -43.7098 0)
(187.935 -42.9609 0)
(162.959 -11.2691 0)
(117.915 59.5935 0)
(58.7087 152.589 0)
(2.13875 249.778 0)
(-48.7917 331.828 0)
(-90.4898 384.403 0)
(-117.003 396.05 0)
(-127.395 368.885 0)
(-125.643 316.841 0)
(-112.118 249.197 0)
(-89.7635 177.369 0)
(-63.2041 110.322 0)
(-35.1004 55.4491 0)
(-7.35639 18.8811 0)
(25.8718 -23.3227 0)
(58.5987 -35.8344 0)
(75.2489 -30.7858 0)
(78.2509 -18.5526 0)
(73.314 -12.0477 0)
(61.7132 -17.683 0)
(38.8084 -41.6285 0)
(12.0587 -84.3061 0)
(-14.5089 -137.624 0)
(-39.4209 -191.928 0)
(-60.4319 -237.706 0)
(-74.2771 -266.424 0)
(-76.5957 -268.229 0)
(-70.7005 -251.789 0)
(-59.101 -221.188 0)
(-43.2541 -181.168 0)
(-25.5083 -135.903 0)
(-7.77559 -89.9265 0)
(10.4392 -48.172 0)
(31.7003 -12.9661 0)
(51.7919 16.0648 0)
(65.0926 31.4756 0)
(67.2277 38.1607 0)
(64.0167 41.3893 0)
(57.3799 45.5617 0)
(45.7431 54.3797 0)
(31.7515 70.2471 0)
(17.3332 92.3647 0)
(3.28601 118.017 0)
(-9.91458 143.883 0)
(-21.5532 165.781 0)
(-29.8621 178.972 0)
(-32.8786 178.15 0)
(-32.2146 168.021 0)
(-28.7719 149.54 0)
(-23.521 124.856 0)
(-17.1548 95.9075 0)
(-10.4415 65.1743 0)
(4.50159 -0.0830868 0)
(4.56481 -0.0894558 0)
(4.63457 -0.0842412 0)
(4.70388 -0.0713099 0)
(4.74409 -0.0577233 0)
(4.82394 -0.0425615 0)
(4.82602 -0.0266054 0)
(4.84527 -0.0190888 0)
(4.86926 -0.0202234 0)
(4.89733 -0.0267089 0)
(4.93961 -0.0363002 0)
(5.00554 -0.0472342 0)
(5.09849 -0.0571013 0)
(5.21649 -0.062495 0)
(5.35343 -0.0593783 0)
(5.49482 -0.0449751 0)
(5.6268 -0.0171655 0)
(5.72767 0.0234576 0)
(5.78159 0.0730589 0)
(5.77652 0.128673 0)
(5.69561 0.184129 0)
(5.54463 0.2305 0)
(5.32209 0.265301 0)
(5.03347 0.282981 0)
(4.69786 0.277493 0)
(4.3395 0.249541 0)
(3.96632 0.20979 0)
(3.5978 0.165824 0)
(3.24684 0.124249 0)
(2.91936 0.0912841 0)
(2.61569 0.0727894 0)
(2.32812 0.078399 0)
(2.03768 0.113883 0)
(1.72287 0.183111 0)
(1.33563 0.277102 0)
(0.880345 0.367135 0)
(0.371178 0.431007 0)
(-0.214631 0.465955 0)
(-0.886702 0.465745 0)
(-1.64338 0.435485 0)
(-2.49317 0.378911 0)
(-3.46132 0.305277 0)
(5.12706 -0.0242445 0)
(5.18368 -0.0517041 0)
(5.22315 -0.0606441 0)
(5.23781 -0.0557453 0)
(5.22368 -0.0441959 0)
(5.18271 -0.0291869 0)
(5.12048 -0.0135911 0)
(5.05195 -0.00723408 0)
(4.98689 -0.015017 0)
(4.93 -0.0371183 0)
(4.88714 -0.0719883 0)
(4.86453 -0.114612 0)
(4.8669 -0.159133 0)
(4.89659 -0.198209 0)
(4.95202 -0.223948 0)
(5.02854 -0.231597 0)
(5.11878 -0.21615 0)
(5.21229 -0.175296 0)
(5.3 -0.114233 0)
(5.37363 -0.0340179 0)
(5.42328 0.0628058 0)
(5.44466 0.161392 0)
(5.43875 0.260692 0)
(5.39414 0.356301 0)
(5.3105 0.437151 0)
(5.19112 0.496871 0)
(5.03695 0.535417 0)
(4.84819 0.554641 0)
(4.62469 0.558261 0)
(4.36619 0.552871 0)
(4.07555 0.547065 0)
(3.75391 0.549983 0)
(3.39897 0.571097 0)
(3.00497 0.619722 0)
(2.57084 0.702965 0)
(2.07456 0.820165 0)
(1.47028 0.973735 0)
(0.700808 1.17927 0)
(-0.312825 1.45561 0)
(-1.6782 1.82216 0)
(-3.54655 2.30962 0)
(-6.13242 2.96684 0)
(5.46206 -0.177537 0)
(5.53526 -0.160486 0)
(5.576 -0.116033 0)
(5.57874 -0.0588336 0)
(5.54197 0.000111783 0)
(5.46857 0.0526 0)
(5.36645 0.0953795 0)
(5.24679 0.0889369 0)
(5.11935 0.0845389 0)
(4.99292 0.066358 0)
(4.87776 0.02924 0)
(4.78254 -0.0243897 0)
(4.71302 -0.0871554 0)
(4.67392 -0.148861 0)
(4.66477 -0.197892 0)
(4.68412 -0.224508 0)
(4.72951 -0.220683 0)
(4.79128 -0.184472 0)
(4.86501 -0.120507 0)
(4.95009 -0.0312069 0)
(5.03198 0.0741184 0)
(5.10814 0.183256 0)
(5.18253 0.294905 0)
(5.24176 0.397741 0)
(5.27585 0.483376 0)
(5.28358 0.535524 0)
(5.26361 0.589087 0)
(5.21497 0.626609 0)
(5.13718 0.660338 0)
(5.03147 0.687985 0)
(4.89982 0.702028 0)
(4.74519 0.743217 0)
(4.57247 0.808361 0)
(4.38791 0.903587 0)
(4.19377 1.03665 0)
(4.00233 1.21752 0)
(3.78258 1.45998 0)
(3.55926 1.7879 0)
(3.30436 2.23679 0)
(2.98344 2.86307 0)
(2.54196 3.75138 0)
(1.88322 5.03337 0)
(5.47315 -0.223257 0)
(5.59313 -0.200123 0)
(5.66627 -0.123174 0)
(5.68056 -0.019317 0)
(5.63635 0.0852807 0)
(5.54135 0.171415 0)
(5.41094 0.228579 0)
(5.25645 0.253447 0)
(5.08842 0.244332 0)
(4.91938 0.202197 0)
(4.76301 0.132415 0)
(4.63552 0.0513397 0)
(4.53905 -0.0524745 0)
(4.48405 -0.156632 0)
(4.46811 -0.239133 0)
(4.48794 -0.308129 0)
(4.53495 -0.326988 0)
(4.60192 -0.292416 0)
(4.6861 -0.263294 0)
(4.7811 -0.185401 0)
(4.88968 -0.0413598 0)
(4.97949 0.022764 0)
(5.07416 0.146249 0)
(5.16198 0.282606 0)
(5.23355 0.40531 0)
(5.28633 0.509023 0)
(5.31814 0.593956 0)
(5.32964 0.662952 0)
(5.3223 0.720291 0)
(5.29956 0.771192 0)
(5.26279 0.821868 0)
(5.21563 0.878615 0)
(5.16816 0.947759 0)
(5.13214 1.03657 0)
(5.12094 1.15135 0)
(5.15174 1.30164 0)
(5.2454 1.50354 0)
(5.42166 1.78072 0)
(5.71707 2.17882 0)
(6.11778 2.75454 0)
(6.71121 3.60285 0)
(7.51747 4.96595 0)
(5.34804 -0.376208 0)
(5.55582 -0.33744 0)
(5.7164 -0.219829 0)
(5.80781 -0.0545615 0)
(5.81718 0.119604 0)
(5.74664 0.271005 0)
(5.61298 0.385769 0)
(5.43359 0.448702 0)
(5.22545 0.45357 0)
(5.01653 0.434517 0)
(4.8315 0.32943 0)
(4.69811 0.208303 0)
(4.61451 0.0631615 0)
(4.56542 -0.0720301 0)
(4.54823 -0.181777 0)
(4.58115 -0.272434 0)
(4.57705 -0.327481 0)
(4.72826 -0.342017 0)
(4.82275 -0.32342 0)
(4.93482 -0.231444 0)
(5.04469 -0.151335 0)
(5.1596 -0.0352385 0)
(5.25402 0.0908091 0)
(5.34025 0.221108 0)
(5.40727 0.345345 0)
(5.45208 0.456116 0)
(5.47574 0.551407 0)
(5.48067 0.632538 0)
(5.47103 0.701935 0)
(5.45205 0.761663 0)
(5.42936 0.813736 0)
(5.4108 0.863901 0)
(5.40849 0.915637 0)
(5.4369 0.972126 0)
(5.51209 1.04061 0)
(5.64704 1.12251 0)
(5.88497 1.22308 0)
(6.26869 1.35521 0)
(6.84609 1.58148 0)
(7.70287 1.93052 0)
(9.01048 2.33548 0)
(10.8981 3.16911 0)
(5.37115 -0.626456 0)
(5.65383 -0.519076 0)
(5.84191 -0.317358 0)
(5.91755 -0.0684064 0)
(5.88826 0.17819 0)
(5.78047 0.376419 0)
(5.61761 0.50811 0)
(5.42249 0.620053 0)
(5.18634 0.631049 0)
(4.95807 0.571287 0)
(4.76439 0.431938 0)
(4.62269 0.254891 0)
(4.52564 0.0768932 0)
(4.48677 -0.108019 0)
(4.50415 -0.271508 0)
(4.57335 -0.393394 0)
(4.67584 -0.47372 0)
(4.79782 -0.507032 0)
(4.92764 -0.481883 0)
(5.06219 -0.400117 0)
(5.19384 -0.278662 0)
(5.3073 -0.143832 0)
(5.39797 0.000841447 0)
(5.46763 0.15341 0)
(5.51899 0.305351 0)
(5.55292 0.446341 0)
(5.57001 0.569388 0)
(5.57243 0.67152 0)
(5.56446 0.753131 0)
(5.5513 0.816526 0)
(5.53874 0.864731 0)
(5.53245 0.901415 0)
(5.5473 0.92785 0)
(5.56874 0.943523 0)
(5.65911 0.943773 0)
(5.82379 0.92343 0)
(6.10553 0.872775 0)
(6.5838 0.782914 0)
(7.2767 0.663709 0)
(8.63523 0.558558 0)
(10.5568 0.537873 0)
(12.1613 0.7439 0)
(5.35063 -1.15437 0)
(5.74451 -0.932915 0)
(5.99955 -0.569888 0)
(6.1068 -0.149277 0)
(6.072 0.253156 0)
(5.94723 0.588129 0)
(5.78842 0.82646 0)
(5.60733 0.954762 0)
(5.40019 0.972442 0)
(5.17819 0.889853 0)
(4.9758 0.72028 0)
(4.81928 0.491974 0)
(4.72027 0.235731 0)
(4.68267 -0.0194099 0)
(4.70272 -0.247296 0)
(4.77116 -0.428914 0)
(4.87588 -0.554155 0)
(5.00008 -0.615319 0)
(5.13065 -0.60851 0)
(5.25987 -0.539486 0)
(5.38094 -0.426425 0)
(5.4856 -0.282284 0)
(5.56837 -0.117688 0)
(5.62823 0.0552208 0)
(5.66842 0.224617 0)
(5.69324 0.3804 0)
(5.70663 0.515705 0)
(5.71279 0.628185 0)
(5.71625 0.718108 0)
(5.72138 0.786782 0)
(5.73287 0.836076 0)
(5.75442 0.867333 0)
(5.79492 0.881621 0)
(5.85403 0.8734 0)
(5.94465 0.82901 0)
(6.08648 0.728342 0)
(6.31514 0.539294 0)
(6.70602 0.216315 0)
(7.34642 -0.323234 0)
(8.46562 -1.07418 0)
(10.5594 -1.8373 0)
(13.8222 -2.54506 0)
(5.24041 -1.46886 0)
(5.73869 -1.14646 0)
(6.02882 -0.694975 0)
(6.26412 -0.20794 0)
(6.39312 0.241696 0)
(6.43447 0.48697 0)
(6.42637 0.723948 0)
(6.37803 0.919623 0)
(6.29135 1.04246 0)
(6.19659 0.9689 0)
(6.0948 0.772935 0)
(5.98899 0.499104 0)
(5.88806 0.198801 0)
(5.79664 -0.0966997 0)
(5.71867 -0.356146 0)
(5.65419 -0.558573 0)
(5.60053 -0.688427 0)
(5.55536 -0.740034 0)
(5.51866 -0.715252 0)
(5.48408 -0.623422 0)
(5.4601 -0.481023 0)
(5.43953 -0.306001 0)
(5.42367 -0.115501 0)
(5.41494 0.0762243 0)
(5.416 0.257426 0)
(5.42935 0.41852 0)
(5.45729 0.553408 0)
(5.50173 0.659555 0)
(5.56378 0.737505 0)
(5.64463 0.789488 0)
(5.74541 0.818533 0)
(5.86704 0.827067 0)
(6.00992 0.815641 0)
(6.17553 0.779226 0)
(6.36375 0.702334 0)
(6.57643 0.556966 0)
(6.82209 0.292226 0)
(7.1334 -0.175641 0)
(7.59423 -0.991935 0)
(8.39088 -2.35314 0)
(10.0114 -4.46382 0)
(13.3768 -7.42077 0)
(5.3666 -2.46894 0)
(5.05995 -1.89721 0)
(4.83952 -1.18334 0)
(4.72935 -0.490583 0)
(4.7286 0.127663 0)
(4.81165 0.638176 0)
(4.94865 0.998146 0)
(5.1457 1.20052 0)
(5.38714 1.26212 0)
(5.62953 1.20208 0)
(5.84557 1.03999 0)
(6.0051 0.799457 0)
(6.09776 0.510568 0)
(6.12318 0.206486 0)
(6.08514 -0.0808763 0)
(5.99323 -0.322685 0)
(5.86063 -0.498322 0)
(5.69331 -0.59757 0)
(5.51509 -0.619167 0)
(5.33932 -0.570853 0)
(5.17972 -0.467415 0)
(5.06175 -0.325602 0)
(4.98483 -0.161385 0)
(4.95737 0.0103895 0)
(4.98397 0.174489 0)
(5.06679 0.319086 0)
(5.20211 0.438843 0)
(5.38457 0.530355 0)
(5.60847 0.59284 0)
(5.86668 0.627924 0)
(6.15243 0.638528 0)
(6.45865 0.627413 0)
(6.77785 0.595753 0)
(7.10034 0.540074 0)
(7.41332 0.448829 0)
(7.69617 0.296104 0)
(7.91627 0.0336061 0)
(8.03038 -0.432427 0)
(7.97795 -1.27217 0)
(7.79462 -2.84593 0)
(7.70612 -5.77114 0)
(9.24103 -11.2441 0)
(4.75383 -0.284102 0)
(3.46157 -0.0498511 0)
(2.564 0.142766 0)
(2.10883 0.284484 0)
(2.06948 0.377894 0)
(2.37559 0.415855 0)
(2.94184 0.416144 0)
(3.66502 0.390796 0)
(4.52199 0.328872 0)
(5.32183 0.219008 0)
(6.02788 0.0830968 0)
(6.56676 -0.0536069 0)
(6.91287 -0.175513 0)
(7.03925 -0.270423 0)
(6.95712 -0.327798 0)
(6.7033 -0.342338 0)
(6.32752 -0.31608 0)
(5.88512 -0.257493 0)
(5.43422 -0.177549 0)
(5.0242 -0.0866406 0)
(4.69151 0.00348582 0)
(4.46583 0.0852536 0)
(4.35535 0.154097 0)
(4.36207 0.207348 0)
(4.49841 0.241922 0)
(4.71163 0.258688 0)
(5.00804 0.261947 0)
(5.36273 0.253938 0)
(5.75208 0.237592 0)
(6.15617 0.215945 0)
(6.55882 0.191859 0)
(6.9472 0.167425 0)
(7.30959 0.143844 0)
(7.63386 0.118582 0)
(7.90253 0.0842969 0)
(8.08627 0.030134 0)
(8.12035 -0.073273 0)
(7.91577 -0.286277 0)
(7.1351 -0.721596 0)
(5.76749 -1.62226 0)
(1.43871 -3.8223 0)
(-0.905584 -8.2521 0)
(-4.59626 0.232261 0)
(-5.95744 0.196335 0)
(-7.64491 0.348776 0)
(-9.03213 1.38567 0)
(-13.5785 3.5535 0)
(-20.077 6.22068 0)
(-28.3126 9.1644 0)
(-39.7617 12.9151 0)
(-57.3552 12.2379 0)
(-74.039 9.2325 0)
(-83.6518 5.72545 0)
(-90.8182 1.65259 0)
(-95.3908 -0.846406 0)
(-102.803 -2.78352 0)
(-108.258 -2.2694 0)
(-109.707 -7.07928 0)
(-99.2662 -15.7233 0)
(-67.5242 -20.9832 0)
(-23.0178 -29.1158 0)
(31.8238 -35.3247 0)
(90.0582 -31.1787 0)
(152.57 -22.6198 0)
(194.21 -15.6032 0)
(191.551 4.29125 0)
(181.799 13.659 0)
(155.555 20.5857 0)
(114.709 25.5035 0)
(65.7244 26.9937 0)
(17.45 25.9825 0)
(-24.3606 20.7305 0)
(-56.5385 13.006 0)
(-76.1763 6.01871 0)
(-83.3731 0.0147473 0)
(-80.2623 -4.41591 0)
(-70.7797 -7.3709 0)
(-56.976 -7.72646 0)
(-40.6357 -8.57189 0)
(-23.1359 -8.87361 0)
(-8.44884 -8.57915 0)
(6.6674 -6.65901 0)
(18.8548 -5.93664 0)
(25.9443 -3.32735 0)
(30.2185 -0.799826 0)
(30.1119 1.41564 0)
(25.834 3.49977 0)
(17.39 5.32758 0)
(5.63231 6.70653 0)
(-6.7135 7.24524 0)
(-19.1466 7.08692 0)
(-31.5223 5.69673 0)
(-41.0691 3.74574 0)
(-46.0246 1.59576 0)
(-47.4869 -0.653859 0)
(-44.5801 -2.95737 0)
(-37.0601 -4.88508 0)
(-25.8414 -6.34819 0)
(-13.5091 -7.58021 0)
(-0.857783 -7.03154 0)
(11.8374 -5.78558 0)
(21.6659 -4.28872 0)
(26.8393 -1.77843 0)
(28.2317 0.253014 0)
(26.3248 1.80112 0)
(21.7814 2.67936 0)
(16.441 2.95482 0)
(11.5069 2.47271 0)
(7.2513 1.83219 0)
(4.20776 1.22055 0)
(2.29405 0.655499 0)
(1.34509 0.250462 0)
(1.16225 -0.0927474 0)
(1.58109 -0.376271 0)
(2.3955 -0.573133 0)
(3.41667 -0.597142 0)
(4.56049 -0.54149 0)
(5.5324 -0.415124 0)
(6.18239 -0.219989 0)
(6.3978 0.000922108 0)
(6.18361 0.203122 0)
(5.6567 0.286793 0)
(5.15195 0.334769 0)
(4.75208 0.269702 0)
(4.35024 0.226547 0)
(3.88912 0.283751 0)
(3.18653 0.454962 0)
(2.06743 0.708094 0)
(0.413365 0.986419 0)
(-1.74818 1.22576 0)
(-4.28245 1.38834 0)
(-7.0508 1.43419 0)
(-9.83755 1.35952 0)
(-12.3694 1.17505 0)
(-14.5179 0.889215 0)
(-16.0143 0.517966 0)
(-9.75625 3.85427 0)
(-14.8382 5.00551 0)
(-21.6863 6.42714 0)
(-31.0292 8.29976 0)
(-41.7328 10.3703 0)
(-54.1147 11.9871 0)
(-68.4967 13.4874 0)
(-82.6895 14.0336 0)
(-84.2303 14.26 0)
(-82.0177 11.8854 0)
(-77.7458 5.52806 0)
(-71.1601 2.64638 0)
(-69.8243 7.0508 0)
(-70.7721 16.0457 0)
(-68.3297 17.1446 0)
(-63.7962 -2.32772 0)
(-62.9022 -31.9589 0)
(-55.0591 -76.6306 0)
(-28.7271 -95.712 0)
(31.6914 -92.5521 0)
(100.882 -77.874 0)
(152.997 -52.4375 0)
(179.091 -34.6501 0)
(186.752 -5.85722 0)
(177.511 26.003 0)
(146.065 53.1287 0)
(99.1094 71.0393 0)
(47.128 75.3958 0)
(0.484987 69.5173 0)
(-38.8064 56.8126 0)
(-66.2707 35.1834 0)
(-80.5271 17.5433 0)
(-85.5636 1.9697 0)
(-81.9214 -11.3664 0)
(-69.3073 -19.9177 0)
(-53.9326 -24.213 0)
(-38.656 -25.43 0)
(-21.3144 -25.376 0)
(-5.04919 -23.822 0)
(9.87668 -19.0635 0)
(21.1593 -15.2139 0)
(28.5265 -9.52836 0)
(32.1447 -3.31316 0)
(31.4497 3.30144 0)
(26.3936 9.87304 0)
(16.9328 15.8031 0)
(3.71321 20.3313 0)
(-9.73525 22.6208 0)
(-21.7204 20.3 0)
(-33.1253 15.805 0)
(-41.5062 10.0943 0)
(-46.5306 4.19121 0)
(-47.6774 -1.62181 0)
(-44.5888 -7.70186 0)
(-37.1028 -13.5919 0)
(-26.1953 -18.1187 0)
(-12.8233 -19.9873 0)
(1.46901 -19.3086 0)
(13.9103 -15.8472 0)
(22.905 -11.0428 0)
(28.2797 -5.63367 0)
(29.3173 0.717563 0)
(26.3484 5.43224 0)
(21.043 7.73701 0)
(15.4296 7.97845 0)
(10.7728 6.73872 0)
(7.11491 5.05692 0)
(4.41286 3.49156 0)
(2.66188 2.01134 0)
(1.68261 0.825686 0)
(1.23515 -0.0988107 0)
(1.34379 -0.80822 0)
(1.89028 -1.22934 0)
(2.70996 -1.5472 0)
(3.62437 -1.47128 0)
(4.47199 -1.1746 0)
(5.0819 -0.650881 0)
(5.28894 -0.00940313 0)
(5.07386 0.476755 0)
(4.67892 0.721386 0)
(4.24227 0.719114 0)
(3.9018 0.555967 0)
(3.72539 0.507898 0)
(3.49909 0.719901 0)
(2.98237 1.27517 0)
(1.96021 2.06904 0)
(0.335555 2.9236 0)
(-1.86132 3.63053 0)
(-4.46036 4.07523 0)
(-7.24498 4.19578 0)
(-9.98369 3.9659 0)
(-12.4481 3.40427 0)
(-14.4248 2.54305 0)
(-15.7168 1.42491 0)
(0.819488 6.8808 0)
(-0.921797 9.40574 0)
(-3.61137 12.6586 0)
(-7.57661 16.583 0)
(-12.9967 20.7767 0)
(-19.7237 24.8357 0)
(-27.1817 28.173 0)
(-35.009 29.009 0)
(-43.3815 25.7518 0)
(-52.3011 17.4172 0)
(-59.9314 7.0043 0)
(-64.5114 -2.23167 0)
(-63.6586 -8.93297 0)
(-52.353 -14.4117 0)
(-26.8167 -17.684 0)
(20.3932 -11.4041 0)
(67.4812 -9.65213 0)
(56.4539 -37.885 0)
(47.8347 -86.317 0)
(41.3649 -154.584 0)
(62.5823 -144.004 0)
(104.063 -103.12 0)
(135.554 -53.1078 0)
(147.082 -3.75084 0)
(135.406 48.0363 0)
(111.786 92.6666 0)
(75.2382 119.709 0)
(33.914 125.42 0)
(-8.47263 112.188 0)
(-46.3632 86.765 0)
(-69.919 55.0384 0)
(-76.9967 22.5094 0)
(-79.44 -2.47207 0)
(-72.6805 -20.2894 0)
(-58.2885 -31.2658 0)
(-43.2245 -39.2439 0)
(-29.1158 -42.4494 0)
(-15.5321 -42.3721 0)
(-1.39912 -38.0322 0)
(10.7802 -31.0685 0)
(19.5276 -22.8014 0)
(25.0803 -13.2535 0)
(27.5525 -3.79322 0)
(26.8018 6.84203 0)
(22.4938 17.2992 0)
(14.8455 26.4083 0)
(4.52885 33.4401 0)
(-7.9437 36.6221 0)
(-18.5673 32.02 0)
(-26.0919 24.5242 0)
(-31.3193 15.5314 0)
(-35.0367 5.85144 0)
(-37.8474 -4.39378 0)
(-38.9206 -14.9045 0)
(-35.8606 -23.8487 0)
(-26.7803 -29.5926 0)
(-15.9493 -33.0602 0)
(-4.38162 -31.9135 0)
(6.81566 -26.7499 0)
(15.6232 -18.4023 0)
(21.4421 -8.11201 0)
(24.1335 1.43108 0)
(23.1501 9.30621 0)
(20.1261 13.0665 0)
(15.9077 13.0478 0)
(12.0929 10.8097 0)
(8.64687 7.72151 0)
(5.85926 4.89667 0)
(3.73765 3.43258 0)
(2.25774 2.17944 0)
(1.17505 0.489061 0)
(0.586913 -1.32949 0)
(0.238604 -2.45835 0)
(0.371942 -2.46582 0)
(1.13854 -2.26473 0)
(2.27298 -1.88065 0)
(3.32412 -1.06544 0)
(4.06126 0.00476378 0)
(4.41961 1.05534 0)
(4.34066 1.32394 0)
(4.17623 0.989217 0)
(4.18366 0.546703 0)
(4.35821 0.425363 0)
(4.47602 0.886019 0)
(4.26118 1.9556 0)
(3.3804 3.43937 0)
(1.75667 5.02372 0)
(-0.540008 6.27136 0)
(-3.2432 6.99088 0)
(-6.08577 7.13035 0)
(-8.83679 6.671 0)
(-11.2671 5.6512 0)
(-13.1968 4.15607 0)
(-14.4749 2.18932 0)
(8.41977 7.12391 0)
(9.18804 10.1497 0)
(9.57107 14.2026 0)
(9.12588 19.4042 0)
(7.47128 24.8839 0)
(4.58691 29.9233 0)
(0.00853132 33.9944 0)
(-6.61422 35.5353 0)
(-15.3162 33.5303 0)
(-25.8311 27.0924 0)
(-37.3946 15.9676 0)
(-47.7048 3.78999 0)
(-55.6363 -6.93405 0)
(-60.0817 -18.2239 0)
(-60.6581 -35.8729 0)
(-56.8862 -65.1595 0)
(-34.9909 -78.4157 0)
(14.284 -78.3631 0)
(80.7415 -86.3593 0)
(91.887 -112.22 0)
(71.4497 -137.372 0)
(62.741 -125.894 0)
(71.6802 -79.0843 0)
(81.9622 -13.9536 0)
(84.3237 58.2194 0)
(78.8335 123.968 0)
(60.8354 162.318 0)
(35.1697 170.168 0)
(-2.66241 152.172 0)
(-32.6432 113.346 0)
(-53.533 70.591 0)
(-66.5169 31.4814 0)
(-68.1149 -1.40803 0)
(-64.4645 -40.0823 0)
(-53.6915 -55.0803 0)
(-35.5276 -56.9056 0)
(-17.9082 -54.2495 0)
(-5.38997 -50.3558 0)
(4.57119 -45.1604 0)
(10.4034 -38.1036 0)
(13.8428 -29.0634 0)
(15.5434 -18.2524 0)
(16.4745 -6.40769 0)
(15.9868 7.3437 0)
(12.2895 21.1893 0)
(6.29541 33.1985 0)
(-1.05379 43.5911 0)
(-10.0629 45.9886 0)
(-13.7217 39.15 0)
(-10.8125 29.5605 0)
(-6.00588 20.8486 0)
(-3.81531 12.8616 0)
(-4.39648 5.91373 0)
(-8.08593 -6.25779 0)
(-16.4614 -27.915 0)
(-24.7204 -44.7389 0)
(-24.8381 -51.8653 0)
(-18.6343 -46.0981 0)
(-10.5817 -36.042 0)
(-1.9192 -24.6252 0)
(5.84749 -16.6126 0)
(14.9853 2.66639 0)
(22.1858 13.8504 0)
(24.973 17.2166 0)
(22.5107 16.6235 0)
(18.6478 14.1659 0)
(15.1747 10.9281 0)
(10.4993 9.04804 0)
(5.68314 4.7971 0)
(0.45655 1.87734 0)
(-3.55075 0.507166 0)
(-5.20682 0.39096 0)
(-4.85452 -0.467868 0)
(-4.05467 -2.17249 0)
(-3.21236 -3.27708 0)
(-1.9138 -3.79497 0)
(0.380133 -2.83266 0)
(2.74734 -1.06135 0)
(4.48845 0.549169 0)
(5.00005 1.07834 0)
(5.34747 0.975957 0)
(6.02431 0.617863 0)
(6.71404 0.532065 0)
(7.12549 0.828226 0)
(6.95975 2.41818 0)
(5.69619 4.58476 0)
(3.34937 6.74742 0)
(0.110641 8.35183 0)
(-3.40305 9.31406 0)
(-6.74428 9.5988 0)
(-9.64193 9.11315 0)
(-11.8835 7.91062 0)
(-13.3583 6.15862 0)
(-14.0835 3.63695 0)
(13.3929 5.2669 0)
(16.0053 8.50339 0)
(18.7839 12.797 0)
(21.279 18.7055 0)
(23.4958 25.7602 0)
(20.5889 32.5309 0)
(16.5839 38.3439 0)
(10.3615 42.198 0)
(1.11079 43.1657 0)
(-9.75999 40.0977 0)
(-24.7044 30.831 0)
(-48.0229 20.3707 0)
(-64.2936 5.86762 0)
(-77.9189 -12.1143 0)
(-86.6765 -30.6523 0)
(-93.7328 -55.158 0)
(-101.224 -85.6732 0)
(-101.343 -117.186 0)
(-88.6067 -137.784 0)
(-53.2423 -146.987 0)
(-16.8429 -148.25 0)
(-5.16512 -121.682 0)
(-6.50777 -85.4328 0)
(-3.36374 -27.4911 0)
(1.20647 43.5205 0)
(13.6136 111.654 0)
(26.7534 167.161 0)
(43.2653 196.539 0)
(45.8537 181.632 0)
(39.9808 143.34 0)
(30.1299 93.3681 0)
(19.8823 33.2784 0)
(5.48094 4.32982 0)
(-4.88549 -32.7574 0)
(-22.2621 -60.4173 0)
(-33.0237 -74.4184 0)
(-34.6452 -77.2377 0)
(-26.0246 -69.0903 0)
(-12.4642 -58.7278 0)
(-0.862255 -46.1147 0)
(4.10751 -31.7605 0)
(4.71685 -14.7817 0)
(1.18615 -4.83118 0)
(-1.8347 12.654 0)
(-9.46039 29.1912 0)
(-18.6015 40.7533 0)
(-30.8788 47.4878 0)
(-38.3812 45.7822 0)
(-36.2817 32.0644 0)
(-29.245 16.6206 0)
(-19.5998 4.66557 0)
(-10.7041 -1.44715 0)
(-2.41234 -5.21105 0)
(11.9946 -5.13469 0)
(23.9402 -5.10975 0)
(23.41 -10.6053 0)
(10.3161 -24.5199 0)
(-7.92559 -44.4772 0)
(-18.8176 -49.9095 0)
(-17.3494 -43.371 0)
(-8.21783 -31.8051 0)
(1.55482 -22.3061 0)
(18.3635 -2.6116 0)
(36.2514 15.3066 0)
(46.5571 22.9741 0)
(46.7945 23.0076 0)
(42.1615 19.3471 0)
(32.6895 16.1163 0)
(20.4609 15.1193 0)
(8.53157 14.3918 0)
(-7.76957 8.71318 0)
(-20.8336 -2.03478 0)
(-28.868 -6.96387 0)
(-29.8108 -6.91128 0)
(-25.6698 -5.62783 0)
(-18.8416 -5.44948 0)
(-11.3225 -5.9692 0)
(-5.21557 -4.42616 0)
(2.27136 -0.677238 0)
(8.50309 1.63458 0)
(11.874 1.33399 0)
(14.0434 -0.64432 0)
(15.6193 -0.8115 0)
(16.5037 0.404339 0)
(15.638 3.22885 0)
(13.1398 6.85123 0)
(9.03182 11.1382 0)
(3.46538 13.8396 0)
(-3.12956 14.7047 0)
(-9.53039 14.2726 0)
(-15.1787 12.8043 0)
(-19.3382 10.3065 0)
(-21.6124 6.99515 0)
(-22.3224 2.95876 0)
(14.6385 1.53026 0)
(21.8918 3.78907 0)
(27.0914 8.52885 0)
(31.5798 16.0742 0)
(34.3738 25.7145 0)
(34.2682 36.4016 0)
(30.8575 45.6702 0)
(23.3951 51.8048 0)
(12.2558 54.8575 0)
(-1.70467 55.2144 0)
(-21.3679 50.7578 0)
(-44.6454 40.8906 0)
(-68.4823 24.6807 0)
(-92.1252 2.71125 0)
(-109.273 -20.2232 0)
(-126.077 -42.5206 0)
(-146.567 -75.3092 0)
(-159.661 -106.4 0)
(-170.119 -137.655 0)
(-176.878 -173.592 0)
(-163.337 -179.166 0)
(-134.876 -140.959 0)
(-109.121 -82.9918 0)
(-87.2471 -44.7038 0)
(-53.1251 1.46822 0)
(-8.2726 84.7518 0)
(40.8801 136.955 0)
(91.4217 165.997 0)
(137.815 171.225 0)
(168.296 147.267 0)
(171.477 105.243 0)
(157.519 63.3274 0)
(137.017 24.8584 0)