/*--------------------------------*- C++ -*----------------------------------*\
| =========                 |                                                 |
| \\      /  F ield         | OpenFOAM: The Open Source CFD Toolbox           |
|  \\    /   O peration     | Version:  2206                                  |
|   \\  /    A nd           | Website:  www.openfoam.com                      |
|    \\/     M anipulation  |                                                 |
\*---------------------------------------------------------------------------*/
FoamFile
{
    version     2.0;
    format      ascii;
    arch        "LSB;label=32;scalar=64";
    class       volVectorField;
    location    "19.2";
    object      ddtCorrDdt0(U);
}
// * * * * * * * * * * * * * * * * * * * * * * * * * * * * * * * * * * * * * //

dimensions      [0 1 -2 0 0 0 0];

internalField   nonuniform List<vector> 
3025
(
(32.4834 -5.20898 0)
(34.6854 -12.8837 0)
(35.4785 -19.381 0)
(35.0019 -25.0748 0)
(33.4638 -30.3814 0)
(31.1291 -35.5915 0)
(28.2196 -40.8069 0)
(24.8748 -45.9819 0)
(21.175 -50.9663 0)
(17.1678 -55.5208 0)
(12.8931 -59.327 0)
(8.41989 -61.9672 0)
(3.87686 -62.7756 0)
(-0.533577 -61.8676 0)
(-4.68277 -59.4164 0)
(-8.45622 -55.4845 0)
(-11.7446 -50.2441 0)
(-14.47 -43.9574 0)
(-16.6049 -36.9364 0)
(-18.1601 -29.4804 0)
(-19.2128 -21.8022 0)
(-20.1687 -13.8601 0)
(-21.3062 -5.22623 0)
(-21.7901 3.98093 0)
(-22.1355 13.2542 0)
(-22.0809 22.3645 0)
(-21.6689 31.0551 0)
(-21.0273 39.1716 0)
(-20.1981 46.5942 0)
(-19.1856 53.1716 0)
(-17.936 58.6494 0)
(-16.2636 62.5472 0)
(-13.8028 63.929 0)
(-10.7224 62.9067 0)
(-7.36244 60.0103 0)
(-3.13608 55.5246 0)
(-0.893044 49.7875 0)
(3.87122 43.2011 0)
(7.70649 35.7841 0)
(11.261 28.1159 0)
(14.9296 20.3176 0)
(18.7478 12.3545 0)
(21.6581 4.56139 0)
(23.9088 -2.28445 0)
(25.2353 -8.40056 0)
(25.5804 -13.9224 0)
(25.0502 -18.9766 0)
(23.7899 -23.7034 0)
(21.9698 -28.199 0)
(19.7349 -32.483 0)
(17.1871 -36.5043 0)
(14.3954 -40.1586 0)
(11.4061 -43.2942 0)
(8.25872 -45.6969 0)
(5.01082 -47.0175 0)
(1.77554 -46.9434 0)
(-1.32982 -45.7869 0)
(-4.24358 -43.5592 0)
(-6.88581 -40.3291 0)
(-9.18059 -36.2279 0)
(-11.0767 -31.4423 0)
(-12.5603 -26.189 0)
(-13.6436 -20.6666 0)
(-14.4114 -14.9946 0)
(-15.1974 -9.07433 0)
(-15.9962 -2.60191 0)
(-16.3456 4.17587 0)
(-16.5763 10.9796 0)
(-16.4795 17.6474 0)
(-16.0928 23.9837 0)
(-15.4877 29.8503 0)
(-14.6871 35.1287 0)
(-13.6983 39.69 0)
(-12.4982 43.3495 0)
(-10.9689 45.7756 0)
(-8.93152 46.3639 0)
(-6.58457 45.5521 0)
(-4.00078 43.6248 0)
(-1.14694 40.6315 0)
(1.81565 36.5631 0)
(4.65391 31.7656 0)
(7.29536 26.6344 0)
(9.75233 21.2887 0)
(12.0928 15.7812 0)
(14.4128 10.1457 0)
(16.287 4.53081 0)
(17.5519 -0.687139 0)
(18.277 -5.56171 0)
(18.3569 -10.1621 0)
(17.8456 -14.4815 0)
(16.8417 -18.5268 0)
(15.4506 -22.3019 0)
(13.7614 -25.7801 0)
(11.8434 -28.9078 0)
(9.7486 -31.6075 0)
(7.51475 -33.7713 0)
(5.17942 -35.2343 0)
(2.79809 -35.6799 0)
(0.474248 -35.2124 0)
(-1.73782 -33.9546 0)
(-3.79112 -31.9419 0)
(-5.63355 -29.247 0)
(-7.22032 -25.9786 0)
(-8.52195 -22.2732 0)
(-9.53041 -18.2778 0)
(-10.2577 -14.1209 0)
(-10.7987 -9.86291 0)
(-11.4142 -5.38596 0)
(-11.9258 -0.509514 0)
(-12.1484 4.50006 0)
(-12.2462 9.50917 0)
(-12.0738 14.3841 0)
(-11.6715 18.9889 0)
(-11.0724 23.2072 0)
(-10.2978 27.0015 0)
(-9.35414 30.1725 0)
(-8.18665 32.9057 0)
(-6.726 34.0907 0)
(-4.77839 34.4144 0)
(-3.2866 34.3725 0)
(0.0112814 31.4462 0)
(38.0073 -7.82623 0)
(39.5579 -14.1006 0)
(39.6685 -19.2504 0)
(38.5176 -23.7807 0)
(36.3738 -28.1739 0)
(33.539 -32.7294 0)
(30.2255 -37.4824 0)
(26.5363 -42.2904 0)
(22.5205 -46.952 0)
(18.2082 -51.2193 0)
(13.6411 -54.7895 0)
(8.88474 -57.2814 0)
(4.05281 -58.1237 0)
(-0.656466 -57.4051 0)
(-5.1168 -55.2688 0)
(-9.21542 -51.7708 0)
(-12.8382 -47.0562 0)
(-15.9107 -41.343 0)
(-18.4104 -34.8838 0)
(-20.3691 -27.9106 0)
(-21.9114 -20.5512 0)
(-23.3869 -12.7198 0)
(-24.705 -4.24371 0)
(-25.4346 4.55997 0)
(-25.9275 13.4289 0)
(-25.9741 22.1691 0)
(-25.6282 30.5471 0)
(-24.9715 38.4016 0)
(-24.0284 45.5816 0)
(-22.7838 51.8758 0)
(-21.1417 56.9369 0)
(-18.8217 60.1661 0)
(-15.5343 60.6685 0)
(-11.7309 59.2568 0)
(-7.57851 56.1642 0)
(-2.75301 51.6926 0)
(0.914954 45.7382 0)
(6.36907 38.8192 0)
(10.6272 31.589 0)
(15.0005 24.1316 0)
(19.5228 16.4168 0)
(23.2709 8.76486 0)
(26.1364 2.02413 0)
(28.0367 -3.85051 0)
(28.8642 -8.999 0)
(28.7066 -13.5856 0)
(27.6906 -17.8424 0)
(25.9864 -21.9493 0)
(23.7776 -25.9864 0)
(21.206 -29.9284 0)
(18.3591 -33.6833 0)
(15.2863 -37.1217 0)
(12.025 -40.0818 0)
(8.6151 -42.3564 0)
(5.12012 -43.6383 0)
(1.65154 -43.6487 0)
(-1.67856 -42.6499 0)
(-4.8109 -40.6573 0)
(-7.67067 -37.7369 0)
(-10.1895 -34.0063 0)
(-12.3252 -29.6229 0)
(-14.0677 -24.7577 0)
(-15.4379 -19.5541 0)
(-16.5557 -14.0729 0)
(-17.6721 -8.21752 0)
(-18.5621 -1.91119 0)
(-19.0736 4.55408 0)
(-19.3772 11.0512 0)
(-19.331 17.4233 0)
(-18.9765 23.4927 0)
(-18.3551 29.1225 0)
(-17.4747 34.1783 0)
(-16.3197 38.4929 0)
(-14.8132 41.8171 0)
(-12.7396 43.7131 0)
(-10.0603 43.8705 0)
(-7.05872 42.7808 0)
(-3.79796 40.5737 0)
(-0.352158 37.3899 0)
(3.12214 33.3849 0)
(6.45987 28.7905 0)
(9.59005 23.8317 0)
(12.5638 18.6411 0)
(15.421 13.2925 0)
(17.8449 7.95567 0)
(19.5422 2.98348 0)
(20.6362 -1.56189 0)
(21.0342 -5.79724 0)
(20.7691 -9.77208 0)
(19.9191 -13.5489 0)
(18.5902 -17.1651 0)
(16.8949 -20.6088 0)
(14.9231 -23.8328 0)
(12.7402 -26.7653 0)
(10.3922 -29.3131 0)
(7.91479 -31.3606 0)
(5.34874 -32.7525 0)
(2.75763 -33.2177 0)
(0.240538 -32.8373 0)
(-2.15473 -31.7196 0)
(-4.38218 -29.8991 0)
(-6.39077 -27.4426 0)
(-8.14124 -24.4471 0)
(-9.61293 -21.0286 0)
(-10.8052 -17.3021 0)
(-11.7435 -13.3557 0)
(-12.539 -9.20946 0)
(-13.3417 -4.78149 0)
(-13.8844 -0.0716536 0)
(-14.2053 4.69661 0)
(-14.3251 9.4627 0)
(-14.1686 14.0987 0)
(-13.7646 18.4815 0)
(-13.1245 22.4862 0)
(-12.2621 26.0936 0)
(-11.1401 29.0011 0)
(-9.63528 31.37 0)
(-7.76216 32.2494 0)
(-5.33517 32.3143 0)
(-3.50995 32.1132 0)
(0.443318 29.0782 0)
(42.8072 -9.83415 0)
(43.5212 -14.5768 0)
(42.7488 -18.3403 0)
(40.8461 -21.7695 0)
(38.2413 -25.4266 0)
(35.0573 -29.4755 0)
(31.3953 -33.7998 0)
(27.4379 -38.279 0)
(23.191 -42.6523 0)
(18.6706 -46.6583 0)
(13.9062 -50.0095 0)
(8.95579 -52.3622 0)
(3.93537 -53.2399 0)
(-0.966585 -52.6942 0)
(-5.63657 -50.8501 0)
(-9.97089 -47.7587 0)
(-13.868 -43.5428 0)
(-17.2614 -38.3767 0)
(-20.1294 -32.449 0)
(-22.4951 -25.9145 0)
(-24.5134 -18.845 0)
(-26.4101 -11.2069 0)
(-27.8486 -3.05673 0)
(-28.828 5.2909 0)
(-29.4434 13.7295 0)
(-29.5813 22.0564 0)
(-29.2929 30.0584 0)
(-28.6218 37.568 0)
(-27.5716 44.3961 0)
(-26.0934 50.2627 0)
(-23.9985 54.711 0)
(-20.8626 56.9129 0)
(-16.7995 56.7848 0)
(-12.1963 54.866 0)
(-7.16291 51.4053 0)
(-1.7161 46.6455 0)
(3.80946 40.6407 0)
(9.08621 33.8692 0)
(14.2205 26.8298 0)
(19.4605 19.507 0)
(24.0246 12.0882 0)
(27.6083 5.50148 0)
(30.1251 -0.143673 0)
(31.4736 -4.97217 0)
(31.7377 -9.0969 0)
(31.0392 -12.7615 0)
(29.542 -16.2576 0)
(27.4437 -19.7887 0)
(24.9249 -23.4173 0)
(22.1012 -27.0681 0)
(19.0348 -30.5923 0)
(15.7635 -33.8351 0)
(12.3174 -36.6331 0)
(8.72803 -38.791 0)
(5.05768 -40.0477 0)
(1.41395 -40.1499 0)
(-2.09378 -39.3151 0)
(-5.40687 -37.5605 0)
(-8.45427 -34.9464 0)
(-11.1745 -31.5726 0)
(-13.5322 -27.5653 0)
(-15.5222 -23.0533 0)
(-17.1837 -18.1336 0)
(-18.6485 -12.8343 0)
(-20.0243 -7.12895 0)
(-20.9748 -1.10163 0)
(-21.655 5.02698 0)
(-22.0292 11.1965 0)
(-22.0418 17.2457 0)
(-21.7226 23.0112 0)
(-21.083 28.3471 0)
(-20.1041 33.088 0)
(-18.7177 37.0196 0)
(-16.7482 39.8287 0)
(-13.9568 40.9382 0)
(-10.6438 40.7101 0)
(-6.99037 39.3219 0)
(-3.10249 36.9217 0)
(0.890343 33.668 0)
(4.83758 29.7302 0)
(8.6309 25.2919 0)
(12.2666 20.5231 0)
(15.7316 15.5571 0)
(18.6969 10.569 0)
(20.9008 5.91258 0)
(22.4213 1.7086 0)
(23.1895 -2.14846 0)
(23.2426 -5.7068 0)
(22.6408 -9.05477 0)
(21.4741 -12.3004 0)
(19.863 -15.5005 0)
(17.9181 -18.6353 0)
(15.72 -21.6277 0)
(13.326 -24.379 0)
(10.7812 -26.7856 0)
(8.11894 -28.7302 0)
(5.37788 -30.0693 0)
(2.62663 -30.58 0)
(-0.0426353 -30.2982 0)
(-2.5839 -29.3295 0)
(-4.95395 -27.7057 0)
(-7.10728 -25.4871 0)
(-9.01096 -22.7561 0)
(-10.6504 -19.6061 0)
(-12.0314 -16.1233 0)
(-13.1931 -12.3649 0)
(-14.2335 -8.34052 0)
(-15.1796 -4.04538 0)
(-15.7711 0.427148 0)
(-16.185 4.94283 0)
(-16.3387 9.45102 0)
(-16.2071 13.8251 0)
(-15.8013 17.9506 0)
(-15.1078 21.6898 0)
(-14.1252 25.0284 0)
(-12.7361 27.5602 0)
(-10.8011 29.4213 0)
(-8.50049 29.9718 0)
(-5.59192 29.7949 0)
(-3.42789 29.4074 0)
(1.16072 26.2727 0)
(46.5445 -10.9109 0)
(46.0748 -14.0261 0)
(44.4352 -16.6068 0)
(42.0337 -19.2757 0)
(39.0443 -22.3388 0)
(35.5991 -25.9065 0)
(31.7879 -29.9219 0)
(27.6252 -34.0775 0)
(23.2478 -38.1829 0)
(18.6175 -41.9449 0)
(13.7379 -45.079 0)
(8.67393 -47.2927 0)
(3.54655 -48.211 0)
(-1.47064 -47.8255 0)
(-6.27648 -46.2513 0)
(-10.7795 -43.5307 0)
(-14.8907 -39.7623 0)
(-18.5538 -35.0797 0)
(-21.7528 -29.6199 0)
(-24.5308 -23.487 0)
(-27.0145 -16.7328 0)
(-29.1948 -9.41621 0)
(-30.7506 -1.7167 0)
(-31.9404 6.16697 0)
(-32.6594 14.1465 0)
(-32.8855 22.017 0)
(-32.651 29.5874 0)
(-31.9669 36.6744 0)
(-30.7997 43.0364 0)
(-29.0058 48.2931 0)
(-26.1792 51.7823 0)
(-22.0531 52.8394 0)
(-17.1317 52.0438 0)
(-11.6144 49.5808 0)
(-5.67654 45.7257 0)
(0.46853 40.7415 0)
(6.55557 34.8484 0)
(12.555 28.3436 0)
(18.5974 21.4525 0)
(23.9296 14.3585 0)
(28.2957 8.05004 0)
(31.471 2.69186 0)
(33.348 -1.79294 0)
(34.0294 -5.47483 0)
(33.5508 -8.5484 0)
(32.2849 -11.3822 0)
(30.4415 -14.2642 0)
(28.1454 -17.3546 0)
(25.4837 -20.6675 0)
(22.4887 -24.0368 0)
(19.2918 -27.3431 0)
(15.9108 -30.41 0)
(12.3492 -33.0515 0)
(8.64312 -35.0912 0)
(4.85776 -36.3176 0)
(1.09735 -36.5036 0)
(-2.53395 -35.8219 0)
(-5.98434 -34.2914 0)
(-9.1905 -31.9646 0)
(-12.0993 -28.9228 0)
(-14.6839 -25.2625 0)
(-16.9442 -21.0729 0)
(-18.9239 -16.4159 0)
(-20.7067 -11.3274 0)
(-22.218 -5.87492 0)
(-23.2979 -0.202114 0)
(-24.0995 5.594 0)
(-24.5429 11.4216 0)
(-24.6158 17.1204 0)
(-24.3204 22.5352 0)
(-23.6321 27.4992 0)
(-22.4777 31.802 0)
(-20.6827 35.1595 0)
(-17.9593 37.0557 0)
(-14.4888 37.5674 0)
(-10.5507 36.9193 0)
(-6.28608 35.2433 0)
(-1.8456 32.6972 0)
(2.61546 29.4331 0)
(6.98546 25.6024 0)
(11.2475 21.3621 0)
(15.3305 16.8495 0)
(18.8155 12.2522 0)
(21.5681 8.01126 0)
(23.5384 4.19725 0)
(24.687 0.736274 0)
(25.0719 -2.38876 0)
(24.7091 -5.24732 0)
(23.778 -8.00147 0)
(22.3969 -10.7815 0)
(20.6359 -13.6274 0)
(18.529 -16.4664 0)
(16.1957 -19.2397 0)
(13.6846 -21.8342 0)
(11.0198 -24.1137 0)
(8.23525 -25.9597 0)
(5.37295 -27.2482 0)
(2.50112 -27.8045 0)
(-0.293934 -27.6208 0)
(-2.96374 -26.7997 0)
(-5.46987 -25.3691 0)
(-7.77082 -23.3803 0)
(-9.83854 -20.9002 0)
(-11.6627 -17.9994 0)
(-13.2538 -14.7382 0)
(-14.654 -11.1581 0)
(-15.9101 -7.29395 0)
(-16.9162 -3.21071 0)
(-17.6225 0.984832 0)
(-18.1029 5.2431 0)
(-18.2933 9.47848 0)
(-18.1817 13.5644 0)
(-17.7559 17.3884 0)
(-16.9712 20.795 0)
(-15.7762 23.7513 0)
(-13.9437 25.6945 0)
(-11.514 26.9978 0)
(-8.79408 27.2413 0)
(-5.43055 26.8563 0)
(-2.93701 26.2699 0)
(2.20941 23.0846 0)
(48.5292 -10.7321 0)
(47.1138 -12.535 0)
(44.8627 -14.2902 0)
(42.0145 -16.3709 0)
(38.7582 -18.9809 0)
(35.1817 -22.1749 0)
(31.3115 -25.8607 0)
(27.1584 -29.8063 0)
(22.7108 -33.6338 0)
(18.0576 -37.1527 0)
(13.1579 -40.0755 0)
(8.06216 -42.1495 0)
(2.90103 -43.1093 0)
(-2.16843 -42.8671 0)
(-7.0521 -41.5341 0)
(-11.6751 -39.1409 0)
(-15.9597 -35.7624 0)
(-19.8585 -31.4942 0)
(-23.3641 -26.4328 0)
(-26.5174 -20.6646 0)
(-29.343 -14.2812 0)
(-31.6118 -7.41166 0)
(-33.4145 -0.242189 0)
(-34.7447 7.17192 0)
(-35.5668 14.6655 0)
(-35.8855 22.0492 0)
(-35.7025 29.1379 0)
(-34.9816 35.7054 0)
(-33.5847 41.4203 0)
(-31.1408 45.7179 0)
(-27.1294 47.6872 0)
(-22.0931 47.8735 0)
(-16.2544 46.3619 0)
(-9.87298 43.4269 0)
(-3.21851 39.3191 0)
(3.45971 34.2653 0)
(10.1639 28.5111 0)
(16.9953 22.1839 0)
(23.0363 15.4626 0)
(28.1478 9.55806 0)
(31.9594 4.58061 0)
(34.3637 0.50892 0)
(35.4648 -2.68934 0)
(35.2551 -5.19494 0)
(34.2342 -7.40242 0)
(32.6153 -9.64281 0)
(30.5537 -12.0877 0)
(28.1408 -14.7999 0)
(25.4221 -17.7769 0)
(22.4273 -20.9252 0)
(19.1643 -24.0139 0)
(15.7243 -26.8878 0)
(12.1152 -29.3743 0)
(8.35211 -31.2977 0)
(4.5009 -32.4938 0)
(0.668208 -32.7662 0)
(-3.04594 -32.2267 0)
(-6.60085 -30.9007 0)
(-9.94267 -28.8301 0)
(-13.0238 -26.0756 0)
(-15.8218 -22.7071 0)
(-18.3406 -18.7936 0)
(-20.611 -14.3974 0)
(-22.6198 -9.59217 0)
(-24.1971 -4.48183 0)
(-25.4725 0.813903 0)
(-26.3925 6.25401 0)
(-26.9221 11.7096 0)
(-27.0477 17.0217 0)
(-26.7333 22.0209 0)
(-25.8956 26.4987 0)
(-24.3424 30.1619 0)
(-21.7455 32.5104 0)
(-18.2589 33.5804 0)
(-14.161 33.5518 0)
(-9.6303 32.5124 0)
(-4.84651 30.617 0)
(0.0133329 27.998 0)
(4.83396 24.7875 0)
(9.61725 21.1254 0)
(14.233 17.094 0)
(18.2169 12.9454 0)
(21.5014 9.19382 0)
(23.9155 5.83819 0)
(25.4459 2.84002 0)
(26.1574 0.190531 0)
(26.0299 -2.17494 0)
(25.3686 -4.43578 0)
(24.2531 -6.73821 0)
(22.7596 -9.13722 0)
(20.9388 -11.6405 0)
(18.825 -14.2254 0)
(16.4388 -16.7896 0)
(13.836 -19.1899 0)
(11.0988 -21.3366 0)
(8.23915 -23.088 0)
(5.29575 -24.3247 0)
(2.33732 -24.9208 0)
(-0.553558 -24.8337 0)
(-3.32673 -24.1534 0)
(-5.95034 -22.9014 0)
(-8.38993 -21.1191 0)
(-10.6229 -18.8594 0)
(-12.6417 -16.1764 0)
(-14.4557 -13.1192 0)
(-16.0814 -9.73855 0)
(-17.47 -6.09822 0)
(-18.5459 -2.28862 0)
(-19.385 1.62709 0)
(-19.938 5.60282 0)
(-20.1735 9.5299 0)
(-20.0649 13.2844 0)
(-19.5645 16.7398 0)
(-18.565 19.7054 0)
(-16.8849 21.9929 0)
(-14.5692 23.4045 0)
(-11.5913 24.0692 0)
(-8.52545 24.0867 0)
(-4.77978 23.5424 0)
(-1.9911 22.7473 0)
(3.56351 19.5854 0)
(48.6833 -9.45899 0)
(46.5431 -10.3389 0)
(43.823 -11.4985 0)
(40.7555 -13.1936 0)
(37.4436 -15.5214 0)
(33.9054 -18.4524 0)
(30.1135 -21.8538 0)
(26.0421 -25.5117 0)
(21.6838 -29.1257 0)
(17.0635 -32.3775 0)
(12.2258 -35.0867 0)
(7.17469 -37.0185 0)
(2.02867 -37.9978 0)
(-3.05241 -37.866 0)
(-7.97313 -36.7297 0)
(-12.6822 -34.6108 0)
(-17.1134 -31.5606 0)
(-21.2248 -27.6503 0)
(-25.0072 -22.9638 0)
(-28.4328 -17.5863 0)
(-31.3281 -11.6215 0)
(-33.7807 -5.27471 0)
(-35.76 1.40449 0)
(-37.2303 8.31164 0)
(-38.1754 15.2906 0)
(-38.5864 22.1509 0)
(-38.4124 28.6756 0)
(-37.4913 34.5524 0)
(-35.4411 39.23 0)
(-31.6459 41.8047 0)
(-26.6494 42.7049 0)
(-20.656 41.9673 0)
(-13.9657 39.8263 0)
(-6.91389 36.5334 0)
(0.214558 32.2984 0)
(7.44775 27.3382 0)
(14.855 21.6373 0)
(21.5428 15.4541 0)
(27.2653 10.0284 0)
(31.5953 5.49653 0)
(34.4385 1.89619 0)
(35.9026 -0.783013 0)
(35.9803 -2.71058 0)
(35.2032 -4.28813 0)
(33.8403 -5.891 0)
(32.0414 -7.7031 0)
(29.914 -9.80678 0)
(27.5072 -12.2245 0)
(24.833 -14.918 0)
(21.8918 -17.7896 0)
(18.6951 -20.6838 0)
(15.256 -23.36 0)
(11.6512 -25.6776 0)
(7.89129 -27.4795 0)
(4.0177 -28.62 0)
(0.138115 -28.9748 0)
(-3.64156 -28.5415 0)
(-7.28221 -27.3835 0)
(-10.7486 -25.5292 0)
(-13.9994 -23.0262 0)
(-17.0109 -19.93 0)
(-19.7676 -16.2981 0)
(-22.2205 -12.1892 0)
(-24.2932 -7.70921 0)
(-26.0521 -2.97578 0)
(-27.4593 1.97475 0)
(-28.4848 7.03956 0)
(-29.0933 12.0789 0)
(-29.2231 16.9308 0)
(-28.7588 21.3869 0)
(-27.484 25.1257 0)
(-25.0148 27.635 0)
(-21.6184 29.0575 0)
(-17.4829 29.4685 0)
(-12.8064 28.9391 0)
(-7.80594 27.6006 0)
(-2.68926 25.5736 0)
(2.42776 22.9696 0)
(7.58247 19.8961 0)
(12.5657 16.3373 0)
(16.9696 12.7034 0)
(20.6625 9.45693 0)
(23.4467 6.59201 0)
(25.3208 4.10724 0)
(26.3513 1.97936 0)
(26.5541 0.119446 0)
(26.1836 -1.63884 0)
(25.3628 -3.45377 0)
(24.1661 -5.39153 0)
(22.6495 -7.46804 0)
(20.84 -9.66966 0)
(18.7505 -11.9589 0)
(16.3955 -14.2799 0)
(13.8042 -16.5236 0)
(11.0169 -18.5096 0)
(8.1252 -20.1573 0)
(5.14612 -21.3406 0)
(2.1276 -21.963 0)
(-0.847594 -21.9549 0)
(-3.71699 -21.3917 0)
(-6.45414 -20.2939 0)
(-9.03572 -18.6949 0)
(-11.4425 -16.6365 0)
(-13.6595 -14.1637 0)
(-15.6692 -11.3229 0)
(-17.4096 -8.16586 0)
(-18.8793 -4.79761 0)
(-20.0923 -1.27405 0)
(-21.0157 2.36497 0)
(-21.6191 6.02909 0)
(-21.8576 9.60521 0)
(-21.6612 12.9595 0)
(-20.9086 15.9011 0)
(-19.3768 18.1355 0)
(-17.0956 19.6454 0)
(-14.3361 20.5474 0)
(-10.9635 20.7848 0)
(-7.63747 20.6208 0)
(-3.6087 19.9215 0)
(-0.598769 18.9314 0)
(5.12723 15.9355 0)
(46.8565 -7.33039 0)
(44.2579 -7.66492 0)
(41.3729 -8.50842 0)
(38.3287 -9.99548 0)
(35.1556 -12.1408 0)
(31.8176 -14.8593 0)
(28.2442 -17.9982 0)
(24.3728 -21.3597 0)
(20.1864 -24.6999 0)
(15.7018 -27.7151 0)
(10.9708 -30.1725 0)
(6.02889 -31.9364 0)
(0.958446 -32.8725 0)
(-4.10371 -32.8774 0)
(-9.04934 -31.8897 0)
(-13.8249 -29.9885 0)
(-18.3715 -27.2188 0)
(-22.6319 -23.6209 0)
(-26.5177 -19.259 0)
(-30.0211 -14.309 0)
(-33.0945 -8.86686 0)
(-35.7025 -2.99622 0)
(-37.8231 3.19918 0)
(-39.4329 9.58853 0)
(-40.4915 16.0189 0)
(-40.914 22.2824 0)
(-40.4936 28.0545 0)
(-38.7782 32.7238 0)
(-35.2347 35.5736 0)
(-30.3511 36.8969 0)
(-24.3174 36.7136 0)
(-17.4569 35.1871 0)
(-10.1705 32.5939 0)
(-2.77189 29.1292 0)
(4.80561 24.9772 0)
(12.5905 19.9299 0)
(19.6938 14.3684 0)
(25.7996 9.51898 0)
(30.447 5.51101 0)
(33.5557 2.43671 0)
(35.2465 0.304018 0)
(35.5564 -1.05688 0)
(35.0034 -2.04491 0)
(33.8965 -3.03582 0)
(32.3829 -4.22931 0)
(30.5732 -5.72333 0)
(28.5225 -7.56101 0)
(26.2439 -9.72958 0)
(23.7226 -12.1655 0)
(20.933 -14.7644 0)
(17.8629 -17.3899 0)
(14.532 -19.8743 0)
(10.9775 -22.0026 0)
(7.26706 -23.6557 0)
(3.42665 -24.7189 0)
(-0.465801 -25.1163 0)
(-4.31088 -24.8098 0)
(-8.04631 -23.7857 0)
(-11.6438 -22.1141 0)
(-15.0505 -19.8269 0)
(-18.1976 -16.9569 0)
(-21.0641 -13.5984 0)
(-23.6288 -9.83444 0)
(-25.869 -5.72575 0)
(-27.762 -1.3334 0)
(-29.276 3.24617 0)
(-30.3599 7.89366 0)
(-30.9277 12.4542 0)
(-30.8254 16.6988 0)
(-29.7757 20.2632 0)
(-27.4603 22.7479 0)
(-24.2045 24.3071 0)
(-20.1257 24.9577 0)
(-15.4276 24.7717 0)
(-10.3494 23.8674 0)
(-5.12947 22.3634 0)
(0.106342 20.335 0)
(5.43106 17.8319 0)
(10.5907 14.7445 0)
(15.2292 11.6506 0)
(19.1361 8.90649 0)
(22.1393 6.53391 0)
(24.2459 4.56023 0)
(25.5272 2.94695 0)
(26.0654 1.58741 0)
(25.981 0.335545 0)
(25.4839 -0.967738 0)
(24.6249 -2.41452 0)
(23.4582 -4.0335 0)
(22.013 -5.82203 0)
(20.2983 -7.75088 0)
(18.3121 -9.7701 0)
(16.0519 -11.8193 0)
(13.5302 -13.8268 0)
(10.7908 -15.6814 0)
(7.89732 -17.2132 0)
(4.91734 -18.3153 0)
(1.87883 -18.9187 0)
(-1.165 -18.9936 0)
(-4.14522 -18.5459 0)
(-7.01667 -17.5863 0)
(-9.74303 -16.1395 0)
(-12.2915 -14.2472 0)
(-14.6346 -11.9654 0)
(-16.7501 -9.36121 0)
(-18.6141 -6.49348 0)
(-20.2027 -3.40829 0)
(-21.4921 -0.163993 0)
(-22.4468 3.15743 0)
(-23.0087 6.45358 0)
(-23.0842 9.58127 0)
(-22.5253 12.3269 0)
(-21.0988 14.4289 0)
(-19.0239 15.9498 0)
(-16.318 16.8949 0)
(-13.173 17.3177 0)
(-9.56361 17.2349 0)
(-6.09774 16.9309 0)
(-1.94094 16.1114 0)
(1.16047 14.9865 0)
(6.73039 12.3156 0)
(43.0268 -4.77098 0)
(40.3474 -4.86022 0)
(37.6053 -5.58054 0)
(34.835 -6.98573 0)
(31.9994 -9.0181 0)
(29.0143 -11.5461 0)
(25.7792 -14.4082 0)
(22.2127 -17.4395 0)
(18.2815 -20.4512 0)
(14.0095 -23.1991 0)
(9.43812 -25.4109 0)
(4.63882 -26.9892 0)
(-0.295554 -27.8576 0)
(-5.2589 -27.8752 0)
(-10.1785 -27.0097 0)
(-14.9764 -25.2993 0)
(-19.5656 -22.7712 0)
(-23.8829 -19.4868 0)
(-27.8713 -15.5312 0)
(-31.4815 -10.9935 0)
(-34.6782 -5.96632 0)
(-37.4235 -0.552294 0)
(-39.669 5.14088 0)
(-41.3459 10.986 0)
(-42.3277 16.7875 0)
(-42.3436 22.1753 0)
(-40.8186 26.4939 0)
(-37.4763 29.3132 0)
(-32.7036 30.777 0)
(-26.6871 30.8938 0)
(-19.7757 29.8109 0)
(-12.4313 27.7785 0)
(-4.99813 25.0015 0)
(2.68951 21.6346 0)
(10.5926 17.2242 0)
(17.8009 12.3773 0)
(23.9533 8.20579 0)
(28.6035 4.81068 0)
(31.71 2.30865 0)
(33.4164 0.722118 0)
(33.818 -0.119829 0)
(33.4222 -0.588995 0)
(32.5453 -1.03218 0)
(31.3288 -1.65637 0)
(29.8756 -2.57503 0)
(28.2338 -3.84819 0)
(26.4107 -5.48105 0)
(24.3848 -7.42914 0)
(22.1182 -9.61331 0)
(19.57 -11.9326 0)
(16.7108 -14.2697 0)
(13.5406 -16.4918 0)
(10.1022 -18.4423 0)
(6.45937 -19.9282 0)
(2.67895 -20.872 0)
(-1.17705 -21.2379 0)
(-5.02341 -20.9686 0)
(-8.81001 -20.0487 0)
(-12.4977 -18.5313 0)
(-16.018 -16.4653 0)
(-19.2947 -13.889 0)
(-22.2786 -10.8417 0)
(-24.9513 -7.38223 0)
(-27.2931 -3.59245 0)
(-29.2561 0.431199 0)
(-30.7603 4.57935 0)
(-31.6915 8.70509 0)
(-31.8687 12.5512 0)
(-30.9175 15.7295 0)
(-28.773 18.0472 0)
(-25.6514 19.5609 0)
(-21.6775 20.2807 0)
(-17.0592 20.2823 0)
(-12.0548 19.6848 0)
(-6.92102 18.5978 0)
(-1.77423 17.0983 0)
(3.50208 15.1548 0)
(8.60417 12.5428 0)
(13.2129 9.99077 0)
(17.0811 7.7486 0)
(20.0796 5.85611 0)
(22.234 4.3532 0)
(23.6263 3.20168 0)
(24.3801 2.29884 0)
(24.5509 1.51052 0)
(24.3637 0.691455 0)
(23.8686 -0.274831 0)
(23.1014 -1.43085 0)
(22.081 -2.78268 0)
(20.8078 -4.31138 0)
(19.2723 -5.97604 0)
(17.4613 -7.72297 0)
(15.3638 -9.49661 0)
(12.9804 -11.2427 0)
(10.3384 -12.8875 0)
(7.50247 -14.304 0)
(4.54866 -15.323 0)
(1.52281 -15.8654 0)
(-1.54337 -15.938 0)
(-4.59016 -15.5456 0)
(-7.55592 -14.6981 0)
(-10.3915 -13.4148 0)
(-13.0533 -11.7286 0)
(-15.5032 -9.68318 0)
(-17.7088 -7.32933 0)
(-19.6391 -4.72266 0)
(-21.2569 -1.92853 0)
(-22.5112 0.975663 0)
(-23.3319 3.89218 0)
(-23.6164 6.66637 0)
(-23.1505 9.07963 0)
(-21.888 10.9947 0)
(-19.9657 12.4173 0)
(-17.4398 13.3354 0)
(-14.4078 13.7784 0)
(-11.0446 13.8313 0)
(-7.42348 13.5777 0)
(-3.99829 13.2035 0)
(0.0610672 12.2824 0)
(3.06341 11.1493 0)
(8.08503 8.95995 0)
(37.3509 -2.17664 0)
(34.9919 -2.25227 0)
(32.7168 -2.99941 0)
(30.478 -4.39394 0)
(28.1766 -6.3303 0)
(25.6852 -8.65547 0)
(22.8813 -11.2103 0)
(19.6829 -13.8648 0)
(16.0654 -16.4932 0)
(12.0525 -18.8974 0)
(7.68374 -20.8172 0)
(3.02809 -22.1698 0)
(-1.73145 -22.9901 0)
(-6.50903 -22.9908 0)
(-11.3186 -22.1455 0)
(-16.0809 -20.5817 0)
(-20.6674 -18.2898 0)
(-25.0163 -15.2956 0)
(-29.0779 -11.6735 0)
(-32.7939 -7.51487 0)
(-36.1014 -2.9207 0)
(-38.913 2.00207 0)
(-41.0981 7.13412 0)
(-42.4621 12.2748 0)
(-42.6962 17.0045 0)
(-41.1 20.6923 0)
(-37.861 23.2289 0)
(-33.1271 24.5928 0)
(-27.1541 24.7899 0)
(-20.3335 23.9818 0)
(-13.1561 22.3838 0)
(-5.94526 20.257 0)
(1.59499 17.629 0)
(9.2282 13.7739 0)
(16.128 9.76824 0)
(21.8717 6.37666 0)
(26.111 3.67563 0)
(28.867 1.7852 0)
(30.3232 0.722079 0)
(30.6114 0.317241 0)
(30.28 0.250054 0)
(29.5794 0.226324 0)
(28.6484 0.056926 0)
(27.5739 -0.374537 0)
(26.3873 -1.14052 0)
(25.0816 -2.26359 0)
(23.6224 -3.71846 0)
(21.9567 -5.44381 0)
(20.0278 -7.35577 0)
(17.789 -9.35951 0)
(15.2106 -11.3547 0)
(12.2829 -13.243 0)
(9.02886 -14.925 0)
(5.51112 -16.2405 0)
(1.80093 -17.0485 0)
(-1.99442 -17.4229 0)
(-5.78952 -17.2008 0)
(-9.57827 -16.3007 0)
(-13.3284 -14.8829 0)
(-16.9259 -13.0142 0)
(-20.2714 -10.708 0)
(-23.3071 -7.96554 0)
(-26.0042 -4.82993 0)
(-28.3088 -1.41117 0)
(-30.1112 2.15426 0)
(-31.2565 5.69813 0)
(-31.5475 8.97301 0)
(-30.5523 11.6361 0)
(-28.5423 13.6524 0)
(-25.5492 14.984 0)
(-21.7267 15.6433 0)
(-17.2966 15.7172 0)
(-12.5314 15.3289 0)
(-7.69472 14.5793 0)
(-2.88064 13.5408 0)
(2.08021 12.1031 0)
(6.85136 9.99281 0)
(11.1317 7.99735 0)
(14.6763 6.26413 0)
(17.4075 4.83631 0)
(19.3801 3.75292 0)
(20.6889 2.98205 0)
(21.4599 2.43814 0)
(21.8104 2.01317 0)
(21.849 1.58067 0)
(21.6812 1.02788 0)
(21.3134 0.297013 0)
(20.746 -0.628193 0)
(19.9635 -1.74109 0)
(18.9421 -3.0151 0)
(17.6571 -4.40756 0)
(16.0874 -5.8667 0)
(14.2175 -7.34221 0)
(12.0435 -8.79647 0)
(9.58044 -10.1917 0)
(6.87489 -11.4341 0)
(4.0017 -12.3562 0)
(1.02 -12.818 0)
(-2.02357 -12.873 0)
(-5.07512 -12.525 0)
(-8.06338 -11.7754 0)
(-10.93 -10.6367 0)
(-13.6226 -9.13731 0)
(-16.0895 -7.3191 0)
(-18.2792 -5.23471 0)
(-20.1357 -2.94586 0)
(-21.5932 -0.52723 0)
(-22.5697 1.9184 0)
(-22.9596 4.24097 0)
(-22.5196 6.24962 0)
(-21.408 7.88991 0)
(-19.6526 9.13772 0)
(-17.3292 9.97009 0)
(-14.5365 10.3957 0)
(-11.4163 10.4886 0)
(-8.13418 10.3478 0)
(-4.79104 10.0618 0)
(-1.61138 9.68299 0)
(2.05371 8.68707 0)
(4.71411 7.70778 0)
(8.80147 6.11496 0)
(30.2199 -0.00562701 0)
(28.5603 -0.234053 0)
(27.0335 -1.07298 0)
(25.516 -2.44888 0)
(23.8613 -4.22758 0)
(21.9302 -6.2537 0)
(19.6101 -8.40037 0)
(16.8352 -10.6025 0)
(13.5958 -12.8091 0)
(9.9395 -14.8291 0)
(5.81871 -16.372 0)
(1.43211 -17.5668 0)
(-2.88499 -18.3747 0)
(-7.98042 -18.2707 0)
(-12.5923 -17.4393 0)
(-17.2926 -15.9806 0)
(-21.8245 -13.8534 0)
(-26.1378 -11.0814 0)
(-30.1786 -7.74736 0)
(-33.8455 -3.95146 0)
(-37.0008 0.185795 0)
(-39.4341 4.48961 0)
(-40.856 8.70948 0)
(-40.8217 12.4881 0)
(-39.0007 15.4148 0)
(-35.6742 17.4247 0)
(-30.9322 18.4804 0)
(-25.0856 18.619 0)
(-18.5788 17.9853 0)
(-11.9164 16.7869 0)
(-5.2675 15.2954 0)
(1.79696 13.2645 0)
(8.64412 10.0047 0)
(14.6877 6.95995 0)
(19.4918 4.44257 0)
(22.87 2.49627 0)
(24.927 1.22871 0)
(25.8566 0.632409 0)
(25.8823 0.5422 0)
(25.526 0.716007 0)
(24.9405 0.936009 0)
(24.2562 1.05764 0)
(23.5405 0.974528 0)
(22.8077 0.608527 0)
(22.0356 -0.0780707 0)
(21.1758 -1.07998 0)
(20.1609 -2.35486 0)
(18.9171 -3.83533 0)
(17.3817 -5.44769 0)
(15.5131 -7.12275 0)
(13.2853 -8.78111 0)
(10.6777 -10.3219 0)
(7.68893 -11.6869 0)
(4.34913 -12.7721 0)
(0.737764 -13.3937 0)
(-2.59411 -13.6076 0)
(-6.82014 -13.3266 0)
(-10.3671 -12.5051 0)
(-14.0828 -11.212 0)
(-17.6909 -9.53434 0)
(-20.963 -7.49397 0)
(-23.7886 -5.07121 0)
(-26.1512 -2.33912 0)
(-27.9922 0.53774 0)
(-29.137 3.36985 0)
(-29.2597 5.92877 0)
(-28.2474 8.01959 0)
(-26.2996 9.61261 0)
(-23.4715 10.6822 0)
(-19.913 11.2224 0)
(-15.8508 11.3086 0)
(-11.5539 11.0742 0)
(-7.27237 10.6232 0)
(-3.05424 9.99574 0)
(1.2914 8.97663 0)
(5.41424 7.39752 0)
(9.04405 5.96389 0)
(11.9868 4.73906 0)
(14.2168 3.75354 0)
(15.8136 3.03862 0)
(16.881 2.56832 0)
(17.5377 2.27808 0)
(17.906 2.08839 0)
(18.0637 1.90633 0)
(18.1087 1.64334 0)
(18.0526 1.23662 0)
(17.8793 0.662683 0)
(17.559 -0.0807779 0)
(17.0518 -0.980121 0)
(16.3163 -2.00818 0)
(15.317 -3.12713 0)
(14.0276 -4.29226 0)
(12.4314 -5.45958 0)
(10.5243 -6.60019 0)
(8.31814 -7.70415 0)
(5.84232 -8.72274 0)
(3.14895 -9.49357 0)
(0.315986 -9.83437 0)
(-2.58657 -9.83894 0)
(-5.51122 -9.51088 0)
(-8.38229 -8.8455 0)
(-11.1278 -7.85388 0)
(-13.6756 -6.56406 0)
(-15.9498 -5.01821 0)
(-17.8748 -3.27255 0)
(-19.3741 -1.39681 0)
(-20.369 0.507432 0)
(-20.7381 2.30168 0)
(-20.3562 3.85675 0)
(-19.378 5.15518 0)
(-17.8258 6.18352 0)
(-15.7784 6.90252 0)
(-13.3441 7.30385 0)
(-10.6373 7.4252 0)
(-7.80178 7.36036 0)
(-4.97137 7.19873 0)
(-2.1757 6.96677 0)
(0.54888 6.56523 0)
(3.48639 5.68226 0)
(5.54071 4.95629 0)
(8.46882 3.96556 0)
(22.29 1.35929 0)
(21.5436 0.942699 0)
(20.8845 0.0550467 0)
(20.1511 -1.21462 0)
(19.1923 -2.75008 0)
(17.8754 -4.42678 0)
(16.0878 -6.14364 0)
(13.7592 -7.85789 0)
(10.892 -9.55382 0)
(7.51822 -11.1678 0)
(3.07016 -12.532 0)
(0.583916 -13.2995 0)
(-5.14243 -13.557 0)
(-9.54124 -13.3504 0)
(-13.9667 -12.6641 0)
(-18.4169 -11.3431 0)
(-22.6288 -9.39977 0)
(-26.5747 -6.90222 0)
(-30.1573 -3.94395 0)
(-33.1876 -0.656912 0)
(-35.4248 2.71234 0)
(-36.5007 5.73642 0)
(-35.7651 8.32837 0)
(-33.6396 10.5027 0)
(-30.1946 11.9153 0)
(-25.5978 12.589 0)
(-20.1934 12.6473 0)
(-14.4556 12.2222 0)
(-8.7734 11.5068 0)
(-3.02699 10.6436 0)
(2.98684 8.87433 0)
(8.42718 6.50301 0)
(12.9957 4.49318 0)
(16.3681 2.86924 0)
(18.5418 1.66875 0)
(19.6957 0.960154 0)
(19.9708 0.701615 0)
(19.791 0.772642 0)
(19.393 1.01509 0)
(18.9208 1.29705 0)
(18.4676 1.52796 0)
(18.075 1.62036 0)
(17.7438 1.5009 0)
(17.4407 1.12682 0)
(17.1084 0.488848 0)
(16.673 -0.390938 0)
(16.0551 -1.46434 0)
(15.1815 -2.67281 0)
(13.9947 -3.96068 0)
(12.4699 -5.27373 0)
(10.6196 -6.51855 0)
(8.42691 -7.59319 0)
(5.82976 -8.52197 0)
(2.77656 -9.30425 0)
(-0.587915 -9.80546 0)
(-3.99702 -10.0366 0)
(-7.37164 -9.75365 0)
(-10.7785 -8.83715 0)
(-14.211 -7.47544 0)
(-17.4287 -6.08444 0)
(-20.1512 -4.68127 0)
(-22.2798 -2.87064 0)
(-23.8467 -0.641261 0)
(-24.7458 1.54661 0)
(-24.583 3.38724 0)
(-23.5646 4.8732 0)
(-21.7445 6.02975 0)
(-19.2351 6.83235 0)
(-16.1911 7.26498 0)
(-12.8039 7.37443 0)
(-9.29718 7.27628 0)
(-5.87339 7.08603 0)
(-2.52701 6.81508 0)
(0.889509 6.14878 0)
(4.03633 5.10146 0)
(6.74331 4.21071 0)
(8.87903 3.455 0)
(10.4647 2.85229 0)
(11.5895 2.42823 0)
(12.35 2.16675 0)
(12.8472 2.02692 0)
(13.1754 1.95764 0)
(13.4095 1.90211 0)
(13.5957 1.79806 0)
(13.7356 1.5916 0)
(13.8228 1.25734 0)
(13.8297 0.791081 0)
(13.7171 0.20268 0)
(13.4411 -0.491424 0)
(12.9594 -1.27064 0)
(12.2374 -2.10858 0)
(11.2503 -2.9743 0)
(9.98243 -3.83608 0)
(8.42833 -4.67223 0)
(6.59341 -5.48534 0)
(4.48293 -6.26413 0)
(2.11183 -6.85742 0)
(-0.4095 -7.08199 0)
(-2.99678 -7.03658 0)
(-5.59706 -6.72672 0)
(-8.11693 -6.15504 0)
(-10.4684 -5.33925 0)
(-12.5682 -4.31253 0)
(-14.3327 -3.11933 0)
(-15.6833 -1.81248 0)
(-16.5583 -0.47005 0)
(-16.8498 0.803036 0)
(-16.5404 1.92685 0)
(-15.7455 2.89256 0)
(-14.4986 3.68771 0)
(-12.8736 4.28118 0)
(-10.9599 4.65953 0)
(-8.85726 4.83729 0)
(-6.66411 4.8558 0)
(-4.48264 4.7951 0)
(-2.3748 4.71316 0)
(-0.272094 4.53594 0)
(1.74326 4.12651 0)
(3.74752 3.52438 0)
(5.06882 3.0924 0)
(6.93023 2.55102 0)
(14.4866 1.71016 0)
(14.5292 1.16518 0)
(14.5442 0.313536 0)
(14.3869 -0.763891 0)
(13.9453 -1.96679 0)
(13.127 -3.16514 0)
(11.8479 -4.27768 0)
(10.0611 -5.32899 0)
(7.78333 -6.3846 0)
(4.95169 -7.54225 0)
(1.48984 -8.57851 0)
(-2.47266 -9.07782 0)
(-6.42769 -9.13914 0)
(-10.3753 -9.091 0)
(-14.3395 -8.59165 0)
(-18.109 -7.46451 0)
(-21.4965 -5.7621 0)
(-24.3954 -3.55865 0)
(-26.6285 -1.12973 0)
(-27.9508 1.20719 0)
(-27.888 3.26711 0)
(-26.0048 5.05078 0)
(-25.0534 6.11711 0)
(-21.5163 6.88782 0)
(-17.6326 7.31718 0)
(-13.3609 7.39802 0)
(-9.03136 7.28564 0)
(-4.82176 7.11069 0)
(-0.455978 6.58193 0)
(3.67171 5.22121 0)
(7.20498 3.94742 0)
(9.92287 2.94193 0)
(11.7236 2.10976 0)
(12.7237 1.49075 0)
(13.0515 1.13261 0)
(12.9759 1.01907 0)
(12.7116 1.07587 0)
(12.386 1.22925 0)
(12.0994 1.43413 0)
(11.9089 1.63927 0)
(11.8314 1.77787 0)
(11.8545 1.78457 0)
(11.9411 1.61579 0)
(12.0329 1.2527 0)
(12.0599 0.699201 0)
(11.9504 -0.0177824 0)
(11.6341 -0.852706 0)
(11.0482 -1.75962 0)
(10.148 -2.70087 0)
(8.91889 -3.6569 0)
(7.2461 -4.71638 0)
(5.2233 -5.53181 0)
(3.26645 -6.16967 0)
(1.24584 -6.59394 0)
(-1.01336 -6.76675 0)
(-3.69089 -6.67228 0)
(-7.12947 -6.3048 0)
(-10.1464 -5.6615 0)
(-12.3426 -4.75424 0)