/*--------------------------------*- C++ -*----------------------------------*\
| =========                 |                                                 |
| \\      /  F ield         | OpenFOAM: The Open Source CFD Toolbox           |
|  \\    /   O peration     | Version:  2206                                  |
|   \\  /    A nd           | Website:  www.openfoam.com                      |
|    \\/     M anipulation  |                                                 |
\*---------------------------------------------------------------------------*/
FoamFile
{
    version     2.0;
    format      ascii;
    arch        "LSB;label=32;scalar=64";
    class       surfaceScalarField;
    location    "19.5999";
    object      ddtCorrDdt0(phi);
}
// * * * * * * * * * * * * * * * * * * * * * * * * * * * * * * * * * * * * * //

dimensions      [0 3 -2 0 0 0 0];

oriented        oriented;

internalField   nonuniform List<scalar> 
3528
(
4.12607e-13
3.56682e-11
-3.5003e-11
-3.58642e-12
8.91325e-11
-8.62064e-11
-1.22734e-11
2.48343e-10
-2.40505e-10
-3.26841e-11
4.42633e-10
-4.2643e-10
-6.37827e-11
6.66429e-10
-6.38436e-10
-1.0915e-10
9.21227e-10
-8.81268e-10
-1.67248e-10
1.20254e-09
-1.14821e-09
-2.41772e-10
1.49617e-09
-1.4273e-09
-3.30429e-10
1.79207e-09
-1.70726e-09
-4.3412e-10
2.08079e-09
-1.98082e-09
-5.50029e-10
2.35814e-09
-2.24207e-09
-6.80905e-10
2.61831e-09
-2.488e-09
-8.24255e-10
2.85719e-09
-2.71471e-09
-9.7976e-10
3.0746e-09
-2.92082e-09
-1.14453e-09
3.26981e-09
-3.10672e-09
-1.31862e-09
3.44815e-09
-3.27537e-09
-1.50074e-09
3.61415e-09
-3.43304e-09
-1.69136e-09
3.77591e-09
-3.58724e-09
-1.88785e-09
3.94321e-09
-3.74685e-09
-2.09376e-09
4.12767e-09
-3.92248e-09
-2.30812e-09
4.3399e-09
-4.12593e-09
-2.53354e-09
4.59312e-09
-4.36832e-09
-2.77045e-09
4.89903e-09
-4.66238e-09
-3.02297e-09
5.2708e-09
-5.0191e-09
-3.29304e-09
5.72e-09
-5.45048e-09
-3.58615e-09
6.25817e-09
-5.96602e-09
-3.90557e-09
6.89485e-09
-6.5763e-09
-4.25625e-09
7.6384e-09
-7.28891e-09
-4.64453e-09
8.49882e-09
-8.1103e-09
-5.08076e-09
9.48718e-09
-9.05135e-09
-5.56269e-09
1.06005e-08
-1.01187e-08
-6.10689e-09
1.18541e-08
-1.13098e-08
-6.71171e-09
1.32456e-08
-1.26407e-08
-7.39109e-09
1.47866e-08
-1.41067e-08
-8.15029e-09
1.64843e-08
-1.57233e-08
-8.99968e-09
1.83445e-08
-1.74953e-08
-9.94784e-09
2.03813e-08
-1.9433e-08
-1.09962e-08
2.25969e-08
-2.15496e-08
-1.21669e-08
2.50196e-08
-2.3848e-08
-1.3457e-08
2.76541e-08
-2.63653e-08
-1.48861e-08
3.05295e-08
-2.91005e-08
-1.64564e-08
3.36661e-08
-3.20961e-08
-1.81817e-08
3.70859e-08
-3.53584e-08
-2.00837e-08
4.08349e-08
-3.89315e-08
-2.21595e-08
4.49256e-08
-4.28483e-08
-2.44535e-08
4.9426e-08
-4.71324e-08
-2.69421e-08
5.43471e-08
-5.18559e-08
-2.96954e-08
5.97819e-08
-5.70274e-08
-3.2683e-08
6.57474e-08
-6.27554e-08
-3.59649e-08
7.23278e-08
-6.90434e-08
-3.95517e-08
7.95843e-08
-7.59958e-08
-4.34647e-08
8.75647e-08
-8.36498e-08
-4.7776e-08
9.63829e-08
-9.20714e-08
-5.24733e-08
1.06073e-07
-1.01376e-07
-5.76713e-08
1.16789e-07
-1.11593e-07
-6.33264e-08
1.28554e-07
-1.22901e-07
-6.95937e-08
1.41566e-07
-1.353e-07
-7.64336e-08
1.55866e-07
-1.49027e-07
-8.39783e-08
1.71606e-07
-1.64062e-07
-9.23466e-08
1.89023e-07
-1.80657e-07
-1.01443e-07
2.08024e-07
-1.98926e-07
-1.11675e-07
2.29198e-07
-2.18966e-07
-1.228e-07
2.52265e-07
-2.41137e-07
-1.35228e-07
2.77744e-07
-2.65314e-07
-1.491e-07
3.05916e-07
-2.92045e-07
-1.64203e-07
3.36265e-07
-3.21163e-07
-1.81378e-07
3.70157e-07
-3.52981e-07
-1.99895e-07
4.06605e-07
-3.88085e-07
-2.19691e-07
4.46743e-07
-4.26941e-07
-2.4234e-07
4.91777e-07
-4.69123e-07
-2.65518e-07
5.41926e-07
-5.18748e-07
-2.92869e-07
5.9533e-07
-5.67977e-07
-3.22754e-07
6.55278e-07
-6.25387e-07
-3.55679e-07
7.21179e-07
-6.88247e-07
-3.91845e-07
7.93635e-07
-7.57454e-07
-4.31695e-07
8.73439e-07
-8.33575e-07
-4.75762e-07
9.6125e-07
-9.17164e-07
-5.24645e-07
1.05789e-06
-1.00899e-06
-5.78939e-07
1.16432e-06
-1.11001e-06
-6.39337e-07
1.28166e-06
-1.22126e-06
-7.06619e-07
1.41118e-06
-1.34391e-06
-7.81639e-07
1.55428e-06
-1.47926e-06
-8.65333e-07
1.71254e-06
-1.62884e-06
-9.58645e-07
1.88777e-06
-1.79445e-06
-1.06255e-06
2.08192e-06
-1.978e-06
-1.17822e-06
2.29712e-06
-2.18143e-06
-1.30703e-06
2.53571e-06
-2.40689e-06
-1.45054e-06
2.80039e-06
-2.65687e-06
-1.61042e-06
3.09427e-06
-2.93437e-06
-1.78825e-06
3.42113e-06
-3.24327e-06
-1.9854e-06
3.78497e-06
-3.58775e-06
-2.20321e-06
4.1907e-06
-3.97284e-06
-2.44237e-06
4.64384e-06
-4.4046e-06
-2.7023e-06
5.15114e-06
-4.89114e-06
-2.98059e-06
5.72096e-06
-5.44261e-06
-3.26607e-06
6.36338e-06
-6.07787e-06
-3.54668e-06
7.09051e-06
-6.8099e-06
-3.7823e-06
7.92636e-06
-7.69073e-06
-3.96864e-06
8.9122e-06
-8.72586e-06
-3.72853e-06
1.01045e-05
-1.03446e-05
-3.05769e-06
1.15193e-05
-1.21901e-05
1.40682e-05
-1.71259e-05
5.30991e-13
3.41686e-11
-1.94582e-12
9.14309e-11
-8.40026e-12
2.53536e-10
-2.23865e-11
4.56061e-10
-4.69949e-11
6.89893e-10
-8.21232e-11
9.55605e-10
-1.2886e-10
1.24802e-09
-1.87388e-10
1.55378e-09
-2.58533e-10
1.86133e-09
-3.40079e-10
2.16262e-09
-4.33038e-10
2.45113e-09
-5.36788e-10
2.72108e-09
-6.50201e-10
2.96991e-09
-7.73389e-10
3.19492e-09
-9.02511e-10
3.39859e-09
-1.03948e-09
3.58422e-09
-1.18191e-09
3.75715e-09
-1.33127e-09
3.92524e-09
-1.48544e-09
4.09936e-09
-1.64801e-09
4.28969e-09
-1.81632e-09
4.50882e-09
-1.99372e-09
4.7698e-09
-2.17899e-09
5.08532e-09
-2.37741e-09
5.46924e-09
-2.58911e-09
5.933e-09
-2.81977e-09
6.4888e-09
-3.07056e-09
7.14654e-09
-3.34658e-09
7.91469e-09
-3.65333e-09
8.80691e-09
-3.99504e-09
9.8284e-09
-4.37486e-09
1.09809e-08
-4.80358e-09
1.22822e-08
-5.28027e-09
1.37224e-08
-5.81636e-09
1.53245e-08
-6.41477e-09
1.70836e-08
-7.08437e-09
1.9015e-08
-7.82934e-09
2.11258e-08
-8.65764e-09
2.34264e-08
-9.57884e-09
2.59413e-08
-1.05928e-08
2.86687e-08
-1.1721e-08
3.1657e-08
-1.29514e-08
3.48971e-08
-1.43153e-08
3.84497e-08
-1.58034e-08
4.2324e-08
-1.74441e-08
4.65645e-08
-1.92378e-08
5.12204e-08
-2.12043e-08
5.63136e-08
-2.33619e-08
6.19414e-08
-2.57101e-08
6.8096e-08
-2.83004e-08
7.49177e-08
-3.11069e-08
8.23915e-08
-3.42048e-08
9.06609e-08
-3.75777e-08
9.97562e-08
-4.1293e-08
1.09786e-07
-4.5361e-08
1.20854e-07
-4.98212e-08
1.33013e-07
-5.47403e-08
1.46485e-07
-6.00952e-08
1.61223e-07
-6.60759e-08
1.77586e-07
-7.25218e-08
1.95471e-07
-7.9768e-08
2.1527e-07
-8.763e-08
2.37062e-07
-9.63271e-08
2.60964e-07
-1.06109e-07
2.87526e-07
-1.16712e-07
3.16518e-07
-1.29057e-07
3.48613e-07
-1.42499e-07
3.836e-07
-1.57655e-07
4.21761e-07
-1.73168e-07
4.62258e-07
-1.90946e-07
5.09553e-07
-2.1051e-07
5.61491e-07
-2.31707e-07
6.1653e-07
-2.55131e-07
6.78704e-07
-2.80944e-07
7.46997e-07
-3.09447e-07
8.22139e-07
-3.40929e-07
9.04923e-07
-3.75785e-07
9.96106e-07
-4.14456e-07
1.09656e-06
-4.57426e-07
1.20729e-06
-5.05248e-07
1.32948e-06
-5.58498e-07
1.46443e-06
-6.17812e-07
1.6136e-06
-6.83898e-07
1.77863e-06
-7.5749e-07
1.96137e-06
-8.39397e-07
2.16383e-06
-9.30541e-07
2.38826e-06
-1.03195e-06
2.63712e-06
-1.14472e-06
2.91318e-06
-1.27004e-06
3.2196e-06
-1.40877e-06
3.55987e-06
-1.5617e-06
3.9379e-06
-1.72902e-06
4.35804e-06
-1.91023e-06
4.82505e-06
-2.10315e-06
5.34405e-06
-2.30359e-06
5.92141e-06
-2.5e-06
6.55979e-06
-2.67714e-06
7.26765e-06
-2.79927e-06
8.0485e-06
-2.79847e-06
8.91142e-06
-2.52004e-06
9.82612e-06
-1.74106e-06
1.07403e-05
1.23271e-05
7.80047e-13
3.29554e-11
-1.15006e-12
9.41957e-11
-5.7965e-12
2.58573e-10
-1.4671e-11
4.67627e-10
-3.22037e-11
7.08743e-10
-5.64758e-11
9.83256e-10
-9.03666e-11
1.28327e-09
-1.31965e-10
1.59784e-09
-1.83412e-10
1.91358e-09
-2.4201e-10
2.22349e-09
-3.09669e-10
2.51921e-09
-3.84461e-10
2.79665e-09
-4.67403e-10
3.05158e-09
-5.55566e-10
3.28288e-09
-6.4902e-10
3.49255e-09
-7.47402e-10
3.6835e-09
-8.5058e-10
3.86087e-09
-9.56935e-10
4.03439e-09
-1.06902e-09
4.2119e-09
-1.185e-09
4.40675e-09
-1.30718e-09
4.63009e-09
-1.43379e-09
4.89669e-09
-1.56748e-09
5.21926e-09
-1.70895e-09
5.61201e-09
-1.8618e-09
6.08635e-09
-2.02678e-09
6.65482e-09
-2.20764e-09
7.32774e-09
-2.40477e-09
8.11329e-09
-2.62683e-09
9.02887e-09
-2.87016e-09
1.00726e-08
-3.14649e-09
1.12564e-08
-3.45348e-09
1.25888e-08
-3.79662e-09
1.40656e-08
-4.1834e-09
1.57123e-08
-4.61357e-09
1.75141e-08
-5.09622e-09
1.94985e-08
-5.63371e-09
2.16628e-08
-6.22982e-09
2.40235e-08
-6.89253e-09
2.66042e-08
-7.62235e-09
2.93995e-08
-8.43673e-09
3.24701e-08
-9.31935e-09
3.5779e-08
-1.03067e-08
3.94373e-08
-1.13728e-08
4.33884e-08
-1.25604e-08
4.77513e-08
-1.38469e-08
5.25054e-08
-1.52649e-08
5.7731e-08
-1.68156e-08
6.34907e-08
-1.8508e-08
6.97876e-08
-2.03694e-08
7.6777e-08
-2.23915e-08
8.44129e-08
-2.46213e-08
9.28891e-08
-2.70513e-08
1.02187e-07
-2.97197e-08
1.1245e-07
-3.26589e-08
1.23792e-07
-3.58473e-08
1.362e-07
-3.94133e-08
1.50053e-07
-4.32315e-08
1.6504e-07
-4.75523e-08
1.81909e-07
-5.21473e-08
2.00065e-07
-5.73497e-08
2.20472e-07
-6.29033e-08
2.42615e-07
-6.91256e-08
2.67184e-07
-7.58577e-08
2.94256e-07
-8.33234e-08
3.23983e-07
-9.18481e-08
3.57137e-07
-1.01564e-07
3.93314e-07
-1.13472e-07
4.33669e-07
-1.25922e-07
4.74703e-07
-1.38657e-07
5.22287e-07
-1.51729e-07
5.74563e-07
-1.67433e-07
6.32236e-07
-1.84558e-07
6.95827e-07
-2.03398e-07
7.65834e-07
-2.2417e-07
8.42898e-07
-2.47037e-07
9.27783e-07
-2.7228e-07
1.02133e-06
-3.00201e-07
1.12447e-06
-3.31193e-07
1.23826e-06
-3.65646e-07
1.36392e-06
-4.03998e-07
1.50277e-06
-4.46709e-07
1.65631e-06
-4.94312e-07
1.82622e-06
-5.47324e-07
2.01438e-06
-6.06352e-07
2.22284e-06
-6.72e-07
2.45391e-06
-7.44958e-07
2.71008e-06
-8.25931e-07
2.99416e-06
-9.15661e-07
3.30933e-06
-1.01458e-06
3.65878e-06
-1.12304e-06
4.04633e-06
-1.24082e-06
4.47579e-06
-1.36695e-06
4.95113e-06
-1.49901e-06
5.47609e-06
-1.63138e-06
6.05374e-06
-1.75709e-06
6.68549e-06
-1.86235e-06
7.37289e-06
-1.92323e-06
8.10939e-06
-1.8906e-06
8.8788e-06
-1.71134e-06
9.64688e-06
-1.25608e-06
1.02851e-05
1.1071e-05
1.43887e-12
-9.74003e-13
-1.36826e-12
2.62465e-10
-6.51943e-12
4.74762e-10
-1.58257e-11
7.22161e-10
-3.13524e-11
1.00098e-09
-5.08659e-11
1.30664e-09
-7.65615e-11
1.62523e-09
-1.06764e-10
1.9467e-09
-1.42809e-10
2.26088e-09
-1.83224e-10
2.56196e-09
-2.2929e-10
2.84327e-09
-2.79183e-10
3.10211e-09
-3.32233e-10
3.33744e-09
-3.88584e-10
3.54994e-09
-4.47741e-10
3.7435e-09
-5.09283e-10
3.92412e-09
-5.73784e-10
4.09923e-09
-6.40482e-10
4.27978e-09
-7.10907e-10
4.47614e-09
-7.83874e-10
4.70258e-09
-8.59906e-10
4.97235e-09
-9.39889e-10
5.29953e-09
-1.02533e-09
5.6971e-09
-1.11675e-09
6.17801e-09
-1.21623e-09
6.75392e-09
-1.3243e-09
7.43617e-09
-1.44702e-09
8.23568e-09
-1.5753e-09
9.15801e-09
-1.71602e-09
1.02123e-08
-1.88699e-09
1.14267e-08
-2.06967e-09
1.27708e-08
-2.27657e-09
1.4272e-08
-2.5079e-09
1.59431e-08
-2.76424e-09
1.77714e-08
-3.05777e-09
1.97908e-08
-3.37694e-09
2.19818e-08
-3.73719e-09
2.43835e-08
-4.13601e-09
2.70043e-08
-4.57475e-09
2.98365e-08
-5.06619e-09
3.29602e-08
-5.59402e-09
3.63064e-08
-6.1957e-09
4.00372e-08
-6.828e-09
4.40201e-08
-7.55334e-09
4.84738e-08
-8.31627e-09
5.32671e-08
-9.18095e-09
5.85921e-08
-1.01087e-08
6.44174e-08
-1.11287e-08
7.08039e-08
-1.22541e-08
7.79013e-08
-1.34661e-08
8.56213e-08
-1.48096e-08
9.42344e-08
-1.62808e-08
1.03653e-07
-1.78651e-08
1.14035e-07
-1.96685e-08
1.25592e-07
-2.15414e-08
1.38074e-07
-2.3743e-08
1.52251e-07
-2.59693e-08
1.67268e-07
-2.86569e-08
1.84592e-07
-3.12874e-08
2.02695e-07
-3.45649e-08
2.23746e-07
-3.76984e-08
2.45743e-07
-4.15168e-08
2.70998e-07
-4.53612e-08
2.98098e-07
-4.94964e-08
3.28115e-07
-5.39478e-08
3.61586e-07
-5.8688e-08
3.98052e-07
-6.43272e-08
4.393e-07
-7.65491e-08
4.86921e-07
-8.46122e-08
5.30345e-07
-9.26213e-08
5.8257e-07
-1.01972e-07
6.41584e-07
-1.12351e-07
7.06205e-07
-1.23895e-07
7.77363e-07
-1.36566e-07
8.55563e-07
-1.50447e-07
9.41644e-07
-1.65714e-07
1.03659e-06
-1.82623e-07
1.14136e-06
-2.01407e-07
1.25704e-06
-2.22296e-07
1.3848e-06
-2.45469e-07
1.52594e-06
-2.71219e-07
1.68205e-06
-2.99805e-07
1.8548e-06
-3.3156e-07
2.0461e-06
-3.66832e-07
2.2581e-06
-4.06031e-07
2.49309e-06
-4.49575e-07
2.75362e-06
-4.97944e-07
3.04252e-06
-5.51444e-07
3.36282e-06
-6.10392e-07
3.71768e-06
-6.74772e-07
4.11068e-06
-7.44315e-07
4.54526e-06
-8.1809e-07
5.02487e-06
-8.94556e-07
5.55249e-06
-9.70556e-07
6.12972e-06
-1.04275e-06
6.75765e-06
-1.10305e-06
7.43318e-06
-1.13993e-06
8.14626e-06
-1.13528e-06
8.87416e-06
-1.06059e-06
9.57218e-06
-9.96228e-07
1.02207e-05
1.00748e-05
3.34417e-12
4.18604e-12
1.21455e-12
-3.93905e-12
-1.12043e-11
-1.96668e-11
-3.02973e-11
-4.23537e-11
-5.6616e-11
-7.18618e-11
-8.84737e-11
-1.05847e-10
-1.23698e-10
-1.43044e-10
-1.63021e-10
-1.83705e-10
-2.05746e-10
-2.28346e-10
-2.52511e-10
-2.77673e-10
-3.04119e-10
-3.31647e-10
-3.6114e-10
-3.92987e-10
-4.27717e-10
-4.68217e-10
-5.14329e-10
-5.72452e-10
-6.13882e-10
-6.56638e-10
-7.39344e-10
-7.93499e-10
-8.96553e-10
-9.73362e-10
-1.08679e-09
-1.20941e-09
-1.32132e-09
-1.49776e-09
-1.61768e-09
-1.84198e-09
-1.99152e-09
-2.23755e-09
-2.46117e-09
-2.6994e-09
-3.03539e-09
-3.25924e-09
-3.7129e-09
-3.95267e-09
-4.47782e-09
-4.83313e-09
-5.34461e-09
-5.92302e-09
-6.37728e-09
-7.21624e-09
-7.67167e-09
-8.70009e-09
-9.32661e-09
-1.03771e-08
-1.14344e-08
-1.22882e-08
-1.40521e-08
-1.44833e-08
-1.6979e-08
-1.69914e-08
-1.90505e-08
-1.79747e-08
-1.71872e-08
-2.29555e-08
-2.97159e-08
-3.5303e-08
-4.00976e-08
-4.45549e-08
-4.90235e-08
-5.36319e-08
-5.84834e-08
-6.37385e-08
-6.95347e-08
-7.6062e-08
-8.33645e-08
-9.15867e-08
-1.00825e-07
-1.11201e-07
-1.22814e-07
-1.358e-07
-1.50301e-07
-1.66443e-07
-1.84322e-07
-2.04102e-07
-2.25679e-07
-2.48832e-07
-2.73171e-07
-2.98013e-07
-3.22711e-07
-3.45115e-07
-3.63508e-07
-3.73506e-07
-3.67852e-07
-3.12433e-07
-1.34371e-07
-1.32195e-11
1.31161e-11
-2.92726e-11
1.59949e-11
-9.35289e-11
6.40508e-11
-1.59673e-10
6.60862e-11
-2.58434e-10
9.85377e-11
-3.98106e-10
1.39634e-10
-5.63599e-10
1.65259e-10
-7.78889e-10
2.15354e-10
-1.02781e-09
2.48724e-10
-1.31842e-09
2.90749e-10
-1.65304e-09
3.34369e-10
-2.00249e-09
3.49632e-10
-2.3661e-09
3.63409e-10
-2.75107e-09
3.85153e-10
-3.15661e-09
4.05207e-10
-3.57461e-09
4.18126e-10
-4.00778e-09
4.32899e-10
-4.45808e-09
4.50588e-10
-4.92946e-09
4.71139e-10
-5.42904e-09
4.99871e-10
-5.96845e-09
5.39078e-10
-6.55777e-09
5.89622e-10
-7.20881e-09
6.50791e-10
-7.95364e-09
7.45105e-10
-8.78088e-09
8.26832e-10
-9.72022e-09
9.39439e-10
-1.07899e-08
1.06926e-09
-1.20027e-08
1.21299e-09
-1.33349e-08
1.33177e-09
-1.47886e-08
1.45379e-09
-1.63947e-08
1.60572e-09
-1.81738e-08
1.77937e-09
-2.01456e-08
1.97144e-09
-2.23266e-08
2.18126e-09
-2.47398e-08
2.41269e-09
-2.74037e-08
2.66423e-09
-3.03567e-08
2.95271e-09
-3.3505e-08
3.14861e-09
-3.69288e-08
3.42336e-09
-4.07268e-08
3.79844e-09
-4.49748e-08
4.2476e-09
-4.97322e-08
4.75767e-09
-5.50389e-08
5.30616e-09
-6.09424e-08
5.90386e-09
-6.74685e-08
6.52549e-09
-7.46244e-08
7.15615e-09
-8.24616e-08
7.83662e-09
-9.11219e-08
8.66039e-09
-1.00476e-07
9.35324e-09
-1.10717e-07
1.02415e-08
-1.21972e-07
1.12539e-08
-1.34375e-07
1.2403e-08
-1.48156e-07
1.37796e-08
-1.63422e-07
1.52658e-08
-1.80362e-07
1.6939e-08
-1.99047e-07
1.86847e-08
-2.19668e-07
2.06204e-08
-2.42502e-07
2.28329e-08
-2.67684e-07
2.51812e-08
-2.95711e-07
2.80262e-08
-3.26441e-07
3.07295e-08
-3.60021e-07
3.35785e-08
-3.95904e-07
3.5882e-08
-4.3546e-07
3.95552e-08
-4.79403e-07
4.39427e-08
-5.28226e-07
4.88219e-08
-5.82251e-07
5.40243e-08
-6.44347e-07
6.20951e-08
-7.17188e-07
7.28397e-08
-7.94035e-07
7.68455e-08
-8.76803e-07
8.27678e-08
-9.61439e-07
8.46335e-08
-1.05139e-06
8.9946e-08
-1.14775e-06
9.63577e-08
-1.26264e-06
1.14888e-07
-1.38812e-06
1.25478e-07
-1.52353e-06
1.35407e-07
-1.67429e-06
1.50756e-07
-1.83951e-06
1.65227e-07
-2.02162e-06
1.82103e-07
-2.21896e-06
1.97342e-07
-2.43237e-06
2.13397e-07
-2.66297e-06
2.306e-07
-2.91185e-06
2.48879e-07
-3.1801e-06
2.68249e-07
-3.46837e-06
2.88264e-07
-3.77928e-06
3.10914e-07
-4.11975e-06
3.40464e-07
-4.49512e-06
3.75367e-07
-4.90512e-06
4.10002e-07
-5.34902e-06
4.43895e-07
-5.82357e-06
4.74549e-07
-6.34208e-06
5.18514e-07
-6.92426e-06
5.82176e-07
-7.52671e-06
6.0245e-07
-8.10312e-06
5.76409e-07
-8.67755e-06
5.74433e-07
-9.27166e-06
5.94106e-07
-9.86907e-06
5.97404e-07
-1.04467e-05
5.77614e-07
-1.09766e-05
5.29957e-07
4.4283e-07
-1.14195e-05
-3.31335e-12
1.62801e-11
-1.32095e-11
2.57769e-11
-5.71748e-11
1.07889e-10
-1.3906e-10
1.47862e-10
-2.39222e-10
1.98577e-10
-3.64065e-10
2.64377e-10
-5.13205e-10
3.1429e-10
-6.93912e-10
3.9605e-10
-8.97342e-10
4.52127e-10
-1.15798e-09
5.5138e-10
-1.46181e-09
6.38151e-10
-1.75154e-09
6.39397e-10
-2.07072e-09
6.82543e-10
-2.42369e-09
7.38083e-10
-2.80436e-09
7.85772e-10
-3.1987e-09
8.1241e-10
-3.61493e-09
8.4905e-10
-4.05346e-09
8.89212e-10
-4.51544e-09
9.33138e-10
-5.00869e-09
9.93147e-10
-5.53911e-09
1.06944e-09
-6.11095e-09
1.16158e-09
-6.71138e-09
1.2512e-09
-7.42576e-09
1.45945e-09
-8.17105e-09
1.57193e-09
-9.00582e-09
1.77411e-09
-9.92607e-09
1.98931e-09
-1.09824e-08
2.26926e-09
-1.21423e-08
2.49145e-09
-1.34185e-08
2.72995e-09
-1.48466e-08
3.03359e-09
-1.64441e-08
3.37687e-09
-1.82316e-08
3.75882e-09
-2.02292e-08
4.17883e-09
-2.24652e-08
4.64859e-09
-2.49536e-08
5.15272e-09
-2.78148e-08
5.81392e-09
-3.08394e-08
6.17326e-09
-3.41599e-08
6.74371e-09
-3.77884e-08
7.42708e-09
-4.18098e-08
8.26887e-09
-4.63174e-08
9.26522e-09
-5.13403e-08
1.03289e-08
-5.68733e-08
1.14369e-08
-6.29867e-08
1.26388e-08
-6.9773e-08
1.39424e-08
-7.73117e-08
1.5375e-08
-8.56102e-08
1.69587e-08
-9.47892e-08
1.85319e-08
-1.04881e-07
2.03333e-08
-1.15926e-07
2.22976e-08
-1.28054e-07
2.45306e-08
-1.41386e-07
2.71116e-08
-1.5615e-07
3.00295e-08
-1.72402e-07
3.31897e-08
-1.90433e-07
3.67152e-08
-2.10252e-07
4.04384e-08
-2.31884e-07
4.44645e-08
-2.56451e-07
4.97479e-08
-2.83682e-07
5.52566e-08
-3.14636e-07
6.16823e-08
-3.48834e-07
6.77755e-08
-3.83743e-07
7.07909e-08
-4.22147e-07
7.79583e-08
-4.6563e-07
8.74255e-08
-5.13618e-07
9.68087e-08
-5.66726e-07
1.07132e-07
-6.19326e-07
1.14694e-07
-6.77924e-07
1.31436e-07
-7.4603e-07
1.44951e-07
-8.20647e-07
1.57383e-07
-9.05199e-07
1.69185e-07
-1.00513e-06
1.89877e-07
-1.11852e-06
2.09746e-07
-1.23311e-06
2.29472e-07
-1.35861e-06
2.50978e-07
-1.4988e-06
2.756e-07
-1.65061e-06
3.02556e-07
-1.81592e-06
3.30536e-07
-1.99377e-06
3.59953e-07
-2.18713e-06
3.90695e-07
-2.39766e-06
4.23925e-07
-2.62685e-06
4.59789e-07
-2.876e-06
4.98026e-07
-3.14617e-06
5.38423e-07
-3.4392e-06
5.81288e-07
-3.75802e-06
6.29728e-07
-4.10929e-06
6.91735e-07
-4.493e-06
7.59079e-07
-4.90815e-06
8.25144e-07
-5.34415e-06
8.79897e-07
-5.78933e-06
9.19729e-07
-6.24632e-06
9.75499e-07
-6.73606e-06
1.07192e-06
-7.25194e-06
1.11834e-06
-7.8207e-06
1.14517e-06
-8.46804e-06
1.22177e-06
-9.15745e-06
1.28352e-06
-9.87295e-06
1.31291e-06
-1.05954e-05
1.3001e-06
-1.12947e-05
1.22919e-06
1.08336e-06
-1.19352e-05
2.84262e-12
1.34718e-11
-1.69473e-11
4.55662e-11
-3.20647e-11
1.22947e-10
-7.04817e-11
1.86243e-10
-1.45681e-10
2.73712e-10
-2.48271e-10
3.66919e-10
-4.01515e-10
4.67499e-10
-5.7323e-10
5.67803e-10
-7.31757e-10
6.10659e-10
-9.29606e-10
7.49279e-10
-1.14408e-09
8.52613e-10
-1.48155e-09
9.76914e-10
-1.86053e-09
1.06148e-09
-2.24021e-09
1.11774e-09
-2.62517e-09
1.1706e-09
-3.0214e-09
1.2086e-09
-3.42973e-09
1.2574e-09
-3.85349e-09
1.31306e-09
-4.29095e-09
1.37055e-09
-4.74216e-09
1.44441e-09
-5.2063e-09
1.53368e-09
-5.69977e-09
1.65512e-09
-6.22923e-09
1.78058e-09
-6.80436e-09
2.03448e-09
-7.43822e-09
2.20567e-09
-8.13068e-09
2.46641e-09
-8.92176e-09
2.78019e-09
-9.79877e-09
3.1461e-09
-1.07325e-08
3.42509e-09
-1.17876e-08
3.78484e-09
-1.29858e-08
4.23168e-09
-1.43376e-08
4.72857e-09
-1.58585e-08
5.27957e-09
-1.75641e-08
5.88446e-09
-1.94751e-08
6.55956e-09
-2.16073e-08
7.28502e-09
-2.39836e-08
8.19021e-09
-2.66097e-08
8.79937e-09
-2.9619e-08
9.75293e-09
-3.2832e-08
1.06401e-08
-3.62989e-08
1.17357e-08
-4.02252e-08
1.31915e-08
-4.45835e-08
1.46871e-08
-4.93747e-08
1.6228e-08
-5.46588e-08
1.79229e-08
-6.0518e-08
1.98014e-08
-6.69645e-08
2.18212e-08
-7.40857e-08
2.40797e-08
-8.20499e-08
2.64956e-08
-9.07506e-08
2.90336e-08
-1.00238e-07
3.17842e-08
-1.10671e-07
3.49633e-08
-1.22157e-07
3.85971e-08
-1.34779e-07
4.2652e-08
-1.48728e-07
4.71373e-08
-1.64087e-07
5.20738e-08
-1.81121e-07
5.7472e-08
-1.99941e-07
6.32837e-08
-2.20759e-07
7.05657e-08
-2.43672e-07
7.81683e-08
-2.68969e-07
8.69787e-08
-2.97064e-07
9.58703e-08
-3.2804e-07
1.01766e-07
-3.62011e-07
1.1193e-07
-3.99117e-07
1.24531e-07
-4.40101e-07
1.37792e-07
-4.84558e-07
1.51588e-07
-5.33699e-07
1.63834e-07
-5.88888e-07
1.86624e-07
-6.50508e-07
2.06571e-07
-7.20287e-07
2.27161e-07
-8.03392e-07
2.52289e-07
-8.54633e-07
2.41117e-07
-9.5284e-07
3.07951e-07
-1.05293e-06
3.29562e-07
-1.16167e-06
3.59715e-07
-1.27875e-06
3.92672e-07
-1.40573e-06
4.29539e-07
-1.54536e-06
4.70165e-07
-1.69862e-06
5.13205e-07
-1.86738e-06
5.59453e-07
-2.05378e-06
6.10329e-07
-2.25935e-06
6.65354e-07
-2.48559e-06
7.2426e-07
-2.73222e-06
7.85051e-07
-2.99761e-06
8.46684e-07
-3.28332e-06
9.15437e-07
-3.59099e-06
9.994e-07
-3.91631e-06
1.08439e-06
-4.26931e-06
1.17814e-06
-4.6366e-06
1.24719e-06
-5.03918e-06
1.32231e-06
-5.52063e-06
1.45695e-06
-6.01058e-06
1.56187e-06
-6.58815e-06
1.6959e-06
-7.29929e-06
1.85631e-06
-8.04024e-06
1.96272e-06
-8.80921e-06
2.05249e-06
-9.6142e-06
2.1179e-06
-1.04517e-05
2.13755e-06
-1.13e-05
2.07749e-06
1.90816e-06
-1.21248e-05
-4.98274e-12
1.84953e-11
-9.27455e-12
4.99054e-11
-2.77024e-11
1.41427e-10
-7.1093e-11
2.29653e-10
-1.35168e-10
3.37809e-10
-2.28907e-10
4.60658e-10
-3.45369e-10
5.84009e-10
-4.99941e-10
7.22415e-10
-6.84336e-10
7.95151e-10
-9.27308e-10
9.92321e-10
-1.17976e-09
1.10513e-09
-1.42728e-09
1.22448e-09
-1.70366e-09
1.33788e-09
-2.01562e-09
1.4296e-09
-2.35486e-09
1.50978e-09
-2.72829e-09
1.58205e-09
-3.12182e-09
1.65099e-09
-3.53471e-09
1.7259e-09
-3.96083e-09
1.79668e-09
-4.40748e-09
1.89118e-09
-4.87617e-09
2.00248e-09
-5.36492e-09
2.14386e-09
-5.89703e-09
2.31259e-09
-6.40511e-09
2.54246e-09
-6.98175e-09
2.78216e-09
-7.59924e-09
3.08371e-09
-8.22132e-09
3.40203e-09
-8.88679e-09
3.81141e-09
-9.78256e-09
4.32067e-09
-1.08573e-08
4.85947e-09
-1.20319e-08
5.40618e-09
-1.33403e-08
6.03676e-09
-1.47861e-08
6.72534e-09
-1.63816e-08
7.47995e-09
-1.81503e-08
8.32837e-09
-2.00791e-08
9.21383e-09
-2.21514e-08
1.02626e-08
-2.46099e-08
1.12577e-08
-2.73772e-08
1.25202e-08
-3.02211e-08
1.34839e-08
-3.33273e-08
1.48419e-08
-3.67192e-08
1.65833e-08
-4.04456e-08
1.84134e-08
-4.45953e-08
2.03777e-08
-4.90383e-08
2.23657e-08
-5.41207e-08
2.48837e-08
-5.96324e-08
2.73326e-08
-6.60235e-08
3.04704e-08
-7.31054e-08
3.35771e-08
-8.03986e-08
3.63266e-08
-8.83896e-08
3.9775e-08
-9.73402e-08
4.39135e-08
-1.07276e-07
4.85331e-08
-1.18262e-07
5.36368e-08
-1.30408e-07
5.9283e-08
-1.43838e-07
6.55038e-08
-1.58854e-07
7.24874e-08
-1.75654e-07
8.00833e-08
-1.93494e-07
8.84044e-08
-2.12969e-07
9.76425e-08
-2.33794e-07
1.07804e-07
-2.56346e-07
1.18421e-07
-2.83814e-07
1.29234e-07
-3.13896e-07
1.42011e-07
-3.45828e-07
1.56463e-07
-3.80568e-07
1.72531e-07
-4.19449e-07
1.90469e-07
-4.65269e-07
2.09653e-07
-5.10992e-07
2.32347e-07
-5.60636e-07
2.56214e-07
-6.14781e-07
2.81305e-07
-6.7022e-07
3.07727e-07
-7.61615e-07
3.32511e-07
-8.276e-07
3.73935e-07
-9.05554e-07
4.07515e-07
-9.9061e-07
4.44769e-07
-1.08584e-06
4.87898e-07
-1.19218e-06
5.35881e-07
-1.30879e-06
5.86767e-07
-1.43647e-06
6.4089e-07
-1.57803e-06
7.01012e-07
-1.73571e-06
7.68005e-07
-1.91158e-06
8.41215e-07
-2.10784e-06
9.2052e-07
-2.32301e-06
1.00022e-06
-2.55488e-06
1.07855e-06
-2.81381e-06
1.17436e-06
-3.0894e-06
1.27499e-06
-3.38625e-06
1.38124e-06
-3.7019e-06
1.4938e-06
-4.10844e-06
1.65372e-06
-4.62066e-06
1.83454e-06
-5.14583e-06
1.98212e-06
-5.72234e-06
2.13838e-06
-6.33786e-06
2.31143e-06
-6.98554e-06
2.50398e-06
-7.71579e-06
2.69297e-06
-8.52298e-06
2.85968e-06
-9.39885e-06
2.99377e-06
-1.03433e-05
3.08204e-06
-1.13315e-05
3.06565e-06
2.9142e-06
-1.23375e-05
-2.86334e-13
1.9043e-11
-1.09022e-11
6.07341e-11
-2.88834e-11
1.59527e-10
-7.17115e-11
2.72592e-10
-1.33579e-10
3.99729e-10
-2.20428e-10
5.47619e-10
-3.33673e-10
6.97313e-10
-4.70112e-10
8.5901e-10
-6.84629e-10
1.00985e-09
-8.77315e-10
1.18516e-09
-1.1073e-09
1.33527e-09
-1.35918e-09
1.47646e-09
-1.63344e-09
1.61211e-09
-1.93349e-09
1.72961e-09
-2.25587e-09
1.83213e-09
-2.59939e-09
1.92561e-09
-2.96288e-09
2.01442e-09
-3.3421e-09
2.10513e-09
-3.74551e-09
2.20013e-09
-4.16549e-09
2.31128e-09
-4.60676e-09
2.44381e-09
-5.06828e-09
2.60535e-09
-5.55994e-09
2.80415e-09
-6.06751e-09
3.04989e-09
-6.61901e-09
3.33353e-09
-7.20977e-09
3.67426e-09
-7.88315e-09
4.0752e-09
-8.61201e-09
4.54004e-09
-9.37953e-09
5.08806e-09
-1.02182e-08
5.69797e-09
-1.11953e-08
6.38318e-09
-1.22915e-08
7.13286e-09
-1.35122e-08
7.94608e-09
-1.4903e-08
8.87088e-09
-1.64215e-08
9.84693e-09
-1.81557e-08
1.09481e-08
-2.00234e-08
1.21302e-08
-2.21543e-08
1.33885e-08
-2.44477e-08
1.48135e-08
-2.717e-08
1.62061e-08
-3.02755e-08
1.79475e-08
-3.34673e-08
1.9775e-08
-3.69745e-08
2.19206e-08
-4.0712e-08
2.41151e-08
-4.49331e-08
2.65867e-08
-4.94226e-08
2.9373e-08
-5.42436e-08
3.21531e-08
-5.90216e-08
3.52482e-08
-6.42774e-08
3.88329e-08
-7.1409e-08
4.34579e-08
-7.98511e-08
4.8217e-08
-8.90948e-08
5.31571e-08
-9.9091e-08
5.85287e-08
-1.09955e-07
6.45007e-08
-1.21735e-07
7.10626e-08
-1.3437e-07
7.81381e-08
-1.48493e-07
8.66105e-08
-1.63991e-07
9.55807e-08
-1.80136e-07
1.04549e-07
-1.97734e-07
1.1524e-07
-2.17055e-07
1.27124e-07
-2.38348e-07
1.39715e-07
-2.62543e-07
1.53428e-07
-2.88828e-07
1.68295e-07
-3.18137e-07
1.85771e-07
-3.50321e-07
2.04714e-07
-3.84816e-07
2.24963e-07
-4.22603e-07
2.4744e-07
-4.62852e-07
2.72595e-07
-5.07278e-07
3.00641e-07
-5.56686e-07
3.30712e-07
-6.11223e-07
3.62263e-07
-6.76829e-07
3.98116e-07
-7.38517e-07
4.35622e-07
-8.08809e-07
4.77806e-07
-8.87525e-07
5.23485e-07
-9.73508e-07
5.73881e-07
-1.06588e-06
6.28255e-07
-1.16819e-06
6.89074e-07
-1.28348e-06
7.56171e-07
-1.413e-06
8.30538e-07
-1.55713e-06
9.1213e-07
-1.71318e-06
9.9726e-07
-1.87765e-06
1.08499e-06
-2.06336e-06
1.18594e-06
-2.293e-06
1.30818e-06
-2.55069e-06
1.43206e-06
-2.83418e-06
1.55848e-06
-3.1549e-06
1.70196e-06
-3.52189e-06
1.86078e-06
-3.90826e-06
2.04009e-06
-4.31671e-06
2.243e-06
-4.79128e-06
2.45669e-06
-5.33073e-06
2.67783e-06
-5.93638e-06
2.91708e-06
-6.61151e-06
3.17911e-06
-7.37058e-06
3.45204e-06
-8.23116e-06
3.72026e-06
-9.19703e-06
3.95964e-06
-1.02875e-05
4.17248e-06
-1.1455e-05
4.23319e-06
4.17213e-06
-1.2713e-05
-7.30744e-13
1.99847e-11
-1.09608e-11
7.11627e-11
-2.9905e-11
1.78669e-10
-6.62588e-11
3.09024e-10
-1.24739e-10
4.58345e-10
-2.05256e-10
6.28148e-10
-3.13866e-10
8.06078e-10
-4.52517e-10
9.97869e-10
-6.27185e-10
1.1847e-09
-8.14119e-10
1.37234e-09
-1.032e-09
1.55332e-09
-1.27549e-09
1.71999e-09
-1.54003e-09
1.87671e-09
-1.82637e-09
2.01587e-09
-2.13254e-09
2.13833e-09
-2.45674e-09
2.24966e-09
-2.79779e-09
2.35548e-09
-3.15432e-09
2.46156e-09
-3.52806e-09
2.57397e-09
-3.91778e-09
2.70101e-09
-4.32516e-09
2.85129e-09
-4.75325e-09
3.03332e-09
-5.20445e-09
3.25528e-09
-5.68054e-09
3.52582e-09
-6.19606e-09
3.8489e-09
-6.75391e-09
4.23184e-09
-7.36238e-09
4.68343e-09
-8.03251e-09
5.20997e-09
-8.76502e-09
5.82045e-09
-9.56936e-09
6.50211e-09
-1.04594e-08
7.27326e-09
-1.14587e-08
8.1321e-09
-1.25852e-08
9.07285e-09
-1.38365e-08
1.01223e-08
-1.52451e-08
1.12558e-08
-1.68116e-08
1.25146e-08
-1.85538e-08
1.38724e-08
-2.05164e-08
1.53509e-08
-2.26734e-08
1.69705e-08
-2.51676e-08
1.87004e-08
-2.78712e-08
2.0651e-08
-3.08618e-08
2.27658e-08
-3.41036e-08
2.51623e-08
-3.77175e-08
2.77286e-08
-4.16708e-08
3.05397e-08
-4.5933e-08
3.36349e-08
-5.07473e-08
3.69674e-08
-5.61972e-08
4.06982e-08
-6.21745e-08
4.481e-08
-6.82664e-08
4.955e-08
-7.48643e-08
5.48149e-08
-8.22064e-08
6.04983e-08
-9.03754e-08
6.66977e-08
-9.93797e-08
7.35048e-08
-1.09327e-07
8.10098e-08
-1.20132e-07
8.89428e-08
-1.3209e-07
9.85683e-08
-1.45525e-07
1.09015e-07
-1.60311e-07
1.19334e-07
-1.76343e-07
1.31271e-07
-1.93708e-07
1.44487e-07
-2.12994e-07
1.59e-07
-2.34334e-07
1.74768e-07
-2.58107e-07
1.92067e-07
-2.83738e-07
2.11401e-07
-3.11797e-07
2.32772e-07
-3.42936e-07
2.56102e-07
-3.77166e-07
2.81669e-07
-4.1463e-07
3.1006e-07
-4.55288e-07
3.41298e-07
-5.00384e-07
3.75808e-07
-5.43118e-07
4.04997e-07
-5.9495e-07
4.49948e-07
-6.55735e-07
4.96408e-07
-7.26486e-07
5.48557e-07
-8.0637e-07
6.03369e-07
-8.94733e-07
6.62243e-07
-9.92672e-07
7.26192e-07
-1.09903e-06
7.9543e-07
-1.21495e-06
8.72093e-07
-1.33798e-06
9.53558e-07
-1.46613e-06
1.04028e-06
-1.60712e-06
1.13824e-06
-1.77161e-06
1.24948e-06
-1.95957e-06
1.37389e-06
-2.16284e-06
1.51145e-06
-2.39105e-06
1.66028e-06
-2.65179e-06
1.81922e-06
-2.94363e-06
1.99381e-06
-3.27113e-06
2.18829e-06
-3.63675e-06
2.40572e-06
-4.04328e-06
2.64953e-06
-4.50246e-06
2.91587e-06
-5.02668e-06
3.20206e-06
-5.62487e-06
3.51526e-06
-6.30444e-06
3.85869e-06
-7.08218e-06
4.22978e-06
-7.9783e-06
4.61637e-06
-9.0193e-06
5.00065e-06
-1.02544e-05
5.40763e-06
-1.16156e-05
5.59435e-06
5.85694e-06
-1.33004e-05
-4.59513e-13
2.0821e-11
-9.67689e-12
8.06993e-11
-2.89109e-11
1.98053e-10
-6.12436e-11
3.41548e-10
-1.15929e-10
5.1308e-10
-1.88688e-10
7.01078e-10
-2.89288e-10
9.06933e-10
-4.14728e-10
1.12346e-09
-5.69627e-10
1.33991e-09
-7.49161e-10
1.55214e-09
-9.53891e-10
1.75817e-09
-1.18238e-09
1.94869e-09
-1.42816e-09
2.12245e-09
-1.69231e-09
2.28013e-09
-1.97591e-09
2.42183e-09
-2.27645e-09
2.55022e-09
-2.59254e-09
2.67138e-09
-2.9224e-09
2.79149e-09
-3.26677e-09
2.91835e-09
-3.62547e-09
3.05985e-09
-4.00044e-09
3.22614e-09
-4.39319e-09
3.42605e-09
-4.80755e-09
3.6695e-09
-5.24671e-09
3.9649e-09
-5.71852e-09
4.32047e-09
-6.22975e-09
4.74287e-09
-6.78781e-09
5.24128e-09
-7.40026e-09
5.82232e-09
-8.07184e-09
6.49184e-09
-8.82055e-09
7.25082e-09
-9.65435e-09
8.10709e-09
-1.0582e-08
9.05987e-09
-1.16275e-08
1.01186e-08
-1.27911e-08
1.12861e-08
-1.41006e-08
1.25653e-08
-1.55568e-08
1.39708e-08
-1.71835e-08
1.5499e-08
-1.90019e-08
1.71692e-08
-2.10158e-08
1.89844e-08
-2.32797e-08
2.09641e-08
-2.57645e-08
2.31361e-08
-2.8521e-08
2.55221e-08
-3.1514e-08
2.81544e-08
-3.48012e-08
3.10161e-08
-3.84191e-08
3.41574e-08
-4.23735e-08
3.75892e-08
-4.67723e-08
4.13663e-08
-5.1599e-08
4.55248e-08
-5.69156e-08
5.01271e-08
-6.26567e-08
5.52912e-08
-6.88703e-08
6.10268e-08
-7.5675e-08