/*--------------------------------*- C++ -*----------------------------------*\
| =========                 |                                                 |
| \\      /  F ield         | OpenFOAM: The Open Source CFD Toolbox           |
|  \\    /   O peration     | Version:  2206                                  |
|   \\  /    A nd           | Website:  www.openfoam.com                      |
|    \\/     M anipulation  |                                                 |
\*---------------------------------------------------------------------------*/
FoamFile
{
    version     2.0;
    format      ascii;
    arch        "LSB;label=32;scalar=64";
    class       volVectorField;
    location    "19.2999";
    object      U_0;
}
// * * * * * * * * * * * * * * * * * * * * * * * * * * * * * * * * * * * * * //

dimensions      [0 1 -1 0 0 0 0];

internalField   nonuniform List<vector> 
1878
(
(0.919108 -0.241047 0)
(0.996182 -0.324117 0)
(1.03314 -0.388248 0)
(1.03571 -0.42114 0)
(1.01042 -0.435377 0)
(0.962279 -0.421173 0)
(0.906074 -0.373265 0)
(0.862821 -0.294793 0)
(0.85037 -0.192627 0)
(0.879634 -0.0780342 0)
(0.962108 0.0366483 0)
(1.0944 0.138737 0)
(1.2657 0.212823 0)
(1.46824 0.247127 0)
(1.69264 0.236468 0)
(1.93086 0.178097 0)
(2.18082 0.0664889 0)
(2.43461 -0.0976791 0)
(2.65847 -0.282816 0)
(2.82894 -0.451956 0)
(2.93966 -0.580013 0)
(2.99514 -0.664518 0)
(3.00844 -0.717276 0)
(2.98484 -0.74981 0)
(2.92871 -0.754433 0)
(2.84506 -0.733772 0)
(2.73965 -0.69446 0)
(2.61953 -0.64137 0)
(2.49048 -0.577694 0)
(2.35693 -0.507284 0)
(2.22557 -0.434938 0)
(2.10274 -0.361861 0)
(1.9915 -0.290791 0)
(1.88456 -0.234379 0)
(1.76733 -0.214247 0)
(1.63094 -0.241209 0)
(1.48123 -0.298403 0)
(1.34147 -0.350558 0)
(1.22662 -0.374287 0)
(1.14312 -0.360926 0)
(1.09696 -0.306903 0)
(1.08789 -0.221555 0)
(1.10799 -0.114688 0)
(1.15869 0.00295119 0)
(1.22509 0.119065 0)
(1.3025 0.224498 0)
(1.38652 0.315675 0)
(1.47315 0.390303 0)
(1.55982 0.44761 0)
(1.64506 0.488064 0)
(1.72872 0.512523 0)
(1.81191 0.521677 0)
(1.89557 0.515781 0)
(1.98104 0.494329 0)
(2.06949 0.455881 0)
(2.16136 0.398602 0)
(2.2574 0.319923 0)
(2.35886 0.217877 0)
(2.46552 0.093231 0)
(2.56714 -0.0405635 0)
(2.64972 -0.164021 0)
(2.70563 -0.266491 0)
(2.72916 -0.342717 0)
(2.73289 -0.391075 0)
(2.71195 -0.418601 0)
(2.65304 -0.415931 0)
(2.56711 -0.384142 0)
(2.45846 -0.331667 0)
(2.33753 -0.271415 0)
(2.2163 -0.217611 0)
(2.10036 -0.179712 0)
(1.99328 -0.162462 0)
(1.89747 -0.165517 0)
(1.81398 -0.183247 0)
(1.74208 -0.206696 0)
(1.68002 -0.22688 0)
(1.62615 -0.236882 0)
(1.57923 -0.23161 0)
(1.53988 -0.208196 0)
(1.50894 -0.167531 0)
(1.48699 -0.112552 0)
(1.47529 -0.0472017 0)
(1.47485 0.0240027 0)
(1.48589 0.0961206 0)
(1.50769 0.164395 0)
(1.53896 0.225362 0)
(1.57816 0.276263 0)
(1.6237 0.315222 0)
(1.67417 0.341148 0)
(1.7282 0.353664 0)
(1.78411 0.353075 0)
(1.84063 0.340165 0)
(1.89679 0.316023 0)
(1.95217 0.28197 0)
(2.00698 0.239063 0)
(2.06191 0.187565 0)
(2.11715 0.127841 0)
(2.17122 0.0614712 0)
(2.21921 -0.00657906 0)
(2.25679 -0.0712205 0)
(2.28135 -0.128252 0)
(2.29096 -0.175513 0)
(2.28182 -0.21212 0)
(2.25038 -0.231622 0)
(2.1983 -0.233333 0)
(2.13051 -0.221418 0)
(2.0556 -0.203412 0)
(1.98271 -0.186209 0)
(1.91602 -0.173473 0)
(1.85752 -0.166078 0)
(1.80768 -0.162996 0)
(1.76592 -0.162081 0)
(1.73116 -0.160707 0)
(1.70221 -0.15628 0)
(1.67817 -0.146526 0)
(1.65903 -0.130007 0)
(1.64492 -0.106292 0)
(1.63583 -0.0754677 0)
(1.63206 -0.0384248 0)
(1.63388 0.00325114 0)
(1.64147 0.0473896 0)
(1.65462 0.0911714 0)
(1.67268 0.131873 0)
(1.6949 0.16765 0)
(1.72048 0.197074 0)
(1.82699 -0.339919 0)
(1.86744 -0.389625 0)
(1.8819 -0.418202 0)
(1.87808 -0.4238 0)
(1.86458 -0.415525 0)
(1.84207 -0.383238 0)
(1.81546 -0.329874 0)
(1.79257 -0.261249 0)
(1.78158 -0.184446 0)
(1.79007 -0.106542 0)
(1.82238 -0.0359098 0)
(1.88868 0.0172138 0)
(1.99709 0.0438344 0)
(2.14299 0.0410831 0)
(2.31601 0.0074428 0)
(2.50387 -0.0622774 0)
(2.69188 -0.169866 0)
(2.86048 -0.301211 0)
(2.99287 -0.435289 0)
(3.07913 -0.55051 0)
(3.12313 -0.629011 0)
(3.13438 -0.672651 0)
(3.12073 -0.695164 0)
(3.07375 -0.692736 0)
(2.99419 -0.666477 0)
(2.88887 -0.623353 0)
(2.7637 -0.568649 0)
(2.62507 -0.505422 0)
(2.47909 -0.436276 0)
(2.33373 -0.36674 0)
(2.19475 -0.30147 0)
(2.06705 -0.241215 0)
(1.9566 -0.184937 0)
(1.86528 -0.1362 0)
(1.78321 -0.106851 0)
(1.69643 -0.111547 0)
(1.59366 -0.15069 0)
(1.47321 -0.206711 0)
(1.35104 -0.253807 0)
(1.24342 -0.274502 0)
(1.16197 -0.26188 0)
(1.11836 -0.214227 0)
(1.1088 -0.140097 0)
(1.12916 -0.0489179 0)
(1.18223 0.0486476 0)
(1.25072 0.143702 0)
(1.3289 0.229639 0)
(1.41246 0.301531 0)
(1.49942 0.357511 0)
(1.5885 0.397483 0)
(1.67928 0.421391 0)
(1.77191 0.429268 0)
(1.86675 0.421453 0)
(1.96466 0.397757 0)
(2.06618 0.357052 0)
(2.17213 0.297017 0)
(2.28496 0.213558 0)
(2.4058 0.10502 0)
(2.52259 -0.0170805 0)
(2.61919 -0.134012 0)
(2.68907 -0.230403 0)
(2.72642 -0.30169 0)
(2.73195 -0.350488 0)
(2.71321 -0.37371 0)
(2.65838 -0.366337 0)
(2.56019 -0.327304 0)
(2.43973 -0.269141 0)
(2.31024 -0.203634 0)
(2.18295 -0.142684 0)
(2.06394 -0.095021 0)
(1.95597 -0.0669344 0)
(1.8601 -0.0616497 0)
(1.77688 -0.0775537 0)
(1.70553 -0.107379 0)
(1.64344 -0.140932 0)
(1.58805 -0.169252 0)
(1.53801 -0.186151 0)
(1.4927 -0.187574 0)
(1.45298 -0.171432 0)
(1.42081 -0.139022 0)
(1.39712 -0.0934319 0)
(1.38337 -0.0387399 0)
(1.38068 0.0208487 0)
(1.38947 0.0813633 0)
(1.40931 0.138903 0)
(1.43925 0.19034 0)
(1.47819 0.233173 0)
(1.52485 0.265541 0)
(1.57758 0.286263 0)
(1.6348 0.295095 0)
(1.69504 0.292446 0)
(1.75701 0.278931 0)
(1.81998 0.255059 0)
(1.884 0.221234 0)
(1.94923 0.177796 0)
(2.01483 0.125369 0)
(2.07722 0.0665637 0)
(2.13028 0.00690554 0)
(2.16938 -0.048855 0)
(2.19188 -0.0977085 0)
(2.19586 -0.137772 0)
(2.1773 -0.165007 0)
(2.13632 -0.175892 0)
(2.07712 -0.172309 0)
(2.00727 -0.159234 0)
(1.93618 -0.14317 0)
(1.86981 -0.12916 0)
(1.81057 -0.119923 0)
(1.75915 -0.116189 0)
(1.71497 -0.117336 0)
(1.67679 -0.121698 0)
(1.64323 -0.126883 0)
(1.61311 -0.130356 0)
(1.58571 -0.129947 0)
(1.56096 -0.124066 0)
(1.53941 -0.111756 0)
(1.52198 -0.0927277 0)
(1.50936 -0.067127 0)
(1.50225 -0.0357964 0)
(1.50118 -0.000194107 0)
(1.50647 0.0377205 0)
(1.51811 0.075665 0)
(1.53557 0.111261 0)
(1.55814 0.142696 0)
(1.58501 0.16859 0)
(2.43492 -0.353052 0)
(2.41934 -0.386223 0)
(2.39182 -0.402563 0)
(2.35734 -0.403103 0)
(2.32199 -0.388377 0)
(2.28863 -0.357087 0)
(2.26299 -0.310287 0)
(2.25168 -0.252343 0)
(2.25932 -0.190022 0)
(2.28905 -0.130524 0)
(2.34243 -0.0805773 0)
(2.41848 -0.0486047 0)
(2.50676 -0.0424574 0)
(2.59677 -0.0655242 0)
(2.70369 -0.117774 0)
(2.81763 -0.195782 0)
(2.92291 -0.294026 0)
(3.01468 -0.405579 0)
(3.08952 -0.512383 0)
(3.1421 -0.592547 0)
(3.16311 -0.641065 0)
(3.16377 -0.659191 0)
(3.14065 -0.653247 0)
(3.07907 -0.618608 0)
(2.98625 -0.564189 0)
(2.86558 -0.498115 0)
(2.72318 -0.42608 0)
(2.56631 -0.351963 0)
(2.4061 -0.280944 0)
(2.25209 -0.217143 0)
(2.10893 -0.162265 0)
(1.98074 -0.117131 0)
(1.87262 -0.0815307 0)
(1.78917 -0.0556223 0)
(1.7284 -0.0424601 0)
(1.67977 -0.0481404 0)
(1.63492 -0.0725329 0)
(1.58407 -0.108472 0)
(1.5221 -0.145587 0)
(1.45098 -0.171576 0)
(1.37818 -0.177866 0)
(1.31129 -0.161518 0)
(1.26082 -0.123771 0)
(1.23678 -0.0684576 0)
(1.2423 0.00070092 0)
(1.26814 0.0769953 0)
(1.32051 0.150881 0)
(1.39035 0.21571 0)
(1.46908 0.267769 0)
(1.5555 0.305047 0)
(1.64818 0.326378 0)
(1.74703 0.331239 0)
(1.85252 0.319179 0)
(1.96454 0.289831 0)
(2.08204 0.241841 0)
(2.20417 0.171306 0)
(2.33099 0.0756456 0)
(2.45158 -0.0294782 0)
(2.55424 -0.127397 0)
(2.6226 -0.213067 0)
(2.64942 -0.278514 0)
(2.64852 -0.315891 0)
(2.60418 -0.326703 0)
(2.51547 -0.308883 0)
(2.40202 -0.262211 0)
(2.27674 -0.198687 0)
(2.15221 -0.132371 0)
(2.03546 -0.0713313 0)
(1.9308 -0.0213879 0)
(1.84047 0.0124492 0)
(1.76379 0.0266446 0)
(1.69852 0.0186109 0)
(1.64333 -0.00942204 0)
(1.59585 -0.048243 0)
(1.55188 -0.0874847 0)
(1.50881 -0.119655 0)
(1.4661 -0.139954 0)
(1.42421 -0.145432 0)
(1.3851 -0.135173 0)
(1.35173 -0.110573 0)
(1.32614 -0.0744367 0)
(1.31014 -0.0305596 0)
(1.30513 0.0174278 0)
(1.31171 0.0664137 0)
(1.32952 0.11321 0)
(1.35785 0.15463 0)
(1.39587 0.188368 0)
(1.44243 0.213098 0)
(1.49614 0.22803 0)
(1.55567 0.232861 0)
(1.61983 0.227679 0)
(1.68766 0.212288 0)
(1.75871 0.186004 0)
(1.83205 0.14932 0)
(1.90386 0.104831 0)
(1.96774 0.0565754 0)
(2.01782 0.00940847 0)
(2.05043 -0.032593 0)
(2.06384 -0.0686472 0)
(2.0554 -0.0976624 0)
(2.02489 -0.112924 0)
(1.977 -0.116382 0)
(1.91825 -0.110791 0)
(1.856 -0.100595 0)
(1.79693 -0.0897032 0)
(1.74395 -0.0806365 0)
(1.69823 -0.0749772 0)
(1.65932 -0.0735519 0)
(1.62579 -0.0763535 0)
(1.59587 -0.0824644 0)
(1.56784 -0.0901649 0)
(1.54039 -0.0973819 0)
(1.5129 -0.102214 0)
(1.48553 -0.103197 0)
(1.45901 -0.0993618 0)
(1.43446 -0.0901638 0)
(1.41317 -0.075337 0)
(1.39652 -0.0550061 0)
(1.38559 -0.0297567 0)
(1.38113 -0.000722441 0)
(1.38357 0.0303816 0)
(1.39303 0.0616147 0)
(1.40923 0.0910918 0)
(1.43155 0.117163 0)
(1.45926 0.138496 0)
(2.63614 -0.330068 0)
(2.60344 -0.350809 0)
(2.56522 -0.361461 0)
(2.5256 -0.359848 0)
(2.48824 -0.346506 0)
(2.45549 -0.321806 0)
(2.43204 -0.287226 0)
(2.42188 -0.246473 0)
(2.4275 -0.204664 0)
(2.44832 -0.167388 0)
(2.48312 -0.140579 0)
(2.53455 -0.12853 0)
(2.59916 -0.134051 0)
(2.67369 -0.162473 0)
(2.75216 -0.216329 0)
(2.8291 -0.289409 0)
(2.90208 -0.376632 0)
(2.97341 -0.476786 0)
(3.03868 -0.569299 0)
(3.08623 -0.628519 0)
(3.10757 -0.650186 0)
(3.10825 -0.647475 0)
(3.07725 -0.608984 0)
(3.0106 -0.53886 0)
(2.8996 -0.450333 0)
(2.75717 -0.356423 0)
(2.59273 -0.265353 0)
(2.41946 -0.184424 0)
(2.2509 -0.117973 0)
(2.09359 -0.0653417 0)
(1.9533 -0.0261118 0)
(1.83401 -0.000396263 0)
(1.73839 0.0123903 0)
(1.66745 0.0144201 0)
(1.61873 0.00715357 0)
(1.58582 -0.0133651 0)
(1.56501 -0.0475666 0)
(1.55047 -0.0848298 0)
(1.538 -0.113765 0)
(1.52132 -0.129266 0)
(1.50169 -0.128492 0)
(1.48566 -0.10975 0)
(1.47114 -0.0764216 0)
(1.45689 -0.0341644 0)
(1.44796 0.0124318 0)
(1.45212 0.0611473 0)
(1.473 0.108708 0)
(1.51144 0.152453 0)
(1.567 0.188627 0)
(1.6379 0.212934 0)
(1.72187 0.222524 0)
(1.8172 0.216235 0)
(1.92277 0.195062 0)
(2.03712 0.160474 0)
(2.1569 0.111438 0)
(2.27305 0.0461896 0)
(2.37027 -0.034401 0)
(2.42438 -0.121032 0)
(2.45241 -0.187453 0)
(2.4409 -0.230291 0)
(2.38138 -0.245098 0)
(2.29224 -0.241824 0)
(2.18953 -0.215739 0)
(2.08233 -0.173504 0)
(1.97532 -0.122999 0)
(1.87503 -0.069847 0)
(1.78586 -0.0189421 0)
(1.71062 0.0249561 0)
(1.65053 0.0576443 0)
(1.60452 0.0764743 0)
(1.56819 0.0781694 0)
(1.53978 0.0604462 0)
(1.51857 0.0264453 0)
(1.4991 -0.014238 0)
(1.47686 -0.0519843 0)
(1.44965 -0.0814631 0)
(1.41727 -0.0995306 0)
(1.38101 -0.10433 0)
(1.34397 -0.0965631 0)
(1.3095 -0.077847 0)
(1.28142 -0.0502617 0)
(1.26303 -0.0165824 0)
(1.25474 0.0199411 0)
(1.25783 0.0568676 0)
(1.27349 0.0918915 0)
(1.30103 0.122512 0)
(1.33879 0.146778 0)
(1.38605 0.163357 0)
(1.44175 0.171043 0)
(1.50498 0.169071 0)
(1.57423 0.157613 0)
(1.64679 0.136493 0)
(1.71811 0.106574 0)
(1.78207 0.0723223 0)
(1.83337 0.0386432 0)
(1.86819 0.0082245 0)
(1.88515 -0.0180727 0)
(1.88358 -0.0397401 0)
(1.86369 -0.0535102 0)
(1.8296 -0.0595067 0)
(1.78622 -0.0596439 0)
(1.73913 -0.0565395 0)
(1.6935 -0.0520834 0)
(1.652 -0.0475718 0)
(1.616 -0.0439647 0)
(1.58567 -0.0420731 0)
(1.5602 -0.0425727 0)
(1.53819 -0.0457533 0)
(1.518 -0.0512789 0)
(1.49807 -0.0581134 0)
(1.47691 -0.0649953 0)
(1.45373 -0.0707232 0)
(1.42856 -0.0742724 0)
(1.40205 -0.0748308 0)
(1.37536 -0.071801 0)
(1.34992 -0.0648567 0)
(1.32714 -0.0538477 0)
(1.30849 -0.0387399 0)
(1.29536 -0.0197771 0)
(1.28888 0.00220453 0)
(1.28962 0.025839 0)
(1.29784 0.0496511 0)
(1.31345 0.0721019 0)
(1.33598 0.091769 0)
(1.36472 0.107428 0)
(2.68785 -0.294944 0)
(2.65343 -0.311498 0)
(2.61602 -0.320603 0)
(2.57876 -0.320503 0)
(2.5442 -0.311206 0)
(2.5149 -0.293667 0)
(2.4934 -0.270683 0)
(2.48333 -0.24362 0)
(2.48409 -0.215859 0)
(2.49719 -0.19165 0)
(2.52207 -0.176427 0)
(2.55624 -0.174327 0)
(2.59779 -0.188665 0)
(2.64514 -0.223599 0)
(2.69588 -0.279432 0)
(2.74672 -0.352413 0)
(2.79749 -0.442393 0)
(2.85049 -0.546632 0)
(2.89728 -0.627965 0)
(2.92571 -0.662007 0)
(2.93592 -0.662716 0)
(2.9246 -0.633194 0)
(2.87295 -0.551026 0)
(2.77695 -0.435983 0)
(2.64331 -0.309522 0)
(2.48196 -0.188478 0)
(2.3055 -0.0845877 0)
(2.12918 -0.00450883 0)
(1.96449 0.0518252 0)
(1.81995 0.0869247 0)
(1.70024 0.102854 0)
(1.60695 0.102327 0)
(1.53862 0.0892523 0)
(1.49223 0.0681462 0)
(1.46397 0.040372 0)
(1.45128 0.00451132 0)
(1.45028 -0.0384998 0)
(1.4564 -0.0818442 0)
(1.46567 -0.114526 0)
(1.47439 -0.131699 0)
(1.48145 -0.134716 0)
(1.48948 -0.120763 0)
(1.50208 -0.0905794 0)
(1.52046 -0.0490883 0)
(1.54593 -0.00275377 0)
(1.5759 0.0417971 0)
(1.61126 0.0807123 0)
(1.65365 0.112144 0)
(1.70405 0.134202 0)
(1.76303 0.145134 0)
(1.82913 0.143765 0)
(1.89933 0.128447 0)
(1.96365 0.0974361 0)
(2.02115 0.0524458 0)
(2.06922 0.00166644 0)
(2.09875 -0.0412419 0)
(2.09099 -0.0793377 0)
(2.04076 -0.108293 0)
(1.96775 -0.129928 0)
(1.89447 -0.139882 0)
(1.8271 -0.139316 0)
(1.76558 -0.132544 0)
(1.70722 -0.115176 0)
(1.65056 -0.0849901 0)
(1.59301 -0.045682 0)
(1.53679 -0.00240388 0)
(1.48755 0.0377374 0)
(1.44876 0.0696248 0)
(1.4224 0.0898329 0)
(1.40695 0.097155 0)
(1.39965 0.0937979 0)
(1.39998 0.0700187 0)
(1.4056 0.0336749 0)
(1.40946 -0.00386447 0)
(1.40659 -0.0352214 0)
(1.39532 -0.0578947 0)
(1.3759 -0.0702485 0)
(1.3518 -0.0713692 0)
(1.32454 -0.062927 0)
(1.29466 -0.0472871 0)
(1.26878 -0.0269257 0)
(1.24977 -0.00334178 0)
(1.24088 0.0220471 0)
(1.24199 0.0469251 0)
(1.25533 0.069516 0)
(1.28011 0.0880911 0)
(1.31533 0.101003 0)
(1.3597 0.106792 0)
(1.41077 0.104843 0)
(1.46471 0.0955309 0)
(1.51592 0.0808322 0)
(1.56538 0.0646289 0)
(1.60428 0.0475504 0)
(1.63045 0.0314535 0)
(1.64403 0.0174799 0)
(1.64575 0.00482246 0)
(1.63654 -0.00507656 0)
(1.61923 -0.0115693 0)
(1.59677 -0.0156674 0)
(1.57178 -0.0184542 0)
(1.54669 -0.0202573 0)
(1.52305 -0.0211463 0)
(1.50158 -0.0213717 0)
(1.48264 -0.0214666 0)
(1.46628 -0.0220932 0)
(1.45218 -0.0237316 0)
(1.43967 -0.0266263 0)
(1.42781 -0.0307052 0)
(1.41547 -0.0355483 0)
(1.40148 -0.0405273 0)
(1.38517 -0.044923 0)
(1.36638 -0.0481279 0)
(1.34542 -0.0496869 0)
(1.32301 -0.0492487 0)
(1.30016 -0.0465246 0)
(1.27819 -0.0413043 0)
(1.25832 -0.033454 0)
(1.24184 -0.02298 0)
(1.22998 -0.0100239 0)
(1.22378 0.00496619 0)
(1.22407 0.021062 0)
(1.23125 0.0370741 0)
(1.24526 0.051888 0)
(1.26562 0.0644468 0)
(1.29149 0.0738782 0)
(2.68123 -0.264617 0)
(2.64841 -0.277718 0)
(2.61418 -0.285571 0)
(2.58071 -0.287152 0)
(2.54984 -0.282129 0)
(2.52517 -0.271664 0)
(2.50749 -0.257003 0)
(2.49717 -0.239171 0)
(2.49561 -0.220473 0)
(2.50193 -0.205291 0)
(2.51223 -0.19773 0)
(2.52487 -0.202054 0)
(2.54244 -0.222259 0)
(2.56169 -0.260934 0)
(2.58123 -0.317793 0)
(2.59843 -0.392261 0)
(2.61377 -0.483273 0)
(2.62027 -0.584448 0)
(2.61122 -0.6574 0)
(2.58485 -0.676627 0)
(2.54307 -0.664001 0)
(2.47935 -0.597221 0)
(2.38571 -0.473057 0)
(2.26282 -0.319988 0)
(2.11637 -0.161551 0)
(1.95307 -0.0196869 0)
(1.79114 0.0879436 0)
(1.64652 0.157598 0)
(1.52718 0.193787 0)
(1.43276 0.202862 0)
(1.36197 0.191735 0)
(1.31284 0.166955 0)
(1.28172 0.133407 0)
(1.26654 0.0940916 0)
(1.26609 0.0509849 0)
(1.27637 0.00242914 0)
(1.29195 -0.0518829 0)
(1.30605 -0.100641 0)
(1.31428 -0.133731 0)
(1.31703 -0.14744 0)
(1.31613 -0.148445 0)
(1.31425 -0.138325 0)
(1.315 -0.1132 0)
(1.32147 -0.080384 0)
(1.33632 -0.0437486 0)
(1.36147 -0.00705741 0)
(1.39415 0.0263465 0)
(1.43169 0.0539783 0)
(1.46883 0.0735827 0)
(1.50099 0.0836851 0)
(1.52399 0.0851783 0)
(1.53528 0.0825605 0)
(1.53096 0.0729548 0)
(1.504 0.0573827 0)
(1.46085 0.0395652 0)
(1.41686 0.0258009 0)
(1.3784 0.0136301 0)
(1.35233 -0.0198589 0)
(1.34086 -0.0631686 0)
(1.33611 -0.0973166 0)
(1.3324 -0.1145 0)
(1.32705 -0.115962 0)
(1.31519 -0.0956446 0)
(1.29305 -0.0561916 0)
(1.26203 -0.00761433 0)
(1.23107 0.0365401 0)
(1.20628 0.0700402 0)
(1.19078 0.0908113 0)
(1.18491 0.0992198 0)
(1.18831 0.0997691 0)
(1.20269 0.0859271 0)
(1.22483 0.0531205 0)
(1.2461 0.0158692 0)
(1.26033 -0.0157281 0)
(1.26656 -0.038377 0)
(1.26512 -0.0520544 0)
(1.25584 -0.0572967 0)
(1.24115 -0.0526934 0)
(1.22367 -0.0402408 0)
(1.20593 -0.0234676 0)
(1.18965 -0.00599143 0)
(1.17726 0.0103116 0)
(1.17098 0.0254343 0)
(1.17215 0.0392122 0)
(1.18103 0.0505454 0)
(1.19666 0.0587455 0)
(1.21758 0.0631993 0)
(1.24126 0.0651249 0)
(1.26493 0.0647169 0)
(1.28679 0.062036 0)
(1.30527 0.0561819 0)
(1.32006 0.0485893 0)
(1.3314 0.0402695 0)
(1.33949 0.0314448 0)
(1.3446 0.0225706 0)
(1.34675 0.0142146 0)
(1.3459 0.00651795 0)
(1.34237 4.96905e-05 0)
(1.33649 -0.00462211 0)
(1.32848 -0.00750459 0)
(1.31899 -0.00898375 0)
(1.30902 -0.00964478 0)
(1.29933 -0.0101126 0)
(1.29018 -0.0108927 0)
(1.28184 -0.0122874 0)
(1.27436 -0.0144633 0)
(1.26739 -0.0174151 0)
(1.26029 -0.0208414 0)
(1.25227 -0.0242859 0)
(1.24278 -0.0272612 0)
(1.23158 -0.0294023 0)
(1.21868 -0.0304981 0)
(1.20441 -0.0304461 0)
(1.18927 -0.0291875 0)
(1.17393 -0.0266583 0)
(1.15924 -0.0227619 0)
(1.14599 -0.017373 0)
(1.13505 -0.0104717 0)
(1.12721 -0.00222641 0)
(1.12334 0.00712707 0)
(1.12415 0.0170527 0)
(1.12978 0.0268419 0)
(1.14008 0.0358866 0)
(1.15451 0.0435742 0)
(1.17224 0.0493993 0)
(2.64373 -0.230851 0)
(2.61103 -0.24292 0)
(2.57774 -0.251256 0)
(2.54494 -0.25517 0)
(2.51513 -0.254571 0)
(2.48968 -0.249966 0)
(2.46879 -0.2417 0)
(2.45254 -0.230403 0)
(2.44011 -0.21754 0)
(2.43071 -0.206011 0)
(2.42248 -0.199424 0)
(2.412 -0.203645 0)
(2.39712 -0.224032 0)
(2.37555 -0.26103 0)
(2.34359 -0.312068 0)
(2.29797 -0.378021 0)
(2.22131 -0.464201 0)
(2.09777 -0.525882 0)
(1.94166 -0.567999 0)
(1.78974 -0.582489 0)
(1.65294 -0.550901 0)
(1.53293 -0.464945 0)
(1.42134 -0.32739 0)
(1.30623 -0.156415 0)
(1.19779 0.00733482 0)
(1.11385 0.136974 0)
(1.05249 0.223453 0)
(1.00975 0.262899 0)
(0.983844 0.269437 0)
(0.968994 0.258954 0)
(0.966199 0.226936 0)
(0.976079 0.183984 0)
(0.994738 0.133756 0)
(1.01768 0.0792142 0)
(1.03763 0.0258653 0)
(1.04753 -0.0228904 0)
(1.0412 -0.0655076 0)
(1.01542 -0.0982701 0)
(0.975717 -0.115957 0)
(0.932737 -0.124247 0)
(0.893611 -0.121864 0)
(0.860006 -0.108966 0)
(0.833984 -0.0879443 0)
(0.817365 -0.0628343 0)
(0.809989 -0.0362627 0)
(0.811126 -0.00943145 0)
(0.820404 0.0165977 0)
(0.835901 0.0421384 0)
(0.853714 0.0665181 0)
(0.869329 0.0869369 0)
(0.880686 0.101346 0)
(0.887717 0.109341 0)
(0.891843 0.110503 0)
(0.894318 0.10032 0)
(0.897178 0.0725829 0)
(0.902667 0.0343495 0)
(0.912301 -0.0103278 0)
(0.922566 -0.0557319 0)
(0.927703 -0.0934426 0)
(0.926529 -0.116675 0)
(0.919527 -0.12297 0)
(0.908733 -0.113824 0)
(0.894852 -0.079173 0)
(0.879211 -0.03122 0)
(0.866886 0.0152241 0)
(0.861697 0.0526152 0)
(0.862972 0.0782876 0)
(0.870231 0.0915232 0)
(0.883551 0.0930021 0)
(0.901737 0.0807068 0)
(0.923245 0.0564839 0)
(0.94164 0.0274127 0)
(0.951402 0.000215257 0)
(0.952641 -0.0218226 0)
(0.948004 -0.0368982 0)
(0.939875 -0.0446117 0)
(0.92957 -0.0448386 0)
(0.919244 -0.0384267 0)
(0.910283 -0.0271296 0)
(0.903353 -0.0128818 0)
(0.899096 0.00162866 0)
(0.897497 0.0150868 0)
(0.898084 0.0270706 0)
(0.900916 0.037405 0)
(0.906236 0.0460598 0)
(0.913927 0.0528273 0)
(0.92372 0.0572462 0)
(0.935375 0.0590121 0)
(0.94874 0.0576919 0)
(0.963473 0.0526765 0)
(0.978744 0.0448309 0)
(0.993214 0.0356994 0)
(1.0059 0.0264413 0)
(1.0161 0.0178476 0)
(1.02319 0.0107528 0)
(1.02698 0.0055475 0)
(1.02774 0.00221619 0)
(1.02561 0.000695824 0)
(1.02137 0.00035872 0)
(1.01606 0.000325595 0)
(1.01059 -0.000167656 0)
(1.00546 -0.00109721 0)
(1.00093 -0.00217454 0)
(0.996954 -0.0035671 0)
(0.993548 -0.00611711 0)
(0.990518 -0.00929093 0)
(0.98736 -0.0125361 0)
(0.983607 -0.0155016 0)
(0.978947 -0.0179078 0)
(0.973251 -0.0195807 0)
(0.966565 -0.0204392 0)
(0.959066 -0.0204678 0)
(0.951015 -0.0196897 0)
(0.942728 -0.0181337 0)
(0.934585 -0.0158034 0)
(0.926982 -0.0126405 0)
(0.920347 -0.00857385 0)
(0.915113 -0.00361687 0)
(0.911847 0.0021135 0)
(0.911047 0.00842696 0)
(0.912936 0.0149091 0)
(0.917567 0.0212421 0)
(0.924825 0.0270622 0)
(0.934402 0.032002 0)
(0.945807 0.0357601 0)
(2.54956 -0.199239 0)
(2.5086 -0.209856 0)
(2.46644 -0.217989 0)
(2.4241 -0.22314 0)
(2.38277 -0.225107 0)
(2.34315 -0.224032 0)
(2.3057 -0.22002 0)
(2.27034 -0.212743 0)
(2.23593 -0.202719 0)
(2.19975 -0.190498 0)
(2.15569 -0.177359 0)
(2.09937 -0.170871 0)
(2.03158 -0.18123 0)
(1.94296 -0.206835 0)
(1.81919 -0.232481 0)
(1.63933 -0.24472 0)
(1.38627 -0.253257 0)
(1.1317 -0.289727 0)
(0.933393 -0.349381 0)
(0.777727 -0.394279 0)
(0.642331 -0.388272 0)
(0.529849 -0.314934 0)
(0.445046 -0.18824 0)
(0.381849 -0.0500632 0)
(0.350736 0.0698738 0)
(0.356372 0.159189 0)
(0.386957 0.214221 0)
(0.434245 0.23938 0)
(0.487222 0.243113 0)
(0.541156 0.22299 0)
(0.593237 0.184722 0)
(0.636066 0.139992 0)
(0.663818 0.0962094 0)
(0.673961 0.0579248 0)
(0.667344 0.0263469 0)
(0.648692 0.000482934 0)
(0.62088 -0.0233063 0)
(0.58751 -0.0445202 0)
(0.552334 -0.0618074 0)
(0.516564 -0.073618 0)
(0.481218 -0.0784657 0)
(0.448467 -0.0754858 0)
(0.420374 -0.0651466 0)
(0.398836 -0.0503169 0)
(0.384298 -0.03264 0)
(0.376971 -0.0129493 0)
(0.376493 0.00804093 0)
(0.382518 0.0288282 0)
(0.39485 0.0487502 0)
(0.412777 0.0661714 0)
(0.434761 0.0788783 0)
(0.459369 0.0849942 0)
(0.485545 0.0824178 0)
(0.511487 0.0694161 0)
(0.534048 0.0469561 0)
(0.549996 0.0180378 0)
(0.557877 -0.0150115 0)
(0.556058 -0.0496935 0)
(0.544186 -0.0790992 0)
(0.524251 -0.0968933 0)
(0.49942 -0.0989111 0)
(0.473893 -0.0842282 0)
(0.452419 -0.0553017 0)
(0.440065 -0.0186969 0)
(0.439032 0.0169041 0)
(0.448307 0.0450549 0)
(0.464972 0.0633135 0)
(0.486422 0.0704505 0)
(0.510012 0.0667301 0)
(0.533192 0.0549563 0)
(0.552485 0.0379214 0)
(0.564983 0.0182221 0)
(0.570056 -0.00127104 0)
(0.568386 -0.0176082 0)
(0.56147 -0.0288606 0)
(0.550799 -0.0341648 0)
(0.538599 -0.0336175 0)
(0.526989 -0.02817 0)
(0.517809 -0.0189916 0)
(0.512144 -0.00751433 0)
(0.510482 0.00466326 0)
(0.512733 0.0158678 0)
(0.518425 0.0253781 0)
(0.527154 0.0328086 0)
(0.538582 0.0380589 0)
(0.552293 0.0410278 0)
(0.567764 0.0417067 0)
(0.584368 0.040307 0)
(0.601329 0.0371191 0)
(0.617483 0.0326676 0)
(0.631823 0.0275028 0)
(0.643651 0.0223121 0)
(0.652756 0.0176185 0)
(0.659275 0.0136637 0)
(0.663521 0.0104826 0)
(0.665953 0.00802966 0)
(0.66712 0.00625167 0)
(0.667556 0.00494584 0)
(0.667727 0.00382 0)
(0.667906 0.00271128 0)
(0.668038 0.00153378 0)
(0.668002 0.000112216 0)
(0.667769 -0.00164375 0)
(0.667312 -0.00370516 0)
(0.666379 -0.00598305 0)
(0.664632 -0.00829579 0)
(0.661937 -0.0104285 0)
(0.65833 -0.0122012 0)
(0.653925 -0.0134845 0)
(0.648896 -0.0142019 0)
(0.643463 -0.0143339 0)
(0.637864 -0.0139106 0)
(0.632353 -0.0129835 0)
(0.627146 -0.0115859 0)
(0.622456 -0.00971737 0)
(0.618511 -0.00734899 0)
(0.615565 -0.00445696 0)
(0.613862 -0.00103855 0)
(0.613725 0.00286348 0)
(0.615347 0.00702952 0)
(0.618821 0.0113024 0)
(0.624146 0.0154666 0)
(0.631227 0.0192927 0)
(0.639859 0.0225642 0)
(0.649735 0.0250987 0)
(2.20824 -0.145197 0)
(2.14028 -0.153525 0)
(2.06909 -0.160446 0)
(1.99447 -0.165416 0)
(1.91872 -0.167785 0)
(1.83845 -0.166786 0)
(1.75368 -0.162611 0)
(1.66634 -0.155254 0)
(1.57718 -0.145825 0)
(1.48801 -0.133335 0)
(1.4011 -0.11713 0)
(1.2964 -0.0976138 0)
(1.14755 -0.0700517 0)
(0.956329 -0.0311148 0)
(0.767639 0.00238371 0)
(0.63556 0.00472597 0)
(0.538893 -0.0330437 0)
(0.445394 -0.13143 0)
(0.321299 -0.217232 0)
(0.165629 -0.253932 0)
(0.00299105 -0.249129 0)
(-0.139322 -0.204025 0)
(-0.235347 -0.128436 0)
(-0.280367 -0.0406601 0)
(-0.279592 0.0419054 0)
(-0.240161 0.103058 0)
(-0.172617 0.140957 0)
(-0.0897106 0.156678 0)
(-0.00132165 0.155088 0)
(0.0835931 0.141986 0)
(0.157607 0.122379 0)
(0.216496 0.10152 0)
(0.260042 0.0806269 0)
(0.290013 0.0594854 0)
(0.307864 0.0375143 0)
(0.31378 0.0147643 0)
(0.308496 -0.00682281 0)
(0.292137 -0.0238949 0)
(0.265725 -0.0357793 0)
(0.232995 -0.0431561 0)
(0.197963 -0.0459511 0)
(0.164969 -0.0438856 0)
(0.136361 -0.0373443 0)
(0.11356 -0.0278189 0)
(0.0975687 -0.0166028 0)
(0.0890846 -0.00467111 0)
(0.0887021 0.00767153 0)
(0.0965385 0.0201217 0)
(0.112221 0.0317366 0)
(0.135097 0.0415982 0)
(0.163673 0.0484767 0)
(0.195908 0.0511732 0)
(0.229058 0.0485901 0)
(0.259476 0.039989 0)
(0.283015 0.0255792 0)
(0.296342 0.00682921 0)
(0.296438 -0.0145346 0)
(0.281399 -0.0354148 0)
(0.253204 -0.052271 0)
(0.215996 -0.0618603 0)
(0.176349 -0.0622585 0)
(0.1405 -0.0536684 0)
(0.114384 -0.0363101 0)
(0.101859 -0.0142629 0)
(0.103225 0.00760289 0)
(0.116802 0.0247852 0)
(0.139381 0.0355894 0)
(0.16683 0.0398424 0)
(0.19509 0.0380096 0)
(0.220214 0.0312124 0)
(0.239305 0.0209873 0)
(0.250592 0.0093682 0)
(0.2538 -0.0018225 0)
(0.249581 -0.0109567 0)
(0.240173 -0.0169508 0)
(0.228034 -0.0198612 0)
(0.215433 -0.0198413 0)
(0.204374 -0.0171426 0)
(0.196295 -0.0121471 0)
(0.192198 -0.00575775 0)
(0.192383 0.00123553 0)
(0.196879 0.00781089 0)
(0.205419 0.0132401 0)
(0.21731 0.017497 0)
(0.231757 0.0206313 0)
(0.247908 0.0225127 0)
(0.264936 0.023158 0)
(0.281955 0.0226457 0)
(0.2982 0.0210747 0)
(0.312979 0.0186217 0)
(0.325803 0.0156246 0)
(0.336426 0.0124916 0)
(0.344852 0.00951334 0)
(0.351325 0.00687117 0)
(0.356132 0.00476698 0)
(0.359687 0.00318671 0)
(0.362327 0.00215355 0)
(0.36436 0.00151929 0)
(0.36596 0.00109838 0)
(0.36721 0.000698371 0)
(0.368119 0.000122753 0)
(0.368567 -0.000643888 0)
(0.368434 -0.00155047 0)
(0.367619 -0.00261247 0)
(0.366002 -0.00386941 0)
(0.363495 -0.00520388 0)
(0.360114 -0.00647005 0)
(0.35597 -0.00756266 0)
(0.351236 -0.00840458 0)
(0.346129 -0.00894808 0)
(0.340886 -0.00916885 0)
(0.335741 -0.00906021 0)
(0.330888 -0.00862478 0)
(0.326514 -0.00786631 0)
(0.322799 -0.00678468 0)
(0.319923 -0.00537152 0)
(0.318078 -0.00361407 0)
(0.317472 -0.00150517 0)
(0.318283 0.000927144 0)
(0.320693 0.00353338 0)
(0.324826 0.00615162 0)
(0.330649 0.00866836 0)
(0.338073 0.0109639 0)
(0.346915 0.0129165 0)
(0.356907 0.0144227 0)
(1.10078 -0.0679912 0)
(0.993355 -0.0709683 0)
(0.880756 -0.0729499 0)
(0.764796 -0.0736111 0)
(0.645404 -0.0719305 0)
(0.528628 -0.0668614 0)
(0.421017 -0.0568703 0)
(0.323975 -0.04076 0)
(0.235101 -0.0191084 0)
(0.159807 0.0149894 0)
(0.107758 0.0666859 0)
(0.0988648 0.116356 0)
(0.134133 0.134122 0)
(0.185078 0.117686 0)
(0.23936 0.0667635 0)
(0.275383 0.0113537 0)
(0.272604 -0.0375167 0)
(0.214274 -0.0707924 0)
(0.0889482 -0.0942079 0)
(-0.0879958 -0.109697 0)
(-0.279238 -0.101095 0)
(-0.43951 -0.0755213 0)
(-0.556306 -0.0454268 0)
(-0.618016 -0.0142841 0)
(-0.623213 0.0143921 0)
(-0.583373 0.0370539 0)
(-0.509348 0.0509581 0)
(-0.41316 0.0566217 0)
(-0.311471 0.0563449 0)
(-0.210594 0.0520253 0)
(-0.118343 0.0446707 0)
(-0.0399449 0.0360485 0)
(0.0224127 0.0268348 0)
(0.0691697 0.0182756 0)
(0.100931 0.011099 0)
(0.117561 0.00513878 0)
(0.121072 -8.31165e-05 0)
(0.113568 -0.00496899 0)
(0.0974084 -0.00883165 0)
(0.0746727 -0.0120351 0)
(0.0473828 -0.0141688 0)
(0.0174 -0.014801 0)
(-0.0106919 -0.0134989 0)
(-0.03387 -0.0106932 0)
(-0.0506524 -0.0068817 0)
(-0.0591736 -0.00267635 0)
(-0.0595831 0.00222652 0)
(-0.0524699 0.00708326 0)
(-0.036846 0.0112568 0)
(-0.0129621 0.0147641 0)
(0.0171261 0.0171901 0)
(0.0508734 0.0181991 0)
(0.0854746 0.0173335 0)
(0.116758 0.0143471 0)
(0.140299 0.00941508 0)
(0.152459 0.00286028 0)
(0.151375 -0.00536277 0)
(0.135888 -0.0130592 0)
(0.107003 -0.0190533 0)
(0.0684308 -0.0227449 0)
(0.0246251 -0.023198 0)
(-0.0171521 -0.02045 0)
(-0.0495414 -0.0145427 0)
(-0.0681104 -0.0069186 0)
(-0.0722177 0.0007132 0)
(-0.063362 0.00699988 0)
(-0.0445999 0.0110081 0)
(-0.0198723 0.0126638 0)
(0.00648574 0.0122826 0)
(0.0301522 0.0102016 0)
(0.0483421 0.00697908 0)
(0.0589237 0.00308071 0)
(0.0619169 -0.000911401 0)
(0.0580463 -0.00425986 0)
(0.0485982 -0.00653982 0)
(0.0355698 -0.00773343 0)
(0.0210791 -0.00780091 0)
(0.0073446 -0.00682927 0)
(-0.00380954 -0.00504393 0)
(-0.0108462 -0.00291749 0)
(-0.0131498 -0.000548865 0)
(-0.0113205 0.0016885 0)
(-0.0053745 0.00344893 0)
(0.0041993 0.00484209 0)
(0.0163162 0.00588759 0)
(0.0301351 0.00651114 0)
(0.0449057 0.0067198 0)
(0.05977 0.00654987 0)
(0.0739601 0.0060779 0)
(0.0868478 0.0053852 0)
(0.0979644 0.00457004 0)
(0.107118 0.0037156 0)
(0.114321 0.00291283 0)
(0.119773 0.00220962 0)
(0.123744 0.00163203 0)
(0.126556 0.00119275 0)
(0.128532 0.000859328 0)
(0.129951 0.000599404 0)
(0.130975 0.000361516 0)
(0.131643 0.000106019 0)
(0.131932 -0.000180008 0)
(0.131779 -0.00052768 0)
(0.131095 -0.000929765 0)
(0.129746 -0.00136443 0)
(0.127602 -0.0018168 0)
(0.124566 -0.00226271 0)
(0.120619 -0.00267422 0)
(0.115828 -0.00302995 0)
(0.110329 -0.00330775 0)
(0.104306 -0.00348929 0)
(0.0979718 -0.00356586 0)
(0.0915482 -0.00353414 0)
(0.0852618 -0.00339349 0)
(0.0793371 -0.00314575 0)
(0.0739988 -0.00279096 0)
(0.0694821 -0.00232637 0)
(0.0660339 -0.00174558 0)
(0.0639159 -0.0010509 0)
(0.063257 -0.000236611 0)
(0.0641115 0.000645984 0)
(0.066623 0.00150484 0)
(0.0708411 0.00232161 0)
(0.0766813 0.00306162 0)
(0.0839741 0.00369383 0)
(0.0924711 0.00418986 0)
(-0.214362 -0.40847 0)
(-0.299716 -0.501626 0)
(-0.373986 -0.58992 0)
(-0.436001 -0.648706 0)
(-0.480684 -0.661359 0)
(-0.514348 -0.597401 0)
(-0.524678 -0.442556 0)
(-0.487845 -0.198171 0)
(-0.409665 0.104844 0)
(-0.304614 0.416636 0)
(-0.181558 0.698113 0)
(-0.0622442 0.930258 0)
(0.0423558 1.10729 0)
(0.12889 1.23318 0)
(0.19555 1.30137 0)
(0.255188 1.3201 0)
(0.320875 1.27147 0)
(0.420093 1.13893 0)
(0.56723 0.926454 0)
(0.750253 0.649806 0)
(0.949891 0.342173 0)
(1.14554 0.0409783 0)
(1.32425 -0.22864 0)
(1.47897 -0.453812 0)
(1.60612 -0.629992 0)
(1.70503 -0.758631 0)
(1.77706 -0.84431 0)
(1.82562 -0.891339 0)
(1.85397 -0.908549 0)
(1.86357 -0.903025 0)
(1.85127 -0.875524 0)
(1.81228 -0.849714 0)
(1.75317 -0.839781 0)
(1.68433 -0.845952 0)
(1.61691 -0.855696 0)
(1.55761 -0.851138 0)
(1.51691 -0.811042 0)
(1.50193 -0.72236 0)
(1.51195 -0.58569 0)
(1.54433 -0.410297 0)