/*--------------------------------*- C++ -*----------------------------------*\
| =========                 |                                                 |
| \\      /  F ield         | OpenFOAM: The Open Source CFD Toolbox           |
|  \\    /   O peration     | Version:  2206                                  |
|   \\  /    A nd           | Website:  www.openfoam.com                      |
|    \\/     M anipulation  |                                                 |
\*---------------------------------------------------------------------------*/
FoamFile
{
    version     2.0;
    format      ascii;
    arch        "LSB;label=32;scalar=64";
    class       volVectorField;
    location    "19.5";
    object      ddtCorrDdt0(U);
}
// * * * * * * * * * * * * * * * * * * * * * * * * * * * * * * * * * * * * * //

dimensions      [0 1 -2 0 0 0 0];

internalField   nonuniform List<vector> 
1838
(
(-1.72842e-06 5.79535e-05 0)
(-5.27695e-06 0.000117282 0)
(-1.27719e-05 0.000183659 0)
(-2.46591e-05 0.00023462 0)
(-3.87566e-05 0.000272023 0)
(-5.41817e-05 0.000293634 0)
(-7.06076e-05 0.000298167 0)
(-8.73683e-05 0.000287532 0)
(-0.000103726 0.00026249 0)
(-0.000118751 0.000226157 0)
(-0.000131588 0.000181258 0)
(-0.000142984 0.000130786 0)
(-0.000151684 7.84404e-05 0)
(-0.000157834 2.77636e-05 0)
(-0.000161414 -1.81202e-05 0)
(-0.000163046 -5.48219e-05 0)
(-0.000163731 -8.13601e-05 0)
(-0.000163255 -9.39819e-05 0)
(-0.000162212 -9.27727e-05 0)
(-0.000161926 -7.52126e-05 0)
(-0.000163398 -4.30573e-05 0)
(-0.000167064 6.01781e-06 0)
(-0.000174281 6.90429e-05 0)
(-0.000186477 0.000147604 0)
(-0.000204254 0.000237158 0)
(-0.0002283 0.000339372 0)
(-0.000259511 0.00044934 0)
(-0.000299545 0.000568871 0)
(-0.000345632 0.000693877 0)
(-0.000407836 0.000825686 0)
(-0.000471968 0.000959813 0)
(-0.000555537 0.00110028 0)
(-0.00064026 0.00124398 0)
(-0.000745955 0.00139456 0)
(-0.000855381 0.00155255 0)
(-0.000982111 0.00172013 0)
(-0.00112871 0.0019009 0)
(-0.00127421 0.00209752 0)
(-0.00145714 0.00231818 0)
(-0.00162795 0.00256303 0)
(-0.00185407 0.00284379 0)
(-0.00206858 0.00315971 0)
(-0.00232627 0.00352505 0)
(-0.00260875 0.00394238 0)
(-0.00290629 0.0044211 0)
(-0.00328336 0.00497364 0)
(-0.00363654 0.00559927 0)
(-0.00411271 0.00632435 0)
(-0.00456003 0.00713755 0)
(-0.00513971 0.00807143 0)
(-0.00574132 0.00912226 0)
(-0.00642253 0.0103081 0)
(-0.00724555 0.0116563 0)
(-0.00805867 0.0131527 0)
(-0.0091389 0.0148649 0)
(-0.0101672 0.0167522 0)
(-0.0115066 0.0189068 0)
(-0.0128508 0.0212898 0)
(-0.0144801 0.0239894 0)
(-0.0162424 0.0269948 0)
(-0.0181946 0.0303605 0)
(-0.0205309 0.0341773 0)
(-0.0228187 0.0383164 0)
(-0.0258778 0.043187 0)
(-0.0286833 0.0482923 0)
(-0.0323784 0.0543793 0)
(-0.0360923 0.0608983 0)
(-0.0403104 0.0682925 0)
(-0.0450596 0.0767617 0)
(-0.0502661 0.086096 0)
(-0.0561334 0.0965809 0)
(-0.0626679 0.108291 0)
(-0.0698723 0.121344 0)
(-0.0778414 0.135916 0)
(-0.0866974 0.152193 0)
(-0.0965578 0.170348 0)
(-0.10752 0.19058 0)
(-0.119707 0.213116 0)
(-0.133274 0.238219 0)
(-0.148385 0.266185 0)
(-0.165224 0.297324 0)
(-0.183957 0.332006 0)
(-0.204793 0.370632 0)
(-0.227984 0.413635 0)
(-0.25377 0.461495 0)
(-0.282462 0.514738 0)
(-0.314466 0.573942 0)
(-0.350233 0.63982 0)
(-0.39035 0.713188 0)
(-0.435506 0.794987 0)
(-0.48646 0.886366 0)
(-0.54422 0.988755 0)
(-0.609954 1.10407 0)
(-0.684989 1.23485 0)
(-0.770905 1.38486 0)
(-0.86904 1.55952 0)
(-0.980411 1.76715 0)
(-1.10423 2.02378 0)
(-1.24148 2.35607 0)
(-1.34978 2.83053 0)
(-1.47722 3.53981 0)
(-0.407973 5.1524 0)
(-1.37163e-06 6.00388e-05 0)
(-4.10685e-06 0.000123764 0)
(-9.98236e-06 0.000193563 0)
(-1.97788e-05 0.00024683 0)
(-3.10993e-05 0.00028593 0)
(-4.33986e-05 0.000308308 0)
(-5.63009e-05 0.000313391 0)
(-6.95321e-05 0.000302176 0)
(-8.24681e-05 0.00027637 0)
(-9.3837e-05 0.000238739 0)
(-0.000104202 0.000192175 0)
(-0.000113068 0.0001395 0)
(-0.000119895 8.5553e-05 0)
(-0.000124944 3.22675e-05 0)
(-0.000127361 -1.45374e-05 0)
(-0.000128863 -5.36759e-05 0)
(-0.000129276 -8.05861e-05 0)
(-0.000128748 -9.43764e-05 0)
(-0.000127919 -9.19243e-05 0)
(-0.000128106 -7.43107e-05 0)
(-0.00012924 -3.92039e-05 0)
(-0.000132163 1.18096e-05 0)
(-0.000137587 7.96993e-05 0)
(-0.000147283 0.000161878 0)
(-0.000161436 0.000258545 0)
(-0.00018082 0.000365978 0)
(-0.00020613 0.000484619 0)
(-0.000237133 0.000610592 0)
(-0.000277339 0.00074592 0)
(-0.000321431 0.000884353 0)
(-0.000380398 0.00103004 0)
(-0.000438296 0.00117913 0)
(-0.000511829 0.00133406 0)
(-0.000590702 0.00149573 0)
(-0.000676847 0.00166432 0)
(-0.000784328 0.00184398 0)
(-0.000888731 0.00203663 0)
(-0.00101878 0.00224929 0)
(-0.00114316 0.00248345 0)
(-0.00129922 0.00274663 0)
(-0.00146048 0.003045 0)
(-0.00163995 0.00338303 0)
(-0.00184585 0.00377311 0)
(-0.002053 0.00421493 0)
(-0.00232231 0.00472855 0)
(-0.00257574 0.00530902 0)
(-0.00290326 0.00598298 0)
(-0.0032306 0.00674528 0)
(-0.00362559 0.00761636 0)
(-0.00406307 0.00860752 0)
(-0.00453576 0.00972159 0)
(-0.00511202 0.010994 0)
(-0.00569807 0.0124111 0)
(-0.00642822 0.0140246 0)
(-0.00718782 0.0158209 0)
(-0.00809801 0.0178529 0)
(-0.0090634 0.020121 0)
(-0.0102144 0.0226769 0)
(-0.011434 0.0255276 0)
(-0.0128563 0.0287255 0)
(-0.014458 0.0323221 0)
(-0.0161353 0.036286 0)
(-0.0182426 0.0408299 0)
(-0.0203251 0.0457727 0)
(-0.0228271 0.0513874 0)
(-0.0256878 0.0577319 0)
(-0.0285428 0.0645119 0)
(-0.0320421 0.0724163 0)
(-0.0358594 0.0813171 0)
(-0.0398835 0.0911613 0)
(-0.0444103 0.102169 0)
(-0.0495082 0.114442 0)
(-0.0551814 0.128158 0)
(-0.0614865 0.143511 0)
(-0.0685047 0.160692 0)
(-0.0762935 0.179854 0)
(-0.0849192 0.201206 0)
(-0.0944963 0.224943 0)
(-0.105156 0.251367 0)
(-0.117052 0.280764 0)
(-0.130321 0.313516 0)
(-0.145102 0.350004 0)
(-0.161585 0.390649 0)
(-0.179955 0.435908 0)
(-0.200409 0.486321 0)
(-0.223209 0.542433 0)
(-0.248655 0.604932 0)
(-0.27711 0.674565 0)
(-0.309062 0.752209 0)
(-0.344956 0.838853 0)
(-0.385435 0.93592 0)
(-0.431067 1.04481 0)
(-0.482511 1.16761 0)
(-0.540435 1.30678 0)
(-0.605038 1.4658 0)
(-0.675643 1.64889 0)
(-0.750904 1.86413 0)
(-0.824957 2.12107 0)
(-0.880064 2.43371 0)
(-0.900791 2.82118 0)
(-0.774181 3.30953 0)
(-0.356786 3.72796 0)
(-1.07962e-06 6.12781e-05 0)
(-2.77138e-06 0.000127766 0)
(-6.93708e-06 0.000200606 0)
(-1.41106e-05 0.000255717 0)
(-2.25195e-05 0.000296224 0)
(-3.14849e-05 0.000319191 0)
(-4.09068e-05 0.00032492 0)
(-5.05468e-05 0.000313371 0)
(-5.97823e-05 0.000287245 0)
(-6.79957e-05 0.000248482 0)
(-7.54549e-05 0.000200195 0)
(-8.17501e-05 0.000146521 0)
(-8.70167e-05 9.0177e-05 0)
(-9.03248e-05 3.60662e-05 0)
(-9.19656e-05 -1.25636e-05 0)
(-9.28882e-05 -5.27013e-05 0)
(-9.3176e-05 -8.05931e-05 0)
(-9.26837e-05 -9.45402e-05 0)
(-9.2342e-05 -9.25012e-05 0)
(-9.26061e-05 -7.38426e-05 0)
(-9.35207e-05 -3.71989e-05 0)
(-9.53646e-05 1.60855e-05 0)
(-9.91918e-05 8.69735e-05 0)
(-0.000106011 0.000172547 0)
(-0.000116654 0.000272996 0)
(-0.000130925 0.000385033 0)
(-0.000149438 0.000508902 0)
(-0.000171575 0.000641044 0)
(-0.000203194 0.000782033 0)
(-0.00023026 0.000927539 0)
(-0.00028135 0.00108092 0)
(-0.000311171 0.00123677 0)
(-0.000377499 0.00140031 0)
(-0.000421516 0.00156979 0)
(-0.000493595 0.00174596 0)
(-0.000568693 0.00193656 0)
(-0.000638714 0.00213789 0)
(-0.00074647 0.00236281 0)
(-0.00081457 0.00260595 0)
(-0.000955531 0.0028844 0)
(-0.00104012 0.00319402 0)
(-0.00120182 0.00354978 0)
(-0.00132377 0.00395705 0)
(-0.00148756 0.00441985 0)
(-0.00168512 0.00495854 0)
(-0.00184405 0.00556465 0)
(-0.00212484 0.00627263 0)
(-0.00230167 0.00706378 0)
(-0.00265535 0.00798004 0)
(-0.00290627 0.00900965 0)
(-0.00330048 0.0101786 0)
(-0.00368966 0.0115068 0)
(-0.00410451 0.0129858 0)
(-0.00468477 0.0146791 0)
(-0.00514362 0.0165456 0)
(-0.00591889 0.0186838 0)
(-0.00649128 0.0210393 0)
(-0.00743543 0.0237191 0)
(-0.00823572 0.0266901 0)
(-0.00931059 0.0300287 0)
(-0.0104602 0.0337825 0)
(-0.0116441 0.0379194 0)
(-0.0132473 0.0426698 0)
(-0.0146009 0.0477925 0)
(-0.0166785 0.0537727 0)
(-0.0184112 0.0601455 0)
(-0.0209097 0.0675741 0)
(-0.0233022 0.0754758 0)
(-0.026038 0.0844937 0)
(-0.0290083 0.0949778 0)
(-0.0322978 0.106499 0)
(-0.0360017 0.119333 0)
(-0.0400611 0.133586 0)
(-0.0445256 0.149454 0)
(-0.0494955 0.16715 0)
(-0.0550336 0.186924 0)
(-0.0612109 0.208985 0)
(-0.0681001 0.233615 0)
(-0.0757874 0.261078 0)
(-0.0843671 0.291698 0)
(-0.0939268 0.325804 0)
(-0.104587 0.363778 0)
(-0.116487 0.406036 0)
(-0.129767 0.453086 0)
(-0.144594 0.505446 0)
(-0.161146 0.56377 0)
(-0.179644 0.628747 0)
(-0.200367 0.701196 0)
(-0.223624 0.782049 0)
(-0.249744 0.872473 0)
(-0.279072 0.973635 0)
(-0.31199 1.08734 0)
(-0.348809 1.21529 0)
(-0.38962 1.3598 0)
(-0.433975 1.52333 0)
(-0.481153 1.71007 0)
(-0.527388 1.92357 0)
(-0.56657 2.16796 0)
(-0.582771 2.44824 0)
(-0.559185 2.7633 0)
(-0.415312 3.11037 0)
(-0.147037 3.60039 0)
(-5.55171e-07 6.1528e-05 0)
(-1.11021e-06 0.000130742 0)
(-3.76215e-06 0.000205524 0)
(-8.76833e-06 0.000262583 0)
(-1.401e-05 0.000303961 0)
(-1.93674e-05 0.000327551 0)
(-2.49707e-05 0.000332999 0)
(-3.08361e-05 0.000321461 0)
(-3.63183e-05 0.00029455 0)
(-4.13346e-05 0.000255004 0)
(-4.54649e-05 0.000205826 0)
(-4.95306e-05 0.000150773 0)
(-5.25621e-05 9.36862e-05 0)
(-5.43367e-05 3.85352e-05 0)
(-5.53547e-05 -1.12386e-05 0)
(-5.59017e-05 -5.21294e-05 0)
(-5.5975e-05 -8.09864e-05 0)
(-5.59043e-05 -9.53929e-05 0)
(-5.57408e-05 -9.36118e-05 0)
(-5.58223e-05 -7.4164e-05 0)
(-5.6451e-05 -3.6803e-05 0)
(-5.73263e-05 1.86853e-05 0)
(-5.93467e-05 9.07401e-05 0)
(-6.383e-05 0.000178925 0)
(-7.03136e-05 0.000281501 0)
(-7.89827e-05 0.000397645 0)
(-8.95852e-05 0.000524643 0)
(-0.000103567 0.000661483 0)
(-0.000122073 0.000805639 0)
(-0.000134009 0.000956829 0)
(-0.000178611 0.00111572 0)
(-0.000175713 0.00127714 0)
(-0.000242437 0.00144579 0)
(-0.000237951 0.00161935 0)
(-0.000312608 0.00180258 0)
(-0.00033309 0.00199822 0)
(-0.000386976 0.00220641 0)
(-0.000459737 0.00243867 0)
(-0.000471826 0.00268872 0)
(-0.000603325 0.00297674 0)
(-0.000596701 0.00329447 0)
(-0.000757496 0.00366402 0)
(-0.000770433 0.0040814 0)
(-0.000914055 0.00455963 0)
(-0.00101633 0.00511433 0)
(-0.001093 0.00573733 0)
(-0.00132268 0.00646845 0)
(-0.00132884 0.00727896 0)
(-0.00167235 0.00822785 0)
(-0.00168149 0.00928066 0)
(-0.00204712 0.0104908 0)
(-0.00219524 0.0118533 0)
(-0.00246829 0.0133764 0)
(-0.00287379 0.0151236 0)
(-0.00301631 0.0170385 0)
(-0.0036879 0.0192488 0)
(-0.00377644 0.0216646 0)
(-0.00463305 0.0244282 0)
(-0.00482938 0.0274781 0)
(-0.0057278 0.0309207 0)
(-0.00626739 0.0347721 0)
(-0.00697104 0.0390303 0)
(-0.00817831 0.0439399 0)
(-0.00851561 0.0491382 0)
(-0.0103912 0.0554222 0)
(-0.0108608 0.0618545 0)
(-0.0127042 0.0695683 0)
(-0.0142595 0.077881 0)
(-0.0160276 0.0870441 0)
(-0.0179171 0.0975026 0)
(-0.0197174 0.109053 0)
(-0.0219515 0.122132 0)
(-0.024507 0.136814 0)
(-0.0272695 0.153221 0)
(-0.0302556 0.171533 0)
(-0.0335298 0.19194 0)
(-0.0371299 0.214651 0)
(-0.0411116 0.239915 0)
(-0.0455641 0.268016 0)
(-0.0505775 0.299298 0)
(-0.056241 0.33414 0)
(-0.0626246 0.372968 0)
(-0.0698086 0.41624 0)
(-0.0778844 0.464463 0)
(-0.0869178 0.518194 0)
(-0.0970124 0.578063 0)
(-0.108314 0.64478 0)
(-0.120973 0.71919 0)
(-0.135162 0.802267 0)
(-0.151108 0.895157 0)
(-0.168969 0.999189 0)
(-0.188932 1.11581 0)
(-0.211146 1.2468 0)
(-0.235524 1.39416 0)
(-0.261792 1.56031 0)
(-0.288695 1.74717 0)
(-0.313826 1.95664 0)
(-0.332594 2.18961 0)
(-0.337258 2.44407 0)
(-0.315166 2.71527 0)
(-0.255519 2.95902 0)
(-0.138956 3.2209 0)
(-9.64982e-07 0.000209258 0)
(-3.01113e-06 0.000266509 0)
(-5.40916e-06 0.000307728 0)
(-7.513e-06 0.000331261 0)
(-9.1757e-06 0.000336884 0)
(-1.09277e-05 0.000325164 0)
(-1.26077e-05 0.000298144 0)
(-1.38761e-05 0.00025814 0)
(-1.5239e-05 0.000208602 0)
(-1.62969e-05 0.000153036 0)
(-1.74025e-05 9.54513e-05 0)
(-1.79509e-05 3.96473e-05 0)
(-1.81845e-05 -1.07856e-05 0)
(-1.84563e-05 -5.21116e-05 0)
(-1.86814e-05 -8.12808e-05 0)
(-1.86039e-05 -9.5873e-05 0)
(-1.84326e-05 -9.39633e-05 0)
(-1.84509e-05 -7.43964e-05 0)
(-1.82889e-05 -3.64404e-05 0)
(-1.84677e-05 1.92601e-05 0)
(-1.92277e-05 9.2406e-05 0)
(-2.05359e-05 0.000181655 0)
(-2.25241e-05 0.000286257 0)
(-2.52398e-05 0.000403894 0)
(-2.86632e-05 0.000533113 0)
(-3.31665e-05 0.000671698 0)
(-3.97964e-05 0.000817557 0)
(-4.27626e-05 0.000972755 0)
(-6.72888e-05 0.00113004 0)
(-3.0828e-05 0.00129609 0)
(-0.000111947 0.00146681 0)
(-3.69419e-05 0.00164296 0)
(-0.000138913 0.00183213 0)
(-7.84968e-05 0.00202629 0)
(-0.000140865 0.00224456 0)
(-0.000159366 0.00247256 0)
(-0.000117672 0.00273368 0)
(-0.000264579 0.00302018 0)
(-0.000107008 0.00334559 0)
(-0.000350626 0.00372108 0)
(-0.000157508 0.00413766 0)
(-0.000372325 0.00463419 0)
(-0.000306754 0.00518132 0)
(-0.000327287 0.00582999 0)
(-0.000536485 0.00655575 0)
(-0.000265837 0.00738812 0)
(-0.000772844 0.00834841 0)
(-0.000300839 0.00940634 0)
(-0.000906867 0.0106567 0)
(-0.0005477 0.0120026 0)
(-0.000864085 0.0135932 0)
(-0.00104681 0.015318 0)
(-0.000702834 0.0173019 0)
(-0.00166493 0.0195175 0)
(-0.000667928 0.0219697 0)
(-0.00212045 0.0247955 0)
(-0.00107614 0.0278433 0)
(-0.00220272 0.0313902 0)
(-0.00202212 0.0352401 0)
(-0.00201711 0.0395933 0)
(-0.00330838 0.0445692 0)
(-0.00186149 0.0497666 0)
(-0.004675 0.0563468 0)
(-0.00207711 0.0623955 0)
(-0.00559402 0.0711467 0)
(-0.00355141 0.0783536 0)
(-0.00518864 0.0884944 0)
(-0.00724334 0.0993681 0)
(-0.00761452 0.111164 0)
(-0.00803275 0.124209 0)
(-0.00863534 0.138832 0)
(-0.00933532 0.155162 0)
(-0.0101537 0.173389 0)
(-0.0111153 0.193747 0)
(-0.0122201 0.21655 0)
(-0.0134716 0.242092 0)
(-0.0148934 0.270655 0)
(-0.0165241 0.302528 0)
(-0.0183892 0.338042 0)
(-0.0205154 0.37757 0)
(-0.0229198 0.421552 0)
(-0.0256114 0.470483 0)
(-0.0286194 0.524937 0)
(-0.031985 0.58556 0)
(-0.0357615 0.653119 0)
(-0.040031 0.728475 0)
(-0.0448731 0.812646 0)
(-0.0503451 0.906761 0)
(-0.0565219 1.01215 0)
(-0.0634475 1.13027 0)
(-0.0711723 1.26283 0)
(-0.0796719 1.41157 0)
(-0.0887533 1.57834 0)
(-0.0979621 1.76476 0)
(-0.106473 1.97175 0)
(-0.112472 2.19838 0)
(-0.114062 2.44077 0)
(-0.10253 2.6899 0)
(-0.0871189 2.93668 0)
(-0.0720395 2.98227 0)
(-4.08159e-06 7.80618e-06 0)
(-1.48758e-05 4.42519e-06 0)
(-3.39354e-05 8.34005e-06 0)
(-5.78838e-05 1.16082e-05 0)
(-8.43331e-05 1.37395e-05 0)
(-0.000112752 1.55531e-05 0)
(-0.000140911 1.54986e-05 0)
(-0.000167074 1.37382e-05 0)
(-0.000188392 1.08762e-05 0)
(-0.000202643 6.31893e-06 0)
(-0.000207925 -5.75553e-07 0)
(-0.000202652 -6.89068e-06 0)
(-0.000188312 -1.19376e-05 0)
(-0.000167254 -1.67868e-05 0)
(-0.000140348 -2.20494e-05 0)
(-0.00010792 -2.591e-05 0)
(-7.16565e-05 -2.78287e-05 0)
(-3.41132e-05 -2.72252e-05 0)
(2.47793e-06 -2.46651e-05 0)
(3.62028e-05 -2.06314e-05 0)
(6.56144e-05 -1.62397e-05 0)
(8.98613e-05 -1.14701e-05 0)
(0.000107608 -6.47859e-06 0)
(0.00012018 -3.09447e-06 0)
(0.000127787 -2.82438e-06 0)
(0.0001346 -4.01783e-06 0)
(0.000134823 -8.81315e-06 0)
(0.000153867 -1.75895e-05 0)
(0.000164339 -2.89056e-05 0)
(0.000185943 -3.83292e-05 0)
(0.000210041 -4.56998e-05 0)
(0.000237991 -4.99699e-05 0)
(0.000270075 -5.24091e-05 0)
(0.000300675 -5.33346e-05 0)
(0.000343712 -5.39625e-05 0)
(0.000373381 -5.37048e-05 0)
(0.000417336 -5.68056e-05 0)
(0.000457741 -5.6703e-05 0)
(0.000481977 -4.22369e-05 0)
(0.000484879 -1.52191e-05 0)
(0.000472698 9.58136e-06 0)
(0.000444828 1.61071e-05 0)
(0.000412455 4.96259e-06 0)
(0.000370942 -2.22108e-05 0)
(0.000331932 -4.97827e-05 0)
(0.00030884 -6.992e-05 0)
(0.000232125 -7.51899e-05 0)
(0.000177201 -7.05988e-05 0)
(4.88779e-05 -6.86364e-05 0)
(-0.000127552 -5.79823e-05 0)
(-0.000378707 -4.23571e-05 0)
(-0.00073541 -8.57879e-06 0)
(-0.00116087 8.21872e-06 0)
(-0.00170581 1.82629e-05 0)
(-0.00230136 2.14488e-05 0)
(-0.00302046 2.39994e-05 0)
(-0.00382453 3.9505e-05 0)
(-0.00472457 5.9053e-05 0)
(-0.00584629 0.000211751 0)
(-0.00706238 0.000238737 0)
(-0.00856587 0.000295782 0)
(-0.0102063 0.000333077 0)
(-0.0121143 0.000451005 0)
(-0.0145782 0.000712015 0)
(-0.0173126 0.000872383 0)
(-0.0201351 0.00121671 0)
(-0.0251912 0.00177951 0)
(-0.0274294 0.00147498 0)
(-0.0325114 0.001184 0)
(-0.0369567 0.00131059 0)
(-0.0411405 -0.000549697 0)
(-0.0469245 -9.16291e-05 0)
(-0.0532334 0.00318297 0)
(-0.0631142 0.00648265 0)
(-0.0746881 0.00710901 0)
(-0.0882548 0.00806412 0)
(-0.103404 0.00855738 0)
(-0.120302 0.00900147 0)
(-0.139462 0.0100243 0)
(-0.160844 0.0107591 0)
(-0.184685 0.0114257 0)
(-0.21142 0.0128608 0)
(-0.241727 0.0150356 0)
(-0.276393 0.0177909 0)
(-0.316027 0.0209153 0)
(-0.361411 0.0245053 0)
(-0.413433 0.0285831 0)
(-0.472603 0.0324969 0)
(-0.538625 0.0357932 0)
(-0.610914 0.0388635 0)
(-0.690008 0.041971 0)
(-0.772527 0.0451128 0)
(-0.865071 0.0493394 0)
(-0.968278 0.0495369 0)
(-1.06348 0.0447325 0)
(-1.1742 0.0449431 0)
(-1.28319 0.0490915 0)
(-1.39584 0.0500361 0)
(-1.5081 0.0481926 0)
(-1.61342 0.0444357 0)
(-1.70579 0.0381451 0)
(-1.7791 0.0291565 0)
(-6.64906e-06 5.63297e-06 0)
(-5.39743e-06 2.90749e-05 0)
(-3.06656e-05 3.94597e-05 0)
(-6.21028e-05 3.66697e-05 0)
(-8.65443e-05 4.41466e-05 0)
(-0.000113989 3.72551e-05 0)
(-0.000141562 3.91036e-05 0)
(-0.000167125 3.32806e-05 0)
(-0.000190503 2.43391e-05 0)
(-0.000210058 1.43699e-05 0)
(-0.000222657 -2.06357e-06 0)
(-0.000226541 -1.51993e-05 0)
(-0.000225493 -2.32837e-05 0)
(-0.000221278 -3.05183e-05 0)
(-0.000211613 -3.80842e-05 0)
(-0.000195866 -4.38881e-05 0)
(-0.000175857 -4.78674e-05 0)
(-0.000153761 -4.92309e-05 0)
(-0.000131096 -4.80662e-05 0)
(-0.000108774 -4.47566e-05 0)
(-8.76886e-05 -4.05747e-05 0)
(-6.82836e-05 -3.48769e-05 0)
(-5.33498e-05 -2.86381e-05 0)
(-4.30888e-05 -2.23244e-05 0)
(-3.68829e-05 -1.76222e-05 0)
(-3.4613e-05 -1.53113e-05 0)
(-3.85717e-05 -1.55086e-05 0)
(-4.7206e-05 -1.78911e-05 0)
(-5.89055e-05 -2.07463e-05 0)
(-7.36978e-05 -2.28259e-05 0)
(-9.27252e-05 -2.70319e-05 0)
(-0.000116564 -3.24901e-05 0)
(-0.000143828 -3.9561e-05 0)
(-0.000173826 -4.62092e-05 0)
(-0.000204435 -5.31287e-05 0)
(-0.000237416 -5.74572e-05 0)
(-0.000268478 -6.41711e-05 0)
(-0.000295594 -6.4766e-05 0)
(-0.000320537 -6.21058e-05 0)
(-0.000352665 -5.84293e-05 0)
(-0.000398964 -5.0489e-05 0)
(-0.000457182 -3.70862e-05 0)
(-0.000539577 -2.30936e-05 0)
(-0.000591335 -1.43138e-05 0)
(-0.000714272 -4.61287e-06 0)
(-0.000777145 2.10673e-05 0)
(-0.000977951 5.54911e-05 0)
(-0.00106267 0.000105138 0)
(-0.0013003 0.000177727 0)
(-0.00148529 0.000286043 0)
(-0.00172047 0.000404762 0)
(-0.00206674 0.000530103 0)
(-0.00233997 0.000677039 0)
(-0.0029212 0.000804995 0)
(-0.00333717 0.000965536 0)
(-0.00412137 0.00110786 0)
(-0.00479174 0.00129028 0)
(-0.00576183 0.00147206 0)
(-0.00686018 0.00168987 0)
(-0.00780378 0.0019672 0)
(-0.00960559 0.00222695 0)
(-0.0106575 0.0026515 0)
(-0.0130751 0.00303199 0)
(-0.0150574 0.00356924 0)
(-0.0172435 0.00412012 0)
(-0.0204611 0.00465575 0)
(-0.02314 0.00531445 0)
(-0.026413 0.0057219 0)
(-0.0306056 0.00661637 0)
(-0.0381349 0.00735144 0)
(-0.0439986 0.00910231 0)
(-0.0514957 0.0114159 0)
(-0.0634909 0.0105403 0)
(-0.0707394 0.0145213 0)
(-0.0799725 0.0169235 0)
(-0.0908358 0.0192837 0)
(-0.103012 0.0221529 0)
(-0.117043 0.0254833 0)
(-0.133374 0.0291025 0)
(-0.152136 0.0330233 0)
(-0.173886 0.0375335 0)
(-0.199365 0.0428161 0)
(-0.228988 0.0489639 0)
(-0.263134 0.0559924 0)
(-0.30187 0.0638784 0)
(-0.346158 0.0727213 0)
(-0.3949 0.0826849 0)
(-0.45015 0.0931353 0)
(-0.512165 0.103536 0)
(-0.582693 0.113534 0)
(-0.66038 0.122619 0)
(-0.745289 0.132818 0)
(-0.844126 0.147487 0)
(-0.950462 0.160115 0)
(-1.07148 0.166767 0)
(-1.21247 0.17461 0)
(-1.33489 0.183332 0)
(-1.48277 0.18597 0)
(-1.62478 0.179416 0)
(-1.75135 0.162738 0)
(-1.85925 0.135625 0)
(-1.94291 0.0998268 0)
(-4.14435e-06 1.78826e-05 0)
(-1.1199e-05 3.9391e-05 0)
(-2.77932e-05 5.63567e-05 0)
(-4.93079e-05 6.53638e-05 0)
(-8.06982e-05 7.1781e-05 0)
(-0.000111683 7.51685e-05 0)
(-0.000150435 7.26667e-05 0)
(-0.000174166 6.6037e-05 0)
(-0.000212145 5.26078e-05 0)
(-0.00022526 4.04741e-05 0)
(-0.000264805 2.08302e-05 0)
(-0.000300584 1.2138e-06 0)
(-0.000306139 -1.87019e-05 0)
(-0.000307632 -3.71457e-05 0)
(-0.000303504 -5.3584e-05 0)
(-0.000292422 -6.4628e-05 0)
(-0.000277407 -7.14276e-05 0)
(-0.000260733 -7.40752e-05 0)
(-0.000244707 -7.31024e-05 0)
(-0.000225643 -6.75551e-05 0)
(-0.000216614 -5.74875e-05 0)
(-0.000212021 -4.63378e-05 0)
(-0.000214264 -2.64803e-05 0)
(-0.000224497 -2.34581e-05 0)
(-0.000244242 -6.74659e-06 0)
(-0.000274173 4.35033e-06 0)
(-0.000316386 1.41165e-05 0)
(-0.000369395 6.23014e-06 0)
(-0.00043348 9.32488e-06 0)
(-0.000511759 1.50382e-05 0)
(-0.000605579 2.42742e-05 0)
(-0.000713253 3.30459e-05 0)
(-0.000832916 3.89662e-05 0)
(-0.000964619 4.58057e-05 0)
(-0.00110819 4.90349e-05 0)
(-0.00126473 5.98416e-05 0)
(-0.00143279 5.17679e-05 0)
(-0.00161623 6.06487e-05 0)
(-0.00181432 0.000107397 0)
(-0.00202212 0.000158579 0)
(-0.00224318 0.000199892 0)
(-0.00249332 0.000229663 0)
(-0.00278764 0.000256718 0)
(-0.00311805 0.000281918 0)
(-0.00348072 0.00030948 0)
(-0.00388464 0.000343821 0)
(-0.00433846 0.000391552 0)
(-0.0048504 0.000457554 0)
(-0.00543106 0.000544139 0)
(-0.0060738 0.000653311 0)
(-0.00677885 0.000802647 0)
(-0.00757115 0.000984138 0)
(-0.00847545 0.00118783 0)
(-0.00951269 0.00140534 0)
(-0.0107002 0.00164267 0)
(-0.0120627 0.00190713 0)
(-0.0136184 0.00220857 0)
(-0.0153823 0.00255747 0)
(-0.0173775 0.00295481 0)
(-0.0196237 0.0034333 0)
(-0.0221576 0.00398825 0)
(-0.0250112 0.00464968 0)
(-0.028206 0.00545168 0)
(-0.0317983 0.00633054 0)
(-0.0358107 0.00725597 0)
(-0.0403859 0.00822144 0)
(-0.0454611 0.00920195 0)
(-0.0512802 0.0104275 0)
(-0.0585061 0.0131805 0)
(-0.0660427 0.0150272 0)
(-0.0743966 0.0170437 0)
(-0.083912 0.019641 0)
(-0.0946869 0.0225201 0)
(-0.106991 0.0255975 0)
(-0.120588 0.028903 0)
(-0.13556 0.0326785 0)
(-0.152304 0.0370232 0)
(-0.171308 0.0419659 0)
(-0.192969 0.0476873 0)
(-0.217644 0.0543898 0)
(-0.245764 0.062216 0)
(-0.277721 0.0712942 0)
(-0.313711 0.0817437 0)
(-0.354132 0.0934737 0)
(-0.398825 0.106208 0)
(-0.448364 0.120366 0)
(-0.502725 0.136753 0)
(-0.565131 0.15469 0)
(-0.636478 0.173695 0)
(-0.71598 0.193073 0)
(-0.804009 0.210741 0)
(-0.904806 0.232012 0)
(-1.02072 0.259067 0)
(-1.13422 0.284346 0)
(-1.27216 0.305857 0)
(-1.41093 0.321753 0)
(-1.54612 0.330171 0)
(-1.68641 0.328658 0)
(-1.82415 0.313884 0)
(-1.95287 0.282002 0)
(-2.0655 0.231267 0)
(-2.15184 0.162821 0)
(-3.88056e-06 2.01591e-05 0)
(-9.77912e-06 5.31454e-05 0)
(-2.45908e-05 7.83024e-05 0)
(-5.18944e-05 9.25489e-05 0)
(-7.41193e-05 0.000107183 0)
(-0.000115981 0.000104661 0)
(-0.00013934 0.000109528 0)
(-0.000181782 8.23912e-05 0)
(-0.000212048 9.53941e-05 0)
(-0.000239897 6.79293e-05 0)
(-0.00026652 4.61783e-05 0)
(-0.000281961 2.55252e-05 0)
(-0.000298403 -1.41682e-06 0)
(-0.000312584 -2.79337e-05 0)
(-0.000323582 -4.96007e-05 0)
(-0.000329586 -6.61192e-05 0)
(-0.000326125 -7.58087e-05 0)
(-0.000325106 -8.09324e-05 0)
(-0.000316001 -7.7186e-05 0)
(-0.000313057 -6.91241e-05 0)
(-0.00030756 -5.5106e-05 0)
(-0.000307714 -3.71698e-05 0)
(-0.000311733 -1.41747e-05 0)
(-0.000326066 1.05934e-05 0)
(-0.000346742 3.58381e-05 0)
(-0.000393436 5.98647e-05 0)
(-0.000436565 8.31382e-05 0)
(-0.000509182 0.000104771 0)
(-0.000615835 0.000125093 0)
(-0.000721195 0.000144138 0)
(-0.000842972 0.000161761 0)
(-0.000977685 0.000180873 0)
(-0.00112285 0.000195047 0)
(-0.00128119 0.000213426 0)
(-0.00145301 0.000229604 0)
(-0.00164508 0.000249472 0)
(-0.00185268 0.000270802 0)
(-0.00209926 0.000296036 0)
(-0.00234058 0.000317476 0)
(-0.00261478 0.000365071 0)
(-0.00292633 0.000442859 0)
(-0.00328068 0.000536708 0)
(-0.00367286 0.000623107 0)
(-0.00414033 0.000649334 0)
(-0.00464749 0.000730415 0)
(-0.00525123 0.000851777 0)
(-0.00591001 0.000983156 0)
(-0.00666737 0.00116067 0)
(-0.00750817 0.00133673 0)
(-0.00841325 0.00151587 0)
(-0.00942413 0.00178784 0)
(-0.0105922 0.00214653 0)
(-0.0119247 0.00255706 0)
(-0.0134175 0.00300237 0)
(-0.0150864 0.00348577 0)
(-0.0169577 0.00401033 0)
(-0.0190646 0.00459699 0)
(-0.021422 0.00522116 0)
(-0.0240425 0.0059098 0)
(-0.0269728 0.00670645 0)
(-0.0302606 0.00760996 0)
(-0.0339386 0.00864427 0)
(-0.0380384 0.00982576 0)
(-0.042609 0.0111425 0)
(-0.0477332 0.0126343 0)
(-0.0535445 0.0143478 0)
(-0.0601818 0.0162819 0)
(-0.0677223 0.0185355 0)
(-0.0759793 0.0211635 0)
(-0.0849898 0.0240394 0)
(-0.0951971 0.0271824 0)
(-0.106676 0.0307786 0)
(-0.119323 0.0352155 0)
(-0.133597 0.0402568 0)
(-0.14974 0.0456792 0)
(-0.167745 0.0517244 0)
(-0.187864 0.0586857 0)
(-0.21034 0.0665809 0)
(-0.235569 0.075515 0)
(-0.263964 0.085736 0)
(-0.296027 0.0974053 0)
(-0.332049 0.110599 0)
(-0.372517 0.125451 0)
(-0.417553 0.141746 0)
(-0.466593 0.158532 0)
(-0.521123 0.177475 0)
(-0.582183 0.200295 0)
(-0.648077 0.225929 0)
(-0.723282 0.253268 0)
(-0.798901 0.282263 0)
(-0.891065 0.3139 0)
(-1.00569 0.347694 0)
(-1.10702 0.380252 0)
(-1.22109 0.4106 0)
(-1.34495 0.44 0)
(-1.47702 0.462798 0)
(-1.61981 0.474167 0)
(-1.7717 0.474949 0)
(-1.92658 0.458836 0)
(-2.07751 0.417619 0)
(-2.21417 0.344713 0)
(-2.32 0.238328 0)
(-3.5608e-06 2.85125e-05 0)
(-1.1204e-05 6.33438e-05 0)
(-2.32489e-05 9.88315e-05 0)
(-4.9447e-05 0.000118083 0)
(-7.29787e-05 0.000135935 0)
(-0.000106907 0.000140865 0)
(-0.00013718 0.000140717 0)
(-0.00017016 0.000131941 0)
(-0.000206751 0.00011518 0)
(-0.000230398 9.51577e-05 0)
(-0.000254334 7.03318e-05 0)
(-0.000273015 4.21358e-05 0)
(-0.00029127 1.07948e-05 0)
(-0.00030126 -1.8204e-05 0)
(-0.000309149 -4.35186e-05 0)
(-0.000313857 -6.42759e-05 0)
(-0.000315467 -7.90354e-05 0)
(-0.000315124 -8.69909e-05 0)
(-0.000313834 -8.71229e-05 0)
(-0.000312788 -7.90993e-05 0)
(-0.000313342 -6.35603e-05 0)
(-0.00031758 -4.09633e-05 0)
(-0.000327028 -1.32168e-05 0)
(-0.000343061 1.81755e-05 0)
(-0.000369459 5.39182e-05 0)
(-0.000404636 9.27113e-05 0)
(-0.000459971 0.00013269 0)
(-0.000522004 0.000176109 0)
(-0.000610612 0.000220025 0)
(-0.000706251 0.00025759 0)
(-0.000841148 0.000292948 0)
(-0.000979516 0.000326869 0)
(-0.00112252 0.00035865 0)
(-0.00136953 0.00040006 0)
(-0.0014776 0.000427939 0)
(-0.00183903 0.000486172 0)
(-0.00195111 0.000514016 0)
(-0.00236648 0.000588368 0)
(-0.00258637 0.000636547 0)
(-0.00296192 0.000724447 0)
(-0.00340401 0.000840008 0)
(-0.00364354 0.000926587 0)
(-0.00431861 0.00112785 0)
(-0.00449118 0.00120223 0)
(-0.0054005 0.00147984 0)
(-0.00572993 0.00158539 0)
(-0.00665122 0.00186674 0)
(-0.00742483 0.00211598 0)
(-0.00821073 0.00240313 0)
(-0.00952311 0.00273867 0)
(-0.0107809 0.00312597 0)
(-0.0120862 0.00355978 0)
(-0.0135156 0.00404658 0)
(-0.0150438 0.00459984 0)
(-0.0167071 0.00522367 0)
(-0.0185351 0.00593423 0)
(-0.0206153 0.00672066 0)
(-0.022968 0.00761381 0)
(-0.0255656 0.00864442 0)
(-0.0284948 0.00980608 0)
(-0.0318208 0.0111218 0)
(-0.0355814 0.0126028 0)
(-0.0398346 0.0142925 0)
(-0.0446256 0.0162154 0)
(-0.0500711 0.0183726 0)
(-0.0561013 0.0207736 0)
(-0.0627955 0.0235049 0)
(-0.0704153 0.0266935 0)
(-0.0789487 0.0304376 0)
(-0.0885343 0.0345937 0)
(-0.0994494 0.0392512 0)
(-0.111458 0.0446477 0)
(-0.124988 0.050643 0)
(-0.140806 0.0570687 0)
(-0.157838 0.063697 0)
(-0.176288 0.07119 0)
(-0.197033 0.0800895 0)
(-0.220133 0.0905644 0)
(-0.246841 0.102739 0)
(-0.276334 0.116706 0)
(-0.308968 0.132484 0)
(-0.344691 0.150243 0)
(-0.384978 0.169875 0)
(-0.427369 0.190771 0)
(-0.473786 0.213575 0)
(-0.534987 0.239237 0)
(-0.593427 0.267406 0)
(-0.658544 0.297824 0)
(-0.73089 0.331091 0)
(-0.809895 0.368331 0)
(-0.895201 0.411127 0)
(-0.988345 0.45424 0)
(-1.09384 0.493295 0)
(-1.21344 0.531999 0)
(-1.34551 0.570541 0)
(-1.48942 0.604372 0)
(-1.64652 0.629158 0)
(-1.81681 0.639279 0)
(-1.99768 0.626705 0)
(-2.18245 0.578912 0)
(-2.35815 0.481694 0)
(-2.50455 0.329746 0)
(-3.42822e-06 3.3938e-05 0)
(-1.01954e-05 7.53563e-05 0)
(-2.26225e-05 0.000116035 0)
(-4.47416e-05 0.000143565 0)
(-6.91133e-05 0.000164635 0)
(-0.000100141 0.000172597 0)
(-0.000129258 0.000173277 0)
(-0.000162153 0.00016236 0)
(-0.000192375 0.000145394 0)
(-0.000217441 0.000121865 0)
(-0.000242876 9.12205e-05 0)
(-0.000261022 5.86851e-05 0)
(-0.000277633 2.47551e-05 0)
(-0.000286138 -7.31549e-06 0)
(-0.000292557 -3.59731e-05 0)
(-0.00029574 -5.90114e-05 0)
(-0.000295924 -7.49936e-05 0)
(-0.00029419 -8.27407e-05 0)
(-0.000291895 -8.15624e-05 0)
(-0.000290444 -7.11714e-05 0)
(-0.000291283 -5.20326e-05 0)
(-0.000296114 -2.46285e-05 0)
(-0.000306634 1.03013e-05 0)
(-0.000324755 5.15443e-05 0)
(-0.000352732 9.80205e-05 0)
(-0.000392072 0.000149188 0)
(-0.000444581 0.00020351 0)
(-0.000510773 0.000260644 0)
(-0.000594373 0.000317885 0)
(-0.000689658 0.000373283 0)
(-0.000816933 0.000429932 0)
(-0.000939206 0.000484331 0)
(-0.00111333 0.000546183 0)
(-0.00129386 0.000605407 0)
(-0.00148918 0.000668922 0)
(-0.00174475 0.000739534 0)
(-0.00196756 0.000807843 0)
(-0.00229329 0.000899386 0)
(-0.00256753 0.000986154 0)
(-0.00294676 0.00111152 0)
(-0.0033057 0.00124268 0)
(-0.00371634 0.00140277 0)
(-0.00418111 0.00157635 0)
(-0.00464901 0.00176053 0)
(-0.00524753 0.00199452 0)
(-0.00582287 0.00223707 0)
(-0.0065535 0.0025592 0)
(-0.00730962 0.00290065 0)
(-0.00819075 0.00334388 0)
(-0.00911888 0.00387374 0)
(-0.0101891 0.00442275 0)
(-0.0113714 0.00496734 0)
(-0.0128328 0.00560562 0)
(-0.0143588 0.00629605 0)
(-0.0161561 0.0071107 0)
(-0.0181181 0.00797794 0)
(-0.0202515 0.00930951 0)
(-0.0229132 0.0102209 0)
(-0.0255804 0.0114889 0)
(-0.0288273 0.0131049 0)
(-0.0321836 0.0147804 0)
(-0.0362001 0.016827 0)
(-0.0405106 0.0190301 0)
(-0.0454183 0.0215705 0)
(-0.050835 0.0243703 0)
(-0.0569529 0.0275176 0)
(-0.0638509 0.0310633 0)
(-0.0715779 0.0351087 0)
(-0.0801672 0.0397291 0)
(-0.0896535 0.0449215 0)
(-0.10008 0.0507354 0)
(-0.111762 0.0574896 0)
(-0.126031 0.064687 0)
(-0.136572 0.0727847 0)
(-0.154277 0.0820573 0)
(-0.174603 0.09255 0)
(-0.196364 0.104296 0)
(-0.220296 0.117497 0)
(-0.246368 0.132266 0)
(-0.274112 0.148593 0)
(-0.30418 0.166639 0)
(-0.337513 0.186862 0)
(-0.370953 0.209352 0)
(-0.4097 0.234559 0)
(-0.455499 0.264016 0)
(-0.504628 0.296537 0)
(-0.559874 0.33044 0)