/*--------------------------------*- C++ -*----------------------------------*\
| =========                 |                                                 |
| \\      /  F ield         | OpenFOAM: The Open Source CFD Toolbox           |
|  \\    /   O peration     | Version:  2206                                  |
|   \\  /    A nd           | Website:  www.openfoam.com                      |
|    \\/     M anipulation  |                                                 |
\*---------------------------------------------------------------------------*/
FoamFile
{
    version     2.0;
    format      ascii;
    arch        "LSB;label=32;scalar=64";
    class       volVectorField;
    location    "18.2001";
    object      ddtCorrDdt0(U);
}
// * * * * * * * * * * * * * * * * * * * * * * * * * * * * * * * * * * * * * //

dimensions      [0 1 -2 0 0 0 0];

internalField   nonuniform List<vector> 
3037
(
(61.6144 25.6776 0)
(66.6863 28.2077 0)
(69.7142 29.6515 0)
(70.4339 32.7703 0)
(68.8712 39.5414 0)
(65.3142 50.6354 0)
(60.1423 65.3751 0)
(53.6482 82.2679 0)
(46.0001 99.5713 0)
(37.308 115.66 0)
(27.728 129.159 0)
(17.4963 138.963 0)
(7.06481 144.066 0)
(-2.95592 143.522 0)
(-12.1169 138.957 0)
(-20.1195 130.709 0)
(-26.7016 119.336 0)
(-31.6857 105.602 0)
(-35.0317 90.403 0)
(-36.8284 74.6111 0)
(-37.2837 58.9521 0)
(-36.6644 43.9321 0)
(-35.4613 29.6284 0)
(-34.9882 15.1109 0)
(-34.5497 -1.35967 0)
(-33.5288 -18.6646 0)
(-32.926 -36.282 0)
(-32.4476 -54.2096 0)
(-32.1863 -72.3685 0)
(-32.03 -90.4755 0)
(-31.7587 -108.006 0)
(-31.1833 -124.198 0)
(-30.1402 -137.984 0)
(-28.3451 -147.753 0)
(-25.0875 -150.782 0)
(-20.4758 -147.242 0)
(-15.0726 -138.718 0)
(-8.95956 -125.817 0)
(-2.32909 -109.504 0)
(4.53022 -90.9638 0)
(11.2471 -71.4001 0)
(17.4828 -51.8544 0)
(24.4603 -32.9688 0)
(32.416 -13.9819 0)
(38.6933 2.73412 0)
(44.065 15.663 0)
(47.5671 25.69 0)
(49.1526 33.6883 0)
(48.9683 40.7464 0)
(47.3016 47.8604 0)
(44.4992 55.622 0)
(40.8089 64.1703 0)
(36.3626 73.2975 0)
(31.2198 82.5457 0)
(25.4224 91.2849 0)
(19.0468 98.7912 0)
(12.2285 104.249 0)
(5.21252 106.488 0)
(-1.61472 105.16 0)
(-7.95537 100.997 0)
(-13.6137 94.1252 0)
(-18.3872 84.8898 0)
(-22.1127 73.8306 0)
(-24.7279 61.6153 0)
(-26.2821 48.9157 0)
(-26.9157 36.2735 0)
(-27.0937 23.8468 0)
(-27.9256 10.8078 0)
(-28.0382 -3.63459 0)
(-27.8113 -18.1482 0)
(-27.3524 -32.2607 0)
(-26.6523 -45.7531 0)
(-25.941 -58.5657 0)
(-25.2403 -70.6572 0)
(-24.4936 -81.918 0)
(-23.6355 -92.1 0)
(-22.5607 -100.683 0)
(-20.9808 -106.616 0)
(-18.3025 -107.922 0)
(-14.6828 -105.165 0)
(-10.4273 -99.0433 0)
(-5.60335 -89.9559 0)
(-0.374021 -78.5452 0)
(5.00519 -65.6079 0)
(10.1992 -51.9309 0)
(14.9896 -38.211 0)
(20.1713 -24.8002 0)
(25.8091 -11.0241 0)
(30.1976 1.59114 0)
(33.8211 12.1119 0)
(35.9576 20.9948 0)
(36.5824 28.5648 0)
(35.8783 35.3004 0)
(34.1057 41.6963 0)
(31.5255 48.0713 0)
(28.3282 54.5111 0)
(24.6374 60.9113 0)
(20.5281 67.015 0)
(16.0517 72.4399 0)
(11.2673 76.6717 0)
(6.28464 78.9528 0)
(1.32445 78.6159 0)
(-3.37215 76.2378 0)
(-7.66583 71.848 0)
(-11.4121 65.622 0)
(-14.4902 57.8865 0)
(-16.8222 49.0908 0)
(-18.4058 39.7298 0)
(-19.2827 30.2285 0)
(-19.6897 20.7989 0)
(-20.4858 11.0124 0)
(-21.1082 0.0421202 0)
(-21.1973 -11.2297 0)
(-21.1121 -22.3368 0)
(-20.6429 -32.945 0)
(-20.0008 -42.8716 0)
(-19.2942 -52.0401 0)
(-18.5419 -60.3755 0)
(-17.7378 -67.742 0)
(-16.8171 -73.8301 0)
(-15.5552 -77.9528 0)
(-13.5019 -78.7528 0)
(50.6923 19.3294 0)
(56.4411 23.7675 0)
(60.1351 27.425 0)
(61.5103 32.8545 0)
(60.6353 41.7445 0)
(57.836 54.6039 0)
(53.4577 70.7994 0)
(47.7309 88.9516 0)
(40.7623 107.388 0)
(32.702 124.495 0)
(23.7025 138.78 0)
(14.0607 149.043 0)
(4.29514 154.002 0)
(-4.92357 152.765 0)
(-13.1876 147.155 0)
(-20.2095 137.573 0)
(-25.7459 124.655 0)
(-29.661 109.28 0)
(-31.9637 92.4653 0)
(-32.7524 75.2028 0)
(-32.1864 58.341 0)
(-30.4805 42.5457 0)
(-28.0245 28.1193 0)
(-26.5777 14.1018 0)
(-25.4801 -2.30914 0)
(-23.5882 -19.7807 0)
(-22.4128 -37.1419 0)
(-21.7352 -54.6317 0)
(-21.5709 -72.4655 0)
(-21.7879 -90.4493 0)
(-22.1636 -108.065 0)
(-22.4966 -124.525 0)
(-22.6122 -138.778 0)
(-22.2726 -149.388 0)
(-20.8547 -153.878 0)
(-18.1556 -151.229 0)
(-14.6336 -143.538 0)
(-10.3157 -131.317 0)
(-5.32383 -115.461 0)
(0.120815 -97.1102 0)
(5.76035 -77.524 0)
(11.1778 -57.8669 0)
(16.277 -39.0682 0)
(23.0876 -21.2138 0)
(29.2631 -3.3096 0)
(34.6787 11.1233 0)
(38.7934 22.7871 0)
(41.047 32.585 0)
(41.5711 41.2661 0)
(40.6495 49.6985 0)
(38.5702 58.5061 0)
(35.5434 67.9139 0)
(31.7035 77.7947 0)
(27.1343 87.7291 0)
(21.9085 97.0851 0)
(16.1221 105.099 0)
(9.93209 110.88 0)
(3.61562 113.101 0)
(-2.44924 111.41 0)
(-8.00668 106.665 0)
(-12.8784 99.0047 0)
(-16.8756 88.7952 0)
(-19.8399 76.6316 0)
(-21.6915 63.301 0)
(-22.4752 49.6396 0)
(-22.313 36.338 0)
(-21.5607 23.7574 0)
(-21.7563 11.0474 0)
(-21.5276 -3.6709 0)
(-20.7779 -18.7279 0)
(-19.9572 -33.0315 0)
(-19.1261 -46.4809 0)
(-18.5112 -59.1936 0)
(-18.0988 -71.217 0)
(-17.802 -82.4842 0)
(-17.5298 -92.7652 0)
(-17.1852 -101.596 0)
(-16.5548 -108.099 0)
(-15.1453 -110.508 0)
(-12.8412 -108.389 0)
(-9.93181 -102.907 0)
(-6.42443 -94.3461 0)
(-2.42292 -83.2659 0)
(1.87342 -70.412 0)
(6.21813 -56.6118 0)
(10.2596 -42.639 0)
(13.9928 -29.1499 0)
(18.7897 -16.0732 0)
(23.0186 -2.55566 0)
(26.7016 9.1059 0)
(29.3677 19.2959 0)
(30.5349 28.2482 0)
(30.3838 36.1818 0)
(29.1926 43.541 0)
(27.1759 50.6686 0)
(24.5012 57.6952 0)
(21.3028 64.5689 0)
(17.6738 71.0712 0)
(13.6838 76.8321 0)
(9.40994 81.3156 0)
(4.98159 83.6848 0)
(0.623616 83.1721 0)
(-3.45632 80.4689 0)
(-7.14654 75.6128 0)
(-10.3246 68.7878 0)
(-12.8619 60.3389 0)
(-14.6632 50.7749 0)
(-15.7143 40.6938 0)
(-16.0495 30.6466 0)
(-15.7989 21.0013 0)
(-15.9849 11.4455 0)
(-16.4624 0.427443 0)
(-16.1918 -11.3228 0)
(-15.867 -22.7776 0)
(-15.2443 -33.5453 0)
(-14.6027 -43.522 0)
(-14.0482 -52.6856 0)
(-13.5595 -61.0042 0)
(-13.1355 -68.3984 0)
(-12.7184 -74.6219 0)
(-12.1346 -79.1288 0)
(-10.9987 -80.7372 0)
(39.2225 12.429 0)
(45.5157 18.7053 0)
(49.6993 24.607 0)
(51.5899 32.3081 0)
(51.3187 43.232 0)
(49.2404 57.8044 0)
(45.6263 75.4586 0)
(40.612 94.9087 0)
(34.3314 114.55 0)
(26.9537 132.676 0)
(18.6604 147.736 0)
(9.78828 158.405 0)
(0.92548 163.072 0)
(-7.22969 161.035 0)
(-14.346 154.292 0)
(-20.1414 143.307 0)
(-24.3923 128.813 0)
(-27.039 111.841 0)
(-28.1897 93.5008 0)
(-27.9714 74.8144 0)
(-26.5054 56.7151 0)
(-23.9049 40.0635 0)
(-20.3578 25.5482 0)
(-17.8764 12.4541 0)
(-15.9917 -4.20095 0)
(-13.3005 -21.5399 0)
(-11.5547 -38.3258 0)
(-10.7428 -55.1235 0)
(-10.7564 -72.3453 0)
(-11.3682 -89.9226 0)
(-12.3691 -107.352 0)
(-13.5734 -123.826 0)
(-14.8071 -138.306 0)
(-15.8593 -149.406 0)
(-16.2068 -155.035 0)
(-15.4369 -153.317 0)
(-13.7976 -146.519 0)
(-11.2813 -135.095 0)
(-7.95443 -119.877 0)
(-3.97423 -101.953 0)
(0.462416 -82.5667 0)
(5.06923 -62.9268 0)
(9.32148 -44.0188 0)
(13.6932 -26.6534 0)
(20.0539 -9.69082 0)
(25.0311 6.25916 0)
(29.6055 19.4198 0)
(32.4372 30.9508 0)
(33.479 41.1664 0)
(33.1612 50.8589 0)
(31.7275 60.7208 0)
(29.3292 71.0219 0)
(26.0966 81.6843 0)
(22.1334 92.3102 0)
(17.5406 102.262 0)
(12.432 110.74 0)
(6.99129 116.776 0)
(1.53825 118.886 0)
(-3.57527 116.795 0)
(-8.15709 111.46 0)
(-12.0407 103.021 0)
(-15.0828 91.8737 0)
(-17.1844 78.6551 0)
(-18.2804 64.2416 0)
(-18.3601 49.5957 0)
(-17.417 35.5845 0)
(-15.6596 22.8321 0)
(-15.2179 10.6376 0)
(-14.737 -4.23951 0)
(-13.4607 -19.7273 0)
(-12.119 -34.0095 0)
(-11.1882 -47.2101 0)
(-10.7524 -59.6241 0)
(-10.6917 -71.3931 0)
(-10.8997 -82.5058 0)
(-11.2615 -92.7554 0)
(-11.6527 -101.706 0)
(-11.9231 -108.559 0)
(-11.6834 -111.777 0)
(-10.6759 -110.292 0)
(-9.08379 -105.442 0)
(-6.88764 -97.4477 0)
(-4.1338 -86.8001 0)
(-0.960256 -74.1903 0)
(2.45274 -60.4369 0)
(5.84584 -46.3668 0)
(8.78169 -32.6512 0)
(11.6508 -19.8601 0)
(15.9503 -6.95359 0)
(19.2684 5.77904 0)
(22.3455 17.2792 0)
(23.9935 27.5917 0)
(24.289 36.6438 0)
(23.6079 44.9035 0)
(22.1166 52.7625 0)
(19.9559 60.375 0)
(17.2687 67.7236 0)
(14.1612 74.6136 0)
(10.7205 80.6815 0)
(7.04121 85.3687 0)
(3.27404 87.7601 0)
(-0.358931 87.049 0)
(-3.69657 84.026 0)
(-6.64931 78.7332 0)
(-9.12762 71.3551 0)
(-11.0373 62.2398 0)
(-12.2865 51.9339 0)
(-12.8242 41.1198 0)
(-12.6417 30.4818 0)
(-11.7325 20.5761 0)
(-11.1798 11.3713 0)
(-11.6357 0.600057 0)
(-11.0359 -11.6918 0)
(-10.3163 -23.434 0)
(-9.52422 -34.2045 0)
(-8.92847 -44.0681 0)
(-8.59298 -53.0939 0)
(-8.47114 -61.2986 0)
(-8.46498 -68.6137 0)
(-8.52572 -74.8612 0)
(-8.55166 -79.5924 0)
(-8.23919 -81.781 0)
(27.2684 5.26425 0)
(34.0032 13.2246 0)
(38.593 21.4149 0)
(40.8343 31.326 0)
(41.0701 44.1143 0)
(39.6353 60.3051 0)
(36.6627 79.4073 0)
(32.2524 100.17 0)
(26.6966 121.006 0)
(20.08 140.098 0)
(12.6515 155.862 0)
(4.75283 166.828 0)
(-2.94011 171.02 0)
(-9.76011 168.082 0)
(-15.484 160.115 0)
(-19.8198 147.651 0)
(-22.5696 131.569 0)
(-23.7612 113.09 0)
(-23.6085 93.4037 0)
(-22.2961 73.4834 0)
(-19.9788 54.2751 0)
(-16.7149 36.7028 0)
(-12.5247 21.6181 0)
(-9.52065 9.12197 0)
(-6.02367 -6.34509 0)
(-2.3344 -24.4578 0)
(-0.610552 -39.479 0)
(0.16698 -55.3342 0)
(-0.0102611 -71.8813 0)
(-1.02425 -88.8918 0)
(-2.65349 -105.911 0)
(-4.68716 -122.167 0)
(-6.96691 -136.609 0)
(-9.29524 -147.928 0)
(-11.2572 -154.408 0)
(-12.3135 -153.52 0)
(-12.5286 -147.625 0)
(-11.8465 -137.115 0)
(-10.2177 -122.725 0)
(-7.72857 -105.464 0)
(-4.54108 -86.4966 0)
(-0.865005 -67.0055 0)
(2.8474 -48.0381 0)
(5.85396 -30.4897 0)
(10.2198 -15.2421 0)
(15.3496 1.0658 0)
(20.2527 15.5218 0)
(23.5243 28.7574 0)
(24.804 40.5197 0)
(24.9552 51.4443 0)
(24.1138 62.3346 0)
(22.3026 73.5289 0)
(19.6625 84.967 0)
(16.3243 96.2537 0)
(12.418 106.746 0)
(8.06996 115.614 0)
(3.48603 121.806 0)
(-0.967994 123.666 0)
(-4.97244 121.128 0)
(-8.39594 115.164 0)
(-11.0779 105.957 0)
(-12.9502 93.963 0)
(-14.0193 79.831 0)
(-14.3155 64.457 0)
(-13.8467 48.8623 0)
(-12.4287 34.1338 0)
(-9.84924 21.2421 0)
(-8.41059 9.88969 0)
(-7.46233 -4.99398 0)
(-5.748 -21.8435 0)
(-3.85133 -35.2378 0)
(-3.06407 -47.7135 0)
(-2.87047 -59.6618 0)
(-3.20402 -71.0819 0)
(-3.9247 -81.9463 0)
(-4.90757 -92.0555 0)
(-6.04489 -100.986 0)
(-7.20454 -108.011 0)
(-8.06678 -111.842 0)
(-8.30443 -110.919 0)
(-7.98998 -106.674 0)
(-7.08056 -99.2834 0)
(-5.56858 -89.1696 0)
(-3.53107 -76.9512 0)
(-1.11345 -63.3702 0)
(1.48959 -49.2112 0)
(3.92823 -35.2058 0)
(5.56341 -22.0987 0)
(8.37421 -10.7066 0)
(11.8449 2.40595 0)
(15.3315 14.795 0)
(17.1928 26.2845 0)
(17.6791 36.482 0)
(17.4168 45.6911 0)
(16.4363 54.3091 0)
(14.7985 62.5246 0)
(12.65 70.3472 0)
(10.105 77.6009 0)
(7.26377 83.9321 0)
(4.23398 88.7674 0)
(1.19573 91.1012 0)
(-1.62422 90.1476 0)
(-4.10701 86.7792 0)
(-6.17763 81.0598 0)
(-7.7915 73.1908 0)
(-8.92832 63.5096 0)
(-9.56165 52.5591 0)
(-9.64967 41.0609 0)
(-9.12268 29.8251 0)
(-7.75063 19.6215 0)
(-6.09088 10.8371 0)
(-6.59464 0.363188 0)
(-5.77964 -12.5991 0)
(-4.41618 -24.4269 0)
(-3.5312 -34.8347 0)
(-3.24381 -44.387 0)
(-3.17182 -53.1613 0)
(-3.33644 -61.1705 0)
(-3.72738 -68.3601 0)
(-4.2801 -74.5557 0)
(-4.89928 -79.3671 0)
(-5.35074 -81.9565 0)
(-12.3739 173.662 0)
(-16.4529 164.401 0)
(-19.129 150.421 0)
(-20.2713 132.779 0)
(-19.9374 112.898 0)
(-18.311 92.0143 0)
(-15.6651 71.0768 0)
(-12.3634 51.095 0)
(-8.82816 32.9472 0)
(-5.06658 17.6831 0)
(-0.58044 6.36531 0)
(4.73235 -10.662 0)
(8.15418 -27.227 0)
(10.199 -41.283 0)
(10.9228 -55.6512 0)
(10.4257 -71.0657 0)
(8.95311 -87.3044 0)
(6.74289 -103.755 0)
(3.90139 -119.581 0)
(0.619827 -133.777 0)
(-2.90499 -145.109 0)
(-6.32794 -151.998 0)
(-9.08616 -152.031 0)
(-11.014 -146.938 0)
(-12.0526 -137.371 0)
(-12.0814 -123.946 0)
(-11.1077 -107.567 0)
(-9.25972 -89.3474 0)
(-6.72198 -70.3495 0)
(-3.81574 -51.5446 0)
(-1.13388 -33.797 0)
(1.19521 -17.8411 0)
(5.56507 -5.23376 0)
(10.807 11.6693 0)
(14.5196 26.8225 0)
(15.8131 39.5266 0)
(16.2627 51.5073 0)
(15.9034 63.3714 0)
(14.6103 75.4453 0)
(12.5292 87.6324 0)
(9.82666 99.5203 0)
(6.65749 110.469 0)
(3.14838 119.629 0)
(-0.486927 125.867 0)
(-3.83521 127.322 0)
(-6.61514 124.27 0)
(-8.74442 117.593 0)
(-10.0737 107.59 0)
(-10.5894 94.8422 0)
(-10.4007 80.0397 0)
(-9.64988 63.9978 0)
(-8.45754 47.5972 0)
(-6.78975 31.8744 0)
(-4.55892 18.1093 0)
(-2.35462 7.6355 0)
(0.362128 -4.8939 0)
(2.86134 -24.16 0)
(4.17302 -36.6739 0)
(5.02931 -48.3351 0)
(5.01207 -59.4989 0)
(4.29998 -70.3443 0)
(3.0497 -80.8066 0)
(1.40946 -90.6527 0)
(-0.491815 -99.4425 0)
(-2.51869 -106.495 0)
(-4.42275 -110.739 0)
(-5.85108 -110.321 0)
(-6.75289 -106.637 0)
(-7.07916 -99.8492 0)
(-6.78134 -90.3277 0)
(-5.88751 -78.6249 0)
(-4.5139 -65.4125 0)
(-2.83584 -51.4452 0)
(-1.0863 -37.4036 0)
(0.297559 -23.9375 0)
(1.69441 -11.9208 0)
(4.53516 -3.13164 0)
(8.17781 12.7605 0)
(10.1723 25.4664 0)
(10.82 36.2859 0)
(10.8788 46.1717 0)
(10.3186 55.3994 0)
(9.16041 64.1473 0)
(7.54255 72.3998 0)
(5.57753 79.9758 0)
(3.36911 86.5243 0)
(1.03141 91.4444 0)
(-1.22151 93.6107 0)
(-3.16283 92.3615 0)
(-4.71771 88.5955 0)
(-5.81687 82.4335 0)
(-6.43479 74.1266 0)
(-6.60824 64.0214 0)
(-6.41013 52.628 0)
(-5.90314 40.5896 0)
(-5.09503 28.6759 0)
(-3.81659 17.779 0)
(-1.98448 8.88315 0)
(-1.31361 2.14498 0)
(0.41335 -14.5523 0)
(1.37426 -25.5874 0)
(2.24687 -35.4367 0)
(2.59397 -44.5706 0)
(2.45757 -52.9898 0)
(1.86903 -60.7094 0)
(0.99288 -67.6661 0)
(-0.111536 -73.7045 0)
(-1.34489 -78.4873 0)
(-2.52467 -81.3181 0)
(5.43658 0.108825 0)
(4.87129 0.397385 0)
(3.76031 0.664616 0)
(2.21186 0.835992 0)
(0.557391 0.965495 0)
(-1.04511 0.895424 0)
(-2.5309 0.697842 0)
(-3.68652 0.473634 0)
(-4.43932 0.257259 0)
(-4.79453 0.0680727 0)
(-4.8042 -0.0862752 0)
(-4.54849 -0.194067 0)
(-4.10884 -0.264998 0)
(-3.56679 -0.294978 0)
(-2.97808 -0.286168 0)
(-2.46712 -0.239994 0)
(-2.07682 -0.167053 0)
(-1.84138 -0.0749456 0)
(-1.7992 0.015027 0)
(-1.89449 0.0828686 0)
(-2.08582 0.112919 0)
(-2.29299 0.096119 0)
(-2.4412 0.0355322 0)
(-2.45259 -0.0560865 0)
(-2.26748 -0.162195 0)
(-1.85971 -0.271107 0)
(-1.23065 -0.373738 0)
(-0.407307 -0.460247 0)
(0.573126 -0.514034 0)
(1.62249 -0.529121 0)
(2.68111 -0.516119 0)
(3.55469 -0.519314 0)
(4.27636 -0.357183 0)
(4.84279 -0.206728 0)
(5.10959 -0.0617624 0)
(5.05747 0.0910606 0)
(4.69631 0.22405 0)
(4.09211 0.310307 0)
(3.27051 0.417176 0)
(2.38907 0.517606 0)
(1.55027 0.477904 0)
(0.705405 0.409851 0)
(-0.0187214 0.323621 0)
(-0.555761 0.224867 0)
(-0.897534 0.121458 0)
(-1.04593 0.0269254 0)
(-1.01915 -0.0489703 0)
(-0.855128 -0.100975 0)
(-0.602647 -0.127126 0)
(-0.315985 -0.126883 0)
(-0.0503998 -0.101578 0)
(0.144574 -0.0559935 0)
(0.232418 0.00189335 0)
(0.194243 0.0633788 0)
(0.0283331 0.120991 0)
(-0.253096 0.169114 0)
(-0.627246 0.20345 0)
(-1.06461 0.22209 0)
(-1.53274 0.225362 0)
(-1.99871 0.213687 0)
(-2.42873 0.18671 0)
(-2.7885 0.144629 0)
(-3.04633 0.0879995 0)
(-3.1733 0.0186943 0)
(-3.14723 -0.0584299 0)
(-2.95804 -0.13631 0)
(-2.60622 -0.206124 0)
(-2.12019 -0.263112 0)
(-1.52516 -0.304379 0)
(-0.853309 -0.330467 0)
(-0.145251 -0.341661 0)
(0.533301 -0.353427 0)
(1.15206 -0.296367 0)
(1.70236 -0.249675 0)
(2.15024 -0.190037 0)
(2.47147 -0.133226 0)
(2.66251 -0.0692167 0)
(2.72035 -0.00851791 0)
(2.64976 0.0419586 0)
(2.47848 0.0806078 0)
(2.23316 0.105859 0)
(1.94305 0.12027 0)
(1.63614 0.123464 0)
(1.34822 0.132023 0)
(1.10841 0.108046 0)
(0.899174 0.0885144 0)
(0.734749 0.0680346 0)
(0.617378 0.0493532 0)
(0.540029 0.0358816 0)
(0.489395 0.0297117 0)
(0.450169 0.0306589 0)
(0.406927 0.038629 0)
(0.344202 0.0533053 0)
(0.247704 0.0733781 0)
(0.106521 0.0966178 0)
(-0.0852008 0.120384 0)
(-0.327212 0.14186 0)
(-0.612868 0.158328 0)
(-0.929866 0.16765 0)
(-1.26228 0.169118 0)
(-1.59264 0.163008 0)
(-1.90426 0.148979 0)
(-2.1762 0.126413 0)
(-2.39396 0.0951121 0)
(-2.5385 0.05585 0)
(-2.59574 0.0112615 0)
(-2.55789 -0.0355888 0)
(-2.42305 -0.0821571 0)
(-2.19333 -0.126572 0)
(-1.87084 -0.167074 0)
(-1.45602 -0.207232 0)
(-1.0307 -0.288388 0)
(-0.57187 -0.27868 0)
(-0.069678 -0.263569 0)
(0.427388 -0.243305 0)
(0.887964 -0.216039 0)
(1.29169 -0.182864 0)
(1.62227 -0.145776 0)
(1.8689 -0.105973 0)
(2.02412 -0.065282 0)
(2.09269 -0.0267208 0)
(2.08225 0.00909012 0)
(4.94575 0.511823 0)
(4.15063 1.34731 0)
(2.85181 1.91787 0)
(1.37273 2.4028 0)
(-0.242584 2.5433 0)
(-1.8677 2.29816 0)
(-3.14793 1.81675 0)
(-4.04004 1.22783 0)
(-4.53799 0.64049 0)
(-4.68426 0.121618 0)
(-4.53448 -0.294582 0)
(-4.17659 -0.590874 0)
(-3.6915 -0.771452 0)
(-3.13394 -0.850157 0)
(-2.58309 -0.807736 0)
(-2.10325 -0.652848 0)
(-1.75391 -0.427049 0)
(-1.56519 -0.171981 0)
(-1.54272 0.069829 0)
(-1.66392 0.243328 0)
(-1.87134 0.311152 0)
(-2.07947 0.252402 0)
(-2.19819 0.0737199 0)
(-2.15071 -0.197407 0)
(-1.89545 -0.513179 0)
(-1.42094 -0.831703 0)
(-0.750747 -1.13082 0)
(0.0965934 -1.37858 0)
(1.07671 -1.52088 0)
(2.09867 -1.54026 0)
(3.04722 -1.4313 0)
(3.91913 -1.24266 0)
(4.53544 -0.882637 0)
(4.86401 -0.481694 0)
(4.91797 -0.0486559 0)
(4.71208 0.356124 0)
(4.20661 0.785066 0)
(3.55271 1.14533 0)
(2.83649 1.31328 0)
(1.9146 1.42531 0)
(0.942361 1.3617 0)
(0.105637 1.18516 0)
(-0.585707 0.931204 0)
(-1.08514 0.635615 0)
(-1.36588 0.327915 0)
(-1.43434 0.04169 0)
(-1.31487 -0.191947 0)
(-1.06348 -0.353622 0)
(-0.73306 -0.436341 0)
(-0.377334 -0.437099 0)
(-0.0544026 -0.359617 0)
(0.182655 -0.217817 0)
(0.296272 -0.0365097 0)
(0.270333 0.156083 0)
(0.108169 0.336367 0)
(-0.173557 0.487522 0)
(-0.545744 0.596252 0)
(-0.97559 0.657107 0)
(-1.43226 0.670307 0)
(-1.88161 0.636524 0)
(-2.29128 0.553807 0)
(-2.62668 0.423125 0)
(-2.85308 0.250343 0)
(-2.94759 0.0418651 0)
(-2.88503 -0.193291 0)
(-2.65359 -0.433955 0)
(-2.26169 -0.649687 0)
(-1.73646 -0.821222 0)
(-1.1129 -0.944451 0)
(-0.428402 -1.0174 0)
(0.268875 -1.03044 0)
(0.956928 -0.992569 0)
(1.57133 -0.876772 0)
(2.06705 -0.717821 0)
(2.44803 -0.533291 0)
(2.6902 -0.319396 0)
(2.78317 -0.147019 0)
(2.74675 0.0612056 0)
(2.5707 0.230336 0)
(2.29569 0.342884 0)
(1.96386 0.420728 0)
(1.61282 0.455034 0)
(1.28587 0.450029 0)
(0.951984 0.432312 0)
(0.653245 0.373984 0)
(0.420085 0.301661 0)
(0.246145 0.224935 0)
(0.13169 0.152778 0)
(0.0679284 0.100517 0)
(0.0374962 0.0712525 0)
(0.0231827 0.0637581 0)
(0.00897117 0.0787886 0)
(-0.0219418 0.116309 0)
(-0.0850754 0.172502 0)
(-0.192999 0.24073 0)
(-0.351733 0.312425 0)
(-0.560664 0.378092 0)
(-0.811873 0.428734 0)
(-1.09093 0.456956 0)
(-1.38055 0.460141 0)
(-1.66304 0.439923 0)
(-1.92337 0.396089 0)
(-2.14442 0.326599 0)
(-2.3062 0.231513 0)
(-2.39014 0.112896 0)
(-2.38191 -0.0210334 0)
(-2.27599 -0.158555 0)
(-2.0751 -0.291002 0)
(-1.78728 -0.41501 0)
(-1.42563 -0.530156 0)
(-1.01928 -0.644298 0)
(-0.516696 -0.758692 0)
(0.0337455 -0.771789 0)
(0.541516 -0.7508 0)
(1.01879 -0.700037 0)
(1.44401 -0.618705 0)
(1.79544 -0.511858 0)
(2.05847 -0.387034 0)
(2.2172 -0.253928 0)
(2.28514 -0.12226 0)
(2.26086 0.00214765 0)
(2.15107 0.112144 0)
(3.281 0.910464 0)
(2.79036 2.29603 0)
(2.14769 3.44246 0)
(1.192 3.99932 0)
(-0.25428 3.98728 0)
(-1.59212 3.54979 0)
(-2.65873 2.74377 0)
(-3.36098 1.77569 0)
(-3.7057 0.834641 0)
(-3.75464 0.0261185 0)
(-3.59968 -0.587788 0)
(-3.31884 -0.984212 0)
(-2.96563 -1.18757 0)
(-2.56375 -1.31824 0)
(-2.14035 -1.27932 0)
(-1.76448 -1.03717 0)
(-1.50578 -0.665396 0)
(-1.38863 -0.25335 0)
(-1.39427 0.129801 0)
(-1.49988 0.402828 0)
(-1.69189 0.514982 0)
(-1.88285 0.413998 0)
(-1.9871 0.110855 0)
(-1.92948 -0.354123 0)
(-1.68148 -0.897181 0)
(-1.24322 -1.40394 0)
(-0.661004 -1.86756 0)
(0.0779015 -2.27574 0)
(0.948807 -2.51052 0)
(1.85996 -2.52123 0)
(2.70833 -2.29944 0)
(3.43038 -1.84172 0)
(3.95978 -1.29176 0)
(4.24985 -0.661783 0)
(4.26153 0.0513546 0)
(4.06246 0.810563 0)
(3.69149 1.46309 0)
(3.03819 1.97967 0)
(2.20889 2.23368 0)
(1.37487 2.2742 0)
(0.534055 2.16636 0)
(-0.208594 1.87791 0)
(-0.792521 1.45383 0)
(-1.18156 0.951331 0)
(-1.35735 0.420398 0)
(-1.31057 -0.0744108 0)
(-1.08951 -0.458075 0)
(-0.756678 -0.705418 0)
(-0.356841 -0.832076 0)
(0.0635721 -0.820072 0)
(0.443985 -0.663089 0)
(0.72234 -0.389554 0)
(0.855787 -0.0522967 0)
(0.831516 0.2947 0)
(0.659853 0.611538 0)
(0.361635 0.871506 0)
(-0.0267755 1.04764 0)
(-0.47357 1.14082 0)
(-0.954074 1.15625 0)
(-1.43932 1.09535 0)
(-1.90168 0.950851 0)
(-2.30584 0.721852 0)
(-2.62007 0.422926 0)
(-2.81056 0.0612048 0)
(-2.84243 -0.349414 0)
(-2.69933 -0.769927 0)
(-2.38395 -1.13922 0)
(-1.92917 -1.42357 0)
(-1.36918 -1.62039 0)
(-0.737181 -1.72331 0)
(-0.0794644 -1.71719 0)
(0.561907 -1.59624 0)
(1.13756 -1.39712 0)
(1.59008 -1.12289 0)
(1.92001 -0.813161 0)
(2.132 -0.488114 0)
(2.23091 -0.151292 0)
(2.20257 0.199765 0)
(2.0388 0.478966 0)
(1.78778 0.683053 0)
(1.49272 0.797917 0)
(1.14756 0.840537 0)
(0.81873 0.8063 0)
(0.535009 0.711353 0)
(0.303015 0.594247 0)
(0.136697 0.462809 0)
(0.0403501 0.326003 0)
(0.0185493 0.19312 0)
(0.0599108 0.100025 0)
(0.138803 0.050781 0)
(0.228296 0.0404126 0)
(0.314726 0.0676841 0)
(0.37721 0.135424 0)
(0.394771 0.237902 0)
(0.351355 0.362695 0)
(0.237692 0.494693 0)
(0.0524849 0.616498 0)
(-0.197311 0.711354 0)
(-0.494569 0.764419 0)
(-0.818497 0.77098 0)
(-1.14737 0.737248 0)
(-1.46618 0.663709 0)
(-1.76189 0.543099 0)
(-2.01246 0.373821 0)
(-2.19273 0.160116 0)
(-2.28074 -0.0813839 0)
(-2.26763 -0.32797 0)
(-2.15559 -0.56148 0)
(-1.95068 -0.774199 0)
(-1.65793 -0.961865 0)
(-1.28732 -1.11669 0)
(-0.855539 -1.21577 0)
(-0.371176 -1.27141 0)
(0.139214 -1.25246 0)
(0.628541 -1.15407 0)
(1.07304 -1.00617 0)
(1.44987 -0.814819 0)
(1.74111 -0.590986 0)
(1.934 -0.352366 0)
(2.02899 -0.122208 0)
(2.03849 0.0907909 0)
(1.96646 0.277382 0)
(2.53029 0.911008 0)
(2.75058 2.89298 0)
(2.35543 4.56936 0)
(1.35898 5.43114 0)
(0.292478 5.61525 0)
(-0.718213 5.03062 0)
(-1.48485 3.8088 0)
(-1.96144 2.37709 0)
(-2.19212 1.07532 0)
(-2.27711 0.0150319 0)
(-2.3062 -0.835149 0)
(-2.36905 -1.49838 0)
(-2.51569 -1.95483 0)
(-2.63208 -2.0788 0)
(-2.5617 -1.88602 0)
(-2.37955 -1.43176 0)
(-2.22911 -0.833154 0)
(-2.15144 -0.213333 0)
(-2.10299 0.343793 0)
(-2.0685 0.747559 0)
(-2.02592 0.930038 0)
(-1.93256 0.778632 0)
(-1.76936 0.312716 0)
(-1.44337 -0.383134 0)
(-0.984922 -1.17025 0)
(-0.479423 -1.86655 0)
(0.0404642 -2.5085 0)
(0.616947 -3.1015 0)
(1.30561 -3.44058 0)
(2.02506 -3.41118 0)
(2.66034 -3.05085 0)
(3.1499 -2.41372 0)
(3.4436 -1.60983 0)
(3.52919 -0.735558 0)
(3.41365 0.137358 0)
(3.11079 1.05381 0)
(2.63411 1.85648 0)
(1.98782 2.44605 0)
(1.27769 2.86904 0)
(0.581684 3.02775 0)
(-0.0592377 2.92457 0)
(-0.554985 2.55432 0)
(-0.8689 1.97931 0)
(-0.994111 1.27582 0)
(-0.935009 0.533077 0)
(-0.696361 -0.151464 0)
(-0.343743 -0.696135 0)
(0.063778 -1.06063 0)
(0.491111 -1.23613 0)
(0.910539 -1.23982 0)
(1.25622 -1.0502 0)
(1.4524 -0.678802 0)
(1.45759 -0.205653 0)
(1.28242 0.284626 0)
(0.966692 0.737179 0)
(0.54705 1.10565 0)
(0.0725008 1.38604 0)
(-0.41946 1.56258 0)
(-0.90758 1.63534 0)
(-1.38648 1.59334 0)
(-1.84614 1.4354 0)
(-2.25406 1.16715 0)
(-2.57952 0.790713 0)
(-2.80175 0.30976 0)
(-2.86922 -0.263408 0)
(-2.72679 -0.870501 0)
(-2.39441 -1.39659 0)
(-1.94034 -1.80578 0)
(-1.40895 -2.12335 0)
(-0.813026 -2.32997 0)
(-0.184969 -2.37162 0)
(0.412578 -2.21791 0)
(0.924521 -1.91345 0)
(1.32167 -1.52976 0)
(1.61546 -1.09926 0)
(1.79184 -0.674685 0)
(1.84085 -0.22095 0)
(1.81437 0.237883 0)
(1.65117 0.633412 0)
(1.38911 0.920805 0)
(1.07087 1.07773 0)
(0.751226 1.12095 0)
(0.460065 1.0787 0)
(0.221493 0.960245 0)
(0.0484276 0.791509 0)
(-0.0551338 0.594505 0)
(-0.0766235 0.374515 0)
(-0.00309258 0.151824 0)
(0.141873 -0.00285389 0)
(0.31101 -0.0914309 0)
(0.486046 -0.115348 0)
(0.659597 -0.0733265 0)
(0.807297 0.0307229 0)
(0.898792 0.190543 0)
(0.911216 0.389036 0)
(0.830255 0.602489 0)
(0.651478 0.805874 0)
(0.383911 0.970379 0)
(0.0462164 1.07593 0)
(-0.332019 1.11315 0)
(-0.720905 1.07895 0)
(-1.11459 0.996181 0)
(-1.49994 0.865232 0)
(-1.84966 0.659167 0)
(-2.13028 0.376958 0)
(-2.3062 0.0463825 0)
(-2.36174 -0.288439 0)
(-2.31859 -0.60579 0)
(-2.18929 -0.907927 0)
(-1.9754 -1.19554 0)
(-1.68253 -1.44841 0)
(-1.30804 -1.64361 0)
(-0.871147 -1.74819 0)
(-0.414165 -1.74665 0)
(0.0500494 -1.64574 0)
(0.50445 -1.45682 0)
(0.925433 -1.19344 0)
(1.27138 -0.879145 0)
(1.52017 -0.554934 0)
(1.6809 -0.247951 0)
(1.75363 0.0540924 0)
(1.73716 0.331143 0)
(-1.12494 0.197804 0)
(-0.304505 2.35311 0)
(0.385531 4.28298 0)
(0.583561 5.69573 0)
(0.656715 6.13343 0)
(0.785567 5.40918 0)
(0.921459 4.06231 0)
(1.21027 2.53211 0)
(1.54581 1.20543 0)
(1.83757 0.228933 0)
(2.03375 -0.32361 0)
(1.98096 -0.384184 0)
(1.66893 0.0140573 0)
(1.07725 -0.652687 0)
(0.153668 -1.22975 0)
(-0.922991 -1.32136 0)
(-1.95685 -1.02146 0)
(-2.77544 -0.733895 0)
(-3.33408 -0.387219 0)
(-3.62509 -0.10504 0)
(-3.61692 0.0637762 0)
(-3.33972 -0.059643 0)
(-2.73421 -0.550013 0)
(-1.69065 -1.23626 0)
(-0.481373 -1.81486 0)
(0.519869 -2.20018 0)
(1.2572 -2.64823 0)
(1.93151 -3.31733 0)
(2.59114 -3.73484 0)
(3.11814 -3.78918 0)
(3.40918 -3.51339 0)
(3.47088 -2.85375 0)
(3.25128 -1.99258 0)
(2.78843 -0.98374 0)
(2.20668 0.124609 0)
(1.61702 1.3473 0)
(0.872258 2.4534 0)
(0.0493892 3.26511 0)
(-0.752438 3.72131 0)
(-1.45705 3.7791 0)
(-1.96219 3.46533 0)
(-2.09786 2.78669 0)
(-2.00107 1.99124 0)
(-1.63104 1.10724 0)
(-1.0287 0.1617 0)
(-0.287883 -0.718575 0)
(0.508933 -1.27996 0)
(1.2373 -1.54565 0)
(1.93743 -1.74777 0)
(2.56036 -1.65898 0)
(3.03713 -1.24987 0)
(3.27773 -0.599079 0)
(3.21702 0.146794 0)
(2.88113 0.844292 0)
(2.25783 1.42875 0)
(1.54609 1.91816 0)
(0.755697 2.11251 0)
(-0.0636043 2.19658 0)
(-0.863347 2.17573 0)
(-1.62021 2.09884 0)
(-2.30238 1.8853 0)
(-2.91734 1.47681 0)
(-3.47027 0.999457 0)
(-3.92407 0.397208 0)
(-4.18733 -0.378772 0)
(-4.11656 -1.3043 0)
(-3.69702 -2.03112 0)
(-3.15594 -2.50167 0)
(-2.54317 -2.85019 0)
(-1.82072 -3.03267 0)
(-1.00251 -2.99996 0)
(-0.187253 -2.72665 0)
(0.50271 -2.2758 0)
(1.05256 -1.80356 0)
(1.47928 -1.28676 0)
(1.78042 -0.789152 0)
(2.0144 -0.226885 0)
(2.00598 0.38223 0)
(1.85177 0.933326 0)
(1.57919 1.29927 0)
(1.26397 1.47564 0)
(0.960443 1.49708 0)
(0.716128 1.38017 0)
(0.566683 1.1526 0)
(0.497898 0.871969 0)
(0.491685 0.561338 0)
(0.571426 0.277969 0)
(0.718265 -0.068966 0)
(0.988226 -0.243213 0)
(1.25308 -0.307255 0)
(1.5021 -0.318974 0)
(1.724 -0.278243 0)
(1.91012 -0.123265 0)
(2.02107 0.115 0)
(2.02465 0.416683 0)
(1.89714 0.75214 0)
(1.62806 1.0737 0)
(1.23656 1.36229 0)
(0.710258 1.54724 0)
(0.124181 1.56023 0)
(-0.473882 1.54122 0)
(-1.05703 1.49467 0)
(-1.65522 1.31973 0)
(-2.26069 1.05346 0)
(-2.80189 0.65895 0)
(-3.20695 0.169707 0)
(-3.44783 -0.316909 0)
(-3.55462 -0.745684 0)
(-3.55822 -1.142 0)
(-3.43014 -1.51383 0)
(-3.15204 -1.81112 0)
(-2.74519 -2.03431 0)
(-2.23267 -2.16594 0)
(-1.64293 -2.18411 0)
(-1.01532 -2.09109 0)
(-0.375973 -1.90753 0)
(0.241988 -1.63143 0)
(0.780788 -1.23717 0)
(1.17921 -0.773381 0)
(1.49981 -0.33453 0)
(1.74505 0.0481845 0)
(1.87846 0.393711 0)
(-13.2182 -1.05927 0)
(-10.8916 0.943646 0)
(-8.45292 3.21736 0)
(-6.11676 5.12834 0)
(-4.10252 6.00332 0)
(-2.72646 5.59293 0)
(-2.02539 4.06373 0)
(-1.64175 2.27239 0)
(-1.4418 0.885253 0)
(-1.30549 -0.224996 0)
(-1.22714 -1.09126 0)
(-1.41539 -1.60797 0)
(-1.50724 -1.82503 0)
(-1.26396 -1.43338 0)
(-1.07574 -0.622129 0)
(-0.956417 0.272551 0)
(-1.05344 0.841763 0)
(-1.26392 1.2062 0)
(-1.37724 1.52401 0)
(-1.39486 1.43896 0)
(-1.18123 1.16455 0)
(-0.600381 0.251211 0)
(0.415951 -0.899136 0)
(1.78395 -2.09839 0)
(4.09036 -3.41466 0)
(6.25841 -3.5869 0)
(7.7592 -3.90096 0)
(8.94482 -4.94336 0)
(9.82157 -5.16981 0)
(9.9951 -4.59383 0)
(9.59311 -3.67465 0)
(8.80481 -2.24904 0)
(7.68452 -0.714787 0)
(6.39272 0.685963 0)
(5.04402 1.58006 0)
(2.86734 2.63088 0)
(0.567839 3.42872 0)
(-1.69939 3.9383 0)
(-3.76681 4.17519 0)
(-5.45782 4.02198 0)
(-6.48854 3.46674 0)
(-6.74022 2.57811 0)
(-6.47093 1.49044 0)
(-5.7158 0.330322 0)
(-4.53769 -0.762087 0)
(-3.10124 -1.58222 0)
(-1.59854 -2.10651 0)
(0.0415428 -2.4056 0)
(1.4703 -2.44377 0)
(2.51233 -2.30766 0)
(3.12937 -1.82086 0)
(3.25776 -0.916134 0)
(2.97532 0.12073 0)
(2.3895 1.12488 0)
(1.56301 1.93187 0)
(0.640216 2.41868 0)
(-0.553565 2.8887 0)
(-1.69216 3.06322 0)
(-2.71299 3.12499 0)
(-3.58598 2.99208 0)
(-4.19626 2.72281 0)
(-4.56621 2.39896 0)
(-4.7459 1.87979 0)
(-4.83035 1.10256 0)
(-4.76489 -0.017139 0)
(-4.22028 -1.29944 0)
(-3.21427 -2.20556 0)
(-2.26985 -2.69105 0)
(-1.50608 -3.2185 0)
(-0.780317 -3.74448 0)
(-0.0312426 -4.0294 0)
(0.678443 -3.88334 0)
(1.15157 -3.37714 0)
(1.4468 -2.71118 0)
(1.73072 -1.93675 0)
(1.94005 -1.19779 0)
(2.1392 -0.412868 0)
(2.13717 0.433314 0)
(1.97188 1.05587 0)
(1.60369 1.44333 0)
(1.1921 1.63962 0)
(0.851135 1.62993 0)
(0.634618 1.43273 0)
(0.554489 1.15723 0)
(0.615973 0.87382 0)
(0.856424 0.584998 0)
(1.27246 0.230305 0)
(1.7782 -0.299612 0)
(2.27799 -0.47644 0)
(2.76203 -0.570144 0)
(3.16846 -0.569244 0)
(3.45183 -0.47359 0)
(3.59098 -0.269763 0)
(3.54758 0.0809995 0)
(3.33782 0.517213 0)
(2.9406 0.997523 0)
(2.3386 1.47183 0)
(1.54161 1.85013 0)
(0.615271 2.07458 0)
(-0.341722 2.25797 0)
(-1.30055 2.25074 0)
(-2.07245 2.15516 0)
(-2.79872 2.0884 0)
(-3.52404 1.81829 0)
(-4.14587 1.35798 0)
(-4.52154 0.728484 0)
(-4.6381 0.0816886 0)
(-4.64449 -0.459131 0)
(-4.65623 -0.964769 0)
(-4.61675 -1.52372 0)
(-4.46045 -2.08381 0)
(-4.15071 -2.55974 0)
(-3.68409 -2.84537 0)
(-3.12789 -2.9841 0)
(-2.47736 -2.96521 0)
(-1.78516 -2.75816 0)
(-1.10841 -2.34623 0)
(-0.500454 -1.80651 0)
(0.132739 -1.26958 0)
(0.733555 -0.910255 0)
(1.21876 -0.355035 0)
(1.63054 0.147916 0)
(-20.3649 -4.72574 0)
(-19.6127 -2.53557 0)
(-17.8889 -0.489512 0)
(-15.1144 1.08211 0)
(-11.5909 2.34632 0)
(-7.96244 3.07831 0)
(-5.09364 2.68858 0)
(-3.30983 1.42747 0)
(-1.99494 0.22595 0)
(-1.45947 -0.217684 0)
(-2.28516 -0.00624809 0)
(-4.5571 0.422381 0)
(-7.83209 0.470068 0)
(-11.9601 -0.0670657 0)
(-16.2339 -0.920776 0)
(-20.2742 -1.04491 0)
(-23.9661 -0.232885 0)
(-26.9988 -0.223281 0)
(-28.8012 -0.606208 0)
(-28.5313 -1.13723 0)
(-24.5723 -1.52783 0)
(-19.7431 -1.5868 0)
(-13.6268 -3.11045 0)
(-7.21686 -6.32002 0)
(0.921986 -7.32954 0)
(8.53546 -5.89559 0)
(14.939 -4.93735 0)
(20.8036 -4.51338 0)
(25.6252 -3.63565 0)
(28.3672 -2.53631 0)