/*--------------------------------*- C++ -*----------------------------------*\
| =========                 |                                                 |
| \\      /  F ield         | OpenFOAM: The Open Source CFD Toolbox           |
|  \\    /   O peration     | Version:  2206                                  |
|   \\  /    A nd           | Website:  www.openfoam.com                      |
|    \\/     M anipulation  |                                                 |
\*---------------------------------------------------------------------------*/
FoamFile
{
    version     2.0;
    format      ascii;
    arch        "LSB;label=32;scalar=64";
    class       surfaceScalarField;
    location    "19.8999";
    object      ddtCorrDdt0(phi);
}
// * * * * * * * * * * * * * * * * * * * * * * * * * * * * * * * * * * * * * //

dimensions      [0 3 -2 0 0 0 0];

oriented        oriented;

internalField   nonuniform List<scalar> 
3538
(
7.09303e-05
0.000204798
-0.000167603
3.34665e-05
0.000249712
-0.000212248
-4.66348e-06
0.000284139
-0.000246009
-4.23661e-05
0.000302857
-0.000265154
-7.6295e-05
0.000299966
-0.000266037
-0.000106313
0.000280537
-0.000250518
-0.00013164
0.000248244
-0.000222917
-0.000152304
0.000206251
-0.000185587
-0.000169027
0.00015796
-0.000141237
-0.000182686
0.000105928
-9.22692e-05
-0.000192999
5.11829e-05
-4.08699e-05
-0.000198945
-5.21189e-06
1.11583e-05
-0.00020078
-6.0797e-05
6.26317e-05
-0.000199613
-0.000112867
0.0001117
-0.000197214
-0.000159065
0.000156666
-0.000194175
-0.00019925
0.000196211
-0.000187665
-0.000233211
0.000226701
-0.000172602
-0.000258933
0.00024387
-0.00014676
-0.000271349
0.000245507
-0.000111892
-0.000268915
0.000234047
-6.92978e-05
-0.000255053
0.000212459
-1.93811e-05
-0.000232206
0.00018229
4.10625e-05
-0.000201172
0.000140729
0.000106266
-0.000160163
9.49594e-05
0.000166343
-0.000110752
5.06748e-05
0.000210857
-6.07949e-05
1.62807e-05
0.000232515
-1.74189e-05
-4.23927e-06
0.000232315
1.29284e-05
-1.27282e-05
0.000218013
3.01156e-05
-1.58129e-05
0.000195972
4.09864e-05
-1.89457e-05
0.000170146
5.11224e-05
-2.52961e-05
0.000143607
6.28247e-05
-3.62859e-05
0.000117141
7.91937e-05
-5.27276e-05
9.06725e-05
0.000100676
-7.42079e-05
6.50416e-05
0.000123014
-9.73832e-05
4.04512e-05
0.000144851
-0.000120261
1.68488e-05
0.000164524
-0.000140922
-5.99401e-06
0.00017965
-0.000156807
-2.74298e-05
0.000186844
-0.000165408
-4.64639e-05
0.000182972
-0.000163938
-6.31624e-05
0.000170475
-0.000153777
-7.69726e-05
0.000150759
-0.000136949
-8.77463e-05
0.000125675
-0.000114901
-9.58864e-05
9.73415e-05
-8.92014e-05
-0.000102184
6.75054e-05
-6.12076e-05
-0.000107024
3.67449e-05
-3.19047e-05
-0.000109817
4.81928e-06
-2.02633e-06
-0.000110381
-2.7188e-05
2.77512e-05
-0.000108682
-5.86166e-05
5.69186e-05
-0.000105082
-8.77778e-05
8.41777e-05
-9.98439e-05
-0.000113539
0.0001083
-9.22877e-05
-0.000135401
0.000127845
-8.05909e-05
-0.000152784
0.000141087
-6.38726e-05
-0.000163903
0.000147185
-4.3077e-05
-0.000167364
0.000146569
-1.93209e-05
-0.000163749
0.000139993
6.59423e-06
-0.000153907
0.000127992
3.40823e-05
-0.00013849
0.000111002
6.193e-05
-0.000118039
9.01909e-05
8.67509e-05
-9.34376e-05
6.86167e-05
0.000105836
-6.68832e-05
4.77983e-05
0.000117667
-4.10706e-05
2.92393e-05
0.000121856
-1.75228e-05
1.33341e-05
0.000119807
2.64215e-06
-5.93076e-07
0.000113331
2.06156e-05
-1.41393e-05
0.00010309
3.85504e-05
-2.83096e-05
8.99875e-05
5.64528e-05
-4.33506e-05
7.48718e-05
7.42655e-05
-5.91498e-05
5.85268e-05
9.14342e-05
-7.50892e-05
4.14686e-05
0.000107258
-9.01994e-05
2.39815e-05
0.000120924
-0.000103437
6.29029e-06
0.000131165
-0.000113474
-1.06969e-05
0.000135664
-0.000118677
-2.60667e-05
0.0001325
-0.00011713
-3.93565e-05
0.000123344
-0.000110054
-5.00599e-05
0.000108949
-9.82457e-05
-5.80111e-05
9.06713e-05
-8.27202e-05
-6.35104e-05
7.01449e-05
-6.46455e-05
-6.72643e-05
4.88917e-05
-4.51378e-05
-6.98992e-05
2.76826e-05
-2.50477e-05
-7.11923e-05
6.24192e-06
-4.9488e-06
-7.0923e-05
-1.49454e-05
1.4676e-05
-6.90214e-05
-3.55462e-05
3.36446e-05
-6.55856e-05
-5.46027e-05
5.1167e-05
-6.07649e-05
-7.13066e-05
6.64859e-05
-5.44931e-05
-8.5453e-05
7.91812e-05
-4.614e-05
-9.67261e-05
8.8373e-05
-3.55162e-05
-0.000104489
9.38652e-05
-2.32305e-05
-0.000107705
9.54197e-05
-1.01375e-05
-0.000106585
9.34915e-05
3.30497e-06
-0.000101847
8.84044e-05
1.66698e-05
-9.38469e-05
8.04821e-05
2.96604e-05
-8.3011e-05
7.00204e-05
4.19817e-05
-6.97867e-05
5.74655e-05
5.28314e-05
-5.47018e-05
4.38522e-05
6.1209e-05
-3.84947e-05
3.01171e-05
6.67656e-05
-2.22682e-05
1.67116e-05
6.96319e-05
-6.86614e-06
3.99983e-06
6.98698e-05
7.76664e-06
-8.00452e-06
6.71709e-05
2.23181e-05
-1.96193e-05
6.17976e-05
3.63141e-05
-3.09408e-05
5.43965e-05
4.92617e-05
-4.18606e-05
4.54968e-05
6.12293e-05
-5.23296e-05
3.54398e-05
7.20723e-05
-6.20154e-05
2.43838e-05
8.1473e-05
-7.0417e-05
1.25014e-05
8.88078e-05
-7.69254e-05
2.50327e-07
9.25638e-05
-8.03128e-05
-1.139e-05
9.13259e-05
-7.96855e-05
-2.1825e-05
8.59097e-05
-7.54747e-05
-3.04793e-05
7.65989e-05
-6.79446e-05
-3.70378e-05
6.42188e-05
-5.76602e-05
-4.16155e-05
4.99675e-05
-4.53898e-05
-4.47063e-05
3.50561e-05
-3.19653e-05
-4.68415e-05
2.02182e-05
-1.8083e-05
-4.79824e-05
5.36539e-06
-4.22443e-06
-4.7934e-05
-9.43525e-06
9.38677e-06
-4.65283e-05
-2.40612e-05
2.26555e-05
-4.39043e-05
-3.74777e-05
3.48537e-05
-4.02783e-05
-4.90144e-05
4.53885e-05
-3.56751e-05
-5.86461e-05
5.40428e-05
-2.97797e-05
-6.62004e-05
6.03049e-05
-2.25488e-05
-7.12713e-05
6.40404e-05
6.51005e-05
5.60895e-05
0.000242958
2.02148e-05
0.000285587
-1.42574e-05
0.000318611
-4.60887e-05
0.000334688
-7.38265e-05
0.000327704
-9.76495e-05
0.00030436
-0.000116481
0.000267076
-0.000129986
0.000219756
-0.000139242
0.000167216
-0.00014659
0.000113276
-0.000153446
5.80391e-05
-0.000157502
-1.1555e-06
-0.000156858
-6.14415e-05
-0.00015341
-0.000116315
-0.000149002
-0.000163473
-0.000144398
-0.000203853
-0.000139727
-0.000237882
-0.000133415
-0.000265245
-0.000121659
-0.000283105
-0.000104505
-0.000286069
-8.11836e-05
-0.000278374
-4.96976e-05
-0.000263692
-1.03827e-05
-0.000240487
3.61437e-05
-0.000206689
8.80789e-05
-0.000162687
0.000137039
-0.000109755
0.000175276
-5.56555e-05
0.000197911
-9.70708e-06
0.000203508
2.45193e-05
0.00019306
5.14341e-05
0.000172702
7.14805e-05
0.000147687
8.78396e-05
0.000120265
0.000106616
9.24918e-05
0.000128449
6.56028e-05
0.000149903
4.04282e-05
0.000170026
1.69067e-05
0.000188046
-5.07245e-06
0.000201629
-2.44043e-05
0.000206176
-4.1303e-05
0.000199871
-5.55969e-05
0.000184769
-6.67498e-05
0.000161912
-7.45235e-05
0.000133448
-7.93497e-05
0.000102168
-8.25523e-05
7.07081e-05
-8.56508e-05
3.98434e-05
-8.79878e-05
7.1563e-06
-8.83708e-05
-2.68049e-05
-8.62389e-05
-6.07486e-05
-8.18387e-05
-9.2178e-05
-7.57909e-05
-0.000119587
-6.87293e-05
-0.000142463
-6.06822e-05
-0.000160831
-5.01633e-05
-0.000174422
-3.66279e-05
-0.0001809
-2.08891e-05
-0.000179488
-3.17765e-06
-0.000171618
1.58238e-05
-0.000157492
3.55153e-05
-0.00013773
5.54709e-05
-0.000113393
7.41645e-05
-8.55767e-05
8.8958e-05
-5.58641e-05
9.86315e-05
-2.71963e-05
0.000102603
-1.32974e-06
0.000100887
2.23325e-05
9.25052e-05
4.69317e-05
8.02096e-05
6.87485e-05
6.5884e-05
8.85911e-05
5.0383e-05
0.000106935
3.43481e-05
0.000123292
1.81608e-05
0.000137111
2.19725e-06
0.000147129
-1.22899e-05
0.000150151
-2.49864e-05
0.000145196
-3.53962e-05
0.000133753
-4.31538e-05
0.000116707
-4.81307e-05
9.56482e-05
-5.06672e-05
7.26814e-05
-5.17573e-05
4.99818e-05
-5.2804e-05
2.87293e-05
-5.39757e-05
7.41365e-06
-5.42729e-05
-1.46481e-05
-5.30775e-05
-3.67416e-05
-5.0373e-05
-5.73072e-05
-4.63163e-05
-7.53633e-05
-4.09832e-05
-9.07861e-05
-3.43714e-05
-0.000103338
-2.62407e-05
-0.00011262
-1.65656e-05
-0.000117381
-6.40924e-06
-0.000116741
3.86071e-06
-0.000112117
1.38491e-05
-0.000103835
2.31778e-05
-9.23397e-05
3.15735e-05
-7.81824e-05
3.89504e-05
-6.20787e-05
4.52888e-05
-4.48331e-05
5.03279e-05
-2.73074e-05
5.37027e-05
-1.02409e-05
5.53861e-05
6.08323e-06
5.40135e-05
2.36907e-05
5.00452e-05
4.02824e-05
4.40483e-05
5.52586e-05
3.64396e-05
6.8838e-05
2.75852e-05
8.09267e-05
1.77211e-05
9.13371e-05
7.06866e-06
9.94603e-05
-3.65798e-06
0.00010329
-1.35336e-05
0.000101202
-2.19362e-05
9.43123e-05
-2.82974e-05
8.296e-05
-3.23021e-05
6.82235e-05
-3.41145e-05
5.17799e-05
-3.45198e-05
3.54614e-05
-3.47536e-05
2.04519e-05
-3.54362e-05
6.048e-06
-3.55406e-05
-9.33082e-06
-3.4267e-05
-2.53348e-05
-3.20935e-05
-3.96513e-05
-2.91701e-05
-5.19378e-05
-2.55082e-05
-6.2308e-05
-2.10481e-05
-7.06605e-05
-7.67562e-05
3.93135e-05
0.000278449
7.1074e-06
0.000317793
-2.23624e-05
0.000348081
-4.71414e-05
0.000359467
-6.8057e-05
0.000348619
-8.50269e-05
0.000321329
-9.72361e-05
0.000279285
-0.000103927
0.000226447
-0.000105519
0.000168808
-0.000104799
0.000112556
-0.00010611
5.93508e-05
-0.000109763
2.49697e-06
-0.000105886
-6.53186e-05
-0.000101157
-0.000121044
-9.71671e-05
-0.000167463
-9.43004e-05
-0.00020672
-9.24966e-05
-0.000239686
-9.1342e-05
-0.0002664
-8.76642e-05
-0.000286783
-7.62136e-05
-0.00029752
-5.88581e-05
-0.000295729
-4.08727e-05
-0.000281678
-2.33591e-05
-0.000258001
-3.7736e-06
-0.000226275
2.02047e-05
-0.000186665
5.43166e-05
-0.000143867
9.48488e-05
-9.61878e-05
0.000129528
-4.43859e-05
0.000153156
8.91108e-07
0.000160354
4.42358e-05
0.000152772
7.90627e-05
0.000136782
0.000103829
0.000114876
0.000128522
9.02701e-05
0.000153055
6.53961e-05
0.000174777
4.17898e-05
0.000193632
1.98729e-05
0.000209963
5.53759e-08
0.000221446
-1.64491e-05
0.000222681
-3.07087e-05
0.000214131
-4.2483e-05
0.000196543
-5.14001e-05
0.000170829
-5.69802e-05
0.000139028
-5.92565e-05
0.000104444
-5.96088e-05
7.10604e-05
-6.07531e-05
4.09877e-05
-6.36695e-05
1.00727e-05
-6.46983e-05
-2.57762e-05
-6.2964e-05
-6.24828e-05
-5.92112e-05
-9.59308e-05
-5.3941e-05
-0.000124857
-4.77736e-05
-0.00014863
-4.11723e-05
-0.000167433
-3.40948e-05
-0.0001815
-2.59439e-05
-0.000189051
-1.6927e-05
-0.000188505
-6.60459e-06
-0.000181941
4.91516e-06
-0.000169011
1.70652e-05
-0.00014988
2.90534e-05
-0.000125381
4.04818e-05
-9.70052e-05
5.13255e-05
-6.67078e-05
6.07227e-05
-3.65935e-05
6.80286e-05
-8.63563e-06
7.40375e-05
1.63236e-05
6.98913e-05
5.10779e-05
6.21015e-05
7.65382e-05
5.15056e-05
9.9187e-05
3.92989e-05
0.000119142
2.63657e-05
0.000136226
1.32868e-05
0.00015019
1.02093e-06
0.000159395
-9.00126e-06
0.000160173
-1.71548e-05
0.00015335
-2.34751e-05
0.000140074
-2.80822e-05
0.000121314
-3.08955e-05
9.84616e-05
-3.18293e-05
7.36151e-05
-3.13717e-05
4.95243e-05
-3.11604e-05
2.8518e-05
-3.34457e-05
9.69892e-06
-3.60115e-05
-1.20823e-05
-3.64952e-05
-3.62579e-05
-3.55621e-05
-5.82403e-05
-3.32608e-05
-7.76646e-05
-2.96213e-05
-9.44256e-05
-2.47693e-05
-0.00010819
-1.87105e-05
-0.000118678
-1.1247e-05
-0.000124844
-3.38966e-06
-0.000124598
4.40441e-06
-0.000119911
1.17613e-05
-0.000111192
1.83815e-05
-9.89599e-05
2.38783e-05
-8.36792e-05
2.78773e-05
-6.60777e-05
3.04975e-05
-4.74533e-05
3.25629e-05
-2.93728e-05
3.47138e-05
-1.23918e-05
3.82235e-05
2.57362e-06
3.7091e-05
2.48231e-05
3.39478e-05
4.34256e-05
2.90194e-05
6.0187e-05
2.265e-05
7.52075e-05
1.52285e-05
8.83482e-05
7.09225e-06
9.94733e-05
-1.18185e-06
0.000107734
-8.27594e-06
0.000110385
-1.40235e-05
0.000106949
-1.83717e-05
9.86606e-05
-2.12785e-05
8.58668e-05
-2.25931e-05
6.95381e-05
-2.22122e-05
5.13991e-05
-2.05124e-05
3.37615e-05
-1.88328e-05
1.87724e-05
-1.94635e-05
6.6787e-06
-2.16948e-05
-7.09957e-06
-2.12714e-05
-2.57582e-05
-2.04661e-05
-4.04566e-05
-1.90891e-05
-5.33148e-05
-1.70944e-05
-6.43027e-05
-1.44088e-05
-7.3346e-05
-8.02824e-05
1.59112e-05
-1.08464e-05
-3.33946e-05
-4.91328e-05
0.000375205
-6.0632e-05
0.000360119
-6.8272e-05
0.000328969
-7.23692e-05
0.000283382
-7.25953e-05
0.000226673
-6.81031e-05
0.000164316
-6.02111e-05
0.000104664
-5.48116e-05
5.39512e-05
-5.68798e-05
4.56516e-06
-4.82014e-05
-7.3997e-05
-4.22793e-05
-0.000126966
-4.0475e-05
-0.000169268
-4.32086e-05
-0.000203987
-4.85677e-05
-0.000234327
-5.25985e-05
-0.000262369
-5.35118e-05
-0.000285869
-4.87188e-05
-0.000302313
-3.95822e-05
-0.000304866
-2.8942e-05
-0.000292318
-1.98794e-05
-0.000267063
-1.20075e-05
-0.000234147
-1.04687e-06
-0.000197626
1.22952e-05
-0.000157209
2.8661e-05
-0.000112554
4.83621e-05
-6.4087e-05
6.94753e-05
-2.02221e-05
9.48892e-05
1.88218e-05
0.000105394
6.85584e-05
0.000102929
0.000106294
9.10829e-05
0.000140368
7.36128e-05
0.000170525
5.45612e-05
0.000193829
3.57908e-05
0.000212402
1.81552e-05
0.000227598
3.18969e-06
0.000236412
-8.33765e-06
0.000234208
-1.77494e-05
0.000223543
-2.56126e-05
0.000204407
-3.20857e-05
0.000177302
-3.64963e-05
0.000143439
-3.78438e-05
0.000105792
-3.61534e-05
6.93699e-05
-3.44732e-05
3.93076e-05
-3.8264e-05
1.38635e-05
-4.05158e-05
-2.35244e-05
-3.83616e-05
-6.4637e-05
-3.47666e-05
-9.95258e-05
-3.05079e-05
-0.000129115
-2.57995e-05
-0.000153338
-2.06064e-05
-0.000172626
-1.51612e-05
-0.000186945
-9.87754e-06
-0.000194334
-5.44923e-06
-0.000192933
-1.8115e-06
-0.000185578
1.43018e-06
-0.000172253
4.68869e-06
-0.000153139
7.88113e-06
-0.000128574
1.0245e-05
-9.9369e-05
1.14196e-05
-6.78824e-05
1.31555e-05
-3.83294e-05
1.95548e-05
-1.50349e-05
3.07892e-05
5.08915e-06
3.45175e-05
4.73496e-05
3.44841e-05
7.65716e-05
3.11978e-05
0.000102473
2.60037e-05
0.000124336
1.98692e-05
0.00014236
1.36402e-05
0.000156419
8.32557e-06
0.000164709
4.26592e-06
0.000164233
1.10886e-06
0.000156507
-1.71636e-06
0.000142899
-4.68775e-06
0.000124285
-7.69334e-06
0.000101467
-1.01039e-05
7.60257e-05
-1.12774e-05
5.06978e-05
-1.15908e-05
2.88314e-05
-1.44263e-05
1.25344e-05
-2.07555e-05
-5.75316e-06
-2.24551e-05
-3.45583e-05
-2.28524e-05
-5.7843e-05
-2.18371e-05
-7.86799e-05
-1.96183e-05
-9.66444e-05
-1.63892e-05
-0.000111419
-1.22132e-05
-0.000122854
-7.07415e-06
-0.000129983
-1.74439e-06
-0.000129928
3.20746e-06
-0.000124863
7.45594e-06
-0.000115441
1.09772e-05
-0.000102481
1.37581e-05
-8.646e-05
1.50706e-05
-6.73903e-05
1.43132e-05
-4.66958e-05
1.28641e-05
-2.79237e-05
1.30404e-05
-1.25681e-05
1.67346e-05
-1.12054e-06
1.55623e-05
2.59954e-05
1.34754e-05
4.55125e-05
1.03972e-05
6.32652e-05
6.70952e-06
7.88952e-05
2.84739e-06
9.22103e-05
-7.52353e-07
0.000103073
-3.4949e-06
0.000110477
-4.58422e-06
0.000111474
-4.84939e-06
0.000107214
-4.87556e-06
9.86867e-05
-5.06675e-06
8.6058e-05
-5.46969e-06
6.99411e-05
-5.7704e-06
5.16998e-05
-5.50015e-06
3.34913e-05
-4.71521e-06
1.79875e-05
-5.55927e-06
7.52276e-06
-9.31742e-06
-3.34142e-06
-1.03298e-05
-2.47458e-05
-1.10779e-05
-3.97085e-05
-1.12485e-05
-5.31442e-05
-1.08417e-05
-6.47095e-05
-9.87938e-06
-7.43084e-05
-8.18875e-05
-5.39775e-05
-5.3881e-05
-4.92751e-05
-4.2586e-05
-3.51282e-05
-2.62368e-05
-1.50702e-05
-1.33565e-06
1.03095e-05
1.21259e-05
9.08407e-06
4.79203e-06
1.99687e-07
-4.39722e-06
-1.18817e-05
-2.08351e-05
-2.77203e-05
-3.00326e-05
-2.87029e-05
-2.29038e-05
-1.39759e-05
-5.14231e-06
7.35141e-07
1.47585e-06
2.33459e-06
1.17034e-05
3.11625e-05
3.73889e-05
3.82445e-05
3.70351e-05
3.56137e-05
3.02723e-05
2.15497e-05
1.22516e-05
5.13294e-06
1.72074e-07
-3.55586e-06
-7.12549e-06
-1.12477e-05
-1.51932e-05
-1.71989e-05
-1.60739e-05
-1.2245e-05
-1.27959e-05
-1.28086e-05
-1.12931e-05
-1.01968e-05
-8.9812e-06
-7.34174e-06
-4.94415e-06
-1.87547e-06
1.75326e-06
5.04874e-06
7.17321e-06
7.80955e-06
6.90527e-06
4.50462e-06
1.09092e-06
-2.51028e-06
-4.95507e-06
-4.40684e-06
-4.76256e-06
-3.37141e-06
-1.88337e-06
-3.16808e-07
1.33502e-06
3.22421e-06
5.74577e-06
8.68487e-06
1.12213e-05
1.24259e-05
1.24038e-05
1.07073e-05
7.42011e-06
3.26366e-06
-4.95886e-07
-2.66326e-06
-4.12395e-06
-1.03405e-05
-1.12695e-05
-1.16617e-05
-1.13058e-05
-1.02546e-05
-8.49046e-06
-6.15348e-06
-3.44175e-06
-4.12922e-07
3.03045e-06
6.64836e-06
9.13447e-06
9.11474e-06
7.09679e-06
4.30368e-06
9.47346e-07
-7.48241e-07
-9.78021e-07
-2.23107e-06
-3.01818e-06
-3.44539e-06
-3.40695e-06
-2.80345e-06
-1.50877e-06
5.14798e-07
2.84989e-06
4.70105e-06
5.86997e-06
6.22128e-06
5.6465e-06
4.2051e-06
2.35219e-06
8.50465e-07
-1.89572e-07
-2.46897e-06
-3.9894e-06
-5.20681e-06
-5.96059e-06
-6.20391e-06
-5.89423e-06
1.5779e-05
7.08215e-06
8.62359e-06
7.15537e-06
-3.38602e-07
8.96215e-06
-9.48622e-06
9.1476e-06
-1.82633e-05
8.77711e-06
-2.62054e-05
7.9421e-06
-3.28998e-05
6.69429e-06
-3.8013e-05
5.11319e-06
-4.13027e-05
3.28978e-06
-4.27146e-05
1.4118e-06
-4.22806e-05
-4.33998e-07
-4.01434e-05
-2.13715e-06
-3.65361e-05
-3.60731e-06
-3.1772e-05
-4.76413e-06
-2.62056e-05
-5.56635e-06
-2.01858e-05
-6.01981e-06
-1.40317e-05
-6.15412e-06
-7.99026e-06
-6.04139e-06
-2.25133e-06
-5.73893e-06
3.08298e-06
-5.3343e-06
8.02034e-06
-4.93734e-06
1.1874e-05
-3.85362e-06
1.56966e-05
-3.82268e-06
1.90858e-05
-3.38918e-06
2.20863e-05
-3.00046e-06
2.47286e-05
-2.64226e-06
2.69885e-05
-2.25999e-06
2.87948e-05
-1.80623e-06
3.00483e-05
-1.25352e-06
3.06331e-05
-5.84787e-07
3.04323e-05
2.00758e-07
2.93327e-05
1.09959e-06
2.72391e-05
2.09361e-06
2.40847e-05
3.15437e-06
1.98373e-05
4.24742e-06
1.45586e-05
5.27875e-06
8.6947e-06
5.86387e-06
2.84305e-06
5.85166e-06
-3.71975e-06
6.56279e-06
-1.02463e-05
6.52655e-06
-1.63781e-05
6.13181e-06
-2.18134e-05
5.43533e-06
-2.62955e-05
4.48208e-06
-2.96282e-05
3.33273e-06
-3.16918e-05
2.06358e-06
-3.24435e-05
7.51726e-07
-3.19063e-05
-5.37234e-07
-3.01743e-05
-1.73196e-06
-2.74021e-05
-2.77225e-06
-2.3778e-05
-3.62402e-06
-1.95196e-05
-4.25843e-06
-1.4844e-05
-4.67558e-06
-9.94618e-06
-4.89785e-06
-4.99162e-06
-4.95455e-06
-9.92059e-08
-4.89241e-06
4.36913e-06
-4.46833e-06
8.50014e-06
-4.13101e-06
1.2319e-05
-3.81881e-06
1.57233e-05
-3.40438e-06
1.86712e-05
-2.94782e-06
2.11206e-05
-2.44941e-06
2.30284e-05
-1.90779e-06
2.43445e-05
-1.31613e-06
2.50118e-05
-6.67278e-07
2.49645e-05
4.73433e-08
2.41444e-05
8.20095e-07
2.25178e-05
1.62656e-06
2.00857e-05
2.43213e-06
1.6868e-05
3.2177e-06
1.29075e-05
3.96049e-06
8.2272e-06
4.68028e-06
4.11342e-06
4.11379e-06
-8.09319e-07
4.92273e-06
-5.69764e-06
4.88833e-06
-1.02949e-05
4.59729e-06
-1.43998e-05
4.10485e-06
-1.78448e-05
3.44509e-06
-2.05004e-05
2.65559e-06
-2.22815e-05
1.78109e-06
-2.31553e-05
8.73814e-07
-2.31235e-05
-3.17847e-08
-2.22288e-05
-8.94716e-07
-2.0561e-05
-1.66779e-06
-1.82414e-05
-2.31953e-06
-1.54043e-05
-2.83718e-06
-1.21817e-05
-3.22258e-06
-8.71402e-06
-3.46762e-06
-5.12688e-06
-3.58713e-06
-1.53088e-06
-3.59602e-06
1.99895e-06
-3.52983e-06
5.12423e-06
-3.12528e-06
8.08426e-06
-2.96004e-06
1.07226e-05
-2.63836e-06
1.2984e-05
-2.26136e-06
1.48266e-05
-1.84262e-06
1.62193e-05
-1.39276e-06
1.71352e-05
-9.15944e-07
1.75429e-05
-4.07673e-07
1.74106e-05
1.32359e-07
1.67169e-05
6.93669e-07
1.54608e-05
1.25609e-06
1.3661e-05
1.79972e-06
1.13524e-05
2.3086e-06
8.58228e-06
2.77015e-06
5.35166e-06
3.23061e-06
2.56445e-06
2.78721e-06
-8.15283e-07
3.37974e-06
-4.124e-06
3.30872e-06
-7.21787e-06
3.09388e-06
-9.97362e-06
2.75575e-06
-1.22852e-05
2.31153e-06
-1.40679e-05
1.7827e-06
-1.52644e-05
1.19655e-06
-1.58474e-05
5.82963e-07
-1.58113e-05
-3.61195e-08
-1.5182e-05
-6.29288e-07
-1.40175e-05
-1.16451e-06
-1.23887e-05
-1.62874e-06
-1.03782e-05
-2.01056e-06
-8.0777e-06
-2.30049e-06
-5.58003e-06
-2.49767e-06
-2.96913e-06
-2.6109e-06
-2.65826e-06
1.48089e-05
1.22426e-05
5.82365e-06
1.61406e-05
-2.81191e-06
1.75977e-05
-1.16267e-05
1.79623e-05
-2.01077e-05
1.72581e-05
-2.77471e-05
1.55815e-05
-3.41139e-05
1.30611e-05
-3.88611e-05
9.86039e-06
-4.1782e-05
6.21068e-06
-4.27545e-05
2.38422e-06
-4.1814e-05
-1.37449e-06
-3.91238e-05
-4.82735e-06
-3.49653e-05
-7.76577e-06
-2.96885e-05
-1.0041e-05
-2.36763e-05
-1.15786e-05
-1.73012e-05
-1.23949e-05
-1.08895e-05
-1.25658e-05
-4.72804e-06
-1.22028e-05
9.77394e-07
-1.14444e-05
6.09511e-06
-1.0452e-05
1.0522e-05
-9.36425e-06
1.47911e-05
-8.12268e-06
1.80615e-05
-7.09311e-06
2.09713e-05
-6.29896e-06
2.344e-05
-5.46918e-06
2.55301e-05
-4.73239e-06
2.72484e-05
-3.97826e-06
2.85317e-05
-3.0895e-06
2.92716e-05
-1.99339e-06
2.93763e-05
-6.89552e-07
2.87529e-05
8.2413e-07
2.73266e-05
2.52596e-06
2.50184e-05
4.40182e-06
2.17867e-05
6.38602e-06
1.7604e-05
8.43012e-06
1.25605e-05
1.03222e-05
7.05004e-06
1.13743e-05
4.24866e-07
1.24768e-05
-6.08505e-06
1.30727e-05
-1.25009e-05
1.29424e-05
-1.84922e-05
1.21231e-05
-2.37358e-05
1.06789e-05
-2.79591e-05
8.70535e-06
-3.09675e-05
6.34116e-06
-3.26454e-05
3.74142e-06
-3.29531e-05
1.05943e-06
-3.1938e-05
-1.55225e-06
-2.97212e-05
-3.94877e-06
-2.64785e-05
-6.01503e-06
-2.24292e-05
-7.67328e-06
-1.77977e-05
-8.88994e-06
-1.28098e-05
-9.66348e-06
-7.68515e-06
-1.00225e-05
-2.62996e-06
-1.00097e-05
2.1722e-06
-9.69457e-06
6.88581e-06
-9.18194e-06
1.10232e-05
-8.26835e-06
1.46882e-05
-7.48382e-06
1.78432e-05
-6.55939e-06
2.04719e-05
-5.57655e-06
2.25526e-05
-4.53009e-06
2.40551e-05
-3.41026e-06
2.49397e-05
-2.20076e-06
2.51613e-05
-8.88884e-07
2.46811e-05
5.27587e-07
2.34688e-05
2.03239e-06
2.15119e-05
3.58345e-06
1.88196e-05
5.12441e-06
1.54451e-05
6.59218e-06
1.1475e-05
7.9306e-06
7.20862e-06
8.94669e-06
1.93653e-06
9.38589e-06
-2.99237e-06
9.85163e-06
-7.84431e-06
9.74027e-06
-1.23897e-05
9.14267e-06
-1.64077e-05
8.12286e-06
-1.9711e-05
6.74841e-06
-2.21634e-05
5.10797e-06
-2.36822e-05
3.29995e-06
-2.42317e-05
1.4233e-06
-2.38351e-05
-4.28418e-07
-2.25646e-05
-2.16523e-06
-2.05253e-05
-3.70705e-06
-1.7844e-05
-5.00079e-06
-1.46651e-05
-6.01612e-06
-1.11436e-05
-6.74411e-06
-7.42491e-06
-7.18626e-06
-3.64251e-06
-7.36953e-06
6.93151e-08
-7.30784e-06
3.60963e-06
-7.07014e-06
6.93333e-06
-6.44898e-06
9.86177e-06
-5.88848e-06
1.2394e-05
-5.17058e-06
1.45026e-05
-4.37001e-06
1.61547e-05
-3.4947e-06
1.73165e-05
-2.55457e-06
1.79595e-05
-1.5589e-06
1.80685e-05
-5.16702e-07
1.76352e-05
5.65667e-07
1.66536e-05
1.6752e-06
1.51362e-05
2.77349e-06
1.31222e-05
3.81372e-06
1.06579e-05
4.7729e-06
7.80312e-06
5.62493e-06
4.77873e-06
6.255e-06
1.06662e-06
6.49932e-06
-2.29872e-06
6.74508e-06
-5.60174e-06
6.61174e-06
-8.67867e-06
6.17082e-06
-1.13867e-05
5.46379e-06
-1.36058e-05
4.53059e-06
-1.52475e-05
3.42438e-06
-1.62555e-05
2.20459e-06
-1.66056e-05
9.33062e-07
-1.63103e-05
-3.3146e-07
-1.54093e-05
-1.53028e-06
-1.39623e-05
-2.61152e-06
-1.2054e-05
-3.53698e-06
-9.78006e-06
-4.28452e-06
-7.24818e-06
-4.83237e-06
-4.56471e-06
-5.18114e-06
-1.83862e-06
-5.337e-06
-5.31139e-06
1.49809e-05
1.92468e-05
7.53327e-06
2.35882e-05
-7.49098e-07
2.588e-05
-9.45874e-06
2.6672e-05
-1.80232e-05
2.58226e-05
-2.58799e-05
2.34382e-05
-3.25227e-05
1.97039e-05
-3.75303e-05
1.4868e-05
-4.06304e-05
9.3108e-06
-4.17088e-05
3.46259e-06
-4.07949e-05
-2.28833e-06
-3.80554e-05
-7.56689e-06
-3.38069e-05
-1.20143e-05
-2.84364e-05
-1.54114e-05
-2.23716e-05
-1.76434e-05
-1.60274e-05
-1.87391e-05
-9.73963e-06
-1.88536e-05
-3.77307e-06
-1.81693e-05
1.63475e-06
-1.68522e-05
6.36465e-06
-1.51819e-05
1.04141e-05
-1.34137e-05
1.40053e-05
-1.17139e-05
1.6935e-05
-1.00228e-05
1.93601e-05
-8.72406e-06
2.14403e-05
-7.5493e-06
2.32857e-05
-6.57787e-06
2.4934e-05
-5.62649e-06
2.63094e-05
-4.46493e-06
2.72875e-05
-2.97146e-06
2.77473e-05
-1.14941e-06
2.75558e-05
1.01569e-06
2.6591e-05
3.49075e-06
2.47619e-05
6.23085e-06
2.19626e-05
9.18533e-06
1.81708e-05
1.2222e-05
1.33305e-05
1.51625e-05
7.80193e-06
1.69029e-05
1.49381e-06
1.8785e-05
-5.04788e-06
1.96144e-05
-1.15233e-05
1.94178e-05
-1.76053e-05
1.82051e-05
-2.29666e-05
1.60402e-05
-2.73213e-05
1.30601e-05
-3.04556e-05
9.4755e-06
-3.22405e-05
5.52627e-06
-3.26191e-05
1.43802e-06
-3.16413e-05
-2.53002e-06
-2.94442e-05
-6.14586e-06
-2.62103e-05
-9.24898e-06
-2.21581e-05
-1.17254e-05
-1.7529e-05
-1.3519e-05
-1.25612e-05
-1.46314e-05
-7.47612e-06
-1.51075e-05
-2.47706e-06
-1.50088e-05
2.2601e-06
-1.44317e-05
6.69247e-06
-1.36143e-05
1.06355e-05
-1.22114e-05
1.41022e-05
-1.09505e-05
1.70935e-05
-9.55071e-06
1.96182e-05
-8.10127e-06
2.16695e-05
-6.58138e-06
2.32239e-05
-4.96467e-06
2.42405e-05
-3.21733e-06
2.46669e-05
-1.31524e-06
2.44467e-05
7.47765e-07
2.3514e-05
2.96509e-06
2.18107e-05
5.28678e-06
1.93225e-05
7.61262e-06
1.60757e-05
9.83892e-06
1.21267e-05
1.18797e-05
7.67335e-06
1.34e-05
2.60591e-06
1.44533e-05
-2.52468e-06
1.49822e-05
-7.56045e-06
1.4776e-05
-1.22845e-05
1.38667e-05
-1.64761e-05
1.23144e-05
-1.99398e-05
1.02122e-05
-2.25264e-05
7.69451e-06
-2.41434e-05
4.91696e-06
-2.47471e-05
2.02703e-06
-2.43614e-05
-8.1405e-07
-2.30695e-05
-3.45714e-06
-2.09802e-05
-5.79641e-06
-1.82296e-05
-7.75136e-06
-1.49724e-05
-9.27328e-06
-1.13686e-05
-1.0348e-05
-7.57081e-06
-1.0984e-05
-3.7239e-06
-1.12164e-05
5.71024e-08
-1.10889e-05
3.61682e-06
-1.06299e-05
6.94576e-06
-9.77793e-06
9.88846e-06
-8.83117e-06
1.2436e-05
-7.71816e-06
1.45661e-05
-6.50002e-06
1.62551e-05
-5.18378e-06
1.74813e-05
-3.7807e-06
1.82199e-05
-2.29758e-06
1.84436e-05
-7.40359e-07
1.8129e-05
8.80289e-07
1.72663e-05
2.53784e-06
1.58461e-05
4.19372e-06
1.38772e-05
5.78258e-06
1.14053e-05
7.24482e-06
8.48528e-06
8.54493e-06
5.24077e-06
9.4995e-06
1.62311e-06
1.0117e-05
-1.97845e-06
1.03466e-05
-5.48292e-06
1.01162e-05
-8.75087e-06
9.43877e-06
-1.16371e-05
8.35005e-06
-1.40135e-05
6.90699e-06
-1.57808e-05
5.19168e-06
-1.68774e-05
3.30114e-06
-1.72758e-05
1.33143e-06
-1.69883e-05
-6.18933e-07
-1.60614e-05
-2.45723e-06
-1.45645e-05
-4.10836e-06
-1.25856e-05
-5.51593e-06
-1.02274e-05
-6.6427e-06
-7.59498e-06
-7.46478e-06
-4.79885e-06
-7.97727e-06
-1.9418e-06
-8.19405e-06
-8.11813e-06
1.85791e-05
2.48589e-05
1.11452e-05
3.10221e-05
2.59689e-06
3.44284e-05
-7.02892e-06
3.62978e-05
-1.67982e-05
3.55918e-05
-2.5988e-05
3.26279e-05
-3.39056e-05
2.76215e-05
-3.98953e-05
2.08576e-05
-4.34996e-05
1.29151e-05
-4.45335e-05
4.49654e-06
-4.31032e-05
-3.71868e-06
-3.95036e-05
-1.11664e-05
-3.41791e-05
-1.73388e-05
-2.76897e-05
-2.19007e-05
-2.06183e-05
-2.47148e-05
-1.3482e-05
-2.58754e-05
-6.67125e-06
-2.56643e-05
-5.03491e-07
-2.43371e-05
4.6696e-06
-2.20253e-05
8.78262e-06
-1.92949e-05
1.2052e-05
-1.66831e-05
1.45894e-05
-1.42513e-05
1.67916e-05
-1.22251e-05
1.85024e-05
-1.04349e-05
2.00087e-05
-9.05554e-06
2.15759e-05
-8.14509e-06
2.33165e-05
-7.36711e-06
2.50467e-05
-6.19516e-06
2.64437e-05
-4.36844e-06
2.73788e-05
-2.08451e-06
2.77112e-05
6.83318e-07
2.72633e-05
3.93869e-06
2.58414e-05
7.65269e-06
2.32948e-05
1.1732e-05
1.95767e-05
1.59401e-05
1.48243e-05
1.99148e-05
8.58949e-06
2.31378e-05
1.75666e-06
2.56178e-05
-5.4e-06
2.67711e-05
-1.24684e-05
2.64863e-05
-1.90796e-05
2.48163e-05
-2.48314e-05
2.1792e-05
-2.9381e-05
1.76097e-05
-3.25054e-05
1.25999e-05
-3.40999e-05
7.1208e-06
-3.41657e-05
1.50377e-06
-3.27999e-05
-3.8958e-06
-3.01712e-05
-8.77459e-06
-2.65107e-05
-1.29095e-05
-2.20838e-05
-1.61523e-05
-1.71559e-05
-1.84469e-05
-1.19651e-05
-1.98222e-05
-6.70903e-06
-2.03636e-05
-1.58088e-06
-2.01369e-05
3.1729e-06
-1.91855e-05
7.3638e-06
-1.78052e-05
1.12414e-05
-1.60889e-05
1.45673e-05
-1.42765e-05
1.74505e-05
-1.24339e-05
1.99167e-05
-1.05674e-05
2.19821e-05
-8.64681e-06
2.36327e-05
-6.61525e-06
2.48219e-05
-4.40653e-06
2.547e-05
-1.96336e-06
2.54709e-05
7.46843e-07
2.47295e-05
3.7065e-06
2.31725e-05
6.84383e-06
2.07485e-05
1.00366e-05
1.7443e-05
1.31444e-05
1.33297e-05
1.5993e-05
8.40454e-06
1.83252e-05
2.90625e-06
1.99516e-05
-2.76441e-06
2.06529e-05
-8.29531e-06
2.03069e-05
-1.34696e-05
1.9041e-05
-1.80337e-05
1.68786e-05
-2.17602e-05
1.39386e-05
-2.44859e-05
1.04202e-05
-2.61315e-05
6.56261e-06
-2.66599e-05
2.55537e-06
-2.61121e-05
-1.36185e-06
-2.45927e-05
-4.97655e-06
-2.2233e-05
-8.15605e-06
-1.91916e-05
-1.07927e-05
-1.56405e-05
-1.28245e-05
-1.17494e-05
-1.4239e-05
-7.66519e-06
-1.50682e-05
-3.53053e-06
-1.53511e-05
4.6988e-07
-1.50893e-05
4.17902e-06
-1.4339e-05
7.62679e-06
-1.32257e-05
1.06732e-05
-1.18776e-05
1.33244e-05
-1.03693e-05
1.55533e-05
-8.72889e-06
1.73443e-05
-6.97483e-06
1.86799e-05
-5.11627e-06
1.95358e-05
-3.15347e-06
1.98713e-05
-1.07589e-06
1.96377e-05
1.11386e-06
1.88052e-05
3.37033e-06
1.73689e-05
5.63007e-06
1.53275e-05
7.82391e-06
1.26991e-05
9.87326e-06
9.55587e-06
1.16882e-05
5.91591e-06
1.31394e-05
1.94765e-06
1.40852e-05
-2.10751e-06
1.44018e-05
-6.03085e-06
1.40395e-05
-9.6865e-06
1.30944e-05
-1.2911e-05
1.15745e-05
-1.55545e-05
9.55057e-06
-1.75063e-05
7.14348e-06
-1.87044e-05
4.49921e-06
-1.9116e-05
1.74298e-06
-1.87586e-05
-9.76302e-07
-1.76938e-05
-3.52205e-06
-1.60039e-05
-5.79823e-06
-1.37933e-05
-7.7266e-06
-1.11803e-05
-9.25562e-06
-8.28069e-06
-1.03644e-05
-5.19391e-06
-1.1064e-05
-2.03207e-06
-1.13559e-05
-1.12023e-05
3.24105e-05
3.30286e-05
2.02588e-05
4.31738e-05
6.9158e-06
4.77714e-05
-8.59871e-06
5.18123e-05
-2.43893e-05
5.13824e-05
-3.90304e-05
4.7269e-05
-5.13716e-05
3.99627e-05
-6.04458e-05
2.99319e-05
-6.57461e-05
1.82153e-05
-6.71302e-05
5.88065e-06
-6.48351e-05
-6.01375e-06
-5.93678e-05
-1.66338e-05
-5.1328e-05
-2.53786e-05
-4.14391e-05
-3.17896e-05
-3.04521e-05
-3.57018e-05
-1.90724e-05
-3.72551e-05
-7.8405e-06
-3.68962e-05
2.49778e-06
-3.46754e-05
1.09641e-05
-3.04916e-05
1.71651e-05
-2.54959e-05
2.14315e-05
-2.09495e-05
2.42403e-05
-1.70601e-05
2.59502e-05
-1.39349e-05
2.71651e-05
-1.16498e-05
2.83702e-05
-1.02607e-05
2.98543e-05
-9.62912e-06
3.17079e-05
-9.22078e-06
3.38444e-05
-8.33163e-06
3.60238e-05
-6.54779e-06
3.78929e-05
-3.95363e-06
3.90442e-05
-4.68023e-07
3.90661e-05
3.9168e-06
3.7594e-05
9.12485e-06
3.4383e-05
1.49429e-05
2.9255e-05
2.10682e-05
2.2222e-05
2.69478e-05
1.31934e-05
3.21663e-05
2.6255e-06
3.61857e-05
-8.77695e-06
3.81735e-05
-1.99483e-05
3.76576e-05
-3.02457e-05
3.51137e-05
-3.89508e-05
3.04972e-05
-4.54681e-05
2.41269e-05
-4.94112e-05
1.6543e-05
-5.07234e-05
8.43301e-06
-4.96255e-05
4.05912e-07
-4.64405e-05
-7.08084e-06
-4.15337e-05
-1.36814e-05
-3.53424e-05
-1.91007e-05
-2.83246e-05
-2.31701e-05
-2.08954e-05
-2.58762e-05
-1.33877e-05
-2.73298e-05
-6.04835e-06
-2.77029e-05
8.4813e-07
-2.70334e-05
6.9355e-06
-2.52729e-05
1.20851e-05
-2.29548e-05
1.65778e-05
-2.05816e-05
2.04571e-05
-1.81558e-05
2.38065e-05
-1.57833e-05
2.67103e-05
-1.34713e-05
2.92232e-05
-1.11597e-05
3.13363e-05
-8.72831e-06
3.29701e-05
-6.04027e-06
3.39881e-05
-2.98136e-06
3.41962e-05
5.38672e-07
3.34072e-05
4.4955e-06
3.14876e-05
8.76345e-06
2.83347e-05
1.31895e-05
2.39111e-05
1.7568e-05
1.82516e-05
2.16525e-05
1.14339e-05
2.51429e-05
3.65576e-06
2.77298e-05
-4.6131e-06
2.89217e-05