/*--------------------------------*- C++ -*----------------------------------*\
| =========                 |                                                 |
| \\      /  F ield         | OpenFOAM: The Open Source CFD Toolbox           |
|  \\    /   O peration     | Version:  2206                                  |
|   \\  /    A nd           | Website:  www.openfoam.com                      |
|    \\/     M anipulation  |                                                 |
\*---------------------------------------------------------------------------*/
FoamFile
{
    version     2.0;
    format      ascii;
    arch        "LSB;label=32;scalar=64";
    class       volVectorField;
    location    "18.8001";
    object      U_0;
}
// * * * * * * * * * * * * * * * * * * * * * * * * * * * * * * * * * * * * * //

dimensions      [0 1 -1 0 0 0 0];

internalField   nonuniform List<vector> 
3087
(
(1.47762 0.000183428 0)
(1.4777 0.000548972 0)
(1.47788 0.000910337 0)
(1.47816 0.00126439 0)
(1.47853 0.00160852 0)
(1.47899 0.00194068 0)
(1.47953 0.00225918 0)
(1.48014 0.00256269 0)
(1.48083 0.00285022 0)
(1.48159 0.0031212 0)
(1.48242 0.00337533 0)
(1.4833 0.00361261 0)
(1.48425 0.00383323 0)
(1.48524 0.00403751 0)
(1.48628 0.00422588 0)
(1.48736 0.00439883 0)
(1.48848 0.00455685 0)
(1.48964 0.0047004 0)
(1.49083 0.00482992 0)
(1.49204 0.00494577 0)
(1.49329 0.00504823 0)
(1.49455 0.0051375 0)
(1.49583 0.00521369 0)
(1.49713 0.00527682 0)
(1.49844 0.00532685 0)
(1.49976 0.00536366 0)
(1.50109 0.00538704 0)
(1.50242 0.00539676 0)
(1.50375 0.00539251 0)
(1.50509 0.00537398 0)
(1.50642 0.0053408 0)
(1.50774 0.0052926 0)
(1.50905 0.00522897 0)
(1.51036 0.00514956 0)
(1.51165 0.00505394 0)
(1.51292 0.00494179 0)
(1.51418 0.00481263 0)
(1.51541 0.00466624 0)
(1.51662 0.00450197 0)
(1.5178 0.00431988 0)
(1.51896 0.00411889 0)
(1.52008 0.00389962 0)
(1.52116 0.00366013 0)
(1.52221 0.00340202 0)
(1.52323 0.00312196 0)
(1.52419 0.00282294 0)
(1.52512 0.00249983 0)
(1.526 0.00215698 0)
(1.52683 0.00178771 0)
(1.5276 0.00139698 0)
(1.52833 0.000977276 0)
(1.52899 0.000533278 0)
(1.52959 5.7403e-05 0)
(1.53012 -0.000447313 0)
(1.53058 -0.000986167 0)
(1.53097 -0.00156098 0)
(1.53129 -0.00217332 0)
(1.53151 -0.00282944 0)
(1.53165 -0.00353279 0)
(1.53169 -0.00428812 0)
(1.53162 -0.00510089 0)
(1.53144 -0.00597731 0)
(1.53113 -0.00692457 0)
(1.5307 -0.00795089 0)
(1.53011 -0.00906567 0)
(1.52936 -0.0102796 0)
(1.52844 -0.011605 0)
(1.52733 -0.0130558 0)
(1.52599 -0.0146483 0)
(1.52443 -0.0164012 0)
(1.52259 -0.0183362 0)
(1.52047 -0.0204783 0)
(1.51801 -0.0228566 0)
(1.51519 -0.0255052 0)
(1.51196 -0.0284639 0)
(1.50827 -0.0317796 0)
(1.50405 -0.0355076 0)
(1.49926 -0.0397138 0)
(1.49379 -0.0444768 0)
(1.48758 -0.0498911 0)
(1.48052 -0.0560708 0)
(1.47248 -0.0631545 0)
(1.46334 -0.0713122 0)
(1.45294 -0.0807531 0)
(1.44109 -0.091737 0)
(1.42758 -0.104589 0)
(1.41216 -0.11972 0)
(1.39455 -0.137653 0)
(1.37441 -0.15906 0)
(1.35134 -0.184815 0)
(1.32487 -0.216067 0)
(1.29445 -0.254354 0)
(1.25935 -0.301737 0)
(1.21865 -0.361175 0)
(1.17097 -0.4365 0)
(1.11374 -0.534602 0)
(1.04365 -0.662075 0)
(0.939789 -0.846177 0)
(0.828534 -1.09038 0)
(0.2873 -1.73411 0)
(1.47762 0.00013706 0)
(1.47769 0.000410184 0)
(1.47787 0.000680235 0)
(1.47814 0.000944942 0)
(1.4785 0.00120242 0)
(1.47895 0.00145118 0)
(1.47947 0.00169 0)
(1.48007 0.00191788 0)
(1.48074 0.00213408 0)
(1.48149 0.00233816 0)
(1.4823 0.00252988 0)
(1.48316 0.00270921 0)
(1.48409 0.00287626 0)
(1.48506 0.00303126 0)
(1.48608 0.0031745 0)
(1.48715 0.0033063 0)
(1.48825 0.003427 0)
(1.48939 0.00353692 0)
(1.49057 0.00363631 0)
(1.49177 0.00372541 0)
(1.49299 0.00380436 0)
(1.49424 0.00387325 0)
(1.49551 0.00393208 0)
(1.49679 0.00398079 0)
(1.49809 0.00401926 0)
(1.4994 0.0040473 0)
(1.50071 0.00406468 0)
(1.50203 0.0040711 0)
(1.50335 0.00406625 0)
(1.50467 0.00404976 0)
(1.50598 0.00402129 0)
(1.5073 0.00398043 0)
(1.5086 0.00392676 0)
(1.50989 0.00385993 0)
(1.51116 0.00377948 0)
(1.51242 0.00368511 0)
(1.51367 0.00357628 0)
(1.51488 0.00345283 0)
(1.51608 0.00331401 0)
(1.51725 0.00315999 0)
(1.51839 0.00298949 0)
(1.51949 0.00280343 0)
(1.52057 0.00259942 0)
(1.5216 0.00237977 0)
(1.5226 0.00214013 0)
(1.52355 0.00188511 0)
(1.52446 0.00160732 0)
(1.52531 0.00131443 0)
(1.52613 0.000995727 0)
(1.52688 0.000661066 0)
(1.52758 0.000298325 0)
(1.52821 -8.34161e-05 0)
(1.52879 -0.00049506 0)
(1.52929 -0.000929674 0)
(1.52972 -0.00139666 0)
(1.53008 -0.00189242 0)
(1.53035 -0.00242074 0)
(1.53054 -0.00298733 0)
(1.53063 -0.00359384 0)
(1.53061 -0.00424472 0)
(1.53049 -0.00494471 0)
(1.53025 -0.00569896 0)
(1.52987 -0.00651332 0)
(1.52935 -0.00739449 0)
(1.52868 -0.00835019 0)
(1.52783 -0.0093893 0)
(1.5268 -0.0105221 0)
(1.52556 -0.0117604 0)
(1.52408 -0.0131175 0)
(1.52236 -0.0146091 0)
(1.52034 -0.016253 0)
(1.51801 -0.0180699 0)
(1.51532 -0.0200843 0)
(1.51223 -0.0223244 0)
(1.50868 -0.0248235 0)
(1.50463 -0.027621 0)
(1.50001 -0.0307634 0)
(1.49473 -0.034306 0)
(1.48871 -0.0383152 0)
(1.48184 -0.0428707 0)
(1.474 -0.0480695 0)
(1.46505 -0.0540298 0)
(1.45481 -0.0608968 0)
(1.44309 -0.0688505 0)
(1.42965 -0.0781153 0)
(1.4142 -0.0889736 0)
(1.3964 -0.101783 0)
(1.37583 -0.117002 0)
(1.35199 -0.13522 0)
(1.32426 -0.157204 0)
(1.29185 -0.183961 0)
(1.25376 -0.216816 0)
(1.20868 -0.257532 0)
(1.15479 -0.30845 0)
(1.08951 -0.37266 0)
(1.00883 -0.454273 0)
(0.906374 -0.558254 0)
(0.772292 -0.691347 0)
(0.587965 -0.854885 0)
(0.282199 -0.987223 0)
(1.47762 9.19527e-05 0)
(1.47769 0.000275142 0)
(1.47786 0.00045625 0)
(1.47813 0.000633794 0)
(1.47848 0.000806556 0)
(1.47892 0.000973574 0)
(1.47943 0.00113406 0)
(1.48002 0.00128735 0)
(1.48068 0.00143299 0)
(1.48141 0.00157067 0)
(1.4822 0.00170025 0)
(1.48306 0.00182171 0)
(1.48397 0.00193514 0)
(1.48493 0.00204068 0)
(1.48594 0.00213852 0)
(1.48699 0.00222885 0)
(1.48808 0.00231188 0)
(1.48921 0.00238778 0)
(1.49037 0.00245668 0)
(1.49156 0.00251868 0)
(1.49277 0.0025738 0)
(1.49401 0.00262202 0)
(1.49526 0.00266323 0)
(1.49654 0.00269731 0)
(1.49782 0.00272403 0)
(1.49912 0.00274317 0)
(1.50042 0.00275442 0)
(1.50173 0.00275748 0)
(1.50304 0.00275195 0)
(1.50435 0.0027375 0)
(1.50565 0.00271373 0)
(1.50695 0.00268023 0)
(1.50824 0.00263657 0)
(1.50952 0.00258238 0)
(1.51079 0.0025172 0)
(1.51204 0.00244071 0)
(1.51327 0.00235236 0)
(1.51448 0.00225201 0)
(1.51566 0.00213885 0)
(1.51682 0.00201311 0)
(1.51795 0.00187346 0)
(1.51904 0.00172086 0)
(1.5201 0.00155293 0)
(1.52112 0.00137198 0)
(1.52211 0.00117379 0)
(1.52304 0.000962839 0)
(1.52394 0.000732099 0)
(1.52477 0.000489106 0)
(1.52557 0.000223202 0)
(1.5263 -5.48343e-05 0)
(1.52699 -0.000358605 0)
(1.5276 -0.000676508 0)
(1.52815 -0.00102114 0)
(1.52863 -0.00138446 0)
(1.52904 -0.00177612 0)
(1.52936 -0.00218926 0)
(1.5296 -0.00263275 0)
(1.52975 -0.00310405 0)
(1.52981 -0.00360957 0)
(1.52975 -0.00415144 0)
(1.52958 -0.00473314 0)
(1.52928 -0.00535873 0)
(1.52884 -0.00603279 0)
(1.52826 -0.00676065 0)
(1.52751 -0.00754839 0)
(1.52659 -0.0084029 0)
(1.52546 -0.0093318 0)
(1.52411 -0.0103439 0)
(1.52252 -0.0114496 0)
(1.52066 -0.0126609 0)
(1.5185 -0.0139919 0)
(1.516 -0.0154589 0)
(1.51311 -0.0170807 0)
(1.50981 -0.0188791 0)
(1.50601 -0.0208796 0)
(1.50167 -0.0231126 0)
(1.49671 -0.0256138 0)
(1.49105 -0.0284261 0)
(1.48457 -0.0316007 0)
(1.47717 -0.0351996 0)
(1.4687 -0.0392977 0)
(1.459 -0.0439871 0)
(1.44787 -0.0493808 0)
(1.43508 -0.0556189 0)
(1.42033 -0.0628771 0)
(1.40329 -0.0713764 0)
(1.38353 -0.081397 0)
(1.36052 -0.0932978 0)
(1.33364 -0.10754 0)
(1.30206 -0.124723 0)
(1.26476 -0.14562 0)
(1.22041 -0.171238 0)
(1.1673 -0.202871 0)
(1.10314 -0.242162 0)
(1.0248 -0.291075 0)
(0.928013 -0.351926 0)
(0.806479 -0.426854 0)
(0.65137 -0.517107 0)
(0.445407 -0.620422 0)
(0.16335 -0.749847 0)
(1.47762 4.77404e-05 0)
(1.47769 0.000142764 0)
(1.47786 0.000236621 0)
(1.47812 0.000328569 0)
(1.47847 0.00041801 0)
(1.4789 0.000504488 0)
(1.4794 0.000587628 0)
(1.47998 0.000667132 0)
(1.48063 0.000742788 0)
(1.48136 0.000814481 0)
(1.48214 0.000882174 0)
(1.48298 0.00094589 0)
(1.48388 0.0010057 0)
(1.48484 0.00106169 0)
(1.48583 0.00111397 0)
(1.48688 0.00116264 0)
(1.48796 0.00120777 0)
(1.48908 0.00124942 0)
(1.49023 0.0012876 0)
(1.49141 0.00132227 0)
(1.49262 0.00135335 0)
(1.49384 0.00138069 0)
(1.49509 0.00140412 0)
(1.49636 0.0014234 0)
(1.49763 0.00143826 0)
(1.49892 0.0014484 0)
(1.50022 0.00145345 0)
(1.50152 0.0014531 0)
(1.50282 0.00144686 0)
(1.50412 0.00143444 0)
(1.50542 0.00141538 0)
(1.50671 0.00138928 0)
(1.50799 0.00135567 0)
(1.50926 0.0013142 0)
(1.51052 0.00126438 0)
(1.51176 0.00120589 0)
(1.51299 0.00113817 0)
(1.51418 0.00106106 0)
(1.51536 0.000973804 0)
(1.51651 0.000876523 0)
(1.51763 0.000768108 0)
(1.51871 0.000649151 0)
(1.51976 0.000517949 0)
(1.52077 0.000375787 0)
(1.52175 0.000220139 0)
(1.52267 5.31401e-05 0)
(1.52355 -0.000128781 0)
(1.52438 -0.000322359 0)
(1.52517 -0.000532866 0)
(1.52588 -0.000754852 0)
(1.52655 -0.000996918 0)
(1.52714 -0.00124995 0)
(1.52768 -0.00152633 0)
(1.52814 -0.00181566 0)
(1.52852 -0.00212884 0)
(1.52882 -0.00245866 0)
(1.52904 -0.00281487 0)
(1.52916 -0.00318747 0)
(1.52918 -0.0035882 0)
(1.52909 -0.00401669 0)
(1.52888 -0.0044756 0)
(1.52854 -0.00496809 0)
(1.52806 -0.00549726 0)
(1.52743 -0.00606619 0)
(1.52662 -0.00667845 0)
(1.52563 -0.00733873 0)
(1.52443 -0.00805282 0)
(1.523 -0.00882736 0)
(1.52132 -0.0096697 0)
(1.51936 -0.010588 0)
(1.51709 -0.0115915 0)
(1.51446 -0.012691 0)
(1.51144 -0.0138989 0)
(1.50796 -0.0152299 0)
(1.50398 -0.0167012 0)
(1.49943 -0.0183332 0)
(1.49422 -0.0201498 0)
(1.48827 -0.0221796 0)
(1.48146 -0.0244568 0)
(1.47367 -0.0270226 0)
(1.46474 -0.0299269 0)
(1.4545 -0.0332305 0)
(1.44271 -0.0370083 0)
(1.42913 -0.0413529 0)
(1.41343 -0.0463797 0)
(1.39523 -0.052234 0)
(1.37404 -0.0590997 0)
(1.34926 -0.0672111 0)
(1.32017 -0.0768683 0)
(1.2858 -0.0884561 0)
(1.24499 -0.102468 0)
(1.1962 -0.119532 0)
(1.13749 -0.140434 0)
(1.06635 -0.166118 0)
(0.979603 -0.197659 0)
(0.873217 -0.236084 0)
(0.742166 -0.28198 0)
(0.580903 -0.334175 0)
(0.383336 -0.390312 0)
(0.144092 -0.402934 0)
(1.48061 5.95118e-05 0)
(1.48133 6.552e-05 0)
(1.48211 7.15272e-05 0)
(1.48294 7.76123e-05 0)
(1.48384 8.38461e-05 0)
(1.48478 9.02842e-05 0)
(1.48578 9.69608e-05 0)
(1.48681 0.000103882 0)
(1.48789 0.000111019 0)
(1.489 0.000118307 0)
(1.49015 0.000125636 0)
(1.49132 0.000132856 0)
(1.49253 0.000139769 0)
(1.49375 0.000146136 0)
(1.49499 0.000151679 0)
(1.49625 0.000156085 0)
(1.49752 0.000159009 0)
(1.4988 0.000160085 0)
(1.5001 0.000158911 0)
(1.50139 0.000155115 0)
(1.50269 0.000148173 0)
(1.50398 0.000137785 0)
(1.50528 0.000123459 0)
(1.50656 0.000104802 0)
(1.50784 8.13137e-05 0)
(1.50911 5.26402e-05 0)
(1.51036 1.82708e-05 0)
(1.5116 -2.21063e-05 0)
(1.51281 -6.90388e-05 0)
(1.51401 -0.000122749 0)
(1.51518 -0.000183878 0)
(1.51632 -0.000252476 0)
(1.51743 -0.000329376 0)
(1.51851 -0.00041435 0)
(1.51955 -0.000508524 0)
(1.52055 -0.000611331 0)
(1.52152 -0.000724213 0)
(1.52244 -0.000846309 0)
(1.52331 -0.00097935 0)
(1.52413 -0.00112217 0)
(1.5249 -0.001277 0)
(1.52561 -0.00144193 0)
(1.52627 -0.00162065 0)
(1.52685 -0.00180898 0)
(1.52737 -0.00201437 0)
(1.52781 -0.00222816 0)
(1.52819 -0.00246226 0)
(1.52847 -0.00270675 0)
(1.52866 -0.00297136 0)
(1.52876 -0.0032431 0)
(1.52876 -0.00353768 0)
(1.52864 -0.00385153 0)
(1.52841 -0.00418591 0)
(1.52804 -0.0045417 0)
(1.52752 -0.00491981 0)
(1.52685 -0.00532252 0)
(1.526 -0.00575304 0)
(1.52496 -0.00621451 0)
(1.52372 -0.00670977 0)
(1.52224 -0.0072417 0)
(1.5205 -0.00781357 0)
(1.51848 -0.00842933 0)
(1.51613 -0.00909365 0)
(1.51342 -0.00981194 0)
(1.5103 -0.0105904 0)
(1.50672 -0.0114363 0)
(1.50262 -0.0123579 0)
(1.49794 -0.0133649 0)
(1.49258 -0.0144684 0)
(1.48645 -0.0156817 0)
(1.47943 -0.0170205 0)
(1.4714 -0.0185034 0)
(1.4622 -0.0201526 0)
(1.45163 -0.021995 0)
(1.43946 -0.0240631 0)
(1.42542 -0.0263968 0)
(1.40916 -0.029045 0)
(1.39029 -0.0320684 0)
(1.36828 -0.0355417 0)
(1.3425 -0.0395602 0)
(1.31215 -0.0442428 0)
(1.27624 -0.0497392 0)
(1.23348 -0.056237 0)
(1.18228 -0.063969 0)
(1.12059 -0.0732158 0)
(1.04584 -0.0843015 0)
(0.954887 -0.0975605 0)
(0.843974 -0.113264 0)
(0.708775 -0.131409 0)
(0.545511 -0.15145 0)
(0.349095 -0.171287 0)
(0.122017 -0.186405 0)
(1.46038 0.00805904 0)
(1.4504 0.0150168 0)
(1.43245 0.0175688 0)
(1.40885 0.018638 0)
(1.38394 0.0193405 0)
(1.35907 0.0198258 0)
(1.33407 0.0201157 0)
(1.30873 0.0202568 0)
(1.28311 0.0203083 0)
(1.25733 0.0203006 0)
(1.23149 0.0202397 0)
(1.20561 0.0201214 0)
(1.17974 0.0199582 0)
(1.15391 0.0197676 0)
(1.12814 0.0195568 0)
(1.10243 0.0193262 0)
(1.07682 0.0190757 0)
(1.05131 0.018807 0)
(1.02593 0.0185248 0)
(1.00069 0.0182311 0)
(0.975612 0.0179256 0)
(0.950713 0.0176091 0)
(0.92601 0.01728 0)
(0.901524 0.01694 0)
(0.877265 0.0165913 0)
(0.853271 0.0162438 0)
(0.829511 0.0159133 0)
(0.805809 0.015559 0)
(0.782647 0.015139 0)
(0.759874 0.0146599 0)
(0.737519 0.0141382 0)
(0.715664 0.0135811 0)
(0.694361 0.0129921 0)
(0.673649 0.0123749 0)
(0.653566 0.0117334 0)
(0.634155 0.0110715 0)
(0.615451 0.0103924 0)
(0.597491 0.00969747 0)
(0.580305 0.00898803 0)
(0.563926 0.00826966 0)
(0.548378 0.00753648 0)
(0.533712 0.00678823 0)
(0.519923 0.00605739 0)
(0.507009 0.00535326 0)
(0.494976 0.00467256 0)
(0.483823 0.0040133 0)
(0.47355 0.00337447 0)
(0.464149 0.00275859 0)
(0.455606 0.00216814 0)
(0.447907 0.00160591 0)
(0.441025 0.00107361 0)
(0.434945 0.000569748 0)
(0.429633 0.000110452 0)
(0.425063 -0.000317842 0)
(0.421212 -0.000720026 0)
(0.418038 -0.00109651 0)
(0.415547 -0.00144678 0)
(0.41367 -0.00177483 0)
(0.412455 -0.00207538 0)
(0.411804 -0.00239803 0)
(0.411849 -0.00263904 0)
(0.41244 -0.00296162 0)
(0.413679 -0.00332227 0)
(0.415546 -0.00362357 0)
(0.418021 -0.00390331 0)
(0.421093 -0.00417377 0)
(0.424792 -0.00445014 0)
(0.429114 -0.00474094 0)
(0.434091 -0.00502317 0)
(0.439746 -0.00531123 0)
(0.446109 -0.00561171 0)
(0.453213 -0.00592805 0)
(0.461094 -0.00627034 0)
(0.4698 -0.00664341 0)
(0.479382 -0.00704465 0)
(0.489893 -0.00747642 0)
(0.501395 -0.00794113 0)
(0.513951 -0.00844045 0)
(0.527627 -0.00897518 0)
(0.54249 -0.00954485 0)
(0.558605 -0.0101487 0)
(0.576037 -0.0107854 0)
(0.594848 -0.0114519 0)
(0.615098 -0.0121431 0)
(0.636835 -0.0128523 0)
(0.660099 -0.0135722 0)
(0.684921 -0.0142967 0)
(0.711323 -0.015018 0)
(0.739308 -0.0157247 0)
(0.768862 -0.0163974 0)
(0.799937 -0.017011 0)
(0.832446 -0.0175422 0)
(0.866195 -0.0179889 0)
(0.90116 -0.0183439 0)
(0.93709 -0.0185647 0)
(0.973592 -0.0186054 0)
(1.01039 -0.0184379 0)
(1.04716 -0.0180439 0)
(1.08354 -0.0174275 0)
(1.1191 -0.0165824 0)
(1.47997 0.0115883 0)
(1.48684 0.0210948 0)
(1.49478 0.0247711 0)
(1.49734 0.0264937 0)
(1.49841 0.0277553 0)
(1.49895 0.028809 0)
(1.49888 0.0294799 0)
(1.49809 0.0300409 0)
(1.49662 0.0304191 0)
(1.49455 0.0307436 0)
(1.49193 0.0310334 0)
(1.4888 0.031244 0)
(1.48521 0.0314004 0)
(1.48119 0.0315359 0)
(1.47674 0.0316572 0)
(1.47186 0.0317611 0)
(1.46658 0.0318445 0)
(1.46091 0.0319023 0)
(1.45486 0.0319352 0)
(1.44844 0.0319461 0)
(1.44167 0.0319349 0)
(1.43456 0.0318984 0)
(1.42712 0.031837 0)
(1.41937 0.0317517 0)
(1.41131 0.0316441 0)
(1.40297 0.0315154 0)
(1.39437 0.0313666 0)
(1.38555 0.0311669 0)
(1.37652 0.0308851 0)
(1.36728 0.0305312 0)
(1.35785 0.0301158 0)
(1.34823 0.0296401 0)
(1.33848 0.0291029 0)
(1.3286 0.0285046 0)
(1.31863 0.0278458 0)
(1.3086 0.0271303 0)
(1.29853 0.0263628 0)
(1.28844 0.0255437 0)
(1.27836 0.0246733 0)
(1.26832 0.0237545 0)
(1.25837 0.0227916 0)
(1.24843 0.021785 0)
(1.23864 0.020749 0)
(1.22899 0.0196804 0)
(1.21953 0.0185874 0)
(1.21026 0.017478 0)
(1.20124 0.0163601 0)
(1.19245 0.0152369 0)
(1.18396 0.0141193 0)
(1.17575 0.0130089 0)
(1.16788 0.011914 0)
(1.16032 0.0108342 0)
(1.15311 0.00977483 0)
(1.14627 0.00873688 0)
(1.1398 0.00772023 0)
(1.13373 0.00672579 0)
(1.12807 0.00575141 0)
(1.12282 0.00479417 0)
(1.11802 0.00385112 0)
(1.11366 0.00291221 0)
(1.10976 0.00197272 0)
(1.10632 0.00103085 0)
(1.10336 8.31409e-05 0)
(1.10089 -0.00088123 0)
(1.09896 -0.00186673 0)
(1.09766 -0.00286207 0)
(1.097 -0.00389473 0)
(1.09697 -0.00491049 0)
(1.09763 -0.00600334 0)
(1.09902 -0.00714956 0)
(1.10119 -0.00834854 0)
(1.10418 -0.00960469 0)
(1.10804 -0.0109233 0)
(1.11282 -0.0123113 0)
(1.11858 -0.0137766 0)
(1.12537 -0.0153268 0)
(1.13325 -0.0169676 0)
(1.14228 -0.0187028 0)
(1.15252 -0.0205342 0)
(1.16403 -0.0224608 0)
(1.17688 -0.0244813 0)
(1.19111 -0.0265961 0)
(1.2068 -0.0288011 0)
(1.22399 -0.0310865 0)
(1.24274 -0.0334402 0)
(1.26311 -0.0358507 0)
(1.28512 -0.0383058 0)
(1.30883 -0.0407868 0)
(1.33422 -0.0432739 0)
(1.36133 -0.0457247 0)
(1.39011 -0.0480661 0)
(1.42045 -0.0502176 0)
(1.45221 -0.0521282 0)
(1.48518 -0.0537656 0)
(1.51918 -0.0550654 0)
(1.55403 -0.0559477 0)
(1.58953 -0.0563487 0)
(1.62542 -0.0562282 0)
(1.6615 -0.0555599 0)
(1.69727 -0.0543402 0)
(1.4785 0.00539553 0)
(1.48172 0.0117425 0)
(1.48625 0.0151248 0)
(1.49046 0.0175692 0)
(1.49391 0.019662 0)
(1.49688 0.0214248 0)
(1.49977 0.0229046 0)
(1.50226 0.0240963 0)
(1.50465 0.0251224 0)
(1.5066 0.0259981 0)
(1.50871 0.0267933 0)
(1.51048 0.0275186 0)
(1.51197 0.0281821 0)
(1.51329 0.0287924 0)
(1.51444 0.0293555 0)
(1.51543 0.0298746 0)
(1.51627 0.030351 0)
(1.51697 0.0308041 0)
(1.51752 0.0312225 0)
(1.51793 0.0316041 0)
(1.5182 0.0319438 0)
(1.51833 0.0322672 0)
(1.51832 0.032536 0)
(1.51818 0.0327844 0)
(1.51788 0.0330078 0)
(1.51744 0.033225 0)
(1.51687 0.0333929 0)
(1.51619 0.0334387 0)
(1.51538 0.0334029 0)
(1.51443 0.0332996 0)
(1.51332 0.0331281 0)
(1.51207 0.0328865 0)
(1.51067 0.0325719 0)
(1.50913 0.0321826 0)
(1.50745 0.0317171 0)
(1.50564 0.031175 0)
(1.50369 0.0305601 0)
(1.50162 0.029879 0)
(1.49942 0.0291341 0)
(1.4971 0.0283275 0)
(1.49468 0.0274649 0)
(1.49217 0.0265512 0)
(1.48958 0.0255872 0)
(1.48691 0.024577 0)
(1.48417 0.0235267 0)
(1.48138 0.0224399 0)
(1.47855 0.0213209 0)
(1.4757 0.0201773 0)
(1.47284 0.0190183 0)
(1.47 0.0178507 0)
(1.46718 0.016679 0)
(1.46439 0.0155064 0)
(1.46167 0.0143357 0)
(1.45902 0.0131683 0)
(1.45645 0.0120041 0)
(1.454 0.0108429 0)
(1.45168 0.00968038 0)
(1.44949 0.00850038 0)
(1.44747 0.00731244 0)
(1.44562 0.00610136 0)
(1.44397 0.00488033 0)
(1.44254 0.00363745 0)
(1.44134 0.00235223 0)
(1.44042 0.00104415 0)
(1.43975 -0.000328515 0)
(1.43937 -0.00174598 0)
(1.43931 -0.00323883 0)
(1.43961 -0.00480291 0)
(1.4403 -0.00644561 0)
(1.44142 -0.00817708 0)
(1.44301 -0.0100068 0)
(1.44509 -0.0119441 0)
(1.44771 -0.0139993 0)
(1.45091 -0.0161824 0)
(1.45475 -0.0185032 0)
(1.45927 -0.0209704 0)
(1.46453 -0.0235911 0)
(1.47059 -0.026371 0)
(1.47749 -0.0293123 0)
(1.48531 -0.0324089 0)
(1.49409 -0.0356587 0)
(1.50389 -0.0390655 0)
(1.51478 -0.0426251 0)
(1.52681 -0.0463257 0)
(1.54006 -0.050151 0)
(1.55458 -0.0540786 0)
(1.57041 -0.0580824 0)
(1.58757 -0.0621298 0)
(1.60613 -0.0662029 0)
(1.62607 -0.0702387 0)
(1.64736 -0.0741098 0)
(1.66991 -0.0776755 0)
(1.69368 -0.080831 0)
(1.71862 -0.0835469 0)
(1.74475 -0.0857871 0)
(1.77198 -0.0874656 0)
(1.80018 -0.0884822 0)
(1.82916 -0.0887571 0)
(1.85865 -0.0882249 0)
(1.88839 -0.0868548 0)
(1.47803 0.00330843 0)
(1.47982 0.00903986 0)
(1.48293 0.0132457 0)
(1.48626 0.0163737 0)
(1.48916 0.0188073 0)
(1.49179 0.0207759 0)
(1.49436 0.0223742 0)
(1.49685 0.0236783 0)
(1.49924 0.0247666 0)
(1.50149 0.0257038 0)
(1.50362 0.026493 0)
(1.50568 0.0272057 0)
(1.50769 0.0278739 0)
(1.50966 0.028483 0)
(1.51158 0.0290297 0)
(1.51345 0.0295195 0)
(1.51527 0.0299708 0)
(1.51704 0.0303704 0)
(1.51878 0.0307352 0)
(1.52048 0.0310719 0)
(1.52216 0.0313848 0)
(1.52381 0.0316574 0)
(1.52544 0.031901 0)
(1.52706 0.0321149 0)
(1.52864 0.0322973 0)
(1.53037 0.0324458 0)
(1.532 0.0325595 0)
(1.53359 0.0326252 0)
(1.53515 0.0326322 0)
(1.53665 0.0325756 0)
(1.53809 0.0324522 0)
(1.53948 0.0322608 0)
(1.5408 0.0320013 0)
(1.54206 0.0316733 0)
(1.54325 0.0312695 0)
(1.54435 0.0308163 0)
(1.54536 0.0303202 0)
(1.54631 0.0297319 0)
(1.54718 0.0290751 0)
(1.54797 0.0283578 0)
(1.54868 0.0275846 0)
(1.54931 0.0267576 0)
(1.54986 0.0258774 0)
(1.55034 0.0249493 0)
(1.55073 0.0239846 0)
(1.55103 0.0229803 0)
(1.55127 0.0219282 0)
(1.55145 0.0208363 0)
(1.55158 0.019717 0)
(1.55166 0.0185784 0)
(1.55169 0.0174242 0)
(1.55169 0.0162577 0)
(1.55167 0.0150802 0)
(1.55164 0.0138893 0)
(1.5516 0.0126824 0)
(1.55158 0.0114613 0)
(1.55159 0.010227 0)
(1.55164 0.00897548 0)
(1.55174 0.00770163 0)
(1.5519 0.00639891 0)
(1.55214 0.00506076 0)
(1.55247 0.00367969 0)
(1.5529 0.00224581 0)
(1.55346 0.000753896 0)
(1.55416 -0.00080924 0)
(1.55501 -0.00244755 0)
(1.55602 -0.00416821 0)
(1.55723 -0.00597911 0)
(1.55865 -0.00789431 0)
(1.56031 -0.00992802 0)
(1.56223 -0.0120921 0)
(1.56444 -0.0143975 0)
(1.56698 -0.0168559 0)
(1.56987 -0.0194795 0)
(1.57316 -0.0222805 0)
(1.57688 -0.0252719 0)
(1.58107 -0.0284628 0)
(1.5858 -0.0318645 0)
(1.5911 -0.0354848 0)
(1.59703 -0.0393066 0)
(1.60363 -0.0433276 0)
(1.61098 -0.0475651 0)
(1.61915 -0.0520202 0)
(1.62824 -0.0566848 0)
(1.63831 -0.0615447 0)
(1.64946 -0.0665737 0)
(1.66175 -0.0717324 0)
(1.67523 -0.0769716 0)
(1.69001 -0.0822265 0)
(1.70572 -0.0874169 0)
(1.72282 -0.0924577 0)
(1.74128 -0.097268 0)
(1.76151 -0.101764 0)
(1.78356 -0.10584 0)
(1.80703 -0.109368 0)
(1.83179 -0.112206 0)
(1.85772 -0.114215 0)
(1.88464 -0.115275 0)
(1.9123 -0.115283 0)
(1.94044 -0.11417 0)
(1.47783 0.00242538 0)
(1.47886 0.00701841 0)
(1.48088 0.0106875 0)
(1.48327 0.0134771 0)
(1.48561 0.0156842 0)
(1.48785 0.017528 0)
(1.49007 0.0190898 0)
(1.49228 0.0204093 0)
(1.49443 0.0215291 0)
(1.49651 0.0224996 0)
(1.49852 0.0233585 0)
(1.5005 0.024142 0)
(1.50244 0.0248626 0)
(1.50436 0.0255212 0)
(1.50627 0.0261224 0)
(1.50816 0.0266746 0)
(1.51004 0.0271855 0)
(1.51193 0.0276595 0)
(1.51381 0.0280968 0)
(1.51569 0.0284976 0)
(1.51757 0.0288604 0)
(1.51947 0.0291945 0)
(1.52136 0.0294935 0)
(1.52325 0.0297543 0)
(1.52514 0.0299657 0)
(1.52702 0.0301348 0)
(1.52891 0.0302809 0)
(1.53082 0.0303914 0)
(1.53274 0.0304481 0)
(1.53465 0.0304432 0)
(1.53656 0.0303745 0)
(1.53844 0.0302437 0)
(1.54031 0.0300465 0)
(1.54214 0.0297857 0)
(1.54396 0.0294557 0)
(1.54572 0.0290645 0)
(1.54747 0.0286033 0)
(1.54915 0.0280809 0)
(1.55081 0.0274895 0)
(1.5524 0.0268426 0)
(1.55396 0.0261217 0)
(1.55544 0.0253565 0)
(1.55689 0.0245294 0)
(1.55827 0.0236647 0)
(1.55962 0.0227527 0)
(1.56099 0.0217994 0)
(1.56225 0.0208095 0)
(1.56343 0.0197874 0)
(1.56455 0.0187367 0)
(1.56561 0.0176602 0)
(1.56661 0.0165607 0)
(1.56757 0.0154413 0)
(1.56849 0.0143068 0)
(1.56938 0.01315 0)
(1.57026 0.0119604 0)
(1.57113 0.010742 0)
(1.57201 0.00949985 0)
(1.5729 0.00823035 0)
(1.57381 0.00692674 0)
(1.57475 0.00558167 0)
(1.57573 0.00419088 0)
(1.57675 0.00274726 0)
(1.57784 0.00124018 0)
(1.579 -0.000336928 0)
(1.58024 -0.00199474 0)
(1.58158 -0.00374298 0)
(1.58302 -0.00559267 0)
(1.58459 -0.00755601 0)
(1.5863 -0.00964671 0)
(1.58817 -0.0118787 0)
(1.59023 -0.0142655 0)
(1.59249 -0.0168205 0)
(1.59498 -0.0195579 0)
(1.59773 -0.0224927 0)
(1.60077 -0.0256404 0)
(1.60413 -0.0290158 0)
(1.60785 -0.0326336 0)
(1.61199 -0.0365071 0)
(1.61655 -0.0406482 0)
(1.6216 -0.0450684 0)
(1.62735 -0.049778 0)
(1.63384 -0.0547814 0)
(1.64109 -0.060079 0)
(1.64917 -0.0656665 0)
(1.65817 -0.0715295 0)
(1.66817 -0.0776417 0)
(1.67927 -0.0839616 0)
(1.69156 -0.0904351 0)
(1.70517 -0.0969714 0)
(1.72021 -0.103497 0)
(1.73679 -0.109973 0)
(1.75492 -0.116348 0)
(1.77459 -0.122516 0)
(1.79578 -0.128263 0)
(1.8185 -0.133355 0)
(1.84271 -0.137592 0)
(1.8683 -0.140805 0)
(1.89508 -0.142834 0)
(1.92277 -0.14354 0)
(1.9511 -0.142813 0)
(1.47774 0.00189678 0)
(1.47838 0.00558294 0)
(1.47976 0.00879541 0)
(1.48159 0.0114631 0)
(1.48354 0.0136953 0)
(1.48549 0.0156097 0)
(1.48745 0.0172637 0)
(1.48942 0.018687 0)
(1.49137 0.0199135 0)
(1.49329 0.020983 0)
(1.49518 0.0219252 0)
(1.49704 0.0227629 0)
(1.49887 0.0235137 0)
(1.50068 0.0241897 0)
(1.50249 0.0247993 0)
(1.50429 0.0253504 0)
(1.50608 0.0258497 0)
(1.50788 0.0263014 0)
(1.50967 0.0267089 0)
(1.51146 0.0270753 0)
(1.51326 0.0274031 0)
(1.51507 0.027694 0)
(1.51689 0.0279476 0)
(1.51871 0.0281645 0)
(1.52055 0.0283439 0)
(1.5224 0.0284887 0)
(1.52427 0.0286018 0)
(1.52615 0.0286746 0)
(1.52804 0.0286972 0)
(1.52995 0.0286648 0)
(1.53186 0.0285767 0)
(1.53377 0.0284321 0)
(1.53568 0.0282294 0)
(1.53758 0.027968 0)
(1.53947 0.0276469 0)
(1.54133 0.0272689 0)
(1.54318 0.0268324 0)
(1.545 0.0263375 0)
(1.54679 0.0257804 0)
(1.54854 0.0251714 0)
(1.55026 0.0245095 0)
(1.55191 0.0237993 0)
(1.55354 0.0230303 0)
(1.55509 0.0222167 0)
(1.55661 0.0213414 0)
(1.55805 0.0204301 0)
(1.55945 0.0194878 0)
(1.5608 0.0185273 0)
(1.56212 0.0175274 0)
(1.56339 0.0165043 0)
(1.56462 0.015444 0)
(1.56581 0.0143602 0)
(1.56698 0.0132467 0)
(1.56818 0.0121044 0)
(1.56931 0.0109319 0)
(1.57038 0.00972723 0)
(1.57146 0.00848746 0)
(1.57253 0.00720802 0)
(1.57361 0.00588366 0)
(1.57471 0.00450859 0)
(1.57581 0.00307645 0)
(1.57698 0.00158003 0)
(1.57819 1.1005e-05 0)
(1.57945 -0.00163874 0)
(1.58077 -0.00337892 0)
(1.58218 -0.00522123 0)
(1.58367 -0.00717818 0)
(1.58526 -0.0092629 0)
(1.58698 -0.0114896 0)
(1.58883 -0.0138737 0)
(1.59084 -0.0164315 0)
(1.59302 -0.0191795 0)
(1.59541 -0.0221352 0)
(1.59803 -0.0253166 0)
(1.60091 -0.0287426 0)
(1.60409 -0.0324312 0)
(1.60762 -0.036403 0)
(1.61153 -0.0406752 0)
(1.61589 -0.0452654 0)
(1.62075 -0.0502123 0)
(1.62616 -0.0555362 0)
(1.63218 -0.0612307 0)
(1.63891 -0.0672966 0)
(1.64643 -0.0737341 0)
(1.65485 -0.0805338 0)
(1.66428 -0.0876763 0)
(1.67482 -0.0951299 0)
(1.6866 -0.102848 0)
(1.69973 -0.110766 0)
(1.71435 -0.118817 0)
(1.73058 -0.12692 0)
(1.74848 -0.134955 0)
(1.76812 -0.14275 0)
(1.78951 -0.15008 0)
(1.81267 -0.156705 0)
(1.83753 -0.162393 0)
(1.86398 -0.166915 0)
(1.89182 -0.170042 0)
(1.92078 -0.171567 0)
(1.95049 -0.171323 0)
(1.4777 0.00155567 0)
(1.47815 0.00461975 0)
(1.47916 0.00743368 0)
(1.48057 0.00988847 0)
(1.48217 0.0119924 0)
(1.48383 0.0138097 0)
(1.48553 0.0153914 0)
(1.48727 0.0167688 0)
(1.48904 0.0179682 0)
(1.4908 0.0190189 0)
(1.49255 0.0199465 0)
(1.49429 0.0207724 0)
(1.49603 0.021514 0)
(1.49776 0.0221836 0)
(1.49949 0.0227895 0)
(1.50122 0.0233385 0)
(1.50294 0.0238366 0)
(1.50467 0.0242885 0)
(1.50641 0.024698 0)
(1.50814 0.0250679 0)
(1.50989 0.0254001 0)
(1.51164 0.025696 0)
(1.5134 0.025956 0)
(1.51517 0.0261795 0)
(1.51695 0.0263657 0)
(1.51874 0.0265138 0)
(1.52053 0.026623 0)
(1.52234 0.0266901 0)
(1.52416 0.0267107 0)
(1.52599 0.0266813 0)
(1.52782 0.0266 0)
(1.52965 0.0264654 0)
(1.53148 0.026276 0)
(1.53329 0.0260309 0)
(1.5351 0.0257301 0)
(1.53688 0.0253742 0)
(1.53865 0.0249631 0)
(1.5404 0.0244959 0)
(1.54212 0.0239731 0)
(1.5438 0.0233969 0)
(1.54546 0.0227683 0)
(1.54707 0.0220904 0)
(1.54865 0.0213625 0)
(1.55019 0.0205897 0)
(1.55168 0.0197708 0)
(1.55313 0.0189158 0)
(1.55453 0.0180283 0)
(1.55589 0.01711 0)
(1.55721 0.0161543 0)
(1.55849 0.0151659 0)
(1.55973 0.0141423 0)
(1.56094 0.0130869 0)
(1.56212 0.0119931 0)
(1.56327 0.0108682 0)
(1.5644 0.0097202 0)
(1.56552 0.00854056 0)
(1.56664 0.00731741 0)
(1.56775 0.00604491 0)
(1.56886 0.00471946 0)
(1.56998 0.00333592 0)
(1.57112 0.0018851 0)
(1.57227 0.000359507 0)
(1.57345 -0.00124704 0)
(1.57467 -0.00294452 0)
(1.57595 -0.00474393 0)
(1.57728 -0.00665757 0)
(1.57869 -0.00869939 0)
(1.58018 -0.0108844 0)
(1.58177 -0.0132287 0)
(1.58348 -0.0157494 0)
(1.58533 -0.0184651 0)
(1.58732 -0.0213952 0)
(1.5895 -0.0245601 0)
(1.59188 -0.0279816 0)
(1.5945 -0.0316825 0)
(1.59739 -0.0356868 0)
(1.6006 -0.0400195 0)
(1.60416 -0.0447066 0)
(1.60813 -0.0497753 0)
(1.61257 -0.0552558 0)
(1.61755 -0.0611701 0)
(1.62313 -0.0675301 0)
(1.6294 -0.0743468 0)
(1.63646 -0.0816297 0)
(1.64443 -0.0893824 0)
(1.65341 -0.0975989 0)
(1.66354 -0.106258 0)
(1.67496 -0.115318 0)
(1.68782 -0.124721 0)
(1.70225 -0.134383 0)
(1.71842 -0.144195 0)
(1.73643 -0.15401 0)
(1.75639 -0.163637 0)
(1.77836 -0.172837 0)
(1.80235 -0.181335 0)
(1.82832 -0.188826 0)
(1.85617 -0.194989 0)
(1.88568 -0.199503 0)
(1.91654 -0.20207 0)
(1.94833 -0.202451 0)
(1.47768 0.00131553 0)
(1.47801 0.0039164 0)
(1.47878 0.00636584 0)
(1.4799 0.0085736 0)
(1.48121 0.0105202 0)
(1.48264 0.0122366 0)
(1.48414 0.0137575 0)
(1.4857 0.0151056 0)
(1.4873 0.0162983 0)
(1.48893 0.0173553 0)
(1.49057 0.0182965 0)
(1.49221 0.0191389 0)
(1.49386 0.0198962 0)
(1.49551 0.0205787 0)
(1.49717 0.0211948 0)
(1.49883 0.0217511 0)
(1.5005 0.0222536 0)
(1.50217 0.0227069 0)
(1.50385 0.0231149 0)
(1.50553 0.0234803 0)
(1.50722 0.0238052 0)
(1.50892 0.0240911 0)
(1.51063 0.0243388 0)
(1.51235 0.0245485 0)
(1.51408 0.0247198 0)
(1.51582 0.0248523 0)
(1.51756 0.0249456 0)
(1.51931 0.0249981 0)
(1.52107 0.0250073 0)
(1.52284 0.0249701 0)
(1.5246 0.0248845 0)
(1.52637 0.0247491 0)
(1.52812 0.0245628 0)
(1.52987 0.0243251 0)
(1.53161 0.0240357 0)
(1.53333 0.0236944 0)
(1.53503 0.0233013 0)
(1.5367 0.0228563 0)
(1.53835 0.02236 0)
(1.53997 0.0218141 0)
(1.54156 0.02122 0)
(1.54312 0.0205791 0)
(1.54463 0.019892 0)
(1.54611 0.0191612 0)
(1.54755 0.0183875 0)
(1.54894 0.0175751 0)
(1.55029 0.0167255 0)
(1.5516 0.0158413 0)
(1.55287 0.0149203 0)
(1.55411 0.0139653 0)
(1.55531 0.0129747 0)
(1.55648 0.0119496 0)
(1.55762 0.0108881 0)
(1.55873 0.00979196 0)
(1.55981 0.00866119 0)
(1.56088 0.00748915 0)
(1.56194 0.00626825 0)
(1.563 0.00499368 0)
(1.56405 0.00366113 0)
(1.5651 0.0022644 0)
(1.56616 0.000795286 0)
(1.56724 -0.00075447 0)
(1.56834 -0.00239345 0)
(1.56947 -0.00413224 0)
(1.57063 -0.00598282 0)
(1.57185 -0.00795853 0)
(1.57312 -0.0100742 0)
(1.57446 -0.0123457 0)
(1.57589 -0.0147907 0)
(1.57741 -0.0174281 0)
(1.57905 -0.0202784 0)
(1.58083 -0.0233637 0)
(1.58276 -0.0267077 0)
(1.58487 -0.0303357 0)
(1.58719 -0.0342751 0)
(1.58976 -0.0385547 0)
(1.59261 -0.043205 0)
(1.59579 -0.0482582 0)
(1.59935 -0.0537474 0)
(1.60336 -0.0597067 0)
(1.60787 -0.066168 0)
(1.61297 -0.0731592 0)
(1.61875 -0.0807056 0)
(1.62531 -0.0888294 0)
(1.63277 -0.0975456 0)
(1.64126 -0.106858 0)
(1.65093 -0.116754 0)
(1.66194 -0.127205 0)
(1.67446 -0.138158 0)
(1.68867 -0.14953 0)
(1.70474 -0.161203 0)