/*--------------------------------*- C++ -*----------------------------------*\
| =========                 |                                                 |
| \\      /  F ield         | OpenFOAM: The Open Source CFD Toolbox           |
|  \\    /   O peration     | Version:  2206                                  |
|   \\  /    A nd           | Website:  www.openfoam.com                      |
|    \\/     M anipulation  |                                                 |
\*---------------------------------------------------------------------------*/
FoamFile
{
    version     2.0;
    format      ascii;
    arch        "LSB;label=32;scalar=64";
    class       volVectorField;
    location    "18.2001";
    object      ddtCorrDdt0(U);
}
// * * * * * * * * * * * * * * * * * * * * * * * * * * * * * * * * * * * * * //

dimensions      [0 1 -2 0 0 0 0];

internalField   nonuniform List<vector> 
4866
(
(46.2564 -6.51585 0)
(44.9848 -3.4185 0)
(60.4179 -14.8872 0)
(61.773 -5.85289 0)
(48.0379 -23.4791 0)
(50.9141 -22.4556 0)
(53.7742 -22.1837 0)
(5.2072 -30.8504 0)
(10.2821 -27.452 0)
(14.9189 -25.6915 0)
(-7.55739 -30.8353 0)
(-7.58382 -29.7598 0)
(-6.73558 -28.9384 0)
(-11.9917 -30.3501 0)
(-13.3531 -29.362 0)
(-14.4983 -28.5555 0)
(-12.5853 -27.7409 0)
(-14.77 -26.9926 0)
(-16.7658 -26.2389 0)
(-12.1486 -24.85 0)
(-14.9829 -24.4473 0)
(-17.5081 -23.8673 0)
(-11.7647 -22.0693 0)
(-14.1974 -21.3756 0)
(-16.5724 -20.6841 0)
(-11.1685 -19.2398 0)
(-13.5399 -18.7831 0)
(-15.8625 -18.1412 0)
(-10.6991 -16.637 0)
(-12.9173 -16.1752 0)
(-15.0963 -15.4769 0)
(-10.3173 -14.2406 0)
(-12.3526 -13.8026 0)
(-14.35 -13.1305 0)
(-9.94273 -12.0625 0)
(-11.7844 -11.6313 0)
(-13.5818 -10.9867 0)
(-9.58525 -10.1278 0)
(-11.1937 -9.7177 0)
(-12.8053 -9.11887 0)
(-9.23135 -8.4299 0)
(-10.6165 -8.02018 0)
(-12.0069 -7.49793 0)
(-8.87308 -6.95488 0)
(-10.0803 -6.55609 0)
(-11.2603 -6.06736 0)
(-8.50369 -5.6784 0)
(-9.54571 -5.31603 0)
(-10.5587 -4.90608 0)
(-8.12289 -4.58558 0)
(-9.01128 -4.26077 0)
(-9.87203 -3.88358 0)
(-7.76216 -3.64919 0)
(-8.53047 -3.34143 0)
(-9.29109 -2.9543 0)
(-7.42792 -2.83648 0)
(-8.1 -2.53076 0)
(-8.76869 -2.13926 0)
(-7.11341 -2.12572 0)
(-7.70065 -1.82049 0)
(-8.28106 -1.43666 0)
(-6.81461 -1.50358 0)
(-7.32701 -1.20582 0)
(-7.82806 -0.837711 0)
(-6.53002 -0.957121 0)
(-6.97765 -0.672489 0)
(-7.40941 -0.327243 0)
(-6.25013 -0.476838 0)
(-6.63981 -0.2054 0)
(-7.01264 0.114436 0)
(-5.9448 -0.0648912 0)
(-6.27544 0.186509 0)
(-6.58669 0.479509 0)
(-5.54894 0.294887 0)
(-5.82346 0.52821 0)
(-6.06945 0.785205 0)
(-4.95046 0.563876 0)
(-5.1251 0.76928 0)
(-5.26684 0.985512 0)
(-3.82809 0.728996 0)
(-3.8379 0.886089 0)
(-3.78474 1.02305 0)
(-2.17691 0.632248 0)
(-1.95924 0.728851 0)
(-1.61492 0.793487 0)
(-0.415788 0.329313 0)
(0.0754219 0.291885 0)
(0.477896 0.155665 0)
(43.6167 -6.24212 0)
(18.6528 -34.3545 0)
(10.0506 -54.6971 0)
(-3.67118 -72.979 0)
(-13.7774 -93.3824 0)
(-23.3993 -111.198 0)
(-33.7143 -125.932 0)
(-45.2046 -137.774 0)
(-57.6919 -144.731 0)
(-68.448 -142.502 0)
(-79.889 -131.919 0)
(-90.056 -113.718 0)
(-102.129 -88.7402 0)
(-117.875 -57.191 0)
(-138.685 -19.2113 0)
(-162.883 26.0106 0)
(-187.031 75.844 0)
(-205.037 125.906 0)
(-212.172 171.286 0)
(-208.258 209.895 0)
(-201.177 247.285 0)
(-198.933 288.296 0)
(-195.896 321.696 0)
(-168.53 311.612 0)
(-129.834 274.402 0)
(-86.961 222.787 0)
(-46.05 168.14 0)
(-11.5065 117.847 0)
(14.5924 75.8628 0)
(36.3507 43.4665 0)
(53.2956 13.5378 0)
(62.068 -6.93352 0)
(65.521 -17.2302 0)
(64.5352 -21.5192 0)
(61.8056 -22.6375 0)
(58.8559 -22.0677 0)
(56.1676 -20.6152 0)
(53.9768 -18.7982 0)
(52.3853 -16.8936 0)
(51.4135 -15.066 0)
(51.0739 -13.3929 0)
(51.4334 -11.8314 0)
(52.4412 -10.3582 0)
(53.9227 -9.23523 0)
(55.7905 -8.80885 0)
(58.144 -8.77503 0)
(61.7502 -7.99743 0)
(67.5052 -5.39975 0)
(75.1007 -1.81039 0)
(81.8961 -1.66236 0)
(84.0231 -11.0694 0)
(79.0849 -33.0487 0)
(67.1318 -65.9552 0)
(50.7015 -103.809 0)
(31.1416 -139.209 0)
(15.2659 -166.679 0)
(-1.97233 -184.571 0)
(-18.1045 -191.353 0)
(-29.7735 -187.532 0)
(-40.1838 -177.721 0)
(-48.1899 -163.17 0)
(-53.5995 -145.319 0)
(-56.6069 -125.706 0)
(-57.4489 -105.753 0)
(-56.4878 -86.6369 0)
(-54.1347 -69.2386 0)
(-50.7932 -54.1573 0)
(-46.8181 -41.6775 0)
(-42.5615 -31.8833 0)
(-38.3178 -24.6864 0)
(-34.2967 -19.904 0)
(-30.582 -17.3797 0)
(-27.1975 -17.1145 0)
(-24.1622 -19.1085 0)
(-21.2713 -22.6645 0)
(-18.9638 -26.9282 0)
(-17.596 -30.3572 0)
(-17.0355 -30.5494 0)
(-17.0505 -27.4868 0)
(-16.4804 -22.1301 0)
(-15.6701 -14.8446 0)
(-16.7514 -2.0287 0)
(-17.1423 19.0611 0)
(-16.8605 44.4611 0)
(-15.9998 71.968 0)
(-15.307 100.724 0)
(-14.6632 129.595 0)
(-13.9632 157.102 0)
(-13.2352 181.583 0)
(-12.4797 201.184 0)
(-11.5997 213.425 0)
(-10.2036 214.345 0)
(-8.21359 207.194 0)
(-5.85163 193.621 0)
(-3.16954 175.024 0)
(-0.301865 153.025 0)
(2.60839 129.27 0)
(5.45349 105.264 0)
(8.13998 82.2495 0)
(10.5429 61.114 0)
(12.536 42.4368 0)
(14.3748 26.475 0)
(17.1691 12.5374 0)
(19.3831 0.368911 0)
(21.5084 -8.0295 0)
(23.544 -13.2811 0)
(25.3508 -16.019 0)
(27.1482 -16.7898 0)
(29.0375 -16.1636 0)
(31.0429 -14.6842 0)
(33.1282 -12.9282 0)
(35.1808 -11.5572 0)
(37.0272 -11.2857 0)
(38.4793 -12.7682 0)
(39.3864 -16.4484 0)
(39.6707 -22.4425 0)
(39.331 -30.5132 0)
(38.413 -40.1495 0)
(36.9654 -50.7177 0)
(35.0025 -61.6093 0)
(32.4922 -72.3256 0)
(29.3805 -82.4998 0)
(25.6062 -91.8601 0)
(21.1373 -100.162 0)
(16.0777 -107.143 0)
(10.5762 -112.521 0)
(4.1558 -116.022 0)
(-0.20439 -117.376 0)
(-7.8319 -116.401 0)
(-12.8334 -113.46 0)
(-17.8489 -108.815 0)
(-22.2081 -102.677 0)
(-25.7329 -95.3545 0)
(-28.4374 -87.2213 0)
(-30.3076 -78.6676 0)
(-31.3702 -70.0802 0)
(-31.6853 -61.7951 0)
(79.3856 7.00782 0)
(83.3331 -4.01499 0)
(69.8696 -21.9297 0)
(52.2875 -45.8643 0)
(28.4538 -69.9686 0)
(4.19242 -93.6396 0)
(-20.1989 -111.865 0)
(-43.6868 -123.48 0)
(-65.688 -124.845 0)
(-87.8093 -123.544 0)
(-111.272 -114.957 0)
(-133.853 -97.6346 0)
(-155.153 -71.5576 0)
(-175.241 -38.0322 0)
(-193.281 0.799739 0)
(-206.982 42.4539 0)
(-213.29 83.6252 0)
(-211.892 122.186 0)
(-205.825 158.344 0)
(-202.339 196.947 0)
(-207.321 243.495 0)
(-214.47 290.407 0)
(-189.828 295.609 0)
(-144.3 267.019 0)
(-93.42 222.172 0)
(-45.9724 172.623 0)
(-6.76516 125.53 0)
(22.9803 85.3384 0)
(47.1617 52.2908 0)
(64.3195 22.5195 0)
(72.717 1.95236 0)
(75.4806 -9.61877 0)
(73.0139 -15.3251 0)
(69.34 -17.8786 0)
(65.3673 -18.6372 0)
(61.6379 -18.3999 0)
(58.4688 -17.6075 0)
(55.993 -16.5173 0)
(54.211 -15.3393 0)
(53.0682 -14.2259 0)
(52.5278 -13.2439 0)
(52.6115 -12.374 0)
(53.3136 -11.548 0)
(54.5316 -10.9043 0)
(56.1559 -10.8425 0)
(58.0044 -11.4954 0)
(60.4489 -12.2791 0)
(64.4006 -11.9858 0)
(70.5257 -9.90768 0)
(77.7586 -7.93871 0)
(82.6243 -11.293 0)
(81.3196 -25.1847 0)
(72.3528 -50.5896 0)
(57.0919 -83.8598 0)
(37.6967 -118.468 0)
(17.3754 -147.235 0)
(3.2334 -166.367 0)
(-15.6648 -175.549 0)
(-26.8653 -174.819 0)
(-37.0254 -167.491 0)
(-45.1622 -155.511 0)
(-50.9351 -140.289 0)
(-54.5102 -123.158 0)
(-56.0592 -105.384 0)
(-55.863 -88.0566 0)
(-54.2737 -72.0214 0)
(-51.6611 -57.8738 0)
(-48.3857 -45.9297 0)
(-44.7842 -36.3176 0)
(-41.1322 -29.0228 0)
(-37.6186 -23.973 0)
(-34.3306 -21.1414 0)
(-31.3266 -20.5874 0)
(-28.6943 -22.1932 0)
(-26.3958 -25.1573 0)
(-24.8768 -28.5404 0)
(-24.3808 -30.9659 0)
(-24.3892 -30.6409 0)
(-24.5784 -27.6692 0)
(-24.3739 -22.399 0)
(-24.8876 -14.199 0)
(-26.2583 -0.625388 0)
(-27.0889 19.1156 0)
(-27.1064 43.7442 0)
(-26.3776 71.0176 0)
(-25.3553 99.6046 0)
(-23.9329 128.244 0)
(-22.0453 155.472 0)
(-19.691 179.669 0)
(-16.9149 198.997 0)
(-13.7521 210.953 0)
(-10.0704 211.263 0)
(-5.9915 203.722 0)
(-1.80993 189.883 0)
(2.36101 171.195 0)
(6.34488 149.262 0)
(10.0033 125.702 0)
(13.2684 101.977 0)
(16.1157 79.301 0)
(18.5374 58.5571 0)
(20.5215 40.1909 0)
(22.5115 24.162 0)
(25.0474 9.88128 0)
(26.5294 -1.85614 0)
(28.1395 -9.95194 0)
(29.51 -15.0413 0)
(30.706 -17.715 0)
(31.9211 -18.5413 0)
(33.2491 -18.0482 0)
(34.7461 -16.7167 0)
(36.4045 -15.0362 0)
(38.1232 -13.5776 0)
(39.7206 -13.0028 0)
(40.9785 -13.9714 0)
(41.7022 -16.9878 0)
(41.7719 -22.2585 0)
(41.1636 -29.6285 0)
(39.9296 -38.6271 0)
(38.1515 -48.6082 0)
(35.8877 -58.9198 0)
(33.1427 -69.0259 0)
(29.8805 -78.5418 0)
(26.0425 -87.2033 0)
(21.5911 -94.8189 0)
(16.5949 -101.216 0)
(11.0918 -106.216 0)
(4.85958 -109.574 0)
(-0.321421 -110.658 0)
(-6.99634 -109.759 0)
(-12.2559 -107.454 0)
(-17.3511 -103.515 0)
(-21.8376 -98.1523 0)
(-25.5599 -91.7006 0)
(-28.5045 -84.4889 0)
(-30.6485 -76.8648 0)
(-32.0086 -69.1502 0)
(-32.6522 -61.6173 0)
(60.0451 -22.1908 0)
(72.5704 -21.1895 0)
(87.3484 -26.8609 0)
(98.5131 -32.474 0)
(99.3439 -39.3063 0)
(79.5533 -48.6092 0)
(48.7493 -59.5732 0)
(8.94541 -79.4913 0)
(-37.2499 -94.024 0)
(-74.5392 -97.2779 0)
(-104.361 -90.4037 0)
(-129.546 -74.3385 0)
(-151.476 -50.2461 0)
(-170.071 -20.7704 0)
(-184.146 11.9224 0)
(-193.111 46.1522 0)
(-197.961 81.1562 0)
(-200.987 117.645 0)
(-207.766 160.515 0)
(-222.838 213.67 0)
(-234.442 262.237 0)
(-203.126 265.761 0)
(-149.743 242.786 0)
(-92.4435 205.858 0)
(-41.0465 164.273 0)
(1.76759 125.024 0)
(33.3281 89.9577 0)
(57.7891 59.2135 0)
(73.9788 31.7101 0)
(81.6085 12.2793 0)
(82.9575 0.431533 0)
(79.9501 -6.63825 0)
(75.5236 -10.6938 0)
(70.8063 -12.9031 0)
(66.3799 -13.983 0)
(62.5249 -14.3618 0)
(59.344 -14.3213 0)
(56.856 -14.042 0)
(55.0473 -13.6239 0)
(53.8512 -13.1912 0)
(53.1922 -12.8594 0)
(53.0517 -12.6609 0)
(53.4393 -12.5218 0)
(54.3279 -12.4317 0)
(55.6929 -12.6714 0)
(57.2483 -13.5779 0)
(58.9723 -15.1443 0)
(61.4162 -16.6159 0)
(65.5747 -16.6764 0)
(71.7291 -15.172 0)
(77.9743 -14.9587 0)
(80.1758 -21.598 0)
(75.192 -38.6298 0)
(62.7084 -65.1611 0)
(44.7985 -96.4677 0)
(24.4717 -125.877 0)
(5.53587 -147.386 0)
(-10.8067 -159.445 0)
(-23.6492 -162.273 0)
(-33.835 -157.242 0)
(-42.0198 -147.637 0)
(-48.1043 -134.809 0)
(-52.1319 -119.972 0)
(-54.2601 -104.257 0)
(-54.7298 -88.6613 0)
(-53.8461 -73.9792 0)
(-51.9462 -60.7808 0)
(-49.3706 -49.4084 0)
(-46.4281 -40.039 0)
(-43.3699 -32.7338 0)
(-40.3691 -27.5161 0)
(-37.5296 -24.4401 0)
(-34.9635 -23.5547 0)
(-32.8363 -24.6307 0)
(-31.2049 -26.8411 0)
(-30.4067 -29.3002 0)
(-30.5343 -30.9044 0)
(-30.9977 -30.2593 0)
(-31.6002 -27.2293 0)
(-32.2627 -21.7249 0)
(-33.7529 -12.92 0)
(-35.2474 0.767466 0)
(-36.4895 19.8443 0)
(-36.9334 43.4862 0)
(-36.296 69.9516 0)
(-34.8193 97.8267 0)
(-32.5506 125.73 0)
(-29.4102 152.189 0)
(-25.4185 175.663 0)
(-20.6897 194.398 0)
(-15.3604 205.9 0)
(-9.51278 205.778 0)
(-3.50746 198.111 0)
(2.32637 184.348 0)
(7.82723 165.964 0)
(12.7963 144.513 0)
(17.1125 121.534 0)
(20.7483 98.4197 0)
(23.7311 76.3117 0)
(26.1188 56.033 0)
(28.1098 37.9712 0)
(30.173 21.951 0)
(32.1536 7.7908 0)
(33.1884 -3.42898 0)
(34.2453 -11.2182 0)
(35.0156 -16.1271 0)
(35.6307 -18.7471 0)
(36.2744 -19.6484 0)
(37.0509 -19.3308 0)
(38.0383 -18.2173 0)
(39.2529 -16.7086 0)
(40.6179 -15.2688 0)
(41.9556 -14.4797 0)
(43.0298 -14.9838 0)
(43.6048 -17.3348 0)
(43.5088 -21.8379 0)
(42.6764 -28.4469 0)
(41.1474 -36.7685 0)
(39.0271 -46.1747 0)
(36.4255 -55.9728 0)
(33.406 -65.5619 0)
(29.9677 -74.5115 0)
(26.0693 -82.5543 0)
(21.6664 -89.5298 0)
(16.7529 -95.3088 0)
(11.3678 -99.7892 0)
(5.56938 -102.86 0)
(-0.360639 -104.024 0)
(-6.11456 -103.393 0)
(-11.5839 -101.48 0)
(-16.698 -98.1258 0)
(-21.251 -93.4997 0)
(-25.119 -87.8725 0)
(-28.2542 -81.5242 0)
(-30.6393 -74.7526 0)
(-32.2965 -67.8422 0)
(-33.2837 -61.0405 0)
(19.7388 -24.5672 0)
(24.8204 -27.1139 0)
(28.1054 -35.0965 0)
(27.5118 -41.5862 0)
(25.198 -45.8645 0)
(23.3493 -46.854 0)
(21.0675 -47.0136 0)
(15.305 -45.9819 0)
(2.0419 -43.6968 0)
(-25.5515 -43.8546 0)
(-61.5326 -45.2623 0)
(-99.9806 -37.6692 0)
(-133.702 -21.2742 0)
(-161.619 1.67568 0)
(-183.217 29.1589 0)
(-199.432 60.0463 0)
(-212.372 95.3361 0)
(-224.579 137.734 0)
(-236.584 185.06 0)
(-231.878 217.576 0)
(-187.787 213.547 0)
(-130.215 193.378 0)
(-71.1342 169.697 0)
(-19.3888 145.031 0)
(17.6615 117.577 0)
(43.0662 91.3882 0)
(67.2085 64.4018 0)
(80.6334 40.9105 0)
(86.7517 23.6045 0)
(86.9393 11.9572 0)
(83.749 4.04997 0)
(79.1404 -1.38705 0)
(74.2242 -5.11926 0)
(69.5709 -7.6686 0)
(65.4437 -9.38658 0)
(61.9365 -10.5212 0)
(59.0593 -11.2456 0)
(56.7844 -11.6906 0)
(55.078 -11.9634 0)
(53.9021 -12.1552 0)
(53.2022 -12.3557 0)
(52.9375 -12.6391 0)
(53.0873 -13.0175 0)
(53.6277 -13.4711 0)
(54.6356 -14.114 0)
(55.9191 -15.177 0)
(57.2457 -16.964 0)
(58.6856 -19.3628 0)
(60.9674 -21.3817 0)
(65.0995 -21.7574 0)
(70.9472 -20.8332 0)
(75.8925 -22.0888 0)
(75.3728 -31.0941 0)
(67.1022 -49.7552 0)
(51.73 -75.6883 0)
(32.1266 -103.335 0)
(12.1364 -126.685 0)
(-5.7825 -142.436 0)
(-20.1664 -149.108 0)
(-30.8027 -146.778 0)
(-39.0236 -139.541 0)
(-45.3052 -128.97 0)
(-49.6729 -116.269 0)
(-52.2621 -102.49 0)
(-53.2982 -88.5422 0)
(-53.0495 -75.1675 0)
(-51.8158 -62.9098 0)
(-49.9027 -52.1355 0)
(-47.5866 -43.0661 0)
(-45.0951 -35.8288 0)
(-42.5971 -30.5157 0)
(-40.2265 -27.215 0)
(-38.1454 -25.938 0)
(-36.5593 -26.3896 0)
(-35.5522 -27.7964 0)
(-35.338 -29.3811 0)
(-35.9551 -30.2745 0)
(-36.9353 -29.3275 0)
(-38.0993 -26.0773 0)
(-39.5831 -20.2246 0)
(-41.6054 -10.9833 0)
(-43.4598 2.6596 0)
(-45.0062 20.9733 0)
(-45.5425 43.3814 0)
(-44.8992 68.6522 0)
(-43.0808 95.3642 0)
(-40.0544 122.075 0)
(-35.7779 147.338 0)
(-30.3017 169.717 0)
(-23.7954 187.581 0)
(-16.4917 198.48 0)
(-8.72059 198.1 0)
(-1.05211 190.578 0)
(6.19843 177.245 0)
(12.8108 159.532 0)
(18.5873 138.91 0)
(23.4468 116.826 0)
(27.4011 94.5793 0)
(30.5223 73.2287 0)
(32.9441 53.5176 0)
(34.9738 35.7774 0)
(36.941 19.9503 0)
(38.4893 6.24273 0)
(39.1457 -4.43149 0)
(39.7007 -11.8706 0)
(39.9416 -16.5809 0)
(40.025 -19.1467 0)
(40.1365 -20.136 0)
(40.3827 -20.0189 0)
(40.9042 -19.1858 0)
(41.6772 -17.9214 0)
(42.6745 -16.598 0)
(43.7437 -15.698 0)
(44.6422 -15.8115 0)
(45.1062 -17.5182 0)
(44.9126 -21.2154 0)
(43.9402 -26.9838 0)
(42.1935 -34.5432 0)
(39.7776 -43.3249 0)
(36.8388 -52.6286 0)
(33.5003 -61.794 0)
(29.8225 -70.3202 0)
(25.802 -77.8965 0)
(21.4021 -84.3631 0)
(16.5948 -89.6416 0)
(11.3889 -93.6767 0)
(5.8488 -96.3824 0)
(0.153528 -97.5629 0)
(-5.47233 -97.1638 0)
(-10.8786 -95.5428 0)
(-15.9405 -92.6909 0)
(-20.5101 -88.7271 0)
(-24.4732 -83.853 0)
(-27.7704 -78.3039 0)
(-30.3811 -72.3328 0)
(-32.3216 -66.1827 0)
(-33.6405 -60.0651 0)
(-6.50844 -29.6142 0)
(-6.05716 -31.6824 0)
(-6.87205 -35.0453 0)
(-10.0207 -38.3042 0)
(-15.0306 -40.358 0)
(-21.3218 -41.5928 0)
(-28.4317 -42.4505 0)
(-37.5985 -41.6955 0)
(-49.332 -38.6857 0)
(-61.3692 -29.5052 0)
(-74.9489 -17.2627 0)
(-95.0879 -2.74633 0)
(-118.048 16.2162 0)
(-141.23 33.3186 0)
(-161.458 52.6322 0)
(-176.351 74.8421 0)
(-184.57 102.668 0)
(-183.69 133.394 0)
(-159.461 156.767 0)
(-109.818 164.676 0)
(-61.3972 156.116 0)
(-22.1275 140.978 0)
(3.99064 126.81 0)
(25.5333 112.005 0)
(54.3553 91.1038 0)
(70.7787 68.8245 0)
(82.1028 49.2025 0)
(86.4487 34.838 0)
(86.114 24.1705 0)
(83.2373 15.7678 0)
(79.1753 9.15096 0)
(74.8141 3.98799 0)
(70.5993 -0.0146861 0)
(66.7446 -3.09237 0)
(63.3442 -5.43855 0)
(60.4266 -7.2143 0)
(57.9893 -8.55674 0)
(56.0148 -9.5843 0)
(54.4813 -10.3998 0)
(53.3649 -11.0984 0)
(52.6365 -11.7691 0)
(52.2712 -12.4852 0)
(52.2415 -13.2827 0)
(52.5006 -14.1716 0)
(53.136 -15.216 0)
(54.0807 -16.4971 0)
(55.1484 -18.2631 0)
(56.1153 -20.789 0)
(57.1382 -23.8217 0)
(59.0822 -26.2472 0)
(62.9152 -26.9223 0)
(68.138 -26.5626 0)
(71.6479 -28.8664 0)
(68.7929 -38.9116 0)
(58.0147 -57.483 0)
(40.7992 -81.29 0)
(20.7243 -104.759 0)
(1.42766 -123.323 0)
(-15.1355 -134.033 0)
(-27.4264 -136.104 0)
(-36.0561 -131.246 0)
(-42.5609 -122.884 0)
(-47.2413 -112.184 0)
(-50.2282 -100.199 0)
(-51.7457 -87.7908 0)
(-52.051 -75.658 0)
(-51.4116 -64.3228 0)
(-50.0964 -54.1657 0)
(-48.3515 -45.4448 0)
(-46.3866 -38.3358 0)
(-44.3751 -32.9708 0)
(-42.4782 -29.4429 0)
(-40.8852 -27.7303 0)
(-39.8085 -27.5255 0)
(-39.3343 -28.1459 0)
(-39.5838 -28.9054 0)
(-40.6074 -29.1037 0)
(-42.1117 -27.7738 0)
(-43.8398 -24.1981 0)
(-45.9823 -17.9994 0)
(-48.2816 -8.53507 0)
(-50.4515 4.77764 0)
(-52.0727 22.1808 0)
(-52.6723 43.3214 0)
(-51.949 67.1437 0)
(-49.779 92.3206 0)
(-46.0845 117.442 0)
(-40.8369 141.136 0)
(-34.1137 162.089 0)
(-26.1287 178.819 0)
(-17.1935 188.979 0)
(-7.87177 188.484 0)
(1.10218 181.41 0)
(9.45701 168.859 0)
(16.9296 152.136 0)
(23.3379 132.627 0)
(28.6465 111.673 0)
(32.9014 90.4796 0)
(36.2079 70.0225 0)
(38.7537 50.9734 0)
(40.8482 33.6501 0)
(42.6517 18.1978 0)
(43.8753 5.10995 0)
(44.2357 -4.95131 0)
(44.3588 -12.0013 0)
(44.1503 -16.4876 0)
(43.7675 -18.9839 0)
(43.3946 -20.0563 0)
(43.213 -20.1861 0)
(43.2905 -19.6603 0)
(43.6757 -18.7056 0)
(44.3001 -17.5774 0)
(45.0924 -16.6756 0)
(45.8207 -16.5038 0)
(46.2003 -17.6298 0)
(45.9673 -20.5231 0)
(44.9403 -25.3919 0)
(43.0706 -32.0955 0)
(40.442 -40.1651 0)
(37.2194 -48.9298 0)
(33.5772 -57.6924 0)
(29.6387 -65.8798 0)
(25.453 -73.1153 0)
(21.0099 -79.2086 0)
(16.2788 -84.0969 0)
(11.2474 -87.7706 0)
(5.95273 -90.2084 0)
(0.508913 -91.3299 0)
(-4.91877 -91.0654 0)
(-10.1822 -89.7197 0)
(-15.1501 -87.3086 0)
(-19.6934 -83.9233 0)
(-23.709 -79.72 0)
(-27.1333 -74.8912 0)
(-29.9407 -69.6462 0)
(-32.1407 -64.1891 0)
(-33.7733 -58.7004 0)
(-15.5304 -28.3613 0)
(-17.0229 -28.9071 0)
(-19.5474 -30.3387 0)
(-23.6215 -31.8199 0)
(-29.2009 -32.6531 0)
(-35.9374 -32.4126 0)
(-43.373 -30.8449 0)
(-52.2285 -27.8746 0)
(-62.7153 -22.3238 0)
(-73.9572 -14.0431 0)
(-86.1694 -2.7841 0)
(-94.0613 11.7109 0)
(-98.6583 28.5253 0)
(-100.625 46.7745 0)
(-99.3815 66.5588 0)
(-100.068 86.9926 0)
(-100.211 105.563 0)
(-85.8226 116.452 0)
(-63.3141 116.791 0)
(-40.102 115.17 0)
(-4.23908 117.098 0)
(10.0551 114.962 0)
(31.1792 105.743 0)
(56.6749 88.2063 0)
(68.2906 71.5121 0)
(76.0243 58.0621 0)
(79.504 46.3515 0)
(79.52 36.1565 0)
(77.7887 27.356 0)
(75.2276 19.7842 0)
(72.2542 13.4224 0)
(69.1617 8.17184 0)
(66.1359 3.89324 0)
(63.2887 0.443822 0)
(60.6906 -2.31781 0)
(58.3836 -4.52644 0)
(56.3909 -6.30422 0)
(54.722 -7.75987 0)
(53.377 -8.99138 0)
(52.3482 -10.0882 0)
(51.6215 -11.1306 0)
(51.1849 -12.1846 0)
(51.0158 -13.2956 0)
(51.0557 -14.5021 0)
(51.3601 -15.8785 0)
(51.9139 -17.4364 0)
(52.6587 -19.2602 0)
(53.3847 -21.6103 0)
(53.8727 -24.7093 0)
(54.3669 -28.1982 0)
(55.8194 -30.914 0)
(59.1331 -31.8258 0)
(63.5587 -31.8299 0)
(65.763 -34.5568 0)
(61.2173 -44.4622 0)
(48.9299 -61.623 0)
(30.94 -82.4892 0)
(11.0658 -102.102 0)
(-7.45778 -116.59 0)
(-22.4142 -123.498 0)
(-32.7227 -122.434 0)
(-39.7634 -116.375 0)
(-44.8317 -107.699 0)
(-48.2279 -97.4533 0)
(-50.1862 -86.5116 0)
(-50.9761 -75.5552 0)
(-50.8536 -65.1116 0)
(-50.0603 -55.5765 0)
(-48.8201 -47.2351 0)
(-47.3327 -40.2925 0)
(-45.7771 -34.8981 0)
(-44.3298 -31.1397 0)
(-43.1867 -28.9786 0)
(-42.5494 -28.128 0)
(-42.5082 -27.9991 0)
(-43.1297 -27.971 0)
(-44.49 -27.4535 0)
(-46.396 -25.6195 0)
(-48.6554 -21.7318 0)
(-51.1325 -15.2943 0)
(-53.6627 -5.87136 0)
(-55.9368 6.96235 0)
(-57.5704 23.4432 0)
(-58.1131 43.2117 0)
(-57.2216 65.3796 0)
(-54.6941 88.7438 0)
(-50.4272 111.984 0)
(-44.4084 133.833 0)
(-36.746 153.127 0)
(-27.6998 168.559 0)
(-17.672 177.946 0)
(-7.21595 177.551 0)
(2.75222 171.109 0)
(11.831 159.55 0)
(19.8786 144.026 0)
(26.76 125.802 0)
(32.4528 106.115 0)
(37.0197 86.0798 0)
(40.584 66.6034 0)
(43.3507 48.308 0)
(45.5627 31.545 0)
(47.2457 16.6619 0)
(48.2028 4.28315 0)
(48.3562 -5.10943 0)
(48.1327 -11.6803 0)
(47.5469 -15.9023 0)
(46.7714 -18.3284 0)
(46.0693 -19.5283 0)
(45.5198 -19.8964 0)
(45.2101 -19.6809 0)
(45.2117 -19.0542 0)
(45.5207 -18.2012 0)
(46.0316 -17.3927 0)
(46.5958 -17.0498 0)
(46.9191 -17.6843 0)
(46.7029 -19.8052 0)
(45.7085 -23.7406 0)
(43.8191 -29.5051 0)
(41.0717 -36.7681 0)
(37.6287 -44.9319 0)
(33.7046 -53.2911 0)
(29.4889 -61.2056 0)
(25.0967 -68.2155 0)
(20.5626 -74.0708 0)
(15.8688 -78.6928 0)
(10.988 -82.0983 0)
(5.92362 -84.3225 0)
(0.735878 -85.3611 0)
(-4.45943 -85.18 0)
(-9.53673 -84.0587 0)
(-14.3743 -82.0167 0)
(-18.856 -79.126 0)
(-22.8867 -75.5079 0)
(-26.4032 -71.3158 0)
(-29.3759 -66.7193 0)
(-31.8074 -61.8868 0)
(-33.7288 -56.9696 0)
(-18.8205 -25.9447 0)
(-21.3573 -26.0514 0)
(-24.5587 -26.5094 0)
(-28.6956 -26.9109 0)
(-33.8419 -26.7568 0)
(-39.778 -25.6634 0)
(-46.0474 -23.3736 0)
(-52.4051 -19.615 0)
(-58.9805 -13.4398 0)
(-65.4295 -4.74152 0)
(-71.1701 5.38291 0)
(-75.8155 16.29 0)
(-78.7784 28.4271 0)
(-79.3555 42.0839 0)
(-76.5629 57.9343 0)
(-68.902 74.4613 0)
(-55.8493 86.9931 0)
(-39.4237 93.7919 0)
(-22.281 97.5452 0)
(-6.86228 98.1578 0)
(8.87202 97.7216 0)
(26.0037 94.2288 0)
(41.1314 84.6315 0)
(52.4622 73.9256 0)
(59.7673 64.3229 0)
(64.3709 54.9488 0)
(66.9707 45.5199 0)
(67.9493 36.6973 0)
(67.8004 28.8067 0)
(66.8872 21.8709 0)
(65.4318 15.8861 0)
(63.6405 10.8066 0)
(61.6878 6.54509 0)
(59.7054 2.99644 0)
(57.791 0.0504753 0)
(56.0134 -2.40036 0)
(54.419 -4.45614 0)
(53.0359 -6.20835 0)
(51.8786 -7.74164 0)
(50.9501 -9.13597 0)
(50.2447 -10.4647 0)
(49.7583 -11.7872 0)
(49.4781 -13.1426 0)
(49.3519 -14.5718 0)
(49.4036 -16.1652 0)
(49.6051 -17.9476 0)
(49.9608 -19.9181 0)
(50.3989 -22.1651 0)
(50.6839 -24.9385 0)
(50.6123 -28.4195 0)
(50.4846 -32.2052 0)
(51.2905 -35.1427 0)
(53.8985 -36.2502 0)
(57.4949 -36.3578 0)
(58.7986 -38.7723 0)
(53.4629 -47.453 0)
(40.6891 -62.3677 0)
(22.722 -80.1421 0)
(3.3649 -96.3896 0)
(-14.2306 -107.623 0)
(-27.7158 -111.971 0)
(-36.4511 -109.14 0)
(-42.2655 -102.68 0)
(-46.2087 -94.2108 0)
(-48.6517 -84.7094 0)
(-49.8937 -74.9172 0)
(-50.2222 -65.3628 0)
(-49.8808 -56.4586 0)
(-49.0815 -48.5132 0)
(-48.0173 -41.7539 0)
(-46.8702 -36.3403 0)
(-45.8226 -32.3556 0)
(-45.0658 -29.7576 0)
(-44.7865 -28.2932 0)
(-45.0877 -27.4568 0)
(-45.9896 -26.6717 0)
(-47.6018 -25.4398 0)
(-49.7726 -23.0652 0)
(-52.3059 -18.8722 0)
(-55.0013 -12.3559 0)
(-57.6342 -3.11345 0)
(-59.899 9.17161 0)
(-61.4382 24.6286 0)
(-61.8203 42.9223 0)
(-60.6872 63.2932 0)
(-57.8069 84.6732 0)
(-53.0728 105.866 0)
(-46.502 125.735 0)
(-38.243 143.273 0)
(-28.5918 157.356 0)
(-17.9776 166.006 0)
(-6.95299 165.879 0)
(3.52605 160.134 0)
(13.0459 149.652 0)
(21.4768 135.416 0)
(28.7215 118.54 0)
(34.774 100.164 0)
(39.692 81.3277 0)
(43.5966 62.8779 0)
(46.6765 45.4197 0)
(49.0785 29.379 0)
(50.7249 15.2684 0)
(51.4943 3.73002 0)
(51.4886 -4.95742 0)
(50.9287 -11.0327 0)
(50.0463 -14.975 0)
(49.0501 -17.346 0)
(48.0882 -18.6462 0)
(47.2624 -19.2249 0)
(46.651 -19.3102 0)
(46.3235 -19.0356 0)
(46.3204 -18.5067 0)
(46.5773 -17.8864 0)
(46.9699 -17.4818 0)
(47.2532 -17.7418 0)
(47.1008 -19.165 0)
(46.2268 -22.1596 0)
(44.4411 -26.8999 0)
(41.708 -33.2288 0)
(38.1531 -40.6733 0)
(34.006 -48.5673 0)
(29.5133 -56.2279 0)
(24.8662 -63.1061 0)
(20.1671 -68.8632 0)
(15.4403 -73.3633 0)
(10.6555 -76.62 0)
(5.78473 -78.7058 0)
(0.842784 -79.6749 0)
(-4.10444 -79.5453 0)
(-8.96925 -78.5956 0)
(-13.6485 -76.8521 0)
(-18.0389 -74.3732 0)
(-22.053 -71.2525 0)
(-25.629 -67.6106 0)
(-28.7338 -63.5831 0)
(-31.3635 -59.3063 0)
(-33.5414 -54.9035 0)
(-20.0277 -23.4019 0)
(-22.6518 -23.0364 0)
(-25.5088 -22.6588 0)
(-28.9218 -21.9981 0)
(-33.0297 -20.7702 0)
(-37.7447 -18.8525 0)
(-42.894 -16.1936 0)
(-48.3154 -12.4913 0)
(-53.6304 -7.02743 0)
(-58.1323 0.37791 0)
(-61.3128 9.18212 0)
(-63.0144 19.0212 0)
(-63.1002 29.9033 0)
(-61.2391 41.5854 0)
(-56.7701 53.4928 0)
(-49.081 64.2659 0)
(-38.5479 72.5076 0)
(-26.2939 78.0043 0)
(-13.628 80.7862 0)
(-1.1784 81.3216 0)
(11.0971 80.5801 0)
(23.3742 78.3249 0)
(34.5163 73.2402 0)
(43.1156 66.0368 0)
(49.3763 58.3589 0)
(54.0179 50.5343 0)
(57.2845 42.7558 0)
(59.2346 35.3666 0)
(60.1047 28.5947 0)
(60.1645 22.4999 0)
(59.625 17.1003 0)
(58.6712 12.3854 0)
(57.4623 8.31154 0)
(56.1243 4.81469 0)
(54.7539 1.82073 0)
(53.4223 -0.748028 0)
(52.1801 -2.96829 0)
(51.061 -4.91376 0)
(50.0863 -6.65515 0)
(49.2658 -8.26088 0)
(48.5989 -9.7953 0)
(48.0842 -11.3122 0)
(47.7157 -12.848 0)
(47.4536 -14.4352 0)
(47.3129 -16.1561 0)
(47.246 -18.0592 0)
(47.2435 -20.1526 0)
(47.3096 -22.4292 0)
(47.3577 -24.9681 0)
(47.1483 -27.9964 0)
(46.487 -31.6705 0)
(45.6819 -35.5992 0)
(45.7149 -38.6903 0)
(47.4696 -39.9586 0)
(50.2667 -39.9792 0)
(51.1371 -41.5315 0)
(45.9977 -48.1436 0)
(33.7295 -60.2449 0)
(16.467 -75.0246 0)
(-2.18071 -88.5634 0)
(-18.9124 -97.4616 0)
(-31.293 -100.136 0)
(-38.9773 -96.6086 0)
(-43.869 -90.3013 0)
(-46.9799 -82.4214 0)
(-48.7719 -73.7908 0)
(-49.5601 -65.1157 0)
(-49.6263 -56.8525 0)
(-49.2079 -49.3282 0)
(-48.5086 -42.7776 0)
(-47.714 -37.3638 0)
(-47.0047 -33.1695 0)
(-46.5625 -30.1587 0)
(-46.5596 -28.1175 0)
(-47.1155 -26.6204 0)
(-48.2001 -25.1237 0)
(-49.9477 -23.2106 0)
(-52.2301 -20.3152 0)
(-54.8584 -15.8442 0)
(-57.6101 -9.30904 0)
(-60.2133 -0.363715 0)
(-62.3802 11.2668 0)
(-63.7453 25.617 0)
(-63.9039 42.3721 0)
(-62.5052 60.8699 0)
(-59.3122 80.1836 0)
(-54.2336 99.2739 0)
(-47.3301 117.159 0)
(-38.8071 132.984 0)
(-29.0114 145.784 0)
(-18.3468 153.726 0)
(-7.27993 153.806 0)
(3.33744 148.787 0)
(13.0815 139.423 0)
(21.74 126.456 0)
(29.2714 110.893 0)
(35.6912 93.8019 0)
(41.0185 76.1519 0)
(45.3467 58.7517 0)
(48.8126 42.2149 0)
(51.4455 27.0664 0)
(53.1118 13.9274 0)
(53.7665 3.36 0)
(53.5875 -4.52908 0)
(52.835 -10.0805 0)
(51.7592 -13.7883 0)
(50.5735 -16.1335 0)
(49.4291 -17.5293 0)
(48.4199 -18.292 0)
(47.6085 -18.6335 0)
(47.0458 -18.6731 0)
(46.7736 -18.4776 0)
(46.7872 -18.1311 0)
(46.9812 -17.8029 0)
(47.2057 -17.823 0)
(47.1421 -18.6502 0)
(46.4502 -20.7608 0)
(44.8772 -24.4402 0)
(42.3036 -29.7202 0)
(38.787 -36.2994 0)
(34.5319 -43.6041 0)
(29.8147 -50.9541 0)
(24.8962 -57.7316 0)
(19.9599 -63.4963 0)
(15.0956 -68.0218 0)
(10.31 -71.2688 0)
(5.56387 -73.3158 0)
(0.831133 -74.2623 0)
(-3.87308 -74.1721 0)
(-8.51038 -73.3497 0)
(-13.0069 -71.8392 0)
(-17.2743 -69.6955 0)
(-21.2358 -66.9926 0)
(-24.834 -63.8225 0)
(-28.0351 -60.2884 0)
(-30.8302 -56.4951 0)
(-33.2332 -52.5403 0)
(-19.0769 -20.2032 0)
(-21.8364 -19.7112 0)
(-24.8266 -19.0509 0)
(-28.1073 -18.0134 0)
(-31.6673 -16.4419 0)
(-35.4274 -14.2499 0)
(-39.3184 -11.3363 0)
(-43.2587 -7.48519 0)
(-47.0011 -2.45929 0)
(-50.0955 3.78152 0)
(-52.1315 11.0244 0)
(-52.9005 19.0111 0)
(-52.2334 27.517 0)
(-49.8423 36.3562 0)
(-45.418 45.2623 0)
(-38.8307 53.655 0)
(-30.3744 60.6636 0)
(-20.7569 65.6881 0)
(-10.6705 68.7312 0)
(-0.591145 69.9758 0)
(9.25008 69.6 0)
(18.795 67.4977 0)
(27.6716 63.4682 0)
(35.2429 58.0706 0)
(41.3104 52.1117 0)
(46.0297 45.9068 0)
(49.5452 39.6236 0)
(51.9465 33.4945 0)
(53.4019 27.7145 0)
(54.1099 22.3816 0)
(54.2394 17.5433 0)
(53.9376 13.2168 0)
(53.3342 9.38896 0)
(52.5383 6.02409 0)
(51.6375 3.07288 0)
(50.6995 0.479837 0)
(49.7747 -1.81288 0)
(48.8993 -3.86386 0)
(48.0981 -5.73137 0)
(47.3859 -7.47264 0)
(46.767 -9.14184 0)
(46.2418 -10.7859 0)
(45.8078 -12.4404 0)
(45.4336 -14.1335 0)
(45.1354 -15.9278 0)
(44.8687 -17.8692 0)
(44.5985 -19.9912 0)
(44.3182 -22.2955 0)
(44.0266 -24.767 0)
(43.6389 -27.4642 0)
(42.9215 -30.5837 0)
(41.6752 -34.2746 0)
(40.173 -38.2041 0)
(39.3559 -41.3744 0)
(40.1679 -42.7742 0)
(42.2165 -42.634 0)
(42.9973 -43.089 0)
(38.8363 -47.1869 0)
(28.0523 -56.072 0)
(12.217 -67.844 0)
(-5.46765 -79.2155 0)
(-21.3808 -86.6631 0)
(-33.2752 -88.6879 0)
(-40.5316 -85.1035 0)
(-44.8422 -79.131 0)
(-47.3654 -72.0702 0)
(-48.7251 -64.4529 0)
(-49.2689 -56.8779 0)
(-49.2396 -49.7702 0)
(-48.8711 -43.4252 0)
(-48.3726 -38.0243 0)
(-47.9335 -33.6474 0)
(-47.7315 -30.2639 0)
(-47.9271 -27.6971 0)
(-48.6339 -25.5909 0)
(-49.8333 -23.4618 0)
(-51.5893 -20.9212 0)
(-53.8488 -17.5424 0)
(-56.4199 -12.8221 0)
(-59.0746 -6.32558 0)
(-61.5421 2.25848 0)
(-63.5239 13.1577 0)
(-64.6579 26.3493 0)
(-64.568 41.5337 0)
(-62.9259 58.137 0)
(-59.5136 75.382 0)
(-54.2667 92.4108 0)
(-47.2705 108.408 0)
(-38.7649 122.67 0)
(-29.2033 134.393 0)
(-19.0124 141.701 0)
(-8.35816 141.703 0)
(2.22998 137.267 0)
(12.0726 129.075 0)
(20.8177 117.272 0)
(28.5985 102.87 0)
(35.4336 86.975 0)
(41.246 70.4736 0)
(46.0724 54.1457 0)
(49.9555 38.6422 0)
(52.8031 24.5848 0)
(54.4813 12.6166 0)
(55.0446 3.13258 0)
(54.7388 -3.93678 0)
(53.8584 -8.97433 0)
(52.6682 -12.4369 0)
(51.3778 -14.7419 0)
(50.1324 -16.2363 0)
(49.0195 -17.185 0)
(48.0896 -17.7697 0)
(47.3769 -18.0939 0)
(46.9118 -18.2015 0)
(46.7101 -18.1264 0)
(46.7175 -17.9586 0)
(46.8221 -17.9083 0)
(46.8063 -18.3178 0)
(46.333 -19.6262 0)
(45.0599 -22.2596 0)
(42.7863 -26.4037 0)
(39.4769 -31.9621 0)
(35.2771 -38.513 0)
(30.4492 -45.426 0)
(25.2995 -52.0542 0)
(20.0928 -57.8695 0)
(14.9948 -62.539 0)
(10.084 -65.9264 0)
(5.34724 -68.0698 0)
(0.741279 -69.0893 0)
(-3.75582 -69.0629 0)
(-8.164 -68.3467 0)
(-12.4622 -67.0191 0)
(-16.5841 -65.1391 0)
(-20.4659 -62.7689 0)
(-24.0563 -59.981 0)
(-27.3203 -56.8564 0)
(-30.2428 -53.4783 0)
(-32.8269 -49.9246 0)
(-18.2125 -17.4763 0)
(-20.7334 -16.6859 0)
(-23.4097 -15.6924 0)
(-26.2613 -14.3876 0)
(-29.2605 -12.6503 0)
(-32.3294 -10.3766 0)
(-35.3859 -7.47404 0)
(-38.3272 -3.82988 0)
(-40.9649 0.670035 0)
(-43.022 6.04477 0)
(-44.2215 12.169 0)
(-44.3763 18.8738 0)
(-43.3265 25.9793 0)
(-40.9217 33.2568 0)
(-37.0503 40.354 0)
(-31.684 46.8103 0)
(-24.99 52.1442 0)
(-17.3374 56.0591 0)
(-9.14842 58.4851 0)
(-0.764823 59.4797 0)
(7.57512 59.158 0)
(15.672 57.5783 0)
(23.2163 54.7402 0)
(29.8233 50.8354 0)
(35.3295 46.2573 0)
(39.7896 41.3123 0)
(43.2848 36.2003 0)
(45.8812 31.1117 0)
(47.6826 26.2072 0)
(48.8216 21.5883 0)
(49.4237 17.3128 0)
(49.6022 13.4104 0)
(49.4614 9.88489 0)
(49.0936 6.71858 0)
(48.5748 3.88198 0)
(47.9652 1.33915 0)
(47.3113 -0.951526 0)
(46.6488 -3.03543 0)
(46.0037 -4.95969 0)
(45.3929 -6.77146 0)
(44.8241 -8.51498 0)
(44.2998 -10.2286 0)
(43.8196 -11.945 0)
(43.359 -13.693 0)
(42.9282 -15.5201 0)
(42.4988 -17.4581 0)
(42.0347 -19.5385 0)
(41.5046 -21.7895 0)
(40.8963 -24.2091 0)
(40.2085 -26.768 0)
(39.3716 -29.492 0)
(38.1732 -32.5463 0)
(36.3973 -36.0988 0)
(34.234 -39.9164 0)
(32.5339 -43.1027 0)
(32.3398 -44.6012 0)
(33.6646 -44.2912 0)
(34.4854 -43.6189 0)
(31.7761 -45.3669 0)
(23.3237 -51.0867 0)
(9.67454 -59.6945 0)
(-6.45537 -68.7116 0)
(-21.5601 -75.0986 0)
(-33.3661 -77.4459 0)