/*--------------------------------*- C++ -*----------------------------------*\
| =========                 |                                                 |
| \\      /  F ield         | OpenFOAM: The Open Source CFD Toolbox           |
|  \\    /   O peration     | Version:  2206                                  |
|   \\  /    A nd           | Website:  www.openfoam.com                      |
|    \\/     M anipulation  |                                                 |
\*---------------------------------------------------------------------------*/
FoamFile
{
    version     2.0;
    format      ascii;
    arch        "LSB;label=32;scalar=64";
    class       volVectorField;
    location    "18.6";
    object      U;
}
// * * * * * * * * * * * * * * * * * * * * * * * * * * * * * * * * * * * * * //

dimensions      [0 1 -1 0 0 0 0];

internalField   nonuniform List<vector> 
4866
(
(1.31808 0.410655 0)
(1.33593 0.447624 0)
(1.35374 0.480064 0)
(1.37117 0.508286 0)
(1.38798 0.532669 0)
(1.40396 0.553615 0)
(1.41901 0.571506 0)
(1.43305 0.586668 0)
(1.44606 0.59935 0)
(1.45806 0.609711 0)
(1.46911 0.617794 0)
(1.47935 0.62349 0)
(1.48897 0.626467 0)
(1.49821 0.626 0)
(1.50696 0.621338 0)
(1.51537 0.611942 0)
(1.52357 0.597281 0)
(1.53164 0.576812 0)
(1.53966 0.550028 0)
(1.54768 0.51652 0)
(1.55575 0.476026 0)
(1.56383 0.428484 0)
(1.57191 0.374072 0)
(1.57991 0.313235 0)
(1.58775 0.246706 0)
(1.59535 0.175522 0)
(1.6026 0.101071 0)
(1.60934 0.0252661 0)
(1.61532 -0.0495956 0)
(1.62038 -0.121986 0)
(1.62435 -0.190539 0)
(1.62709 -0.254127 0)
(1.62849 -0.311912 0)
(1.62848 -0.363349 0)
(1.62704 -0.408188 0)
(1.62423 -0.446426 0)
(1.62009 -0.478265 0)
(1.61474 -0.504068 0)
(1.60825 -0.524303 0)
(1.60074 -0.539495 0)
(1.59226 -0.550155 0)
(1.58275 -0.556706 0)
(1.57217 -0.559507 0)
(1.56071 -0.55911 0)
(1.54832 -0.556148 0)
(1.53508 -0.551093 0)
(1.52106 -0.544278 0)
(1.50633 -0.535873 0)
(1.49101 -0.525888 0)
(1.47523 -0.514194 0)
(1.45917 -0.50055 0)
(1.44301 -0.484644 0)
(1.42694 -0.46613 0)
(1.41118 -0.444664 0)
(1.39595 -0.419937 0)
(1.38149 -0.391703 0)
(1.36802 -0.3598 0)
(1.35578 -0.324174 0)
(1.34499 -0.284893 0)
(1.33585 -0.242157 0)
(1.32856 -0.196289 0)
(1.32327 -0.147711 0)
(1.32008 -0.096982 0)
(1.31908 -0.0448251 0)
(1.32026 0.00800667 0)
(1.32349 0.0606425 0)
(1.32858 0.112326 0)
(1.33539 0.162405 0)
(1.3437 0.210306 0)
(1.35328 0.255529 0)
(1.36386 0.297658 0)
(1.3752 0.33639 0)
(1.38704 0.371537 0)
(1.39917 0.402999 0)
(1.41137 0.430759 0)
(1.42347 0.454884 0)
(1.43532 0.475503 0)
(1.44678 0.492777 0)
(1.45776 0.50689 0)
(1.46821 0.518015 0)
(1.47812 0.526293 0)
(1.48752 0.531799 0)
(1.49654 0.534451 0)
(1.50532 0.533925 0)
(1.51377 0.529956 0)
(1.52205 0.522377 0)
(1.53022 0.51099 0)
(1.53838 0.495564 0)
(1.5466 0.475854 0)
(1.55493 0.451638 0)
(1.56341 0.422754 0)
(1.57203 0.389123 0)
(1.58078 0.350783 0)
(1.5896 0.307898 0)
(1.59843 0.260777 0)
(1.60719 0.20987 0)
(1.61577 0.155778 0)
(1.62409 0.0992669 0)
(1.63202 0.0413202 0)
(1.63936 -0.0166991 0)
(1.64597 -0.0736937 0)
(1.65171 -0.128774 0)
(1.65647 -0.181136 0)
(1.66015 -0.230097 0)
(1.66267 -0.275114 0)
(1.66397 -0.315798 0)
(1.66404 -0.35191 0)
(1.66288 -0.383349 0)
(1.66053 -0.410132 0)
(1.65705 -0.432376 0)
(1.6525 -0.450278 0)
(1.64696 -0.464093 0)
(1.64049 -0.474084 0)
(1.63303 -0.480471 0)
(1.62448 -0.483368 0)
(1.61499 -0.483054 0)
(1.60457 -0.480013 0)
(1.5933 -0.474646 0)
(1.58128 -0.467296 0)
(1.56861 -0.458223 0)
(1.5554 -0.447576 0)
(1.54182 -0.435396 0)
(1.52805 -0.421611 0)
(1.51426 -0.406058 0)
(1.50066 -0.388509 0)
(1.48744 -0.368706 0)
(1.47479 -0.346399 0)
(1.4629 -0.321381 0)
(1.45193 -0.293514 0)
(1.44204 -0.262746 0)
(1.43338 -0.229125 0)
(1.42608 -0.192795 0)
(1.42025 -0.154015 0)
(1.41597 -0.113147 0)
(1.41329 -0.0706337 0)
(1.41223 -0.026997 0)
(1.41276 0.017149 0)
(1.41482 0.0610977 0)
(1.41831 0.104308 0)
(1.31755 0.390605 0)
(1.33578 0.427299 0)
(1.35416 0.459854 0)
(1.37238 0.488518 0)
(1.3902 0.513596 0)
(1.40741 0.535414 0)
(1.4239 0.554285 0)
(1.43959 0.57048 0)
(1.45447 0.584195 0)
(1.46856 0.595532 0)
(1.48193 0.604479 0)
(1.49468 0.610876 0)
(1.50698 0.614361 0)
(1.51904 0.614287 0)
(1.53078 0.609967 0)
(1.54232 0.600834 0)
(1.55372 0.586341 0)
(1.56503 0.56596 0)
(1.57629 0.539217 0)
(1.58749 0.505738 0)
(1.59859 0.465299 0)
(1.60954 0.417879 0)
(1.62021 0.363688 0)
(1.63047 0.303196 0)
(1.64019 0.23714 0)
(1.6492 0.166557 0)
(1.65738 0.0928609 0)
(1.6645 0.0180872 0)
(1.67032 -0.0555554 0)
(1.67469 -0.126547 0)
(1.6775 -0.193549 0)
(1.67866 -0.255479 0)
(1.67813 -0.311541 0)
(1.67593 -0.361248 0)
(1.67209 -0.404398 0)
(1.66671 -0.441038 0)
(1.65991 -0.471409 0)
(1.65184 -0.495885 0)
(1.64266 -0.514918 0)
(1.63249 -0.529 0)
(1.62137 -0.53859 0)
(1.60929 -0.544059 0)
(1.59637 -0.54582 0)
(1.58267 -0.544478 0)
(1.56822 -0.54062 0)
(1.55305 -0.53472 0)
(1.53721 -0.52713 0)
(1.52077 -0.518053 0)
(1.50383 -0.50753 0)
(1.48652 -0.495465 0)
(1.469 -0.48164 0)
(1.45145 -0.465765 0)
(1.43405 -0.447508 0)
(1.41702 -0.426543 0)
(1.40058 -0.402576 0)
(1.38494 -0.375368 0)
(1.37037 -0.344761 0)
(1.35709 -0.310688 0)
(1.34533 -0.273193 0)
(1.3353 -0.232447 0)
(1.32718 -0.188742 0)
(1.32108 -0.142484 0)
(1.31712 -0.0941975 0)
(1.31555 -0.0445308 0)
(1.31592 0.00587447 0)
(1.31858 0.0562644 0)
(1.3232 0.105878 0)
(1.32963 0.154083 0)
(1.33771 0.200348 0)
(1.3472 0.244206 0)
(1.35786 0.285255 0)
(1.36943 0.323184 0)
(1.38168 0.357785 0)
(1.39438 0.388942 0)
(1.40733 0.41663 0)
(1.42033 0.440881 0)
(1.43322 0.461782 0)
(1.44587 0.479458 0)
(1.4582 0.494051 0)
(1.47015 0.505689 0)
(1.48172 0.514461 0)
(1.49293 0.520389 0)
(1.5039 0.523356 0)
(1.51472 0.523074 0)
(1.52535 0.519298 0)
(1.5359 0.511839 0)
(1.54642 0.50049 0)
(1.55696 0.485023 0)
(1.56757 0.465216 0)
(1.57828 0.440875 0)
(1.58908 0.411866 0)
(1.59994 0.378143 0)
(1.6108 0.339771 0)
(1.62157 0.296941 0)
(1.63215 0.249981 0)
(1.64242 0.199353 0)
(1.65227 0.145661 0)
(1.66157 0.0896797 0)
(1.67017 0.0324578 0)
(1.67784 -0.0246311 0)
(1.68445 -0.0805549 0)
(1.68989 -0.134433 0)
(1.69406 -0.185481 0)
(1.69688 -0.233042 0)
(1.69831 -0.276606 0)
(1.69834 -0.315813 0)
(1.69697 -0.350459 0)
(1.69425 -0.380473 0)
(1.69024 -0.405902 0)
(1.68502 -0.426879 0)
(1.6787 -0.4436 0)
(1.67136 -0.456299 0)
(1.66304 -0.4652 0)
(1.65365 -0.470445 0)
(1.64325 -0.472188 0)
(1.63195 -0.470838 0)
(1.61976 -0.466846 0)
(1.60679 -0.460614 0)
(1.59311 -0.452502 0)
(1.57883 -0.442792 0)
(1.56406 -0.431662 0)
(1.54896 -0.419178 0)
(1.53369 -0.405292 0)
(1.51844 -0.389856 0)
(1.50342 -0.372649 0)
(1.48882 -0.353409 0)
(1.47485 -0.331879 0)
(1.46169 -0.307838 0)
(1.44952 -0.281134 0)
(1.4385 -0.251701 0)
(1.42878 -0.219567 0)
(1.42049 -0.184868 0)
(1.41374 -0.147828 0)
(1.40862 -0.108774 0)
(1.40519 -0.0681179 0)
(1.40347 -0.0263438 0)
(1.40345 0.0159872 0)
(1.40506 0.0582142 0)
(1.40821 0.0998142 0)
(1.32035 0.370355 0)
(1.33876 0.406551 0)
(1.35754 0.438988 0)
(1.37637 0.46785 0)
(1.39502 0.493371 0)
(1.4133 0.515808 0)
(1.43109 0.535407 0)
(1.44832 0.55238 0)
(1.46496 0.566867 0)
(1.48105 0.578924 0)
(1.49664 0.58849 0)
(1.51182 0.59537 0)
(1.52673 0.599184 0)
(1.54155 0.599335 0)
(1.55621 0.595196 0)
(1.57079 0.586202 0)
(1.58531 0.571806 0)
(1.59978 0.5515 0)
(1.61417 0.524846 0)
(1.62842 0.491514 0)
(1.64245 0.451322 0)
(1.65611 0.404284 0)
(1.66925 0.350643 0)
(1.68166 0.290894 0)
(1.69311 0.225789 0)
(1.7034 0.156355 0)
(1.71232 0.0840114 0)
(1.71963 0.0108852 0)
(1.72511 -0.0609426 0)
(1.72864 -0.129982 0)
(1.73016 -0.194946 0)
(1.72965 -0.254804 0)
(1.72712 -0.30882 0)
(1.72267 -0.356553 0)
(1.71641 -0.397844 0)
(1.70852 -0.43277 0)
(1.69916 -0.461598 0)
(1.6885 -0.484717 0)
(1.67672 -0.50257 0)
(1.66398 -0.515592 0)
(1.65037 -0.524184 0)
(1.63591 -0.528716 0)
(1.62078 -0.529632 0)
(1.60502 -0.527517 0)
(1.58864 -0.52292 0)
(1.57169 -0.516317 0)
(1.55418 -0.508079 0)
(1.53617 -0.498438 0)
(1.51775 -0.487478 0)
(1.49905 -0.475134 0)
(1.48021 -0.461217 0)
(1.46142 -0.445454 0)
(1.44286 -0.427529 0)
(1.42474 -0.407129 0)
(1.40726 -0.383973 0)
(1.39065 -0.357836 0)
(1.37511 -0.328567 0)
(1.3609 -0.2961 0)
(1.34825 -0.260466 0)
(1.33737 -0.221801 0)
(1.32844 -0.180357 0)
(1.32162 -0.136498 0)
(1.317 -0.0906898 0)
(1.31482 -0.0434553 0)
(1.31455 0.00455041 0)
(1.31648 0.0525486 0)
(1.32076 0.0999121 0)
(1.32685 0.146101 0)
(1.33469 0.190592 0)
(1.34406 0.232927 0)
(1.35474 0.272718 0)
(1.36648 0.309658 0)
(1.37905 0.343532 0)
(1.39222 0.374218 0)
(1.40579 0.401656 0)
(1.41957 0.425851 0)
(1.4334 0.446856 0)
(1.44715 0.464757 0)
(1.46075 0.479651 0)
(1.47413 0.491623 0)
(1.48729 0.500717 0)
(1.50025 0.506906 0)
(1.5131 0.510047 0)
(1.52592 0.509878 0)
(1.53866 0.506176 0)
(1.55141 0.498744 0)
(1.5642 0.487367 0)
(1.57706 0.471832 0)
(1.58999 0.451937 0)
(1.60299 0.427516 0)
(1.61601 0.398466 0)
(1.629 0.364776 0)
(1.64185 0.326539 0)
(1.65445 0.283971 0)
(1.66665 0.237415 0)
(1.67831 0.187339 0)
(1.68929 0.134355 0)
(1.69943 0.0792476 0)
(1.70855 0.0231122 0)
(1.71642 -0.0326801 0)
(1.72291 -0.0871796 0)
(1.72794 -0.139523 0)
(1.73142 -0.188956 0)
(1.73331 -0.234853 0)
(1.7336 -0.276737 0)
(1.7323 -0.314284 0)
(1.72947 -0.347318 0)
(1.72518 -0.375795 0)
(1.71952 -0.399785 0)
(1.71261 -0.419433 0)
(1.70455 -0.434935 0)
(1.69544 -0.446488 0)
(1.68529 -0.454251 0)
(1.67405 -0.458341 0)
(1.66189 -0.459006 0)
(1.64885 -0.456684 0)
(1.63499 -0.451798 0)
(1.62041 -0.444759 0)
(1.60517 -0.43594 0)
(1.58938 -0.425644 0)
(1.57315 -0.414077 0)
(1.55663 -0.401334 0)
(1.54 -0.38739 0)
(1.52342 -0.372114 0)
(1.50711 -0.355294 0)
(1.49127 -0.336669 0)
(1.47611 -0.315975 0)
(1.46181 -0.292979 0)
(1.44856 -0.267512 0)
(1.43653 -0.239488 0)
(1.42585 -0.208922 0)
(1.41668 -0.175925 0)
(1.40911 -0.140704 0)
(1.40324 -0.103553 0)
(1.39913 -0.0648472 0)
(1.3968 -0.0250356 0)
(1.39626 0.0153712 0)
(1.39745 0.055762 0)
(1.40027 0.095632 0)
(1.32596 0.350087 0)
(1.34441 0.385572 0)
(1.36343 0.417655 0)
(1.38272 0.446462 0)
(1.40206 0.472163 0)
(1.42127 0.494951 0)
(1.44023 0.51501 0)
(1.45886 0.532491 0)
(1.47715 0.547487 0)
(1.49512 0.560004 0)
(1.51281 0.569947 0)
(1.5303 0.577089 0)
(1.54772 0.581039 0)
(1.56519 0.581246 0)
(1.58263 0.577141 0)
(1.60011 0.568177 0)
(1.6176 0.553821 0)
(1.63505 0.533596 0)
(1.65238 0.507097 0)
(1.66952 0.474029 0)
(1.68631 0.434254 0)
(1.70254 0.38784 0)
(1.71796 0.335083 0)
(1.73227 0.276507 0)
(1.74522 0.212859 0)
(1.75654 0.14514 0)
(1.766 0.0747413 0)
(1.77333 0.00385671 0)
(1.77833 -0.0655949 0)
(1.78093 -0.13217 0)
(1.78112 -0.19464 0)
(1.77891 -0.252042 0)
(1.77441 -0.303703 0)
(1.76776 -0.34924 0)
(1.75917 -0.388533 0)
(1.74885 -0.421683 0)
(1.73703 -0.448954 0)
(1.72393 -0.470722 0)
(1.70974 -0.487411 0)
(1.69462 -0.499431 0)
(1.6787 -0.507145 0)
(1.66208 -0.510905 0)
(1.64494 -0.511154 0)
(1.62731 -0.508427 0)
(1.6092 -0.503243 0)
(1.59063 -0.496071 0)
(1.57161 -0.487301 0)
(1.55219 -0.477201 0)
(1.53244 -0.465896 0)
(1.51248 -0.453362 0)
(1.49246 -0.439442 0)
(1.47257 -0.423883 0)
(1.45299 -0.406381 0)
(1.43393 -0.386626 0)
(1.41559 -0.364346 0)
(1.39817 -0.339322 0)
(1.38188 -0.311414 0)
(1.36693 -0.280562 0)
(1.35354 -0.246795 0)
(1.34193 -0.21023 0)
(1.33227 -0.171083 0)
(1.32474 -0.129679 0)
(1.31942 -0.0864216 0)
(1.31642 -0.0417367 0)
(1.31578 0.00377114 0)
(1.3174 0.0493166 0)
(1.32114 0.0943644 0)
(1.32687 0.138441 0)
(1.33445 0.181039 0)
(1.34366 0.221715 0)
(1.3543 0.260102 0)
(1.36613 0.295903 0)
(1.37892 0.328899 0)
(1.39247 0.358942 0)
(1.40656 0.385954 0)
(1.42102 0.409912 0)
(1.4357 0.430837 0)
(1.45047 0.448776 0)
(1.46525 0.463785 0)
(1.47998 0.475906 0)
(1.49466 0.485143 0)
(1.50928 0.49143 0)
(1.52394 0.494599 0)
(1.53868 0.494414 0)
(1.55345 0.490676 0)
(1.56831 0.483183 0)
(1.58327 0.471724 0)
(1.59833 0.456101 0)
(1.61345 0.436133 0)
(1.62861 0.411687 0)
(1.64372 0.382693 0)
(1.65869 0.349171 0)
(1.67338 0.311244 0)
(1.68765 0.269148 0)
(1.70132 0.223239 0)
(1.71423 0.173992 0)
(1.72618 0.122018 0)
(1.73701 0.0681173 0)
(1.7465 0.0134556 0)
(1.75443 -0.0407047 0)
(1.76069 -0.0934519 0)
(1.76522 -0.143954 0)
(1.76795 -0.191489 0)
(1.76886 -0.235471 0)
(1.76797 -0.275463 0)
(1.76534 -0.311177 0)
(1.76105 -0.34247 0)
(1.75522 -0.36932 0)
(1.74796 -0.391808 0)
(1.7394 -0.410081 0)
(1.72967 -0.424318 0)
(1.71884 -0.434679 0)
(1.70692 -0.441274 0)
(1.69396 -0.444238 0)
(1.68013 -0.443897 0)
(1.66545 -0.440664 0)
(1.65002 -0.43495 0)
(1.63391 -0.427168 0)
(1.61721 -0.417704 0)
(1.60001 -0.406883 0)
(1.58242 -0.394938 0)
(1.56461 -0.381993 0)
(1.54672 -0.368045 0)
(1.52895 -0.352981 0)
(1.5115 -0.336599 0)
(1.49456 -0.31864 0)
(1.47835 -0.298837 0)
(1.46304 -0.276945 0)
(1.44884 -0.252781 0)
(1.43591 -0.226239 0)
(1.4244 -0.197312 0)
(1.41444 -0.166087 0)
(1.40616 -0.132751 0)
(1.39962 -0.0975728 0)
(1.39491 -0.0608943 0)
(1.39204 -0.0231246 0)
(1.39103 0.0152658 0)
(1.39182 0.0537207 0)
(1.39434 0.0917576 0)
(1.33385 0.329941 0)
(1.35223 0.364508 0)
(1.37137 0.396005 0)
(1.39099 0.424505 0)
(1.41089 0.450123 0)
(1.4309 0.472992 0)
(1.4509 0.493238 0)
(1.47081 0.510958 0)
(1.49062 0.526197 0)
(1.51033 0.538922 0)
(1.52998 0.549002 0)
(1.54964 0.556186 0)
(1.56941 0.56008 0)
(1.58935 0.560187 0)
(1.60939 0.555993 0)
(1.62956 0.546973 0)
(1.64978 0.532619 0)
(1.66999 0.512477 0)
(1.69007 0.486175 0)
(1.70986 0.453473 0)
(1.72912 0.414315 0)
(1.74758 0.36883 0)
(1.76492 0.317342 0)
(1.78082 0.260375 0)
(1.79498 0.198651 0)
(1.8071 0.133143 0)
(1.81692 0.0652524 0)
(1.82413 -0.00285403 0)
(1.82856 -0.0694202 0)
(1.83019 -0.13307 0)
(1.82904 -0.192647 0)
(1.8252 -0.247262 0)
(1.81882 -0.296309 0)
(1.81013 -0.33946 0)
(1.79937 -0.376634 0)
(1.78682 -0.407945 0)
(1.77274 -0.433655 0)
(1.7574 -0.454109 0)
(1.74103 -0.469691 0)
(1.7238 -0.480781 0)
(1.70586 -0.487731 0)
(1.68735 -0.490878 0)
(1.66844 -0.490614 0)
(1.64916 -0.487422 0)
(1.62951 -0.481786 0)
(1.60952 -0.474168 0)
(1.58917 -0.464975 0)
(1.5685 -0.454509 0)
(1.54757 -0.442944 0)
(1.5265 -0.430301 0)
(1.50544 -0.41646 0)
(1.48458 -0.401192 0)
(1.46411 -0.384203 0)
(1.44423 -0.365188 0)
(1.42515 -0.34387 0)
(1.40706 -0.320035 0)
(1.39016 -0.293542 0)
(1.37465 -0.264334 0)
(1.36072 -0.232434 0)
(1.34856 -0.197953 0)
(1.33836 -0.161087 0)
(1.33027 -0.122116 0)
(1.32441 -0.0813984 0)
(1.32086 -0.0393591 0)
(1.31967 0.00349241 0)
(1.32078 0.0465583 0)
(1.32408 0.089262 0)
(1.32944 0.131142 0)
(1.33672 0.171742 0)
(1.34573 0.210648 0)
(1.35626 0.247507 0)
(1.36811 0.282027 0)
(1.38105 0.313981 0)
(1.39489 0.343213 0)
(1.40942 0.369623 0)
(1.42448 0.393164 0)
(1.43993 0.413822 0)
(1.45563 0.431609 0)
(1.47151 0.446544 0)
(1.48751 0.458629 0)
(1.5036 0.467831 0)
(1.51981 0.47405 0)
(1.53619 0.477106 0)
(1.55274 0.476788 0)
(1.56942 0.472914 0)
(1.58628 0.465285 0)
(1.60327 0.4537 0)
(1.62038 0.437979 0)
(1.63754 0.41797 0)
(1.65468 0.393566 0)
(1.67171 0.364732 0)
(1.68848 0.331516 0)
(1.70483 0.294067 0)
(1.7206 0.252647 0)
(1.73555 0.207631 0)
(1.74949 0.159499 0)
(1.76223 0.108849 0)
(1.77358 0.0564787 0)
(1.78328 0.00363197 0)
(1.79114 -0.0485746 0)
(1.79708 -0.0992627 0)
(1.80103 -0.147639 0)
(1.80295 -0.193023 0)
(1.80286 -0.234871 0)
(1.8008 -0.272787 0)
(1.79687 -0.306522 0)
(1.79117 -0.335962 0)
(1.78385 -0.361108 0)
(1.77506 -0.382044 0)
(1.76494 -0.398908 0)
(1.75361 -0.411846 0)
(1.74115 -0.420981 0)
(1.72756 -0.426404 0)
(1.71302 -0.428294 0)
(1.69762 -0.427006 0)
(1.68143 -0.422919 0)
(1.66453 -0.416432 0)
(1.64701 -0.407964 0)
(1.62895 -0.397915 0)
(1.61044 -0.386632 0)
(1.59161 -0.374374 0)
(1.57261 -0.361292 0)
(1.5536 -0.347405 0)
(1.53478 -0.332616 0)
(1.51633 -0.31673 0)
(1.49845 -0.299491 0)
(1.48133 -0.280627 0)
(1.46518 -0.259889 0)
(1.45016 -0.237079 0)
(1.43645 -0.212077 0)
(1.42422 -0.184852 0)
(1.4136 -0.155466 0)
(1.40469 -0.124078 0)
(1.39759 -0.0909292 0)
(1.39234 -0.0563363 0)
(1.389 -0.020676 0)
(1.38756 0.0156065 0)
(1.38801 0.0520439 0)
(1.39025 0.0881766 0)
(1.34351 0.310017 0)
(1.36173 0.343475 0)
(1.3809 0.374164 0)
(1.40075 0.402115 0)
(1.42109 0.427391 0)
(1.44178 0.450074 0)
(1.46268 0.470239 0)
(1.48374 0.487933 0)
(1.50492 0.503157 0)
(1.52622 0.515843 0)
(1.54766 0.525829 0)
(1.56931 0.532849 0)
(1.59123 0.53652 0)
(1.61341 0.536397 0)
(1.63582 0.532011 0)
(1.65842 0.52286 0)
(1.68112 0.508462 0)
(1.70382 0.488401 0)
(1.72631 0.46238 0)
(1.74836 0.430239 0)
(1.76969 0.391959 0)
(1.78998 0.347701 0)
(1.80889 0.297817 0)
(1.82607 0.242833 0)
(1.84116 0.18345 0)
(1.85385 0.120603 0)
(1.86383 0.0557176 0)
(1.87078 -0.00912874 0)
(1.87458 -0.0723587 0)
(1.87523 -0.13268 0)
(1.8728 -0.189023 0)
(1.86744 -0.240577 0)
(1.85936 -0.286805 0)
(1.84883 -0.327428 0)
(1.83615 -0.362393 0)
(1.82163 -0.391826 0)
(1.80558 -0.415976 0)
(1.78829 -0.435158 0)
(1.77002 -0.449717 0)
(1.75099 -0.459993 0)
(1.73136 -0.466303 0)
(1.71127 -0.468954 0)
(1.69087 -0.468305 0)
(1.67019 -0.464769 0)
(1.64924 -0.458791 0)
(1.62802 -0.450827 0)
(1.60652 -0.441299 0)
(1.58476 -0.430548 0)
(1.5628 -0.418797 0)
(1.54076 -0.406118 0)
(1.51879 -0.392431 0)
(1.49709 -0.377533 0)
(1.47586 -0.36114 0)
(1.4553 -0.342944 0)
(1.43561 -0.322665 0)
(1.41699 -0.300087 0)
(1.3996 -0.275066 0)
(1.38364 -0.247545 0)
(1.36929 -0.217544 0)
(1.35673 -0.185163 0)
(1.34612 -0.150576 0)
(1.33761 -0.114032 0)
(1.33131 -0.0758528 0)
(1.32732 -0.0364207 0)
(1.32566 0.00382085 0)
(1.32631 0.0443588 0)
(1.32919 0.0846469 0)
(1.33418 0.124254 0)
(1.34115 0.162763 0)
(1.34993 0.199788 0)
(1.36032 0.234992 0)
(1.37214 0.26809 0)
(1.38518 0.298853 0)
(1.39924 0.327112 0)
(1.41415 0.35275 0)
(1.42974 0.375693 0)
(1.44587 0.3959 0)
(1.46242 0.41335 0)
(1.47931 0.428025 0)
(1.49648 0.439894 0)
(1.51391 0.448888 0)
(1.53159 0.454879 0)
(1.54958 0.457689 0)
(1.56781 0.457132 0)
(1.58627 0.453037 0)
(1.60496 0.445212 0)
(1.62382 0.433474 0)
(1.6428 0.417662 0)
(1.6618 0.397651 0)
(1.68074 0.373363 0)
(1.69947 0.344792 0)
(1.71784 0.312018 0)
(1.73564 0.275229 0)
(1.75265 0.234716 0)
(1.76864 0.190852 0)
(1.78341 0.144095 0)
(1.79675 0.0950367 0)
(1.80844 0.0445277 0)
(1.81821 -0.00620311 0)
(1.8259 -0.0561659 0)
(1.83142 -0.104521 0)
(1.83474 -0.150522 0)
(1.83583 -0.193532 0)
(1.83474 -0.233055 0)
(1.83154 -0.26874 0)
(1.82636 -0.300374 0)
(1.81933 -0.327873 0)
(1.81062 -0.351251 0)
(1.8004 -0.370592 0)
(1.78882 -0.386011 0)
(1.77601 -0.397621 0)
(1.76202 -0.405504 0)
(1.74693 -0.409769 0)
(1.73093 -0.410642 0)
(1.7141 -0.408455 0)
(1.69651 -0.40356 0)
(1.67826 -0.396355 0)
(1.65943 -0.38726 0)
(1.6401 -0.376688 0)
(1.6204 -0.36501 0)
(1.60044 -0.352511 0)
(1.58037 -0.339367 0)
(1.56038 -0.32562 0)
(1.54064 -0.311183 0)
(1.52135 -0.295861 0)
(1.50269 -0.2794 0)
(1.48484 -0.261525 0)
(1.46799 -0.241983 0)
(1.45231 -0.22057 0)
(1.43797 -0.197153 0)
(1.42513 -0.171679 0)
(1.41394 -0.144183 0)
(1.40451 -0.114794 0)
(1.39693 -0.0837277 0)
(1.39125 -0.051263 0)
(1.38749 -0.0177515 0)
(1.38576 0.0163716 0)
(1.3858 0.0507017 0)
(1.38779 0.0848507 0)
(1.35443 0.290386 0)
(1.37244 0.322557 0)
(1.39155 0.352233 0)
(1.41154 0.379405 0)
(1.43223 0.404095 0)
(1.45347 0.426339 0)
(1.47515 0.446165 0)
(1.4972 0.46358 0)
(1.51959 0.478546 0)
(1.5423 0.490961 0)
(1.56535 0.500643 0)
(1.58877 0.507314 0)
(1.6126 0.51062 0)
(1.63677 0.510159 0)
(1.66126 0.505489 0)
(1.68601 0.49614 0)
(1.71088 0.481681 0)
(1.73566 0.461785 0)
(1.76013 0.436204 0)
(1.78402 0.40481 0)
(1.80701 0.367629 0)
(1.82875 0.324863 0)
(1.84886 0.276884 0)
(1.86696 0.224219 0)
(1.88268 0.167545 0)
(1.8957 0.107765 0)
(1.90566 0.0463062 0)
(1.91225 -0.0148734 0)
(1.91538 -0.0743937 0)
(1.91509 -0.131061 0)
(1.91148 -0.1839 0)
(1.90477 -0.232184 0)
(1.8952 -0.27544 0)
(1.8831 -0.313436 0)
(1.8688 -0.346139 0)
(1.85264 -0.373677 0)
(1.83497 -0.39628 0)
(1.81609 -0.414237 0)
(1.79629 -0.427854 0)
(1.77581 -0.437427 0)
(1.75483 -0.443221 0)
(1.73349 -0.445488 0)
(1.71191 -0.444533 0)
(1.6901 -0.440731 0)
(1.66808 -0.434494 0)
(1.64583 -0.426257 0)
(1.62335 -0.416459 0)
(1.60067 -0.405483 0)
(1.57783 -0.393603 0)
(1.55495 -0.380949 0)
(1.5322 -0.367489 0)
(1.50978 -0.353045 0)
(1.48789 -0.33734 0)
(1.46677 -0.320056 0)
(1.44659 -0.300901 0)
(1.42754 -0.279648 0)
(1.4098 -0.256151 0)
(1.39353 -0.230347 0)
(1.37889 -0.202256 0)
(1.36604 -0.171969 0)
(1.35514 -0.139647 0)
(1.34632 -0.105515 0)
(1.3397 -0.0698584 0)
(1.33534 -0.033017 0)
(1.33331 0.00461678 0)
(1.33358 0.0426007 0)
(1.33609 0.0804419 0)
(1.34074 0.11773 0)
(1.34741 0.154083 0)
(1.35595 0.189142 0)
(1.36619 0.222587 0)
(1.37795 0.25414 0)
(1.39104 0.283574 0)
(1.40528 0.310708 0)
(1.4205 0.335409 0)
(1.43655 0.357583 0)
(1.45329 0.377161 0)
(1.47061 0.394094 0)
(1.48842 0.408332 0)
(1.50667 0.419811 0)
(1.52531 0.428431 0)
(1.54436 0.434049 0)
(1.56381 0.436496 0)
(1.58358 0.43561 0)
(1.60366 0.431226 0)
(1.624 0.423163 0)
(1.64453 0.411259 0)
(1.66517 0.395374 0)
(1.6858 0.375408 0)
(1.70631 0.351314 0)
(1.72652 0.323119 0)
(1.74622 0.290953 0)
(1.76518 0.255031 0)
(1.78319 0.21564 0)
(1.79999 0.173145 0)
(1.81537 0.127999 0)
(1.82913 0.0807977 0)
(1.84099 0.0324285 0)
(1.85069 -0.015917 0)
(1.8581 -0.0633784 0)
(1.86314 -0.109162 0)
(1.86578 -0.152569 0)
(1.86604 -0.193018 0)
(1.86398 -0.23006 0)
(1.8597 -0.263387 0)
(1.85335 -0.292826 0)
(1.84509 -0.318314 0)
(1.83511 -0.339876 0)
(1.82358 -0.357585 0)
(1.81068 -0.371531 0)
(1.7965 -0.381786 0)
(1.78112 -0.388418 0)
(1.76472 -0.391554 0)
(1.7474 -0.391451 0)
(1.72926 -0.388397 0)
(1.7104 -0.382731 0)
(1.69091 -0.374848 0)
(1.67087 -0.365177 0)
(1.65039 -0.354147 0)
(1.62959 -0.342147 0)
(1.60861 -0.329489 0)
(1.58762 -0.31637 0)
(1.56678 -0.302847 0)
(1.54629 -0.288843 0)
(1.52631 -0.274159 0)
(1.50703 -0.258542 0)
(1.48861 -0.24171 0)
(1.47123 -0.223405 0)
(1.45505 -0.203417 0)
(1.44024 -0.181604 0)
(1.42694 -0.157902 0)
(1.4153 -0.13233 0)
(1.40544 -0.104992 0)
(1.39745 -0.0760644 0)
(1.39141 -0.0457938 0)
(1.38736 -0.0144838 0)
(1.38541 0.0175151 0)
(1.38514 0.0497611 0)
(1.38671 0.0818246 0)
(1.36614 0.271091 0)
(1.3839 0.301821 0)
(1.4029 0.330296 0)
(1.42295 0.356478 0)
(1.44388 0.380356 0)
(1.46555 0.401926 0)
(1.48787 0.421177 0)
(1.51077 0.43808 0)
(1.53419 0.452564 0)
(1.55811 0.464501 0)
(1.58255 0.47369 0)
(1.6075 0.479858 0)
(1.63296 0.482678 0)
(1.65885 0.481783 0)
(1.68513 0.476758 0)
(1.71167 0.467198 0)
(1.73827 0.452757 0)
(1.76471 0.433135 0)
(1.79074 0.408125 0)
(1.81604 0.37765 0)
(1.84027 0.341784 0)
(1.86305 0.300762 0)
(1.88397 0.254969 0)
(1.90265 0.204917 0)
(1.91872 0.151248 0)
(1.93183 0.0948559 0)
(1.94159 0.0372073 0)
(1.94773 -0.0200042 0)
(1.95018 -0.0755365 0)
(1.94902 -0.128311 0)
(1.9444 -0.177456 0)
(1.93655 -0.222326 0)
(1.92576 -0.262515 0)
(1.9124 -0.297828 0)
(1.89682 -0.32825 0)
(1.8794 -0.353903 0)
(1.86049 -0.374997 0)
(1.84043 -0.391791 0)
(1.81952 -0.404546 0)
(1.79799 -0.413505 0)
(1.77604 -0.418868 0)
(1.75376 -0.420827 0)
(1.73129 -0.419633 0)
(1.70862 -0.415609 0)
(1.68575 -0.409144 0)
(1.66267 -0.400675 0)
(1.63939 -0.390655 0)
(1.61592 -0.379499 0)
(1.59234 -0.367535 0)
(1.56876 -0.354953 0)
(1.54535 -0.341772 0)
(1.52232 -0.327848 0)
(1.4999 -0.312909 0)
(1.4783 -0.296627 0)
(1.45774 -0.278684 0)
(1.43838 -0.258835 0)
(1.42039 -0.236923 0)
(1.40392 -0.212881 0)
(1.38911 -0.186723 0)
(1.3761 -0.158533 0)
(1.36503 -0.128459 0)
(1.35602 -0.0967088 0)
(1.34917 -0.063539 0)
(1.34456 -0.0292553 0)
(1.34224 0.00579532 0)
(1.3422 0.0412314 0)
(1.3444 0.076612 0)
(1.34875 0.11155 0)
(1.35516 0.145696 0)
(1.36347 0.178718 0)
(1.37355 0.210312 0)
(1.38524 0.24021 0)
(1.39835 0.268186 0)
(1.41274 0.294054 0)
(1.42822 0.317667 0)
(1.44467 0.33891 0)
(1.46195 0.357694 0)
(1.47995 0.37394 0)
(1.49859 0.387573 0)
(1.5178 0.398499 0)
(1.53756 0.406595 0)
(1.55783 0.411713 0)
(1.57858 0.4137 0)
(1.59973 0.412413 0)
(1.62123 0.407688 0)
(1.64302 0.399363 0)
(1.66501 0.387293 0)
(1.68708 0.371364 0)
(1.70911 0.351501 0)
(1.73093 0.327696 0)
(1.75232 0.300027 0)
(1.77307 0.268644 0)
(1.79294 0.233767 0)
(1.81168 0.195687 0)
(1.82906 0.154765 0)
(1.84485 0.111438 0)
(1.85884 0.0663092 0)
(1.8707 0.0203701 0)
(1.8802 -0.0253726 0)
(1.88724 -0.0701189 0)
(1.89175 -0.113132 0)
(1.8937 -0.15377 0)
(1.89314 -0.191506 0)
(1.89015 -0.225943 0)
(1.88487 -0.256819 0)
(1.87745 -0.283992 0)
(1.86808 -0.307422 0)
(1.85697 -0.327132 0)
(1.84429 -0.34318 0)
(1.8302 -0.355624 0)
(1.81481 -0.364506 0)
(1.79823 -0.369893 0)
(1.78066 -0.371936 0)
(1.76217 -0.370872 0)
(1.74286 -0.366966 0)
(1.72285 -0.360551 0)
(1.70221 -0.352023 0)
(1.68106 -0.341823 0)
(1.65952 -0.330397 0)
(1.63772 -0.318155 0)
(1.61583 -0.305434 0)
(1.59405 -0.292457 0)
(1.57254 -0.279279 0)
(1.55146 -0.265804 0)
(1.53097 -0.251837 0)
(1.51122 -0.237121 0)
(1.49239 -0.221377 0)
(1.47465 -0.204351 0)
(1.45814 -0.185819 0)
(1.44302 -0.165629 0)
(1.42943 -0.143709 0)
(1.4175 -0.120066 0)
(1.40735 -0.0947782 0)
(1.39907 -0.0679974 0)
(1.39273 -0.0399456 0)
(1.38836 -0.0108882 0)
(1.386 0.018903 0)
(1.3857 0.0490207 0)
(1.38725 0.0789709 0)
(1.37818 0.252157 0)
(1.39566 0.281313 0)
(1.4145 0.308428 0)
(1.43453 0.333437 0)
(1.45561 0.356297 0)
(1.47761 0.376978 0)
(1.50043 0.39544 0)
(1.524 0.411622 0)
(1.54826 0.425424 0)
(1.5732 0.436698 0)
(1.59879 0.445233 0)
(1.62502 0.45077 0)
(1.65182 0.453007 0)
(1.67913 0.45161 0)
(1.70682 0.446229 0)
(1.73473 0.436519 0)
(1.76265 0.422163 0)
(1.79034 0.402912 0)
(1.8175 0.378612 0)
(1.84379 0.349234 0)
(1.86885 0.314889 0)
(1.89226 0.275836 0)
(1.91363 0.232461 0)
(1.93256 0.185258 0)
(1.9487 0.134847 0)
(1.96168 0.0820978 0)
(1.9711 0.028516 0)
(1.97673 -0.024502 0)
(1.97853 -0.0758509 0)
(1.97661 -0.124578 0)
(1.97113 -0.169913 0)
(1.96238 -0.211294 0)
(1.95068 -0.248373 0)
(1.93639 -0.280992 0)
(1.91991 -0.309147 0)
(1.90162 -0.332952 0)
(1.8819 -0.352596 0)
(1.8611 -0.368297 0)
(1.83951 -0.380266 0)
(1.81736 -0.388673 0)
(1.7948 -0.393645 0)
(1.77193 -0.395317 0)
(1.74885 -0.393896 0)
(1.72555 -0.38966 0)
(1.70204 -0.382972 0)
(1.67831 -0.374269 0)
(1.65437 -0.364032 0)
(1.63025 -0.35272 0)
(1.60603 -0.340709 0)
(1.58186 -0.328247 0)
(1.55792 -0.315413 0)
(1.53441 -0.302078 0)
(1.51156 -0.287975 0)
(1.48959 -0.272764 0)
(1.46872 -0.256118 0)
(1.44914 -0.237762 0)
(1.43101 -0.217505 0)
(1.41445 -0.195267 0)
(1.39959 -0.17106 0)
(1.38654 -0.144965 0)
(1.37541 -0.117123 0)
(1.36633 -0.0877254 0)
(1.35936 -0.0570056 0)
(1.3546 -0.0252386 0)
(1.35208 0.0072659 0)
(1.35182 0.0401692 0)
(1.35379 0.073092 0)
(1.3579 0.105665 0)
(1.36407 0.13757 0)
(1.37219 0.1685 0)
(1.38213 0.198167 0)
(1.39374 0.226316 0)
(1.40686 0.252723 0)
(1.42135 0.277198 0)
(1.43706 0.299584 0)
(1.45384 0.319749 0)
(1.47159 0.337584 0)
(1.49019 0.352989 0)
(1.50955 0.365862 0)
(1.52962 0.376087 0)
(1.55036 0.383528 0)
(1.57171 0.388043 0)
(1.59358 0.389497 0)
(1.61591 0.387751 0)
(1.63864 0.382651 0)
(1.66167 0.374052 0)
(1.68488 0.361831 0)
(1.70815 0.345898 0)
(1.7313 0.326221 0)
(1.75413 0.302838 0)
(1.77643 0.27584 0)
(1.79795 0.245392 0)
(1.81845 0.211726 0)
(1.83769 0.175131 0)
(1.85542 0.135951 0)
(1.87142 0.0946201 0)
(1.88544 0.0518027 0)
(1.89714 0.00849315 0)
(1.90634 -0.0344611 0)
(1.91293 -0.0763173 0)
(1.91686 -0.116401 0)
(1.91812 -0.154131 0)
(1.91676 -0.189039 0)
(1.91291 -0.220783 0)
(1.90671 -0.249143 0)
(1.89835 -0.274009 0)
(1.88801 -0.295351 0)
(1.87592 -0.313188 0)
(1.86224 -0.327554 0)
(1.84714 -0.338473 0)
(1.8307 -0.345973 0)
(1.81312 -0.350123 0)
(1.79451 -0.351088 0)
(1.77498 -0.349064 0)
(1.75464 -0.344305 0)
(1.73357 -0.337145 0)
(1.71189 -0.327991 0)
(1.68972 -0.317301 0)
(1.6672 -0.305543 0)
(1.64451 -0.293157 0)
(1.62185 -0.28051 0)
(1.59942 -0.26781 0)
(1.57737 -0.255079 0)
(1.55585 -0.242218 0)
(1.53501 -0.229038 0)
(1.51499 -0.21529 0)
(1.49594 -0.200697 0)
(1.47801 -0.184987 0)
(1.46134 -0.167943 0)
(1.44608 -0.149406 0)
(1.43235 -0.129285 0)
(1.42028 -0.107568 0)
(1.40999 -0.0843189 0)
(1.40155 -0.0596683 0)
(1.39504 -0.033809 0)
(1.39052 -0.00698373 0)
(1.388 0.0205256 0)
(1.3875 0.048396 0)
(1.38895 0.0762337 0)
(1.39011 0.233601 0)
(1.4073 0.261071 0)
(1.42594 0.28668 0)
(1.4459 0.310354 0)
(1.46703 0.332031 0)
(1.48923 0.35165 0)
(1.51241 0.369143 0)
(1.53648 0.384423 0)
(1.56141 0.397369 0)
(1.58715 0.407817 0)
(1.61366 0.415562 0)
(1.64088 0.420365 0)
(1.66872 0.421968 0)
(1.69706 0.420077 0)
(1.72578 0.414374 0)
(1.75467 0.404558 0)
(1.78351 0.390364 0)
(1.81203 0.371596 0)
(1.83991 0.34815 0)
(1.86678 0.320038 0)
(1.89226 0.287402 0)
(1.91594 0.250517 0)
(1.93741 0.209761 0)
(1.95629 0.165595 0)
(1.97225 0.118606 0)
(1.98492 0.0697219 0)
(1.9939 0.02035 0)
(1.999 -0.0283512 0)
(2.00021 -0.0754164 0)
(1.99764 -0.120028 0)
(1.99152 -0.161517 0)
(1.98213 -0.199399 0)
(1.96982 -0.233383 0)
(1.95497 -0.263341 0)
(1.93798 -0.28928 0)
(1.91926 -0.311304 0)
(1.89918 -0.329572 0)
(1.87808 -0.344254 0)
(1.85625 -0.355492 0)
(1.83387 -0.363372 0)
(1.81106 -0.367948 0)
(1.78791 -0.369305 0)
(1.76448 -0.367612 0)
(1.74077 -0.363116 0)
(1.71678 -0.356166 0)
(1.69253 -0.347209 0)
(1.66804 -0.336751 0)
(1.64337 -0.325292 0)
(1.61861 -0.313266 0)
(1.59396 -0.300988 0)
(1.56959 -0.288557 0)
(1.54571 -0.275861 0)
(1.52254 -0.262651 0)
(1.50031 -0.248592 0)
(1.47923 -0.233323 0)
(1.4595 -0.216531 0)
(1.4413 -0.198008 0)
(1.42474 -0.17764 0)
(1.40993 -0.155418 0)
(1.39695 -0.131422 0)
(1.3859 -0.105791 0)
(1.37686 -0.078706 0)
(1.3699 -0.050389 0)
(1.3651 -0.0210904 0)
(1.36249 0.00891094 0)
(1.3621 0.0393158 0)
(1.36391 0.0697975 0)
(1.36785 0.10001 0)
(1.37385 0.129658 0)
(1.38181 0.158458 0)
(1.39163 0.186142 0)
(1.40316 0.212466 0)
(1.41628 0.237209 0)
(1.43085 0.260181 0)
(1.44674 0.281216 0)
(1.4638 0.300173 0)
(1.48194 0.316923 0)
(1.50105 0.331348 0)
(1.52105 0.343324 0)
(1.54186 0.352719 0)
(1.56343 0.3594 0)
(1.58567 0.363235 0)
(1.60849 0.3641 0)
(1.63181 0.361856 0)
(1.65555 0.356362 0)
(1.67958 0.347492 0)
(1.70378 0.335151 0)
(1.72796 0.319291 0)
(1.75194 0.299913 0)
(1.77551 0.277069 0)
(1.79843 0.250873 0)
(1.82046 0.221503 0)
(1.84134 0.189197 0)
(1.86083 0.154232 0)
(1.8787 0.116939 0)
(1.89472 0.0777704 0)
(1.90858 0.0374699 0)
(1.91999 -0.00305769 0)
(1.92879 -0.0430784 0)
(1.93487 -0.0819101 0)
(1.93819 -0.118945 0)
(1.93875 -0.153668 0)
(1.93665 -0.185673 0)
(1.93201 -0.214671 0)
(1.92499 -0.240485 0)
(1.91581 -0.263027 0)