/*--------------------------------*- C++ -*----------------------------------*\
| =========                 |                                                 |
| \\      /  F ield         | OpenFOAM: The Open Source CFD Toolbox           |
|  \\    /   O peration     | Version:  2206                                  |
|   \\  /    A nd           | Website:  www.openfoam.com                      |
|    \\/     M anipulation  |                                                 |
\*---------------------------------------------------------------------------*/
FoamFile
{
    version     2.0;
    format      ascii;
    arch        "LSB;label=32;scalar=64";
    class       surfaceScalarField;
    location    "18.3";
    object      ddtCorrDdt0(phi);
}
// * * * * * * * * * * * * * * * * * * * * * * * * * * * * * * * * * * * * * //

dimensions      [0 3 -2 0 0 0 0];

oriented        oriented;

internalField   nonuniform List<scalar> 
5929
(
-0.000232188
-0.000195521
0.00018969
-0.000229292
-0.000126385
0.000123488
-0.000230097
-4.814e-05
4.8945e-05
-0.000231996
4.22251e-05
-4.03257e-05
-0.000234479
0.000143219
-0.000140736
-0.00023731
0.000253563
-0.000250732
-0.000239423
0.000370477
-0.000368364
-0.000239416
0.000489922
-0.00048993
-0.000236
0.000606383
-0.000609799
-0.000228055
0.000712846
-0.000720792
-0.000214102
0.000800235
-0.000814187
-0.00019128
0.000855565
-0.000878387
-0.000157907
0.000862098
-0.000895471
-0.000119117
0.000832676
-0.000871466
-7.61537e-05
0.000773368
-0.000816331
-3.08086e-05
0.000689826
-0.000735171
1.50648e-05
0.000588842
-0.000634715
5.99669e-05
0.000477469
-0.000522371
0.000103459
0.000361931
-0.000405423
0.000147724
0.000245582
-0.000289847
0.000195778
0.000128576
-0.00017663
0.000241349
2.11059e-05
-6.66774e-05
0.00027795
-6.05023e-05
2.39013e-05
0.00030485
-0.00011594
8.90407e-05
0.000321038
-0.000149153
0.000132964
0.000326329
-0.000168246
0.000162955
0.000321456
-0.000183387
0.000188261
0.000308272
-0.000204047
0.000217231
0.000288856
-0.000235284
0.0002547
0.000264495
-0.000276977
0.000301338
0.000235869
-0.00032636
0.000354986
0.000203238
-0.000379359
0.00041199
0.000166748
-0.000431631
0.000468121
0.00012677
-0.000479031
0.000519009
8.40205e-05
-0.000517579
0.000560329
3.96631e-05
-0.000542654
0.000587012
-3.46522e-06
-0.000550275
0.000593403
-4.41082e-05
-0.000541131
0.000581774
-8.08311e-05
-0.000517727
0.00055445
-0.000112426
-0.000481087
0.000512681
-0.000138059
-0.000433312
0.000458945
-0.000157424
-0.00037721
0.000396575
-0.000170826
-0.000315763
0.000329165
-0.000179208
-0.000251561
0.000259943
-0.000184319
-0.000186132
0.000191243
-0.000188497
-0.000118973
0.000123151
-0.000192266
-4.72118e-05
5.09806e-05
-0.000193566
2.86486e-05
-2.73479e-05
-0.000192804
0.000105322
-0.000106083
-0.000190733
0.000181748
-0.00018382
-0.000187769
0.000256769
-0.000259733
-0.000183908
0.000329615
-0.000333476
-0.000178854
0.000399388
-0.000404442
-0.000172136
0.000464654
-0.000471372
-0.000163082
0.000523
-0.000532054
-0.000150426
0.000569891
-0.000582547
-0.000130984
0.000596241
-0.000615683
-0.000105151
0.000593938
-0.000619771
-7.50973e-05
0.000570749
-0.000600803
-4.16986e-05
0.000528426
-0.000561824
-6.23697e-06
0.000470183
-0.000505644
2.98517e-05
0.000400291
-0.000436379
6.52657e-05
0.000323575
-0.000358989
9.96192e-05
0.000243895
-0.000278249
0.000134701
0.000162213
-0.000197295
0.000170775
7.98972e-05
-0.000115971
0.000201212
6.41692e-06
-3.68543e-05
0.000223671
-5.25112e-05
3.00525e-05
0.000237414
-9.74941e-05
8.37506e-05
0.000242149
-0.000131104
0.000126369
0.000238628
-0.000157835
0.000161356
0.000228426
-0.000182609
0.000192811
0.000213258
-0.000209001
0.000224169
0.000194461
-0.000238544
0.00025734
0.000172756
-0.000270868
0.000292574
0.000148465
-0.00030461
0.0003289
0.00012175
-0.000337772
0.000364486
9.28296e-05
-0.000367937
0.000396858
6.21089e-05
-0.000392345
0.000423065
3.03295e-05
-0.000407598
0.000439378
-7.74091e-07
-0.000409264
0.000440368
-3.02045e-05
-0.000400241
0.000429671
-5.69981e-05
-0.000380636
0.00040743
-8.0282e-05
-0.000351275
0.000374559
-9.94046e-05
-0.000313679
0.000332802
-0.000114089
-0.000269874
0.000284558
-0.000124646
-0.000221957
0.000232514
-0.000132035
-0.00017165
0.000179039
-0.000137818
-0.000119594
0.000125378
-0.000143419
-6.42787e-05
6.98797e-05
-0.000147494
-4.61314e-06
8.68742e-06
-0.000148993
5.5999e-05
-5.44996e-05
-0.000148267
0.000116369
-0.000117095
-0.000145864
0.000174911
-0.000177314
-0.000142232
0.000230527
-0.000234159
-0.000137636
0.00028265
-0.000287246
-0.00013216
0.000330683
-0.000336158
-0.000125594
0.000373556
-0.000380122
-0.000117094
0.000408857
-0.000417358
-0.00010443
0.000431282
-0.000443945
-8.62571e-05
0.000433758
-0.000451931
-6.43748e-05
0.000420436
-0.000442318
-3.9193e-05
0.000393695
-0.000418877
-1.21755e-05
0.000356325
-0.000383343
1.52348e-05
0.000310665
-0.000338075
4.21017e-05
0.000259195
-0.000286062
6.78197e-05
0.000204985
-0.000230702
9.31554e-05
0.000149198
-0.000174534
0.000119328
9.17437e-05
-0.000117917
0.00014365
3.63958e-05
-6.0718e-05
0.00016187
-1.12451e-05
-6.97493e-06
0.000173564
-5.08102e-05
3.91166e-05
0.000178477
-8.32872e-05
7.83745e-05
0.000176918
-0.000110603
0.000112162
0.000169907
-0.000135222
0.000142233
0.00015875
-0.00015919
0.000170347
0.000144562
-0.000183571
0.000197758
0.000128095
-0.000208416
0.000224883
0.000109799
-0.00023314
0.000251436
8.99429e-05
-0.000256713
0.000276569
-0.000277742
0.000298949
-0.00027409
-0.000194069
-0.000277678
-0.000122797
-0.000283358
-4.24594e-05
-0.000289048
4.79148e-05
-0.000294054
0.000148225
-0.000297562
0.000257071
-0.000298363
0.000371278
-0.000295149
0.000486708
-0.000286769
0.000598004
-0.00027204
0.000698116
-0.000249259
0.000777454
-0.000214361
0.000820667
-0.000170009
0.000817746
-0.000120181
0.000782848
-6.70294e-05
0.000720216
-1.27373e-05
0.000635534
4.07361e-05
0.000535368
9.21727e-05
0.000426033
0.000142422
0.000311682
0.00019537
0.000192634
0.000249464
7.44831e-05
0.000294455
-2.38852e-05
0.000329094
-9.51413e-05
0.000352087
-0.000138934
0.000362813
-0.000159878
0.000361829
-0.000167262
0.000351538
-0.000173096
0.000334038
-0.000186547
0.000310446
-0.000211692
0.00028232
-0.000248851
0.00025049
-0.00029453
0.000215171
-0.00034404
0.000176406
-0.000392866
0.000134429
-0.000437053
8.98102e-05
-0.000472961
4.40703e-05
-0.000496914
-1.14394e-06
-0.000505061
-4.40151e-05
-0.00049826
-8.3261e-05
-0.000478481
-0.000117726
-0.000446621
-0.000146622
-0.000404417
-0.000169659
-0.000354173
-0.000187136
-0.000298285
-0.000199963
-0.000238734
-0.000209698
-0.000176398
-0.000218031
-0.000110639
-0.000224818
-4.04247e-05
-0.000228641
3.24711e-05
-0.000229912
0.000106593
-0.000229029
0.000180865
-0.000226178
0.000253919
-0.000221328
0.000324764
-0.000214258
0.000392319
-0.000204619
0.000455015
-0.000191674
0.000510054
-0.00017351
0.000551728
-0.000146234
0.000568965
-0.000113096
0.000560799
-7.53279e-05
0.000532981
-3.45359e-05
0.000487634
7.60052e-06
0.000428046
4.9504e-05
0.000358387
9.02877e-05
0.000282791
0.000130929
0.000203253
0.000172686
0.000120456
0.000210795
4.17884e-05
0.000240234
-2.30214e-05
0.000260083
-7.23602e-05
0.00026988
-0.000107292
0.000270102
-0.000131325
0.000262119
-0.000149852
0.000247961
-0.000168451
0.00022953
-0.000190569
0.000208159
-0.000217174
0.000184252
-0.000246961
0.000157952
-0.000278309
0.00012935
-0.00030917
9.8627e-05
-0.000337214
6.61388e-05
-0.000359857
3.25861e-05
-0.000374046
-3.63424e-07
-0.000376315
-3.17437e-05
-0.00036886
-6.06079e-05
-0.000351772
-8.61273e-05
-0.000325755
-0.000107721
-0.000292085
-0.000125198
-0.000252397
-0.000138847
-0.000208307
-0.000149567
-0.00016093
-0.000158671
-0.00011049
-0.000166624
-5.6326e-05
-0.000172101
8.63525e-07
-0.000174878
5.87766e-05
-0.000175129
0.000116619
-0.000173155
0.000172937
-0.00016932
0.000226692
-0.000163895
0.000277225
-0.00015696
0.000323747
-0.00014812
0.000364717
-0.000136023
0.00039676
-0.000117675
0.000412934
-9.42175e-05
0.0004103
-6.65211e-05
0.000392739
-3.53213e-05
0.000362495
-2.85169e-06
0.000323856
2.85521e-05
0.000279261
5.90371e-05
0.00022871
8.93092e-05
0.000174712
0.000120427
0.000118081
0.000150072
6.20988e-05
0.000173576
1.28914e-05
0.000189892
-2.75609e-05
0.000198675
-5.9593e-05
0.000200182
-8.47944e-05
0.000195207
-0.000105628
0.000185086
-0.000125101
0.000171327
-0.000145431
0.000155043
-0.000167287
0.000136787
-0.00019016
0.000116869
-0.000213223
9.54722e-05
-0.000235316
-0.000255037
-0.000313284
-0.000185649
-0.000322878
-0.000113204
-0.000332876
-3.24608e-05
-0.000341762
5.68e-05
-0.000348728
0.000155191
-0.000352496
0.000260839
-0.00035171
0.000370492
-0.000345126
0.000480124
-0.00033162
0.000584498
-0.000310068
0.000676564
-0.000278424
0.000745809
-0.000232112
0.000774356
-0.000177609
0.000763243
-0.000117661
0.000722901
-5.52824e-05
0.000657837
7.02386e-06
0.000573228
6.75262e-05
0.000474866
0.000125875
0.000367684
0.000185115
0.000252442
0.000246651
0.000131098
0.000301777
1.93574e-05
0.000346089
-6.8198e-05
0.000377693
-0.000126745
0.000395235
-0.000156476
0.000398483
-0.000163126
0.000390546
-0.000159325
0.000374887
-0.000157437
0.000352889
-0.000164549
0.000325565
-0.000184368
0.000293937
-0.000217222
0.000259102
-0.000259696
0.000221432
-0.000306369
0.000180903
-0.000352337
0.0001376
-0.000393751
9.19934e-05
-0.000427354
4.51728e-05
-0.000450094
-1.05188e-06
-0.000458836
-4.52639e-05
-0.000454048
-8.62355e-05
-0.00043751
-0.000122892
-0.000409965
-0.00015449
-0.000372818
-0.000180765
-0.000327899
-0.000201994
-0.000277056
-0.000219028
-0.000221701
-0.000233161
-0.000162264
-0.000245283
-9.85181e-05
-0.000254684
-3.10238e-05
-0.000260699
3.84861e-05
-0.000263689
0.000109584
-0.000263708
0.000180883
-0.000260799
0.00025101
-0.000254922
0.000318887
-0.00024596
0.000383357
-0.000233654
0.000442708
-0.000216909
0.00049331
-0.000192151
0.00052697
-0.00015758
0.000534394
-0.000116867
0.000520086
-7.14749e-05
0.000487589
-2.37305e-05
0.000439889
2.44382e-05
0.000379878
7.1708e-05
0.000311117
0.000118347
0.000236152
0.000166359
0.000155241
0.000212731
7.40846e-05
0.00025038
4.13962e-06
0.000277486
-5.0128e-05
0.000293069
-8.79427e-05
0.000297135
-0.000111358
0.00029126
-0.00012545
0.000278466
-0.000137059
0.000261141
-0.000151126
0.000240345
-0.000169773
0.000216698
-0.000193527
0.000190853
-0.000221115
0.000162912
-0.000250369
0.000132891
-0.000279149
0.000100895
-0.000305218
6.72218e-05
-0.000326183
3.2561e-05
-0.000339385
-1.55963e-06
-0.000342194
-3.4244e-05
-0.000336176
-6.46073e-05
-0.000321409
-9.18865e-05
-0.000298476
-0.000115568
-0.000268403
-0.000135519
-0.000232447
-0.000152063
-0.000191763
-0.000165947
-0.000147047
-0.000177982
-9.84545e-05
-0.000187878
-4.64297e-05
-0.000194653
7.63829e-06
-0.000198543
6.26662e-05
-0.000199572
0.000117648
-0.000197936
0.000171301
-0.000193952
0.000222708
-0.000187835
0.000271109
-0.000179463
0.000315375
-0.000167953
0.000353206
-0.000150792
0.0003796
-0.000126297
0.000388438
-9.7307e-05
0.00038131
-6.4681e-05
0.000360113
-2.81727e-05
0.000325987
8.49385e-06
0.000287189
4.28974e-05
0.000244858
7.87921e-05
0.000192815
0.00011539
0.000138114
0.000150836
8.26353e-05
0.000180299
3.26351e-05
0.00020177
-8.57907e-06
0.000214723
-4.05144e-05
0.000219394
-6.42638e-05
0.000216487
-8.18876e-05
0.000207732
-9.68731e-05
0.000194993
-0.000112361
0.000179318
-0.000129757
0.000161364
-0.000149332
0.000141716
-0.000170512
0.000120572
-0.000192078
9.8059e-05
-0.000212803
-0.000231293
-0.000349499
-0.000170789
-0.000364127
-9.85753e-05
-0.000377542
-1.90459e-05
-0.00038902
6.82778e-05
-0.000397242
0.000163414
-0.000400641
0.000264237
-0.000397803
0.000367654
-0.000387582
0.000469904
-0.000369133
0.000566048
-0.000341498
0.000648929
-0.000300266
0.000704577
-0.00024436
0.000718449
-0.000180411
0.000699294
-0.000111334
0.000653824
-4.07497e-05
0.000587252
2.86811e-05
0.000503797
9.58143e-05
0.000407733
0.000162506
0.000300992
0.00023162
0.000183327
0.000297933
6.47855e-05
0.000353426
-3.61362e-05
0.000395631
-0.000110403
0.000422215
-0.000153329
0.00043172
-0.000165981
0.000426879
-0.000158285
0.000412491
-0.000144937
0.000391045
-0.000135991
0.000364276
-0.00013778
0.000333239
-0.000153331
0.00029861
-0.000182593
0.000261366
-0.000222452
0.000221919
-0.000266923
0.000180258
-0.000310676
0.000136317
-0.00034981
9.0371e-05
-0.000381408
4.32958e-05
-0.000403019
-3.22217e-06
-0.000412318
-4.80356e-05
-0.000409234
-9.00397e-05
-0.000395506
-0.000128266
-0.000371738
-0.000162036
-0.000339048
-0.000191109
-0.000298826
-0.000215747
-0.000252418
-0.000236727
-0.00020072
-0.00025486
-0.000144132
-0.000269961
-8.34167e-05
-0.000281379
-1.96064e-05
-0.000289324
4.64316e-05
-0.000293661
0.000113921
-0.000294258
0.00018148
-0.000291097
0.00024785
-0.000284189
0.000311979
-0.00027352
0.000372689
-0.000258598
0.000427785
-0.000237326
0.000472038
-0.000205092
0.000494737
-0.0001639
0.000493201
-0.000115647
0.000471834
-6.2638e-05
0.00043458
-8.56731e-06
0.000385818
4.44636e-05
0.000326847
9.7129e-05
0.000258452
0.00015163
0.000181652
0.000206139
0.000100731
0.000252979
2.72444e-05
0.000288607
-3.14886e-05
0.000311184
-7.27042e-05
0.000320096
-9.68551e-05
0.00031679
-0.000108052
0.000305134
-0.000113794
0.000288362
-0.000120286
0.000267955
-0.000130719
0.000244834
-0.000146652
0.000219461
-0.000168154
0.000192214
-0.000193868
0.00016321
-0.000221365
0.000132383
-0.000248322
9.97109e-05
-0.000272546
6.54463e-05
-0.000291919
3.02953e-05
-0.000304234
-4.39321e-06
-0.000307506
-3.78126e-05
-0.000302757
-6.91642e-05
-0.000290057
-9.77724e-05
-0.000269868
-0.000123205
-0.000242971
-0.000145379
-0.000210273
-0.000164594
-0.000172548
-0.000181334
-0.000130307
-0.000195634
-8.41536e-05
-0.000206927
-3.51371e-05
-0.000214924
1.56357e-05
-0.00021976
6.75013e-05
-0.00022142
0.000119309
-0.000220093
0.000169974
-0.000216018
0.000218633
-0.000209207
0.000264297
-0.000199073
0.000305242
-0.000183887
0.00033802
-0.000160226
0.000355939
-0.000129561
0.000357773
-9.43006e-05
0.000346049
-5.57116e-05
0.000321524
-1.87603e-05
0.000289036
1.96075e-05
0.000248821
6.2537e-05
0.000201928
0.000105011
0.000150342
0.00014629
9.68346e-05
0.000181917
4.70089e-05
0.000208959
5.59262e-06
0.000226434
-2.60543e-05
0.00023439
-4.84699e-05
0.000233465
-6.33388e-05
0.000225911
-7.43342e-05
0.000214251
-8.52125e-05
0.000199591
-9.7702e-05
0.000182564
-0.000112729
0.000163612
-0.000130381
0.000143077
-0.000149977
0.000121195
-0.000170196
9.80276e-05
-0.000189636
-0.000206916
-0.000381931
-0.000150667
-0.0004005
-8.00067e-05
-0.0004167
-2.84551e-06
-0.00042989
8.14674e-05
-0.000438475
0.000171999
-0.000440779
0.000266542
-0.000435445
0.000362319
-0.000421614
0.000456073
-0.000398789
0.000543224
-0.000364946
0.000615086
-0.000314217
0.000653849
-0.000250786
0.000655019
-0.000178196
0.000626704
-0.000100531
0.000576159
-2.2696e-05
0.000509418
5.29249e-05
0.000428176
0.000127093
0.000333565
0.000203967
0.000224117
0.000281338
0.000105956
0.00034919
-3.06571e-06
0.000403651
-9.05971e-05
0.000441275
-0.000148027
0.000459511
-0.000171565
0.000459567
-0.000166037
0.000446962
-0.00014568
0.000425751
-0.000123725
0.0003986
-0.00010884
0.000367364
-0.000106544
0.000333069
-0.000119035
0.000296158
-0.000145683
0.000257135
-0.000183428
0.000216785
-0.000226573
0.000174677
-0.000268568
0.000130759
-0.000305891
8.51491e-05
-0.000335799
3.85069e-05
-0.000356376
-7.67639e-06
-0.000366135
-5.24303e-05
-0.00036448
-9.48477e-05
-0.000353088
-0.000134086
-0.0003325
-0.000169554
-0.00030358
-0.000201048
-0.000267332
-0.000228786
-0.00022468
-0.000253217
-0.000176289
-0.000274281
-0.000123068
-0.000291541
-6.61559e-05
-0.00030484
-6.30806e-06
-0.000314227
5.58186e-05
-0.000319417
0.000119111
-0.000320239
0.000182302
-0.00031669
0.000244301
-0.000308874
0.000304163
-0.000296675
0.000360489
-0.000278707
0.000409817
-0.000250452
0.000443783
-0.000210724
0.000455009
-0.00016312
0.000445597
-0.000108504
0.000417217
-4.82924e-05
0.000374369
1.10107e-05
0.000326515
6.77051e-05
0.000270152
0.000128462
0.000197695
0.000191402
0.000118711
0.00024814
4.39937e-05
0.000293197
-1.78121e-05
0.000323732
-6.20244e-05
0.00033845
-8.74216e-05
0.000338321
-9.67259e-05
0.000327788
-9.752e-05
0.000311166
-9.71718e-05
0.000290589
-9.97085e-05
0.000267462
-0.000107592
0.00024259
-0.00012178
0.000216233
-0.000141797
0.00018838
-0.000166014
0.000159047
-0.000192032
0.000128044
-0.000217319
9.52921e-05
-0.000239794
6.10128e-05
-0.00025764
2.59219e-05
-0.000269143
-8.81129e-06
-0.000272773
-4.24922e-05
-0.000269076
-7.44209e-05
-0.000258128
-0.000104016
-0.000240273
-0.000130928
-0.000216059
-0.000155109
-0.000186092
-0.000176687
-0.00015097
-0.000195593
-0.000111401
-0.000211344
-6.84028e-05
-0.00022368
-2.28002e-05
-0.000232719
2.46745e-05
-0.000238327
7.31094e-05
-0.000240517
0.000121498
-0.000239474
0.000168931
-0.000235333
0.000214492
-0.00022782
0.000256784
-0.000215588
0.00029301
-0.000195016
0.000317448
-0.000165237
0.00032616
-0.000128736
0.000321273
-8.7036e-05
0.000304349
-4.47934e-05
0.000279282
-2.0985e-06
0.000246341
4.2952e-05
0.000203771
9.07314e-05
0.000154149
0.000137557
0.000103516
0.000179043
5.53487e-05
0.00021151
1.4542e-05
0.000233481
-1.63786e-05
0.000244777
-3.73497e-05
0.000245977
-4.96708e-05
0.00023965
-5.70111e-05
0.000228804
-6.34888e-05
0.000214847
-7.12553e-05
0.000198731
-8.15861e-05
0.000180956
-9.49537e-05
0.000161683
-0.000111107
0.000140938
-0.000129232
0.000118842
-0.0001481
9.54602e-05
-0.000166255
-0.000182329
-0.000410031
-0.000126734
-0.000431235
-5.88026e-05
-0.000449398
1.53178e-05
-0.000463321
9.539e-05
-0.000471354
0.000180031
-0.000471948
0.000267136
-0.000464063
0.000354435
-0.000447334
0.000439344
-0.000420724
0.000516614
-0.00037879
0.000573152
-0.000320176
0.000595235
-0.000250199
0.000585042
-0.000170216
0.000546721
-8.38656e-05
0.000489808
2.73354e-07
0.000425279
8.04781e-05
0.000347971
0.000164424
0.000249619
0.000252143
0.000136398
0.000333125
2.4975e-05
0.000401038
-7.09788e-05
0.000451103
-0.000140662
0.000479882
-0.000176806
0.000486433
-0.000178117
0.000476373
-0.000155976
0.000455841
-0.000125148
0.000428148
-9.60329e-05
0.000395941
-7.66333e-05
0.000361116
-7.17185e-05
0.000324621
-8.25411e-05
0.000286591
-0.000107653
0.000246991
-0.000143828
0.000206289
-0.000185871
0.000164488
-0.000226766
0.000121238
-0.000262642
7.65769e-05
-0.000291138
3.09891e-05
-0.000310789
-1.43543e-05
-0.000320792
-5.84688e-05
-0.000320366
-0.000100792
-0.000310765
-0.000140596
-0.000292696
-0.000177377
-0.000266799
-0.000210934
-0.000233775
-0.000241295
-0.000194319
-0.000268135
-0.000149449
-0.000291014
-0.000100189
-0.000309863
-4.73071e-05
-0.000324596
8.42452e-06
-0.000334919
6.61422e-05
-0.000340565
0.000124757
-0.000341438
0.000183175
-0.000337654
0.000240516
-0.000329258
0.000295768
-0.000315218
0.000346449
-0.000291379
0.000385979
-0.00025408
0.000406484
-0.000206504
0.000407434
-0.000151781
0.000390874
-9.2504e-05
0.00035794
-3.19227e-05
0.000313787
3.01794e-05
0.000264413
9.92598e-05
0.000201072
0.000170789
0.000126165
0.000237271
5.22294e-05
0.00029198
-1.07154e-05
0.000330817
-5.66484e-05
0.000351713
-8.2921e-05
0.00035501
-9.07183e-05
0.000345555
-8.72705e-05
0.000328817
-8.07825e-05
0.0003076
-7.59545e-05
0.000283949
-7.60573e-05
0.00025914
-8.27842e-05
0.00023366
-9.62996e-05
0.000207357
-0.000115495
0.00017983
-0.000138487
0.000150806
-0.000163008
0.0001202
-0.000186713
8.79455e-05
-0.00020754
5.4197e-05
-0.000223891
1.96165e-05
-0.000234562
-1.4735e-05
-0.000238421
-4.83213e-05
-0.000235489
-8.05364e-05
-0.000225913
-0.00011089
-0.000209919
-0.000139088
-0.000187861
-0.000164982
-0.000160198
-0.000188158
-0.000127794
-0.000208142
-9.14165e-05
-0.00022482
-5.17256e-05
-0.000238127
-9.49311e-06
-0.000247932
3.44798e-05
-0.000254152
7.93291e-05
-0.000256855
0.000124202
-0.000256191
0.000168266
-0.000252035
0.000210336
-0.000243234
0.000247983
-0.000226247
0.000276023
-0.000198867
0.000290069
-0.000163171
0.000290463
-0.000120857
0.000278959
-7.45445e-05
0.000258036
-2.61589e-05
0.000230896
2.40497e-05
0.000196132
7.52904e-05
0.00015253
0.000125979
0.00010346
0.00017255
5.69454e-05
0.000209888
1.80099e-05
0.000235865
-1.14344e-05
0.000250121
-3.06345e-05
0.000253182
-4.04108e-05
0.000247858
-4.43471e-05
0.000237656
-4.68086e-05
0.000224354
-5.01873e-05
0.000209132
-5.60337e-05
0.000192613
-6.50664e-05
0.000174962
-7.73027e-05
0.000156064
-9.2209e-05
0.000135724
-0.000108893
0.000113888
-0.000126264
9.06973e-05
-0.000143064
-0.000157924
-0.000433036
-0.00010042
-0.000456006
-3.58319e-05
-0.000474908
3.42194e-05
-0.000488497
0.000108979
-0.000495375
0.000186909
-0.000494364
0.000266125
-0.000484888
0.000344959
-0.000466305
0.00042076
-0.000434118
0.000484426
-0.000382577
0.000521611
-0.000315876
0.000528534
-0.000238292
0.000507458
-0.000153458
0.000461886
-6.25434e-05
0.000398894
2.55212e-05
0.000337214
0.000114737
0.000258756
0.000213132
0.000151223
0.000308191
4.13401e-05
0.000390104
-5.69387e-05
0.000452853
-0.000133727
0.00049208
-0.000179889
0.000505263
-0.000189989
0.000497868
-0.000170721
0.000478163
-0.000136272
0.000450172
-9.71564e-05
0.000417065
-6.2926e-05
0.000381389
-4.09575e-05
0.000344799
-3.51287e-05
0.000307848
-4.55902e-05
0.000270188
-6.99923e-05
0.000231268
-0.000104908
0.000191158
-0.000145762
0.000150394
-0.000186002
0.000108366
-0.000220613
6.51107e-05
-0.000247883
2.10382e-05
-0.000266716
-2.30654e-05
-0.000276688
-6.61928e-05
-0.000277238
-0.000108007
-0.000268951
-0.000148048
-0.000252655
-0.000185825
-0.000229022
-0.000220825
-0.000198775
-0.000252528
-0.000162616
-0.000280639
-0.000121338
-0.000304858
-7.59697e-05
-0.000324852
-2.73134e-05
-0.00034034
2.39128e-05
-0.000351079
7.68812e-05
-0.000356941
0.000130618
-0.000357984
0.000184218
-0.00035432
0.000236853
-0.000345308
0.000286756
-0.000327447
0.000328587
-0.00029574
0.000354273
-0.00025053
0.000361274
-0.000194521
0.000351424
-0.000131108
0.00032746
-6.79038e-05
0.000294737
-5.43187e-06
0.000251315
6.57666e-05
0.000193215
0.000147335
0.000119504
0.000223465
5.00346e-05
0.000286875
-1.11799e-05
0.000333191
-5.70314e-05
0.000359499
-8.29566e-05
0.000365588
-8.90107e-05
0.000356755
-8.18853e-05
0.000339529
-7.00437e-05
0.000317367
-5.86207e-05
0.000292917
-5.15042e-05
0.000267899
-5.10393e-05
0.000243061
-5.79466e-05
0.000218343
-7.15818e-05
0.000193193
-9.03447e-05
0.00016691
-0.000112203
0.000139003
-0.000135101
0.000109363
-0.000157074
7.80972e-05
-0.000176275
4.5347e-05
-0.000191141
1.16628e-05
-0.000200878
-2.20545e-05
-0.000204704
-5.53287e-05
-0.000202215
-8.76956e-05
-0.000193546
-0.000118663
-0.000178952
-0.000147704
-0.00015882
-0.000174307
-0.000133595
-0.000198119
-0.000103982
-0.000218831
-7.07042e-05
-0.000236202
-3.43548e-05
-0.000250127
4.43166e-06
-0.000260522
4.48749e-05
-0.000267368
8.61748e-05
-0.000270718
0.000127552
-0.000270438
0.000167987
-0.000265344
0.000205242
-0.0002517
0.000234339
-0.000226832
0.000251155
-0.000192026
0.000255262
-0.000149385
0.000247822
-0.000101409
0.000230983
-5.0656e-05
0.000207284
2.31439e-06
0.000177926
5.78918e-05
0.000140555
0.000113957
9.64653e-05
0.000164598
5.28185e-05
0.000205354
1.61898e-05
0.00023414
-1.07764e-05
0.000250244
-2.75381e-05
0.000254269
-3.46594e-05
0.000249421
-3.55633e-05
0.000239641
-3.45674e-05
0.000226951
-3.41178e-05
0.000212659
-3.58953e-05
0.000197455
-4.08296e-05
0.000181568
-4.91801e-05
0.000164878
-6.06123e-05
0.000147048
-7.43791e-05
0.000127717
-8.95616e-05
0.000106689
-0.000105237
8.40582e-05
-0.000120433
-0.000133991
-0.000450343
-7.28313e-05
-0.00047377
-1.24048e-05
-0.000492319
5.27685e-05
-0.000505077
0.000121737
-0.00051118
0.000193012
-0.00051004
0.000264985
-0.000500786
0.000335705
-0.000480061
0.000400036
-0.00044015
0.000444516
-0.000379486
0.000460946
-0.000301598
0.000450646
-0.000212405
0.000418266
-0.000121805
0.000371286
-3.55382e-05
0.000312627
5.92244e-05
0.000242452
0.00017383
0.00014415
0.00028351
4.15426e-05
0.000378054
-5.32039e-05
0.000451315
-0.000130199
0.000498131
-0.000180544
0.000515214
-0.000196972
0.000508369
-0.000183145
0.000487892
-0.000150244
0.000459
-0.00010738
0.000425307
-6.34629e-05
0.000389472
-2.70908e-05
0.000353374
-4.85957e-06
0.000317851
3.94137e-07
0.000282794
-1.0533e-05
0.000247444
-3.46429e-05
0.000210816
-6.82798e-05
0.000172513
-0.000107459
0.000133255
-0.000146743
9.28771e-05
-0.000180235
5.13813e-05
-0.000206387
9.1086e-06
-0.000224443
-3.33635e-05
-0.000234216
-7.53596e-05
-0.000235242
-0.000116509
-0.000227801
-0.000156286
-0.000212879
-0.000194092
-0.000191215
-0.000229446
-0.000163422
-0.000261846
-0.000130216
-0.000290741
-9.24427e-05
-0.000315649
-5.10616e-05
-0.000336092
-6.87078e-06
-0.000351762
3.95834e-05
-0.000362628
8.77469e-05
-0.00036887
0.00013686
-0.000370632
0.000185981
-0.000367232
0.000233453
-0.000355427
0.000274951
-0.000329797
0.000302957
-0.000289191
0.000313667
-0.00023587
0.000307952
-0.000172324
0.000287879
-0.000103247
0.000258383
-3.32244e-05
0.000224714
4.41675e-05
0.000173924
0.000130149
0.000107234
0.000210892
3.87605e-05
0.00028039
-1.94629e-05
0.000331599
-6.23891e-05
0.00036078
-8.62129e-05
0.00036776
-8.9936e-05
0.000358462
-7.97134e-05
0.000340228
-6.36505e-05
0.000317031
-4.68467e-05
0.000291916
-3.35061e-05
0.00026685
-2.64385e-05
0.000242757
-2.69463e-05
0.000219732
-3.49211e-05
0.000197238
-4.90877e-05
0.000174376
-6.74834e-05
0.000150226
-8.80529e-05
0.00012418
-0.000109055
9.6094e-05
-0.000128988
6.61471e-05
-0.000146328
3.47286e-05
-0.000159722
2.26673e-06
-0.000168416
-3.05206e-05
-0.000171916
-6.32307e-05
-0.000169505
-9.53968e-05
-0.00016138
-0.000126406
-0.000147943
-0.000155706
-0.00012952
-0.000182674
-0.000106627
-0.000206784
-7.98716e-05
-0.000227755
-4.97332e-05
-0.000245468
-1.66411e-05
-0.000259861
1.8824e-05
-0.0002709
5.59146e-05
-0.000278514
9.37885e-05
-0.000282294
0.000131331
-0.000280888
0.000166581
-0.000270139
0.000194493
-0.000247366
0.000211566
-0.00021345
0.000217239
-0.000170365
0.000212178
-0.000120922
0.000198379
-6.83398e-05
0.0001784
-1.41998e-05
0.000153144
4.34305e-05
0.000120295
0.00010235
8.16352e-05
0.000155925
4.28907e-05
0.000198538
1.02057e-05
0.000228124
-1.33963e-05
0.000244239
-2.68916e-05
0.000247867
-3.11665e-05
0.000242788
-2.958e-05
0.000233158
-2.59333e-05
0.000221073
-2.24821e-05
0.000207846
-2.08907e-05
0.00019418
-2.22295e-05
0.000180311
-2.6961e-05
0.000166108
-3.49767e-05
0.000151187
-4.56917e-05
0.000135051
-5.82429e-05
0.00011724
-7.17503e-05
9.7486e-05
-8.54827e-05
7.58395e-05
-9.87861e-05
-0.000110799
-0.000461638
-4.48523e-05
-0.000484656
1.06128e-05
-0.000502428
7.05407e-05
-0.000514946
0.000134255
-0.000522505
0.000200571
-0.000524569
0.000267049
-0.000517105
0.000328241
-0.000489921
0.000372851
-0.000438623
0.000393218
-0.000364535
0.000386858
-0.000272938
0.000359049
-0.000173946
0.000319273
-7.84779e-05
0.000275818
2.25778e-05
0.000211571
0.000145758
0.000119271
0.000270157
1.97515e-05
0.000374882
-6.31827e-05
0.000452996
-0.000131318
0.000500683
-0.000177886
0.000515191
-0.000195052
0.000503834
-0.000185615
0.000478807
-0.000158118
0.000446667
-0.000118104
0.00041155
-7.22636e-05
0.000376211
-2.81237e-05
0.00034216
6.95982e-06
0.000309957
2.73433e-05
0.000279358
3.09932e-05
0.000249448
1.93771e-05
0.000219031
-4.22586e-06
0.000186848
-3.60967e-05
0.000151964
-7.25752e-05
0.000114813
-0.000109592
7.63162e-05
-0.000141738
3.65951e-05
-0.000166666
-4.00541e-06
-0.000183843
-4.46195e-05
-0.000193602
-8.49738e-05
-0.000194888
-0.000125081
-0.000187694
-0.000164169
-0.000173791
-0.000201528
-0.000153856
-0.000236663
-0.000128287
-0.00026907
-9.78091e-05
-0.000298171
-6.33418e-05
-0.000323207
-2.60255e-05
-0.000343454
1.33766e-05
-0.000358826
5.49552e-05
-0.000369868
9.87887e-05
-0.000377112
0.000144104
-0.000379763
0.000188631
-0.000373374
0.000227064
-0.000352141
0.000253717
-0.000314211
0.000265027
-0.000261271
0.000260727
-0.000197258
0.000243939
-0.000126806
0.000217427
-5.35663e-05
0.000185143
3.03584e-05
0.00014079
0.000120294
8.3988e-05
0.000205558
2.19699e-05
0.000276206
-3.18877e-05
0.000327067
-7.03242e-05
0.00035433
-8.9652e-05
0.000358511
-9.03934e-05
0.000346712
-7.81371e-05
0.000326668
-5.96699e-05
0.000302541
-3.95229e-05
0.000277385
-2.16914e-05
0.000253065
-9.18607e-06
0.0002305
-3.87341e-06
0.000209834
-6.27997e-06
0.000190562
-1.56491e-05
0.000171728
-3.02534e-05
0.000152174
-4.79299e-05
0.000130861
-6.67398e-05
0.000107184
-8.53771e-05
8.10715e-05
-0.000102876
5.27575e-05
-0.000118014
2.27426e-05
-0.000129707
-8.26054e-06
-0.000137413
-3.95898e-05
-0.000140587
-7.13901e-05
-0.000137705
-0.000103066
-0.000129705
-0.000133786
-0.000117223
-0.000162936
-0.000100371
-0.000189867
-7.96953e-05
-0.000213968
-5.57706e-05
-0.000234938
-2.87633e-05
-0.000252833
1.25343e-06
-0.000267735
3.37261e-05
-0.000279531
6.77105e-05
-0.000287367
0.000101625
-0.000288775
0.000132739
-0.0002795
0.000157307
-0.000257404
0.000172397
-0.000223645
0.000177806
-0.000179894
0.000173488
-0.000129483
0.000161767
-7.61642e-05
0.000145061
-2.17138e-05
0.00012395
3.69198e-05
9.45101e-05
9.61033e-05
6.11118e-05
0.000149171
2.85675e-05
0.000190367
1.69508e-06
0.00021772
-1.71474e-05
0.000230989
-2.66659e-05
0.000232266
-2.81686e-05
0.000226038
-2.49378e-05
0.000216226
-1.97686e-05
0.000204779
-1.44865e-05
0.000192911
-1.06142e-05
0.000181239
-9.21799e-06
0.000169908
-1.08983e-05
0.000158715
-1.57679e-05
0.000147201
-2.34629e-05
0.000134767
-3.32579e-05
0.000120817
-4.42929e-05
0.000104888
-5.58211e-05
8.67274e-05
-6.73223e-05
6.63779e-05
-7.84366e-05
-8.8572e-05
-0.00047038
-1.43954e-05
-0.000495152
3.53849e-05
-0.000515372
9.07605e-05
-0.000532523
0.000151406
-0.000546118
0.000214167
-0.000550227
0.000271158
-0.000530042
0.000308056
-0.000477605
0.000320415
-0.000402741
0.000318354
-0.000308714
0.000292831
-0.000200853
0.000251188
-9.73851e-05
0.000215805
2.79375e-05
0.000150496
0.000161467
7.80414e-05
0.000285694
-4.95546e-06
0.000385423
-7.99776e-05
0.000458484
-0.000136244
0.000497061
-0.000169895
0.000500457
-0.000181281
0.000478684
-0.000173278
0.000444468
-0.000151399
0.000405076
-0.000118726
0.000365976
-7.90047e-05
0.000330197
-3.64842e-05
0.000299072
3.00065e-06