/*--------------------------------*- C++ -*----------------------------------*\
| =========                 |                                                 |
| \\      /  F ield         | OpenFOAM: The Open Source CFD Toolbox           |
|  \\    /   O peration     | Version:  2206                                  |
|   \\  /    A nd           | Website:  www.openfoam.com                      |
|    \\/     M anipulation  |                                                 |
\*---------------------------------------------------------------------------*/
FoamFile
{
    version     2.0;
    format      ascii;
    arch        "LSB;label=32;scalar=64";
    class       volVectorField;
    location    "18.3999";
    object      ddtCorrDdt0(U);
}
// * * * * * * * * * * * * * * * * * * * * * * * * * * * * * * * * * * * * * //

dimensions      [0 1 -2 0 0 0 0];

internalField   nonuniform List<vector> 
1878
(
(-1.15646e-06 -5.04815e-05 0)
(-6.25614e-06 -0.00015044 0)
(-1.87165e-05 -0.000267565 0)
(-3.99875e-05 -0.000397538 0)
(-6.97698e-05 -0.000535861 0)
(-0.000108212 -0.000678193 0)
(-0.000156226 -0.000820599 0)
(-0.000213838 -0.000960137 0)
(-0.000280522 -0.00109409 0)
(-0.000355674 -0.00122054 0)
(-0.000439557 -0.00133776 0)
(-0.000531529 -0.00144566 0)
(-0.000630177 -0.00154429 0)
(-0.000735413 -0.0016352 0)
(-0.00084711 -0.00172069 0)
(-0.000965484 -0.00180378 0)
(-0.00108987 -0.00188852 0)
(-0.00121987 -0.00197923 0)
(-0.0013562 -0.00208049 0)
(-0.00149922 -0.00219797 0)
(-0.00164937 -0.0023366 0)
(-0.00180947 -0.00250192 0)
(-0.00198075 -0.00270033 0)
(-0.00216421 -0.00293684 0)
(-0.00236268 -0.0032172 0)
(-0.00257954 -0.00354673 0)
(-0.00281667 -0.00393049 0)
(-0.00308218 -0.00437349 0)
(-0.00336842 -0.00488054 0)
(-0.0036954 -0.00545695 0)
(-0.00405771 -0.00610676 0)
(-0.00446369 -0.00683344 0)
(-0.00491539 -0.00764325 0)
(-0.00542901 -0.00854147 0)
(-0.00599272 -0.00953276 0)
(-0.00663805 -0.0106266 0)
(-0.00734098 -0.0118275 0)
(-0.00814436 -0.0131481 0)
(-0.00902614 -0.0145956 0)
(-0.0100111 -0.0161863 0)
(-0.0111067 -0.0179319 0)
(-0.012306 -0.0198476 0)
(-0.0136606 -0.0219553 0)
(-0.0151147 -0.0242661 0)
(-0.0167668 -0.0268144 0)
(-0.0185435 -0.0296129 0)
(-0.0205334 -0.0327038 0)
(-0.0227149 -0.0361119 0)
(-0.0250987 -0.0398757 0)
(-0.0277595 -0.0440408 0)
(-0.0306262 -0.0486323 0)
(-0.0338399 -0.0537119 0)
(-0.0373054 -0.0593053 0)
(-0.0411979 -0.0655016 0)
(-0.0454094 -0.0723315 0)
(-0.050133 -0.0799023 0)
(-0.0552836 -0.0882549 0)
(-0.060959 -0.0974807 0)
(-0.0673502 -0.107713 0)
(-0.0741418 -0.118923 0)
(-0.0820794 -0.131467 0)
(-0.0904119 -0.145148 0)
(-0.0999398 -0.160373 0)
(-0.110466 -0.17719 0)
(-0.121804 -0.195513 0)
(-0.134958 -0.216115 0)
(-0.148664 -0.238149 0)
(-0.164674 -0.263509 0)
(-0.181447 -0.290783 0)
(-0.200055 -0.321077 0)
(-0.220908 -0.354615 0)
(-0.244068 -0.391899 0)
(-0.269615 -0.432877 0)
(-0.297823 -0.478064 0)
(-0.32892 -0.527952 0)
(-0.36326 -0.582942 0)
(-0.401287 -0.643584 0)
(-0.443458 -0.710475 0)
(-0.490266 -0.784269 0)
(-0.54228 -0.865701 0)
(-0.600146 -0.955635 0)
(-0.664606 -1.05504 0)
(-0.736434 -1.1651 0)
(-0.81641 -1.2871 0)
(-0.905375 -1.4224 0)
(-1.00432 -1.57238 0)
(-1.11458 -1.73855 0)
(-1.23771 -1.92274 0)
(-1.37546 -2.12727 0)
(-1.52971 -2.35489 0)
(-1.70257 -2.6088 0)
(-1.89636 -2.89264 0)
(-2.11388 -3.21121 0)
(-2.35847 -3.57081 0)
(-2.63475 -3.98011 0)
(-2.94626 -4.45415 0)
(-3.30768 -5.00928 0)
(-3.6992 -5.6931 0)
(-4.26342 -6.50918 0)
(-4.5975 -7.746 0)
(-6.82011 -9.08917 0)
(-5.98121 -12.502 0)
(-9.93716e-07 -4.6804e-05 0)
(-6.97781e-06 -0.00013996 0)
(-2.19773e-05 -0.00024765 0)
(-4.67819e-05 -0.000368839 0)
(-8.0801e-05 -0.000497442 0)
(-0.000124085 -0.00063053 0)
(-0.000178568 -0.000763566 0)
(-0.000244681 -0.000893429 0)
(-0.000321969 -0.00101767 0)
(-0.000409093 -0.00113442 0)
(-0.000506424 -0.00124282 0)
(-0.000612298 -0.0013419 0)
(-0.000726807 -0.00143208 0)
(-0.000848952 -0.0015153 0)
(-0.000978838 -0.00159379 0)
(-0.00111585 -0.00167052 0)
(-0.0012598 -0.00174883 0)
(-0.00141017 -0.00183278 0)
(-0.00156853 -0.00192714 0)
(-0.00173415 -0.00203629 0)
(-0.00190871 -0.00216545 0)
(-0.0020946 -0.0023203 0)
(-0.00229285 -0.00250544 0)
(-0.00250525 -0.00272621 0)
(-0.0027354 -0.00298812 0)
(-0.00298648 -0.0032958 0)
(-0.00326094 -0.00365425 0)
(-0.00356874 -0.00406774 0)
(-0.00389629 -0.00454111 0)
(-0.00427815 -0.00507885 0)
(-0.00469366 -0.00568321 0)
(-0.00516266 -0.00636007 0)
(-0.00568697 -0.00711287 0)
(-0.00627278 -0.00794655 0)
(-0.00693463 -0.00886851 0)
(-0.00766561 -0.00988277 0)
(-0.00849313 -0.0109985 0)
(-0.00940882 -0.0122229 0)
(-0.0104368 -0.0135675 0)
(-0.0115742 -0.0150424 0)
(-0.0128394 -0.0166641 0)
(-0.0142426 -0.0184475 0)
(-0.0157876 -0.0204082 0)
(-0.0175003 -0.0225634 0)
(-0.019376 -0.0249291 0)
(-0.0214658 -0.0275395 0)
(-0.0237491 -0.0304104 0)
(-0.0262828 -0.0335875 0)
(-0.0290676 -0.0371022 0)
(-0.0321231 -0.0409919 0)
(-0.0354795 -0.0452987 0)
(-0.0391573 -0.0500455 0)
(-0.0431988 -0.0552773 0)
(-0.0476584 -0.0610507 0)
(-0.0526012 -0.0674337 0)
(-0.0579963 -0.0744742 0)
(-0.0640207 -0.0822866 0)
(-0.0706044 -0.0908828 0)
(-0.0778654 -0.100354 0)
(-0.0860146 -0.110881 0)
(-0.0948436 -0.122446 0)
(-0.104785 -0.135296 0)
(-0.115756 -0.149461 0)
(-0.127651 -0.164953 0)
(-0.141303 -0.182355 0)
(-0.155745 -0.201066 0)
(-0.172059 -0.222077 0)
(-0.190165 -0.245571 0)
(-0.209612 -0.271068 0)
(-0.231212 -0.299404 0)
(-0.255536 -0.330865 0)
(-0.282383 -0.365194 0)
(-0.311681 -0.403237 0)
(-0.344205 -0.44537 0)
(-0.380117 -0.491831 0)
(-0.419737 -0.54294 0)
(-0.463609 -0.599256 0)
(-0.512208 -0.661338 0)
(-0.566084 -0.729791 0)
(-0.625913 -0.805244 0)
(-0.692471 -0.888465 0)
(-0.766675 -0.980282 0)
(-0.849501 -1.08188 0)
(-0.941819 -1.19449 0)
(-1.04446 -1.31929 0)
(-1.15845 -1.45742 0)
(-1.28528 -1.61025 0)
(-1.42694 -1.77923 0)
(-1.58553 -1.96639 0)
(-1.76364 -2.17443 0)
(-1.96358 -2.40625 0)
(-2.18838 -2.66493 0)
(-2.44219 -2.95429 0)
(-2.73029 -3.27939 0)
(-3.06184 -3.64738 0)
(-3.44393 -4.06949 0)
(-3.91061 -4.55779 0)
(-4.44494 -5.14219 0)
(-5.25979 -5.82608 0)
(-6.0226 -6.69161 0)
(-7.89699 -7.5378 0)
(-9.38973 -9.53497 0)
(-6.49741e-07 -4.65103e-05 0)
(-8.89095e-06 -0.000126056 0)
(-2.33827e-05 -0.000229054 0)
(-5.21554e-05 -0.000337989 0)
(-8.51065e-05 -0.000459571 0)
(-0.000139292 -0.000575399 0)
(-0.000201585 -0.000695591 0)
(-0.000276005 -0.000814186 0)
(-0.000362882 -0.00092768 0)
(-0.000461702 -0.00103391 0)
(-0.00057109 -0.00113244 0)
(-0.000690129 -0.00122227 0)
(-0.000818446 -0.00130388 0)
(-0.000955719 -0.00137858 0)
(-0.00110141 -0.00144871 0)
(-0.00125497 -0.00151741 0)
(-0.00141633 -0.00158799 0)
(-0.00158583 -0.00166418 0)
(-0.00176351 -0.00175019 0)
(-0.00195011 -0.00184994 0)
(-0.00214709 -0.0019687 0)
(-0.00235617 -0.00211127 0)
(-0.00257905 -0.00228191 0)
(-0.0028184 -0.00248599 0)
(-0.00307723 -0.00272768 0)
(-0.0033598 -0.0030114 0)
(-0.00366844 -0.00334166 0)
(-0.00401492 -0.00372284 0)
(-0.00438369 -0.00415791 0)
(-0.00480896 -0.00465067 0)
(-0.00528177 -0.00520496 0)
(-0.00579878 -0.00582371 0)
(-0.0063974 -0.00651247 0)
(-0.00704731 -0.00727234 0)
(-0.00779658 -0.00811366 0)
(-0.00861532 -0.00903711 0)
(-0.00954469 -0.0100534 0)
(-0.0105766 -0.0111678 0)
(-0.0117269 -0.0123911 0)
(-0.0130154 -0.0137344 0)
(-0.0144332 -0.0152128 0)
(-0.0160279 -0.0168443 0)
(-0.017754 -0.0186354 0)
(-0.0196948 -0.020611 0)
(-0.0217902 -0.0227729 0)
(-0.0241469 -0.0251612 0)
(-0.0267277 -0.0277889 0)
(-0.0295657 -0.0306892 0)
(-0.0327502 -0.0339264 0)
(-0.0361643 -0.037493 0)
(-0.0399984 -0.0414624 0)
(-0.0440928 -0.0458084 0)
(-0.0486424 -0.0506134 0)
(-0.0536709 -0.0559193 0)
(-0.059178 -0.0617689 0)
(-0.0653419 -0.0682491 0)
(-0.0720406 -0.0754427 0)
(-0.0794552 -0.0833847 0)
(-0.0876499 -0.0920367 0)
(-0.0967493 -0.101596 0)
(-0.106833 -0.112202 0)
(-0.117983 -0.12393 0)
(-0.130141 -0.136813 0)
(-0.14391 -0.151217 0)
(-0.158756 -0.166877 0)
(-0.17519 -0.184203 0)
(-0.193729 -0.203763 0)
(-0.213611 -0.224944 0)
(-0.23577 -0.248477 0)
(-0.260414 -0.274555 0)
(-0.287221 -0.303356 0)
(-0.316972 -0.33463 0)
(-0.350402 -0.369597 0)
(-0.387141 -0.408649 0)
(-0.427353 -0.451338 0)
(-0.471699 -0.498026 0)
(-0.520865 -0.549405 0)
(-0.575349 -0.605926 0)
(-0.635726 -0.668009 0)
(-0.70272 -0.736336 0)
(-0.777181 -0.811384 0)
(-0.860262 -0.894047 0)
(-0.953145 -0.986005 0)
(-1.0566 -1.08853 0)
(-1.17137 -1.2021 0)
(-1.29862 -1.32718 0)
(-1.43999 -1.4648 0)
(-1.5978 -1.61652 0)
(-1.77477 -1.78424 0)
(-1.97378 -1.97026 0)
(-2.19754 -2.17686 0)
(-2.44913 -2.40645 0)
(-2.73331 -2.66098 0)
(-3.05686 -2.94306 0)
(-3.43037 -3.25706 0)
(-3.86364 -3.60763 0)
(-4.3855 -4.00042 0)
(-4.99775 -4.43096 0)
(-5.81308 -4.9026 0)
(-6.73397 -5.39084 0)
(-8.03539 -5.59558 0)
(-9.74067 -6.1991 0)
(-9.4161e-07 -4.08952e-05 0)
(-1.03021e-05 -0.000111708 0)
(-2.6772e-05 -0.000205419 0)
(-5.47382e-05 -0.000306938 0)
(-9.78995e-05 -0.00040977 0)
(-0.000150536 -0.000517399 0)
(-0.000220597 -0.000622719 0)
(-0.000300922 -0.000728464 0)
(-0.00039895 -0.000828196 0)
(-0.000508728 -0.000923441 0)
(-0.000629038 -0.00101098 0)
(-0.000763898 -0.00108925 0)
(-0.000904489 -0.00116189 0)
(-0.00105395 -0.00122864 0)
(-0.00121285 -0.00129051 0)
(-0.00138121 -0.00135068 0)
(-0.00155851 -0.00141281 0)
(-0.00174471 -0.0014803 0)
(-0.00194024 -0.00155647 0)
(-0.00214592 -0.00164561 0)
(-0.00236314 -0.00175212 0)
(-0.00259368 -0.00188018 0)
(-0.00283962 -0.00203418 0)
(-0.00310341 -0.00221847 0)
(-0.0033886 -0.00243621 0)
(-0.0037 -0.0026921 0)
(-0.00404109 -0.0029904 0)
(-0.00442082 -0.00333538 0)
(-0.0048336 -0.00372954 0)
(-0.00528751 -0.00417015 0)
(-0.00582096 -0.00466776 0)
(-0.00637741 -0.00522126 0)
(-0.00704113 -0.0058393 0)
(-0.00775149 -0.00652014 0)
(-0.00856859 -0.00727106 0)
(-0.00947914 -0.00809704 0)
(-0.0104852 -0.00900107 0)
(-0.0116342 -0.00999351 0)
(-0.012884 -0.0110792 0)
(-0.0143192 -0.0122737 0)
(-0.0158671 -0.0135917 0)
(-0.0176504 -0.015064 0)
(-0.0195251 -0.0166642 0)
(-0.0216889 -0.0184391 0)
(-0.0239731 -0.0203648 0)
(-0.0265638 -0.0225032 0)
(-0.0294336 -0.0248618 0)
(-0.0325221 -0.0274376 0)
(-0.0360907 -0.0303868 0)
(-0.0398553 -0.0336813 0)
(-0.044048 -0.0373161 0)
(-0.0485762 -0.0412337 0)
(-0.0535593 -0.0455277 0)
(-0.0591024 -0.0502806 0)
(-0.0651621 -0.0555242 0)
(-0.0719435 -0.0612986 0)
(-0.0794659 -0.0677569 0)
(-0.0873603 -0.0748892 0)
(-0.0963092 -0.0828031 0)
(-0.106334 -0.0914517 0)
(-0.117509 -0.101011 0)
(-0.129697 -0.111497 0)
(-0.14328 -0.123145 0)
(-0.158249 -0.136016 0)
(-0.174468 -0.150056 0)
(-0.192957 -0.165971 0)
(-0.212787 -0.183094 0)
(-0.234811 -0.202204 0)
(-0.259262 -0.223502 0)
(-0.286181 -0.246897 0)
(-0.315649 -0.272569 0)
(-0.348786 -0.300041 0)
(-0.385975 -0.330768 0)
(-0.426381 -0.366411 0)
(-0.470147 -0.405517 0)
(-0.518708 -0.447831 0)
(-0.572673 -0.494273 0)
(-0.632246 -0.545485 0)
(-0.69822 -0.601507 0)
(-0.771292 -0.663079 0)
(-0.852461 -0.729574 0)
(-0.94385 -0.801087 0)
(-1.04679 -0.880843 0)
(-1.161 -0.971325 0)
(-1.28645 -1.07342 0)
(-1.42471 -1.18565 0)
(-1.5784 -1.30677 0)
(-1.7504 -1.43828 0)
(-1.94377 -1.58315 0)
(-2.16109 -1.74394 0)
(-2.40493 -1.92237 0)
(-2.678 -2.11965 0)
(-2.9845 -2.33612 0)
(-3.33202 -2.57225 0)
(-3.73115 -2.82953 0)
(-4.1914 -3.10699 0)
(-4.72858 -3.40208 0)
(-5.35536 -3.70012 0)
(-6.10149 -3.98417 0)
(-7.01163 -4.24094 0)
(-8.02742 -4.30503 0)
(-9.40697 -4.42919 0)
(-9.1522e-07 -3.72105e-05 0)
(-1.17112e-05 -9.65857e-05 0)
(-2.68552e-05 -0.000182668 0)
(-5.97759e-05 -0.000267999 0)
(-0.000104909 -0.000358857 0)
(-0.000162878 -0.00045203 0)
(-0.000238862 -0.000542803 0)
(-0.000324914 -0.000633388 0)
(-0.000435422 -0.000714648 0)
(-0.000552187 -0.00079917 0)
(-0.000681138 -0.000875905 0)
(-0.000821815 -0.000943829 0)
(-0.000972846 -0.00100528 0)
(-0.0011362 -0.00106055 0)
(-0.00130681 -0.00111215 0)
(-0.00148798 -0.00116249 0)
(-0.00167953 -0.0012148 0)
(-0.00188082 -0.00127249 0)
(-0.00209244 -0.00133805 0)
(-0.00231558 -0.00141596 0)
(-0.00255139 -0.00150998 0)
(-0.00280169 -0.00162407 0)
(-0.00306873 -0.00176124 0)
(-0.00335466 -0.0019262 0)
(-0.00366381 -0.00211827 0)
(-0.00400194 -0.00234437 0)
(-0.00437317 -0.00260833 0)
(-0.00478383 -0.00291619 0)
(-0.00523534 -0.00327272 0)
(-0.00574114 -0.00366086 0)
(-0.00627828 -0.00409689 0)
(-0.00690774 -0.00458142 0)
(-0.00757939 -0.00511533 0)
(-0.0083964 -0.00571411 0)
(-0.00921754 -0.00636075 0)
(-0.0102554 -0.00708875 0)
(-0.0112821 -0.00786601 0)
(-0.0125697 -0.00873471 0)
(-0.0138637 -0.0096602 0)
(-0.015462 -0.0106874 0)
(-0.0171179 -0.01181 0)
(-0.0190555 -0.0131118 0)
(-0.0211386 -0.0145659 0)
(-0.0233425 -0.0161055 0)
(-0.0260557 -0.0178534 0)
(-0.0285912 -0.0196203 0)
(-0.031948 -0.0217265 0)
(-0.0351424 -0.0238059 0)
(-0.0392156 -0.0262967 0)
(-0.0432932 -0.0292571 0)
(-0.0477595 -0.0326169 0)
(-0.0525459 -0.0361531 0)
(-0.057926 -0.0399587 0)
(-0.0640579 -0.0441615 0)
(-0.0706153 -0.0487701 0)
(-0.078129 -0.0535939 0)
(-0.0858593 -0.0602204 0)
(-0.0950767 -0.0661611 0)
(-0.105213 -0.07219 0)
(-0.11606 -0.0798933 0)
(-0.128002 -0.0882315 0)
(-0.141414 -0.0975321 0)
(-0.156038 -0.107717 0)
(-0.172038 -0.118877 0)
(-0.190249 -0.131782 0)
(-0.2097 -0.145612 0)
(-0.23127 -0.160715 0)
(-0.255416 -0.177536 0)
(-0.282062 -0.196375 0)
(-0.311281 -0.217148 0)
(-0.342087 -0.239787 0)
(-0.37948 -0.264944 0)
(-0.407704 -0.292855 0)
(-0.453947 -0.32198 0)
(-0.504888 -0.354316 0)
(-0.559557 -0.390713 0)
(-0.621858 -0.430714 0)
(-0.689659 -0.474581 0)
(-0.7663 -0.52314 0)
(-0.84519 -0.576613 0)
(-0.943154 -0.6353 0)
(-1.03214 -0.698901 0)
(-1.13539 -0.76839 0)
(-1.24929 -0.843721 0)
(-1.38838 -0.92908 0)
(-1.53777 -1.02663 0)
(-1.70066 -1.13189 0)
(-1.88301 -1.24366 0)
(-2.08857 -1.36607 0)
(-2.31912 -1.50181 0)
(-2.57637 -1.65392 0)
(-2.86273 -1.81984 0)
(-3.18284 -1.99316 0)
(-3.5449 -2.17719 0)
(-3.95757 -2.37644 0)
(-4.42731 -2.58817 0)
(-4.96088 -2.8034 0)
(-5.57215 -3.00898 0)
(-6.26566 -3.18209 0)
(-7.08303 -3.31702 0)
(-7.97528 -3.31538 0)
(-9.00707 -3.20562 0)
(-7.959e-07 -3.181e-05 0)
(-1.2662e-05 -8.20828e-05 0)
(-2.7132e-05 -0.000157698 0)
(-6.24205e-05 -0.00022922 0)
(-0.000113221 -0.000302337 0)
(-0.000171439 -0.000382146 0)
(-0.00025607 -0.00045603 0)
(-0.000341341 -0.000534604 0)
(-0.000460961 -0.000602592 0)
(-0.000595792 -0.000666697 0)
(-0.000730084 -0.000730539 0)
(-0.000874352 -0.000793687 0)
(-0.00103091 -0.000848355 0)
(-0.00120222 -0.000892896 0)
(-0.00138194 -0.000934368 0)
(-0.00157391 -0.000975119 0)
(-0.00177797 -0.00101773 0)
(-0.00199284 -0.00106562 0)
(-0.0022196 -0.00111913 0)
(-0.00245971 -0.00118286 0)
(-0.00271416 -0.00125994 0)
(-0.00298328 -0.00135469 0)
(-0.003271 -0.0014719 0)
(-0.00357805 -0.00161852 0)
(-0.00391166 -0.00178051 0)
(-0.00425753 -0.00197248 0)
(-0.00466555 -0.00218801 0)
(-0.00510622 -0.00244415 0)
(-0.00558741 -0.00275799 0)
(-0.0061371 -0.00310672 0)
(-0.00662913 -0.00347829 0)
(-0.00743775 -0.00389161 0)
(-0.0080436 -0.00433302 0)
(-0.00900604 -0.00483612 0)
(-0.00987155 -0.0053766 0)
(-0.0109308 -0.00597443 0)
(-0.0121735 -0.00664753 0)
(-0.0133117 -0.00732932 0)
(-0.0150095 -0.00815326 0)
(-0.0163154 -0.00893976 0)
(-0.0185541 -0.00997079 0)
(-0.0202956 -0.0109352 0)
(-0.0227879 -0.0121846 0)
(-0.0250043 -0.0134242 0)
(-0.0276018 -0.0148945 0)
(-0.0308613 -0.0166031 0)
(-0.0334825 -0.0182394 0)
(-0.0378501 -0.0202971 0)
(-0.0399084 -0.0224579 0)
(-0.0448805 -0.024833 0)
(-0.0505089 -0.0274728 0)
(-0.056352 -0.0304041 0)
(-0.0627598 -0.033633 0)
(-0.0697884 -0.0372029 0)
(-0.0774255 -0.0411483 0)
(-0.0856561 -0.0455181 0)
(-0.0946911 -0.0503307 0)
(-0.104738 -0.0555945 0)
(-0.115595 -0.061464 0)
(-0.127372 -0.0680274 0)
(-0.140336 -0.0751673 0)
(-0.154705 -0.0829111 0)
(-0.170607 -0.0915958 0)
(-0.188158 -0.101133 0)
(-0.207132 -0.111553 0)
(-0.23018 -0.123094 0)
(-0.253312 -0.135905 0)
(-0.279357 -0.150143 0)
(-0.307935 -0.166604 0)
(-0.339133 -0.184867 0)
(-0.373996 -0.204307 0)
(-0.413317 -0.226585 0)
(-0.454389 -0.253913 0)
(-0.499172 -0.276604 0)
(-0.550544 -0.301987 0)
(-0.607047 -0.332296 0)
(-0.669653 -0.366118 0)
(-0.733871 -0.403099 0)
(-0.809615 -0.44395 0)
(-0.892987 -0.488526 0)
(-0.985318 -0.538066 0)
(-1.08832 -0.593982 0)
(-1.2006 -0.654551 0)
(-1.32888 -0.718655 0)
(-1.44435 -0.787756 0)
(-1.62119 -0.864507 0)
(-1.79977 -0.949515 0)
(-1.99749 -1.03883 0)
(-2.22266 -1.13341 0)
(-2.47597 -1.23703 0)
(-2.75416 -1.36188 0)
(-3.04881 -1.50939 0)
(-3.36982 -1.65132 0)
(-3.73665 -1.78809 0)
(-4.15461 -1.93332 0)
(-4.62173 -2.08614 0)
(-5.1399 -2.23086 0)
(-5.71972 -2.35882 0)
(-6.36414 -2.454 0)
(-7.08008 -2.50032 0)
(-7.84764 -2.4392 0)
(-8.64797 -2.24864 0)
(-1.03823e-06 -2.75568e-05 0)
(-1.63093e-05 -6.31333e-05 0)
(-2.25617e-05 -0.000134198 0)
(-6.89832e-05 -0.000185088 0)
(-0.00010998 -0.000252228 0)
(-0.000181103 -0.000308549 0)
(-0.000266051 -0.000371932 0)
(-0.00035335 -0.000417729 0)
(-0.000481816 -0.000424366 0)
(-0.000613963 -0.000559096 0)
(-0.00076713 -0.000582453 0)
(-0.000923961 -0.000628787 0)
(-0.00107857 -0.000674269 0)
(-0.00125104 -0.000705456 0)
(-0.00143814 -0.000730815 0)
(-0.00164784 -0.00075722 0)
(-0.00186403 -0.000785609 0)
(-0.0020959 -0.000820187 0)
(-0.00233646 -0.000853346 0)
(-0.0025843 -0.000907725 0)
(-0.00285768 -0.000972575 0)
(-0.00313004 -0.00105496 0)
(-0.00344489 -0.00114988 0)
(-0.00374802 -0.00127028 0)
(-0.00410658 -0.00141237 0)
(-0.00443484 -0.00158138 0)
(-0.00492222 -0.00176726 0)
(-0.00520034 -0.00198127 0)
(-0.00577801 -0.00222143 0)
(-0.00641827 -0.00249715 0)
(-0.00710076 -0.00279434 0)
(-0.00787203 -0.00312225 0)
(-0.00871815 -0.0034869 0)
(-0.00965841 -0.00388543 0)
(-0.0106944 -0.00433214 0)
(-0.0118406 -0.00481617 0)
(-0.0130984 -0.00536558 0)
(-0.0144623 -0.00594761 0)
(-0.0161924 -0.00664791 0)
(-0.0179004 -0.00708058 0)
(-0.0197705 -0.00775394 0)
(-0.0218762 -0.00891022 0)
(-0.0241585 -0.009984 0)
(-0.0267155 -0.0109649 0)
(-0.0295166 -0.0120749 0)
(-0.0326288 -0.0133432 0)
(-0.0361064 -0.0147473 0)
(-0.0399876 -0.0163755 0)
(-0.0444066 -0.0181327 0)
(-0.0491652 -0.0198036 0)
(-0.0542432 -0.0216516 0)
(-0.0598363 -0.0238748 0)
(-0.0661057 -0.0264616 0)
(-0.0730948 -0.0293814 0)
(-0.0808323 -0.0326314 0)
(-0.0893784 -0.0362253 0)
(-0.0988561 -0.0402435 0)
(-0.109372 -0.0446227 0)
(-0.120965 -0.0493569 0)
(-0.133634 -0.0546244 0)
(-0.147497 -0.0604745 0)
(-0.163044 -0.0669308 0)
(-0.18035 -0.0740383 0)
(-0.199261 -0.0818544 0)
(-0.220004 -0.0903892 0)
(-0.242882 -0.0999229 0)
(-0.268491 -0.110324 0)
(-0.29775 -0.121826 0)
(-0.330068 -0.134752 0)
(-0.364089 -0.149025 0)
(-0.401514 -0.163876 0)
(-0.447062 -0.178999 0)
(-0.490532 -0.193266 0)
(-0.5351 -0.215749 0)
(-0.59167 -0.241049 0)
(-0.654144 -0.267551 0)
(-0.721903 -0.296275 0)
(-0.79582 -0.327335 0)
(-0.87717 -0.360519 0)
(-0.96679 -0.396452 0)
(-1.0659 -0.436098 0)
(-1.17633 -0.480089 0)
(-1.29905 -0.52762 0)
(-1.43702 -0.579593 0)
(-1.58646 -0.633576 0)
(-1.75392 -0.689013 0)
(-1.93392 -0.751291 0)
(-2.14977 -0.819393 0)
(-2.32798 -0.896018 0)
(-2.61707 -0.976366 0)
(-2.78011 -1.06407 0)
(-3.22404 -1.16227 0)
(-3.57417 -1.27003 0)
(-3.95003 -1.36934 0)
(-4.37878 -1.47445 0)
(-4.83845 -1.59436 0)
(-5.32925 -1.69491 0)
(-5.86876 -1.76465 0)
(-6.45749 -1.80159 0)
(-7.08453 -1.79292 0)
(-7.73384 -1.70932 0)
(-8.38036 -1.53099 0)
(-2.09948e-06 -1.7128e-05 0)
(-1.04349e-05 -5.80112e-05 0)
(-3.52532e-05 -9.96655e-05 0)
(-6.30311e-05 -0.000136793 0)
(-0.000117445 -0.000178849 0)
(-0.000187567 -0.000225938 0)
(-0.000282437 -0.000270954 0)
(-0.000403248 -0.000316215 0)
(-0.000491941 -0.000356153 0)
(-0.000679163 -0.000381212 0)
(-0.000696037 -0.000443541 0)
(-0.000939011 -0.000468307 0)
(-0.00115862 -0.000490528 0)
(-0.00135682 -0.000510079 0)
(-0.00156554 -0.000530522 0)
(-0.0017819 -0.000534453 0)
(-0.00200274 -0.000555523 0)
(-0.0022313 -0.00058226 0)
(-0.00246693 -0.000614584 0)
(-0.00272211 -0.000652123 0)
(-0.00297403 -0.00069916 0)
(-0.00324972 -0.000760492 0)
(-0.00354787 -0.000818807 0)
(-0.00387346 -0.000987236 0)
(-0.00423125 -0.00103416 0)
(-0.00462721 -0.00116607 0)
(-0.00506988 -0.00132216 0)
(-0.00556924 -0.00152963 0)
(-0.00611551 -0.00165806 0)
(-0.00671464 -0.00180085 0)
(-0.00738965 -0.0020083 0)
(-0.00815637 -0.00225217 0)
(-0.00902082 -0.00252356 0)
(-0.00999096 -0.00282123 0)
(-0.0110774 -0.00315182 0)
(-0.0122917 -0.00350167 0)
(-0.0136518 -0.00397878 0)
(-0.015158 -0.00408491 0)
(-0.0168506 -0.0044683 0)
(-0.018732 -0.00504422 0)
(-0.020766 -0.00571132 0)
(-0.0230015 -0.00640082 0)
(-0.0255167 -0.00714806 0)
(-0.0283244 -0.00797194 0)
(-0.0314163 -0.00886389 0)
(-0.0348294 -0.00983482 0)
(-0.038604 -0.0108924 0)
(-0.0427824 -0.0120568 0)
(-0.0474208 -0.0132894 0)
(-0.0525643 -0.0145997 0)
(-0.0581923 -0.0160669 0)
(-0.0643537 -0.0177693 0)
(-0.0711445 -0.0197098 0)
(-0.0786523 -0.0218816 0)
(-0.0869571 -0.024269 0)
(-0.0961445 -0.0268974 0)
(-0.106324 -0.0297791 0)
(-0.117611 -0.032908 0)
(-0.130111 -0.0363115 0)
(-0.143944 -0.0408377 0)
(-0.159256 -0.0450051 0)
(-0.176198 -0.0479878 0)
(-0.194927 -0.0538256 0)
(-0.21562 -0.0595178 0)
(-0.238494 -0.0655863 0)
(-0.263245 -0.0721118 0)
(-0.292159 -0.0789859 0)
(-0.317973 -0.0851904 0)
(-0.356488 -0.101103 0)
(-0.394842 -0.113084 0)
(-0.436981 -0.122541 0)
(-0.478357 -0.133584 0)
(-0.5325 -0.142639 0)
(-0.59373 -0.160393 0)
(-0.654864 -0.179746 0)
(-0.721912 -0.199447 0)
(-0.796576 -0.220851 0)
(-0.878971 -0.243854 0)
(-0.969961 -0.268217 0)
(-1.07051 -0.294418 0)
(-1.18158 -0.322855 0)
(-1.30452 -0.353847 0)
(-1.44079 -0.387329 0)
(-1.59117 -0.423398 0)
(-1.75715 -0.461285 0)
(-1.93723 -0.501831 0)
(-2.13354 -0.547504 0)
(-2.35149 -0.602828 0)
(-2.57309 -0.661254 0)
(-2.82925 -0.723998 0)
(-3.08855 -0.777932 0)
(-3.38557 -0.821559 0)
(-3.70709 -0.885331 0)
(-4.13101 -0.957594 0)
(-4.38931 -1.02404 0)
(-4.97276 -1.09069 0)
(-5.46899 -1.1522 0)
(-5.98193 -1.19846 0)
(-6.52796 -1.21506 0)
(-7.09161 -1.19059 0)
(-7.65395 -1.11131 0)
(-8.19663 -0.965158 0)
(1.65551e-06 -1.89254e-05 0)
(-2.09159e-05 -2.53863e-05 0)
(-2.02069e-05 -9.07974e-05 0)
(-0.000104611 -9.22248e-05 0)
(-0.000166377 -0.000118149 0)
(-0.000246203 -0.000146168 0)
(-0.000342139 -0.000159513 0)
(-0.000450744 -0.00019687 0)
(-0.000573755 -0.00021094 0)
(-0.000715812 -0.000244143 0)
(-0.000879142 -0.000266673 0)
(-0.00105229 -0.000264978 0)
(-0.00122528 -0.000270538 0)
(-0.00140845 -0.000285053 0)
(-0.00160792 -0.000300329 0)
(-0.00181812 -0.000314729 0)
(-0.00203625 -0.000329538 0)
(-0.00226399 -0.000346128 0)
(-0.00250452 -0.000364788 0)
(-0.00275996 -0.000390238 0)
(-0.00303444 -0.000423659 0)
(-0.00333109 -0.000463818 0)
(-0.00364905 -0.000511761 0)
(-0.00400345 -0.000569999 0)
(-0.00439928 -0.000640695 0)
(-0.00483193 -0.000728001 0)
(-0.00531029 -0.000816651 0)
(-0.00584955 -0.000912571 0)
(-0.00645628 -0.00101281 0)
(-0.00712523 -0.00112955 0)
(-0.0078669 -0.00126551 0)
(-0.00869691 -0.00141529 0)
(-0.00962979 -0.00157754 0)
(-0.0106749 -0.00175362 0)
(-0.011847 -0.00194613 0)
(-0.0131531 -0.00215773 0)
(-0.0146358 -0.00239947 0)
(-0.0162704 -0.00264662 0)
(-0.01804 -0.00293301 0)
(-0.0199722 -0.00323647 0)
(-0.0221099 -0.0035665 0)
(-0.0245014 -0.00395591 0)
(-0.0271835 -0.00439755 0)
(-0.030182 -0.00486852 0)
(-0.0334329 -0.00537824 0)
(-0.0371258 -0.00593033 0)
(-0.0411162 -0.00654398 0)
(-0.045723 -0.00725216 0)
(-0.0505338 -0.00783334 0)
(-0.0561667 -0.0086486 0)
(-0.0620692 -0.009619 0)
(-0.0687933 -0.0107002 0)
(-0.0760665 -0.011935 0)
(-0.084113 -0.0133124 0)
(-0.0932928 -0.0148016 0)
(-0.102961 -0.0164938 0)
(-0.11444 -0.0182678 0)
(-0.126292 -0.0203047 0)
(-0.140175 -0.022428 0)
(-0.155241 -0.0248331 0)
(-0.17202 -0.027512 0)
(-0.190736 -0.030491 0)
(-0.210714 -0.0337788 0)
(-0.233567 -0.0374189 0)
(-0.258161 -0.0415556 0)
(-0.286657 -0.0460173 0)
(-0.315356 -0.0518992 0)
(-0.349527 -0.0570963 0)
(-0.381288 -0.0629547 0)
(-0.419832 -0.0692658 0)
(-0.470155 -0.0741062 0)
(-0.514437 -0.0852021 0)
(-0.575461 -0.0999564 0)
(-0.648695 -0.0984395 0)
(-0.711875 -0.111208 0)
(-0.787772 -0.123355 0)
(-0.872696 -0.136168 0)
(-0.965233 -0.149985 0)
(-1.06614 -0.164885 0)
(-1.17658 -0.180811 0)
(-1.29714 -0.198025 0)
(-1.42936 -0.216767 0)
(-1.57469 -0.236929 0)
(-1.73412 -0.258383 0)
(-1.90877 -0.281232 0)
(-2.09874 -0.306116 0)
(-2.30801 -0.334251 0)
(-2.53696 -0.368764 0)
(-2.79036 -0.406359 0)
(-3.06528 -0.444047 0)
(-3.36665 -0.476808 0)
(-3.67971 -0.504741 0)
(-3.9987 -0.542411 0)
(-4.36941 -0.597078 0)
(-4.70517 -0.628256 0)
(-5.12042 -0.630579 0)
(-5.57289 -0.644247 0)
(-6.04885 -0.66306 0)
(-6.54995 -0.666758 0)
(-7.05431 -0.64392 0)
(-7.54107 -0.587229 0)
(-7.98353 -0.490561 0)
(-4.88788e-06 -3.95633e-06 0)
(-2.00418e-05 -1.31454e-05 0)
(-5.33083e-05 -1.611e-05 0)
(-0.000105681 -2.39607e-05 0)
(-0.000169912 -3.33049e-05 0)
(-0.000252218 -4.35645e-05 0)
(-0.000352909 -5.51035e-05 0)
(-0.000472772 -6.56136e-05 0)
(-0.000611361 -7.57956e-05 0)
(-0.000766422 -8.75416e-05 0)
(-0.000938329 -9.64935e-05 0)
(-0.00112127 -9.78736e-05 0)
(-0.00130715 -9.95864e-05 0)
(-0.001497 -0.000103392 0)
(-0.00169424 -0.000106477 0)
(-0.00189867 -0.000106266 0)
(-0.00210853 -0.000105171 0)
(-0.00232545 -0.000105015 0)
(-0.00255167 -0.000107017 0)
(-0.00279109 -0.000113784 0)
(-0.00304827 -0.000125001 0)
(-0.0033297 -0.000140072 0)
(-0.00364019 -0.000159068 0)
(-0.00399214 -0.000188803 0)
(-0.00438989 -0.00021942 0)
(-0.00484105 -0.00025298 0)
(-0.0053451 -0.000294458 0)
(-0.00594662 -0.000340645 0)
(-0.0065918 -0.000380409 0)
(-0.00731441 -0.000414935 0)
(-0.00810882 -0.000453615 0)
(-0.00899997 -0.000497383 0)
(-0.00998348 -0.000547747 0)
(-0.0110893 -0.000603485 0)
(-0.0123049 -0.000666475 0)
(-0.0136517 -0.000735861 0)
(-0.0151551 -0.000816288 0)
(-0.0167788 -0.000870493 0)
(-0.0185299 -0.000929557 0)
(-0.0204662 -0.00102436 0)
(-0.0226432 -0.00117396 0)
(-0.0250836 -0.00137053 0)
(-0.027839 -0.00157643 0)
(-0.0308992 -0.00178016 0)
(-0.0343225 -0.00196859 0)
(-0.0380711 -0.00216257 0)
(-0.042204 -0.00237201 0)
(-0.0468072 -0.00262287 0)
(-0.0518052 -0.00291043 0)
(-0.057327 -0.00320736 0)
(-0.0633854 -0.00352941 0)
(-0.0701245 -0.00390596 0)
(-0.0776246 -0.00436688 0)
(-0.0859671 -0.00485902 0)
(-0.0953153 -0.00541491 0)
(-0.105598 -0.00598136 0)
(-0.117135 -0.00661534 0)
(-0.129779 -0.00730456 0)
(-0.143799 -0.00782429 0)
(-0.159319 -0.00883673 0)
(-0.176376 -0.00976332 0)
(-0.195332 -0.0106979 0)
(-0.216086 -0.0118034 0)
(-0.238802 -0.0130496 0)
(-0.264826 -0.0143147 0)
(-0.292159 -0.0160215 0)
(-0.323251 -0.0170048 0)
(-0.361782 -0.0237033 0)
(-0.398626 -0.0271711 0)
(-0.44272 -0.0268812 0)
(-0.490981 -0.0304476 0)
(-0.541745 -0.0271516 0)
(-0.598164 -0.0280663 0)
(-0.658331 -0.0328439 0)
(-0.726665 -0.0401456 0)
(-0.8017 -0.0405754 0)
(-0.885192 -0.0479801 0)
(-0.97793 -0.0545263 0)
(-1.08033 -0.0601364 0)
(-1.19379 -0.068545 0)
(-1.31822 -0.0734784 0)
(-1.45395 -0.0784312 0)
(-1.60173 -0.0840838 0)
(-1.76255 -0.0905475 0)
(-1.93748 -0.0978518 0)
(-2.12746 -0.105961 0)
(-2.33398 -0.115426 0)
(-2.56013 -0.127329 0)
(-2.80968 -0.140053 0)
(-3.08378 -0.151428 0)
(-3.38078 -0.161799 0)
(-3.70741 -0.172763 0)
(-4.0203 -0.191717 0)
(-4.46328 -0.218482 0)
(-4.84827 -0.223808 0)
(-5.24984 -0.20763 0)
(-5.66395 -0.197885 0)
(-6.08012 -0.195179 0)
(-6.49922 -0.188016 0)
(-6.9112 -0.172168 0)
(-7.29655 -0.146066 0)
(-7.62981 -0.107131 0)
(-9.37716 -9.82437 0)
(-4.40046 -5.32274 0)
(1.62062 -1.75047 0)
(1.48924 0.0767808 0)
(1.74629 0.788674 0)
(2.25688 1.98628 0)
(0.638619 4.52419 0)
(-2.27521 6.83817 0)
(-9.68133 7.23084 0)
(-14.3609 4.93179 0)
(-19.7161 3.19147 0)
(-23.8884 1.05609 0)
(-25.6892 -1.54925 0)
(-24.9726 -3.67128 0)
(-21.842 -4.86101 0)
(-16.9155 -5.47879 0)
(-10.6028 -5.37515 0)
(-4.00233 -4.39018 0)
(3.05359 -1.64003 0)
(7.45231 2.39641 0)
(7.74731 5.28841 0)
(5.17 5.68487 0)
(0.15613 4.95687 0)
(-7.20692 3.20687 0)
(-13.2422 1.83803 0)
(-17.9204 0.419014 0)
(-20.9177 -1.02774 0)
(-21.6791 -2.09679 0)
(-20.2402 -3.01905 0)
(-16.2753 -4.56476 0)
(-12.4771 -7.90957 0)
(-11.1348 -7.14677 0)
(-10.979 -4.42133 0)
(-9.90889 -2.08353 0)
(-10.4699 -0.836126 0)
(-11.784 0.405724 0)
(-15.5483 0.724844 0)
(-18.2898 1.4389 0)
(-23.7 1.86646 0)
(-19.482 4.59234 0)
(-19.918 6.14887 0)
(-19.3887 4.94513 0)
(-16.0427 1.65807 0)
(-11.2724 -1.68107 0)
(-8.43382 -4.08856 0)
(-6.02343 -5.07648 0)
(-3.44827 -6.08352 0)
(-1.66425 -7.06003 0)
(-0.0442306 -8.24905 0)
(-1.36305 -7.77875 0)
(-5.74544 -5.42169 0)
(-6.54009 -0.493204 0)
(-7.38849 5.27967 0)
(-10.023 9.71927 0)
(-11.835 10.917 0)
(-13.0925 9.28308 0)
(-14.4297 6.69771 0)
(-14.9515 3.24733 0)
(-14.9745 -0.389147 0)
(-14.3747 -3.67399 0)
(-13.1642 -6.94987 0)
(-12.6659 -10.9998 0)
(-11.7548 -5.28161 0)
(-13.1006 -3.65433 0)
(-13.5655 -1.65741 0)
(-13.746 0.382324 0)
(-14.0275 2.39959 0)
(-14.3067 4.32318 0)
(-14.6701 5.9919 0)
(-15.0588 6.57132 0)
(-14.6653 6.57434 0)
(-14.8483 4.3904 0)
(-13.5774 2.39694 0)
(-12.0685 -0.394115 0)
(-10.9947 -3.50494 0)
(-10.4853 -5.97412 0)
(-9.85652 -7.70483 0)
(-9.40119 -8.74105 0)
(-9.05878 -8.66706 0)
(-9.12047 -7.72569 0)
(-9.61943 -5.79427 0)
(-10.1583 -1.01613 0)
(-10.0533 3.51016 0)
(-9.51583 6.5313 0)
(-9.10217 9.01328 0)
(-6.73003 8.41019 0)
(-5.44541 7.01333 0)
(-4.3664 6.52882 0)
(-4.33408 2.04293 0)
(-4.62782 -1.1712 0)
(-5.70498 -3.21503 0)
(-7.34062 -5.5978 0)
(-9.87191 -8.21381 0)
(-11.0038 -4.04026 0)
(-12.518 -2.73021 0)
(-13.0414 -1.33002 0)
(-13.202 0.516125 0)
(-12.8385 2.35605 0)
(-12.1237 4.02985 0)
(-11.1312 5.25232 0)
(-9.93498 5.61744 0)
(-8.7452 5.00206 0)
(-7.55747 3.74768 0)
(-6.50671 1.83439 0)
(-5.91638 -1.04533 0)
(-5.95069 -3.76668 0)
(-6.73205 -5.7226 0)
(-7.89339 -6.70039 0)
(-9.57669 -7.62968 0)
(-10.7435 -7.35248 0)
(-12.1538 -6.09625 0)
(-13.5827 -4.06305 0)
(-14.5865 -1.35311 0)
(-14.4546 1.45211 0)
(-13.1715 3.87276 0)
(-11.1272 5.58447 0)
(-8.7512 6.41838 0)
(-7.0506 5.64204 0)
(-5.97942 4.11473 0)
(-5.1887 2.52302 0)
(-5.52658 0.61105 0)
(-7.2373 -1.73543 0)
(-9.10695 -3.79503 0)
(-11.7026 -5.17759 0)
(-10.0608 -2.78538 0)
(-11.1146 -1.83808 0)
(-11.5444 -0.733128 0)
(-11.8081 0.556426 0)
(-11.4581 1.76347 0)
(-10.8868 2.88535 0)
(-9.62568 3.49487 0)
(-8.95222 3.63519 0)
(-6.64819 3.33986 0)
(-5.62239 2.22435 0)