/*--------------------------------*- C++ -*----------------------------------*\
| =========                 |                                                 |
| \\      /  F ield         | OpenFOAM: The Open Source CFD Toolbox           |
|  \\    /   O peration     | Version:  2206                                  |
|   \\  /    A nd           | Website:  www.openfoam.com                      |
|    \\/     M anipulation  |                                                 |
\*---------------------------------------------------------------------------*/
FoamFile
{
    version     2.0;
    format      ascii;
    arch        "LSB;label=32;scalar=64";
    class       volVectorField;
    location    "18.3";
    object      U;
}
// * * * * * * * * * * * * * * * * * * * * * * * * * * * * * * * * * * * * * //

dimensions      [0 1 -1 0 0 0 0];

internalField   nonuniform List<vector> 
1826
(
(2.10497 -0.0909421 0)
(2.0265 -0.0843454 0)
(1.95737 -0.0870525 0)
(1.89812 -0.096273 0)
(1.84805 -0.107983 0)
(1.80587 -0.118034 0)
(1.77022 -0.122987 0)
(1.74011 -0.12034 0)
(1.7154 -0.108509 0)
(1.69689 -0.08743 0)
(1.68487 -0.0580679 0)
(1.6797 -0.0222124 0)
(1.68178 0.0176874 0)
(1.69123 0.0589007 0)
(1.70764 0.0985916 0)
(1.73032 0.134363 0)
(1.75854 0.16448 0)
(1.79152 0.187576 0)
(1.82834 0.202722 0)
(1.86802 0.209508 0)
(1.90984 0.207946 0)
(1.95321 0.198168 0)
(1.99772 0.180405 0)
(2.04286 0.155068 0)
(2.08766 0.123153 0)
(2.12969 0.0869393 0)
(2.1661 0.0491987 0)
(2.19442 0.0123639 0)
(2.21295 -0.0213864 0)
(2.22091 -0.0507315 0)
(2.21701 -0.0751667 0)
(2.19999 -0.0924081 0)
(2.17084 -0.10154 0)
(2.13198 -0.104273 0)
(2.08728 -0.102967 0)
(2.04091 -0.100056 0)
(1.9961 -0.0974501 0)
(1.95432 -0.0959649 0)
(1.91645 -0.0953762 0)
(1.88278 -0.0948258 0)
(1.85328 -0.0931873 0)
(1.82779 -0.0893069 0)
(1.80617 -0.0821544 0)
(1.78851 -0.0709577 0)
(1.77515 -0.0554422 0)
(1.76633 -0.0358686 0)
(1.76207 -0.0128266 0)
(1.76242 0.0125606 0)
(1.7673 0.0387572 0)
(1.77635 0.0639853 0)
(1.78909 0.086828 0)
(1.80505 0.106247 0)
(1.82378 0.121448 0)
(1.84484 0.131874 0)
(1.86769 0.137222 0)
(1.89185 0.137466 0)
(1.91697 0.132653 0)
(1.9427 0.122876 0)
(1.96868 0.108361 0)
(1.99439 0.0896035 0)
(2.01875 0.0676991 0)
(2.0402 0.0443423 0)
(2.05749 0.0208914 0)
(2.06959 -0.00155893 0)
(2.07597 -0.022244 0)
(2.07645 -0.0406317 0)
(2.07082 -0.0562044 0)
(2.05924 -0.0681125 0)
(2.04245 -0.0763709 0)
(2.02158 -0.0816139 0)
(1.99803 -0.0844576 0)
(1.97313 -0.0854189 0)
(1.94812 -0.0848465 0)
(1.92383 -0.0828293 0)
(1.90086 -0.0792047 0)
(1.87973 -0.0737119 0)
(1.86084 -0.0661107 0)
(1.84456 -0.0562128 0)
(1.8312 -0.0438789 0)
(1.8211 -0.02917 0)
(1.81449 -0.0124597 0)
(1.81145 0.00568128 0)
(1.81192 0.0243408 0)
(1.81565 0.042385 0)
(1.82225 0.0588797 0)
(1.83131 0.0730473 0)
(1.84243 0.0843084 0)
(1.85524 0.0922635 0)
(1.86934 0.0966854 0)
(1.8843 0.0975438 0)
(1.89982 0.094932 0)
(1.9156 0.0889704 0)
(1.93134 0.0798744 0)
(1.94676 0.0679546 0)
(1.9615 0.053652 0)
(1.97499 0.0377072 0)
(1.98651 0.0210394 0)
(1.99553 0.00439833 0)
(2.00165 -0.0115375 0)
(2.00464 -0.0262473 0)
(2.00447 -0.0393341 0)
(2.00122 -0.0504849 0)
(1.99493 -0.0593913 0)
(1.98591 -0.0657395 0)
(1.97465 -0.0696263 0)
(1.9617 -0.0713075 0)
(1.94768 -0.0709894 0)
(1.93316 -0.0688294 0)
(1.91863 -0.0649264 0)
(1.90458 -0.0593553 0)
(1.89144 -0.0522009 0)
(1.87955 -0.0435344 0)
(1.86923 -0.0334362 0)
(1.86077 -0.022056 0)
(1.85441 -0.00963074 0)
(1.85036 0.00347288 0)
(1.84869 0.016745 0)
(1.84931 0.0296022 0)
(1.85205 0.0414519 0)
(1.85663 0.0517581 0)
(1.86275 0.0601008 0)
(1.87012 0.0661896 0)
(1.90142 -0.0150833 0)
(1.84951 -0.0184157 0)
(1.8043 -0.0307947 0)
(1.76484 -0.0484145 0)
(1.72932 -0.0667973 0)
(1.69623 -0.0820037 0)
(1.66491 -0.0912112 0)
(1.63563 -0.0927214 0)
(1.60939 -0.0857986 0)
(1.58774 -0.0705561 0)
(1.57219 -0.0479599 0)
(1.56362 -0.0195452 0)
(1.56268 0.0126981 0)
(1.56969 0.0462138 0)
(1.58448 0.0785563 0)
(1.60659 0.107654 0)
(1.63538 0.131857 0)
(1.67012 0.149994 0)
(1.71003 0.16131 0)
(1.75435 0.165269 0)
(1.80233 0.161441 0)
(1.8531 0.149588 0)
(1.90532 0.130034 0)
(1.95626 0.104506 0)
(2.00257 0.0755412 0)
(2.04093 0.0458915 0)
(2.06889 0.0177354 0)
(2.08534 -0.00741952 0)
(2.09004 -0.0289637 0)
(2.08195 -0.045974 0)
(2.06204 -0.0561268 0)
(2.03266 -0.0604589 0)
(1.997 -0.0609229 0)
(1.95845 -0.0594447 0)
(1.91994 -0.0577372 0)
(1.88298 -0.0569786 0)
(1.84824 -0.0576532 0)
(1.81586 -0.0596804 0)
(1.78567 -0.0625217 0)
(1.75747 -0.0652254 0)
(1.73114 -0.0666504 0)
(1.70672 -0.0657479 0)
(1.6845 -0.0617318 0)
(1.66499 -0.0541292 0)
(1.64883 -0.0427266 0)
(1.63677 -0.0276074 0)
(1.62945 -0.00937245 0)
(1.62714 0.0110718 0)
(1.62994 0.0324244 0)
(1.63771 0.0532154 0)
(1.65011 0.0721146 0)
(1.66666 0.0880388 0)
(1.68685 0.100199 0)
(1.71019 0.10811 0)
(1.73616 0.111507 0)
(1.76427 0.110227 0)
(1.79395 0.104197 0)
(1.8245 0.0935648 0)
(1.85482 0.0789293 0)
(1.88321 0.0615475 0)
(1.90815 0.0428296 0)
(1.92833 0.0241031 0)
(1.94285 0.00642191 0)
(1.95131 -0.00962455 0)
(1.95378 -0.0238559 0)
(1.95032 -0.0359612 0)
(1.94127 -0.0451815 0)
(1.92742 -0.0516634 0)
(1.90977 -0.0559627 0)
(1.88941 -0.0585697 0)
(1.86727 -0.059943 0)
(1.84413 -0.0604381 0)
(1.82062 -0.0601822 0)
(1.79737 -0.0590386 0)
(1.77484 -0.0567266 0)
(1.75349 -0.0529584 0)
(1.73379 -0.0474778 0)
(1.71621 -0.0400966 0)
(1.7012 -0.0307402 0)
(1.68921 -0.0194434 0)
(1.68066 -0.00638112 0)
(1.67585 0.00801015 0)
(1.67482 0.0229857 0)
(1.67742 0.0376522 0)
(1.6834 0.0511566 0)
(1.69245 0.0627411 0)
(1.70416 0.071777 0)
(1.71807 0.0778883 0)
(1.73378 0.0809142 0)
(1.75085 0.0808031 0)
(1.76888 0.0775615 0)
(1.78744 0.0712806 0)
(1.80604 0.0621903 0)
(1.82405 0.0507518 0)
(1.84063 0.0377266 0)
(1.85506 0.0238673 0)
(1.86673 0.00989214 0)
(1.87521 -0.00356195 0)
(1.88027 -0.0160294 0)
(1.88192 -0.0272253 0)
(1.88023 -0.0369254 0)
(1.87532 -0.0448151 0)
(1.86752 -0.0505997 0)
(1.85727 -0.054427 0)
(1.84512 -0.0564815 0)
(1.8316 -0.0569219 0)
(1.81721 -0.0559026 0)
(1.80239 -0.0535394 0)
(1.78754 -0.0498853 0)
(1.7731 -0.0449783 0)
(1.75943 -0.0388561 0)
(1.7469 -0.0315696 0)
(1.73586 -0.0231931 0)
(1.72663 -0.0138407 0)
(1.71951 -0.00369246 0)
(1.71474 0.00697451 0)
(1.71241 0.0177784 0)
(1.71251 0.0282602 0)
(1.71493 0.0379291 0)
(1.71951 0.0463261 0)
(1.72604 0.0530398 0)
(1.73421 0.0577392 0)
(1.71782 0.0223704 0)
(1.69752 0.0149475 0)
(1.67935 -0.000956782 0)
(1.66037 -0.0198424 0)
(1.6388 -0.0378355 0)
(1.61417 -0.0521193 0)
(1.58709 -0.0609361 0)
(1.55898 -0.0634254 0)
(1.53185 -0.0593831 0)
(1.50784 -0.0490587 0)
(1.48905 -0.0329489 0)
(1.47742 -0.0120537 0)
(1.47411 0.0119519 0)
(1.47936 0.0370888 0)
(1.49322 0.0613103 0)
(1.51538 0.08277 0)
(1.5452 0.0999417 0)
(1.58183 0.111595 0)
(1.62421 0.116787 0)
(1.6711 0.115028 0)
(1.7208 0.10651 0)
(1.77055 0.0923306 0)
(1.81678 0.0744946 0)
(1.85646 0.0551092 0)
(1.88702 0.0361443 0)
(1.90719 0.0189382 0)
(1.91703 0.00394775 0)
(1.91688 -0.00891976 0)
(1.90717 -0.0180026 0)
(1.88979 -0.0230318 0)
(1.86697 -0.0252766 0)
(1.84132 -0.025835 0)
(1.81489 -0.0255468 0)
(1.78893 -0.0251889 0)
(1.76382 -0.0253957 0)
(1.7396 -0.0265707 0)
(1.716 -0.028864 0)
(1.69265 -0.032109 0)
(1.66921 -0.0358071 0)
(1.64547 -0.039214 0)
(1.62167 -0.0414634 0)
(1.59825 -0.0417735 0)
(1.57587 -0.0395839 0)
(1.55538 -0.0345918 0)
(1.53768 -0.0267283 0)
(1.52368 -0.0160765 0)
(1.51425 -0.00286891 0)
(1.51006 0.0122503 0)
(1.51139 0.028119 0)
(1.51823 0.043541 0)
(1.5304 0.0574187 0)
(1.54747 0.068826 0)
(1.56884 0.0770343 0)
(1.59381 0.0815279 0)
(1.62156 0.082001 0)
(1.65122 0.0784052 0)
(1.68172 0.0710435 0)
(1.71149 0.0606939 0)
(1.73902 0.0483569 0)
(1.763 0.0350147 0)
(1.78243 0.0215936 0)
(1.79675 0.00891148 0)
(1.80583 -0.00250619 0)
(1.80991 -0.0125478 0)
(1.80924 -0.0212287 0)
(1.80412 -0.0280127 0)
(1.79512 -0.0327719 0)
(1.78285 -0.0358451 0)
(1.76794 -0.0375545 0)
(1.75091 -0.0382527 0)
(1.73221 -0.0382778 0)
(1.71223 -0.0378885 0)
(1.69136 -0.0371995 0)
(1.67001 -0.0361219 0)
(1.64878 -0.0344223 0)
(1.62821 -0.031821 0)
(1.60885 -0.0280544 0)
(1.59125 -0.0229033 0)
(1.57593 -0.0162656 0)
(1.56341 -0.00816908 0)
(1.55412 0.00124755 0)
(1.54845 0.0117369 0)
(1.5466 0.0228281 0)
(1.54859 0.0337373 0)
(1.55427 0.0436488 0)
(1.56339 0.0519652 0)
(1.57556 0.0582117 0)
(1.59027 0.0620427 0)
(1.60699 0.0632481 0)
(1.62515 0.0617452 0)
(1.64417 0.0575914 0)
(1.66338 0.0510207 0)
(1.68191 0.0425064 0)
(1.69895 0.0326192 0)
(1.7138 0.0219298 0)
(1.72592 0.0110186 0)
(1.73497 0.000427707 0)
(1.74081 -0.00944026 0)
(1.7435 -0.0183602 0)
(1.74316 -0.0261883 0)
(1.73994 -0.0326888 0)
(1.73417 -0.0375755 0)
(1.72617 -0.0409206 0)
(1.71634 -0.0428331 0)
(1.70507 -0.0434266 0)
(1.69271 -0.042835 0)
(1.67957 -0.0411822 0)
(1.66597 -0.0385598 0)
(1.65221 -0.0350269 0)
(1.63868 -0.0306401 0)
(1.62577 -0.0254398 0)
(1.61384 -0.0194533 0)
(1.60328 -0.0127302 0)
(1.59442 -0.00534838 0)
(1.58757 0.0025478 0)
(1.58297 0.0107615 0)
(1.58078 0.0190448 0)
(1.58103 0.0270545 0)
(1.5837 0.0343588 0)
(1.58863 0.0404998 0)
(1.59561 0.0451856 0)
(1.60431 0.0482276 0)
(1.58733 0.0306518 0)
(1.5862 0.0210751 0)
(1.5833 0.00763348 0)
(1.57596 -0.00667658 0)
(1.56343 -0.0195967 0)
(1.5461 -0.0294556 0)
(1.52492 -0.0353002 0)
(1.50129 -0.0368273 0)
(1.47715 -0.0341162 0)
(1.45484 -0.0275389 0)
(1.43634 -0.017536 0)
(1.42349 -0.00465903 0)
(1.41782 0.0104275 0)
(1.4203 0.0262851 0)
(1.43099 0.0412157 0)
(1.44949 0.0538468 0)
(1.47485 0.0630966 0)
(1.50566 0.0682851 0)
(1.54003 0.0691888 0)
(1.57554 0.0661 0)
(1.60939 0.0599145 0)
(1.6395 0.0517406 0)
(1.66423 0.0425503 0)
(1.68272 0.0331126 0)
(1.6949 0.0239887 0)
(1.70123 0.0155513 0)
(1.70229 0.00798432 0)
(1.69864 0.00189985 0)
(1.69142 -0.00227956 0)
(1.68168 -0.00474448 0)
(1.6703 -0.00649866 0)
(1.6579 -0.00734317 0)
(1.64485 -0.00751423 0)
(1.63131 -0.00748458 0)
(1.61727 -0.00769262 0)
(1.60257 -0.00848424 0)
(1.58696 -0.00998509 0)
(1.57015 -0.0120915 0)
(1.55202 -0.0145082 0)
(1.53262 -0.0168122 0)
(1.51232 -0.0185013 0)
(1.49178 -0.0190413 0)
(1.47183 -0.0179999 0)
(1.45331 -0.0151243 0)
(1.43711 -0.0103361 0)
(1.42408 -0.0037445 0)
(1.41497 0.00443877 0)
(1.41043 0.0139635 0)
(1.41101 0.0240931 0)
(1.41678 0.0337439 0)
(1.42751 0.042137 0)
(1.44274 0.0486043 0)
(1.46175 0.0526473 0)
(1.48362 0.0539832 0)
(1.5073 0.052558 0)
(1.53157 0.0485646 0)
(1.55507 0.0424706 0)
(1.57677 0.0348312 0)
(1.59586 0.0261991 0)
(1.61175 0.0171586 0)
(1.62413 0.00828915 0)
(1.63291 8.74497e-05 0)
(1.63822 -0.00710226 0)
(1.64031 -0.0131793 0)
(1.63926 -0.0181539 0)
(1.63521 -0.0216046 0)
(1.62845 -0.0234582 0)
(1.61929 -0.0239442 0)
(1.60804 -0.0233774 0)
(1.59499 -0.022113 0)
(1.58044 -0.0204938 0)
(1.56468 -0.0188061 0)
(1.54801 -0.017215 0)
(1.53073 -0.0157172 0)
(1.51327 -0.0141607 0)
(1.49615 -0.0122859 0)
(1.47985 -0.00981311 0)
(1.46489 -0.00652711 0)
(1.45177 -0.0023006 0)
(1.441 0.00287327 0)
(1.43299 0.00890715 0)
(1.42807 0.0156594 0)
(1.42652 0.0228583 0)
(1.42852 0.0298505 0)
(1.43395 0.0360103 0)
(1.44252 0.0409173 0)
(1.45382 0.0442121 0)
(1.46729 0.0456468 0)
(1.48233 0.0451072 0)
(1.49822 0.0426107 0)
(1.51421 0.038325 0)
(1.52947 0.032577 0)
(1.5434 0.025717 0)
(1.55552 0.0181147 0)
(1.56547 0.0101698 0)
(1.57307 0.0022672 0)
(1.57827 -0.00526688 0)
(1.58114 -0.0121911 0)
(1.5818 -0.0183503 0)
(1.58037 -0.0236147 0)
(1.57702 -0.0277685 0)
(1.572 -0.0306835 0)
(1.56552 -0.0323767 0)
(1.55779 -0.0329078 0)
(1.54901 -0.0323793 0)
(1.53938 -0.0309127 0)
(1.52911 -0.0286319 0)
(1.51841 -0.0256535 0)
(1.50753 -0.0220844 0)
(1.49675 -0.0180252 0)
(1.48642 -0.0135354 0)
(1.47683 -0.00863455 0)
(1.46832 -0.0033573 0)
(1.46121 0.00222305 0)
(1.45578 0.00801484 0)
(1.45225 0.0139079 0)
(1.45078 0.0197505 0)
(1.45148 0.025298 0)
(1.4543 0.0301689 0)
(1.45909 0.0340969 0)
(1.46558 0.036902 0)
(1.47342 0.0384395 0)
(1.40641 0.0257814 0)
(1.40903 0.0189065 0)
(1.40946 0.00990012 0)
(1.40622 0.000648691 0)
(1.39889 -0.00732099 0)
(1.38795 -0.0129105 0)
(1.37415 -0.0155141 0)
(1.35851 -0.0151875 0)
(1.34226 -0.0124119 0)
(1.3269 -0.0077146 0)
(1.31373 -0.00156828 0)
(1.30398 0.00573279 0)
(1.29861 0.0139114 0)
(1.29832 0.022516 0)
(1.30323 0.0305023 0)
(1.31283 0.0372065 0)
(1.32628 0.04212 0)
(1.34244 0.044922 0)
(1.36007 0.0455151 0)
(1.37789 0.0440167 0)
(1.3949 0.040635 0)
(1.41032 0.0356997 0)
(1.42365 0.0296771 0)
(1.43451 0.0231756 0)
(1.44274 0.0167838 0)
(1.44828 0.011058 0)
(1.45115 0.00634703 0)
(1.45145 0.00266396 0)
(1.44932 0.000236539 0)
(1.44535 -0.000655553 0)
(1.43992 -0.000329868 0)
(1.4333 0.00074402 0)
(1.42589 0.00211152 0)
(1.41795 0.00338928 0)
(1.40959 0.00428355 0)
(1.40079 0.00462211 0)
(1.39144 0.00435333 0)
(1.38134 0.00353704 0)
(1.37038 0.00234232 0)
(1.35857 0.00101495 0)
(1.34609 -0.00015599 0)
(1.33332 -0.000850562 0)
(1.3208 -0.000740131 0)
(1.30904 0.000417828 0)
(1.29867 0.00272601 0)
(1.2903 0.00614791 0)
(1.28446 0.0105385 0)
(1.28162 0.0156899 0)
(1.28223 0.0211433 0)
(1.28638 0.0262151 0)
(1.2938 0.0304757 0)
(1.30406 0.0335256 0)
(1.31651 0.0350632 0)
(1.33042 0.0349225 0)
(1.345 0.0330874 0)
(1.35948 0.0296845 0)
(1.37319 0.0249381 0)
(1.38563 0.0191612 0)
(1.3964 0.0127861 0)
(1.4052 0.00629696 0)
(1.41188 0.000134789 0)
(1.41642 -0.00533289 0)
(1.41888 -0.00985972 0)
(1.41937 -0.0133749 0)
(1.41788 -0.0158104 0)
(1.41458 -0.0168021 0)
(1.40969 -0.0164445 0)
(1.40344 -0.0150116 0)
(1.39608 -0.0128293 0)
(1.38779 -0.0102338 0)
(1.37872 -0.00753612 0)
(1.36903 -0.00497912 0)
(1.35885 -0.0027333 0)
(1.34831 -0.000867431 0)
(1.33765 0.000681281 0)
(1.32716 0.00210687 0)
(1.31714 0.00365797 0)
(1.30792 0.00554034 0)
(1.29985 0.00790258 0)
(1.29327 0.010809 0)
(1.28848 0.0142302 0)
(1.28574 0.0180666 0)
(1.28531 0.0221194 0)
(1.28733 0.025918 0)
(1.29167 0.0291308 0)
(1.29802 0.0315037 0)
(1.30602 0.0328149 0)
(1.31518 0.0329205 0)
(1.32498 0.0317692 0)
(1.33493 0.0293966 0)
(1.34453 0.025911 0)
(1.35344 0.0214374 0)
(1.36138 0.0161464 0)
(1.36814 0.0102837 0)
(1.37359 0.0041416 0)
(1.37766 -0.00198 0)
(1.38036 -0.00779032 0)
(1.3817 -0.0130523 0)
(1.38173 -0.0176091 0)
(1.38049 -0.0213603 0)
(1.37802 -0.0241686 0)
(1.37444 -0.0258689 0)
(1.36991 -0.0264694 0)
(1.36457 -0.026052 0)
(1.35856 -0.0247316 0)
(1.35205 -0.0226416 0)
(1.34519 -0.0199183 0)
(1.33811 -0.0166931 0)
(1.33097 -0.0130952 0)
(1.32398 -0.00925756 0)
(1.31732 -0.00525497 0)
(1.31119 -0.0011342 0)
(1.30583 0.0030621 0)
(1.30146 0.00729584 0)
(1.29823 0.0115212 0)
(1.29629 0.0156739 0)
(1.29574 0.019659 0)
(1.29662 0.0233222 0)
(1.29887 0.0264415 0)
(1.30232 0.0288748 0)
(1.30673 0.0305159 0)
(1.31182 0.0312876 0)
(1.06888 0.0247315 0)
(1.07236 0.0178687 0)
(1.07448 0.0105786 0)
(1.07464 0.00409337 0)
(1.07261 -0.00103066 0)
(1.0685 -0.00428662 0)
(1.06287 -0.00530264 0)
(1.0563 -0.00445142 0)
(1.04936 -0.00198308 0)
(1.04267 0.00168925 0)
(1.03682 0.00619782 0)
(1.03233 0.0113663 0)
(1.02965 0.0168755 0)
(1.02922 0.0223308 0)
(1.03127 0.0272345 0)
(1.03576 0.0310647 0)
(1.04243 0.0334756 0)
(1.05084 0.0342513 0)
(1.06041 0.033374 0)
(1.07051 0.0310275 0)
(1.08046 0.0275351 0)
(1.0896 0.0233517 0)
(1.09756 0.0188988 0)
(1.10402 0.0145896 0)
(1.10885 0.0107596 0)
(1.11207 0.00765366 0)
(1.11388 0.00546014 0)
(1.11454 0.00429333 0)
(1.1143 0.00397223 0)
(1.1135 0.00448766 0)
(1.11255 0.00543319 0)
(1.11163 0.00654804 0)
(1.11082 0.00769064 0)
(1.11009 0.00875368 0)
(1.10932 0.00953749 0)
(1.10828 0.00975489 0)
(1.10686 0.00968499 0)
(1.10484 0.00935286 0)
(1.10208 0.00878697 0)
(1.09856 0.00811059 0)
(1.0943 0.00743256 0)
(1.08944 0.00696387 0)
(1.08424 0.00699833 0)
(1.07906 0.00767468 0)
(1.07427 0.00901971 0)
(1.07027 0.0110174 0)
(1.06741 0.0135671 0)
(1.066 0.0164815 0)
(1.06631 0.0194717 0)
(1.06838 0.0221679 0)
(1.07207 0.0243014 0)
(1.07716 0.0256117 0)
(1.08332 0.0258933 0)
(1.09019 0.0250265 0)
(1.09737 0.0229922 0)
(1.10449 0.0198784 0)
(1.11119 0.0158605 0)
(1.1172 0.0112162 0)
(1.12232 0.00626534 0)
(1.12641 0.00136142 0)
(1.12944 -0.00320155 0)
(1.13141 -0.00713037 0)
(1.13237 -0.0101991 0)
(1.13239 -0.0123014 0)
(1.13147 -0.0134151 0)
(1.12974 -0.0133268 0)
(1.1274 -0.012104 0)
(1.12458 -0.00998565 0)
(1.12142 -0.00725376 0)
(1.11802 -0.00419416 0)
(1.11447 -0.00111261 0)
(1.11082 0.00166142 0)
(1.10711 0.00401666 0)
(1.10335 0.00599922 0)
(1.09949 0.00749111 0)
(1.09559 0.00869861 0)
(1.09174 0.00985991 0)
(1.08809 0.0111723 0)
(1.08487 0.0127313 0)
(1.08227 0.0145653 0)
(1.08051 0.0166828 0)
(1.0798 0.0190095 0)
(1.0803 0.021347 0)
(1.08206 0.0234764 0)
(1.08501 0.0252083 0)
(1.08901 0.0263533 0)
(1.09384 0.0267456 0)
(1.09929 0.026265 0)
(1.10506 0.024846 0)
(1.11092 0.0224792 0)
(1.11661 0.0192127 0)
(1.12192 0.0151556 0)
(1.12663 0.0104974 0)
(1.13057 0.00546966 0)
(1.13362 0.000323002 0)
(1.13571 -0.00471081 0)
(1.13681 -0.00939851 0)
(1.13692 -0.013547 0)
(1.1361 -0.0170181 0)
(1.13438 -0.0197065 0)
(1.13183 -0.0214908 0)
(1.12859 -0.0223038 0)
(1.12481 -0.0221842 0)
(1.12066 -0.0212114 0)
(1.11627 -0.019491 0)
(1.11178 -0.0171392 0)
(1.1073 -0.0142781 0)
(1.10296 -0.0110453 0)
(1.09885 -0.0075917 0)
(1.09505 -0.00403412 0)
(1.09163 -0.000466848 0)
(1.08868 0.00307209 0)
(1.08627 0.00655841 0)
(1.08448 0.00997139 0)
(1.08337 0.0132898 0)
(1.08302 0.0164744 0)
(1.08347 0.019458 0)
(1.08475 0.022136 0)
(1.0868 0.0243844 0)
(1.08953 0.0261064 0)
(1.09284 0.0272142 0)
(1.09657 0.0276373 0)
(0.665963 0.0167351 0)
(0.671586 0.0117151 0)
(0.675207 0.00648246 0)
(0.676805 0.00201887 0)
(0.676646 -0.00108248 0)
(0.674945 -0.00257612 0)
(0.672233 -0.00224793 0)
(0.669104 -0.000405418 0)
(0.666093 0.00254396 0)
(0.663492 0.00616881 0)
(0.661625 0.0101597 0)
(0.660805 0.0142413 0)
(0.661309 0.0181851 0)
(0.663351 0.0216722 0)
(0.667002 0.0244054 0)
(0.672158 0.0261897 0)
(0.678563 0.0269184 0)
(0.685865 0.0265864 0)
(0.693643 0.0252964 0)
(0.701484 0.0231962 0)
(0.709043 0.0204636 0)
(0.716036 0.0173143 0)
(0.722342 0.013952 0)
(0.727842 0.0106875 0)
(0.732546 0.00772512 0)
(0.736555 0.00520557 0)
(0.740034 0.00323738 0)
(0.743153 0.00193392 0)
(0.746099 0.00134583 0)
(0.749009 0.00143347 0)
(0.751993 0.00203784 0)
(0.755008 0.00299237 0)
(0.758029 0.00412678 0)
(0.761003 0.00527661 0)
(0.76385 0.00632902 0)
(0.766412 0.00720536 0)
(0.768558 0.00787136 0)
(0.770204 0.00833045 0)
(0.77128 0.00861573 0)
(0.771764 0.008792 0)
(0.771682 0.00899786 0)
(0.771036 0.00928858 0)
(0.769984 0.00978768 0)
(0.768722 0.0105996 0)
(0.76747 0.0117816 0)
(0.766468 0.0133255 0)
(0.765945 0.0151508 0)
(0.766094 0.0171137 0)
(0.767046 0.0190202 0)
(0.768851 0.0206539 0)
(0.771481 0.02181 0)
(0.774853 0.0222942 0)
(0.778837 0.0219529 0)
(0.78327 0.020698 0)
(0.78794 0.0185224 0)
(0.792622 0.0154997 0)
(0.797089 0.011771 0)
(0.801143 0.00754975 0)
(0.804611 0.00314084 0)
(0.807353 -0.00121038 0)
(0.809318 -0.00515802 0)
(0.810558 -0.00844292 0)
(0.811131 -0.0108881 0)
(0.811127 -0.0124035 0)
(0.810578 -0.0129713 0)
(0.8097 -0.0124909 0)
(0.808705 -0.0110441 0)
(0.807771 -0.008849 0)
(0.80703 -0.00614493 0)
(0.80655 -0.00319514 0)
(0.806272 -0.000270118 0)
(0.806224 0.00244621 0)
(0.806397 0.00483594 0)
(0.806654 0.00685663 0)
(0.806915 0.00854278 0)
(0.807128 0.00997967 0)
(0.8073 0.0112825 0)
(0.807505 0.0125554 0)
(0.807858 0.0138812 0)
(0.808495 0.0153114 0)
(0.809547 0.0168365 0)
(0.811138 0.0183962 0)
(0.813355 0.0198887 0)
(0.816221 0.0211729 0)
(0.819699 0.0221048 0)
(0.823704 0.022553 0)
(0.82811 0.0224052 0)
(0.832755 0.0215833 0)
(0.837457 0.0200454 0)
(0.842016 0.0177982 0)
(0.846254 0.0148776 0)
(0.849978 0.0113858 0)
(0.85306 0.00744142 0)
(0.855393 0.00320461 0)
(0.856857 -0.00110883 0)
(0.85741 -0.00527783 0)
(0.857083 -0.00910799 0)
(0.855918 -0.0124429 0)
(0.853981 -0.0151579 0)
(0.851378 -0.0171559 0)
(0.848248 -0.0183743 0)
(0.844739 -0.0187951 0)
(0.84102 -0.0184418 0)
(0.837252 -0.0173817 0)
(0.833575 -0.0157058 0)
(0.830118 -0.0135203 0)
(0.826991 -0.0109386 0)
(0.824272 -0.0080666 0)
(0.82202 -0.00501012 0)
(0.820253 -0.00185806 0)
(0.819024 0.0013138 0)
(0.818372 0.00443326 0)
(0.81829 0.00746584 0)
(0.818796 0.0103818 0)
(0.819911 0.013137 0)
(0.821656 0.0156936 0)
(0.824045 0.0180046 0)
(0.827072 0.0200043 0)
(0.830698 0.0216131 0)
(0.834848 0.022757 0)
(0.839422 0.0233767 0)
(0.8443 0.0234282 0)
(0.294381 0.01096 0)
(0.299222 0.00812232 0)
(0.302476 0.00513243 0)
(0.304209 0.00259274 0)
(0.304739 0.000896392 0)
(0.304482 0.00023334 0)
(0.303865 0.000675418 0)
(0.30347 0.00212634 0)
(0.303671 0.00416957 0)
(0.304669 0.00660519 0)
(0.306638 0.00922742 0)
(0.309702 0.0118255 0)
(0.313941 0.0142212 0)
(0.319339 0.0162405 0)
(0.325794 0.0177188 0)
(0.333113 0.0185309 0)
(0.341016 0.0186058 0)
(0.349199 0.0179332 0)
(0.357359 0.0165694 0)
(0.365217 0.0146256 0)
(0.372533 0.0122722 0)
(0.379118 0.00968093 0)
(0.384875 0.00704479 0)
(0.389776 0.00454582 0)
(0.393845 0.00236726 0)
(0.39715 0.000529696 0)
(0.399908 -0.000740976 0)
(0.402234 -0.00146979 0)
(0.404306 -0.001696 0)
(0.4063 -0.00140292 0)
(0.408359 -0.000656551 0)
(0.410577 0.000403915 0)
(0.412936 0.0016481 0)
(0.415404 0.00294709 0)
(0.418023 0.00417809 0)
(0.420725 0.00523652 0)
(0.423436 0.00614092 0)
(0.426085 0.0069124 0)
(0.42861 0.00755569 0)
(0.430977 0.00809245 0)
(0.433177 0.00860076 0)
(0.435255 0.00915239 0)
(0.437284 0.00981744 0)
(0.439365 0.0106608 0)
(0.441626 0.0116731 0)
(0.444221 0.0128314 0)
(0.44729 0.0140709 0)
(0.450954 0.015327 0)
(0.455271 0.0164494 0)
(0.460253 0.0172466 0)
(0.465821 0.0175914 0)
(0.471842 0.0173557 0)
(0.478102 0.0164574 0)
(0.484354 0.0148587 0)
(0.490281 0.0126185 0)
(0.49567 0.00980512 0)
(0.500222 0.0065968 0)
(0.503815 0.00313989 0)
(0.506273 -0.000334967 0)
(0.507609 -0.00366175 0)
(0.50792 -0.00659665 0)
(0.507295 -0.00898475 0)
(0.505924 -0.0106581 0)
(0.504011 -0.0114942 0)
(0.501789 -0.0115993 0)
(0.499495 -0.0109092 0)
(0.497384 -0.00952056 0)
(0.495693 -0.0075938 0)
(0.494569 -0.00530281 0)
(0.494113 -0.00283296 0)
(0.494352 -0.000340727 0)
(0.495209 0.00204807 0)
(0.496604 0.00413372 0)
(0.498474 0.00590231 0)
(0.500711 0.00740516 0)
(0.503225 0.00870093 0)
(0.505972 0.00984956 0)
(0.508952 0.0109411 0)
(0.512199 0.0120165 0)
(0.515765 0.0131011 0)
(0.519714 0.0141901 0)
(0.524095 0.015246 0)
(0.528936 0.0161972 0)
(0.534226 0.0169491 0)
(0.539903 0.0174083 0)
(0.545873 0.0174811 0)
(0.551992 0.0170927 0)
(0.558077 0.0161927 0)
(0.563955 0.01475 0)
(0.569389 0.0127914 0)
(0.574198 0.0103502 0)
(0.578171 0.00751726 0)
(0.581134 0.0043963 0)
(0.582993 0.00111566 0)
(0.58369 -0.00216687 0)
(0.583202 -0.00528588 0)
(0.581599 -0.00808465 0)
(0.579009 -0.0104655 0)
(0.575595 -0.0123548 0)
(0.571545 -0.0136956 0)
(0.567062 -0.0144414 0)
(0.562358 -0.0145724 0)
(0.557648 -0.014115 0)
(0.553122 -0.0131245 0)
(0.548954 -0.0116788 0)
(0.545282 -0.00986417 0)
(0.542228 -0.00776301 0)
(0.539893 -0.00546481 0)
(0.538339 -0.00305331 0)
(0.537595 -0.000585892 0)
(0.537667 0.0018848 0)
(0.538555 0.00423857 0)
(0.54026 0.00649513 0)
(0.542752 0.00864316 0)
(0.546001 0.010649 0)
(0.549975 0.0124778 0)
(0.554626 0.014091 0)
(0.55989 0.0154429 0)
(0.565679 0.0164842 0)
(0.571881 0.0171705 0)
(0.578358 0.0174666 0)
(0.584969 0.0173446 0)
(0.0416748 0.0050455 0)
(0.0461103 0.00337505 0)
(0.0492941 0.00161873 0)
(0.0513002 0.000136316 0)
(0.0524316 -0.000810372 0)
(0.0530764 -0.00110336 0)
(0.053681 -0.000735009 0)
(0.0545615 0.000239204 0)
(0.0560585 0.0016333 0)
(0.0585127 0.00323124 0)
(0.0619708 0.00486418 0)
(0.0664854 0.00642231 0)
(0.0720158 0.0078335 0)
(0.0784181 0.00899828 0)
(0.0855204 0.00980575 0)
(0.0930812 0.0101872 0)
(0.10082 0.0101243 0)
(0.108445 0.00962667 0)
(0.115657 0.00876096 0)
(0.122211 0.00755294 0)
(0.127937 0.00611381 0)
(0.132708 0.00453854 0)
(0.13646 0.00293163 0)
(0.139256 0.00138443 0)
(0.141147 -1.00007e-05 0)
(0.14229 -0.00118811 0)
(0.142908 -0.00203844 0)
(0.143187 -0.00254366 0)
(0.143336 -0.00271825 0)
(0.143547 -0.00257318 0)
(0.144012 -0.00214198 0)
(0.14488 -0.0015262 0)
(0.146233 -0.000764707 0)
(0.148097 6.53859e-05 0)
(0.150372 0.000876357 0)
(0.152949 0.00166514 0)
(0.155921 0.0023977 0)
(0.159208 0.00305846 0)
(0.162729 0.00363579 0)
(0.166451 0.00415548 0)
(0.17034 0.00461572 0)
(0.174416 0.00506635 0)
(0.178695 0.00557503 0)
(0.183212 0.00616006 0)
(0.188032 0.0068158 0)
(0.193218 0.00752736 0)
(0.198819 0.00825425 0)
(0.204866 0.00893946 0)
(0.211323 0.00951865 0)
(0.218114 0.0099106 0)
(0.225103 0.0100368 0)
(0.23206 0.00984443 0)
(0.238774 0.00928112 0)
(0.244973 0.00833891 0)
(0.250385 0.00703607 0)
(0.254808 0.00540328 0)
(0.258037 0.0035133 0)
(0.259986 0.00143827 0)
(0.260573 -0.000774904 0)
(0.259761 -0.00287362 0)
(0.257726 -0.00472212 0)
(0.254693 -0.00622653 0)
(0.250955 -0.00731193 0)
(0.246848 -0.00793354 0)
(0.242686 -0.00807577 0)
(0.238777 -0.00775184 0)
(0.23541 -0.00700475 0)
(0.232808 -0.00590753 0)
(0.231101 -0.00455201 0)
(0.230361 -0.0030455 0)
(0.230622 -0.00149738 0)
(0.231782 -5.05083e-05 0)
(0.233688 0.00130014 0)
(0.236368 0.00252512 0)
(0.239706 0.00358761 0)
(0.243567 0.00450827 0)
(0.247875 0.00532633 0)
(0.252585 0.00608019 0)
(0.257679 0.00679884 0)
(0.26315 0.00749832 0)
(0.268998 0.00817842 0)
(0.275213 0.00881927 0)
(0.281766 0.00938173 0)
(0.288592 0.00982057 0)
(0.295594 0.0100853 0)
(0.302634 0.010126 0)
(0.309544 0.0099037 0)
(0.316139 0.00938833 0)
(0.322218 0.00856973 0)
(0.327575 0.00745626 0)
(0.332013 0.00608012 0)
(0.335375 0.00447725 0)
(0.33754 0.00270746 0)
(0.338457 0.000812395 0)
(0.338039 -0.00116331 0)
(0.33631 -0.00304956 0)
(0.333422 -0.00476041 0)
(0.329548 -0.00623936 0)
(0.324876 -0.00743882 0)
(0.31962 -0.00831892 0)
(0.314019 -0.00885612 0)
(0.308327 -0.00904338 0)
(0.302813 -0.00888727 0)
(0.297694 -0.00841405 0)
(0.293165 -0.00765887 0)
(0.289367 -0.00665754 0)
(0.286414 -0.00547045 0)
(0.284367 -0.00415845 0)
(0.283267 -0.00275772 0)
(0.283133 -0.00129161 0)
(0.283916 0.000174214 0)
(0.285635 0.00166906 0)
(0.288321 0.00310562 0)
(0.29187 0.00444546 0)
(0.296219 0.00567537 0)
(0.301302 0.00678457 0)
(0.307037 0.00775873 0)
(0.31332 0.00857717 0)
(0.320034 0.00921492 0)
(0.327041 0.00964827 0)
(0.334187 0.0098587 0)
(0.341308 0.00983601 0)
(-0.0506768 0.00111064 0)
(-0.0481409 0.000591735 0)
(-0.0467226 2.23204e-05 0)
(-0.046366 -0.000460338 0)
(-0.0468353 -0.000782819 0)
(-0.0477297 -0.000889445 0)
(-0.0485983 -0.000771367 0)
(-0.0490272 -0.000451447 0)
(-0.0487796 7.8667e-05 0)
(-0.0476618 0.000685369 0)
(-0.0454538 0.001267 0)
(-0.0421114 0.0018105 0)
(-0.0377082 0.00229869 0)
(-0.0323704 0.00268554 0)
(-0.0263063 0.00294809 0)
(-0.0197995 0.00307642 0)
(-0.0131443 0.00305042 0)
(-0.00661781 0.00286843 0)
(-0.000563042 0.00256601 0)
(0.00476332 0.00212467 0)
(0.0092188 0.00159712 0)
(0.0126305 0.00101284 0)
(0.0149356 0.000406724 0)
(0.0161275 -0.000176925 0)
(0.0163183 -0.000750797 0)
(0.0156265 -0.00120483 0)
(0.0141778 -0.00154621 0)
(0.0121881 -0.001772 0)
(0.00989964 -0.00188176 0)
(0.0075455 -0.00187982 0)
(0.00532826 -0.00177536 0)
(0.00341354 -0.00158937 0)
(0.00195417 -0.00136187 0)
(0.00104076 -0.00108853 0)
(0.000716999 -0.00078247 0)
(0.000995115 -0.000417814 0)
(0.00172249 -9.0959e-05 0)
(0.00286552 0.000206169 0)
(0.00441573 0.000459643 0)
(0.00630954 0.000713805 0)
(0.00855237 0.000911288 0)
(0.0111864 0.00113412 0)
(0.0141108 0.00138143 0)
(0.0174163 0.00164682 0)
(0.0211806 0.00192533 0)
(0.0254638 0.00221037 0)
(0.0303023 0.0024928 0)
(0.0357007 0.00276044 0)
(0.041612 0.0029898 0)
(0.0479345 0.00315336 0)
(0.0545156 0.00323183 0)
(0.0611523 0.00320222 0)
(0.0676031 0.00304802 0)
(0.0736082 0.00275479 0)
(0.0788875 0.00232143 0)
(0.08318 0.00176704 0)
(0.0862713 0.00110778 0)
(0.0879803 0.000377511 0)
(0.088277 -0.000447628 0)
(0.0872089 -0.001249 0)
(0.0848417 -0.00194234 0)
(0.0812646 -0.00252432 0)
(0.0767086 -0.00297415 0)
(0.0714365 -0.00326896 0)
(0.0657679 -0.00341525 0)
(0.0600697 -0.00340001 0)
(0.0546289 -0.00321152 0)
(0.0497044 -0.00288244 0)
(0.0455507 -0.00245404 0)
(0.0423412 -0.00196657 0)
(0.0401667 -0.00146237 0)
(0.0390476 -0.000966577 0)
(0.0389002 -0.000448428 0)
(0.0395518 4.23504e-05 0)
(0.0409038 0.000461835 0)
(0.0429005 0.00083285 0)
(0.0454826 0.00116687 0)
(0.0486095 0.0014775 0)
(0.0522626 0.00177542 0)
(0.0564357 0.00206594 0)
(0.0611291 0.00234771 0)
(0.0663328 0.00261449 0)
(0.0720161 0.00285617 0)
(0.0781181 0.00305699 0)
(0.0845438 0.0031996 0)
(0.0911585 0.00326787 0)
(0.097795 0.0032433 0)
(0.104262 0.00311246 0)
(0.110343 0.00287489 0)
(0.115827 0.00253548 0)
(0.12052 0.00209853 0)
(0.124235 0.00158489 0)
(0.126814 0.00101371 0)
(0.128136 0.000389832 0)
(0.128227 -0.000328243 0)
(0.127118 -0.00101899 0)
(0.124828 -0.00163671 0)
(0.121438 -0.00217148 0)
(0.117097 -0.00261179 0)
(0.111991 -0.00295052 0)
(0.106328 -0.00318111 0)
(0.100334 -0.00330506 0)
(0.0942259 -0.00332299 0)
(0.0882275 -0.00322932 0)
(0.0825525 -0.00303238 0)
(0.077392 -0.00275171 0)
(0.0729104 -0.00239899 0)
(0.0692334 -0.00198452 0)
(0.066458 -0.0015323 0)
(0.0646556 -0.00106393 0)
(0.0638775 -0.000575333 0)
(0.0640404 -8.45205e-06 0)
(0.0650745 0.000512799 0)
(0.0670059 0.000990174 0)
(0.0698003 0.00142856 0)
(0.0733996 0.00182601 0)
(0.0777327 0.00218048 0)
(0.0827147 0.00248605 0)
(0.0882414 0.00273546 0)
(0.0941914 0.00292202 0)
(0.100426 0.00303932 0)
(0.106796 0.00308117 0)
(2.4293 -0.405025 0)
(2.40989 -0.402665 0)
(2.38667 -0.390514 0)
(2.36184 -0.369839 0)
(2.33801 -0.343042 0)
(2.31743 -0.311565 0)
(2.30171 -0.275072 0)
(2.2915 -0.232813 0)
(2.28663 -0.184431 0)
(2.2866 -0.129802 0)
(2.29087 -0.0692684 0)
(2.29868 -0.00427566 0)
(2.30881 0.0622232 0)
(2.31984 0.126219 0)
(2.33072 0.184809 0)
(2.3408 0.235757 0)
(2.34961 0.276745 0)
(2.35715 0.306609 0)
(2.36322 0.324996 0)
(2.36708 0.33274 0)
(2.36868 0.333775 0)
(2.36851 0.323723 0)
(2.36807 0.302704 0)
(2.36833 0.27409 0)
(2.36972 0.23919 0)
(2.37151 0.199163 0)
(2.37384 0.154606 0)
(2.37735 0.106131 0)
(2.38236 0.0543987 0)
(2.38796 0.000806185 0)
(2.3933 -0.051674 0)
(2.39775 -0.100427 0)
(2.4004 -0.143644 0)
(2.40085 -0.180678 0)
(2.39925 -0.210692 0)
(2.39624 -0.232841 0)
(2.39323 -0.246989 0)
(2.39043 -0.253464 0)
(2.38504 -0.253554 0)
(2.3774 -0.244947 0)