/*--------------------------------*- C++ -*----------------------------------*\
| =========                 |                                                 |
| \\      /  F ield         | OpenFOAM: The Open Source CFD Toolbox           |
|  \\    /   O peration     | Version:  2206                                  |
|   \\  /    A nd           | Website:  www.openfoam.com                      |
|    \\/     M anipulation  |                                                 |
\*---------------------------------------------------------------------------*/
FoamFile
{
    version     2.0;
    format      ascii;
    arch        "LSB;label=32;scalar=64";
    class       volScalarField;
    location    "19.8";
    object      p;
}
// * * * * * * * * * * * * * * * * * * * * * * * * * * * * * * * * * * * * * //

dimensions      [0 2 -2 0 0 0 0];

internalField   nonuniform List<scalar> 
4867
(
-0.0570126
-0.0585317
-0.0593282
-0.0594038
-0.0587574
-0.0574339
-0.0555042
-0.053062
-0.0502194
-0.0471003
-0.043833
-0.0405466
-0.0373673
-0.0344143
-0.0318008
-0.0296231
-0.0279553
-0.0268746
-0.0264979
-0.0269062
-0.0279249
-0.029476
-0.0317233
-0.0346918
-0.0383225
-0.0425601
-0.0473304
-0.0525356
-0.0580579
-0.0637605
-0.0694892
-0.075077
-0.0803496
-0.085132
-0.089256
-0.0925655
-0.0949251
-0.0962864
-0.0965686
-0.0957726
-0.0939383
-0.0911356
-0.0874659
-0.0830576
-0.0780584
-0.0726271
-0.0669263
-0.0611152
-0.0553493
-0.049766
-0.0443962
-0.0391633
-0.0344548
-0.0306702
-0.0276414
-0.0252901
-0.023654
-0.0227305
-0.022498
-0.0229267
-0.0239753
-0.0255933
-0.0277212
-0.0302894
-0.0332176
-0.0364152
-0.039782
-0.0432109
-0.0465883
-0.0497999
-0.0527398
-0.0553075
-0.0574129
-0.058981
-0.0599575
-0.0603217
-0.0600603
-0.0591874
-0.0577424
-0.0557836
-0.0533847
-0.050635
-0.0476331
-0.0444821
-0.0412865
-0.0381474
-0.0351608
-0.0324157
-0.0299856
-0.0279446
-0.0263963
-0.0254145
-0.0248547
-0.0246457
-0.0249317
-0.0257584
-0.0270858
-0.0288797
-0.0310978
-0.0336827
-0.0365662
-0.0396696
-0.0429041
-0.0461724
-0.0493711
-0.0523931
-0.0551313
-0.0574812
-0.0593446
-0.0606352
-0.0613047
-0.0613032
-0.0606068
-0.0592256
-0.0571887
-0.0545467
-0.0513705
-0.0477466
-0.0437721
-0.039551
-0.0351884
-0.0307872
-0.0264123
-0.0219952
-0.0176063
-0.0137581
-0.0104902
-0.00762137
-0.00516941
-0.00314809
-0.00153883
-0.000312897
0.000562299
0.00114729
0.00143472
0.00168386
0.00107715
0.00117472
-0.00107345
-0.0471794
-0.0486639
-0.0494863
-0.0496492
-0.0491485
-0.0480238
-0.0463406
-0.0441847
-0.0416598
-0.0388811
-0.0359693
-0.0330457
-0.0302294
-0.0276383
-0.0253785
-0.0235356
-0.0221865
-0.0214129
-0.0213213
-0.0219745
-0.023217
-0.0249941
-0.0274513
-0.0306088
-0.0344106
-0.0388003
-0.0437024
-0.0490184
-0.0546301
-0.0604002
-0.0661747
-0.071787
-0.0770643
-0.0818331
-0.0859273
-0.0891931
-0.0914958
-0.0928067
-0.0930291
-0.0921744
-0.0902847
-0.0874307
-0.0837155
-0.0792679
-0.0742346
-0.0687734
-0.0630454
-0.0572064
-0.0514056
-0.0457459
-0.0401972
-0.0348647
-0.030298
-0.026572
-0.023505
-0.0211265
-0.0194647
-0.0185103
-0.0182413
-0.018625
-0.0196181
-0.0211678
-0.0232132
-0.0256844
-0.0285018
-0.0315766
-0.0348119
-0.0381043
-0.0413468
-0.0444295
-0.0472495
-0.0497122
-0.0517329
-0.0532414
-0.0541872
-0.0545476
-0.0543162
-0.0535039
-0.0521477
-0.0503028
-0.0480399
-0.0454432
-0.0426066
-0.0396282
-0.0366071
-0.0336401
-0.03082
-0.0282324
-0.02595
-0.024047
-0.0226174
-0.021718
-0.0212242
-0.0210866
-0.0214338
-0.0223046
-0.0236634
-0.0254777
-0.027705
-0.0302889
-0.033162
-0.0362465
-0.0394544
-0.0426898
-0.0458508
-0.0488323
-0.0515288
-0.0538378
-0.0556627
-0.0569164
-0.0575762
-0.0575602
-0.056861
-0.0554903
-0.0534764
-0.0508699
-0.0477413
-0.044176
-0.0402695
-0.0361231
-0.0318407
-0.0275121
-0.0231368
-0.0186671
-0.014493
-0.0109225
-0.00779681
-0.00506929
-0.00277805
-0.000923178
0.000512965
0.0015585
0.00224511
0.0026359
0.00269397
0.00274305
0.00186762
0.00169468
-0.000974065
-0.0374269
-0.0388619
-0.0396899
-0.0399122
-0.0395256
-0.0385652
-0.0370908
-0.0351815
-0.0329335
-0.0304539
-0.0278557
-0.0252535
-0.0227625
-0.0204938
-0.0185417
-0.0169918
-0.015923
-0.0154164
-0.0155703
-0.0164299
-0.0178505
-0.0198084
-0.0224398
-0.0257485
-0.029681
-0.034181
-0.0391722
-0.0445561
-0.050214
-0.0560091
-0.0617885
-0.0673873
-0.0726349
-0.0773611
-0.0814037
-0.0846109
-0.0868548
-0.0881103
-0.0882857
-0.0873946
-0.085479
-0.0826107
-0.0788933
-0.0744542
-0.0694376
-0.0639988
-0.0582939
-0.0524754
-0.0466781
-0.0409478
-0.035278
-0.0300612
-0.0256703
-0.0219761
-0.0189236
-0.016567
-0.0149199
-0.0139714
-0.0136984
-0.0140652
-0.0150257
-0.0165255
-0.0185033
-0.0208896
-0.0236061
-0.0265658
-0.0296745
-0.0328327
-0.0359385
-0.0388885
-0.0415837
-0.0439347
-0.0458624
-0.0473017
-0.0482061
-0.0485501
-0.0483367
-0.0475726
-0.0462923
-0.0445487
-0.0424089
-0.0399528
-0.0372689
-0.0344507
-0.0315922
-0.0287859
-0.0261217
-0.0236811
-0.0215349
-0.0197574
-0.0184345
-0.0176073
-0.0171639
-0.0170827
-0.0174835
-0.0183905
-0.0197714
-0.0215953
-0.0238204
-0.0263913
-0.0292416
-0.0322944
-0.0354633
-0.0386537
-0.0417659
-0.0446968
-0.0473433
-0.0496059
-0.05139
-0.0526118
-0.0532532
-0.0532315
-0.0525419
-0.0511965
-0.0492232
-0.0466727
-0.0436145
-0.0401326
-0.0363191
-0.0322733
-0.0280943
-0.0238322
-0.0194335
-0.0150723
-0.0112228
-0.00787854
-0.00491224
-0.00236629
-0.00026548
0.00139585
0.00263358
0.00347712
0.00395693
0.00414523
0.00395588
0.00377663
0.00264771
0.00220157
-0.000860722
-0.0278962
-0.0292698
-0.0300824
-0.0303343
-0.0300303
-0.0291997
-0.0278956
-0.0261916
-0.0241777
-0.0219535
-0.0196248
-0.0173012
-0.0150929
-0.0130982
-0.0114081
-0.0101086
-0.00927802
-0.00899634
-0.00935244
-0.0103719
-0.0119265
-0.0140242
-0.0167886
-0.020206
-0.0242258
-0.0287923
-0.0338285
-0.0392357
-0.044896
-0.0506736
-0.0564174
-0.0619657
-0.0671511
-0.0718075
-0.075775
-0.078908
-0.0811046
-0.0823043
-0.0824463
-0.0815422
-0.0796319
-0.0767874
-0.0731111
-0.068728
-0.0637783
-0.0584127
-0.0527817
-0.0470308
-0.0412614
-0.0354789
-0.0298438
-0.0248668
-0.0206319
-0.0169982
-0.0140141
-0.0117234
-0.0101309
-0.00922524
-0.00898126
-0.00935944
-0.0103106
-0.0117773
-0.0137003
-0.0160118
-0.0186353
-0.021486
-0.0244723
-0.0274984
-0.0304668
-0.0332807
-0.0358463
-0.0380791
-0.0399057
-0.0412662
-0.0421176
-0.0424347
-0.0422263
-0.0414966
-0.0402779
-0.0386209
-0.0365893
-0.0342588
-0.0317128
-0.0290399
-0.0263297
-0.0236707
-0.0211489
-0.0188417
-0.0168192
-0.015154
-0.0139239
-0.0131563
-0.0127509
-0.0127143
-0.0131587
-0.0140912
-0.0154831
-0.0173054
-0.0195166
-0.0220625
-0.0248777
-0.0278866
-0.0310044
-0.0341385
-0.0371914
-0.0400626
-0.0426515
-0.0448616
-0.0466011
-0.0478008
-0.0484221
-0.0484021
-0.0477336
-0.0464277
-0.0445127
-0.0420382
-0.0390725
-0.035697
-0.0320005
-0.0280793
-0.0240128
-0.0197878
-0.0154202
-0.0113633
-0.00783691
-0.00468492
-0.00191808
0.000412653
0.00229645
0.00373905
0.00475539
0.00538051
0.00563788
0.00562686
0.00518995
0.00476224
0.00338991
0.0026778
-0.000738781
-0.0187073
-0.0200122
-0.0207868
-0.021029
-0.0207774
-0.0200479
-0.0188778
-0.0173384
-0.015516
-0.0135031
-0.0114
-0.00931146
-0.0073366
-0.00556738
-0.00409426
-0.00300102
-0.0023651
-0.00226578
-0.00278022
-0.00390541
-0.00554956
-0.00775319
-0.0106073
-0.0140893
-0.0181528
-0.0227417
-0.0277785
-0.0331651
-0.0387849
-0.0445038
-0.0501738
-0.0556369
-0.06073
-0.0652915
-0.069167
-0.0722125
-0.0743688
-0.0755221
-0.0756464
-0.0747533
-0.0728796
-0.0700966
-0.0665041
-0.0622227
-0.0573876
-0.0521426
-0.0466332
-0.0409862
-0.0352551
-0.0294879
-0.0240871
-0.0193844
-0.0152821
-0.0117637
-0.00889877
-0.00671585
-0.00521768
-0.00439225
-0.0042128
-0.00462882
-0.00558646
-0.00703059
-0.00890417
-0.0111492
-0.0136883
-0.0164353
-0.0193019
-0.0221968
-0.025027
-0.0277014
-0.0301322
-0.0322405
-0.0339582
-0.0352302
-0.0360172
-0.0362971
-0.0360804
-0.0353707
-0.0341987
-0.0326127
-0.0306733
-0.028452
-0.0260278
-0.0234843
-0.0209067
-0.01838
-0.0159858
-0.0137977
-0.0118855
-0.0103197
-0.00916862
-0.00844088
-0.00806155
-0.0080643
-0.00854089
-0.00948749
-0.0108794
-0.0126887
-0.0148746
-0.0173837
-0.0201521
-0.0231055
-0.0261611
-0.0292285
-0.0322127
-0.0350162
-0.0375418
-0.0396946
-0.0413837
-0.0425718
-0.0431773
-0.0431663
-0.0425302
-0.0412773
-0.0394377
-0.037059
-0.0342061
-0.030958
-0.0274011
-0.0236214
-0.0196481
-0.0154488
-0.0113096
-0.00763677
-0.00436377
-0.00142922
0.0010994
0.00318895
0.00483233
0.00603491
0.00681076
0.00721504
0.00723521
0.00702205
0.0063598
0.00568142
0.0040765
0.00311058
-0.000612492
-0.00994237
-0.0111966
-0.0119294
-0.0120883
-0.0118609
-0.0112215
-0.010143
-0.0087271
-0.00705557
-0.00521173
-0.00329214
-0.00139181
0.00039851
0.00198728
0.00328731
0.00421763
0.00470235
0.00466379
0.00403752
0.00285312
0.00115935
-0.00111156
-0.00401313
-0.00751721
-0.0115816
-0.01615
-0.0211448
-0.0264691
-0.0320079
-0.0376301
-0.0431912
-0.0485375
-0.0535116
-0.0579596
-0.0617322
-0.0646894
-0.0667934
-0.0679156
-0.0680429
-0.0671861
-0.0653807
-0.0626956
-0.059227
-0.0550901
-0.0504133
-0.0453332
-0.0399859
-0.0344622
-0.0287927
-0.0232009
-0.0181483
-0.0136933
-0.00975485
-0.00640626
-0.00370389
-0.00166757
-0.000299162
0.000415443
0.00050698
2.45856e-05
-0.000965732
-0.00240474
-0.00423396
-0.00640238
-0.00885395
-0.0115031
-0.0142522
-0.017015
-0.0197049
-0.0222357
-0.0245263
-0.0265035
-0.0281045
-0.029279
-0.0299911
-0.0302222
-0.0299842
-0.0292803
-0.0281401
-0.0266095
-0.0247461
-0.0226174
-0.0202984
-0.0178681
-0.0154074
-0.0129975
-0.0107156
-0.00863228
-0.00681593
-0.00533565
-0.00424903
-0.00354386
-0.00318089
-0.00321746
-0.00371519
-0.00466486
-0.00604618
-0.00783176
-0.00998127
-0.0124426
-0.0151532
-0.0180407
-0.021024
-0.0240156
-0.0269233
-0.0296524
-0.0321101
-0.0342046
-0.0358467
-0.0370162
-0.0376156
-0.0376236
-0.0370314
-0.0358458
-0.0340971
-0.0318324
-0.0291121
-0.0260108
-0.0226127
-0.0189704
-0.0150557
-0.0109932
-0.00725025
-0.00391904
-0.00088518
0.00179193
0.00405509
0.0058829
0.007268
0.0082196
0.00874314
0.00891191
0.00870411
0.00828881
0.00741948
0.00650411
0.00468717
0.00348616
-0.000486483
-0.00170631
-0.00290291
-0.00360058
-0.00353779
-0.00329022
-0.00283302
-0.00179533
-0.000453428
0.00110672
0.00282189
0.00460281
0.00636189
0.00801067
0.00946128
0.0106304
0.0114399
0.0118146
0.0116799
0.0109906
0.00979087
0.00807911
0.00577793
0.00287052
-0.000615423
-0.00464067
-0.00914834
-0.0140616
-0.0192851
-0.0247065
-0.0301978
-0.0356189
-0.0408218
-0.0456562
-0.0499734
-0.0536282
-0.0565167
-0.0585575
-0.0596618
-0.0598123
-0.0590165
-0.0573093
-0.0547561
-0.0514477
-0.0474934
-0.0430137
-0.0381377
-0.0329785
-0.0275845
-0.0220567
-0.016826
-0.0121374
-0.00790991
-0.004189
-0.00105772
0.00144332
0.00329762
0.00450572
0.00507886
0.00505833
0.00450438
0.00347591
0.00202474
0.000213307
-0.0018906
-0.00423519
-0.00676908
-0.00940153
-0.0120306
-0.0145754
-0.0169577
-0.0191023
-0.0209414
-0.022418
-0.0234863
-0.0241137
-0.0242845
-0.0240128
-0.0233013
-0.0221782
-0.0206879
-0.0188848
-0.016833
-0.0146031
-0.0122699
-0.00991059
-0.00760253
-0.00541761
-0.00342496
-0.00169166
-0.000283163
0.000756813
0.00145262
0.00180323
0.00173999
0.00123211
0.000289234
-0.0010717
-0.00282354
-0.00492667
-0.00733037
-0.00997353
-0.0127856
-0.0156881
-0.0185961
-0.0214204
-0.0240703
-0.0264554
-0.0284855
-0.0301016
-0.0312411
-0.0318409
-0.0318779
-0.0313413
-0.0302374
-0.0285948
-0.0264593
-0.0238889
-0.0209545
-0.0177201
-0.0141763
-0.0103455
-0.00664405
-0.00332087
-0.000263912
0.00249684
0.00488507
0.00686308
0.00841303
0.00952801
0.0102147
0.0104852
0.0104354
0.0100053
0.00939211
0.00833473
0.00720434
0.00520525
0.00379489
-0.000364489
0.00594215
0.00490863
0.00429994
0.00434861
0.00464629
0.00514546
0.00614025
0.00741949
0.00890132
0.0105245
0.0122069
0.0138634
0.0154092
0.0167606
0.0178376
0.0185641
0.0188662
0.0186769
0.0179769
0.0167945
0.0150864
0.0127929
0.00991824
0.00648709
0.0025377
-0.00187299
-0.00666942
-0.0117584
-0.0170305
-0.0223618
-0.0276175
-0.0326563
-0.0373353
-0.0415102
-0.0450391
-0.0478637
-0.0498499
-0.0509493
-0.0511415
-0.0504297
-0.0488479
-0.0464571
-0.0433409
-0.0396015
-0.035353
-0.0307096
-0.0257424
-0.0205044
-0.0153015
-0.0105125
-0.00613882
-0.00217567
0.00127586
0.00415064
0.00641618
0.00805916
0.00907379
0.0094839
0.00934145
0.00871252
0.0076414
0.00617929
0.00438592
0.00232806
7.49846e-05
-0.00232263
-0.00481479
-0.00730667
-0.00970211
-0.0119298
-0.013922
-0.0156163
-0.0169606
-0.017914
-0.0184479
-0.0185478
-0.0182298
-0.0174986
-0.0163797
-0.0149157
-0.0131587
-0.0111689
-0.00901313
-0.00676236
-0.00449022
-0.00226917
-0.00016763
0.00174686
0.00340934
0.00476051
0.00577364
0.006467
0.00680361
0.00672269
0.00621486
0.00528741
0.00395559
0.00224637
0.000198369
-0.00213904
-0.00470642
-0.00743533
-0.0102498
-0.0130678
-0.0158037
-0.0183712
-0.0206822
-0.0226459
-0.0242361
-0.0253525
-0.0259603
-0.0260356
-0.0255656
-0.0245565
-0.0230346
-0.0210425
-0.0186381
-0.0158818
-0.0127769
-0.00930439
-0.00577007
-0.0025305
0.000464801
0.00323161
0.00568202
0.00776175
0.00944125
0.0107032
0.0115307
0.0119537
0.0119922
0.0117358
0.0110992
0.0103033
0.00908164
0.00776473
0.00562013
0.00403134
-0.000249664
0.0129692
0.0121195
0.0116677
0.0116573
0.0119725
0.0126041
0.0135806
0.0148236
0.0162621
0.0178295
0.0194479
0.0210364
0.0225141
0.0238011
0.0248203
0.0254976
0.0257617
0.0255593
0.0248933
0.0237493
0.0220649
0.0198143
0.017006
0.0136621
0.00982077
0.00553848
0.000889052
-0.00403688
-0.00913332
-0.0142815
-0.0193523
-0.0242114
-0.0287219
-0.0327448
-0.036167
-0.0389082
-0.0408541
-0.0419646
-0.0422173
-0.0416122
-0.04018
-0.0379772
-0.035081
-0.0315848
-0.0275939
-0.023191
-0.0184142
-0.0134494
-0.00872213
-0.00434595
-0.000283797
0.00336346
0.00650567
0.00909103
0.0110911
0.0124955
0.0132951
0.0135297
0.013273
0.0125665
0.0114521
0.00998169
0.00821317
0.00621004
0.0040398
0.00176818
-0.000560365
-0.00289373
-0.00513556
-0.0072029
-0.0090356
-0.0105783
-0.0117836
-0.0126152
-0.0130475
-0.0130676
-0.0126886
-0.0119275
-0.010802
-0.00935243
-0.00762873
-0.00568781
-0.00359283
-0.00141145
0.000786535
0.00293388
0.00496389
0.00681137
0.00841399
0.00972253
0.0107294
0.0114195
0.0117366
0.0116479
0.011149
0.0102444
0.00894936
0.00729029
0.0053048
0.00304086
0.0005561
-0.0020833
-0.00480408
-0.00752756
-0.0101718
-0.012653
-0.0148859
-0.0168056
-0.0183506
-0.0194504
-0.0200741
-0.0201983
-0.0198081
-0.0189053
-0.0175161
-0.015684
-0.0134599
-0.0108518
-0.00782182
-0.00457382
-0.00151375
0.00133215
0.00401922
0.00645757
0.0085768
0.0103361
0.0117081
0.0126673
0.0132134
0.0133952
0.0132223
0.012775
0.0119569
0.010999
0.0096426
0.00817321
0.0059229
0.00419128
-0.000144487
0.0193709
0.0186722
0.0183427
0.0183965
0.0187806
0.0194788
0.0204754
0.0217181
0.023143
0.024684
0.026268
0.0278182
0.0292575
0.0305096
0.0315003
0.0321572
0.0324155
0.0322466
0.0316393
0.0305407
0.0289064
0.026729
0.0240151
0.0207858
0.0170796
0.0129517
0.00847394
0.00373382
-0.00116706
-0.00611474
-0.0109864
-0.0156553
-0.0199912
-0.0238566
-0.0271808
-0.0298385
-0.0317564
-0.0328925
-0.0332235
-0.0327466
-0.0314851
-0.0294902
-0.0268359
-0.0236076
-0.0198858
-0.0157065
-0.011166
-0.00667141
-0.00244091
0.00157352
0.00528059
0.00857032
0.0113731
0.0136442
0.0153571
0.0164896
0.0170668
0.0171454
0.0167768
0.015996
0.0148461
0.0133772
0.0116446
0.00970819
0.00763131
0.0054784
0.00330823
0.00115802
-0.000914814
-0.00281656
-0.0044833
-0.00586728
-0.00692662
-0.00762984
-0.00795367
-0.00788506
-0.00743476
-0.00663546
-0.00549475
-0.00404912
-0.00234771
-0.000444273
0.0016011
0.00372395
0.00585961
0.0079439
0.00991244
0.0117021
0.013256
0.0145439
0.0155494
0.016225
0.0165267
0.0164387
0.0159551
0.0150796
0.0138275
0.0122246
0.0103075
0.00812273
0.00572594
0.00318086
0.000557857
-0.00206789
-0.00461846
-0.00701268
-0.00916876
-0.0110463
-0.0125508
-0.0136386
-0.0142814
-0.0144632
-0.0141693
-0.0133885
-0.0121431
-0.0104797
-0.0084058
-0.00587887
-0.00301985
-0.000237432
0.00237203
0.00489001
0.00723374
0.00931924
0.0110967
0.0125306
0.0135835
0.0142438
0.0145341
0.0145062
0.014143
0.0135269
0.0125614
0.0114667
0.0100028
0.00842298
0.00610874
0.00427234
-5.06471e-05
0.0251268
0.0245831
0.0243832
0.0245321
0.0250064
0.0257734
0.0268122
0.0280772
0.0295105
0.0310484
0.0326217
0.0341579
0.0355834
0.0368249
0.0378101
0.038471
0.038763
0.0386596
0.0381122
0.0370699
0.0355121
0.0334317
0.0308346
0.0277423
0.0241927
0.0202395
0.0159519
0.0114139
0.00672313
0.00198834
-0.00267469
-0.00714567
-0.0113014
-0.0150337
-0.0182441
-0.0208306
-0.0227311
-0.023905
-0.0243333
-0.0240058
-0.0229321
-0.0211618
-0.0187683
-0.0158201
-0.0123383
-0.00837876
-0.00428317
-0.000335184
0.00348348
0.00710794
0.0104154
0.0133194
0.0157601
0.0176987
0.0190972
0.0199584
0.020329
0.0202641
0.0197927
0.0189501
0.0177791
0.0163264
0.0146438
0.0127871
0.0108159
0.00879107
0.0067722
0.00480858
0.00293106
0.00120475
-0.000290764
-0.00151083
-0.00242051
-0.00299298
-0.00320449
-0.00303101
-0.00250133
-0.00165929
-0.0004992
0.000950691
0.00263868
0.00451347
0.00651817
0.00859264
0.010676
0.012706
0.0146199
0.0163593
0.0178844
0.0191652
0.020156
0.0208107
0.0211051
0.0210237
0.0205601
0.0197186
0.0185141
0.016972
0.0151277
0.0130262
0.0107212
0.0082738
0.00575109
0.00322412
0.000768762
-0.00153576
-0.00363391
-0.00545406
-0.00692805
-0.00800983
-0.00867198
-0.00891522
-0.00874102
-0.00811472
-0.00700403
-0.00546851
-0.00348673
-0.0010935
0.00132352
0.00361326
0.00587528
0.00803847
0.0100106
0.0117345
0.013168
0.0142696
0.0150065
0.0153953
0.0154736
0.01526
0.0147352
0.0139809
0.0129021
0.0117021
0.0101599
0.00851077
0.00617633
0.00427592
3.11512e-05
0.0302488
0.0298631
0.0297996
0.0300601
0.0306313
0.0314824
0.0325805
0.0338835
0.0353422
0.0368952
0.0384768
0.0400177
0.0414469
0.0426939
0.0436933
0.0443934
0.0447502
0.0447091
0.0442207
0.0432552
0.0417935
0.0398277
0.0373647
0.0344261
0.0310489
0.0272842
0.0231992
0.0188748
0.0144041
0.0098888
0.005438
0.00116665
-0.00281356
-0.00641635
-0.00952064
-0.012049
-0.0139395
-0.0151567
-0.0156966
-0.0155431
-0.0146787
-0.0131496
-0.0110239
-0.00831115
-0.00503776
-0.001486
0.00203886
0.00552203
0.00892251
0.012113
0.0149944
0.0174945
0.019562
0.0211484
0.0222308
0.0228391
0.0230354
0.0228414
0.0222843
0.0213993
0.0202258
0.0188065
0.0171896
0.0154282
0.0135779
0.0116951
0.00983537
0.0080497
0.00637556
0.00484374
0.00352357
0.00247283
0.00172055
0.00128242
0.00117113
0.00147455
0.0020909
0.00295358
0.00414862
0.00561385
0.00729326
0.00914629
0.0111182
0.0131515
0.0151875
0.0171676
0.019035
0.0207451
0.0222551
0.0235134
0.0244778
0.0251178
0.0254099
0.0253386
0.0248986
0.0240944
0.0229408
0.0214626
0.0196941
0.0176786
0.0154678
0.0131199
0.010699
0.00827316
0.00591448
0.00368836
0.00165175
-0.000120571
-0.00157405
-0.00266477
-0.00335363
-0.00361133
-0.00354641
-0.00313504
-0.00212079
-0.000651921
0.00120745
0.00318165
0.00507907
0.00700522
0.00890441
0.0106808
0.0122734
0.0136366
0.0147284
0.0154977
0.0159478
0.0161232
0.0160184
0.0156496
0.0149978
0.0141385
0.0129804
0.0117091
0.0101225
0.00844253
0.00613005
0.00420682
0.000101175
0.0347578
0.0345328
0.0346111
0.0349923
0.0356643
0.0366035
0.0377711
0.039128
0.0406261
0.0422068
0.0438085
0.0453658
0.0468117
0.0480862
0.0491313
0.0498872
0.0502976
0.0503148
0.0499011
0.0490272
0.0476741
0.0458358
0.0435193
0.0407453
0.0375494
0.0339822
0.0301079
0.026004
0.0217574
0.0174634
0.013225
0.00915021
0.00532765
0.00186306
-0.00115056
-0.00363679
-0.00553286
-0.00680522
-0.00745784
-0.00753106
-0.00689517
-0.00554544
-0.00364255
-0.00113802
0.0017577
0.00473091
0.0077488
0.0107919
0.0137331
0.0164653
0.0189072
0.0209957
0.0226852
0.023918
0.0247044
0.0251127
0.0251579
0.0248577
0.0242399
0.0233363
0.0221815
0.0208153
0.0192832
0.017634
0.0159198
0.0141924
0.0125022
0.0108966
0.00941748
0.00809141
0.00695535
0.00607079
0.00548136
0.00517515
0.00506691
0.00565261
0.00643583
0.00715338
0.00839876
0.00990052
0.0115808
0.0134197
0.0153647
0.0173612
0.019357
0.021301
0.0231392
0.0248207
0.0262965
0.0275238
0.0284668
0.0290957
0.0293876
0.0293288
0.0289145
0.0281496
0.0270488
0.0256362
0.0239452
0.0220172
0.0199014
0.0176533
0.0153329
0.0130072
0.0107434
0.00859039
0.00661629
0.00488483
0.00344361
0.00232627
0.001632
0.00154462
0.00122874
0.00128805
0.00246598
0.00388284
0.00532111
0.00676748
0.00830028
0.00986003
0.0113621
0.012746
0.0139659
0.0149809
0.0157269
0.0161991
0.0164356
0.0164311
0.0161764
0.0156881
0.014945
0.014014
0.012811
0.0115032
0.00990761
0.00823105
0.00597882
0.00407195
0.000159812
0.0386853
0.0386215
0.0388435
0.0393495
0.0401269
0.0411527
0.0423947
0.0438134
0.0453575
0.0469747
0.0486077
0.0501959
0.0516775
0.0529924
0.054079
0.0548803
0.0553463
0.055433
0.0551031
0.0543287
0.0530921
0.0513875
0.0492224
0.0466183
0.0436095
0.0402449
0.0365859
0.0327038
0.0286801
0.0246046
0.0205748
0.0166813
0.0130198
0.00967765
0.00674098
0.00428219
0.0023672
0.00109033
0.000473291
-5.67002e-05
0.000239311
0.00162286
0.00333259
0.00544966
0.00776786
0.0102101
0.0127727
0.0153379
0.0177959
0.0200617
0.0220654
0.023753
0.0250537
0.0259625
0.0265312
0.0267731
0.0266971
0.0263226
0.025674
0.0247778
0.0236654
0.0223739
0.0209447
0.019423
0.0178572
0.0162953
0.0147827
0.0133638
0.0120769
0.0109515
0.010009
0.00930006
0.00886647
0.00865969
0.00871816
0.00938033
0.0101896
0.0110209
0.0122986
0.0138099
0.0154907
0.0173152
0.0192363
0.0212038
0.0231677
0.0250756
0.0268749
0.0285176
0.0299589
0.0311588
0.0320823
0.032701
0.0329941
0.0329488
0.0325612
0.0318366
0.0307895
0.0294432
0.0278294
0.0259883
0.0239667
0.0218176
0.0195985
0.0173703
0.0151891
0.0131153
0.0112053
0.0095133
0.00807385
0.00690638
0.0062512
0.00595951
0.00532592
0.00553871
0.0067899
0.00778691
0.0086849
0.00976523
0.0109312
0.0120892
0.0131924
0.0141983
0.0150668
0.0157281
0.0161758
0.0164367
0.0164973
0.0163477
0.015981
0.0154089
0.0146083
0.0136383
0.0124234
0.0111112
0.00953903
0.00789564
0.0057371
0.00388162
0.000209119
0.0420709
0.0421657
0.0425299
0.0431601
0.0440436
0.0451583
0.0464735
0.0479509
0.0495448
0.0512044
0.0528747
0.0544973
0.0560132
0.0573637
0.0584917
0.059344
0.059872
0.0600324
0.0597894
0.0591165
0.0579982
0.05643
0.0544192
0.0519872
0.0491679
0.0460065
0.0425601
0.0388958
0.0350893
0.031225
0.0273914
0.0236755
0.0201616
0.0169326
0.014068
0.0116136
0.00962353
0.00837042
0.00760273
0.00673184
0.00692396
0.00822081
0.00957898
0.0111308
0.0129167
0.0149012
0.0169766
0.019043
0.0210167
0.0228291
0.0244174
0.0256989
0.0266566
0.0273348
0.0277313
0.0278455
0.0276886
0.0272763
0.0266275
0.0257655
0.024719
0.0235215
0.0222114
0.0208309
0.0194234
0.0180325
0.0167008
0.015468
0.0143692
0.013434
0.012682
0.0121432
0.0118632
0.0118006
0.0120468
0.0126679
0.0134909
0.0145152
0.0158099
0.0173211
0.019001
0.0208124
0.0227109
0.0246485
0.0265765
0.0284453
0.0302059
0.0318117
0.0332197
0.0343916
0.0352946
0.0359027
0.0361966
0.0361647
0.0358036
0.0351185
0.0341237
0.0328424
0.0313052
0.02955
0.0276219
0.0255705
0.0234482
0.0213107
0.0192118
0.0172107
0.0153615
0.0136994
0.0122541
0.0110755
0.0102477
0.0097066
0.00948123
0.00976964
0.0103039
0.0107849
0.011385
0.0121127
0.0128855
0.0136546
0.0143865
0.0150423
0.0155576
0.0159316
0.0161744
0.0162645
0.0161853
0.0159296
0.0154867
0.0148622
0.0140354
0.0130551
0.0118565
0.0105672
0.0090447
0.00745965
0.0054211
0.00364546
0.000249796
0.0449585
0.0452054
0.0457063
0.0464562
0.0474426
0.0486441
0.0500312
0.0515675
0.0532096
0.0549093
0.056614
0.0582686
0.0598169
0.0612027
0.0623716
0.0632721
0.0638576
0.0640877
0.0639291
0.0633566
0.0623555
0.0609226
0.0590663
0.0568059
0.0541727
0.0512095
0.0479695
0.0445147
0.0409159
0.0372539
0.0336052
0.0300506
0.0266704
0.0235465
0.0207411
0.0182666
0.0162144
0.0148336
0.0137309
0.0130225
0.0132461
0.013948
0.014785
0.0158518
0.0171886
0.0186878
0.0202611
0.0218361
0.0233474
0.0247463
0.0259243
0.0268566
0.0275873
0.0280944
0.0283643
0.0283983
0.0282022
0.0277869
0.0271672
0.0263637
0.0254024
0.0243144
0.0231352
0.0219037
0.0206596
0.0194426
0.0182911
0.0172416
0.0163263
0.0155722
0.0149979
0.0146213
0.0144759
0.0145713
0.0149378
0.0155898
0.0164778
0.0175806
0.0189043
0.0204246
0.0221013
0.023897
0.0257699
0.027675
0.0295658
0.031395
0.0331156
0.0346825
0.0360549
0.037197
0.038079
0.0386764
0.0389709
0.0389515
0.0386156
0.0379688
0.0370255
0.0358081
0.0343459
0.0326743
0.0308364
0.0288761
0.0268466
0.0247944
0.0227747
0.0208406
0.0190304
0.017373
0.0159086
0.0147031
0.0138246
0.0133285
0.0130988
0.0130151
0.0130255
0.0131899
0.0134586
0.0138013
0.0141953
0.0146055
0.0149873
0.0152963
0.0155501
0.0157298
0.0158065
0.0157625
0.0155834
0.0152546
0.0147646
0.0141143
0.0132863
0.012318
0.0111574
0.00991257
0.0084598
0.00695301
0.00505268
0.00337801
0.000284501
0.0474012
0.0477887
0.0484157
0.0492758
0.0503558
0.0516355
0.053087
0.0546754
0.0563597
0.058094
0.0598285
0.0615105
0.0630866
0.0645032
0.0657088
0.0666544
0.0672956
0.0675939
0.0675177
0.0670439
0.0661584
0.0648578
0.0631499
0.0610535
0.0585979
0.0558228
0.0527772
0.0495198
0.0461203
0.042645
0.0391661
0.0357579
0.0324957
0.0294451
0.0266575
0.0241838
0.0221044
0.0204945
0.0193238
0.0187269
0.018589
0.0186841
0.019038
0.019671
0.0205205
0.0215174
0.0226051
0.0237255
0.024825
0.0258068
0.0266593
0.0273838
0.0279519
0.0283403
0.0285363
0.0285342
0.0283357
0.0279468
0.0273796
0.0266525
0.0257897
0.0248203
0.0237775
0.022697
0.0216151
0.0205679
0.0195903
0.0187155
0.0179725
0.0173857
0.0169729
0.0167496
0.0167401
0.0169636
0.0174309
0.0181441
0.0190854
0.0202375
0.0215887
0.0231159
0.0247858
0.0265629
0.0284081
0.0302792
0.032132
0.0339213
0.0356015
0.0371286
0.0384634
0.0395727
0.0404295
0.0410117
0.0413033
0.0412942
0.0409817
0.0403713
0.0394775
0.0383236
0.0369348
0.0353381
0.0335818
0.0317136
0.0297664
0.0277942
0.0258418
0.0239416
0.0221371
0.0204907
0.0190555
0.0179229
0.0171039
0.016472
0.0158725
0.0153978
0.0150961
0.0149167
0.0148265
0.0148155
0.0148942
0.0149734
0.0150358
0.0151254
0.0151968
0.0152203
0.0151739
0.0150349
0.014785
0.0144086
0.0138934
0.0132361
0.012423
0.0114816
0.0103727
0.00918585
0.00781605
0.00639946
0.00464785
0.00308689
0.000313416
0.0494447
0.0499592
0.0506996
0.0516597
0.0528256
0.0541765
0.0556858
0.05732
0.0590402
0.0608023
0.0625587
0.0642594
0.0658537
0.067291
0.068523
0.069504
0.0701926
0.0705519
0.0705514
0.0701685
0.0693898
0.0682124
0.0666442
0.0647026
0.0624142
0.0598147
0.0569518
0.053884
0.0506636
0.0473558
0.0440296
0.0407437
0.0375607
0.0345494
0.0317761
0.0293005
0.0271966
0.0255735
0.0243672
0.0234792
0.022794
0.0224228
0.0223471
0.0225093
0.0228725
0.0234004
0.0240657
0.0247796
0.0254777
0.0261828
0.0268496
0.0274307
0.0278935
0.0282153
0.0283802
0.0283778
0.0282036
0.027861
0.0273607
0.0267199
0.0259613
0.0251125
0.0242047
0.0232709
0.0223443
0.0214578
0.0206431
0.0199302
0.0193461
0.0189122
0.0186438
0.0185577
0.0186716
0.0190027
0.0195563
0.0203318
0.0213202
0.0225072
0.023876
0.0254036
0.0270604
0.028813
0.0306249
0.0324566
0.0342669
0.0360126
0.0376488
0.0391319
0.0404249
0.0414993
0.0423319
0.0429017
0.043193
0.0431962
0.0429076
0.0423321
0.0414834
0.0403865
0.0390536
0.0375347
0.035862
0.034067
0.0321921
0.0302736
0.0283564
0.0264963
0.0247421
0.0231898
0.0218626
0.0207422
0.0197186
0.0187001
0.0178236
0.0170923
0.0164834
0.015984
0.0156106
0.015311
0.0150539
0.014885
0.0147758
0.0147022
0.014633
0.0145404
0.0144009
0.0141906
0.0138903
0.0134823
0.0129545
0.0123009
0.0115108
0.010605
0.00955445
0.00843152
0.00715315
0.00583039
0.00423201
0.00278826
0.000340653
0.0511472
0.0517692
0.0526035
0.053644
0.0548771
0.0562828
0.0578349
0.0595018
0.0612463
0.0630268
0.0647979
0.0665121
0.0681207
0.069576
0.0708318
0.0718453
0.0725771
0.0729926
0.0730621
0.072763
0.0720814
0.0710147
0.069572
0.0677698
0.0656312
0.0631884
0.060497
0.0575962
0.0545277
0.0513585
0.0481525
0.0449533
0.0418346
0.0388775
0.0361422
0.0337426
0.0316882
0.0299518
0.0284053
0.0270483
0.0259879
0.0252087
0.0246804
0.0243881
0.0243333
0.024486
0.0247518
0.025134
0.0256275
0.0261654
0.0266959
0.0271818
0.0275888
0.0278848
0.0280464
0.0280615
0.0279242
0.0276353
0.0272049
0.0266505
0.0259936
0.0252599
0.0244787
0.0236802
0.0228952
0.0221539
0.0214851
0.0209163
0.0204721
0.0201709
0.0200279
0.0200606
0.0202821
0.0207042
0.0213293
0.0221563
0.0231804
0.0243901
0.0257673
0.027289
0.0289276
0.030652
0.0324284
0.0342206
0.035991
0.0376994
0.039299
0.0407401
0.0419847
0.0430128
0.0438101
0.0443589
0.0446439
0.0446565
0.0443897
0.0438441
0.0430223
0.0419758
0.0407225
0.0392633
0.0376538
0.0359128
0.0340799
0.0322104
0.0303566
0.0286197
0.0269875
0.0255109
0.0241353
0.0227353
0.021414
0.0202085
0.0191169
0.0181366
0.0172901
0.0165408
0.0158643
0.0153209
0.0149104
0.014598
0.014354
0.0141562
0.0139797
0.0137971
0.0135844
0.013318
0.0129781
0.0125462
0.0120108
0.0113636
0.0105982
0.00972831
0.00873637
0.00767674
0.00648967
0.00526044
0.00381475
0.00248711
0.000365733
0.0525446
0.0532597
0.0541768
0.0552879
0.0565789
0.05803
0.0596159
0.061306
0.0630648
0.0648525
0.0666257
0.0683389
0.0699457
0.071401
0.0726627
0.0736916
0.0744513
0.0749088
0.0750348
0.0748056
0.0742084
0.0732411
0.0719141
0.0702346
0.0682315
0.0659381
0.063387
0.0606268
0.0576742
0.0545983
0.0514977
0.0483836
0.0453361
0.0425299
0.0399039
0.0375266
0.035318
0.033188
0.0312788
0.0296148
0.0282005
0.027039
0.0261678
0.0255619
0.0251343
0.024926
0.0249665
0.0251843
0.025534
0.0259607
0.0264121
0.0268439
0.0272175
0.0274986
0.0276617
0.0276973
0.0275977
0.0273603
0.0269952
0.0265203
0.0259553
0.0253254
0.0246572
0.0239784
0.0233184
0.0227044
0.0221622
0.0217174
0.0213927
0.0212017
0.0211666
0.0212985
0.0216087
0.0221058
0.0227877
0.0236531
0.0247022
0.0259248
0.0273009
0.0288074
0.0304184
0.0321048
0.0338352
0.0355759
0.0372941
0.0389558
0.040513
0.0419061
0.0430982
0.0440849
0.0448603
0.0454014
0.0456915
0.0457187
0.0454581
0.0449133
0.0441436
0.0431498
0.0419343
0.0405138
0.0389501
0.0372467
0.0354801
0.0337525
0.0320125
0.0303656
0.0287723
0.0271167
0.0254823
0.0239325
0.0224714
0.0210954
0.0198257
0.01864
0.0175447
0.0166082