/*--------------------------------*- C++ -*----------------------------------*\
| =========                 |                                                 |
| \\      /  F ield         | OpenFOAM: The Open Source CFD Toolbox           |
|  \\    /   O peration     | Version:  2206                                  |
|   \\  /    A nd           | Website:  www.openfoam.com                      |
|    \\/     M anipulation  |                                                 |
\*---------------------------------------------------------------------------*/
FoamFile
{
    version     2.0;
    format      ascii;
    arch        "LSB;label=32;scalar=64";
    class       surfaceScalarField;
    location    "19.8999";
    object      phi;
}
// * * * * * * * * * * * * * * * * * * * * * * * * * * * * * * * * * * * * * //

dimensions      [0 3 -1 0 0 0 0];

oriented        oriented;

internalField   nonuniform List<scalar> 
9439
(
2.39588e-06
-1.85081e-06
-5.4507e-07
4.14003e-06
-3.9603e-07
-1.34812e-06
5.25289e-06
1.27092e-06
-2.38378e-06
5.84747e-06
2.72207e-06
-3.31665e-06
6.02859e-06
3.77702e-06
-3.95815e-06
5.94312e-06
4.43811e-06
-4.35264e-06
5.69736e-06
4.78219e-06
-4.53643e-06
5.33769e-06
4.87514e-06
-4.51547e-06
4.87364e-06
4.76182e-06
-4.29777e-06
4.24502e-06
4.56249e-06
-3.93387e-06
3.41607e-06
4.32384e-06
-3.4949e-06
2.52583e-06
3.95743e-06
-3.06718e-06
1.84379e-06
3.34965e-06
-2.66761e-06
1.56295e-06
2.47349e-06
-2.19266e-06
1.68979e-06
1.41047e-06
-1.53731e-06
2.09622e-06
2.69049e-07
-6.7548e-07
2.66239e-06
-8.39043e-07
2.72876e-07
3.2828e-06
-1.86852e-06
1.24812e-06
3.90067e-06
-2.77693e-06
2.15906e-06
4.49138e-06
-3.56062e-06
2.9699e-06
5.04972e-06
-4.22481e-06
3.66647e-06
5.58556e-06
-4.77333e-06
4.23748e-06
6.12512e-06
-5.20061e-06
4.66105e-06
6.70999e-06
-5.48278e-06
4.89791e-06
7.38642e-06
-5.5653e-06
4.88887e-06
8.17709e-06
-5.36285e-06
4.57218e-06
9.07434e-06
-4.8034e-06
3.90615e-06
1.00392e-05
-3.86525e-06
2.90035e-06
1.09974e-05
-2.61307e-06
1.65486e-06
1.18449e-05
-1.20417e-06
3.56711e-07
1.25171e-05
1.65966e-07
-8.38221e-07
1.29958e-05
1.3728e-06
-1.8514e-06
1.32891e-05
2.35977e-06
-2.65313e-06
1.34224e-05
3.11441e-06
-3.24767e-06
1.34282e-05
3.65391e-06
-3.65976e-06
1.33372e-05
4.01088e-06
-3.91985e-06
1.31721e-05
4.22081e-06
-4.05573e-06
1.29545e-05
4.31271e-06
-4.09515e-06
1.27104e-05
4.31411e-06
-4.07e-06
1.24588e-05
4.25956e-06
-4.00796e-06
1.22103e-05
4.17645e-06
-3.92789e-06
1.19686e-05
4.08244e-06
-3.84079e-06
1.17336e-05
3.98769e-06
-3.75263e-06
1.15036e-05
3.89654e-06
-3.66655e-06
1.1277e-05
3.80968e-06
-3.58307e-06
1.10507e-05
3.72745e-06
-3.50119e-06
1.08185e-05
3.65344e-06
-3.42122e-06
1.05704e-05
3.59555e-06
-3.34746e-06
1.02967e-05
3.56143e-06
-3.28769e-06
9.99586e-06
3.54806e-06
-3.24727e-06
9.68083e-06
3.53269e-06
-3.21765e-06
9.37659e-06
3.47378e-06
-3.16955e-06
9.11259e-06
3.32284e-06
-3.05884e-06
8.91435e-06
3.04012e-06
-2.84188e-06
8.79777e-06
2.60718e-06
-2.49059e-06
8.76579e-06
2.03368e-06
-2.0017e-06
8.81621e-06
1.34856e-06
-1.39898e-06
8.93815e-06
5.94934e-07
-7.16874e-07
9.11032e-06
-1.70308e-07
-1.85918e-09
9.31656e-06
-9.00489e-07
6.94252e-07
9.54263e-06
-1.5691e-06
1.34303e-06
9.7754e-06
-2.15883e-06
1.92607e-06
1.00037e-05
-2.66108e-06
2.43276e-06
1.02188e-05
-3.075e-06
2.85993e-06
1.04142e-05
-3.406e-06
3.21054e-06
1.0586e-05
-3.66429e-06
3.49255e-06
1.07317e-05
-3.86291e-06
3.71718e-06
1.08506e-05
-4.01672e-06
3.89789e-06
1.09429e-05
-4.14089e-06
4.04857e-06
1.10111e-05
-4.24867e-06
4.18048e-06
1.10603e-05
-4.34784e-06
4.29859e-06
1.10969e-05
-4.43691e-06
4.40035e-06
1.11257e-05
-4.50817e-06
4.4794e-06
1.11487e-05
-4.55284e-06
4.52979e-06
1.11682e-05
-4.56444e-06
4.5449e-06
1.11921e-05
-4.525e-06
4.50115e-06
1.1218e-05
-4.37513e-06
4.34925e-06
1.12486e-05
-4.11648e-06
4.08585e-06
1.1284e-05
-3.73921e-06
3.70385e-06
1.13229e-05
-3.2421e-06
3.20313e-06
1.13641e-05
-2.63478e-06
2.59362e-06
1.1406e-05
-1.93731e-06
1.89545e-06
1.14465e-05
-1.18017e-06
1.13964e-06
1.14814e-05
-4.064e-07
3.71528e-07
1.15073e-05
3.42215e-07
-3.68161e-07
1.15212e-05
1.03868e-06
-1.05258e-06
1.15206e-05
1.66214e-06
-1.66154e-06
1.1504e-05
2.19918e-06
-2.18256e-06
1.14708e-05
2.64378e-06
-2.61062e-06
1.14214e-05
2.99661e-06
-2.94715e-06
1.13564e-05
3.26366e-06
-3.19867e-06
1.12767e-05
3.45455e-06
-3.37493e-06
1.11827e-05
3.58066e-06
-3.48665e-06
1.10736e-05
3.65247e-06
-3.54338e-06
3.67936e-06
-3.55546e-06
5.03234e-07
-2.35404e-06
1.38906e-06
-1.28185e-06
2.25299e-06
4.06987e-07
2.94029e-06
2.03476e-06
3.31799e-06
3.39932e-06
3.37722e-06
4.37888e-06
3.15035e-06
5.00906e-06
2.65236e-06
5.37313e-06
1.92448e-06
5.4897e-06
1.11469e-06
5.37228e-06
4.57683e-07
4.98085e-06
1.40728e-07
4.27438e-06
2.09273e-07
3.28111e-06
6.0285e-07
2.07991e-06
1.22353e-06
7.89786e-07
1.94036e-06
-4.47774e-07
2.68712e-06
-1.58581e-06
3.40184e-06
-2.58324e-06
4.05495e-06
-3.43005e-06
4.62608e-06
-4.13175e-06
5.10818e-06
-4.7069e-06
5.51033e-06
-5.17548e-06
5.85685e-06
-5.54713e-06
6.19105e-06
-5.81698e-06
6.57678e-06
-5.95103e-06
7.08888e-06
-5.87494e-06
7.75485e-06
-5.46937e-06
8.55376e-06
-4.66416e-06
9.43978e-06
-3.4991e-06
1.03224e-05
-2.08679e-06
1.11046e-05
-6.16204e-07
1.17374e-05
7.39994e-07
1.22029e-05
1.89425e-06
1.25067e-05
2.81057e-06
1.2669e-05
3.4917e-06
1.27167e-05
3.96317e-06
1.26761e-05
4.2614e-06
1.25648e-05
4.42398e-06
1.24025e-05
4.4764e-06
1.22096e-05
4.45249e-06
1.20024e-05
4.38362e-06
1.17909e-05
4.294e-06
1.15792e-05
4.19932e-06
1.13687e-05
4.10706e-06
1.11581e-05
4.02027e-06
1.09431e-05
3.94251e-06
1.07152e-05
3.8813e-06
1.04648e-05
3.8459e-06
1.01872e-05
3.83903e-06
9.88879e-06
3.84651e-06
9.58785e-06
3.83363e-06
9.30996e-06
3.75167e-06
9.08089e-06
3.55191e-06
8.92084e-06
3.20017e-06
8.84135e-06
2.68666e-06
8.84634e-06
2.02869e-06
8.92994e-06
1.26495e-06
9.07591e-06
4.48969e-07
9.26435e-06
-3.58746e-07
9.4806e-06
-1.11674e-06
9.71021e-06
-1.79871e-06
9.9401e-06
-2.38873e-06
1.01595e-05
-2.88044e-06
1.03601e-05
-3.27562e-06
1.05366e-05
-3.58248e-06
1.06859e-05
-3.81358e-06
1.08068e-05
-3.98382e-06
1.08995e-05
-4.10942e-06
1.09647e-05
-4.2061e-06
1.10037e-05
-4.28769e-06
1.10197e-05
-4.36382e-06
1.10189e-05
-4.43614e-06
1.10093e-05
-4.49854e-06
1.09964e-05
-4.53994e-06
1.09806e-05
-4.54867e-06
1.09587e-05
-4.50312e-06
1.09437e-05
-4.36014e-06
1.09371e-05
-4.10983e-06
1.09388e-05
-3.74096e-06
1.09487e-05
-3.25199e-06
1.09665e-05
-2.65254e-06
1.09917e-05
-1.96256e-06
1.10233e-05
-1.2117e-06
1.10572e-05
-4.40317e-07
1.10899e-05
3.09502e-07
1.11175e-05
1.01103e-06
1.11365e-05
1.64313e-06
1.1144e-05
2.19169e-06
1.1138e-05
2.64984e-06
1.11172e-05
3.01734e-06
1.10815e-05
3.29939e-06
1.10308e-05
3.50522e-06
1.09652e-05
3.64626e-06
1.08836e-05
3.73411e-06
3.77844e-06
-2.61687e-07
-2.09235e-06
-3.606e-07
-1.18294e-06
-2.37517e-07
2.83904e-07
-3.88166e-08
1.83606e-06
8.4182e-08
3.27632e-06
3.00434e-08
4.43302e-06
-2.1473e-07
5.25383e-06
-5.68338e-07
5.72674e-06
-9.29386e-07
5.85074e-06
-1.14077e-06
5.58367e-06
-1.10184e-06
4.94192e-06
-7.92157e-07
3.9647e-06
-2.20777e-07
2.70973e-06
5.50293e-07
1.30884e-06
1.39717e-06
-5.70869e-08
2.26507e-06
-1.31567e-06
3.09613e-06
-2.41687e-06
3.85589e-06
-3.34301e-06
4.51649e-06
-4.09064e-06
5.05878e-06
-4.67404e-06
5.4744e-06
-5.12252e-06
5.77224e-06
-5.47332e-06
5.9775e-06
-5.75239e-06
6.12252e-06
-5.962e-06
6.25271e-06
-6.08122e-06
6.4605e-06
-6.08274e-06
6.83133e-06
-5.8402e-06
7.38384e-06
-5.21668e-06
8.09484e-06
-4.2101e-06
8.90269e-06
-2.89464e-06
9.70709e-06
-1.4206e-06
1.04284e-05
1.86565e-08
1.10239e-05
1.29874e-06
1.14768e-05
2.35769e-06
1.17898e-05
3.17876e-06
1.19774e-05
3.77555e-06
1.20618e-05
4.17694e-06
1.20679e-05
4.41789e-06
1.20092e-05
4.53517e-06
1.18989e-05
4.56279e-06
1.17515e-05
4.53097e-06
1.15846e-05
4.4609e-06
1.14084e-05
4.37557e-06
1.1227e-05
4.28844e-06
1.10396e-05
4.20766e-06
1.08406e-05
4.14146e-06
1.0622e-05
4.09996e-06
1.03774e-05
4.09047e-06
1.01083e-05
4.10816e-06
9.82625e-06
4.12852e-06
9.5515e-06
4.10838e-06
9.30775e-06
3.99542e-06
9.11744e-06
3.74222e-06
8.99817e-06
3.31944e-06
8.95941e-06
2.72542e-06
9.001e-06
1.98709e-06
9.11388e-06
1.15208e-06
9.2808e-06
2.82044e-07
9.48328e-06
-5.6122e-07
9.70617e-06
-1.33964e-06
9.93483e-06
-2.02736e-06
1.01565e-05
-2.6104e-06
1.03611e-05
-3.08506e-06
1.05417e-05
-3.45616e-06
1.06941e-05
-3.7349e-06
1.08164e-05
-3.93589e-06
1.09084e-05
-4.07584e-06
1.09712e-05
-4.17225e-06
1.10068e-05
-4.24162e-06
1.10168e-05
-4.29772e-06
1.10018e-05
-4.34887e-06
1.09661e-05
-4.40042e-06
1.09179e-05
-4.45028e-06
1.08644e-05
-4.48652e-06
1.08082e-05
-4.4924e-06
1.07481e-05
-4.44306e-06
1.06962e-05
-4.30823e-06
1.06542e-05
-4.06785e-06
1.06235e-05
-3.71022e-06
1.06051e-05
-3.23362e-06
1.06e-05
-2.64742e-06
1.06086e-05
-1.9712e-06
1.06303e-05
-1.23339e-06
1.06619e-05
-4.71873e-07
1.06993e-05
2.72054e-07
1.07383e-05
9.72046e-07
1.07744e-05
1.60708e-06
1.08035e-05
2.16259e-06
1.08223e-05
2.63097e-06
1.08286e-05
3.01112e-06
1.08207e-05
3.30729e-06
1.07978e-05
3.52808e-06
1.07594e-05
3.68464e-06
1.07045e-05
3.78899e-06
3.85185e-06
-6.76681e-07
-1.41567e-06
-1.29206e-06
-5.67558e-07
-1.71708e-06
7.08916e-07
-1.98924e-06
2.10823e-06
-2.14419e-06
3.43127e-06
-2.23398e-06
4.52281e-06
-2.2823e-06
5.30215e-06
-2.26803e-06
5.71247e-06
-2.16705e-06
5.74976e-06
-1.91914e-06
5.33575e-06
-1.46373e-06
4.48651e-06
-7.60984e-07
3.26196e-06
1.2022e-07
1.82852e-06
1.06977e-06
3.59288e-07
2.03135e-06
-1.01867e-06
2.96039e-06
-2.24471e-06
3.8193e-06
-3.27578e-06
4.57484e-06
-4.09854e-06
5.20446e-06
-4.72027e-06
5.69532e-06
-5.16489e-06
6.03974e-06
-5.46695e-06
6.23897e-06
-5.67254e-06
6.31719e-06
-5.83061e-06
6.32222e-06
-5.96703e-06
6.29995e-06
-6.05896e-06
6.28705e-06
-6.06983e-06
6.35277e-06
-5.90593e-06
6.60522e-06
-5.46912e-06
7.07973e-06
-4.6846e-06
7.72475e-06
-3.53966e-06
8.46196e-06
-2.15782e-06
9.19491e-06
-7.14287e-07
9.86079e-06
6.32858e-07
1.04206e-05
1.79785e-06
1.08584e-05
2.74095e-06
1.11757e-05
3.45829e-06
1.13847e-05
3.96797e-06
1.15023e-05
4.30027e-06
1.15459e-05
4.49155e-06
1.15309e-05
4.57784e-06
1.14637e-05
4.5981e-06
1.13567e-05
4.56792e-06
1.12272e-05
4.50512e-06
1.10832e-05
4.4324e-06
1.09249e-05
4.36598e-06
1.07475e-05
4.31887e-06
1.05454e-05
4.30206e-06
1.0317e-05
4.31881e-06
1.00688e-05
4.35639e-06
9.8152e-06
4.38214e-06
9.576e-06
4.34758e-06
9.37334e-06
4.19808e-06
9.22797e-06
3.88759e-06
9.1544e-06
3.39302e-06
9.15788e-06
2.72194e-06
9.23537e-06
1.90961e-06
9.37645e-06
1.011e-06
9.56201e-06
9.64894e-08
9.77476e-06
-7.73972e-07
9.99907e-06
-1.56395e-06
1.02204e-05
-2.24871e-06
1.04267e-05
-2.8167e-06
1.06094e-05
-3.26774e-06
1.07631e-05
-3.60985e-06
1.08854e-05
-3.85724e-06
1.0976e-05
-4.02646e-06
1.10357e-05
-4.13557e-06
1.10668e-05
-4.20337e-06
1.10712e-05
-4.24598e-06
1.10488e-05
-4.27533e-06
1.10016e-05
-4.30172e-06
1.09338e-05
-4.33255e-06
1.08507e-05
-4.36719e-06
1.07592e-05
-4.39502e-06
1.06641e-05
-4.39735e-06
1.05698e-05
-4.34872e-06
1.04827e-05
-4.22118e-06
1.04071e-05
-3.99225e-06
1.03459e-05
-3.64893e-06
1.03011e-05
-3.18884e-06
1.02745e-05
-2.62085e-06
1.02672e-05
-1.9639e-06
1.0279e-05
-1.24518e-06
1.03072e-05
-5.00089e-07
1.03476e-05
2.31613e-07
1.03957e-05
9.24036e-07
1.04461e-05
1.5566e-06
1.04942e-05
2.11455e-06
1.05354e-05
2.58974e-06
1.05663e-05
2.98022e-06
1.05842e-05
3.28935e-06
1.05873e-05
3.52499e-06
1.05743e-05
3.69765e-06
1.05442e-05
3.81914e-06
3.90073e-06
-8.73572e-07
-1.63278e-06
-2.15107e-06
-2.45401e-06
-2.58311e-06
-2.6039e-06
-2.54987e-06
-2.4272e-06
-2.1316e-06
-1.58315e-06
-8.03729e-07
1.26483e-07
1.12995e-06
2.14826e-06
3.14013e-06
4.06051e-06
4.87856e-06
5.57055e-06
6.12389e-06
6.5406e-06
6.82061e-06
6.95548e-06
6.93018e-06
6.77367e-06
6.56051e-06
6.36286e-06
6.23488e-06
6.23138e-06
6.43093e-06
6.86339e-06
7.46123e-06
8.13511e-06
8.80531e-06
9.42026e-06
9.94653e-06
1.03697e-05
1.06894e-05
1.09133e-05
1.1054e-05
1.11249e-05
1.11427e-05
1.11123e-05
1.10415e-05
1.09425e-05
1.08189e-05
1.06691e-05
1.04918e-05
1.02902e-05
1.00745e-05
9.85959e-06
9.66467e-06
9.51155e-06
9.41807e-06
9.39404e-06
9.44143e-06
9.55528e-06
9.72301e-06
9.92416e-06
1.01422e-05
1.03613e-05
1.05679e-05
1.07511e-05
1.09047e-05
1.10254e-05
1.11125e-05
1.11679e-05
1.11941e-05
1.11919e-05
1.11611e-05
1.11032e-05
1.10224e-05
1.09225e-05
1.08077e-05
1.0683e-05
1.05538e-05
1.04262e-05
1.03065e-05
1.02003e-05
1.01114e-05
1.00428e-05
9.99677e-06
9.97471e-06
9.97677e-06
1.00008e-05
1.00424e-05
1.00968e-05
1.01585e-05
1.02221e-05
1.02823e-05
1.03346e-05
1.03755e-05
3.24846e-06
1.04022e-05
3.4983e-06
1.04127e-05
3.6871e-06
1.04057e-05
3.82616e-06
3.92639e-06
1.02019e-05
1.02497e-05
1.02813e-05
1.0295e-05
6.07856e-06
1.15133e-07
5.9549e-06
1.23652e-07
5.82259e-06
1.32317e-07
5.68145e-06
1.41143e-07
5.53132e-06
1.5013e-07
5.37206e-06
1.59257e-07
5.20357e-06
1.68493e-07
5.02577e-06
1.77794e-07
4.83865e-06
1.8712e-07
4.64252e-06
1.96133e-07
4.43789e-06
2.04627e-07
4.22542e-06
2.12471e-07
4.00603e-06
2.19395e-07
3.78106e-06
2.2497e-07
3.55234e-06
2.28718e-07
3.32341e-06
2.28929e-07
3.09887e-06
2.24536e-07
2.88215e-06
2.16727e-07
2.6749e-06
2.07249e-07
2.47769e-06
1.97206e-07
2.29058e-06
1.87114e-07
2.11332e-06
1.77257e-07
1.94552e-06
1.67802e-07
1.7867e-06
1.58821e-07
1.63637e-06
1.50323e-07
1.49408e-06
1.42296e-07
1.35937e-06
1.34707e-07
1.23188e-06
1.2749e-07
1.11135e-06
1.20531e-07
9.97641e-07
1.1371e-07
8.90702e-07
1.0694e-07
7.90625e-07
1.00076e-07
6.977e-07
9.29252e-08
6.12421e-07
8.52794e-08
5.34966e-07
7.74543e-08
4.64909e-07
7.00575e-08
4.01972e-07
6.29369e-08
3.46321e-07
5.56512e-08
2.98091e-07
4.82299e-08
2.57003e-07
4.10884e-08
2.22079e-07
3.49236e-08
1.91492e-07
3.05874e-08
1.62824e-07
2.86673e-08
1.33532e-07
2.92924e-08
1.01285e-07
3.22471e-08
6.35371e-08
3.77476e-08
1.82889e-08
4.52483e-08
-3.48318e-08
5.31207e-08
5.97212e-08
-9.4553e-08
1.17908e-05
1.67141e-07
1.17313e-05
1.83124e-07
1.16643e-05
1.99381e-07
1.15895e-05
2.15934e-07
1.15068e-05
2.32785e-07
1.14162e-05
2.49908e-07
1.13174e-05
2.67234e-07
1.12105e-05
2.84724e-07
1.1095e-05
3.02652e-07
1.0971e-05
3.20123e-07
1.08387e-05
3.36904e-07
1.06982e-05
3.5295e-07
1.05498e-05
3.67839e-07
1.03935e-05
3.81254e-07
1.02295e-05
3.92731e-07
1.00565e-05
4.01876e-07
9.87268e-06
4.08397e-07
9.67729e-06
4.12116e-07
9.47111e-06
4.13425e-07
9.25537e-06
4.12949e-07
9.03129e-06
4.11197e-07
8.8e-06
4.08546e-07
8.56251e-06
4.05296e-07
8.31965e-06
4.01676e-07
8.07211e-06
3.97865e-07
7.8204e-06
3.94007e-07
7.56491e-06
3.90196e-07
7.30593e-06
3.86472e-07
7.04359e-06
3.82864e-07
6.77794e-06
3.79359e-07
6.50895e-06
3.75931e-07
6.2365e-06
3.72525e-07
5.96038e-06
3.69049e-07
5.68023e-06
3.65424e-07
5.39628e-06
3.61406e-07
5.10966e-06
3.56679e-07
4.82123e-06
3.51372e-07
4.53105e-06
3.4583e-07
4.23904e-06
3.40239e-07
3.9454e-06
3.34727e-07
3.65093e-06
3.29392e-07
3.35736e-06
3.24157e-07
3.0672e-06
3.1883e-07
2.7834e-06
3.13095e-07
2.50895e-06
3.06691e-07
2.24698e-06
2.9972e-07
2.00011e-06
2.92123e-07
1.7699e-06
2.83325e-07
2.7294e-07
1.55668e-06
1.37846e-05
1.76718e-07
1.37704e-05
1.9731e-07
1.37516e-05
2.18182e-07
1.37282e-05
2.39357e-07
1.37001e-05
2.60843e-07
1.36674e-05
2.82619e-07
1.363e-05
3.04624e-07
1.35879e-05
3.2682e-07
1.35411e-05
3.49481e-07
1.34895e-05
3.71738e-07
1.3433e-05
3.93378e-07
1.33716e-05
4.1437e-07
1.3305e-05
4.34388e-07
1.32331e-05
4.53161e-07
1.31556e-05
4.70252e-07
1.30722e-05
4.85299e-07
1.29825e-05
4.98088e-07
1.2886e-05
5.08577e-07
1.27825e-05
5.16961e-07
1.26718e-05
5.23591e-07
1.25542e-05
5.28824e-07
1.24298e-05
5.32958e-07
1.22989e-05
5.36245e-07
1.21616e-05
5.38892e-07
1.20184e-05
5.41128e-07
1.18692e-05
5.43167e-07
1.17143e-05
5.45138e-07
1.15536e-05
5.47147e-07
1.13872e-05
5.49288e-07
1.12149e-05
5.51631e-07
1.10366e-05
5.54228e-07
1.0852e-05
5.57114e-07
1.06608e-05
5.60315e-07
1.04623e-05
5.63859e-07
1.02558e-05
5.67881e-07
1.004e-05
5.72531e-07
9.8136e-06
5.7777e-07
9.5759e-06
5.83522e-07
9.32634e-06
5.89805e-07
9.06442e-06
5.96642e-07
8.78983e-06
6.03984e-07
8.50235e-06
6.11639e-07
8.20193e-06
6.1925e-07
7.8887e-06
6.26322e-07
7.56307e-06
6.32324e-07
7.22627e-06
6.36519e-07
6.88016e-06
6.38232e-07
6.52683e-06
6.36657e-07
6.31149e-07
6.16862e-06
1.43611e-05
1.69066e-07
1.43656e-05
1.92775e-07
1.43671e-05
2.1667e-07
1.43657e-05
2.40774e-07
1.43615e-05
2.65108e-07
1.43544e-05
2.89669e-07
1.43446e-05
3.14429e-07
1.43321e-05
3.39346e-07
1.43172e-05
3.64349e-07
1.42998e-05
3.89121e-07
1.42798e-05
4.13451e-07
1.4257e-05
4.37164e-07
1.42313e-05
4.60017e-07
1.42028e-05
4.81735e-07
1.4171e-05
5.02003e-07
1.41358e-05
5.20552e-07
1.40966e-05
5.37213e-07
1.40533e-05
5.5194e-07
1.40054e-05
5.64815e-07
1.3953e-05
5.7603e-07
1.3896e-05
5.85824e-07
1.38345e-05
5.94442e-07
1.37686e-05
6.02124e-07
1.36984e-05
6.09104e-07
1.3624e-05
6.15559e-07
1.35455e-05
6.21646e-07
1.34631e-05
6.2756e-07
1.33767e-05
6.33477e-07
1.32865e-05
6.39547e-07
1.31922e-05
6.45905e-07
1.30938e-05
6.52666e-07
1.2991e-05
6.59935e-07
1.28835e-05
6.67795e-07
1.2771e-05
6.7632e-07
1.26532e-05
6.85679e-07
1.25297e-05
6.96033e-07
1.24001e-05
7.07394e-07
1.22639e-05
7.19736e-07
1.21206e-05
7.33049e-07
1.197e-05
7.47297e-07
1.18116e-05
7.62358e-07
1.16453e-05
7.77985e-07
1.14707e-05
7.938e-07
1.12877e-05
8.0928e-07
1.10963e-05
8.23787e-07
1.08962e-05
8.36571e-07
1.06876e-05
8.46868e-07
1.04704e-05
8.53893e-07
8.56937e-07
1.02446e-05
1.45158e-05
1.56496e-07
1.4526e-05
1.82664e-07
1.45337e-05
2.08902e-07
1.45393e-05
2.3522e-07
1.45427e-05
2.61664e-07
1.45441e-05
2.88248e-07
1.45436e-05
3.14935e-07
1.45413e-05
3.41688e-07
1.45372e-05
3.68425e-07
1.45314e-05
3.94952e-07
1.45237e-05
4.21125e-07
1.45142e-05
4.46676e-07
1.45028e-05
4.71407e-07
1.44895e-05
4.95085e-07
1.4474e-05
5.17426e-07
1.44563e-05
5.3827e-07
1.44361e-05
5.57437e-07
1.44132e-05
5.74851e-07
1.43875e-05
5.90528e-07
1.43589e-05
6.04572e-07
1.43276e-05
6.17146e-07
1.42936e-05
6.2844e-07
1.42571e-05
6.38658e-07
1.42182e-05
6.48012e-07
1.4177e-05
6.56711e-07
1.41337e-05
6.64951e-07
1.40883e-05
6.72934e-07
1.40409e-05
6.80865e-07
1.39916e-05
6.88935e-07
1.39401e-05
6.97325e-07
1.38866e-05
7.06195e-07
1.38308e-05
7.15706e-07
1.37726e-05
7.26008e-07
1.37117e-05
7.37232e-07
1.36479e-05
7.49502e-07
1.3581e-05
7.62907e-07
1.35109e-05
7.77463e-07
1.34375e-05
7.93162e-07
1.33606e-05
8.09982e-07
1.328e-05
8.2784e-07
1.31959e-05
8.46544e-07
1.3108e-05
8.65846e-07
1.30164e-05
8.85405e-07
1.2921e-05
9.04714e-07
1.28216e-05
9.23169e-07
1.27181e-05
9.40089e-07
1.26102e-05
9.54755e-07
1.24976e-05
9.66454e-07
9.74512e-07
1.238e-05
1.45477e-05
1.42033e-07
1.45598e-05
1.70498e-07
1.45698e-05
1.98901e-07
1.45778e-05
2.27255e-07
1.45838e-05
2.55624e-07
1.4588e-05
2.84052e-07
1.45905e-05
3.12497e-07
1.45912e-05
3.40954e-07
1.45903e-05
3.69355e-07
1.45877e-05
3.97526e-07
1.45834e-05
4.25371e-07
1.45775e-05
4.52627e-07
1.45698e-05
4.79127e-07
1.45602e-05
5.04633e-07
1.45488e-05
5.28864e-07
1.45354e-05
5.51681e-07
1.45199e-05
5.72886e-07
1.45024e-05
5.92369e-07
1.44828e-05
6.10098e-07
1.44613e-05
6.26123e-07
1.44379e-05
6.40552e-07
1.44128e-05
6.53535e-07
1.43862e-05
6.6525e-07
1.43583e-05
6.75904e-07
1.43293e-05
6.85719e-07
1.42993e-05
6.94925e-07
1.42685e-05
7.03753e-07
1.42369e-05
7.12441e-07
1.42046e-05
7.2122e-07
1.41717e-05
7.30308e-07
1.4138e-05
7.39903e-07
1.41035e-05
7.50193e-07
1.40682e-05
7.61314e-07
1.4032e-05
7.73419e-07
1.39947e-05
7.86771e-07
1.39562e-05
8.01398e-07
1.39165e-05
8.17187e-07
1.38755e-05
8.3416e-07
1.38332e-05
8.52286e-07
1.37896e-05
8.71451e-07
1.37446e-05
8.91469e-07
1.36985e-05
9.12039e-07
1.36511e-05
9.32754e-07
1.36026e-05
9.53174e-07
1.3553e-05
9.72778e-07
1.35022e-05
9.90918e-07
1.345e-05
1.00694e-06
1.33962e-05
1.02025e-06
1.03026e-06
1.33405e-05
1.45653e-05
1.27532e-07
1.45776e-05
1.58189e-07
1.45879e-05
1.88643e-07
1.45962e-05
2.18948e-07
1.46027e-05
2.49176e-07
1.46073e-05
2.79401e-07
1.46102e-05
3.09608e-07
1.46113e-05
3.39806e-07
1.46108e-05
3.69936e-07
1.46084e-05
3.9986e-07
1.46043e-05
4.29468e-07
1.45984e-05
4.58535e-07
1.45907e-05
4.86862e-07
1.45811e-05
5.14226e-07
1.45696e-05
5.40363e-07
1.45562e-05
5.65073e-07
1.45409e-05
5.88167e-07
1.45238e-05
6.09501e-07
1.45049e-05
6.29009e-07
1.44843e-05
6.467e-07
1.44622e-05
6.6263e-07
1.44388e-05
6.76911e-07
1.44144e-05
6.897e-07
1.43891e-05
7.01198e-07
1.43632e-05
7.11634e-07
1.43368e-05
7.21264e-07
1.43103e-05
7.30348e-07
1.42835e-05
7.39159e-07
1.42568e-05
7.47971e-07
1.42301e-05
7.57035e-07
1.42034e-05
7.66598e-07
1.41767e-05
7.76881e-07
1.41499e-05
7.88122e-07
1.41228e-05
8.00472e-07
1.40957e-05
8.1388e-07
1.40686e-05
8.28478e-07
1.40414e-05
8.44447e-07
1.40138e-05
8.61712e-07
1.3986e-05
8.80134e-07
1.39579e-05
8.99539e-07
1.39297e-05
9.19685e-07
1.39014e-05
9.40299e-07
1.38732e-05
9.60986e-07
1.3845e-05
9.81305e-07
1.3817e-05
1.00078e-06
1.37893e-05
1.01869e-06
1.37617e-05
1.03451e-06
1.37341e-05
1.04786e-06
1.05812e-06
1.37062e-05
1.45873e-05
1.13423e-07
1.45993e-05
1.46188e-07
1.46093e-05
1.78602e-07
1.46175e-05
2.10772e-07
1.46239e-05
2.42799e-07
1.46285e-05
2.74792e-07
1.46313e-05
3.06778e-07
1.46324e-05
3.38775e-07
1.46316e-05
3.70752e-07
1.46288e-05
4.02593e-07
1.46241e-05
4.34178e-07
1.46173e-05
4.65294e-07
1.46085e-05
4.95713e-07
1.45975e-05
5.25185e-07
1.45845e-05
5.53429e-07
1.45694e-05
5.80195e-07
1.45523e-05
6.0526e-07
1.45333e-05
6.28441e-07
1.45127e-05
6.4963e-07
1.44906e-05
6.68791e-07
1.44673e-05
6.85944e-07
1.4443e-05
7.01186e-07
1.4418e-05
7.14669e-07
1.43926e-05
7.26597e-07
1.43671e-05
7.37225e-07
1.43415e-05
7.46834e-07
1.43161e-05
7.5573e-07
1.4291e-05
7.64233e-07
1.42664e-05
7.72654e-07
1.42421e-05
7.81298e-07
1.42182e-05
7.90448e-07
1.41948e-05
8.00337e-07
1.41717e-05
8.1119e-07
1.4149e-05
8.2322e-07
1.41263e-05
8.36524e-07
1.41037e-05
8.51118e-07
1.40811e-05
8.67053e-07
1.40585e-05
8.84303e-07
1.40359e-05
9.02725e-07
1.40133e-05
9.2211e-07
1.39908e-05
9.42177e-07
1.39685e-05
9.62632e-07
1.39464e-05
9.83075e-07
1.39246e-05
1.00308e-06
1.39032e-05
1.02218e-06
1.38823e-05
1.03968e-06
1.38616e-05
1.05512e-06
1.38415e-05
1.06805e-06
1.07794e-06
1.38216e-05
1.4615e-05
9.99203e-08
1.46265e-05
1.3467e-07
1.46362e-05
1.68915e-07
1.46442e-05
2.02833e-07
1.46504e-05
2.36572e-07
1.46549e-05
2.70282e-07
1.46576e-05
3.04052e-07
1.46585e-05
3.37917e-07
1.46574e-05
3.7187e-07
1.46541e-05
4.05818e-07
1.46487e-05
4.39619e-07
1.46409e-05
4.7307e-07
1.46307e-05
5.05898e-07
1.46181e-05
5.37806e-07
1.46031e-05
5.68466e-07
1.45857e-05
5.97566e-07
1.45661e-05
6.2482e-07
1.45446e-05
6.49989e-07
1.45213e-05
6.72911e-07
1.44966e-05
6.93496e-07
1.44708e-05
7.11738e-07
1.44443e-05
7.27718e-07
1.44174e-05
7.41588e-07
1.43904e-05
7.53576e-07
1.43636e-05
7.63966e-07
1.43374e-05
7.73087e-07
1.43118e-05
7.81308e-07
1.4287e-05
7.89008e-07
1.42631e-05
7.9656e-07
1.42401e-05
8.04333e-07
1.42179e-05
8.12658e-07
1.41964e-05
8.21802e-07
1.41756e-05
8.32036e-07
1.41552e-05
8.43571e-07
1.41352e-05
8.56543e-07
1.41153e-05
8.70988e-07
1.40955e-05
8.86904e-07
1.40756e-05
9.04229e-07
1.40555e-05
9.228e-07
1.40352e-05
9.42372e-07
1.40148e-05
9.62633e-07
1.39942e-05
9.83228e-07
1.39735e-05
1.00376e-06
1.39528e-05
1.02377e-06
1.39322e-05
1.04273e-06
1.39118e-05
1.06009e-06
1.38916e-05
1.07537e-06
1.38716e-05
1.08802e-06
1.09761e-06
1.38519e-05
1.46473e-05
8.72335e-08
1.46582e-05
1.23788e-07
1.46674e-05
1.59678e-07
1.46751e-05
1.95153e-07
1.46812e-05
2.30451e-07
1.46857e-05
2.65783e-07
1.46885e-05
3.01289e-07
1.46893e-05
3.37053e-07
1.46881e-05
3.73095e-07
1.46846e-05
4.09345e-07
1.46786e-05
4.45643e-07
1.46699e-05
4.81756e-07
1.46584e-05
5.17363e-07
1.46441e-05
5.52109e-07
1.4627e-05
5.8558e-07
1.46072e-05
6.17375e-07
1.45849e-05
6.47121e-07
1.45604e-05
6.745e-07
1.4534e-05
6.99275e-07
1.45062e-05
7.21306e-07
1.44774e-05
7.40554e-07
1.4448e-05
7.57086e-07
1.44185e-05
7.7107e-07
1.43893e-05
7.82763e-07
1.43608e-05
7.925e-07
1.43332e-05
8.00674e-07
1.43068e-05
8.07729e-07
1.42817e-05
8.14124e-07
1.42579e-05
8.20315e-07
1.42355e-05
8.26755e-07
1.42143e-05
8.33845e-07
1.41942e-05
8.41883e-07
1.41751e-05
8.51191e-07
1.41566e-05
8.62026e-07
1.41386e-05
8.74539e-07
1.41208e-05
8.8879e-07
1.4103e-05
9.04746e-07
1.40849e-05
9.223e-07
1.40665e-05
9.41255e-07
1.40475e-05
9.6133e-07
1.4028e-05
9.82169e-07
1.40078e-05
1.00336e-06
1.39871e-05
1.02445e-06
1.39659e-05
1.04497e-06
1.39443e-05
1.06436e-06
1.39223e-05
1.08206e-06
1.39001e-05
1.09756e-06
1.38779e-05
1.11032e-06
1.11989e-06
1.38556e-05
1.46837e-05
7.56242e-08
1.46938e-05
1.13731e-07
1.47025e-05
1.50983e-07
1.47099e-05
1.87743e-07
1.47159e-05
2.24377e-07
1.47206e-05
2.61156e-07
1.47236e-05
2.98287e-07
1.47247e-05
3.35932e-07
1.47236e-05
3.74158e-07
1.47201e-05
4.12914e-07
1.47137e-05
4.52028e-07
1.47042e-05
4.91208e-07
1.46915e-05
5.30058e-07
1.46755e-05
5.68125e-07
1.46562e-05
6.049e-07
1.46337e-05
6.39852e-07
1.46084e-05
6.72484e-07
1.45805e-05
7.02369e-07
1.45506e-05
7.29179e-07
1.45192e-05
7.5271e-07
1.44868e-05
7.72887e-07
1.44542e-05
7.89774e-07
1.44217e-05
8.0356e-07
1.43899e-05
8.1455e-07
1.43592e-05
8.23148e-07
1.43301e-05
8.29837e-07
1.43026e-05
8.35157e-07
1.42771e-05
8.39672e-07
1.42535e-05
8.43944e-07
1.42317e-05
8.48537e-07
1.42116e-05
8.53949e-07
1.41929e-05
8.60517e-07
1.41755e-05
8.68613e-07
1.4159e-05
8.7856e-07
1.4143e-05
8.90534e-07
1.41272e-05
9.04606e-07
1.41112e-05
9.2072e-07
1.40948e-05
9.3873e-07
1.40776e-05
9.58394e-07
1.40596e-05
9.79379e-07
1.40405e-05
1.00127e-06
1.40202e-05
1.02361e-06
1.39988e-05
1.04586e-06
1.39763e-05
1.0675e-06
1.39527e-05
1.08794e-06
1.39282e-05
1.10659e-06
1.39029e-05
1.12288e-06
1.38769e-05
1.13627e-06
1.14629e-06
1.38505e-05
1.47235e-05
6.54056e-08
1.47325e-05
1.04708e-07
1.47406e-05
1.42916e-07
1.47477e-05
1.80594e-07
1.47539e-05
2.18227e-07
1.47589e-05
2.56154e-07
1.47624e-05
2.94714e-07
1.47642e-05
3.34172e-07
1.47637e-05
3.74658e-07
1.47605e-05
4.16145e-07
1.47541e-05
4.58441e-07
1.47441e-05
5.01189e-07
1.47303e-05
5.43881e-07
1.47125e-05
5.85905e-07
1.46908e-05
6.26618e-07
1.46653e-05
6.65333e-07
1.46364e-05
7.01374e-07
1.46046e-05
7.34168e-07
1.45705e-05
7.63268e-07
1.45348e-05
7.88389e-07
1.44983e-05
8.09421e-07
1.44616e-05
8.26428e-07
1.44256e-05
8.39637e-07
1.43907e-05
8.49427e-07
1.43575e-05
8.56293e-07
1.43265e-05
8.60833e-07
1.4298e-05
8.63717e-07
1.4272e-05
8.65645e-07
1.42486e-05
8.6731e-07
1.42278e-05
8.69417e-07
1.42091e-05
8.72608e-07
1.41923e-05
8.77289e-07
1.41771e-05
8.83861e-07
1.41629e-05
8.9272e-07
1.41494e-05
9.04075e-07
1.4136e-05
9.18019e-07
1.41222e-05
9.34477e-07
1.41077e-05
9.53256e-07
1.4092e-05
9.74055e-07
1.40749e-05
9.9647e-07
1.40562e-05
1.02001e-06
1.40357e-05
1.04413e-06
1.40133e-05
1.06824e-06
1.39891e-05
1.09171e-06
1.39631e-05
1.11392e-06
1.39355e-05
1.1342e-06
1.39064e-05
1.15195e-06
1.38761e-05
1.16659e-06
1.17759e-06
1.38448e-05
1.47661e-05
5.69678e-08
1.47739e-05
9.69693e-08
1.47812e-05
1.35592e-07
1.47881e-05
1.73668e-07
1.47946e-05
2.11778e-07
1.48003e-05
2.50415e-07
1.48049e-05
2.90098e-07
1.48079e-05
3.31226e-07
1.48085e-05
3.74024e-07
1.48062e-05
4.185e-07
1.48002e-05
4.64432e-07
1.479e-05
5.11372e-07
1.47752e-05
5.58668e-07
1.47556e-05
6.055e-07
1.47312e-05
6.50988e-07
1.47023e-05
6.94265e-07
1.46693e-05
7.34415e-07
1.46328e-05
7.70663e-07
1.45936e-05
8.02403e-07
1.45528e-05
8.29254e-07
1.45111e-05
8.51063e-07
1.44696e-05
8.67908e-07
1.44292e-05
8.80078e-07
1.43906e-05
8.8805e-07
1.43544e-05
8.92445e-07
1.43212e-05
8.94013e-07
1.42914e-05
8.93602e-07
1.42649e-05
8.92076e-07
1.4242e-05
8.90262e-07
1.42223e-05
8.89055e-07
1.42056e-05
8.89353e-07
1.41912e-05
8.91642e-07
1.41788e-05
8.96306e-07
1.41677e-05
9.03839e-07
1.41573e-05
9.145e-07
1.41469e-05
9.28405e-07
1.41359e-05
9.45446e-07
1.41238e-05
9.65374e-07
1.411e-05
9.87814e-07
1.40942e-05
1.01227e-06
1.40761e-05
1.03816e-06
1.40554e-05
1.06482e-06
1.40321e-05
1.09156e-06
1.40061e-05
1.11767e-06
1.39776e-05
1.14244e-06
1.39466e-05
1.16514e-06
1.39135e-05
1.18509e-06
1.38784e-05
1.20165e-06
1.21424e-06
1.38418e-05
1.48109e-05
5.08025e-08
1.4817e-05
9.08474e-08
1.48234e-05
1.29147e-07
1.48302e-05
1.66864e-07
1.48373e-05
2.04706e-07
1.48443e-05
2.43421e-07
1.48506e-05
2.83756e-07
1.48556e-05
3.26305e-07
1.48582e-05
3.71428e-07
1.48575e-05
4.19188e-07
1.48526e-05
4.69327e-07
1.48427e-05
5.21271e-07
1.48272e-05
5.74167e-07
1.48057e-05
6.26928e-07
1.47784e-05
6.78334e-07
1.47454e-05
7.27234e-07
1.47074e-05
7.72432e-07
1.46652e-05
8.12855e-07
1.46199e-05
8.47703e-07
1.45727e-05
8.76471e-07
1.45248e-05
8.98968e-07
1.44774e-05
9.15299e-07
1.44316e-05
9.25841e-07
1.43885e-05
9.31214e-07
1.43487e-05
9.32231e-07
1.43129e-05
9.29803e-07
1.42815e-05
9.24973e-07
1.42546e-05
9.18973e-07
1.42321e-05
9.12756e-07
1.42141e-05
9.07069e-07
1.42e-05
9.03442e-07
1.41888e-05
9.02891e-07
1.41798e-05
9.05253e-07
1.41726e-05
9.11106e-07
1.41661e-05
9.20968e-07
1.41596e-05
9.34946e-07
1.41521e-05
9.52868e-07
1.41431e-05
9.74416e-07
1.41318e-05
9.99115e-07
1.41177e-05
1.02635e-06
1.41005e-05
1.05539e-06
1.40798e-05
1.08547e-06
1.40556e-05
1.11576e-06
1.40279e-05
1.14543e-06
1.39967e-05
1.17364e-06
1.39622e-05
1.19962e-06
1.39247e-05
1.22258e-06
1.38845e-05
1.24182e-06
1.25668e-06
1.38421e-05
1.48569e-05
4.75574e-08
1.48609e-05
8.6794e-08
1.48663e-05
1.23751e-07
1.48731e-05
1.60037e-07
1.48813e-05
1.96573e-07
1.48902e-05
2.34452e-07
1.48993e-05
2.74739e-07
1.49073e-05
3.18309e-07
1.4913e-05
3.65716e-07
1.4915e-05
4.17106e-07
1.49122e-05
4.72178e-07
1.49033e-05
5.30191e-07
1.48874e-05
5.90006e-07
1.48642e-05
6.50172e-07
1.48335e-05
7.09029e-07
1.47957e-05
7.64983e-07
1.47517e-05
8.16495e-07
1.47025e-05
8.62061e-07
1.46495e-05
9.00632e-07
1.45945e-05
9.31563e-07
1.45388e-05
9.54623e-07
1.44841e-05
9.69977e-07
1.44318e-05
9.78135e-07
1.43831e-05
9.79908e-07
1.4339e-05
9.76359e-07
1.43001e-05
9.68687e-07
1.4267e-05
9.58101e-07
1.42398e-05
9.46156e-07
1.42182e-05
9.34397e-07
1.42019e-05
9.23389e-07
1.41909e-05
9.1437e-07
1.41841e-05
9.0969e-07
1.41799e-05
9.09501e-07
1.41775e-05
9.13502e-07
1.41759e-05
9.22541e-07
1.41742e-05
9.36703e-07
1.41712e-05
9.55852e-07
1.4166e-05
9.79599e-07
1.41578e-05
1.00731e-06
1.41459e-05
1.0382e-06
1.413e-05
1.07137e-06
1.41095e-05
1.10588e-06
1.40846e-05
1.14076e-06
1.4055e-05
1.17502e-06
1.40209e-05
1.2077e-06
1.39826e-05
1.23791e-06
1.39404e-05
1.26479e-06
1.38947e-05
1.28755e-06
1.30543e-06