/*--------------------------------*- C++ -*----------------------------------*\
| =========                 |                                                 |
| \\      /  F ield         | OpenFOAM: The Open Source CFD Toolbox           |
|  \\    /   O peration     | Version:  2206                                  |
|   \\  /    A nd           | Website:  www.openfoam.com                      |
|    \\/     M anipulation  |                                                 |
\*---------------------------------------------------------------------------*/
FoamFile
{
    version     2.0;
    format      ascii;
    arch        "LSB;label=32;scalar=64";
    class       surfaceScalarField;
    location    "19.5";
    object      phi_0;
}
// * * * * * * * * * * * * * * * * * * * * * * * * * * * * * * * * * * * * * //

dimensions      [0 3 -1 0 0 0 0];

oriented        oriented;

internalField   nonuniform List<scalar> 
3579
(
4.43327e-06
-2.29349e-09
1.82379e-09
4.43468e-06
-6.89657e-09
5.48287e-09
4.43697e-06
-1.12909e-08
8.99983e-09
4.44003e-06
-1.53221e-08
1.2268e-08
4.44372e-06
-1.89192e-08
1.52279e-08
4.44794e-06
-2.2089e-08
1.78691e-08
4.4526e-06
-2.48703e-08
2.0207e-08
4.45764e-06
-2.72975e-08
2.22632e-08
4.46298e-06
-2.94038e-08
2.40604e-08
4.46858e-06
-3.12255e-08
2.56244e-08
4.4744e-06
-3.28013e-08
2.69831e-08
4.4804e-06
-3.41669e-08
2.8164e-08
4.48657e-06
-3.53539e-08
2.91917e-08
4.49287e-06
-3.63889e-08
3.00878e-08
4.49929e-06
-3.7294e-08
3.08706e-08
4.50582e-06
-3.80868e-08
3.15553e-08
4.51245e-06
-3.87813e-08
3.21541e-08
4.51916e-06
-3.93894e-08
3.26774e-08
4.52595e-06
-3.99206e-08
3.31335e-08
4.5328e-06
-4.03827e-08
3.35293e-08
4.53971e-06
-4.07815e-08
3.387e-08
4.54667e-06
-4.11213e-08
3.41596e-08
4.55368e-06
-4.14054e-08
3.44012e-08
4.56072e-06
-4.16362e-08
3.45969e-08
4.56778e-06
-4.1815e-08
3.47481e-08
4.57487e-06
-4.19424e-08
3.48556e-08
4.58197e-06
-4.20182e-08
3.49197e-08
4.58907e-06
-4.20424e-08
3.49402e-08
4.59617e-06
-4.20145e-08
3.4917e-08
4.60325e-06
-4.1934e-08
3.48496e-08
4.61032e-06
-4.17997e-08
3.47372e-08
4.61735e-06
-4.16098e-08
3.45788e-08
4.62434e-06
-4.13629e-08
3.43736e-08
4.63127e-06
-4.10583e-08
3.41211e-08
4.63815e-06
-4.06963e-08
3.38216e-08
4.64495e-06
-4.02775e-08
3.34756e-08
4.65167e-06
-3.9803e-08
3.3084e-08
4.6583e-06
-3.92745e-08
3.26481e-08
4.66482e-06
-3.86939e-08
3.21696e-08
4.67123e-06
-3.80635e-08
3.16503e-08
4.67753e-06
-3.73862e-08
3.10926e-08
4.68369e-06
-3.66652e-08
3.04992e-08
4.68972e-06
-3.59042e-08
2.98727e-08
4.69562e-06
-3.51068e-08
2.92163e-08
4.70136e-06
-3.42766e-08
2.85329e-08
4.70695e-06
-3.34169e-08
2.78253e-08
4.71239e-06
-3.25315e-08
2.70966e-08
4.71766e-06
-3.16241e-08
2.63498e-08
4.72277e-06
-3.06987e-08
2.55881e-08
4.72772e-06
-2.97594e-08
2.48143e-08
4.73249e-06
-2.88099e-08
2.40311e-08
4.73711e-06
-2.78522e-08
2.32398e-08
4.74155e-06
-2.68863e-08
2.24413e-08
4.74583e-06
-2.59119e-08
2.16348e-08
4.74994e-06
-2.49278e-08
2.08197e-08
4.75388e-06
-2.39324e-08
1.9994e-08
4.75764e-06
-2.29224e-08
1.9155e-08
4.76124e-06
-2.18935e-08
1.82994e-08
4.76466e-06
-2.084e-08
1.74214e-08
4.76789e-06
-1.97543e-08
1.65156e-08
4.77095e-06
-1.86276e-08
1.55729e-08
4.77381e-06
-1.74481e-08
1.45849e-08
4.77648e-06
-1.62028e-08
1.35386e-08
4.77893e-06
-1.4875e-08
1.24209e-08
4.78116e-06
-1.34464e-08
1.12147e-08
4.78316e-06
-1.1895e-08
9.90172e-09
4.78489e-06
-1.01952e-08
8.45913e-09
4.78635e-06
-8.32177e-09
6.86618e-09
4.78749e-06
-6.23418e-09
5.09252e-09
4.78828e-06
-3.89272e-09
3.09701e-09
4.78869e-06
-1.25005e-09
8.41405e-10
4.78867e-06
1.75127e-09
-1.72697e-09
4.78816e-06
5.17508e-09
-4.66377e-09
4.7871e-06
9.09723e-09
-8.03728e-09
4.78542e-06
1.36081e-08
-1.1928e-08
4.78303e-06
1.88165e-08
-1.64326e-08
4.77985e-06
2.48521e-08
-2.16675e-08
4.77575e-06
3.18697e-08
-2.77724e-08
4.77061e-06
4.00547e-08
-3.49155e-08
4.76428e-06
4.96303e-08
-4.33009e-08
4.75659e-06
6.08669e-08
-5.31772e-08
4.74735e-06
7.40934e-08
-6.48487e-08
4.73633e-06
8.97126e-08
-7.86902e-08
4.72327e-06
1.08219e-07
-9.51653e-08
4.7079e-06
1.30223e-07
-1.1485e-07
4.68989e-06
1.56478e-07
-1.38465e-07
4.66888e-06
1.87927e-07
-1.66916e-07
4.64448e-06
2.25747e-07
-2.01347e-07
4.61628e-06
2.71419e-07
-2.43219e-07
4.58385e-06
3.26826e-07
-2.94401e-07
4.54679e-06
3.94377e-07
-3.57317e-07
4.50475e-06
4.7718e-07
-4.35135e-07
4.4575e-06
5.79265e-07
-5.3202e-07
4.40513e-06
7.05958e-07
-6.53592e-07
4.34817e-06
8.64332e-07
-8.07367e-07
4.28819e-06
1.06441e-06
-1.00443e-06
4.22766e-06
1.31962e-06
-1.25909e-06
4.17521e-06
1.65264e-06
-1.60018e-06
4.14419e-06
2.08502e-06
-2.054e-06
4.23784e-06
2.67631e-06
-2.76997e-06
4.67843e-06
3.29547e-06
-3.73606e-06
4.49295e-06
6.62923e-06
-6.44375e-06
4.43335e-06
-2.84244e-09
4.435e-06
-8.54979e-09
4.43765e-06
-1.39385e-08
4.44112e-06
-1.87883e-08
4.44523e-06
-2.30324e-08
4.44985e-06
-2.67123e-08
4.45489e-06
-2.99089e-08
4.46027e-06
-3.26727e-08
4.46591e-06
-3.50495e-08
4.47178e-06
-3.70908e-08
4.47782e-06
-3.88478e-08
4.48402e-06
-4.0366e-08
4.49035e-06
-4.16844e-08
4.4968e-06
-4.28356e-08
4.50335e-06
-4.38447e-08
4.50999e-06
-4.47307e-08
4.51672e-06
-4.55089e-08
4.52352e-06
-4.61921e-08
4.5304e-06
-4.6791e-08
4.53733e-06
-4.73136e-08
4.54431e-06
-4.7766e-08
4.55134e-06
-4.81528e-08
4.55841e-06
-4.84774e-08
4.56552e-06
-4.87421e-08
4.57265e-06
-4.89481e-08
4.57981e-06
-4.90954e-08
4.58697e-06
-4.91834e-08
4.59414e-06
-4.92117e-08
4.60131e-06
-4.91802e-08
4.60846e-06
-4.90883e-08
4.61559e-06
-4.89338e-08
4.6227e-06
-4.87136e-08
4.62976e-06
-4.84252e-08
4.63677e-06
-4.80682e-08
4.64372e-06
-4.76429e-08
4.65059e-06
-4.715e-08
4.65738e-06
-4.6591e-08
4.66407e-06
-4.59677e-08
4.67066e-06
-4.52825e-08
4.67713e-06
-4.45381e-08
4.68349e-06
-4.37375e-08
4.68971e-06
-4.28851e-08
4.69579e-06
-4.19856e-08
4.70172e-06
-4.10437e-08
4.70751e-06
-4.00628e-08
4.71314e-06
-3.9047e-08
4.71861e-06
-3.80005e-08
4.72391e-06
-3.6928e-08
4.72905e-06
-3.58344e-08
4.73401e-06
-3.47257e-08
4.73881e-06
-3.3608e-08
4.74344e-06
-3.24835e-08
4.74791e-06
-3.1351e-08
4.75221e-06
-3.02094e-08
4.75634e-06
-2.90583e-08
4.7603e-06
-2.78957e-08
4.7641e-06
-2.67189e-08
4.76773e-06
-2.55227e-08
4.77119e-06
-2.43006e-08
4.77448e-06
-2.30449e-08
4.77759e-06
-2.1745e-08
4.78054e-06
-2.03886e-08
4.78329e-06
-1.89606e-08
4.78586e-06
-1.74429e-08
4.78823e-06
-1.58152e-08
4.79039e-06
-1.40523e-08
4.79232e-06
-1.21274e-08
4.794e-06
-1.00059e-08
4.79542e-06
-7.64818e-09
4.79653e-06
-5.00957e-09
4.79732e-06
-2.03764e-09
4.79774e-06
1.32912e-09
4.79776e-06
5.16047e-09
4.79732e-06
9.53662e-09
4.79637e-06
1.45546e-08
4.79486e-06
2.03317e-08
4.7927e-06
2.70066e-08
4.78983e-06
3.47431e-08
4.78615e-06
4.37362e-08
4.78156e-06
5.42188e-08
4.77596e-06
6.64707e-08
4.76922e-06
8.08295e-08
4.76123e-06
9.77064e-08
4.75184e-06
1.17602e-07
4.74094e-06
1.41126e-07
4.72839e-06
1.69028e-07
4.71409e-06
2.0223e-07
4.69796e-06
2.41868e-07
4.68004e-06
2.89341e-07
4.66047e-06
3.46403e-07
4.63957e-06
4.1527e-07
4.61802e-06
4.98728e-07
4.59701e-06
6.00276e-07
4.57868e-06
7.24296e-07
4.56664e-06
8.76368e-07
4.56773e-06
1.06331e-06
4.59352e-06
1.29383e-06
4.67e-06
1.57616e-06
4.83842e-06
1.9166e-06
5.18925e-06
2.32548e-06
5.80071e-06
2.68401e-06
3.53227e-06
6.76139e-06
4.43346e-06
-3.50628e-09
4.43549e-06
-1.05722e-08
4.43866e-06
-1.71086e-08
4.44269e-06
-2.28226e-08
4.44735e-06
-2.76885e-08
4.45248e-06
-3.18411e-08
4.45798e-06
-3.54112e-08
4.46377e-06
-3.84625e-08
4.46978e-06
-4.10581e-08
4.47596e-06
-4.32712e-08
4.48227e-06
-4.51653e-08
4.4887e-06
-4.67966e-08
4.49523e-06
-4.82136e-08
4.50185e-06
-4.94549e-08
4.50856e-06
-5.05469e-08
4.51533e-06
-5.15086e-08
4.52218e-06
-5.23559e-08
4.52909e-06
-5.31031e-08
4.53606e-06
-5.37609e-08
4.54309e-06
-5.43372e-08
4.55016e-06
-5.48381e-08
4.55727e-06
-5.52681e-08
4.56443e-06
-5.56305e-08
4.57161e-06
-5.59279e-08
4.57882e-06
-5.61609e-08
4.58606e-06
-5.63279e-08
4.5933e-06
-5.64278e-08
4.60055e-06
-5.64598e-08
4.60779e-06
-5.64254e-08
4.61503e-06
-5.63249e-08
4.62225e-06
-5.61539e-08
4.62944e-06
-5.59058e-08
4.63659e-06
-5.55767e-08
4.64369e-06
-5.51673e-08
4.65073e-06
-5.46776e-08
4.65769e-06
-5.41093e-08
4.66456e-06
-5.34635e-08
4.67134e-06
-5.27434e-08
4.678e-06
-5.19506e-08
4.68456e-06
-5.1089e-08
4.69098e-06
-5.01605e-08
4.69726e-06
-4.91718e-08
4.70341e-06
-4.8129e-08
4.7094e-06
-4.70393e-08
4.71524e-06
-4.59036e-08
4.72093e-06
-4.47274e-08
4.72644e-06
-4.35148e-08
4.73178e-06
-4.22726e-08
4.73695e-06
-4.10046e-08
4.74195e-06
-3.97202e-08
4.74677e-06
-3.84311e-08
4.75143e-06
-3.71389e-08
4.75592e-06
-3.58397e-08
4.76024e-06
-3.45322e-08
4.7644e-06
-3.32158e-08
4.76839e-06
-3.18895e-08
4.77222e-06
-3.05511e-08
4.77589e-06
-2.91931e-08
4.7794e-06
-2.78102e-08
4.78275e-06
-2.63944e-08
4.78594e-06
-2.49343e-08
4.78897e-06
-2.34161e-08
4.79183e-06
-2.18235e-08
4.79453e-06
-2.01378e-08
4.79705e-06
-1.83359e-08
4.79939e-06
-1.63921e-08
4.80153e-06
-1.42742e-08
4.80347e-06
-1.19452e-08
4.80519e-06
-9.36382e-09
4.80666e-06
-6.48106e-09
4.80786e-06
-3.24153e-09
4.80877e-06
4.18796e-10
4.80936e-06
4.57356e-09
4.8096e-06
9.30223e-09
4.80944e-06
1.47064e-08
4.80887e-06
2.09088e-08
4.80782e-06
2.80526e-08
4.80626e-06
3.63052e-08
4.80413e-06
4.58631e-08
4.80139e-06
5.69594e-08
4.79799e-06
6.98716e-08
4.79389e-06
8.4933e-08
4.78905e-06
1.02545e-07
4.78346e-06
1.23191e-07
4.77713e-06
1.4745e-07
4.77014e-06
1.76023e-07
4.76259e-06
2.09782e-07
4.7547e-06
2.49756e-07
4.74687e-06
2.97166e-07
4.73974e-06
3.53535e-07
4.73425e-06
4.20766e-07
4.73181e-06
5.01168e-07
4.73461e-06
5.97472e-07
4.74608e-06
7.12825e-07
4.77154e-06
8.50906e-07
4.81939e-06
1.01547e-06
4.90275e-06
1.21048e-06
5.04166e-06
1.43725e-06
5.26451e-06
1.69375e-06
5.60312e-06
1.98687e-06
6.05932e-06
2.22781e-06
2.66616e-06
6.92543e-06
4.43364e-06
-4.35115e-09
4.43626e-06
-1.31884e-08
4.44021e-06
-2.10616e-08
4.44503e-06
-2.76357e-08
4.45039e-06
-3.30476e-08
4.45614e-06
-3.75983e-08
4.46219e-06
-4.14625e-08
4.46846e-06
-4.47256e-08
4.47487e-06
-4.74694e-08
4.48139e-06
-4.97898e-08
4.48799e-06
-5.17649e-08
4.49465e-06
-5.3464e-08
4.50139e-06
-5.49446e-08
4.50818e-06
-5.62514e-08
4.51504e-06
-5.74076e-08
4.52196e-06
-5.84287e-08
4.52894e-06
-5.93321e-08
4.53597e-06
-6.01332e-08
4.54305e-06
-6.08423e-08
4.55018e-06
-6.1467e-08
4.55736e-06
-6.20126e-08
4.56457e-06
-6.24831e-08
4.57182e-06
-6.28815e-08
4.57911e-06
-6.32131e-08
4.58642e-06
-6.3475e-08
4.59376e-06
-6.36636e-08
4.60111e-06
-6.37773e-08
4.60846e-06
-6.38131e-08
4.61581e-06
-6.37754e-08
4.62315e-06
-6.36692e-08
4.63049e-06
-6.3487e-08
4.63779e-06
-6.32138e-08
4.64506e-06
-6.28457e-08
4.65228e-06
-6.2385e-08
4.65943e-06
-6.18298e-08
4.66651e-06
-6.11851e-08
4.67349e-06
-6.04494e-08
4.68038e-06
-5.96303e-08
4.68716e-06
-5.87261e-08
4.69381e-06
-5.77455e-08
4.70034e-06
-5.66836e-08
4.70672e-06
-5.55538e-08
4.71295e-06
-5.43608e-08
4.71903e-06
-5.31202e-08
4.72495e-06
-5.18223e-08
4.7307e-06
-5.04822e-08
4.73628e-06
-4.90949e-08
4.74169e-06
-4.76765e-08
4.74691e-06
-4.62238e-08
4.75195e-06
-4.47574e-08
4.75681e-06
-4.32952e-08
4.7615e-06
-4.18329e-08
4.76603e-06
-4.0364e-08
4.77038e-06
-3.88885e-08
4.77458e-06
-3.74069e-08
4.7786e-06
-3.59158e-08
4.78247e-06
-3.4423e-08
4.78619e-06
-3.29074e-08
4.78975e-06
-3.13696e-08
4.79316e-06
-2.98031e-08
4.79642e-06
-2.81943e-08
4.79953e-06
-2.65294e-08
4.8025e-06
-2.47902e-08
4.80532e-06
-2.29576e-08
4.80799e-06
-2.10076e-08
4.81051e-06
-1.89119e-08
4.81287e-06
-1.66353e-08
4.81506e-06
-1.41396e-08
4.81708e-06
-1.13817e-08
4.81891e-06
-8.30963e-09
4.82053e-06
-4.86595e-09
4.82193e-06
-9.80701e-10
4.82309e-06
3.41222e-09
4.82401e-06
8.38351e-09
4.82467e-06
1.40462e-08
4.82506e-06
2.05252e-08
4.82515e-06
2.79632e-08
4.82492e-06
3.65267e-08
4.82438e-06
4.64067e-08
4.82351e-06
5.7826e-08
4.82234e-06
7.10426e-08
4.8209e-06
8.63803e-08
4.81922e-06
1.04218e-07
4.81741e-06
1.25003e-07
4.8156e-06
1.49259e-07
4.81402e-06
1.7761e-07
4.81295e-06
2.10849e-07
4.81286e-06
2.49843e-07
4.81445e-06
2.95574e-07
4.81873e-06
3.49257e-07
4.82706e-06
4.12435e-07
4.84131e-06
4.86924e-07
4.86411e-06
5.74665e-07
4.89933e-06
6.77605e-07
4.95248e-06
7.97757e-07
5.03105e-06
9.36898e-07
5.14541e-06
1.09612e-06
5.3078e-06
1.27486e-06
5.53489e-06
1.46667e-06
5.8475e-06
1.67426e-06
6.23892e-06
1.83639e-06
2.01616e-06
6.88893e-06
4.43399e-06
-5.54001e-09
4.43757e-06
-1.67662e-08
4.44263e-06
-2.61283e-08
4.44847e-06
-3.34713e-08
4.45474e-06
-3.93197e-08
4.46132e-06
-4.41726e-08
4.46808e-06
-4.82222e-08
4.47494e-06
-5.1587e-08
4.48185e-06
-5.43862e-08
4.48879e-06
-5.67307e-08
4.49574e-06
-5.87072e-08
4.50268e-06
-6.04051e-08
4.50964e-06
-6.19022e-08
4.51663e-06
-6.32489e-08
4.52367e-06
-6.44495e-08
4.53076e-06
-6.55136e-08
4.53789e-06
-6.64601e-08
4.54506e-06
-6.73056e-08
4.55228e-06
-6.80583e-08
4.55953e-06
-6.87259e-08
4.56684e-06
-6.93129e-08
4.57417e-06
-6.98222e-08
4.58155e-06
-7.02527e-08
4.58895e-06
-7.06213e-08
4.59639e-06
-7.09148e-08
4.60386e-06
-7.11286e-08
4.61134e-06
-7.12583e-08
4.61883e-06
-7.12991e-08
4.62632e-06
-7.12668e-08
4.63381e-06
-7.1166e-08
4.6413e-06
-7.09764e-08
4.64877e-06
-7.06787e-08
4.65619e-06
-7.02713e-08
4.66357e-06
-6.97582e-08
4.67087e-06
-6.91345e-08
4.6781e-06
-6.84107e-08
4.68523e-06
-6.75802e-08
4.69226e-06
-6.66585e-08
4.69917e-06
-6.5635e-08
4.70595e-06
-6.45266e-08
4.71258e-06
-6.33143e-08
4.71906e-06
-6.20334e-08
4.72537e-06
-6.06721e-08
4.73151e-06
-5.92612e-08
4.73746e-06
-5.77733e-08
4.74323e-06
-5.62544e-08
4.74881e-06
-5.46688e-08
4.75418e-06
-5.30514e-08
4.75933e-06
-5.13711e-08
4.76428e-06
-4.97116e-08
4.76907e-06
-4.80812e-08
4.77368e-06
-4.64466e-08
4.77812e-06
-4.47999e-08
4.78238e-06
-4.31463e-08
4.78646e-06
-4.14897e-08
4.79037e-06
-3.98294e-08
4.79412e-06
-3.81708e-08
4.79771e-06
-3.64955e-08
4.80114e-06
-3.48064e-08
4.80444e-06
-3.30965e-08
4.80759e-06
-3.13495e-08
4.81062e-06
-2.95516e-08
4.81351e-06
-2.76838e-08
4.81628e-06
-2.57271e-08
4.81893e-06
-2.36605e-08
4.82147e-06
-2.14483e-08
4.82389e-06
-1.90525e-08
4.82618e-06
-1.64378e-08
4.82836e-06
-1.35597e-08
4.83042e-06
-1.03659e-08
4.83235e-06
-6.7996e-09
4.83418e-06
-2.80775e-09
4.8359e-06
1.68711e-09
4.8375e-06
6.79076e-09
4.83895e-06
1.25945e-08
4.84027e-06
1.9206e-08
4.84147e-06
2.6762e-08
4.84258e-06
3.54175e-08
4.84363e-06
4.53558e-08
4.84465e-06
5.67997e-08
4.84569e-06
7.00045e-08
4.84683e-06
8.52404e-08
4.84824e-06
1.02814e-07
4.85012e-06
1.23123e-07
4.85284e-06
1.46539e-07
4.85666e-06
1.73788e-07
4.8619e-06
2.05611e-07
4.86927e-06
2.42468e-07
4.87971e-06
2.85141e-07
4.89442e-06
3.34538e-07
4.91497e-06
3.91884e-07
4.94337e-06
4.58532e-07
4.98235e-06
5.35681e-07
5.0357e-06
6.2426e-07
5.1084e-06
7.25051e-07
5.20666e-06
8.38639e-07
5.33807e-06
9.64701e-07
5.51158e-06
1.10136e-06
5.73714e-06
1.2411e-06
6.03137e-06
1.38004e-06
6.37937e-06
1.48838e-06
1.56919e-06
6.82634e-06
4.43481e-06
-7.55349e-09
4.44013e-06
-2.20859e-08
4.44679e-06
-3.27814e-08
4.45385e-06
-4.05335e-08
4.46113e-06
-4.66041e-08
4.46859e-06
-5.16284e-08
4.47608e-06
-5.57097e-08
4.48354e-06
-5.90528e-08
4.49097e-06
-6.18117e-08
4.49836e-06
-6.41212e-08
4.50567e-06
-6.6021e-08
4.51292e-06
-6.76537e-08
4.52016e-06
-6.91395e-08
4.52742e-06
-7.05088e-08
4.5347e-06
-7.17317e-08
4.54201e-06
-7.28256e-08
4.54936e-06
-7.38076e-08
4.55675e-06
-7.46936e-08
4.56417e-06
-7.54847e-08
4.57164e-06
-7.61932e-08
4.57915e-06
-7.68177e-08
4.58669e-06
-7.73631e-08
4.59425e-06
-7.78207e-08
4.60184e-06
-7.82073e-08
4.60943e-06
-7.85028e-08
4.61702e-06
-7.87218e-08
4.62458e-06
-7.88151e-08
4.63208e-06
-7.88002e-08
4.63958e-06
-7.87716e-08
4.64711e-06
-7.86885e-08
4.6546e-06
-7.84704e-08
4.66204e-06
-7.81161e-08
4.6694e-06
-7.76292e-08
4.67666e-06
-7.70225e-08
4.68382e-06
-7.62907e-08
4.69085e-06
-7.54441e-08
4.69775e-06
-7.44773e-08
4.7045e-06
-7.34121e-08
4.71111e-06
-7.22411e-08
4.71754e-06
-7.09637e-08
4.72378e-06
-6.95538e-08
4.72982e-06
-6.80669e-08
4.73566e-06
-6.65163e-08
4.74132e-06
-6.49205e-08
4.74678e-06
-6.32297e-08
4.75203e-06
-6.15086e-08
4.75709e-06
-5.97256e-08
4.76198e-06
-5.79479e-08
4.76678e-06
-5.61668e-08
4.77139e-06
-5.43254e-08
4.77575e-06
-5.24331e-08
4.77984e-06
-5.05357e-08
4.78369e-06
-4.86497e-08
4.78731e-06
-4.6776e-08
4.79074e-06
-4.4915e-08
4.79398e-06
-4.30659e-08
4.79703e-06
-4.12275e-08
4.79993e-06
-3.93918e-08
4.80268e-06
-3.75542e-08
4.80529e-06
-3.57051e-08
4.80777e-06
-3.38306e-08
4.81013e-06
-3.19148e-08
4.81239e-06
-2.99394e-08
4.81454e-06
-2.78847e-08
4.81661e-06
-2.57233e-08
4.81859e-06
-2.34283e-08
4.8205e-06
-2.09695e-08
4.82237e-06
-1.8305e-08
4.82419e-06
-1.53806e-08
4.82597e-06
-1.21442e-08
4.82771e-06
-8.54454e-09
4.82944e-06
-4.53222e-09
4.83116e-06
-3.501e-11
4.83287e-06
5.07917e-09
4.83462e-06
1.08499e-08
4.83643e-06
1.73935e-08
4.83835e-06
2.48462e-08
4.84041e-06
3.33563e-08
4.84268e-06
4.30876e-08
4.84525e-06
5.42239e-08
4.84827e-06
6.69856e-08
4.85188e-06
8.16283e-08
4.85625e-06
9.84478e-08
4.8616e-06
1.17765e-07
4.86811e-06
1.40036e-07
4.87637e-06
1.65529e-07
4.88735e-06
1.9463e-07
4.90172e-06
2.281e-07
4.92063e-06
2.66231e-07
4.94557e-06
3.09594e-07
4.97802e-06
3.59438e-07
5.01954e-06
4.17005e-07
5.07275e-06
4.8248e-07
5.14129e-06
5.55716e-07
5.22948e-06
6.3686e-07
5.34217e-06
7.25951e-07
5.48463e-06
8.22243e-07
5.66324e-06
9.22745e-07
5.88318e-06
1.02116e-06
6.15147e-06
1.11175e-06
6.45846e-06
1.18139e-06
1.22202e-06
6.80563e-06
4.43657e-06
-1.132e-08
4.44509e-06
-3.06056e-08
4.45425e-06
-4.19457e-08
4.46325e-06
-4.95298e-08
4.47206e-06
-5.54129e-08
4.48072e-06
-6.0292e-08
4.48912e-06
-6.4115e-08
4.49734e-06
-6.72722e-08
4.50537e-06
-6.98393e-08
4.51324e-06
-7.19879e-08
4.52086e-06
-7.36418e-08
4.52829e-06
-7.50842e-08
4.53572e-06
-7.65662e-08
4.54311e-06
-7.79006e-08
4.55044e-06
-7.90587e-08
4.55769e-06
-8.00785e-08
4.56487e-06
-8.09946e-08
4.572e-06
-8.18166e-08
4.57907e-06
-8.25561e-08
4.5861e-06
-8.32227e-08
4.59308e-06
-8.37985e-08
4.6e-06
-8.42826e-08
4.60685e-06
-8.46748e-08
4.61369e-06
-8.5041e-08
4.62048e-06
-8.52986e-08
4.62724e-06
-8.54795e-08
4.63407e-06
-8.56409e-08
4.641e-06
-8.57376e-08
4.64786e-06
-8.56242e-08
4.65453e-06
-8.5362e-08
4.661e-06
-8.49367e-08
4.66726e-06
-8.43763e-08
4.67331e-06
-8.36838e-08
4.67915e-06
-8.28587e-08
4.68476e-06
-8.19026e-08
4.69013e-06
-8.08192e-08
4.69527e-06
-7.96117e-08
4.70013e-06
-7.82747e-08
4.70471e-06
-7.68167e-08
4.709e-06
-7.52578e-08
4.71305e-06
-7.35985e-08
4.71683e-06
-7.18543e-08
4.72037e-06
-7.00533e-08
4.72364e-06
-6.81918e-08
4.72666e-06
-6.6252e-08
4.72942e-06
-6.42635e-08
4.73193e-06
-6.2233e-08
4.73416e-06
-6.01808e-08
4.73611e-06
-5.81148e-08
4.73781e-06
-5.60313e-08
4.73931e-06
-5.39293e-08
4.7406e-06
-5.18228e-08
4.74168e-06
-4.97299e-08
4.74256e-06
-4.76587e-08
4.74326e-06
-4.56129e-08
4.74378e-06
-4.35921e-08
4.74415e-06
-4.1596e-08
4.74438e-06
-3.9619e-08
4.74448e-06
-3.76593e-08
4.74448e-06
-3.57043e-08
4.74439e-06
-3.37413e-08
4.74423e-06
-3.17527e-08
4.74401e-06
-2.9721e-08
4.74376e-06
-2.76316e-08
4.7435e-06
-2.54609e-08
4.74325e-06
-2.31758e-08
4.74302e-06
-2.07492e-08
4.74288e-06
-1.81589e-08
4.74283e-06
-1.53284e-08
4.74289e-06
-1.22033e-08
4.74307e-06
-8.73107e-09
4.74345e-06
-4.91026e-09
4.74411e-06
-6.93809e-10
4.745e-06
4.19033e-09
4.74624e-06
9.60383e-09
4.74791e-06
1.57326e-08
4.75007e-06
2.26796e-08
4.75286e-06
3.05665e-08
4.75641e-06
3.95413e-08
4.76086e-06
4.9769e-08
4.76641e-06
6.14354e-08
4.77329e-06
7.47501e-08
4.78179e-06
8.9953e-08
4.79225e-06
1.073e-07
4.80519e-06
1.27098e-07
4.82107e-06
1.49654e-07
4.84045e-06
1.75242e-07
4.86428e-06
2.04273e-07
4.8931e-06
2.37411e-07
4.92768e-06
2.75016e-07
4.97019e-06
3.16923e-07
5.02403e-06
3.6317e-07
5.09199e-06
4.14519e-07
5.17624e-06
4.7147e-07
5.28096e-06
5.32136e-07
5.40867e-06
5.98244e-07
5.56165e-06
6.69257e-07
5.7449e-06
7.39498e-07
5.96102e-06
8.05047e-07
6.21129e-06
8.61472e-07
6.491e-06
9.01684e-07
9.18806e-07
6.79421e-06
4.4409e-06
-1.94198e-08
4.45342e-06
-4.31272e-08
4.46495e-06
-5.34719e-08
4.47611e-06
-6.06922e-08
4.48659e-06
-6.58921e-08
4.49642e-06
-7.01261e-08
4.50541e-06
-7.31006e-08
4.51374e-06
-7.56026e-08
4.52145e-06
-7.75481e-08
4.52865e-06
-7.91913e-08
4.53568e-06
-8.06702e-08
4.5425e-06
-8.19018e-08
4.54871e-06
-8.27788e-08
4.55436e-06
-8.35551e-08
4.55958e-06
-8.42778e-08
4.56443e-06
-8.49226e-08
4.56892e-06
-8.54883e-08
4.57307e-06
-8.59604e-08
4.57685e-06
-8.63391e-08
4.58025e-06
-8.66267e-08
4.58329e-06
-8.68365e-08
4.58599e-06
-8.69799e-08
4.58834e-06
-8.70299e-08
4.59035e-06
-8.70491e-08
4.59201e-06
-8.69539e-08
4.59332e-06
-8.6793e-08
4.59426e-06
-8.65843e-08
4.59483e-06
-8.63096e-08
4.59509e-06
-8.58811e-08
4.59501e-06
-8.52838e-08
4.59456e-06
-8.44842e-08
4.59372e-06
-8.35381e-08
4.5925e-06
-8.24575e-08
4.59088e-06
-8.12423e-08
4.58887e-06
-7.98968e-08
4.58648e-06
-7.8427e-08
4.58371e-06
-7.68397e-08
4.58057e-06
-7.51341e-08
4.57707e-06
-7.33185e-08
4.57322e-06
-7.14039e-08
4.56902e-06
-6.94042e-08
4.5645e-06
-6.73356e-08
4.55966e-06
-6.52131e-08
4.55452e-06
-6.30511e-08
4.54911e-06
-6.08391e-08
4.54343e-06
-5.85786e-08
4.53749e-06
-5.63008e-08
4.53133e-06
-5.40178e-08
4.52496e-06
-5.17431e-08
4.5184e-06
-4.94696e-08
4.51168e-06
-4.72109e-08
4.50483e-06
-4.49714e-08
4.49787e-06
-4.27692e-08
4.49082e-06
-4.06093e-08
4.4837e-06
-3.85006e-08
4.47655e-06
-3.64384e-08
4.46938e-06
-3.44269e-08
4.46222e-06
-3.24564e-08
4.45509e-06
-3.05327e-08
4.44803e-06
-2.86371e-08
4.44105e-06
-2.67645e-08
4.43419e-06
-2.48916e-08
4.42748e-06
-2.3013e-08
4.42095e-06
-2.11063e-08
4.41466e-06
-1.9164e-08
4.40862e-06
-1.71389e-08
4.4029e-06
-1.50283e-08
4.39751e-06
-1.27667e-08
4.39254e-06
-1.03607e-08
4.38808e-06
-7.74207e-09
4.38419e-06
-4.83899e-09
4.38095e-06
-1.67298e-09
4.37836e-06
1.89205e-09
4.3766e-06
5.95856e-09
4.37587e-06
1.03341e-08
4.3763e-06
1.52963e-08
4.3781e-06
2.08806e-08
4.38148e-06
2.7189e-08
4.38669e-06
3.43327e-08
4.39402e-06
4.24363e-08
4.40382e-06
5.16385e-08
4.41648e-06
6.20852e-08
4.43249e-06
7.39465e-08
4.45238e-06
8.7409e-08
4.4768e-06
1.0268e-07
4.50646e-06
1.1999e-07
4.54211e-06
1.39596e-07
4.58457e-06
1.61808e-07
4.63489e-06
1.87087e-07
4.6941e-06
2.15815e-07
4.76314e-06
2.47877e-07
4.84339e-06
2.82917e-07
4.93696e-06
3.20949e-07
5.04603e-06
3.62405e-07
5.17057e-06
4.07596e-07
5.31594e-06
4.52877e-07
5.48863e-06
4.96561e-07
5.68855e-06
5.39581e-07
5.91478e-06
5.7882e-07
6.16612e-06
6.1013e-07
6.43874e-06
6.29063e-07
6.31686e-07
6.72586e-06
4.45657e-06
-4.31913e-08
4.47444e-06
-6.09963e-08
4.48639e-06
-6.54191e-08
4.49368e-06
-6.79821e-08
4.49803e-06
-7.02437e-08
4.50003e-06
-7.21231e-08
4.49995e-06
-7.30196e-08
4.49803e-06
-7.36843e-08
4.49449e-06
-7.40086e-08
4.48945e-06
-7.4156e-08
4.48297e-06
-7.41852e-08
4.47516e-06
-7.40953e-08
4.46625e-06
-7.3863e-08
4.45623e-06
-7.35376e-08
4.44512e-06
-7.31692e-08
4.43296e-06
-7.27603e-08
4.41977e-06
-7.2305e-08
4.40561e-06
-7.17988e-08
4.39051e-06
-7.1241e-08
4.37452e-06
-7.0632e-08
4.35766e-06
-6.99764e-08
4.33996e-06
-6.92784e-08
4.32146e-06
-6.8535e-08
4.30217e-06
-6.77576e-08
4.28215e-06
-6.69291e-08
4.26143e-06
-6.60727e-08
4.24006e-06
-6.52192e-08
4.21817e-06
-6.44145e-08
4.19577e-06
-6.34857e-08
4.17282e-06
-6.23309e-08
4.14938e-06
-6.10437e-08
4.1255e-06
-5.96641e-08
4.10124e-06
-5.81979e-08
4.07665e-06
-5.665e-08
4.05178e-06
-5.50266e-08
4.02669e-06
-5.33334e-08
4.00142e-06
-5.15751e-08
3.97604e-06
-4.97554e-08
3.95061e-06
-4.78806e-08
3.92516e-06
-4.59602e-08
3.89976e-06
-4.40057e-08
3.87445e-06
-4.20253e-08
3.84927e-06
-4.00261e-08
3.8242e-06
-3.79816e-08
3.79929e-06
-3.59341e-08
3.77465e-06
-3.39398e-08
3.75033e-06
-3.1977e-08
3.72636e-06
-3.00443e-08
3.70277e-06
-2.81527e-08
3.67959e-06
-2.6296e-08
3.65687e-06
-2.44868e-08
3.63462e-06
-2.27287e-08
3.61289e-06
-2.10319e-08
3.59168e-06
-1.93991e-08
3.57101e-06
-1.78355e-08
3.55091e-06
-1.6337e-08
3.53139e-06
-1.4906e-08
3.51247e-06
-1.35327e-08
3.49416e-06
-1.22257e-08
3.47649e-06
-1.09689e-08
3.45948e-06
-9.75785e-09
3.44317e-06
-8.57746e-09
3.42758e-06
-7.4253e-09
3.41276e-06
-6.28264e-09
3.39874e-06
-5.14727e-09
3.38559e-06
-3.98702e-09
3.37337e-06
-2.81112e-09
3.36214e-06
-1.52894e-09
3.35192e-06
-1.43989e-10
3.34284e-06
1.33367e-09
3.33498e-06
3.0191e-09
3.32848e-06
4.83246e-09
3.32362e-06
6.75149e-09
3.3207e-06
8.87894e-09
3.31988e-06
1.11502e-08
3.32135e-06
1.38283e-08
3.32548e-06
1.67485e-08
3.33263e-06
2.00381e-08
3.34321e-06
2.37595e-08
3.35765e-06
2.79924e-08
3.37646e-06
3.28321e-08
3.40021e-06
3.83339e-08
3.42956e-06
4.45923e-08
3.46526e-06
5.17088e-08
3.50815e-06
5.97932e-08
3.55919e-06
6.89473e-08
3.61951e-06
7.92813e-08
3.69035e-06
9.09626e-08
3.77322e-06
1.04214e-07
3.86979e-06
1.19255e-07
3.98149e-06
1.36178e-07
4.10946e-06
1.54937e-07
4.25461e-06
1.75807e-07
4.41801e-06
1.99004e-07
4.60106e-06
2.2454e-07
4.80402e-06
2.49926e-07
5.02758e-06
2.73e-07
5.27286e-06
2.94296e-07
5.53884e-06
3.12838e-07
5.82265e-06
3.26326e-07
6.11918e-06
3.32529e-07
3.29608e-07
6.42126e-06
4.38961e-06
4.32861e-06
4.26319e-06
4.19521e-06
4.12497e-06
4.05284e-06
3.97982e-06
3.90614e-06
3.83213e-06
3.75798e-06
3.68379e-06
3.6097e-06
3.53583e-06
3.46229e-06
3.38913e-06
3.31637e-06
3.24406e-06
3.17226e-06
3.10102e-06
3.03039e-06
2.96041e-06
2.89113e-06
2.8226e-06
2.75484e-06
2.68791e-06
2.62184e-06
2.55662e-06
2.49221e-06
2.42872e-06
2.36639e-06
2.30535e-06
2.24568e-06
2.18748e-06
2.13083e-06
2.07581e-06
2.02247e-06
1.9709e-06
1.92114e-06
1.87326e-06
1.8273e-06
1.7833e-06
1.74127e-06
1.70124e-06
1.66326e-06
1.62733e-06
1.59339e-06
1.56141e-06
1.53137e-06
1.50322e-06
1.47692e-06
1.45243e-06
1.4297e-06
1.40867e-06
1.38927e-06
1.37144e-06
1.3551e-06
1.34019e-06
1.32666e-06
1.31444e-06
1.30347e-06
1.29371e-06
1.28513e-06
1.27771e-06
1.27142e-06
1.26628e-06
1.26229e-06
1.25948e-06
1.25795e-06
1.25781e-06
1.25914e-06
1.26216e-06
1.26699e-06
1.27374e-06
1.28262e-06
1.29377e-06
1.3076e-06
1.32435e-06
1.34439e-06
1.36815e-06
1.39614e-06
1.42897e-06
1.4673e-06
1.5119e-06
1.56361e-06
1.6234e-06
1.69235e-06
1.77163e-06
1.86259e-06
1.9668e-06
2.08606e-06
2.22224e-06
2.37717e-06
2.55298e-06
2.75198e-06
2.97652e-06
3.22645e-06
3.49945e-06
3.79375e-06
4.10658e-06
4.43291e-06
4.76544e-06
5.09505e-06
3.72686e-06
2.90237e-06
1.74688e-06
1.97998e-06
5.83276e-07
1.1636e-06
-1.1503e-08
5.94779e-07
-3.67122e-07
3.55619e-07
-5.60819e-07
1.93697e-07
-6.78062e-07
1.17243e-07
-7.51161e-07
7.30989e-08
-7.7364e-07
2.24788e-08
-7.55766e-07
-1.78742e-08
-7.15932e-07
-3.98335e-08
-6.63962e-07
-5.19705e-08
-6.07262e-07
-5.66997e-08
-5.44496e-07
-6.27658e-08
-4.83197e-07
-6.12992e-08
-4.27403e-07
-5.57939e-08
-3.82446e-07
-4.49568e-08
-3.51277e-07
-3.11693e-08
-3.29812e-07
-2.14653e-08
-3.07455e-07
-2.23564e-08
-2.77312e-07
-3.01437e-08
-2.33474e-07
-4.38376e-08
-1.70138e-07
-6.33363e-08
-8.23612e-08
-8.77766e-08
3.04581e-08
-1.12819e-07
1.64386e-07
-1.33928e-07
3.14274e-07
-1.49888e-07
4.73549e-07
-1.59274e-07
6.36918e-07
-1.63369e-07
8.00129e-07
-1.63211e-07
9.60562e-07
-1.60433e-07
1.11731e-06
-1.56746e-07
-1.53315e-07
6.53134e-06
3.13241e-06
6.04236e-06
2.46897e-06
5.30489e-06
1.90107e-06
4.46488e-06
1.43479e-06
3.75085e-06
1.06965e-06
3.15489e-06
7.89654e-07
2.70573e-06
5.66402e-07
2.38897e-06
3.89864e-07
2.16044e-06
2.51006e-07
1.99886e-06
1.43703e-07
1.90258e-06
5.64476e-08
1.86489e-06
-1.42786e-08
1.87377e-06
-6.55762e-08
1.91577e-06
-1.04769e-07
1.98062e-06
-1.26145e-07
2.06201e-06
-1.37191e-07
2.15636e-06
-1.39302e-07
2.26349e-06
-1.38297e-07
2.3816e-06
-1.39579e-07
2.50444e-06
-1.45198e-07
2.63053e-06
-1.56228e-07
2.76002e-06
-1.73328e-07
2.89387e-06
-1.97186e-07
3.03211e-06
-2.26022e-07
3.1735e-06
-2.54203e-07
3.31846e-06
-2.78894e-07
3.46532e-06
-2.96751e-07
3.61142e-06
-3.0537e-07
3.7556e-06
-3.0755e-07
3.89738e-06
-3.04993e-07
4.03705e-06
-3.00104e-07
4.17516e-06
-2.94849e-07
-2.90702e-07
7.46797e-06
2.58986e-06
7.71659e-06
2.22035e-06
7.71552e-06
1.90213e-06
7.56822e-06
1.5821e-06
7.36899e-06
1.26888e-06
7.16173e-06
9.96913e-07
6.95908e-06
7.69055e-07
6.77403e-06
5.74912e-07
6.6187e-06
4.06337e-07
6.49987e-06
2.6253e-07
6.41204e-06
1.44282e-07
6.34375e-06
5.4006e-08
6.29567e-06
-1.74962e-08
6.26537e-06
-7.44618e-08
6.25067e-06
-1.1145e-07
6.24969e-06
-1.36209e-07
6.26047e-06
-1.50084e-07
6.28135e-06
-1.59176e-07
6.31044e-06
-1.68665e-07
6.34498e-06
-1.79741e-07
6.38423e-06
-1.95475e-07
6.42705e-06
-2.16148e-07
6.47103e-06
-2.4117e-07
6.51373e-06
-2.68724e-07
6.55438e-06
-2.94847e-07
6.59268e-06
-3.17199e-07
6.62999e-06
-3.34064e-07
6.66881e-06
-3.44191e-07
6.7095e-06
-3.48237e-07
6.75251e-06
-3.47999e-07
6.7986e-06
-3.462e-07
6.84841e-06
-3.44652e-07
-3.44367e-07
7.45805e-06
2.02074e-06
7.83147e-06
1.84694e-06
8.08035e-06
1.65324e-06
8.2346e-06
1.42785e-06
8.31448e-06
1.18899e-06
8.33983e-06
9.71569e-07
8.33793e-06
7.70956e-07
8.31885e-06
5.93989e-07
8.29098e-06
4.34206e-07
8.25864e-06
2.94871e-07
8.22322e-06
1.79699e-07
8.19073e-06
8.64998e-08
8.16301e-06
1.0224e-08
8.1359e-06
-4.73555e-08
8.11438e-06
-8.993e-08
8.09867e-06
-1.20501e-07
8.0902e-06
-1.41606e-07
8.08775e-06
-1.56725e-07
8.08962e-06
-1.70536e-07
8.09489e-06
-1.85016e-07
8.10122e-06
-2.01798e-07
8.1063e-06
-2.21236e-07
8.1079e-06
-2.4277e-07
8.10459e-06
-2.65415e-07
8.09743e-06
-2.8768e-07
8.08678e-06
-3.06549e-07
8.07417e-06
-3.21459e-07
8.06252e-06
-3.32543e-07
8.053e-06
-3.38711e-07
8.04703e-06
-3.4203e-07
8.04517e-06
-3.4434e-07
8.04717e-06
-3.46653e-07
-3.50077e-07
7.27757e-06
1.56951e-06
7.65248e-06
1.47204e-06
7.97322e-06
1.3325e-06
8.2195e-06
1.18157e-06
8.4009e-06
1.00759e-06
8.53368e-06
8.38787e-07
8.62867e-06
6.75961e-07
8.69517e-06
5.27493e-07
8.73549e-06
3.93887e-07
8.75287e-06
2.77488e-07
8.75599e-06
1.76584e-07
8.75102e-06
9.1465e-08
8.73816e-06
2.30875e-08
8.7225e-06
-3.1694e-08
8.70565e-06
-7.30791e-08
8.68925e-06
-1.04106e-07
8.67495e-06
-1.27303e-07
8.6633e-06
-1.45076e-07
8.65342e-06
-1.60657e-07
8.64411e-06
-1.75708e-07
8.63374e-06
-1.91421e-07
8.62088e-06
-2.08377e-07
8.60467e-06
-2.26561e-07
8.58482e-06
-2.45572e-07
8.56135e-06
-2.64201e-07
8.53555e-06
-2.80752e-07
8.5087e-06
-2.94615e-07
8.48178e-06
-3.05615e-07
8.45663e-06
-3.13567e-07
8.43411e-06
-3.19506e-07
8.4145e-06
-3.24734e-07
8.39809e-06
-3.3024e-07
-3.36932e-07
7.16355e-06
1.21159e-06
7.48949e-06
1.1461e-06
7.78073e-06
1.04126e-06
8.03702e-06
9.25281e-07
8.24697e-06
7.97645e-07
8.41702e-06