/*--------------------------------*- C++ -*----------------------------------*\
| =========                 |                                                 |
| \\      /  F ield         | OpenFOAM: The Open Source CFD Toolbox           |
|  \\    /   O peration     | Version:  2206                                  |
|   \\  /    A nd           | Website:  www.openfoam.com                      |
|    \\/     M anipulation  |                                                 |
\*---------------------------------------------------------------------------*/
FoamFile
{
    version     2.0;
    format      ascii;
    arch        "LSB;label=32;scalar=64";
    class       surfaceScalarField;
    location    "18.8001";
    object      phi;
}
// * * * * * * * * * * * * * * * * * * * * * * * * * * * * * * * * * * * * * //

dimensions      [0 3 -1 0 0 0 0];

oriented        oriented;

internalField   nonuniform List<scalar> 
5946
(
-3.15279e-06
1.728e-07
-3.1285e-06
-2.42812e-08
-2.94353e-06
-1.84978e-07
-2.61503e-06
-3.28495e-07
-2.20095e-06
-4.1408e-07
-1.76489e-06
-4.36056e-07
-1.35858e-06
-4.0631e-07
-1.0108e-06
-3.47787e-07
-7.43793e-07
-2.67005e-07
-5.64661e-07
-1.79132e-07
-4.63898e-07
-1.00763e-07
-4.20153e-07
-4.37449e-08
-4.00715e-07
-1.94382e-08
-3.79235e-07
-2.14795e-08
-3.35547e-07
-4.36881e-08
-2.4763e-07
-8.79171e-08
-1.01856e-07
-1.45775e-07
1.05278e-07
-2.07134e-07
3.65332e-07
-2.60053e-07
6.69354e-07
-3.04023e-07
1.00722e-06
-3.37863e-07
1.36854e-06
-3.6132e-07
1.74178e-06
-3.73241e-07
2.11282e-06
-3.71042e-07
2.47014e-06
-3.5732e-07
2.80786e-06
-3.37718e-07
3.12352e-06
-3.1566e-07
3.41651e-06
-2.92992e-07
3.68909e-06
-2.72577e-07
3.94456e-06
-2.55471e-07
4.1927e-06
-2.48145e-07
4.44974e-06
-2.57032e-07
-2.92985e-07
4.74272e-06
-1.58628e-06
1.37491e-07
-1.4024e-06
-2.08163e-07
-1.06185e-06
-5.25527e-07
-6.34994e-07
-7.55349e-07
-1.73342e-07
-8.75733e-07
2.8744e-07
-8.96837e-07
7.33396e-07
-8.52265e-07
1.14249e-06
-7.5688e-07
1.50204e-06
-6.26557e-07
1.80541e-06
-4.82501e-07
2.05422e-06
-3.49571e-07
2.26044e-06
-2.49965e-07
2.43376e-06
-1.92758e-07
2.58967e-06
-1.77389e-07
2.7481e-06
-2.02119e-07
2.92491e-06
-2.64727e-07
3.12978e-06
-3.50644e-07
3.36773e-06
-4.4509e-07
3.64076e-06
-5.33078e-07
3.94427e-06
-6.07531e-07
4.27005e-06
-6.63642e-07
4.60356e-06
-6.94833e-07
4.93419e-06
-7.03867e-07
5.25869e-06
-6.95551e-07
5.57581e-06
-6.74433e-07
5.88313e-06
-6.45045e-07
6.1792e-06
-6.11724e-07
6.46377e-06
-5.7756e-07
6.73689e-06
-5.45698e-07
7.00028e-06
-5.18862e-07
7.25279e-06
-5.00658e-07
7.49025e-06
-4.94488e-07
-4.99573e-07
7.69684e-06
2.2389e-06
-1.05871e-07
2.56563e-06
-5.34893e-07
2.94284e-06
-9.02738e-07
3.3316e-06
-1.14411e-06
3.69894e-06
-1.24308e-06
4.04464e-06
-1.24253e-06
4.37099e-06
-1.17862e-06
4.67658e-06
-1.06247e-06
4.96231e-06
-9.1229e-07
5.23245e-06
-7.52638e-07
5.48963e-06
-6.0675e-07
5.73426e-06
-4.94597e-07
5.96705e-06
-4.25546e-07
6.19161e-06
-4.01954e-07
6.40941e-06
-4.19916e-07
6.61702e-06
-4.72337e-07
6.81609e-06
-5.49712e-07
7.0094e-06
-6.38404e-07
7.19964e-06
-7.23319e-07
7.38942e-06
-7.97306e-07
7.57884e-06
-8.53059e-07
7.7635e-06
-8.79499e-07
7.94536e-06
-8.8572e-07
8.12625e-06
-8.76446e-07
8.30637e-06
-8.54551e-07
8.48549e-06
-8.24169e-07
8.66333e-06
-7.89565e-07
8.83919e-06
-7.53412e-07
9.01241e-06
-7.18926e-07
9.18248e-06
-6.88925e-07
9.34754e-06
-6.65717e-07
9.50377e-06
-6.50718e-07
-6.41549e-07
9.64574e-06
6.46062e-06
-4.46468e-07
6.76186e-06
-8.3614e-07
7.00822e-06
-1.1491e-06
7.2148e-06
-1.35069e-06
7.3963e-06
-1.42457e-06
7.56716e-06
-1.41339e-06
7.73731e-06
-1.34878e-06
7.9078e-06
-1.23295e-06
8.08348e-06
-1.08797e-06
8.2671e-06
-9.36264e-07
8.45654e-06
-7.96191e-07
8.64795e-06
-6.85999e-07
8.83614e-06
-6.13743e-07
9.01545e-06
-5.81264e-07
9.18082e-06
-5.85287e-07
9.32887e-06
-6.20385e-07
9.4592e-06
-6.80038e-07
9.57299e-06
-7.52195e-07
9.6705e-06
-8.20836e-07
9.75233e-06
-8.79133e-07
9.82384e-06
-9.24573e-07
9.89009e-06
-9.4574e-07
9.95327e-06
-9.48902e-07
1.00185e-05
-9.41718e-07
1.00875e-05
-9.23469e-07
1.01609e-05
-8.97598e-07
1.02391e-05
-8.67756e-07
1.03219e-05
-8.36244e-07
1.04089e-05
-8.05944e-07
1.04992e-05
-7.792e-07
1.05913e-05
-7.57815e-07
1.06825e-05
-7.41957e-07
-7.29967e-07
1.0771e-05
1.01196e-05
-5.65598e-07
1.01653e-05
-8.81847e-07
1.01519e-05
-1.13563e-06
1.01091e-05
-1.30793e-06
1.00633e-05
-1.37878e-06
1.00272e-05
-1.3773e-06
1.00073e-05
-1.3288e-06
1.00105e-05
-1.23618e-06
1.0042e-05
-1.11943e-06
1.01023e-05
-9.96627e-07
1.01881e-05
-8.81982e-07
1.02917e-05
-7.89622e-07
1.04044e-05
-7.26406e-07
1.05171e-05
-6.93952e-07
1.06226e-05
-6.90849e-07
1.07154e-05
-7.13169e-07
1.07902e-05
-7.5477e-07
1.08431e-05
-8.05128e-07
1.08744e-05
-8.52189e-07
1.08879e-05
-8.92607e-07
1.08886e-05
-9.25249e-07
1.08865e-05
-9.4365e-07
1.08857e-05
-9.48055e-07
1.08886e-05
-9.44682e-07
1.08972e-05
-9.32066e-07
1.09126e-05
-9.13014e-07
1.09351e-05
-8.90267e-07
1.09653e-05
-8.66353e-07
1.10028e-05
-8.43496e-07
1.1047e-05
-8.23391e-07
1.10964e-05
-8.07248e-07
1.11493e-05
-7.94834e-07
-7.85987e-07
1.12053e-05
1.17982e-05
-5.64828e-07
1.17242e-05
-8.07832e-07
1.16007e-05
-1.01211e-06
1.14526e-05
-1.15983e-06
1.13088e-05
-1.23501e-06
1.11822e-05
-1.25072e-06
1.10757e-05
-1.22223e-06
1.0999e-05
-1.15951e-06
1.09565e-05
-1.07697e-06
1.09477e-05
-9.87774e-07
1.09679e-05
-9.02231e-07
1.10091e-05
-8.30844e-07
1.10641e-05
-7.81319e-07
1.11244e-05
-7.54339e-07
1.11814e-05
-7.47779e-07
1.12271e-05
-7.58931e-07
1.12563e-05
-7.83922e-07
1.12674e-05
-8.16292e-07
1.12641e-05
-8.48817e-07
1.12503e-05
-8.78824e-07
1.1229e-05
-9.03966e-07
1.12064e-05
-9.21034e-07
1.11868e-05
-9.28499e-07
1.11703e-05
-9.28139e-07
1.11591e-05
-9.20906e-07
1.11546e-05
-9.08524e-07
1.11575e-05
-8.9314e-07
1.11683e-05
-8.77088e-07
1.11866e-05
-8.61862e-07
1.12115e-05
-8.48319e-07
1.12415e-05
-8.37211e-07
1.12769e-05
-8.30189e-07
-8.2774e-07
1.13186e-05
1.2258e-05
-5.19855e-07
1.21691e-05
-7.18867e-07
1.2045e-05
-8.88021e-07
1.18954e-05
-1.01023e-06
1.17419e-05
-1.08156e-06
1.16e-05
-1.10874e-06
1.14779e-05
-1.10017e-06
1.13825e-05
-1.06415e-06
1.13168e-05
-1.01118e-06
1.12803e-05
-9.51292e-07
1.12697e-05
-8.91693e-07
1.12778e-05
-8.38934e-07
1.12973e-05
-8.00839e-07
1.13228e-05
-7.79774e-07
1.13467e-05
-7.71705e-07
1.13639e-05
-7.76175e-07
1.13714e-05
-7.91371e-07
1.13683e-05
-8.13154e-07
1.13577e-05
-8.38265e-07
1.13421e-05
-8.63243e-07
1.13223e-05
-8.84166e-07
1.12998e-05
-8.98493e-07
1.12772e-05
-9.05932e-07
1.12566e-05
-9.07514e-07
1.12403e-05
-9.04615e-07
1.12301e-05
-8.98311e-07
1.12265e-05
-8.89564e-07
1.12295e-05
-8.80113e-07
1.12388e-05
-8.7112e-07
1.12546e-05
-8.64156e-07
1.12772e-05
-8.5975e-07
1.13057e-05
-8.58689e-07
-8.61869e-07
1.13398e-05
1.23034e-05
-4.84746e-07
1.22263e-05
-6.41805e-07
1.21153e-05
-7.77056e-07
1.19853e-05
-8.80222e-07
1.18513e-05
-9.47526e-07
1.17239e-05
-9.81397e-07
1.16111e-05
-9.87309e-07
1.15185e-05
-9.71567e-07
1.14488e-05
-9.41429e-07
1.1401e-05
-9.03551e-07
1.1373e-05
-8.63659e-07
1.13616e-05
-8.27589e-07
1.13611e-05
-8.00319e-07
1.13666e-05
-7.85224e-07
1.13752e-05
-7.803e-07
1.13821e-05
-7.83088e-07
1.13838e-05
-7.93063e-07
1.13799e-05
-8.09274e-07
1.13698e-05
-8.28167e-07
1.13534e-05
-8.46806e-07
1.13328e-05
-8.63578e-07
1.13106e-05
-8.76309e-07
1.12891e-05
-8.84408e-07
1.12699e-05
-8.88376e-07
1.12544e-05
-8.89097e-07
1.12433e-05
-8.87221e-07
1.12373e-05
-8.8359e-07
1.12373e-05
-8.80044e-07
1.12434e-05
-8.77282e-07
1.12553e-05
-8.76021e-07
1.12729e-05
-8.77357e-07
1.12963e-05
-8.82072e-07
-8.90972e-07
1.13254e-05
1.21865e-05
-4.54658e-07
1.2124e-05
-5.79305e-07
1.2036e-05
-6.89109e-07
1.19322e-05
-7.76345e-07
1.1823e-05
-8.38386e-07
1.17175e-05
-8.75858e-07
1.16219e-05
-8.91767e-07
1.15408e-05
-8.904e-07
1.1476e-05
-8.76698e-07
1.14279e-05
-8.55456e-07
1.13955e-05
-8.3122e-07
1.13766e-05
-8.08674e-07
1.1368e-05
-7.91773e-07
1.13653e-05
-7.82503e-07
1.13647e-05
-7.79642e-07
1.13637e-05
-7.82126e-07
1.13607e-05
-7.90032e-07
1.13537e-05
-8.02339e-07
1.13427e-05
-8.17101e-07
1.13279e-05
-8.32057e-07
1.13102e-05
-8.45889e-07
1.12914e-05
-8.57442e-07
1.1273e-05
-8.66064e-07
1.12568e-05
-8.72135e-07
1.12435e-05
-8.7587e-07
1.12343e-05
-8.77933e-07
1.12302e-05
-8.79478e-07
1.12308e-05
-8.80662e-07
1.12361e-05
-8.82609e-07
1.12465e-05
-8.864e-07
1.12619e-05
-8.92829e-07
1.12824e-05
-9.0257e-07
-9.16399e-07
1.13079e-05
1.2054e-05
-4.29282e-07
1.20049e-05
-5.30171e-07
1.19368e-05
-6.21051e-07
1.18567e-05
-6.96199e-07
1.17715e-05
-7.53184e-07
1.16875e-05
-7.91874e-07
1.16097e-05
-8.13943e-07
1.15415e-05
-8.22213e-07
1.14848e-05
-8.20065e-07
1.14405e-05
-8.11074e-07
1.14082e-05
-7.98919e-07
1.13867e-05
-7.87164e-07
1.13734e-05
-7.7848e-07
1.13647e-05
-7.73864e-07
1.13581e-05
-7.73021e-07
1.13522e-05
-7.76199e-07
1.13455e-05
-7.83355e-07
1.13368e-05
-7.93661e-07
1.13256e-05
-8.05841e-07
1.1312e-05
-8.1851e-07
1.12969e-05
-8.30802e-07
1.12814e-05
-8.41891e-07
1.12666e-05
-8.51261e-07
1.12534e-05
-8.58975e-07
1.12427e-05
-8.65176e-07
1.12354e-05
-8.70659e-07
1.12317e-05
-8.75749e-07
1.12319e-05
-8.80866e-07
1.12363e-05
-8.8704e-07
1.12449e-05
-8.94981e-07
1.12576e-05
-9.05535e-07
1.12744e-05
-9.19384e-07
-9.37262e-07
1.12953e-05
1.19546e-05
-4.07795e-07
1.19162e-05
-4.91775e-07
1.18637e-05
-5.68508e-07
1.18014e-05
-6.33939e-07
1.17343e-05
-6.86028e-07
1.16668e-05
-7.24413e-07
1.16029e-05
-7.50018e-07
1.15453e-05
-7.64667e-07
1.1496e-05
-7.70717e-07
1.14557e-05
-7.7081e-07
1.14245e-05
-7.67683e-07
1.14012e-05
-7.63885e-07
1.1384e-05
-7.61288e-07
1.13709e-05
-7.6071e-07
1.13602e-05
-7.6238e-07
1.13508e-05
-7.66794e-07
1.13415e-05
-7.73997e-07
1.13312e-05
-7.83437e-07
1.13197e-05
-7.94329e-07
1.1307e-05
-8.05817e-07
1.12935e-05
-8.17304e-07
1.12799e-05
-8.28214e-07
1.12668e-05
-8.38228e-07
1.12552e-05
-8.47325e-07
1.12457e-05
-8.55659e-07
1.12387e-05
-8.63739e-07
1.12346e-05
-8.71586e-07
1.12337e-05
-8.79982e-07
1.12363e-05
-8.8961e-07
1.12423e-05
-9.01054e-07
1.12518e-05
-9.15031e-07
1.12647e-05
-9.32226e-07
-9.53334e-07
1.12807e-05
1.18797e-05
-3.89663e-07
1.18489e-05
-4.60926e-07
1.18071e-05
-5.26714e-07
1.17574e-05
-5.84264e-07
1.17033e-05
-6.31942e-07
1.16482e-05
-6.69289e-07
1.1595e-05
-6.96797e-07
1.1546e-05
-7.15648e-07
1.15027e-05
-7.27467e-07
1.1466e-05
-7.34132e-07
1.1436e-05
-7.37616e-07
1.14119e-05
-7.3977e-07
1.13926e-05
-7.42002e-07
1.13769e-05
-7.4501e-07
1.13636e-05
-7.49146e-07
1.13518e-05
-7.54978e-07
1.13406e-05
-7.62724e-07
1.13291e-05
-7.72002e-07
1.13171e-05
-7.8233e-07
1.13045e-05
-7.93241e-07
1.12916e-05
-8.04379e-07
1.12788e-05
-8.15408e-07
1.12667e-05
-8.26094e-07
1.12558e-05
-8.36404e-07
1.12466e-05
-8.46469e-07
1.12394e-05
-8.56559e-07
1.12346e-05
-8.66832e-07
1.12326e-05
-8.77929e-07
1.12332e-05
-8.90247e-07
1.12366e-05
-9.04428e-07
1.12426e-05
-9.21074e-07
1.12512e-05
-9.40787e-07
-9.6424e-07
1.12621e-05
1.18183e-05
-3.74242e-07
1.1793e-05
-4.35661e-07
1.17592e-05
-4.929e-07
1.1719e-05
-5.44065e-07
1.16749e-05
-5.87863e-07
1.16294e-05
-6.2381e-07
1.15848e-05
-6.52155e-07
1.15428e-05
-6.73691e-07
1.15049e-05
-6.89513e-07
1.14716e-05
-7.00899e-07
1.14433e-05
-7.0922e-07
1.14193e-05
-7.15833e-07
1.13992e-05
-7.21865e-07
1.13821e-05
-7.2791e-07
1.13672e-05
-7.34298e-07
1.13538e-05
-7.41582e-07
1.13412e-05
-7.50055e-07
1.13286e-05
-7.59484e-07
1.1316e-05
-7.69633e-07
1.13031e-05
-7.8034e-07
1.12901e-05
-7.91391e-07
1.12773e-05
-8.02626e-07
1.12651e-05
-8.13914e-07
1.12539e-05
-8.25211e-07
1.12441e-05
-8.36629e-07
1.12358e-05
-8.4829e-07
1.12294e-05
-8.60458e-07
1.12251e-05
-8.73628e-07
1.1223e-05
-8.88096e-07
1.12228e-05
-9.04202e-07
1.12242e-05
-9.2254e-07
1.12272e-05
-9.43732e-07
-9.68408e-07
1.12313e-05
1.17684e-05
-3.61133e-07
1.17474e-05
-4.14741e-07
1.17197e-05
-4.65141e-07
1.16867e-05
-5.11046e-07
1.16502e-05
-5.51437e-07
1.16123e-05
-5.85815e-07
1.15744e-05
-6.14289e-07
1.15381e-05
-6.37417e-07
1.15045e-05
-6.55922e-07
1.14742e-05
-6.70601e-07
1.14474e-05
-6.82402e-07
1.14239e-05
-6.92309e-07
1.14033e-05
-7.0126e-07
1.13851e-05
-7.09739e-07
1.13688e-05
-7.1804e-07
1.1354e-05
-7.2676e-07
1.13399e-05
-7.35893e-07
1.13258e-05
-7.45386e-07
1.13116e-05
-7.55461e-07
1.12974e-05
-7.66114e-07
1.12831e-05
-7.77134e-07
1.12689e-05
-7.88432e-07
1.1255e-05
-8.00044e-07
1.12417e-05
-8.11827e-07
1.12291e-05
-8.24067e-07
1.12178e-05
-8.36955e-07
1.12078e-05
-8.50476e-07
1.1199e-05
-8.64841e-07
1.11912e-05
-8.80298e-07
1.11841e-05
-8.97106e-07
1.11773e-05
-9.15708e-07
1.11703e-05
-9.36726e-07
-9.60795e-07
1.11626e-05
1.17277e-05
-3.49744e-07
1.17098e-05
-3.96916e-07
1.16864e-05
-4.41684e-07
1.16585e-05
-4.83138e-07
1.16274e-05
-5.20416e-07
1.15946e-05
-5.52994e-07
1.15614e-05
-5.81035e-07
1.15289e-05
-6.04976e-07
1.14982e-05
-6.2516e-07
1.14695e-05
-6.41918e-07
1.14431e-05
-6.56046e-07
1.14192e-05
-6.68398e-07
1.13975e-05
-6.79548e-07
1.13777e-05
-6.89913e-07
1.13592e-05
-6.99555e-07
1.13412e-05
-7.08775e-07
1.13234e-05
-7.18096e-07
1.13059e-05
-7.27871e-07
1.12883e-05
-7.37919e-07
1.12703e-05
-7.48114e-07
1.12518e-05
-7.58543e-07
1.12326e-05
-7.6928e-07
1.12129e-05
-7.8038e-07
1.1193e-05
-7.91849e-07
1.11727e-05
-8.03808e-07
1.11521e-05
-8.16396e-07
1.11313e-05
-8.29644e-07
1.111e-05
-8.43548e-07
1.10878e-05
-8.58087e-07
1.1064e-05
-8.73348e-07
1.1038e-05
-8.89638e-07
1.10087e-05
-9.07467e-07
-9.27534e-07
1.09755e-05
1.16908e-05
-3.38598e-07
1.1674e-05
-3.80112e-07
1.16522e-05
-4.19875e-07
1.1626e-05
-4.57004e-07
1.15966e-05
-4.90948e-07
1.15652e-05
-5.21606e-07
1.15329e-05
-5.48734e-07
1.15002e-05
-5.7233e-07
1.14679e-05
-5.9284e-07
1.14369e-05
-6.10874e-07
1.14076e-05
-6.26781e-07
1.13799e-05
-6.40724e-07
1.13534e-05
-6.53052e-07
1.13276e-05
-6.6409e-07
1.13021e-05
-6.7401e-07
1.12763e-05
-6.83021e-07
1.12497e-05
-6.91518e-07
1.12217e-05
-6.99876e-07
1.1192e-05
-7.08161e-07
1.11602e-05
-7.16341e-07
1.11262e-05
-7.2454e-07
1.10898e-05
-7.32894e-07
1.10509e-05
-7.41447e-07
1.10093e-05
-7.50272e-07
1.0965e-05
-7.59481e-07
1.09177e-05
-7.69166e-07
1.08673e-05
-7.79203e-07
1.0813e-05
-7.89272e-07
1.07541e-05
-7.99161e-07
1.06896e-05
-8.08851e-07
1.06184e-05
-8.18467e-07
1.05394e-05
-8.28392e-07
-8.39233e-07
1.04511e-05
1.16097e-05
-3.22442e-07
1.15879e-05
-3.58257e-07
1.15608e-05
-3.92777e-07
1.15291e-05
-4.25372e-07
1.14937e-05
-4.55577e-07
1.14553e-05
-4.83184e-07
1.14146e-05
-5.08053e-07
1.13725e-05
-5.30163e-07
1.13293e-05
-5.49706e-07
1.12855e-05
-5.66993e-07
1.12409e-05
-5.8226e-07
1.11958e-05
-5.95584e-07
1.11497e-05
-6.06991e-07
1.11022e-05
-6.1654e-07
1.10524e-05
-6.2426e-07
1.09998e-05
-6.30349e-07
1.09435e-05
-6.35272e-07
1.08831e-05
-6.3941e-07
1.08178e-05
-6.42889e-07
1.07472e-05
-6.45758e-07
1.06708e-05
-6.48103e-07
1.05879e-05
-6.50067e-07
1.04984e-05
-6.51908e-07
1.04019e-05
-6.53809e-07
1.02983e-05
-6.55846e-07
1.01874e-05
-6.58256e-07
1.00689e-05
-6.60691e-07
9.94199e-06
-6.62386e-07
9.80563e-06
-6.628e-07
9.6584e-06
-6.61616e-07
9.49875e-06
-6.58814e-07
9.32506e-06
-6.54709e-07
-6.49801e-07
9.13563e-06
1.12937e-05
-2.87101e-07
1.12508e-05
-3.1531e-07
1.12005e-05
-3.42504e-07
1.11433e-05
-3.68202e-07
1.10798e-05
-3.92009e-07
1.10103e-05
-4.13696e-07
1.09354e-05
-4.33205e-07
1.08558e-05
-4.50559e-07
1.07719e-05
-4.65758e-07
1.06838e-05
-4.78905e-07
1.05916e-05
-4.90064e-07
1.04952e-05
-4.99199e-07
1.03943e-05
-5.06072e-07
1.02878e-05
-5.10022e-07
1.01744e-05
-5.10854e-07
1.00532e-05
-5.09197e-07
9.92362e-06
-5.05675e-07
9.78486e-06
-5.00649e-07
9.63625e-06
-4.94288e-07
9.47727e-06
-4.86775e-07
9.30749e-06
-4.78326e-07
9.12662e-06
-4.69189e-07
8.93438e-06
-4.59676e-07
8.7306e-06
-4.50027e-07
8.51515e-06
-4.4039e-07
8.28651e-06
-4.2962e-07
8.0431e-06
-4.17282e-07
7.78464e-06
-4.03925e-07
7.51118e-06
-3.89341e-07
7.22263e-06
-3.73065e-07
6.9186e-06
-3.5478e-07
6.59855e-06
-3.34665e-07
-3.13025e-07
6.26178e-06
1.00661e-05
-1.92924e-07
9.95955e-06
-2.08803e-07
9.84098e-06
-2.23938e-07
9.71079e-06
-2.38012e-07
9.56952e-06
-2.50734e-07
9.41773e-06
-2.61914e-07
9.25589e-06
-2.71358e-07
9.08432e-06
-2.78994e-07
8.90376e-06
-2.85191e-07
8.71508e-06
-2.90226e-07
8.51877e-06
-2.93754e-07
8.3135e-06
-2.93936e-07
8.09565e-06
-2.88219e-07
7.86269e-06
-2.77062e-07
7.61461e-06
-2.62773e-07
7.35217e-06
-2.46755e-07
7.07627e-06
-2.2978e-07
6.78783e-06
-2.12207e-07
6.48783e-06
-1.94284e-07
6.17726e-06
-1.76212e-07
5.85695e-06
-1.58015e-07
5.52765e-06
-1.39883e-07
5.19006e-06
-1.22087e-07
4.84494e-06
-1.04911e-07
4.49333e-06
-8.87842e-08
4.13949e-06
-7.57746e-08
3.78924e-06
-6.70358e-08
3.44631e-06
-6.09955e-08
3.11267e-06
-5.56997e-08
2.78877e-06
-4.91658e-08
2.47407e-06
-4.00807e-08
2.16694e-06
-2.75352e-08
-1.26069e-08
1.86653e-06
5.66662e-06
5.45781e-06
5.23387e-06
4.99586e-06
4.74513e-06
4.48321e-06
4.21186e-06
3.93286e-06
3.64767e-06
3.35745e-06
3.06369e-06
2.76975e-06
2.48154e-06
2.20447e-06
1.9417e-06
1.69495e-06
1.46517e-06
1.25296e-06
1.05868e-06
8.82463e-07
7.24448e-07
5.84565e-07
4.62478e-07
3.57567e-07
2.68783e-07
1.93008e-07
1.25973e-07
6.49771e-08
9.27743e-09
-3.98884e-08
-7.99691e-08
-1.07504e-07
-1.20111e-07
4.55618e-06
-4.37985e-07
6.24522e-07
4.49676e-06
-3.89065e-07
4.48489e-07
4.53956e-06
-2.39717e-07
1.96916e-07
4.76041e-06
-4.12285e-08
-1.79617e-07
5.2309e-06
2.14517e-07
-6.85009e-07
5.94584e-06
3.96566e-07
-1.1115e-06
6.82108e-06
4.75821e-07
-1.35106e-06
7.77506e-06
3.90387e-07
-1.34437e-06
8.76217e-06
8.25006e-08
-1.06961e-06
9.75538e-06
-4.97132e-07
-4.96078e-07
1.06198e-05
-1.28635e-06
4.21966e-07
1.11759e-05
-2.11869e-06
1.56257e-06
1.14114e-05
-2.86288e-06
2.62735e-06
1.13954e-05
-3.46853e-06
3.48451e-06
1.1203e-05
-3.91145e-06
4.10391e-06
1.08892e-05
-4.18319e-06
4.49698e-06
1.04999e-05
-4.30215e-06
4.69144e-06
1.00799e-05
-4.29857e-06
4.71857e-06
9.66418e-06
-4.21009e-06
4.6258e-06
9.27094e-06
-4.06863e-06
4.46187e-06
8.90489e-06
-3.8947e-06
4.26076e-06
8.56212e-06
-3.70112e-06
4.04389e-06
8.23779e-06
-3.49675e-06
3.82109e-06
7.93219e-06
-3.28459e-06
3.59019e-06
7.64514e-06
-3.0583e-06
3.34535e-06
7.35496e-06
-2.81211e-06
3.10229e-06
7.01534e-06
-2.56237e-06
2.90199e-06
6.60155e-06
-2.34678e-06
2.76058e-06
6.16954e-06
-2.17851e-06
2.61051e-06
5.83195e-06
-1.99597e-06
2.33357e-06
5.67332e-06
-1.69773e-06
1.85636e-06
5.70811e-06
-1.22664e-06
1.19184e-06
5.90714e-06
-6.01038e-07
4.02011e-07
6.21109e-06
1.13472e-07
-4.17424e-07
6.55895e-06
8.28831e-07
-1.17669e-06
6.91727e-06
1.47921e-06
-1.83753e-06
7.26308e-06
2.04078e-06
-2.38659e-06
7.58038e-06
2.50847e-06
-2.82576e-06
7.8597e-06
2.88875e-06
-3.16807e-06
8.09801e-06
3.19505e-06
-3.43336e-06
8.29833e-06
3.4429e-06
-3.64322e-06
8.4684e-06
3.64406e-06
-3.81413e-06
8.61878e-06
3.80148e-06
-3.95187e-06
8.76406e-06
3.9054e-06
-4.05068e-06
8.92503e-06
3.92897e-06
-4.08995e-06
9.11863e-06
3.83283e-06
-4.02643e-06
9.34688e-06
3.57718e-06
-3.80543e-06
9.60563e-06
3.13681e-06
-3.39556e-06
9.88791e-06
2.51349e-06
-2.79577e-06
1.0179e-05
1.73997e-06
-2.03106e-06
1.0452e-05
8.88359e-07
-1.16134e-06
1.06801e-05
5.26528e-08
-2.80738e-07
1.08494e-05
-7.06442e-07
5.37107e-07
1.09537e-05
-1.35366e-06
1.24936e-06
1.0994e-05
-1.87413e-06
1.83387e-06
1.09766e-05
-2.26825e-06
2.28564e-06
1.09102e-05
-2.54672e-06
2.61309e-06
1.0802e-05
-2.72255e-06
2.83073e-06
1.06568e-05
-2.80788e-06
2.95308e-06
1.04823e-05
-2.8191e-06
2.99366e-06
1.02885e-05
-2.77848e-06
2.97223e-06
1.00819e-05
-2.70425e-06
2.91087e-06
9.86548e-06
-2.61121e-06
2.82761e-06
9.63991e-06
-2.51231e-06
2.73788e-06
9.40477e-06
-2.41914e-06
2.65428e-06
9.16055e-06
-2.3401e-06
2.58432e-06
8.91019e-06
-2.27685e-06
2.52721e-06
8.65985e-06
-2.22174e-06
2.47208e-06
8.41858e-06
-2.15812e-06
2.3994e-06
8.19671e-06
-2.06327e-06
2.28514e-06
8.00333e-06
-1.91466e-06
2.10803e-06
7.84484e-06
-1.69758e-06
1.85607e-06
7.72493e-06
-1.40907e-06
1.52899e-06
7.64512e-06
-1.05712e-06
1.13693e-06
7.60516e-06
-6.57271e-07
6.97237e-07
7.60308e-06
-2.29068e-07
2.31145e-07
7.63465e-06
2.05987e-07
-2.3756e-07
7.69555e-06
6.2973e-07
-6.90633e-07
7.78069e-06
1.0302e-06
-1.11534e-06
7.88449e-06
1.39794e-06
-1.50174e-06
8.00138e-06
1.72639e-06
-1.84329e-06
8.12631e-06
2.01197e-06
-2.13689e-06
8.25484e-06
2.25366e-06
-2.3822e-06
8.38338e-06
2.45217e-06
-2.58071e-06
8.50946e-06
2.60892e-06
-2.735e-06
8.63222e-06
2.72523e-06
-2.84799e-06
8.7527e-06
2.80098e-06
-2.92146e-06
8.87316e-06
2.83233e-06
-2.9528e-06
8.99458e-06
2.81177e-06
-2.93318e-06
9.11686e-06
2.73294e-06
-2.85523e-06
9.23992e-06
2.59065e-06
-2.71371e-06
9.36329e-06
2.3815e-06
-2.50486e-06
9.48584e-06
2.1045e-06
-2.22705e-06
9.60579e-06
1.76185e-06
-1.8818e-06
9.72073e-06
1.35969e-06
-1.47463e-06
9.09172e-07
-1.01597e-06
7.78351e-06
-5.24665e-07
7.89962e-06
-5.05175e-07
8.06334e-06
-4.03437e-07
8.27922e-06
-2.57108e-07
8.62124e-06
-1.27502e-07
9.08764e-06
-6.98283e-08
9.67323e-06
-1.09774e-07
1.0343e-05
-2.79387e-07
1.10363e-05
-6.10771e-07
1.16452e-05
-1.10604e-06
1.20402e-05
-1.6814e-06
1.21767e-05
-2.25515e-06
1.21124e-05
-2.79858e-06
1.1902e-05
-3.25812e-06
1.15736e-05
-3.58302e-06
1.11696e-05
-3.77919e-06
1.07318e-05
-3.86435e-06
1.02943e-05
-3.86109e-06
9.877e-06
-3.7928e-06
9.48708e-06
-3.67871e-06
9.12535e-06
-3.53297e-06
8.78909e-06
-3.36487e-06
8.47309e-06
-3.18075e-06
8.17337e-06
-2.98486e-06
7.89198e-06
-2.7769e-06
7.62985e-06
-2.54999e-06
7.36626e-06
-2.29879e-06
7.05652e-06
-2.03704e-06
6.67731e-06
-1.7993e-06
6.2834e-06
-1.60207e-06
5.98483e-06
-1.39916e-06
5.86353e-06
-1.10534e-06
5.93247e-06
-6.69981e-07
6.15352e-06
-1.07572e-07
6.4603e-06
5.22044e-07
6.79723e-06
1.14229e-06
7.13656e-06
1.70145e-06
7.46026e-06
2.18477e-06
7.75746e-06
2.59154e-06
8.02405e-06
2.92846e-06
8.26204e-06
3.20491e-06
8.47867e-06
3.42743e-06
8.68561e-06
3.59454e-06
8.89869e-06
3.69233e-06
9.13434e-06
3.69332e-06
9.40175e-06
3.56543e-06
9.70137e-06
3.27756e-06
1.00264e-05
2.81181e-06
1.03642e-05
2.17567e-06
1.06933e-05
1.41083e-06
1.09804e-05
6.01315e-07
1.12028e-05
-1.69785e-07
1.13501e-05
-8.53775e-07
1.1421e-05
-1.4245e-06
1.14213e-05
-1.87442e-06
1.13611e-05
-2.20812e-06
1.12508e-05
-2.43637e-06
1.10976e-05
-2.56932e-06
1.09096e-05
-2.61987e-06
1.06985e-05
-2.60807e-06
1.04732e-05
-2.55319e-06
1.02392e-05
-2.47016e-06
9.99878e-06
-2.37083e-06
9.75228e-06
-2.26581e-06
9.49873e-06
-2.16559e-06
9.23784e-06
-2.07921e-06
8.97168e-06
-2.01069e-06
8.70562e-06
-1.95569e-06
8.44789e-06
-1.90039e-06
8.20885e-06
-1.82423e-06
7.9989e-06
-1.7047e-06
7.82567e-06
-1.52435e-06
7.69328e-06
-1.27668e-06
7.60302e-06
-9.66859e-07
7.55424e-06
-6.0849e-07
7.54473e-06
-2.1956e-07
7.57031e-06
1.80407e-07
7.62664e-06
5.73393e-07
7.70914e-06
9.47703e-07
7.81272e-06
1.29437e-06
7.93218e-06
1.60692e-06
8.06271e-06
1.88145e-06
8.20008e-06
2.11629e-06
8.34103e-06
2.31122e-06
8.48338e-06
2.46657e-06
8.62635e-06
2.58227e-06
8.77071e-06
2.65661e-06
8.91792e-06
2.68513e-06
9.06809e-06
2.6616e-06
9.22054e-06
2.58049e-06
9.37419e-06
2.437e-06
9.52744e-06
2.22825e-06
9.67805e-06
1.95388e-06
9.82323e-06
1.61667e-06
9.95958e-06
1.22334e-06
7.85919e-07
9.75665e-06
-6.35577e-07
9.86526e-06
-6.13778e-07
1.00178e-05
-5.55975e-07
1.02451e-05
-4.84418e-07
1.05558e-05
-4.38155e-07
1.09293e-05
-4.43394e-07
1.13461e-05
-5.26537e-07
1.1773e-05
-7.06334e-07
1.21431e-05
-9.80875e-07
1.23826e-05
-1.34552e-06
1.24723e-05
-1.77114e-06
1.24363e-05
-2.21907e-06
1.22775e-05
-2.63984e-06
1.19979e-05
-2.97845e-06
1.16367e-05
-3.22181e-06
1.12323e-05
-3.3748e-06
1.08146e-05
-3.44665e-06
1.04044e-05
-3.45093e-06
1.00133e-05
-3.40165e-06
9.64588e-06
-3.31133e-06
9.30297e-06
-3.19006e-06
8.98328e-06
-3.04518e-06
8.68398e-06
-2.88146e-06
8.40079e-06
-2.70167e-06
8.1314e-06
-2.50752e-06
7.87981e-06
-2.29839e-06
7.64974e-06
-2.06872e-06
7.42582e-06
-1.81311e-06
7.16792e-06
-1.54141e-06
6.84798e-06
-1.28213e-06
6.50425e-06
-1.05543e-06
6.23517e-06
-8.36251e-07
6.12738e-06
-5.62193e-07
6.20195e-06
-1.82144e-07
6.42263e-06
3.01367e-07
6.72275e-06
8.42165e-07
7.04751e-06
1.37669e-06
7.37099e-06
1.86129e-06
7.68017e-06
2.28236e-06
7.97039e-06
2.63824e-06
8.24347e-06
2.93183e-06
8.50652e-06
3.16438e-06
8.77099e-06
3.33007e-06
9.05069e-06
3.41264e-06
9.35661e-06
3.38739e-06
9.69354e-06
3.2285e-06
1.00587e-05
2.91236e-06
1.0442e-05
2.42859e-06
1.08253e-05
1.79239e-06
1.1179e-05
1.05713e-06
1.14684e-05
3.11914e-07
1.16757e-05
-3.77149e-07
1.17946e-05
-9.72626e-07
1.18289e-05
-1.4588e-06
1.17892e-05
-1.83474e-06
1.16881e-05
-2.10702e-06
1.15359e-05
-2.28421e-06
1.13422e-05
-2.37561e-06
1.11195e-05
-2.39719e-06
1.08792e-05
-2.3677e-06
1.06286e-05
-2.30259e-06
1.03723e-05
-2.21388e-06
1.01123e-05
-2.11087e-06
9.84874e-06
-2.00223e-06
9.58049e-06
-1.89734e-06
9.30675e-06
-1.80547e-06
9.02876e-06
-1.7327e-06
8.751e-06
-1.67792e-06
8.4809e-06
-1.6303e-06
8.22817e-06
-1.5715e-06
8.00385e-06
-1.48038e-06
7.81726e-06
-1.33776e-06
7.67357e-06
-1.13299e-06
7.57412e-06
-8.67404e-07
7.51782e-06
-5.52192e-07
7.50212e-06
-2.03863e-07
7.52289e-06
1.59641e-07
7.5754e-06
5.20879e-07
7.65549e-06
8.67622e-07
7.75856e-06
1.1913e-06
7.87994e-06
1.48555e-06
8.01515e-06
1.74623e-06
8.16036e-06
1.97108e-06
8.31262e-06
2.15896e-06
8.47002e-06
2.30916e-06
8.63191e-06
2.42037e-06
8.79875e-06
2.48978e-06
8.97096e-06
2.51291e-06
9.14785e-06
2.48471e-06
9.3281e-06
2.40025e-06
9.50972e-06
2.25538e-06
9.69005e-06
2.04792e-06
9.86585e-06
1.77808e-06
1.00334e-05
1.44917e-06
1.01881e-05
1.06856e-06
6.49198e-07
1.08552e-05
-7.19818e-07
1.09472e-05
-7.05768e-07
1.10729e-05
-6.81686e-07
1.1244e-05
-6.55534e-07
1.14519e-05
-6.46006e-07
1.16887e-05
-6.80229e-07
1.19399e-05
-7.77764e-07
1.21784e-05
-9.44783e-07
1.23756e-05
-1.17813e-06
1.24869e-05
-1.45674e-06
1.24926e-05
-1.7769e-06
1.23941e-05
-2.12052e-06
1.219e-05
-2.43578e-06
1.19034e-05
-2.69182e-06
1.15649e-05
-2.88334e-06
1.11996e-05
-3.00948e-06
1.08268e-05
-3.07388e-06
1.04598e-05
-3.08395e-06
1.01066e-05
-3.04842e-06
9.771e-06
-2.97574e-06
9.45426e-06
-2.87332e-06
9.1562e-06
-2.74712e-06
8.87588e-06
-2.60114e-06
8.61171e-06
-2.4375e-06
8.36172e-06
-2.25753e-06
8.12601e-06
-2.06269e-06
7.91002e-06
-1.85272e-06
7.71962e-06
-1.62272e-06
7.54438e-06
-1.36617e-06
7.34976e-06
-1.0875e-06
7.10418e-06
-8.09853e-07
6.82567e-06
-5.57737e-07
6.59e-06
-3.26525e-07
6.47913e-06
-7.12723e-08
6.52815e-06
2.52349e-07
6.71789e-06
6.52428e-07
6.99636e-06
1.09821e-06
7.30884e-06
1.54882e-06
7.62511e-06
1.9661e-06
7.93705e-06
2.3263e-06
8.24427e-06
2.62462e-06
8.55284e-06
2.85581e-06
8.87289e-06
3.01001e-06
9.21479e-06
3.07074e-06
9.58479e-06
3.01739e-06
9.984e-06
2.82929e-06
1.04061e-05
2.49025e-06
1.0837e-05
1.99769e-06
1.12528e-05
1.37663e-06
1.16154e-05
6.94472e-07
1.18955e-05
3.1821e-08
1.20786e-05
-5.60196e-07
1.21635e-05
-1.0576e-06
1.21601e-05
-1.45532e-06
1.20824e-05
-1.75708e-06
1.19439e-05
-1.96855e-06
1.17557e-05
-2.09594e-06
1.15306e-05
-2.15059e-06
1.12823e-05
-2.14882e-06
1.102e-05
-2.10543e-06
1.07501e-05
-2.03268e-06
1.04762e-05
-1.94004e-06
1.02004e-05
-1.83501e-06
9.92313e-06
-1.72497e-06
9.64391e-06
-1.61812e-06
9.36158e-06
-1.52313e-06
9.07627e-06
-1.44739e-06
8.79114e-06
-1.3928e-06
8.51278e-06
-1.35195e-06
8.25035e-06
-1.30906e-06
8.01456e-06
-1.24459e-06
7.8161e-06
-1.1393e-06
7.66183e-06
-9.78723e-07
7.55379e-06
-7.59372e-07
7.49081e-06
-4.89207e-07
7.46999e-06
-1.83041e-07
7.4871e-06
1.42533e-07
7.53683e-06
4.71144e-07
7.61504e-06
7.89413e-07
7.71768e-06
1.08865e-06
7.84065e-06
1.36258e-06
7.98e-06
1.60689e-06
8.13232e-06
1.81875e-06
8.29502e-06
1.99627e-06
8.46646e-06
2.13773e-06
8.64602e-06
2.24081e-06
8.83362e-06
2.30219e-06
9.02868e-06
2.31785e-06
9.22979e-06
2.28359e-06
9.43494e-06
2.1951e-06
9.64126e-06
2.04907e-06
9.84515e-06
1.84403e-06
1.00425e-05
1.58076e-06
1.02286e-05
1.26305e-06
1.03984e-05
8.98734e-07
5.02541e-07
1.12651e-05
-7.79562e-07
1.13322e-05
-7.72874e-07
1.14189e-05
-7.68406e-07
1.15357e-05
-7.72319e-07
1.16827e-05
-7.9301e-07
1.18474e-05
-8.44966e-07
1.20109e-05
-9.41207e-07
1.21526e-05
-1.08656e-06
1.2252e-05
-1.27747e-06
1.22977e-05
-1.50243e-06
1.22714e-05
-1.75065e-06
1.21586e-05
-2.00773e-06
1.19699e-05
-2.24708e-06
1.17245e-05
-2.44642e-06
1.14397e-05
-2.59846e-06
1.11314e-05
-2.7012e-06
1.0813e-05
-2.75551e-06
1.04944e-05
-2.76531e-06
1.01821e-05
-2.73609e-06
9.88013e-06
-2.67381e-06
9.59093e-06
-2.58412e-06
9.31556e-06
-2.47174e-06
9.05446e-06
-2.34005e-06
8.80819e-06
-2.19123e-06
8.57733e-06
-2.02666e-06
8.36199e-06
-1.84735e-06
8.16326e-06
-1.65399e-06
7.98599e-06
-1.44544e-06
7.83724e-06
-1.21742e-06
7.71516e-06
-9.65431e-07
7.59557e-06
-6.90261e-07
7.44142e-06
-4.03584e-07
7.24575e-06
-1.30855e-07
7.05265e-06
1.21829e-07
6.9385e-06
3.66494e-07
6.95061e-06
6.40316e-07
7.08704e-06
9.61782e-07
7.31936e-06
1.31649e-06
7.60998e-06
1.67548e-06
7.92814e-06
2.00813e-06
8.26215e-06
2.2906e-06
8.61253e-06
2.50543e-06
8.9846e-06
2.63795e-06
9.38373e-06
2.67161e-06
9.81252e-06
2.58859e-06
1.02681e-05
2.37369e-06
1.07401e-05
2.01825e-06
1.12087e-05
1.52913e-06
1.16388e-05
9.46515e-07
1.19916e-05
3.41707e-07
1.22467e-05
-2.23323e-07
1.23952e-05
-7.08641e-07
1.24418e-05
-1.10425e-06
1.24016e-05
-1.4151e-06
1.22905e-05
-1.64599e-06
1.21214e-05
-1.79946e-06
1.19068e-05
-1.88136e-06
1.16611e-05
-1.90483e-06
1.13953e-05
-1.88303e-06
1.11174e-05
-1.82754e-06
1.08327e-05
-1.74804e-06
1.05447e-05
-1.65206e-06
1.0256e-05
-1.54622e-06
9.9682e-06
-1.43722e-06
9.68174e-06
-1.33166e-06
9.39539e-06
-1.23679e-06
9.10808e-06
-1.16009e-06
8.82115e-06
-1.10586e-06
8.53975e-06
-1.07055e-06
8.27236e-06
-1.04167e-06
8.02908e-06
-1.00131e-06
7.82052e-06
-9.30731e-07
7.65573e-06
-8.13934e-07
7.53899e-06
-6.42633e-07
7.46956e-06
-4.19774e-07
7.44396e-06
-1.57446e-07
7.45804e-06
1.28458e-07
7.50611e-06
4.2307e-07
7.58322e-06
7.12307e-07
7.6858e-06
9.86069e-07
7.81036e-06
1.23802e-06
7.95356e-06
1.46369e-06
8.11249e-06
1.65982e-06
8.28492e-06
1.82384e-06
8.46946e-06
1.95318e-06
8.66536e-06
2.04491e-06
8.87174e-06
2.09581e-06
9.08712e-06
2.10247e-06
9.30955e-06
2.06117e-06
9.53622e-06
1.96842e-06
9.76345e-06
1.82184e-06
9.98684e-06
1.62064e-06
1.02015e-05
1.36605e-06
1.04024e-05
1.06218e-06
1.05835e-05
7.17619e-07
3.49954e-07
1.13678e-05
-8.28719e-07
1.14277e-05
-8.32838e-07
1.15017e-05
-8.4234e-07
1.15914e-05
-8.62073e-07
1.16966e-05
-8.98156e-07
1.18101e-05
-9.58496e-07
1.19193e-05
-1.05036e-06
1.2009e-05
-1.17628e-06
1.20648e-05
-1.33332e-06
1.20763e-05
-1.51396e-06
1.20343e-05
-1.70861e-06