/*--------------------------------*- C++ -*----------------------------------*\
| =========                 |                                                 |
| \\      /  F ield         | OpenFOAM: The Open Source CFD Toolbox           |
|  \\    /   O peration     | Version:  2206                                  |
|   \\  /    A nd           | Website:  www.openfoam.com                      |
|    \\/     M anipulation  |                                                 |
\*---------------------------------------------------------------------------*/
FoamFile
{
    version     2.0;
    format      ascii;
    arch        "LSB;label=32;scalar=64";
    class       surfaceScalarField;
    location    "18.8001";
    object      phi;
}
// * * * * * * * * * * * * * * * * * * * * * * * * * * * * * * * * * * * * * //

dimensions      [0 3 -1 0 0 0 0];

oriented        oriented;

internalField   nonuniform List<scalar> 
3539
(
6.35061e-06
-3.05294e-07
5.2599e-07
6.14066e-06
-2.76997e-07
4.86945e-07
5.95043e-06
-2.66316e-07
4.56549e-07
5.78362e-06
-2.72134e-07
4.38941e-07
5.64042e-06
-2.89032e-07
4.32237e-07
5.51881e-06
-3.09163e-07
4.3077e-07
5.41588e-06
-3.24194e-07
4.2712e-07
5.32904e-06
-3.27003e-07
4.13844e-07
5.25725e-06
-3.12565e-07
3.84361e-07
5.2011e-06
-2.78137e-07
3.34284e-07
5.16146e-06
-2.23535e-07
2.63176e-07
5.13925e-06
-1.50071e-07
1.72277e-07
5.13545e-06
-6.10688e-08
6.48672e-08
5.15015e-06
3.79974e-08
-5.26899e-08
5.183e-06
1.41159e-07
-1.74016e-07
5.23217e-06
2.41392e-07
-2.90555e-07
5.2955e-06
3.32755e-07
-3.9609e-07
5.37078e-06
4.10603e-07
-4.85881e-07
5.4558e-06
4.71389e-07
-5.56408e-07
5.54843e-06
5.12736e-07
-6.05364e-07
5.64658e-06
5.33244e-07
-6.31395e-07
5.74839e-06
5.32126e-07
-6.33941e-07
5.8524e-06
5.09111e-07
-6.13116e-07
5.95721e-06
4.64645e-07
-5.69456e-07
6.06124e-06
4.00408e-07
-5.04446e-07
6.1615e-06
3.2025e-07
-4.20504e-07
6.25278e-06
2.29701e-07
-3.20985e-07
6.32881e-06
1.35122e-07
-2.11151e-07
6.38414e-06
4.20356e-08
-9.73677e-08
6.41493e-06
-4.48661e-08
1.40807e-08
6.41854e-06
-1.21628e-07
1.18016e-07
6.39247e-06
-1.84018e-07
2.10085e-07
6.33668e-06
-2.30224e-07
2.86011e-07
6.25511e-06
-2.60914e-07
3.42492e-07
6.15534e-06
-2.79565e-07
3.79331e-07
6.04661e-06
-2.90479e-07
3.99213e-07
5.93723e-06
-2.97364e-07
4.06745e-07
5.83267e-06
-3.02127e-07
4.06684e-07
5.73581e-06
-3.04948e-07
4.01807e-07
5.64809e-06
-3.04819e-07
3.92537e-07
5.5701e-06
-2.99999e-07
3.7799e-07
5.50206e-06
-2.88565e-07
3.56606e-07
5.44427e-06
-2.68791e-07
3.2658e-07
5.39742e-06
-2.39348e-07
2.862e-07
5.36215e-06
-1.99582e-07
2.34846e-07
5.33885e-06
-1.49635e-07
1.72935e-07
5.32774e-06
-9.05675e-08
1.01683e-07
5.32883e-06
-2.45348e-08
2.34432e-08
5.34185e-06
4.52629e-08
-5.8286e-08
5.36578e-06
1.14822e-07
-1.38752e-07
5.39931e-06
1.80162e-07
-2.13693e-07
5.44101e-06
2.38178e-07
-2.79876e-07
5.48937e-06
2.8642e-07
-3.34778e-07
5.543e-06
3.2307e-07
-3.767e-07
5.60061e-06
3.47029e-07
-4.04643e-07
5.66091e-06
3.57848e-07
-4.1814e-07
5.72265e-06
3.55376e-07
-4.17118e-07
5.78477e-06
3.39748e-07
-4.01868e-07
5.84615e-06
3.11503e-07
-3.72888e-07
5.90548e-06
2.71894e-07
-3.31217e-07
5.96073e-06
2.23206e-07
-2.78463e-07
6.00923e-06
1.68254e-07
-2.16752e-07
6.04816e-06
1.10057e-07
-1.48987e-07
6.07531e-06
5.11746e-08
-7.83274e-08
6.08929e-06
-6.08012e-09
-7.89137e-09
6.08934e-06
-5.96773e-08
5.9627e-08
6.07515e-06
-1.07636e-07
1.21826e-07
6.04695e-06
-1.48344e-07
1.76539e-07
6.00621e-06
-1.81202e-07
2.2194e-07
5.95544e-06
-2.06422e-07
2.57198e-07
5.8978e-06
-2.247e-07
2.82338e-07
5.83666e-06
-2.36733e-07
2.97876e-07
5.77493e-06
-2.42978e-07
3.04699e-07
5.71481e-06
-2.43593e-07
3.03713e-07
5.65789e-06
-2.38456e-07
2.95381e-07
5.60548e-06
-2.27224e-07
2.79631e-07
5.55877e-06
-2.09548e-07
2.56262e-07
5.51881e-06
-1.85207e-07
2.25167e-07
5.48653e-06
-1.54161e-07
1.86439e-07
5.46266e-06
-1.1669e-07
1.40559e-07
5.44765e-06
-7.34948e-08
8.85074e-08
5.44185e-06
-2.59136e-08
3.17112e-08
5.44519e-06
2.38152e-08
-2.71555e-08
5.45719e-06
7.31974e-08
-8.5199e-08
5.47698e-06
1.1969e-07
-1.39476e-07
5.50341e-06
1.6116e-07
-1.87592e-07
5.53524e-06
1.9582e-07
-2.27644e-07
5.57124e-06
2.22335e-07
-2.58341e-07
5.6103e-06
2.39918e-07
-2.78975e-07
5.65129e-06
2.48328e-07
-2.89322e-07
5.69319e-06
2.47604e-07
-2.89504e-07
5.73509e-06
2.37964e-07
-2.79861e-07
5.77604e-06
2.19849e-07
-2.60804e-07
5.81508e-06
1.94109e-07
-2.33146e-07
5.85104e-06
1.62138e-07
-1.98098e-07
5.88254e-06
1.25577e-07
-1.57073e-07
5.90816e-06
8.61816e-08
-1.1181e-07
5.9268e-06
4.55403e-08
-6.41798e-08
5.93778e-06
5.16889e-09
-1.61425e-08
5.94075e-06
-3.35586e-08
3.05903e-08
5.93566e-06
-6.93768e-08
7.44626e-08
5.92264e-06
-1.01082e-07
1.14103e-07
5.90202e-06
-1.27699e-07
1.48316e-07
5.87472e-06
-1.48805e-07
1.76104e-07
5.84209e-06
-1.64211e-07
1.96841e-07
5.80568e-06
-1.74037e-07
2.10455e-07
5.76706e-06
-1.78514e-07
2.17124e-07
5.72776e-06
-1.77891e-07
2.17191e-07
5.68918e-06
-1.72425e-07
2.11011e-07
5.65258e-06
-1.62303e-07
1.98899e-07
5.61906e-06
-1.47665e-07
1.81183e-07
5.58954e-06
-1.28704e-07
1.58233e-07
5.56478e-06
-1.05683e-07
1.30438e-07
5.54546e-06
-7.89572e-08
9.82767e-08
5.53211e-06
-4.9077e-08
6.24324e-08
5.52505e-06
-1.68756e-08
2.39283e-08
5.52444e-06
1.63407e-08
-1.57238e-08
5.52997e-06
4.91398e-08
-5.46753e-08
5.54117e-06
8.0017e-08
-9.12092e-08
5.55732e-06
1.07606e-07
-1.23758e-07
5.57763e-06
1.30705e-07
-1.5102e-07
1.48399e-07
-1.72059e-07
5.75655e-06
-1.33675e-07
5.60543e-06
-1.25879e-07
5.47402e-06
-1.34909e-07
5.35893e-06
-1.5704e-07
5.25596e-06
-1.86057e-07
5.16147e-06
-2.14677e-07
5.07332e-06
-2.36042e-07
4.99125e-06
-2.44933e-07
4.91691e-06
-2.38228e-07
4.85347e-06
-2.14698e-07
4.8043e-06
-1.74367e-07
4.77223e-06
-1.18e-07
4.75902e-06
-4.78585e-08
4.7658e-06
3.12217e-08
4.79271e-06
1.14247e-07
4.83872e-06
1.95381e-07
4.90201e-06
2.69462e-07
4.98048e-06
3.32135e-07
5.07194e-06
3.79936e-07
5.17429e-06
4.10378e-07
5.28566e-06
4.21879e-07
5.40408e-06
4.13701e-07
5.52711e-06
3.86084e-07
5.65077e-06
3.40987e-07
5.76894e-06
2.8224e-07
5.87418e-06
2.15012e-07
5.95943e-06
1.44443e-07
6.01959e-06
7.49664e-08
6.05166e-06
9.96725e-09
6.05421e-06
-4.74131e-08
6.0267e-06
-9.41191e-08
5.97192e-06
-1.29237e-07
5.89587e-06
-1.54175e-07
5.80664e-06
-1.71685e-07
5.71181e-06
-1.84733e-07
5.61695e-06
-1.95621e-07
5.52514e-06
-2.0556e-07
5.43772e-06
-2.14707e-07
5.35513e-06
-2.22351e-07
5.27746e-06
-2.27147e-07
5.2049e-06
-2.27447e-07
5.138e-06
-2.21665e-07
5.07773e-06
-2.08519e-07
5.0255e-06
-1.87121e-07
4.98297e-06
-1.57045e-07
4.95168e-06
-1.18348e-07
4.93286e-06
-7.17432e-08
4.92711e-06
-1.87915e-08
4.93467e-06
3.77022e-08
4.95508e-06
9.44141e-08
4.98724e-06
1.48004e-07
5.02982e-06
1.95597e-07
5.08135e-06
2.34895e-07
5.14026e-06
2.64158e-07
5.20506e-06
2.82227e-07
5.27437e-06
2.88538e-07
5.34674e-06
2.83011e-07
5.42039e-06
2.66091e-07
5.49287e-06
2.39023e-07
5.56094e-06
2.03825e-07
5.62117e-06
1.62973e-07
5.67056e-06
1.18867e-07
5.70688e-06
7.37348e-08
5.72872e-06
2.93399e-08
5.73554e-06
-1.29007e-08
5.72734e-06
-5.14801e-08
5.70467e-06
-8.49618e-08
5.66915e-06
-1.12827e-07
5.62333e-06
-1.35381e-07
5.5701e-06
-1.53191e-07
5.5122e-06
-1.66806e-07
5.45204e-06
-1.76574e-07
5.39157e-06
-1.82501e-07
5.33226e-06
-1.84291e-07
5.27536e-06
-1.81556e-07
5.22202e-06
-1.73881e-07
5.17337e-06
-1.60899e-07
5.13057e-06
-1.42402e-07
5.09476e-06
-1.18357e-07
5.06705e-06
-8.8973e-08
5.04832e-06
-5.47703e-08
5.0392e-06
-1.67928e-08
5.03979e-06
2.32269e-08
5.04984e-06
6.3151e-08
5.06872e-06
1.00803e-07
5.09555e-06
1.34329e-07
5.12921e-06
1.62169e-07
5.16841e-06
1.83135e-07
5.21188e-06
1.96448e-07
5.25842e-06
2.01782e-07
5.30688e-06
1.99151e-07
5.35598e-06
1.88859e-07
5.4042e-06
1.71633e-07
5.44966e-06
1.48643e-07
5.49047e-06
1.21331e-07
5.52493e-06
9.11218e-08
5.55171e-06
5.93981e-08
5.56989e-06
2.73631e-08
5.57899e-06
-3.93064e-09
5.57886e-06
-3.34361e-08
5.56953e-06
-6.0039e-08
5.55139e-06
-8.29505e-08
5.52546e-06
-1.01767e-07
5.49313e-06
-1.16471e-07
5.45607e-06
-1.27155e-07
5.41599e-06
-1.33955e-07
5.37446e-06
-1.3698e-07
5.33289e-06
-1.36329e-07
5.29254e-06
-1.32069e-07
5.25444e-06
-1.24203e-07
5.21953e-06
-1.12755e-07
5.18866e-06
-9.78322e-08
5.1626e-06
-7.96248e-08
5.14206e-06
-5.84177e-08
5.12762e-06
-3.46348e-08
5.11968e-06
-8.94007e-09
5.11836e-06
1.76647e-08
5.12356e-06
4.39401e-08
5.13501e-06
6.85655e-08
5.1522e-06
9.0413e-08
5.17441e-06
1.08497e-07
1.2203e-07
5.21421e-06
-4.68048e-08
5.14078e-06
-5.24412e-08
5.07551e-06
-6.96446e-08
5.01207e-06
-9.36022e-08
4.94536e-06
-1.19343e-07
4.87289e-06
-1.4221e-07
4.79535e-06
-1.585e-07
4.71586e-06
-1.6544e-07
4.63878e-06
-1.61153e-07
4.569e-06
-1.44916e-07
4.51135e-06
-1.16715e-07
4.47032e-06
-7.69719e-08
4.44921e-06
-2.67508e-08
4.44966e-06
3.07744e-08
4.47237e-06
9.15368e-08
4.51685e-06
1.50904e-07
4.58166e-06
2.0465e-07
4.66471e-06
2.49083e-07
4.76342e-06
2.81225e-07
4.87483e-06
2.98974e-07
4.99546e-06
3.01242e-07
5.12076e-06
2.884e-07
5.24441e-06
2.6244e-07
5.35891e-06
2.26483e-07
5.45702e-06
1.84134e-07
5.53307e-06
1.38961e-07
5.58376e-06
9.37505e-08
5.608e-06
5.07302e-08
5.6064e-06
1.15655e-08
5.58095e-06
-2.19667e-08
5.5359e-06
-4.90606e-08
5.47728e-06
-7.06262e-08
5.41107e-06
-8.79584e-08
5.34176e-06
-1.02377e-07
5.27197e-06
-1.14948e-07
5.20273e-06
-1.26373e-07
5.13409e-06
-1.36928e-07
5.0658e-06
-1.46417e-07
4.99766e-06
-1.54209e-07
4.92985e-06
-1.59332e-07
4.86303e-06
-1.60631e-07
4.7984e-06
-1.57036e-07
4.73763e-06
-1.47744e-07
4.6827e-06
-1.32199e-07
4.63579e-06
-1.10126e-07
4.599e-06
-8.15631e-08
4.57443e-06
-4.71686e-08
4.56346e-06
-7.82943e-09
4.56679e-06
3.43794e-08
4.58446e-06
7.67437e-08
4.61579e-06
1.16676e-07
4.65953e-06
1.51856e-07
4.71408e-06
1.80345e-07
4.77755e-06
2.00681e-07
4.84785e-06
2.1193e-07
4.92268e-06
2.13712e-07
4.99938e-06
2.0631e-07
5.07468e-06
1.90785e-07
5.14503e-06
1.68682e-07
5.20711e-06
1.41741e-07
5.25829e-06
1.11795e-07
5.29668e-06
8.04781e-08
5.32138e-06
4.90369e-08
5.33221e-06
1.85021e-08
5.3295e-06
-1.01873e-08
5.31392e-06
-3.58994e-08
5.28694e-06
-5.79852e-08
5.25071e-06
-7.6591e-08
5.20737e-06
-9.20448e-08
5.15886e-06
-1.04678e-07
5.10679e-06
-1.14738e-07
5.05253e-06
-1.22314e-07
4.99731e-06
-1.27286e-07
4.94232e-06
-1.29299e-07
4.88868e-06
-1.27913e-07
4.83754e-06
-1.22746e-07
4.79014e-06
-1.13492e-07
4.7477e-06
-9.9964e-08
4.71149e-06
-8.21478e-08
4.68278e-06
-6.02658e-08
4.66276e-06
-3.47461e-08
4.65231e-06
-6.34148e-09
4.65183e-06
2.37006e-08
4.6614e-06
5.35885e-08
4.6806e-06
8.15982e-08
4.70864e-06
1.06285e-07
4.74441e-06
1.26407e-07
4.78653e-06
1.41012e-07
4.83349e-06
1.49489e-07
4.88368e-06
1.51586e-07
4.9354e-06
1.47437e-07
4.98661e-06
1.37646e-07
5.03512e-06
1.23128e-07
5.07885e-06
1.04908e-07
5.11609e-06
8.4092e-08
5.14549e-06
6.17256e-08
5.16619e-06
3.86971e-08
5.17781e-06
1.57434e-08
5.18025e-06
-6.37735e-09
5.1736e-06
-2.67836e-08
5.15838e-06
-4.48143e-08
5.13562e-06
-6.01905e-08
5.10673e-06
-7.28832e-08
5.0732e-06
-8.29347e-08
5.03643e-06
-9.03897e-08
4.99775e-06
-9.52723e-08
4.95835e-06
-9.75814e-08
4.9193e-06
-9.72813e-08
4.88154e-06
-9.43047e-08
4.84592e-06
-8.85891e-08
4.81329e-06
-8.0126e-08
4.78445e-06
-6.89851e-08
4.76014e-06
-5.53212e-08
4.7411e-06
-3.93719e-08
4.72795e-06
-2.14843e-08
4.72119e-06
-2.18531e-09
4.72109e-06
1.77715e-08
4.72772e-06
3.73032e-08
4.7409e-06
5.53928e-08
4.76011e-06
7.11994e-08
4.78462e-06
8.39817e-08
9.31535e-08
4.80966e-06
-2.36587e-08
4.78846e-06
-3.12417e-08
4.76299e-06
-4.41751e-08
4.72806e-06
-5.86686e-08
4.68128e-06
-7.25687e-08
4.62311e-06
-8.40383e-08
4.55625e-06
-9.16349e-08
4.48499e-06
-9.41831e-08
4.41444e-06
-9.0606e-08
4.34961e-06
-8.00885e-08
4.29494e-06
-6.20409e-08
4.25476e-06
-3.6794e-08
4.23229e-06
-4.27474e-09
4.22987e-06
3.31892e-08
4.24869e-06
7.27148e-08
4.28848e-06
1.11119e-07
4.34764e-06
1.45486e-07
4.4235e-06
1.73229e-07
4.51233e-06
1.92395e-07
4.60939e-06
2.01915e-07
4.70877e-06
2.01859e-07
4.80395e-06
1.93217e-07
4.88904e-06
1.77351e-07
4.95956e-06
1.55967e-07
5.01279e-06
1.30896e-07
5.04791e-06
1.03844e-07
5.06537e-06
7.62878e-08
5.06672e-06
4.93871e-08
5.05413e-06
2.41523e-08
5.0304e-06
1.76403e-09
4.99894e-06
-1.75971e-08
4.96248e-06
-3.41659e-08
4.92279e-06
-4.82768e-08
4.88076e-06
-6.03417e-08
4.83658e-06
-7.07654e-08
4.79006e-06
-7.98558e-08
4.7409e-06
-8.77667e-08
4.68893e-06
-9.44468e-08
4.63433e-06
-9.96116e-08
4.57777e-06
-1.0277e-07
4.52044e-06
-1.03302e-07
4.46395e-06
-1.00551e-07
4.41013e-06
-9.39242e-08
4.36092e-06
-8.29843e-08
4.31834e-06
-6.7545e-08
4.28448e-06
-4.77084e-08
4.2612e-06
-2.38818e-08
4.25011e-06
3.25394e-09
4.25223e-06
3.2266e-08
4.26788e-06
6.10896e-08
4.29655e-06
8.80068e-08
4.337e-06
1.11404e-07
4.38744e-06
1.29905e-07
4.44561e-06
1.4251e-07
4.50887e-06
1.48678e-07
4.57413e-06
1.48451e-07
4.63803e-06
1.4241e-07
4.69744e-06
1.31376e-07
4.74979e-06
1.16329e-07
4.79315e-06
9.83783e-08
4.82633e-06
7.86175e-08
4.84881e-06
5.79968e-08
4.86058e-06
3.72658e-08
4.86198e-06
1.71027e-08
4.8535e-06
-1.70929e-09
4.83614e-06
-1.85333e-08
4.8114e-06
-3.32529e-08
4.78076e-06
-4.59474e-08
4.74547e-06
-5.67497e-08
4.70658e-06
-6.57896e-08
4.66498e-06
-7.3145e-08
4.62147e-06
-7.87995e-08
4.5768e-06
-8.26177e-08
4.53184e-06
-8.43369e-08
4.48754e-06
-8.36142e-08
4.44493e-06
-8.01401e-08
4.40513e-06
-7.36929e-08
4.36933e-06
-6.41565e-08
4.33873e-06
-5.15527e-08
4.31454e-06
-3.60733e-08
4.29788e-06
-1.80825e-08
4.28967e-06
1.86271e-09
4.29055e-06
2.28183e-08
4.30073e-06
4.34153e-08
4.31982e-06
6.25086e-08
4.347e-06
7.91047e-08
4.38107e-06
9.23352e-08
4.42053e-06
1.01556e-07
4.46361e-06
1.064e-07
4.50835e-06
1.06852e-07
4.55254e-06
1.03244e-07
4.59412e-06
9.60665e-08
4.63135e-06
8.58993e-08
4.66284e-06
7.34213e-08
4.68761e-06
5.93201e-08
4.70511e-06
4.42238e-08
4.71514e-06
2.86674e-08
4.71773e-06
1.31519e-08
4.71309e-06
-1.73499e-09
4.70174e-06
-1.54357e-08
4.68461e-06
-2.76881e-08
4.66279e-06
-3.83692e-08
4.63731e-06
-4.74032e-08
4.60912e-06
-5.47372e-08
4.57906e-06
-6.03297e-08
4.54792e-06
-6.41373e-08
4.51645e-06
-6.61068e-08
4.48532e-06
-6.6158e-08
4.45523e-06
-6.4213e-08
4.42687e-06
-6.02283e-08
4.40095e-06
-5.42089e-08
4.37819e-06
-4.62204e-08
4.35927e-06
-3.63983e-08
4.34484e-06
-2.49505e-08
4.33552e-06
-1.21646e-08
4.33179e-06
1.55289e-09
4.33397e-06
1.55924e-08
4.34214e-06
2.91289e-08
4.35601e-06
4.15239e-08
4.375e-06
5.22108e-08
4.39829e-06
6.06939e-08
6.66042e-08
4.34007e-06
-1.7994e-08
4.3374e-06
-2.0987e-08
4.33092e-06
-2.47562e-08
4.31596e-06
-2.92198e-08
4.2909e-06
-3.36036e-08
4.25582e-06
-3.74973e-08
4.21233e-06
-4.05445e-08
4.16304e-06
-4.23491e-08
4.11111e-06
-4.22527e-08
4.05999e-06
-3.94795e-08
4.01308e-06
-3.31818e-08
3.97321e-06
-2.21695e-08
3.94308e-06
-6.66638e-09
3.92561e-06
1.31951e-08
3.9227e-06
3.60991e-08
3.93515e-06
6.0268e-08
3.96231e-06
8.39628e-08
4.00232e-06
1.05471e-07
4.05235e-06
1.23199e-07
4.10877e-06
1.35973e-07
4.16753e-06
1.43157e-07
4.22478e-06
1.44614e-07
4.27737e-06
1.40625e-07
4.32297e-06
1.31745e-07
4.36015e-06
1.18792e-07
4.38825e-06
1.0279e-07
4.40724e-06
8.4853e-08
4.41746e-06
6.60722e-08
4.41943e-06
4.74182e-08
4.41389e-06
2.96957e-08
4.40201e-06
1.36359e-08
4.38493e-06
-5.17593e-10
4.36359e-06
-1.28254e-08
4.33877e-06
-2.34584e-08
4.31108e-06
-3.26457e-08
4.2809e-06
-4.05882e-08
4.24846e-06
-4.74133e-08
4.21388e-06
-5.31889e-08
4.17733e-06
-5.78974e-08
4.13912e-06
-6.13995e-08
4.09977e-06
-6.34224e-08
4.06007e-06
-6.36028e-08
4.02105e-06
-6.15258e-08
3.9839e-06
-5.67757e-08
3.94998e-06
-4.90659e-08
3.92075e-06
-3.83167e-08
3.89768e-06
-2.46367e-08
3.88221e-06
-8.41453e-09
3.87563e-06
9.83786e-09
3.87888e-06
2.90152e-08
3.89207e-06
4.79005e-08
3.91459e-06
6.54832e-08
3.94523e-06
8.0765e-08
3.98224e-06
9.28921e-08
4.02349e-06
1.01267e-07
4.06655e-06
1.05615e-07
4.10904e-06
1.05965e-07
4.14886e-06
1.02585e-07
4.18434e-06
9.59011e-08
4.21419e-06
8.64791e-08
4.2376e-06
7.49679e-08
4.25418e-06
6.20312e-08
4.26388e-06
4.82944e-08
4.26686e-06
3.42916e-08
4.26348e-06
2.04854e-08
4.25431e-06
7.45224e-09
4.24027e-06
-4.48538e-09
4.22224e-06
-1.52314e-08
4.20102e-06
-2.4722e-08
4.17722e-06
-3.29517e-08
4.15136e-06
-3.99258e-08
4.12385e-06
-4.56347e-08
4.09507e-06
-5.00238e-08
4.06544e-06
-5.29815e-08
4.03544e-06
-5.43437e-08
4.00572e-06
-5.38954e-08
3.97702e-06
-5.14323e-08
3.95015e-06
-4.68276e-08
3.92603e-06
-4.00383e-08
3.90559e-06
-3.11101e-08
3.88973e-06
-2.02143e-08
3.87934e-06
-7.69209e-09
3.87514e-06
6.06711e-09
3.87765e-06
2.03037e-08
3.88689e-06
3.41789e-08
3.90238e-06
4.70181e-08
3.92329e-06
5.81878e-08
3.94849e-06
6.71363e-08
3.97658e-06
7.34675e-08
4.006e-06
7.69783e-08
4.03521e-06
7.7649e-08
4.06283e-06
7.56223e-08
4.08774e-06
7.11509e-08
4.10907e-06
6.45726e-08
4.1262e-06
5.62901e-08
4.13879e-06
4.67361e-08
4.14668e-06
3.63311e-08
4.14989e-06
2.54589e-08
4.14856e-06
1.44821e-08
4.14298e-06
3.83945e-09
4.13366e-06
-6.11685e-09
4.12117e-06
-1.51976e-08
4.10605e-06
-2.32463e-08
4.08879e-06
-3.01455e-08
4.06987e-06
-3.58136e-08
4.04973e-06
-4.01896e-08
4.02882e-06
-4.32242e-08
4.00758e-06
-4.48707e-08
3.98649e-06
-4.50679e-08
3.96604e-06
-4.37641e-08
3.94676e-06
-4.0946e-08
3.92918e-06
-3.66348e-08
3.91386e-06
-3.08919e-08
3.9013e-06
-2.38383e-08
3.89198e-06
-1.56389e-08
3.88636e-06
-6.54019e-09
3.88477e-06
3.13845e-09
3.88742e-06
1.29511e-08
3.89418e-06
2.23647e-08
3.90471e-06
3.09926e-08
3.91846e-06
3.84632e-08
3.9347e-06
4.44531e-08
4.87232e-08
3.46125e-06
-1.413e-08
3.45653e-06
-1.62703e-08
3.44944e-06
-1.76618e-08
3.43868e-06
-1.84591e-08
3.42395e-06
-1.88688e-08
3.40558e-06
-1.91293e-08
3.38435e-06
-1.93159e-08
3.36123e-06
-1.92258e-08
3.33747e-06
-1.84945e-08
3.31429e-06
-1.62983e-08
3.29308e-06
-1.19755e-08
3.27559e-06
-4.68106e-09
3.26339e-06
5.53308e-09
3.25796e-06
1.8624e-08
3.26026e-06
3.3804e-08
3.27047e-06
5.00521e-08
3.28815e-06
6.62831e-08
3.31227e-06
8.13537e-08
3.34128e-06
9.41925e-08
3.37328e-06
1.03974e-07
3.40628e-06
1.10158e-07
3.43845e-06
1.12443e-07
3.46826e-06
1.10814e-07
3.49448e-06
1.05519e-07
3.51625e-06
9.70264e-08
3.53304e-06
8.59974e-08
3.54468e-06
7.32091e-08
3.5513e-06
5.94613e-08
3.55322e-06
4.54962e-08
3.55096e-06
3.19518e-08
3.54526e-06
1.93358e-08
3.53679e-06
7.95567e-09
3.52604e-06
-2.07295e-09
3.51338e-06
-1.07996e-08
3.49905e-06
-1.8317e-08
3.4832e-06
-2.47383e-08
3.46593e-06
-3.0149e-08
3.44735e-06
-3.46029e-08
3.42756e-06
-3.81072e-08
3.40675e-06
-4.05928e-08
3.38523e-06
-4.19027e-08
3.36343e-06
-4.18042e-08
3.34193e-06
-4.00233e-08
3.32146e-06
-3.63067e-08
3.3029e-06
-3.04999e-08
3.28715e-06
-2.25726e-08
3.27512e-06
-1.26099e-08
3.26769e-06
-9.79472e-10
3.26561e-06
1.19128e-08
3.26924e-06
2.53916e-08
3.27842e-06
3.87199e-08
3.2927e-06
5.12067e-08
3.31128e-06
6.2182e-08
3.3331e-06
7.10706e-08
3.35691e-06
7.74553e-08
3.38142e-06
8.11033e-08
3.40545e-06
8.19379e-08
3.42798e-06
8.00549e-08
3.44818e-06
7.57058e-08
3.46541e-06
6.92483e-08
3.47926e-06
6.11166e-08
3.48951e-06
5.17832e-08
3.49609e-06
4.17095e-08
3.49906e-06
3.13205e-08
3.49856e-06
2.09922e-08
3.49492e-06
1.10909e-08
3.48856e-06
1.87337e-09
3.47976e-06
-6.4327e-09
3.46886e-06
-1.38247e-08
3.45615e-06
-2.02405e-08
3.44189e-06
-2.56613e-08
3.42631e-06
-3.00635e-08
3.40969e-06
-3.33981e-08
3.39229e-06
-3.55872e-08
3.37447e-06
-3.65226e-08
3.35666e-06
-3.60805e-08
3.33938e-06
-3.41518e-08
3.32321e-06
-3.06621e-08
3.30877e-06
-2.55931e-08
3.29665e-06
-1.89948e-08
3.28746e-06
-1.10196e-08
3.28173e-06
-1.96297e-09
3.27992e-06
7.87162e-09
3.28223e-06
1.79956e-08
3.28852e-06
2.78876e-08
3.29845e-06
3.7088e-08
3.31149e-06
4.51549e-08
3.32692e-06
5.17053e-08
3.34393e-06
5.64548e-08
3.36167e-06
5.92377e-08
3.37933e-06
5.99917e-08
3.39618e-06
5.8767e-08
3.41161e-06
5.57193e-08
3.42512e-06
5.10716e-08
3.4363e-06
4.51038e-08
3.44491e-06
3.81303e-08
3.45078e-06
3.04627e-08
3.45383e-06
2.24014e-08
3.45409e-06
1.423e-08
3.45168e-06
6.24151e-09
3.44685e-06
-1.2796e-09
3.43983e-06
-8.1848e-09
3.43092e-06
-1.43285e-08
3.42039e-06
-1.9616e-08
3.40855e-06
-2.39762e-08
3.39571e-06
-2.73524e-08
3.38219e-06
-2.97016e-08
3.36831e-06
-3.09874e-08
3.35441e-06
-3.11713e-08
3.34087e-06
-3.02237e-08
3.32806e-06
-2.81412e-08
3.31638e-06
-2.49506e-08
3.3062e-06
-2.07101e-08
3.29788e-06
-1.55211e-08
3.29176e-06
-9.51374e-09
3.28809e-06
-2.87472e-09
3.28709e-06
4.13932e-09
3.28882e-06
1.12218e-08
3.29315e-06
1.80348e-08
3.29984e-06
2.43036e-08
3.30854e-06
2.9761e-08
3.31882e-06
3.41744e-08
3.73696e-08
2.3186e-06
-1.29381e-08
2.31668e-06
-1.43577e-08
2.3138e-06
-1.47812e-08
2.3099e-06
-1.45515e-08
2.30504e-06
-1.40173e-08
2.29935e-06
-1.34385e-08
2.29294e-06
-1.29045e-08
2.2861e-06
-1.23822e-08
2.27909e-06
-1.14857e-08
2.27235e-06
-9.55404e-09
2.26654e-06
-6.17086e-09
2.26283e-06
-9.68576e-10
2.26195e-06
6.41341e-09
2.26468e-06
1.58876e-08
2.27153e-06
2.69536e-08
2.28267e-06
3.8915e-08
2.29799e-06
5.09669e-08
2.31707e-06
6.22705e-08
2.33922e-06
7.20418e-08
2.36353e-06
7.96707e-08
2.38898e-06
8.47033e-08
2.41458e-06
8.68415e-08
2.43939e-06
8.60029e-08
2.46257e-06
8.23396e-08
2.4834e-06
7.61969e-08
2.50133e-06
6.80682e-08
2.51601e-06
5.85357e-08
2.52726e-06
4.82036e-08
2.53512e-06
3.76419e-08
2.53973e-06
2.73405e-08
2.5414e-06
1.76615e-08
2.54047e-06
8.88856e-09
2.53719e-06
1.21057e-09
2.53195e-06
-5.56816e-09
2.52511e-06
-1.14686e-08
2.51687e-06
-1.65033e-08
2.50747e-06
-2.07468e-08
2.49709e-06
-2.42252e-08
2.48591e-06
-2.69299e-08
2.47412e-06
-2.87993e-08
2.46194e-06
-2.97213e-08
2.44966e-06
-2.95252e-08
2.43768e-06
-2.80405e-08
2.42645e-06
-2.50781e-08
2.41652e-06
-2.05731e-08
2.40854e-06
-1.45921e-08
2.40304e-06
-7.11062e-09
2.40069e-06
1.37564e-09
2.40181e-06
1.07888e-08
2.40657e-06
2.06371e-08
2.4149e-06
3.03852e-08
2.42659e-06
3.95157e-08
2.44122e-06
4.75515e-08
2.45821e-06
5.40853e-08
2.47685e-06
5.88112e-08
2.49641e-06
6.15474e-08
2.51611e-06
6.22338e-08
2.53524e-06
6.09263e-08
2.55315e-06
5.77991e-08
2.56929e-06
5.31054e-08
2.58326e-06
4.71506e-08
2.59476e-06
4.02813e-08
2.60362e-06
3.28467e-08
2.60978e-06
2.51573e-08
2.61327e-06
1.75064e-08
2.61422e-06
1.01369e-08
2.61298e-06
3.11494e-09
2.60954e-06
-2.9902e-09
2.60433e-06
-8.61431e-09
2.59756e-06
-1.34735e-08
2.58947e-06
-1.75682e-08
2.58028e-06
-2.08701e-08
2.57021e-06
-2.33327e-08
2.55952e-06
-2.49019e-08
2.54851e-06
-2.5509e-08
2.5375e-06
-2.50729e-08
2.52688e-06
-2.3533e-08
2.51709e-06
-2.08661e-08
2.50855e-06
-1.70568e-08
2.50172e-06
-1.21581e-08
2.49694e-06
-6.23973e-09
2.49468e-06
2.8862e-10
2.49517e-06
7.38259e-09
2.49849e-06
1.46752e-08
2.50457e-06
2.18116e-08
2.51321e-06
2.84484e-08
2.52409e-06
3.42695e-08
2.53679e-06
3.90052e-08
2.5508e-06
4.24525e-08
2.56555e-06
4.44876e-08
2.58047e-06
4.50668e-08
2.59502e-06
4.422e-08
2.60869e-06
4.20461e-08
2.62106e-06
3.87031e-08
2.63177e-06
3.43933e-08
2.64056e-06
2.93368e-08
2.64727e-06
2.37605e-08
2.65179e-06
1.78827e-08
2.65412e-06
1.18983e-08
2.65434e-06
6.02261e-09
2.6525e-06
5.53976e-10
2.64888e-06
-4.55823e-09
2.64366e-06
-9.11141e-09
2.63708e-06
-1.30374e-08
2.62938e-06
-1.62796e-08
2.62082e-06
-1.87911e-08
2.61166e-06
-2.05387e-08
2.60216e-06
-2.14928e-08
2.59262e-06
-2.16267e-08
2.58333e-06
-2.093e-08
2.57459e-06
-1.94061e-08
2.56672e-06
-1.70756e-08
2.55998e-06
-1.39766e-08
2.55467e-06
-1.02103e-08
2.55103e-06
-5.86941e-09
2.54926e-06
-1.10398e-09
2.5495e-06
3.8989e-09
2.55177e-06
8.9525e-09
2.55598e-06
1.38257e-08
2.56197e-06
1.83102e-08
2.56952e-06
2.2214e-08
2.57832e-06
2.53736e-08
2.76663e-08
1.21609e-06
-1.15136e-08
1.2144e-06
-1.26683e-08
1.21263e-06
-1.30053e-08
1.2109e-06
-1.2823e-08
1.20927e-06
-1.23834e-08
1.20769e-06
-1.18586e-08
1.20617e-06
-1.13933e-08
1.20459e-06
-1.07998e-08
1.20302e-06
-9.91312e-09
1.20186e-06
-8.39138e-09
1.20139e-06
-5.70804e-09
1.20239e-06
-1.96113e-09
1.20569e-06
3.11038e-09
1.2121e-06
9.48227e-09
1.2221e-06
1.69537e-08
1.23599e-06
2.50246e-08
1.2538e-06
3.31485e-08
1.27531e-06
4.07625e-08
1.30004e-06
4.7315e-08
1.32722e-06
5.24907e-08
1.35598e-06
5.59458e-08
1.38534e-06
5.74784e-08
1.4143e-06
5.70436e-08
1.4419e-06
5.4733e-08
1.46733e-06
5.07677e-08
1.48993e-06
4.5471e-08
1.50925e-06
3.92188e-08
1.52506e-06
3.23917e-08
1.53735e-06
2.53537e-08
1.54625e-06
1.84366e-08
1.55203e-06
1.18796e-08
1.55506e-06
5.86389e-09
1.55559e-06
6.81852e-10
1.55406e-06
-4.04462e-09
1.55079e-06
-8.19336e-09
1.54603e-06
-1.17492e-08
1.54003e-06
-1.47454e-08
1.533e-06
-1.71914e-08
1.52514e-06
-1.90661e-08
1.51668e-06
-2.03399e-08
1.5079e-06
-2.09427e-08
1.49912e-06
-2.07512e-08
1.49073e-06
-1.96459e-08
1.48319e-06
-1.7543e-08
1.47709e-06
-1.44713e-08
1.47287e-06
-1.0374e-08
1.47104e-06
-5.28091e-09
1.47201e-06
4.10277e-10
1.4762e-06
6.59634e-09
1.48372e-06
1.31198e-08
1.49452e-06
1.9585e-08
1.5084e-06
2.56319e-08
1.52501e-06
3.09431e-08
1.54384e-06
3.52593e-08
1.56426e-06
3.83924e-08
1.58558e-06
4.02245e-08
1.6071e-06
4.07107e-08
1.62814e-06
3.98886e-08
1.64807e-06
3.78694e-08
1.66635e-06
3.48223e-08
1.68256e-06
3.09451e-08
1.6964e-06
2.64403e-08
1.70771e-06
2.15325e-08
1.71641e-06
1.64625e-08
1.72252e-06
1.13937e-08
1.72617e-06
6.4844e-09
1.72748e-06
1.81029e-09
1.72676e-06
-2.26782e-09
1.72421e-06
-6.0673e-09
1.72009e-06
-9.35637e-09
1.71465e-06
-1.21297e-08
1.70814e-06
-1.43601e-08
1.70083e-06
-1.60177e-08
1.69299e-06
-1.70599e-08
1.68491e-06
-1.7429e-08
1.67693e-06
-1.70954e-08
1.66944e-06
-1.60395e-08
1.66279e-06
-1.42233e-08
1.65739e-06
-1.16571e-08
1.65361e-06
-8.37578e-09
1.65176e-06
-4.3928e-09
1.65214e-06
-9.04268e-11
1.655e-06
4.52922e-09
1.66036e-06
9.31177e-09
1.66817e-06
1.3998e-08
1.67827e-06
1.83557e-08
1.69035e-06
2.21807e-08
1.70406e-06
2.52998e-08
1.71893e-06
2.75809e-08
1.73447e-06
2.89448e-08
1.75018e-06
2.93641e-08
1.76554e-06
2.88565e-08
1.78011e-06
2.7481e-08
1.79347e-06
2.5339e-08
1.8053e-06
2.25598e-08
1.81535e-06
1.92854e-08
1.82346e-06
1.56578e-08
1.82953e-06
1.18055e-08
1.83355e-06
7.88384e-09
1.83556e-06
4.01407e-09
1.83565e-06
4.58024e-10
1.83402e-06
-2.92042e-09
1.83085e-06
-5.94639e-09
1.82638e-06
-8.56669e-09
1.82084e-06
-1.07379e-08
1.81447e-06
-1.24257e-08
1.80754e-06
-1.36089e-08
1.80031e-06
-1.42631e-08
1.79306e-06
-1.4372e-08
1.78606e-06
-1.39284e-08
1.77958e-06
-1.29328e-08
1.7739e-06
-1.13934e-08
1.76929e-06
-9.36417e-09
1.76599e-06
-6.91131e-09
1.76419e-06
-4.069e-09
1.76403e-06
-9.47221e-10
1.76566e-06
2.27615e-09
1.76906e-06
5.55314e-09
1.77416e-06
8.72495e-09
1.78082e-06
1.16468e-08
1.78884e-06
1.41929e-08
1.79795e-06
1.62597e-08
1.77681e-08
4.07639e-07
-8.12554e-09
4.03922e-07
-8.95141e-09
4.00242e-07
-9.32521e-09
3.96801e-07
-9.38287e-09
3.93674e-07
-9.25572e-09
3.90858e-07
-9.04248e-09
3.8825e-07
-8.78536e-09
3.85926e-07
-8.47575e-09
3.84005e-07
-7.99294e-09
3.82726e-07
-7.11226e-09
3.8276e-07
-5.74208e-09
3.84456e-07
-3.65664e-09
3.88506e-07
-9.39367e-10
3.96063e-07
1.92464e-09
4.07281e-07
5.73565e-09
4.22455e-07
9.85042e-09
4.41602e-07
1.40024e-08
4.64439e-07
1.79253e-08
4.90637e-07
2.1117e-08
5.19244e-07
2.38836e-08
5.49417e-07
2.57722e-08
5.80198e-07
2.66976e-08
6.10582e-07
2.66593e-08
6.39631e-07
2.56846e-08
6.6652e-07
2.38784e-08
6.90615e-07
2.13767e-08
7.11452e-07
1.83818e-08
7.2877e-07
1.5073e-08
7.42494e-07
1.163e-08
7.5272e-07
8.21041e-09
7.59677e-07
4.92267e-09
7.6368e-07
1.86123e-09
7.64994e-07
-6.31962e-10
7.63993e-07
-3.04434e-09
7.60998e-07
-5.19764e-09
7.56315e-07
-7.06646e-09
7.50229e-07
-8.65928e-09
7.43024e-07
-9.98658e-09
7.34997e-07
-1.10394e-08
7.26437e-07
-1.17801e-08
7.17672e-07
-1.2177e-08
7.09091e-07
-1.21709e-08
7.01148e-07
-1.1703e-08
6.94315e-07
-1.07092e-08
6.89039e-07
-9.19547e-09
6.85807e-07
-7.14205e-09
6.85094e-07
-4.56811e-09
6.87033e-07
-1.52858e-09
6.92361e-07
1.26799e-09
7.00933e-07
4.54845e-09
7.12698e-07
7.81925e-09
7.27447e-07
1.08834e-08
7.44803e-07
1.35873e-08
7.64253e-07
1.58085e-08
7.8519e-07
1.74554e-08
8.06942e-07
1.84733e-08
8.28816e-07
1.88367e-08
8.50157e-07
1.85474e-08
8.70364e-07
1.76622e-08
8.88926e-07
1.626e-08
9.05438e-07
1.44333e-08
9.19583e-07
1.22954e-08
9.31175e-07
9.94039e-09
9.40177e-07
7.46013e-09
9.46607e-07
4.96371e-09
9.50601e-07
2.49114e-09
9.52146e-07
2.64745e-10
9.51648e-07
-1.76941e-09
9.49274e-07
-3.6938e-09
9.45302e-07
-5.38376e-09
9.39998e-07
-6.82572e-09
9.33642e-07
-8.00447e-09
9.26531e-07
-8.90672e-09
9.18981e-07
-9.50953e-09
9.11335e-07
-9.78318e-09
9.03935e-07
-9.69531e-09
8.97122e-07
-9.22647e-09
8.91276e-07
-8.37723e-09
8.86755e-07
-7.13684e-09
8.83898e-07
-5.51863e-09
8.83047e-07
-3.54163e-09
8.84226e-07
-1.26919e-09
8.87944e-07
8.10842e-10
8.94055e-07
3.20106e-09
9.02491e-07
5.56199e-09
9.13082e-07
7.76489e-09
9.2555e-07
9.71191e-09
9.39528e-07
1.13226e-08
9.54577e-07
1.25318e-08
9.70223e-07
1.32988e-08
9.85981e-07
1.36061e-08
1.00138e-06
1.34566e-08
1.01599e-06
1.28746e-08
1.02942e-06
1.19091e-08
1.04136e-06
1.06214e-08
1.05155e-06
9.08821e-09
1.05984e-06
7.36793e-09
1.06613e-06
5.52208e-09
1.0704e-06
3.61106e-09
1.07272e-06
1.6912e-09
1.07318e-06
-4.2119e-12
1.07192e-06
-1.65512e-09
1.06914e-06
-3.17114e-09
1.06508e-06
-4.49872e-09
1.05995e-06
-5.61548e-09
1.05403e-06
-6.5019e-09
1.04756e-06
-7.14119e-09
1.04082e-06
-7.52263e-09
1.03409e-06
-7.64419e-09
1.02765e-06
-7.48891e-09
1.02178e-06
-7.05637e-09
1.01673e-06
-6.35063e-09
1.01276e-06
-5.38677e-09
1.01003e-06
-4.18836e-09
1.00876e-06
-2.79223e-09
1.00903e-06
-1.22054e-09
1.01104e-06
2.71045e-10
1.01471e-06
1.87645e-09
1.01997e-06
3.46503e-09
1.02668e-06
4.93578e-09
1.03465e-06
6.22562e-09
1.04362e-06
7.28675e-09
8.08073e-09
1.98623e-08
1.09109e-08
1.58566e-09
-7.79722e-09
-1.70529e-08
-2.60954e-08
-3.48808e-08
-4.33565e-08
-5.13495e-08
-5.84617e-08
-6.42038e-08
-6.78605e-08
-6.87998e-08
-6.68752e-08
-6.11395e-08
-5.12891e-08
-3.72867e-08
-1.93614e-08
1.75552e-09
2.56391e-08
5.14113e-08
7.81089e-08
1.04768e-07
1.30453e-07
1.54331e-07
1.75708e-07
1.9409e-07
2.09163e-07
2.20793e-07
2.29003e-07
2.33926e-07
2.35787e-07
2.35155e-07
2.32111e-07
2.26913e-07
2.19847e-07
2.11187e-07
2.01201e-07
1.90161e-07
1.78381e-07
1.66204e-07
1.54033e-07
1.42331e-07
1.31621e-07
1.22426e-07
1.15284e-07
1.10716e-07
1.09187e-07
1.10455e-07
1.15004e-07
1.22823e-07
1.33706e-07
1.47294e-07
1.63102e-07
1.80557e-07
1.99031e-07
2.17867e-07
2.36415e-07
2.54077e-07
2.70337e-07
2.8477e-07
2.97066e-07
3.07006e-07
3.14466e-07
3.1943e-07
3.21921e-07
3.22186e-07
3.20416e-07
3.16723e-07
3.11339e-07
3.04513e-07