/*--------------------------------*- C++ -*----------------------------------*\
| =========                 |                                                 |
| \\      /  F ield         | OpenFOAM: The Open Source CFD Toolbox           |
|  \\    /   O peration     | Version:  2206                                  |
|   \\  /    A nd           | Website:  www.openfoam.com                      |
|    \\/     M anipulation  |                                                 |
\*---------------------------------------------------------------------------*/
FoamFile
{
    version     2.0;
    format      ascii;
    arch        "LSB;label=32;scalar=64";
    class       volVectorField;
    location    "18.5001";
    object      U_0;
}
// * * * * * * * * * * * * * * * * * * * * * * * * * * * * * * * * * * * * * //

dimensions      [0 1 -1 0 0 0 0];

internalField   nonuniform List<vector> 
4796
(
(-0.295046 0.00392371 0)
(-0.293938 -0.00132465 0)
(-0.28314 -0.00687094 0)
(-0.262694 -0.0118046 0)
(-0.234352 -0.0148402 0)
(-0.201592 -0.0149317 0)
(-0.169429 -0.0113806 0)
(-0.14389 -0.00371763 0)
(-0.131038 0.00704663 0)
(-0.135116 0.0196476 0)
(-0.157836 0.0327483 0)
(-0.200232 0.0449155 0)
(-0.261314 0.0542587 0)
(-0.337397 0.0596789 0)
(-0.422039 0.0603739 0)
(-0.507158 0.0562502 0)
(-0.584068 0.0474964 0)
(-0.644568 0.0349466 0)
(-0.682495 0.0198843 0)
(-0.694238 0.00374969 0)
(-0.680156 -0.0124415 0)
(-0.643286 -0.0272184 0)
(-0.586143 -0.0377035 0)
(-0.513973 -0.0436451 0)
(-0.432864 -0.0452787 0)
(-0.348148 -0.043159 0)
(-0.268716 -0.0383581 0)
(-0.197293 -0.0319258 0)
(-0.136717 -0.0243065 0)
(-0.0894979 -0.0161019 0)
(-0.0571575 -0.00795591 0)
(-0.0384134 -0.000612367 0)
(-0.0321424 0.00560381 0)
(-0.0356665 0.010075 0)
(-0.0443042 0.0118697 0)
(-0.0547827 0.0114111 0)
(-0.0632725 0.00814268 0)
(-0.0641923 0.00319355 0)
(-0.0580954 -0.00238949 0)
(-0.0456681 -0.00831877 0)
(-0.0247657 -0.014053 0)
(0.00572778 -0.0181524 0)
(0.0431806 -0.0205766 0)
(0.0839827 -0.0222345 0)
(0.130011 -0.0236551 0)
(0.179309 -0.0248036 0)
(0.231053 -0.0254127 0)
(0.28418 -0.0252375 0)
(0.336908 -0.0244448 0)
(0.389091 -0.0233276 0)
(0.439703 -0.0219807 0)
(0.488323 -0.0205501 0)
(0.53473 -0.0192168 0)
(0.579004 -0.0181227 0)
(0.621333 -0.0174278 0)
(0.662173 -0.017286 0)
(0.702299 -0.0178064 0)
(0.742682 -0.0191475 0)
(0.783994 -0.02121 0)
(0.828978 -0.0256502 0)
(0.876556 -0.0253912 0)
(-0.368724 0.004859 0)
(-0.360857 -0.011325 0)
(-0.343217 -0.0281041 0)
(-0.316512 -0.0429013 0)
(-0.281977 -0.0530396 0)
(-0.242624 -0.0562709 0)
(-0.202662 -0.0513079 0)
(-0.167373 -0.0378634 0)
(-0.142626 -0.0156892 0)
(-0.131097 0.0137716 0)
(-0.138365 0.0458128 0)
(-0.165965 0.0768808 0)
(-0.21254 0.103871 0)
(-0.274048 0.12341 0)
(-0.344667 0.132209 0)
(-0.415571 0.126606 0)
(-0.474474 0.105429 0)
(-0.512009 0.0720169 0)
(-0.522333 0.0314487 0)
(-0.508239 -0.0138497 0)
(-0.473432 -0.0556769 0)
(-0.41828 -0.091126 0)
(-0.348174 -0.117196 0)
(-0.268473 -0.132724 0)
(-0.184551 -0.138098 0)
(-0.100424 -0.13441 0)
(-0.0186571 -0.123194 0)
(0.0574394 -0.106284 0)
(0.125186 -0.0855729 0)
(0.181986 -0.0630657 0)
(0.226594 -0.0410751 0)
(0.259471 -0.0216431 0)
(0.282162 -0.00580169 0)
(0.297834 0.00482599 0)
(0.310413 0.00904426 0)
(0.321934 0.00786568 0)
(0.334628 0.000536788 0)
(0.348273 -0.011014 0)
(0.366702 -0.0247183 0)
(0.39167 -0.0389872 0)
(0.422657 -0.0530245 0)
(0.458986 -0.0657122 0)
(0.500119 -0.0758615 0)
(0.545686 -0.0833782 0)
(0.594888 -0.088763 0)
(0.646541 -0.0924695 0)
(0.699347 -0.0946255 0)
(0.75245 -0.0951544 0)
(0.805286 -0.0941932 0)
(0.857418 -0.0920691 0)
(0.908628 -0.0891283 0)
(0.958849 -0.0857141 0)
(1.008 -0.0821705 0)
(1.05612 -0.078814 0)
(1.10352 -0.0759414 0)
(1.15019 -0.0739037 0)
(1.19675 -0.0730683 0)
(1.24363 -0.0738119 0)
(1.29147 -0.0765998 0)
(1.34123 -0.0819133 0)
(1.3945 -0.0906501 0)
(-0.221041 -0.00502414 0)
(-0.208605 -0.0341248 0)
(-0.188826 -0.0619755 0)
(-0.162228 -0.0850501 0)
(-0.129838 -0.100071 0)
(-0.0932146 -0.104305 0)
(-0.0537927 -0.0945046 0)
(-0.0129876 -0.0684966 0)
(0.0259803 -0.0284599 0)
(0.0538254 0.0193366 0)
(0.0673863 0.0687196 0)
(0.0661275 0.116731 0)
(0.0512049 0.159378 0)
(0.0286512 0.189275 0)
(0.00496972 0.193726 0)
(-0.014448 0.17439 0)
(-0.0219709 0.133894 0)
(-0.0155314 0.0767555 0)
(-0.000860759 0.0110925 0)
(0.0264456 -0.056605 0)
(0.0723077 -0.118338 0)
(0.128184 -0.170517 0)
(0.192955 -0.209175 0)
(0.263413 -0.232014 0)
(0.336183 -0.240056 0)
(0.408792 -0.236391 0)
(0.479658 -0.222775 0)
(0.547826 -0.19982 0)
(0.611911 -0.169369 0)
(0.670782 -0.134238 0)
(0.724028 -0.0978016 0)
(0.771012 -0.0644387 0)
(0.81183 -0.0377245 0)
(0.847282 -0.0194992 0)
(0.878263 -0.00966743 0)
(0.906183 -0.00823617 0)
(0.931709 -0.0150107 0)
(0.955077 -0.0282023 0)
(0.977889 -0.0451476 0)
(1.00149 -0.0638861 0)
(1.02654 -0.0826552 0)
(1.05334 -0.0998533 0)
(1.08193 -0.114385 0)
(1.11218 -0.125905 0)
(1.14392 -0.134605 0)
(1.17689 -0.140691 0)
(1.21065 -0.144084 0)
(1.24478 -0.144896 0)
(1.27903 -0.143733 0)
(1.31337 -0.141226 0)
(1.34777 -0.13785 0)
(1.38218 -0.134032 0)
(1.41664 -0.130182 0)
(1.45116 -0.126695 0)
(1.48588 -0.123956 0)
(1.52094 -0.122377 0)
(1.55655 -0.1224 0)
(1.59295 -0.124481 0)
(1.63042 -0.129131 0)
(1.66927 -0.137087 0)
(1.70978 -0.149224 0)
(0.281863 -0.01897 0)
(0.305857 -0.0506868 0)
(0.32805 -0.0820271 0)
(0.344572 -0.109285 0)
(0.354746 -0.129709 0)
(0.359878 -0.141596 0)
(0.364383 -0.143618 0)
(0.370673 -0.13284 0)
(0.384183 -0.0988871 0)
(0.406732 -0.0443029 0)
(0.436836 0.0280973 0)
(0.469032 0.0999369 0)
(0.498731 0.155846 0)
(0.526594 0.186654 0)
(0.556054 0.192689 0)
(0.583031 0.183361 0)
(0.610625 0.141312 0)
(0.637351 0.0777057 0)
(0.662853 0.00216601 0)
(0.690354 -0.077421 0)
(0.72558 -0.154555 0)
(0.766938 -0.220515 0)
(0.812021 -0.269374 0)
(0.858973 -0.298996 0)
(0.906824 -0.310156 0)
(0.954526 -0.306595 0)
(1.00155 -0.291661 0)
(1.04824 -0.267325 0)
(1.09417 -0.23578 0)
(1.13931 -0.199769 0)
(1.18439 -0.161924 0)
(1.22921 -0.125769 0)
(1.27321 -0.094553 0)
(1.31534 -0.0708274 0)
(1.3547 -0.0559108 0)
(1.39102 -0.0497655 0)
(1.42401 -0.0515105 0)
(1.45331 -0.059635 0)
(1.47905 -0.0725815 0)
(1.5016 -0.0887607 0)
(1.52155 -0.106278 0)
(1.53958 -0.123161 0)
(1.55638 -0.137942 0)
(1.57257 -0.15 0)
(1.58874 -0.159415 0)
(1.60514 -0.16635 0)
(1.62175 -0.170531 0)
(1.63854 -0.17196 0)
(1.65549 -0.171288 0)
(1.67289 -0.169244 0)
(1.69102 -0.166363 0)
(1.70992 -0.163052 0)
(1.72959 -0.159711 0)
(1.75004 -0.156744 0)
(1.77124 -0.154575 0)
(1.79318 -0.153644 0)
(1.81589 -0.154405 0)
(1.83941 -0.15733 0)
(1.86366 -0.162961 0)
(1.88862 -0.171955 0)
(1.91403 -0.185099 0)
(1.12528 -0.0451026 0)
(1.14229 -0.0710609 0)
(1.15493 -0.0929687 0)
(1.16189 -0.107731 0)
(1.16272 -0.115799 0)
(1.15495 -0.117579 0)
(1.1374 -0.109102 0)
(1.10852 -0.0890164 0)
(1.07046 -0.0598547 0)
(1.03547 -0.0293867 0)
(1.01003 0.00352861 0)
(1.00052 0.0450886 0)
(1.01459 0.0896095 0)
(1.04839 0.124694 0)
(1.09 0.138241 0)
(1.13562 0.126054 0)
(1.18257 0.0887195 0)
(1.22664 0.0318081 0)
(1.26703 -0.0374896 0)
(1.30383 -0.114632 0)
(1.33629 -0.191771 0)
(1.36368 -0.258821 0)
(1.38647 -0.307634 0)
(1.4054 -0.334611 0)
(1.42417 -0.343301 0)
(1.44333 -0.340376 0)
(1.46245 -0.328917 0)
(1.48246 -0.305457 0)
(1.50405 -0.274177 0)
(1.52768 -0.238919 0)
(1.55386 -0.202548 0)
(1.58289 -0.167854 0)
(1.6142 -0.137732 0)
(1.64699 -0.113933 0)
(1.68002 -0.0974806 0)
(1.712 -0.0885958 0)
(1.74176 -0.0868237 0)
(1.76841 -0.0910878 0)
(1.79144 -0.0999417 0)
(1.81072 -0.111945 0)
(1.82636 -0.125597 0)
(1.83876 -0.139247 0)
(1.84856 -0.151655 0)
(1.85641 -0.162195 0)
(1.86291 -0.170715 0)
(1.86808 -0.177144 0)
(1.87284 -0.180666 0)
(1.87789 -0.181631 0)
(1.88318 -0.181449 0)
(1.88913 -0.180418 0)
(1.89602 -0.178734 0)
(1.90387 -0.176755 0)
(1.91267 -0.174715 0)
(1.92246 -0.172937 0)
(1.93327 -0.171877 0)
(1.94504 -0.172028 0)
(1.95772 -0.173829 0)
(1.97114 -0.177665 0)
(1.98502 -0.183987 0)
(1.99897 -0.19326 0)
(2.01233 -0.20592 0)
(1.75862 -0.0511601 0)
(1.7514 -0.0745977 0)
(1.73999 -0.0948708 0)
(1.72591 -0.111064 0)
(1.70845 -0.113764 0)
(1.68893 -0.110256 0)
(1.66845 -0.0972461 0)
(1.64944 -0.0734448 0)
(1.63568 -0.0412251 0)
(1.62654 -0.00188402 0)
(1.62042 0.0393785 0)
(1.62069 0.0712842 0)
(1.62706 0.0912596 0)
(1.64274 0.101105 0)
(1.66803 0.0963508 0)
(1.70047 0.0751239 0)
(1.73573 0.0367749 0)
(1.77028 -0.0163299 0)
(1.80008 -0.0799753 0)
(1.82342 -0.150787 0)
(1.83728 -0.217862 0)
(1.8411 -0.27417 0)
(1.83641 -0.316774 0)
(1.82854 -0.342964 0)
(1.81859 -0.349905 0)
(1.80982 -0.347448 0)
(1.80225 -0.335284 0)
(1.79662 -0.31321 0)
(1.79452 -0.285185 0)
(1.79698 -0.254105 0)
(1.80429 -0.222274 0)
(1.81636 -0.19204 0)
(1.8326 -0.165525 0)
(1.85196 -0.144106 0)
(1.87315 -0.128566 0)
(1.89487 -0.119093 0)
(1.9158 -0.115331 0)
(1.93487 -0.116481 0)
(1.95137 -0.121504 0)
(1.96493 -0.129404 0)
(1.97537 -0.139083 0)
(1.98278 -0.149171 0)
(1.98746 -0.158621 0)
(1.98979 -0.166589 0)
(1.99037 -0.172908 0)
(1.98971 -0.177993 0)
(1.98845 -0.181631 0)
(1.98735 -0.183378 0)
(1.98697 -0.183695 0)
(1.9872 -0.183584 0)
(1.98821 -0.182743 0)
(1.99011 -0.181563 0)
(1.99297 -0.180454 0)
(1.99681 -0.179765 0)
(2.00164 -0.179837 0)
(2.00736 -0.181041 0)
(2.01372 -0.183691 0)
(2.02044 -0.18804 0)
(2.02731 -0.194389 0)
(2.03352 -0.203041 0)
(2.03888 -0.214278 0)
(2.06836 -0.0380335 0)
(2.05416 -0.05783 0)
(2.03766 -0.0726086 0)
(2.01844 -0.08163 0)
(1.99765 -0.0839252 0)
(1.97735 -0.0790928 0)
(1.95878 -0.0670886 0)
(1.94346 -0.0485987 0)
(1.93333 -0.025467 0)
(1.92968 -0.000309069 0)
(1.93443 0.0256326 0)
(1.94919 0.0492203 0)
(1.97212 0.0666529 0)
(2.0005 0.0739606 0)
(2.03248 0.0676884 0)
(2.06557 0.0461623 0)
(2.09711 0.00967619 0)
(2.12322 -0.0389249 0)
(2.141 -0.0958125 0)
(2.14756 -0.156058 0)
(2.14156 -0.211549 0)
(2.12532 -0.257653 0)
(2.1011 -0.292435 0)
(2.07237 -0.314393 0)
(2.04386 -0.323864 0)
(2.01711 -0.32274 0)
(1.99248 -0.312753 0)
(1.97145 -0.295725 0)
(1.95541 -0.273566 0)
(1.9452 -0.248715 0)
(1.94075 -0.223284 0)
(1.94171 -0.198972 0)
(1.94744 -0.177215 0)
(1.95686 -0.159203 0)
(1.96867 -0.145644 0)
(1.98172 -0.136691 0)
(1.99488 -0.132101 0)
(2.00718 -0.13143 0)
(2.01791 -0.133953 0)
(2.02661 -0.139041 0)
(2.0326 -0.145914 0)
(2.03587 -0.153146 0)
(2.03687 -0.159839 0)
(2.03614 -0.165802 0)
(2.03423 -0.170928 0)
(2.03161 -0.175165 0)
(2.02863 -0.178367 0)
(2.02571 -0.180459 0)
(2.02325 -0.181588 0)
(2.02134 -0.182037 0)
(2.02002 -0.18207 0)
(2.01961 -0.182097 0)
(2.01986 -0.182197 0)
(2.02096 -0.182604 0)
(2.02278 -0.183626 0)
(2.02535 -0.185559 0)
(2.02797 -0.188665 0)
(2.03101 -0.193178 0)
(2.03429 -0.199346 0)
(2.03705 -0.207287 0)
(2.03979 -0.217214 0)
(2.18182 -0.0235964 0)
(2.16851 -0.0405491 0)
(2.15313 -0.0535944 0)
(2.13594 -0.0620888 0)
(2.1185 -0.0647973 0)
(2.10197 -0.0619216 0)
(2.08755 -0.053848 0)
(2.07689 -0.0411601 0)
(2.07169 -0.0249337 0)
(2.07303 -0.00656779 0)
(2.08165 0.0120077 0)
(2.09752 0.0274325 0)
(2.11965 0.0365057 0)
(2.14758 0.0371005 0)
(2.17774 0.0275355 0)
(2.20701 0.00683725 0)
(2.23073 -0.0241083 0)
(2.24689 -0.0635561 0)
(2.25386 -0.108761 0)
(2.25077 -0.154347 0)
(2.23789 -0.196686 0)
(2.21721 -0.233272 0)
(2.19187 -0.261698 0)
(2.16138 -0.280723 0)
(2.12994 -0.289528 0)
(2.09976 -0.289924 0)
(2.07201 -0.28345 0)
(2.0479 -0.271348 0)
(2.0285 -0.255198 0)
(2.01427 -0.236729 0)
(2.0052 -0.21746 0)
(2.00094 -0.198769 0)
(2.00092 -0.181729 0)
(2.00438 -0.167187 0)
(2.01025 -0.155874 0)
(2.01739 -0.148067 0)
(2.0252 -0.143569 0)
(2.03311 -0.142051 0)
(2.03972 -0.142928 0)
(2.04472 -0.145612 0)
(2.04771 -0.149595 0)
(2.04899 -0.154263 0)
(2.04884 -0.159057 0)
(2.04758 -0.163752 0)
(2.0457 -0.168098 0)
(2.04333 -0.171835 0)
(2.0405 -0.174888 0)
(2.0374 -0.177113 0)
(2.03448 -0.17862 0)
(2.03189 -0.179683 0)
(2.02972 -0.1805 0)
(2.02808 -0.181219 0)
(2.02705 -0.18201 0)
(2.02673 -0.183127 0)
(2.02691 -0.184805 0)
(2.02759 -0.187222 0)
(2.02863 -0.190568 0)
(2.03002 -0.195143 0)
(2.03088 -0.201073 0)
(2.03137 -0.20848 0)
(2.03098 -0.21733 0)
(2.21202 -0.0115029 0)
(2.20117 -0.0258478 0)
(2.1888 -0.036777 0)
(2.17538 -0.0439028 0)
(2.16161 -0.0468202 0)
(2.14931 -0.0456261 0)
(2.13924 -0.0405088 0)
(2.13216 -0.0321509 0)
(2.12937 -0.0215578 0)
(2.13164 -0.0102103 0)
(2.13939 0.000378025 0)
(2.15246 0.00825244 0)
(2.17009 0.011353 0)
(2.19086 0.00824905 0)
(2.21309 -0.0018388 0)
(2.23432 -0.0190105 0)
(2.25246 -0.0428838 0)
(2.26797 -0.0724973 0)
(2.27009 -0.105991 0)
(2.26769 -0.141022 0)
(2.25664 -0.17514 0)
(2.23737 -0.205489 0)
(2.21313 -0.229272 0)
(2.18581 -0.245615 0)
(2.15734 -0.254694 0)
(2.12961 -0.257263 0)
(2.10389 -0.254236 0)
(2.08118 -0.246612 0)
(2.06222 -0.235578 0)
(2.04741 -0.22238 0)
(2.0368 -0.208186 0)
(2.03016 -0.194111 0)
(2.02702 -0.181093 0)
(2.02684 -0.169676 0)
(2.02895 -0.160329 0)
(2.03244 -0.153563 0)
(2.03642 -0.149496 0)
(2.04044 -0.147669 0)
(2.04416 -0.147548 0)
(2.04735 -0.148765 0)
(2.04966 -0.151063 0)
(2.0502 -0.154309 0)
(2.05007 -0.158114 0)
(2.04913 -0.162082 0)
(2.04702 -0.165851 0)
(2.04441 -0.169097 0)
(2.04146 -0.171749 0)
(2.03839 -0.173853 0)
(2.03539 -0.175543 0)
(2.03267 -0.176918 0)
(2.0303 -0.178121 0)
(2.02834 -0.179338 0)
(2.02683 -0.180722 0)
(2.02571 -0.18246 0)
(2.02496 -0.184644 0)
(2.02453 -0.187433 0)
(2.02426 -0.191021 0)
(2.02395 -0.19553 0)
(2.0234 -0.201036 0)
(2.02235 -0.207606 0)
(2.0205 -0.215222 0)
(2.20976 -0.00202165 0)
(2.20154 -0.0143951 0)
(2.19217 -0.0241536 0)
(2.18213 -0.0310004 0)
(2.17229 -0.0347319 0)
(2.16352 -0.0353844 0)
(2.15633 -0.0331646 0)
(2.15162 -0.0290014 0)
(2.15084 -0.0232953 0)
(2.15301 -0.0171516 0)
(2.15953 -0.01174 0)
(2.16989 -0.0083292 0)
(2.18335 -0.00827299 0)
(2.19884 -0.0126911 0)
(2.21486 -0.0221645 0)
(2.22977 -0.0369523 0)
(2.24179 -0.0570924 0)
(2.24949 -0.0810808 0)
(2.25209 -0.107436 0)
(2.24864 -0.13518 0)
(2.23876 -0.161993 0)
(2.22338 -0.185378 0)
(2.20372 -0.204264 0)
(2.18129 -0.218051 0)
(2.1577 -0.226551 0)
(2.1344 -0.230072 0)
(2.11248 -0.22921 0)
(2.09275 -0.224703 0)
(2.07582 -0.217408 0)
(2.06204 -0.208242 0)
(2.05151 -0.198077 0)
(2.04411 -0.187721 0)
(2.03953 -0.177926 0)
(2.03735 -0.169238 0)
(2.0371 -0.16194 0)
(2.03824 -0.1563 0)
(2.04005 -0.152584 0)
(2.04197 -0.150686 0)
(2.04379 -0.150205 0)
(2.04529 -0.150918 0)
(2.0462 -0.15251 0)
(2.04648 -0.154767 0)
(2.04603 -0.157549 0)
(2.04482 -0.160471 0)
(2.04297 -0.163258 0)
(2.04065 -0.16586 0)
(2.03798 -0.168255 0)
(2.03524 -0.17035 0)
(2.0325 -0.172229 0)
(2.02995 -0.173923 0)
(2.02762 -0.175548 0)
(2.02555 -0.177223 0)
(2.02382 -0.179016 0)
(2.02234 -0.181083 0)
(2.02108 -0.183535 0)
(2.01997 -0.186504 0)
(2.0189 -0.190102 0)
(2.01773 -0.194399 0)
(2.01626 -0.19945 0)
(2.01428 -0.205286 0)
(2.01156 -0.21188 0)
(2.19437 0.00512361 0)
(2.18847 -0.0059793 0)
(2.18177 -0.0149079 0)
(2.17475 -0.0215339 0)
(2.16771 -0.0259922 0)
(2.16153 -0.0280331 0)
(2.15716 -0.027865 0)
(2.15475 -0.0264549 0)
(2.15436 -0.0240458 0)
(2.1568 -0.0213379 0)
(2.16212 -0.019337 0)
(2.16995 -0.0190261 0)
(2.17979 -0.0212855 0)
(2.19086 -0.0268414 0)
(2.20209 -0.0361124 0)
(2.21234 -0.0491641 0)
(2.22047 -0.0656678 0)
(2.22536 -0.084824 0)
(2.22627 -0.105705 0)
(2.22276 -0.127182 0)
(2.21469 -0.147843 0)
(2.20233 -0.166548 0)
(2.18667 -0.182226 0)
(2.16887 -0.194234 0)
(2.15001 -0.202339 0)
(2.13112 -0.206654 0)
(2.11307 -0.207534 0)
(2.09653 -0.205489 0)
(2.082 -0.201127 0)
(2.06979 -0.195112 0)
(2.06001 -0.188085 0)
(2.05262 -0.180676 0)
(2.04746 -0.173492 0)
(2.04422 -0.166987 0)
(2.04253 -0.161378 0)
(2.04204 -0.156818 0)
(2.0423 -0.15359 0)
(2.04285 -0.151865 0)
(2.04336 -0.1513 0)
(2.04384 -0.151559 0)
(2.04397 -0.152586 0)
(2.04366 -0.154211 0)
(2.04285 -0.156283 0)
(2.04152 -0.158598 0)
(2.03973 -0.160981 0)
(2.03762 -0.163313 0)
(2.03525 -0.165545 0)
(2.03281 -0.167612 0)
(2.03033 -0.169558 0)
(2.02794 -0.171408 0)
(2.02568 -0.173227 0)
(2.02358 -0.17511 0)
(2.02165 -0.177141 0)
(2.01987 -0.179413 0)
(2.0182 -0.182008 0)
(2.01658 -0.185009 0)
(2.01491 -0.188492 0)
(2.01306 -0.192513 0)
(2.01087 -0.197102 0)
(2.00819 -0.202257 0)
(2.00484 -0.207928 0)
(2.17986 0.0098513 0)
(2.17595 -0.000156693 0)
(2.17136 -0.00858542 0)
(2.16655 -0.015157 0)
(2.1619 -0.0199891 0)
(2.15776 -0.0233546 0)
(2.15481 -0.0252294 0)
(2.1536 -0.0256987 0)
(2.15371 -0.0255991 0)
(2.15576 -0.0255486 0)
(2.15981 -0.0261404 0)
(2.1656 -0.0280121 0)
(2.17273 -0.0317362 0)
(2.18062 -0.0377922 0)
(2.1885 -0.0464564 0)
(2.19553 -0.0577507 0)
(2.20087 -0.0714619 0)
(2.20376 -0.0871081 0)
(2.20366 -0.103966 0)
(2.20026 -0.121188 0)
(2.19353 -0.137886 0)
(2.18369 -0.153181 0)
(2.17138 -0.166219 0)
(2.15733 -0.176546 0)
(2.14231 -0.183959 0)
(2.12707 -0.188479 0)
(2.11228 -0.190318 0)
(2.09848 -0.189824 0)
(2.08609 -0.18743 0)
(2.07536 -0.183616 0)
(2.06642 -0.178865 0)
(2.0593 -0.173674 0)
(2.05391 -0.168506 0)
(2.05003 -0.163701 0)
(2.04736 -0.159456 0)
(2.04566 -0.15593 0)
(2.0447 -0.153347 0)
(2.04422 -0.151889 0)
(2.04396 -0.151363 0)
(2.04357 -0.151452 0)
(2.043 -0.152172 0)
(2.04219 -0.153407 0)
(2.04106 -0.155033 0)
(2.03958 -0.156912 0)
(2.03779 -0.158907 0)
(2.03576 -0.160925 0)
(2.03354 -0.162927 0)
(2.0312 -0.164894 0)
(2.02882 -0.16683 0)
(2.02645 -0.168749 0)
(2.02415 -0.17069 0)
(2.02194 -0.172708 0)
(2.01981 -0.174871 0)
(2.01774 -0.177238 0)
(2.01571 -0.179869 0)
(2.01365 -0.182823 0)
(2.01148 -0.18615 0)
(2.0091 -0.189879 0)
(2.0064 -0.194016 0)
(2.00323 -0.19854 0)
(1.99947 -0.203398 0)
(2.16857 0.0129013 0)
(2.16616 0.00365085 0)
(2.16325 -0.00429226 0)
(2.16013 -0.010848 0)
(2.15713 -0.0161308 0)
(2.1546 -0.0202743 0)
(2.15284 -0.0232522 0)
(2.15201 -0.0252301 0)
(2.15235 -0.0269054 0)
(2.15415 -0.0286121 0)
(2.1573 -0.0308231 0)
(2.16159 -0.0340001 0)
(2.16672 -0.0385479 0)
(2.17225 -0.0447954 0)
(2.17764 -0.0529288 0)
(2.18228 -0.0629525 0)
(2.1856 -0.0746838 0)
(2.18706 -0.08775 0)
(2.18629 -0.101626 0)
(2.18308 -0.115692 0)
(2.17741 -0.129294 0)
(2.16943 -0.14185 0)
(2.15952 -0.15279 0)
(2.14819 -0.16174 0)
(2.13601 -0.16851 0)
(2.12353 -0.173077 0)
(2.11126 -0.175557 0)
(2.09963 -0.176179 0)
(2.08897 -0.175245 0)
(2.0795 -0.173099 0)
(2.07136 -0.170112 0)
(2.06461 -0.166668 0)
(2.05917 -0.1631 0)
(2.05489 -0.159645 0)
(2.05162 -0.156502 0)
(2.04921 -0.153901 0)
(2.0475 -0.152039 0)
(2.04624 -0.15093 0)
(2.04512 -0.150435 0)
(2.04399 -0.150486 0)
(2.04283 -0.151045 0)
(2.04155 -0.152031 0)
(2.04007 -0.15336 0)
(2.03837 -0.154938 0)
(2.03646 -0.156678 0)
(2.03436 -0.158508 0)
(2.03213 -0.160384 0)
(2.02981 -0.162282 0)
(2.02743 -0.1642 0)
(2.02504 -0.166148 0)
(2.02267 -0.168146 0)
(2.02033 -0.170228 0)
(2.01802 -0.172437 0)
(2.01572 -0.174819 0)
(2.01339 -0.177416 0)
(2.01098 -0.180264 0)
(2.00844 -0.183389 0)
(2.00568 -0.186804 0)
(2.0026 -0.190505 0)
(1.99911 -0.194463 0)
(1.99511 -0.198624 0)
(2.15865 0.0144947 0)
(2.15745 0.00587678 0)
(2.15582 -0.00170879 0)
(2.154 -0.00822438 0)
(2.15223 -0.0137921 0)
(2.15077 -0.0184782 0)
(2.14978 -0.0222343 0)
(2.14946 -0.0253081 0)
(2.15003 -0.0281899 0)
(2.15158 -0.0311357 0)
(2.154 -0.0344884 0)
(2.15716 -0.0385635 0)
(2.16083 -0.0436431 0)
(2.16468 -0.0499456 0)
(2.16832 -0.0575843 0)
(2.17132 -0.0665448 0)
(2.17326 -0.0766811 0)
(2.17377 -0.0877254 0)
(2.17259 -0.0993078 0)
(2.16955 -0.110982 0)
(2.16464 -0.122283 0)
(2.15798 -0.132807 0)
(2.14982 -0.142135 0)
(2.14053 -0.149961 0)
(2.1305 -0.156125 0)
(2.12016 -0.160587 0)
(2.10987 -0.16341 0)
(2.09997 -0.164745 0)
(2.09073 -0.164805 0)
(2.08235 -0.163844 0)
(2.07494 -0.162145 0)
(2.06857 -0.159984 0)
(2.06319 -0.157608 0)
(2.05874 -0.155233 0)
(2.05512 -0.153061 0)
(2.05224 -0.151264 0)
(2.04992 -0.149953 0)
(2.04796 -0.149149 0)
(2.0462 -0.148805 0)
(2.04452 -0.148886 0)
(2.04287 -0.149386 0)
(2.04118 -0.150253 0)
(2.03938 -0.15142 0)
(2.03745 -0.152818 0)
(2.03538 -0.154384 0)
(2.03319 -0.156064 0)
(2.0309 -0.15782 0)
(2.02853 -0.159633 0)
(2.02611 -0.161499 0)
(2.02367 -0.163423 0)
(2.0212 -0.165417 0)
(2.01874 -0.167501 0)
(2.01626 -0.169702 0)
(2.01375 -0.172049 0)
(2.01119 -0.174567 0)
(2.00853 -0.177278 0)
(2.00571 -0.180196 0)
(2.00268 -0.18332 0)
(1.99937 -0.186637 0)
(1.99569 -0.190114 0)
(1.99157 -0.193696 0)
(2.14957 0.0149415 0)
(2.14932 0.00686294 0)
(2.14869 -0.000391052 0)
(2.14786 -0.00682801 0)
(2.14703 -0.0125425 0)
(2.14636 -0.0175428 0)
(2.14598 -0.0218287 0)
(2.14607 -0.0256622 0)
(2.14678 -0.0293727 0)
(2.14811 -0.0331466 0)
(2.15 -0.0372169 0)
(2.15235 -0.0418104 0)
(2.15498 -0.0471288 0)
(2.15764 -0.0533207 0)
(2.16005 -0.0604586 0)
(2.16189 -0.0685255 0)
(2.16288 -0.0774107 0)
(2.16274 -0.0869166 0)
(2.16128 -0.0967717 0)
(2.15841 -0.106649 0)
(2.15411 -0.116208 0)
(2.14845 -0.125155 0)
(2.14163 -0.133183 0)
(2.1339 -0.140065 0)
(2.12553 -0.145669 0)
(2.11684 -0.14995 0)
(2.10811 -0.152943 0)
(2.09961 -0.154745 0)
(2.09154 -0.155507 0)
(2.08408 -0.155416 0)
(2.07734 -0.154677 0)
(2.07135 -0.153498 0)
(2.06613 -0.152076 0)
(2.06165 -0.150592 0)
(2.05784 -0.149207 0)
(2.05461 -0.148051 0)
(2.05183 -0.147214 0)
(2.04938 -0.146725 0)
(2.04715 -0.146573 0)
(2.04505 -0.146753 0)
(2.043 -0.14727 0)
(2.04097 -0.14809 0)
(2.0389 -0.149164 0)
(2.03675 -0.150447 0)
(2.03452 -0.151894 0)
(2.0322 -0.15347 0)
(2.02982 -0.155144 0)
(2.02737 -0.156898 0)
(2.02488 -0.158724 0)
(2.02236 -0.160622 0)
(2.01981 -0.162598 0)
(2.01723 -0.164663 0)
(2.01462 -0.166831 0)
(2.01196 -0.169118 0)
(2.00923 -0.171539 0)
(2.00638 -0.174103 0)
(2.00338 -0.176813 0)
(2.00018 -0.179663 0)
(1.99672 -0.182633 0)
(1.99295 -0.185691 0)
(1.98881 -0.188785 0)
(2.14121 0.0144899 0)
(2.14171 0.00689301 0)
(2.14186 -5.18917e-05 0)
(2.14181 -0.00636656 0)
(2.14169 -0.0121125 0)
(2.14162 -0.0172919 0)
(2.14172 -0.0219411 0)
(2.14213 -0.0262736 0)
(2.14292 -0.030517 0)
(2.14409 -0.0348056 0)
(2.1456 -0.0393082 0)
(2.14736 -0.0441901 0)
(2.14923 -0.0495933 0)
(2.15104 -0.0556178 0)
(2.15258 -0.0623075 0)
(2.15363 -0.0696417 0)
(2.15396 -0.0775326 0)
(2.1534 -0.085831 0)
(2.15182 -0.0943369 0)
(2.14912 -0.102811 0)
(2.14531 -0.111007 0)
(2.14045 -0.118711 0)
(2.13466 -0.125701 0)
(2.12812 -0.131804 0)
(2.12104 -0.136911 0)
(2.11365 -0.140981 0)
(2.10618 -0.144028 0)
(2.09881 -0.146117 0)
(2.09172 -0.147355 0)
(2.08505 -0.147878 0)
(2.07889 -0.147838 0)
(2.0733 -0.147395 0)
(2.06829 -0.146704 0)
(2.06384 -0.14591 0)
(2.05993 -0.145141 0)
(2.05647 -0.144501 0)
(2.05339 -0.144062 0)
(2.05059 -0.143863 0)
(2.04801 -0.143913 0)
(2.04557 -0.144218 0)
(2.04321 -0.144789 0)
(2.0409 -0.145611 0)
(2.03858 -0.146652 0)
(2.03623 -0.147878 0)
(2.03384 -0.14926 0)
(2.0314 -0.15077 0)
(2.02891 -0.152384 0)
(2.02638 -0.154086 0)
(2.02381 -0.155868 0)
(2.0212 -0.157726 0)
(2.01857 -0.159663 0)
(2.01589 -0.161682 0)
(2.01317 -0.163791 0)
(2.0104 -0.165997 0)
(2.00753 -0.168305 0)
(2.00456 -0.170719 0)
(2.00143 -0.173233 0)
(1.99813 -0.175837 0)
(1.9946 -0.178509 0)
(1.9908 -0.181216 0)
(1.9867 -0.183912 0)
(2.13351 0.0132936 0)
(2.13461 0.00613988 0)
(2.13538 -0.000499467 0)
(2.13593 -0.00664477 0)
(2.13636 -0.0123378 0)
(2.13676 -0.0175902 0)
(2.13723 -0.0224479 0)
(2.13788 -0.0270699 0)
(2.13873 -0.0316225 0)
(2.13979 -0.0362044 0)
(2.14102 -0.0409369 0)
(2.14236 -0.0459383 0)
(2.14371 -0.0513069 0)
(2.14493 -0.0571095 0)
(2.14587 -0.0633716 0)
(2.14637 -0.0700725 0)
(2.14628 -0.0771438 0)
(2.14547 -0.0844737 0)
(2.14383 -0.0919137 0)
(2.14131 -0.0992877 0)
(2.13792 -0.106416 0)
(2.13368 -0.113142 0)
(2.1287 -0.119294 0)
(2.12311 -0.124745 0)
(2.11705 -0.12941 0)
(2.1107 -0.133251 0)
(2.10422 -0.136274 0)
(2.09778 -0.138522 0)
(2.0915 -0.140073 0)
(2.08551 -0.141024 0)
(2.07987 -0.141492 0)
(2.07464 -0.141599 0)
(2.06985 -0.141465 0)
(2.06549 -0.141206 0)
(2.06153 -0.140923 0)
(2.05794 -0.1407 0)
(2.05466 -0.140601 0)
(2.05162 -0.140667 0)
(2.04878 -0.140917 0)
(2.04608 -0.14136 0)
(2.04347 -0.142011 0)
(2.04093 -0.142867 0)
(2.0384 -0.143909 0)
(2.03588 -0.145113 0)
(2.03334 -0.146459 0)
(2.03077 -0.147928 0)
(2.02817 -0.1495 0)
(2.02555 -0.151164 0)
(2.0229 -0.15291 0)
(2.02021 -0.154732 0)
(2.0175 -0.15663 0)
(2.01474 -0.158601 0)
(2.01194 -0.160648 0)
(2.00907 -0.162771 0)
(2.00612 -0.16497 0)
(2.00306 -0.167242 0)
(1.99987 -0.169579 0)
(1.99651 -0.171966 0)
(1.99296 -0.174382 0)
(1.98918 -0.176796 0)
(1.98516 -0.179167 0)
(2.12646 0.0115295 0)
(2.12804 0.00479634 0)
(2.1293 -0.00153156 0)
(2.13032 -0.00746959 0)
(2.13118 -0.0130468 0)
(2.13195 -0.0182849 0)
(2.13271 -0.0232288 0)
(2.13354 -0.0279882 0)
(2.13445 -0.0326886 0)
(2.13543 -0.0374061 0)
(2.13647 -0.042225 0)
(2.13752 -0.0472298 0)
(2.1385 -0.0524886 0)
(2.13931 -0.0580455 0)
(2.13985 -0.0639141 0)
(2.13999 -0.0700745 0)
(2.13963 -0.0764724 0)
(2.13867 -0.083022 0)
(2.13704 -0.089611 0)
(2.13471 -0.0961083 0)
(2.13167 -0.102383 0)
(2.12796 -0.108315 0)
(2.12363 -0.113778 0)
(2.11879 -0.118677 0)
(2.11355 -0.122946 0)
(2.10803 -0.126554 0)
(2.10237 -0.129502 0)
(2.09668 -0.131819 0)
(2.09108 -0.133561 0)
(2.08565 -0.134802 0)
(2.08047 -0.135628 0)
(2.07558 -0.136134 0)
(2.071 -0.136415 0)
(2.06675 -0.136562 0)
(2.0628 -0.136656 0)
(2.05914 -0.136767 0)
(2.05573 -0.136949 0)
(2.05253 -0.137243 0)
(2.04949 -0.137673 0)
(2.0466 -0.138251 0)
(2.0438 -0.13899 0)
(2.04106 -0.139898 0)
(2.03836 -0.140964 0)
(2.03568 -0.142174 0)
(2.033 -0.143511 0)
(2.03032 -0.144962 0)
(2.02762 -0.146513 0)
(2.02491 -0.148152 0)
(2.02218 -0.14987 0)
(2.01943 -0.151659 0)
(2.01665 -0.153515 0)
(2.01383 -0.155436 0)
(2.01096 -0.157417 0)
(2.00803 -0.159457 0)
(2.00503 -0.16155 0)
(2.00193 -0.163691 0)
(1.9987 -0.165868 0)
(1.99534 -0.168068 0)
(1.99181 -0.170269 0)
(1.9881 -0.172443 0)
(1.98419 -0.174555 0)
(2.12004 0.0092662 0)
(2.12201 0.00293881 0)
(2.12366 -0.0030693 0)
(2.12505 -0.00876812 0)
(2.12624 -0.0141804 0)
(2.12731 -0.0193318 0)
(2.12829 -0.0242622 0)
(2.12926 -0.0290449 0)
(2.13021 -0.0337726 0)
(2.13116 -0.0385092 0)
(2.13207 -0.0433108 0)
(2.13292 -0.048237 0)
(2.13365 -0.0533344 0)
(2.13419 -0.0586308 0)
(2.13446 -0.0641317 0)
(2.13438 -0.0698179 0)
(2.13386 -0.0756455 0)
(2.13285 -0.0815478 0)
(2.13128 -0.0874389 0)
(2.12913 -0.0932216 0)
(2.12641 -0.0988005 0)
(2.12313 -0.10408 0)
(2.11934 -0.108969 0)
(2.11511 -0.113395 0)
(2.11053 -0.117308 0)
(2.10569 -0.120683 0)
(2.10069 -0.12352 0)
(2.09563 -0.12584 0)
(2.09059 -0.127682 0)
(2.08565 -0.129105 0)
(2.08086 -0.130173 0)
(2.07627 -0.130962 0)
(2.0719 -0.131545 0)
(2.06776 -0.131995 0)
(2.06386 -0.132378 0)
(2.06017 -0.132752 0)
(2.05669 -0.133164 0)
(2.05337 -0.133651 0)
(2.0502 -0.13424 0)
(2.04715 -0.134946 0)
(2.04419 -0.135778 0)
(2.04131 -0.136747 0)
(2.03846 -0.137851 0)
(2.03565 -0.139081 0)
(2.03286 -0.140426 0)
(2.03007 -0.141875 0)
(2.02729 -0.143418 0)
(2.0245 -0.145043 0)
(2.02171 -0.146742 0)
(2.0189 -0.148507 0)
(2.01607 -0.150332 0)
(2.01321 -0.152209 0)
(2.01031 -0.154134 0)
(2.00736 -0.1561 0)
(2.00434 -0.158101 0)
(2.00123 -0.160128 0)
(1.99802 -0.16217 0)
(1.99468 -0.164212 0)
(1.99121 -0.166236 0)
(1.98759 -0.168218 0)
(1.98381 -0.170127 0)
(2.11428 0.00666246 0)
(2.11656 0.000734196 0)
(2.11851 -0.00494369 0)
(2.12019 -0.0103788 0)
(2.12166 -0.0155866 0)
(2.12295 -0.0205937 0)
(2.12411 -0.0254357 0)
(2.12518 -0.0301604 0)
(2.12618 -0.0348314 0)
(2.12711 -0.0395062 0)
(2.12794 -0.0442209 0)
(2.12866 -0.0490156 0)
(2.12923 -0.0539217 0)
(2.1296 -0.0589556 0)
(2.1297 -0.0641167 0)
(2.12949 -0.0693869 0)
(2.1289 -0.0747297 0)
(2.12788 -0.0800918 0)
(2.1264 -0.0854068 0)
(2.12444 -0.0906031 0)
(2.122 -0.0956075 0)
(2.1191 -0.100343 0)
(2.11576 -0.104744 0)
(2.11204 -0.108758 0)
(2.108 -0.112346 0)
(2.10372 -0.11549 0)
(2.09928 -0.118191 0)
(2.09473 -0.120463 0)
(2.09017 -0.122338 0)
(2.08563 -0.123861 0)
(2.08119 -0.125082 0)
(2.07686 -0.126061 0)
(2.07269 -0.126856 0)
(2.06868 -0.127526 0)
(2.06484 -0.128126 0)
(2.06116 -0.128703 0)
(2.05764 -0.1293 0)
(2.05425 -0.129948 0)
(2.05098 -0.130673 0)
(2.04782 -0.131493 0)
(2.04475 -0.132418 0)
(2.04174 -0.133455 0)
(2.03879 -0.134608 0)
(2.03587 -0.135873 0)
(2.03298 -0.13724 0)
(2.03012 -0.138703 0)
(2.02726 -0.140252 0)
(2.02442 -0.141877 0)
(2.02157 -0.14357 0)
(2.01872 -0.14532 0)
(2.01586 -0.14712 0)
(2.01298 -0.148962 0)
(2.01007 -0.150837 0)
(2.00711 -0.152739 0)
(2.00408 -0.154658 0)
(2.00098 -0.156585 0)
(1.99779 -0.158511 0)
(1.99449 -0.160421 0)
(1.99107 -0.162299 0)
(1.98753 -0.164124 0)
(1.98385 -0.165873 0)
(2.10916 0.0037022 0)
(2.11169 -0.00183289 0)
(2.11389 -0.00717052 0)
(2.1158 -0.012317 0)
(2.11747 -0.0172892 0)
(2.11894 -0.022104 0)
(2.12024 -0.0267949 0)
(2.1214 -0.0313977 0)
(2.12244 -0.0359508 0)
(2.12336 -0.0404997 0)
(2.12415 -0.0450755 0)
(2.12479 -0.0497004 0)
(2.12526 -0.0543941 0)
(2.12552 -0.0591651 0)
(2.12554 -0.0640088 0)
(2.12526 -0.0689071 0)
(2.12466 -0.0738277 0)
(2.12369 -0.0787278 0)
(2.12232 -0.0835585 0)
(2.12055 -0.0882615 0)
(2.11838 -0.0927753 0)
(2.1158 -0.0970453 0)
(2.11285 -0.101022 0)
(2.10957 -0.104667 0)
(2.10599 -0.107953 0)
(2.10218 -0.110866 0)
(2.0982 -0.113409 0)
(2.0941 -0.115595 0)
(2.08993 -0.11745 0)
(2.08576 -0.119008 0)
(2.08161 -0.120311 0)
(2.07753 -0.121406 0)
(2.07354 -0.122341 0)
(2.06966 -0.123164 0)
(2.0659 -0.123919 0)
(2.06225 -0.124647 0)
(2.05872 -0.125385 0)
(2.0553 -0.12616 0)
(2.05197 -0.126999 0)
(2.04873 -0.127918 0)
(2.04556 -0.128927 0)
(2.04246 -0.130034 0)
(2.03941 -0.131241 0)
(2.0364 -0.132549 0)
(2.03343 -0.133952 0)
(2.03048 -0.135444 0)
(2.02755 -0.137014 0)
(2.02463 -0.138653 0)
(2.02172 -0.140351 0)
(2.01882 -0.142099 0)
(2.0159 -0.143885 0)
(2.01297 -0.145701 0)
(2.01001 -0.147534 0)
(2.007 -0.149373 0)
(2.00394 -0.151212 0)
(2.00079 -0.153043 0)
(1.99756 -0.154857 0)
(1.99422 -0.15664 0)
(1.99077 -0.158381 0)
(1.98721 -0.160062 0)
(1.98352 -0.161665 0)
(2.10477 0.000578082 0)
(2.10749 -0.00456661 0)
(2.10987 -0.00955904 0)
(2.11196 -0.014405 0)
(2.1138 -0.0191162 0)
(2.1154 -0.0237104 0)
(2.11681 -0.0282111 0)
(2.11804 -0.0326454 0)
(2.11912 -0.0370439 0)
(2.12004 -0.0414315 0)
(2.12081 -0.0458365 0)
(2.1214 -0.0502731 0)
(2.12182 -0.0547498 0)
(2.12203 -0.0592685 0)
(2.12201 -0.0638209 0)
(2.12172 -0.0683881 0)
(2.12115 -0.0729447 0)
(2.12025 -0.0774564 0)
(2.11903 -0.081874 0)
(2.11745 -0.0861538 0)