/*--------------------------------*- C++ -*----------------------------------*\
| =========                 |                                                 |
| \\      /  F ield         | OpenFOAM: The Open Source CFD Toolbox           |
|  \\    /   O peration     | Version:  2206                                  |
|   \\  /    A nd           | Website:  www.openfoam.com                      |
|    \\/     M anipulation  |                                                 |
\*---------------------------------------------------------------------------*/
FoamFile
{
    version     2.0;
    format      ascii;
    arch        "LSB;label=32;scalar=64";
    class       volVectorField;
    location    "19.5";
    object      U;
}
// * * * * * * * * * * * * * * * * * * * * * * * * * * * * * * * * * * * * * //

dimensions      [0 1 -1 0 0 0 0];

internalField   nonuniform List<vector> 
3025
(
(1.47762 -0.000249864 0)
(1.4777 -0.000749066 0)
(1.47789 -0.00124366 0)
(1.47818 -0.00172907 0)
(1.47856 -0.00220146 0)
(1.47903 -0.00265772 0)
(1.47958 -0.00309528 0)
(1.48021 -0.00351205 0)
(1.48091 -0.00390649 0)
(1.48169 -0.00427758 0)
(1.48253 -0.00462476 0)
(1.48343 -0.00494783 0)
(1.48438 -0.00524693 0)
(1.48539 -0.00552242 0)
(1.48644 -0.00577485 0)
(1.48753 -0.00600492 0)
(1.48866 -0.0062134 0)
(1.48982 -0.00640111 0)
(1.49102 -0.00656888 0)
(1.49224 -0.00671752 0)
(1.49349 -0.00684784 0)
(1.49476 -0.00696056 0)
(1.49604 -0.00705639 0)
(1.49734 -0.00713594 0)
(1.49866 -0.00719979 0)
(1.49998 -0.00724842 0)
(1.50131 -0.00728227 0)
(1.50264 -0.00730171 0)
(1.50398 -0.00730705 0)
(1.50531 -0.00729856 0)
(1.50664 -0.00727643 0)
(1.50797 -0.00724081 0)
(1.50928 -0.00719185 0)
(1.51059 -0.00712964 0)
(1.51188 -0.00705428 0)
(1.51315 -0.00696576 0)
(1.5144 -0.00686417 0)
(1.51563 -0.00674941 0)
(1.51683 -0.00662156 0)
(1.518 -0.00648043 0)
(1.51915 -0.00632608 0)
(1.52026 -0.00615816 0)
(1.52133 -0.00597675 0)
(1.52237 -0.00578129 0)
(1.52337 -0.00557183 0)
(1.52432 -0.00534754 0)
(1.52522 -0.00510836 0)
(1.52608 -0.00485317 0)
(1.52688 -0.00458172 0)
(1.52762 -0.0042924 0)
(1.52831 -0.00398489 0)
(1.52894 -0.00365669 0)
(1.5295 -0.0033077 0)
(1.53 -0.00293409 0)
(1.53042 -0.00253647 0)
(1.53076 -0.00210942 0)
(1.53103 -0.00165496 0)
(1.53121 -0.00116488 0)
(1.53129 -0.00063592 0)
(1.53128 -6.37235e-05 0)
(1.53115 0.000557239 0)
(1.53091 0.00123311 0)
(1.53055 0.00197092 0)
(1.53005 0.00277888 0)
(1.52941 0.00366644 0)
(1.52861 0.00464447 0)
(1.52763 0.00572553 0)
(1.52645 0.00692409 0)
(1.52507 0.00825687 0)
(1.52345 0.00974328 0)
(1.52158 0.0114058 0)
(1.51942 0.0132707 0)
(1.51694 0.0153684 0)
(1.51411 0.0177348 0)
(1.51089 0.0204119 0)
(1.50723 0.0234491 0)
(1.50308 0.0269052 0)
(1.49838 0.0308496 0)
(1.49306 0.0353656 0)
(1.48705 0.0405526 0)
(1.48027 0.0465309 0)
(1.47261 0.053446 0)
(1.46398 0.0614755 0)
(1.45423 0.0708371 0)
(1.44325 0.0817997 0)
(1.43087 0.0946975 0)
(1.41693 0.109949 0)
(1.40126 0.128084 0)
(1.38366 0.149777 0)
(1.36396 0.175896 0)
(1.34198 0.207576 0)
(1.31757 0.246327 0)
(1.29077 0.294167 0)
(1.26141 0.354011 0)
(1.23103 0.429749 0)
(1.19666 0.528489 0)
(1.17761 0.657722 0)
(1.12635 0.845645 0)
(1.28458 1.07964 0)
(1.14469 1.61822 0)
(1.47762 -0.000299577 0)
(1.4777 -0.000897774 0)
(1.4779 -0.00148986 0)
(1.4782 -0.00207014 0)
(1.4786 -0.00263385 0)
(1.47909 -0.00317724 0)
(1.47966 -0.00369726 0)
(1.48032 -0.00419151 0)
(1.48105 -0.0046583 0)
(1.48185 -0.00509657 0)
(1.48272 -0.00550583 0)
(1.48364 -0.00588604 0)
(1.48462 -0.00623752 0)
(1.48565 -0.00656086 0)
(1.48673 -0.00685687 0)
(1.48784 -0.00712646 0)
(1.48899 -0.00737063 0)
(1.49018 -0.00759042 0)
(1.49139 -0.00778685 0)
(1.49264 -0.0079609 0)
(1.4939 -0.00811352 0)
(1.49519 -0.00824557 0)
(1.49649 -0.00835783 0)
(1.49781 -0.00845102 0)
(1.49914 -0.00852576 0)
(1.50048 -0.00858258 0)
(1.50183 -0.00862193 0)
(1.50318 -0.0086442 0)
(1.50453 -0.00864973 0)
(1.50588 -0.00863874 0)
(1.50723 -0.00861143 0)
(1.50857 -0.00856794 0)
(1.5099 -0.00850841 0)
(1.51122 -0.00843292 0)
(1.51253 -0.00834156 0)
(1.51381 -0.00823435 0)
(1.51508 -0.00811134 0)
(1.51632 -0.00797248 0)
(1.51754 -0.00781784 0)
(1.51873 -0.00764727 0)
(1.51989 -0.0074608 0)
(1.52102 -0.00725818 0)
(1.52211 -0.00703937 0)
(1.52316 -0.00680402 0)
(1.52417 -0.00655189 0)
(1.52514 -0.00628251 0)
(1.52606 -0.00599535 0)
(1.52693 -0.00568973 0)
(1.52775 -0.0053648 0)
(1.52852 -0.00501944 0)
(1.52923 -0.00465251 0)
(1.52988 -0.00426227 0)
(1.53046 -0.00384728 0)
(1.53098 -0.00340501 0)
(1.53143 -0.00293398 0)
(1.53181 -0.00243037 0)
(1.53211 -0.00189322 0)
(1.53233 -0.00131478 0)
(1.53246 -0.000691997 0)
(1.53249 -1.92886e-05 0)
(1.53242 0.000709573 0)
(1.53225 0.00150169 0)
(1.53196 0.00236514 0)
(1.53154 0.00330928 0)
(1.53099 0.00434485 0)
(1.53029 0.00548425 0)
(1.52943 0.00674169 0)
(1.52839 0.00813357 0)
(1.52716 0.00967878 0)
(1.52572 0.0113991 0)
(1.52405 0.0133199 0)
(1.52212 0.0154703 0)
(1.51991 0.0178844 0)
(1.51739 0.020602 0)
(1.51453 0.0236695 0)
(1.51128 0.0271413 0)
(1.50761 0.0310816 0)
(1.50347 0.0355661 0)
(1.49882 0.0406848 0)
(1.49358 0.0465448 0)
(1.48771 0.0532743 0)
(1.48113 0.0610276 0)
(1.47377 0.0699908 0)
(1.46556 0.0803904 0)
(1.45641 0.0925028 0)
(1.44625 0.106667 0)
(1.43502 0.123304 0)
(1.42265 0.142936 0)
(1.40913 0.166217 0)
(1.39449 0.193977 0)
(1.37888 0.227273 0)
(1.36257 0.267475 0)
(1.34628 0.316373 0)
(1.33073 0.376382 0)
(1.31933 0.45072 0)
(1.31209 0.544107 0)
(1.32905 0.661509 0)
(1.35181 0.814455 0)
(1.47005 0.976532 0)
(1.62279 1.31599 0)
(1.47762 -0.00035189 0)
(1.47771 -0.00105419 0)
(1.47792 -0.00174859 0)
(1.47824 -0.00242804 0)
(1.47866 -0.00308675 0)
(1.47917 -0.00372021 0)
(1.47977 -0.0043249 0)
(1.48046 -0.00489817 0)
(1.48122 -0.00543821 0)
(1.48205 -0.00594404 0)
(1.48295 -0.00641534 0)
(1.4839 -0.0068523 0)
(1.48491 -0.00725554 0)
(1.48597 -0.00762594 0)
(1.48707 -0.00796461 0)
(1.48822 -0.00827276 0)
(1.4894 -0.00855167 0)
(1.49061 -0.00880261 0)
(1.49185 -0.00902682 0)
(1.49311 -0.00922549 0)
(1.4944 -0.0093997 0)
(1.49571 -0.00955045 0)
(1.49703 -0.00967863 0)
(1.49837 -0.00978502 0)
(1.49972 -0.0098703 0)
(1.50108 -0.00993503 0)
(1.50245 -0.00997968 0)
(1.50382 -0.0100046 0)
(1.50519 -0.0100102 0)
(1.50656 -0.00999665 0)
(1.50793 -0.00996409 0)
(1.50929 -0.00991268 0)
(1.51064 -0.00984251 0)
(1.51198 -0.00975369 0)
(1.5133 -0.00964627 0)
(1.5146 -0.00952029 0)
(1.51589 -0.00937578 0)
(1.51715 -0.00921278 0)
(1.51839 -0.00903124 0)
(1.5196 -0.00883122 0)
(1.52078 -0.00861254 0)
(1.52192 -0.0083753 0)
(1.52303 -0.00811911 0)
(1.5241 -0.00784406 0)
(1.52513 -0.00754951 0)
(1.52612 -0.00723542 0)
(1.52706 -0.00690084 0)
(1.52795 -0.00654553 0)
(1.52879 -0.00616805 0)
(1.52958 -0.00576793 0)
(1.53031 -0.00534306 0)
(1.53099 -0.00489268 0)
(1.5316 -0.0044139 0)
(1.53215 -0.00390561 0)
(1.53263 -0.00336396 0)
(1.53305 -0.00278758 0)
(1.53339 -0.00217095 0)
(1.53365 -0.00150942 0)
(1.53382 -0.000798285 0)
(1.53391 -3.13286e-05 0)
(1.53391 0.000798262 0)
(1.53381 0.0016983 0)
(1.53359 0.00267782 0)
(1.53327 0.00374715 0)
(1.53282 0.00491819 0)
(1.53224 0.00620454 0)
(1.53151 0.00762182 0)
(1.53062 0.00918798 0)
(1.52957 0.0109236 0)
(1.52833 0.0128525 0)
(1.52688 0.015002 0)
(1.52521 0.0174037 0)
(1.5233 0.0200943 0)
(1.52113 0.0231164 0)
(1.51866 0.0265194 0)
(1.51587 0.0303611 0)
(1.51272 0.0347091 0)
(1.5092 0.0396429 0)
(1.50525 0.0452562 0)
(1.50085 0.0516595 0)
(1.49596 0.0589842 0)
(1.49053 0.0673867 0)
(1.48452 0.0770541 0)
(1.47792 0.0882108 0)
(1.47069 0.101127 0)
(1.46282 0.116131 0)
(1.45433 0.133619 0)
(1.44528 0.154076 0)
(1.43579 0.178094 0)
(1.42607 0.206402 0)
(1.4165 0.239894 0)
(1.40767 0.279664 0)
(1.40061 0.327069 0)
(1.39674 0.383675 0)
(1.39911 0.451437 0)
(1.4105 0.53189 0)
(1.43952 0.626503 0)
(1.49118 0.737047 0)
(1.56729 0.830591 0)
(1.74112 1.00735 0)
(1.47762 -0.000407452 0)
(1.47772 -0.00122024 0)
(1.47794 -0.00202294 0)
(1.47828 -0.00280686 0)
(1.47872 -0.00356497 0)
(1.47927 -0.00429196 0)
(1.4799 -0.00498384 0)
(1.48062 -0.00563776 0)
(1.48142 -0.00625195 0)
(1.48229 -0.00682559 0)
(1.48323 -0.00735866 0)
(1.48422 -0.00785173 0)
(1.48526 -0.0083058 0)
(1.48636 -0.00872216 0)
(1.48749 -0.0091023 0)
(1.48867 -0.0094478 0)
(1.48987 -0.00976025 0)
(1.49111 -0.0100412 0)
(1.49238 -0.0102922 0)
(1.49367 -0.0105145 0)
(1.49499 -0.0107095 0)
(1.49632 -0.0108782 0)
(1.49767 -0.0110217 0)
(1.49903 -0.0111408 0)
(1.50041 -0.0112362 0)
(1.50179 -0.0113086 0)
(1.50318 -0.0113583 0)
(1.50457 -0.0113858 0)
(1.50596 -0.0113913 0)
(1.50735 -0.0113751 0)
(1.50874 -0.0113372 0)
(1.51012 -0.0112778 0)
(1.5115 -0.011197 0)
(1.51286 -0.0110948 0)
(1.5142 -0.0109712 0)
(1.51553 -0.0108264 0)
(1.51684 -0.0106603 0)
(1.51812 -0.010473 0)
(1.51938 -0.0102645 0)
(1.52061 -0.0100348 0)
(1.52181 -0.00978393 0)
(1.52298 -0.00951188 0)
(1.52411 -0.00921849 0)
(1.5252 -0.00890364 0)
(1.52625 -0.00856709 0)
(1.52725 -0.00820843 0)
(1.52822 -0.0078272 0)
(1.52913 -0.00742266 0)
(1.53 -0.00699396 0)
(1.53081 -0.00653995 0)
(1.53157 -0.00605921 0)
(1.53227 -0.00555014 0)
(1.53291 -0.00501048 0)
(1.5335 -0.00443836 0)
(1.53402 -0.00383 0)
(1.53447 -0.00318367 0)
(1.53485 -0.00249258 0)
(1.53516 -0.00175315 0)
(1.53539 -0.000959637 0)
(1.53554 -0.000105424 0)
(1.53561 0.0008169 0)
(1.53558 0.00181575 0)
(1.53546 0.00290088 0)
(1.53524 0.00408344 0)
(1.5349 0.00537621 0)
(1.53445 0.00679376 0)
(1.53386 0.00835281 0)
(1.53315 0.0100725 0)
(1.53228 0.0119747 0)
(1.53125 0.0140845 0)
(1.53005 0.0164309 0)
(1.52867 0.0190471 0)
(1.52708 0.0219714 0)
(1.52527 0.0252481 0)
(1.52322 0.0289285 0)
(1.52092 0.0330719 0)
(1.51833 0.0377477 0)
(1.51546 0.0430365 0)
(1.51226 0.0490326 0)
(1.50873 0.0558466 0)
(1.50485 0.0636084 0)
(1.5006 0.072471 0)
(1.49599 0.082615 0)
(1.49101 0.0942544 0)
(1.4857 0.107643 0)
(1.4801 0.123081 0)
(1.4743 0.140927 0)
(1.46844 0.161604 0)
(1.46274 0.185617 0)
(1.45755 0.213556 0)
(1.45336 0.246112 0)
(1.45093 0.284067 0)
(1.45136 0.328297 0)
(1.45622 0.379632 0)
(1.46777 0.438861 0)
(1.48923 0.506143 0)
(1.52358 0.579996 0)
(1.58089 0.662903 0)
(1.65196 0.728731 0)
(1.77411 0.826161 0)
(1.47762 -0.000467064 0)
(1.47773 -0.00139828 0)
(1.47796 -0.00231666 0)
(1.47833 -0.00321149 0)
(1.47881 -0.00407425 0)
(1.47939 -0.00489874 0)
(1.48006 -0.00568056 0)
(1.48083 -0.00641681 0)
(1.48167 -0.00710589 0)
(1.48258 -0.00774736 0)
(1.48356 -0.00834163 0)
(1.4846 -0.0088898 0)
(1.48568 -0.0093934 0)
(1.48681 -0.00985425 0)
(1.48799 -0.0102743 0)
(1.4892 -0.0106556 0)
(1.49044 -0.0110001 0)
(1.49171 -0.0113097 0)
(1.49301 -0.0115861 0)
(1.49433 -0.011831 0)
(1.49567 -0.0120457 0)
(1.49703 -0.0122316 0)
(1.49841 -0.0123898 0)
(1.4998 -0.012521 0)
(1.5012 -0.0126262 0)
(1.5026 -0.0127059 0)
(1.50402 -0.0127605 0)
(1.50544 -0.0127904 0)
(1.50685 -0.0127958 0)
(1.50827 -0.0127769 0)
(1.50968 -0.0127337 0)
(1.51109 -0.0126663 0)
(1.51249 -0.0125748 0)
(1.51387 -0.0124591 0)
(1.51524 -0.0123194 0)
(1.51659 -0.0121557 0)
(1.51792 -0.0119679 0)
(1.51923 -0.0117562 0)
(1.52052 -0.0115207 0)
(1.52177 -0.0112613 0)
(1.52299 -0.0109782 0)
(1.52418 -0.0106713 0)
(1.52534 -0.0103407 0)
(1.52645 -0.00998624 0)
(1.52753 -0.0096079 0)
(1.52856 -0.00920512 0)
(1.52954 -0.00877778 0)
(1.53048 -0.0083249 0)
(1.53138 -0.00784603 0)
(1.53222 -0.00733954 0)
(1.533 -0.0068047 0)
(1.53374 -0.00623897 0)
(1.53441 -0.00564118 0)
(1.53503 -0.00500778 0)
(1.53559 -0.00433697 0)
(1.53608 -0.00362375 0)
(1.53651 -0.00286372 0)
(1.53688 -0.0020521 0)
(1.53717 -0.00118278 0)
(1.53739 -0.000248854 0)
(1.53753 0.000757511 0)
(1.53758 0.00184528 0)
(1.53756 0.00302472 0)
(1.53744 0.00430761 0)
(1.53722 0.00570737 0)
(1.53691 0.00723931 0)
(1.53648 0.00892087 0)
(1.53594 0.010772 0)
(1.53527 0.0128155 0)
(1.53448 0.0150773 0)
(1.53354 0.0175872 0)
(1.53244 0.0203794 0)
(1.53119 0.0234929 0)
(1.52977 0.0269728 0)
(1.52816 0.0308707 0)
(1.52636 0.0352464 0)
(1.52436 0.0401689 0)
(1.52215 0.0457177 0)
(1.51973 0.0519854 0)
(1.51708 0.0590792 0)
(1.51423 0.0671238 0)
(1.51117 0.0762641 0)
(1.50793 0.0866689 0)
(1.50455 0.0985348 0)
(1.5011 0.112091 0)
(1.49767 0.127602 0)
(1.49441 0.145375 0)
(1.4915 0.165765 0)
(1.48924 0.189171 0)
(1.48804 0.216044 0)
(1.48844 0.246873 0)
(1.49123 0.282159 0)
(1.49746 0.32238 0)
(1.50855 0.367885 0)
(1.52628 0.418734 0)
(1.55328 0.474688 0)
(1.59146 0.533529 0)
(1.64679 0.596236 0)
(1.71838 0.649653 0)
(1.80871 0.701879 0)
(1.47763 -0.00053173 0)
(1.47774 -0.00159126 0)
(1.478 -0.00263443 0)
(1.47839 -0.00364797 0)
(1.47891 -0.00462156 0)
(1.47954 -0.005548 0)
(1.48026 -0.00642261 0)
(1.48108 -0.00724268 0)
(1.48197 -0.00800709 0)
(1.48294 -0.00871595 0)
(1.48396 -0.00937036 0)
(1.48505 -0.00997213 0)
(1.48618 -0.0105235 0)
(1.48735 -0.0110269 0)
(1.48857 -0.011485 0)
(1.48982 -0.0119002 0)
(1.4911 -0.012275 0)
(1.49241 -0.0126116 0)
(1.49374 -0.012912 0)
(1.4951 -0.0131781 0)
(1.49647 -0.0134115 0)
(1.49786 -0.0136136 0)
(1.49926 -0.0137857 0)
(1.50068 -0.0139285 0)
(1.50211 -0.014043 0)
(1.50354 -0.0141296 0)
(1.50498 -0.0141889 0)
(1.50643 -0.0142211 0)
(1.50787 -0.0142263 0)
(1.50932 -0.0142047 0)
(1.51076 -0.0141561 0)
(1.51219 -0.0140807 0)
(1.51362 -0.0139784 0)
(1.51503 -0.0138492 0)
(1.51643 -0.0136932 0)
(1.51781 -0.0135103 0)
(1.51917 -0.0133007 0)
(1.5205 -0.0130644 0)
(1.52181 -0.0128015 0)
(1.52309 -0.0125121 0)
(1.52434 -0.0121965 0)
(1.52556 -0.0118546 0)
(1.52674 -0.0114866 0)
(1.52788 -0.0110926 0)
(1.52898 -0.0106723 0)
(1.53004 -0.0102259 0)
(1.53105 -0.00975266 0)
(1.53202 -0.00925233 0)
(1.53294 -0.00872402 0)
(1.53381 -0.00816671 0)
(1.53462 -0.00757903 0)
(1.53539 -0.0069592 0)
(1.5361 -0.00630535 0)
(1.53676 -0.00561432 0)
(1.53736 -0.00488404 0)
(1.5379 -0.00410874 0)
(1.53838 -0.00328486 0)
(1.5388 -0.00240694 0)
(1.53915 -0.00146867 0)
(1.53944 -0.000462933 0)
(1.53966 0.000618427 0)
(1.5398 0.00178475 0)
(1.53988 0.00304669 0)
(1.53987 0.00441641 0)
(1.53978 0.00590776 0)
(1.53961 0.0075365 0)
(1.53935 0.00932054 0)
(1.53899 0.0112803 0)
(1.53853 0.0134389 0)
(1.53797 0.0158228 0)
(1.5373 0.018462 0)
(1.53652 0.0213909 0)
(1.53561 0.0246485 0)
(1.53458 0.0282796 0)
(1.53343 0.0323352 0)
(1.53214 0.036874 0)
(1.53073 0.0419629 0)
(1.52919 0.0476789 0)
(1.52754 0.0541103 0)
(1.52577 0.0613585 0)
(1.52393 0.0695399 0)
(1.52203 0.0787879 0)
(1.52013 0.0892556 0)
(1.51828 0.101118 0)
(1.5166 0.114574 0)
(1.51519 0.129848 0)
(1.51425 0.147195 0)
(1.51399 0.166893 0)
(1.51475 0.189245 0)
(1.51694 0.214569 0)
(1.52113 0.243178 0)
(1.52804 0.275354 0)
(1.53862 0.311287 0)
(1.55407 0.351015 0)
(1.5758 0.394235 0)
(1.60571 0.440379 0)
(1.64536 0.487556 0)
(1.69712 0.534491 0)
(1.76227 0.575225 0)
(1.83792 0.606404 0)
(1.47763 -0.000602736 0)
(1.47775 -0.00180294 0)
(1.47804 -0.00298216 0)
(1.47847 -0.00412385 0)
(1.47904 -0.00521545 0)
(1.47972 -0.00624879 0)
(1.48051 -0.00721911 0)
(1.48138 -0.00812423 0)
(1.48234 -0.00896385 0)
(1.48336 -0.009739 0)
(1.48444 -0.0104518 0)
(1.48558 -0.0111049 0)
(1.48677 -0.0117015 0)
(1.48799 -0.0122451 0)
(1.48926 -0.0127387 0)
(1.49055 -0.0131855 0)
(1.49187 -0.0135883 0)
(1.49322 -0.0139499 0)
(1.49459 -0.0142726 0)
(1.49598 -0.0145584 0)
(1.49739 -0.0148093 0)
(1.49881 -0.0150266 0)
(1.50025 -0.0152117 0)
(1.50169 -0.0153656 0)
(1.50315 -0.015489 0)
(1.50462 -0.0155825 0)
(1.50609 -0.0156464 0)
(1.50756 -0.0156809 0)
(1.50904 -0.0156861 0)
(1.51051 -0.0156619 0)
(1.51198 -0.0156083 0)
(1.51345 -0.015525 0)
(1.5149 -0.0154122 0)
(1.51635 -0.0152696 0)
(1.51778 -0.0150974 0)
(1.51919 -0.0148955 0)
(1.52058 -0.0146639 0)
(1.52194 -0.0144029 0)
(1.52328 -0.0141126 0)
(1.52459 -0.0137932 0)
(1.52587 -0.0134448 0)
(1.52712 -0.0130678 0)
(1.52833 -0.0126623 0)
(1.5295 -0.0122287 0)
(1.53062 -0.0117668 0)
(1.53171 -0.0112768 0)
(1.53275 -0.0107583 0)
(1.53375 -0.0102112 0)
(1.5347 -0.00963445 0)
(1.5356 -0.00902764 0)
(1.53645 -0.00838886 0)
(1.53725 -0.00771716 0)
(1.538 -0.00700966 0)
(1.53869 -0.00626468 0)
(1.53933 -0.00547803 0)
(1.53992 -0.00464568 0)
(1.54045 -0.00376333 0)
(1.54093 -0.00282536 0)
(1.54135 -0.00182538 0)
(1.54171 -0.000756111 0)
(1.54201 0.000390781 0)
(1.54225 0.00162486 0)
(1.54242 0.00295703 0)
(1.54253 0.00439966 0)
(1.54258 0.00596678 0)
(1.54255 0.00767435 0)
(1.54246 0.00954043 0)
(1.54229 0.0115855 0)
(1.54205 0.0138328 0)
(1.54173 0.0163087 0)
(1.54133 0.0190429 0)
(1.54086 0.0220694 0)
(1.5403 0.0254264 0)
(1.53967 0.0291576 0)
(1.53897 0.0333124 0)
(1.5382 0.0379471 0)
(1.53737 0.0431256 0)
(1.53649 0.0489204 0)
(1.53559 0.0554141 0)
(1.53469 0.0627002 0)
(1.53382 0.0708847 0)
(1.53303 0.0800873 0)
(1.53239 0.0904427 0)
(1.53199 0.102102 0)
(1.53193 0.115232 0)
(1.53237 0.130018 0)
(1.5335 0.146659 0)
(1.53557 0.165366 0)
(1.5389 0.186353 0)
(1.54392 0.209824 0)
(1.55113 0.235956 0)
(1.5612 0.264862 0)
(1.57492 0.296542 0)
(1.59326 0.330828 0)
(1.6173 0.367249 0)
(1.64828 0.405018 0)
(1.68733 0.442607 0)
(1.7353 0.478159 0)
(1.79278 0.508446 0)
(1.85849 0.53062 0)
(1.47763 -0.000681813 0)
(1.47777 -0.00203826 0)
(1.47809 -0.00336755 0)
(1.47858 -0.00464834 0)
(1.47921 -0.00586669 0)
(1.47995 -0.00701139 0)
(1.48081 -0.00807997 0)
(1.48175 -0.00907089 0)
(1.48278 -0.00998497 0)
(1.48387 -0.0108246 0)
(1.48502 -0.0115931 0)
(1.48622 -0.0122946 0)
(1.48747 -0.0129335 0)
(1.48875 -0.0135139 0)
(1.49006 -0.01404 0)
(1.4914 -0.0145155 0)
(1.49277 -0.0149439 0)
(1.49416 -0.0153283 0)
(1.49557 -0.0156713 0)
(1.497 -0.0159752 0)
(1.49844 -0.016242 0)
(1.4999 -0.0164734 0)
(1.50137 -0.0166706 0)
(1.50285 -0.0168348 0)
(1.50434 -0.0169665 0)
(1.50584 -0.0170663 0)
(1.50735 -0.0171345 0)
(1.50885 -0.0171712 0)
(1.51036 -0.0171761 0)
(1.51187 -0.0171493 0)
(1.51337 -0.0170903 0)
(1.51487 -0.016999 0)
(1.51636 -0.0168754 0)
(1.51784 -0.0167192 0)
(1.5193 -0.0165304 0)
(1.52074 -0.016309 0)
(1.52217 -0.0160552 0)
(1.52357 -0.0157691 0)
(1.52494 -0.0154508 0)
(1.52628 -0.0151007 0)
(1.52759 -0.0147192 0)
(1.52887 -0.0143066 0)
(1.53011 -0.0138633 0)
(1.53131 -0.0133896 0)
(1.53247 -0.0128859 0)
(1.53359 -0.0123522 0)
(1.53466 -0.0117888 0)
(1.53569 -0.0111953 0)
(1.53667 -0.0105713 0)
(1.5376 -0.00991594 0)
(1.53848 -0.00922794 0)
(1.53932 -0.00850622 0)
(1.54011 -0.00774791 0)
(1.54084 -0.00695192 0)
(1.54153 -0.00611301 0)
(1.54216 -0.00522819 0)
(1.54275 -0.00429278 0)
(1.54329 -0.00330111 0)
(1.54377 -0.00224675 0)
(1.54421 -0.00112233 0)
(1.54459 8.05873e-05 0)
(1.54492 0.00137157 0)
(1.5452 0.00276155 0)
(1.54543 0.00426296 0)
(1.54561 0.00588985 0)
(1.54573 0.00765812 0)
(1.54581 0.00958572 0)
(1.54583 0.0116929 0)
(1.5458 0.0140026 0)
(1.54573 0.0165405 0)
(1.5456 0.0193359 0)
(1.54544 0.0224214 0)
(1.54523 0.0258342 0)
(1.545 0.0296159 0)
(1.54474 0.0338135 0)
(1.54448 0.0384801 0)
(1.54421 0.0436753 0)
(1.54398 0.0494663 0)
(1.54381 0.0559285 0)
(1.54372 0.0631464 0)
(1.54378 0.0712141 0)
(1.54404 0.0802365 0)
(1.54457 0.0903289 0)
(1.54549 0.101618 0)
(1.5469 0.11424 0)
(1.54899 0.128339 0)
(1.55193 0.144068 0)
(1.55599 0.161574 0)
(1.56148 0.180998 0)
(1.56878 0.202456 0)
(1.57835 0.226019 0)
(1.59076 0.251682 0)
(1.60666 0.279329 0)
(1.62679 0.308674 0)
(1.65194 0.339191 0)
(1.68291 0.370064 0)
(1.72039 0.40006 0)
(1.76476 0.427612 0)
(1.81598 0.450661 0)
(1.87329 0.467227 0)
(1.47764 -0.00077139 0)
(1.47779 -0.00230389 0)
(1.47815 -0.00380052 0)
(1.47871 -0.00523582 0)
(1.47941 -0.00658896 0)
(1.48025 -0.00785045 0)
(1.48119 -0.0090184 0)
(1.48222 -0.0100943 0)
(1.48332 -0.0110806 0)
(1.4845 -0.0119813 0)
(1.48572 -0.0128016 0)
(1.48699 -0.0135472 0)
(1.4883 -0.0142241 0)
(1.48964 -0.0148375 0)
(1.49101 -0.0153925 0)
(1.4924 -0.0158934 0)
(1.49381 -0.0163444 0)
(1.49525 -0.0167489 0)
(1.4967 -0.0171101 0)
(1.49817 -0.0174304 0)
(1.49965 -0.017712 0)
(1.50115 -0.0179567 0)
(1.50266 -0.0181656 0)
(1.50418 -0.0183399 0)
(1.5057 -0.0184802 0)
(1.50724 -0.0185869 0)
(1.50878 -0.01866 0)
(1.51032 -0.0186996 0)
(1.51186 -0.0187052 0)
(1.51341 -0.0186765 0)
(1.51495 -0.0186131 0)
(1.51648 -0.0185145 0)
(1.51801 -0.0183806 0)
(1.51952 -0.0182112 0)
(1.52102 -0.0180062 0)
(1.5225 -0.0177656 0)
(1.52396 -0.0174894 0)
(1.5254 -0.017178 0)
(1.52681 -0.0168316 0)
(1.52819 -0.0164505 0)
(1.52954 -0.0160354 0)
(1.53085 -0.0155867 0)
(1.53212 -0.0151051 0)
(1.53336 -0.0145909 0)
(1.53455 -0.014045 0)
(1.5357 -0.0134675 0)
(1.5368 -0.0128592 0)
(1.53786 -0.0122196 0)
(1.53887 -0.0115489 0)
(1.53984 -0.0108459 0)
(1.54076 -0.0101102 0)
(1.54163 -0.00934018 0)
(1.54245 -0.00853396 0)
(1.54323 -0.00768942 0)
(1.54396 -0.00680248 0)
(1.54465 -0.00586986 0)
(1.54529 -0.00488686 0)
(1.54588 -0.00384787 0)
(1.54643 -0.00274646 0)
(1.54694 -0.00157532 0)
(1.54741 -0.000326066 0)
(1.54784 0.00101082 0)
(1.54822 0.00244619 0)
(1.54857 0.00399235 0)
(1.54888 0.00566316 0)
(1.54915 0.00747424 0)
(1.5494 0.00944317 0)
(1.54961 0.0115897 0)
(1.54979 0.0139361 0)
(1.54996 0.0165073 0)
(1.55011 0.0193313 0)
(1.55025 0.0224393 0)
(1.55038 0.0258665 0)
(1.55053 0.0296522 0)
(1.55071 0.0338402 0)
(1.55093 0.0384796 0)
(1.55121 0.043625 0)
(1.5516 0.0493375 0)
(1.55211 0.0556845 0)
(1.5528 0.0627407 0)
(1.55372 0.0705881 0)
(1.55494 0.0793158 0)
(1.55654 0.0890202 0)
(1.55865 0.0998039 0)
(1.56138 0.111774 0)
(1.56489 0.125041 0)
(1.5694 0.139711 0)
(1.57513 0.155884 0)
(1.58238 0.173639 0)
(1.59148 0.193026 0)
(1.60286 0.21404 0)
(1.61696 0.236605 0)
(1.6343 0.260535 0)
(1.65544 0.285501 0)
(1.68095 0.310986 0)
(1.71132 0.336251 0)
(1.74694 0.3603 0)
(1.78794 0.381908 0)
(1.83407 0.399617 0)
(1.88454 0.411955 0)
(1.47764 -0.000874263 0)
(1.47782 -0.00260966 0)
(1.47824 -0.00429703 0)
(1.47888 -0.0059017 0)
(1.47969 -0.00739905 0)
(1.48062 -0.00878068 0)
(1.48166 -0.0100485 0)
(1.48279 -0.0112074 0)
(1.484 -0.0122621 0)
(1.48526 -0.0132192 0)
(1.48657 -0.014086 0)
(1.48791 -0.0148707 0)
(1.48929 -0.0155804 0)
(1.49069 -0.016222 0)
(1.49212 -0.0168013 0)
(1.49357 -0.0173237 0)
(1.49504 -0.0177936 0)
(1.49652 -0.0182151 0)
(1.49802 -0.0185913 0)
(1.49953 -0.0189252 0)
(1.50105 -0.019219 0)
(1.50259 -0.0194746 0)
(1.50413 -0.0196933 0)
(1.50569 -0.019876 0)
(1.50725 -0.0200234 0)
(1.50883 -0.0201357 0)
(1.5104 -0.0202129 0)
(1.51198 -0.0202546 0)
(1.51357 -0.0202605 0)
(1.51515 -0.0202296 0)
(1.51673 -0.0201613 0)
(1.51831 -0.0200551 0)
(1.51987 -0.0199107 0)
(1.52143 -0.0197278 0)
(1.52297 -0.0195063 0)
(1.52449 -0.019246 0)
(1.52599 -0.0189472 0)
(1.52747 -0.01861 0)
(1.52892 -0.0182349 0)
(1.53034 -0.0178223 0)
(1.53172 -0.0173731 0)
(1.53307 -0.0168877 0)
(1.53438 -0.0163672 0)
(1.53565 -0.0158121 0)
(1.53688 -0.0152237 0)
(1.53806 -0.0146023 0)
(1.5392 -0.0139492 0)
(1.54029 -0.0132639 0)
(1.54134 -0.0125471 0)
(1.54234 -0.0117976 0)
(1.54329 -0.0110156 0)
(1.5442 -0.0101991 0)
(1.54507 -0.0093473 0)
(1.54589 -0.00845748 0)
(1.54666 -0.00752639 0)
(1.54739 -0.00655074 0)
(1.54809 -0.00552583 0)
(1.54874 -0.00444603 0)
(1.54936 -0.00330494 0)
(1.54994 -0.0020954 0)
(1.55049 -0.000809289 0)
(1.55101 0.000562766 0)
(1.5515 0.00203135 0)
(1.55197 0.00360843 0)
(1.55241 0.00530751 0)
(1.55283 0.00714374 0)
(1.55324 0.00913412 0)
(1.55364 0.0112977 0)
(1.55403 0.0136557 0)
(1.55443 0.0162319 0)
(1.55484 0.0190527 0)
(1.55527 0.0221479 0)
(1.55574 0.02555 0)
(1.55626 0.0292954 0)
(1.55685 0.0334245 0)
(1.55753 0.0379818 0)
(1.55833 0.0430166 0)
(1.55929 0.048583 0)
(1.56045 0.0547405 0)
(1.56185 0.0615536 0)
(1.56356 0.0690919 0)
(1.56565 0.0774296 0)
(1.56822 0.0866449 0)
(1.57138 0.0968181 0)
(1.57525 0.10803 0)
(1.58 0.120361 0)
(1.58581 0.13388 0)
(1.59292 0.148647 0)
(1.60158 0.164696 0)
(1.61209 0.182028 0)
(1.62479 0.20059 0)
(1.64006 0.220264 0)
(1.6583 0.240834 0)
(1.67992 0.261968 0)
(1.7053 0.283191 0)
(1.73475 0.303866 0)
(1.76847 0.323188 0)
(1.80643 0.340208 0)
(1.84829 0.353871 0)
(1.89337 0.363151 0)
(1.47765 -0.000995308 0)
(1.47786 -0.00296904 0)
(1.47836 -0.00487585 0)
(1.47911 -0.00666882 0)
(1.48004 -0.00831946 0)
(1.48111 -0.00982346 0)
(1.48227 -0.0111892 0)
(1.48352 -0.0124258 0)
(1.48483 -0.013542 0)
(1.4862 -0.0145473 0)
(1.4876 -0.0154528 0)
(1.48903 -0.0162688 0)
(1.49048 -0.0170049 0)
(1.49195 -0.0176692 0)
(1.49345 -0.0182687 0)
(1.49495 -0.0188092 0)
(1.49647 -0.0192959 0)
(1.49801 -0.0197328 0)
(1.49955 -0.0201237 0)
(1.50111 -0.0204714 0)
(1.50268 -0.0207781 0)
(1.50425 -0.0210458 0)
(1.50584 -0.0212757 0)
(1.50744 -0.0214686 0)
(1.50904 -0.0216251 0)
(1.51065 -0.021745 0)
(1.51227 -0.0218283 0)
(1.51389 -0.0218742 0)
(1.51552 -0.0218819 0)
(1.51715 -0.0218503 0)
(1.51877 -0.0217782 0)
(1.52039 -0.0216652 0)
(1.522 -0.0215107 0)
(1.5236 -0.0213144 0)
(1.52519 -0.0210761 0)
(1.52675 -0.0207958 0)
(1.5283 -0.0204737 0)
(1.52982 -0.0201099 0)
(1.53131 -0.019705 0)
(1.53277 -0.0192597 0)
(1.5342 -0.0187748 0)
(1.53559 -0.0182512 0)
(1.53694 -0.0176901 0)
(1.53825 -0.0170926 0)
(1.53951 -0.01646 0)
(1.54073 -0.0157934 0)
(1.54191 -0.0150945 0)
(1.54304 -0.0143633 0)
(1.54412 -0.0136004 0)
(1.54515 -0.0128049 0)
(1.54614 -0.0119772 0)
(1.54709 -0.0111156 0)
(1.54799 -0.0102197 0)
(1.54885 -0.00928705 0)
(1.54967 -0.00831496 0)
(1.55045 -0.00730041 0)
(1.55119 -0.00623879 0)
(1.55191 -0.00512437 0)
(1.55259 -0.0039508 0)
(1.55325 -0.0027111 0)
(1.55388 -0.00139738 0)
(1.55449 -5.95926e-07 0)
(1.55508 0.00148947 0)
(1.55565 0.00308435 0)
(1.55622 0.00479702 0)
(1.55679 0.006642 0)
(1.55736 0.00863556 0)
(1.55793 0.0107958 0)
(1.55853 0.0131427 0)
(1.55915 0.0156987 0)
(1.55982 0.0184883 0)
(1.56053 0.0215391 0)
(1.56131 0.024881 0)
(1.56218 0.0285472 0)
(1.56316 0.032574 0)
(1.56428 0.0370012 0)
(1.56556 0.0418723 0)
(1.56705 0.0472346 0)
(1.56879 0.0531393 0)
(1.57084 0.0596409 0)
(1.57327 0.0667975 0)
(1.57614 0.0746691 0)
(1.57956 0.0833165 0)
(1.58363 0.0927997 0)
(1.58848 0.103177 0)
(1.59427 0.114501 0)
(1.60117 0.126816 0)
(1.60939 0.140146 0)
(1.61915 0.154496 0)
(1.63073 0.169831 0)
(1.64439 0.186073 0)
(1.66043 0.203081 0)
(1.67917 0.220636 0)
(1.7009 0.238425 0)
(1.72587 0.256025 0)
(1.75426 0.272905 0)
(1.78614 0.28842 0)
(1.82141 0.301846 0)
(1.85972 0.31242 0)
(1.90051 0.319431 0)
(1.47766 -0.00114167 0)
(1.47792 -0.00340297 0)
(1.47853 -0.00556631 0)
(1.47943 -0.00756691 0)
(1.48052 -0.00937637 0)
(1.48174 -0.0110017 0)
(1.48306 -0.0124611 0)
(1.48444 -0.0137692 0)
(1.48588 -0.0149383 0)
(1.48736 -0.0159822 0)
(1.48886 -0.0169159 0)
(1.49039 -0.0177532 0)
(1.49192 -0.0185055 0)
(1.49347 -0.0191826 0)
(1.49503 -0.0197924 0)
(1.49659 -0.0203418 0)
(1.49817 -0.0208362 0)
(1.49975 -0.0212805 0)
(1.50135 -0.0216785 0)
(1.50295 -0.0220332 0)
(1.50456 -0.022347 0)
(1.50618 -0.0226216 0)
(1.50781 -0.0228585 0)
(1.50945 -0.0230584 0)
(1.5111 -0.0232214 0)
(1.51275 -0.0233475 0)
(1.51441 -0.0234364 0)
(1.51608 -0.0234869 0)
(1.51775 -0.0234975 0)
(1.51942 -0.0234663 0)
(1.5211 -0.0233918 0)
(1.52277 -0.0232731 0)
(1.52443 -0.0231097 0)
(1.52608 -0.0229013 0)
(1.52771 -0.0226473 0)
(1.52933 -0.022348 0)
(1.53092 -0.0220033 0)
(1.53249 -0.0216136 0)
(1.53404 -0.0211794 0)
(1.53554 -0.0207017 0)
(1.53702 -0.0201815 0)
(1.53845 -0.01962 0)
(1.53985 -0.0190183 0)
(1.5412 -0.0183778 0)
(1.5425 -0.0177005 0)
(1.54376 -0.0169881 0)
(1.54497 -0.016243 0)
(1.54613 -0.0154657 0)
(1.54725 -0.0146571 0)
(1.54832 -0.0138165 0)
(1.54935 -0.0129444 0)
(1.55033 -0.0120398 0)
(1.55127 -0.0111022 0)
(1.55217 -0.0101302 0)
(1.55303 -0.00912137 0)
(1.55386 -0.00807277 0)
(1.55466 -0.00697953 0)
(1.55543 -0.00583611 0)
(1.55618 -0.00463677 0)
(1.5569 -0.00337497 0)
(1.55761 -0.00204304 0)
(1.55831 -0.000632217 0)
(1.559 0.000867252 0)
(1.55968 0.0024663 0)
(1.56037 0.00417725 0)
(1.56108 0.00601385 0)
(1.5618 0.00799139 0)
(1.56255 0.0101268 0)
(1.56334 0.0124389 0)
(1.56417 0.0149486 0)
(1.56507 0.0176788 0)
(1.56605 0.0206545 0)
(1.56713 0.0239028 0)
(1.56832 0.0274533 0)
(1.56966 0.0313382 0)
(1.57118 0.0355923 0)
(1.5729 0.0402533 0)
(1.57487 0.0453617 0)
(1.57715 0.0509604 0)
(1.57978 0.057095 0)
(1.58284 0.0638125 0)
(1.58639 0.0711604 0)
(1.59054 0.0791845 0)
(1.59539 0.0879266 0)
(1.60107 0.0974241 0)
(1.60771 0.107709 0)
(1.61549 0.118801 0)
(1.62458 0.130703 0)
(1.63519 0.143396 0)
(1.64753 0.156827 0)
(1.66184 0.170904 0)
(1.67836 0.185483 0)
(1.69731 0.200353 0)
(1.7189 0.215231 0)
(1.74329 0.229753 0)
(1.77058 0.243478 0)
(1.80076 0.255902 0)
(1.83368 0.266475 0)
(1.86905 0.274639 0)
(1.90635 0.279889 0)
(1.47767 -0.00132444 0)
(1.47801 -0.00394442 0)
(1.47878 -0.00641337 0)
(1.47988 -0.00864041 0)
(1.48119 -0.0106059 0)
(1.4826 -0.0123408 0)
(1.48409 -0.0138797 0)
(1.48564 -0.0152448 0)
(1.48722 -0.0164536 0)
(1.48883 -0.0175257 0)
(1.49044 -0.0184805 0)
(1.49207 -0.0193352 0)
(1.49369 -0.0201033 0)
(1.49531 -0.0207951 0)
(1.49694 -0.0214189 0)
(1.49858 -0.0219814 0)
(1.50021 -0.0224885 0)
(1.50185 -0.0229451 0)
(1.5035 -0.0233551 0)
(1.50515 -0.0237214 0)
(1.50681 -0.0240462 0)
(1.50848 -0.0243315 0)
(1.51015 -0.0245782 0)
(1.51183 -0.0247868 0)
(1.51352 -0.0249573 0)
(1.51522 -0.0250898 0)
(1.51693 -0.0251838 0)
(1.51865 -0.0252383 0)
(1.52037 -0.0252508 0)
(1.52209 -0.0252187 0)
(1.52382 -0.0251401 0)
(1.52554 -0.025014 0)
(1.52726 -0.0248395 0)
(1.52896 -0.0246164 0)
(1.53066 -0.0243441 0)
(1.53233 -0.024023 0)
(1.53398 -0.0236527 0)
(1.5356 -0.0232338 0)
(1.5372 -0.0227663 0)
(1.53876 -0.0222525 0)
(1.54029 -0.0216932 0)
(1.54177 -0.0210906 0)
(1.54321 -0.0204449 0)
(1.54461 -0.0197591 0)
(1.54596 -0.0190343 0)
(1.54726 -0.0182746 0)
(1.54851 -0.0174815 0)
(1.54971 -0.0166569 0)
(1.55087 -0.0157999 0)
(1.55198 -0.0149126 0)
(1.55305 -0.0139939 0)
(1.55407 -0.0130455 0)
(1.55504 -0.0120646 0)
(1.55598 -0.011054 0)
(1.55688 -0.0100122 0)
(1.55776 -0.00893553 0)
(1.5586 -0.00781651 0)
(1.55943 -0.00664913 0)
(1.56024 -0.00542893 0)
(1.56103 -0.00415055 0)
(1.56181 -0.00280692 0)
(1.56259 -0.00138955 0)
(1.56337 0.000110574 0)
(1.56416 0.0017039 0)
(1.56497 0.00340207 0)
(1.5658 0.00521811 0)
(1.56667 0.00716636 0)
(1.56758 0.00926167 0)
(1.56854 0.0115209 0)
(1.56958 0.0139637 0)
(1.5707 0.0166112 0)
(1.57193 0.019486 0)
(1.57327 0.0226122 0)
(1.57477 0.0260156 0)
(1.57644 0.0297241 0)
(1.57831 0.0337676 0)
(1.58043 0.0381778 0)
(1.58283 0.0429884 0)
(1.58558 0.048235 0)
(1.58872 0.0539545 0)
(1.59233 0.0601838 0)
(1.59648 0.0669589 0)
(1.60125 0.0743106 0)
(1.60675 0.0822658 0)