/*--------------------------------*- C++ -*----------------------------------*\
| =========                 |                                                 |
| \\      /  F ield         | OpenFOAM: The Open Source CFD Toolbox           |
|  \\    /   O peration     | Version:  2206                                  |
|   \\  /    A nd           | Website:  www.openfoam.com                      |
|    \\/     M anipulation  |                                                 |
\*---------------------------------------------------------------------------*/
FoamFile
{
    version     2.0;
    format      ascii;
    arch        "LSB;label=32;scalar=64";
    class       volScalarField;
    location    "18.6999";
    object      p;
}
// * * * * * * * * * * * * * * * * * * * * * * * * * * * * * * * * * * * * * //

dimensions      [0 2 -2 0 0 0 0];

internalField   nonuniform List<scalar> 
3025
(
0.90556
0.905454
0.905181
0.904749
0.904182
0.90349
0.902676
0.901742
0.900698
0.899549
0.898305
0.896973
0.895558
0.894068
0.892508
0.890886
0.889207
0.887476
0.885699
0.88388
0.882024
0.880135
0.878219
0.876279
0.874319
0.872344
0.870357
0.868363
0.866365
0.864369
0.862378
0.860395
0.858425
0.856472
0.85454
0.852634
0.850756
0.848912
0.847106
0.845342
0.843623
0.841955
0.840341
0.838786
0.837293
0.835867
0.834512
0.833233
0.832034
0.830919
0.829894
0.828963
0.828131
0.827405
0.82679
0.826293
0.825921
0.825685
0.825596
0.825663
0.825895
0.826306
0.826909
0.82772
0.828758
0.830041
0.831594
0.83344
0.835607
0.838128
0.841037
0.844373
0.848182
0.852512
0.857418
0.862961
0.86921
0.876239
0.884132
0.892978
0.902875
0.913926
0.926241
0.939929
0.955095
0.97183
0.990194
1.0102
1.03176
1.05465
1.07839
1.10211
1.12431
1.14228
1.15177
1.14313
1.10432
0.975405
0.72358
-0.260451
0.906374
0.906263
0.905977
0.905525
0.904933
0.904211
0.903364
0.902395
0.901313
0.900126
0.898844
0.897473
0.89602
0.894494
0.892899
0.891243
0.889531
0.887769
0.885961
0.884114
0.88223
0.880315
0.878373
0.876407
0.874423
0.872424
0.870414
0.868397
0.866377
0.864358
0.862344
0.860339
0.858347
0.856373
0.854419
0.852491
0.850593
0.848728
0.846901
0.845116
0.843377
0.841688
0.840054
0.838478
0.836965
0.835518
0.834142
0.832841
0.831618
0.830479
0.829427
0.828468
0.827606
0.826845
0.826192
0.825654
0.825236
0.824949
0.824801
0.8248
0.824955
0.825278
0.825781
0.826478
0.827386
0.82852
0.829902
0.831552
0.833494
0.835757
0.838368
0.841362
0.844775
0.848647
0.853023
0.857951
0.863482
0.869674
0.876586
0.88428
0.892819
0.902264
0.912672
0.924086
0.936528
0.949986
0.964391
0.979585
0.995272
1.01094
1.02576
1.03836
1.04658
1.04669
1.03304
0.993733
0.91382
0.746982
0.467777
-0.010599
0.907338
0.907221
0.906919
0.906442
0.905818
0.90506
0.904171
0.903158
0.902031
0.900798
0.899469
0.898052
0.896556
0.894986
0.893349
0.891653
0.889903
0.888104
0.886262
0.88438
0.882465
0.880518
0.878546
0.876552
0.874539
0.872512
0.870474
0.86843
0.866383
0.864338
0.862298
0.860267
0.858249
0.856248
0.854269
0.852316
0.850392
0.848502
0.84665
0.84484
0.843077
0.841364
0.839706
0.838106
0.836568
0.835096
0.833695
0.832367
0.831117
0.829949
0.828866
0.827874
0.826975
0.826175
0.825479
0.824892
0.82442
0.824073
0.823857
0.823778
0.823844
0.824067
0.824455
0.825022
0.825781
0.826745
0.827933
0.829361
0.831049
0.83302
0.835297
0.837907
0.840878
0.844241
0.848028
0.852275
0.857018
0.862292
0.868136
0.874581
0.881658
0.889385
0.897768
0.906787
0.91639
0.926469
0.93684
0.947203
0.957087
0.965773
0.972169
0.974615
0.970623
0.956314
0.926038
0.87053
0.778335
0.632009
0.416105
0.164907
0.90846
0.908335
0.908013
0.907506
0.906842
0.906039
0.905101
0.904035
0.902853
0.901565
0.900181
0.898711
0.897162
0.895542
0.893858
0.892116
0.890322
0.888481
0.886599
0.884679
0.882726
0.880745
0.878738
0.876711
0.874666
0.872607
0.870538
0.868463
0.866385
0.864309
0.862239
0.860177
0.858129
0.856099
0.85409
0.852107
0.850153
0.848234
0.846354
0.844515
0.842724
0.840983
0.839296
0.837668
0.836102
0.834601
0.833171
0.831813
0.830532
0.82933
0.828213
0.827182
0.826243
0.825398
0.824653
0.824012
0.823481
0.823067
0.822773
0.822607
0.822575
0.822685
0.822946
0.823369
0.823963
0.82474
0.825714
0.826898
0.828308
0.829961
0.831874
0.834066
0.836558
0.839371
0.842526
0.846044
0.849945
0.854247
0.858963
0.8641
0.869654
0.875605
0.881913
0.888503
0.895255
0.901985
0.908414
0.914136
0.918563
0.920844
0.919767
0.913598
0.899891
0.875183
0.834773
0.772367
0.680127
0.550583
0.366135
0.136961
0.909752
0.909617
0.90927
0.908724
0.908013
0.907154
0.906156
0.905027
0.90378
0.902427
0.900979
0.899447
0.897838
0.89616
0.894421
0.892627
0.890784
0.888897
0.88697
0.885007
0.883014
0.880993
0.878949
0.876884
0.874803
0.872708
0.870604
0.868494
0.866382
0.864271
0.862166
0.860071
0.857989
0.855924
0.853881
0.851864
0.849877
0.847925
0.846011
0.84414
0.842316
0.840543
0.838824
0.837164
0.835566
0.834034
0.83257
0.831179
0.829863
0.828625
0.827469
0.826397
0.825413
0.82452
0.823721
0.82302
0.822424
0.821936
0.821558
0.821297
0.821158
0.821147
0.821271
0.821538
0.821954
0.82253
0.823274
0.824197
0.82531
0.826623
0.828148
0.829899
0.831885
0.83412
0.836612
0.839369
0.842397
0.845694
0.849253
0.853054
0.857066
0.861235
0.865478
0.869676
0.873656
0.877172
0.879882
0.881311
0.880803
0.877462
0.870063
0.856951
0.835915
0.804044
0.757602
0.692018
0.601477
0.480811
0.319415
0.123939
0.911226
0.911079
0.910701
0.910107
0.909336
0.90841
0.907339
0.906135
0.904811
0.903383
0.901861
0.900258
0.898581
0.896838
0.895038
0.893186
0.891288
0.889349
0.887373
0.885364
0.883325
0.881261
0.879175
0.87707
0.874949
0.872815
0.870672
0.868523
0.866373
0.864224
0.862081
0.859947
0.857826
0.855723
0.853642
0.851587
0.849563
0.847573
0.845622
0.843715
0.841854
0.840045
0.838291
0.836596
0.834962
0.833394
0.831895
0.830467
0.829112
0.827835
0.826637
0.825521
0.824489
0.823543
0.822687
0.821924
0.821258
0.82069
0.820223
0.819862
0.819609
0.81947
0.819448
0.819549
0.819779
0.820142
0.820645
0.821294
0.822095
0.823054
0.824177
0.825468
0.826932
0.82857
0.830382
0.832364
0.834504
0.836787
0.839184
0.841656
0.844143
0.846564
0.848804
0.850708
0.852062
0.852581
0.851884
0.84946
0.844636
0.836525
0.823968
0.805467
0.77911
0.742515
0.692763
0.626518
0.539882
0.429984
0.293568
0.13572
0.912898
0.912736
0.912319
0.911666
0.910821
0.909812
0.908654
0.90736
0.905947
0.904431
0.902825
0.90114
0.899387
0.897573
0.895705
0.893789
0.891831
0.889836
0.887806
0.885746
0.883659
0.881549
0.879417
0.877268
0.875103
0.872927
0.870742
0.868551
0.866358
0.864167
0.861981
0.859804
0.857641
0.855496
0.853372
0.851275
0.849208
0.847177
0.845185
0.843237
0.841337
0.839488
0.837694
0.83596
0.834288
0.832682
0.831143
0.829676
0.828281
0.826962
0.825719
0.824556
0.823473
0.822473
0.821557
0.820729
0.819989
0.819338
0.818778
0.818311
0.81794
0.817667
0.817495
0.817425
0.81746
0.817604
0.817858
0.818224
0.818705
0.819301
0.820012
0.820836
0.82177
0.822806
0.823934
0.825138
0.826395
0.827672
0.828928
0.8301
0.831112
0.831857
0.832196
0.831947
0.830873
0.828664
0.824921
0.819129
0.810631
0.798589
0.781953
0.759416
0.729385
0.689967
0.638987
0.574147
0.493156
0.394604
0.27788
0.145461
0.91479
0.914609
0.914142
0.913413
0.912477
0.911367
0.910103
0.908703
0.907186
0.905568
0.903866
0.902091
0.900252
0.898359
0.896417
0.894432
0.892409
0.890353
0.888266
0.886152
0.884013
0.881853
0.879673
0.877477
0.875266
0.873044
0.870813
0.868577
0.866338
0.8641
0.861868
0.859645
0.857435
0.855243
0.853072
0.850928
0.848816
0.846738
0.844701
0.842708
0.840764
0.838872
0.837036
0.835259
0.833546
0.831898
0.830318
0.828808
0.827371
0.826007
0.824719
0.823507
0.822372
0.821316
0.820339
0.819442
0.818626
0.81789
0.817235
0.816661
0.816168
0.815758
0.815431
0.815186
0.815024
0.814944
0.814945
0.815026
0.815183
0.815413
0.81571
0.816066
0.81647
0.816908
0.817359
0.817798
0.81819
0.818491
0.818642
0.81857
0.818179
0.817346
0.815916
0.813689
0.810414
0.805773
0.799367
0.790697
0.779144
0.763948
0.744182
0.718742
0.686337
0.64551
0.59469
0.53234
0.457127
0.368333
0.266067
0.152128
0.916928
0.916722
0.916191
0.915365
0.914313
0.913079
0.911688
0.910163
0.908524
0.906791
0.90498
0.903103
0.901171
0.899191
0.897169
0.89511
0.893019
0.890898
0.88875
0.886579
0.884385
0.882172
0.879942
0.877695
0.875435
0.873164
0.870884
0.868599
0.86631
0.864023
0.86174
0.859465
0.857204
0.85496
0.852739
0.850544
0.84838
0.846253
0.844166
0.842124
0.840132
0.838192
0.83631
0.834489
0.832731
0.831039
0.829416
0.827863
0.826381
0.824972
0.823636
0.822374
0.821187
0.820073
0.819034
0.818069
0.817176
0.816354
0.815602
0.81492
0.814306
0.813758
0.813275
0.812854
0.812494
0.81219
0.811938
0.811733
0.811568
0.811434
0.811322
0.811216
0.8111
0.810952
0.810744
0.810442
0.810001
0.809367
0.80847
0.807225
0.805523
0.803231
0.800182
0.79617
0.790937
0.78417
0.775481
0.764402
0.750366
0.732698
0.710603
0.683167
0.649365
0.608093
0.558232
0.498761
0.428906
0.348396
0.257704
0.158455
0.919345
0.919107
0.918491
0.917539
0.916338
0.914951
0.913409
0.911736
0.909957
0.908092
0.906159
0.904171
0.902137
0.900064
0.897956
0.895819
0.893655
0.891466
0.889256
0.887025
0.884775
0.882507
0.880223
0.877925
0.875614
0.873291
0.87096
0.868622
0.866281
0.863939
0.861601
0.859271
0.856954
0.854655
0.852377
0.850126
0.847907
0.845725
0.843584
0.841488
0.839444
0.837454
0.835522
0.833652
0.831847
0.830109
0.828441
0.826842
0.825315
0.82386
0.822476
0.821164
0.819924
0.818753
0.817653
0.816619
0.81565
0.814743
0.813895
0.813105
0.81237
0.811685
0.811048
0.810453
0.809896
0.809371
0.808869
0.808383
0.807902
0.807413
0.8069
0.806345
0.805725
0.805013
0.804172
0.803163
0.801932
0.800416
0.798538
0.796203
0.793297
0.789677
0.785173
0.779576
0.772633
0.76404
0.753431
0.740375
0.724365
0.704811
0.681043
0.652315
0.617824
0.576743
0.528284
0.471782
0.406825
0.33342
0.252163
0.164406
0.922087
0.921805
0.921075
0.919954
0.918562
0.916985
0.915261
0.913416
0.911475
0.909462
0.907395
0.905286
0.903142
0.900969
0.898772
0.896551
0.894311
0.892052
0.889776
0.887483
0.885173
0.882849
0.88051
0.878157
0.875792
0.873416
0.87103
0.868637
0.866239
0.863839
0.861442
0.859053
0.856675
0.854315
0.851976
0.849665
0.847386
0.845144
0.842944
0.840792
0.838691
0.836646
0.834662
0.832741
0.830886
0.829101
0.827386
0.825741
0.824168
0.822666
0.821235
0.819874
0.818581
0.817356
0.816195
0.815096
0.814052
0.813061
0.81212
0.811224
0.81037
0.809552
0.808764
0.808
0.807252
0.806511
0.805767
0.805008
0.804221
0.803388
0.802491
0.801505
0.800404
0.799154
0.797716
0.79604
0.79407
0.791736
0.788954
0.785624
0.781626
0.776816
0.771024
0.764044
0.755631
0.745497
0.733303
0.718658
0.701112
0.68016
0.655241
0.625752
0.591071
0.550586
0.503747
0.450138
0.389566
0.322177
0.248556
0.169802
0.925215
0.924871
0.923981
0.92263
0.920991
0.919178
0.917237
0.915191
0.913065
0.910886
0.908672
0.906434
0.904175
0.9019
0.89961
0.897306
0.89499
0.89266
0.890318
0.887963
0.885595
0.883214
0.880819
0.878411
0.875991
0.873558
0.871116
0.868664
0.866205
0.863742
0.861281
0.858826
0.856383
0.853956
0.851551
0.849174
0.846829
0.844521
0.842258
0.840043
0.837882
0.835778
0.833737
0.831761
0.829855
0.82802
0.826258
0.824568
0.822948
0.8214
0.819921
0.818512
0.817169
0.81589
0.814673
0.813511
0.812397
0.811326
0.810294
0.809297
0.808329
0.807382
0.806448
0.80552
0.804587
0.803639
0.802662
0.801643
0.800563
0.799403
0.798139
0.796746
0.795192
0.793438
0.791442
0.789149
0.786499
0.783415
0.779812
0.775585
0.770614
0.764756
0.757845
0.749682
0.740032
0.728624
0.715149
0.699257
0.680553
0.658605
0.632945
0.603093
0.568568
0.528922
0.483776
0.432876
0.37616
0.313831
0.246428
0.174854
0.928817
0.928382
0.927255
0.925582
0.923621
0.921523
0.919328
0.917049
0.914713
0.912349
0.909975
0.907597
0.905216
0.902832
0.900445
0.898053
0.895657
0.893255
0.890846
0.888428
0.885999
0.883561
0.88111
0.878647
0.876171
0.873683
0.871183
0.868672
0.86615
0.863621
0.861091
0.858567
0.856053
0.853555
0.851079
0.84863
0.846215
0.843838
0.841506
0.839224
0.836998
0.834832
0.83273
0.830697
0.828736
0.82685
0.825041
0.823305
0.821641
0.820048
0.818524
0.817069
0.815679
0.814352
0.813083
0.811862
0.81068
0.809532
0.808416
0.807324
0.806249
0.805181
0.80411
0.803027
0.80192
0.800777
0.799581
0.798316
0.79696
0.795492
0.793886
0.792112
0.790135
0.787916
0.785406
0.782549
0.779279
0.77552
0.77118
0.766157
0.760328
0.753557
0.745685
0.736525
0.725853
0.713415
0.698932
0.682089
0.662543
0.63992
0.613833
0.5839
0.549757
0.511079
0.467608
0.419188
0.365826
0.307748
0.245436
0.179636
0.933019
0.932445
0.930955
0.928814
0.926427
0.923986
0.921499
0.918959
0.916395
0.91384
0.911306
0.908793
0.906295
0.903808
0.901328
0.898852
0.89638
0.893907
0.891431
0.88895
0.886461
0.883963
0.881454
0.878931
0.876395
0.873846
0.871286
0.86871
0.866119
0.863517
0.860912
0.85831
0.855719
0.853143
0.850589
0.848062
0.845568
0.843114
0.840706
0.838353
0.836059
0.833826
0.83166
0.829567
0.82755
0.825614
0.823757
0.821974
0.820263
0.818625
0.817057
0.815558
0.814123
0.812756
0.811449
0.810178
0.808928
0.807704
0.806507
0.805327
0.804151
0.802969
0.801769
0.800541
0.799269
0.797942
0.796545
0.795053
0.793442
0.791689
0.789766
0.787642
0.78528
0.782638
0.779664
0.776301
0.772481
0.768124
0.76314
0.757425
0.750861
0.743319
0.734651
0.724675
0.713177
0.69993
0.68468
0.667149
0.647031
0.624001
0.597731
0.567917
0.534287
0.496619
0.454745
0.408563
0.358113
0.303614
0.245491
0.184363
0.938015
0.937198
0.935134
0.932335
0.929413
0.926557
0.92371
0.920849
0.918016
0.915244
0.912533
0.909874
0.907256
0.904666
0.902094
0.899538
0.896994
0.894457
0.891922
0.889387
0.886847
0.8843
0.881742
0.879169
0.876582
0.873981
0.871363
0.868722
0.866058
0.863379
0.860696
0.858014
0.85534
0.852681
0.850045
0.847437
0.844861
0.842322
0.839831
0.837398
0.835025
0.832718
0.83048
0.82832
0.826245
0.824268
0.822376
0.820549
0.818792
0.817109
0.8155
0.813956
0.812472
0.811062
0.809734
0.808437
0.807133
0.805841
0.804572
0.803311
0.802045
0.800762
0.799446
0.79809
0.796665
0.795163
0.793578
0.791879
0.790034
0.788018
0.785803
0.783359
0.780645
0.777618
0.774227
0.770411
0.766103
0.76122
0.755667
0.749339
0.742121
0.733925
0.724626
0.714017
0.701882
0.688021
0.672215
0.654214
0.633744
0.610511
0.584242
0.554701
0.521687
0.485051
0.444662
0.400446
0.35247
0.300953
0.246262
0.188911
0.944152
0.942809
0.939724
0.936007
0.932517
0.929271
0.926064
0.922877
0.919787
0.916819
0.913948
0.911153
0.908417
0.905718
0.903048
0.900405
0.897782
0.895169
0.89256
0.889955
0.88735
0.884739
0.882115
0.879477
0.876829
0.874179
0.871515
0.868802
0.866048
0.863276
0.860501
0.857728
0.854961
0.852208
0.849479
0.846784
0.844119
0.841487
0.838906
0.836384
0.833926
0.831539
0.829226
0.826983
0.824825
0.822798
0.820882
0.819026
0.817233
0.815513
0.813872
0.8123
0.810796
0.809356
0.80797
0.806612
0.805263
0.803925
0.802596
0.801264
0.799917
0.798543
0.797127
0.795656
0.794112
0.792467
0.790715
0.788826
0.786771
0.784522
0.782051
0.779326
0.776306
0.772947
0.769197
0.765
0.760285
0.754976
0.748971
0.74216
0.734369
0.725576
0.715761
0.70467
0.692071
0.677787
0.661631
0.643384
0.622772
0.599466
0.573266
0.544
0.511613
0.476093
0.43719
0.394764
0.348915
0.29988
0.247988
0.193675
0.952085
0.949672
0.94471
0.939534
0.935272
0.931517
0.927866
0.924311
0.920955
0.917791
0.914797
0.911939
0.909136
0.906358
0.90362
0.900928
0.898268
0.895626
0.892987
0.890346
0.887701
0.885048
0.882372
0.879674
0.876943
0.874243
0.871559
0.868793
0.865955
0.863091
0.860224
0.85736
0.854503
0.851659
0.84884
0.846045
0.843276
0.840546
0.837875
0.835269
0.832736
0.830274
0.827894
0.825596
0.823398
0.821311
0.819323
0.817414
0.815583
0.813837
0.812174
0.810585
0.809064
0.8076
0.806183
0.804796
0.803427
0.802059
0.800682
0.799291
0.797873
0.796421
0.794917
0.793353
0.791707
0.789923
0.788025
0.785972
0.783727
0.781269
0.778572
0.7756
0.772313
0.768665
0.764605
0.760076
0.75501
0.749329
0.742942
0.73575
0.727642
0.718534
0.708324
0.696835
0.683887
0.669315
0.652954
0.634651
0.614203
0.591055
0.565098
0.536029
0.503924
0.469299
0.431696
0.390836
0.346802
0.299828
0.250211
0.198328
0.962615
0.957935
0.95046
0.944049
0.939145
0.934754
0.930501
0.926511
0.92283
0.919375
0.916166
0.913239
0.910361
0.907475
0.904631
0.901846
0.899105
0.896393
0.893693
0.890988
0.88828
0.885569
0.882848
0.880111
0.877357
0.874593
0.871796
0.868924
0.865983
0.863014
0.860044
0.857076
0.854112
0.851159
0.848225
0.84531
0.842429
0.839606
0.836846
0.834154
0.831537
0.828994
0.82653
0.824161
0.821899
0.819746
0.817698
0.815749
0.813895
0.812133
0.810457
0.808859
0.807329
0.805854
0.804422
0.803018
0.801628
0.800237
0.798835
0.797412
0.795953
0.794441
0.792863
0.791209
0.789446
0.787592
0.78559
0.783423
0.781037
0.778413
0.775534
0.772367
0.768868
0.764993
0.760691
0.755906
0.750572
0.744617
0.737956
0.730499
0.722145
0.712788
0.702304
0.690562
0.677418
0.662709
0.646262
0.627898
0.607411
0.584501
0.558977
0.530687
0.499594
0.465767
0.429058
0.389358
0.346719
0.301313
0.253411
0.203375
0.977926
0.964456
0.951836
0.945167
0.940449
0.935784
0.931203
0.927046
0.923336
0.919944
0.916771
0.913769
0.910844
0.907959
0.905124
0.902339
0.89959
0.89686
0.894139
0.891419
0.888697
0.885967
0.88323
0.880476
0.877702
0.874897
0.872039
0.86908
0.866028
0.862955
0.859887
0.856816
0.853745
0.850682
0.847638
0.844623
0.841649
0.838729
0.835873
0.83309
0.830401
0.827793
0.825262
0.822837
0.82053
0.818341
0.816265
0.8143
0.812441
0.81068
0.809011
0.807423
0.805908
0.804448
0.803028
0.801633
0.800248
0.798858
0.797453
0.796012
0.794553
0.793031
0.79142
0.789721
0.787912
0.785973
0.783885
0.781631
0.779165
0.776449
0.773461
0.770171
0.766536
0.762512
0.758053
0.753103
0.747599
0.741471
0.734639
0.727015
0.718501
0.708987
0.698353
0.686471
0.673202
0.658392
0.641872
0.623466
0.602983
0.580226
0.555011
0.5272
0.496694
0.463453
0.427475
0.388714
0.347148
0.302869
0.256124
0.207364
1.01336
0.979498
0.957363
0.948381
0.94324
0.938058
0.93297
0.928465
0.924562
0.921033
0.917724
0.914579
0.911557
0.908614
0.905731
0.902897
0.900099
0.897325
0.894563
0.891805
0.889044
0.886277
0.8835
0.880712
0.877912
0.875105
0.872256
0.869225
0.866046
0.862884
0.859749
0.856618
0.853489
0.850372
0.847278
0.844216
0.841196
0.838232
0.835332
0.83251
0.829774
0.827132
0.82459
0.822159
0.819843
0.817645
0.815565
0.8136
0.811745
0.809993
0.808336
0.806762
0.80526
0.803815
0.802414
0.801039
0.799675
0.798304
0.79691
0.795479
0.794003
0.792481
0.790889
0.789205
0.787414
0.785492
0.783414
0.78115
0.778678
0.775966
0.772981
0.769688
0.766049
0.762021
0.757554
0.752593
0.747077
0.740937
0.734094
0.726461
0.717941
0.708426
0.697799
0.685931
0.672683
0.657902
0.641426
0.623082
0.60269
0.580067
0.555034
0.527433
0.497133
0.4641
0.428442
0.390138
0.349067
0.305292
0.259064
0.210779
-2.12002
-1.37511
-1.14687
-1.19867
-1.17232
-1.1512
-1.13917
-1.13323
-1.12609
-1.11379
-1.09388
-1.06899
-1.04142
-1.01517
-0.991124
-0.969299
-0.948834
-0.929984
-0.915333
-0.906444
-0.908138
-0.923434
-0.954147
-1.00008
-1.0571
-1.11433
-0.745528
-0.992554
-1.11766
-1.15009
-1.1236
-1.12417
-1.13774
-1.14066
-1.13632
-1.1271
-1.11036
-1.08163
-1.04647
-1.01454
-0.988904
-0.966864
-0.945607
-0.924197
-0.903478
-0.888885
-0.892014
-0.908856
-0.943456
-0.996006
-1.06285
-1.13358
-0.314628
-0.736064
-0.970093
-1.06895
-1.10949
-1.12381
-1.12631
-1.12477
-1.12546
-1.12309
-1.10626
-1.07424
-1.03796
-1.00803
-0.98646
-0.9683
-0.949292
-0.926206
-0.900622
-0.883032
-0.878372
-0.893172
-0.933411
-0.996454
-1.07798
-1.16413
-0.209551
-0.529958
-0.726625
-0.84436
-0.942599
-1.0093
-1.0492
-1.07346
-1.08797
-1.09128
-1.08326
-1.06456
-1.03813
-1.01019
-0.986115
-0.96418
-0.939394
-0.909629
-0.877487
-0.852064
-0.845239
-0.871586
-0.922554
-0.994581
-1.08251
-1.17152
-0.112378
-0.337234
-0.506729
-0.642565
-0.75862
-0.842347
-0.903763
-0.946289
-0.973547
-0.989866
-0.995802
-0.990668
-0.976458
-0.958946
-0.942059
-0.925443
-0.907974
-0.889683
-0.873013
-0.863975
-0.869418
-0.896155
-0.939978
-0.998669
-1.0682
-1.13644
-0.0406297
-0.219043
-0.37487
-0.501654
-0.609401
-0.697036
-0.768847
-0.822672
-0.859273
-0.886677
-0.904762
-0.911717
-0.910184
-0.904429
-0.896789
-0.888037
-0.878332
-0.868354
-0.860895
-0.858889
-0.866888
-0.889293
-0.925003
-0.968469
-1.01645
-1.05784
0.000712537
-0.147951
-0.284272
-0.399351
-0.498532
-0.58366
-0.653917
-0.710574
-0.755498
-0.79095
-0.817279
-0.832971
-0.841107
-0.845336
-0.846448
-0.845366
-0.842885
-0.840463
-0.839925
-0.84339
-0.853871
-0.872891
-0.899347
-0.929619
-0.960261
-0.985296
0.030096
-0.0940344
-0.211402
-0.316406
-0.409474
-0.491123
-0.560759
-0.618951
-0.667554
-0.706888
-0.737589
-0.760155
-0.776008
-0.787139
-0.795521
-0.801608
-0.805764
-0.809328
-0.813819
-0.821081
-0.832365
-0.848187
-0.867876
-0.889422
-0.910396
-0.924494
0.0535621
-0.0529406
-0.155828
-0.251185
-0.338021
-0.415864
-0.484146
-0.54294
-0.592981
-0.634976
-0.669339
-0.696985
-0.718562
-0.735547
-0.749241
-0.760192
-0.769102
-0.777068
-0.785431
-0.795165
-0.80669
-0.820337
-0.835703
-0.851288
-0.86494
-0.873822
0.0723159
-0.0213167
-0.112959
-0.199661
-0.280154
-0.353687
-0.419707
-0.478075
-0.529004
-0.572913
-0.610166
-0.641335
-0.667082
-0.688358
-0.706122
-0.7211
-0.733895
-0.745334
-0.756418
-0.767702
-0.779393
-0.791695
-0.80427
-0.816081
-0.825681
-0.831276
0.0875649
0.00389582
-0.0786801
-0.157975
-0.232795
-0.302285
-0.365834
-0.423133
-0.474175
-0.519148
-0.558308
-0.592062
-0.620917
-0.645534
-0.666648
-0.684858
-0.70072
-0.714861
-0.727973
-0.740498
-0.752537
-0.764109
-0.77497
-0.784437
-0.791512
-0.795057
0.100393
0.0245867
-0.0507089
-0.123832
-0.19373
-0.259545
-0.320637
-0.376614
-0.42733
-0.472813
-0.513209
-0.548787
-0.579906
-0.607043
-0.630726
-0.651448
-0.669666
-0.685876
-0.700546
-0.714004
-0.726355
-0.737559
-0.747417
-0.75549
-0.761138
-0.76365
0.11136
0.0417928
-0.0276551
-0.0956734
-0.161345
-0.223883
-0.282656
-0.337233
-0.387378
-0.433011
-0.474176
-0.511022
-0.543789
-0.572809
-0.598462
-0.621126
-0.641174
-0.658971
-0.674854
-0.68907
-0.701729
-0.712817
-0.722179
-0.729519
-0.734429
-0.73647
0.121039
0.0564594
-0.00827253
-0.0720927
-0.134204
-0.193905
-0.250593
-0.303816
-0.353287
-0.398848
-0.440458
-0.478172
-0.512134
-0.542559
-0.569714
-0.593879
-0.615338
-0.634366
-0.651205
-0.666042
-0.678995
-0.690089
-0.69923
-0.706211
-0.710782
-0.712687
0.129562
0.0689753
0.00803917
-0.0523646
-0.111537
-0.168844
-0.223725
-0.275712
-0.324496
-0.369856
-0.411695
-0.44999
-0.484801
-0.516265
-0.544547
-0.56985
-0.592382
-0.612319
-0.62988
-0.645231
-0.658463
-0.66963
-0.678683
-0.685488
-0.689914
-0.691836
0.137494
0.0800774
0.0221612
-0.0355148
-0.0923233
-0.147687
-0.201074
-0.252017
-0.300193
-0.34533
-0.3873
-0.425994
-0.461453
-0.493682
-0.522849
-0.549033
-0.572436
-0.593051
-0.611039
-0.626699
-0.64023
-0.65161
-0.660707
-0.667445
-0.67182
-0.673804
0.144653
0.0897147
0.0341717
-0.0213735
-0.0763316
-0.130142
-0.182334
-0.232404
-0.280071
-0.324975
-0.367002
-0.405975
-0.441852
-0.474676
-0.504435
-0.531312
-0.555385
-0.57662
-0.594918
-0.610555
-0.624089
-0.635616
-0.64477
-0.651462
-0.655821
-0.657901
0.151603
0.0985407
0.0447062
-0.00931801
-0.0629732
-0.115717
-0.167065
-0.216581
-0.263882
-0.308708
-0.350795
-0.390043
-0.426275
-0.45951
-0.489718
-0.516993
-0.54137
-0.562929
-0.581665
-0.597808
-0.611666
-0.623148
-0.632143
-0.6387
-0.642953
-0.645035
0.156998
0.105326
0.052776
-0.000115199
-0.0527984
-0.10475
-0.155486
-0.20457
-0.251617
-0.296326
-0.338476
-0.377903
-0.414451
-0.447987
-0.478558
-0.506079
-0.530603
-0.55235
-0.57141
-0.587725
-0.601452
-0.612737
-0.621548
-0.627965
-0.632069
-0.634012
0.160844
0.109617
0.0575134
0.00502871
-0.0473122
-0.0989989
-0.149553
-0.198536
-0.245562
-0.290309
-0.332499
-0.371949
-0.408582
-0.442212
-0.473013
-0.501206
-0.52634
-0.548337
-0.567416
-0.583764
-0.597425
-0.608569
-0.617302
-0.623673
-0.62775
-0.629654
0.903542
0.903447
0.903202
0.902815
0.902305
0.903552
0.903458
0.903213
0.902826
0.902315
0.90169
0.900951
0.900099
0.899141
0.898082
0.896929
0.895686
0.894361
0.892958
0.891484
0.889945
0.888345
0.88669
0.884986
0.883236
0.881448
0.879624
0.87777
0.87589
0.873988
0.872069
0.870138
0.868197
0.866253
0.864308
0.862367
0.860434
0.858513
0.856608
0.854723
0.852862
0.85103
0.84923
0.847467
0.845744
0.844067
0.842439
0.840865
0.839349
0.837895
0.836508
0.835193
0.833955
0.832799
0.831729
0.830753
0.829876
0.829104
0.828445
0.827907
0.827498
0.827227
0.827104
0.827131
0.827336
0.827736
0.828343
0.829171
0.830243
0.831582
0.833215
0.835173
0.837488
0.840201
0.843355
0.847001
0.851196
0.856006
0.861506
0.867783
0.874937
0.883081
0.89235
0.902895
0.914897
0.928563
0.944137
0.961902
0.982193
1.0054
1.03199
1.0625
1.09756
1.13791
1.18438
1.23792
1.2995
1.37006
1.45028
1.54019
1.63849
1.74145
1.8416
1.92593
1.97774
0.903691
0.903595
0.903349
0.902959
0.902445
0.901816
0.901072
0.900216
0.899252
0.898188
0.897029
0.895781
0.89445
0.893042
0.891563
0.890018
0.888414
0.886754
0.885046
0.883293
0.8815
0.879673
0.877815
0.875932
0.874027
0.872106
0.870172
0.868229
0.866282
0.864335
0.862392
0.860457
0.858535
0.856628
0.854742
0.85288
0.851047
0.849246
0.847483
0.84576
0.844083
0.842455
0.840881
0.839366
0.837913
0.836527
0.835214
0.833977
0.832822
0.831755
0.83078
0.829905
0.829135
0.828478
0.827942
0.827534
0.827263
0.827135
0.827162
0.827369
0.827768
0.828372
0.829196
0.830261
0.831592
0.833214
0.835157
0.837455
0.840146
0.843273
0.846886
0.85104
0.855801
0.861241
0.867444
0.874509
0.882546
0.891683
0.902069
0.913877
0.927305
0.942586
0.959992
0.979838
1.00249
1.02839
1.05803
1.092
1.13097
1.17569
1.227
1.28576
1.35278
1.42862
1.51322
1.60535
1.70158
1.79503
1.8737
1.92135
0.903959
0.903862
0.903612
0.903216
0.902695
0.902058
0.901304
0.900437
0.899463
0.898387
0.897217
0.895957
0.894615
0.893195
0.891705
0.89015
0.888535
0.886866
0.885148
0.883385
0.881584
0.879749
0.877883
0.875992
0.87408
0.872152
0.870211
0.868261
0.866308
0.864355
0.862406
0.860465
0.858537
0.856625
0.854733
0.852866
0.851028
0.849223
0.847455
0.845728
0.844046
0.842415
0.840837
0.839318
0.837862
0.836473
0.835156
0.833916
0.832757
0.831686
0.830708
0.829828
0.829053
0.82839
0.827847
0.827429
0.827145
0.827003
0.827021
0.827216
0.827598
0.828178
0.828976
0.830011
0.831306
0.832887
0.834781
0.837022
0.839645
0.842692
0.846211
0.850256
0.854887
0.860174
0.866197
0.873048
0.88083
0.889665
0.89969
0.911064
0.92397
0.938619
0.955256
0.974162
0.995662
1.02013
1.048
1.07974
1.11591
1.15711
1.20395
1.25705
1.31691
1.38377
1.45732
1.53619
1.61719
1.69433
1.75683
1.79138
0.904357
0.904258
0.904003
0.903598
0.903067
0.902416
0.901648
0.900765
0.899774
0.89868
0.897492
0.896214
0.894854
0.893418
0.891911
0.890339
0.888708
0.887024
0.885291
0.883515
0.8817
0.879851
0.877973
0.87607
0.874147
0.872207
0.870255
0.868295
0.866331
0.864367
0.862408
0.860458
0.85852
0.856598
0.854697
0.852821
0.850974
0.84916
0.847383
0.845648
0.843958
0.842318
0.840733
0.839206
0.837741
0.836344
0.835019
0.833771
0.832604
0.831524
0.830535
0.829644
0.828858
0.82818
0.827621
0.827184
0.82688
0.826717
0.826712
0.826878
0.827225
0.827765
0.828517
0.829499
0.830732
0.832241
0.834053
0.836197
0.838708
0.841626
0.844994
0.848862
0.853287
0.858334
0.864075
0.870593
0.877985
0.886356
0.895831
0.906549
0.91867
0.932376
0.947872
0.965391
0.985197
1.00758
1.03287
1.0614
1.09355
1.12968
1.1701
1.21503
1.26447
1.31803
1.37466
1.432
1.48584
1.52743
1.5432
1.49326
0.90489
0.904788
0.904525
0.904109
0.903561
0.902893
0.902104
0.9012
0.900185
0.899068
0.897855
0.896553
0.895169
0.893709
0.892179
0.890585
0.888932
0.887227
0.885475
0.88368
0.881847
0.87998
0.878085
0.876166
0.874227
0.872271
0.870304
0.868329
0.86635
0.864372
0.862399
0.860435
0.858483
0.856547
0.854633
0.852743
0.850883
0.849056
0.847267
0.845519
0.843817
0.842165
0.840567
0.839028
0.837552
0.836143
0.834805
0.833543
0.832363
0.831268
0.830264
0.829356
0.82855
0.827851
0.827267
0.826804
0.826471
0.826276
0.826235
0.826358
0.826655
0.827138
0.827824
0.828731
0.829878
0.831288
0.832984
0.834996
0.837355
0.840095
0.843258
0.846889
0.851037
0.855762
0.861127
0.867206
0.87408
0.881844
0.8906
0.900465
0.911571
0.92406
0.938095
0.953848
0.971506
0.991266
1.01332
1.03786
1.06503
1.09491
1.12742
1.16226
1.19874
1.23544
1.26985
1.29722
1.31048
1.29102
1.23524
0.938678
)
;

boundaryField
{
    inlet
    {
        type            zeroGradient;
    }
    outlet
    {
        type            fixedValue;
        value           nonuniform List<scalar> 0();
    }
    topWall
    {
        type            zeroGradient;
    }
    lowerWall
    {
        type            zeroGradient;
    }
    leadingEdge
    {
        type            zeroGradient;
    }
    trailingEdge
    {
        type            zeroGradient;
    }
    upperSurface
    {
        type            zeroGradient;
    }
    lowerSurface
    {
        type            zeroGradient;
    }
    frontAndBack
    {
        type            empty;
    }
    procBoundary4to0
    {
        type            processor;
        value           nonuniform List<scalar> 
101
(
0.90366
0.903565
0.903318
0.902928
0.902413
0.901679
0.901679
0.90094
0.900088
0.899129
0.89807
0.896916
0.895673
0.894347
0.892944
0.89147
0.889929
0.888328
0.886673
0.884967
0.883217
0.881427
0.879603
0.877747
0.875866
0.873963
0.872043
0.870109
0.868167
0.866221
0.864274
0.862331
0.860396
0.858472
0.856564
0.854677
0.852813
0.850977
0.849174
0.847407
0.845681
0.844
0.842368
0.840789
0.839267
0.837808
0.836416
0.835095
0.83385
0.832687
0.831611
0.830626
0.829741
0.82896
0.828292
0.827743
0.827325
0.827041
0.826909
0.826923
0.827112
0.827497
0.828089
0.828901
0.829955
0.831275
0.832888
0.834824
0.837116
0.839804
0.842932
0.84655
0.850715
0.855493
0.860959
0.867199
0.874312
0.882414
0.891637
0.902133
0.914082
0.927691
0.943202
0.9609
0.981117
1.00425
1.03075
1.06116
1.09611
1.13635
1.18269
1.23609
1.29752
1.36791
1.44795
1.53766
1.63575
1.7385
1.83844
1.9226
1.97424
)
;
    }
    procBoundary4to5
    {
        type            processor;
        value           nonuniform List<scalar> 
20
(
-1.15426
-1.18747
-1.23021
-1.23741