/*--------------------------------*- C++ -*----------------------------------*\
| =========                 |                                                 |
| \\      /  F ield         | OpenFOAM: The Open Source CFD Toolbox           |
|  \\    /   O peration     | Version:  2206                                  |
|   \\  /    A nd           | Website:  www.openfoam.com                      |
|    \\/     M anipulation  |                                                 |
\*---------------------------------------------------------------------------*/
FoamFile
{
    version     2.0;
    format      ascii;
    arch        "LSB;label=32;scalar=64";
    class       volVectorField;
    location    "18.6999";
    object      U_0;
}
// * * * * * * * * * * * * * * * * * * * * * * * * * * * * * * * * * * * * * //

dimensions      [0 1 -1 0 0 0 0];

internalField   nonuniform List<vector> 
3025
(
(1.47762 -0.000251171 0)
(1.4777 -0.000751073 0)
(1.47789 -0.00124427 0)
(1.47818 -0.00172628 0)
(1.47856 -0.00219339 0)
(1.47903 -0.00264265 0)
(1.47958 -0.00307171 0)
(1.48021 -0.00347873 0)
(1.48092 -0.00386242 0)
(1.48169 -0.00422203 0)
(1.48253 -0.00455728 0)
(1.48343 -0.00486827 0)
(1.48439 -0.00515541 0)
(1.4854 -0.00541933 0)
(1.48645 -0.00566081 0)
(1.48754 -0.00588075 0)
(1.48868 -0.00608008 0)
(1.48985 -0.00625973 0)
(1.49104 -0.00642062 0)
(1.49227 -0.0065636 0)
(1.49352 -0.00668944 0)
(1.49479 -0.00679883 0)
(1.49608 -0.00689235 0)
(1.49738 -0.00697048 0)
(1.4987 -0.0070336 0)
(1.50003 -0.00708198 0)
(1.50136 -0.00711582 0)
(1.5027 -0.00713522 0)
(1.50404 -0.00714022 0)
(1.50538 -0.0071308 0)
(1.50671 -0.00710688 0)
(1.50804 -0.00706833 0)
(1.50936 -0.00701506 0)
(1.51066 -0.0069469 0)
(1.51196 -0.00686374 0)
(1.51323 -0.00676541 0)
(1.51449 -0.00665182 0)
(1.51572 -0.00652278 0)
(1.51693 -0.00637826 0)
(1.51811 -0.00621805 0)
(1.51926 -0.00604214 0)
(1.52038 -0.00585028 0)
(1.52146 -0.00564248 0)
(1.5225 -0.00541835 0)
(1.5235 -0.00517793 0)
(1.52446 -0.00492053 0)
(1.52538 -0.00464625 0)
(1.52624 -0.00435389 0)
(1.52705 -0.00404359 0)
(1.52781 -0.00371349 0)
(1.52852 -0.00336364 0)
(1.52916 -0.00299148 0)
(1.52973 -0.00259684 0)
(1.53025 -0.00217631 0)
(1.53068 -0.0017299 0)
(1.53105 -0.0012526 0)
(1.53133 -0.000745975 0)
(1.53153 -0.000200604 0)
(1.53164 0.000385525 0)
(1.53164 0.00101753 0)
(1.53155 0.00170132 0)
(1.53133 0.00244338 0)
(1.531 0.00325113 0)
(1.53053 0.00413322 0)
(1.52992 0.00509959 0)
(1.52915 0.00616164 0)
(1.5282 0.00733249 0)
(1.52707 0.00862719 0)
(1.52573 0.0100631 0)
(1.52415 0.0116603 0)
(1.52232 0.013442 0)
(1.52021 0.015435 0)
(1.51779 0.0176707 0)
(1.51502 0.0201855 0)
(1.51186 0.0230224 0)
(1.50827 0.0262317 0)
(1.50419 0.0298728 0)
(1.49957 0.0340163 0)
(1.49434 0.0387463 0)
(1.48843 0.0441635 0)
(1.48176 0.0503892 0)
(1.47421 0.0575705 0)
(1.4657 0.0658862 0)
(1.4561 0.0755559 0)
(1.44527 0.0868502 0)
(1.43306 0.100106 0)
(1.41932 0.115744 0)
(1.40385 0.134298 0)
(1.38649 0.156444 0)
(1.36705 0.183059 0)
(1.34536 0.215282 0)
(1.32129 0.254634 0)
(1.29485 0.303143 0)
(1.2659 0.363747 0)
(1.23596 0.440356 0)
(1.20212 0.540167 0)
(1.18359 0.670576 0)
(1.13302 0.860381 0)
(1.29317 1.09587 0)
(1.15305 1.63952 0)
(1.47762 -0.000300852 0)
(1.4777 -0.000899721 0)
(1.4779 -0.00149043 0)
(1.4782 -0.00206738 0)
(1.4786 -0.00262593 0)
(1.47909 -0.00316249 0)
(1.47966 -0.00367421 0)
(1.48032 -0.00415895 0)
(1.48105 -0.00461524 0)
(1.48185 -0.0050423 0)
(1.48272 -0.00543992 0)
(1.48365 -0.00580834 0)
(1.48463 -0.00614816 0)
(1.48566 -0.00646023 0)
(1.48674 -0.00674555 0)
(1.48786 -0.00700526 0)
(1.48901 -0.00724051 0)
(1.4902 -0.00745244 0)
(1.49142 -0.00764216 0)
(1.49267 -0.00781069 0)
(1.49394 -0.00795895 0)
(1.49523 -0.00808774 0)
(1.49654 -0.00819775 0)
(1.49786 -0.00828954 0)
(1.4992 -0.00836355 0)
(1.50054 -0.00842011 0)
(1.50189 -0.00845943 0)
(1.50325 -0.00848163 0)
(1.5046 -0.0084868 0)
(1.50596 -0.00847488 0)
(1.50731 -0.00844578 0)
(1.50865 -0.0083994 0)
(1.50999 -0.00833561 0)
(1.51131 -0.00825428 0)
(1.51262 -0.00815528 0)
(1.51391 -0.00803846 0)
(1.51519 -0.00790371 0)
(1.51644 -0.0077509 0)
(1.51766 -0.00757997 0)
(1.51886 -0.00739076 0)
(1.52002 -0.00718325 0)
(1.52116 -0.00695723 0)
(1.52226 -0.00671271 0)
(1.52332 -0.00644931 0)
(1.52434 -0.00616706 0)
(1.52531 -0.00586531 0)
(1.52624 -0.00554396 0)
(1.52713 -0.00520209 0)
(1.52796 -0.00483923 0)
(1.52874 -0.00445423 0)
(1.52947 -0.00404593 0)
(1.53013 -0.00361298 0)
(1.53074 -0.00315343 0)
(1.53128 -0.00266556 0)
(1.53175 -0.00214666 0)
(1.53214 -0.00159446 0)
(1.53247 -0.00100539 0)
(1.53271 -0.00037359 0)
(1.53286 0.000304888 0)
(1.53292 0.00103593 0)
(1.53288 0.00182609 0)
(1.53274 0.0026827 0)
(1.53248 0.00361425 0)
(1.5321 0.00463054 0)
(1.53158 0.0057428 0)
(1.53092 0.00696393 0)
(1.5301 0.00830869 0)
(1.52911 0.00979402 0)
(1.52793 0.0114394 0)
(1.52654 0.0132673 0)
(1.52492 0.0153036 0)
(1.52305 0.0175782 0)
(1.52091 0.0201259 0)
(1.51845 0.0229871 0)
(1.51566 0.0262089 0)
(1.5125 0.0298467 0)
(1.50891 0.0339653 0)
(1.50487 0.0386415 0)
(1.50031 0.0439659 0)
(1.49519 0.0500468 0)
(1.48944 0.0570135 0)
(1.48299 0.0650212 0)
(1.47578 0.0742575 0)
(1.46773 0.0849503 0)
(1.45876 0.0973777 0)
(1.4488 0.111881 0)
(1.43778 0.128883 0)
(1.42566 0.148908 0)
(1.41241 0.172615 0)
(1.39808 0.200837 0)
(1.38282 0.234638 0)
(1.3669 0.275396 0)
(1.35105 0.324913 0)
(1.33601 0.385625 0)
(1.32525 0.46076 0)
(1.31863 0.555131 0)
(1.33687 0.673607 0)
(1.35944 0.828132 0)
(1.48306 0.992107 0)
(1.62791 1.33098 0)
(1.47762 -0.000353128 0)
(1.47771 -0.00105607 0)
(1.47792 -0.00174913 0)
(1.47824 -0.00242533 0)
(1.47866 -0.00307901 0)
(1.47917 -0.00370582 0)
(1.47977 -0.00430245 0)
(1.48046 -0.00486646 0)
(1.48122 -0.0053963 0)
(1.48205 -0.00589125 0)
(1.48295 -0.00635125 0)
(1.48391 -0.00677677 0)
(1.48492 -0.00716868 0)
(1.48598 -0.00752813 0)
(1.48709 -0.00785644 0)
(1.48824 -0.008155 0)
(1.48942 -0.00842525 0)
(1.49063 -0.00866857 0)
(1.49188 -0.00888628 0)
(1.49315 -0.00907959 0)
(1.49444 -0.00924957 0)
(1.49575 -0.00939715 0)
(1.49708 -0.00952314 0)
(1.49843 -0.00962816 0)
(1.49978 -0.00971272 0)
(1.50115 -0.00977717 0)
(1.50252 -0.00982176 0)
(1.50389 -0.00984662 0)
(1.50527 -0.00985182 0)
(1.50665 -0.0098373 0)
(1.50802 -0.00980296 0)
(1.50938 -0.0097487 0)
(1.51074 -0.00967435 0)
(1.51208 -0.00957982 0)
(1.51341 -0.00946492 0)
(1.51472 -0.00932958 0)
(1.51601 -0.00917364 0)
(1.51728 -0.00899704 0)
(1.51852 -0.00879967 0)
(1.51974 -0.00858149 0)
(1.52093 -0.00834241 0)
(1.52208 -0.00808238 0)
(1.5232 -0.00780125 0)
(1.52428 -0.00749895 0)
(1.52532 -0.00717512 0)
(1.52632 -0.00682967 0)
(1.52727 -0.00646181 0)
(1.52817 -0.00607142 0)
(1.52903 -0.00565705 0)
(1.52983 -0.00521851 0)
(1.53058 -0.00475353 0)
(1.53128 -0.00426167 0)
(1.53191 -0.00373974 0)
(1.53248 -0.0031871 0)
(1.53299 -0.00259901 0)
(1.53343 -0.00197528 0)
(1.53379 -0.00130832 0)
(1.53408 -0.000594906 0)
(1.53429 0.000170349 0)
(1.53441 0.000993915 0)
(1.53444 0.00188293 0)
(1.53437 0.00284551 0)
(1.53419 0.00389103 0)
(1.53391 0.00503028 0)
(1.5335 0.00627558 0)
(1.53296 0.00764104 0)
(1.53228 0.00914277 0)
(1.53145 0.0107993 0)
(1.53044 0.0126317 0)
(1.52926 0.0146643 0)
(1.52788 0.0169252 0)
(1.52628 0.0194466 0)
(1.52444 0.0222657 0)
(1.52234 0.0254258 0)
(1.51995 0.0289771 0)
(1.51725 0.032978 0)
(1.51421 0.0374969 0)
(1.51079 0.042614 0)
(1.50696 0.0484236 0)
(1.50268 0.0550374 0)
(1.49792 0.0625875 0)
(1.49264 0.0712314 0)
(1.4868 0.081157 0)
(1.48038 0.0925901 0)
(1.47334 0.105803 0)
(1.4657 0.121123 0)
(1.45746 0.138951 0)
(1.44868 0.159772 0)
(1.4395 0.184183 0)
(1.43012 0.212914 0)
(1.42094 0.246864 0)
(1.41255 0.287134 0)
(1.40601 0.335086 0)
(1.40273 0.392299 0)
(1.40585 0.460742 0)
(1.41801 0.541962 0)
(1.44843 0.637531 0)
(1.50071 0.748763 0)
(1.5806 0.844163 0)
(1.75525 1.02279 0)
(1.47762 -0.000408654 0)
(1.47772 -0.00122206 0)
(1.47794 -0.00202343 0)
(1.47828 -0.0028042 0)
(1.47872 -0.00355743 0)
(1.47927 -0.00427798 0)
(1.4799 -0.00496206 0)
(1.48062 -0.00560703 0)
(1.48142 -0.00621135 0)
(1.4823 -0.00677447 0)
(1.48323 -0.00729662 0)
(1.48423 -0.00777863 0)
(1.48527 -0.00822177 0)
(1.48637 -0.00862755 0)
(1.48751 -0.00899769 0)
(1.48869 -0.00933394 0)
(1.4899 -0.00963803 0)
(1.49115 -0.00991163 0)
(1.49242 -0.0101563 0)
(1.49372 -0.0103735 0)
(1.49503 -0.0105643 0)
(1.49637 -0.01073 0)
(1.49773 -0.0108714 0)
(1.49909 -0.0109892 0)
(1.50047 -0.0110839 0)
(1.50186 -0.0111559 0)
(1.50326 -0.0112056 0)
(1.50465 -0.0112329 0)
(1.50605 -0.0112381 0)
(1.50745 -0.0112209 0)
(1.50884 -0.0111812 0)
(1.51023 -0.011119 0)
(1.51161 -0.0110341 0)
(1.51297 -0.0109263 0)
(1.51432 -0.0107955 0)
(1.51566 -0.0106415 0)
(1.51697 -0.0104643 0)
(1.51826 -0.0102638 0)
(1.51953 -0.01004 0)
(1.52077 -0.00979277 0)
(1.52198 -0.00952212 0)
(1.52315 -0.00922809 0)
(1.52429 -0.00891049 0)
(1.52539 -0.00856942 0)
(1.52646 -0.00820446 0)
(1.52748 -0.00781559 0)
(1.52845 -0.00740215 0)
(1.52938 -0.00696375 0)
(1.53026 -0.00649947 0)
(1.53109 -0.00600827 0)
(1.53187 -0.00548896 0)
(1.5326 -0.00493961 0)
(1.53326 -0.00435859 0)
(1.53387 -0.00374307 0)
(1.53441 -0.00309061 0)
(1.53489 -0.00239735 0)
(1.53531 -0.00165816 0)
(1.53565 -0.000868677 0)
(1.53591 -2.28698e-05 0)
(1.5361 0.000886006 0)
(1.5362 0.00186562 0)
(1.53621 0.00292477 0)
(1.53613 0.00407356 0)
(1.53595 0.00532352 0)
(1.53566 0.00668785 0)
(1.53526 0.00818158 0)
(1.53473 0.0098219 0)
(1.53407 0.0116284 0)
(1.53326 0.0136236 0)
(1.5323 0.015833 0)
(1.53117 0.0182863 0)
(1.52985 0.0210171 0)
(1.52834 0.0240643 0)
(1.52662 0.027473 0)
(1.52466 0.0312948 0)
(1.52246 0.03559 0)
(1.51999 0.0404284 0)
(1.51723 0.0458912 0)
(1.51416 0.0520735 0)
(1.51077 0.0590865 0)
(1.50704 0.0670609 0)
(1.50295 0.0761505 0)
(1.49852 0.0865366 0)
(1.49374 0.0984342 0)
(1.48865 0.112098 0)
(1.48328 0.127829 0)
(1.47775 0.145987 0)
(1.47219 0.166998 0)
(1.46683 0.191365 0)
(1.46201 0.219683 0)
(1.45824 0.252644 0)
(1.45629 0.291033 0)
(1.45728 0.335727 0)
(1.46279 0.387559 0)
(1.47513 0.447329 0)
(1.49747 0.515154 0)
(1.53313 0.589718 0)
(1.59159 0.672849 0)
(1.66478 0.739432 0)
(1.78994 0.837855 0)
(1.47762 -0.000468235 0)
(1.47773 -0.00140003 0)
(1.47796 -0.00231711 0)
(1.47833 -0.00320888 0)
(1.47881 -0.00406694 0)
(1.47939 -0.00488522 0)
(1.48007 -0.00565952 0)
(1.48083 -0.00638715 0)
(1.48167 -0.00706675 0)
(1.48259 -0.00769808 0)
(1.48357 -0.00828185 0)
(1.48461 -0.00881939 0)
(1.48569 -0.00931249 0)
(1.48683 -0.00976319 0)
(1.48801 -0.0101737 0)
(1.48922 -0.0105461 0)
(1.49047 -0.0108826 0)
(1.49175 -0.0111851 0)
(1.49305 -0.0114555 0)
(1.49438 -0.0116954 0)
(1.49572 -0.0119062 0)
(1.49709 -0.0120892 0)
(1.49847 -0.0122452 0)
(1.49987 -0.0123752 0)
(1.50127 -0.0124797 0)
(1.50269 -0.012559 0)
(1.50411 -0.0126135 0)
(1.50553 -0.0126432 0)
(1.50695 -0.0126482 0)
(1.50838 -0.0126283 0)
(1.50979 -0.0125834 0)
(1.51121 -0.0125133 0)
(1.51261 -0.0124177 0)
(1.514 -0.0122967 0)
(1.51538 -0.0121499 0)
(1.51674 -0.0119773 0)
(1.51807 -0.0117789 0)
(1.51939 -0.0115544 0)
(1.52068 -0.0113041 0)
(1.52195 -0.0110278 0)
(1.52318 -0.0107256 0)
(1.52438 -0.0103976 0)
(1.52554 -0.0100438 0)
(1.52667 -0.00966404 0)
(1.52776 -0.00925846 0)
(1.5288 -0.00882655 0)
(1.5298 -0.00836837 0)
(1.53076 -0.00788285 0)
(1.53167 -0.00736987 0)
(1.53253 -0.00682766 0)
(1.53334 -0.00625567 0)
(1.5341 -0.00565138 0)
(1.5348 -0.00501366 0)
(1.53544 -0.00433873 0)
(1.53603 -0.0036253 0)
(1.53655 -0.00286709 0)
(1.53702 -0.00206079 0)
(1.53741 -0.00120101 0)
(1.53774 -0.000281429 0)
(1.538 0.000704999 0)
(1.53818 0.00176638 0)
(1.53828 0.002912 0)
(1.5383 0.00415251 0)
(1.53823 0.00550001 0)
(1.53806 0.00696834 0)
(1.5378 0.0085732 0)
(1.53743 0.0103325 0)
(1.53695 0.0122667 0)
(1.53635 0.0143989 0)
(1.53563 0.0167558 0)
(1.53476 0.0193676 0)
(1.53375 0.0222689 0)
(1.53259 0.0254993 0)
(1.53126 0.0291045 0)
(1.52975 0.0331366 0)
(1.52806 0.037656 0)
(1.52618 0.042732 0)
(1.52409 0.048445 0)
(1.52181 0.0548879 0)
(1.51931 0.0621685 0)
(1.51662 0.070412 0)
(1.51374 0.079764 0)
(1.51069 0.0903937 0)
(1.50753 0.102498 0)
(1.50431 0.116307 0)
(1.50114 0.132086 0)
(1.49816 0.150143 0)
(1.49557 0.170832 0)
(1.49366 0.194554 0)
(1.49285 0.22176 0)
(1.4937 0.252937 0)
(1.497 0.288588 0)
(1.50381 0.329189 0)
(1.51557 0.375082 0)
(1.53409 0.426331 0)
(1.56201 0.482655 0)
(1.60133 0.541894 0)
(1.65802 0.604805 0)
(1.73106 0.658203 0)
(1.82369 0.71058 0)
(1.47763 -0.000532871 0)
(1.47774 -0.00159295 0)
(1.478 -0.00263484 0)
(1.47839 -0.00364542 0)
(1.47891 -0.0046145 0)
(1.47954 -0.00553498 0)
(1.48026 -0.00640237 0)
(1.48108 -0.00721419 0)
(1.48197 -0.00796952 0)
(1.48294 -0.00866871 0)
(1.48397 -0.00931308 0)
(1.48506 -0.0099047 0)
(1.48619 -0.010446 0)
(1.48737 -0.0109398 0)
(1.48859 -0.0113887 0)
(1.48985 -0.0117954 0)
(1.49113 -0.0121626 0)
(1.49245 -0.0124924 0)
(1.49378 -0.0127871 0)
(1.49514 -0.0130484 0)
(1.49652 -0.0132781 0)
(1.49792 -0.0134774 0)
(1.49933 -0.0136475 0)
(1.50076 -0.0137891 0)
(1.50219 -0.0139029 0)
(1.50363 -0.0139892 0)
(1.50508 -0.0140483 0)
(1.50653 -0.0140803 0)
(1.50798 -0.014085 0)
(1.50943 -0.0140624 0)
(1.51088 -0.0140121 0)
(1.51232 -0.013934 0)
(1.51375 -0.0138278 0)
(1.51517 -0.0136934 0)
(1.51658 -0.0135305 0)
(1.51796 -0.0133392 0)
(1.51933 -0.0131192 0)
(1.52067 -0.0128707 0)
(1.52199 -0.0125936 0)
(1.52328 -0.012288 0)
(1.52454 -0.0119541 0)
(1.52577 -0.011592 0)
(1.52696 -0.0112018 0)
(1.52812 -0.0107835 0)
(1.52923 -0.0103373 0)
(1.53031 -0.00986296 0)
(1.53134 -0.00936028 0)
(1.53232 -0.00882884 0)
(1.53326 -0.00826782 0)
(1.53415 -0.0076765 0)
(1.53499 -0.0070532 0)
(1.53578 -0.0063967 0)
(1.53652 -0.00570437 0)
(1.53721 -0.00497416 0)
(1.53784 -0.00420229 0)
(1.53841 -0.00338443 0)
(1.53893 -0.00251637 0)
(1.53938 -0.00159243 0)
(1.53977 -0.000606203 0)
(1.5401 0.000449631 0)
(1.54037 0.00158352 0)
(1.54056 0.00280507 0)
(1.54068 0.00412525 0)
(1.54073 0.00555657 0)
(1.5407 0.00711326 0)
(1.54058 0.00881145 0)
(1.54038 0.0106695 0)
(1.54009 0.0127081 0)
(1.53971 0.014951 0)
(1.53922 0.0174251 0)
(1.53864 0.0201607 0)
(1.53794 0.0231928 0)
(1.53713 0.0265609 0)
(1.5362 0.0303102 0)
(1.53515 0.0344922 0)
(1.53399 0.039166 0)
(1.5327 0.044399 0)
(1.5313 0.0502687 0)
(1.52979 0.0568637 0)
(1.52818 0.0642859 0)
(1.52651 0.0726519 0)
(1.5248 0.0820956 0)
(1.52311 0.0927703 0)
(1.52149 0.104851 0)
(1.52005 0.118537 0)
(1.51892 0.134054 0)
(1.51827 0.151655 0)
(1.51834 0.171618 0)
(1.51947 0.194246 0)
(1.52207 0.219856 0)
(1.52671 0.248759 0)
(1.53414 0.281233 0)
(1.5453 0.317466 0)
(1.56141 0.357485 0)
(1.58392 0.40098 0)
(1.61471 0.447355 0)
(1.6554 0.494701 0)
(1.70839 0.541697 0)
(1.77488 0.582216 0)
(1.85207 0.613054 0)
(1.47763 -0.000604035 0)
(1.47775 -0.00180453 0)
(1.47804 -0.00298252 0)
(1.47847 -0.00412138 0)
(1.47904 -0.00520865 0)
(1.47972 -0.00623631 0)
(1.48051 -0.00719975 0)
(1.48138 -0.00809699 0)
(1.48234 -0.00892794 0)
(1.48337 -0.00969389 0)
(1.48445 -0.0103971 0)
(1.48559 -0.0110406 0)
(1.48678 -0.0116278 0)
(1.48801 -0.0121621 0)
(1.48928 -0.0126471 0)
(1.49058 -0.0130858 0)
(1.49191 -0.0134815 0)
(1.49326 -0.0138367 0)
(1.49463 -0.0141539 0)
(1.49603 -0.0144353 0)
(1.49745 -0.0146826 0)
(1.49888 -0.0148973 0)
(1.50032 -0.0150805 0)
(1.50177 -0.0152332 0)
(1.50324 -0.0153559 0)
(1.50471 -0.0154491 0)
(1.50619 -0.0155128 0)
(1.50767 -0.015547 0)
(1.50916 -0.0155517 0)
(1.51064 -0.0155265 0)
(1.51212 -0.0154711 0)
(1.51359 -0.0153852 0)
(1.51505 -0.0152686 0)
(1.5165 -0.0151209 0)
(1.51794 -0.0149421 0)
(1.51935 -0.0147321 0)
(1.52075 -0.0144907 0)
(1.52213 -0.014218 0)
(1.52348 -0.0139141 0)
(1.5248 -0.0135792 0)
(1.52609 -0.0132135 0)
(1.52735 -0.0128173 0)
(1.52857 -0.0123906 0)
(1.52975 -0.011934 0)
(1.5309 -0.0114473 0)
(1.532 -0.0109309 0)
(1.53306 -0.0103843 0)
(1.53407 -0.00980772 0)
(1.53504 -0.00919996 0)
(1.53597 -0.00856077 0)
(1.53684 -0.00788829 0)
(1.53767 -0.0071816 0)
(1.53845 -0.00643772 0)
(1.53917 -0.00565536 0)
(1.53985 -0.00482929 0)
(1.54047 -0.00395649 0)
(1.54104 -0.00303213 0)
(1.54156 -0.00205046 0)
(1.54202 -0.00100496 0)
(1.54243 0.000111907 0)
(1.54277 0.00130862 0)
(1.54306 0.00259506 0)
(1.54329 0.00398242 0)
(1.54346 0.0054834 0)
(1.54356 0.00711238 0)
(1.5436 0.00888565 0)
(1.54357 0.0108217 0)
(1.54348 0.0129413 0)
(1.54331 0.0152682 0)
(1.54307 0.017829 0)
(1.54276 0.020654 0)
(1.54238 0.0237774 0)
(1.54193 0.0272381 0)
(1.54141 0.03108 0)
(1.54082 0.035353 0)
(1.54017 0.0401137 0)
(1.53948 0.0454263 0)
(1.53875 0.0513639 0)
(1.538 0.0580092 0)
(1.53727 0.0654559 0)
(1.53658 0.0738103 0)
(1.53599 0.0831923 0)
(1.53557 0.0937364 0)
(1.5354 0.105594 0)
(1.5356 0.118932 0)
(1.53632 0.133934 0)
(1.53775 0.1508 0)
(1.54016 0.169738 0)
(1.54387 0.190962 0)
(1.5493 0.214675 0)
(1.55697 0.241049 0)
(1.56755 0.270192 0)
(1.58185 0.3021 0)
(1.60083 0.336592 0)
(1.6256 0.373186 0)
(1.65741 0.411072 0)
(1.69738 0.44869 0)
(1.7464 0.484153 0)
(1.80506 0.514147 0)
(1.87196 0.535788 0)
(1.47763 -0.000683246 0)
(1.47777 -0.00203968 0)
(1.47809 -0.00336776 0)
(1.47858 -0.00464587 0)
(1.47921 -0.00586031 0)
(1.47995 -0.00699946 0)
(1.48081 -0.00806155 0)
(1.48176 -0.00904506 0)
(1.48278 -0.00995098 0)
(1.48388 -0.0107819 0)
(1.48503 -0.0115414 0)
(1.48624 -0.0122338 0)
(1.48748 -0.0128636 0)
(1.48877 -0.0134354 0)
(1.49009 -0.0139533 0)
(1.49143 -0.0144213 0)
(1.49281 -0.014843 0)
(1.4942 -0.0152214 0)
(1.49562 -0.0155592 0)
(1.49705 -0.015859 0)
(1.4985 -0.0161225 0)
(1.49997 -0.0163514 0)
(1.50145 -0.0165469 0)
(1.50294 -0.0167099 0)
(1.50444 -0.0168409 0)
(1.50594 -0.0169404 0)
(1.50746 -0.0170084 0)
(1.50897 -0.0170447 0)
(1.51049 -0.0170491 0)
(1.512 -0.0170212 0)
(1.51352 -0.0169605 0)
(1.51502 -0.0168666 0)
(1.51652 -0.0167393 0)
(1.518 -0.0165782 0)
(1.51947 -0.0163831 0)
(1.52092 -0.016154 0)
(1.52236 -0.0158907 0)
(1.52377 -0.0155935 0)
(1.52515 -0.0152623 0)
(1.5265 -0.0148977 0)
(1.52783 -0.0144997 0)
(1.52912 -0.0140689 0)
(1.53037 -0.0136055 0)
(1.53158 -0.0131103 0)
(1.53276 -0.0125831 0)
(1.5339 -0.0120246 0)
(1.53499 -0.0114347 0)
(1.53604 -0.0108133 0)
(1.53704 -0.0101601 0)
(1.538 -0.00947403 0)
(1.53891 -0.00875444 0)
(1.53977 -0.00799939 0)
(1.54059 -0.00720728 0)
(1.54136 -0.00637526 0)
(1.54208 -0.00549953 0)
(1.54275 -0.00457658 0)
(1.54338 -0.00360154 0)
(1.54396 -0.00256869 0)
(1.54449 -0.00147142 0)
(1.54497 -0.000302152 0)
(1.5454 0.000947668 0)
(1.54579 0.00228796 0)
(1.54613 0.00372995 0)
(1.54642 0.00528633 0)
(1.54666 0.00697143 0)
(1.54685 0.00880147 0)
(1.547 0.0107947 0)
(1.5471 0.0129718 0)
(1.54715 0.015356 0)
(1.54716 0.0179734 0)
(1.54713 0.0208535 0)
(1.54707 0.0240295 0)
(1.54697 0.0275387 0)
(1.54685 0.0314233 0)
(1.54671 0.0357306 0)
(1.54658 0.0405138 0)
(1.54646 0.045833 0)
(1.54637 0.0517555 0)
(1.54636 0.058357 0)
(1.54646 0.065722 0)
(1.5467 0.0739447 0)
(1.54717 0.0831299 0)
(1.54793 0.0933928 0)
(1.54908 0.104859 0)
(1.55076 0.117666 0)
(1.55313 0.131957 0)
(1.55639 0.147881 0)
(1.56079 0.165587 0)
(1.56666 0.185213 0)
(1.57437 0.206871 0)
(1.5844 0.230628 0)
(1.59731 0.256476 0)
(1.61376 0.284288 0)
(1.63451 0.313769 0)
(1.66033 0.34438 0)
(1.69205 0.375284 0)
(1.73035 0.405221 0)
(1.77561 0.432592 0)
(1.82779 0.455292 0)
(1.88606 0.471297 0)
(1.47764 -0.000772607 0)
(1.47779 -0.00230541 0)
(1.47815 -0.00380086 0)
(1.47871 -0.00523352 0)
(1.47941 -0.00658276 0)
(1.48025 -0.00783908 0)
(1.48119 -0.00900092 0)
(1.48222 -0.0100699 0)
(1.48333 -0.0110484 0)
(1.4845 -0.0119411 0)
(1.48573 -0.0127528 0)
(1.487 -0.0134901 0)
(1.48831 -0.0141586 0)
(1.48966 -0.014764 0)
(1.49103 -0.0153113 0)
(1.49243 -0.0158052 0)
(1.49385 -0.0162498 0)
(1.4953 -0.0166488 0)
(1.49676 -0.0170052 0)
(1.49823 -0.0173216 0)
(1.49972 -0.0176002 0)
(1.50123 -0.0178425 0)
(1.50274 -0.0180498 0)
(1.50427 -0.0182231 0)
(1.5058 -0.0183627 0)
(1.50735 -0.018469 0)
(1.50889 -0.0185418 0)
(1.51044 -0.018581 0)
(1.512 -0.0185861 0)
(1.51355 -0.0185563 0)
(1.5151 -0.0184911 0)
(1.51664 -0.01839 0)
(1.51818 -0.0182525 0)
(1.5197 -0.0180784 0)
(1.52121 -0.0178674 0)
(1.5227 -0.0176193 0)
(1.52417 -0.0173343 0)
(1.52561 -0.0170124 0)
(1.52703 -0.0166538 0)
(1.52842 -0.0162591 0)
(1.52978 -0.0158285 0)
(1.53111 -0.0153627 0)
(1.5324 -0.0148623 0)
(1.53365 -0.0143279 0)
(1.53485 -0.0137601 0)
(1.53602 -0.0131593 0)
(1.53715 -0.0125262 0)
(1.53823 -0.0118604 0)
(1.53927 -0.0111624 0)
(1.54026 -0.0104307 0)
(1.54121 -0.00966545 0)
(1.54211 -0.00886417 0)
(1.54297 -0.00802631 0)
(1.54378 -0.00714807 0)
(1.54455 -0.00622662 0)
(1.54527 -0.00525827 0)
(1.54595 -0.00423819 0)
(1.54659 -0.00316068 0)
(1.54719 -0.00201915 0)
(1.54775 -0.000806124 0)
(1.54827 0.000487019 0)
(1.54876 0.00187002 0)
(1.5492 0.00335401 0)
(1.54961 0.00495153 0)
(1.54999 0.00667673 0)
(1.55034 0.00854548 0)
(1.55066 0.0105757 0)
(1.55095 0.0127873 0)
(1.55122 0.015203 0)
(1.55148 0.017848 0)
(1.55172 0.0207505 0)
(1.55197 0.0239422 0)
(1.55222 0.0274586 0)
(1.55248 0.031339 0)
(1.55279 0.0356279 0)
(1.55314 0.0403743 0)
(1.55358 0.0456333 0)
(1.55412 0.0514659 0)
(1.5548 0.0579397 0)
(1.55567 0.0651294 0)
(1.55679 0.0731168 0)
(1.55822 0.0819909 0)
(1.56006 0.0918478 0)
(1.56241 0.102789 0)
(1.5654 0.114922 0)
(1.56921 0.128356 0)
(1.57403 0.143195 0)
(1.58011 0.159537 0)
(1.58773 0.177461 0)
(1.59724 0.19701 0)
(1.60906 0.218178 0)
(1.62364 0.240881 0)
(1.64151 0.264926 0)
(1.66323 0.289974 0)
(1.68936 0.315493 0)
(1.7204 0.34073 0)
(1.75674 0.364665 0)
(1.7985 0.386049 0)
(1.8454 0.403391 0)
(1.89663 0.415193 0)
(1.47764 -0.000875379 0)
(1.47782 -0.00261108 0)
(1.47824 -0.00429726 0)
(1.47888 -0.00589942 0)
(1.47969 -0.00739317 0)
(1.48062 -0.00876996 0)
(1.48166 -0.0100322 0)
(1.4828 -0.0111845 0)
(1.484 -0.0122321 0)
(1.48526 -0.0131817 0)
(1.48658 -0.0140407 0)
(1.48793 -0.0148175 0)
(1.48931 -0.0155195 0)
(1.49072 -0.0161536 0)
(1.49215 -0.0167258 0)
(1.49361 -0.0172417 0)
(1.49508 -0.0177058 0)
(1.49657 -0.0181221 0)
(1.49807 -0.0184939 0)
(1.49959 -0.0188242 0)
(1.50113 -0.0191152 0)
(1.50267 -0.0193687 0)
(1.50422 -0.0195859 0)
(1.50579 -0.0197676 0)
(1.50736 -0.0199144 0)
(1.50894 -0.0200263 0)
(1.51053 -0.0201032 0)
(1.51212 -0.0201445 0)
(1.51371 -0.0201496 0)
(1.5153 -0.0201176 0)
(1.51689 -0.0200476 0)
(1.51847 -0.0199389 0)
(1.52005 -0.0197911 0)
(1.52161 -0.0196037 0)
(1.52316 -0.0193764 0)
(1.52469 -0.0191091 0)
(1.52621 -0.018802 0)
(1.52769 -0.0184549 0)
(1.52915 -0.0180685 0)
(1.53058 -0.0176431 0)
(1.53198 -0.0171795 0)
(1.53334 -0.0166782 0)
(1.53467 -0.0161403 0)
(1.53596 -0.0155664 0)
(1.5372 -0.0149576 0)
(1.53841 -0.0143145 0)
(1.53957 -0.0136383 0)
(1.54068 -0.0129288 0)
(1.54176 -0.0121866 0)
(1.54278 -0.0114105 0)
(1.54377 -0.0106009 0)
(1.54471 -0.00975559 0)
(1.54561 -0.00887433 0)
(1.54646 -0.00795319 0)
(1.54728 -0.00699004 0)
(1.54805 -0.00598124 0)
(1.54879 -0.00492199 0)
(1.54949 -0.00380648 0)
(1.55016 -0.00262816 0)
(1.5508 -0.00137974 0)
(1.5514 -5.28699e-05 0)
(1.55198 0.00136195 0)
(1.55253 0.00287557 0)
(1.55307 0.00450024 0)
(1.55358 0.00624969 0)
(1.55408 0.00813934 0)
(1.55456 0.0101864 0)
(1.55505 0.01241 0)
(1.55553 0.0148317 0)
(1.55602 0.0174758 0)
(1.55654 0.0203689 0)
(1.55708 0.0235407 0)
(1.55766 0.0270244 0)
(1.55831 0.0308564 0)
(1.55903 0.0350773 0)
(1.55985 0.0397319 0)
(1.56081 0.0448696 0)
(1.56193 0.0505446 0)
(1.56326 0.0568164 0)
(1.56484 0.0637493 0)
(1.56676 0.0714129 0)
(1.56907 0.079881 0)
(1.57187 0.089231 0)
(1.57528 0.0995428 0)
(1.57942 0.110897 0)
(1.58447 0.12337 0)
(1.5906 0.137034 0)
(1.59805 0.151943 0)
(1.60707 0.16813 0)
(1.61798 0.185591 0)
(1.63111 0.204272 0)
(1.64685 0.224046 0)
(1.66558 0.244691 0)
(1.68773 0.265866 0)
(1.71368 0.287083 0)
(1.74374 0.307692 0)
(1.77808 0.326871 0)
(1.81667 0.343653 0)
(1.85917 0.356962 0)
(1.90485 0.365756 0)
(1.47765 -0.000996326 0)
(1.47786 -0.00297034 0)
(1.47836 -0.00487602 0)
(1.47911 -0.00666666 0)
(1.48004 -0.00831389 0)
(1.48111 -0.00981343 0)
(1.48227 -0.0111739 0)
(1.48352 -0.0124045 0)
(1.48484 -0.0135141 0)
(1.4862 -0.0145125 0)
(1.48761 -0.0154108 0)
(1.48904 -0.0162197 0)
(1.4905 -0.0169488 0)
(1.49198 -0.0176062 0)
(1.49348 -0.0181993 0)
(1.49499 -0.0187339 0)
(1.49652 -0.0192152 0)
(1.49806 -0.0196475 0)
(1.49961 -0.0200344 0)
(1.50118 -0.0203787 0)
(1.50275 -0.0206829 0)
(1.50434 -0.0209486 0)
(1.50593 -0.0211772 0)
(1.50754 -0.0213692 0)
(1.50915 -0.021525 0)
(1.51077 -0.0216446 0)
(1.5124 -0.0217275 0)
(1.51403 -0.0217729 0)
(1.51567 -0.0217799 0)
(1.5173 -0.0217471 0)
(1.51894 -0.0216733 0)
(1.52057 -0.0215578 0)
(1.52219 -0.0213999 0)
(1.52379 -0.0211993 0)
(1.52539 -0.0209557 0)
(1.52697 -0.0206688 0)
(1.52852 -0.0203388 0)
(1.53005 -0.0199659 0)
(1.53156 -0.0195505 0)
(1.53303 -0.0190933 0)
(1.53447 -0.0185951 0)
(1.53588 -0.018057 0)
(1.53724 -0.0174799 0)
(1.53857 -0.0168649 0)
(1.53985 -0.0162136 0)
(1.54109 -0.0155271 0)
(1.54229 -0.0148069 0)
(1.54344 -0.0140534 0)
(1.54455 -0.0132671 0)
(1.54562 -0.0124473 0)
(1.54664 -0.0115942 0)
(1.54762 -0.0107062 0)
(1.54855 -0.00978323 0)
(1.54945 -0.00882182 0)
(1.55031 -0.00782024 0)
(1.55114 -0.00677525 0)
(1.55193 -0.00568213 0)
(1.55269 -0.00453496 0)
(1.55343 -0.00332721 0)
(1.55414 -0.0020518 0)
(1.55483 -0.000700681 0)
(1.5555 0.000735352 0)
(1.55616 0.00226678 0)
(1.5568 0.00390538 0)
(1.55745 0.00566435 0)
(1.55809 0.00755849 0)
(1.55874 0.00960411 0)
(1.55941 0.0118193 0)
(1.5601 0.0142244 0)
(1.56082 0.016842 0)
(1.56159 0.0196972 0)
(1.56241 0.0228175 0)
(1.56332 0.0262333 0)
(1.56431 0.0299777 0)
(1.56543 0.0340873 0)
(1.56669 0.038602 0)
(1.56813 0.0435654 0)
(1.56979 0.0490249 0)
(1.57171 0.0550314 0)
(1.57395 0.0616397 0)
(1.57658 0.0689072 0)
(1.57967 0.0768935 0)
(1.58333 0.0856584 0)
(1.58765 0.0952615 0)
(1.59278 0.10576 0)
(1.59886 0.117206 0)
(1.60608 0.129641 0)
(1.61463 0.143089 0)
(1.62476 0.15755 0)
(1.63672 0.172987 0)
(1.65079 0.189318 0)
(1.66728 0.206396 0)
(1.68649 0.223995 0)
(1.70871 0.241794 0)
(1.73419 0.259362 0)
(1.76312 0.276155 0)
(1.79555 0.291517 0)
(1.83136 0.30471 0)
(1.8702 0.31496 0)
(1.91145 0.321544 0)
(1.47766 -0.00114258 0)
(1.47792 -0.00340413 0)
(1.47853 -0.00556638 0)
(1.47943 -0.00756484 0)
(1.48052 -0.00937113 0)
(1.48175 -0.0109924 0)
(1.48306 -0.012447 0)
(1.48445 -0.0137497 0)
(1.48589 -0.0149127 0)
(1.48737 -0.0159504 0)
(1.48888 -0.0168776 0)
(1.4904 -0.0177084 0)
(1.49194 -0.0184543 0)
(1.49349 -0.0191252 0)
(1.49506 -0.0197292 0)
(1.49663 -0.0202732 0)
(1.49821 -0.0207628 0)
(1.49981 -0.021203 0)
(1.50141 -0.0215974 0)
(1.50302 -0.0219491 0)
(1.50464 -0.0222606 0)
(1.50627 -0.0225336 0)
(1.50791 -0.0227692 0)
(1.50956 -0.0229682 0)
(1.51121 -0.0231307 0)
(1.51288 -0.0232564 0)
(1.51455 -0.0233448 0)
(1.51622 -0.0233949 0)
(1.51791 -0.0234046 0)
(1.51959 -0.0233722 0)
(1.52127 -0.023296 0)
(1.52295 -0.0231749 0)
(1.52462 -0.0230083 0)
(1.52628 -0.0227957 0)
(1.52792 -0.0225367 0)
(1.52955 -0.0222312 0)
(1.53116 -0.0218792 0)
(1.53274 -0.0214811 0)
(1.53429 -0.0210372 0)
(1.53581 -0.0205487 0)
(1.5373 -0.0200164 0)
(1.53875 -0.0194416 0)
(1.54016 -0.0188253 0)
(1.54153 -0.0181691 0)
(1.54286 -0.0174747 0)
(1.54414 -0.0167441 0)
(1.54537 -0.0159795 0)
(1.54656 -0.015182 0)
(1.54771 -0.014352 0)
(1.54881 -0.0134892 0)
(1.54987 -0.0125942 0)
(1.55088 -0.0116655 0)
(1.55186 -0.0107036 0)
(1.5528 -0.00970535 0)
(1.5537 -0.00866974 0)
(1.55458 -0.00759354 0)
(1.55542 -0.00647172 0)
(1.55624 -0.00529855 0)
(1.55704 -0.00406818 0)
(1.55783 -0.00277398 0)
(1.5586 -0.00140817 0)
(1.55936 3.81851e-05 0)
(1.56012 0.00157514 0)
(1.56088 0.00321386 0)
(1.56165 0.00496687 0)
(1.56243 0.00684807 0)
(1.56324 0.00887277 0)
(1.56408 0.011058 0)
(1.56496 0.0134229 0)
(1.5659 0.0159884 0)
(1.56691 0.0187776 0)
(1.568 0.0218156 0)
(1.5692 0.0251298 0)
(1.57053 0.0287498 0)
(1.57201 0.0327082 0)
(1.57367 0.0370397 0)
(1.57556 0.0417822 0)
(1.5777 0.0469761 0)
(1.58016 0.0526645 0)
(1.58299 0.0588926 0)
(1.58625 0.0657072 0)
(1.59003 0.0731549 0)
(1.59442 0.0812804 0)
(1.59952 0.0901244 0)
(1.60547 0.0997242 0)
(1.61241 0.11011 0)
(1.6205 0.121301 0)
(1.62992 0.133299 0)
(1.64088 0.146079 0)
(1.6536 0.159589 0)
(1.66831 0.173731 0)
(1.68524 0.188356 0)
(1.70463 0.203249 0)
(1.72667 0.218117 0)
(1.75153 0.23259 0)
(1.7793 0.246221 0)
(1.80996 0.258494 0)
(1.84336 0.268852 0)
(1.87916 0.27673 0)
(1.91686 0.281619 0)
(1.47767 -0.00132526 0)
(1.47801 -0.0039454 0)
(1.47878 -0.00641337 0)
(1.47988 -0.0086384 0)
(1.48119 -0.0106011 0)
(1.4826 -0.0123323 0)
(1.48409 -0.0138668 0)
(1.48564 -0.0152271 0)
(1.48723 -0.0164305 0)
(1.48884 -0.0174969 0)
(1.49046 -0.018446 0)
(1.49208 -0.0192949 0)
(1.49371 -0.0200572 0)
(1.49534 -0.0207436 0)
(1.49698 -0.0213622 0)
(1.49862 -0.02192 0)
(1.50026 -0.0224229 0)
(1.50191 -0.0228758 0)
(1.50356 -0.0232827 0)
(1.50522 -0.0236464 0)
(1.50689 -0.0239692 0)
(1.50857 -0.024253 0)
(1.51025 -0.0244986 0)
(1.51194 -0.0247065 0)
(1.51364 -0.0248766 0)
(1.51535 -0.0250086 0)
(1.51707 -0.0251021 0)
(1.5188 -0.025156 0)
(1.52053 -0.0251676 0)
(1.52226 -0.0251343 0)
(1.524 -0.025054 0)
(1.52573 -0.0249254 0)
(1.52746 -0.0247478 0)
(1.52917 -0.0245208 0)
(1.53088 -0.0242437 0)
(1.53256 -0.0239169 0)
(1.53422 -0.0235398 0)
(1.53586 -0.0231132 0)
(1.53747 -0.0226369 0)
(1.53904 -0.0221133 0)
(1.54058 -0.0215431 0)
(1.54208 -0.0209286 0)
(1.54354 -0.0202698 0)
(1.54496 -0.01957 0)
(1.54633 -0.0188299 0)
(1.54765 -0.0180538 0)
(1.54893 -0.0172432 0)
(1.55015 -0.0164005 0)
(1.55134 -0.0155245 0)
(1.55248 -0.0146173 0)
(1.55358 -0.0136782 0)
(1.55463 -0.0127082 0)
(1.55565 -0.0117055 0)
(1.55663 -0.0106711 0)
(1.55758 -0.00960534 0)
(1.5585 -0.00850442 0)
(1.55939 -0.00736014 0)
(1.56027 -0.0061661 0)
(1.56114 -0.00491803 0)
(1.56199 -0.00361059 0)
(1.56283 -0.00223662 0)
(1.56368 -0.000787559 0)
(1.56453 0.00074626 0)
(1.5654 0.00237522 0)
(1.56629 0.00411193 0)
(1.5672 0.00596876 0)
(1.56815 0.00795857 0)
(1.56916 0.0100971 0)
(1.57022 0.0124027 0)
(1.57136 0.014895 0)
(1.5726 0.017595 0)
(1.57394 0.0205251 0)
(1.57541 0.0237095 0)
(1.57704 0.0271742 0)
(1.57885 0.0309472 0)
(1.58088 0.0350583 0)
(1.58316 0.0395394 0)
(1.58574 0.0444244 0)
(1.58867 0.0497487 0)
(1.59201 0.055549 0)
(1.59583 0.061862 0)
(1.6002 0.0687222 0)
(1.60521 0.0761596 0)
(1.61097 0.0842007 0)
(1.61759 0.0928678 0)