/*--------------------------------*- C++ -*----------------------------------*\
| =========                 |                                                 |
| \\      /  F ield         | OpenFOAM: The Open Source CFD Toolbox           |
|  \\    /   O peration     | Version:  2206                                  |
|   \\  /    A nd           | Website:  www.openfoam.com                      |
|    \\/     M anipulation  |                                                 |
\*---------------------------------------------------------------------------*/
FoamFile
{
    version     2.0;
    format      ascii;
    arch        "LSB;label=32;scalar=64";
    class       volVectorField;
    location    "19.2999";
    object      U_0;
}
// * * * * * * * * * * * * * * * * * * * * * * * * * * * * * * * * * * * * * //

dimensions      [0 1 -1 0 0 0 0];

internalField   nonuniform List<vector> 
4853
(
(1.78336 -0.357326 0)
(1.78163 -0.37842 0)
(1.77896 -0.396226 0)
(1.77544 -0.410804 0)
(1.77113 -0.422242 0)
(1.76609 -0.430639 0)
(1.76029 -0.436068 0)
(1.75358 -0.438492 0)
(1.74606 -0.437983 0)
(1.7377 -0.434884 0)
(1.72853 -0.429549 0)
(1.71861 -0.422392 0)
(1.70797 -0.41387 0)
(1.6967 -0.404448 0)
(1.68485 -0.394558 0)
(1.67253 -0.384576 0)
(1.65985 -0.374805 0)
(1.64693 -0.365449 0)
(1.63386 -0.356579 0)
(1.62071 -0.348187 0)
(1.60755 -0.340204 0)
(1.59445 -0.33251 0)
(1.58145 -0.324943 0)
(1.56861 -0.317303 0)
(1.55597 -0.309363 0)
(1.54361 -0.300879 0)
(1.53158 -0.291587 0)
(1.51996 -0.281223 0)
(1.50883 -0.269523 0)
(1.49829 -0.256236 0)
(1.48844 -0.241138 0)
(1.47938 -0.224046 0)
(1.47123 -0.204823 0)
(1.46409 -0.183392 0)
(1.45806 -0.159739 0)
(1.45323 -0.133923 0)
(1.44968 -0.106071 0)
(1.44747 -0.0763821 0)
(1.44663 -0.0451179 0)
(1.44719 -0.0126004 0)
(1.44913 0.0208025 0)
(1.45244 0.0546713 0)
(1.45702 0.0885006 0)
(1.46278 0.121841 0)
(1.46963 0.154328 0)
(1.47746 0.185612 0)
(1.48614 0.215368 0)
(1.49555 0.243309 0)
(1.50556 0.26919 0)
(1.51602 0.292817 0)
(1.5268 0.314046 0)
(1.53778 0.332792 0)
(1.54881 0.349021 0)
(1.55978 0.362752 0)
(1.57059 0.374045 0)
(1.58116 0.382999 0)
(1.59141 0.389734 0)
(1.6013 0.394382 0)
(1.6108 0.397077 0)
(1.61987 0.397957 0)
(1.62846 0.39717 0)
(1.63656 0.394893 0)
(1.64412 0.391331 0)
(1.6512 0.386703 0)
(1.65785 0.381204 0)
(1.66416 0.374991 0)
(1.67021 0.368162 0)
(1.67612 0.360757 0)
(1.68199 0.352761 0)
(1.68791 0.344108 0)
(1.69398 0.334689 0)
(1.70026 0.324362 0)
(1.70683 0.31296 0)
(1.71372 0.300307 0)
(1.72096 0.286222 0)
(1.72856 0.270538 0)
(1.73651 0.25311 0)
(1.74476 0.233822 0)
(1.75327 0.212606 0)
(1.76196 0.189438 0)
(1.77077 0.164341 0)
(1.77959 0.137391 0)
(1.78832 0.108709 0)
(1.79687 0.0784574 0)
(1.80515 0.0468433 0)
(1.81305 0.0141177 0)
(1.82048 -0.0193874 0)
(1.82731 -0.0531859 0)
(1.83343 -0.0867879 0)
(1.83876 -0.119813 0)
(1.84325 -0.151899 0)
(1.84684 -0.1827 0)
(1.8495 -0.211899 0)
(1.8512 -0.239214 0)
(1.85191 -0.264395 0)
(1.85163 -0.28723 0)
(1.85036 -0.307547 0)
(1.84811 -0.325221 0)
(1.84491 -0.340162 0)
(1.8408 -0.352323 0)
(1.8358 -0.361688 0)
(1.82987 -0.368226 0)
(1.82282 -0.371822 0)
(1.81471 -0.372409 0)
(1.80554 -0.370244 0)
(1.79535 -0.365642 0)
(1.78426 -0.358993 0)
(1.77239 -0.350752 0)
(1.75987 -0.341412 0)
(1.74687 -0.331473 0)
(1.73359 -0.321436 0)
(1.72023 -0.311741 0)
(1.70693 -0.302635 0)
(1.69382 -0.294254 0)
(1.68101 -0.286639 0)
(1.66858 -0.279744 0)
(1.6566 -0.273448 0)
(1.64514 -0.26756 0)
(1.63422 -0.261833 0)
(1.62389 -0.255979 0)
(1.61415 -0.249677 0)
(1.60504 -0.242615 0)
(1.59657 -0.234501 0)
(1.58874 -0.225061 0)
(1.58155 -0.214061 0)
(1.57503 -0.201307 0)
(1.56918 -0.186657 0)
(1.56402 -0.170019 0)
(1.55954 -0.151353 0)
(1.55576 -0.130677 0)
(1.55268 -0.108047 0)
(1.55029 -0.0836062 0)
(1.54858 -0.0574494 0)
(1.54752 -0.0299508 0)
(1.54715 -0.000743578 0)
(1.54722 0.0284216 0)
(1.54825 0.0615849 0)
(1.54874 0.0871607 0)
(1.55187 0.13441 0)
(1.81771 -0.355 0)
(1.81429 -0.374973 0)
(1.80987 -0.391743 0)
(1.80454 -0.405367 0)
(1.79839 -0.415915 0)
(1.79144 -0.42344 0)
(1.78358 -0.427923 0)
(1.77485 -0.429339 0)
(1.7653 -0.427894 0)
(1.75491 -0.423894 0)
(1.74375 -0.417698 0)
(1.73185 -0.409735 0)
(1.71928 -0.400479 0)
(1.70611 -0.390406 0)
(1.69244 -0.379969 0)
(1.67837 -0.369565 0)
(1.66405 -0.359514 0)
(1.64958 -0.349984 0)
(1.63505 -0.341032 0)
(1.62052 -0.332637 0)
(1.60606 -0.324719 0)
(1.59173 -0.317149 0)
(1.57757 -0.309758 0)
(1.56361 -0.302348 0)
(1.5499 -0.294695 0)
(1.53649 -0.286559 0)
(1.52343 -0.277691 0)
(1.51079 -0.267835 0)
(1.49864 -0.256743 0)
(1.48709 -0.244174 0)
(1.47622 -0.229913 0)
(1.46616 -0.21378 0)
(1.45701 -0.19564 0)
(1.44888 -0.175411 0)
(1.44189 -0.153073 0)
(1.43612 -0.128671 0)
(1.43168 -0.102318 0)
(1.42862 -0.0741899 0)
(1.42701 -0.0445274 0)
(1.42687 -0.0136245 0)
(1.42822 0.0181772 0)
(1.43102 0.0504908 0)
(1.43521 0.0828739 0)
(1.44071 0.114865 0)
(1.44742 0.146117 0)
(1.45523 0.176295 0)
(1.46403 0.205086 0)
(1.47368 0.23221 0)
(1.48405 0.25743 0)
(1.495 0.280552 0)
(1.50638 0.301433 0)
(1.51805 0.319979 0)
(1.52989 0.33615 0)
(1.54177 0.349949 0)
(1.55359 0.361421 0)
(1.56524 0.370643 0)
(1.57667 0.377716 0)
(1.5878 0.382755 0)
(1.59858 0.385887 0)
(1.60899 0.387247 0)
(1.61898 0.38698 0)
(1.62851 0.385248 0)
(1.63759 0.382222 0)
(1.64623 0.378084 0)
(1.65449 0.373004 0)
(1.66243 0.367114 0)
(1.67013 0.360501 0)
(1.6777 0.3532 0)
(1.68523 0.345199 0)
(1.6928 0.336439 0)
(1.7005 0.326825 0)
(1.70841 0.316229 0)
(1.71657 0.304503 0)
(1.72501 0.291491 0)
(1.73377 0.277034 0)
(1.74283 0.260987 0)
(1.75218 0.243227 0)
(1.76176 0.223663 0)
(1.77152 0.202244 0)
(1.78139 0.178962 0)
(1.79126 0.153855 0)
(1.80104 0.127004 0)
(1.81063 0.0985359 0)
(1.81993 0.0686119 0)
(1.82882 0.0374327 0)
(1.83723 0.00525379 0)
(1.84502 -0.0275715 0)
(1.85207 -0.0605383 0)
(1.85825 -0.0932232 0)
(1.86352 -0.125257 0)
(1.86782 -0.156289 0)
(1.87108 -0.185988 0)
(1.87327 -0.214046 0)
(1.87438 -0.240195 0)
(1.87437 -0.2642 0)
(1.87326 -0.285861 0)
(1.87106 -0.305018 0)
(1.86778 -0.321558 0)
(1.86346 -0.335398 0)
(1.85814 -0.346476 0)
(1.8518 -0.354742 0)
(1.8443 -0.360089 0)
(1.8356 -0.362368 0)
(1.82576 -0.361704 0)
(1.81478 -0.358366 0)
(1.80278 -0.352685 0)
(1.78986 -0.345087 0)
(1.77618 -0.336056 0)
(1.7619 -0.326111 0)
(1.74721 -0.315782 0)
(1.73235 -0.3056 0)
(1.71751 -0.295941 0)
(1.70282 -0.287021 0)
(1.6884 -0.278955 0)
(1.67435 -0.271761 0)
(1.66076 -0.265373 0)
(1.64767 -0.259646 0)
(1.63514 -0.254371 0)
(1.62318 -0.249291 0)
(1.61182 -0.244108 0)
(1.60107 -0.238501 0)
(1.59094 -0.232146 0)
(1.58146 -0.22475 0)
(1.57261 -0.21604 0)
(1.56443 -0.205783 0)
(1.55692 -0.193791 0)
(1.55011 -0.179919 0)
(1.54401 -0.164074 0)
(1.53864 -0.146213 0)
(1.53402 -0.126353 0)
(1.53017 -0.104543 0)
(1.52708 -0.0809193 0)
(1.52478 -0.0555763 0)
(1.52321 -0.0288524 0)
(1.52246 -0.000438401 0)
(1.52226 0.0280423 0)
(1.52319 0.0605168 0)
(1.52361 0.0856068 0)
(1.5271 0.13221 0)
(1.85026 -0.350854 0)
(1.84521 -0.369627 0)
(1.83911 -0.385295 0)
(1.83206 -0.397905 0)
(1.82411 -0.407492 0)
(1.81526 -0.414047 0)
(1.80545 -0.417515 0)
(1.79479 -0.417951 0)
(1.78328 -0.415586 0)
(1.77095 -0.410703 0)
(1.75786 -0.403671 0)
(1.74405 -0.394936 0)
(1.72961 -0.384988 0)
(1.71462 -0.374327 0)
(1.6992 -0.363428 0)
(1.68348 -0.352716 0)
(1.66762 -0.342492 0)
(1.65171 -0.332894 0)
(1.63583 -0.323962 0)
(1.62006 -0.315664 0)
(1.60445 -0.307901 0)
(1.58905 -0.300534 0)
(1.57389 -0.293387 0)
(1.55899 -0.286258 0)
(1.54438 -0.278932 0)
(1.5301 -0.271175 0)
(1.5162 -0.262749 0)
(1.50273 -0.253413 0)
(1.48976 -0.242932 0)
(1.47739 -0.231082 0)
(1.4657 -0.217659 0)
(1.45481 -0.202487 0)
(1.44484 -0.185436 0)
(1.43589 -0.166423 0)
(1.42808 -0.145421 0)
(1.42152 -0.122466 0)
(1.41631 -0.0976542 0)
(1.41252 -0.0711435 0)
(1.41022 -0.0431502 0)
(1.40945 -0.0139442 0)
(1.41022 0.0161624 0)
(1.41252 0.0468191 0)
(1.41631 0.0776266 0)
(1.42151 0.108146 0)
(1.42802 0.138034 0)
(1.43574 0.166974 0)
(1.44455 0.194666 0)
(1.45433 0.220842 0)
(1.46493 0.245271 0)
(1.47622 0.267762 0)
(1.48805 0.288171 0)
(1.50029 0.3064 0)
(1.51279 0.322398 0)
(1.52543 0.336156 0)
(1.53811 0.347702 0)
(1.55071 0.357097 0)
(1.56316 0.364424 0)
(1.57538 0.369783 0)
(1.58733 0.373291 0)
(1.59895 0.375073 0)
(1.61021 0.375263 0)
(1.62108 0.374005 0)
(1.63156 0.371448 0)
(1.64166 0.367744 0)
(1.65141 0.363037 0)
(1.66089 0.357439 0)
(1.67015 0.351024 0)
(1.6793 0.34382 0)
(1.6884 0.335817 0)
(1.69755 0.326964 0)
(1.70682 0.317174 0)
(1.71626 0.306337 0)
(1.72592 0.294324 0)
(1.73584 0.280998 0)
(1.74602 0.266225 0)
(1.75645 0.249881 0)
(1.76709 0.231866 0)
(1.7779 0.212111 0)
(1.78881 0.190584 0)
(1.79973 0.167292 0)
(1.81056 0.142286 0)
(1.8212 0.115653 0)
(1.83154 0.0875217 0)
(1.84148 0.0580499 0)
(1.85092 0.0274366 0)
(1.85974 -0.00405302 0)
(1.86783 -0.0360386 0)
(1.87502 -0.0680234 0)
(1.88123 -0.0996423 0)
(1.8864 -0.130537 0)
(1.89046 -0.160369 0)
(1.89337 -0.18882 0)
(1.89509 -0.215598 0)
(1.8956 -0.240446 0)
(1.89489 -0.263147 0)
(1.89297 -0.283514 0)
(1.88985 -0.301401 0)
(1.88556 -0.3167 0)
(1.88014 -0.329325 0)
(1.8736 -0.339188 0)
(1.86586 -0.346173 0)
(1.85677 -0.350121 0)
(1.84643 -0.351 0)
(1.83485 -0.349024 0)
(1.82209 -0.344462 0)
(1.80828 -0.337685 0)
(1.79357 -0.329151 0)
(1.77813 -0.319375 0)
(1.76216 -0.308907 0)
(1.74589 -0.298313 0)
(1.72958 -0.288105 0)
(1.71339 -0.278592 0)
(1.69745 -0.269964 0)
(1.68187 -0.262308 0)
(1.66675 -0.255619 0)
(1.65215 -0.249805 0)
(1.63812 -0.2447 0)
(1.62467 -0.240078 0)
(1.61182 -0.235667 0)
(1.59959 -0.231167 0)
(1.58796 -0.226255 0)
(1.57695 -0.220608 0)
(1.56657 -0.213928 0)
(1.55684 -0.205952 0)
(1.54777 -0.19645 0)
(1.53938 -0.185236 0)
(1.53171 -0.172168 0)
(1.52477 -0.157153 0)
(1.5186 -0.140149 0)
(1.51323 -0.121167 0)
(1.50868 -0.100257 0)
(1.50497 -0.0775412 0)
(1.50213 -0.0531145 0)
(1.50011 -0.0272884 0)
(1.49903 0.000205037 0)
(1.49859 0.027866 0)
(1.49946 0.0594865 0)
(1.49983 0.0839559 0)
(1.50371 0.129662 0)
(1.88053 -0.344962 0)
(1.87394 -0.362466 0)
(1.86625 -0.376973 0)
(1.85755 -0.388505 0)
(1.84789 -0.397052 0)
(1.83723 -0.402556 0)
(1.82562 -0.404975 0)
(1.81313 -0.404433 0)
(1.79976 -0.401138 0)
(1.78557 -0.395372 0)
(1.77062 -0.387518 0)
(1.75497 -0.378041 0)
(1.73872 -0.367452 0)
(1.72198 -0.356277 0)
(1.70489 -0.345026 0)
(1.68764 -0.334133 0)
(1.67035 -0.323854 0)
(1.65312 -0.314307 0)
(1.63603 -0.305515 0)
(1.61916 -0.297425 0)
(1.60256 -0.289923 0)
(1.58626 -0.28285 0)
(1.57027 -0.276022 0)
(1.55461 -0.269238 0)
(1.53929 -0.262284 0)
(1.52434 -0.254939 0)
(1.50978 -0.246976 0)
(1.49568 -0.238174 0)
(1.48209 -0.228311 0)
(1.46909 -0.217179 0)
(1.45678 -0.204588 0)
(1.44526 -0.190374 0)
(1.43464 -0.174409 0)
(1.42504 -0.156613 0)
(1.41659 -0.136955 0)
(1.40938 -0.11546 0)
(1.40353 -0.0922123 0)
(1.39912 -0.0673514 0)
(1.39621 -0.0410718 0)
(1.39487 -0.0136162 0)
(1.39512 0.0147307 0)
(1.39695 0.043648 0)
(1.40033 0.0727856 0)
(1.4052 0.101735 0)
(1.41146 0.130154 0)
(1.41901 0.157744 0)
(1.42775 0.184224 0)
(1.43755 0.209336 0)
(1.44827 0.232856 0)
(1.45978 0.254599 0)
(1.47194 0.274419 0)
(1.48459 0.292216 0)
(1.49761 0.307929 0)
(1.51087 0.321537 0)
(1.52425 0.333055 0)
(1.53765 0.342526 0)
(1.55098 0.35002 0)
(1.56416 0.355622 0)
(1.57713 0.359434 0)
(1.58984 0.361569 0)
(1.60225 0.362147 0)
(1.61434 0.361293 0)
(1.6261 0.359136 0)
(1.63754 0.355805 0)
(1.64868 0.351422 0)
(1.65959 0.34608 0)
(1.67032 0.339838 0)
(1.68094 0.332721 0)
(1.69154 0.324715 0)
(1.70217 0.315777 0)
(1.7129 0.305833 0)
(1.72378 0.294786 0)
(1.73486 0.282526 0)
(1.74615 0.268938 0)
(1.75764 0.253908 0)
(1.76933 0.237337 0)
(1.78116 0.219148 0)
(1.79309 0.199291 0)
(1.80502 0.177752 0)
(1.81688 0.154556 0)
(1.82855 0.129759 0)
(1.83994 0.103458 0)
(1.85093 0.0757779 0)
(1.86142 0.0468744 0)
(1.8713 0.0169485 0)
(1.88047 -0.013724 0)
(1.88876 -0.0447018 0)
(1.89603 -0.0755752 0)
(1.90222 -0.105994 0)
(1.90725 -0.135614 0)
(1.91105 -0.16411 0)
(1.91359 -0.191179 0)
(1.91482 -0.216546 0)
(1.91473 -0.239969 0)
(1.91331 -0.261244 0)
(1.91059 -0.280207 0)
(1.90657 -0.296715 0)
(1.90128 -0.31066 0)
(1.89476 -0.321938 0)
(1.88695 -0.330418 0)
(1.87771 -0.335919 0)
(1.86708 -0.338318 0)
(1.85507 -0.337738 0)
(1.84174 -0.334384 0)
(1.82721 -0.328562 0)
(1.81163 -0.320686 0)
(1.79516 -0.311249 0)
(1.77803 -0.300802 0)
(1.76046 -0.28993 0)
(1.74277 -0.279227 0)
(1.72516 -0.269121 0)
(1.70778 -0.259878 0)
(1.69077 -0.251655 0)
(1.67422 -0.244511 0)
(1.65821 -0.238411 0)
(1.64279 -0.233238 0)
(1.62798 -0.228803 0)
(1.61379 -0.224865 0)
(1.60022 -0.221141 0)
(1.58726 -0.217326 0)
(1.57492 -0.213102 0)
(1.56317 -0.208155 0)
(1.55204 -0.202184 0)
(1.54156 -0.194939 0)
(1.53173 -0.186194 0)
(1.52258 -0.175767 0)
(1.51415 -0.163521 0)
(1.50649 -0.149367 0)
(1.49961 -0.133263 0)
(1.49358 -0.115217 0)
(1.48842 -0.0952754 0)
(1.48417 -0.0735505 0)
(1.48085 -0.0501337 0)
(1.47845 -0.0253151 0)
(1.47708 0.00113458 0)
(1.47645 0.027847 0)
(1.47729 0.058461 0)
(1.47764 0.0821826 0)
(1.48193 0.126745 0)
(1.90806 -0.337427 0)
(1.90005 -0.353605 0)
(1.89089 -0.366895 0)
(1.88067 -0.377281 0)
(1.86939 -0.384706 0)
(1.85706 -0.389097 0)
(1.84377 -0.390455 0)
(1.82955 -0.388915 0)
(1.81443 -0.384666 0)
(1.79846 -0.378006 0)
(1.78173 -0.369335 0)
(1.76431 -0.359142 0)
(1.74633 -0.347967 0)
(1.72792 -0.33637 0)
(1.70929 -0.324896 0)
(1.69062 -0.313948 0)
(1.67202 -0.303744 0)
(1.65361 -0.294382 0)
(1.63547 -0.285862 0)
(1.61766 -0.278105 0)
(1.60023 -0.270974 0)
(1.5832 -0.264295 0)
(1.56657 -0.257872 0)
(1.55034 -0.251499 0)
(1.5345 -0.244969 0)
(1.51907 -0.238072 0)
(1.50407 -0.230597 0)
(1.48953 -0.222339 0)
(1.47552 -0.213099 0)
(1.46209 -0.202683 0)
(1.44934 -0.190917 0)
(1.43737 -0.177649 0)
(1.42629 -0.162759 0)
(1.41622 -0.146171 0)
(1.40728 -0.127849 0)
(1.39957 -0.107814 0)
(1.39322 -0.0861348 0)
(1.3883 -0.062935 0)
(1.38489 -0.0383876 0)
(1.38306 -0.0127116 0)
(1.38284 0.0138356 0)
(1.38423 0.0409658 0)
(1.38721 0.0683618 0)
(1.39174 0.0956675 0)
(1.39771 0.122536 0)
(1.40504 0.148688 0)
(1.41363 0.17386 0)
(1.42336 0.197808 0)
(1.4341 0.220316 0)
(1.44571 0.241204 0)
(1.45806 0.260328 0)
(1.471 0.277584 0)
(1.4844 0.292904 0)
(1.49814 0.306256 0)
(1.51208 0.317644 0)
(1.52613 0.327096 0)
(1.5402 0.334667 0)
(1.5542 0.340428 0)
(1.56806 0.344467 0)
(1.58172 0.346879 0)
(1.59516 0.34777 0)
(1.60835 0.347247 0)
(1.62127 0.345418 0)
(1.63393 0.342397 0)
(1.64635 0.338286 0)
(1.65858 0.333158 0)
(1.67066 0.327061 0)
(1.68266 0.320013 0)
(1.69463 0.312002 0)
(1.70664 0.302989 0)
(1.71874 0.292912 0)
(1.73097 0.281688 0)
(1.74335 0.269226 0)
(1.75589 0.25543 0)
(1.76859 0.240209 0)
(1.78142 0.223486 0)
(1.79432 0.205205 0)
(1.80723 0.185337 0)
(1.82007 0.163885 0)
(1.83275 0.140885 0)
(1.84515 0.116405 0)
(1.85717 0.0905418 0)
(1.8687 0.0634179 0)
(1.87965 0.0351896 0)
(1.8899 0.00606171 0)
(1.89931 -0.0236452 0)
(1.90772 -0.0534919 0)
(1.91502 -0.0831313 0)
(1.92113 -0.112225 0)
(1.92597 -0.140446 0)
(1.92948 -0.167481 0)
(1.93161 -0.193043 0)
(1.93233 -0.216877 0)
(1.93163 -0.238759 0)
(1.92951 -0.258499 0)
(1.92598 -0.275944 0)
(1.92106 -0.290965 0)
(1.91477 -0.303432 0)
(1.90711 -0.313201 0)
(1.89792 -0.320095 0)
(1.8872 -0.323917 0)
(1.87497 -0.32469 0)
(1.86127 -0.322564 0)
(1.84619 -0.317772 0)
(1.82989 -0.31067 0)
(1.81255 -0.301716 0)
(1.79439 -0.291444 0)
(1.77565 -0.280445 0)
(1.75666 -0.269344 0)
(1.73771 -0.258692 0)
(1.71898 -0.248836 0)
(1.70061 -0.24 0)
(1.68273 -0.232306 0)
(1.66542 -0.225779 0)
(1.64874 -0.220352 0)
(1.6327 -0.215881 0)
(1.61731 -0.212158 0)
(1.60256 -0.208927 0)
(1.58845 -0.205898 0)
(1.57494 -0.202765 0)
(1.56203 -0.199217 0)
(1.54971 -0.194951 0)
(1.53798 -0.189679 0)
(1.52688 -0.183153 0)
(1.51643 -0.175157 0)
(1.50665 -0.165518 0)
(1.49759 -0.154107 0)
(1.48931 -0.140838 0)
(1.48184 -0.125669 0)
(1.47524 -0.108606 0)
(1.46957 -0.089693 0)
(1.46485 -0.0690315 0)
(1.46113 -0.0467092 0)
(1.4584 -0.0229961 0)
(1.4568 0.00230399 0)
(1.45602 0.0279407 0)
(1.45686 0.0574093 0)
(1.45722 0.0802679 0)
(1.46191 0.123451 0)
(1.93251 -0.328385 0)
(1.92321 -0.343189 0)
(1.91272 -0.355204 0)
(1.9011 -0.364372 0)
(1.88833 -0.370603 0)
(1.87451 -0.373828 0)
(1.85966 -0.374091 0)
(1.84381 -0.371503 0)
(1.82703 -0.366261 0)
(1.80936 -0.358682 0)
(1.79091 -0.349194 0)
(1.77179 -0.338316 0)
(1.75215 -0.326624 0)
(1.73219 -0.314722 0)
(1.71214 -0.303166 0)
(1.69217 -0.292302 0)
(1.67241 -0.282318 0)
(1.65297 -0.273288 0)
(1.63395 -0.265181 0)
(1.61538 -0.257891 0)
(1.59731 -0.251253 0)
(1.57973 -0.245074 0)
(1.56265 -0.239145 0)
(1.54604 -0.233256 0)
(1.52988 -0.227205 0)
(1.51417 -0.220793 0)
(1.49892 -0.213833 0)
(1.48415 -0.206135 0)
(1.4699 -0.197518 0)
(1.45624 -0.18781 0)
(1.44324 -0.176855 0)
(1.43101 -0.164516 0)
(1.41965 -0.150683 0)
(1.40927 -0.135281 0)
(1.4 -0.118278 0)
(1.39194 -0.0996848 0)
(1.38522 -0.0795607 0)
(1.37991 -0.0580143 0)
(1.37611 -0.0351991 0)
(1.37387 -0.0113099 0)
(1.37324 0.0134214 0)
(1.37423 0.0387371 0)
(1.37684 0.0643552 0)
(1.38101 0.0899618 0)
(1.38668 0.115223 0)
(1.39375 0.139871 0)
(1.40213 0.16366 0)
(1.41172 0.18636 0)
(1.42238 0.207767 0)
(1.434 0.227706 0)
(1.44643 0.246036 0)
(1.45954 0.26265 0)
(1.47319 0.277475 0)
(1.48726 0.290471 0)
(1.50163 0.30163 0)
(1.5162 0.310968 0)
(1.53086 0.318524 0)
(1.54553 0.324357 0)
(1.56015 0.328537 0)
(1.57465 0.331146 0)
(1.58899 0.332269 0)
(1.60315 0.331999 0)
(1.61712 0.330427 0)
(1.63088 0.327652 0)
(1.64446 0.323757 0)
(1.65789 0.318799 0)
(1.67121 0.312816 0)
(1.68447 0.30582 0)
(1.69771 0.2978 0)
(1.71099 0.288722 0)
(1.72434 0.278534 0)
(1.73779 0.267169 0)
(1.75136 0.254551 0)
(1.76504 0.240605 0)
(1.77883 0.225261 0)
(1.79267 0.208463 0)
(1.80652 0.190175 0)
(1.82029 0.170388 0)
(1.83392 0.149119 0)
(1.84728 0.126416 0)
(1.86029 0.102352 0)
(1.87284 0.077024 0)
(1.88481 0.0505529 0)
(1.89612 0.0230961 0)
(1.90664 -0.00512181 0)
(1.9162 -0.0337176 0)
(1.92465 -0.0623272 0)
(1.93191 -0.0906224 0)
(1.93788 -0.118279 0)
(1.94249 -0.144982 0)
(1.94566 -0.17044 0)
(1.94735 -0.194382 0)
(1.94753 -0.216569 0)
(1.9462 -0.236799 0)
(1.94334 -0.254901 0)
(1.93899 -0.270723 0)
(1.93315 -0.284131 0)
(1.92583 -0.294967 0)
(1.9169 -0.303039 0)
(1.90629 -0.308128 0)
(1.89404 -0.310153 0)
(1.88016 -0.309206 0)
(1.86472 -0.305452 0)
(1.84788 -0.299183 0)
(1.82982 -0.29081 0)
(1.81076 -0.280838 0)
(1.79098 -0.269848 0)
(1.77081 -0.258476 0)
(1.7506 -0.247357 0)
(1.73059 -0.236931 0)
(1.71095 -0.227487 0)
(1.69183 -0.219206 0)
(1.67332 -0.212169 0)
(1.65548 -0.206362 0)
(1.63835 -0.201686 0)
(1.62191 -0.197972 0)
(1.60615 -0.194992 0)
(1.59105 -0.19248 0)
(1.57658 -0.190142 0)
(1.5627 -0.187678 0)
(1.5494 -0.184786 0)
(1.53667 -0.181178 0)
(1.5245 -0.176579 0)
(1.51293 -0.170749 0)
(1.50199 -0.163488 0)
(1.49171 -0.154633 0)
(1.48215 -0.144061 0)
(1.47336 -0.131692 0)
(1.46541 -0.117485 0)
(1.45836 -0.101444 0)
(1.45226 -0.0836087 0)
(1.44716 -0.0640722 0)
(1.44312 -0.0429175 0)
(1.44012 -0.0203943 0)
(1.43833 0.00366262 0)
(1.43745 0.0281119 0)
(1.4383 0.056306 0)
(1.43868 0.0781974 0)
(1.44377 0.119782 0)
(1.9536 -0.318001 0)
(1.94318 -0.331386 0)
(1.93151 -0.342065 0)
(1.91862 -0.349939 0)
(1.90454 -0.354899 0)
(1.88934 -0.356908 0)
(1.87303 -0.356006 0)
(1.85566 -0.352301 0)
(1.83727 -0.34601 0)
(1.81797 -0.337479 0)
(1.79786 -0.327174 0)
(1.77711 -0.315652 0)
(1.7559 -0.303536 0)
(1.73452 -0.291478 0)
(1.71319 -0.279986 0)
(1.69207 -0.26936 0)
(1.67131 -0.259757 0)
(1.65103 -0.251217 0)
(1.63129 -0.243676 0)
(1.61215 -0.236992 0)
(1.59363 -0.230973 0)
(1.57571 -0.225403 0)
(1.55836 -0.220059 0)
(1.54157 -0.21473 0)
(1.52529 -0.209217 0)
(1.50951 -0.203336 0)
(1.49421 -0.196913 0)
(1.4794 -0.189781 0)
(1.46511 -0.181782 0)
(1.4514 -0.172771 0)
(1.43834 -0.162609 0)
(1.42601 -0.151174 0)
(1.41454 -0.13837 0)
(1.40402 -0.124127 0)
(1.39457 -0.108412 0)
(1.38631 -0.0912313 0)
(1.37934 -0.0726349 0)
(1.37377 -0.0527161 0)
(1.36967 -0.0316102 0)
(1.36711 -0.0094915 0)
(1.36614 0.0134303 0)
(1.36679 0.0369269 0)
(1.36905 0.0607501 0)
(1.37288 0.0846241 0)
(1.37823 0.108243 0)
(1.38501 0.13134 0)
(1.39315 0.153689 0)
(1.40253 0.175076 0)
(1.41305 0.195307 0)
(1.42458 0.214217 0)
(1.43699 0.231666 0)
(1.45016 0.247547 0)
(1.46395 0.261784 0)
(1.47824 0.274329 0)
(1.49291 0.285163 0)
(1.50786 0.294292 0)
(1.52299 0.301743 0)
(1.53821 0.307557 0)
(1.55345 0.311791 0)
(1.56865 0.314509 0)
(1.58377 0.315783 0)
(1.59879 0.315685 0)
(1.61368 0.314299 0)
(1.62842 0.311706 0)
(1.64304 0.307971 0)
(1.65755 0.303138 0)
(1.67199 0.297236 0)
(1.68639 0.290273 0)
(1.70078 0.282239 0)
(1.7152 0.273107 0)
(1.72968 0.262832 0)
(1.74424 0.251362 0)
(1.75887 0.238638 0)
(1.77357 0.224602 0)
(1.78831 0.209204 0)
(1.80304 0.19241 0)
(1.81771 0.174201 0)
(1.83222 0.154585 0)
(1.8465 0.133594 0)
(1.86044 0.111282 0)
(1.87395 0.087727 0)
(1.88691 0.0630232 0)
(1.89923 0.0372909 0)
(1.9108 0.0106992 0)
(1.92148 -0.0164752 0)
(1.93108 -0.0438542 0)
(1.93951 -0.0711272 0)
(1.94665 -0.0979765 0)
(1.95242 -0.124089 0)
(1.95672 -0.149166 0)
(1.95949 -0.172934 0)
(1.96069 -0.195148 0)
(1.96029 -0.215587 0)
(1.95828 -0.234063 0)
(1.95467 -0.25042 0)
(1.94946 -0.264507 0)
(1.94266 -0.276154 0)
(1.93417 -0.285173 0)
(1.92386 -0.291333 0)
(1.91179 -0.294452 0)
(1.89791 -0.294572 0)
(1.8823 -0.291797 0)
(1.86508 -0.286355 0)
(1.84644 -0.278603 0)
(1.82663 -0.269012 0)
(1.80594 -0.258141 0)
(1.78469 -0.246619 0)
(1.76331 -0.23513 0)
(1.74211 -0.224207 0)
(1.72128 -0.2142 0)
(1.70101 -0.205345 0)
(1.6814 -0.197774 0)
(1.66253 -0.191521 0)
(1.64442 -0.186532 0)
(1.62708 -0.182675 0)
(1.61048 -0.179757 0)
(1.59458 -0.177538 0)
(1.57934 -0.175745 0)
(1.56471 -0.174087 0)
(1.55066 -0.172268 0)
(1.53714 -0.170001 0)
(1.52415 -0.167013 0)
(1.5117 -0.16305 0)
(1.4998 -0.157887 0)
(1.48851 -0.151342 0)
(1.47787 -0.143258 0)
(1.46793 -0.133523 0)
(1.45877 -0.122061 0)
(1.45045 -0.108833 0)
(1.44304 -0.0938422 0)
(1.43661 -0.0771233 0)
(1.43121 -0.058761 0)
(1.42691 -0.0388343 0)
(1.42372 -0.0175722 0)
(1.42179 0.00516063 0)
(1.42082 0.0283294 0)
(1.42172 0.0551346 0)
(1.42214 0.0759652 0)
(1.4276 0.115748 0)
(1.97118 -0.306459 0)
(1.95979 -0.31838 0)
(1.94709 -0.327651 0)
(1.93308 -0.334145 0)
(1.91784 -0.337753 0)
(1.90136 -0.338459 0)
(1.88367 -0.336295 0)
(1.86481 -0.331382 0)
(1.84488 -0.323974 0)
(1.82397 -0.314457 0)
(1.80226 -0.303344 0)
(1.77994 -0.291243 0)
(1.75729 -0.278837 0)
(1.73463 -0.266788 0)
(1.71216 -0.255525 0)
(1.69007 -0.245309 0)
(1.6685 -0.236262 0)
(1.64757 -0.228382 0)
(1.62733 -0.221563 0)
(1.60783 -0.215629 0)
(1.58906 -0.210355 0)
(1.57099 -0.205503 0)
(1.55359 -0.200839 0)
(1.53681 -0.196147 0)
(1.52061 -0.191229 0)
(1.50494 -0.185914 0)
(1.48977 -0.180047 0)
(1.47511 -0.173487 0)
(1.46097 -0.166103 0)
(1.44739 -0.157771 0)
(1.43444 -0.148378 0)
(1.42221 -0.137818 0)
(1.41078 -0.126006 0)
(1.40028 -0.112881 0)
(1.3908 -0.0984096 0)
(1.38247 -0.0825957 0)
(1.37539 -0.0654838 0)
(1.36966 -0.0471577 0)
(1.36536 -0.0277327 0)
(1.36256 -0.00735806 0)
(1.36132 0.0137745 0)
(1.36169 0.0354718 0)
(1.36364 0.0575203 0)
(1.36716 0.0796564 0)
(1.37219 0.101611 0)
(1.37867 0.123128 0)
(1.38653 0.143998 0)
(1.39567 0.164022 0)
(1.40598 0.183019 0)
(1.41735 0.200831 0)
(1.42967 0.217325 0)
(1.4428 0.232393 0)
(1.45663 0.245957 0)
(1.47103 0.257962 0)
(1.48588 0.268382 0)
(1.5011 0.277212 0)
(1.51657 0.284464 0)
(1.53221 0.290169 0)
(1.54796 0.294367 0)
(1.56375 0.297107 0)
(1.57954 0.298444 0)
(1.59529 0.298442 0)
(1.61098 0.29717 0)
(1.62659 0.294695 0)
(1.64212 0.291064 0)
(1.65759 0.286312 0)
(1.67302 0.280458 0)
(1.68843 0.273511 0)
(1.70385 0.26546 0)
(1.71929 0.256283 0)
(1.73478 0.245946 0)
(1.75031 0.234409 0)
(1.76588 0.221628 0)
(1.78147 0.207564 0)
(1.79703 0.192184 0)
(1.81252 0.175471 0)
(1.82787 0.157427 0)
(1.843 0.138072 0)
(1.85781 0.117448 0)
(1.8722 0.0956159 0)
(1.88608 0.0726527 0)
(1.89936 0.0486521 0)
(1.91193 0.0237404 0)
(1.92366 -0.0018792 0)
(1.93437 -0.0278776 0)
(1.94393 -0.0539516 0)
(1.95224 -0.079798 0)
(1.95918 -0.105107 0)
(1.96466 -0.129575 0)
(1.96859 -0.152921 0)
(1.97089 -0.174896 0)
(1.97152 -0.195279 0)
(1.97047 -0.213871 0)
(1.96773 -0.2305 0)
(1.96329 -0.245002 0)
(1.95717 -0.257204 0)
(1.94927 -0.266933 0)
(1.93945 -0.273932 0)
(1.92772 -0.277951 0)
(1.91401 -0.278977 0)
(1.89838 -0.277061 0)
(1.88094 -0.272375 0)
(1.86188 -0.265224 0)
(1.84144 -0.256039 0)
(1.81994 -0.245353 0)
(1.79774 -0.233784 0)
(1.77528 -0.222021 0)
(1.75297 -0.210689 0)
(1.73106 -0.200193 0)
(1.70972 -0.190815 0)
(1.68912 -0.182733 0)
(1.66933 -0.176024 0)
(1.65038 -0.170672 0)
(1.63229 -0.166584 0)
(1.61501 -0.163599 0)
(1.5985 -0.161506 0)
(1.5827 -0.160054 0)
(1.56753 -0.158965 0)
(1.55294 -0.157952 0)
(1.53888 -0.156736 0)
(1.52532 -0.155045 0)
(1.51224 -0.152631 0)
(1.49965 -0.149262 0)
(1.48758 -0.144733 0)
(1.47608 -0.138873 0)
(1.46521 -0.131541 0)
(1.45502 -0.122633 0)
(1.4456 -0.112076 0)
(1.43702 -0.0998355 0)
(1.42936 -0.0859115 0)
(1.42269 -0.0703361 0)
(1.41708 -0.0531852 0)
(1.4126 -0.0345327 0)
(1.40926 -0.0145881 0)
(1.40724 0.00675959 0)
(1.40622 0.028564 0)
(1.40717 0.0538812 0)
(1.40763 0.0735711 0)
(1.41345 0.111368 0)
(1.98517 -0.293956 0)
(1.97298 -0.304354 0)
(1.95937 -0.312128 0)
(1.9444 -0.317125 0)
(1.92805 -0.319279 0)
(1.91034 -0.318561 0)
(1.8913 -0.315007 0)
(1.87098 -0.308779 0)
(1.84949 -0.300181 0)
(1.82701 -0.289655 0)
(1.80373 -0.277771 0)
(1.77994 -0.265201 0)
(1.756 -0.252692 0)
(1.73222 -0.240829 0)
(1.7088 -0.229984 0)
(1.68594 -0.22037 0)
(1.66379 -0.212065 0)
(1.64243 -0.20502 0)
(1.62191 -0.199084 0)
(1.60227 -0.194041 0)
(1.58346 -0.189635 0)
(1.56547 -0.185608 0)
(1.54821 -0.181711 0)
(1.53165 -0.177721 0)
(1.5157 -0.173449 0)
(1.50032 -0.168736 0)
(1.48548 -0.163446 0)
(1.47115 -0.157464 0)
(1.45733 -0.150684 0)
(1.44406 -0.143009 0)
(1.4314 -0.134351 0)
(1.41941 -0.124627 0)
(1.40819 -0.113766 0)
(1.39784 -0.101714 0)
(1.38848 -0.0884401 0)
(1.38021 -0.0739424 0)
(1.37314 -0.0582554 0)
(1.36737 -0.0414547 0)
(1.36298 -0.0236445 0)
(1.36002 -0.00495847 0)
(1.3586 0.0144108 0)
(1.35869 0.0343097 0)
(1.36037 0.0546032 0)
(1.3636 0.0750296 0)
(1.36833 0.0953148 0)
(1.37453 0.115245 0)
(1.3821 0.134615 0)
(1.39097 0.153244 0)
(1.40104 0.170965 0)
(1.41221 0.187628 0)
(1.42436 0.203105 0)
(1.43738 0.21729 0)
(1.45115 0.230104 0)
(1.46556 0.241489 0)
(1.48051 0.25141 0)
(1.49588 0.259852 0)
(1.51159 0.266818 0)
(1.52755 0.272323 0)
(1.5437 0.276394 0)
(1.55996 0.279066 0)
(1.5763 0.280384 0)
(1.59267 0.280403 0)
(1.60904 0.279179 0)
(1.62538 0.276758 0)
(1.64171 0.273176 0)
(1.65802 0.268459 0)
(1.67431 0.262624 0)
(1.69061 0.255674 0)
(1.70693 0.247603 0)
(1.72326 0.238393 0)
(1.73962 0.22802 0)
(1.756 0.216455 0)
(1.77237 0.203669 0)
(1.78871 0.189638 0)
(1.80497 0.174348 0)
(1.82109 0.157796 0)
(1.83699 0.139999 0)
(1.85259 0.12099 0)
(1.86781 0.100818 0)
(1.88254 0.0795454 0)
(1.8967 0.0572472 0)
(1.91019 0.0340221 0)
(1.9229 0.0100198 0)
(1.93465 -0.0144872 0)
(1.94528 -0.0392229 0)
(1.95469 -0.063907 0)
(1.96277 -0.0882406 0)
(1.96941 -0.11192 0)
(1.97451 -0.134641 0)
(1.97797 -0.156143 0)
(1.97969 -0.176222 0)
(1.97965 -0.19469 0)
(1.97786 -0.211348 0)
(1.97432 -0.226011 0)
(1.969 -0.238531 0)
(1.96183 -0.248731 0)
(1.95264 -0.256329 0)
(1.94138 -0.261025 0)
(1.92798 -0.262754 0)
(1.91245 -0.261527 0)
(1.8949 -0.257467 0)
(1.87551 -0.250836 0)
(1.85455 -0.242027 0)
(1.83235 -0.231545 0)
(1.80931 -0.219987 0)
(1.78588 -0.208041 0)
(1.76256 -0.196391 0)
(1.73965 -0.185495 0)
(1.71736 -0.175675 0)
(1.69588 -0.167144 0)
(1.67529 -0.160015 0)
(1.65566 -0.154308 0)
(1.63696 -0.149959 0)
(1.61918 -0.146841 0)
(1.60225 -0.144765 0)
(1.58609 -0.143499 0)
(1.5706 -0.142788 0)
(1.55571 -0.142359 0)
(1.54135 -0.141941 0)
(1.52747 -0.141271 0)
(1.51402 -0.140103 0)
(1.50101 -0.138209 0)
(1.48844 -0.135385 0)
(1.47634 -0.131446 0)
(1.46477 -0.126235 0)
(1.45379 -0.119628 0)
(1.44349 -0.111527 0)
(1.43392 -0.101865 0)
(1.4252 -0.0906101 0)
(1.41738 -0.0777599 0)
(1.41056 -0.0633433 0)
(1.40481 -0.0474282 0)
(1.40022 -0.0300828 0)
(1.39679 -0.0114967 0)
(1.39471 0.00841589 0)
(1.39367 0.0287946 0)
(1.39468 0.0525424 0)
(1.39519 0.0710239 0)
(1.40132 0.106673 0)
(1.99556 -0.280685 0)
(1.98268 -0.289465 0)
(1.9683 -0.295598 0)
(1.9524 -0.298981 0)
(1.93497 -0.299534 0)
(1.91602 -0.297222 0)
(1.89558 -0.29213 0)
(1.87375 -0.284478 0)
(1.85069 -0.274632 0)
(1.82663 -0.263106 0)
(1.80185 -0.250541 0)
(1.77673 -0.237688 0)
(1.75169 -0.225286 0)
(1.72699 -0.21382 0)
(1.70286 -0.203603 0)
(1.67948 -0.194799 0)
(1.65699 -0.187431 0)
(1.63545 -0.181397 0)
(1.61491 -0.1765 0)
(1.59536 -0.172482 0)
(1.57676 -0.16906 0)
(1.55904 -0.16595 0)
(1.54214 -0.162893 0)
(1.52597 -0.159664 0)
(1.51046 -0.156082 0)
(1.49555 -0.152001 0)
(1.48119 -0.147307 0)
(1.46736 -0.141906 0)
(1.45403 -0.135719 0)
(1.44124 -0.128677 0)
(1.42902 -0.120715 0)
(1.41744 -0.111776 0)
(1.40657 -0.101806 0)
(1.39652 -0.0907623 0)
(1.38739 -0.0786228 0)
(1.37929 -0.0653875 0)
(1.37233 -0.0510811 0)
(1.36663 -0.0357579 0)
(1.36224 -0.0195079 0)
(1.35925 -0.00244787 0)
(1.35782 0.0152819 0)
(1.35763 0.0335053 0)
(1.35896 0.0520433 0)
(1.362 0.0707176 0)
(1.36646 0.0893273 0)
(1.37238 0.107669 0)
(1.37968 0.125542 0)
(1.38826 0.142764 0)
(1.39807 0.159182 0)
(1.40898 0.174658 0)
(1.42092 0.189071 0)
(1.43377 0.202318 0)
(1.44742 0.214318 0)
(1.46177 0.22501 0)
(1.47672 0.234354 0)
(1.49216 0.242326 0)
(1.50802 0.248918 0)
(1.5242 0.254133 0)
(1.54064 0.257988 0)
(1.55729 0.26051 0)
(1.57406 0.261734 0)
(1.59093 0.261704 0)
(1.60786 0.260458 0)
(1.62483 0.258028 0)
(1.64182 0.254443 0)
(1.65884 0.249721 0)
(1.67588 0.243875 0)
(1.69294 0.236909 0)
(1.71002 0.228817 0)
(1.72711 0.219588 0)
(1.74421 0.209206 0)
(1.7613 0.197653 0)
(1.77834 0.184914 0)
(1.79529 0.170978 0)
(1.81211 0.155847 0)
(1.82872 0.139533 0)
(1.84504 0.122064 0)
(1.861 0.103482 0)
(1.8765 0.0838369 0)
(1.89146 0.0631921 0)
(1.90579 0.041624 0)
(1.91938 0.0192497 0)
(1.93208 -0.00370602 0)
(1.94372 -0.0269948 0)
(1.95417 -0.0503755 0)
(1.96331 -0.0735781 0)
(1.97102 -0.0963209 0)
(1.97721 -0.118306 0)
(1.98178 -0.139206 0)
(1.98464 -0.158743 0)
(1.98566 -0.176785 0)
(1.98485 -0.193226 0)
(1.98225 -0.207866 0)