/*--------------------------------*- C++ -*----------------------------------*\
| =========                 |                                                 |
| \\      /  F ield         | OpenFOAM: The Open Source CFD Toolbox           |
|  \\    /   O peration     | Version:  2206                                  |
|   \\  /    A nd           | Website:  www.openfoam.com                      |
|    \\/     M anipulation  |                                                 |
\*---------------------------------------------------------------------------*/
FoamFile
{
    version     2.0;
    format      ascii;
    arch        "LSB;label=32;scalar=64";
    class       surfaceScalarField;
    location    "19.2999";
    object      ddtCorrDdt0(phi);
}
// * * * * * * * * * * * * * * * * * * * * * * * * * * * * * * * * * * * * * //

dimensions      [0 3 -2 0 0 0 0];

oriented        oriented;

internalField   nonuniform List<scalar> 
3505
(
-6.55423e-12
1.19905e-10
-1.12832e-10
-2.44187e-11
3.66059e-10
-3.47787e-10
-5.53226e-11
6.06577e-10
-5.75312e-10
-9.85342e-11
8.30631e-10
-7.87279e-10
-1.52312e-10
1.03755e-09
-9.8348e-10
-2.1556e-10
1.22088e-09
-1.15766e-09
-2.8687e-10
1.37261e-09
-1.30113e-09
-3.65243e-10
1.48875e-09
-1.41054e-09
-4.48777e-10
1.56937e-09
-1.48579e-09
-5.35785e-10
1.61727e-09
-1.53018e-09
-6.24454e-10
1.63785e-09
-1.5482e-09
-7.14075e-10
1.63521e-09
-1.54549e-09
-8.03788e-10
1.61787e-09
-1.52794e-09
-8.92835e-10
1.59301e-09
-1.50433e-09
-9.81292e-10
1.57145e-09
-1.48265e-09
-1.06962e-09
1.56272e-09
-1.47426e-09
-1.15884e-09
1.57683e-09
-1.48733e-09
-1.25038e-09
1.6237e-09
-1.53247e-09
-1.34624e-09
1.71273e-09
-1.61624e-09
-1.4492e-09
1.85101e-09
-1.74795e-09
-1.56249e-09
2.04514e-09
-1.93166e-09
-1.68882e-09
2.3009e-09
-2.17485e-09
-1.83173e-09
2.62257e-09
-2.4796e-09
-1.99534e-09
3.01396e-09
-2.85093e-09
-2.18398e-09
3.47666e-09
-3.2882e-09
-2.40152e-09
4.01163e-09
-3.79492e-09
-2.65301e-09
4.6197e-09
-4.36863e-09
-2.9412e-09
5.29989e-09
-5.01266e-09
-3.27515e-09
6.05725e-09
-5.72271e-09
-3.65427e-09
6.88686e-09
-6.50774e-09
-4.08578e-09
7.79058e-09
-7.35888e-09
-4.57502e-09
8.77303e-09
-8.28404e-09
-5.12264e-09
9.83355e-09
-9.28577e-09
-5.73984e-09
1.0985e-08
-1.03672e-08
-6.42304e-09
1.22298e-08
-1.15438e-08
-7.18795e-09
1.35811e-08
-1.28158e-08
-8.03349e-09
1.50514e-08
-1.42051e-08
-8.97274e-09
1.66559e-08
-1.57179e-08
-1.00112e-08
1.84215e-08
-1.73815e-08
-1.11529e-08
2.03564e-08
-1.92156e-08
-1.24225e-08
2.2504e-08
-2.12357e-08
-1.38107e-08
2.48723e-08
-2.34838e-08
-1.53546e-08
2.75146e-08
-2.59695e-08
-1.7047e-08
3.04491e-08
-2.87536e-08
-1.89229e-08
3.37197e-08
-3.18423e-08
-2.09987e-08
3.73756e-08
-3.53007e-08
-2.32868e-08
4.14486e-08
-3.91594e-08
-2.58376e-08
4.60166e-08
-4.34666e-08
-2.86365e-08
5.10923e-08
-4.82916e-08
-3.17665e-08
5.67854e-08
-5.36511e-08
-3.52041e-08
6.31006e-08
-5.96605e-08
-3.90478e-08
7.01578e-08
-6.63104e-08
-4.33049e-08
7.80044e-08
-7.37455e-08
-4.80398e-08
8.67243e-08
-8.19911e-08
-5.33236e-08
9.64408e-08
-9.11583e-08
-5.91697e-08
1.07214e-07
-1.0137e-07
-6.57065e-08
1.19208e-07
-1.1267e-07
-7.29308e-08
1.32505e-07
-1.2528e-07
-8.10191e-08
1.473e-07
-1.3921e-07
-8.99559e-08
1.63676e-07
-1.54742e-07
-9.99354e-08
1.81905e-07
-1.71925e-07
-1.11026e-07
2.02125e-07
-1.91038e-07
-1.2327e-07
2.24448e-07
-2.12204e-07
-1.37091e-07
2.49507e-07
-2.35688e-07
-1.52165e-07
2.76788e-07
-2.61713e-07
-1.69132e-07
3.07443e-07
-2.9048e-07
-1.87861e-07
3.41162e-07
-3.22434e-07
-2.07989e-07
3.77982e-07
-3.57859e-07
-2.30354e-07
4.20171e-07
-3.97808e-07
-2.56662e-07
4.66281e-07
-4.39977e-07
-2.84102e-07
5.18041e-07
-4.90601e-07
-3.14866e-07
5.75189e-07
-5.44431e-07
-3.49105e-07
6.38512e-07
-6.04275e-07
-3.87043e-07
7.08657e-07
-6.70725e-07
-4.28972e-07
7.86438e-07
-7.44511e-07
-4.75387e-07
8.72739e-07
-8.26329e-07
-5.26847e-07
9.68429e-07
-9.1697e-07
-5.84027e-07
1.07452e-06
-1.01735e-06
-6.47611e-07
1.19212e-06
-1.12854e-06
-7.18373e-07
1.32254e-06
-1.25178e-06
-7.97153e-07
1.46719e-06
-1.38841e-06
-8.84889e-07
1.62769e-06
-1.53995e-06
-9.82595e-07
1.80584e-06
-1.70813e-06
-1.09138e-06
2.00367e-06
-1.8949e-06
-1.21246e-06
2.22341e-06
-2.10233e-06
-1.34736e-06
2.46751e-06
-2.33262e-06
-1.49788e-06
2.7387e-06
-2.58818e-06
-1.66616e-06
3.04013e-06
-2.87186e-06
-1.85461e-06
3.37556e-06
-3.18711e-06
-2.06579e-06
3.74929e-06
-3.53812e-06
-2.30262e-06
4.16642e-06
-3.9296e-06
-2.56855e-06
4.63324e-06
-4.36733e-06
-2.86711e-06
5.15728e-06
-4.85873e-06
-3.20173e-06
5.74843e-06
-5.41383e-06
-3.57482e-06
6.41995e-06
-6.04688e-06
-3.98333e-06
7.18927e-06
-6.78078e-06
-4.42265e-06
8.08287e-06
-7.64355e-06
-4.868e-06
9.148e-06
-8.70266e-06
-5.29014e-06
1.04542e-05
-1.00321e-05
-5.31322e-06
1.21236e-05
-1.21005e-05
-4.66829e-06
1.42458e-05
-1.48907e-05
1.77951e-05
-2.24634e-05
-5.58223e-12
1.25882e-10
-1.91443e-11
3.79826e-10
-4.34588e-11
6.31181e-10
-7.80738e-11
8.65361e-10
-1.21361e-10
1.08118e-09
-1.71649e-10
1.2713e-09
-2.27931e-10
1.42929e-09
-2.89368e-10
1.55029e-09
-3.54924e-10
1.63506e-09
-4.22904e-10
1.68597e-09
-4.92198e-10
1.70765e-09
-5.62434e-10
1.70564e-09
-6.32706e-10
1.68814e-09
-7.03202e-10
1.66279e-09
-7.72797e-10
1.64153e-09
-8.42546e-10
1.63224e-09
-9.12886e-10
1.64798e-09
-9.85423e-10
1.69634e-09
-1.06085e-09
1.78957e-09
-1.14224e-09
1.932e-09
-1.23142e-09
2.13483e-09
-1.33136e-09
2.4001e-09
-1.44451e-09
2.73651e-09
-1.57414e-09
3.14326e-09
-1.72325e-09
3.62688e-09
-1.89581e-09
4.18378e-09
-2.09498e-09
4.81992e-09
-2.32398e-09
5.52882e-09
-2.5866e-09
6.32154e-09
-2.88568e-09
7.18518e-09
-3.2277e-09
8.13302e-09
-3.61346e-09
9.15792e-09
-4.04805e-09
1.02682e-08
-4.53348e-09
1.14726e-08
-5.07269e-09
1.27706e-08
-5.676e-09
1.41855e-08
-6.34398e-09
1.57187e-08
-7.08673e-09
1.73997e-08
-7.90259e-09
1.92379e-08
-8.8078e-09
2.12617e-08
-9.80435e-09
2.34996e-08
-1.09042e-08
2.59715e-08
-1.21195e-08
2.87312e-08
-1.34528e-08
3.1783e-08
-1.49405e-08
3.52067e-08
-1.65693e-08
3.90061e-08
-1.83887e-08
4.32682e-08
-2.03872e-08
4.80172e-08
-2.26089e-08
5.33166e-08
-2.50698e-08
5.92461e-08
-2.77896e-08
6.58237e-08
-3.08293e-08
7.31975e-08
-3.41786e-08
8.13541e-08
-3.7938e-08
9.04816e-08
-4.20861e-08
1.00584e-07
-4.6723e-08
1.11851e-07
-5.18601e-08
1.24345e-07
-5.75795e-08
1.38228e-07
-6.3936e-08
1.53655e-07
-7.09841e-08
1.70725e-07
-7.88747e-08
1.89792e-07
-8.75014e-08
2.10754e-07
-9.73366e-08
2.34283e-07
-1.07977e-07
2.60152e-07
-1.20122e-07
2.8893e-07
-1.3358e-07
3.20901e-07
-1.48439e-07
3.56017e-07
-1.65212e-07
3.94756e-07
-1.82514e-07
4.37473e-07
-2.02628e-07
4.86398e-07
-2.24517e-07
5.39925e-07
-2.48835e-07
5.99506e-07
-2.75797e-07
6.65468e-07
-3.05654e-07
7.38514e-07
-3.38746e-07
8.19528e-07
-3.75424e-07
9.09418e-07
-4.16115e-07
1.00912e-06
-4.61288e-07
1.1197e-06
-5.11493e-07
1.24233e-06
-5.67338e-07
1.37838e-06
-6.29503e-07
1.52935e-06
-6.98736e-07
1.69692e-06
-7.75879e-07
1.88298e-06
-8.61834e-07
2.08963e-06
-9.57639e-07
2.31921e-06
-1.06447e-06
2.57435e-06
-1.18372e-06
2.85795e-06
-1.31697e-06
3.17338e-06
-1.46597e-06
3.52455e-06
-1.63249e-06
3.9158e-06
-1.81854e-06
4.35246e-06
-2.0259e-06
4.8406e-06
-2.25598e-06
5.38735e-06
-2.50912e-06
6.00156e-06
-2.78194e-06
6.69276e-06
-3.0662e-06
7.47353e-06
-3.34666e-06
8.36332e-06
-3.57923e-06
9.38057e-06
-3.67818e-06
1.05532e-05
-3.4403e-06
1.18857e-05
-2.59747e-06
1.3403e-05
1.51976e-05
-4.30448e-12
1.30506e-10
-1.38519e-11
3.89673e-10
-3.12036e-11
6.48744e-10
-5.63757e-11
8.90945e-10
-8.80871e-11
1.11313e-09
-1.24796e-10
1.30871e-09
-1.65544e-10
1.47033e-09
-2.09654e-10
1.5949e-09
-2.56534e-10
1.68217e-09
-3.04935e-10
1.73518e-09
-3.54385e-10
1.75738e-09
-4.04515e-10
1.75627e-09
-4.55113e-10
1.73814e-09
-5.05701e-10
1.7135e-09
-5.55928e-10
1.69178e-09
-6.06405e-10
1.68332e-09
-6.57468e-10
1.69928e-09
-7.09588e-10
1.75001e-09
-7.64143e-10
1.8443e-09
-8.22807e-10
1.99139e-09
-8.87511e-10
2.19886e-09
-9.59941e-10
2.47284e-09
-1.04163e-09
2.81818e-09
-1.13534e-09
3.23823e-09
-1.24337e-09
3.73515e-09
-1.36846e-09
4.31009e-09
-1.51232e-09
4.96395e-09
-1.67799e-09
5.6963e-09
-1.86733e-09
6.5107e-09
-2.0822e-09
7.40097e-09
-2.32962e-09
8.37936e-09
-2.60755e-09
9.43548e-09
-2.92184e-09
1.05824e-08
-3.27117e-09
1.18241e-08
-3.66116e-09
1.31613e-08
-4.09759e-09
1.46234e-08
-4.5795e-09
1.61999e-08
-5.11617e-09
1.79376e-08
-5.70422e-09
1.9826e-08
-6.3577e-09
2.19163e-08
-7.07739e-09
2.42171e-08
-7.87099e-09
2.67645e-08
-8.74846e-09
2.96095e-08
-9.7114e-09
3.27451e-08
-1.07862e-08
3.62833e-08
-1.19604e-08
4.01794e-08
-1.32765e-08
4.45876e-08
-1.47134e-08
4.94539e-08
-1.63239e-08
5.49288e-08
-1.80947e-08
6.1016e-08
-2.00642e-08
6.77955e-08
-2.22552e-08
7.53865e-08
-2.46747e-08
8.3776e-08
-2.73905e-08
9.31908e-08
-3.03825e-08
1.03576e-07
-3.37345e-08
1.152e-07
-3.74406e-08
1.28057e-07
-4.15579e-08
1.42343e-07
-4.61602e-08
1.58262e-07
-5.12044e-08
1.75765e-07
-5.69106e-08
1.955e-07
-6.3077e-08
2.16918e-07
-7.01448e-08
2.41357e-07
-7.76986e-08
2.67702e-07
-8.65106e-08
2.97746e-07
-9.60937e-08
3.30478e-07
-1.07126e-07
3.6705e-07
-1.19324e-07
4.06951e-07
-1.32491e-07
4.50645e-07
-1.46913e-07
5.00817e-07
-1.62972e-07
5.55986e-07
-1.80591e-07
6.17119e-07
-1.99975e-07
6.84851e-07
-2.21386e-07
7.59921e-07
-2.4511e-07
8.43254e-07
-2.71422e-07
9.35727e-07
-3.00644e-07
1.03834e-06
-3.33123e-07
1.15217e-06
-3.69272e-07
1.27848e-06
-4.09527e-07
1.41864e-06
-4.54369e-07
1.5742e-06
-5.04345e-07
1.74689e-06
-5.60055e-07
1.93869e-06
-6.2216e-07
2.15173e-06
-6.91427e-07
2.38848e-06
-7.68715e-07
2.65163e-06
-8.55002e-07
2.94423e-06
-9.51375e-07
3.26974e-06
-1.05897e-06
3.63215e-06
-1.17902e-06
4.03584e-06
-1.31263e-06
4.48608e-06
-1.46053e-06
4.98851e-06
-1.62289e-06
5.54972e-06
-1.79779e-06
6.17647e-06
-1.98143e-06
6.87641e-06
-2.16564e-06
7.65774e-06
-2.33108e-06
8.52876e-06
-2.44005e-06
9.48954e-06
-2.42113e-06
1.05342e-05
-2.16893e-06
1.16335e-05
-1.42367e-06
1.26577e-05
1.3774e-05
-3.26097e-12
-8.35974e-12
-1.88027e-11
-3.50766e-11
-5.49577e-11
1.13365e-09
-7.72193e-11
1.33128e-09
-1.00812e-10
1.49447e-09
-1.26461e-10
1.62065e-09
-1.53628e-10
1.70984e-09
-1.82233e-10
1.76395e-09
-2.11528e-10
1.78749e-09
-2.41684e-10
1.78629e-09
-2.72047e-10
1.76874e-09
-3.02624e-10
1.7442e-09
-3.32872e-10
1.72249e-09
-3.6363e-10
1.71432e-09
-3.94347e-10
1.73093e-09
-4.26278e-10
1.78203e-09
-4.5884e-10
1.87776e-09
-4.94848e-10
2.02688e-09
-5.33887e-10
2.2378e-09
-5.77843e-10
2.51653e-09
-6.27151e-10
2.86809e-09
-6.84196e-10
3.29508e-09
-7.48954e-10
3.80051e-09
-8.24749e-10
4.38564e-09
-9.11199e-10
5.05131e-09
-1.01265e-09
5.79755e-09
-1.12235e-09
6.62156e-09
-1.25247e-09
7.53026e-09
-1.40637e-09
8.53284e-09
-1.57145e-09
9.59986e-09
-1.76275e-09
1.07743e-08
-1.97108e-09
1.20323e-08
-2.20783e-09
1.34002e-08
-2.47007e-09
1.48848e-08
-2.76017e-09
1.64903e-08
-3.08681e-09
1.82641e-08
-3.43717e-09
2.01784e-08
-3.83647e-09
2.23141e-08
-4.26753e-09
2.46467e-08
-4.74942e-09
2.72472e-08
-5.27915e-09
3.01377e-08
-5.85618e-09
3.33241e-08
-6.51372e-09
3.69379e-08
-7.2095e-09
4.08787e-08
-8.01949e-09
4.53944e-08
-8.86916e-09
5.03067e-08
-9.85853e-09
5.59144e-08
-1.0913e-08
6.20728e-08
-1.2112e-08
6.89898e-08
-1.34341e-08
7.67145e-08
-1.48878e-08
8.52228e-08
-1.65432e-08
9.48494e-08
-1.83379e-08
1.05366e-07
-2.03611e-08
1.17229e-07
-2.2617e-08
1.30309e-07
-2.50562e-08
1.44791e-07
-2.78922e-08
1.61091e-07
-3.08458e-08
1.78722e-07
-3.4378e-08
1.99027e-07
-3.79272e-08
2.20472e-07
-4.23357e-08
2.4576e-07
-4.65073e-08
2.71881e-07
-5.19837e-08
3.03214e-07
-5.70982e-08
3.35595e-07
-6.39583e-08
3.73904e-07
-7.23491e-08
4.15346e-07
-8.12275e-08
4.59516e-07
-8.96165e-08
5.09211e-07
-9.92285e-08
5.65589e-07
-1.09887e-07
6.27778e-07
-1.21692e-07
6.9665e-07
-1.34726e-07
7.72957e-07
-1.49132e-07
8.57654e-07
-1.65043e-07
9.5164e-07
-1.82614e-07
1.05591e-06
-2.02035e-07
1.1716e-06
-2.23561e-07
1.3e-06
-2.47483e-07
1.44256e-06
-2.74168e-07
1.60087e-06
-3.04005e-07
1.77673e-06
-3.3739e-07
1.97207e-06
-3.74756e-07
2.1891e-06
-4.16572e-07
2.4303e-06
-4.63323e-07
2.69839e-06
-5.15581e-07
2.99649e-06
-5.73967e-07
3.32813e-06
-6.39092e-07
3.69727e-06
-7.11652e-07
4.10841e-06
-7.92127e-07
4.56656e-06
-8.80823e-07
5.07721e-06
-9.77417e-07
5.64632e-06
-1.08072e-06
6.27978e-06
-1.18829e-06
6.98399e-06
-1.29341e-06
7.76287e-06
-1.38242e-06
8.61776e-06
-1.43447e-06
9.54159e-06
-1.41469e-06
1.05144e-05
-1.28091e-06
1.14997e-05
-1.05833e-06
1.24351e-05
1.27156e-05
-2.10069e-11
-2.80588e-11
-3.49131e-11
-4.19112e-11
-4.97298e-11
-5.79601e-11
-6.67607e-11
-7.5896e-11
-8.57285e-11
-9.56915e-11
-1.05775e-10
-1.16185e-10
-1.26752e-10
-1.37386e-10
-1.4886e-10
-1.60991e-10
-1.7453e-10
-1.89436e-10
-2.05851e-10
-2.24283e-10
-2.45948e-10
-2.70866e-10
-2.99755e-10
-3.33658e-10
-3.73333e-10
-4.25175e-10
-4.5337e-10
-5.14797e-10
-5.76994e-10
-6.40956e-10
-7.32197e-10
-7.99415e-10
-9.22633e-10
-1.00237e-09
-1.14505e-09
-1.26209e-09
-1.40911e-09
-1.58538e-09
-1.72576e-09
-1.97136e-09
-2.12404e-09
-2.42336e-09
-2.63432e-09
-2.94965e-09
-3.28225e-09
-3.58223e-09
-4.08135e-09
-4.37501e-09
-5.03461e-09
-5.41007e-09
-6.1483e-09
-6.75302e-09
-7.46743e-09
-8.42758e-09
-9.11236e-09
-1.04306e-08
-1.12131e-08
-1.27581e-08
-1.38794e-08
-1.53616e-08
-1.7198e-08
-1.79443e-08
-2.06215e-08
-1.94154e-08
-2.60551e-08
-3.22764e-08
-3.64959e-08
-3.96542e-08
-4.31839e-08
-4.69746e-08
-5.12241e-08
-5.60219e-08
-6.14517e-08
-6.76034e-08
-7.4524e-08
-8.23059e-08
-9.10355e-08
-1.00842e-07
-1.11857e-07
-1.2423e-07
-1.38082e-07
-1.53608e-07
-1.70993e-07
-1.90441e-07
-2.12193e-07
-2.36456e-07
-2.63394e-07
-2.93144e-07
-3.25596e-07
-3.6061e-07
-3.97053e-07
-4.33052e-07
-4.65719e-07
-4.90006e-07
-4.96609e-07
-4.55595e-07
-3.45012e-07
-1.92379e-11
1.93976e-11
-6.98904e-11
5.08468e-11
-1.57205e-10
8.73919e-11
-2.47121e-10
9.0077e-11
-3.67703e-10
1.20597e-10
-5.02366e-10
1.34819e-10
-6.50468e-10
1.48114e-10
-8.12536e-10
1.62325e-10
-9.73287e-10
1.60836e-10
-1.13589e-09
1.62937e-10
-1.29232e-09
1.56501e-10
-1.43121e-09
1.39275e-10
-1.55878e-09
1.27649e-10
-1.68008e-09
1.21682e-10
-1.79579e-09
1.1564e-10
-1.90711e-09
1.1163e-10
-2.02063e-09
1.13464e-10
-2.14286e-09
1.2269e-10
-2.28112e-09
1.38217e-10
-2.44374e-09
1.63072e-10
-2.63914e-09
1.95281e-10
-2.8741e-09
2.35423e-10
-3.156e-09
2.81798e-10
-3.49435e-09
3.38776e-10
-3.88298e-09
3.88278e-10
-4.32941e-09
4.46653e-10
-4.83301e-09
5.0313e-10
-5.38993e-09
5.57223e-10
-5.9907e-09
6.00321e-10
-6.63917e-09
6.48844e-10
-7.35168e-09
7.12061e-10
-8.13828e-09
7.87175e-10
-9.01008e-09
8.71478e-10
-9.97683e-09
9.67476e-10
-1.10538e-08
1.07653e-09
-1.22558e-08
1.20287e-09
-1.35953e-08
1.33923e-09
-1.50492e-08
1.45483e-09
-1.66853e-08
1.63564e-09
-1.8554e-08
1.86964e-09
-2.0684e-08
2.12943e-09
-2.30893e-08
2.40619e-09
-2.57863e-08
2.69617e-09
-2.87727e-08
2.98722e-09
-3.20516e-08
3.27803e-09
-3.56525e-08
3.60159e-09
-3.96514e-08
3.99768e-09
-4.41286e-08
4.47789e-09
-4.90683e-08
4.93852e-09
-5.46331e-08
5.56561e-09
-6.08947e-08
6.26009e-09
-6.79771e-08
7.08332e-09
-7.59535e-08
7.97523e-09
-8.49051e-08
8.95267e-09
-9.48936e-08
9.98681e-09
-1.06003e-07
1.11102e-08
-1.18361e-07
1.23571e-08
-1.32033e-07
1.36731e-08
-1.47287e-07
1.52519e-08
-1.64251e-07
1.69647e-08
-1.83165e-07
1.89127e-08
-2.0422e-07
2.1056e-08
-2.27539e-07
2.33159e-08
-2.53769e-07
2.62309e-08
-2.82977e-07
2.92062e-08
-3.15819e-07
3.28426e-08
-3.52623e-07
3.68008e-08
-3.9513e-07
4.25081e-08
-4.37947e-07
4.28144e-08
-4.87381e-07
4.94339e-08
-5.40774e-07
5.33902e-08
-5.98569e-07
5.77957e-08
-6.63938e-07
6.53661e-08
-7.40381e-07
7.64432e-08
-8.29611e-07
8.92273e-08
-9.27166e-07
9.75553e-08
-1.0357e-06
1.0853e-07
-1.15559e-06
1.19891e-07
-1.28793e-06
1.32344e-07
-1.4348e-06
1.46867e-07
-1.59637e-06
1.61563e-07
-1.77451e-06
1.78148e-07
-1.97133e-06
1.96813e-07
-2.18913e-06
2.17801e-07
-2.43019e-06
2.41057e-07
-2.69702e-06
2.66837e-07
-2.99312e-06
2.96096e-07
-3.32231e-06
3.29187e-07
-3.68573e-06
3.63422e-07
-4.08238e-06
3.96652e-07
-4.51066e-06
4.28277e-07
-4.96894e-06
4.58282e-07
-5.47172e-06
5.0277e-07
-6.02181e-06
5.50095e-07
-6.58465e-06
5.62831e-07
-7.14974e-06
5.65092e-07
-7.72765e-06
5.7791e-07
-8.31328e-06
5.85632e-07
-8.89208e-06
5.78807e-07
-9.43955e-06
5.4747e-07
-9.92346e-06
4.8391e-07
3.85731e-07
-1.03092e-05
-6.81884e-12
2.63677e-11
-5.25243e-11
9.67007e-11
-1.41104e-10
1.76081e-10
-2.53014e-10
2.02095e-10
-3.7338e-10
2.41034e-10
-5.05526e-10
2.67068e-10
-6.49185e-10
2.91863e-10
-8.00659e-10
3.13982e-10
-9.59272e-10
3.19629e-10
-1.13093e-09
3.34824e-10
-1.29803e-09
3.23772e-10
-1.44785e-09
2.89365e-10
-1.60317e-09
2.83146e-10
-1.75967e-09
2.78387e-10
-1.91479e-09
2.70836e-10
-2.0656e-09
2.62603e-10
-2.21992e-09
2.67894e-10
-2.38121e-09
2.84253e-10
-2.55455e-09
3.11738e-10
-2.74506e-09
3.53809e-10
-2.95846e-09
4.08789e-10
-3.19927e-09
4.7653e-10
-3.47179e-09
5.54429e-10
-3.8043e-09
6.71388e-10
-4.16814e-09
7.5199e-10
-4.58784e-09
8.66317e-10
-5.06784e-09
9.82919e-10
-5.61875e-09
1.1081e-09
-6.23148e-09
1.2129e-09
-6.91062e-09
1.32803e-09
-7.67599e-09
1.47732e-09
-8.53546e-09
1.64684e-09
-9.49572e-09
1.83181e-09
-1.05655e-08
2.03749e-09
-1.17543e-08
2.26532e-09
-1.30725e-08
2.52147e-09
-1.45646e-08
2.83158e-09
-1.61239e-08
3.01443e-09
-1.78393e-08
3.35105e-09
-1.97366e-08
3.76736e-09
-2.18614e-08
4.25419e-09
-2.42627e-08
4.80778e-09
-2.6932e-08
5.36524e-09
-2.98799e-08
5.93526e-09
-3.31661e-08
6.56404e-09
-3.68538e-08
7.28936e-09
-4.09516e-08
8.09493e-09
-4.54958e-08
9.02213e-09
-5.05462e-08
9.98862e-09
-5.61165e-08
1.11358e-08
-6.22821e-08
1.24251e-08
-6.91214e-08
1.39228e-08
-7.6799e-08
1.56526e-08
-8.53804e-08
1.7534e-08
-9.50177e-08
1.96235e-08
-1.05785e-07
2.1878e-08
-1.17806e-07
2.43775e-08
-1.31289e-07
2.7156e-08
-1.46192e-07
3.01537e-08
-1.62844e-07
3.36167e-08
-1.81272e-07
3.73406e-08
-2.01831e-07
4.16142e-08
-2.24865e-07
4.63491e-08
-2.50335e-07
5.17006e-08
-2.78704e-07
5.75747e-08
-3.1001e-07
6.4147e-08
-3.44566e-07
7.13555e-08
-3.79235e-07
7.71772e-08
-4.24214e-07
8.77924e-08
-4.73917e-07
9.91355e-08
-5.30311e-07
1.09783e-07
-5.9342e-07
1.20904e-07
-6.70167e-07
1.42112e-07
-7.46975e-07
1.5325e-07
-8.29356e-07
1.71607e-07
-9.22251e-07
1.9045e-07
-1.02456e-06
2.10842e-07
-1.13799e-06
2.33321e-07
-1.26411e-06
2.58463e-07
-1.40395e-06
2.86699e-07
-1.56034e-06
3.17951e-07
-1.73504e-06
3.52849e-07
-1.92984e-06
3.91618e-07
-2.14645e-06
4.34406e-07
-2.38621e-06
4.8082e-07
-2.65043e-06
5.31057e-07
-2.94192e-06
5.87585e-07
-3.26652e-06
6.53787e-07
-3.62639e-06
7.23286e-07
-4.02247e-06
7.92735e-07
-4.44866e-06
8.5446e-07
-4.90303e-06
9.12655e-07
-5.39263e-06
9.92368e-07
-5.93082e-06
1.08828e-06
-6.51527e-06
1.14728e-06
-7.14125e-06
1.19108e-06
-7.81755e-06
1.2542e-06
-8.52321e-06
1.2913e-06
-9.22344e-06
1.27904e-06
-9.88759e-06
1.21163e-06
-1.04851e-05
1.08147e-06
8.84679e-07
-1.09841e-05
-1.2122e-11
3.86417e-11
-5.48497e-11
1.3957e-10
-1.09684e-10
2.31026e-10
-1.98148e-10
2.90663e-10
-3.16578e-10
3.59559e-10
-4.55425e-10
4.06012e-10
-6.20482e-10
4.57031e-10
-7.70051e-10
4.63723e-10
-9.3111e-10
4.80872e-10
-1.09996e-09
5.03885e-10
-1.28724e-09
5.11261e-10
-1.51326e-09
5.15611e-10
-1.71926e-09
4.89332e-10
-1.9004e-09
4.59678e-10
-2.06866e-09
4.39184e-10
-2.23129e-09
4.25361e-10
-2.3932e-09
4.30002e-10
-2.55831e-09
4.49603e-10
-2.73137e-09
4.8495e-10
-2.91857e-09
5.41217e-10
-3.12911e-09
6.19606e-10
-3.37061e-09
7.18261e-10
-3.65025e-09
8.34133e-10
-3.97579e-09
9.9693e-10
-4.35531e-09
1.13145e-09
-4.79414e-09
1.30502e-09
-5.31334e-09
1.50192e-09
-5.9006e-09
1.69523e-09
-6.55101e-09
1.86323e-09
-7.301e-09
2.07797e-09
-8.157e-09
2.33331e-09
-9.12246e-09
2.61242e-09
-1.0202e-08
2.91136e-09
-1.14048e-08
3.24054e-09
-1.27386e-08
3.59932e-09
-1.42136e-08
3.99685e-09
-1.58409e-08
4.45908e-09
-1.76348e-08
4.80854e-09
-1.96372e-08
5.35362e-09
-2.17721e-08
5.90235e-09
-2.40907e-08
6.57293e-09
-2.67302e-08
7.44733e-09
-2.97056e-08
8.34059e-09
-3.29455e-08
9.17517e-09
-3.65554e-08
1.01739e-08
-4.0549e-08
1.12827e-08
-4.4986e-08
1.25317e-08
-4.99192e-08
1.39553e-08
-5.54398e-08
1.55088e-08
-6.14678e-08
1.71634e-08
-6.80865e-08
1.90438e-08
-7.544e-08
2.12764e-08
-8.36119e-08
2.38243e-08
-9.27342e-08
2.66561e-08
-1.02903e-07
2.97918e-08
-1.14273e-07
3.32485e-08
-1.26973e-07
3.7077e-08
-1.41092e-07
4.1275e-08
-1.56836e-07
4.5897e-08
-1.74286e-07
5.10664e-08
-1.93759e-07
5.68126e-08
-2.15352e-07
6.32065e-08
-2.39309e-07
7.03055e-08
-2.65837e-07
7.82286e-08
-2.9522e-07
8.69571e-08
-3.27667e-07
9.65927e-08
-3.63034e-07
1.06722e-07
-4.04197e-07
1.18339e-07
-4.51747e-07
1.35342e-07
-5.02513e-07
1.499e-07
-5.58111e-07
1.6538e-07
-6.19776e-07
1.82568e-07
-6.90729e-07
2.13064e-07
-7.67085e-07
2.29605e-07
-8.51398e-07
2.55918e-07
-9.445e-07
2.83551e-07
-1.04806e-06
3.14398e-07
-1.16371e-06
3.48967e-07
-1.29248e-06
3.87236e-07
-1.43579e-06
4.30014e-07
-1.59582e-06
4.77973e-07
-1.77446e-06
5.31495e-07
-1.97345e-06
5.90599e-07
-2.19452e-06
6.55476e-07
-2.43704e-06
7.2334e-07
-2.70158e-06
7.95602e-07
-2.99321e-06
8.79209e-07
-3.31593e-06
9.76511e-07
-3.66995e-06
1.07731e-06
-4.06144e-06
1.18422e-06
-4.48404e-06
1.27707e-06
-4.95665e-06
1.38526e-06
-5.49581e-06
1.53153e-06
-6.05999e-06
1.65246e-06
-6.69384e-06
1.78114e-06
-7.40769e-06
1.90492e-06
-8.13279e-06
1.9793e-06
-8.8647e-06
2.02321e-06
-9.60417e-06
2.01851e-06
-1.0332e-05
1.93944e-06
-1.10103e-05
1.75975e-06
1.46438e-06
-1.159e-05
-1.34479e-11
5.22236e-11
-4.53623e-11
1.71614e-10
-1.07449e-10
2.93228e-10
-1.94877e-10
3.78208e-10
-3.08061e-10
4.72845e-10
-4.38847e-10
5.36892e-10
-5.85488e-10
6.0379e-10
-7.49577e-10
6.27967e-10
-9.22525e-10
6.54018e-10
-1.11218e-09
6.93751e-10
-1.28845e-09
6.87747e-10
-1.45551e-09
6.82889e-10
-1.63371e-09
6.67711e-10
-1.81962e-09
6.45691e-10
-2.0069e-09
6.26538e-10
-2.19575e-09
6.14382e-10
-2.3833e-09
6.17758e-10
-2.57267e-09
6.39116e-10
-2.76738e-09
6.7983e-10
-2.9749e-09
7.49027e-10
-3.19784e-09
8.42835e-10
-3.44543e-09
9.65999e-10
-3.7274e-09
1.11613e-09
-4.03085e-09
1.30038e-09
-4.39903e-09
1.49956e-09
-4.8221e-09
1.72791e-09
-5.28616e-09
1.96576e-09
-5.84433e-09
2.25326e-09
-6.56476e-09
2.58355e-09
-7.39953e-09
2.91269e-09
-8.31434e-09
3.24813e-09
-9.32908e-09
3.6272e-09
-1.04307e-08
4.01318e-09
-1.16596e-08
4.46966e-09
-1.29946e-08
4.9347e-09
-1.44736e-08
5.47612e-09
-1.6069e-08
6.05472e-09
-1.7922e-08
6.66175e-09
-1.99617e-08
7.39333e-09
-2.20926e-08
8.03338e-09
-2.45008e-08
8.98122e-09
-2.71041e-08
1.00506e-08
-3.00965e-08
1.13329e-08
-3.33455e-08
1.24241e-08
-3.70131e-08
1.38414e-08
-4.11222e-08
1.53916e-08
-4.56593e-08
1.70685e-08
-5.09022e-08
1.91977e-08
-5.66375e-08
2.12438e-08
-6.26808e-08
2.32069e-08
-6.9457e-08
2.582e-08
-7.7097e-08
2.89164e-08
-8.5625e-08
3.23522e-08
-9.51121e-08
3.61431e-08
-1.05662e-07
4.03412e-08
-1.17386e-07
4.49734e-08
-1.30504e-07
5.01943e-08
-1.44937e-07
5.57081e-08
-1.60929e-07
6.18885e-08
-1.78699e-07
6.88356e-08
-1.98412e-07
7.65254e-08
-2.20269e-07
8.50629e-08
-2.44487e-07
9.45228e-08
-2.71277e-07
1.05018e-07
-3.00905e-07
1.16585e-07
-3.34022e-07
1.29708e-07
-3.7173e-07
1.44429e-07
-4.14109e-07
1.60717e-07
-4.58461e-07
1.79693e-07
-5.08461e-07
1.99899e-07
-5.65057e-07
2.21975e-07
-6.29114e-07
2.46623e-07
-6.92906e-07
2.76855e-07
-7.69411e-07
3.06109e-07
-8.52801e-07
3.39307e-07
-9.4527e-07
3.76019e-07
-1.04838e-06
4.17512e-07
-1.16275e-06
4.63329e-07
-1.28934e-06
5.13831e-07
-1.43031e-06
5.70979e-07
-1.58755e-06
6.35217e-07
-1.76305e-06
7.06994e-07
-1.95908e-06
7.86621e-07
-2.17756e-06
8.7396e-07
-2.41472e-06
9.60501e-07
-2.67593e-06
1.05681e-06
-2.96881e-06
1.17208e-06
-3.28228e-06
1.28999e-06
-3.62441e-06
1.41943e-06
-3.99966e-06
1.55947e-06
-4.45835e-06
1.73575e-06
-4.9927e-06
1.91961e-06
-5.53648e-06
2.07531e-06
-6.12213e-06
2.2381e-06
-6.7503e-06
2.4093e-06
-7.42358e-06
2.5782e-06
-8.16384e-06
2.71957e-06
-8.95657e-06
2.81594e-06
-9.78439e-06
2.84634e-06
-1.06252e-05
2.78021e-06
-1.14298e-05
2.56438e-06
2.17762e-06
-1.2143e-05
-1.30479e-11
6.54228e-11
-4.67571e-11
2.05464e-10
-1.04243e-10
3.50854e-10
-1.91043e-10
4.65129e-10
-2.94161e-10
5.7606e-10
-4.21897e-10
6.64733e-10
-5.5726e-10
7.39268e-10
-7.21459e-10
7.92335e-10
-8.9642e-10
8.29192e-10
-1.05863e-09
8.56192e-10
-1.22925e-09
8.58594e-10
-1.4e-09
8.53848e-10
-1.57153e-09
8.39373e-10
-1.74488e-09
8.19121e-10
-1.91903e-09
8.00794e-10
-2.0963e-09
7.91797e-10
-2.27621e-09
7.97776e-10
-2.46101e-09
8.24059e-10
-2.6555e-09
8.74556e-10
-2.86062e-09
9.54432e-10
-3.0833e-09
1.06574e-09
-3.32811e-09
1.21094e-09
-3.6029e-09
1.39095e-09
-3.90968e-09
1.60713e-09
-4.26305e-09
1.85283e-09
-4.67215e-09
2.13684e-09
-5.16083e-09
2.45424e-09
-5.71698e-09
2.80924e-09
-6.34035e-09
3.20686e-09
-7.0547e-09
3.62704e-09
-7.889e-09
4.08242e-09
-8.82037e-09
4.55872e-09
-9.89255e-09
5.08568e-09
-1.10802e-08
5.65769e-09
-1.24065e-08
6.26147e-09
-1.38891e-08
6.95904e-09
-1.54984e-08
7.66425e-09
-1.73355e-08
8.49887e-09
-1.93019e-08
9.3598e-09
-2.16044e-08
1.0336e-08
-2.41025e-08
1.14794e-08
-2.67674e-08
1.27153e-08
-2.96466e-08
1.42121e-08
-3.28555e-08
1.56329e-08
-3.64998e-08
1.74856e-08
-4.04098e-08
1.93013e-08
-4.48113e-08
2.14695e-08
-4.93223e-08
2.37083e-08
-5.45658e-08
2.64875e-08
-6.1278e-08
2.99192e-08
-6.884e-08
3.3382e-08
-7.69293e-08
3.70058e-08
-8.56511e-08
4.10738e-08
-9.51073e-08
4.55993e-08
-1.05421e-07
5.0655e-08
-1.16615e-07
5.61676e-08
-1.29412e-07
6.29922e-08
-1.43119e-07
6.94142e-08
-1.58312e-07
7.70817e-08
-1.75259e-07
8.57815e-08
-1.94052e-07
9.53177e-08
-2.14977e-07
1.05987e-07
-2.38251e-07
1.17797e-07
-2.64131e-07
1.30898e-07
-2.93392e-07
1.45845e-07
-3.25814e-07
1.6213e-07
-3.61354e-07
1.79969e-07
-4.00779e-07
2.00142e-07
-4.44054e-07
2.22967e-07
-4.92604e-07
2.48447e-07
-5.4747e-07
2.76841e-07
-6.06609e-07
3.05761e-07
-6.73333e-07
3.43579e-07
-7.47639e-07
3.80414e-07
-8.28393e-07
4.2006e-07
-9.17365e-07
4.64989e-07
-1.01551e-06
5.15656e-07
-1.12504e-06
5.72857e-07
-1.24844e-06
6.37233e-07
-1.38538e-06
7.07914e-07
-1.53647e-06
7.86306e-07
-1.70374e-06
8.74263e-07
-1.88724e-06
9.70127e-07
-2.08407e-06
1.07079e-06
-2.31408e-06
1.19051e-06
-2.58162e-06
1.32435e-06
-2.86981e-06
1.46027e-06
-3.18821e-06
1.60838e-06
-3.54038e-06
1.7716e-06
-3.93298e-06
1.95206e-06
-4.35032e-06
2.15309e-06
-4.80321e-06
2.3725e-06
-5.32433e-06
2.59644e-06
-5.91064e-06
2.82441e-06
-6.56237e-06
3.06103e-06
-7.28258e-06
3.29841e-06
-8.08033e-06
3.51732e-06
-8.95839e-06
3.69399e-06
-9.90845e-06
3.7964e-06
-1.0914e-05
3.7858e-06
-1.19098e-05
3.56013e-06
3.10893e-06
-1.28411e-05
-1.18142e-11
7.73824e-11
-4.50315e-11
2.38845e-10
-9.82261e-11
4.04198e-10
-1.78021e-10
5.45042e-10
-2.76861e-10
6.75017e-10
-3.95337e-10
7.83309e-10
-5.29318e-10
8.73399e-10
-6.79486e-10
9.4271e-10
-8.36669e-10
9.86615e-10
-9.95693e-10
1.01546e-09
-1.16025e-09
1.02338e-09
-1.32472e-09
1.01849e-09
-1.48785e-09
1.00262e-09
-1.65026e-09
9.81598e-10
-1.81272e-09
9.63349e-10
-1.97603e-09
9.55149e-10
-2.14169e-09
9.63564e-10
-2.31181e-09
9.94319e-10
-2.4903e-09
1.05329e-09
-2.68056e-09
1.14493e-09
-2.88821e-09
1.27363e-09
-3.11859e-09
1.44141e-09
-3.37845e-09
1.65086e-09
-3.67375e-09
1.9024e-09
-4.01676e-09
2.19577e-09
-4.41184e-09
2.53172e-09
-4.86953e-09
2.91177e-09
-5.39666e-09
3.33626e-09
-5.99563e-09
3.80586e-09
-6.67619e-09
4.30757e-09
-7.44782e-09
4.85422e-09
-8.33272e-09
5.44397e-09
-9.33485e-09
6.08829e-09
-1.04571e-08
6.78055e-09
-1.17239e-08
7.52871e-09
-1.31201e-08
8.35558e-09
-1.46914e-08
9.23577e-09
-1.64189e-08
1.02264e-08
-1.83475e-08
1.12885e-08
-2.04974e-08
1.2486e-08
-2.284e-08
1.38218e-08
-2.5431e-08
1.53066e-08
-2.82194e-08
1.70003e-08
-3.13972e-08
1.88105e-08
-3.48047e-08
2.08929e-08
-3.86415e-08
2.31377e-08
-4.28694e-08
2.56972e-08
-4.76985e-08
2.85375e-08
-5.29627e-08
3.17517e-08
-5.85141e-08
3.5471e-08
-6.47054e-08
3.95735e-08
-7.17129e-08
4.40126e-08
-7.95557e-08
4.89168e-08
-8.82906e-08
5.43347e-08
-9.79982e-08
6.03632e-08
-1.08664e-07
6.68338e-08
-1.20715e-07
7.50437e-08
-1.34173e-07
8.28722e-08
-1.49049e-07
9.19575e-08
-1.65445e-07
1.02177e-07
-1.83659e-07
1.13531e-07
-2.03863e-07
1.2619e-07
-2.26285e-07
1.40219e-07
-2.5127e-07
1.55882e-07
-2.7867e-07
1.73244e-07
-3.09182e-07
1.92642e-07
-3.43283e-07
2.14069e-07
-3.81086e-07
2.37944e-07
-4.22741e-07
2.64622e-07
-4.68528e-07
2.94233e-07
-5.1829e-07
3.26601e-07
-5.744e-07
3.61871e-07
-6.33075e-07
4.02252e-07
-7.00507e-07
4.47845e-07
-7.79868e-07
4.99419e-07
-8.70832e-07
5.55952e-07
-9.72255e-07
6.17078e-07
-1.0836e-06
6.842e-07
-1.20476e-06
7.58395e-07
-1.33724e-06
8.40391e-07
-1.48114e-06
9.3021e-07
-1.63478e-06
1.02789e-06
-1.80182e-06
1.13717e-06
-1.99343e-06
1.2624e-06
-2.20614e-06
1.40321e-06
-2.43929e-06
1.5575e-06
-2.7032e-06
1.72419e-06
-2.99982e-06
1.905e-06
-3.33223e-06
2.10401e-06
-3.70404e-06
2.32387e-06
-4.11709e-06
2.56613e-06
-4.57505e-06
2.83046e-06
-5.09016e-06
3.11154e-06
-5.67335e-06
3.4076e-06
-6.33275e-06
3.72043e-06
-7.07838e-06
4.04404e-06
-7.92574e-06
4.36468e-06
-8.88781e-06
4.65606e-06
-9.97822e-06
4.88681e-06
-1.12028e-05
5.01039e-06
-1.24904e-05
4.84772e-06
4.46575e-06
-1.38472e-05
-1.22537e-11
8.98166e-11
-4.17749e-11
2.68542e-10
-9.08317e-11
4.53407e-10
-1.62977e-10
6.17316e-10
-2.54765e-10
7.6691e-10
-3.63777e-10
8.92449e-10
-4.88732e-10
9.98556e-10
-6.26392e-10
1.08057e-09
-7.73889e-10
1.13436e-09
-9.24866e-10
1.16668e-09
-1.07863e-09
1.17734e-09
-1.23103e-09
1.17104e-09
-1.38243e-09
1.15409e-09
-1.53358e-09
1.13285e-09
-1.68427e-09
1.1141e-09
-1.83522e-09
1.10615e-09
-1.98768e-09
1.11611e-09
-2.14444e-09
1.15125e-09
-2.30848e-09
1.21758e-09
-2.4842e-09
1.32089e-09
-2.67584e-09
1.46541e-09
-2.88931e-09
1.65498e-09
-3.1303e-09
1.89193e-09
-3.40602e-09
2.17813e-09
-3.72394e-09
2.51358e-09
-4.09194e-09
2.89958e-09
-4.51627e-09
3.33603e-09
-5.00412e-09
3.82411e-09
-5.55866e-09
4.36042e-09
-6.19833e-09
4.94737e-09
-6.92728e-09
5.58352e-09
-7.75414e-09
6.27122e-09
-8.68517e-09
7.01996e-09
-9.73016e-09
7.82612e-09
-1.09042e-08
8.7032e-09
-1.22032e-08
9.65488e-09
-1.36581e-08
1.06909e-08
-1.52607e-08
1.18291e-08
-1.70465e-08
1.30743e-08
-1.90205e-08
1.44598e-08
-2.11904e-08
1.59919e-08
-2.35889e-08
1.7705e-08
-2.61982e-08
1.96084e-08
-2.91085e-08
2.17209e-08
-3.22948e-08
2.40786e-08
-3.58523e-08
2.66949e-08
-3.97941e-08
2.96389e-08
-4.4173e-08
3.29165e-08
-4.90343e-08
3.66137e-08
-5.43385e-08
4.07752e-08
-6.01768e-08
4.54099e-08
-6.66674e-08
5.05039e-08
-7.3886e-08
5.61359e-08