/*--------------------------------*- C++ -*----------------------------------*\
| =========                 |                                                 |
| \\      /  F ield         | OpenFOAM: The Open Source CFD Toolbox           |
|  \\    /   O peration     | Version:  2206                                  |
|   \\  /    A nd           | Website:  www.openfoam.com                      |
|    \\/     M anipulation  |                                                 |
\*---------------------------------------------------------------------------*/
FoamFile
{
    version     2.0;
    format      ascii;
    arch        "LSB;label=32;scalar=64";
    class       surfaceScalarField;
    location    "18.2001";
    object      phi;
}
// * * * * * * * * * * * * * * * * * * * * * * * * * * * * * * * * * * * * * //

dimensions      [0 3 -1 0 0 0 0];

oriented        oriented;

internalField   nonuniform List<scalar> 
9419
(
1.15514e-05
-3.68079e-06
3.65152e-06
1.15908e-05
-3.54315e-06
3.50375e-06
1.16434e-05
-3.32299e-06
3.27045e-06
1.17094e-05
-3.01274e-06
2.94667e-06
1.17879e-05
-2.61267e-06
2.53417e-06
1.18767e-05
-2.13105e-06
2.04231e-06
1.19723e-05
-1.5841e-06
1.48842e-06
1.20699e-05
-9.9541e-07
8.97814e-07
1.21625e-05
-3.97627e-07
3.05071e-07
1.22453e-05
1.80223e-07
-2.6307e-07
1.23142e-05
7.18717e-07
-7.87573e-07
1.23657e-05
1.20282e-06
-1.25434e-06
1.23978e-05
1.62286e-06
-1.65493e-06
1.24095e-05
1.97444e-06
-1.98614e-06
1.24012e-05
2.25772e-06
-2.24943e-06
1.23741e-05
2.47675e-06
-2.44964e-06
1.23297e-05
2.638e-06
-2.59361e-06
1.22692e-05
2.74936e-06
-2.68883e-06
1.21926e-05
2.81828e-06
-2.74166e-06
1.21005e-05
2.85082e-06
-2.75872e-06
1.19954e-05
2.85493e-06
-2.74984e-06
1.18791e-05
2.84073e-06
-2.72444e-06
1.17529e-05
2.81625e-06
-2.69004e-06
1.16179e-05
2.78689e-06
-2.65196e-06
1.14759e-05
2.75481e-06
-2.6128e-06
1.13293e-05
2.71855e-06
-2.5719e-06
1.11815e-05
2.67304e-06
-2.52521e-06
1.10367e-05
2.61039e-06
-2.46564e-06
1.08997e-05
2.52117e-06
-2.3842e-06
1.07751e-05
2.3962e-06
-2.27156e-06
1.06666e-05
2.22827e-06
-2.11982e-06
1.05772e-05
2.01343e-06
-1.924e-06
1.05086e-05
1.75162e-06
-1.68298e-06
1.04614e-05
1.44661e-06
-1.39948e-06
1.04356e-05
1.10538e-06
-1.07957e-06
1.04305e-05
7.37673e-07
-7.32552e-07
1.04444e-05
3.54264e-07
-3.68147e-07
1.04737e-05
-3.24159e-08
3.11595e-09
1.05157e-05
-4.11068e-07
3.69111e-07
1.05677e-05
-7.73771e-07
7.21775e-07
1.06266e-05
-1.11453e-06
1.05554e-06
1.06896e-05
-1.42871e-06
1.36579e-06
1.07536e-05
-1.71352e-06
1.64947e-06
1.08163e-05
-1.96725e-06
1.90454e-06
1.08758e-05
-2.18979e-06
2.13029e-06
1.09308e-05
-2.3816e-06
2.32659e-06
1.09807e-05
-2.54303e-06
2.49319e-06
1.10251e-05
-2.675e-06
2.63056e-06
1.10641e-05
-2.77799e-06
2.739e-06
1.10974e-05
-2.85227e-06
2.81894e-06
1.1125e-05
-2.8987e-06
2.87113e-06
1.11483e-05
-2.92013e-06
2.89678e-06
1.11732e-05
-2.91402e-06
2.88912e-06
1.11964e-05
-2.85955e-06
2.83637e-06
1.12187e-05
-2.75923e-06
2.73694e-06
1.12415e-05
-2.61345e-06
2.59068e-06
1.12655e-05
-2.42153e-06
2.39756e-06
1.12909e-05
-2.18428e-06
2.15881e-06
1.13178e-05
-1.90438e-06
1.8775e-06
1.13458e-05
-1.58663e-06
1.55863e-06
1.13744e-05
-1.23784e-06
1.20923e-06
1.14028e-05
-8.66756e-07
8.3835e-07
1.14297e-05
-4.8459e-07
4.57665e-07
1.14537e-05
-1.04847e-07
8.08991e-08
1.14735e-05
2.62882e-07
-2.82656e-07
1.14879e-05
6.10758e-07
-6.25164e-07
1.14958e-05
9.32315e-07
-9.40252e-07
1.14963e-05
1.22271e-06
-1.22324e-06
1.14887e-05
1.47889e-06
-1.47128e-06
1.14725e-05
1.69953e-06
-1.68326e-06
1.14473e-05
1.88483e-06
-1.85964e-06
1.14131e-05
2.0363e-06
-2.00212e-06
1.13701e-05
2.15625e-06
-2.11321e-06
1.13184e-05
2.24732e-06
-2.19564e-06
1.12582e-05
2.31196e-06
-2.2518e-06
1.11898e-05
2.35179e-06
-2.28337e-06
1.11142e-05
2.36775e-06
-2.29216e-06
1.10335e-05
2.36103e-06
-2.28034e-06
1.095e-05
2.33228e-06
-2.24872e-06
1.0866e-05
2.28066e-06
-2.19668e-06
1.07841e-05
2.20448e-06
-2.12257e-06
1.07066e-05
2.10173e-06
-2.02425e-06
1.06356e-05
1.97065e-06
-1.89965e-06
1.05727e-05
1.81027e-06
-1.74742e-06
1.05192e-05
1.62083e-06
-1.5673e-06
1.04758e-05
1.40384e-06
-1.36039e-06
1.04427e-05
1.16218e-06
-1.12912e-06
1.04199e-05
8.99916e-07
-8.77157e-07
1.04073e-05
6.218e-07
-6.09128e-07
1.04036e-05
3.33705e-07
-3.30037e-07
1.04079e-05
4.20022e-08
-4.63117e-08
1.04197e-05
-2.46754e-07
2.35007e-07
1.04377e-05
-5.27668e-07
5.09634e-07
1.04608e-05
-7.966e-07
7.73477e-07
1.04879e-05
-1.0498e-06
1.02269e-06
1.0518e-05
-1.28421e-06
1.25413e-06
1.05501e-05
-1.49703e-06
1.46498e-06
1.05832e-05
-1.68629e-06
1.65311e-06
1.06168e-05
-1.85019e-06
1.81667e-06
1.06498e-05
-1.98737e-06
1.9543e-06
1.06819e-05
-2.0974e-06
2.06537e-06
1.07122e-05
-2.18009e-06
2.14973e-06
1.07406e-05
-2.2361e-06
2.2077e-06
1.07673e-05
-2.26694e-06
2.24026e-06
1.0794e-05
-2.27234e-06
2.24561e-06
1.08214e-05
-2.2439e-06
2.21656e-06
1.08474e-05
-2.1773e-06
2.15126e-06
1.08723e-05
-2.07558e-06
2.0507e-06
1.08962e-05
-1.94037e-06
1.91644e-06
1.09193e-05
-1.77353e-06
1.75043e-06
1.09416e-05
-1.57752e-06
1.55524e-06
1.0963e-05
-1.35551e-06
1.33412e-06
1.09834e-05
-1.11145e-06
1.0911e-06
1.10025e-05
-8.50003e-07
8.30903e-07
1.102e-05
-5.76593e-07
5.591e-07
1.10353e-05
-2.97806e-07
2.82485e-07
1.10478e-05
-2.11754e-08
8.66501e-09
1.10569e-05
2.48169e-07
-2.57314e-07
1.10621e-05
5.05743e-07
-5.10934e-07
1.10628e-05
7.47656e-07
-7.48331e-07
1.10584e-05
9.70734e-07
-9.66382e-07
1.10487e-05
1.17255e-06
-1.16278e-06
1.10332e-05
1.35144e-06
-1.33601e-06
1.10121e-05
1.50644e-06
-1.48526e-06
1.09853e-05
1.63714e-06
-1.61036e-06
1.09533e-05
1.74359e-06
-1.71157e-06
1.09165e-05
1.82619e-06
-1.78947e-06
1.08757e-05
1.88558e-06
-1.84475e-06
1.08312e-05
1.92235e-06
-1.87782e-06
1.07831e-05
1.93587e-06
-1.88777e-06
1.07326e-05
1.92404e-06
-1.8736e-06
1.06815e-05
1.88687e-06
-1.83572e-06
1.06312e-05
1.8245e-06
-1.77421e-06
1.05832e-05
1.73714e-06
-1.68917e-06
1.05388e-05
1.62527e-06
-1.58088e-06
1.0499e-05
1.48974e-06
-1.44994e-06
1.33196e-06
-1.29749e-06
1.13801e-05
-3.67134e-06
1.13839e-05
-3.54698e-06
1.14031e-05
-3.34215e-06
1.14385e-05
-3.04813e-06
1.14898e-05
-2.664e-06
1.15558e-05
-2.19704e-06
1.1634e-05
-1.66229e-06
1.17206e-05
-1.08202e-06
1.18089e-05
-4.85898e-07
1.18938e-05
9.52503e-08
1.19708e-05
6.41778e-07
1.20356e-05
1.13801e-06
1.20851e-05
1.57331e-06
1.21174e-05
1.94218e-06
1.21315e-05
2.24359e-06
1.21277e-05
2.4806e-06
1.21066e-05
2.65906e-06
1.20693e-05
2.78662e-06
1.2016e-05
2.87161e-06
1.19459e-05
2.9209e-06
1.18601e-05
2.94081e-06
1.17605e-05
2.9403e-06
1.16489e-05
2.92784e-06
1.15271e-05
2.90869e-06
1.13974e-05
2.88454e-06
1.12628e-05
2.85315e-06
1.11271e-05
2.80866e-06
1.09949e-05
2.74263e-06
1.08705e-05
2.64554e-06
1.07582e-05
2.50857e-06
1.06612e-05
2.32525e-06
1.05821e-05
2.09254e-06
1.05225e-05
1.81121e-06
1.04832e-05
1.48586e-06
1.04643e-05
1.12435e-06
1.04649e-05
7.37081e-07
1.04831e-05
3.36042e-07
1.05155e-05
-6.48406e-08
1.05594e-05
-4.55009e-07
1.0612e-05
-8.26341e-07
1.06701e-05
-1.17259e-06
1.07305e-05
-1.48916e-06
1.07905e-05
-1.77347e-06
1.08473e-05
-2.02413e-06
1.08992e-05
-2.24168e-06
1.09448e-05
-2.42716e-06
1.09835e-05
-2.58169e-06
1.10151e-05
-2.70667e-06
1.10403e-05
-2.80314e-06
1.10597e-05
-2.87174e-06
1.10736e-05
-2.91256e-06
1.10822e-05
-2.92872e-06
1.1089e-05
-2.9208e-06
1.10933e-05
-2.86383e-06
1.10976e-05
-2.76354e-06
1.11035e-05
-2.61938e-06
1.1112e-05
-2.42998e-06
1.11234e-05
-2.19572e-06
1.1138e-05
-1.91899e-06
1.11557e-05
-1.60436e-06
1.11763e-05
-1.25837e-06
1.1199e-05
-8.89516e-07
1.12228e-05
-5.08398e-07
1.12462e-05
-1.28176e-07
1.12677e-05
2.41345e-07
1.12861e-05
5.92392e-07
1.12999e-05
9.18484e-07
1.13079e-05
1.21468e-06
1.13091e-05
1.47772e-06
1.13025e-05
1.7061e-06
1.12876e-05
1.89976e-06
1.1264e-05
2.0599e-06
1.12317e-05
2.18855e-06
1.11909e-05
2.28813e-06
1.11419e-05
2.36093e-06
1.1085e-05
2.40866e-06
1.10209e-05
2.43192e-06
1.09513e-05
2.43058e-06
1.08787e-05
2.40488e-06
1.08055e-05
2.35387e-06
1.07341e-05
2.27589e-06
1.06667e-05
2.16914e-06
1.06051e-05
2.03223e-06
1.05508e-05
1.86461e-06
1.05047e-05
1.6669e-06
1.04675e-05
1.44104e-06
1.04396e-05
1.19014e-06
1.04211e-05
9.1843e-07
1.04116e-05
6.31225e-07
1.04106e-05
3.34715e-07
1.04169e-05
3.56854e-08
1.04294e-05
-2.59247e-07
1.0447e-05
-5.4527e-07
1.04687e-05
-8.18226e-07
1.04931e-05
-1.07423e-06
1.05193e-05
-1.31038e-06
1.05463e-05
-1.52408e-06
1.05734e-05
-1.71344e-06
1.06001e-05
-1.87682e-06
1.06256e-05
-2.01292e-06
1.06497e-05
-2.12147e-06
1.06716e-05
-2.20202e-06
1.06907e-05
-2.25517e-06
1.07071e-05
-2.28335e-06
1.07234e-05
-2.28864e-06
1.07406e-05
-2.26113e-06
1.0756e-05
-2.19264e-06
1.07704e-05
-2.08998e-06
1.07844e-05
-1.9544e-06
1.07984e-05
-1.78753e-06
1.08125e-05
-1.59165e-06
1.08268e-05
-1.36981e-06
1.08412e-05
-1.12586e-06
1.08556e-05
-8.6437e-07
1.08697e-05
-5.90641e-07
1.08829e-05
-3.1101e-07
1.08946e-05
-3.28667e-08
1.09041e-05
2.38584e-07
1.0911e-05
4.98919e-07
1.09144e-05
7.44251e-07
1.09138e-05
9.71352e-07
1.09086e-05
1.17771e-06
1.08985e-05
1.36152e-06
1.08833e-05
1.52163e-06
1.08631e-05
1.65737e-06
1.08381e-05
1.76861e-06
1.08088e-05
1.85551e-06
1.07758e-05
1.91851e-06
1.07399e-05
1.95832e-06
1.07007e-05
1.97507e-06
1.0659e-05
1.96573e-06
1.06165e-05
1.9294e-06
1.05747e-05
1.86628e-06
1.0535e-05
1.77681e-06
1.04985e-05
1.66173e-06
1.04661e-05
1.52217e-06
1.35981e-06
1.12333e-05
-3.6289e-06
1.12043e-05
-3.51789e-06
1.11914e-05
-3.32929e-06
1.11968e-05
-3.05353e-06
1.12212e-05
-2.68842e-06
1.12642e-05
-2.24006e-06
1.13243e-05
-1.72234e-06
1.13982e-05
-1.15595e-06
1.14803e-05
-5.67961e-07
1.15649e-05
1.05919e-08
1.16473e-05
5.59449e-07
1.17226e-05
1.06267e-06
1.1787e-05
1.50889e-06
1.18375e-05
1.89169e-06
1.18722e-05
2.20892e-06
1.18901e-05
2.46269e-06
1.18912e-05
2.65797e-06
1.18759e-05
2.80192e-06
1.18446e-05
2.90294e-06
1.17965e-05
2.96899e-06
1.17308e-05
3.00652e-06
1.16491e-05
3.02193e-06
1.15538e-05
3.02322e-06
1.1447e-05
3.01548e-06
1.13317e-05
2.99985e-06
1.12113e-05
2.97347e-06
1.10901e-05
2.92996e-06
1.09721e-05
2.86058e-06
1.08617e-05
2.75594e-06
1.07626e-05
2.6077e-06
1.06778e-05
2.41002e-06
1.06098e-05
2.16052e-06
1.05602e-05
1.86082e-06
1.05297e-05
1.5164e-06
1.0518e-05
1.13599e-06
1.05244e-05
7.30716e-07
1.05466e-05
3.13829e-07
1.05817e-05
-9.99034e-08
1.06268e-05
-5.0018e-07
1.06791e-05
-8.78625e-07
1.07354e-05
-1.22882e-06
1.07924e-05
-1.54622e-06
1.08473e-05
-1.82837e-06
1.08976e-05
-2.07442e-06
1.09414e-05
-2.28545e-06
1.09773e-05
-2.46309e-06
1.10049e-05
-2.60928e-06
1.10241e-05
-2.72593e-06
1.10356e-05
-2.81458e-06
1.10404e-05
-2.87653e-06
1.10403e-05
-2.91254e-06
1.10358e-05
-2.92418e-06
1.10231e-05
-2.90813e-06
1.10091e-05
-2.84975e-06
1.09963e-05
-2.75082e-06
1.09863e-05
-2.60932e-06
1.09798e-05
-2.42355e-06
1.09777e-05
-2.19361e-06
1.09804e-05
-1.92166e-06
1.0988e-05
-1.61197e-06
1.10005e-05
-1.27083e-06
1.10174e-05
-9.0642e-07
1.10377e-05
-5.28679e-07
1.10598e-05
-1.50289e-07
1.10823e-05
2.18799e-07
1.11038e-05
5.70941e-07
1.11226e-05
8.99697e-07
1.11372e-05
1.20008e-06
1.11462e-05
1.4687e-06
1.11485e-05
1.70381e-06
1.11431e-05
1.90511e-06
1.11295e-05
2.07348e-06
1.11075e-05
2.21056e-06
1.10773e-05
2.31838e-06
1.10392e-05
2.39896e-06
1.09939e-05
2.45396e-06
1.09418e-05
2.4841e-06
1.08839e-05
2.48841e-06
1.08229e-05
2.46592e-06
1.0761e-05
2.41579e-06
1.07005e-05
2.3364e-06
1.06433e-05
2.2263e-06
1.05911e-05
2.08445e-06
1.0545e-05
1.91066e-06
1.05061e-05
1.7058e-06
1.04751e-05
1.47203e-06
1.04525e-05
1.2128e-06
1.04382e-05
9.32704e-07
1.04321e-05
6.37321e-07
1.04337e-05
3.33108e-07
1.04417e-05
2.76855e-08
1.0455e-05
-2.72517e-07
1.04723e-05
-5.62646e-07
1.04926e-05
-8.385e-07
1.05146e-05
-1.09623e-06
1.05372e-05
-1.33299e-06
1.05595e-05
-1.54638e-06
1.05807e-05
-1.73467e-06
1.06004e-05
-1.89644e-06
1.06182e-05
-2.03073e-06
1.06338e-05
-2.13714e-06
1.06473e-05
-2.21547e-06
1.06582e-05
-2.26605e-06
1.0666e-05
-2.29113e-06
1.06725e-05
-2.29523e-06
1.06782e-05
-2.2668e-06
1.06825e-05
-2.19694e-06
1.06866e-05
-2.09404e-06
1.0691e-05
-1.95885e-06
1.06963e-05
-1.79277e-06
1.07025e-05
-1.59792e-06
1.071e-05
-1.37723e-06
1.07186e-05
-1.13446e-06
1.07282e-05
-8.74058e-07
1.07388e-05
-6.01209e-07
1.07498e-05
-3.21959e-07
1.07604e-05
-4.35194e-08
1.07701e-05
2.28859e-07
1.07782e-05
4.90844e-07
1.07839e-05
7.38532e-07
1.07866e-05
9.68687e-07
1.07856e-05
1.17871e-06
1.07805e-05
1.36666e-06
1.07709e-05
1.53115e-06
1.0757e-05
1.6713e-06
1.07388e-05
1.78678e-06
1.07169e-05
1.87746e-06
1.06919e-05
1.94349e-06
1.06645e-05
1.98573e-06
1.06345e-05
2.00506e-06
1.06019e-05
1.99835e-06
1.05683e-05
1.96299e-06
1.05353e-05
1.89925e-06
1.05041e-05
1.80798e-06
1.04756e-05
1.69031e-06
1.04501e-05
1.54764e-06
1.38178e-06
1.11164e-05
-3.55635e-06
1.10559e-05
-3.4574e-06
1.10123e-05
-3.28572e-06
1.09889e-05
-3.0301e-06
1.09874e-05
-2.68686e-06
1.1008e-05
-2.26069e-06
1.10498e-05
-1.76416e-06
1.11103e-05
-1.2164e-06
1.11846e-05
-6.42265e-07
1.12668e-05
-7.16452e-08
1.1352e-05
4.74261e-07
1.14351e-05
9.7953e-07
1.15116e-05
1.43239e-06
1.15777e-05
1.82558e-06
1.16306e-05
2.15607e-06
1.16683e-05
2.42494e-06
1.169e-05
2.63629e-06
1.16953e-05
2.79665e-06
1.16842e-05
2.91399e-06
1.16566e-05
2.99658e-06
1.16114e-05
3.05174e-06
1.15486e-05
3.08472e-06
1.14707e-05
3.10113e-06
1.13806e-05
3.10557e-06
1.12817e-05
3.09878e-06
1.11776e-05
3.07753e-06
1.10725e-05
3.03513e-06
1.09703e-05
2.96274e-06
1.08751e-05
2.85116e-06
1.07903e-05
2.69247e-06
1.0719e-05
2.48136e-06
1.06633e-05
2.21622e-06
1.06245e-05
1.89956e-06
1.06033e-05
1.53765e-06
1.05993e-05
1.13998e-06
1.06115e-05
7.18489e-07
1.06377e-05
2.87629e-07
1.06751e-05
-1.37266e-07
1.07209e-05
-5.45938e-07
1.0772e-05
-9.29782e-07
1.08254e-05
-1.2822e-06
1.08779e-05
-1.59871e-06
1.09266e-05
-1.87704e-06
1.09691e-05
-2.11692e-06
1.10034e-05
-2.31979e-06
1.10284e-05
-2.48812e-06
1.10439e-05
-2.62473e-06
1.10503e-05
-2.73234e-06
1.10487e-05
-2.81298e-06
1.10401e-05
-2.86795e-06
1.10257e-05
-2.89812e-06
1.10048e-05
-2.90326e-06
1.09756e-05
-2.87898e-06
1.09456e-05
-2.81973e-06
1.09171e-05
-2.72231e-06
1.08918e-05
-2.58401e-06
1.08711e-05
-2.40282e-06
1.08559e-05
-2.17847e-06
1.08471e-05
-1.9128e-06
1.08449e-05
-1.60978e-06
1.08495e-05
-1.27538e-06
1.08604e-05
-9.1738e-07
1.08769e-05
-5.45175e-07
1.08973e-05
-1.70713e-07
1.09202e-05
1.95896e-07
1.0944e-05
5.47209e-07
1.09668e-05
8.76877e-07
1.09869e-05
1.17993e-06
1.10028e-05
1.45283e-06
1.10129e-05
1.69367e-06
1.10162e-05
1.90182e-06
1.10119e-05
2.07782e-06
1.09996e-05
2.22284e-06
1.09795e-05
2.33851e-06
1.09521e-05
2.42636e-06
1.09183e-05
2.48777e-06
1.08786e-05
2.52381e-06
1.08332e-05
2.5338e-06
1.07842e-05
2.51487e-06
1.0734e-05
2.46606e-06
1.06844e-05
2.38591e-06
1.06374e-05
2.2733e-06
1.05944e-05
2.12746e-06
1.05567e-05
1.94836e-06
1.05254e-05
1.73716e-06
1.0501e-05
1.49637e-06
1.04841e-05
1.22974e-06
1.04746e-05
9.42203e-07
1.04723e-05
6.39661e-07
1.04764e-05
3.2894e-07
1.04859e-05
1.82099e-08
1.04996e-05
-2.86232e-07
1.05164e-05
-5.79419e-07
1.05349e-05
-8.57014e-07
1.0554e-05
-1.11531e-06
1.05725e-05
-1.35153e-06
1.05897e-05
-1.56349e-06
1.06047e-05
-1.74974e-06
1.06174e-05
-1.90912e-06
1.06277e-05
-2.04104e-06
1.06355e-05
-2.14488e-06
1.06406e-05
-2.22063e-06
1.06433e-05
-2.26875e-06
1.06439e-05
-2.29167e-06
1.06411e-05
-2.2925e-06
1.06344e-05
-2.26009e-06
1.06279e-05
-2.19038e-06
1.0622e-05
-2.08815e-06
1.06172e-05
-1.95411e-06
1.0614e-05
-1.78957e-06
1.06127e-05
-1.59658e-06
1.06134e-05
-1.37797e-06
1.06163e-05
-1.13736e-06
1.06214e-05
-8.79098e-07
1.06283e-05
-6.08207e-07
1.06368e-05
-3.30438e-07
1.06461e-05
-5.28101e-08
1.06556e-05
2.1942e-07
1.06644e-05
4.81972e-07
1.0672e-05
7.30956e-07
1.06775e-05
9.6316e-07
1.06804e-05
1.17589e-06
1.06799e-05
1.36707e-06
1.0676e-05
1.53513e-06
1.06682e-05
1.67903e-06
1.06568e-05
1.7982e-06
1.06422e-05
1.8921e-06
1.06251e-05
1.9606e-06
1.06063e-05
2.00452e-06
1.05861e-05
2.02527e-06
1.0563e-05
2.02139e-06
1.05386e-05
1.9874e-06
1.05144e-05
1.92344e-06
1.04912e-05
1.83116e-06
1.04697e-05
1.71185e-06
1.04505e-05
1.5669e-06
1.39826e-06
1.10298e-05
1.09402e-05
1.08681e-05
1.08177e-05
1.07916e-05
1.07908e-05
1.08148e-05
1.08616e-05
1.0927e-05
1.10051e-05
1.10909e-05
1.11792e-05
1.12649e-05
1.13438e-05
1.14122e-05
1.14674e-05
1.15076e-05
1.15318e-05
1.15395e-05
1.15305e-05
1.15046e-05
1.14613e-05
1.14022e-05
1.13304e-05
1.12497e-05
1.11637e-05
1.10762e-05
1.09911e-05
1.09125e-05
1.08435e-05
1.0787e-05
1.07447e-05
1.07176e-05
1.07063e-05
1.07103e-05
1.07286e-05
1.07587e-05
1.07979e-05
1.08436e-05
1.08926e-05
1.09421e-05
1.0989e-05
1.10307e-05
1.10649e-05
1.10899e-05
1.11045e-05
1.11083e-05
1.11017e-05
1.10858e-05
1.10619e-05
1.10309e-05
1.09926e-05
1.0949e-05
1.09039e-05
1.08604e-05
1.08206e-05
1.07863e-05
1.07588e-05
1.0739e-05
1.07275e-05
1.07244e-05
1.07294e-05
1.07418e-05
1.076e-05
1.07825e-05
1.08076e-05
1.08334e-05
1.0858e-05
1.08797e-05
1.08967e-05
1.09079e-05
1.09123e-05
1.09093e-05
1.08991e-05
1.08823e-05
1.08599e-05
1.08328e-05
1.08009e-05
1.07643e-05
1.07256e-05
1.06869e-05
1.065e-05
1.06166e-05
1.05878e-05
1.05646e-05
1.05474e-05
1.05366e-05
1.05321e-05
1.05337e-05
1.05407e-05
1.05519e-05
1.05662e-05
1.05825e-05
1.05994e-05
1.06157e-05
1.06302e-05
1.0642e-05
1.06504e-05
1.06552e-05
1.06564e-05
1.06547e-05
1.06504e-05
1.06447e-05
1.06375e-05
1.06253e-05
1.0609e-05
1.05928e-05
1.05774e-05
1.05637e-05
1.05522e-05
1.05434e-05
1.05376e-05
1.05349e-05
1.05355e-05
1.0539e-05
1.05451e-05
1.05531e-05
1.05622e-05
1.05719e-05
1.05812e-05
1.05894e-05
1.05958e-05
1.05997e-05
1.06007e-05
1.05987e-05
1.05938e-05
1.05865e-05
1.05775e-05
1.05678e-05
1.05579e-05
1.05444e-05
1.05278e-05
1.05113e-05
1.04955e-05
1.04809e-05
1.04682e-05
1.40877e-06
-8.9963e-07
2.09535e-07
-1.09476e-06
1.95131e-07
-1.26065e-06
1.65892e-07
-1.38482e-06
1.24169e-07
-1.45982e-06
7.49983e-08
-1.48266e-06
2.28431e-08
-1.46031e-06
-2.23574e-08
-1.39397e-06
-6.63366e-08
-1.29e-06
-1.03973e-07
-1.15772e-06
-1.32275e-07
-1.0076e-06
-1.50121e-07
-8.50401e-07
-1.57199e-07
-6.96794e-07
-1.53607e-07
-5.56302e-07
-1.40492e-07
-4.3688e-07
-1.19422e-07
-3.44513e-07
-9.2367e-08
-2.82806e-07
-6.17077e-08
-2.5376e-07
-2.90453e-08
-2.54827e-07
1.06666e-09
-2.82312e-07
2.74849e-08
-3.33304e-07
5.09924e-08
-4.02775e-07
6.94708e-08
-4.84755e-07
8.19798e-08
-5.72869e-07
8.81141e-08
-6.6061e-07
8.77406e-08
-7.41712e-07
8.11019e-08
-8.10477e-07
6.87653e-08
-8.61975e-07
5.14978e-08
-8.92383e-07
3.04085e-08
-8.99113e-07
6.73017e-09
-8.84517e-07
-1.45969e-08
-8.47019e-07
-3.74976e-08
-7.88439e-07
-5.85797e-08
-7.12272e-07
-7.6167e-08
-6.22999e-07
-8.9274e-08
-5.25666e-07
-9.73329e-08
-4.25609e-07
-1.00056e-07
-3.28087e-07
-9.75222e-08
-2.37886e-07
-9.02015e-08
-1.59147e-07
-7.87384e-08
-9.542e-08
-6.3727e-08
-4.93368e-08
-4.60833e-08
-2.27053e-08
-2.66315e-08
-1.67473e-08
-5.95808e-09
-2.76999e-08
1.09526e-08
-5.56893e-08
2.79894e-08
-9.86475e-08
4.29581e-08
-1.53403e-07
5.47551e-08
-2.15439e-07
6.20361e-08
-2.80025e-07
6.45858e-08
-3.42162e-07
6.2137e-08
-3.97014e-07
5.48522e-08
-4.40323e-07
4.33092e-08
-4.68944e-07
2.86212e-08
-4.80541e-07
1.15964e-08
-4.7682e-07
-3.72064e-09
-4.58371e-07
-1.84491e-08
-4.25976e-07
-3.23948e-08
-3.82288e-07
-4.36887e-08
-3.30529e-07
-5.17587e-08
-2.73976e-07
-5.65524e-08
-2.15782e-07
-5.81947e-08
-1.58631e-07
-5.71506e-08
-1.04844e-07
-5.37875e-08
-5.62679e-08
-4.85758e-08
-1.43843e-08
-4.18837e-08
2.01017e-08
-3.4486e-08
4.67899e-08
-2.66882e-08
6.60428e-08
-1.92529e-08
7.85681e-08
-1.25252e-08
8.53882e-08
-6.8202e-09
8.78138e-08
-2.42562e-09
8.72441e-08
5.69722e-10
8.53382e-08
1.90591e-09
8.39142e-08
1.42393e-09
8.43906e-08
-4.76455e-10
8.77287e-08
-3.33804e-09
9.50189e-08
-7.29025e-09
1.06943e-07
-1.19241e-08
1.23773e-07
-1.68304e-08
1.45359e-07
-2.15852e-08
1.71164e-07
-2.58056e-08
2.00363e-07
-2.91993e-08
2.31944e-07
-3.1581e-08
2.64819e-07
-3.28745e-08
2.97894e-07
-3.30755e-08
3.30123e-07
-3.22284e-08
3.60547e-07
-3.04244e-08
3.88329e-07
-2.7782e-08
4.12766e-07
-2.4437e-08
4.3331e-07
-2.05432e-08
4.49598e-07
-1.6288e-08
4.6148e-07
-1.18824e-08
4.6901e-07
-7.52968e-09
4.72408e-07
-3.39859e-09
4.72322e-07
8.62879e-11
4.69352e-07
2.97011e-09
4.64018e-07
5.33335e-09
4.57171e-07
6.84754e-09
4.49664e-07
7.50723e-09
4.42328e-07
7.33547e-09
4.35983e-07
6.34558e-09
4.312e-07
4.78273e-09
4.28579e-07
2.6207e-09
4.28596e-07
-1.65853e-11
4.30899e-07
-2.30343e-09
4.3571e-07
-4.81076e-09
4.4293e-07
-7.22019e-09
4.52322e-07
-9.39163e-09
4.63549e-07
-1.12272e-08
4.76208e-07
-1.26596e-08
4.89854e-07
-1.36457e-08
5.04037e-07
-1.41831e-08
5.18352e-07
-1.43147e-08
5.32454e-07
-1.41016e-08
5.46069e-07
-1.36153e-08
5.59001e-07
-1.2932e-08
5.71128e-07
-1.21274e-08
5.82408e-07
-1.12798e-08
5.92874e-07
-1.04656e-08
6.02625e-07
-9.75152e-09
6.11815e-07
-9.18946e-09
6.20629e-07
-8.81476e-09
6.29277e-07
-8.64798e-09
6.37976e-07
-8.69818e-09
6.46937e-07
-8.96129e-09
6.56355e-07
-9.41853e-09
6.66392e-07
-1.00371e-08
6.77166e-07
-1.07733e-08
6.88743e-07
-1.15772e-08
7.01136e-07
-1.23934e-08
7.14298e-07
-1.3162e-08
7.28124e-07
-1.38251e-08
7.42459e-07
-1.43353e-08
7.57117e-07
-1.46579e-08
7.71884e-07
-1.47671e-08
-1.46457e-08
-1.17137e-06
4.07795e-07
-1.34734e-06
3.71104e-07
-1.4881e-06
3.06652e-07
-1.58509e-06
2.21157e-07
-1.63109e-06
1.20994e-07
-1.62376e-06
1.55147e-08
-1.56975e-06
-7.63679e-08
-1.4724e-06
-1.63685e-07
-1.34166e-06
-2.34717e-07
-1.18818e-06
-2.85755e-07
-1.02252e-06
-3.15776e-07
-8.54199e-07
-3.25521e-07
-6.92967e-07
-3.14839e-07
-5.46936e-07
-2.86523e-07
-4.23192e-07
-2.43166e-07
-3.26905e-07
-1.88654e-07
-2.61789e-07
-1.26824e-07
-2.28664e-07
-6.21701e-08
-2.25674e-07
-1.92338e-09
-2.49503e-07
5.13142e-08
-2.9709e-07
9.85792e-08
-3.62054e-07
1.34435e-07
-4.37749e-07
1.57675e-07
-5.17636e-07
1.68001e-07
-5.9527e-07
1.65375e-07
-6.63764e-07
1.49596e-07
-7.16588e-07
1.21589e-07
-7.48517e-07
8.34264e-08
-7.55619e-07
3.75106e-08
-7.41453e-07
-7.43557e-09
-7.02558e-07
-5.34918e-08
-6.41379e-07
-9.86767e-08
-5.60965e-07
-1.38994e-07
-4.65452e-07
-1.7168e-07
-3.59674e-07
-1.95052e-07
-2.48665e-07
-2.08343e-07
-1.37256e-07
-2.11466e-07
-3.01514e-08
-2.04627e-07
6.82847e-08
-1.88638e-07
1.5405e-07
-1.64504e-07
2.24186e-07
-1.33862e-07
2.76597e-07
-9.84946e-08
3.10043e-07
-6.0078e-08
3.24592e-07
-2.05066e-08
3.21174e-07
1.43701e-08
3.01642e-07
4.75215e-08
2.69358e-07
7.52421e-08
2.28759e-07
9.53543e-08
1.83929e-07
1.06866e-07
1.39107e-07
1.09408e-07
9.89197e-08
1.02324e-07
6.83034e-08
8.54684e-08
5.07933e-08
6.08193e-08
4.92429e-08
3.01715e-08
6.15968e-08
-7.57463e-10
8.93631e-08
-3.1487e-08
1.32408e-07
-6.14941e-08
1.88029e-07
-8.8016e-08
2.53512e-07
-1.09171e-07
3.25648e-07
-1.23895e-07
4.01053e-07
-1.31957e-07
4.76778e-07
-1.3392e-07
5.50231e-07
-1.30604e-07
6.19244e-07
-1.228e-07
6.82101e-07
-1.11432e-07
7.3777e-07
-9.75527e-08
7.85591e-07
-8.23073e-08
8.25659e-07
-6.67565e-08
8.58344e-07
-5.19381e-08
8.84453e-07
-3.86336e-08
9.05102e-07
-2.74694e-08
9.21632e-07
-1.89559e-08
9.35611e-07
-1.34092e-08
9.48559e-07
-1.10417e-08
9.61878e-07
-1.18953e-08
9.77098e-07
-1.5697e-08
9.95662e-07
-2.19019e-08
1.01838e-06
-3.00079e-08
1.04578e-06
-3.93234e-08
1.07798e-06
-4.90327e-08
1.11468e-06
-5.8286e-08
1.1552e-06
-6.63257e-08
1.19859e-06
-7.25845e-08
1.24374e-06
-7.67371e-08
1.28953e-06
-7.86636e-08
1.33486e-06
-7.84054e-08
1.37874e-06
-7.61055e-08
1.42028e-06
-7.19653e-08
1.45874e-06
-6.62369e-08
1.4935e-06
-5.91996e-08
1.52411e-06
-5.1152e-08
1.55029e-06
-4.24669e-08
1.57199e-06
-3.35856e-08
1.58941e-06
-2.49476e-08
1.60298e-06
-1.69677e-08
1.6131e-06
-1.00335e-08
1.62046e-06
-4.39641e-09
1.62601e-06
-2.12227e-10
1.63051e-06
2.34223e-09
1.6348e-06
3.22435e-09
1.63969e-06
2.43671e-09
1.64598e-06
6.19681e-11
1.65385e-06
-3.08384e-09
1.66382e-06
-7.35401e-09
1.67612e-06
-1.23138e-08
1.69126e-06
-1.74454e-08
1.709e-06
-2.25474e-08
1.72909e-06
-2.73104e-08
1.75119e-06
-3.14958e-08
1.77491e-06
-3.49489e-08
1.79981e-06
-3.75599e-08
1.8254e-06
-3.92301e-08
1.85115e-06
-3.99328e-08
1.87662e-06
-3.97929e-08
1.9015e-06
-3.89765e-08
1.92552e-06
-3.76371e-08
1.94852e-06
-3.59262e-08
1.97038e-06
-3.39921e-08
1.99109e-06
-3.19938e-08
2.01072e-06
-3.00912e-08
2.02939e-06
-2.84236e-08
2.0473e-06
-2.70929e-08
2.06464e-06
-2.61644e-08
2.08167e-06
-2.56724e-08
2.09859e-06
-2.56187e-08
2.11561e-06
-2.59858e-08
2.13294e-06
-2.67454e-08
2.15074e-06
-2.78313e-08
2.16911e-06
-2.9146e-08
2.18811e-06
-3.05817e-08
2.20774e-06
-3.20199e-08
2.22791e-06
-3.33334e-08
2.24848e-06
-3.4398e-08
2.26926e-06
-3.51072e-08
2.28999e-06
-3.53886e-08
2.31043e-06
-3.52069e-08
-3.45493e-08
-4.71274e-07
5.60091e-07
-6.06686e-07
5.06515e-07
-7.10708e-07
4.10674e-07
-7.72437e-07
2.82886e-07
-7.86108e-07
1.34665e-07
-7.60708e-07
-9.88515e-09
-6.94842e-07
-1.42234e-07
-5.94114e-07
-2.64412e-07
-4.65899e-07
-3.62932e-07
-3.18693e-07
-4.32961e-07
-1.61595e-07
-4.72874e-07
-4.39488e-09
-4.82721e-07
1.46549e-07
-4.65783e-07
2.83742e-07
-4.23717e-07
4.00397e-07
-3.59821e-07
4.91509e-07
-2.79766e-07
5.54982e-07
-1.90297e-07
5.90959e-07
-9.81474e-08
5.99842e-07
-1.08063e-08
5.88536e-07
6.26205e-08
5.60325e-07
1.2679e-07
5.20525e-07
1.74234e-07
4.74483e-07
2.03717e-07
4.26941e-07
2.15543e-07
3.82534e-07
2.09781e-07
3.46329e-07
1.85802e-07
3.22403e-07
1.45515e-07
3.13685e-07
9.21442e-08
3.2292e-07
2.82749e-08
3.492e-07
-3.37151e-08
3.96072e-07
-1.00364e-07
4.62084e-07
-1.64688e-07
5.44652e-07
-2.21562e-07
6.40133e-07
-2.67161e-07
7.44319e-07
-2.99237e-07
8.52905e-07
-3.16929e-07
9.61935e-07
-3.20495e-07
1.0679e-06
-3.10587e-07
1.16724e-06
-2.87981e-07
1.25681e-06
-2.54074e-07
1.33396e-06
-2.11015e-07
1.39675e-06
-1.61286e-07
1.44458e-06
-1.079e-07
1.47745e-06
-5.33856e-08
1.49527e-06
-3.441e-09
1.50185e-06
4.09409e-08
1.49881e-06
7.82746e-08
1.48878e-06
1.05388e-07
1.47454e-06
1.21106e-07
1.45894e-06
1.25008e-07
1.44465e-06
1.16611e-07
1.43671e-06
9.34066e-08
1.43815e-06
5.93876e-08
1.45143e-06
1.68902e-08
1.4766e-06
-2.59301e-08
1.51583e-06
-7.07186e-08
1.56729e-06
-1.12949e-07
1.62903e-06
-1.49756e-07
1.69893e-06
-1.79075e-07
1.77445e-06
-1.99414e-07
1.8524e-06
-2.09909e-07
1.93029e-06
-2.11808e-07
2.00606e-06
-2.0638e-07
2.07791e-06
-1.94646e-07
2.14426e-06
-1.77781e-07
2.20403e-06
-1.57325e-07
2.25656e-06
-1.3484e-07
2.30166e-06
-1.11852e-07
2.3396e-06
-8.98791e-08
2.37112e-06
-7.01561e-08
2.39731e-06
-5.3655e-08
2.41942e-06
-4.10651e-08
2.43877e-06
-3.27638e-08
2.45666e-06
-2.89304e-08
2.47443e-06
-2.96642e-08
2.49349e-06
-3.47521e-08
2.51511e-06
-4.35238e-08
2.54024e-06
-5.51423e-08
2.56954e-06
-6.86197e-08
2.60327e-06
-8.27654e-08
2.64128e-06
-9.62941e-08
2.683e-06
-1.08048e-07
2.7276e-06
-1.17182e-07
2.77409e-06
-1.23227e-07
2.82146e-06
-1.26035e-07
2.86874e-06
-1.25688e-07
2.91506e-06
-1.22422e-07
2.95964e-06
-1.16545e-07
3.0018e-06
-1.08392e-07
3.04091e-06
-9.83157e-08
3.07645e-06
-8.66904e-08
3.10803e-06
-7.40477e-08
3.13551e-06
-6.10612e-08
3.15898e-06
-4.8417e-08
3.17876e-06
-3.67482e-08
3.19531e-06
-2.65853e-08
3.20922e-06
-1.83076e-08
3.2212e-06
-1.21919e-08
3.23194e-06
-8.39796e-09
3.2421e-06
-6.93304e-09
3.25225e-06
-7.72205e-09
3.26292e-06
-1.06015e-08
3.275e-06
-1.5161e-08
3.28877e-06
-2.11324e-08
3.30454e-06
-2.80839e-08
3.32259e-06
-3.54955e-08
3.34292e-06
-4.28773e-08
3.36537e-06
-4.97603e-08
3.38967e-06
-5.5791e-08
3.41549e-06
-6.07736e-08
3.4425e-06
-6.4569e-08
3.47024e-06
-6.6968e-08
3.4981e-06
-6.77965e-08
3.52563e-06
-6.73235e-08
3.55249e-06
-6.58311e-08
3.5784e-06
-6.35462e-08
3.60317e-06
-6.0694e-08
3.62666e-06
-5.74812e-08
3.64881e-06
-5.41472e-08
3.66966e-06
-5.0939e-08
3.68931e-06
-4.80776e-08
3.70793e-06
-4.57171e-08
3.72572e-06
-4.39489e-08
3.74288e-06
-4.28281e-08
3.75963e-06
-4.23718e-08
3.77619e-06
-4.25525e-08
3.79276e-06
-4.33128e-08
3.80951e-06
-4.45762e-08
3.8266e-06
-4.6235e-08
3.84415e-06
-4.81401e-08
3.86225e-06
-5.01154e-08
3.88089e-06
-5.19715e-08
3.9e-06
-5.35121e-08
3.91945e-06
-5.45509e-08
3.93901e-06
-5.49502e-08
3.95846e-06
-5.46587e-08
-5.36904e-08
1.17799e-06
6.51641e-07
1.09389e-06
5.90615e-07
1.03124e-06
4.73319e-07
9.96515e-07
3.17616e-07
9.93616e-07
1.37563e-07
1.02358e-06
-3.98443e-08
1.08918e-06
-2.07834e-07
1.18031e-06
-3.55551e-07
1.291e-06
-4.73623e-07
1.41517e-06
-5.5713e-07
1.5471e-06
-6.04798e-07
1.68235e-06
-6.17971e-07
1.81619e-06
-5.99625e-07
1.94281e-06
-5.5034e-07
2.05441e-06
-4.71418e-07
2.14555e-06
-3.70907e-07
2.21337e-06
-2.58114e-07
2.25796e-06
-1.42736e-07
2.28144e-06
-3.4287e-08
2.28574e-06
5.83198e-08
2.2779e-06
1.34631e-07
2.26227e-06
1.89867e-07
2.24236e-06
2.2362e-07
2.22079e-06
2.37112e-07
2.19842e-06
2.32148e-07
2.18092e-06
2.03306e-07
2.17275e-06
1.53681e-07
2.17587e-06
8.90275e-08
2.19125e-06
1.2894e-08
2.22451e-06
-6.69759e-08
2.27452e-06
-1.50367e-07
2.33957e-06
-2.29741e-07
2.41725e-06
-2.99242e-07
2.50446e-06
-3.54376e-07
2.59774e-06
-3.92512e-07
2.69389e-06
-4.13075e-07
2.79053e-06
-4.17136e-07
2.88587e-06
-4.0593e-07
2.9779e-06
-3.80011e-07
3.06433e-06
-3.40501e-07
3.14303e-06
-2.89721e-07
3.21238e-06
-2.3063e-07
3.27109e-06
-1.66615e-07
3.31906e-06
-1.01359e-07
3.35575e-06
-4.01275e-08
3.38296e-06
1.37345e-08
3.40308e-06
5.81477e-08
3.41774e-06
9.07304e-08
3.42831e-06
1.10536e-07
3.43622e-06
1.17097e-07
3.4434e-06
1.09432e-07
3.45239e-06
8.44153e-08
3.4656e-06
4.61775e-08
3.48413e-06
-1.64028e-09
3.51286e-06
-5.46597e-08
3.55118e-06
-1.09035e-07
3.59817e-06
-1.59942e-07
3.65279e-06
-2.04376e-07
3.71409e-06
-2.40375e-07
3.78059e-06
-2.65909e-07
3.84914e-06
-2.78465e-07
3.9186e-06
-2.81266e-07
3.98817e-06
-2.75951e-07
4.05629e-06
-2.62763e-07
4.12119e-06
-2.42685e-07
4.18176e-06
-2.17893e-07
4.23689e-06
-1.89969e-07
4.28577e-06
-1.60732e-07
4.32826e-06
-1.32365e-07
4.36466e-06
-1.06562e-07
4.39571e-06
-8.47041e-08
4.42239e-06
-6.77402e-08
4.44576e-06
-5.61374e-08
4.46684e-06
-5.00132e-08
4.48645e-06
-4.92701e-08
4.50535e-06
-5.36519e-08
4.52452e-06
-6.26931e-08
4.54498e-06
-7.56074e-08
4.56761e-06
-9.12492e-08
4.59299e-06
-1.08147e-07
4.62133e-06
-1.24634e-07
4.65249e-06
-1.39202e-07
4.68606e-06
-1.50758e-07
4.72154e-06
-1.58706e-07
4.75837e-06
-1.62863e-07
4.79601e-06
-1.63328e-07
4.83396e-06
-1.60374e-07
4.87181e-06
-1.54395e-07
4.90925e-06
-1.45834e-07
4.94594e-06
-1.35002e-07
4.98117e-06
-1.21922e-07
5.0143e-06
-1.0717e-07
5.04485e-06
-9.16174e-08
5.07254e-06
-7.61079e-08
5.09726e-06
-6.14633e-08