/*--------------------------------*- C++ -*----------------------------------*\
| =========                 |                                                 |
| \\      /  F ield         | OpenFOAM: The Open Source CFD Toolbox           |
|  \\    /   O peration     | Version:  2206                                  |
|   \\  /    A nd           | Website:  www.openfoam.com                      |
|    \\/     M anipulation  |                                                 |
\*---------------------------------------------------------------------------*/
FoamFile
{
    version     2.0;
    format      ascii;
    arch        "LSB;label=32;scalar=64";
    class       surfaceScalarField;
    location    "18.3999";
    object      ddtCorrDdt0(phi);
}
// * * * * * * * * * * * * * * * * * * * * * * * * * * * * * * * * * * * * * //

dimensions      [0 3 -2 0 0 0 0];

oriented        oriented;

internalField   nonuniform List<scalar> 
6019
(
-2.34577e-10
1.34067e-08
-1.31696e-08
-9.56025e-10
4.12348e-08
-4.05101e-08
-2.17952e-09
6.98478e-08
-6.86201e-08
-3.92215e-09
9.89424e-08
-9.71955e-08
-6.19328e-09
1.28283e-07
-1.26008e-07
-8.99719e-09
1.57606e-07
-1.54798e-07
-1.23313e-08
1.86646e-07
-1.83308e-07
-1.61905e-08
2.15131e-07
-2.11268e-07
-2.05646e-08
2.42782e-07
-2.38406e-07
-2.54357e-08
2.69347e-07
-2.64473e-07
-3.07864e-08
2.9462e-07
-2.89268e-07
-3.65904e-08
3.18459e-07
-3.12652e-07
-4.28261e-08
3.40769e-07
-3.34533e-07
-4.94638e-08
3.61504e-07
-3.54862e-07
-5.64801e-08
3.8065e-07
-3.7363e-07
-6.38476e-08
3.98235e-07
-3.90859e-07
-7.15494e-08
4.14316e-07
-4.06611e-07
-7.95577e-08
4.28992e-07
-4.20976e-07
-8.78575e-08
4.42383e-07
-4.34081e-07
-9.64206e-08
4.54644e-07
-4.46073e-07
-1.05235e-07
4.65948e-07
-4.57132e-07
-1.14278e-07
4.76498e-07
-4.67448e-07
-1.23545e-07
4.86509e-07
-4.77242e-07
-1.33019e-07
4.96225e-07
-4.86746e-07
-1.42704e-07
5.05901e-07
-4.96217e-07
-1.52593e-07
5.15822e-07
-5.05928e-07
-1.62698e-07
5.26273e-07
-5.1617e-07
-1.73042e-07
5.37616e-07
-5.27269e-07
-1.8361e-07
5.50056e-07
-5.39492e-07
-1.94425e-07
5.64111e-07
-5.53294e-07
-2.05539e-07
5.80084e-07
-5.68977e-07
-2.16997e-07
5.98458e-07
-5.86998e-07
-2.2882e-07
6.19435e-07
-6.07618e-07
-2.41089e-07
6.43674e-07
-6.31399e-07
-2.53835e-07
6.71365e-07
-6.58624e-07
-2.67157e-07
7.03124e-07
-6.89797e-07
-2.81125e-07
7.3931e-07
-7.25346e-07
-2.95785e-07
7.80181e-07
-7.65517e-07
-3.11361e-07
8.26635e-07
-8.11066e-07
-3.27724e-07
8.78145e-07
-8.61781e-07
-3.45323e-07
9.3648e-07
-9.18883e-07
-3.63886e-07
1.0002e-06
-9.81628e-07
-3.83951e-07
1.07179e-06
-1.05173e-06
-4.05311e-07
1.14928e-06
-1.12792e-06
-4.2842e-07
1.23544e-06
-1.21234e-06
-4.53037e-07
1.32812e-06
-1.3035e-06
-4.79991e-07
1.43021e-06
-1.40327e-06
-5.086e-07
1.53967e-06
-1.51106e-06
-5.39786e-07
1.65856e-06
-1.62737e-06
-5.73695e-07
1.7867e-06
-1.75279e-06
-6.09958e-07
1.9238e-06
-1.88755e-06
-6.49313e-07
2.07104e-06
-2.03168e-06
-6.92297e-07
2.22862e-06
-2.18564e-06
-7.37885e-07
2.39613e-06
-2.35054e-06
-7.87589e-07
2.57546e-06
-2.52576e-06
-8.38993e-07
2.76404e-06
-2.71264e-06
-8.94221e-07
2.97007e-06
-2.91484e-06
-9.5501e-07
3.1884e-06
-3.12761e-06
-1.02014e-06
3.41923e-06
-3.35411e-06
-1.09011e-06
3.66456e-06
-3.59459e-06
-1.16537e-06
3.92477e-06
-3.84952e-06
-1.24621e-06
4.20063e-06
-4.11979e-06
-1.33308e-06
4.49326e-06
-4.4064e-06
-1.42642e-06
4.80373e-06
-4.71038e-06
-1.52678e-06
5.13316e-06
-5.03281e-06
-1.63463e-06
5.48271e-06
-5.37485e-06
-1.75059e-06
5.85374e-06
-5.73779e-06
-1.87527e-06
6.24772e-06
-6.12304e-06
-2.00947e-06
6.66637e-06
-6.53217e-06
-2.15406e-06
7.11153e-06
-6.96693e-06
-2.31006e-06
7.58525e-06
-7.42926e-06
-2.47855e-06
8.08979e-06
-7.9213e-06
-2.66081e-06
8.62767e-06
-8.44542e-06
-2.85824e-06
9.20163e-06
-9.0042e-06
-3.07257e-06
9.81486e-06
-9.60054e-06
-3.3057e-06
1.04707e-05
-1.02376e-05
-3.56002e-06
1.11733e-05
-1.09189e-05
-3.83817e-06
1.19267e-05
-1.16485e-05
-4.14337e-06
1.2736e-05
-1.24308e-05
-4.47924e-06
1.36066e-05
-1.32708e-05
-4.8502e-06
1.45449e-05
-1.41739e-05
-5.26128e-06
1.55579e-05
-1.51468e-05
-5.71889e-06
1.66538e-05
-1.61962e-05
-6.23014e-06
1.78422e-05
-1.73309e-05
-6.80381e-06
1.91341e-05
-1.85604e-05
-7.45007e-06
2.0542e-05
-1.98958e-05
-8.18126e-06
2.20816e-05
-2.13504e-05
-9.01157e-06
2.37706e-05
-2.29403e-05
-9.9576e-06
2.56313e-05
-2.46853e-05
-1.10379e-05
2.76906e-05
-2.66104e-05
-1.22729e-05
2.99834e-05
-2.87484e-05
-1.36828e-05
3.2554e-05
-3.11442e-05
-1.52853e-05
3.54628e-05
-3.38604e-05
-1.70848e-05
3.87964e-05
-3.6997e-05
-1.90473e-05
4.26562e-05
-4.06937e-05
-2.10594e-05
4.72441e-05
-4.52321e-05
-2.30148e-05
5.28876e-05
-5.09323e-05
-2.32244e-05
6.01557e-05
-5.99461e-05
-2.01531e-05
6.92042e-05
-7.22756e-05
8.64286e-05
-0.000106582
-1.82209e-10
1.35907e-08
-7.48366e-10
4.18043e-08
-1.70857e-09
7.08103e-08
-3.07263e-09
1.00311e-07
-4.85063e-09
1.30064e-07
-7.04062e-09
1.59801e-07
-9.64714e-09
1.89255e-07
-1.2663e-08
2.18149e-07
-1.60833e-08
2.46203e-07
-1.98916e-08
2.73156e-07
-2.40755e-08
2.98805e-07
-2.86135e-08
3.22999e-07
-3.34894e-08
3.45646e-07
-3.86822e-08
3.66696e-07
-4.4169e-08
3.86142e-07
-4.99363e-08
4.04004e-07
-5.59599e-08
4.20348e-07
-6.22293e-08
4.35265e-07
-6.87195e-08
4.48883e-07
-7.54216e-08
4.61349e-07
-8.23117e-08
4.72849e-07
-8.93866e-08
4.83576e-07
-9.66267e-08
4.9376e-07
-1.04035e-07
5.03636e-07
-1.11598e-07
5.13475e-07
-1.19326e-07
5.23553e-07
-1.27214e-07
5.34172e-07
-1.35265e-07
5.45668e-07
-1.43532e-07
5.58334e-07
-1.52024e-07
5.72603e-07
-1.60723e-07
5.88794e-07
-1.69659e-07
6.07394e-07
-1.78898e-07
6.28689e-07
-1.88462e-07
6.53242e-07
-1.98418e-07
6.81336e-07
-2.08829e-07
7.13539e-07
-2.1971e-07
7.50206e-07
-2.3122e-07
7.91694e-07
-2.43313e-07
8.3874e-07
-2.56174e-07
8.91009e-07
-2.69872e-07
9.50193e-07
-2.84376e-07
1.01469e-06
-3.00096e-07
1.08751e-06
-3.16708e-07
1.16588e-06
-3.34726e-07
1.25347e-06
-3.54028e-07
1.34742e-06
-3.74925e-07
1.45112e-06
-3.97162e-07
1.56191e-06
-4.21855e-07
1.68326e-06
-4.47875e-07
1.81271e-06
-4.76374e-07
1.9523e-06
-5.07699e-07
2.10236e-06
-5.41257e-07
2.26218e-06
-5.77544e-07
2.43242e-06
-6.16446e-07
2.61437e-06
-6.59072e-07
2.80667e-06
-7.01082e-07
3.01209e-06
-7.48176e-07
3.23549e-06
-7.98751e-07
3.46981e-06
-8.53479e-07
3.71928e-06
-9.12582e-07
3.98388e-06
-9.76091e-07
4.26414e-06
-1.04422e-06
4.5614e-06
-1.11741e-06
4.87692e-06
-1.19603e-06
5.21179e-06
-1.28055e-06
5.56723e-06
-1.37147e-06
5.94467e-06
-1.46937e-06
6.34563e-06
-1.57485e-06
6.77187e-06
-1.6886e-06
7.22528e-06
-1.81134e-06
7.708e-06
-1.94396e-06
8.2224e-06
-2.08742e-06
8.77114e-06
-2.24297e-06
9.35718e-06
-2.41196e-06
9.98386e-06
-2.59608e-06
1.06549e-05
-2.79714e-06
1.13743e-05
-3.01734e-06
1.21469e-05
-3.25911e-06
1.29778e-05
-3.52542e-06
1.38729e-05
-3.81968e-06
1.48392e-05
-4.14612e-06
1.58843e-05
-4.5098e-06
1.70175e-05
-4.91674e-06
1.82491e-05
-5.37379e-06
1.95911e-05
-5.88896e-06
2.10572e-05
-6.47147e-06
2.26641e-05
-7.13158e-06
2.44307e-05
-7.88028e-06
2.638e-05
-8.72885e-06
2.85392e-05
-9.68691e-06
3.09414e-05
-1.07591e-05
3.36261e-05
-1.19408e-05
3.66444e-05
-1.31919e-05
4.00476e-05
-1.4449e-05
4.39133e-05
-1.55609e-05
4.83559e-05
-1.61685e-05
5.34952e-05
-1.53775e-05
5.93647e-05
-1.22704e-05
6.60971e-05
7.41582e-05
-1.28827e-10
1.37217e-08
-5.37869e-10
4.22164e-08
-1.22728e-09
7.15023e-08
-2.20449e-09
1.01292e-07
-3.47781e-09
1.3134e-07
-5.04685e-09
1.61374e-07
-6.9154e-09
1.91125e-07
-9.07753e-09
2.20314e-07
-1.15307e-08
2.48655e-07
-1.42618e-08
2.75889e-07
-1.72619e-08
3.01806e-07
-2.05167e-08
3.26256e-07
-2.40158e-08
3.49146e-07
-2.77414e-08
3.70425e-07
-3.16823e-08
3.90084e-07
-3.5822e-08
4.0815e-07
-4.01499e-08
4.2468e-07
-4.4649e-08
4.39773e-07
-4.93108e-08
4.53549e-07
-5.41168e-08
4.66165e-07
-5.90617e-08
4.77798e-07
-6.41303e-08
4.88656e-07
-6.93227e-08
4.98957e-07
-7.46263e-08
5.08953e-07
-8.0047e-08
5.18901e-07
-8.5575e-08
5.29094e-07
-9.1228e-08
5.39829e-07
-9.69749e-08
5.51428e-07
-1.02907e-07
5.6427e-07
-1.08972e-07
5.78682e-07
-1.15229e-07
5.95055e-07
-1.2162e-07
6.13801e-07
-1.28262e-07
6.35337e-07
-1.35094e-07
6.60092e-07
-1.42241e-07
6.88492e-07
-1.49681e-07
7.20997e-07
-1.57474e-07
7.58007e-07
-1.65737e-07
7.99973e-07
-1.74338e-07
8.47346e-07
-1.83653e-07
9.00342e-07
-1.93312e-07
9.59852e-07
-2.03858e-07
1.02525e-06
-2.1498e-07
1.09862e-06
-2.26895e-07
1.1778e-06
-2.39827e-07
1.2664e-06
-2.53551e-07
1.36115e-06
-2.6838e-07
1.46595e-06
-2.84469e-07
1.57802e-06
-3.01824e-07
1.70062e-06
-3.20212e-07
1.83111e-06
-3.41068e-07
1.97315e-06
-3.63142e-07
2.12443e-06
-3.87211e-07
2.28625e-06
-4.14378e-07
2.45959e-06
-4.42904e-07
2.6429e-06
-4.74825e-07
2.83861e-06
-5.04811e-07
3.04208e-06
-5.38448e-07
3.26914e-06
-5.7459e-07
3.50594e-06
-6.13669e-07
3.75837e-06
-6.56107e-07
4.02632e-06
-7.01699e-07
4.30974e-06
-7.50543e-07
4.61024e-06
-8.03005e-07
4.92939e-06
-8.59447e-07
5.26824e-06
-9.20238e-07
5.62803e-06
-9.85709e-07
6.01014e-06
-1.05623e-06
6.41617e-06
-1.13222e-06
6.84785e-06
-1.21411e-06
7.30718e-06
-1.30248e-06
7.79636e-06
-1.398e-06
8.31792e-06
-1.50147e-06
8.87461e-06
-1.61384e-06
9.46956e-06
-1.73609e-06
1.01061e-05
-1.86934e-06
1.07881e-05
-2.01477e-06
1.15198e-05
-2.17389e-06
1.2306e-05
-2.34848e-06
1.31524e-05
-2.54088e-06
1.40653e-05
-2.7538e-06
1.50521e-05
-2.99061e-06
1.61211e-05
-3.2551e-06
1.7282e-05
-3.55193e-06
1.85459e-05
-3.88565e-06
1.99248e-05
-4.26193e-06
2.14335e-05
-4.68666e-06
2.30888e-05
-5.16639e-06
2.49104e-05
-5.70764e-06
2.69212e-05
-6.31634e-06
2.91479e-05
-6.99559e-06
3.16207e-05
-7.74289e-06
3.43735e-05
-8.54027e-06
3.74418e-05
-9.35413e-06
4.08615e-05
-1.01177e-05
4.46769e-05
-1.06661e-05
4.89044e-05
-1.06885e-05
5.35176e-05
-9.70613e-06
5.83823e-05
-6.60054e-06
6.29915e-05
6.75577e-05
-7.48548e-11
-3.25899e-10
-7.39948e-10
-1.3272e-09
-2.08898e-09
-3.0315e-09
-4.15064e-09
-5.44982e-09
-6.92085e-09
2.50129e-07
-8.56132e-09
2.77531e-07
-1.0364e-08
3.03612e-07
-1.23246e-08
3.28219e-07
-1.44343e-08
3.51259e-07
-1.66869e-08
3.72679e-07
-1.90712e-08
3.92472e-07
-2.15771e-08
4.10659e-07
-2.41933e-08
4.27302e-07
-2.69125e-08
4.42494e-07
-2.9722e-08
4.56363e-07
-3.26165e-08
4.69062e-07
-3.55869e-08
4.80775e-07
-3.86325e-08
4.91703e-07
-4.17458e-08
5.02077e-07
-4.49288e-08
5.12138e-07
-4.81764e-08
5.22157e-07
-5.14924e-08
5.32412e-07
-5.48784e-08
5.43222e-07
-5.83277e-08
5.54878e-07
-6.18794e-08
5.67829e-07
-6.55182e-08
5.82322e-07
-6.92562e-08
5.98801e-07
-7.30973e-08
6.17645e-07
-7.70735e-08
6.39324e-07
-8.11788e-08
6.64202e-07
-8.54741e-08
6.92799e-07
-8.99227e-08
7.25449e-07
-9.46339e-08
7.62727e-07
-9.95512e-08
8.04891e-07
-1.04756e-07
8.5256e-07
-1.10329e-07
9.05916e-07
-1.1608e-07
9.65613e-07
-1.2253e-07
1.03169e-06
-1.2899e-07
1.10508e-06
-1.36357e-07
1.18517e-06
-1.43916e-07
1.27396e-06
-1.52134e-07
1.36937e-06
-1.61067e-07
1.47489e-06
-1.70548e-07
1.5875e-06
-1.80663e-07
1.71074e-06
-1.91814e-07
1.84225e-06
-2.0393e-07
1.98526e-06
-2.16558e-07
2.13706e-06
-2.3143e-07
2.30113e-06
-2.48082e-07
2.47624e-06
-2.66443e-07
2.66126e-06
-2.87197e-07
2.85936e-06
-3.07407e-07
3.0623e-06
-3.26833e-07
3.28856e-06
-3.48296e-07
3.52741e-06
-3.71495e-07
3.78156e-06
-3.96866e-07
4.05169e-06
-4.24074e-07
4.33694e-06
-4.5329e-07
4.63946e-06
-4.84771e-07
4.96087e-06
-5.18767e-07
5.30224e-06
-5.55501e-07
5.66477e-06
-5.95121e-07
6.04977e-06
-6.37738e-07
6.45878e-06
-6.83522e-07
6.89364e-06
-7.32828e-07
7.35648e-06
-7.86127e-07
7.84966e-06
-8.43915e-07
8.37571e-06
-9.06668e-07
8.93737e-06
-9.74748e-07
9.53763e-06
-1.04855e-06
1.01799e-05
-1.12857e-06
1.08681e-05
-1.21566e-06
1.16069e-05
-1.31097e-06
1.24013e-05
-1.41607e-06
1.32575e-05
-1.53268e-06
1.41819e-05
-1.6626e-06
1.5182e-05
-1.80776e-06
1.62663e-05
-1.97021e-06
1.74445e-05
-2.15315e-06
1.87289e-05
-2.35892e-06
2.01306e-05
-2.58978e-06
2.16644e-05
-2.84914e-06
2.33482e-05
-3.14068e-06
2.5202e-05
-3.46794e-06
2.72485e-05
-3.83348e-06
2.95135e-05
-4.2379e-06
3.20251e-05
-4.67774e-06
3.48133e-05
-5.14141e-06
3.79056e-05
-5.60918e-06
4.13293e-05
-6.02427e-06
4.50921e-05
-6.2877e-06
4.91679e-05
-6.24317e-06
5.34732e-05
-5.67885e-06
5.78181e-05
-4.7119e-06
6.20246e-05
6.28458e-05
-2.26934e-09
-2.81373e-09
-3.4145e-09
-4.07103e-09
-4.78271e-09
-5.54574e-09
-6.35557e-09
-7.20691e-09
-8.09487e-09
-9.01243e-09
-9.95712e-09
-1.0924e-08
-1.19137e-08
-1.29232e-08
-1.39549e-08
-1.50047e-08
-1.60777e-08
-1.71702e-08
-1.82876e-08
-1.94206e-08
-2.05945e-08
-2.17911e-08
-2.30223e-08
-2.42787e-08
-2.55901e-08
-2.69421e-08
-2.83615e-08
-2.98346e-08
-3.13878e-08
-3.30177e-08
-3.47365e-08
-3.65686e-08
-3.84826e-08
-4.0603e-08
-4.26942e-08
-4.52131e-08
-4.75284e-08
-5.0343e-08
-5.31629e-08
-5.6036e-08
-5.93929e-08
-6.27147e-08
-6.61437e-08
-6.98202e-08
-7.4347e-08
-7.88365e-08
-8.63654e-08
-9.64685e-08
-1.10039e-07
-1.13879e-07
-1.18996e-07
-1.27453e-07
-1.36641e-07
-1.45461e-07
-1.54643e-07
-1.64828e-07
-1.76112e-07
-1.88298e-07
-2.01262e-07
-2.15143e-07
-2.30308e-07
-2.47038e-07
-2.65346e-07
-2.85008e-07
-3.05742e-07
-3.27503e-07
-3.50688e-07
-3.75977e-07
-4.04286e-07
-4.3645e-07
-4.73232e-07
-5.15081e-07
-5.62159e-07
-6.14371e-07
-6.70347e-07
-7.35577e-07
-8.08488e-07
-8.88597e-07
-9.77948e-07
-1.07766e-06
-1.18901e-06
-1.31275e-06
-1.4489e-06
-1.59639e-06
-1.75379e-06
-1.91348e-06
-2.06339e-06
-2.18348e-06
-2.23774e-06
-2.08855e-06
-1.44347e-06
-1.63682e-09
1.63806e-09
-4.87519e-09
3.2399e-09
-1.16749e-08
6.80066e-09
-1.85899e-08
6.91657e-09
-2.85801e-08
9.99125e-09
-3.99273e-08
1.13493e-08
-5.43685e-08
1.44419e-08
-7.06075e-08
1.62413e-08
-8.88193e-08
1.82134e-08
-1.08717e-07
1.99009e-08
-1.29895e-07
2.11804e-08
-1.52087e-07
2.21955e-08
-1.75447e-07
2.33623e-08
-1.99922e-07
2.44786e-08
-2.25126e-07
2.52057e-08
-2.50652e-07
2.55304e-08
-2.76165e-07
2.55126e-08
-3.01795e-07
2.56331e-08
-3.26832e-07
2.50363e-08
-3.50586e-07
2.37569e-08
-3.72718e-07
2.21291e-08
-3.93358e-07
2.06423e-08
-4.11305e-07
1.79439e-08
-4.27718e-07
1.64155e-08
-4.42396e-07
1.46747e-08
-4.56177e-07
1.37837e-08
-4.66828e-07
1.06502e-08
-4.75749e-07
8.92568e-09
-4.84719e-07
8.97114e-09
-4.94536e-07
9.82183e-09
-5.06054e-07
1.15168e-08
-5.20351e-07
1.42999e-08
-5.3855e-07
1.81947e-08
-5.61628e-07
2.30796e-08
-5.90443e-07
2.88088e-08
-6.25759e-07
3.53147e-08
-6.67992e-07
4.22259e-08
-7.16883e-07
4.88886e-08
-7.72177e-07
5.52853e-08
-8.33577e-07
6.13979e-08
-9.01393e-07
6.78072e-08
-9.74296e-07
7.28998e-08
-1.05139e-06
7.70861e-08
-1.13173e-06
8.03399e-08
-1.21552e-06
8.37793e-08
-1.30303e-06
8.7507e-08
-1.3936e-06
9.05575e-08
-1.48868e-06
9.50814e-08
-1.58914e-06
1.00452e-07
-1.69598e-06
1.06833e-07
-1.81065e-06
1.14664e-07
-1.93374e-06
1.23091e-07
-2.06496e-06
1.31209e-07
-2.20735e-06
1.4239e-07
-2.36019e-06
1.52833e-07
-2.53169e-06
1.715e-07
-2.71332e-06
1.81623e-07
-2.90934e-06
1.96017e-07
-3.11826e-06
2.08921e-07
-3.33819e-06
2.19927e-07
-3.57408e-06
2.35879e-07
-3.83212e-06
2.58039e-07
-4.0842e-06
2.52071e-07
-4.34299e-06
2.58786e-07
-4.61614e-06
2.7315e-07
-4.91498e-06
2.98837e-07
-5.24294e-06
3.27951e-07
-5.59378e-06
3.50839e-07
-5.96571e-06
3.71917e-07
-6.3642e-06
3.98489e-07
-6.79094e-06
4.26739e-07
-7.2463e-06
4.55354e-07
-7.73214e-06
4.85835e-07
-8.24581e-06
5.13673e-07
-8.78632e-06
5.40507e-07
-9.35262e-06
5.66299e-07
-9.94372e-06
5.91093e-07
-1.05588e-05
6.15049e-07
-1.11972e-05
6.38375e-07
-1.18584e-05
6.61231e-07
-1.25439e-05
6.85488e-07
-1.32576e-05
7.13769e-07
-1.39995e-05
7.41861e-07
-1.47633e-05
7.63828e-07
-1.55443e-05
7.8092e-07
-1.63401e-05
7.95814e-07
-1.7147e-05
8.06885e-07
-1.79588e-05
8.11842e-07
-1.87655e-05
8.06681e-07
-1.95535e-05
7.88035e-07
-2.03123e-05
7.58807e-07
-2.10343e-05
7.21983e-07
-2.1737e-05
7.0271e-07
-2.23947e-05
6.5764e-07
-2.29534e-05
5.58699e-07
-2.34128e-05
4.59448e-07
-2.37817e-05
3.68857e-07
-2.40585e-05
2.76826e-07
-2.42326e-05
1.74127e-07
8.14025e-08
-2.4314e-05
-6.2474e-10
2.26416e-09
-3.76905e-09
6.38559e-09
-9.99511e-09
1.30279e-08
-1.83331e-08
1.52561e-08
-2.8046e-08
1.97055e-08
-3.91535e-08
2.24583e-08
-5.20706e-08
2.73604e-08
-6.67437e-08
3.09163e-08
-8.34705e-08
3.49423e-08
-1.0164e-07
3.80736e-08
-1.20868e-07
4.04108e-08
-1.40985e-07
4.23156e-08
-1.62927e-07
4.53064e-08
-1.86297e-07
4.78522e-08
-2.10695e-07
4.96058e-08
-2.35755e-07
5.05935e-08
-2.61183e-07
5.09423e-08
-2.88288e-07
5.27394e-08
-3.15631e-07
5.23798e-08
-3.42836e-07
5.0962e-08
-3.69466e-07
4.8759e-08
-3.97166e-07
4.8343e-08
-4.22047e-07
4.28242e-08
-4.47942e-07
4.231e-08
-4.72468e-07
3.92002e-08
-4.98459e-07
3.97761e-08
-5.21181e-07
3.33728e-08
-5.44588e-07
3.23368e-08
-5.68132e-07
3.25169e-08
-5.91924e-07
3.36164e-08
-6.16172e-07
3.57652e-08
-6.41222e-07
3.93512e-08
-6.67372e-07
4.43425e-08
-6.94939e-07
5.06456e-08
-7.24343e-07
5.82093e-08
-7.56637e-07
6.76067e-08
-7.91844e-07
7.74278e-08
-8.29895e-07
8.69365e-08
-8.71346e-07
9.67325e-08
-9.16757e-07
1.06805e-07
-9.65433e-07
1.16478e-07
-1.0191e-06
1.2656e-07
-1.07824e-06
1.36223e-07
-1.14293e-06
1.45026e-07
-1.21349e-06
1.54336e-07
-1.28934e-06
1.6336e-07
-1.3711e-06
1.72305e-07
-1.45884e-06
1.82824e-07
-1.55371e-06
1.95316e-07
-1.65645e-06
2.09572e-07
-1.76654e-06
2.24743e-07
-1.88565e-06
2.42208e-07
-2.01397e-06
2.59517e-07
-2.15135e-06
2.79769e-07
-2.29464e-06
2.96125e-07
-2.45677e-06
3.33627e-07
-2.63294e-06
3.57786e-07
-2.81633e-06
3.79406e-07
-3.01107e-06
4.0366e-07
-3.2175e-06
4.26357e-07
-3.43355e-06
4.51921e-07
-3.65177e-06
4.7626e-07
-3.89508e-06
4.95373e-07
-4.18892e-06
5.5262e-07
-4.49071e-06
5.74938e-07
-4.80619e-06
6.14321e-07
-5.13e-06
6.51754e-07
-5.4832e-06
7.04039e-07
-5.8606e-06
7.49315e-07
-6.25973e-06
7.97617e-07
-6.68107e-06
8.48074e-07
-7.12684e-06
9.01121e-07
-7.59715e-06
9.5614e-07
-8.09447e-06
1.01099e-06
-8.61902e-06
1.06505e-06
-9.1714e-06
1.11867e-06
-9.75208e-06
1.17178e-06
-1.03615e-05
1.22444e-06
-1.09998e-05
1.27666e-06
-1.16649e-05
1.32642e-06
-1.23586e-05
1.37917e-06
-1.30829e-05
1.438e-06
-1.38332e-05
1.49222e-06
-1.46068e-05
1.53744e-06
-1.54039e-05
1.57796e-06
-1.62227e-05
1.61465e-06
-1.70596e-05
1.64372e-06
-1.79124e-05
1.66469e-06
-1.87703e-05
1.66458e-06
-1.96171e-05
1.63484e-06
-2.04359e-05
1.57755e-06
-2.12193e-05
1.50542e-06
-2.19555e-05
1.43887e-06
-2.26537e-05
1.35591e-06
-2.33233e-05
1.22827e-06
-2.39327e-05
1.06888e-06
-2.44554e-05
8.91539e-07
-2.4875e-05
6.96387e-07
-2.52018e-05
5.00965e-07
3.03973e-07
-2.54244e-05
-5.01836e-10
2.76738e-09
-3.60027e-09
9.48543e-09
-6.81554e-09
1.62446e-08
-1.29797e-08
2.14217e-08
-2.09e-08
2.76271e-08
-3.18259e-08
3.33855e-08
-4.42038e-08
3.97398e-08
-5.83449e-08
4.50593e-08
-7.47302e-08
5.133e-08
-9.08276e-08
5.41738e-08
-1.09572e-07
5.91576e-08
-1.31651e-07
6.4398e-08
-1.5456e-07
6.8218e-08
-1.77824e-07
7.11198e-08
-2.01983e-07
7.37669e-08
-2.26541e-07
7.51539e-08
-2.51061e-07
7.54642e-08
-2.78121e-07
7.98004e-08
-3.051e-07
7.93599e-08
-3.32332e-07
7.81938e-08
-3.60247e-07
7.66746e-08
-3.88565e-07
7.66608e-08
-4.17894e-07
7.21526e-08
-4.49278e-07
7.36949e-08
-4.81296e-07
7.12181e-08
-5.11282e-07
6.97629e-08
-5.4268e-07
6.47731e-08
-5.7573e-07
6.53901e-08
-6.09783e-07
6.65714e-08
-6.44847e-07
6.86828e-08
-6.80344e-07
7.12633e-08
-7.16598e-07
7.56049e-08
-7.53602e-07
8.13451e-08
-7.912e-07
8.82422e-08
-8.2881e-07
9.5817e-08
-8.69506e-07
1.08301e-07
-9.12847e-07
1.20766e-07
-9.56765e-07
1.30853e-07
-1.00333e-06
1.43292e-07
-1.05256e-06
1.56037e-07
-1.10568e-06
1.69597e-07
-1.16257e-06
1.83446e-07
-1.22406e-06
1.97708e-07
-1.29187e-06
2.12827e-07
-1.36539e-06
2.27855e-07
-1.44412e-06
2.42094e-07
-1.52883e-06
2.5701e-07
-1.62083e-06
2.74817e-07
-1.72059e-06
2.95076e-07
-1.82832e-06
3.17303e-07
-1.94499e-06
3.41411e-07
-2.07029e-06
3.67505e-07
-2.20608e-06
3.95304e-07
-2.35136e-06
4.25045e-07
-2.5082e-06
4.52962e-07
-2.67638e-06
5.01807e-07
-2.85667e-06
5.38077e-07
-3.04991e-06
5.72639e-07
-3.25543e-06
6.09181e-07
-3.4757e-06
6.46626e-07
-3.71181e-06
6.88027e-07
-3.96958e-06
7.34036e-07
-4.24166e-06
7.67444e-07
-4.5005e-06
8.11462e-07
-4.80589e-06
8.80324e-07
-5.13411e-06
9.42546e-07
-5.48912e-06
1.00676e-06
-5.85966e-06
1.07458e-06
-6.25379e-06
1.14345e-06
-6.67144e-06
1.21526e-06
-7.11385e-06
1.29049e-06
-7.58169e-06
1.36896e-06
-8.07544e-06
1.44989e-06
-8.59692e-06
1.53247e-06
-9.14757e-06
1.61571e-06
-9.72978e-06
1.70088e-06
-1.03433e-05
1.78533e-06
-1.09895e-05
1.87058e-06
-1.16641e-05
1.9513e-06
-1.23623e-05
2.02456e-06
-1.30932e-05
2.11014e-06
-1.38607e-05
2.2055e-06
-1.46639e-05
2.29542e-06
-1.55042e-05
2.37771e-06
-1.6378e-05
2.45181e-06
-1.72796e-05
2.51624e-06
-1.82034e-05
2.56755e-06
-1.91483e-05
2.60957e-06
-2.00934e-05
2.6097e-06
-2.10292e-05
2.57059e-06
-2.19477e-05
2.49602e-06
-2.28633e-05
2.42104e-06
-2.37797e-05
2.35528e-06
-2.46535e-05
2.22974e-06
-2.54677e-05
2.04243e-06
-2.62054e-05
1.80654e-06
-2.68467e-05
1.53288e-06
-2.73775e-05
1.22722e-06
-2.77797e-05
9.03135e-07
5.71596e-07
-2.80473e-05
-8.52743e-10
3.6215e-09
-3.15964e-09
1.17938e-08
-7.03893e-09
2.01254e-08
-1.33294e-08
2.77135e-08
-2.12418e-08
3.55407e-08
-3.10154e-08
4.31605e-08
-4.22836e-08
5.10094e-08
-5.54945e-08
5.82723e-08
-7.01637e-08
6.60016e-08
-8.6899e-08
7.09115e-08
-1.0523e-07
7.74911e-08
-1.24483e-07
8.36548e-08
-1.45171e-07
8.89087e-08
-1.6729e-07
9.32426e-08
-1.9081e-07
9.72889e-08
-2.15624e-07
9.99703e-08
-2.41591e-07
1.01432e-07
-2.6809e-07
1.063e-07
-2.95807e-07
1.07077e-07
-3.24508e-07
1.06895e-07
-3.5436e-07
1.06528e-07
-3.83669e-07
1.0597e-07
-4.17046e-07
1.05529e-07
-4.46486e-07
1.03136e-07
-4.78594e-07
1.03327e-07
-5.15421e-07
1.06592e-07
-5.56827e-07
1.06181e-07
-5.97252e-07
1.05817e-07
-6.37327e-07
1.06648e-07
-6.77533e-07
1.08891e-07
-7.17987e-07
1.11719e-07
-7.58614e-07
1.16231e-07
-7.99879e-07
1.22609e-07
-8.41368e-07
1.2973e-07
-8.84375e-07
1.38822e-07
-9.26952e-07
1.50876e-07
-9.71761e-07
1.65574e-07
-1.01672e-06
1.75807e-07
-1.06546e-06
1.92037e-07
-1.11649e-06
2.07066e-07
-1.17101e-06
2.24108e-07
-1.22958e-06
2.42024e-07
-1.29264e-06
2.60759e-07
-1.36537e-06
2.85562e-07
-1.44238e-06
3.04856e-07
-1.52063e-06
3.20345e-07
-1.6062e-06
3.42587e-07
-1.70081e-06
3.69418e-07
-1.80412e-06
3.98386e-07
-1.91605e-06
4.29231e-07
-2.03711e-06
4.62476e-07
-2.16752e-06
4.97909e-07
-2.30853e-06
5.36313e-07
-2.46053e-06
5.77048e-07
-2.62897e-06
6.21403e-07
-2.80104e-06
6.73881e-07
-2.98589e-06
7.22925e-07
-3.18437e-06
7.71115e-07
-3.39735e-06
8.22163e-07
-3.62474e-06
8.74019e-07
-3.87028e-06
9.33566e-07
-4.12926e-06
9.93018e-07
-4.40482e-06
1.043e-06
-4.70595e-06
1.11259e-06
-5.01778e-06
1.19216e-06
-5.35206e-06
1.27683e-06
-5.70617e-06
1.36086e-06
-6.08094e-06
1.44935e-06
-6.47973e-06
1.54224e-06
-6.90339e-06
1.63893e-06
-7.35258e-06
1.73968e-06
-7.8282e-06
1.84458e-06
-8.33185e-06
1.95354e-06
-8.86557e-06
2.06619e-06
-9.43082e-06
2.18096e-06
-1.00314e-05
2.30147e-06
-1.06634e-05
2.41729e-06
-1.13377e-05
2.54488e-06
-1.20287e-05
2.64236e-06
-1.27466e-05
2.74245e-06
-1.35328e-05
2.89633e-06
-1.43646e-05
3.03728e-06
-1.5229e-05
3.15982e-06
-1.61227e-05
3.27143e-06
-1.7044e-05
3.37311e-06
-1.79879e-05
3.46013e-06
-1.89465e-05
3.52615e-06
-1.9892e-05
3.55509e-06
-2.08564e-05
3.57412e-06
-2.18671e-05
3.58125e-06
-2.29433e-05
3.57225e-06
-2.40258e-05
3.50353e-06
-2.50139e-05
3.34338e-06
-2.59259e-05
3.14176e-06
-2.67729e-05
2.88936e-06
-2.75419e-05
2.57558e-06
-2.82115e-05
2.20242e-06
-2.87628e-05
1.77851e-06
-2.91762e-05
1.31663e-06
8.31348e-07
-2.9436e-05
-8.42071e-10
4.46512e-09
-3.12458e-09
1.40779e-08
-7.26852e-09
2.42708e-08
-1.32906e-08
3.37371e-08
-2.11658e-08
4.34172e-08
-3.07774e-08
5.27734e-08
-4.20833e-08
6.2317e-08
-5.51254e-08
7.13165e-08
-6.91667e-08
8.00452e-08
-8.60412e-08
8.77885e-08
-1.03961e-07
9.54141e-08
-1.2313e-07
1.02828e-07
-1.43643e-07
1.09425e-07
-1.65477e-07
1.1508e-07
-1.8828e-07
1.20095e-07
-2.1263e-07
1.24322e-07
-2.38897e-07
1.27701e-07
-2.63915e-07
1.31319e-07
-2.9056e-07
1.33723e-07
-3.1893e-07
1.35265e-07
-3.48663e-07
1.36261e-07
-3.79803e-07
1.37111e-07
-4.11797e-07
1.37523e-07
-4.46337e-07
1.37676e-07
-4.81206e-07
1.38197e-07
-5.14469e-07
1.39857e-07
-5.50032e-07
1.41746e-07
-5.87427e-07
1.43214e-07
-6.26135e-07
1.45358e-07
-6.6584e-07
1.48597e-07
-7.06939e-07
1.52818e-07
-7.49283e-07
1.58575e-07
-7.9224e-07
1.65565e-07
-8.36771e-07
1.7426e-07
-8.82941e-07
1.84992e-07
-9.29119e-07
1.97053e-07
-9.75722e-07
2.12176e-07
-1.02452e-06
2.24604e-07
-1.07691e-06
2.44426e-07
-1.12978e-06
2.59936e-07
-1.18746e-06
2.81787e-07
-1.24777e-06
3.02334e-07
-1.31309e-06
3.26076e-07
-1.3752e-06
3.47679e-07
-1.44418e-06
3.73839e-07
-1.53177e-06
4.07933e-07
-1.63088e-06
4.41699e-07
-1.73493e-06
4.73463e-07
-1.84471e-06
5.08165e-07
-1.961e-06
5.45524e-07
-2.08517e-06
5.86652e-07
-2.21702e-06
6.29756e-07
-2.35818e-06
6.77474e-07
-2.50785e-06
7.2672e-07
-2.6717e-06
7.85255e-07
-2.84604e-06
8.48217e-07
-3.02667e-06
9.03558e-07
-3.22277e-06
9.67214e-07
-3.4329e-06
1.0323e-06
-3.65592e-06
1.09703e-06
-3.90525e-06
1.18291e-06
-4.15848e-06
1.24625e-06
-4.41469e-06
1.29921e-06
-4.70268e-06
1.40057e-06
-5.01999e-06
1.50947e-06
-5.35373e-06
1.61057e-06
-5.70722e-06
1.71436e-06
-6.08282e-06
1.82494e-06
-6.48173e-06
1.94115e-06
-6.90509e-06
2.06229e-06
-7.35405e-06
2.18864e-06
-7.82988e-06
2.3204e-06
-8.33358e-06
2.45724e-06
-8.86597e-06
2.59859e-06
-9.4303e-06
2.74529e-06
-1.00219e-05
2.89307e-06
-1.06569e-05
3.05228e-06
-1.13175e-05
3.20554e-06
-1.20701e-05
3.39487e-06
-1.29153e-05
3.58773e-06
-1.37469e-05
3.72785e-06
-1.45831e-05
3.87349e-06
-1.54481e-05
4.02483e-06
-1.63477e-05
4.17109e-06
-1.728e-05
4.30543e-06
-1.82425e-05
4.42256e-06
-1.9234e-05
4.5177e-06
-2.02636e-05
4.58465e-06
-2.13141e-05
4.62463e-06
-2.23691e-05
4.63624e-06
-2.34065e-05
4.60965e-06
-2.44289e-05
4.52595e-06
-2.5449e-05
4.36351e-06
-2.64301e-05
4.12286e-06
-2.73486e-05
3.80782e-06
-2.8186e-05
3.41304e-06
-2.89209e-05
2.93733e-06
-2.95293e-05
2.38683e-06
-2.99861e-05
1.77347e-06
1.11379e-06
-3.02686e-05
-7.90128e-10
5.25684e-09
-3.19224e-09
1.64816e-08
-7.19016e-09
2.82702e-08
-1.30718e-08
3.96202e-08
-2.06998e-08
5.10466e-08
-3.01614e-08
6.22365e-08
-4.12316e-08
7.33889e-08
-5.40035e-08
8.40905e-08
-6.83343e-08
9.43784e-08
-8.45914e-08
1.04048e-07
-1.02306e-07
1.13131e-07
-1.21157e-07
1.21682e-07
-1.41316e-07
1.29588e-07
-1.62756e-07
1.36523e-07
-1.85455e-07
1.42797e-07
-2.09439e-07
1.48308e-07
-2.34696e-07
1.52959e-07
-2.60532e-07
1.57155e-07
-2.87548e-07
1.60739e-07
-3.15716e-07
1.63433e-07
-3.45003e-07
1.65549e-07
-3.75207e-07
1.67316e-07
-4.06489e-07
1.68805e-07
-4.39001e-07
1.70189e-07
-4.72545e-07
1.71742e-07
-5.06641e-07
1.73954e-07
-5.41522e-07
1.76628e-07
-5.7765e-07
1.79344e-07
-6.14904e-07
1.82613e-07
-6.53244e-07
1.86939e-07
-6.92873e-07
1.92448e-07
-7.33684e-07
1.99386e-07
-7.75795e-07
2.07675e-07
-8.19342e-07
2.17807e-07
-8.63855e-07
2.29505e-07
-9.09906e-07
2.43104e-07
-9.56725e-07
2.58996e-07
-1.00745e-06
2.75327e-07
-1.0587e-06
2.95677e-07
-1.11403e-06
3.15267e-07
-1.17184e-06
3.39598e-07
-1.23309e-06
3.63588e-07
-1.29852e-06
3.91505e-07
-1.37031e-06
4.19471e-07
-1.44826e-06
4.51793e-07
-1.52717e-06
4.86847e-07
-1.61282e-06
5.27342e-07
-1.70609e-06
5.66739e-07
-1.80758e-06
6.09655e-07
-1.91791e-06
6.55857e-07
-2.03669e-06
7.05432e-07
-2.16417e-06
7.57237e-07
-2.30179e-06
8.15095e-07
-2.45246e-06
8.77393e-07
-2.60449e-06
9.37293e-07
-2.75689e-06
1.00061e-06
-2.93227e-06
1.07894e-06
-3.1202e-06
1.15515e-06
-3.32477e-06
1.23687e-06
-3.55426e-06
1.32653e-06
-3.77416e-06
1.40281e-06
-4.03895e-06
1.51104e-06
-4.37767e-06
1.63792e-06
-4.7083e-06
1.7312e-06
-5.02339e-06
1.82457e-06
-5.35203e-06
1.93921e-06
-5.70256e-06
2.06489e-06
-6.07498e-06
2.19736e-06
-6.4706e-06
2.33677e-06
-6.89157e-06
2.48327e-06
-7.33967e-06
2.63674e-06
-7.81628e-06
2.79701e-06
-8.32292e-06
2.96388e-06
-8.86129e-06
3.13697e-06
-9.43255e-06
3.31655e-06
-1.00411e-05
3.50165e-06
-1.06831e-05
3.69425e-06
-1.13702e-05
3.89267e-06
-1.20744e-05
4.09903e-06
-1.27995e-05
4.31283e-06
-1.35876e-05
4.51595e-06
-1.44222e-05
4.70809e-06
-1.5296e-05
4.89867e-06
-1.62093e-05
5.08437e-06
-1.71619e-05
5.2581e-06
-1.81532e-05
5.41382e-06
-1.91815e-05
5.54602e-06
-2.02455e-05
5.64862e-06
-2.13375e-05
5.71661e-06
-2.24454e-05
5.74412e-06
-2.35557e-05
5.71994e-06
-2.46576e-05
5.62793e-06
-2.57444e-05
5.45029e-06
-2.67994e-05
5.17785e-06
-2.7799e-05
4.80744e-06
-2.87188e-05
4.33278e-06
-2.95311e-05
3.74964e-06
-3.0205e-05
3.06072e-06
-3.07082e-05
2.27674e-06
1.41617e-06
-3.10106e-05
-7.78604e-10
6.03712e-09
-3.12781e-09
1.88325e-08
-7.04978e-09
3.21938e-08
-1.27698e-08
4.53417e-08
-2.0196e-08
5.84742e-08
-2.94078e-08
7.14499e-08
-4.02332e-08
8.42162e-08
-5.27545e-08
9.66138e-08
-6.68765e-08
1.08503e-07
-8.25903e-08
1.19765e-07
-9.98213e-08
1.30366e-07
-1.18379e-07
1.40244e-07
-1.38223e-07
1.49435e-07
-1.59427e-07
1.5773e-07
-1.81793e-07
1.65165e-07
-2.0534e-07
1.71857e-07
-2.30037e-07
1.77656e-07
-2.55633e-07
1.82751e-07
-2.82133e-07
1.8724e-07
-3.09665e-07
1.90966e-07
-3.38236e-07
1.9412e-07
-3.67762e-07
1.96843e-07
-3.98277e-07
1.9932e-07
-4.29806e-07
2.01719e-07
-4.62319e-07
2.04255e-07
-4.95542e-07
2.07178e-07
-5.29444e-07
2.10532e-07
-5.64378e-07
2.14279e-07
-6.00438e-07
2.18675e-07
-6.37569e-07
2.24071e-07
-6.75809e-07
2.30689e-07
-7.15114e-07
2.38691e-07
-7.55638e-07
2.48198e-07
-7.9743e-07
2.596e-07
-8.40598e-07
2.72674e-07
-8.85415e-07
2.87922e-07
-9.31593e-07
3.05176e-07
-9.80619e-07
3.24354e-07
-1.03104e-06
3.46101e-07
-1.08521e-06
3.69436e-07
-1.14173e-06
3.96124e-07
-1.20248e-06
4.24334e-07
-1.2669e-06
4.55927e-07
-1.33683e-06
4.89407e-07
-1.41183e-06
5.26793e-07
-1.49208e-06
5.67101e-07
-1.5769e-06
6.12162e-07
-1.66878e-06
6.58617e-07
-1.76769e-06
7.08575e-07
-1.87484e-06
7.63005e-07
-1.98919e-06
8.19781e-07
-2.11349e-06
8.81547e-07
-2.2472e-06
9.48805e-07
-2.38926e-06
1.01945e-06
-2.54547e-06
1.09351e-06
-2.71549e-06
1.17063e-06
-2.89217e-06
1.25563e-06
-3.08383e-06
1.3468e-06
-3.28921e-06
1.44226e-06
-3.50779e-06
1.5451e-06
-3.75382e-06
1.64885e-06
-4.00496e-06
1.76219e-06
-4.25823e-06
1.8912e-06
-4.54477e-06
2.01774e-06
-4.86068e-06
2.14049e-06
-5.19543e-06
2.27396e-06
-5.54986e-06
2.41932e-06
-5.92579e-06
2.57329e-06
-6.32458e-06
2.73556e-06
-6.74773e-06
2.90642e-06
-7.19678e-06
3.08579e-06
-7.67326e-06
3.2735e-06
-8.17883e-06
3.46946e-06
-8.71535e-06
3.67349e-06
-9.28436e-06
3.88556e-06
-9.88806e-06
4.10535e-06
-1.05269e-05
4.33306e-06
-1.12023e-05