/*--------------------------------*- C++ -*----------------------------------*\
| =========                 |                                                 |
| \\      /  F ield         | OpenFOAM: The Open Source CFD Toolbox           |
|  \\    /   O peration     | Version:  2206                                  |
|   \\  /    A nd           | Website:  www.openfoam.com                      |
|    \\/     M anipulation  |                                                 |
\*---------------------------------------------------------------------------*/
FoamFile
{
    version     2.0;
    format      ascii;
    arch        "LSB;label=32;scalar=64";
    class       volVectorField;
    location    "19.8999";
    object      ddt0(U);
}
// * * * * * * * * * * * * * * * * * * * * * * * * * * * * * * * * * * * * * //

dimensions      [0 1 -2 0 0 0 0];

internalField   nonuniform List<vector> 
4830
(
(7.25889 -50.1923 0)
(6.20081 -56.2879 0)
(5.05579 -61.7483 0)
(3.87088 -66.3875 0)
(2.68331 -70.037 0)
(1.53214 -72.5332 0)
(0.483707 -73.6132 0)
(-0.418881 -73.176 0)
(-1.18713 -71.7298 0)
(-1.81678 -69.3396 0)
(-2.29597 -66.1039 0)
(-2.62014 -62.1345 0)
(-2.79048 -57.5523 0)
(-2.80756 -52.4727 0)
(-2.68854 -47.0054 0)
(-2.47506 -41.2549 0)
(-2.2107 -35.2667 0)
(-2.10416 -29.0366 0)
(-1.95332 -22.6482 0)
(-1.78862 -16.286 0)
(-1.46055 -10.2365 0)
(-0.945526 -5.01888 0)
(-0.504517 -1.20774 0)
(-0.120205 9.59158 0)
(0.406428 17.1321 0)
(0.705976 24.2212 0)
(0.90497 31.2102 0)
(1.072 37.9976 0)
(1.21833 44.4944 0)
(1.34791 50.5883 0)
(1.46189 56.1642 0)
(1.55974 61.1049 0)
(1.63952 65.2924 0)
(1.69931 68.6106 0)
(1.74152 70.9142 0)
(1.78339 71.9301 0)
(1.85378 71.5057 0)
(1.98048 70.0721 0)
(2.17274 67.6583 0)
(2.44315 64.3259 0)
(2.79961 60.1676 0)
(3.24411 55.3014 0)
(3.77276 49.8618 0)
(4.37423 43.9916 0)
(5.03367 37.8421 0)
(5.73349 31.5653 0)
(6.44909 25.3 0)
(7.13526 19.1792 0)
(7.69782 13.332 0)
(8.30837 7.76617 0)
(9.37183 1.84749 0)
(9.99206 -4.28549 0)
(10.7113 -9.89398 0)
(11.2246 -15.0272 0)
(11.524 -19.7003 0)
(11.6362 -23.9478 0)
(11.5404 -27.8069 0)
(11.2228 -31.3006 0)
(10.6814 -34.441 0)
(9.92113 -37.2288 0)
(8.95461 -39.6546 0)
(7.80156 -41.6998 0)
(6.48866 -43.3371 0)
(5.04576 -44.5336 0)
(3.49738 -45.2433 0)
(1.87618 -45.3465 0)
(0.240003 -44.9854 0)
(-1.3791 -44.1662 0)
(-2.96299 -42.8819 0)
(-4.49193 -41.1356 0)
(-5.94954 -38.9415 0)
(-7.32369 -36.3236 0)
(-8.6059 -33.3132 0)
(-9.79078 -29.947 0)
(-10.8763 -26.2658 0)
(-11.8654 -22.3138 0)
(-12.7592 -18.1258 0)
(-13.5609 -13.7083 0)
(-14.3726 -8.99368 0)
(-15.2575 -3.84334 0)
(-15.867 1.61276 0)
(-16.4721 7.11518 0)
(-16.936 12.6119 0)
(-17.2353 18.0069 0)
(-17.3828 23.2067 0)
(-17.3674 28.123 0)
(-17.179 32.6645 0)
(-16.811 36.7401 0)
(-16.2583 40.2623 0)
(-15.518 43.1457 0)
(-14.5838 45.2864 0)
(-13.407 46.5083 0)
(-11.9604 46.6673 0)
(-10.3758 46.111 0)
(-8.6702 44.8932 0)
(-6.86483 43.08 0)
(-4.98927 40.7455 0)
(-3.07639 37.9726 0)
(-1.15713 34.844 0)
(0.737722 31.4435 0)
(2.57989 27.8488 0)
(4.34416 24.1271 0)
(6.01027 20.3306 0)
(7.55977 16.4899 0)
(9.00947 12.6044 0)
(10.4918 8.60545 0)
(11.9361 4.40884 0)
(13.1026 0.189596 0)
(14.1468 -3.97155 0)
(14.9656 -8.12733 0)
(15.5673 -12.2665 0)
(15.9656 -16.3811 0)
(16.1654 -20.4551 0)
(16.1765 -24.4574 0)
(16.0102 -28.3438 0)
(15.6774 -32.0585 0)
(15.1896 -35.5361 0)
(14.5613 -38.7054 0)
(13.8108 -41.4919 0)
(12.9591 -43.8228 0)
(12.0297 -45.6273 0)
(11.0501 -46.8224 0)
(10.023 -47.2433 0)
(8.99922 -47.0265 0)
(8.00373 -46.2829 0)
(7.03826 -45.0294 0)
(6.10932 -43.2905 0)
(5.22268 -41.1073 0)
(4.38013 -38.5045 0)
(3.59002 -35.5413 0)
(2.87776 -32.2549 0)
(2.30037 -28.7695 0)
(1.86367 -25.0505 0)
(1.51404 -21.3063 0)
(1.17879 -17.4124 0)
(0.90765 -13.5066 0)
(0.286662 -8.90546 0)
(0.0156004 -3.71621 0)
(9.18464 -48.9575 0)
(7.88981 -54.9066 0)
(6.48802 -60.2912 0)
(5.0208 -64.8967 0)
(3.53493 -68.5545 0)
(2.07118 -71.1086 0)
(0.698955 -72.3421 0)
(-0.524966 -72.0509 0)
(-1.60474 -70.763 0)
(-2.53676 -68.5462 0)
(-3.30628 -65.4984 0)
(-3.90455 -61.7175 0)
(-4.33342 -57.3031 0)
(-4.62928 -52.3761 0)
(-4.82076 -47.0226 0)
(-4.93393 -41.3034 0)
(-5.01486 -35.2941 0)
(-5.06084 -29.0869 0)
(-5.01549 -22.8344 0)
(-4.81063 -16.7661 0)
(-4.23134 -11.1207 0)
(-3.52577 -5.99151 0)
(-4.04477 0.419627 0)
(-3.91277 8.6931 0)
(-3.41782 16.477 0)
(-2.95807 23.8379 0)
(-2.65261 30.9301 0)
(-2.38805 37.7581 0)
(-2.12129 44.2659 0)
(-1.84664 50.3611 0)
(-1.55774 55.9367 0)
(-1.25388 60.8791 0)
(-0.939062 65.0719 0)
(-0.618498 68.398 0)
(-0.293227 70.7055 0)
(0.0552568 71.6937 0)
(0.451211 71.2196 0)
(0.906054 69.7184 0)
(1.42504 67.224 0)
(2.01659 63.8054 0)
(2.68235 59.5585 0)
(3.41685 54.6058 0)
(4.21233 49.0911 0)
(5.05531 43.1643 0)
(5.9239 36.9776 0)
(6.7972 30.6876 0)
(7.65687 24.4454 0)
(8.4507 18.3759 0)
(9.10148 12.5687 0)
(9.9567 6.91137 0)
(10.9961 0.814003 0)
(11.6889 -5.13036 0)
(12.4333 -10.5548 0)
(12.9583 -15.4928 0)
(13.2829 -19.9532 0)
(13.4165 -23.9713 0)
(13.3349 -27.5855 0)
(13.0248 -30.8248 0)
(12.4811 -33.7101 0)
(11.7059 -36.2515 0)
(10.7097 -38.448 0)
(9.51082 -40.2884 0)
(8.13467 -41.7531 0)
(6.60864 -42.8098 0)
(4.95069 -43.396 0)
(3.20423 -43.4475 0)
(1.43509 -43.081 0)
(-0.331567 -42.2813 0)
(-2.07684 -41.0401 0)
(-3.7776 -39.3586 0)
(-5.41574 -37.248 0)
(-6.97579 -34.7265 0)
(-8.44565 -31.8212 0)
(-9.81722 -28.5662 0)
(-11.0861 -24.9989 0)
(-12.2503 -21.1555 0)
(-13.3037 -17.0613 0)
(-14.266 -12.7122 0)
(-15.2498 -8.02738 0)
(-16.1834 -2.93552 0)
(-16.8708 2.36004 0)
(-17.5021 7.70046 0)
(-17.9477 13.0231 0)
(-18.2063 18.2308 0)
(-18.2835 23.2344 0)
(-18.1682 27.9459 0)
(-17.8536 32.275 0)
(-17.3364 36.1342 0)
(-16.6148 39.4377 0)
(-15.6876 42.0934 0)
(-14.5472 43.9854 0)
(-13.1269 44.8951 0)
(-11.4713 44.8651 0)
(-9.69032 44.1552 0)
(-7.79523 42.817 0)
(-5.81413 40.918 0)
(-3.78394 38.5354 0)
(-1.7384 35.7527 0)
(0.287414 32.65 0)
(2.26182 29.3049 0)
(4.16566 25.7926 0)
(5.98003 22.1741 0)
(7.6899 18.4887 0)
(9.29482 14.7471 0)
(10.8619 10.9246 0)
(12.4518 6.96669 0)
(13.7735 2.91972 0)
(14.9546 -1.03565 0)
(15.9311 -4.96587 0)
(16.6746 -8.88075 0)
(17.1987 -12.7787 0)
(17.507 -16.6606 0)
(17.6053 -20.5129 0)
(17.5046 -24.3063 0)
(17.2177 -27.9976 0)
(16.7584 -31.5309 0)
(16.1404 -34.8417 0)
(15.3776 -37.8599 0)
(14.4872 -40.5168 0)
(13.4861 -42.7397 0)
(12.3941 -44.4602 0)
(11.2344 -45.5939 0)
(10.0071 -45.9749 0)
(8.7752 -45.7711 0)
(7.56207 -45.0531 0)
(6.37717 -43.8349 0)
(5.2351 -42.136 0)
(4.15152 -40.0036 0)
(3.15414 -37.4757 0)
(2.2716 -34.6162 0)
(1.51709 -31.5034 0)
(0.855911 -28.2289 0)
(0.187691 -24.6344 0)
(-0.286061 -20.832 0)
(-0.830305 -16.8701 0)
(-1.29321 -12.9671 0)
(-1.59024 -8.23906 0)
(-2.09906 -3.5222 0)
(11.0315 -47.487 0)
(9.51767 -53.2677 0)
(7.86648 -58.533 0)
(6.13345 -63.0861 0)
(4.3619 -66.7378 0)
(2.60014 -69.3385 0)
(0.916011 -70.7217 0)
(-0.615936 -70.5894 0)
(-1.98899 -69.4692 0)
(-3.2137 -67.4331 0)
(-4.27787 -64.5682 0)
(-5.17746 -60.9646 0)
(-5.93094 -56.7236 0)
(-6.54126 -51.9271 0)
(-7.03566 -46.6674 0)
(-7.43055 -41.0349 0)
(-7.7191 -35.1304 0)
(-7.8723 -29.0701 0)
(-7.86092 -23.0126 0)
(-7.6511 -17.1315 0)
(-7.1754 -11.5579 0)
(-7.0569 -6.10997 0)
(-7.45905 0.597236 0)
(-7.34792 8.35473 0)
(-7.0802 16.0466 0)
(-6.68991 23.4321 0)
(-6.31909 30.5532 0)
(-5.95152 37.3908 0)
(-5.56001 43.8836 0)
(-5.13377 49.9505 0)
(-4.66432 55.4931 0)
(-4.14937 60.4044 0)
(-3.59352 64.5719 0)
(-3.00461 67.8772 0)
(-2.38607 70.1619 0)
(-1.7173 71.0922 0)
(-0.982526 70.5589 0)
(-0.18718 68.9893 0)
(0.670471 66.4197 0)
(1.59336 62.9244 0)
(2.57808 58.6073 0)
(3.61301 53.5951 0)
(4.68212 48.033 0)
(5.76754 42.0807 0)
(6.84788 35.8985 0)
(7.89746 29.638 0)
(8.8898 23.446 0)
(9.77809 17.4452 0)
(10.5617 11.6785 0)
(11.6378 5.89511 0)
(12.5901 -0.245549 0)
(13.3782 -5.99471 0)
(14.1207 -11.2358 0)
(14.6448 -15.9766 0)
(14.9773 -20.2212 0)
(15.1138 -24.0053 0)
(15.0305 -27.3681 0)
(14.7134 -30.3446 0)
(14.1553 -32.9638 0)
(13.3558 -35.2447 0)
(12.3231 -37.196 0)
(11.0746 -38.8149 0)
(9.63367 -40.0861 0)
(8.02194 -40.9786 0)
(6.25684 -41.4155 0)
(4.40125 -41.4161 0)
(2.51384 -41.027 0)
(0.615217 -40.2326 0)
(-1.27452 -39.0228 0)
(-3.12926 -37.3958 0)
(-4.92854 -35.3597 0)
(-6.65438 -32.9301 0)
(-8.29164 -30.1308 0)
(-9.82872 -26.9907 0)
(-11.2568 -23.5421 0)
(-12.5717 -19.8167 0)
(-13.7684 -15.8299 0)
(-14.8794 -11.5613 0)
(-15.9953 -6.93669 0)
(-16.9394 -1.96262 0)
(-17.6967 3.13566 0)
(-18.3254 8.2812 0)
(-18.7387 13.3961 0)
(-18.9439 18.3846 0)
(-18.9395 23.161 0)
(-18.7164 27.6386 0)
(-18.2715 31.7303 0)
(-17.6037 35.3503 0)
(-16.713 38.4116 0)
(-15.6012 40.8219 0)
(-14.2506 42.4464 0)
(-12.5898 43.0279 0)
(-10.7494 42.838 0)
(-8.7902 41.9926 0)
(-6.73401 40.5539 0)
(-4.61355 38.5917 0)
(-2.46566 36.1844 0)
(-0.323896 33.4153 0)
(1.78087 30.3636 0)
(3.81976 27.099 0)
(5.76636 23.6853 0)
(7.61571 20.1757 0)
(9.36286 16.5938 0)
(11.0377 12.9334 0)
(12.7039 9.1685 0)
(14.2277 5.31712 0)
(15.5222 1.52713 0)
(16.6538 -2.19498 0)
(17.5536 -5.88649 0)
(18.2254 -9.55051 0)
(18.6708 -13.1986 0)
(18.889 -16.8357 0)
(18.8853 -20.4521 0)
(18.6695 -24.0229 0)
(18.2548 -27.5075 0)
(17.6568 -30.8513 0)
(16.8926 -33.9897 0)
(15.9792 -36.8532 0)
(14.9336 -39.3734 0)
(13.7732 -41.4784 0)
(12.5171 -43.0992 0)
(11.1852 -44.1551 0)
(9.77773 -44.4837 0)
(8.36913 -44.2849 0)
(6.98012 -43.5931 0)
(5.63123 -42.4229 0)
(4.34447 -40.7977 0)
(3.15554 -38.7695 0)
(2.07944 -36.3936 0)
(0.985746 -33.7127 0)
(0.144278 -30.66 0)
(-0.752379 -27.3573 0)
(-1.61137 -23.7909 0)
(-2.32323 -20.0996 0)
(-2.96823 -16.2993 0)
(-3.55589 -12.5268 0)
(-3.56659 -8.20665 0)
(-4.28472 -2.99177 0)
(12.7962 -45.771 0)
(11.0662 -51.3716 0)
(9.18463 -56.5028 0)
(7.19856 -60.973 0)
(5.16132 -64.6031 0)
(3.11649 -67.2372 0)
(1.12684 -68.7347 0)
(-0.710556 -68.8137 0)
(-2.37459 -67.8469 0)
(-3.89807 -65.9781 0)
(-5.27278 -63.2877 0)
(-6.49089 -59.8669 0)
(-7.54495 -55.7864 0)
(-8.44724 -51.1394 0)
(-9.2048 -46.0228 0)
(-9.81482 -40.5401 0)
(-10.2649 -34.8033 0)
(-10.5422 -28.9363 0)
(-10.6489 -23.0745 0)
(-10.5787 -17.3356 0)
(-10.369 -11.7609 0)
(-10.5625 -6.01187 0)
(-10.838 0.827695 0)
(-10.7922 8.24791 0)
(-10.6815 15.713 0)
(-10.3693 23.0209 0)
(-9.97607 30.1052 0)
(-9.53405 36.9043 0)
(-9.02875 43.3476 0)
(-8.45358 49.3535 0)
(-7.80318 54.8285 0)
(-7.0759 59.673 0)
(-6.27779 63.7818 0)
(-5.42058 67.0363 0)
(-4.50894 69.27 0)
(-3.51464 70.1162 0)
(-2.43389 69.5145 0)
(-1.28989 67.8729 0)
(-0.0825434 65.2324 0)
(1.18348 61.6711 0)
(2.49535 57.2995 0)
(3.83559 52.2534 0)
(5.18253 46.6815 0)
(6.51054 40.7429 0)
(7.79465 34.6007 0)
(9.01438 28.4126 0)
(10.1415 22.3115 0)
(11.1224 16.3915 0)
(12.0625 10.6464 0)
(13.3079 4.7576 0)
(14.176 -1.30163 0)
(15.0408 -6.8608 0)
(15.7681 -11.915 0)
(16.2796 -16.4537 0)
(16.6023 -20.4806 0)
(16.7242 -24.0289 0)
(16.6233 -27.1374 0)
(16.285 -29.8457 0)
(15.6997 -32.1906 0)
(14.8646 -34.2006 0)
(13.7864 -35.8938 0)
(12.4802 -37.2758 0)
(10.9658 -38.3367 0)
(9.2576 -39.0384 0)
(7.39173 -39.3241 0)
(5.44539 -39.2641 0)
(3.45382 -38.8398 0)
(1.43893 -38.0376 0)
(-0.576464 -36.8475 0)
(-2.56467 -35.2663 0)
(-4.50301 -33.2998 0)
(-6.37113 -30.9603 0)
(-8.1503 -28.2669 0)
(-9.82658 -25.246 0)
(-11.3898 -21.9247 0)
(-12.8313 -18.3252 0)
(-14.1478 -14.453 0)
(-15.3876 -10.2801 0)
(-16.601 -5.75905 0)
(-17.5278 -0.960355 0)
(-18.3317 3.91941 0)
(-18.9358 8.84049 0)
(-19.3042 13.716 0)
(-19.4437 18.4555 0)
(-19.3485 22.9764 0)
(-19.0133 27.1948 0)
(-18.4365 31.0261 0)
(-17.6184 34.3862 0)
(-16.5625 37.1904 0)
(-15.2693 39.3331 0)
(-13.6939 40.6299 0)
(-11.8312 40.9601 0)
(-9.82887 40.6182 0)
(-7.71508 39.6559 0)
(-5.52195 38.1389 0)
(-3.28744 36.1383 0)
(-1.04879 33.7315 0)
(1.16057 30.9977 0)
(3.31258 28.0133 0)
(5.38506 24.8432 0)
(7.36078 21.5379 0)
(9.23246 18.1331 0)
(11.0211 14.6422 0)
(12.77 11.0558 0)
(14.4393 7.38875 0)
(15.8586 3.74213 0)
(17.1306 0.200486 0)
(18.1846 -3.28752 0)
(19.0107 -6.72778 0)
(19.6088 -10.1333 0)
(19.9731 -13.5217 0)
(20.1022 -16.9013 0)
(19.9993 -20.2677 0)
(19.6724 -23.6009 0)
(19.1337 -26.8641 0)
(18.399 -30.0059 0)
(17.4871 -32.9632 0)
(16.4183 -35.6663 0)
(15.212 -38.0459 0)
(13.8887 -40.0338 0)
(12.4718 -41.5566 0)
(10.9793 -42.5274 0)
(9.42135 -42.8219 0)
(7.87469 -42.6379 0)
(6.35751 -41.9844 0)
(4.88322 -40.8825 0)
(3.46501 -39.3628 0)
(2.12819 -37.4418 0)
(0.841502 -35.1154 0)
(-0.371676 -32.4572 0)
(-1.52093 -29.4885 0)
(-2.5735 -26.2964 0)
(-3.51173 -22.8574 0)
(-4.34531 -19.2998 0)
(-4.99797 -15.6087 0)
(-5.74559 -11.9396 0)
(-5.68925 -8.22126 0)
(-6.92959 -2.00483 0)
(14.4578 -43.8284 0)
(12.5214 -49.2237 0)
(10.4189 -54.205 0)
(8.20175 -58.5818 0)
(5.92196 -62.1802 0)
(3.60394 -64.8175 0)
(1.30318 -66.402 0)
(-0.839568 -66.706 0)
(-2.7841 -65.8821 0)
(-4.59959 -64.1764 0)
(-6.27585 -61.6695 0)
(-7.78202 -58.426 0)
(-9.11814 -54.5282 0)
(-10.2833 -50.0647 0)
(-11.2722 -45.1338 0)
(-12.0805 -39.8454 0)
(-12.7039 -34.312 0)
(-13.1438 -28.6476 0)
(-13.4171 -22.9609 0)
(-13.5279 -17.3244 0)
(-13.5671 -11.712 0)
(-13.9427 -5.75005 0)
(-14.2001 1.07122 0)
(-14.2485 8.22933 0)
(-14.213 15.4767 0)
(-13.9538 22.6448 0)
(-13.5585 29.6206 0)
(-13.0589 36.3222 0)
(-12.4509 42.6676 0)
(-11.7352 48.5714 0)
(-10.9108 53.9435 0)
(-9.97645 58.6895 0)
(-8.93758 62.7095 0)
(-7.80697 65.8855 0)
(-6.5907 68.0337 0)
(-5.25502 68.7543 0)
(-3.81779 68.0773 0)
(-2.31944 66.3607 0)
(-0.764014 63.6544 0)
(0.837021 60.0444 0)
(2.46392 55.6452 0)
(4.09284 50.5939 0)
(5.69827 45.0458 0)
(7.25302 39.1631 0)
(8.72923 33.1041 0)
(10.1025 27.0193 0)
(11.3467 21.0341 0)
(12.4382 15.2119 0)
(13.5611 9.46686 0)
(14.8428 3.52133 0)
(15.7359 -2.36106 0)
(16.6309 -7.73129 0)
(17.3337 -12.5928 0)
(17.8283 -16.9217 0)
(18.1345 -20.7229 0)
(18.2324 -24.0285 0)
(18.1031 -26.8766 0)
(17.733 -29.3104 0)
(17.1106 -31.3727 0)
(16.231 -33.1009 0)
(15.0977 -34.5226 0)
(13.7212 -35.6545 0)
(12.1142 -36.4882 0)
(10.2982 -36.9629 0)
(8.35421 -37.1451 0)
(6.32616 -37.0093 0)
(4.24101 -36.5386 0)
(2.12446 -35.7185 0)
(0.00188875 -34.5396 0)
(-2.0984 -32.9982 0)
(-4.1516 -31.0967 0)
(-6.13533 -28.8455 0)
(-8.02934 -26.2606 0)
(-9.81741 -23.3629 0)
(-11.4873 -20.1734 0)
(-13.0273 -16.7063 0)
(-14.4451 -12.9583 0)
(-15.7931 -8.89758 0)
(-17.018 -4.52227 0)
(-17.9722 0.0431519 0)
(-18.7735 4.68617 0)
(-19.3352 9.35566 0)
(-19.648 13.9649 0)
(-19.713 18.432 0)
(-19.5224 22.6766 0)
(-19.0721 26.6156 0)
(-18.3608 30.1661 0)
(-17.3919 33.2478 0)
(-16.1714 35.7731 0)
(-14.6955 37.6213 0)
(-12.9033 38.5751 0)
(-10.8783 38.7144 0)
(-8.73125 38.2293 0)
(-6.48776 37.1694 0)
(-4.18563 35.5971 0)
(-1.86594 33.5841 0)
(0.435107 31.2046 0)
(2.68564 28.5313 0)
(4.86111 25.6322 0)
(6.94652 22.5651 0)
(8.93394 19.3683 0)
(10.8258 16.0606 0)
(12.6584 12.6543 0)
(14.4371 9.16827 0)
(15.9844 5.66147 0)
(17.3758 2.26628 0)
(18.57 -1.05064 0)
(19.542 -4.29803 0)
(20.291 -7.48351 0)
(20.8087 -10.628 0)
(21.0885 -13.751 0)
(21.1281 -16.8652 0)
(20.9288 -19.9712 0)
(20.4969 -23.0541 0)
(19.843 -26.0823 0)
(18.9825 -29.0081 0)
(17.9341 -31.7723 0)
(16.7192 -34.3065 0)
(15.361 -36.5409 0)
(13.8836 -38.4101 0)
(12.3127 -39.8418 0)
(10.6647 -40.7316 0)
(8.96835 -41.0171 0)
(7.28694 -40.8518 0)
(5.62972 -40.2383 0)
(4.00475 -39.1919 0)
(2.42075 -37.7186 0)
(0.893854 -35.8374 0)
(-0.568582 -33.5938 0)
(-1.94696 -31.0385 0)
(-3.22395 -28.1913 0)
(-4.39361 -25.1165 0)
(-5.42578 -21.8343 0)
(-6.38663 -18.3811 0)
(-7.05529 -14.8721 0)
(-7.99617 -11.1595 0)
(-8.43002 -7.81331 0)
(-9.46984 -1.06994 0)
(15.9832 -41.6797 0)
(13.8611 -46.8524 0)
(11.5572 -51.6701 0)
(9.11202 -55.9369 0)
(6.62043 -59.4645 0)
(3.92948 -62.0504 0)
(1.51074 -63.7101 0)
(-0.9871 -64.2961 0)
(-3.19116 -63.6187 0)
(-5.27851 -62.0615 0)
(-7.23879 -59.7272 0)
(-9.01899 -56.6776 0)
(-10.6133 -52.9812 0)
(-12.019 -48.7264 0)
(-13.2271 -44.01 0)
(-14.2348 -38.9388 0)
(-15.0444 -33.6198 0)
(-15.6664 -28.1532 0)
(-16.121 -22.6251 0)
(-16.4272 -17.0772 0)
(-16.7016 -11.438 0)
(-17.2141 -5.3758 0)
(-17.4925 1.33615 0)
(-17.6251 8.2784 0)
(-17.6335 15.3113 0)
(-17.4095 22.2924 0)
(-17.0135 29.1048 0)
(-16.4706 35.658 0)
(-15.7821 41.8633 0)
(-14.9483 47.6273 0)
(-13.9571 52.8534 0)
(-12.8102 57.4533 0)
(-11.519 61.3389 0)
(-10.1056 64.3976 0)
(-8.5843 66.43 0)
(-6.9111 66.9908 0)
(-5.12862 66.2423 0)
(-3.28659 64.4591 0)
(-1.39548 61.7013 0)
(0.528349 58.0606 0)
(2.45937 53.6581 0)
(4.3691 48.6349 0)
(6.22615 43.1456 0)
(7.99919 37.3531 0)
(9.66077 31.4161 0)
(11.1878 25.4745 0)
(12.5486 19.6275 0)
(13.7641 13.9028 0)
(15.0756 8.15928 0)
(16.3453 2.2403 0)
(17.2889 -3.41885 0)
(18.1845 -8.58434 0)
(18.8532 -13.2408 0)
(19.314 -17.3545 0)
(19.5788 -20.9291 0)
(19.6299 -23.9907 0)
(19.4513 -26.5768 0)
(19.0289 -28.7332 0)
(18.3507 -30.5077 0)
(17.4089 -31.9453 0)
(16.2009 -33.0875 0)
(14.7301 -33.943 0)
(13.0202 -34.5011 0)
(11.1425 -34.8223 0)
(9.13751 -34.8809 0)
(7.03609 -34.6573 0)
(4.86849 -34.1322 0)
(2.66491 -33.2891 0)
(0.453031 -32.1182 0)
(-1.73768 -30.6142 0)
(-3.88132 -28.7782 0)
(-5.95389 -26.6172 0)
(-7.93415 -24.1436 0)
(-9.80516 -21.3731 0)
(-11.5526 -18.3207 0)
(-13.1682 -14.9926 0)
(-14.6699 -11.3773 0)
(-16.0883 -7.45843 0)
(-17.2801 -3.27562 0)
(-18.2593 1.03331 0)
(-19.0308 5.42061 0)
(-19.5414 9.81802 0)
(-19.7886 14.1417 0)
(-19.7642 18.313 0)
(-19.4634 22.2549 0)
(-18.8865 25.8898 0)
(-18.0391 29.1422 0)
(-16.9275 31.9325 0)
(-15.5523 34.1639 0)
(-13.8939 35.7018 0)
(-11.9045 36.3218 0)
(-9.7525 36.3039 0)
(-7.48541 35.6991 0)
(-5.14056 34.5653 0)
(-2.76018 32.9644 0)
(-0.385586 30.9644 0)
(1.94852 28.6351 0)
(4.21503 26.042 0)
(6.39453 23.2411 0)
(8.47735 20.2775 0)
(10.4672 17.1809 0)
(12.3839 13.9669 0)
(14.2393 10.6594 0)
(15.9182 7.31032 0)
(17.4122 4.04425 0)
(18.7314 0.871141 0)
(19.8367 -2.21686 0)
(20.7258 -5.21728 0)
(21.3906 -8.14614 0)
(21.8212 -11.0262 0)
(22.0113 -13.8797 0)
(21.9578 -16.723 0)
(21.6611 -19.5615 0)
(21.1261 -22.3856 0)
(20.3626 -25.169 0)
(19.3851 -27.8694 0)
(18.2114 -30.4303 0)
(16.8637 -32.7862 0)
(15.3669 -34.8718 0)
(13.7468 -36.6189 0)
(12.0293 -37.9559 0)
(10.23 -38.7734 0)
(8.3893 -39.0487 0)
(6.55903 -38.8952 0)
(4.74244 -38.3083 0)
(2.95672 -37.291 0)
(1.21649 -35.8727 0)
(-0.461951 -34.0767 0)
(-2.05812 -31.934 0)
(-3.55817 -29.482 0)
(-4.94742 -26.7652 0)
(-6.2254 -23.8072 0)
(-7.3695 -20.6969 0)
(-8.43951 -17.3181 0)
(-9.22098 -14.0277 0)
(-10.3637 -10.1464 0)
(-10.9701 -6.928 0)
(-12.2087 -0.342238 0)
(17.3232 -39.3457 0)
(15.0313 -44.2641 0)
(12.5268 -48.8839 0)
(9.86085 -53.0103 0)
(7.16591 -56.4674 0)
(4.10942 -59.0855 0)
(1.83406 -60.8184 0)
(-0.94304 -61.5397 0)
(-3.65206 -61.0125 0)
(-5.92294 -59.6344 0)
(-8.1593 -57.4903 0)
(-10.196 -54.645 0)
(-12.0222 -51.1664 0)
(-13.6502 -47.1381 0)
(-15.068 -42.6529 0)
(-16.2741 -37.8113 0)
(-17.2755 -32.7129 0)
(-18.0875 -27.4452 0)
(-18.7309 -22.0719 0)
(-19.2333 -16.6112 0)
(-19.7181 -10.9718 0)
(-20.3396 -4.89874 0)
(-20.6529 1.65758 0)
(-20.8613 8.3825 0)
(-20.9013 15.1885 0)
(-20.7029 21.9545 0)
(-20.3112 28.5703 0)
(-19.7374 34.9387 0)
(-18.965 40.9532 0)
(-17.9863 46.5152 0)
(-16.8158 51.5429 0)
(-15.4622 55.9562 0)
(-13.9405 59.6744 0)
(-12.2724 62.5893 0)
(-10.4646 64.4783 0)
(-8.46746 64.8559 0)
(-6.35948 64.0332 0)
(-4.18946 62.1848 0)
(-1.97758 59.3855 0)
(0.254403 55.7324 0)
(2.47409 51.3496 0)
(4.6477 46.3817 0)
(6.73984 40.9862 0)
(8.71674 35.3232 0)
(10.5495 29.5418 0)
(12.2141 23.7684 0)
(13.6928 18.0791 0)
(15.0657 12.4515 0)
(16.5342 6.72387 0)
(17.7517 0.925796 0)
(18.7775 -4.48153 0)
(19.6598 -9.42479 0)
(20.3029 -13.8583 0)
(20.7354 -17.7424 0)
(20.9597 -21.0788 0)
(20.961 -23.8881 0)
(20.7259 -26.2059 0)
(20.2399 -28.0789 0)
(19.4872 -29.5588 0)
(18.4506 -30.7006 0)
(17.115 -31.5213 0)
(15.5257 -32.09 0)
(13.7404 -32.4603 0)
(11.7945 -32.6174 0)
(9.72006 -32.5466 0)
(7.54861 -32.2288 0)
(5.31162 -31.6437 0)
(3.0396 -30.7744 0)
(0.761771 -29.6103 0)
(-1.49365 -28.1443 0)
(-3.70063 -26.375 0)
(-5.83467 -24.3066 0)
(-7.87404 -21.9475 0)
(-9.80161 -19.3074 0)
(-11.6038 -16.394 0)
(-13.2786 -13.2055 0)
(-14.8467 -9.73159 0)
(-16.2773 -5.98431 0)
(-17.4348 -2.04165 0)
(-18.4009 2.00042 0)
(-19.1097 6.10667 0)
(-19.5427 10.2017 0)
(-19.6965 14.211 0)
(-19.569 18.0658 0)
(-19.1583 21.6933 0)
(-18.4667 25.02 0)
(-17.4981 27.9697 0)
(-16.2537 30.4562 0)
(-14.7292 32.373 0)
(-12.8734 33.5388 0)
(-10.7469 33.9401 0)
(-8.48714 33.7681 0)
(-6.12789 33.0632 0)
(-3.71197 31.8782 0)
(-1.28471 30.2734 0)
(1.11559 28.3117 0)
(3.45703 26.0527 0)
(5.71774 23.5521 0)
(7.88631 20.8553 0)
(9.96048 17.9942 0)
(11.9529 14.9921 0)
(13.8816 11.8805 0)
(15.6663 8.70153 0)
(17.2536 5.56404 0)
(18.684 2.52031 0)
(19.9104 -0.43495 0)
(20.9281 -3.28659 0)
(21.7297 -6.0388 0)
(22.3038 -8.70974 0)
(22.6416 -11.3232 0)
(22.7367 -13.9042 0)
(22.5854 -16.4731 0)
(22.1878 -19.0399 0)
(21.5484 -21.6005 0)
(20.676 -24.1338 0)
(19.5848 -26.6002 0)
(18.2937 -28.9492 0)
(16.8247 -31.1218 0)
(15.2015 -33.0517 0)
(13.4493 -34.671 0)
(11.5938 -35.9062 0)
(9.65002 -36.6482 0)
(7.66943 -36.9121 0)
(5.69401 -36.7652 0)
(3.73524 -36.2023 0)
(1.81047 -35.2364 0)
(-0.0602814 -33.8854 0)
(-1.86021 -32.1728 0)
(-3.57283 -30.1339 0)
(-5.18424 -27.7952 0)
(-6.68527 -25.2161 0)
(-8.06949 -22.3729 0)
(-9.33768 -19.4216 0)
(-10.5091 -16.1169 0)
(-11.5311 -13.0033 0)
(-12.7636 -8.9693 0)
(-13.5039 -5.89646 0)
(-14.881 0.485926 0)
(18.4356 -36.8409 0)
(16.0032 -41.4838 0)
(13.3518 -45.8854 0)
(10.5242 -49.854 0)
(7.64701 -53.2486 0)
(4.42917 -55.9681 0)
(1.83901 -57.7744 0)
(-1.05225 -58.4525 0)
(-4.03388 -58.0542 0)
(-6.54828 -56.9035 0)
(-9.01937 -54.9779 0)
(-11.2848 -52.351 0)
(-13.3301 -49.1047 0)
(-15.1679 -45.3151 0)
(-16.7869 -41.0709 0)
(-18.1874 -36.4664 0)
(-19.3793 -31.5917 0)
(-20.3803 -26.5225 0)
(-21.211 -21.305 0)
(-21.9043 -15.9385 0)
(-22.5675 -10.3339 0)
(-23.2789 -4.32754 0)
(-23.6323 2.0332 0)
(-23.9091 8.53178 0)
(-23.9759 15.1024 0)
(-23.798 21.6354 0)
(-23.4 28.0201 0)
(-22.7591 34.14 0)
(-21.8806 39.9024 0)
(-20.7749 45.2237 0)
(-19.4459 50.0231 0)
(-17.905 54.2261 0)
(-16.1733 57.7552 0)
(-14.2733 60.4925 0)
(-12.1933 62.1967 0)
(-9.88539 62.3642 0)
(-7.48014 61.4636 0)
(-5.00613 59.5561 0)
(-2.4949 56.7271 0)
(0.0232866 53.0796 0)
(2.5098 48.7421 0)
(4.92608 43.8616 0)
(7.23213 38.5928 0)
(9.39243 33.092 0)
(11.3809 27.4996 0)
(13.1746 21.9184 0)
(14.7741 16.3901 0)
(16.3167 10.8527 0)
(17.8962 5.19106 0)
(19.0774 -0.395646 0)
(20.1693 -5.55012 0)
(21.0352 -10.2556 0)
(21.6568 -14.4492 0)
(22.06 -18.0917 0)
(22.2409 -21.1797 0)
(22.1887 -23.7279 0)
(21.8912 -25.768 0)
(21.3305 -27.346 0)
(20.4781 -28.5133 0)
(19.2899 -29.2838 0)
(17.8418 -29.8136 0)
(16.1695 -30.1583 0)
(14.3024 -30.3277 0)
(12.2726 -30.321 0)
(10.1159 -30.1254 0)
(7.86846 -29.7198 0)
(5.56415 -29.0817 0)
(3.23439 -28.1926 0)
(0.907842 -27.0406 0)
(-1.38852 -25.6163 0)
(-3.62984 -23.9166 0)
(-5.79424 -21.9432 0)
(-7.86305 -19.6997 0)
(-9.81892 -17.1895 0)
(-11.6502 -14.4143 0)
(-13.3609 -11.3711 0)
(-14.9512 -8.06587 0)
(-16.309 -4.53411 0)
(-17.4435 -0.870773 0)
(-18.3453 2.89064 0)
(-18.9747 6.69674 0)
(-19.3251 10.4786 0)
(-19.3906 14.1713 0)
(-19.1675 17.7077 0)
(-18.6558 21.0172 0)
(-17.8577 24.0277 0)
(-16.774 26.6612 0)
(-15.4011 28.8259 0)
(-13.7181 30.405 0)
(-11.6807 31.203 0)
(-9.45822 31.4291 0)
(-7.11483 31.1302 0)
(-4.69352 30.3515 0)
(-2.23973 29.1429 0)
(0.203217 27.5589 0)
(2.60047 25.6549 0)
(4.9265 23.4812 0)
(7.16575 21.0796 0)
(9.31284 18.4829 0)
(11.3756 15.7185 0)
(13.3702 12.8209 0)
(15.2393 9.8312 0)
(16.9153 6.83928 0)
(18.445 3.92359 0)
(19.7813 1.08674 0)
(20.9174 -1.64325 0)
(21.8457 -4.25549 0)
(22.554 -6.75745 0)
(23.0321 -9.16735 0)
(23.2714 -11.511 0)
(23.2655 -13.8167 0)
(23.0106 -16.1086 0)
(22.5064 -18.4012 0)
(21.757 -20.6937 0)
(20.773 -22.9705 0)
(19.5702 -25.2017 0)
(18.1679 -27.3394 0)
(16.5865 -29.3241 0)
(14.8482 -31.0921 0)
(12.9768 -32.578 0)
(10.9957 -33.7045 0)
(8.92379 -34.3707 0)
(6.82289 -34.6246 0)
(4.72513 -34.486 0)
(2.64616 -33.9557 0)
(0.605378 -33.042 0)
(-1.37735 -31.7631 0)
(-3.28473 -30.1414 0)
(-5.10318 -28.2122 0)
(-6.81633 -25.9895 0)
(-8.42805 -23.545 0)
(-9.9153 -20.8115 0)
(-11.3133 -17.9974 0)
(-12.6151 -14.7646 0)
(-13.8208 -11.7033 0)
(-15.1877 -7.72028 0)
(-16.0105 -4.75881 0)
(-17.4641 1.38375 0)
(19.3543 -34.2063 0)
(16.8125 -38.5704 0)
(14.0287 -42.7478 0)
(11.0829 -46.5547 0)
(8.0621 -49.8448 0)
(4.76419 -52.5373 0)
(1.73633 -54.3793 0)
(-1.4708 -55.164 0)
(-4.40533 -54.9191 0)
(-7.17231 -53.9445 0)
(-9.82061 -52.2228 0)
(-12.2793 -49.8192 0)
(-14.5271 -46.8102 0)
(-16.5608 -43.2669 0)
(-18.3713 -39.2711 0)
(-19.9589 -34.9083 0)
(-21.3345 -30.2594 0)
(-22.517 -25.3894 0)
(-23.5262 -20.3329 0)
(-24.396 -15.0794 0)
(-25.2139 -9.55325 0)
(-25.9734 -3.67406 0)
(-26.4074 2.46305 0)
(-26.7285 8.7245 0)
(-26.8117 15.0444 0)
(-26.6326 21.3114 0)
(-26.1833 27.4042 0)
(-25.4741 33.2394 0)
(-24.5047 38.7274 0)
(-23.2783 43.7813 0)
(-21.8028 48.3223 0)
(-20.0931 52.2843 0)
(-18.1739 55.5989 0)
(-16.0656 58.1334 0)
(-13.722 59.5602 0)
(-11.1406 59.5763 0)
(-8.46526 58.5737 0)
(-5.71709 56.6051 0)
(-2.93464 53.7555 0)
(-0.158313 50.1318 0)
(2.56727 45.8632 0)
(5.19842 41.0974 0)
(7.69312 35.9881 0)
(10.0156 30.6816 0)
(12.1404 25.3013 0)
(14.0485 19.925 0)
(15.7815 14.5578 0)
(17.505 9.11101 0)
(19.0901 3.5763 0)
(20.3439 -1.72561 0)
(21.4589 -6.62313 0)
(22.3105 -11.075 0)
(22.9159 -15.0114 0)
(23.2896 -18.3972 0)
(23.4252 -21.2229 0)
(23.3143 -23.497 0)
(22.9435 -25.2462 0)
(22.2807 -26.5035 0)
(21.2569 -27.2719 0)
(19.9644 -27.7495 0)
(18.4298 -28.0221 0)
(16.6701 -28.1293 0)
(14.7118 -28.0959 0)
(12.5901 -27.928 0)
(10.3467 -27.6141 0)
(8.02297 -27.1316 0)
(5.65587 -26.4544 0)
(3.27803 -25.5595 0)
(0.917268 -24.4322 0)
(-1.40219 -23.061 0)
(-3.65783 -21.4387 0)
(-5.83006 -19.5638 0)
(-7.90309 -17.4372 0)
(-9.86226 -15.0571 0)
(-11.6996 -12.4227 0)
(-13.417 -9.54098 0)
(-14.9556 -6.43249 0)
(-16.2488 -3.15704 0)
(-17.3297 0.231978 0)
(-18.1488 3.705 0)
(-18.6923 7.20226 0)
(-18.9525 10.6644 0)
(-18.923 14.0319 0)
(-18.6022 17.2415 0)
(-17.9908 20.2254 0)
(-17.0885 22.9111 0)
(-15.8915 25.2154 0)
(-14.3836 27.0345 0)
(-12.5141 28.2089 0)
(-10.3678 28.767 0)
(-8.07145 28.8309 0)
(-5.6737 28.4305 0)
(-3.22303 27.6038 0)
(-0.764518 26.3952 0)
(1.66429 24.8531 0)
(4.03458 23.0221 0)
(6.32716 20.9393 0)
(8.53355 18.6339 0)
(10.6578 16.1332 0)
(12.7122 13.4748 0)
(14.6488 10.6947 0)
(16.4068 7.87208 0)
(18.0267 5.09458 0)
(19.4645 2.37456 0)
(20.7111 -0.248306 0)
(21.7578 -2.74809 0)
(22.5916 -5.11855 0)
(23.2015 -7.36718 0)
(23.5779 -9.51349 0)
(23.7122 -11.5852 0)
(23.598 -13.613 0)
(23.2315 -15.6241 0)
(22.6125 -17.636 0)
(21.7476 -19.6588 0)
(20.6501 -21.6845 0)
(19.3373 -23.6836 0)
(17.828 -25.6095 0)
(16.142 -27.4053 0)
(14.3004 -29.0094 0)
(12.325 -30.3558 0)
(10.2354 -31.3686 0)
(8.06142 -31.9701 0)
(5.86546 -32.2125 0)
(3.66916 -32.0851 0)
(1.49211 -31.5881 0)
(-0.644942 -30.7297 0)
(-2.72286 -29.5272 0)
(-4.72364 -27.9987 0)
(-6.63655 -26.1777 0)
(-8.44399 -24.0701 0)
(-10.1672 -21.7501 0)
(-11.7503 -19.1175 0)
(-13.3038 -16.42 0)
(-14.7337 -13.2528 0)
(-16.0801 -10.2483 0)
(-17.5305 -6.3695 0)
(-18.417 -3.53725 0)
(-19.9142 2.32836 0)
(20.0406 -31.4537 0)
(17.3961 -35.53 0)
(14.5208 -39.4745 0)
(11.4557 -43.1114 0)
(8.25722 -46.2777 0)
(4.95679 -48.8649 0)
(1.59292 -50.7047 0)
(-1.71344 -51.6572 0)
(-4.83359 -51.6517 0)
(-7.77229 -50.8067 0)
(-10.5743 -49.2679 0)
(-13.2009 -47.0806 0)
(-15.6229 -44.3061 0)
(-17.8302 -41.0099 0)
(-19.8148 -37.2652 0)
(-21.5762 -33.1477 0)
(-23.1238 -28.7277 0)
(-24.4741 -24.0602 0)
(-25.6459 -19.1735 0)
(-26.6735 -14.0556 0)
(-27.6219 -8.65339 0)
(-28.418 -2.94989 0)
(-28.9206 2.94347 0)
(-29.2681 8.94613 0)
(-29.3468 14.9839 0)
(-29.1303 20.9367 0)
(-28.6362 26.7227 0)
(-27.86 32.2538 0)
(-26.7996 37.4389 0)
(-25.4594 42.1948 0)
(-23.85 46.4528 0)
(-21.99 50.1561 0)
(-19.9057 53.2319 0)
(-17.6088 55.5256 0)
(-15.0218 56.6425 0)
(-12.2041 56.5038 0)
(-9.29046 55.3927 0)
(-6.30203 53.3647 0)
(-3.28196 50.5048 0)
(-0.280647 46.9216 0)
(2.65116 42.7461 0)
(5.46591 38.1234 0)
(8.11989 33.2012 0)
(10.5791 28.1143 0)
(12.8191 22.9637 0)
(14.8358 17.7964 0)
(16.729 12.58 0)
(18.606 7.24616 0)
(20.1502 1.91589 0)
(21.5029 -3.08379 0)
(22.6288 -7.70936 0)
(23.4788 -11.8878 0)
(24.0752 -15.5501 0)
(24.4207 -18.6617 0)
(24.5094 -21.2079 0)
(24.3328 -23.1892 0)
(23.8635 -24.6116 0)
(23.0211 -25.4618 0)
(21.8831 -25.9176 0)
(20.4976 -26.1179 0)
(18.8701 -26.1267 0)
(17.0173 -25.9949 0)
(14.9655 -25.7582 0)
(12.7521 -25.4326 0)
(10.4227 -25.0106 0)
(8.02502 -24.4666 0)
(5.60102 -23.7681 0)
(3.18493 -22.8858 0)
(0.802601 -21.7991 0)
(-1.52376 -20.4929 0)
(-3.77656 -18.9579 0)
(-5.93999 -17.1877 0)
(-8.00026 -15.1784 0)
(-9.94863 -12.9297 0)
(-11.7787 -10.4485 0)
(-13.4505 -7.74864 0)
(-14.8916 -4.86843 0)
(-16.1285 -1.86535 0)
(-17.1177 1.24572 0)
(-17.8406 4.41763 0)
(-18.2863 7.59871 0)
(-18.4458 10.7376 0)
(-18.3162 13.7793 0)
(-17.8975 16.6634 0)
(-17.1886 19.3208 0)
(-16.1832 21.6728 0)
(-14.8662 23.6305 0)
(-13.1943 25.0598 0)
(-11.1786 25.8806 0)
(-8.96679 26.2407 0)
(-6.62058 26.1717 0)
(-4.1998 25.7009 0)
(-1.7569 24.8548 0)
(0.672267 23.6698 0)
(3.05968 22.1853 0)
(5.38326 20.4329 0)
(7.63049 18.4361 0)
(9.80239 16.2211 0)
(11.9085 13.8275 0)
(13.8973 11.2761 0)
(15.7341 8.65016 0)
(17.4393 6.029 0)
(18.9747 3.43519 0)
(20.3293 0.918074 0)
(21.491 -1.48355 0)
(22.4449 -3.74917 0)
(23.1786 -5.87273 0)
(23.6822 -7.86264 0)
(23.947 -9.73953 0)
(23.9653 -11.5326 0)
(23.7312 -13.2774 0)
(23.2421 -15.0055 0)
(22.5001 -16.7406 0)
(21.5143 -18.4967 0)
(20.3007 -20.2711 0)
(18.8792 -22.0401 0)
(17.2697 -23.7603 0)
(15.4904 -25.3742 0)
(13.5596 -26.8187 0)
(11.4962 -28.029 0)
(9.31869 -28.9253 0)
(7.07423 -29.4809 0)
(4.80722 -29.7056 0)
(2.53663 -29.587 0)
(0.284372 -29.1227 0)
(-1.92841 -28.3201 0)
(-4.08366 -27.194 0)
(-6.16434 -25.7586 0)
(-8.16271 -24.0419 0)
(-10.0615 -22.0436 0)
(-11.8912 -19.8254 0)
(-13.5817 -17.298 0)
(-15.2905 -14.6756 0)
(-16.8045 -11.6058 0)
(-18.2489 -8.68978 0)
(-19.7368 -4.96177 0)
(-20.669 -2.2711 0)
(-22.1866 3.2985 0)
(20.4675 -28.6021 0)
(17.7474 -32.3858 0)
(14.7869 -36.0909 0)
(11.6322 -39.5407 0)
(8.33123 -42.5758 0)
(4.92518 -45.0654 0)
(1.46671 -46.8939 0)
(-1.95958 -47.9638 0)