/*--------------------------------*- C++ -*----------------------------------*\
| =========                 |                                                 |
| \\      /  F ield         | OpenFOAM: The Open Source CFD Toolbox           |
|  \\    /   O peration     | Version:  2206                                  |
|   \\  /    A nd           | Website:  www.openfoam.com                      |
|    \\/     M anipulation  |                                                 |
\*---------------------------------------------------------------------------*/
FoamFile
{
    version     2.0;
    format      ascii;
    arch        "LSB;label=32;scalar=64";
    class       surfaceScalarField;
    location    "20.0001";
    object      phi_0;
}
// * * * * * * * * * * * * * * * * * * * * * * * * * * * * * * * * * * * * * //

dimensions      [0 3 -1 0 0 0 0];

oriented        oriented;

internalField   nonuniform List<scalar> 
5953
(
9.4024e-06
-1.96659e-07
1.66867e-07
9.42083e-06
-3.79648e-07
3.61218e-07
9.42664e-06
-5.45665e-07
5.3986e-07
9.41981e-06
-6.91941e-07
6.98769e-07
9.40124e-06
-8.1632e-07
8.34891e-07
9.37123e-06
-9.16123e-07
9.46127e-07
9.33018e-06
-9.90777e-07
1.03183e-06
9.27809e-06
-1.03983e-06
1.09192e-06
9.21533e-06
-1.06336e-06
1.12612e-06
9.144e-06
-1.06338e-06
1.13471e-06
9.06699e-06
-1.04295e-06
1.11995e-06
8.98727e-06
-1.00482e-06
1.08454e-06
8.90778e-06
-9.51233e-07
1.03072e-06
8.83116e-06
-8.83762e-07
9.60383e-07
8.75953e-06
-8.03355e-07
8.74984e-07
8.69452e-06
-7.10588e-07
7.75595e-07
8.63737e-06
-6.0597e-07
6.6312e-07
8.58902e-06
-4.90213e-07
5.38561e-07
8.55022e-06
-3.64427e-07
4.03228e-07
8.52155e-06
-2.30272e-07
2.58946e-07
8.50339e-06
-9.01675e-08
1.08322e-07
8.49583e-06
5.22454e-08
-4.4685e-08
8.49849e-06
1.93054e-07
-1.95716e-07
8.51076e-06
3.28935e-07
-3.412e-07
8.53174e-06
4.56642e-07
-4.77626e-07
8.56032e-06
5.73198e-07
-6.01779e-07
8.5952e-06
6.76093e-07
-7.1097e-07
8.63501e-06
7.63414e-07
-8.03224e-07
8.67848e-06
8.33878e-07
-8.77353e-07
8.72465e-06
8.86701e-07
-9.32866e-07
8.77303e-06
9.21226e-07
-9.69609e-07
8.82355e-06
9.36268e-07
-9.86788e-07
8.87565e-06
9.30374e-07
-9.82469e-07
8.92839e-06
9.03196e-07
-9.5594e-07
8.98088e-06
8.54869e-07
-9.07355e-07
9.03228e-06
7.86123e-07
-8.37525e-07
9.0819e-06
6.98241e-07
-7.4786e-07
9.12911e-06
5.92941e-07
-6.40157e-07
9.17331e-06
4.72408e-07
-5.16598e-07
9.21371e-06
3.39461e-07
-3.79865e-07
9.24922e-06
1.97894e-07
-2.33408e-07
9.27818e-06
5.31714e-08
-8.21302e-08
9.29955e-06
-8.93273e-08
6.7955e-08
9.31272e-06
-2.25593e-07
2.12428e-07
9.31745e-06
-3.52254e-07
3.47522e-07
9.31327e-06
-4.661e-07
4.70281e-07
9.29998e-06
-5.64456e-07
5.77751e-07
9.27811e-06
-6.46037e-07
6.67902e-07
9.24823e-06
-7.10342e-07
7.4022e-07
9.21076e-06
-7.5683e-07
7.94301e-07
9.16607e-06
-7.85187e-07
8.29875e-07
9.11519e-06
-7.9593e-07
8.4681e-07
9.06006e-06
-7.90471e-07
8.45605e-07
9.00267e-06
-7.70275e-07
8.27663e-07
8.94506e-06
-7.36607e-07
7.94217e-07
8.88915e-06
-6.90543e-07
7.46455e-07
8.83655e-06
-6.32977e-07
6.85577e-07
8.78854e-06
-5.64692e-07
6.12706e-07
8.7461e-06
-4.86478e-07
5.28918e-07
8.70999e-06
-3.99261e-07
4.35369e-07
8.68079e-06
-3.04194e-07
3.33389e-07
8.65896e-06
-2.02754e-07
2.24591e-07
8.64478e-06
-9.68866e-08
1.11063e-07
8.63835e-06
1.06199e-08
-4.18947e-09
8.63942e-06
1.16911e-07
-1.17977e-07
8.64756e-06
2.19584e-07
-2.27724e-07
8.66217e-06
3.1632e-07
-3.30938e-07
8.68252e-06
4.05002e-07
-4.25345e-07
8.70771e-06
4.83819e-07
-5.09008e-07
8.73679e-06
5.51354e-07
-5.80435e-07
8.76883e-06
6.06612e-07
-6.38656e-07
8.80307e-06
6.4897e-07
-6.83205e-07
8.83905e-06
6.77965e-07
-7.13946e-07
8.8767e-06
6.92872e-07
-7.30524e-07
8.91575e-06
6.92665e-07
-7.31719e-07
8.95551e-06
6.76964e-07
-7.16719e-07
8.99524e-06
6.45797e-07
-6.85528e-07
9.03424e-06
5.99593e-07
-6.386e-07
9.07189e-06
5.39229e-07
-5.76878e-07
9.10762e-06
4.6593e-07
-5.01652e-07
9.14087e-06
3.81252e-07
-4.14508e-07
9.17109e-06
2.8714e-07
-3.17353e-07
9.19752e-06
1.86072e-07
-2.12507e-07
9.21909e-06
8.14449e-08
-1.03016e-07
9.23495e-06
-2.28651e-08
7.0073e-09
9.24462e-06
-1.23932e-07
1.14265e-07
9.24772e-06
-2.19232e-07
2.16134e-07
9.24406e-06
-3.06562e-07
3.10223e-07
9.23381e-06
-3.84088e-07
3.94333e-07
9.21745e-06
-4.50472e-07
4.66834e-07
9.1955e-06
-5.04889e-07
5.26832e-07
9.16845e-06
-5.46835e-07
5.73884e-07
9.1367e-06
-5.7596e-07
6.07717e-07
9.10074e-06
-5.92162e-07
6.28124e-07
9.06154e-06
-5.95784e-07
6.34983e-07
9.02046e-06
-5.87541e-07
6.2862e-07
8.97883e-06
-5.68064e-07
6.09694e-07
8.938e-06
-5.37973e-07
5.78804e-07
8.89919e-06
-4.97941e-07
5.36748e-07
8.86342e-06
-4.48692e-07
4.84467e-07
8.83148e-06
-3.91013e-07
4.22945e-07
8.80403e-06
-3.25798e-07
3.53251e-07
8.78155e-06
-2.541e-07
2.76585e-07
8.7644e-06
-1.77177e-07
1.9432e-07
8.75287e-06
-9.65854e-08
1.08122e-07
8.74705e-06
-1.4421e-08
2.02411e-08
8.74679e-06
6.70411e-08
-6.67821e-08
8.75181e-06
1.46008e-07
-1.51031e-07
8.76171e-06
2.20766e-07
-2.30667e-07
8.77597e-06
2.8975e-07
-3.04011e-07
8.79398e-06
3.51621e-07
-3.69626e-07
8.81506e-06
4.05305e-07
-4.26388e-07
8.83856e-06
4.50049e-07
-4.73552e-07
8.86391e-06
4.85364e-07
-5.10712e-07
8.89072e-06
5.10939e-07
-5.37744e-07
8.91885e-06
5.26359e-07
-5.54496e-07
8.94825e-06
5.31098e-07
-5.60496e-07
8.97846e-06
5.24265e-07
-5.54479e-07
9.00902e-06
5.0792e-07
-5.38473e-07
9.03929e-06
4.74591e-07
-5.04865e-07
9.06928e-06
4.4668e-07
-4.76671e-07
3.59341e-07
-3.86953e-07
9.42084e-06
-2.26364e-07
9.43676e-06
-3.95568e-07
9.4389e-06
-5.47812e-07
9.42709e-06
-6.80123e-07
9.40085e-06
-7.9009e-07
9.36077e-06
-8.76038e-07
9.30722e-06
-9.37227e-07
9.24069e-06
-9.73299e-07
9.16325e-06
-9.85925e-07
9.07808e-06
-9.78211e-07
8.98845e-06
-9.53317e-07
8.89763e-06
-9.13988e-07
8.80862e-06
-8.62226e-07
8.72399e-06
-7.99134e-07
8.64573e-06
-7.25097e-07
8.57531e-06
-6.40163e-07
8.51379e-06
-5.44454e-07
8.46202e-06
-4.38445e-07
8.42069e-06
-3.23089e-07
8.39031e-06
-1.99901e-07
8.37127e-06
-7.11193e-08
8.36356e-06
5.99482e-08
8.36682e-06
1.89802e-07
8.38039e-06
3.15365e-07
8.40338e-06
4.33644e-07
8.4347e-06
5.41884e-07
8.47307e-06
6.37721e-07
8.5172e-06
7.19279e-07
8.56593e-06
7.85157e-07
8.61834e-06
8.34284e-07
8.67397e-06
8.65602e-07
8.73241e-06
8.77825e-07
8.79279e-06
8.69996e-07
8.85408e-06
8.41899e-07
8.91531e-06
7.9364e-07
8.97553e-06
7.25908e-07
9.03386e-06
6.39913e-07
9.08945e-06
5.37345e-07
9.1414e-06
4.20455e-07
9.18858e-06
2.9229e-07
9.22928e-06
1.57192e-07
9.26163e-06
2.08147e-08
9.28458e-06
-1.12275e-07
9.2973e-06
-2.38313e-07
9.29913e-06
-3.54085e-07
9.28991e-06
-4.56879e-07
9.27016e-06
-5.44708e-07
9.24052e-06
-6.16398e-07
9.20141e-06
-6.7123e-07
9.15334e-06
-7.08755e-07
9.09752e-06
-7.29372e-07
9.03602e-06
-7.3443e-07
8.97108e-06
-7.25524e-07
8.90491e-06
-7.04106e-07
8.83966e-06
-6.71363e-07
8.77725e-06
-6.28135e-07
8.71924e-06
-5.74965e-07
8.66682e-06
-5.1227e-07
8.62089e-06
-4.40551e-07
8.58215e-06
-3.60517e-07
8.55111e-06
-2.73161e-07
8.52819e-06
-1.79829e-07
8.51362e-06
-8.23203e-08
8.50742e-06
1.68242e-08
8.50929e-06
1.15039e-07
8.51878e-06
2.1009e-07
8.53528e-06
2.99823e-07
8.55802e-06
3.82265e-07
8.58612e-06
4.55715e-07
8.61868e-06
5.18799e-07
8.65482e-06
5.70469e-07
8.69387e-06
6.09924e-07
8.73541e-06
6.36426e-07
8.77915e-06
6.49129e-07
8.82451e-06
6.47303e-07
8.87073e-06
6.30745e-07
8.91704e-06
5.99487e-07
8.96267e-06
5.5396e-07
9.00689e-06
4.95009e-07
9.04898e-06
4.23841e-07
9.08819e-06
3.42048e-07
9.12362e-06
2.51705e-07
9.15411e-06
1.55586e-07
9.17824e-06
5.73161e-08
9.19519e-06
-3.98183e-08
9.20446e-06
-1.33199e-07
9.20575e-06
-2.20529e-07
9.19907e-06
-2.99874e-07
9.18468e-06
-3.69698e-07
9.16308e-06
-4.28876e-07
9.13482e-06
-4.76633e-07
9.10043e-06
-5.12442e-07
9.06061e-06
-5.36135e-07
9.01651e-06
-5.4807e-07
8.96967e-06
-5.4894e-07
8.92157e-06
-5.39438e-07
8.87368e-06
-5.2018e-07
8.82742e-06
-4.91711e-07
8.784e-06
-4.54523e-07
8.74443e-06
-4.09115e-07
8.70947e-06
-3.5606e-07
8.67974e-06
-2.9607e-07
8.65569e-06
-2.30051e-07
8.63766e-06
-1.59144e-07
8.62586e-06
-8.47857e-08
8.62033e-06
-8.89068e-09
8.62087e-06
6.65026e-08
8.62716e-06
1.39721e-07
8.63876e-06
2.09165e-07
8.65513e-06
2.73376e-07
8.67566e-06
3.3109e-07
8.69969e-06
3.81277e-07
8.72658e-06
4.23156e-07
8.75582e-06
4.56131e-07
8.78704e-06
4.79713e-07
8.82007e-06
4.9333e-07
8.85459e-06
4.96577e-07
8.89003e-06
4.88832e-07
8.92589e-06
4.72054e-07
8.96151e-06
4.38978e-07
8.99696e-06
4.11222e-07
3.26768e-07
9.42777e-06
-2.54749e-07
9.44034e-06
-4.08142e-07
9.43733e-06
-5.44797e-07
9.4179e-06
-6.6069e-07
9.38158e-06
-7.53773e-07
9.3292e-06
-8.23663e-07
9.26139e-06
-8.69417e-07
9.18022e-06
-8.92124e-07
9.08906e-06
-8.94767e-07
8.99156e-06
-8.80716e-07
8.89134e-06
-8.53091e-07
8.79173e-06
-8.14378e-07
8.69567e-06
-7.66172e-07
8.60551e-06
-7.08974e-07
8.52297e-06
-6.42551e-07
8.44924e-06
-5.66432e-07
8.38521e-06
-4.8043e-07
8.33163e-06
-3.84866e-07
8.2891e-06
-2.80556e-07
8.2581e-06
-1.68897e-07
8.23894e-06
-5.19606e-08
8.23162e-06
6.72624e-08
8.23578e-06
1.85645e-07
8.2508e-06
3.0035e-07
8.27582e-06
4.08619e-07
8.3098e-06
5.07901e-07
8.35156e-06
5.95965e-07
8.39988e-06
6.70955e-07
8.4537e-06
7.31345e-07
8.51218e-06
7.75801e-07
8.57475e-06
8.03034e-07
8.64064e-06
8.11935e-07
8.70875e-06
8.01881e-07
8.77805e-06
7.72604e-07
8.84744e-06
7.24245e-07
8.91587e-06
6.57478e-07
8.9823e-06
5.73486e-07
9.04564e-06
4.74003e-07
9.10462e-06
3.61479e-07
9.15744e-06
2.39468e-07
9.20168e-06
1.1295e-07
9.23557e-06
-1.30696e-08
9.25795e-06
-1.3466e-07
9.26805e-06
-2.48415e-07
9.2655e-06
-3.51534e-07
9.25043e-06
-4.41811e-07
9.22337e-06
-5.17646e-07
9.18488e-06
-5.77902e-07
9.13556e-06
-6.21913e-07
9.07677e-06
-6.49963e-07
9.01071e-06
-6.63312e-07
8.93984e-06
-6.63563e-07
8.86661e-06
-6.52296e-07
8.79336e-06
-6.30851e-07
8.72222e-06
-6.00224e-07
8.65503e-06
-5.60947e-07
8.59323e-06
-5.13159e-07
8.53786e-06
-4.56902e-07
8.48973e-06
-3.92428e-07
8.44947e-06
-3.20248e-07
8.41752e-06
-2.41211e-07
8.39423e-06
-1.56542e-07
8.37981e-06
-6.79004e-08
8.37421e-06
2.24259e-08
8.37712e-06
1.12122e-07
8.3881e-06
1.99117e-07
8.40651e-06
2.81411e-07
8.43161e-06
3.57165e-07
8.46256e-06
4.24764e-07
8.49851e-06
4.82851e-07
8.53867e-06
5.30304e-07
8.58244e-06
5.66156e-07
8.62936e-06
5.89509e-07
8.67889e-06
5.99592e-07
8.73027e-06
5.9593e-07
8.78267e-06
5.78337e-07
8.83529e-06
5.46869e-07
8.88727e-06
5.01985e-07
8.93774e-06
4.4454e-07
8.98579e-06
3.75791e-07
9.03037e-06
2.97466e-07
9.07016e-06
2.11918e-07
9.10344e-06
1.22301e-07
9.12886e-06
3.18933e-08
9.14567e-06
-5.66235e-08
9.15339e-06
-1.40917e-07
9.15185e-06
-2.18993e-07
9.14119e-06
-2.89214e-07
9.12179e-06
-3.50296e-07
9.09417e-06
-4.01251e-07
9.0589e-06
-4.41368e-07
9.01685e-06
-4.70388e-07
8.96937e-06
-4.88663e-07
8.91812e-06
-4.96813e-07
8.86472e-06
-4.95538e-07
8.81077e-06
-4.85496e-07
8.75783e-06
-4.67241e-07
8.7073e-06
-4.41181e-07
8.66038e-06
-4.07599e-07
8.61802e-06
-3.66759e-07
8.58097e-06
-3.19007e-07
8.54977e-06
-2.64869e-07
8.52483e-06
-2.05109e-07
8.50643e-06
-1.40749e-07
8.49475e-06
-7.31064e-08
8.48977e-06
-3.90329e-09
8.49124e-06
6.50272e-08
8.49884e-06
1.32124e-07
8.51211e-06
1.95895e-07
8.53051e-06
2.54971e-07
8.55345e-06
3.08152e-07
8.5803e-06
3.54426e-07
8.61049e-06
3.92967e-07
8.64355e-06
4.23072e-07
8.67913e-06
4.4413e-07
8.71689e-06
4.55575e-07
8.75631e-06
4.57159e-07
8.79676e-06
4.48378e-07
8.83776e-06
4.31054e-07
8.87853e-06
3.98211e-07
8.91921e-06
3.70538e-07
2.89749e-07
9.42443e-06
-2.80298e-07
9.43153e-06
-4.15246e-07
9.41959e-06
-5.32851e-07
9.38897e-06
-6.30078e-07
9.3403e-06
-7.05101e-07
9.27371e-06
-7.57069e-07
9.1912e-06
-7.86903e-07
9.09634e-06
-7.97266e-07
8.99316e-06
-7.91591e-07
8.8857e-06
-7.73255e-07
8.77776e-06
-7.4515e-07
8.67265e-06
-7.09265e-07
8.57281e-06
-6.6634e-07
8.47998e-06
-6.16138e-07
8.39547e-06
-5.58045e-07
8.32039e-06
-4.91346e-07
8.25555e-06
-4.15597e-07
8.20159e-06
-3.30904e-07
8.15904e-06
-2.38008e-07
8.12837e-06
-1.38221e-07
8.10986e-06
-3.34552e-08
8.1035e-06
7.36295e-08
8.10892e-06
1.80225e-07
8.12555e-06
2.83714e-07
8.15262e-06
3.81549e-07
8.18917e-06
4.71355e-07
8.23413e-06
5.51001e-07
8.28646e-06
6.18627e-07
8.34521e-06
6.72593e-07
8.40959e-06
7.11428e-07
8.47871e-06
7.33907e-07
8.55151e-06
7.39138e-07
8.62684e-06
7.26553e-07
8.70357e-06
6.95868e-07
8.78055e-06
6.47263e-07
8.8566e-06
5.81434e-07
8.93046e-06
4.99624e-07
9.00069e-06
4.03772e-07
9.06535e-06
2.96818e-07
9.12172e-06
1.83104e-07
9.16726e-06
6.74107e-08
9.2004e-06
-4.62123e-08
9.22005e-06
-1.5431e-07
9.22563e-06
-2.53997e-07
9.21707e-06
-3.42973e-07
9.19469e-06
-4.19433e-07
9.15895e-06
-4.81906e-07
9.11048e-06
-5.29432e-07
9.05078e-06
-5.62209e-07
8.98218e-06
-5.81365e-07
8.90735e-06
-5.88488e-07
8.82899e-06
-5.85196e-07
8.74962e-06
-5.72925e-07
8.6716e-06
-5.52838e-07
8.59693e-06
-5.25557e-07
8.52712e-06
-4.91135e-07
8.46335e-06
-4.49386e-07
8.40657e-06
-4.00126e-07
8.3575e-06
-3.43359e-07
8.31667e-06
-2.79414e-07
8.2845e-06
-2.09046e-07
8.26134e-06
-1.33379e-07
8.24737e-06
-5.39321e-08
8.24254e-06
2.72635e-08
8.24654e-06
1.08119e-07
8.25894e-06
1.86714e-07
8.27916e-06
2.61192e-07
8.3065e-06
3.29824e-07
8.3402e-06
3.91063e-07
8.3795e-06
4.43551e-07
8.42371e-06
4.861e-07
8.47221e-06
5.1765e-07
8.5244e-06
5.37324e-07
8.57949e-06
5.44496e-07
8.63664e-06
5.38784e-07
8.69499e-06
5.19987e-07
8.75364e-06
4.88224e-07
8.81161e-06
4.44007e-07
8.86788e-06
3.8827e-07
8.92125e-06
3.22429e-07
8.97018e-06
2.48527e-07
9.01274e-06
1.69363e-07
9.04712e-06
8.79169e-08
9.07223e-06
6.78293e-09
9.08737e-06
-7.17553e-08
9.09217e-06
-1.45724e-07
9.08664e-06
-2.13463e-07
9.07104e-06
-2.73609e-07
9.04578e-06
-3.25035e-07
9.01142e-06
-3.66893e-07
8.96892e-06
-3.98874e-07
8.91982e-06
-4.2128e-07
8.86583e-06
-4.34676e-07
8.80874e-06
-4.39729e-07
8.75028e-06
-4.37077e-07
8.69209e-06
-4.27303e-07
8.6357e-06
-4.10847e-07
8.58243e-06
-3.87911e-07
8.53337e-06
-3.58541e-07
8.48939e-06
-3.22776e-07
8.45113e-06
-2.80752e-07
8.41911e-06
-2.32841e-07
8.3937e-06
-1.79699e-07
8.37518e-06
-1.22233e-07
8.36371e-06
-6.16364e-08
8.35925e-06
5.55906e-10
8.36158e-06
6.27013e-08
8.37036e-06
1.23345e-07
8.38515e-06
1.81096e-07
8.40546e-06
2.34664e-07
8.43071e-06
2.82899e-07
8.46035e-06
3.24794e-07
8.49384e-06
3.59474e-07
8.53075e-06
3.86163e-07
8.57063e-06
4.04245e-07
8.61296e-06
4.13247e-07
8.65709e-06
4.13026e-07
8.70238e-06
4.03088e-07
8.74833e-06
3.85105e-07
8.79399e-06
3.52549e-07
8.83946e-06
3.2507e-07
2.49094e-07
9.40521e-06
-2.99686e-07
9.40356e-06
-4.13598e-07
9.38085e-06
-5.10139e-07
9.33747e-06
-5.86694e-07
9.27392e-06
-6.41558e-07
9.19217e-06
-6.75318e-07
9.09582e-06
-6.90552e-07
8.98922e-06
-6.90668e-07
8.87683e-06
-6.79195e-07
8.76289e-06
-6.59318e-07
8.65107e-06
-6.3333e-07
8.54397e-06
-6.02164e-07
8.44331e-06
-5.65686e-07
8.35041e-06
-5.23238e-07
8.2663e-06
-4.73932e-07
8.19186e-06
-4.16907e-07
8.12786e-06
-3.5159e-07
8.0749e-06
-2.77946e-07
8.0335e-06
-1.96611e-07
8.00411e-06
-1.08825e-07
7.98701e-06
-1.63559e-08
7.98217e-06
7.84674e-08
7.98928e-06
1.73112e-07
8.00784e-06
2.65155e-07
8.03715e-06
3.52234e-07
8.07639e-06
4.32117e-07
8.12464e-06
5.02753e-07
8.18099e-06
5.62279e-07
8.24456e-06
6.09021e-07
8.31442e-06
6.41565e-07
8.38948e-06
6.58846e-07
8.46857e-06
6.60046e-07
8.55053e-06
6.44593e-07
8.63414e-06
6.12266e-07
8.7181e-06
5.63304e-07
8.80104e-06
4.98489e-07
8.88137e-06
4.19297e-07
8.95694e-06
3.28202e-07
9.02473e-06
2.29025e-07
9.08172e-06
1.26114e-07
9.1258e-06
2.33288e-08
9.15553e-06
-7.59373e-08
9.17005e-06
-1.68831e-07
9.16909e-06
-2.5304e-07
9.15281e-06
-3.26694e-07
9.12152e-06
-3.88144e-07
9.07579e-06
-4.36174e-07
9.01717e-06
-4.70811e-07
8.94807e-06
-4.93111e-07
8.87136e-06
-5.04651e-07
8.78994e-06
-5.07071e-07
8.70661e-06
-5.01868e-07
8.62396e-06
-4.90275e-07
8.54406e-06
-4.72934e-07
8.46836e-06
-4.49859e-07
8.39802e-06
-4.20788e-07
8.33399e-06
-3.85357e-07
8.27711e-06
-3.43252e-07
8.22811e-06
-2.94351e-07
8.18755e-06
-2.38852e-07
8.15585e-06
-1.77354e-07
8.13335e-06
-1.10876e-07
8.12023e-06
-4.08124e-08
8.11644e-06
3.10541e-08
8.12172e-06
1.02843e-07
8.13566e-06
1.72774e-07
8.15774e-06
2.39111e-07
8.18734e-06
3.00223e-07
8.22379e-06
3.54609e-07
8.26643e-06
4.00915e-07
8.3146e-06
4.37929e-07
8.36762e-06
4.64626e-07
8.42469e-06
4.8026e-07
8.48493e-06
4.84253e-07
8.54749e-06
4.76224e-07
8.61143e-06
4.56047e-07
8.67571e-06
4.2394e-07
8.73919e-06
3.80532e-07
8.8005e-06
3.26963e-07
8.85789e-06
2.65036e-07
8.90915e-06
1.97263e-07
8.95222e-06
1.26293e-07
8.98568e-06
5.44597e-08
9.00856e-06
-1.61013e-08
9.02033e-06
-8.35217e-08
9.02083e-06
-1.46219e-07
9.0102e-06
-2.02833e-07
8.98874e-06
-2.52155e-07
8.95693e-06
-2.93225e-07
8.91578e-06
-3.25746e-07
8.86684e-06
-3.49934e-07
8.81194e-06
-3.66375e-07
8.75299e-06
-3.75729e-07
8.69187e-06
-3.7861e-07
8.63036e-06
-3.75562e-07
8.57004e-06
-3.66986e-07
8.5122e-06
-3.53008e-07
8.45788e-06
-3.33585e-07
8.40796e-06
-3.08626e-07
8.36326e-06
-2.78069e-07
8.32446e-06
-2.41953e-07
8.29212e-06
-2.00509e-07
8.26664e-06
-1.54216e-07
8.24827e-06
-1.03859e-07
8.23716e-06
-5.05258e-08
8.23328e-06
4.42878e-09
8.23644e-06
5.95405e-08
8.24634e-06
1.13454e-07
8.26257e-06
1.64866e-07
8.28467e-06
2.12558e-07
8.31215e-06
2.55416e-07
8.34451e-06
2.92435e-07
8.38126e-06
3.22726e-07
8.42189e-06
3.45531e-07
8.46579e-06
3.60343e-07
8.51234e-06
3.66701e-07
8.56086e-06
3.64504e-07
8.61069e-06
3.53258e-07
8.66129e-06
3.34506e-07
8.7113e-06
3.02542e-07
8.76066e-06
2.75707e-07
2.06087e-07
9.36549e-06
-3.0876e-07
9.35196e-06
-4.00074e-07
9.31572e-06
-4.73892e-07
9.25703e-06
-5.28004e-07
9.17796e-06
-5.62493e-07
9.08234e-06
-5.79693e-07
8.97479e-06
-5.83e-07
8.86012e-06
-5.76002e-07
8.74296e-06
-5.62038e-07
8.62726e-06
-5.43614e-07
8.51574e-06
-5.21809e-07
8.41013e-06
-4.96558e-07
8.31165e-06
-4.6721e-07
8.22123e-06
-4.32819e-07
8.13967e-06
-3.92364e-07
8.0677e-06
-3.44943e-07
8.00606e-06
-2.89953e-07
7.95539e-06
-2.27273e-07
7.9162e-06
-1.57419e-07
7.88893e-06
-8.15529e-08
7.8739e-06
-1.3287e-09
7.87114e-06
8.12295e-08
7.88038e-06
1.6387e-07
7.90121e-06
2.44321e-07
7.93307e-06
3.2038e-07
7.97524e-06
3.89942e-07
8.02697e-06
4.51021e-07
8.08744e-06
5.01809e-07
8.15566e-06
5.40802e-07
8.23053e-06
5.66702e-07
8.31092e-06
5.78455e-07
8.39569e-06
5.75272e-07
8.48363e-06
5.56653e-07
8.57341e-06
5.22486e-07
8.66355e-06
4.73171e-07
8.75225e-06
4.09786e-07
8.83713e-06
3.34417e-07
8.91486e-06
2.50472e-07
8.98207e-06
1.61815e-07
9.03624e-06
7.19432e-08
9.07554e-06
-1.59752e-08
9.09886e-06
-9.92539e-08
9.10576e-06
-1.75729e-07
9.09628e-06
-2.43558e-07
9.07056e-06
-3.00977e-07
9.02906e-06
-3.46647e-07
8.97332e-06
-3.80427e-07
8.90581e-06
-4.03303e-07
8.82953e-06
-4.16828e-07
8.74753e-06
-4.22658e-07
8.66277e-06
-4.22312e-07
8.57794e-06
-4.17035e-07
8.49514e-06
-4.07473e-07
8.41583e-06
-3.93624e-07
8.34114e-06
-3.75167e-07
8.27199e-06
-3.51638e-07
8.20919e-06
-3.22563e-07
8.15351e-06
-2.87567e-07
8.10563e-06
-2.46477e-07
8.06618e-06
-1.99399e-07
8.03562e-06
-1.46797e-07
8.0143e-06
-8.95561e-08
8.00242e-06
-2.89309e-08
7.99998e-06
3.3493e-08
8.00678e-06
9.60475e-08
8.02246e-06
1.57088e-07
8.04659e-06
2.14985e-07
8.07863e-06
2.68183e-07
8.11802e-06
3.15223e-07
8.16412e-06
3.54812e-07
8.21619e-06
3.85854e-07
8.27342e-06
4.07399e-07
8.33497e-06
4.18707e-07
8.39998e-06
4.19247e-07
8.46749e-06
4.08717e-07
8.53642e-06
3.87112e-07
8.60555e-06
3.54817e-07
8.67335e-06
3.12726e-07
8.73781e-06
2.625e-07
8.7965e-06
2.0635e-07
8.84717e-06
1.46592e-07
8.88819e-06
8.52743e-08
8.91836e-06
2.42878e-08
8.93696e-06
-3.47019e-08
8.94372e-06
-9.02758e-08
8.93867e-06
-1.41174e-07
8.92203e-06
-1.86185e-07
8.89415e-06
-2.24283e-07
8.85603e-06
-2.55098e-07
8.80915e-06
-2.78872e-07
8.75541e-06
-2.96196e-07
8.69679e-06
-3.07747e-07
8.6352e-06
-3.14143e-07
8.57246e-06
-3.15868e-07
8.51015e-06
-3.13259e-07
8.44959e-06
-3.06419e-07
8.3918e-06
-2.95222e-07
8.33769e-06
-2.79473e-07
8.28805e-06
-2.58989e-07
8.24363e-06
-2.33646e-07
8.2051e-06
-2.03428e-07
8.17306e-06
-1.68466e-07
8.14795e-06
-1.29102e-07
8.13006e-06
-8.59707e-08
8.11955e-06
-4.00145e-08
8.11641e-06
7.56299e-09
8.12051e-06
5.54478e-08
8.13158e-06
1.02379e-07
8.14931e-06
1.47137e-07
8.17331e-06
1.88563e-07
8.20313e-06
2.25588e-07
8.2383e-06
2.57267e-07
8.27824e-06
2.82792e-07
8.32231e-06
3.0146e-07
8.36987e-06
3.12781e-07
8.42027e-06
3.16299e-07
8.47273e-06
3.1205e-07
8.52659e-06
2.99394e-07
8.58098e-06
2.80113e-07
8.6339e-06
2.49625e-07
8.68533e-06
2.24279e-07
1.62698e-07
9.29925e-06
-3.03823e-07
9.27027e-06
-3.71102e-07
9.21724e-06
-4.20854e-07
9.14218e-06
-4.52952e-07
9.04915e-06
-4.69462e-07
8.94308e-06
-4.73616e-07
8.82904e-06
-4.68964e-07
8.71191e-06
-4.58874e-07
8.59578e-06
-4.45904e-07
8.48336e-06
-4.31199e-07
8.37631e-06
-4.14757e-07
8.27572e-06
-3.95969e-07
8.18239e-06
-3.73878e-07
8.09697e-06
-3.47393e-07
8.02007e-06
-3.15469e-07
7.95238e-06
-2.77247e-07
7.89459e-06
-2.3217e-07
7.84741e-06
-1.80094e-07
7.81143e-06
-1.21431e-07
7.78709e-06
-5.7217e-08
7.77477e-06
1.09926e-08
7.77459e-06
8.14066e-08
7.78641e-06
1.52054e-07
7.80992e-06
2.20809e-07
7.84468e-06
2.85619e-07
7.89008e-06
3.44539e-07
7.94537e-06
3.95731e-07
8.00968e-06
4.37503e-07
8.08206e-06
4.68428e-07
8.16144e-06
4.87318e-07
8.24669e-06
4.93202e-07
8.33661e-06
4.85358e-07
8.42984e-06
4.63414e-07
8.52485e-06
4.27483e-07
8.61966e-06
3.78358e-07
8.71153e-06
3.17916e-07
8.79684e-06
2.4911e-07
8.87201e-06
1.75301e-07
8.93428e-06
9.95418e-08
8.98154e-06
2.46833e-08
9.01243e-06
-4.68673e-08
9.0264e-06
-1.13216e-07
9.0234e-06
-1.72731e-07
9.00349e-06
-2.23651e-07
8.967e-06
-2.64491e-07
8.91543e-06
-2.95073e-07
8.85133e-06
-3.16323e-07
8.77775e-06
-3.29725e-07
8.69782e-06
-3.36898e-07
8.61449e-06
-3.39333e-07
8.53043e-06
-3.38245e-07
8.44768e-06
-3.34284e-07
8.36766e-06
-3.2746e-07
8.29146e-06
-3.17418e-07
8.21992e-06
-3.0363e-07
8.1538e-06
-2.8552e-07
8.0938e-06
-2.62563e-07
8.04062e-06
-2.34381e-07
7.99494e-06
-2.00805e-07
7.95745e-06
-1.61908e-07
7.9287e-06
-1.18045e-07
7.90907e-06
-6.99241e-08
7.8988e-06
-1.86602e-08
7.89799e-06
3.43011e-08
7.90656e-06
8.74768e-08
7.92426e-06
1.39386e-07
7.95071e-06
1.88538e-07
7.98541e-06
2.33487e-07
8.02776e-06
2.72865e-07
8.07712e-06
3.05454e-07
8.13276e-06
3.30219e-07
8.19385e-06
3.46301e-07
8.25952e-06
3.53037e-07
8.32879e-06
3.49984e-07
8.40052e-06
3.36982e-07
8.47339e-06
3.14249e-07
8.54568e-06
2.82524e-07
8.61511e-06
2.43297e-07
8.67911e-06
1.98495e-07
8.73544e-06
1.50026e-07
8.78231e-06
9.97226e-08
8.81836e-06
4.9221e-08
8.84274e-06
-9.77831e-11
8.85512e-06
-4.70738e-08
8.85548e-06
-9.0642e-08
8.84396e-06
-1.29649e-07
8.82081e-06
-1.63039e-07
8.78693e-06
-1.90402e-07
8.74382e-06
-2.11987e-07
8.69332e-06
-2.28375e-07
8.63736e-06
-2.40237e-07
8.57781e-06
-2.48196e-07
8.51639e-06
-2.52721e-07
8.45463e-06
-2.54109e-07
8.39381e-06
-2.52439e-07
8.33495e-06
-2.47555e-07
8.27891e-06
-2.39186e-07
8.22649e-06
-2.27048e-07
8.17839e-06
-2.10898e-07
8.13533e-06
-1.90582e-07
8.09796e-06
-1.6606e-07
8.06691e-06
-1.37416e-07
8.0427e-06
-1.04887e-07
8.02566e-06
-6.89381e-08
8.016e-06
-3.03533e-08
8.01378e-06
9.78749e-09
8.01895e-06
5.02731e-08
8.03137e-06
8.99605e-08
8.05076e-06
1.27749e-07
8.07674e-06
1.62579e-07
8.10886e-06
1.93466e-07
8.1466e-06
2.19533e-07
8.18936e-06
2.40032e-07
8.23648e-06
2.54337e-07
8.28725e-06
2.62013e-07
8.34089e-06
2.62661e-07
8.3965e-06
2.56442e-07
8.45311e-06
2.42783e-07
8.50928e-06
2.23942e-07
8.56269e-06
1.96217e-07
8.6136e-06
1.73361e-07
1.21373e-07
9.19658e-06
-2.80741e-07
9.14867e-06
-3.23187e-07
9.07806e-06
-3.50252e-07
8.98901e-06
-3.63901e-07
8.88668e-06
-3.67124e-07
8.77631e-06
-3.6325e-07
8.66286e-06
-3.55511e-07
8.5503e-06
-3.46322e-07
8.44116e-06
-3.36763e-07
8.33687e-06
-3.26906e-07
8.23833e-06
-3.16221e-07
8.14616e-06
-3.03793e-07
8.06081e-06
-2.88531e-07
7.98276e-06
-2.69338e-07
7.91253e-06
-2.4524e-07
7.85077e-06
-2.1549e-07
7.79823e-06
-1.79627e-07
7.75566e-06
-1.3753e-07
7.72378e-06
-8.95454e-08
7.70314e-06
-3.65775e-08
7.69418e-06
1.99524e-08
7.6971e-06
7.84826e-08
7.71185e-06
1.37304e-07
7.73825e-06
1.94407e-07
7.77597e-06
2.47898e-07
7.82449e-06
2.96026e-07
7.88312e-06
3.371e-07
7.95104e-06
3.69578e-07
8.02732e-06
3.92154e-07
8.11086e-06
4.0377e-07
8.20047e-06
4.03595e-07
8.29475e-06
3.91074e-07
8.39204e-06
3.6613e-07
8.49012e-06
3.29404e-07
8.58584e-06
2.82632e-07
8.67541e-06
2.28352e-07
8.75522e-06
1.693e-07
8.82239e-06
1.08126e-07
8.87467e-06
4.72637e-08
8.91062e-06
-1.12711e-08
8.92969e-06
-6.59372e-08
8.93183e-06
-1.15354e-07
8.91697e-06
-1.57864e-07
8.88542e-06
-1.921e-07
8.83871e-06
-2.17786e-07
8.77946e-06
-2.35825e-07
8.71072e-06
-2.4758e-07
8.63554e-06
-2.54548e-07
8.55676e-06
-2.58114e-07
8.47684e-06
-2.59413e-07
8.39767e-06
-2.59077e-07
8.32053e-06
-2.5714e-07
8.24633e-06
-2.53262e-07
8.17582e-06
-2.46906e-07
8.10964e-06
-2.37454e-07
8.04842e-06
-2.24298e-07
7.99278e-06
-2.06927e-07
7.94341e-06
-1.85006e-07
7.90101e-06
-1.58412e-07
7.86634e-06
-1.27237e-07
7.84006e-06
-9.17663e-08
7.82268e-06
-5.25364e-08
7.81449e-06
-1.04748e-08
7.81571e-06
3.30844e-08
7.82635e-06
7.68331e-08
7.84625e-06
1.19493e-07
7.87505e-06
1.59735e-07
7.9123e-06
1.96232e-07
7.95744e-06
2.27726e-07
8.0098e-06
2.53096e-07
8.06862e-06
2.71404e-07
8.13301e-06
2.81905e-07
8.20197e-06
2.84076e-07
8.27429e-06
2.77668e-07
8.34848e-06
2.62795e-07
8.4226e-06
2.4013e-07
8.49417e-06
2.10951e-07
8.56064e-06
1.76825e-07
8.61983e-06
1.39306e-07
8.6699e-06
9.9955e-08
8.70946e-06
6.01617e-08
8.73764e-06
2.10447e-08
8.75408e-06
-1.65374e-08
8.7588e-06
-5.18005e-08
8.7519e-06
-8.37405e-08
8.73356e-06
-1.1131e-07
8.70462e-06
-1.34093e-07
8.66655e-06
-1.52328e-07
8.6211e-06
-1.66543e-07
8.57008e-06
-1.77354e-07
8.51519e-06
-1.85348e-07
8.45798e-06
-1.90986e-07
8.39981e-06
-1.94551e-07
8.34182e-06
-1.9612e-07
8.28494e-06
-1.95556e-07
8.22995e-06
-1.92564e-07
8.17757e-06
-1.86806e-07
8.12848e-06
-1.77965e-07
8.08337e-06
-1.65785e-07
8.0429e-06
-1.5011e-07
8.00774e-06
-1.30898e-07
7.97854e-06
-1.08219e-07
7.95589e-06
-8.22386e-08
7.94023e-06
-5.32748e-08
7.93181e-06
-2.1937e-08
7.93079e-06
1.08109e-08
7.93723e-06
4.38316e-08
7.95105e-06
7.61363e-08
7.97203e-06
1.06769e-07
7.99981e-06
1.34799e-07
8.03393e-06
1.59355e-07
8.0738e-06
1.7966e-07
8.11878e-06
1.95052e-07
8.16811e-06
2.05004e-07
8.22096e-06
2.09163e-07
8.27633e-06
2.07296e-07
8.33307e-06
1.99698e-07
8.38957e-06
1.86285e-07
8.44437e-06
1.69143e-07
8.49508e-06
1.45508e-07
8.54223e-06
1.26202e-07
8.48301e-08
9.04326e-06
-2.36249e-07
8.97667e-06
-2.56601e-07
8.89257e-06
-2.66152e-07
8.79624e-06
-2.67569e-07
8.69291e-06
-2.63794e-07
8.58733e-06
-2.57669e-07
8.48304e-06
-2.51226e-07
8.38208e-06
-2.45356e-07
8.28551e-06
-2.40192e-07
8.19393e-06
-2.35326e-07
8.10767e-06
-2.29963e-07
8.02698e-06
-2.23101e-07
7.95213e-06
-2.13685e-07
7.88352e-06
-2.00727e-07
7.82168e-06
-1.83398e-07
7.7673e-06
-1.61116e-07
7.72123e-06
-1.33551e-07
7.68433e-06
-1.00635e-07
7.65744e-06
-6.26564e-08
7.64123e-06
-2.03614e-08
7.63627e-06
2.49063e-08
7.64275e-06
7.20091e-08
7.66065e-06
1.19405e-07
7.69005e-06
1.65002e-07
7.73074e-06
2.07212e-07
7.78225e-06
2.4451e-07
7.844e-06
2.75352e-07
7.91522e-06
2.9836e-07
7.99493e-06
3.12439e-07
8.08188e-06
3.16821e-07
8.17451e-06
3.10966e-07
8.27093e-06
2.94654e-07
8.36861e-06
2.68456e-07
8.46406e-06
2.33948e-07
8.55346e-06
1.93232e-07
8.63338e-06
1.48436e-07
8.70095e-06
1.01727e-07
8.754e-06
5.5071e-08
8.79124e-06
1.00316e-08
8.81223e-06
-3.22637e-08
8.81706e-06
-7.07677e-08
8.80558e-06
-1.03873e-07
8.77818e-06
-1.30467e-07
8.73648e-06
-1.50402e-07
8.68317e-06
-1.64471e-07
8.62119e-06
-1.73849e-07
8.55342e-06
-1.79811e-07
8.48241e-06
-1.83539e-07
8.41031e-06
-1.86009e-07
8.33867e-06
-1.8778e-07
8.2685e-06
-1.88906e-07
8.20047e-06
-1.89103e-07
8.13509e-06
-1.87883e-07
8.07284e-06
-1.8466e-07
8.01421e-06
-1.78826e-07
7.95974e-06
-1.69828e-07
7.91006e-06
-1.57241e-07
7.86587e-06
-1.40816e-07
7.82795e-06
-1.20492e-07
7.7971e-06
-9.63923e-08
7.77411e-06
-6.87763e-08
7.75961e-06
-3.8036e-08
7.75403e-06
-4.89533e-09
7.75768e-06
2.94409e-08
7.77063e-06
6.38806e-08
7.79277e-06
9.73543e-08
7.8238e-06
1.28699e-07
7.86331e-06
1.56725e-07
7.91073e-06
1.80305e-07
7.96536e-06
1.98469e-07
8.0263e-06
2.10456e-07
8.09249e-06
2.15722e-07
8.16258e-06
2.13988e-07
8.23491e-06
2.05332e-07
8.30733e-06
1.90372e-07
8.37733e-06
1.70136e-07
8.4425e-06
1.45775e-07
8.50081e-06
1.18515e-07
8.55051e-06
8.96106e-08
8.59028e-06
6.01808e-08
8.61936e-06
3.10823e-08
8.6375e-06
2.90944e-09
8.64478e-06
-2.38212e-08
8.64131e-06
-4.8327e-08
8.62724e-06
-6.96684e-08
8.60336e-06
-8.74376e-08
8.57112e-06
-1.01848e-07
8.53213e-06
-1.13337e-07
8.488e-06
-1.22415e-07
8.44022e-06
-1.29573e-07
8.39008e-06
-1.35211e-07
8.33869e-06
-1.39588e-07
8.28693e-06
-1.42793e-07
8.23554e-06
-1.4473e-07
8.18513e-06
-1.45149e-07
8.13629e-06
-1.43725e-07
8.08961e-06
-1.40128e-07
8.04571e-06
-1.34061e-07
8.00522e-06
-1.25294e-07
7.9688e-06
-1.13692e-07
7.93713e-06
-9.92296e-08
7.91089e-06
-8.19771e-08
7.89072e-06
-6.20627e-08
7.87713e-06
-3.96906e-08
7.8705e-06
-1.53032e-08
7.87106e-06
1.02446e-08
7.87896e-06
3.59323e-08
7.89415e-06
6.09499e-08
7.91642e-06
8.44989e-08
7.94542e-06
1.05797e-07
7.98066e-06
1.24117e-07
8.0215e-06
1.38819e-07
8.06718e-06
1.49376e-07
8.11676e-06
1.55416e-07
8.1692e-06
1.56722e-07
8.22318e-06
1.53325e-07
8.27722e-06
1.45653e-07
8.32951e-06
1.33998e-07
8.37896e-06
1.19688e-07
8.42319e-06
1.01278e-07
8.46316e-06
8.62324e-08
5.55146e-08
8.82581e-06
-1.73212e-07
8.74798e-06
-1.78767e-07
8.66052e-06
-1.78692e-07
8.56833e-06
-1.75385e-07
8.47555e-06
-1.71011e-07
8.38485e-06
-1.66969e-07
8.29755e-06
-1.63923e-07
8.21423e-06
-1.62042e-07
8.1351e-06
-1.61056e-07
8.06013e-06
-1.60362e-07
7.98931e-06
-1.59143e-07
7.9227e-06
-1.5649e-07
7.86052e-06
-1.51504e-07
7.80317e-06
-1.43378e-07
7.75128e-06
-1.31505e-07
7.70565e-06
-1.15485e-07
7.66718e-06
-9.50841e-08
7.63685e-06
-7.03045e-08
7.61568e-06
-4.14859e-08
7.60441e-06
-9.09416e-09
7.60336e-06
2.59584e-08
7.61326e-06
6.21093e-08
7.6348e-06
9.78679e-08
7.66769e-06
1.32104e-07
7.71157e-06
1.6334e-07
7.76601e-06
1.90066e-07
7.83041e-06
2.1095e-07
7.90392e-06
2.24851e-07
7.98534e-06
2.31017e-07
8.07286e-06
2.29306e-07
8.16412e-06
2.19702e-07
8.25624e-06
2.02534e-07
8.34571e-06
1.78991e-07
8.42897e-06
1.50684e-07
8.50295e-06
1.19251e-07
8.56506e-06
8.63297e-08
8.61346e-06
5.33311e-08
8.64723e-06
2.1302e-08
8.66627e-06