/*--------------------------------*- C++ -*----------------------------------*\
| =========                 |                                                 |
| \\      /  F ield         | OpenFOAM: The Open Source CFD Toolbox           |
|  \\    /   O peration     | Version:  2206                                  |
|   \\  /    A nd           | Website:  www.openfoam.com                      |
|    \\/     M anipulation  |                                                 |
\*---------------------------------------------------------------------------*/
FoamFile
{
    version     2.0;
    format      ascii;
    arch        "LSB;label=32;scalar=64";
    class       volVectorField;
    location    "18.6999";
    object      ddt0(U);
}
// * * * * * * * * * * * * * * * * * * * * * * * * * * * * * * * * * * * * * //

dimensions      [0 1 -2 0 0 0 0];

internalField   nonuniform List<vector> 
4823
(
(1.5375e-06 -0.00038721 0)
(6.43647e-06 -0.000731226 0)
(1.25458e-05 -0.000549918 0)
(1.3621e-05 0.000127983 0)
(5.94929e-06 0.00123647 0)
(-1.12492e-05 0.00274204 0)
(-3.89826e-05 0.00461934 0)
(-8.02754e-05 0.00683243 0)
(-0.00013767 0.00933599 0)
(-0.00021457 0.0120822 0)
(-0.000314594 0.0150233 0)
(-0.000440452 0.0181105 0)
(-0.000593662 0.0212937 0)
(-0.000775073 0.0245224 0)
(-0.000984555 0.0277475 0)
(-0.00122165 0.030923 0)
(-0.00148525 0.0340066 0)
(-0.00177426 0.0369598 0)
(-0.00208707 0.0397474 0)
(-0.00242228 0.0423376 0)
(-0.00277797 0.0447016 0)
(-0.00315242 0.046814 0)
(-0.00354325 0.0486535 0)
(-0.00394834 0.0502035 0)
(-0.00436499 0.0514518 0)
(-0.00479077 0.0523911 0)
(-0.00522272 0.0530187 0)
(-0.00565818 0.053337 0)
(-0.0060947 0.0533519 0)
(-0.0065278 0.0530753 0)
(-0.00696074 0.0525204 0)
(-0.00737892 0.0517057 0)
(-0.00780173 0.0506564 0)
(-0.00818693 0.049396 0)
(-0.00860211 0.0479569 0)
(-0.00894165 0.0463652 0)
(-0.00933963 0.0446621 0)
(-0.00963446 0.0428727 0)
(-0.0100021 0.0410471 0)
(-0.0102631 0.0392089 0)
(-0.0105818 0.0374125 0)
(-0.0108254 0.0356853 0)
(-0.0110839 0.0340772 0)
(-0.0113156 0.0326274 0)
(-0.0115262 0.0313754 0)
(-0.0117326 0.0303702 0)
(-0.0119232 0.029648 0)
(-0.0121005 0.0292528 0)
(-0.0122716 0.0292215 0)
(-0.0124707 0.0296084 0)
(-0.0125924 0.0303849 0)
(-0.0128816 0.0317133 0)
(-0.0130145 0.0333637 0)
(-0.0133825 0.0356851 0)
(-0.0136257 0.0381806 0)
(-0.0140017 0.0415805 0)
(-0.0142983 0.0453726 0)
(-0.0146491 0.0496976 0)
(-0.0150692 0.0545599 0)
(-0.0155348 0.0599344 0)
(-0.01604 0.0658075 0)
(-0.0165989 0.0721762 0)
(-0.0172211 0.0790302 0)
(-0.0179142 0.0863444 0)
(-0.0186831 0.0941025 0)
(-0.0195275 0.102282 0)
(-0.0204551 0.110867 0)
(-0.0214721 0.119841 0)
(-0.0225827 0.129186 0)
(-0.0237931 0.138886 0)
(-0.0251084 0.148925 0)
(-0.0265353 0.159287 0)
(-0.0280802 0.169956 0)
(-0.0297504 0.180918 0)
(-0.031552 0.192159 0)
(-0.033493 0.203665 0)
(-0.0355805 0.215424 0)
(-0.0378236 0.227425 0)
(-0.0402308 0.23966 0)
(-0.0428133 0.252123 0)
(-0.0455827 0.264813 0)
(-0.0485527 0.277733 0)
(-0.0517375 0.290891 0)
(-0.0551547 0.3043 0)
(-0.0588229 0.317979 0)
(-0.0627672 0.331958 0)
(-0.0670133 0.346274 0)
(-0.0715926 0.360973 0)
(-0.0765404 0.376113 0)
(-0.0818985 0.39176 0)
(-0.0877143 0.407995 0)
(-0.0940442 0.424913 0)
(-0.100953 0.442622 0)
(-0.108515 0.461247 0)
(-0.116814 0.480933 0)
(-0.125951 0.501847 0)
(-0.136036 0.524179 0)
(-0.147194 0.548155 0)
(-0.159564 0.574035 0)
(-0.173295 0.602132 0)
(-0.188543 0.63282 0)
(-0.205456 0.666561 0)
(-0.224149 0.703935 0)
(-0.244684 0.745694 0)
(-0.266929 0.792822 0)
(-0.290591 0.84668 0)
(-0.314717 0.909311 0)
(-0.336817 0.981709 0)
(-0.352813 1.07147 0)
(-0.36592 1.19148 0)
(-0.340494 1.35322 0)
(-0.0696863 1.69738 0)
(1.35275e-06 -0.000390399 0)
(4.99488e-06 -0.000736832 0)
(1.0159e-05 -0.000553395 0)
(1.20432e-05 0.000130023 0)
(7.75817e-06 0.00124647 0)
(-3.54222e-06 0.0027628 0)
(-2.43802e-05 0.0046534 0)
(-5.73266e-05 0.00688277 0)
(-0.000104098 0.00940566 0)
(-0.00016659 0.0121737 0)
(-0.00024676 0.0151387 0)
(-0.000346273 0.0182513 0)
(-0.000466311 0.0214612 0)
(-0.000607523 0.0247172 0)
(-0.000770109 0.0279696 0)
(-0.000953933 0.031172 0)
(-0.00115843 0.0342814 0)
(-0.00138271 0.0372592 0)
(-0.00162572 0.04007 0)
(-0.00188631 0.0426817 0)
(-0.00216316 0.0450652 0)
(-0.0024547 0.0471952 0)
(-0.00275916 0.04905 0)
(-0.00307475 0.0506129 0)
(-0.00339947 0.0518715 0)
(-0.00373119 0.0528184 0)
(-0.00406761 0.053451 0)
(-0.00440687 0.0537714 0)
(-0.00474609 0.0537858 0)
(-0.0050852 0.0535061 0)
(-0.005417 0.0529455 0)
(-0.00574888 0.0521231 0)
(-0.00607293 0.0510621 0)
(-0.00637175 0.0497897 0)
(-0.00670091 0.0483354 0)
(-0.00695607 0.0467301 0)
(-0.00728008 0.0450084 0)
(-0.00748942 0.0432038 0)
(-0.00780006 0.0413581 0)
(-0.00797022 0.0395028 0)
(-0.00825755 0.0376872 0)
(-0.0084015 0.0359404 0)
(-0.0086499 0.0343169 0)
(-0.00878704 0.0328472 0)
(-0.00897893 0.0315826 0)
(-0.00913077 0.0305636 0)
(-0.00925723 0.0298256 0)
(-0.00943217 0.0294294 0)
(-0.0095043 0.0293811 0)
(-0.0096951 0.0297714 0)
(-0.00973064 0.0305601 0)
(-0.00994296 0.0318906 0)
(-0.00998126 0.0336193 0)
(-0.0102754 0.0359631 0)
(-0.0105269 0.0385974 0)
(-0.0109263 0.0420263 0)
(-0.0111261 0.0457937 0)
(-0.0113523 0.0500996 0)
(-0.0116735 0.0549724 0)
(-0.0120539 0.0603818 0)
(-0.0124621 0.0663061 0)
(-0.0129038 0.072734 0)
(-0.0133954 0.079652 0)
(-0.0139386 0.0870371 0)
(-0.0145371 0.0948744 0)
(-0.0151958 0.103143 0)
(-0.0159154 0.111818 0)
(-0.0167058 0.120888 0)
(-0.0175697 0.130334 0)
(-0.0185096 0.14014 0)
(-0.0195308 0.15029 0)
(-0.0206395 0.160774 0)
(-0.02184 0.171568 0)
(-0.0231363 0.182661 0)
(-0.0245352 0.194038 0)
(-0.0260431 0.205686 0)
(-0.0276659 0.217596 0)
(-0.02941 0.229755 0)
(-0.0312824 0.242158 0)
(-0.0332915 0.254801 0)
(-0.0354465 0.267682 0)
(-0.0377596 0.280807 0)
(-0.0402439 0.294183 0)
(-0.0429124 0.30783 0)
(-0.0457808 0.321773 0)
(-0.0488677 0.336041 0)
(-0.0521941 0.350676 0)
(-0.055785 0.365729 0)
(-0.0596689 0.381261 0)
(-0.0638784 0.397346 0)
(-0.068452 0.414073 0)
(-0.0734347 0.431542 0)
(-0.0788778 0.449871 0)
(-0.0848393 0.469196 0)
(-0.0913859 0.489673 0)
(-0.0985932 0.511478 0)
(-0.106545 0.534816 0)
(-0.115331 0.559919 0)
(-0.125044 0.587058 0)
(-0.135781 0.616542 0)
(-0.147622 0.648731 0)
(-0.160619 0.684043 0)
(-0.17476 0.722972 0)
(-0.18993 0.766099 0)
(-0.205758 0.814072 0)
(-0.22175 0.867852 0)
(-0.235918 0.927418 0)
(-0.247483 0.995412 0)
(-0.250791 1.07343 0)
(-0.241796 1.16052 0)
(-0.176839 1.25833 0)
(-0.0748083 1.28215 0)
(1.06509e-06 -0.000392692 0)
(3.3961e-06 -0.000740728 0)
(6.97131e-06 -0.000556514 0)
(8.73125e-06 0.000130978 0)
(6.4637e-06 0.00125409 0)
(-1.80062e-06 0.00277908 0)
(-1.71385e-05 0.00468038 0)
(-4.08011e-05 0.00692211 0)
(-7.4319e-05 0.00945892 0)
(-0.000119051 0.0122427 0)
(-0.000176368 0.0152252 0)
(-0.000247467 0.0183568 0)
(-0.00033315 0.0215867 0)
(-0.000433834 0.0248631 0)
(-0.000549722 0.0281361 0)
(-0.000680728 0.0313586 0)
(-0.000826451 0.0344876 0)
(-0.000986308 0.037484 0)
(-0.00115964 0.0403125 0)
(-0.00134572 0.0429405 0)
(-0.00154359 0.045339 0)
(-0.00175206 0.0474823 0)
(-0.00196989 0.0493488 0)
(-0.00219576 0.0509213 0)
(-0.00242811 0.0521876 0)
(-0.00266537 0.0531401 0)
(-0.00290571 0.0537761 0)
(-0.00314828 0.0540977 0)
(-0.00338924 0.0541114 0)
(-0.0036339 0.0538288 0)
(-0.0038621 0.0532634 0)
(-0.00410677 0.0524373 0)
(-0.00433992 0.0513686 0)
(-0.00454239 0.0500872 0)
(-0.00479268 0.0486208 0)
(-0.00494634 0.0470036 0)
(-0.00521232 0.0452661 0)
(-0.00532047 0.0434492 0)
(-0.00558609 0.0415877 0)
(-0.00566422 0.039722 0)
(-0.00590999 0.0378908 0)
(-0.0059786 0.0361345 0)
(-0.00618313 0.0344952 0)
(-0.00626166 0.0330166 0)
(-0.00641105 0.0317372 0)
(-0.00651295 0.0307106 0)
(-0.00660002 0.0299596 0)
(-0.00673756 0.0295585 0)
(-0.006757 0.0294961 0)
(-0.0069348 0.0298832 0)
(-0.00688866 0.0306584 0)
(-0.00707907 0.0319788 0)
(-0.00695343 0.0337229 0)
(-0.00714824 0.0361736 0)
(-0.0068975 0.0385688 0)
(-0.00771716 0.0421892 0)
(-0.00799541 0.04611 0)
(-0.00813014 0.0504835 0)
(-0.00832424 0.0553827 0)
(-0.00858449 0.0608207 0)
(-0.00887031 0.0667822 0)
(-0.00917676 0.0732492 0)
(-0.00951936 0.0802059 0)
(-0.0099041 0.0876364 0)
(-0.0103301 0.0955166 0)
(-0.0108025 0.103832 0)
(-0.0113214 0.112562 0)
(-0.0118844 0.12169 0)
(-0.0124982 0.131202 0)
(-0.0131653 0.141082 0)
(-0.0138824 0.15131 0)
(-0.014662 0.161867 0)
(-0.0155132 0.172746 0)
(-0.0164311 0.183932 0)
(-0.0174204 0.195409 0)
(-0.0184872 0.207164 0)
(-0.0196358 0.219187 0)
(-0.0208707 0.231467 0)
(-0.0221981 0.243998 0)
(-0.0236251 0.256778 0)
(-0.0251579 0.269809 0)
(-0.0268064 0.283109 0)
(-0.0285746 0.296664 0)
(-0.030468 0.3105 0)
(-0.0325043 0.324648 0)
(-0.0346981 0.339141 0)
(-0.0370639 0.354021 0)
(-0.0396203 0.369344 0)
(-0.0423885 0.385176 0)
(-0.0453924 0.401595 0)
(-0.0486607 0.418695 0)
(-0.0522264 0.436585 0)
(-0.0561264 0.455387 0)
(-0.0604025 0.475246 0)
(-0.065102 0.496325 0)
(-0.0702787 0.518807 0)
(-0.0759891 0.542904 0)
(-0.0822919 0.568853 0)
(-0.0892464 0.596919 0)
(-0.096906 0.627402 0)
(-0.105306 0.660632 0)
(-0.114445 0.696974 0)
(-0.124266 0.736821 0)
(-0.134595 0.780572 0)
(-0.145117 0.828636 0)
(-0.155093 0.881252 0)
(-0.16361 0.938696 0)
(-0.168731 1.00094 0)
(-0.168066 1.0673 0)
(-0.152622 1.13516 0)
(-0.124604 1.19056 0)
(-0.0607433 1.46246 0)
(7.07745e-07 -0.000393915 0)
(1.57738e-06 -0.000743028 0)
(3.04019e-06 -0.000558609 0)
(4.09092e-06 0.000131313 0)
(3.10799e-06 0.00125825 0)
(-1.11133e-06 0.00278839 0)
(-1.018e-05 0.00469661 0)
(-2.49928e-05 0.00694697 0)
(-4.57409e-05 0.00949386 0)
(-7.27732e-05 0.012289 0)
(-0.0001068 0.0152836 0)
(-0.000148687 0.0184281 0)
(-0.000199087 0.0216711 0)
(-0.000258425 0.024961 0)
(-0.000326906 0.0282474 0)
(-0.000404474 0.031483 0)
(-0.000490984 0.0346249 0)
(-0.000586187 0.0376337 0)
(-0.000689825 0.0404738 0)
(-0.000801519 0.0431128 0)
(-0.000920649 0.0455213 0)
(-0.00104645 0.0476736 0)
(-0.00117803 0.0495479 0)
(-0.00131441 0.0511268 0)
(-0.00145454 0.0523981 0)
(-0.00159735 0.0533542 0)
(-0.0017416 0.0539924 0)
(-0.00188696 0.0543146 0)
(-0.00203047 0.0543276 0)
(-0.0021769 0.0540419 0)
(-0.00230835 0.0534731 0)
(-0.00245737 0.0526445 0)
(-0.00257453 0.051565 0)
(-0.00270708 0.0502875 0)
(-0.00288085 0.0488033 0)
(-0.00290037 0.047192 0)
(-0.00317247 0.0454345 0)
(-0.00308982 0.0436233 0)
(-0.00342793 0.0417395 0)
(-0.00327741 0.0398762 0)
(-0.00363493 0.0380236 0)
(-0.00346517 0.0362669 0)
(-0.00378412 0.0346107 0)
(-0.00366462 0.0331272 0)
(-0.00386601 0.0318399 0)
(-0.00389552 0.030799 0)
(-0.00386691 0.0300583 0)
(-0.00418586 0.0296222 0)
(-0.00377036 0.0296014 0)
(-0.00455455 0.0299157 0)
(-0.00360697 0.0307759 0)
(-0.00490472 0.0319484 0)
(-0.00358206 0.0338916 0)
(-0.00491182 0.0358609 0)
(-0.00390905 0.0399817 0)
(-0.00422612 0.042436 0)
(-0.00438525 0.0461723 0)
(-0.00449519 0.0505465 0)
(-0.00464404 0.055461 0)
(-0.00484501 0.0609298 0)
(-0.00507291 0.0669403 0)
(-0.00531426 0.0734625 0)
(-0.00556983 0.0804727 0)
(-0.00584025 0.0879528 0)
(-0.00612386 0.0958835 0)
(-0.00642121 0.104246 0)
(-0.00673371 0.113027 0)
(-0.00706433 0.122207 0)
(-0.00741719 0.131769 0)
(-0.00779785 0.1417 0)
(-0.00821576 0.151983 0)
(-0.00866473 0.1626 0)
(-0.00914365 0.173543 0)
(-0.00966459 0.184794 0)
(-0.0102292 0.19634 0)
(-0.0108389 0.208166 0)
(-0.0114979 0.220264 0)
(-0.0122098 0.232623 0)
(-0.0129779 0.245238 0)
(-0.0138034 0.258108 0)
(-0.0146776 0.271231 0)
(-0.0156377 0.284598 0)
(-0.0166894 0.298259 0)
(-0.0178026 0.312217 0)
(-0.0189967 0.326493 0)
(-0.0202855 0.341127 0)
(-0.0216771 0.356165 0)
(-0.0231823 0.371664 0)
(-0.0248136 0.387693 0)
(-0.026586 0.404334 0)
(-0.0285168 0.421683 0)
(-0.030626 0.43985 0)
(-0.0329357 0.458965 0)
(-0.0354711 0.479173 0)
(-0.0382606 0.500639 0)
(-0.0413352 0.523551 0)
(-0.044727 0.54812 0)
(-0.0484688 0.574581 0)
(-0.0525916 0.60319 0)
(-0.0571194 0.634228 0)
(-0.0620611 0.667996 0)
(-0.0674007 0.704803 0)
(-0.0730822 0.744953 0)
(-0.078977 0.788716 0)
(-0.0848656 0.836296 0)
(-0.0903032 0.887654 0)
(-0.0948207 0.94297 0)
(-0.0972902 1.0014 0)
(-0.0963875 1.06136 0)
(-0.0884904 1.11916 0)
(-0.0824312 1.17504 0)
(-0.0464142 1.04929 0)
(-1.22327e-06 0.00126095 0)
(-3.34226e-06 0.0027959 0)
(-6.91181e-06 0.00470877 0)
(-1.19859e-05 0.00696305 0)
(-1.86413e-05 0.00951326 0)
(-2.67639e-05 0.0123118 0)
(-3.66871e-05 0.0153108 0)
(-4.88738e-05 0.0184608 0)
(-6.38375e-05 0.0217102 0)
(-8.17359e-05 0.025007 0)
(-0.000102714 0.0283005 0)
(-0.00012678 0.0315433 0)
(-0.000153984 0.0346922 0)
(-0.000184281 0.037708 0)
(-0.000217835 0.0405549 0)
(-0.000254484 0.0432003 0)
(-0.000294127 0.0456145 0)
(-0.000336296 0.0477717 0)
(-0.000380653 0.0496498 0)
(-0.000426618 0.0512318 0)
(-0.000473682 0.0525051 0)
(-0.000521166 0.0534625 0)
(-0.000568999 0.0541012 0)
(-0.000616432 0.0544228 0)
(-0.000664302 0.0544349 0)
(-0.000708797 0.0541457 0)
(-0.000759062 0.0535751 0)
(-0.000797595 0.0527462 0)
(-0.000861721 0.051661 0)
(-0.000891279 0.0503797 0)
(-0.000894701 0.0488953 0)
(-0.00102442 0.0472741 0)
(-0.00090841 0.0455244 0)
(-0.00114539 0.0436976 0)
(-0.000938672 0.0418246 0)
(-0.00122458 0.039942 0)
(-0.00100583 0.0380991 0)
(-0.00125087 0.0363255 0)
(-0.00110584 0.0346751 0)
(-0.00123922 0.0331819 0)
(-0.0012214 0.0318941 0)
(-0.00121082 0.0308545 0)
(-0.0013515 0.0301009 0)
(-0.00115797 0.0296894 0)
(-0.00153277 0.0296207 0)
(-0.00105852 0.0300258 0)
(-0.00178666 0.03074 0)
(-0.000987009 0.0321794 0)
(-0.00204591 0.0337028 0)
(-0.00121185 0.0364566 0)
(-0.0022377 0.0385217 0)
(-0.0015587 0.0422397 0)
(-0.00141153 0.0462962 0)
(-0.00142245 0.0507821 0)
(-0.00143863 0.055756 0)
(-0.00144777 0.0612552 0)
(-0.00146396 0.0672745 0)
(-0.001488 0.0737905 0)
(-0.001518 0.0807852 0)
(-0.00155513 0.088246 0)
(-0.00160268 0.0961593 0)
(-0.00166317 0.10451 0)
(-0.00173847 0.113283 0)
(-0.00182843 0.122461 0)
(-0.00193299 0.132029 0)
(-0.00205119 0.14197 0)
(-0.00218189 0.152267 0)
(-0.00232143 0.16291 0)
(-0.00246924 0.173876 0)
(-0.00262617 0.185152 0)
(-0.00279155 0.196726 0)
(-0.00296544 0.208586 0)
(-0.00315012 0.220721 0)
(-0.00334766 0.233123 0)
(-0.00356101 0.245786 0)
(-0.00379512 0.258705 0)
(-0.0040671 0.271882 0)
(-0.00434337 0.285314 0)
(-0.00462613 0.29904 0)
(-0.0049563 0.313067 0)
(-0.00532048 0.327415 0)
(-0.00571289 0.342124 0)
(-0.00613832 0.357244 0)
(-0.00660017 0.372832 0)
(-0.00710166 0.388959 0)
(-0.00764615 0.405708 0)
(-0.00823911 0.423178 0)
(-0.00888653 0.441482 0)
(-0.00959608 0.460752 0)
(-0.0103763 0.481135 0)
(-0.0112371 0.502801 0)
(-0.0121886 0.525939 0)
(-0.0132421 0.55076 0)
(-0.0144089 0.577497 0)
(-0.0157004 0.606405 0)
(-0.0171255 0.637757 0)
(-0.0186894 0.671839 0)
(-0.0203895 0.708937 0)
(-0.0222091 0.749318 0)
(-0.024112 0.793198 0)
(-0.0260131 0.840695 0)
(-0.0277843 0.89169 0)
(-0.0292472 0.945918 0)
(-0.0300521 1.00255 0)
(-0.029421 1.05976 0)
(-0.0264002 1.11362 0)
(-0.0156592 1.16121 0)
(0.00292566 1.16704 0)
(3.91855e-07 -3.25503e-05 0)
(4.73442e-06 2.28731e-05 0)
(-5.76578e-06 1.65507e-05 0)
(-7.70554e-05 3.21514e-05 0)
(-0.000198983 6.77506e-05 0)
(-0.000396313 0.000110937 0)
(-0.000697069 0.000173032 0)
(-0.00111506 0.000247969 0)
(-0.00167732 0.000329478 0)
(-0.00240131 0.000419195 0)
(-0.0032875 0.000512871 0)
(-0.00432719 0.000607778 0)
(-0.00551135 0.000704108 0)
(-0.00683862 0.00081214 0)
(-0.00832032 0.000925712 0)
(-0.00995867 0.0010258 0)
(-0.0117601 0.00112906 0)
(-0.0137137 0.00121807 0)
(-0.0157771 0.00127477 0)
(-0.0178968 0.00130058 0)
(-0.0200412 0.00130031 0)
(-0.0221827 0.00125371 0)
(-0.0242994 0.00118512 0)
(-0.0263387 0.00105458 0)
(-0.0282565 0.000890433 0)
(-0.0300292 0.000714408 0)
(-0.0316194 0.000527463 0)
(-0.033058 0.000364848 0)
(-0.0341203 0.000209434 0)
(-0.0353674 2.26822e-05 0)
(-0.0357654 -0.000188056 0)
(-0.0362065 -0.00034196 0)
(-0.0365372 -0.000404659 0)
(-0.0367259 -0.000369639 0)
(-0.0369175 -0.000232284 0)
(-0.0371761 1.28135e-05 0)
(-0.0376472 0.00036035 0)
(-0.0383846 0.000801249 0)
(-0.0395434 0.00131878 0)
(-0.0411734 0.00187463 0)
(-0.0433692 0.00243117 0)
(-0.046153 0.00297034 0)
(-0.0495218 0.00347576 0)
(-0.0535192 0.00390858 0)
(-0.058005 0.00424654 0)
(-0.0630623 0.00450034 0)
(-0.0684628 0.00454383 0)
(-0.0741364 0.00443187 0)
(-0.0799359 0.00416698 0)
(-0.0857465 0.00379004 0)
(-0.0914856 0.00332065 0)
(-0.0969572 0.00282054 0)
(-0.102256 0.00230625 0)
(-0.107095 0.00182915 0)
(-0.111773 0.00140325 0)
(-0.115943 0.00106099 0)
(-0.11999 0.000822279 0)
(-0.12373 0.000617268 0)
(-0.127258 0.000568675 0)
(-0.130935 0.000574102 0)
(-0.134259 0.000714324 0)
(-0.138163 0.00104634 0)
(-0.142354 0.00149916 0)
(-0.146267 0.00164027 0)
(-0.152006 0.00288523 0)
(-0.156702 0.00341634 0)
(-0.16262 0.00354796 0)
(-0.168927 0.00408042 0)
(-0.175266 0.00344722 0)
(-0.181926 0.00334709 0)
(-0.188284 0.00310726 0)
(-0.194616 0.00310497 0)
(-0.201651 0.00345516 0)
(-0.20852 0.0041876 0)
(-0.21605 0.00436025 0)
(-0.224123 0.0045475 0)
(-0.232655 0.00477226 0)
(-0.241515 0.00507514 0)
(-0.250626 0.00536766 0)
(-0.260009 0.00571002 0)
(-0.269652 0.00593173 0)
(-0.279537 0.00608683 0)
(-0.289636 0.00618691 0)
(-0.299903 0.00624305 0)
(-0.310301 0.00626373 0)
(-0.32081 0.00626571 0)
(-0.331416 0.00626712 0)
(-0.342099 0.0062835 0)
(-0.352864 0.0063142 0)
(-0.363726 0.00635815 0)
(-0.374696 0.00642019 0)
(-0.385762 0.00649419 0)
(-0.396927 0.00657071 0)
(-0.408221 0.00666292 0)
(-0.419636 0.00672984 0)
(-0.431147 0.00681637 0)
(-0.442807 0.00699053 0)
(-0.454748 0.0072347 0)
(-0.467078 0.00749621 0)
(-0.479799 0.00772146 0)
(-0.492869 0.00791891 0)
(-0.506279 0.0081163 0)
(-0.520027 0.00833179 0)
(-0.534113 0.00858038 0)
(-0.548556 0.00886451 0)
(-0.563508 0.00918096 0)
(-0.578744 0.00956941 0)
(-0.594998 0.0100256 0)
(-0.611245 0.0106127 0)
(-0.629676 0.0112694 0)
(-0.647079 0.0120587 0)
(-0.668394 0.0128992 0)
(3.96964e-05 4.43874e-05 0)
(-3.85132e-05 -7.45899e-05 0)
(0.00011534 0.000114902 0)
(-2.39645e-05 0.000222624 0)
(-0.000146198 0.000273269 0)
(-0.000331381 0.000501665 0)
(-0.000606302 0.000615091 0)
(-0.000971183 0.000848642 0)
(-0.00145137 0.00111576 0)
(-0.00205913 0.00137965 0)
(-0.00280295 0.0016222 0)
(-0.00365423 0.00183921 0)
(-0.0046176 0.00203288 0)
(-0.00569516 0.00226883 0)
(-0.00692324 0.00253057 0)
(-0.00828371 0.00277861 0)
(-0.00979283 0.00300164 0)
(-0.0114757 0.00318789 0)
(-0.0132886 0.00331196 0)
(-0.0151788 0.00340014 0)
(-0.0171481 0.00348255 0)
(-0.0191784 0.00352481 0)
(-0.0212863 0.00350836 0)
(-0.0234288 0.00343127 0)
(-0.0255442 0.0032699 0)
(-0.0276471 0.00305625 0)
(-0.0297065 0.00277607 0)
(-0.0317555 0.00242027 0)
(-0.0337395 0.00208576 0)
(-0.0355823 0.00178322 0)
(-0.0373098 0.00147004 0)
(-0.0389832 0.00118926 0)
(-0.0406002 0.000968713 0)
(-0.0421512 0.000829412 0)
(-0.0436456 0.000793459 0)
(-0.0450975 0.000879635 0)
(-0.046524 0.00110033 0)
(-0.0479427 0.00146233 0)
(-0.0493885 0.00198743 0)
(-0.0508918 0.00263862 0)
(-0.0524596 0.00335987 0)
(-0.0541025 0.0041338 0)
(-0.0558576 0.00494614 0)
(-0.0577378 0.00576571 0)
(-0.0598186 0.00654877 0)
(-0.0619558 0.00728574 0)
(-0.06444 0.00791085 0)
(-0.0670154 0.00837313 0)
(-0.0698543 0.00874402 0)
(-0.072967 0.00897269 0)
(-0.0762111 0.00907252 0)
(-0.0798494 0.00902915 0)
(-0.0835192 0.00891266 0)
(-0.0876643 0.00869115 0)
(-0.0918024 0.00846825 0)
(-0.0963976 0.00820761 0)
(-0.101034 0.00800908 0)
(-0.106019 0.00783907 0)
(-0.111213 0.00775311 0)
(-0.116528 0.00776851 0)
(-0.122305 0.00781007 0)
(-0.127757 0.00806527 0)
(-0.134439 0.00826132 0)
(-0.140506 0.00878255 0)
(-0.147776 0.00923382 0)
(-0.1543 0.00984351 0)
(-0.160918 0.01051 0)
(-0.16913 0.0106387 0)
(-0.175152 0.0112714 0)
(-0.184193 0.01117 0)
(-0.194192 0.0115502 0)
(-0.203202 0.012451 0)
(-0.213045 0.0136651 0)
(-0.222406 0.0114129 0)
(-0.231899 0.0137779 0)
(-0.241995 0.0147625 0)
(-0.252239 0.015305 0)
(-0.262645 0.0156514 0)
(-0.273246 0.0159109 0)
(-0.283995 0.0161676 0)
(-0.294838 0.0164539 0)
(-0.305774 0.0167539 0)
(-0.316808 0.0170379 0)
(-0.327936 0.0172918 0)
(-0.339157 0.0175123 0)
(-0.350474 0.017707 0)
(-0.361885 0.0178877 0)
(-0.37338 0.0180649 0)
(-0.38496 0.0182384 0)
(-0.396622 0.0184028 0)
(-0.40836 0.0185736 0)
(-0.420158 0.0187409 0)
(-0.431977 0.0188948 0)
(-0.443875 0.0191121 0)
(-0.455827 0.0193414 0)
(-0.467734 0.0195625 0)
(-0.479505 0.0198901 0)
(-0.491766 0.0204202 0)
(-0.504317 0.0210963 0)
(-0.517099 0.0217472 0)
(-0.530023 0.0223238 0)
(-0.543068 0.0228598 0)
(-0.556252 0.0233978 0)
(-0.569597 0.0239784 0)
(-0.583143 0.0246304 0)
(-0.596953 0.0253738 0)
(-0.611078 0.026262 0)
(-0.625593 0.0273133 0)
(-0.640512 0.0285897 0)
(-0.656158 0.0300546 0)
(-0.671893 0.0318053 0)
(-0.689446 0.0338107 0)
(7.08211e-06 -5.94964e-05 0)
(4.88439e-05 -2.34016e-05 0)
(4.62378e-05 4.91423e-05 0)
(0.000124752 0.000189954 0)
(7.18364e-05 0.000347756 0)
(5.4007e-05 0.000604791 0)
(-0.000180363 0.000861032 0)
(-0.000393135 0.00120833 0)
(-0.000837769 0.00154851 0)
(-0.00123578 0.00196888 0)
(-0.00198802 0.00237495 0)
(-0.00242366 0.00277294 0)
(-0.00350988 0.00315771 0)
(-0.00452253 0.00353405 0)
(-0.00563456 0.00390058 0)
(-0.00689004 0.00416261 0)
(-0.00827013 0.00486583 0)
(-0.00977629 0.00525358 0)
(-0.0113563 0.00545457 0)
(-0.012955 0.0055451 0)
(-0.0146026 0.0057522 0)
(-0.0163225 0.00567893 0)
(-0.0181705 0.00589781 0)
(-0.0201209 0.0054925 0)
(-0.0221684 0.00553053 0)
(-0.0242637 0.00548139 0)
(-0.026447 0.00520238 0)
(-0.0286278 0.00529788 0)
(-0.0307131 0.00447934 0)
(-0.0328156 0.00394413 0)
(-0.034997 0.00358784 0)
(-0.0372198 0.00334502 0)
(-0.039432 0.00315581 0)
(-0.0416063 0.00303984 0)
(-0.0437297 0.00302068 0)
(-0.0457853 0.00311455 0)
(-0.0477524 0.00333149 0)
(-0.0495927 0.00367269 0)
(-0.0513313 0.00414274 0)
(-0.0530164 0.00474787 0)
(-0.0546014 0.00545745 0)
(-0.056038 0.00622644 0)
(-0.0573474 0.00702807 0)
(-0.0585642 0.00783337 0)
(-0.0597197 0.0086099 0)
(-0.0608413 0.00933467 0)
(-0.0619574 0.00997665 0)
(-0.0631081 0.0105079 0)
(-0.0643427 0.0109167 0)
(-0.065692 0.0111956 0)
(-0.0671835 0.0113647 0)
(-0.0688563 0.0114485 0)
(-0.0707456 0.0114764 0)
(-0.0728829 0.0114744 0)
(-0.0752841 0.0114766 0)
(-0.0779646 0.0115117 0)
(-0.0809346 0.0116064 0)
(-0.0842047 0.0117806 0)
(-0.0877804 0.0120408 0)
(-0.0916672 0.0124271 0)
(-0.0958322 0.0126453 0)
(-0.100323 0.0144054 0)
(-0.105099 0.0153944 0)
(-0.110133 0.0162808 0)
(-0.115567 0.0171396 0)
(-0.121037 0.0181521 0)
(-0.127591 0.018654 0)
(-0.133684 0.0198238 0)
(-0.141103 0.0203087 0)
(-0.147683 0.0207093 0)
(-0.154183 0.0219845 0)
(-0.162036 0.0223591 0)
(-0.169979 0.0237701 0)
(-0.178413 0.0247455 0)
(-0.187531 0.0255753 0)
(-0.196799 0.026367 0)
(-0.206082 0.027118 0)
(-0.21557 0.0278151 0)
(-0.2254 0.0284591 0)
(-0.235555 0.0290551 0)
(-0.245972 0.0295941 0)
(-0.256618 0.0300674 0)
(-0.267482 0.0304739 0)
(-0.278549 0.0308183 0)
(-0.289806 0.0311088 0)
(-0.301243 0.0313622 0)
(-0.312846 0.0315907 0)
(-0.324586 0.03181 0)
(-0.336468 0.0320215 0)
(-0.348441 0.0322122 0)
(-0.360524 0.0324486 0)
(-0.372735 0.0325637 0)
(-0.384748 0.0327098 0)
(-0.397064 0.0328585 0)
(-0.40913 0.0327839 0)
(-0.420909 0.0329504 0)
(-0.432307 0.033555 0)
(-0.444434 0.0343098 0)
(-0.456043 0.0349536 0)
(-0.467802 0.0355001 0)
(-0.479656 0.0360351 0)
(-0.49152 0.0365874 0)
(-0.50337 0.0371734 0)
(-0.515196 0.03783 0)
(-0.526999 0.0385978 0)
(-0.538798 0.0395148 0)
(-0.550609 0.0406254 0)
(-0.562449 0.0419643 0)
(-0.574355 0.0435799 0)
(-0.586387 0.0454838 0)
(-0.598628 0.0477768 0)
(-0.611129 0.050482 0)
(7.82038e-06 -4.43845e-05 0)
(2.30441e-05 -9.08216e-05 0)
(8.06184e-05 2.75017e-05 0)
(9.46476e-05 0.000198484 0)
(8.07551e-05 0.000445611 0)
(1.32666e-05 0.000759984 0)
(-0.000131426 0.00112579 0)
(-0.00031914 0.00156666 0)
(-0.000672581 0.00199987 0)
(-0.00102616 0.00264359 0)
(-0.00151618 0.00283117 0)
(-0.00210173 0.00341327 0)
(-0.00297703 0.00397207 0)
(-0.00381495 0.00456818 0)
(-0.00477178 0.00518958 0)
(-0.00588666 0.00571741 0)
(-0.0071899 0.00622744 0)
(-0.00834709 0.0066715 0)
(-0.00935777 0.0070559 0)
(-0.0115587 0.0073146 0)
(-0.0132471 0.00762059 0)
(-0.014986 0.00758511 0)
(-0.0168311 0.00813363 0)
(-0.0188653 0.00811153 0)
(-0.0206836 0.00795957 0)
(-0.0236394 0.00768305 0)
(-0.0242424 0.00754182 0)
(-0.0271111 0.00724759 0)
(-0.0298068 0.00699961 0)
(-0.0322512 0.006715 0)
(-0.0347975 0.00639692 0)
(-0.0373827 0.00607537 0)
(-0.0399034 0.00578552 0)
(-0.0423399 0.00556076 0)
(-0.0446952 0.00542078 0)
(-0.0469314 0.00536706 0)
(-0.0490547 0.00541896 0)
(-0.0510229 0.00553954 0)
(-0.0529106 0.00617888 0)
(-0.0545022 0.0066748 0)
(-0.0559559 0.00699562 0)
(-0.0572481 0.00752131 0)
(-0.0583704 0.00812519 0)
(-0.059349 0.00876691 0)
(-0.0601904 0.00941147 0)
(-0.0609257 0.0100427 0)
(-0.0615817 0.0106299 0)
(-0.0622077 0.0111749 0)
(-0.0628553 0.0116608 0)
(-0.0635231 0.0120546 0)
(-0.0642439 0.0123988 0)
(-0.0650826 0.0127336 0)
(-0.0660909 0.0130675 0)
(-0.067296 0.0134116 0)
(-0.0687177 0.0137837 0)
(-0.0703764 0.0142097 0)
(-0.072292 0.0147095 0)
(-0.0744778 0.0152969 0)
(-0.0769467 0.0159719 0)
(-0.0797016 0.0167369 0)
(-0.0828029 0.0175889 0)
(-0.0861862 0.0185706 0)
(-0.0897001 0.0196573 0)
(-0.0934158 0.0208184 0)
(-0.0974426 0.0220042 0)
(-0.101777 0.023211 0)
(-0.106424 0.0244832 0)
(-0.1114 0.0257692 0)
(-0.116643 0.0270556 0)
(-0.122236 0.0285822 0)
(-0.127936 0.0296755 0)
(-0.134067 0.0307408 0)
(-0.140673 0.0319333 0)
(-0.147623 0.033001 0)
(-0.154881 0.0341528 0)
(-0.162357 0.0353881 0)
(-0.170085 0.0365697 0)
(-0.17816 0.0376266 0)
(-0.18661 0.0385787 0)
(-0.195406 0.0394616 0)
(-0.204524 0.0402861 0)
(-0.213961 0.0410511 0)
(-0.22372 0.0417564 0)
(-0.233798 0.0424061 0)
(-0.244184 0.0430012 0)
(-0.254874 0.0435571 0)
(-0.265843 0.0440628 0)
(-0.277082 0.0445546 0)
(-0.288587 0.0450151 0)
(-0.300243 0.0453603 0)
(-0.312313 0.0459801 0)
(-0.324313 0.0459598 0)
(-0.336498 0.0463547 0)
(-0.349282 0.0467826 0)
(-0.360679 0.0456829 0)
(-0.372539 0.0451729 0)
(-0.385449 0.0460133 0)
(-0.399024 0.047377 0)
(-0.412549 0.0484291 0)
(-0.425698 0.0491081 0)
(-0.43853 0.0496114 0)
(-0.451136 0.0500447 0)
(-0.463511 0.050464 0)
(-0.475625 0.0509346 0)
(-0.487472 0.0515133 0)
(-0.499059 0.0522434 0)
(-0.510386 0.0531703 0)
(-0.52146 0.0543445 0)
(-0.532304 0.0558233 0)
(-0.542965 0.0576682 0)
(-0.553493 0.0599615 0)
(-0.564002 0.0627675 0)
(6.55169e-06 -9.36392e-05 0)
(4.08922e-05 -9.80745e-05 0)
(6.10069e-05 -2.84397e-05 0)
(0.000112444 0.000213379 0)
(5.71922e-05 0.000461796 0)
(2.19076e-05 0.000864409 0)
(-0.000145434 0.00128842 0)
(-0.000333005 0.00182648 0)
(-0.000648801 0.00239481 0)
(-0.00104313 0.00301526 0)
(-0.00150158 0.00368482 0)
(-0.00218012 0.00435401 0)
(-0.00287233 0.00508868 0)
(-0.00379096 0.00573088 0)
(-0.0047081 0.00638821 0)
(-0.0059001 0.00695114 0)
(-0.00703893 0.00755987 0)
(-0.0084644 0.00805266 0)
(-0.00979337 0.0086184 0)
(-0.011318 0.00913815 0)
(-0.0128287 0.00956189 0)
(-0.0145665 0.00980072 0)
(-0.0164569 0.00999959 0)
(-0.018361 0.0101371 0)
(-0.0203012 0.0102152 0)
(-0.0223955 0.0101313 0)
(-0.0247064 0.00995092 0)
(-0.0269706 0.00994335 0)
(-0.0291814 0.00987852 0)
(-0.0314363 0.00965493 0)
(-0.0338034 0.00934701 0)
(-0.0362454 0.00902978 0)
(-0.0386895 0.00873011 0)
(-0.0411613 0.00846617 0)
(-0.0435346 0.00824155 0)
(-0.0459176 0.00809116 0)
(-0.0482208 0.0080184 0)
(-0.0503752 0.0080206 0)
(-0.0525021 0.00813683 0)
(-0.0542609 0.00829114 0)
(-0.0559769 0.00858123 0)
(-0.0574075 0.00891081 0)
(-0.058814 0.00937037 0)
(-0.0598922 0.009797 0)
(-0.0608879 0.010297 0)
(-0.0617234 0.0108132 0)
(-0.0623611 0.0112951 0)
(-0.0630936 0.0118477 0)
(-0.0633678 0.0122793 0)
(-0.0639953 0.0127367 0)
(-0.0646559 0.0131923 0)
(-0.0653332 0.0136497 0)
(-0.066118 0.0141199 0)
(-0.0670515 0.0146197 0)
(-0.0681394 0.0151681 0)
(-0.0694009 0.0157826 0)
(-0.070861 0.0164824 0)
(-0.0725475 0.0172976 0)
(-0.0744643 0.018215 0)
(-0.0765903 0.0192106 0)
(-0.0789073 0.0203059 0)
(-0.0814044 0.0216073 0)
(-0.0841 0.023105 0)
(-0.0870383 0.0246684 0)
(-0.0902542 0.0262689 0)
(-0.0937165 0.0278781 0)
(-0.0974801 0.0295213 0)
(-0.101533 0.0311574 0)
(-0.105885 0.0327938 0)
(-0.11057 0.0343499 0)
(-0.11535 0.0356508 0)
(-0.120427 0.0369882 0)
(-0.12598 0.0385395 0)
(-0.131959 0.0401676 0)
(-0.138297 0.0418043 0)
(-0.14498 0.0434052 0)
(-0.152022 0.0449293 0)
(-0.15945 0.0463724 0)
(-0.167282 0.0477535 0)
(-0.17552 0.049081 0)
(-0.184159 0.0503492 0)
(-0.193193 0.0515503 0)
(-0.202616 0.0526801 0)
(-0.212423 0.0537371 0)
(-0.222578 0.0547216 0)
(-0.233145 0.0556357 0)
(-0.243889 0.0564853 0)
(-0.255276 0.0572742 0)
(-0.26644 0.0580052 0)
(-0.278158 0.0586894 0)
(-0.291489 0.0593132 0)
(-0.299149 0.0598966 0)
(-0.320774 0.0604631 0)
(-0.321464 0.0609277 0)
(-0.345985 0.0613905 0)
(-0.360861 0.0620672 0)
(-0.374168 0.0628052 0)
(-0.38778 0.0633255 0)
(-0.401122 0.0635892 0)
(-0.413741 0.0637374 0)
(-0.425878 0.0638617 0)
(-0.437839 0.0639798 0)
(-0.449653 0.0641076 0)
(-0.461236 0.0642774 0)
(-0.472542 0.064529 0)
(-0.483551 0.0649101 0)
(-0.49424 0.0654801 0)
(-0.504593 0.0663081 0)
(-0.514614 0.0674724 0)
(-0.524329 0.06906 0)
(-0.533793 0.0711688 0)
(-0.543056 0.0738944 0)
(5.42555e-06 -0.000109297 0)
(3.33079e-05 -0.000143822 0)
(6.59008e-05 -4.94299e-05 0)
(9.58875e-05 0.000193753 0)
(7.33836e-05 0.000521499 0)
(1.5812e-05 0.000969478 0)
(-0.000120079 0.00149559 0)
(-0.000321771 0.00211394 0)
(-0.000621694 0.0027873 0)
(-0.00101646 0.00351668 0)
(-0.00150905 0.00427758 0)
(-0.00216074 0.00504952 0)
(-0.0028873 0.00586299 0)
(-0.00377653 0.00665021 0)
(-0.00471709 0.00745849 0)
(-0.00583863 0.00822102 0)
(-0.00701973 0.00897719 0)
(-0.00837899 0.00966601 0)
(-0.00980019 0.0103258 0)
(-0.0113661 0.0109045 0)
(-0.0129934 0.0113901 0)
(-0.0147347 0.0117692 0)
(-0.0165826 0.0120898 0)
(-0.0184713 0.0123304 0)
(-0.0204878 0.0124668 0)
(-0.0225528 0.0125078 0)
(-0.0247027 0.0124958 0)
(-0.0269132 0.012466 0)
(-0.0291479 0.0123541 0)
(-0.0313986 0.0121382 0)
(-0.0336792 0.0118663 0)
(-0.0359872 0.0115814 0)
(-0.0383009 0.0113019 0)
(-0.0406008 0.0110326 0)
(-0.0428708 0.0107861 0)
(-0.0450943 0.0105829 0)
(-0.0472496 0.0104299 0)
(-0.0493172 0.0103415 0)
(-0.0512669 0.0103354 0)
(-0.0530768 0.0103944 0)