/*--------------------------------*- C++ -*----------------------------------*\
| =========                 |                                                 |
| \\      /  F ield         | OpenFOAM: The Open Source CFD Toolbox           |
|  \\    /   O peration     | Version:  2206                                  |
|   \\  /    A nd           | Website:  www.openfoam.com                      |
|    \\/     M anipulation  |                                                 |
\*---------------------------------------------------------------------------*/
FoamFile
{
    version     2.0;
    format      ascii;
    arch        "LSB;label=32;scalar=64";
    class       volVectorField;
    location    "18.6999";
    object      ddt0(U);
}
// * * * * * * * * * * * * * * * * * * * * * * * * * * * * * * * * * * * * * //

dimensions      [0 1 -2 0 0 0 0];

internalField   nonuniform List<vector> 
1815
(
(25.2385 -4.53747 0)
(23.9711 -7.05842 0)
(22.0818 -9.53348 0)
(19.6533 -11.9514 0)
(16.7352 -14.2984 0)
(13.378 -16.5087 0)
(9.64856 -18.4094 0)
(5.65085 -19.7531 0)
(1.56037 -20.3125 0)
(-2.42471 -19.9806 0)
(-6.15458 -18.7564 0)
(-9.49819 -16.7059 0)
(-12.3485 -13.9557 0)
(-14.6576 -10.6789 0)
(-16.4316 -7.07813 0)
(-17.6794 -3.37141 0)
(-18.438 0.270842 0)
(-18.8289 3.82408 0)
(-18.7523 7.21253 0)
(-18.0959 10.2224 0)
(-16.777 12.6635 0)
(-14.8384 14.4874 0)
(-12.3874 15.7465 0)
(-9.5106 16.4296 0)
(-6.36009 16.5012 0)
(-3.06944 15.9727 0)
(0.310031 14.9178 0)
(3.74594 13.3845 0)
(7.0708 11.3716 0)
(10.0151 8.99053 0)
(12.4895 6.53944 0)
(14.3806 4.13408 0)
(15.6386 1.83274 0)
(16.242 -0.340213 0)
(16.1829 -2.36737 0)
(15.6036 -4.2579 0)
(14.5416 -6.00779 0)
(13.0653 -7.61346 0)
(11.2351 -9.09509 0)
(9.09175 -10.4576 0)
(6.68742 -11.624 0)
(4.08688 -12.4242 0)
(1.43888 -12.6684 0)
(-1.13301 -12.3423 0)
(-3.57329 -11.4663 0)
(-5.793 -10.0798 0)
(-7.71117 -8.25609 0)
(-9.26722 -6.12084 0)
(-10.4926 -3.86118 0)
(-11.418 -1.56726 0)
(-12.0659 0.757204 0)
(-12.4229 3.08724 0)
(-12.444 5.30292 0)
(-12.0794 7.24291 0)
(-11.1981 8.71851 0)
(-9.90222 9.74376 0)
(-8.24192 10.332 0)
(-6.30946 10.4935 0)
(-4.21462 10.2554 0)
(-2.0739 9.67018 0)
(0.0411714 8.80522 0)
(2.17583 7.69413 0)
(4.29641 6.24783 0)
(6.17777 4.5379 0)
(7.80988 2.8624 0)
(9.10697 1.25273 0)
(10.0325 -0.307031 0)
(10.5839 -1.80556 0)
(10.7429 -3.20818 0)
(10.4828 -4.46399 0)
(9.813 -5.53823 0)
(8.84995 -6.48006 0)
(7.62296 -7.29093 0)
(6.17234 -7.96063 0)
(4.56166 -8.44925 0)
(2.86172 -8.68682 0)
(1.14482 -8.62244 0)
(-0.526862 -8.24212 0)
(-2.11136 -7.55618 0)
(-3.56887 -6.58595 0)
(-4.85663 -5.36468 0)
(-5.93376 -3.94552 0)
(-6.76238 -2.42802 0)
(-7.39356 -0.914408 0)
(-7.83191 0.597924 0)
(-8.05944 2.1056 0)
(-8.04636 3.54042 0)
(-7.77075 4.82012 0)
(-7.22334 5.88833 0)
(-6.39148 6.68781 0)
(-5.3493 7.24878 0)
(-4.13608 7.55471 0)
(-2.82113 7.5867 0)
(-1.46894 7.34973 0)
(-0.121124 6.87325 0)
(1.20715 6.1959 0)
(2.4983 5.34395 0)
(3.70677 4.33336 0)
(4.75573 3.18975 0)
(5.59982 1.9983 0)
(6.24493 0.848305 0)
(6.67216 -0.232474 0)
(6.87302 -1.23693 0)
(6.81748 -2.14978 0)
(6.51465 -2.94519 0)
(5.99974 -3.60322 0)
(5.29732 -4.11181 0)
(4.43863 -4.46148 0)
(3.46163 -4.64219 0)
(2.42091 -4.65969 0)
(1.38273 -4.51547 0)
(0.404451 -4.20248 0)
(-0.502462 -3.74498 0)
(-1.37446 -3.1537 0)
(-2.18189 -2.38432 0)
(-2.87925 -1.52363 0)
(-3.47631 -0.656401 0)
(-3.9749 0.224474 0)
(-4.31275 1.17226 0)
(-4.62047 1.98845 0)
(-4.50306 3.12437 0)
(23.7051 -3.45105 0)
(22.4934 -5.45038 0)
(20.8037 -7.45081 0)
(18.662 -9.41858 0)
(16.0807 -11.3099 0)
(13.0613 -13.0601 0)
(9.62494 -14.5697 0)
(5.83448 -15.6709 0)
(1.82121 -16.1646 0)
(-2.27462 -15.9382 0)
(-6.2907 -14.9316 0)
(-10.0547 -13.2345 0)
(-13.4157 -10.9359 0)
(-16.2626 -8.17601 0)
(-18.5306 -5.13522 0)
(-20.1925 -1.98175 0)
(-21.2212 1.15674 0)
(-21.5644 4.15235 0)
(-21.0099 6.8027 0)
(-19.6607 8.97967 0)
(-17.5667 10.6467 0)
(-14.8491 11.8464 0)
(-11.6594 12.6037 0)
(-8.16196 12.9112 0)
(-4.46612 12.7771 0)
(-0.591609 12.1876 0)
(3.31966 11.024 0)
(6.95815 9.46731 0)
(10.1708 7.82251 0)
(12.7932 6.14405 0)
(14.7409 4.45301 0)
(16.0237 2.78561 0)
(16.6454 1.18477 0)
(16.6691 -0.328282 0)
(16.2403 -1.78637 0)
(15.3965 -3.21674 0)
(14.1845 -4.59124 0)
(12.647 -5.87322 0)
(10.8152 -7.04858 0)
(8.71537 -8.12319 0)
(6.37211 -9.06803 0)
(3.85701 -9.7507 0)
(1.21565 -9.97919 0)
(-1.49932 -9.65827 0)
(-4.15439 -8.88873 0)
(-6.63938 -7.72543 0)
(-8.86424 -6.23362 0)
(-10.7615 -4.49026 0)
(-12.2961 -2.57035 0)
(-13.4575 -0.545117 0)
(-14.2244 1.50083 0)
(-14.5224 3.44698 0)
(-14.172 5.12038 0)
(-13.2404 6.43979 0)
(-11.8019 7.39008 0)
(-9.92988 7.96936 0)
(-7.73531 8.19248 0)
(-5.37161 8.10518 0)
(-2.96522 7.77206 0)
(-0.537015 7.23461 0)
(1.96827 6.40377 0)
(4.3241 5.15638 0)
(6.44145 3.86609 0)
(8.21214 2.60727 0)
(9.56507 1.37527 0)
(10.5042 0.182825 0)
(11.0513 -0.947786 0)
(11.217 -1.99559 0)
(10.9477 -2.92288 0)
(10.3757 -3.7645 0)
(9.52816 -4.53394 0)
(8.44224 -5.23106 0)
(7.14751 -5.8396 0)
(5.67656 -6.34136 0)
(4.07054 -6.70847 0)
(2.36717 -6.89268 0)
(0.604628 -6.84699 0)
(-1.17855 -6.53078 0)
(-2.90005 -5.90516 0)
(-4.50182 -5.04584 0)
(-5.93038 -4.00157 0)
(-7.14268 -2.82636 0)
(-8.11109 -1.56667 0)
(-8.82401 -0.259027 0)
(-9.26765 1.04793 0)
(-9.40695 2.29362 0)
(-9.16616 3.39882 0)
(-8.57104 4.31763 0)
(-7.6755 5.04627 0)
(-6.52343 5.58976 0)
(-5.17471 5.94407 0)
(-3.69258 6.09202 0)
(-2.13142 6.03465 0)
(-0.515753 5.78491 0)
(1.13039 5.3334 0)
(2.70629 4.646 0)
(4.12473 3.82281 0)
(5.34697 2.95449 0)
(6.32485 2.07185 0)
(7.02919 1.19393 0)
(7.45504 0.346461 0)
(7.57808 -0.445344 0)
(7.44916 -1.16176 0)
(7.10384 -1.80268 0)
(6.56117 -2.3689 0)
(5.84489 -2.84324 0)
(4.98317 -3.19962 0)
(4.00572 -3.42369 0)
(2.948 -3.52218 0)
(1.8608 -3.52331 0)
(0.796099 -3.43157 0)
(-0.257763 -3.20955 0)
(-1.31693 -2.77343 0)
(-2.29641 -2.17146 0)
(-3.1805 -1.50987 0)
(-3.93374 -0.795786 0)
(-4.53003 -0.0365301 0)
(-4.98924 0.739785 0)
(-5.17327 1.51185 0)
(-5.31953 2.14327 0)
(-4.77694 2.92842 0)
(19.597 -2.56546 0)
(18.6237 -4.10125 0)
(17.2313 -5.63892 0)
(15.4125 -7.15025 0)
(13.1659 -8.5921 0)
(10.4967 -9.90765 0)
(7.42155 -11.014 0)
(3.98945 -11.7874 0)
(0.270144 -12.0644 0)
(-3.57816 -11.6994 0)
(-7.36421 -10.8093 0)
(-10.9025 -9.41571 0)
(-14.0262 -7.57722 0)
(-16.5975 -5.39939 0)
(-18.5138 -3.02734 0)
(-19.6991 -0.632714 0)
(-19.9985 1.62911 0)
(-19.4465 3.63307 0)
(-18.1094 5.32914 0)
(-16.0683 6.69024 0)
(-13.4678 7.70596 0)
(-10.4886 8.41992 0)
(-7.2874 8.88345 0)
(-3.91561 9.07062 0)
(-0.398673 8.81016 0)
(3.00641 8.0623 0)
(6.10574 7.21154 0)
(8.76576 6.3128 0)
(10.8878 5.35612 0)
(12.4658 4.34118 0)
(13.5333 3.28828 0)
(14.1054 2.2181 0)
(14.2376 1.14605 0)
(14.0319 0.0611617 0)
(13.5024 -1.04404 0)
(12.6714 -2.14332 0)
(11.5545 -3.20346 0)
(10.1661 -4.19541 0)
(8.52132 -5.10121 0)
(6.63994 -5.92259 0)
(4.53903 -6.64671 0)
(2.21636 -7.13893 0)
(-0.292696 -7.17921 0)
(-2.84851 -6.84286 0)
(-5.32726 -6.18804 0)
(-7.61602 -5.23173 0)
(-9.62239 -4.01901 0)
(-11.2663 -2.61655 0)
(-12.483 -1.1072 0)
(-13.2189 0.40672 0)
(-13.3495 1.81159 0)
(-12.8726 3.02484 0)
(-11.8936 4.02728 0)
(-10.4653 4.79818 0)
(-8.68707 5.31315 0)
(-6.67596 5.5866 0)
(-4.56607 5.66288 0)
(-2.43883 5.58038 0)
(-0.276476 5.31824 0)
(1.87949 4.69532 0)
(3.85358 3.87508 0)
(5.58074 3.05839 0)
(6.97433 2.22638 0)
(8.02532 1.37586 0)
(8.75186 0.536478 0)
(9.17356 -0.270824 0)
(9.29989 -1.02976 0)
(9.12659 -1.72245 0)
(8.7328 -2.3749 0)
(8.12393 -2.98879 0)
(7.3183 -3.54924 0)
(6.33293 -4.04492 0)
(5.17991 -4.46895 0)
(3.8809 -4.81297 0)
(2.44859 -5.05441 0)
(0.894456 -5.14625 0)
(-0.742252 -5.00953 0)
(-2.37882 -4.65625 0)
(-3.94545 -4.13795 0)
(-5.36684 -3.45692 0)
(-6.58551 -2.63502 0)
(-7.5571 -1.70869 0)
(-8.2483 -0.726272 0)
(-8.63196 0.252866 0)
(-8.64401 1.17116 0)
(-8.31921 1.9927 0)
(-7.69246 2.70437 0)
(-6.79801 3.29972 0)
(-5.68691 3.77113 0)
(-4.41648 4.11815 0)
(-3.03779 4.34552 0)
(-1.58648 4.43708 0)
(-0.0911934 4.35145 0)
(1.37419 4.03692 0)
(2.73506 3.61493 0)
(3.94594 3.13784 0)
(4.94524 2.61673 0)
(5.70651 2.05595 0)
(6.23288 1.46604 0)
(6.52007 0.868044 0)
(6.57111 0.289816 0)
(6.43651 -0.253343 0)
(6.12707 -0.765614 0)
(5.66055 -1.2375 0)
(5.05305 -1.65117 0)
(4.32281 -1.98862 0)
(3.49395 -2.23447 0)
(2.59497 -2.38094 0)
(1.6562 -2.43568 0)
(0.704208 -2.43323 0)
(-0.290841 -2.36229 0)
(-1.2774 -2.05218 0)
(-2.19799 -1.65482 0)
(-2.99689 -1.20086 0)
(-3.61514 -0.695013 0)
(-4.07223 -0.15838 0)
(-4.36573 0.395648 0)
(-4.46219 0.907398 0)
(-4.26589 1.38664 0)
(-4.13377 1.80838 0)
(-3.24602 2.31036 0)
(13.586 -1.87533 0)
(12.8748 -3.0203 0)
(11.8306 -4.15496 0)
(10.4451 -5.25349 0)
(8.71674 -6.28078 0)
(6.65092 -7.19172 0)
(4.265 -7.91733 0)
(1.59478 -8.36672 0)
(-1.30609 -8.42117 0)
(-4.25094 -8.08375 0)
(-7.06738 -7.40776 0)
(-9.59795 -6.40024 0)
(-11.6985 -5.11264 0)
(-13.2527 -3.62924 0)
(-14.1603 -2.0568 0)
(-14.353 -0.514195 0)
(-13.9421 0.909685 0)
(-12.9679 2.19352 0)
(-11.5179 3.30238 0)
(-9.70195 4.21114 0)
(-7.63804 4.93403 0)
(-5.42063 5.50661 0)
(-3.08523 5.89892 0)
(-0.685754 5.94289 0)
(1.59656 5.74941 0)
(3.65248 5.47488 0)
(5.40318 5.09644 0)
(6.83909 4.61618 0)
(7.99065 4.05973 0)
(8.86892 3.44357 0)
(9.46952 2.77578 0)
(9.7676 2.04443 0)
(9.84173 1.26499 0)
(9.68553 0.44505 0)
(9.29874 -0.391617 0)
(8.68246 -1.22245 0)
(7.84039 -2.02321 0)
(6.78219 -2.76863 0)
(5.52097 -3.43688 0)
(4.07412 -4.02477 0)
(2.43655 -4.53048 0)
(0.577283 -4.80417 0)
(-1.35417 -4.75507 0)
(-3.24549 -4.49648 0)
(-5.01126 -4.02068 0)
(-6.56083 -3.34983 0)
(-7.81482 -2.52309 0)
(-8.71009 -1.5926 0)
(-9.21055 -0.620826 0)
(-9.24258 0.316746 0)
(-8.91319 1.18133 0)
(-8.24678 1.96376 0)
(-7.29189 2.63342 0)
(-6.11428 3.15626 0)
(-4.78627 3.5242 0)
(-3.37969 3.74939 0)
(-1.94314 3.83447 0)
(-0.478628 3.75913 0)
(0.972634 3.438 0)
(2.30532 3.00217 0)
(3.46572 2.52516 0)
(4.41687 1.97961 0)
(5.16062 1.39263 0)
(5.70296 0.794851 0)
(6.04669 0.204288 0)
(6.20045 -0.36579 0)
(6.1617 -0.900077 0)
(5.96498 -1.40384 0)
(5.62229 -1.87908 0)
(5.1361 -2.31665 0)
(4.51192 -2.70421 0)
(3.74968 -3.04121 0)
(2.87025 -3.3249 0)
(1.87677 -3.54322 0)
(0.774101 -3.66766 0)
(-0.40434 -3.64368 0)
(-1.59533 -3.49586 0)
(-2.74173 -3.23662 0)
(-3.78843 -2.85489 0)
(-4.68943 -2.36287 0)
(-5.40332 -1.78445 0)
(-5.89901 -1.14855 0)
(-6.14672 -0.490842 0)
(-6.13285 0.14932 0)
(-5.90191 0.755274 0)
(-5.4663 1.32131 0)
(-4.85405 1.82805 0)
(-4.09905 2.25967 0)
(-3.23397 2.61186 0)
(-2.28681 2.88292 0)
(-1.28163 3.06022 0)
(-0.25093 3.11076 0)
(0.748455 3.03053 0)
(1.66922 2.88217 0)
(2.476 2.6631 0)
(3.14922 2.37519 0)
(3.69412 2.03055 0)
(4.10397 1.6515 0)
(4.36788 1.25189 0)
(4.47597 0.836973 0)
(4.45934 0.42502 0)
(4.31828 0.0232482 0)
(4.06112 -0.356079 0)
(3.69704 -0.700893 0)
(3.23674 -1.00065 0)
(2.69596 -1.24786 0)
(2.09366 -1.43331 0)
(1.4516 -1.54659 0)
(0.792457 -1.57871 0)
(0.146799 -1.53415 0)
(-0.502977 -1.46911 0)
(-1.15616 -1.25169 0)
(-1.6899 -0.963676 0)
(-2.10743 -0.762754 0)
(-2.40345 -0.449682 0)
(-2.57494 -0.00496388 0)
(-2.61014 0.356092 0)
(-2.53257 0.694962 0)
(-2.29914 1.06939 0)
(-2.09713 1.35396 0)
(-1.38552 1.69207 0)
(8.45016 -1.4099 0)
(7.96837 -2.27956 0)
(7.25886 -3.13125 0)
(6.31918 -3.94924 0)
(5.15197 -4.70482 0)
(3.77009 -5.34968 0)
(2.19389 -5.82753 0)
(0.444222 -6.0873 0)
(-1.39716 -6.08606 0)
(-3.19778 -5.84501 0)
(-4.86097 -5.38855 0)
(-6.30216 -4.7267 0)
(-7.44294 -3.88947 0)
(-8.21888 -2.92139 0)
(-8.59266 -1.88024 0)
(-8.60753 -0.832331 0)
(-8.28217 0.187933 0)
(-7.66082 1.13826 0)
(-6.79792 1.98623 0)
(-5.75069 2.71351 0)
(-4.57152 3.30908 0)
(-3.29979 3.76944 0)
(-1.95868 4.09716 0)
(-0.598508 4.25594 0)
(0.670794 4.27381 0)
(1.81374 4.17422 0)
(2.82614 3.96719 0)
(3.70244 3.67009 0)
(4.43854 3.29873 0)
(5.03286 2.86758 0)
(5.50121 2.38691 0)
(5.83258 1.84695 0)
(6.00113 1.25144 0)
(6.01394 0.627039 0)
(5.86156 -0.0103667 0)
(5.54053 -0.643304 0)
(5.05283 -1.25507 0)
(4.40511 -1.8258 0)
(3.60893 -2.33017 0)
(2.67848 -2.74962 0)
(1.62196 -3.08367 0)
(0.438556 -3.28594 0)
(-0.764693 -3.26996 0)
(-1.90118 -3.11153 0)
(-2.94346 -2.80664 0)
(-3.83871 -2.36763 0)
(-4.54006 -1.81908 0)
(-5.01798 -1.19539 0)
(-5.26034 -0.536453 0)
(-5.25563 0.126712 0)
(-5.0511 0.767011 0)
(-4.65365 1.34712 0)
(-4.08999 1.84009 0)
(-3.39293 2.22872 0)
(-2.59781 2.50646 0)
(-1.7434 2.66856 0)
(-0.846431 2.71059 0)
(0.0670942 2.61488 0)
(0.931542 2.39959 0)
(1.70957 2.11097 0)
(2.37654 1.75108 0)
(2.92509 1.34604 0)
(3.34863 0.917937 0)
(3.6426 0.480304 0)
(3.80897 0.0448581 0)
(3.85324 -0.376862 0)
(3.78199 -0.778114 0)
(3.61513 -1.16216 0)
(3.35106 -1.52045 0)
(2.99154 -1.84174 0)
(2.53094 -2.12348 0)
(1.98895 -2.3649 0)
(1.37181 -2.55658 0)
(0.68849 -2.67749 0)
(-0.040722 -2.72874 0)
(-0.789426 -2.71309 0)
(-1.52403 -2.61461 0)
(-2.21474 -2.42638 0)
(-2.83456 -2.154 0)
(-3.35619 -1.80738 0)
(-3.75625 -1.40006 0)
(-4.0215 -0.949892 0)
(-4.13443 -0.47542 0)
(-4.1162 0.00273462 0)
(-3.96921 0.469652 0)
(-3.70266 0.908178 0)
(-3.33079 1.30292 0)
(-2.87024 1.64223 0)
(-2.33851 1.91814 0)
(-1.75185 2.12736 0)
(-1.12449 2.27199 0)
(-0.474138 2.35133 0)
(0.168951 2.35186 0)
(0.769558 2.25931 0)
(1.30991 2.10402 0)
(1.77944 1.89661 0)
(2.17015 1.64898 0)
(2.48227 1.37448 0)
(2.71867 1.08272 0)
(2.86636 0.776613 0)
(2.9177 0.461952 0)
(2.88531 0.155963 0)
(2.77122 -0.132833 0)
(2.58109 -0.396715 0)
(2.3242 -0.628198 0)
(2.0091 -0.82049 0)
(1.64722 -0.965288 0)
(1.25313 -1.05844 0)
(0.841076 -1.09804 0)
(0.429958 -1.07741 0)
(0.0290335 -0.995325 0)
(-0.331731 -0.854487 0)
(-0.620685 -0.701794 0)
(-0.86623 -0.462233 0)
(-1.08736 -0.212902 0)
(-1.20831 0.0555633 0)
(-1.22726 0.332349 0)
(-1.18901 0.596031 0)
(-1.02685 0.876248 0)
(-0.90929 1.07068 0)
(-0.435426 1.32136 0)
(5.94167 -1.12262 0)
(5.56996 -1.81313 0)
(5.03741 -2.48104 0)
(4.34552 -3.11163 0)
(3.50141 -3.68765 0)
(2.51556 -4.1777 0)
(1.40603 -4.52706 0)
(0.192522 -4.68174 0)
(-1.0353 -4.68839 0)
(-2.21205 -4.53377 0)
(-3.30068 -4.21389 0)
(-4.25854 -3.74004 0)
(-5.04471 -3.13543 0)
(-5.62945 -2.43208 0)
(-5.99078 -1.65935 0)
(-6.11859 -0.853559 0)
(-6.04069 -0.0633194 0)
(-5.76894 0.681042 0)
(-5.3259 1.35663 0)
(-4.73875 1.94641 0)
(-4.03633 2.43714 0)
(-3.24636 2.82057 0)
(-2.39546 3.09485 0)
(-1.51752 3.26119 0)
(-0.645896 3.32592 0)
(0.200162 3.29357 0)
(1.00611 3.17067 0)
(1.75537 2.96548 0)
(2.42876 2.68499 0)
(3.00822 2.34567 0)
(3.48504 1.96323 0)
(3.84955 1.5373 0)
(4.10611 1.07536 0)
(4.24191 0.588294 0)
(4.24942 0.0945975 0)
(4.12286 -0.39305 0)
(3.8651 -0.86016 0)
(3.48513 -1.29385 0)
(2.99033 -1.68079 0)
(2.38755 -2.00024 0)
(1.69509 -2.22654 0)
(0.950682 -2.3567 0)
(0.182326 -2.37879 0)
(-0.564346 -2.2611 0)
(-1.25165 -2.03718 0)
(-1.85262 -1.71942 0)
(-2.33734 -1.32259 0)
(-2.68617 -0.870803 0)
(-2.89016 -0.390594 0)
(-2.94836 0.0970109 0)
(-2.85491 0.564406 0)
(-2.63341 0.989813 0)
(-2.29572 1.3539 0)
(-1.86188 1.6427 0)
(-1.35596 1.85028 0)
(-0.800022 1.96517 0)
(-0.219536 1.98766 0)
(0.357387 1.91789 0)
(0.899605 1.76692 0)
(1.38592 1.54886 0)
(1.80337 1.28112 0)
(2.14198 0.978523 0)
(2.3948 0.653784 0)
(2.55876 0.319298 0)
(2.63414 -0.0155697 0)
(2.62658 -0.34488 0)
(2.54063 -0.664534 0)
(2.37747 -0.966945 0)
(2.13911 -1.24241 0)
(1.83183 -1.48473 0)
(1.46574 -1.68673 0)
(1.0498 -1.86277 0)
(0.587746 -2.00241 0)
(0.0882685 -2.09884 0)
(-0.434281 -2.1439 0)
(-0.965322 -2.12621 0)
(-1.48876 -2.04229 0)
(-1.98595 -1.89366 0)
(-2.43759 -1.68328 0)
(-2.82545 -1.41714 0)
(-3.1341 -1.10531 0)
(-3.35358 -0.760605 0)
(-3.47364 -0.394655 0)
(-3.49195 -0.023141 0)
(-3.41545 0.337483 0)
(-3.24512 0.676185 0)
(-2.98943 0.983075 0)
(-2.6596 1.24916 0)
(-2.26845 1.46719 0)
(-1.82921 1.63126 0)
(-1.35556 1.73737 0)
(-0.86202 1.78596 0)
(-0.364227 1.78244 0)
(0.121729 1.73228 0)
(0.582156 1.63575 0)
(1.00629 1.49313 0)
(1.37667 1.3048 0)
(1.6787 1.09043 0)
(1.90939 0.86579 0)
(2.07654 0.635019 0)
(2.18204 0.403017 0)
(2.22176 0.175195 0)
(2.18971 -0.0422718 0)
(2.09225 -0.240716 0)
(1.94186 -0.413624 0)
(1.74618 -0.555427 0)
(1.51414 -0.661021 0)
(1.25546 -0.726652 0)
(0.980658 -0.750877 0)
(0.700804 -0.734651 0)
(0.426623 -0.679234 0)
(0.173101 -0.577211 0)
(-0.0483732 -0.435897 0)
(-0.230336 -0.269503 0)
(-0.370298 -0.0832697 0)
(-0.447056 0.122256 0)
(-0.457426 0.326932 0)
(-0.423115 0.521731 0)
(-0.285798 0.713936 0)
(-0.186898 0.873598 0)
(0.192368 1.02891 0)
(5.26385 -0.846862 0)
(4.91543 -1.3897 0)
(4.42842 -1.91025 0)
(3.80538 -2.39676 0)
(3.05094 -2.83834 0)
(2.18557 -3.2079 0)
(1.25215 -3.46396 0)
(0.217146 -3.63286 0)
(-0.851348 -3.6301 0)
(-1.85445 -3.50447 0)
(-2.79922 -3.26164 0)
(-3.65053 -2.90403 0)
(-4.37299 -2.44847 0)
(-4.9414 -1.9179 0)
(-5.33745 -1.33753 0)
(-5.55102 -0.733681 0)
(-5.57747 -0.132737 0)
(-5.42507 0.438399 0)
(-5.12067 0.958098 0)
(-4.67663 1.41413 0)
(-4.11446 1.79812 0)
(-3.45871 2.104 0)
(-2.73346 2.32548 0)
(-1.96576 2.45663 0)
(-1.18303 2.5027 0)
(-0.409121 2.47291 0)
(0.335184 2.37535 0)
(1.03282 2.22151 0)
(1.67028 2.0227 0)
(2.23664 1.78481 0)
(2.72432 1.50809 0)
(3.1219 1.18941 0)
(3.41453 0.834477 0)
(3.59084 0.459828 0)
(3.65393 0.0882776 0)
(3.59889 -0.27452 0)
(3.43144 -0.622836 0)
(3.15518 -0.944056 0)
(2.78096 -1.23175 0)
(2.32847 -1.46686 0)
(1.81197 -1.63211 0)
(1.24114 -1.72306 0)
(0.641478 -1.72694 0)
(0.0527988 -1.63362 0)
(-0.494367 -1.46949 0)
(-0.979365 -1.23395 0)
(-1.38019 -0.939128 0)
(-1.67951 -0.602713 0)
(-1.86668 -0.244882 0)
(-1.93908 0.116781 0)
(-1.89517 0.465421 0)
(-1.74118 0.783123 0)
(-1.49379 1.05577 0)
(-1.1623 1.27135 0)
(-0.77123 1.42041 0)
(-0.344852 1.49999 0)
(0.101686 1.51237 0)
(0.547537 1.45779 0)
(0.968705 1.34002 0)
(1.34509 1.17121 0)
(1.66494 0.9652 0)
(1.92116 0.73275 0)
(2.10578 0.484333 0)
(2.2167 0.228471 0)
(2.25384 -0.0297433 0)
(2.21635 -0.283579 0)
(2.10704 -0.525329 0)
(1.93306 -0.752796 0)
(1.69723 -0.963769 0)
(1.41485 -1.15607 0)
(1.07249 -1.32992 0)
(0.682945 -1.46569 0)
(0.263478 -1.56656 0)
(-0.186265 -1.63191 0)
(-0.652957 -1.65601 0)
(-1.12297 -1.63458 0)
(-1.58312 -1.56548 0)
(-2.01812 -1.44874 0)
(-2.41253 -1.28691 0)
(-2.75179 -1.08512 0)
(-3.02327 -0.850895 0)
(-3.21793 -0.593379 0)
(-3.32817 -0.32094 0)
(-3.34779 -0.0437275 0)
(-3.28545 0.226265 0)
(-3.14054 0.480065 0)
(-2.92005 0.710581 0)
(-2.63309 0.911324 0)
(-2.29015 1.07691 0)
(-1.90333 1.20356 0)
(-1.48554 1.28875 0)
(-1.05016 1.32975 0)
(-0.611371 1.32567 0)
(-0.183036 1.27909 0)
(0.221993 1.19606 0)
(0.592936 1.08687 0)
(0.923717 0.96325 0)
(1.21193 0.826357 0)
(1.44976 0.667156 0)
(1.62653 0.487974 0)
(1.74463 0.309038 0)
(1.80515 0.141282 0)
(1.81019 -0.0117264 0)
(1.76342 -0.152546 0)
(1.66749 -0.280157 0)
(1.53242 -0.386643 0)
(1.36636 -0.464972 0)
(1.17773 -0.511596 0)
(0.974746 -0.525665 0)
(0.765545 -0.507769 0)
(0.560607 -0.457718 0)
(0.372192 -0.375694 0)
(0.210172 -0.267702 0)
(0.0808899 -0.137335 0)
(-0.00240898 0.00700913 0)
(-0.0389205 0.158059 0)
(-0.0237593 0.30857 0)
(0.0323507 0.452806 0)
(0.165291 0.584571 0)
(0.275939 0.705001 0)
(0.617844 0.778948 0)
(5.53889 -0.585773 0)
(5.19789 -0.984801 0)
(4.71382 -1.36419 0)
(4.09382 -1.71431 0)
(3.34677 -2.0226 0)
(2.48482 -2.2856 0)
(1.51882 -2.4807 0)
(0.538106 -2.60598 0)
(-0.454288 -2.5854 0)
(-1.47982 -2.49227 0)
(-2.43729 -2.33194 0)
(-3.29708 -2.0871 0)
(-4.03622 -1.77131 0)
(-4.63088 -1.40229 0)
(-5.06352 -0.998218 0)
(-5.32402 -0.578353 0)
(-5.41091 -0.161242 0)
(-5.32835 0.238309 0)
(-5.08564 0.605767 0)
(-4.71024 0.929002 0)
(-4.21672 1.20213 0)
(-3.62746 1.42096 0)
(-2.96606 1.58223 0)
(-2.25731 1.68465 0)
(-1.52591 1.73071 0)
(-0.794493 1.72409 0)
(-0.083624 1.66616 0)
(0.588806 1.56127 0)
(1.20772 1.41755 0)
(1.76029 1.24203 0)
(2.23547 1.04034 0)
(2.62284 0.81685 0)
(2.91233 0.576962 0)
(3.09671 0.326801 0)
(3.17405 0.0726079 0)
(3.1448 -0.177799 0)
(3.00943 -0.415757 0)
(2.7767 -0.637008 0)
(2.44666 -0.832969 0)
(2.04627 -0.986369 0)
(1.58719 -1.09624 0)
(1.08664 -1.1497 0)
(0.569897 -1.14357 0)
(0.0650355 -1.08 0)
(-0.402337 -0.963089 0)
(-0.811207 -0.798062 0)
(-1.14276 -0.594064 0)
(-1.38303 -0.363441 0)
(-1.51778 -0.119986 0)
(-1.54781 0.125103 0)
(-1.47632 0.361754 0)
(-1.30911 0.577356 0)
(-1.05859 0.760453 0)
(-0.739123 0.903059 0)
(-0.364669 1.00733 0)
(0.0450637 1.06396 0)
(0.467685 1.06614 0)
(0.880234 1.02295 0)
(1.26651 0.940388 0)
(1.61005 0.823087 0)
(1.89952 0.677949 0)
(2.1265 0.512701 0)
(2.28269 0.336187 0)
(2.37032 0.154372 0)
(2.38604 -0.0277334 0)
(2.33155 -0.208085 0)
(2.20799 -0.385801 0)
(2.0129 -0.550045 0)
(1.7576 -0.697624 0)
(1.45009 -0.833207 0)
(1.09653 -0.957364 0)
(0.707858 -1.05064 0)
(0.273754 -1.10765 0)
(-0.187018 -1.15492 0)
(-0.655277 -1.17595 0)
(-1.12164 -1.16216 0)
(-1.57439 -1.11346 0)
(-1.99954 -1.03129 0)
(-2.38353 -0.918115 0)
(-2.71383 -0.777716 0)
(-2.97973 -0.615201 0)
(-3.17305 -0.436856 0)
(-3.28929 -0.248754 0)
(-3.32065 -0.0566387 0)
(-3.2739 0.131177 0)
(-3.15119 0.307372 0)
(-2.95769 0.467234 0)
(-2.70172 0.606379 0)
(-2.39304 0.721214 0)
(-2.04261 0.809169 0)
(-1.66241 0.868765 0)
(-1.26504 0.899361 0)
(-0.862984 0.901691 0)
(-0.468406 0.877611 0)
(-0.0929058 0.828033 0)
(0.253642 0.753905 0)
(0.563525 0.659493 0)
(0.831665 0.553342 0)
(1.05399 0.442981 0)
(1.22535 0.3308 0)
(1.34405 0.220149 0)
(1.41369 0.109681 0)
(1.43375 0.00238491 0)
(1.40976 -0.0908712 0)
(1.34496 -0.180902 0)
(1.24507 -0.246152 0)
(1.11541 -0.295656 0)
(0.966133 -0.323159 0)
(0.808964 -0.3271 0)
(0.652243 -0.308603 0)
(0.503194 -0.268879 0)
(0.371631 -0.21058 0)
(0.267827 -0.13705 0)
(0.197719 -0.0486445 0)
(0.166234 0.0459962 0)
(0.178311 0.14604 0)
(0.235559 0.246812 0)
(0.335051 0.343421 0)
(0.486911 0.423808 0)
(0.636756 0.505996 0)
(0.963643 0.512868 0)
(5.97479 -0.290334 0)
(5.61078 -0.532055 0)
(5.09457 -0.763712 0)
(4.4382 -0.978129 0)
(3.65703 -1.16672 0)
(2.77045 -1.32211 0)
(1.80658 -1.44531 0)
(0.808716 -1.50755 0)
(-0.193317 -1.55848 0)
(-1.24241 -1.52419 0)
(-2.21914 -1.41161 0)
(-3.09395 -1.25639 0)
(-3.85698 -1.0663 0)
(-4.48184 -0.848608 0)
(-4.94968 -0.612378 0)
(-5.25011 -0.36756 0)
(-5.38086 -0.124237 0)
(-5.34726 0.108738 0)
(-5.1569 0.324374 0)
(-4.82763 0.515831 0)
(-4.38039 0.677836 0)
(-3.83483 0.80775 0)
(-3.2142 0.903869 0)
(-2.54234 0.965632 0)
(-1.84286 0.994175 0)
(-1.13782 0.991223 0)
(-0.447779 0.959266 0)
(0.208371 0.901869 0)
(0.814026 0.822339 0)
(1.3557 0.723618 0)
(1.82203 0.608086 0)
(2.20268 0.477634 0)
(2.48926 0.335054 0)
(2.67622 0.184391 0)
(2.76199 0.0304655 0)
(2.74436 -0.123969 0)
(2.62256 -0.271627 0)
(2.40376 -0.403748 0)
(2.10661 -0.506225 0)
(1.747 -0.587231 0)
(1.33524 -0.645273 0)
(0.888862 -0.674229 0)
(0.432386 -0.670896 0)
(-0.0104425 -0.633608 0)
(-0.41626 -0.56539 0)
(-0.764617 -0.469962 0)
(-1.03889 -0.351859 0)
(-1.22375 -0.21774 0)
(-1.31566 -0.0747307 0)
(-1.30937 0.070003 0)
(-1.20744 0.209448 0)
(-1.01982 0.339527 0)
(-0.76042 0.462286 0)
(-0.412981 0.567755 0)
(-0.0190802 0.622058 0)
(0.388852 0.650178 0)
(0.805394 0.652067 0)
(1.21194 0.6283 0)
(1.59088 0.581349 0)
(1.92474 0.514564 0)
(2.20245 0.431545 0)
(2.41413 0.337069 0)
(2.55472 0.234331 0)
(2.62396 0.126774 0)
(2.6194 0.0182391 0)
(2.54301 -0.0883665 0)
(2.39699 -0.190029 0)
(2.187 -0.28624 0)
(1.92053 -0.383694 0)
(1.59003 -0.470092 0)
(1.21846 -0.536173 0)
(0.828619 -0.605895 0)
(0.385308 -0.679831 0)
(-0.104747 -0.709004 0)
(-0.57936 -0.710727 0)
(-1.04805 -0.695699 0)
(-1.50341 -0.66368 0)
(-1.93091 -0.614264 0)
(-2.31733 -0.548038 0)
(-2.65085 -0.46673 0)
(-2.92166 -0.373062 0)
(-3.12234 -0.270457 0)
(-3.24833 -0.162617 0)
(-3.29659 -0.0525268 0)
(-3.26574 0.0558952 0)
(-3.16331 0.15797 0)
(-2.99289 0.250576 0)
(-2.76261 0.331323 0)
(-2.48165 0.397922 0)
(-2.16025 0.448928 0)
(-1.80971 0.483627 0)
(-1.44196 0.501457 0)
(-1.06882 0.502618 0)
(-0.70158 0.488133 0)
(-0.350672 0.459516 0)
(-0.0256096 0.418856 0)
(0.26565 0.368781 0)
(0.517679 0.311601 0)
(0.72674 0.248517 0)
(0.889908 0.180934 0)
(1.00646 0.112344 0)
(1.07736 0.0470478 0)
(1.10351 -0.0122156 0)
(1.09257 -0.0627565 0)
(1.04509 -0.113684 0)
(0.9667 -0.15303 0)
(0.865278 -0.180355 0)
(0.749532 -0.197847 0)
(0.625164 -0.200921 0)
(0.504354 -0.190363 0)
(0.395758 -0.168254 0)
(0.305968 -0.135423 0)
(0.244507 -0.0900088 0)
(0.213507 -0.038098 0)
(0.218495 0.0236812 0)
(0.26597 0.0880868 0)
(0.352352 0.150323 0)
(0.47917 0.208832 0)
(0.636581 0.254693 0)
(0.822571 0.299551 0)
(1.09486 0.267622 0)
(6.01848 -0.0606722 0)
(5.80232 -0.141167 0)
(5.42284 -0.219599 0)
(4.88634 -0.293668 0)
(4.20385 -0.360768 0)
(3.39125 -0.417576 0)
(2.47038 -0.457913 0)
(1.46964 -0.485048 0)
(0.467527 -0.537389 0)
(-0.483465 -0.526094 0)
(-1.41815 -0.470437 0)
(-2.30364 -0.417531 0)
(-3.08771 -0.352461 0)
(-3.74423 -0.280847 0)
(-4.25586 -0.204595 0)
(-4.61202 -0.126345 0)
(-4.809 -0.0489986 0)
(-4.84963 0.0246851 0)
(-4.7421 0.0927105 0)
(-4.499 0.153367 0)
(-4.13679 0.204782 0)
(-3.67513 0.245955 0)
(-3.13537 0.276431 0)
(-2.53976 0.296187 0)
(-1.91068 0.305639 0)
(-1.26708 0.304949 0)
(-0.632892 0.294843 0)
(-0.0246395 0.276661 0)
(0.541406 0.251546 0)
(1.05121 0.220472 0)
(1.49255 0.184157 0)
(1.85462 0.143224 0)
(2.12827 0.0983664 0)
(2.30633 0.0508241 0)
(2.38432 -9.17965e-05 0)
(2.3664 -0.0558056 0)
(2.25903 -0.108323 0)
(2.07061 -0.154083 0)
(1.79656 -0.17694 0)
(1.44358 -0.195667 0)
(1.03772 -0.211732 0)
(0.600009 -0.219419 0)
(0.151763 -0.217609 0)
(-0.2849 -0.205529 0)
(-0.6883 -0.183757 0)
(-1.03873 -0.153011 0)
(-1.3198 -0.114803 0)
(-1.51674 -0.0714876 0)
(-1.62175 -0.025132 0)
(-1.62957 0.0224378 0)
(-1.54011 0.0682513 0)
(-1.35559 0.111532 0)
(-1.08938 0.157844 0)
(-0.766539 0.207318 0)
(-0.405618 0.22071 0)
(0.00733895 0.226998 0)
(0.439667 0.225917 0)
(0.870737 0.217835 0)
(1.28334 0.20328 0)
(1.66396 0.183034 0)
(1.99973 0.158053 0)
(2.27982 0.129193 0)
(2.49637 0.0970992 0)
(2.6439 0.0627648 0)
(2.71945 0.0272267 0)
(2.72234 -0.00844447 0)
(2.65292 -0.0436142 0)
(2.51352 -0.0764186 0)
(2.30677 -0.106381 0)
(2.03583 -0.132579 0)
(1.70791 -0.158661 0)
(1.32019 -0.191528 0)
(0.926337 -0.24534 0)
(0.523901 -0.243795 0)
(0.0828282 -0.233847 0)
(-0.369666 -0.228102 0)
(-0.813832 -0.216664 0)
(-1.2363 -0.199717 0)
(-1.62488 -0.178335 0)
(-1.96851 -0.152729 0)
(-2.25757 -0.12359 0)
(-2.48443 -0.0918656 0)
(-2.64384 -0.0586934 0)
(-2.73293 -0.0250241 0)
(-2.75093 0.0082556 0)
(-2.69962 0.0398088 0)
(-2.58371 0.0683807 0)
(-2.40975 0.0932999 0)
(-2.18519 0.113683 0)
(-1.92172 0.129224 0)
(-1.62816 0.13981 0)
(-1.31565 0.145323 0)
(-0.995024 0.145784 0)
(-0.676805 0.141477 0)
(-0.371095 0.132635 0)
(-0.0868822 0.119872 0)
(0.16823 0.103987 0)
(0.388446 0.0859161 0)
(0.569566 0.0663494 0)
(0.708646 0.0459823 0)
(0.804263 0.0255337 0)
(0.856634 0.00571507 0)
(0.867251 -0.0134634 0)
(0.83983 -0.0306787 0)
(0.777771 -0.0449362 0)
(0.686076 -0.0557779 0)
(0.571649 -0.0631793 0)
(0.441711 -0.06668 0)
(0.304888 -0.0667549 0)
(0.170208 -0.0633526 0)
(0.0461538 -0.0555672 0)
(-0.0586699 -0.0430613 0)
(-0.142736 -0.0246952 0)
(-0.190654 -0.00988693 0)
(-0.199106 0.010758 0)
(-0.172017 0.0326555 0)
(-0.10549 0.0546097 0)
(0.00326949 0.075188 0)
(0.143913 0.0890232 0)
(0.325688 0.0936109 0)
(0.512421 0.066354 0)
(-0.225231 -3.36907 0)
(-0.318066 -10.1042 0)
(-0.413466 -15.717 0)
(-0.389175 -20.6865 0)
(-0.239926 -24.8837 0)
(0.0191301 -28.2768 0)
(0.461954 -30.8385 0)
(1.10413 -32.2184 0)
(1.83633 -31.8515 0)
(2.4098 -30.303 0)
(2.74514 -27.5817 0)
(2.79459 -23.7438 0)
(2.56621 -19.0314 0)
(2.08452 -13.8268 0)
(1.394 -8.6239 0)
(0.63099 -4.09176 0)
(0.0884309 -0.9117 0)
(-0.404803 2.67168 0)
(-1.05287 7.9184 0)
(-1.5728 12.1108 0)
(-1.89534 15.8615 0)
(-2.03231 19.079 0)
(-1.98833 21.7259 0)
(-1.7743 23.7476 0)
(-1.41175 24.9722 0)
(-0.937032 24.8442 0)
(-0.49602 23.7496 0)
(-0.0869719 21.7924 0)
(0.254104 18.969 0)
(0.488515 15.4132 0)
(0.584789 11.4498 0)
(0.507854 7.44178 0)
(0.235084 3.81513 0)
(-0.0565885 1.2665 0)
(-0.138652 -0.965686 0)
(-0.198199 -6.20601 0)
(-0.357952 -9.6731 0)
(-0.485805 -12.7829 0)
(-0.522205 -15.4893 0)
(-0.454567 -17.7499 0)
(-0.258363 -19.4686 0)
(0.104508 -20.2746 0)
(0.476866 -19.9231 0)
(0.790633 -18.7291 0)
(1.01116 -16.7702 0)
(1.10818 -14.1844 0)
(1.06565 -11.133 0)
(0.879682 -7.91907 0)
(0.619265 -4.93794 0)
(0.32267 -2.54091 0)
(0.255487 -0.678497 0)
(-0.0696416 3.31391 0)
(-0.454823 6.1496 0)
(-0.79085 8.73578 0)
(-1.04544 10.9937 0)
(-1.20647 12.8795 0)
(-1.25405 14.4044 0)
(-1.18383 15.5224 0)
(-0.997467 15.9508 0)
(-0.754575 15.6444 0)
(-0.49864 14.7119 0)
(-0.246538 13.1252 0)
(-0.0120929 10.9531 0)
(0.165125 8.4305 0)
(0.227254 5.87761 0)
(0.156934 3.60178 0)
(0.0881966 1.98914 0)
(0.178737 0.036064 0)
(0.268638 -3.02806 0)
(0.219701 -5.45054 0)
(0.153942 -7.64974 0)
(0.113257 -9.58036 0)
(0.0998882 -11.2361 0)
(0.145399 -12.6113 0)
(0.26649 -13.6151 0)
(0.392147 -13.9657 0)
(0.518976 -13.6685 0)
(0.631432 -12.8578 0)
(0.71965 -11.5462 0)
(0.771571 -9.7879 0)
(0.766769 -7.70272 0)
(0.678835 -5.49735 0)
(0.517054 -3.46257 0)
(0.314017 -1.8355 0)
(0.378141 -0.0288123 0)
(0.331225 2.22246 0)
(0.17983 4.21354 0)
(0.00901891 6.01217 0)
(-0.136967 7.58051 0)
(-0.264962 8.89367 0)
(-0.372546 9.95587 0)
(-0.4501 10.747 0)
(-0.468798 11.1295 0)
(-0.422433 10.9772 0)
(-0.341903 10.4588 0)
(-0.255308 9.58453 0)
(-0.162747 8.38602 0)
(-0.0732327 6.91553 0)
(0.00402593 5.25559 0)
(0.053779 3.53913 0)
(0.0362067 1.89949 0)
(-0.0481243 0.482929 0)
(-0.0489756 -0.556766 0)
(0.0340639 -2.03988 0)
(0.0710236 -3.56106 0)
(0.0712728 -4.83216 0)
(0.0791293 -5.90789 0)
(0.0980732 -6.78424 0)
(0.124674 -7.43624 0)
(0.165808 -7.72625 0)
(0.231603 -7.56444 0)
(0.30567 -7.07269 0)
(0.371251 -6.28897 0)
(0.400955 -5.28666 0)
(0.387383 -4.15639 0)
(0.336107 -2.98567 0)
(0.258568 -1.86967 0)
(0.168078 -0.885527 0)
(0.165828 0.322794 0)
(0.0637483 1.2699 0)
(-0.0704472 3.17065 0)
(3.64465 -3.48227 0)
(4.00854 -10.0168 0)
(3.67301 -15.5857 0)
(3.07899 -20.5499 0)
(2.35638 -24.8416 0)
(1.56497 -28.4494 0)
(0.834639 -31.2931 0)
(0.273166 -32.9232 0)
(-0.0466227 -32.5734 0)
(-0.16167 -30.8471 0)
(-0.267693 -27.8633 0)
(-0.450003 -23.7333 0)
(-0.715184 -18.6917 0)
(-1.01656 -13.1633 0)
(-1.18244 -7.77308 0)
(-1.09915 -3.29811 0)
(-1.28753 -0.550046 0)