/*--------------------------------*- C++ -*----------------------------------*\
| =========                 |                                                 |
| \\      /  F ield         | OpenFOAM: The Open Source CFD Toolbox           |
|  \\    /   O peration     | Version:  2206                                  |
|   \\  /    A nd           | Website:  www.openfoam.com                      |
|    \\/     M anipulation  |                                                 |
\*---------------------------------------------------------------------------*/
FoamFile
{
    version     2.0;
    format      ascii;
    arch        "LSB;label=32;scalar=64";
    class       volScalarField;
    location    "19.7001";
    object      p;
}
// * * * * * * * * * * * * * * * * * * * * * * * * * * * * * * * * * * * * * //

dimensions      [0 2 -2 0 0 0 0];

internalField   nonuniform List<scalar> 
4830
(
-0.655468
-0.55049
-0.47891
-0.395025
-0.311663
-0.228034
-0.148023
-0.0752836
-0.0126901
0.0337132
0.0647479
0.0791665
0.0757709
0.0532177
0.0100831
-0.0540329
-0.138634
-0.241694
-0.356765
-0.473231
-0.5777
-0.655712
-0.700777
-0.709919
-0.688658
-0.645063
-0.587747
-0.523668
-0.457674
-0.39623
-0.344316
-0.300489
-0.263818
-0.233971
-0.210044
-0.191192
-0.176736
-0.16613
-0.158912
-0.154718
-0.153224
-0.154178
-0.157631
-0.163845
-0.172935
-0.184614
-0.19796
-0.211675
-0.224134
-0.231682
-0.235755
-0.237253
-0.233969
-0.227477
-0.218899
-0.209076
-0.19888
-0.18905
-0.180157
-0.172619
-0.166717
-0.162607
-0.160449
-0.160431
-0.162517
-0.166388
-0.172315
-0.181053
-0.193631
-0.207753
-0.224714
-0.243464
-0.262419
-0.280065
-0.294674
-0.304553
-0.308406
-0.306305
-0.298169
-0.284862
-0.267578
-0.247578
-0.226114
-0.204312
-0.183061
-0.162916
-0.143923
-0.126431
-0.111574
-0.0992068
-0.0887694
-0.0801826
-0.0733773
-0.0682833
-0.0648763
-0.0631574
-0.0631292
-0.0647686
-0.067985
-0.0725853
-0.0782496
-0.0845213
-0.0908967
-0.0968456
-0.101845
-0.105453
-0.107349
-0.107383
-0.105733
-0.102487
-0.0979772
-0.0926169
-0.0868418
-0.0810995
-0.075826
-0.0713904
-0.584503
-0.556459
-0.52343
-0.478274
-0.429724
-0.374588
-0.31603
-0.256553
-0.200413
-0.150127
-0.110129
-0.0826259
-0.06953
-0.0727257
-0.0946899
-0.137741
-0.202247
-0.287799
-0.391189
-0.502823
-0.609286
-0.694135
-0.745171
-0.760043
-0.74147
-0.697681
-0.637893
-0.570373
-0.501339
-0.433845
-0.373645
-0.324715
-0.284786
-0.252565
-0.227396
-0.208272
-0.194265
-0.184697
-0.179017
-0.176841
-0.177839
-0.181869
-0.18911
-0.199766
-0.213789
-0.230496
-0.248441
-0.266404
-0.280228
-0.288417
-0.29281
-0.292167
-0.286051
-0.276122
-0.263602
-0.249614
-0.235243
-0.221384
-0.208704
-0.197653
-0.188522
-0.181456
-0.17654
-0.173962
-0.173721
-0.175354
-0.179413
-0.185739
-0.194726
-0.208184
-0.22296
-0.239181
-0.256194
-0.272318
-0.285901
-0.295383
-0.299504
-0.298111
-0.291107
-0.279183
-0.263411
-0.244945
-0.224946
-0.204489
-0.18443
-0.165433
-0.14784
-0.131577
-0.11705
-0.105023
-0.0952265
-0.0872593
-0.0810634
-0.0766038
-0.0738763
-0.072902
-0.0736985
-0.0762549
-0.0804785
-0.0861471
-0.0928776
-0.1002
-0.107574
-0.114397
-0.120081
-0.124129
-0.126178
-0.126061
-0.123974
-0.120043
-0.114646
-0.108247
-0.101337
-0.0944011
-0.0878846
-0.0821945
-0.57482
-0.577563
-0.580496
-0.578482
-0.572141
-0.553549
-0.519007
-0.470492
-0.4142
-0.354758
-0.300632
-0.256955
-0.226725
-0.211209
-0.212045
-0.2321
-0.273863
-0.336182
-0.417725
-0.515383
-0.614601
-0.699497
-0.755356
-0.776658
-0.763568
-0.723305
-0.665013
-0.597263
-0.527358
-0.459941
-0.397219
-0.343674
-0.301492
-0.26832
-0.242583
-0.223724
-0.210745
-0.202719
-0.199106
-0.199508
-0.203612
-0.211411
-0.223191
-0.239127
-0.258848
-0.281173
-0.30418
-0.325479
-0.341704
-0.351318
-0.354345
-0.350856
-0.341221
-0.326952
-0.309613
-0.290664
-0.271415
-0.252913
-0.235924
-0.220936
-0.208218
-0.197889
-0.189978
-0.184556
-0.181782
-0.181163
-0.182862
-0.187162
-0.193881
-0.204783
-0.216932
-0.230648
-0.245422
-0.259715
-0.271991
-0.280826
-0.285055
-0.284197
-0.278394
-0.268044
-0.254041
-0.237424
-0.219253
-0.200518
-0.182037
-0.164455
-0.148227
-0.133554
-0.120316
-0.10886
-0.099657
-0.0924822
-0.0870387
-0.0833117
-0.0813521
-0.0811989
-0.0828792
-0.0864125
-0.0917028
-0.0984555
-0.106271
-0.11468
-0.123071
-0.130773
-0.137136
-0.141603
-0.143763
-0.143436
-0.140838
-0.136136
-0.129758
-0.122224
-0.114089
-0.105884
-0.0980934
-0.0911148
-0.613006
-0.631397
-0.662999
-0.701577
-0.73582
-0.752562
-0.739782
-0.698387
-0.631868
-0.554974
-0.479674
-0.414205
-0.363383
-0.329161
-0.312043
-0.31184
-0.331258
-0.369944
-0.426258
-0.503127
-0.589006
-0.667695
-0.724808
-0.7518
-0.747347
-0.715129
-0.663189
-0.599898
-0.532635
-0.467311
-0.407226
-0.354091
-0.311064
-0.278335
-0.253604
-0.235985
-0.224789
-0.219062
-0.218164
-0.221703
-0.229525
-0.241791
-0.258879
-0.280823
-0.306873
-0.335533
-0.364006
-0.389065
-0.407509
-0.417466
-0.418779
-0.411962
-0.397857
-0.378326
-0.355337
-0.330704
-0.305985
-0.282374
-0.260698
-0.241435
-0.224898
-0.211196
-0.200309
-0.192442
-0.187093
-0.184046
-0.18335
-0.185207
-0.189769
-0.197339
-0.207132
-0.218574
-0.230968
-0.243226
-0.254002
-0.261984
-0.266092
-0.265678
-0.261045
-0.252298
-0.240172
-0.225582
-0.209475
-0.192729
-0.176115
-0.16024
-0.145548
-0.132335
-0.120706
-0.110535
-0.102091
-0.0956614
-0.0910819
-0.0881812
-0.0870713
-0.0877965
-0.0903737
-0.0949152
-0.101289
-0.109101
-0.117988
-0.127457
-0.136831
-0.145374
-0.152373
-0.157206
-0.15942
-0.158836
-0.155663
-0.150127
-0.142706
-0.133975
-0.124543
-0.114991
-0.105844
-0.0975248
-0.661645
-0.694203
-0.750639
-0.826413
-0.902813
-0.955535
-0.959513
-0.922941
-0.836942
-0.73728
-0.63513
-0.543005
-0.467545
-0.410544
-0.374375
-0.356486
-0.356052
-0.37718
-0.415698
-0.468219
-0.535089
-0.603762
-0.658394
-0.688805
-0.693203
-0.671936
-0.630377
-0.576009
-0.515927
-0.456166
-0.40091
-0.352619
-0.312548
-0.281378
-0.258976
-0.243674
-0.234916
-0.232114
-0.234528
-0.241794
-0.253972
-0.271436
-0.294621
-0.323297
-0.356507
-0.392035
-0.426012
-0.454719
-0.475051
-0.484833
-0.484087
-0.473176
-0.45374
-0.428152
-0.398829
-0.367982
-0.337418
-0.308447
-0.281962
-0.258306
-0.237927
-0.221453
-0.207893
-0.197144
-0.189175
-0.183857
-0.180997
-0.180592
-0.182738
-0.187498
-0.194637
-0.203662
-0.21377
-0.223921
-0.233062
-0.240035
-0.243834
-0.243815
-0.240216
-0.232989
-0.222731
-0.210222
-0.196268
-0.18165
-0.167064
-0.153072
-0.140098
-0.128439
-0.118273
-0.109625
-0.102391
-0.096806
-0.0930638
-0.0910595
-0.0908596
-0.0924903
-0.0959097
-0.101364
-0.108845
-0.11765
-0.127544
-0.137999
-0.14827
-0.15757
-0.165122
-0.17024
-0.172429
-0.171564
-0.167778
-0.161388
-0.152926
-0.143019
-0.132321
-0.121458
-0.110979
-0.101328
-0.182132
-0.180937
-0.176534
-0.169313
-0.159861
-0.148849
-0.13698
-0.124914
-0.113226
-0.102378
-0.352682
-0.351535
-0.350064
-0.348399
-0.346702
-0.345129
-0.343824
-0.342898
-0.342331
-0.341626
-0.34007
-0.337395
-0.333704
-0.329141
-0.323793
-0.317734
-0.311045
-0.303818
-0.296139
-0.288095
-0.279769
-0.271241
-0.262591
-0.253916
-0.245321
-0.355188
-0.354058
-0.352603
-0.350915
-0.34915
-0.347452
-0.345923
-0.344565
-0.343155
-0.341453
-0.339233
-0.336226
-0.332335
-0.327607
-0.322118
-0.315942
-0.309159
-0.301867
-0.294162
-0.286121
-0.277805
-0.269274
-0.260574
-0.251853
-0.243261
-0.363428
-0.362443
-0.361071
-0.359413
-0.357583
-0.355673
-0.353708
-0.35166
-0.349457
-0.346996
-0.344116
-0.340607
-0.336352
-0.331357
-0.325679
-0.319374
-0.312497
-0.30511
-0.297287
-0.2891
-0.28062
-0.271913
-0.263049
-0.25406
-0.245033
-0.373144
-0.372256
-0.370926
-0.36928
-0.367394
-0.365298
-0.362984
-0.360421
-0.357592
-0.354428
-0.350804
-0.346596
-0.341727
-0.336188
-0.330036
-0.323324
-0.316087
-0.308379
-0.300267
-0.291827
-0.283128
-0.274237
-0.265227
-0.256186
-0.247234
-0.384258
-0.38344
-0.382158
-0.380483
-0.378458
-0.376105
-0.373421
-0.370404
-0.36703
-0.363257
-0.359008
-0.354222
-0.348856
-0.342901
-0.336384
-0.329342
-0.321817
-0.313858
-0.305531
-0.296904
-0.288046
-0.279023
-0.269905
-0.260815
-0.25186
-0.396062
-0.395231
-0.393902
-0.392121
-0.38992
-0.387318
-0.38432
-0.380916
-0.377088
-0.37281
-0.368036
-0.362728
-0.35687
-0.350455
-0.34351
-0.336062
-0.328164
-0.319866
-0.311226
-0.30232
-0.293209
-0.283964
-0.274702
-0.265532
-0.256465
-0.408629
-0.407723
-0.406296
-0.404378
-0.401993
-0.399155
-0.395866
-0.392111
-0.387879
-0.383143
-0.377884
-0.372071
-0.365702
-0.358786
-0.351354
-0.343437
-0.335089
-0.32637
-0.317331
-0.308057
-0.298618
-0.28904
-0.27947
-0.270141
-0.260963
-0.421949
-0.420916
-0.419347
-0.417266
-0.414685
-0.411609
-0.408031
-0.403938
-0.399316
-0.394146
-0.388414
-0.382109
-0.375234
-0.367808
-0.359862
-0.35144
-0.342592
-0.333384
-0.323878
-0.314151
-0.304283
-0.294347
-0.284449
-0.274685
-0.265072
-0.436031
-0.434831
-0.433093
-0.430832
-0.428048
-0.424734
-0.420878
-0.416461
-0.411464
-0.405871
-0.399672
-0.392864
-0.385457
-0.377479
-0.368966
-0.359971
-0.350552
-0.34078
-0.330725
-0.320468
-0.310088
-0.299664
-0.28928
-0.279018
-0.268956
-0.450893
-0.449493
-0.447571
-0.445124
-0.442141
-0.438604
-0.434488
-0.429763
-0.424407
-0.418397
-0.411723
-0.404389
-0.396411
-0.387822
-0.37867
-0.369017
-0.358931
-0.348491
-0.337777
-0.326875
-0.315869
-0.304843
-0.293884
-0.283075
-0.272496
-0.466503
-0.464886
-0.462774
-0.460152
-0.456997
-0.45327
-0.448926
-0.443922
-0.438223
-0.431803
-0.42465
-0.416765
-0.408173
-0.398916
-0.389053
-0.378656
-0.367809
-0.356601
-0.345122
-0.333466
-0.321724
-0.309984
-0.298332
-0.286852
-0.275622
-0.482834
-0.48099
-0.478699
-0.475936
-0.472654
-0.46879
-0.464272
-0.459036
-0.453024
-0.446201
-0.438554
-0.430087
-0.420828
-0.410827
-0.400161
-0.388917
-0.377196
-0.365102
-0.35274
-0.340214
-0.32762
-0.315052
-0.302596
-0.290338
-0.278357
-0.499801
-0.497733
-0.495303
-0.492463
-0.489134
-0.485215
-0.480603
-0.4752
-0.468926
-0.461723
-0.453567
-0.444476
-0.434481
-0.423645
-0.412063
-0.399848
-0.387121
-0.374008
-0.36063
-0.347105
-0.333537
-0.320025
-0.306656
-0.293515
-0.280678
-0.517294
-0.515031
-0.512533
-0.509718
-0.506461
-0.502614
-0.498025
-0.492555
-0.486086
-0.478537
-0.469866
-0.460093
-0.449275
-0.437489
-0.424854
-0.411514
-0.397623
-0.383334
-0.368791
-0.354126
-0.339455
-0.324878
-0.310484
-0.29635
-0.282552
-0.535124
-0.532731
-0.530283
-0.527649
-0.524644
-0.521056
-0.516667
-0.511276
-0.504714
-0.496867
-0.487678
-0.477157
-0.465399
-0.452511
-0.438645
-0.42399
-0.408742
-0.393093
-0.377213
-0.361254
-0.345342
-0.329578
-0.314047
-0.298816
-0.283949
-0.55304
-0.550623
-0.548404
-0.546183
-0.543694
-0.540635
-0.536695
-0.531589
-0.52508
-0.517008
-0.507293
-0.495949
-0.4831
-0.46891
-0.453582
-0.437367
-0.420522
-0.403287
-0.38587
-0.368446
-0.351148
-0.334076
-0.317301
-0.300874
-0.284842
-0.57068
-0.568401
-0.566676
-0.565206
-0.563617
-0.561479
-0.558351
-0.553827
-0.547575
-0.539372
-0.529116
-0.516829
-0.50268
-0.486919
-0.469827
-0.451742
-0.433002
-0.413913
-0.394732
-0.375655
-0.356827
-0.338333
-0.320222
-0.302519
-0.285232
-0.587528
-0.585636
-0.584795
-0.58455
-0.584394
-0.583729
-0.581926
-0.578411
-0.572718
-0.564533
-0.553725
-0.540334
-0.524594
-0.506868
-0.487582
-0.467196
-0.446166
-0.424884
-0.403668
-0.382743
-0.362245
-0.342244
-0.322744
-0.303718
-0.285124
-0.602867
-0.601697
-0.602336
-0.604024
-0.606071
-0.607654
-0.607879
-0.605935
-0.601177
-0.593182
-0.581785
-0.567055
-0.549346
-0.52917
-0.507145
-0.483914
-0.460094
-0.436205
-0.412635
-0.389639
-0.367343
-0.34577
-0.324863
-0.304514
-0.284597
-0.615816
-0.615768
-0.618626
-0.623233
-0.628615
-0.63361
-0.636944
-0.637455
-0.634193
-0.626604
-0.614519
-0.598001
-0.577574
-0.554128
-0.528543
-0.501706
-0.474452
-0.447462
-0.421208
-0.395961
-0.371814
-0.348715
-0.326499
-0.304931
-0.283761
-0.628315
-0.624955
-0.626955
-0.633036
-0.641814
-0.65197
-0.661833
-0.66963
-0.673788
-0.672874
-0.666107
-0.653361
-0.634751
-0.610854
-0.583047
-0.552719
-0.521148
-0.489506
-0.458693
-0.429273
-0.401521
-0.375472
-0.350952
-0.327629
-0.30507
-0.282828
-0.630638
-0.628166
-0.633342
-0.64444
-0.659664
-0.67707
-0.6942
-0.708508
-0.717679
-0.719687
-0.713951
-0.699929
-0.677662
-0.648867
-0.615313
-0.578821
-0.541239
-0.504217
-0.468919
-0.435978
-0.405643
-0.37785
-0.352244
-0.328245
-0.305138
-0.282182
-0.624915
-0.623748
-0.632651
-0.650122
-0.67417
-0.701903
-0.729686
-0.754322
-0.772303
-0.778629
-0.774805
-0.76056
-0.733087
-0.696557
-0.654382
-0.608898
-0.562823
-0.518599
-0.477623
-0.440496
-0.407414
-0.378159
-0.352068
-0.328178
-0.305337
-0.282352
-0.607749
-0.609564
-0.624601
-0.651678
-0.68801
-0.729093
-0.769965
-0.806583
-0.833698
-0.847425
-0.846151
-0.82962
-0.797298
-0.752193
-0.698888
-0.641472
-0.584272
-0.531236
-0.483757
-0.441982
-0.406139
-0.37589
-0.350171
-0.327534
-0.306201
-0.284305
-0.576025
-0.578103
-0.599718
-0.641168
-0.696113
-0.758621
-0.822129
-0.878415
-0.920594
-0.942899
-0.941787
-0.918576
-0.875189
-0.815834
-0.74646
-0.673326
-0.602439
-0.53866
-0.483878
-0.437412
-0.399529
-0.369626
-0.345927
-0.32645
-0.308639
-0.289653
-0.543557
-0.549467
-0.572117
-0.61852
-0.686001
-0.768605
-0.855092
-0.93397
-0.994325
-1.02879
-1.03258
-1.0067
-0.954148
-0.880463
-0.793715
-0.703352
-0.61829
-0.542777
-0.478426
-0.426522
-0.387165
-0.358918
-0.339396
-0.325758
-0.314348
-0.30094
-0.503436
-0.509161
-0.550321
-0.611975
-0.69344
-0.790076
-0.891528
-0.984645
-1.0552
-1.09279
-1.09615
-1.06606
-1.00542
-0.919988
-0.819232
-0.715547
-0.619548
-0.534869
-0.463263
-0.408094
-0.369241
-0.34481
-0.332026
-0.327771
-0.327004
-0.323858
-0.533008
-0.537689
-0.564663
-0.619131
-0.697853
-0.794759
-0.900034
-0.998173
-1.07306
-1.11359
-1.11511
-1.08175
-1.01594
-0.923722
-0.815989
-0.705521
-0.602468
-0.51288
-0.439788
-0.385114
-0.348848
-0.329983
-0.325615
-0.333342
-0.347359
-0.360641
-0.560358
-0.562531
-0.587292
-0.634665
-0.703333
-0.789392
-0.885309
-0.976188
-1.04621
-1.0837
-1.08742
-1.05302
-0.986708
-0.895682
-0.789655
-0.680649
-0.578768
-0.490641
-0.419814
-0.367925
-0.335648
-0.322411
-0.326124
-0.345853
-0.377399
-0.413675
-0.590029
-0.591745
-0.611094
-0.650876
-0.710704
-0.78648
-0.870123
-0.949329
-1.01044
-1.04155
-1.03768
-1.00538
-0.944517
-0.862147
-0.763549
-0.659261
-0.561822
-0.47755
-0.41034
-0.361043
-0.331856
-0.322833
-0.330997
-0.357856
-0.404205
-0.476584
-0.236879
-0.228661
-0.220772
-0.213367
-0.20662
-0.200702
-0.195761
-0.191905
-0.189194
-0.187615
-0.187125
-0.187604
-0.188899
-0.190989
-0.193863
-0.197452
-0.201677
-0.206426
-0.211524
-0.216681
-0.22162
-0.226006
-0.22953
-0.232078
-0.233685
-0.234528
-0.23489
-0.235073
-0.235356
-0.23599
-0.237184
-0.239064
-0.2416
-0.244588
-0.247635
-0.250174
-0.251479
-0.250734
-0.247125
-0.240031
-0.229026
-0.214244
-0.196393
-0.175724
-0.152897
-0.128697
-0.103919
-0.0792752
-0.0553177
-0.0323135
-0.0102942
0.0106478
0.0304568
0.0492206
0.0670405
0.0839585
0.0995846
0.113548
0.125504
0.134833
0.141147
0.144292
0.144135
0.140363
0.132003
0.118547
0.0981205
0.0688914
0.0287993
-0.0226904
-0.084093
-0.153022
-0.223081
-0.285342
-0.333525
-0.364038
-0.375964
-0.371355
-0.353396
-0.322869
-0.282331
-0.23459
-0.181704
-0.125804
-0.0698685
-0.0163169
0.0332669
0.0780802
0.117477
0.150613
0.17789
0.199816
0.216535
0.228655
0.236835
0.241714
0.243894
0.243921
0.24228
0.239403
0.235708
0.231517
0.227039
0.222569
0.218338
0.214392
0.21079
0.207431
0.204436
0.201865
0.19971
0.197945
0.196475
0.195163
0.193811
0.19193
-0.234784
-0.226417
-0.218275
-0.210572
-0.203586
-0.197591
-0.19278
-0.189232
-0.186965
-0.185859
-0.185858
-0.18676
-0.188288
-0.190453
-0.1933
-0.196853
-0.201122
-0.206045
-0.211433
-0.216962
-0.222257
-0.226913
-0.230619
-0.233151
-0.234559
-0.235008
-0.23488
-0.234573
-0.234428
-0.234748
-0.235832
-0.237871
-0.240822
-0.244427
-0.248241
-0.251654
-0.253901
-0.254087
-0.251267
-0.244569
-0.233659
-0.219335
-0.201084
-0.179763
-0.156194
-0.131248
-0.105809
-0.0806776
-0.0564085
-0.0332815
-0.011393
0.00925922
0.0287652
0.0472755
0.0649466
0.0818722
0.0978221
0.112384
0.125046
0.135323
0.142505
0.146465
0.147252
0.14496
0.139264
0.12793
0.108788
0.0790248
0.0362292
-0.0202737
-0.0884487
-0.164455
-0.239782
-0.305951
-0.356138
-0.386605
-0.396567
-0.392672
-0.37252
-0.339884
-0.297291
-0.247294
-0.192314
-0.13484
-0.0775204
-0.0225624
0.0284234
0.074398
0.114667
0.148828
0.17695
0.199336
0.216401
0.228754
0.23708
0.242048
0.244274
0.244314
0.242656
0.239714
0.235832
0.231355
0.226906
0.222399
0.21805
0.213987
0.210178
0.206773
0.203793
0.20129
0.199249
0.197659
0.196463
0.195522
0.194643
0.193415
-0.236151
-0.22754
-0.219308
-0.211608
-0.20462
-0.198497
-0.193346
-0.189218
-0.186175
-0.184265
-0.183457
-0.183642
-0.18493
-0.18732
-0.190607
-0.194757
-0.199763
-0.205506
-0.211739
-0.218075
-0.22401
-0.229072
-0.232897
-0.23529
-0.236288
-0.2362
-0.235549
-0.234809
-0.234316
-0.234373
-0.235363
-0.237586
-0.241082
-0.245574
-0.250555
-0.255298
-0.258866
-0.260235
-0.258211
-0.251568
-0.240788
-0.2252
-0.205827
-0.183354
-0.158666
-0.132675
-0.106338
-0.0805883
-0.0559532
-0.0326645
-0.0108023
0.00966475
0.0288865
0.0471304
0.0646119
0.0814909
0.0976688
0.112687
0.125905
0.136697
0.144412
0.148843
0.150505
0.149999
0.146925
0.137151
0.117829
0.0849163
0.0359234
-0.0286352
-0.105023
-0.188129
-0.268954
-0.337262
-0.38665
-0.415118
-0.424716
-0.416137
-0.393952
-0.359915
-0.316072
-0.264684
-0.208184
-0.149186
-0.09028
-0.0338172
0.0185867
0.065907
0.107437
0.142753
0.171815
0.194942
0.212604
0.225429
0.234118
0.239366
0.241824
0.242069
0.240614
0.237921
0.234342
0.230168
0.22567
0.221425
0.21743
0.21367
0.210107
0.206699
0.203778
0.201363
0.199231
0.197483
0.196057
0.194797
0.193728
0.192493
-0.238494
-0.230054
-0.222002
-0.214462
-0.207583
-0.201515
-0.196397
-0.192351
-0.189436
-0.187655
-0.186957
-0.187227
-0.188326
-0.190245
-0.193068
-0.196788
-0.201359
-0.206649
-0.212476
-0.218505
-0.224245
-0.229241
-0.233131
-0.235687
-0.236844
-0.236776
-0.235923
-0.234849
-0.234029
-0.233885
-0.234872
-0.23736
-0.241434
-0.246721
-0.252374
-0.257592
-0.26164
-0.263356
-0.261474
-0.254338
-0.242213
-0.225867
-0.205687
-0.182481
-0.157272
-0.130897
-0.104378
-0.0787594
-0.0542721
-0.0310989
-0.00941791
0.0108412
0.0298527
0.0477769
0.0650928
0.0822176
0.099078
0.115357
0.130409
0.142908
0.151476
0.155328
0.155981
0.154949
0.15125
0.141092
0.121219
0.0869447
0.0344319
-0.0344185
-0.114081
-0.19943
-0.282188
-0.351897
-0.401796
-0.430136
-0.439202
-0.430026
-0.40753
-0.373554
-0.329951
-0.278763
-0.222246
-0.162998
-0.103768
-0.0469919
0.00584273
0.0538749
0.0960687
0.13212
0.161788
0.185485
0.203706
0.217083
0.226341
0.232182
0.235239
0.236072
0.235174
0.232982
0.229861
0.226142
0.222177
0.218309
0.214435
0.210715
0.207345
0.204254
0.201516
0.199235
0.197418
0.196064
0.195005
0.193966
0.193326
0.192247
-0.243092
-0.234595
-0.22648
-0.218868
-0.211895
-0.205693
-0.200374
-0.19603
-0.192695
-0.190373
-0.189056
-0.188707
-0.189304
-0.190894
-0.193459
-0.19694
-0.201227
-0.206146
-0.211476
-0.21689
-0.222011
-0.226474
-0.22999
-0.232363
-0.233582
-0.233876
-0.233591
-0.233124
-0.232887
-0.233245
-0.234593
-0.237191
-0.240937
-0.24541
-0.249824
-0.253555
-0.25594
-0.255771
-0.252008
-0.244023
-0.231656
-0.21536
-0.195651
-0.173301
-0.149252
-0.124168
-0.0990527
-0.0747295
-0.0513842
-0.0291004
-0.00805689
0.0116684
0.0302686
0.0479784
0.0651673
0.081861
0.0978134
0.112625
0.125644
0.136026
0.143246
0.147748
0.150754
0.152708
0.151178
0.142433
0.12219
0.0862232
0.0325801
-0.0351061
-0.113064
-0.195173
-0.274274
-0.341408
-0.390104
-0.418251
-0.427532
-0.420848
-0.401118
-0.370123
-0.329433
-0.28086
-0.226545
-0.169029
-0.111446
-0.0561587
-0.00462147
0.0427214
0.0843242
0.119823
0.149296
0.172985
0.191374
0.205116
0.214867
0.221283
0.224971
0.226478
0.226298
0.224862
0.222513
0.219524
0.2162
0.212785
0.209349
0.206092
0.203189
0.200578
0.197902
0.1955
0.19375
0.192358
0.191094
0.189918
0.188824
0.18761
-0.247556
-0.238952
-0.230772
-0.223114
-0.21607
-0.209758
-0.204282
-0.199691
-0.196029
-0.19332
-0.191561
-0.190742
-0.190876
-0.191966
-0.193764
-0.196356
-0.199704
-0.203622
-0.207873
-0.212169
-0.216279
-0.219932
-0.222904
-0.225065
-0.226415
-0.22707
-0.227225
-0.227234
-0.22744
-0.228066
-0.22934
-0.231351
-0.233953
-0.236798
-0.23933
-0.241075
-0.241384
-0.239284
-0.233889
-0.225705
-0.213655
-0.198244
-0.180005
-0.159565
-0.137676
-0.11499
-0.0921311
-0.069642
-0.0481013
-0.0275492
-0.00792895
0.0106909
0.0283412
0.0451367
0.0612177
0.0765886
0.091121
0.104564
0.116497
0.126442
0.133912
0.138804
0.1405
0.139313
0.133719
0.122148
0.102307
0.069874
0.0230319
-0.0369653
-0.106281
-0.179088
-0.2491
-0.310083
-0.356386
-0.385522
-0.39775
-0.395198
-0.379267
-0.351887
-0.314755
-0.269781
-0.219198
-0.165482
-0.111358
-0.0587517
-0.00949798
0.0349104
0.0741824
0.107928
0.136311
0.159334
0.177458
0.191292
0.20139
0.208322
0.212647
0.214866
0.215424
0.214713
0.213069
0.210786
0.208147
0.205366
0.202528
0.19967
0.196997
0.194508
0.192147
0.190109
0.188472
0.187053
0.185788
0.184595
0.182701
0.180433
-0.251878
-0.243093
-0.234747
-0.226944
-0.219759
-0.213237
-0.20748
-0.202566
-0.198549
-0.195463
-0.193293
-0.19199
-0.191549
-0.191917
-0.193038
-0.194891
-0.197319
-0.200248
-0.203552
-0.206879
-0.21007
-0.212938
-0.215319
-0.217115
-0.218297
-0.218931
-0.219187
-0.219293
-0.219428
-0.219774
-0.220461
-0.221452
-0.222624
-0.223755
-0.224454
-0.224257
-0.222593
-0.21887
-0.212622
-0.20374
-0.192057
-0.177784
-0.161329
-0.143148
-0.123761
-0.103704
-0.0835064
-0.0635736
-0.0442115
-0.0256152
-0.00772542
0.00945696
0.0258044
0.0412983
0.0559855
0.0698856
0.0828471
0.094606
0.104834
0.113117
0.119036
0.12229
0.122647
0.119856
0.112763
0.0995544
0.0782679
0.0473537
0.00563166
-0.0461098
-0.104064
-0.163917
-0.222276
-0.274392
-0.315384
-0.342506
-0.355281
-0.354563
-0.341635
-0.317942
-0.2851
-0.245011
-0.199764
-0.151583
-0.102712
-0.0549832
-0.00990358
0.0304349
0.0664095
0.0978189
0.124382
0.1462
0.163652
0.177226
0.187428
0.194708
0.19954
0.202371
0.203603
0.203592
0.202653
0.201065
0.199062
0.196817
0.194439
0.192103
0.189842
0.187696
0.185665
0.183806
0.182154
0.180636
0.179126
0.177452
0.175405
0.172888
-0.255688
-0.246654
-0.238028
-0.229979
-0.222601
-0.21582
-0.209725
-0.204465
-0.200082
-0.196579
-0.193957
-0.192174
-0.191158
-0.190857
-0.191462
-0.19274
-0.194426
-0.196473
-0.198844
-0.201372
-0.203775
-0.205908
-0.207659
-0.20899
-0.209853
-0.210245
-0.2103
-0.210152
-0.209921
-0.209709
-0.209553
-0.20942
-0.209221
-0.208754
-0.207709
-0.205728
-0.202439
-0.197489
-0.190593
-0.181604
-0.170514
-0.157472
-0.142771
-0.126724
-0.10973
-0.0921776
-0.0744349
-0.0568321
-0.0396281
-0.0229875
-0.00695072
0.00846
0.0232302
0.0373217
0.0505594
0.0628387
0.0741209
0.0842004
0.0928012
0.0995882
0.104363
0.106571
0.105901
0.101865
0.0935879
0.0799328
0.0598277
0.032212
-0.00366537
-0.046696
-0.094881
-0.144163
-0.191734
-0.234241
-0.268199
-0.291291
-0.302793
-0.303295
-0.293262
-0.273572
-0.245745
-0.21143
-0.172417
-0.130709
-0.0882646
-0.0466924
-0.00733772
0.0287361
0.0611477
0.0895848
0.113893
0.134188
0.150724
0.163828
0.17389
0.181315
0.186504
0.189832
0.191637
0.192228
0.191887
0.190874
0.189418
0.187698
0.185838
0.183937
0.182036
0.180172
0.178399
0.176743
0.175206
0.173723
0.172187
0.170451
0.168311
0.165529
-0.259175
-0.249758
-0.240788
-0.232375
-0.224546
-0.21736
-0.21094
-0.20534
-0.200581
-0.196674
-0.19363
-0.191406
-0.189903
-0.189133
-0.189182
-0.189836
-0.190909
-0.192369
-0.194049
-0.195887
-0.19762
-0.199159
-0.200452
-0.201431
-0.201842
-0.201708
-0.201316
-0.200726
-0.199966
-0.199058
-0.198016
-0.196814
-0.195353
-0.193473
-0.190968
-0.187603
-0.183136
-0.177337
-0.170026
-0.161107
-0.150591
-0.13862
-0.125411
-0.111175
-0.0961998
-0.0807897
-0.0652123
-0.0496969
-0.034458
-0.0196804
-0.00545477
0.00820933
0.0213041
0.033863
0.045789
0.0566876
0.0664625
0.0750648
0.0822853
0.0878075
0.0913379
0.0924847
0.0908648
0.0860316
0.077385
0.0642006
0.0457888
0.0215834
-0.0084833
-0.0435744
-0.0821072
-0.121686
-0.159937
-0.194202
-0.221937
-0.241376
-0.251731
-0.253299
-0.245474
-0.228925
-0.205627
-0.177114
-0.144444
-0.109186
-0.0730334
-0.0373296
-0.00317731
0.028548
0.0572905
0.0827555
0.104817
0.123499
0.138954
0.151427
0.161222
0.168656
0.174053
0.177723
0.179962
0.181042
0.181214
0.180707
0.179717
0.178415
0.176949
0.175437
0.173925
0.172387
0.17085
0.169396
0.168005
0.166613
0.165126
0.163404
0.161267
0.158496
-0.26222
-0.252325
-0.24289
-0.233992
-0.225683
-0.218039
-0.211194
-0.20518
-0.199999
-0.195667
-0.19219
-0.189546
-0.187689
-0.186571
-0.186152
-0.186319
-0.18691
-0.187875
-0.189226
-0.190648
-0.19179
-0.192766
-0.193615
-0.194113
-0.19417
-0.19379
-0.193046
-0.191978
-0.190619
-0.18899
-0.187095
-0.184902
-0.182337
-0.179294
-0.175633
-0.171195
-0.165818
-0.159359
-0.151719
-0.142855
-0.132794
-0.121688
-0.109693
-0.0969426
-0.0836403
-0.0700104
-0.0562614
-0.0425796
-0.0291118
-0.0159794
-0.00330329
0.00883027
0.0203757
0.0313609
0.0417849
0.0515215
0.06002
0.0672784
0.0732991
0.0777199
0.0802547
0.0805973
0.0783963
0.073269
0.0647658
0.0524074
0.0357957
0.0147172
-0.0106974
-0.0396031
-0.0707401
-0.102545
-0.133352
-0.161536
-0.184395
-0.198817
-0.207012
-0.210416
-0.20541
-0.191102
-0.170715
-0.146981
-0.119772
-0.0899976
-0.0591586
-0.0284793
0.00107569
0.028794
0.0541832
0.0769292
0.0968706
0.113981
0.128348
0.140141
0.149579
0.156909
0.162388
0.166276
0.168824
0.170271
0.170841
0.170738
0.170138
0.169191
0.168027
0.166783
0.165575
0.164411
0.163138
0.161865
0.160642
0.159395
0.158035
0.15644
0.154449
0.151856
-0.264721
-0.254229
-0.244228
-0.234805
-0.226004
-0.217845
-0.210458
-0.203964
-0.19834
-0.193588
-0.189719
-0.186715
-0.184531
-0.183102
-0.182363
-0.182212
-0.182542
-0.183236
-0.184321
-0.185353
-0.186154
-0.186884
-0.187379
-0.187514
-0.187232
-0.186507
-0.185357
-0.183806
-0.181875
-0.179573
-0.176899
-0.17383
-0.170321
-0.166302
-0.161686
-0.156377
-0.150281
-0.143322
-0.135458
-0.12668
-0.11702
-0.106606
-0.0955643
-0.0840035
-0.072069
-0.0599249
-0.0477166
-0.0355826
-0.02365
-0.012024
-0.000794071
0.0099566
0.0201642
0.0298495
0.039097
0.0475895
0.0548612
0.0610639
0.0660617
0.069568
0.0713285
0.0710685
0.0684813
0.0632477
0.0550476
0.0435807
0.0286351
0.0101591
-0.011568
-0.0357582
-0.0614591
-0.0874353
-0.112326
-0.134847
-0.153469
-0.165966
-0.173019
-0.175932
-0.171378
-0.158916
-0.142448
-0.122617
-0.0994794
-0.0741013
-0.0477118
-0.0212395
0.00452287
0.0288719
0.0513532
0.0717039
0.0897457
0.105414
0.118745
0.129846
0.138877
0.146026
0.151499
0.155507
0.158263
0.159978
0.160852
0.161071
0.1608
0.160176
0.159306
0.158268
0.157173
0.156243
0.15531
0.154263
0.153218
0.152149
0.150968
0.149563
0.147788
0.14545
-0.266731
-0.255539
-0.244862
-0.23479
-0.225398
-0.216665
-0.208689
-0.201688
-0.195618
-0.190463
-0.186238
-0.182928
-0.180486
-0.178844
-0.177913
-0.177594
-0.17779
-0.178379
-0.179206
-0.180034
-0.180728
-0.181241
-0.181467
-0.181311
-0.180712
-0.179639
-0.178086
-0.17606
-0.173571
-0.170629
-0.167239
-0.163391
-0.159067
-0.154231
-0.14884
-0.142849
-0.136214
-0.128905
-0.120911
-0.112246
-0.102947
-0.0931248
-0.0828913
-0.0723198
-0.0615119
-0.0505961
-0.0396854
-0.0288776
-0.0182634
-0.00793175
0.00202477
0.0115286
0.0205943
0.0293189
0.0375445
0.0447539
0.0510026
0.0562953
0.0604275
0.0631775
0.0643185
0.0636025
0.0607687
0.0555587
0.0477313
0.0370947
0.0235488
0.00713709
-0.0117093
-0.0323383
-0.0540423
-0.0758253
-0.0965081
-0.114858
-0.12984
-0.140667
-0.147274
-0.148661
-0.144152
-0.134399
-0.120606
-0.1034
-0.0834325
-0.0615806
-0.0387314
-0.0156633
0.00695378
0.0285123
0.0485507
0.0668277
0.0831972
0.0975686
0.109938
0.12037
0.128975
0.135896
0.141295
0.145347
0.148234
0.150139
0.151241
0.151704
0.151678
0.151294
0.15066
0.149857
0.14895
0.148078
0.147379
0.146631
0.145783
0.144916
0.143971
0.142833
0.141361
0.139385
-0.268223
-0.256229
-0.244776
-0.233949
-0.223818
-0.214401
-0.205849
-0.198298
-0.191745
-0.186182
-0.181629
-0.178071
-0.175458
-0.173713
-0.172736
-0.172414
-0.172626
-0.17322
-0.174006
-0.174806
-0.175484
-0.175924
-0.176023
-0.175689
-0.174855
-0.173487
-0.17157
-0.169106
-0.166108
-0.162592
-0.158573
-0.154059
-0.149054
-0.143551
-0.137542
-0.131014
-0.12396
-0.116378
-0.108285
-0.0997077
-0.0906909
-0.0813315
-0.0717263
-0.0619293
-0.0520159
-0.0420832
-0.0322168
-0.0224922
-0.0129785
-0.00374817
0.00512359
0.0136136
0.0217714
0.0295572
0.0366714
0.0428866
0.0483109
0.0528216
0.0562341
0.0583645
0.0590076
0.057942
0.0549428
0.0497958
0.0423191
0.0323883
0.0199584
0.00519699
-0.0114442
-0.0295008
-0.0483523
-0.0670942
-0.0846884
-0.100145
-0.112612
-0.121584
-0.126985
-0.128158
-0.124176
-0.11574
-0.103677
-0.088632
-0.0712294
-0.0521485
-0.0321098
-0.0117885
0.00823741
0.0274832
0.045506
0.0620342
0.07696
0.0901913
0.101695
0.111502
0.119688
0.126358
0.131639
0.135677
0.138631
0.140662
0.141929
0.142583
0.142758
0.142569
0.142118
0.141484
0.140752
0.140053
0.139503
0.138947
0.138316
0.137661
0.136966
0.136112
0.134957
0.13333
-0.269161
-0.256256
-0.243907
-0.232216
-0.221239
-0.211046
-0.201839
-0.193698
-0.186626
-0.180653
-0.175802
-0.17206
-0.169369
-0.167645
-0.166773
-0.166613
-0.167017
-0.167802
-0.168771
-0.169747
-0.170564
-0.171083
-0.171185
-0.170775
-0.169786
-0.168181
-0.165947
-0.16309
-0.159627
-0.155586
-0.150996
-0.145885
-0.140276
-0.134191
-0.127647
-0.120659
-0.113247
-0.105434
-0.0972501
-0.0887368
-0.0799396
-0.0709461
-0.0618391
-0.0526617
-0.0434692
-0.0343341
-0.0253196
-0.016483
-0.00788291
0.000425759
0.00840543
0.0160614
0.0233968
0.03027
0.0364507
0.0418949
0.0466052
0.0504414
0.0532476
0.0548577
0.055084
0.0537274
0.0505902
0.0454907
0.0382865
0.0288907
0.0172944
0.00376744
-0.011263
-0.0274442
-0.0442104
-0.0607603
-0.0762125
-0.0896863
-0.100349
-0.107814
-0.112362
-0.113354
-0.109586
-0.10199
-0.0913026
-0.0779576
-0.0624959
-0.0455382
-0.0277009
-0.00955646
0.00839421
0.0257333
0.0420848
0.0571695
0.0708652
0.0831038
0.0938385
0.103073
0.110855
0.117263
0.122398
0.126386
0.129368