/*--------------------------------*- C++ -*----------------------------------*\
| =========                 |                                                 |
| \\      /  F ield         | OpenFOAM: The Open Source CFD Toolbox           |
|  \\    /   O peration     | Version:  2206                                  |
|   \\  /    A nd           | Website:  www.openfoam.com                      |
|    \\/     M anipulation  |                                                 |
\*---------------------------------------------------------------------------*/
FoamFile
{
    version     2.0;
    format      ascii;
    arch        "LSB;label=32;scalar=64";
    class       volVectorField;
    location    "19.8999";
    object      ddtCorrDdt0(U);
}
// * * * * * * * * * * * * * * * * * * * * * * * * * * * * * * * * * * * * * //

dimensions      [0 1 -2 0 0 0 0];

internalField   nonuniform List<vector> 
4852
(
(-22.1155 85.0427 0)
(-25.5822 77.8318 0)
(-28.3484 69.9747 0)
(-30.3899 61.775 0)
(-31.7208 53.5233 0)
(-32.3834 45.4791 0)
(-32.4412 37.8626 0)
(-31.9684 30.8497 0)
(-31.044 24.5735 0)
(-29.7475 19.1267 0)
(-28.1594 14.5655 0)
(-26.3634 10.9154 0)
(-24.4452 8.16892 0)
(-22.4884 6.25813 0)
(-20.5663 5.11004 0)
(-18.7178 4.64329 0)
(-16.9461 4.79031 0)
(-15.2403 5.52594 0)
(-13.6069 6.86133 0)
(-12.0373 8.693 0)
(-10.525 10.7462 0)
(-9.1456 12.8745 0)
(-7.86903 14.7585 0)
(-6.76805 15.8026 0)
(-5.88967 15.5824 0)
(-5.23615 14.2037 0)
(-4.70654 11.7534 0)
(-4.07278 8.57977 0)
(-3.04726 5.3711 0)
(-2.48817 2.31035 0)
(-1.34364 -6.04026 0)
(-0.265885 -14.3195 0)
(0.601776 -22.4471 0)
(1.32044 -31.1151 0)
(1.88665 -40.2093 0)
(2.26057 -49.6175 0)
(2.40918 -59.1969 0)
(2.31754 -68.773 0)
(1.98977 -78.1224 0)
(1.44412 -86.9704 0)
(0.708835 -94.9923 0)
(-0.186555 -101.823 0)
(-1.20745 -107.067 0)
(-2.27282 -110.226 0)
(-3.22476 -110.459 0)
(-4.01213 -108.585 0)
(-4.59897 -104.804 0)
(-4.94392 -99.3111 0)
(-5.03967 -92.37 0)
(-4.90079 -84.2957 0)
(-4.56042 -75.4506 0)
(-4.05722 -66.1528 0)
(-3.43776 -56.7221 0)
(-2.73812 -47.4276 0)
(-1.98511 -38.4389 0)
(-1.20967 -29.9814 0)
(-0.401174 -22.1588 0)
(0.393801 -15.0268 0)
(1.09663 -8.68012 0)
(2.11571 -3.271 0)
(3.89727 0.877288 0)
(5.85638 6.84449 0)
(7.47659 9.96275 0)
(9.04065 12.0001 0)
(10.7423 13.0372 0)
(12.5231 13.2086 0)
(14.3244 12.681 0)
(16.0966 11.6625 0)
(17.7761 10.3975 0)
(19.3017 9.14664 0)
(20.6269 8.15965 0)
(21.729 7.65136 0)
(22.6097 7.78077 0)
(23.2893 8.63116 0)
(23.8005 10.2003 0)
(24.1828 12.4092 0)
(24.4724 15.1274 0)
(24.693 18.2073 0)
(24.8468 21.5149 0)
(24.9113 24.9534 0)
(24.853 28.4847 0)
(24.6245 32.0848 0)
(24.1766 35.7664 0)
(23.4591 39.5512 0)
(22.4273 43.4452 0)
(21.0492 47.4262 0)
(19.3078 51.437 0)
(17.2029 55.3863 0)
(14.7505 59.1548 0)
(11.984 62.6056 0)
(8.95279 65.5954 0)
(5.71215 67.9852 0)
(2.34086 69.66 0)
(-1.06507 70.5022 0)
(-4.39698 70.3324 0)
(-7.57618 69.3132 0)
(-10.5611 67.518 0)
(-13.2961 64.9832 0)
(-15.7334 61.7771 0)
(-17.8386 57.9935 0)
(-19.5888 53.7451 0)
(-20.9721 49.1541 0)
(-21.9866 44.3456 0)
(-22.64 39.4424 0)
(-22.9487 34.561 0)
(-22.9359 29.8054 0)
(-22.6305 25.2651 0)
(-22.0655 21.0134 0)
(-21.2777 17.1051 0)
(-20.3044 13.5751 0)
(-19.1803 10.4394 0)
(-17.9432 7.71383 0)
(-16.6145 5.37576 0)
(-15.2361 3.40016 0)
(-13.8548 1.7415 0)
(-12.5161 0.3325 0)
(-11.2583 -0.910627 0)
(-10.1131 -2.08731 0)
(-9.11374 -3.28949 0)
(-8.25552 -4.56915 0)
(-7.55046 -5.95251 0)
(-7.03179 -7.52389 0)
(-6.66736 -9.34308 0)
(-6.45936 -11.4652 0)
(-6.40613 -13.9349 0)
(-6.5011 -16.7911 0)
(-6.73596 -20.0641 0)
(-7.09822 -23.7711 0)
(-7.57 -27.9117 0)
(-8.1278 -32.4631 0)
(-8.74297 -37.376 0)
(-9.38246 -42.5734 0)
(-10.0105 -47.9517 0)
(-10.5911 -53.3835 0)
(-11.0903 -58.7238 0)
(-11.4788 -63.8182 0)
(-11.7338 -68.5098 0)
(-11.8402 -72.6375 0)
(-22.5979 89.3115 0)
(-26.0316 81.3139 0)
(-28.7051 72.6238 0)
(-30.6051 63.5918 0)
(-31.7593 54.547 0)
(-32.2248 45.7766 0)
(-32.0781 37.5173 0)
(-31.4044 29.9515 0)
(-30.2877 23.2123 0)
(-28.806 17.3913 0)
(-27.0322 12.5473 0)
(-25.0412 8.70648 0)
(-22.9167 5.86185 0)
(-20.751 3.95942 0)
(-18.626 2.88392 0)
(-16.6022 2.52153 0)
(-14.6876 2.76689 0)
(-12.8514 3.56572 0)
(-11.0751 4.94818 0)
(-9.33597 6.87228 0)
(-7.62847 9.02141 0)
(-6.08083 11.24 0)
(-4.58694 13.2375 0)
(-3.22374 14.5417 0)
(-2.07063 14.5559 0)
(-1.14149 13.465 0)
(-0.402575 11.2662 0)
(0.061033 8.0926 0)
(0.754241 4.41522 0)
(2.13383 0.872129 0)
(3.70234 -8.05206 0)
(4.69064 -15.3073 0)
(5.43678 -23.2952 0)
(6.16408 -31.8248 0)
(6.73215 -40.7192 0)
(7.04643 -49.8636 0)
(7.07005 -59.1401 0)
(6.7749 -68.4005 0)
(6.15472 -77.4418 0)
(5.22319 -86.0059 0)
(4.00842 -93.7808 0)
(2.54853 -100.406 0)
(0.892051 -105.512 0)
(-0.869615 -108.645 0)
(-2.56468 -109.042 0)
(-4.10186 -107.365 0)
(-5.43084 -103.847 0)
(-6.49238 -98.6499 0)
(-7.26339 -92.0146 0)
(-7.73883 -84.2301 0)
(-7.93726 -75.6367 0)
(-7.88824 -66.5514 0)
(-7.62697 -57.2898 0)
(-7.19203 -48.1186 0)
(-6.61057 -39.2301 0)
(-5.89658 -30.825 0)
(-5.08507 -23.0296 0)
(-4.12587 -15.9308 0)
(-2.9826 -9.75303 0)
(-1.73081 -4.72015 0)
(-0.317832 -1.14769 0)
(1.15331 4.38517 0)
(3.21483 8.01063 0)
(5.07619 10.0184 0)
(6.96533 10.9937 0)
(8.90432 11.123 0)
(10.8377 10.6074 0)
(12.7177 9.66605 0)
(14.4876 8.5453 0)
(16.091 7.49699 0)
(17.49 6.7452 0)
(18.6776 6.47582 0)
(19.6693 6.8274 0)
(20.4887 7.87009 0)
(21.1638 9.5937 0)
(21.7256 11.9195 0)
(22.2011 14.7283 0)
(22.6021 17.8899 0)
(22.9177 21.2909 0)
(23.1277 24.8677 0)
(23.1957 28.5752 0)
(23.0758 32.4029 0)
(22.7192 36.3707 0)
(22.076 40.4933 0)
(21.1059 44.7656 0)
(19.7813 49.15 0)
(18.0899 53.5717 0)
(16.0355 57.9208 0)
(13.6388 62.0593 0)
(10.9362 65.8315 0)
(7.97871 69.0785 0)
(4.83614 71.649 0)
(1.58025 73.4116 0)
(-1.69468 74.2314 0)
(-4.86533 73.9007 0)
(-7.86872 72.6902 0)
(-10.66 70.6338 0)
(-13.1863 67.7825 0)
(-15.4049 64.2168 0)
(-17.2863 60.0437 0)
(-18.8118 55.3882 0)
(-19.9743 50.385 0)
(-20.7754 45.169 0)
(-21.2255 39.8738 0)
(-21.343 34.6238 0)
(-21.1531 29.5297 0)
(-20.6854 24.6857 0)
(-19.9726 20.1689 0)
(-19.0508 16.0369 0)
(-17.9574 12.3257 0)
(-16.7253 9.04903 0)
(-15.3806 6.20049 0)
(-13.9549 3.78018 0)
(-12.471 1.77525 0)
(-10.961 0.140262 0)
(-9.475 -1.19638 0)
(-8.06123 -2.32974 0)
(-6.76903 -3.37882 0)
(-5.64085 -4.43594 0)
(-4.66267 -5.50582 0)
(-3.89455 -6.69656 0)
(-3.28777 -8.07726 0)
(-2.83461 -9.71417 0)
(-2.54011 -11.6592 0)
(-2.40456 -13.9553 0)
(-2.42629 -16.6428 0)
(-2.60149 -19.7558 0)
(-2.92284 -23.3168 0)
(-3.37838 -27.3316 0)
(-3.95069 -31.7832 0)
(-4.6169 -36.6282 0)
(-5.34921 -41.794 0)
(-6.11595 -47.1793 0)
(-6.88351 -52.6565 0)
(-7.61891 -58.0785 0)
(-8.29205 -63.2848 0)
(-8.87796 -68.1089 0)
(-9.35857 -72.3855 0)
(-22.8941 93.5395 0)
(-26.2212 84.6868 0)
(-28.7358 75.1068 0)
(-30.4373 65.2004 0)
(-31.3677 55.3372 0)
(-31.6014 45.8324 0)
(-31.2287 36.9362 0)
(-30.3474 28.8338 0)
(-29.0481 21.6506 0)
(-27.4091 15.4675 0)
(-25.4913 10.3377 0)
(-23.3577 6.29653 0)
(-21.0752 3.34498 0)
(-18.733 1.43198 0)
(-16.4269 0.447409 0)
(-14.2302 0.224452 0)
(-12.1834 0.603349 0)
(-10.2651 1.46946 0)
(-8.42215 2.86995 0)
(-6.55654 4.8911 0)
(-4.65938 7.13531 0)
(-2.97758 9.42059 0)
(-1.33767 11.5035 0)
(0.233118 12.996 0)
(1.57399 13.2756 0)
(2.66028 12.319 0)
(3.53952 10.3189 0)
(4.19792 7.44232 0)
(5.30112 3.53669 0)
(6.597 -1.92763 0)
(8.03382 -8.6308 0)
(8.96207 -16.1777 0)
(9.78986 -24.1901 0)
(10.5593 -32.5586 0)
(11.1054 -41.1956 0)
(11.3522 -50.0072 0)
(11.2539 -58.9035 0)
(10.7728 -67.7614 0)
(9.89405 -76.4009 0)
(8.62472 -84.5835 0)
(6.99068 -92.0159 0)
(5.03736 -98.3533 0)
(2.82682 -103.254 0)
(0.456198 -106.302 0)
(-1.89603 -106.831 0)
(-4.10347 -105.347 0)
(-6.10293 -102.106 0)
(-7.82019 -97.2358 0)
(-9.21624 -90.9548 0)
(-10.27 -83.5273 0)
(-10.983 -75.2695 0)
(-11.3727 -66.4944 0)
(-11.4617 -57.4985 0)
(-11.2861 -48.558 0)
(-10.8684 -39.8826 0)
(-10.2189 -31.6761 0)
(-9.3614 -24.114 0)
(-8.26793 -17.3277 0)
(-6.93935 -11.4497 0)
(-5.49343 -6.46705 0)
(-4.41614 -1.98825 0)
(-3.07313 2.47866 0)
(-0.895776 5.73838 0)
(1.18321 7.75639 0)
(3.24167 8.72975 0)
(5.31189 8.8659 0)
(7.35101 8.40294 0)
(9.30523 7.56757 0)
(11.1282 6.61035 0)
(12.7752 5.77934 0)
(14.2225 5.26149 0)
(15.4836 5.20881 0)
(16.5822 5.75119 0)
(17.5335 6.95861 0)
(18.3532 8.81739 0)
(19.0644 11.2509 0)
(19.6859 14.1499 0)
(20.2181 17.4002 0)
(20.6577 20.9232 0)
(20.9801 24.6496 0)
(21.1462 28.5454 0)
(21.1128 32.6205 0)
(20.8287 36.8904 0)
(20.2488 41.3629 0)
(19.3382 46.0201 0)
(18.0748 50.8092 0)
(16.4513 55.6376 0)
(14.4762 60.3769 0)
(12.1732 64.8718 0)
(9.58143 68.9508 0)
(6.75488 72.4386 0)
(3.75988 75.1729 0)
(0.675875 76.9948 0)
(-2.39052 77.7466 0)
(-5.32966 77.249 0)
(-8.09061 75.8231 0)
(-10.6232 73.4888 0)
(-12.8799 70.3104 0)
(-14.8254 66.381 0)
(-16.4357 61.8188 0)
(-17.6986 56.7629 0)
(-18.6124 51.3589 0)
(-19.1818 45.7501 0)
(-19.4185 40.0792 0)
(-19.3429 34.4799 0)
(-18.9798 29.0672 0)
(-18.3571 23.9396 0)
(-17.509 19.1784 0)
(-16.4724 14.8416 0)
(-15.2851 10.9643 0)
(-13.9803 7.55474 0)
(-12.5741 4.60079 0)
(-11.0714 2.09512 0)
(-9.4983 0.029731 0)
(-7.90079 -1.61067 0)
(-6.3129 -2.88832 0)
(-4.78216 -3.9214 0)
(-3.34746 -4.83979 0)
(-2.06605 -5.63155 0)
(-1.06503 -6.51544 0)
(-0.233481 -7.52829 0)
(0.441601 -8.73021 0)
(0.964384 -10.1866 0)
(1.3325 -11.9482 0)
(1.54177 -14.0617 0)
(1.5895 -16.5694 0)
(1.47419 -19.5068 0)
(1.19801 -22.8997 0)
(0.767198 -26.7592 0)
(0.192594 -31.0748 0)
(-0.509571 -35.8093 0)
(-1.31736 -40.8951 0)
(-2.20408 -46.2347 0)
(-3.13982 -51.7027 0)
(-4.0934 -57.1504 0)
(-5.03436 -62.4142 0)
(-5.93461 -67.3232 0)
(-6.77081 -71.7037 0)
(-22.9074 97.6381 0)
(-26.052 87.8715 0)
(-28.3438 77.355 0)
(-29.794 66.5436 0)
(-30.459 55.85 0)
(-30.4305 45.617 0)
(-29.8147 36.1059 0)
(-28.7244 27.4997 0)
(-27.257 19.9097 0)
(-25.4904 13.3971 0)
(-23.4674 7.99768 0)
(-21.236 3.75404 0)
(-18.8606 0.681073 0)
(-16.4173 -1.25667 0)
(-13.9931 -2.17617 0)
(-11.6642 -2.24339 0)
(-9.47337 -1.66455 0)
(-7.44651 -0.675161 0)
(-5.59365 0.612825 0)
(-3.74146 2.61356 0)
(-1.67257 5.14661 0)
(0.0975465 7.53113 0)
(1.85475 9.65086 0)
(3.56228 11.2484 0)
(5.12297 11.8961 0)
(6.32261 11.1477 0)
(7.32133 9.31673 0)
(8.36087 6.37884 0)
(9.47156 2.14072 0)
(10.6135 -3.24713 0)
(11.8224 -9.92894 0)
(12.8398 -17.3272 0)
(13.7175 -25.1458 0)
(14.4439 -33.2783 0)
(14.9286 -41.606 0)
(15.0925 -50.0376 0)
(14.8737 -58.4984 0)
(14.2252 -66.8865 0)
(13.1228 -75.0481 0)
(11.5676 -82.7691 0)
(9.58392 -89.7788 0)
(7.22012 -95.7596 0)
(4.5471 -100.393 0)
(1.66779 -103.307 0)
(-1.24005 -103.924 0)
(-4.02525 -102.623 0)
(-6.60795 -99.6621 0)
(-8.90197 -95.1409 0)
(-10.853 -89.2507 0)
(-12.4253 -82.2363 0)
(-13.6039 -74.3885 0)
(-14.3927 -66.0076 0)
(-14.8052 -57.3807 0)
(-14.8668 -48.7809 0)
(-14.5992 -40.431 0)
(-14.0226 -32.5325 0)
(-13.1704 -25.2484 0)
(-12.0776 -18.676 0)
(-10.8174 -12.868 0)
(-9.50656 -7.81515 0)
(-8.21454 -3.47871 0)
(-6.71178 0.33114 0)
(-4.7923 3.37095 0)
(-2.61979 5.37574 0)
(-0.393355 6.34987 0)
(1.81555 6.51458 0)
(3.92519 6.12562 0)
(5.89407 5.41971 0)
(7.72715 4.65018 0)
(9.39386 4.03229 0)
(10.8754 3.71531 0)
(12.1997 3.8309 0)
(13.3906 4.52501 0)
(14.4455 5.88308 0)
(15.3665 7.87801 0)
(16.1737 10.4252 0)
(16.8826 13.4228 0)
(17.5132 16.7944 0)
(18.0434 20.4443 0)
(18.4454 24.3233 0)
(18.6844 28.426 0)
(18.7121 32.7613 0)
(18.4826 37.3417 0)
(17.957 42.1663 0)
(17.1064 47.2043 0)
(15.9147 52.3875 0)
(14.3802 57.6067 0)
(12.5155 62.7164 0)
(10.3482 67.5446 0)
(7.91924 71.9049 0)
(5.28104 75.607 0)
(2.49621 78.4736 0)
(-0.347396 80.3394 0)
(-3.13473 80.9754 0)
(-5.77475 80.2998 0)
(-8.22315 78.6364 0)
(-10.4294 76.0113 0)
(-12.3543 72.5018 0)
(-13.9711 68.2109 0)
(-15.2629 63.2699 0)
(-16.226 57.8324 0)
(-16.8653 52.0507 0)
(-17.1885 46.0737 0)
(-17.209 40.0539 0)
(-16.9464 34.1309 0)
(-16.4208 28.4221 0)
(-15.6559 23.0337 0)
(-14.685 18.0529 0)
(-13.5482 13.5373 0)
(-12.2923 9.52295 0)
(-10.9518 6.0135 0)
(-9.52565 2.95189 0)
(-7.97738 0.346195 0)
(-6.31816 -1.75072 0)
(-4.63013 -3.44212 0)
(-2.95995 -4.79648 0)
(-1.34179 -5.7614 0)
(0.107634 -6.45117 0)
(1.39329 -6.9413 0)
(2.4548 -7.50106 0)
(3.36152 -8.33648 0)
(4.11013 -9.4033 0)
(4.69524 -10.7155 0)
(5.1241 -12.3148 0)
(5.38744 -14.2466 0)
(5.4899 -16.566 0)
(5.42749 -19.3158 0)
(5.19555 -22.5237 0)
(4.79302 -26.204 0)
(4.22422 -30.3519 0)
(3.49874 -34.9365 0)
(2.63175 -39.8963 0)
(1.64386 -45.139 0)
(0.560383 -50.5423 0)
(-0.590217 -55.9594 0)
(-1.77813 -61.2264 0)
(-2.97381 -66.1686 0)
(-4.14952 -70.6095 0)
(-28.5826 67.5708 0)
(-28.9522 56.0459 0)
(-28.6403 45.1037 0)
(-27.7697 35.0147 0)
(-26.4717 25.9537 0)
(-24.8596 18.0078 0)
(-23.0089 11.2048 0)
(-20.9299 5.553 0)
(-18.624 1.11955 0)
(-16.1752 -2.06355 0)
(-13.6854 -4.02746 0)
(-11.247 -4.89988 0)
(-8.90759 -4.87306 0)
(-6.66708 -4.12905 0)
(-4.50517 -2.8344 0)
(-2.46435 -1.27528 0)
(-0.951236 0.513543 0)
(1.19115 2.8374 0)
(3.1538 5.35999 0)
(4.99771 7.63252 0)
(6.77674 9.3507 0)
(8.44778 10.2062 0)
(9.85442 9.82973 0)
(10.9934 8.10434 0)
(12.1563 5.14449 0)
(13.1869 0.895205 0)
(14.2694 -4.5568 0)
(15.3356 -11.0944 0)
(16.2883 -18.3483 0)
(17.107 -26.0195 0)
(17.7568 -33.9212 0)
(18.1573 -41.925 0)
(18.2242 -49.9502 0)
(17.8862 -57.9367 0)
(17.0876 -65.8063 0)
(15.7963 -73.4322 0)
(14.0073 -80.6291 0)
(11.7423 -87.1541 0)
(9.05092 -92.7219 0)
(6.01098 -97.0387 0)
(2.72956 -99.778 0)
(-0.623433 -100.44 0)
(-3.88051 -99.3059 0)
(-6.94542 -96.6211 0)
(-9.72331 -92.4594 0)
(-12.1459 -86.9877 0)
(-14.1641 -80.43 0)
(-15.7497 -73.0533 0)
(-16.8939 -65.139 0)
(-17.6039 -56.9643 0)
(-17.8995 -48.7875 0)
(-17.8082 -40.831 0)
(-17.3668 -33.2826 0)
(-16.6243 -26.2873 0)
(-15.6357 -19.9359 0)
(-14.4641 -14.2843 0)
(-13.1568 -9.35313 0)
(-11.7189 -5.1284 0)
(-10.0802 -1.57807 0)
(-8.16063 1.11812 0)
(-6.03176 2.87052 0)
(-3.83311 3.76697 0)
(-1.67943 4.00529 0)
(0.418484 3.84028 0)
(2.50601 3.30118 0)
(4.32574 2.64819 0)
(5.94237 2.25724 0)
(7.45852 2.12452 0)
(8.84465 2.37866 0)
(10.1078 3.22527 0)
(11.2265 4.76027 0)
(12.1875 6.88826 0)
(13.0334 9.53709 0)
(13.8061 12.6463 0)
(14.4885 16.1125 0)
(15.0702 19.8821 0)
(15.522 23.9292 0)
(15.8017 28.2483 0)
(15.8659 32.8488 0)
(15.6748 37.7386 0)
(15.1965 42.9068 0)
(14.4092 48.31 0)
(13.3032 53.8647 0)
(11.8823 59.4468 0)
(10.1636 64.8957 0)
(8.17646 70.0242 0)
(5.9617 74.6302 0)
(3.57219 78.5135 0)
(1.06939 81.4828 0)
(-1.47028 83.3486 0)
(-3.91813 83.8363 0)
(-6.18331 82.9666 0)
(-8.2469 81.0516 0)
(-10.0616 78.1282 0)
(-11.5956 74.2906 0)
(-12.8303 69.6492 0)
(-13.758 64.3514 0)
(-14.3859 58.5632 0)
(-14.7276 52.441 0)
(-14.7932 46.1344 0)
(-14.5992 39.8049 0)
(-14.1645 33.5932 0)
(-13.501 27.615 0)
(-12.6202 21.9849 0)
(-11.5458 16.8063 0)
(-10.3128 12.1419 0)
(-8.99091 8.0232 0)
(-7.664 4.4312 0)
(-6.27837 1.29326 0)
(-4.68857 -1.48857 0)
(-2.8682 -3.79392 0)
(-0.981557 -5.40326 0)
(0.692508 -6.51309 0)
(2.17389 -7.26864 0)
(3.4713 -7.82305 0)
(4.67459 -8.34947 0)
(5.878 -8.83874 0)
(6.89192 -9.40449 0)
(7.69988 -10.2087 0)
(8.32044 -11.2981 0)
(8.77217 -12.707 0)
(9.07818 -14.4727 0)
(9.22659 -16.6188 0)
(9.20239 -19.1763 0)
(9.00623 -22.1868 0)
(8.63084 -25.6696 0)
(8.07199 -29.6237 0)
(7.33209 -34.0243 0)
(6.41947 -38.8169 0)
(5.34849 -43.9148 0)
(4.13911 -49.2014 0)
(2.81605 -54.5331 0)
(1.40753 -59.7474 0)
(-0.0562716 -64.6707 0)
(-1.54438 -69.126 0)
(13.2173 -0.0297643 0)
(12.9572 0.101868 0)
(12.4459 0.270825 0)
(11.5912 0.47975 0)
(10.3739 0.69939 0)
(8.81427 0.912714 0)
(6.9254 1.11023 0)
(4.70515 1.27664 0)
(2.15612 1.38422 0)
(-0.725069 1.40343 0)
(-3.39386 1.54415 0)
(-5.83281 1.42478 0)
(-8.33573 1.28972 0)
(-10.6558 1.10794 0)
(-12.6572 0.895653 0)
(-14.24 0.672489 0)
(-15.366 0.458056 0)
(-16.0305 0.265439 0)
(-16.2628 0.102674 0)
(-16.1222 -0.0327727 0)
(-15.6369 -0.134519 0)
(-14.902 -0.193495 0)
(-14.0493 -0.228593 0)
(-13.0964 -0.26256 0)
(-12.0876 -0.302877 0)
(-11.0449 -0.35544 0)
(-9.98238 -0.419194 0)
(-8.9121 -0.490196 0)
(-7.83673 -0.569043 0)
(-6.73947 -0.65844 0)
(-5.57484 -0.743417 0)
(-4.25217 -0.79401 0)
(-2.70057 -0.85634 0)
(-0.87847 -0.982689 0)
(0.965878 -1.47388 0)
(3.23288 -1.52472 0)
(5.98249 -1.6402 0)
(9.1289 -1.84775 0)
(12.5057 -1.99166 0)
(16.0378 -2.02631 0)
(19.5365 -1.89369 0)
(22.6853 -1.56369 0)
(25.1208 -1.08091 0)
(26.5554 -0.528902 0)
(26.7621 0.0181788 0)
(25.8376 0.520026 0)
(24.096 1.05967 0)
(21.3315 1.58487 0)
(17.7153 1.99979 0)
(13.4352 2.2647 0)
(8.63377 2.40306 0)
(4.13595 2.63739 0)
(0.349399 2.23808 0)
(-3.47918 1.83494 0)
(-6.88259 1.49778 0)
(-9.71625 1.16216 0)
(-11.9085 0.842904 0)
(-13.4324 0.54613 0)
(-14.3195 0.299247 0)
(-14.6541 0.0980321 0)
(-14.5499 -0.0560114 0)
(-14.0753 -0.165049 0)
(-13.3427 -0.249817 0)
(-12.4114 -0.328323 0)
(-11.3078 -0.399274 0)
(-10.0943 -0.45503 0)
(-8.82987 -0.494044 0)
(-7.56191 -0.514093 0)
(-6.32398 -0.513743 0)
(-5.1278 -0.499949 0)
(-3.94927 -0.448887 0)
(-2.76545 -0.445121 0)
(-1.74529 -0.643472 0)
(-0.723877 -0.604139 0)
(0.276834 -0.533736 0)
(1.27052 -0.525881 0)
(2.21956 -0.516269 0)
(3.0951 -0.488626 0)
(3.87078 -0.453724 0)
(4.54116 -0.418297 0)
(5.11485 -0.372638 0)
(5.58519 -0.306493 0)
(5.93473 -0.227448 0)
(6.1613 -0.146231 0)
(6.26569 -0.0656771 0)
(6.23395 0.018561 0)
(6.0536 0.108053 0)
(5.71296 0.194197 0)
(5.22035 0.264371 0)
(4.62819 0.323183 0)
(3.9289 0.372737 0)
(3.15559 0.407178 0)
(2.3381 0.424922 0)
(1.49944 0.427394 0)
(0.642237 0.417988 0)
(-0.226768 0.423546 0)
(-1.03856 0.495504 0)
(-1.77237 0.450512 0)
(-2.51889 0.422651 0)
(-3.22536 0.378976 0)
(-3.85483 0.331935 0)
(-4.41762 0.312969 0)
(-4.9295 0.283828 0)
(-5.36827 0.240348 0)
(-5.70714 0.190323 0)
(-5.93551 0.139425 0)
(-6.0562 0.0900931 0)
(-6.07789 0.0448256 0)
(-6.03045 0.0049381 0)
(-5.92444 -0.0335112 0)
(-5.76879 -0.0740892 0)
(-5.56153 -0.118436 0)
(-5.29481 -0.16548 0)
(-4.9592 -0.214439 0)
(-4.55043 -0.260069 0)
(-4.07741 -0.293176 0)
(-3.5396 -0.334025 0)
(-2.926 -0.355414 0)
(-2.23386 -0.371063 0)
(-1.46786 -0.403293 0)
(-0.735093 -0.512189 0)
(0.0359879 -0.499673 0)
(0.857385 -0.457519 0)
(1.73023 -0.433075 0)
(2.59232 -0.426459 0)
(3.41064 -0.394942 0)
(4.15266 -0.348526 0)
(4.78797 -0.294324 0)
(5.31018 -0.245798 0)
(5.73193 -0.200591 0)
(6.05679 -0.151372 0)
(6.27544 -0.0986614 0)
(6.37708 -0.0450513 0)
(6.36554 0.00945642 0)
(6.23782 0.0651514 0)
(5.99734 0.120956 0)
(5.64926 0.174718 0)
(5.20412 0.224295 0)
(4.6779 0.269203 0)
(14.82 0.614934 0)
(13.5951 1.17619 0)
(11.8238 1.71998 0)
(9.7404 2.24469 0)
(7.46677 2.71889 0)
(5.11605 3.12325 0)
(2.76059 3.4677 0)
(0.419511 3.81819 0)
(-1.96747 4.1685 0)
(-4.14717 4.31868 0)
(-6.70822 4.5641 0)
(-9.54546 4.46695 0)
(-12.1347 4.13636 0)
(-14.5021 3.60031 0)
(-16.5261 2.88713 0)
(-18.1093 2.07231 0)
(-19.2004 1.23295 0)
(-19.8005 0.428538 0)
(-19.9413 -0.309644 0)
(-19.6097 -0.952201 0)
(-18.9613 -1.45672 0)
(-18.0207 -1.79718 0)
(-16.8397 -1.99457 0)
(-15.4579 -2.09571 0)
(-13.8925 -2.12841 0)
(-12.1505 -2.10712 0)
(-10.2438 -2.04605 0)
(-8.19728 -1.95943 0)
(-6.02032 -1.87722 0)
(-3.80041 -1.83661 0)
(-1.60284 -1.89343 0)
(0.574963 -2.29532 0)
(3.0944 -2.62867 0)
(5.42293 -3.17205 0)
(7.85122 -3.92891 0)
(10.5453 -4.60667 0)
(13.2007 -5.50825 0)
(15.9964 -5.79687 0)
(18.9728 -5.97131 0)
(22.0912 -5.89995 0)
(25.1714 -5.37022 0)
(27.767 -4.23178 0)
(29.4155 -2.5606 0)
(29.7286 -0.605378 0)
(28.8094 1.37502 0)
(26.5901 3.22511 0)
(22.8514 4.81166 0)
(18.468 6.05565 0)
(13.8853 6.88287 0)
(9.42276 7.36815 0)
(5.28527 7.6089 0)
(1.03792 7.54531 0)
(-3.58353 6.96386 0)
(-7.638 6.13855 0)
(-11.2511 5.16743 0)
(-14.4068 4.09197 0)
(-16.934 2.94626 0)
(-18.7378 1.79201 0)
(-19.822 0.764637 0)
(-20.1936 -0.109357 0)
(-20.0435 -0.798946 0)
(-19.4674 -1.32297 0)
(-18.5056 -1.73598 0)
(-17.158 -2.06335 0)
(-15.4541 -2.27374 0)
(-13.4819 -2.35462 0)
(-11.3508 -2.33532 0)
(-9.17217 -2.25095 0)
(-7.04364 -2.13371 0)
(-5.05066 -2.02549 0)
(-3.25681 -2.05039 0)
(-1.48333 -2.08617 0)
(0.29766 -1.93262 0)
(2.02335 -1.84926 0)
(3.47783 -1.78614 0)
(4.71384 -1.71379 0)
(5.7826 -1.60378 0)
(6.68533 -1.42821 0)
(7.3971 -1.17343 0)
(7.92433 -0.943537 0)
(8.30153 -0.745368 0)
(8.53036 -0.494995 0)
(8.55619 -0.241691 0)
(8.44624 -0.0311465 0)
(8.21079 0.170776 0)
(7.84604 0.387161 0)
(7.32501 0.618608 0)
(6.63158 0.848805 0)
(5.77725 1.04446 0)
(4.77108 1.20179 0)
(3.69289 1.31764 0)
(2.59135 1.38223 0)
(1.51008 1.39847 0)
(0.483329 1.38647 0)
(-0.474845 1.39033 0)
(-1.3993 1.38022 0)
(-2.36942 1.34796 0)
(-3.34422 1.30969 0)
(-4.23507 1.22295 0)
(-5.04873 1.09765 0)
(-5.73453 0.957843 0)
(-6.32952 0.837461 0)
(-6.89517 0.702132 0)
(-7.38194 0.527743 0)
(-7.72764 0.327247 0)
(-7.91255 0.130617 0)
(-7.92082 -0.041838 0)
(-7.79162 -0.178339 0)
(-7.54159 -0.271647 0)
(-7.1958 -0.330373 0)
(-6.76714 -0.379379 0)
(-6.255 -0.442189 0)
(-5.65572 -0.520187 0)
(-4.96409 -0.622826 0)
(-4.18267 -0.741046 0)
(-3.35831 -0.823455 0)
(-2.50017 -0.89893 0)
(-1.61673 -1.0362 0)
(-0.654375 -1.18453 0)
(0.292455 -1.27148 0)
(1.26678 -1.35918 0)
(2.28344 -1.33874 0)
(3.21049 -1.5093 0)
(4.05678 -1.5443 0)
(4.87898 -1.45723 0)
(5.66061 -1.35849 0)
(6.31416 -1.19364 0)
(6.80313 -0.957814 0)
(7.13623 -0.751752 0)
(7.34746 -0.584277 0)
(7.45869 -0.398147 0)
(7.46297 -0.186855 0)
(7.35093 0.026923 0)
(7.12366 0.234081 0)
(6.78351 0.431434 0)
(6.3347 0.61401 0)
(5.78354 0.776784 0)
(5.1373 0.914509 0)
(4.4078 1.02547 0)
(12.9219 1.90895 0)
(11.5951 3.03637 0)
(10.073 4.02999 0)
(8.41103 4.82084 0)
(6.64821 5.37719 0)
(4.81673 5.76099 0)
(2.9302 6.13352 0)
(0.917578 6.61195 0)
(-1.2985 7.003 0)
(-3.61094 7.35503 0)
(-5.91696 7.37754 0)
(-8.24995 7.30376 0)
(-10.3904 6.91746 0)
(-12.2145 6.15567 0)
(-13.6218 5.08385 0)
(-14.5596 3.82768 0)
(-15.0548 2.53034 0)
(-15.1799 1.28482 0)
(-14.9457 0.145464 0)
(-14.5078 -0.829721 0)
(-13.9067 -1.62625 0)
(-13.2125 -2.27865 0)
(-12.4436 -2.84228 0)
(-11.6064 -3.36761 0)
(-10.755 -3.88543 0)
(-9.86411 -4.41155 0)
(-8.88365 -4.92138 0)
(-7.77865 -5.36166 0)
(-6.54391 -5.66899 0)
(-5.07034 -5.82243 0)
(-3.28265 -5.97166 0)
(-1.14419 -6.27533 0)
(1.50113 -6.47121 0)
(4.69097 -6.5197 0)
(8.07253 -6.54217 0)
(11.3044 -6.72389 0)
(14.0688 -6.98542 0)
(16.3488 -7.40287 0)
(18.36 -7.98412 0)
(20.3289 -8.41959 0)
(22.2395 -8.12044 0)
(23.8581 -6.55052 0)
(24.7469 -3.74643 0)
(24.8119 -0.483121 0)
(24.1524 2.83016 0)
(22.7291 6.18978 0)
(20.5608 9.02781 0)
(17.8324 10.8157 0)
(14.7044 11.7651 0)
(11.2335 12.2407 0)
(7.50738 12.4119 0)
(3.44954 12.2265 0)
(-0.729773 11.7772 0)
(-4.70815 10.7468 0)
(-8.37455 9.3653 0)
(-11.6508 7.68768 0)
(-14.4702 5.79403 0)
(-16.6796 3.78005 0)
(-18.2581 1.9093 0)
(-19.3085 0.32534 0)
(-19.9249 -0.839097 0)
(-20.2173 -1.79032 0)
(-20.1963 -2.71963 0)
(-19.7795 -3.67399 0)
(-18.8841 -4.50219 0)
(-17.5559 -5.07225 0)
(-15.8381 -5.38645 0)
(-13.7696 -5.43172 0)
(-11.4266 -5.21111 0)
(-8.94112 -4.83183 0)
(-6.50875 -4.52771 0)
(-4.17559 -4.47971 0)
(-1.81452 -4.42043 0)
(0.430282 -3.98805 0)
(2.39376 -3.46702 0)
(4.12008 -2.95191 0)
(5.63913 -2.48359 0)
(6.92866 -2.06733 0)
(7.83504 -1.68927 0)
(8.36831 -1.35445 0)
(8.76977 -1.03821 0)
(9.12716 -0.678045 0)
(9.30713 -0.271622 0)
(9.29958 0.0437889 0)
(9.1496 0.353431 0)
(8.86853 0.753724 0)
(8.40415 1.26223 0)
(7.73173 1.81 0)
(6.88346 2.24654 0)
(5.91892 2.56126 0)
(4.88792 2.75942 0)
(3.82532 2.83237 0)
(2.76456 2.79406 0)
(1.73573 2.6919 0)
(0.76642 2.59822 0)
(-0.131865 2.5698 0)
(-1.0003 2.5523 0)
(-1.80624 2.48077 0)
(-2.60329 2.39194 0)
(-3.3473 2.1795 0)
(-4.0565 1.66933 0)
(-4.73544 1.69782 0)
(-5.34127 1.57512 0)
(-5.88832 1.30074 0)
(-6.36365 0.913144 0)
(-6.74277 0.484598 0)
(-6.99839 0.0837585 0)
(-7.15109 -0.259362 0)
(-7.2392 -0.557872 0)
(-7.30034 -0.837028 0)
(-7.34134 -1.11575 0)
(-7.3322 -1.40014 0)
(-7.23366 -1.6818 0)
(-6.98554 -1.94156 0)
(-6.50809 -2.14574 0)
(-5.87013 -2.16169 0)
(-4.98562 -2.43842 0)
(-4.02707 -2.48225 0)
(-2.9667 -2.52114 0)
(-1.72971 -2.63367 0)
(-0.327179 -2.68557 0)
(1.0571 -2.60903 0)
(2.38138 -2.50773 0)
(3.62524 -2.20081 0)
(4.8051 -2.24746 0)
(5.9 -1.893 0)
(6.84311 -1.5071 0)
(7.4752 -1.13871 0)
(7.77379 -0.808958 0)
(7.94499 -0.512315 0)
(8.07533 -0.23736 0)
(8.09813 0.0332396 0)
(7.99417 0.308941 0)
(7.77407 0.587386 0)
(7.44501 0.863953 0)
(7.01252 1.14153 0)
(6.47977 1.4167 0)
(5.8514 1.66817 0)
(5.13792 1.87745 0)
(8.714 3.25515 0)
(6.94404 4.37225 0)
(5.2005 5.4384 0)
(3.45141 6.32033 0)
(1.64156 7.04326 0)
(-0.305784 7.63906 0)
(-2.40352 8.01761 0)
(-4.52806 8.42744 0)
(-6.478 8.94511 0)
(-8.43204 9.46511 0)
(-10.3878 9.58379 0)
(-11.9387 9.30118 0)
(-13.0673 8.54712 0)
(-13.663 7.23551 0)
(-13.6506 5.48642 0)
(-13.2406 3.6207 0)
(-12.441 1.80693 0)
(-11.3098 0.157088 0)
(-9.90311 -1.27908 0)
(-8.24586 -2.45453 0)
(-6.35388 -3.30528 0)
(-4.28565 -3.81354 0)
(-2.19533 -4.04263 0)
(-0.252336 -4.07944 0)
(1.47674 -4.02574 0)
(2.93652 -3.9729 0)
(4.10548 -3.99485 0)
(4.92305 -4.09396 0)
(5.32368 -4.33335 0)
(5.36965 -4.90849 0)
(5.20357 -5.89961 0)
(4.90075 -7.30569 0)
(4.2847 -8.95627 0)
(3.67442 -10.2715 0)
(3.6044 -11.1455 0)
(4.3637 -11.5934 0)
(6.07956 -11.6492 0)
(8.5183 -11.3797 0)
(11.3365 -11.0689 0)
(14.1493 -10.7504 0)
(16.7043 -9.80417 0)
(18.3924 -7.41462 0)
(19.2773 -4.0084 0)
(19.6058 -0.204767 0)
(19.684 3.71302 0)
(19.8722 7.52406 0)
(19.5393 10.8589 0)
(18.4081 13.4094 0)
(16.473 14.9443 0)
(13.96 15.8084 0)
(11.0403 16.2623 0)
(7.62579 16.2951 0)
(4.19717 15.776 0)
(1.04728 14.6271 0)
(-1.96476 13.0686 0)
(-4.83708 11.2286 0)
(-7.43751 9.0614 0)
(-9.72867 6.28798 0)
(-11.4302 4.07697 0)
(-12.6068 1.8314 0)
(-13.5225 0.0589746 0)
(-14.5231 -1.17879 0)
(-15.5832 -2.36718 0)
(-16.3484 -3.66786 0)
(-16.5921 -4.82748 0)
(-16.4546 -5.80847 0)
(-16.0659 -6.59537 0)
(-15.4351 -7.18739 0)
(-14.4682 -7.53198 0)
(-13.1224 -7.61831 0)
(-11.4398 -7.5241 0)
(-9.55166 -7.3132 0)
(-7.68479 -6.95727 0)
(-5.85885 -6.42949 0)
(-4.00213 -5.88711 0)
(-2.05385 -5.48455 0)
(-0.0242666 -5.03276 0)
(1.84935 -4.33602 0)
(3.4832 -2.93402 0)
(4.94587 -2.0747 0)
(6.23945 -1.82509 0)
(7.29579 -1.11861 0)
(7.84846 -0.41218 0)
(7.90168 0.23029 0)
(7.79679 0.831264 0)
(7.62956 1.44729 0)
(7.2725 2.07971 0)
(6.63929 2.65576 0)
(5.81354 3.15154 0)
(4.94259 3.52627 0)
(4.03723 3.74315 0)
(3.10648 3.81868 0)
(2.17281 3.78103 0)
(1.26066 3.65255 0)
(0.428409 3.47924 0)
(-0.271225 3.31392 0)
(-0.986557 3.20209 0)
(-1.65855 3.08094 0)
(-2.18316 2.88582 0)
(-2.58063 2.65844 0)
(-2.94956 2.42321 0)
(-3.28241 2.20817 0)
(-3.39282 1.9532 0)
(-3.31957 1.62293 0)
(-3.18917 1.22882 0)
(-3.03252 0.787357 0)
(-2.87707 0.35146 0)
(-2.72488 -0.00762403 0)
(-2.58987 -0.20259 0)
(-2.49392 -0.25267 0)
(-2.45495 -0.277947 0)
(-2.46073 -0.467426 0)
(-2.50177 -0.73021 0)
(-2.58821 -1.20818 0)
(-2.73199 -1.97162 0)
(-2.87487 -2.39118 0)
(-2.99485 -2.82431 0)
(-3.08529 -3.31217 0)
(-3.05596 -3.79177 0)
(-2.95014 -4.13886 0)
(-2.76883 -4.30102 0)
(-2.44491 -4.31151 0)
(-1.91754 -4.25305 0)
(-1.13423 -4.17815 0)
(-0.154624 -4.06512 0)
(0.924295 -3.83833 0)
(2.0498 -3.33368 0)
(3.2087 -2.09934 0)
(4.3148 -1.35975 0)
(5.34065 -1.10344 0)
(6.24918 -0.739321 0)
(7.02008 -0.213459 0)
(7.61831 0.309899 0)
(8.01397 0.829757 0)
(8.20171 1.33718 0)
(8.1481 1.79687 0)
(7.90454 2.20387 0)
(7.4903 2.54977 0)
(6.91965 2.8255 0)
(2.44449 5.73266 0)
(1.10015 6.85126 0)
(-0.450371 7.84576 0)
(-2.16888 8.76337 0)
(-4.03822 9.56076 0)
(-5.99202 10.216 0)
(-7.98735 10.7856 0)
(-10.2227 11.3214 0)
(-12.2553 11.6504 0)
(-14.0109 11.5819 0)
(-15.4793 11.2863 0)
(-16.4706 10.5312 0)
(-16.8186 9.04788 0)
(-16.8357 7.13714 0)
(-16.603 4.99491 0)
(-16.237 2.81399 0)
(-15.8103 0.700148 0)
(-15.2993 -1.24919 0)
(-14.6655 -2.98171 0)
(-13.8713 -4.50201 0)
(-12.8475 -5.77552 0)
(-11.5112 -6.71852 0)
(-9.79293 -7.28359 0)
(-7.65803 -7.53814 0)
(-5.10355 -7.64756 0)
(-2.12437 -7.77398 0)
(1.30682 -7.82896 0)
(5.0606 -7.48574 0)
(8.97063 -6.97279 0)
(12.8064 -6.36056 0)
(16.1349 -5.76048 0)
(18.5486 -5.43632 0)
(19.8339 -5.50458 0)
(19.854 -5.51602 0)
(18.7758 -7.02812 0)
(17.0305 -9.07328 0)
(14.8893 -11.1331 0)
(12.6091 -12.5963 0)
(10.4166 -13.4887 0)
(8.60562 -13.8724 0)
(7.87511 -12.9438 0)
(7.82241 -10.207 0)
(8.82579 -5.49743 0)
(10.2316 -1.26102 0)
(11.7371 1.53123 0)
(13.522 5.57702 0)
(15.1942 10.4792 0)
(16.3651 13.8796 0)
(16.8326 16.4748 0)
(16.5361 18.4818 0)
(15.5708 19.8858 0)
(13.8631 20.052 0)
(11.5612 19.3747 0)
(9.10832 18.0613 0)
(6.69968 16.2586 0)
(4.42828 14.0063 0)
(2.30046 11.2392 0)
(0.138782 8.08682 0)
(-1.83835 5.11492 0)
(-3.9667 2.71218 0)
(-5.40481 1.64677 0)
(-6.69262 0.767474 0)
(-8.06659 -0.360206 0)
(-9.20252 -2.40143 0)
(-9.97261 -4.43486 0)
(-10.5506 -5.60739 0)
(-10.9637 -6.53878 0)
(-11.2003 -7.28216 0)
(-11.2637 -7.86726 0)
(-11.1377 -8.29578 0)
(-10.7571 -8.52979 0)
(-10.1747 -8.6237 0)
(-9.37959 -8.52532 0)
(-8.43899 -8.21377 0)
(-7.32283 -7.82021 0)
(-6.10329 -7.37288 0)
(-4.8803 -6.72821 0)
(-3.74351 -5.82674 0)
(-2.6059 -4.91431 0)
(-1.31012 -4.25084 0)
(-0.124378 -3.61725 0)
(0.627843 -2.65943 0)
(1.53398 -0.786275 0)
(1.97016 -0.0967873 0)
(2.30823 0.454057 0)
(2.57088 1.05769 0)
(2.64181 1.98631 0)
(2.49002 3.40494 0)
(2.18525 4.00371 0)
(1.77381 4.44013 0)
(1.29185 4.75852 0)
(0.728156 4.90402 0)
(0.100192 4.86279 0)
(-0.570633 4.68056 0)
(-1.28816 4.44441 0)
(-2.1088 4.26183 0)
(-2.98998 4.04692 0)
(-3.84118 3.82934 0)
(-4.63184 3.53271 0)
(-5.30438 3.13557 0)
(-5.84615 2.68706 0)
(-6.19189 2.22061 0)
(-6.29121 1.71836 0)
(-6.20423 1.19569 0)
(-5.98458 0.679113 0)
(-5.65877 0.196051 0)
(-5.23493 -0.216528 0)
(-4.71115 -0.530479 0)
(-4.08442 -0.753116 0)
(-3.36436 -0.943065 0)
(-2.58563 -1.16241 0)
(-1.69765 -1.41811 0)
(-0.590162 -1.63825 0)
(0.586212 -1.83486 0)
(1.64476 -1.9722 0)
(2.54826 -2.07202 0)
(3.36238 -2.21821 0)
(4.04349 -2.42195 0)
(4.47739 -2.65541 0)
(4.53237 -2.8939 0)
(4.34967 -3.17659 0)
(4.02845 -3.56715 0)
(3.60869 -4.02375 0)
(3.18117 -4.42496 0)
(2.77474 -4.54581 0)
(2.42108 -4.32218 0)
(2.15246 -3.95702 0)
(2.1656 -3.54226 0)
(2.5551 -3.12325 0)
(3.08019 -2.64401 0)
(3.58326 -2.09619 0)
(4.11913 -1.45156 0)
(4.7749 -0.757691 0)
(5.46471 -0.0605965 0)
(6.09307 0.624835 0)
(6.60679 1.31877 0)
(6.97561 2.00087 0)
(7.18315 2.63111 0)
(7.22946 3.19183 0)
(-7.43843 6.08996 0)