/*--------------------------------*- C++ -*----------------------------------*\
| =========                 |                                                 |
| \\      /  F ield         | OpenFOAM: The Open Source CFD Toolbox           |
|  \\    /   O peration     | Version:  2206                                  |
|   \\  /    A nd           | Website:  www.openfoam.com                      |
|    \\/     M anipulation  |                                                 |
\*---------------------------------------------------------------------------*/
FoamFile
{
    version     2.0;
    format      ascii;
    arch        "LSB;label=32;scalar=64";
    class       surfaceScalarField;
    location    "18.3999";
    object      ddtCorrDdt0(phi);
}
// * * * * * * * * * * * * * * * * * * * * * * * * * * * * * * * * * * * * * //

dimensions      [0 3 -2 0 0 0 0];

oriented        oriented;

internalField   nonuniform List<scalar> 
9410
(
-5.77217e-05
5.22028e-05
5.51898e-06
-8.1719e-05
-5.22183e-05
7.62157e-05
-9.73246e-05
-0.000184988
0.000200594
-3.95434e-05
-0.000367615
0.000309834
8.04712e-05
-0.000470887
0.000350872
0.000237252
-0.000493407
0.000336626
0.00039055
-0.00041911
0.000265812
0.000515172
-0.000290779
0.000166157
0.000607806
-0.00015958
6.69459e-05
0.000672396
-4.38622e-05
-2.07282e-05
0.000723486
5.17201e-05
-0.00010281
0.000766104
0.000147433
-0.000190051
0.000812457
0.000233697
-0.00028005
0.000921648
0.000256212
-0.000365403
0.00114478
0.000201253
-0.000424385
0.00141184
0.000158198
-0.000425262
0.00150184
0.000265217
-0.000355215
0.0012805
0.000531253
-0.000309916
0.000850526
0.000843508
-0.00041353
0.000399518
0.00109357
-0.000642564
4.98274e-05
0.00124738
-0.000897689
-9.24353e-05
0.00118759
-0.00104532
-0.000179769
0.00117032
-0.00108299
-0.000179134
0.00104825
-0.00104888
-0.000145977
0.0009298
-0.000962957
-0.000109816
0.000814341
-0.000850503
-8.54292e-05
0.000707027
-0.000731414
-9.46892e-05
0.000605229
-0.000595969
-0.000157444
0.000490431
-0.000427676
-0.000288727
0.000332377
-0.000201095
-0.000499343
9.73328e-05
0.000113283
-0.000756521
-0.000252606
0.000509785
-0.00101757
-0.000708482
0.000969532
-0.0012387
-0.00121789
0.00143902
-0.00138126
-0.00168347
0.00182603
-0.00138145
-0.00201616
0.00201634
-0.00123438
-0.00211378
0.00196672
-0.00100497
-0.00199236
0.00176295
-0.000740447
-0.00174281
0.00147828
-0.000478378
-0.00143136
0.0011693
-0.000244121
-0.00111027
0.000876009
-5.1427e-05
-0.000814223
0.000621529
0.000101025
-0.000562037
0.000409585
0.000225082
-0.000357967
0.00023391
0.000319077
-0.000190308
9.63127e-05
0.000375344
-5.93137e-05
3.04747e-06
0.000401848
2.75862e-05
-5.40909e-05
0.000410278
7.74151e-05
-8.5845e-05
0.000410041
0.000102106
-0.000101869
0.000407527
0.000111495
-0.000108981
0.000405465
0.000113511
-0.00011145
0.000404187
0.000113911
-0.000112633
0.000404753
0.000114778
-0.000115344
0.00041112
0.000113319
-0.000119685
0.000429615
0.000102785
-0.000121281
0.000465192
7.7882e-05
-0.000113459
0.000513933
4.30895e-05
-9.18303e-05
0.00055852
1.93832e-05
-6.39704e-05
0.000575503
3.6853e-05
-5.38356e-05
0.000548471
0.000117577
-9.05451e-05
0.000472931
0.000266484
-0.000190944
0.000357828
0.00046655
-0.000351448
0.000221401
0.000685681
-0.000549254
7.93509e-05
0.000885298
-0.000743248
-5.62246e-05
0.00104345
-0.000907873
-0.000169696
0.00113943
-0.00102596
-0.000248001
0.00114997
-0.00107167
-0.000300587
0.00109981
-0.00104723
-0.000330626
0.00101286
-0.00098282
-0.000340224
0.000901282
-0.000891684
-0.000332682
0.000777165
-0.000784707
-0.000311636
0.000651397
-0.000672442
-0.000280518
0.000532854
-0.000563973
-0.000242486
0.000428315
-0.000466347
-0.000200471
0.00034216
-0.000384176
-0.00015726
0.000276588
-0.000319799
-0.000116085
0.000231032
-0.000272207
-8.09932e-05
0.000200581
-0.000235674
-5.50294e-05
0.000175565
-0.000201529
-3.76867e-05
0.000146464
-0.000163807
-2.61929e-05
0.000109486
-0.00012098
-2.09911e-05
6.42225e-05
-6.94243e-05
-3.89144e-05
8.72882e-06
9.19449e-06
-5.58295e-05
-0.000146568
0.000163483
-0.000296566
0.000323498
7.53354e-05
-2.31326e-05
0.000149297
-0.000126179
0.000190343
-0.000226034
0.000205385
-0.000382657
0.000241281
-0.000506783
0.000295837
-0.000547963
0.000407649
-0.000530922
0.000528107
-0.000411237
0.00063774
-0.000269214
0.000744326
-0.000150448
0.000876061
-8.00144e-05
0.00106704
-4.35488e-05
0.00132647
-2.57338e-05
0.00159724
-1.45504e-05
0.00168433
0.000114163
0.00148839
0.000354137
0.00107666
0.000676942
0.000617199
0.000990716
0.00022904
0.00123167
-5.45032e-05
0.00137712
-0.000197267
0.00139014
-0.000276168
0.00126649
-0.000242517
0.00113667
-0.000180316
0.000986046
-9.23439e-05
0.000841828
4.98171e-06
0.000717016
9.61547e-05
0.000615854
0.00016555
0.000535834
0.000194341
0.00046164
0.000162313
0.000364405
4.04073e-05
0.000219238
-0.000201142
-1.10571e-05
-0.000507504
-0.000402119
-0.00079745
-0.000927943
-0.00104501
-0.0014359
-0.00119998
-0.00186118
-0.00120713
-0.00210663
-0.00108969
-0.0021098
-0.000902128
-0.00193037
-0.000680965
-0.00165253
-0.000457805
-0.00133343
-0.000254714
-0.00101731
-8.44306e-05
-0.00073232
5.07199e-05
-0.000493117
0.000165095
-0.000304684
0.000257061
-0.00015128
0.000316745
-3.20976e-05
0.000350928
4.32318e-05
0.000368779
8.42546e-05
0.00037773
0.000102545
0.000382251
0.000108991
0.000385747
0.000110414
0.000392569
0.000107957
0.000409248
9.66398e-05
0.0004415
7.05331e-05
0.000488206
3.1176e-05
0.000536277
-4.98138e-06
0.00056493
-9.27036e-06
0.000557232
4.45512e-05
0.00050452
0.000170289
0.000409999
0.000361005
0.000285701
0.000590848
0.000147824
0.000823558
6.59687e-06
0.00102652
-0.00012211
0.00117216
-0.000218902
0.00123622
-0.000283455
0.00121452
-0.000324439
0.0011408
-0.00034284
0.00103126
-0.000341336
0.000899778
-0.000323703
0.000759532
-0.000293904
0.000621598
-0.000255643
0.000494593
-0.000212132
0.000384804
-0.000166076
0.000296105
-0.00011967
0.000230182
-7.47963e-05
0.000186159
-3.37054e-05
0.00015949
-6.13717e-07
0.000142474
2.08904e-05
0.00012496
3.15833e-05
9.87933e-05
3.64293e-05
5.93765e-05
4.1005e-05
4.1531e-06
1.84333e-05
-0.000123997
-0.000266728
0.000103292
-0.000126425
0.000194937
-0.000217824
0.000279797
-0.000310894
0.000339592
-0.000442452
0.000427836
-0.000595027
0.000423615
-0.000543742
0.000561268
-0.000668575
0.000730973
-0.000580942
0.000929078
-0.000467319
0.00115056
-0.000371929
0.00136927
-0.000298725
0.0015256
-0.000199884
0.001567
-6.71264e-05
0.00142272
0.000129727
0.00112486
0.000412028
0.000749916
0.000729077
0.000384398
0.00104246
5.04402e-05
0.00132467
-0.000223917
0.00150602
-0.000364297
0.0015175
-0.000382479
0.00140832
-0.000363009
0.00124702
-0.000294209
0.00106787
-0.000193108
0.000884946
-6.79855e-05
0.000716706
7.04075e-05
0.000578623
0.000209188
0.000477073
0.000330346
0.000414676
0.000407649
0.000384337
0.000432476
0.000339579
0.000402799
0.000248914
0.000283365
0.000108377
2.35567e-05
-0.00014231
-0.000304492
-0.000599894
-0.000625884
-0.00111451
-0.000886294
-0.00160077
-0.00103685
-0.00195608
-0.0010465
-0.00210015
-0.000957004
-0.00201987
-0.000804044
-0.00180549
-0.000620127
-0.00151734
-0.000431568
-0.00120587
-0.000256493
-0.000907395
-0.000106104
-0.000643506
1.34211e-05
-0.000424209
0.000115767
-0.000253626
0.000201605
-0.000117935
0.000265829
-2.09927e-05
0.00030633
4.37541e-05
0.000331111
7.77636e-05
0.000345989
9.41126e-05
0.000358188
9.82155e-05
0.00037568
9.04649e-05
0.000405525
6.67946e-05
0.000449167
2.68908e-05
0.000498408
-1.80645e-05
0.000536557
-4.31304e-05
0.000546586
-1.92995e-05
0.000517105
7.40326e-05
0.000446662
0.000240732
0.000341065
0.000466602
0.000210306
0.000721608
6.766e-05
0.000966204
-6.90248e-05
0.00116321
-0.000183528
0.00128666
-0.000263519
0.00131621
-0.00031588
0.00126689
-0.000343787
0.00116871
-0.000349214
0.00103669
-0.000335542
0.000886106
-0.000307276
0.000731266
-0.000268679
0.000583001
-0.000223672
0.000449586
-0.000175384
0.000336516
-0.000126168
0.000246888
-7.81979e-05
0.000182212
-3.32325e-05
0.000141193
8.89584e-06
0.000117362
4.80448e-05
0.000103325
7.82085e-05
9.47961e-05
9.51333e-05
8.18685e-05
0.000100517
5.39927e-05
0.000106573
-1.90299e-06
8.50934e-05
-0.000102517
-0.000237412
7.22089e-05
-0.000198634
0.000145758
-0.000291374
0.000217914
-0.00038305
0.000287273
-0.000511812
0.000347422
-0.000655177
0.000415594
-0.000611913
0.000516335
-0.000769316
0.000653187
-0.000717794
0.000809302
-0.000623434
0.000938851
-0.000501478
0.000997476
-0.00035735
0.000967197
-0.000169605
0.000866243
3.38278e-05
0.000667473
0.000328496
0.000442702
0.000636799
0.000156249
0.00101553
-0.000168855
0.00136756
-0.000413969
0.00156979
-0.000521127
0.00161318
-0.000528426
0.00152479
-0.000492183
0.00137208
-0.00042365
0.00117848
-0.000324992
0.000969216
-0.00020392
0.000763874
-6.55415e-05
0.000578327
8.84163e-05
0.000424665
0.000252531
0.000312959
0.000424321
0.000242886
0.000568918
0.00023974
0.000644661
0.000263836
0.000637022
0.000256554
0.000572839
0.00017256
0.000447122
-1.65941e-05
0.0001933
-0.000346072
-0.000172845
-0.000748367
-0.000512995
-0.00126062
-0.000764747
-0.00170433
-0.000897994
-0.0019669
-0.000909652
-0.00200821
-0.000840611
-0.00187453
-0.000715398
-0.00164256
-0.000561533
-0.00135974
-0.000401926
-0.001067
-0.000251937
-0.000793496
-0.000120473
-0.000555672
-1.36858e-05
-0.000360413
7.66287e-05
-0.00020825
0.000159049
-0.000103413
0.00022566
-2.28574e-05
0.000269886
3.35376e-05
0.000296938
6.7061e-05
0.000321332
7.38207e-05
0.00035254
5.92577e-05
0.00039483
2.45037e-05
0.00044443
-2.27092e-05
0.00048927
-6.2904e-05
0.000513655
-6.75157e-05
0.000506002
-1.16459e-05
0.000460315
0.000119719
0.000376632
0.000324415
0.000260788
0.000582446
0.000125254
0.000857141
-1.33918e-05
0.00110485
-0.0001401
0.00128992
-0.000240234
0.00138679
-0.000304651
0.00138063
-0.000343011
0.00130525
-0.000356177
0.00118187
-0.000347331
0.00102784
-0.000320752
0.000859527
-0.000281778
0.000692292
-0.00023507
0.000536293
-0.000184596
0.000399113
-0.000133517
0.000285438
-8.32555e-05
0.000196626
-3.56583e-05
0.000134615
1.0758e-05
9.47771e-05
5.71194e-05
7.10006e-05
9.82021e-05
6.22419e-05
0.000130171
6.28272e-05
0.000151428
6.06119e-05
0.000162301
4.31197e-05
0.000163036
-2.63794e-06
0.000147479
-8.69599e-05
-0.000209483
4.98809e-05
8.43911e-05
0.00011868
0.000139574
0.000126385
0.000211254
0.000204432
0.000230866
0.000275824
0.000317371
0.000333712
0.000319166
0.000246038
8.73609e-05
-0.000181468
-0.000443506
-0.000608632
-0.00068097
-0.000667624
-0.000614126
-0.000527417
-0.000417815
-0.000292621
-0.000159152
-2.84927e-05
9.83448e-05
0.000228045
0.000375673
0.000577611
0.000760408
0.000847278
0.000816107
0.000692954
0.000498737
0.00024679
-0.000109356
-0.000445571
-0.000674451
-0.000784059
-0.000796701
-0.000741246
-0.000637849
-0.000508828
-0.000373322
-0.000244093
-0.000128312
-2.86339e-05
5.03269e-05
0.000123593
0.000188262
0.000238911
0.000279952
0.000325426
0.000376201
0.000425353
0.0004605
0.000470583
0.000447552
0.00038737
0.000290919
0.000167484
3.30042e-05
-9.80218e-05
-0.000212002
-0.000293201
-0.000341916
-0.000363318
-0.000359742
-0.000335425
-0.000295801
-0.000246473
-0.000192669
-0.000138199
-8.61543e-05
-3.77305e-05
1.02264e-05
5.99911e-05
0.00010661
0.000146147
0.000178082
0.000201264
0.000214696
0.000216683
-4.62474e-06
0.000204449
-7.47263e-05
-0.000183091
0.000264228
0.000254493
3.28975e-06
3.1716e-07
2.99649e-06
2.93276e-07
2.76177e-06
2.34723e-07
2.61288e-06
1.48906e-07
2.57215e-06
4.07265e-08
2.65673e-06
-8.45608e-08
2.87736e-06
-2.20626e-07
3.23834e-06
-3.60967e-07
3.73254e-06
-4.9419e-07
4.33779e-06
-6.05229e-07
5.04453e-06
-7.06742e-07
5.8115e-06
-7.66955e-07
6.596e-06
-7.84504e-07
7.33025e-06
-7.34232e-07
7.94435e-06
-6.141e-07
8.37249e-06
-4.28116e-07
8.55986e-06
-1.87366e-07
8.47654e-06
8.33418e-08
8.03639e-06
4.40153e-07
7.26243e-06
7.7397e-07
6.29404e-06
9.68375e-07
5.253e-06
1.04106e-06
4.22635e-06
1.02664e-06
3.2748e-06
9.51574e-07
2.43887e-06
8.3593e-07
1.74135e-06
6.97539e-07
1.18937e-06
5.51972e-07
7.78266e-07
4.11119e-07
4.953e-07
2.82946e-07
3.224e-07
1.72913e-07
2.3716e-07
8.52302e-08
2.13609e-07
2.35713e-08
2.22503e-07
-8.89976e-09
2.34777e-07
-1.22523e-08
2.24305e-07
1.04608e-08
1.69594e-07
5.47217e-08
5.56418e-08
1.1393e-07
-1.24396e-07
1.8005e-07
-3.67469e-07
2.43063e-07
-6.55435e-07
2.8799e-07
-9.4958e-07
2.94142e-07
-1.19665e-06
2.47093e-07
-1.34641e-06
1.49757e-07
-1.3632e-06
1.68032e-08
-1.22903e-06
-1.34194e-07
-9.48983e-07
-2.80025e-07
-5.57876e-07
-3.91112e-07
-1.22914e-07
-4.3493e-07
2.59329e-07
-3.82238e-07
4.67396e-07
-2.08037e-07
3.5425e-07
1.13137e-07
-2.18904e-07
5.7316e-07
-1.30049e-06
1.08156e-06
-2.86164e-06
1.56115e-06
-4.79242e-06
1.93075e-06
-6.9318e-06
2.13938e-06
-9.17448e-06
2.24266e-06
-1.14291e-05
2.25458e-06
-1.36811e-05
2.25205e-06
2.2756e-06
-1.59567e-05
4.90331e-06
6.5308e-07
4.56134e-06
6.35246e-07
4.22442e-06
5.71655e-07
3.90689e-06
4.6644e-07
3.62549e-06
3.22135e-07
3.39654e-06
1.44393e-07
3.23456e-06
-5.86356e-08
3.15479e-06
-2.81184e-07
3.17049e-06
-5.0988e-07
3.23987e-06
-6.746e-07
3.43414e-06
-9.01005e-07
3.72018e-06
-1.05299e-06
4.10655e-06
-1.17087e-06
4.54571e-06
-1.17338e-06
5.03619e-06
-1.10458e-06
5.55934e-06
-9.51255e-07
6.08554e-06
-7.13558e-07
6.61044e-06
-4.41548e-07
7.15875e-06
-1.08156e-07
7.6867e-06
2.46025e-07
8.07182e-06
5.83258e-07
8.25115e-06
8.6173e-07
8.2009e-06
1.0769e-06
7.91965e-06
1.23283e-06
7.42065e-06
1.33493e-06
6.72914e-06
1.38906e-06
5.87866e-06
1.40245e-06
4.9082e-06
1.38158e-06
3.86087e-06
1.33027e-06
2.78139e-06
1.25239e-06
1.71251e-06
1.15411e-06
6.93337e-07
1.04276e-06
-2.39472e-07
9.23911e-07
-1.0542e-06
8.02477e-07
-1.72564e-06
6.819e-07
-2.23532e-06
5.64403e-07
-2.57215e-06
4.50753e-07
-2.73258e-06
3.40488e-07
-2.72181e-06
2.32292e-07
-2.55683e-06
1.23021e-07
-2.28132e-06
1.86283e-08
-1.96756e-06
-6.66507e-08
-1.69161e-06
-1.26197e-07
-1.52282e-06
-1.51979e-07
-1.52566e-06
-1.31365e-07
-1.75405e-06
-5.16267e-08
-2.2437e-06
9.85451e-08
-3.00549e-06
3.26881e-07
-4.02413e-06
6.36414e-07
-5.25649e-06
1.02433e-06
-6.61654e-06
1.47319e-06
-8.0021e-06
1.95872e-06
-9.35853e-06
2.43797e-06
-1.06608e-05
2.86336e-06
-1.19321e-05
3.20206e-06
-1.32251e-05
3.43241e-06
-1.45555e-05
3.57305e-06
-1.5947e-05
3.64605e-06
-1.73843e-05
3.68934e-06
3.69798e-06
-1.88066e-05
5.83467e-06
9.49081e-07
5.52123e-06
9.48691e-07
5.18162e-06
9.11272e-07
4.82115e-06
8.26908e-07
4.4503e-06
6.92994e-07
4.0817e-06
5.13004e-07
3.72942e-06
2.93647e-07
3.40846e-06
3.97874e-08
3.13318e-06
-2.34594e-07
2.91785e-06
-4.59262e-07
2.77512e-06
-7.58265e-07
2.71486e-06
-9.92727e-07
2.74414e-06
-1.20015e-06
2.87037e-06
-1.29961e-06
3.09683e-06
-1.33103e-06
3.42351e-06
-1.27792e-06
3.84511e-06
-1.13515e-06
4.34762e-06
-9.44043e-07
4.90933e-06
-6.69867e-07
5.50244e-06
-3.47079e-07
6.09255e-06
-6.85554e-09
6.63033e-06
3.23957e-07
7.07573e-06
6.31505e-07
7.3981e-06
9.10472e-07
7.57631e-06
1.15672e-06
7.59889e-06
1.36649e-06
7.46077e-06
1.54057e-06
7.16381e-06
1.67854e-06
6.71918e-06
1.7749e-06
6.14578e-06
1.8258e-06
5.46775e-06
1.83214e-06
4.71261e-06
1.79789e-06
3.90926e-06
1.72726e-06
3.08682e-06
1.62492e-06
2.27274e-06
1.49598e-06
1.49152e-06
1.34562e-06
7.63254e-07
1.17901e-06
1.02066e-07
1.00168e-06
-4.85434e-07
8.19795e-07
-1.00426e-06
6.41857e-07
-1.46155e-06
4.75922e-07
-1.86357e-06
3.35369e-07
-2.22987e-06
2.40107e-07
-2.59114e-06
2.0929e-07
-2.98281e-06
2.60305e-07
-3.44342e-06
4.08986e-07
-4.012e-06
6.67134e-07
-4.72468e-06
1.03957e-06
-5.60896e-06
1.5207e-06
-6.6777e-06
2.09307e-06
-7.931e-06
2.72649e-06
-9.34895e-06
3.37667e-06
-1.08978e-05
3.98684e-06
-1.25316e-05
4.49711e-06
-1.41985e-05
4.86901e-06
-1.58415e-05
5.07542e-06
-1.73808e-05
5.11231e-06
-1.87204e-05
4.98564e-06
-1.97354e-05
4.70436e-06
4.27133e-06
-2.03088e-05
6.35318e-06
1.20402e-06
6.041e-06
1.26088e-06
5.68221e-06
1.27007e-06
5.28674e-06
1.22238e-06
4.86642e-06
1.11332e-06
4.43364e-06
9.45791e-07
4.00248e-06
7.24815e-07
3.5861e-06
4.56176e-07
3.19543e-06
1.56086e-07
2.89375e-06
-1.57577e-07
2.62809e-06
-4.92597e-07
2.43906e-06
-8.03687e-07
2.32085e-06
-1.08194e-06
2.31997e-06
-1.29871e-06
2.42999e-06
-1.44104e-06
2.65469e-06
-1.50261e-06
2.99537e-06
-1.47583e-06
3.4192e-06
-1.36787e-06
3.92592e-06
-1.17658e-06
4.49505e-06
-9.16211e-07
5.09593e-06
-6.07727e-07
5.69091e-06
-2.71024e-07
6.2438e-06
7.86234e-08
6.72329e-06
4.30987e-07
7.10639e-06
7.73618e-07
7.38062e-06
1.09227e-06
7.53987e-06
1.38131e-06
7.57767e-06
1.64074e-06
7.4898e-06
1.86277e-06
7.28087e-06
2.03472e-06
6.96331e-06
2.14971e-06
6.55422e-06
2.20698e-06
6.07231e-06
2.20918e-06
5.53622e-06
2.16101e-06
4.96359e-06
2.06861e-06
4.37014e-06
1.93907e-06
3.76874e-06
1.78041e-06
3.16871e-06
1.60171e-06
2.57613e-06
1.41238e-06
1.99209e-06
1.2259e-06
1.4118e-06
1.05622e-06
8.28967e-07
9.18201e-07
2.36504e-07
8.3257e-07
-3.72242e-07
8.18036e-07
-1.00183e-06
8.89889e-07
-1.65451e-06
1.06168e-06
-2.33013e-06
1.34275e-06
-3.02623e-06
1.73568e-06
-3.73812e-06
2.2326e-06
-4.46061e-06
2.81557e-06
-5.1915e-06
3.45738e-06
-5.93144e-06
4.1166e-06
-6.68686e-06
4.74226e-06
-7.47224e-06
5.28248e-06
-8.29829e-06
5.69505e-06
-9.1735e-06
5.95063e-06
-1.00929e-05
6.03173e-06
-1.10374e-05
5.93009e-06
-1.19777e-05
5.64471e-06
5.18159e-06
-1.2888e-05
6.56485e-06
1.5214e-06
6.19619e-06
1.62955e-06
5.79058e-06
1.67569e-06
5.3455e-06
1.66746e-06
4.87415e-06
1.58467e-06
4.38838e-06
1.43157e-06
3.90384e-06
1.20936e-06
3.4447e-06
9.15328e-07
3.02213e-06
5.78661e-07
2.66481e-06
1.99753e-07
2.37915e-06
-2.06932e-07
2.17177e-06
-5.96304e-07
2.06657e-06
-9.76734e-07
2.077e-06
-1.30914e-06
2.19914e-06
-1.56317e-06
2.44438e-06
-1.74784e-06
2.79081e-06
-1.82225e-06
3.22701e-06
-1.80407e-06
3.74096e-06
-1.69053e-06
4.311e-06
-1.48624e-06
4.90727e-06
-1.204e-06
5.49768e-06
-8.61436e-07
6.05112e-06
-4.74816e-07
6.54179e-06
-5.96721e-08
6.94926e-06
3.66145e-07
7.26101e-06
7.80527e-07
7.47261e-06
1.1697e-06
7.58358e-06
1.52978e-06
7.59503e-06
1.85132e-06
7.51141e-06
2.11835e-06
7.34139e-06
2.31972e-06
7.09657e-06
2.4518e-06
6.79016e-06
2.51559e-06
6.43573e-06
2.51543e-06
6.04589e-06
2.45845e-06
5.63121e-06
2.35374e-06
5.19929e-06
2.21232e-06
4.75541e-06
2.04558e-06
4.29939e-06
1.86841e-06
3.83213e-06
1.69315e-06
3.35775e-06
1.5306e-06
2.87312e-06
1.40283e-06
2.37372e-06
1.33197e-06
1.85957e-06
1.33219e-06
1.33339e-06
1.41607e-06
8.00314e-07
1.59475e-06
2.6849e-07
1.87458e-06
-2.52262e-07
2.25644e-06
-7.46746e-07
2.72709e-06
-1.21012e-06
3.27895e-06
-1.64518e-06
3.89245e-06
-2.05205e-06
4.52347e-06
-2.44354e-06
5.13375e-06
-2.83864e-06
5.67757e-06
-3.2604e-06
6.11681e-06
-3.73876e-06
6.429e-06
-4.30088e-06
6.59384e-06
-4.96798e-06
6.5972e-06
-5.75662e-06
6.43336e-06
6.09811e-06
-6.67315e-06
6.80917e-06
1.844e-06
6.40189e-06
2.03683e-06
5.92613e-06
2.15146e-06
5.39594e-06
2.19766e-06
4.83017e-06
2.15044e-06
4.25e-06
2.01175e-06
3.67494e-06
1.78442e-06
3.13351e-06
1.45677e-06
2.64622e-06
1.06596e-06
2.23581e-06
6.10169e-07
1.92082e-06
1.08064e-07
1.7138e-06
-3.89284e-07
1.62887e-06
-8.91792e-07
1.67537e-06
-1.35564e-06
1.85749e-06
-1.74528e-06
2.17381e-06
-2.06416e-06
2.6113e-06
-2.25974e-06
3.14968e-06
-2.34244e-06
3.76651e-06
-2.30736e-06
4.43019e-06
-2.14993e-06
5.10496e-06
-1.87876e-06
5.75893e-06
-1.51541e-06
6.35788e-06
-1.07376e-06
6.87808e-06
-5.79868e-07
7.29795e-06
-5.37255e-08
7.59418e-06
4.84298e-07
7.76003e-06
1.00385e-06
7.81497e-06
1.47483e-06
7.7831e-06
1.88318e-06
7.67747e-06
2.22398e-06
7.50605e-06
2.49114e-06
7.27855e-06
2.6793e-06
7.00639e-06
2.78775e-06
6.70137e-06
2.82045e-06
6.37461e-06
2.7852e-06
6.03553e-06
2.69282e-06
5.69083e-06
2.55702e-06
5.34466e-06
2.39175e-06
4.99583e-06
2.21723e-06
4.64781e-06
2.04118e-06
4.30556e-06
1.87285e-06
3.9597e-06
1.74869e-06
3.60572e-06
1.68594e-06
3.24866e-06
1.68925e-06
2.89184e-06
1.77289e-06
2.54028e-06
1.94632e-06
2.20048e-06
2.21438e-06
1.87969e-06
2.57724e-06
1.57587e-06
3.03091e-06
1.30281e-06
3.55202e-06
1.08162e-06
4.11364e-06
8.96008e-07
4.70908e-06
7.23441e-07
5.30632e-06
5.49873e-07
5.85114e-06
3.47037e-07
6.31965e-06
7.69264e-08
6.69911e-06
-2.93011e-07
6.96378e-06
-8.04883e-07
7.10907e-06
-1.50104e-06
7.12952e-06
7.0045e-06
-2.40743e-06
7.01616e-06
2.23522e-06
6.53547e-06
2.51752e-06
5.97268e-06
2.71426e-06
5.34562e-06
2.82473e-06
4.67245e-06
2.82361e-06
3.98236e-06
2.70185e-06
3.30514e-06
2.46165e-06
2.66959e-06
2.09233e-06
2.11153e-06
1.62403e-06
1.65328e-06
1.06843e-06
1.31279e-06
4.48553e-07
1.11825e-06
-1.9474e-07
1.07283e-06
-8.46367e-07
1.19112e-06
-1.47392e-06
1.46663e-06
-2.02078e-06
1.88197e-06
-2.4795e-06
2.42863e-06
-2.80639e-06
3.07457e-06
-2.98837e-06
3.79142e-06
-3.02421e-06
4.54327e-06
-2.90179e-06
5.29469e-06
-2.63018e-06
6.01092e-06
-2.23164e-06
6.66059e-06
-1.72343e-06
7.21969e-06
-1.13897e-06
7.67002e-06
-5.04055e-07
7.99839e-06
1.55925e-07
8.19834e-06
8.039e-07
8.27171e-06
1.40146e-06
8.22878e-06
1.92612e-06
8.08733e-06
2.36542e-06
7.86723e-06
2.71125e-06
7.58773e-06
2.9588e-06
7.26744e-06
3.10804e-06
6.92397e-06
3.16391e-06
6.57269e-06
3.13648e-06
6.2254e-06
3.04012e-06
5.891e-06
2.89141e-06
5.57724e-06
2.70551e-06
5.29645e-06
2.49802e-06
5.03739e-06
2.30023e-06
4.77628e-06
2.13396e-06
4.52892e-06
1.99605e-06
4.30861e-06
1.90625e-06
4.10344e-06
1.89443e-06
3.90656e-06
1.96977e-06
3.71825e-06
2.13463e-06
3.54157e-06
2.39106e-06
3.38096e-06
2.73784e-06
3.24548e-06
3.16641e-06
3.13324e-06
3.66426e-06
3.0435e-06
4.20338e-06
2.94985e-06
4.80272e-06
2.84441e-06
5.41176e-06
2.7367e-06
5.95885e-06
2.58336e-06
6.473e-06
2.34698e-06
6.93548e-06
1.98271e-06
7.32805e-06
1.46804e-06
7.62375e-06
7.84763e-07
7.8128e-06
7.90818e-06
-1.18915e-07
7.34495e-06
2.69442e-06
6.77231e-06
3.09016e-06
6.09498e-06
3.3916e-06
5.33484e-06
3.58487e-06
4.51675e-06
3.64172e-06
3.67635e-06
3.54226e-06
2.85693e-06
3.28107e-06
2.09356e-06
2.85571e-06
1.43186e-06
2.28573e-06
9.01379e-07
1.59891e-06
5.23154e-07
8.26784e-07
3.27965e-07
4.5462e-10
3.24989e-07
-8.43385e-07
5.17003e-07
-1.66593e-06
9.01673e-07
-2.40545e-06
1.47213e-06
-3.04995e-06
2.18929e-06
-3.52355e-06
3.02054e-06
-3.81962e-06
3.91938e-06
-3.92304e-06
4.8416e-06
-3.82401e-06
5.74329e-06
-3.53186e-06
6.57942e-06
-3.06776e-06
7.31482e-06
-2.45883e-06
7.91701e-06
-1.74116e-06
8.36723e-06
-9.5428e-07
8.66451e-06
-1.41355e-07
8.8148e-06
6.53609e-07
8.82101e-06
1.39524e-06
8.69338e-06
2.05374e-06
8.45406e-06
2.60473e-06
8.13046e-06
3.03484e-06
7.75059e-06
3.33866e-06
7.34144e-06
3.51719e-06
6.926e-06
3.57934e-06
6.52349e-06
3.53899e-06
6.14753e-06
3.41607e-06
5.81029e-06
3.22864e-06
5.5185e-06
2.99729e-06
5.26512e-06
2.7514e-06
5.05696e-06
2.50838e-06
4.89677e-06
2.29415e-06
4.76944e-06
2.12337e-06
4.66528e-06
2.0104e-06
4.58383e-06
1.97588e-06
4.5226e-06
2.03099e-06
4.4771e-06
2.18013e-06
4.44261e-06
2.42555e-06
4.41913e-06
2.76133e-06
4.40666e-06
3.17887e-06
4.40275e-06
3.66817e-06
4.38162e-06
4.22451e-06
4.39897e-06
4.78536e-06
4.44014e-06
5.37059e-06
4.39226e-06
6.00674e-06
4.24806e-06
6.6172e-06
4.00078e-06
7.18277e-06
3.62977e-06
7.69908e-06
3.09484e-06
8.15868e-06
2.35515e-06
8.5525e-06
8.88399e-06
1.37934e-06
7.80941e-06
3.23424e-06
7.12459e-06
3.77499e-06
6.3083e-06
4.20789e-06
5.38322e-06
4.50996e-06
4.3792e-06
4.64574e-06
3.34393e-06
4.57754e-06
2.33048e-06
4.29453e-06
1.39539e-06
3.79081e-06
5.90573e-07
3.09055e-06
-5.44044e-08
2.24389e-06
-4.99191e-07
1.27158e-06
-7.08992e-07
2.10262e-07
-6.67478e-07
-8.84895e-07
-3.78078e-07
-1.95532e-06
1.58045e-07
-2.94157e-06
9.06476e-07
-3.79837e-06
1.83483e-06
-4.4519e-06
2.90959e-06
-4.89437e-06
4.05833e-06
-5.07178e-06
5.22307e-06
-4.98875e-06
6.34323e-06
-4.65203e-06
7.36147e-06
-4.086e-06
8.2309e-06
-3.32826e-06
8.91736e-06
-2.42761e-06
9.40224e-06
-1.43916e-06
9.6808e-06
-4.19921e-07
9.75777e-06
5.76636e-07
9.64901e-06
1.50401e-06
9.38018e-06
2.32256e-06
8.98343e-06
3.00148e-06
8.49567e-06
3.5226e-06
7.95524e-06
3.87908e-06
7.39832e-06
4.07411e-06
6.85461e-06
4.12304e-06
6.34898e-06
4.04461e-06
5.90008e-06
3.86496e-06
5.52238e-06
3.60633e-06
5.22079e-06
3.29888e-06
4.99505e-06
2.97712e-06
4.8385e-06
2.66493e-06
4.74802e-06
2.38463e-06
4.72069e-06
2.1507e-06
4.73811e-06
1.99297e-06
4.78711e-06
1.92687e-06
4.85883e-06
1.95926e-06
4.94538e-06
2.09358e-06
5.03982e-06
2.33111e-06
5.13765e-06
2.66349e-06
5.23423e-06
3.08229e-06
5.3232e-06
3.5792e-06
5.40545e-06
4.14226e-06
5.43841e-06
4.7524e-06
5.42279e-06
5.3862e-06
5.37806e-06
6.05148e-06
5.26289e-06
6.73237e-06
5.04266e-06
7.40302e-06
4.68892e-06
8.05281e-06
4.1696e-06
8.67801e-06
3.44628e-06
9.27583e-06
9.84746e-06
2.48282e-06
8.44629e-06
3.86251e-06
7.63241e-06
4.58888e-06
6.64916e-06
5.19114e-06
5.52013e-06
5.639e-06
4.28048e-06
5.88539e-06
2.98527e-06
5.87276e-06
1.71519e-06
5.56462e-06
5.58294e-07
4.94771e-06
-4.50703e-07
4.09955e-06
-1.2602e-06
3.05341e-06
-1.81013e-06
1.82151e-06
-2.06044e-06
4.60581e-07
-1.98619e-06
-9.5914e-07
-1.58016e-06
-2.36134e-06
-8.57679e-07
-3.66405e-06
1.31509e-07
-4.78755e-06
1.34638e-06
-5.66677e-06
2.71414e-06
-6.26213e-06
4.17728e-06
-6.53492e-06
5.65349e-06
-6.46495e-06
7.05669e-06
-6.05523e-06
8.31218e-06
-5.34148e-06
9.36003e-06
-4.37612e-06
1.01594e-05
-3.22694e-06
1.06879e-05
-1.96771e-06
1.09408e-05
-6.72763e-07
1.09299e-05
5.87444e-07
1.06834e-05
1.75055e-06
1.02403e-05
2.76561e-06
9.6465e-06
3.59531e-06
8.95184e-06
4.21725e-06
8.20691e-06
4.624e-06
7.45796e-06
4.82305e-06
6.74641e-06
4.83459e-06
6.10361e-06
4.6874e-06
5.55347e-06
4.4151e-06
5.11218e-06
4.0476e-06
4.78312e-06
3.62794e-06
4.56001e-06
3.20022e-06
4.43817e-06
2.78677e-06
4.42418e-06
2.3986e-06
4.50199e-06
2.07289e-06
4.64429e-06
1.85066e-06
4.83113e-06
1.74003e-06
5.04611e-06
1.74427e-06
5.27359e-06
1.86611e-06
5.50133e-06
2.10336e-06
5.71893e-06
2.4459e-06
5.91756e-06
2.88365e-06
6.0897e-06
3.40707e-06
6.22868e-06
4.00328e-06
6.32447e-06
4.65662e-06
6.35816e-06
5.35252e-06
6.32383e-06
6.08582e-06
6.20803e-06
6.84817e-06
5.98688e-06
7.62418e-06
5.63451e-06
8.40519e-06
5.1226e-06
9.18994e-06
4.41893e-06
9.97949e-06
1.07742e-05
3.4922e-06
9.30651e-06
4.58827e-06
8.33802e-06
5.55737e-06
7.15432e-06
6.37487e-06
5.77667e-06
7.01665e-06
4.23236e-06
7.42972e-06
2.59413e-06
7.51099e-06
9.99759e-07
7.15901e-06
-4.60432e-07
6.4079e-06
-1.75325e-06
5.3924e-06
-2.78772e-06
4.08787e-06
-3.49065e-06
2.52445e-06
-3.80753e-06
7.77451e-07
-3.70429e-06
-1.06236e-06
-3.17289e-06
-2.89275e-06
-2.23101e-06
-4.60591e-06
-9.237e-07
-6.09487e-06
6.71293e-07
-7.26174e-06
2.44613e-06
-8.03699e-06
4.31432e-06
-8.40308e-06
6.19274e-06
-8.34339e-06
7.95837e-06
-7.82084e-06
9.51617e-06
-6.8993e-06
1.07879e-05
-5.64779e-06
1.17228e-05
-4.16188e-06
1.22963e-05
-2.54122e-06
1.2508e-05
-8.84501e-07
1.238e-05
7.15448e-07
1.19532e-05
2.17733e-06
1.12825e-05
3.43636e-06
1.04318e-05
4.44601e-06
9.46935e-06
5.1797e-06
8.46306e-06
5.63027e-06
7.47516e-06
5.81096e-06
6.55729e-06
5.75244e-06
5.74878e-06
5.49593e-06
5.08071e-06
5.08314e-06
4.56875e-06
4.55958e-06
4.207e-06
3.98966e-06
3.98623e-06
3.421e-06
3.91863e-06
2.85434e-06
4.00091e-06
2.31635e-06
4.1928e-06
1.88098e-06
4.46542e-06
1.57805e-06
4.79655e-06
1.40887e-06
5.16236e-06
1.37848e-06
5.53999e-06
1.48846e-06
5.9112e-06
1.73217e-06
6.26095e-06
2.09612e-06
6.57791e-06
2.56671e-06
6.85275e-06
3.1322e-06
7.07639e-06
3.77967e-06
7.23757e-06
4.49542e-06
7.32272e-06
5.2674e-06
7.32218e-06
6.08635e-06
7.22573e-06
6.94466e-06
7.01545e-06
7.83445e-06
6.66863e-06
8.75205e-06
6.16017e-06
9.69837e-06
5.46281e-06
1.06769e-05
1.16902e-05
4.54673e-06
1.04539e-05
5.42039e-06
9.30077e-06
6.71053e-06
7.87828e-06
7.79736e-06
6.19903e-06
8.69592e-06
4.26046e-06
9.36828e-06
2.18483e-06
9.58665e-06
1.74092e-07
9.16974e-06
-1.70874e-06
8.29076e-06
-3.38107e-06
7.06472e-06
-4.72547e-06
5.4323e-06
-5.6471e-06
3.44607e-06
-6.0696e-06
1.19997e-06
-5.94477e-06
-1.1872e-06
-5.25926e-06
-3.57822e-06
-4.03777e-06
-5.82742e-06
-2.34005e-06
-7.79256e-06
-2.60344e-07
-9.34147e-06
2.06638e-06
-1.03637e-05
4.48347e-06
-1.08202e-05
6.89243e-06
-1.07523e-05
9.137e-06
-1.00654e-05
1.10862e-05
-8.84851e-06
1.26412e-05
-7.20278e-06
1.3739e-05
-5.2597e-06
1.43546e-05
-3.1568e-06
1.44955e-05
-1.02533e-06
1.41978e-05
1.01305e-06
1.35216e-05
2.85357e-06
1.25439e-05
4.41401e-06
1.13526e-05
5.63737e-06
1.00398e-05
6.49245e-06
8.69606e-06
6.97405e-06
7.40297e-06
7.10401e-06
6.22784e-06
6.92759e-06
5.22203e-06
6.50172e-06
4.42076e-06
5.88443e-06
3.83112e-06
5.14919e-06
3.43628e-06
4.38453e-06
3.24018e-06
3.61706e-06
3.26239e-06
2.83215e-06
3.46324e-06
2.11547e-06
3.7932e-06
1.55104e-06
4.2229e-06
1.14832e-06
4.72104e-06
9.10756e-07
5.25522e-06
8.44275e-07
5.79679e-06
9.46919e-07
6.32274e-06
1.20619e-06
6.81504e-06
1.60385e-06
7.25945e-06
2.12227e-06
7.64498e-06
2.74671e-06
7.96149e-06
3.46314e-06
8.1993e-06
4.25765e-06
8.34933e-06
5.11735e-06
8.40352e-06
6.0322e-06
8.3527e-06
6.99546e-06
8.18302e-06
8.00418e-06
7.87558e-06
9.05947e-06
7.40756e-06
1.01664e-05
6.75213e-06
1.13323e-05
1.25649e-05
5.87749e-06
1.29181e-05
4.52897e-06
1.1973e-05
6.3655e-06
1.0601e-05
8.08251e-06
8.89183e-06
9.50657e-06
6.84456e-06
1.07432e-05
4.41566e-06
1.17972e-05
1.78104e-06
1.22213e-05
-7.865e-07
1.17373e-05
-3.23795e-06
1.07422e-05
-5.41967e-06
9.24645e-06
-7.1906e-06
7.20323e-06
-8.42089e-06
4.67638e-06
-9.00377e-06
1.78286e-06
-8.86979e-06
-1.32117e-06
-7.99636e-06
-4.45164e-06
-6.41407e-06
-7.40969e-06
-4.20474e-06
-1.00019e-05
-1.49389e-06
-1.20523e-05
1.54706e-06
-1.34046e-05
4.70485e-06
-1.3978e-05
7.80294e-06
-1.38504e-05
1.06842e-05
-1.29467e-05
1.31442e-05
-1.13085e-05
1.50607e-05
-9.11927e-06
1.63572e-05
-6.55617e-06
1.70087e-05
-3.80836e-06
1.7035e-05
-1.05156e-06
1.64935e-05
1.55448e-06
1.5472e-05
3.87505e-06
1.40788e-05
5.80722e-06
1.24335e-05
7.28269e-06
1.06589e-05
8.26705e-06
8.87394e-06
8.75903e-06
7.18646e-06
8.79149e-06
5.68645e-06
8.42759e-06
4.44008e-06
7.74809e-06
3.48327e-06
6.84122e-06
2.80845e-06
5.824e-06
2.39429e-06
4.79868e-06
2.26197e-06
3.74939e-06
2.40579e-06
2.68832e-06
2.75809e-06
1.76318e-06
3.27076e-06
1.03836e-06
3.90211e-06
5.16976e-07
4.60818e-06
2.04673e-07
5.34638e-06
1.06084e-07
6.08093e-06
2.12369e-07
6.78435e-06
5.02777e-07
7.43612e-06
9.52079e-07
8.02043e-06
1.53797e-06
8.52517e-06
2.24197e-06
8.94115e-06
3.04717e-06
9.26202e-06