/*--------------------------------*- C++ -*----------------------------------*\
| =========                 |                                                 |
| \\      /  F ield         | OpenFOAM: The Open Source CFD Toolbox           |
|  \\    /   O peration     | Version:  2206                                  |
|   \\  /    A nd           | Website:  www.openfoam.com                      |
|    \\/     M anipulation  |                                                 |
\*---------------------------------------------------------------------------*/
FoamFile
{
    version     2.0;
    format      ascii;
    arch        "LSB;label=32;scalar=64";
    class       volVectorField;
    location    "19.1001";
    object      ddt0(U);
}
// * * * * * * * * * * * * * * * * * * * * * * * * * * * * * * * * * * * * * //

dimensions      [0 1 -2 0 0 0 0];

internalField   nonuniform List<vector> 
4866
(
(17.3858 -9.25626 0)
(7.92312 8.6894 0)
(9.10899 24.3461 0)
(4.92424 42.2227 0)
(0.596938 64.4235 0)
(-2.31358 88.7087 0)
(-6.35884 114.116 0)
(-12.414 135.7 0)
(-16.6293 151.692 0)
(-17.6784 161.097 0)
(-16.1912 157.759 0)
(-9.70532 149.036 0)
(0.220142 135.411 0)
(11.399 121.176 0)
(20.5516 106.486 0)
(27.0659 90.4817 0)
(28.0101 72.9155 0)
(20.3793 52.5355 0)
(-0.00244782 24.3953 0)
(-30.9441 -19.7699 0)
(-72.775 -77.1496 0)
(-114.946 -143.537 0)
(-148.346 -212.152 0)
(-169.852 -274.804 0)
(-182.206 -328.759 0)
(-186.833 -365.803 0)
(-173.376 -363.306 0)
(-147.6 -329.647 0)
(-115.219 -277.275 0)
(-80.0042 -217.169 0)
(-46.4252 -158.163 0)
(-17.7538 -105.685 0)
(4.31711 -62.4463 0)
(23.7075 -31.4549 0)
(38.872 -2.65135 0)
(47.432 15.3876 0)
(51.8714 23.8395 0)
(52.3084 26.641 0)
(50.8156 26.1247 0)
(49.2006 24.1756 0)
(47.7616 21.6052 0)
(46.7225 18.8291 0)
(46.2057 16.0573 0)
(46.2865 13.3631 0)
(47.0085 10.7769 0)
(48.2395 8.42631 0)
(49.8447 6.56818 0)
(52.0116 5.1432 0)
(55.1871 3.32377 0)
(60.0713 0.0887748 0)
(66.7391 -4.39761 0)
(73.737 -7.16496 0)
(78.426 -3.31873 0)
(78.4243 11.3331 0)
(72.7643 37.8825 0)
(62.1848 73.2125 0)
(48.4242 111.356 0)
(33.1762 146.304 0)
(17.102 173.489 0)
(1.44581 191.958 0)
(-12.6519 199.96 0)
(-24.883 196.96 0)
(-35.6365 187.679 0)
(-44.3136 173.208 0)
(-50.5071 154.913 0)
(-54.2353 134.399 0)
(-55.6948 113.214 0)
(-55.2216 92.6696 0)
(-53.2258 73.7534 0)
(-50.1127 57.129 0)
(-46.2454 43.2065 0)
(-41.9101 32.1234 0)
(-37.4081 23.8452 0)
(-33.0112 18.1925 0)
(-28.8827 14.898 0)
(-25.0523 13.7864 0)
(-21.5396 14.8896 0)
(-18.1976 17.9601 0)
(-15.0061 22.0899 0)
(-12.37 26.356 0)
(-10.5409 28.5231 0)
(-9.66394 26.7424 0)
(-9.29409 21.801 0)
(-8.15893 14.9022 0)
(-7.78283 6.49646 0)
(-7.05268 -8.3821 0)
(-6.4344 -34.2601 0)
(-5.79404 -58.6373 0)
(-5.40005 -84.8947 0)
(-5.29282 -111.975 0)
(-5.43496 -138.567 0)
(-5.8655 -163.242 0)
(-6.60321 -184.426 0)
(-7.60305 -200.298 0)
(-8.55662 -208.341 0)
(-9.0308 -206.418 0)
(-8.95515 -197.957 0)
(-8.30618 -183.853 0)
(-7.06432 -165.412 0)
(-5.36759 -144.13 0)
(-3.36182 -121.493 0)
(-1.19371 -98.8171 0)
(1.0547 -77.1969 0)
(3.29309 -57.4459 0)
(5.39202 -40.0914 0)
(7.21919 -25.3995 0)
(9.77485 -13.156 0)
(12.6832 -2.03799 0)
(15.2412 5.81551 0)
(17.8757 10.5708 0)
(20.2916 12.9181 0)
(22.6939 13.3902 0)
(25.1494 12.6293 0)
(27.6091 11.2965 0)
(29.9802 10.0885 0)
(32.1353 9.73484 0)
(33.9358 10.9039 0)
(35.2673 14.0748 0)
(36.0661 19.4356 0)
(36.322 26.857 0)
(36.0588 35.953 0)
(35.3009 46.1998 0)
(34.0403 57.0567 0)
(32.2262 68.0574 0)
(29.7865 78.8526 0)
(26.6624 89.1529 0)
(22.8231 98.6398 0)
(18.2914 106.995 0)
(13.1578 113.88 0)
(7.49557 118.83 0)
(1.49995 121.708 0)
(-4.34675 122.102 0)
(-9.77751 120.083 0)
(-14.8132 116.032 0)
(-19.2687 110.232 0)
(-22.9635 102.968 0)
(-25.8331 94.6161 0)
(3.29056 -18.7967 0)
(-8.36379 4.73162 0)
(-3.7257 21.7247 0)
(-4.98218 40.9653 0)
(-6.3519 64.2149 0)
(-8.07031 88.9577 0)
(-10.3203 117.148 0)
(-11.8203 139.709 0)
(-18.9754 154.072 0)
(-14.285 154.772 0)
(-5.43024 146.688 0)
(2.84725 135.056 0)
(16.0829 120.344 0)
(30.5688 106.372 0)
(44.0053 93.4798 0)
(55.9868 82.9304 0)
(64.7224 73.3615 0)
(68.3635 63.0753 0)
(65.965 47.0367 0)
(50.3093 21.736 0)
(17.163 -26.0598 0)
(-30.4023 -93.0857 0)
(-79.7544 -170.929 0)
(-118.46 -247.748 0)
(-146.108 -313.501 0)
(-163.853 -361.47 0)
(-167.187 -377.599 0)
(-153.65 -355.111 0)
(-131.542 -310.304 0)
(-103.813 -252.909 0)
(-73.9567 -192.427 0)
(-45.5382 -136.323 0)
(-20.6309 -88.7221 0)
(-1.5151 -48.7626 0)
(13.842 -16.8384 0)
(27.5854 3.48777 0)
(37.4217 18.9034 0)
(42.5101 25.566 0)
(43.3771 26.929 0)
(42.9147 25.2869 0)
(42.4692 22.4902 0)
(42.1733 19.2648 0)
(42.237 15.9181 0)
(42.7839 12.6149 0)
(43.8426 9.50015 0)
(45.2901 6.72129 0)
(47.1491 4.32502 0)
(49.8632 1.83652 0)
(54.0031 -1.758 0)
(59.9621 -6.89754 0)
(67.0787 -12.0122 0)
(73.4194 -13.0177 0)
(76.5819 -4.94471 0)
(75.1163 15.3677 0)
(68.6557 47.313 0)
(58.0466 86.5859 0)
(44.6454 127.315 0)
(29.7396 163.597 0)
(14.1219 191.331 0)
(-1.19118 208.793 0)
(-15.384 214.614 0)
(-27.8527 210.04 0)
(-38.5117 198.539 0)
(-46.8415 181.337 0)
(-52.4629 160.16 0)
(-55.4325 136.893 0)
(-56.0268 113.298 0)
(-54.6718 90.8133 0)
(-51.8539 70.4504 0)
(-48.0322 52.8265 0)
(-43.5753 38.2448 0)
(-38.7552 26.8398 0)
(-33.7571 18.5406 0)
(-28.8683 13.1518 0)
(-24.3366 10.2594 0)
(-20.216 9.47299 0)
(-16.4716 10.8135 0)
(-12.8497 14.1652 0)
(-9.32276 18.5016 0)
(-6.11971 23.213 0)
(-3.33028 26.6274 0)
(-1.49324 25.8651 0)
(-0.754234 21.4428 0)
(-0.48724 13.9406 0)
(0.665386 5.89494 0)
(2.54469 -10.4743 0)
(3.80506 -35.0352 0)
(3.88508 -58.9067 0)
(3.83294 -84.8991 0)
(3.48626 -111.629 0)
(2.57169 -137.769 0)
(1.04426 -161.951 0)
(-1.08696 -182.664 0)
(-3.72903 -198.213 0)
(-6.5167 -206.388 0)
(-8.89702 -204.983 0)
(-10.6657 -197.256 0)
(-11.7235 -183.958 0)
(-11.9664 -166.256 0)
(-11.4722 -145.6 0)
(-10.3508 -123.43 0)
(-8.73954 -101.071 0)
(-6.77148 -79.637 0)
(-4.57287 -59.98 0)
(-2.29128 -42.6171 0)
(-0.0582603 -27.7876 0)
(2.03926 -15.6777 0)
(5.4124 -5.96126 0)
(8.44675 2.48895 0)
(11.7875 7.42147 0)
(14.7925 9.85725 0)
(17.6667 10.362 0)
(20.5621 9.6262 0)
(23.3859 8.39443 0)
(26.0318 7.40493 0)
(28.4014 7.4034 0)
(30.3925 9.04588 0)
(31.9252 12.7694 0)
(32.9611 18.7112 0)
(33.5017 26.7041 0)
(33.564 36.3489 0)
(33.14 47.1344 0)
(32.1831 58.5793 0)
(30.6345 70.2961 0)
(28.4136 81.89 0)
(25.4543 93.0076 0)
(21.7263 103.314 0)
(17.2491 112.429 0)
(12.121 119.929 0)
(6.49673 125.372 0)
(0.622413 128.376 0)
(-5.09076 128.31 0)
(-10.3996 125.868 0)
(-15.2226 121.236 0)
(-19.3908 114.656 0)
(-22.7722 106.487 0)
(-25.3049 97.178 0)
(-3.99329 -13.7724 0)
(-9.67946 7.12971 0)
(-8.20951 22.5308 0)
(-9.99839 44.3508 0)
(-12.4508 66.3908 0)
(-15.0884 92.9326 0)
(-17.5222 119.235 0)
(-20.4564 140.025 0)
(-15.8074 149.629 0)
(-9.02895 147.014 0)
(-0.624992 136.01 0)
(10.8394 119.45 0)
(23.5987 103.513 0)
(38.2559 87.8385 0)
(54.2239 74.4606 0)
(69.8959 65.8797 0)
(84.7868 60.4488 0)
(94.6743 56.2096 0)
(99.5454 48.9184 0)
(93.4482 35.3459 0)
(78.567 17.936 0)
(51.8986 -34.2548 0)
(-1.33053 -114.415 0)
(-54.698 -201.113 0)
(-95.7145 -281.561 0)
(-127.05 -341.791 0)
(-146.785 -374.067 0)
(-148.097 -366.527 0)
(-137.402 -332.201 0)
(-118.587 -281.211 0)
(-94.7104 -223.215 0)
(-69.1168 -165.941 0)
(-44.9038 -113.421 0)
(-24.5689 -68.1671 0)
(-7.3781 -35.1277 0)
(5.45823 -11.7269 0)
(18.8133 6.15987 0)
(29.0088 20.6194 0)
(33.8179 25.5046 0)
(35.0077 25.0913 0)
(35.6365 22.4904 0)
(36.3117 19.0886 0)
(37.1537 15.3666 0)
(38.3018 11.6014 0)
(39.7773 8.02437 0)
(41.5093 4.71515 0)
(43.7415 1.4603 0)
(47.0992 -2.4853 0)
(52.0623 -7.94757 0)
(58.5943 -14.4914 0)
(65.5861 -19.3381 0)
(70.9693 -17.6807 0)
(72.8212 -5.13244 0)
(70.5146 20.2127 0)
(63.6728 56.765 0)
(53.2452 99.911 0)
(40.3235 143.003 0)
(25.9756 180.388 0)
(10.9162 208.459 0)
(-4.25696 225.39 0)
(-18.4497 229.54 0)
(-30.8543 223.143 0)
(-41.1996 209.06 0)
(-48.918 188.832 0)
(-53.7204 164.542 0)
(-55.739 138.376 0)
(-55.3277 112.331 0)
(-53.0033 87.9609 0)
(-49.3284 66.2769 0)
(-44.8193 47.8224 0)
(-39.8685 32.7645 0)
(-34.6883 21.0574 0)
(-29.383 12.7144 0)
(-24.1156 7.60565 0)
(-19.2189 5.25937 0)
(-14.8692 4.94608 0)
(-11.0595 6.37584 0)
(-7.18342 10.1018 0)
(-3.51638 14.6771 0)
(-0.048103 19.5028 0)
(3.36355 23.3939 0)
(6.05005 23.9848 0)
(7.38691 20.5249 0)
(7.83701 14.0152 0)
(9.83227 3.29892 0)
(11.3743 -13.4294 0)
(12.5932 -34.7799 0)
(12.6421 -58.8833 0)
(12.3726 -84.5317 0)
(11.582 -110.618 0)
(9.95641 -135.96 0)
(7.44392 -159.303 0)
(4.07355 -179.247 0)
(-0.0150449 -194.258 0)
(-4.41666 -202.45 0)
(-8.48284 -201.577 0)
(-11.8985 -194.664 0)
(-14.5141 -182.325 0)
(-16.1524 -165.617 0)
(-16.8276 -145.892 0)
(-16.6216 -124.521 0)
(-15.6555 -102.806 0)
(-14.0749 -81.8504 0)
(-12.0288 -62.4915 0)
(-9.66286 -45.3292 0)
(-7.09659 -30.7251 0)
(-4.5295 -18.6166 0)
(-1.93228 -8.99559 0)
(1.71389 -2.13369 0)
(5.61641 3.86139 0)
(9.27541 6.40629 0)
(12.5667 6.87624 0)
(15.7913 6.22608 0)
(18.8811 5.18441 0)
(21.7241 4.47986 0)
(24.2607 4.85936 0)
(26.4233 6.96564 0)
(28.1563 11.2048 0)
(29.4367 17.6814 0)
(30.2593 26.198 0)
(30.6062 36.3535 0)
(30.4558 47.7276 0)
(29.767 59.8694 0)
(28.4553 72.3042 0)
(26.4463 84.6845 0)
(23.6673 96.6614 0)
(20.0877 107.838 0)
(15.7442 117.753 0)
(10.7469 125.893 0)
(5.27937 131.742 0)
(-0.367412 134.797 0)
(-5.82546 134.382 0)
(-10.8861 131.453 0)
(-15.3918 126.129 0)
(-19.1868 118.705 0)
(-22.1736 109.605 0)
(-24.3091 99.3335 0)
(-4.57782 -6.09429 0)
(-6.20082 10.072 0)
(-9.33912 24.7384 0)
(-13.534 46.3701 0)
(-16.2091 70.1159 0)
(-18.3034 95.7635 0)
(-19.5992 119.646 0)
(-20.1149 137.455 0)
(-15.4243 144.571 0)
(-10.3981 141.186 0)
(-4.84058 126.978 0)
(2.63725 108.126 0)
(13.0514 88.8 0)
(25.5953 71.0182 0)
(40.614 55.3325 0)
(57.7411 43.915 0)
(78.5506 38.5761 0)
(101.22 41.0027 0)
(120.265 47.2071 0)
(125.178 44.3429 0)
(117.695 26.0484 0)
(94.0542 -2.3207 0)
(74.147 -59.963 0)
(20.5908 -140.584 0)
(-40.1551 -231.466 0)
(-81.1325 -306.991 0)
(-113.403 -352.881 0)
(-131.026 -363.838 0)
(-132.228 -341.583 0)
(-123.888 -300.297 0)
(-107.746 -247.647 0)
(-87.3211 -191.74 0)
(-66.0339 -138.212 0)
(-45.5687 -91.0898 0)
(-27.1643 -52.225 0)
(-12.0224 -24.2257 0)
(1.27735 -8.60914 0)
(11.3019 9.19481 0)
(21.3807 20.4625 0)
(25.7623 22.9434 0)
(27.7683 20.9603 0)
(29.5972 17.6055 0)
(31.2937 13.6946 0)
(32.9923 9.71933 0)
(34.8101 5.93798 0)
(36.804 2.19799 0)
(39.467 -2.01028 0)
(43.4239 -7.50617 0)
(48.9318 -14.6184 0)
(55.6136 -21.9574 0)
(62.1993 -25.7661 0)
(66.2294 -20.9931 0)
(67.4772 -4.37428 0)
(64.3961 25.4504 0)
(57.4788 66.4824 0)
(47.4437 112.762 0)
(35.2483 157.81 0)
(21.6484 196.45 0)
(7.05638 225.206 0)
(-7.91699 241.946 0)
(-21.8373 244.333 0)
(-33.7601 235.839 0)
(-43.3879 218.866 0)
(-50.1616 195.371 0)
(-53.9044 167.807 0)
(-54.8166 138.667 0)
(-53.3135 110.192 0)
(-49.9811 84.0538 0)
(-45.4471 61.2366 0)
(-40.3031 42.1772 0)
(-34.9819 26.896 0)
(-29.6275 15.0661 0)
(-24.1598 6.63101 0)
(-18.7266 1.70328 0)
(-13.6615 -0.136871 0)
(-9.06616 0.238616 0)
(-5.14375 1.93709 0)
(-1.73704 5.82716 0)
(2.34657 10.5875 0)
(5.99253 15.5571 0)
(9.64819 19.728 0)
(12.9533 21.4407 0)
(14.8466 18.8287 0)
(16.5047 12.5347 0)
(18.2042 1.5846 0)
(19.3812 -14.6334 0)
(20.2907 -35.4737 0)
(20.4428 -58.9574 0)
(19.9535 -83.8218 0)
(18.6872 -108.972 0)
(16.4286 -133.251 0)
(13.0885 -155.501 0)
(8.69846 -174.455 0)
(3.43378 -188.74 0)
(-2.29756 -196.804 0)
(-7.7928 -196.436 0)
(-12.6234 -190.366 0)
(-16.61 -179.11 0)
(-19.5186 -163.596 0)
(-21.2923 -145.023 0)
(-21.982 -124.71 0)
(-21.7028 -103.92 0)
(-20.5821 -83.6937 0)
(-18.7826 -64.8885 0)
(-16.4714 -48.1057 0)
(-13.7887 -33.6561 0)
(-10.8503 -21.6794 0)
(-7.7032 -12.3625 0)
(-4.34051 -5.93971 0)
(-0.962519 -1.61652 0)
(3.49564 2.38878 0)
(7.3244 3.00451 0)
(10.8362 2.51939 0)
(14.0838 1.75787 0)
(17.0606 1.38022 0)
(19.7412 2.14114 0)
(22.0645 4.6901 0)
(23.9889 9.40903 0)
(25.4803 16.3744 0)
(26.4943 25.3772 0)
(27.0531 36.1132 0)
(27.1311 48.0947 0)
(26.6705 60.8535 0)
(25.5976 74.023 0)
(23.8135 87.2426 0)
(21.2453 100.115 0)
(17.8762 112.174 0)
(13.7569 122.88 0)
(9.0079 131.638 0)
(3.82226 137.852 0)
(-1.49029 140.872 0)
(-6.55901 140.11 0)
(-11.1989 136.621 0)
(-15.2494 130.56 0)
(-18.5675 122.272 0)
(-21.0771 112.239 0)
(-22.7501 101.019 0)
(-2.90389 -1.41404 0)
(-4.56334 14.5045 0)
(-9.79737 32.655 0)
(-13.7068 50.0002 0)
(-16.8964 73.1844 0)
(-18.8108 97.0279 0)
(-20.182 118.957 0)
(-20.3287 134.421 0)
(-18.9002 143.739 0)
(-16.5651 137.8 0)
(-11.2517 119.797 0)
(-2.51644 97.39 0)
(8.77502 75.6195 0)
(20.9253 56.6313 0)
(33.0203 39.2055 0)
(45.0313 25.6089 0)
(58.7316 14.3684 0)
(75.5648 9.79633 0)
(105.078 18.0077 0)
(135.913 38.4121 0)
(145.353 44.4216 0)
(133.733 22.2977 0)
(102.21 -26.5181 0)
(73.2472 -86.6116 0)
(29.7113 -170.936 0)
(-35.8134 -256.519 0)
(-74.4394 -318.435 0)
(-104.129 -345.94 0)
(-117.847 -338.002 0)
(-119.497 -308.016 0)
(-112.66 -263.885 0)
(-99.1071 -212.533 0)
(-81.6401 -160.348 0)
(-63.0836 -112.438 0)
(-45.0205 -72.4831 0)
(-28.3185 -42.5253 0)
(-14.393 -19.5419 0)
(-4.41876 -4.83304 0)
(6.75594 11.3506 0)
(14.8901 17.5943 0)
(19.0484 17.9834 0)
(21.857 15.2031 0)
(24.3775 11.5265 0)
(26.6902 7.63057 0)
(28.9726 3.75284 0)
(31.3356 -0.547736 0)
(34.4373 -5.92311 0)
(38.8187 -13.0007 0)
(44.5413 -21.4955 0)
(51.1102 -29.1493 0)
(56.9858 -31.2925 0)
(59.288 -23.2115 0)
(60.1658 -3.08543 0)
(56.5589 31.1506 0)
(49.7902 75.7909 0)
(40.4175 124.697 0)
(29.1134 171.689 0)
(16.2792 211.814 0)
(2.21828 241.504 0)
(-12.2657 258.112 0)
(-25.4027 258.474 0)
(-36.3067 247.608 0)
(-44.7365 227.512 0)
(-50.1878 200.628 0)
(-52.6269 169.756 0)
(-52.3199 137.669 0)
(-49.7284 106.847 0)
(-45.4485 79.0837 0)
(-40.0984 55.3558 0)
(-34.3299 35.9911 0)
(-28.7902 20.6962 0)
(-23.5112 8.89968 0)
(-17.9519 0.497233 0)
(-12.3999 -4.14873 0)
(-7.51316 -5.34011 0)
(-3.37173 -4.27504 0)
(0.502604 -2.13267 0)
(4.15049 1.5016 0)
(7.99658 6.12813 0)
(11.814 11.231 0)
(15.5912 15.6463 0)
(19.2024 17.9549 0)
(21.9191 16.5219 0)
(23.967 10.6842 0)
(25.5754 -0.0832267 0)
(26.6739 -15.8236 0)
(27.268 -35.8501 0)
(27.1682 -58.6069 0)
(26.3301 -82.6399 0)
(24.6115 -106.729 0)
(21.8076 -129.781 0)
(17.8022 -150.756 0)
(12.6201 -168.55 0)
(6.45381 -181.983 0)
(-0.297867 -189.749 0)
(-6.93028 -189.907 0)
(-12.9211 -184.652 0)
(-18.0597 -174.529 0)
(-22.0758 -160.314 0)
(-24.8576 -143.076 0)
(-26.4097 -124.037 0)
(-26.812 -104.372 0)
(-26.1947 -85.1038 0)
(-24.734 -67.0935 0)
(-22.5749 -50.9216 0)
(-19.849 -36.9714 0)
(-16.689 -25.4896 0)
(-13.1725 -16.4899 0)
(-9.55606 -9.56804 0)
(-5.96426 -5.34109 0)
(-2.4022 -2.71447 0)
(1.83492 -1.44551 0)
(5.58014 -1.33288 0)
(9.01908 -1.73665 0)
(12.1664 -1.83597 0)
(14.9652 -0.717552 0)
(17.3773 2.24475 0)
(19.3852 7.37351 0)
(20.9705 14.8382 0)
(22.1281 24.4287 0)
(22.8325 35.6715 0)
(23.0959 48.177 0)
(22.8546 61.5751 0)
(22.0032 75.4947 0)
(20.4479 89.5524 0)
(18.1305 103.304 0)
(15.0453 116.215 0)
(11.2522 127.673 0)
(6.87933 137.007 0)
(2.12078 143.535 0)
(-2.70458 146.453 0)
(-7.23023 145.307 0)
(-11.2982 141.221 0)
(-14.759 134.402 0)
(-17.4886 125.249 0)
(-19.428 114.295 0)
(-20.565 102.154 0)
(11.586 119.855 0)
(8.2376 131.998 0)
(4.38084 141.841 0)
(0.202718 148.625 0)
(-3.97244 151.37 0)
(-7.7971 149.798 0)
(-11.1502 145.098 0)
(-13.8965 137.526 0)
(-15.9313 127.532 0)
(-17.2181 115.705 0)
(-17.7732 102.717 0)
(-1.9774 -0.261048 0)
(-1.68439 -0.214419 0)
(-3.68677 -0.348194 0)
(-3.65424 -0.456355 0)
(-4.94121 -0.233404 0)
(-5.14257 -0.376811 0)
(-5.75255 0.153791 0)
(-6.11869 -0.0433954 0)
(-6.18417 0.608775 0)
(-6.63516 0.40195 0)
(-6.51778 1.17213 0)
(-7.02524 0.960301 0)
(-6.73791 1.78509 0)
(-7.34696 1.55608 0)
(-6.94754 2.473 0)
(-7.58691 2.23026 0)
(-7.17965 3.23596 0)
(-7.88843 2.99683 0)
(-7.4132 4.08331 0)
(-8.21193 3.8389 0)
(-7.63945 5.04517 0)
(-8.54789 4.79772 0)
(-7.84315 6.1333 0)
(-8.87387 5.89172 0)
(-8.01872 7.36354 0)
(-9.18739 7.13542 0)
(-8.17345 8.75416 0)
(-9.4919 8.54638 0)
(-8.3021 10.3262 0)
(-9.78695 10.1451 0)
(-8.39378 12.0975 0)
(-10.0623 11.9548 0)
(-8.44117 14.0882 0)
(-10.3168 13.9816 0)
(-8.45634 16.3005 0)
(-10.5293 16.2371 0)
(-8.44568 18.7505 0)
(-10.7157 18.7242 0)
(-8.41971 21.4242 0)
(-10.8791 21.4267 0)
(-8.44535 24.3176 0)
(-11.08 24.2906 0)
(-8.534 27.4456 0)
(-11.3446 27.3731 0)
(-8.96515 30.7162 0)
(-11.6893 30.4672 0)
(-8.58232 33.799 0)
(-11.0343 33.2785 0)
(-7.08958 36.6942 0)
(-8.83713 35.8787 0)
(-2.14539 37.8938 0)
(-2.18579 36.3264 0)
(10.508 38.0485 0)
(15.5103 35.2889 0)
(54.1997 31.0271 0)
(58.9341 28.9911 0)
(69.104 20.8129 0)
(77.8169 16.806 0)
(48.1391 6.46709 0)
(49.3091 1.82854 0)
(-1.4266 -0.0822136 0)
(-1.19221 0.0927591 0)
(-0.989615 0.226472 0)
(-0.854098 0.318398 0)
(-0.779392 0.383403 0)
(-0.748066 0.425307 0)
(-0.755288 0.455758 0)
(-0.802631 0.500149 0)
(-0.882761 0.512683 0)
(-0.983823 0.486449 0)
(-1.08149 0.389966 0)
(-1.1137 0.151539 0)
(-0.976139 -0.292792 0)
(-0.589922 -0.84007 0)
(0.0646109 -1.33885 0)
(0.969335 -1.78181 0)
(2.09948 -2.15631 0)
(3.44842 -2.43 0)
(5.00008 -2.55678 0)
(6.76519 -2.50232 0)
(8.84655 -2.27741 0)
(11.3991 -1.96525 0)
(14.2959 -1.37604 0)
(16.9475 -0.693758 0)
(18.7819 0.170652 0)
(18.6582 1.03771 0)
(17.0983 1.66918 0)
(14.5662 2.08811 0)
(11.1895 2.3233 0)
(7.35505 2.37662 0)
(3.38819 2.27633 0)
(-0.539411 1.92816 0)
(-3.59336 1.54955 0)
(-5.72189 1.05856 0)
(-7.30823 0.594269 0)
(-8.25635 0.232555 0)
(-8.66542 -0.0175901 0)
(-8.73871 -0.171213 0)
(-8.63792 -0.254075 0)
(-8.49203 -0.278353 0)
(-8.38911 -0.265548 0)
(-8.4153 -0.256411 0)
(-8.4447 -0.268784 0)
(-8.40459 -0.330716 0)
(-8.21438 -0.471902 0)
(-7.69854 -0.679948 0)
(-6.60952 -0.885106 0)
(-4.74512 -1.11626 0)
(-1.95188 -1.37862 0)
(1.29047 -1.78836 0)
(5.29101 -2.40137 0)
(9.73267 -2.67362 0)
(14.1882 -2.39799 0)
(18.3152 -1.67568 0)
(20.8224 -0.794555 0)
(21.4946 -0.0177404 0)
(20.5161 1.12479 0)
(17.2683 2.41112 0)
(11.6313 3.6828 0)
(4.31208 4.36191 0)
(-2.9633 4.88264 0)
(-8.41037 4.08382 0)
(-13.8244 2.96631 0)
(-17.5383 1.88352 0)
(-20.2295 0.981752 0)
(-21.6258 0.235576 0)
(-21.7181 -0.296498 0)
(-21.0461 -0.598699 0)
(-20.4344 -0.833812 0)
(-19.2512 -1.07665 0)
(-17.7492 -1.26129 0)
(-15.8818 -1.40004 0)
(-14.0201 -1.52738 0)
(-11.8046 -1.41472 0)
(-9.0293 -1.23 0)
(-5.71228 -1.18537 0)
(-1.94176 -1.36406 0)
(1.85663 -2.3236 0)
(6.34155 -2.75893 0)
(11.2903 -3.23519 0)
(16.6352 -3.26142 0)
(21.6047 -2.68228 0)
(25.3548 -1.8127 0)
(27.4428 -1.11525 0)
(28.0813 -0.257725 0)
(27.087 0.990227 0)
(24.0626 2.06611 0)
(19.4736 2.65799 0)
(13.9187 2.8993 0)
(8.35835 3.04122 0)
(3.72391 2.76439 0)
(-0.64041 2.25735 0)
(-4.67264 1.84698 0)
(-8.05708 1.40456 0)
(-10.6258 0.981795 0)
(-12.4138 0.701313 0)
(-13.5292 0.445711 0)
(-14.0514 0.210261 0)
(-13.9768 -0.0115885 0)
(-13.4318 -0.204533 0)
(-12.5052 -0.354621 0)
(-11.2605 -0.500607 0)
(-9.77836 -0.650862 0)
(-8.12968 -0.781399 0)
(-6.38329 -0.854825 0)
(-4.53787 -0.853314 0)
(-2.63041 -0.867093 0)
(-0.722059 -1.20354 0)
(1.09101 -1.13284 0)
(2.94561 -1.13208 0)
(4.78359 -1.01403 0)
(6.44653 -0.829168 0)
(7.8758 -0.6794 0)
(9.02962 -0.478976 0)
(9.82012 -0.264102 0)
(10.213 -0.0575992 0)
(10.1424 0.13753 0)
(9.68799 0.320763 0)
(8.83527 0.51777 0)
(7.57679 0.715387 0)
(5.96701 0.873532 0)
(4.02983 0.952585 0)
(1.8239 0.969825 0)
(-0.300997 1.16299 0)
(-2.24317 1.01813 0)
(-4.14176 0.905883 0)
(-5.84367 0.748939 0)
(-7.24641 0.573601 0)
(-8.30067 0.395263 0)
(-8.9831 0.225402 0)
(-9.30667 0.0817853 0)
(-9.30165 -0.0239365 0)
(-9.0499 -0.0933771 0)
(-8.62017 -0.133941 0)
(-8.05027 -0.150339 0)
(-7.39584 -0.147529 0)
(-6.69599 -0.142628 0)
(-3.52643 -0.536933 0)
(-3.27296 -0.587936 0)
(-2.8695 -0.615359 0)
(-2.31813 -0.628136 0)
(-1.62609 -0.622532 0)
(-0.794115 -0.606664 0)
(0.18936 -0.605663 0)
(1.33536 -0.616621 0)
(2.65812 -0.633128 0)
(4.16321 -0.648667 0)
(5.85041 -0.661124 0)
(7.67673 -0.679748 0)
(9.6058 -0.70717 0)
(11.3828 -0.738901 0)
(12.7102 -0.804069 0)
(13.8714 -0.908982 0)
(14.7066 -1.05625 0)
(15.1845 -1.22689 0)
(15.3009 -1.44742 0)
(15.1423 -1.88032 0)
(14.8203 -2.56584 0)
(14.2662 -3.29536 0)
(13.3467 -3.69284 0)
(12.233 -2.8711 0)
(10.8258 -1.0216 0)
(9.58758 1.25985 0)
(7.95077 3.2478 0)
(5.87529 4.69129 0)
(3.43855 5.53568 0)
(0.785761 5.87902 0)
(-1.83879 5.80887 0)
(-4.08579 5.2497 0)
(-6.33331 4.37949 0)
(-7.75828 2.96024 0)
(-8.37529 1.76035 0)
(-8.54558 0.694563 0)
(-8.33987 0.199574 0)
(-7.86806 -0.064194 0)
(-7.20738 -0.108768 0)
(-6.43131 0.0400261 0)
(-5.62602 0.301307 0)
(-4.89332 0.462811 0)
(-4.29326 0.505969 0)
(-3.70646 0.244099 0)
(-3.13578 -0.236098 0)
(-2.45922 -0.947055 0)
(-1.62849 -2.75291 0)
(-0.409012 -4.2615 0)
(1.23191 -5.84315 0)
(3.03982 -7.60583 0)
(6.0443 -8.42447 0)
(10.022 -8.11829 0)
(13.2876 -6.52767 0)
(14.5531 -4.06587 0)
(14.924 -1.27231 0)
(14.1475 1.33143 0)
(11.6954 4.2325 0)
(7.78288 7.50994 0)
(2.86295 9.89572 0)
(-1.81654 11.395 0)
(-6.81252 11.7463 0)
(-12.0854 9.7639 0)
(-15.5152 7.20219 0)
(-17.5594 4.55792 0)
(-18.3101 2.21987 0)
(-17.9286 0.53938 0)
(-16.9428 -0.563731 0)
(-15.5087 -1.13174 0)
(-13.6888 -1.50269 0)
(-11.7462 -1.86325 0)
(-9.94367 -2.33034 0)
(-8.32442 -2.67423 0)
(-6.77439 -2.71316 0)
(-5.06622 -4.22077 0)
(-3.0118 -6.09185 0)
(-1.03927 -6.86319 0)
(1.06582 -7.55522 0)
(3.90118 -8.37955 0)
(8.1487 -8.81161 0)
(13.4969 -8.89175 0)
(19.564 -8.10477 0)
(24.9071 -6.03246 0)
(28.0267 -3.28423 0)
(29.0295 -0.630656 0)
(28.2354 2.01438 0)
(25.2329 4.72032 0)
(20.5476 6.9083 0)
(15.3579 8.23892 0)
(10.5613 8.83484 0)
(6.12437 8.89048 0)
(1.13193 8.19152 0)
(-3.40537 7.19002 0)
(-7.38353 6.01251 0)
(-10.8258 4.70462 0)
(-13.4321 3.26981 0)
(-15.2884 2.01336 0)
(-16.7062 0.856145 0)
(-17.5429 -0.152999 0)
(-17.738 -0.958578 0)
(-17.2618 -1.7108 0)
(-16.0365 -2.31391 0)
(-14.2307 -2.70283 0)
(-11.9301 -2.94076 0)
(-9.26216 -3.0134 0)
(-6.44686 -2.94738 0)
(-3.77459 -2.99159 0)
(-1.19365 -3.28806 0)
(1.60259 -3.29515 0)
(4.29132 -3.18299 0)
(6.63835 -3.01247 0)
(8.59999 -2.77301 0)
(10.0687 -2.42517 0)
(11.131 -1.95232 0)
(11.8831 -1.39331 0)
(12.1153 -0.798016 0)
(11.8866 -0.179649 0)
(11.2453 0.586627 0)
(10.0666 1.38441 0)
(8.41382 2.06642 0)
(6.47952 2.59867 0)
(4.3969 3.00308 0)
(2.25925 3.40877 0)
(0.153971 3.70281 0)
(-2.00056 3.78635 0)
(-4.20037 3.58021 0)
(-6.15284 3.17772 0)
(-7.79886 2.64052 0)
(-9.11309 2.0231 0)
(-10.0446 1.37151 0)
(-10.5731 0.71896 0)
(-10.7153 0.124646 0)
(-10.523 -0.36712 0)
(-10.1091 -0.76172 0)
(-9.47908 -1.07406 0)
(-8.68363 -1.30963 0)
(-7.78724 -1.47529 0)
(-6.83983 -1.58804 0)
(-5.28986 -0.521452 0)
(-5.35755 -0.669626 0)
(-5.31863 -0.83222 0)
(-5.16006 -1.0097 0)
(-4.86632 -1.20612 0)
(-4.44219 -1.42324 0)
(-3.8824 -1.66014 0)
(-3.17493 -1.91624 0)
(-2.31442 -2.19362 0)
(-1.30032 -2.49304 0)
(-0.142532 -2.80838 0)
(1.15075 -3.12576 0)
(2.53923 -3.4111 0)
(4.02887 -3.58552 0)
(5.77907 -3.59663 0)
(7.58155 -3.4754 0)
(9.37805 -3.23837 0)
(11.1177 -2.88902 0)
(12.6888 -2.39326 0)
(13.8943 -1.82385 0)
(14.643 -1.4352 0)
(14.8636 -1.11495 0)
(13.5329 -0.48522 0)
(11.3835 0.625766 0)
(8.77426 2.21496 0)
(6.07038 4.07762 0)
(3.45354 5.91474 0)
(0.987197 7.44246 0)
(-1.29609 8.41228 0)
(-3.41525 8.58099 0)
(-5.15927 8.02521 0)
(-6.07835 6.96058 0)
(-6.49269 5.50971 0)
(-7.36408 3.67559 0)
(-7.87879 1.66502 0)
(-8.10007 0.14725 0)
(-8.03222 -0.896017 0)
(-7.62144 -1.60756 0)
(-6.91185 -2.05226 0)
(-6.00192 -2.39185 0)
(-4.79032 -2.49322 0)
(-3.25383 -2.36325 0)
(-1.4333 -2.27276 0)
(0.649005 -2.27727 0)
(2.82306 -2.44083 0)
(4.96402 -2.73757 0)
(7.02999 -2.9916 0)
(8.60965 -3.42731 0)
(9.05763 -4.32793 0)
(9.41193 -6.35425 0)
(9.85355 -8.62165 0)
(8.37913 -9.01015 0)
(6.03043 -7.1274 0)
(3.34527 -3.65995 0)
(0.930755 -0.122008 0)
(-0.896012 1.94373 0)
(-3.99335 6.61088 0)
(-7.0745 11.0824 0)
(-9.92779 14.4227 0)
(-11.771 15.8551 0)
(-13.9474 15.3766 0)
(-15.8855 12.8409 0)
(-16.8079 9.40294 0)
(-17.0045 5.53738 0)
(-16.442 1.57401 0)
(-15.2908 -1.46697 0)
(-13.8154 -3.47034 0)
(-11.901 -4.87447 0)
(-9.28827 -5.67464 0)
(-6.0463 -5.92471 0)
(-2.53713 -5.75988 0)
(0.967077 -5.60651 0)
(4.67683 -5.8115 0)
(8.32049 -5.60394 0)
(10.6863 -5.08568 0)
(11.8529 -4.68798 0)
(11.8629 -5.12815 0)
(10.9863 -6.99919 0)
(9.73412 -10.55 0)
(9.29618 -14.7461 0)
(10.2426 -16.6397 0)
(11.4115 -13.9648 0)
(13.6732 -7.23872 0)
(15.1429 -3.02006 0)
(16.1349 0.73738 0)
(16.6122 7.87455 0)
(16.6298 13.0478 0)
(15.4791 14.5011 0)
(13.4845 14.3526 0)
(10.7224 13.6462 0)
(7.32256 12.9753 0)
(3.95613 12.1429 0)
(0.516684 10.8964 0)
(-2.76795 8.94375 0)
(-5.73828 5.76387 0)
(-8.22288 4.81553 0)
(-10.0367 3.31967 0)
(-11.443 1.61727 0)
(-12.7165 -0.285923 0)
(-13.7759 -2.09356 0)
(-14.4572 -3.5807 0)
(-14.6371 -4.9652 0)
(-14.139 -6.21527 0)
(-12.8812 -7.05687 0)
(-10.9609 -7.29412 0)
(-8.61407 -7.2004 0)
(-6.07529 -7.03218 0)
(-3.47192 -6.87964 0)
(-0.592247 -6.7208 0)
(2.31724 -6.13194 0)
(5.0147 -5.2402 0)
(7.4105 -3.51596 0)
(9.18552 -3.07642 0)
(10.0271 -1.68259 0)
(10.0025 -0.184912 0)
(9.70384 1.15185 0)
(9.03988 2.36243 0)
(7.88935 3.4503 0)
(6.36925 4.35619 0)
(4.65445 5.0262 0)
(2.82166 5.52446 0)
(0.933681 5.83329 0)
(-0.903588 5.91283 0)
(-2.77116 5.76528 0)
(-4.501 5.3951 0)
(-5.93238 4.81361 0)
(-7.10251 4.01231 0)
(-8.00602 3.04812 0)
(-8.62661 1.98465 0)
(-8.90497 0.879988 0)
(-8.83079 -0.0585653 0)
(-8.54819 -0.739747 0)
(-8.08598 -1.30474 0)
(-7.42814 -1.77439 0)
(-6.60686 -2.046 0)
(-5.71787 -2.10952 0)
(-4.84283 -2.07657 0)
(-6.45109 -0.230076 0)
(-6.73383 -0.526235 0)
(-6.95235 -0.816788 0)
(-7.08099 -1.12356 0)
(-7.12735 -1.41105 0)
(-7.07252 -1.71504 0)
(-6.91 -2.0792 0)
(-6.64027 -2.46953 0)
(-6.26401 -2.88295 0)
(-5.77654 -3.3183 0)
(-5.17276 -3.75768 0)
(-4.45697 -4.16736 0)
(-3.63764 -4.51918 0)
(-2.72498 -4.79897 0)
(-1.73056 -4.98043 0)
(-0.670193 -5.0276 0)
(0.475329 -4.92752 0)
(1.7929 -4.67647 0)
(3.2201 -4.26961 0)
(4.42587 -3.71779 0)
(5.31973 -3.01126 0)
(6.084 -1.96676 0)
(6.68969 -0.453097 0)
(7.14487 1.36637 0)
(7.52556 3.44933 0)
(7.86225 5.67404 0)
(8.19642 7.6641 0)
(8.55048 9.15798 0)
(8.92328 10.0291 0)
(9.40732 10.2661 0)
(9.63494 9.67799 0)
(9.66363 8.43609 0)
(9.38386 6.6352 0)
(8.86852 4.71165 0)
(8.26853 2.95002 0)
(7.50437 1.40669 0)
(6.63381 0.0897783 0)
(5.82719 -0.971367 0)
(5.14924 -1.75463 0)
(4.58994 -2.26748 0)
(4.15681 -2.58025 0)
(3.92216 -2.82712 0)
(3.84497 -3.13635 0)
(3.82436 -3.56726 0)
(3.8303 -4.16089 0)
(4.04672 -4.93559 0)
(4.31485 -5.69876 0)
(4.27649 -6.32308 0)
(4.21853 -6.76929 0)
(4.56656 -7.24128 0)
(4.79031 -7.88256 0)
(2.2695 -6.52505 0)
(-0.870775 -2.23125 0)
(-4.06703 0.302995 0)
(-5.58281 1.75424 0)
(-8.16998 5.64235 0)
(-10.9756 9.84672 0)
(-12.572 13.5399 0)
(-13.9601 16.0987 0)
(-14.7061 17.5109 0)
(-14.52 16.0172 0)
(-14.3454 13.0995 0)
(-14.4234 9.53814 0)
(-14.2414 5.54831 0)
(-14.541 0.958425 0)
(-14.2805 -1.77893 0)
(-14.1899 -3.7885 0)
(-14.0992 -5.4532 0)
(-13.793 -7.64623 0)
(-13.1856 -8.76201 0)
(-12.1542 -9.60146 0)
(-10.562 -10.1167 0)
(-8.62612 -10.4834 0)
(-6.3803 -10.6987 0)
(-3.62843 -10.5653 0)
(-0.239153 -10.1241 0)
(4.00551 -9.39201 0)
(8.58999 -8.5489 0)
(12.4415 -8.64211 0)
(14.7684 -10.2214 0)
(13.6923 -10.7427 0)
(10.9654 -9.13956 0)
(8.26465 -6.22208 0)
(6.98212 -3.46675 0)
(6.73382 0.358588 0)
(6.57926 5.07247 0)
(8.25978 9.07392 0)
(10.6618 12.1321 0)
(12.432 14.2482 0)
(13.4593 15.2303 0)
(13.3253 15.149 0)
(12.9129 14.6733 0)
(12.4233 13.5447 0)
(11.6665 11.7865 0)
(10.1935 9.4731 0)
(8.28624 6.87611 0)
(6.56833 4.40029 0)
(5.09319 2.87078 0)
(3.69444 2.17986 0)
(2.20578 0.202716 0)
(0.672957 -1.52626 0)
(-1.10379 -3.1545 0)
(-2.925 -4.95303 0)
(-4.31224 -6.49741 0)
(-5.23933 -7.57078 0)
(-5.90563 -8.35921 0)
(-6.21706 -8.97281 0)
(-6.12569 -9.30577 0)
(-5.81256 -9.31216 0)
(-5.27771 -9.01116 0)
(-4.47308 -8.2916 0)
(-3.29137 -7.0119 0)
(-2.1149 -4.95957 0)
(-1.42938 -2.61218 0)
(-0.439787 -0.786447 0)
(0.341766 0.0324763 0)
(0.905115 1.98558 0)
(1.21189 4.04763 0)
(1.21301 5.55806 0)
(0.872256 6.63652 0)
(0.24329 7.36607 0)
(-0.530646 7.81623 0)
(-1.44692 7.94745 0)
(-2.5812 7.72155 0)
(-3.8309 7.21516 0)
(-5.02443 6.37768 0)
(-6.07581 5.28003 0)
(-6.9987 4.07191 0)
(-7.79963 2.763 0)
(-8.34828 1.2996 0)
(-8.62886 -0.08287 0)
(-8.82237 -1.10664 0)
(-9.10738 -1.92795 0)
(-9.306 -2.63679 0)
(-9.29282 -3.2175 0)
(-8.94513 -3.56626 0)
(-8.36366 -3.74111 0)
(-7.06932 0.149094 0)
(-7.4774 -0.13914 0)
(-7.84637 -0.450146 0)
(-8.1621 -0.818089 0)
(-8.42397 -1.22508 0)
(-8.60478 -1.66734 0)
(-8.6973 -2.13784 0)
(-8.71476 -2.63054 0)
(-8.66594 -3.14846 0)
(-8.54081 -3.69268 0)
(-8.32529 -4.24248 0)
(-7.99589 -4.76213 0)
(-7.55358 -5.22491 0)
(-7.05064 -5.60956 0)
(-6.45378 -5.86755 0)
(-5.76079 -5.9835 0)
(-4.94972 -6.08209 0)
(-3.99864 -6.28038 0)
(-2.96854 -5.75047 0)
(-1.91084 -4.18011 0)
(-0.761416 -3.61584 0)
(0.474726 -2.9348 0)
(1.62124 -1.61998 0)
(2.85983 0.0558227 0)
(4.53464 2.0711 0)
(6.45585 4.00556 0)
(8.4297 5.81232 0)
(10.5102 7.26292 0)
(12.6163 8.16919 0)
(14.6236 8.44332 0)
(16.4297 8.11413 0)
(17.923 7.29002 0)
(19.1028 6.14897 0)
(19.666 4.76345 0)
(19.7264 3.37015 0)
(19.4316 2.05861 0)
(18.8667 0.923356 0)
(18.1264 0.00974877 0)
(17.2817 -0.696902 0)
(16.3784 -1.23944 0)
(15.4538 -1.66746 0)
(14.5543 -2.02573 0)
(13.6661 -2.3588 0)
(12.7173 -2.69759 0)
(11.7419 -3.09504 0)
(10.7297 -3.60897 0)
(9.30969 -4.1257 0)
(7.50958 -4.36788 0)
(5.9124 -5.00437 0)
(4.15354 -5.99626 0)
(1.27049 -5.31877 0)
(-2.03933 -2.56953 0)
(-4.5284 -0.144198 0)
(-6.5609 1.39255 0)
(-8.13284 4.59432 0)
(-9.88977 7.92388 0)
(-11.2029 11.2219 0)
(-11.8592 13.9619 0)
(-11.6238 15.813 0)
(-10.9996 17.1759 0)
(-10.0409 15.5619 0)
(-9.31724 12.905 0)
(-8.98277 10.0537 0)
(-9.14303 5.84131 0)
(-9.88785 0.724893 0)
(-10.9895 -1.47307 0)
(-12.2578 -2.89951 0)
(-13.4858 -5.24462 0)
(-14.7514 -6.76696 0)
(-16.1023 -7.98784 0)
(-17.3298 -8.97273 0)
(-18.3574 -9.80718 0)
(-19.1752 -10.5607 0)
(-19.7474 -11.2376 0)
(-19.9831 -11.8568 0)
(-19.75 -12.5219 0)
(-18.9765 -13.1268 0)
(-17.8325 -13.7062 0)
(-16.1932 -14.6412 0)
(-14.3479 -15.4196 0)
(-12.4679 -14.1638 0)
(-9.96679 -10.2332 0)
(-7.76008 -4.66059 0)
(-4.9106 -2.45746 0)
(-3.17683 -0.0627575 0)
(-0.91507 4.23902 0)