/*--------------------------------*- C++ -*----------------------------------*\
| =========                 |                                                 |
| \\      /  F ield         | OpenFOAM: The Open Source CFD Toolbox           |
|  \\    /   O peration     | Version:  2206                                  |
|   \\  /    A nd           | Website:  www.openfoam.com                      |
|    \\/     M anipulation  |                                                 |
\*---------------------------------------------------------------------------*/
FoamFile
{
    version     2.0;
    format      ascii;
    arch        "LSB;label=32;scalar=64";
    class       volVectorField;
    location    "18.5001";
    object      ddt0(U);
}
// * * * * * * * * * * * * * * * * * * * * * * * * * * * * * * * * * * * * * //

dimensions      [0 1 -2 0 0 0 0];

internalField   nonuniform List<vector> 
3038
(
(19.6115 -52.8617 0)
(15.5672 -57.1071 0)
(11.2818 -60.4826 0)
(6.83291 -62.4748 0)
(2.37638 -62.5143 0)
(-1.89164 -61.0098 0)
(-5.86847 -57.9671 0)
(-9.44149 -53.4949 0)
(-12.507 -47.8028 0)
(-14.9988 -41.1794 0)
(-16.8994 -33.9486 0)
(-18.2254 -26.4019 0)
(-19.1469 -18.6942 0)
(-20.2205 -10.5883 0)
(-21.1316 -1.65731 0)
(-21.5458 7.56314 0)
(-21.7721 16.7822 0)
(-21.5782 25.7323 0)
(-21.0894 34.1898 0)
(-20.402 42.0286 0)
(-19.5393 49.1308 0)
(-18.4939 55.3294 0)
(-17.1859 60.3191 0)
(-15.3672 63.5166 0)
(-12.7263 63.8711 0)
(-9.65895 62.2401 0)
(-6.31282 58.7674 0)
(-2.105 53.8403 0)
(-0.0389147 47.6486 0)
(5.22825 40.6167 0)
(8.65268 33.044 0)
(12.1416 25.3399 0)
(15.8371 17.5051 0)
(19.4437 9.47341 0)
(22.1073 1.94707 0)
(24.0825 -4.66687 0)
(25.0902 -10.6074 0)
(25.1519 -15.981 0)
(24.3905 -20.9165 0)
(22.9655 -25.541 0)
(21.0414 -29.9295 0)
(18.7442 -34.0822 0)
(16.1618 -37.9372 0)
(13.355 -41.3814 0)
(10.3669 -44.2507 0)
(7.23807 -46.304 0)
(4.02695 -47.1032 0)
(0.86575 -46.6468 0)
(-2.15149 -45.1121 0)
(-4.95525 -42.5242 0)
(-7.46754 -38.9742 0)
(-9.62051 -34.6156 0)
(-11.3732 -29.6498 0)
(-12.7159 -24.2941 0)
(-13.6617 -18.7337 0)
(-14.3679 -13.0399 0)
(-15.2271 -6.99192 0)
(-15.8378 -0.369657 0)
(-16.1754 6.3897 0)
(-16.3205 13.1467 0)
(-16.132 19.6992 0)
(-15.6873 25.8694 0)
(-15.0436 31.5395 0)
(-14.2221 36.5987 0)
(-13.2286 40.9124 0)
(-12.0204 44.2641 0)
(-10.4342 46.2504 0)
(-8.35266 46.364 0)
(-5.99888 45.2047 0)
(-3.39311 42.9247 0)
(-0.537781 39.5882 0)
(2.38164 35.2618 0)
(5.16224 30.3181 0)
(7.73808 25.0793 0)
(10.1135 19.6545 0)
(12.413 14.1111 0)
(14.6985 8.44611 0)
(16.348 2.87302 0)
(17.5186 -2.25618 0)
(18.0969 -7.08283 0)
(18.0386 -11.6299 0)
(17.4187 -15.8846 0)
(16.3388 -19.8533 0)
(14.8999 -23.5353 0)
(13.1839 -26.9012 0)
(11.2556 -29.898 0)
(9.1632 -32.4496 0)
(6.94309 -34.4438 0)
(4.63269 -35.6933 0)
(2.29139 -35.8522 0)
(0.023983 -35.2107 0)
(-2.13157 -33.7813 0)
(-4.12332 -31.6052 0)
(-5.8975 -28.7619 0)
(-7.41073 -25.37 0)
(-8.63787 -21.577 0)
(-9.57427 -17.5383 0)
(-10.2321 -13.3831 0)
(-10.7442 -9.14768 0)
(-11.3918 -4.63767 0)
(-11.792 0.282135 0)
(-12.0256 5.26677 0)
(-12.0869 10.2319 0)
(-11.8848 15.0298 0)
(-11.4712 19.5291 0)
(-10.8794 23.6382 0)
(-10.1214 27.2689 0)
(-9.20277 30.3274 0)
(-8.10184 32.6856 0)
(-6.73088 34.1165 0)
(-5.0258 34.2558 0)
(-3.13819 33.509 0)
(-1.14162 31.9355 0)
(0.905184 29.63 0)
(2.93036 26.7178 0)
(4.85713 23.3313 0)
(6.64482 19.6652 0)
(8.20512 15.701 0)
(9.76831 11.936 0)
(11.0957 7.31565 0)
(12.2737 3.8562 0)
(13.0939 -2.3194 0)
(20.8329 -48.8022 0)
(16.4923 -52.7825 0)
(11.9217 -55.9502 0)
(7.18818 -57.8371 0)
(2.43744 -57.9802 0)
(-2.13767 -56.7029 0)
(-6.4303 -54.0106 0)
(-10.3237 -49.9986 0)
(-13.7157 -44.8472 0)
(-16.5478 -38.7987 0)
(-18.8149 -32.1135 0)
(-20.5573 -25.0019 0)
(-21.997 -17.5252 0)
(-23.4994 -9.48287 0)
(-24.5236 -0.817679 0)
(-25.1982 7.99613 0)
(-25.5424 16.8273 0)
(-25.4477 25.4336 0)
(-25.0063 33.6067 0)
(-24.275 41.2018 0)
(-23.2659 48.0638 0)
(-21.9585 53.9668 0)
(-20.2345 58.501 0)
(-17.7144 60.8597 0)
(-14.3362 60.6577 0)
(-10.5148 58.6015 0)
(-6.0861 54.94 0)
(-1.81207 49.8749 0)
(2.79969 43.5059 0)
(7.50998 36.3354 0)
(11.7553 29.0124 0)
(16.1287 21.4616 0)
(20.5164 13.6714 0)
(23.9008 6.19944 0)
(26.4922 -0.26615 0)
(28.0415 -5.92517 0)
(28.5434 -10.902 0)
(28.1062 -15.3851 0)
(26.8717 -19.5917 0)
(25.023 -23.6633 0)
(22.7314 -27.6421 0)
(20.1142 -31.4836 0)
(17.2425 -35.0938 0)
(14.1595 -38.3397 0)
(10.9036 -41.0503 0)
(7.51765 -42.9946 0)
(4.06629 -43.785 0)
(0.677272 -43.4315 0)
(-2.5626 -42.0751 0)
(-5.58488 -39.7429 0)
(-8.31445 -36.5192 0)
(-10.6902 -32.5398 0)
(-12.6795 -27.9736 0)
(-14.2776 -22.9906 0)
(-15.5219 -17.7164 0)
(-16.6036 -12.1597 0)
(-17.7305 -6.16979 0)
(-18.4067 0.217841 0)
(-18.8958 6.67908 0)
(-19.0983 13.1347 0)
(-18.9609 19.4033 0)
(-18.541 25.3252 0)
(-17.8711 30.7776 0)
(-16.9576 35.6263 0)
(-15.7766 39.6914 0)
(-14.2196 42.6887 0)
(-12.0423 44.0875 0)
(-9.32742 43.8602 0)
(-6.30881 42.4111 0)
(-3.03908 39.8705 0)
(0.38823 36.3909 0)
(3.80868 32.1553 0)
(7.07008 27.4057 0)
(10.1167 22.3464 0)
(13.0219 17.0875 0)
(15.8053 11.6975 0)
(18.0284 6.38349 0)
(19.5867 1.50948 0)
(20.5121 -2.98022 0)
(20.7429 -7.17363 0)
(20.336 -11.1171 0)
(19.3799 -14.8643 0)
(17.9835 -18.4341 0)
(16.2508 -21.8079 0)
(14.2621 -24.9382 0)
(12.0766 -27.7544 0)
(9.73673 -30.1653 0)
(7.27915 -32.0544 0)
(4.74552 -33.245 0)
(2.20081 -33.4433 0)
(-0.256654 -32.8927 0)
(-2.59191 -31.6071 0)
(-4.75482 -29.6278 0)
(-6.69419 -27.0288 0)
(-8.37129 -23.9143 0)
(-9.76692 -20.4081 0)
(-10.8815 -16.6311 0)
(-11.7481 -12.669 0)
(-12.5172 -8.51729 0)
(-13.3235 -4.05539 0)
(-13.7593 0.669745 0)
(-14.0754 5.42681 0)
(-14.156 10.1568 0)
(-13.9693 14.7263 0)
(-13.55 19.016 0)
(-12.911 22.9288 0)
(-12.0504 26.3639 0)
(-10.9531 29.2052 0)
(-9.56374 31.2952 0)
(-7.75742 32.3339 0)
(-5.60223 32.263 0)
(-3.28105 31.3648 0)
(-0.856391 29.7081 0)
(1.59879 27.395 0)
(4.00515 24.5557 0)
(6.27705 21.2929 0)
(8.40028 17.8019 0)
(10.2978 13.9882 0)
(12.1743 10.3231 0)
(13.5921 6.01791 0)
(14.7492 2.87574 0)
(15.2887 -2.66321 0)
(21.4303 -44.4726 0)
(16.8896 -48.2093 0)
(12.125 -51.1816 0)
(7.19951 -52.9682 0)
(2.25923 -53.2024 0)
(-2.51677 -52.1347 0)
(-7.0298 -49.7738 0)
(-11.1714 -46.2022 0)
(-14.8486 -41.5708 0)
(-18.0098 -36.0712 0)
(-20.6401 -29.8919 0)
(-22.8009 -23.1678 0)
(-24.7302 -15.9151 0)
(-26.5351 -8.07171 0)
(-27.7081 0.188248 0)
(-28.5969 8.57613 0)
(-29.046 16.9888 0)
(-29.0372 25.2 0)
(-28.632 33.0183 0)
(-27.8616 40.2832 0)
(-26.7259 46.8021 0)
(-25.1587 52.2724 0)
(-22.9043 56.1607 0)
(-19.5139 57.4548 0)
(-15.3537 56.6694 0)
(-10.664 54.1115 0)
(-5.53181 50.0915 0)
(-0.0784613 44.8044 0)
(5.33603 38.4653 0)
(10.499 31.5487 0)
(15.6017 24.3691 0)
(20.7305 16.9275 0)
(24.8951 9.6159 0)
(28.1735 3.31507 0)
(30.3086 -2.09236 0)
(31.2961 -6.70977 0)
(31.2439 -10.6945 0)
(30.2827 -14.3133 0)
(28.5942 -17.8315 0)
(26.3829 -21.3998 0)
(23.8052 -25.0229 0)
(20.9493 -28.5991 0)
(17.8627 -31.9894 0)
(14.5845 -35.0518 0)
(11.1439 -37.6153 0)
(7.57801 -39.4629 0)
(3.95221 -40.2615 0)
(0.389123 -40.016 0)
(-3.02759 -38.8423 0)
(-6.23067 -36.7674 0)
(-9.14842 -33.8659 0)
(-11.7258 -30.2516 0)
(-13.9364 -26.0585 0)
(-15.7843 -21.4108 0)
(-17.3375 -16.3848 0)
(-18.7641 -10.9715 0)
(-20.0363 -5.1519 0)
(-20.8665 0.908185 0)
(-21.4743 7.0532 0)
(-21.7403 13.1888 0)
(-21.6609 19.1466 0)
(-21.2669 24.7809 0)
(-20.564 29.9535 0)
(-19.5305 34.495 0)
(-18.0854 38.1679 0)
(-16.0032 40.5873 0)
(-13.1154 41.2634 0)
(-9.76826 40.6731 0)
(-6.09486 38.9395 0)
(-2.20806 36.2261 0)
(1.75129 32.7072 0)
(5.6309 28.5672 0)
(9.33538 23.9904 0)
(12.8834 19.129 0)
(16.2431 14.1011 0)
(19.0054 9.11112 0)
(21.0415 4.54281 0)
(22.3733 0.407259 0)
(22.9563 -3.39216 0)
(22.8417 -6.91947 0)
(22.1014 -10.2707 0)
(20.8386 -13.5318 0)
(19.1688 -16.7262 0)
(17.1948 -19.8163 0)
(14.9881 -22.7276 0)
(12.6007 -25.3739 0)
(10.073 -27.6557 0)
(7.43663 -29.4533 0)
(4.7346 -30.607 0)
(2.03361 -30.8601 0)
(-0.574002 -30.4137 0)
(-3.05307 -29.2813 0)
(-5.35614 -27.5026 0)
(-7.4381 -25.145 0)
(-9.26687 -22.2981 0)
(-10.8287 -19.0616 0)
(-12.1302 -15.5239 0)
(-13.2245 -11.7351 0)
(-14.2355 -7.68226 0)
(-15.1185 -3.35448 0)
(-15.6732 1.11901 0)
(-16.0536 5.6336 0)
(-16.1643 10.112 0)
(-15.9987 14.4283 0)
(-15.5677 18.4715 0)
(-14.8634 22.1358 0)
(-13.8661 25.3043 0)
(-12.5312 27.8365 0)
(-10.7464 29.5316 0)
(-8.44053 30.0868 0)
(-5.85571 29.8098 0)
(-3.10301 28.768 0)
(-0.262536 27.0545 0)
(2.57438 24.7697 0)
(5.32844 22.0345 0)
(7.91451 18.9207 0)
(10.3717 15.6209 0)
(12.5289 12.0125 0)
(14.4791 8.59137 0)
(15.8478 4.78143 0)
(16.8811 2.04823 0)
(17.0921 -2.8019 0)
(21.482 -39.9856 0)
(16.8248 -43.4846 0)
(11.9412 -46.26 0)
(6.90252 -47.9533 0)
(1.85213 -48.2737 0)
(-3.04912 -47.4017 0)
(-7.7107 -45.3456 0)
(-12.0345 -42.1744 0)
(-15.9394 -38.0095 0)
(-19.3815 -32.9975 0)
(-22.3612 -27.2706 0)
(-24.9659 -20.909 0)
(-27.341 -13.9369 0)
(-29.2775 -6.4339 0)
(-30.6867 1.34653 0)
(-31.721 9.29146 0)
(-32.2648 17.2517 0)
(-32.335 25.0223 0)
(-31.9637 32.4285 0)
(-31.16 39.2877 0)
(-29.8812 45.3425 0)
(-27.9266 50.1613 0)
(-24.793 52.8878 0)
(-20.4802 53.2678 0)
(-15.4283 51.8103 0)
(-9.81347 48.751 0)
(-3.83011 44.39 0)
(2.26484 38.986 0)
(8.24088 32.8035 0)
(14.1828 26.1257 0)
(20.0927 19.0758 0)
(25.0577 12.0538 0)
(29.0725 6.0079 0)
(31.8242 0.887651 0)
(33.3031 -3.37006 0)
(33.6377 -6.87878 0)
(32.8775 -9.87242 0)
(31.4292 -12.7359 0)
(29.4494 -15.7107 0)
(27.0561 -18.8955 0)
(24.3133 -22.2194 0)
(21.2995 -25.5361 0)
(18.1023 -28.734 0)
(14.7124 -31.6274 0)
(11.1538 -34.0454 0)
(7.4699 -35.7945 0)
(3.72876 -36.5969 0)
(0.0475833 -36.4512 0)
(-3.49615 -35.4491 0)
(-6.84101 -33.617 0)
(-9.92362 -31.0185 0)
(-12.6978 -27.7453 0)
(-15.1429 -23.8959 0)
(-17.2699 -19.552 0)
(-19.1521 -14.7601 0)
(-20.8689 -9.54969 0)
(-22.2117 -4.00435 0)
(-23.2133 1.70576 0)
(-23.9153 7.52276 0)
(-24.2516 13.3179 0)
(-24.2271 18.9344 0)
(-23.8422 24.2279 0)
(-23.0711 29.0351 0)
(-21.8336 33.1375 0)
(-19.9282 36.215 0)
(-17.0513 37.6751 0)
(-13.5204 37.8439 0)
(-9.54238 36.8491 0)
(-5.26024 34.8534 0)
(-0.83448 32.0261 0)
(3.57287 28.5309 0)
(7.85876 24.5272 0)
(12.0241 20.1675 0)
(15.9766 15.576 0)
(19.2474 10.9622 0)
(21.8029 6.78 0)
(23.5601 3.02172 0)
(24.5097 -0.381109 0)
(24.7186 -3.46421 0)
(24.229 -6.32164 0)
(23.1795 -9.11022 0)
(21.708 -11.9395 0)
(19.8597 -14.7934 0)
(17.7444 -17.6278 0)
(15.4239 -20.3519 0)
(12.9257 -22.848 0)
(10.2822 -25.0072 0)
(7.52758 -26.7159 0)
(4.70565 -27.8328 0)
(1.88389 -28.1415 0)
(-0.848377 -27.7977 0)
(-3.45661 -26.8173 0)
(-5.89606 -25.2364 0)
(-8.12381 -23.1129 0)
(-10.1133 -20.52 0)
(-11.8554 -17.5325 0)
(-13.3656 -14.2108 0)
(-14.7031 -10.5873 0)
(-15.9189 -6.68411 0)
(-16.85 -2.56853 0)
(-17.5256 1.63721 0)
(-17.964 5.89397 0)
(-18.1098 10.1004 0)
(-17.9559 14.1347 0)
(-17.4886 17.882 0)
(-16.6779 21.2229 0)
(-15.4714 24.0293 0)
(-13.7611 26.1237 0)
(-11.4142 27.18 0)
(-8.66946 27.4323 0)
(-5.67263 26.9337 0)
(-2.52312 25.7688 0)
(0.678832 24.0283 0)
(3.83618 21.7992 0)
(6.88593 19.1894 0)
(9.76274 16.2629 0)
(12.4712 13.2132 0)
(14.6566 9.93335 0)
(16.4833 6.93499 0)
(17.6684 3.70739 0)
(18.5101 1.43073 0)
(18.3749 -2.71621 0)
(20.9972 -35.4143 0)
(16.3148 -38.6796 0)
(11.3948 -41.2619 0)
(6.31588 -42.8659 0)
(1.22495 -43.2612 0)
(-3.73798 -42.5635 0)
(-8.49243 -40.7808 0)
(-12.9524 -37.9679 0)
(-17.0471 -34.214 0)
(-20.7415 -29.6193 0)
(-24.0544 -24.2741 0)
(-27.0571 -18.2553 0)
(-29.6922 -11.6504 0)
(-31.752 -4.63616 0)
(-33.3952 2.64906 0)
(-34.5452 10.1266 0)
(-35.1905 17.6033 0)
(-35.3439 24.9005 0)
(-35.0081 31.8404 0)
(-34.142 38.1887 0)
(-32.5665 43.5677 0)
(-29.7941 47.2461 0)
(-25.5349 48.5991 0)
(-20.3044 48.1266 0)
(-14.3313 46.0112 0)
(-7.87546 42.54 0)
(-1.22601 37.9859 0)
(5.3847 32.5917 0)
(12.0463 26.593 0)
(18.6955 20.0297 0)
(24.4248 13.3946 0)
(29.1404 7.70946 0)
(32.4934 2.95861 0)
(34.4629 -0.883998 0)
(35.169 -3.89606 0)
(34.6482 -6.30223 0)
(33.4385 -8.5288 0)
(31.6891 -10.8619 0)
(29.5371 -13.4284 0)
(27.0582 -16.257 0)
(24.2928 -19.3033 0)
(21.2578 -22.4149 0)
(17.9876 -25.39 0)
(14.5469 -28.1073 0)
(10.9292 -30.3793 0)
(7.17809 -32.0306 0)
(3.36943 -32.8415 0)
(-0.385953 -32.79 0)
(-4.01788 -31.9479 0)
(-7.47228 -30.3373 0)
(-10.6945 -28.0084 0)
(-13.6458 -25.0283 0)
(-16.3132 -21.467 0)
(-18.7187 -17.3875 0)
(-20.9025 -12.8467 0)
(-22.7719 -7.91803 0)
(-24.2437 -2.73839 0)
(-25.4184 2.61465 0)
(-26.2226 8.0759 0)
(-26.6376 13.5004 0)
(-26.6495 18.7361 0)
(-26.2227 23.6187 0)
(-25.273 27.9393 0)
(-23.5906 31.3809 0)
(-20.8211 33.3793 0)
(-17.2406 34.1373 0)
(-13.0793 33.7714 0)
(-8.51119 32.4153 0)
(-3.7236 30.2312 0)
(1.10193 27.3678 0)
(5.85503 23.9646 0)
(10.5442 20.1574 0)
(15.004 16.0234 0)
(18.7849 11.8654 0)
(21.8416 8.14421 0)
(24.0178 4.82478 0)
(25.3252 1.8698 0)
(25.8326 -0.742422 0)
(25.5575 -3.10173 0)
(24.7864 -5.39443 0)
(23.5888 -7.74921 0)
(22.0352 -10.2154 0)
(20.1733 -12.7865 0)
(18.0301 -15.3914 0)
(15.6341 -17.8968 0)
(13.0719 -20.228 0)
(10.3585 -22.2616 0)
(7.52403 -23.878 0)
(4.61736 -24.9534 0)
(1.7082 -25.3171 0)
(-1.11837 -25.0703 0)
(-3.82871 -24.2333 0)
(-6.38378 -22.8371 0)
(-8.74719 -20.9287 0)
(-10.8974 -18.5626 0)
(-12.8313 -15.7926 0)
(-14.5692 -12.6655 0)
(-16.1398 -9.22682 0)
(-17.4709 -5.53722 0)
(-18.4983 -1.69718 0)
(-19.2945 2.2366 0)
(-19.7976 6.20858 0)
(-19.9772 10.105 0)
(-19.8083 13.8059 0)
(-19.2497 17.1883 0)
(-18.2258 20.1195 0)
(-16.618 22.4078 0)
(-14.2877 23.7641 0)
(-11.4888 24.4116 0)
(-8.34577 24.3583 0)
(-4.98242 23.6653 0)
(-1.51417 22.4147 0)
(1.95383 20.6817 0)
(5.35284 18.5462 0)
(8.64742 16.1126 0)
(11.7038 13.4335 0)
(14.3104 10.6852 0)
(16.4423 7.99526 0)
(17.9826 5.52233 0)
(18.8902 2.89789 0)
(19.5054 1.08209 0)
(19.0847 -2.41652 0)
(20.0673 -30.8677 0)
(15.4208 -33.8724 0)
(10.5428 -36.2612 0)
(5.48713 -37.7761 0)
(0.405156 -38.2283 0)
(-4.57457 -37.678 0)
(-9.38484 -36.1252 0)
(-13.952 -33.6103 0)
(-18.2136 -30.1979 0)
(-22.148 -25.9626 0)
(-25.7664 -20.9839 0)
(-28.9995 -15.3405 0)
(-31.7076 -9.18573 0)
(-33.9897 -2.6821 0)
(-35.7884 4.11894 0)
(-37.0724 11.0853 0)
(-37.8315 18.0534 0)
(-38.0599 24.8375 0)
(-37.703 31.2167 0)
(-36.5717 36.8418 0)
(-34.1826 41.0367 0)
(-30.1038 43.0791 0)
(-24.8583 43.3955 0)
(-18.6769 42.0639 0)
(-11.8787 39.3807 0)
(-4.80167 35.619 0)
(2.29272 31.0142 0)
(9.51258 25.7713 0)
(16.7541 19.7899 0)
(23.1219 13.6459 0)
(28.4229 8.40473 0)
(32.272 4.09208 0)
(34.6554 0.720169 0)
(35.7061 -1.76676 0)
(35.4398 -3.5879 0)
(34.4849 -5.19064 0)
(32.9961 -6.89274 0)
(31.1174 -8.83927 0)
(28.9358 -11.0887 0)
(26.4854 -13.6333 0)
(23.7732 -16.3997 0)
(20.8015 -19.2643 0)
(17.5772 -22.0513 0)
(14.1247 -24.5604 0)
(10.505 -26.6779 0)
(6.73887 -28.2295 0)
(2.90006 -29.0383 0)
(-0.902173 -29.0644 0)
(-4.60151 -28.358 0)
(-8.15285 -26.9337 0)
(-11.51 -24.8314 0)
(-14.6406 -22.1037 0)
(-17.5362 -18.808 0)
(-20.191 -15.0002 0)
(-22.516 -10.7381 0)
(-24.4832 -6.15774 0)
(-26.1366 -1.33866 0)
(-27.4294 3.66806 0)
(-28.3327 8.74329 0)
(-28.81 13.7465 0)
(-28.8017 18.5186 0)
(-28.1932 22.8537 0)
(-26.763 26.4226 0)
(-24.1171 28.6718 0)
(-20.5983 29.8311 0)
(-16.3715 29.945 0)
(-11.6365 29.1106 0)
(-6.61411 27.4892 0)
(-1.51305 25.2115 0)
(3.55386 22.4024 0)
(8.62178 19.1679 0)
(13.4489 15.5039 0)
(17.6417 11.851 0)
(21.0887 8.62122 0)
(23.6183 5.78335 0)
(25.25 3.32956 0)
(26.0655 1.22247 0)
(26.1007 -0.649032 0)
(25.6219 -2.45449 0)
(24.722 -4.33644 0)
(23.4711 -6.34987 0)
(21.9168 -8.50411 0)
(20.0815 -10.7753 0)
(17.9789 -13.1118 0)
(15.6271 -15.4253 0)
(13.0459 -17.5741 0)
(10.2991 -19.4573 0)
(7.42871 -20.9765 0)
(4.47198 -22.0074 0)
(1.49973 -22.4166 0)
(-1.4061 -22.2562 0)
(-4.21129 -21.546 0)
(-6.88123 -20.3112 0)
(-9.38383 -18.5877 0)
(-11.7024 -16.4186 0)
(-13.8376 -13.8505 0)
(-15.7867 -10.9306 0)
(-17.4794 -7.70908 0)
(-18.8915 -4.28819 0)
(-20.0551 -0.729341 0)
(-20.9242 2.92414 0)
(-21.4628 6.57424 0)
(-21.6266 10.1085 0)
(-21.3565 13.4079 0)
(-20.5538 16.3131 0)
(-19.0483 18.5833 0)
(-16.8055 20.0936 0)
(-14.0355 20.9781 0)
(-10.8526 21.2412 0)
(-7.38773 20.9244 0)
(-3.77115 20.0963 0)
(-0.1196 18.8156 0)
(3.49941 17.1466 0)
(7.06015 15.1568 0)
(10.383 12.8884 0)
(13.2925 10.577 0)
(15.6903 8.40691 0)
(17.5767 6.31527 0)
(18.7897 4.4039 0)
(19.4373 2.35384 0)
(19.8765 0.941291 0)
(19.2703 -1.98292 0)
(18.7512 -26.4143 0)
(14.2118 -29.1613 0)
(9.41629 -31.312 0)
(4.43847 -32.7183 0)
(-0.598074 -33.2089 0)
(-5.56066 -32.7594 0)
(-10.393 -31.3838 0)
(-15.0458 -29.1198 0)
(-19.4603 -26.0131 0)
(-23.5857 -22.1051 0)
(-27.3043 -17.4521 0)
(-30.6363 -12.2612 0)
(-33.5348 -6.61452 0)
(-35.9638 -0.577843 0)
(-37.8995 5.72966 0)
(-39.3141 12.1695 0)
(-40.1662 18.5867 0)
(-40.3699 24.7669 0)
(-39.7047 30.3605 0)
(-37.6484 34.6738 0)
(-33.7951 37.0828 0)
(-28.6302 37.9026 0)
(-22.3646 37.1794 0)
(-15.3572 35.1522 0)
(-8.01542 32.0962 0)
(-0.629896 28.2391 0)
(6.9584 23.7706 0)
(14.5917 18.4106 0)
(21.3788 12.8612 0)
(27.0521 8.16316 0)
(31.204 4.35912 0)
(33.8385 1.50478 0)
(35.1114 -0.439896 0)
(35.071 -1.70528 0)
(34.3586 -2.72696 0)
(33.1414 -3.82476 0)
(31.5645 -5.1584 0)
(29.7195 -6.81054 0)
(27.644 -8.80581 0)
(25.3391 -11.1043 0)
(22.7852 -13.6133 0)
(19.9599 -16.2049 0)
(16.8557 -18.7364 0)
(13.4924 -21.0545 0)
(9.90772 -22.9849 0)
(6.16984 -24.4114 0)
(2.338 -25.2022 0)
(-1.49193 -25.2863 0)
(-5.24703 -24.6879 0)
(-8.89297 -23.4193 0)
(-12.3957 -21.5167 0)
(-15.7086 -19.0176 0)
(-18.7577 -15.9488 0)
(-21.5123 -12.4106 0)
(-23.9706 -8.50593 0)
(-26.1014 -4.28212 0)
(-27.8783 0.193428 0)
(-29.2644 4.81521 0)
(-30.2046 9.46012 0)
(-30.6139 13.9728 0)
(-30.3427 18.1295 0)
(-29.1125 21.5605 0)
(-26.6258 23.8637 0)
(-23.2238 25.2151 0)
(-19.0341 25.6257 0)
(-14.2588 25.1753 0)
(-9.14234 24.0081 0)
(-3.92162 22.258 0)
(1.28143 20.0181 0)
(6.52875 17.3462 0)
(11.5342 14.159 0)
(15.9561 11.0383 0)
(19.6096 8.30504 0)
(22.3507 5.95649 0)
(24.2068 4.00249 0)
(25.2709 2.3885 0)
(25.6319 0.997287 0)
(25.4413 -0.317325 0)
(24.8683 -1.70559 0)
(23.9619 -3.24427 0)
(22.7675 -4.95708 0)
(21.3061 -6.83679 0)
(19.5817 -8.8445 0)
(17.5913 -10.9149 0)
(15.3371 -12.9689 0)
(12.8366 -14.9195 0)
(10.1253 -16.6547 0)
(7.25109 -18.0477 0)
(4.2783 -19.0115 0)
(1.26921 -19.4456 0)
(-1.70621 -19.354 0)
(-4.61005 -18.7514 0)
(-7.40688 -17.6595 0)
(-10.0648 -16.1066 0)
(-12.5579 -14.1229 0)
(-14.8393 -11.7352 0)
(-16.8832 -9.02663 0)
(-18.6881 -6.08556 0)
(-20.2204 -2.95023 0)
(-21.4495 0.323685 0)
(-22.3344 3.64739 0)
(-22.8159 6.91721 0)
(-22.8098 10.0069 0)
(-22.201 12.738 0)
(-20.7689 14.8542 0)
(-18.673 16.3901 0)
(-16.0054 17.3726 0)
(-12.8802 17.8154 0)
(-9.43213 17.7631 0)
(-5.80092 17.2679 0)
(-2.11229 16.3793 0)
(1.57284 15.1388 0)
(5.24051 13.5771 0)
(8.67414 11.6833 0)
(11.7424 9.8242 0)
(14.3278 8.08033 0)
(16.337 6.45584 0)
(17.8696 4.9282 0)
(18.796 3.55034 0)
(19.23 2.00697 0)
(19.5387 0.942696 0)
(18.8544 -1.46679 0)
(17.0794 -22.1008 0)
(12.7335 -24.5601 0)
(8.08388 -26.489 0)
(3.21629 -27.7314 0)
(-1.7335 -28.2406 0)
(-6.64721 -27.8911 0)
(-11.4784 -26.6438 0)
(-16.1739 -24.5609 0)
(-20.647 -21.6877 0)
(-24.8348 -18.0972 0)
(-28.6806 -13.8754 0)
(-32.1339 -9.10426 0)
(-35.16 -3.88003 0)
(-37.7215 1.68563 0)
(-39.7668 7.47574 0)
(-41.223 13.3561 0)
(-41.9619 19.1232 0)
(-41.7076 24.3934 0)
(-39.8499 28.4617 0)
(-36.1879 30.9416 0)
(-31.1221 31.9993 0)
(-24.8619 31.6614 0)
(-17.7818 30.1161 0)
(-10.3538 27.6579 0)
(-2.8913 24.5076 0)
(4.83349 20.795 0)
(12.5764 16.0472 0)
(19.4835 11.2103 0)
(25.1952 7.15526 0)
(29.3503 3.93787 0)
(31.9849 1.63811 0)
(33.2806 0.221468 0)
(33.3609 -0.548448 0)
(32.8333 -1.06193 0)
(31.8764 -1.62194 0)
(30.6256 -2.39448 0)
(29.1638 -3.47863 0)
(27.523 -4.92178 0)
(25.6972 -6.71035 0)
(23.6554 -8.77856 0)
(21.3574 -11.0273 0)
(18.7659 -13.3355 0)
(15.8578 -15.5745 0)
(12.6369 -17.6275 0)
(9.14678 -19.3731 0)
(5.46457 -20.6599 0)
(1.66762 -21.3678 0)
(-2.16097 -21.4822 0)
(-5.94729 -20.96 0)
(-9.65722 -19.7884 0)
(-13.2595 -18.0286 0)
(-16.6888 -15.7406 0)
(-19.8718 -12.9698 0)
(-22.7582 -9.75611 0)
(-25.3268 -6.15752 0)
(-27.5534 -2.26229 0)
(-29.3844 1.82754 0)
(-30.7361 5.99866 0)
(-31.4957 10.1038 0)
(-31.4865 13.8924 0)
(-30.3468 16.9746 0)
(-28.019 19.1625 0)
(-24.7447 20.5273 0)
(-20.6538 21.0712 0)
(-15.9533 20.8673 0)
(-10.9013 20.0395 0)
(-5.7509 18.7308 0)
(-0.618313 17.0216 0)
(4.58691 14.9042 0)
(9.53846 12.2066 0)
(13.9288 9.62566 0)
(17.5421 7.39157 0)
(20.2771 5.51903 0)
(22.1856 4.02728 0)
(23.3668 2.86171 0)
(23.9519 1.90928 0)
(24.0129 1.03829 0)
(23.7632 0.110747 0)
(23.2318 -0.970112 0)
(22.4507 -2.23811 0)
(21.4306 -3.69636 0)
(20.1648 -5.32226 0)
(18.6382 -7.06923 0)
(16.835 -8.87325 0)
(14.7462 -10.6614 0)
(12.3775 -12.3583 0)
(9.75662 -13.8842 0)
(6.93788 -15.14 0)
(3.9895 -16.0179 0)
(0.977766 -16.4377 0)
(-2.04444 -16.3754 0)
(-5.03256 -15.8456 0)
(-7.93389 -14.8612 0)
(-10.7028 -13.4458 0)
(-13.3031 -11.6408 0)
(-15.6975 -9.4946 0)
(-17.8465 -7.05541 0)
(-19.7154 -4.37894 0)
(-21.2666 -1.53617 0)
(-22.4475 1.3896 0)
(-23.187 4.2993 0)
(-23.3871 7.05277 0)
(-22.8768 9.45927 0)
(-21.5653 11.371 0)
(-19.6216 12.8171 0)
(-17.1045 13.7905 0)
(-14.1196 14.3022 0)
(-10.802 14.4029 0)
(-7.29406 14.1514 0)
(-3.72344 13.5834 0)
(-0.147 12.7199 0)
(3.4359 11.5462 0)
(6.81446 10.0413 0)
(9.85703 8.58684 0)
(12.4234 7.23672 0)
(14.4927 6.00263 0)
(16.0495 4.89501 0)
(17.2045 3.86786 0)
(17.8843 2.93165 0)
(18.1576 1.80069 0)
(18.3889 1.01413 0)
(17.7425 -0.949352 0)
(15.1249 -18.0732 0)
(11.0114 -20.1734 0)
(6.55223 -21.8002 0)
(1.81795 -22.8568 0)
(-2.99335 -23.363 0)
(-7.75765 -23.0407 0)
(-12.5224 -21.8258 0)
(-17.2284 -19.9208 0)
(-21.7323 -17.3215 0)
(-25.9735 -14.047 0)
(-29.9076 -10.1746 0)
(-33.4741 -5.79975 0)
(-36.6062 -1.02617 0)
(-39.2158 4.03349 0)
(-41.1716 9.23971 0)
(-42.2804 14.3874 0)
(-42.2346 19.0591 0)
(-40.3292 22.5831 0)
(-36.7776 24.8764 0)
(-31.7621 25.9313 0)
(-25.5509 25.7696 0)
(-18.5582 24.5594 0)
(-11.2876 22.5852 0)
(-4.00277 20.1143 0)
(3.61577 17.1371 0)
(11.077 12.9688 0)
(17.6735 8.95727 0)
(22.9792 5.65443 0)
(26.7378 3.10319 0)
(29.0407 1.38815 0)
(30.1028 0.461744 0)
(30.1328 0.0938456 0)
(29.7069 -0.0390175 0)
(28.9711 -0.193204 0)
(28.0501 -0.519888 0)
(27.0089 -1.12142 0)
(25.8616 -2.06101 0)
(24.5861 -3.34915 0)
(23.1356 -4.94435 0)
(21.4548 -6.76961 0)
(19.4903 -8.72915 0)
(17.1976 -10.7123 0)
(14.5504 -12.6044 0)
(11.5476 -14.3228 0)
(8.22158 -15.8058 0)
(4.64593 -16.9309 0)
(0.907624 -17.5475 0)
(-2.88602 -17.6832 0)
(-6.65485 -17.2244 0)
(-10.3985 -16.0948 0)
(-14.0863 -14.4569 0)
(-17.6077 -12.3836 0)
(-20.867 -9.88938 0)
(-23.8083 -6.98181 0)
(-26.3974 -3.71776 0)
(-28.5717 -0.214627 0)
(-30.2183 3.3924 0)
(-31.1866 6.94075 0)
(-31.2853 10.1868 0)
(-30.0966 12.7794 0)
(-27.9018 14.7075 0)
(-24.7598 15.9432 0)
(-20.8278 16.4927 0)
(-16.3247 16.4269 0)
(-11.5121 15.8626 0)
(-6.64685 14.9194 0)
(-1.82276 13.6834 0)
(3.08152 12.0852 0)
(7.69799 9.89484 0)
(11.7618 7.87759 0)
(15.0554 6.15394 0)
(17.5292 4.74221 0)
(19.2638 3.66082 0)
(20.3739 2.8634 0)
(20.998 2.25562 0)
(21.2439 1.72894 0)
(21.2395 1.16713 0)
(21.0513 0.473972 0)
(20.6857 -0.392944 0)
(20.1368 -1.44502 0)
(19.3827 -2.67285 0)
(18.393 -4.04595 0)
(17.1369 -5.5167 0)
(15.5883 -7.02677 0)
(13.7316 -8.51493 0)
(11.5662 -9.92579 0)
(9.11096 -11.2054 0)
(6.41242 -12.2824 0)
(3.54319 -13.0564 0)
(0.577401 -13.4223 0)
(-2.43803 -13.341 0)
(-5.45102 -12.8607 0)
(-8.39675 -11.984 0)
(-11.216 -10.7258 0)
(-13.8576 -9.11612 0)
(-16.2712 -7.19714 0)
(-18.4038 -5.02541 0)
(-20.197 -2.67044 0)
(-21.5831 -0.212179 0)
(-22.481 2.24909 0)
(-22.7905 4.57239 0)
(-22.3042 6.57897 0)
(-21.1369 8.21785 0)
(-19.3569 9.48805 0)
(-17.0349 10.376 0)
(-14.2762 10.8883 0)
(-11.2109 11.0685 0)
(-7.97703 10.9793 0)
(-4.69329 10.661 0)
(-1.40938 10.1186 0)
(1.89102 9.30187 0)
(5.01332 8.16823 0)
(7.8179 7.08715 0)
(10.1929 6.09671 0)
(12.1104 5.21323 0)
(13.618 4.44334 0)
(14.7229 3.76457 0)
(15.5215 3.11804 0)
(16.0095 2.5035 0)
(16.1861 1.67674 0)
(16.3887 1.09148 0)
(15.8727 -0.495273 0)
(12.9342 -14.2653 0)
(9.14593 -15.9853 0)
(4.89715 -17.3111 0)
(0.466655 -18.2083 0)
(-3.74877 -18.6933 0)
(-9.18451 -18.3153 0)
(-13.6994 -17.1726 0)
(-18.3743 -15.3986 0)
(-22.8628 -12.9731 0)
(-27.0976 -9.93172 0)
(-31.0276 -6.36426 0)
(-34.5397 -2.37998 0)
(-37.4915 1.89695 0)
(-39.6937 6.29672 0)
(-40.8691 10.5597 0)
(-40.5869 14.3293 0)
(-38.4707 17.1629 0)
(-34.8636 19.0176 0)
(-29.8736 19.8576 0)
(-23.8175 19.7283 0)
(-17.1505 18.7817 0)
(-10.3675 17.2692 0)
(-3.57992 15.4528 0)
(3.55051 13.0317 0)
(10.2381 9.58282 0)
(15.9793 6.52707 0)
(20.36 4.07019 0)
(23.2811 2.24415 0)
(24.9207 1.11504 0)
(25.4748 0.603401 0)
(25.3454 0.503237 0)
(24.9189 0.579993 0)
(24.3424 0.650864 0)
(23.7186 0.601855 0)
(23.0889 0.340374 0)
(22.4451 -0.201874 0)
(21.7475 -1.0516 0)
(20.9341 -2.19388 0)
(19.9351 -3.57837 0)
(18.6799 -5.13134 0)
(17.1055 -6.76782 0)
(15.1728 -8.40248 0)
(12.8598 -9.94328 0)
(10.1518 -11.3154 0)
(7.06281 -12.4945 0)
(3.65264 -13.4014 0)
(-0.000236141 -13.8783 0)
(-3.36899 -13.8778 0)
(-7.57947 -13.3832 0)
(-11.1368 -12.3488 0)
(-14.8113 -10.8486 0)
(-18.3564 -8.97613 0)
(-21.5473 -6.76034 0)
(-24.2814 -4.19196 0)
(-26.5362 -1.35868 0)
(-28.2379 1.57641 0)
(-29.2088 4.43605 0)
(-29.1476 6.98584 0)
(-27.9451 9.03203 0)
(-25.8272 10.5727 0)
(-22.8603 11.5927 0)
(-19.2046 12.0807 0)
(-15.0841 12.0929 0)
(-10.7478 11.7416 0)
(-6.42375 11.1317 0)
(-2.1645 10.3219 0)
(2.13434 9.15893 0)
(6.11057 7.52702 0)
(9.5336 6.08317 0)
(12.2371 4.86974 0)
(14.2243 3.89607 0)
(15.599 3.17559 0)
(16.4824 2.66838 0)
(17.0035 2.30188 0)
(17.2827 1.99567 0)
(17.411 1.66635 0)
(17.4587 1.2404 0)
(17.4229 0.672816 0)
(17.284 -0.0524438 0)
(17.0084 -0.934281 0)
(16.5528 -1.95447 0)
(15.8714 -3.08113 0)
(14.9216 -4.27104 0)
(13.6691 -5.47547 0)
(12.0941 -6.64537 0)
(10.1935 -7.7394 0)
(7.98239 -8.7268 0)
(5.49907 -9.57048 0)
(2.80789 -10.1904 0)
(-0.0164883 -10.4619 0)
(-2.90171 -10.3373 0)
(-5.79702 -9.88283 0)
(-8.63711 -9.09471 0)
(-11.3497 -7.98608 0)
(-13.8611 -6.58766 0)
(-16.094 -4.9453 0)
(-17.9699 -3.11993 0)
(-19.412 -1.18752 0)
(-20.3419 0.752058 0)
(-20.6579 2.56723 0)
(-20.2212 4.12997 0)
(-19.2001 5.43704 0)
(-17.6228 6.48763 0)
(-15.5736 7.25576 0)
(-13.1592 7.73726 0)
(-10.4976 7.96474 0)
(-7.70942 7.99152 0)
(-4.89448 7.862 0)
(-2.0888 7.57892 0)
(0.725353 7.07463 0)
(3.38268 6.29028 0)
(5.75273 5.55371 0)
(7.75069 4.8876 0)
(9.37332 4.30404 0)
(10.6563 3.80832 0)
(11.652 3.38221 0)
(12.3907 2.99689 0)
(12.9395 2.59601 0)
(13.3187 2.18018 0)
(13.4719 1.558 0)
(13.6806 1.10719 0)
(13.3302 -0.158556 0)
(10.503 -10.871 0)
(6.9894 -12.2009 0)
(2.51008 -13.358 0)
(-0.408704 -13.844 0)
(-5.83537 -13.8289 0)
(-10.4715 -13.2981 0)
(-14.9283 -12.3385 0)
(-19.4162 -10.7463 0)
(-23.6298 -8.5502 0)
(-27.5222 -5.83668 0)
(-31.0028 -2.7149 0)
(-33.8789 0.679083 0)
(-35.9048 4.13925 0)
(-36.7639 7.31185 0)
(-35.8141 9.96325 0)
(-33.4249 12.0676 0)
(-29.7291 13.3918 0)
(-24.9186 13.9517 0)
(-19.3421 13.8289 0)
(-13.4498 13.1726 0)
(-7.58549 12.1987 0)
(-1.61428 11.0058 0)
(4.41424 8.90011 0)
(9.68934 6.42051 0)
(13.9536 4.40906 0)
(16.9343 2.841 0)
(18.706 1.74073 0)
(19.461 1.11558 0)
(19.4828 0.883477 0)
(19.1819 0.903772 0)
(18.736 1.01902 0)
(18.2908 1.12767 0)
(17.9232 1.16036 0)
(17.6534 1.05422 0)
(17.4586 0.753142 0)
(17.2836 0.221268 0)
(17.0534 -0.548044 0)
(16.6868 -1.53653 0)
(16.101 -2.69553 0)
(15.2158 -3.9512 0)
(13.9769 -5.2393 0)
(12.3794 -6.49343 0)
(10.4422 -7.58869 0)
(8.13743 -8.46567 0)
(5.42552 -9.21298 0)
(2.29005 -9.88439 0)
(-1.15423 -10.2385 0)
(-4.62088 -10.2654 0)
(-8.02902 -9.77981 0)
(-11.4501 -8.68058 0)
(-14.8753 -7.15546 0)
(-18.0573 -5.60201 0)
(-20.7153 -4.03027 0)
(-22.7621 -2.06859 0)
(-24.2224 0.235658 0)
(-24.9734 2.43315 0)
(-24.6462 4.26433 0)
(-23.4575 5.73898 0)
(-21.4876 6.87966 0)
(-18.8558 7.6649 0)
(-15.7246 8.08345 0)
(-12.2853 8.17389 0)
(-8.74125 8.02208 0)
(-5.25327 7.71884 0)
(-1.8375 7.27573 0)
(1.5335 6.49328 0)
(4.54875 5.42821 0)
(7.06592 4.54337 0)
(8.98458 3.80529 0)
(10.3516 3.21575 0)
(11.2769 2.78416 0)
(11.8729 2.48002 0)
(12.2519 2.25452 0)
(12.5139 2.0567 0)
(12.7283 1.83553 0)
(12.9277 1.54426 0)
(13.1127 1.1517 0)
(13.2597 0.644753 0)
(13.3323 0.0217521 0)
(13.2759 -0.707622 0)
(13.0505 -1.52514 0)
(12.6222 -2.40304 0)
(11.9499 -3.30227 0)
(11.0022 -4.1879 0)
(9.7599 -5.03042 0)
(8.21769 -5.8038 0)
(6.38144 -6.49642 0)
(4.26785 -7.09926 0)
(1.90949 -7.55431 0)
(-0.616823 -7.7191 0)
(-3.2001 -7.55702 0)
(-5.78502 -7.12507 0)
(-8.29156 -6.42997 0)
(-10.6279 -5.4983 0)
(-12.708 -4.36727 0)
(-14.448 -3.08506 0)
(-15.7686 -1.7083 0)
(-16.6068 -0.313063 0)
(-16.8664 0.998079 0)
(-16.5164 2.14525 0)
(-15.6852 3.1292 0)
(-14.4129 3.94872 0)
(-12.7769 4.58378 0)
(-10.8693 5.02928 0)
(-8.78796 5.30212 0)
(-6.62504 5.43155 0)
(-4.45089 5.44715 0)
(-2.29202 5.35537 0)
(-0.139516 5.10675 0)
(1.88605 4.64499 0)
(3.67739 4.21443 0)
(5.17881 3.82281 0)
(6.40105 3.47741 0)
(7.38271 3.18681 0)
(8.16665 2.93808 0)
(8.79108 2.71024 0)
(9.29653 2.48254 0)
(9.70734 2.21246 0)
(10.047 1.90797 0)
(10.234 1.42036 0)
(10.4708 1.06153 0)
(10.307 0.0649227 0)
(7.66598 -7.53574 0)
(4.70249 -8.38637 0)
(0.99109 -9.29225 0)
(-3.04495 -9.56073 0)
(-7.19023 -9.34856 0)
(-11.2469 -8.98293 0)
(-15.2681 -8.22117 0)
(-19.0698 -6.86011 0)
(-22.4462 -4.95239 0)
(-25.2794 -2.57815 0)
(-27.4106 0.00351709 0)
(-28.6022 2.46489 0)
(-28.4334 4.59538 0)
(-26.6134 6.41142 0)
(-24.9308 7.40046 0)
(-21.315 8.21679 0)
(-17.2384 8.61042 0)
(-12.8076 8.59882 0)
(-8.29708 8.32323 0)
(-3.79639 7.89702 0)
(0.756354 7.0033 0)
(4.81314 5.47888 0)
(8.13767 4.17367 0)
(10.5391 3.19801 0)
(11.9929 2.43224 0)
(12.6124 1.86767 0)
(12.6651 1.53777 0)
(12.4412 1.40269 0)
(12.0872 1.3674 0)
(11.7275 1.37562 0)
(11.4699 1.39843 0)
(11.3694 1.38844 0)
(11.4035 1.29303 0)
(11.5525 1.07409 0)
(11.7904 0.711795 0)
(12.0369 0.199326 0)
(12.2043 -0.456236 0)
(12.2067 -1.23521 0)
(11.9265 -2.09395 0)
(11.3247 -2.98315 0)
(10.3652 -3.86472 0)
(9.01904 -4.75823 0)
(7.12219 -5.67811 0)
(5.08909 -6.33131 0)
(3.08841 -6.79952 0)
(0.950532 -7.04831 0)
(-1.40301 -7.10481 0)
(-4.17632 -6.84631 0)
(-7.6769 -6.30143 0)
(-10.7475 -5.48445 0)
(-12.9811 -4.42228 0)