/*--------------------------------*- C++ -*----------------------------------*\
| =========                 |                                                 |
| \\      /  F ield         | OpenFOAM: The Open Source CFD Toolbox           |
|  \\    /   O peration     | Version:  2206                                  |
|   \\  /    A nd           | Website:  www.openfoam.com                      |
|    \\/     M anipulation  |                                                 |
\*---------------------------------------------------------------------------*/
FoamFile
{
    version     2.0;
    format      ascii;
    arch        "LSB;label=32;scalar=64";
    class       volVectorField;
    location    "19.2999";
    object      ddt0(U);
}
// * * * * * * * * * * * * * * * * * * * * * * * * * * * * * * * * * * * * * //

dimensions      [0 1 -2 0 0 0 0];

internalField   nonuniform List<vector> 
3062
(
(-6.80281e-06 0.000912908 0)
(-3.38163e-05 0.00264499 0)
(-9.49561e-05 0.00434107 0)
(-0.00019012 0.00595879 0)
(-0.000314332 0.00745985 0)
(-0.000464814 0.00881476 0)
(-0.000639305 0.00999289 0)
(-0.0008347 0.0109657 0)
(-0.00104703 0.0117136 0)
(-0.00127195 0.0122272 0)
(-0.00150505 0.0125069 0)
(-0.00174219 0.0125604 0)
(-0.00197942 0.0124021 0)
(-0.0022133 0.0120511 0)
(-0.00244067 0.0115331 0)
(-0.0026586 0.0108784 0)
(-0.00286462 0.0101228 0)
(-0.00305645 0.00930536 0)
(-0.00323355 0.0084671 0)
(-0.00339549 0.00764971 0)
(-0.00354237 0.00689441 0)
(-0.00367563 0.00624092 0)
(-0.00379789 0.00572633 0)
(-0.00391189 0.00538495 0)
(-0.0040208 0.00524699 0)
(-0.00412893 0.00533794 0)
(-0.00424158 0.00567768 0)
(-0.00436283 0.00628006 0)
(-0.00450159 0.00715567 0)
(-0.00464382 0.00830301 0)
(-0.00484328 0.00972219 0)
(-0.00503847 0.0114016 0)
(-0.0052943 0.013329 0)
(-0.00557908 0.015485 0)
(-0.00590543 0.0178459 0)
(-0.00630043 0.0203924 0)
(-0.00670975 0.0230894 0)
(-0.00722985 0.0259233 0)
(-0.00773718 0.0288501 0)
(-0.00838442 0.0318661 0)
(-0.00900857 0.0349238 0)
(-0.00977253 0.0380286 0)
(-0.0105332 0.0411413 0)
(-0.0113987 0.0442674 0)
(-0.0123116 0.047394 0)
(-0.0132664 0.0505117 0)
(-0.0143382 0.0536537 0)
(-0.0153808 0.0567784 0)
(-0.0166073 0.0599832 0)
(-0.0177513 0.0631805 0)
(-0.0191183 0.0665364 0)
(-0.0203967 0.0699231 0)
(-0.021879 0.0735428 0)
(-0.0233461 0.0772879 0)
(-0.0249466 0.0813044 0)
(-0.0265616 0.0855827 0)
(-0.028212 0.0902415 0)
(-0.0300364 0.0954352 0)
(-0.0319411 0.10098 0)
(-0.0339712 0.107016 0)
(-0.0361318 0.113607 0)
(-0.0384268 0.120809 0)
(-0.0408728 0.128674 0)
(-0.043487 0.137251 0)
(-0.0462878 0.146583 0)
(-0.0492938 0.156717 0)
(-0.0525283 0.167701 0)
(-0.0560157 0.179581 0)
(-0.0597845 0.192401 0)
(-0.0638631 0.206207 0)
(-0.0682839 0.221043 0)
(-0.0730794 0.236959 0)
(-0.0782874 0.254007 0)
(-0.0839474 0.272247 0)
(-0.0901076 0.291744 0)
(-0.0968211 0.312574 0)
(-0.104153 0.334821 0)
(-0.112179 0.358585 0)
(-0.120989 0.38398 0)
(-0.130689 0.411139 0)
(-0.141405 0.440216 0)
(-0.153289 0.471396 0)
(-0.166518 0.504893 0)
(-0.181311 0.540964 0)
(-0.197933 0.579913 0)
(-0.216707 0.622108 0)
(-0.238027 0.667991 0)
(-0.262375 0.718103 0)
(-0.290336 0.773123 0)
(-0.322623 0.833913 0)
(-0.360084 0.901615 0)
(-0.403749 0.977798 0)
(-0.454703 1.06465 0)
(-0.514339 1.16566 0)
(-0.583501 1.28589 0)
(-0.661933 1.43401 0)
(-0.750536 1.62745 0)
(-0.820067 1.90634 0)
(-0.934329 2.34466 0)
(-0.169408 3.4846 0)
(-5.28102e-06 0.000927903 0)
(-2.61452e-05 0.00268785 0)
(-7.41547e-05 0.00441167 0)
(-0.000148711 0.00605611 0)
(-0.000245916 0.00758226 0)
(-0.000363547 0.00895977 0)
(-0.000499926 0.010158 0)
(-0.000652656 0.0111473 0)
(-0.000818522 0.0119083 0)
(-0.000994046 0.0124309 0)
(-0.00117592 0.0127161 0)
(-0.00136094 0.0127714 0)
(-0.00154631 0.0126118 0)
(-0.00172934 0.0122566 0)
(-0.00190742 0.011732 0)
(-0.00207838 0.0110681 0)
(-0.00223986 0.0103015 0)
(-0.0023906 0.00947115 0)
(-0.00252979 0.00861914 0)
(-0.00265678 0.007788 0)
(-0.00277176 0.00701987 0)
(-0.00287627 0.00635481 0)
(-0.00297203 0.00583123 0)
(-0.00306096 0.0054838 0)
(-0.00314583 0.00534349 0)
(-0.00323021 0.00543576 0)
(-0.00331837 0.0057814 0)
(-0.00341191 0.00639417 0)
(-0.00352345 0.00728436 0)
(-0.00362777 0.0084519 0)
(-0.00379476 0.00989757 0)
(-0.00393212 0.011606 0)
(-0.00414888 0.0135686 0)
(-0.0043557 0.0157609 0)
(-0.00462564 0.0181659 0)
(-0.00492443 0.0207552 0)
(-0.00525157 0.0235024 0)
(-0.0056581 0.0263842 0)
(-0.00604902 0.0293651 0)
(-0.00656833 0.0324329 0)
(-0.00703715 0.0355458 0)
(-0.00765946 0.0387056 0)
(-0.00822654 0.0418718 0)
(-0.00893313 0.0450561 0)
(-0.00961934 0.048233 0)
(-0.0103901 0.0514113 0)
(-0.0112135 0.054602 0)
(-0.0120324 0.0577869 0)
(-0.0130048 0.0610458 0)
(-0.0138731 0.0642978 0)
(-0.0149833 0.0677204 0)
(-0.0159423 0.0711581 0)
(-0.0171614 0.0748678 0)
(-0.0182563 0.0786585 0)
(-0.0195423 0.0827933 0)
(-0.0208229 0.0871736 0)
(-0.0221425 0.0918315 0)
(-0.0235824 0.097092 0)
(-0.0250505 0.102741 0)
(-0.0266225 0.108895 0)
(-0.0282999 0.115599 0)
(-0.0300796 0.122908 0)
(-0.0319753 0.130889 0)
(-0.0340082 0.139604 0)
(-0.0361932 0.149104 0)
(-0.0385426 0.159436 0)
(-0.0410717 0.170645 0)
(-0.043802 0.182779 0)
(-0.0467557 0.195881 0)
(-0.0499573 0.209998 0)
(-0.0534304 0.225174 0)
(-0.0572021 0.241457 0)
(-0.0613007 0.258903 0)
(-0.06576 0.277576 0)
(-0.0706176 0.297547 0)
(-0.0759186 0.3189 0)
(-0.0817148 0.341734 0)
(-0.0880704 0.36616 0)
(-0.0950584 0.392306 0)
(-0.102767 0.420322 0)
(-0.111298 0.450383 0)
(-0.120775 0.482696 0)
(-0.131343 0.517509 0)
(-0.143177 0.555111 0)
(-0.156489 0.595858 0)
(-0.17154 0.640171 0)
(-0.188642 0.688559 0)
(-0.208165 0.741643 0)
(-0.230545 0.800192 0)
(-0.256281 0.865155 0)
(-0.285914 0.937762 0)
(-0.319969 1.01957 0)
(-0.358846 1.11274 0)
(-0.402563 1.22013 0)
(-0.449888 1.34588 0)
(-0.498452 1.49628 0)
(-0.538407 1.68031 0)
(-0.561429 1.91186 0)
(-0.495517 2.19623 0)
(-0.263326 2.42633 0)
(-3.78706e-06 0.000938808 0)
(-1.84191e-05 0.00272036 0)
(-5.29094e-05 0.00446485 0)
(-0.000106437 0.00612955 0)
(-0.000176071 0.007674 0)
(-0.000260504 0.00906923 0)
(-0.000358466 0.0102824 0)
(-0.000467942 0.0112848 0)
(-0.000586562 0.0120552 0)
(-0.000712025 0.012585 0)
(-0.000842249 0.0128741 0)
(-0.000975255 0.0129314 0)
(-0.0011089 0.0127708 0)
(-0.00124102 0.0124128 0)
(-0.00136947 0.0118824 0)
(-0.00149232 0.0112114 0)
(-0.00160815 0.0104356 0)
(-0.00171599 0.00959556 0)
(-0.00181536 0.00873335 0)
(-0.00190613 0.00789229 0)
(-0.00198868 0.00711443 0)
(-0.00206365 0.00644123 0)
(-0.00213248 0.00591079 0)
(-0.00219657 0.00555892 0)
(-0.00225775 0.00541638 0)
(-0.00231826 0.00550991 0)
(-0.00238182 0.00585959 0)
(-0.00244743 0.00648027 0)
(-0.00253324 0.00738181 0)
(-0.00259616 0.00856349 0)
(-0.00272909 0.0100291 0)
(-0.00281325 0.011759 0)
(-0.0029841 0.0137484 0)
(-0.00311921 0.0159687 0)
(-0.0033211 0.018406 0)
(-0.00353332 0.0210282 0)
(-0.00376209 0.0238124 0)
(-0.00406686 0.0267312 0)
(-0.00432743 0.0297525 0)
(-0.0047257 0.0328597 0)
(-0.00503283 0.036015 0)
(-0.00551074 0.0392148 0)
(-0.00588751 0.0424244 0)
(-0.00642117 0.0456482 0)
(-0.00689364 0.0488686 0)
(-0.00745771 0.0520861 0)
(-0.00805016 0.0553206 0)
(-0.00861939 0.0585433 0)
(-0.00935721 0.0618519 0)
(-0.00991599 0.0651338 0)
(-0.0107948 0.0686223 0)
(-0.0113985 0.0720877 0)
(-0.012325 0.0758604 0)
(-0.0131077 0.0797193 0)
(-0.0140481 0.0838813 0)
(-0.0150113 0.0883119 0)
(-0.0159687 0.0930169 0)
(-0.0170215 0.0983145 0)
(-0.0180391 0.104014 0)
(-0.0191649 0.110264 0)
(-0.0203907 0.1171 0)
(-0.0216803 0.124557 0)
(-0.0230293 0.132683 0)
(-0.024461 0.141531 0)
(-0.0259981 0.151156 0)
(-0.0276531 0.161614 0)
(-0.0294373 0.172962 0)
(-0.031368 0.18525 0)
(-0.0334657 0.198528 0)
(-0.0357518 0.212843 0)
(-0.0382462 0.228244 0)
(-0.0409672 0.244783 0)
(-0.0439321 0.262518 0)
(-0.0471615 0.281518 0)
(-0.0506805 0.301857 0)
(-0.054518 0.323625 0)
(-0.0587135 0.346926 0)
(-0.063318 0.37188 0)
(-0.06839 0.398623 0)
(-0.0739965 0.427319 0)
(-0.0802148 0.458156 0)
(-0.0871363 0.491362 0)
(-0.0948639 0.527194 0)
(-0.103531 0.565997 0)
(-0.113289 0.608146 0)
(-0.124321 0.654104 0)
(-0.13685 0.704424 0)
(-0.151132 0.759781 0)
(-0.167462 0.820975 0)
(-0.186153 0.889003 0)
(-0.207507 0.965051 0)
(-0.231734 1.05059 0)
(-0.258796 1.1474 0)
(-0.288158 1.25768 0)
(-0.317794 1.38344 0)
(-0.344986 1.52889 0)
(-0.360508 1.69638 0)
(-0.351177 1.88613 0)
(-0.274833 2.09109 0)
(-0.107542 2.49764 0)
(-2.19205e-06 0.000945856 0)
(-1.09644e-05 0.00274184 0)
(-3.14711e-05 0.00450073 0)
(-6.37856e-05 0.00617864 0)
(-0.000105328 0.00773633 0)
(-0.000155536 0.00914264 0)
(-0.000214342 0.0103654 0)
(-0.00028041 0.0113755 0)
(-0.000352441 0.0121523 0)
(-0.000429209 0.0126867 0)
(-0.000509222 0.0129793 0)
(-0.000590826 0.0130382 0)
(-0.000672414 0.0128777 0)
(-0.000752375 0.0125175 0)
(-0.000829417 0.0119833 0)
(-0.000902576 0.0113069 0)
(-0.000970971 0.0105251 0)
(-0.00103437 0.00967825 0)
(-0.00109276 0.00880931 0)
(-0.00114622 0.0079614 0)
(-0.00119466 0.00717749 0)
(-0.00123922 0.00649847 0)
(-0.00128065 0.00596372 0)
(-0.00131941 0.00560867 0)
(-0.00135645 0.00546504 0)
(-0.00139351 0.00555892 0)
(-0.00143276 0.00591162 0)
(-0.00147214 0.00653763 0)
(-0.00152715 0.00744585 0)
(-0.00155248 0.00863664 0)
(-0.00166039 0.0101182 0)
(-0.00167775 0.0118617 0)
(-0.00181625 0.0138692 0)
(-0.00186195 0.0161065 0)
(-0.00201009 0.0185668 0)
(-0.00211904 0.02121 0)
(-0.0022607 0.024021 0)
(-0.00245684 0.0269631 0)
(-0.00258318 0.0300131 0)
(-0.00287104 0.0331448 0)
(-0.00299559 0.0363297 0)
(-0.00335235 0.0395548 0)
(-0.00350878 0.0427944 0)
(-0.00389764 0.0460437 0)
(-0.00412225 0.0492934 0)
(-0.00451378 0.0525389 0)
(-0.00482921 0.0557972 0)
(-0.00519651 0.0590561 0)
(-0.00564761 0.062383 0)
(-0.00591907 0.0656976 0)
(-0.00658559 0.0692302 0)
(-0.00673567 0.072685 0)
(-0.00753325 0.0765586 0)
(-0.00779449 0.080373 0)
(-0.0084936 0.0846706 0)
(-0.00902921 0.0890794 0)
(-0.00969844 0.0938506 0)
(-0.0104847 0.0992704 0)
(-0.0110163 0.104939 0)
(-0.0116063 0.111145 0)
(-0.0123047 0.117959 0)
(-0.0130745 0.125409 0)
(-0.0138998 0.133573 0)
(-0.0147813 0.142512 0)
(-0.0157166 0.152264 0)
(-0.0167057 0.162868 0)
(-0.0177581 0.174375 0)
(-0.0188935 0.186837 0)
(-0.0201328 0.200305 0)
(-0.0214922 0.214823 0)
(-0.0229824 0.230434 0)
(-0.0246117 0.247185 0)
(-0.0263856 0.265133 0)
(-0.0283194 0.284356 0)
(-0.0304314 0.304923 0)
(-0.0327373 0.326945 0)
(-0.0352649 0.35054 0)
(-0.0380529 0.375832 0)
(-0.0411398 0.40297 0)
(-0.0445678 0.432122 0)
(-0.0483842 0.463487 0)
(-0.0526419 0.497299 0)
(-0.0574042 0.533844 0)
(-0.0627452 0.57345 0)
(-0.0687558 0.616537 0)
(-0.0755464 0.663593 0)
(-0.083249 0.715203 0)
(-0.0920156 0.77207 0)
(-0.10201 0.835022 0)
(-0.113398 0.905031 0)
(-0.12632 0.983225 0)
(-0.140836 1.07092 0)
(-0.156807 1.16957 0)
(-0.173632 1.28047 0)
(-0.190298 1.40566 0)
(-0.204005 1.5456 0)
(-0.210071 1.69914 0)
(-0.20007 1.86315 0)
(-0.17188 2.01677 0)
(-0.0991105 2.10093 0)
(-1.95362e-05 0.00620224 0)
(-3.29763e-05 0.00776599 0)
(-5.00818e-05 0.00917848 0)
(-6.98055e-05 0.0104073 0)
(-9.21843e-05 0.0114227 0)
(-0.000117201 0.012204 0)
(-0.000144145 0.0127415 0)
(-0.00017227 0.0130355 0)
(-0.000200754 0.0130943 0)
(-0.000228781 0.0129322 0)
(-0.000255752 0.0125696 0)
(-0.000281275 0.0120324 0)
(-0.000304959 0.0113527 0)
(-0.000326863 0.0105674 0)
(-0.000346833 0.00971724 0)
(-0.000365081 0.00884502 0)
(-0.000381709 0.00799427 0)
(-0.000397205 0.00720764 0)
(-0.000411483 0.00652673 0)
(-0.000424998 0.00599045 0)
(-0.000438058 0.0056346 0)
(-0.000451062 0.00549053 0)
(-0.000464047 0.0055852 0)
(-0.000478131 0.00593937 0)
(-0.00049139 0.00656839 0)
(-0.000514809 0.00747933 0)
(-0.000519201 0.00867754 0)
(-0.000581382 0.0101619 0)
(-0.000524989 0.0119103 0)
(-0.000641723 0.0139289 0)
(-0.000593568 0.0161729 0)
(-0.000688071 0.0186474 0)
(-0.000704998 0.0212986 0)
(-0.000738232 0.0241263 0)
(-0.000853557 0.027077 0)
(-0.000808209 0.0301452 0)
(-0.0010258 0.0332858 0)
(-0.000918521 0.0364889 0)
(-0.00120267 0.0397253 0)
(-0.00109151 0.0429793 0)
(-0.00136313 0.046244 0)
(-0.00134409 0.049506 0)
(-0.00150298 0.0527636 0)
(-0.00165719 0.0560424 0)
(-0.00166008 0.0593034 0)
(-0.00199103 0.0626542 0)
(-0.001843 0.0659756 0)
(-0.00237748 0.0695287 0)
(-0.00201237 0.0729724 0)
(-0.00276252 0.076924 0)
(-0.00238512 0.0806834 0)
(-0.00283883 0.0850388 0)
(-0.00305189 0.0895805 0)
(-0.00304548 0.0943756 0)
(-0.00395347 0.0991669 0)
(-0.0040099 0.10541 0)
(-0.00413077 0.111796 0)
(-0.00436877 0.118747 0)
(-0.00461358 0.1263 0)
(-0.00480356 0.134484 0)
(-0.00499623 0.143387 0)
(-0.00523336 0.153082 0)
(-0.0055111 0.163635 0)
(-0.00582008 0.17511 0)
(-0.00616175 0.187572 0)
(-0.00654833 0.201065 0)
(-0.00699052 0.215628 0)
(-0.00749635 0.2313 0)
(-0.0080659 0.248124 0)
(-0.00868628 0.266156 0)
(-0.00936957 0.285524 0)
(-0.0101123 0.306232 0)
(-0.0108952 0.32841 0)
(-0.0117465 0.352198 0)
(-0.0126872 0.377713 0)
(-0.0137332 0.405096 0)
(-0.014906 0.434518 0)
(-0.0162277 0.466177 0)
(-0.0177168 0.500316 0)
(-0.0193942 0.537225 0)
(-0.0212818 0.577255 0)
(-0.0234088 0.620827 0)
(-0.025808 0.668444 0)
(-0.028521 0.720705 0)
(-0.0315963 0.778307 0)
(-0.0350884 0.842082 0)
(-0.0390502 0.912995 0)
(-0.0435307 0.992161 0)
(-0.0485483 1.08079 0)
(-0.0540441 1.18015 0)
(-0.0598587 1.29155 0)
(-0.0655323 1.4156 0)
(-0.0698576 1.55221 0)
(-0.0712537 1.69908 0)
(-0.0652718 1.85026 0)
(-0.0503543 2.00088 0)
(-0.0348639 2.02588 0)
(-3.68049e-05 6.09553e-05 0)
(-0.000169656 7.98961e-05 0)
(-0.00044782 0.000125013 0)
(-0.000833916 0.000183701 0)
(-0.00129513 0.000232137 0)
(-0.001833 0.000285142 0)
(-0.00245283 0.000316964 0)
(-0.00314786 0.000345785 0)
(-0.00387101 0.0003697 0)
(-0.00459374 0.000378189 0)
(-0.00529462 0.000367067 0)
(-0.00595276 0.000341402 0)
(-0.00655707 0.000308461 0)
(-0.00710148 0.000262252 0)
(-0.00757212 0.000200207 0)
(-0.00795208 0.000129131 0)
(-0.00823067 5.76041e-05 0)
(-0.00840335 -1.62959e-05 0)
(-0.00847101 -8.93992e-05 0)
(-0.00844441 -0.000148922 0)
(-0.00834499 -0.000183756 0)
(-0.0082004 -0.000190114 0)
(-0.00804706 -0.000163111 0)
(-0.00792721 -0.000106717 0)
(-0.00786248 -2.01248e-05 0)
(-0.00792722 6.64078e-05 0)
(-0.00799465 0.000170322 0)
(-0.00835876 0.000304832 0)
(-0.00890892 0.000440636 0)
(-0.00960644 0.000550922 0)
(-0.010465 0.000626178 0)
(-0.0114701 0.000662103 0)
(-0.0125694 0.000655641 0)
(-0.013725 0.000611517 0)
(-0.0149033 0.000540361 0)
(-0.016061 0.000460539 0)
(-0.0172167 0.000378574 0)
(-0.0183119 0.000315466 0)
(-0.0194006 0.000295787 0)
(-0.0204944 0.000328273 0)
(-0.0215956 0.000426253 0)
(-0.0229108 0.000597568 0)
(-0.0242736 0.000762853 0)
(-0.0258808 0.000948116 0)
(-0.027641 0.0011129 0)
(-0.0296929 0.00125549 0)
(-0.0319545 0.00138987 0)
(-0.0344636 0.00149418 0)
(-0.0372699 0.00159441 0)
(-0.0401833 0.00162497 0)
(-0.043442 0.00166533 0)
(-0.0467176 0.00163378 0)
(-0.0502061 0.0017104 0)
(-0.0539357 0.00179809 0)
(-0.0577836 0.00194924 0)
(-0.0618624 0.00211808 0)
(-0.0668357 0.00222252 0)
(-0.0705422 0.00247675 0)
(-0.0772052 0.00228628 0)
(-0.0812534 0.00298095 0)
(-0.0874339 0.00261725 0)
(-0.0933922 0.0018736 0)
(-0.0990629 0.00144671 0)
(-0.104937 0.00227752 0)
(-0.112568 0.00374138 0)
(-0.120542 0.00514463 0)
(-0.130103 0.00621139 0)
(-0.140612 0.00632028 0)
(-0.151891 0.00626838 0)
(-0.163769 0.00654892 0)
(-0.176151 0.00678198 0)
(-0.189105 0.00702335 0)
(-0.202665 0.00731941 0)
(-0.216896 0.00758772 0)
(-0.231925 0.00800865 0)
(-0.24791 0.00855689 0)
(-0.264994 0.00918973 0)
(-0.283278 0.00986536 0)
(-0.30283 0.0105653 0)
(-0.323714 0.011279 0)
(-0.345934 0.0119865 0)
(-0.369632 0.0128259 0)
(-0.394976 0.0137615 0)
(-0.42187 0.0145168 0)
(-0.450056 0.0150525 0)
(-0.479346 0.015495 0)
(-0.509679 0.0159188 0)
(-0.541092 0.016339 0)
(-0.573491 0.0167147 0)
(-0.606676 0.0170819 0)
(-0.640523 0.0175139 0)
(-0.675055 0.0180888 0)
(-0.709098 0.0192619 0)
(-0.75037 0.0199841 0)
(-0.78523 0.0196837 0)
(-0.822814 0.0198049 0)
(-0.862229 0.0207864 0)
(-0.903344 0.0224519 0)
(-0.945579 0.024347 0)
(-0.990642 0.0262182 0)
(-3.25515e-05 9.72232e-05 0)
(-8.90194e-05 0.000322119 0)
(-0.000341047 0.000636505 0)
(-0.000859394 0.000627735 0)
(-0.00130713 0.000815625 0)
(-0.00183864 0.00080429 0)
(-0.00242808 0.0010314 0)
(-0.0030653 0.00103148 0)
(-0.00374764 0.00103583 0)
(-0.00445652 0.00102196 0)
(-0.00515947 0.000966044 0)
(-0.00584496 0.000891842 0)
(-0.00651061 0.000830136 0)
(-0.00716043 0.000752266 0)
(-0.00777439 0.000648255 0)
(-0.00833369 0.000523696 0)
(-0.00883505 0.000391673 0)
(-0.00927345 0.000260996 0)
(-0.00963489 0.000132369 0)
(-0.00991793 1.62372e-05 0)
(-0.010134 -7.05289e-05 0)
(-0.0102942 -0.000112505 0)
(-0.0104145 -0.000115946 0)
(-0.0105099 -8.0809e-05 0)
(-0.0106055 -3.14734e-06 0)
(-0.0106947 0.000123487 0)
(-0.0108026 0.000304898 0)
(-0.0109825 0.000522364 0)
(-0.0112419 0.000751456 0)
(-0.0115734 0.000976076 0)
(-0.0119889 0.00118607 0)
(-0.0125046 0.00137032 0)
(-0.0131294 0.00151804 0)
(-0.013868 0.00162478 0)
(-0.0147227 0.00169337 0)
(-0.0157037 0.00174474 0)
(-0.0168135 0.00176964 0)
(-0.0180394 0.001773 0)
(-0.0193759 0.00178154 0)
(-0.020812 0.00180974 0)
(-0.0223511 0.00188542 0)
(-0.0239747 0.0020011 0)
(-0.0255372 0.00218625 0)
(-0.0275627 0.0023048 0)
(-0.0291377 0.00260519 0)
(-0.0313901 0.0028585 0)
(-0.033117 0.00319897 0)
(-0.0353955 0.00349947 0)
(-0.0375189 0.00384354 0)
(-0.0397802 0.00417354 0)
(-0.0425641 0.00445017 0)
(-0.0447871 0.00481243 0)
(-0.0483448 0.00502465 0)
(-0.0506049 0.00547405 0)
(-0.0549387 0.00566735 0)
(-0.0572695 0.00627865 0)
(-0.0621048 0.00651034 0)
(-0.065758 0.00710568 0)
(-0.0701204 0.00766897 0)
(-0.0757807 0.00789293 0)
(-0.0787925 0.00891723 0)
(-0.0863262 0.00897197 0)
(-0.0907576 0.0104053 0)
(-0.0992845 0.0106542 0)
(-0.106216 0.0124592 0)
(-0.115277 0.0123708 0)
(-0.12319 0.0135019 0)
(-0.131695 0.0155289 0)
(-0.141279 0.0165901 0)
(-0.151411 0.0174555 0)
(-0.162154 0.0182901 0)
(-0.173651 0.0191544 0)
(-0.185961 0.0201235 0)
(-0.199143 0.0212781 0)
(-0.213286 0.0226444 0)
(-0.228447 0.0242109 0)
(-0.244687 0.0259497 0)
(-0.26206 0.0278129 0)
(-0.280621 0.0297662 0)
(-0.300448 0.0317861 0)
(-0.321433 0.0338444 0)
(-0.343868 0.0360824 0)
(-0.367277 0.0383845 0)
(-0.392113 0.0404691 0)
(-0.418372 0.0423395 0)
(-0.446061 0.0441175 0)
(-0.47516 0.045861 0)
(-0.505776 0.0475761 0)
(-0.537577 0.0490264 0)
(-0.570458 0.0501293 0)
(-0.603836 0.0509655 0)
(-0.637636 0.0520423 0)
(-0.672116 0.0539864 0)
(-0.707311 0.0556602 0)
(-0.743611 0.0563601 0)
(-0.781296 0.0573684 0)
(-0.819422 0.0592352 0)
(-0.858704 0.0616808 0)
(-0.895514 0.0645829 0)
(-0.936479 0.068246 0)
(-3.02425e-05 0.00015157 0)
(-9.637e-05 0.000525627 0)
(-0.000339316 0.000812615 0)
(-0.000597806 0.00101223 0)
(-0.00104524 0.0012356 0)
(-0.00157007 0.00142624 0)
(-0.00223284 0.00159974 0)
(-0.0029321 0.00170863 0)
(-0.00363113 0.00180454 0)
(-0.0044312 0.00182915 0)
(-0.005085 0.00180318 0)
(-0.00603198 0.00173517 0)
(-0.00682119 0.00163444 0)
(-0.00756981 0.00150637 0)
(-0.00828162 0.00134949 0)
(-0.00893739 0.00118544 0)
(-0.00953826 0.00100653 0)
(-0.0100958 0.000779601 0)
(-0.0105965 0.000570747 0)
(-0.0110543 0.00038103 0)
(-0.011464 0.000236005 0)
(-0.0118444 0.000101243 0)
(-0.0122005 7.62133e-05 0)
(-0.0125386 7.98127e-05 0)
(-0.0128459 0.000165098 0)
(-0.0131251 0.000119958 0)
(-0.0134254 0.000443451 0)
(-0.0137692 0.000778224 0)
(-0.0141489 0.00104041 0)
(-0.0145677 0.00131849 0)
(-0.0150485 0.00160133 0)
(-0.0156184 0.00187074 0)
(-0.0162986 0.00211785 0)
(-0.0171052 0.00233565 0)
(-0.0180435 0.00252645 0)
(-0.0191511 0.00269367 0)
(-0.0204576 0.00285858 0)
(-0.0219408 0.00301821 0)
(-0.023591 0.00319094 0)
(-0.0254008 0.00337777 0)
(-0.0273692 0.00362278 0)
(-0.0294953 0.00389889 0)
(-0.0317486 0.00422008 0)
(-0.0341444 0.00457908 0)
(-0.036681 0.00494159 0)
(-0.0393194 0.00528048 0)
(-0.0420287 0.00564494 0)
(-0.0448447 0.00605418 0)
(-0.0478033 0.00647553 0)
(-0.0509184 0.00689403 0)
(-0.0542099 0.00729259 0)
(-0.0576872 0.00770094 0)
(-0.0613829 0.00811135 0)
(-0.0652808 0.00857888 0)
(-0.0694123 0.00907388 0)
(-0.0738029 0.00956599 0)
(-0.0784896 0.0109691 0)
(-0.0834772 0.0114827 0)
(-0.0886796 0.0120664 0)
(-0.0944488 0.0125341 0)
(-0.100156 0.0135506 0)
(-0.107135 0.0140372 0)
(-0.113735 0.0157567 0)
(-0.121341 0.0168759 0)
(-0.12901 0.018733 0)
(-0.137053 0.0209842 0)
(-0.146099 0.0228366 0)
(-0.155894 0.0244634 0)
(-0.166161 0.0260087 0)
(-0.177094 0.0275716 0)
(-0.188935 0.0292368 0)
(-0.20178 0.0310674 0)
(-0.215648 0.0330787 0)
(-0.230554 0.0352623 0)
(-0.246532 0.037614 0)
(-0.263546 0.040166 0)
(-0.281673 0.0429206 0)
(-0.300825 0.0458177 0)
(-0.321092 0.0489091 0)
(-0.342518 0.0519354 0)
(-0.364679 0.0550671 0)
(-0.388211 0.0586945 0)
(-0.412536 0.0624262 0)
(-0.43929 0.0659307 0)
(-0.467628 0.0692764 0)
(-0.497213 0.0725275 0)
(-0.528013 0.0757329 0)
(-0.559946 0.0788462 0)
(-0.592386 0.0813959 0)
(-0.625548 0.083171 0)
(-0.658698 0.0842363 0)
(-0.693141 0.0858674 0)
(-0.728383 0.0887446 0)
(-0.7637 0.091326 0)
(-0.798493 0.0930034 0)
(-0.83259 0.094426 0)
(-0.866005 0.096167 0)
(-0.898594 0.0982532 0)
(-0.930852 0.101038 0)
(-0.9622 0.105277 0)
(-2.44974e-05 0.000204648 0)
(-0.000109062 0.000664907 0)
(-0.000306198 0.00107541 0)
(-0.000621159 0.00144178 0)
(-0.0010709 0.00174345 0)
(-0.00156047 0.00203153 0)
(-0.00218791 0.00224476 0)
(-0.00281598 0.00243238 0)
(-0.00356455 0.00253821 0)
(-0.0042967 0.00248543 0)
(-0.00512483 0.00251996 0)
(-0.00593002 0.0025198 0)
(-0.00671444 0.00245736 0)
(-0.0075105 0.00227398 0)
(-0.00829957 0.00207695 0)
(-0.00905988 0.00179766 0)
(-0.00977332 0.00157515 0)
(-0.0104262 0.0013268 0)
(-0.0110954 0.00105375 0)
(-0.0115835 0.000855919 0)
(-0.0122982 0.000663246 0)
(-0.0126615 0.000591591 0)
(-0.0132271 0.00053282 0)
(-0.013498 0.000561844 0)
(-0.0140321 0.000631537 0)
(-0.014538 0.000752557 0)
(-0.0149004 0.000956008 0)
(-0.0152615 0.00121724 0)
(-0.0156135 0.00152135 0)
(-0.0159799 0.00184874 0)
(-0.0164012 0.00221279 0)
(-0.0169154 0.00258227 0)
(-0.0175395 0.00294615 0)
(-0.0183039 0.00329592 0)
(-0.0192353 0.00360879 0)
(-0.0203544 0.00413449 0)
(-0.0216354 0.00446835 0)
(-0.0231443 0.00480201 0)
(-0.0248643 0.0051674 0)
(-0.0267898 0.0055181 0)
(-0.028916 0.00591496 0)
(-0.0313157 0.0063857 0)
(-0.0338454 0.00681809 0)
(-0.0366252 0.00735281 0)
(-0.0396572 0.00787585 0)
(-0.0427345 0.00821097 0)
(-0.0458699 0.00862012 0)
(-0.0492177 0.00916237 0)
(-0.052836 0.00980182 0)
(-0.0566838 0.0104551 0)
(-0.0607332 0.0111359 0)
(-0.0649914 0.0118348 0)
(-0.0694623 0.0125513 0)
(-0.074156 0.0133499 0)
(-0.0791037 0.0142547 0)
(-0.0843901 0.0152216 0)
(-0.0899258 0.0161645 0)
(-0.0956179 0.0171201 0)
(-0.101595 0.0182427 0)
(-0.108014 0.019453 0)
(-0.114859 0.020801 0)
(-0.122124 0.0223535 0)
(-0.129843 0.024048 0)
(-0.137977 0.0259191 0)
(-0.146395 0.028112 0)
(-0.155298 0.0304533 0)
(-0.164914 0.0327759 0)
(-0.175263 0.0351998 0)
(-0.186355 0.0376947 0)
(-0.198319 0.0402367 0)
(-0.211266 0.0428679 0)
(-0.225244 0.0456568 0)
(-0.240267 0.0486349 0)
(-0.256387 0.0518548 0)
(-0.273592 0.0552817 0)
(-0.291936 0.0589909 0)
(-0.311424 0.0629358 0)
(-0.33193 0.0669238 0)
(-0.353864 0.0713629 0)
(-0.376494 0.0751495 0)
(-0.400018 0.0788109 0)
(-0.425325 0.0839711 0)
(-0.452443 0.0895735 0)
(-0.48061 0.0947845 0)
(-0.509368 0.0995351 0)
(-0.538599 0.103901 0)
(-0.568766 0.107867 0)
(-0.59923 0.111343 0)
(-0.629545 0.114384 0)
(-0.661528 0.117113 0)
(-0.695138 0.119691 0)
(-0.733483 0.122044 0)
(-0.765281 0.123833 0)
(-0.797035 0.124861 0)
(-0.828457 0.125278 0)
(-0.858944 0.125468 0)
(-0.888516 0.125884 0)
(-0.917231 0.126909 0)
(-0.944916 0.129018 0)
(-0.972382 0.132707 0)
(-2.27447e-05 0.000258779 0)
(-0.000109904 0.000826384 0)
(-0.000309489 0.00134283 0)
(-0.000631108 0.00179881 0)
(-0.00105805 0.00220316 0)
(-0.00156958 0.00256418 0)
(-0.00214817 0.00287892 0)
(-0.00282237 0.00310731 0)
(-0.0035076 0.003282 0)
(-0.00427783 0.00336571 0)
(-0.0050637 0.00339693 0)
(-0.00588495 0.00334409 0)
(-0.00667247 0.00322631 0)
(-0.0074619 0.00304739 0)
(-0.00823852 0.00283289 0)
(-0.00896338 0.00259591 0)
(-0.00971129 0.00232763 0)
(-0.0103647 0.00206174 0)
(-0.0110154 0.00178241 0)
(-0.0116427 0.00152402 0)
(-0.0122055 0.00131113 0)
(-0.0127428 0.00111974 0)
(-0.0132394 0.000982791 0)
(-0.0137196 0.000918029 0)
(-0.0140966 0.000976449 0)
(-0.0144558 0.00110236 0)
(-0.0148201 0.00127127 0)
(-0.0152311 0.00150651 0)
(-0.0155872 0.00181185 0)
(-0.016089 0.00217777 0)
(-0.0165527 0.00259505 0)
(-0.0170978 0.00305235 0)
(-0.0178477 0.00355951 0)
(-0.0185637 0.00406592 0)
(-0.0196352 0.00462553 0)
(-0.0206644 0.00514968 0)
(-0.022099 0.00574391 0)
(-0.0234503 0.00627849 0)
(-0.0254495 0.00696579 0)
(-0.0269777 0.00740117 0)
(-0.029892 0.00841493 0)
(-0.0315762 0.00869493 0)
(-0.0345535 0.00961213 0)
(-0.0376288 0.0103714 0)
(-0.0395478 0.0109785 0)
(-0.0434951 0.0116825 0)
(-0.0475037 0.0124383 0)
(-0.0513526 0.0132004 0)
(-0.0554334 0.0139758 0)
(-0.0596062 0.0147692 0)
(-0.0638733 0.0155744 0)
(-0.0682625 0.0164121 0)
(-0.0727555 0.0172296 0)
(-0.0773669 0.0180982 0)
(-0.08229 0.0192693 0)
(-0.0876487 0.0206558 0)
(-0.0932768 0.0219901 0)
(-0.0990106 0.0231968 0)
(-0.105046 0.0245832 0)
(-0.111574 0.026146 0)
(-0.118524 0.0276863 0)
(-0.125953 0.0296398 0)
(-0.133823 0.0316767 0)
(-0.141997 0.0336092 0)
(-0.150572 0.0362858 0)
(-0.160049 0.0394936 0)
(-0.170285 0.0428061 0)
(-0.181151 0.0460808 0)
(-0.192741 0.049355 0)
(-0.205202 0.0527448 0)
(-0.218597 0.0563667 0)
(-0.232978 0.0602761 0)
(-0.248277 0.0644575 0)
(-0.264789 0.0688636 0)
(-0.281861 0.0734656 0)
(-0.300982 0.0782597 0)
(-0.319614 0.0832598 0)
(-0.341013 0.0884811 0)
(-0.363774 0.0939021 0)
(-0.382762 0.099525 0)
(-0.416212 0.105342 0)
(-0.440882 0.111215 0)
(-0.466385 0.116929 0)
(-0.493365 0.12241 0)
(-0.521095 0.127605 0)
(-0.549616 0.132506 0)
(-0.579183 0.137006 0)
(-0.609938 0.14102 0)
(-0.641701 0.14489 0)
(-0.674082 0.148783 0)
(-0.706493 0.152639 0)
(-0.738821 0.15526 0)
(-0.771543 0.155917 0)
(-0.804489 0.155779 0)
(-0.836779 0.155436 0)
(-0.867896 0.154944 0)
(-0.89769 0.154504 0)
(-0.926001 0.154566 0)
(-0.952648 0.155726 0)
(-0.977747 0.158587 0)
(-2.22929e-05 0.000319896 0)
(-0.000112131 0.000976869 0)
(-0.000309922 0.00159847 0)
(-0.000623049 0.00216339 0)
(-0.00104204 0.00266508 0)
(-0.00153937 0.00311612 0)
(-0.00212232 0.00349026 0)
(-0.00276919 0.00378605 0)
(-0.00346969 0.00399445 0)
(-0.00421527 0.0041116 0)
(-0.00499402 0.00415086 0)
(-0.00578118 0.00411731 0)
(-0.0065627 0.00401069 0)
(-0.00733696 0.00383517 0)
(-0.00809524 0.00360084 0)
(-0.00883992 0.00331797 0)
(-0.00953788 0.00300988 0)
(-0.0102185 0.00268187 0)
(-0.0108242 0.00236231 0)
(-0.0114275 0.00205912 0)
(-0.0119498 0.00180172 0)
(-0.0124458 0.00159368 0)
(-0.0129 0.00145408 0)
(-0.013322 0.001392 0)
(-0.0137199 0.00141333 0)
(-0.0141007 0.00150895 0)
(-0.0144731 0.00168441 0)
(-0.0148566 0.00194819 0)
(-0.0152658 0.00230282 0)
(-0.0157203 0.00273751 0)
(-0.0162394 0.00323498 0)
(-0.0168597 0.00379471 0)
(-0.0175469 0.00439835 0)
(-0.0184071 0.00505324 0)
(-0.0193858 0.00574127 0)
(-0.0205902 0.00648996 0)
(-0.0218596 0.00723375 0)
(-0.023494 0.00805045 0)
(-0.0251478 0.00881557 0)
(-0.0272244 0.00970864 0)
(-0.0293579 0.010538 0)
(-0.0317011 0.0113302 0)
(-0.0344689 0.0123001 0)
(-0.0371949 0.013078 0)
(-0.0403817 0.0140335 0)
(-0.0434663 0.0150494 0)
(-0.0471242 0.0163483 0)
(-0.0502734 0.0169938 0)
(-0.0546407 0.018279 0)
(-0.0582763 0.0187925 0)
(-0.0630662 0.020118 0)
(-0.0672619 0.0208258 0)
(-0.0723435 0.0219801 0)
(-0.0777192 0.0231565 0)
(-0.0836414 0.0244287 0)
(-0.0875496 0.0258298 0)
(-0.0930225 0.0273726 0)
(-0.099097 0.0290492 0)
(-0.105884 0.0308836 0)
(-0.111599 0.0328995 0)
(-0.11914 0.0351248 0)
(-0.12779 0.0375686 0)
(-0.133182 0.0402614 0)
(-0.145682 0.0431844 0)
(-0.154834 0.0463917 0)
(-0.164185 0.0498477 0)
(-0.174223 0.0535165 0)
(-0.184776 0.0574147 0)
(-0.195956 0.0615551 0)
(-0.207991 0.0659187 0)
(-0.220962 0.0704932 0)
(-0.234839 0.0752861 0)
(-0.249598 0.0803342 0)
(-0.265287 0.0856334 0)
(-0.281975 0.0912489 0)
(-0.299764 0.0971245 0)
(-0.318758 0.103273 0)
(-0.338923 0.109844 0)
(-0.360406 0.11636 0)
(-0.382931 0.123802 0)
(-0.405985 0.131617 0)
(-0.430287 0.138017 0)
(-0.456587 0.143902 0)
(-0.484415 0.150017 0)
(-0.513293 0.156246 0)
(-0.543249 0.162306 0)
(-0.574397 0.168035 0)
(-0.606708 0.173342 0)
(-0.640016 0.178185 0)
(-0.674036 0.182413 0)
(-0.708393 0.185763 0)
(-0.742719 0.187855 0)
(-0.776802 0.188651 0)
(-0.810439 0.188521 0)
(-0.84321 0.187576 0)
(-0.874593 0.185847 0)
(-0.90412 0.183661 0)
(-0.931404 0.181638 0)
(-0.956144 0.180598 0)
(-0.978351 0.181547 0)
(-2.14554e-05 0.000374664 0)
(-0.000109022 0.00112989 0)
(-0.000304235 0.0018558 0)
(-0.000611819 0.00252233 0)
(-0.00101817 0.00312185 0)
(-0.00150693 0.00365257 0)
(-0.00207655 0.00409943 0)
(-0.00270857 0.00445712 0)
(-0.00340076 0.00471346 0)
(-0.00412518 0.00487486 0)
(-0.00488801 0.00493675 0)
(-0.00565677 0.00491117 0)
(-0.00643236 0.00479474 0)
(-0.00719712 0.0045992 0)
(-0.00793946 0.00433782 0)
(-0.00866611 0.00402345 0)
(-0.009337 0.00368126 0)
(-0.00999487 0.00331627 0)
(-0.0105753 0.00295987 0)
(-0.0111492 0.00261555 0)
(-0.011645 0.00231469 0)
(-0.012116 0.00206376 0)
(-0.0125497 0.00187981 0)
(-0.0129507 0.00177464 0)
(-0.0133287 0.00175959 0)
(-0.0136909 0.00184356 0)
(-0.0140484 0.00202979 0)
(-0.0144206 0.00231739 0)
(-0.0148277 0.0027057 0)
(-0.0152826 0.00318847 0)
(-0.0158158 0.00376115 0)
(-0.0163985 0.00440885 0)
(-0.0171461 0.00513525 0)
(-0.0179713 0.00592612 0)
(-0.018981 0.00678848 0)
(-0.020125 0.00769571 0)
(-0.021452 0.00864715 0)
(-0.0230006 0.00964191 0)
(-0.0246867 0.0106531 0)
(-0.0266718 0.0117247 0)
(-0.0287517 0.0127872 0)
(-0.031139 0.0138829 0)
(-0.0336968 0.0149946 0)
(-0.0364984 0.016131 0)
(-0.0394486 0.0172481 0)
(-0.0427065 0.018497 0)
(-0.0460538 0.0196677 0)
(-0.0495573 0.0207744 0)
(-0.0533655 0.0219557 0)
(-0.0572963 0.0231047 0)
(-0.0615409 0.0243726 0)
(-0.0659425 0.0256466 0)
(-0.0706204 0.0270922 0)
(-0.0754641 0.0286006 0)
(-0.0806389 0.0299951 0)
(-0.0862292 0.0313914 0)
(-0.0921613 0.0331495 0)