/*--------------------------------*- C++ -*----------------------------------*\
| =========                 |                                                 |
| \\      /  F ield         | OpenFOAM: The Open Source CFD Toolbox           |
|  \\    /   O peration     | Version:  2206                                  |
|   \\  /    A nd           | Website:  www.openfoam.com                      |
|    \\/     M anipulation  |                                                 |
\*---------------------------------------------------------------------------*/
FoamFile
{
    version     2.0;
    format      ascii;
    arch        "LSB;label=32;scalar=64";
    class       volVectorField;
    location    "19.2999";
    object      U;
}
// * * * * * * * * * * * * * * * * * * * * * * * * * * * * * * * * * * * * * //

dimensions      [0 1 -1 0 0 0 0];

internalField   nonuniform List<vector> 
3062
(
(1.47762 0.000199338 0)
(1.4777 0.000595588 0)
(1.47788 0.000986262 0)
(1.47816 0.00136799 0)
(1.47853 0.00173797 0)
(1.47898 0.00209394 0)
(1.47951 0.00243408 0)
(1.48013 0.00275696 0)
(1.48081 0.00306154 0)
(1.48157 0.00334722 0)
(1.48239 0.00361373 0)
(1.48327 0.00386111 0)
(1.48421 0.00408961 0)
(1.4852 0.00429967 0)
(1.48623 0.00449183 0)
(1.48731 0.00466671 0)
(1.48842 0.00482497 0)
(1.48957 0.00496725 0)
(1.49076 0.00509417 0)
(1.49197 0.0052063 0)
(1.4932 0.00530414 0)
(1.49446 0.00538811 0)
(1.49574 0.00545857 0)
(1.49703 0.00551579 0)
(1.49833 0.00555994 0)
(1.49965 0.00559115 0)
(1.50097 0.00560947 0)
(1.50229 0.00561491 0)
(1.50362 0.00560735 0)
(1.50495 0.00558675 0)
(1.50627 0.005553 0)
(1.50759 0.00550591 0)
(1.5089 0.00544537 0)
(1.51019 0.00537122 0)
(1.51148 0.00528336 0)
(1.51274 0.00518162 0)
(1.51399 0.00506593 0)
(1.51522 0.00493615 0)
(1.51641 0.00479221 0)
(1.51759 0.00463401 0)
(1.51873 0.00446144 0)
(1.51984 0.00427443 0)
(1.52092 0.00407276 0)
(1.52195 0.00385636 0)
(1.52295 0.00362487 0)
(1.5239 0.0033781 0)
(1.52481 0.00311551 0)
(1.52567 0.00283663 0)
(1.52648 0.0025408 0)
(1.52723 0.00222696 0)
(1.52793 0.00189448 0)
(1.52856 0.0015413 0)
(1.52913 0.0011671 0)
(1.52963 0.000768386 0)
(1.53006 0.000345687 0)
(1.53041 -0.000106388 0)
(1.53068 -0.000585539 0)
(1.53086 -0.0011003 0)
(1.53095 -0.00165352 0)
(1.53094 -0.0022494 0)
(1.53081 -0.00289325 0)
(1.53057 -0.00359093 0)
(1.5302 -0.00434912 0)
(1.52968 -0.00517552 0)
(1.52902 -0.00607896 0)
(1.52819 -0.00706953 0)
(1.52717 -0.00815882 0)
(1.52596 -0.00936013 0)
(1.52452 -0.0106887 0)
(1.52283 -0.0121623 0)
(1.52087 -0.0138013 0)
(1.5186 -0.0156292 0)
(1.516 -0.0176738 0)
(1.51301 -0.0199673 0)
(1.5096 -0.0225474 0)
(1.50571 -0.0254587 0)
(1.50128 -0.0287541 0)
(1.49624 -0.0324963 0)
(1.49052 -0.0367604 0)
(1.48401 -0.041637 0)
(1.47662 -0.0472354 0)
(1.46822 -0.0536888 0)
(1.45867 -0.0611608 0)
(1.4478 -0.0698529 0)
(1.43542 -0.0800158 0)
(1.42131 -0.0919638 0)
(1.40521 -0.106094 0)
(1.38681 -0.122912 0)
(1.36576 -0.143068 0)
(1.34164 -0.16741 0)
(1.31395 -0.197047 0)
(1.2821 -0.233468 0)
(1.24533 -0.278658 0)
(1.20268 -0.335464 0)
(1.15273 -0.407549 0)
(1.09295 -0.501523 0)
(1.01989 -0.623472 0)
(0.913891 -0.79916 0)
(0.798353 -1.03051 0)
(0.281441 -1.63592 0)
(1.47762 0.000153231 0)
(1.47769 0.000457559 0)
(1.47787 0.0007574 0)
(1.47814 0.00105025 0)
(1.4785 0.00133401 0)
(1.47894 0.001607 0)
(1.47946 0.00186785 0)
(1.48006 0.00211545 0)
(1.48073 0.00234902 0)
(1.48147 0.00256809 0)
(1.48227 0.00277244 0)
(1.48314 0.00296209 0)
(1.48406 0.00313722 0)
(1.48503 0.00329816 0)
(1.48605 0.00344532 0)
(1.48711 0.00357917 0)
(1.48821 0.0037002 0)
(1.48934 0.0038089 0)
(1.49051 0.00390575 0)
(1.49171 0.00399117 0)
(1.49293 0.00406553 0)
(1.49417 0.00412915 0)
(1.49543 0.00418227 0)
(1.49671 0.00422509 0)
(1.49801 0.00425771 0)
(1.49931 0.0042802 0)
(1.50062 0.00429255 0)
(1.50193 0.00429477 0)
(1.50325 0.00428666 0)
(1.50456 0.00426823 0)
(1.50587 0.0042393 0)
(1.50718 0.00419974 0)
(1.50847 0.00414935 0)
(1.50976 0.00408805 0)
(1.51103 0.00401562 0)
(1.51228 0.00393204 0)
(1.51352 0.00383707 0)
(1.51473 0.00373073 0)
(1.51592 0.00361276 0)
(1.51708 0.00348328 0)
(1.51821 0.00334191 0)
(1.51931 0.00318891 0)
(1.52037 0.0030237 0)
(1.52139 0.00284668 0)
(1.52238 0.00265697 0)
(1.52331 0.00245511 0)
(1.52421 0.00223982 0)
(1.52505 0.00201171 0)
(1.52585 0.00176906 0)
(1.52658 0.00151239 0)
(1.52726 0.00123953 0)
(1.52787 0.000950678 0)
(1.52842 0.000643316 0)
(1.5289 0.00031704 0)
(1.5293 -3.06641e-05 0)
(1.52963 -0.000400795 0)
(1.52987 -0.000795083 0)
(1.53001 -0.00121484 0)
(1.53006 -0.00166753 0)
(1.53001 -0.00215524 0)
(1.52983 -0.0026822 0)
(1.52954 -0.00325319 0)
(1.52911 -0.00387352 0)
(1.52853 -0.00454941 0)
(1.52779 -0.00528804 0)
(1.52687 -0.00609769 0)
(1.52576 -0.00698777 0)
(1.52444 -0.00796914 0)
(1.52287 -0.00905421 0)
(1.52105 -0.0102574 0)
(1.51893 -0.0115953 0)
(1.51648 -0.0130874 0)
(1.51366 -0.014756 0)
(1.51043 -0.0166276 0)
(1.50674 -0.0187332 0)
(1.50252 -0.0211095 0)
(1.49772 -0.0238 0)
(1.49224 -0.0268565 0)
(1.48599 -0.0303415 0)
(1.47888 -0.0343302 0)
(1.47076 -0.0389141 0)
(1.4615 -0.0442051 0)
(1.45091 -0.0503412 0)
(1.4388 -0.0574932 0)
(1.42491 -0.0658752 0)
(1.40896 -0.0757566 0)
(1.39059 -0.0874797 0)
(1.36936 -0.101483 0)
(1.34477 -0.118333 0)
(1.31618 -0.138765 0)
(1.28278 -0.163747 0)
(1.24355 -0.194552 0)
(1.19718 -0.232872 0)
(1.14185 -0.280951 0)
(1.07503 -0.341763 0)
(0.992767 -0.419167 0)
(0.888976 -0.517885 0)
(0.754099 -0.644151 0)
(0.571525 -0.799406 0)
(0.272392 -0.924148 0)
(1.47762 0.000108318 0)
(1.47769 0.00032309 0)
(1.47786 0.00053436 0)
(1.47813 0.000740407 0)
(1.47848 0.000939788 0)
(1.47891 0.00113135 0)
(1.47942 0.00131415 0)
(1.48001 0.00148743 0)
(1.48067 0.00165067 0)
(1.4814 0.00180356 0)
(1.48219 0.00194597 0)
(1.48304 0.00207792 0)
(1.48395 0.00219958 0)
(1.4849 0.00231118 0)
(1.48591 0.00241304 0)
(1.48696 0.0025055 0)
(1.48805 0.00258893 0)
(1.48917 0.00266367 0)
(1.49033 0.00273007 0)
(1.49151 0.00278843 0)
(1.49272 0.00283898 0)
(1.49396 0.00288195 0)
(1.49521 0.00291748 0)
(1.49648 0.00294568 0)
(1.49776 0.00296658 0)
(1.49905 0.0029802 0)
(1.50035 0.00298647 0)
(1.50166 0.00298538 0)
(1.50296 0.00297667 0)
(1.50427 0.00296037 0)
(1.50557 0.00293624 0)
(1.50687 0.0029042 0)
(1.50815 0.00286397 0)
(1.50943 0.00281554 0)
(1.51069 0.00275859 0)
(1.51194 0.00269321 0)
(1.51316 0.00261901 0)
(1.51436 0.0025362 0)
(1.51554 0.00244428 0)
(1.51669 0.00234364 0)
(1.51781 0.00223363 0)
(1.5189 0.00211483 0)
(1.51995 0.00198632 0)
(1.52097 0.00184896 0)
(1.52194 0.00170142 0)
(1.52287 0.00154488 0)
(1.52375 0.00137749 0)
(1.52458 0.00120076 0)
(1.52536 0.00101216 0)
(1.52608 0.000813525 0)
(1.52675 0.000601594 0)
(1.52735 0.000378338 0)
(1.52788 0.000139689 0)
(1.52834 -0.000112179 0)
(1.52872 -0.000382628 0)
(1.52902 -0.000668142 0)
(1.52924 -0.000975758 0)
(1.52936 -0.00129755 0)
(1.52938 -0.00164618 0)
(1.52929 -0.00202119 0)
(1.52908 -0.00242617 0)
(1.52874 -0.00286491 0)
(1.52826 -0.0033413 0)
(1.52763 -0.00385977 0)
(1.52683 -0.00442568 0)
(1.52585 -0.00504523 0)
(1.52466 -0.00572552 0)
(1.52325 -0.00647462 0)
(1.52159 -0.00730189 0)
(1.51965 -0.00821805 0)
(1.51741 -0.00923559 0)
(1.51481 -0.0103689 0)
(1.51183 -0.011635 0)
(1.50841 -0.0130534 0)
(1.5045 -0.0146475 0)
(1.50003 -0.0164446 0)
(1.49492 -0.0184776 0)
(1.48909 -0.0207852 0)
(1.48244 -0.0234147 0)
(1.47484 -0.0264226 0)
(1.46615 -0.0298782 0)
(1.4562 -0.0338665 0)
(1.4448 -0.0384922 0)
(1.43169 -0.0438861 0)
(1.41659 -0.0502119 0)
(1.39915 -0.0576766 0)
(1.37894 -0.0665438 0)
(1.35542 -0.0771519 0)
(1.32796 -0.0899376 0)
(1.29572 -0.105468 0)
(1.25767 -0.12448 0)
(1.21249 -0.147933 0)
(1.15846 -0.177062 0)
(1.09332 -0.213443 0)
(1.01401 -0.258943 0)
(0.916368 -0.31578 0)
(0.79435 -0.385986 0)
(0.639629 -0.470771 0)
(0.435895 -0.568096 0)
(0.159422 -0.684738 0)
(1.47762 6.42326e-05 0)
(1.47769 0.00019109 0)
(1.47786 0.000315364 0)
(1.47812 0.000436059 0)
(1.47847 0.000552347 0)
(1.47889 0.000663579 0)
(1.4794 0.000769231 0)
(1.47998 0.000868903 0)
(1.48063 0.00096233 0)
(1.48135 0.00104938 0)
(1.48213 0.00113003 0)
(1.48297 0.00120435 0)
(1.48387 0.00127248 0)
(1.48482 0.00133462 0)
(1.48582 0.001391 0)
(1.48686 0.00144185 0)
(1.48794 0.00148743 0)
(1.48906 0.00152797 0)
(1.4902 0.00156368 0)
(1.49138 0.00159472 0)
(1.49259 0.00162126 0)
(1.49381 0.00164338 0)
(1.49506 0.00166114 0)
(1.49632 0.00167456 0)
(1.4976 0.00168362 0)
(1.49888 0.00168827 0)
(1.50017 0.00168839 0)
(1.50147 0.00168392 0)
(1.50277 0.00167459 0)
(1.50407 0.00166041 0)
(1.50537 0.00164106 0)
(1.50666 0.00161653 0)
(1.50794 0.00158647 0)
(1.50921 0.00155093 0)
(1.51046 0.00150951 0)
(1.5117 0.00146236 0)
(1.51292 0.00140901 0)
(1.51411 0.00134976 0)
(1.51529 0.00128403 0)
(1.51643 0.00121231 0)
(1.51754 0.00113383 0)
(1.51862 0.00104935 0)
(1.51967 0.0009578 0)
(1.52067 0.000860283 0)
(1.52164 0.000755292 0)
(1.52256 0.000644367 0)
(1.52343 0.000525392 0)
(1.52425 0.000400461 0)
(1.52503 0.000266621 0)
(1.52574 0.000126663 0)
(1.52639 -2.34203e-05 0)
(1.52698 -0.000180121 0)
(1.5275 -0.000348628 0)
(1.52794 -0.000524689 0)
(1.52831 -0.000715441 0)
(1.5286 -0.000914532 0)
(1.52879 -0.00113269 0)
(1.52889 -0.00135493 0)
(1.52889 -0.00159821 0)
(1.52878 -0.00185813 0)
(1.52854 -0.00213744 0)
(1.52817 -0.00243947 0)
(1.52766 -0.0027668 0)
(1.52699 -0.00312215 0)
(1.52615 -0.00350893 0)
(1.52512 -0.00393116 0)
(1.52388 -0.00439343 0)
(1.52241 -0.00490094 0)
(1.52068 -0.00545964 0)
(1.51867 -0.0060764 0)
(1.51633 -0.00675916 0)
(1.51363 -0.00751707 0)
(1.51054 -0.0083608 0)
(1.50698 -0.00930282 0)
(1.50291 -0.0103578 0)
(1.49826 -0.0115429 0)
(1.49295 -0.0128789 0)
(1.48687 -0.0143902 0)
(1.47993 -0.0161065 0)
(1.47199 -0.0180633 0)
(1.4629 -0.0203044 0)
(1.45247 -0.0228832 0)
(1.44049 -0.0258657 0)
(1.42668 -0.0293342 0)
(1.41073 -0.0333923 0)
(1.39224 -0.0381706 0)
(1.37073 -0.0438357 0)
(1.3456 -0.0506012 0)
(1.31609 -0.0587422 0)
(1.28128 -0.0686141 0)
(1.23997 -0.0806756 0)
(1.19063 -0.0955141 0)
(1.13135 -0.11387 0)
(1.05964 -0.136638 0)
(0.97235 -0.164841 0)
(0.865574 -0.199478 0)
(0.734444 -0.241155 0)
(0.573688 -0.288813 0)
(0.377337 -0.340422 0)
(0.140861 -0.352299 0)
(1.47812 0.000134961 0)
(1.47846 0.000168935 0)
(1.47888 0.000200507 0)
(1.47938 0.00022957 0)
(1.47996 0.00025607 0)
(1.48061 0.000280011 0)
(1.48132 0.000301446 0)
(1.4821 0.000320473 0)
(1.48294 0.000337218 0)
(1.48383 0.000351828 0)
(1.48478 0.000364458 0)
(1.48577 0.000375268 0)
(1.48681 0.00038441 0)
(1.48788 0.000392022 0)
(1.489 0.000398222 0)
(1.49014 0.000403101 0)
(1.49132 0.000406721 0)
(1.49252 0.000409113 0)
(1.49374 0.000410274 0)
(1.49498 0.000410173 0)
(1.49624 0.000408743 0)
(1.49751 0.000405894 0)
(1.49879 0.000401507 0)
(1.50008 0.000395438 0)
(1.50137 0.000387543 0)
(1.50267 0.000377602 0)
(1.50396 0.000365513 0)
(1.50526 0.000350967 0)
(1.50654 0.000333958 0)
(1.50782 0.000314115 0)
(1.50908 0.000291473 0)
(1.51034 0.00026564 0)
(1.51157 0.000236737 0)
(1.51279 0.000204342 0)
(1.51398 0.000168686 0)
(1.51515 0.000129277 0)
(1.51628 8.65113e-05 0)
(1.5174 3.97604e-05 0)
(1.51847 -1.03401e-05 0)
(1.51951 -6.46727e-05 0)
(1.52051 -0.00012224 0)
(1.52148 -0.000184355 0)
(1.52238 -0.000249504 0)
(1.52326 -0.000319626 0)
(1.52407 -0.000392555 0)
(1.52484 -0.000471018 0)
(1.52554 -0.000552097 0)
(1.52619 -0.000639461 0)
(1.52677 -0.00072939 0)
(1.52729 -0.000826535 0)
(1.52772 -0.000926493 0)
(1.52808 -0.00103542 0)
(1.52835 -0.00114666 0)
(1.52854 -0.00127399 0)
(1.52862 -0.00139359 0)
(1.52861 -0.00152791 0)
(1.52848 -0.00167177 0)
(1.52823 -0.00182458 0)
(1.52784 -0.00198827 0)
(1.52731 -0.00216424 0)
(1.52662 -0.00235359 0)
(1.52576 -0.00255775 0)
(1.5247 -0.00277848 0)
(1.52343 -0.00301774 0)
(1.52192 -0.00327777 0)
(1.52015 -0.00356105 0)
(1.51809 -0.0038704 0)
(1.5157 -0.00420903 0)
(1.51295 -0.00458059 0)
(1.50979 -0.00498926 0)
(1.50616 -0.00543987 0)
(1.502 -0.00593801 0)
(1.49725 -0.00649024 0)
(1.49183 -0.00710426 0)
(1.48562 -0.00778921 0)
(1.47852 -0.00855596 0)
(1.4704 -0.00941757 0)
(1.46109 -0.0103898 0)
(1.45041 -0.0114919 0)
(1.43811 -0.0127475 0)
(1.42393 -0.0141858 0)
(1.40753 -0.0158433 0)
(1.38849 -0.017766 0)
(1.36629 -0.0200121 0)
(1.3403 -0.0226557 0)
(1.30974 -0.025792 0)
(1.27358 -0.0295429 0)
(1.23057 -0.0340641 0)
(1.1791 -0.039553 0)
(1.11715 -0.0462532 0)
(1.04217 -0.0544543 0)
(0.951026 -0.064468 0)
(0.840038 -0.0765686 0)
(0.704964 -0.090812 0)
(0.54215 -0.106841 0)
(0.346778 -0.122696 0)
(0.121105 -0.136658 0)
(1.46038 0.00805994 0)
(1.4504 0.0150182 0)
(1.43245 0.0175711 0)
(1.40883 0.0186413 0)
(1.38392 0.0193446 0)
(1.35904 0.0198309 0)
(1.33403 0.0201214 0)
(1.30867 0.0202631 0)
(1.28304 0.0203152 0)
(1.25725 0.0203078 0)
(1.23139 0.020247 0)
(1.2055 0.0201285 0)
(1.17962 0.0199652 0)
(1.15377 0.0197741 0)
(1.12799 0.0195625 0)
(1.10227 0.0193308 0)
(1.07665 0.019079 0)
(1.05113 0.0188087 0)
(1.02575 0.0185244 0)
(1.00051 0.0182283 0)
(0.975434 0.0179202 0)
(0.950541 0.0176009 0)
(0.92585 0.017269 0)
(0.901378 0.0169261 0)
(0.877139 0.0165745 0)
(0.853169 0.0162244 0)
(0.829439 0.0158907 0)
(0.80577 0.0155336 0)
(0.782644 0.0151119 0)
(0.759909 0.0146323 0)
(0.737594 0.014111 0)
(0.715779 0.0135553 0)
(0.694517 0.0129685 0)
(0.673844 0.0123542 0)
(0.653799 0.0117159 0)
(0.634422 0.0110573 0)
(0.615751 0.010381 0)
(0.59782 0.00968846 0)
(0.580661 0.00898109 0)
(0.564307 0.00826405 0)
(0.548782 0.00753238 0)
(0.534136 0.00678463 0)
(0.520369 0.00605177 0)
(0.507479 0.00534417 0)
(0.495469 0.00466019 0)
(0.484343 0.00399834 0)
(0.474096 0.00335822 0)
(0.464722 0.00274211 0)
(0.456207 0.00215224 0)
(0.448535 0.00159171 0)
(0.441679 0.00106123 0)
(0.435621 0.000560055 0)
(0.430329 0.000105746 0)
(0.425775 -0.00031765 0)
(0.42193 -0.000715654 0)
(0.418766 -0.00108772 0)
(0.416263 -0.0014338 0)
(0.414396 -0.00176179 0)
(0.413149 -0.0020508 0)
(0.412515 -0.00238891 0)
(0.412538 -0.00264038 0)
(0.413141 -0.00298442 0)
(0.414389 -0.0033462 0)
(0.41626 -0.00364197 0)
(0.418735 -0.00391423 0)
(0.421814 -0.00417138 0)
(0.425492 -0.00443617 0)
(0.42979 -0.00472228 0)
(0.43473 -0.00498641 0)
(0.440337 -0.00525888 0)
(0.446635 -0.00554772 0)
(0.453659 -0.00585517 0)
(0.461451 -0.00619662 0)
(0.470061 -0.00657008 0)
(0.479541 -0.00697221 0)
(0.489949 -0.00740572 0)
(0.501345 -0.00787318 0)
(0.513796 -0.00837607 0)
(0.527367 -0.00891479 0)
(0.542126 -0.00948914 0)
(0.55814 -0.0100976 0)
(0.575474 -0.0107383 0)
(0.594191 -0.011408 0)
(0.614349 -0.0121037 0)
(0.636008 -0.0128235 0)
(0.659223 -0.0135634 0)
(0.684039 -0.0143173 0)
(0.710489 -0.0150769 0)
(0.738593 -0.0158284 0)
(0.768353 -0.0165485 0)
(0.799718 -0.0172139 0)
(0.832627 -0.0178066 0)
(0.866848 -0.0183355 0)
(0.9025 -0.0187993 0)
(0.939245 -0.0191372 0)
(0.976722 -0.0192879 0)
(1.01471 -0.0192318 0)
(1.05287 -0.0189585 0)
(1.09087 -0.018464 0)
(1.12836 -0.0177684 0)
(1.47997 0.0115903 0)
(1.48684 0.0211002 0)
(1.49478 0.0247823 0)
(1.49733 0.0265046 0)
(1.49839 0.0277696 0)
(1.49892 0.0288235 0)
(1.49883 0.0294984 0)
(1.49803 0.03006 0)
(1.49655 0.030439 0)
(1.49447 0.030764 0)
(1.49183 0.0310536 0)
(1.48869 0.0312636 0)
(1.48509 0.0314196 0)
(1.48106 0.0315543 0)
(1.47659 0.0316743 0)
(1.4717 0.031776 0)
(1.46641 0.0318567 0)
(1.46072 0.0319112 0)
(1.45466 0.0319403 0)
(1.44824 0.0319465 0)
(1.44146 0.03193 0)
(1.43435 0.0318883 0)
(1.42691 0.0318212 0)
(1.41915 0.0317301 0)
(1.4111 0.0316166 0)
(1.40277 0.0314819 0)
(1.39418 0.0313277 0)
(1.38537 0.0311231 0)
(1.37635 0.0308371 0)
(1.36713 0.0304795 0)
(1.35771 0.0300612 0)
(1.34812 0.0295836 0)
(1.33839 0.0290455 0)
(1.32854 0.0284473 0)
(1.3186 0.0277896 0)
(1.3086 0.027076 0)
(1.29855 0.0263104 0)
(1.2885 0.0254931 0)
(1.27846 0.0246244 0)
(1.26845 0.023707 0)
(1.25854 0.0227453 0)
(1.24864 0.0217393 0)
(1.23888 0.0207025 0)
(1.22927 0.0196343 0)
(1.21985 0.0185406 0)
(1.21063 0.0174302 0)
(1.20164 0.0163111 0)
(1.1929 0.0151875 0)
(1.18445 0.0140695 0)
(1.17628 0.0129598 0)
(1.16845 0.0118668 0)
(1.16093 0.0107891 0)
(1.15377 0.00973458 0)
(1.14695 0.00869988 0)
(1.14054 0.00769082 0)
(1.13449 0.00670058 0)
(1.12887 0.00573288 0)
(1.12365 0.00477928 0)
(1.11889 0.00384084 0)
(1.11455 0.00290055 0)
(1.11071 0.00196899 0)
(1.10725 0.00101488 0)
(1.10436 8.10481e-05 0)
(1.10186 -0.000900851 0)
(1.09997 -0.00186953 0)
(1.09866 -0.00288504 0)
(1.09802 -0.00386855 0)
(1.098 -0.00488251 0)
(1.09866 -0.00596736 0)
(1.10005 -0.00709953 0)
(1.10222 -0.00828115 0)
(1.1052 -0.00952003 0)
(1.10904 -0.0108239 0)
(1.1138 -0.0122003 0)
(1.11952 -0.0136566 0)
(1.12626 -0.0151997 0)
(1.13409 -0.0168349 0)
(1.14305 -0.0185657 0)
(1.15322 -0.0203939 0)
(1.16466 -0.0223193 0)
(1.17741 -0.0243409 0)
(1.19156 -0.0264585 0)
(1.20714 -0.0286702 0)
(1.22424 -0.0309727 0)
(1.24293 -0.0333611 0)
(1.26324 -0.0358255 0)
(1.28524 -0.0383514 0)
(1.30895 -0.0409276 0)
(1.3344 -0.0435324 0)
(1.36163 -0.0461011 0)
(1.39056 -0.0485653 0)
(1.42113 -0.0508564 0)
(1.45316 -0.0529362 0)
(1.48648 -0.0547916 0)
(1.52094 -0.0563445 0)
(1.55642 -0.057497 0)
(1.59274 -0.0581911 0)
(1.62963 -0.058401 0)
(1.66699 -0.058111 0)
(1.70446 -0.0572953 0)
(1.4785 0.00539826 0)
(1.48172 0.0117517 0)
(1.48624 0.015139 0)
(1.49045 0.0175868 0)
(1.49389 0.0196836 0)
(1.49686 0.0214499 0)
(1.49973 0.0229331 0)
(1.50221 0.0241273 0)
(1.50459 0.0251559 0)
(1.50652 0.0260331 0)
(1.50862 0.026829 0)
(1.51038 0.0275544 0)
(1.51185 0.0282174 0)
(1.51315 0.0288267 0)
(1.51429 0.029388 0)
(1.51526 0.0299046 0)
(1.51609 0.0303789 0)
(1.51677 0.0308276 0)
(1.51731 0.0312409 0)
(1.5177 0.0316166 0)
(1.51796 0.0319499 0)
(1.51808 0.0322667 0)
(1.51806 0.0325274 0)
(1.5179 0.0327681 0)
(1.5176 0.0329823 0)
(1.51715 0.0331946 0)
(1.51657 0.0333486 0)
(1.51587 0.0333867 0)
(1.51506 0.0333459 0)
(1.5141 0.033238 0)
(1.51299 0.0330626 0)
(1.51173 0.0328179 0)
(1.51033 0.0325012 0)
(1.50878 0.0321107 0)
(1.5071 0.0316448 0)
(1.50529 0.0311031 0)
(1.50335 0.0304888 0)
(1.50127 0.0298082 0)
(1.49907 0.0290637 0)
(1.49676 0.0282571 0)
(1.49435 0.0273941 0)
(1.49184 0.026479 0)
(1.48925 0.0255133 0)
(1.48658 0.0245012 0)
(1.48384 0.0234486 0)
(1.48105 0.0223599 0)
(1.47822 0.0212396 0)
(1.47537 0.0200954 0)
(1.4725 0.0189366 0)
(1.46965 0.01777 0)
(1.46682 0.0166007 0)
(1.46402 0.0154316 0)
(1.46128 0.014266 0)
(1.4586 0.0131048 0)
(1.45602 0.0119478 0)
(1.45354 0.0107946 0)
(1.45118 0.0096409 0)
(1.44896 0.00846452 0)
(1.4469 0.00727749 0)
(1.44501 0.00607182 0)
(1.4433 0.00484183 0)
(1.44181 0.00360694 0)
(1.44055 0.00232467 0)
(1.43955 0.00101694 0)
(1.43881 -0.000343946 0)
(1.43834 -0.00174767 0)
(1.43817 -0.00322696 0)
(1.43836 -0.00477496 0)
(1.43894 -0.0063978 0)
(1.43994 -0.00810696 0)
(1.44139 -0.00991392 0)
(1.44333 -0.0118293 0)
(1.44579 -0.0138639 0)
(1.44883 -0.0160282 0)
(1.45249 -0.0183315 0)
(1.45683 -0.0207821 0)
(1.46188 -0.023388 0)
(1.46772 -0.0261532 0)
(1.4744 -0.029081 0)
(1.48198 -0.0321678 0)
(1.49052 -0.0354067 0)
(1.50006 -0.0388047 0)
(1.51067 -0.0423681 0)
(1.52244 -0.0460897 0)
(1.53541 -0.0499511 0)
(1.54963 -0.0539324 0)
(1.56515 -0.0580093 0)
(1.58205 -0.0621753 0)
(1.60035 -0.0664098 0)
(1.62003 -0.0705923 0)
(1.64109 -0.0746198 0)
(1.66345 -0.0783649 0)
(1.68711 -0.0817368 0)
(1.71211 -0.0847645 0)
(1.73846 -0.0873986 0)
(1.76611 -0.089526 0)
(1.79491 -0.0910413 0)
(1.82468 -0.0918748 0)
(1.85517 -0.091968 0)
(1.88613 -0.0912461 0)
(1.47803 0.00331201 0)
(1.47982 0.00905169 0)
(1.48292 0.0132643 0)
(1.48624 0.0163987 0)
(1.48914 0.0188376 0)
(1.49177 0.0208113 0)
(1.49432 0.0224138 0)
(1.4968 0.0237218 0)
(1.49918 0.0248135 0)
(1.50142 0.0257502 0)
(1.50354 0.0265418 0)
(1.50558 0.0272561 0)
(1.50757 0.0279254 0)
(1.50953 0.0285334 0)
(1.51143 0.0290786 0)
(1.51328 0.0295649 0)
(1.51508 0.0300128 0)
(1.51684 0.030409 0)
(1.51856 0.0307675 0)
(1.52025 0.0310987 0)
(1.5219 0.0314038 0)
(1.52354 0.0316711 0)
(1.52515 0.0319071 0)
(1.52675 0.0321144 0)
(1.52832 0.0322896 0)
(1.53002 0.0324304 0)
(1.53164 0.0325368 0)
(1.53321 0.0325958 0)
(1.53475 0.0325964 0)
(1.53623 0.032534 0)
(1.53766 0.032405 0)
(1.53903 0.0322094 0)
(1.54034 0.0319469 0)
(1.54158 0.0316165 0)
(1.54275 0.0312114 0)
(1.54384 0.0307606 0)
(1.54484 0.0302632 0)
(1.54578 0.0296746 0)
(1.54663 0.0290181 0)
(1.54741 0.0283006 0)
(1.5481 0.0275277 0)
(1.54871 0.0267006 0)
(1.54924 0.0258208 0)
(1.54969 0.0248933 0)
(1.55006 0.0239285 0)
(1.55034 0.0229248 0)
(1.55054 0.0218758 0)
(1.55068 0.0207885 0)
(1.55077 0.0196748 0)
(1.5508 0.0185424 0)
(1.55079 0.0173958 0)
(1.55073 0.0162377 0)
(1.55065 0.0150702 0)
(1.55055 0.0138922 0)
(1.55045 0.0126994 0)
(1.55035 0.0114902 0)
(1.55027 0.0102664 0)
(1.55023 0.00902576 0)
(1.55023 0.00776306 0)
(1.55028 0.00647166 0)
(1.55041 0.00514624 0)
(1.55061 0.00377776 0)
(1.55091 0.00235979 0)
(1.55132 0.000888218 0)
(1.55186 -0.00065254 0)
(1.55253 -0.00226823 0)
(1.55336 -0.00396151 0)
(1.55437 -0.00574191 0)
(1.55559 -0.00762563 0)
(1.55702 -0.00962707 0)
(1.55871 -0.0117578 0)
(1.56067 -0.0140292 0)
(1.56294 -0.0164537 0)
(1.56555 -0.0190439 0)
(1.56854 -0.0218128 0)
(1.57195 -0.0247711 0)
(1.57582 -0.0279335 0)
(1.58019 -0.0313047 0)
(1.58513 -0.0348981 0)
(1.59069 -0.0387061 0)
(1.5969 -0.0427033 0)
(1.60384 -0.0469129 0)
(1.6116 -0.0513617 0)
(1.62028 -0.0560459 0)
(1.62995 -0.0609422 0)
(1.64071 -0.0660237 0)
(1.6526 -0.07126 0)
(1.66578 -0.0766068 0)
(1.67996 -0.0819997 0)
(1.69525 -0.0873701 0)
(1.71225 -0.0926494 0)
(1.73037 -0.0977674 0)
(1.75093 -0.10265 0)
(1.77307 -0.107196 0)
(1.79671 -0.111271 0)
(1.82182 -0.114731 0)
(1.84828 -0.117437 0)
(1.87592 -0.119267 0)
(1.90451 -0.120113 0)
(1.93382 -0.119883 0)
(1.47783 0.00243011 0)
(1.47886 0.00703281 0)
(1.48087 0.010711 0)
(1.48326 0.0135081 0)
(1.48559 0.0157223 0)
(1.48782 0.0175724 0)
(1.49004 0.0191402 0)
(1.49223 0.0204645 0)
(1.49437 0.0215885 0)
(1.49643 0.0225621 0)
(1.49844 0.0234234 0)
(1.50039 0.0242085 0)
(1.50232 0.0249293 0)
(1.50423 0.0255874 0)
(1.50611 0.0261871 0)
(1.50799 0.0267372 0)
(1.50986 0.027245 0)
(1.51172 0.0277157 0)
(1.51359 0.0281481 0)
(1.51545 0.0285437 0)
(1.51732 0.0289005 0)
(1.5192 0.029228 0)
(1.52107 0.0295198 0)
(1.52294 0.0297727 0)
(1.52481 0.0299769 0)
(1.52667 0.0301397 0)
(1.52854 0.0302781 0)
(1.53043 0.0303805 0)
(1.53233 0.0304297 0)
(1.53422 0.0304183 0)
(1.53611 0.030344 0)
(1.53797 0.0302084 0)
(1.53982 0.0300078 0)
(1.54163 0.0297443 0)
(1.54342 0.0294128 0)
(1.54517 0.0290205 0)
(1.54689 0.0285599 0)
(1.54855 0.0280386 0)
(1.55019 0.0274491 0)
(1.55175 0.026805 0)
(1.55328 0.0260888 0)
(1.55474 0.0253238 0)
(1.55616 0.0245039 0)
(1.55751 0.0236408 0)
(1.55881 0.0227341 0)
(1.56013 0.0217865 0)
(1.56135 0.020803 0)
(1.56248 0.0197883 0)
(1.56354 0.0187463 0)
(1.56454 0.0176798 0)
(1.56549 0.0165918 0)
(1.56638 0.0154848 0)
(1.56723 0.0143626 0)
(1.56804 0.0132252 0)
(1.56882 0.0120608 0)
(1.5696 0.0108639 0)
(1.57038 0.00963989 0)
(1.57116 0.00838897 0)
(1.57195 0.00710531 0)
(1.57276 0.00578171 0)
(1.57359 0.00441065 0)
(1.57446 0.00298715 0)
(1.57539 0.00150328 0)
(1.57637 -4.64888e-05 0)
(1.57742 -0.00167022 0)
(1.57855 -0.00338054 0)
(1.57977 -0.0051892 0)
(1.58111 -0.00710906 0)
(1.58257 -0.00915446 0)
(1.58418 -0.0113391 0)
(1.58596 -0.0136764 0)
(1.58792 -0.0161804 0)
(1.59011 -0.0188663 0)
(1.59253 -0.0217496 0)
(1.59523 -0.0248459 0)
(1.59822 -0.0281707 0)
(1.60158 -0.0317389 0)
(1.60526 -0.035565 0)
(1.6095 -0.0396621 0)
(1.61402 -0.0440432 0)
(1.61934 -0.0487207 0)
(1.62542 -0.0537054 0)
(1.63222 -0.0590021 0)
(1.63985 -0.0646063 0)
(1.6484 -0.0705062 0)
(1.65795 -0.0766796 0)
(1.66861 -0.0830953 0)
(1.68049 -0.0896853 0)
(1.69373 -0.0963722 0)
(1.70847 -0.103148 0)
(1.72478 -0.109967 0)
(1.74268 -0.116782 0)
(1.76218 -0.123484 0)
(1.78331 -0.129817 0)
(1.80611 -0.135565 0)
(1.83058 -0.140558 0)
(1.8566 -0.144637 0)
(1.884 -0.147638 0)
(1.91256 -0.149409 0)
(1.94201 -0.149824 0)
(1.47774 0.00190248 0)
(1.47838 0.00560013 0)
(1.47976 0.00882321 0)
(1.48158 0.0115004 0)
(1.48352 0.0137414 0)
(1.48546 0.0156636 0)
(1.48741 0.0173247 0)
(1.48937 0.0187539 0)
(1.49131 0.0199855 0)
(1.49322 0.0210589 0)
(1.49509 0.0220041 0)
(1.49693 0.022844 0)
(1.49875 0.0235959 0)
(1.50055 0.024272 0)
(1.50234 0.0248807 0)
(1.50412 0.0254299 0)
(1.5059 0.0259263 0)
(1.50768 0.0263744 0)
(1.50945 0.0267772 0)
(1.51123 0.0271383 0)
(1.51301 0.0274602 0)
(1.5148 0.0277447 0)
(1.5166 0.0279918 0)
(1.51841 0.0282019 0)
(1.52023 0.0283745 0)
(1.52206 0.0285126 0)
(1.5239 0.0286185 0)
(1.52576 0.0286844 0)
(1.52764 0.0287008 0)
(1.52952 0.0286629 0)
(1.53142 0.0285701 0)
(1.53331 0.0284215 0)
(1.53519 0.028216 0)
(1.53707 0.0279522 0)
(1.53893 0.0276306 0)
(1.54077 0.0272521 0)
(1.54259 0.0268177 0)
(1.54439 0.0263232 0)
(1.54615 0.0257707 0)
(1.54788 0.0251624 0)
(1.54956 0.0245066 0)
(1.55119 0.0237987 0)
(1.55277 0.0230391 0)
(1.5543 0.0222293 0)
(1.55577 0.0213674 0)
(1.55718 0.0204633 0)
(1.55853 0.0195351 0)
(1.55983 0.0185816 0)
(1.56108 0.0176 0)
(1.56229 0.0165864 0)
(1.56345 0.0155488 0)
(1.56457 0.0144801 0)
(1.56565 0.0133896 0)
(1.56674 0.012271 0)
(1.56781 0.0111239 0)
(1.56879 0.00994635 0)
(1.56976 0.00873506 0)
(1.57072 0.00748572 0)
(1.57167 0.0061931 0)
(1.57262 0.00485153 0)
(1.57359 0.00345475 0)
(1.57457 0.00199615 0)
(1.5756 0.000467759 0)
(1.57663 -0.00113845 0)
(1.57775 -0.00283162 0)
(1.57894 -0.0046233 0)
(1.5802 -0.00652602 0)
(1.58155 -0.0085533 0)
(1.58301 -0.0107199 0)
(1.58458 -0.0130415 0)
(1.5863 -0.0155345 0)
(1.58818 -0.018216 0)
(1.59025 -0.0211038 0)
(1.59254 -0.0242169 0)
(1.59506 -0.0275735 0)
(1.59788 -0.0311947 0)
(1.60101 -0.0350971 0)
(1.60452 -0.0393056 0)
(1.60846 -0.043836 0)
(1.61289 -0.0487204 0)
(1.61785 -0.0540064 0)
(1.62341 -0.0596894 0)
(1.62965 -0.0657538 0)
(1.63669 -0.0722005 0)
(1.64463 -0.0790326 0)
(1.65358 -0.0862409 0)
(1.66364 -0.0938006 0)
(1.67495 -0.101671 0)
(1.68766 -0.109805 0)
(1.70188 -0.118159 0)
(1.71774 -0.126655 0)
(1.73534 -0.135175 0)
(1.75473 -0.143548 0)
(1.77599 -0.151551 0)
(1.79913 -0.158966 0)
(1.82413 -0.165584 0)
(1.8509 -0.171178 0)
(1.87927 -0.175513 0)
(1.90901 -0.178367 0)
(1.93978 -0.179556 0)
(1.4777 0.0015624 0)
(1.47815 0.0046396 0)
(1.47915 0.00746595 0)
(1.48056 0.00993196 0)
(1.48215 0.0120462 0)
(1.4838 0.0138728 0)
(1.48549 0.0154629 0)
(1.48723 0.0168474 0)
(1.48898 0.0180529 0)
(1.49073 0.0191085 0)
(1.49247 0.02004 0)
(1.49419 0.0208687 0)
(1.49591 0.0216119 0)
(1.49763 0.0222821 0)
(1.49934 0.0228873 0)
(1.50105 0.0234347 0)
(1.50276 0.0239303 0)
(1.50448 0.0243787 0)
(1.50619 0.0247839 0)
(1.50791 0.0251488 0)
(1.50964 0.0254754 0)
(1.51137 0.0257653 0)
(1.51311 0.0260188 0)
(1.51487 0.0262355 0)
(1.51663 0.0264149 0)
(1.5184 0.0265562 0)
(1.52018 0.0266587 0)
(1.52197 0.0267194 0)
(1.52377 0.0267341 0)
(1.52557 0.0266994 0)
(1.52738 0.0266136 0)
(1.52919 0.0264753 0)
(1.531 0.0262832 0)
(1.53279 0.0260366 0)
(1.53457 0.0257355 0)
(1.53634 0.0253802 0)
(1.53808 0.0249709 0)
(1.5398 0.0245066 0)
(1.54149 0.023988 0)
(1.54315 0.0234169 0)
(1.54478 0.0227951 0)
(1.54636 0.0221243 0)
(1.54791 0.0214064 0)
(1.54941 0.0206432 0)
(1.55086 0.0198376 0)
(1.55226 0.0189952 0)
(1.55361 0.0181232 0)
(1.55492 0.0172205 0)
(1.55618 0.0162851 0)
(1.5574 0.0153169 0)
(1.55857 0.0143185 0)
(1.55971 0.0132889 0)
(1.56081 0.0122272 0)
(1.56187 0.0111299 0)
(1.5629 0.010008 0)
(1.56392 0.00886133 0)
(1.56492 0.00767771 0)
(1.56591 0.00644691 0)
(1.56689 0.00516429 0)
(1.56786 0.00382549 0)
(1.56884 0.00242447 0)
(1.56983 0.000952871 0)
(1.57083 -0.000597157 0)
(1.57187 -0.00223658 0)
(1.57293 -0.0039788 0)
(1.57405 -0.00583285 0)
(1.57522 -0.0078101 0)
(1.57646 -0.00992559 0)
(1.57779 -0.0121963 0)
(1.57922 -0.0146403 0)
(1.58077 -0.0172764 0)
(1.58247 -0.0201245 0)
(1.58432 -0.0232056 0)
(1.58636 -0.026542 0)
(1.58862 -0.0301574 0)
(1.59113 -0.0340767 0)
(1.59394 -0.0383258 0)
(1.5971 -0.0429332 0)
(1.60064 -0.0479273 0)
(1.60464 -0.053341 0)
(1.60916 -0.0592036 0)
(1.61426 -0.0655268 0)
(1.62004 -0.0723206 0)
(1.6266 -0.0796023 0)
(1.63405 -0.0873853 0)
(1.64252 -0.0956703 0)
(1.65213 -0.104443 0)
(1.66303 -0.113674 0)
(1.67539 -0.123317 0)
(1.68934 -0.133305 0)
(1.70506 -0.143541 0)
(1.72267 -0.153891 0)
(1.74228 -0.164176 0)
(1.76398 -0.174172 0)
(1.78781 -0.183616 0)
(1.81378 -0.192217 0)
(1.84181 -0.199659 0)
(1.87173 -0.205619 0)
(1.90325 -0.20979 0)
(1.93601 -0.21191 0)
(1.47767 0.00132321 0)
(1.47801 0.00393893 0)
(1.47878 0.00640246 0)
(1.47989 0.00862309 0)
(1.48119 0.0105816 0)
(1.48261 0.0123086 0)
(1.4841 0.0138391 0)
(1.48565 0.0151955 0)
(1.48725 0.0163953 0)
(1.48886 0.0174583 0)
(1.49048 0.0184041 0)
(1.49211 0.0192499 0)
(1.49375 0.0200093 0)
(1.49538 0.0206929 0)
(1.49702 0.0213088 0)
(1.49867 0.0218638 0)
(1.50032 0.022364 0)
(1.50197 0.0228141 0)
(1.50364 0.023218 0)
(1.5053 0.0235786 0)
(1.50698 0.023898 0)
(1.50866 0.0241779 0)
(1.51035 0.0244193 0)
(1.51205 0.0246224 0)
(1.51376 0.0247871 0)
(1.51548 0.0249131 0)
(1.51721 0.025 0)
(1.51894 0.0250466 0)
(1.52068 0.0250502 0)
(1.52243 0.0250082 0)
(1.52417 0.0249185 0)
(1.52592 0.02478 0)
(1.52766 0.0245917 0)
(1.52938 0.0243531 0)
(1.5311 0.024064 0)
(1.53279 0.0237242 0)
(1.53447 0.023334 0)
(1.53612 0.0228931 0)
(1.53775 0.0224025 0)
(1.53934 0.0218633 0)
(1.5409 0.0212776 0)
(1.54242 0.0206465 0)
(1.54391 0.0199712 0)
(1.54535 0.0192536 0)
(1.54674 0.0184957 0)
(1.54809 0.0177004 0)
(1.5494 0.0168706 0)
(1.55066 0.0160077 0)
(1.55187 0.0151117 0)
(1.55305 0.0141829 0)
(1.55418 0.0132225 0)
(1.55528 0.0122294 0)
(1.55633 0.0112034 0)
(1.55736 0.0101433 0)
(1.55835 0.00905072 0)
(1.55932 0.00792234 0)
(1.56027 0.00674977 0)
(1.5612 0.00552595 0)
(1.56212 0.0042463 0)
(1.56303 0.00290562 0)
(1.56394 0.00149679 0)
(1.56486 1.10386e-05 0)
(1.56578 -0.0015612 0)
(1.56672 -0.00323094 0)
(1.56769 -0.00500999 0)
(1.56869 -0.00690999 0)
(1.56974 -0.00894476 0)
(1.57084 -0.0111308 0)
(1.57201 -0.0134864 0)
(1.57326 -0.0160309 0)
(1.57461 -0.0187852 0)
(1.57608 -0.0217718 0)
(1.57769 -0.0250148 0)
(1.57946 -0.0285403 0)
(1.58143 -0.0323762 0)
(1.58362 -0.0365526 0)
(1.58608 -0.0411011 0)
(1.58884 -0.0460558 0)
(1.59198 -0.0514519 0)
(1.59553 -0.057326 0)
(1.59957 -0.0637138 0)
(1.60418 -0.0706482 0)
(1.60945 -0.0781583 0)
(1.61548 -0.0862708 0)