/*--------------------------------*- C++ -*----------------------------------*\
| =========                 |                                                 |
| \\      /  F ield         | OpenFOAM: The Open Source CFD Toolbox           |
|  \\    /   O peration     | Version:  2206                                  |
|   \\  /    A nd           | Website:  www.openfoam.com                      |
|    \\/     M anipulation  |                                                 |
\*---------------------------------------------------------------------------*/
FoamFile
{
    version     2.0;
    format      ascii;
    arch        "LSB;label=32;scalar=64";
    class       volVectorField;
    location    "18.9";
    object      U;
}
// * * * * * * * * * * * * * * * * * * * * * * * * * * * * * * * * * * * * * //

dimensions      [0 1 -1 0 0 0 0];

internalField   nonuniform List<vector> 
4853
(
(-0.102375 0.0611406 0)
(-0.178095 0.0701965 0)
(-0.271798 0.071717 0)
(-0.368139 0.0669463 0)
(-0.460403 0.0571106 0)
(-0.538541 0.0433622 0)
(-0.59473 0.02765 0)
(-0.624779 0.0112383 0)
(-0.627902 -0.00574612 0)
(-0.608495 -0.0229187 0)
(-0.567692 -0.037546 0)
(-0.503524 -0.0437984 0)
(-0.433766 -0.0255717 0)
(-0.375849 0.0399152 0)
(0.0643027 0.0892851 0)
(0.0199429 0.116956 0)
(-0.0345072 0.131509 0)
(-0.0910704 0.131856 0)
(-0.139578 0.117968 0)
(-0.170879 0.09076 0)
(-0.180707 0.0541362 0)
(-0.17201 0.0135113 0)
(-0.150565 -0.0265254 0)
(-0.114092 -0.0626062 0)
(-0.0658959 -0.0936964 0)
(-0.00926516 -0.118863 0)
(0.0509056 -0.14024 0)
(0.126109 -0.157623 0)
(0.455593 0.123731 0)
(0.468964 0.16717 0)
(0.473629 0.186112 0)
(0.473755 0.185788 0)
(0.477257 0.160739 0)
(0.487173 0.107855 0)
(0.502186 0.0443267 0)
(0.519931 -0.01555 0)
(0.544654 -0.0678881 0)
(0.579408 -0.112222 0)
(0.621706 -0.149264 0)
(0.67127 -0.178959 0)
(0.728269 -0.1994 0)
(0.793895 -0.205527 0)
(0.91747 0.0499695 0)
(0.943102 0.099502 0)
(0.9814 0.131753 0)
(1.02546 0.142399 0)
(1.0723 0.127092 0)
(1.11485 0.0885047 0)
(1.14865 0.035782 0)
(1.17557 -0.0234432 0)
(1.19955 -0.081955 0)
(1.22569 -0.136339 0)
(1.25639 -0.184414 0)
(1.29287 -0.224966 0)
(1.3337 -0.255207 0)
(1.38058 -0.274796 0)
(1.588 0.0858964 0)
(1.58571 0.097713 0)
(1.5929 0.101756 0)
(1.61101 0.0935507 0)
(1.6362 0.070158 0)
(1.66284 0.0315482 0)
(1.68849 -0.018146 0)
(1.71192 -0.0725094 0)
(1.73313 -0.126541 0)
(1.75396 -0.177771 0)
(1.77487 -0.224288 0)
(1.79551 -0.264292 0)
(1.81553 -0.295311 0)
(1.83594 -0.316796 0)
(1.94004 0.0655144 0)
(1.96205 0.0819302 0)
(1.9883 0.0872027 0)
(2.01702 0.0784969 0)
(2.04621 0.0556927 0)
(2.07368 0.0204568 0)
(2.09661 -0.0241117 0)
(2.11318 -0.0746276 0)
(2.12356 -0.127703 0)
(2.12828 -0.179043 0)
(2.12812 -0.225531 0)
(2.12398 -0.265142 0)
(2.11713 -0.296682 0)
(2.10953 -0.319623 0)
(2.08784 0.0453825 0)
(2.11198 0.0524645 0)
(2.14079 0.0506878 0)
(2.17091 0.0389128 0)
(2.19977 0.0167192 0)
(2.22476 -0.0152118 0)
(2.24264 -0.0538336 0)
(2.25338 -0.097024 0)
(2.25682 -0.141967 0)
(2.25365 -0.183896 0)
(2.24481 -0.222018 0)
(2.23178 -0.255054 0)
(2.21618 -0.282269 0)
(2.19942 -0.303905 0)
(2.13849 0.0215718 0)
(2.15856 0.0228991 0)
(2.18168 0.0181685 0)
(2.20606 0.00663016 0)
(2.22987 -0.0118624 0)
(2.25047 -0.0367037 0)
(2.26683 -0.0668631 0)
(2.27865 -0.100466 0)
(2.27925 -0.135688 0)
(2.27685 -0.170696 0)
(2.26819 -0.204089 0)
(2.2549 -0.234257 0)
(2.23881 -0.26029 0)
(2.22121 -0.281964 0)
(2.15121 0.00300152 0)
(2.16734 0.00161431 0)
(2.18545 -0.00439458 0)
(2.20414 -0.0156202 0)
(2.2219 -0.0321648 0)
(2.23725 -0.0537106 0)
(2.24879 -0.0796455 0)
(2.25576 -0.108062 0)
(2.25809 -0.137529 0)
(2.25552 -0.167485 0)
(2.24834 -0.196032 0)
(2.23747 -0.221935 0)
(2.22387 -0.244825 0)
(2.20844 -0.264599 0)
(2.14723 -0.010923 0)
(2.15964 -0.014921 0)
(2.17341 -0.0223624 0)
(2.18751 -0.0336116 0)
(2.20084 -0.0487123 0)
(2.21236 -0.067347 0)
(2.22115 -0.088876 0)
(2.22648 -0.11235 0)
(2.22804 -0.136853 0)
(2.22581 -0.161573 0)
(2.21996 -0.185535 0)
(2.21097 -0.207972 0)
(2.19957 -0.228474 0)
(2.18652 -0.246822 0)
(2.14087 -0.0226146 0)
(2.15038 -0.0281076 0)
(2.1608 -0.0361138 0)
(2.17136 -0.0469017 0)
(2.18127 -0.0605016 0)
(2.18976 -0.0767156 0)
(2.19616 -0.0951514 0)
(2.19993 -0.115219 0)
(2.20084 -0.136204 0)
(2.19886 -0.157414 0)
(2.19407 -0.178302 0)
(2.18679 -0.198202 0)
(2.17751 -0.216705 0)
(2.16672 -0.233622 0)
(2.13487 -0.0309812 0)
(2.14213 -0.037508 0)
(2.14993 -0.0459391 0)
(2.15775 -0.0564563 0)
(2.16501 -0.0690764 0)
(2.17116 -0.0836544 0)
(2.17571 -0.0998912 0)
(2.17829 -0.117354 0)
(2.17868 -0.13554 0)
(2.17682 -0.153948 0)
(2.17276 -0.17214 0)
(2.16667 -0.189696 0)
(2.15886 -0.206289 0)
(2.14966 -0.221747 0)
(2.12814 -0.0377501 0)
(2.13373 -0.0449754 0)
(2.13964 -0.053614 0)
(2.14548 -0.0637938 0)
(2.15083 -0.0755279 0)
(2.15528 -0.0887125 0)
(2.15847 -0.103137 0)
(2.16011 -0.118506 0)
(2.16002 -0.134471 0)
(2.15814 -0.150666 0)
(2.15449 -0.166738 0)
(2.14917 -0.182411 0)
(2.14236 -0.197421 0)
(2.13431 -0.211589 0)
(2.12085 -0.0429536 0)
(2.1252 -0.0505654 0)
(2.1297 -0.0592403 0)
(2.13406 -0.0690726 0)
(2.13797 -0.0800724 0)
(2.14112 -0.092165 0)
(2.14326 -0.105199 0)
(2.14415 -0.118958 0)
(2.14367 -0.133186 0)
(2.14173 -0.147612 0)
(2.13834 -0.16197 0)
(2.13358 -0.176027 0)
(2.12753 -0.189605 0)
(2.12036 -0.202543 0)
(2.11321 -0.0470956 0)
(2.11662 -0.0549213 0)
(2.12005 -0.0635479 0)
(2.12331 -0.0730414 0)
(2.12614 -0.0834069 0)
(2.12833 -0.0945883 0)
(2.12968 -0.106474 0)
(2.13001 -0.118907 0)
(2.12922 -0.131698 0)
(2.12723 -0.144647 0)
(2.12403 -0.157555 0)
(2.11967 -0.170239 0)
(2.1142 -0.182548 0)
(2.10772 -0.194371 0)
(2.10546 -0.0503996 0)
(2.10816 -0.0582897 0)
(2.1108 -0.0667824 0)
(2.11322 -0.0759246 0)
(2.11525 -0.0857191 0)
(2.11672 -0.0961238 0)
(2.11748 -0.107056 0)
(2.11739 -0.118398 0)
(2.11636 -0.130009 0)
(2.11433 -0.141736 0)
(2.11128 -0.153427 0)
(2.10723 -0.164939 0)
(2.10222 -0.176147 0)
(2.09631 -0.18695 0)
(2.09775 -0.0530863 0)
(2.09991 -0.0609396 0)
(2.10196 -0.0692476 0)
(2.10376 -0.0780427 0)
(2.1052 -0.0873245 0)
(2.10614 -0.0970593 0)
(2.10646 -0.107183 0)
(2.10606 -0.117605 0)
(2.10486 -0.12822 0)
(2.10282 -0.138908 0)
(2.0999 -0.149551 0)
(2.09612 -0.160036 0)
(2.09149 -0.170261 0)
(2.08606 -0.180142 0)
(2.09021 -0.0552881 0)
(2.09197 -0.0630314 0)
(2.09357 -0.0711179 0)
(2.09492 -0.0795687 0)
(2.09592 -0.08838 0)
(2.09647 -0.0975234 0)
(2.09647 -0.106948 0)
(2.09586 -0.116583 0)
(2.09456 -0.126344 0)
(2.09253 -0.136141 0)
(2.08975 -0.145878 0)
(2.08621 -0.155465 0)
(2.08191 -0.164818 0)
(2.0769 -0.173865 0)
(2.08294 -0.0571491 0)
(2.0844 -0.0647294 0)
(2.08567 -0.0725698 0)
(2.08668 -0.0806818 0)
(2.08736 -0.0890585 0)
(2.08763 -0.097674 0)
(2.08742 -0.106486 0)
(2.08667 -0.115436 0)
(2.08532 -0.124459 0)
(2.08334 -0.133479 0)
(2.0807 -0.142422 0)
(2.07738 -0.151213 0)
(2.0734 -0.159783 0)
(2.06876 -0.168072 0)
(2.07603 -0.0587125 0)
(2.07726 -0.0660978 0)
(2.07828 -0.0736813 0)
(2.07904 -0.0814669 0)
(2.07949 -0.0894438 0)
(2.07958 -0.0975869 0)
(2.07923 -0.105858 0)
(2.07841 -0.11421 0)
(2.07707 -0.122586 0)
(2.07516 -0.130925 0)
(2.07267 -0.139166 0)
(2.06958 -0.147249 0)
(2.0659 -0.155117 0)
(2.06162 -0.162718 0)
(2.06953 -0.0600971 0)
(2.07058 -0.067265 0)
(2.07142 -0.0745864 0)
(2.07201 -0.082058 0)
(2.07231 -0.0896649 0)
(2.07228 -0.0973809 0)
(2.07186 -0.105171 0)
(2.07103 -0.112991 0)
(2.06973 -0.120793 0)
(2.06794 -0.128526 0)
(2.06562 -0.136141 0)
(2.06277 -0.143586 0)
(2.05938 -0.150818 0)
(2.05546 -0.157793 0)
(2.06354 -0.0612723 0)
(2.06444 -0.0682183 0)
(2.06515 -0.0752875 0)
(2.06562 -0.0824693 0)
(2.06583 -0.0897435 0)
(2.06574 -0.0970818 0)
(2.06532 -0.104448 0)
(2.06452 -0.1118 0)
(2.06332 -0.119101 0)
(2.06167 -0.1263 0)
(2.05956 -0.133354 0)
(2.05697 -0.140227 0)
(2.05388 -0.146887 0)
(2.05029 -0.153297 0)
(2.05812 -0.0623666 0)
(2.05892 -0.0690894 0)
(2.05952 -0.075917 0)
(2.05991 -0.0828319 0)
(2.06007 -0.0898067 0)
(2.05998 -0.0968074 0)
(2.05959 -0.103804 0)
(2.05887 -0.110744 0)
(2.05779 -0.117587 0)
(2.05631 -0.124297 0)
(2.05439 -0.130839 0)
(2.05202 -0.137184 0)
(2.04919 -0.143308 0)
(2.04589 -0.149186 0)
(2.05331 -0.0632808 0)
(2.05399 -0.0697995 0)
(2.05448 -0.0764146 0)
(2.05479 -0.083099 0)
(2.0549 -0.0898173 0)
(2.05478 -0.096538 0)
(2.05441 -0.103203 0)
(2.05374 -0.10977 0)
(2.05274 -0.116197 0)
(2.05135 -0.122451 0)
(2.04953 -0.128503 0)
(2.04726 -0.134335 0)
(2.04452 -0.139947 0)
(2.04131 -0.145313 0)
(2.04841 -0.064085 0)
(2.04885 -0.0704001 0)
(2.04911 -0.0768158 0)
(2.0492 -0.0832949 0)
(2.04912 -0.0897912 0)
(2.04882 -0.0962514 0)
(2.04828 -0.102619 0)
(2.04745 -0.10884 0)
(2.04625 -0.114873 0)
(2.04464 -0.120667 0)
(2.04256 -0.126217 0)
(2.03994 -0.131535 0)
(2.03676 -0.136599 0)
(2.03299 -0.141403 0)
(2.03859 -0.0644846 0)
(2.0383 -0.0706081 0)
(2.03781 -0.0768397 0)
(2.0371 -0.0831463 0)
(2.03619 -0.0894379 0)
(2.035 -0.0956346 0)
(2.03349 -0.101672 0)
(2.0316 -0.107485 0)
(2.02922 -0.113029 0)
(2.02627 -0.118265 0)
(2.02264 -0.123188 0)
(2.01828 -0.127809 0)
(2.01313 -0.132141 0)
(2.00715 -0.136197 0)
(2.00481 -0.0634966 0)
(2.00249 -0.0693109 0)
(1.99974 -0.0752443 0)
(1.99661 -0.0812318 0)
(1.99309 -0.0871914 0)
(1.98907 -0.0930234 0)
(1.98444 -0.0986171 0)
(1.97912 -0.103871 0)
(1.97299 -0.108707 0)
(1.96586 -0.113088 0)
(1.95758 -0.117033 0)
(1.94804 -0.120588 0)
(1.93719 -0.123794 0)
(1.925 -0.12668 0)
(1.89364 -0.0598523 0)
(1.88593 -0.0650402 0)
(1.87729 -0.0703112 0)
(1.8677 -0.0759453 0)
(1.85713 -0.0810673 0)
(1.8455 -0.0859105 0)
(1.83271 -0.0905107 0)
(1.8186 -0.0946108 0)
(1.803 -0.0981078 0)
(1.78567 -0.100995 0)
(1.76639 -0.103341 0)
(1.74507 -0.105232 0)
(1.72167 -0.106733 0)
(1.69619 -0.107896 0)
(1.55642 -0.0457791 0)
(1.53764 -0.0494974 0)
(1.51711 -0.0532929 0)
(1.49471 -0.0571042 0)
(1.47044 -0.0608338 0)
(1.44426 -0.0643249 0)
(1.4163 -0.067325 0)
(1.38593 -0.0694864 0)
(1.35245 -0.0706115 0)
(1.31574 -0.0707408 0)
(1.27588 -0.0700751 0)
(1.23315 -0.0687852 0)
(1.18787 -0.067004 0)
(1.14035 -0.0648469 0)
(0.706959 -0.0221002 0)
(0.676203 -0.0234831 0)
(0.643176 -0.02484 0)
(0.607854 -0.0261333 0)
(0.570277 -0.0271779 0)
(0.530757 -0.0278338 0)
(0.489095 -0.0277336 0)
(0.446987 -0.0262163 0)
(0.406221 -0.0231045 0)
(0.366944 -0.0190601 0)
(0.329453 -0.0149685 0)
(0.294256 -0.0111881 0)
(0.261538 -0.0077996 0)
(0.231268 -0.00482073 0)
(-0.19899 0.208849 0)
(-0.0303953 0.183104 0)
(0.144746 0.168203 0)
(0.297824 0.152791 0)
(0.443896 0.135667 0)
(0.590226 0.114919 0)
(0.739248 0.0869518 0)
(0.892103 0.0477518 0)
(1.04859 -0.00745228 0)
(1.20724 -0.0837827 0)
(1.36239 -0.182984 0)
(1.49764 -0.295514 0)
(1.60348 -0.408331 0)
(1.67802 -0.50993 0)
(1.72448 -0.593612 0)
(1.74834 -0.657799 0)
(1.755 -0.703334 0)
(1.74997 -0.732517 0)
(1.73645 -0.749428 0)
(1.7153 -0.755174 0)
(1.68954 -0.750852 0)
(1.66093 -0.739682 0)
(1.63042 -0.724357 0)
(1.59951 -0.706168 0)
(1.56924 -0.686201 0)
(1.54018 -0.665608 0)
(1.5123 -0.644977 0)
(1.48551 -0.624583 0)
(1.45966 -0.60453 0)
(1.43457 -0.584825 0)
(1.41005 -0.565397 0)
(1.38596 -0.546094 0)
(1.36215 -0.526719 0)
(1.33844 -0.507135 0)
(1.31454 -0.487295 0)
(1.29024 -0.467115 0)
(1.26591 -0.44599 0)
(1.24252 -0.422596 0)
(1.22007 -0.396369 0)
(1.19501 -0.37006 0)
(1.15901 -0.351368 0)
(1.10305 -0.349019 0)
(1.02607 -0.363414 0)
(0.943724 -0.380588 0)
(0.875671 -0.383286 0)
(0.830501 -0.362443 0)
(0.815349 -0.316038 0)
(0.825676 -0.24799 0)
(0.863589 -0.162075 0)
(0.918031 -0.0668514 0)
(0.980992 0.0284448 0)
(1.0469 0.117667 0)
(1.11268 0.198649 0)
(1.17622 0.270109 0)
(1.23589 0.331365 0)
(1.29055 0.38245 0)
(1.33952 0.423876 0)
(1.38252 0.456479 0)
(1.41957 0.481303 0)
(1.45092 0.499492 0)
(1.47698 0.51223 0)
(1.49829 0.520682 0)
(1.51539 0.52594 0)
(1.52889 0.528985 0)
(1.5394 0.530637 0)
(1.54746 0.531556 0)
(1.55359 0.532251 0)
(1.5582 0.533049 0)
(1.56165 0.534439 0)
(1.56409 0.536908 0)
(1.56554 0.54091 0)
(1.56603 0.547237 0)
(1.56538 0.55692 0)
(1.56334 0.571034 0)
(1.55972 0.590346 0)
(1.55465 0.614646 0)
(1.54905 0.641576 0)
(1.54438 0.66648 0)
(1.54154 0.685733 0)
(1.54056 0.696793 0)
(1.54081 0.699842 0)
(1.54307 0.692846 0)
(1.54808 0.660236 0)
(1.55556 0.606903 0)
(1.56535 0.533901 0)
(1.57738 0.443086 0)
(1.59148 0.337646 0)
(1.60739 0.222044 0)
(1.62456 0.102359 0)
(1.64211 -0.0146836 0)
(1.65931 -0.124653 0)
(1.67543 -0.223992 0)
(1.68985 -0.310518 0)
(1.70201 -0.382631 0)
(1.71162 -0.44015 0)
(1.71858 -0.483975 0)
(1.72288 -0.514819 0)
(1.72482 -0.534854 0)
(1.72494 -0.545666 0)
(1.72302 -0.548742 0)
(1.71886 -0.546011 0)
(1.71253 -0.537956 0)
(1.70483 -0.526702 0)
(1.69634 -0.513795 0)
(1.68731 -0.500392 0)
(1.67795 -0.487298 0)
(1.66833 -0.474932 0)
(1.65849 -0.463531 0)
(1.64844 -0.453235 0)
(1.63819 -0.444115 0)
(1.62772 -0.4362 0)
(1.617 -0.429489 0)
(1.60599 -0.423963 0)
(1.59465 -0.419593 0)
(1.58293 -0.416344 0)
(1.57075 -0.414182 0)
(1.55799 -0.413117 0)
(1.54451 -0.413221 0)
(1.53015 -0.414599 0)
(1.51475 -0.417313 0)
(1.49823 -0.421258 0)
(1.48059 -0.426026 0)
(1.462 -0.430809 0)
(1.44279 -0.434406 0)
(1.4234 -0.435388 0)
(1.40426 -0.432274 0)
(1.38588 -0.423738 0)
(0.209955 -0.110946 0)
(0.36038 -0.0766773 0)
(0.519756 -0.0597594 0)
(0.672603 -0.0559704 0)
(0.821643 -0.0621243 0)
(0.969521 -0.0770327 0)
(1.11665 -0.101406 0)
(1.26255 -0.136928 0)
(1.40445 -0.185822 0)
(1.53752 -0.249862 0)
(1.65413 -0.326485 0)
(1.74722 -0.409011 0)
(1.81312 -0.488992 0)
(1.85246 -0.559467 0)
(1.86931 -0.617146 0)
(1.86892 -0.661066 0)
(1.85616 -0.692353 0)
(1.83375 -0.712513 0)
(1.80449 -0.721649 0)
(1.77098 -0.721349 0)
(1.73511 -0.714049 0)
(1.69874 -0.702102 0)
(1.66293 -0.686905 0)
(1.6285 -0.669593 0)
(1.59584 -0.651189 0)
(1.56496 -0.63232 0)
(1.53574 -0.613301 0)
(1.50798 -0.594306 0)
(1.48145 -0.575419 0)
(1.45593 -0.55664 0)
(1.43119 -0.537916 0)
(1.40707 -0.519149 0)
(1.38342 -0.500189 0)
(1.36014 -0.480853 0)
(1.33714 -0.460974 0)
(1.31421 -0.440455 0)
(1.29115 -0.419277 0)
(1.26819 -0.397074 0)
(1.24636 -0.372672 0)
(1.22628 -0.345061 0)
(1.20567 -0.315762 0)
(1.1772 -0.291176 0)
(1.13095 -0.280509 0)
(1.06273 -0.287686 0)
(0.982587 -0.303408 0)
(0.912472 -0.310188 0)
(0.863396 -0.297091 0)
(0.842254 -0.259794 0)
(0.848442 -0.202118 0)
(0.882366 -0.126849 0)
(0.934499 -0.0414674 0)
(0.99559 0.0451889 0)
(1.05934 0.12646 0)
(1.12269 0.200354 0)
(1.18362 0.265847 0)
(1.2408 0.322367 0)
(1.29327 0.369903 0)
(1.34043 0.408925 0)
(1.38201 0.440179 0)
(1.41806 0.464557 0)
(1.44878 0.483047 0)
(1.47458 0.496686 0)
(1.49592 0.506497 0)
(1.51337 0.513432 0)
(1.5275 0.518324 0)
(1.53889 0.521869 0)
(1.54807 0.524624 0)
(1.55546 0.527081 0)
(1.56143 0.529813 0)
(1.56622 0.533471 0)
(1.56985 0.538645 0)
(1.57237 0.546206 0)
(1.57368 0.557297 0)
(1.57371 0.572987 0)
(1.57256 0.593752 0)
(1.57081 0.618697 0)
(1.56967 0.644571 0)
(1.57026 0.6675 0)
(1.57261 0.684812 0)
(1.57601 0.695018 0)
(1.58102 0.697094 0)
(1.58909 0.684418 0)
(1.60058 0.649763 0)
(1.61388 0.59429 0)
(1.62873 0.519128 0)
(1.64514 0.426365 0)
(1.66281 0.319258 0)
(1.68135 0.202456 0)
(1.70002 0.0824672 0)
(1.71786 -0.0339859 0)
(1.73418 -0.142582 0)
(1.7484 -0.239907 0)
(1.75999 -0.323685 0)
(1.76863 -0.392824 0)
(1.77423 -0.447243 0)
(1.77683 -0.48777 0)
(1.77671 -0.515814 0)
(1.77433 -0.533167 0)
(1.77003 -0.541828 0)
(1.76325 -0.542957 0)
(1.75463 -0.537661 0)
(1.74441 -0.528031 0)
(1.73324 -0.51576 0)
(1.72161 -0.502247 0)
(1.70976 -0.488524 0)
(1.69786 -0.475239 0)
(1.68592 -0.462731 0)
(1.67397 -0.451205 0)
(1.662 -0.440777 0)
(1.64999 -0.431503 0)
(1.6379 -0.423399 0)
(1.62568 -0.416454 0)
(1.61329 -0.410643 0)
(1.60067 -0.405925 0)
(1.58775 -0.40225 0)
(1.57446 -0.399559 0)
(1.5607 -0.397827 0)
(1.54633 -0.397091 0)
(1.53118 -0.397444 0)
(1.51509 -0.398979 0)
(1.49793 -0.401682 0)
(1.47967 -0.405292 0)
(1.46043 -0.409177 0)
(1.44052 -0.412305 0)
(1.4204 -0.413339 0)
(1.40054 -0.410833 0)
(1.38152 -0.40342 0)
(0.872993 -0.196504 0)
(0.972062 -0.189156 0)
(1.08219 -0.188159 0)
(1.19542 -0.19269 0)
(1.30848 -0.202608 0)
(1.41962 -0.21842 0)
(1.52799 -0.241132 0)
(1.63112 -0.271951 0)
(1.72653 -0.311898 0)
(1.81068 -0.361047 0)
(1.87863 -0.416288 0)
(1.92669 -0.472824 0)
(1.95428 -0.526324 0)
(1.96306 -0.573233 0)
(1.9566 -0.612385 0)
(1.93828 -0.643102 0)
(1.91075 -0.664512 0)
(1.87699 -0.676335 0)
(1.83931 -0.68013 0)
(1.79971 -0.677691 0)
(1.7599 -0.670346 0)
(1.72119 -0.659409 0)
(1.68423 -0.64603 0)
(1.64925 -0.631031 0)
(1.6163 -0.61497 0)
(1.58528 -0.59823 0)
(1.556 -0.581075 0)
(1.52823 -0.563675 0)
(1.50174 -0.54612 0)
(1.47633 -0.528427 0)
(1.45179 -0.510569 0)
(1.42797 -0.492479 0)
(1.40473 -0.474063 0)
(1.38196 -0.455203 0)
(1.35965 -0.435749 0)
(1.33776 -0.4155 0)
(1.3162 -0.394322 0)
(1.29483 -0.372222 0)
(1.27377 -0.349085 0)
(1.25391 -0.324114 0)
(1.2364 -0.296076 0)
(1.22023 -0.26525 0)
(1.19991 -0.235915 0)
(1.16584 -0.216582 0)
(1.11057 -0.214395 0)
(1.03711 -0.226108 0)
(0.964759 -0.236755 0)
(0.909883 -0.232785 0)
(0.879253 -0.208371 0)
(0.877627 -0.161844 0)
(0.90347 -0.0984545 0)
(0.951769 -0.023269 0)
(1.01061 0.0557506 0)
(1.07253 0.130567 0)
(1.1339 0.198603 0)
(1.19268 0.259218 0)
(1.24772 0.312019 0)
(1.29828 0.356899 0)
(1.34387 0.394189 0)
(1.38425 0.424546 0)
(1.41942 0.448783 0)
(1.44962 0.467775 0)
(1.47523 0.482411 0)
(1.49673 0.493556 0)
(1.51467 0.502015 0)
(1.52959 0.5085 0)
(1.54201 0.513636 0)
(1.55238 0.51803 0)
(1.56106 0.522368 0)
(1.56833 0.527442 0)
(1.57425 0.53399 0)
(1.57883 0.542936 0)
(1.58215 0.555426 0)
(1.58438 0.572322 0)
(1.58603 0.593639 0)
(1.58801 0.617988 0)
(1.5914 0.642151 0)
(1.59667 0.663201 0)
(1.60342 0.679095 0)
(1.61144 0.688112 0)
(1.62217 0.686633 0)
(1.63638 0.669514 0)
(1.65371 0.632757 0)
(1.67264 0.575542 0)
(1.69269 0.498948 0)
(1.71358 0.405134 0)
(1.73484 0.297418 0)
(1.75589 0.180604 0)
(1.77579 0.0617591 0)
(1.79363 -0.0528102 0)
(1.80882 -0.1588 0)
(1.82086 -0.252933 0)
(1.82942 -0.333178 0)
(1.83435 -0.398619 0)
(1.83577 -0.44945 0)
(1.83395 -0.486714 0)
(1.82939 -0.511932 0)
(1.82263 -0.52695 0)
(1.81336 -0.533276 0)
(1.80198 -0.531753 0)
(1.78906 -0.524677 0)
(1.77508 -0.513969 0)
(1.76062 -0.501144 0)
(1.74603 -0.487435 0)
(1.73156 -0.473732 0)
(1.71727 -0.46053 0)
(1.70317 -0.448122 0)
(1.68926 -0.436686 0)
(1.67549 -0.426318 0)
(1.66184 -0.417059 0)
(1.64824 -0.408915 0)
(1.63463 -0.401868 0)
(1.62097 -0.395888 0)
(1.60716 -0.390929 0)
(1.59315 -0.386931 0)
(1.57886 -0.383823 0)
(1.56421 -0.381545 0)
(1.54906 -0.380098 0)
(1.53326 -0.379547 0)
(1.51663 -0.379998 0)
(1.49901 -0.38151 0)
(1.48033 -0.383959 0)
(1.46065 -0.386903 0)
(1.44023 -0.389498 0)
(1.41954 -0.390545 0)
(1.39907 -0.38867 0)
(1.37943 -0.382492 0)
(1.43505 -0.285637 0)
(1.49791 -0.290836 0)
(1.56629 -0.294673 0)
(1.63651 -0.299672 0)
(1.70603 -0.307527 0)
(1.77284 -0.318953 0)
(1.83626 -0.335461 0)
(1.8939 -0.357737 0)
(1.94465 -0.386223 0)
(1.98524 -0.42023 0)
(2.01251 -0.456821 0)
(2.02606 -0.493388 0)
(2.02573 -0.529325 0)
(2.01433 -0.562179 0)
(1.99394 -0.589925 0)
(1.96497 -0.610908 0)
(1.93044 -0.624845 0)
(1.89227 -0.632511 0)
(1.85232 -0.634754 0)
(1.8121 -0.63234 0)
(1.77285 -0.626172 0)
(1.73514 -0.617162 0)
(1.69927 -0.606041 0)
(1.66534 -0.593326 0)
(1.63331 -0.579428 0)
(1.60304 -0.564668 0)
(1.57438 -0.549282 0)
(1.54713 -0.533424 0)
(1.5211 -0.517181 0)
(1.49612 -0.500593 0)
(1.47204 -0.483657 0)
(1.44871 -0.466336 0)
(1.42603 -0.448566 0)
(1.40392 -0.430268 0)
(1.38233 -0.411355 0)
(1.36127 -0.39169 0)
(1.34077 -0.371097 0)
(1.32089 -0.349433 0)
(1.30156 -0.326677 0)
(1.2828 -0.30285 0)
(1.26516 -0.27759 0)
(1.24983 -0.249833 0)
(1.23719 -0.219247 0)
(1.22438 -0.187921 0)
(1.20353 -0.161946 0)
(1.16518 -0.148727 0)
(1.10598 -0.151064 0)
(1.03568 -0.161686 0)
(0.974286 -0.166301 0)
(0.932333 -0.156212 0)
(0.916749 -0.123537 0)
(0.927608 -0.0732118 0)
(0.96841 -0.009492 0)
(1.02381 0.0613963 0)
(1.08418 0.131361 0)
(1.14423 0.194811 0)
(1.20169 0.251242 0)
(1.25523 0.300855 0)
(1.30431 0.343676 0)
(1.34864 0.379827 0)
(1.38809 0.409736 0)
(1.42268 0.434074 0)
(1.45262 0.45362 0)
(1.47831 0.469163 0)
(1.50021 0.481455 0)
(1.51884 0.491195 0)
(1.53469 0.499048 0)
(1.5482 0.505702 0)
(1.55973 0.511948 0)
(1.56956 0.518711 0)
(1.5778 0.52689 0)
(1.58452 0.537354 0)
(1.59002 0.551087 0)
(1.59477 0.568649 0)
(1.5995 0.589706 0)
(1.60523 0.612715 0)
(1.61265 0.634907 0)
(1.62195 0.65395 0)
(1.63297 0.667889 0)
(1.64652 0.674242 0)
(1.66312 0.669035 0)
(1.6831 0.648514 0)
(1.70583 0.60937 0)
(1.73018 0.550688 0)
(1.75529 0.473323 0)
(1.78048 0.379367 0)
(1.80509 0.272211 0)
(1.82841 0.156793 0)
(1.84933 0.0404585 0)
(1.86699 -0.0708796 0)
(1.88089 -0.173049 0)
(1.89065 -0.262975 0)
(1.89609 -0.338821 0)
(1.8973 -0.399974 0)
(1.89457 -0.446843 0)
(1.88844 -0.48062 0)
(1.87952 -0.502923 0)
(1.86806 -0.515381 0)
(1.85396 -0.51905 0)
(1.83827 -0.515624 0)
(1.82141 -0.507397 0)
(1.80401 -0.496114 0)
(1.78652 -0.483162 0)
(1.76928 -0.469638 0)
(1.75242 -0.456239 0)
(1.73595 -0.443369 0)
(1.71987 -0.431284 0)
(1.70416 -0.420134 0)
(1.68875 -0.410001 0)
(1.6736 -0.400913 0)
(1.65862 -0.392869 0)
(1.64375 -0.385845 0)
(1.62892 -0.379809 0)
(1.61405 -0.374713 0)
(1.59905 -0.370496 0)
(1.58388 -0.367079 0)
(1.56843 -0.364379 0)
(1.5526 -0.362359 0)
(1.53626 -0.361049 0)
(1.51922 -0.360544 0)
(1.5013 -0.360949 0)
(1.48239 -0.362258 0)
(1.46248 -0.364214 0)
(1.44177 -0.366185 0)
(1.42066 -0.367153 0)
(1.39971 -0.365854 0)
(1.37948 -0.360932 0)
(1.85802 -0.331925 0)
(1.88306 -0.337729 0)
(1.91062 -0.342198 0)
(1.93934 -0.347331 0)
(1.9679 -0.354349 0)
(1.99532 -0.363566 0)
(2.02066 -0.376494 0)
(2.04206 -0.393312 0)
(2.05782 -0.41314 0)
(2.06635 -0.436281 0)
(2.06616 -0.461717 0)
(2.06031 -0.488161 0)
(2.04741 -0.514005 0)
(2.02622 -0.537777 0)
(1.9988 -0.55756 0)
(1.96641 -0.572464 0)
(1.93066 -0.582767 0)
(1.89308 -0.588698 0)
(1.85487 -0.590543 0)
(1.81709 -0.588809 0)
(1.7803 -0.584101 0)
(1.74489 -0.576955 0)
(1.71106 -0.567826 0)
(1.67886 -0.557105 0)
(1.64826 -0.545122 0)
(1.61917 -0.532138 0)
(1.59146 -0.518352 0)
(1.56501 -0.503906 0)
(1.53967 -0.488896 0)
(1.51531 -0.473376 0)
(1.49182 -0.457366 0)
(1.46911 -0.440856 0)
(1.44708 -0.423812 0)
(1.4257 -0.406176 0)
(1.40491 -0.387882 0)
(1.38473 -0.368854 0)
(1.36517 -0.348993 0)
(1.34632 -0.328196 0)
(1.32829 -0.306324 0)
(1.31115 -0.283227 0)
(1.29486 -0.258877 0)
(1.27956 -0.2334 0)
(1.26617 -0.206693 0)
(1.25583 -0.178127 0)
(1.24795 -0.147648 0)
(1.23846 -0.11838 0)
(1.21865 -0.0964677 0)
(1.18058 -0.0867473 0)
(1.12407 -0.0889102 0)
(1.06125 -0.0955789 0)
(1.01011 -0.0957427 0)
(0.978253 -0.083409 0)
(0.971211 -0.0490454 0)
(0.98942 0.00126832 0)
(1.03562 0.0619296 0)
(1.0921 0.126691 0)
(1.15092 0.187827 0)
(1.20797 0.241955 0)
(1.26118 0.289202 0)
(1.30975 0.330285 0)
(1.35351 0.365588 0)
(1.39254 0.395371 0)
(1.42699 0.42005 0)
(1.45709 0.440215 0)
(1.4832 0.456559 0)
(1.50574 0.469801 0)
(1.52518 0.480664 0)
(1.54194 0.489913 0)
(1.55637 0.498423 0)
(1.56878 0.507202 0)
(1.57941 0.51722 0)
(1.58845 0.529225 0)
(1.59638 0.543945 0)
(1.60389 0.561686 0)
(1.61184 0.581943 0)
(1.62112 0.60325 0)
(1.63225 0.623294 0)
(1.64545 0.64004 0)
(1.66119 0.651364 0)
(1.67998 0.654248 0)
(1.70203 0.645355 0)
(1.72737 0.621428 0)
(1.75526 0.57996 0)
(1.78455 0.520139 0)
(1.81417 0.442666 0)
(1.84326 0.349492 0)
(1.871 0.243926 0)
(1.89644 0.131214 0)
(1.91827 0.0187228 0)
(1.93572 -0.0881121 0)
(1.94833 -0.185292 0)
(1.95584 -0.269986 0)
(1.95824 -0.34066 0)
(1.95583 -0.396968 0)
(1.94913 -0.439548 0)
(1.93886 -0.469696 0)
(1.92562 -0.488946 0)
(1.90942 -0.498591 0)
(1.8911 -0.499905 0)
(1.87148 -0.495116 0)
(1.85116 -0.486228 0)
(1.83073 -0.474828 0)
(1.81061 -0.462168 0)
(1.79103 -0.449153 0)
(1.77205 -0.436317 0)
(1.75366 -0.424007 0)
(1.73583 -0.412444 0)
(1.71852 -0.401758 0)
(1.70165 -0.392016 0)
(1.68514 -0.383239 0)
(1.66893 -0.375421 0)
(1.65293 -0.368536 0)
(1.63705 -0.36255 0)
(1.62122 -0.357417 0)
(1.60536 -0.353077 0)
(1.58939 -0.349451 0)
(1.57325 -0.346448 0)
(1.55683 -0.343995 0)
(1.54003 -0.342081 0)
(1.52269 -0.340772 0)
(1.50462 -0.340183 0)
(1.48565 -0.340403 0)
(1.46573 -0.341343 0)
(1.44494 -0.34259 0)
(1.4236 -0.343341 0)
(1.40229 -0.342476 0)
(1.38158 -0.338727 0)
(2.10264 -0.335304 0)
(2.09734 -0.346325 0)
(2.095 -0.353701 0)
(2.09477 -0.360127 0)
(2.09564 -0.367216 0)
(2.09676 -0.375884 0)
(2.09742 -0.38653 0)
(2.09631 -0.399317 0)
(2.0926 -0.414347 0)
(2.08784 -0.431582 0)
(2.07769 -0.450955 0)
(2.06269 -0.471413 0)
(2.04269 -0.490972 0)
(2.0179 -0.508222 0)
(1.98909 -0.522765 0)
(1.95729 -0.534343 0)
(1.92359 -0.54268 0)
(1.88889 -0.547719 0)
(1.85395 -0.54962 0)
(1.81937 -0.54867 0)
(1.78556 -0.545191 0)
(1.7528 -0.539518 0)
(1.72124 -0.531977 0)
(1.69095 -0.522868 0)
(1.66193 -0.512451 0)
(1.63414 -0.500942 0)
(1.60751 -0.488517 0)
(1.58196 -0.475311 0)
(1.5574 -0.46142 0)
(1.53376 -0.446909 0)
(1.51095 -0.431809 0)
(1.4889 -0.416129 0)
(1.46758 -0.399855 0)
(1.44695 -0.382956 0)
(1.42698 -0.365384 0)
(1.40769 -0.347081 0)
(1.3891 -0.327984 0)
(1.37125 -0.30804 0)
(1.35422 -0.287195 0)
(1.33814 -0.265315 0)
(1.32318 -0.24216 0)
(1.3095 -0.217658 0)
(1.29719 -0.192376 0)
(1.28623 -0.166875 0)
(1.27711 -0.140956 0)
(1.27043 -0.113728 0)
(1.26496 -0.0847815 0)
(1.25624 -0.0573253 0)
(1.23657 -0.0374553 0)
(1.20033 -0.0283726 0)
(1.14933 -0.0282622 0)
(1.09625 -0.0301672 0)
(1.05523 -0.0263296 0)
(1.03181 -0.0115187 0)
(1.03035 0.0208136 0)
(1.05349 0.0657152 0)
(1.09887 0.119457 0)
(1.15337 0.176592 0)
(1.20937 0.229976 0)
(1.26296 0.276677 0)
(1.31229 0.316844 0)
(1.35671 0.351383 0)
(1.39624 0.380979 0)
(1.43116 0.406004 0)
(1.46183 0.426876 0)
(1.48863 0.444136 0)
(1.51194 0.458472 0)
(1.53214 0.470721 0)
(1.54962 0.481841 0)
(1.56474 0.492884 0)
(1.57792 0.504829 0)
(1.58952 0.518302 0)
(1.60013 0.533752 0)
(1.61059 0.551308 0)
(1.62176 0.570421 0)
(1.6345 0.589789 0)
(1.6493 0.607447 0)
(1.6666 0.621414 0)
(1.68695 0.629337 0)
(1.71058 0.62843 0)
(1.73767 0.615796 0)
(1.76789 0.588681 0)
(1.80039 0.545176 0)
(1.83402 0.484595 0)
(1.86767 0.407516 0)
(1.90031 0.315805 0)
(1.93098 0.212799 0)
(1.95841 0.103948 0)
(1.9811 -0.00344833 0)
(1.99834 -0.10455 0)
(2.0097 -0.195598 0)
(2.01503 -0.274101 0)
(2.0145 -0.338852 0)
(2.00865 -0.389805 0)
(1.99821 -0.427788 0)
(1.98401 -0.454094 0)
(1.96646 -0.47007 0)
(1.94607 -0.476906 0)
(1.92403 -0.476416 0)
(1.90105 -0.470767 0)
(1.87783 -0.461698 0)
(1.85489 -0.450619 0)
(1.8326 -0.438611 0)
(1.81105 -0.426353 0)
(1.79027 -0.414293 0)
(1.77025 -0.402728 0)
(1.75093 -0.391849 0)
(1.73223 -0.38177 0)
(1.71408 -0.372545 0)
(1.6964 -0.364195 0)
(1.67909 -0.35671 0)
(1.66208 -0.350067 0)
(1.64527 -0.344229 0)
(1.6286 -0.339151 0)
(1.61197 -0.33478 0)
(1.59531 -0.331041 0)
(1.57856 -0.327842 0)
(1.56164 -0.32509 0)
(1.54447 -0.322736 0)
(1.5269 -0.320803 0)
(1.50878 -0.319387 0)
(1.48991 -0.318615 0)
(1.47016 -0.31853 0)
(1.44953 -0.318947 0)
(1.42821 -0.319308 0)
(1.4067 -0.31868 0)
(1.38563 -0.315915 0)
(2.18285 -0.320594 0)
(2.16754 -0.333052 0)
(2.15417 -0.34272 0)
(2.14311 -0.351051 0)
(2.13422 -0.359111 0)
(2.12551 -0.367736 0)
(2.11658 -0.37755 0)
(2.10728 -0.389028 0)
(2.09664 -0.402682 0)
(2.0838 -0.417888 0)
(2.06827 -0.43358 0)
(2.04965 -0.44908 0)
(2.02774 -0.463899 0)
(2.0028 -0.477521 0)
(1.97538 -0.489385 0)
(1.9461 -0.499003 0)
(1.91553 -0.506091 0)
(1.88421 -0.51058 0)
(1.8526 -0.512534 0)
(1.82118 -0.512094 0)
(1.79022 -0.509448 0)
(1.75996 -0.504822 0)
(1.73055 -0.498456 0)
(1.70208 -0.490578 0)
(1.67459 -0.481394 0)
(1.64808 -0.471088 0)
(1.62253 -0.459811 0)
(1.59792 -0.447688 0)
(1.57418 -0.434812 0)
(1.55129 -0.421248 0)
(1.5292 -0.407036 0)
(1.50787 -0.392197 0)
(1.48727 -0.376729 0)
(1.46739 -0.360616 0)
(1.44824 -0.343833 0)
(1.42981 -0.326342 0)
(1.41214 -0.308099 0)
(1.39529 -0.289057 0)
(1.37929 -0.269157 0)
(1.36423 -0.248371 0)
(1.35023 -0.226717 0)
(1.33754 -0.204182 0)
(1.32637 -0.1806 0)
(1.31669 -0.155878 0)
(1.30834 -0.130509 0)
(1.30118 -0.105101 0)
(1.29544 -0.0794316 0)
(1.2913 -0.0525517 0)
(1.28712 -0.0243857 0)
(1.2783 0.00133838 0)
(1.2579 0.0185808 0)
(1.2225 0.0256686 0)
(1.17625 0.026116 0)
(1.13259 0.0267942 0)
(1.10101 0.0329722 0)
(1.08531 0.0500252 0)
(1.08743 0.0798113 0)
(1.11108 0.118418 0)
(1.15352 0.164299 0)
(1.20478 0.213723 0)
(1.25778 0.260643 0)
(1.30836 0.301754 0)
(1.35464 0.336814 0)
(1.39596 0.366528 0)
(1.43239 0.391831 0)
(1.46423 0.413357 0)
(1.49198 0.431697 0)
(1.51613 0.447585 0)
(1.5371 0.461871 0)
(1.55536 0.475512 0)
(1.57149 0.489452 0)
(1.5861 0.504316 0)
(1.59981 0.520321 0)
(1.61347 0.537439 0)
(1.62801 0.55515 0)
(1.64428 0.572313 0)
(1.66292 0.58723 0)
(1.68442 0.597877 0)
(1.70916 0.602032 0)
(1.7374 0.597247 0)
(1.76905 0.580968 0)
(1.80361 0.550961 0)
(1.8402 0.505694 0)
(1.8777 0.444623 0)
(1.91496 0.368338 0)
(1.9509 0.278607 0)
(1.98438 0.178871 0)
(2.01363 0.0751699 0)
(2.03711 -0.0260059 0)
(2.05409 -0.120192 0)
(2.06416 -0.204018 0)
(2.0673 -0.275412 0)
(2.06393 -0.333556 0)
(2.05479 -0.378712 0)
(2.04083 -0.411811 0)
(2.02282 -0.434071 0)
(2.00132 -0.446665 0)
(1.97746 -0.451056 0)
(1.95231 -0.449308 0)
(1.92666 -0.443276 0)
(1.90117 -0.434462 0)
(1.87633 -0.424078 0)
(1.85231 -0.412958 0)
(1.82919 -0.401652 0)
(1.80698 -0.390532 0)
(1.78563 -0.379853 0)
(1.76507 -0.369781 0)
(1.74522 -0.360414 0)
(1.72599 -0.351805 0)
(1.70728 -0.34397 0)
(1.68903 -0.336905 0)
(1.67113 -0.330586 0)
(1.6535 -0.324979 0)
(1.63608 -0.320042 0)
(1.61878 -0.315724 0)
(1.60152 -0.311961 0)
(1.58425 -0.308665 0)
(1.56691 -0.305739 0)
(1.54943 -0.303101 0)
(1.53171 -0.300727 0)
(1.51361 -0.298676 0)
(1.49495 -0.297069 0)
(1.47554 -0.296025 0)
(1.45529 -0.295536 0)
(1.43427 -0.295315 0)
(1.4128 -0.294675 0)
(1.39152 -0.292622 0)
(2.20324 -0.299481 0)
(2.18572 -0.313629 0)
(2.16927 -0.325348 0)
(2.1539 -0.335829 0)
(2.13956 -0.345703 0)
(2.1261 -0.355346 0)
(2.11294 -0.36547 0)
(2.09962 -0.376382 0)
(2.0855 -0.38809 0)
(2.06994 -0.40037 0)
(2.05254 -0.412963 0)
(2.03314 -0.425646 0)
(2.01169 -0.437943 0)
(1.98829 -0.449256 0)
(1.96318 -0.459096 0)
(1.93663 -0.46714 0)
(1.90901 -0.473179 0)
(1.88068 -0.477104 0)
(1.852 -0.478911 0)
(1.82328 -0.478675 0)
(1.79477 -0.476516 0)
(1.76669 -0.472582 0)