/*--------------------------------*- C++ -*----------------------------------*\
| =========                 |                                                 |
| \\      /  F ield         | OpenFOAM: The Open Source CFD Toolbox           |
|  \\    /   O peration     | Version:  2206                                  |
|   \\  /    A nd           | Website:  www.openfoam.com                      |
|    \\/     M anipulation  |                                                 |
\*---------------------------------------------------------------------------*/
FoamFile
{
    version     2.0;
    format      ascii;
    arch        "LSB;label=32;scalar=64";
    class       volVectorField;
    location    "19.7001";
    object      ddtCorrDdt0(U);
}
// * * * * * * * * * * * * * * * * * * * * * * * * * * * * * * * * * * * * * //

dimensions      [0 1 -2 0 0 0 0];

internalField   nonuniform List<vector> 
4825
(
(-13.0403 54.5144 0)
(-12.1047 55.0967 0)
(-10.9862 54.6938 0)
(-9.75172 53.6069 0)
(-8.39627 51.8982 0)
(-6.92908 49.652 0)
(-5.36124 46.9624 0)
(-3.70604 43.9312 0)
(-1.97961 40.66 0)
(-0.201409 37.2428 0)
(1.60554 33.7593 0)
(3.41446 30.2689 0)
(5.1942 26.8092 0)
(6.91458 23.4045 0)
(8.55196 20.0654 0)
(10.0888 16.7843 0)
(11.5077 13.5368 0)
(12.7893 10.2869 0)
(13.9287 6.98692 0)
(14.9279 3.57871 0)
(15.6772 0.0118417 0)
(16.2555 -3.72268 0)
(16.6669 -7.66073 0)
(16.8941 -11.7806 0)
(16.9534 -16.0469 0)
(16.8434 -20.3914 0)
(16.5629 -24.7526 0)
(16.1047 -29.0671 0)
(15.458 -33.2704 0)
(14.613 -37.299 0)
(13.5638 -41.089 0)
(12.3104 -44.5754 0)
(10.8603 -47.6921 0)
(9.22948 -50.3717 0)
(7.44277 -52.5487 0)
(5.53352 -54.1607 0)
(3.54341 -55.1321 0)
(1.5321 -55.3321 0)
(-0.439005 -54.852 0)
(-2.3319 -53.7918 0)
(-4.1114 -52.1592 0)
(-5.74268 -49.9844 0)
(-7.19706 -47.3138 0)
(-8.45261 -44.2059 0)
(-9.49353 -40.7298 0)
(-10.3112 -36.9619 0)
(-10.9044 -32.9794 0)
(-11.2792 -28.8593 0)
(-11.4497 -24.671 0)
(-11.4411 -20.4722 0)
(-11.2872 -16.3064 0)
(-11.0248 -12.2152 0)
(-10.7096 -8.20641 0)
(-10.4693 -4.1561 0)
(-10.2837 0.212178 0)
(-9.82384 4.71337 0)
(-9.42722 9.12683 0)
(-8.99604 13.4195 0)
(-8.56289 17.5985 0)
(-8.16255 21.6804 0)
(-7.7956 25.6715 0)
(-7.46185 29.5604 0)
(-7.15989 33.3252 0)
(-6.88566 36.934 0)
(-6.63491 40.3451 0)
(-6.4027 43.5093 0)
(-6.18297 46.3712 0)
(-5.9688 48.8716 0)
(-5.75203 50.9501 0)
(-5.52384 52.5387 0)
(-5.27173 53.5443 0)
(-4.9583 53.779 0)
(-4.57913 53.3151 0)
(-4.1485 52.2883 0)
(-3.65878 50.7034 0)
(-3.10583 48.578 0)
(-2.49176 45.9452 0)
(-1.81957 42.8471 0)
(-1.09356 39.3353 0)
(-0.319795 35.4708 0)
(0.493776 31.3237 0)
(1.33498 26.9656 0)
(2.18752 22.4763 0)
(3.03685 17.9453 0)
(3.84832 13.4626 0)
(4.52214 9.11037 0)
(5.2168 4.95125 0)
(6.38816 0.47737 0)
(7.2382 -4.22682 0)
(8.11155 -8.68373 0)
(8.70401 -12.8892 0)
(9.0492 -16.809 0)
(9.19708 -20.4679 0)
(9.14261 -23.878 0)
(8.88942 -27.0348 0)
(8.45215 -29.9244 0)
(7.84985 -32.5191 0)
(7.10741 -34.7828 0)
(6.25232 -36.6757 0)
(5.31275 -38.1597 0)
(4.31742 -39.2051 0)
(3.29247 -39.749 0)
(2.0328 -39.7177 0)
(1.35945 -39.2282 0)
(0.227137 -38.3705 0)
(-0.78393 -37.1678 0)
(-1.67621 -35.6095 0)
(-2.55932 -33.7183 0)
(-3.37314 -31.5401 0)
(-4.11628 -29.1107 0)
(-4.79026 -26.4639 0)
(-5.39147 -23.6347 0)
(-5.92227 -20.6596 0)
(-6.38661 -17.5744 0)
(-6.79228 -14.4098 0)
(-7.14408 -11.1728 0)
(-7.53245 -7.8157 0)
(-8.09133 -4.1804 0)
(-8.45556 -0.285084 0)
(-8.85878 3.62803 0)
(-9.19215 7.54319 0)
(-9.43224 11.4011 0)
(-9.60104 15.149 0)
(-9.70014 18.7451 0)
(-9.72736 22.145 0)
(-9.68177 25.3034 0)
(-9.56008 28.1718 0)
(-9.35728 30.703 0)
(-9.06266 32.8298 0)
(-8.67974 34.5488 0)
(-8.12641 35.547 0)
(-7.40255 36.0233 0)
(-6.54359 35.7393 0)
(-5.55553 35.1954 0)
(-4.53944 34.0093 0)
(-3.24012 32.2346 0)
(-2.32947 30.8186 0)
(-0.349163 27.1329 0)
(-13.3525 53.4629 0)
(-12.1785 53.8047 0)
(-10.8475 53.2645 0)
(-9.40753 52.0432 0)
(-7.85986 50.2113 0)
(-6.21392 47.8533 0)
(-4.48213 45.0662 0)
(-2.6781 41.9539 0)
(-0.817582 38.6209 0)
(1.08126 35.1655 0)
(2.99704 31.6703 0)
(4.90498 28.1983 0)
(6.77811 24.7912 0)
(8.58893 21.4701 0)
(10.3124 18.2392 0)
(11.9251 15.0881 0)
(13.401 11.9929 0)
(14.7105 8.9181 0)
(15.8371 5.81798 0)
(16.7617 2.63478 0)
(17.4306 -0.696085 0)
(17.9238 -4.21978 0)
(18.2241 -7.95796 0)
(18.338 -11.8827 0)
(18.2726 -15.9471 0)
(18.0345 -20.1021 0)
(17.6215 -24.2687 0)
(17.0321 -28.3789 0)
(16.2593 -32.368 0)
(15.295 -36.1741 0)
(14.1336 -39.738 0)
(12.7749 -43.0018 0)
(11.2252 -45.9083 0)
(9.49892 -48.3997 0)
(7.61917 -50.4204 0)
(5.61647 -51.9159 0)
(3.52998 -52.8233 0)
(1.41873 -53.0371 0)
(-0.655724 -52.6184 0)
(-2.65592 -51.6621 0)
(-4.54843 -50.1735 0)
(-6.29848 -48.1785 0)
(-7.87596 -45.717 0)
(-9.25801 -42.8409 0)
(-10.4289 -39.6133 0)
(-11.3807 -36.1008 0)
(-12.1135 -32.3677 0)
(-12.636 -28.4759 0)
(-12.9638 -24.4843 0)
(-13.1252 -20.4559 0)
(-13.1488 -16.44 0)
(-13.0571 -12.4472 0)
(-12.8977 -8.4566 0)
(-12.7712 -4.38281 0)
(-12.6694 -0.0723234 0)
(-12.3279 4.33433 0)
(-12.0214 8.68772 0)
(-11.6629 12.9613 0)
(-11.2757 17.1496 0)
(-10.8948 21.2541 0)
(-10.5255 25.2697 0)
(-10.1678 29.1826 0)
(-9.82102 32.9693 0)
(-9.4816 36.596 0)
(-9.14483 40.0194 0)
(-8.80496 43.189 0)
(-8.45518 46.049 0)
(-8.08846 48.5391 0)
(-7.6975 50.5966 0)
(-7.27408 52.1537 0)
(-6.80435 53.1067 0)
(-6.24734 53.247 0)
(-5.61667 52.7247 0)
(-4.9299 51.6302 0)
(-4.18332 49.9764 0)
(-3.37636 47.7854 0)
(-2.51457 45.0891 0)
(-1.6041 41.9329 0)
(-0.651754 38.3725 0)
(0.33426 34.4683 0)
(1.34231 30.2909 0)
(2.35965 25.9218 0)
(3.37209 21.445 0)
(4.35827 16.9469 0)
(5.26585 12.5175 0)
(6.07885 8.21774 0)
(7.18146 3.92148 0)
(8.2879 -0.76678 0)
(9.26257 -5.24785 0)
(10.137 -9.47336 0)
(10.7534 -13.4363 0)
(11.1352 -17.1129 0)
(11.2918 -20.5259 0)
(11.2174 -23.6929 0)
(10.9169 -26.6179 0)
(10.4044 -29.294 0)
(9.70028 -31.7022 0)
(8.83214 -33.8127 0)
(7.83103 -35.5892 0)
(6.72998 -36.9885 0)
(5.56267 -37.9633 0)
(4.3462 -38.4421 0)
(3.09135 -38.4426 0)
(1.84075 -38.0063 0)
(0.636886 -37.1545 0)
(-0.497324 -35.9893 0)
(-1.60336 -34.4987 0)
(-2.65047 -32.6842 0)
(-3.62628 -30.5823 0)
(-4.52609 -28.2319 0)
(-5.34966 -25.6662 0)
(-6.09384 -22.9189 0)
(-6.76158 -20.0255 0)
(-7.35887 -17.0133 0)
(-7.88906 -13.8975 0)
(-8.37817 -10.6731 0)
(-8.93218 -7.27119 0)
(-9.53414 -3.60554 0)
(-9.96792 0.20457 0)
(-10.4033 4.03529 0)
(-10.7394 7.86172 0)
(-10.9753 11.627 0)
(-11.1232 15.2835 0)
(-11.1808 18.7882 0)
(-11.1461 22.0955 0)
(-11.0184 25.1592 0)
(-10.7952 27.9283 0)
(-10.472 30.3528 0)
(-10.0377 32.3603 0)
(-9.4868 33.9397 0)
(-8.72034 34.7102 0)
(-7.785 35.0019 0)
(-6.73004 34.6131 0)
(-5.52441 33.9288 0)
(-4.30827 32.6395 0)
(-2.79636 30.7899 0)
(-1.75259 29.3399 0)
(0.460595 25.6215 0)
(-13.5041 52.147 0)
(-12.0913 52.2648 0)
(-10.5516 51.5997 0)
(-8.90949 50.2591 0)
(-7.17382 48.3201 0)
(-5.35696 45.868 0)
(-3.47206 43.0013 0)
(-1.53286 39.8259 0)
(0.445493 36.4482 0)
(2.4461 32.9689 0)
(4.45031 29.4746 0)
(6.43721 26.0309 0)
(8.38438 22.6806 0)
(10.2687 19.4455 0)
(12.0644 16.3297 0)
(13.7383 13.3251 0)
(15.2489 10.4129 0)
(16.5569 7.55901 0)
(17.6432 4.70779 0)
(18.4789 1.78038 0)
(19.0822 -1.30278 0)
(19.4753 -4.60084 0)
(19.6575 -8.12205 0)
(19.643 -11.84 0)
(19.4441 -15.7068 0)
(19.0654 -19.6581 0)
(18.5124 -23.6303 0)
(17.7837 -27.5414 0)
(16.8778 -31.324 0)
(15.7894 -34.9174 0)
(14.5149 -38.2658 0)
(13.0541 -41.3173 0)
(11.4128 -44.0222 0)
(9.6045 -46.3321 0)
(7.6509 -48.1999 0)
(5.57883 -49.5791 0)
(3.42111 -50.4188 0)
(1.2358 -50.6455 0)
(-0.910126 -50.2866 0)
(-2.98169 -49.4273 0)
(-4.95445 -48.0753 0)
(-6.79611 -46.2553 0)
(-8.47603 -43.9992 0)
(-9.97253 -41.3496 0)
(-11.2711 -38.3568 0)
(-12.3636 -35.0754 0)
(-13.2486 -31.5641 0)
(-13.9348 -27.8916 0)
(-14.4336 -24.1169 0)
(-14.76 -20.2746 0)
(-14.9413 -16.39 0)
(-15.0129 -12.4816 0)
(-15.0142 -8.53543 0)
(-15.0124 -4.48651 0)
(-14.9988 -0.251241 0)
(-14.7694 4.0584 0)
(-14.5482 8.34066 0)
(-14.2616 12.5738 0)
(-13.9274 16.7431 0)
(-13.5756 20.8409 0)
(-13.2115 24.856 0)
(-12.8363 28.7697 0)
(-12.4496 32.5546 0)
(-12.0476 36.1745 0)
(-11.6252 39.585 0)
(-11.1762 42.7343 0)
(-10.6937 45.566 0)
(-10.1709 48.0206 0)
(-9.60153 50.0342 0)
(-8.97829 51.5322 0)
(-8.28229 52.4079 0)
(-7.47205 52.4338 0)
(-6.58861 51.8453 0)
(-5.64419 50.6826 0)
(-4.63921 48.9623 0)
(-3.57778 46.7097 0)
(-2.46898 43.961 0)
(-1.3218 40.7619 0)
(-0.146309 37.1662 0)
(1.04601 33.2399 0)
(2.24213 29.0565 0)
(3.42788 24.6971 0)
(4.58751 20.2498 0)
(5.69583 15.8028 0)
(6.71242 11.4212 0)
(7.76323 7.10094 0)
(9.12733 2.59569 0)
(10.208 -2.02575 0)
(11.2887 -6.30449 0)
(12.1705 -10.304 0)
(12.8054 -14.0084 0)
(13.2004 -17.4186 0)
(13.3457 -20.5614 0)
(13.2364 -23.4593 0)
(12.8779 -26.1257 0)
(12.2846 -28.5626 0)
(11.4781 -30.7585 0)
(10.4865 -32.6893 0)
(9.34186 -34.3226 0)
(8.07831 -35.6192 0)
(6.7276 -36.5251 0)
(5.30759 -36.946 0)
(3.86158 -36.9249 0)
(2.43529 -36.5198 0)
(1.05356 -35.7462 0)
(-0.274027 -34.6353 0)
(-1.54677 -33.1991 0)
(-2.75783 -31.4569 0)
(-3.89493 -29.4396 0)
(-4.95042 -27.1785 0)
(-5.92137 -24.7052 0)
(-6.80696 -22.0511 0)
(-7.61023 -19.2433 0)
(-8.33651 -16.303 0)
(-8.99877 -13.237 0)
(-9.63745 -10.0221 0)
(-10.3291 -6.60067 0)
(-10.9529 -2.96858 0)
(-11.4567 0.731675 0)
(-11.9112 4.46086 0)
(-12.2469 8.17988 0)
(-12.4719 11.8336 0)
(-12.5899 15.3779 0)
(-12.5974 18.769 0)
(-12.493 21.9615 0)
(-12.2765 24.9086 0)
(-11.9459 27.5574 0)
(-11.4976 29.8538 0)
(-10.9178 31.7147 0)
(-10.1714 33.0826 0)
(-9.19415 33.6585 0)
(-8.04118 33.7414 0)
(-6.79259 33.2617 0)
(-5.36351 32.4185 0)
(-3.95136 31.0442 0)
(-2.23756 29.1552 0)
(-1.0676 27.683 0)
(1.37755 23.9381 0)
(-13.4785 50.5485 0)
(-11.8348 50.4872 0)
(-10.0888 49.704 0)
(-8.24957 48.2598 0)
(-6.33349 46.2321 0)
(-4.35594 43.7067 0)
(-2.3306 40.7821 0)
(-0.27116 37.5647 0)
(1.80835 34.1624 0)
(3.89294 30.6772 0)
(5.96698 27.1971 0)
(8.01411 23.7891 0)
(10.0176 20.4982 0)
(11.9574 17.3495 0)
(13.8036 14.3555 0)
(15.5099 11.5206 0)
(17.0228 8.83284 0)
(18.302 6.24293 0)
(19.3189 3.66649 0)
(20.091 1.01242 0)
(20.6223 -1.81171 0)
(20.9127 -4.86043 0)
(20.9738 -8.1449 0)
(20.823 -11.6427 0)
(20.4782 -15.3034 0)
(19.9525 -19.058 0)
(19.2519 -22.8305 0)
(18.3804 -26.548 0)
(17.3379 -30.1337 0)
(16.1237 -33.5264 0)
(14.7365 -36.6728 0)
(13.1768 -39.5256 0)
(11.4504 -42.0427 0)
(9.57043 -44.1845 0)
(7.55812 -45.9119 0)
(5.43828 -47.1829 0)
(3.22758 -47.9406 0)
(0.98277 -48.1811 0)
(-1.20273 -47.9006 0)
(-3.30931 -47.1318 0)
(-5.34495 -45.9022 0)
(-7.27344 -44.238 0)
(-9.05445 -42.1597 0)
(-10.6664 -39.7041 0)
(-12.0935 -36.9218 0)
(-13.3261 -33.8724 0)
(-14.3574 -30.6034 0)
(-15.1887 -27.1561 0)
(-15.8355 -23.5734 0)
(-16.3198 -19.8949 0)
(-16.6655 -16.1477 0)
(-16.8997 -12.3415 0)
(-17.0543 -8.46198 0)
(-17.1768 -4.46562 0)
(-17.2526 -0.318465 0)
(-17.1334 3.88688 0)
(-16.9969 8.08502 0)
(-16.781 12.2575 0)
(-16.501 16.3839 0)
(-16.1811 20.4501 0)
(-15.8257 24.439 0)
(-15.4358 28.3272 0)
(-15.0105 32.0838 0)
(-14.5458 35.6702 0)
(-14.036 39.0405 0)
(-13.4749 42.1427 0)
(-12.856 44.9196 0)
(-12.1734 47.3117 0)
(-11.4221 49.2565 0)
(-10.5955 50.6736 0)
(-9.66334 51.4228 0)
(-8.60081 51.3431 0)
(-7.46818 50.6809 0)
(-6.26998 49.4477 0)
(-5.01079 47.6634 0)
(-3.69998 45.3563 0)
(-2.34836 42.5638 0)
(-0.968975 39.3323 0)
(0.424668 35.7203 0)
(1.81787 31.7935 0)
(3.19567 27.6258 0)
(4.54308 23.3012 0)
(5.84352 18.9064 0)
(7.06817 14.5126 0)
(8.23116 10.1536 0)
(9.59198 5.73771 0)
(10.985 1.10723 0)
(12.181 -3.31119 0)
(13.301 -7.39348 0)
(14.1877 -11.1582 0)
(14.8322 -14.5926 0)
(15.2216 -17.7173 0)
(15.3385 -20.5654 0)
(15.1775 -23.1686 0)
(14.7441 -25.5512 0)
(14.0539 -27.7251 0)
(13.1314 -29.6869 0)
(12.0077 -31.4188 0)
(10.7173 -32.8901 0)
(9.29511 -34.0591 0)
(7.76953 -34.8733 0)
(6.16684 -35.2296 0)
(4.55426 -35.2185 0)
(2.96369 -34.8485 0)
(1.41188 -34.1295 0)
(-0.0895382 -33.0778 0)
(-1.53052 -31.7113 0)
(-2.90151 -30.0516 0)
(-4.19229 -28.1246 0)
(-5.39607 -25.9598 0)
(-6.50943 -23.5858 0)
(-7.53239 -21.0283 0)
(-8.46847 -18.3098 0)
(-9.32749 -15.4431 0)
(-10.1266 -12.4231 0)
(-10.9128 -9.22572 0)
(-11.7128 -5.8299 0)
(-12.3413 -2.28903 0)
(-12.9097 1.28928 0)
(-13.3715 4.89902 0)
(-13.7024 8.49005 0)
(-13.9083 12.012 0)
(-13.9872 15.4225 0)
(-13.9358 18.678 0)
(-13.7537 21.7342 0)
(-13.4415 24.5442 0)
(-12.9982 27.0526 0)
(-12.4204 29.1986 0)
(-11.6854 30.8781 0)
(-10.7224 31.9741 0)
(-9.54206 32.3907 0)
(-8.15991 32.239 0)
(-6.7234 31.6841 0)
(-5.06655 30.6631 0)
(-3.47145 29.2326 0)
(-1.57047 27.3348 0)
(-0.280128 25.8464 0)
(2.3954 22.0817 0)
(-13.2684 48.6772 0)
(-11.4048 48.4755 0)
(-9.45474 47.5829 0)
(-7.42608 46.0531 0)
(-5.33992 43.9589 0)
(-3.21416 41.384 0)
(-1.06298 38.4253 0)
(1.10017 35.1886 0)
(3.26332 31.7821 0)
(5.41427 28.3082 0)
(7.5421 24.8555 0)
(9.6352 21.4913 0)
(11.681 18.2637 0)
(13.6583 15.2072 0)
(15.5275 12.3542 0)
(17.2287 9.72415 0)
(18.6881 7.28609 0)
(19.9075 4.98004 0)
(20.8796 2.69567 0)
(21.5925 0.323114 0)
(22.0438 -2.2212 0)
(22.233 -4.99465 0)
(22.1712 -8.02123 0)
(21.8804 -11.284 0)
(21.3852 -14.7306 0)
(20.7058 -18.2866 0)
(19.8548 -21.8686 0)
(18.8381 -25.3965 0)
(17.6591 -28.7963 0)
(16.3197 -32.0035 0)
(14.8214 -34.9652 0)
(13.167 -37.6366 0)
(11.3627 -39.9829 0)
(9.41841 -41.97 0)
(7.35528 -43.5661 0)
(5.21429 -44.7331 0)
(2.89568 -45.3938 0)
(0.72526 -45.7017 0)
(-1.50488 -45.5148 0)
(-3.68976 -44.7727 0)
(-5.78443 -43.6208 0)
(-7.80314 -42.0891 0)
(-9.67583 -40.1845 0)
(-11.3866 -37.9357 0)
(-12.919 -35.3782 0)
(-14.2615 -32.547 0)
(-15.4147 -29.4874 0)
(-16.3836 -26.2416 0)
(-17.1797 -22.8487 0)
(-17.8195 -19.3389 0)
(-18.3222 -15.7311 0)
(-18.7098 -12.0331 0)
(-19.0098 -8.23608 0)
(-19.255 -4.31679 0)
(-19.4189 -0.274057 0)
(-19.4062 3.81665 0)
(-19.3513 7.91778 0)
(-19.2025 12.0114 0)
(-18.9744 16.0729 0)
(-18.6852 20.0828 0)
(-18.3375 24.0193 0)
(-17.9316 27.8548 0)
(-17.4655 31.5554 0)
(-16.9351 35.0805 0)
(-16.3347 38.3828 0)
(-15.6583 41.4096 0)
(-14.9003 44.105 0)
(-14.056 46.4107 0)
(-13.1219 48.26 0)
(-12.091 49.5691 0)
(-10.9189 50.1608 0)
(-9.61023 49.9837 0)
(-8.23082 49.236 0)
(-6.78115 47.9282 0)
(-5.26947 46.0811 0)
(-3.71184 43.7265 0)
(-2.12668 40.9024 0)
(-0.529996 37.6568 0)
(1.0625 34.0472 0)
(2.63541 30.1395 0)
(4.17496 26.0077 0)
(5.66812 21.7353 0)
(7.09973 17.4003 0)
(8.45481 13.0515 0)
(9.85609 8.67383 0)
(11.4759 4.14002 0)
(12.8294 -0.432141 0)
(14.1559 -4.63967 0)
(15.2906 -8.51255 0)
(16.1839 -12.0234 0)
(16.8262 -15.1705 0)
(17.1922 -17.9861 0)
(17.264 -20.5127 0)
(17.0355 -22.794 0)
(16.5118 -24.8675 0)
(15.71 -26.7569 0)
(14.6581 -28.4668 0)
(13.3902 -29.9835 0)
(11.9449 -31.281 0)
(10.3586 -32.318 0)
(8.65686 -33.0175 0)
(6.89267 -33.3416 0)
(5.12844 -33.3367 0)
(3.38367 -32.9967 0)
(1.67461 -32.3264 0)
(0.016306 -31.3377 0)
(-1.57816 -30.047 0)
(-3.09734 -28.4747 0)
(-4.53152 -26.6443 0)
(-5.87429 -24.5821 0)
(-7.12273 -22.312 0)
(-8.27737 -19.8549 0)
(-9.34484 -17.2269 0)
(-10.3365 -14.4315 0)
(-11.2751 -11.4599 0)
(-12.1957 -8.30184 0)
(-13.0341 -4.98289 0)
(-13.7147 -1.58086 0)
(-14.3132 1.86812 0)
(-14.7732 5.33964 0)
(-15.0919 8.78218 0)
(-15.2684 12.1517 0)
(-15.2982 15.4069 0)
(-15.1791 18.5058 0)
(-14.9118 21.4057 0)
(-14.4985 24.06 0)
(-13.9397 26.4092 0)
(-13.2282 28.3784 0)
(-12.3187 29.8354 0)
(-11.1203 30.6224 0)
(-9.73244 30.8634 0)
(-8.1266 30.5147 0)
(-6.49471 29.8743 0)
(-4.61541 28.6773 0)
(-2.86472 27.2281 0)
(-0.795943 25.3475 0)
(0.601826 23.8389 0)
(3.48995 20.0454 0)
(-12.8693 46.5512 0)
(-10.7959 46.2284 0)
(-8.65018 45.2451 0)
(-6.44349 43.6515 0)
(-4.20035 41.5149 0)
(-1.94062 38.916 0)
(0.320688 35.9486 0)
(2.57078 32.7169 0)
(4.8 29.3274 0)
(6.99994 25.881 0)
(9.16552 22.466 0)
(11.2901 19.1516 0)
(13.3639 15.9947 0)
(15.3601 13.0502 0)
(17.2172 10.3711 0)
(18.8414 7.96531 0)
(20.2574 5.81288 0)
(21.4203 3.78973 0)
(22.3228 1.78698 0)
(22.9627 -0.291375 0)
(23.3311 -2.53057 0)
(23.4213 -5.00199 0)
(23.2397 -7.74823 0)
(22.8107 -10.7621 0)
(22.1658 -13.9877 0)
(21.332 -17.3432 0)
(20.3292 -20.7389 0)
(19.1684 -24.0873 0)
(17.8553 -27.3114 0)
(16.3934 -30.3461 0)
(14.7847 -33.1398 0)
(13.0378 -35.6493 0)
(11.1551 -37.8414 0)
(9.13777 -39.6922 0)
(7.0391 -41.172 0)
(4.89328 -42.2589 0)
(2.29373 -42.9545 0)
(0.927907 -43.1863 0)
(-2.10157 -42.9408 0)
(-4.19621 -42.2948 0)
(-6.32672 -41.2866 0)
(-8.40503 -39.8965 0)
(-10.3291 -38.1505 0)
(-12.1052 -36.0783 0)
(-13.7225 -33.7094 0)
(-15.1682 -31.0791 0)
(-16.4393 -28.223 0)
(-17.5383 -25.1741 0)
(-18.4728 -21.9626 0)
(-19.2574 -18.6141 0)
(-19.9083 -15.145 0)
(-20.4411 -11.5624 0)
(-20.8758 -7.86457 0)
(-21.2373 -4.04504 0)
(-21.4843 -0.123343 0)
(-21.5707 3.84208 0)
(-21.5913 7.83376 0)
(-21.5037 11.831 0)
(-21.322 15.8058 0)
(-21.0582 19.735 0)
(-20.7131 23.5929 0)
(-20.2858 27.3484 0)
(-19.7739 30.9652 0)
(-19.1727 34.4009 0)
(-18.477 37.6075 0)
(-17.6814 40.5328 0)
(-16.781 43.1211 0)
(-15.7724 45.3146 0)
(-14.6532 47.0475 0)
(-13.4096 48.2179 0)
(-11.9875 48.6188 0)
(-10.4377 48.3448 0)
(-8.81268 47.5097 0)
(-7.12021 46.1296 0)
(-5.37386 44.2277 0)
(-3.59318 41.8388 0)
(-1.79671 39.0012 0)
(-0.00282511 35.7609 0)
(1.77121 32.1753 0)
(3.50948 28.3086 0)
(5.1975 24.2318 0)
(6.82284 20.0222 0)
(8.3717 15.7399 0)
(9.88816 11.403 0)
(11.5676 6.94949 0)
(13.2305 2.35174 0)
(14.7108 -2.01407 0)
(16.0948 -6.01979 0)
(17.2441 -9.652 0)
(18.1398 -12.8815 0)
(18.7611 -15.7211 0)
(19.0821 -18.208 0)
(19.0882 -20.3917 0)
(18.7736 -22.3277 0)
(18.1428 -24.0652 0)
(17.2161 -25.6453 0)
(16.0261 -27.0862 0)
(14.6079 -28.3801 0)
(13.0008 -29.4989 0)
(11.2416 -30.3811 0)
(9.37824 -30.9758 0)
(7.47555 -31.2842 0)
(5.56968 -31.2868 0)
(3.68139 -30.9769 0)
(1.82914 -30.356 0)
(0.0295377 -29.4327 0)
(-1.70306 -28.2218 0)
(-3.35696 -26.7418 0)
(-4.92222 -25.0123 0)
(-6.39317 -23.056 0)
(-7.7686 -20.8923 0)
(-9.05017 -18.5357 0)
(-10.2464 -15.9953 0)
(-11.3721 -13.2705 0)
(-12.446 -10.3601 0)
(-13.4615 -7.28624 0)
(-14.2979 -4.09303 0)
(-15.0404 -0.843194 0)
(-15.6464 2.45959 0)
(-16.0993 5.77105 0)
(-16.3969 9.04514 0)
(-16.5334 12.2417 0)
(-16.505 15.321 0)
(-16.3107 18.2435 0)
(-15.9527 20.9696 0)
(-15.4354 23.4528 0)
(-14.76 25.6245 0)
(-13.9034 27.3829 0)
(-12.7792 28.5458 0)
(-11.3451 29.0216 0)
(-9.76337 29.0773 0)
(-7.95655 28.5768 0)
(-6.12032 27.8028 0)
(-4.04713 26.5152 0)
(-2.15578 25.0563 0)
(0.0733817 23.2072 0)
(1.57303 21.6711 0)
(4.67574 17.9097 0)
(-12.2778 44.1821 0)
(-10.0123 43.76 0)
(-7.68643 42.7048 0)
(-5.31725 41.0681 0)
(-2.93119 38.9143 0)
(-0.551268 36.3188 0)
(1.8052 33.3713 0)
(4.12547 30.1695 0)
(6.40457 26.8178 0)
(8.63944 23.4148 0)
(10.8277 20.0469 0)
(12.9693 16.7901 0)
(15.0537 13.7182 0)
(17.0339 10.9125 0)
(18.8047 8.42549 0)
(20.3969 6.29454 0)
(21.7461 4.41286 0)
(22.8329 2.67447 0)
(23.6519 0.967922 0)
(24.1977 -0.808513 0)
(24.465 -2.7373 0)
(24.4534 -4.89406 0)
(24.1657 -7.33683 0)
(23.6053 -10.0775 0)
(22.8151 -13.0731 0)
(21.8298 -16.2307 0)
(20.6756 -19.4459 0)
(19.3715 -22.6257 0)
(17.929 -25.6881 0)
(16.3541 -28.5657 0)
(14.6495 -31.2061 0)
(12.8182 -33.5705 0)
(10.8724 -35.6262 0)
(8.81964 -37.3505 0)
(6.6561 -38.7283 0)
(4.45035 -39.7546 0)
(2.12658 -40.4703 0)
(-0.171421 -40.6469 0)
(-2.47833 -40.3391 0)
(-4.69149 -39.8003 0)
(-6.88121 -38.9008 0)
(-8.98868 -37.6318 0)
(-10.9705 -36.0332 0)
(-12.817 -34.1283 0)
(-14.5159 -31.9406 0)
(-16.0564 -29.4982 0)
(-17.4348 -26.8297 0)
(-18.6529 -23.9628 0)
(-19.7166 -20.9225 0)
(-20.636 -17.7299 0)
(-21.4231 -14.4003 0)
(-22.0892 -10.9421 0)
(-22.6469 -7.35962 0)
(-23.1112 -3.66056 0)
(-23.4304 0.124745 0)
(-23.6088 3.95494 0)
(-23.6944 7.82444 0)
(-23.659 11.7075 0)
(-23.5146 15.5743 0)
(-23.2671 19.3989 0)
(-22.9158 23.1521 0)
(-22.4589 26.8007 0)
(-21.8933 30.3062 0)
(-21.2145 33.6252 0)
(-20.418 36.7094 0)
(-19.4994 39.5066 0)
(-18.4554 41.9633 0)
(-17.284 44.023 0)
(-15.9791 45.6095 0)
(-14.5119 46.6026 0)
(-12.8434 46.8054 0)
(-11.0743 46.4375 0)
(-9.22511 45.5195 0)
(-7.31189 44.0751 0)
(-5.35316 42.1299 0)
(-3.37 39.7191 0)
(-1.38183 36.8811 0)
(0.591452 33.6607 0)
(2.53209 30.1144 0)
(4.42537 26.305 0)
(6.25701 22.2972 0)
(8.01387 18.1547 0)
(9.70872 13.912 0)
(11.4713 9.54837 0)
(13.3681 5.01504 0)
(15.0224 0.506198 0)
(16.6204 -3.64912 0)
(18.0133 -7.43967 0)
(19.1567 -10.8063 0)
(20.0327 -13.7276 0)
(20.6099 -16.227 0)
(20.8631 -18.3517 0)
(20.7778 -20.1634 0)
(20.3521 -21.7327 0)
(19.5927 -23.126 0)
(18.5221 -24.3925 0)
(17.1752 -25.5497 0)
(15.5942 -26.5905 0)
(13.8311 -27.5081 0)
(11.928 -28.2582 0)
(9.93896 -28.7938 0)
(7.91059 -29.0766 0)
(5.87399 -29.084 0)
(3.85389 -28.8036 0)
(1.87162 -28.2335 0)
(-0.0552139 -27.3794 0)
(-1.91177 -26.2517 0)
(-3.68628 -24.8668 0)
(-5.37056 -23.2414 0)
(-6.95968 -21.3921 0)
(-8.45455 -19.3334 0)
(-9.85989 -17.0738 0)
(-11.1836 -14.6172 0)
(-12.4382 -11.9715 0)
(-13.6181 -9.15761 0)
(-14.6391 -6.20874 0)
(-15.5345 -3.18242 0)
(-16.2954 -0.0855272 0)
(-16.8978 3.05028 0)
(-17.3352 6.18107 0)
(-17.6002 9.26751 0)
(-17.687 12.2715 0)
(-17.5928 15.156 0)
(-17.3181 17.885 0)
(-16.8667 20.4223 0)
(-16.2444 22.7196 0)
(-15.4461 24.6897 0)
(-14.4029 26.1675 0)
(-13.0348 26.9715 0)
(-11.4244 27.2279 0)
(-9.64733 27.0729 0)
(-7.64369 26.4193 0)
(-5.6111 25.519 0)
(-3.36659 24.1685 0)
(-1.35236 22.7269 0)
(1.03036 20.9134 0)
(2.62577 19.3396 0)
(5.952 15.5917 0)
(-11.4858 41.5946 0)
(-9.04861 41.0907 0)
(-6.56674 39.9845 0)
(-4.06062 38.3265 0)
(-1.55857 36.1778 0)
(0.918298 33.6105 0)
(3.35309 30.7076 0)
(5.73441 27.5618 0)
(8.05307 24.2675 0)
(10.3128 20.9224 0)
(12.5156 17.6141 0)
(14.6624 14.4302 0)
(16.7326 11.4707 0)
(18.6168 8.81726 0)
(20.3458 6.57456 0)
(21.864 4.69153 0)
(23.1359 3.0878 0)
(24.1432 1.65297 0)
(24.8728 0.259336 0)
(25.3059 -1.20095 0)
(25.4363 -2.81508 0)
(25.3048 -4.66341 0)
(24.9115 -6.80352 0)
(24.264 -9.25921 0)
(23.3378 -11.9944 0)
(22.1965 -14.9396 0)
(20.8911 -17.9853 0)
(19.4409 -21.0107 0)
(17.8649 -23.9295 0)
(16.1747 -26.6708 0)
(14.3748 -29.1786 0)
(12.468 -31.4157 0)
(10.4585 -33.3539 0)
(8.35702 -34.9706 0)
(6.17615 -36.2578 0)
(3.92477 -37.2115 0)
(1.60279 -37.8264 0)
(-0.744436 -38.0368 0)
(-3.04523 -37.8345 0)
(-5.28727 -37.3186 0)
(-7.48587 -36.4818 0)
(-9.61344 -35.322 0)
(-11.6371 -33.8569 0)
(-13.5396 -32.1032 0)
(-15.3081 -30.0798 0)
(-16.9324 -27.8089 0)
(-18.4077 -25.314 0)
(-19.7341 -22.6175 0)
(-20.9145 -19.7403 0)
(-21.9557 -16.7006 0)
(-22.8647 -13.5128 0)
(-23.6464 -10.1879 0)
(-24.3104 -6.73707 0)
(-24.8622 -3.1786 0)
(-25.2398 0.456782 0)
(-25.4979 4.14388 0)
(-25.6354 7.87781 0)
(-25.6405 11.6288 0)
(-25.5206 15.3664 0)
(-25.2771 19.0625 0)
(-24.908 22.6858 0)
(-24.4109 26.2011 0)
(-23.7827 29.569 0)
(-23.0204 32.7457 0)
(-22.1207 35.6835 0)
(-21.0798 38.3317 0)
(-19.894 40.6364 0)
(-18.5562 42.5338 0)
(-17.0586 43.9411 0)
(-15.3563 44.7006 0)
(-13.4745 44.7681 0)
(-11.5022 44.2934 0)
(-9.45108 43.2938 0)
(-7.34097 41.7916 0)
(-5.19442 39.8123 0)
(-3.0336 37.3903 0)
(-0.877694 34.5648 0)
(1.25331 31.3773 0)
(3.34172 27.8821 0)
(5.37622 24.1397 0)
(7.34351 20.2019 0)
(9.2377 16.1101 0)
(11.1442 11.8726 0)
(13.1983 7.45088 0)
(15.1228 2.9078 0)
(16.9214 -1.37809 0)
(18.5637 -5.32054 0)
(19.9532 -8.85468 0)
(21.07 -11.9197 0)
(21.8853 -14.5086 0)
(22.3726 -16.6497 0)
(22.5134 -18.3968 0)
(22.2932 -19.8242 0)
(21.7101 -21.0098 0)
(20.7576 -22.0043 0)
(19.5284 -22.9318 0)
(18.0412 -23.811 0)
(16.3339 -24.6378 0)
(14.4474 -25.3865 0)
(12.4256 -26.0151 0)
(10.318 -26.4769 0)
(8.1693 -26.7299 0)
(6.01437 -26.7413 0)
(3.87947 -26.4921 0)
(1.78549 -25.975 0)
(-0.25011 -25.1925 0)
(-2.21302 -24.1521 0)
(-4.09314 -22.8657 0)
(-5.88427 -21.3445 0)
(-7.58348 -19.5987 0)
(-9.1937 -17.6374 0)
(-10.7197 -15.4698 0)
(-12.1654 -13.1091 0)
(-13.5193 -10.5741 0)
(-14.7097 -7.88681 0)
(-15.7778 -5.10977 0)
(-16.7016 -2.24626 0)
(-17.4638 0.678795 0)
(-18.0553 3.6257 0)
(-18.4656 6.55746 0)
(-18.6874 9.43813 0)
(-18.7166 12.2322 0)
(-18.5525 14.9063 0)
(-18.1964 17.4286 0)
(-17.6514 19.7634 0)
(-16.917 21.8533 0)
(-15.9638 23.5762 0)
(-14.6687 24.6661 0)
(-13.1337 25.2114 0)
(-11.3502 25.2226 0)
(-9.37416 24.8436 0)
(-7.18139 24.0452 0)
(-4.9673 23.0392 0)
(-2.58105 21.6653 0)
(-0.466263 20.2649 0)
(2.06919 18.4684 0)
(3.76121 16.8455 0)
(7.31036 13.127 0)
(-10.5086 38.8159 0)
(-7.93164 38.2509 0)
(-5.32363 37.1152 0)
(-2.70745 35.4587 0)
(-0.11223 33.3361 0)
(2.44154 30.8159 0)
(4.93826 27.9757 0)
(7.36715 24.9023 0)
(9.72326 21.6846 0)
(12.0035 18.412 0)
(14.2171 15.1818 0)
(16.3564 12.0989 0)
(18.3407 9.26878 0)
(20.1645 6.82746 0)
(21.8136 4.80697 0)
(23.2402 3.17424 0)
(24.4212 1.85651 0)
(25.3328 0.733091 0)
(25.9627 -0.328927 0)
(26.2567 -1.45236 0)
(26.2709 -2.74631 0)
(26.0108 -4.29909 0)
(25.488 -6.15039 0)
(24.7171 -8.31131 0)
(23.7099 -10.7792 0)
(22.4533 -13.4954 0)
(20.9846 -16.3479 0)
(19.3936 -19.2345 0)
(17.6867 -22.0304 0)
(15.8789 -24.6549 0)
(13.9807 -27.0527 0)
(11.9961 -29.1834 0)
(9.92861 -31.0209 0)
(7.78439 -32.5495 0)
(5.57316 -33.7595 0)
(3.30378 -34.6461 0)
(0.986294 -35.2059 0)
(-1.35262 -35.4214 0)
(-3.66961 -35.293 0)
(-5.93041 -34.8148 0)
(-8.13832 -34.045 0)
(-10.2809 -32.9821 0)
(-12.335 -31.6339 0)
(-14.2824 -30.0145 0)
(-16.1095 -28.1389 0)
(-17.8058 -26.0246 0)
(-19.3657 -23.69 0)
(-20.7865 -21.1533 0)
(-22.0687 -18.4326 0)
(-23.2145 -15.544 0)
(-24.2252 -12.5021 0)
(-25.103 -9.32126 0)
(-25.8524 -6.01777 0)
(-26.4625 -2.61713 0)
(-26.8981 0.857067 0)
(-27.2139 4.3935 0)
(-27.3882 7.97784 0)
(-27.4187 11.5787 0)
(-27.3077 15.1663 0)
(-27.0533 18.711 0)
(-26.6535 22.1801 0)
(-26.1062 25.538 0)
(-25.4099 28.7462 0)
(-24.5617 31.7614 0)
(-23.5564 34.5337 0)
(-22.3852 37.008 0)
(-21.0455 39.1306 0)
(-19.5396 40.8414 0)
(-17.8491 42.0473 0)
(-15.9209 42.5515 0)
(-13.8604 42.5036 0)
(-11.7055 41.9302 0)
(-9.47848 40.8571 0)
(-7.20097 39.3069 0)
(-4.89589 37.3053 0)
(-2.58511 34.883 0)
(-0.287492 32.0793 0)
(1.98062 28.9353 0)
(4.20244 25.4976 0)
(6.36849 21.82 0)
(8.47235 17.9382 0)
(10.5511 13.864 0)
(12.7482 9.5862 0)
(14.9579 5.11275 0)
(16.9663 0.735826 0)
(18.8703 -3.32862 0)
(20.5262 -7.02258 0)
(21.9002 -10.2515 0)
(22.9635 -12.9719 0)
(23.6846 -15.1874 0)
(24.041 -16.9337 0)
(24.0143 -18.2696 0)
(23.5649 -19.2522 0)
(22.7497 -20.0157 0)
(21.6477 -20.6965 0)
(20.2774 -21.3404 0)
(18.6636 -21.9621 0)
(16.8361 -22.5626 0)
(14.8304 -23.1301 0)
(12.691 -23.6334 0)
(10.4692 -24.0259 0)
(8.21288 -24.2552 0)
(5.95887 -24.2771 0)
(3.73239 -24.0645 0)
(1.55125 -23.6058 0)
(-0.570461 -22.8996 0)
(-2.62131 -21.9463 0)
(-4.59245 -20.7515 0)
(-6.47945 -19.3244 0)
(-8.28182 -17.6756 0)
(-10.0039 -15.817 0)
(-11.6403 -13.7582 0)
(-13.1501 -11.5049 0)
(-14.5228 -9.10633 0)
(-15.7662 -6.5988 0)
(-16.8574 -3.98728 0)
(-17.7856 -1.29848 0)
(-18.5399 1.43242 0)
(-19.1076 4.17219 0)
(-19.4787 6.88818 0)
(-19.6483 9.54793 0)
(-19.6152 12.1196 0)
(-19.3806 14.5716 0)
(-18.9437 16.8719 0)
(-18.2989 18.9854 0)
(-17.4236 20.8274 0)
(-16.2194 22.1744 0)
(-14.7621 22.9922 0)
(-13.0686 23.2597 0)
(-11.1132 23.0084 0)
(-8.94128 22.3991 0)
(-6.57342 21.4722 0)
(-4.1997 20.3945 0)
(-1.70887 19.0358 0)
(0.490148 17.6858 0)
(3.18747 15.8618 0)
(4.98239 14.1849 0)
(8.75211 10.5179 0)
(-9.38672 35.8909 0)
(-6.70209 35.2799 0)
(-3.99828 34.1304 0)
(-1.29855 32.4899 0)
(1.37026 30.4094 0)
(3.98664 27.9509 0)
(6.53652 25.1875 0)
(9.00835 22.1981 0)
(11.3972 19.0686 0)
(13.7013 15.8888 0)
(15.9209 12.7656 0)
(18.0042 9.81169 0)
(19.9075 7.16526 0)
(21.6595 4.93428 0)
(23.2067 3.1387 0)
(24.5276 1.76701 0)
(25.5963 0.742132 0)
(26.3925 -0.0607224 0)
(26.8864 -0.779772 0)
(27.0475 -1.56031 0)
(26.9354 -2.5344 0)
(26.546 -3.78917 0)
(25.8975 -5.36108 0)
(25.0053 -7.2508 0)
(23.8809 -9.44094 0)
(22.539 -11.9066 0)
(20.979 -14.5735 0)
(19.2336 -17.3019 0)
(17.4028 -19.9899 0)
(15.4837 -22.5197 0)
(13.4874 -24.8276 0)
(11.4245 -26.8745 0)
(9.29895 -28.6336 0)
(7.11473 -30.0906 0)
(4.87909 -31.2385 0)
(2.60049 -32.075 0)
(0.289309 -32.6008 0)
(-2.03661 -32.8127 0)
(-4.35266 -32.714 0)
(-6.63266 -32.3158 0)
(-8.84992 -31.6022 0)
(-11.0006 -30.6173 0)
(-13.073 -29.3713 0)
(-15.0537 -27.8725 0)
(-16.9277 -26.131 0)
(-18.6834 -24.1598 0)
(-20.3132 -21.9738 0)
(-21.8121 -19.5884 0)
(-23.1767 -17.0196 0)
(-24.4049 -14.2827 0)
(-25.4937 -11.3932 0)
(-26.4428 -8.36803 0)
(-27.2513 -5.22855 0)
(-27.8922 -1.99718 0)
(-28.3819 1.30984 0)
(-28.731 4.68546 0)
(-28.9254 8.10518 0)
(-28.9639 11.5384 0)
(-28.8448 14.956 0)
(-28.5659 18.3279 0)
(-28.1255 21.6229 0)
(-27.5213 24.8068 0)
(-26.7489 27.8381 0)
(-25.7986 30.6658 0)
(-24.666 33.2401 0)
(-23.3572 35.5175 0)
(-21.8742 37.4461 0)
(-20.2071 38.9501 0)
(-18.3087 39.8921 0)
(-16.2047 40.2224 0)
(-13.9893 40.0483 0)
(-11.6824 39.3834 0)
(-9.31068 38.2463 0)
(-6.89849 36.6573 0)
(-4.46651 34.6422 0)
(-2.03304 32.2283 0)
(0.384958 29.4499 0)
(2.77451 26.3495 0)
(5.12472 22.9669 0)
(7.42336 19.3347 0)
(9.69626 15.4733 0)
(12.06 11.3739 0)
(14.5139 7.03031 0)
(16.7671 2.63418 0)
(18.9339 -1.50464 0)
(20.8679 -5.32581 0)
(22.5137 -8.71377 0)
(23.8365 -11.588 0)
(24.7989 -13.9198 0)
(25.3749 -15.7178 0)
(25.5403 -17.019 0)
(25.2264 -17.8599 0)
(24.5384 -18.4211 0)
(23.5474 -18.8552 0)
(22.277 -19.2309 0)
(20.7548 -19.5915 0)
(19.0058 -19.9604 0)
(17.0563 -20.345 0)
(14.9383 -20.7405 0)
(12.6932 -21.1263 0)
(10.3727 -21.4591 0)
(8.02837 -21.6773 0)
(5.69832 -21.722 0)
(3.40391 -21.554 0)
(1.15797 -21.1531 0)
(-1.02861 -20.5133 0)
(-3.14729 -19.6376 0)
(-5.19727 -18.5347 0)
(-7.17881 -17.2111 0)
(-9.08123 -15.6652 0)
(-10.8664 -13.8904 0)
(-12.5415 -11.9448 0)
(-14.0937 -9.85413 0)
(-15.5049 -7.62839 0)
(-16.7638 -5.28403 0)
(-17.8604 -2.8505 0)
(-18.7816 -0.359189 0)
(-19.5131 2.15995 0)
(-20.0428 4.67699 0)
(-20.3635 7.16293 0)
(-20.474 9.5899 0)
(-20.3791 11.9305 0)
(-20.08 14.1538 0)
(-19.5584 16.2192 0)
(-18.7734 18.0535 0)
(-17.6529 19.5195 0)
(-16.2892 20.5911 0)
(-14.6884 21.1472 0)
(-12.8378 21.124 0)
(-10.7145 20.5903 0)
(-8.35584 19.7489 0)
(-5.83151 18.7239 0)
(-3.32545 17.6217 0)
(-0.76963 16.3071 0)
(1.52008 14.9902 0)
(4.39517 13.0742 0)
(6.30891 11.356 0)
(10.2873 7.77443 0)
(-8.16811 32.8534 0)
(-5.40283 32.2095 0)
(-2.63106 31.0599 0)
(0.13166 29.4457 0)
(2.86072 27.415 0)
(5.53354 25.0266 0)
(8.13422 22.3474 0)
(10.651 19.4522 0)
(13.0759 16.4244 0)
(15.4046 13.3652 0)
(17.597 10.3797 0)
(19.5974 7.59751 0)