/*--------------------------------*- C++ -*----------------------------------*\
| =========                 |                                                 |
| \\      /  F ield         | OpenFOAM: The Open Source CFD Toolbox           |
|  \\    /   O peration     | Version:  2206                                  |
|   \\  /    A nd           | Website:  www.openfoam.com                      |
|    \\/     M anipulation  |                                                 |
\*---------------------------------------------------------------------------*/
FoamFile
{
    version     2.0;
    format      ascii;
    arch        "LSB;label=32;scalar=64";
    class       volVectorField;
    location    "19.1001";
    object      U;
}
// * * * * * * * * * * * * * * * * * * * * * * * * * * * * * * * * * * * * * //

dimensions      [0 1 -1 0 0 0 0];

internalField   nonuniform List<vector> 
1865
(
(0.16277 0.0659751 0)
(0.129598 0.143242 0)
(0.20416 0.230292 0)
(0.252721 0.292601 0)
(0.273548 0.325756 0)
(0.291897 0.331359 0)
(0.315501 0.304448 0)
(0.353521 0.237942 0)
(0.413229 0.139685 0)
(0.502226 0.0211653 0)
(0.626288 -0.104004 0)
(0.78515 -0.216905 0)
(0.978413 -0.298879 0)
(1.20003 -0.337845 0)
(1.43875 -0.329459 0)
(1.6843 -0.27039 0)
(1.93472 -0.148331 0)
(2.19236 0.0434464 0)
(2.42619 0.262944 0)
(2.6073 0.45723 0)
(2.72912 0.60518 0)
(2.79421 0.70666 0)
(2.81558 0.771117 0)
(2.80308 0.808292 0)
(2.75762 0.81734 0)
(2.68713 0.798607 0)
(2.59798 0.75931 0)
(2.49603 0.705052 0)
(2.38627 0.640451 0)
(2.27405 0.569722 0)
(2.16664 0.494881 0)
(2.0675 0.418426 0)
(1.96907 0.352602 0)
(1.85517 0.319993 0)
(1.71502 0.333167 0)
(1.55763 0.375724 0)
(1.41216 0.411781 0)
(1.29734 0.417211 0)
(1.21888 0.380369 0)
(1.18745 0.302239 0)
(1.18862 0.195116 0)
(1.23066 0.0686738 0)
(1.29629 -0.063868 0)
(1.37379 -0.187931 0)
(1.45678 -0.296876 0)
(1.54004 -0.387689 0)
(1.62034 -0.459287 0)
(1.69585 -0.512353 0)
(1.76595 -0.548577 0)
(1.83226 -0.569458 0)
(1.89802 -0.575056 0)
(1.96609 -0.564313 0)
(2.04031 -0.535157 0)
(2.12292 -0.48414 0)
(2.21528 -0.408143 0)
(2.31847 -0.304559 0)
(2.43161 -0.174384 0)
(2.54583 -0.0295549 0)
(2.64562 0.10827 0)
(2.72077 0.223762 0)
(2.7664 0.310019 0)
(2.7819 0.371019 0)
(2.77209 0.413295 0)
(2.73387 0.431604 0)
(2.67043 0.421615 0)
(2.58514 0.388553 0)
(2.48378 0.341111 0)
(2.37425 0.290547 0)
(2.26463 0.248372 0)
(2.1589 0.221324 0)
(2.06037 0.211471 0)
(1.97142 0.216151 0)
(1.89345 0.229087 0)
(1.82664 0.242583 0)
(1.77037 0.249453 0)
(1.72352 0.243507 0)
(1.68618 0.219919 0)
(1.65915 0.17822 0)
(1.64217 0.120913 0)
(1.63588 0.0522823 0)
(1.6407 -0.0225556 0)
(1.65625 -0.0981166 0)
(1.68132 -0.169263 0)
(1.71439 -0.232524 0)
(1.75369 -0.285242 0)
(1.79744 -0.32573 0)
(1.84412 -0.353118 0)
(1.89267 -0.367159 0)
(1.94213 -0.36816 0)
(1.9914 -0.35695 0)
(2.03998 -0.334733 0)
(2.08765 -0.302748 0)
(2.13466 -0.261856 0)
(2.18161 -0.21238 0)
(2.22901 -0.15446 0)
(2.27607 -0.08951 0)
(2.31947 -0.0220755 0)
(2.35588 0.0429626 0)
(2.38258 0.101902 0)
(2.39543 0.153349 0)
(2.39797 0.194638 0)
(2.38724 0.224987 0)
(2.35613 0.240444 0)
(2.30746 0.241727 0)
(2.24565 0.233437 0)
(2.17598 0.220348 0)
(2.10587 0.207283 0)
(2.04017 0.196943 0)
(1.98173 0.189533 0)
(1.93194 0.183671 0)
(1.89092 0.177219 0)
(1.85789 0.167667 0)
(1.83193 0.152472 0)
(1.81278 0.13017 0)
(1.79995 0.10058 0)
(1.79294 0.0641482 0)
(1.79165 0.0221716 0)
(1.79601 -0.0234 0)
(1.80577 -0.069823 0)
(-0.0395603 -0.0197084 0)
(-0.099016 0.106401 0)
(-0.102647 0.189509 0)
(-0.102607 0.254934 0)
(-0.0980137 0.295231 0)
(-0.0939063 0.300945 0)
(-0.0895577 0.266859 0)
(-0.0789968 0.189847 0)
(-0.0546387 0.0724395 0)
(-0.00513972 -0.0768804 0)
(0.0841876 -0.239646 0)
(0.220275 -0.391651 0)
(0.402591 -0.510186 0)
(0.627849 -0.576327 0)
(0.885251 -0.579631 0)
(1.15653 -0.5183 0)
(1.42437 -0.393161 0)
(1.68536 -0.203537 0)
(1.93626 0.0360425 0)
(2.15253 0.275323 0)
(2.32255 0.479333 0)
(2.44122 0.63596 0)
(2.51097 0.746991 0)
(2.54013 0.818059 0)
(2.53925 0.854769 0)
(2.50982 0.861745 0)
(2.45663 0.841584 0)
(2.38356 0.800144 0)
(2.29645 0.743542 0)
(2.20397 0.673929 0)
(2.11173 0.595026 0)
(2.01543 0.520157 0)
(1.90083 0.472865 0)
(1.75842 0.469446 0)
(1.60075 0.497553 0)
(1.45612 0.525409 0)
(1.33872 0.528807 0)
(1.25586 0.493049 0)
(1.21632 0.413881 0)
(1.21494 0.297784 0)
(1.25144 0.155586 0)
(1.31323 0.0034858 0)
(1.38969 -0.14253 0)
(1.47355 -0.272839 0)
(1.55907 -0.382898 0)
(1.64142 -0.470699 0)
(1.71716 -0.536491 0)
(1.78425 -0.5823 0)
(1.84205 -0.611422 0)
(1.89178 -0.627827 0)
(1.93695 -0.633302 0)
(1.98164 -0.62629 0)
(2.03105 -0.603572 0)
(2.08909 -0.561423 0)
(2.1572 -0.495476 0)
(2.23607 -0.402064 0)
(2.32539 -0.280244 0)
(2.42222 -0.135429 0)
(2.51637 0.0155768 0)
(2.59631 0.154241 0)
(2.65433 0.270748 0)
(2.68654 0.36203 0)
(2.69457 0.42826 0)
(2.68038 0.470303 0)
(2.64231 0.484275 0)
(2.58329 0.471077 0)
(2.50666 0.43819 0)
(2.41761 0.395257 0)
(2.32269 0.353805 0)
(2.228 0.322861 0)
(2.13743 0.305688 0)
(2.05433 0.300711 0)
(1.9808 0.302771 0)
(1.91762 0.305195 0)
(1.86471 0.301436 0)
(1.82153 0.284919 0)
(1.789 0.25105 0)
(1.76667 0.199104 0)
(1.75426 0.131292 0)
(1.75213 0.0518215 0)
(1.7604 -0.0339804 0)
(1.77831 -0.119485 0)
(1.8044 -0.199109 0)
(1.83692 -0.268979 0)
(1.87377 -0.326272 0)
(1.91289 -0.369509 0)
(1.95278 -0.398415 0)
(1.99296 -0.413239 0)
(2.03309 -0.414288 0)
(2.07214 -0.402333 0)
(2.10983 -0.378987 0)
(2.1463 -0.345908 0)
(2.182 -0.304325 0)
(2.21757 -0.254795 0)
(2.25372 -0.19727 0)
(2.29069 -0.132088 0)
(2.32727 -0.0610716 0)
(2.36012 0.0111775 0)
(2.38599 0.0799271 0)
(2.4034 0.141589 0)
(2.40988 0.194396 0)
(2.40964 0.236887 0)
(2.39575 0.269303 0)
(2.36687 0.287549 0)
(2.32486 0.291973 0)
(2.27176 0.286259 0)
(2.21254 0.274404 0)
(2.1533 0.260243 0)
(2.09813 0.24587 0)
(2.04945 0.231516 0)
(2.00855 0.216281 0)
(1.97565 0.198349 0)
(1.95045 0.175333 0)
(1.93273 0.145983 0)
(1.92159 0.109966 0)
(1.9163 0.0675942 0)
(1.91649 0.0199611 0)
(1.92181 -0.030968 0)
(1.9317 -0.0821167 0)
(-0.0522068 0.121955 0)
(-0.136459 0.160342 0)
(-0.192283 0.216644 0)
(-0.247054 0.275137 0)
(-0.301874 0.316618 0)
(-0.361127 0.325672 0)
(-0.418037 0.287141 0)
(-0.457396 0.187148 0)
(-0.464144 0.0328564 0)
(-0.429972 -0.158857 0)
(-0.357017 -0.363868 0)
(-0.245467 -0.558678 0)
(-0.0972319 -0.720967 0)
(0.0893496 -0.828311 0)
(0.315175 -0.862204 0)
(0.572849 -0.813332 0)
(0.847868 -0.681412 0)
(1.1249 -0.475058 0)
(1.39536 -0.214403 0)
(1.64157 0.0587723 0)
(1.85041 0.307711 0)
(2.01558 0.513774 0)
(2.13446 0.67061 0)
(2.21159 0.780361 0)
(2.25314 0.848335 0)
(2.2664 0.881429 0)
(2.25651 0.887542 0)
(2.22093 0.86923 0)
(2.1656 0.822356 0)
(2.09971 0.757084 0)
(2.02458 0.685799 0)
(1.92972 0.631141 0)
(1.80668 0.611922 0)
(1.66501 0.623033 0)
(1.5276 0.641519 0)
(1.41156 0.644349 0)
(1.3244 0.61338 0)
(1.27569 0.538554 0)
(1.26995 0.419378 0)
(1.30027 0.266159 0)
(1.35738 0.0961586 0)
(1.43224 -0.0729533 0)
(1.51667 -0.228 0)
(1.60409 -0.36108 0)
(1.689 -0.468449 0)
(1.76649 -0.549275 0)
(1.83329 -0.605294 0)
(1.8877 -0.640144 0)
(1.92933 -0.658572 0)
(1.96 -0.665618 0)
(1.98276 -0.665448 0)
(2.00227 -0.659693 0)
(2.02377 -0.6454 0)
(2.05368 -0.612785 0)
(2.09511 -0.558099 0)
(2.14901 -0.475962 0)
(2.21476 -0.364023 0)
(2.29071 -0.224686 0)
(2.37107 -0.0697068 0)
(2.44616 0.0829753 0)
(2.50748 0.219554 0)
(2.55016 0.333611 0)
(2.57294 0.422239 0)
(2.57731 0.483823 0)
(2.56409 0.519735 0)
(2.53098 0.527484 0)
(2.48039 0.510324 0)
(2.41545 0.478595 0)
(2.34117 0.442219 0)
(2.26373 0.410696 0)
(2.18773 0.388799 0)
(2.11685 0.376084 0)
(2.05374 0.368765 0)
(1.99957 0.36138 0)
(1.95452 0.347552 0)
(1.91914 0.320545 0)
(1.8941 0.276416 0)
(1.87865 0.214361 0)
(1.87268 0.136407 0)
(1.87621 0.046683 0)
(1.8888 -0.0488779 0)
(1.90908 -0.142714 0)
(1.93521 -0.228837 0)
(1.96542 -0.303211 0)
(1.99772 -0.362837 0)
(2.03021 -0.406631 0)
(2.06131 -0.435103 0)
(2.0907 -0.449233 0)
(2.11903 -0.449266 0)
(2.14529 -0.435589 0)
(2.16959 -0.41067 0)
(2.19278 -0.376652 0)
(2.21586 -0.334811 0)
(2.23957 -0.285756 0)
(2.26452 -0.229272 0)
(2.29114 -0.165037 0)
(2.31923 -0.0934968 0)
(2.34708 -0.01734 0)
(2.3715 0.057763 0)
(2.38992 0.127462 0)
(2.40016 0.188732 0)
(2.40176 0.240807 0)
(2.39618 0.283088 0)
(2.38124 0.313945 0)
(2.35641 0.331419 0)
(2.322 0.335038 0)
(2.27987 0.328119 0)
(2.23365 0.314063 0)
(2.18801 0.29588 0)
(2.14632 0.275437 0)
(2.11047 0.252947 0)
(2.08144 0.227134 0)
(2.05963 0.196374 0)
(2.0448 0.160004 0)
(2.03606 0.117668 0)
(2.03275 0.0696383 0)
(2.03433 0.0168561 0)
(2.04023 -0.0387137 0)
(2.04967 -0.0937357 0)
(-0.0468639 0.221405 0)
(-0.148759 0.250496 0)
(-0.240865 0.302209 0)
(-0.33151 0.361073 0)
(-0.419968 0.401183 0)
(-0.498169 0.399988 0)
(-0.555876 0.340782 0)
(-0.586276 0.21165 0)
(-0.592728 0.0247834 0)
(-0.564392 -0.205238 0)
(-0.507042 -0.45 0)
(-0.42237 -0.681844 0)
(-0.315793 -0.876413 0)
(-0.189801 -1.01424 0)
(-0.0365309 -1.08194 0)
(0.146726 -1.05977 0)
(0.367611 -0.945607 0)
(0.616058 -0.745709 0)
(0.875454 -0.479698 0)
(1.13143 -0.184425 0)
(1.36474 0.0986058 0)
(1.56498 0.346143 0)
(1.72609 0.546109 0)
(1.84793 0.696193 0)
(1.93334 0.798576 0)
(1.98734 0.858126 0)
(2.01426 0.886273 0)
(2.01998 0.892009 0)
(2.00609 0.867356 0)
(1.97108 0.816593 0)
(1.91198 0.767952 0)
(1.82353 0.742006 0)
(1.71278 0.741777 0)
(1.5976 0.753419 0)
(1.49381 0.755986 0)
(1.4117 0.731437 0)
(1.36283 0.665633 0)
(1.35312 0.550156 0)
(1.37884 0.39305 0)
(1.4329 0.210691 0)
(1.50701 0.0210025 0)
(1.59214 -0.159042 0)
(1.68121 -0.318136 0)
(1.76803 -0.449056 0)
(1.84712 -0.548785 0)
(1.91391 -0.617755 0)
(1.96611 -0.659954 0)
(2.00317 -0.67972 0)
(2.02523 -0.684078 0)
(2.03375 -0.681967 0)
(2.03206 -0.675292 0)
(2.02439 -0.667138 0)
(2.01782 -0.655764 0)
(2.01888 -0.634319 0)
(2.03228 -0.59287 0)
(2.05987 -0.524066 0)
(2.10135 -0.423986 0)
(2.15507 -0.29426 0)
(2.21809 -0.142141 0)
(2.28277 0.0153835 0)
(2.34192 0.164582 0)
(2.38986 0.294806 0)
(2.42383 0.400845 0)
(2.44315 0.480756 0)
(2.44866 0.530699 0)
(2.44057 0.555579 0)
(2.4164 0.55617 0)
(2.37721 0.536903 0)
(2.32613 0.508647 0)
(2.26929 0.479709 0)
(2.21212 0.455738 0)
(2.15778 0.437546 0)
(2.1091 0.422772 0)
(2.06756 0.406864 0)
(2.03413 0.383388 0)
(2.01035 0.346661 0)
(1.99576 0.292928 0)
(1.98991 0.221569 0)
(1.9926 0.134456 0)
(2.0033 0.0360692 0)
(2.02073 -0.0670395 0)
(2.04275 -0.166463 0)
(2.06749 -0.256361 0)
(2.09352 -0.332771 0)
(2.1191 -0.392464 0)
(2.14282 -0.43471 0)
(2.16325 -0.460562 0)
(2.17974 -0.471944 0)
(2.19412 -0.470283 0)
(2.20518 -0.454197 0)
(2.21386 -0.427284 0)
(2.22189 -0.392903 0)
(2.23154 -0.352176 0)
(2.24346 -0.304732 0)
(2.25779 -0.250124 0)
(2.27455 -0.187957 0)
(2.29371 -0.118224 0)
(2.31472 -0.0421922 0)
(2.33555 0.0363194 0)
(2.35335 0.112051 0)
(2.36602 0.18124 0)
(2.37214 0.241358 0)
(2.37136 0.290507 0)
(2.36435 0.327274 0)
(2.35216 0.352236 0)
(2.33321 0.365057 0)
(2.30886 0.364941 0)
(2.27954 0.354218 0)
(2.24746 0.335383 0)
(2.21624 0.31099 0)
(2.18882 0.282595 0)
(2.16676 0.250072 0)
(2.15067 0.212824 0)
(2.14028 0.170354 0)
(2.13504 0.122567 0)
(2.13437 0.0697321 0)
(2.13772 0.012701 0)
(2.14426 -0.0463462 0)
(2.15302 -0.104046 0)
(-0.0371669 0.31616 0)
(-0.136278 0.351788 0)
(-0.231581 0.399557 0)
(-0.318998 0.44818 0)
(-0.396575 0.475646 0)
(-0.459071 0.461814 0)
(-0.502636 0.387013 0)
(-0.531746 0.239269 0)
(-0.537185 0.0207689 0)
(-0.504171 -0.243309 0)
(-0.439027 -0.516004 0)
(-0.356991 -0.767584 0)
(-0.270943 -0.977603 0)
(-0.186276 -1.1332 0)
(-0.103304 -1.22036 0)
(-0.0133973 -1.2319 0)
(0.100021 -1.14787 0)
(0.269487 -0.975459 0)
(0.477513 -0.72456 0)
(0.70672 -0.428316 0)
(0.93421 -0.1271 0)
(1.14499 0.149102 0)
(1.32991 0.383581 0)
(1.48477 0.56945 0)
(1.60803 0.706257 0)
(1.70068 0.798789 0)
(1.7656 0.853318 0)
(1.80745 0.875133 0)
(1.82778 0.873257 0)
(1.82101 0.852838 0)
(1.77968 0.835728 0)
(1.7132 0.833132 0)
(1.6353 0.841366 0)
(1.55963 0.846187 0)
(1.49472 0.830433 0)
(1.45621 0.77823 0)
(1.45147 0.675533 0)
(1.47985 0.524964 0)
(1.53611 0.339471 0)
(1.61296 0.136035 0)
(1.70121 -0.0659023 0)
(1.79272 -0.250748 0)
(1.88128 -0.407961 0)
(1.96128 -0.53096 0)
(2.02776 -0.617746 0)
(2.0779 -0.670994 0)
(2.11186 -0.695695 0)
(2.12867 -0.700475 0)
(2.12999 -0.689696 0)
(2.11261 -0.671687 0)
(2.0827 -0.656125 0)
(2.04789 -0.645942 0)
(2.0147 -0.63871 0)
(1.98747 -0.627193 0)
(1.97274 -0.599653 0)
(1.97357 -0.545996 0)
(1.99025 -0.46018 0)
(2.02146 -0.342544 0)
(2.06519 -0.199049 0)
(2.11673 -0.042649 0)
(2.16958 0.110984 0)
(2.21848 0.2503 0)
(2.25983 0.367899 0)
(2.29164 0.459513 0)
(2.31293 0.52353 0)
(2.32331 0.560291 0)
(2.32355 0.574619 0)
(2.31024 0.57222 0)
(2.28415 0.552499 0)
(2.24957 0.527297 0)
(2.21298 0.503188 0)
(2.17773 0.481796 0)
(2.1459 0.461451 0)
(2.1197 0.437906 0)
(2.10134 0.405861 0)
(2.09136 0.360184 0)
(2.08956 0.297786 0)
(2.09548 0.218266 0)
(2.10856 0.123569 0)
(2.1276 0.0186877 0)
(2.1502 -0.0885743 0)
(2.1736 -0.190108 0)
(2.1959 -0.28043 0)
(2.21572 -0.355822 0)
(2.23196 -0.413039 0)
(2.24422 -0.451703 0)
(2.25182 -0.472727 0)
(2.25456 -0.479481 0)
(2.25222 -0.475311 0)
(2.24519 -0.455283 0)
(2.23794 -0.428053 0)
(2.23197 -0.395167 0)
(2.22861 -0.356708 0)
(2.22797 -0.312175 0)
(2.23117 -0.260665 0)
(2.23819 -0.201454 0)
(2.24872 -0.134357 0)
(2.26233 -0.0601539 0)
(2.27786 0.0186298 0)
(2.29311 0.0967256 0)
(2.30622 0.170282 0)
(2.31575 0.23593 0)
(2.32106 0.291053 0)
(2.32204 0.333774 0)
(2.31916 0.362755 0)
(2.31309 0.378625 0)
(2.30313 0.383269 0)
(2.28948 0.377268 0)
(2.27302 0.36076 0)
(2.25568 0.335672 0)
(2.23982 0.303932 0)
(2.22712 0.266542 0)
(2.2184 0.223893 0)
(2.21376 0.176325 0)
(2.21287 0.124 0)
(2.21536 0.0671728 0)
(2.22071 0.00693696 0)
(2.22793 -0.0541415 0)
(2.23591 -0.112951 0)
(1.37183 0.0412699 0)
(1.30923 0.043436 0)
(1.24273 0.0459964 0)
(1.17164 0.0490185 0)
(1.09528 0.0525045 0)
(1.01298 0.0563414 0)
(0.924248 0.0602483 0)
(2.42978 0.0836703 0)
(2.39464 0.0889212 0)
(2.35678 0.0950589 0)
(2.31576 0.102193 0)
(2.27111 0.110348 0)
(2.22242 0.119415 0)
(2.16916 0.129094 0)
(2.71574 0.109278 0)
(2.69896 0.116264 0)
(2.68104 0.124497 0)
(2.66169 0.134093 0)
(2.64059 0.145069 0)
(2.61745 0.157286 0)
(2.59196 0.170338 0)
(2.78254 0.119025 0)
(2.77302 0.12658 0)
(2.76324 0.135638 0)
(2.75297 0.146345 0)
(2.74184 0.158737 0)
(2.72955 0.1727 0)
(2.71569 0.187785 0)
(2.80307 0.128565 0)
(2.79646 0.135894 0)
(2.79009 0.144944 0)
(2.78379 0.155956 0)
(2.7767 0.169092 0)
(2.76859 0.184258 0)
(2.7589 0.201006 0)
(2.78707 0.133007 0)
(2.7837 0.139913 0)
(2.78078 0.14886 0)
(2.77791 0.160229 0)
(2.77442 0.174252 0)
(2.77006 0.190936 0)
(2.76375 0.209851 0)
(2.6903 0.135819 0)
(2.69461 0.141682 0)
(2.69997 0.149977 0)
(2.70594 0.1613 0)
(2.71179 0.176184 0)
(2.71611 0.194992 0)
(2.71718 0.217587 0)
(2.33919 0.125385 0)
(2.36097 0.129773 0)
(2.38467 0.136678 0)
(2.4103 0.146953 0)
(2.4375 0.161718 0)
(2.46518 0.182439 0)
(2.49065 0.209695 0)
(1.51635 0.0937515 0)
(1.56685 0.0956819 0)
(1.61944 0.0996922 0)
(1.67515 0.106638 0)
(1.73475 0.11815 0)
(1.79921 0.136431 0)
(1.86408 0.165322 0)
(0.508913 0.0259294 0)
(0.566922 0.0276648 0)
(0.626656 0.0304016 0)
(0.690796 0.0346178 0)
(0.759167 0.0412867 0)
(0.846734 0.0545417 0)
(0.924236 0.0690507 0)
(0.828796 0.0637512 0)
(0.726626 0.0658762 0)
(0.619259 0.0646654 0)
(0.515189 0.0586026 0)
(0.417553 0.0477883 0)
(0.326182 0.0344333 0)
(0.242198 0.0202852 0)
(0.167894 0.00207439 0)
(0.107036 -0.0268863 0)
(0.0660475 -0.0673443 0)
(0.0606249 -0.10437 0)
(0.0912903 -0.11795 0)
(0.136314 -0.106759 0)
(0.186381 -0.0690072 0)
(0.227095 -0.0201626 0)
(0.240309 0.0264619 0)
(0.210683 0.0615615 0)
(0.120625 0.0869892 0)
(-0.0349492 0.109218 0)
(-0.23137 0.113958 0)
(-0.412337 0.0945095 0)
(-0.557985 0.0658619 0)
(-0.652705 0.0321544 0)
(-0.685743 -0.00108792 0)
(-0.663451 -0.0315642 0)
(-0.601552 -0.0522625 0)
(-0.511006 -0.0625187 0)
(-0.405667 -0.0641503 0)
(-0.300787 -0.0596743 0)
(-0.2033 -0.0513096 0)
(-0.118462 -0.0418691 0)
(-0.0499609 -0.0323515 0)
(0.00136104 -0.0233398 0)
(0.0354133 -0.0147599 0)
(0.052653 -0.00652933 0)
(0.0550434 0.00190834 0)
(0.044336 0.00924961 0)
(0.0224364 0.0148361 0)
(-0.00877666 0.0183262 0)
(-0.0451121 0.0201214 0)
(-0.0808569 0.0189913 0)
(-0.112371 0.0156084 0)
(-0.136427 0.0106688 0)
(-0.149866 0.00442858 0)
(-0.15119 -0.00270918 0)
(-0.139542 -0.00977238 0)
(-0.114376 -0.0158726 0)
(-0.0788983 -0.0204079 0)
(-0.0365857 -0.0216912 0)
(0.00773876 -0.020169 0)
(0.0471719 -0.0159312 0)
(0.0751478 -0.00862746 0)
(0.086973 0.000792892 0)
(0.0807316 0.011514 0)
(0.0563341 0.0205805 0)
(0.0149462 0.0269863 0)
(-0.036636 0.0299995 0)
(-0.0882703 0.0273636 0)
(-0.131336 0.0208304 0)
(-0.160881 0.0121748 0)
(-0.173396 0.00311878 0)
(-0.169971 -0.00520116 0)
(-0.15407 -0.0110001 0)
(-0.129186 -0.0140557 0)
(-0.101117 -0.0143968 0)
(-0.0736349 -0.0129437 0)
(-0.0500787 -0.010176 0)
(-0.0327551 -0.00656419 0)
(-0.0230038 -0.00268791 0)
(-0.0206159 0.000941245 0)
(-0.024602 0.0037896 0)
(-0.0333268 0.00558722 0)
(-0.0445461 0.00620585 0)
(-0.0559177 0.00572319 0)
(-0.0653323 0.00429306 0)
(-0.0711659 0.002309 0)
(-0.0729307 0.000208148 0)
(-0.0709727 -0.00167826 0)
(-0.0658359 -0.00304919 0)
(-0.0583551 -0.0039279 0)
(-0.0496488 -0.00431968 0)
(-0.0402741 -0.00439492 0)
(-0.0309608 -0.00421386 0)
(-0.0220761 -0.00386274 0)
(-0.0140456 -0.00350075 0)
(-0.0069292 -0.00306779 0)
(-0.000584233 -0.00277021 0)
(0.00511241 -0.00257132 0)
(0.0106788 -0.00243546 0)
(0.0162885 -0.00246247 0)
(0.0219077 -0.00255104 0)
(0.0276633 -0.00259884 0)
(0.0334919 -0.00259416 0)
(0.0392333 -0.00245011 0)
(0.0446252 -0.00216486 0)
(0.0493284 -0.00171809 0)
(0.0530946 -0.00116554 0)
(0.0557325 -0.000554292 0)
(0.0571401 5.67866e-05 0)
(0.0574255 0.000622239 0)
(0.0567645 0.000996184 0)
(0.0553717 0.0012845 0)
(0.0535035 0.00145514 0)
(0.0512968 0.00154713 0)
(0.0489571 0.00159351 0)
(0.046557 0.00161114 0)
(0.044184 0.00167203 0)
(0.0417989 0.00170906 0)
(0.0392478 0.00177529 0)
(0.0365522 0.00186236 0)
(0.0336895 0.00194862 0)
(0.0306882 0.00199514 0)
(0.0276636 0.00195617 0)
(0.024814 0.00180289 0)
(0.0224264 0.00149783 0)
(0.0208056 0.00104287 0)
(0.0202008 0.000406147 0)
(0.0207863 -0.000339387 0)
(0.0227471 -0.00109425 0)
(0.0261964 -0.00182962 0)
(2.11071 0.138809 0)
(2.04734 0.147617 0)
(1.97804 0.154136 0)
(1.90018 0.157172 0)
(1.81438 0.156484 0)
(1.72183 0.152288 0)
(1.6243 0.144957 0)
(1.52386 0.135782 0)
(1.42313 0.123665 0)
(1.32247 0.108321 0)
(1.2029 0.0885943 0)
(1.05062 0.0625334 0)
(0.87163 0.0298644 0)
(0.686874 -0.00280349 0)
(0.557054 -0.0155965 0)
(0.472418 -0.00228403 0)
(0.402881 0.0759367 0)
(0.305095 0.184066 0)
(0.161149 0.246333 0)
(-0.012246 0.262853 0)
(-0.183851 0.238856 0)
(-0.316425 0.175691 0)
(-0.394045 0.0870807 0)
(-0.418031 -0.00488406 0)
(-0.395063 -0.0811513 0)
(-0.339138 -0.131118 0)
(-0.262648 -0.156889 0)
(-0.178187 -0.162479 0)
(-0.0937832 -0.153986 0)
(-0.0175459 -0.135688 0)
(0.0462892 -0.112098 0)
(0.0967347 -0.0861276 0)
(0.133016 -0.0595532 0)
(0.155105 -0.0335373 0)
(0.162756 -0.00979152 0)
(0.155334 0.011889 0)
(0.133844 0.0300466 0)
(0.102284 0.0432708 0)
(0.0648219 0.0505933 0)
(0.0257147 0.0527824 0)
(-0.0123283 0.0495476 0)
(-0.0454394 0.0408108 0)
(-0.0697137 0.0273426 0)
(-0.0825403 0.00994806 0)
(-0.0825291 -0.0103897 0)
(-0.0700371 -0.0307834 0)
(-0.0452198 -0.0484127 0)
(-0.00918063 -0.0607198 0)
(0.0338299 -0.0655159 0)
(0.0784009 -0.06198 0)
(0.119514 -0.0502714 0)
(0.150696 -0.0303513 0)
(0.166452 -0.0044476 0)
(0.162741 0.0244017 0)
(0.138938 0.0504518 0)
(0.0988652 0.0684114 0)
(0.0504822 0.0754922 0)
(0.00285249 0.0710914 0)
(-0.0357454 0.0547463 0)
(-0.0591333 0.0304611 0)
(-0.0652883 0.00456571 0)
(-0.0567607 -0.017907 0)
(-0.0373308 -0.0330002 0)
(-0.0106232 -0.0406676 0)
(0.019004 -0.0418823 0)
(0.0474325 -0.0379638 0)
(0.0715535 -0.0301673 0)
(0.08925 -0.0198595 0)
(0.099429 -0.00869159 0)
(0.10241 0.00176163 0)
(0.099269 0.00999391 0)
(0.0919007 0.0151025 0)
(0.0825381 0.0167886 0)
(0.073485 0.0152209 0)
(0.0666776 0.0109615 0)
(0.0635041 0.00503574 0)
(0.0643441 -0.00125061 0)
(0.0688922 -0.00668496 0)
(0.0764601 -0.0105856 0)
(0.0860967 -0.0130012 0)
(0.0968245 -0.014162 0)
(0.107971 -0.0143755 0)
(0.119014 -0.0139059 0)
(0.12962 -0.0129412 0)
(0.139603 -0.0117122 0)
(0.148793 -0.0104136 0)
(0.157283 -0.00933257 0)
(0.165225 -0.00864158 0)
(0.172828 -0.00841813 0)
(0.180261 -0.00859162 0)
(0.187664 -0.0089283 0)
(0.194998 -0.00913574 0)
(0.202242 -0.00911939 0)
(0.209226 -0.00874029 0)
(0.2157 -0.00790351 0)
(0.221358 -0.00665277 0)
(0.225961 -0.00509487 0)
(0.229365 -0.00336049 0)
(0.231547 -0.00162659 0)
(0.232617 -3.76932e-05 0)
(0.232868 0.0012811 0)
(0.232602 0.00219683 0)
(0.231996 0.00276576 0)
(0.231243 0.00303692 0)
(0.23047 0.0031369 0)
(0.229752 0.00316327 0)
(0.229062 0.00321726 0)
(0.228387 0.00332536 0)
(0.227635 0.00349331 0)
(0.226716 0.00370362 0)
(0.225627 0.0039046 0)
(0.224365 0.00399571 0)
(0.223081 0.00385285 0)
(0.221944 0.00335523 0)
(0.22125 0.00242756 0)
(0.221258 0.00104695 0)
(0.222235 -0.000770501 0)
(0.224501 -0.00288823 0)
(0.228215 -0.00513038 0)
(0.233407 -0.00735787 0)
(2.56383 0.183485 0)
(2.53293 0.195699 0)
(2.49934 0.205935 0)
(2.46312 0.213296 0)
(2.42434 0.217214 0)
(2.38301 0.217641 0)
(2.33913 0.214787 0)
(2.29174 0.208679 0)
(2.2394 0.199297 0)
(2.17892 0.189159 0)
(2.10797 0.184927 0)
(2.0258 0.192201 0)
(1.92451 0.209203 0)
(1.79384 0.226788 0)
(1.61581 0.231772 0)
(1.37418 0.224922 0)
(1.09969 0.241956 0)
(0.881491 0.303222 0)
(0.723455 0.375629 0)
(0.588905 0.41042 0)
(0.470376 0.380957 0)
(0.383849 0.278087 0)
(0.323772 0.131459 0)
(0.280563 -0.010519 0)
(0.270492 -0.119671 0)
(0.287345 -0.188635 0)
(0.321407 -0.223032 0)
(0.360816 -0.23115 0)
(0.397453 -0.213968 0)
(0.42677 -0.179673 0)
(0.444246 -0.142686 0)
(0.449772 -0.108707 0)
(0.446016 -0.0773574 0)
(0.436046 -0.0453644 0)
(0.421942 -0.00904106 0)
(0.401517 0.0277403 0)
(0.373919 0.0589836 0)
(0.339977 0.0811984 0)
(0.303097 0.0933071 0)
(0.266451 0.0956322 0)
(0.232597 0.0875347 0)
(0.204181 0.0706633 0)
(0.183039 0.0459501 0)
(0.170008 0.0157098 0)
(0.167027 -0.0182386 0)
(0.175285 -0.0522295 0)
(0.193317 -0.0820089 0)
(0.219306 -0.103101 0)
(0.250926 -0.112993 0)
(0.285921 -0.108944 0)
(0.322063 -0.0894287 0)
(0.355222 -0.0563569 0)
(0.379687 -0.014283 0)
(0.390701 0.0326602 0)
(0.385772 0.0759613 0)
(0.36688 0.106658 0)
(0.339251 0.118214 0)
(0.309373 0.108568 0)
(0.283799 0.0803372 0)
(0.267012 0.0396968 0)
(0.26167 -0.00240711 0)
(0.26824 -0.0371676 0)
(0.283738 -0.0605194 0)
(0.304918 -0.072067 0)
(0.32938 -0.0726876 0)
(0.354489 -0.0649466 0)
(0.37713 -0.0515917 0)
(0.394371 -0.0346536 0)
(0.404731 -0.0160198 0)
(0.408208 0.00167749 0)
(0.405822 0.0154178 0)
(0.399507 0.0236267 0)
(0.390947 0.0258342 0)
(0.382121 0.0226106 0)
(0.374746 0.0151089 0)
(0.370392 0.00476545 0)
(0.369922 -0.00611408 0)
(0.37315 -0.015155 0)
(0.379038 -0.0215661 0)
(0.386726 -0.0252621 0)
(0.395633 -0.0267309 0)
(0.40547 -0.0266688 0)
(0.416008 -0.0255896 0)
(0.426916 -0.023947 0)
(0.437847 -0.0221311 0)
(0.448236 -0.0204638 0)
(0.457924 -0.0191661 0)
(0.466701 -0.0183794 0)
(0.47476 -0.0180634 0)
(0.482403 -0.0181154 0)
(0.489764 -0.0182787 0)
(0.496735 -0.0181621 0)
(0.503404 -0.0176862 0)
(0.509603 -0.0165605 0)
(0.515286 -0.0146759 0)
(0.520277 -0.0120963 0)
(0.524371 -0.00905944 0)
(0.527408 -0.00590121 0)
(0.529349 -0.00291933 0)
(0.530357 -0.000427122 0)
(0.530542 0.00144475 0)
(0.530108 0.00265021 0)
(0.529376 0.00326302 0)
(0.528514 0.00340557 0)
(0.527617 0.0032391 0)
(0.526702 0.00303933 0)
(0.525772 0.00295099 0)
(0.524811 0.00303029 0)
(0.523777 0.00329738 0)
(0.522602 0.00372463 0)
(0.521245 0.00419841 0)
(0.519702 0.00453393 0)
(0.51811 0.00449607 0)
(0.516628 0.00381309 0)
(0.515567 0.00239547 0)
(0.51521 0.000165742 0)
(0.515875 -0.00276057 0)
(0.517815 -0.00620087 0)
(0.521176 -0.00993783 0)
(0.526002 -0.0137009 0)
(2.69992 0.203143 0)
(2.68212 0.217529 0)
(2.6624 0.229619 0)
(2.64131 0.238366 0)
(2.61954 0.243128 0)
(2.5976 0.2439 0)
(2.5757 0.241457 0)
(2.55353 0.23689 0)
(2.53043 0.231612 0)
(2.50592 0.228705 0)
(2.47881 0.232859 0)
(2.44779 0.248426 0)
(2.41098 0.276669 0)
(2.36437 0.315689 0)
(2.30346 0.366551 0)
(2.21793 0.440094 0)
(2.0876 0.491713 0)
(1.91604 0.536844 0)
(1.74457 0.567045 0)
(1.60032 0.564553 0)
(1.47905 0.512878 0)
(1.37918 0.400987 0)
(1.28415 0.240531 0)
(1.18085 0.0636627 0)
(1.09026 -0.085241 0)
(1.02222 -0.189815 0)
(0.97414 -0.243256 0)
(0.943499 -0.254721 0)
(0.925814 -0.246279 0)
(0.919316 -0.210822 0)
(0.923881 -0.161584 0)
(0.930441 -0.107782 0)
(0.929539 -0.0556249 0)
(0.91438 -0.00803684 0)
(0.880906 0.0336474 0)
(0.83363 0.0702113 0)
(0.786039 0.0985851 0)
(0.743825 0.116987 0)
(0.708851 0.125072 0)
(0.681051 0.123131 0)
(0.66059 0.110974 0)
(0.64904 0.0897502 0)
(0.645434 0.0617131 0)
(0.647788 0.0267625 0)
(0.656892 -0.0151381 0)
(0.671599 -0.0582774 0)
(0.68639 -0.0954518 0)
(0.697321 -0.122536 0)
(0.703604 -0.138084 0)
(0.707872 -0.141667 0)
(0.712487 -0.131245 0)
(0.722646 -0.096288 0)
(0.74137 -0.0430271 0)
(0.765325 0.0223727 0)
(0.784392 0.0834603 0)
(0.793492 0.127234 0)
(0.793979 0.145985 0)
(0.787592 0.144198 0)
(0.776092 0.112719 0)
(0.759187 0.0583391 0)
(0.741868 0.00278806 0)
(0.730921 -0.0419836 0)
(0.72775 -0.0739582 0)
(0.730927 -0.0928491 0)
(0.741144 -0.0991216 0)
(0.756836 -0.0932912 0)
(0.777383 -0.0742219 0)
(0.799651 -0.0479217 0)
(0.817394 -0.0214947 0)
(0.827404 0.00180298 0)
(0.830238 0.0198312 0)
(0.828691 0.0310729 0)
(0.824651 0.035521 0)
(0.818973 0.0326781 0)
(0.81257 0.0230407 0)
(0.806206 0.00933171 0)
(0.801977 -0.00449005 0)
(0.800086 -0.0161688 0)
(0.79917 -0.0248743 0)
(0.798838 -0.0307733 0)
(0.799481 -0.0347595 0)
(0.80192 -0.0372137 0)
(0.806722 -0.0382078 0)
(0.814132 -0.0379487 0)
(0.823997 -0.0357291 0)
(0.835824 -0.0324966 0)
(0.848512 -0.0288205 0)
(0.861113 -0.0254499 0)
(0.872948 -0.0233099 0)
(0.883282 -0.0222409 0)
(0.891576 -0.0215326 0)
(0.897582 -0.0210216 0)
(0.901754 -0.0207906 0)
(0.903974 -0.0201879 0)
(0.905081 -0.018798 0)
(0.90526 -0.0163406 0)
(0.904817 -0.0130322 0)
(0.903961 -0.00919767 0)
(0.902906 -0.00518211 0)
(0.901887 -0.00169578 0)
(0.900933 0.000933352 0)
(0.900029 0.00268997 0)
(0.899118 0.00373851 0)
(0.898053 0.00430514 0)
(0.896673 0.00459941 0)
(0.894775 0.00478582 0)
(0.892263 0.00500643 0)
(0.889134 0.00534151 0)
(0.885467 0.00583703 0)
(0.881381 0.0064694 0)
(0.876998 0.00709859 0)
(0.872473 0.0074683 0)
(0.868029 0.00726434 0)
(0.863951 0.00619851 0)
(0.860594 0.00406678 0)
(0.858372 0.000858043 0)
(0.857712 -0.003256 0)
(0.8588 -0.00804088 0)
(0.861702 -0.0132027 0)
(0.866358 -0.018397 0)
(2.74698 0.21837 0)
(2.73264 0.234718 0)
(2.7158 0.248393 0)
(2.69726 0.257752 0)
(2.6788 0.262084 0)
(2.66147 0.261784 0)
(2.64652 0.257744 0)
(2.63586 0.251346 0)
(2.62906 0.244738 0)
(2.62519 0.242052 0)
(2.62307 0.246775 0)
(2.62296 0.262832 0)
(2.62489 0.292707 0)
(2.6277 0.337495 0)
(2.62769 0.398286 0)
(2.62635 0.472532 0)
(2.61902 0.558777 0)
(2.59678 0.642931 0)
(2.56124 0.68205 0)
(2.51303 0.677464 0)
(2.45301 0.636678 0)
(2.37236 0.530119 0)
(2.26626 0.383114 0)
(2.13527 0.221759 0)
(1.98335 0.0699691 0)
(1.8236 -0.0505931 0)
(1.67625 -0.130319 0)
(1.55295 -0.172707 0)
(1.45287 -0.18388 0)
(1.37547 -0.171547 0)
(1.32065 -0.144861 0)
(1.28425 -0.10809 0)
(1.2634 -0.0624156 0)
(1.25548 -0.0086123 0)
(1.25581 0.0508644 0)
(1.25685 0.102436 0)
(1.25299 0.138143 0)
(1.24502 0.156578 0)
(1.23434 0.159445 0)
(1.22687 0.152819 0)
(1.22566 0.129181 0)
(1.2337 0.0946225 0)
(1.2516 0.0529009 0)
(1.28288 0.00819992 0)
(1.32308 -0.035253 0)
(1.36331 -0.0713214 0)
(1.39706 -0.0962718 0)
(1.41951 -0.10808 0)
(1.42827 -0.109143 0)
(1.42025 -0.101445 0)
(1.38934 -0.0865111 0)
(1.34386 -0.070982 0)
(1.29997 -0.0577018 0)
(1.27064 -0.0242445 0)
(1.26314 0.0327838 0)
(1.26999 0.0896926 0)
(1.27779 0.124212 0)
(1.281 0.13578 0)
(1.278 0.126558 0)
(1.25934 0.08969 0)
(1.22409 0.0356711 0)
(1.18274 -0.0174101 0)
(1.14657 -0.0589008 0)
(1.12067 -0.0871062 0)
(1.1072 -0.102561 0)
(1.10558 -0.107568 0)
(1.11737 -0.105978 0)
(1.14331 -0.0874648 0)
(1.18052 -0.0532326 0)
(1.21774 -0.0170589 0)
(1.24589 0.0118636 0)
(1.26357 0.0307718 0)
(1.27175 0.0391692 0)
(1.27309 0.0405312 0)
(1.26781 0.0356915 0)
(1.2564 0.0208709 0)
(1.24126 0.0037729 0)
(1.2263 -0.0103592 0)
(1.21329 -0.020149 0)
(1.20261 -0.0261937 0)
(1.19485 -0.0304948 0)
(1.19057 -0.0344061 0)
(1.19023 -0.0382652 0)
(1.1939 -0.0415712 0)
(1.20089 -0.0440523 0)
(1.21063 -0.0451801 0)
(1.22246 -0.0447629 0)
(1.23552 -0.0434682 0)
(1.24906 -0.0415454 0)
(1.26151 -0.0387266 0)
(1.27176 -0.0348875 0)
(1.27897 -0.0305315 0)
(1.28301 -0.0263302 0)
(1.28375 -0.0217139 0)
(1.28152 -0.0169683 0)
(1.27741 -0.0123811 0)
(1.27227 -0.00791906 0)
(1.26688 -0.00388726 0)
(1.2618 -0.000569438 0)
(1.25747 0.00196789 0)
(1.25413 0.00381401 0)
(1.25175 0.00515221 0)
(1.25007 0.00613995 0)
(1.24866 0.00695768 0)
(1.24681 0.00772248 0)
(1.24367 0.00856781 0)
(1.23863 0.00957557 0)
(1.2315 0.0105814 0)
(1.22247 0.0115097 0)
(1.21198 0.01237 0)
(1.20055 0.0130939 0)
(1.18885 0.0134567 0)
(1.17746 0.0130394 0)
(1.16692 0.0113881 0)
(1.15787 0.00819905 0)
(1.15095 0.00342839 0)
(1.14676 -0.00271787 0)
(1.14588 -0.00980986 0)
(1.14848 -0.0172418 0)
(1.15442 -0.0245414 0)
(2.75484 0.230181 0)
(2.74115 0.249627 0)
(2.72286 0.265815 0)
(2.70201 0.276054 0)
(2.68105 0.279341 0)
(2.66212 0.276342 0)
(2.64702 0.268284 0)
(2.6375 0.257107 0)
(2.63518 0.245516 0)
(2.64092 0.237131 0)
(2.65524 0.236698 0)
(2.67699 0.248075 0)
(2.70549 0.274413 0)
(2.73929 0.317731 0)
(2.77569 0.376979 0)
(2.81378 0.450071 0)
(2.85372 0.538208 0)
(2.89117 0.624187 0)
(2.91751 0.670804 0)
(2.92794 0.677208 0)
(2.92166 0.663123 0)
(2.88403 0.594371 0)
(2.80521 0.485293 0)
(2.68669 0.357177 0)
(2.53659 0.22995 0)
(2.36737 0.117988 0)
(2.19445 0.0315903 0)
(2.02946 -0.0278714 0)
(1.88212 -0.0631038 0)
(1.75921 -0.0769547 0)
(1.6623 -0.0730875 0)
(1.58958 -0.0553313 0)
(1.53813 -0.0281336 0)
(1.50477 0.00495474 0)
(1.48872 0.043161 0)
(1.4905 0.0834754 0)