/*--------------------------------*- C++ -*----------------------------------*\
| =========                 |                                                 |
| \\      /  F ield         | OpenFOAM: The Open Source CFD Toolbox           |
|  \\    /   O peration     | Version:  2206                                  |
|   \\  /    A nd           | Website:  www.openfoam.com                      |
|    \\/     M anipulation  |                                                 |
\*---------------------------------------------------------------------------*/
FoamFile
{
    version     2.0;
    format      ascii;
    arch        "LSB;label=32;scalar=64";
    class       volVectorField;
    location    "18.5001";
    object      U;
}
// * * * * * * * * * * * * * * * * * * * * * * * * * * * * * * * * * * * * * //

dimensions      [0 1 -1 0 0 0 0];

internalField   nonuniform List<vector> 
3037
(
(1.87029 -0.116299 0)
(1.8792 -0.0742488 0)
(1.88727 -0.0301751 0)
(1.8941 0.0141142 0)
(1.89932 0.0570462 0)
(1.90264 0.0973649 0)
(1.90383 0.134026 0)
(1.90282 0.16619 0)
(1.89966 0.19324 0)
(1.89445 0.214908 0)
(1.88737 0.231112 0)
(1.87846 0.241882 0)
(1.86743 0.247151 0)
(1.8547 0.247019 0)
(1.84067 0.242139 0)
(1.82589 0.23305 0)
(1.811 0.220196 0)
(1.79655 0.203951 0)
(1.78299 0.184586 0)
(1.77065 0.162293 0)
(1.7598 0.137246 0)
(1.75061 0.109656 0)
(1.74323 0.0798098 0)
(1.73777 0.0481184 0)
(1.73432 0.0151777 0)
(1.7329 -0.0180836 0)
(1.73347 -0.050726 0)
(1.73591 -0.0819618 0)
(1.74005 -0.111035 0)
(1.74566 -0.137269 0)
(1.75248 -0.160116 0)
(1.76023 -0.179189 0)
(1.76859 -0.194276 0)
(1.77728 -0.205333 0)
(1.78613 -0.2124 0)
(1.79532 -0.215327 0)
(1.80471 -0.213682 0)
(1.81412 -0.207348 0)
(1.82344 -0.196405 0)
(1.83248 -0.181072 0)
(1.84113 -0.161675 0)
(1.84931 -0.138597 0)
(1.85697 -0.112273 0)
(1.86405 -0.0832181 0)
(1.87043 -0.0520828 0)
(1.87593 -0.0197842 0)
(1.88026 0.0124226 0)
(1.88331 0.0435669 0)
(1.8849 0.0728512 0)
(1.88514 0.0996022 0)
(1.88416 0.12322 0)
(1.88132 0.143253 0)
(1.87711 0.159489 0)
(1.87156 0.171838 0)
(1.86476 0.18029 0)
(1.85659 0.18481 0)
(1.84731 0.185366 0)
(1.83725 0.182272 0)
(1.82674 0.175797 0)
(1.81622 0.16618 0)
(1.80607 0.153684 0)
(1.79659 0.138556 0)
(1.78802 0.12102 0)
(1.78053 0.101309 0)
(1.77425 0.0796852 0)
(1.7693 0.0564599 0)
(1.76574 0.0320279 0)
(1.76363 0.00693631 0)
(1.76297 -0.0180713 0)
(1.76372 -0.0423953 0)
(1.76578 -0.0654796 0)
(1.76903 -0.0868032 0)
(1.77332 -0.105911 0)
(1.77846 -0.122442 0)
(1.78424 -0.136151 0)
(1.79045 -0.146915 0)
(1.79691 -0.154713 0)
(1.80351 -0.159564 0)
(1.81038 -0.161324 0)
(1.81739 -0.159701 0)
(1.82443 -0.154636 0)
(1.8314 -0.146189 0)
(1.83814 -0.134525 0)
(1.84453 -0.119895 0)
(1.8505 -0.102599 0)
(1.85599 -0.0829887 0)
(1.86092 -0.0614667 0)
(1.86522 -0.0385241 0)
(1.86878 -0.0148393 0)
(1.87145 0.00871978 0)
(1.87315 0.0315833 0)
(1.87377 0.0532454 0)
(1.87319 0.0731214 0)
(1.87146 0.0907044 0)
(1.86868 0.105743 0)
(1.86495 0.118103 0)
(1.86036 0.127671 0)
(1.85502 0.134412 0)
(1.84892 0.138307 0)
(1.8421 0.139281 0)
(1.83485 0.137412 0)
(1.82732 0.132833 0)
(1.81982 0.125669 0)
(1.81259 0.116101 0)
(1.80585 0.104329 0)
(1.79976 0.0905667 0)
(1.79446 0.0750446 0)
(1.79004 0.0580202 0)
(1.78658 0.0397898 0)
(1.78414 0.0207128 0)
(1.78275 0.00127972 0)
(1.78243 -0.0179441 0)
(1.78311 -0.0365277 0)
(1.78474 -0.0540906 0)
(1.78722 -0.0702357 0)
(1.79043 -0.0846915 0)
(1.79434 -0.0972448 0)
(1.79846 -0.107617 0)
(1.80353 -0.115929 0)
(1.80716 -0.122408 0)
(1.81503 -0.125599 0)
(1.86603 -0.124443 0)
(1.87286 -0.0818171 0)
(1.87926 -0.0369629 0)
(1.88493 0.00850615 0)
(1.88954 0.0528923 0)
(1.89283 0.0949297 0)
(1.89457 0.13348 0)
(1.89463 0.167602 0)
(1.89295 0.196586 0)
(1.88955 0.220031 0)
(1.88456 0.23787 0)
(1.87824 0.250235 0)
(1.87047 0.257261 0)
(1.86099 0.258756 0)
(1.85021 0.254977 0)
(1.83843 0.246455 0)
(1.82623 0.233597 0)
(1.8142 0.216851 0)
(1.80278 0.19659 0)
(1.79231 0.173093 0)
(1.78306 0.146613 0)
(1.7752 0.117417 0)
(1.76891 0.0858322 0)
(1.76428 0.0523 0)
(1.7614 0.0174519 0)
(1.76031 -0.0177128 0)
(1.76096 -0.052172 0)
(1.76322 -0.0850866 0)
(1.76694 -0.115648 0)
(1.77193 -0.14313 0)
(1.77791 -0.166946 0)
(1.78462 -0.186687 0)
(1.79176 -0.202156 0)
(1.79903 -0.21338 0)
(1.80621 -0.220537 0)
(1.8135 -0.223639 0)
(1.82096 -0.222133 0)
(1.82836 -0.215745 0)
(1.83561 -0.204574 0)
(1.84255 -0.188896 0)
(1.8491 -0.169082 0)
(1.85524 -0.145549 0)
(1.86099 -0.118744 0)
(1.86633 -0.0891616 0)
(1.87124 -0.0573916 0)
(1.87561 -0.0242427 0)
(1.87924 0.00901716 0)
(1.88195 0.0413161 0)
(1.88358 0.0717854 0)
(1.88407 0.0997184 0)
(1.88357 0.124618 0)
(1.8818 0.146016 0)
(1.87895 0.163536 0)
(1.87511 0.177039 0)
(1.87039 0.186558 0)
(1.86476 0.192195 0)
(1.85797 0.193823 0)
(1.85037 0.191421 0)
(1.84212 0.185261 0)
(1.83361 0.175572 0)
(1.82526 0.162673 0)
(1.81737 0.146878 0)
(1.81015 0.128466 0)
(1.80379 0.107721 0)
(1.79843 0.0849402 0)
(1.79418 0.060466 0)
(1.79111 0.0347159 0)
(1.78928 0.0082661 0)
(1.7887 -0.0180802 0)
(1.78933 -0.0436785 0)
(1.79109 -0.0679386 0)
(1.79388 -0.0903049 0)
(1.79755 -0.110289 0)
(1.80193 -0.127502 0)
(1.80683 -0.141688 0)
(1.81205 -0.152733 0)
(1.81738 -0.160668 0)
(1.82267 -0.165614 0)
(1.82812 -0.167536 0)
(1.83369 -0.166026 0)
(1.83925 -0.160929 0)
(1.84473 -0.152308 0)
(1.84996 -0.14036 0)
(1.85487 -0.12536 0)
(1.85941 -0.10763 0)
(1.86353 -0.087535 0)
(1.86723 -0.0654888 0)
(1.87045 -0.041973 0)
(1.87313 -0.0176129 0)
(1.87519 0.00675562 0)
(1.87638 0.0305207 0)
(1.87679 0.0531202 0)
(1.87671 0.0739579 0)
(1.87589 0.0925264 0)
(1.87399 0.108491 0)
(1.87137 0.121666 0)
(1.86808 0.131937 0)
(1.86425 0.139297 0)
(1.85996 0.143819 0)
(1.855 0.14543 0)
(1.84955 0.143992 0)
(1.8437 0.139597 0)
(1.83769 0.132357 0)
(1.8318 0.122489 0)
(1.82624 0.110233 0)
(1.82115 0.095837 0)
(1.81667 0.079568 0)
(1.81289 0.0617099 0)
(1.80988 0.0425788 0)
(1.80771 0.0225514 0)
(1.80642 0.00214257 0)
(1.80602 -0.0180366 0)
(1.80647 -0.0375232 0)
(1.80772 -0.0559325 0)
(1.80968 -0.0727966 0)
(1.81228 -0.0879286 0)
(1.81541 -0.100898 0)
(1.81883 -0.111725 0)
(1.8228 -0.12011 0)
(1.82577 -0.126816 0)
(1.83184 -0.130161 0)
(1.85941 -0.130308 0)
(1.8641 -0.0874535 0)
(1.86871 -0.0422544 0)
(1.87307 0.00387995 0)
(1.87689 0.0491666 0)
(1.87996 0.0923397 0)
(1.88206 0.132225 0)
(1.88299 0.167811 0)
(1.88264 0.198328 0)
(1.88096 0.223286 0)
(1.87798 0.242485 0)
(1.87393 0.256004 0)
(1.86904 0.264209 0)
(1.8629 0.267262 0)
(1.85547 0.264789 0)
(1.84686 0.257085 0)
(1.83756 0.244442 0)
(1.8282 0.227414 0)
(1.8192 0.206493 0)
(1.81087 0.182039 0)
(1.80348 0.154374 0)
(1.79723 0.123824 0)
(1.79227 0.0907575 0)
(1.7887 0.0556491 0)
(1.7866 0.0191679 0)
(1.78598 -0.017616 0)
(1.7868 -0.0536104 0)
(1.78893 -0.0879321 0)
(1.79223 -0.119731 0)
(1.79653 -0.148232 0)
(1.80159 -0.172811 0)
(1.80717 -0.193024 0)
(1.81298 -0.208675 0)
(1.81874 -0.219845 0)
(1.82417 -0.226855 0)
(1.82946 -0.22996 0)
(1.83491 -0.228552 0)
(1.84022 -0.222056 0)
(1.84529 -0.2106 0)
(1.85 -0.19456 0)
(1.85434 -0.174377 0)
(1.85836 -0.150502 0)
(1.86214 -0.123371 0)
(1.86572 -0.0934682 0)
(1.86911 -0.0613614 0)
(1.87228 -0.0277883 0)
(1.87508 0.0061188 0)
(1.87738 0.0392216 0)
(1.87901 0.0706408 0)
(1.87986 0.0995964 0)
(1.87982 0.125486 0)
(1.87894 0.147797 0)
(1.87724 0.16617 0)
(1.87479 0.18047 0)
(1.87179 0.190714 0)
(1.86841 0.197061 0)
(1.86426 0.199678 0)
(1.85918 0.198185 0)
(1.85331 0.192596 0)
(1.84698 0.183049 0)
(1.84064 0.169951 0)
(1.83453 0.153698 0)
(1.82887 0.134621 0)
(1.82385 0.113048 0)
(1.81959 0.0893196 0)
(1.81621 0.0638077 0)
(1.81378 0.0369545 0)
(1.81235 0.00936446 0)
(1.81194 -0.0181063 0)
(1.81251 -0.0447719 0)
(1.81399 -0.0700147 0)
(1.81629 -0.0932493 0)
(1.81929 -0.113958 0)
(1.82286 -0.131721 0)
(1.82682 -0.146259 0)
(1.83098 -0.157455 0)
(1.83513 -0.16538 0)
(1.83908 -0.170268 0)
(1.84304 -0.172259 0)
(1.84713 -0.170861 0)
(1.85118 -0.165715 0)
(1.8551 -0.156896 0)
(1.85876 -0.144667 0)
(1.86213 -0.129339 0)
(1.86519 -0.111258 0)
(1.86794 -0.090811 0)
(1.8704 -0.0683942 0)
(1.87257 -0.0444393 0)
(1.87435 -0.019511 0)
(1.87567 0.00551438 0)
(1.87639 0.0298603 0)
(1.87669 0.0529063 0)
(1.87668 0.0742125 0)
(1.87624 0.0934354 0)
(1.87513 0.110166 0)
(1.87358 0.124026 0)
(1.87157 0.134825 0)
(1.86919 0.142577 0)
(1.8666 0.147451 0)
(1.8636 0.149616 0)
(1.86001 0.148749 0)
(1.85593 0.144712 0)
(1.85154 0.137553 0)
(1.84713 0.12755 0)
(1.84289 0.11499 0)
(1.83895 0.100152 0)
(1.83544 0.0833318 0)
(1.83243 0.0648324 0)
(1.83 0.0449897 0)
(1.8282 0.0241972 0)
(1.82709 0.00299202 0)
(1.82666 -0.0179709 0)
(1.8269 -0.0382008 0)
(1.82777 -0.057306 0)
(1.82919 -0.0747688 0)
(1.83115 -0.090457 0)
(1.83348 -0.103759 0)
(1.83611 -0.114941 0)
(1.839 -0.123343 0)
(1.84141 -0.130232 0)
(1.84544 -0.133395 0)
(1.85035 -0.133852 0)
(1.85283 -0.0910888 0)
(1.85559 -0.0459277 0)
(1.85853 0.000356191 0)
(1.86146 0.0460199 0)
(1.86417 0.0897799 0)
(1.86645 0.130459 0)
(1.86809 0.167015 0)
(1.86894 0.198618 0)
(1.86887 0.224692 0)
(1.86785 0.244924 0)
(1.86598 0.259308 0)
(1.86358 0.268174 0)
(1.8606 0.272185 0)
(1.85646 0.271085 0)
(1.85103 0.264342 0)
(1.84469 0.252178 0)
(1.83818 0.235186 0)
(1.83184 0.213919 0)
(1.82592 0.188815 0)
(1.82066 0.160269 0)
(1.81626 0.128661 0)
(1.81285 0.0944034 0)
(1.81054 0.0580117 0)
(1.8094 0.0201998 0)
(1.80941 -0.0178841 0)
(1.8105 -0.0550891 0)
(1.81255 -0.0904989 0)
(1.81543 -0.123231 0)
(1.81896 -0.152476 0)
(1.82297 -0.177584 0)
(1.82727 -0.198079 0)
(1.83164 -0.213739 0)
(1.83584 -0.224687 0)
(1.83954 -0.231371 0)
(1.84272 -0.234336 0)
(1.84607 -0.23293 0)
(1.84926 -0.226182 0)
(1.85201 -0.214347 0)
(1.85433 -0.19794 0)
(1.85644 -0.177466 0)
(1.85841 -0.153374 0)
(1.86028 -0.126105 0)
(1.8621 -0.0961135 0)
(1.86394 -0.0639241 0)
(1.8658 -0.0302213 0)
(1.86764 0.00395032 0)
(1.86934 0.0374226 0)
(1.87078 0.0693506 0)
(1.87184 0.0989494 0)
(1.87242 0.12555 0)
(1.87246 0.148586 0)
(1.87194 0.167633 0)
(1.87089 0.182454 0)
(1.8694 0.193063 0)
(1.86773 0.199754 0)
(1.86594 0.202945 0)
(1.8634 0.202455 0)
(1.85992 0.197448 0)
(1.85579 0.188176 0)
(1.85156 0.175097 0)
(1.84742 0.158627 0)
(1.84351 0.139139 0)
(1.84001 0.117003 0)
(1.83705 0.0925896 0)
(1.83472 0.0662989 0)
(1.8331 0.038598 0)
(1.83222 0.0101206 0)
(1.83211 -0.0182242 0)
(1.8327 -0.0457133 0)
(1.83394 -0.0717071 0)
(1.83575 -0.0956001 0)
(1.83804 -0.116855 0)
(1.84071 -0.135025 0)
(1.84364 -0.149807 0)
(1.84667 -0.161055 0)
(1.84962 -0.168865 0)
(1.85225 -0.173564 0)
(1.85466 -0.175527 0)
(1.85723 -0.174207 0)
(1.85978 -0.168948 0)
(1.86208 -0.159885 0)
(1.86407 -0.147388 0)
(1.86585 -0.131807 0)
(1.86747 -0.113465 0)
(1.86893 -0.0927559 0)
(1.87021 -0.0701003 0)
(1.87123 -0.0459099 0)
(1.87223 -0.0207136 0)
(1.87305 0.00466056 0)
(1.87368 0.0293672 0)
(1.87405 0.0527949 0)
(1.87405 0.0744995 0)
(1.87372 0.0940868 0)
(1.87312 0.111108 0)
(1.87229 0.125232 0)
(1.87134 0.136322 0)
(1.87011 0.144357 0)
(1.86891 0.149462 0)
(1.86771 0.151912 0)
(1.86599 0.151744 0)
(1.86374 0.14809 0)
(1.86092 0.141138 0)
(1.85803 0.131159 0)
(1.8552 0.118418 0)
(1.85252 0.103276 0)
(1.85009 0.0860823 0)
(1.84798 0.0671443 0)
(1.84624 0.046801 0)
(1.84495 0.0254615 0)
(1.84412 0.00368297 0)
(1.84376 -0.0178509 0)
(1.84386 -0.0386247 0)
(1.84437 -0.0582376 0)
(1.84527 -0.0761561 0)
(1.84652 -0.0922472 0)
(1.84803 -0.105825 0)
(1.84979 -0.117225 0)
(1.85166 -0.125702 0)
(1.85331 -0.132538 0)
(1.85554 -0.135332 0)
(1.83846 -0.13501 0)
(1.83876 -0.0926596 0)
(1.83969 -0.047931 0)
(1.84123 -0.00197055 0)
(1.84324 0.0435588 0)
(1.84553 0.0873722 0)
(1.84791 0.128312 0)
(1.85016 0.165323 0)
(1.85209 0.19755 0)
(1.85356 0.224356 0)
(1.85447 0.245382 0)
(1.85483 0.260458 0)
(1.85478 0.269775 0)
(1.85445 0.273983 0)
(1.8533 0.274384 0)
(1.85095 0.269124 0)
(1.84766 0.257218 0)
(1.84411 0.240289 0)
(1.84055 0.2188 0)
(1.83717 0.193229 0)
(1.83422 0.164036 0)
(1.83185 0.131639 0)
(1.83018 0.0964828 0)
(1.82932 0.0591182 0)
(1.8293 0.0203101 0)
(1.83009 -0.0187026 0)
(1.83158 -0.0567345 0)
(1.83364 -0.0928428 0)
(1.83611 -0.126126 0)
(1.83884 -0.155776 0)
(1.84168 -0.181117 0)
(1.8445 -0.201678 0)
(1.8472 -0.217206 0)
(1.84966 -0.227772 0)
(1.85166 -0.23382 0)
(1.85308 -0.236131 0)
(1.85423 -0.235161 0)
(1.85499 -0.227936 0)
(1.85534 -0.215661 0)
(1.85544 -0.199031 0)
(1.85535 -0.178439 0)
(1.85512 -0.154296 0)
(1.85497 -0.127031 0)
(1.85498 -0.097109 0)
(1.85525 -0.0650477 0)
(1.85583 -0.0314926 0)
(1.8567 0.00259885 0)
(1.85779 0.0360793 0)
(1.859 0.0681264 0)
(1.86022 0.0979605 0)
(1.86134 0.124875 0)
(1.86226 0.148291 0)
(1.86293 0.167784 0)
(1.86332 0.183023 0)
(1.86344 0.193928 0)
(1.8634 0.200663 0)
(1.86325 0.203712 0)
(1.86289 0.204123 0)
(1.86185 0.200437 0)
(1.86007 0.191352 0)
(1.8581 0.178356 0)
(1.85602 0.161801 0)
(1.85397 0.142059 0)
(1.85211 0.119531 0)
(1.85056 0.0946265 0)
(1.8494 0.0677741 0)
(1.84871 0.0394646 0)
(1.84851 0.0103633 0)
(1.84879 -0.0185727 0)
(1.84949 -0.0465956 0)
(1.85055 -0.073055 0)
(1.85189 -0.0973422 0)
(1.85343 -0.118915 0)
(1.85512 -0.137317 0)
(1.85687 -0.152205 0)
(1.85862 -0.163419 0)
(1.86028 -0.171043 0)
(1.86167 -0.175399 0)
(1.86278 -0.177009 0)
(1.86379 -0.176022 0)
(1.86469 -0.170512 0)
(1.86532 -0.161147 0)
(1.86586 -0.148445 0)
(1.86606 -0.132732 0)
(1.86619 -0.114301 0)
(1.86626 -0.0935074 0)
(1.8663 -0.0707476 0)
(1.86637 -0.0464892 0)
(1.8665 -0.0212752 0)
(1.86671 0.00412193 0)
(1.86699 0.0289263 0)
(1.86727 0.0525624 0)
(1.86749 0.0745086 0)
(1.86764 0.0943092 0)
(1.86771 0.111536 0)
(1.86769 0.125841 0)
(1.86754 0.137031 0)
(1.86734 0.14504 0)
(1.86713 0.150009 0)
(1.867 0.152301 0)
(1.86694 0.152639 0)
(1.86635 0.149954 0)
(1.86538 0.143109 0)
(1.86446 0.13322 0)
(1.86329 0.120517 0)
(1.86195 0.105304 0)
(1.86067 0.0879231 0)
(1.8595 0.0687139 0)
(1.85851 0.0480452 0)
(1.85775 0.0263472 0)
(1.85724 0.00419887 0)
(1.85699 -0.0176855 0)
(1.85697 -0.0387924 0)
(1.85717 -0.0586957 0)
(1.85755 -0.0769123 0)
(1.85809 -0.0932124 0)
(1.85875 -0.107048 0)
(1.85952 -0.118544 0)
(1.86033 -0.127096 0)
(1.8611 -0.133752 0)
(1.86176 -0.136122 0)
(1.86578 0.0267137 0)
(1.86577 0.00443263 0)
(1.86576 -0.0175825 0)
(1.86576 -0.0388102 0)
(1.86575 -0.0588239 0)
(1.86573 -0.0771071 0)
(1.86566 -0.0934351 0)
(1.86549 -0.107257 0)
(1.86526 -0.118719 0)
(1.86493 -0.127216 0)
(1.86464 -0.133873 0)
(1.86427 -0.136162 0)
(0.112305 -0.000249038 0)
(0.113468 -0.000372669 0)
(0.114875 -0.000494077 0)
(0.116516 -0.000607256 0)
(0.118368 -0.000706109 0)
(0.120393 -0.000784702 0)
(0.122543 -0.000840627 0)
(0.124768 -0.000872146 0)
(0.127011 -0.000876249 0)
(0.129208 -0.000852171 0)
(0.131302 -0.000802801 0)
(0.13324 -0.0007328 0)
(0.134979 -0.000647409 0)
(0.136486 -0.000551708 0)
(0.137738 -0.000450552 0)
(0.138726 -0.000348872 0)
(0.139454 -0.000251549 0)
(0.139933 -0.00016237 0)
(0.140184 -8.34347e-05 0)
(0.14023 -1.82582e-05 0)
(0.140115 4.20389e-05 0)
(0.139866 9.10019e-05 0)
(0.139516 0.000129357 0)
(0.139093 0.000157303 0)
(0.138618 0.000175615 0)
(0.138117 0.000194827 0)
(0.137598 0.000214735 0)
(0.137071 0.000227971 0)
(0.136545 0.000238863 0)
(0.136023 0.00024977 0)
(0.135506 0.000258947 0)
(0.134996 0.000265872 0)
(0.134495 0.000271991 0)
(0.134002 0.000277573 0)
(0.133518 0.000280669 0)
(0.133048 0.000279893 0)
(0.132606 0.000274365 0)
(0.132203 0.000262654 0)
(0.13185 0.00024138 0)
(0.131564 0.000210762 0)
(0.131359 0.000182519 0)
(0.131257 0.000154239 0)
(0.131263 0.000104804 0)
(0.13139 2.15631e-05 0)
(0.131659 -5.86935e-05 0)
(0.132068 -0.000128399 0)
(0.132618 -0.000199214 0)
(0.133303 -0.000264799 0)
(0.134106 -0.000320236 0)
(0.135004 -0.00036251 0)
(0.135964 -0.000391023 0)
(0.136952 -0.000403915 0)
(0.137935 -0.000399916 0)
(0.138882 -0.000379822 0)
(0.139757 -0.000345173 0)
(0.14053 -0.000299604 0)
(0.141175 -0.000246303 0)
(0.141676 -0.000188175 0)
(0.142026 -0.000128103 0)
(0.142223 -6.72506e-05 0)
(0.14227 -1.37172e-05 0)
(0.142193 4.04125e-05 0)
(0.142 8.34721e-05 0)
(0.141715 0.00011865 0)
(0.141359 0.000145789 0)
(0.140954 0.000163232 0)
(0.140521 0.000171902 0)
(0.140076 0.000176077 0)
(0.139635 0.000179557 0)
(0.139208 0.000180295 0)
(0.138803 0.000176535 0)
(0.138427 0.000170182 0)
(0.138084 0.000162192 0)
(0.137776 0.000153146 0)
(0.137506 0.000143998 0)
(0.137272 0.000135487 0)
(0.137072 0.000127292 0)
(0.136905 0.000119641 0)
(0.136769 0.000111934 0)
(0.136667 0.000103433 0)
(0.1366 9.33932e-05 0)
(0.136569 8.16994e-05 0)
(0.13658 7.20903e-05 0)
(0.136632 6.1876e-05 0)
(0.136732 4.7624e-05 0)
(0.136878 2.33263e-05 0)
(0.137079 -1.4574e-05 0)
(0.137345 -5.70685e-05 0)
(0.137676 -8.95619e-05 0)
(0.138071 -0.000120176 0)
(0.138527 -0.000152971 0)
(0.139041 -0.000184364 0)
(0.139603 -0.000210762 0)
(0.140202 -0.000229537 0)
(0.140822 -0.000241923 0)
(0.141449 -0.00024939 0)
(0.142069 -0.000251038 0)
(0.142668 -0.000246053 0)
(0.143233 -0.000234463 0)
(0.143753 -0.000217805 0)
(0.144218 -0.000198157 0)
(0.144624 -0.000177102 0)
(0.144971 -0.000156098 0)
(0.145262 -0.00013664 0)
(0.145501 -0.000120002 0)
(0.145697 -0.000106855 0)
(0.145859 -9.72818e-05 0)
(0.145996 -9.16092e-05 0)
(0.146119 -8.91943e-05 0)
(0.146234 -8.90585e-05 0)
(0.146349 -9.0977e-05 0)
(0.146467 -9.37308e-05 0)
(0.146593 -9.46411e-05 0)
(0.146723 -9.22644e-05 0)
(0.146853 -8.69317e-05 0)
(0.146973 -7.82085e-05 0)
(0.147073 -6.22948e-05 0)
(0.14715 -4.61589e-05 0)
(0.14716 -1.47276e-06 0)
(0.147181 4.35469e-05 0)
(0.146794 0.000177331 0)
(0.355927 -0.00201609 0)
(0.358335 -0.00239204 0)
(0.360995 -0.00275396 0)
(0.363887 -0.00308394 0)
(0.366981 -0.00335988 0)
(0.370221 -0.00355925 0)
(0.37354 -0.00367541 0)
(0.376866 -0.00370512 0)
(0.380132 -0.0036425 0)
(0.383274 -0.0034872 0)
(0.386225 -0.00324788 0)
(0.388923 -0.00293657 0)
(0.391316 -0.00256775 0)
(0.393366 -0.00215861 0)
(0.395049 -0.00172778 0)
(0.396356 -0.00129411 0)
(0.397292 -0.000875311 0)
(0.397877 -0.000487321 0)
(0.398138 -0.000146116 0)
(0.398128 0.000132234 0)
(0.397885 0.000377276 0)
(0.397441 0.000563737 0)
(0.396849 0.000696237 0)
(0.396153 0.000786579 0)
(0.395387 0.000843333 0)
(0.394579 0.00087069 0)
(0.393753 0.000876892 0)
(0.392927 0.000871293 0)
(0.392121 0.000857677 0)
(0.391348 0.000837544 0)
(0.390622 0.000812301 0)
(0.389952 0.00078296 0)
(0.389343 0.000749792 0)
(0.388803 0.000711813 0)
(0.388338 0.000665538 0)
(0.387955 0.000607577 0)
(0.387664 0.000535142 0)
(0.387475 0.000444603 0)
(0.387409 0.000345541 0)
(0.387449 0.000227954 0)
(0.387619 7.95306e-05 0)
(0.387935 -9.0936e-05 0)
(0.388406 -0.000274166 0)
(0.389045 -0.000475497 0)
(0.389868 -0.000696463 0)
(0.390871 -0.000921111 0)
(0.392037 -0.0011285 0)
(0.393342 -0.00131217 0)
(0.394765 -0.00146794 0)
(0.396272 -0.00156906 0)
(0.397816 -0.00160825 0)
(0.399346 -0.00159941 0)
(0.400824 -0.00154705 0)
(0.402212 -0.00144505 0)
(0.403466 -0.00128687 0)
(0.404548 -0.00108591 0)
(0.40543 -0.00085808 0)
(0.406096 -0.000615158 0)
(0.406538 -0.000368088 0)
(0.406753 -0.000135999 0)
(0.406773 7.51873e-05 0)
(0.406605 0.000274388 0)
(0.406267 0.000438862 0)
(0.405794 0.000563456 0)
(0.405219 0.000649899 0)
(0.404574 0.000703958 0)
(0.403889 0.00072994 0)
(0.403188 0.000730383 0)
(0.402492 0.000708732 0)
(0.401821 0.000669797 0)
(0.401188 0.000620254 0)
(0.400607 0.000563595 0)
(0.400089 0.000500651 0)
(0.399645 0.000433894 0)
(0.399277 0.000366307 0)
(0.398989 0.00029932 0)
(0.398785 0.000233195 0)
(0.398663 0.000167809 0)
(0.398626 0.000106436 0)
(0.398666 4.30393e-05 0)
(0.398793 -2.02101e-05 0)
(0.398999 -8.3175e-05 0)
(0.399281 -0.000150275 0)
(0.399641 -0.000229027 0)
(0.400086 -0.000316043 0)
(0.400618 -0.000403888 0)
(0.401235 -0.000492306 0)
(0.40195 -0.000587715 0)
(0.402758 -0.000688496 0)
(0.403646 -0.00078625 0)
(0.404602 -0.000873741 0)
(0.405618 -0.000946439 0)
(0.406681 -0.00100333 0)
(0.407773 -0.00103815 0)
(0.408867 -0.00104547 0)
(0.409937 -0.00102919 0)
(0.410969 -0.000993603 0)
(0.411945 -0.000939577 0)
(0.412844 -0.000865733 0)
(0.41365 -0.000774764 0)
(0.414352 -0.000675156 0)
(0.414944 -0.000573831 0)
(0.415426 -0.000475944 0)
(0.415801 -0.000385888 0)
(0.416076 -0.000307316 0)
(0.416263 -0.000242869 0)
(0.416372 -0.000193648 0)
(0.416419 -0.000159645 0)
(0.416416 -0.000141375 0)
(0.416376 -0.000133554 0)
(0.41631 -0.00013234 0)
(0.416229 -0.000138821 0)
(0.416138 -0.00014928 0)
(0.416041 -0.000155731 0)
(0.415937 -0.000148911 0)
(0.415823 -0.000129225 0)
(0.415683 -9.63942e-05 0)
(0.41555 -5.23954e-05 0)
(0.4153 4.61281e-05 0)
(0.415219 0.00012714 0)
(0.414601 0.000453721 0)
(0.610711 -0.00463628 0)
(0.613071 -0.00524694 0)
(0.615614 -0.00583475 0)
(0.618337 -0.00637567 0)
(0.621222 -0.00682401 0)
(0.624218 -0.00712213 0)
(0.627256 -0.00726546 0)
(0.630273 -0.00726769 0)
(0.633222 -0.00711984 0)
(0.636044 -0.00680059 0)
(0.638671 -0.00632002 0)
(0.641045 -0.00570648 0)
(0.643118 -0.00498924 0)
(0.644857 -0.00419912 0)
(0.646242 -0.00337071 0)
(0.64727 -0.00253985 0)
(0.647951 -0.00174077 0)
(0.648314 -0.0010001 0)
(0.648397 -0.00034119 0)
(0.648243 0.000230398 0)
(0.647895 0.000707189 0)
(0.647402 0.00108603 0)
(0.646813 0.00136901 0)
(0.646165 0.00156511 0)
(0.645491 0.00169271 0)
(0.644824 0.00176726 0)
(0.644183 0.00179695 0)
(0.643579 0.00178502 0)
(0.643023 0.00173667 0)
(0.642515 0.00166931 0)
(0.64206 0.00157883 0)
(0.641655 0.00146982 0)
(0.641296 0.00135238 0)
(0.640979 0.00123117 0)
(0.640701 0.00109761 0)
(0.64046 0.000936971 0)
(0.640265 0.000748587 0)
(0.640117 0.000529321 0)
(0.640035 0.00028956 0)
(0.640032 2.63744e-05 0)
(0.640127 -0.000265946 0)
(0.640329 -0.000602222 0)
(0.640655 -0.000981257 0)
(0.641124 -0.00139028 0)
(0.641753 -0.00181118 0)
(0.642547 -0.0022173 0)
(0.643496 -0.00258463 0)
(0.64458 -0.00289966 0)
(0.645799 -0.00315833 0)
(0.647134 -0.0033342 0)
(0.648525 -0.00339636 0)
(0.649916 -0.00335088 0)
(0.651285 -0.00320934 0)
(0.652604 -0.00297126 0)
(0.653821 -0.00264304 0)
(0.654885 -0.00224015 0)
(0.655769 -0.00178129 0)
(0.656457 -0.0012899 0)
(0.65694 -0.000789638 0)
(0.65722 -0.000306917 0)
(0.657307 0.000137652 0)
(0.65722 0.000534547 0)
(0.656981 0.000875296 0)
(0.65662 0.00115048 0)
(0.656167 0.00134924 0)
(0.65565 0.0014741 0)
(0.655098 0.00153671 0)
(0.654535 0.00154784 0)
(0.653985 0.00151583 0)
(0.653459 0.00144844 0)
(0.652967 0.00135196 0)
(0.652522 0.0012302 0)
(0.652132 0.00108781 0)
(0.6518 0.000930283 0)
(0.651532 0.000762298 0)
(0.651324 0.000594537 0)
(0.651174 0.000427511 0)
(0.651082 0.000263586 0)
(0.651044 0.000101537 0)
(0.65106 -6.29615e-05 0)
(0.65113 -0.000233201 0)
(0.651255 -0.000401375 0)
(0.651439 -0.000566836 0)
(0.651688 -0.000736415 0)
(0.652005 -0.000916144 0)
(0.652394 -0.00110624 0)
(0.652858 -0.00130062 0)
(0.653411 -0.00153915 0)
(0.65405 -0.00173054 0)
(0.654774 -0.00190444 0)
(0.65558 -0.00206489 0)
(0.656458 -0.00220381 0)
(0.6574 -0.00230317 0)
(0.658389 -0.00235205 0)
(0.659401 -0.00235198 0)
(0.660416 -0.00230428 0)
(0.66141 -0.00220972 0)
(0.662373 -0.00207103 0)
(0.663283 -0.00189413 0)
(0.664117 -0.00168705 0)
(0.66486 -0.00145961 0)
(0.665505 -0.00122266 0)
(0.666051 -0.00098714 0)
(0.666499 -0.000763527 0)
(0.666854 -0.000560123 0)
(0.667126 -0.000383727 0)
(0.667325 -0.000233937 0)
(0.667465 -0.000117974 0)
(0.667555 -3.27763e-05 0)
(0.66761 2.93022e-05 0)
(0.667639 6.57607e-05 0)
(0.667649 8.19669e-05 0)
(0.667642 9.11804e-05 0)
(0.667617 0.000104641 0)
(0.667575 0.000125053 0)
(0.667514 0.000158852 0)
(0.667418 0.000214212 0)
(0.667318 0.000287442 0)
(0.667083 0.000428025 0)
(0.667002 0.000519907 0)
(0.666426 0.000860694 0)
(0.871948 -0.006563 0)
(0.873777 -0.00730716 0)
(0.875685 -0.00803732 0)
(0.877692 -0.00872412 0)
(0.879809 -0.00929902 0)
(0.881947 -0.00967285 0)
(0.884027 -0.00982747 0)
(0.886048 -0.00976566 0)
(0.888006 -0.00949752 0)
(0.889844 -0.00902971 0)
(0.891487 -0.00835331 0)
(0.892881 -0.00749163 0)
(0.893993 -0.00648851 0)
(0.894797 -0.00539016 0)
(0.895283 -0.00424295 0)
(0.895451 -0.00309396 0)
(0.895322 -0.00199149 0)
(0.894932 -0.000976641 0)
(0.894335 -8.6892e-05 0)
(0.893591 0.000657152 0)
(0.892761 0.00124986 0)
(0.891904 0.00169141 0)
(0.891072 0.00199283 0)
(0.890307 0.00217101 0)
(0.889639 0.00224458 0)
(0.889084 0.00223395 0)
(0.888654 0.00216652 0)
(0.888353 0.00206931 0)
(0.888174 0.00195072 0)
(0.888104 0.0018169 0)
(0.888135 0.00168005 0)
(0.888238 0.00155041 0)
(0.888383 0.00142728 0)
(0.888538 0.0013135 0)
(0.888677 0.00119551 0)
(0.888782 0.00106116 0)
(0.888837 0.000901501 0)
(0.888835 0.000696498 0)
(0.888773 0.00043759 0)
(0.888667 0.00012682 0)
(0.888548 -0.000229401 0)
(0.888436 -0.000628275 0)
(0.888358 -0.00108432 0)
(0.888337 -0.00159225 0)
(0.888401 -0.00213847 0)
(0.888563 -0.0026799 0)
(0.888821 -0.00317082 0)
(0.889184 -0.0036168 0)
(0.889659 -0.00405335 0)
(0.890233 -0.00432641 0)
(0.890864 -0.00443058 0)
(0.891498 -0.00440481 0)
(0.892128 -0.00427905 0)
(0.892732 -0.00405443 0)
(0.893272 -0.00363051 0)
(0.89371 -0.00308914 0)
(0.89402 -0.00248107 0)
(0.89419 -0.0018304 0)
(0.894215 -0.00116734 0)
(0.894102 -0.000523283 0)
(0.89387 7.30926e-05 0)
(0.893542 0.000599537 0)
(0.893153 0.00104082 0)
(0.892736 0.00138657 0)
(0.892324 0.00163335 0)
(0.891941 0.00178839 0)
(0.891607 0.00185871 0)
(0.891337 0.00185494 0)
(0.891137 0.00180617 0)
(0.89101 0.00171369 0)
(0.890959 0.00158293 0)
(0.890981 0.00142428 0)
(0.891069 0.00124608 0)
(0.891209 0.00105726 0)
(0.891387 0.000866273 0)
(0.891589 0.000678763 0)
(0.891794 0.000497296 0)
(0.891993 0.000317941 0)
(0.89217 0.000143637 0)
(0.892317 -2.85136e-05 0)
(0.89243 -0.000204404 0)
(0.892504 -0.000388832 0)
(0.892536 -0.000585359 0)
(0.892542 -0.000798318 0)
(0.892541 -0.00102717 0)
(0.892546 -0.00127004 0)
(0.892569 -0.00152816 0)
(0.892625 -0.00180332 0)
(0.892714 -0.00207678 0)
(0.892848 -0.00233226 0)
(0.89304 -0.00256883 0)
(0.893297 -0.00277007 0)
(0.893616 -0.00296367 0)
(0.893975 -0.00307571 0)
(0.894354 -0.00309722 0)
(0.894742 -0.0030682 0)
(0.895132 -0.00298857 0)
(0.89551 -0.00285786 0)
(0.895866 -0.00265319 0)
(0.896186 -0.00238396 0)
(0.896457 -0.00209169 0)
(0.896676 -0.00179089 0)
(0.896848 -0.00149332 0)
(0.896978 -0.00121018 0)
(0.897078 -0.000952397 0)
(0.897164 -0.000727751 0)
(0.897251 -0.000542392 0)
(0.897355 -0.000396458 0)
(0.897487 -0.000292597 0)
(0.89766 -0.000223582 0)
(0.897883 -0.000178845 0)
(0.898156 -0.000147959 0)
(0.89847 -0.000122102 0)
(0.898821 -9.19172e-05 0)
(0.899193 -4.90068e-05 0)
(0.899582 2.75074e-05 0)
(0.899948 0.000114615 0)
(0.90031 0.000248448 0)
(0.900585 0.000423388 0)
(0.900884 0.000621093 0)
(0.900998 0.00108076 0)
(1.12018 -0.00815387 0)
(1.12079 -0.00893104 0)
(1.12141 -0.00969467 0)
(1.12208 -0.0104383 0)
(1.12277 -0.0110758 0)
(1.12352 -0.011326 0)
(1.12424 -0.0113489 0)
(1.12489 -0.0112571 0)
(1.12549 -0.0109673 0)
(1.12601 -0.0103089 0)
(1.1264 -0.00938799 0)
(1.12659 -0.0082534 0)
(1.12653 -0.00694825 0)
(1.12619 -0.00552874 0)
(1.12556 -0.00405988 0)
(1.12464 -0.00261 0)
(1.12346 -0.00124997 0)
(1.1221 -4.62198e-05 0)
(1.12061 0.000960701 0)
(1.11908 0.00175711 0)
(1.11757 0.00233568 0)
(1.11618 0.00270512 0)
(1.11497 0.00288312 0)
(1.114 0.00290069 0)
(1.1133 0.00281121 0)
(1.11288 0.00266992 0)
(1.11273 0.00247472 0)
(1.11288 0.00223363 0)
(1.11329 0.00197639 0)
(1.11393 0.00171977 0)
(1.11477 0.00147497 0)
(1.11574 0.00126203 0)
(1.11677 0.00109456 0)
(1.1178 0.000975457 0)
(1.11875 0.000896156 0)
(1.11957 0.000822371 0)
(1.12021 0.000732754 0)
(1.12065 0.000641642 0)
(1.12092 0.000518004 0)
(1.12102 0.000302596 0)
(1.12092 1.29025e-05 0)
(1.12064 -0.000357717 0)
(1.12018 -0.00082015 0)
(1.11962 -0.00136684 0)
(1.11902 -0.00197557 0)
(1.11841 -0.00260485 0)
(1.11784 -0.00318942 0)
(1.11732 -0.00371789 0)
(1.11687 -0.00421277 0)
(1.11645 -0.00455156 0)
(1.11605 -0.00462271 0)
(1.1157 -0.00458481 0)
(1.11535 -0.00445422 0)
(1.11497 -0.00413731 0)
(1.11451 -0.00363748 0)
(1.11399 -0.0030058 0)
(1.11338 -0.0022796 0)
(1.11265 -0.00150305 0)
(1.11182 -0.000722613 0)
(1.11091 1.82076e-05 0)
(1.10993 0.000678321 0)
(1.10893 0.0012297 0)
(1.10795 0.00165683 0)
(1.10704 0.00195044 0)
(1.10624 0.00211447 0)
(1.1056 0.00216403 0)
(1.10514 0.00212115 0)
(1.10487 0.00200846 0)
(1.10479 0.00183215 0)
(1.10493 0.0016161 0)
(1.10526 0.00137262 0)
(1.10575 0.00111428 0)
(1.10639 0.000855245 0)
(1.10715 0.000608217 0)
(1.10798 0.000384197 0)
(1.10886 0.000189984 0)
(1.10975 2.82596e-05 0)
(1.11059 -0.000102873 0)
(1.11136 -0.00021277 0)
(1.11202 -0.000313238 0)
(1.11254 -0.000408499 0)
(1.11291 -0.000491497 0)
(1.11315 -0.000581579 0)
(1.11325 -0.000714887 0)
(1.1132 -0.000884002 0)
(1.11302 -0.00109026 0)
(1.11272 -0.00133647 0)
(1.11234 -0.00161841 0)
(1.11191 -0.00191839 0)
(1.11145 -0.00221315 0)
(1.111 -0.00249776 0)
(1.11056 -0.00278207 0)
(1.11013 -0.00298127 0)
(1.10971 -0.00307683 0)
(1.10931 -0.00310183 0)
(1.10891 -0.00306397 0)
(1.10852 -0.00296634 0)
(1.10811 -0.0028036 0)
(1.10767 -0.0025774 0)
(1.10721 -0.00228458 0)
(1.10671 -0.00195794 0)
(1.10619 -0.0016215 0)
(1.10563 -0.00129717 0)
(1.10508 -0.00100392 0)
(1.10453 -0.000757677 0)
(1.10402 -0.000570898 0)
(1.10357 -0.000444298 0)
(1.10322 -0.00037458 0)
(1.10298 -0.000355585 0)
(1.10287 -0.000382586 0)
(1.1029 -0.000447631 0)
(1.10309 -0.0005165 0)
(1.10344 -0.000585098 0)
(1.10392 -0.000632177 0)
(1.10453 -0.000645592 0)
(1.10524 -0.000610854 0)
(1.10603 -0.000520429 0)
(1.10685 -0.000362072 0)
(1.10771 -0.000135678 0)
(1.10842 7.83701e-05 0)
(1.10948 0.000629218 0)
(1.33053 -0.00775341 0)
(1.32972 -0.00847815 0)
(1.32874 -0.00925383 0)
(1.32769 -0.0100725 0)
(1.32656 -0.0107592 0)
(1.32539 -0.0110815 0)
(1.3243 -0.0111516 0)
(1.32324 -0.011001 0)
(1.32215 -0.0106437 0)
(1.32099 -0.0100219 0)
(1.31975 -0.00899755 0)
(1.31841 -0.00768603 0)
(1.31693 -0.00615546 0)
(1.31527 -0.00447842 0)
(1.31342 -0.00274345 0)
(1.3114 -0.00105003 0)
(1.30926 0.000503733 0)
(1.30703 0.00184356 0)
(1.30477 0.00291912 0)
(1.30256 0.00369899 0)
(1.30049 0.00416781 0)
(1.29866 0.00433041 0)
(1.29714 0.00422072 0)
(1.29601 0.00391484 0)
(1.2953 0.00347076 0)
(1.29504 0.00288421 0)
(1.29527 0.00221238 0)
(1.29595 0.00152171 0)
(1.29705 0.000863742 0)
(1.29855 0.000283858 0)
(1.30041 -0.000181205 0)
(1.30254 -0.000507734 0)