/*--------------------------------*- C++ -*----------------------------------*\
| =========                 |                                                 |
| \\      /  F ield         | OpenFOAM: The Open Source CFD Toolbox           |
|  \\    /   O peration     | Version:  2206                                  |
|   \\  /    A nd           | Website:  www.openfoam.com                      |
|    \\/     M anipulation  |                                                 |
\*---------------------------------------------------------------------------*/
FoamFile
{
    version     2.0;
    format      ascii;
    arch        "LSB;label=32;scalar=64";
    class       volScalarField;
    location    "19.2999";
    object      p;
}
// * * * * * * * * * * * * * * * * * * * * * * * * * * * * * * * * * * * * * //

dimensions      [0 2 -2 0 0 0 0];

internalField   nonuniform List<scalar> 
4866
(
-1.04072
-0.916901
-1.08122
-0.932869
-1.2147
-1.11676
-1.00101
-1.18872
-1.10882
-1.0156
-1.10495
-1.04346
-0.972279
-1.0029
-0.958524
-0.906307
-0.912918
-0.877199
-0.835987
-0.832048
-0.804185
-0.771728
-0.765835
-0.743205
-0.716441
-0.71012
-0.690295
-0.66717
-0.661524
-0.643902
-0.623643
-0.619105
-0.603216
-0.585084
-0.581401
-0.566911
-0.550507
-0.547667
-0.534423
-0.519515
-0.517275
-0.505153
-0.49156
-0.489743
-0.478662
-0.466266
-0.464697
-0.454596
-0.443308
-0.441827
-0.432657
-0.422407
-0.420887
-0.412606
-0.403337
-0.40166
-0.394233
-0.385899
-0.383966
-0.377362
-0.369923
-0.367636
-0.361829
-0.355256
-0.352539
-0.347513
-0.341781
-0.338443
-0.33417
-0.329244
-0.325296
-0.321789
-0.31768
-0.313189
-0.310502
-0.307248
-0.30209
-0.300306
-0.297977
-0.292737
-0.29191
-0.290583
-0.285957
-0.286044
-0.28546
-0.285003
-0.286284
-0.286511
-0.749828
-0.686418
-0.698659
-0.745437
-0.802102
-0.855704
-0.894562
-0.907402
-0.88982
-0.845067
-0.780083
-0.70191
-0.618444
-0.537369
-0.462621
-0.39498
-0.335614
-0.284992
-0.242637
-0.207697
-0.179331
-0.156706
-0.13905
-0.125468
-0.115252
-0.108438
-0.106096
-0.108752
-0.113716
-0.118346
-0.120565
-0.119279
-0.114453
-0.106504
-0.0963429
-0.0853735
-0.074798
-0.0655616
-0.0583727
-0.0536636
-0.0516442
-0.0523523
-0.0557174
-0.0616332
-0.0701169
-0.081404
-0.0953473
-0.111867
-0.131673
-0.155413
-0.183535
-0.217471
-0.259247
-0.30667
-0.355611
-0.411077
-0.466897
-0.518295
-0.561038
-0.590733
-0.604246
-0.601595
-0.583694
-0.553231
-0.513578
-0.468224
-0.420409
-0.372789
-0.326835
-0.282725
-0.243374
-0.210176
-0.181611
-0.156997
-0.136081
-0.118452
-0.103689
-0.0914463
-0.0814615
-0.0735905
-0.0677101
-0.0636676
-0.0613977
-0.0608932
-0.0621579
-0.0651758
-0.0698656
-0.0760369
-0.0833707
-0.0914339
-0.0997126
-0.107676
-0.114845
-0.120789
-0.125215
-0.128014
-0.128295
-0.126901
-0.12428
-0.119595
-0.113602
-0.106703
-0.0992428
-0.0916002
-0.0841308
-0.0771507
-0.0709127
-0.0656044
-0.0613809
-0.0583649
-0.0566553
-0.0563328
-0.0574616
-0.0601195
-0.0644325
-0.0705484
-0.0786155
-0.0889235
-0.101614
-0.116264
-0.132966
-0.151634
-0.171902
-0.19331
-0.215247
-0.236959
-0.257584
-0.276189
-0.291836
-0.303653
-0.310912
-0.313154
-0.310461
-0.303015
-0.291332
-0.276097
-0.258106
-0.786399
-0.738472
-0.753198
-0.785891
-0.818275
-0.84445
-0.855682
-0.846261
-0.815486
-0.765534
-0.701347
-0.629359
-0.556652
-0.486314
-0.419966
-0.359399
-0.305622
-0.258743
-0.218377
-0.184023
-0.155085
-0.130942
-0.11102
-0.0946722
-0.0811398
-0.0699839
-0.0614291
-0.0564991
-0.0558226
-0.0573835
-0.0585095
-0.0578415
-0.055091
-0.0504666
-0.0442777
-0.0372932
-0.0306522
-0.0251786
-0.0214613
-0.019868
-0.0206037
-0.0237318
-0.0292144
-0.0369862
-0.0471001
-0.0597436
-0.0747662
-0.0921414
-0.112557
-0.136598
-0.164789
-0.198697
-0.239283
-0.284868
-0.3348
-0.388773
-0.442884
-0.49283
-0.534248
-0.562944
-0.575929
-0.573185
-0.555686
-0.526084
-0.487621
-0.443686
-0.397388
-0.35105
-0.305679
-0.262807
-0.225554
-0.193663
-0.165931
-0.14206
-0.121684
-0.10437
-0.089729
-0.0774592
-0.0673053
-0.0590985
-0.0527474
-0.0481126
-0.0450915
-0.0436649
-0.0438315
-0.0455764
-0.0488355
-0.0534525
-0.0591558
-0.0655665
-0.0722367
-0.0787058
-0.0845445
-0.0893883
-0.0929986
-0.0952485
-0.0957354
-0.0947219
-0.0924588
-0.0887844
-0.084066
-0.0786128
-0.0727216
-0.066709
-0.0608736
-0.0554754
-0.0507263
-0.0468082
-0.0438685
-0.0420243
-0.0413731
-0.0419987
-0.0439826
-0.0474266
-0.0524677
-0.0592561
-0.0679621
-0.078864
-0.0921171
-0.107383
-0.124537
-0.143634
-0.16433
-0.186127
-0.208406
-0.23041
-0.251267
-0.270044
-0.285799
-0.297659
-0.304898
-0.307077
-0.30428
-0.296699
-0.284875
-0.269507
-0.251395
-0.894008
-0.834902
-0.817925
-0.816841
-0.816535
-0.813609
-0.801797
-0.776401
-0.737206
-0.685692
-0.626318
-0.564075
-0.500964
-0.439099
-0.380568
-0.326716
-0.278041
-0.234583
-0.19627
-0.16283
-0.133838
-0.108835
-0.0874041
-0.0690998
-0.0533799
-0.0397072
-0.0277981
-0.0178531
-0.0107391
-0.00746329
-0.00670536
-0.00577463
-0.00398453
-0.00135335
0.00208896
0.00607904
0.00982503
0.0125198
0.0136304
0.0128451
0.00999002
0.00500196
-0.00210572
-0.0112972
-0.0226156
-0.0361728
-0.0518503
-0.0696474
-0.0901676
-0.113955
-0.141747
-0.174986
-0.213699
-0.257262
-0.305342
-0.356473
-0.407605
-0.454879
-0.494105
-0.521299
-0.533929
-0.531501
-0.515198
-0.48751
-0.45142
-0.410093
-0.366369
-0.322145
-0.278684
-0.238734
-0.20412
-0.174036
-0.147765
-0.125077
-0.105574
-0.0888439
-0.0745726
-0.0624891
-0.05236
-0.0440068
-0.0373461
-0.0322791
-0.0286816
-0.0265145
-0.0257713
-0.0264419
-0.0284859
-0.031784
-0.0361122
-0.0411452
-0.0464879
-0.0517278
-0.0564865
-0.0604555
-0.0634164
-0.0652117
-0.0657057
-0.0649873
-0.0631488
-0.0602764
-0.0565804
-0.0523056
-0.0477034
-0.0430318
-0.0385361
-0.0344326
-0.0309135
-0.0281416
-0.026251
-0.0253525
-0.0255424
-0.0269106
-0.0295538
-0.0335914
-0.039169
-0.0464394
-0.0555784
-0.0668388
-0.0803193
-0.0957403
-0.113027
-0.132202
-0.152917
-0.174677
-0.196877
-0.218763
-0.239462
-0.258051
-0.273612
-0.285294
-0.292403
-0.294573
-0.291787
-0.284297
-0.272645
-0.257517
-0.239695
-0.928271
-0.865374
-0.828714
-0.806065
-0.786249
-0.765301
-0.739304
-0.705111
-0.662927
-0.614927
-0.562603
-0.5076
-0.452009
-0.397723
-0.346103
-0.297894
-0.253485
-0.213123
-0.176837
-0.144472
-0.115767
-0.0904019
-0.0680649
-0.0484211
-0.0311123
-0.0157908
-0.00209502
0.0101532
0.0208113
0.0293294
0.0343168
0.0367887
0.0387024
0.0403852
0.0420678
0.0441303
0.0458582
0.0464438
0.0457049
0.0433376
0.0390605
0.0328031
0.024593
0.0144766
0.00244264
-0.0115589
-0.0274569
-0.0452595
-0.0654654
-0.088642
-0.115613
-0.147189
-0.183417
-0.224237
-0.269072
-0.316473
-0.363815
-0.407618
-0.444013
-0.469282
-0.481575
-0.479881
-0.465399
-0.440379
-0.407498
-0.369618
-0.329191
-0.287933
-0.247854
-0.211691
-0.180096
-0.152298
-0.127934
-0.106745
-0.0883426
-0.0724211
-0.0587148
-0.0469876
-0.0370388
-0.0287027
-0.0218814
-0.0165156
-0.0124977
-0.00975885
-0.00828756
-0.0080815
-0.00911123
-0.0112983
-0.0144692
-0.0183526
-0.0226048
-0.0268547
-0.0307563
-0.0340299
-0.0364791
-0.0379709
-0.0384343
-0.0379226
-0.0364873
-0.0342434
-0.0313554
-0.0280184
-0.0244413
-0.0208364
-0.0174068
-0.0143403
-0.0118031
-0.00993844
-0.00886797
-0.00869727
-0.00952211
-0.0114377
-0.0145499
-0.0189855
-0.0248881
-0.0324074
-0.0417221
-0.0530608
-0.0664633
-0.0817266
-0.0988186
-0.117703
-0.138051
-0.159379
-0.181065
-0.202386
-0.222525
-0.240597
-0.255716
-0.267067
-0.27398
-0.276169
-0.273538
-0.266374
-0.255207
-0.240686
-0.223559
-0.902792
-0.845017
-0.802001
-0.769376
-0.740952
-0.711775
-0.678252
-0.640872
-0.600435
-0.556127
-0.508726
-0.459767
-0.410732
-0.362751
-0.316618
-0.272946
-0.232189
-0.194597
-0.160234
-0.129036
-0.100858
-0.0754983
-0.052727
-0.0322885
-0.0139049
0.00266419
0.0176192
0.0311613
0.0433221
0.0540553
0.0629728
0.0688241
0.0723021
0.0744943
0.0757804
0.0766022
0.076797
0.0761468
0.0741086
0.0706754
0.0655579
0.0586669
0.0499457
0.0394363
0.027175
0.0131736
-0.00251414
-0.0199393
-0.0394768
-0.061657
-0.087137
-0.11647
-0.149935
-0.187492
-0.228549
-0.271733
-0.314767
-0.354629
-0.387875
-0.411117
-0.422978
-0.422206
-0.409868
-0.387897
-0.358657
-0.32465
-0.287988
-0.25061
-0.214968
-0.182938
-0.15459
-0.129445
-0.107233
-0.0876972
-0.0705807
-0.0556376
-0.0426404
-0.0313957
-0.0217412
-0.0135385
-0.00668429
-0.00113537
0.00318141
0.00635224
0.00839118
0.00929726
0.00908686
0.00781755
0.00560862
0.00267611
-0.000684835
-0.00414143
-0.00737305
-0.0101156
-0.0121833
-0.0134616
-0.0139001
-0.0135569
-0.0124537
-0.0107018
-0.00844433
-0.00584048
-0.00306353
-0.000290889
0.00230556
0.00456612
0.00634808
0.00752477
0.00798498
0.00762892
0.00636219
0.00408752
0.000695684
-0.00393988
-0.00995839
-0.0175075
-0.0267675
-0.0379325
-0.0509845
-0.0657959
-0.082377
-0.100636
-0.120232
-0.140717
-0.161529
-0.181964
-0.201237
-0.218515
-0.232972
-0.243846
-0.250519
-0.252747
-0.250413
-0.243799
-0.233398
-0.219814
-0.203736
-0.853305
-0.804295
-0.760612
-0.723236
-0.690465
-0.657891
-0.623475
-0.586953
-0.54823
-0.507075
-0.464132
-0.420318
-0.376492
-0.333374
-0.291602
-0.251715
-0.214092
-0.178955
-0.146403
-0.116431
-0.088965
-0.0638858
-0.0410303
-0.0202126
-0.00123224
0.0160895
0.0319007
0.0463585
0.0595554
0.0713048
0.0816459
0.0905003
0.0966393
0.100187
0.10182
0.104054
0.103715
0.100217
0.098139
0.0947369
0.0891461
0.0819478
0.0731163
0.0627015
0.0507214
0.0371767
0.0220989
0.0054294
-0.0131236
-0.0339731
-0.0576095
-0.0845721
-0.115132
-0.149214
-0.186287
-0.225121
-0.263752
-0.299587
-0.329605
-0.350834
-0.362152
-0.362269
-0.35204
-0.333122
-0.307573
-0.277538
-0.245032
-0.212318
-0.181572
-0.153749
-0.128764
-0.106354
-0.0863453
-0.0685697
-0.0528373
-0.038955
-0.0267491
-0.0160712
-0.00679399
0.0011919
0.0079773
0.0136124
0.0181358
0.0216154
0.024082
0.0255367
0.0259842
0.0254592
0.0240482
0.0219068
0.0192775
0.0164548
0.013738
0.0113856
0.00958285
0.00843844
0.0079973
0.00819259
0.00901851
0.010383
0.0121535
0.0141933
0.0163577
0.0184973
0.0204661
0.0221257
0.0233509
0.024032
0.0240682
0.0233653
0.021831
0.0193685
0.0158693
0.0112105
0.00525936
-0.00212881
-0.0111271
-0.0218819
-0.0343358
-0.0484456
-0.0642376
-0.0815598
-0.100113
-0.119481
-0.13912
-0.158376
-0.17652
-0.192785
-0.206417
-0.216721
-0.223133
-0.225444
-0.223536
-0.217662
-0.208266
-0.195887
-0.181147
-0.793203
-0.751589
-0.712753
-0.677061
-0.643665
-0.610826
-0.57709
-0.541815
-0.504984
-0.46679
-0.427547
-0.387751
-0.347965
-0.308733
-0.27056
-0.233862
-0.198943
-0.166008
-0.135168
-0.106455
-0.07984
-0.0552547
-0.0325898
-0.0117085
0.00752903
0.0252522
0.0415666
0.0565534
0.0702815
0.0827809
0.0938126
0.103353
0.111764
0.118464
0.122428
0.124034
0.123432
0.12156
0.118597
0.114098
0.109011
0.102481
0.0939857
0.0839251
0.0725039
0.0597228
0.0455587
0.0299303
0.0125833
-0.00675323
-0.0284695
-0.0530663
-0.0807605
-0.111444
-0.144628
-0.179269
-0.213685
-0.245623
-0.272366
-0.291842
-0.302387
-0.30315
-0.294733
-0.27859
-0.256529
-0.230464
-0.202519
-0.174891
-0.148996
-0.125216
-0.103506
-0.0837861
-0.0659703
-0.0499512
-0.0356024
-0.0227946
-0.0114074
-0.00133079
0.00752983
0.0152538
0.0219096
0.0275483
0.0321882
0.0358691
0.0386406
0.0405116
0.0414809
0.0415602
0.0408051
0.0393271
0.0373112
0.0350096
0.0326968
0.0306257
0.0289905
0.0279066
0.0274207
0.0274951
0.0280734
0.0291208
0.0305125
0.0321224
0.0338249
0.0354926
0.0370013
0.038233
0.0390753
0.0394266
0.0391966
0.0382997
0.0366468
0.0341436
0.0306851
0.0261555
0.0204294
0.0133656
0.0048096
-0.00531608
-0.0169808
-0.0302082
-0.0449865
-0.0611564
-0.0784413
-0.0964541
-0.114695
-0.132569
-0.149411
-0.164526
-0.177237
-0.18692
-0.193077
-0.195528
-0.194152
-0.189166
-0.180949
-0.169973
-0.156778
-0.737173
-0.702211
-0.667906
-0.634662
-0.60228
-0.570019
-0.537161
-0.503439
-0.468802
-0.433295
-0.397098
-0.36056
-0.32409
-0.288094
-0.252951
-0.218982
-0.18644
-0.155507
-0.126293
-0.0988486
-0.0731771
-0.0492422
-0.0269746
-0.00628095
0.0129341
0.0307626
0.0472868
0.0625697
0.0766438
0.0895356
0.101232
0.111357
0.119922
0.127222
0.133446
0.137743
0.139374
0.13793
0.134996
0.131541
0.125874
0.118808
0.111193
0.102338
0.0920131
0.0802854
0.0671767
0.0527018
0.0366559
0.0188585
-0.000997562
-0.023367
-0.0484306
-0.076055
-0.105777
-0.136691
-0.167313
-0.195583
-0.218996
-0.236488
-0.245968
-0.247002
-0.239943
-0.22606
-0.207221
-0.185298
-0.162261
-0.139674
-0.118248
-0.0981831
-0.0795502
-0.0623765
-0.0466447
-0.0323051
-0.0192895
-0.00752268
0.00307
0.0125566
0.020997
0.028442
0.0349356
0.0405169
0.0452078
0.0490249
0.0520077
0.0541807
0.0555461
0.0561078
0.0558891
0.0549648
0.053476
0.0516199
0.0496397
0.0477799
0.0462435
0.0451621
0.0445948
0.0445459
0.0449043
0.0456775
0.0467665
0.0480477
0.0494069
0.0507316
0.0519123
0.0528467
0.0534392
0.0535977
0.0532349
0.0522688
0.0506187
0.0481959
0.044901
0.0406258
0.0352518
0.0286461
0.0206895
0.0113494
0.000596569
-0.0116117
-0.0252201
-0.0400767
-0.0559354
-0.0724467
-0.0891603
-0.105541
-0.120993
-0.134898
-0.146655
-0.155712
-0.161638
-0.164283
-0.163522
-0.159519
-0.15259
-0.143134
-0.131608
-0.6871
-0.656499
-0.625583
-0.5948
-0.564199
-0.53351
-0.502387
-0.470612
-0.438137
-0.405033
-0.371474
-0.337716
-0.304058
-0.270814
-0.238276
-0.206694
-0.176275
-0.147179
-0.11951
-0.0933271
-0.0686534
-0.045477
-0.0237564
-0.00343205
0.0155603
0.0332843
0.0497957
0.0651359
0.079321
0.092338
0.104185
0.114911
0.124268
0.131688
0.137764
0.142617
0.146387
0.148457
0.148342
0.145274
0.13949
0.133536
0.126767
0.11801
0.108534
0.0981176
0.0862027
0.0729524
0.0582477
0.0419248
0.0237108
0.00323919
-0.0196009
-0.0446585
-0.0714698
-0.0991558
-0.126274
-0.150936
-0.171483
-0.186124
-0.193819
-0.194766
-0.18871
-0.176683
-0.16125
-0.143803
-0.125601
-0.107553
-0.0900424
-0.0732894
-0.0574458
-0.042596
-0.0287728
-0.0159776
-0.0041927
0.00660971
0.0164606
0.0253908
0.033429
0.040601
0.0469282
0.0524311
0.0571289
0.061033
0.0641621
0.0665451
0.0681979
0.0691268
0.0693437
0.0688742
0.0678345
0.0663898
0.0647075
0.0630214
0.0615459
0.0604328
0.0597604
0.0595499
0.0597391
0.0602593
0.0610882
0.0621081
0.0632067
0.0642825
0.0652372
0.0659783
0.0664204
0.0664834
0.0660888
0.0651568
0.063608
0.0613598
0.0583223
0.0543955
0.0494678
0.043426
0.0361949
0.0277229
0.0179474
0.00686057
-0.00547579
-0.0189302
-0.0332841
-0.0482269
-0.0633609
-0.0782141
-0.0922632
-0.104966
-0.115797
-0.124263
-0.129985
-0.132874
-0.132805
-0.129841
-0.124238
-0.116342
-0.106525
-0.641711
-0.614765
-0.587022
-0.558824
-0.530323
-0.501475
-0.47214
-0.442243
-0.411804
-0.380912
-0.349713
-0.318402
-0.287207
-0.256366
-0.226112
-0.196651
-0.168152
-0.140753
-0.114549
-0.0896054
-0.0659549
-0.0436037
-0.0225314
-0.00270469
0.0159163
0.0333726
0.049701
0.0649289
0.0790729
0.0921351
0.104085
0.11485
0.1244
0.132833
0.139562
0.144222
0.147649
0.150241
0.151769
0.151818
0.149994
0.145816
0.139326
0.131007
0.122573
0.113179
0.10169
0.0893086
0.075859
0.060823
0.0439082
0.0249655
0.00396685
-0.0188707
-0.0429844
-0.0674805
-0.0909844
-0.112024
-0.129145
-0.140024
-0.145026
-0.147627
-0.142916
-0.131827
-0.1202
-0.107167
-0.0932096
-0.0789799
-0.0648074
-0.0509374
-0.0375483
-0.0247544
-0.0126269
-0.00120884
0.00947626
0.0194161
0.0286047
0.0370391
0.0447193
0.0516467
0.0578224
0.0632482
0.0679297
0.0718799
0.0751133
0.0776462
0.0794994
0.0806923
0.0812434
0.0811532
0.080471
0.0793848
0.0780257
0.0765153
0.0750886
0.0739283
0.0731348
0.0727461
0.0727567
0.0730763
0.0736625
0.0744575
0.0753511
0.0762426
0.0770414
0.0776628
0.0780286
0.0780661
0.0777049
0.0768747
0.0755002
0.0735014
0.0707924
0.0672789
0.0628645
0.0574727
0.0510284
0.0434534
0.0347097
0.0247994
0.0137727
0.00174531
-0.0110914
-0.0244682
-0.0380409
-0.0514019
-0.0640986
-0.0756605
-0.0856331
-0.0935861
-0.0991592
-0.102267
-0.102968
-0.101056
-0.0967358
-0.0903931
-0.0822697
-0.601242
-0.577214
-0.552103
-0.526232
-0.49979
-0.472835
-0.445364
-0.417386
-0.38895
-0.360151
-0.331117
-0.302009
-0.273011
-0.244313
-0.216103
-0.188548
-0.161797
-0.13597
-0.111156
-0.0874169
-0.0647926
-0.0433022
-0.0229428
-0.0036988
0.0144517
0.0315335
0.0475689
0.0625741
0.0765549
0.0895028
0.1014
0.11222
0.121909
0.130406
0.137592
0.143466
0.147667
0.150099
0.150949
0.150878
0.150188
0.148251
0.144602
0.139187
0.132059
0.123194
0.112877
0.101456
0.0887623
0.074522
0.0586074
0.0409705
0.021668
0.000992211
-0.0203251
-0.041168
-0.0603607
-0.0773015
-0.0902863
-0.0971335
-0.10314
-0.105589
-0.100297
-0.0932909
-0.0852769
-0.0757708
-0.0652296
-0.0541221
-0.0427445
-0.0313255
-0.0200414
-0.00902261
0.00163281
0.0118526
0.021582
0.0307762
0.0393979
0.0474141
0.0547981
0.0615277
0.0675838
0.0729519
0.077623
0.0815987
0.0848935
0.0875311
0.0895314
0.0909107
0.0916976
0.0919122
0.0915485
0.0907204
0.0896417
0.0883847
0.0870399
0.0858366
0.0849247
0.0843621
0.0841607
0.0842969
0.084681
0.0852582
0.0859705
0.0867162
0.0874051
0.0879581
0.0883017
0.0883672
0.088089
0.0874019
0.0862388
0.0845271
0.0821855
0.0791286
0.0752857
0.0705847
0.064939
0.0582863
0.0505947
0.0418627
0.0321335
0.0215067
0.010145
-0.0017223
-0.0138034
-0.0257538
-0.0371899
-0.0477114
-0.0569536
-0.064552
-0.0698366
-0.0730307
-0.0749169
-0.0741614
-0.0708002
-0.0659376
-0.0594501
-0.564995
-0.543317
-0.520485
-0.49676
-0.47232
-0.447269
-0.421668
-0.395572
-0.369054
-0.342214
-0.315172
-0.288067
-0.261054
-0.234288
-0.207926
-0.182109
-0.156964
-0.132598
-0.109096
-0.0865205
-0.0649102
-0.0442917
-0.0246767
-0.00606437
0.011553
0.028188
0.0438519
0.0585515
0.0722872
0.0850517
0.0968272
0.107582
0.117271
0.125854
0.133291
0.139495
0.144366
0.147761
0.149535
0.149956
0.148856
0.146333
0.142668
0.138032
0.132267
0.12519
0.116699
0.106678
0.0951485
0.0821313
0.0676767
0.0519198
0.0351319
0.0176796
6.92057e-05
-0.0168023
-0.032197
-0.045382
-0.0542323
-0.060687
-0.0662746
-0.0675058
-0.0654205
-0.061459
-0.0560476
-0.0492893
-0.0414632
-0.0328959
-0.0238316
-0.0144665
-0.00496438
0.00453931
0.0139331
0.0231275
0.0320454
0.0406168
0.0487769
0.0564645
0.063628
0.0702216
0.0762058
0.0815501
0.0862331
0.090246
0.0935925
0.0962925
0.0983792
0.0998853
0.10084
0.101268
0.101177
0.100603
0.0996982
0.0986537
0.0975081
0.0963204
0.0953045
0.0945793
0.094171
0.0940862
0.0942831
0.0946822
0.0952163
0.0958258
0.0964229
0.096929
0.0972756
0.0973994
0.0972387
0.0967312
0.0958131
0.0944167
0.0924675
0.0898971
0.0866483
0.0826414
0.0777949
0.0720568
0.0653955
0.0578065
0.0493243
0.0400305
0.0300601
0.0196041
0.00890706
-0.00174126
-0.0120192
-0.021593
-0.0301563
-0.0374158
-0.04272
-0.0460286
-0.048897
-0.0493528
-0.046814
-0.0433456
-0.0384139
-0.532362
-0.512721
-0.491918
-0.470161
-0.447616
-0.424403
-0.400613
-0.376329
-0.351637
-0.326639
-0.301448
-0.276188
-0.25099
-0.225989
-0.201315
-0.177093
-0.153432
-0.130429
-0.108165
-0.0867022
-0.06608
-0.0463294
-0.0274694
-0.00950941
0.00754626
0.0236973
0.0389453
0.0532918
0.0667335
0.0792591
0.0908505
0.101482
0.111118
0.119716
0.127228
0.133604
0.138796
0.142724
0.14534
0.146573
0.146294
0.144624
0.141641
0.137332
0.131753
0.125002
0.117102
0.108039
0.0978569
0.0865717
0.0742222
0.0609525
0.0470378
0.032884
0.0190077
0.00584026
-0.00607629
-0.0162228
-0.0241448
-0.03042
-0.0349156
-0.0370214
-0.0369108
-0.0350247
-0.0317253
-0.0271633
-0.0215244
-0.0150368
-0.00789156
-0.000250561
0.00773731
0.0159406
0.0242516
0.0325769
0.0408216
0.0488938
0.0567036
0.0641631
0.0711951
0.0777272
0.0837
0.0890683
0.093799
0.0978742
0.101288
0.104053
0.1062
0.107771
0.108815
0.109372
0.10947
0.109135
0.108424
0.107484
0.106492
0.105456
0.104413
0.103547
0.10295
0.102641
0.102619
0.102835
0.10321
0.103685
0.104187
0.104658
0.105023
0.105217
0.105183
0.104864
0.104203
0.103136
0.101596
0.0995237
0.0968655
0.0935429
0.0894818
0.0846321
0.0789609
0.0724585
0.0651486
0.0570942
0.0484035
0.0392322
0.0297818
0.0202899
0.0110258
0.00227522
-0.00568543
-0.0125832
-0.0181615
-0.0222885
-0.0250545
-0.0260725
-0.0252944
-0.0231155
-0.0194981
-0.503039
-0.485163
-0.466153
-0.446183
-0.425403
-0.403934
-0.381874
-0.359317
-0.336356
-0.31309
-0.289625
-0.266073
-0.24255
-0.219172
-0.196054
-0.173303
-0.151018
-0.129286
-0.108188
-0.0877807
-0.0681063
-0.0492001
-0.0310875
-0.0137851
0.00269729
0.0183529
0.0331734
0.0471469
0.0602642
0.0725187
0.0838926
0.0943608
0.10389
0.112443
0.119975
0.12644
0.131799
0.136006
0.139006
0.14075
0.141235
0.140477
0.138426
0.135108
0.130585
0.124917
0.118136
0.110312
0.101543
0.0919273
0.0815755
0.0706415
0.0593332
0.0479394
0.036774
0.026108
0.0162342
0.00753223
0.000284376
-0.00555479
-0.00992108
-0.0126464
-0.0137259
-0.0133445
-0.0116821
-0.00885218
-0.0049795
-0.000211764
0.00531918
0.0114857
0.0181607
0.0252292
0.0325996
0.0401875
0.0478852
0.0555762
0.0631459
0.0704834
0.0774886
0.0840552
0.0900915
0.0955448
0.100374
0.10455
0.108059
0.110907
0.113119
0.11474
0.115826
0.116436
0.116622
0.116429
0.115902
0.115107
0.114169
0.113233
0.112287
0.111365
0.110613
0.110105
0.109851
0.109848
0.110057
0.110388
0.110796
0.111206
0.111572
0.11184
0.111947
0.111834
0.111444
0.110716
0.109589
0.108007
0.105922
0.103265
0.0999617
0.09596
0.0912237
0.085736
0.0795079
0.0725836
0.0650461
0.0570176
0.0486546
0.0401524
0.0317381
0.0236529
0.0161404
0.00945419
0.00380138
-0.000725591
-0.00400465
-0.00585687
-0.00623863
-0.0052039
-0.00276756
-0.47655
-0.460243
-0.442857
-0.424535
-0.405407
-0.385584
-0.365167
-0.34425
-0.322926
-0.30129
-0.279441
-0.257481
-0.235512
-0.213639
-0.191962
-0.170576
-0.149569
-0.129025
-0.109018
-0.0896059
-0.0708309
-0.0527315
-0.0353377
-0.0186732
-0.00275689
0.0124
0.0267914
0.0403988
0.0531949
0.0651651
0.0763023
0.0865823
0.0959723
0.10444
0.111941
0.118432
0.123871
0.128218
0.131439
0.133514
0.134423
0.134159
0.132734
0.130196
0.126606
0.122021
0.116495
0.110092
0.102902
0.0950254
0.0865799
0.0776963
0.0685326
0.0592372
0.0500073
0.0411788
0.0330324
0.0257603
0.0194736
0.0142214
0.0100562
0.00704836
0.00521807
0.00451549
0.00488504
0.00628644
0.00866494
0.0119545
0.01608
0.0209206
0.0263813
0.0324267
0.0389926
0.0459687
0.0532324
0.0606529
0.0680931
0.0754148
0.0824886
0.0891947
0.0953995
0.101018
0.106014
0.110348
0.113997
0.116962
0.119262
0.120941
0.122057
0.122681
0.122881
0.122724
0.122276
0.1216
0.120756
0.119829
0.118922
0.118039
0.117212
0.116552
0.116101
0.115864
0.11584
0.116009
0.1163
0.116655
0.117029
0.117338
0.117548
0.117622
0.117497
0.117114
0.116411
0.115328
0.113815
0.111813
0.109245
0.106051
0.102193
0.0976459
0.0924069
0.0865017
0.0799871
0.0729524
0.0655245
0.0578688
0.0501736
0.0426373
0.0354672
0.0288911
0.0231073
0.0182281
0.0143969
0.0117584
0.0104129
0.0104235
0.01182
-0.452584
-0.437703
-0.421804
-0.405003
-0.387413
-0.369138
-0.350271
-0.330903
-0.311124
-0.291023
-0.270692
-0.250222
-0.229706
-0.209235
-0.188899
-0.168783
-0.148967
-0.129528
-0.110539
-0.0920579
-0.0741256
-0.0567844
-0.0400685
-0.0240062
-0.00862414
0.00605711
0.0200277
0.0332763
0.0457706
0.0574707
0.0683668
0.0784492
0.0876851
0.0960367
0.103463
0.109924
0.115377
0.119785
0.123119
0.125361
0.126503
0.126557
0.125554
0.123542
0.120594
0.116795
0.112226
0.106968
0.101111
0.0947461
0.0879718
0.080894
0.0736223
0.0663233
0.0591918
0.0523764
0.0459909
0.0401382
0.0348943
0.0303096
0.0264299
0.0233015
0.0209541
0.0194026
0.0186775
0.0188211
0.0198613
0.02181
0.0246079
0.0281615
0.0324936
0.0376162
0.0434512
0.049892
0.0568146
0.0640711
0.0714975
0.0789249
0.0861917
0.0931498
0.0996332
0.105526
0.110781
0.115351
0.119204
0.122333
0.124759
0.126521
0.127679
0.128305
0.128483
0.128293
0.127821
0.127153
0.126352
0.125446
0.124481
0.12356
0.12271
0.121963
0.121372
0.120956
0.120715
0.120652
0.120758
0.121008
0.121333
0.121695
0.122056
0.122331
0.122455
0.122397
0.122097
0.121493
0.120532
0.119161
0.117305
0.114887
0.111859
0.108185
0.10385
0.0988597
0.0932501
0.0870886
0.0804781
0.073547
0.0664463
0.059343
0.0524152
0.0458848
0.0399297
0.0346739
0.0302838
0.0269303
0.0247585
0.0238855
0.0243798
-0.430845
-0.417273
-0.402744
-0.387355
-0.371205
-0.354386
-0.336983
-0.319081
-0.300764
-0.282114
-0.263215
-0.244148
-0.224995
-0.205839
-0.186758
-0.167828
-0.149122
-0.13071
-0.112666
-0.0950467
-0.0778927
-0.0612503
-0.0451581
-0.029649
-0.0147562
-0.000509464
0.0130741
0.0259845
0.038195
0.0496556
0.0603279
0.0702137
0.0792874
0.0875058
0.0948279
0.101212
0.106616
0.111005
0.114351
0.116641
0.117882
0.1181
0.117345
0.115689
0.113227
0.110073
0.106338
0.102107
0.0974537
0.0924755
0.0872826
0.081959
0.0765759
0.0712414
0.0660494
0.0610471
0.0562789
0.0517827
0.0475901
0.043719
0.0401935
0.0370494
0.0343208
0.0320497
0.0303246
0.0292739
0.0290243
0.0296539
0.0311026
0.0333693
0.0365888
0.0407902
0.0459159
0.0518762
0.0585417
0.0657425
0.0732828
0.0809562
0.0885625
0.0959157
0.102809
0.109103
0.114738
0.11965
0.123791
0.127152
0.129753
0.131635
0.132858
0.133499
0.133644
0.133382
0.132814
0.132052
0.131188
0.130227
0.129164
0.12811
0.127154
0.126304
0.125582
0.125017
0.124621
0.124389
0.12431
0.124388
0.12461
0.124954
0.125357
0.125767
0.126168
0.126498
0.12666
0.126583
0.126201
0.125465
0.124305
0.122635
0.120394
0.117534
0.114028
0.109864
0.10506
0.0996614
0.0937388
0.0873913
0.0807455
0.0739533
0.0671838
0.0606098
0.0544285
0.0487993
0.0439142
0.0399498
0.0370657
0.0354128
0.035099
-0.41108
-0.398726
-0.385474
-0.371407
-0.356609
-0.341162
-0.325143
-0.30863
-0.291698
-0.274424
-0.25688
-0.239141
-0.221277
-0.20336
-0.185459
-0.167642
-0.149971
-0.132512
-0.11534
-0.0985096
-0.0820633
-0.0660506
-0.0505157
-0.035497
-0.0210342
-0.00716662
0.00607949
0.018692
0.0306487
0.0418998
0.0523851
0.0620893
0.0710041
0.0790841
0.086282
0.0925514
0.0978499
0.102141
0.1054
0.107622
0.108824
0.109054
0.108383
0.10691
0.104789
0.10218
0.0991766
0.0958698
0.0923554
0.0887297
0.0850879
0.0814674
0.0778944
0.074443
0.0711182
0.0678706
0.0646763
0.0615341
0.0584263
0.0553178
0.0521986
0.0490983
0.0460554
0.0431155
0.0403946
0.0381078
0.0365051
0.0357284
0.0357373
0.0366384
0.0386608
0.0418815
0.0462817
0.0517907
0.0582731
0.0655333
0.0733356
0.0814253
0.0895521
0.0974756
0.104944
0.111796
0.117958
0.123337
0.127876
0.131559
0.134404
0.136453
0.137771
0.138442
0.138558
0.138214
0.137509
0.13657
0.135537
0.13443
0.133167
0.131872
0.130681
0.129627
0.128725
0.127989
0.127426
0.127047
0.126855
0.126836
0.126965
0.127239
0.127658
0.128194
0.128797
0.1294
0.129932
0.130325
0.130511
0.130419
0.129957
0.129034
0.127571
0.125504
0.122786
0.119391
0.115318
0.11059
0.10526
0.0994121
0.0931584
0.0866336
0.0799708
0.0733408
0.0669529
0.0610047
0.0556832
0.0511565
0.047607
0.0452241
0.044162
-0.393078
-0.381866
-0.369812
-0.356987
-0.343464
-0.329314
-0.314608
-0.299415
-0.283802
-0.267838
-0.251587
-0.235112
-0.218475
-0.201736
-0.184953
-0.168183
-0.151483
-0.134906
-0.118529
-0.102411
-0.0865941
-0.071132
-0.0560756
-0.0414714
-0.0273666
-0.0138098
-0.000838069
0.0115308
0.0232785
0.0343599
0.0447051
0.0542631
0.0630368
0.0709836
0.0780435
0.0841638
0.0892987
0.0934099
0.0964733
0.0984901
0.0994955
0.0995615
0.0987886
0.0973212
0.0953954
0.0931834
0.0907843
0.0883299
0.0859162
0.0836268
0.0815314
0.0796094
0.0778553
0.0763179
0.0749065
0.0734571
0.0718745
0.070109
0.0681111
0.0658201
0.0631576
0.0601371
0.0568071
0.0532014
0.0494271
0.0457684
0.042626
0.0402349
0.0385849
0.0379047
0.0385466
0.0406608
0.0442791
0.0493584
0.0557542
0.063232
0.0714986
0.0802341
0.0891215
0.0978297
0.106081
0.113701
0.120567
0.126564
0.131627
0.135733
0.1389
0.141172
0.142621
0.143337
0.143424
0.142986
0.142119
0.140948
0.139651
0.138302
0.136757
0.135108
0.133547
0.132121
0.130858
0.129805
0.128993
0.128426
0.128096
0.127995
0.12813
0.12849
0.129043
0.129739
0.130535
0.131407
0.132309
0.133167
0.133894
0.1344
0.134589
0.134365
0.133635
0.132315
0.130343
0.127678
0.1243
0.120211
0.115444
0.110063
0.104149
0.097831
0.0912531
0.0845719
0.0780037
0.0717343
0.0659377
0.0608014
0.0565508
0.0534197
0.0516419
-0.376651
-0.366519
-0.355598
-0.343947
-0.331631
-0.318714
-0.305258
-0.291324
-0.276974
-0.262267
-0.247257
-0.231998
-0.216541
-0.200933
-0.185219
-0.169446
-0.153659
-0.137904
-0.122245
-0.106755
-0.091479
-0.0764733
-0.0617993
-0.0475152
-0.0336798
-0.0203514
-0.00757729
0.00461431
0.0162042
0.0271613
0.0374157
0.0468817
0.0555479
0.063383
0.0703125
0.0762702
0.0811938
0.0850448
0.0877952
0.0894537
0.0900775
0.0897728
0.0886783
0.0870181
0.0850921
0.0830872
0.0811656
0.0794998
0.0781842
0.0772767
0.0767967
0.0766515
0.0768158
0.0772913
0.0778786
0.0783135
0.0784456
0.0781536
0.0773241
0.0758989
0.0737482
0.0708259
0.0671917
0.0628753
0.0579455
0.0527222
0.0477851
0.0434989
0.0398514
0.0372339
0.0361816
0.0369559
0.0396651
0.0443015
0.0507039
0.0585791
0.0675512
0.0772129
0.0871524
0.0969381
0.106248
0.114893
0.122683
0.129482
0.135219
0.13987
0.143453
0.146017
0.147639
0.148416
0.148462
0.147895
0.146823
0.145366
0.14372
0.14203
0.140116
0.138007
0.135964
0.134063
0.132331
0.130815
0.129558
0.128597
0.12797
0.1277
0.127777
0.128179
0.128892
0.129879
0.13108
0.132435
0.133874
0.135316
0.13667
0.137836
0.138722
0.139226
0.13924
0.138656
0.137393
0.135399
0.132643
0.129115
0.124827
0.119841
0.114245
0.108113
0.101583
0.094821
0.0879915
0.0812761
0.0748908
0.0690464
0.0639839
0.0600513
0.0575146
-0.361639
-0.352532
-0.342685
-0.332149
-0.32098
-0.309236
-0.296972
-0.284245
-0.271109
-0.257613
-0.243805
-0.229727
-0.215417
-0.200909
-0.186234
-0.171422
-0.156506
-0.141521
-0.126515
-0.111571
-0.0967432
-0.0820883
-0.0676829
-0.0536045
-0.0399298
-0.0267293
-0.0140574
-0.00195465
0.00954506
0.0204283
0.0306578
0.0401099
0.0487177
0.0564667
0.0632669
0.0690323
0.0737026
0.0772067
0.0795054
0.0806142
0.08062
0.0796752
0.0779727
0.075843
0.0736702
0.0716943
0.0701561
0.0692464
0.0690402
0.0695697
0.0708202
0.0726152
0.0748864
0.077585
0.0803705
0.0828672
0.0848674
0.0861999
0.0866701
0.0861578
0.0845621
0.0817498
0.0777721
0.072649
0.0663851
0.0593023
0.0522016
0.0456025
0.0394933
0.0344878
0.0313331
0.0304462
0.0320564
0.03621
0.0427276
0.0512382
0.061252
0.0722203
0.0835594
0.0947765
0.105511
0.115479
0.124443
0.132253
0.138831
0.144156
0.148254
0.151185
0.153036
0.153909
0.153924
0.153203
0.151876
0.150065
0.147947