/*--------------------------------*- C++ -*----------------------------------*\
| =========                 |                                                 |
| \\      /  F ield         | OpenFOAM: The Open Source CFD Toolbox           |
|  \\    /   O peration     | Version:  2206                                  |
|   \\  /    A nd           | Website:  www.openfoam.com                      |
|    \\/     M anipulation  |                                                 |
\*---------------------------------------------------------------------------*/
FoamFile
{
    version     2.0;
    format      ascii;
    arch        "LSB;label=32;scalar=64";
    class       volVectorField;
    location    "18.9999";
    object      ddtCorrDdt0(U);
}
// * * * * * * * * * * * * * * * * * * * * * * * * * * * * * * * * * * * * * //

dimensions      [0 1 -2 0 0 0 0];

internalField   nonuniform List<vector> 
4825
(
(-14.6234 -39.1281 0)
(-14.7817 -35.3607 0)
(-14.8293 -31.4391 0)
(-14.7789 -27.4116 0)
(-14.648 -23.3158 0)
(-14.4571 -19.17 0)
(-14.2248 -14.9711 0)
(-13.9893 -10.6705 0)
(-13.853 -6.12081 0)
(-13.8001 -1.08233 0)
(-13.4951 4.34783 0)
(-13.2177 9.99269 0)
(-12.8242 15.7791 0)
(-12.3094 21.6356 0)
(-11.6973 27.492 0)
(-10.9812 33.2671 0)
(-10.1471 38.8667 0)
(-9.18551 44.1895 0)
(-8.09586 49.1293 0)
(-6.88303 53.5745 0)
(-5.55273 57.4048 0)
(-4.11515 60.4836 0)
(-2.57362 62.6428 0)
(-0.912861 63.5711 0)
(0.839895 63.1716 0)
(2.6288 61.8543 0)
(4.43732 59.6926 0)
(6.24443 56.7871 0)
(8.02484 53.2551 0)
(9.75525 49.2219 0)
(11.416 44.811 0)
(12.9904 40.1353 0)
(14.4666 35.2935 0)
(15.8346 30.3634 0)
(17.0918 25.4097 0)
(18.2625 20.485 0)
(19.3703 15.6145 0)
(20.4391 10.8149 0)
(21.4433 6.14042 0)
(22.209 1.68862 0)
(22.896 -2.48599 0)
(23.4266 -6.4506 0)
(23.7875 -10.2458 0)
(23.9785 -13.9216 0)
(23.9873 -17.5318 0)
(23.8029 -21.1186 0)
(23.4183 -24.7071 0)
(22.8311 -28.2995 0)
(22.0442 -31.8725 0)
(21.0662 -35.3783 0)
(19.9114 -38.7479 0)
(18.5982 -41.8993 0)
(17.1471 -44.7461 0)
(15.5784 -47.2024 0)
(13.9094 -49.1891 0)
(12.1589 -50.6314 0)
(10.3254 -51.4034 0)
(8.43514 -51.505 0)
(6.55469 -51.0764 0)
(4.75003 -50.1306 0)
(2.83701 -48.6994 0)
(1.25746 -46.7197 0)
(-0.181106 -44.1902 0)
(-2.10348 -41.2105 0)
(-3.47282 -37.8995 0)
(-4.8476 -34.2407 0)
(-6.06681 -30.2744 0)
(-7.11852 -26.0735 0)
(-8.03072 -21.7016 0)
(-8.79845 -17.2082 0)
(-9.43847 -12.6176 0)
(-10.1531 -7.83449 0)
(-10.9401 -2.63057 0)
(-11.4225 2.74764 0)
(-11.8901 8.04466 0)
(-12.1828 13.2084 0)
(-12.3299 18.1595 0)
(-12.3698 22.8445 0)
(-12.3135 27.2193 0)
(-12.1713 31.2388 0)
(-11.9527 34.8586 0)
(-11.6635 38.0332 0)
(-11.3065 40.7144 0)
(-10.8809 42.8504 0)
(-10.3789 44.3792 0)
(-9.75723 45.1742 0)
(-9.00155 45.1882 0)
(-8.16808 44.6524 0)
(-7.24934 43.5957 0)
(-6.24813 42.0617 0)
(-5.17335 40.1014 0)
(-4.03816 37.7763 0)
(-2.85756 35.1519 0)
(-1.64849 32.2911 0)
(-0.428319 29.2563 0)
(0.787335 26.105 0)
(1.98293 22.886 0)
(3.1455 19.6454 0)
(4.26556 16.4215 0)
(5.33116 13.2366 0)
(6.35624 10.0993 0)
(7.43677 6.97666 0)
(8.5278 3.82961 0)
(9.41222 0.803804 0)
(10.2176 -2.01682 0)
(10.8592 -4.69445 0)
(11.3339 -7.23617 0)
(11.6458 -9.65514 0)
(11.7927 -11.9703 0)
(11.774 -14.2013 0)
(11.5885 -16.3659 0)
(11.2343 -18.4791 0)
(10.7108 -20.5511 0)
(10.0202 -22.5844 0)
(9.16823 -24.5725 0)
(8.16149 -26.5011 0)
(7.0001 -28.3465 0)
(5.69971 -30.0706 0)
(4.29871 -31.6302 0)
(2.68995 -32.9807 0)
(1.18786 -34.022 0)
(-0.583058 -34.8744 0)
(-2.29025 -35.4677 0)
(-3.92124 -35.4985 0)
(-5.50311 -35.0334 0)
(-7.00191 -34.2258 0)
(-8.37221 -33.0625 0)
(-9.59258 -31.5504 0)
(-10.6521 -29.7349 0)
(-11.5247 -27.6132 0)
(-12.2348 -25.3067 0)
(-12.7279 -22.7095 0)
(-13.1005 -20.1188 0)
(-13.2593 -17.1798 0)
(-13.2959 -14.4816 0)
(-13.2469 -11.2569 0)
(-13.1305 -8.84568 0)
(-12.7277 -3.95317 0)
(-15.6612 -38.7681 0)
(-16.0173 -35.1366 0)
(-16.2536 -31.337 0)
(-16.3844 -27.4147 0)
(-16.428 -23.4021 0)
(-16.4041 -19.3104 0)
(-16.3325 -15.1294 0)
(-16.2483 -10.8081 0)
(-16.2227 -6.22562 0)
(-16.2298 -1.22788 0)
(-16.0016 4.09508 0)
(-15.7677 9.6153 0)
(-15.4013 15.2737 0)
(-14.8917 21.0008 0)
(-14.2511 26.7212 0)
(-13.4564 32.3443 0)
(-12.5032 37.7817 0)
(-11.3915 42.9408 0)
(-10.1199 47.72 0)
(-8.69324 52.0114 0)
(-7.12028 55.6989 0)
(-5.41249 58.6457 0)
(-3.57326 60.6714 0)
(-1.586 61.4614 0)
(0.502651 61.0026 0)
(2.61927 59.6551 0)
(4.74169 57.4931 0)
(6.84202 54.6189 0)
(8.88778 51.1482 0)
(10.8513 47.2005 0)
(12.7114 42.893 0)
(14.455 38.3338 0)
(16.0761 33.6157 0)
(17.5746 28.8143 0)
(18.9571 23.9838 0)
(20.2279 19.1573 0)
(21.4093 14.3691 0)
(22.5196 9.66855 0)
(23.4803 5.14065 0)
(24.2418 0.874863 0)
(24.8948 -3.13232 0)
(25.3777 -6.92086 0)
(25.6905 -10.5268 0)
(25.8274 -14.0017 0)
(25.775 -17.399 0)
(25.5231 -20.7632 0)
(25.0651 -24.1231 0)
(24.3987 -27.4859 0)
(23.526 -30.8338 0)
(22.4533 -34.1247 0)
(21.1918 -37.2963 0)
(19.7573 -40.2717 0)
(18.1696 -42.9664 0)
(16.4507 -45.2956 0)
(14.6252 -47.1818 0)
(12.7172 -48.5425 0)
(10.7324 -49.2431 0)
(8.72065 -49.3473 0)
(6.73041 -48.9372 0)
(4.77583 -48.0218 0)
(2.84116 -46.6368 0)
(0.917521 -44.7269 0)
(-0.935095 -42.2647 0)
(-2.6374 -39.416 0)
(-4.21932 -36.2491 0)
(-5.70133 -32.7325 0)
(-7.04081 -28.9217 0)
(-8.22983 -24.8824 0)
(-9.27275 -20.6643 0)
(-10.1755 -16.3016 0)
(-10.9876 -11.7806 0)
(-11.8825 -6.9873 0)
(-12.663 -1.84871 0)
(-13.233 3.33145 0)
(-13.7198 8.45587 0)
(-14.0217 13.459 0)
(-14.174 18.2651 0)
(-14.2006 22.8225 0)
(-14.1105 27.0835 0)
(-13.9145 31.0008 0)
(-13.6218 34.5272 0)
(-13.2388 37.613 0)
(-12.7689 40.2069 0)
(-12.211 42.2501 0)
(-11.5521 43.6604 0)
(-10.7345 44.2841 0)
(-9.78183 44.1944 0)
(-8.74314 43.5562 0)
(-7.61357 42.4033 0)
(-6.39978 40.7824 0)
(-5.1161 38.7498 0)
(-3.78054 36.37 0)
(-2.41225 33.7112 0)
(-1.03102 30.8367 0)
(0.343673 27.8073 0)
(1.696 24.6792 0)
(3.01268 21.4987 0)
(4.28262 18.3061 0)
(5.50147 15.1322 0)
(6.6747 11.9858 0)
(7.86046 8.85816 0)
(9.09518 5.72976 0)
(10.1415 2.67105 0)
(11.0869 -0.157585 0)
(11.8839 -2.81271 0)
(12.5071 -5.31137 0)
(12.9614 -7.66513 0)
(13.2436 -9.89534 0)
(13.3521 -12.0222 0)
(13.2886 -14.0651 0)
(13.0546 -16.0414 0)
(12.6518 -17.9657 0)
(12.081 -19.8488 0)
(11.343 -21.696 0)
(10.4406 -23.5023 0)
(9.37875 -25.2512 0)
(8.16314 -26.9245 0)
(6.80217 -28.5005 0)
(5.33723 -29.9444 0)
(3.80217 -31.2219 0)
(1.85571 -32.2189 0)
(0.865278 -32.9419 0)
(-1.45121 -33.4821 0)
(-3.13112 -33.6285 0)
(-4.76163 -33.2572 0)
(-6.37613 -32.5594 0)
(-7.85383 -31.5418 0)
(-9.18926 -30.1958 0)
(-10.3833 -28.5699 0)
(-11.3991 -26.6351 0)
(-12.2704 -24.5386 0)
(-12.9309 -22.1234 0)
(-13.4758 -19.7203 0)
(-13.8245 -16.9546 0)
(-14.0266 -14.3958 0)
(-14.1616 -11.2907 0)
(-14.1789 -8.96302 0)
(-13.9832 -4.21417 0)
(-16.597 -38.1832 0)
(-17.1481 -34.6971 0)
(-17.5715 -31.0278 0)
(-17.8823 -27.2179 0)
(-18.0995 -23.2957 0)
(-18.2415 -19.2673 0)
(-18.3272 -15.1187 0)
(-18.3873 -10.8022 0)
(-18.4692 -6.22561 0)
(-18.538 -1.2974 0)
(-18.3837 3.90147 0)
(-18.1906 9.28011 0)
(-17.8454 14.7865 0)
(-17.3311 20.3478 0)
(-16.6402 25.8802 0)
(-15.7695 31.3093 0)
(-14.7103 36.5506 0)
(-13.4596 41.5129 0)
(-12.0195 46.0999 0)
(-10.3969 50.2068 0)
(-8.60218 53.7197 0)
(-6.64552 56.5038 0)
(-4.5276 58.3691 0)
(-2.23264 58.9852 0)
(0.168034 58.4746 0)
(2.58891 57.1068 0)
(5.00195 54.9628 0)
(7.37314 52.1454 0)
(9.66454 48.7671 0)
(11.8449 44.9409 0)
(13.892 40.7752 0)
(15.7929 36.3659 0)
(17.5448 31.7964 0)
(19.1553 27.1355 0)
(20.6356 22.4348 0)
(21.9967 17.7346 0)
(23.2458 13.0736 0)
(24.3729 8.51875 0)
(25.2832 4.16943 0)
(26.046 0.092192 0)
(26.6627 -3.73895 0)
(27.1063 -7.34245 0)
(27.3765 -10.7511 0)
(27.4619 -14.0159 0)
(27.3479 -17.1906 0)
(27.0238 -20.3233 0)
(26.4835 -23.4475 0)
(25.7267 -26.5752 0)
(24.7578 -29.6933 0)
(23.5852 -32.7637 0)
(22.2206 -35.7283 0)
(20.6786 -38.5149 0)
(18.9766 -41.0437 0)
(17.1358 -43.2329 0)
(15.1804 -45.0062 0)
(13.1315 -46.2801 0)
(10.996 -46.9159 0)
(8.84585 -47.0248 0)
(6.70714 -46.6395 0)
(4.58772 -45.7583 0)
(2.49514 -44.3887 0)
(0.44862 -42.5323 0)
(-1.49953 -40.2154 0)
(-3.33082 -37.507 0)
(-5.0417 -34.4546 0)
(-6.63115 -31.0826 0)
(-8.08224 -27.4358 0)
(-9.38829 -23.5612 0)
(-10.5521 -19.493 0)
(-11.5835 -15.2432 0)
(-12.5641 -10.7805 0)
(-13.593 -6.02134 0)
(-14.3539 -1.02935 0)
(-15.0048 3.95048 0)
(-15.5021 8.89114 0)
(-15.8116 13.7177 0)
(-15.9632 18.3612 0)
(-15.97 22.7707 0)
(-15.8407 26.8963 0)
(-15.5855 30.6888 0)
(-15.213 34.0988 0)
(-14.7304 37.0749 0)
(-14.1412 39.5592 0)
(-13.4424 41.4812 0)
(-12.609 42.7452 0)
(-11.5753 43.1634 0)
(-10.4242 42.9689 0)
(-9.17198 42.2221 0)
(-7.82412 40.9696 0)
(-6.39364 39.2642 0)
(-4.90049 37.1681 0)
(-3.36747 34.748 0)
(-1.81864 32.0722 0)
(-0.275756 29.2049 0)
(1.24081 26.202 0)
(2.71591 23.1159 0)
(4.14098 19.9889 0)
(5.50942 16.8505 0)
(6.8282 13.7198 0)
(8.14057 10.5956 0)
(9.48868 7.47132 0)
(10.7245 4.39714 0)
(11.8064 1.53369 0)
(12.7631 -1.12189 0)
(13.5437 -3.59885 0)
(14.1498 -5.90474 0)
(14.5775 -8.06121 0)
(14.822 -10.0923 0)
(14.8825 -12.0207 0)
(14.7611 -13.8677 0)
(14.4617 -15.6523 0)
(13.9899 -17.3887 0)
(13.3517 -19.0859 0)
(12.5521 -20.7482 0)
(11.5947 -22.3736 0)
(10.486 -23.9511 0)
(9.23402 -25.4631 0)
(7.83763 -26.8877 0)
(6.32525 -28.1943 0)
(4.74618 -29.3639 0)
(2.83355 -30.3957 0)
(1.30029 -31.0841 0)
(-0.292095 -31.4267 0)
(-2.43567 -31.5747 0)
(-4.07443 -31.3698 0)
(-5.76099 -30.7908 0)
(-7.33929 -29.9057 0)
(-8.77809 -28.7112 0)
(-10.0922 -27.2593 0)
(-11.2384 -25.4969 0)
(-12.2576 -23.5936 0)
(-13.0744 -21.3507 0)
(-13.7766 -19.1265 0)
(-14.3058 -16.5449 0)
(-14.6599 -14.1201 0)
(-14.9734 -11.1403 0)
(-15.1175 -8.91278 0)
(-15.1186 -4.33156 0)
(-17.4272 -37.3775 0)
(-18.169 -34.0449 0)
(-18.7765 -30.5142 0)
(-19.264 -26.8241 0)
(-19.6508 -23 0)
(-19.9545 -19.0459 0)
(-20.1921 -14.9456 0)
(-20.3873 -10.6599 0)
(-20.5717 -6.12411 0)
(-20.6999 -1.29259 0)
(-20.6131 3.7631 0)
(-20.4524 8.97809 0)
(-20.1157 14.3009 0)
(-19.5775 19.654 0)
(-18.8432 24.9708 0)
(-17.9004 30.1765 0)
(-16.7403 35.1889 0)
(-15.3611 39.9216 0)
(-13.7669 44.284 0)
(-11.967 48.178 0)
(-9.97244 51.4883 0)
(-7.78969 54.0738 0)
(-5.41084 55.7471 0)
(-2.82836 56.1752 0)
(-0.146402 55.6167 0)
(2.54902 54.2405 0)
(5.22286 52.1337 0)
(7.83494 49.3978 0)
(10.3439 46.1403 0)
(12.7169 42.4658 0)
(14.9319 38.4716 0)
(16.9772 34.2415 0)
(18.8516 29.8472 0)
(20.5647 25.3489 0)
(22.1277 20.7963 0)
(23.5527 16.2392 0)
(24.8455 11.7385 0)
(25.9659 7.3784 0)
(26.8531 3.23139 0)
(27.6091 -0.661838 0)
(28.1949 -4.31101 0)
(28.6073 -7.72217 0)
(28.8406 -10.9257 0)
(28.8792 -13.9695 0)
(28.7067 -16.9082 0)
(28.3101 -19.7946 0)
(27.6833 -22.6697 0)
(26.828 -25.5522 0)
(25.7521 -28.4344 0)
(24.468 -31.2821 0)
(22.9901 -34.0397 0)
(21.3348 -36.6369 0)
(19.52 -38.9969 0)
(17.5662 -41.042 0)
(15.4945 -42.6938 0)
(13.3164 -43.8573 0)
(11.0534 -44.4368 0)
(8.77934 -44.5407 0)
(6.50789 -44.1673 0)
(4.25565 -43.3178 0)
(2.04307 -41.9999 0)
(-0.105202 -40.2292 0)
(-2.16167 -38.0347 0)
(-4.10609 -35.4583 0)
(-5.92839 -32.5418 0)
(-7.62048 -29.3209 0)
(-9.17361 -25.8332 0)
(-10.586 -22.113 0)
(-11.8612 -18.1803 0)
(-13.0278 -14.0328 0)
(-14.1695 -9.6315 0)
(-15.24 -4.96855 0)
(-16.0415 -0.186043 0)
(-16.7362 4.59531 0)
(-17.2374 9.34151 0)
(-17.5498 13.9769 0)
(-17.692 18.4409 0)
(-17.6708 22.6823 0)
(-17.4944 26.6502 0)
(-17.1716 30.2948 0)
(-16.7112 33.5661 0)
(-16.1204 36.409 0)
(-15.4028 38.7583 0)
(-14.5531 40.5318 0)
(-13.5118 41.5751 0)
(-12.2665 41.828 0)
(-10.9088 41.5062 0)
(-9.43821 40.6427 0)
(-7.86868 39.2908 0)
(-6.22134 37.5077 0)
(-4.52234 35.3609 0)
(-2.79934 32.9195 0)
(-1.08018 30.249 0)
(0.610787 27.4109 0)
(2.25581 24.4575 0)
(3.8413 21.4305 0)
(5.36372 18.3645 0)
(6.82952 15.2774 0)
(8.27008 12.1748 0)
(9.73803 9.06278 0)
(11.1412 5.9801 0)
(12.3645 3.06925 0)
(13.4813 0.392201 0)
(14.4248 -2.08679 0)
(15.1916 -4.36879 0)
(15.7769 -6.47049 0)
(16.1724 -8.41779 0)
(16.3736 -10.237 0)
(16.379 -11.954 0)
(16.1902 -13.5936 0)
(15.8129 -15.1772 0)
(15.2562 -16.7212 0)
(14.5317 -18.2369 0)
(13.651 -19.7271 0)
(12.6233 -21.1873 0)
(11.455 -22.6055 0)
(10.1539 -23.9644 0)
(8.72922 -25.2441 0)
(7.19278 -26.4194 0)
(5.56182 -27.4668 0)
(3.82258 -28.4045 0)
(1.97873 -29.1018 0)
(0.128687 -29.427 0)
(-1.6694 -29.5304 0)
(-3.44993 -29.4121 0)
(-5.18846 -28.9321 0)
(-6.83812 -28.1649 0)
(-8.3727 -27.1062 0)
(-9.79693 -25.8121 0)
(-11.061 -24.2069 0)
(-12.2132 -22.4814 0)
(-13.178 -20.4192 0)
(-13.9947 -18.3373 0)
(-14.714 -15.9573 0)
(-15.2171 -13.6617 0)
(-15.7048 -10.8139 0)
(-15.9674 -8.69308 0)
(-16.2059 -4.29403 0)
(-18.1477 -36.3572 0)
(-19.0741 -33.1851 0)
(-19.8607 -29.8006 0)
(-20.5204 -26.2384 0)
(-21.0709 -22.5213 0)
(-21.5305 -18.653 0)
(-21.9122 -14.6184 0)
(-22.2331 -10.3894 0)
(-22.5117 -5.92756 0)
(-22.693 -1.22109 0)
(-22.6624 3.66827 0)
(-22.522 8.69334 0)
(-22.1792 13.801 0)
(-21.6185 18.9238 0)
(-20.8387 23.9977 0)
(-19.8249 28.9497 0)
(-18.5687 33.7025 0)
(-17.0699 38.1778 0)
(-15.3359 42.2926 0)
(-13.3785 45.9496 0)
(-11.2085 49.0329 0)
(-8.82357 51.3914 0)
(-6.19788 52.8248 0)
(-3.35153 53.0643 0)
(-0.425674 52.4628 0)
(2.50881 51.0914 0)
(5.40895 49.0413 0)
(8.22731 46.4103 0)
(10.9212 43.2994 0)
(13.458 39.8018 0)
(15.8173 36.0029 0)
(17.9898 31.974 0)
(19.9753 27.7762 0)
(21.7822 23.4633 0)
(23.4173 19.0858 0)
(24.8897 14.7039 0)
(26.1969 10.395 0)
(27.2756 6.24147 0)
(28.1833 2.3108 0)
(28.9273 -1.39492 0)
(29.4937 -4.85554 0)
(29.8841 -8.0669 0)
(30.0869 -11.0556 0)
(30.0839 -13.8658 0)
(29.8555 -16.5532 0)
(29.3859 -19.1769 0)
(28.6689 -21.787 0)
(27.7093 -24.4116 0)
(26.5196 -27.0492 0)
(25.1163 -29.6692 0)
(23.5175 -32.2181 0)
(21.7423 -34.6274 0)
(19.8105 -36.8215 0)
(17.7421 -38.7218 0)
(15.5566 -40.2484 0)
(13.2587 -41.296 0)
(10.8937 -41.8382 0)
(8.51788 -41.9299 0)
(6.14246 -41.5689 0)
(3.78798 -40.7553 0)
(1.47784 -39.4982 0)
(-0.764428 -37.8154 0)
(-2.91565 -35.7348 0)
(-4.95681 -33.2899 0)
(-6.87431 -30.5158 0)
(-8.65983 -27.4471 0)
(-10.3088 -24.1143 0)
(-11.822 -20.5394 0)
(-13.2105 -16.7321 0)
(-14.5183 -12.6799 0)
(-15.7805 -8.3728 0)
(-16.836 -3.87073 0)
(-17.7064 0.684398 0)
(-18.415 5.26049 0)
(-18.917 9.79809 0)
(-19.2253 14.2276 0)
(-19.3473 18.4943 0)
(-19.2878 22.5467 0)
(-19.0537 26.3342 0)
(-18.6532 29.8082 0)
(-18.0953 32.9181 0)
(-17.3872 35.6045 0)
(-16.5333 37.7962 0)
(-15.5106 39.3801 0)
(-14.236 40.1533 0)
(-12.7909 40.261 0)
(-11.219 39.8001 0)
(-9.52696 38.817 0)
(-7.73636 37.3672 0)
(-5.87555 35.5164 0)
(-3.97777 33.3345 0)
(-2.07709 30.8917 0)
(-0.203342 28.2518 0)
(1.61919 25.467 0)
(3.37572 22.5824 0)
(5.06154 19.6303 0)
(6.68007 16.6269 0)
(8.2602 13.5824 0)
(9.85147 10.5031 0)
(11.4015 7.42565 0)
(12.7698 4.47237 0)
(14.038 1.75611 0)
(15.1407 -0.750383 0)
(16.0689 -3.0386 0)
(16.8172 -5.11534 0)
(17.3738 -7.00346 0)
(17.7304 -8.73022 0)
(17.8815 -10.3246 0)
(17.8235 -11.8154 0)
(17.5571 -13.2329 0)
(17.0908 -14.6058 0)
(16.4382 -15.9538 0)
(15.616 -17.2871 0)
(14.642 -18.6084 0)
(13.5298 -19.9115 0)
(12.2877 -21.1836 0)
(10.924 -22.4087 0)
(9.44967 -23.567 0)
(7.87667 -24.6328 0)
(6.21379 -25.58 0)
(4.46138 -26.3846 0)
(2.63119 -26.993 0)
(0.770921 -27.3634 0)
(-1.07773 -27.5115 0)
(-2.9078 -27.4153 0)
(-4.6911 -27.0062 0)
(-6.40076 -26.3371 0)
(-8.01087 -25.3968 0)
(-9.52397 -24.2415 0)
(-10.8884 -22.792 0)
(-12.1497 -21.2244 0)
(-13.2423 -19.343 0)
(-14.1889 -17.4059 0)
(-15.0462 -15.1815 0)
(-15.6997 -13.0206 0)
(-16.3524 -10.3137 0)
(-16.7288 -8.30178 0)
(-17.178 -4.10336 0)
(-18.7544 -35.1301 0)
(-19.8587 -32.1252 0)
(-20.817 -28.8934 0)
(-21.6429 -25.4675 0)
(-22.3509 -21.8668 0)
(-22.9582 -18.0968 0)
(-23.4757 -14.1471 0)
(-23.9115 -10.0017 0)
(-24.2712 -5.64745 0)
(-24.4967 -1.09544 0)
(-24.5099 3.60307 0)
(-24.3781 8.41345 0)
(-24.0238 13.2836 0)
(-23.4372 18.1535 0)
(-22.6089 22.9587 0)
(-21.5243 27.6305 0)
(-20.1762 32.0991 0)
(-18.567 36.2958 0)
(-16.7082 40.144 0)
(-14.6152 43.548 0)
(-12.294 46.3776 0)
(-9.72484 48.4677 0)
(-6.86412 49.6003 0)
(-3.79052 49.7129 0)
(-0.656341 49.0592 0)
(2.47851 47.703 0)
(5.56544 45.7282 0)
(8.55146 43.2241 0)
(11.3942 40.2813 0)
(14.0637 36.9812 0)
(16.5416 33.3946 0)
(18.8212 29.5824 0)
(20.902 25.5972 0)
(22.7881 21.4907 0)
(24.4821 17.3177 0)
(25.9877 13.1484 0)
(27.2792 9.06076 0)
(28.3477 5.12562 0)
(29.2652 1.38864 0)
(30.0069 -2.12333 0)
(30.5694 -5.38396 0)
(30.9463 -8.38761 0)
(31.1241 -11.1504 0)
(31.083 -13.7116 0)
(30.7996 -16.1266 0)
(30.255 -18.4642 0)
(29.4439 -20.79 0)
(28.3753 -23.1434 0)
(27.0666 -25.5289 0)
(25.5386 -27.9187 0)
(23.8139 -30.26 0)
(21.9151 -32.484 0)
(19.8642 -34.5146 0)
(17.682 -36.2741 0)
(15.3835 -37.6805 0)
(12.9753 -38.617 0)
(10.5292 -39.133 0)
(8.06858 -39.2153 0)
(5.6101 -38.8675 0)
(3.17492 -38.0916 0)
(0.786075 -36.8981 0)
(-1.53338 -35.3047 0)
(-3.76214 -33.3369 0)
(-5.88264 -31.0227 0)
(-7.88076 -28.3913 0)
(-9.74994 -25.4718 0)
(-11.489 -22.2861 0)
(-13.1016 -18.8455 0)
(-14.6082 -15.1522 0)
(-16.0425 -11.2051 0)
(-17.348 -7.04268 0)
(-18.4087 -2.75835 0)
(-19.3219 1.57708 0)
(-20.0293 5.93612 0)
(-20.5266 10.2497 0)
(-20.819 14.4579 0)
(-20.9083 18.5084 0)
(-20.7982 22.3508 0)
(-20.4947 25.9363 0)
(-20.0056 29.2178 0)
(-19.3399 32.1442 0)
(-18.5052 34.652 0)
(-17.5011 36.6525 0)
(-16.2622 37.972 0)
(-14.7656 38.5106 0)
(-13.12 38.457 0)
(-11.3284 37.8464 0)
(-9.40924 36.7392 0)
(-7.39604 35.199 0)
(-5.3292 33.2971 0)
(-3.24953 31.1067 0)
(-1.19448 28.693 0)
(0.805361 26.1105 0)
(2.73126 23.4032 0)
(4.57619 20.6002 0)
(6.34453 17.7181 0)
(8.06517 14.7662 0)
(9.78647 11.7527 0)
(11.4838 8.71119 0)
(13.0052 5.74264 0)
(14.4287 2.99129 0)
(15.6899 0.442478 0)
(16.7777 -1.881 0)
(17.6893 -3.96737 0)
(18.4107 -5.82987 0)
(18.9307 -7.49255 0)
(19.2397 -8.98528 0)
(19.3298 -10.3402 0)
(19.1941 -11.5913 0)
(18.8349 -12.7749 0)
(18.2628 -13.9242 0)
(17.5029 -15.0679 0)
(16.5858 -16.2267 0)
(15.5216 -17.394 0)
(14.3202 -18.5525 0)
(12.9917 -19.6842 0)
(11.554 -20.781 0)
(10.0218 -21.8262 0)
(8.40591 -22.7947 0)
(6.71265 -23.6562 0)
(4.94866 -24.3799 0)
(3.12709 -24.9316 0)
(1.2715 -25.2836 0)
(-0.594419 -25.4278 0)
(-2.45371 -25.3512 0)
(-4.27689 -25.0246 0)
(-6.03101 -24.4408 0)
(-7.6956 -23.6096 0)
(-9.27493 -22.5795 0)
(-10.7227 -21.2751 0)
(-12.0726 -19.8386 0)
(-13.2848 -18.13 0)
(-14.3544 -16.3265 0)
(-15.3378 -14.2507 0)
(-16.1251 -12.2194 0)
(-16.92 -9.65676 0)
(-17.3979 -7.76224 0)
(-18.0082 -3.78381 0)
(-19.2415 -33.7035 0)
(-20.5172 -30.8732 0)
(-21.6402 -27.8009 0)
(-22.6242 -24.5188 0)
(-23.4832 -21.0454 0)
(-24.2294 -17.3875 0)
(-24.8716 -13.5435 0)
(-25.4094 -9.51073 0)
(-25.8371 -5.29742 0)
(-26.0962 -0.928524 0)
(-26.1419 3.55609 0)
(-26.0098 8.13071 0)
(-25.6398 12.7445 0)
(-25.0212 17.3389 0)
(-24.1414 21.8522 0)
(-22.9868 26.2211 0)
(-21.5521 30.3857 0)
(-19.8432 34.2885 0)
(-17.8768 37.8599 0)
(-15.6709 40.9976 0)
(-13.2186 43.5488 0)
(-10.4664 45.3355 0)
(-7.38494 46.1243 0)
(-4.13577 46.1334 0)
(-0.831376 45.4425 0)
(2.46371 44.1198 0)
(5.69366 42.239 0)
(8.80593 39.8817 0)
(11.761 37.1245 0)
(14.5317 34.0353 0)
(17.1033 30.6727 0)
(19.4683 27.088 0)
(21.6245 23.3299 0)
(23.5691 19.4513 0)
(25.304 15.5147 0)
(26.816 11.5854 0)
(28.0877 7.72826 0)
(29.1951 4.00762 0)
(30.1243 0.461411 0)
(30.8767 -2.85567 0)
(31.4468 -5.90763 0)
(31.819 -8.68617 0)
(31.9743 -11.2061 0)
(31.8902 -13.5016 0)
(31.5402 -15.6282 0)
(30.9085 -17.6628 0)
(29.996 -19.6855 0)
(28.8186 -21.7514 0)
(27.3944 -23.8725 0)
(25.7443 -26.0239 0)
(23.8943 -28.156 0)
(21.8703 -30.1998 0)
(19.697 -32.0774 0)
(17.3967 -33.7037 0)
(14.979 -34.9718 0)
(12.494 -35.8563 0)
(9.97674 -36.3408 0)
(7.44472 -36.4165 0)
(4.91864 -36.0844 0)
(2.42004 -35.3489 0)
(-0.0298204 -34.2213 0)
(-2.40925 -32.7179 0)
(-4.69839 -30.8606 0)
(-6.88197 -28.6742 0)
(-8.94897 -26.1814 0)
(-10.8935 -23.402 0)
(-12.7188 -20.3506 0)
(-14.4335 -17.0322 0)
(-16.0534 -13.4553 0)
(-17.5665 -9.65448 0)
(-18.8359 -5.68459 0)
(-19.9506 -1.63559 0)
(-20.8655 2.48095 0)
(-21.5638 6.60754 0)
(-22.045 10.6826 0)
(-22.3066 14.6532 0)
(-22.3489 18.4689 0)
(-22.1751 22.0811 0)
(-21.7909 25.4436 0)
(-21.2038 28.5111 0)
(-20.4221 31.2325 0)
(-19.4496 33.5358 0)
(-18.2629 35.3023 0)
(-16.7672 36.2894 0)
(-15.0823 36.643 0)
(-13.2302 36.4091 0)
(-11.2183 35.6418 0)
(-9.08034 34.4133 0)
(-6.86218 32.7985 0)
(-4.61231 30.8725 0)
(-2.37689 28.7035 0)
(-0.194108 26.3497 0)
(1.91024 23.8537 0)
(3.9242 21.2401 0)
(5.85052 18.5219 0)
(7.71682 15.7036 0)
(9.57086 12.793 0)
(11.4004 9.81593 0)
(13.0607 6.85771 0)
(14.6286 4.0828 0)
(16.0452 1.4938 0)
(17.2972 -0.873321 0)
(18.3771 -2.99354 0)
(19.2674 -4.86741 0)
(19.9562 -6.50624 0)
(20.4327 -7.93289 0)
(20.6846 -9.17914 0)
(20.6992 -10.277 0)
(20.4497 -11.2571 0)
(19.9638 -12.1829 0)
(19.2866 -13.1159 0)
(18.4326 -14.0755 0)
(17.42 -15.0623 0)
(16.2642 -16.0671 0)
(14.9794 -17.0794 0)
(13.5781 -18.0894 0)
(12.071 -19.0851 0)
(10.4708 -20.0433 0)
(8.79241 -20.9204 0)
(7.06315 -21.7058 0)
(5.28647 -22.3667 0)
(3.46581 -22.8706 0)
(1.61427 -23.198 0)
(-0.250777 -23.3384 0)
(-2.11235 -23.278 0)
(-3.94894 -23.0019 0)
(-5.73491 -22.5031 0)
(-7.44325 -21.7707 0)
(-9.07047 -20.8371 0)
(-10.5932 -19.6703 0)
(-12.0086 -18.3356 0)
(-13.3266 -16.7878 0)
(-14.5077 -15.1115 0)
(-15.6011 -13.1809 0)
(-16.5016 -11.2786 0)
(-17.4145 -8.86746 0)
(-17.9775 -7.0986 0)
(-18.7417 -3.35169 0)
(-19.6047 -32.087 0)
(-21.0431 -29.4366 0)
(-22.3238 -26.5313 0)
(-23.4588 -23.4011 0)
(-24.4597 -20.066 0)
(-25.3367 -16.5368 0)
(-26.0909 -12.8213 0)
(-26.7165 -8.93208 0)
(-27.1985 -4.89235 0)
(-27.4793 -0.73296 0)
(-27.5495 3.51768 0)
(-27.4093 7.8369 0)
(-27.0181 12.1749 0)
(-26.3629 16.4741 0)
(-25.4309 20.6774 0)
(-24.2102 24.7277 0)
(-22.6977 28.575 0)
(-20.9033 32.1747 0)
(-18.8487 35.4622 0)
(-16.5485 38.3224 0)
(-13.9612 40.5657 0)
(-11.0017 41.9221 0)
(-7.76994 42.4888 0)
(-4.38861 42.3824 0)
(-0.951072 41.6648 0)
(2.46245 40.3918 0)
(5.79056 38.6235 0)
(8.98708 36.4275 0)
(12.0191 33.8671 0)
(14.8626 30.9951 0)
(17.5033 27.8611 0)
(19.9294 24.5133 0)
(22.1348 21.0032 0)
(24.1158 17.383 0)
(25.8496 13.6967 0)
(27.3539 10.0094 0)
(28.6781 6.38014 0)
(29.8195 2.85532 0)
(30.7837 -0.49439 0)
(31.5674 -3.60646 0)
(32.1567 -6.44004 0)
(32.5323 -8.97968 0)
(32.6701 -11.2338 0)
(32.5384 -13.2297 0)
(32.0777 -15.0208 0)
(31.3246 -16.7261 0)
(30.3024 -18.4458 0)
(29.0205 -20.2293 0)
(27.4938 -22.0882 0)
(25.7379 -24.0024 0)
(23.7722 -25.924 0)
(21.6225 -27.7838 0)
(19.32 -29.5002 0)
(16.8979 -30.9897 0)
(14.3923 -32.1793 0)
(11.8374 -33.0165 0)
(9.25537 -33.4736 0)
(6.66432 -33.5472 0)
(4.08348 -33.2366 0)
(1.53553 -32.5457 0)
(-0.959426 -31.4856 0)
(-3.38272 -30.0722 0)
(-5.71783 -28.3241 0)
(-7.95234 -26.2594 0)
(-10.0789 -23.8946 0)
(-12.0961 -21.2415 0)
(-14.0072 -18.3098 0)
(-15.8181 -15.1158 0)
(-17.5137 -11.6883 0)
(-18.9872 -8.06516 0)
(-20.3004 -4.33397 0)
(-21.417 -0.50352 0)
(-22.3179 3.37993 0)
(-22.9966 7.25858 0)
(-23.4455 11.0805 0)
(-23.6608 14.7961 0)
(-23.6433 18.3583 0)
(-23.3963 21.7227 0)
(-22.9249 24.8452 0)
(-22.2346 27.6809 0)
(-21.3272 30.1742 0)
(-20.1862 32.2316 0)
(-18.7369 33.6494 0)
(-17.0415 34.4028 0)
(-15.171 34.5519 0)
(-13.1158 34.1234 0)
(-10.8936 33.1965 0)
(-8.55173 31.8588 0)
(-6.14904 30.1937 0)
(-3.74409 28.2731 0)
(-1.38516 26.1577 0)
(0.894587 23.8917 0)
(3.07774 21.4967 0)
(5.16491 18.9775 0)
(7.18429 16.3346 0)
(9.18731 13.573 0)
(11.153 10.7019 0)
(12.9607 7.8056 0)
(14.6735 5.04401 0)
(16.2342 2.42768 0)
(17.6332 0.00703467 0)
(18.8668 -2.17206 0)
(19.9211 -4.08779 0)
(20.7809 -5.73725 0)
(21.4295 -7.13579 0)
(21.851 -8.3093 0)
(22.0292 -9.28122 0)
(21.9119 -10.0742 0)
(21.5469 -10.7777 0)
(20.9695 -11.4752 0)
(20.1933 -12.2038 0)
(19.2395 -12.977 0)
(18.1288 -13.7978 0)
(16.88 -14.6575 0)
(15.5086 -15.5379 0)
(14.0276 -16.4204 0)
(12.4469 -17.2955 0)
(10.7791 -18.1571 0)
(9.04577 -18.9854 0)
(7.27072 -19.7304 0)
(5.47006 -20.3443 0)
(3.64824 -20.8134 0)
(1.80337 -21.1195 0)
(-0.0529924 -21.254 0)
(-1.90547 -21.2059 0)
(-3.73806 -20.964 0)
(-5.53328 -20.5223 0)
(-7.27139 -19.8783 0)
(-8.93891 -19.0359 0)
(-10.5208 -17.9936 0)
(-12.0096 -16.7656 0)
(-13.3897 -15.3394 0)
(-14.6587 -13.7813 0)
(-15.8369 -11.9953 0)
(-16.8233 -10.2245 0)
(-17.8279 -7.96965 0)
(-18.4619 -6.32634 0)
(-19.3597 -2.81554 0)
(-19.8387 -30.2904 0)
(-21.4313 -27.8255 0)
(-22.8619 -25.0934 0)
(-24.1402 -22.1242 0)
(-25.2757 -18.9397 0)
(-26.2728 -15.5569 0)
(-27.1266 -11.9952 0)
(-27.8243 -8.28086 0)
(-28.3455 -4.44667 0)
(-28.6401 -0.519262 0)
(-28.7263 3.48099 0)
(-28.5741 7.52742 0)
(-28.157 11.5726 0)
(-27.4605 15.5611 0)
(-26.4757 19.4393 0)
(-25.1991 23.1549 0)
(-23.632 26.6724 0)
(-21.7809 29.9663 0)
(-19.6531 32.9764 0)
(-17.2332 35.5388 0)
(-14.445 37.3373 0)
(-11.3555 38.3653 0)
(-8.03838 38.7214 0)
(-4.559 38.497 0)
(-1.02107 37.7681 0)
(2.47127 36.5696 0)
(5.8527 34.9309 0)
(9.09198 32.9008 0)
(12.1667 30.5359 0)
(15.0546 27.8868 0)
(17.7398 24.9995 0)
(20.2016 21.9132 0)
(22.4091 18.6575 0)
(24.3726 15.2894 0)
(26.1292 11.8629 0)
(27.6869 8.40728 0)
(29.0607 4.97696 0)
(30.259 1.64927 0)
(31.2785 -1.49736 0)
(32.1061 -4.39413 0)
(32.7223 -6.99016 0)
(33.1022 -9.26219 0)
(33.2124 -11.2066 0)
(32.968 -12.8398 0)
(32.4096 -14.2835 0)
(31.5623 -15.6759 0)
(30.433 -17.1006 0)
(29.0387 -18.6009 0)
(27.396 -20.1897 0)
(25.5214 -21.8506 0)
(23.4346 -23.5444 0)
(21.163 -25.2146 0)
(18.7431 -26.7881 0)
(16.218 -28.1792 0)
(13.6291 -29.304 0)
(11.0061 -30.1025 0)
(8.36844 -30.5425 0)
(5.73342 -30.6207 0)
(3.11797 -30.3369 0)
(0.537698 -29.6968 0)
(-1.98819 -28.7094 0)
(-4.44273 -27.3864 0)
(-6.81414 -25.7401 0)
(-9.09397 -23.7832 0)
(-11.277 -21.5294 0)
(-13.3642 -18.9931 0)
(-15.3548 -16.1912 0)
(-17.2075 -13.1391 0)
(-18.8709 -9.88485 0)
(-20.3744 -6.49526 0)
(-21.6835 -2.98014 0)
(-22.7827 0.61931 0)
(-23.6609 4.25146 0)
(-24.3058 7.86865 0)
(-24.7089 11.4244 0)
(-24.8666 14.8735 0)
(-24.7789 18.1717 0)
(-24.4494 21.2755 0)
(-23.8806 24.1396 0)
(-23.0706 26.7151 0)
(-21.9975 28.9317 0)
(-20.6029 30.6388 0)
(-18.93 31.7625 0)
(-17.071 32.3088 0)
(-15.0231 32.2444 0)
(-12.7778 31.6134 0)
(-10.3627 30.527 0)
(-7.83718 29.0981 0)
(-5.27842 27.4142 0)
(-2.7536 25.5367 0)
(-0.307586 23.5079 0)
(2.03703 21.3489 0)
(4.27856 19.0563 0)
(6.44764 16.6211 0)
(8.60327 14.045 0)
(10.7054 11.3134 0)
(12.6667 8.52684 0)
(14.5319 5.82505 0)
(16.2437 3.2204 0)
(17.7956 0.772941 0)
(19.1825 -1.45917 0)
(20.391 -3.4374 0)
(21.4079 -5.13869 0)
(22.219 -6.55762 0)
(22.808 -7.70529 0)
(23.1566 -8.59764 0)
(23.2065 -9.25041 0)
(22.9747 -9.74575 0)
(22.516 -10.1966 0)
(21.8364 -10.6628 0)
(20.9574 -11.179 0)
(19.9018 -11.7636 0)
(18.6921 -12.4194 0)
(17.3489 -13.1341 0)
(15.8895 -13.8879 0)
(14.3276 -14.661 0)
(12.6748 -15.4409 0)
(10.944 -16.221 0)
(9.15486 -16.9882 0)
(7.33433 -17.7062 0)
(5.50619 -18.3115 0)
(3.67589 -18.7578 0)
(1.837 -19.0499 0)
(-0.00951381 -19.1827 0)
(-1.85057 -19.1478 0)
(-3.6732 -18.9358 0)
(-5.46423 -18.5403 0)
(-7.20936 -17.9582 0)
(-8.8954 -17.191 0)
(-10.5094 -16.2403 0)
(-12.0404 -15.1145 0)
(-13.4765 -13.8168 0)
(-14.8024 -12.376 0)
(-16.0388 -10.7314 0)
(-17.0904 -9.08793 0)
(-18.1665 -6.9857 0)
(-18.8607 -5.46236 0)
(-19.8697 -2.18931 0)
(-19.9381 -28.3217 0)
(-21.6749 -26.0459 0)
(-23.2481 -23.4938 0)
(-24.6638 -20.6942 0)
(-25.9254 -17.6738 0)
(-27.0304 -14.4594 0)
(-27.9677 -11.0831 0)
(-28.7196 -7.57841 0)
(-29.2583 -3.97446 0)
(-29.5784 -0.29466 0)
(-29.6699 3.44064 0)
(-29.5002 7.19537 0)
(-29.0501 10.9244 0)
(-28.3154 14.5851 0)
(-27.3055 18.1397 0)
(-26.0195 21.5445 0)
(-24.4298 24.7515 0)
(-22.5075 27.7204 0)
(-20.2331 30.3599 0)
(-17.6098 32.4906 0)
(-14.7046 33.9699 0)
(-11.5652 34.734 0)
(-8.21403 34.8721 0)
(-4.677 34.5205 0)
(-1.0549 33.7904 0)
(2.49068 32.6957 0)
(5.8721 31.1954 0)
(9.11002 29.3454 0)
(12.2085 27.2007 0)
(15.1063 24.7711 0)
(17.7674 22.1067 0)
(20.2056 19.2791 0)
(22.4187 16.3058 0)
(24.4169 13.1997 0)
(26.2195 9.99113 0)
(27.8432 6.73371 0)
(29.2941 3.49803 0)
(30.5683 0.368486 0)
(31.6544 -2.56517 0)
(32.5318 -5.22504 0)
(33.1721 -7.55443 0)
(33.5473 -9.51763 0)
(33.5792 -11.0899 0)
(33.2345 -12.3421 0)
(32.5841 -13.4417 0)
(31.6242 -14.5077 0)
(30.3755 -15.6213 0)
(28.8595 -16.831 0)
(27.0961 -18.151 0)
(25.1044 -19.5655 0)
(22.9042 -21.0387 0)
(20.5206 -22.5229 0)
(17.9909 -23.9574 0)
(15.365 -25.2614 0)
(12.6934 -26.3414 0)
(10.0102 -27.1223 0)
(7.33153 -27.5651 0)
(4.66778 -27.6635 0)
(2.03126 -27.4152 0)
(-0.564646 -26.8251 0)
(-3.1071 -25.9024 0)
(-5.5835 -24.6574 0)
(-7.98349 -23.103 0)
(-10.3077 -21.2527 0)
(-12.5506 -19.1163 0)
(-14.6854 -16.6968 0)
(-16.6679 -14.0168 0)
(-18.512 -11.1505 0)
(-20.1894 -8.1161 0)
(-21.6804 -4.93243 0)
(-22.971 -1.64033 0)
(-24.0453 1.71421 0)
(-24.8862 5.08722 0)
(-25.4797 8.434 0)
(-25.8148 11.7093 0)
(-25.8889 14.8726 0)
(-25.7081 17.8862 0)
(-25.2806 20.7105 0)
(-24.6058 23.2994 0)
(-23.6479 25.5751 0)
(-22.3237 27.403 0)
(-20.7107 28.7883 0)
(-18.8819 29.6964 0)
(-16.8637 30.0306 0)
(-14.649 29.7401 0)
(-12.2354 28.8981 0)
(-9.64883 27.6563 0)
(-6.96652 26.163 0)
(-4.28764 24.5016 0)
(-1.68467 22.7068 0)
(0.808331 20.788 0)
(3.18979 18.7379 0)
(5.50292 16.5413 0)
(7.8104 14.1767 0)
(10.0388 11.6035 0)
(12.1662 8.97598 0)
(14.1858 6.37785 0)
(16.0538 3.82814 0)
(17.7652 1.39122 0)
(19.3114 -0.868637 0)
(20.6781 -2.90068 0)
(21.8525 -4.66491 0)
(22.8215 -6.13636 0)
(23.5695 -7.30713 0)
(24.0807 -8.18054 0)
(24.3085 -8.75666 0)
(24.2152 -9.08493 0)
(23.8871 -9.30333 0)
(23.3199 -9.49919 0)
(22.5324 -9.7303 0)
(21.5475 -10.0363 0)
(20.389 -10.4381 0)
(19.0812 -10.9364 0)
(17.6465 -11.516 0)
(16.1042 -12.1519 0)
(14.4694 -12.8197 0)
(12.7532 -13.5064 0)
(10.9659 -14.2129 0)
(9.12454 -14.9363 0)
(7.2585 -15.6409 0)
(5.39985 -16.2537 0)
(3.55661 -16.7007 0)
(1.72082 -16.9876 0)
(-0.114673 -17.1229 0)
(-1.94192 -17.1012 0)
(-3.74981 -16.9153 0)
(-5.52813 -16.5602 0)
(-7.26589 -16.0333 0)
(-8.95135 -15.335 0)
(-10.5729 -14.4672 0)
(-12.119 -13.4359 0)
(-13.5803 -12.2444 0)
(-14.9391 -10.9172 0)
(-16.2189 -9.40782 0)
(-17.3174 -7.88458 0)
(-18.445 -5.93131 0)
(-19.1867 -4.52352 0)
(-20.279 -1.49035 0)
(-19.9004 -26.2095 0)
(-21.7788 -24.1148 0)
(-23.4897 -21.7421 0)
(-25.0316 -19.1227 0)
(-26.4022 -16.2886 0)
(-27.5913 -13.2721 0)
(-28.5786 -10.1067 0)
(-29.3686 -6.83246 0)
(-29.9458 -3.47443 0)