/*--------------------------------*- C++ -*----------------------------------*\
| =========                 |                                                 |
| \\      /  F ield         | OpenFOAM: The Open Source CFD Toolbox           |
|  \\    /   O peration     | Version:  2206                                  |
|   \\  /    A nd           | Website:  www.openfoam.com                      |
|    \\/     M anipulation  |                                                 |
\*---------------------------------------------------------------------------*/
FoamFile
{
    version     2.0;
    format      ascii;
    arch        "LSB;label=32;scalar=64";
    class       surfaceScalarField;
    location    "18.9999";
    object      phi_0;
}
// * * * * * * * * * * * * * * * * * * * * * * * * * * * * * * * * * * * * * //

dimensions      [0 3 -1 0 0 0 0];

oriented        oriented;

internalField   nonuniform List<scalar> 
9477
(
1.11715e-05
1.12289e-06
-1.18522e-06
1.12348e-05
1.24869e-06
-1.31198e-06
1.12986e-05
1.36158e-06
-1.42537e-06
1.13625e-05
1.46111e-06
-1.52499e-06
1.14261e-05
1.54697e-06
-1.6106e-06
1.14892e-05
1.61896e-06
-1.68206e-06
1.15516e-05
1.67688e-06
-1.73928e-06
1.16132e-05
1.72051e-06
-1.78217e-06
1.16743e-05
1.7494e-06
-1.81041e-06
1.17347e-05
1.76257e-06
-1.82304e-06
1.17944e-05
1.75852e-06
-1.81823e-06
1.1853e-05
1.73628e-06
-1.79481e-06
1.19099e-05
1.69525e-06
-1.75214e-06
1.19647e-05
1.63507e-06
-1.68988e-06
1.2017e-05
1.55565e-06
-1.60793e-06
1.20663e-05
1.45714e-06
-1.50643e-06
1.21121e-05
1.33997e-06
-1.3858e-06
1.21539e-05
1.20492e-06
-1.24677e-06
1.21913e-05
1.05308e-06
-1.09042e-06
1.22236e-05
8.85875e-07
-9.1821e-07
1.22505e-05
7.05113e-07
-7.3197e-07
1.22714e-05
5.13e-07
-5.33954e-07
1.22861e-05
3.12206e-07
-3.26847e-07
1.2294e-05
1.05976e-07
-1.13933e-07
1.22949e-05
-1.01276e-07
1.00392e-07
1.22886e-05
-3.05736e-07
3.12058e-07
1.2275e-05
-5.04492e-07
5.18073e-07
1.22542e-05
-6.94928e-07
7.15728e-07
1.22263e-05
-8.748e-07
9.02684e-07
1.21916e-05
-1.04226e-06
1.077e-06
1.21503e-05
-1.19586e-06
1.23716e-06
1.21028e-05
-1.33456e-06
1.38204e-06
1.20495e-05
-1.45763e-06
1.5109e-06
1.19909e-05
-1.56468e-06
1.62328e-06
1.19274e-05
-1.65551e-06
1.719e-06
1.18594e-05
-1.73013e-06
1.79813e-06
1.17872e-05
-1.78866e-06
1.86086e-06
1.17111e-05
-1.83133e-06
1.90744e-06
1.16314e-05
-1.85847e-06
1.93819e-06
1.15486e-05
-1.87068e-06
1.95352e-06
1.14632e-05
-1.86884e-06
1.95417e-06
1.1376e-05
-1.85377e-06
1.94103e-06
1.12874e-05
-1.82617e-06
1.91475e-06
1.11981e-05
-1.78657e-06
1.87582e-06
1.11089e-05
-1.73532e-06
1.82455e-06
1.10204e-05
-1.67259e-06
1.7611e-06
1.09334e-05
-1.59844e-06
1.68547e-06
1.08486e-05
-1.51285e-06
1.59764e-06
1.07668e-05
-1.4158e-06
1.49762e-06
1.06887e-05
-1.3074e-06
1.38551e-06
1.06149e-05
-1.1879e-06
1.26166e-06
1.05461e-05
-1.05784e-06
1.12663e-06
1.04828e-05
-9.18019e-07
9.81327e-07
1.04254e-05
-7.69526e-07
8.26908e-07
1.03743e-05
-6.13747e-07
6.64826e-07
1.03299e-05
-4.52317e-07
4.96782e-07
1.02923e-05
-2.87146e-07
3.24715e-07
1.02619e-05
-1.20569e-07
1.50995e-07
1.02386e-05
4.54433e-08
-2.21587e-08
1.02223e-05
2.09139e-07
-1.92884e-07
1.0213e-05
3.68828e-07
-3.59488e-07
1.021e-05
5.23108e-07
-5.20142e-07
1.02132e-05
6.70053e-07
-6.73188e-07
1.02226e-05
8.07816e-07
-8.17203e-07
1.02378e-05
9.35313e-07
-9.50571e-07
1.02584e-05
1.05151e-06
-1.07206e-06
1.02836e-05
1.15529e-06
-1.18056e-06
1.03131e-05
1.24576e-06
-1.27518e-06
1.03461e-05
1.32226e-06
-1.35527e-06
1.03822e-05
1.3843e-06
-1.42039e-06
1.04209e-05
1.4315e-06
-1.47028e-06
1.04622e-05
1.46344e-06
-1.50472e-06
1.05061e-05
1.47924e-06
-1.5231e-06
1.05523e-05
1.47782e-06
-1.52401e-06
1.06002e-05
1.45909e-06
-1.507e-06
1.06492e-05
1.42336e-06
-1.47241e-06
1.06989e-05
1.37118e-06
-1.42083e-06
1.07487e-05
1.30331e-06
-1.3531e-06
1.07982e-05
1.22069e-06
-1.27021e-06
1.08471e-05
1.12441e-06
-1.17331e-06
1.0895e-05
1.01569e-06
-1.06364e-06
1.09417e-05
8.95928e-07
-9.42639e-07
1.09869e-05
7.66652e-07
-8.11843e-07
1.10303e-05
6.29572e-07
-6.72965e-07
1.10716e-05
4.86578e-07
-5.27868e-07
1.11104e-05
3.39825e-07
-3.78635e-07
1.11462e-05
1.91933e-07
-2.2773e-07
1.11787e-05
4.51614e-08
-7.76264e-08
1.12075e-05
-9.87097e-08
6.98939e-08
1.12324e-05
-2.38043e-07
2.13172e-07
1.1253e-05
-3.71365e-07
3.50695e-07
1.12693e-05
-4.97389e-07
4.8113e-07
1.1281e-05
-6.15062e-07
6.03364e-07
1.12881e-05
-7.23542e-07
7.16486e-07
1.12905e-05
-8.22185e-07
8.19789e-07
1.12882e-05
-9.10557e-07
9.12783e-07
1.12815e-05
-9.88392e-07
9.95135e-07
1.12704e-05
-1.05555e-06
1.06667e-06
1.1255e-05
-1.11207e-06
1.12738e-06
1.12357e-05
-1.15803e-06
1.17735e-06
1.12126e-05
-1.19359e-06
1.21674e-06
1.11856e-05
-1.21885e-06
1.24579e-06
1.11549e-05
-1.23385e-06
1.26456e-06
1.11207e-05
-1.23885e-06
1.27305e-06
1.10836e-05
-1.23449e-06
1.27158e-06
1.10442e-05
-1.22136e-06
1.26077e-06
1.10031e-05
-1.19998e-06
1.24111e-06
1.09609e-05
-1.17081e-06
1.21304e-06
1.09181e-05
-1.13425e-06
1.17697e-06
1.08756e-05
-1.09064e-06
1.13322e-06
1.08337e-05
-1.04023e-06
1.08205e-06
1.07933e-05
-9.83236e-07
1.02366e-06
1.07549e-05
-9.198e-07
9.58188e-07
1.07192e-05
-8.50039e-07
8.85769e-07
1.06867e-05
-7.74058e-07
8.06523e-07
1.06581e-05
-6.91991e-07
7.20602e-07
1.06339e-05
-6.04028e-07
6.28211e-07
1.06147e-05
-5.10421e-07
5.29665e-07
1.06009e-05
-4.11542e-07
4.2538e-07
1.05929e-05
-3.07897e-07
3.15893e-07
1.0591e-05
-2.00154e-07
2.02044e-07
1.05956e-05
-8.93816e-08
8.47545e-08
1.06068e-05
2.39424e-08
-3.51312e-08
1.06242e-05
1.38925e-07
-1.56375e-07
1.06478e-05
2.53633e-07
-2.77169e-07
1.06771e-05
3.66717e-07
-3.96e-07
1.07116e-05
4.77077e-07
-5.11634e-07
1.07509e-05
5.83654e-07
-6.22896e-07
1.07942e-05
6.85228e-07
-7.28569e-07
1.08408e-05
7.81248e-07
-8.27877e-07
1.08903e-05
8.6997e-07
-9.19392e-07
1.09414e-05
9.52467e-07
-1.00359e-06
1.0994e-05
1.02504e-06
-1.07766e-06
1.1047e-05
1.09211e-06
-1.14507e-06
1.10999e-05
1.14686e-06
-1.19985e-06
1.11521e-05
1.1968e-06
-1.24898e-06
1.12038e-05
1.23395e-06
-1.28562e-06
1.26682e-06
-1.31596e-06
1.11958e-05
1.05639e-06
1.1264e-05
1.18049e-06
1.13334e-05
1.29217e-06
1.14036e-05
1.39092e-06
1.14742e-05
1.47638e-06
1.15449e-05
1.54827e-06
1.16154e-05
1.60631e-06
1.16858e-05
1.65016e-06
1.17559e-05
1.67926e-06
1.18258e-05
1.69269e-06
1.18951e-05
1.68923e-06
1.19633e-05
1.66803e-06
1.203e-05
1.62857e-06
1.20946e-05
1.57051e-06
1.21565e-05
1.49378e-06
1.2215e-05
1.39857e-06
1.22696e-05
1.28536e-06
1.23196e-05
1.15493e-06
1.23644e-05
1.00833e-06
1.24033e-05
8.46997e-07
1.24357e-05
6.72688e-07
1.24611e-05
4.87561e-07
1.24791e-05
2.94249e-07
1.24891e-05
9.59955e-08
1.24907e-05
-1.0287e-07
1.24838e-05
-2.98828e-07
1.24683e-05
-4.89082e-07
1.24446e-05
-6.71138e-07
1.24126e-05
-8.42875e-07
1.23729e-05
-1.00255e-06
1.23259e-05
-1.14881e-06
1.2272e-05
-1.28064e-06
1.22117e-05
-1.39737e-06
1.21456e-05
-1.49858e-06
1.20742e-05
-1.58408e-06
1.19979e-05
-1.65383e-06
1.19171e-05
-1.70791e-06
1.18323e-05
-1.74652e-06
1.17439e-05
-1.77009e-06
1.16526e-05
-1.77934e-06
1.15589e-05
-1.77516e-06
1.14635e-05
-1.75838e-06
1.1367e-05
-1.72969e-06
1.12701e-05
-1.68967e-06
1.11735e-05
-1.63871e-06
1.10779e-05
-1.57701e-06
1.09842e-05
-1.50467e-06
1.0893e-05
-1.42165e-06
1.08051e-05
-1.32796e-06
1.07214e-05
-1.22366e-06
1.06425e-05
-1.10898e-06
1.0569e-05
-9.84393e-07
1.05016e-05
-8.50617e-07
1.04408e-05
-7.08671e-07
1.03869e-05
-5.59846e-07
1.03402e-05
-4.05686e-07
1.03011e-05
-2.48053e-07
1.02697e-05
-8.91464e-08
1.02459e-05
6.92405e-08
1.02296e-05
2.25435e-07
1.02207e-05
3.77787e-07
1.02191e-05
5.24695e-07
1.02246e-05
6.64485e-07
1.02368e-05
7.95661e-07
1.02551e-05
9.17009e-07
1.02792e-05
1.02747e-06
1.03084e-05
1.12601e-06
1.03423e-05
1.21183e-06
1.03804e-05
1.28422e-06
1.0422e-05
1.34265e-06
1.04669e-05
1.38662e-06
1.05149e-05
1.4155e-06
1.05658e-05
1.42834e-06
1.06191e-05
1.42445e-06
1.06743e-05
1.40393e-06
1.07306e-05
1.36702e-06
1.07875e-05
1.31425e-06
1.08445e-05
1.24632e-06
1.09011e-05
1.16412e-06
1.09568e-05
1.0687e-06
1.10113e-05
9.61242e-07
1.10641e-05
8.43108e-07
1.11149e-05
7.15817e-07
1.11634e-05
5.81077e-07
1.12092e-05
4.40813e-07
1.12517e-05
2.97303e-07
1.12904e-05
1.5322e-07
1.1325e-05
1.06038e-08
1.1355e-05
-1.28775e-07
1.13803e-05
-2.63315e-07
1.14005e-05
-3.91598e-07
1.14156e-05
-5.1241e-07
1.14253e-05
-6.24767e-07
1.14296e-05
-7.2791e-07
1.14287e-05
-8.21269e-07
1.14226e-05
-9.04465e-07
1.14115e-05
-9.77288e-07
1.13956e-05
-1.03964e-06
1.13751e-05
-1.09154e-06
1.13501e-05
-1.13309e-06
1.13209e-05
-1.16432e-06
1.12873e-05
-1.1853e-06
1.12497e-05
-1.19626e-06
1.12087e-05
-1.19777e-06
1.11647e-05
-1.19052e-06
1.11185e-05
-1.17512e-06
1.10706e-05
-1.1521e-06
1.10217e-05
-1.12195e-06
1.09725e-05
-1.08506e-06
1.09237e-05
-1.04177e-06
1.08758e-05
-9.92326e-07
1.08295e-05
-9.36928e-07
1.07854e-05
-8.75722e-07
1.07442e-05
-8.0882e-07
1.07064e-05
-7.36317e-07
1.06728e-05
-6.58332e-07
1.06438e-05
-5.75027e-07
1.062e-05
-4.8662e-07
1.06018e-05
-3.93415e-07
1.05898e-05
-2.9584e-07
1.0584e-05
-1.94354e-07
1.05844e-05
-8.97595e-08
1.05915e-05
1.68458e-08
1.06056e-05
1.24774e-07
1.06263e-05
2.32961e-07
1.06531e-05
3.39915e-07
1.06856e-05
4.44554e-07
1.07233e-05
5.45957e-07
1.07656e-05
6.42882e-07
1.08119e-05
7.35015e-07
1.08616e-05
8.20294e-07
1.09137e-05
9.0036e-07
1.09679e-05
9.70772e-07
1.10234e-05
1.03661e-06
1.10796e-05
1.09072e-06
1.11358e-05
1.14057e-06
1.11922e-05
1.17757e-06
1.21191e-06
1.12212e-05
9.861e-07
1.12939e-05
1.10776e-06
1.13686e-05
1.21752e-06
1.14447e-05
1.31481e-06
1.15218e-05
1.39923e-06
1.15997e-05
1.47041e-06
1.1678e-05
1.52798e-06
1.17567e-05
1.57153e-06
1.18355e-05
1.60045e-06
1.19143e-05
1.61387e-06
1.19927e-05
1.61079e-06
1.20702e-05
1.59053e-06
1.21462e-05
1.55259e-06
1.222e-05
1.49672e-06
1.22909e-05
1.42289e-06
1.23581e-05
1.33134e-06
1.24209e-05
1.22256e-06
1.24785e-05
1.09731e-06
1.25302e-05
9.56666e-07
1.25752e-05
8.02005e-07
1.26128e-05
6.35051e-07
1.26425e-05
4.57918e-07
1.26635e-05
2.7319e-07
1.26754e-05
8.41337e-08
1.26776e-05
-1.05111e-07
1.26702e-05
-2.91354e-07
1.2653e-05
-4.71948e-07
1.26264e-05
-6.44545e-07
1.25907e-05
-8.0717e-07
1.25464e-05
-9.58196e-07
1.24939e-05
-1.09636e-06
1.2434e-05
-1.22071e-06
1.23672e-05
-1.33058e-06
1.22941e-05
-1.42553e-06
1.22154e-05
-1.50533e-06
1.21314e-05
-1.56989e-06
1.20428e-05
-1.61929e-06
1.19501e-05
-1.65378e-06
1.18539e-05
-1.67386e-06
1.17548e-05
-1.6803e-06
1.16536e-05
-1.67396e-06
1.15509e-05
-1.65563e-06
1.14472e-05
-1.62607e-06
1.13435e-05
-1.58587e-06
1.12402e-05
-1.53548e-06
1.11384e-05
-1.47515e-06
1.10387e-05
-1.40496e-06
1.09419e-05
-1.32493e-06
1.0849e-05
-1.23501e-06
1.07606e-05
-1.13525e-06
1.06774e-05
-1.02584e-06
1.06002e-05
-9.07184e-07
1.05295e-05
-7.79948e-07
1.04659e-05
-6.45068e-07
1.04098e-05
-5.03747e-07
1.03616e-05
-3.57445e-07
1.03215e-05
-2.07971e-07
1.02897e-05
-5.73287e-08
1.02661e-05
9.28209e-08
1.02507e-05
2.40862e-07
1.02433e-05
3.85183e-07
1.02438e-05
5.24223e-07
1.02518e-05
6.56469e-07
1.02669e-05
7.80551e-07
1.02886e-05
8.95259e-07
1.03166e-05
9.9954e-07
1.03502e-05
1.09244e-06
1.03888e-05
1.17314e-06
1.04321e-05
1.24097e-06
1.04794e-05
1.2953e-06
1.05306e-05
1.33551e-06
1.05852e-05
1.36084e-06
1.06431e-05
1.37046e-06
1.07035e-05
1.36403e-06
1.07658e-05
1.34165e-06
1.08293e-05
1.30355e-06
1.08933e-05
1.25022e-06
1.09573e-05
1.18233e-06
1.10207e-05
1.10074e-06
1.10829e-05
1.00643e-06
1.11436e-05
9.00574e-07
1.12022e-05
7.8449e-07
1.12584e-05
6.59684e-07
1.13116e-05
5.27864e-07
1.13614e-05
3.91008e-07
1.14071e-05
2.51588e-07
1.14482e-05
1.12131e-07
1.14843e-05
-2.54677e-08
1.1515e-05
-1.59478e-07
1.154e-05
-2.88354e-07
1.15591e-05
-4.10751e-07
1.15723e-05
-5.25552e-07
1.15794e-05
-6.31861e-07
1.15805e-05
-7.29006e-07
1.15757e-05
-8.16501e-07
1.15653e-05
-8.94017e-07
1.15494e-05
-9.61379e-07
1.15282e-05
-1.01851e-06
1.15021e-05
-1.0654e-06
1.14711e-05
-1.10206e-06
1.14352e-05
-1.1285e-06
1.13948e-05
-1.14487e-06
1.13502e-05
-1.15171e-06
1.13022e-05
-1.14973e-06
1.12513e-05
-1.13963e-06
1.11982e-05
-1.12202e-06
1.11436e-05
-1.09748e-06
1.10881e-05
-1.0665e-06
1.10326e-05
-1.02948e-06
1.09775e-05
-9.86739e-07
1.09237e-05
-9.38521e-07
1.08718e-05
-8.85001e-07
1.08224e-05
-8.26303e-07
1.07761e-05
-7.62522e-07
1.07335e-05
-6.93736e-07
1.06952e-05
-6.20041e-07
1.06617e-05
-5.41574e-07
1.06337e-05
-4.58529e-07
1.06114e-05
-3.7116e-07
1.05954e-05
-2.79847e-07
1.05861e-05
-1.8504e-07
1.05834e-05
-8.70427e-08
1.05872e-05
1.30077e-08
1.05981e-05
1.13849e-07
1.06161e-05
2.15004e-07
1.06405e-05
3.15478e-07
1.06711e-05
4.14015e-07
1.07072e-05
5.09799e-07
1.07485e-05
6.0158e-07
1.07943e-05
6.89261e-07
1.08441e-05
7.70518e-07
1.0897e-05
8.47431e-07
1.09526e-05
9.15139e-07
1.10104e-05
9.78853e-07
1.10694e-05
1.03168e-06
1.11293e-05
1.08065e-06
1.119e-05
1.11692e-06
1.15169e-06
1.12465e-05
9.12395e-07
1.13234e-05
1.03089e-06
1.14029e-05
1.13803e-06
1.14845e-05
1.23321e-06
1.15678e-05
1.31594e-06
1.16524e-05
1.3858e-06
1.1738e-05
1.44236e-06
1.18244e-05
1.48513e-06
1.19114e-05
1.51347e-06
1.19986e-05
1.52663e-06
1.20857e-05
1.52377e-06
1.21719e-05
1.50434e-06
1.22565e-05
1.46794e-06
1.23388e-05
1.41438e-06
1.2418e-05
1.34368e-06
1.24933e-05
1.25612e-06
1.25636e-05
1.1522e-06
1.26282e-05
1.0327e-06
1.26862e-05
8.98653e-07
1.27368e-05
7.51409e-07
1.27793e-05
5.92639e-07
1.28128e-05
4.24419e-07
1.28366e-05
2.49319e-07
1.28502e-05
7.06003e-08
1.28529e-05
-1.07885e-07
1.28449e-05
-2.83307e-07
1.28261e-05
-4.53189e-07
1.27969e-05
-6.15357e-07
1.27578e-05
-7.6799e-07
1.27092e-05
-9.09593e-07
1.26518e-05
-1.03899e-06
1.25864e-05
-1.15528e-06
1.25136e-05
-1.2578e-06
1.24341e-05
-1.34609e-06
1.23487e-05
-1.41987e-06
1.22578e-05
-1.47903e-06
1.21622e-05
-1.52363e-06
1.20624e-05
-1.55398e-06
1.19591e-05
-1.57065e-06
1.18533e-05
-1.57441e-06
1.17453e-05
-1.56604e-06
1.1636e-05
-1.54634e-06
1.15261e-05
-1.5161e-06
1.14162e-05
-1.47596e-06
1.13071e-05
-1.42641e-06
1.11997e-05
-1.36776e-06
1.10949e-05
-1.30013e-06
1.09934e-05
-1.2235e-06
1.08963e-05
-1.13782e-06
1.08041e-05
-1.04309e-06
1.07177e-05
-9.39441e-07
1.06377e-05
-8.27219e-07
1.05648e-05
-7.07018e-07
1.04994e-05
-5.797e-07
1.04421e-05
-4.4639e-07
1.03931e-05
-3.08477e-07
1.03529e-05
-1.67715e-07
1.03214e-05
-2.58707e-08
1.02987e-05
1.15493e-07
1.02848e-05
2.5483e-07
1.02793e-05
3.90604e-07
1.02822e-05
5.21332e-07
1.02931e-05
6.45606e-07
1.03115e-05
7.62139e-07
1.0337e-05
8.69765e-07
1.03691e-05
9.67455e-07
1.04072e-05
1.0543e-06
1.04509e-05
1.12949e-06
1.04995e-05
1.1923e-06
1.05528e-05
1.24207e-06
1.06102e-05
1.27804e-06
1.06716e-05
1.29944e-06
1.07364e-05
1.30569e-06
1.08038e-05
1.29665e-06
1.08731e-05
1.27237e-06
1.09435e-05
1.23308e-06
1.10145e-05
1.17927e-06
1.10852e-05
1.11157e-06
1.11552e-05
1.03079e-06
1.12237e-05
9.37899e-07
1.12903e-05
8.34019e-07
1.13543e-05
7.20443e-07
1.14154e-05
5.98657e-07
1.14728e-05
4.70377e-07
1.15261e-05
3.37709e-07
1.15745e-05
2.03263e-07
1.16173e-05
6.92764e-08
1.16543e-05
-6.24208e-08
1.1685e-05
-1.90167e-07
1.17091e-05
-3.12498e-07
1.17265e-05
-4.28172e-07
1.17372e-05
-5.36181e-07
1.1741e-05
-6.35746e-07
1.17383e-05
-7.26278e-07
1.17292e-05
-8.07371e-07
1.17139e-05
-8.78747e-07
1.16928e-05
-9.40238e-07
1.1666e-05
-9.91742e-07
1.16338e-05
-1.03319e-06
1.15962e-05
-1.0645e-06
1.15535e-05
-1.08576e-06
1.1506e-05
-1.09741e-06
1.14545e-05
-1.10014e-06
1.13994e-05
-1.09469e-06
1.13416e-05
-1.08177e-06
1.12816e-05
-1.06205e-06
1.12203e-05
-1.03613e-06
1.11583e-05
-1.0045e-06
1.10963e-05
-9.6757e-07
1.10353e-05
-9.25658e-07
1.09757e-05
-8.78985e-07
1.09184e-05
-8.27693e-07
1.0864e-05
-7.71865e-07
1.0813e-05
-7.11549e-07
1.07661e-05
-6.46791e-07
1.07237e-05
-5.77655e-07
1.06864e-05
-5.0425e-07
1.06546e-05
-4.26738e-07
1.06287e-05
-3.45341e-07
1.06093e-05
-2.6037e-07
1.05964e-05
-1.72214e-07
1.05907e-05
-8.13392e-08
1.05923e-05
1.14843e-08
1.06007e-05
1.0536e-07
1.06162e-05
1.99565e-07
1.06384e-05
2.93259e-07
1.06671e-05
3.85348e-07
1.07018e-05
4.75109e-07
1.0742e-05
5.61302e-07
1.07873e-05
6.43983e-07
1.08371e-05
7.20735e-07
1.08908e-05
7.93739e-07
1.09476e-05
8.58361e-07
1.10073e-05
9.19142e-07
1.1069e-05
9.70004e-07
1.11323e-05
1.01733e-06
1.11969e-05
1.05233e-06
1.0865e-06
1.12705e-05
8.35659e-07
1.13511e-05
9.50283e-07
1.1435e-05
1.05412e-06
1.15217e-05
1.14653e-06
1.16107e-05
1.22696e-06
1.17015e-05
1.29493e-06
1.1794e-05
1.34994e-06
1.18876e-05
1.39147e-06
1.19822e-05
1.41889e-06
1.20773e-05
1.43154e-06
1.21723e-05
1.42878e-06
1.22665e-05
1.41014e-06
1.23591e-05
1.37534e-06
1.24492e-05
1.32422e-06
1.2536e-05
1.25689e-06
1.26185e-05
1.17365e-06
1.26957e-05
1.07502e-06
1.27666e-05
9.61777e-07
1.28303e-05
8.34937e-07
1.2886e-05
6.95786e-07
1.29326e-05
5.45948e-07
1.29696e-05
3.87486e-07
1.29959e-05
2.22967e-07
1.30109e-05
5.56733e-08
1.3014e-05
-1.11044e-07
1.30054e-05
-2.74658e-07
1.29851e-05
-4.32901e-07
1.29535e-05
-5.83793e-07
1.29112e-05
-7.25674e-07
1.28588e-05
-8.57182e-07
1.2797e-05
-9.7722e-07
1.27267e-05
-1.08494e-06
1.26485e-05
-1.17967e-06
1.25634e-05
-1.26094e-06
1.2472e-05
-1.32843e-06
1.23749e-05
-1.38201e-06
1.22731e-05
-1.42176e-06
1.21671e-05
-1.44802e-06
1.20578e-05
-1.46138e-06
1.1946e-05
-1.46253e-06
1.18321e-05
-1.45223e-06
1.17171e-05
-1.43131e-06
1.16016e-05
-1.40056e-06
1.14863e-05
-1.36069e-06
1.13721e-05
-1.31226e-06
1.126e-05
-1.25563e-06
1.11508e-05
-1.19094e-06
1.10455e-05
-1.11818e-06
1.09449e-05
-1.03724e-06
1.08499e-05
-9.48061e-07
1.07612e-05
-8.50706e-07
1.06794e-05
-7.45447e-07
1.06052e-05
-6.32801e-07
1.0539e-05
-5.13553e-07
1.04814e-05
-3.88755e-07
1.04327e-05
-2.59742e-07
1.03931e-05
-1.28163e-07
1.03628e-05
4.43611e-09
1.03417e-05
1.36568e-07
1.03298e-05
2.66763e-07
1.03268e-05
3.93568e-07
1.03326e-05
5.15585e-07
1.03467e-05
6.31492e-07
1.03687e-05
7.40082e-07
1.03983e-05
8.40235e-07
1.04348e-05
9.3096e-07
1.04777e-05
1.01137e-06
1.05265e-05
1.08065e-06
1.05808e-05
1.13802e-06
1.06401e-05
1.18276e-06
1.07041e-05
1.21407e-06
1.07722e-05
1.23131e-06
1.08438e-05
1.23412e-06
1.0918e-05
1.22241e-06
1.09942e-05
1.19623e-06
1.10714e-05
1.15581e-06
1.11491e-05
1.10163e-06
1.12264e-05
1.0343e-06
1.13026e-05
9.54593e-07
1.1377e-05
8.63456e-07
1.1449e-05
7.61972e-07
1.15181e-05
6.51403e-07
1.15835e-05
5.3321e-07
1.16448e-05
4.09159e-07
1.17009e-05
2.81568e-07
1.17512e-05
1.52956e-07
1.17952e-05
2.53154e-08
1.18323e-05
-9.95775e-08
1.18623e-05
-2.20154e-07
1.18849e-05
-3.35063e-07
1.18999e-05
-4.43195e-07
1.19074e-05
-5.43674e-07
1.19075e-05
-6.35842e-07
1.19004e-05
-7.19208e-07
1.18865e-05
-7.93421e-07
1.18659e-05
-8.58227e-07
1.18391e-05
-9.1344e-07
1.18063e-05
-9.58886e-07
1.17675e-05
-9.94414e-07
1.1723e-05
-1.01999e-06
1.16732e-05
-1.03593e-06
1.16186e-05
-1.04286e-06
1.156e-05
-1.04151e-06
1.14979e-05
-1.03262e-06
1.14331e-05
-1.01698e-06
1.13664e-05
-9.9527e-07
1.12983e-05
-9.68122e-07
1.12299e-05
-9.36054e-07
1.11618e-05
-8.99483e-07
1.10949e-05
-8.58721e-07
1.10299e-05
-8.13962e-07
1.09675e-05
-7.65301e-07
1.09084e-05
-7.12756e-07
1.08531e-05
-6.56309e-07
1.08023e-05
-5.95945e-07
1.07563e-05
-5.31699e-07
1.07157e-05
-4.63649e-07
1.06809e-05
-3.91911e-07
1.06522e-05
-3.16667e-07
1.063e-05
-2.38186e-07
1.06146e-05
-1.5683e-07
1.06064e-05
-7.30656e-08
1.06054e-05
1.24949e-08
1.06116e-05
9.91518e-08
1.06249e-05
1.86202e-07
1.06453e-05
2.72892e-07
1.06724e-05
3.58264e-07
1.07058e-05
4.41663e-07
1.07452e-05
5.21909e-07
1.07901e-05
5.99099e-07
1.08399e-05
6.70982e-07
1.08942e-05
7.39389e-07
1.09521e-05
8.00471e-07
1.10136e-05
8.57686e-07
1.10776e-05
9.05923e-07
1.11441e-05
9.50856e-07
1.12124e-05
9.84035e-07
1.01666e-06
1.12919e-05
7.56286e-07
1.13758e-05
8.66357e-07
1.14637e-05
9.6624e-07
1.1555e-05
1.05524e-06
1.16492e-05
1.13277e-06
1.17458e-05
1.19829e-06
1.18445e-05
1.25125e-06
1.19448e-05
1.29112e-06
1.20464e-05
1.31731e-06
1.21487e-05
1.32927e-06
1.2251e-05
1.3265e-06
1.23525e-05
1.30866e-06
1.24523e-05
1.27551e-06
1.25495e-05
1.22701e-06
1.26431e-05
1.16329e-06
1.27321e-05
1.08469e-06
1.28153e-05
9.91767e-07
1.28918e-05
8.85285e-07
1.29605e-05
7.66206e-07
1.30206e-05
6.35752e-07
1.3071e-05
4.9551e-07
1.31109e-05
3.47571e-07
1.31393e-05
1.94562e-07
1.31553e-05
3.96633e-08
1.31587e-05
-1.14399e-07
1.31494e-05
-2.65354e-07
1.31277e-05
-4.11172e-07
1.30939e-05
-5.50076e-07
1.30488e-05
-6.80575e-07
1.29931e-05
-8.01426e-07
1.29275e-05
-9.11615e-07
1.28529e-05
-1.01032e-06
1.27701e-05
-1.09688e-06
1.26799e-05
-1.17081e-06
1.25833e-05
-1.23178e-06
1.2481e-05
-1.27967e-06
1.23738e-05
-1.31457e-06
1.22626e-05
-1.33681e-06
1.21481e-05
-1.34691e-06
1.20311e-05
-1.34549e-06
1.19122e-05
-1.33334e-06
1.17921e-05
-1.31129e-06
1.16718e-05
-1.28019e-06
1.15519e-05
-1.2408e-06
1.14334e-05
-1.19376e-06
1.13173e-05
-1.1395e-06
1.12045e-05
-1.07819e-06
1.10961e-05
-1.00977e-06
1.0993e-05
-9.34102e-07
1.08959e-05
-8.51025e-07
1.08058e-05
-7.60524e-07
1.07231e-05
-6.62781e-07
1.06485e-05
-5.58226e-07
1.05825e-05
-4.47562e-07
1.05255e-05
-3.31773e-07
1.04779e-05
-2.12149e-07
1.04399e-05
-9.01497e-08
1.04115e-05
3.28224e-08
1.03928e-05
1.55352e-07
1.03835e-05
2.76044e-07
1.03835e-05
3.93531e-07
1.03926e-05
5.06501e-07
1.04104e-05
6.13711e-07
1.04364e-05
7.1402e-07
1.04703e-05
8.06368e-07
1.05115e-05
8.89787e-07
1.05594e-05
9.63398e-07
1.06137e-05
1.02637e-06
1.06739e-05
1.07789e-06
1.07394e-05
1.11718e-06
1.08099e-05
1.14355e-06
1.08847e-05
1.15652e-06
1.0963e-05
1.15586e-06
1.10439e-05
1.14147e-06
1.11268e-05
1.11342e-06
1.12106e-05
1.07197e-06
1.12947e-05
1.01758e-06
1.13781e-05
9.50842e-07
1.14602e-05
8.72524e-07
1.15401e-05
7.83528e-07
1.16172e-05
6.84903e-07
1.16907e-05
5.77879e-07
1.176e-05
4.63913e-07
1.18243e-05
3.449e-07
1.18825e-05
2.23313e-07
1.19341e-05
1.01385e-07
1.19784e-05
-1.90033e-08
1.2015e-05
-1.36163e-07
1.20435e-05
-2.4865e-07
1.20637e-05
-3.55275e-07
1.20756e-05
-4.5509e-07
1.20793e-05
-5.47376e-07
1.2075e-05
-6.31593e-07
1.20632e-05
-7.07332e-07
1.2044e-05
-7.7427e-07
1.20179e-05
-8.32136e-07
1.19852e-05
-8.80667e-07
1.19459e-05
-9.19602e-07
1.19002e-05
-9.48795e-07
1.18487e-05
-9.68425e-07
1.17918e-05
-9.79007e-07
1.17301e-05
-9.81209e-07
1.16644e-05
-9.75788e-07
1.15953e-05
-9.63549e-07
1.15236e-05
-9.45287e-07
1.14501e-05
-9.21747e-07
1.13756e-05
-8.93581e-07
1.13008e-05
-8.61338e-07
1.12268e-05
-8.25447e-07
1.11543e-05
-7.8623e-07
1.10842e-05
-7.43831e-07
1.10171e-05
-6.98253e-07
1.09538e-05
-6.49416e-07
1.08947e-05
-5.97236e-07
1.08404e-05
-5.4166e-07
1.07914e-05
-4.82683e-07
1.07481e-05
-4.20327e-07
1.07108e-05
-3.54645e-07
1.06799e-05
-2.85768e-07
1.06557e-05
-2.13943e-07
1.06384e-05
-1.39499e-07
1.06282e-05
-6.28677e-08
1.06252e-05
1.54185e-08
1.06296e-05
9.47589e-08
1.06413e-05
1.74515e-07
1.06602e-05
2.54014e-07
1.0686e-05
3.32458e-07
1.07184e-05
4.09225e-07
1.07571e-05
4.83251e-07
1.08017e-05
5.54538e-07
1.08514e-05
6.21222e-07
1.09063e-05
6.84473e-07
1.09653e-05
7.41489e-07
1.10284e-05
7.94582e-07
1.10947e-05
8.39607e-07
1.11641e-05
8.81474e-07
1.12358e-05
9.12338e-07
9.42543e-07
1.13094e-05
6.74689e-07
1.13963e-05
7.79543e-07
1.14877e-05
8.74833e-07
1.15831e-05
9.59824e-07
1.1682e-05
1.03387e-06
1.17839e-05
1.0964e-06
1.18883e-05
1.14685e-06
1.19947e-05
1.18468e-06
1.21027e-05
1.20937e-06
1.22115e-05
1.22048e-06
1.23203e-05
1.21765e-06
1.24283e-05
1.20062e-06
1.25346e-05
1.16924e-06
1.26381e-05
1.12352e-06
1.27377e-05
1.06366e-06
1.28324e-05
9.90033e-07
1.29209e-05
9.03226e-07
1.30022e-05
8.03966e-07
1.30753e-05
6.9315e-07
1.31391e-05
5.71926e-07
1.31928e-05
4.4187e-07
1.32352e-05
3.05178e-07
1.32651e-05
1.64613e-07
1.32819e-05
2.2896e-08
1.32852e-05
-1.17748e-07
1.32752e-05
-2.55337e-07
1.32521e-05
-3.88092e-07
1.32165e-05
-5.14442e-07
1.3169e-05
-6.33057e-07
1.31104e-05
-7.42803e-07
1.30415e-05
-8.42736e-07
1.29632e-05
-9.32061e-07
1.28765e-05
-1.01014e-06
1.27822e-05
-1.07649e-06
1.26812e-05
-1.13079e-06
1.25744e-05
-1.17293e-06
1.24629e-05
-1.20299e-06
1.23473e-05
-1.22121e-06
1.22284e-05
-1.22802e-06
1.21069e-05
-1.22404e-06
1.19836e-05
-1.21006e-06
1.18593e-05
-1.18697e-06
1.17348e-05
-1.15567e-06
1.1611e-05
-1.117e-06
1.14889e-05
-1.07166e-06
1.13696e-05
-1.02017e-06
1.12541e-05
-9.62691e-07
1.11434e-05
-8.99128e-07
1.10386e-05
-8.29246e-07
1.09404e-05
-7.52821e-07
1.08496e-05
-6.69735e-07
1.07669e-05
-5.80069e-07
1.06928e-05
-4.84155e-07
1.06278e-05
-3.82609e-07
1.05724e-05
-2.76341e-07
1.05268e-05
-1.66526e-07
1.04911e-05
-5.44451e-08
1.04653e-05
5.85668e-08
1.04495e-05
1.71179e-07
1.04435e-05
2.8207e-07
1.0447e-05
3.89956e-07
1.04599e-05
4.93604e-07
1.04818e-05
5.91848e-07
1.05122e-05
6.836e-07
1.05507e-05
7.6785e-07
1.05969e-05
8.43654e-07
1.06502e-05
9.10122e-07
1.07101e-05
9.66405e-07
1.07763e-05
1.01168e-06
1.08483e-05
1.04523e-06
1.09253e-05
1.06651e-06
1.10066e-05
1.0752e-06
1.10915e-05
1.07105e-06
1.11789e-05
1.05401e-06
1.12681e-05
1.02419e-06
1.13583e-05
9.81859e-07
1.14484e-05
9.27473e-07
1.15376e-05
8.61621e-07
1.16251e-05
7.85045e-07
1.171e-05
6.98618e-07
1.17915e-05
6.03358e-07
1.18689e-05
5.00467e-07
1.19414e-05
3.9146e-07
1.20078e-05
2.78436e-07
1.20674e-05
1.6373e-07
1.21195e-05
4.93477e-08
1.21633e-05
-6.28773e-08
1.21986e-05
-1.71384e-07
1.22248e-05
-2.74908e-07
1.2242e-05
-3.7246e-07
1.22502e-05
-4.63276e-07
1.22496e-05
-5.46794e-07
1.22406e-05
-6.22586e-07
1.22236e-05
-6.90292e-07
1.21989e-05
-7.49574e-07
1.21668e-05
-8.001e-07
1.21277e-05
-8.415e-07
1.20816e-05
-8.73504e-07
1.20289e-05
-8.96161e-07
1.19703e-05
-9.09821e-07
1.19063e-05
-9.15039e-07
1.18377e-05
-9.12521e-07
1.1765e-05
-9.03077e-07
1.1689e-05
-8.87564e-07
1.16105e-05
-8.66823e-07
1.15304e-05
-8.41637e-07
1.14495e-05
-8.12699e-07
1.13688e-05
-7.80603e-07
1.12892e-05
-7.45841e-07
1.12116e-05
-7.08682e-07
1.11369e-05
-6.69131e-07
1.10657e-05
-6.27077e-07
1.09987e-05
-5.82371e-07
1.09363e-05
-5.34868e-07
1.08791e-05
-4.84458e-07
1.08275e-05
-4.31087e-07
1.07819e-05
-3.74741e-07
1.07427e-05
-3.15431e-07
1.07102e-05
-2.53214e-07
1.06845e-05
-1.88252e-07
1.06658e-05
-1.20836e-07
1.06543e-05
-5.13894e-08
1.06502e-05
1.95959e-08
1.06533e-05
9.15811e-08
1.06639e-05
1.63991e-07
1.06817e-05
2.36218e-07
1.07065e-05
3.07587e-07
1.07383e-05
3.77501e-07
1.07764e-05
4.45101e-07
1.08208e-05
5.1011e-07
1.08708e-05
5.71312e-07
1.09263e-05
6.28968e-07
1.09863e-05
6.81398e-07
1.1051e-05
7.29883e-07
1.11195e-05
7.71197e-07
1.11915e-05
8.09424e-07
1.12663e-05
8.37579e-07
8.64593e-07
1.13219e-05
5.91295e-07
1.14112e-05
6.90289e-07
1.15057e-05
7.80367e-07
1.16047e-05
8.60756e-07
1.17078e-05
9.30771e-07
1.18144e-05
9.89807e-07
1.1924e-05
1.0373e-06
1.20359e-05
1.07275e-06
1.21496e-05
1.09571e-06
1.22642e-05
1.10586e-06
1.23789e-05
1.10294e-06
1.24927e-05
1.08678e-06
1.26047e-05
1.05728e-06
1.27137e-05
1.01453e-06
1.28185e-05
9.58783e-07
1.29181e-05
8.90458e-07
1.30112e-05
8.10138e-07
1.30967e-05
7.18519e-07
1.31734e-05
6.16413e-07
1.32404e-05
5.04893e-07
1.32967e-05
3.85593e-07
1.33409e-05
2.60952e-07
1.33719e-05
1.33594e-07
1.33891e-05
5.70141e-09
1.33923e-05
-1.20896e-07
1.33815e-05
-2.44555e-07
1.33572e-05
-3.63763e-07
1.33199e-05
-4.77139e-07
1.32703e-05
-5.83491e-07
1.32093e-05
-6.81786e-07
1.31377e-05
-7.71136e-07
1.30564e-05
-8.50801e-07
1.29665e-05
-9.20176e-07
1.28688e-05
-9.78795e-07
1.27644e-05
-1.02638e-06
1.26542e-05
-1.06275e-06
1.25391e-05
-1.0879e-06
1.24199e-05
-1.10199e-06
1.22973e-05
-1.10542e-06
1.2172e-05
-1.09882e-06
1.2045e-05
-1.083e-06
1.19169e-05
-1.05892e-06
1.17888e-05
-1.02755e-06
1.16616e-05
-9.89842e-07
1.15366e-05
-9.46654e-07
1.14149e-05
-8.98476e-07
1.12976e-05
-8.45374e-07
1.11857e-05
-7.87166e-07
1.108e-05
-7.23567e-07
1.09815e-05
-6.54287e-07
1.08909e-05
-5.79139e-07
1.08089e-05
-4.98107e-07
1.07361e-05
-4.11405e-07
1.06731e-05
-3.19521e-07
1.06199e-05
-2.23234e-07
1.0577e-05
-1.23576e-07
1.05443e-05
-2.17363e-08
1.05218e-05
8.10214e-08
1.05096e-05
1.83443e-07
1.05074e-05
2.84288e-07
1.0515e-05
3.82345e-07
1.05321e-05
4.76454e-07
1.05585e-05
5.65512e-07
1.05936e-05
6.48478e-07
1.06371e-05
7.24369e-07
1.06885e-05
7.92252e-07
1.07473e-05
8.51239e-07
1.08133e-05
9.00481e-07
1.08857e-05
9.39227e-07
1.0964e-05
9.6692e-07
1.10474e-05
9.83118e-07
1.11351e-05
9.87507e-07
1.12262e-05
9.79914e-07
1.13199e-05
9.60322e-07
1.14152e-05
9.28875e-07
1.15112e-05
8.85872e-07
1.16069e-05
8.3176e-07
1.17015e-05
7.6712e-07
1.17938e-05
6.92672e-07
1.18832e-05
6.09268e-07
1.19686e-05
5.17916e-07
1.20492e-05
4.19849e-07
1.21239e-05
3.16745e-07
1.21917e-05
2.10656e-07
1.22518e-05
1.0363e-07
1.23035e-05
-2.35122e-09
1.23462e-05
-1.05522e-07
1.23793e-05
-2.04496e-07
1.24026e-05
-2.98247e-07
1.24162e-05
-3.86025e-07
1.24202e-05
-4.67266e-07
1.24149e-05
-5.41554e-07
1.24009e-05
-6.08534e-07
1.23784e-05
-6.67844e-07
1.23479e-05
-7.19075e-07
1.23096e-05
-7.61792e-07
1.22637e-05
-7.95604e-07
1.22107e-05
-8.20441e-07
1.2151e-05
-8.3649e-07
1.20853e-05
-8.4416e-07
1.20143e-05
-8.4404e-07
1.19387e-05
-8.3687e-07
1.18591e-05
-8.23504e-07
1.17764e-05
-8.04846e-07
1.16914e-05
-7.81797e-07
1.16049e-05
-7.552e-07
1.15181e-05
-7.25813e-07
1.14318e-05
-6.94332e-07
1.13472e-05
-6.61214e-07
1.1265e-05
-6.26566e-07
1.11862e-05
-5.90294e-07
1.11113e-05
-5.5221e-07
1.1041e-05
-5.12081e-07
1.09759e-05
-4.69682e-07
1.09162e-05
-4.24838e-07
1.08626e-05
-3.77444e-07
1.08153e-05
-3.27452e-07
1.07747e-05
-2.74831e-07
1.07411e-05
-2.19563e-07
1.07145e-05
-1.61701e-07
1.06951e-05
-1.0147e-07
1.0683e-05
-3.92793e-08
1.06783e-05
2.43761e-08
1.06808e-05
8.89923e-08
1.06908e-05
1.54044e-07
1.0708e-05
2.18976e-07
1.07324e-05
2.83198e-07
1.07638e-05
3.46116e-07
1.08018e-05
4.07094e-07
1.08463e-05
4.65589e-07
1.08967e-05
5.20914e-07
1.0953e-05
5.7274e-07
1.10142e-05
6.20135e-07
1.10805e-05
6.63641e-07
1.11508e-05
7.00851e-07
1.12253e-05
7.34967e-07
1.13028e-05
7.60088e-07
7.83236e-07
1.13282e-05
5.06542e-07
1.14194e-05
5.99063e-07
1.15165e-05
6.83331e-07
1.16187e-05
7.58541e-07
1.17255e-05
8.23986e-07
1.18362e-05
8.79047e-07
1.19503e-05
9.23186e-07
1.20671e-05
9.55956e-07
1.21858e-05
9.77015e-07
1.23056e-05
9.86122e-07
1.24254e-05
9.83104e-07
1.25443e-05
9.67853e-07
1.26612e-05
9.40371e-07
1.2775e-05
9.00799e-07
1.28843e-05
8.49425e-07
1.29881e-05
7.86686e-07
1.30851e-05
7.13158e-07
1.31741e-05
6.29514e-07
1.3254e-05
5.36506e-07
1.33237e-05
4.35225e-07
1.33818e-05
3.27431e-07
1.34272e-05
2.15553e-07
1.34589e-05
1.01904e-07
1.34763e-05
-1.16477e-08
1.3479e-05
-1.23676e-07
1.34675e-05
-2.32968e-07