/*--------------------------------*- C++ -*----------------------------------*\
| =========                 |                                                 |
| \\      /  F ield         | OpenFOAM: The Open Source CFD Toolbox           |
|  \\    /   O peration     | Version:  2206                                  |
|   \\  /    A nd           | Website:  www.openfoam.com                      |
|    \\/     M anipulation  |                                                 |
\*---------------------------------------------------------------------------*/
FoamFile
{
    version     2.0;
    format      ascii;
    arch        "LSB;label=32;scalar=64";
    class       surfaceScalarField;
    location    "19.4001";
    object      phi_0;
}
// * * * * * * * * * * * * * * * * * * * * * * * * * * * * * * * * * * * * * //

dimensions      [0 3 -1 0 0 0 0];

oriented        oriented;

internalField   nonuniform List<scalar> 
3474
(
5.47066e-07
-1.02587e-07
6.46226e-07
-9.91595e-08
7.42898e-07
-9.66722e-08
8.37842e-07
-9.49448e-08
9.31564e-07
-9.37214e-08
1.02426e-06
-9.26958e-08
1.11579e-06
-9.153e-08
1.20569e-06
-8.98979e-08
1.29326e-06
-8.75686e-08
1.37774e-06
-8.44864e-08
1.45852e-06
-8.07745e-08
1.53489e-06
-7.6378e-08
1.60623e-06
-7.13323e-08
1.67217e-06
-6.59469e-08
1.73265e-06
-6.0476e-08
1.78779e-06
-5.51354e-08
1.83788e-06
-5.00999e-08
1.88338e-06
-4.54958e-08
1.92479e-06
-4.14085e-08
1.96267e-06
-3.78836e-08
1.9976e-06
-3.49311e-08
2.03013e-06
-3.25229e-08
2.06073e-06
-3.06039e-08
2.08983e-06
-2.9097e-08
2.11774e-06
-2.79128e-08
2.14471e-06
-2.69659e-08
2.17088e-06
-2.61774e-08
2.19638e-06
-2.54952e-08
2.22126e-06
-2.48857e-08
2.2456e-06
-2.43404e-08
2.26948e-06
-2.38794e-08
2.29302e-06
-2.35332e-08
2.31637e-06
-2.33554e-08
2.33979e-06
-2.34194e-08
2.36357e-06
-2.37761e-08
2.38805e-06
-2.44817e-08
2.41365e-06
-2.55975e-08
2.44083e-06
-2.71866e-08
2.47014e-06
-2.93045e-08
2.50214e-06
-3.20018e-08
2.53746e-06
-3.53234e-08
2.57678e-06
-3.93122e-08
2.62079e-06
-4.40099e-08
2.67024e-06
-4.94563e-08
2.72595e-06
-5.57062e-08
2.78877e-06
-6.28244e-08
2.85964e-06
-7.08637e-08
2.93951e-06
-7.98759e-08
3.02941e-06
-8.98959e-08
3.13026e-06
-1.00854e-07
3.24282e-06
-1.12558e-07
3.36641e-06
-1.23589e-07
3.49981e-06
-1.33402e-07
-1.23349e-07
3.62316e-06
3.61066e-06
-2.11772e-07
3.71483e-06
-2.03329e-07
3.81408e-06
-1.95921e-07
3.90872e-06
-1.89587e-07
3.99906e-06
-1.84064e-07
4.08535e-06
-1.78982e-07
4.16775e-06
-1.73936e-07
4.24639e-06
-1.68537e-07
4.32133e-06
-1.62506e-07
4.39257e-06
-1.55723e-07
4.46e-06
-1.48211e-07
4.52367e-06
-1.40046e-07
4.5837e-06
-1.31363e-07
4.64018e-06
-1.22426e-07
4.69316e-06
-1.13452e-07
4.74274e-06
-1.04718e-07
4.7891e-06
-9.64632e-08
4.83246e-06
-8.88525e-08
4.87305e-06
-8.19983e-08
4.91113e-06
-7.59632e-08
4.94696e-06
-7.07647e-08
4.98082e-06
-6.63799e-08
5.01297e-06
-6.27523e-08
5.04367e-06
-5.97957e-08
5.07316e-06
-5.7403e-08
5.10165e-06
-5.54623e-08
5.12936e-06
-5.38786e-08
5.15644e-06
-5.25747e-08
5.18305e-06
-5.15038e-08
5.20936e-06
-5.06507e-08
5.23551e-06
-5.00286e-08
5.26167e-06
-4.96938e-08
5.28803e-06
-4.97119e-08
5.31477e-06
-5.01597e-08
5.34212e-06
-5.11227e-08
5.37033e-06
-5.26957e-08
5.39971e-06
-5.49773e-08
5.43059e-06
-5.80686e-08
5.46335e-06
-6.20659e-08
5.49841e-06
-6.70619e-08
5.53623e-06
-7.31442e-08
5.57732e-06
-8.03995e-08
5.62223e-06
-8.89148e-08
5.67155e-06
-9.87817e-08
5.72595e-06
-1.10105e-07
5.78613e-06
-1.23005e-07
5.85287e-06
-1.37603e-07
5.92701e-06
-1.54012e-07
6.00945e-06
-1.72337e-07
6.1012e-06
-1.92604e-07
6.20334e-06
-2.147e-07
6.31798e-06
-2.38227e-07
6.44729e-06
-2.62713e-07
-2.88256e-07
6.6122e-06
6.68529e-06
-2.5205e-07
6.72511e-06
-2.43145e-07
6.76392e-06
-2.34732e-07
6.80131e-06
-2.26977e-07
6.83701e-06
-2.19766e-07
6.87086e-06
-2.1283e-07
6.90282e-06
-2.05897e-07
6.93299e-06
-1.98701e-07
6.96152e-06
-1.91038e-07
6.9886e-06
-1.82803e-07
7.01438e-06
-1.73987e-07
7.039e-06
-1.64666e-07
7.0626e-06
-1.54971e-07
7.08527e-06
-1.45096e-07
7.10706e-06
-1.35236e-07
7.12801e-06
-1.25674e-07
7.14818e-06
-1.16628e-07
7.16758e-06
-1.0825e-07
7.18622e-06
-1.00645e-07
7.20414e-06
-9.3881e-08
7.22135e-06
-8.79746e-08
7.23788e-06
-8.29047e-08
7.25376e-06
-7.8636e-08
7.26906e-06
-7.50962e-08
7.28385e-06
-7.21891e-08
7.29819e-06
-6.98099e-08
7.31218e-06
-6.787e-08
7.32591e-06
-6.63044e-08
7.33948e-06
-6.507e-08
7.35299e-06
-6.41616e-08
7.36656e-06
-6.36002e-08
7.38031e-06
-6.34433e-08
7.39437e-06
-6.37716e-08
7.40888e-06
-6.46705e-08
7.424e-06
-6.62363e-08
7.43988e-06
-6.85792e-08
7.45672e-06
-7.18152e-08
7.47471e-06
-7.60635e-08
7.49409e-06
-8.14417e-08
7.51509e-06
-8.80653e-08
7.538e-06
-9.60482e-08
7.5631e-06
-1.05504e-07
7.59074e-06
-1.16551e-07
7.62127e-06
-1.29312e-07
7.6551e-06
-1.43936e-07
7.69269e-06
-1.606e-07
7.73457e-06
-1.79477e-07
7.7813e-06
-2.0074e-07
7.83359e-06
-2.24629e-07
7.89235e-06
-2.51362e-07
7.9589e-06
-2.8126e-07
8.03533e-06
-3.14649e-07
8.12487e-06
-3.52254e-07
-3.95679e-07
8.23229e-06
8.16096e-06
-2.51518e-07
8.16183e-06
-2.44014e-07
8.16364e-06
-2.36536e-07
8.16597e-06
-2.29307e-07
8.16854e-06
-2.22335e-07
8.17119e-06
-2.15484e-07
8.17389e-06
-2.08597e-07
8.17669e-06
-2.01503e-07
8.1797e-06
-1.9405e-07
8.18306e-06
-1.86155e-07
8.18687e-06
-1.77805e-07
8.19126e-06
-1.69056e-07
8.19632e-06
-1.60028e-07
8.20207e-06
-1.50842e-07
8.20855e-06
-1.41718e-07
8.21572e-06
-1.32848e-07
8.22352e-06
-1.24422e-07
8.23184e-06
-1.16572e-07
8.24057e-06
-1.09379e-07
8.2496e-06
-1.02907e-07
8.25879e-06
-9.71615e-08
8.26802e-06
-9.2139e-08
8.27722e-06
-8.7837e-08
8.28633e-06
-8.42019e-08
8.2953e-06
-8.11617e-08
8.30412e-06
-7.86296e-08
8.31279e-06
-7.65452e-08
8.32134e-06
-7.48533e-08
8.3298e-06
-7.35308e-08
8.33822e-06
-7.2577e-08
8.34664e-06
-7.20249e-08
8.35516e-06
-7.19551e-08
8.36383e-06
-7.24498e-08
8.37275e-06
-7.35897e-08
8.38199e-06
-7.54751e-08
8.39163e-06
-7.82224e-08
8.40177e-06
-8.19538e-08
8.41251e-06
-8.67956e-08
8.42394e-06
-9.28755e-08
8.43619e-06
-1.00319e-07
8.4494e-06
-1.09255e-07
8.46371e-06
-1.19814e-07
8.47928e-06
-1.32124e-07
8.4963e-06
-1.46325e-07
8.51494e-06
-1.62584e-07
8.53543e-06
-1.81082e-07
8.55793e-06
-2.01981e-07
8.58272e-06
-2.25531e-07
8.61024e-06
-2.52143e-07
8.6411e-06
-2.82224e-07
8.67639e-06
-3.1655e-07
8.71725e-06
-3.55515e-07
8.76516e-06
-4.0016e-07
-4.52745e-07
8.82223e-06
8.62366e-06
-2.36752e-07
8.61081e-06
-2.31168e-07
8.59956e-06
-2.25283e-07
8.58959e-06
-2.19335e-07
8.58066e-06
-2.13402e-07
8.57263e-06
-2.0746e-07
8.56547e-06
-2.01437e-07
8.55919e-06
-1.95218e-07
8.55383e-06
-1.8869e-07
8.54946e-06
-1.81788e-07
8.54616e-06
-1.74501e-07
8.54398e-06
-1.66879e-07
8.54297e-06
-1.59023e-07
8.54315e-06
-1.51023e-07
8.5445e-06
-1.4306e-07
8.54692e-06
-1.35272e-07
8.55035e-06
-1.27848e-07
8.55467e-06
-1.20899e-07
8.55977e-06
-1.14477e-07
8.56548e-06
-1.08612e-07
8.5716e-06
-1.03282e-07
8.57802e-06
-9.85627e-08
8.58468e-06
-9.44957e-08
8.59148e-06
-9.10056e-08
8.59834e-06
-8.80226e-08
8.60521e-06
-8.54916e-08
8.61205e-06
-8.33861e-08
8.61884e-06
-8.16431e-08
8.62557e-06
-8.02654e-08
8.63222e-06
-7.92261e-08
8.63882e-06
-7.86213e-08
8.64544e-06
-7.85817e-08
8.65212e-06
-7.91236e-08
8.65885e-06
-8.03254e-08
8.66568e-06
-8.22996e-08
8.67262e-06
-8.5169e-08
8.67973e-06
-8.90588e-08
8.68703e-06
-9.40997e-08
8.69458e-06
-1.00425e-07
8.70243e-06
-1.08164e-07
8.71063e-06
-1.17457e-07
8.71925e-06
-1.28439e-07
8.72837e-06
-1.41239e-07
8.73804e-06
-1.55995e-07
8.7483e-06
-1.72848e-07
8.75921e-06
-1.91988e-07
8.77095e-06
-2.13723e-07
8.78384e-06
-2.38423e-07
8.79811e-06
-2.6641e-07
8.8141e-06
-2.98219e-07
8.83194e-06
-3.34385e-07
8.85281e-06
-3.76385e-07
8.87845e-06
-4.25807e-07
-4.83909e-07
8.90962e-06
8.73661e-06
-2.18589e-07
8.72018e-06
-2.14735e-07
8.70531e-06
-2.10418e-07
8.69181e-06
-2.05836e-07
8.67951e-06
-2.01098e-07
8.66833e-06
-1.96284e-07
8.65826e-06
-1.91366e-07
8.64928e-06
-1.86235e-07
8.6414e-06
-1.80807e-07
8.63464e-06
-1.75034e-07
8.62906e-06
-1.68917e-07
8.6247e-06
-1.62525e-07
8.62162e-06
-1.55936e-07
8.61982e-06
-1.49222e-07
8.61924e-06
-1.42486e-07
8.61977e-06
-1.35805e-07
8.62121e-06
-1.29285e-07
8.62345e-06
-1.2314e-07
8.62634e-06
-1.1736e-07
8.62982e-06
-1.12095e-07
8.63399e-06
-1.07455e-07
8.63872e-06
-1.03294e-07
8.64383e-06
-9.95987e-08
8.64919e-06
-9.63647e-08
8.65472e-06
-9.35605e-08
8.66036e-06
-9.11268e-08
8.66603e-06
-8.90563e-08
8.6717e-06
-8.73096e-08
8.67734e-06
-8.59052e-08
8.68301e-06
-8.49001e-08
8.68866e-06
-8.42737e-08
8.69418e-06
-8.41042e-08
8.69953e-06
-8.44701e-08
8.70473e-06
-8.55281e-08
8.70982e-06
-8.73837e-08
8.71481e-06
-9.01583e-08
8.71972e-06
-9.39738e-08
8.72459e-06
-9.89726e-08
8.72945e-06
-1.0528e-07
8.73431e-06
-1.13029e-07
8.73925e-06
-1.22395e-07
8.7443e-06
-1.33486e-07
8.74948e-06
-1.46418e-07
8.75481e-06
-1.61326e-07
8.76032e-06
-1.78363e-07
8.76604e-06
-1.97704e-07
8.7719e-06
-2.19587e-07
8.77781e-06
-2.44333e-07
8.7838e-06
-2.72396e-07
8.79001e-06
-3.04433e-07
8.79683e-06
-3.41203e-07
8.80415e-06
-3.83706e-07
8.81164e-06
-4.33297e-07
-4.91427e-07
8.81916e-06
8.72783e-06
-1.98695e-07
8.70938e-06
-1.96286e-07
8.69243e-06
-1.93471e-07
8.67696e-06
-1.90367e-07
8.66292e-06
-1.87057e-07
8.65015e-06
-1.83511e-07
8.63849e-06
-1.79707e-07
8.62791e-06
-1.75653e-07
8.6184e-06
-1.713e-07
8.60995e-06
-1.6659e-07
8.60254e-06
-1.61506e-07
8.59621e-06
-1.56194e-07
8.59097e-06
-1.50689e-07
8.58678e-06
-1.4504e-07
8.58363e-06
-1.39334e-07
8.58149e-06
-1.33668e-07
8.58031e-06
-1.28103e-07
8.57998e-06
-1.22805e-07
8.58043e-06
-1.1781e-07
8.58152e-06
-1.13192e-07
8.5831e-06
-1.09027e-07
8.58507e-06
-1.05273e-07
8.58739e-06
-1.01917e-07
8.58995e-06
-9.89268e-08
8.59267e-06
-9.62728e-08
8.59546e-06
-9.39195e-08
8.59824e-06
-9.1839e-08
8.60095e-06
-9.00155e-08
8.6035e-06
-8.84616e-08
8.60581e-06
-8.72089e-08
8.60784e-06
-8.63046e-08
8.60962e-06
-8.58757e-08
8.61112e-06
-8.59723e-08
8.61232e-06
-8.67343e-08
8.61321e-06
-8.82647e-08
8.61375e-06
-9.07035e-08
8.61391e-06
-9.41338e-08
8.61369e-06
-9.87508e-08
8.61304e-06
-1.04628e-07
8.61186e-06
-1.11855e-07
8.61021e-06
-1.20744e-07
8.60803e-06
-1.31304e-07
8.60525e-06
-1.43634e-07
8.60176e-06
-1.57838e-07
8.59742e-06
-1.74025e-07
8.59205e-06
-1.9234e-07
8.58543e-06
-2.12959e-07
8.57722e-06
-2.36127e-07
8.56707e-06
-2.62249e-07
8.55454e-06
-2.91903e-07
8.53911e-06
-3.25768e-07
8.52e-06
-3.64599e-07
8.49608e-06
-4.09377e-07
-4.61196e-07
8.46585e-06
8.6304e-06
-1.73156e-07
8.60566e-06
-1.7154e-07
8.58173e-06
-1.69541e-07
8.5586e-06
-1.67241e-07
8.53627e-06
-1.64723e-07
8.51476e-06
-1.62007e-07
8.49415e-06
-1.5909e-07
8.47444e-06
-1.55949e-07
8.45564e-06
-1.52501e-07
8.43774e-06
-1.48686e-07
8.42074e-06
-1.44511e-07
8.40468e-06
-1.40132e-07
8.38956e-06
-1.3557e-07
8.37539e-06
-1.30865e-07
8.36214e-06
-1.26088e-07
8.34979e-06
-1.2132e-07
8.33833e-06
-1.16638e-07
8.32766e-06
-1.12136e-07
8.31773e-06
-1.0788e-07
8.30846e-06
-1.03918e-07
8.29971e-06
-1.00284e-07
8.29142e-06
-9.69796e-08
8.28349e-06
-9.39822e-08
8.27581e-06
-9.12561e-08
8.26832e-06
-8.87781e-08
8.2609e-06
-8.6501e-08
8.25345e-06
-8.43912e-08
8.24588e-06
-8.24464e-08
8.2381e-06
-8.06816e-08
8.23003e-06
-7.91349e-08
8.2216e-06
-7.7869e-08
8.2127e-06
-7.69829e-08
8.20331e-06
-7.65769e-08
8.19333e-06
-7.67545e-08
8.18268e-06
-7.76166e-08
8.17127e-06
-7.92911e-08
8.15898e-06
-8.18429e-08
8.14568e-06
-8.54571e-08
8.13124e-06
-9.01871e-08
8.11549e-06
-9.61002e-08
8.09823e-06
-1.03484e-07
8.07924e-06
-1.12313e-07
8.05824e-06
-1.22637e-07
8.0349e-06
-1.34498e-07
8.00878e-06
-1.47906e-07
7.97932e-06
-1.62878e-07
7.94582e-06
-1.79462e-07
7.90744e-06
-1.9775e-07
7.86318e-06
-2.17981e-07
7.81182e-06
-2.40545e-07
7.7519e-06
-2.65854e-07
7.68158e-06
-2.94277e-07
7.59839e-06
-3.26183e-07
-3.61897e-07
7.49909e-06
8.0536e-06
-1.18761e-07
7.99943e-06
-1.17375e-07
7.94563e-06
-1.1574e-07
7.8923e-06
-1.13913e-07
7.83953e-06
-1.1195e-07
7.7874e-06
-1.09876e-07
7.73609e-06
-1.07779e-07
7.68574e-06
-1.05598e-07
7.63634e-06
-1.03108e-07
7.58795e-06
-1.00299e-07
7.54071e-06
-9.72699e-08
7.49467e-06
-9.4088e-08
7.44987e-06
-9.07751e-08
7.40637e-06
-8.7364e-08
7.36419e-06
-8.39079e-08
7.32334e-06
-8.04644e-08
7.28379e-06
-7.70898e-08
7.24549e-06
-7.38404e-08
7.20838e-06
-7.07653e-08
7.17235e-06
-6.78916e-08
7.13731e-06
-6.52381e-08
7.10313e-06
-6.28014e-08
7.0697e-06
-6.05552e-08
7.03691e-06
-5.84667e-08
7.00462e-06
-5.64833e-08
6.9727e-06
-5.45859e-08
6.94109e-06
-5.27826e-08
6.9097e-06
-5.105e-08
6.87842e-06
-4.94015e-08
6.84713e-06
-4.78512e-08
6.81572e-06
-4.64557e-08
6.78403e-06
-4.52964e-08
6.7519e-06
-4.44446e-08
6.71914e-06
-4.39897e-08
6.68553e-06
-4.40134e-08
6.65082e-06
-4.4577e-08
6.61472e-06
-4.57411e-08
6.57686e-06
-4.75997e-08
6.53688e-06
-5.02114e-08
6.49442e-06
-5.36303e-08
6.44889e-06
-5.79561e-08
6.39976e-06
-6.3186e-08
6.34644e-06
-6.93163e-08
6.28826e-06
-7.63152e-08
6.22446e-06
-8.41058e-08
6.15381e-06
-9.22338e-08
6.07441e-06
-1.00065e-07
5.9842e-06
-1.07538e-07
5.88116e-06
-1.14942e-07
5.76306e-06
-1.22446e-07
5.62725e-06
-1.30036e-07
5.47055e-06
-1.3758e-07
5.28913e-06
-1.44761e-07
-1.51064e-07
5.0783e-06
5.31819e-06
5.20081e-06
5.08507e-06
4.97116e-06
4.85921e-06
4.74934e-06
4.64156e-06
4.53596e-06
4.43285e-06
4.33255e-06
4.23528e-06
4.14119e-06
4.05042e-06
3.96306e-06
3.87915e-06
3.79868e-06
3.72159e-06
3.64775e-06
3.57699e-06
3.5091e-06
3.44386e-06
3.38106e-06
3.3205e-06
3.26203e-06
3.20555e-06
3.15097e-06
3.09818e-06
3.04713e-06
2.99773e-06
2.94988e-06
2.90342e-06
2.85813e-06
2.81368e-06
2.76969e-06
2.72568e-06
2.6811e-06
2.63536e-06
2.58776e-06
2.53755e-06
2.48392e-06
2.42596e-06
2.36278e-06
2.29346e-06
2.21715e-06
2.13304e-06
2.04081e-06
1.94074e-06
1.8332e-06
1.71826e-06
1.59582e-06
1.46578e-06
1.3282e-06
1.18344e-06
1.03238e-06
3.8085e-06
-1.23633e-07
-6.17056e-08
4.12614e-06
-1.13331e-07
-2.04307e-07
4.57707e-06
-1.15134e-07
-3.35805e-07
5.16149e-06
-1.83948e-07
-4.00467e-07
5.85464e-06
-3.63617e-07
-3.29536e-07
6.58523e-06
-6.88448e-07
-4.21352e-08
7.22119e-06
-1.16075e-06
5.24779e-07
7.61916e-06
-1.68258e-06
1.28462e-06
7.76512e-06
-2.14726e-06
2.00129e-06
7.71857e-06
-2.49991e-06
2.54647e-06
7.53343e-06
-2.72019e-06
2.90533e-06
7.25312e-06
-2.80073e-06
3.08104e-06
6.90968e-06
-2.7469e-06
3.09034e-06
6.53554e-06
-2.58042e-06
2.95456e-06
6.15667e-06
-2.32926e-06
2.70812e-06
5.79928e-06
-2.01808e-06
2.37547e-06
5.48913e-06
-1.6656e-06
1.97575e-06
5.2221e-06
-1.28815e-06
1.55518e-06
4.92276e-06
-9.07843e-07
1.20719e-06
4.48491e-06
-5.68193e-07
1.00605e-06
3.9115e-06
-3.22071e-07
8.95475e-07
3.34749e-06
-1.71935e-07
7.35951e-07
2.96028e-06
-7.13475e-08
4.58558e-07
2.81434e-06
5.96033e-08
8.63326e-08
2.90487e-06
2.30332e-07
-3.20865e-07
3.16012e-06
4.5016e-07
-7.05409e-07
3.52302e-06
6.80015e-07
-1.04291e-06
3.97151e-06
8.76467e-07
-1.32496e-06
4.48795e-06
1.02249e-06
-1.53893e-06
5.06201e-06
1.10593e-06
-1.67999e-06
5.69147e-06
1.1111e-06
-1.74055e-06
6.37232e-06
1.02284e-06
-1.70369e-06
7.08831e-06
8.36974e-07
-1.55296e-06
7.79749e-06
5.72785e-07
-1.28196e-06
8.44013e-06
2.68119e-07
-9.10755e-07
8.96506e-06
-4.14769e-08
-4.83455e-07
9.34276e-06
-3.19897e-07
-5.78077e-08
9.56284e-06
-5.51296e-07
3.31223e-07
9.64574e-06
-7.58228e-07
6.75323e-07
9.62006e-06
-9.42826e-07
9.68511e-07
9.49793e-06
-1.0805e-06
1.20262e-06
9.29296e-06
-1.15844e-06
1.36341e-06
9.02749e-06
-1.17893e-06
1.44441e-06
8.72082e-06
-1.14274e-06
1.44941e-06
8.39124e-06
-1.05794e-06
1.38752e-06
8.05845e-06
-9.3738e-07
1.27017e-06
7.74054e-06
-7.93414e-07
1.11132e-06
7.44815e-06
-6.37974e-07
9.30367e-07
7.1799e-06
-4.84475e-07
7.52721e-07
6.92183e-06
-3.48899e-07
6.06968e-07
6.65168e-06
-2.53071e-07
5.23228e-07
6.35069e-06
-2.21245e-07
5.22228e-07
6.01763e-06
-2.64297e-07
5.97359e-07
5.67517e-06
-3.68604e-07
7.11062e-07
5.3552e-06
-4.9239e-07
8.12368e-07
5.0806e-06
-5.86249e-07
8.60845e-07
4.86718e-06
-6.16376e-07
8.29796e-07
4.72799e-06
-5.66016e-07
7.0521e-07
4.66683e-06
-4.33646e-07
4.94807e-07
4.67611e-06
-2.35175e-07
2.25895e-07
4.74469e-06
4.54197e-10
-6.90416e-08
4.85908e-06
2.46254e-07
-3.60645e-07
5.00599e-06
4.80845e-07
-6.2775e-07
5.17515e-06
6.88349e-07
-8.57512e-07
5.35794e-06
8.60029e-07
-1.04282e-06
5.54727e-06
9.92453e-07
-1.18178e-06
5.73809e-06
1.08523e-06
-1.27605e-06
5.92752e-06
1.13957e-06
-1.32901e-06
6.11442e-06
1.15746e-06
-1.34435e-06
6.29932e-06
1.14134e-06
-1.32624e-06
6.48478e-06
1.09242e-06
-1.27788e-06
6.67492e-06
1.00921e-06
-1.19935e-06
6.87444e-06
8.88352e-07
-1.08788e-06
7.08678e-06
7.275e-07
-9.39831e-07
7.31153e-06
5.26678e-07
-7.51434e-07
7.53958e-06
2.9548e-07
-5.2353e-07
7.75204e-06
5.32741e-08
-2.65732e-07
7.92694e-06
-1.70908e-07
-3.99245e-09
8.05342e-06
-3.64464e-07
2.37981e-07
8.12643e-06
-5.14995e-07
4.41988e-07
8.14798e-06
-6.21029e-07
5.99482e-07
8.1134e-06
-6.82324e-07
7.16899e-07
8.01166e-06
-6.95679e-07
7.97416e-07
7.84468e-06
-6.64898e-07
8.3188e-07
-6.02981e-07
8.24192e-07
6.81282e-06
-3.2426e-07
7.06619e-06
-3.66696e-07
7.38325e-06
-4.32194e-07
7.75278e-06
-5.53479e-07
8.14366e-06
-7.54499e-07
8.49523e-06
-1.04001e-06
8.72025e-06
-1.38577e-06
8.77298e-06
-1.73532e-06
8.67745e-06
-2.05172e-06
8.4714e-06
-2.29387e-06
8.17985e-06
-2.42864e-06
7.82965e-06
-2.45053e-06
7.45136e-06
-2.36861e-06
7.06911e-06
-2.19817e-06
6.69855e-06
-1.9587e-06
6.34829e-06
-1.66783e-06
6.02812e-06
-1.34542e-06
5.75373e-06
-1.01377e-06
5.53797e-06
-6.92081e-07
5.37252e-06
-4.0274e-07
5.21528e-06
-1.64836e-07
5.01816e-06
2.51879e-08
4.78342e-06
1.63393e-07
4.58752e-06
2.55503e-07
4.49183e-06
3.26022e-07
4.55378e-06
3.88213e-07
4.78265e-06
4.51142e-07
5.15765e-06
5.0147e-07
5.65831e-06
5.21827e-07
6.26465e-06
4.99588e-07
6.9507e-06
4.25055e-07
7.67751e-06
2.96027e-07
8.38473e-06
1.29755e-07
9.00239e-06
-4.48831e-08
9.47599e-06
-2.05472e-07
9.77983e-06
-3.45324e-07
9.93436e-06
-4.74429e-07
9.97666e-06
-5.93593e-07
9.9188e-06
-7.00367e-07
9.7578e-06
-7.81825e-07
9.51168e-06
-8.3438e-07
9.20173e-06
-8.48482e-07
8.84485e-06
-8.22056e-07
8.4656e-06
-7.63491e-07
8.08948e-06
-6.81828e-07
7.73713e-06
-5.85021e-07
7.42158e-06
-4.77873e-07
7.15021e-06
-3.66596e-07
6.92181e-06
-2.56079e-07
6.72359e-06
-1.50674e-07
6.5302e-06
-5.96881e-08
6.30969e-06
-7.29507e-10
6.03757e-06
7.82331e-09
5.71419e-06
-4.52309e-08
5.37076e-06
-1.48957e-07
5.04869e-06
-2.64179e-07
4.7769e-06
-3.44585e-07
4.57451e-06
-3.63629e-07
4.45396e-06
-3.13093e-07
4.41603e-06
-1.97245e-07
4.45232e-06
-3.584e-08
4.54777e-06
1.50812e-07
4.68472e-06
3.43886e-07
4.85211e-06
5.20964e-07
5.04151e-06
6.70628e-07
5.24563e-06
7.88339e-07
5.45883e-06
8.72028e-07
5.67744e-06
9.20967e-07
5.89925e-06
9.35642e-07
6.1238e-06
9.16793e-07
6.35271e-06
8.63513e-07
6.58996e-06
7.71953e-07
6.83947e-06
6.3884e-07
7.10154e-06
4.65433e-07
7.36264e-06
2.65577e-07
7.60372e-06
5.4396e-08
7.80835e-06
-1.51353e-07
7.95934e-06
-3.21898e-07
8.0465e-06
-4.51624e-07
8.07452e-06
-5.43019e-07
8.04536e-06
-5.91864e-07
7.94838e-06
-5.85351e-07
7.77772e-06
-5.25019e-07
7.54133e-06
-4.28506e-07
-3.24307e-07
8.35909e-06
-4.51058e-07
8.51248e-06
-5.20087e-07
8.69212e-06
-6.11839e-07
8.8794e-06
-7.4076e-07
9.0435e-06
-9.18594e-07
9.14666e-06
-1.14317e-06
9.16294e-06
-1.40204e-06
9.09754e-06
-1.66992e-06
8.94698e-06
-1.90117e-06
8.71237e-06
-2.05926e-06
8.41605e-06
-2.13232e-06
8.08106e-06
-2.11553e-06
7.72519e-06
-2.01275e-06
7.36335e-06
-1.83633e-06
7.00806e-06
-1.60341e-06
6.67071e-06
-1.33048e-06
6.36447e-06
-1.03918e-06
6.1004e-06
-7.49694e-07
5.88832e-06
-4.80008e-07
5.7356e-06
-2.50016e-07
5.64552e-06
-7.47613e-08
5.61915e-06
5.15588e-08
5.63854e-06
1.44004e-07
5.68673e-06
2.07317e-07
5.77625e-06
2.36497e-07
5.9349e-06
2.29561e-07
6.19068e-06
1.95369e-07
6.55873e-06
1.33423e-07
7.03065e-06
4.99049e-08
7.57586e-06
-4.56214e-08
8.15152e-06
-1.5061e-07
8.70598e-06
-2.5843e-07
9.19313e-06
-3.57396e-07
9.57531e-06
-4.27066e-07
9.82967e-06
-4.59826e-07
9.9568e-06
-4.72454e-07
9.97136e-06
-4.88989e-07
9.88918e-06
-5.11415e-07
9.70984e-06
-5.21024e-07
9.43724e-06
-5.09225e-07
9.08108e-06
-4.78223e-07
8.66802e-06
-4.35426e-07
8.23554e-06
-3.89577e-07
7.8151e-06
-3.4305e-07
7.43156e-06
-2.98283e-07
7.10085e-06
-2.54313e-07
6.82814e-06
-2.05167e-07
6.61557e-06
-1.54018e-07
6.45564e-06
-9.61508e-08
6.33269e-06
-2.7722e-08
6.22569e-06
4.73108e-08
6.10627e-06
1.18687e-07
5.94506e-06
1.69033e-07
5.72257e-06
1.77264e-07
5.43727e-06
1.36336e-07
5.11942e-06
5.36718e-08
4.81438e-06
-3.95472e-08
4.55942e-06
-1.08669e-07
4.37662e-06
-1.3029e-07
4.27833e-06
-9.89526e-08
4.26104e-06
-1.85509e-08
4.31645e-06
9.54009e-08
4.43328e-06
2.2706e-07
4.59271e-06
3.61527e-07
4.7832e-06
4.80142e-07
4.9961e-06
5.75442e-07
5.22551e-06
6.4262e-07
5.46855e-06
6.77921e-07
5.72402e-06
6.80173e-07
5.99051e-06
6.50298e-07
6.26614e-06
5.87887e-07
6.55051e-06
4.87582e-07
6.83922e-06
3.50131e-07
7.12153e-06
1.83118e-07
7.37161e-06
1.55054e-08
7.56277e-06
-1.36765e-07
7.68911e-06
-2.77696e-07
7.74988e-06
-3.82667e-07
7.7421e-06
-4.43847e-07
7.65339e-06
-4.54303e-07
7.48511e-06
-4.23585e-07
7.25671e-06
-3.56957e-07
6.99577e-06
-2.64077e-07
6.73079e-06
-1.63523e-07
-7.33677e-08
8.8882e-06
-5.17033e-07
8.9623e-06
-5.94184e-07
9.04548e-06
-6.95016e-07
9.13176e-06
-8.27041e-07
9.19942e-06
-9.86261e-07
9.22534e-06
-1.16909e-06
9.19689e-06
-1.37359e-06
9.10179e-06
-1.57482e-06
8.93811e-06
-1.73749e-06
8.71808e-06
-1.83923e-06
8.45105e-06
-1.86529e-06
8.14717e-06
-1.81165e-06
7.81766e-06
-1.68325e-06
7.47447e-06
-1.49313e-06
7.12847e-06
-1.25741e-06
6.79319e-06
-9.95195e-07
6.48586e-06
-7.31849e-07
6.22191e-06
-4.85752e-07
6.01194e-06
-2.70031e-07
5.85871e-06
-9.67871e-08
5.76135e-06
2.2598e-08
5.72448e-06
8.84277e-08
5.75126e-06
1.17229e-07
5.84566e-06
1.1291e-07
6.00883e-06
7.33305e-08
6.23909e-06
-7.02307e-10
6.54034e-06
-1.05876e-07
6.90912e-06
-2.35356e-07
7.33786e-06
-3.78845e-07
7.78742e-06
-4.95174e-07
8.21279e-06
-5.75985e-07
8.57936e-06
-6.24996e-07
8.87217e-06
-6.50209e-07
9.08537e-06
-6.40265e-07
9.20545e-06
-5.7991e-07
9.22611e-06
-4.9311e-07
9.12866e-06
-3.91544e-07
8.91116e-06
-2.93916e-07
8.5921e-06
-2.01957e-07
8.20049e-06
-1.17617e-07
7.769e-06
-4.67374e-08
7.33266e-06
9.21104e-10
6.92579e-06
1.72897e-08
6.56922e-06
1.3524e-08
6.27738e-06
-6.45049e-09
6.06346e-06
-4.03922e-08
5.92158e-06
-6.32895e-08
5.83698e-06
-6.94114e-08
5.79226e-06
-5.1434e-08
5.77183e-06
-7.29455e-09
5.75658e-06
6.25634e-08
5.72726e-06
1.4801e-07
5.66846e-06
2.27827e-07
5.56554e-06
2.80186e-07
5.40639e-06
2.95486e-07
5.19038e-06
2.69682e-07
4.93998e-06
2.10851e-07
4.69913e-06
1.32187e-07
4.50188e-06
6.69587e-08
4.36364e-06
3.92886e-08
4.2963e-06
4.87851e-08
4.30065e-06
9.10494e-08
4.37269e-06
1.55018e-07
4.50706e-06
2.27162e-07
4.68853e-06
2.98672e-07
4.90643e-06
3.57537e-07
5.15419e-06
3.94863e-07
5.42803e-06
4.04086e-07
5.72287e-06
3.85329e-07
6.02572e-06
3.47451e-07
6.31998e-06
2.9363e-07
6.59039e-06
2.1717e-07
6.81316e-06
1.27362e-07
6.97523e-06
2.10449e-08
7.07434e-06
-8.36074e-08
7.10266e-06
-1.6508e-07
7.0484e-06
-2.23439e-07
6.91579e-06
-2.50061e-07
6.72743e-06
-2.55485e-07
6.50918e-06
-2.36055e-07
6.28201e-06
-1.96415e-07
6.0641e-06
-1.39047e-07
5.87021e-06
-7.0185e-08
5.70919e-06
-2.4983e-09
5.28761e-08
8.94717e-06
-5.54582e-07
8.9918e-06
-6.3882e-07
9.03693e-06
-7.40141e-07
9.07076e-06
-8.60872e-07
9.08771e-06
-1.00321e-06
9.07988e-06
-1.16127e-06
9.0307e-06
-1.3244e-06
8.93008e-06
-1.4742e-06
8.77683e-06
-1.58424e-06
8.57152e-06
-1.63392e-06
8.31846e-06
-1.61223e-06
8.0252e-06
-1.5184e-06
7.70283e-06
-1.36087e-06
7.36401e-06
-1.15432e-06
7.02076e-06
-9.14149e-07
6.68865e-06
-6.63089e-07
6.38251e-06
-4.25712e-07
6.11459e-06
-2.1783e-07
5.89749e-06
-5.29297e-08
5.74104e-06
5.96578e-08
5.64972e-06
1.13918e-07
5.61452e-06
1.23636e-07
5.62738e-06
1.04361e-07
5.69468e-06
4.56142e-08
5.83016e-06
-6.21464e-08
6.03221e-06
-2.02758e-07
6.27684e-06
-3.50501e-07
6.54129e-06
-4.9981e-07
6.80785e-06
-6.45405e-07
7.0533e-06
-7.40622e-07
7.25254e-06
-7.75221e-07
7.4023e-06
-7.74758e-07
7.50201e-06
-7.49916e-07
7.5425e-06
-6.80762e-07
7.51178e-06
-5.49181e-07
7.39225e-06
-3.73584e-07
7.1797e-06
-1.78991e-07
6.87411e-06
1.16751e-08
6.50752e-06
1.64626e-07
6.12814e-06
2.61763e-07
5.76924e-06
3.1217e-07
5.45326e-06
3.16897e-07
5.20514e-06
2.65411e-07
5.03382e-06
1.84843e-07
4.93861e-06
8.87582e-08
4.90589e-06
-7.67012e-09
4.92166e-06
-7.90638e-08
4.96843e-06
-1.16175e-07
5.03529e-06
-1.18301e-07
5.10999e-06
-8.19937e-08
5.17353e-06
-9.72179e-10
5.2058e-06
1.1574e-07
5.19618e-06
2.37448e-07
5.14657e-06
3.29796e-07
5.06926e-06
3.72791e-07
4.97053e-06
3.68412e-07
4.8556e-06
3.25782e-07
4.73217e-06
2.55619e-07
4.61786e-06
1.81265e-07
4.53441e-06
1.22746e-07
4.49635e-06
8.68441e-08
4.5166e-06
7.07974e-08
4.59162e-06
7.99964e-08
4.71845e-06
1.00334e-07
4.8897e-06
1.27418e-07
5.09276e-06
1.54485e-07
5.31208e-06
1.75542e-07
5.52766e-06
1.88498e-07
5.72049e-06
1.92503e-07
5.8842e-06
1.83739e-07
6.01921e-06
1.58623e-07
6.11387e-06
1.22507e-07
6.15396e-06
8.7277e-08
6.12998e-06
4.50231e-08
6.04316e-06
3.21244e-09
5.91173e-06
-3.36523e-08
5.7525e-06
-6.42049e-08
5.58694e-06
-8.44998e-08
5.42588e-06
-9.44266e-08
5.28126e-06
-9.14405e-08
5.16047e-06
-7.56188e-08
5.06728e-06
-4.58583e-08
5.00352e-06
-6.424e-09
4.9671e-06
3.39169e-08
6.70945e-08
8.82609e-06
-5.61513e-07
8.83005e-06
-6.42774e-07
8.82855e-06
-7.38645e-07
8.81726e-06
-8.49575e-07
8.78844e-06
-9.74396e-07
8.73477e-06
-1.1076e-06
8.64763e-06
-1.23726e-06
8.51868e-06
-1.34525e-06
8.34435e-06
-1.40991e-06
8.12409e-06
-1.41366e-06
7.86038e-06
-1.34852e-06
7.56053e-06
-1.21854e-06
7.23689e-06
-1.03723e-06
6.90224e-06
-8.19673e-07
6.57097e-06
-5.82875e-07
6.25597e-06
-3.48089e-07
5.96558e-06
-1.35324e-07
5.70866e-06
3.909e-08
5.49838e-06
1.57346e-07
5.34307e-06
2.14974e-07
5.23758e-06
2.19405e-07
5.17731e-06
1.83906e-07
5.16299e-06
1.18683e-07
5.18468e-06
2.39193e-08
5.22704e-06
-1.04508e-07
5.25845e-06
-2.34169e-07
5.2671e-06
-3.59144e-07
5.25174e-06
-4.84451e-07
5.20593e-06
-5.99597e-07
5.14493e-06
-6.7962e-07
5.07772e-06
-7.0801e-07
5.0036e-06
-7.00646e-07
4.9111e-06
-6.57412e-07
4.78837e-06
-5.58033e-07
4.63978e-06
-4.00587e-07
4.45955e-06
-1.93359e-07
4.26849e-06
1.20714e-08
4.0813e-06
1.9886e-07
3.90943e-06
3.365e-07
3.76837e-06
4.02821e-07
3.66971e-06
4.1083e-07
3.62019e-06
3.66415e-07
3.61878e-06
2.6682e-07
3.65646e-06
1.47171e-07
3.71505e-06
3.01598e-08
3.77904e-06
-7.16589e-08
3.84291e-06
-1.42926e-07
3.90698e-06
-1.80247e-07
3.97367e-06
-1.84998e-07
4.04862e-06
-1.56939e-07
4.12749e-06
-7.98389e-08
4.19652e-06
4.67055e-08
4.24623e-06
1.87734e-07
4.27801e-06
2.98022e-07
4.29975e-06
3.5105e-07
4.31044e-06
3.5772e-07
4.30613e-06
3.30097e-07
4.29052e-06
2.71226e-07
4.27409e-06
1.97691e-07
4.26581e-06
1.31029e-07
4.27269e-06
7.99658e-08
4.29714e-06
4.63465e-08
4.3404e-06
3.67384e-08
4.40232e-06
3.84116e-08
4.48078e-06
4.89595e-08
4.56682e-06
6.8443e-08
4.64946e-06
9.29043e-08
4.72183e-06
1.16121e-07
4.77737e-06
1.36961e-07
4.80939e-06
1.51718e-07
4.81427e-06
1.5375e-07
4.79096e-06
1.45811e-07
4.74447e-06
1.33771e-07
4.67871e-06
1.1078e-07
4.60349e-06
7.84329e-08
4.52788e-06
4.19591e-08
4.46006e-06
3.61283e-09
4.40455e-06
-2.89901e-08
4.36094e-06
-5.08118e-08
4.32934e-06
-5.98441e-08
4.31096e-06
-5.72315e-08
4.3074e-06
-4.22997e-08
4.3178e-06
-1.68265e-08
4.3391e-06
1.26136e-08
3.92143e-08
8.42721e-06
-5.22878e-07
8.37719e-06
-5.92752e-07
8.3117e-06
-6.73155e-07
8.22623e-06
-7.64101e-07
8.11647e-06
-8.64633e-07
7.9778e-06
-9.68925e-07
7.80461e-06
-1.06408e-06
7.59162e-06
-1.13226e-06
7.33674e-06
-1.15504e-06
7.04283e-06
-1.11974e-06
6.7178e-06
-1.02349e-06
6.37466e-06
-8.75397e-07
6.02797e-06
-6.90542e-07
5.69211e-06
-4.83812e-07
5.3851e-06
-2.75863e-07
5.11113e-06
-7.41203e-08
4.8635e-06
1.12307e-07
4.65309e-06
2.49496e-07
4.48998e-06
3.20452e-07
4.37384e-06
3.31117e-07
4.28784e-06
3.05404e-07
4.2051e-06
2.66649e-07
4.09182e-06
2.31964e-07
3.92361e-06
1.92134e-07
3.72763e-06
9.14694e-08
3.53759e-06
-4.41341e-08
3.38754e-06
-2.09094e-07
3.26899e-06
-3.65892e-07
3.15439e-06
-4.85005e-07
3.02798e-06
-5.53203e-07
2.89078e-06
-5.70818e-07
2.73905e-06
-5.48912e-07
2.57226e-06
-4.9062e-07
2.40473e-06
-3.90509e-07
2.25362e-06
-2.49473e-07
2.13631e-06
-7.6045e-08
2.07052e-06
7.78609e-08
2.04801e-06
2.21371e-07
2.06583e-06
3.1868e-07
2.10983e-06
3.5882e-07
2.17104e-06
3.49622e-07
2.24177e-06
2.95685e-07
2.30031e-06
2.08277e-07
2.3389e-06
1.08577e-07
2.35826e-06
1.0799e-08
2.36294e-06
-7.63376e-08
2.36812e-06
-1.48101e-07
2.38253e-06
-1.94662e-07
2.41008e-06
-2.12549e-07
2.45589e-06
-2.02747e-07
2.51936e-06
-1.43307e-07
2.60005e-06
-3.39863e-08
2.70021e-06
8.75755e-08
2.80081e-06
1.97421e-07
2.88839e-06
2.63473e-07
2.95833e-06
2.87777e-07
3.00976e-06
2.78664e-07
3.0379e-06
2.43092e-07
3.04356e-06
1.92028e-07
3.0373e-06
1.37292e-07
3.031e-06
8.62682e-08
3.03465e-06
4.2696e-08
3.0566e-06
1.47827e-08
3.0917e-06
3.31094e-09
3.13689e-06
3.77458e-09
3.1867e-06
1.86362e-08
3.23345e-06
4.61448e-08
3.27373e-06
7.58411e-08
3.30402e-06
1.06675e-07
3.32234e-06
1.33399e-07
3.33016e-06
1.45928e-07
3.32975e-06
1.46226e-07
3.32727e-06
1.36251e-07
3.32563e-06
1.12417e-07
3.32585e-06
7.82111e-08
3.32832e-06
3.94973e-08
3.33116e-06
7.68743e-10
3.33319e-06
-3.10193e-08
3.33413e-06
-5.17553e-08
3.33461e-06
-6.03227e-08
3.33528e-06
-5.78999e-08
3.33779e-06
-4.48086e-08
3.34283e-06
-2.18701e-08
3.3503e-06
5.14784e-09
2.98993e-08
7.37919e-06
-4.02975e-07
7.2338e-06
-4.4737e-07
7.05714e-06
-4.9649e-07
6.84382e-06
-5.50785e-07
6.5867e-06
-6.07512e-07
6.27981e-06
-6.62035e-07
5.92423e-06
-7.08496e-07
5.52756e-06
-7.35586e-07
5.10172e-06
-7.29194e-07
4.66271e-06
-6.80734e-07
4.22974e-06
-5.90515e-07
3.82907e-06
-4.74726e-07
3.49511e-06
-3.56588e-07
3.25474e-06
-2.43435e-07
3.08307e-06
-1.04196e-07
2.95312e-06
5.58268e-08
2.85604e-06
2.09384e-07
2.77225e-06
3.33294e-07
2.67158e-06
4.21113e-07
2.53776e-06
4.64937e-07
2.3728e-06
4.70364e-07
2.20432e-06
4.35132e-07
2.06561e-06
3.70677e-07
1.97683e-06
2.80912e-07
1.92463e-06
1.4367e-07
1.88841e-06
-7.919e-09
1.82256e-06
-1.43243e-07
1.71227e-06
-2.55596e-07
1.56496e-06
-3.37699e-07
1.396e-06
-3.84239e-07
1.21991e-06
-3.9473e-07
1.04433e-06
-3.73333e-07
8.77163e-07
-3.23454e-07
7.32138e-07
-2.45484e-07
6.23824e-07
-1.41159e-07
5.73635e-07
-2.58558e-08
5.73969e-07
7.75266e-08
6.24712e-07
1.70629e-07