/*--------------------------------*- C++ -*----------------------------------*\
| =========                 |                                                 |
| \\      /  F ield         | OpenFOAM: The Open Source CFD Toolbox           |
|  \\    /   O peration     | Version:  2206                                  |
|   \\  /    A nd           | Website:  www.openfoam.com                      |
|    \\/     M anipulation  |                                                 |
\*---------------------------------------------------------------------------*/
FoamFile
{
    version     2.0;
    format      ascii;
    arch        "LSB;label=32;scalar=64";
    class       volVectorField;
    location    "18.5001";
    object      ddtCorrDdt0(U);
}
// * * * * * * * * * * * * * * * * * * * * * * * * * * * * * * * * * * * * * //

dimensions      [0 1 -2 0 0 0 0];

internalField   nonuniform List<vector> 
3037
(
(-2.89669 0.61701 0)
(-37.9404 -62.7958 0)
(-65.8195 -130.822 0)
(-14.5981 -133.844 0)
(53.2627 -99.1303 0)
(97.7959 -54.9185 0)
(121.358 -17.7186 0)
(137.616 10.2337 0)
(146.267 40.8721 0)
(146.116 71.0399 0)
(144.719 98.3595 0)
(176.419 98.985 0)
(257.953 58.7281 0)
(309.882 33.4833 0)
(240.745 91.5341 0)
(120.628 186.563 0)
(25.986 255.235 0)
(-50.0062 274.295 0)
(-63.8974 251.862 0)
(-63.774 222.1 0)
(-54.6628 190.786 0)
(-40.0446 162.151 0)
(-24.3599 137.765 0)
(-12.6354 116.655 0)
(-9.28876 90.5898 0)
(-26.4742 44.4531 0)
(-65.1163 -42.3313 0)
(-120.473 -153.284 0)
(-174.661 -282.976 0)
(-217.061 -396.128 0)
(-233.129 -457.746 0)
(-210.318 -446.968 0)
(-167.597 -394.482 0)
(-117.216 -320.627 0)
(-67.482 -242.04 0)
(-24.2692 -169.397 0)
(9.70592 -108.486 0)
(40.1277 -60.3852 0)
(62.9743 -17.6997 0)
(76.4453 8.94102 0)
(83.5026 22.7607 0)
(86.1351 28.9074 0)
(86.4124 30.5639 0)
(86.3487 30.4356 0)
(86.7606 29.2591 0)
(88.9122 26.0122 0)
(94.0796 19.4461 0)
(102.253 10.5392 0)
(110.598 4.07083 0)
(114.801 6.7231 0)
(111.618 23.7283 0)
(99.5627 55.8287 0)
(80.0772 98.4175 0)
(56.3525 142.976 0)
(29.9282 181.049 0)
(5.33347 207.373 0)
(-16.6658 218.909 0)
(-33.2945 214.502 0)
(-45.9275 200.625 0)
(-54.837 180.257 0)
(-59.8323 156.305 0)
(-61.2363 131.422 0)
(-59.6782 107.805 0)
(-55.9244 86.9549 0)
(-50.9026 69.6165 0)
(-45.4057 55.5967 0)
(-40.0224 44.2194 0)
(-34.9262 34.4157 0)
(-31.132 24.3367 0)
(-30.9138 10.0684 0)
(-31.8028 -10.8469 0)
(-33.987 -38.4491 0)
(-36.6196 -70.9335 0)
(-39.64 -106.586 0)
(-42.4958 -143.025 0)
(-44.6615 -177.059 0)
(-45.7414 -205.106 0)
(-45.0499 -223.205 0)
(-41.2325 -226.111 0)
(-35.0944 -217.638 0)
(-27.5077 -200.597 0)
(-18.8375 -177.115 0)
(-9.54635 -149.49 0)
(-0.1685 -120.014 0)
(8.78777 -90.6849 0)
(16.9562 -62.9406 0)
(26.297 -37.3996 0)
(23.8912 9.83562 0)
(40.0921 -32.578 0)
(31.2935 -123.858 0)
(15.545 -187.009 0)
(50.1974 -152.041 0)
(92.98 -88.4976 0)
(118.795 -34.7064 0)
(133.266 8.62911 0)
(153.76 39.7475 0)
(185.734 65.4008 0)
(250.492 51.023 0)
(339.104 10.486 0)
(333.452 24.2561 0)
(231.262 115.906 0)
(110.586 214.214 0)
(14.5896 291.44 0)
(-55.0848 316.046 0)
(-77.1496 292.849 0)
(-79.2962 254.249 0)
(-70.4675 211.882 0)
(-52.8742 172.663 0)
(-29.738 140.649 0)
(-4.85274 117.392 0)
(17.331 101.705 0)
(33.3745 86.28 0)
(38.338 62.1843 0)
(16.4751 15.2755 0)
(-32.5378 -100.655 0)
(-93.0293 -231.418 0)
(-148.093 -355.43 0)
(-189.172 -444.334 0)
(-197.167 -466.614 0)
(-176.083 -431.295 0)
(-140.646 -365.495 0)
(-99.3529 -286.979 0)
(-58.4662 -209.472 0)
(-22.9347 -140.778 0)
(5.00969 -84.7156 0)
(32.4853 -42.5469 0)
(51.447 -5.19609 0)
(64.8231 15.7326 0)
(72.5649 25.6875 0)
(76.2523 29.4598 0)
(78.1571 29.594 0)
(80.5218 27.0638 0)
(84.9034 21.1723 0)
(92.1208 11.9683 0)
(100.847 2.4731 0)
(107.845 -1.14472 0)
(109.346 7.73711 0)
(103.491 32.8098 0)
(89.4672 72.4098 0)
(69.4024 120.16 0)
(45.4266 167.505 0)
(20.3267 206.187 0)
(-3.53832 230.37 0)
(-23.5187 237.114 0)
(-38.5608 228.649 0)
(-49.6784 210.745 0)
(-56.6789 186.314 0)
(-59.6407 158.543 0)
(-59.0712 130.37 0)
(-55.6147 104.17 0)
(-50.0198 81.5887 0)
(-43.159 63.3758 0)
(-36.0338 49.3141 0)
(-29.3847 38.3385 0)
(-23.2862 29.3416 0)
(-17.6589 21.0794 0)
(-15.6224 10.3271 0)
(-15.3898 -9.97431 0)
(-17.0764 -36.4558 0)
(-19.6274 -67.946 0)
(-23.1089 -103.315 0)
(-26.9696 -139.954 0)
(-30.6354 -174.616 0)
(-33.7722 -203.768 0)
(-35.8357 -223.616 0)
(-35.4863 -229.458 0)
(-32.7142 -222.723 0)
(-28.2871 -207.225 0)
(-22.3751 -184.844 0)
(-15.334 -157.832 0)
(-7.66791 -128.504 0)
(0.18641 -99.0091 0)
(7.67093 -71.0485 0)
(14.9184 -45.8158 0)
(19.5734 -30.9189 0)
(50.116 -72.8483 0)
(70.9956 -123.611 0)
(65.689 -168.506 0)
(78.3316 -177.021 0)
(111.896 -121.053 0)
(146.667 -66.2859 0)
(184.131 -29.5273 0)
(243.649 -18.6683 0)
(319.045 -21.3331 0)
(351.82 -23.888 0)
(306.454 30.819 0)
(208.777 127.488 0)
(104.236 232.764 0)
(6.59638 325.75 0)
(-70.9052 357.26 0)
(-93.9366 339.703 0)
(-97.4921 297.211 0)
(-89.2608 245.03 0)
(-71.9494 193.323 0)
(-48.3414 147.93 0)
(-20.1864 112.771 0)
(10.2414 89.6222 0)
(38.8172 78.6966 0)
(60.8729 70.8185 0)
(71.0299 53.3263 0)
(76.7722 29.4559 0)
(42.4979 -29.6145 0)
(-11.4765 -177.96 0)
(-74.57 -301.615 0)
(-131.351 -406.692 0)
(-165.814 -461.097 0)
(-167.197 -447.567 0)
(-149.465 -396.051 0)
(-120.293 -323.79 0)
(-86.2032 -246.401 0)
(-52.4895 -174.23 0)
(-22.6683 -112.634 0)
(0.327117 -62.6405 0)
(23.7918 -26.3835 0)
(41.6029 1.81165 0)
(54.7694 17.7955 0)
(62.5895 24.8917 0)
(67.4956 26.1603 0)
(72.4702 22.518 0)
(79.2405 14.3874 0)
(87.7984 3.61956 0)
(96.2355 -4.95781 0)
(101.505 -4.42165 0)
(100.834 11.1444 0)
(92.9394 43.6616 0)
(77.928 89.6907 0)
(57.2693 142.035 0)
(33.7292 191.786 0)
(9.60255 230.061 0)
(-12.6783 251.779 0)
(-30.5215 253.51 0)
(-43.6465 241.049 0)
(-52.6568 218.848 0)
(-57.3216 190.231 0)
(-57.9891 158.696 0)
(-55.3332 127.378 0)
(-50.054 98.7458 0)
(-42.8841 74.5338 0)
(-34.5637 55.5783 0)
(-25.9242 41.6099 0)
(-17.895 31.1848 0)
(-10.9477 22.6069 0)
(-4.94633 15.5203 0)
(-0.958769 8.78423 0)
(0.893377 -7.53484 0)
(0.231352 -35.4434 0)
(-2.86649 -64.8502 0)
(-6.96421 -99.3332 0)
(-11.6534 -135.731 0)
(-16.633 -170.532 0)
(-21.5745 -200.18 0)
(-25.9957 -221.201 0)
(-28.7103 -229.478 0)
(-29.1495 -224.513 0)
(-27.8582 -210.796 0)
(-24.8742 -189.934 0)
(-20.3603 -164.049 0)
(-14.6944 -135.404 0)
(-8.2829 -106.208 0)
(-1.47627 -78.3726 0)
(5.1258 -53.2403 0)
(19.0294 -52.04 0)
(45.8908 -97.796 0)
(68.1864 -144.815 0)
(81.8754 -185.175 0)
(99.4522 -195.563 0)
(137.875 -163.358 0)
(189.578 -120.037 0)
(237.994 -93.0998 0)
(268.848 -72.8335 0)
(264.971 -26 0)
(235.212 35.6209 0)
(160.607 113.279 0)
(90.9304 230.568 0)
(-12.244 339.723 0)
(-90.889 391.458 0)
(-115.631 389.833 0)
(-115.825 346.263 0)
(-107.115 288.938 0)
(-88.3234 227.505 0)
(-63.9039 169.522 0)
(-36.7651 119.588 0)
(-7.87866 80.5212 0)
(23.8758 56.6921 0)
(55.0315 50.5944 0)
(85.1763 57.2067 0)
(100.489 52.6978 0)
(103.093 30.7231 0)
(96.9657 -8.85001 0)
(59.0842 -118.246 0)
(-5.56967 -238.727 0)
(-70.0067 -354.174 0)
(-121.168 -430.683 0)
(-144.937 -445.345 0)
(-144.387 -410.638 0)
(-129.615 -349.647 0)
(-105.19 -277.013 0)
(-76.6821 -204.737 0)
(-48.7423 -139.947 0)
(-23.6498 -86.2601 0)
(-3.19699 -45.1425 0)
(15.9808 -17.2973 0)
(33.4662 5.14132 0)
(45.9204 17.0436 0)
(54.492 19.572 0)
(62.3754 15.3502 0)
(71.2815 5.98472 0)
(80.5888 -4.85265 0)
(88.2409 -11.0548 0)
(91.8153 -5.64623 0)
(89.5055 16.4603 0)
(80.1951 55.6739 0)
(64.1314 107.571 0)
(43.5745 164.134 0)
(20.7401 215.029 0)
(-2.01105 252.432 0)
(-22.2822 271.091 0)
(-37.5424 267.741 0)
(-48.2557 251.116 0)
(-54.5499 224.436 0)
(-56.4451 191.642 0)
(-54.5613 156.526 0)
(-49.6973 122.336 0)
(-42.6315 91.6087 0)
(-34.0811 65.9958 0)
(-24.6695 46.4314 0)
(-15.1394 32.7583 0)
(-6.23715 23.6386 0)
(1.28324 17.2906 0)
(8.07532 10.2526 0)
(13.3221 4.07382 0)
(16.5793 -11.0594 0)
(16.2438 -32.3904 0)
(13.0755 -60.9949 0)
(8.52706 -94.6384 0)
(3.07057 -130.448 0)
(-3.10058 -164.929 0)
(-9.66614 -194.628 0)
(-16.1703 -216.315 0)
(-21.5857 -226.436 0)
(-25.0021 -223.262 0)
(-26.6468 -211.392 0)
(-26.4627 -192.289 0)
(-24.4579 -167.936 0)
(-20.8752 -140.495 0)
(-16.0156 -112.176 0)
(-10.1877 -84.9119 0)
(-3.85619 -60.1531 0)
(15.8175 -84.0728 0)
(32.5247 -116.257 0)
(45.4299 -159.372 0)
(49.7759 -197.543 0)
(53.3242 -207.257 0)
(73.4782 -186.721 0)
(100.695 -146.74 0)
(125.82 -109.173 0)
(136.05 -62.7823 0)
(125.091 -10.464 0)
(95.5864 59.8766 0)
(45.7189 203.81 0)
(-54.088 320.11 0)
(-118.939 399.381 0)
(-144.208 421.761 0)
(-143.669 392.676 0)
(-129.95 335.49 0)
(-104.814 268.547 0)
(-74.9591 201.692 0)
(-44.1514 141.808 0)
(-16.2723 92.7646 0)
(8.36369 54.1724 0)
(33.2715 24.2033 0)
(62.1227 15.0444 0)
(100.65 26.4035 0)
(127.997 40.904 0)
(136.051 37.2127 0)
(131.592 2.46059 0)
(106.012 -69.4923 0)
(54.8075 -175.507 0)
(-10.7094 -293.092 0)
(-71.3756 -384.689 0)
(-112.921 -425.195 0)
(-128.366 -408.869 0)
(-127.407 -362.32 0)
(-114.76 -298.817 0)
(-94.2176 -230.38 0)
(-70.3098 -165.652 0)
(-46.4705 -109.699 0)
(-24.624 -64.792 0)
(-5.67892 -34.0772 0)
(9.50438 -13.8078 0)
(26.6334 4.26618 0)
(39.7615 9.95334 0)
(50.8717 5.62185 0)
(61.336 -3.76433 0)
(70.6517 -13.1585 0)
(77.1632 -15.9766 0)
(79.3222 -5.54882 0)
(75.5525 22.8944 0)
(64.6386 68.5659 0)
(48.1598 126.027 0)
(27.9851 185.31 0)
(6.3376 236.966 0)
(-14.7057 273.12 0)
(-32.281 287.445 0)
(-44.4448 279.657 0)
(-52.022 258.322 0)
(-55.0241 227.082 0)
(-53.7854 190.273 0)
(-49.1963 151.958 0)
(-42.1988 115.413 0)
(-33.6585 83.1645 0)
(-24.1704 56.5793 0)
(-14.487 36.3655 0)
(-4.82649 22.8326 0)
(6.21923 14.547 0)
(15.752 8.83373 0)
(22.7109 4.84356 0)
(27.8509 -0.634135 0)
(30.9258 -11.7293 0)
(30.7719 -30.7836 0)
(27.8052 -57.2909 0)
(23.0981 -89.5146 0)
(16.8789 -124.244 0)
(9.6126 -158.005 0)
(1.6397 -187.357 0)
(-6.63362 -209.229 0)
(-14.3479 -220.739 0)
(-20.3849 -219.184 0)
(-24.6764 -209.181 0)
(-27.0994 -192.022 0)
(-27.5099 -169.527 0)
(-26.0212 -143.764 0)
(-22.8289 -116.797 0)
(-18.2034 -90.5201 0)
(-12.5154 -66.5126 0)
(-25.192 -95.1546 0)
(-20.4169 -72.2067 0)
(0.983089 0.260712 0)
(0.535663 0.183407 0)
(0.186531 0.0712518 0)
(-0.0168242 -0.0688761 0)
(-0.0323843 -0.227248 0)
(0.174906 -0.392586 0)
(0.613152 -0.535253 0)
(1.26804 -0.639524 0)
(2.11531 -0.699574 0)
(3.07819 -0.657978 0)
(4.03433 -0.484137 0)
(4.86534 -0.195844 0)
(5.36902 0.149377 0)
(5.81514 0.608321 0)
(4.94522 0.996977 0)
(4.26753 1.12596 0)
(3.29722 0.908588 0)
(2.2253 0.57263 0)
(1.23427 0.252056 0)
(0.409223 -0.0130686 0)
(-0.222475 -0.191472 0)
(-0.6566 -0.268087 0)
(-0.907601 -0.269353 0)
(-1.00123 -0.218269 0)
(-0.964763 -0.139264 0)
(-0.820062 -0.0635188 0)
(-0.592782 0.00164228 0)
(-0.319851 0.0409628 0)
(-0.0305473 0.0270156 0)
(0.271363 -0.0528757 0)
(0.59987 -0.196182 0)
(0.973678 -0.378166 0)
(1.41247 -0.563651 0)
(1.92532 -0.693972 0)
(2.49841 -0.673921 0)
(3.08575 -0.419762 0)
(3.68583 0.126069 0)
(3.74793 0.716298 0)
(3.13027 1.25601 0)
(1.75795 1.65581 0)
(-0.291186 1.79219 0)
(-2.7043 1.67758 0)
(-4.95913 1.35815 0)
(2.22424 0.667561 0)
(1.89504 0.591033 0)
(1.59194 0.449285 0)
(1.33903 0.244269 0)
(1.15535 -0.0113122 0)
(1.07175 -0.297226 0)
(1.0991 -0.590072 0)
(1.2184 -0.859151 0)
(1.43989 -1.06908 0)
(1.76441 -1.18973 0)
(2.14102 -1.19238 0)
(2.51758 -1.04738 0)
(2.88172 -0.749408 0)
(3.18385 -0.282091 0)
(3.60636 0.278575 0)
(3.92853 0.793858 0)
(4.03907 1.17314 0)
(3.8884 1.3956 0)
(3.48625 1.45851 0)
(2.93641 1.37797 0)
(2.21966 1.17365 0)
(1.49289 0.891891 0)
(0.819761 0.571802 0)
(0.260308 0.242044 0)
(-0.104447 -0.0673711 0)
(-0.266759 -0.332391 0)
(-0.293964 -0.52901 0)
(-0.143348 -0.639848 0)
(0.153996 -0.671777 0)
(0.536229 -0.641843 0)
(0.930173 -0.566308 0)
(1.23841 -0.464651 0)
(1.34997 -0.363236 0)
(1.21275 -0.279337 0)
(0.700877 -0.197572 0)
(-0.185071 -0.0519454 0)
(-1.50745 0.288408 0)
(-3.23829 0.794803 0)
(-5.09877 1.43183 0)
(-6.62493 2.08107 0)
(-7.78786 2.56748 0)
(-8.55433 2.73582 0)
(-9.02669 2.55905 0)
(2.7884 0.946404 0)
(2.51203 0.865501 0)
(2.22186 0.696829 0)
(1.93787 0.471483 0)
(1.68066 0.177482 0)
(1.46747 -0.233481 0)
(1.3082 -0.568514 0)
(1.21083 -0.879371 0)
(1.18062 -1.28906 0)
(1.21222 -1.41531 0)
(1.30848 -1.35666 0)
(1.47013 -1.15457 0)
(1.69647 -0.844702 0)
(1.97818 -0.441213 0)
(2.30861 0.0635559 0)
(2.6629 0.554443 0)
(2.99149 0.962206 0)
(3.23953 1.25628 0)
(3.37224 1.42418 0)
(3.3783 1.47088 0)
(3.26768 1.41056 0)
(3.05994 1.25696 0)
(2.78016 1.02931 0)
(2.4553 0.748074 0)
(2.10762 0.435096 0)
(1.76252 0.125014 0)
(1.4507 -0.151178 0)
(1.18945 -0.3812 0)
(0.975401 -0.558075 0)
(0.796418 -0.669016 0)
(0.635476 -0.695718 0)
(0.464797 -0.618238 0)
(0.260751 -0.424473 0)
(-0.0334007 -0.105307 0)
(-0.475376 0.357061 0)
(-1.10158 0.967666 0)
(-1.92388 1.69962 0)
(-2.92361 2.48068 0)
(-4.0337 3.23414 0)
(-5.15872 3.80574 0)
(-6.25928 4.04954 0)
(-7.32067 3.90082 0)
(-8.3483 3.39439 0)
(2.98597 1.18637 0)
(2.67764 1.13721 0)
(2.3461 0.979978 0)
(2.02057 0.72 0)
(1.72908 0.38008 0)
(1.47858 -0.0117087 0)
(1.27858 -0.42198 0)
(1.15898 -0.808683 0)
(1.10623 -1.12588 0)
(1.09663 -1.33711 0)
(1.15347 -1.41388 0)
(1.29503 -1.33143 0)
(1.51279 -1.09121 0)
(1.78129 -0.718557 0)
(2.08345 -0.265292 0)
(2.40983 0.20563 0)
(2.73219 0.636141 0)
(3.01108 0.988253 0)
(3.21688 1.24124 0)
(3.33488 1.38512 0)
(3.3634 1.41774 0)
(3.30815 1.34315 0)
(3.18358 1.17661 0)
(3.00727 0.944911 0)
(2.78505 0.666255 0)
(2.55247 0.375726 0)
(2.29052 0.108895 0)
(2.0247 -0.118226 0)
(1.76661 -0.292788 0)
(1.5219 -0.394466 0)
(1.29042 -0.400045 0)
(1.0678 -0.291638 0)
(0.850186 -0.0588242 0)
(0.636265 0.309172 0)
(0.425376 0.82335 0)
(0.225083 1.47866 0)
(0.0548216 2.24247 0)
(-0.0651362 3.04696 0)
(-0.129515 3.79457 0)
(-0.158536 4.36453 0)
(-0.207186 4.6588 0)
(-0.355694 4.63842 0)
(-0.681543 4.33977 0)
(3.09736 1.51619 0)
(2.68306 1.50789 0)
(2.23582 1.36592 0)
(1.81427 1.08109 0)
(1.45538 0.689384 0)
(1.16841 0.227194 0)
(0.965657 -0.258936 0)
(0.862466 -0.725544 0)
(0.854676 -1.13654 0)
(0.933805 -1.42985 0)
(1.104 -1.56874 0)
(1.35894 -1.54028 0)
(1.66943 -1.34964 0)
(2.00122 -1.02268 0)
(2.32899 -0.591394 0)
(2.64355 -0.106663 0)
(2.92112 0.367727 0)
(3.14015 0.784111 0)
(3.28752 1.1135 0)
(3.35307 1.33652 0)
(3.34042 1.44527 0)
(3.25773 1.42856 0)
(3.10563 1.3074 0)
(2.9308 1.11638 0)
(2.72722 0.857867 0)
(2.51252 0.573364 0)
(2.31294 0.312359 0)
(2.11792 0.0856069 0)
(1.94112 -0.0938707 0)
(1.79515 -0.201817 0)
(1.68213 -0.215413 0)
(1.59684 -0.122018 0)
(1.54521 0.0874723 0)
(1.52394 0.422315 0)
(1.55922 0.885402 0)
(1.66834 1.46333 0)
(1.86732 2.12477 0)
(2.16877 2.81537 0)
(2.56748 3.46261 0)
(3.03129 3.98864 0)
(3.49589 4.33031 0)
(3.87197 4.45991 0)
(4.06515 4.39652 0)
(3.18685 1.94333 0)
(2.68407 1.99418 0)
(2.13739 1.82921 0)
(1.58596 1.50832 0)
(1.1177 1.04279 0)
(0.757154 0.485075 0)
(0.521447 -0.112172 0)
(0.430006 -0.698661 0)
(0.48291 -1.21054 0)
(0.667084 -1.60245 0)
(0.969339 -1.84067 0)
(1.3411 -1.86182 0)
(1.76181 -1.70007 0)
(2.17771 -1.36325 0)
(2.54195 -0.901895 0)
(2.88989 -0.395935 0)
(3.15749 0.134463 0)
(3.34238 0.623268 0)
(3.4457 1.02991 0)
(3.46507 1.32547 0)
(3.4024 1.50399 0)
(3.33304 1.58237 0)
(3.06175 1.48742 0)
(2.93157 1.32651 0)
(2.74258 1.08875 0)
(2.41875 0.809851 0)
(2.2634 0.531689 0)
(2.1139 0.268935 0)
(1.99228 0.0397238 0)
(1.91478 -0.119008 0)
(1.89563 -0.176317 0)
(1.92169 -0.126322 0)
(2.00436 0.0367905 0)
(2.12918 0.316445 0)
(2.34425 0.707442 0)
(2.64164 1.19426 0)
(3.03679 1.75061 0)
(3.5375 2.33653 0)
(4.13408 2.90177 0)
(4.7954 3.39454 0)
(5.46558 3.77415 0)
(6.0697 4.02434 0)
(6.52679 4.15944 0)
(3.26881 2.46582 0)
(2.61018 2.59567 0)
(1.90672 2.46194 0)
(1.19276 2.06613 0)
(0.577923 1.50715 0)
(0.132865 0.810938 0)
(-0.127751 0.0511628 0)
(-0.183828 -0.706985 0)
(-0.0286025 -1.38694 0)
(0.309064 -1.91091 0)
(0.802345 -2.26645 0)
(1.36074 -2.33956 0)
(1.95846 -2.18228 0)
(2.51639 -1.80746 0)
(2.98407 -1.28501 0)
(3.34427 -0.689793 0)
(3.58381 -0.0744172 0)
(3.69731 0.504506 0)
(3.71191 1.00557 0)
(3.61748 1.38716 0)
(3.42581 1.61608 0)
(3.21002 1.72126 0)
(2.97841 1.7006 0)
(2.70235 1.52901 0)
(2.42214 1.26068 0)
(2.21477 0.964003 0)
(2.09734 0.663773 0)
(1.98593 0.36639 0)
(1.95419 0.0985055 0)
(1.91044 -0.108897 0)
(2.00337 -0.223192 0)
(2.13267 -0.231237 0)
(2.32024 -0.128658 0)
(2.57635 0.0816089 0)
(2.90577 0.389515 0)
(3.31467 0.78201 0)
(3.81133 1.23692 0)
(4.39881 1.72458 0)
(5.06881 2.21126 0)
(5.79746 2.66493 0)
(6.54352 3.06379 0)
(7.25103 3.40356 0)
(7.85557 3.70011 0)
(3.39872 3.17064 0)
(2.52615 3.37891 0)
(1.62727 3.28796 0)
(0.706796 2.79529 0)
(-0.11407 2.08383 0)
(-0.680833 1.18104 0)
(-0.979536 0.186515 0)
(-0.994178 -0.811541 0)
(-0.714802 -1.71661 0)
(-0.173754 -2.42724 0)
(0.555516 -2.87672 0)
(1.41356 -3.04331 0)
(2.25633 -2.8455 0)
(3.02227 -2.38217 0)
(3.63177 -1.73181 0)
(4.05222 -0.985552 0)
(4.28101 -0.217947 0)
(4.31828 0.500355 0)
(4.20095 1.11482 0)
(3.96738 1.59741 0)
(3.62422 1.90231 0)
(3.22546 2.02426 0)
(2.84898 1.99679 0)
(2.51772 1.85637 0)
(2.15797 1.55463 0)
(1.85648 1.16487 0)
(1.78728 0.785269 0)
(1.71622 0.4106 0)
(1.70845 0.0790234 0)
(1.80092 -0.185924 0)
(1.97594 -0.364902 0)
(2.20837 -0.437173 0)
(2.49763 -0.399551 0)
(2.84974 -0.257836 0)
(3.26713 -0.0219663 0)
(3.75175 0.293537 0)
(4.30702 0.668565 0)
(4.93449 1.07948 0)
(5.62947 1.50266 0)
(6.37751 1.91951 0)
(7.15213 2.32187 0)
(7.91489 2.71611 0)
(8.61734 3.12461 0)
(3.60248 4.09227 0)
(2.41821 4.36394 0)
(1.25977 4.35809 0)
(0.0906407 3.78028 0)
(-1.0164 2.87778 0)
(-1.759 1.68486 0)
(-2.11288 0.353016 0)
(-2.07445 -1.00009 0)
(-1.63259 -2.23485 0)
(-0.83086 -3.21564 0)
(0.229598 -3.83381 0)
(1.4469 -4.03738 0)
(2.64462 -3.7849 0)
(3.66848 -3.15717 0)
(4.44717 -2.29952 0)
(4.93968 -1.32258 0)
(5.15075 -0.329102 0)
(5.10458 0.591718 0)
(4.83862 1.36721 0)
(4.4231 1.96401 0)
(3.9203 2.37139 0)
(3.3096 2.50215 0)
(2.70938 2.39365 0)
(2.29675 2.26566 0)
(1.89082 1.91688 0)
(1.41606 1.30741 0)
(1.31473 0.890422 0)
(1.31456 0.417691 0)
(1.37812 -0.0157344 0)
(1.55318 -0.366414 0)
(1.8251 -0.614111 0)
(2.16198 -0.746279 0)
(2.55154 -0.76607 0)
(2.99386 -0.683198 0)
(3.48932 -0.509691 0)
(4.03735 -0.260322 0)
(4.63847 0.0465934 0)
(5.29403 0.391036 0)
(6.00445 0.755521 0)
(6.76577 1.13007 0)
(7.56573 1.51654 0)
(8.38148 1.93156 0)
(9.17832 2.40769 0)
(3.89505 5.40376 0)
(2.2693 5.68338 0)
(0.794853 5.70435 0)
(-0.62719 4.97937 0)
(-2.17981 3.82523 0)
(-3.20953 2.26877 0)
(-3.66995 0.505387 0)
(-3.58287 -1.3041 0)
(-2.92737 -2.96495 0)
(-1.77164 -4.30813 0)
(-0.236232 -5.17484 0)
(1.50533 -5.42684 0)
(3.18982 -5.05105 0)
(4.53299 -4.15382 0)
(5.51498 -2.98399 0)
(6.08609 -1.68158 0)
(6.26064 -0.381751 0)
(6.08722 0.80536 0)
(5.6252 1.78485 0)
(4.97127 2.51178 0)
(4.22743 3.00312 0)
(3.41742 3.20986 0)
(2.57004 3.0106 0)
(1.91432 2.67438 0)
(1.4423 2.41448 0)
(0.997456 1.64693 0)
(0.830046 0.889027 0)
(0.792584 0.405202 0)
(0.93937 -0.181394 0)
(1.21802 -0.641022 0)
(1.5989 -0.972156 0)
(2.04838 -1.16783 0)
(2.54099 -1.23676 0)
(3.07306 -1.19597 0)
(3.64508 -1.06155 0)
(4.2548 -0.849865 0)
(4.90167 -0.582276 0)
(5.58896 -0.282356 0)
(6.32288 0.0323678 0)
(7.10937 0.357114 0)
(7.94976 0.702719 0)
(8.83689 1.09708 0)
(9.75118 1.58663 0)
(4.55122 7.15228 0)
(2.085 7.45229 0)
(-0.347965 7.55632 0)
(-1.77198 6.86386 0)
(-3.70936 5.20931 0)
(-5.10833 3.11244 0)
(-5.71728 0.670288 0)
(-5.57149 -1.83832 0)
(-4.65687 -4.08156 0)
(-3.06415 -5.95055 0)
(-0.89 -7.12976 0)
(1.60608 -7.36971 0)
(3.99645 -6.79067 0)
(5.73461 -5.46557 0)
(6.93474 -3.80829 0)
(7.57168 -2.02104 0)
(7.6642 -0.290343 0)
(7.30854 1.25387 0)
(6.59029 2.50427 0)
(5.61521 3.37939 0)
(4.55501 3.93682 0)
(3.45266 4.15582 0)
(2.36594 3.86277 0)
(1.48377 3.41083 0)
(0.734882 2.88614 0)
(0.333426 1.8726 0)
(0.209704 1.07971 0)
(0.140986 0.296485 0)
(0.38917 -0.437384 0)
(0.806049 -1.01675 0)
(1.34297 -1.42477 0)
(1.94108 -1.66931 0)
(2.55839 -1.77821 0)
(3.18808 -1.78138 0)
(3.83468 -1.69409 0)
(4.49603 -1.52694 0)
(5.16836 -1.30035 0)
(5.85927 -1.04211 0)
(6.58934 -0.774929 0)
(7.3831 -0.505325 0)
(8.26019 -0.218611 0)
(9.23194 0.121616 0)
(10.2985 0.576232 0)
(5.54354 9.71646 0)
(2.33302 10.2188 0)
(-0.783489 9.38099 0)
(-3.17978 8.79163 0)
(-5.96322 6.95726 0)
(-7.89504 4.33577 0)
(-8.76437 1.06707 0)
(-8.40342 -2.47252 0)
(-7.07132 -5.4755 0)
(-4.82586 -8.25314 0)
(-1.6193 -10.029 0)
(1.98676 -10.014 0)
(5.28023 -9.01129 0)
(7.62074 -7.15916 0)
(9.08823 -4.85858 0)
(9.72311 -2.44142 0)
(9.63019 -0.160957 0)
(8.9711 1.84468 0)
(7.84955 3.43769 0)
(6.43331 4.51264 0)
(4.93286 5.17637 0)
(3.39971 5.36498 0)
(1.99694 4.95494 0)
(0.819094 4.33677 0)
(-0.124207 3.43317 0)
(-0.56469 2.21834 0)
(-0.841625 1.18132 0)
(-0.82148 0.131102 0)
(-0.406736 -0.82856 0)
(0.244387 -1.60326 0)
(1.00826 -2.1273 0)
(1.77989 -2.39845 0)
(2.51517 -2.48464 0)
(3.23316 -2.45669 0)
(3.95956 -2.34036 0)
(4.68856 -2.1489 0)
(5.40288 -1.91513 0)
(6.10601 -1.68193 0)
(6.82878 -1.47811 0)
(7.61642 -1.30756 0)
(8.51401 -1.14763 0)
(9.56081 -0.952221 0)
(10.7911 -0.641893 0)
(6.80719 12.6548 0)
(3.18287 13.8716 0)
(-1.74628 13.558 0)
(-4.22502 11.9117 0)
(-7.96635 9.27128 0)
(-10.9836 5.68124 0)
(-11.9455 1.13011 0)
(-12.7562 -3.4667 0)
(-10.7832 -7.5147 0)
(-6.01598 -11.3799 0)
(-4.19559 -14.1717 0)
(2.98235 -14.6323 0)
(6.86048 -12.0541 0)
(9.81278 -9.05172 0)
(11.7266 -5.68484 0)
(12.3958 -2.42615 0)
(12.121 0.552205 0)
(11.1068 3.11127 0)
(9.49066 5.04589 0)
(7.52486 6.31299 0)
(5.43709 6.97408 0)
(3.39174 7.01253 0)
(1.54171 6.45219 0)
(-0.0251878 5.52264 0)
(-1.15747 4.22949 0)
(-1.78148 2.69405 0)
(-2.06642 1.21172 0)
(-1.92295 -0.20045 0)
(-1.35382 -1.45897 0)
(-0.557488 -2.4009 0)
(0.355266 -2.92453 0)
(1.32674 -3.12088 0)
(2.30792 -3.18862 0)
(3.25329 -3.22054 0)
(4.12132 -3.16817 0)
(4.89055 -2.99197 0)
(5.58491 -2.73588 0)
(6.25575 -2.48788 0)
(6.95997 -2.30784 0)
(7.75028 -2.2084 0)
(8.67048 -2.16817 0)
(9.78715 -2.17058 0)
(11.1916 -2.11754 0)
(7.40638 15.9063 0)
(3.24972 17.5589 0)
(-1.40462 17.748 0)
(-7.09558 16.3647 0)
(-12.9623 13.5595 0)
(-15.6079 8.69973 0)
(-16.4061 2.16896 0)
(-16.3323 -4.69999 0)
(-11.773 -11.0896 0)
(-6.70915 -15.9681 0)
(-1.87103 -18.6279 0)
(2.45354 -18.9783 0)
(9.21281 -17.2077 0)
(12.7313 -12.5788 0)
(14.5676 -7.44119 0)
(15.0076 -3.01044 0)
(14.4909 0.964263 0)
(13.0772 4.44065 0)
(10.8961 7.01704 0)
(8.32165 8.55929 0)
(5.66183 9.3001 0)
(3.04532 9.26208 0)
(0.764721 8.39333 0)
(-1.22396 7.00766 0)
(-2.69591 5.06137 0)
(-2.98507 3.25633 0)
(-3.67599 1.29036 0)
(-3.35215 -0.532549 0)
(-2.6505 -2.11733 0)
(-1.59089 -3.32436 0)
(-0.176493 -4.09473 0)
(1.55531 -4.44161 0)
(3.31537 -4.44453 0)
(4.74282 -4.26416 0)
(5.69374 -3.94907 0)
(6.32276 -3.57762 0)
(6.6803 -3.2398 0)
(6.98596 -3.0015 0)
(7.2567 -2.91216 0)
(7.75006 -3.00836 0)
(8.49966 -3.13796 0)
(9.53797 -3.41589 0)
(11.106 -3.86168 0)
(9.27041 20.687 0)
(5.31333 23.3222 0)
(0.61681 23.2641 0)
(-4.44234 20.9772 0)
(-10.1225 16.4512 0)
(-15.3049 10.4906 0)
(-18.1965 2.46972 0)
(-18.6754 -6.72804 0)
(-15.6549 -15.9236 0)
(-9.36147 -23.7555 0)
(-0.608682 -24.6267 0)
(7.21326 -23.627 0)
(13.3648 -20.3743 0)
(17.2022 -14.4629 0)
(18.0728 -7.81033 0)
(17.5382 -2.36886 0)
(16.8677 2.45725 0)
(14.9329 6.56731 0)
(12.0373 9.60619 0)
(8.79956 11.4558 0)
(5.49935 12.1821 0)
(2.35273 11.8514 0)
(-0.441025 10.7297 0)
(-2.69955 8.81351 0)
(-4.19876 6.27908 0)
(-5.33346 3.69628 0)
(-5.3222 1.12112 0)
(-4.5402 -1.26297 0)
(-3.28937 -3.2787 0)
(-1.7501 -4.84376 0)
(-0.0426386 -5.91292 0)
(1.71888 -6.40163 0)
(3.35581 -6.2453 0)
(4.67227 -5.56545 0)
(5.61588 -4.7244 0)
(6.19848 -3.97127 0)
(6.49762 -3.42388 0)
(6.6844 -3.14239 0)
(6.76766 -3.1448 0)
(7.22413 -3.44069 0)
(7.09303 -4.10572 0)
(9.43156 -4.8857 0)
(10.3862 -5.8426 0)
(11.0151 22.8065 0)
(9.26702 27.2321 0)
(4.95616 29.7958 0)
(-1.31378 31.7667 0)
(-1.09956 26.6855 0)
(-3.70029 14.5614 0)
(-7.06633 4.13593 0)
(-8.6401 -7.10746 0)
(-8.33795 -19.1724 0)
(-5.86885 -31.6159 0)
(1.26829 -36.691 0)
(10.2976 -33.3796 0)
(17.1381 -28.1184 0)
(18.7408 -20.0177 0)
(20.9523 -6.36536 0)
(18.3708 -3.34237 0)
(16.8717 4.31882 0)
(14.7742 9.67375 0)
(11.6986 13.0735 0)
(8.26765 15.0698 0)
(4.73757 15.8515 0)
(1.40635 15.2012 0)
(-1.53397 13.4964 0)
(-3.7878 10.8765 0)
(-5.42209 7.74504 0)
(-6.37264 4.33393 0)
(-6.40882 0.908645 0)
(-5.71375 -2.21785 0)
(-4.32557 -4.76152 0)
(-2.49189 -6.56145 0)
(-0.477373 -7.72388 0)
(1.5116 -8.02239 0)
(3.21205 -7.49563 0)
(4.48164 -6.57484 0)
(5.43239 -5.47003 0)
(6.03224 -4.42181 0)
(6.2859 -3.62796 0)
(6.29308 -3.20498 0)
(6.18917 -3.22945 0)
(6.23836 -3.74359 0)
(6.61713 -4.83645 0)
(7.3473 -6.38366 0)
(9.78312 -8.06632 0)
(14.8927 20.2722 0)
(23.9985 25.8792 0)
(29.2449 28.7936 0)
(28.5307 25.4587 0)
(25.1909 22.999 0)
(20.6185 17.1934 0)
(16.6805 8.51337 0)
(10.7352 -3.9236 0)
(3.11131 -17.5982 0)
(-0.666579 -30.0327 0)
(-0.0359078 -38.7457 0)
(4.30573 -37.8591 0)
(8.69683 -29.871 0)
(10.9793 -17.3973 0)
(9.54265 -6.25155 0)
(8.5539 -1.42499 0)
(7.25899 4.56003 0)
(5.60606 11.4692 0)
(3.81533 15.7621 0)
(1.8334 18.2474 0)
(-0.24721 19.1092 0)
(-2.04346 18.1768 0)
(-3.71961 16.0113 0)
(-5.00065 12.8373 0)
(-5.75774 8.94902 0)
(-5.93685 4.69748 0)
(-5.55162 0.40218 0)
(-4.55435 -3.50534 0)
(-3.04418 -6.5898 0)
(-1.31842 -8.67487 0)
(0.398554 -9.78289 0)
(1.97503 -9.88408 0)
(3.33535 -9.08289 0)
(4.30162 -7.79302 0)
(4.91426 -6.32538 0)
(5.28443 -4.895 0)
(5.35157 -3.75518 0)
(5.17152 -3.08155 0)
(4.84148 -3.02115 0)
(4.51087 -3.69154 0)
(4.43597 -5.20237 0)
(4.70004 -7.64022 0)
(6.30219 -10.7621 0)
(11.5725 11.2171 0)
(12.1849 21.9318 0)
(10.161 31.2152 0)
(9.40832 36.2688 0)
(8.50878 34.7228 0)
(8.9887 22.4424 0)
(13.0266 11.3242 0)
(13.8454 5.05263 0)
(10.6556 -16.1836 0)
(10.9547 -34.927 0)
(8.10869 -43.0749 0)
(3.33417 -41.0276 0)
(-1.30599 -32.5918 0)
(-4.74619 -20.3162 0)
(-7.51785 -7.58339 0)
(-8.85896 1.34933 0)
(-9.72947 7.82488 0)
(-9.96265 12.9667 0)
(-9.15212 16.6951 0)
(-7.88907 19.007 0)
(-6.37353 19.7772 0)
(-4.76937 18.9854 0)
(-3.02866 16.7456 0)
(-1.04733 13.3248 0)
(1.01913 9.19102 0)
(2.71747 4.68883 0)
(4.0128 0.110177 0)
(5.1676 -4.14417 0)
(6.20403 -7.64282 0)
(7.02665 -9.96834 0)
(7.37513 -11.06 0)
(7.22246 -11.0195 0)
(6.704 -10.0221 0)
(5.9752 -8.39921 0)
(5.1294 -6.57453 0)
(4.22636 -4.88255 0)
(3.3177 -3.53201 0)
(2.43961 -2.68884 0)
(1.58249 -2.52349 0)
(0.75148 -3.20831 0)
(0.0256528 -4.9347 0)
(-0.40646 -8.07643 0)
(-0.000775828 -12.9216 0)
(-21.1818 14.1308 0)
(-14.2478 19.9363 0)
(-3.36596 24.1513 0)
(11.1786 23.3965 0)
(24.6496 17.7641 0)
(34.7473 11.7152 0)
(41.6073 3.44385 0)
(40.4101 -4.89426 0)
(32.6258 -14.9649 0)
(25.2077 -24.3694 0)
(11.9368 -30.37 0)
(-3.87337 -26.8504 0)
(-15.3264 -18.6871 0)
(-23.1368 -9.31468 0)
(-27.6282 -1.3816 0)
(-28.7034 3.70023 0)
(-27.215 8.11279 0)
(-23.9618 12.2621 0)
(-18.7757 14.9209 0)
(-12.051 16.2509 0)
(-4.56269 16.2905 0)
(3.12037 14.7464 0)
(10.343 11.8997 0)
(16.4155 8.30194 0)
(20.7567 4.3335 0)
(23.2382 0.85379 0)
(24.0827 -3.07635 0)
(23.3945 -6.62674 0)
(20.9678 -9.0012 0)
(17.4654 -10.1423 0)
(13.4688 -10.2161 0)
(9.39866 -9.42973 0)
(5.55498 -8.02721 0)
(2.15286 -6.33456 0)
(-0.687285 -4.65897 0)
(-2.94498 -3.19775 0)
(-4.68434 -2.08039 0)
(-6.03784 -1.41538 0)
(-7.19014 -1.3488 0)
(-8.36054 -1.99873 0)
(-9.80651 -3.62579 0)
(-11.6533 -6.87437 0)
(-13.2282 -12.9501 0)
(-28.7336 5.27635 0)
(-16.6892 7.75898 0)
(-2.00814 10.6697 0)
(15.1845 11.0944 0)
(32.0584 8.65543 0)
(46.5423 5.66309 0)
(55.2059 1.61048 0)
(56.0649 -1.34909 0)
(49.3319 -6.40659 0)
(34.0298 -9.03297 0)
(14.5295 -11.2461 0)
(-6.07613 -9.39075 0)
(-19.4702 -5.83494 0)
(-31.7503 -2.5263 0)
(-37.565 0.118627 0)
(-38.1744 1.78382 0)
(-36.5974 3.36152 0)
(-28.7198 4.18046 0)
(-21.1097 4.15211 0)
(-11.6707 4.01789 0)
(-0.654069 3.5435 0)
(9.01769 2.83612 0)
(17.4043 2.11477 0)
(24.0088 1.39518 0)
(28.4082 0.656475 0)
(30.3986 -0.23617 0)
(30.122 -1.17863 0)
(27.4128 -1.95825 0)
(22.8073 -2.52273 0)
(16.9648 -2.80634 0)
(10.6389 -2.72873 0)
(4.42692 -2.33053 0)
(-1.17897 -1.75774 0)
(-5.8033 -1.137 0)
(-9.28141 -0.560208 0)
(-11.6882 -0.10001 0)
(-13.2227 0.193455 0)
(-14.1816 0.287682 0)
(-14.7779 0.10179 0)
(-16.1457 -0.401388 0)
(-17.6802 -1.28796 0)
(-21.9709 -3.67762 0)
(-28.0833 -6.57265 0)
(-6.72278 0.992213 0)
(-7.97821 0.729151 0)
(-9.02628 0.6164 0)
(-10.1437 0.61191 0)
(-11.4055 0.60111 0)
(-12.8201 0.567185 0)
(-13.8848 0.69481 0)
(-14.4438 0.536066 0)
(-14.5799 0.359247 0)
(-14.2768 0.126277 0)
(-13.6472 -0.141192 0)
(-12.9477 -0.353964 0)
(-12.378 -0.317912 0)
(-12.0642 -0.162554 0)
(-12.1373 0.0168972 0)
(-12.569 0.18198 0)
(-13.2869 0.335702 0)
(-14.1756 0.462636 0)
(-15.0783 0.496965 0)
(-15.775 0.322589 0)
(-15.8185 -0.0664043 0)
(-15.0071 -0.693117 0)
(-12.9518 -1.47043 0)
(-9.27987 -2.33807 0)
(-3.78861 -3.33416 0)
(3.61944 -4.16616 0)
(12.3944 -4.97629 0)
(22.3348 -5.15488 0)
(32.3159 -4.97032 0)
(41.0923 -3.79166 0)
(45.4932 -1.50017 0)
(46.2804 0.78844 0)
(42.3738 3.20984 0)
(33.9737 5.39046 0)
(22.2346 6.75702 0)
(8.91677 7.0567 0)
(-3.73848 6.66701 0)
(-14.4521 5.45583 0)
(-22.6777 3.48177 0)
(-27.1638 1.37057 0)
(-28.1109 -0.548675 0)
(-25.8777 -2.08852 0)
(-21.329 -3.07794 0)
(-15.0324 -3.66113 0)
(-7.73025 -3.84942 0)
(-1.00509 -3.89945 0)
(5.13662 -3.37017 0)
(10.5753 -2.56225 0)
(14.5457 -1.65246 0)
(16.7374 -0.65594 0)
(16.9985 0.386573 0)
(15.2045 1.46047 0)
(11.3552 2.48373 0)
(5.74964 3.2808 0)
(-1.08931 3.72142 0)
(-8.23729 3.99494 0)
(-15.025 3.73062 0)
(-21.1173 2.91384 0)
(-25.6401 1.75861 0)
(-28.0048 0.492665 0)
(-28.0909 -0.772912 0)
(-25.7887 -1.9452 0)
(-21.2571 -2.96725 0)
(-14.7508 -3.7886 0)
(-7.5071 -4.47649 0)
(0.0507842 -4.26313 0)
(7.67136 -3.72574 0)
(13.9764 -2.85361 0)
(18.4895 -1.77367 0)
(20.8354 -0.599284 0)
(20.8928 0.563634 0)
(18.8396 1.52375 0)
(15.2633 2.11715 0)
(10.9966 2.14933 0)
(6.68145 2.44746 0)
(2.66339 2.07767 0)
(-0.69222 1.49376 0)
(-3.01992 0.898638 0)
(-4.28198 0.360477 0)
(-4.57261 -0.102639 0)
(-4.03596 -0.477709 0)
(-2.8645 -0.73739 0)
(-1.29807 -0.878167 0)
(0.428375 -0.889128 0)
(2.03611 -0.825106 0)
(3.32507 -0.617391 0)
(4.25504 -0.37472 0)
(-9.7961 2.07995 0)
(-10.4868 1.60154 0)
(-11.3468 1.50483 0)