/*--------------------------------*- C++ -*----------------------------------*\
| =========                 |                                                 |
| \\      /  F ield         | OpenFOAM: The Open Source CFD Toolbox           |
|  \\    /   O peration     | Version:  2206                                  |
|   \\  /    A nd           | Website:  www.openfoam.com                      |
|    \\/     M anipulation  |                                                 |
\*---------------------------------------------------------------------------*/
FoamFile
{
    version     2.0;
    format      ascii;
    arch        "LSB;label=32;scalar=64";
    class       volScalarField;
    location    "18.6";
    object      p;
}
// * * * * * * * * * * * * * * * * * * * * * * * * * * * * * * * * * * * * * //

dimensions      [0 2 -2 0 0 0 0];

internalField   nonuniform List<scalar> 
3088
(
-0.949562
-0.965725
-1.02659
-1.04261
-1.01221
-0.968198
-0.91623
-0.867913
-0.824536
-0.783419
-0.745718
-0.71036
-0.677005
-0.645182
-0.614281
-0.584095
-0.554268
-0.525802
-0.500109
-0.490152
-0.770211
-0.718575
-0.738833
-0.792047
-0.856867
-0.919344
-0.966499
-0.989156
-0.985382
-0.958844
-0.916064
-0.860777
-0.796997
-0.728467
-0.657228
-0.587413
-0.519247
-0.453652
-0.391939
-0.335038
-0.283615
-0.237967
-0.19817
-0.164096
-0.135144
-0.110611
-0.0903309
-0.0750723
-0.0661853
-0.0674018
-0.0722441
-0.0746937
-0.0726737
-0.0688963
-0.0633429
-0.0553804
-0.0469067
-0.038968
-0.0324293
-0.0280863
-0.0263096
-0.0272638
-0.030876
-0.0370906
-0.0462753
-0.0584892
-0.0724405
-0.0889745
-0.10986
-0.134979
-0.166391
-0.207342
-0.257444
-0.307086
-0.365203
-0.424061
-0.475503
-0.513853
-0.53393
-0.535349
-0.518035
-0.485365
-0.441417
-0.390529
-0.336787
-0.282829
-0.228596
-0.178573
-0.136366
-0.0992278
-0.0665557
-0.0385466
-0.0149806
0.00454478
0.0204397
0.0329659
0.0423467
0.0486875
0.0519118
0.0520104
0.0489538
0.0424639
0.0323985
0.0194038
0.00406493
-0.0133779
-0.0318737
-0.0501192
-0.0670534
-0.081729
-0.0933682
-0.1014
-0.105435
-0.10543
-0.101461
-0.0938744
-0.0832003
-0.0701096
-0.0553603
-0.0397323
-0.0239687
-0.00872505
0.00546654
0.0182052
0.029205
0.0382738
0.0452895
0.0501816
0.0529059
0.0534102
0.0516333
0.0475834
0.0412448
0.0324984
0.0212794
0.00767541
-0.00811597
-0.0257487
-0.0447106
-0.0643291
-0.083776
-0.102092
-0.118234
-0.794565
-0.748091
-0.773372
-0.819355
-0.86792
-0.911534
-0.93941
-0.945356
-0.93125
-0.899466
-0.854254
-0.799836
-0.738727
-0.675493
-0.611635
-0.547913
-0.485585
-0.425645
-0.369103
-0.316643
-0.268726
-0.225588
-0.187263
-0.153785
-0.124856
-0.0998696
-0.0783645
-0.0601389
-0.0452065
-0.0339519
-0.0288494
-0.0316091
-0.0314955
-0.025821
-0.0208656
-0.0183152
-0.0132524
-0.00799448
-0.00410649
-0.00216535
-0.00236412
-0.00510097
-0.0103418
-0.0180995
-0.0285887
-0.0416957
-0.0564299
-0.0735608
-0.0940963
-0.119101
-0.151152
-0.192811
-0.240796
-0.290975
-0.348803
-0.406257
-0.456208
-0.492658
-0.511463
-0.511386
-0.493399
-0.460856
-0.417812
-0.36851
-0.316278
-0.262058
-0.209373
-0.163064
-0.122188
-0.0858064
-0.0538791
-0.0262908
-0.00284197
0.016785
0.0329553
0.0458649
0.0556821
0.0625355
0.0663537
0.0670626
0.0646582
0.0588725
0.0495132
0.0372079
0.0228313
0.00662799
-0.0107233
-0.0278189
-0.043595
-0.0571995
-0.0679469
-0.0753642
-0.0791407
-0.0792754
-0.0758541
-0.0691951
-0.0597671
-0.0481535
-0.035008
-0.0210037
-0.00678437
0.00707659
0.0201024
0.0319209
0.0422567
0.0509137
0.0577536
0.0626811
0.0656241
0.066513
0.0652958
0.061956
0.0564023
0.0485034
0.0382255
0.0256353
0.0109089
-0.00563548
-0.0235131
-0.0420793
-0.0605407
-0.0779844
-0.0934185
-0.900715
-0.841727
-0.837375
-0.853462
-0.872293
-0.889253
-0.897268
-0.890138
-0.868644
-0.834582
-0.789989
-0.739287
-0.685324
-0.628761
-0.570844
-0.512961
-0.456331
-0.401751
-0.349918
-0.30142
-0.256696
-0.215982
-0.179304
-0.146658
-0.117957
-0.0928166
-0.0709284
-0.0518406
-0.0354596
-0.021188
-0.00864033
0.00150174
0.00570497
0.00743401
0.0137596
0.0178108
0.0177135
0.0202237
0.0224943
0.0226182
0.0208223
0.0166805
0.0103743
0.00170843
-0.00945321
-0.0227823
-0.0375038
-0.0541661
-0.0738839
-0.0984512
-0.130456
-0.169776
-0.214835
-0.26581
-0.321289
-0.375912
-0.423295
-0.456979
-0.47461
-0.473775
-0.456311
-0.425522
-0.385179
-0.338946
-0.288716
-0.236483
-0.188565
-0.145686
-0.106621
-0.0716264
-0.0406744
-0.0136315
0.00961356
0.0293066
0.0457193
0.0589854
0.0692157
0.0765238
0.0808985
0.0822039
0.0803924
0.0752326
0.06651
0.0547822
0.0410773
0.0259136
0.00961582
-0.00656856
-0.0214286
-0.0341791
-0.0442166
-0.0511387
-0.054735
-0.055005
-0.05206
-0.0462025
-0.0378498
-0.0275085
-0.0157418
-0.00312843
0.00977573
0.0224699
0.0345281
0.0456066
0.0554422
0.0638356
0.0706372
0.0757316
0.0790235
0.0804354
0.0799278
0.0774181
0.0727653
0.0658681
0.0566908
0.0452774
0.0317831
0.0164941
-0.000141942
-0.0175172
-0.0348841
-0.0513838
-0.0660768
-0.945085
-0.883909
-0.858845
-0.85381
-0.853857
-0.853523
-0.847642
-0.83233
-0.808032
-0.774418
-0.733498
-0.688329
-0.639523
-0.588227
-0.535842
-0.483464
-0.431946
-0.381995
-0.334252
-0.289236
-0.247336
-0.208805
-0.17376
-0.142184
-0.113902
-0.0887167
-0.0665509
-0.0470154
-0.0293966
-0.0138419
-0.0012405
0.0120379
0.0251259
0.03423
0.0392631
0.0417403
0.0469096
0.0491764
0.0451631
0.044718
0.0431829
0.038127
0.0310064
0.0218547
0.0106602
-0.00215774
-0.0161525
-0.0318585
-0.0505808
-0.0744271
-0.104881
-0.141156
-0.183721
-0.232114
-0.283948
-0.334777
-0.378575
-0.40937
-0.425469
-0.424743
-0.409179
-0.38173
-0.345655
-0.303424
-0.256247
-0.209659
-0.167251
-0.127685
-0.0910513
-0.0577946
-0.0279229
-0.00143553
0.0216199
0.0413946
0.0580695
0.0717085
0.0823627
0.0901105
0.0949955
0.0968928
0.0956618
0.0910761
0.0829537
0.071768
0.0585133
0.0441043
0.0288293
0.0134028
-0.000768374
-0.0128638
-0.0223623
-0.0289155
-0.0324001
-0.0328216
-0.0303074
-0.0251496
-0.017723
-0.00846852
0.00212758
0.0135675
0.0253715
0.0371022
0.0483797
0.0588891
0.0683795
0.076648
0.0835369
0.0889145
0.0926743
0.094749
0.0950541
0.0934491
0.0898032
0.0840224
0.0760549
0.0659256
0.0537666
0.0398313
0.0245202
0.00839473
-0.00784856
-0.0234081
-0.0373942
-0.938432
-0.88409
-0.852396
-0.83671
-0.826656
-0.817521
-0.803345
-0.781816
-0.755745
-0.724041
-0.686721
-0.645256
-0.600835
-0.55446
-0.507017
-0.459323
-0.412134
-0.36613
-0.321894
-0.279899
-0.240505
-0.203942
-0.170345
-0.139794
-0.112151
-0.0871296
-0.0646657
-0.0448527
-0.0269474
-0.0102047
0.00488985
0.0190536
0.0313175
0.044919
0.0562585
0.0604631
0.0645134
0.0680587
0.0690477
0.0668258
0.0622996
0.057375
0.0510576
0.0423296
0.0314458
0.0193346
0.00642216
-0.0079848
-0.0253956
-0.0477787
-0.0753654
-0.10825
-0.14736
-0.191821
-0.2392
-0.285265
-0.324476
-0.352825
-0.367281
-0.367413
-0.354963
-0.332262
-0.301578
-0.264093
-0.223029
-0.183888
-0.146669
-0.110752
-0.0768681
-0.045434
-0.0166182
0.00940385
0.0323908
0.0523415
0.0693653
0.0834487
0.0945782
0.102796
0.108164
0.11064
0.110014
0.105998
0.0984669
0.0878354
0.0749873
0.0610124
0.0465967
0.0319741
0.0183082
0.00667897
-0.00243748
-0.00875714
-0.0121863
-0.0127956
-0.0106928
-0.00616038
0.000461101
0.00878622
0.0183933
0.0288527
0.0397495
0.0507007
0.061368
0.0714629
0.0807453
0.0890127
0.0960979
0.101863
0.106213
0.109041
0.110207
0.109569
0.107005
0.102405
0.0957033
0.0869055
0.0761181
0.0635621
0.0495854
0.0346949
0.0195292
0.0048303
-0.00856593
-0.913035
-0.866813
-0.834128
-0.81265
-0.795926
-0.779651
-0.760998
-0.73868
-0.712681
-0.682341
-0.647743
-0.609799
-0.569357
-0.52711
-0.483752
-0.439996
-0.396511
-0.353887
-0.312651
-0.27326
-0.236049
-0.201247
-0.168979
-0.139301
-0.112185
-0.0874972
-0.0650333
-0.0446628
-0.0262853
-0.00946054
0.00633417
0.0213785
0.0354171
0.0478362
0.0591521
0.0701022
0.0810219
0.0843837
0.0843311
0.0832092
0.0824975
0.0777601
0.0689534
0.0609481
0.0513349
0.0405061
0.0290964
0.0162219
0.000380389
-0.0196235
-0.043796
-0.0730025
-0.107994
-0.147786
-0.189897
-0.2303
-0.264462
-0.289907
-0.303085
-0.304784
-0.296612
-0.27986
-0.255486
-0.224651
-0.192244
-0.160539
-0.128463
-0.0964752
-0.0653837
-0.0356574
-0.00772652
0.0180184
0.0411401
0.0614651
0.0790078
0.0936725
0.10538
0.114139
0.120021
0.123053
0.123042
0.119646
0.11273
0.102685
0.090305
0.0766245
0.0627505
0.0490017
0.0358196
0.0244831
0.0155964
0.00938665
0.00593987
0.00510362
0.00678515
0.010739
0.0166472
0.0241656
0.0329305
0.0425708
0.0527253
0.063057
0.073263
0.0830777
0.09227
0.10064
0.108019
0.114282
0.119297
0.122907
0.124971
0.12535
0.123903
0.120505
0.115075
0.107599
0.0981553
0.0869317
0.0742287
0.0604903
0.046297
0.0323436
0.0194086
-0.87469
-0.838229
-0.808295
-0.784895
-0.765062
-0.746117
-0.726019
-0.703291
-0.677418
-0.648348
-0.616158
-0.581222
-0.544072
-0.505271
-0.465395
-0.425024
-0.384719
-0.345003
-0.306338
-0.269175
-0.233852
-0.200559
-0.16945
-0.1406
-0.113957
-0.0894259
-0.0669786
-0.0464656
-0.0275333
-0.00977626
0.00689047
0.0222733
0.0365129
0.0499488
0.0620282
0.0727819
0.0800175
0.0867968
0.0935592
0.0981172
0.0977288
0.0917131
0.0855948
0.0805355
0.0703967
0.0593244
0.0494565
0.0383432
0.0244096
0.00734783
-0.0131961
-0.0383615
-0.0685814
-0.102862
-0.138777
-0.172671
-0.201946
-0.223359
-0.235298
-0.239482
-0.237091
-0.227378
-0.210698
-0.18898
-0.165815
-0.14114
-0.114384
-0.0863429
-0.057831
-0.0295554
-0.00221827
0.0235583
0.0471232
0.068125
0.0864649
0.101933
0.114384
0.123798
0.130259
0.133857
0.134469
0.13174
0.125495
0.116093
0.10428
0.0909802
0.0773452
0.0642527
0.0517738
0.0406453
0.0318471
0.0256346
0.0220488
0.0209589
0.0221918
0.0255803
0.0308315
0.0376343
0.0456709
0.0546212
0.0641707
0.0740208
0.0838974
0.0935506
0.102754
0.11132
0.119095
0.125917
0.13161
0.136026
0.139016
0.140422
0.140085
0.137867
0.133667
0.127454
0.11928
0.109293
0.0977477
0.085024
0.071636
0.0582367
0.0455287
-0.836263
-0.80654
-0.780229
-0.757428
-0.736859
-0.716821
-0.69586
-0.673058
-0.647988
-0.620483
-0.590501
-0.558219
-0.523994
-0.48825
-0.451434
-0.414015
-0.376467
-0.339257
-0.302805
-0.267532
-0.233796
-0.201789
-0.171639
-0.14343
-0.117176
-0.0928095
-0.0702291
-0.0493368
-0.0299594
-0.0117913
0.00537371
0.0213884
0.0361871
0.0498415
0.0622925
0.0731207
0.080736
0.0868452
0.0919141
0.0952107
0.0968624
0.0978457
0.0963744
0.0909199
0.0825738
0.0738198
0.0649337
0.0547485
0.0428406
0.0289597
0.0123113
-0.00797213
-0.0321499
-0.059461
-0.0875123
-0.113584
-0.13609
-0.152907
-0.163724
-0.17299
-0.179202
-0.177744
-0.170404
-0.159048
-0.144996
-0.127377
-0.105948
-0.0816375
-0.0554198
-0.0282515
-0.00106669
0.0251773
0.0496386
0.0717706
0.091307
0.107902
0.121346
0.131591
0.138734
0.142935
0.144168
0.142124
0.136588
0.127895
0.116749
0.103993
0.0906231
0.0778104
0.06604
0.0552675
0.0464512
0.0401444
0.0363269
0.0348853
0.0356445
0.0384389
0.0430438
0.0491809
0.05657
0.0649306
0.0739843
0.0834647
0.0931193
0.102707
0.112013
0.120874
0.129105
0.136501
0.142899
0.148142
0.152063
0.154488
0.15524
0.154156
0.151114
0.146064
0.139038
0.130143
0.119582
0.107676
0.0948827
0.0818425
0.0690253
-0.799164
-0.774386
-0.751184
-0.729757
-0.709566
-0.689642
-0.669058
-0.647107
-0.623357
-0.597601
-0.56979
-0.540018
-0.508506
-0.475547
-0.441483
-0.40669
-0.371568
-0.336528
-0.30196
-0.268265
-0.235826
-0.20484
-0.175434
-0.147704
-0.121672
-0.0972984
-0.0745182
-0.0532491
-0.0333552
-0.0145864
0.00324756
0.019914
0.0350424
0.0487501
0.0610021
0.071496
0.0796576
0.085937
0.0896894
0.0903845
0.0891206
0.0872424
0.0846315
0.0813438
0.0774943
0.073049
0.0675327
0.0605312
0.0521285
0.0422682
0.0307427
0.0172961
0.00185025
-0.015221
-0.0325967
-0.0497029
-0.0656654
-0.0800061
-0.0934162
-0.109811
-0.12377
-0.131477
-0.13534
-0.1347
-0.130023
-0.119797
-0.103879
-0.0833113
-0.05921
-0.0327334
-0.0051549
0.0221543
0.0481355
0.0720403
0.0933117
0.111465
0.126229
0.137535
0.145501
0.150362
0.1522
0.15077
0.14593
0.137988
0.127556
0.115491
0.102628
0.0899697
0.0785512
0.0684123
0.0595754
0.0530232
0.0489157
0.0470224
0.0472241
0.0493861
0.0533281
0.0588168
0.0656066
0.0734506
0.0821024
0.0913174
0.100853
0.110474
0.119989
0.129212
0.137922
0.145918
0.153032
0.15909
0.163912
0.167308
0.169081
0.169039
0.167044
0.163042
0.157055
0.149136
0.139378
0.128057
0.115643
0.102582
0.0895366
-0.762971
-0.742363
-0.722276
-0.702917
-0.684038
-0.665136
-0.645604
-0.624913
-0.602723
-0.578863
-0.553271
-0.525967
-0.497063
-0.466743
-0.435244
-0.402852
-0.369896
-0.336744
-0.303766
-0.271348
-0.239913
-0.209687
-0.180783
-0.153308
-0.12731
-0.102765
-0.0795956
-0.0577387
-0.0371752
-0.0177948
0.000645122
0.0180118
0.0335958
0.0473828
0.0594356
0.0694887
0.0767942
0.0815679
0.0835481
0.0827509
0.0795837
0.0745866
0.0684113
0.0622428
0.0572142
0.0536827
0.0513222
0.0499161
0.0490765
0.0481546
0.0466273
0.0440176
0.0399675
0.0341824
0.0267695
0.0177268
0.00717278
-0.0072827
-0.0264325
-0.0489029
-0.0723785
-0.0927976
-0.107448
-0.117538
-0.122615
-0.120146
-0.109961
-0.0930513
-0.0706168
-0.0441258
-0.0153578
0.0139202
0.0422733
0.0687197
0.0923688
0.11261
0.129114
0.141783
0.15076
0.156367
0.158808
0.157942
0.153727
0.146434
0.136682
0.125325
0.11315
0.100921
0.0896057
0.0799431
0.0714735
0.06461
0.0600349
0.0575087
0.0570122
0.0584651
0.0616958
0.0665135
0.0727193
0.0800936
0.088412
0.0974411
0.106943
0.116689
0.126489
0.136124
0.145354
0.153982
0.161823
0.168695
0.174409
0.178769
0.181551
0.182505
0.181439
0.178294
0.173121
0.16598
0.156825
0.145828
0.133489
0.120127
0.1064
-0.72901
-0.711768
-0.694468
-0.677275
-0.660083
-0.642642
-0.624583
-0.605528
-0.585218
-0.563503
-0.54029
-0.515538
-0.489267
-0.461557
-0.432543
-0.402418
-0.371439
-0.339934
-0.308269
-0.276842
-0.246121
-0.216372
-0.187706
-0.160249
-0.134055
-0.109101
-0.0853091
-0.0626386
-0.0411583
-0.0209268
-0.00173679
0.0165094
0.0328797
0.046757
0.0583745
0.0672814
0.0732797
0.0757384
0.0746905
0.070376
0.0634024
0.0547282
0.0455226
0.0374076
0.0320711
0.0301455
0.0319273
0.0365766
0.043273
0.0522647
0.0627124
0.0729918
0.081814
0.0878712
0.0897307
0.0866988
0.077967
0.0619037
0.0382529
0.00757996
-0.0268487
-0.0591965
-0.0860814
-0.108837
-0.124696
-0.130543
-0.126133
-0.112391
-0.0907551
-0.0631975
-0.032141
0.000227343
0.0321729
0.0621708
0.0890141
0.111966
0.130651
0.144989
0.155163
0.161567
0.164567
0.164169
0.1604
0.153605
0.144423
0.13365
0.122089
0.110423
0.099404
0.0898096
0.0813069
0.0745694
0.0700533
0.0666912
0.0651718
0.0657833
0.0682567
0.0723557
0.0779526
0.0848807
0.092933
0.101872
0.11145
0.12143
0.131599
0.141706
0.151497
0.16076
0.169303
0.17693
0.183447
0.188654
0.19231
0.194093
0.193806
0.191472
0.18719
0.180899
0.171807
0.160645
0.148052
0.133886
0.119638
-0.696645
-0.682309
-0.667641
-0.652733
-0.637535
-0.621947
-0.605755
-0.588686
-0.570551
-0.551222
-0.530586
-0.508545
-0.485032
-0.460017
-0.433516
-0.405612
-0.376475
-0.346392
-0.315732
-0.284964
-0.254622
-0.22503
-0.196314
-0.168614
-0.141971
-0.116339
-0.0916212
-0.0677746
-0.0449472
-0.0233992
-0.00318006
0.0159267
0.0333217
0.0474884
0.0587477
0.066709
0.0705902
0.0697285
0.0640707
0.0541719
0.0412063
0.0266219
0.0122843
0.00114734
-0.00470973
-0.00372102
0.00459124
0.018649
0.035757
0.0561726
0.0797671
0.103577
0.124936
0.141598
0.151646
0.153845
0.147058
0.129916
0.101396
0.0614353
0.0149359
-0.0298649
-0.0717726
-0.109309
-0.136912
-0.151477
-0.15259
-0.141225
-0.11928
-0.0893935
-0.0545047
-0.017623
0.018957
0.0533498
0.0841184
0.11037
0.131667
0.147937
0.159462
0.166764
0.170317
0.170264
0.166744
0.160249
0.151386
0.140959
0.129791
0.11854
0.107801
0.0981546
0.089799
0.0826713
0.077541
0.0743431
0.071893
0.0711667
0.0729021
0.0762285
0.0811233
0.0876039
0.0954011
0.104277
0.113986
0.124273
0.134895
0.145566
0.156003
0.16597
0.175251
0.183644
0.190989
0.197142
0.20188
0.204616
0.204928
0.202803
0.198493
0.192729
0.183878
0.172181
0.160002
0.145338
0.130269
-0.665899
-0.654226
-0.642089
-0.629483
-0.616401
-0.602855
-0.588723
-0.573833
-0.558075
-0.541349
-0.523521
-0.504428
-0.483899
-0.46177
-0.437905
-0.412241
-0.384841
-0.355936
-0.325922
-0.295409
-0.265031
-0.235211
-0.206147
-0.177982
-0.150698
-0.12416
-0.098215
-0.0728232
-0.048198
-0.0247342
-0.0028623
0.0173917
0.0357956
0.0507966
0.0616538
0.0682158
0.0693145
0.0638419
0.0516869
0.0339471
0.0124541
-0.0104855
-0.0318375
-0.0478217
-0.0549688
-0.0506493
-0.035848
-0.0104684
0.0207346
0.0554249
0.0935094
0.131257
0.165219
0.193159
0.212751
0.22159
0.217611
0.199357
0.165423
0.114955
0.0552533
-0.00501982
-0.0644473
-0.11774
-0.157933
-0.181248
-0.187095
-0.17685
-0.153181
-0.119594
-0.0799456
-0.0375762
0.0045197
0.0439594
0.0790757
0.10891
0.133037
0.15138
0.164316
0.172525
0.176617
0.176812
0.173437
0.167146
0.15847
0.14821
0.137092
0.125722
0.114735
0.104728
0.0961826
0.0890877
0.0833508
0.0791342
0.0762585
0.0750011
0.0757691
0.0781942
0.0823255
0.0884422
0.0961113
0.105074
0.115061
0.125772
0.136895
0.148122
0.159151
0.16975
0.179707
0.188772
0.196779
0.203534
0.209068
0.212381
0.212986
0.211183
0.208895
0.203834
0.193659
0.181015
0.168593
0.155668
0.141119
-0.63639
-0.627191
-0.617469
-0.607114
-0.596179
-0.584717
-0.572674
-0.560018
-0.546739
-0.532772
-0.517966
-0.502095
-0.484874
-0.465966
-0.445022
-0.42176
-0.396091
-0.368195
-0.338546
-0.307916
-0.277104
-0.246668
-0.216982
-0.188207
-0.160191
-0.132615
-0.105187
-0.0778567
-0.0509893
-0.0251929
-0.00102564
0.0213517
0.0412186
0.0574888
0.0687673
0.0740135
0.0714895
0.0592637
0.0376078
0.00884855
-0.0244625
-0.0590804
-0.0903364
-0.113051
-0.122941
-0.113431
-0.0852798
-0.0469934
-0.000250498
0.050796
0.10371
0.156605
0.204898
0.245033
0.274422
0.290438
0.290436
0.271887
0.232076
0.170286
0.0946882
0.0154973
-0.0612064
-0.129932
-0.183033
-0.21464
-0.224085
-0.213588
-0.187207
-0.149151
-0.10394
-0.0557689
-0.00811779
0.0363488
0.0756974
0.109003
0.135891
0.15621
0.170457
0.179458
0.183863
0.184129
0.180863
0.174559
0.165862
0.155565
0.144313
0.132729
0.12146
0.110825
0.101167
0.0928314
0.0858559
0.0803968
0.0766073
0.0746997
0.0747957
0.076824
0.0808199
0.086696
0.0942644
0.103319
0.113623
0.124889
0.136752
0.148786
0.16065
0.172122
0.182905
0.192459
0.200824
0.208171
0.216313
0.221479
0.221109
0.218569
0.215803
0.210384
0.202383
0.192256
0.178286
0.162369
0.144827
-0.607724
-0.600954
-0.593582
-0.585523
-0.576864
-0.567616
-0.557816
-0.54761
-0.537103
-0.526256
-0.51489
-0.502713
-0.489313
-0.474154
-0.456602
-0.436021
-0.412018
-0.384677
-0.354758
-0.323324
-0.29142
-0.259858
-0.229226
-0.199746
-0.17106
-0.142438
-0.113301
-0.0834773
-0.0532606
-0.0236288
0.00411464
0.0289934
0.0499578
0.0670382
0.0796507
0.0850572
0.0794836
0.0592523
0.0247093
-0.0187572
-0.0671446
-0.117115
-0.161926
-0.193697
-0.207428
-0.196044
-0.155576
-0.0967973
-0.0274366
0.0440284
0.113713
0.181559
0.243607
0.295318
0.333347
0.355192
0.358953
0.341962
0.298289
0.225672
0.131758
0.0316171
-0.0617759
-0.143942
-0.207838
-0.245268
-0.256328
-0.244681
-0.214633
-0.171769
-0.121264
-0.0680311
-0.0157104
0.033198
0.0759608
0.112236
0.141167
0.162793
0.177905
0.187328
0.191798
0.191997
0.188733
0.182462
0.173668
0.163069
0.15133
0.139143
0.127033
0.115498
0.10448
0.0947376
0.0862708
0.0792503
0.0739849
0.0707561
0.0697915
0.0712875
0.0752417
0.0813105
0.0893455
0.0990606
0.110209
0.122517
0.135472
0.148386
0.160873
0.172917
0.184301
0.194771
0.204313
0.212846
0.219864
0.224418
0.225773
0.225584
0.223566
0.217169
0.206789
0.194526
0.179789
0.163787
0.146649
-0.579991
-0.575868
-0.571153
-0.565568
-0.559126
-0.552028
-0.544482
-0.536805
-0.529255
-0.521868
-0.514412
-0.506472
-0.497461
-0.486607
-0.472955
-0.455445
-0.433194
-0.405898
-0.374573
-0.341006
-0.306827
-0.273402
-0.24161
-0.211528
-0.182439
-0.153355
-0.123211
-0.0911256
-0.0568699
-0.0222402
0.0102874
0.0400137
0.0635081
0.0823074
0.0962402
0.102375
0.0950504
0.0698117
0.0268026
-0.0306301
-0.0963812
-0.162909
-0.223547
-0.267813
-0.286519
-0.273342
-0.224669
-0.149312
-0.0610094
0.028728
0.115149
0.196304
0.269568
0.330825
0.375928
0.401539
0.406249
0.38857
0.341331
0.260083
0.154509
0.041304
-0.066075
-0.160794
-0.231372
-0.270614
-0.279477
-0.263989
-0.229804
-0.182473
-0.127805
-0.0711416
-0.0157858
0.0353765
0.0805714
0.118558
0.148496
0.170713
0.186061
0.195402
0.199729
0.19988
0.196469
0.190075
0.181115
0.170224
0.158184
0.14561
0.132198
0.11931
0.107042
0.0956079
0.0854122
0.0768364
0.0701712
0.0656731
0.0636229
0.0641922
0.0674248
0.0734037
0.0818404
0.0923215
0.10441
0.117676
0.131631
0.145798
0.159747
0.173054
0.185493
0.197227
0.207363
0.216358
0.223399
0.227267
0.22795
0.226683
0.223197
0.216489
0.206798
0.194644
0.180697
0.165166
0.147818
-0.553055
-0.552334
-0.550963
-0.548094
-0.543744
-0.538452
-0.532779
-0.52725
-0.52226
-0.518033
-0.514428
-0.510918
-0.506696
-0.500629
-0.491146
-0.476609
-0.455965
-0.428773
-0.395694
-0.358929
-0.321088
-0.284696
-0.251478
-0.221343
-0.192428
-0.162947
-0.131216
-0.0964649
-0.0581443
-0.0199468
0.013507
0.0435016
0.0684509
0.0926972
0.115097
0.126064
0.115294
0.0822555
0.0309517
-0.0338598
-0.10781
-0.184128
-0.25308
-0.304004
-0.327757
-0.314474
-0.263393
-0.182039
-0.0847963
0.0148131
0.110535
0.198649
0.2764
0.340665
0.388942
0.41774
0.424323
0.405863
0.356033
0.271909
0.164117
0.04799
-0.0668548
-0.167321
-0.23882
-0.277843
-0.285643
-0.267511
-0.230223
-0.179915
-0.122916
-0.0647472
-0.00879648
0.0426256
0.0886802
0.126931
0.156769
0.178762
0.193789
0.202785
0.206621
0.206288
0.202527
0.196094
0.187209
0.176046
0.163345
0.149937
0.136417
0.123064
0.110205
0.0978482
0.086719
0.077131
0.0694183
0.0638828
0.0609286
0.0609123
0.0638873
0.0697813
0.078263
0.0890119
0.10152
0.115268
0.129673
0.144111
0.158292
0.17186
0.184516
0.196039
0.206175
0.214656
0.221087
0.225035
0.226731
0.226285
0.223044
0.216642
0.207206
0.195162
0.181176
0.16566
0.148897
-0.528236
-0.531731
-0.534161
-0.534131
-0.53188
-0.528315
-0.524323
-0.520775
-0.518044
-0.51613
-0.514905
-0.514204
-0.513711
-0.512318
-0.507523
-0.495775
-0.475221
-0.446801
-0.411955
-0.373088
-0.332535
-0.293658
-0.259227
-0.230287
-0.204225
-0.177918
-0.14726
-0.10885
-0.0645573
-0.0181416
0.0252899
0.0556125
0.07659
0.0935885
0.106573
0.114638
0.106598
0.0793049
0.033118
-0.0281024
-0.0996768
-0.175372
-0.243406
-0.293258
-0.315567
-0.304116
-0.255732
-0.178418
-0.0842352
0.0143491
0.109472
0.196735
0.273035
0.334863
0.379947
0.406468
0.412421
0.395415
0.350131
0.273874
0.174267
0.06163
-0.0526942
-0.150965
-0.220611
-0.259237
-0.265901
-0.248237
-0.212136
-0.163375
-0.107945
-0.0509364
0.00360961
0.0539589
0.0983443
0.134977
0.163523
0.184357
0.198307
0.206532
0.210069
0.209671
0.205962
0.199756
0.191388
0.18079
0.168097
0.153837
0.13962
0.125418
0.111862
0.0993691
0.0882698
0.0787771
0.0711846
0.0658071
0.0629416
0.0628152
0.0655616
0.0711017
0.0792139
0.0895797
0.1017
0.115088
0.129219
0.143562
0.157699
0.171147
0.183719
0.195245
0.205526
0.213961
0.220292
0.224276
0.225814
0.224908
0.221441
0.215283
0.206338
0.194788
0.180943
0.165359
0.148949
-0.507907
-0.516316
-0.521811
-0.522887
-0.520581
-0.516303
-0.511242
-0.507154
-0.505748
-0.506619
-0.507907
-0.509074
-0.510675
-0.51245
-0.512373
-0.505643
-0.486661
-0.455564
-0.416661
-0.374688
-0.332696
-0.293962
-0.259962
-0.230771
-0.205512
-0.179968
-0.149685
-0.112525
-0.0707234
-0.0283003
0.0108195
0.0429266
0.0680638
0.0879675
0.104328
0.107497
0.0977032
0.0728473
0.0327237
-0.020548
-0.0854467
-0.152779
-0.214324
-0.259693
-0.279293
-0.267782
-0.224105
-0.154173
-0.0678618
0.0245547
0.115589
0.198575
0.270759
0.328327
0.369313
0.392359
0.395496
0.377162
0.335214
0.268727
0.180676
0.0781479
-0.0262
-0.118928
-0.184939
-0.222477
-0.234581
-0.219682
-0.187686
-0.142627
-0.0906066
-0.0366228
0.0153658
0.0629758
0.104531
0.139016
0.166058
0.185949
0.199409
0.20732
0.210507
0.210082
0.206326
0.200013
0.19132
0.180735
0.168451
0.154972
0.141065
0.12722
0.113973
0.101682
0.0906646
0.081238
0.0736933
0.0683041
0.0653681
0.0651504
0.0677853
0.0731274
0.0810706
0.0911559
0.102961
0.116025
0.129855
0.143946
0.157858
0.171173
0.18357
0.1948
0.204602
0.212617
0.218574
0.222278
0.223651
0.22266
0.219131
0.212927
0.204148
0.192971
0.17973
0.164884
0.148964
-0.502747
-0.516009
-0.524188
-0.526946
-0.526016
-0.522774
-0.518293
-0.513561
-0.510132
-0.508667
-0.508056
-0.507568
-0.506987
-0.505649
-0.501819
-0.492595
-0.475088
-0.448358
-0.414507
-0.374887
-0.33456
-0.296774
-0.262805
-0.232621
-0.20465
-0.175631
-0.142918
-0.105356
-0.0646203
-0.0241175
0.0127049
0.0425844
0.0656583
0.0826719
0.0923934
0.0933657
0.0839397
0.0616214
0.0261613
-0.0214722
-0.0789082
-0.14014
-0.195601
-0.234973
-0.249174
-0.232404
-0.191724
-0.128139
-0.048931
0.038033
0.124647
0.203533
0.27414
0.326924
0.363045
0.381209
0.380059
0.359011
0.319147
0.25837
0.178404
0.0836621
-0.0106314
-0.0963233
-0.161076
-0.198501
-0.209704
-0.199838
-0.17124
-0.129271
-0.0801558
-0.0289022
0.0209675
0.066642
0.106251
0.139282
0.165234
0.184288
0.197187
0.204864
0.208156
0.207423
0.204052
0.198085
0.18981
0.17959
0.167711
0.154658
0.141095
0.127581
0.114591
0.102527
0.0917323
0.0825102
0.0751692
0.0700081
0.0672701
0.0671348
0.0697408
0.0751299
0.0827933
0.092587
0.104107
0.116886
0.130426
0.144232
0.157859
0.170904
0.183037
0.193994
0.203509
0.211285
0.217068
0.220685
0.221998
0.220796
0.21705
0.210924
0.202308
0.191374
0.178446
0.163958
0.148386
-0.692856
-0.700803
-0.716455
-0.740375
-0.771321
-0.806685
-0.842694
-0.87498
-0.899659
-0.914121
-0.917059
-0.907791
-0.884885
-0.846722
-0.794248
-0.730429
-0.660072
-0.587704
-0.517546
-0.451751
-0.392913
-0.34771
-0.316216
-0.306481
-0.316004
-0.337599
-0.361919
-0.387123
-0.410551
-0.42147
-0.416636
-0.397887
-0.36816
-0.331565
-0.292246
-0.25351
-0.217556
-0.185461
-0.158317
-0.136361
-0.120517
-0.109029
-0.101435
-0.0972759
-0.0968763
-0.0998377
-0.10583
-0.114818
-0.127012
-0.142873
-0.163236
-0.18955
-0.221895
-0.259172
-0.300631
-0.344439
-0.385544
-0.41943
-0.442201
-0.451152
-0.446515
-0.428702
-0.400065
-0.363603
-0.32233
-0.279015
-0.236009
-0.195034
-0.157184
-0.123323
-0.0944382
-0.0691242
-0.047833
-0.0308301
-0.0177862
-0.00837529
-0.00218375
0.000899583
0.000584982
-0.00310379
-0.0104698
-0.0218445
-0.0367936
-0.0556447
-0.0786362
-0.10423
-0.131337
-0.158692
-0.18469
-0.207693
-0.226165
-0.238793
-0.244637
-0.243413
-0.235323
-0.221035
-0.20159
-0.178322
-0.152699
-0.12617
-0.100037
-0.075396
-0.0531488
-0.0338546
-0.0176942
-0.00496772
0.00457396
0.0108921
0.0142254
0.0146401
0.0121892
0.00708482
-0.000705762
-0.0111293
-0.024092
-0.0394315
-0.713986
-0.723334
-0.743549
-0.774694
-0.814637
-0.860162
-0.905142
-0.942955
-0.967943
-0.977314
-0.971399
-0.949981
-0.912676
-0.861313
-0.798127
-0.726747
-0.651261
-0.574429
-0.500188
-0.431129
-0.370457
-0.320452
-0.282689
-0.258785
-0.252783
-0.263853
-0.28311
-0.302196
-0.320919
-0.335646
-0.337989
-0.327939
-0.307954
-0.280994
-0.250452
-0.21925
-0.189533
-0.162778
-0.139989
-0.121556
-0.107681
-0.0986947
-0.0936021
-0.0915459
-0.0928469
-0.0975376
-0.10536
-0.116222
-0.13051
-0.148906
-0.172798
-0.203126
-0.239462
-0.281496
-0.328554
-0.377002
-0.421867
-0.458193
-0.481642
-0.489411
-0.482093
-0.460458
-0.427341
-0.386159
-0.340328
-0.292886
-0.246316
-0.202469
-0.162508
-0.126212
-0.095623
-0.0688976
-0.0466878
-0.0288463
-0.0150419
-0.00483971
0.00214318
0.00592836
0.00636814
0.00350818
-0.00286728
-0.0131587
-0.0270574
-0.044609
-0.0658057
-0.0895729
-0.114707
-0.139951
-0.163845
-0.184919
-0.201822
-0.213421
-0.218904
-0.217999
-0.210888
-0.198149
-0.180695
-0.159706
-0.136484
-0.112333
-0.0884481
-0.0658553
-0.0453589
-0.0274581
-0.0124206
-0.000469572
0.00842183
0.0143347
0.0173692
0.0176751
0.0151239
0.00982367
0.00206472
-0.00830962
-0.0212807
-0.0366889
-0.0542753
-0.0736679
-0.0943361
-0.115571
-0.136513
-0.15617
-0.173452
-0.728289
-0.736255
-0.759611
-0.796801
-0.845453
-0.900257
-0.952534
-0.992913
-1.01497
-1.01732
-0.999573
-0.964222
-0.914162
-0.852415
-0.78176
-0.705907
-0.627741
-0.550337
-0.475479
-0.406379
-0.34622
-0.295119
-0.253876
-0.223019
-0.203894
-0.19953
-0.209594
-0.22525
-0.239967
-0.252751
-0.260194
-0.25737
-0.245216
-0.226501
-0.203869
-0.179847
-0.156453
-0.135144
-0.116947
-0.102418
-0.0917891
-0.0852601
-0.0817241
-0.082108
-0.0858
-0.0922504
-0.101854
-0.114498
-0.13076
-0.151686
-0.178957
-0.213161
-0.251936
-0.299432
-0.351324
-0.403472
-0.451481
-0.489622
-0.513135
-0.51952
-0.509295
-0.483869
-0.446569
-0.401191
-0.351424
-0.300468
-0.250974
-0.204619
-0.162141
-0.125094
-0.0930483
-0.065351
-0.0424561
-0.0239405
-0.00944199
0.00148258
0.00917709
0.0136636
0.0148517
0.012799
0.00735015
-0.00184961
-0.0146614
-0.0308918
-0.0504122
-0.0723922
-0.0955957
-0.118796
-0.140659
-0.159871
-0.175254
-0.18584
-0.190946
-0.19032
-0.184132
-0.172879
-0.157353
-0.138586
-0.117724
-0.0959276
-0.0742793
-0.0537157
-0.0349641
-0.0185014
-0.00461737
0.00649522
0.0148046
0.0203476
0.0231807
0.0233191
0.0207037
0.0154854
0.0078694
-0.00232142
-0.0151433
-0.0304433
-0.0479748
-0.0673635
-0.0880651
-0.109366
-0.130397
-0.150149
-0.167515
-0.736045
-0.737885
-0.761466
-0.804483
-0.861448
-0.923762
-0.980144
-1.0201
-1.03615
-1.02698
-0.997153
-0.950681
-0.891566
-0.823326
-0.749507
-0.67196
-0.593955
-0.518277
-0.446294
-0.380783
-0.322791
-0.272775
-0.230967
-0.197081
-0.171247
-0.154531
-0.149687
-0.1576
-0.169795
-0.179799
-0.187031
-0.189104
-0.183742
-0.171608
-0.155613
-0.137924
-0.120309
-0.104114
-0.0903504
-0.079625
-0.0722313
-0.0681371
-0.0673826
-0.0697832
-0.0751111
-0.0837261
-0.0955022
-0.109826
-0.127736
-0.151112
-0.180679
-0.216677
-0.257813
-0.311177
-0.366269
-0.421463
-0.471809
-0.510935
-0.533766
-0.538657
-0.525562
-0.496775
-0.456012
-0.407334
-0.35465
-0.301191
-0.249403
-0.201135
-0.157016
-0.120081
-0.0870092
-0.0587853
-0.0354453
-0.0164231
-0.00133747
0.010217
0.0185465
0.0237025
0.0256157
0.0243357
0.0197536
0.0115598
-0.000224356
-0.0152087
-0.0331686
-0.0534882
-0.0749064
-0.096224
-0.116218
-0.133713
-0.147686
-0.157321
-0.162055
-0.161663
-0.156313
-0.146429
-0.132699
-0.116017
-0.0973872
-0.0778326
-0.0583213
-0.0396945
-0.0226098
-0.00752252
0.00526955