/*--------------------------------*- C++ -*----------------------------------*\
| =========                 |                                                 |
| \\      /  F ield         | OpenFOAM: The Open Source CFD Toolbox           |
|  \\    /   O peration     | Version:  2206                                  |
|   \\  /    A nd           | Website:  www.openfoam.com                      |
|    \\/     M anipulation  |                                                 |
\*---------------------------------------------------------------------------*/
FoamFile
{
    version     2.0;
    format      ascii;
    arch        "LSB;label=32;scalar=64";
    class       surfaceScalarField;
    location    "18.9";
    object      phi_0;
}
// * * * * * * * * * * * * * * * * * * * * * * * * * * * * * * * * * * * * * //

dimensions      [0 3 -1 0 0 0 0];

oriented        oriented;

internalField   nonuniform List<scalar> 
9440
(
-1.83409e-06
5.24899e-07
-2.41453e-06
5.80433e-07
-3.00787e-06
5.93341e-07
-3.55873e-06
5.50863e-07
-4.00787e-06
4.49141e-07
-4.31532e-06
3.07453e-07
-4.46399e-06
1.48666e-07
-4.46814e-06
4.15321e-09
-4.35252e-06
-1.15625e-07
-4.14762e-06
-2.049e-07
-3.89868e-06
-2.48939e-07
-3.64953e-06
-2.49145e-07
-3.43474e-06
-2.14795e-07
-3.27656e-06
-1.5818e-07
-3.18256e-06
-9.39999e-08
-3.14668e-06
-3.58775e-08
-3.153e-06
6.31846e-09
-3.17828e-06
2.52789e-08
-3.18176e-06
3.48208e-09
-3.1451e-06
-3.66582e-08
-3.05914e-06
-8.59626e-08
-2.90739e-06
-1.51747e-07
-2.68158e-06
-2.25817e-07
-2.383e-06
-2.98574e-07
-2.02462e-06
-3.58379e-07
-1.61778e-06
-4.06839e-07
-1.16885e-06
-4.4893e-07
-6.89343e-07
-4.79511e-07
-1.91829e-07
-4.97514e-07
3.07861e-07
-4.9969e-07
7.97091e-07
-4.89231e-07
1.27325e-06
-4.76159e-07
1.73194e-06
-4.58686e-07
2.16383e-06
-4.31889e-07
2.56227e-06
-3.98446e-07
2.92371e-06
-3.61437e-07
3.24561e-06
-3.21901e-07
3.5251e-06
-2.79495e-07
3.75931e-06
-2.34207e-07
3.94642e-06
-1.8711e-07
4.08587e-06
-1.39452e-07
4.178e-06
-9.21235e-08
4.22496e-06
-4.69665e-08
4.23083e-06
-5.86796e-09
4.20574e-06
2.50922e-08
4.15939e-06
4.63516e-08
4.09906e-06
6.03334e-08
4.03186e-06
6.71939e-08
7.97213e-08
3.95214e-06
-2.06473e-06
9.94889e-07
-2.57444e-06
1.09015e-06
-3.07391e-06
1.09281e-06
-3.51789e-06
9.94849e-07
-3.86528e-06
7.96525e-07
-4.05904e-06
5.01221e-07
-4.04848e-06
1.38104e-07
-3.88914e-06
-1.5519e-07
-3.59651e-06
-4.08256e-07
-3.22017e-06
-5.8124e-07
-2.80725e-06
-6.6186e-07
-2.40093e-06
-6.55458e-07
-2.02818e-06
-5.87553e-07
-1.70606e-06
-4.80294e-07
-1.43824e-06
-3.61824e-07
-1.21591e-06
-2.58201e-07
-1.0261e-06
-1.83497e-07
-8.48588e-07
-1.52233e-07
-6.76976e-07
-1.6813e-07
-4.89096e-07
-2.24539e-07
-2.6374e-07
-3.11318e-07
1.22546e-09
-4.16712e-07
3.0436e-07
-5.28951e-07
6.4632e-07
-6.40535e-07
1.02919e-06
-7.41244e-07
1.44834e-06
-8.25991e-07
1.89436e-06
-8.94949e-07
2.36005e-06
-9.45203e-07
2.83457e-06
-9.72034e-07
3.3101e-06
-9.75222e-07
3.77986e-06
-9.58991e-07
4.23255e-06
-9.28849e-07
4.66228e-06
-8.8842e-07
5.0689e-06
-8.38504e-07
5.45093e-06
-7.80481e-07
5.80608e-06
-7.16583e-07
6.13277e-06
-6.48595e-07
6.43104e-06
-5.77761e-07
6.70175e-06
-5.04921e-07
6.94578e-06
-4.31136e-07
7.16367e-06
-3.5734e-07
7.35546e-06
-2.83918e-07
7.52031e-06
-2.1182e-07
7.65859e-06
-1.44145e-07
7.77232e-06
-8.86337e-08
7.86641e-06
-4.77454e-08
7.94536e-06
-1.86119e-08
8.01416e-06
-1.60249e-09
3.4419e-09
8.09044e-06
-6.92343e-07
1.2574e-06
-9.76277e-07
1.37408e-06
-1.25428e-06
1.37081e-06
-1.47155e-06
1.21212e-06
-1.5676e-06
8.92573e-07
-1.50538e-06
4.39003e-07
-1.31472e-06
-5.25555e-08
-9.73507e-07
-4.96403e-07
-5.34259e-07
-8.47504e-07
-4.15205e-08
-1.07398e-06
4.72597e-07
-1.17598e-06
9.97878e-07
-1.18074e-06
1.51634e-06
-1.10601e-06
2.01176e-06
-9.75712e-07
2.4698e-06
-8.19868e-07
2.88309e-06
-6.7149e-07
3.25617e-06
-5.56582e-07
3.59201e-06
-4.88069e-07
3.8972e-06
-4.73323e-07
4.18292e-06
-5.10256e-07
4.45903e-06
-5.87431e-07
4.73293e-06
-6.90611e-07
5.01164e-06
-8.07655e-07
5.2977e-06
-9.26597e-07
5.59177e-06
-1.03531e-06
5.89336e-06
-1.12758e-06
6.20068e-06
-1.20227e-06
6.51105e-06
-1.25558e-06
6.81947e-06
-1.28045e-06
7.12422e-06
-1.27997e-06
7.42392e-06
-1.2587e-06
7.71512e-06
-1.22004e-06
7.99412e-06
-1.16743e-06
8.25919e-06
-1.10357e-06
8.50969e-06
-1.03097e-06
8.74522e-06
-9.52115e-07
8.96579e-06
-8.6917e-07
9.17215e-06
-7.8412e-07
9.36566e-06
-6.98427e-07
9.54796e-06
-6.13434e-07
9.7212e-06
-5.30585e-07
9.88857e-06
-4.51283e-07
1.00537e-05
-3.76985e-07
1.02195e-05
-3.09892e-07
1.0384e-05
-2.53163e-07
1.05452e-05
-2.08975e-07
1.07049e-05
-1.78312e-07
1.08653e-05
-1.61946e-07
-1.58272e-07
1.1027e-05
2.27931e-06
1.19804e-06
2.33673e-06
1.31666e-06
2.41587e-06
1.29167e-06
2.53613e-06
1.09186e-06
2.70794e-06
7.20762e-07
2.93761e-06
2.09333e-07
3.24844e-06
-3.63383e-07
3.63022e-06
-8.78187e-07
4.04765e-06
-1.26494e-06
4.47197e-06
-1.49829e-06
4.89132e-06
-1.59533e-06
5.30405e-06
-1.59347e-06
5.71631e-06
-1.51827e-06
6.12925e-06
-1.38866e-06
6.54153e-06
-1.23214e-06
6.94553e-06
-1.07549e-06
7.33387e-06
-9.44921e-07
7.70187e-06
-8.56068e-07
8.04425e-06
-8.15708e-07
8.35628e-06
-8.2229e-07
8.63637e-06
-8.67515e-07
8.88687e-06
-9.41112e-07
9.11267e-06
-1.03346e-06
9.31871e-06
-1.13263e-06
9.50873e-06
-1.22534e-06
9.68672e-06
-1.30557e-06
9.8562e-06
-1.37175e-06
1.00172e-05
-1.41662e-06
1.0167e-05
-1.43023e-06
1.03122e-05
-1.42511e-06
1.04552e-05
-1.40172e-06
1.05949e-05
-1.35977e-06
1.07311e-05
-1.30363e-06
1.08637e-05
-1.23618e-06
1.09929e-05
-1.16018e-06
1.11191e-05
-1.07832e-06
1.12429e-05
-9.92905e-07
1.13648e-05
-9.06026e-07
1.14858e-05
-8.19477e-07
1.16073e-05
-7.34856e-07
1.17304e-05
-6.53717e-07
1.18567e-05
-5.7763e-07
1.1988e-05
-5.08241e-07
1.21256e-05
-4.47524e-07
1.22698e-05
-3.97351e-07
1.24203e-05
-3.59441e-07
1.25781e-05
-3.36103e-07
1.27445e-05
-3.28392e-07
-3.34669e-07
1.29209e-05
6.15358e-06
1.09182e-06
6.37085e-06
1.09939e-06
6.67469e-06
9.87834e-07
7.02989e-06
7.36656e-07
7.40069e-06
3.49965e-07
7.78011e-06
-1.70082e-07
8.13396e-06
-7.17238e-07
8.44708e-06
-1.19131e-06
8.72764e-06
-1.5455e-06
8.98626e-06
-1.75691e-06
9.22781e-06
-1.83689e-06
9.46788e-06
-1.83354e-06
9.71719e-06
-1.76758e-06
9.97461e-06
-1.64607e-06
1.02415e-05
-1.49899e-06
1.05153e-05
-1.34931e-06
1.07889e-05
-1.21851e-06
1.10549e-05
-1.12211e-06
1.13052e-05
-1.06596e-06
1.15324e-05
-1.04952e-06
1.17316e-05
-1.06673e-06
1.19009e-05
-1.11043e-06
1.20407e-05
-1.17319e-06
1.21524e-05
-1.24437e-06
1.22403e-05
-1.3132e-06
1.23084e-05
-1.3737e-06
1.23582e-05
-1.4216e-06
1.23938e-05
-1.45214e-06
1.24222e-05
-1.45865e-06
1.24473e-05
-1.45024e-06
1.24717e-05
-1.42615e-06
1.24974e-05
-1.3854e-06
1.25257e-05
-1.33191e-06
1.25578e-05
-1.26835e-06
1.25949e-05
-1.19727e-06
1.26377e-05
-1.12114e-06
1.2687e-05
-1.04217e-06
1.27433e-05
-9.62359e-07
1.28073e-05
-8.83448e-07
1.28795e-05
-8.0703e-07
1.29604e-05
-7.34616e-07
1.30504e-05
-6.67698e-07
1.31501e-05
-6.07849e-07
1.32593e-05
-5.56728e-07
1.33776e-05
-5.15657e-07
1.35048e-05
-4.86636e-07
1.36413e-05
-4.72645e-07
1.3786e-05
-4.73118e-07
-4.86048e-07
1.39374e-05
1.11909e-05
1.06022e-06
1.13232e-05
9.67045e-07
1.15427e-05
7.68331e-07
1.18117e-05
4.67661e-07
1.2083e-05
7.86816e-08
1.23138e-05
-4.00833e-07
1.24657e-05
-8.69158e-07
1.25415e-05
-1.26712e-06
1.2564e-05
-1.568e-06
1.25625e-05
-1.75546e-06
1.25565e-05
-1.83079e-06
1.25583e-05
-1.83539e-06
1.25791e-05
-1.7884e-06
1.26262e-05
-1.69311e-06
1.2702e-05
-1.57486e-06
1.28057e-05
-1.45303e-06
1.29306e-05
-1.34338e-06
1.30671e-05
-1.25855e-06
1.32045e-05
-1.20338e-06
1.33328e-05
-1.17786e-06
1.34446e-05
-1.17856e-06
1.35351e-05
-1.20092e-06
1.36014e-05
-1.23944e-06
1.36424e-05
-1.28535e-06
1.36597e-05
-1.33059e-06
1.3656e-05
-1.36999e-06
1.36347e-05
-1.40026e-06
1.36007e-05
-1.41811e-06
1.35628e-05
-1.42084e-06
1.35226e-05
-1.41001e-06
1.34826e-05
-1.38616e-06
1.34469e-05
-1.34968e-06
1.34176e-05
-1.3026e-06
1.33965e-05
-1.24724e-06
1.33849e-05
-1.18564e-06
1.33836e-05
-1.11986e-06
1.33932e-05
-1.05178e-06
1.34139e-05
-9.83081e-07
1.34459e-05
-9.15434e-07
1.34892e-05
-8.50303e-07
1.35436e-05
-7.89086e-07
1.36092e-05
-7.33218e-07
1.36854e-05
-6.84137e-07
1.3772e-05
-6.43254e-07
1.38688e-05
-6.1253e-07
1.39753e-05
-5.9306e-07
1.40865e-05
-5.8385e-07
1.42002e-05
-5.86874e-07
-6.05758e-07
1.43199e-05
1.43312e-05
9.04922e-07
1.45226e-05
7.75669e-07
1.47249e-05
5.65967e-07
1.49119e-05
2.80687e-07
1.50588e-05
-6.82173e-08
1.51174e-05
-4.59479e-07
1.50825e-05
-8.34171e-07
1.49699e-05
-1.15458e-06
1.48043e-05
-1.4024e-06
1.46195e-05
-1.57061e-06
1.44496e-05
-1.66096e-06
1.43018e-05
-1.68754e-06
1.41781e-05
-1.6647e-06
1.40897e-05
-1.60476e-06
1.40397e-05
-1.52485e-06
1.40258e-05
-1.43908e-06
1.40408e-05
-1.35839e-06
1.4075e-05
-1.29273e-06
1.41195e-05
-1.24786e-06
1.41661e-05
-1.22452e-06
1.42072e-05
-1.21966e-06
1.42353e-05
-1.22903e-06
1.42459e-05
-1.24997e-06
1.42374e-05
-1.27686e-06
1.42112e-05
-1.30446e-06
1.41703e-05
-1.32908e-06
1.41184e-05
-1.34839e-06
1.40595e-05
-1.35915e-06
1.39975e-05
-1.35885e-06
1.39351e-05
-1.34765e-06
1.38753e-05
-1.32632e-06
1.3821e-05
-1.2954e-06
1.37744e-05
-1.25602e-06
1.37371e-05
-1.20988e-06
1.37099e-05
-1.15849e-06
1.36936e-05
-1.10353e-06
1.36885e-05
-1.04668e-06
1.36947e-05
-9.89267e-07
1.37121e-05
-9.32862e-07
1.37408e-05
-8.78948e-07
1.37803e-05
-8.28615e-07
1.38303e-05
-7.83207e-07
1.38902e-05
-7.44032e-07
1.39592e-05
-7.12286e-07
1.4036e-05
-6.89344e-07
1.41195e-05
-6.76562e-07
1.421e-05
-6.74309e-07
1.43062e-05
-6.83131e-07
-7.0493e-07
1.44054e-05
1.55704e-05
7.13558e-07
1.5761e-05
5.85018e-07
1.59253e-05
4.01675e-07
1.6044e-05
1.62045e-07
1.60986e-05
-1.22826e-07
1.60689e-05
-4.29774e-07
1.59642e-05
-7.29469e-07
1.58056e-05
-9.96032e-07
1.56118e-05
-1.20854e-06
1.54024e-05
-1.36123e-06
1.51966e-05
-1.45521e-06
1.50067e-05
-1.49764e-06
1.48421e-05
-1.50003e-06
1.47103e-05
-1.473e-06
1.46135e-05
-1.4281e-06
1.45496e-05
-1.37514e-06
1.45134e-05
-1.32212e-06
1.44974e-05
-1.27673e-06
1.44926e-05
-1.2431e-06
1.4491e-05
-1.22295e-06
1.44869e-05
-1.21558e-06
1.44764e-05
-1.21847e-06
1.44561e-05
-1.22969e-06
1.44251e-05
-1.24584e-06
1.43849e-05
-1.26428e-06
1.43371e-05
-1.28132e-06
1.42816e-05
-1.29284e-06
1.422e-05
-1.29751e-06
1.41561e-05
-1.29501e-06
1.4093e-05
-1.28455e-06
1.40329e-05
-1.26617e-06
1.39778e-05
-1.24029e-06
1.39294e-05
-1.20771e-06
1.38892e-05
-1.16963e-06
1.38579e-05
-1.12724e-06
1.38363e-05
-1.08188e-06
1.38247e-05
-1.0351e-06
1.38234e-05
-9.87922e-07
1.38322e-05
-9.41671e-07
1.38512e-05
-8.97936e-07
1.388e-05
-8.57479e-07
1.39183e-05
-8.21452e-07
1.39653e-05
-7.91063e-07
1.40204e-05
-7.67427e-07
1.40827e-05
-7.51655e-07
1.41509e-05
-7.44734e-07
1.42239e-05
-7.47314e-07
1.4301e-05
-7.60163e-07
-7.84534e-07
1.43806e-05
1.58238e-05
5.49221e-07
1.59826e-05
4.26166e-07
1.61223e-05
2.61961e-07
1.62217e-05
6.27289e-08
1.62584e-05
-1.59613e-07
1.62285e-05
-3.9981e-07
1.61392e-05
-6.40207e-07
1.59982e-05
-8.55026e-07
1.58228e-05
-1.03316e-06
1.56311e-05
-1.16944e-06
1.54384e-05
-1.26253e-06
1.52573e-05
-1.31653e-06
1.50959e-05
-1.33865e-06
1.49595e-05
-1.33661e-06
1.48493e-05
-1.3179e-06
1.47635e-05
-1.2894e-06
1.46996e-05
-1.25815e-06
1.46535e-05
-1.23064e-06
1.46201e-05
-1.2097e-06
1.45937e-05
-1.19657e-06
1.45691e-05
-1.19098e-06
1.45426e-05
-1.19196e-06
1.45112e-05
-1.19828e-06
1.44735e-05
-1.20811e-06
1.44286e-05
-1.21943e-06
1.43772e-05
-1.22996e-06
1.43215e-05
-1.23708e-06
1.42631e-05
-1.23914e-06
1.42037e-05
-1.23555e-06
1.4145e-05
-1.22588e-06
1.40889e-05
-1.21007e-06
1.40371e-05
-1.18848e-06
1.39911e-05
-1.16169e-06
1.3952e-05
-1.1306e-06
1.39209e-05
-1.09612e-06
1.38983e-05
-1.05926e-06
1.38846e-05
-1.02139e-06
1.388e-05
-9.83364e-07
1.38845e-05
-9.46162e-07
1.3898e-05
-9.11386e-07
1.39201e-05
-8.79657e-07
1.39506e-05
-8.51874e-07
1.39886e-05
-8.29137e-07
1.40336e-05
-8.12418e-07
1.40846e-05
-8.02641e-07
1.41405e-05
-8.00663e-07
1.42005e-05
-8.07228e-07
1.42633e-05
-8.23034e-07
-8.48858e-07
1.43277e-05
1.57939e-05
4.17718e-07
1.59158e-05
3.04215e-07
1.60149e-05
1.62864e-07
1.6081e-05
-3.30941e-09
1.61069e-05
-1.85538e-07
1.6084e-05
-3.76865e-07
1.60122e-05
-5.68438e-07
1.59007e-05
-7.4354e-07
1.57604e-05
-8.92863e-07
1.56035e-05
-1.01256e-06
1.54424e-05
-1.10141e-06
1.5287e-05
-1.16113e-06
1.51442e-05
-1.19585e-06
1.50183e-05
-1.21065e-06
1.49111e-05
-1.21077e-06
1.48232e-05
-1.20149e-06
1.47531e-05
-1.188e-06
1.46971e-05
-1.17472e-06
1.46515e-05
-1.16411e-06
1.46122e-05
-1.1572e-06
1.45756e-05
-1.15443e-06
1.45394e-05
-1.15576e-06
1.45015e-05
-1.1604e-06
1.44606e-05
-1.16713e-06
1.44157e-05
-1.17452e-06
1.43667e-05
-1.18099e-06
1.43145e-05
-1.18493e-06
1.42607e-05
-1.18526e-06
1.42065e-05
-1.18137e-06
1.41535e-05
-1.17292e-06
1.41033e-05
-1.15982e-06
1.40571e-05
-1.14229e-06
1.40161e-05
-1.1207e-06
1.39813e-05
-1.09576e-06
1.39533e-05
-1.06818e-06
1.39328e-05
-1.03868e-06
1.39198e-05
-1.00845e-06
1.39148e-05
-9.78307e-07
1.39175e-05
-9.48857e-07
1.39278e-05
-9.21693e-07
1.39455e-05
-8.97406e-07
1.39702e-05
-8.76603e-07
1.40014e-05
-8.60285e-07
1.40383e-05
-8.49307e-07
1.40801e-05
-8.44469e-07
1.4126e-05
-8.4651e-07
1.41748e-05
-8.56083e-07
1.42256e-05
-8.73779e-07
-9.00181e-07
1.42769e-05
1.55569e-05
4.0158e-07
1.56577e-05
3.16905e-07
1.57489e-05
2.1299e-07
1.58219e-05
8.98439e-08
1.58684e-05
-4.97892e-08
1.58834e-05
-2.00557e-07
1.58633e-05
-3.56748e-07
1.5807e-05
-5.12104e-07
1.572e-05
-6.56527e-07
1.56105e-05
-7.83355e-07
1.5487e-05
-8.89109e-07
1.53581e-05
-9.72469e-07
1.52309e-05
-1.034e-06
1.51111e-05
-1.07598e-06
1.50022e-05
-1.10176e-06
1.49064e-05
-1.115e-06
1.48244e-05
-1.11953e-06
1.47554e-05
-1.119e-06
1.46972e-05
-1.11651e-06
1.46472e-05
-1.11409e-06
1.46027e-05
-1.11274e-06
1.45614e-05
-1.11309e-06
1.45212e-05
-1.11555e-06
1.44807e-05
-1.11987e-06
1.44388e-05
-1.12523e-06
1.43949e-05
-1.13065e-06
1.4349e-05
-1.13513e-06
1.43018e-05
-1.1377e-06
1.42541e-05
-1.13752e-06
1.42067e-05
-1.13406e-06
1.41609e-05
-1.12704e-06
1.41175e-05
-1.11641e-06
1.40775e-05
-1.10235e-06
1.40419e-05
-1.0851e-06
1.40114e-05
-1.06524e-06
1.39866e-05
-1.0434e-06
1.39679e-05
-1.02001e-06
1.39556e-05
-9.96135e-07
1.39499e-05
-9.72628e-07
1.39508e-05
-9.49699e-07
1.3958e-05
-9.28871e-07
1.39714e-05
-9.10866e-07
1.39907e-05
-8.95913e-07
1.40154e-05
-8.84942e-07
1.40448e-05
-8.787e-07
1.40782e-05
-8.77869e-07
1.41147e-05
-8.83074e-07
1.41535e-05
-8.9487e-07
1.41935e-05
-9.13747e-07
-9.40135e-07
1.42335e-05
1.54342e-05
3.20525e-07
1.55117e-05
2.3941e-07
1.55801e-05
1.44576e-07
1.56335e-05
3.63957e-08
1.56666e-05
-8.28618e-08
1.56758e-05
-2.09774e-07
1.56591e-05
-3.40062e-07
1.56162e-05
-4.69192e-07
1.55504e-05
-5.90725e-07
1.54669e-05
-6.99861e-07
1.53715e-05
-7.93711e-07
1.52701e-05
-8.71008e-07
1.51679e-05
-9.3182e-07
1.50693e-05
-9.77395e-07
1.49774e-05
-1.00982e-06
1.4894e-05
-1.0316e-06
1.48199e-05
-1.04542e-06
1.47547e-05
-1.05386e-06
1.46974e-05
-1.05921e-06
1.46464e-05
-1.0631e-06
1.46002e-05
-1.06649e-06
1.4557e-05
-1.06998e-06
1.45156e-05
-1.07406e-06
1.44745e-05
-1.07883e-06
1.44332e-05
-1.08389e-06
1.43911e-05
-1.0886e-06
1.43483e-05
-1.0923e-06
1.43049e-05
-1.09433e-06
1.42615e-05
-1.09412e-06
1.42188e-05
-1.0913e-06
1.41774e-05
-1.08571e-06
1.41383e-05
-1.07734e-06
1.41023e-05
-1.06629e-06
1.40699e-05
-1.05276e-06
1.4042e-05
-1.03727e-06
1.40189e-05
-1.0203e-06
1.4001e-05
-1.00212e-06
1.39885e-05
-9.83639e-07
1.39817e-05
-9.65819e-07
1.39804e-05
-9.48442e-07
1.39844e-05
-9.32873e-07
1.39937e-05
-9.20187e-07
1.4008e-05
-9.10158e-07
1.40267e-05
-9.03654e-07
1.40493e-05
-9.01328e-07
1.40752e-05
-9.03746e-07
1.41036e-05
-9.11435e-07
1.41335e-05
-9.24848e-07
1.41642e-05
-9.4437e-07
-9.70308e-07
1.41943e-05
1.53275e-05
2.55698e-07
1.53881e-05
1.78832e-07
1.54405e-05
9.21488e-08
1.54807e-05
-3.82525e-09
1.55053e-05
-1.07442e-07
1.55116e-05
-2.16128e-07
1.54986e-05
-3.26984e-07
1.54658e-05
-4.36477e-07
1.54155e-05
-5.40361e-07
1.53509e-05
-6.35254e-07
1.52761e-05
-7.18899e-07
1.51952e-05
-7.90152e-07
1.51122e-05
-8.48807e-07
1.50303e-05
-8.95504e-07
1.4952e-05
-9.31533e-07
1.4879e-05
-9.58574e-07
1.48121e-05
-9.7848e-07
1.47513e-05
-9.93097e-07
1.46962e-05
-1.00409e-06
1.46458e-05
-1.01277e-06
1.45993e-05
-1.01996e-06
1.45556e-05
-1.02627e-06
1.45137e-05
-1.03214e-06
1.44727e-05
-1.03781e-06
1.4432e-05
-1.04319e-06
1.43913e-05
-1.04788e-06
1.43505e-05
-1.05148e-06
1.43097e-05
-1.05356e-06
1.42694e-05
-1.05379e-06
1.423e-05
-1.05193e-06
1.41921e-05
-1.04787e-06
1.41564e-05
-1.04162e-06
1.41234e-05
-1.03326e-06
1.40937e-05
-1.02301e-06
1.40677e-05
-1.0113e-06
1.40458e-05
-9.98395e-07
1.40284e-05
-9.84695e-07
1.40156e-05
-9.70865e-07
1.40076e-05
-9.57864e-07
1.40044e-05
-9.45187e-07
1.40054e-05
-9.3394e-07
1.4011e-05
-9.2572e-07
1.40207e-05
-9.19878e-07
1.40342e-05
-9.17133e-07
1.40509e-05
-9.18054e-07
1.40703e-05
-9.23091e-07
1.40915e-05
-9.32685e-07
1.41139e-05
-9.47211e-07
1.41365e-05
-9.66965e-07
-9.92163e-07
1.41583e-05
1.52326e-05
2.02422e-07
1.52814e-05
1.30074e-07
1.53228e-05
5.06905e-08
1.53542e-05
-3.51697e-08
1.5373e-05
-1.2625e-07
1.53776e-05
-2.20702e-07
1.53671e-05
-3.16473e-07
1.53414e-05
-4.10831e-07
1.5302e-05
-5.00923e-07
1.5251e-05
-5.84321e-07
1.51914e-05
-6.59279e-07
1.51261e-05
-7.24802e-07
1.50578e-05
-7.80575e-07
1.49892e-05
-8.26889e-07
1.49222e-05
-8.64519e-07
1.48582e-05
-8.94565e-07
1.4798e-05
-9.18295e-07
1.47419e-05
-9.37027e-07
1.46898e-05
-9.51995e-07
1.46413e-05
-9.64216e-07
1.45957e-05
-9.74416e-07
1.45526e-05
-9.8311e-07
1.45112e-05
-9.90708e-07
1.44708e-05
-9.97484e-07
1.44311e-05
-1.0035e-06
1.43918e-05
-1.00859e-06
1.43529e-05
-1.01255e-06
1.43145e-05
-1.01511e-06
1.42768e-05
-1.01609e-06
1.42402e-05
-1.01533e-06
1.42051e-05
-1.01279e-06
1.4172e-05
-1.0085e-06
1.41412e-05
-1.00256e-06
1.41134e-05
-9.95189e-07
1.40888e-05
-9.86672e-07
1.40677e-05
-9.77292e-07
1.40504e-05
-9.67451e-07
1.40373e-05
-9.57676e-07
1.4028e-05
-9.48579e-07
1.40227e-05
-9.39912e-07
1.40213e-05
-9.32537e-07
1.40236e-05
-9.28037e-07
1.40296e-05
-9.25817e-07
1.40386e-05
-9.26131e-07
1.40501e-05
-9.29629e-07
1.40637e-05
-9.36709e-07
1.40788e-05
-9.47737e-07
1.40946e-05
-9.63003e-07
1.41103e-05
-9.82722e-07
-1.00703e-06
1.41252e-05
1.51449e-05
1.57532e-07
1.51852e-05
8.97694e-08
1.5219e-05
1.69547e-08
1.52441e-05
-6.03426e-08
1.52591e-05
-1.41225e-07
1.52628e-05
-2.24386e-07
1.52545e-05
-3.08226e-07
1.52344e-05
-3.90684e-07
1.52033e-05
-4.6978e-07
1.51627e-05
-5.43748e-07
1.51147e-05
-6.11252e-07
1.50613e-05
-6.71461e-07
1.50048e-05
-7.24025e-07
1.49469e-05
-7.69034e-07
1.48893e-05
-8.06937e-07
1.48332e-05
-8.3844e-07
1.47793e-05
-8.64406e-07
1.47281e-05
-8.8577e-07
1.46795e-05
-9.03443e-07
1.46335e-05
-9.18213e-07
1.45898e-05
-9.30681e-07
1.4548e-05
-9.41295e-07
1.45077e-05
-9.50416e-07
1.44685e-05
-9.5832e-07
1.44301e-05
-9.65143e-07
1.43924e-05
-9.70878e-07
1.43553e-05
-9.75432e-07
1.43189e-05
-9.78687e-07
1.42833e-05
-9.80544e-07
1.4249e-05
-9.80944e-07
1.42161e-05
-9.79883e-07
1.4185e-05
-9.77417e-07
1.41561e-05
-9.73664e-07
1.41297e-05
-9.6881e-07
1.41061e-05
-9.63089e-07
1.40856e-05
-9.56783e-07
1.40684e-05
-9.50238e-07
1.40546e-05
-9.43855e-07
1.4044e-05
-9.37971e-07
1.40369e-05
-9.32854e-07
1.40336e-05
-9.29221e-07
1.40333e-05
-9.27788e-07
1.40358e-05
-9.28287e-07
1.40407e-05
-9.30997e-07
1.40476e-05
-9.36548e-07
1.40562e-05
-9.45273e-07
1.40658e-05
-9.57418e-07
1.4076e-05
-9.73186e-07
1.4086e-05
-9.92726e-07
-1.01611e-06
1.40951e-05
1.50639e-05
1.18744e-07
1.50982e-05
5.54876e-08
1.51265e-05
-1.13614e-08
1.51475e-05
-8.13707e-08
1.51601e-05
-1.53845e-07
1.51636e-05
-2.27821e-07
1.51573e-05
-3.01972e-07
1.51415e-05
-3.74831e-07
1.51166e-05
-4.44971e-07
1.5084e-05
-5.11096e-07
1.50449e-05
-5.7218e-07
1.5001e-05
-6.27533e-07
1.49538e-05
-6.76813e-07
1.49047e-05
-7.19997e-07
1.48551e-05
-7.57327e-07
1.48059e-05
-7.89243e-07
1.47579e-05
-8.16328e-07
1.47113e-05
-8.39237e-07
1.46665e-05
-8.58643e-07
1.46235e-05
-8.75152e-07
1.4582e-05
-8.89258e-07
1.45421e-05
-9.01344e-07
1.45034e-05
-9.11728e-07
1.44657e-05
-9.20665e-07
1.44289e-05
-9.28326e-07
1.43928e-05
-9.34784e-07
1.43574e-05
-9.40046e-07
1.43228e-05
-9.44086e-07
1.42892e-05
-9.46883e-07
1.42567e-05
-9.48435e-07
1.42256e-05
-9.48778e-07
1.41961e-05
-9.47986e-07
1.41687e-05
-9.46183e-07
1.41434e-05
-9.43541e-07
1.41206e-05
-9.40269e-07
1.41004e-05
-9.36619e-07
1.4083e-05
-9.32882e-07
1.40686e-05
-9.29375e-07
1.4057e-05
-9.26421e-07
1.40486e-05
-9.24401e-07
1.40431e-05
-9.23782e-07
1.404e-05
-9.24706e-07
1.40391e-05
-9.27386e-07
1.40404e-05
-9.3222e-07
1.40434e-05
-9.39547e-07
1.40477e-05
-9.49621e-07
1.40529e-05
-9.62627e-07
1.40585e-05
-9.78715e-07
1.40637e-05
-9.97984e-07
-1.02046e-06
1.40681e-05
1.49894e-05
8.44186e-08
1.50194e-05
2.55244e-08
1.5044e-05
-3.59395e-08
1.50622e-05
-9.96447e-08
1.50734e-05
-1.65033e-07
1.50769e-05
-2.31308e-07
1.50724e-05
-2.97455e-07
1.506e-05
-3.62423e-07
1.50402e-05
-4.25153e-07
1.50138e-05
-4.84675e-07
1.49818e-05
-5.40192e-07
1.49454e-05
-5.91137e-07
1.49058e-05
-6.37191e-07
1.4864e-05
-6.7827e-07
1.48212e-05
-7.14486e-07
1.47781e-05
-7.46108e-07
1.47352e-05
-7.73518e-07
1.46932e-05
-7.97178e-07
1.46521e-05
-8.17578e-07
1.46122e-05
-8.35187e-07
1.45733e-05
-8.50401e-07
1.45355e-05
-8.63551e-07
1.44987e-05
-8.74912e-07
1.44627e-05
-8.84717e-07
1.44276e-05
-8.93148e-07
1.43931e-05
-9.00322e-07
1.43594e-05
-9.06307e-07
1.43264e-05
-9.11142e-07
1.42944e-05
-9.1486e-07
1.42635e-05
-9.17506e-07
1.42338e-05
-9.19143e-07
1.42057e-05
-9.19865e-07
1.41793e-05
-9.198e-07
1.41549e-05
-9.19105e-07
1.41326e-05
-9.17973e-07
1.41126e-05
-9.16628e-07
1.4095e-05
-9.15317e-07
1.408e-05
-9.14314e-07
1.40675e-05
-9.13908e-07
1.40575e-05
-9.14416e-07
1.40498e-05
-9.1612e-07
1.40442e-05
-9.19135e-07
1.40407e-05
-9.23814e-07
1.40389e-05
-9.30421e-07
1.40385e-05
-9.3919e-07
1.40392e-05
-9.50345e-07
1.40406e-05
-9.64027e-07
1.40423e-05
-9.8033e-07
1.40436e-05
-9.99309e-07
-1.02095e-06
1.40441e-05
1.49215e-05
5.33476e-08
1.49484e-05
-1.37236e-09
1.49704e-05
-5.79481e-08
1.49869e-05
-1.16095e-07
1.49972e-05
-1.75345e-07
1.5001e-05
-2.3506e-07
1.4998e-05
-2.94499e-07
1.49884e-05
-3.52865e-07
1.49727e-05
-4.09359e-07
1.49512e-05
-4.63241e-07
1.49249e-05
-5.13889e-07
1.48946e-05
-5.60833e-07
1.48612e-05
-6.03788e-07
1.48256e-05
-6.42636e-07
1.47885e-05
-6.77411e-07
1.47507e-05
-7.08266e-07
1.47126e-05
-7.35449e-07
1.46747e-05
-7.5928e-07
1.46372e-05
-7.80117e-07
1.46004e-05
-7.98315e-07
1.45642e-05
-8.14199e-07
1.45287e-05
-8.28047e-07
1.44938e-05
-8.40103e-07
1.44597e-05
-8.50578e-07
1.44262e-05
-8.59653e-07
1.43934e-05
-8.67465e-07
1.43612e-05
-8.74119e-07
1.43297e-05
-8.79698e-07
1.42991e-05
-8.84273e-07
1.42695e-05
-8.8792e-07
1.42411e-05
-8.90728e-07
1.42141e-05
-8.92802e-07
1.41885e-05
-8.94271e-07
1.41647e-05
-8.95285e-07
1.41428e-05
-8.96021e-07
1.41228e-05
-8.96672e-07
1.4105e-05
-8.97456e-07
1.40892e-05
-8.98604e-07
1.40757e-05
-9.00355e-07
1.40642e-05
-9.02962e-07
1.40547e-05
-9.06627e-07
1.40471e-05
-9.11486e-07
1.40411e-05
-9.17868e-07
1.40367e-05
-9.25965e-07
1.40335e-05
-9.35961e-07
1.40311e-05
-9.48018e-07
1.40294e-05
-9.62248e-07
1.40277e-05
-9.78713e-07
1.40259e-05
-9.97434e-07
-1.01837e-06
1.40233e-05
1.486e-05
2.46482e-08
1.48847e-05
-2.60865e-08
1.49049e-05
-7.816e-08
1.49201e-05
-1.31317e-07
1.49299e-05
-1.8518e-07
1.49341e-05
-2.39255e-07
1.49326e-05
-2.9297e-07
1.49255e-05
-3.45715e-07
1.4913e-05
-3.96875e-07
1.48956e-05
-4.45876e-07
1.48739e-05
-4.92224e-07
1.48486e-05
-5.35534e-07
1.48204e-05
-5.75549e-07
1.47899e-05
-6.12137e-07
1.47578e-05
-6.45283e-07
1.47246e-05
-6.75061e-07
1.46908e-05
-7.01632e-07
1.46567e-05
-7.25211e-07
1.46226e-05
-7.46058e-07
1.45888e-05
-7.64445e-07
1.45552e-05
-7.80634e-07
1.4522e-05
-7.94863e-07
1.44893e-05
-8.07347e-07
1.4457e-05
-8.1828e-07
1.44251e-05
-8.27836e-07
1.43938e-05
-8.36164e-07
1.43631e-05
-8.43388e-07
1.4333e-05
-8.49616e-07
1.43037e-05
-8.54948e-07
1.42753e-05
-8.59482e-07
1.42479e-05
-8.63324e-07
1.42216e-05
-8.66587e-07
1.41968e-05
-8.69399e-07
1.41734e-05
-8.71906e-07
1.41516e-05
-8.74266e-07
1.41316e-05
-8.76649e-07
1.41134e-05
-8.79242e-07
1.4097e-05
-8.82236e-07
1.40825e-05
-8.85827e-07
1.40698e-05
-8.90224e-07
1.40587e-05
-8.95584e-07
1.40493e-05
-9.02052e-07
1.40413e-05
-9.09898e-07
1.40346e-05
-9.19266e-07
1.4029e-05
-9.30304e-07
1.40241e-05
-9.43131e-07
1.40197e-05
-9.57836e-07
1.40154e-05
-9.74459e-07
1.4011e-05
-9.9299e-07
-1.01337e-06
1.4006e-05
1.48047e-05
-2.28844e-09
1.48278e-05
-4.92152e-08
1.48468e-05
-9.71102e-08
1.48612e-05
-1.45756e-07
1.48709e-05
-1.94846e-07
1.48756e-05
-2.4399e-07
1.48754e-05
-2.92739e-07
1.48703e-05
-3.40617e-07
1.48605e-05
-3.87144e-07
1.48465e-05
-4.31867e-07
1.48287e-05
-4.74389e-07
1.48075e-05
-5.14387e-07
1.47836e-05
-5.51636e-07
1.47575e-05
-5.85995e-07
1.47296e-05
-6.17419e-07
1.47005e-05
-6.4593e-07
1.46705e-05
-6.71622e-07
1.46399e-05
-6.94642e-07
1.4609e-05
-7.15176e-07
1.4578e-05
-7.33434e-07
1.4547e-05
-7.49628e-07
1.45161e-05
-7.63961e-07
1.44854e-05
-7.76628e-07
1.44549e-05
-7.87807e-07
1.44248e-05
-7.97666e-07
1.43949e-05
-8.06359e-07
1.43656e-05
-8.14021e-07
1.43367e-05
-8.20778e-07
1.43085e-05
-8.26747e-07
1.42811e-05
-8.3204e-07
1.42546e-05
-8.36774e-07
1.4229e-05
-8.41068e-07
1.42047e-05
-8.45051e-07
1.41816e-05
-8.48858e-07
1.416e-05
-8.52633e-07
1.41399e-05
-8.56526e-07
1.41213e-05
-8.6069e-07
1.41044e-05
-8.65277e-07
1.4089e-05
-8.70454e-07
1.40752e-05
-8.76398e-07
1.40628e-05
-8.83233e-07
1.40519e-05
-8.91099e-07
1.40422e-05
-9.00201e-07
1.40336e-05
-9.10651e-07
1.40258e-05
-9.22568e-07
1.40187e-05
-9.36053e-07
1.40121e-05
-9.51173e-07
1.40056e-05
-9.67946e-07
1.39989e-05
-9.86345e-07
-1.0063e-06
1.39918e-05
1.47555e-05
-2.79076e-08
1.47775e-05
-7.11994e-08
1.47955e-05
-1.152e-07
1.48095e-05
-1.59729e-07
1.48192e-05
-2.04535e-07
1.48245e-05
-2.49304e-07
1.48255e-05
-2.93679e-07
1.48221e-05
-3.37285e-07
1.48147e-05
-3.79736e-07
1.48035e-05
-4.20673e-07
1.47889e-05
-4.59765e-07
1.47713e-05
-4.9674e-07
1.4751e-05
-5.314e-07
1.47286e-05
-5.63602e-07
1.47045e-05
-5.93277e-07
1.4679e-05
-6.2041e-07
1.46524e-05
-6.45049e-07
1.4625e-05
-6.67289e-07
1.45971e-05
-6.87265e-07
1.45688e-05
-7.05139e-07
1.45403e-05
-7.21087e-07
1.45116e-05
-7.35287e-07
1.44829e-05
-7.47914e-07
1.44542e-05
-7.59136e-07
1.44257e-05
-7.69116e-07
1.43973e-05
-7.7801e-07
1.43693e-05
-7.85963e-07
1.43416e-05
-7.9311e-07
1.43144e-05
-7.99578e-07
1.42879e-05
-8.05491e-07
1.42621e-05
-8.10972e-07
1.42372e-05
-8.16143e-07
1.42132e-05
-8.2113e-07
1.41904e-05
-8.26059e-07
1.41689e-05
-8.31061e-07
1.41486e-05
-8.36266e-07
1.41297e-05
-8.41792e-07
1.41122e-05
-8.47738e-07
1.4096e-05
-8.54256e-07
1.40811e-05
-8.61507e-07
1.40674e-05
-8.69587e-07
1.4055e-05
-8.78624e-07
1.40435e-05
-8.88764e-07
1.4033e-05
-9.00105e-07
1.40232e-05
-9.1274e-07
1.40139e-05
-9.26765e-07
1.40049e-05
-9.42238e-07
1.39961e-05
-9.59145e-07
1.39872e-05
-9.77448e-07
-9.97068e-07
1.3978e-05
1.47126e-05
-5.25347e-08
1.47338e-05
-9.23462e-08
1.47513e-05
-1.32692e-07
1.4765e-05
-1.73428e-07
1.47748e-05
-2.14345e-07
1.47807e-05
-2.55187e-07
1.47827e-05
-2.95665e-07
1.47809e-05
-3.35477e-07
1.47754e-05
-3.74305e-07
1.47666e-05
-4.11863e-07
1.47547e-05
-4.47867e-07
1.47401e-05
-4.8208e-07
1.4723e-05
-5.14334e-07
1.47039e-05
-5.44478e-07
1.4683e-05
-5.72429e-07
1.46607e-05
-5.98138e-07
1.46373e-05
-6.21619e-07
1.46129e-05
-6.42925e-07
1.45878e-05
-6.62156e-07
1.45621e-05
-6.79438e-07
1.4536e-05
-6.94924e-07
1.45095e-05
-7.08779e-07
1.44827e-05
-7.21161e-07
1.44558e-05
-7.32225e-07
1.44288e-05
-7.42131e-07
1.44018e-05
-7.51042e-07
1.4375e-05
-7.5911e-07
1.43484e-05
-7.66476e-07
1.43221e-05
-7.73273e-07
1.42962e-05
-7.79631e-07
1.42709e-05
-7.85678e-07
1.42463e-05
-7.91531e-07
1.42225e-05
-7.9732e-07
1.41996e-05
-8.03161e-07
1.41777e-05
-8.09163e-07
1.41569e-05
-8.15444e-07
1.41372e-05
-8.22085e-07
1.41185e-05
-8.29112e-07
1.4101e-05
-8.36716e-07
1.40845e-05
-8.45038e-07
1.40691e-05
-8.54148e-07
1.40546e-05
-8.6416e-07
1.4041e-05
-8.75156e-07
1.40281e-05
-8.87175e-07
1.40157e-05
-9.00346e-07
1.40037e-05
-9.14794e-07
1.3992e-05
-9.30501e-07
1.39803e-05
-9.4743e-07
1.39684e-05
-9.65565e-07
-9.84837e-07
1.39561e-05
1.46762e-05
-7.64021e-08
1.46967e-05
-1.12878e-07
1.47138e-05
-1.49778e-07
1.47273e-05
-1.86997e-07
1.47373e-05
-2.2435e-07
1.47438e-05
-2.61629e-07
1.47467e-05
-2.986e-07
1.47463e-05
-3.35011e-07
1.47426e-05
-3.70598e-07
1.47358e-05
-4.05127e-07
1.47263e-05
-4.38335e-07
1.47142e-05
-4.70023e-07
1.46999e-05
-5.00043e-07
1.46837e-05
-5.28232e-07
1.46658e-05
-5.54506e-07
1.46464e-05
-5.78779e-07
1.46258e-05
-6.01033e-07
1.46042e-05
-6.21284e-07
1.45816e-05
-6.39605e-07
1.45583e-05
-6.56099e-07
1.45343e-05
-6.70901e-07
1.45097e-05
-6.84175e-07
1.44846e-05
-6.96072e-07
1.44591e-05
-7.06729e-07
1.44333e-05
-7.16305e-07
1.44072e-05
-7.24979e-07
1.4381e-05
-7.32913e-07
1.43548e-05
-7.40248e-07
1.43286e-05
-7.47124e-07
1.43027e-05
-7.53671e-07
1.4277e-05
-7.60027e-07
1.42518e-05
-7.66303e-07
1.42271e-05
-7.72625e-07
1.4203e-05
-7.79122e-07
1.41798e-05
-7.85926e-07
1.41575e-05
-7.93129e-07
1.4136e-05
-8.00556e-07
1.41152e-05
-8.08351e-07
1.40953e-05
-8.16842e-07
1.40763e-05
-8.26053e-07
1.40582e-05
-8.35967e-07
1.40406e-05
-8.46639e-07
1.40236e-05
-8.58168e-07
1.40071e-05
-8.70675e-07
1.3991e-05
-8.84162e-07
1.39748e-05
-8.98599e-07
1.39584e-05
-9.14092e-07
1.39416e-05
-9.30687e-07
1.39244e-05
-9.4833e-07
-9.66945e-07
1.39065e-05
1.46469e-05
-9.96345e-08
1.4667e-05
-1.32906e-07
1.46837e-05
-1.66541e-07
1.46972e-05
-2.00469e-07
1.47074e-05
-2.34515e-07
1.47143e-05
-2.6852e-07
1.47179e-05
-3.02282e-07
1.47185e-05
-3.35583e-07
1.47161e-05
-3.68219e-07
1.4711e-05
-3.99998e-07
1.47033e-05
-4.30629e-07
1.46932e-05
-4.59972e-07
1.46811e-05
-4.87938e-07
1.46671e-05
-5.14247e-07
1.46515e-05
-5.38865e-07
1.46344e-05
-5.61656e-07
1.46159e-05
-5.82569e-07
1.45962e-05
-6.01597e-07
1.45754e-05
-6.18773e-07
1.45535e-05
-6.34209e-07
1.45307e-05
-6.48053e-07
1.45069e-05
-6.60444e-07
1.44824e-05
-6.71525e-07
1.44571e-05
-6.81428e-07
1.44311e-05
-6.90349e-07
1.44046e-05
-6.98493e-07
1.43777e-05
-7.06003e-07
1.43505e-05
-7.13021e-07
1.43231e-05
-7.1969e-07
1.42955e-05
-7.26147e-07
1.4268e-05
-7.32517e-07
1.42407e-05
-7.38932e-07
1.42135e-05
-7.45468e-07
1.41867e-05
-7.52263e-07
1.416e-05