/*--------------------------------*- C++ -*----------------------------------*\
| =========                 |                                                 |
| \\      /  F ield         | OpenFOAM: The Open Source CFD Toolbox           |
|  \\    /   O peration     | Version:  2206                                  |
|   \\  /    A nd           | Website:  www.openfoam.com                      |
|    \\/     M anipulation  |                                                 |
\*---------------------------------------------------------------------------*/
FoamFile
{
    version     2.0;
    format      ascii;
    arch        "LSB;label=32;scalar=64";
    class       volScalarField;
    location    "18.6999";
    object      p;
}
// * * * * * * * * * * * * * * * * * * * * * * * * * * * * * * * * * * * * * //

dimensions      [0 2 -2 0 0 0 0];

internalField   nonuniform List<scalar> 
4853
(
-0.140323
-0.114935
-0.110533
-0.120614
-0.147928
-0.193337
-0.255723
-0.329794
-0.40267
-0.463424
-0.502308
-0.517065
-0.522334
-0.530411
-0.125764
-0.09314
-0.079638
-0.0936781
-0.129151
-0.184463
-0.255561
-0.34102
-0.419677
-0.48253
-0.519521
-0.52357
-0.494737
-0.434784
-0.111182
-0.0772368
-0.0678255
-0.0828507
-0.12173
-0.183885
-0.26305
-0.3513
-0.436517
-0.507706
-0.554831
-0.571703
-0.542249
-0.478373
-0.120462
-0.0815494
-0.0654817
-0.0804834
-0.121769
-0.185767
-0.265122
-0.350887
-0.432076
-0.499071
-0.539971
-0.546838
-0.526759
-0.480919
-0.161123
-0.132963
-0.126527
-0.135301
-0.165875
-0.214518
-0.277558
-0.346672
-0.412252
-0.467311
-0.503857
-0.516749
-0.507781
-0.480244
-0.209588
-0.184993
-0.174787
-0.180505
-0.204053
-0.242264
-0.290117
-0.341496
-0.390573
-0.432542
-0.462672
-0.474931
-0.471505
-0.455631
-0.249384
-0.228936
-0.220694
-0.224189
-0.239894
-0.26639
-0.299068
-0.33311
-0.366484
-0.395068
-0.415302
-0.428786
-0.431395
-0.424946
-0.281236
-0.263797
-0.255372
-0.255771
-0.264789
-0.281266
-0.302769
-0.326663
-0.350641
-0.371982
-0.388619
-0.399747
-0.403266
-0.400268
-0.303006
-0.287666
-0.279299
-0.277768
-0.282656
-0.293062
-0.307436
-0.323816
-0.340308
-0.355145
-0.366989
-0.374978
-0.378552
-0.378598
-0.317443
-0.30398
-0.295948
-0.29311
-0.295016
-0.300983
-0.309975
-0.320688
-0.331841
-0.342268
-0.351019
-0.357447
-0.361025
-0.36206
-0.325754
-0.313818
-0.306124
-0.302435
-0.302347
-0.305374
-0.310817
-0.31778
-0.325328
-0.332598
-0.338871
-0.34364
-0.346595
-0.347856
-0.329503
-0.318932
-0.311707
-0.307639
-0.306327
-0.307396
-0.310372
-0.314629
-0.319495
-0.324358
-0.32871
-0.332183
-0.334572
-0.33586
-0.329641
-0.320355
-0.313626
-0.309423
-0.307352
-0.307117
-0.308411
-0.3108
-0.313804
-0.31698
-0.319952
-0.322434
-0.324248
-0.325344
-0.326811
-0.318775
-0.312734
-0.308625
-0.306152
-0.305127
-0.305332
-0.306457
-0.308157
-0.310109
-0.312035
-0.313718
-0.315014
-0.315862
-0.32184
-0.315007
-0.309706
-0.305808
-0.303178
-0.301701
-0.301211
-0.301486
-0.302284
-0.303373
-0.304544
-0.305631
-0.306516
-0.307133
-0.315383
-0.309653
-0.305018
-0.301422
-0.298818
-0.297129
-0.296233
-0.295972
-0.296177
-0.296676
-0.297314
-0.297961
-0.298521
-0.298933
-0.307871
-0.303078
-0.299069
-0.295842
-0.293383
-0.291645
-0.290542
-0.289966
-0.289794
-0.289903
-0.290175
-0.29051
-0.290831
-0.291082
-0.299578
-0.295597
-0.29218
-0.289345
-0.287103
-0.285427
-0.28426
-0.283528
-0.283144
-0.283016
-0.283057
-0.283187
-0.283344
-0.283481
-0.290748
-0.287475
-0.284603
-0.282164
-0.280178
-0.278637
-0.277505
-0.276731
-0.276252
-0.276002
-0.275912
-0.275921
-0.275978
-0.276042
-0.28156
-0.278901
-0.276523
-0.274465
-0.272753
-0.271392
-0.270361
-0.269626
-0.269142
-0.268857
-0.268718
-0.268674
-0.268684
-0.268713
-0.272169
-0.270035
-0.268094
-0.266388
-0.264951
-0.263794
-0.262909
-0.262272
-0.261849
-0.261598
-0.261473
-0.261432
-0.261438
-0.261463
-0.26267
-0.260975
-0.25941
-0.258022
-0.256848
-0.255907
-0.255199
-0.254704
-0.254396
-0.254234
-0.254178
-0.254188
-0.254228
-0.254272
-0.253154
-0.25181
-0.250554
-0.249439
-0.248508
-0.247786
-0.247275
-0.246962
-0.246814
-0.246791
-0.24685
-0.246951
-0.247056
-0.247139
-0.243668
-0.242589
-0.241573
-0.240684
-0.239972
-0.239465
-0.239173
-0.239078
-0.239144
-0.239319
-0.239544
-0.239773
-0.239969
-0.2401
-0.23424
-0.233323
-0.232464
-0.231742
-0.231215
-0.230918
-0.23086
-0.231024
-0.231356
-0.231791
-0.232246
-0.232655
-0.232974
-0.233172
-0.224916
-0.224059
-0.223268
-0.22265
-0.22227
-0.222195
-0.222439
-0.222934
-0.223597
-0.224342
-0.22508
-0.225722
-0.226214
-0.226504
-0.215643
-0.214731
-0.213881
-0.213284
-0.212966
-0.213074
-0.213688
-0.214664
-0.215859
-0.217119
-0.218289
-0.219251
-0.219938
-0.220324
-0.207199
-0.206153
-0.20523
-0.20459
-0.204373
-0.2047
-0.205615
-0.207049
-0.208868
-0.210869
-0.212764
-0.214308
-0.215401
-0.21607
-0.199694
-0.198452
-0.197402
-0.196677
-0.196518
-0.197085
-0.198478
-0.200666
-0.203379
-0.206243
-0.208828
-0.210832
-0.212209
-0.213006
-0.197678
-0.196436
-0.195372
-0.194672
-0.194554
-0.195251
-0.196946
-0.199818
-0.203577
-0.207284
-0.210251
-0.212447
-0.214014
-0.215016
-0.445865
-0.390373
-0.365872
-0.348181
-0.333732
-0.32246
-0.315544
-0.315516
-0.32487
-0.345539
-0.378654
-0.42377
-0.479022
-0.540672
-0.605485
-0.665206
-0.711851
-0.737621
-0.739253
-0.71788
-0.678263
-0.626322
-0.567572
-0.506611
-0.447091
-0.391848
-0.342213
-0.299383
-0.261836
-0.229422
-0.20196
-0.178817
-0.159518
-0.143617
-0.130676
-0.120311
-0.11219
-0.106022
-0.101556
-0.0985715
-0.0968967
-0.0964081
-0.096936
-0.0983099
-0.100422
-0.103149
-0.10635
-0.109893
-0.113744
-0.118078
-0.123231
-0.129731
-0.138511
-0.148083
-0.156278
-0.162875
-0.166688
-0.168333
-0.167184
-0.162018
-0.154444
-0.145048
-0.134454
-0.123313
-0.112123
-0.101269
-0.0910347
-0.0816005
-0.0730685
-0.0654836
-0.0588525
-0.0531562
-0.0483586
-0.0444186
-0.0413039
-0.0389982
-0.0374953
-0.0368233
-0.0371053
-0.0383842
-0.0404769
-0.0435216
-0.0476954
-0.053118
-0.0599672
-0.0684913
-0.0790081
-0.091724
-0.107002
-0.125194
-0.146453
-0.171422
-0.197508
-0.226293
-0.256061
-0.284926
-0.311461
-0.334127
-0.351449
-0.362277
-0.366055
-0.362841
-0.35311
-0.337753
-0.317861
-0.294626
-0.269313
-0.243025
-0.216717
-0.191207
-0.166974
-0.143764
-0.122502
-0.104575
-0.0881536
-0.0735667
-0.060899
-0.0499334
-0.0405026
-0.0324456
-0.0256176
-0.0198994
-0.0151862
-0.0113858
-0.00843319
-0.0063169
-0.00499713
-0.390246
-0.368225
-0.349001
-0.332861
-0.321245
-0.313128
-0.30923
-0.312385
-0.324671
-0.347365
-0.381888
-0.426512
-0.478831
-0.535322
-0.589118
-0.635268
-0.66739
-0.681785
-0.676973
-0.654377
-0.617848
-0.571961
-0.520504
-0.467729
-0.417598
-0.3709
-0.327887
-0.289535
-0.2558
-0.226251
-0.200674
-0.178756
-0.160147
-0.144494
-0.131461
-0.120746
-0.112067
-0.105178
-0.0998582
-0.0959122
-0.0931745
-0.0915245
-0.0908153
-0.0908872
-0.0916224
-0.0929088
-0.0946399
-0.0966593
-0.0988345
-0.101116
-0.103618
-0.106601
-0.110426
-0.116261
-0.122938
-0.12768
-0.131167
-0.133037
-0.132863
-0.130337
-0.125127
-0.118295
-0.11025
-0.101453
-0.0924089
-0.0835002
-0.0749937
-0.0670758
-0.0598623
-0.0534139
-0.0477541
-0.0428836
-0.03879
-0.0354563
-0.0328721
-0.0310376
-0.0299617
-0.0296807
-0.0302887
-0.031803
-0.0341451
-0.0374247
-0.0418196
-0.0474603
-0.0545277
-0.0632817
-0.074017
-0.086859
-0.102445
-0.121009
-0.143187
-0.16904
-0.194659
-0.22362
-0.253905
-0.283188
-0.31016
-0.333227
-0.350832
-0.361767
-0.365538
-0.362134
-0.352057
-0.336271
-0.315905
-0.292188
-0.266428
-0.23972
-0.213061
-0.187272
-0.162515
-0.138691
-0.117396
-0.0991877
-0.0827403
-0.0681964
-0.0555338
-0.0445566
-0.0351122
-0.0270216
-0.0201501
-0.0143787
-0.00960256
-0.0057312
-0.0026927
-0.000461369
0.000990531
-0.406925
-0.369928
-0.355132
-0.343343
-0.332795
-0.325952
-0.324639
-0.330344
-0.344226
-0.367042
-0.397761
-0.436002
-0.478703
-0.521699
-0.560712
-0.592461
-0.61232
-0.617704
-0.609094
-0.587133
-0.554683
-0.515732
-0.473627
-0.431003
-0.389201
-0.349274
-0.312223
-0.278562
-0.24833
-0.221458
-0.197832
-0.177251
-0.159469
-0.144231
-0.131288
-0.120402
-0.111349
-0.103922
-0.0979306
-0.0932047
-0.0895924
-0.0869768
-0.0852311
-0.0842086
-0.0837923
-0.0838809
-0.0843608
-0.0851349
-0.0860606
-0.0869847
-0.0878606
-0.0887288
-0.0897486
-0.0912121
-0.0942256
-0.0983269
-0.100802
-0.102289
-0.102248
-0.100816
-0.0981313
-0.0934367
-0.0875284
-0.0808006
-0.0736028
-0.0663551
-0.0593404
-0.0527328
-0.0466528
-0.0411794
-0.0363557
-0.0321988
-0.0287124
-0.0258971
-0.0237583
-0.0223081
-0.0215639
-0.0215655
-0.022398
-0.024104
-0.0266275
-0.0300451
-0.0345446
-0.0402693
-0.0474028
-0.0562102
-0.0669408
-0.07984
-0.0953849
-0.113817
-0.13607
-0.161114
-0.187535
-0.216442
-0.246373
-0.275548
-0.302499
-0.325567
-0.343182
-0.354103
-0.357876
-0.354457
-0.344375
-0.328584
-0.308227
-0.284562
-0.25885
-0.23223
-0.205673
-0.179777
-0.154462
-0.130865
-0.11024
-0.0920279
-0.0757524
-0.0614043
-0.0488974
-0.038049
-0.0286931
-0.0206667
-0.0138387
-0.00809136
-0.00332265
0.00055541
0.00361805
0.00590702
0.00744083
-0.433228
-0.403377
-0.385894
-0.371379
-0.359062
-0.351415
-0.349759
-0.354547
-0.366108
-0.384432
-0.408793
-0.438012
-0.469038
-0.498324
-0.523694
-0.543096
-0.553538
-0.553338
-0.544774
-0.52613
-0.498049
-0.466553
-0.432748
-0.397409
-0.362247
-0.328458
-0.296575
-0.267034
-0.24007
-0.215746
-0.194019
-0.174782
-0.157889
-0.143169
-0.130443
-0.119528
-0.110248
-0.102435
-0.0959311
-0.0905882
-0.0862687
-0.0828618
-0.0802649
-0.0783431
-0.0769771
-0.0760692
-0.075524
-0.075241
-0.0751272
-0.0750854
-0.0749391
-0.0746199
-0.0741371
-0.0735866
-0.0731936
-0.0735555
-0.0752334
-0.0764069
-0.0766154
-0.0748096
-0.072826
-0.0708686
-0.0668401
-0.0616656
-0.0560981
-0.0502834
-0.0444841
-0.0389523
-0.0338152
-0.0291404
-0.0249828
-0.0213822
-0.0183633
-0.0159416
-0.0141328
-0.0129573
-0.0124416
-0.0126296
-0.0135983
-0.0154066
-0.0180066
-0.0214584
-0.0259433
-0.031622
-0.0386774
-0.0473664
-0.0579089
-0.0705816
-0.0857583
-0.103992
-0.125743
-0.149931
-0.176165
-0.204437
-0.23364
-0.262239
-0.288683
-0.311356
-0.328734
-0.339565
-0.343396
-0.340175
-0.330419
-0.31505
-0.295186
-0.272058
-0.246901
-0.22083
-0.194719
-0.168926
-0.143817
-0.121133
-0.101174
-0.0832861
-0.0673702
-0.0533749
-0.0411596
-0.0305579
-0.0213896
-0.0135157
-0.00681003
-0.00115854
0.00353721
0.00736171
0.0103894
0.012676
0.0142399
-0.448217
-0.422238
-0.402973
-0.388005
-0.376523
-0.369318
-0.367141
-0.370184
-0.378385
-0.39128
-0.408122
-0.42789
-0.448087
-0.466679
-0.483192
-0.495486
-0.502461
-0.500496
-0.489212
-0.472685
-0.450925
-0.42522
-0.397041
-0.367688
-0.338236
-0.309405
-0.281776
-0.25579
-0.231713
-0.209668
-0.189686
-0.171736
-0.15574
-0.141591
-0.129164
-0.118326
-0.10894
-0.100872
-0.0939905
-0.0881722
-0.0832961
-0.0792539
-0.0759579
-0.0732991
-0.0711603
-0.0694467
-0.0680681
-0.0669351
-0.0659626
-0.065061
-0.0641664
-0.0631419
-0.0618612
-0.0603437
-0.0586457
-0.0568705
-0.0551802
-0.0547595
-0.0550244
-0.0541465
-0.0512644
-0.0494458
-0.0482222
-0.0445798
-0.0400246
-0.0354804
-0.0308002
-0.0261226
-0.0216578
-0.0175662
-0.0139085
-0.0107103
-0.00800319
-0.00582084
-0.00419732
-0.00316451
-0.00275501
-0.00301263
-0.0040075
-0.00580597
-0.00838144
-0.0117675
-0.0161195
-0.0216233
-0.0284562
-0.0368587
-0.04705
-0.0592923
-0.0740208
-0.0918383
-0.112571
-0.135644
-0.160973
-0.188163
-0.216223
-0.243793
-0.269366
-0.291375
-0.308328
-0.319004
-0.322975
-0.320148
-0.311025
-0.296456
-0.277499
-0.255338
-0.231152
-0.205988
-0.180568
-0.155259
-0.131181
-0.10965
-0.0904399
-0.0731596
-0.0578068
-0.0443119
-0.0325182
-0.0222491
-0.0133574
-0.00571437
0.000799598
0.00629156
0.0108551
0.0145712
0.0175109
0.0197345
0.021274
-0.434558
-0.415359
-0.40005
-0.388211
-0.379307
-0.37356
-0.371452
-0.373179
-0.378687
-0.387479
-0.398863
-0.412058
-0.425645
-0.438978
-0.450701
-0.457191
-0.457914
-0.453654
-0.444171
-0.430208
-0.412016
-0.390448
-0.366884
-0.342248
-0.31716
-0.292281
-0.268154
-0.245167
-0.223579
-0.203547
-0.185149
-0.168404
-0.153281
-0.139723
-0.127648
-0.116961
-0.107561
-0.0993398
-0.0921933
-0.0860176
-0.0807104
-0.0761714
-0.0723153
-0.0690598
-0.0663008
-0.0639429
-0.0619042
-0.060103
-0.0584579
-0.0568894
-0.0553136
-0.053661
-0.0518797
-0.0498554
-0.0475366
-0.0449806
-0.0422659
-0.0396166
-0.0376539
-0.0367139
-0.0350153
-0.0329943
-0.0306325
-0.028312
-0.0259203
-0.0222165
-0.018114
-0.0143564
-0.0105379
-0.00682484
-0.00339612
-0.000381863
0.00217313
0.00425109
0.00582404
0.00685621
0.00730334
0.00711432
0.00622148
0.00455501
0.00211481
-0.00109576
-0.00520205
-0.0104085
-0.0168889
-0.0248649
-0.0345732
-0.0462454
-0.0603657
-0.077253
-0.0966674
-0.118487
-0.142573
-0.168391
-0.195026
-0.221254
-0.245666
-0.266787
-0.283187
-0.293674
-0.297863
-0.295607
-0.287356
-0.273872
-0.256135
-0.23526
-0.212351
-0.188346
-0.163863
-0.139606
-0.117024
-0.0967598
-0.0784571
-0.0619799
-0.0473521
-0.0344663
-0.0231675
-0.0133079
-0.00476213
0.00258885
0.00885475
0.0141342
0.0185147
0.0220729
0.0248762
0.0269844
0.0284433
-0.414036
-0.402321
-0.391723
-0.383095
-0.376536
-0.372209
-0.370277
-0.371022
-0.374478
-0.380468
-0.388543
-0.397751
-0.406625
-0.414049
-0.41944
-0.422054
-0.421286
-0.416798
-0.408168
-0.395645
-0.379897
-0.361638
-0.341629
-0.320511
-0.29884
-0.277149
-0.255889
-0.235399
-0.215931
-0.197652
-0.180666
-0.165021
-0.150724
-0.13775
-0.126052
-0.115566
-0.106217
-0.097924
-0.0906029
-0.0841678
-0.0785335
-0.0736137
-0.0693239
-0.0655919
-0.0623396
-0.0594759
-0.0569187
-0.0545945
-0.052431
-0.0503565
-0.0482992
-0.0461908
-0.0439583
-0.0415421
-0.0388971
-0.0359892
-0.0328578
-0.0296256
-0.0263537
-0.0233463
-0.0214817
-0.0202473
-0.0181934
-0.0143681
-0.0118152
-0.010485
-0.00744979
-0.00377719
-0.00010448
0.00310351
0.00625128
0.00921082
0.0118668
0.01408
0.0157837
0.0169539
0.0175593
0.0175592
0.0168936
0.0154916
0.0133236
0.0104169
0.00666637
0.00187371
-0.00413827
-0.0115689
-0.0206477
-0.0316337
-0.0448916
-0.0605632
-0.0786631
-0.0991524
-0.121778
-0.146022
-0.171058
-0.195781
-0.218889
-0.239007
-0.254796
-0.265122
-0.269584
-0.268015
-0.260779
-0.248547
-0.232213
-0.212811
-0.191349
-0.168648
-0.145407
-0.122707
-0.10181
-0.0828767
-0.0656219
-0.0500913
-0.0362793
-0.0240641
-0.0133133
-0.00391726
0.00423488
0.0112495
0.0172247
0.0222497
0.0264052
0.0297628
0.0323864
0.0343336
0.0356556
-0.394798
-0.388229
-0.380722
-0.37406
-0.369256
-0.366025
-0.364502
-0.364945
-0.367199
-0.371071
-0.376321
-0.381564
-0.38631
-0.390653
-0.393653
-0.394413
-0.39227
-0.386969
-0.378575
-0.367344
-0.353626
-0.337828
-0.320453
-0.302037
-0.283059
-0.263924
-0.245
-0.226586
-0.208913
-0.192151
-0.17641
-0.161759
-0.148227
-0.135815
-0.1245
-0.114242
-0.104991
-0.0966854
-0.0892599
-0.082645
-0.0767694
-0.0715608
-0.0669452
-0.0628493
-0.0592078
-0.055951
-0.0530009
-0.050283
-0.0477288
-0.0452723
-0.0428489
-0.0403991
-0.0378673
-0.0352023
-0.0323621
-0.0293186
-0.0260643
-0.0226689
-0.0191636
-0.0154622
-0.0118371
-0.00901415
-0.00716565
-0.00492894
-0.00255844
0.00120861
0.00379503
0.00512886
0.00832136
0.0120177
0.0154958
0.0183048
0.0209407
0.0232943
0.0253018
0.0268534
0.0278402
0.0282086
0.0279083
0.0268879
0.0251232
0.0226291
0.0193304
0.0150596
0.00962563
0.00284215
-0.00551064
-0.0156803
-0.0279267
-0.0424247
-0.0592402
-0.0783167
-0.0994143
-0.122046
-0.145461
-0.168658
-0.19045
-0.209549
-0.224686
-0.234969
-0.23973
-0.238875
-0.232689
-0.221748
-0.206867
-0.188993
-0.169017
-0.147729
-0.126056
-0.105246
-0.0860643
-0.0684484
-0.0523401
-0.037825
-0.0248537
-0.0133247
-0.00315396
0.00575059
0.0134833
0.0201347
0.0257907
0.030531
0.0344286
0.0375501
0.0399559
0.0417011
0.0428373
-0.376149
-0.372195
-0.367708
-0.363604
-0.360395
-0.358132
-0.357039
-0.357211
-0.358549
-0.360887
-0.363918
-0.367062
-0.369829
-0.371834
-0.37251
-0.371358
-0.36806
-0.362459
-0.354512
-0.344293
-0.332025
-0.318031
-0.302697
-0.286415
-0.269557
-0.252473
-0.235466
-0.218784
-0.202632
-0.187172
-0.172521
-0.158755
-0.145918
-0.13403
-0.123087
-0.113069
-0.103943
-0.0956661
-0.0881885
-0.0814553
-0.075408
-0.0699855
-0.0651255
-0.0607636
-0.0568342
-0.0532762
-0.0500288
-0.0470265
-0.0442002
-0.0414871
-0.0388281
-0.0361649
-0.0334433
-0.0306163
-0.0276462
-0.0245085
-0.0211915
-0.0177138
-0.0142135
-0.0106598
-0.00696374
-0.00293559
0.00105602
0.00388632
0.00590157
0.00846371
0.0110858
0.0146668
0.0175193
0.0195935
0.0226766
0.0262542
0.0297512
0.0323721
0.0345699
0.0364084
0.0377979
0.0387009
0.0389845
0.0385583
0.0373902
0.0354567
0.0327145
0.0290395
0.0242599
0.018187
0.0106125
0.00130528
-0.00995969
-0.023348
-0.0389252
-0.05664
-0.0762851
-0.0974163
-0.119336
-0.141131
-0.161716
-0.179881
-0.194398
-0.204662
-0.209742
-0.209565
-0.204361
-0.194639
-0.181147
-0.164729
-0.146206
-0.126468
-0.106653
-0.087809
-0.0702397
-0.05393
-0.0389959
-0.0254708
-0.0133053
-0.00245654
0.00713642
0.0155477
0.0228533
0.0291299
0.0344509
0.0388861
0.0425013
0.0453579
0.0475129
0.0490195
0.0499285
-0.361237
-0.359165
-0.356489
-0.353802
-0.351541
-0.349868
-0.348909
-0.348759
-0.349345
-0.3505
-0.351983
-0.353449
-0.354518
-0.354857
-0.354122
-0.351961
-0.348097
-0.342366
-0.334726
-0.325251
-0.314113
-0.301548
-0.28783
-0.273255
-0.25812
-0.242698
-0.227255
-0.212013
-0.197146
-0.182801
-0.169092
-0.156103
-0.143889
-0.132479
-0.121885
-0.112103
-0.103115
-0.0948918
-0.0873983
-0.0805921
-0.0744265
-0.0688509
-0.0638118
-0.0592545
-0.0551228
-0.0513573
-0.0478987
-0.0446949
-0.0416908
-0.0388205
-0.036024
-0.0332491
-0.0304461
-0.0275711
-0.0245899
-0.0214789
-0.0182189
-0.014783
-0.0111557
-0.0074956
-0.00387746
-0.000169274
0.00377525
0.00812394
0.0123965
0.0153578
0.0177401
0.0204913
0.0233842
0.0275484
0.0310542
0.0336611
0.0366664
0.0398359
0.0432762
0.0460333
0.0479471
0.0493603
0.0501459
0.0502883
0.049803
0.0485973
0.0465566
0.0435834
0.0395404
0.0342316
0.0274458
0.0189719
0.00861181
-0.00378688
-0.0182919
-0.0348476
-0.0532441
-0.0730802
-0.0937234
-0.114332
-0.133891
-0.151239
-0.165332
-0.175474
-0.180835
-0.181234
-0.17686
-0.168199
-0.155937
-0.140835
-0.123748
-0.105744
-0.0879249
-0.0708914
-0.0547737
-0.039734
-0.0258939
-0.0132638
-0.00185206
0.008358
0.0174066
0.0253464
0.0322377
0.0381428
0.0431238
0.0472421
0.0505568
0.0531249
0.0550005
0.0562361
0.0568828
-0.347781
-0.34674
-0.345178
-0.343489
-0.341978
-0.34077
-0.339988
-0.339689
-0.339807
-0.340212
-0.340725
-0.341104
-0.341067
-0.340339
-0.338654
-0.335762
-0.331473
-0.325675
-0.31834
-0.309513
-0.299307
-0.28789
-0.275469
-0.262272
-0.248536
-0.234488
-0.220339
-0.206282
-0.192487
-0.179089
-0.166191
-0.153876
-0.142206
-0.131223
-0.120946
-0.111385
-0.102533
-0.0943755
-0.0868876
-0.0800388
-0.073793
-0.0681096
-0.0629441
-0.0582492
-0.0539758
-0.0500744
-0.0464898
-0.043165
-0.0400574
-0.0371201
-0.0342878
-0.0315036
-0.0287197
-0.025891
-0.0229761
-0.0199409
-0.016765
-0.0134452
-0.00998228
-0.00635393
-0.0024881
0.00135178
0.00512058
0.00907369
0.0133944
0.018139
0.022835
0.0263286
0.0294888
0.0327882
0.0357203
0.0406
0.0452876
0.0478397
0.0510278
0.0538134
0.0568401
0.0597512
0.0615976
0.0625515
0.0628425
0.062343
0.0609501
0.0586176
0.0552763
0.0507283
0.0446963
0.0369659
0.027365
0.0157559
0.00207926
-0.013604
-0.0310812
-0.0499606
-0.0696511
-0.0893573
-0.108091
-0.124709
-0.138514
-0.148476
-0.153994
-0.154778
-0.151011
-0.143191
-0.131951
-0.118052
-0.102491
-0.0863607
-0.0704059
-0.0548924
-0.0400681
-0.0261637
-0.013257
-0.00141175
0.00933427
0.0189779
0.0275385
0.0350501
0.0415561
0.0471059
0.0517526
0.0555502
0.0585526
0.0608136
0.0623861
0.0633222
-0.336202
-0.335807
-0.334957
-0.333907
-0.332868
-0.331957
-0.331269
-0.330825
-0.330575
-0.330424
-0.330235
-0.329828
-0.328997
-0.327534
-0.325238
-0.321931
-0.317467
-0.311755
-0.304763
-0.296517
-0.287098
-0.276633
-0.26528
-0.253218
-0.240635
-0.227718
-0.214647
-0.201588
-0.188684
-0.176072
-0.16386
-0.152122
-0.140921
-0.130306
-0.120307
-0.110941
-0.102214
-0.0941198
-0.0866457
-0.0797709
-0.0734688
-0.0677083
-0.0624536
-0.0576654
-0.0533012
-0.0493177
-0.0456694
-0.0423027
-0.0391658
-0.0362283
-0.0334415
-0.0307369
-0.0280623
-0.0253722
-0.0226229
-0.0197761
-0.0167983
-0.0136569
-0.0103262
-0.00679837
-0.00306949
0.000848982
0.00494661
0.00918276
0.0134979
0.0179062
0.0226615
0.0281498
0.0336471
0.0381093
0.0424569
0.0466834
0.0499278
0.0540503
0.0595623
0.0629314
0.0664074
0.0695704
0.071527
0.0734293
0.0752094
0.0760128
0.0755647
0.0739924
0.0713324
0.0674188
0.0620088
0.0548622
0.0458139
0.0347389
0.0215897
0.00643954
-0.0104916
-0.0288087
-0.0479131
-0.06701
-0.085124
-0.101283
-0.114581
-0.124277
-0.129779
-0.130757
-0.127382
-0.120188
-0.109817
-0.0971605
-0.0832692
-0.0689133
-0.0544343
-0.0401447
-0.0264118
-0.0134185
-0.00127151
0.00993107
0.0201309
0.0293042
0.0374511
0.0445891
0.0507487
0.055969
0.0602946
0.063774
0.0664578
0.068398
0.0696462
0.0702545
-0.325786
-0.325684
-0.325206
-0.324529
-0.323792
-0.323089
-0.322471
-0.321945
-0.321476
-0.320989
-0.320377
-0.319502
-0.318207
-0.31633
-0.313715
-0.310221
-0.305737
-0.300192
-0.293556
-0.285845
-0.277119
-0.267468
-0.257015
-0.2459
-0.234277
-0.222301
-0.210126
-0.197896
-0.185744
-0.173787
-0.162135
-0.150876
-0.140069
-0.129761
-0.119993
-0.110789
-0.102163
-0.0941202
-0.0866554
-0.0797576
-0.0734096
-0.0675888
-0.0622682
-0.0574162
-0.0529978
-0.0489756
-0.0453114
-0.0419602
-0.0388679
-0.0359982
-0.0333297
-0.0307947
-0.0283269
-0.0258765
-0.0233935
-0.0208264
-0.0181271
-0.0152533
-0.0121687
-0.00883889
-0.00522927
-0.0013138
0.00293502
0.00744189
0.0120678
0.016999
0.0223057
0.0278874
0.0331426
0.0392267
0.0459527
0.0522433
0.0570252
0.0619484
0.0666918
0.0700767
0.0749272
0.0800296
0.0824288
0.0850762
0.0878392
0.0891713
0.0891052
0.0883891
0.0867418
0.0836398
0.078794
0.0720683
0.0633358
0.0524867
0.0395018
0.0244938
0.00772307
-0.0103749
-0.0291533
-0.0478767
-0.0654839
-0.0811501
-0.0939182
-0.103133
-0.108425
-0.109522
-0.106311
-0.0995857
-0.0901999
-0.0789997
-0.0666859
-0.0536417
-0.0402232
-0.0268912
-0.0139775
-0.00165239
0.00993674
0.0206673
0.0304607
0.0392757
0.0470973
0.0539297
0.0597916
0.0647135
0.0687348
0.0719005
0.0742598
0.0758643
0.0767675
0.0770234
-0.316276
-0.316317
-0.316071
-0.31564
-0.315115
-0.314557
-0.313998
-0.313436
-0.312844
-0.312161
-0.311301
-0.310155
-0.308602
-0.306514
-0.303767
-0.300253
-0.29588
-0.290587
-0.284346
-0.27716
-0.269069
-0.260139
-0.250466
-0.24016
-0.229348
-0.21816
-0.206731
-0.195189
-0.183657
-0.172245
-0.16105
-0.15017
-0.139677
-0.129614
-0.120024
-0.11094
-0.102384
-0.0943674
-0.0868952
-0.0799648
-0.0735673
-0.0676891
-0.0623115
-0.0574114
-0.0529613
-0.0489306
-0.0452878
-0.041997
-0.0390086
-0.036276
-0.0337898
-0.0315065
-0.0293417
-0.0272343
-0.0251279
-0.0229598
-0.0206654
-0.0181803
-0.01544
-0.0123853
-0.00896618
-0.00514631
-0.000895536
0.00381529
0.00898547
0.0146292
0.0205215
0.0265699
0.0330051
0.0400358
0.0463192
0.0531517
0.0606245
0.0677909
0.0738861
0.07954
0.0849007
0.089902
0.0934395
0.0964885
0.100395
0.102667
0.102662
0.102504
0.101529
0.0988364
0.0942061
0.0876021
0.0788881
0.0679566
0.0548262
0.0396792
0.0228369
0.0047344
-0.0138841
-0.0320688
-0.0491195
-0.0641151
-0.076258
-0.0847885
-0.0898711
-0.0916036
-0.0885301
-0.0821418
-0.0740311
-0.0641532
-0.0528544
-0.0406515
-0.0279896
-0.015279
-0.00285894
0.00905442
0.020303
0.0307477
0.0402911
0.0488746
0.0564694
0.0630689
0.0686843
0.0733417
0.0770781
0.0799378
0.0819704
0.0832291
0.0837694
0.083648
-0.30747
-0.307548
-0.307412
-0.307119
-0.306724
-0.306267
-0.305764
-0.30521
-0.304579
-0.30382
-0.302863
-0.301621
-0.299994
-0.29788
-0.295178
-0.291793
-0.28765
-0.282691
-0.276884
-0.270225
-0.262736
-0.254466
-0.245485
-0.235884
-0.225766
-0.215244
-0.204436
-0.19346
-0.18243
-0.171453
-0.160625
-0.150035
-0.13977
-0.129884
-0.120415
-0.111402
-0.102874
-0.0948495
-0.0873419
-0.0803563
-0.0738925
-0.0679453
-0.0625049
-0.0575573
-0.0530836
-0.0490605
-0.0454633
-0.0422658
-0.0394272
-0.0368954
-0.0346573
-0.0327044
-0.0309465
-0.0293017
-0.0277043
-0.0260768
-0.0243315
-0.0223764
-0.0201183
-0.0174688
-0.0143468
-0.0106822
-0.00642161
-0.0015103
0.00406264
0.0102801
0.017074
0.0242025
0.0317839
0.0397002
0.0473998
0.055299
0.0635619
0.0707545
0.0779759
0.0853554
0.092176
0.0983725
0.104011
0.108755
0.112468
0.114858
0.116065
0.116349
0.115298
0.112482
0.107758
0.100993
0.092022
0.0807638
0.0672711
0.0517798
0.0347661
0.0168991
-0.00130517
-0.0190719
-0.0354436
-0.0498573
-0.0617031
-0.0694113
-0.0753181
-0.0775382
-0.0741259
-0.0688981
-0.0617941
-0.0525561
-0.0418005
-0.0300786
-0.0178074
-0.00537264
0.00688481
0.0186837
0.0298283
0.0401817
0.0496336
0.058111
0.0655751
0.072013
0.0774338
0.0818627
0.0853372
0.0879031
0.0896127
0.0905216
0.0906873
0.0901694
-0.299172
-0.299239
-0.299155
-0.298949
-0.298651
-0.298283
-0.297851
-0.297349
-0.29675
-0.296013
-0.295077
-0.293871
-0.292312
-0.290313
-0.287787
-0.284652
-0.280837
-0.276286
-0.270961
-0.264847
-0.257952
-0.250305
-0.24196
-0.232987
-0.223473
-0.213517
-0.203225
-0.192708
-0.182075
-0.171431
-0.160874
-0.150491
-0.140373
-0.13059
-0.121179
-0.11218
-0.10363
-0.0955547
-0.0879727
-0.0808971
-0.0743362
-0.0682937
-0.0627691
-0.0577584
-0.053253
-0.0492386
-0.0456972
-0.0426126
-0.0399579
-0.0376798
-0.0357542
-0.0342081
-0.0329646
-0.0319163
-0.0309816
-0.0300668
-0.0290565
-0.0278232
-0.0262322
-0.0241502
-0.0214514
-0.0180272
-0.0137946
-0.00870767
-0.00271654
0.0042042
0.0119184
0.0202181
0.029123
0.0384924
0.0479118
0.0573255
0.0665856
0.0754977
0.08399
0.0919045
0.0993032
0.106138
0.112397
0.117847
0.122383
0.12574
0.127753
0.12832
0.127307
0.124488
0.11966
0.112668
0.103407
0.0918568
0.078125
0.0625287
0.0455277
0.0276026
0.00942263
-0.00818363
-0.0243733
-0.0385943
-0.0504321
-0.0592599
-0.0649848
-0.066574
-0.0646172
-0.0601285
-0.0532128
-0.044185
-0.0335948
-0.0219348
-0.00964259
0.00287377
0.0152613
0.0272368
0.0385405
0.0489883
0.0584915
0.0669804
0.0744088
0.0807598
0.086042
0.0902825
0.0935221
0.0958109
0.0972052
0.0977653
0.0975531
0.0966319
-0.291236
-0.291282
-0.291225
-0.291077
-0.290855
-0.29057
-0.290224
-0.289807
-0.289299
-0.288661
-0.287844
-0.286786
-0.285416
-0.283657
-0.28143
-0.278658
-0.275272
-0.271209
-0.266426
-0.260893
-0.254602
-0.247568
-0.239824
-0.231426
-0.222445
-0.212971
-0.203103
-0.192947
-0.182611
-0.172203
-0.161822
-0.15156
-0.14151
-0.131751
-0.122329
-0.113284
-0.104655
-0.0964753
-0.0887693
-0.0815569
-0.0748543
-0.0686745
-0.0630272
-0.0579196
-0.0533556
-0.0493328
-0.0458414
-0.0428742
-0.0404232
-0.0384426
-0.0368885
-0.0358167
-0.0351996
-0.0348994
-0.0348127
-0.0348275
-0.0347949
-0.0345374
-0.0338612
-0.0325706
-0.0304798
-0.0274254
-0.0232805
-0.01797
-0.0114456
-0.00372769
0.005048
0.0147045
0.0251454
0.0361831
0.0474291
0.0586106
0.069602
0.0803151
0.0904961
0.099993
0.108772
0.11672
0.123724
0.12966
0.134487
0.13805
0.140188
0.140801
0.139758
0.136841
0.131824
0.124545
0.114901
0.102875
0.0886782
0.0726833
0.0552595
0.0368722
0.0182265
9.53477e-05
-0.0166692
-0.0313077
-0.043462
-0.0529982
-0.0591475
-0.0610463
-0.0595524
-0.055149
-0.0481495
-0.0389735
-0.0281264
-0.0161186
-0.00342349
0.00952639
0.0223505
0.0347366
0.0464206
0.0571717
0.0668794
0.0755043
0.0829963
0.0893355
0.0945345
0.0986264
0.101659
0.103689
0.10478
0.104997
0.104408
0.103079
-0.283569
-0.283594
-0.283553
-0.283451
-0.283297
-0.283097
-0.282852
-0.282555
-0.282187
-0.281717
-0.281102
-0.280288
-0.279212
-0.277802
-0.275986
-0.273686
-0.270827
-0.267341
-0.26317
-0.258271
-0.252617
-0.246203
-0.239047
-0.231188
-0.222688
-0.213625
-0.204097
-0.194209
-0.184073
-0.173801
-0.1635
-0.153268
-0.143199
-0.133385
-0.123879
-0.11472
-0.105949
-0.0976055
-0.0897169
-0.0823094
-0.0754068
-0.0690316
-0.0632046
-0.0579461
-0.0532747
-0.0492038
-0.0457352
-0.04287
-0.0406226
-0.0389689
-0.0378417
-0.0373061
-0.0374281
-0.0380525
-0.0390351
-0.0402438
-0.0414927
-0.0425421
-0.0431178
-0.0429358
-0.0417215
-0.0392304
-0.0352719
-0.0297293
-0.0225499
-0.013788
-0.00362852
0.00767173
0.0198994
0.0328668
0.046244
0.0595568
0.0725188
0.0851328
0.0971625
0.108412
0.118757
0.128069
0.136228
0.143124
0.148667
0.152737
0.155207
0.155956
0.154832
0.151647
0.146204
0.138346
0.127954
0.115017
0.0998298
0.082699
0.0639691
0.0442379
0.024282
0.00494683
-0.012873
-0.0283659
-0.0410769
-0.051079
-0.0578874
-0.0602885
-0.0587544
-0.0540782
-0.0466566
-0.0369111
-0.0253824
-0.0126217
0.00085426
0.0145744
0.0281288
0.0411811
0.0534473
0.0646744
0.074746
0.0836348
0.0912909
0.0976989
0.102879
0.106874
0.109739
0.111542
0.112352
0.112244
0.111288
0.109558
-0.276088
-0.276101
-0.276076
-0.276017
-0.275928
-0.275815
-0.275684
-0.275531
-0.275344
-0.275099
-0.274758
-0.274272
-0.273581
-0.272623
-0.271325
-0.269606
-0.267384
-0.264575
-0.261106
-0.256913
-0.251949
-0.246188
-0.239627
-0.232291
-0.224231
-0.21552
-0.206253
-0.196542
-0.186506
-0.176267
-0.165945
-0.155645
-0.145468
-0.135515
-0.125847
-0.116502
-0.107522
-0.0989478
-0.0908101
-0.0831389
-0.0759645
-0.0693187
-0.0632354
-0.0577501
-0.0528986
-0.0487139
-0.0452155
-0.0424148
-0.0403468
-0.0390264
-0.0383648
-0.0384031
-0.039351
-0.0410941
-0.0434319
-0.0461938
-0.0491464
-0.0519586
-0.0542364
-0.0555753
-0.0555825
-0.053901
-0.0502384
-0.0444493
-0.0364758
-0.0263826
-0.0144293
-0.00101426
0.0134723
0.0287235
0.044509
0.0603773
0.0756428
0.0902627
0.10417
0.117131
0.128994
0.139642
0.148951
0.156809
0.163111
0.167743
0.170575
0.171462
0.170242
0.166728
0.160727
0.152071
0.140635
0.126415
0.10972
0.0909253
0.0703892
0.0488036
0.027061
0.0060645
-0.0132754
-0.0300521
-0.0435893
-0.0538763
-0.0608727
-0.0638316
-0.0620963
-0.0568295
-0.0486597
-0.0379846
-0.0253981
-0.0115174
0.00309823
0.0179356
0.032543
0.0465493
0.0596208
0.0715131
0.082131
0.0914251
0.0993498
0.105903
0.111121
0.115061
0.117794
0.119398
0.119954
0.119542
0.11824
0.116122
-0.268739
-0.268751
-0.268744
-0.268723
-0.268695
-0.26867
-0.26866
-0.268669
-0.268693
-0.268715
-0.268707
-0.268624
-0.268412
-0.268006
-0.267335
-0.266315
-0.26485
-0.262838
-0.260182
-0.256794
-0.252599
-0.247545
-0.241608