/*--------------------------------*- C++ -*----------------------------------*\
| =========                 |                                                 |
| \\      /  F ield         | OpenFOAM: The Open Source CFD Toolbox           |
|  \\    /   O peration     | Version:  2206                                  |
|   \\  /    A nd           | Website:  www.openfoam.com                      |
|    \\/     M anipulation  |                                                 |
\*---------------------------------------------------------------------------*/
FoamFile
{
    version     2.0;
    format      ascii;
    arch        "LSB;label=32;scalar=64";
    class       surfaceScalarField;
    location    "19.1001";
    object      phi;
}
// * * * * * * * * * * * * * * * * * * * * * * * * * * * * * * * * * * * * * //

dimensions      [0 3 -1 0 0 0 0];

oriented        oriented;

internalField   nonuniform List<scalar> 
9421
(
1.04056e-05
-4.2429e-07
4.35862e-07
1.04008e-05
-2.03405e-07
2.08211e-07
1.04022e-05
1.90389e-08
-2.04498e-08
1.04093e-05
2.38653e-07
-2.45763e-07
1.04216e-05
4.52244e-07
-4.64541e-07
1.04386e-05
6.56786e-07
-6.73792e-07
1.04598e-05
8.49401e-07
-8.70602e-07
1.04846e-05
1.02759e-06
-1.05244e-06
1.05125e-05
1.18911e-06
-1.21701e-06
1.05429e-05
1.33208e-06
-1.36243e-06
1.05751e-05
1.45499e-06
-1.48719e-06
1.06085e-05
1.55681e-06
-1.59027e-06
1.06427e-05
1.63699e-06
-1.67115e-06
1.06771e-05
1.69536e-06
-1.72975e-06
1.07115e-05
1.73215e-06
-1.76656e-06
1.07465e-05
1.74657e-06
-1.78152e-06
1.0782e-05
1.73455e-06
-1.77007e-06
1.08173e-05
1.69475e-06
-1.73011e-06
1.08518e-05
1.62761e-06
-1.66212e-06
1.0885e-05
1.53427e-06
-1.56744e-06
1.09165e-05
1.41638e-06
-1.44783e-06
1.09459e-05
1.27599e-06
-1.30543e-06
1.09731e-05
1.11553e-06
-1.1427e-06
1.09978e-05
9.37822e-07
-9.62494e-07
1.10197e-05
7.46039e-07
-7.67985e-07
1.10387e-05
5.4371e-07
-5.62706e-07
1.10545e-05
3.34874e-07
-3.50663e-07
1.10666e-05
1.24631e-07
-1.36783e-07
1.10749e-05
-8.25669e-08
7.43239e-08
1.10789e-05
-2.83427e-07
2.79374e-07
1.10785e-05
-4.74936e-07
4.75338e-07
1.10735e-05
-6.54468e-07
6.59538e-07
1.10636e-05
-8.19805e-07
8.29679e-07
1.10489e-05
-9.69187e-07
9.83912e-07
1.10294e-05
-1.1013e-06
1.12081e-06
1.10053e-05
-1.21528e-06
1.23936e-06
1.0977e-05
-1.3106e-06
1.33887e-06
1.0945e-05
-1.38707e-06
1.41907e-06
1.09098e-05
-1.44477e-06
1.47995e-06
1.0872e-05
-1.48387e-06
1.52172e-06
1.08316e-05
-1.50402e-06
1.54439e-06
1.0789e-05
-1.50378e-06
1.54635e-06
1.07454e-05
-1.48276e-06
1.52634e-06
1.0702e-05
-1.44136e-06
1.48477e-06
1.06599e-05
-1.38002e-06
1.42213e-06
1.06201e-05
-1.29939e-06
1.33919e-06
1.05835e-05
-1.2003e-06
1.23693e-06
1.05507e-05
-1.08389e-06
1.11666e-06
1.05223e-05
-9.51613e-07
9.80022e-07
1.04986e-05
-8.05319e-07
8.2903e-07
1.04798e-05
-6.47172e-07
6.66004e-07
1.04659e-05
-4.79632e-07
4.93495e-07
1.0457e-05
-3.05463e-07
3.14329e-07
1.04531e-05
-1.27848e-07
1.31814e-07
1.04538e-05
4.94513e-08
-5.01624e-08
1.04589e-05
2.23574e-07
-2.28654e-07
1.0468e-05
3.92074e-07
-4.01229e-07
1.0481e-05
5.52691e-07
-5.65649e-07
1.04974e-05
7.03288e-07
-7.19763e-07
1.05171e-05
8.41892e-07
-8.61537e-07
1.05395e-05
9.66783e-07
-9.89208e-07
1.05643e-05
1.07654e-06
-1.10134e-06
1.0591e-05
1.17008e-06
-1.19681e-06
1.06192e-05
1.2466e-06
-1.27476e-06
1.06483e-05
1.30565e-06
-1.33479e-06
1.06781e-05
1.34726e-06
-1.37703e-06
1.07084e-05
1.3715e-06
-1.40183e-06
1.07397e-05
1.37675e-06
-1.40799e-06
1.07714e-05
1.36041e-06
-1.39215e-06
1.0803e-05
1.32245e-06
-1.35405e-06
1.08339e-05
1.26356e-06
-1.29441e-06
1.08635e-05
1.18483e-06
-1.21447e-06
1.08915e-05
1.08774e-06
-1.11576e-06
1.09176e-05
9.74025e-07
-1.00008e-06
1.09414e-05
8.45657e-07
-8.69483e-07
1.09627e-05
7.04844e-07
-7.26202e-07
1.09814e-05
5.54002e-07
-5.72687e-07
1.09972e-05
3.95757e-07
-4.11575e-07
1.101e-05
2.33038e-07
-2.45794e-07
1.10194e-05
6.95325e-08
-7.89471e-08
1.10253e-05
-9.16959e-08
8.57805e-08
1.10276e-05
-2.48289e-07
2.46018e-07
1.10261e-05
-3.98053e-07
3.99559e-07
1.10207e-05
-5.3902e-07
5.44387e-07
1.10115e-05
-6.69454e-07
6.78702e-07
1.09984e-05
-7.87898e-07
8.00966e-07
1.09816e-05
-8.93169e-07
9.09929e-07
1.09614e-05
-9.84378e-07
1.00458e-06
1.09382e-05
-1.06089e-06
1.08418e-06
1.09122e-05
-1.12233e-06
1.14827e-06
1.08841e-05
-1.16856e-06
1.19671e-06
1.08541e-05
-1.19961e-06
1.22957e-06
1.08224e-05
-1.21505e-06
1.24675e-06
1.07892e-05
-1.21334e-06
1.2466e-06
1.07552e-05
-1.19408e-06
1.22802e-06
1.07215e-05
-1.15764e-06
1.19139e-06
1.06887e-05
-1.10455e-06
1.13731e-06
1.06577e-05
-1.03559e-06
1.06664e-06
1.06289e-05
-9.51712e-07
9.80446e-07
1.0603e-05
-8.54107e-07
8.80031e-07
1.05803e-05
-7.44195e-07
7.66927e-07
1.0561e-05
-6.23626e-07
6.42888e-07
1.05454e-05
-4.9426e-07
5.0987e-07
1.05335e-05
-3.58154e-07
3.70013e-07
1.05254e-05
-2.17557e-07
2.25638e-07
1.05211e-05
-7.50717e-08
7.93995e-08
1.05204e-05
6.6407e-08
-6.57216e-08
1.05233e-05
2.04897e-07
-2.07733e-07
1.05295e-05
3.38487e-07
-3.44672e-07
1.05388e-05
4.65367e-07
-4.74702e-07
1.05511e-05
5.83862e-07
-5.96133e-07
1.0566e-05
6.92484e-07
-7.07449e-07
1.05834e-05
7.89919e-07
-8.07282e-07
1.06028e-05
8.75038e-07
-8.94479e-07
1.0624e-05
9.47002e-07
-9.68176e-07
1.06465e-05
1.00527e-06
-1.0278e-06
1.067e-05
1.04957e-06
-1.07307e-06
1.06942e-05
1.07989e-06
-1.10406e-06
1.07191e-05
1.09612e-06
-1.12099e-06
1.07449e-05
1.09659e-06
-1.12239e-06
1.07712e-05
1.07985e-06
-1.10611e-06
1.07973e-05
1.04614e-06
-1.07229e-06
1.08228e-05
9.96097e-07
-1.02161e-06
1.08473e-05
9.30717e-07
-9.55165e-07
1.08703e-05
8.5123e-07
-8.74237e-07
1.08915e-05
7.59062e-07
-7.80301e-07
1.09107e-05
6.55833e-07
-6.75028e-07
1.09276e-05
5.43269e-07
-5.60157e-07
1.0942e-05
4.23353e-07
-4.3777e-07
1.09536e-05
2.97967e-07
-3.09555e-07
1.09626e-05
1.69776e-07
-1.78759e-07
1.09678e-05
4.13838e-08
-4.66273e-08
1.09706e-05
-8.6228e-08
8.34417e-08
1.09695e-05
-2.05063e-07
2.06189e-07
1.09646e-05
-3.30833e-07
3.35744e-07
1.09567e-05
-4.26095e-07
4.33937e-07
-5.72479e-07
5.85559e-07
1.04436e-05
-4.10171e-07
1.04372e-05
-1.97033e-07
1.0438e-05
1.82632e-08
1.04454e-05
2.31246e-07
1.04589e-05
4.38731e-07
1.0478e-05
6.37706e-07
1.0502e-05
8.25338e-07
1.05305e-05
9.99126e-07
1.05627e-05
1.1569e-06
1.0598e-05
1.29675e-06
1.06358e-05
1.41721e-06
1.06754e-05
1.51724e-06
1.07162e-05
1.59621e-06
1.07576e-05
1.65389e-06
1.07996e-05
1.69019e-06
1.08424e-05
1.70378e-06
1.08857e-05
1.69124e-06
1.09288e-05
1.65168e-06
1.09709e-05
1.5855e-06
1.10114e-05
1.49374e-06
1.10498e-05
1.37794e-06
1.10858e-05
1.24007e-06
1.11188e-05
1.08252e-06
1.11485e-05
9.08052e-07
1.11748e-05
7.19808e-07
1.11972e-05
5.21318e-07
1.12154e-05
3.16642e-07
1.1229e-05
1.11009e-07
1.12378e-05
-9.13135e-08
1.12414e-05
-2.87044e-07
1.12397e-05
-4.73212e-07
1.12324e-05
-6.47248e-07
1.12197e-05
-8.07019e-07
1.12013e-05
-9.50883e-07
1.11777e-05
-1.07764e-06
1.11489e-05
-1.18654e-06
1.11155e-05
-1.2772e-06
1.1078e-05
-1.34955e-06
1.10369e-05
-1.40366e-06
1.09926e-05
-1.4396e-06
1.09455e-05
-1.45685e-06
1.08961e-05
-1.45438e-06
1.08457e-05
-1.43235e-06
1.07955e-05
-1.39118e-06
1.07467e-05
-1.33126e-06
1.07005e-05
-1.25316e-06
1.06578e-05
-1.15757e-06
1.06193e-05
-1.04546e-06
1.05859e-05
-9.18134e-07
1.05578e-05
-7.77228e-07
1.05353e-05
-6.24739e-07
1.05187e-05
-4.62987e-07
1.05078e-05
-2.94616e-07
1.05027e-05
-1.22659e-07
1.05029e-05
4.92234e-08
1.05082e-05
2.18209e-07
1.05184e-05
3.81877e-07
1.05332e-05
5.3797e-07
1.05521e-05
6.84395e-07
1.05747e-05
8.19227e-07
1.06007e-05
9.40784e-07
1.06296e-05
1.04768e-06
1.06608e-05
1.13884e-06
1.06939e-05
1.21351e-06
1.07283e-05
1.27122e-06
1.07637e-05
1.31186e-06
1.08e-05
1.3352e-06
1.08374e-05
1.33945e-06
1.08751e-05
1.32266e-06
1.09126e-05
1.28494e-06
1.09492e-05
1.22692e-06
1.09844e-05
1.14963e-06
1.10177e-05
1.05446e-06
1.10487e-05
9.43066e-07
1.1077e-05
8.17385e-07
1.11022e-05
6.79561e-07
1.11243e-05
5.31965e-07
1.11428e-05
3.77202e-07
1.11577e-05
2.18221e-07
1.11684e-05
5.87452e-08
1.1175e-05
-9.829e-08
1.11773e-05
-2.50549e-07
1.11751e-05
-3.95872e-07
1.11684e-05
-5.3234e-07
1.11573e-05
-6.58285e-07
1.11417e-05
-7.72342e-07
1.1122e-05
-8.73414e-07
1.10983e-05
-9.60705e-07
1.10711e-05
-1.03369e-06
1.10408e-05
-1.09207e-06
1.1008e-05
-1.13571e-06
1.09728e-05
-1.1645e-06
1.09356e-05
-1.17781e-06
1.08968e-05
-1.17449e-06
1.08572e-05
-1.15453e-06
1.08179e-05
-1.11831e-06
1.07796e-05
-1.06632e-06
1.07433e-05
-9.99248e-07
1.07096e-05
-9.17963e-07
1.0679e-05
-8.23539e-07
1.06521e-05
-7.17279e-07
1.06292e-05
-6.0071e-07
1.06105e-05
-4.75583e-07
1.05962e-05
-3.43857e-07
1.05863e-05
-2.07689e-07
1.05808e-05
-6.9602e-08
1.05797e-05
6.75854e-08
1.05826e-05
2.01924e-07
1.05896e-05
3.31548e-07
1.06003e-05
4.54687e-07
1.06144e-05
5.69698e-07
1.06318e-05
6.75116e-07
1.0652e-05
7.69681e-07
1.06748e-05
8.52311e-07
1.06996e-05
9.2218e-07
1.07261e-05
9.78764e-07
1.07539e-05
1.02178e-06
1.07826e-05
1.05113e-06
1.08124e-05
1.06638e-06
1.08431e-05
1.06589e-06
1.08742e-05
1.04875e-06
1.09051e-05
1.01522e-06
1.09353e-05
9.6592e-07
1.09642e-05
9.0177e-07
1.09915e-05
8.23949e-07
1.10167e-05
7.33833e-07
1.10396e-05
6.32986e-07
1.10597e-05
5.23116e-07
1.1077e-05
4.06079e-07
1.1091e-05
2.83991e-07
1.11019e-05
1.58837e-07
1.11086e-05
3.47146e-08
1.11122e-05
-8.98228e-08
1.11116e-05
-2.04475e-07
1.11066e-05
-3.25835e-07
1.10982e-05
-4.17708e-07
-5.58237e-07
1.04936e-05
-3.93501e-07
1.04856e-05
-1.8906e-07
1.04857e-05
1.81305e-08
1.04934e-05
2.2356e-07
1.05081e-05
4.24043e-07
1.05292e-05
6.16598e-07
1.05561e-05
7.98445e-07
1.05882e-05
9.67087e-07
1.06247e-05
1.12039e-06
1.06649e-05
1.25649e-06
1.07082e-05
1.37389e-06
1.07539e-05
1.47156e-06
1.08013e-05
1.54883e-06
1.08499e-05
1.60532e-06
1.08994e-05
1.64067e-06
1.095e-05
1.65321e-06
1.10011e-05
1.64014e-06
1.10518e-05
1.60088e-06
1.11015e-05
1.53581e-06
1.11494e-05
1.44587e-06
1.11948e-05
1.33253e-06
1.12372e-05
1.1977e-06
1.1276e-05
1.04369e-06
1.13109e-05
8.73206e-07
1.13413e-05
6.89334e-07
1.13671e-05
4.95586e-07
1.13876e-05
2.96076e-07
1.14026e-05
9.60634e-08
1.14116e-05
-1.00386e-07
1.14146e-05
-2.90023e-07
1.14114e-05
-4.69947e-07
1.14018e-05
-6.37666e-07
1.13859e-05
-7.91144e-07
1.13639e-05
-9.2885e-07
1.13359e-05
-1.04971e-06
1.13025e-05
-1.15309e-06
1.1264e-05
-1.23871e-06
1.1221e-05
-1.30655e-06
1.11741e-05
-1.35671e-06
1.11236e-05
-1.3891e-06
1.10699e-05
-1.40316e-06
1.10139e-05
-1.39845e-06
1.0957e-05
-1.37543e-06
1.09004e-05
-1.33451e-06
1.08452e-05
-1.27611e-06
1.07928e-05
-1.20071e-06
1.07441e-05
-1.10891e-06
1.07002e-05
-1.00152e-06
1.06617e-05
-8.79659e-07
1.06292e-05
-7.44769e-07
1.06031e-05
-5.98656e-07
1.05836e-05
-4.43467e-07
1.05707e-05
-2.81691e-07
1.05642e-05
-1.1619e-07
1.05639e-05
4.94972e-08
1.05696e-05
2.12573e-07
1.05808e-05
3.70668e-07
1.05972e-05
5.2154e-07
1.06185e-05
6.63142e-07
1.06441e-05
7.93604e-07
1.06736e-05
9.11279e-07
1.07065e-05
1.01481e-06
1.07422e-05
1.10316e-06
1.07801e-05
1.17557e-06
1.08197e-05
1.23158e-06
1.08607e-05
1.2709e-06
1.09029e-05
1.29302e-06
1.09461e-05
1.29618e-06
1.09898e-05
1.27898e-06
1.10332e-05
1.24159e-06
1.10755e-05
1.18458e-06
1.11162e-05
1.10893e-06
1.11547e-05
1.01595e-06
1.11905e-05
9.07261e-07
1.12232e-05
7.84708e-07
1.12524e-05
6.50386e-07
1.12777e-05
5.06607e-07
1.1299e-05
3.55944e-07
1.13158e-05
2.0139e-07
1.13279e-05
4.66446e-08
1.13351e-05
-1.05497e-07
1.13373e-05
-2.52729e-07
1.13344e-05
-3.92945e-07
1.13263e-05
-5.24285e-07
1.13132e-05
-6.45157e-07
1.12952e-05
-7.54285e-07
1.12724e-05
-8.50676e-07
1.12453e-05
-9.33628e-07
1.12143e-05
-1.00269e-06
1.11799e-05
-1.05762e-06
1.11425e-05
-1.09829e-06
1.11024e-05
-1.12443e-06
1.10599e-05
-1.13532e-06
1.10157e-05
-1.1303e-06
1.09708e-05
-1.10962e-06
1.09261e-05
-1.07362e-06
1.08826e-05
-1.02278e-06
1.08411e-05
-9.57747e-07
1.08024e-05
-8.79289e-07
1.07673e-05
-7.88377e-07
1.07362e-05
-6.86191e-07
1.07096e-05
-5.7413e-07
1.06878e-05
-4.53815e-07
1.06711e-05
-3.27085e-07
1.06594e-05
-1.95994e-07
1.06527e-05
-6.29604e-08
1.0651e-05
6.92921e-08
1.06541e-05
1.98855e-07
1.06617e-05
3.23908e-07
1.06737e-05
4.42727e-07
1.06897e-05
5.53714e-07
1.07093e-05
6.55438e-07
1.07323e-05
7.46672e-07
1.07583e-05
8.26401e-07
1.07866e-05
8.93821e-07
1.0817e-05
9.48396e-07
1.08489e-05
9.89825e-07
1.08822e-05
1.01788e-06
1.09167e-05
1.03192e-06
1.09521e-05
1.03044e-06
1.09879e-05
1.01293e-06
1.10235e-05
9.79652e-07
1.10582e-05
9.31193e-07
1.10916e-05
8.68432e-07
1.1123e-05
7.92491e-07
1.11522e-05
7.04695e-07
1.11786e-05
6.06546e-07
1.1202e-05
4.99733e-07
1.12221e-05
3.8597e-07
1.12385e-05
2.67621e-07
1.12513e-05
1.45989e-07
1.12595e-05
2.6566e-08
1.12639e-05
-9.42612e-08
1.12638e-05
-2.04415e-07
1.12588e-05
-3.20843e-07
1.12501e-05
-4.08914e-07
-5.42983e-07
1.05535e-05
-3.74209e-07
1.05439e-05
-1.7943e-07
1.05434e-05
1.86639e-08
1.05513e-05
2.15626e-07
1.05671e-05
4.0822e-07
1.05902e-05
5.93511e-07
1.06199e-05
7.68768e-07
1.06555e-05
9.3152e-07
1.06962e-05
1.07964e-06
1.07414e-05
1.21133e-06
1.07902e-05
1.32509e-06
1.08419e-05
1.41985e-06
1.08958e-05
1.4949e-06
1.09514e-05
1.54973e-06
1.10084e-05
1.58369e-06
1.10666e-05
1.59496e-06
1.11255e-05
1.58132e-06
1.11839e-05
1.54242e-06
1.12411e-05
1.4786e-06
1.12962e-05
1.39075e-06
1.13485e-05
1.28026e-06
1.13973e-05
1.14897e-06
1.14418e-05
9.99128e-07
1.14816e-05
8.33373e-07
1.15163e-05
6.5472e-07
1.15452e-05
4.66635e-07
1.1568e-05
2.7331e-07
1.15841e-05
7.99459e-08
1.15933e-05
-1.09616e-07
1.15955e-05
-2.92194e-07
1.15905e-05
-4.64967e-07
1.15784e-05
-6.2555e-07
1.15593e-05
-7.72028e-07
1.15334e-05
-9.02987e-07
1.15012e-05
-1.01747e-06
1.1463e-05
-1.11494e-06
1.14195e-05
-1.19519e-06
1.13712e-05
-1.25824e-06
1.13186e-05
-1.3041e-06
1.12621e-05
-1.33262e-06
1.12023e-05
-1.34335e-06
1.11402e-05
-1.33639e-06
1.10772e-05
-1.31236e-06
1.10144e-05
-1.2717e-06
1.09531e-05
-1.21486e-06
1.08947e-05
-1.14229e-06
1.08403e-05
-1.05451e-06
1.0791e-05
-9.52183e-07
1.07475e-05
-8.3625e-07
1.07107e-05
-7.07958e-07
1.0681e-05
-5.68899e-07
1.06585e-05
-4.21024e-07
1.06435e-05
-2.6663e-07
1.06357e-05
-1.08387e-07
1.06349e-05
5.03182e-08
1.06407e-05
2.06719e-07
1.06529e-05
3.58503e-07
1.06709e-05
5.03472e-07
1.06945e-05
6.39608e-07
1.0723e-05
7.65103e-07
1.07559e-05
8.78361e-07
1.07927e-05
9.7805e-07
1.08327e-05
1.06314e-06
1.08753e-05
1.13291e-06
1.09201e-05
1.18682e-06
1.09665e-05
1.22447e-06
1.10144e-05
1.24509e-06
1.10635e-05
1.24707e-06
1.1113e-05
1.22949e-06
1.11621e-05
1.19249e-06
1.12101e-05
1.13663e-06
1.12562e-05
1.06282e-06
1.12998e-05
9.72334e-07
1.13404e-05
8.66698e-07
1.13774e-05
7.47707e-07
1.14104e-05
6.17387e-07
1.1439e-05
4.77993e-07
1.14629e-05
3.32054e-07
1.14816e-05
1.82615e-07
1.1495e-05
3.33116e-08
1.15027e-05
-1.1323e-07
1.15047e-05
-2.54745e-07
1.1501e-05
-3.89189e-07
1.14915e-05
-5.14779e-07
1.14763e-05
-6.30018e-07
1.14558e-05
-7.33718e-07
1.14301e-05
-8.24982e-07
1.13996e-05
-9.03204e-07
1.1365e-05
-9.68003e-07
1.13265e-05
-1.01915e-06
1.12847e-05
-1.05648e-06
1.12399e-05
-1.07961e-06
1.11924e-05
-1.0879e-06
1.11433e-05
-1.08112e-06
1.10933e-05
-1.05965e-06
1.10435e-05
-1.02386e-06
1.0995e-05
-9.7421e-07
1.09485e-05
-9.11307e-07
1.09051e-05
-8.3586e-07
1.08655e-05
-7.48738e-07
1.08303e-05
-6.51001e-07
1.08e-05
-5.43911e-07
1.07752e-05
-4.28945e-07
1.07559e-05
-3.07805e-07
1.07423e-05
-1.82423e-07
1.07345e-05
-5.50964e-08
1.07322e-05
7.15763e-08
1.07353e-05
1.95743e-07
1.07436e-05
3.15629e-07
1.07567e-05
4.29564e-07
1.07744e-05
5.36e-07
1.07963e-05
6.33549e-07
1.0822e-05
7.21019e-07
1.08509e-05
7.9744e-07
1.08827e-05
8.62053e-07
1.09168e-05
9.14304e-07
1.09528e-05
9.53833e-07
1.09904e-05
9.80299e-07
1.10294e-05
9.92899e-07
1.10694e-05
9.90396e-07
1.11098e-05
9.72528e-07
1.11499e-05
9.39563e-07
1.11891e-05
8.9205e-07
1.12267e-05
8.30828e-07
1.12622e-05
7.5697e-07
1.12951e-05
6.71748e-07
1.13251e-05
5.766e-07
1.13516e-05
4.73187e-07
1.13745e-05
3.63074e-07
1.13933e-05
2.48886e-07
1.1408e-05
1.31292e-07
1.14176e-05
1.69357e-08
1.14229e-05
-9.95609e-08
1.14233e-05
-2.04847e-07
1.14184e-05
-3.15894e-07
1.14093e-05
-3.99802e-07
-5.26849e-07
1.06214e-05
-3.5222e-07
1.061e-05
-1.68069e-07
1.06088e-05
1.99423e-08
1.06169e-05
2.07516e-07
1.06338e-05
3.91337e-07
1.06587e-05
5.68524e-07
1.06911e-05
7.36392e-07
1.07301e-05
8.92511e-07
1.0775e-05
1.03477e-06
1.08249e-05
1.16139e-06
1.08791e-05
1.27092e-06
1.09367e-05
1.36224e-06
1.09971e-05
1.43455e-06
1.10596e-05
1.48723e-06
1.11239e-05
1.51937e-06
1.11897e-05
1.52918e-06
1.1256e-05
1.51496e-06
1.1322e-05
1.47648e-06
1.13865e-05
1.41407e-06
1.14487e-05
1.32857e-06
1.15076e-05
1.22131e-06
1.15625e-05
1.09408e-06
1.16126e-05
9.49028e-07
1.16573e-05
7.88732e-07
1.16959e-05
6.16136e-07
1.17278e-05
4.34653e-07
1.17526e-05
2.48535e-07
1.17697e-05
6.28514e-08
1.17789e-05
-1.18816e-07
1.17801e-05
-2.93381e-07
1.17733e-05
-4.58135e-07
1.17585e-05
-6.10819e-07
1.17362e-05
-7.4964e-07
1.17065e-05
-8.73307e-07
1.167e-05
-9.80972e-07
1.16272e-05
-1.07218e-06
1.15788e-05
-1.14678e-06
1.15253e-05
-1.20477e-06
1.14673e-05
-1.24609e-06
1.14052e-05
-1.2705e-06
1.13397e-05
-1.27786e-06
1.1272e-05
-1.26869e-06
1.12033e-05
-1.24362e-06
1.11348e-05
-1.2032e-06
1.10679e-05
-1.14793e-06
1.10038e-05
-1.07826e-06
1.0944e-05
-9.94641e-07
1.08894e-05
-8.97642e-07
1.08412e-05
-7.8803e-07
1.08001e-05
-6.66846e-07
1.07666e-05
-5.35463e-07
1.07412e-05
-3.95608e-07
1.0724e-05
-2.49358e-07
1.07147e-05
-9.91724e-08
1.07133e-05
5.17621e-08
1.07193e-05
2.00725e-07
1.07323e-05
3.45469e-07
1.07519e-05
4.83853e-07
1.07777e-05
6.13901e-07
1.08089e-05
7.33847e-07
1.08451e-05
8.42154e-07
1.08856e-05
9.37527e-07
1.09298e-05
1.01894e-06
1.09771e-05
1.08566e-06
1.10268e-05
1.1371e-06
1.10786e-05
1.17272e-06
1.11321e-05
1.19159e-06
1.11868e-05
1.19234e-06
1.12419e-05
1.17436e-06
1.12966e-05
1.13782e-06
1.135e-05
1.08323e-06
1.14013e-05
1.01148e-06
1.14499e-05
9.23749e-07
1.14951e-05
8.21519e-07
1.15363e-05
7.0651e-07
1.1573e-05
5.80679e-07
1.16048e-05
4.46219e-07
1.16312e-05
3.05632e-07
1.16518e-05
1.62009e-07
1.16663e-05
1.8855e-08
1.16744e-05
-1.21378e-07
1.16762e-05
-2.5649e-07
1.16715e-05
-3.84518e-07
1.16605e-05
-5.03769e-07
1.16433e-05
-6.12845e-07
1.16203e-05
-7.10658e-07
1.15917e-05
-7.96407e-07
1.1558e-05
-8.69555e-07
1.15198e-05
-9.29772e-07
1.14775e-05
-9.7684e-07
1.14315e-05
-1.01051e-06
1.13822e-05
-1.03034e-06
1.13302e-05
-1.03589e-06
1.12764e-05
-1.02733e-06
1.12218e-05
-1.00502e-06
1.11673e-05
-9.69388e-07
1.11141e-05
-9.20928e-07
1.1063e-05
-8.60214e-07
1.1015e-05
-7.87907e-07
1.09711e-05
-7.04793e-07
1.09319e-05
-6.11817e-07
1.08981e-05
-5.10105e-07
1.08701e-05
-4.00981e-07
1.08483e-05
-2.85992e-07
1.08328e-05
-1.66926e-07
1.08237e-05
-4.59502e-08
1.08207e-05
7.45037e-08
1.08238e-05
1.9266e-07
1.08327e-05
3.06797e-07
1.08469e-05
4.15296e-07
1.08663e-05
5.16664e-07
1.08902e-05
6.09571e-07
1.09184e-05
6.92859e-07
1.09502e-05
7.65591e-07
1.09853e-05
8.27036e-07
1.10229e-05
8.76641e-07
1.10628e-05
9.13973e-07
1.11045e-05
9.38554e-07
1.11479e-05
9.4953e-07
1.11923e-05
9.45963e-07
1.12371e-05
9.27751e-07
1.12815e-05
8.95142e-07
1.13249e-05
8.48667e-07
1.13666e-05
7.89125e-07
1.14061e-05
7.17536e-07
1.14427e-05
6.35122e-07
1.1476e-05
5.43256e-07
1.15056e-05
4.4357e-07
1.15313e-05
3.37464e-07
1.15523e-05
2.27851e-07
1.15687e-05
1.14828e-07
1.15798e-05
5.86136e-09
1.15859e-05
-1.05687e-07
1.15868e-05
-2.05747e-07
1.1582e-05
-3.11e-07
1.15726e-05
-3.90424e-07
-5.0996e-07
1.06951e-05
-3.27449e-07
1.06819e-05
-1.54863e-07
1.06798e-05
2.20869e-08
1.0688e-05
1.99352e-07
1.07058e-05
3.73517e-07
1.07325e-05
5.41762e-07
1.07675e-05
7.01456e-07
1.08098e-05
8.50208e-07
1.08586e-05
9.85928e-07
1.09132e-05
1.10686e-06
1.09725e-05
1.21157e-06
1.10358e-05
1.2989e-06
1.11024e-05
1.36798e-06
1.11716e-05
1.41802e-06
1.1243e-05
1.44799e-06
1.1316e-05
1.45618e-06
1.13896e-05
1.44135e-06
1.14627e-05
1.40336e-06
1.15343e-05
1.34251e-06
1.16032e-05
1.25961e-06
1.16686e-05
1.15595e-06
1.17294e-05
1.03326e-06
1.17848e-05
8.93623e-07
1.1834e-05
7.39536e-07
1.18763e-05
5.73854e-07
1.1911e-05
3.99938e-07
1.19375e-05
2.22101e-07
1.19552e-05
4.51185e-08
1.19641e-05
-1.27674e-07
1.1964e-05
-2.93317e-07
1.19551e-05
-4.49245e-07
1.19376e-05
-5.93345e-07
1.19119e-05
-7.23966e-07
1.18786e-05
-8.39925e-07
1.18381e-05
-9.40466e-07
1.17911e-05
-1.02518e-06
1.17382e-05
-1.09392e-06
1.168e-05
-1.14661e-06
1.16171e-05
-1.18312e-06
1.15499e-05
-1.20329e-06
1.14793e-05
-1.20729e-06
1.14065e-05
-1.19588e-06
1.13326e-05
-1.16974e-06
1.12589e-05
-1.12953e-06
1.11868e-05
-1.07579e-06
1.11175e-05
-1.00902e-06
1.10526e-05
-9.29648e-07
1.09931e-05
-8.38157e-07
1.09402e-05
-7.35169e-07
1.08949e-05
-6.21527e-07
1.08578e-05
-4.98371e-07
1.08294e-05
-3.67187e-07
1.08098e-05
-2.29803e-07
1.07991e-05
-8.84556e-08
1.07969e-05
5.393e-08
1.0803e-05
1.94702e-07
1.08167e-05
3.31687e-07
1.08378e-05
4.62813e-07
1.08655e-05
5.86155e-07
1.08994e-05
6.99991e-07
1.09387e-05
8.02828e-07
1.09828e-05
8.93415e-07
1.1031e-05
9.70737e-07
1.10827e-05
1.03401e-06
1.11372e-05
1.0826e-06
1.1194e-05
1.11585e-06
1.12529e-05
1.13276e-06
1.1313e-05
1.13221e-06
1.13735e-05
1.11385e-06
1.14335e-05
1.07783e-06
1.14921e-05
1.02463e-06
1.15485e-05
9.55105e-07
1.16018e-05
8.70392e-07
1.16515e-05
7.71902e-07
1.16967e-05
6.61294e-07
1.17369e-05
5.40452e-07
1.17716e-05
4.11499e-07
1.18004e-05
2.76909e-07
1.18225e-05
1.39845e-07
1.18378e-05
3.53722e-09
1.18462e-05
-1.297e-07
1.18474e-05
-2.57758e-07
1.18417e-05
-3.78773e-07
1.18291e-05
-4.9116e-07
1.18099e-05
-5.9363e-07
1.17844e-05
-6.85188e-07
1.17531e-05
-7.65118e-07
1.17165e-05
-8.32938e-07
1.1675e-05
-8.88336e-07
1.16293e-05
-9.31057e-07
1.15795e-05
-9.60772e-07
1.15263e-05
-9.77077e-07
1.14702e-05
-9.79829e-07
1.14123e-05
-9.69389e-07
1.13534e-05
-9.46168e-07
1.12947e-05
-9.10637e-07
1.12371e-05
-8.63329e-07
1.11817e-05
-8.04815e-07
1.11295e-05
-7.35723e-07
1.10814e-05
-6.56773e-07
1.10384e-05
-5.68805e-07
1.10011e-05
-4.72812e-07
1.09701e-05
-3.69965e-07
1.09458e-05
-2.61639e-07
1.09283e-05
-1.49462e-07
1.09178e-05
-3.54626e-08
1.09142e-05
7.81539e-08
1.09171e-05
1.89695e-07
1.09264e-05
2.9751e-07
1.09417e-05
4.0004e-07
1.09625e-05
4.95846e-07
1.09884e-05
5.83653e-07
1.10189e-05
6.62352e-07
1.10535e-05
7.31033e-07
1.10915e-05
7.88972e-07
1.11326e-05
8.35603e-07
1.11761e-05
8.70435e-07
1.12218e-05
8.92868e-07
1.12693e-05
9.02067e-07
1.13178e-05
8.97387e-07
1.13668e-05
8.78823e-07
1.14153e-05
8.46606e-07
1.14627e-05
8.01244e-07
1.15084e-05
7.43502e-07
1.15515e-05
6.74356e-07
1.15917e-05
5.94979e-07
1.16283e-05
5.06675e-07
1.16608e-05
4.11045e-07
1.16889e-05
3.09323e-07
1.17121e-05
2.04721e-07
1.17301e-05
9.68107e-08
1.17424e-05
-6.45653e-09
1.17492e-05
-1.12479e-07
1.17504e-05
-2.06969e-07
1.17455e-05
-3.06075e-07
1.17358e-05
-3.80746e-07
-4.92382e-07
1.07727e-05
-2.99787e-07
1.07575e-05
-1.39643e-07
1.07543e-05
2.52715e-08
1.07624e-05
1.91304e-07
1.07809e-05
3.54943e-07
1.08093e-05
5.13422e-07
1.08466e-05
6.64164e-07
1.08919e-05
8.04829e-07
1.09445e-05
9.33353e-07
1.10034e-05
1.04799e-06
1.10677e-05
1.1473e-06
1.11364e-05
1.23013e-06
1.12089e-05
1.29549e-06
1.12845e-05
1.34246e-06
1.13626e-05
1.3699e-06
1.14424e-05
1.37633e-06
1.15229e-05
1.36086e-06
1.16029e-05
1.32339e-06
1.16811e-05
1.26423e-06
1.17565e-05
1.18421e-06
1.18279e-05
1.08456e-06
1.18942e-05
9.66945e-07
1.19545e-05
8.33383e-07
1.20078e-05
6.86249e-07
1.20533e-05
5.28297e-07
1.20904e-05
3.62847e-07
1.21182e-05
1.94299e-07
1.21364e-05
2.69491e-08
1.21448e-05
-1.36067e-07
1.21434e-05
-2.91955e-07
1.21325e-05
-4.38319e-07
1.21124e-05
-5.73208e-07
1.20835e-05
-6.9512e-07
1.20466e-05
-8.02988e-07
1.20022e-05
-8.96127e-07
1.19512e-05
-9.74157e-07
1.18942e-05
-1.03688e-06
1.18317e-05
-1.08414e-06
1.17643e-05
-1.11575e-06
1.16927e-05
-1.13167e-06
1.16178e-05
-1.13236e-06
1.15406e-05
-1.11868e-06
1.14622e-05
-1.0914e-06
1.1384e-05
-1.05128e-06
1.13072e-05
-9.9899e-07
1.12332e-05
-9.35055e-07
1.11635e-05
-8.5993e-07
1.10994e-05
-7.74046e-07
1.10421e-05
-6.77898e-07
1.09927e-05
-5.72143e-07
1.09521e-05
-4.57688e-07
1.09206e-05
-3.35752e-07
1.08987e-05
-2.07903e-07
1.08864e-05
-7.61282e-08
1.08834e-05
5.6947e-08
1.08893e-05
1.88793e-07
1.09037e-05
3.17318e-07
1.09259e-05
4.40525e-07
1.09555e-05
5.56554e-07
1.09918e-05
6.63735e-07
1.1034e-05
7.60607e-07
1.10815e-05
8.45949e-07
1.11335e-05
9.18757e-07
1.11893e-05
9.7821e-07
1.12483e-05
1.02359e-06
1.131e-05
1.05413e-06
1.13739e-05
1.06887e-06
1.14392e-05
1.06695e-06
1.15048e-05
1.04818e-06
1.15699e-05
1.01272e-06
1.16335e-05
9.61042e-07
1.16947e-05
8.93951e-07
1.17525e-05
8.12542e-07
1.18063e-05
7.18161e-07
1.18552e-05
6.12388e-07
1.18986e-05
4.97021e-07
1.1936e-05
3.7412e-07
1.19667e-05
2.4615e-07
1.19902e-05
1.16336e-07
1.20062e-05
-1.24766e-08
1.20146e-05
-1.38079e-07
1.20154e-05
-2.5848e-07
1.20085e-05
-3.71932e-07
1.19943e-05
-4.76969e-07
1.19731e-05
-5.72417e-07
1.19453e-05
-6.57381e-07
1.19114e-05
-7.31217e-07
1.18719e-05
-7.93478e-07
1.18274e-05
-8.43844e-07
1.17784e-05
-8.82001e-07
1.17252e-05
-9.07568e-07
1.16684e-05
-9.20261e-07
1.16088e-05
-9.20217e-07
1.15472e-05
-9.07867e-07
1.14847e-05
-8.83671e-07
1.14223e-05
-8.48169e-07
1.13609e-05
-8.01938e-07
1.13016e-05
-7.45575e-07
1.12456e-05
-6.79702e-07
1.11938e-05
-6.04991e-07
1.11472e-05
-5.22197e-07
1.11066e-05
-4.32187e-07
1.10726e-05
-3.35976e-07
1.10457e-05
-2.34764e-07
1.10263e-05
-1.30005e-07
1.10144e-05
-2.357e-08
1.10099e-05
8.26193e-08
1.10127e-05
1.86967e-07
1.10223e-05
2.87906e-07
1.10384e-05
3.83948e-07
1.10605e-05
4.73719e-07
1.10881e-05
5.55991e-07
1.11208e-05
6.29703e-07
1.11578e-05
6.93973e-07
1.11987e-05
7.48076e-07
1.12429e-05
7.91408e-07
1.129e-05
8.2341e-07
1.13394e-05
8.43424e-07
1.13908e-05
8.50714e-07
1.14433e-05
8.44879e-07
1.14961e-05
8.25956e-07
1.15486e-05
7.9417e-07
1.15998e-05
7.50013e-07
1.16491e-05
6.94219e-07
1.16957e-05
6.27713e-07
1.17391e-05
5.51613e-07
1.17786e-05
4.67146e-07
1.18138e-05
3.75875e-07
1.18442e-05
2.78874e-07
1.18693e-05
1.79695e-07
1.18887e-05
7.74047e-08
1.19021e-05
-1.98982e-08
1.19095e-05
-1.19867e-07
1.1911e-05
-2.08465e-07
1.19061e-05
-3.01127e-07
1.18961e-05
-3.70811e-07
-4.74207e-07
1.08522e-05
-2.69116e-07
1.08347e-05
-1.22222e-07
1.08303e-05
2.97452e-08
1.0838e-05
1.8361e-07
1.0857e-05
3.35871e-07
1.08867e-05
4.83782e-07
1.0926e-05
6.24815e-07
1.09742e-05
7.56688e-07
1.10302e-05
8.77371e-07
1.1093e-05
9.85127e-07
1.11618e-05
1.0785e-06
1.12357e-05
1.15629e-06
1.13137e-05
1.21744e-06
1.13953e-05
1.26091e-06
1.14796e-05
1.28551e-06
1.15659e-05
1.29006e-06
1.16528e-05
1.27395e-06
1.17391e-05
1.23712e-06
1.18234e-05
1.1799e-06
1.19046e-05
1.10307e-06
1.19813e-05
1.00786e-06
1.20524e-05
8.95822e-07
1.21169e-05
7.68898e-07
1.21738e-05
6.29354e-07
1.22222e-05
4.79858e-07
1.22613e-05
3.2373e-07
1.22903e-05
1.65367e-07
1.23087e-05
8.49078e-09
1.23166e-05
-1.43947e-07
1.2314e-05
-2.8935e-07
1.23012e-05
-4.25516e-07
1.22786e-05
-5.50667e-07
1.2247e-05
-6.63454e-07
1.22069e-05
-7.62915e-07
1.21592e-05
-8.48419e-07
1.21046e-05
-9.19584e-07
1.20439e-05
-9.76145e-07
1.19776e-05
-1.01785e-06
1.19063e-05
-1.04449e-06
1.18309e-05
-1.0562e-06
1.17522e-05
-1.05367e-06
1.16712e-05
-1.03773e-06
1.15891e-05
-1.00928e-06
1.1507e-05
-9.69174e-07
1.14262e-05
-9.18189e-07
1.13481e-05
-8.56959e-07
1.12742e-05
-7.85994e-07
1.12058e-05
-7.05715e-07
1.11445e-05
-6.16527e-07
1.10912e-05
-5.18911e-07
1.10471e-05
-4.13535e-07
1.10127e-05
-3.01347e-07
1.09884e-05
-1.83635e-07
1.09744e-05
-6.21086e-08
1.09704e-05
6.0933e-08
1.0976e-05
1.83148e-07
1.09908e-05
3.02547e-07
1.10141e-05
4.1721e-07
1.10453e-05
5.25344e-07
1.10837e-05
6.25335e-07
1.11286e-05
7.1576e-07
1.11791e-05
7.95411e-07
1.12346e-05
8.63276e-07
1.12943e-05
9.18496e-07
1.13576e-05
9.60286e-07
1.14239e-05
9.87817e-07
1.14926e-05
1.00023e-06
1.15626e-05
9.9692e-07
1.1633e-05
9.77798e-07
1.17027e-05
9.43001e-07
1.17708e-05
8.92993e-07
1.18362e-05
8.28551e-07
1.1898e-05
7.50715e-07
1.19554e-05
6.60762e-07
1.20076e-05
5.60188e-07
1.20539e-05
4.50718e-07
1.20936e-05
3.34355e-07
1.21262e-05
2.13621e-07
1.21509e-05
9.16602e-08
1.21674e-05
-2.90602e-08
1.21758e-05
-1.46452e-07
1.2176e-05
-2.58655e-07
1.21681e-05
-3.64059e-07
1.21525e-05
-4.6133e-07
1.21295e-05
-5.49408e-07
1.20996e-05
-6.27494e-07
1.20634e-05
-6.95e-07
1.20214e-05
-7.51495e-07
1.19742e-05
-7.96624e-07
1.19222e-05
-8.30003e-07
1.18659e-05
-8.5126e-07
1.18059e-05
-8.60302e-07
1.17431e-05
-8.57454e-07
1.16784e-05
-8.43159e-07
1.16127e-05
-8.17944e-07
1.15469e-05
-7.82414e-07
1.14822e-05
-7.372e-07
1.14196e-05
-6.82935e-07
1.13601e-05
-6.20258e-07
1.13049e-05
-5.49822e-07
1.12551e-05
-4.72317e-07
1.12114e-05
-3.88502e-07
1.11746e-05
-2.99235e-07
1.11454e-05
-2.05542e-07
1.11241e-05
-1.08697e-07
1.11109e-05
-1.03567e-08
1.11056e-05
8.78728e-08
1.11081e-05
1.84504e-07
1.11179e-05
2.78066e-07
1.11347e-05
3.67146e-07
1.1158e-05
4.50441e-07
1.11872e-05
5.26775e-07
1.12218e-05
5.95128e-07
1.12612e-05
6.54635e-07
1.13047e-05
7.04568e-07
1.13518e-05
7.44287e-07
1.1402e-05
7.73171e-07
1.14549e-05
7.90548e-07
1.15098e-05
7.95847e-07
1.15658e-05
7.88853e-07
1.16222e-05
7.6959e-07
1.1678e-05
7.38288e-07
1.17326e-05
6.95428e-07
1.17851e-05
6.41705e-07
1.18349e-05
5.77996e-07
1.18811e-05
5.05363e-07
1.19233e-05
4.24957e-07
1.19609e-05
3.383e-07
1.19934e-05
2.46353e-07
1.20201e-05
1.52959e-07
1.20408e-05
5.67441e-08
1.20552e-05
-3.43485e-08
1.20632e-05
-1.27808e-07
1.20649e-05
-2.10212e-07
1.206e-05
-2.96172e-07
1.20499e-05
-3.60692e-07
-4.55578e-07
1.09317e-05
-2.35348e-07
1.09119e-05
-1.0241e-07
1.09059e-05
3.57949e-08
1.09129e-05
1.76566e-07
1.09322e-05
3.16631e-07
1.09627e-05
4.53194e-07
1.10038e-05
5.83799e-07
1.10542e-05
7.06203e-07
1.11132e-05
8.18411e-07
1.11796e-05
9.18698e-07
1.12525e-05
1.00559e-06
1.1331e-05
1.07782e-06
1.14142e-05
1.13427e-06
1.15012e-05
1.17385e-06
1.15913e-05
1.19544e-06
1.16833e-05
1.19811e-06
1.17758e-05
1.18145e-06
1.18675e-05
1.1454e-06
1.19571e-05
1.09033e-06
1.20431e-05
1.01699e-06
1.21244e-05
9.26565e-07
1.21997e-05
8.20543e-07
1.22679e-05
7.00752e-07
1.23279e-05
5.69352e-07
1.23788e-05
4.2896e-07
1.24195e-05
2.82969e-07
1.24494e-05
1.35538e-07
1.2468e-05
-1.01385e-08
1.24754e-05
-1.51321e-07
1.24716e-05
-2.85635e-07
1.24572e-05
-4.1109e-07
1.24326e-05
-5.26093e-07
1.23986e-05
-6.29444e-07
1.2356e-05
-7.20271e-07
1.23055e-05
-7.97975e-07
1.22481e-05
-8.62141e-07
1.21844e-05
-9.12408e-07
1.21149e-05