/*--------------------------------*- C++ -*----------------------------------*\
| =========                 |                                                 |
| \\      /  F ield         | OpenFOAM: The Open Source CFD Toolbox           |
|  \\    /   O peration     | Version:  2206                                  |
|   \\  /    A nd           | Website:  www.openfoam.com                      |
|    \\/     M anipulation  |                                                 |
\*---------------------------------------------------------------------------*/
FoamFile
{
    version     2.0;
    format      ascii;
    arch        "LSB;label=32;scalar=64";
    class       volVectorField;
    location    "19.2999";
    object      U;
}
// * * * * * * * * * * * * * * * * * * * * * * * * * * * * * * * * * * * * * //

dimensions      [0 1 -1 0 0 0 0];

internalField   nonuniform List<vector> 
4796
(
(1.73668 0.34994 0)
(1.75524 0.258204 0)
(1.77387 0.1594 0)
(1.79125 0.0597425 0)
(1.80634 -0.0357998 0)
(1.81846 -0.123774 0)
(1.82711 -0.201668 0)
(1.83203 -0.268023 0)
(1.83317 -0.322351 0)
(1.8307 -0.365005 0)
(1.82494 -0.39693 0)
(1.81634 -0.419369 0)
(1.80506 -0.433631 0)
(1.79114 -0.440721 0)
(1.77521 -0.441931 0)
(1.75765 -0.439071 0)
(1.7388 -0.433621 0)
(1.71891 -0.426782 0)
(1.69805 -0.419483 0)
(1.67624 -0.412307 0)
(1.65355 -0.405404 0)
(1.63021 -0.3984 0)
(1.60661 -0.390373 0)
(1.58337 -0.379935 0)
(1.56124 -0.365448 0)
(1.54101 -0.345329 0)
(1.52337 -0.318353 0)
(1.50887 -0.28389 0)
(1.49783 -0.24201 0)
(1.49036 -0.19346 0)
(1.48649 -0.139527 0)
(1.48578 -0.0818852 0)
(1.48768 -0.0222264 0)
(1.49255 0.037392 0)
(1.49929 0.0953951 0)
(1.50763 0.150681 0)
(1.51715 0.202438 0)
(1.52737 0.250087 0)
(1.53787 0.293245 0)
(1.5483 0.331739 0)
(1.5584 0.365496 0)
(1.56798 0.394556 0)
(1.57694 0.418902 0)
(1.5852 0.438601 0)
(1.59275 0.453741 0)
(1.5995 0.464405 0)
(1.60551 0.470662 0)
(1.6115 0.471977 0)
(1.61746 0.466596 0)
(1.62339 0.453653 0)
(1.62927 0.43292 0)
(1.63514 0.404323 0)
(1.64108 0.367958 0)
(1.64706 0.324217 0)
(1.65301 0.273819 0)
(1.65885 0.217828 0)
(1.66445 0.157668 0)
(1.66964 0.0951775 0)
(1.67417 0.0327378 0)
(1.67783 -0.0278573 0)
(1.68045 -0.0852104 0)
(1.68189 -0.138163 0)
(1.68203 -0.185849 0)
(1.68079 -0.227714 0)
(1.67813 -0.263513 0)
(1.67404 -0.293286 0)
(1.66855 -0.317298 0)
(1.6617 -0.335973 0)
(1.65356 -0.349803 0)
(1.6441 -0.35923 0)
(1.63326 -0.364593 0)
(1.62125 -0.366298 0)
(1.60826 -0.36487 0)
(1.59455 -0.360579 0)
(1.58046 -0.353424 0)
(1.56634 -0.343186 0)
(1.55257 -0.329488 0)
(1.53952 -0.31191 0)
(1.52753 -0.290088 0)
(1.51687 -0.263809 0)
(1.50775 -0.233077 0)
(1.5003 -0.198133 0)
(1.49458 -0.159451 0)
(1.49057 -0.117689 0)
(1.48824 -0.0736323 0)
(1.48749 -0.0282072 0)
(1.48802 0.0174158 0)
(1.48988 0.062308 0)
(1.49276 0.105813 0)
(1.49653 0.147295 0)
(1.50104 0.186162 0)
(1.50611 0.221949 0)
(1.51159 0.25423 0)
(1.51734 0.28269 0)
(1.52325 0.307087 0)
(1.52918 0.327253 0)
(1.53504 0.343122 0)
(1.54073 0.354706 0)
(1.54613 0.362102 0)
(1.55151 0.365301 0)
(1.557 0.363342 0)
(1.56237 0.355583 0)
(1.56768 0.342001 0)
(1.57283 0.322766 0)
(1.57777 0.298138 0)
(1.58251 0.268479 0)
(1.58702 0.23427 0)
(1.59127 0.196113 0)
(1.5952 0.154737 0)
(1.59878 0.111008 0)
(1.60194 0.0659655 0)
(1.60457 0.0209204 0)
(1.60658 -0.0231248 0)
(1.60789 -0.0653787 0)
(1.60843 -0.10515 0)
(1.60812 -0.141868 0)
(1.60692 -0.175104 0)
(1.60478 -0.204568 0)
(1.60169 -0.230112 0)
(1.59765 -0.251689 0)
(1.59271 -0.269352 0)
(1.58692 -0.283212 0)
(1.58038 -0.293397 0)
(1.57318 -0.300004 0)
(1.56523 -0.302983 0)
(1.55677 -0.302204 0)
(1.548 -0.297742 0)
(1.53912 -0.289626 0)
(1.53038 -0.277851 0)
(1.52203 -0.262415 0)
(1.51426 -0.24335 0)
(1.50725 -0.220758 0)
(1.50112 -0.194833 0)
(1.49597 -0.165871 0)
(1.49185 -0.134274 0)
(1.48878 -0.10054 0)
(1.48674 -0.0652378 0)
(1.7876 0.327692 0)
(1.8092 0.235963 0)
(1.82969 0.138478 0)
(1.84763 0.0415059 0)
(1.86216 -0.0505301 0)
(1.87269 -0.134378 0)
(1.87893 -0.207812 0)
(1.8808 -0.269646 0)
(1.87849 -0.319642 0)
(1.87236 -0.358333 0)
(1.86292 -0.386735 0)
(1.85056 -0.406085 0)
(1.83543 -0.41749 0)
(1.818 -0.422039 0)
(1.79896 -0.421398 0)
(1.77871 -0.417186 0)
(1.75765 -0.410682 0)
(1.73595 -0.40293 0)
(1.71364 -0.394739 0)
(1.69069 -0.386671 0)
(1.66705 -0.378967 0)
(1.64281 -0.371445 0)
(1.61826 -0.363417 0)
(1.59391 -0.353711 0)
(1.57047 -0.340821 0)
(1.54875 -0.323167 0)
(1.52952 -0.299407 0)
(1.51343 -0.268703 0)
(1.50093 -0.23088 0)
(1.4921 -0.186431 0)
(1.48709 -0.136367 0)
(1.48577 -0.082176 0)
(1.48682 -0.0256902 0)
(1.49134 0.0312015 0)
(1.49783 0.0870128 0)
(1.50608 0.140654 0)
(1.51567 0.191257 0)
(1.52618 0.238225 0)
(1.5372 0.281125 0)
(1.54842 0.319698 0)
(1.55956 0.353781 0)
(1.57045 0.383328 0)
(1.58094 0.408303 0)
(1.59095 0.428703 0)
(1.60043 0.444552 0)
(1.60933 0.455855 0)
(1.61779 0.46254 0)
(1.62635 0.463863 0)
(1.63486 0.458439 0)
(1.6434 0.445544 0)
(1.65192 0.424863 0)
(1.66035 0.396306 0)
(1.66866 0.360014 0)
(1.67676 0.31642 0)
(1.68454 0.266288 0)
(1.69185 0.210708 0)
(1.69855 0.151125 0)
(1.70443 0.0894648 0)
(1.70921 0.0281226 0)
(1.71272 -0.0311907 0)
(1.7148 -0.0870983 0)
(1.71537 -0.138482 0)
(1.71434 -0.184521 0)
(1.7117 -0.224707 0)
(1.70749 -0.258837 0)
(1.70175 -0.286982 0)
(1.69457 -0.309425 0)
(1.68604 -0.326597 0)
(1.67621 -0.338962 0)
(1.66504 -0.346923 0)
(1.65257 -0.350872 0)
(1.63904 -0.351386 0)
(1.62458 -0.349048 0)
(1.60946 -0.344169 0)
(1.594 -0.336803 0)
(1.57854 -0.326762 0)
(1.56345 -0.313683 0)
(1.54911 -0.297122 0)
(1.53587 -0.276671 0)
(1.52403 -0.252049 0)
(1.51381 -0.223178 0)
(1.50538 -0.190216 0)
(1.49881 -0.153555 0)
(1.49411 -0.113784 0)
(1.49124 -0.0716359 0)
(1.49011 -0.0279868 0)
(1.49055 0.0161021 0)
(1.49234 0.0596472 0)
(1.49532 0.101981 0)
(1.49935 0.142468 0)
(1.50426 0.180522 0)
(1.50988 0.215669 0)
(1.51606 0.247484 0)
(1.52266 0.275635 0)
(1.52954 0.299865 0)
(1.53656 0.319997 0)
(1.54365 0.335938 0)
(1.55067 0.347662 0)
(1.55753 0.3552 0)
(1.56448 0.358393 0)
(1.57153 0.356365 0)
(1.5785 0.348666 0)
(1.5854 0.335252 0)
(1.59212 0.316245 0)
(1.59857 0.291891 0)
(1.60471 0.262551 0)
(1.61047 0.22871 0)
(1.61581 0.190977 0)
(1.62064 0.150086 0)
(1.62492 0.106909 0)
(1.62855 0.062521 0)
(1.63142 0.0182473 0)
(1.63345 -0.0249449 0)
(1.63457 -0.0662654 0)
(1.63473 -0.105029 0)
(1.63388 -0.140683 0)
(1.63198 -0.172818 0)
(1.62903 -0.201166 0)
(1.62503 -0.225598 0)
(1.62003 -0.246104 0)
(1.61407 -0.26276 0)
(1.60723 -0.275689 0)
(1.5996 -0.28503 0)
(1.59121 -0.290856 0)
(1.58206 -0.293122 0)
(1.57242 -0.291847 0)
(1.56245 -0.287156 0)
(1.55239 -0.279085 0)
(1.5425 -0.267624 0)
(1.53302 -0.252754 0)
(1.52418 -0.234475 0)
(1.51616 -0.212847 0)
(1.50911 -0.188019 0)
(1.50315 -0.160244 0)
(1.49834 -0.129882 0)
(1.4947 -0.0973912 0)
(1.49224 -0.0633079 0)
(1.83856 0.30167 0)
(1.86276 0.211212 0)
(1.88456 0.116475 0)
(1.90256 0.0235057 0)
(1.91607 -0.0638244 0)
(1.92466 -0.142545 0)
(1.92821 -0.21075 0)
(1.92689 -0.267536 0)
(1.92108 -0.312906 0)
(1.91134 -0.347508 0)
(1.89825 -0.372375 0)
(1.88217 -0.388622 0)
(1.86346 -0.397299 0)
(1.84294 -0.3998 0)
(1.82119 -0.397821 0)
(1.79867 -0.39274 0)
(1.77575 -0.385654 0)
(1.75259 -0.377425 0)
(1.72918 -0.368721 0)
(1.70543 -0.360049 0)
(1.6812 -0.351709 0)
(1.65645 -0.343684 0)
(1.63135 -0.335533 0)
(1.60628 -0.326343 0)
(1.58188 -0.314805 0)
(1.55896 -0.29941 0)
(1.53834 -0.278747 0)
(1.52076 -0.251796 0)
(1.50674 -0.218125 0)
(1.49656 -0.177958 0)
(1.49027 -0.132087 0)
(1.48775 -0.0817611 0)
(1.48869 -0.0287097 0)
(1.49253 0.0253314 0)
(1.49869 0.0788265 0)
(1.50679 0.130643 0)
(1.5164 0.179894 0)
(1.52714 0.225937 0)
(1.53863 0.268293 0)
(1.55057 0.306648 0)
(1.5627 0.340777 0)
(1.57482 0.370554 0)
(1.58678 0.3959 0)
(1.5985 0.416758 0)
(1.60991 0.433077 0)
(1.62097 0.444779 0)
(1.63182 0.451661 0)
(1.64289 0.452902 0)
(1.65394 0.447381 0)
(1.66505 0.4345 0)
(1.67613 0.413922 0)
(1.68703 0.385556 0)
(1.69763 0.349575 0)
(1.70778 0.306443 0)
(1.7173 0.25694 0)
(1.72601 0.202181 0)
(1.73371 0.143631 0)
(1.74016 0.0832735 0)
(1.74508 0.0234948 0)
(1.74833 -0.0340941 0)
(1.74979 -0.0881567 0)
(1.7494 -0.137622 0)
(1.74716 -0.181726 0)
(1.74311 -0.22002 0)
(1.73733 -0.252345 0)
(1.72994 -0.278793 0)
(1.72108 -0.299656 0)
(1.71088 -0.315335 0)
(1.69939 -0.326252 0)
(1.68656 -0.332791 0)
(1.67258 -0.335426 0)
(1.65762 -0.334863 0)
(1.64182 -0.331697 0)
(1.62544 -0.326286 0)
(1.60875 -0.318742 0)
(1.59208 -0.30892 0)
(1.57578 -0.29648 0)
(1.56025 -0.280973 0)
(1.54585 -0.26195 0)
(1.5329 -0.239065 0)
(1.52165 -0.21216 0)
(1.51229 -0.181306 0)
(1.50492 -0.146811 0)
(1.49955 -0.109193 0)
(1.49616 -0.0691352 0)
(1.49465 -0.0274456 0)
(1.49486 0.0149237 0)
(1.4966 0.0569558 0)
(1.49968 0.0979471 0)
(1.50395 0.13727 0)
(1.50925 0.174346 0)
(1.51542 0.208693 0)
(1.5223 0.239884 0)
(1.52972 0.267571 0)
(1.53757 0.291486 0)
(1.54569 0.311437 0)
(1.554 0.327307 0)
(1.56236 0.339037 0)
(1.57068 0.346594 0)
(1.5792 0.349706 0)
(1.58782 0.347608 0)
(1.59638 0.339965 0)
(1.60488 0.326729 0)
(1.61315 0.308002 0)
(1.62109 0.284019 0)
(1.62862 0.255137 0)
(1.63563 0.221837 0)
(1.64204 0.184731 0)
(1.64775 0.144552 0)
(1.65269 0.102174 0)
(1.65676 0.0587002 0)
(1.65983 0.0154521 0)
(1.66184 -0.0266424 0)
(1.66273 -0.0668013 0)
(1.66246 -0.104357 0)
(1.66101 -0.138773 0)
(1.65837 -0.169659 0)
(1.65456 -0.196775 0)
(1.64964 -0.220017 0)
(1.64364 -0.23939 0)
(1.63666 -0.254989 0)
(1.62877 -0.266952 0)
(1.62005 -0.2754 0)
(1.6105 -0.280389 0)
(1.60023 -0.281935 0)
(1.58946 -0.28018 0)
(1.57837 -0.275269 0)
(1.56719 -0.267253 0)
(1.5562 -0.256129 0)
(1.54564 -0.241865 0)
(1.53575 -0.224435 0)
(1.52674 -0.20386 0)
(1.51879 -0.180242 0)
(1.51202 -0.153784 0)
(1.50652 -0.124798 0)
(1.50233 -0.0936969 0)
(1.49944 -0.0609847 0)
(1.88778 0.272448 0)
(1.91401 0.184479 0)
(1.93652 0.0940423 0)
(1.9541 0.00627842 0)
(1.9662 -0.0752616 0)
(1.97257 -0.147984 0)
(1.9733 -0.210316 0)
(1.96876 -0.26166 0)
(1.95954 -0.302202 0)
(1.94633 -0.332659 0)
(1.92971 -0.354006 0)
(1.91018 -0.367241 0)
(1.8884 -0.373565 0)
(1.86528 -0.374554 0)
(1.84132 -0.371717 0)
(1.81703 -0.366225 0)
(1.7927 -0.358986 0)
(1.76847 -0.350681 0)
(1.74431 -0.341829 0)
(1.7201 -0.332841 0)
(1.69565 -0.324029 0)
(1.67078 -0.31553 0)
(1.64553 -0.307147 0)
(1.62014 -0.29824 0)
(1.59515 -0.287752 0)
(1.57131 -0.274327 0)
(1.54949 -0.256553 0)
(1.53052 -0.233257 0)
(1.51504 -0.203753 0)
(1.50347 -0.167983 0)
(1.49593 -0.126498 0)
(1.49233 -0.08037 0)
(1.49238 -0.0310315 0)
(1.49559 0.0199695 0)
(1.50139 0.0709853 0)
(1.50929 0.12076 0)
(1.51889 0.168418 0)
(1.52983 0.21328 0)
(1.54175 0.254823 0)
(1.55436 0.292676 0)
(1.56742 0.326569 0)
(1.58071 0.356303 0)
(1.59409 0.381744 0)
(1.60746 0.402783 0)
(1.62076 0.419309 0)
(1.63393 0.431167 0)
(1.64711 0.438047 0)
(1.6606 0.439126 0)
(1.67411 0.433491 0)
(1.6877 0.420627 0)
(1.70122 0.400219 0)
(1.71445 0.372199 0)
(1.72722 0.336761 0)
(1.73931 0.294392 0)
(1.75048 0.245882 0)
(1.76048 0.192356 0)
(1.76907 0.135313 0)
(1.77596 0.0767652 0)
(1.78089 0.0190156 0)
(1.78376 -0.0364284 0)
(1.78449 -0.0882773 0)
(1.78309 -0.135519 0)
(1.77962 -0.177454 0)
(1.77417 -0.213676 0)
(1.76688 -0.244071 0)
(1.75792 -0.26876 0)
(1.74747 -0.288021 0)
(1.73567 -0.302222 0)
(1.72257 -0.311729 0)
(1.70822 -0.316921 0)
(1.69287 -0.318384 0)
(1.67662 -0.316862 0)
(1.65964 -0.312957 0)
(1.64215 -0.307075 0)
(1.62438 -0.299381 0)
(1.60665 -0.289786 0)
(1.58928 -0.277988 0)
(1.57266 -0.263547 0)
(1.55718 -0.245988 0)
(1.54317 -0.224907 0)
(1.53093 -0.200066 0)
(1.52066 -0.171443 0)
(1.5125 -0.139259 0)
(1.50647 -0.10395 0)
(1.50255 -0.0661303 0)
(1.50066 -0.0265545 0)
(1.50066 0.0139042 0)
(1.50234 0.0542492 0)
(1.50551 0.0937281 0)
(1.51002 0.13172 0)
(1.51571 0.167651 0)
(1.52241 0.201032 0)
(1.52997 0.231434 0)
(1.53822 0.2585 0)
(1.54702 0.281948 0)
(1.55623 0.301573 0)
(1.56575 0.317237 0)
(1.57544 0.328846 0)
(1.58521 0.336302 0)
(1.59528 0.33926 0)
(1.60545 0.337073 0)
(1.61559 0.329484 0)
(1.62565 0.31645 0)
(1.63545 0.298062 0)
(1.64484 0.274548 0)
(1.65371 0.246262 0)
(1.66192 0.213679 0)
(1.66936 0.177403 0)
(1.67592 0.138164 0)
(1.68149 0.0968354 0)
(1.68596 0.0545348 0)
(1.6892 0.0125726 0)
(1.69114 -0.0281746 0)
(1.69176 -0.0669402 0)
(1.69102 -0.103077 0)
(1.68893 -0.136076 0)
(1.68552 -0.165577 0)
(1.68084 -0.191362 0)
(1.67496 -0.213342 0)
(1.66798 -0.231542 0)
(1.65998 -0.246061 0)
(1.65107 -0.257025 0)
(1.64128 -0.264544 0)
(1.63064 -0.268676 0)
(1.61933 -0.269521 0)
(1.60751 -0.267301 0)
(1.59538 -0.262177 0)
(1.58317 -0.254224 0)
(1.57115 -0.243449 0)
(1.55957 -0.229817 0)
(1.54869 -0.213281 0)
(1.53874 -0.193827 0)
(1.5299 -0.171511 0)
(1.52234 -0.146485 0)
(1.51615 -0.119008 0)
(1.51139 -0.0894457 0)
(1.50807 -0.0582613 0)
(1.9337 0.240644 0)
(1.96131 0.156584 0)
(1.98394 0.0717075 0)
(2.00065 -0.0097137 0)
(2.01101 -0.0845172 0)
(2.01497 -0.150512 0)
(2.01282 -0.206491 0)
(2.00515 -0.252119 0)
(1.99271 -0.28772 0)
(1.97624 -0.314024 0)
(1.9564 -0.331915 0)
(1.93389 -0.342436 0)
(1.90969 -0.346944 0)
(1.88453 -0.346949 0)
(1.85899 -0.34371 0)
(1.83346 -0.338209 0)
(1.80822 -0.331182 0)
(1.78334 -0.323145 0)
(1.75878 -0.314467 0)
(1.73441 -0.305454 0)
(1.71003 -0.296386 0)
(1.68542 -0.28747 0)
(1.66043 -0.278729 0)
(1.63515 -0.269843 0)
(1.60997 -0.260044 0)
(1.58556 -0.248201 0)
(1.56275 -0.232989 0)
(1.54247 -0.213149 0)
(1.5255 -0.187773 0)
(1.5124 -0.156494 0)
(1.50344 -0.119563 0)
(1.49861 -0.0777892 0)
(1.49764 -0.0323966 0)
(1.5001 0.0152005 0)
(1.50546 0.0634888 0)
(1.51314 0.111008 0)
(1.5227 0.156847 0)
(1.53382 0.200285 0)
(1.54614 0.240757 0)
(1.55938 0.277838 0)
(1.57331 0.311213 0)
(1.58772 0.340627 0)
(1.60245 0.365891 0)
(1.61741 0.386847 0)
(1.63251 0.40333 0)
(1.64771 0.415122 0)
(1.6631 0.421826 0)
(1.67888 0.422666 0)
(1.69472 0.416897 0)
(1.71064 0.404073 0)
(1.72644 0.383917 0)
(1.74187 0.356388 0)
(1.75666 0.321707 0)
(1.77052 0.280391 0)
(1.78315 0.233252 0)
(1.79426 0.181397 0)
(1.80356 0.126313 0)
(1.81075 0.0700795 0)
(1.8156 0.0147907 0)
(1.81802 -0.038105 0)
(1.818 -0.0873958 0)
(1.8156 -0.132143 0)
(1.81091 -0.171704 0)
(1.80412 -0.205727 0)
(1.7954 -0.234124 0)
(1.78499 -0.257011 0)
(1.77307 -0.274659 0)
(1.75979 -0.287391 0)
(1.74524 -0.295534 0)
(1.72955 -0.299502 0)
(1.71298 -0.299944 0)
(1.69562 -0.297586 0)
(1.67765 -0.293039 0)
(1.65923 -0.286743 0)
(1.64058 -0.27892 0)
(1.62195 -0.269543 0)
(1.60367 -0.258363 0)
(1.5861 -0.244966 0)
(1.56963 -0.228869 0)
(1.55463 -0.209623 0)
(1.54143 -0.186913 0)
(1.53027 -0.160626 0)
(1.5213 -0.130882 0)
(1.5146 -0.0980329 0)
(1.51014 -0.0626206 0)
(1.50786 -0.0253301 0)
(1.50763 0.0130382 0)
(1.50924 0.0515248 0)
(1.5125 0.0893251 0)
(1.51724 0.125821 0)
(1.5233 0.160444 0)
(1.53052 0.192694 0)
(1.53874 0.222149 0)
(1.5478 0.248438 0)
(1.55753 0.27127 0)
(1.56782 0.290427 0)
(1.57852 0.305749 0)
(1.5895 0.31711 0)
(1.60071 0.32435 0)
(1.61226 0.327088 0)
(1.62395 0.324792 0)
(1.63562 0.317263 0)
(1.64719 0.304462 0)
(1.65845 0.28648 0)
(1.66923 0.263541 0)
(1.67938 0.23599 0)
(1.68874 0.204298 0)
(1.69716 0.169054 0)
(1.7045 0.130977 0)
(1.71064 0.0909449 0)
(1.71544 0.0500923 0)
(1.71877 0.00966715 0)
(1.72058 -0.0294914 0)
(1.72087 -0.0666439 0)
(1.71962 -0.101172 0)
(1.71689 -0.132598 0)
(1.71272 -0.160584 0)
(1.7072 -0.184939 0)
(1.70043 -0.205594 0)
(1.69251 -0.222582 0)
(1.68355 -0.235994 0)
(1.67365 -0.245946 0)
(1.66286 -0.252522 0)
(1.65123 -0.255801 0)
(1.63896 -0.255974 0)
(1.62619 -0.253303 0)
(1.61312 -0.247971 0)
(1.59998 -0.240081 0)
(1.58701 -0.22966 0)
(1.57449 -0.216674 0)
(1.56268 -0.201064 0)
(1.55182 -0.182786 0)
(1.54214 -0.161851 0)
(1.5338 -0.138361 0)
(1.52693 -0.112517 0)
(1.5216 -0.0846352 0)
(1.51784 -0.0551278 0)
(1.97522 0.206997 0)
(2.0035 0.128196 0)
(2.0257 0.0500176 0)
(2.0411 -0.0240549 0)
(2.04941 -0.0913221 0)
(2.0508 -0.150033 0)
(2.04579 -0.199329 0)
(2.03513 -0.239097 0)
(2.01968 -0.269749 0)
(2.00026 -0.29197 0)
(1.97769 -0.306645 0)
(1.95295 -0.314927 0)
(1.92699 -0.31818 0)
(1.90051 -0.317681 0)
(1.87401 -0.314456 0)
(1.84786 -0.309296 0)
(1.82219 -0.302762 0)
(1.79707 -0.295228 0)
(1.77244 -0.286957 0)
(1.74819 -0.278168 0)
(1.72413 -0.269074 0)
(1.70004 -0.259895 0)
(1.67568 -0.250774 0)
(1.65097 -0.241655 0)
(1.62608 -0.232131 0)
(1.60153 -0.221367 0)
(1.57808 -0.208224 0)
(1.55666 -0.191466 0)
(1.5382 -0.17002 0)
(1.52344 -0.143231 0)
(1.51282 -0.111008 0)
(1.50649 -0.0738393 0)
(1.50427 -0.0326936 0)
(1.5058 0.0111728 0)
(1.51055 0.056375 0)
(1.51794 0.101419 0)
(1.52744 0.145208 0)
(1.53869 0.186984 0)
(1.55137 0.226135 0)
(1.5652 0.262186 0)
(1.57994 0.294772 0)
(1.5954 0.323603 0)
(1.61141 0.34843 0)
(1.62786 0.369052 0)
(1.64466 0.385258 0)
(1.66176 0.396778 0)
(1.67922 0.403158 0)
(1.6971 0.403692 0)
(1.71511 0.397777 0)
(1.73319 0.385022 0)
(1.75107 0.365198 0)
(1.76846 0.338311 0)
(1.78502 0.304637 0)
(1.8004 0.2647 0)
(1.81426 0.219298 0)
(1.82627 0.169522 0)
(1.83614 0.116827 0)
(1.8435 0.0633283 0)
(1.84818 0.0108965 0)
(1.85014 -0.0391049 0)
(1.84939 -0.0855439 0)
(1.84604 -0.127557 0)
(1.84025 -0.164574 0)
(1.83224 -0.196281 0)
(1.82225 -0.222616 0)
(1.81052 -0.243692 0)
(1.7973 -0.259737 0)
(1.78273 -0.271028 0)
(1.76692 -0.277876 0)
(1.75012 -0.280738 0)
(1.73253 -0.280293 0)
(1.71428 -0.277228 0)
(1.69551 -0.272141 0)
(1.67637 -0.265498 0)
(1.65703 -0.257564 0)
(1.6377 -0.248383 0)
(1.61868 -0.237772 0)
(1.6003 -0.225367 0)
(1.58297 -0.210695 0)
(1.56707 -0.193278 0)
(1.55295 -0.172734 0)
(1.54091 -0.148858 0)
(1.53113 -0.12167 0)
(1.52372 -0.091423 0)
(1.51869 -0.0585724 0)
(1.51599 -0.0237367 0)
(1.51549 0.0123415 0)
(1.51701 0.0487984 0)
(1.52033 0.084754 0)
(1.52529 0.11959 0)
(1.53171 0.152742 0)
(1.53942 0.183706 0)
(1.54828 0.212052 0)
(1.5581 0.237414 0)
(1.56874 0.259485 0)
(1.58005 0.278035 0)
(1.59189 0.292883 0)
(1.60413 0.303872 0)
(1.61671 0.310793 0)
(1.62968 0.313258 0)
(1.6428 0.310838 0)
(1.65593 0.30338 0)
(1.66892 0.290851 0)
(1.68156 0.273342 0)
(1.69366 0.251072 0)
(1.70503 0.224385 0)
(1.71546 0.193749 0)
(1.72478 0.159744 0)
(1.73282 0.12307 0)
(1.73945 0.0845887 0)
(1.7445 0.0454605 0)
(1.74786 0.00682391 0)
(1.74951 -0.0305141 0)
(1.74944 -0.0658509 0)
(1.74768 -0.0986033 0)
(1.7443 -0.128324 0)
(1.73938 -0.154704 0)
(1.73305 -0.177568 0)
(1.72543 -0.196857 0)
(1.71664 -0.212601 0)
(1.70681 -0.224887 0)
(1.69603 -0.233805 0)
(1.68433 -0.239431 0)
(1.67183 -0.241883 0)
(1.65872 -0.241419 0)
(1.64512 -0.238313 0)
(1.63122 -0.232776 0)
(1.61725 -0.224943 0)
(1.60345 -0.214866 0)
(1.59007 -0.202523 0)
(1.5774 -0.187852 0)
(1.5657 -0.170784 0)
(1.5552 -0.151292 0)
(1.54611 -0.129424 0)
(1.53857 -0.105326 0)
(1.53267 -0.0792534 0)
(1.52846 -0.0515656 0)
(2.01188 0.172244 0)
(2.04009 0.100067 0)
(2.0613 0.0295573 0)
(2.07489 -0.0363075 0)
(2.08079 -0.0954178 0)
(2.07943 -0.146469 0)
(2.07154 -0.18892 0)
(2.05803 -0.222833 0)
(2.03985 -0.248643 0)
(2.01796 -0.267034 0)
(1.9934 -0.278953 0)
(1.96721 -0.285587 0)
(1.94028 -0.288118 0)
(1.91322 -0.287546 0)
(1.88645 -0.284669 0)
(1.8602 -0.280084 0)
(1.83458 -0.274211 0)
(1.80958 -0.267334 0)
(1.7852 -0.259641 0)
(1.76132 -0.251273 0)
(1.73779 -0.242372 0)
(1.71441 -0.233116 0)
(1.69094 -0.223692 0)
(1.66717 -0.214217 0)
(1.64307 -0.204589 0)
(1.6189 -0.194356 0)
(1.59528 -0.182663 0)
(1.57308 -0.168415 0)
(1.55328 -0.150493 0)
(1.53679 -0.128011 0)
(1.5243 -0.100533 0)
(1.51614 -0.0681804 0)
(1.51233 -0.0316056 0)
(1.5126 0.00815409 0)
(1.51648 0.0498412 0)
(1.52339 0.0920885 0)
(1.53273 0.133566 0)
(1.54405 0.173426 0)
(1.55703 0.211007 0)
(1.57139 0.245778 0)
(1.58688 0.277324 0)
(1.6033 0.305315 0)
(1.6205 0.329466 0)
(1.63833 0.349524 0)
(1.6567 0.365241 0)
(1.67554 0.376305 0)
(1.69489 0.382241 0)
(1.71467 0.382421 0)
(1.73463 0.376355 0)
(1.75462 0.363715 0)
(1.77432 0.344342 0)
(1.79337 0.318304 0)
(1.81139 0.285887 0)
(1.82802 0.247614 0)
(1.84287 0.204262 0)
(1.8556 0.156905 0)
(1.86586 0.107006 0)
(1.8733 0.0566133 0)
(1.87777 0.0073738 0)
(1.87925 -0.0394386 0)
(1.87783 -0.0827864 0)
(1.87364 -0.121888 0)
(1.8669 -0.156227 0)
(1.85787 -0.185538 0)
(1.84681 -0.209767 0)
(1.834 -0.229009 0)
(1.81968 -0.243462 0)
(1.80402 -0.25336 0)
(1.7872 -0.259012 0)
(1.76951 -0.260914 0)
(1.75113 -0.259717 0)
(1.7322 -0.256057 0)
(1.71287 -0.250518 0)
(1.69323 -0.243577 0)
(1.67342 -0.235544 0)
(1.65361 -0.226526 0)
(1.63405 -0.216415 0)
(1.61504 -0.204914 0)
(1.59699 -0.191589 0)
(1.58028 -0.175951 0)
(1.5653 -0.157564 0)
(1.55239 -0.13614 0)
(1.54179 -0.111595 0)
(1.53363 -0.0840757 0)
(1.52798 -0.0539439 0)
(1.5248 -0.0217368 0)
(1.52399 0.0118741 0)
(1.52537 0.0460951 0)
(1.52873 0.0800429 0)
(1.53386 0.113058 0)
(1.5406 0.144578 0)
(1.54877 0.1741 0)
(1.55822 0.201187 0)
(1.56877 0.225472 0)
(1.58026 0.246646 0)
(1.59253 0.264456 0)
(1.60544 0.278705 0)
(1.61886 0.289206 0)
(1.63273 0.295718 0)
(1.64702 0.297867 0)
(1.66148 0.295314 0)
(1.67596 0.287935 0)
(1.69029 0.275705 0)
(1.70422 0.258727 0)
(1.71751 0.237229 0)
(1.72994 0.211557 0)
(1.74131 0.18216 0)
(1.7514 0.149599 0)
(1.76004 0.11455 0)
(1.76708 0.0778549 0)
(1.77232 0.0406864 0)
(1.77569 0.00406411 0)
(1.77716 -0.0312456 0)
(1.77675 -0.0645795 0)
(1.7745 -0.0953967 0)
(1.77053 -0.123286 0)
(1.76493 -0.147969 0)
(1.75786 -0.169286 0)
(1.74947 -0.187184 0)
(1.7399 -0.201685 0)
(1.72928 -0.212848 0)
(1.71771 -0.220737 0)
(1.70524 -0.225424 0)
(1.69203 -0.227074 0)
(1.67821 -0.22599 0)
(1.66391 -0.222459 0)
(1.64932 -0.216717 0)
(1.63464 -0.20893 0)
(1.62011 -0.199178 0)
(1.60598 -0.187462 0)
(1.59254 -0.173724 0)
(1.58006 -0.157882 0)
(1.5688 -0.139874 0)
(1.55898 -0.119697 0)
(1.55077 -0.097439 0)
(1.5443 -0.0732935 0)
(1.53963 -0.047563 0)
(2.04424 0.137266 0)
(2.07147 0.0728041 0)
(2.09086 0.0109804 0)
(2.1019 -0.0459164 0)
(2.10484 -0.0964371 0)
(2.10043 -0.139678 0)
(2.08964 -0.175332 0)
(2.07346 -0.203583 0)
(2.05299 -0.224888 0)
(2.02934 -0.239965 0)
(2.00367 -0.249781 0)
(1.97692 -0.255366 0)
(1.94984 -0.257631 0)
(1.92291 -0.257314 0)
(1.89645 -0.254994 0)
(1.8706 -0.251111 0)
(1.84543 -0.245987 0)
(1.82092 -0.23984 0)
(1.79706 -0.232812 0)
(1.77376 -0.224995 0)
(1.75092 -0.216467 0)
(1.72838 -0.20734 0)
(1.70594 -0.197779 0)
(1.68336 -0.187963 0)
(1.66046 -0.178 0)
(1.63726 -0.167776 0)
(1.61409 -0.156836 0)
(1.59165 -0.144354 0)
(1.57088 -0.129305 0)
(1.55278 -0.110702 0)
(1.53828 -0.0878209 0)
(1.52797 -0.0603977 0)
(1.52214 -0.0287006 0)
(1.5207 0.00653489 0)
(1.52328 0.0442439 0)
(1.52937 0.0831862 0)
(1.53834 0.122049 0)
(1.5496 0.159711 0)
(1.56278 0.195456 0)
(1.57757 0.228697 0)
(1.59371 0.258962 0)
(1.611 0.285878 0)
(1.62926 0.309127 0)
(1.64834 0.328418 0)
(1.66812 0.343458 0)
(1.68852 0.35391 0)
(1.70954 0.359306 0)
(1.73099 0.359104 0)
(1.75263 0.352914 0)
(1.77423 0.340483 0)
(1.79541 0.321719 0)
(1.8158 0.296713 0)
(1.835 0.265765 0)
(1.85261 0.229401 0)
(1.86822 0.188386 0)
(1.88146 0.14376 0)
(1.89197 0.096996 0)
(1.89938 0.0500114 0)
(1.90361 0.00423691 0)
(1.90466 -0.0391636 0)
(1.90267 -0.0792453 0)
(1.8978 -0.115305 0)
(1.89031 -0.146886 0)
(1.88049 -0.17375 0)
(1.86861 -0.195845 0)
(1.85498 -0.213249 0)
(1.83983 -0.226114 0)
(1.82335 -0.234653 0)
(1.80579 -0.239199 0)
(1.78745 -0.24026 0)
(1.7685 -0.238438 0)
(1.74912 -0.234313 0)
(1.72943 -0.22843 0)
(1.70951 -0.221254 0)
(1.68947 -0.213124 0)
(1.6694 -0.204217 0)
(1.64952 -0.194512 0)
(1.63009 -0.183792 0)
(1.61148 -0.17169 0)
(1.59409 -0.157734 0)
(1.57833 -0.141451 0)
(1.56458 -0.122475 0)
(1.55314 -0.100624 0)
(1.5442 -0.0759351 0)
(1.53786 -0.0486615 0)
(1.53412 -0.0192526 0)
(1.53291 0.0116972 0)
(1.53408 0.0434782 0)
(1.5374 0.0752442 0)
(1.54266 0.106272 0)
(1.54966 0.136003 0)
(1.55824 0.163931 0)
(1.56821 0.189616 0)
(1.57942 0.212685 0)
(1.59168 0.232825 0)
(1.60484 0.249774 0)
(1.61873 0.263309 0)
(1.63324 0.273218 0)
(1.64828 0.279241 0)
(1.66379 0.281033 0)
(1.67947 0.278331 0)
(1.69519 0.271041 0)
(1.71069 0.259163 0)
(1.72572 0.242812 0)
(1.74003 0.222211 0)
(1.75338 0.197694 0)
(1.76553 0.169692 0)
(1.77628 0.138743 0)
(1.78543 0.105505 0)
(1.79279 0.0708211 0)
(1.79819 0.0358227 0)
(1.80153 0.00141366 0)
(1.80282 -0.0316869 0)
(1.80209 -0.0628634 0)
(1.79942 -0.0916196 0)
(1.79493 -0.117581 0)
(1.78876 -0.140495 0)
(1.78108 -0.16022 0)
(1.77204 -0.176702 0)
(1.76183 -0.189947 0)
(1.75056 -0.199988 0)
(1.73833 -0.206862 0)
(1.72522 -0.210646 0)
(1.71142 -0.211545 0)
(1.69702 -0.209868 0)
(1.68218 -0.205913 0)
(1.66704 -0.199948 0)
(1.65179 -0.192179 0)
(1.63666 -0.182722 0)
(1.62189 -0.171601 0)
(1.60777 -0.158773 0)
(1.59459 -0.14415 0)
(1.58262 -0.127644 0)
(1.57212 -0.109205 0)
(1.56327 -0.0888622 0)
(1.55623 -0.0667459 0)
(1.55108 -0.0430942 0)
(2.07408 0.103429 0)
(2.09851 0.0476668 0)
(2.11447 -0.0045714 0)
(2.12181 -0.0518881 0)
(2.12103 -0.0936968 0)
(2.1133 -0.129399 0)
(2.09972 -0.15869 0)
(2.08132 -0.181799 0)
(2.05931 -0.19925 0)
(2.03489 -0.211772 0)
(2.00907 -0.220178 0)
(1.98264 -0.225224 0)
(1.95615 -0.227548 0)
(1.92997 -0.22767 0)
(1.90431 -0.226 0)
(1.87928 -0.222861 0)
(1.85491 -0.218495 0)
(1.83118 -0.213079 0)
(1.80807 -0.206729 0)
(1.78552 -0.199513 0)
(1.76348 -0.191474 0)
(1.74184 -0.182667 0)
(1.72048 -0.173192 0)
(1.6992 -0.163204 0)
(1.67776 -0.152885 0)
(1.65601 -0.142351 0)
(1.63399 -0.131509 0)
(1.61207 -0.119941 0)
(1.59099 -0.106896 0)
(1.57172 -0.0914262 0)
(1.55531 -0.0726782 0)
(1.54267 -0.0500594 0)
(1.53438 -0.0234173 0)
(1.53066 0.00689879 0)
(1.53136 0.0401123 0)
(1.53608 0.0751675 0)
(1.54423 0.110885 0)
(1.55516 0.146011 0)
(1.56834 0.179619 0)
(1.5834 0.211062 0)
(1.60005 0.23981 0)
(1.61807 0.26543 0)
(1.63724 0.287569 0)
(1.65741 0.305904 0)
(1.67842 0.320111 0)
(1.70018 0.329829 0)
(1.72262 0.334624 0)
(1.74549 0.334052 0)
(1.7685 0.327809 0)
(1.79137 0.315707 0)
(1.81372 0.297689 0)
(1.83514 0.273881 0)
(1.85521 0.244597 0)
(1.87352 0.210357 0)
(1.88966 0.171906 0)
(1.90323 0.130279 0)
(1.91385 0.0869238 0)
(1.92118 0.0435744 0)
(1.92518 0.00145209 0)
(1.9259 -0.038385 0)
(1.92348 -0.07509 0)
(1.91813 -0.108037 0)
(1.91013 -0.136813 0)
(1.89977 -0.161205 0)
(1.88736 -0.181155 0)
(1.87318 -0.196713 0)
(1.85746 -0.208003 0)
(1.84044 -0.215231 0)
(1.82242 -0.218752 0)
(1.80369 -0.219073 0)
(1.78443 -0.216725 0)
(1.76481 -0.212231 0)
(1.74497 -0.206092 0)
(1.72497 -0.198749 0)
(1.70488 -0.190552 0)
(1.68478 -0.18172 0)
(1.66481 -0.17232 0)
(1.6452 -0.162247 0)
(1.62626 -0.151207 0)
(1.60835 -0.138763 0)
(1.59191 -0.124456 0)
(1.57738 -0.107872 0)
(1.56509 -0.0887233 0)
(1.55531 -0.0669309 0)
(1.5482 -0.0426361 0)
(1.54381 -0.0161822 0)
(1.5421 0.0119206 0)
(1.54294 0.0410416 0)
(1.54613 0.0704361 0)
(1.55142 0.0993119 0)
(1.55861 0.127094 0)
(1.56751 0.153279 0)
(1.57793 0.177421 0)
(1.5897 0.199142 0)
(1.60264 0.218123 0)
(1.61658 0.234091 0)
(1.63136 0.246805 0)
(1.64684 0.256025 0)
(1.66294 0.261483 0)
(1.67951 0.262888 0)
(1.69625 0.260053 0)
(1.713 0.252904 0)
(1.72948 0.241449 0)
(1.74544 0.225806 0)
(1.76059 0.2062 0)
(1.7747 0.18295 0)
(1.7875 0.156478 0)
(1.79878 0.127298 0)
(1.80833 0.0960406 0)
(1.81594 0.0635556 0)
(1.82142 0.0309062 0)
(1.82473 -0.00112407 0)
(1.82586 -0.0318686 0)
(1.82487 -0.0607658 0)
(1.82186 -0.0873636 0)
(1.81697 -0.111326 0)
(1.81036 -0.132427 0)
(1.80222 -0.150533 0)
(1.79271 -0.165585 0)
(1.78202 -0.177568 0)
(1.77026 -0.186485 0)
(1.75753 -0.192349 0)
(1.74396 -0.195253 0)
(1.72971 -0.195433 0)
(1.71487 -0.19319 0)
(1.6996 -0.188828 0)
(1.68404 -0.182636 0)
(1.66836 -0.174853 0)
(1.65276 -0.165636 0)
(1.63747 -0.155055 0)
(1.62278 -0.143095 0)
(1.60899 -0.129671 0)
(1.59639 -0.114669 0)
(1.58525 -0.0979956 0)
(1.5758 -0.0796205 0)
(1.5682 -0.0596111 0)
(1.56256 -0.0381431 0)
(2.10176 0.0736718 0)
(2.12045 0.0276905 0)
(2.13024 -0.014922 0)
(2.13247 -0.0533026 0)
(2.12872 -0.0870969 0)
(2.11748 -0.115829 0)
(2.10167 -0.139475 0)
(2.08201 -0.158335 0)
(2.05963 -0.17287 0)
(2.03555 -0.183639 0)
(2.01056 -0.191192 0)
(1.98521 -0.196024 0)
(1.95992 -0.198566 0)
(1.93496 -0.199175 0)
(1.91047 -0.198143 0)
(1.88655 -0.195703 0)
(1.86322 -0.192043 0)
(1.84048 -0.187306 0)
(1.81829 -0.181594 0)
(1.79663 -0.17497 0)
(1.77547 -0.167466 0)
(1.75476 -0.159108 0)
(1.73444 -0.149938 0)
(1.71442 -0.140043 0)
(1.6945 -0.129566 0)
(1.67448 -0.118692 0)
(1.65418 -0.107557 0)
(1.63364 -0.0961184 0)
(1.61321 -0.0840409 0)
(1.59365 -0.070691 0)
(1.5759 -0.0552229 0)
(1.56107 -0.0368907 0)
(1.55008 -0.0152057 0)
(1.54352 0.00993901 0)
(1.54162 0.0381833 0)
(1.54419 0.0687562 0)
(1.5508 0.100628 0)
(1.56084 0.132692 0)
(1.57365 0.163785 0)
(1.5887 0.193101 0)
(1.60563 0.220051 0)
(1.62417 0.244147 0)
(1.64406 0.264978 0)
(1.66512 0.282187 0)
(1.68717 0.295424 0)
(1.71005 0.304326 0)
(1.73365 0.308505 0)
(1.75763 0.307609 0)
(1.7817 0.301404 0)
(1.80554 0.28974 0)
(1.82874 0.272607 0)
(1.85089 0.250155 0)
(1.87155 0.222705 0)
(1.89031 0.190767 0)
(1.90676 0.155071 0)
(1.92052 0.116621 0)
(1.93114 0.0768963 0)
(1.93839 0.0373056 0)
(1.94224 -0.00105862 0)
(1.94275 -0.0372582 0)
(1.9401 -0.0705409 0)
(1.9345 -0.100346 0)
(1.92625 -0.126303 0)
(1.91562 -0.148213 0)
(1.90293 -0.166007 0)
(1.88846 -0.179711 0)
(1.87244 -0.189432 0)
(1.85514 -0.195393 0)
(1.83693 -0.197968 0)
(1.81804 -0.197628 0)
(1.79869 -0.194837 0)
(1.77907 -0.190058 0)
(1.75927 -0.183738 0)
(1.73938 -0.176285 0)
(1.71944 -0.168046 0)
(1.6995 -0.159277 0)
(1.67966 -0.150112 0)
(1.6601 -0.140535 0)
(1.64106 -0.130353 0)
(1.62286 -0.119226 0)
(1.60593 -0.106714 0)
(1.59069 -0.092368 0)
(1.57759 -0.0758612 0)
(1.56694 -0.0569868 0)
(1.55898 -0.0357544 0)
(1.55381 -0.012393 0)
(1.55145 0.0126869 0)
(1.5518 0.0389424 0)
(1.55472 0.0657237 0)
(1.55993 0.0922774 0)
(1.56719 0.117954 0)
(1.5763 0.142249 0)
(1.58706 0.164716 0)
(1.59928 0.184967 0)
(1.61278 0.202671 0)
(1.62739 0.217542 0)
(1.64293 0.229325 0)
(1.65926 0.237772 0)
(1.67624 0.242628 0)
(1.69367 0.24366 0)
(1.71129 0.240722 0)
(1.72887 0.233751 0)
(1.74614 0.222772 0)
(1.76283 0.207909 0)
(1.77865 0.189385 0)
(1.79334 0.16751 0)
(1.80664 0.142682 0)
(1.81832 0.115391 0)
(1.82817 0.0862599 0)
(1.83594 0.0561414 0)
(1.84148 0.0259733 0)
(1.84475 -0.00355637 0)
(1.84576 -0.0318423 0)
(1.84459 -0.0583768 0)
(1.84135 -0.0827567 0)
(1.83621 -0.104682 0)