/*--------------------------------*- C++ -*----------------------------------*\
| =========                 |                                                 |
| \\      /  F ield         | OpenFOAM: The Open Source CFD Toolbox           |
|  \\    /   O peration     | Version:  2206                                  |
|   \\  /    A nd           | Website:  www.openfoam.com                      |
|    \\/     M anipulation  |                                                 |
\*---------------------------------------------------------------------------*/
FoamFile
{
    version     2.0;
    format      ascii;
    arch        "LSB;label=32;scalar=64";
    class       surfaceScalarField;
    location    "18.6";
    object      phi_0;
}
// * * * * * * * * * * * * * * * * * * * * * * * * * * * * * * * * * * * * * //

dimensions      [0 3 -1 0 0 0 0];

oriented        oriented;

internalField   nonuniform List<scalar> 
5929
(
8.36415e-06
2.175e-06
-2.30177e-06
8.49159e-06
2.36643e-06
-2.49387e-06
8.6172e-06
2.51804e-06
-2.64365e-06
8.73993e-06
2.63119e-06
-2.75392e-06
8.86039e-06
2.70609e-06
-2.82656e-06
8.98044e-06
2.73997e-06
-2.86002e-06
9.10104e-06
2.72701e-06
-2.84762e-06
9.22231e-06
2.6622e-06
-2.78346e-06
9.34434e-06
2.54117e-06
-2.66321e-06
9.46698e-06
2.36064e-06
-2.48328e-06
9.58943e-06
2.11908e-06
-2.24152e-06
9.71021e-06
1.81724e-06
-1.93803e-06
9.82728e-06
1.45887e-06
-1.57593e-06
9.93799e-06
1.05141e-06
-1.16212e-06
1.00388e-05
6.07266e-07
-7.08084e-07
1.01243e-05
1.46528e-07
-2.32051e-07
1.01904e-05
-3.06918e-07
2.40892e-07
1.02343e-05
-7.36376e-07
6.92444e-07
1.02544e-05
-1.1275e-06
1.10738e-06
1.02499e-05
-1.46907e-06
1.47356e-06
1.02209e-05
-1.75357e-06
1.78256e-06
1.01682e-05
-1.97703e-06
2.02979e-06
1.00923e-05
-2.13824e-06
2.21413e-06
9.99221e-06
-2.23681e-06
2.33689e-06
9.8666e-06
-2.27391e-06
2.39951e-06
9.719e-06
-2.25836e-06
2.40597e-06
9.55452e-06
-2.2041e-06
2.36858e-06
9.37881e-06
-2.12417e-06
2.29987e-06
9.19794e-06
-2.02866e-06
2.20953e-06
9.01781e-06
-1.92292e-06
2.10305e-06
8.84358e-06
-1.80695e-06
1.98119e-06
8.67921e-06
-1.67675e-06
1.84111e-06
8.52768e-06
-1.52691e-06
1.67844e-06
8.39137e-06
-1.35285e-06
1.48915e-06
8.2724e-06
-1.15172e-06
1.27069e-06
8.17278e-06
-9.22903e-07
1.02253e-06
8.0944e-06
-6.68049e-07
7.46424e-07
8.03888e-06
-3.90932e-07
4.46457e-07
8.00729e-06
-9.73952e-08
1.28984e-07
7.99982e-06
2.0425e-07
-1.96784e-07
8.01539e-06
5.03801e-07
-5.19369e-07
8.05218e-06
7.93147e-07
-8.29937e-07
8.10769e-06
1.06473e-06
-1.12024e-06
8.17885e-06
1.31183e-06
-1.383e-06
8.26225e-06
1.52904e-06
-1.61244e-06
8.35444e-06
1.71257e-06
-1.80475e-06
8.45233e-06
1.86023e-06
-1.95813e-06
8.55362e-06
1.97111e-06
-2.0724e-06
8.65707e-06
2.04465e-06
-2.1481e-06
8.7625e-06
2.07919e-06
-2.18461e-06
8.8691e-06
2.07204e-06
-2.17864e-06
8.97546e-06
2.0223e-06
-2.12866e-06
9.08052e-06
1.93002e-06
-2.03508e-06
9.1836e-06
1.79599e-06
-1.89906e-06
9.28416e-06
1.62158e-06
-1.72213e-06
9.38159e-06
1.40861e-06
-1.50605e-06
9.47512e-06
1.15953e-06
-1.25306e-06
9.56367e-06
8.77737e-07
-9.66294e-07
9.64572e-06
5.68398e-07
-6.50442e-07
9.71863e-06
2.40081e-07
-3.12992e-07
9.77827e-06
-9.28592e-08
3.32203e-08
9.8221e-06
-4.16592e-07
3.72764e-07
9.84804e-06
-7.2016e-07
6.94213e-07
9.85465e-06
-9.93961e-07
9.87353e-07
9.84127e-06
-1.23051e-06
1.24389e-06
9.80805e-06
-1.42482e-06
1.45804e-06
9.75562e-06
-1.57442e-06
1.62685e-06
9.68434e-06
-1.6785e-06
1.74978e-06
9.59367e-06
-1.73649e-06
1.82716e-06
9.48469e-06
-1.75033e-06
1.85931e-06
9.36169e-06
-1.72727e-06
1.85026e-06
9.22943e-06
-1.67537e-06
1.80763e-06
9.09295e-06
-1.60178e-06
1.73826e-06
8.95719e-06
-1.51168e-06
1.64744e-06
8.82638e-06
-1.40751e-06
1.53832e-06
8.70377e-06
-1.28933e-06
1.41194e-06
8.59171e-06
-1.15583e-06
1.2679e-06
8.49194e-06
-1.00549e-06
1.10526e-06
8.40593e-06
-8.3735e-07
9.23358e-07
8.335e-06
-6.51416e-07
7.22345e-07
8.28037e-06
-4.48928e-07
5.03561e-07
8.24305e-06
-2.3254e-07
2.69858e-07
8.22373e-06
-6.57271e-09
2.58955e-08
8.22237e-06
2.22391e-07
-2.21032e-07
8.23815e-06
4.47507e-07
-4.63287e-07
8.26971e-06
6.62933e-07
-6.94487e-07
8.31515e-06
8.63118e-07
-9.08564e-07
8.3722e-06
1.04319e-06
-1.10024e-06
8.43832e-06
1.19928e-06
-1.2654e-06
8.51105e-06
1.32865e-06
-1.40137e-06
8.58827e-06
1.42968e-06
-1.50691e-06
8.66862e-06
1.50146e-06
-1.58181e-06
8.75162e-06
1.54291e-06
-1.6259e-06
8.83685e-06
1.55194e-06
-1.63718e-06
8.92296e-06
1.52719e-06
-1.6133e-06
9.00854e-06
1.46877e-06
-1.55436e-06
9.09247e-06
1.37747e-06
-1.4614e-06
9.1739e-06
1.25484e-06
-1.33627e-06
9.2522e-06
1.10287e-06
-1.18117e-06
9.32686e-06
9.2386e-07
-9.98512e-07
9.3973e-06
7.20601e-07
-7.9104e-07
9.46266e-06
4.96817e-07
-5.62184e-07
9.52139e-06
2.58171e-07
-3.16896e-07
9.57047e-06
1.42795e-08
-6.33634e-08
9.60759e-06
-2.24573e-07
1.87456e-07
9.63083e-06
-4.5058e-07
4.27336e-07
9.63894e-06
-6.57269e-07
6.49163e-07
9.63152e-06
-8.39595e-07
8.47011e-07
9.60883e-06
-9.93713e-07
1.01641e-06
9.57146e-06
-1.11732e-06
1.15468e-06
9.51999e-06
-1.20945e-06
1.26092e-06
9.45425e-06
-1.2693e-06
1.33504e-06
9.37459e-06
-1.2971e-06
1.37677e-06
9.28371e-06
-1.296e-06
1.38688e-06
9.18525e-06
-1.27066e-06
1.36912e-06
9.08304e-06
-1.22542e-06
1.32762e-06
8.98092e-06
-1.16375e-06
1.26587e-06
8.88228e-06
-1.08785e-06
1.18648e-06
8.78983e-06
-9.98581e-07
1.09103e-06
8.70553e-06
-8.95956e-07
9.80257e-07
-7.79738e-07
8.54467e-07
8.29921e-06
2.04017e-06
8.43809e-06
2.22754e-06
8.57874e-06
2.37739e-06
8.72021e-06
2.48972e-06
8.863e-06
2.56331e-06
9.00822e-06
2.59475e-06
9.15607e-06
2.57916e-06
9.30613e-06
2.51214e-06
9.45768e-06
2.38961e-06
9.60954e-06
2.20879e-06
9.75987e-06
1.96875e-06
9.90627e-06
1.67085e-06
1.00458e-05
1.31933e-06
1.01749e-05
9.22305e-07
1.02888e-05
4.93324e-07
1.03812e-05
5.42107e-08
1.04482e-05
-3.73938e-07
1.04875e-05
-7.75656e-07
1.04978e-05
-1.13787e-06
1.04792e-05
-1.45042e-06
1.04323e-05
-1.70665e-06
1.03582e-05
-1.90295e-06
1.02569e-05
-2.03697e-06
1.01271e-05
-2.10699e-06
9.97038e-06
-2.11719e-06
9.79226e-06
-2.08024e-06
9.59886e-06
-2.0107e-06
9.39686e-06
-1.92217e-06
9.19307e-06
-1.82487e-06
8.99342e-06
-1.72327e-06
8.80247e-06
-1.61601e-06
8.62384e-06
-1.49811e-06
8.46033e-06
-1.36341e-06
8.31402e-06
-1.20653e-06
8.1867e-06
-1.02439e-06
8.08012e-06
-8.16329e-07
7.99599e-06
-5.83921e-07
7.93579e-06
-3.30725e-07
7.90054e-06
-6.21535e-08
7.89048e-06
2.14312e-07
7.90465e-06
4.89637e-07
7.94137e-06
7.56419e-07
7.99833e-06
1.00777e-06
8.07264e-06
1.23753e-06
8.16108e-06
1.4406e-06
8.26045e-06
1.6132e-06
8.36783e-06
1.75285e-06
8.48107e-06
1.85788e-06
8.59893e-06
1.92678e-06
8.72068e-06
1.95744e-06
8.84489e-06
1.94782e-06
8.96997e-06
1.89723e-06
9.09451e-06
1.80548e-06
9.2173e-06
1.6732e-06
9.33719e-06
1.50169e-06
9.453e-06
1.2928e-06
9.56345e-06
1.04909e-06
9.66696e-06
7.7422e-07
9.76134e-06
4.74019e-07
9.84274e-06
1.58685e-07
9.90669e-06
-1.56814e-07
9.95054e-06
-4.60439e-07
9.9723e-06
-7.41919e-07
9.97085e-06
-9.92512e-07
9.94595e-06
-1.20561e-06
9.89817e-06
-1.37704e-06
9.82821e-06
-1.50446e-06
9.73573e-06
-1.58602e-06
9.62115e-06
-1.62191e-06
9.48848e-06
-1.61766e-06
9.34291e-06
-1.5817e-06
9.19007e-06
-1.52253e-06
9.03555e-06
-1.44726e-06
8.88441e-06
-1.36055e-06
8.74071e-06
-1.2638e-06
8.60732e-06
-1.15593e-06
8.48617e-06
-1.03468e-06
8.37872e-06
-8.98046e-07
8.28628e-06
-7.44906e-07
8.21007e-06
-5.7521e-07
8.15126e-06
-3.90113e-07
8.11082e-06
-1.92104e-07
8.08943e-06
1.48196e-08
8.08705e-06
2.24768e-07
8.1029e-06
4.31657e-07
8.13568e-06
6.30159e-07
8.18358e-06
8.15211e-07
8.24445e-06
9.8232e-07
8.31591e-06
1.12782e-06
8.39563e-06
1.24893e-06
8.48163e-06
1.34368e-06
8.57257e-06
1.41051e-06
8.66774e-06
1.44774e-06
8.76608e-06
1.45361e-06
8.86592e-06
1.42735e-06
8.96576e-06
1.36893e-06
9.06421e-06
1.27902e-06
9.16011e-06
1.15894e-06
9.25248e-06
1.0105e-06
9.34044e-06
8.35903e-07
9.42299e-06
6.38047e-07
9.49873e-06
4.21081e-07
9.56505e-06
1.9185e-07
9.6185e-06
-3.91665e-08
9.65677e-06
-2.62844e-07
9.67778e-06
-4.71589e-07
9.68033e-06
-6.59819e-07
9.66485e-06
-8.24117e-07
9.63208e-06
-9.60941e-07
9.58233e-06
-1.06757e-06
9.5155e-06
-1.14262e-06
9.43182e-06
-1.18562e-06
9.33378e-06
-1.19906e-06
9.22541e-06
-1.18763e-06
9.11097e-06
-1.15623e-06
8.99474e-06
-1.10919e-06
8.88064e-06
-1.04966e-06
8.77199e-06
-9.79198e-07
8.67124e-06
-8.97828e-07
8.58004e-06
-8.04755e-07
-6.99276e-07
8.25026e-06
1.89832e-06
8.39938e-06
2.07842e-06
8.55379e-06
2.22298e-06
8.71266e-06
2.33086e-06
8.87618e-06
2.39979e-06
9.0447e-06
2.42623e-06
9.21769e-06
2.40617e-06
9.39416e-06
2.33567e-06
9.5726e-06
2.21117e-06
9.75086e-06
2.03053e-06
9.92615e-06
1.79345e-06
1.00952e-05
1.50179e-06
1.02543e-05
1.16025e-06
1.03989e-05
7.77682e-07
1.05229e-05
3.69319e-07
1.06196e-05
-4.24417e-08
1.06855e-05
-4.39838e-07
1.07185e-05
-8.08648e-07
1.07179e-05
-1.13729e-06
1.06843e-05
-1.41682e-06
1.06188e-05
-1.64117e-06
1.05222e-05
-1.80632e-06
1.03935e-05
-1.90831e-06
1.02329e-05
-1.94643e-06
1.00455e-05
-1.92979e-06
9.83778e-06
-1.87246e-06
9.61708e-06
-1.79e-06
9.39148e-06
-1.69658e-06
9.16832e-06
-1.6017e-06
8.9529e-06
-1.50785e-06
8.74904e-06
-1.41215e-06
8.55984e-06
-1.30892e-06
8.38782e-06
-1.19139e-06
8.23484e-06
-1.05355e-06
8.10235e-06
-8.91904e-07
7.99177e-06
-7.05753e-07
7.90452e-06
-4.96669e-07
7.84188e-06
-2.68089e-07
7.80482e-06
-2.50901e-08
7.79353e-06
2.25599e-07
7.80718e-06
4.75992e-07
7.84427e-06
7.19332e-07
7.90268e-06
9.49358e-07
7.97981e-06
1.1604e-06
8.07271e-06
1.34769e-06
8.17846e-06
1.50746e-06
8.29442e-06
1.63689e-06
8.41857e-06
1.73372e-06
8.54958e-06
1.79577e-06
8.68612e-06
1.8209e-06
8.82632e-06
1.80762e-06
8.96833e-06
1.75521e-06
9.11041e-06
1.6634e-06
9.25083e-06
1.53277e-06
9.38793e-06
1.36458e-06
9.52006e-06
1.16068e-06
9.64547e-06
9.23682e-07
9.76207e-06
6.57615e-07
9.86676e-06
3.6933e-07
9.95428e-06
7.11704e-08
1.00203e-05
-2.22849e-07
1.00619e-05
-5.02027e-07
1.00773e-05
-7.57286e-07
1.00659e-05
-9.81101e-07
1.00279e-05
-1.16769e-06
9.96416e-06
-1.31326e-06
9.87442e-06
-1.41472e-06
9.75867e-06
-1.47027e-06
9.62007e-06
-1.48331e-06
9.46425e-06
-1.46183e-06
9.29756e-06
-1.41501e-06
9.12659e-06
-1.35155e-06
8.95751e-06
-1.27818e-06
8.79504e-06
-1.19809e-06
8.64227e-06
-1.11103e-06
8.50137e-06
-1.01503e-06
8.37408e-06
-9.07394e-07
8.26175e-06
-7.85712e-07
8.16547e-06
-6.48634e-07
8.08635e-06
-4.96083e-07
8.02541e-06
-3.29172e-07
7.98357e-06
-1.50271e-07
7.96147e-06
3.69217e-08
7.95905e-06
2.27189e-07
7.97558e-06
4.15125e-07
8.00985e-06
5.95893e-07
8.06019e-06
7.64871e-07
8.1246e-06
9.1791e-07
8.20091e-06
1.0515e-06
8.28702e-06
1.16282e-06
8.38113e-06
1.24957e-06
8.48192e-06
1.30973e-06
8.58819e-06
1.34146e-06
8.69839e-06
1.34341e-06
8.8107e-06
1.31503e-06
8.92344e-06
1.2562e-06
9.035e-06
1.16746e-06
9.14397e-06
1.04998e-06
9.24907e-06
9.05397e-07
9.34905e-06
7.35924e-07
9.44238e-06
5.44719e-07
9.52666e-06
3.36793e-07
9.59792e-06
1.20589e-07
9.65298e-06
-9.42179e-08
9.68976e-06
-2.99633e-07
9.70635e-06
-4.88178e-07
9.70225e-06
-6.55719e-07
9.67827e-06
-8.00133e-07
9.63406e-06
-9.16738e-07
9.56957e-06
-1.00308e-06
9.48498e-06
-1.05803e-06
9.38265e-06
-1.08329e-06
9.26687e-06
-1.08329e-06
9.14247e-06
-1.06322e-06
9.01429e-06
-1.02804e-06
8.88692e-06
-9.81815e-07
8.76416e-06
-9.26896e-07
8.64869e-06
-8.63732e-07
8.54239e-06
-7.91524e-07
8.4467e-06
-7.0907e-07
-6.15275e-07
8.21438e-06
1.75013e-06
8.37284e-06
1.91996e-06
8.53989e-06
2.05593e-06
8.71478e-06
2.15598e-06
8.89729e-06
2.21728e-06
9.08691e-06
2.2366e-06
9.28251e-06
2.21058e-06
9.48251e-06
2.13567e-06
9.68462e-06
2.00906e-06
9.88581e-06
1.82935e-06
1.00824e-05
1.59681e-06
1.02705e-05
1.31369e-06
1.04457e-05
9.85081e-07
1.06027e-05
6.20745e-07
1.07334e-05
2.38554e-07
1.08319e-05
-1.40901e-07
1.08945e-05
-5.0248e-07
1.09195e-05
-8.33673e-07
1.09068e-05
-1.12455e-06
1.08574e-05
-1.36739e-06
1.07724e-05
-1.55619e-06
1.06513e-05
-1.6852e-06
1.04933e-05
-1.75037e-06
1.03024e-05
-1.75552e-06
1.0085e-05
-1.7124e-06
9.84919e-06
-1.63662e-06
9.60405e-06
-1.54486e-06
9.35875e-06
-1.45127e-06
9.12015e-06
-1.36311e-06
8.89284e-06
-1.28053e-06
8.68015e-06
-1.19946e-06
8.48458e-06
-1.11334e-06
8.30807e-06
-1.01488e-06
8.15215e-06
-8.9762e-07
8.01789e-06
-7.57651e-07
7.90636e-06
-5.9422e-07
7.81865e-06
-4.08956e-07
7.75585e-06
-2.05291e-07
7.71882e-06
1.19395e-08
7.70774e-06
2.36677e-07
7.72188e-06
4.61853e-07
7.75994e-06
6.81271e-07
7.82006e-06
8.89237e-07
7.89993e-06
1.08054e-06
7.99695e-06
1.25067e-06
8.10853e-06
1.39587e-06
8.23235e-06
1.51307e-06
8.36654e-06
1.59954e-06
8.50946e-06
1.65285e-06
8.6592e-06
1.67115e-06
8.8136e-06
1.65323e-06
8.97058e-06
1.59823e-06
9.12803e-06
1.50596e-06
9.2838e-06
1.377e-06
9.4358e-06
1.21258e-06
9.58199e-06
1.01449e-06
9.7202e-06
7.85465e-07
9.84767e-06
5.3015e-07
9.95971e-06
2.5729e-07
1.00505e-05
-1.96084e-08
1.01159e-05
-2.88215e-07
1.01524e-05
-5.38601e-07
1.01588e-05
-7.63637e-07
1.01353e-05
-9.57636e-07
1.00826e-05
-1.11502e-06
1.00006e-05
-1.23118e-06
9.88831e-06
-1.30247e-06
9.74815e-06
-1.33011e-06
9.58578e-06
-1.32095e-06
9.40826e-06
-1.2843e-06
9.22322e-06
-1.22998e-06
9.03817e-06
-1.1665e-06
8.8589e-06
-1.09891e-06
8.68897e-06
-1.02816e-06
8.53077e-06
-9.52836e-07
8.38601e-06
-8.70267e-07
8.25602e-06
-7.77404e-07
8.14191e-06
-6.71602e-07
8.0446e-06
-5.51321e-07
7.96498e-06
-4.16471e-07
7.904e-06
-2.68187e-07
7.8625e-06
-1.08769e-07
7.84106e-06
5.83585e-08
7.83961e-06
2.28634e-07
7.85751e-06
3.97227e-07
7.89366e-06
5.59743e-07
7.94657e-06
7.11962e-07
8.01445e-06
8.5003e-07
8.09538e-06
9.7057e-07
8.18752e-06
1.07068e-06
8.28924e-06
1.14785e-06
8.39906e-06
1.19991e-06
8.51533e-06
1.2252e-06
8.6361e-06
1.22264e-06
8.75952e-06
1.19161e-06
8.88373e-06
1.13198e-06
9.00696e-06
1.04423e-06
9.12757e-06
9.29375e-07
9.24399e-06
7.88968e-07
9.35457e-06
6.25346e-07
9.45695e-06
4.42339e-07
9.54707e-06
2.46678e-07
9.62035e-06
4.73106e-08
9.67386e-06
-1.47729e-07
9.70562e-06
-3.31393e-07
9.71584e-06
-4.98399e-07
9.70457e-06
-6.44448e-07
9.67007e-06
-7.65641e-07
9.61135e-06
-8.58012e-07
9.529e-06
-9.20734e-07
9.42537e-06
-9.54389e-07
9.3049e-06
-9.62826e-07
9.17297e-06
-9.5136e-07
9.03514e-06
-9.25384e-07
8.89676e-06
-8.89662e-07
8.76222e-06
-8.47277e-07
8.63442e-06
-7.99097e-07
8.51528e-06
-7.44596e-07
8.4063e-06
-6.82538e-07
8.30865e-06
-6.11427e-07
-5.29929e-07
8.18845e-06
1.59603e-06
8.35554e-06
1.75286e-06
8.53424e-06
1.87723e-06
8.72374e-06
1.96648e-06
8.9232e-06
2.01782e-06
9.13138e-06
2.02843e-06
9.3467e-06
1.99526e-06
9.56695e-06
1.91542e-06
9.78905e-06
1.78696e-06
1.00092e-05
1.60918e-06
1.02232e-05
1.38283e-06
1.04265e-05
1.11037e-06
1.06143e-05
7.97323e-07
1.07795e-05
4.55514e-07
1.09137e-05
1.04395e-07
1.10112e-05
-2.38485e-07
1.10683e-05
-5.59515e-07
1.10832e-05
-8.4863e-07
1.10568e-05
-1.09812e-06
1.09903e-05
-1.30088e-06
1.08837e-05
-1.44956e-06
1.07355e-05
-1.53706e-06
1.05478e-05
-1.56264e-06
1.03267e-05
-1.53441e-06
1.00806e-05
-1.46627e-06
9.81948e-06
-1.37553e-06
9.55439e-06
-1.27977e-06
9.2943e-06
-1.19118e-06
9.0451e-06
-1.11391e-06
8.81082e-06
-1.04625e-06
8.59412e-06
-9.82757e-07
8.39676e-06
-9.15986e-07
8.22006e-06
-8.38177e-07
8.06508e-06
-7.42641e-07
7.93252e-06
-6.25098e-07
7.82303e-06
-4.84729e-07
7.73747e-06
-3.2339e-07
7.67673e-06
-1.44553e-07
7.64156e-06
4.71091e-08
7.63214e-06
2.46094e-07
7.64785e-06
4.46145e-07
7.68761e-06
6.4151e-07
7.74985e-06
8.26998e-07
7.83259e-06
9.97802e-07
7.93363e-06
1.14963e-06
8.05076e-06
1.27874e-06
8.18197e-06
1.38186e-06
8.32535e-06
1.45615e-06
8.4788e-06
1.4994e-06
8.64e-06
1.50996e-06
8.80668e-06
1.48655e-06
8.9765e-06
1.42841e-06
9.14698e-06
1.33547e-06
9.31567e-06
1.20832e-06
9.48016e-06
1.04808e-06
9.63814e-06
8.56515e-07
9.78686e-06
6.36742e-07
9.92206e-06
3.9495e-07
1.00373e-05
1.4202e-07
1.01274e-05
-1.0972e-07
1.01885e-05
-3.49292e-07
1.02171e-05
-5.67225e-07
1.02119e-05
-7.58383e-07
1.01747e-05
-9.20397e-07
1.01049e-05
-1.04531e-06
1.00007e-05
-1.12698e-06
9.86332e-06
-1.16505e-06
9.69825e-06
-1.16504e-06
9.51317e-06
-1.13587e-06
9.31682e-06
-1.08795e-06
9.1181e-06
-1.03125e-06
8.92414e-06
-9.72551e-07
8.73937e-06
-9.14128e-07
8.56647e-06
-8.55264e-07
8.40718e-06
-7.93541e-07
8.2626e-06
-7.25687e-07
8.13357e-06
-6.48376e-07
8.02087e-06
-5.58904e-07
7.92527e-06
-4.55718e-07
7.84753e-06
-3.38732e-07
7.7885e-06
-2.09163e-07
7.74899e-06
-6.92539e-08
7.72954e-06
7.78126e-08
7.73009e-06
2.28081e-07
7.75009e-06
3.77222e-07
7.78862e-06
5.21213e-07
7.8444e-06
6.56181e-07
7.91591e-06
7.78524e-07
8.0015e-06
8.8498e-07
8.09954e-06
9.72638e-07
8.20843e-06
1.03897e-06
8.32636e-06
1.08198e-06
8.45135e-06
1.10021e-06
8.5814e-06
1.09259e-06
8.71453e-06
1.05848e-06
8.84875e-06
9.97756e-07
8.98217e-06
9.10813e-07
9.11299e-06
7.98553e-07
9.23941e-06
6.62548e-07
9.35911e-06
5.05652e-07
9.46813e-06
3.33317e-07
9.56119e-06
1.53621e-07
9.63407e-06
-2.55723e-08
9.68383e-06
-1.97491e-07
9.70923e-06
-3.56788e-07
9.71061e-06
-4.99782e-07
9.6867e-06
-6.20542e-07
9.63566e-06
-7.14596e-07
9.55799e-06
-7.80347e-07
9.45563e-06
-8.18367e-07
9.33313e-06
-8.31897e-07
9.19635e-06
-8.26047e-07
9.05149e-06
-8.06495e-07
8.90462e-06
-7.78516e-07
8.76075e-06
-7.45794e-07
8.62315e-06
-7.09671e-07
8.4939e-06
-6.69848e-07
8.37444e-06
-6.25135e-07
8.2658e-06
-5.73903e-07
8.16885e-06
-5.14479e-07
-4.45479e-07
8.16925e-06
1.43629e-06
8.34443e-06
1.57769e-06
8.53382e-06
1.68783e-06
8.73626e-06
1.76405e-06
8.95028e-06
1.8038e-06
9.17425e-06
1.80446e-06
9.40607e-06
1.76343e-06
9.64285e-06
1.67864e-06
9.88088e-06
1.54893e-06
1.01158e-05
1.37422e-06
1.03432e-05
1.15552e-06
1.05581e-05
8.95451e-07
1.07545e-05
6.00887e-07
1.09235e-05
2.86539e-07
1.10575e-05
-2.95814e-08
1.1151e-05
-3.31988e-07
1.11997e-05
-6.08225e-07
1.12018e-05
-8.50726e-07
1.11595e-05
-1.0559e-06
1.1074e-05
-1.2153e-06
1.09423e-05
-1.31793e-06
1.07646e-05
-1.35933e-06
1.05461e-05
-1.34414e-06
1.02952e-05
-1.28354e-06
1.00229e-05
-1.19391e-06
9.74159e-06
-1.09426e-06
9.46277e-06
-1.00096e-06
9.1941e-06
-9.22508e-07
8.94055e-06
-8.60363e-07
8.70532e-06
-8.11021e-07
8.49021e-06
-7.67648e-07
8.29616e-06
-7.21935e-07
8.12375e-06
-6.65766e-07
7.97352e-06
-5.92415e-07
7.84597e-06
-4.97544e-07
7.74141e-06
-3.80175e-07
7.66049e-06
-2.42467e-07
7.60392e-06
-8.79834e-08
7.57236e-06
7.86742e-08
7.56602e-06
2.52432e-07
7.58441e-06
4.27752e-07
7.62669e-06
5.99235e-07
7.6916e-06
7.62081e-07
7.77757e-06
9.11832e-07
7.88281e-06
1.04439e-06
8.00547e-06
1.15608e-06
8.14364e-06
1.24369e-06
8.29508e-06
1.30471e-06
8.45743e-06
1.33705e-06
8.62832e-06
1.33907e-06
8.80526e-06
1.30961e-06
8.98564e-06
1.24803e-06
9.16676e-06
1.15435e-06
9.346e-06
1.02909e-06
9.52079e-06
8.73285e-07
9.68838e-06
6.88934e-07
9.84469e-06
4.8043e-07
9.98302e-06
2.56618e-07
1.00964e-05
2.86334e-08
1.01801e-05
-1.93403e-07
1.02311e-05
-4.00267e-07
1.02483e-05
-5.8442e-07
1.02317e-05
-7.41833e-07
1.01792e-05
-8.67911e-07
1.00867e-05
-9.52771e-07
9.95545e-06
-9.95748e-07
9.79101e-06
-1.0006e-06
9.60151e-06
-9.75533e-07
9.39674e-06
-9.31108e-07
9.18707e-06
-8.78283e-07
8.98114e-06
-8.25319e-07
8.78432e-06
-7.75734e-07
8.59978e-06
-7.29586e-07
8.42931e-06
-6.84796e-07
8.27379e-06
-6.38015e-07
8.1336e-06
-5.85503e-07
8.00911e-06
-5.23878e-07
7.90083e-06
-4.50628e-07
7.8095e-06
-3.64385e-07
7.73584e-06
-2.65076e-07
7.68063e-06
-1.5395e-07
7.64463e-06
-3.32538e-08
7.62838e-06
9.40579e-08
7.63195e-06
2.24515e-07
7.65488e-06
3.54293e-07
7.69642e-06
4.79668e-07
7.75557e-06
5.97037e-07
7.83108e-06
7.03012e-07
7.92158e-06
7.94478e-07
8.02547e-06
8.68751e-07
8.14086e-06
9.23571e-07
8.2658e-06
9.5704e-07
8.39829e-06
9.67722e-07
8.53629e-06
9.54591e-07
8.67773e-06
9.17046e-07
8.82055e-06
8.54932e-07
8.96282e-06
7.68541e-07
9.10262e-06
6.58758e-07
9.23755e-06
5.27618e-07
9.36364e-06
3.79555e-07
9.47525e-06
2.21708e-07
9.56723e-06
6.16449e-08
9.63572e-06
-9.40657e-08
9.67817e-06
-2.39944e-07
9.6934e-06
-3.72012e-07
9.67993e-06
-4.86317e-07
9.63731e-06
-5.77925e-07
9.56562e-06
-6.42897e-07
9.46646e-06
-6.81194e-07
9.34433e-06
-6.96237e-07
9.20541e-06
-6.92974e-07
9.05646e-06
-6.77093e-07
8.90417e-06
-6.54208e-07
8.75412e-06
-6.28466e-07
8.60994e-06
-6.01613e-07
8.47383e-06
-5.7356e-07
8.34715e-06
-5.43174e-07
8.23077e-06
-5.08753e-07
8.12532e-06
-4.68454e-07
8.03145e-06
-4.20604e-07
-3.63913e-07
8.15397e-06
1.27104e-06
8.33667e-06
1.39498e-06
8.53544e-06
1.48907e-06
8.74869e-06
1.5508e-06
8.97472e-06
1.57777e-06
9.21147e-06
1.56771e-06
9.45623e-06
1.51867e-06
9.70557e-06
1.4293e-06
9.95544e-06
1.29905e-06
1.02014e-05
1.12826e-06
1.04389e-05
9.18069e-07
1.06624e-05
6.71948e-07
1.08629e-05
4.00326e-07
1.10306e-05
1.18879e-07
1.11586e-05
-1.57593e-07
1.12423e-05
-4.15746e-07
1.12782e-05
-6.44109e-07
1.12657e-05
-8.38214e-07
1.12072e-05
-9.97345e-07
1.10976e-05
-1.10572e-06
1.09351e-05
-1.15541e-06
1.0724e-05
-1.14832e-06
1.04732e-05
-1.09324e-06
1.01942e-05
-1.00461e-06
9.90132e-06
-9.01003e-07
9.6081e-06
-8.01031e-07
9.32413e-06
-7.16997e-07
9.05536e-06
-6.53731e-07
8.80552e-06
-6.10531e-07
8.57667e-06
-5.82164e-07
8.36953e-06
-5.60509e-07
8.18415e-06
-5.36558e-07
8.02047e-06
-5.0208e-07
7.87865e-06
-4.506e-07
7.75909e-06
-3.77983e-07
7.66207e-06
-2.83153e-07
7.58798e-06
-1.68381e-07
7.53747e-06
-3.74758e-08
7.51111e-06
1.05035e-07
7.50917e-06
2.54376e-07
7.53137e-06
4.0555e-07
7.57708e-06
5.53527e-07
7.64542e-06
6.93742e-07
7.73522e-06
8.22028e-07
7.84502e-06
9.34599e-07
7.97301e-06
1.02809e-06
8.11717e-06
1.09953e-06
8.27531e-06
1.14657e-06
8.44504e-06
1.16732e-06
8.62377e-06
1.16034e-06
8.80882e-06
1.12456e-06
8.99741e-06
1.05944e-06
9.18684e-06
9.6492e-07
9.37448e-06
8.41443e-07
9.5576e-06
6.9017e-07
9.73242e-06
5.14114e-07
9.89242e-06
3.2043e-07
1.00297e-05
1.19331e-07
1.01376e-05
-7.92572e-08
1.02111e-05
-2.66934e-07
1.02483e-05
-4.37437e-07
1.02506e-05
-5.86747e-07
1.02154e-05
-7.06584e-07
1.01356e-05
-7.88143e-07
1.00122e-05
-8.29374e-07
9.85044e-06
-8.33982e-07
9.65904e-06
-8.092e-07
9.44883e-06
-7.65322e-07
9.23157e-06
-7.13855e-07
9.0173e-06
-6.6401e-07
8.81232e-06
-6.20337e-07
8.62021e-06
-5.83627e-07
8.44283e-06
-5.522e-07
8.28078e-06
-5.22748e-07
8.13402e-06
-4.91253e-07
8.00235e-06
-4.53837e-07
7.88581e-06
-4.07334e-07
7.7848e-06
-3.49617e-07
7.70007e-06
-2.79654e-07
7.63246e-06
-1.97471e-07
7.58273e-06
-1.04219e-07
7.55163e-06
-2.15758e-09
7.53974e-06
1.05954e-07
7.54725e-06
2.17001e-07
7.57396e-06
3.27587e-07
7.61934e-06
4.34285e-07
7.68259e-06
5.33787e-07
7.7626e-06
6.23002e-07
7.85798e-06
6.99099e-07
7.96709e-06
7.5964e-07
8.08811e-06
8.02554e-07
8.21905e-06
8.26097e-07
8.3579e-06
8.2888e-07
8.50258e-06
8.09906e-07
8.65106e-06
7.6857e-07
8.80133e-06
7.04665e-07
8.95136e-06
6.18502e-07
9.09866e-06
5.11466e-07
9.23893e-06
3.87347e-07
9.36607e-06
2.52417e-07
9.47417e-06
1.13606e-07
9.55864e-06
-2.28253e-08
9.6161e-06
-1.51526e-07
9.64466e-06
-2.68503e-07
9.64319e-06
-3.70541e-07
9.61038e-06
-4.53514e-07
9.54544e-06
-5.12979e-07
9.45045e-06
-5.47905e-07
9.33036e-06
-5.61104e-07
9.19167e-06
-5.57556e-07
9.04162e-06
-5.42921e-07
8.88741e-06
-5.22881e-07
8.73501e-06
-5.01812e-07
8.58824e-06
-4.81695e-07
8.44927e-06
-4.6264e-07
8.31933e-06
-4.43621e-07
8.1991e-06
-4.22941e-07
8.08899e-06
-3.98642e-07
7.98938e-06
-3.68853e-07
7.90082e-06
-3.32035e-07
-2.87094e-07
8.14012e-06
1.10047e-06
8.32924e-06
1.20587e-06
8.53547e-06
1.28284e-06
8.75718e-06
1.32908e-06
8.99235e-06
1.3426e-06
9.23842e-06
1.32164e-06
9.49227e-06
1.26483e-06
9.75027e-06
1.1713e-06
1.00085e-05
1.04079e-06
1.0263e-05
8.73779e-07
1.05089e-05
6.72202e-07
1.07379e-05
4.42976e-07
1.09388e-05
1.99405e-07
1.11014e-05
-4.37496e-08
1.12182e-05
-2.74348e-07
1.12845e-05
-4.8206e-07
1.13027e-05
-6.62385e-07
1.12734e-05
-8.08871e-07
1.11878e-05
-9.11716e-07
1.10409e-05
-9.58868e-07
1.08379e-05
-9.52345e-07
1.05884e-05
-8.98856e-07
1.03057e-05
-8.10581e-07
1.00056e-05
-7.0452e-07
9.70382e-06
-5.99182e-07
9.41138e-06
-5.08593e-07
9.1346e-06
-4.40221e-07
8.87733e-06
-3.96458e-07
8.64152e-06
-3.74717e-07
8.42768e-06
-3.68325e-07
8.23545e-06
-3.68286e-07
8.06422e-06
-3.65328e-07
7.91355e-06
-3.51406e-07
7.78345e-06
-3.20505e-07
7.67441e-06
-2.68935e-07
7.58695e-06
-1.957e-07
7.52148e-06
-1.02905e-07
7.47858e-06
5.42349e-09
7.4588e-06
1.24818e-07
7.46243e-06
2.50741e-07
7.48945e-06
3.78533e-07
7.5395e-06
5.03471e-07
7.61198e-06
6.21267e-07
7.70589e-06
7.28113e-07
7.81994e-06
8.20548e-07
7.95254e-06
8.95492e-07
8.10174e-06
9.50327e-07
8.26533e-06
9.8298e-07
8.44078e-06
9.9187e-07
8.62538e-06
9.75747e-07
8.81634e-06
9.33601e-07
9.01102e-06
8.64759e-07
9.20691e-06
7.69033e-07
9.40137e-06
6.46982e-07
9.59067e-06
5.00871e-07
9.76822e-06
3.36557e-07
9.92561e-06
1.63045e-07
1.00551e-05
-1.01723e-08
1.01506e-05
-1.7477e-07
1.02083e-05
-3.24608e-07
1.0227e-05
-4.56175e-07
1.02037e-05
-5.63395e-07
1.01336e-05
-6.36541e-07
1.00166e-05
-6.71064e-07
9.85769e-06
-6.70507e-07
9.66618e-06
-6.42468e-07
9.45379e-06
-5.96805e-07
9.23345e-06
-5.44986e-07
9.01616e-06
-4.96561e-07
8.80874e-06
-4.56595e-07
8.61493e-06
-4.26523e-07
8.43645e-06
-4.05147e-07
8.27361e-06
-3.89361e-07
8.12592e-06
-3.75065e-07
7.99269e-06
-3.58014e-07
7.87336e-06
-3.34511e-07
7.76786e-06
-3.01834e-07
7.67663e-06
-2.58387e-07
7.60057e-06
-2.03591e-07
7.54071e-06
-1.37616e-07
7.49796e-06
-6.14647e-08
7.47306e-06
2.27411e-08
7.46662e-06
1.12388e-07
7.47896e-06
2.04665e-07
7.51009e-06
2.96453e-07
7.55975e-06
3.84633e-07
7.62728e-06
4.66248e-07
7.71174e-06
5.38549e-07
7.81175e-06
5.9909e-07
7.92564e-06
6.45751e-07
8.05155e-06
6.76639e-07
8.18757e-06
6.90075e-07
8.33176e-06
6.84692e-07
8.48217e-06
6.59497e-07
8.63686e-06
6.13879e-07
8.79375e-06
5.47779e-07
8.95004e-06
4.62208e-07
9.10092e-06
3.60585e-07
9.23977e-06
2.48501e-07
9.36004e-06
1.32148e-07
9.45636e-06
1.72816e-08
9.52478e-06
-9.12428e-08
9.5632e-06
-1.89953e-07
9.57075e-06
-2.76047e-07
9.54592e-06
-3.45717e-07
9.48742e-06
-3.95011e-07
9.39711e-06
-4.22665e-07
9.28036e-06
-4.31152e-07
9.14428e-06
-4.25028e-07
8.99652e-06
-4.09794e-07
8.84461e-06
-3.91012e-07
8.69462e-06
-3.72893e-07
8.55021e-06
-3.574e-07
8.41333e-06
-3.44815e-07
8.28499e-06
-3.34297e-07
8.16562e-06
-3.24256e-07
8.05541e-06
-3.12726e-07
7.95448e-06
-2.97719e-07
7.86313e-06
-2.77504e-07
7.78188e-06
-2.50777e-07
-2.16704e-07
8.12229e-06
9.26642e-07
8.31593e-06
1.01223e-06
8.52764e-06
1.07113e-06
8.75545e-06
1.10127e-06
8.99692e-06
1.10113e-06
9.24905e-06
1.06951e-06
9.50856e-06
1.00532e-06
9.77227e-06
9.07585e-07
1.00374e-05
7.75626e-07
1.03006e-05
6.10581e-07
1.05537e-05
4.191e-07
1.07845e-05
2.12209e-07
1.09807e-05
3.20482e-09
1.11307e-05
-1.93704e-07
1.12278e-05
-3.71514e-07
1.12706e-05
-5.24865e-07
1.12614e-05
-6.53148e-07
1.11917e-05
-7.3914e-07
1.10532e-05
-7.73229e-07
1.0852e-05
-7.57728e-07
1.06007e-05
-7.01014e-07
1.03146e-05
-6.12751e-07
1.00116e-05
-5.0762e-07
9.70895e-06
-4.01829e-07
9.41813e-06
-3.08357e-07
9.14502e-06
-2.3549e-07
8.89275e-06
-1.87946e-07
8.66224e-06
-1.65946e-07
8.45313e-06
-1.65615e-07
8.26439e-06
-1.7958e-07
8.09478e-06
-1.98676e-07
7.94333e-06
-2.13875e-07
7.80958e-06
-2.17659e-07
7.69378e-06
-2.04703e-07
7.59684e-06
-1.71997e-07
7.51995e-06
-1.18811e-07
7.4639e-06
-4.685e-08
7.42935e-06
3.99719e-08
7.41697e-06
1.37196e-07
7.42702e-06
2.40686e-07
7.45946e-06
3.46098e-07
7.51424e-06
4.4869e-07
7.59101e-06
5.445e-07
7.68894e-06
6.30184e-07
7.80686e-06
7.02621e-07
7.94332e-06
7.59037e-07
8.0965e-06
7.97149e-07
8.26419e-06
8.15286e-07
8.44374e-06
8.12323e-07
8.63228e-06
7.87209e-07
8.82721e-06
7.38667e-07
9.02633e-06
6.65638e-07
9.22729e-06
5.68077e-07
9.42619e-06
4.48078e-07
9.6157e-06
3.11363e-07
9.78672e-06
1.65536e-07
9.93065e-06
1.91141e-08
1.00402e-05
-1.19723e-07
1.01105e-05
-2.45106e-07
1.01397e-05
-3.53811e-07
1.01246e-05
-4.41072e-07
1.006e-05
-4.9874e-07
9.94572e-06
-5.2228e-07
9.7883e-06
-5.13644e-07
9.59801e-06
-4.80211e-07
9.38744e-06
-4.31902e-07
9.17031e-06
-3.79675e-07
8.95774e-06
-3.32414e-07
8.75621e-06
-2.95028e-07
8.56903e-06
-2.69415e-07
8.39749e-06
-2.54984e-07
8.24146e-06
-2.49119e-07
8.10001e-06
-2.47914e-07
7.97194e-06
-2.46995e-07
7.85622e-06
-2.42288e-07
7.75228e-06
-2.30571e-07
7.66016e-06
-2.09722e-07
7.58056e-06
-1.78783e-07
7.51466e-06
-1.37691e-07
7.46381e-06
-8.67646e-08
7.42911e-06
-2.67697e-08
7.41142e-06
4.04376e-08
7.41132e-06
1.12484e-07
7.42917e-06
1.86817e-07
7.46521e-06
2.60411e-07
7.5194e-06
3.30447e-07
7.59127e-06
3.94373e-07
7.67999e-06
4.4983e-07
7.78427e-06
4.94808e-07
7.90243e-06
5.27591e-07
8.03261e-06
5.46459e-07
8.17301e-06
5.49675e-07
8.3219e-06
5.35801e-07
8.47751e-06
5.03891e-07
8.63767e-06
4.53717e-07
8.79899e-06
3.86455e-07
8.95573e-06
3.05467e-07
9.10071e-06
2.15608e-07
9.22706e-06
1.22148e-07
9.32894e-06
3.02709e-08
9.40217e-06
-5.59421e-08
9.44485e-06
-1.3393e-07
9.45651e-06
-2.01609e-07
9.43532e-06
-2.54856e-07
9.38019e-06
-2.90588e-07
9.29331e-06
-3.08137e-07
9.18059e-06
-3.09939e-07
9.04955e-06
-3.00114e-07
8.90815e-06
-2.83633e-07
8.76389e-06
-2.65525e-07
8.62229e-06
-2.49421e-07
8.48643e-06
-2.3703e-07
8.3578e-06
-2.2877e-07
8.23703e-06
-2.24047e-07
8.12424e-06
-2.21505e-07
8.01931e-06
-2.19325e-07
7.92213e-06
-2.15546e-07
7.83277e-06
-2.08358e-07
7.75157e-06
-1.96307e-07
7.67918e-06
-1.78389e-07
-1.54049e-07
8.10472e-06
7.57734e-07
8.29673e-06
8.2022e-07
8.50931e-06
8.58548e-07
8.73978e-06
8.70795e-07
8.98505e-06
8.55865e-07
9.24188e-06
8.12678e-07
9.50777e-06
7.39425e-07
9.78107e-06
6.3429e-07
1.00591e-05
4.97586e-07
1.03328e-05
3.3688e-07
1.05858e-05
1.66127e-07
1.08027e-05
-4.69215e-09
1.09737e-05
-1.67858e-07
1.10861e-05
-3.06028e-07
1.11412e-05
-4.26621e-07
1.11357e-05
-5.19412e-07
1.10595e-05
-5.76959e-07
1.0912e-05
-5.91567e-07
1.07024e-05
-5.63666e-07
1.04449e-05
-5.00274e-07
1.01566e-05
-4.12645e-07
9.85746e-06
-3.13631e-07
9.56512e-06
-2.15279e-07
9.29017e-06
-1.26886e-07
9.03761e-06
-5.57967e-08
8.80862e-06
-6.49428e-09
8.60248e-06
1.81914e-08
8.4168e-06
1.97289e-08
8.2491e-06
2.08288e-09
8.09686e-06
-2.73359e-08
7.95818e-06
-5.99951e-08
7.83213e-06
-8.78237e-08
7.71872e-06
-1.04247e-07
7.61879e-06
-1.04776e-07
7.53412e-06
-8.73276e-08
7.46705e-06
-5.17426e-08
7.41942e-06
7.82706e-10
7.39221e-06
6.71842e-08
7.38668e-06
1.42724e-07
7.40297e-06
2.2439e-07
7.44073e-06
3.08337e-07
7.50029e-06
3.89132e-07
7.58125e-06
4.63545e-07
7.68277e-06
5.28662e-07
7.80378e-06
5.81609e-07
7.94295e-06
6.19866e-07
8.09869e-06
6.41414e-07
8.26895e-06
6.45025e-07