/*--------------------------------*- C++ -*----------------------------------*\
| =========                 |                                                 |
| \\      /  F ield         | OpenFOAM: The Open Source CFD Toolbox           |
|  \\    /   O peration     | Version:  2206                                  |
|   \\  /    A nd           | Website:  www.openfoam.com                      |
|    \\/     M anipulation  |                                                 |
\*---------------------------------------------------------------------------*/
FoamFile
{
    version     2.0;
    format      ascii;
    arch        "LSB;label=32;scalar=64";
    class       volVectorField;
    location    "18.5001";
    object      ddt0(U);
}
// * * * * * * * * * * * * * * * * * * * * * * * * * * * * * * * * * * * * * //

dimensions      [0 1 -2 0 0 0 0];

internalField   nonuniform List<vector> 
3088
(
(68.271 -17.3723 0)
(50.6574 15.3961 0)
(11.5662 -6.78053 0)
(-8.82014 1.40313 0)
(-31.2922 -1.0208 0)
(-34.2743 -0.552991 0)
(-31.7369 -1.02003 0)
(-28.6566 -0.604303 0)
(-25.6151 0.215798 0)
(-22.8278 0.678293 0)
(-20.4087 1.39176 0)
(-18.4372 2.08158 0)
(-16.7233 2.71445 0)
(-15.1751 3.28977 0)
(-13.7575 3.8347 0)
(-12.2885 4.30982 0)
(-10.8274 4.71673 0)
(-8.75856 4.81806 0)
(-5.25973 3.98619 0)
(-0.484422 2.29035 0)
(41.0744 -58.3779 0)
(12.8207 -53.9867 0)
(-6.12587 -50.1046 0)
(-19.2399 -48.6948 0)
(-32.4627 -49.3205 0)
(-45.432 -49.628 0)
(-58.8835 -47.9969 0)
(-73.4011 -43.6903 0)
(-88.9918 -35.967 0)
(-105.327 -23.711 0)
(-121.669 -6.23681 0)
(-136.78 16.5664 0)
(-150.451 44.5933 0)
(-163.688 78.8565 0)
(-180.911 122.021 0)
(-205.734 175.715 0)
(-223.794 222.036 0)
(-195.491 222.908 0)
(-147.901 197.794 0)
(-97.0325 160.686 0)
(-51.0979 122.134 0)
(-13.9357 87.3602 0)
(12.3689 58.4454 0)
(34.6347 36.0933 0)
(52.3385 16.6739 0)
(62.954 -0.049674 0)
(68.5831 -9.64016 0)
(71.0355 -14.8676 0)
(70.4746 -17.4455 0)
(68.7208 -18.1805 0)
(66.9415 -17.9303 0)
(65.4028 -17.1851 0)
(64.2153 -16.2631 0)
(63.3903 -15.4327 0)
(62.9772 -14.8449 0)
(63.2318 -14.3939 0)
(64.2531 -14.0789 0)
(65.3959 -14.5546 0)
(65.6125 -16.9145 0)
(64.8465 -21.0241 0)
(65.1155 -24.36 0)
(71.2658 -22.2956 0)
(87.0668 -11.7507 0)
(108.627 1.69066 0)
(121.018 3.57944 0)
(112.568 -16.405 0)
(88.5433 -57.098 0)
(43.1329 -103.3 0)
(16.177 -142.756 0)
(-29.4201 -171.848 0)
(-51.6577 -183.336 0)
(-64.5122 -175.309 0)
(-72.4031 -159.587 0)
(-75.7037 -139.377 0)
(-75.3942 -117.081 0)
(-72.3506 -94.6687 0)
(-67.4062 -73.6295 0)
(-61.3309 -54.9541 0)
(-54.7408 -39.2261 0)
(-48.1077 -26.6805 0)
(-41.7406 -17.3404 0)
(-35.8835 -11.1547 0)
(-30.6753 -8.10462 0)
(-26.0714 -8.22533 0)
(-22.0779 -11.7462 0)
(-18.2787 -18.5573 0)
(-15.3893 -26.726 0)
(-14.6592 -33.5284 0)
(-15.6769 -36.1527 0)
(-16.5015 -33.3193 0)
(-17.1024 -26.646 0)
(-19.7533 -13.5517 0)
(-24.042 9.11841 0)
(-28.3079 42.2087 0)
(-30.1257 80.0688 0)
(-31.3994 118.753 0)
(-32.7242 155.801 0)
(-33.8589 188.275 0)
(-34.5729 212.54 0)
(-33.6119 223.295 0)
(-30.4084 219.197 0)
(-25.881 205.713 0)
(-20.1888 184.77 0)
(-13.6867 158.735 0)
(-6.85477 129.905 0)
(-0.0489962 100.325 0)
(6.30651 71.6597 0)
(11.6818 45.1431 0)
(17.9421 21.7346 0)
(26.1202 -1.68787 0)
(33.1648 -20.5512 0)
(39.7016 -34.1924 0)
(44.5823 -42.3701 0)
(48.4223 -45.3018 0)
(51.3768 -43.5837 0)
(53.4698 -38.2511 0)
(55.1014 -30.8845 0)
(56.1291 -22.5725 0)
(56.5964 -14.6489 0)
(56.5578 -8.6708 0)
(56.119 -6.01576 0)
(55.4029 -7.4819 0)
(54.2221 -13.0554 0)
(52.8183 -21.8522 0)
(51.2625 -32.444 0)
(49.4254 -43.558 0)
(47.1344 -54.3963 0)
(44.1587 -64.5722 0)
(40.278 -74.004 0)
(35.3242 -82.6936 0)
(29.2148 -90.5491 0)
(21.9724 -97.3141 0)
(13.7411 -102.575 0)
(4.78163 -105.825 0)
(-4.5097 -106.447 0)
(-13.6553 -104.346 0)
(-22.2795 -99.7798 0)
(-30.0881 -92.8657 0)
(-36.8251 -83.9324 0)
(-42.3074 -73.4568 0)
(-46.4455 -61.9942 0)
(-49.2389 -50.1132 0)
(-50.7573 -38.3459 0)
(46.7821 -3.8467 0)
(22.1528 -20.2535 0)
(-2.45995 -31.7252 0)
(-22.3141 -35.8373 0)
(-39.815 -36.4956 0)
(-56.1396 -35.6645 0)
(-73.0332 -32.7443 0)
(-89.1396 -27.1895 0)
(-106.136 -18.1733 0)
(-124.068 -4.83358 0)
(-142.572 13.2113 0)
(-161.735 37.1472 0)
(-182.535 67.6146 0)
(-207.539 108.052 0)
(-232.597 155.149 0)
(-233.587 187.945 0)
(-192.161 186.851 0)
(-135.593 167.992 0)
(-78.8226 141.234 0)
(-31.6437 111.043 0)
(4.16479 82.8842 0)
(29.7214 60.6464 0)
(51.2436 40.2207 0)
(64.917 19.8563 0)
(73.4493 4.86621 0)
(77.3768 -4.85195 0)
(77.5872 -10.5656 0)
(75.5523 -13.6119 0)
(73.1067 -15.2069 0)
(70.5742 -15.8236 0)
(68.2646 -15.8624 0)
(66.3442 -15.5673 0)
(64.8987 -15.101 0)
(63.91 -14.6694 0)
(63.2847 -14.496 0)
(63.0272 -14.6709 0)
(63.3461 -15.0466 0)
(64.2693 -15.5427 0)
(65.0715 -16.7637 0)
(64.6703 -19.8385 0)
(63.1964 -24.4877 0)
(62.7961 -28.3374 0)
(68.4255 -27.1032 0)
(83.3949 -18.3048 0)
(103.226 -7.53136 0)
(112.991 -7.6223 0)
(102.047 -27.6839 0)
(74.2761 -65.673 0)
(32.6468 -104.679 0)
(0.719834 -137.857 0)
(-38.5715 -160.028 0)
(-56.4394 -164.059 0)
(-66.379 -153.183 0)
(-71.6598 -136.933 0)
(-73.1647 -117.85 0)
(-71.8426 -97.8332 0)
(-68.4613 -78.4133 0)
(-63.742 -60.6955 0)
(-58.2711 -45.3645 0)
(-52.5598 -32.8024 0)
(-46.9779 -23.1435 0)
(-41.7451 -16.4482 0)
(-36.9027 -12.8479 0)
(-32.4586 -12.527 0)
(-28.6591 -15.6064 0)
(-25.5195 -21.3711 0)
(-23.8057 -27.8724 0)
(-24.0678 -33.0442 0)
(-25.5615 -34.9074 0)
(-27.1634 -32.0352 0)
(-29.7544 -24.1247 0)
(-33.5167 -9.504 0)
(-38.4831 13.3564 0)
(-42.7375 45.1268 0)
(-45.1062 81.7352 0)
(-46.2474 119.673 0)
(-46.5793 156.214 0)
(-46.0748 188.079 0)
(-44.4413 211.14 0)
(-40.2428 219.478 0)
(-33.6564 213.87 0)
(-25.9434 199.124 0)
(-17.3695 177.371 0)
(-8.40692 150.992 0)
(0.417924 122.279 0)
(8.65615 93.1659 0)
(15.8204 65.0691 0)
(22.5625 38.9788 0)
(31.8826 13.8655 0)
(39.3202 -9.73146 0)
(46.5016 -27.1975 0)
(52.2187 -39.4029 0)
(56.4287 -46.3622 0)
(59.5241 -48.3086 0)
(61.3861 -45.6326 0)
(62.5318 -39.6631 0)
(63.138 -31.6887 0)
(63.1637 -22.8049 0)
(62.6656 -14.389 0)
(61.7156 -8.02632 0)
(60.4286 -5.05694 0)
(58.9392 -6.18234 0)
(57.2221 -11.4468 0)
(55.0118 -20.0079 0)
(52.7202 -30.4093 0)
(50.2657 -41.2158 0)
(47.4685 -51.5408 0)
(44.1242 -60.9854 0)
(40.0124 -69.4891 0)
(34.9499 -77.1171 0)
(28.8315 -83.8693 0)
(21.6538 -89.5959 0)
(13.5322 -94.0024 0)
(4.69619 -96.6966 0)
(-4.5023 -97.1956 0)
(-13.6232 -95.401 0)
(-22.3068 -91.4494 0)
(-30.2741 -85.4308 0)
(-37.2738 -77.6151 0)
(-43.1168 -68.4005 0)
(-47.696 -58.2582 0)
(-50.9835 -47.681 0)
(-53.019 -37.1427 0)
(15.1697 -6.32988 0)
(11.622 -4.33219 0)
(-4.09632 -6.20858 0)
(-23.4308 -6.79473 0)
(-44.4737 -11.0399 0)
(-66.2016 -12.6312 0)
(-88.2055 -11.3643 0)
(-110.813 -6.74743 0)
(-134.013 2.06503 0)
(-157.569 15.6139 0)
(-180.047 33.9416 0)
(-197.909 55.7765 0)
(-211.411 83.4812 0)
(-214.373 115.096 0)
(-189.237 134.735 0)
(-143.438 135.868 0)
(-90.6024 125.806 0)
(-43.0333 110.744 0)
(-2.99168 95.7407 0)
(26.4909 79.207 0)
(44.5918 61.6131 0)
(63.28 42.1192 0)
(73.5228 24.9884 0)
(79.7348 12.2947 0)
(82.2338 2.99804 0)
(81.2718 -3.71615 0)
(78.8381 -8.07209 0)
(76.0272 -10.7597 0)
(73.202 -12.396 0)
(70.575 -13.3014 0)
(68.2819 -13.7081 0)
(66.3746 -13.8241 0)
(64.8798 -13.8204 0)
(63.8109 -13.8252 0)
(63.1072 -13.975 0)
(62.6488 -14.4322 0)
(62.4191 -15.2509 0)
(62.5752 -16.3093 0)
(63.1518 -17.4553 0)
(63.5108 -19.1169 0)
(62.5976 -22.4803 0)
(60.4217 -27.5232 0)
(59.1127 -32.1084 0)
(63.416 -32.4289 0)
(76.55 -25.8492 0)
(94.4015 -16.9935 0)
(102.75 -17.0868 0)
(90.5947 -34.9999 0)
(62.227 -67.6194 0)
(23.0233 -100.39 0)
(-10.3817 -128.761 0)
(-44.1549 -145.34 0)
(-59.2735 -144.607 0)
(-66.8752 -132.693 0)
(-70.3112 -116.907 0)
(-70.6145 -99.3868 0)
(-68.7171 -81.7352 0)
(-65.3256 -65.1661 0)
(-61.0225 -50.4289 0)
(-56.3084 -38.0179 0)
(-51.5331 -28.2195 0)
(-46.8862 -21.2401 0)
(-42.4459 -17.291 0)
(-38.3744 -16.5302 0)
(-35.0782 -18.8453 0)
(-32.7542 -23.2637 0)
(-31.9703 -28.1504 0)
(-32.9312 -31.8872 0)
(-35.1383 -32.744 0)
(-38.232 -29.173 0)
(-42.236 -20.2068 0)
(-47.1988 -4.77033 0)
(-52.5599 18.2733 0)
(-57.0485 48.5625 0)
(-59.7612 83.4777 0)
(-60.6876 120.05 0)
(-59.967 155.269 0)
(-57.8413 185.805 0)
(-53.8763 207.027 0)
(-46.3689 212.268 0)
(-36.6128 205.299 0)
(-25.8554 189.543 0)
(-14.5374 167.349 0)
(-3.25019 141.11 0)
(7.42455 112.964 0)
(16.9348 84.6085 0)
(25.3647 57.207 0)
(35.2299 30.8911 0)
(44.8026 4.48708 0)
(52.7866 -17.1805 0)
(59.5671 -33.2346 0)
(64.522 -44.018 0)
(67.985 -49.6288 0)
(70.0893 -50.3338 0)
(70.7289 -46.6204 0)
(70.8472 -40.0201 0)
(70.3563 -31.4592 0)
(69.3294 -22.0342 0)
(67.8328 -13.164 0)
(65.9422 -6.46743 0)
(63.7816 -3.26915 0)
(61.4698 -4.17105 0)
(59.0564 -9.11965 0)
(56.265 -17.4436 0)
(53.1385 -27.6696 0)
(50.0513 -38.2949 0)
(46.7555 -48.2528 0)
(43.0633 -57.1155 0)
(38.7714 -64.8369 0)
(33.6823 -71.5291 0)
(27.664 -77.2776 0)
(20.6806 -82.0367 0)
(12.8136 -85.6264 0)
(4.25725 -87.7754 0)
(-4.67476 -88.1012 0)
(-13.5872 -86.5409 0)
(-22.1517 -83.1093 0)
(-30.1017 -77.8812 0)
(-37.1921 -71.077 0)
(-43.2325 -63.0264 0)
(-48.1058 -54.1249 0)
(-51.7668 -44.7939 0)
(-54.2367 -35.4457 0)
(-9.60794 5.20627 0)
(-14.3603 7.65154 0)
(-21.5443 6.45953 0)
(-29.6009 3.38234 0)
(-38.966 3.62738 0)
(-50.7651 4.96548 0)
(-64.6023 8.0395 0)
(-79.2579 13.5094 0)
(-93.1722 21.9783 0)
(-104.367 33.6984 0)
(-111.912 48.3304 0)
(-114.396 63.9317 0)
(-109.863 79.4961 0)
(-91.6589 90.9284 0)
(-61.8751 96.0139 0)
(-29.8778 94.2533 0)
(-2.52047 90.2721 0)
(19.4347 83.6503 0)
(28.481 74.0601 0)
(53.488 60.928 0)
(64.9943 46.1312 0)
(74.0295 32.0102 0)
(79.5507 20.5836 0)
(81.7669 11.2091 0)
(81.1997 3.81325 0)
(79.4276 -1.59364 0)
(76.988 -5.37086 0)
(74.3633 -7.97617 0)
(71.8396 -9.75755 0)
(69.5433 -10.9343 0)
(67.5342 -11.6857 0)
(65.8379 -12.1727 0)
(64.4549 -12.5364 0)
(63.3751 -12.8946 0)
(62.5776 -13.3448 0)
(61.9954 -13.9894 0)
(61.5135 -14.934 0)
(61.0938 -16.2215 0)
(60.8819 -17.7589 0)
(60.9556 -19.4137 0)
(60.8605 -21.4576 0)
(59.6317 -24.889 0)
(56.8794 -30.1338 0)
(54.5429 -35.4985 0)
(56.7688 -37.583 0)
(67.0952 -33.4402 0)
(82.4541 -26.0081 0)
(90.8285 -24.5063 0)
(79.8269 -37.5444 0)
(53.3636 -64.4715 0)
(16.2758 -92.5222 0)
(-16.9205 -116.423 0)
(-47.8499 -129.26 0)
(-60.7768 -126.044 0)
(-66.6745 -114.167 0)
(-68.8043 -99.4348 0)
(-68.4018 -83.7495 0)
(-66.323 -68.3996 0)
(-63.1616 -54.3779 0)
(-59.3931 -42.3144 0)
(-55.373 -32.6047 0)
(-51.3227 -25.5287 0)
(-47.4025 -21.3008 0)
(-43.8851 -19.999 0)
(-41.2491 -21.3457 0)
(-39.7216 -24.3492 0)
(-39.747 -27.6673 0)
(-41.4877 -29.9051 0)
(-44.6557 -29.4839 0)
(-48.9983 -24.9315 0)
(-54.2685 -15.1534 0)
(-60.1634 0.814559 0)
(-66.0025 23.4771 0)
(-70.724 52.2295 0)
(-73.454 85.1605 0)
(-73.9012 119.701 0)
(-72.3691 153.12 0)
(-68.9792 181.723 0)
(-62.6827 199.989 0)
(-52.0312 201.999 0)
(-39.4633 193.664 0)
(-25.8524 177.141 0)
(-11.9324 154.883 0)
(1.55263 129.201 0)
(13.9384 101.981 0)
(24.8346 74.5548 0)
(35.8783 47.6164 0)
(48.0265 20.2889 0)
(57.5787 -4.80104 0)
(65.9655 -24.3944 0)
(72.1509 -38.7661 0)
(76.3776 -47.8653 0)
(78.9233 -51.9008 0)
(79.6324 -51.0987 0)
(79.1722 -46.5021 0)
(78.1061 -39.2526 0)
(76.4756 -30.1373 0)
(74.3903 -20.2235 0)
(71.9136 -10.963 0)
(69.1174 -4.00018 0)
(66.1271 -0.646295 0)
(63.0381 -1.4195 0)
(59.8708 -6.12506 0)
(56.5537 -14.1791 0)
(52.6676 -24.2426 0)
(48.9035 -34.7905 0)
(45.1314 -44.5486 0)
(41.1217 -53.0024 0)
(36.6968 -60.1126 0)
(31.6558 -66.0232 0)
(25.8359 -70.8885 0)
(19.1578 -74.7617 0)
(11.6606 -77.5901 0)
(3.50693 -79.1953 0)
(-5.01339 -79.3263 0)
(-13.5641 -77.9214 0)
(-21.8615 -74.9162 0)
(-29.6447 -70.3737 0)
(-36.6766 -64.4716 0)
(-42.7732 -57.4788 0)
(-47.8143 -49.7226 0)
(-51.7444 -41.5561 0)
(-54.5728 -33.3268 0)
(-31.2259 2.44232 0)
(-31.251 4.53257 0)
(-32.274 6.65591 0)
(-34.3585 8.44574 0)
(-38.1273 10.0771 0)
(-43.0134 12.4808 0)
(-48.063 16.3695 0)
(-52.2794 21.5734 0)
(-54.9895 28.2928 0)
(-55.8461 36.6963 0)
(-54.1175 46.0876 0)
(-48.4054 56.4301 0)
(-38.2639 65.7354 0)
(-25.5869 72.4039 0)
(-8.86632 74.9841 0)
(6.39776 74.7654 0)
(13.4102 74.3742 0)
(32.2922 72.2467 0)
(46.9625 61.2329 0)
(58.8253 48.3305 0)
(67.8801 36.8491 0)
(73.8558 26.9794 0)
(76.8778 18.1911 0)
(77.6204 10.8369 0)
(76.9326 5.01344 0)
(75.4854 0.466487 0)
(73.6364 -3.02698 0)
(71.6856 -5.65644 0)
(69.7931 -7.5985 0)
(68.0269 -9.00027 0)
(66.4267 -10.0037 0)
(65.0188 -10.7479 0)
(63.8053 -11.3578 0)
(62.771 -11.9413 0)
(61.8988 -12.5897 0)
(61.1623 -13.3783 0)
(60.4946 -14.3719 0)
(59.7973 -15.6418 0)
(59.0501 -17.245 0)
(58.3792 -19.1542 0)
(57.8738 -21.2563 0)
(57.2299 -23.673 0)
(55.6666 -27.1699 0)
(52.522 -32.3988 0)
(49.142 -38.2899 0)
(49.0845 -41.8757 0)
(55.8926 -40.0142 0)
(68.3269 -33.8424 0)
(77.3168 -30.3253 0)
(69.6245 -37.1815 0)
(47.2267 -57.6724 0)
(13.0838 -81.1614 0)
(-18.6722 -101.514 0)
(-49.2027 -112.838 0)
(-61.2146 -109.239 0)
(-66.0685 -97.5194 0)
(-67.4784 -84.1659 0)
(-66.7059 -70.4833 0)
(-64.6648 -57.4293 0)
(-61.8277 -45.8295 0)
(-58.5546 -36.3016 0)
(-55.136 -29.1975 0)
(-51.8231 -24.7013 0)
(-48.9656 -22.7994 0)
(-47.0676 -23.0975 0)
(-46.3229 -24.6566 0)
(-47.1842 -26.3745 0)
(-49.7764 -27.0075 0)
(-53.8935 -25.1671 0)
(-59.2923 -19.5318 0)
(-65.5859 -9.03524 0)
(-72.2368 7.05443 0)
(-78.4411 28.9231 0)
(-83.1929 55.928 0)
(-85.706 86.5588 0)
(-85.7848 118.794 0)
(-83.6982 150.013 0)
(-79.3517 176.041 0)
(-70.6495 189.983 0)
(-57.4239 189.287 0)
(-42.2239 179.26 0)
(-25.8866 162.104 0)
(-9.47025 140.098 0)
(6.05084 115.29 0)
(20.0772 89.1684 0)
(33.2773 62.6454 0)
(47.842 35.5699 0)
(59.8737 8.37718 0)
(70.4447 -13.9717 0)
(78.5183 -31.3995 0)
(84.0808 -43.6963 0)
(87.4806 -50.8076 0)
(88.7448 -52.9333 0)
(87.903 -50.5798 0)
(86.2443 -45.1523 0)
(83.9141 -37.3047 0)
(81.1382 -27.7179 0)
(78.0525 -17.4146 0)
(74.6991 -7.85046 0)
(71.1211 -0.692535 0)
(67.4196 2.75333 0)
(63.6623 2.04036 0)
(59.8184 -2.49525 0)
(55.8573 -10.2196 0)
(51.552 -20.1965 0)
(47.0187 -30.7155 0)
(42.7651 -40.4427 0)
(38.4668 -48.6832 0)
(33.9441 -55.3729 0)
(29.0107 -60.6772 0)
(23.4724 -64.8 0)
(17.1854 -67.885 0)
(10.137 -69.9869 0)
(2.49212 -71.0728 0)
(-5.50017 -71.0246 0)
(-13.5799 -69.687 0)
(-21.4916 -67.0151 0)
(-28.983 -63.0551 0)
(-35.8328 -57.9414 0)
(-41.868 -51.8847 0)
(-46.9706 -45.1518 0)
(-51.081 -38.035 0)
(-54.2058 -30.8198 0)
(-33.0923 3.86981 0)
(-32.1237 7.26695 0)
(-31.8301 9.51406 0)
(-32.334 11.0904 0)
(-33.5072 12.8163 0)
(-34.7067 15.2096 0)
(-35.4581 18.6554 0)
(-35.8649 23.2259 0)
(-38.0424 28.7962 0)
(-37.0401 35.0641 0)
(-34.1105 41.8025 0)
(-29.0722 48.8794 0)
(-21.9452 54.9108 0)
(-14.1031 59.0371 0)
(3.57832 62.5898 0)
(11.8517 65.9172 0)
(21.2707 64.1427 0)
(39.6163 56.5863 0)
(50.518 47.2035 0)
(58.5014 38.7939 0)
(64.5787 31.135 0)
(68.2984 23.7175 0)
(70.3087 16.8619 0)
(71.201 10.9059 0)
(71.2765 5.87839 0)
(70.7417 1.73279 0)
(69.879 -1.5744 0)
(68.8121 -4.14279 0)
(67.6396 -6.10523 0)
(66.4335 -7.57818 0)
(65.2418 -8.68548 0)
(64.1093 -9.55454 0)
(63.0553 -10.2924 0)
(62.0779 -10.9898 0)
(61.1616 -11.7288 0)
(60.2807 -12.5766 0)
(59.4033 -13.5859 0)
(58.4814 -14.8109 0)
(57.4546 -16.3204 0)
(56.303 -18.1697 0)
(55.0772 -20.3246 0)
(53.8525 -22.7154 0)
(52.4264 -25.4805 0)
(50.2088 -29.1584 0)
(46.6794 -34.2614 0)
(42.4575 -40.231 0)
(40.2273 -44.7571 0)
(43.4707 -44.7812 0)
(52.6621 -39.8669 0)
(61.7623 -34.8524 0)
(59.1682 -36.3735 0)
(42.4182 -49.5039 0)
(12.7554 -67.8373 0)
(-13.8649 -84.3359 0)
(-47.1885 -95.2615 0)
(-60.2004 -93.9023 0)
(-65.0976 -83.1732 0)
(-66.4001 -71.0101 0)
(-65.5061 -59.2334 0)
(-63.5123 -48.5115 0)
(-61.0397 -39.3948 0)
(-58.3631 -32.2915 0)
(-55.755 -27.4536 0)
(-53.6332 -24.8504 0)
(-52.5308 -24.029 0)
(-52.5711 -24.1205 0)
(-54.3075 -24.2194 0)
(-57.7618 -23.2098 0)
(-62.766 -19.9087 0)
(-69.0489 -13.1894 0)
(-76.1127 -2.15142 0)
(-83.2552 13.7274 0)
(-89.5886 34.4566 0)
(-94.1991 59.4554 0)
(-96.4897 87.649 0)
(-96.4473 117.52 0)
(-94.2684 146.375 0)
(-89.0872 169.061 0)
(-77.7369 177.393 0)
(-62.434 173.996 0)
(-44.5945 162.163 0)
(-25.4805 144.524 0)
(-6.65149 123.103 0)
(10.6743 99.3322 0)
(26.7315 74.3481 0)
(43.6907 48.3269 0)
(59.1716 20.7516 0)
(72.3669 -3.3156 0)
(82.9057 -23.0016 0)
(90.4378 -37.963 0)
(95.2583 -47.7956 0)
(97.4798 -52.5235 0)
(96.7822 -52.342 0)
(94.5977 -48.7054 0)
(91.4882 -42.4877 0)
(87.8208 -34.1467 0)
(83.9178 -24.245 0)
(79.9457 -13.7243 0)
(75.9117 -4.00252 0)
(71.7826 3.246 0)
(67.5836 6.75341 0)
(63.3486 6.11443 0)
(59.0246 1.71801 0)
(54.5563 -5.7449 0)
(49.8893 -15.5328 0)
(44.6947 -26.0796 0)
(39.8997 -35.9328 0)
(35.3177 -44.1797 0)
(30.7073 -50.6636 0)
(25.9053 -55.5571 0)
(20.6927 -59.091 0)
(14.8406 -61.4308 0)
(8.32525 -62.8882 0)
(1.2823 -63.539 0)
(-6.11385 -63.2503 0)
(-13.6511 -61.9208 0)
(-21.0857 -59.5055 0)
(-28.1856 -56.0233 0)
(-34.7562 -51.5726 0)
(-40.6494 -46.329 0)
(-45.7558 -40.5043 0)
(-50.0085 -34.3238 0)
(-53.3966 -28.0075 0)
(-31.8857 2.53366 0)
(-31.3601 5.38077 0)
(-30.9113 7.80139 0)
(-30.7265 10.1707 0)
(-30.7612 12.6147 0)
(-31.1184 15.2936 0)
(-31.5763 18.497 0)
(-31.5419 22.6988 0)
(-30.5111 27.6749 0)
(-28.5655 32.8169 0)
(-25.504 38.0467 0)
(-20.5569 43.4384 0)
(-13.4946 48.1551 0)
(-5.57265 50.5491 0)
(2.92402 52.0635 0)
(13.7033 53.0904 0)
(25.4168 50.198 0)
(35.7327 44.7376 0)
(43.8957 39.3124 0)
(50.5086 33.6137 0)
(55.7946 27.2613 0)
(59.8069 20.9398 0)
(62.733 15.0981 0)
(64.7202 9.90762 0)
(65.9179 5.47847 0)
(66.4891 1.82486 0)
(66.582 -1.12045 0)
(66.334 -3.44211 0)
(65.7319 -5.21633 0)
(64.9796 -6.59647 0)
(64.1257 -7.68111 0)
(63.2168 -8.5629 0)
(62.2868 -9.32748 0)
(61.3463 -10.049 0)
(60.3821 -10.7917 0)
(59.3654 -11.6112 0)
(58.2705 -12.5614 0)
(57.0725 -13.6992 0)
(55.7369 -15.0861 0)
(54.2382 -16.785 0)
(52.5683 -18.7896 0)
(50.7473 -21.0222 0)
(48.8217 -23.5921 0)
(46.5634 -26.7162 0)
(43.7226 -30.6347 0)
(39.8196 -35.499 0)
(34.9108 -41.0586 0)
(30.9087 -45.9878 0)
(31.1455 -47.7351 0)
(37.3133 -44.5075 0)
(45.9092 -38.6238 0)
(47.7124 -35.795 0)
(36.6827 -41.6256 0)
(13.781 -55.0522 0)
(-9.41672 -66.6371 0)
(-37.5003 -75.4835 0)
(-56.4618 -78.2747 0)
(-63.062 -70.8964 0)
(-65.0818 -60.2879 0)
(-64.6468 -50.0305 0)
(-63.097 -41.3488 0)
(-61.1224 -34.4835 0)
(-59.2435 -29.4758 0)
(-57.9704 -26.1962 0)
(-57.7445 -24.191 0)
(-58.6443 -22.7612 0)
(-61.2766 -21.1923 0)
(-65.5708 -18.532 0)
(-71.3663 -13.8104 0)
(-78.3332 -6.12016 0)
(-85.8762 5.23115 0)
(-93.2033 20.587 0)
(-99.4458 39.9033 0)
(-103.89 62.827 0)
(-106.231 88.7327 0)
(-106.565 116.311 0)
(-104.743 142.412 0)
(-97.8445 159.826 0)
(-84.2004 163.103 0)
(-66.5066 156.26 0)
(-45.675 142.256 0)
(-23.5532 124.307 0)
(-2.6176 103.916 0)
(16.4322 81.3423 0)
(35.9202 57.1043 0)
(54.8946 30.5183 0)
(71.1945 5.92181 0)
(84.7255 -15.048 0)
(94.8813 -31.8672 0)
(101.753 -43.8426 0)
(105.381 -50.7002 0)
(105.454 -52.402 0)
(102.927 -50.128 0)
(99.0683 -45.2746 0)
(94.3437 -38.3796 0)
(89.2876 -29.7491 0)
(84.2993 -19.8103 0)
(79.5762 -9.35649 0)
(75.0814 0.324771 0)
(70.7066 7.60598 0)
(66.4149 11.1329 0)
(62.1233 10.5288 0)
(57.6734 6.25816 0)
(52.9453 -0.905423 0)
(47.9546 -10.327 0)
(42.4724 -20.9484 0)
(36.9774 -30.9837 0)
(32.024 -39.4432 0)
(27.2701 -45.9636 0)
(22.5626 -50.6692 0)
(17.6613 -53.7858 0)
(12.2628 -55.4967 0)
(6.32676 -56.4208 0)
(-0.0926509 -56.6368 0)
(-6.86583 -56.0873 0)
(-13.8044 -54.7128 0)
(-20.6935 -52.4696 0)
(-27.3442 -49.3659 0)
(-33.6078 -45.4732 0)
(-39.3182 -40.8907 0)
(-44.3504 -35.7978 0)
(-48.6522 -30.403 0)
(-52.2019 -24.8813 0)
(-28.9124 2.61968 0)
(-28.7813 5.53276 0)
(-28.5062 8.16686 0)
(-28.2703 10.6089 0)
(-28.1027 13.027 0)
(-27.9156 15.6679 0)
(-27.5622 18.7496 0)
(-26.8118 22.3447 0)
(-25.3598 26.2999 0)
(-22.9748 30.3215 0)
(-19.6128 34.1118 0)
(-15.1891 37.5045 0)
(-9.51339 40.3491 0)
(-2.82221 42.2559 0)
(4.49486 43.1628 0)
(12.7194 42.9641 0)
(21.7399 40.9518 0)
(30.269 37.3448 0)
(37.4461 32.7406 0)
(43.6411 27.5499 0)
(49.114 22.1362 0)
(53.6915 16.8968 0)
(57.3072 12.0681 0)
(60.039 7.78527 0)
(61.9853 4.12591 0)
(63.2606 1.09276 0)
(63.9692 -1.35985 0)
(64.211 -3.29158 0)
(64.1585 -4.80054 0)
(63.7322 -5.96167 0)
(63.1346 -6.91806 0)
(62.3978 -7.72429 0)
(61.5439 -8.43083 0)
(60.5864 -9.09332 0)
(59.5197 -9.76123 0)
(58.3295 -10.4824 0)
(56.9965 -11.3089 0)
(55.4857 -12.2924 0)
(53.7593 -13.4936 0)
(51.8377 -15.0103 0)
(49.7718 -16.8784 0)
(47.5305 -18.9324 0)
(45.1192 -21.2213 0)
(42.4732 -24.1488 0)
(39.4826 -27.6415 0)
(36.2669 -31.5841 0)
(32.4113 -36.0074 0)
(27.5805 -41.0238 0)
(22.583 -45.8868 0)
(20.0863 -48.6178 0)
(23.0477 -47.073 0)
(30.4738 -41.3392 0)
(35.2172 -35.2612 0)
(29.3295 -34.8427 0)
(13.345 -42.8446 0)
(-8.87044 -51.8826 0)
(-24.4905 -56.6031 0)
(-48.1171 -59.6438 0)
(-59.3463 -58.2386 0)
(-63.2972 -51.3127 0)
(-64.381 -43.2613 0)
(-63.7809 -36.0282 0)
(-62.791 -30.4621 0)
(-62.3874 -26.4339 0)
(-62.9957 -23.3529 0)
(-64.7693 -20.5545 0)
(-68.2439 -17.3958 0)
(-73.2953 -13.1481 0)
(-79.7168 -7.11289 0)
(-87.1048 1.36441 0)
(-94.8104 12.7671 0)
(-102.072 27.3444 0)
(-108.216 45.1742 0)
(-112.88 66.252 0)
(-116.105 90.2936 0)
(-117.787 115.736 0)
(-115.986 137.997 0)
(-105.482 147.917 0)
(-88.9973 146.434 0)
(-67.7232 135.678 0)
(-43.534 119.361 0)
(-19.1869 101.355 0)
(3.61607 82.3022 0)
(25.3571 61.3151 0)
(47.2449 36.743 0)
(66.9192 12.3401 0)
(83.9167 -9.00666 0)
(97.2009 -26.7741 0)
(106.658 -40.0942 0)
(112.211 -48.4546 0)
(113.461 -51.5292 0)
(110.872 -50.1064 0)
(106.392 -46.0165 0)
(100.581 -40.1016 0)
(94.1339 -32.7357 0)
(87.6609 -24.1146 0)
(81.6248 -14.4967 0)
(76.2754 -4.45885 0)
(71.5928 4.86722 0)
(67.4318 11.8664 0)
(63.5923 15.2936 0)
(59.8007 14.7977 0)
(55.7436 10.8037 0)
(51.2283 4.04567 0)
(46.2877 -4.88244 0)
(40.8429 -15.3384 0)
(34.7592 -25.55 0)
(29.2369 -34.3778 0)
(24.1246 -41.1825 0)
(19.3236 -45.932 0)
(14.6195 -48.8135 0)
(9.64524 -50.0751 0)
(4.26039 -50.5261 0)
(-1.56638 -50.3366 0)
(-7.73004 -49.5338 0)
(-14.059 -48.0844 0)
(-20.3899 -45.9556 0)
(-26.5836 -43.1266 0)
(-32.4725 -39.6019 0)
(-37.9452 -35.57 0)
(-42.8664 -31.1496 0)
(-47.1572 -26.4586 0)
(-50.8004 -21.6263 0)
(-26.012 2.94228 0)
(-26.0957 5.48996 0)
(-25.9936 7.87156 0)
(-25.8022 10.1836 0)
(-25.5444 12.5428 0)
(-25.1795 15.0521 0)
(-24.6033 17.7805 0)
(-23.6462 20.7489 0)
(-22.0985 23.8963 0)
(-19.7807 27.076 0)
(-16.6137 30.1117 0)
(-12.5759 32.8352 0)
(-7.70475 35.0308 0)
(-2.1687 36.4853 0)
(3.96834 36.6012 0)
(10.7392 35.3301 0)
(18.1767 32.984 0)
(25.7718 29.9082 0)
(32.5959 26.0096 0)
(38.6548 21.6526 0)
(44.1414 17.1336 0)
(48.9439 12.7453 0)
(52.9769 8.73495 0)
(56.2403 5.22675 0)
(58.7693 2.25942 0)
(60.6295 -0.165282 0)
(61.8933 -2.08913 0)
(62.6212 -3.58976 0)
(62.8778 -4.72915 0)
(62.8209 -5.61811 0)
(62.3662 -6.33114 0)
(61.7113 -6.95785 0)
(60.8386 -7.50362 0)
(59.7615 -8.00761 0)
(58.4935 -8.51293 0)
(57.0374 -9.05974 0)
(55.383 -9.69062 0)
(53.4949 -10.4545 0)
(51.3279 -11.4375 0)
(48.9258 -12.7949 0)
(46.3998 -14.5733 0)
(43.7165 -16.4967 0)
(40.859 -18.4459 0)
(37.8634 -21.1081 0)
(34.4553 -24.4849 0)
(31.1823 -28.4164 0)
(28.0228 -32.4781 0)
(24.5698 -36.4102 0)
(20.3796 -40.5006 0)
(15.5619 -44.9177 0)
(11.5095 -47.8553 0)
(10.8815 -46.5528 0)
(15.7579 -41.931 0)
(22.0143 -35.1416 0)
(20.5839 -30.1166 0)
(10.6517 -31.7761 0)
(-5.9789 -38.8111 0)
(-22.0952 -42.4285 0)
(-35.1151 -42.8892 0)
(-51.5525 -42.8729 0)
(-59.627 -40.7257 0)
(-64.1251 -36.5902 0)
(-65.7956 -31.2055 0)
(-67.0368 -26.1575 0)
(-68.5622 -21.6076 0)
(-71.1308 -17.2556 0)
(-75.2137 -12.5515 0)
(-80.7866 -6.95029 0)
(-87.6634 0.0876073 0)
(-95.3943 9.03425 0)
(-103.357 20.2445 0)
(-110.97 34.033 0)
(-117.898 50.7271 0)
(-124.167 70.6638 0)
(-129.777 93.5317 0)
(-132.786 116.209 0)
(-126.623 130.242 0)
(-110.957 132.747 0)
(-88.2049 125.228 0)
(-61.7097 110.342 0)
(-34.7304 92.4292 0)
(-9.85102 76.7706 0)
(11.7655 61.3575 0)
(37.5202 38.6726 0)
(60.1142 14.7533 0)
(81.1006 -6.27379 0)
(97.9021 -24.0813 0)
(110.15 -37.838 0)
(117.827 -46.8644 0)
(120.428 -50.6046 0)
(117.93 -49.4366 0)
(112.918 -45.461 0)
(106.065 -39.794 0)
(98.2024 -33.0417 0)
(90.0587 -25.4924 0)
(82.2481 -17.2441 0)
(75.2724 -8.37907 0)
(69.451 0.742521 0)
(64.8336 9.17717 0)
(61.2452 15.5394 0)
(58.3754 18.6994 0)
(55.7366 18.3221 0)
(52.7957 14.7416 0)
(49.2309 8.56226 0)
(45.0243 0.332887 0)
(40.1544 -9.46396 0)
(34.2033 -19.6034 0)
(28.0797 -28.7296 0)
(22.3169 -36.0761 0)
(16.9931 -41.2182 0)
(12.0852 -44.1509 0)
(7.26073 -45.1271 0)
(2.26484 -45.1868 0)
(-3.06332 -44.6342 0)
(-8.67221 -43.5896 0)
(-14.4357 -42.0474 0)
(-20.2362 -39.9589 0)
(-25.9629 -37.2752 0)
(-31.4756 -34.064 0)
(-36.6655 -30.4817 0)
(-41.4032 -26.5889 0)
(-45.6239 -22.472 0)
(-49.304 -18.2236 0)
(-23.3061 3.08613 0)
(-23.5166 5.44331 0)
(-23.5217 7.73604 0)
(-23.3787 9.99539 0)
(-23.0987 12.2706 0)
(-22.6432 14.6131 0)
(-21.9342 17.0613 0)
(-20.8635 19.6147 0)
(-19.3112 22.2125 0)
(-17.1777 24.7218 0)
(-14.3945 26.9436 0)
(-10.9131 28.7246 0)
(-6.77336 30.1268 0)
(-2.00995 30.8879 0)
(3.26196 30.4099 0)
(8.94443 28.5131 0)
(15.2108 25.7938 0)
(22.0675 23.0433 0)
(28.5561 19.8046 0)
(34.3103 15.941 0)
(39.7732 11.921 0)
(44.8733 8.12861 0)
(49.4001 4.81771 0)
(53.2351 2.0511 0)
(56.3615 -0.215959 0)
(58.8076 -1.99623 0)
(60.5888 -3.32494 0)
(61.7307 -4.28188 0)
(62.2597 -4.95083 0)
(62.3117 -5.44147 0)
(61.9682 -5.84506 0)
(61.2141 -6.17755 0)
(60.1696 -6.46732 0)
(58.8331 -6.73993 0)
(57.2349 -7.02771 0)
(55.3946 -7.35451 0)
(53.3058 -7.73809 0)
(50.9435 -8.20916 0)
(48.2576 -8.86924 0)
(45.2822 -9.93969 0)
(42.1654 -11.5894 0)
(38.911 -13.44 0)
(35.5802 -15.1932 0)
(32.2813 -17.773 0)
(28.4198 -21.1977 0)
(24.9565 -25.1441 0)
(21.9156 -29.2511 0)
(19.1446 -33.3398 0)
(16.606 -37.0314 0)
(13.6796 -40.0315 0)
(9.6051 -42.9868 0)
(5.45579 -45.6014 0)
(2.57026 -43.6975 0)
(2.93245 -39.2271 0)
(7.20393 -33.2866 0)
(9.51073 -27.4949 0)
(4.1321 -24.5585 0)
(-8.27686 -25.4168 0)
(-22.3219 -29.4324 0)
(-31.6152 -30.9242 0)
(-45.4698 -29.7753 0)
(-56.2849 -28.9836 0)
(-63.4667 -27.3087 0)
(-68.8409 -23.9889 0)
(-73.4977 -19.4757 0)
(-78.3493 -14.2262 0)
(-83.9724 -8.06001 0)
(-90.7227 -0.795027 0)
(-98.7018 7.51072 0)
(-107.564 17.1196 0)
(-116.778 28.4261 0)
(-125.952 42.0089 0)
(-135.003 58.5625 0)
(-143.702 78.4083 0)
(-149.843 99.1134 0)
(-145.724 112.452 0)
(-130.585 115.445 0)
(-106.209 109.477 0)
(-76.798 97.0903 0)
(-47.5665 82.8195 0)
(-18.1719 68.9736 0)
(-6.07629 53.1309 0)
(31.0593 35.9624 0)
(55.1829 12.5574 0)
(78.6415 -7.74167 0)
(98.5122 -24.7676 0)
(112.986 -38.0404 0)
(122.223 -46.7526 0)
(125.708 -50.2474 0)
(123.132 -48.6714 0)
(117.532 -44.2181 0)
(109.674 -38.1666 0)
(100.503 -31.3106 0)
(90.8382 -24.1193 0)
(81.3324 -16.7927 0)
(72.5316 -9.31662 0)
(64.8815 -1.64059 0)
(58.7176 6.05997 0)
(54.2036 13.0625 0)
(51.3239 18.2431 0)
(49.797 20.7387 0)
(48.9471 20.3213 0)
(47.9709 17.1878 0)
(46.3204 11.6494 0)
(43.8038 4.20124 0)
(40.2801 -4.48201 0)
(35.409 -13.6698 0)
(29.3617 -22.3558 0)
(23.0589 -29.8965 0)
(16.894 -35.6113 0)
(11.1823 -39.1038 0)
(5.87729 -40.2548 0)
(0.80444 -40.1866 0)
(-4.33208 -39.3985 0)
(-9.58194 -38.1742 0)
(-14.8931 -36.5359 0)
(-20.2436 -34.4561 0)
(-25.5433 -31.8677 0)
(-30.6912 -28.8962 0)
(-35.5722 -25.6537 0)
(-40.0881 -22.1874 0)
(-44.1908 -18.5507 0)
(-47.8487 -14.7989 0)
(-20.9577 3.55512 0)
(-21.2601 5.69526 0)
(-21.3467 7.79187 0)
(-21.249 9.85407 0)
(-20.9695 11.9104 0)
(-20.4798 13.9887 0)
(-19.7295 16.1007 0)
(-18.6526 18.2265 0)
(-17.1774 20.3085 0)
(-15.2337 22.2395 0)
(-12.7593 23.8642 0)
(-9.74864 25.1027 0)
(-6.24217 26.0152 0)
(-2.17419 26.3106 0)
(2.31647 25.5927 0)
(7.11848 23.1992 0)
(12.3557 19.7144 0)
(18.3926 16.788 0)
(24.7076 13.9793 0)
(30.3004 10.3358 0)
(35.9281 6.54617 0)
(41.5893 3.10108 0)
(46.8328 0.331755 0)
(51.3434 -1.7581 0)
(55.0803 -3.32554 0)
(58.0885 -4.39634 0)
(60.3172 -5.00105 0)
(61.7266 -5.26512 0)
(62.3518 -5.31101 0)
(62.3855 -5.29483 0)
(61.9024 -5.26266 0)
(60.8831 -5.18655 0)
(59.5031 -5.12536 0)
(57.7714 -5.09334 0)
(55.7333 -5.10293 0)
(53.4189 -5.16592 0)
(50.8241 -5.28894 0)
(47.9531 -5.48561 0)
(44.8139 -5.8572 0)
(41.3897 -6.69255 0)
(37.6338 -8.24256 0)
(33.4597 -10.0957 0)
(29.1861 -11.5373 0)
(25.5164 -13.6984 0)
(21.0419 -17.2497 0)
(17.287 -22.2188 0)
(14.52 -26.8902 0)
(12.1198 -31.1816 0)
(10.3936 -34.9347 0)
(9.21598 -37.6584 0)
(7.74893 -39.3069 0)
(5.06149 -40.4473 0)
(0.913209 -40.0214 0)
(-3.16412 -38.3897 0)
(-6.22483 -34.4291 0)
(-7.34499 -28.7771 0)
(-6.29571 -22.7589 0)
(-8.44547 -18.2495 0)
(-16.2801 -17.3023 0)
(-29.0654 -17.356 0)
(-38.2759 -18.2142 0)
(-47.9625 -18.9006 0)
(-58.756 -18.5245 0)
(-68.9474 -15.9661 0)
(-77.8396 -11.8996 0)
(-87.0311 -6.49382 0)
(-96.5915 0.197787 0)
(-106.699 8.08536 0)
(-117.282 17.2135 0)
(-128 27.4246 0)
(-138.408 38.9465 0)
(-148.442 52.6672 0)
(-157.891 68.9371 0)
(-163.707 85.0039 0)
(-156.954 94.5552 0)
(-139.202 96.9018 0)
(-113.285 91.1232 0)
(-84.7803 79.0056 0)
(-56.9959 64.9662 0)
(-24.4242 56.7191 0)
(-6.21623 44.9181 0)
(22.947 27.9507 0)
(55.6997 5.71155 0)
(78.7159 -12.7317 0)
(99.2844 -28.0056 0)
(114.788 -40.1088 0)
(124.464 -47.8296 0)
(127.811 -50.3038 0)
(124.855 -47.8862 0)
(118.57 -42.6835 0)
(109.714 -35.9354 0)
(99.3167 -28.5276 0)
(88.314 -21.0815 0)
(77.4281 -13.9813 0)
(67.2196 -7.27035 0)
(58.1043 -0.801358 0)
(50.3563 5.50691 0)
(44.1398 11.5156 0)
(39.6917 16.6039 0)
(37.3769 19.9181 0)
(37.1883 21.0476 0)
(38.378 20.0966 0)
(39.9197 17.3351 0)
(41.1679 12.7506 0)
(41.6252 6.45078 0)
(40.5911 -0.988312 0)
(37.6219 -8.83092 0)
(32.8734 -16.6091 0)
(26.8979 -23.7323 0)
(20.2417 -29.3987 0)
(13.3811 -33.088 0)
(6.80991 -34.7052 0)
(0.812987 -34.8654 0)
(-4.85876 -34.1741 0)
(-10.2529 -33.0097 0)
(-15.3836 -31.3854 0)
(-20.4218 -29.3046 0)
(-25.3565 -26.7777 0)
(-30.1739 -24.03 0)
(-34.7549 -21.085 0)
(-39.0327 -17.9589 0)
(-42.9811 -14.6996 0)
(-46.5664 -11.3494 0)
(-18.993 3.97849 0)
(-19.315 5.88125 0)
(-19.4231 7.76682 0)
(-19.334 9.63286 0)
(-19.0461 11.4895 0)
(-18.5417 13.3453 0)
(-17.7923 15.1958 0)
(-16.7639 17.0114 0)
(-15.4211 18.7292 0)
(-13.7199 20.2421 0)
(-11.621 21.4113 0)
(-9.12673 22.1952 0)
(-6.21527 22.5585 0)
(-2.83194 22.353 0)
(0.976321 21.2762 0)
(5.2345 18.4994 0)
(9.96862 14.2262 0)