/*--------------------------------*- C++ -*----------------------------------*\
| =========                 |                                                 |
| \\      /  F ield         | OpenFOAM: The Open Source CFD Toolbox           |
|  \\    /   O peration     | Version:  2206                                  |
|   \\  /    A nd           | Website:  www.openfoam.com                      |
|    \\/     M anipulation  |                                                 |
\*---------------------------------------------------------------------------*/
FoamFile
{
    version     2.0;
    format      ascii;
    arch        "LSB;label=32;scalar=64";
    class       surfaceScalarField;
    location    "20.0001";
    object      phi;
}
// * * * * * * * * * * * * * * * * * * * * * * * * * * * * * * * * * * * * * //

dimensions      [0 3 -1 0 0 0 0];

oriented        oriented;

internalField   nonuniform List<scalar> 
3590
(
5.81666e-06
-3.33567e-07
4.92598e-07
5.67409e-06
-3.32365e-07
4.74935e-07
5.54971e-06
-3.375e-07
4.61885e-07
5.44302e-06
-3.44533e-07
4.51221e-07
5.35237e-06
-3.48064e-07
4.3872e-07
5.27595e-06
-3.42937e-07
4.19351e-07
5.2129e-06
-3.24983e-07
3.88033e-07
5.16338e-06
-2.91448e-07
3.4097e-07
5.12764e-06
-2.41654e-07
2.77393e-07
5.10614e-06
-1.76119e-07
1.97624e-07
5.09916e-06
-9.67978e-08
1.03774e-07
5.10733e-06
-7.95232e-09
-2.16512e-10
5.13032e-06
8.61041e-08
-1.09096e-07
5.16685e-06
1.79329e-07
-2.15864e-07
5.21529e-06
2.6622e-07
-3.14655e-07
5.27386e-06
3.42673e-07
-4.01241e-07
5.34072e-06
4.05486e-07
-4.72349e-07
5.41417e-06
4.52284e-07
-5.25737e-07
5.49264e-06
4.81595e-07
-5.60065e-07
5.57449e-06
4.92779e-07
-5.74628e-07
5.65814e-06
4.85531e-07
-5.69177e-07
5.74224e-06
4.59852e-07
-5.4395e-07
5.82551e-06
4.164e-07
-4.99671e-07
5.90656e-06
3.56847e-07
-4.37898e-07
5.98286e-06
2.84578e-07
-3.60883e-07
6.05042e-06
2.04097e-07
-2.7165e-07
6.10463e-06
1.20362e-07
-1.74578e-07
6.1418e-06
3.74578e-08
-7.46277e-08
6.15942e-06
-4.09968e-08
2.33841e-08
6.15593e-06
-1.11806e-07
1.15292e-07
6.13036e-06
-1.71962e-07
1.97537e-07
6.08319e-06
-2.19664e-07
2.6683e-07
6.01753e-06
-2.55161e-07
3.20817e-07
5.93856e-06
-2.80465e-07
3.59436e-07
5.85242e-06
-2.98082e-07
3.84229e-07
5.76479e-06
-3.10146e-07
3.97775e-07
5.67982e-06
-3.17711e-07
4.02678e-07
5.59996e-06
-3.2072e-07
4.00578e-07
5.52665e-06
-3.18372e-07
3.91686e-07
5.46082e-06
-3.09459e-07
3.75285e-07
5.40327e-06
-2.92736e-07
3.50292e-07
5.35482e-06
-2.67165e-07
3.15612e-07
5.31626e-06
-2.32097e-07
2.70657e-07
5.28809e-06
-1.87468e-07
2.15635e-07
5.27062e-06
-1.33944e-07
1.5142e-07
5.26404e-06
-7.31401e-08
7.97199e-08
5.26836e-06
-7.47537e-09
3.15365e-09
5.28311e-06
5.98095e-08
-7.45598e-08
5.30728e-06
1.24916e-07
-1.4909e-07
5.3397e-06
1.84764e-07
-2.17183e-07
5.37898e-06
2.36906e-07
-2.7618e-07
5.42368e-06
2.79425e-07
-3.24126e-07
5.47251e-06
3.10955e-07
-3.59785e-07
5.52432e-06
3.30714e-07
-3.82525e-07
5.57794e-06
3.38487e-07
-3.92111e-07
5.6322e-06
3.34337e-07
-3.88598e-07
5.68606e-06
3.18511e-07
-3.72364e-07
5.73846e-06
2.91613e-07
-3.44014e-07
5.7883e-06
2.54771e-07
-3.04616e-07
5.83411e-06
2.09872e-07
-2.55681e-07
5.87396e-06
1.59222e-07
-1.99066e-07
5.90582e-06
1.05304e-07
-1.3717e-07
5.92811e-06
5.03215e-08
-7.26109e-08
5.93984e-06
-3.70273e-09
-8.02632e-09
5.9405e-06
-5.49716e-08
5.43103e-08
5.92995e-06
-1.01804e-07
1.12353e-07
5.90832e-06
-1.42673e-07
1.64304e-07
5.87637e-06
-1.76652e-07
2.0861e-07
5.83573e-06
-2.03486e-07
2.44126e-07
5.78862e-06
-2.23366e-07
2.70472e-07
5.73752e-06
-2.3669e-07
2.87786e-07
5.68485e-06
-2.43812e-07
2.9649e-07
5.63259e-06
-2.44961e-07
2.97217e-07
5.58231e-06
-2.40234e-07
2.90508e-07
5.53534e-06
-2.29542e-07
2.76512e-07
5.49284e-06
-2.12729e-07
2.5523e-07
5.45584e-06
-1.89719e-07
2.26724e-07
5.42523e-06
-1.60579e-07
1.91191e-07
5.40169e-06
-1.25624e-07
1.49163e-07
5.38569e-06
-8.5476e-08
1.01471e-07
5.37762e-06
-4.13182e-08
4.93879e-08
5.37769e-06
5.12313e-09
-5.18977e-09
5.38565e-06
5.15751e-08
-5.95326e-08
5.4009e-06
9.58753e-08
-1.11124e-07
5.42256e-06
1.36107e-07
-1.5777e-07
5.44957e-06
1.70616e-07
-1.9763e-07
5.48084e-06
1.98096e-07
-2.29366e-07
5.51534e-06
2.17659e-07
-2.5216e-07
5.55208e-06
2.28916e-07
-2.65648e-07
5.59005e-06
2.31836e-07
-2.69815e-07
5.62838e-06
2.26558e-07
-2.64888e-07
5.66622e-06
2.13374e-07
-2.51205e-07
5.70267e-06
1.92862e-07
-2.29315e-07
5.73684e-06
1.65993e-07
-2.00169e-07
5.76764e-06
1.34161e-07
-1.6496e-07
5.79385e-06
9.88868e-08
-1.25094e-07
5.81437e-06
6.16991e-08
-8.22197e-08
5.82848e-06
2.39696e-08
-3.80776e-08
5.83576e-06
-1.30051e-08
5.72105e-09
5.83609e-06
-4.80553e-08
4.77256e-08
5.82954e-06
-8.00804e-08
8.66313e-08
5.81629e-06
-1.08054e-07
1.21305e-07
5.79669e-06
-1.31163e-07
1.50767e-07
5.77154e-06
-1.49078e-07
1.74222e-07
5.742e-06
-1.61653e-07
1.91191e-07
5.70935e-06
-1.68995e-07
2.01652e-07
5.67488e-06
-1.71318e-07
2.05786e-07
5.63986e-06
-1.68861e-07
2.0388e-07
5.60553e-06
-1.61895e-07
1.96226e-07
5.57306e-06
-1.50664e-07
1.83133e-07
5.54344e-06
-1.35383e-07
1.64999e-07
5.51748e-06
-1.16296e-07
1.42256e-07
5.49584e-06
-9.37052e-08
1.15343e-07
5.47907e-06
-6.79999e-08
8.47714e-08
5.46759e-06
-3.97506e-08
5.12373e-08
5.46167e-06
-9.80582e-09
1.57241e-08
5.46133e-06
2.0698e-08
-2.03589e-08
5.46634e-06
5.05117e-08
-5.55241e-08
5.47629e-06
7.83998e-08
-8.8351e-08
5.49061e-06
1.03225e-07
-1.17542e-07
5.50864e-06
1.23986e-07
-1.42018e-07
5.52972e-06
1.39906e-07
-1.60986e-07
5.55314e-06
1.50541e-07
-1.73962e-07
1.55713e-07
-1.80752e-07
5.39425e-06
-2.10211e-07
5.2846e-06
-2.22716e-07
5.18679e-06
-2.39689e-07
5.09859e-06
-2.56341e-07
5.01828e-06
-2.67751e-07
4.94515e-06
-2.69803e-07
4.87982e-06
-2.59653e-07
4.82414e-06
-2.35769e-07
4.78022e-06
-1.9774e-07
4.74998e-06
-1.45871e-07
4.73498e-06
-8.18031e-08
4.73607e-06
-9.04313e-09
4.75369e-06
6.84919e-08
4.78716e-06
1.45858e-07
4.83503e-06
2.18347e-07
4.89562e-06
2.82082e-07
4.96709e-06
3.34015e-07
5.04752e-06
3.71856e-07
5.13512e-06
3.93999e-07
5.22836e-06
3.9953e-07
5.32577e-06
3.88125e-07
5.42546e-06
3.60161e-07
5.52441e-06
3.1745e-07
5.61799e-06
2.63266e-07
5.7007e-06
2.0187e-07
5.76746e-06
1.37342e-07
5.81458e-06
7.32414e-08
5.83987e-06
1.21688e-08
5.8425e-06
-4.36266e-08
5.82227e-06
-9.1577e-08
5.78069e-06
-1.30381e-07
5.72153e-06
-1.60506e-07
5.65009e-06
-1.83724e-07
5.57167e-06
-2.02046e-07
5.49068e-06
-2.17094e-07
5.41014e-06
-2.29602e-07
5.33183e-06
-2.39403e-07
5.25685e-06
-2.45737e-07
5.18598e-06
-2.47505e-07
5.12005e-06
-2.43525e-07
5.06004e-06
-2.32727e-07
5.00716e-06
-2.14284e-07
4.96278e-06
-1.87718e-07
4.92824e-06
-1.52932e-07
4.90459e-06
-1.10291e-07
4.8925e-06
-6.10471e-08
4.89224e-06
-7.22277e-09
4.90366e-06
4.83945e-08
4.92593e-06
1.02645e-07
4.95796e-06
1.52737e-07
4.99848e-06
1.96378e-07
5.04616e-06
2.31749e-07
5.09955e-06
2.57561e-07
5.15727e-06
2.73003e-07
5.21804e-06
2.77712e-07
5.28067e-06
2.71705e-07
5.34381e-06
2.55375e-07
5.40565e-06
2.29773e-07
5.46381e-06
1.96605e-07
5.51569e-06
1.57993e-07
5.5589e-06
1.16013e-07
5.59161e-06
7.25986e-08
5.61257e-06
2.93629e-08
5.62117e-06
-1.23092e-08
5.61732e-06
-5.11198e-08
5.60115e-06
-8.56346e-08
5.5735e-06
-1.15017e-07
5.53597e-06
-1.3913e-07
5.49076e-06
-1.58273e-07
5.44022e-06
-1.72822e-07
5.3866e-06
-1.83071e-07
5.3319e-06
-1.89112e-07
5.27776e-06
-1.90827e-07
5.22554e-06
-1.88007e-07
5.17639e-06
-1.80399e-07
5.13144e-06
-1.67772e-07
5.09172e-06
-1.50007e-07
5.05827e-06
-1.27126e-07
5.03198e-06
-9.93339e-08
5.01361e-06
-6.71014e-08
5.00363e-06
-3.13384e-08
5.00224e-06
6.51333e-09
5.00924e-06
4.45705e-08
5.0242e-06
8.09171e-08
5.04643e-06
1.13879e-07
5.07503e-06
1.42012e-07
5.10895e-06
1.64177e-07
5.14704e-06
1.79573e-07
5.18819e-06
1.87759e-07
5.23141e-06
1.88623e-07
5.27566e-06
1.82304e-07
5.31982e-06
1.69213e-07
5.36249e-06
1.50196e-07
5.40203e-06
1.26455e-07
5.43684e-06
9.93508e-08
5.46558e-06
7.01496e-08
5.48724e-06
4.00384e-08
5.50114e-06
1.00637e-08
5.507e-06
-1.88593e-08
5.50473e-06
-4.57857e-08
5.49435e-06
-6.96995e-08
5.47627e-06
-8.99765e-08
5.45139e-06
-1.06288e-07
5.42096e-06
-1.18644e-07
5.38645e-06
-1.27145e-07
5.34938e-06
-1.31924e-07
5.31117e-06
-1.33105e-07
5.27314e-06
-1.30834e-07
5.23647e-06
-1.25222e-07
5.20212e-06
-1.16319e-07
5.17095e-06
-1.04211e-07
5.1437e-06
-8.90469e-08
5.12104e-06
-7.1044e-08
5.10353e-06
-5.04949e-08
5.09161e-06
-2.78225e-08
5.08548e-06
-3.68408e-09
5.08518e-06
2.10013e-08
5.09056e-06
4.51284e-08
5.10138e-06
6.75852e-08
5.11718e-06
8.74212e-08
5.13736e-06
1.03809e-07
5.16119e-06
1.16078e-07
5.18792e-06
1.23809e-07
1.26808e-07
5.02969e-06
-1.29542e-07
4.95367e-06
-1.46699e-07
4.87964e-06
-1.65663e-07
4.80594e-06
-1.82637e-07
4.73229e-06
-1.94102e-07
4.65981e-06
-1.97325e-07
4.59076e-06
-1.906e-07
4.52815e-06
-1.73163e-07
4.47529e-06
-1.44877e-07
4.43552e-06
-1.06104e-07
4.4116e-06
-5.78748e-08
4.40516e-06
-2.60406e-09
4.41704e-06
5.66119e-08
4.44716e-06
1.15735e-07
4.49449e-06
1.71013e-07
4.55746e-06
2.19118e-07
4.63415e-06
2.57319e-07
4.72246e-06
2.83547e-07
4.82003e-06
2.96429e-07
4.9242e-06
2.95359e-07
5.03155e-06
2.80774e-07
5.13734e-06
2.54375e-07
5.2359e-06
2.18887e-07
5.32171e-06
1.7746e-07
5.39029e-06
1.33285e-07
5.43869e-06
8.89476e-08
5.46578e-06
4.61506e-08
5.47176e-06
6.18423e-09
5.45754e-06
-2.94004e-08
5.42528e-06
-5.93232e-08
5.37875e-06
-8.38459e-08
5.32228e-06
-1.04034e-07
5.2596e-06
-1.21052e-07
5.19343e-06
-1.35875e-07
5.12545e-06
-1.49108e-07
5.05668e-06
-1.60834e-07
4.98786e-06
-1.70585e-07
4.91965e-06
-1.77529e-07
4.85284e-06
-1.80688e-07
4.78844e-06
-1.7913e-07
4.72778e-06
-1.72066e-07
4.67238e-06
-1.58888e-07
4.62394e-06
-1.39278e-07
4.58425e-06
-1.13236e-07
4.55506e-06
-8.10985e-08
4.53752e-06
-4.35161e-08
4.53269e-06
-2.38636e-09
4.54064e-06
4.04373e-08
4.56104e-06
8.22474e-08
4.59298e-06
1.20805e-07
4.63521e-06
1.54146e-07
4.68628e-06
1.80672e-07
4.74461e-06
1.99234e-07
4.80848e-06
2.09138e-07
4.87604e-06
2.10146e-07
4.94523e-06
2.02518e-07
5.01346e-06
1.87148e-07
5.07782e-06
1.65407e-07
5.13555e-06
1.38877e-07
5.18429e-06
1.09256e-07
5.22222e-06
7.80841e-08
5.24824e-06
4.65789e-08
5.26197e-06
1.5632e-08
5.26336e-06
-1.37007e-08
5.25266e-06
-4.04211e-08
5.2307e-06
-6.36722e-08
5.19905e-06
-8.33674e-08
5.15967e-06
-9.97524e-08
5.11452e-06
-1.13121e-07
5.06539e-06
-1.237e-07
5.0139e-06
-1.31581e-07
4.96148e-06
-1.36683e-07
4.90938e-06
-1.38731e-07
4.85875e-06
-1.37379e-07
4.81067e-06
-1.32314e-07
4.76619e-06
-1.23293e-07
4.72636e-06
-1.10184e-07
4.69225e-06
-9.30155e-08
4.66493e-06
-7.20062e-08
4.64537e-06
-4.75398e-08
4.6343e-06
-2.0274e-08
4.63213e-06
8.6858e-09
4.63892e-06
3.77823e-08
4.65441e-06
6.54251e-08
4.678e-06
9.02839e-08
4.70883e-06
1.1119e-07
4.74579e-06
1.27209e-07
4.78767e-06
1.37692e-07
4.83314e-06
1.4229e-07
4.88081e-06
1.40955e-07
4.9291e-06
1.34018e-07
4.97613e-06
1.22177e-07
5.01997e-06
1.06356e-07
5.05887e-06
8.75549e-08
5.09139e-06
6.68286e-08
5.11644e-06
4.51042e-08
5.1334e-06
2.30811e-08
5.14196e-06
1.49864e-09
5.14209e-06
-1.89862e-08
5.13382e-06
-3.75166e-08
5.11769e-06
-5.35646e-08
5.09467e-06
-6.69637e-08
5.06611e-06
-7.77288e-08
5.03341e-06
-8.59357e-08
4.99791e-06
-9.1652e-08
4.96091e-06
-9.49193e-08
4.92357e-06
-9.57635e-08
4.88692e-06
-9.41832e-08
4.85183e-06
-9.01384e-08
4.81911e-06
-8.35974e-08
4.78949e-06
-7.4585e-08
4.76364e-06
-6.32001e-08
4.74221e-06
-4.96172e-08
4.72579e-06
-3.40773e-08
4.71487e-06
-1.68982e-08
4.70977e-06
1.42032e-09
4.71065e-06
2.01159e-08
4.71756e-06
3.82145e-08
4.7303e-06
5.4854e-08
4.74841e-06
6.9308e-08
4.77128e-06
8.09406e-08
4.79811e-06
8.92494e-08
4.82801e-06
9.39024e-08
9.47472e-08
4.71877e-06
-8.03896e-08
4.66607e-06
-9.40007e-08
4.60815e-06
-1.07744e-07
4.545e-06
-1.19486e-07
4.47812e-06
-1.27218e-07
4.41008e-06
-1.2929e-07
4.34404e-06
-1.24555e-07
4.28329e-06
-1.12415e-07
4.23115e-06
-9.27409e-08
4.1909e-06
-6.58476e-08
4.16552e-06
-3.25005e-08
4.15691e-06
6.00982e-09
4.16636e-06
4.71623e-08
4.19413e-06
8.79613e-08
4.23945e-06
1.25696e-07
4.30069e-06
1.57877e-07
4.37554e-06
1.82467e-07
4.46106e-06
1.98028e-07
4.55364e-06
2.03852e-07
4.64877e-06
2.00225e-07
4.74123e-06
1.88316e-07
4.82589e-06
1.69714e-07
4.89856e-06
1.4622e-07
4.95628e-06
1.19738e-07
4.99759e-06
9.19781e-08
5.02231e-06
6.42224e-08
5.03118e-06
3.72834e-08
5.02552e-06
1.18436e-08
5.00685e-06
-1.07305e-08
4.97777e-06
-3.02434e-08
4.94091e-06
-4.69849e-08
4.89834e-06
-6.14664e-08
4.8515e-06
-7.42054e-08
4.80126e-06
-8.56364e-08
4.74815e-06
-9.59989e-08
4.69256e-06
-1.05249e-07
4.63502e-06
-1.13042e-07
4.5763e-06
-1.18809e-07
4.51746e-06
-1.21847e-07
4.45976e-06
-1.2143e-07
4.40464e-06
-1.16948e-07
4.35372e-06
-1.07965e-07
4.3087e-06
-9.42626e-08
4.27134e-06
-7.58746e-08
4.24334e-06
-5.30934e-08
4.22632e-06
-2.64996e-08
4.22112e-06
2.81805e-09
4.22837e-06
3.31816e-08
4.24797e-06
6.26484e-08
4.27918e-06
8.95963e-08
4.32077e-06
1.12553e-07
4.37112e-06
1.30319e-07
4.4283e-06
1.42059e-07
4.49009e-06
1.47348e-07
4.55395e-06
1.46284e-07
4.61698e-06
1.39486e-07
4.67629e-06
1.27837e-07
4.72937e-06
1.12328e-07
4.77419e-06
9.40645e-08
4.80932e-06
7.41188e-08
4.83403e-06
5.33726e-08
4.84816e-06
3.24521e-08
4.85177e-06
1.20221e-08
4.84522e-06
-7.14962e-09
4.82921e-06
-2.44145e-08
4.80514e-06
-3.96035e-08
4.77459e-06
-5.2809e-08
4.739e-06
-6.41682e-08
4.69967e-06
-7.37943e-08
4.65771e-06
-8.17346e-08
4.61407e-06
-8.79416e-08
4.56965e-06
-9.22584e-08
4.52531e-06
-9.43977e-08
4.48196e-06
-9.40295e-08
4.44053e-06
-9.08828e-08
4.40201e-06
-8.47693e-08
4.36743e-06
-7.56082e-08
4.33787e-06
-6.34492e-08
4.31434e-06
-4.84812e-08
4.29782e-06
-3.10224e-08
4.28911e-06
-1.15646e-08
4.28875e-06
9.04814e-09
4.29698e-06
2.9551e-08
4.31358e-06
4.88289e-08
4.33792e-06
6.59444e-08
4.36906e-06
8.00526e-08
4.40578e-06
9.04891e-08
4.44665e-06
9.68204e-08
4.49005e-06
9.88899e-08
4.5341e-06
9.69002e-08
4.57681e-06
9.13074e-08
4.61634e-06
8.26455e-08
4.65116e-06
7.15438e-08
4.68003e-06
5.86847e-08
4.70214e-06
4.47154e-08
4.71708e-06
3.01607e-08
4.72476e-06
1.54039e-08
4.72521e-06
1.04704e-09
4.71864e-06
-1.24171e-08
4.70562e-06
-2.44909e-08
4.68709e-06
-3.50398e-08
4.66415e-06
-4.40174e-08
4.63783e-06
-5.1408e-08
4.60909e-06
-5.7203e-08
4.57883e-06
-6.1391e-08
4.54786e-06
-6.39478e-08
4.51692e-06
-6.48261e-08
4.4867e-06
-6.39587e-08
4.45784e-06
-6.12815e-08
4.43101e-06
-5.67624e-08
4.40684e-06
-5.04203e-08
4.38598e-06
-4.23343e-08
4.36901e-06
-3.26464e-08
4.35648e-06
-2.15527e-08
4.34889e-06
-9.30423e-09
4.34659e-06
3.71386e-09
4.34986e-06
1.68476e-08
4.35871e-06
2.93687e-08
4.37283e-06
4.07307e-08
4.39171e-06
5.04278e-08
4.41463e-06
5.80225e-08
4.44069e-06
6.31868e-08
4.46886e-06
6.57332e-08
6.56625e-08
4.35143e-06
-4.54413e-08
4.31109e-06
-5.36572e-08
4.26537e-06
-6.20334e-08
4.21521e-06
-6.93208e-08
4.16218e-06
-7.41873e-08
4.10836e-06
-7.54714e-08
4.05608e-06
-7.22808e-08
4.00781e-06
-6.41446e-08
3.96607e-06
-5.09971e-08
3.93337e-06
-3.31507e-08
3.91227e-06
-1.13953e-08
3.9045e-06
1.37801e-08
3.9116e-06
4.00555e-08
3.93374e-06
6.58243e-08
3.96994e-06
8.94959e-08
4.01828e-06
1.09542e-07
4.07601e-06
1.24733e-07
4.13976e-06
1.34277e-07
4.20568e-06
1.37931e-07
4.26995e-06
1.35956e-07
4.3293e-06
1.28968e-07
4.3812e-06
1.17814e-07
4.42391e-06
1.03509e-07
4.45651e-06
8.71363e-08
4.47879e-06
6.96944e-08
4.49102e-06
5.19934e-08
4.49367e-06
3.46369e-08
4.48729e-06
1.82271e-08
4.47303e-06
3.52562e-09
4.45228e-06
-9.49039e-09
4.42631e-06
-2.10166e-08
4.39617e-06
-3.13253e-08
4.36267e-06
-4.07061e-08
4.3264e-06
-4.93691e-08
4.28779e-06
-5.73833e-08
4.24717e-06
-6.46336e-08
4.20495e-06
-7.08236e-08
4.16167e-06
-7.55273e-08
4.11807e-06
-7.82415e-08
4.07507e-06
-7.84372e-08
4.0338e-06
-7.56786e-08
3.99554e-06
-6.9702e-08
3.96169e-06
-6.04159e-08
3.93368e-06
-4.78583e-08
3.9129e-06
-3.23122e-08
3.90067e-06
-1.42722e-08
3.89802e-06
5.47073e-09
3.90556e-06
2.56353e-08
3.92317e-06
4.50445e-08
3.95006e-06
6.27062e-08
3.98493e-06
7.7681e-08
4.02603e-06
8.92194e-08
4.07125e-06
9.68397e-08
4.11821e-06
1.00386e-07
4.16449e-06
1.00008e-07
4.20791e-06
9.60613e-08
4.24671e-06
8.90404e-08
4.2795e-06
7.95373e-08
4.30538e-06
6.81882e-08
4.32389e-06
5.56016e-08
4.33497e-06
4.22998e-08
4.3387e-06
2.87209e-08
4.33543e-06
1.52909e-08
4.3257e-06
2.58065e-09
4.31046e-06
-9.17854e-09
4.29077e-06
-1.99076e-08
4.26753e-06
-2.95691e-08
4.24151e-06
-3.81491e-08
4.21334e-06
-4.56254e-08
4.18355e-06
-5.1945e-08
4.15261e-06
-5.70083e-08
4.12102e-06
-6.06644e-08
4.08932e-06
-6.2699e-08
4.05816e-06
-6.28694e-08
4.02827e-06
-6.099e-08
4.00045e-06
-5.69503e-08
3.97557e-06
-5.07242e-08
3.95448e-06
-4.23657e-08
3.93805e-06
-3.20458e-08
3.92706e-06
-2.00313e-08
3.92221e-06
-6.71825e-09
3.92398e-06
7.27414e-09
3.9325e-06
2.10324e-08
3.94742e-06
3.391e-08
3.96805e-06
4.53128e-08
3.9934e-06
5.47058e-08
4.02221e-06
6.16824e-08
4.05302e-06
6.60048e-08
4.08429e-06
6.76266e-08
4.11452e-06
6.66664e-08
4.14247e-06
6.33595e-08
4.16709e-06
5.80178e-08
4.18763e-06
5.10124e-08
4.20356e-06
4.27516e-08
4.21465e-06
3.36293e-08
4.22082e-06
2.39851e-08
4.22211e-06
1.41162e-08
4.21875e-06
4.40068e-09
4.21107e-06
-4.73488e-09
4.19968e-06
-1.31032e-08
4.18522e-06
-2.05785e-08
4.16828e-06
-2.70747e-08
4.1494e-06
-3.25309e-08
4.1291e-06
-3.69035e-08
4.10787e-06
-4.01552e-08
4.08617e-06
-4.22496e-08
4.06448e-06
-4.31339e-08
4.04326e-06
-4.2743e-08
4.02301e-06
-4.1031e-08
4.00423e-06
-3.79833e-08
3.98744e-06
-3.36234e-08
3.97312e-06
-2.80166e-08
3.96175e-06
-2.12732e-08
3.95375e-06
-1.35563e-08
3.94951e-06
-5.0688e-09
3.94934e-06
3.89133e-09
3.95336e-06
1.28286e-08
3.96142e-06
2.13071e-08
3.97316e-06
2.89907e-08
3.98803e-06
3.55499e-08
4.00535e-06
4.07044e-08
4.02429e-06
4.4252e-08
4.04393e-06
4.60889e-08
4.62068e-08
3.67278e-06
-2.23947e-08
3.64825e-06
-2.91343e-08
3.62202e-06
-3.58012e-08
3.59416e-06
-4.14632e-08
3.56512e-06
-4.51482e-08
3.5357e-06
-4.60507e-08
3.50709e-06
-4.36653e-08
3.48073e-06
-3.77824e-08
3.45819e-06
-2.84634e-08
3.44104e-06
-1.59993e-08
3.43068e-06
-1.03782e-09
3.42867e-06
1.57957e-08
3.43541e-06
3.33098e-08
3.45076e-06
5.04758e-08
3.47395e-06
6.63085e-08
3.50363e-06
7.98595e-08
3.538e-06
9.03664e-08
3.57493e-06
9.73406e-08
3.6123e-06
1.00569e-07
3.64816e-06
1.00096e-07
3.6809e-06
9.62274e-08
3.70926e-06
8.94563e-08
3.73235e-06
8.04123e-08
3.74971e-06
6.97833e-08
3.76118e-06
5.82181e-08
3.76688e-06
4.62917e-08
3.76709e-06
3.44313e-08
3.76227e-06
2.30461e-08
3.75332e-06
1.24799e-08
3.74102e-06
2.80509e-09
3.72604e-06
-6.03169e-09
3.70891e-06
-1.41986e-08
3.69001e-06
-2.18022e-08
3.66953e-06
-2.88923e-08
3.64758e-06
-3.54348e-08
3.62424e-06
-4.12895e-08
3.59963e-06
-4.62196e-08
3.57403e-06
-4.99242e-08
3.54786e-06
-5.20731e-08
3.52176e-06
-5.23331e-08
3.49652e-06
-5.04426e-08
3.47307e-06
-4.62524e-08
3.45237e-06
-3.9719e-08
3.43544e-06
-3.09205e-08
3.42321e-06
-2.00815e-08
3.41653e-06
-7.5953e-09
3.41611e-06
5.89233e-09
3.42212e-06
1.96192e-08
3.43427e-06
3.2894e-08
3.4519e-06
4.50791e-08
3.47401e-06
5.55739e-08
3.49933e-06
6.38962e-08
3.52644e-06
6.97336e-08
3.55389e-06
7.29375e-08
3.58039e-06
7.35047e-08
3.60486e-06
7.15896e-08
3.62644e-06
6.74659e-08
3.64449e-06
6.14834e-08
3.65864e-06
5.40329e-08
3.66873e-06
4.55204e-08
3.67469e-06
3.63321e-08
3.67662e-06
2.67981e-08
3.67468e-06
1.72225e-08
3.66932e-06
7.94311e-09
3.66098e-06
-8.38293e-10
3.65005e-06
-8.97077e-09
3.63688e-06
-1.64026e-08
3.62181e-06
-2.30779e-08
3.60512e-06
-2.89385e-08
3.58709e-06
-3.39154e-08
3.568e-06
-3.79182e-08
3.54817e-06
-4.083e-08
3.52798e-06
-4.25145e-08
3.50793e-06
-4.2818e-08
3.48856e-06
-4.16149e-08
3.47045e-06
-3.88459e-08
3.45423e-06
-3.45075e-08
3.44053e-06
-2.8661e-08
3.42994e-06
-2.14516e-08
3.42298e-06
-1.30737e-08
3.42009e-06
-3.82924e-09
3.42154e-06
5.82454e-09
3.42725e-06
1.53252e-08
3.43688e-06
2.42707e-08
3.44993e-06
3.22667e-08
3.46568e-06
3.89556e-08
3.4833e-06
4.40624e-08
3.50189e-06
4.742e-08
3.52056e-06
4.89571e-08
3.53852e-06
4.86993e-08
3.55511e-06
4.67698e-08
3.56977e-06
4.33642e-08
3.58205e-06
3.8725e-08
3.59168e-06
3.31218e-08
3.59848e-06
2.68294e-08
3.60236e-06
2.01076e-08
3.60329e-06
1.31909e-08
3.60137e-06
6.31465e-09
3.59688e-06
-2.42732e-10
3.59009e-06
-6.31254e-09
3.5813e-06
-1.17942e-08
3.57084e-06
-1.66095e-08
3.55901e-06
-2.06978e-08
3.54611e-06
-2.40121e-08
3.53247e-06
-2.65135e-08
3.51839e-06
-2.81655e-08
3.50418e-06
-2.89284e-08
3.4902e-06
-2.87564e-08
3.47678e-06
-2.76182e-08
3.46431e-06
-2.55095e-08
3.45314e-06
-2.24534e-08
3.44363e-06
-1.8504e-08
3.4361e-06
-1.37481e-08
3.43086e-06
-8.31579e-09
3.42815e-06
-2.35577e-09
3.42814e-06
3.89799e-09
3.43085e-06
1.01157e-08
3.43613e-06
1.60342e-08
3.4437e-06
2.14217e-08
3.4532e-06
2.60492e-08
3.46418e-06
2.97209e-08
3.47614e-06
3.22941e-08
3.48854e-06
3.36892e-08
3.3879e-08
2.72702e-06
-1.42326e-08
2.71748e-06
-1.95978e-08
2.70631e-06
-2.46256e-08
2.69349e-06
-2.86493e-08
2.67937e-06
-3.10232e-08
2.66459e-06
-3.12702e-08
2.65e-06
-2.90817e-08
2.63666e-06
-2.44374e-08
2.62562e-06
-1.7424e-08
2.61785e-06
-8.23051e-09
2.61428e-06
2.53552e-09
2.61559e-06
1.44855e-08
2.62199e-06
2.69092e-08
2.6334e-06
3.90639e-08
2.64946e-06
5.02503e-08
2.66948e-06
5.98362e-08
2.69253e-06
6.73188e-08
2.7175e-06
7.23731e-08
2.74322e-06
7.48491e-08
2.76854e-06
7.47716e-08
2.79244e-06
7.23287e-08
2.81405e-06
6.78401e-08
2.83274e-06
6.17283e-08
2.84808e-06
5.44386e-08
2.8599e-06
4.64008e-08
2.86819e-06
3.80046e-08
2.87303e-06
2.95888e-08
2.87469e-06
2.13897e-08
2.87356e-06
1.36041e-08
2.87008e-06
6.28553e-09
2.86449e-06
-4.42814e-10
2.85707e-06
-6.77953e-09
2.84798e-06
-1.271e-08
2.83732e-06
-1.82334e-08
2.82518e-06
-2.32897e-08
2.81164e-06
-2.77569e-08
2.79689e-06
-3.14632e-08
2.78117e-06
-3.42109e-08
2.76487e-06
-3.5772e-08
2.74848e-06
-3.59402e-08
2.73258e-06
-3.45443e-08
2.71785e-06
-3.15215e-08
2.70498e-06
-2.68431e-08
2.69464e-06
-2.05825e-08
2.68746e-06
-1.29019e-08
2.68389e-06
-4.02548e-09
2.68448e-06
5.30578e-09
2.68913e-06
1.49682e-08
2.69765e-06
2.43714e-08
2.70967e-06
3.3061e-08
2.72462e-06
4.06181e-08
2.74181e-06
4.67052e-08
2.76046e-06
5.10905e-08
2.77975e-06
5.36475e-08
2.79891e-06
5.43448e-08
2.81723e-06
5.32641e-08
2.83412e-06
5.05785e-08
2.84908e-06
4.65219e-08
2.86175e-06
4.13623e-08
2.87189e-06
3.53806e-08
2.87936e-06
2.88595e-08
2.88412e-06
2.20458e-08
2.88617e-06
1.51696e-08
2.88568e-06
8.42968e-09
2.88287e-06
1.97067e-09
2.87791e-06
-4.00526e-09
2.87103e-06
-9.52236e-09
2.86245e-06
-1.44959e-08
2.85238e-06
-1.88717e-08
2.84105e-06
-2.25876e-08
2.82871e-06
-2.55722e-08
2.81562e-06
-2.77399e-08
2.8021e-06
-2.89972e-08
2.78854e-06
-2.92572e-08
2.77536e-06
-2.8437e-08
2.76302e-06
-2.65054e-08
2.75198e-06
-2.3466e-08
2.74267e-06
-1.93552e-08
2.73555e-06
-1.43323e-08
2.73096e-06
-8.48535e-09
2.72919e-06
-2.05274e-09
2.73039e-06
4.61926e-09
2.73448e-06
1.12423e-08
2.74123e-06
1.75131e-08
2.75035e-06
2.31492e-08
2.76141e-06
2.79011e-08
2.77389e-06
3.15758e-08
2.78726e-06
3.40503e-08
2.80095e-06
3.52694e-08
2.81441e-06
3.52381e-08
2.82715e-06
3.40295e-08
2.83874e-06
3.17745e-08
2.84883e-06
2.86379e-08
2.85715e-06
2.47963e-08
2.86354e-06
2.04425e-08
2.8679e-06
1.57512e-08
2.87016e-06
1.09302e-08
2.87036e-06
6.11047e-09
2.86866e-06
1.45987e-09
2.86521e-06
-2.86179e-09
2.86021e-06
-6.79864e-09
2.85388e-06
-1.02811e-08
2.84644e-06
-1.32579e-08
2.83812e-06
-1.56879e-08
2.82914e-06
-1.75376e-08
2.81975e-06
-1.87757e-08
2.8102e-06
-1.93729e-08
2.80075e-06
-1.93031e-08
2.79167e-06
-1.85428e-08
2.78325e-06
-1.70942e-08
2.77578e-06
-1.4978e-08
2.7695e-06
-1.22286e-08
2.76466e-06
-8.9016e-09
2.76148e-06
-5.13561e-09
2.76012e-06
-1.00074e-09
2.76071e-06
3.30769e-09
2.76322e-06
7.60515e-09
2.76754e-06
1.17145e-08
2.7735e-06
1.54631e-08
2.78086e-06
1.86905e-08
2.78932e-06
2.12621e-08
2.79853e-06
2.30795e-08
2.80814e-06
2.40861e-08
2.42614e-08
1.70544e-06
-1.06509e-08
1.7e-06
-1.41613e-08
1.69277e-06
-1.7398e-08
1.68405e-06
-1.99324e-08
1.67438e-06
-2.13511e-08
1.66447e-06
-2.13574e-08
1.65517e-06
-1.97829e-08
1.64731e-06
-1.65776e-08
1.64176e-06
-1.18768e-08
1.63924e-06
-5.70961e-09
1.64048e-06
1.29443e-09
1.64592e-06
9.05108e-09
1.65562e-06
1.72081e-08
1.66949e-06
2.51921e-08
1.68721e-06
3.25343e-08
1.70821e-06
3.8831e-08
1.73176e-06
4.3768e-08
1.75699e-06
4.7149e-08
1.78295e-06
4.88821e-08
1.80874e-06
4.89834e-08
1.83351e-06
4.75632e-08
1.85654e-06
4.48134e-08
1.87726e-06
4.10013e-08
1.89531e-06
3.63882e-08
1.91047e-06
3.12441e-08
1.92263e-06
2.58412e-08
1.93186e-06
2.03638e-08
1.93827e-06
1.4977e-08
1.94211e-06
9.76865e-09
1.94358e-06
4.80659e-09
1.94281e-06
3.27124e-10
1.94004e-06
-4.00934e-09
1.93542e-06
-8.08141e-09
1.92906e-06
-1.1878e-08
1.92111e-06
-1.53422e-08
1.91174e-06
-1.83886e-08
1.90119e-06
-2.09035e-08
1.88974e-06
-2.27675e-08
1.87779e-06
-2.38233e-08
1.8658e-06
-2.39466e-08
1.85428e-06
-2.3029e-08
1.84382e-06
-2.10551e-08
1.83496e-06
-1.79893e-08
1.82827e-06
-1.38928e-08
1.82423e-06
-8.8616e-09
1.82318e-06
-2.96958e-09
1.82555e-06
2.93578e-09
1.83128e-06
9.23352e-09
1.84026e-06
1.539e-08
1.85223e-06
2.10942e-08
1.86678e-06
2.60732e-08
1.88337e-06
3.01115e-08
1.90141e-06
3.30545e-08
1.92023e-06
3.48182e-08
1.93919e-06
3.53855e-08
1.95766e-06
3.48029e-08
1.97506e-06
3.3171e-08
1.99095e-06
3.06355e-08
2.00495e-06
2.736e-08
2.01679e-06
2.35374e-08
2.02631e-06
1.9341e-08
2.03343e-06
1.49309e-08
2.03814e-06
1.0462e-08
2.04052e-06
6.04968e-09
2.04076e-06
1.72951e-09
2.03888e-06
-2.12719e-09
2.03516e-06
-5.80812e-09
2.0298e-06
-9.13203e-09
2.02299e-06
-1.20657e-08
2.01497e-06
-1.45618e-08
2.00597e-06
-1.65688e-08
1.99626e-06
-1.80315e-08
1.98615e-06
-1.88884e-08
1.97598e-06
-1.90923e-08
1.96613e-06
-1.85856e-08
1.95698e-06
-1.73492e-08
1.94889e-06
-1.53765e-08
1.94226e-06
-1.27276e-08
1.93742e-06
-9.49062e-09
1.93465e-06
-5.72165e-09
1.93416e-06
-1.56091e-09
1.93611e-06
2.67541e-09
1.94041e-06
6.94055e-09
1.94692e-06
1.0997e-08
1.95542e-06
1.46547e-08
1.96557e-06
1.77533e-08
1.97697e-06
2.01679e-08
1.9892e-06
2.182e-08
2.0018e-06
2.26719e-08
2.01432e-06
2.27238e-08
2.02633e-06
2.20141e-08
2.03748e-06
2.06301e-08
2.04744e-06
1.86689e-08
2.056e-06
1.62423e-08
2.06298e-06
1.34592e-08
2.06828e-06
1.04552e-08
2.07185e-06
7.35744e-09
2.07371e-06
4.2498e-09
2.07396e-06
1.21367e-09
2.07266e-06
-1.56894e-09
2.07002e-06
-4.14961e-09
2.06618e-06
-6.44267e-09
2.06133e-06
-8.41363e-09
2.05568e-06
-1.00331e-08
2.04941e-06
-1.12746e-08
2.04275e-06
-1.21145e-08
2.03591e-06
-1.2533e-08
2.02913e-06
-1.25172e-08
2.02263e-06
-1.20485e-08
2.01667e-06
-1.11304e-08
2.01147e-06
-9.77468e-09
2.00723e-06
-7.99592e-09
2.0042e-06
-5.87212e-09
2.00251e-06
-3.44372e-09
2.00228e-06
-7.72583e-10
2.00363e-06
1.95921e-09
2.00652e-06
4.71738e-09
2.01087e-06
7.36768e-09
2.01654e-06
9.79238e-09
2.02334e-06
1.18881e-08
2.03103e-06
1.35691e-08
2.03934e-06
1.47724e-08
2.04797e-06
1.54598e-08
1.5619e-08
8.31477e-07
-7.01934e-09
8.26136e-07
-8.81958e-09
8.19234e-07
-1.04964e-08
8.11135e-07
-1.18332e-08
8.02414e-07
-1.26306e-08
7.93796e-07
-1.27387e-08
7.86055e-07
-1.20422e-08
7.79969e-07
-1.0491e-08
7.76246e-07
-8.15385e-09
7.75574e-07
-5.03836e-09
7.78199e-07
-1.33025e-09
7.85079e-07
2.17066e-09
7.96017e-07
6.27053e-09
8.10925e-07
1.02843e-08
8.29475e-07
1.39844e-08
8.51129e-07
1.71772e-08
8.7518e-07
1.97162e-08
9.00827e-07
2.15025e-08
9.27219e-07
2.24899e-08
9.53513e-07
2.26892e-08
9.7894e-07
2.21361e-08
1.00283e-06
2.09287e-08
1.02464e-06
1.91833e-08
1.044e-06
1.70297e-08
1.06064e-06
1.46097e-08
1.07444e-06
1.20385e-08
1.0854e-06
9.40405e-09
1.09359e-06
6.7858e-09
1.09911e-06
4.24637e-09
1.10214e-06
1.77659e-09
1.10284e-06
-3.68053e-10
1.10133e-06
-2.50386e-09
1.09779e-06
-4.54174e-09
1.09237e-06
-6.45259e-09
1.08523e-06
-8.20845e-09
1.07661e-06
-9.76925e-09
1.0668e-06
-1.10868e-08
1.05612e-06
-1.20885e-08
1.045e-06
-1.27091e-08
1.03393e-06
-1.2877e-08
1.02344e-06
-1.25354e-08
1.01403e-06
-1.16425e-08
1.00622e-06
-1.01837e-08
1.00054e-06
-8.21429e-09
9.97405e-07
-5.72337e-09
9.97215e-07
-2.77952e-09
1.00011e-06
4.20675e-11
1.00629e-06
3.05558e-09
1.01556e-06
6.11729e-09
1.02769e-06
8.9685e-09
1.04229e-06
1.14735e-08
1.05887e-06
1.35301e-08
1.07686e-06
1.50595e-08
1.09565e-06
1.60256e-08
1.11462e-06
1.64156e-08
1.13318e-06
1.62448e-08
1.1508e-06
1.55515e-08
1.16702e-06
1.44186e-08
1.18146e-06
1.29191e-08
1.19386e-06
1.11377e-08
1.20405e-06
9.15205e-09
1.21194e-06
7.04225e-09
1.2175e-06
4.90353e-09
1.22079e-06
2.75816e-09
1.22191e-06
6.08793e-10
1.22094e-06
-1.16013e-09
1.21812e-06
-2.99021e-09
1.21364e-06
-4.65458e-09
1.20771e-06
-6.13483e-09
1.20056e-06
-7.40399e-09
1.19242e-06
-8.4335e-09
1.18359e-06
-9.20417e-09
1.17439e-06
-9.68275e-09
1.16514e-06
-9.84318e-09
1.15621e-06
-9.65677e-09
1.14798e-06
-9.11542e-09
1.14081e-06
-8.21109e-09
1.13504e-06
-6.95763e-09
1.13094e-06
-5.38732e-09
1.12875e-06
-3.5319e-09
1.12864e-06
-1.45295e-09
1.13084e-06
4.78773e-10
1.13521e-06
2.5682e-09
1.14162e-06
4.58265e-09
1.14987e-06
6.4068e-09
1.15966e-06
7.96315e-09
1.17063e-06
9.19526e-09
1.18239e-06
1.006e-08
1.19453e-06
1.05377e-08
1.20662e-06
1.06291e-08
1.21829e-06
1.03515e-08
1.22918e-06
9.73838e-09
1.23901e-06
8.83412e-09
1.24755e-06
7.70407e-09
1.25462e-06
6.39057e-09
1.26012e-06
4.95613e-09
1.26403e-06
3.44731e-09
1.26634e-06
1.93934e-09
1.26713e-06
4.26701e-10
1.26642e-06
-8.60297e-10
1.26442e-06
-2.15713e-09
1.2613e-06
-3.31447e-09
1.2572e-06
-4.31513e-09
1.25231e-06
-5.14613e-09
1.24683e-06
-5.79334e-09
1.24096e-06
-6.24628e-09
1.23492e-06
-6.49338e-09
1.22893e-06
-6.52267e-09
1.2232e-06
-6.32624e-09
1.21798e-06
-5.90938e-09
1.21348e-06
-5.27492e-09
1.20992e-06
-4.43117e-09
1.20745e-06
-3.39854e-09
1.2062e-06
-2.2006e-09
1.20627e-06
-8.35793e-10
1.20784e-06
3.86487e-10
1.2108e-06
1.75334e-09
1.21509e-06
3.08148e-09
1.22058e-06
4.30318e-09
1.2271e-06
5.36788e-09
1.23443e-06
6.23486e-09
1.24233e-06
6.8734e-09
1.25053e-06
7.26413e-09
7.39939e-09
2.19829e-07
2.1101e-07
2.00513e-07
1.8868e-07
1.7605e-07
1.63311e-07
1.51269e-07
1.40778e-07
1.32624e-07
1.27585e-07
1.26255e-07
1.28426e-07
1.34696e-07
1.44981e-07
1.58965e-07
1.76142e-07
1.95858e-07
2.17361e-07
2.39851e-07
2.6254e-07
2.84676e-07
3.05605e-07
3.24788e-07
3.41818e-07
3.56428e-07
3.68466e-07
3.7787e-07
3.84656e-07
3.88902e-07
3.90679e-07
3.90311e-07
3.87807e-07
3.83265e-07
3.76813e-07
3.68604e-07
3.58835e-07
3.47748e-07
3.3566e-07
3.22951e-07
3.10074e-07
2.97538e-07
2.85896e-07
2.75712e-07