/*--------------------------------*- C++ -*----------------------------------*\
| =========                 |                                                 |
| \\      /  F ield         | OpenFOAM: The Open Source CFD Toolbox           |
|  \\    /   O peration     | Version:  2206                                  |
|   \\  /    A nd           | Website:  www.openfoam.com                      |
|    \\/     M anipulation  |                                                 |
\*---------------------------------------------------------------------------*/
FoamFile
{
    version     2.0;
    format      ascii;
    arch        "LSB;label=32;scalar=64";
    class       surfaceScalarField;
    location    "19.8999";
    object      phi;
}
// * * * * * * * * * * * * * * * * * * * * * * * * * * * * * * * * * * * * * //

dimensions      [0 3 -1 0 0 0 0];

oriented        oriented;

internalField   nonuniform List<scalar> 
9442
(
1.03434e-05
-8.29349e-10
7.01804e-10
1.03437e-05
-2.46739e-09
2.08632e-09
1.03444e-05
-4.08154e-09
3.44774e-09
1.03453e-05
-5.66313e-09
4.77886e-09
1.03464e-05
-7.20487e-09
6.07348e-09
1.03478e-05
-8.7006e-09
7.32633e-09
1.03494e-05
-1.01449e-08
8.53292e-09
1.03512e-05
-1.15332e-08
9.68928e-09
1.03533e-05
-1.28611e-08
1.07921e-08
1.03556e-05
-1.41254e-08
1.18385e-08
1.03581e-05
-1.53232e-08
1.28264e-08
1.03608e-05
-1.64523e-08
1.3754e-08
1.03637e-05
-1.75111e-08
1.46204e-08
1.03667e-05
-1.84989e-08
1.54249e-08
1.037e-05
-1.94152e-08
1.61676e-08
1.03734e-05
-2.02602e-08
1.6849e-08
1.0377e-05
-2.10345e-08
1.74699e-08
1.03807e-05
-2.17391e-08
1.80315e-08
1.03845e-05
-2.23754e-08
1.85352e-08
1.03885e-05
-2.29449e-08
1.89828e-08
1.03925e-05
-2.34493e-08
1.93761e-08
1.03967e-05
-2.38904e-08
1.97169e-08
1.0401e-05
-2.42702e-08
2.00073e-08
1.04053e-05
-2.45905e-08
2.02492e-08
1.04097e-05
-2.48531e-08
2.04445e-08
1.04142e-05
-2.50597e-08
2.05948e-08
1.04187e-05
-2.52117e-08
2.07018e-08
1.04232e-05
-2.53106e-08
2.07666e-08
1.04278e-05
-2.53571e-08
2.07904e-08
1.04324e-05
-2.5352e-08
2.07739e-08
1.0437e-05
-2.52957e-08
2.07174e-08
1.04415e-05
-2.51878e-08
2.06209e-08
1.04461e-05
-2.50283e-08
2.04842e-08
1.04506e-05
-2.48162e-08
2.03066e-08
1.04551e-05
-2.45505e-08
2.00871e-08
1.04595e-05
-2.42297e-08
1.98243e-08
1.04638e-05
-2.38521e-08
1.95165e-08
1.04681e-05
-2.34151e-08
1.91615e-08
1.04722e-05
-2.29165e-08
1.8757e-08
1.04763e-05
-2.2353e-08
1.83001e-08
1.04802e-05
-2.17219e-08
1.7788e-08
1.0484e-05
-2.10189e-08
1.72166e-08
1.04877e-05
-2.02408e-08
1.65834e-08
1.04912e-05
-1.93829e-08
1.58831e-08
1.04945e-05
-1.84409e-08
1.5113e-08
1.04976e-05
-1.74102e-08
1.4267e-08
1.05006e-05
-1.62852e-08
1.33418e-08
1.05033e-05
-1.50616e-08
1.23317e-08
1.05058e-05
-1.37329e-08
1.12314e-08
1.05081e-05
-1.22942e-08
1.00369e-08
1.05101e-05
-1.07394e-08
8.74099e-09
1.05118e-05
-9.0636e-09
7.34118e-09
1.05132e-05
-7.25904e-09
5.82914e-09
1.05143e-05
-5.32405e-09
4.20556e-09
1.05151e-05
-3.24259e-09
2.4594e-09
1.05155e-05
-1.00851e-09
5.78388e-10
1.05156e-05
1.38677e-09
-1.44173e-09
1.05153e-05
3.953e-09
-3.60965e-09
1.05145e-05
6.70029e-09
-5.93416e-09
1.05133e-05
9.6397e-09
-8.42449e-09
1.05116e-05
1.27836e-08
-1.1091e-08
1.05094e-05
1.61455e-08
-1.3945e-08
1.05066e-05
1.97406e-08
-1.69994e-08
1.05033e-05
2.35854e-08
-2.02682e-08
1.04994e-05
2.76985e-08
-2.37669e-08
1.04948e-05
3.21005e-08
-2.75129e-08
1.04895e-05
3.68145e-08
-3.15258e-08
1.04835e-05
4.18663e-08
-3.58275e-08
1.04766e-05
4.7285e-08
-4.04426e-08
1.04689e-05
5.31029e-08
-4.53987e-08
1.04603e-05
5.93568e-08
-5.0727e-08
1.04507e-05
6.60876e-08
-5.64628e-08
1.044e-05
7.3342e-08
-6.26459e-08
1.04281e-05
8.11721e-08
-6.93214e-08
1.0415e-05
8.96373e-08
-7.65403e-08
1.04006e-05
9.88043e-08
-8.43605e-08
1.03847e-05
1.08749e-07
-9.28479e-08
1.03672e-05
1.19558e-07
-1.02077e-07
1.0348e-05
1.31328e-07
-1.12134e-07
1.0327e-05
1.44171e-07
-1.23116e-07
1.03039e-05
1.58213e-07
-1.35135e-07
1.02786e-05
1.73601e-07
-1.48318e-07
1.02509e-05
1.90501e-07
-1.62813e-07
1.02206e-05
2.09103e-07
-1.78791e-07
1.01874e-05
2.29629e-07
-1.96446e-07
1.01511e-05
2.52334e-07
-2.16008e-07
1.01113e-05
2.77513e-07
-2.37743e-07
1.00678e-05
3.05511e-07
-2.61961e-07
1.00201e-05
3.3673e-07
-2.89029e-07
9.9678e-06
3.71643e-07
-3.19378e-07
9.91051e-06
4.10807e-07
-3.53518e-07
9.84769e-06
4.5488e-07
-3.92058e-07
9.77877e-06
5.04645e-07
-4.35728e-07
9.70314e-06
5.61037e-07
-4.85405e-07
9.62011e-06
6.25179e-07
-5.42151e-07
9.52895e-06
6.98427e-07
-6.07261e-07
9.42884e-06
7.82427e-07
-6.82322e-07
9.31895e-06
8.79188e-07
-7.69292e-07
9.19837e-06
9.91183e-07
-8.70606e-07
9.06621e-06
1.12147e-06
-9.89317e-07
8.92161e-06
1.27388e-06
-1.12929e-06
8.76383e-06
1.45325e-06
-1.29546e-06
8.59232e-06
1.66575e-06
-1.49424e-06
8.40697e-06
1.91944e-06
-1.7341e-06
8.20832e-06
2.22494e-06
-2.0263e-06
7.99827e-06
2.5971e-06
-2.38705e-06
7.78036e-06
3.05579e-06
-2.83788e-06
7.5668e-06
3.63281e-06
-3.41925e-06
7.38116e-06
4.36011e-06
-4.17447e-06
7.38225e-06
5.29883e-06
-5.29992e-06
7.88024e-06
6.32355e-06
-6.82154e-06
7.98464e-06
1.04692e-05
-1.05736e-05
1.03434e-05
-9.60017e-10
1.03438e-05
-2.8584e-09
1.03444e-05
-4.73188e-09
1.03453e-05
-6.57036e-09
1.03465e-05
-8.36543e-09
1.03479e-05
-1.011e-08
1.03495e-05
-1.17977e-08
1.03514e-05
-1.3423e-08
1.03535e-05
-1.4981e-08
1.03559e-05
-1.64676e-08
1.03584e-05
-1.78793e-08
1.03612e-05
-1.92134e-08
1.03642e-05
-2.0468e-08
1.03673e-05
-2.16419e-08
1.03706e-05
-2.27342e-08
1.03741e-05
-2.3745e-08
1.03777e-05
-2.46747e-08
1.03815e-05
-2.55241e-08
1.03855e-05
-2.62944e-08
1.03895e-05
-2.6987e-08
1.03936e-05
-2.76036e-08
1.03979e-05
-2.8146e-08
1.04023e-05
-2.8616e-08
1.04067e-05
-2.90155e-08
1.04112e-05
-2.93461e-08
1.04157e-05
-2.96097e-08
1.04203e-05
-2.98076e-08
1.04249e-05
-2.99411e-08
1.04296e-05
-3.0011e-08
1.04343e-05
-3.00181e-08
1.04389e-05
-2.99625e-08
1.04436e-05
-2.98441e-08
1.04482e-05
-2.96625e-08
1.04528e-05
-2.94168e-08
1.04574e-05
-2.91059e-08
1.04619e-05
-2.87281e-08
1.04663e-05
-2.82816e-08
1.04707e-05
-2.7764e-08
1.04749e-05
-2.71726e-08
1.04791e-05
-2.65043e-08
1.04831e-05
-2.57557e-08
1.0487e-05
-2.49232e-08
1.04908e-05
-2.40024e-08
1.04944e-05
-2.29893e-08
1.04978e-05
-2.18788e-08
1.05011e-05
-2.06661e-08
1.05041e-05
-1.93461e-08
1.0507e-05
-1.79126e-08
1.05096e-05
-1.63608e-08
1.0512e-05
-1.46836e-08
1.05141e-05
-1.28761e-08
1.0516e-05
-1.09303e-08
1.05176e-05
-8.84214e-09
1.05189e-05
-6.6004e-09
1.05198e-05
-4.19524e-09
1.05204e-05
-1.61875e-09
1.05207e-05
1.1396e-09
1.05205e-05
4.09048e-09
1.052e-05
7.24544e-09
1.0519e-05
1.06172e-08
1.05176e-05
1.42199e-08
1.05156e-05
1.8069e-08
1.05132e-05
2.21816e-08
1.05102e-05
2.65768e-08
1.05066e-05
3.12757e-08
1.05024e-05
3.63019e-08
1.04976e-05
4.16816e-08
1.0492e-05
4.74442e-08
1.04857e-05
5.36224e-08
1.04785e-05
6.02532e-08
1.04705e-05
6.73778e-08
1.04615e-05
7.50426e-08
1.04516e-05
8.32996e-08
1.04405e-05
9.22075e-08
1.04283e-05
1.01832e-07
1.04149e-05
1.12249e-07
1.04001e-05
1.23541e-07
1.03839e-05
1.35804e-07
1.0366e-05
1.49146e-07
1.03465e-05
1.63689e-07
1.03252e-05
1.79572e-07
1.03018e-05
1.96954e-07
1.02763e-05
2.16017e-07
1.02484e-05
2.36966e-07
1.0218e-05
2.60041e-07
1.01848e-05
2.85515e-07
1.01486e-05
3.13703e-07
1.01092e-05
3.44972e-07
1.00662e-05
3.79746e-07
1.00193e-05
4.18519e-07
9.96823e-06
4.61872e-07
9.91262e-06
5.10483e-07
9.85212e-06
5.65153e-07
9.78632e-06
6.2683e-07
9.71486e-06
6.96639e-07
9.63737e-06
7.75923e-07
9.55351e-06
8.66288e-07
9.46302e-06
9.6967e-07
9.3658e-06
1.08841e-06
9.26194e-06
1.22534e-06
9.1519e-06
1.38392e-06
9.03673e-06
1.56842e-06
8.9184e-06
1.78408e-06
8.80049e-06
2.03735e-06
8.68914e-06
2.33629e-06
8.59573e-06
2.69052e-06
8.53979e-06
3.11173e-06
8.56186e-06
3.61074e-06
8.7264e-06
4.19558e-06
9.14488e-06
4.88035e-06
9.9577e-06
5.51073e-06
6.89416e-06
1.10482e-05
1.03434e-05
-1.09456e-09
1.03438e-05
-3.26144e-09
1.03444e-05
-5.40223e-09
1.03454e-05
-7.50536e-09
1.03466e-05
-9.56122e-09
1.0348e-05
-1.15617e-08
1.03497e-05
-1.34994e-08
1.03517e-05
-1.53681e-08
1.03539e-05
-1.71618e-08
1.03563e-05
-1.88759e-08
1.03589e-05
-2.05062e-08
1.03617e-05
-2.20495e-08
1.03648e-05
-2.35036e-08
1.0368e-05
-2.48667e-08
1.03714e-05
-2.6138e-08
1.0375e-05
-2.7317e-08
1.03787e-05
-2.84041e-08
1.03826e-05
-2.94e-08
1.03866e-05
-3.03058e-08
1.03907e-05
-3.11229e-08
1.0395e-05
-3.18529e-08
1.03993e-05
-3.24976e-08
1.04038e-05
-3.30587e-08
1.04083e-05
-3.35381e-08
1.04129e-05
-3.39377e-08
1.04175e-05
-3.42589e-08
1.04222e-05
-3.45033e-08
1.04269e-05
-3.46721e-08
1.04317e-05
-3.47662e-08
1.04365e-05
-3.47861e-08
1.04412e-05
-3.47321e-08
1.0446e-05
-3.4604e-08
1.04507e-05
-3.44012e-08
1.04554e-05
-3.41228e-08
1.04601e-05
-3.37677e-08
1.04647e-05
-3.33342e-08
1.04693e-05
-3.28201e-08
1.04737e-05
-3.22233e-08
1.04781e-05
-3.15407e-08
1.04823e-05
-3.07693e-08
1.04865e-05
-2.99054e-08
1.04905e-05
-2.89453e-08
1.04944e-05
-2.78847e-08
1.04981e-05
-2.67191e-08
1.05017e-05
-2.54436e-08
1.05051e-05
-2.40529e-08
1.05083e-05
-2.25416e-08
1.05113e-05
-2.09041e-08
1.0514e-05
-1.91338e-08
1.05166e-05
-1.7225e-08
1.05189e-05
-1.51704e-08
1.05209e-05
-1.29638e-08
1.05227e-05
-1.05976e-08
1.05241e-05
-8.05977e-09
1.05253e-05
-5.34241e-09
1.05261e-05
-2.43547e-09
1.05266e-05
6.72366e-10
1.05267e-05
3.9927e-09
1.05264e-05
7.5384e-09
1.05257e-05
1.13237e-08
1.05245e-05
1.53641e-08
1.05229e-05
1.96769e-08
1.05208e-05
2.42811e-08
1.05182e-05
2.91977e-08
1.0515e-05
3.44504e-08
1.05112e-05
4.00649e-08
1.05069e-05
4.60706e-08
1.05018e-05
5.24997e-08
1.0496e-05
5.93884e-08
1.04895e-05
6.67772e-08
1.04822e-05
7.47113e-08
1.0474e-05
8.32416e-08
1.04648e-05
9.24248e-08
1.04547e-05
1.02325e-07
1.04436e-05
1.13013e-07
1.04312e-05
1.24571e-07
1.04177e-05
1.37089e-07
1.04028e-05
1.50669e-07
1.03865e-05
1.65427e-07
1.03687e-05
1.81494e-07
1.03493e-05
1.99018e-07
1.03281e-05
2.18166e-07
1.0305e-05
2.3913e-07
1.02798e-05
2.62127e-07
1.02524e-05
2.87406e-07
1.02227e-05
3.15251e-07
1.01904e-05
3.45987e-07
1.01554e-05
3.7999e-07
1.01174e-05
4.17693e-07
1.00764e-05
4.59595e-07
1.0032e-05
5.06275e-07
9.98404e-06
5.58409e-07
9.93241e-06
6.16783e-07
9.87693e-06
6.82314e-07
9.81748e-06
7.56082e-07
9.75406e-06
8.3935e-07
9.68673e-06
9.33611e-07
9.61578e-06
1.04062e-06
9.54173e-06
1.16246e-06
9.46549e-06
1.30157e-06
9.38856e-06
1.46086e-06
9.31329e-06
1.6437e-06
9.24331e-06
1.85405e-06
9.18428e-06
2.09639e-06
9.14486e-06
2.37571e-06
9.13854e-06
2.69684e-06
9.18577e-06
3.06451e-06
9.31603e-06
3.48048e-06
9.57071e-06
3.94089e-06
9.98334e-06
4.46772e-06
1.05763e-05
4.91772e-06
5.70845e-06
1.17621e-05
1.03434e-05
-1.23377e-09
1.03438e-05
-3.67882e-09
1.03445e-05
-6.09639e-09
1.03455e-05
-8.47336e-09
1.03467e-05
-1.07988e-08
1.03482e-05
-1.30635e-08
1.035e-05
-1.52591e-08
1.0352e-05
-1.73783e-08
1.03542e-05
-1.94144e-08
1.03567e-05
-2.13619e-08
1.03594e-05
-2.32161e-08
1.03623e-05
-2.49734e-08
1.03655e-05
-2.66311e-08
1.03688e-05
-2.8187e-08
1.03723e-05
-2.96402e-08
1.0376e-05
-3.09901e-08
1.03798e-05
-3.22368e-08
1.03838e-05
-3.33811e-08
1.03879e-05
-3.4424e-08
1.03921e-05
-3.53669e-08
1.03965e-05
-3.62114e-08
1.0401e-05
-3.69592e-08
1.04055e-05
-3.76123e-08
1.04101e-05
-3.81725e-08
1.04148e-05
-3.86416e-08
1.04196e-05
-3.90213e-08
1.04244e-05
-3.93129e-08
1.04293e-05
-3.95177e-08
1.04341e-05
-3.96366e-08
1.0439e-05
-3.96701e-08
1.04439e-05
-3.96186e-08
1.04488e-05
-3.94816e-08
1.04536e-05
-3.92585e-08
1.04585e-05
-3.89486e-08
1.04632e-05
-3.85504e-08
1.0468e-05
-3.80624e-08
1.04726e-05
-3.74823e-08
1.04772e-05
-3.68077e-08
1.04817e-05
-3.60358e-08
1.04861e-05
-3.51631e-08
1.04904e-05
-3.41863e-08
1.04945e-05
-3.31012e-08
1.04986e-05
-3.19036e-08
1.05024e-05
-3.05888e-08
1.05061e-05
-2.91518e-08
1.05097e-05
-2.75874e-08
1.0513e-05
-2.58897e-08
1.05162e-05
-2.40529e-08
1.05191e-05
-2.20707e-08
1.05218e-05
-1.99364e-08
1.05243e-05
-1.76426e-08
1.05265e-05
-1.5183e-08
1.05285e-05
-1.25467e-08
1.05301e-05
-9.72462e-09
1.05315e-05
-6.70702e-09
1.05325e-05
-3.483e-09
1.05333e-05
-4.07587e-11
1.05336e-05
3.6323e-09
1.05336e-05
7.55014e-09
1.05332e-05
1.17282e-08
1.05324e-05
1.61832e-08
1.05311e-05
2.09341e-08
1.05294e-05
2.60012e-08
1.05272e-05
3.14077e-08
1.05245e-05
3.71787e-08
1.05212e-05
4.33425e-08
1.05173e-05
4.99306e-08
1.05128e-05
5.69778e-08
1.05077e-05
6.45231e-08
1.05019e-05
7.26101e-08
1.04953e-05
8.12872e-08
1.04879e-05
9.06087e-08
1.04797e-05
1.00635e-07
1.04706e-05
1.11435e-07
1.04605e-05
1.23083e-07
1.04495e-05
1.35666e-07
1.04373e-05
1.49279e-07
1.04239e-05
1.6403e-07
1.04093e-05
1.80039e-07
1.03933e-05
1.97442e-07
1.0376e-05
2.16394e-07
1.03571e-05
2.37068e-07
1.03365e-05
2.59659e-07
1.03143e-05
2.84391e-07
1.02902e-05
3.11516e-07
1.02641e-05
3.41321e-07
1.02359e-05
3.74133e-07
1.02056e-05
4.10325e-07
1.0173e-05
4.50325e-07
1.0138e-05
4.94623e-07
1.01004e-05
5.43779e-07
1.00604e-05
5.98442e-07
1.00178e-05
6.59354e-07
9.97278e-06
7.27374e-07
9.92537e-06
8.03493e-07
9.87587e-06
8.88853e-07
9.82471e-06
9.84773e-07
9.77256e-06
1.09277e-06
9.72043e-06
1.21458e-06
9.66981e-06
1.3522e-06
9.62281e-06
1.50785e-06
9.58249e-06
1.68402e-06
9.55316e-06
1.88338e-06
9.54088e-06
2.10867e-06
9.55413e-06
2.36246e-06
9.6043e-06
2.64667e-06
9.70684e-06
2.96196e-06
9.87983e-06
3.30749e-06
1.0148e-05
3.6727e-06
1.05453e-05
4.07045e-06
1.10642e-05
4.39879e-06
4.77153e-06
1.20011e-05
1.03434e-05
-1.37852e-09
1.03438e-05
-4.11306e-09
1.03445e-05
-6.81854e-09
1.03455e-05
-9.48011e-09
1.03468e-05
-1.20854e-08
1.03484e-05
-1.4624e-08
1.03502e-05
-1.70865e-08
1.03523e-05
-1.94645e-08
1.03546e-05
-2.17504e-08
1.03572e-05
-2.39381e-08
1.036e-05
-2.60222e-08
1.0363e-05
-2.79986e-08
1.03663e-05
-2.98643e-08
1.03697e-05
-3.16169e-08
1.03733e-05
-3.32552e-08
1.03771e-05
-3.47787e-08
1.03811e-05
-3.61873e-08
1.03852e-05
-3.74818e-08
1.03894e-05
-3.86633e-08
1.03938e-05
-3.97332e-08
1.03983e-05
-4.06933e-08
1.04028e-05
-4.15452e-08
1.04075e-05
-4.22911e-08
1.04123e-05
-4.29327e-08
1.04171e-05
-4.34721e-08
1.0422e-05
-4.39107e-08
1.04269e-05
-4.42502e-08
1.04319e-05
-4.44917e-08
1.04369e-05
-4.46361e-08
1.04419e-05
-4.46841e-08
1.04469e-05
-4.46358e-08
1.04519e-05
-4.44909e-08
1.04569e-05
-4.42487e-08
1.04619e-05
-4.39083e-08
1.04668e-05
-4.34684e-08
1.04717e-05
-4.29272e-08
1.04765e-05
-4.22826e-08
1.04812e-05
-4.1532e-08
1.04858e-05
-4.06726e-08
1.04904e-05
-3.97009e-08
1.04948e-05
-3.86135e-08
1.04991e-05
-3.74061e-08
1.05033e-05
-3.60746e-08
1.05073e-05
-3.46141e-08
1.05112e-05
-3.30196e-08
1.05149e-05
-3.12857e-08
1.05184e-05
-2.94067e-08
1.05217e-05
-2.73763e-08
1.05248e-05
-2.51883e-08
1.05277e-05
-2.28354e-08
1.05304e-05
-2.0311e-08
1.05328e-05
-1.76057e-08
1.0535e-05
-1.47104e-08
1.05369e-05
-1.16155e-08
1.05385e-05
-8.31042e-09
1.05398e-05
-4.7838e-09
1.05408e-05
-1.02337e-09
1.05414e-05
2.98446e-09
1.05417e-05
7.2544e-09
1.05416e-05
1.18028e-08
1.05412e-05
1.66477e-08
1.05403e-05
2.18089e-08
1.0539e-05
2.73083e-08
1.05372e-05
3.31703e-08
1.0535e-05
3.94219e-08
1.05322e-05
4.6093e-08
1.05289e-05
5.32168e-08
1.05251e-05
6.08304e-08
1.05206e-05
6.89749e-08
1.05156e-05
7.76962e-08
1.05098e-05
8.70453e-08
1.05033e-05
9.70792e-08
1.04961e-05
1.07861e-07
1.04881e-05
1.19462e-07
1.04792e-05
1.31962e-07
1.04694e-05
1.45447e-07
1.04587e-05
1.60019e-07
1.04469e-05
1.75786e-07
1.04341e-05
1.92873e-07
1.04201e-05
2.11419e-07
1.04049e-05
2.3158e-07
1.03885e-05
2.53532e-07
1.03706e-05
2.77471e-07
1.03514e-05
3.0362e-07
1.03307e-05
3.32229e-07
1.03084e-05
3.63583e-07
1.02846e-05
3.98e-07
1.02591e-05
4.35844e-07
1.02319e-05
4.77525e-07
1.0203e-05
5.23509e-07
1.01724e-05
5.74327e-07
1.01403e-05
6.30578e-07
1.01067e-05
6.92945e-07
1.00719e-05
7.62202e-07
1.00361e-05
8.39227e-07
9.99997e-06
9.25012e-07
9.96407e-06
1.02067e-06
9.92939e-06
1.12746e-06
9.89723e-06
1.24674e-06
9.86939e-06
1.38004e-06
9.84828e-06
1.52896e-06
9.83715e-06
1.69515e-06
9.84032e-06
1.88021e-06
9.86344e-06
2.08554e-06
9.91386e-06
2.31205e-06
1.00007e-05
2.55978e-06
1.01357e-05
2.82705e-06
1.03322e-05
3.11095e-06
1.06049e-05
3.39995e-06
1.09839e-05
3.69153e-06
1.14413e-05
3.94133e-06
4.15266e-06
1.20602e-05
1.03434e-05
-1.52977e-09
1.03438e-05
-4.567e-09
1.03446e-05
-7.57333e-09
1.03456e-05
-1.0532e-08
1.0347e-05
-1.34291e-08
1.03486e-05
-1.62527e-08
1.03505e-05
-1.89923e-08
1.03527e-05
-2.16384e-08
1.03551e-05
-2.41827e-08
1.03578e-05
-2.66179e-08
1.03607e-05
-2.89384e-08
1.03639e-05
-3.11396e-08
1.03672e-05
-3.32181e-08
1.03708e-05
-3.51714e-08
1.03745e-05
-3.69982e-08
1.03784e-05
-3.86979e-08
1.03825e-05
-4.02706e-08
1.03868e-05
-4.17171e-08
1.03911e-05
-4.30386e-08
1.03956e-05
-4.42367e-08
1.04003e-05
-4.53132e-08
1.0405e-05
-4.627e-08
1.04098e-05
-4.71092e-08
1.04147e-05
-4.78329e-08
1.04197e-05
-4.8443e-08
1.04247e-05
-4.89412e-08
1.04298e-05
-4.93291e-08
1.04349e-05
-4.9608e-08
1.044e-05
-4.97787e-08
1.04452e-05
-4.98418e-08
1.04504e-05
-4.97976e-08
1.04555e-05
-4.96458e-08
1.04606e-05
-4.93855e-08
1.04658e-05
-4.90159e-08
1.04708e-05
-4.85355e-08
1.04758e-05
-4.79427e-08
1.04808e-05
-4.72352e-08
1.04857e-05
-4.64105e-08
1.04905e-05
-4.54656e-08
1.04952e-05
-4.43972e-08
1.04997e-05
-4.32017e-08
1.05042e-05
-4.1875e-08
1.05086e-05
-4.04126e-08
1.05128e-05
-3.88101e-08
1.05168e-05
-3.70622e-08
1.05207e-05
-3.51635e-08
1.05244e-05
-3.31082e-08
1.05279e-05
-3.08902e-08
1.05312e-05
-2.85029e-08
1.05343e-05
-2.59393e-08
1.05372e-05
-2.31915e-08
1.05398e-05
-2.02503e-08
1.05422e-05
-1.71069e-08
1.05444e-05
-1.37512e-08
1.05462e-05
-1.01722e-08
1.05478e-05
-6.35828e-09
1.05491e-05
-2.29665e-09
1.055e-05
2.02687e-09
1.05507e-05
6.6277e-09
1.05509e-05
1.15229e-08
1.05509e-05
1.67312e-08
1.05504e-05
2.22735e-08
1.05495e-05
2.81728e-08
1.05482e-05
3.44543e-08
1.05465e-05
4.11465e-08
1.05443e-05
4.82804e-08
1.05417e-05
5.58909e-08
1.05385e-05
6.40164e-08
1.05347e-05
7.26998e-08
1.05305e-05
8.19885e-08
1.05256e-05
9.19355e-08
1.052e-05
1.02599e-07
1.05139e-05
1.14045e-07
1.0507e-05
1.26346e-07
1.04994e-05
1.39583e-07
1.0491e-05
1.53846e-07
1.04817e-05
1.69234e-07
1.04717e-05
1.85861e-07
1.04607e-05
2.03851e-07
1.04488e-05
2.23343e-07
1.04358e-05
2.44492e-07
1.04219e-05
2.67473e-07
1.04069e-05
2.9248e-07
1.03908e-05
3.19731e-07
1.03735e-05
3.4947e-07
1.03552e-05
3.81969e-07
1.03356e-05
4.17536e-07
1.0315e-05
4.56515e-07
1.02932e-05
4.99291e-07
1.02704e-05
5.46297e-07
1.02467e-05
5.98018e-07
1.02223e-05
6.54999e-07
1.01974e-05
7.17846e-07
1.01723e-05
7.87236e-07
1.01477e-05
8.63919e-07
1.01239e-05
9.48726e-07
1.01021e-05
1.04256e-06
1.00831e-05
1.1464e-06
1.00686e-05
1.26128e-06
1.00604e-05
1.38827e-06
1.00609e-05
1.52842e-06
1.00733e-05
1.68271e-06
1.01016e-05
1.85191e-06
1.01507e-05
2.03643e-06
1.02267e-05
2.23603e-06
1.03369e-05
2.44959e-06
1.04897e-05
2.67431e-06
1.06946e-05
2.90599e-06
1.09588e-05
3.13577e-06
1.12949e-05
3.35549e-06
1.16884e-05
3.54777e-06
3.69696e-06
1.21441e-05
1.03434e-05
-1.68857e-09
1.03439e-05
-5.04381e-09
1.03447e-05
-8.36602e-09
1.03458e-05
-1.16362e-08
1.03472e-05
-1.48386e-08
1.03489e-05
-1.796e-08
1.03509e-05
-2.09885e-08
1.03532e-05
-2.39133e-08
1.03557e-05
-2.67251e-08
1.03585e-05
-2.94162e-08
1.03615e-05
-3.19801e-08
1.03648e-05
-3.44121e-08
1.03683e-05
-3.67083e-08
1.0372e-05
-3.88664e-08
1.03759e-05
-4.0885e-08
1.03799e-05
-4.27636e-08
1.03842e-05
-4.45024e-08
1.03886e-05
-4.61025e-08
1.03931e-05
-4.75652e-08
1.03977e-05
-4.88923e-08
1.04025e-05
-5.00859e-08
1.04074e-05
-5.11481e-08
1.04124e-05
-5.20812e-08
1.04174e-05
-5.28873e-08
1.04225e-05
-5.35685e-08
1.04277e-05
-5.41267e-08
1.0433e-05
-5.45636e-08
1.04382e-05
-5.48803e-08
1.04435e-05
-5.50779e-08
1.04489e-05
-5.5157e-08
1.04542e-05
-5.51179e-08
1.04595e-05
-5.49601e-08
1.04648e-05
-5.46828e-08
1.04701e-05
-5.42852e-08
1.04753e-05
-5.37658e-08
1.04805e-05
-5.31229e-08
1.04856e-05
-5.23543e-08
1.04906e-05
-5.14573e-08
1.04956e-05
-5.04291e-08
1.05005e-05
-4.92663e-08
1.05052e-05
-4.79653e-08
1.05099e-05
-4.65221e-08
1.05144e-05
-4.49324e-08
1.05188e-05
-4.31914e-08
1.0523e-05
-4.12943e-08
1.05271e-05
-3.92355e-08
1.0531e-05
-3.70094e-08
1.05347e-05
-3.46097e-08
1.05382e-05
-3.20298e-08
1.05416e-05
-2.92628e-08
1.05447e-05
-2.63001e-08
1.05475e-05
-2.31331e-08
1.05502e-05
-1.97528e-08
1.05526e-05
-1.61487e-08
1.05547e-05
-1.231e-08
1.05566e-05
-8.22461e-09
1.05582e-05
-3.87945e-09
1.05595e-05
7.39952e-10
1.05604e-05
5.64959e-09
1.05611e-05
1.08669e-08
1.05614e-05
1.64113e-08
1.05614e-05
2.23043e-08
1.0561e-05
2.85695e-08
1.05602e-05
3.52331e-08
1.0559e-05
4.23243e-08
1.05574e-05
4.98751e-08
1.05554e-05
5.79213e-08
1.05529e-05
6.65025e-08
1.055e-05
7.56623e-08
1.05465e-05
8.54495e-08
1.05425e-05
9.59179e-08
1.0538e-05
1.07127e-07
1.05329e-05
1.19144e-07
1.05272e-05
1.32041e-07
1.05209e-05
1.459e-07
1.05139e-05
1.60811e-07
1.05063e-05
1.76876e-07
1.04979e-05
1.94204e-07
1.04889e-05
2.1292e-07
1.0479e-05
2.33162e-07
1.04685e-05
2.5508e-07
1.04571e-05
2.78846e-07
1.04449e-05
3.04648e-07
1.04319e-05
3.32695e-07
1.04182e-05
3.63219e-07
1.04037e-05
3.9648e-07
1.03885e-05
4.32766e-07
1.03726e-05
4.72395e-07
1.03561e-05
5.15722e-07
1.03393e-05
5.63141e-07
1.03222e-05
6.15085e-07
1.03052e-05
6.72034e-07
1.02885e-05
7.34512e-07
1.02727e-05
8.03093e-07
1.02582e-05
8.78398e-07
1.02458e-05
9.61095e-07
1.02365e-05
1.05188e-06
1.02314e-05
1.15149e-06
1.0232e-05
1.26065e-06
1.02403e-05
1.38005e-06
1.02584e-05
1.51029e-06
1.02893e-05
1.65182e-06
1.03364e-05
1.80481e-06
1.04038e-05
1.96898e-06
1.04964e-05
2.14345e-06
1.06195e-05
2.32647e-06
1.07788e-05
2.51499e-06
1.09802e-05
2.70467e-06
1.1227e-05
2.88895e-06
1.15227e-05
3.05981e-06
1.18635e-05
3.2069e-06
3.31823e-06
1.22423e-05
1.03434e-05
-1.85608e-09
1.03439e-05
-5.5472e-09
1.03447e-05
-9.20264e-09
1.03459e-05
-1.28009e-08
1.03474e-05
-1.63244e-08
1.03492e-05
-1.9758e-08
1.03513e-05
-2.30884e-08
1.03537e-05
-2.63035e-08
1.03563e-05
-2.93933e-08
1.03593e-05
-3.2349e-08
1.03625e-05
-3.5164e-08
1.03659e-05
-3.78329e-08
1.03695e-05
-4.0352e-08
1.03734e-05
-4.27189e-08
1.03774e-05
-4.49325e-08
1.03817e-05
-4.69923e-08
1.03861e-05
-4.8899e-08
1.03906e-05
-5.06539e-08
1.03953e-05
-5.22587e-08
1.04001e-05
-5.37154e-08
1.04051e-05
-5.50265e-08
1.04101e-05
-5.61943e-08
1.04153e-05
-5.72214e-08
1.04205e-05
-5.81101e-08
1.04258e-05
-5.88627e-08
1.04311e-05
-5.94812e-08
1.04365e-05
-5.99673e-08
1.0442e-05
-6.03224e-08
1.04474e-05
-6.05476e-08
1.04529e-05
-6.06434e-08
1.04584e-05
-6.061e-08
1.04639e-05
-6.04473e-08
1.04694e-05
-6.01542e-08
1.04748e-05
-5.97299e-08
1.04802e-05
-5.9173e-08
1.04856e-05
-5.84816e-08
1.04909e-05
-5.76535e-08
1.04961e-05
-5.66863e-08
1.05013e-05
-5.55769e-08
1.05063e-05
-5.43221e-08
1.05113e-05
-5.29183e-08
1.05161e-05
-5.13616e-08
1.05208e-05
-4.96477e-08
1.05254e-05
-4.77722e-08
1.05298e-05
-4.573e-08
1.05341e-05
-4.35158e-08
1.05382e-05
-4.11241e-08
1.05422e-05
-3.85487e-08
1.05459e-05
-3.57833e-08
1.05495e-05
-3.28202e-08
1.05528e-05
-2.96516e-08
1.0556e-05
-2.62689e-08
1.05589e-05
-2.26628e-08
1.05616e-05
-1.88233e-08
1.0564e-05
-1.47392e-08
1.05662e-05
-1.03985e-08
1.05681e-05
-5.788e-09
1.05697e-05
-8.9309e-10
1.0571e-05
4.30273e-09
1.05721e-05
9.81688e-09
1.05728e-05
1.56692e-08
1.05733e-05
2.18816e-08
1.05734e-05
2.8478e-08
1.05731e-05
3.54852e-08
1.05725e-05
4.29328e-08
1.05715e-05
5.08534e-08
1.05702e-05
5.92833e-08
1.05684e-05
6.82625e-08
1.05662e-05
7.78354e-08
1.05636e-05
8.80509e-08
1.05606e-05
9.89633e-08
1.05571e-05
1.10632e-07
1.05531e-05
1.23125e-07
1.05486e-05
1.36513e-07
1.05436e-05
1.50879e-07
1.05381e-05
1.66312e-07
1.05321e-05
1.82911e-07
1.05255e-05
2.00785e-07
1.05184e-05
2.20054e-07
1.05107e-05
2.40853e-07
1.05024e-05
2.63328e-07
1.04937e-05
2.87642e-07
1.04843e-05
3.13975e-07
1.04745e-05
3.42526e-07
1.04642e-05
3.73512e-07
1.04535e-05
4.07174e-07
1.04425e-05
4.43778e-07
1.04313e-05
4.83614e-07
1.042e-05
5.27002e-07
1.04088e-05
5.74291e-07
1.03981e-05
6.25859e-07
1.0388e-05
6.82118e-07
1.0379e-05
7.43511e-07
1.03716e-05
8.10509e-07
1.03664e-05
8.83609e-07
1.03641e-05
9.63324e-07
1.03658e-05
1.05017e-06
1.03727e-05
1.14467e-06
1.03861e-05
1.24727e-06
1.04077e-05
1.35836e-06
1.04398e-05
1.47821e-06
1.04848e-05
1.60687e-06
1.05455e-05
1.7441e-06
1.06252e-05
1.88923e-06
1.07276e-05
2.04104e-06
1.08566e-05
2.19756e-06
1.10156e-05
2.3559e-06
1.12082e-05
2.51208e-06
1.14363e-05
2.66091e-06
1.17001e-05
2.79597e-06
1.19972e-05
2.9098e-06
2.99474e-06
1.23207e-05
1.03434e-05
-2.03357e-09
1.03439e-05
-6.08152e-09
1.03448e-05
-1.00901e-08
1.03461e-05
-1.40356e-08
1.03476e-05
-1.7898e-08
1.03495e-05
-2.16602e-08
1.03518e-05
-2.53071e-08
1.03543e-05
-2.88257e-08
1.03571e-05
-3.22045e-08
1.03602e-05
-3.54344e-08
1.03635e-05
-3.85082e-08
1.03671e-05
-4.14204e-08
1.03709e-05
-4.41675e-08
1.0375e-05
-4.67471e-08
1.03792e-05
-4.91584e-08
1.03836e-05
-5.14015e-08
1.03882e-05
-5.34775e-08
1.03929e-05
-5.5388e-08
1.03978e-05
-5.71352e-08
1.04028e-05
-5.87216e-08
1.04079e-05
-6.01501e-08
1.04131e-05
-6.14234e-08
1.04185e-05
-6.25443e-08
1.04239e-05
-6.35155e-08
1.04293e-05
-6.43394e-08
1.04349e-05
-6.50183e-08
1.04405e-05
-6.55539e-08
1.04461e-05
-6.59478e-08
1.04517e-05
-6.6201e-08
1.04574e-05
-6.63142e-08
1.04631e-05
-6.62875e-08
1.04688e-05
-6.61209e-08
1.04744e-05
-6.58132e-08
1.04801e-05
-6.53636e-08
1.04857e-05
-6.47705e-08
1.04912e-05
-6.40323e-08
1.04967e-05
-6.31466e-08
1.05021e-05
-6.2111e-08
1.05075e-05
-6.09226e-08
1.05127e-05
-5.95782e-08
1.05179e-05
-5.80743e-08
1.05229e-05
-5.6407e-08
1.05279e-05
-5.45723e-08
1.05326e-05
-5.25657e-08
1.05373e-05
-5.03826e-08
1.05418e-05
-4.80177e-08
1.05461e-05
-4.54657e-08
1.05503e-05
-4.27207e-08
1.05543e-05
-3.97761e-08
1.05581e-05
-3.66248e-08
1.05617e-05
-3.32591e-08
1.05651e-05
-2.96706e-08
1.05683e-05
-2.58502e-08
1.05713e-05
-2.1788e-08
1.0574e-05
-1.74731e-08
1.05765e-05
-1.28935e-08
1.05788e-05
-8.03597e-09
1.05807e-05
-2.88591e-09
1.05825e-05
2.57292e-09
1.05839e-05
8.3583e-09
1.05851e-05
1.449e-08
1.0586e-05
2.099e-08
1.05866e-05
2.78825e-08
1.05869e-05
3.51944e-08
1.05869e-05
4.29553e-08
1.05865e-05
5.1198e-08
1.05858e-05
5.9959e-08
1.05848e-05
6.92783e-08
1.05835e-05
7.92001e-08
1.05817e-05
8.97735e-08
1.05797e-05
1.01052e-07
1.05772e-05
1.13096e-07
1.05743e-05
1.2597e-07
1.05711e-05
1.39747e-07
1.05675e-05
1.54506e-07
1.05635e-05
1.70334e-07
1.0559e-05
1.87329e-07
1.05542e-05
2.05595e-07
1.0549e-05
2.25249e-07
1.05435e-05
2.4642e-07
1.05376e-05
2.69247e-07
1.05313e-05
2.93885e-07
1.05248e-05
3.20501e-07
1.0518e-05
3.49282e-07
1.05111e-05
3.80428e-07
1.05041e-05
4.14161e-07
1.04972e-05
4.50719e-07
1.04904e-05
4.90365e-07
1.04841e-05
5.33378e-07
1.04783e-05
5.80062e-07
1.04734e-05
6.30743e-07
1.04698e-05
6.85763e-07
1.04678e-05
7.45486e-07
1.0468e-05
8.10286e-07
1.04711e-05
8.80546e-07
1.04778e-05
9.56643e-07
1.0489e-05
1.03894e-06
1.05059e-05
1.12775e-06
1.05298e-05
1.22334e-06
1.05623e-05
1.32586e-06
1.06052e-05
1.43532e-06
1.06606e-05
1.5515e-06
1.07308e-05
1.67391e-06
1.08183e-05
1.80168e-06
1.09259e-05
1.93345e-06
1.10562e-05
2.0673e-06
1.12115e-05
2.20057e-06
1.13937e-05
2.32987e-06
1.16036e-05
2.45102e-06
1.18404e-05
2.55916e-06
1.21012e-05
2.649e-06
2.71534e-06
1.23806e-05
1.03434e-05
-2.22271e-09
1.0344e-05
-6.65178e-09
1.03449e-05
-1.10364e-08
1.03463e-05
-1.53512e-08
1.03479e-05
-1.9573e-08
1.035e-05
-2.36822e-08
1.03523e-05
-2.76622e-08
1.0355e-05
-3.14984e-08
1.0358e-05
-3.51784e-08
1.03612e-05
-3.86924e-08
1.03647e-05
-4.20331e-08
1.03685e-05
-4.5195e-08
1.03725e-05
-4.81747e-08
1.03767e-05
-5.09705e-08
1.03812e-05
-5.35819e-08
1.03858e-05
-5.60097e-08
1.03906e-05
-5.82555e-08
1.03955e-05
-6.03218e-08
1.04006e-05
-6.22112e-08
1.04058e-05
-6.3927e-08
1.04111e-05
-6.54723e-08
1.04165e-05
-6.68504e-08
1.0422e-05
-6.80646e-08
1.04276e-05
-6.91178e-08
1.04333e-05
-7.00127e-08
1.0439e-05
-7.07517e-08
1.04448e-05
-7.13369e-08
1.04507e-05
-7.17698e-08
1.04565e-05
-7.20515e-08
1.04624e-05
-7.21827e-08
1.04682e-05
-7.21636e-08
1.04741e-05
-7.19941e-08
1.048e-05
-7.16731e-08
1.04858e-05
-7.11994e-08
1.04916e-05
-7.05718e-08
1.04974e-05
-6.97883e-08
1.05031e-05
-6.88469e-08
1.05087e-05
-6.77449e-08
1.05143e-05
-6.64797e-08
1.05197e-05
-6.5048e-08
1.05251e-05
-6.34465e-08
1.05304e-05
-6.16715e-08
1.05355e-05
-5.97191e-08
1.05405e-05
-5.7585e-08
1.05454e-05
-5.52649e-08
1.05502e-05
-5.27538e-08
1.05547e-05
-5.00465e-08
1.05592e-05
-4.71375e-08
1.05634e-05
-4.40204e-08
1.05675e-05
-4.06884e-08
1.05713e-05
-3.71342e-08
1.0575e-05
-3.33497e-08
1.05785e-05
-2.93263e-08
1.05818e-05
-2.50541e-08
1.05848e-05
-2.05228e-08
1.05876e-05
-1.57205e-08
1.05902e-05
-1.06342e-08
1.05926e-05
-5.24953e-09
1.05947e-05
4.49391e-10
1.05966e-05
6.48034e-09
1.05982e-05
1.28629e-08
1.05996e-05
1.96187e-08
1.06007e-05
2.6772e-08
1.06016e-05
3.43494e-08
1.06021e-05
4.23805e-08
1.06024e-05
5.08978e-08
1.06024e-05
5.99373e-08
1.06022e-05
6.95388e-08
1.06016e-05
7.9746e-08
1.06008e-05
9.06073e-08
1.05997e-05
1.02176e-07
1.05983e-05
1.14509e-07
1.05966e-05
1.27673e-07
1.05946e-05
1.41736e-07
1.05923e-05
1.56776e-07
1.05898e-05
1.72878e-07
1.0587e-05
1.90134e-07
1.05839e-05
2.08646e-07
1.05806e-05
2.28525e-07
1.05772e-05
2.49891e-07
1.05735e-05
2.72877e-07
1.05698e-05
2.97626e-07
1.0566e-05
3.24295e-07
1.05622e-05
3.53054e-07
1.05586e-05
3.84086e-07
1.05551e-05
4.1759e-07
1.05521e-05
4.53779e-07
1.05496e-05
4.92882e-07
1.05478e-05
5.35144e-07
1.0547e-05
5.80822e-07
1.05476e-05
6.30187e-07
1.05498e-05
6.83521e-07
1.05542e-05
7.41111e-07
1.05612e-05
8.03245e-07
1.05716e-05
8.70203e-07
1.0586e-05
9.42246e-07
1.06053e-05
1.0196e-06
1.06306e-05
1.10245e-06
1.06631e-05
1.19087e-06
1.07041e-05
1.28485e-06
1.07552e-05
1.38423e-06
1.08181e-05
1.48861e-06
1.08946e-05
1.59739e-06
1.09867e-05
1.70958e-06
1.10963e-05
1.82385e-06
1.12252e-05
1.9384e-06
1.13749e-05
2.05091e-06
1.15462e-05
2.15856e-06
1.17392e-05
2.25803e-06
1.19527e-05
2.34566e-06
1.2184e-05
2.41763e-06
2.4703e-06
1.24291e-05
1.03434e-05
-2.42556e-09
1.0344e-05
-7.2637e-09
1.03451e-05
-1.20509e-08
1.03465e-05
-1.67609e-08
1.03483e-05
-2.13659e-08
1.03504e-05
-2.58426e-08
1.03529e-05
-3.01737e-08
1.03558e-05
-3.4343e-08
1.03589e-05
-3.8337e-08
1.03624e-05
-4.21456e-08
1.03661e-05
-4.57613e-08
1.03701e-05
-4.91789e-08
1.03743e-05
-5.23955e-08
1.03788e-05
-5.541e-08
1.03834e-05
-5.8223e-08
1.03882e-05
-6.08361e-08
1.03932e-05
-6.32517e-08
1.03984e-05
-6.54731e-08
1.04037e-05
-6.75038e-08