/*--------------------------------*- C++ -*----------------------------------*\
| =========                 |                                                 |
| \\      /  F ield         | OpenFOAM: The Open Source CFD Toolbox           |
|  \\    /   O peration     | Version:  2206                                  |
|   \\  /    A nd           | Website:  www.openfoam.com                      |
|    \\/     M anipulation  |                                                 |
\*---------------------------------------------------------------------------*/
FoamFile
{
    version     2.0;
    format      ascii;
    arch        "LSB;label=32;scalar=64";
    class       volVectorField;
    location    "18.9";
    object      ddt0(U);
}
// * * * * * * * * * * * * * * * * * * * * * * * * * * * * * * * * * * * * * //

dimensions      [0 1 -2 0 0 0 0];

internalField   nonuniform List<vector> 
3080
(
(-13.4836 -36.0325 0)
(-15.1004 -30.1279 0)
(-16.267 -23.9245 0)
(-17.0779 -17.5505 0)
(-17.875 -10.9201 0)
(-18.7485 -3.73174 0)
(-19.133 3.82611 0)
(-19.4057 11.4302 0)
(-19.3626 18.9068 0)
(-19.0524 26.0612 0)
(-18.5694 32.7806 0)
(-17.9461 38.98 0)
(-17.1944 44.5631 0)
(-16.3008 49.3885 0)
(-15.1838 53.1846 0)
(-13.5964 55.3964 0)
(-11.3652 55.3813 0)
(-8.77696 53.7476 0)
(-5.85482 50.551 0)
(-2.52281 46.2447 0)
(0.691545 41.3298 0)
(4.13487 35.6928 0)
(7.16949 29.4156 0)
(10.2133 22.9547 0)
(13.3712 16.4087 0)
(16.6707 9.68734 0)
(19.2722 3.23474 0)
(21.369 -2.40915 0)
(22.6993 -7.4154 0)
(23.2251 -11.86 0)
(22.9995 -15.8597 0)
(22.112 -19.5661 0)
(20.698 -23.1038 0)
(18.8885 -26.5285 0)
(16.7833 -29.8293 0)
(14.4524 -32.947 0)
(11.9425 -35.782 0)
(9.28711 -38.1974 0)
(6.52074 -40.0085 0)
(3.69944 -40.9084 0)
(0.923505 -40.7262 0)
(-1.72594 -39.6795 0)
(-4.20118 -37.7784 0)
(-6.44309 -35.0774 0)
(-8.39567 -31.6763 0)
(-10.0197 -27.7143 0)
(-11.3022 -23.354 0)
(-12.2563 -18.7499 0)
(-12.9391 -14.0037 0)
(-13.5716 -9.0817 0)
(-14.3067 -3.77524 0)
(-14.6523 1.85821 0)
(-14.9096 7.54394 0)
(-14.9269 13.1754 0)
(-14.7016 18.5963 0)
(-14.2987 23.6939 0)
(-13.7453 28.381 0)
(-13.0503 32.5669 0)
(-12.2077 36.142 0)
(-11.1785 38.9427 0)
(-9.8369 40.6846 0)
(-8.05356 40.9134 0)
(-6.04538 40.1084 0)
(-3.87776 38.3613 0)
(-1.4157 35.7943 0)
(0.733903 32.3637 0)
(3.42431 28.2932 0)
(5.7312 23.9463 0)
(7.95379 19.4186 0)
(10.1217 14.7394 0)
(12.3315 9.94104 0)
(14.27 5.10906 0)
(15.6967 0.621444 0)
(16.6953 -3.49746 0)
(17.138 -7.33042 0)
(17.0401 -10.8909 0)
(16.4562 -14.2122 0)
(15.4685 -17.3321 0)
(14.1657 -20.269 0)
(12.6217 -23.0079 0)
(10.8942 -25.5091 0)
(9.0259 -27.7136 0)
(7.04844 -29.5408 0)
(4.99039 -30.8734 0)
(2.89109 -31.4876 0)
(0.825227 -31.3119 0)
(-1.15092 -30.5053 0)
(-3.00595 -29.0784 0)
(-4.69864 -27.0714 0)
(-6.19002 -24.554 0)
(-7.45199 -21.6222 0)
(-8.47274 -18.3875 0)
(-9.2576 -14.9587 0)
(-9.83427 -11.4144 0)
(-10.3298 -7.75521 0)
(-10.9089 -3.84849 0)
(-11.2455 0.329203 0)
(-11.4666 4.54982 0)
(-11.5287 8.75895 0)
(-11.3806 12.8394 0)
(-11.0628 16.6901 0)
(-10.599 20.2384 0)
(-9.99937 23.4153 0)
(-9.27017 26.1498 0)
(-8.40018 28.3494 0)
(-7.33323 29.862 0)
(-5.97465 30.3977 0)
(-4.4149 30.0892 0)
(-2.73392 29.1079 0)
(-0.938998 27.5027 0)
(0.916608 25.3178 0)
(2.7353 22.658 0)
(4.45381 19.678 0)
(6.05708 16.4805 0)
(7.54599 13.1252 0)
(8.96924 9.65875 0)
(10.3436 6.10069 0)
(11.4048 2.56364 0)
(12.1359 -0.789402 0)
(12.607 -3.95511 0)
(12.5405 -7.22777 0)
(12.513 -9.71432 0)
(11.339 -13.8049 0)
(-14.8378 -34.0119 0)
(-16.7885 -28.5497 0)
(-18.3185 -22.7057 0)
(-19.5598 -16.5495 0)
(-20.7792 -9.99271 0)
(-21.802 -2.95718 0)
(-22.392 4.28125 0)
(-22.7895 11.5734 0)
(-22.8351 18.7649 0)
(-22.5817 25.6796 0)
(-22.0911 32.2011 0)
(-21.3859 38.2267 0)
(-20.4666 43.6292 0)
(-19.2915 48.206 0)
(-17.7048 51.5858 0)
(-15.3602 53.0493 0)
(-12.3773 52.5933 0)
(-9.0981 50.6149 0)
(-5.24898 47.2332 0)
(-1.5903 42.8581 0)
(1.19307 37.8171 0)
(6.15025 32.0552 0)
(9.60491 25.9093 0)
(13.4159 19.5591 0)
(17.3934 12.9961 0)
(20.6113 6.53323 0)
(23.2576 0.916521 0)
(25.081 -3.96216 0)
(26.0267 -8.16863 0)
(26.1509 -11.8218 0)
(25.5184 -15.1136 0)
(24.246 -18.234 0)
(22.4902 -21.3248 0)
(20.3865 -24.4253 0)
(18.0234 -27.4832 0)
(15.457 -30.4055 0)
(12.7215 -33.079 0)
(9.84474 -35.3658 0)
(6.86091 -37.092 0)
(3.82939 -37.9924 0)
(0.848164 -37.9025 0)
(-2.00285 -37.0043 0)
(-4.67685 -35.3096 0)
(-7.11696 -32.8698 0)
(-9.27265 -29.7747 0)
(-11.1124 -26.1431 0)
(-12.6292 -22.1045 0)
(-13.8413 -17.7707 0)
(-14.827 -13.1976 0)
(-15.7676 -8.33999 0)
(-16.6095 -3.13524 0)
(-17.103 2.2551 0)
(-17.4464 7.69795 0)
(-17.5185 13.0921 0)
(-17.3349 18.2963 0)
(-16.9356 23.202 0)
(-16.3356 27.7125 0)
(-15.538 31.7221 0)
(-14.5245 35.095 0)
(-13.2165 37.6183 0)
(-11.4151 38.886 0)
(-9.15583 38.8175 0)
(-6.64057 37.7603 0)
(-3.90368 35.8079 0)
(-0.965953 33.075 0)
(2.04207 29.618 0)
(4.95307 25.6515 0)
(7.71125 21.4213 0)
(10.3884 16.9916 0)
(13.0617 12.3993 0)
(15.4611 7.75315 0)
(17.2862 3.40923 0)
(18.6284 -0.506131 0)
(19.3757 -4.08647 0)
(19.5367 -7.36089 0)
(19.149 -10.3979 0)
(18.2759 -13.2764 0)
(17.011 -16.0461 0)
(15.45 -18.7165 0)
(13.6687 -21.2528 0)
(11.7207 -23.5984 0)
(9.6438 -25.6826 0)
(7.46465 -27.418 0)
(5.21243 -28.6915 0)
(2.92973 -29.3109 0)
(0.691904 -29.2003 0)
(-1.44724 -28.4983 0)
(-3.45947 -27.2172 0)
(-5.30521 -25.3953 0)
(-6.9485 -23.0954 0)
(-8.36598 -20.3994 0)
(-9.5508 -17.3978 0)
(-10.5133 -14.1712 0)
(-11.2962 -10.7668 0)
(-12.0157 -7.16923 0)
(-12.7057 -3.32954 0)
(-13.1083 0.670554 0)
(-13.3969 4.70337 0)
(-13.4842 8.71958 0)
(-13.3577 12.6132 0)
(-13.0433 16.2928 0)
(-12.5517 19.683 0)
(-11.8849 22.706 0)
(-11.0337 25.2724 0)
(-9.95961 27.2642 0)
(-8.55738 28.4827 0)
(-6.79552 28.7291 0)
(-4.84665 28.2736 0)
(-2.76342 27.1728 0)
(-0.588854 25.4943 0)
(1.60915 23.3127 0)
(3.75385 20.7286 0)
(5.79305 17.8504 0)
(7.71532 14.761 0)
(9.54591 11.5133 0)
(11.2665 8.16432 0)
(12.6566 4.8274 0)
(13.6646 1.67908 0)
(14.2951 -1.30332 0)
(14.5975 -4.10416 0)
(14.2955 -6.98745 0)
(14.11 -9.17626 0)
(12.5998 -12.8971 0)
(-16.0991 -31.6643 0)
(-18.3847 -26.6197 0)
(-20.2863 -21.1058 0)
(-21.9432 -15.1579 0)
(-23.4935 -8.76598 0)
(-24.6129 -2.01646 0)
(-25.4211 4.86686 0)
(-25.9198 11.8248 0)
(-26.0453 18.6949 0)
(-25.8417 25.3206 0)
(-25.3431 31.5817 0)
(-24.5599 37.3514 0)
(-23.4738 42.4585 0)
(-21.993 46.6224 0)
(-19.8356 49.3377 0)
(-16.7448 49.9731 0)
(-13.1198 49.0682 0)
(-9.19048 46.7806 0)
(-4.33589 43.4482 0)
(-1.03754 38.9726 0)
(3.89469 33.6481 0)
(8.46426 27.7515 0)
(12.7507 21.7905 0)
(17.3722 15.5173 0)
(21.291 9.15577 0)
(24.5418 3.61472 0)
(26.8901 -1.14312 0)
(28.2731 -5.15734 0)
(28.7517 -8.50421 0)
(28.4011 -11.3608 0)
(27.3006 -13.9488 0)
(25.6963 -16.5444 0)
(23.6872 -19.2591 0)
(21.3413 -22.0586 0)
(18.7818 -24.8982 0)
(16.044 -27.6513 0)
(13.149 -30.1785 0)
(10.1213 -32.3444 0)
(6.98962 -33.9897 0)
(3.80993 -34.8937 0)
(0.675184 -34.8958 0)
(-2.3356 -34.1467 0)
(-5.17591 -32.6589 0)
(-7.79006 -30.4777 0)
(-10.1312 -27.6789 0)
(-12.1733 -24.358 0)
(-13.9133 -20.6128 0)
(-15.3787 -16.5189 0)
(-16.6599 -12.1086 0)
(-17.8532 -7.37494 0)
(-18.7685 -2.3722 0)
(-19.4089 2.74377 0)
(-19.8279 7.92484 0)
(-19.9564 13.0588 0)
(-19.8142 18.0168 0)
(-19.4216 22.6933 0)
(-18.7827 26.981 0)
(-17.8835 30.7492 0)
(-16.6613 33.8164 0)
(-14.9374 35.8904 0)
(-12.5447 36.5477 0)
(-9.76234 36.171 0)
(-6.68705 34.8457 0)
(-3.38929 32.6952 0)
(0.0359944 29.8501 0)
(3.45865 26.433 0)
(6.77285 22.5919 0)
(9.9932 18.4715 0)
(13.1847 14.1587 0)
(16.0603 9.74711 0)
(18.3419 5.60499 0)
(20.0726 1.90753 0)
(21.1506 -1.42402 0)
(21.6003 -4.41271 0)
(21.457 -7.1149 0)
(20.7688 -9.63281 0)
(19.6199 -12.0747 0)
(18.1148 -14.5039 0)
(16.3467 -16.9234 0)
(14.3827 -19.2793 0)
(12.2645 -21.4868 0)
(10.0247 -23.4603 0)
(7.6914 -25.1121 0)
(5.28998 -26.336 0)
(2.86935 -26.9737 0)
(0.499246 -26.9392 0)
(-1.77284 -26.35 0)
(-3.91546 -25.2193 0)
(-5.89117 -23.582 0)
(-7.66968 -21.4928 0)
(-9.23357 -19.0198 0)
(-10.5801 -16.2331 0)
(-11.7253 -13.1893 0)
(-12.7203 -9.91619 0)
(-13.6379 -6.41391 0)
(-14.3894 -2.71714 0)
(-14.8907 1.07043 0)
(-15.2361 4.90213 0)
(-15.3578 8.7117 0)
(-15.2589 12.4007 0)
(-14.9491 15.8836 0)
(-14.4259 19.0779 0)
(-13.677 21.8929 0)
(-12.6643 24.2178 0)
(-11.2951 25.9047 0)
(-9.45021 26.6608 0)
(-7.30799 26.6902 0)
(-4.97323 26.0645 0)
(-2.50559 24.8522 0)
(0.0275822 23.1285 0)
(2.55175 20.9726 0)
(5.00333 18.4677 0)
(7.35534 15.6957 0)
(9.61271 12.7314 0)
(11.7146 9.64443 0)
(13.4374 6.55056 0)
(14.7556 3.64137 0)
(15.6686 0.919128 0)
(16.1336 -1.66635 0)
(16.2366 -4.05291 0)
(15.7085 -6.53901 0)
(15.3664 -8.42681 0)
(13.5638 -11.7858 0)
(-17.3108 -29.0148 0)
(-19.9033 -24.3369 0)
(-22.1738 -19.1296 0)
(-24.2131 -13.4326 0)
(-25.9496 -7.31591 0)
(-27.2175 -0.944453 0)
(-28.1877 5.57867 0)
(-28.7764 12.1747 0)
(-28.9778 18.6872 0)
(-28.8178 24.9778 0)
(-28.3115 30.9177 0)
(-27.4526 36.3512 0)
(-26.1801 41.0459 0)
(-24.2824 44.6101 0)
(-21.3453 46.2935 0)
(-17.6132 46.3187 0)
(-13.3241 44.9157 0)
(-8.67191 42.2944 0)
(-3.67424 38.7625 0)
(1.53455 34.2063 0)
(6.59228 28.8018 0)
(11.5843 23.1042 0)
(16.7284 17.1525 0)
(21.2924 11.0142 0)
(25.1898 5.61598 0)
(28.0892 1.01685 0)
(29.9249 -2.78794 0)
(30.7617 -5.84028 0)
(30.6247 -8.27972 0)
(29.6943 -10.3707 0)
(28.2687 -12.4255 0)
(26.4284 -14.604 0)
(24.254 -16.9791 0)
(21.8069 -19.5491 0)
(19.1187 -22.1889 0)
(16.2611 -24.7649 0)
(13.2745 -27.1589 0)
(10.1518 -29.2096 0)
(6.92261 -30.7728 0)
(3.64456 -31.676 0)
(0.407716 -31.7613 0)
(-2.71157 -31.1491 0)
(-5.67361 -29.8528 0)
(-8.42938 -27.9122 0)
(-10.9387 -25.3884 0)
(-13.181 -22.354 0)
(-15.1563 -18.8771 0)
(-16.8949 -15.0075 0)
(-18.4547 -10.7788 0)
(-19.8093 -6.24867 0)
(-20.7999 -1.51987 0)
(-21.5672 3.32152 0)
(-22.0531 8.22729 0)
(-22.2414 13.0791 0)
(-22.142 17.7629 0)
(-21.7555 22.1696 0)
(-21.0653 26.1706 0)
(-20.0092 29.5936 0)
(-18.4212 32.187 0)
(-16.0373 33.4736 0)
(-13.1025 33.7027 0)
(-9.77457 32.9684 0)
(-6.15536 31.3895 0)
(-2.36139 29.0937 0)
(1.48223 26.2038 0)
(5.27303 22.8357 0)
(9.01185 19.1109 0)
(12.725 15.1266 0)
(16.0546 10.9834 0)
(18.8269 7.13245 0)
(20.9677 3.70345 0)
(22.3905 0.648263 0)
(23.1287 -2.03884 0)
(23.2258 -4.39843 0)
(22.676 -6.51598 0)
(21.7058 -8.56041 0)
(20.3759 -10.6344 0)
(18.7522 -12.7878 0)
(16.8822 -14.9994 0)
(14.7905 -17.1656 0)
(12.5708 -19.2389 0)
(10.2377 -21.1149 0)
(7.80607 -22.6882 0)
(5.30495 -23.8625 0)
(2.78267 -24.5152 0)
(0.305629 -24.5567 0)
(-2.07604 -24.0785 0)
(-4.33479 -23.0946 0)
(-6.43707 -21.6365 0)
(-8.3548 -19.7493 0)
(-10.0737 -17.4855 0)
(-11.5942 -14.8951 0)
(-12.9356 -12.0171 0)
(-14.1371 -8.88196 0)
(-15.2008 -5.53356 0)
(-15.9825 -2.03717 0)
(-16.5894 1.53388 0)
(-16.9864 5.15555 0)
(-17.1492 8.74385 0)
(-17.0772 12.2079 0)
(-16.763 15.4605 0)
(-16.1873 18.4071 0)
(-15.307 20.9411 0)
(-14.0199 22.9119 0)
(-12.1741 24.045 0)
(-9.92786 24.4734 0)
(-7.41136 24.2632 0)
(-4.70408 23.473 0)
(-1.88667 22.173 0)
(0.958946 20.4325 0)
(3.76465 18.3188 0)
(6.50387 15.9057 0)
(9.17259 13.2705 0)
(11.6444 10.4736 0)
(13.7073 7.6706 0)
(15.366 5.05824 0)
(16.5531 2.60637 0)
(17.28 0.312854 0)
(17.5349 -1.84566 0)
(17.418 -3.79071 0)
(16.6742 -5.88367 0)
(16.195 -7.48466 0)
(14.1867 -10.5048 0)
(-18.5318 -26.0898 0)
(-21.4086 -21.7296 0)
(-24.0014 -16.8205 0)
(-26.2955 -11.4422 0)
(-28.1117 -5.70832 0)
(-29.5807 0.258537 0)
(-30.6661 6.40652 0)
(-31.3441 12.6116 0)
(-31.62 18.7366 0)
(-31.5024 24.6521 0)
(-30.9866 30.2103 0)
(-30.0187 35.2051 0)
(-28.4086 39.2975 0)
(-25.7162 41.8077 0)
(-21.9844 42.6087 0)
(-17.5356 41.9796 0)
(-12.5276 40.0758 0)
(-7.13856 37.1157 0)
(-1.5293 33.2917 0)
(4.0983 28.7027 0)
(9.76668 23.5389 0)
(15.5513 17.8851 0)
(20.7189 12.0019 0)
(25.2056 6.83853 0)
(28.6372 2.45939 0)
(30.9083 -1.08767 0)
(32.0901 -3.81661 0)
(32.1903 -5.85009 0)
(31.4476 -7.47356 0)
(30.1789 -9.01682 0)
(28.4956 -10.6673 0)
(26.4993 -12.5206 0)
(24.2423 -14.6127 0)
(21.7497 -16.9274 0)
(19.0448 -19.3888 0)
(16.1437 -21.8202 0)
(13.0993 -24.0617 0)
(9.93977 -25.9985 0)
(6.66604 -27.4795 0)
(3.332 -28.3768 0)
(0.0299318 -28.5435 0)
(-3.16372 -28.0586 0)
(-6.2179 -26.9382 0)
(-9.09162 -25.211 0)
(-11.7504 -22.9235 0)
(-14.1772 -20.1298 0)
(-16.3738 -16.8828 0)
(-18.3602 -13.2339 0)
(-20.1277 -9.24448 0)
(-21.5389 -4.99195 0)
(-22.6982 -0.57735 0)
(-23.5693 3.98086 0)
(-24.1314 8.59423 0)
(-24.3818 13.1491 0)
(-24.315 17.5301 0)
(-23.9062 21.6108 0)
(-23.0867 25.229 0)
(-21.6807 28.1266 0)
(-19.3802 29.8383 0)
(-16.4066 30.5358 0)
(-12.9245 30.2997 0)
(-9.0623 29.2246 0)
(-4.96393 27.437 0)
(-0.776003 25.0498 0)
(3.39456 22.1659 0)
(7.5673 18.8957 0)
(11.7487 15.2905 0)
(15.4867 11.4407 0)
(18.7188 7.93103 0)
(21.2511 4.81771 0)
(23.0155 2.08831 0)
(24.0479 -0.255875 0)
(24.3711 -2.2463 0)
(24.0121 -3.9731 0)
(23.2241 -5.62251 0)
(22.0785 -7.31786 0)
(20.6426 -9.10457 0)
(18.959 -10.9945 0)
(17.0529 -12.9754 0)
(14.9498 -14.9951 0)
(12.6709 -16.9326 0)
(10.2718 -18.6883 0)
(7.7865 -20.1824 0)
(5.22553 -21.3073 0)
(2.63345 -21.9726 0)
(0.0779773 -22.0814 0)
(-2.38726 -21.7069 0)
(-4.74052 -20.8594 0)
(-6.95345 -19.5635 0)
(-9.0027 -17.8548 0)
(-10.8768 -15.7733 0)
(-12.5765 -13.3579 0)
(-14.1133 -10.6483 0)
(-15.4824 -7.69242 0)
(-16.5966 -4.5483 0)
(-17.5043 -1.29078 0)
(-18.2003 2.06364 0)
(-18.6576 5.45672 0)
(-18.8648 8.8025 0)
(-18.8068 12.0125 0)
(-18.4556 14.9902 0)
(-17.75 17.6238 0)
(-16.5789 19.7443 0)
(-14.7611 21.0742 0)
(-12.4971 21.7898 0)
(-9.87679 21.9066 0)
(-7.00204 21.4672 0)
(-3.97011 20.5401 0)
(-0.876487 19.1839 0)
(2.20528 17.4544 0)
(5.25876 15.4161 0)
(8.27759 13.1214 0)
(11.0536 10.6046 0)
(13.4704 8.14772 0)
(15.4512 5.86216 0)
(16.9131 3.7321 0)
(17.9024 1.74432 0)
(18.36 -0.063179 0)
(18.3503 -1.76241 0)
(18.0458 -3.31315 0)
(17.1567 -5.06979 0)
(16.6044 -6.42806 0)
(14.5025 -9.13421 0)
(-19.8053 -22.9302 0)
(-22.9253 -18.8873 0)
(-25.7009 -14.3002 0)
(-28.0574 -9.29065 0)
(-30.0572 -3.98192 0)
(-31.6636 1.59116 0)
(-32.8536 7.33792 0)
(-33.6255 13.1295 0)
(-33.9758 18.8438 0)
(-33.8944 24.3411 0)
(-33.3203 29.4271 0)
(-32.0538 33.7837 0)
(-29.6252 36.7644 0)
(-25.9829 38.1344 0)
(-21.459 38.1382 0)
(-16.2194 36.8614 0)
(-10.5029 34.5254 0)
(-4.54644 31.3165 0)
(1.45464 27.3839 0)
(7.59639 22.868 0)
(13.92 17.6675 0)
(19.6557 12.1225 0)
(24.6434 7.26772 0)
(28.508 3.18678 0)
(31.1464 -0.0530992 0)
(32.6209 -2.43621 0)
(32.9487 -4.06916 0)
(32.3731 -5.22914 0)
(31.2687 -6.26951 0)
(29.7641 -7.41034 0)
(27.9654 -8.75776 0)
(25.9327 -10.3629 0)
(23.6886 -12.2323 0)
(21.2351 -14.3287 0)
(18.5704 -16.5753 0)
(15.7092 -18.8504 0)
(12.6749 -20.9641 0)
(9.51653 -22.7698 0)
(6.25237 -24.1641 0)
(2.90412 -25.0306 0)
(-0.441566 -25.2836 0)
(-3.6991 -24.8938 0)
(-6.83067 -23.916 0)
(-9.80913 -22.3699 0)
(-12.6103 -20.2911 0)
(-15.2157 -17.7222 0)
(-17.6089 -14.7078 0)
(-19.7419 -11.2949 0)
(-21.5695 -7.57639 0)
(-23.1337 -3.63919 0)
(-24.409 0.494183 0)
(-25.3816 4.75316 0)
(-26.0356 9.04334 0)
(-26.3474 13.2612 0)
(-26.2764 17.2843 0)
(-25.7333 20.9437 0)
(-24.5322 23.9624 0)
(-22.3231 25.8759 0)
(-19.3934 26.8912 0)
(-15.8469 27.028 0)
(-11.8314 26.3566 0)
(-7.51815 25.0086 0)
(-3.07859 23.0885 0)
(1.36613 20.6824 0)
(5.8566 17.8762 0)
(10.364 14.6386 0)
(14.4714 11.1666 0)
(18.0588 8.02086 0)
(20.9039 5.24823 0)
(22.9516 2.87599 0)
(24.237 0.907246 0)
(24.8007 -0.69461 0)
(24.6447 -2.02303 0)
(24.0677 -3.27041 0)
(23.1328 -4.57107 0)
(21.9113 -5.98214 0)
(20.4507 -7.52464 0)
(18.775 -9.19611 0)
(16.8947 -10.9674 0)
(14.8172 -12.7875 0)
(12.5597 -14.5852 0)
(10.1518 -16.2418 0)
(7.63884 -17.6371 0)
(5.0603 -18.7075 0)
(2.43215 -19.3636 0)
(-0.186504 -19.5469 0)
(-2.73214 -19.2532 0)
(-5.17557 -18.5202 0)
(-7.49643 -17.3653 0)
(-9.67779 -15.8164 0)
(-11.7065 -13.9062 0)
(-13.5695 -11.6685 0)
(-15.2313 -9.1386 0)
(-16.6634 -6.38644 0)
(-17.8937 -3.48143 0)
(-18.9022 -0.441702 0)
(-19.6745 2.68349 0)
(-20.1909 5.82191 0)
(-20.4237 8.89279 0)
(-20.3312 11.8004 0)
(-19.8317 14.4135 0)
(-18.7663 16.5212 0)
(-17.0259 17.9519 0)
(-14.7952 18.8267 0)
(-12.1456 19.1566 0)
(-9.17919 18.9794 0)
(-6.01173 18.3555 0)
(-2.75677 17.3404 0)
(0.503364 15.9726 0)
(3.76807 14.3003 0)
(7.02534 12.3295 0)
(10.0393 10.1171 0)
(12.7282 8.00851 0)
(14.9545 6.05272 0)
(16.6663 4.25662 0)
(17.8528 2.63075 0)
(18.5905 1.15513 0)
(18.7559 -0.168294 0)
(18.588 -1.47733 0)
(18.1715 -2.71697 0)
(17.216 -4.18921 0)
(16.6348 -5.3308 0)
(14.519 -7.7271 0)
(-21.0665 -19.5779 0)
(-24.2717 -15.842 0)
(-27.1361 -11.6433 0)
(-29.6343 -7.04859 0)
(-31.7501 -2.12015 0)
(-33.4687 3.0528 0)
(-34.7705 8.3734 0)
(-35.6369 13.7328 0)
(-36.0411 19.0003 0)
(-35.9025 23.995 0)
(-34.9893 28.3798 0)
(-32.7743 31.5023 0)
(-29.2736 33.2082 0)
(-24.7523 33.6407 0)
(-19.3809 32.843 0)
(-13.4448 31.0261 0)
(-7.23557 28.3797 0)
(-0.969313 25.0544 0)
(5.50882 21.1892 0)
(12.1964 16.4983 0)
(18.3233 11.4138 0)
(23.6581 6.95998 0)
(27.7922 3.24064 0)
(30.6471 0.362752 0)
(32.2944 -1.64534 0)
(32.7655 -2.87748 0)
(32.3216 -3.60086 0)
(31.3802 -4.1828 0)
(30.0646 -4.84986 0)
(28.4837 -5.71393 0)
(26.7005 -6.83903 0)
(24.7402 -8.24822 0)
(22.6022 -9.9234 0)
(20.2697 -11.8155 0)
(17.7231 -13.8505 0)
(14.9584 -15.9248 0)
(12.0013 -17.8958 0)
(8.89033 -19.5784 0)
(5.66901 -20.8589 0)
(2.35425 -21.6666 0)
(-0.996911 -21.9439 0)
(-4.30681 -21.6664 0)
(-7.52029 -20.8263 0)
(-10.6 -19.4356 0)
(-13.5105 -17.5254 0)
(-16.2214 -15.145 0)
(-18.7077 -12.3603 0)
(-20.9456 -9.23852 0)
(-22.9114 -5.82679 0)
(-24.5901 -2.16821 0)
(-25.9691 1.67103 0)
(-27.0276 5.61083 0)
(-27.7303 9.55848 0)
(-28.0159 13.3917 0)
(-27.7617 16.9271 0)
(-26.7191 19.847 0)
(-24.6364 21.821 0)
(-21.7787 22.9883 0)
(-18.2303 23.3527 0)
(-14.1423 22.9739 0)
(-9.71163 21.9694 0)
(-5.13906 20.4515 0)
(-0.551471 18.4949 0)
(4.12888 16.1609 0)
(8.8344 13.3068 0)
(13.153 10.2305 0)
(16.9394 7.47283 0)
(19.9638 5.06585 0)
(22.1839 3.06503 0)
(23.6363 1.479 0)
(24.3836 0.26135 0)
(24.4331 -0.684947 0)
(24.0633 -1.53743 0)
(23.3574 -2.44196 0)
(22.3792 -3.46562 0)
(21.1759 -4.63979 0)
(19.7722 -5.97259 0)
(18.1768 -7.44622 0)
(16.3881 -9.02176 0)
(14.4002 -10.6467 0)
(12.2153 -12.2597 0)
(9.85565 -13.7821 0)
(7.36624 -15.101 0)
(4.79215 -16.0911 0)
(2.16679 -16.7111 0)
(-0.483497 -16.9218 0)
(-3.10174 -16.7176 0)
(-5.64117 -16.097 0)
(-8.07126 -15.0679 0)
(-10.3659 -13.6541 0)
(-12.5021 -11.8937 0)
(-14.4612 -9.83562 0)
(-16.2252 -7.52893 0)
(-17.7761 -5.0113 0)
(-19.1009 -2.32094 0)
(-20.1851 0.488811 0)
(-21.0037 3.35586 0)
(-21.5172 6.20756 0)
(-21.6665 8.94844 0)
(-21.3518 11.4251 0)
(-20.3597 13.403 0)
(-18.7311 14.8346 0)
(-16.5691 15.7613 0)
(-13.9453 16.1925 0)
(-10.9654 16.1739 0)
(-7.75337 15.7692 0)
(-4.43772 15.0361 0)
(-1.1101 13.9985 0)
(2.24253 12.6765 0)
(5.60472 11.0134 0)
(8.74933 9.12412 0)
(11.5713 7.34481 0)
(13.9296 5.70646 0)
(15.7823 4.2397 0)
(17.1397 2.95691 0)
(18.0089 1.83432 0)
(18.4605 0.825687 0)
(18.4757 -0.103669 0)
(18.2046 -1.09298 0)
(17.7448 -2.06757 0)
(16.7984 -3.28532 0)
(16.2355 -4.23504 0)
(14.1958 -6.3311 0)
(-22.2141 -16.1847 0)
(-25.4879 -12.7987 0)
(-28.4288 -8.94534 0)
(-31.0197 -4.70071 0)
(-33.238 -0.149803 0)
(-35.057 4.61869 0)
(-36.4451 9.50604 0)
(-37.3413 14.4012 0)
(-37.6143 19.1217 0)
(-36.9952 23.2942 0)
(-34.8847 26.2726 0)
(-31.5179 28.0814 0)
(-27.0127 28.7287 0)
(-21.5668 28.2522 0)
(-15.4988 26.8333 0)
(-9.16171 24.6712 0)
(-2.79279 21.9172 0)
(3.85589 18.6722 0)
(10.6985 14.4585 0)
(16.99 9.9592 0)
(22.4119 6.02573 0)
(26.575 2.75874 0)
(29.4259 0.297446 0)
(31.0578 -1.30907 0)
(31.5286 -2.15431 0)
(31.1556 -2.50421 0)
(30.3438 -2.6987 0)
(29.2132 -2.94987 0)
(27.8682 -3.37498 0)
(26.3663 -4.05156 0)
(24.7281 -5.01739 0)
(22.9493 -6.26747 0)
(21.0075 -7.76452 0)
(18.8712 -9.45167 0)
(16.5107 -11.2625 0)
(13.9098 -13.1166 0)
(11.0816 -14.9002 0)
(8.0699 -16.46 0)
(4.9169 -17.6253 0)
(1.66483 -18.3587 0)
(-1.64818 -18.6219 0)
(-4.95799 -18.3808 0)
(-8.20885 -17.6293 0)
(-11.3534 -16.3813 0)
(-14.3455 -14.6609 0)
(-17.1469 -12.5063 0)
(-19.729 -9.96658 0)
(-22.0678 -7.09569 0)
(-24.137 -3.9489 0)
(-25.9074 -0.583306 0)
(-27.3469 2.935 0)
(-28.4057 6.51758 0)
(-28.9981 10.0441 0)
(-28.9708 13.3021 0)
(-27.9962 15.9519 0)
(-26.0283 17.8405 0)
(-23.2408 19.0141 0)
(-19.723 19.4651 0)
(-15.6345 19.2591 0)
(-11.1869 18.5059 0)
(-6.60997 17.3254 0)
(-2.03552 15.7827 0)
(2.6626 13.8973 0)
(7.38289 11.4163 0)
(11.7286 8.78407 0)
(15.5056 6.43899 0)
(18.5151 4.419 0)
(20.7369 2.79093 0)
(22.217 1.56727 0)
(23.0348 0.699386 0)
(23.2412 0.0964791 0)
(23.0404 -0.397971 0)
(22.5585 -0.932091 0)
(21.8425 -1.58434 0)
(20.9312 -2.39331 0)
(19.8433 -3.37631 0)
(18.583 -4.5264 0)
(17.1441 -5.81441 0)
(15.5131 -7.19541 0)
(13.676 -8.6189 0)
(11.6244 -10.0354 0)
(9.36761 -11.3887 0)
(6.94223 -12.5917 0)
(4.40545 -13.5227 0)
(1.79674 -14.0809 0)
(-0.855616 -14.2754 0)
(-3.50865 -14.0996 0)
(-6.10833 -13.5516 0)
(-8.61498 -12.6368 0)
(-10.9967 -11.3742 0)
(-13.2247 -9.79359 0)
(-15.2741 -7.93128 0)
(-17.1227 -5.82628 0)
(-18.7483 -3.5229 0)
(-20.1236 -1.07323 0)
(-21.213 1.46537 0)
(-21.9664 4.02208 0)
(-22.3068 6.491 0)
(-22.1064 8.70956 0)
(-21.1641 10.4807 0)
(-19.6407 11.8206 0)
(-17.5595 12.7143 0)
(-14.9995 13.1661 0)
(-12.0714 13.2239 0)
(-8.90807 12.9609 0)
(-5.64863 12.4374 0)
(-2.38751 11.6815 0)
(0.910118 10.6888 0)
(4.23466 9.33177 0)
(7.3502 7.75977 0)
(10.1421 6.30053 0)
(12.48 4.97197 0)
(14.3373 3.81352 0)
(15.7302 2.83905 0)
(16.6881 2.02421 0)
(17.2539 1.32383 0)
(17.4831 0.682563 0)
(17.4174 0.054378 0)
(17.1219 -0.677854 0)
(16.6927 -1.43728 0)
(15.8337 -2.43568 0)
(15.3425 -3.21717 0)
(13.475 -5.01007 0)
(-23.2691 -12.7197 0)
(-26.5806 -9.63046 0)
(-29.5751 -6.10545 0)
(-32.2338 -2.22502 0)
(-34.5191 1.92477 0)
(-36.3702 6.25905 0)
(-37.6821 10.6703 0)
(-38.2572 14.9238 0)
(-37.7142 18.6021 0)
(-35.6239 21.2559 0)
(-32.2855 22.9368 0)
(-27.7595 23.5979 0)
(-22.277 23.2738 0)
(-16.1949 22.1271 0)
(-9.91252 20.3662 0)
(-3.61503 18.1866 0)
(3.06155 15.5519 0)
(9.76154 11.7452 0)
(15.8911 7.93496 0)
(21.0383 4.63501 0)
(24.8961 1.92949 0)
(27.454 -0.0438072 0)
(28.8322 -1.2299 0)
(29.1078 -1.725 0)
(28.7271 -1.78923 0)
(27.9898 -1.69992 0)
(27.0264 -1.63663 0)
(25.9299 -1.71133 0)
(24.7445 -2.00807 0)
(23.4784 -2.57639 0)
(22.1146 -3.42586 0)
(20.6197 -4.53355 0)
(18.9528 -5.85308 0)
(17.0732 -7.32566 0)
(14.9488 -8.89212 0)
(12.5618 -10.4929 0)
(9.91529 -12.0464 0)
(7.04186 -13.4256 0)
(3.9917 -14.4627 0)
(0.824538 -15.0904 0)
(-2.4152 -15.3191 0)
(-5.6763 -15.098 0)
(-8.91133 -14.4142 0)
(-12.0713 -13.286 0)
(-15.1048 -11.7274 0)
(-17.9708 -9.7662 0)
(-20.6324 -7.4474 0)
(-23.0483 -4.8314 0)
(-25.1633 -1.9827 0)
(-26.9158 1.04635 0)
(-28.2388 4.1822 0)
(-29.0237 7.27625 0)
(-29.0923 10.101 0)
(-28.0589 12.3495 0)
(-26.1604 14.022 0)
(-23.4155 15.0786 0)
(-19.9471 15.5131 0)
(-15.9333 15.3876 0)
(-11.5994 14.8127 0)
(-7.18669 13.9062 0)
(-2.80366 12.7501 0)
(1.73612 11.2959 0)
(6.24111 9.1662 0)
(10.3619 7.01176 0)
(13.8783 5.11462 0)
(16.6415 3.50554 0)
(18.6586 2.24865 0)
(19.9938 1.35507 0)
(20.7421 0.782955 0)
(20.9831 0.453202 0)
(20.8884 0.236087 0)
(20.5873 0.000817546 0)
(20.1187 -0.336166 0)
(19.5095 -0.818231 0)
(18.7671 -1.46986 0)
(17.8849 -2.29536 0)
(16.8464 -3.27744 0)
(15.6295 -4.38043 0)
(14.2121 -5.55726 0)
(12.5753 -6.75899 0)
(10.7081 -7.94617 0)
(8.61359 -9.08811 0)
(6.31608 -10.1299 0)
(3.86505 -10.9599 0)
(1.30539 -11.4441 0)
(-1.31814 -11.6088 0)
(-3.96547 -11.4624 0)
(-6.57984 -10.9876 0)
(-9.11719 -10.1783 0)
(-11.5419 -9.04717 0)
(-13.8175 -7.62365 0)
(-15.9066 -5.9461 0)
(-17.7716 -4.05765 0)
(-19.3719 -2.00728 0)
(-20.6576 0.14874 0)
(-21.5655 2.33983 0)
(-22.0099 4.4484 0)
(-21.8067 6.31075 0)
(-20.9264 7.82462 0)
(-19.4758 8.9858 0)
(-17.4854 9.77634 0)
(-15.0318 10.1923 0)
(-12.2309 10.2748 0)
(-9.22174 10.0995 0)
(-6.14867 9.73378 0)
(-3.10392 9.21236 0)
(-0.0248211 8.51453 0)
(3.08956 7.44675 0)
(5.99632 6.19792 0)
(8.57714 5.05583 0)
(10.7233 4.03045 0)
(12.4288 3.15776 0)
(13.7181 2.4517 0)
(14.6342 1.89074 0)
(15.2214 1.43878 0)
(15.5435 1.04804 0)
(15.6276 0.663199 0)
(15.5512 0.237632 0)
(15.3033 -0.307497 0)
(14.9648 -0.896864 0)
(14.2561 -1.70321 0)
(13.8801 -2.3384 0)
(12.2642 -3.82467 0)
(-24.2633 -9.2738 0)
(-27.5576 -6.50962 0)
(-30.5402 -3.30136 0)
(-33.1621 0.241802 0)
(-35.3147 4.00044 0)
(-36.8279 7.81623 0)
(-37.4526 11.4016 0)
(-36.6468 14.3495 0)
(-34.4552 16.5283 0)
(-30.9979 17.8883 0)
(-26.4086 18.3906 0)
(-20.9583 18.1006 0)
(-15.0493 17.1503 0)
(-9.09686 15.7738 0)
(-3.10863 14.163 0)
(3.33134 11.9382 0)
(9.53837 8.68235 0)
(15.0721 5.66821 0)
(19.5066 3.09993 0)
(22.669 1.04065 0)
(24.6186 -0.383324 0)
(25.4883 -1.1452 0)
(25.4258 -1.36341 0)
(24.9565 -1.25885 0)
(24.2396 -1.02477 0)
(23.4107 -0.787874 0)
(22.5484 -0.643142 0)
(21.6824 -0.670594 0)
(20.8075 -0.923032 0)
(19.8929 -1.42088 0)
(18.8918 -2.15749 0)
(17.7509 -3.10463 0)
(16.4183 -4.21859 0)
(14.8497 -5.44852 0)
(13.0143 -6.74793 0)
(10.8972 -8.07812 0)
(8.49421 -9.38092 0)
(5.8143 -10.5441 0)
(2.88571 -11.4226 0)
(-0.189479 -11.9483 0)
(-3.25926 -12.1239 0)
(-6.48741 -11.8855 0)
(-9.65717 -11.2447 0)
(-12.7908 -10.2 0)
(-15.8089 -8.76431 0)
(-18.6532 -6.97628 0)
(-21.2742 -4.88343 0)
(-23.6057 -2.55303 0)
(-25.5364 -0.070382 0)
(-26.9405 2.50877 0)
(-27.7129 5.05043 0)
(-27.6049 7.30203 0)
(-26.5174 9.09698 0)
(-24.6 10.4278 0)
(-21.898 11.2722 0)
(-18.5399 11.6243 0)
(-14.7225 11.5388 0)
(-10.6838 11.1138 0)
(-6.65958 10.4532 0)
(-2.68681 9.65377 0)
(1.46606 8.54399 0)
(5.48516 6.80489 0)
(9.09327 5.16612 0)
(12.0764 3.74272 0)
(14.3562 2.55611 0)
(15.9748 1.6584 0)
(17.0109 1.05815 0)
(17.5665 0.720954 0)
(17.7233 0.58073 0)
(17.6593 0.540032 0)
(17.4679 0.497619 0)
(17.1886 0.381445 0)
(16.8371 0.148724 0)
(16.4103 -0.229217 0)
(15.8933 -0.764895 0)
(15.262 -1.45241 0)
(14.4865 -2.26959 0)
(13.5351 -3.18187 0)
(12.3786 -4.14743 0)
(10.9936 -5.12407 0)
(9.36558 -6.07937 0)
(7.49253 -6.99685 0)
(5.38594 -7.8481 0)
(3.07365 -8.5369 0)
(0.602549 -8.906 0)
(-1.94342 -8.99964 0)
(-4.51121 -8.83756 0)
(-7.04497 -8.39575 0)
(-9.50411 -7.66675 0)
(-11.8534 -6.66507 0)
(-14.0456 -5.4214 0)
(-16.021 -3.97082 0)
(-17.7163 -2.35442 0)
(-19.066 -0.627413 0)
(-19.9975 1.12772 0)
(-20.4254 2.79701 0)
(-20.1446 4.24353 0)
(-19.3124 5.44059 0)
(-17.9367 6.37507 0)
(-16.0749 7.02358 0)
(-13.8122 7.37538 0)
(-11.2586 7.46279 0)
(-8.54857 7.35553 0)
(-5.82144 7.12337 0)
(-3.16033 6.80135 0)
(-0.472552 6.35821 0)
(2.23957 5.55173 0)
(4.74072 4.62745 0)
(6.92532 3.79959 0)
(8.71682 3.06504 0)
(10.1259 2.452 0)
(11.1916 1.97147 0)
(11.9563 1.60807 0)
(12.4811 1.33438 0)
(12.8015 1.11597 0)
(12.9917 0.910612 0)
(13.0225 0.673261 0)
(13.0001 0.367086 0)
(12.8208 -0.0405412 0)
(12.6073 -0.498027 0)
(12.0745 -1.13701 0)
(11.8115 -1.63592 0)
(10.4777 -2.80761 0)
(-21.74 -7.83662 0)
(-25.1191 -5.78488 0)
(-28.0799 -3.29336 0)
(-30.6439 -0.450703 0)
(-32.7247 2.58894 0)
(-34.08 5.59633 0)
(-34.2906 8.29107 0)
(-33.0666 10.4218 0)
(-30.6227 11.9926 0)
(-27.0092 12.9278 0)
(-22.4527 13.2058 0)
(-17.2827 12.9097 0)
(-11.9298 12.1918 0)
(-6.65662 11.2829 0)
(-1.1668 10.23 0)
(4.53824 8.11853 0)
(9.73154 5.66459 0)
(14.1314 3.54621 0)
(17.4153 1.76983 0)
(19.5545 0.404851 0)
(20.6778 -0.463712 0)
(20.8615 -0.860566 0)
(20.5372 -0.906126 0)
(19.9434 -0.747455 0)
(19.2339 -0.498827 0)
(18.5185 -0.228936 0)
(17.8591 -0.00870851 0)
(17.2762 0.0943505 0)
(16.7568 0.032857 0)
(16.2627 -0.217765 0)
(15.7385 -0.661977 0)
(15.1201 -1.28692 0)
(14.3426 -2.06535 0)
(13.3501 -2.96093 0)
(12.0981 -3.93396 0)
(10.5582 -4.94985 0)
(8.72854 -5.97733 0)
(6.631 -6.94542 0)
(4.22734 -7.79771 0)
(1.46279 -8.45742 0)
(-1.43226 -8.94009 0)
(-4.34177 -9.06637 0)
(-7.32082 -8.7119 0)
(-10.3341 -8.05881 0)
(-13.2688 -7.11366 0)
(-16.0497 -5.85166 0)
(-18.6039 -4.29238 0)
(-20.8492 -2.47402 0)
(-22.6949 -0.525836 0)
(-23.9667 1.33219 0)
(-24.4671 3.13644 0)
(-24.033 4.81173 0)
(-22.8704 6.13801 0)
(-20.9601 7.0997 0)
(-18.397 7.70641 0)
(-15.3318 7.9601 0)
(-11.9557 7.91203 0)
(-8.49325 7.6491 0)
(-5.1318 7.26027 0)
(-1.78807 6.79978 0)
(1.68946 5.90773 0)
(4.90214 4.63662 0)
(7.69472 3.52951 0)
(9.90293 2.57479 0)
(11.5175 1.78812 0)
(12.6093 1.20935 0)
(13.2629 0.845597 0)
(13.5698 0.670063 0)
(13.6213 0.633109 0)
(13.569 0.669137 0)
(13.4577 0.710538 0)
(13.3197 0.708858 0)
(13.1648 0.627914 0)
(12.9862 0.438713 0)
(12.7663 0.122628 0)
(12.4777 -0.324305 0)
(12.0841 -0.890278 0)
(11.5459 -1.55026 0)
(10.8278 -2.27017 0)
(9.90533 -3.01221 0)
(8.76583 -3.74107 0)
(7.40677 -4.43219 0)
(5.83403 -5.08046 0)
(4.04846 -5.68277 0)
(2.02441 -6.1834 0)
(-0.207802 -6.41107 0)
(-2.52705 -6.48351 0)
(-4.87737 -6.37027 0)
(-7.19529 -6.01358 0)
(-9.42251 -5.38425 0)
(-11.504 -4.50944 0)
(-13.3715 -3.45539 0)
(-14.9492 -2.27337 0)
(-16.1695 -1.00726 0)
(-16.9692 0.269244 0)
(-17.2343 1.46348 0)
(-16.912 2.49954 0)
(-16.1229 3.37281 0)
(-14.8875 4.0748 0)
(-13.2675 4.57522 0)
(-11.346 4.86448 0)
(-9.22025 4.9649 0)
(-7.00273 4.92867 0)
(-4.80636 4.82055 0)
(-2.69113 4.67436 0)
(-0.560488 4.4358 0)
(1.55746 3.8661 0)
(3.47928 3.25843 0)
(5.12091 2.72418 0)
(6.44127 2.25019 0)
(7.46575 1.85668 0)
(8.23473 1.55247 0)
(8.79292 1.32777 0)
(9.1865 1.16538 0)
(9.46552 1.04393 0)
(9.65428 0.938078 0)
(9.80217 0.820601 0)
(9.8692 0.658991 0)
(9.92564 0.428435 0)
(9.84532 0.121545 0)
(9.77293 -0.23845 0)
(9.41522 -0.727621 0)
(9.2618 -1.10191 0)
(8.23434 -1.98388 0)
(-21.4604 -4.46533 0)
(-24.1746 -3.09792 0)
(-26.3255 -1.09562 0)
(-27.866 1.31881 0)
(-28.5208 3.6332 0)
(-27.9003 5.48412 0)
(-26.2226 6.88793 0)
(-23.5229 7.89263 0)
(-20.0764 8.26371 0)
(-16.0074 8.36989 0)
(-11.6817 8.16699 0)
(-7.40621 7.79725 0)
(-3.13012 7.41593 0)
(1.436 6.43991 0)
(5.6549 4.77954 0)
(9.30461 3.29583 0)
(12.1133 2.0754 0)
(13.9887 1.06077 0)
(15.0197 0.310689 0)
(15.2773 -0.134577 0)
(15.056 -0.312598 0)
(14.5798 -0.311266 0)
(13.9813 -0.205381 0)
(13.3701 -0.0331038 0)
(12.8197 0.164951 0)
(12.3679 0.341038 0)
(12.0264 0.449495 0)
(11.7828 0.456339 0)
(11.6025 0.341283 0)
(11.4364 0.0966021 0)
(11.2254 -0.273303 0)
(10.9083 -0.753639 0)
(10.4281 -1.32481 0)
(9.73726 -1.96439 0)
(8.79834 -2.64696 0)
(7.59286 -3.35212 0)
(6.12999 -4.08059 0)
(4.28448 -4.90334 0)