/*--------------------------------*- C++ -*----------------------------------*\
| =========                 |                                                 |
| \\      /  F ield         | OpenFOAM: The Open Source CFD Toolbox           |
|  \\    /   O peration     | Version:  2206                                  |
|   \\  /    A nd           | Website:  www.openfoam.com                      |
|    \\/     M anipulation  |                                                 |
\*---------------------------------------------------------------------------*/
FoamFile
{
    version     2.0;
    format      ascii;
    arch        "LSB;label=32;scalar=64";
    class       volVectorField;
    location    "20.0001";
    object      U;
}
// * * * * * * * * * * * * * * * * * * * * * * * * * * * * * * * * * * * * * //

dimensions      [0 1 -1 0 0 0 0];

internalField   nonuniform List<vector> 
4852
(
(1.73473 0.141391 0)
(1.74008 0.181561 0)
(1.74469 0.219631 0)
(1.74851 0.255209 0)
(1.75147 0.287992 0)
(1.75354 0.317744 0)
(1.75471 0.34431 0)
(1.75498 0.367611 0)
(1.75438 0.387615 0)
(1.75294 0.404337 0)
(1.75072 0.417843 0)
(1.74776 0.428236 0)
(1.74415 0.435644 0)
(1.73983 0.440174 0)
(1.73458 0.441787 0)
(1.72852 0.440584 0)
(1.72158 0.436972 0)
(1.7138 0.431313 0)
(1.70526 0.424031 0)
(1.69602 0.415587 0)
(1.68615 0.406419 0)
(1.67573 0.396919 0)
(1.66485 0.387416 0)
(1.65362 0.378161 0)
(1.64217 0.36931 0)
(1.63056 0.360899 0)
(1.61888 0.352894 0)
(1.60719 0.345204 0)
(1.59557 0.337686 0)
(1.58407 0.330148 0)
(1.57276 0.322365 0)
(1.5617 0.31408 0)
(1.55096 0.305018 0)
(1.54062 0.294895 0)
(1.53075 0.283428 0)
(1.52145 0.270347 0)
(1.51282 0.255411 0)
(1.50494 0.238419 0)
(1.49791 0.219219 0)
(1.49182 0.197716 0)
(1.48676 0.173887 0)
(1.4828 0.147776 0)
(1.48 0.119504 0)
(1.47841 0.0892619 0)
(1.47806 0.0573097 0)
(1.47896 0.0239674 0)
(1.48109 -0.0103904 0)
(1.48444 -0.0453326 0)
(1.48891 -0.0803453 0)
(1.49442 -0.114926 0)
(1.50087 -0.148692 0)
(1.50816 -0.181277 0)
(1.51617 -0.212338 0)
(1.52479 -0.241563 0)
(1.5339 -0.268689 0)
(1.54338 -0.293499 0)
(1.5531 -0.31583 0)
(1.56295 -0.33557 0)
(1.5728 -0.35267 0)
(1.58254 -0.36714 0)
(1.59206 -0.379037 0)
(1.60129 -0.388463 0)
(1.61016 -0.395555 0)
(1.61862 -0.400463 0)
(1.62666 -0.403328 0)
(1.63426 -0.404274 0)
(1.64139 -0.403417 0)
(1.64797 -0.400925 0)
(1.65398 -0.397046 0)
(1.65946 -0.392044 0)
(1.66446 -0.386167 0)
(1.66906 -0.379616 0)
(1.67337 -0.372528 0)
(1.67749 -0.364982 0)
(1.68156 -0.356989 0)
(1.68565 -0.348499 0)
(1.68988 -0.339411 0)
(1.69433 -0.329586 0)
(1.69906 -0.318852 0)
(1.70413 -0.307022 0)
(1.70958 -0.2939 0)
(1.71542 -0.279296 0)
(1.72166 -0.263037 0)
(1.72828 -0.24498 0)
(1.73524 -0.225019 0)
(1.7425 -0.203098 0)
(1.74997 -0.179207 0)
(1.75758 -0.15339 0)
(1.76526 -0.125739 0)
(1.77289 -0.0963982 0)
(1.7804 -0.0655504 0)
(1.7877 -0.0334212 0)
(1.79469 -0.000293606 0)
(1.8013 0.0334654 0)
(1.80738 0.0673329 0)
(1.81286 0.100868 0)
(1.81767 0.133703 0)
(1.82176 0.165483 0)
(1.82507 0.195881 0)
(1.82759 0.224585 0)
(1.82926 0.251324 0)
(1.83007 0.27586 0)
(1.83001 0.297985 0)
(1.82908 0.317536 0)
(1.82728 0.334396 0)
(1.82463 0.348495 0)
(1.82116 0.359802 0)
(1.8169 0.368328 0)
(1.8118 0.374081 0)
(1.80565 0.376956 0)
(1.79849 0.376905 0)
(1.79033 0.374225 0)
(1.78121 0.369257 0)
(1.77125 0.362407 0)
(1.76057 0.354133 0)
(1.7493 0.344914 0)
(1.7376 0.335227 0)
(1.72565 0.325531 0)
(1.71366 0.31619 0)
(1.70175 0.307393 0)
(1.69002 0.299227 0)
(1.6786 0.291691 0)
(1.66755 0.284703 0)
(1.65695 0.27811 0)
(1.64685 0.271692 0)
(1.63728 0.265177 0)
(1.62827 0.258254 0)
(1.61985 0.25063 0)
(1.61202 0.242008 0)
(1.60476 0.23211 0)
(1.59808 0.220689 0)
(1.59196 0.207542 0)
(1.58641 0.192501 0)
(1.58139 0.175506 0)
(1.5769 0.156293 0)
(1.57293 0.135796 0)
(1.56931 0.110105 0)
(1.56648 0.0900397 0)
(1.5631 0.0459212 0)
(1.69267 0.13483 0)
(1.69848 0.175628 0)
(1.70381 0.214425 0)
(1.70856 0.250815 0)
(1.71266 0.284471 0)
(1.71605 0.315138 0)
(1.71869 0.342637 0)
(1.72056 0.366865 0)
(1.72168 0.387777 0)
(1.72203 0.40537 0)
(1.72166 0.419695 0)
(1.72059 0.430856 0)
(1.71886 0.438991 0)
(1.71654 0.44428 0)
(1.71347 0.446898 0)
(1.70953 0.446741 0)
(1.70471 0.44411 0)
(1.69898 0.439366 0)
(1.69244 0.432918 0)
(1.68518 0.425236 0)
(1.67725 0.416756 0)
(1.66872 0.407853 0)
(1.65968 0.398841 0)
(1.65021 0.389957 0)
(1.64043 0.381358 0)
(1.63045 0.373106 0)
(1.62033 0.365175 0)
(1.61017 0.35748 0)
(1.60002 0.349878 0)
(1.58997 0.342184 0)
(1.58007 0.334168 0)
(1.57042 0.325571 0)
(1.56107 0.316112 0)
(1.55211 0.305501 0)
(1.54363 0.293446 0)
(1.53572 0.279677 0)
(1.52846 0.263949 0)
(1.52195 0.246064 0)
(1.51627 0.225871 0)
(1.5115 0.203285 0)
(1.5077 0.17829 0)
(1.50494 0.150945 0)
(1.50327 0.121387 0)
(1.50272 0.0898235 0)
(1.50329 0.0565343 0)
(1.50499 0.021861 0)
(1.50781 -0.0137946 0)
(1.51168 -0.0499761 0)
(1.51652 -0.0861109 0)
(1.52223 -0.121715 0)
(1.52872 -0.156391 0)
(1.53588 -0.189769 0)
(1.54361 -0.221495 0)
(1.55179 -0.251253 0)
(1.56031 -0.27878 0)
(1.56905 -0.303864 0)
(1.57792 -0.326336 0)
(1.5868 -0.346086 0)
(1.59558 -0.363072 0)
(1.60416 -0.37731 0)
(1.61244 -0.38887 0)
(1.62034 -0.397877 0)
(1.6278 -0.404495 0)
(1.63478 -0.408909 0)
(1.6413 -0.411276 0)
(1.64737 -0.411689 0)
(1.65291 -0.41022 0)
(1.65783 -0.407078 0)
(1.66214 -0.402558 0)
(1.66589 -0.396967 0)
(1.66914 -0.390585 0)
(1.67198 -0.383642 0)
(1.6745 -0.376296 0)
(1.67685 -0.368615 0)
(1.67915 -0.360606 0)
(1.68151 -0.352215 0)
(1.68401 -0.343329 0)
(1.68675 -0.333794 0)
(1.68979 -0.323425 0)
(1.6932 -0.312014 0)
(1.69702 -0.299347 0)
(1.70128 -0.285215 0)
(1.70598 -0.269423 0)
(1.71111 -0.251806 0)
(1.71666 -0.232242 0)
(1.72257 -0.210653 0)
(1.72879 -0.187018 0)
(1.73525 -0.161369 0)
(1.74187 -0.133792 0)
(1.74857 -0.104425 0)
(1.75527 -0.0734549 0)
(1.76189 -0.0411109 0)
(1.76834 -0.00767139 0)
(1.77455 0.026509 0)
(1.7804 0.060931 0)
(1.7858 0.0950958 0)
(1.79067 0.128627 0)
(1.79498 0.161163 0)
(1.79866 0.192367 0)
(1.80167 0.221918 0)
(1.80399 0.249537 0)
(1.80557 0.274974 0)
(1.8064 0.298015 0)
(1.80647 0.318484 0)
(1.80578 0.336251 0)
(1.80433 0.35124 0)
(1.80213 0.363412 0)
(1.79922 0.372794 0)
(1.79563 0.379446 0)
(1.79123 0.383393 0)
(1.78584 0.384494 0)
(1.77953 0.382879 0)
(1.77227 0.37891 0)
(1.76416 0.372948 0)
(1.75532 0.365425 0)
(1.74587 0.356802 0)
(1.73594 0.347533 0)
(1.7257 0.338048 0)
(1.71532 0.328739 0)
(1.70496 0.319831 0)
(1.69472 0.311428 0)
(1.6847 0.303548 0)
(1.67501 0.296128 0)
(1.66572 0.289031 0)
(1.65689 0.282053 0)
(1.64856 0.27493 0)
(1.64078 0.267372 0)
(1.63356 0.259107 0)
(1.62691 0.24984 0)
(1.62082 0.239304 0)
(1.61529 0.227254 0)
(1.61029 0.213494 0)
(1.60582 0.197859 0)
(1.60183 0.180294 0)
(1.59833 0.16054 0)
(1.59525 0.139561 0)
(1.5925 0.11336 0)
(1.59031 0.0929663 0)
(1.5878 0.0483594 0)
(1.65082 0.127944 0)
(1.65699 0.169076 0)
(1.66294 0.20833 0)
(1.66855 0.245281 0)
(1.67373 0.279598 0)
(1.67839 0.310984 0)
(1.68246 0.339238 0)
(1.68592 0.364262 0)
(1.68873 0.385975 0)
(1.69086 0.404359 0)
(1.69233 0.41946 0)
(1.69313 0.431383 0)
(1.69329 0.440286 0)
(1.6929 0.446234 0)
(1.69197 0.449537 0)
(1.69023 0.45043 0)
(1.68759 0.448841 0)
(1.6839 0.445066 0)
(1.67936 0.439508 0)
(1.67408 0.432638 0)
(1.66811 0.424894 0)
(1.6615 0.416646 0)
(1.65433 0.408195 0)
(1.64669 0.399763 0)
(1.63868 0.391493 0)
(1.6304 0.383458 0)
(1.62195 0.375654 0)
(1.61341 0.367997 0)
(1.60486 0.360353 0)
(1.59637 0.352533 0)
(1.58803 0.344306 0)
(1.57991 0.33541 0)
(1.5721 0.325559 0)
(1.56469 0.314459 0)
(1.55775 0.301818 0)
(1.55138 0.287365 0)
(1.54565 0.270859 0)
(1.54065 0.252103 0)
(1.53644 0.230954 0)
(1.5331 0.207337 0)
(1.53068 0.181246 0)
(1.52922 0.152755 0)
(1.52875 0.122016 0)
(1.52928 0.0892548 0)
(1.53082 0.0547687 0)
(1.53334 0.0189181 0)
(1.53683 -0.0178732 0)
(1.5412 -0.0551029 0)
(1.54637 -0.0921718 0)
(1.55223 -0.128607 0)
(1.55869 -0.164 0)
(1.56565 -0.19798 0)
(1.57299 -0.230183 0)
(1.58062 -0.260294 0)
(1.58842 -0.288056 0)
(1.59631 -0.313262 0)
(1.60418 -0.335742 0)
(1.61195 -0.355384 0)
(1.61953 -0.372156 0)
(1.62683 -0.386069 0)
(1.63376 -0.397197 0)
(1.64022 -0.405689 0)
(1.64616 -0.411756 0)
(1.65156 -0.415616 0)
(1.65646 -0.417452 0)
(1.66093 -0.41729 0)
(1.66477 -0.415139 0)
(1.66792 -0.411286 0)
(1.67043 -0.406094 0)
(1.67237 -0.3999 0)
(1.67381 -0.392989 0)
(1.67485 -0.385595 0)
(1.67556 -0.377942 0)
(1.67611 -0.37017 0)
(1.67663 -0.362203 0)
(1.6772 -0.35395 0)
(1.67794 -0.345296 0)
(1.67893 -0.336078 0)
(1.68025 -0.3261 0)
(1.68196 -0.315139 0)
(1.68411 -0.302963 0)
(1.68673 -0.289345 0)
(1.68984 -0.274073 0)
(1.69343 -0.256963 0)
(1.69749 -0.237873 0)
(1.70199 -0.216708 0)
(1.70688 -0.193433 0)
(1.71211 -0.168067 0)
(1.71761 -0.140688 0)
(1.72331 -0.111433 0)
(1.72913 -0.0804851 0)
(1.73501 -0.0480757 0)
(1.74086 -0.014487 0)
(1.74662 0.0199344 0)
(1.75219 0.0547337 0)
(1.75746 0.0893534 0)
(1.76237 0.123407 0)
(1.76687 0.15653 0)
(1.7709 0.188373 0)
(1.77441 0.218611 0)
(1.77736 0.246956 0)
(1.77971 0.273153 0)
(1.78145 0.296974 0)
(1.78253 0.318236 0)
(1.78296 0.336803 0)
(1.78273 0.352585 0)
(1.78183 0.365533 0)
(1.78028 0.375671 0)
(1.77812 0.383078 0)
(1.77539 0.387864 0)
(1.77181 0.390048 0)
(1.76736 0.389488 0)
(1.76199 0.386507 0)
(1.75575 0.381431 0)
(1.74876 0.374661 0)
(1.74115 0.366657 0)
(1.73304 0.357859 0)
(1.72457 0.348672 0)
(1.71589 0.339471 0)
(1.70715 0.330528 0)
(1.69848 0.321961 0)
(1.68998 0.313805 0)
(1.68175 0.306011 0)
(1.67386 0.298459 0)
(1.6664 0.290953 0)
(1.65941 0.283246 0)
(1.65295 0.275085 0)
(1.64702 0.266198 0)
(1.64163 0.256308 0)
(1.63678 0.245156 0)
(1.63247 0.232505 0)
(1.62866 0.218169 0)
(1.62534 0.201987 0)
(1.62246 0.183913 0)
(1.62 0.163691 0)
(1.61788 0.142311 0)
(1.61607 0.115704 0)
(1.61457 0.0950691 0)
(1.61301 0.0501807 0)
(1.61004 0.120896 0)
(1.61642 0.16206 0)
(1.62284 0.201482 0)
(1.62917 0.238728 0)
(1.63529 0.273457 0)
(1.6411 0.305349 0)
(1.64652 0.334186 0)
(1.65147 0.359848 0)
(1.65591 0.382242 0)
(1.65978 0.40133 0)
(1.66308 0.417139 0)
(1.66578 0.429766 0)
(1.66789 0.439306 0)
(1.6694 0.445918 0)
(1.67033 0.44986 0)
(1.67072 0.451466 0)
(1.67025 0.451374 0)
(1.66866 0.448609 0)
(1.66613 0.443904 0)
(1.66285 0.437855 0)
(1.65885 0.430874 0)
(1.65419 0.423315 0)
(1.64894 0.415465 0)
(1.64318 0.407533 0)
(1.63701 0.39965 0)
(1.63053 0.391884 0)
(1.62383 0.384243 0)
(1.61701 0.376659 0)
(1.61016 0.368998 0)
(1.60334 0.361069 0)
(1.59667 0.352641 0)
(1.59021 0.343447 0)
(1.58407 0.333201 0)
(1.57832 0.321608 0)
(1.57306 0.308382 0)
(1.56835 0.293255 0)
(1.56428 0.27599 0)
(1.5609 0.256396 0)
(1.55829 0.23434 0)
(1.55648 0.209757 0)
(1.55551 0.182657 0)
(1.55541 0.153126 0)
(1.55619 0.121332 0)
(1.55784 0.0875166 0)
(1.56036 0.0519915 0)
(1.56371 0.0151394 0)
(1.56785 -0.0225971 0)
(1.57269 -0.0606747 0)
(1.57814 -0.0984708 0)
(1.58409 -0.135526 0)
(1.59044 -0.171431 0)
(1.59711 -0.205811 0)
(1.60398 -0.238288 0)
(1.61095 -0.268561 0)
(1.61793 -0.296383 0)
(1.62484 -0.321551 0)
(1.6316 -0.343892 0)
(1.63812 -0.363306 0)
(1.64436 -0.379771 0)
(1.65024 -0.393279 0)
(1.6557 -0.403901 0)
(1.66066 -0.411808 0)
(1.66504 -0.417248 0)
(1.66879 -0.420511 0)
(1.67199 -0.421824 0)
(1.67477 -0.420987 0)
(1.67681 -0.418064 0)
(1.67811 -0.413445 0)
(1.67875 -0.407546 0)
(1.6788 -0.400738 0)
(1.67836 -0.393337 0)
(1.67755 -0.385615 0)
(1.67652 -0.377751 0)
(1.67531 -0.369802 0)
(1.67403 -0.361803 0)
(1.67281 -0.353668 0)
(1.67175 -0.345252 0)
(1.67096 -0.336374 0)
(1.67052 -0.326818 0)
(1.6705 -0.316343 0)
(1.67094 -0.304698 0)
(1.6719 -0.291638 0)
(1.67337 -0.276935 0)
(1.67538 -0.260389 0)
(1.67791 -0.241843 0)
(1.68094 -0.221189 0)
(1.68445 -0.198373 0)
(1.68839 -0.173406 0)
(1.6927 -0.146355 0)
(1.69734 -0.117349 0)
(1.70223 -0.0865713 0)
(1.7073 -0.0542555 0)
(1.71251 -0.020683 0)
(1.71776 0.0138085 0)
(1.723 0.0487817 0)
(1.72811 0.0836782 0)
(1.73303 0.118076 0)
(1.7377 0.151605 0)
(1.74205 0.183916 0)
(1.74604 0.214674 0)
(1.74962 0.243587 0)
(1.75275 0.270389 0)
(1.75538 0.294852 0)
(1.75749 0.316783 0)
(1.75906 0.336034 0)
(1.76006 0.352511 0)
(1.76047 0.366152 0)
(1.76032 0.376955 0)
(1.75959 0.384996 0)
(1.75835 0.390406 0)
(1.7566 0.393383 0)
(1.75401 0.39392 0)
(1.75056 0.39195 0)
(1.74617 0.387798 0)
(1.74103 0.381806 0)
(1.73528 0.374438 0)
(1.72901 0.36614 0)
(1.72235 0.357306 0)
(1.71542 0.348283 0)
(1.70838 0.339364 0)
(1.70134 0.330697 0)
(1.69443 0.322327 0)
(1.68772 0.314218 0)
(1.68133 0.306257 0)
(1.67531 0.298261 0)
(1.66975 0.290014 0)
(1.66467 0.281284 0)
(1.6601 0.271807 0)
(1.65604 0.261323 0)
(1.6525 0.249584 0)
(1.64946 0.236367 0)
(1.6469 0.221493 0)
(1.64478 0.204815 0)
(1.64306 0.186293 0)
(1.6417 0.165678 0)
(1.64058 0.143981 0)
(1.63976 0.117073 0)
(1.63899 0.096284 0)
(1.63847 0.0513152 0)
(1.57096 0.113806 0)
(1.57746 0.154725 0)
(1.58423 0.194043 0)
(1.59115 0.231322 0)
(1.59809 0.266213 0)
(1.60494 0.298387 0)
(1.61158 0.327606 0)
(1.61793 0.353728 0)
(1.62392 0.376648 0)
(1.62948 0.396312 0)
(1.63456 0.412722 0)
(1.63914 0.425978 0)
(1.64315 0.436153 0)
(1.64659 0.443457 0)
(1.64936 0.448092 0)
(1.65137 0.450467 0)
(1.65273 0.451085 0)
(1.65335 0.449776 0)
(1.65298 0.446003 0)
(1.65174 0.44081 0)
(1.64974 0.434618 0)
(1.64703 0.427774 0)
(1.6437 0.420555 0)
(1.63985 0.413158 0)
(1.63556 0.4057 0)
(1.63093 0.398248 0)
(1.62606 0.390818 0)
(1.62103 0.383347 0)
(1.61594 0.375695 0)
(1.61089 0.367672 0)
(1.60597 0.359044 0)
(1.60129 0.349547 0)
(1.59693 0.338899 0)
(1.59297 0.326812 0)
(1.58948 0.313006 0)
(1.58655 0.297219 0)
(1.58423 0.279221 0)
(1.58257 0.258831 0)
(1.58162 0.235929 0)
(1.5814 0.210461 0)
(1.58195 0.182453 0)
(1.58325 0.152005 0)
(1.58531 0.119299 0)
(1.5881 0.0845918 0)
(1.59159 0.0482072 0)
(1.59575 0.0105405 0)
(1.60051 -0.0279374 0)
(1.60578 -0.0666339 0)
(1.61144 -0.10494 0)
(1.61741 -0.142396 0)
(1.62359 -0.178598 0)
(1.62988 -0.213161 0)
(1.63619 -0.245707 0)
(1.64242 -0.275948 0)
(1.64849 -0.303642 0)
(1.65432 -0.328595 0)
(1.65984 -0.350637 0)
(1.665 -0.369695 0)
(1.66977 -0.385754 0)
(1.67411 -0.398794 0)
(1.67798 -0.408874 0)
(1.68135 -0.416167 0)
(1.68415 -0.420912 0)
(1.68626 -0.423416 0)
(1.68782 -0.424037 0)
(1.68877 -0.422729 0)
(1.68887 -0.418891 0)
(1.68822 -0.413457 0)
(1.68691 -0.406855 0)
(1.68504 -0.399463 0)
(1.68273 -0.391607 0)
(1.68007 -0.383545 0)
(1.67717 -0.375441 0)
(1.67414 -0.367395 0)
(1.67108 -0.359405 0)
(1.66811 -0.351397 0)
(1.66531 -0.343229 0)
(1.66278 -0.3347 0)
(1.66061 -0.32558 0)
(1.65886 -0.315612 0)
(1.6576 -0.304528 0)
(1.65688 -0.292064 0)
(1.65671 -0.277976 0)
(1.65711 -0.26205 0)
(1.65808 -0.244113 0)
(1.65963 -0.224046 0)
(1.66172 -0.201784 0)
(1.66432 -0.177324 0)
(1.66741 -0.150727 0)
(1.67093 -0.122111 0)
(1.67483 -0.0916574 0)
(1.67907 -0.0595952 0)
(1.68357 -0.0262069 0)
(1.68829 0.0081697 0)
(1.69316 0.0431295 0)
(1.69808 0.0781133 0)
(1.70296 0.112665 0)
(1.70777 0.14642 0)
(1.71242 0.179018 0)
(1.71687 0.210125 0)
(1.72106 0.239437 0)
(1.72494 0.266694 0)
(1.72847 0.291654 0)
(1.7316 0.314108 0)
(1.7343 0.333927 0)
(1.73654 0.350997 0)
(1.73829 0.365236 0)
(1.73953 0.376652 0)
(1.74026 0.385336 0)
(1.74049 0.391385 0)
(1.74034 0.394879 0)
(1.73963 0.39619 0)
(1.73812 0.395432 0)
(1.73562 0.392108 0)
(1.7323 0.386861 0)
(1.72839 0.380135 0)
(1.72398 0.37236 0)
(1.71915 0.363923 0)
(1.71402 0.355159 0)
(1.70871 0.346333 0)
(1.70337 0.337631 0)
(1.69809 0.329102 0)
(1.69298 0.320723 0)
(1.68814 0.312388 0)
(1.68364 0.303938 0)
(1.67955 0.295194 0)
(1.67591 0.285923 0)
(1.67274 0.275885 0)
(1.67006 0.264835 0)
(1.66786 0.252539 0)
(1.66614 0.23879 0)
(1.66485 0.223422 0)
(1.66397 0.206297 0)
(1.66343 0.187388 0)
(1.66319 0.166454 0)
(1.66311 0.144521 0)
(1.66333 0.11742 0)
(1.66331 0.0965654 0)
(1.66389 0.0517063 0)
(1.68479 0.278371 0)
(1.68352 0.266791 0)
(1.68271 0.253978 0)
(1.68233 0.23974 0)
(1.68234 0.223925 0)
(1.68271 0.206408 0)
(1.68337 0.187174 0)
(1.68428 0.165995 0)
(1.68525 0.143908 0)
(1.68652 0.116711 0)
(1.68727 0.0958693 0)
(1.68901 0.0512952 0)
(0.122973 0.000491195 0)
(0.122964 5.87763e-05 0)
(0.123619 -0.000333064 0)
(0.124903 -0.000672052 0)
(0.126756 -0.000966603 0)
(0.129087 -0.00120768 0)
(0.13179 -0.00139422 0)
(0.134759 -0.00152866 0)
(0.137893 -0.00161642 0)
(0.141098 -0.00165949 0)
(0.144288 -0.00166086 0)
(0.147381 -0.00162396 0)
(0.150313 -0.00155159 0)
(0.15302 -0.00144699 0)
(0.155451 -0.00131254 0)
(0.157558 -0.00115019 0)
(0.159298 -0.000962989 0)
(0.160639 -0.000757604 0)
(0.161548 -0.000540429 0)
(0.161996 -0.000311055 0)
(0.162013 -3.19628e-05 0)
(0.16162 0.000237124 0)
(0.160832 0.000478448 0)
(0.159662 0.000698727 0)
(0.158145 0.000889532 0)
(0.156324 0.00104895 0)
(0.154249 0.00117512 0)
(0.151977 0.0012666 0)
(0.149571 0.00132335 0)
(0.147096 0.00134538 0)
(0.144617 0.00133275 0)
(0.142196 0.00128772 0)
(0.139889 0.00121427 0)
(0.137747 0.00111665 0)
(0.135811 0.000998901 0)
(0.134119 0.000864924 0)
(0.132699 0.000718135 0)
(0.131574 0.000561889 0)
(0.130762 0.000400749 0)
(0.130277 0.000238852 0)
(0.130115 6.59981e-05 0)
(0.130248 -0.000122622 0)
(0.130651 -0.000287766 0)
(0.131321 -0.000437488 0)
(0.132241 -0.000571683 0)
(0.133387 -0.000691856 0)
(0.13474 -0.00080322 0)
(0.136282 -0.000904858 0)
(0.137992 -0.000991683 0)
(0.139841 -0.00106281 0)
(0.141804 -0.00111956 0)
(0.143855 -0.0011629 0)
(0.145971 -0.00119336 0)
(0.148128 -0.00121069 0)
(0.150303 -0.00121461 0)
(0.152473 -0.00120491 0)
(0.154614 -0.00118145 0)
(0.156704 -0.00114451 0)
(0.158719 -0.00109462 0)
(0.160635 -0.00103308 0)
(0.162431 -0.000960713 0)
(0.164088 -0.00087965 0)
(0.165589 -0.000791719 0)
(0.166922 -0.000698412 0)
(0.168077 -0.000599251 0)
(0.169043 -0.000496556 0)
(0.16981 -0.000391628 0)
(0.170375 -0.000287146 0)
(0.170737 -0.000185848 0)
(0.1709 -8.34083e-05 0)
(0.170879 2.76457e-05 0)
(0.170684 0.000123411 0)
(0.170322 0.000208225 0)
(0.169807 0.000282 0)
(0.169162 0.000344156 0)
(0.16841 0.000395295 0)
(0.16757 0.000435362 0)
(0.166664 0.000464531 0)
(0.165712 0.000483272 0)
(0.164735 0.000492107 0)
(0.163752 0.000491835 0)
(0.162778 0.000483602 0)
(0.161829 0.000468488 0)
(0.160916 0.000447286 0)
(0.160051 0.000420934 0)
(0.159242 0.000390688 0)
(0.158494 0.000357723 0)
(0.15781 0.00032303 0)
(0.157193 0.000287313 0)
(0.156643 0.000251811 0)
(0.156159 0.000217583 0)
(0.155738 0.000184417 0)
(0.155377 0.000152934 0)
(0.155073 0.000124176 0)
(0.154823 9.79029e-05 0)
(0.154623 7.37862e-05 0)
(0.154469 5.17427e-05 0)
(0.154358 3.1831e-05 0)
(0.154287 1.47838e-05 0)
(0.154252 4.97944e-07 0)
(0.154251 -1.04029e-05 0)
(0.154279 -1.86397e-05 0)
(0.15433 -2.39854e-05 0)
(0.1544 -2.65248e-05 0)
(0.154483 -2.58998e-05 0)
(0.154575 -2.19365e-05 0)
(0.154669 -1.47946e-05 0)
(0.154762 -5.23304e-06 0)
(0.154849 6.16938e-06 0)
(0.154927 1.88807e-05 0)
(0.154994 3.24503e-05 0)
(0.15505 4.70635e-05 0)
(0.155098 6.11344e-05 0)
(0.15514 7.15811e-05 0)
(0.15518 7.73902e-05 0)
(0.155224 8.12039e-05 0)
(0.155276 8.24116e-05 0)
(0.155345 7.93462e-05 0)
(0.155438 6.91257e-05 0)
(0.155559 4.71493e-05 0)
(0.155722 2.07229e-05 0)
(0.155932 -5.05082e-06 0)
(0.156197 -3.28562e-05 0)
(0.156524 -6.32219e-05 0)
(0.156919 -9.74902e-05 0)
(0.157388 -0.000134657 0)
(0.157936 -0.000173737 0)
(0.158567 -0.000214265 0)
(0.159284 -0.000255945 0)
(0.16009 -0.000298534 0)
(0.160987 -0.000341277 0)
(0.16198 -0.000384089 0)
(0.16306 -0.000423284 0)
(0.164251 -0.000464399 0)
(0.165468 -0.000481829 0)
(0.166959 -0.000559686 0)
(0.168075 -0.00057052 0)
(0.170673 -0.000851261 0)
(0.400094 0.000146039 0)
(0.401299 -0.00109056 0)
(0.403323 -0.00223787 0)
(0.406044 -0.00324512 0)
(0.409345 -0.00408356 0)
(0.413111 -0.00473299 0)
(0.417207 -0.0051809 0)
(0.421491 -0.0054382 0)
(0.425835 -0.00553333 0)
(0.430112 -0.00547886 0)
(0.434226 -0.00529287 0)
(0.438075 -0.0049909 0)
(0.441581 -0.00458614 0)
(0.444668 -0.00409498 0)
(0.447283 -0.00353135 0)
(0.449385 -0.00290799 0)
(0.45094 -0.00224127 0)
(0.45194 -0.00154048 0)
(0.45238 -0.000811106 0)
(0.452257 -6.12805e-05 0)
(0.451552 0.000670942 0)
(0.450285 0.00137484 0)
(0.448529 0.0020235 0)
(0.446358 0.00260262 0)
(0.443832 0.0031015 0)
(0.441018 0.00351034 0)
(0.437992 0.00382057 0)
(0.434832 0.00402672 0)
(0.431622 0.00412936 0)
(0.428445 0.00413367 0)
(0.425371 0.00404136 0)
(0.422472 0.00385688 0)
(0.419813 0.00359017 0)
(0.417449 0.00325276 0)
(0.41542 0.00285556 0)
(0.413755 0.00241036 0)
(0.412471 0.00193024 0)
(0.411578 0.00142727 0)
(0.411078 0.000909195 0)
(0.410967 0.000375271 0)
(0.411242 -0.000146017 0)
(0.411896 -0.000648811 0)
(0.412902 -0.00111571 0)
(0.414205 -0.00154419 0)
(0.41577 -0.00193714 0)
(0.417563 -0.00229396 0)
(0.419557 -0.00261158 0)
(0.421735 -0.00288552 0)
(0.424069 -0.00311301 0)
(0.426514 -0.00329495 0)
(0.42903 -0.00343432 0)
(0.431583 -0.00353412 0)
(0.434143 -0.00359658 0)
(0.436676 -0.0036234 0)
(0.439159 -0.00361539 0)
(0.44156 -0.00357291 0)
(0.443854 -0.00349473 0)
(0.446012 -0.00338043 0)
(0.448011 -0.00323022 0)
(0.449829 -0.00304388 0)
(0.451445 -0.00282295 0)
(0.452846 -0.00257047 0)
(0.454021 -0.00229498 0)
(0.454967 -0.00200049 0)
(0.455685 -0.00169528 0)
(0.456169 -0.00137371 0)
(0.456423 -0.00104259 0)
(0.456445 -0.000702673 0)
(0.456247 -0.000365254 0)
(0.455855 -3.44417e-05 0)
(0.45527 0.000287164 0)
(0.45451 0.000590007 0)
(0.453603 0.00086693 0)
(0.452575 0.00110273 0)
(0.451452 0.00129766 0)
(0.450259 0.00145574 0)
(0.449021 0.00157688 0)
(0.44776 0.00166138 0)
(0.446501 0.00171094 0)
(0.445262 0.0017276 0)
(0.444061 0.00171428 0)
(0.442913 0.00167491 0)
(0.44183 0.00161343 0)
(0.440821 0.00153346 0)
(0.439893 0.001439 0)
(0.439048 0.00133441 0)
(0.438289 0.00122377 0)
(0.437615 0.00111028 0)
(0.437022 0.000996781 0)
(0.436507 0.000884871 0)
(0.436064 0.000776716 0)
(0.435687 0.000673336 0)
(0.43537 0.000575961 0)
(0.435105 0.000484831 0)
(0.434886 0.000400547 0)
(0.434707 0.000321987 0)
(0.434563 0.000247024 0)
(0.434451 0.00017569 0)
(0.43437 0.000109194 0)
(0.434316 4.72811e-05 0)
(0.434285 -9.90734e-06 0)
(0.434275 -6.00995e-05 0)
(0.434284 -0.000102803 0)
(0.434309 -0.000136523 0)
(0.434348 -0.000161873 0)
(0.434398 -0.000179572 0)
(0.434456 -0.000189486 0)
(0.434519 -0.000192677 0)
(0.434588 -0.000190886 0)
(0.434663 -0.000185778 0)
(0.434746 -0.000179351 0)
(0.434843 -0.000173891 0)
(0.434957 -0.000173369 0)
(0.435094 -0.000177646 0)
(0.43526 -0.000185056 0)
(0.43546 -0.000202875 0)
(0.435705 -0.000235936 0)
(0.436004 -0.000283394 0)
(0.436367 -0.000341458 0)
(0.436804 -0.000409908 0)
(0.437325 -0.000492331 0)
(0.437938 -0.000591049 0)
(0.438653 -0.000705006 0)
(0.439474 -0.000831319 0)
(0.440407 -0.000967496 0)
(0.441458 -0.00111185 0)
(0.442629 -0.00126333 0)
(0.443925 -0.00142104 0)
(0.445348 -0.001584 0)
(0.446899 -0.00175139 0)
(0.44858 -0.00192187 0)
(0.450393 -0.00209522 0)
(0.452326 -0.00226639 0)
(0.454428 -0.00244407 0)
(0.456519 -0.00259031 0)
(0.459159 -0.00281905 0)
(0.460933 -0.00294099 0)
(0.465052 -0.00346785 0)
(0.663084 -0.00116263 0)
(0.663535 -0.00336024 0)
(0.664807 -0.00535802 0)
(0.666846 -0.0071183 0)
(0.669578 -0.00859579 0)
(0.672913 -0.00975228 0)
(0.676725 -0.010567 0)
(0.680865 -0.0110396 0)
(0.685213 -0.0111834 0)
(0.689672 -0.0110165 0)
(0.694112 -0.0105804 0)
(0.698427 -0.00990201 0)
(0.702516 -0.00901414 0)
(0.706283 -0.00795432 0)
(0.709642 -0.00675857 0)
(0.712524 -0.00545316 0)
(0.71488 -0.0040596 0)
(0.716666 -0.00260426 0)
(0.717866 -0.00110545 0)
(0.718492 0.000419165 0)
(0.718542 0.00191473 0)
(0.717996 0.00330984 0)
(0.716868 0.00456465 0)
(0.715193 0.00567793 0)
(0.713028 0.00663915 0)
(0.710444 0.00742876 0)
(0.707527 0.00802385 0)
(0.704369 0.00840129 0)
(0.701064 0.00855124 0)
(0.697693 0.00848543 0)
(0.694345 0.00820386 0)
(0.691098 0.00772085 0)
(0.688028 0.0070652 0)
(0.685199 0.00626895 0)
(0.682664 0.0053666 0)
(0.680459 0.00439031 0)
(0.678606 0.00336528 0)
(0.677121 0.00230814 0)
(0.676012 0.00123219 0)
(0.675281 0.000156514 0)
(0.674915 -0.00088912 0)
(0.674906 -0.00187105 0)
(0.675252 -0.00276679 0)
(0.675928 -0.00355993 0)
(0.676911 -0.00426068 0)
(0.678176 -0.00484201 0)
(0.679697 -0.00539153 0)
(0.681444 -0.00591375 0)
(0.683392 -0.00632908 0)
(0.685519 -0.00662853 0)
(0.687797 -0.0068291 0)
(0.690199 -0.00694103 0)
(0.692702 -0.00696856 0)
(0.695277 -0.00691316 0)
(0.697898 -0.00677459 0)
(0.70053 -0.0065528 0)
(0.703134 -0.00624962 0)
(0.705674 -0.00586966 0)
(0.708115 -0.00542032 0)
(0.710415 -0.00491208 0)
(0.712532 -0.00435695 0)
(0.714432 -0.00376898 0)
(0.716084 -0.00316068 0)
(0.717476 -0.00256498 0)
(0.718581 -0.00194032 0)
(0.719394 -0.00131617 0)
(0.719911 -0.000699981 0)
(0.720134 -8.79326e-05 0)
(0.720051 0.000509935 0)
(0.719667 0.00105667 0)
(0.719008 0.00154505 0)
(0.718097 0.00197672 0)
(0.71696 0.00234784 0)
(0.71563 0.00265484 0)
(0.714149 0.00289425 0)
(0.712554 0.00306617 0)
(0.710873 0.003175 0)
(0.709141 0.00322441 0)
(0.70739 0.00321801 0)
(0.705657 0.00316175 0)
(0.703967 0.00306267 0)
(0.702343 0.00292806 0)
(0.700806 0.00276481 0)
(0.69937 0.00257841 0)
(0.698047 0.00237469 0)
(0.696843 0.00216062 0)
(0.695762 0.00194282 0)
(0.694804 0.00172638 0)
(0.693968 0.00151578 0)
(0.69325 0.00131537 0)
(0.692644 0.00112792 0)
(0.692146 0.000955223 0)
(0.691747 0.000798252 0)
(0.691438 0.000657345 0)
(0.691208 0.000531741 0)
(0.691046 0.000420715 0)
(0.690944 0.000321897 0)
(0.690896 0.00023236 0)
(0.690896 0.000150136 0)
(0.690936 7.58011e-05 0)
(0.691011 1.11975e-05 0)
(0.691113 -4.09024e-05 0)
(0.691235 -8.39753e-05 0)
(0.691371 -0.000119759 0)
(0.691513 -0.000145208 0)
(0.691654 -0.000159295 0)
(0.691788 -0.000164038 0)
(0.691911 -0.000162173 0)
(0.692019 -0.000158143 0)
(0.692111 -0.000154919 0)
(0.692186 -0.000158523 0)
(0.692246 -0.000173924 0)
(0.692298 -0.000196918 0)
(0.692345 -0.00023889 0)
(0.692396 -0.000303352 0)
(0.692465 -0.0003873 0)
(0.692563 -0.000491953 0)
(0.692701 -0.000623658 0)
(0.69289 -0.000785163 0)
(0.693143 -0.000975023 0)
(0.693472 -0.00118966 0)
(0.693889 -0.00142534 0)
(0.694402 -0.00168052 0)
(0.695021 -0.00194937 0)
(0.695756 -0.00223293 0)
(0.696612 -0.00253052 0)
(0.697598 -0.00283845 0)
(0.698717 -0.00315405 0)
(0.699974 -0.00347539 0)
(0.701373 -0.00380088 0)
(0.702914 -0.00412883 0)
(0.704606 -0.00445845 0)
(0.706433 -0.00478572 0)
(0.708453 -0.00511716 0)
(0.710472 -0.00542472 0)
(0.713098 -0.00581132 0)
(0.714824 -0.006069 0)
(0.718959 -0.00669624 0)
(0.915532 -2.50949e-05 0)
(0.913824 -0.00315538 0)
(0.912925 -0.00607347 0)
(0.9128 -0.00873343 0)
(0.913396 -0.0110682 0)
(0.914634 -0.0129907 0)
(0.916422 -0.0143616 0)
(0.918678 -0.0151681 0)
(0.921324 -0.0156322 0)
(0.924269 -0.0156566 0)
(0.927434 -0.0152966 0)
(0.930754 -0.0145803 0)
(0.93414 -0.0135291 0)
(0.937502 -0.0121719 0)
(0.94073 -0.0105579 0)
(0.943728 -0.00874432 0)
(0.9464 -0.00679419 0)
(0.948662 -0.00476851 0)
(0.950474 -0.00269729 0)
(0.951803 -0.000614524 0)
(0.952628 0.00144204 0)
(0.952934 0.00343824 0)
(0.952726 0.00532809 0)
(0.952012 0.00705139 0)
(0.950826 0.00854002 0)
(0.949221 0.00975193 0)
(0.947267 0.0106564 0)
(0.945059 0.0112477 0)
(0.942712 0.0115465 0)
(0.940288 0.0115665 0)
(0.937814 0.0113126 0)
(0.935338 0.0107991 0)
(0.932917 0.0100523 0)
(0.930602 0.00910854 0)
(0.928438 0.00801299 0)
(0.926465 0.00681157 0)
(0.92471 0.00553868 0)
(0.923195 0.0042169 0)
(0.921934 0.00286623 0)
(0.920928 0.00151294 0)
(0.920183 0.000191619 0)
(0.919706 -0.00106504 0)
(0.919481 -0.00224678 0)
(0.9195 -0.00335372 0)
(0.919763 -0.00438572 0)
(0.920259 -0.00533194 0)
(0.920963 -0.00618418 0)
(0.921827 -0.00693598 0)
(0.922821 -0.0075838 0)
(0.923941 -0.00812887 0)
(0.925182 -0.0085747 0)
(0.926536 -0.00892489 0)
(0.927992 -0.00918145 0)
(0.929545 -0.00934324 0)
(0.931188 -0.00940534 0)
(0.932916 -0.00936107 0)
(0.934718 -0.00920477 0)
(0.936579 -0.008936 0)
(0.938481 -0.00855322 0)
(0.9404 -0.00804591 0)
(0.942317 -0.00740802 0)
(0.944207 -0.00665388 0)
(0.946041 -0.00581367 0)
(0.947792 -0.00491017 0)
(0.949433 -0.00395736 0)
(0.950935 -0.00296582 0)
(0.952261 -0.00194674 0)
(0.953377 -0.000923492 0)
(0.954257 7.66281e-05 0)
(0.954878 0.00103823 0)
(0.955218 0.00195133 0)
(0.955254 0.00280755 0)
(0.954974 0.00358171 0)
(0.954379 0.00423808 0)
(0.953481 0.00473803 0)
(0.952303 0.00514906 0)
(0.950873 0.00544857 0)
(0.949217 0.00563255 0)
(0.947371 0.00570104 0)
(0.945377 0.0056614 0)
(0.943279 0.00552674 0)
(0.941121 0.00531166 0)
(0.938947 0.00503096 0)
(0.9368 0.00470033 0)
(0.934711 0.0043348 0)
(0.932704 0.00394864 0)
(0.930803 0.00355323 0)
(0.929023 0.00315693 0)
(0.927377 0.00276696 0)
(0.925876 0.00238991 0)
(0.924524 0.00203026 0)
(0.923325 0.00169163 0)
(0.922277 0.00137746 0)
(0.921377 0.00109541 0)
(0.920619 0.000850345 0)
(0.92 0.000632563 0)
(0.919517 0.000429115 0)
(0.919161 0.000242178 0)
(0.918924 7.92618e-05 0)
(0.918794 -6.28139e-05 0)
(0.918763 -0.000188584 0)
(0.918826 -0.000293987 0)
(0.918971 -0.000371704 0)
(0.919182 -0.000429287 0)
(0.919441 -0.000462165 0)
(0.91973 -0.000473202 0)
(0.920034 -0.000465625 0)
(0.920339 -0.00044369 0)
(0.920632 -0.000412597 0)
(0.920905 -0.000377357 0)
(0.921151 -0.000343614 0)
(0.921361 -0.000318309 0)
(0.92153 -0.00030964 0)
(0.921657 -0.000322048 0)
(0.921754 -0.000358848 0)
(0.921822 -0.000432147 0)
(0.921864 -0.000544161 0)
(0.921897 -0.000695792 0)
(0.921938 -0.000886059 0)
(0.922001 -0.00111438 0)
(0.922097 -0.00138053 0)
(0.922241 -0.00168359 0)
(0.922446 -0.0020217 0)
(0.922725 -0.00239183 0)
(0.923093 -0.0027903 0)
(0.92356 -0.00321299 0)
(0.924136 -0.00365586 0)
(0.924828 -0.0041155 0)
(0.925646 -0.00458908 0)
(0.926595 -0.00507434 0)
(0.927682 -0.00556903 0)
(0.928917 -0.00607179 0)
(0.930291 -0.00657861 0)
(0.931862 -0.00709545 0)
(0.933451 -0.00759066 0)
(0.935621 -0.00818729 0)
(0.937011 -0.00859411 0)
(0.940567 -0.00943235 0)
(1.13248 0.00402514 0)
(1.12899 -1.01122e-05 0)
(1.12606 -0.00383327 0)
(1.12374 -0.00732821 0)
(1.12202 -0.0103784 0)
(1.12089 -0.0129108 0)
(1.12032 -0.0149032 0)
(1.12031 -0.0164072 0)
(1.12082 -0.017434 0)
(1.12182 -0.0178638 0)
(1.12325 -0.0179062 0)
(1.12506 -0.0175031 0)
(1.12718 -0.0166909 0)
(1.12954 -0.0155 0)
(1.13207 -0.0139509 0)
(1.13472 -0.01207 0)
(1.13739 -0.00989408 0)
(1.13999 -0.00747363 0)