/*--------------------------------*- C++ -*----------------------------------*\
| =========                 |                                                 |
| \\      /  F ield         | OpenFOAM: The Open Source CFD Toolbox           |
|  \\    /   O peration     | Version:  2206                                  |
|   \\  /    A nd           | Website:  www.openfoam.com                      |
|    \\/     M anipulation  |                                                 |
\*---------------------------------------------------------------------------*/
FoamFile
{
    version     2.0;
    format      ascii;
    arch        "LSB;label=32;scalar=64";
    class       volVectorField;
    location    "19.7001";
    object      U_0;
}
// * * * * * * * * * * * * * * * * * * * * * * * * * * * * * * * * * * * * * //

dimensions      [0 1 -1 0 0 0 0];

internalField   nonuniform List<vector> 
1877
(
(1.94409 0.024135 0)
(1.94052 0.0111134 0)
(1.93837 -0.00203112 0)
(1.93764 -0.0148746 0)
(1.93832 -0.0269935 0)
(1.94032 -0.0379863 0)
(1.9435 -0.0474996 0)
(1.94765 -0.0552621 0)
(1.95252 -0.0611041 0)
(1.95796 -0.0649395 0)
(1.96386 -0.0667183 0)
(1.97006 -0.0664459 0)
(1.97642 -0.0641802 0)
(1.98281 -0.0599689 0)
(1.98902 -0.0539632 0)
(1.9949 -0.04639 0)
(2.00033 -0.0374981 0)
(2.0052 -0.0275469 0)
(2.00939 -0.0168365 0)
(2.01271 -0.00582062 0)
(2.01504 0.00508255 0)
(2.01633 0.015511 0)
(2.01656 0.025129 0)
(2.01578 0.0336411 0)
(2.01406 0.0408084 0)
(2.01155 0.0464709 0)
(2.00834 0.0505491 0)
(2.00445 0.0529845 0)
(2 0.0537229 0)
(1.99512 0.052847 0)
(1.98994 0.0504387 0)
(1.98463 0.0465759 0)
(1.97942 0.0414108 0)
(1.97448 0.0351267 0)
(1.96998 0.0279078 0)
(1.96604 0.0199529 0)
(1.96282 0.0115158 0)
(1.96044 0.00292717 0)
(1.95897 -0.00553274 0)
(1.9584 -0.0135859 0)
(1.95871 -0.0209719 0)
(1.95985 -0.0274606 0)
(1.96169 -0.0328696 0)
(1.9641 -0.0370809 0)
(1.96694 -0.0400401 0)
(1.97017 -0.0417193 0)
(1.9737 -0.0421038 0)
(1.97743 -0.0412416 0)
(1.9813 -0.0391643 0)
(1.98519 -0.0359316 0)
(1.98898 -0.0316673 0)
(1.99257 -0.026521 0)
(1.99591 -0.0206458 0)
(1.99891 -0.0142026 0)
(2.00148 -0.00740956 0)
(2.0035 -0.000556361 0)
(2.00493 0.00612871 0)
(2.00574 0.0124257 0)
(2.00592 0.0181333 0)
(2.0055 0.0230766 0)
(2.00455 0.0271221 0)
(2.00318 0.0301966 0)
(2.00143 0.0322831 0)
(1.9993 0.0333567 0)
(1.99684 0.03339 0)
(1.99412 0.0324374 0)
(1.9912 0.0305316 0)
(1.98819 0.0277401 0)
(1.98522 0.0241718 0)
(1.98238 0.0199416 0)
(1.97976 0.0151685 0)
(1.97746 0.00999218 0)
(1.97557 0.00461391 0)
(1.97419 -0.00076185 0)
(1.97334 -0.00595443 0)
(1.97303 -0.0107912 0)
(1.97323 -0.0151164 0)
(1.97391 -0.0188007 0)
(1.97498 -0.0217545 0)
(1.97635 -0.0239365 0)
(1.97798 -0.0253397 0)
(1.97984 -0.0259488 0)
(1.98188 -0.0257698 0)
(1.98406 -0.0248397 0)
(1.98632 -0.0231813 0)
(1.98858 -0.0208562 0)
(1.99078 -0.0179536 0)
(1.99287 -0.0145667 0)
(1.99481 -0.0107882 0)
(1.99654 -0.00672528 0)
(1.998 -0.00254114 0)
(1.99913 0.00160811 0)
(1.99991 0.00558647 0)
(2.00032 0.00926473 0)
(2.00036 0.012526 0)
(2.00008 0.0152719 0)
(1.99951 0.0174358 0)
(1.99874 0.0189963 0)
(1.99777 0.0199657 0)
(1.99658 0.0203276 0)
(1.99523 0.0200716 0)
(1.99374 0.019227 0)
(1.99214 0.0178172 0)
(1.99051 0.0158967 0)
(1.9889 0.0135352 0)
(1.98736 0.0108021 0)
(1.98594 0.00777214 0)
(1.98471 0.00454002 0)
(1.98373 0.0012413 0)
(1.98303 -0.00200571 0)
(1.98265 -0.00509208 0)
(1.98257 -0.00791594 0)
(1.98279 -0.0103886 0)
(1.98326 -0.0124427 0)
(1.98395 -0.0140406 0)
(1.9848 -0.0151751 0)
(1.9858 -0.0158467 0)
(1.98696 -0.0160444 0)
(1.98822 -0.0157833 0)
(1.98958 -0.0150902 0)
(1.99101 -0.0139737 0)
(1.99243 -0.0125563 0)
(1.99397 -0.0105842 0)
(1.99519 -0.00896609 0)
(1.99715 -0.00535371 0)
(2.05043 0.0282976 0)
(2.04738 0.0140432 0)
(2.04542 -0.000453578 0)
(2.04464 -0.0146637 0)
(2.04508 -0.0281186 0)
(2.04669 -0.040345 0)
(2.04934 -0.0509074 0)
(2.05282 -0.0594718 0)
(2.05683 -0.065862 0)
(2.0611 -0.0700712 0)
(2.06558 -0.0721555 0)
(2.07028 -0.0721091 0)
(2.07509 -0.0699552 0)
(2.07995 -0.0656738 0)
(2.08466 -0.0594319 0)
(2.08909 -0.0514968 0)
(2.09316 -0.04214 0)
(2.09679 -0.0316369 0)
(2.09992 -0.0202746 0)
(2.10245 -0.0084228 0)
(2.10423 0.00339772 0)
(2.10522 0.0147766 0)
(2.10539 0.0253352 0)
(2.10476 0.0347297 0)
(2.10339 0.0426743 0)
(2.10142 0.0489723 0)
(2.09904 0.0535422 0)
(2.09636 0.0564179 0)
(2.09333 0.0576213 0)
(2.08998 0.0571266 0)
(2.08636 0.0549833 0)
(2.08256 0.0511972 0)
(2.07879 0.0459234 0)
(2.07518 0.0393788 0)
(2.07183 0.0317762 0)
(2.06883 0.0233316 0)
(2.06628 0.0142696 0)
(2.06428 0.00489784 0)
(2.06294 -0.00439067 0)
(2.06231 -0.013289 0)
(2.0624 -0.0214944 0)
(2.06319 -0.0287248 0)
(2.06459 -0.034747 0)
(2.06646 -0.0394141 0)
(2.06862 -0.0426899 0)
(2.07093 -0.0446286 0)
(2.07346 -0.0452557 0)
(2.07614 -0.0445784 0)
(2.07895 -0.0425914 0)
(2.0818 -0.0393271 0)
(2.08456 -0.0349293 0)
(2.08715 -0.0295694 0)
(2.08954 -0.0234163 0)
(2.09167 -0.0166422 0)
(2.0935 -0.00943449 0)
(2.09494 -0.00206753 0)
(2.09595 0.00516423 0)
(2.09648 0.0120217 0)
(2.09654 0.0182741 0)
(2.09614 0.0237136 0)
(2.09535 0.0281762 0)
(2.09424 0.0315672 0)
(2.09296 0.0338793 0)
(2.09156 0.0351813 0)
(2.08994 0.035479 0)
(2.08817 0.0347512 0)
(2.08624 0.0329883 0)
(2.08424 0.0302352 0)
(2.08225 0.0266122 0)
(2.08035 0.022252 0)
(2.07857 0.0172883 0)
(2.07698 0.0118572 0)
(2.07561 0.0061103 0)
(2.07456 0.000291171 0)
(2.07388 -0.00537502 0)
(2.07359 -0.0106935 0)
(2.07371 -0.0154776 0)
(2.0742 -0.0195642 0)
(2.07501 -0.0228359 0)
(2.07605 -0.0252418 0)
(2.07722 -0.0268059 0)
(2.07849 -0.0275798 0)
(2.07989 -0.027554 0)
(2.0814 -0.0267399 0)
(2.08298 -0.0251257 0)
(2.08457 -0.0227725 0)
(2.08609 -0.0197841 0)
(2.08752 -0.0162642 0)
(2.08882 -0.0123174 0)
(2.08997 -0.0080507 0)
(2.09092 -0.00359429 0)
(2.09164 0.000862438 0)
(2.09209 0.00516333 0)
(2.09228 0.00916415 0)
(2.09219 0.012728 0)
(2.09185 0.0157365 0)
(2.0913 0.0181086 0)
(2.09062 0.0198154 0)
(2.08987 0.0208865 0)
(2.08905 0.0213712 0)
(2.08813 0.0212465 0)
(2.08713 0.0205058 0)
(2.08606 0.0191455 0)
(2.08499 0.0172194 0)
(2.08395 0.0148074 0)
(2.08298 0.0119881 0)
(2.08208 0.00884184 0)
(2.0813 0.00545117 0)
(2.08066 0.00192493 0)
(2.08021 -0.00157944 0)
(2.07997 -0.00493729 0)
(2.07996 -0.00803033 0)
(2.08016 -0.0107503 0)
(2.08057 -0.0130124 0)
(2.08113 -0.0147687 0)
(2.0818 -0.0160152 0)
(2.08254 -0.0167816 0)
(2.08336 -0.0170855 0)
(2.08426 -0.016921 0)
(2.08523 -0.0163024 0)
(2.08626 -0.0152207 0)
(2.08727 -0.0138106 0)
(2.08835 -0.0118178 0)
(2.08921 -0.0101803 0)
(2.09058 -0.00648051 0)
(2.13512 0.0313326 0)
(2.13294 0.0162868 0)
(2.13164 0.000806535 0)
(2.13129 -0.014477 0)
(2.13188 -0.0290299 0)
(2.13333 -0.0422885 0)
(2.13551 -0.053714 0)
(2.13824 -0.0628826 0)
(2.14127 -0.0695812 0)
(2.14427 -0.0738724 0)
(2.14709 -0.0760491 0)
(2.15 -0.0761789 0)
(2.15304 -0.0740863 0)
(2.15624 -0.069728 0)
(2.15936 -0.0632921 0)
(2.1623 -0.0550714 0)
(2.16501 -0.045363 0)
(2.16746 -0.0344596 0)
(2.16959 -0.0226432 0)
(2.17136 -0.0102365 0)
(2.17267 0.00223762 0)
(2.17344 0.0143087 0)
(2.17364 0.0255742 0)
(2.17323 0.0356451 0)
(2.17225 0.0441759 0)
(2.17079 0.050914 0)
(2.16901 0.0557527 0)
(2.16716 0.0587717 0)
(2.1653 0.0601944 0)
(2.16325 0.0599818 0)
(2.16093 0.0580118 0)
(2.15839 0.0542756 0)
(2.15585 0.0489369 0)
(2.15343 0.0422273 0)
(2.15117 0.0343792 0)
(2.14915 0.0256266 0)
(2.14741 0.0161988 0)
(2.14603 0.00635953 0)
(2.14511 -0.00349123 0)
(2.1447 -0.0130005 0)
(2.14481 -0.0218357 0)
(2.14542 -0.0296618 0)
(2.14647 -0.0361795 0)
(2.14786 -0.0411838 0)
(2.14941 -0.0446219 0)
(2.15089 -0.0466279 0)
(2.15234 -0.0474077 0)
(2.15391 -0.0468747 0)
(2.15565 -0.0449422 0)
(2.15747 -0.0416471 0)
(2.15923 -0.0371436 0)
(2.16088 -0.0316214 0)
(2.1624 -0.0252682 0)
(2.16377 -0.0182653 0)
(2.16494 -0.0107906 0)
(2.1659 -0.00308113 0)
(2.16657 0.00452958 0)
(2.16693 0.011786 0)
(2.16696 0.0184396 0)
(2.16664 0.0242537 0)
(2.16601 0.0290254 0)
(2.16514 0.0326249 0)
(2.16417 0.0350369 0)
(2.16324 0.0363841 0)
(2.1623 0.0368189 0)
(2.16123 0.0362253 0)
(2.16 0.0345343 0)
(2.1587 0.0317977 0)
(2.15744 0.0281389 0)
(2.15625 0.0236976 0)
(2.15514 0.0186165 0)
(2.15415 0.0130381 0)
(2.1533 0.00710966 0)
(2.15265 0.00103352 0)
(2.15223 -0.00492775 0)
(2.15208 -0.010573 0)
(2.15221 -0.0156954 0)
(2.15261 -0.0200973 0)
(2.15325 -0.0236204 0)
(2.15404 -0.0261832 0)
(2.15487 -0.0278131 0)
(2.15562 -0.0286466 0)
(2.15644 -0.0287427 0)
(2.15733 -0.0280005 0)
(2.15834 -0.0264072 0)
(2.15934 -0.0240294 0)
(2.16029 -0.0209758 0)
(2.16117 -0.0173615 0)
(2.16196 -0.0133001 0)
(2.16265 -0.00889963 0)
(2.16322 -0.00427656 0)
(2.16364 0.0003859 0)
(2.16389 0.00490798 0)
(2.16396 0.00913849 0)
(2.16383 0.0129273 0)
(2.16351 0.0161363 0)
(2.16303 0.0186604 0)
(2.16244 0.0204541 0)
(2.16185 0.021554 0)
(2.1613 0.0220733 0)
(2.16071 0.0220233 0)
(2.16004 0.0213264 0)
(2.1593 0.0199796 0)
(2.15858 0.0180403 0)
(2.1579 0.0155898 0)
(2.15727 0.0127119 0)
(2.15671 0.00949181 0)
(2.15623 0.00601345 0)
(2.15584 0.00237314 0)
(2.15558 -0.0012769 0)
(2.15546 -0.00479991 0)
(2.15549 -0.00807306 0)
(2.15569 -0.0109748 0)
(2.15604 -0.0133995 0)
(2.15651 -0.0152781 0)
(2.15705 -0.016598 0)
(2.15758 -0.0174062 0)
(2.1581 -0.0177751 0)
(2.15868 -0.0176872 0)
(2.15933 -0.0171175 0)
(2.16003 -0.0160607 0)
(2.16072 -0.0146585 0)
(2.16144 -0.012659 0)
(2.16202 -0.0110189 0)
(2.16292 -0.00728393 0)
(2.19805 0.033512 0)
(2.19685 0.0175886 0)
(2.19624 0.00117812 0)
(2.19616 -0.0149585 0)
(2.19651 -0.0302391 0)
(2.19718 -0.0440912 0)
(2.19812 -0.0559609 0)
(2.19929 -0.0653787 0)
(2.2006 -0.0720771 0)
(2.20186 -0.0761184 0)
(2.20295 -0.0779071 0)
(2.20405 -0.0781124 0)
(2.20533 -0.0765311 0)
(2.2069 -0.07217 0)
(2.20851 -0.0656856 0)
(2.21008 -0.0573556 0)
(2.21158 -0.0474843 0)
(2.21297 -0.0363777 0)
(2.21421 -0.0243227 0)
(2.21528 -0.0116287 0)
(2.21616 0.00123329 0)
(2.21677 0.0137538 0)
(2.21709 0.0255265 0)
(2.21708 0.0361343 0)
(2.2167 0.0451707 0)
(2.21601 0.0522912 0)
(2.21511 0.0573047 0)
(2.21423 0.0602735 0)
(2.21346 0.061522 0)
(2.21264 0.0615928 0)
(2.21161 0.0600836 0)
(2.21035 0.0563871 0)
(2.20906 0.0510227 0)
(2.20782 0.0442112 0)
(2.20664 0.0361924 0)
(2.20557 0.0272048 0)
(2.20464 0.0174706 0)
(2.2039 0.00724335 0)
(2.20339 -0.00304849 0)
(2.20311 -0.0129941 0)
(2.20304 -0.0222475 0)
(2.20317 -0.0304543 0)
(2.20349 -0.0372734 0)
(2.20397 -0.0424376 0)
(2.20454 -0.0458442 0)
(2.20505 -0.0476411 0)
(2.2055 -0.0482054 0)
(2.20599 -0.0480566 0)
(2.20667 -0.0462857 0)
(2.20749 -0.0429837 0)
(2.20832 -0.0384416 0)
(2.20914 -0.0328419 0)
(2.20992 -0.026381 0)
(2.21065 -0.0192485 0)
(2.2113 -0.011625 0)
(2.21186 -0.00372874 0)
(2.21229 0.00411337 0)
(2.21257 0.0116369 0)
(2.21268 0.0185867 0)
(2.21259 0.024699 0)
(2.21231 0.0297249 0)
(2.21188 0.0334774 0)
(2.2114 0.0358933 0)
(2.21098 0.0371166 0)
(2.2106 0.0374486 0)
(2.21018 0.0372033 0)
(2.20963 0.0355946 0)
(2.20902 0.0328441 0)
(2.20843 0.0291385 0)
(2.20788 0.0246186 0)
(2.20735 0.0194337 0)
(2.20688 0.0137255 0)
(2.20648 0.00763362 0)
(2.20618 0.00135431 0)
(2.20598 -0.00482928 0)
(2.2059 -0.0107046 0)
(2.20593 -0.0160571 0)
(2.20606 -0.0206661 0)
(2.2063 -0.0243333 0)
(2.20661 -0.0269346 0)
(2.20693 -0.0284826 0)
(2.20719 -0.0291562 0)
(2.20744 -0.029254 0)
(2.20773 -0.0287762 0)
(2.20813 -0.0271774 0)
(2.20855 -0.0247675 0)
(2.20897 -0.0216605 0)
(2.20936 -0.0179731 0)
(2.20973 -0.0138253 0)
(2.21006 -0.00932957 0)
(2.21034 -0.00460082 0)
(2.21057 0.000191514 0)
(2.21071 0.00486005 0)
(2.21076 0.00925484 0)
(2.21071 0.0132163 0)
(2.21055 0.0165849 0)
(2.21029 0.0192231 0)
(2.20997 0.021055 0)
(2.20966 0.0221084 0)
(2.20939 0.0225209 0)
(2.20912 0.0225418 0)
(2.20881 0.0220061 0)
(2.20844 0.020639 0)
(2.20807 0.0186616 0)
(2.20774 0.0161547 0)
(2.20743 0.0132057 0)
(2.20715 0.00990183 0)
(2.20692 0.00632435 0)
(2.20674 0.00256554 0)
(2.20664 -0.00122247 0)
(2.20661 -0.00489056 0)
(2.20666 -0.00831275 0)
(2.20678 -0.0113555 0)
(2.20697 -0.0138909 0)
(2.20722 -0.0158283 0)
(2.20749 -0.017146 0)
(2.20774 -0.0178982 0)
(2.20797 -0.0181835 0)
(2.20821 -0.0181914 0)
(2.20849 -0.0177247 0)
(2.20882 -0.0166508 0)
(2.20915 -0.015228 0)
(2.20949 -0.0131953 0)
(2.20977 -0.0115336 0)
(2.21024 -0.00775872 0)
(2.23206 0.0344689 0)
(2.23173 0.018373 0)
(2.23131 0.00180554 0)
(2.23079 -0.0144374 0)
(2.23021 -0.0297914 0)
(2.22962 -0.0437231 0)
(2.2291 -0.0557109 0)
(2.22869 -0.0652841 0)
(2.22844 -0.0721395 0)
(2.22835 -0.0762805 0)
(2.22835 -0.0780896 0)
(2.2284 -0.078387 0)
(2.22859 -0.0770989 0)
(2.22898 -0.0728276 0)
(2.22946 -0.0664129 0)
(2.23 -0.0581157 0)
(2.23057 -0.0482335 0)
(2.23114 -0.0370858 0)
(2.23168 -0.0249787 0)
(2.23216 -0.0122301 0)
(2.23252 0.000709319 0)
(2.23275 0.013325 0)
(2.23286 0.025226 0)
(2.23287 0.0359975 0)
(2.2328 0.0452075 0)
(2.23266 0.0524681 0)
(2.2325 0.0575418 0)
(2.23235 0.060469 0)
(2.23227 0.0616299 0)
(2.23225 0.0617596 0)
(2.23221 0.0604503 0)
(2.23213 0.0568026 0)
(2.23204 0.0514873 0)
(2.23195 0.0447098 0)
(2.23184 0.0367108 0)
(2.23169 0.0277316 0)
(2.2315 0.0179971 0)
(2.23124 0.00776407 0)
(2.23089 -0.00253552 0)
(2.23047 -0.0124877 0)
(2.23001 -0.0217597 0)
(2.22955 -0.0300097 0)
(2.22914 -0.036907 0)
(2.2288 -0.0421805 0)
(2.22857 -0.0457038 0)
(2.22844 -0.0475828 0)
(2.22836 -0.0481919 0)
(2.22834 -0.0481066 0)
(2.22842 -0.0464969 0)
(2.22863 -0.0432774 0)
(2.2289 -0.0388078 0)
(2.22923 -0.0332572 0)
(2.22959 -0.0268211 0)
(2.22997 -0.0196927 0)
(2.23033 -0.0120577 0)
(2.23064 -0.00413235 0)
(2.23088 0.00375808 0)
(2.23105 0.0113391 0)
(2.23116 0.0183631 0)
(2.23121 0.0245669 0)
(2.23122 0.0296852 0)
(2.23119 0.0335011 0)
(2.23114 0.0359423 0)
(2.2311 0.037148 0)
(2.2311 0.0374776 0)
(2.2311 0.0372828 0)
(2.23108 0.0357127 0)
(2.23105 0.0329963 0)
(2.23103 0.0293222 0)
(2.231 0.0248296 0)
(2.23095 0.0196706 0)
(2.23088 0.0139862 0)
(2.23076 0.00791356 0)
(2.2306 0.00164492 0)
(2.23037 -0.00453278 0)
(2.23012 -0.0104055 0)
(2.22984 -0.0157649 0)
(2.22957 -0.0203975 0)
(2.22933 -0.0241084 0)
(2.22912 -0.0267709 0)
(2.22898 -0.028383 0)
(2.22888 -0.0290974 0)
(2.22881 -0.0292152 0)
(2.22878 -0.0287712 0)
(2.22882 -0.027233 0)
(2.22893 -0.0248803 0)
(2.22908 -0.0218211 0)
(2.22927 -0.0181693 0)
(2.22949 -0.0140455 0)
(2.22972 -0.00956375 0)
(2.22995 -0.00483863 0)
(2.23015 -3.32375e-05 0)
(2.2303 0.00465702 0)
(2.23042 0.00908314 0)
(2.2305 0.0130877 0)
(2.23055 0.0165083 0)
(2.23057 0.0191966 0)
(2.23057 0.0210611 0)
(2.23055 0.0221225 0)
(2.23054 0.0225336 0)
(2.23054 0.022567 0)
(2.23053 0.0220548 0)
(2.23052 0.0207105 0)
(2.2305 0.0187548 0)
(2.23049 0.0162663 0)
(2.23047 0.0133339 0)
(2.23044 0.010045 0)
(2.23039 0.00647999 0)
(2.23033 0.00272825 0)
(2.23023 -0.00106109 0)
(2.2301 -0.00473342 0)
(2.22996 -0.00816351 0)
(2.22982 -0.0112202 0)
(2.22968 -0.0137784 0)
(2.22955 -0.0157475 0)
(2.22946 -0.0170992 0)
(2.22939 -0.0178736 0)
(2.22934 -0.0181722 0)
(2.22931 -0.0181953 0)
(2.22932 -0.0177707 0)
(2.22937 -0.0167311 0)
(2.22945 -0.0153438 0)
(2.22958 -0.0133468 0)
(2.22972 -0.0117084 0)
(2.2299 -0.0079636 0)
(2.23014 -0.0118149 0)
(2.23007 -0.00805343 0)
(0.14417 0.000370288 0)
(0.143735 0.000106626 0)
(0.143837 -0.000191297 0)
(0.144459 -0.000455785 0)
(0.145596 -0.000692469 0)
(0.147203 -0.000897608 0)
(0.149213 -0.001067 0)
(0.151551 -0.0011969 0)
(0.154129 -0.00128459 0)
(0.156857 -0.00132897 0)
(0.159641 -0.00132977 0)
(0.162387 -0.00128829 0)
(0.165008 -0.00120773 0)
(0.167423 -0.00109223 0)
(0.169562 -0.000946473 0)
(0.171365 -0.000776618 0)
(0.172787 -0.00058898 0)
(0.173792 -0.000389859 0)
(0.174355 -0.00018471 0)
(0.174495 3.67328e-05 0)
(0.174225 0.000248613 0)
(0.173559 0.00043642 0)
(0.172524 0.000601795 0)
(0.171163 0.000742191 0)
(0.169527 0.000855884 0)
(0.167671 0.000941525 0)
(0.165657 0.000998154 0)
(0.163547 0.00102532 0)
(0.161404 0.00102263 0)
(0.159293 0.000990299 0)
(0.157276 0.000929514 0)
(0.155412 0.00084217 0)
(0.153753 0.000731152 0)
(0.152347 0.000600675 0)
(0.151233 0.000454663 0)
(0.150444 0.000297676 0)
(0.150005 0.000133017 0)
(0.149909 -4.88436e-05 0)
(0.150148 -0.0002217 0)
(0.150715 -0.000375393 0)
(0.151586 -0.000510126 0)
(0.152725 -0.000623368 0)
(0.154085 -0.000712993 0)
(0.155615 -0.00077727 0)
(0.157259 -0.000815175 0)
(0.15896 -0.000826281 0)
(0.160659 -0.000810837 0)
(0.162301 -0.000770333 0)
(0.163835 -0.000707114 0)
(0.165214 -0.000623922 0)
(0.166398 -0.000523988 0)
(0.167356 -0.000411221 0)
(0.168062 -0.000289703 0)
(0.168497 -0.000162941 0)
(0.168661 -2.67321e-05 0)
(0.168564 0.000113053 0)
(0.168216 0.000236203 0)
(0.167627 0.000345717 0)
(0.166824 0.000439779 0)
(0.165835 0.00051704 0)
(0.164697 0.000576497 0)
(0.163448 0.000617517 0)
(0.162126 0.000639756 0)
(0.160773 0.000642964 0)
(0.159429 0.000627318 0)
(0.158135 0.000593721 0)
(0.156927 0.00054342 0)
(0.155839 0.000478202 0)
(0.154901 0.000400247 0)
(0.15414 0.000311889 0)
(0.153576 0.000215577 0)
(0.153225 0.000113926 0)
(0.153089 5.97463e-06 0)
(0.153162 -0.000105535 0)
(0.153436 -0.00020418 0)
(0.153904 -0.000291005 0)
(0.154543 -0.000364901 0)
(0.155327 -0.000424586 0)
(0.156226 -0.000469028 0)
(0.157207 -0.000497546 0)
(0.158234 -0.00050986 0)
(0.159272 -0.000505933 0)
(0.160287 -0.000486285 0)
(0.161246 -0.000452193 0)
(0.16212 -0.000405239 0)
(0.162882 -0.000347225 0)
(0.163512 -0.000280231 0)
(0.163991 -0.000206701 0)
(0.164307 -0.000129386 0)
(0.164451 -4.9397e-05 0)
(0.164433 4.07697e-05 0)
(0.164259 0.000120236 0)
(0.163931 0.000191526 0)
(0.163463 0.000253455 0)
(0.162874 0.000305214 0)
(0.162183 0.000346008 0)
(0.161416 0.00037531 0)
(0.160595 0.000392871 0)
(0.159747 0.000398559 0)
(0.158897 0.000392392 0)
(0.15807 0.000374828 0)
(0.15729 0.000346723 0)
(0.156579 0.000309098 0)
(0.155955 0.000263253 0)
(0.155436 0.000210704 0)
(0.155034 0.000153123 0)
(0.154761 9.21441e-05 0)
(0.154623 2.84069e-05 0)
(0.154615 -4.15472e-05 0)
(0.154731 -0.000105109 0)
(0.154969 -0.000161416 0)
(0.155318 -0.000210271 0)
(0.155763 -0.000250755 0)
(0.156286 -0.000282082 0)
(0.156866 -0.0003037 0)
(0.157484 -0.000315305 0)
(0.158118 -0.000316597 0)
(0.158744 -0.000307424 0)
(0.159342 -0.000288016 0)
(0.15989 -0.000258629 0)
(0.160366 -0.000219544 0)
(0.160754 -0.000172423 0)
(0.161027 -0.000111515 0)
(0.161194 -6.1832e-05 0)
(0.16108 4.79785e-05 0)
(0.437603 0.000970855 0)
(0.437417 0.00011367 0)
(0.437839 -0.000753246 0)
(0.438848 -0.00156976 0)
(0.440378 -0.00231161 0)
(0.442374 -0.00295839 0)
(0.444763 -0.00349151 0)
(0.447457 -0.00389616 0)
(0.450361 -0.00416258 0)
(0.453374 -0.00428664 0)
(0.456391 -0.00426794 0)
(0.459312 -0.00411126 0)
(0.462047 -0.00382763 0)
(0.464512 -0.00343226 0)
(0.466636 -0.002943 0)
(0.468365 -0.00237926 0)
(0.469656 -0.00176239 0)
(0.470485 -0.00111287 0)
(0.470847 -0.000440778 0)
(0.470729 0.000241188 0)
(0.470146 0.00088424 0)
(0.469144 0.00147164 0)
(0.467773 0.00199193 0)
(0.466082 0.00243492 0)
(0.464129 0.00279218 0)
(0.461978 0.00305779 0)
(0.459696 0.00322824 0)
(0.457351 0.00330193 0)
(0.455013 0.00327838 0)
(0.452748 0.00315959 0)
(0.450619 0.00295066 0)
(0.448685 0.00265885 0)
(0.447001 0.00229379 0)
(0.445612 0.00186569 0)
(0.444554 0.0013879 0)
(0.443852 0.000874978 0)
(0.443515 0.000337747 0)
(0.443562 -0.000214721 0)
(0.443988 -0.000740961 0)
(0.444757 -0.00122409 0)
(0.445831 -0.00165111 0)
(0.447167 -0.00201027 0)
(0.448714 -0.00229198 0)
(0.450413 -0.00248952 0)
(0.452204 -0.00259949 0)
(0.454022 -0.00262131 0)
(0.455804 -0.00255677 0)
(0.457495 -0.00241103 0)
(0.459039 -0.00219238 0)
(0.46039 -0.00191116 0)
(0.46151 -0.00157871 0)
(0.462369 -0.00120718 0)
(0.462948 -0.000808969 0)
(0.463238 -0.000392918 0)
(0.463231 3.4939e-05 0)
(0.462924 0.000448446 0)
(0.462345 0.000831052 0)
(0.461525 0.00117366 0)
(0.460491 0.00146955 0)
(0.459281 0.00171276 0)
(0.457932 0.00189854 0)
(0.456488 0.00202386 0)
(0.454992 0.00208748 0)
(0.453489 0.0020891 0)
(0.45202 0.00202985 0)
(0.450628 0.00191294 0)
(0.449349 0.00174301 0)
(0.448218 0.001526 0)
(0.447263 0.00126912 0)
(0.446509 0.000980669 0)
(0.445972 0.00066931 0)
(0.445662 0.000342215 0)
(0.445583 1.65062e-06 0)
(0.445741 -0.000330406 0)
(0.446117 -0.000636477 0)
(0.446687 -0.000909945 0)
(0.447425 -0.00114389 0)
(0.448301 -0.00133228 0)
(0.449282 -0.00147069 0)
(0.450329 -0.00155633 0)
(0.451406 -0.00158817 0)
(0.452472 -0.00156668 0)
(0.453493 -0.00149429 0)
(0.454435 -0.00137541 0)
(0.455268 -0.00121566 0)
(0.455966 -0.00102158 0)
(0.456509 -0.000800359 0)
(0.456882 -0.000559666 0)
(0.457077 -0.000305576 0)
(0.457092 -4.208e-05 0)
(0.456919 0.000219422 0)
(0.45657 0.00046478 0)
(0.456065 0.000687109 0)
(0.45542 0.000881773 0)
(0.454657 0.00104473 0)
(0.4538 0.00117259 0)
(0.452876 0.00126295 0)
(0.45191 0.00131474 0)
(0.450931 0.0013276 0)
(0.449968 0.00130189 0)
(0.449044 0.00123924 0)
(0.448185 0.00114264 0)
(0.447412 0.00101583 0)
(0.446744 0.000863193 0)
(0.446196 0.00068979 0)
(0.445781 0.000501245 0)
(0.445504 0.000303104 0)
(0.445368 9.83751e-05 0)
(0.445378 -0.000111977 0)
(0.445529 -0.000306962 0)
(0.445804 -0.000482889 0)
(0.44619 -0.000636229 0)
(0.446668 -0.000763257 0)
(0.44722 -0.000860947 0)
(0.447823 -0.000927011 0)
(0.448454 -0.00096014 0)
(0.44909 -0.000959614 0)
(0.449706 -0.000925708 0)
(0.450282 -0.000859232 0)
(0.450795 -0.000762596 0)
(0.451225 -0.000635478 0)
(0.451563 -0.000483367 0)
(0.451756 -0.000299176 0)
(0.451926 -9.54777e-05 0)
(0.45162 0.000261224 0)
(0.704732 0.00144103 0)
(0.704421 -4.76939e-05 0)
(0.704778 -0.00150212 0)
(0.705779 -0.00288326 0)
(0.707373 -0.00415119 0)
(0.709496 -0.00526004 0)
(0.712065 -0.00617115 0)
(0.714981 -0.00685524 0)
(0.718136 -0.0072936 0)
(0.721418 -0.0074782 0)
(0.724705 -0.0074102 0)
(0.727888 -0.00710074 0)
(0.730866 -0.00656991 0)
(0.733546 -0.00584475 0)
(0.735851 -0.00495781 0)
(0.73772 -0.00394506 0)
(0.739108 -0.00284358 0)
(0.739986 -0.00168686 0)
(0.740339 -0.000504437 0)
(0.740161 0.000655056 0)
(0.739475 0.0017421 0)
(0.738329 0.00274044 0)
(0.736771 0.00362638 0)
(0.734859 0.00437867 0)
(0.732658 0.00498128 0)
(0.730239 0.00542305 0)
(0.727674 0.0056974 0)
(0.725037 0.00580169 0)
(0.722407 0.00573621 0)
(0.719855 0.00550557 0)
(0.71745 0.00511899 0)
(0.715257 0.00458992 0)
(0.713336 0.00393535 0)
(0.711735 0.00317611 0)
(0.710498 0.00233307 0)
(0.709654 0.0014294 0)
(0.709224 0.000489241 0)
(0.70922 -0.000449334 0)
(0.70963 -0.00134221 0)
(0.710425 -0.00216674 0)
(0.711564 -0.00289798 0)
(0.712999 -0.00351195 0)
(0.714671 -0.00399003 0)
(0.716513 -0.00431961 0)
(0.718458 -0.00449428 0)
(0.720435 -0.00451281 0)
(0.722372 -0.0043798 0)
(0.724206 -0.0041053 0)
(0.725877 -0.00370414 0)
(0.727335 -0.00319396 0)
(0.728538 -0.00259538 0)
(0.729453 -0.0019309 0)
(0.730058 -0.00122133 0)
(0.730338 -0.000486056 0)
(0.730286 0.000245078 0)
(0.729913 0.000939615 0)
(0.729239 0.00158733 0)
(0.728294 0.00217088 0)
(0.727112 0.00267447 0)
(0.725734 0.00308583 0)
(0.724203 0.00339613 0)
(0.722568 0.00359997 0)
(0.720875 0.00369521 0)
(0.719174 0.00368195 0)
(0.717512 0.00356298 0)
(0.715932 0.00334423 0)
(0.714478 0.00303409 0)
(0.713185 0.00264314 0)
(0.712087 0.00218405 0)
(0.711209 0.00167137 0)
(0.710572 0.00112065 0)
(0.710187 0.000547161 0)
(0.710062 -3.42461e-05 0)
(0.710198 -0.000593866 0)
(0.710577 -0.00111292 0)
(0.711174 -0.00157859 0)
(0.711961 -0.0019764 0)
(0.712904 -0.00229436 0)
(0.713963 -0.00252388 0)
(0.715098 -0.00266 0)
(0.716266 -0.00270119 0)
(0.717423 -0.00264907 0)
(0.718529 -0.0025085 0)
(0.719547 -0.00228734 0)
(0.720445 -0.00199574 0)
(0.721194 -0.00164555 0)
(0.721772 -0.0012495 0)
(0.722162 -0.000820136 0)
(0.722355 -0.000368699 0)
(0.722341 8.89174e-05 0)
(0.722124 0.000527144 0)
(0.721715 0.000940866 0)
(0.72113 0.00131891 0)
(0.720389 0.00165025 0)
(0.719517 0.00192621 0)
(0.71854 0.00214038 0)
(0.717488 0.00228849 0)
(0.716391 0.00236847 0)
(0.71528 0.00238012 0)
(0.714185 0.00232483 0)
(0.713134 0.00220586 0)
(0.712153 0.00202848 0)
(0.711267 0.0017993 0)
(0.710496 0.00152607 0)
(0.709856 0.00121753 0)
(0.709362 0.000883222 0)
(0.709022 0.00053286 0)
(0.708839 0.000176095 0)
(0.708816 -0.000176232 0)
(0.708949 -0.000507409 0)
(0.709222 -0.000807638 0)
(0.709619 -0.00106961 0)
(0.710119 -0.00128575 0)
(0.710702 -0.00145003 0)
(0.711342 -0.0015584 0)
(0.712015 -0.00160878 0)
(0.712693 -0.00160073 0)
(0.713352 -0.00153526 0)
(0.713966 -0.00141431 0)
(0.714518 -0.0012412 0)
(0.714975 -0.00102139 0)
(0.71535 -0.000759477 0)
(0.715555 -0.000438587 0)
(0.71576 -0.000114841 0)
(0.715467 0.000475189 0)
(0.94056 0.00228512 0)
(0.940047 6.97863e-05 0)
(0.94036 -0.00212288 0)
(0.941462 -0.00419838 0)
(0.943291 -0.00609677 0)
(0.945766 -0.00775488 0)
(0.948783 -0.00911558 0)
(0.952218 -0.0101345 0)
(0.955938 -0.0107835 0)
(0.959804 -0.0110507 0)
(0.963669 -0.0109381 0)
(0.967404 -0.0104647 0)
(0.970888 -0.00966315 0)
(0.974011 -0.00857519 0)
(0.976683 -0.00724879 0)
(0.978831 -0.00573624 0)
(0.980403 -0.00409047 0)
(0.981362 -0.00236064 0)
(0.981692 -0.000597558 0)
(0.98139 0.00112564 0)
(0.98049 0.00274453 0)
(0.979042 0.00422499 0)
(0.977107 0.00553402 0)
(0.974757 0.00664253 0)
(0.972069 0.00752774 0)
(0.969126 0.00817395 0)
(0.966016 0.00857228 0)
(0.962825 0.00871921 0)
(0.959646 0.00861552 0)
(0.956561 0.0082684 0)
(0.953653 0.00769141 0)
(0.950999 0.00690332 0)
(0.948669 0.00592801 0)
(0.946723 0.00479496 0)
(0.945212 0.00353748 0)
(0.944172 0.002189 0)
(0.943633 0.000786817 0)
(0.943612 -0.000617442 0)
(0.944094 -0.00195604 0)
(0.945039 -0.00318699 0)
(0.946402 -0.0042753 0)
(0.94812 -0.0051868 0)
(0.950121 -0.00589387 0)
(0.952326 -0.00637783 0)
(0.954649 -0.00662965 0)
(0.957004 -0.00664806 0)
(0.959306 -0.00644111 0)
(0.961479 -0.00602536 0)
(0.963455 -0.00542318 0)
(0.965173 -0.00466122 0)
(0.966584 -0.00376959 0)
(0.967649 -0.00277957 0)
(0.96834 -0.00172167 0)
(0.968639 -0.000624623 0)
(0.968539 0.000470044 0)
(0.968056 0.00151144 0)
(0.967215 0.00247632 0)
(0.966052 0.00334165 0)
(0.964609 0.00408583 0)
(0.962934 0.00469145 0)
(0.961082 0.00514601 0)
(0.959108 0.00544219 0)
(0.957067 0.00557721 0)
(0.95502 0.00555156 0)
(0.953021 0.00536983 0)
(0.951122 0.00504088 0)
(0.949373 0.00457698 0)
(0.947817 0.00399354 0)
(0.946492 0.00330892 0)
(0.945431 0.00254392 0)
(0.944658 0.00172066 0)
(0.944189 0.000862028 0)
(0.944034 -5.74385e-06 0)
(0.944194 -0.000845559 0)
(0.944647 -0.00162262 0)
(0.945364 -0.00231738 0)
(0.946311 -0.00290968 0)
(0.947445 -0.00338205 0)
(0.94872 -0.00372178 0)
(0.950084 -0.0039217 0)
(0.951487 -0.00397954 0)
(0.952875 -0.00389803 0)
(0.954201 -0.00368534 0)
(0.955422 -0.00335347 0)
(0.956498 -0.00291737 0)
(0.957397 -0.0023942 0)
(0.958092 -0.00180233 0)
(0.958564 -0.00115984 0)
(0.958799 -0.000484928 0)
(0.958789 0.000197625 0)
(0.958537 0.000856535 0)
(0.958057 0.00147523 0)
(0.957367 0.00203796 0)
(0.956494 0.00252975 0)
(0.955465 0.00293802 0)
(0.954313 0.0032534 0)
(0.953073 0.00347003 0)
(0.951781 0.00358523 0)
(0.950473 0.0035988 0)
(0.949185 0.00351329 0)
(0.94795 0.00333416 0)
(0.946799 0.00306902 0)
(0.945759 0.0027274 0)
(0.944855 0.00232048 0)
(0.944107 0.00186106 0)
(0.94353 0.00136292 0)
(0.943136 0.000840013 0)
(0.942931 0.00030686 0)
(0.942917 -0.00021824 0)
(0.943087 -0.00071288 0)
(0.943422 -0.0011606 0)
(0.943905 -0.00155028 0)
(0.944512 -0.00187121 0)
(0.945216 -0.00211485 0)
(0.945988 -0.00227547 0)
(0.946798 -0.00235015 0)
(0.947613 -0.0023381 0)
(0.948407 -0.0022412 0)
(0.949148 -0.00206422 0)
(0.949819 -0.00181092 0)
(0.95038 -0.00149012 0)
(0.95085 -0.0011134 0)
(0.951131 -0.00064254 0)
(0.951404 -0.000196561 0)
(0.951178 0.000636439 0)
(1.13619 0.0033749 0)
(1.13555 0.000243955 0)
(1.13604 -0.00286025 0)
(1.13761 -0.00580085 0)
(1.14019 -0.00848454 0)
(1.14366 -0.0108199 0)
(1.14786 -0.012727 0)
(1.15261 -0.0141448 0)
(1.15772 -0.0150354 0)
(1.16298 -0.0153857 0)
(1.16817 -0.0152044 0)
(1.17313 -0.0145189 0)
(1.1777 -0.013373 0)
(1.18176 -0.0118247 0)
(1.18518 -0.00994406 0)
(1.18789 -0.00780656 0)
(1.18983 -0.00548589 0)
(1.19097 -0.00305085 0)
(1.19127 -0.000575705 0)
(1.19076 0.00183692 0)
(1.18949 0.00410367 0)
(1.18752 0.00616838 0)
(1.18493 0.00798405 0)
(1.18182 0.00951399 0)
(1.1783 0.0107296 0)
(1.17447 0.0116103 0)
(1.17044 0.0121444 0)
(1.16633 0.012328 0)
(1.16225 0.0121633 0)
(1.15831 0.011661 0)
(1.1546 0.0108397 0)
(1.15123 0.00972506 0)
(1.14829 0.00834983 0)
(1.14585 0.00675293 0)
(1.14398 0.00497959 0)
(1.14273 0.00307749 0)
(1.14214 0.00110073 0)
(1.14224 -0.000876516 0)
(1.143 -0.00276165 0)
(1.14438 -0.00449503 0)
(1.14631 -0.00602365 0)
(1.1487 -0.00729957 0)
(1.15146 -0.00828413 0)
(1.15446 -0.00895099 0)
(1.1576 -0.00928783 0)
(1.16075 -0.00929436 0)
(1.1638 -0.00898296 0)
(1.16667 -0.00837762 0)
(1.16925 -0.00751119 0)
(1.17149 -0.00642346 0)
(1.17331 -0.00515773 0)
(1.17468 -0.00375764 0)
(1.17556 -0.00226524 0)
(1.17593 -0.000723432 0)
(1.1758 0.000811464 0)
(1.17516 0.00227229 0)
(1.17407 0.00362084 0)
(1.17257 0.00482367 0)
(1.17072 0.00585282 0)
(1.16858 0.00668635 0)
(1.16623 0.00730783 0)
(1.16372 0.00770727 0)
(1.16115 0.00788108 0)
(1.15857 0.00783071 0)
(1.15607 0.00756369 0)
(1.1537 0.00709283 0)
(1.15153 0.00643502 0)
(1.14961 0.00561144 0)
(1.14799 0.00464736 0)
(1.14671 0.003571 0)
(1.1458 0.0024121 0)
(1.14528 0.00120172 0)
(1.14518 -2.08228e-05 0)
(1.14548 -0.00120161 0)
(1.14616 -0.00229521 0)
(1.14719 -0.00327101 0)
(1.14851 -0.00410024 0)
(1.15006 -0.00475848 0)
(1.15179 -0.00522771 0)
(1.15363 -0.00549799 0)
(1.1555 -0.00556677 0)
(1.15734 -0.00543927 0)
(1.15909 -0.00512818 0)
(1.16069 -0.00465173 0)
(1.16211 -0.00403196 0)
(1.16329 -0.00329304 0)
(1.16421 -0.00246025 0)
(1.16484 -0.00155876 0)
(1.16517 -0.000614473 0)
(1.16519 0.00033999 0)
(1.1649 0.00126337 0)
(1.16432 0.00212735 0)
(1.16348 0.00290909 0)
(1.1624 0.00358891 0)
(1.16114 0.00415091 0)
(1.15972 0.00458291 0)
(1.1582 0.00487668 0)
(1.15661 0.00502854 0)
(1.15502 0.00503857 0)
(1.15345 0.00491114 0)
(1.15196 0.00465438 0)
(1.15058 0.00427896 0)
(1.14934 0.00379786 0)
(1.14828 0.00322701 0)
(1.14741 0.00258396 0)
(1.14676 0.00188732 0)
(1.14635 0.00115533 0)
(1.14618 0.00040752 0)
(1.14625 -0.000327828 0)
(1.14655 -0.0010174 0)
(1.14707 -0.00164102 0)
(1.14777 -0.00218208 0)