/*--------------------------------*- C++ -*----------------------------------*\
| =========                 |                                                 |
| \\      /  F ield         | OpenFOAM: The Open Source CFD Toolbox           |
|  \\    /   O peration     | Version:  2206                                  |
|   \\  /    A nd           | Website:  www.openfoam.com                      |
|    \\/     M anipulation  |                                                 |
\*---------------------------------------------------------------------------*/
FoamFile
{
    version     2.0;
    format      ascii;
    arch        "LSB;label=32;scalar=64";
    class       surfaceScalarField;
    location    "19.2";
    object      phi;
}
// * * * * * * * * * * * * * * * * * * * * * * * * * * * * * * * * * * * * * //

dimensions      [0 3 -1 0 0 0 0];

oriented        oriented;

internalField   nonuniform List<scalar> 
9529
(
-5.54804e-06
5.30947e-07
-5.84768e-06
2.99638e-07
-5.88065e-06
3.29668e-08
-5.72644e-06
-1.54208e-07
-5.38443e-06
-3.42012e-07
-4.86485e-06
-5.19576e-07
-4.18192e-06
-6.82926e-07
-3.3713e-06
-8.10623e-07
-2.46574e-06
-9.05563e-07
-1.48255e-06
-9.83189e-07
-4.47626e-07
-1.03492e-06
6.10501e-07
-1.05813e-06
1.67717e-06
-1.06667e-06
-1.06541e-06
2.74257e-06
-2.98817e-06
7.0711e-07
-2.94175e-06
2.53218e-07
-2.75967e-06
-1.49111e-07
-2.41417e-06
-4.99709e-07
-1.94044e-06
-8.15742e-07
-1.35691e-06
-1.10311e-06
-6.69067e-07
-1.37077e-06
1.25213e-07
-1.6049e-06
1.01431e-06
-1.79466e-06
1.96901e-06
-1.93789e-06
2.96204e-06
-2.02795e-06
3.97189e-06
-2.06798e-06
4.98105e-06
-2.07583e-06
-2.07518e-06
5.99083e-06
1.80667e-06
6.21319e-07
1.95212e-06
1.07766e-07
2.21433e-06
-4.11321e-07
2.55403e-06
-8.39406e-07
2.96424e-06
-1.22595e-06
3.44796e-06
-1.58684e-06
4.0068e-06
-1.9296e-06
4.6342e-06
-2.23231e-06
5.31354e-06
-2.474e-06
6.0273e-06
-2.65164e-06
6.75863e-06
-2.75928e-06
7.49133e-06
-2.80068e-06
8.21936e-06
-2.80387e-06
-2.79675e-06
8.94093e-06
6.78289e-06
4.38092e-07
6.93858e-06
-4.79241e-08
7.08209e-06
-5.54832e-07
7.28088e-06
-1.03819e-06
7.55425e-06
-1.49932e-06
7.90151e-06
-1.9341e-06
8.30404e-06
-2.33213e-06
8.73781e-06
-2.66608e-06
9.18295e-06
-2.91914e-06
9.62843e-06
-3.09713e-06
1.00662e-05
-3.19703e-06
1.04906e-05
-3.22513e-06
1.09065e-05
-3.21968e-06
-3.20186e-06
1.13116e-05
1.04611e-05
1.68963e-07
1.07076e-05
-2.94429e-07
1.0943e-05
-7.90196e-07
1.11851e-05
-1.28033e-06
1.14336e-05
-1.74779e-06
1.16799e-05
-2.18046e-06
1.19099e-05
-2.56209e-06
1.21151e-05
-2.87125e-06
1.22887e-05
-3.09272e-06
1.24331e-05
-3.24154e-06
1.25699e-05
-3.33382e-06
1.26994e-05
-3.3547e-06
1.28252e-05
-3.34548e-06
-3.32408e-06
1.29475e-05
1.40607e-05
-1.32515e-08
1.42185e-05
-4.52239e-07
1.43486e-05
-9.20295e-07
1.4446e-05
-1.37775e-06
1.45054e-05
-1.80716e-06
1.45229e-05
-2.19794e-06
1.44949e-05
-2.53415e-06
1.44291e-05
-2.80538e-06
1.43387e-05
-3.00232e-06
1.42325e-05
-3.13533e-06
1.41223e-05
-3.22362e-06
1.40227e-05
-3.25512e-06
1.39344e-05
-3.25718e-06
-3.24375e-06
1.3854e-05
1.60631e-05
-1.61819e-07
1.61539e-05
-5.4301e-07
1.61781e-05
-9.44485e-07
1.61329e-05
-1.33258e-06
1.60317e-05
-1.70592e-06
1.58851e-05
-2.05132e-06
1.5699e-05
-2.34813e-06
1.54846e-05
-2.5909e-06
1.52588e-05
-2.77661e-06
1.50336e-05
-2.91008e-06
1.48083e-05
-2.99831e-06
1.45982e-05
-3.04502e-06
1.44041e-05
-3.06309e-06
-3.06431e-06
1.42246e-05
1.65707e-05
-2.87511e-07
1.66209e-05
-5.93207e-07
1.66021e-05
-9.25694e-07
1.65322e-05
-1.26265e-06
1.64106e-05
-1.58431e-06
1.6236e-05
-1.87668e-06
1.60211e-05
-2.13331e-06
1.57799e-05
-2.34966e-06
1.55251e-05
-2.52185e-06
1.5266e-05
-2.65097e-06
1.50103e-05
-2.74256e-06
1.47675e-05
-2.80224e-06
1.45413e-05
-2.83686e-06
-2.85461e-06
1.43316e-05
1.6467e-05
-3.78327e-07
1.65134e-05
-6.39624e-07
1.65012e-05
-9.13499e-07
1.64295e-05
-1.19089e-06
1.63066e-05
-1.46146e-06
1.61409e-05
-1.71098e-06
1.59405e-05
-1.93289e-06
1.57146e-05
-2.12373e-06
1.5474e-05
-2.28128e-06
1.52287e-05
-2.40566e-06
1.49861e-05
-2.49995e-06
1.47522e-05
-2.56838e-06
1.4531e-05
-2.61563e-06
-2.64702e-06
1.43234e-05
1.62045e-05
-4.41054e-07
1.62269e-05
-6.61955e-07
1.62058e-05
-8.92439e-07
1.61406e-05
-1.12571e-06
1.60326e-05
-1.35345e-06
1.58883e-05
-1.56664e-06
1.57147e-05
-1.75935e-06
1.55196e-05
-1.92857e-06
1.53109e-05
-2.07263e-06
1.50965e-05
-2.19122e-06
1.48824e-05
-2.28586e-06
1.46732e-05
-2.35923e-06
1.44721e-05
-2.41449e-06
-2.45513e-06
1.42802e-05
1.59175e-05
-4.83442e-07
1.59285e-05
-6.72909e-07
1.59057e-05
-8.69608e-07
1.58477e-05
-1.06775e-06
1.57556e-05
-1.26132e-06
1.5634e-05
-1.44508e-06
1.54885e-05
-1.61386e-06
1.53248e-05
-1.76484e-06
1.51486e-05
-1.89645e-06
1.49655e-05
-2.00811e-06
1.47801e-05
-2.10047e-06
1.4596e-05
-2.17512e-06
1.44157e-05
-2.23415e-06
-2.2799e-06
1.42405e-05
1.56736e-05
-5.11143e-07
1.56763e-05
-6.75647e-07
1.56521e-05
-8.45377e-07
1.56003e-05
-1.01597e-06
1.55221e-05
-1.18308e-06
1.542e-05
-1.34295e-06
1.52977e-05
-1.49161e-06
1.51594e-05
-1.62649e-06
1.50091e-05
-1.74615e-06
1.48509e-05
-1.84996e-06
1.46885e-05
-1.93809e-06
1.45248e-05
-2.01141e-06
1.43619e-05
-2.07127e-06
-2.11921e-06
1.42012e-05
1.54707e-05
-5.27986e-07
1.54674e-05
-6.72379e-07
1.54425e-05
-8.20517e-07
1.53957e-05
-9.69155e-07
1.53276e-05
-1.11493e-06
1.52395e-05
-1.25491e-06
1.51343e-05
-1.38637e-06
1.50148e-05
-1.50703e-06
1.48843e-05
-1.6156e-06
1.47457e-05
-1.71139e-06
1.46019e-05
-1.7943e-06
1.44552e-05
-1.86475e-06
1.43075e-05
-1.92355e-06
-1.97171e-06
1.416e-05
1.52947e-05
-5.36932e-07
1.52872e-05
-6.64861e-07
1.52621e-05
-7.95383e-07
1.52189e-05
-9.26032e-07
1.51583e-05
-1.05426e-06
1.50811e-05
-1.17772e-06
1.49892e-05
-1.29447e-06
1.48848e-05
-1.40264e-06
1.47702e-05
-1.50102e-06
1.46478e-05
-1.58893e-06
1.45196e-05
-1.66612e-06
1.43876e-05
-1.73274e-06
1.42533e-05
-1.78925e-06
-1.83629e-06
1.41178e-05
1.51398e-05
-5.40255e-07
1.51294e-05
-6.54447e-07
1.51043e-05
-7.70346e-07
1.50644e-05
-8.86064e-07
1.50098e-05
-9.99656e-07
1.49413e-05
-1.10925e-06
1.48602e-05
-1.21332e-06
1.47679e-05
-1.31043e-06
1.46664e-05
-1.39949e-06
1.45573e-05
-1.47984e-06
1.44424e-05
-1.55117e-06
1.43231e-05
-1.61345e-06
1.42008e-05
-1.66692e-06
-1.71196e-06
1.40764e-05
1.50027e-05
-5.39594e-07
1.49904e-05
-6.42147e-07
1.49658e-05
-7.45737e-07
1.49286e-05
-8.48895e-07
1.4879e-05
-9.50109e-07
1.48177e-05
-1.0479e-06
1.47453e-05
-1.14098e-06
1.46632e-05
-1.22829e-06
1.45726e-05
-1.30886e-06
1.44748e-05
-1.38209e-06
1.43713e-05
-1.44761e-06
1.42631e-05
-1.50532e-06
1.41515e-05
-1.55529e-06
-1.59774e-06
1.40373e-05
1.48808e-05
-5.36197e-07
1.48674e-05
-6.28758e-07
1.48435e-05
-7.21847e-07
1.48089e-05
-8.143e-07
1.47637e-05
-9.0492e-07
1.47084e-05
-9.92531e-07
1.46434e-05
-1.07607e-06
1.45698e-05
-1.15464e-06
1.44884e-05
-1.22749e-06
1.44004e-05
-1.29404e-06
1.43067e-05
-1.35394e-06
1.42084e-05
-1.407e-06
1.41063e-05
-1.45323e-06
-1.49271e-06
1.40013e-05
1.47723e-05
-5.30995e-07
1.47585e-05
-6.14876e-07
1.47355e-05
-6.989e-07
1.47033e-05
-7.82127e-07
1.4662e-05
-8.63588e-07
1.46118e-05
-9.42335e-07
1.45532e-05
-1.01748e-06
1.44869e-05
-1.08828e-06
1.44135e-05
-1.15409e-06
1.43338e-05
-1.21442e-06
1.42488e-05
-1.26892e-06
1.41592e-05
-1.31739e-06
1.40657e-05
-1.35976e-06
-1.39605e-06
1.39691e-05
1.46757e-05
-5.24693e-07
1.46618e-05
-6.00964e-07
1.464e-05
-6.77089e-07
1.46101e-05
-7.52288e-07
1.45723e-05
-8.25763e-07
1.45267e-05
-8.96726e-07
1.44737e-05
-9.64445e-07
1.44137e-05
-1.02828e-06
1.43473e-05
-1.08768e-06
1.42751e-05
-1.14222e-06
1.41977e-05
-1.19158e-06
1.41159e-05
-1.23555e-06
1.40302e-05
-1.27404e-06
-1.30702e-06
1.39411e-05
1.45898e-05
-5.17813e-07
1.45762e-05
-5.8737e-07
1.45557e-05
-6.56562e-07
1.45282e-05
-7.24728e-07
1.44936e-05
-7.9119e-07
1.44521e-05
-8.55278e-07
1.44041e-05
-9.16374e-07
1.43497e-05
-9.7393e-07
1.42895e-05
-1.02748e-06
1.42239e-05
-1.07664e-06
1.41535e-05
-1.12113e-06
1.40787e-05
-1.16075e-06
1.4e-05
-1.19539e-06
-1.22501e-06
1.3918e-05
1.45138e-05
-5.10756e-07
1.45008e-05
-5.74367e-07
1.44816e-05
-6.37451e-07
1.44563e-05
-6.9943e-07
1.44249e-05
-7.59715e-07
1.43873e-05
-8.17709e-07
1.43438e-05
-8.72873e-07
1.42946e-05
-9.24753e-07
1.42401e-05
-9.72939e-07
1.41805e-05
-1.0171e-06
1.41164e-05
-1.05697e-06
1.4048e-05
-1.0924e-06
1.39759e-05
-1.12327e-06
-1.14955e-06
1.39005e-05
1.4447e-05
-5.03826e-07
1.44348e-05
-5.6217e-07
1.44172e-05
-6.1989e-07
1.43942e-05
-6.7643e-07
1.43658e-05
-7.31266e-07
1.43319e-05
-7.83864e-07
1.42928e-05
-8.33705e-07
1.42485e-05
-8.80433e-07
1.41992e-05
-9.23693e-07
1.41453e-05
-9.63184e-07
1.4087e-05
-9.98696e-07
1.40247e-05
-1.03009e-06
1.39587e-05
-1.05728e-06
-1.08023e-06
1.38894e-05
1.43892e-05
-4.97268e-07
1.4378e-05
-5.50983e-07
1.43621e-05
-6.04005e-07
1.43415e-05
-6.55783e-07
1.4316e-05
-7.05811e-07
1.42858e-05
-7.53608e-07
1.42507e-05
-7.98657e-07
1.4211e-05
-8.40668e-07
1.41666e-05
-8.79341e-07
1.41178e-05
-9.14407e-07
1.40648e-05
-9.45708e-07
1.40079e-05
-9.73145e-07
1.39473e-05
-9.96654e-07
-1.01621e-06
1.38832e-05
1.43397e-05
-4.91012e-07
1.43293e-05
-5.40642e-07
1.43148e-05
-5.89518e-07
1.42961e-05
-6.37081e-07
1.42732e-05
-6.82845e-07
1.42458e-05
-7.26295e-07
1.42141e-05
-7.66935e-07
1.4178e-05
-8.04502e-07
1.41373e-05
-8.387e-07
1.40922e-05
-8.69339e-07
1.40429e-05
-8.96326e-07
1.39893e-05
-9.19611e-07
1.39318e-05
-9.39171e-07
-9.55003e-07
1.38706e-05
1.42921e-05
-4.84258e-07
1.42817e-05
-5.30188e-07
1.42675e-05
-5.75291e-07
1.42494e-05
-6.18997e-07
1.42273e-05
-6.60771e-07
1.42011e-05
-7.00047e-07
1.41704e-05
-7.36314e-07
1.41352e-05
-7.69287e-07
1.40952e-05
-7.98721e-07
1.40504e-05
-8.24519e-07
1.40008e-05
-8.46688e-07
1.39464e-05
-8.65261e-07
1.38875e-05
-8.80283e-07
-8.91801e-07
1.38243e-05
1.42109e-05
-4.7348e-07
1.41963e-05
-5.15621e-07
1.41778e-05
-5.56846e-07
1.41554e-05
-5.96534e-07
1.41286e-05
-6.34024e-07
1.40973e-05
-6.68678e-07
1.40609e-05
-6.9996e-07
1.40191e-05
-7.27525e-07
1.39716e-05
-7.51216e-07
1.39182e-05
-7.71106e-07
1.38589e-05
-7.87347e-07
1.37937e-05
-8.00074e-07
1.37228e-05
-8.09434e-07
-8.15542e-07
1.36466e-05
1.39559e-05
-4.48756e-07
1.39262e-05
-4.85922e-07
1.38915e-05
-5.22102e-07
1.38514e-05
-5.5649e-07
1.38057e-05
-5.88292e-07
1.37538e-05
-6.1674e-07
1.3695e-05
-6.41189e-07
1.36287e-05
-6.61223e-07
1.35543e-05
-6.76795e-07
1.34714e-05
-6.8822e-07
1.338e-05
-6.95974e-07
1.32804e-05
-7.00469e-07
1.31729e-05
-7.01968e-07
-7.00685e-07
1.30581e-05
1.31408e-05
-3.84402e-07
1.30681e-05
-4.13245e-07
1.2987e-05
-4.4092e-07
1.2897e-05
-4.66547e-07
1.27979e-05
-4.89134e-07
1.26889e-05
-5.0778e-07
1.25696e-05
-5.2186e-07
1.24391e-05
-5.3075e-07
1.22968e-05
-5.34471e-07
1.21426e-05
-5.34017e-07
1.19769e-05
-5.30318e-07
1.18005e-05
-5.24024e-07
1.16141e-05
-5.15627e-07
-5.05507e-07
1.14189e-05
1.07044e-05
-2.37255e-07
1.05436e-05
-2.52528e-07
1.03694e-05
-2.66666e-07
1.01818e-05
-2.78989e-07
9.98119e-06
-2.88495e-07
9.76671e-06
-2.93309e-07
9.53543e-06
-2.90574e-07
9.28514e-06
-2.80462e-07
9.01685e-06
-2.66178e-07
8.73318e-06
-2.50349e-07
8.43705e-06
-2.34185e-07
8.13131e-06
-2.18291e-07
7.81875e-06
-2.03063e-07
-1.88723e-07
7.50197e-06
4.68585e-06
4.43332e-06
4.16666e-06
3.88767e-06
3.59917e-06
3.30587e-06
3.01529e-06
2.73483e-06
2.46865e-06
2.2183e-06
1.98412e-06
1.76583e-06
1.56276e-06
1.37404e-06
3.98767e-06
-1.05786e-06
-1.8724e-07
5.35017e-06
-1.12195e-06
-2.4055e-07
6.70482e-06
-1.34317e-06
-1.14701e-08
7.90694e-06
-1.74354e-06
5.41411e-07
8.84033e-06
-2.24457e-06
1.31118e-06
9.50027e-06
-2.7575e-06
2.09756e-06
9.92729e-06
-3.2087e-06
2.78168e-06
1.01798e-05
-3.55621e-06
3.30366e-06
1.03129e-05
-3.79429e-06
3.66124e-06
1.03745e-05
-3.94126e-06
3.87965e-06
1.03943e-05
-4.01082e-06
3.99097e-06
1.03877e-05
-4.02434e-06
4.03099e-06
1.0359e-05
-4.00504e-06
4.03369e-06
1.03046e-05
-3.95645e-06
4.01094e-06
1.02275e-05
-3.88144e-06
3.95851e-06
1.0133e-05
-3.7905e-06
3.88496e-06
1.00216e-05
-3.69199e-06
3.80344e-06
9.89205e-06
-3.59047e-06
3.72001e-06
9.74301e-06
-3.48671e-06
3.63575e-06
9.57346e-06
-3.37967e-06
3.54922e-06
9.38334e-06
-3.26754e-06
3.45766e-06
9.17478e-06
-3.14809e-06
3.35665e-06
8.95286e-06
-3.01875e-06
3.24067e-06
8.72319e-06
-2.8765e-06
3.10618e-06
8.48225e-06
-2.71754e-06
2.95848e-06
8.20031e-06
-2.53994e-06
2.82188e-06
7.80987e-06
-2.35178e-06
2.74222e-06
7.22666e-06
-2.18202e-06
2.76523e-06
6.41681e-06
-2.0819e-06
2.89176e-06
5.48095e-06
-2.09751e-06
3.03337e-06
4.624e-06
-2.21105e-06
3.068e-06
4.02116e-06
-2.32186e-06
2.9247e-06
3.72388e-06
-2.31105e-06
2.60833e-06
3.72412e-06
-2.13408e-06
2.13384e-06
3.98244e-06
-1.81528e-06
1.55696e-06
4.44155e-06
-1.37009e-06
9.1098e-07
5.02707e-06
-8.45081e-07
2.59558e-07
5.65097e-06
-2.67456e-07
-3.56438e-07
6.266e-06
3.01374e-07
-9.16403e-07
6.85399e-06
8.28041e-07
-1.41604e-06
7.40578e-06
1.30121e-06
-1.853e-06
7.91437e-06
1.71861e-06
-2.22719e-06
8.37471e-06
2.08035e-06
-2.5407e-06
8.78355e-06
2.38844e-06
-2.79728e-06
9.13959e-06
2.64628e-06
-3.00232e-06
9.4435e-06
2.85812e-06
-3.16203e-06
9.69774e-06
3.02925e-06
-3.28349e-06
9.90616e-06
3.16549e-06
-3.37392e-06
1.00737e-05
3.27291e-06
-3.44042e-06
1.02057e-05
3.35735e-06
-3.4894e-06
1.03078e-05
3.42382e-06
-3.52594e-06
1.03847e-05
3.47675e-06
-3.5536e-06
1.04391e-05
3.52196e-06
-3.57632e-06
1.04724e-05
3.56799e-06
-3.60136e-06
1.04852e-05
3.62472e-06
-3.63746e-06
1.04747e-05
3.70244e-06
-3.69194e-06
1.04365e-05
3.81236e-06
-3.77424e-06
1.03722e-05
3.95943e-06
-3.89505e-06
1.02894e-05
4.14321e-06
-4.06048e-06
1.02045e-05
4.34673e-06
-4.26181e-06
1.01365e-05
4.53503e-06
-4.46706e-06
1.00952e-05
4.67858e-06
-4.63726e-06
1.00817e-05
4.75878e-06
-4.74521e-06
1.00956e-05
4.76673e-06
-4.78072e-06
1.01669e-05
4.65004e-06
-4.72132e-06
1.02877e-05
4.33085e-06
-4.45158e-06
1.04554e-05
3.83307e-06
-4.00083e-06
1.06655e-05
3.17273e-06
-3.38283e-06
1.09103e-05
2.37781e-06
-2.62263e-06
1.11789e-05
1.4917e-06
-1.7603e-06
1.1453e-05
5.78016e-07
-8.52099e-07
1.17162e-05
-2.99868e-07
3.67438e-08
1.19559e-05
-1.10049e-06
8.60772e-07
1.21617e-05
-1.79604e-06
1.59019e-06
1.23271e-05
-2.37029e-06
2.20491e-06
1.24496e-05
-2.81968e-06
2.69718e-06
1.25302e-05
-3.15067e-06
3.07008e-06
1.25728e-05
-3.37723e-06
3.33461e-06
1.25838e-05
-3.51431e-06
3.50337e-06
1.25689e-05
-3.58068e-06
3.59553e-06
1.25297e-05
-3.58762e-06
3.62682e-06
1.24661e-05
-3.54904e-06
3.61267e-06
1.23873e-05
-3.47929e-06
3.55802e-06
1.23009e-05
-3.39151e-06
3.47791e-06
1.22112e-05
-3.2958e-06
3.38553e-06
1.21209e-05
-3.19925e-06
3.2896e-06
1.2031e-05
-3.10582e-06
3.19568e-06
1.1942e-05
-3.01753e-06
3.10658e-06
1.18538e-05
-2.9356e-06
3.0238e-06
1.17662e-05
-2.86067e-06
2.9482e-06
1.16791e-05
-2.79301e-06
2.88017e-06
1.15919e-05
-2.73266e-06
2.81982e-06
1.15043e-05
-2.6795e-06
2.7671e-06
1.14158e-05
-2.63339e-06
2.72188e-06
1.1326e-05
-2.59417e-06
2.68401e-06
1.12343e-05
-2.56171e-06
2.6534e-06
1.11402e-05
-2.53588e-06
2.62994e-06
1.10433e-05
-2.51642e-06
2.61333e-06
1.09431e-05
-2.50285e-06
2.60312e-06
1.08388e-05
-2.49468e-06
2.59898e-06
1.07294e-05
-2.49165e-06
2.60098e-06
1.06136e-05
-2.4941e-06
2.60989e-06
1.04896e-05
-2.50313e-06
2.6272e-06
1.03555e-05
-2.52035e-06
2.65439e-06
1.02106e-05
-2.54679e-06
2.69171e-06
1.00555e-05
-2.58134e-06
2.73643e-06
9.89317e-06
-2.61905e-06
2.78141e-06
9.72828e-06
-2.65034e-06
2.81523e-06
9.56624e-06
-2.66295e-06
2.82499e-06
9.4129e-06
-2.64387e-06
2.79721e-06
9.27356e-06
-2.58067e-06
2.72e-06
9.15205e-06
-2.46475e-06
2.58627e-06
9.0504e-06
-2.29343e-06
2.39508e-06
8.96921e-06
-2.06986e-06
2.15105e-06
8.90824e-06
-1.80164e-06
1.8626e-06
8.86704e-06
-1.49896e-06
1.54016e-06
8.84529e-06
-1.17266e-06
1.19441e-06
8.84281e-06
-8.32939e-07
8.35422e-07
8.85926e-06
-4.89212e-07
4.72759e-07
8.89428e-06
-1.49708e-07
1.14686e-07
8.94718e-06
1.80295e-07
-2.33188e-07
9.01675e-06
4.96114e-07
-5.65688e-07
9.10132e-06
7.93734e-07
-8.78303e-07
9.19879e-06
1.06988e-06
-1.16734e-06
9.30677e-06
1.3221e-06
-1.43008e-06
9.42274e-06
1.54882e-06
-1.66479e-06
1.74936e-06
-1.87076e-06
7.02862e-06
-2.09565e-06
8.06815e-06
-2.16148e-06
9.03857e-06
-2.31359e-06
9.8571e-06
-2.56207e-06
1.04863e-05
-2.87377e-06
1.09199e-05
-3.19112e-06
1.11774e-05
-3.46616e-06
1.12985e-05
-3.67734e-06
1.13268e-05
-3.82253e-06
1.12974e-05
-3.91188e-06
1.12314e-05
-3.94487e-06
1.11392e-05
-3.93213e-06
1.10237e-05
-3.88949e-06
1.08894e-05
-3.82221e-06
1.07444e-05
-3.73642e-06
1.05927e-05
-3.6388e-06
1.04354e-05
-3.5347e-06
1.02719e-05
-3.42694e-06
1.01012e-05
-3.31605e-06
9.92269e-06
-3.20115e-06
9.73572e-06
-3.08057e-06
9.53993e-06
-2.9523e-06
9.33564e-06
-2.81446e-06
9.12499e-06
-2.66585e-06
8.91321e-06
-2.50576e-06
8.70636e-06
-2.33309e-06
8.50009e-06
-2.14552e-06
8.25934e-06
-1.94127e-06
7.90627e-06
-1.72883e-06
7.34725e-06
-1.53849e-06
6.56168e-06
-1.42549e-06
5.67888e-06
-1.43906e-06
4.90266e-06
-1.53482e-06
4.39483e-06
-1.62626e-06
4.18859e-06
-1.60903e-06
4.26887e-06
-1.45038e-06
4.60084e-06
-1.17705e-06
5.10749e-06
-7.74105e-07
5.70188e-06
-2.93016e-07
6.30664e-06
2.23273e-07
6.88709e-06
7.20761e-07
7.42903e-06
1.17668e-06
7.92579e-06
1.58358e-06
8.37412e-06
1.94011e-06
8.77274e-06
2.24765e-06
9.12156e-06
2.50931e-06
9.42183e-06
2.72897e-06
9.6761e-06
2.91123e-06
9.888e-06
3.06101e-06
1.0062e-05
3.18336e-06
1.02027e-05
3.28315e-06
1.03135e-05
3.36587e-06
1.03965e-05
3.43896e-06
1.04516e-05
3.51291e-06
1.04782e-05
3.5981e-06
1.04792e-05
3.70148e-06
1.04573e-05
3.83423e-06
1.04159e-05
4.00084e-06
1.03667e-05
4.19239e-06
1.03282e-05
4.38525e-06
1.0312e-05
4.55128e-06
1.03201e-05
4.67046e-06
1.03531e-05
4.72576e-06
1.04306e-05
4.6892e-06
1.0574e-05
4.50666e-06
1.07612e-05
4.14361e-06
1.09883e-05
3.60604e-06
1.12487e-05
2.91227e-06
1.15335e-05
2.09308e-06
1.1828e-05
1.19718e-06
1.21111e-05
2.94877e-07
1.23683e-05
-5.57065e-07
1.25882e-05
-1.3204e-06
1.27625e-05
-1.97035e-06
1.28879e-05
-2.49565e-06
1.29653e-05
-2.89708e-06
1.2999e-05
-3.18439e-06
1.29952e-05
-3.37344e-06
1.29617e-05
-3.48084e-06
1.29013e-05
-3.52025e-06
1.28172e-05
-3.50349e-06
1.27169e-05
-3.4488e-06
1.26083e-05
-3.37065e-06
1.24967e-05
-3.27994e-06
1.23858e-05
-3.18485e-06
1.22771e-05
-3.09052e-06
1.21709e-05
-2.99965e-06
1.20672e-05
-2.91388e-06
1.19658e-05
-2.83419e-06
1.18662e-05
-2.76106e-06
1.17679e-05
-2.69468e-06
1.16703e-05
-2.63507e-06
1.15729e-05
-2.58213e-06
1.14752e-05
-2.5357e-06
1.13767e-05
-2.49563e-06
1.12768e-05
-2.46179e-06
1.11749e-05
-2.43403e-06
1.10706e-05
-2.41213e-06
1.09634e-05
-2.39563e-06
1.08527e-05
-2.38398e-06
1.07378e-05
-2.37671e-06
1.06174e-05
-2.37372e-06
1.04899e-05
-2.37565e-06
1.03534e-05
-2.38389e-06
1.02066e-05
-2.39995e-06
1.00494e-05
-2.4241e-06
9.88385e-06
-2.45352e-06
9.71449e-06
-2.48098e-06
9.54694e-06
-2.49541e-06
9.38754e-06
-2.48446e-06
9.24243e-06
-2.43557e-06
9.1164e-06
-2.33871e-06
9.01215e-06
-2.18919e-06
8.93055e-06
-1.98826e-06
8.87112e-06
-1.74221e-06
8.83282e-06
-1.46065e-06
8.8146e-06
-1.15445e-06
8.8156e-06
-8.3394e-07
8.83477e-06
-5.08381e-07
8.8714e-06
-1.86331e-07
8.92486e-06
1.26832e-07
8.99408e-06
4.26893e-07
9.07756e-06
7.10254e-07
9.17344e-06
9.73999e-07
9.27958e-06
1.21595e-06
9.3937e-06
1.43471e-06
1.62961e-06
9.65331e-06
-2.80803e-06
1.03359e-05
-2.84407e-06
1.09508e-05
-2.92853e-06
1.14541e-05
-3.06537e-06
1.18168e-05
-3.23647e-06
1.20315e-05
-3.4058e-06
1.21202e-05
-3.55486e-06
1.21167e-05
-3.67383e-06
1.2048e-05
-3.75386e-06
1.19302e-05
-3.7941e-06
1.17809e-05
-3.79556e-06
1.16135e-05
-3.76473e-06
1.14342e-05
-3.71015e-06
1.12496e-05
-3.63765e-06
1.10645e-05
-3.55128e-06
1.0881e-05
-3.45532e-06
1.06995e-05
-3.35322e-06
1.05193e-05
-3.24669e-06
1.03391e-05
-3.13593e-06
1.01583e-05
-3.02033e-06
9.97651e-06
-2.89875e-06
9.79388e-06
-2.76966e-06
9.61085e-06
-2.63143e-06
9.42761e-06
-2.48262e-06
9.24422e-06
-2.32236e-06
9.06185e-06
-2.15072e-06
8.88486e-06
-1.96853e-06
8.71942e-06
-1.77584e-06
8.56121e-06
-1.57061e-06
8.37231e-06
-1.34959e-06
8.0686e-06
-1.12177e-06
7.54957e-06
-9.20034e-07
6.80659e-06
-7.9184e-07
5.99189e-06
-8.11559e-07
5.29566e-06
-9.12802e-07
4.86327e-06
-1.01799e-06
4.71822e-06
-1.032e-06
4.8422e-06
-8.98079e-07
5.20745e-06
-6.58267e-07
5.72007e-06
-2.89352e-07
6.29617e-06
1.44667e-07
6.87212e-06
6.00726e-07
7.41648e-06
1.03922e-06
7.91592e-06
1.44067e-06
8.36534e-06
1.79823e-06
8.76332e-06
2.11133e-06
9.11148e-06
2.38081e-06
9.41231e-06
2.61039e-06
9.66876e-06
2.80456e-06
9.88429e-06
2.96782e-06
1.00623e-05
3.10514e-06
1.02053e-05
3.22284e-06
1.03149e-05
3.32945e-06
1.03918e-05
3.43598e-06
1.04375e-05
3.55235e-06
1.04555e-05
3.68351e-06
1.04544e-05
3.83531e-06
1.04446e-05
4.0107e-06
1.04389e-05
4.19809e-06
1.04503e-05
4.37378e-06
1.0484e-05
4.51764e-06
1.05433e-05
4.61118e-06
1.06395e-05
4.62956e-06
1.07924e-05
4.53621e-06
1.10015e-05
4.29764e-06
1.1253e-05
3.89205e-06
1.15381e-05
3.32096e-06
1.18476e-05
2.60275e-06
1.21692e-05
1.77153e-06
1.24832e-05
8.83182e-07
1.27688e-05
9.18965e-09
1.30129e-05
-8.01087e-07
1.32056e-05
-1.51313e-06
1.33421e-05
-2.1069e-06
1.34228e-05
-2.57628e-06
1.3452e-05
-2.92631e-06
1.34374e-05
-3.16978e-06
1.3387e-05
-3.32305e-06
1.33064e-05
-3.40019e-06
1.31996e-05
-3.41345e-06
1.30761e-05
-3.38003e-06
1.29441e-05
-3.31685e-06
1.28097e-05
-3.23623e-06
1.2677e-05
-3.14722e-06
1.25481e-05
-3.05597e-06
1.24236e-05
-2.96598e-06
1.23033e-05
-2.87938e-06
1.21869e-05
-2.79751e-06
1.20739e-05
-2.72114e-06
1.19635e-05
-2.65069e-06
1.18552e-05
-2.58632e-06
1.17482e-05
-2.52807e-06
1.16419e-05
-2.47588e-06
1.15358e-05
-2.42962e-06
1.14294e-05
-2.38918e-06
1.1322e-05
-2.3544e-06
1.12131e-05
-2.32516e-06
1.11022e-05
-2.30125e-06
1.09889e-05
-2.28227e-06
1.08726e-05
-2.26768e-06
1.07528e-05
-2.25689e-06
1.06285e-05
-2.24947e-06
1.04985e-05
-2.24558e-06
1.03607e-05
-2.24617e-06
1.02136e-05
-2.25283e-06
1.00562e-05
-2.26673e-06
9.88976e-06
-2.28704e-06
9.71786e-06
-2.30908e-06
9.5462e-06
-2.32375e-06
9.38128e-06
-2.31954e-06
9.2301e-06
-2.28439e-06
9.09861e-06
-2.20722e-06
8.99049e-06
-2.08107e-06
8.90716e-06
-1.90493e-06
8.84822e-06
-1.68327e-06
8.81216e-06
-1.42459e-06
8.79743e-06
-1.13972e-06
8.80217e-06
-8.38681e-07
8.82449e-06
-5.30704e-07
8.8634e-06
-2.25238e-07
8.91808e-06
7.21554e-08
8.98748e-06
3.57495e-07
9.07025e-06
6.27485e-07
9.16473e-06
8.79512e-07
9.26904e-06
1.11164e-06
9.38112e-06
1.32263e-06
1.51187e-06
1.16998e-05
-3.1963e-06
1.20554e-05
-3.19965e-06
1.23561e-05
-3.22919e-06
1.25748e-05
-3.28404e-06
1.26976e-05
-3.35934e-06
1.27318e-05
-3.43995e-06
1.2692e-05
-3.51509e-06
1.25918e-05
-3.57365e-06
1.24459e-05
-3.60794e-06
1.2268e-05
-3.6162e-06
1.20716e-05
-3.59915e-06
1.1867e-05
-3.56014e-06
1.16605e-05
-3.50367e-06
1.14561e-05
-3.43315e-06
1.12562e-05
-3.35139e-06
1.10622e-05
-3.26132e-06
1.08739e-05
-3.16496e-06
1.06905e-05
-3.06325e-06
1.05109e-05
-2.95634e-06
1.03344e-05
-2.84382e-06
1.01606e-05
-2.72494e-06
9.98958e-06
-2.59867e-06
9.82206e-06
-2.46391e-06
9.65904e-06
-2.3196e-06
9.50153e-06
-2.16485e-06
9.34982e-06
-1.99902e-06
9.20331e-06
-1.82202e-06
9.06197e-06
-1.63449e-06
8.92925e-06
-1.4379e-06
8.81336e-06
-1.23369e-06
8.71294e-06
-1.02135e-06
8.58899e-06
-7.96091e-07
8.36241e-06
-5.65256e-07
7.92787e-06
-3.77024e-07
7.27259e-06
-2.57516e-07
6.53287e-06
-2.78271e-07
5.88217e-06
-3.81298e-07
5.45739e-06
-4.73298e-07
5.29579e-06
-4.96674e-07
5.39223e-06
-3.85789e-07
5.73462e-06
-1.97721e-07
6.23701e-06
9.83375e-08
6.78599e-06
4.90242e-07
7.32761e-06
8.99058e-07
7.83508e-06
1.29076e-06
8.29548e-06
1.65093e-06
8.70496e-06
1.97133e-06
9.06321e-06
2.25214e-06
9.37156e-06
2.49622e-06
9.63308e-06
2.7063e-06
9.85104e-06
2.88718e-06
1.0028e-05
3.04588e-06
1.01662e-05
3.19122e-06
1.02691e-05
3.33315e-06
1.03414e-05
3.48004e-06
1.03891e-05
3.63576e-06
1.04216e-05
3.80284e-06
1.04526e-05
3.97971e-06
1.04955e-05
4.1552e-06
1.05581e-05
4.3112e-06
1.06465e-05
4.42922e-06
1.07702e-05
4.4875e-06
1.09417e-05
4.45806e-06
1.11661e-05
4.3118e-06
1.14399e-05
4.02384e-06
1.17525e-05
3.57938e-06
1.20926e-05
2.98089e-06
1.24475e-05
2.24784e-06
1.28004e-05
1.41863e-06
1.31264e-05
5.57242e-07
1.34068e-05
-2.71229e-07
1.36296e-05
-1.02392e-06
1.37881e-05
-1.67164e-06
1.38814e-05
-2.20017e-06
1.39138e-05
-2.6087e-06
1.38936e-05
-2.90609e-06
1.38304e-05
-3.10654e-06
1.37319e-05
-3.22454e-06
1.36044e-05
-3.27277e-06
1.34578e-05
-3.26681e-06
1.33022e-05
-3.22444e-06
1.31446e-05
-3.15926e-06
1.29898e-05
-3.08138e-06
1.28402e-05
-2.99768e-06
1.26967e-05
-2.91247e-06
1.25592e-05
-2.82848e-06
1.24273e-05
-2.74744e-06
1.23002e-05
-2.67045e-06
1.21773e-05
-2.59817e-06
1.20576e-05
-2.53101e-06
1.19404e-05
-2.46916e-06
1.18251e-05
-2.41272e-06
1.17109e-05
-2.36168e-06
1.15972e-05
-2.316e-06
1.14836e-05
-2.27557e-06
1.13695e-05
-2.24028e-06
1.12543e-05
-2.20999e-06
1.11376e-05
-2.18451e-06
1.10189e-05
-2.16352e-06
1.08977e-05
-2.14652e-06
1.07737e-05
-2.13288e-06
1.06462e-05
-2.12198e-06
1.05141e-05
-2.11353e-06
1.03759e-05
-2.10798e-06
1.02297e-05
-2.1066e-06
1.0074e-05
-2.111e-06
9.90873e-06
-2.12179e-06
9.73648e-06
-2.13683e-06
9.5624e-06
-2.14967e-06
9.39305e-06
-2.15019e-06
9.23577e-06
-2.12711e-06
9.09765e-06
-2.0691e-06
8.98383e-06
-1.96725e-06
8.89682e-06
-1.81792e-06
8.83669e-06
-1.62314e-06
8.80164e-06
-1.38954e-06
8.78936e-06
-1.12744e-06
8.79749e-06
-8.46811e-07
8.8234e-06
-5.56609e-07
8.86507e-06
-2.66913e-07
8.92156e-06
1.56697e-08
8.99176e-06
2.87291e-07
9.07439e-06
5.44854e-07
9.16795e-06
7.85954e-07
9.27074e-06
1.00885e-06
9.38094e-06
1.21243e-06
1.39616e-06
1.30596e-05
-3.3085e-06
1.31496e-05
-3.28957e-06
1.32056e-05
-3.28519e-06
1.32184e-05
-3.2969e-06
1.31833e-05
-3.32417e-06
1.31013e-05
-3.35798e-06
1.29758e-05
-3.38959e-06
1.28144e-05
-3.41226e-06
1.2627e-05
-3.42058e-06
1.24232e-05
-3.41233e-06
1.22114e-05
-3.38741e-06
1.19983e-05
-3.347e-06
1.17875e-05
-3.29293e-06
1.15817e-05
-3.22729e-06
1.13824e-05
-3.15215e-06
1.11902e-05
-3.06912e-06
1.10047e-05
-2.97944e-06
1.08252e-05
-2.88373e-06
1.06509e-05
-2.7821e-06
1.04815e-05
-2.67436e-06
1.03166e-05
-2.5601e-06
1.01566e-05
-2.43864e-06
1.00019e-05
-2.3092e-06
9.85337e-06
-2.17107e-06
9.71216e-06
-2.02364e-06
9.57968e-06
-1.86653e-06
9.45718e-06
-1.69952e-06
9.3451e-06
-1.52241e-06
9.24269e-06
-1.33549e-06
9.14949e-06
-1.14049e-06
9.06737e-06
-9.39227e-07
9.00139e-06
-7.3011e-07
8.95637e-06
-5.20243e-07
8.8989e-06
-3.1955e-07
8.77643e-06
-1.35044e-07
8.48601e-06
1.21483e-08
7.96813e-06
1.36581e-07
7.31301e-06
1.81821e-07
6.69758e-06
1.18754e-07
6.27232e-06
3.94727e-08
6.0754e-06
-8.04954e-10
6.08551e-06
8.8232e-08
6.3101e-06
2.65648e-07
6.71135e-06
4.9781e-07
7.18573e-06
8.16373e-07
7.67087e-06
1.1658e-06
8.13188e-06
1.51032e-06
8.55228e-06
1.83174e-06
8.92331e-06
2.12519e-06
9.24364e-06
2.38597e-06
9.51451e-06
2.61631e-06
9.73813e-06
2.82226e-06
9.91816e-06
3.01119e-06
1.00608e-05
3.19052e-06
1.0174e-05
3.36687e-06
1.02661e-05
3.54365e-06
1.03477e-05
3.72125e-06
1.04317e-05
3.89565e-06
1.05303e-05
4.05663e-06
1.06525e-05
4.189e-06
1.08074e-05
4.27434e-06
1.10044e-05
4.29047e-06
1.12495e-05
4.21291e-06
1.15435e-05
4.01788e-06
1.18811e-05
3.68621e-06
1.2252e-05
3.20849e-06
1.26433e-05
2.58955e-06
1.30386e-05
1.85252e-06
1.34144e-05
1.0429e-06
1.37429e-05
2.28698e-07
1.40083e-05
-5.36627e-07
1.42008e-05
-1.21636e-06
1.43175e-05
-1.78842e-06
1.43625e-05
-2.24516e-06
1.43444e-05
-2.59063e-06
1.42743e-05
-2.83597e-06
1.41625e-05
-2.99471e-06
1.40178e-05
-3.07982e-06
1.38506e-05
-3.1056e-06
1.36729e-05
-3.08913e-06
1.34932e-05
-3.04469e-06
1.33169e-05
-2.98303e-06
1.31473e-05
-2.91171e-06
1.29852e-05
-2.83561e-06
1.28307e-05
-2.75799e-06
1.26833e-05
-2.68108e-06
1.25422e-05
-2.60638e-06
1.24066e-05
-2.53481e-06
1.22755e-05
-2.46703e-06
1.21479e-05
-2.40348e-06
1.20232e-05
-2.34443e-06
1.19006e-05
-2.29007e-06
1.17793e-05
-2.24047e-06
1.1659e-05
-2.19565e-06
1.1539e-05
-2.15557e-06
1.14188e-05
-2.12012e-06
1.1298e-05
-2.08919e-06
1.11761e-05
-2.0626e-06
1.10527e-05
-2.04007e-06
1.09273e-05
-2.02116e-06
1.07997e-05
-2.00529e-06
1.06695e-05
-1.99175e-06
1.05359e-05
-1.97994e-06
1.03977e-05
-1.96978e-06
1.02531e-05
-1.96201e-06
1.01003e-05
-1.95817e-06
9.93825e-06
-1.95975e-06
9.76807e-06
-1.96665e-06
9.59377e-06
-1.97537e-06
9.42162e-06
-1.97804e-06
9.25889e-06
-1.96438e-06
9.11346e-06
-1.92367e-06
8.992e-06
-1.84579e-06
8.89848e-06
-1.7244e-06
8.83405e-06
-1.55871e-06
8.79777e-06
-1.35325e-06
8.78659e-06
-1.11627e-06
8.79707e-06
-8.5729e-07
8.82622e-06
-5.85762e-07
8.87107e-06
-3.11763e-07
8.93005e-06
-4.33049e-08
9.00184e-06
2.155e-07
9.08512e-06
4.61575e-07
9.17846e-06
6.92612e-07
9.28033e-06
9.06984e-07
9.38911e-06
1.10366e-06
1.28214e-06
1.37764e-05
-3.23087e-06
1.36971e-05
-3.2103e-06
1.36099e-05
-3.19798e-06
1.3508e-05
-3.19497e-06
1.3385e-05
-3.20118e-06
1.32393e-05
-3.21229e-06
1.30723e-05
-3.22254e-06
1.28873e-05
-3.22732e-06
1.26898e-05
-3.22307e-06
1.24851e-05
-3.20762e-06
1.22779e-05
-3.18017e-06
1.20717e-05
-3.14082e-06
1.18692e-05
-3.09039e-06
1.1672e-05
-3.03018e-06
1.14812e-05
-2.96133e-06
1.1297e-05
-2.88485e-06
1.1119e-05
-2.8015e-06
1.0947e-05
-2.71173e-06
1.07806e-05
-2.61567e-06
1.06195e-05
-2.51325e-06
1.04637e-05
-2.40429e-06
1.03134e-05
-2.2884e-06
1.01693e-05
-2.16511e-06
1.00322e-05
-2.03396e-06
9.90313e-06
-1.89455e-06
9.78322e-06
-1.74663e-06
9.67376e-06
-1.59006e-06
9.57627e-06
-1.42492e-06
9.49255e-06
-1.25177e-06
9.42358e-06
-1.07152e-06
9.3676e-06
-8.83253e-07
9.32253e-06
-6.85033e-07
9.28839e-06
-4.86104e-07
9.26492e-06
-2.96083e-07
9.2471e-06
-1.17223e-07
9.20398e-06
5.52648e-08
9.10969e-06
2.30874e-07
8.90275e-06
3.88758e-07
8.51465e-06
5.06855e-07
7.97054e-06
5.8358e-07
7.40894e-06
5.60794e-07
6.98938e-06
5.07797e-07
6.7802e-06
4.74827e-07
6.74799e-06
5.30026e-07
6.87567e-06
6.88689e-07
7.15614e-06
8.85326e-07
7.52928e-06
1.13718e-06
7.93658e-06
1.42444e-06
8.33392e-06
1.72784e-06
8.70258e-06
2.01732e-06
9.03283e-06
2.28606e-06
9.31738e-06
2.53771e-06
9.55699e-06
2.77158e-06
9.75837e-06
2.98914e-06
9.93089e-06
3.19435e-06
1.00848e-05
3.38974e-06
1.02312e-05
3.57483e-06
1.03823e-05
3.74461e-06
1.05496e-05
3.88926e-06
1.07438e-05
3.99486e-06
1.09739e-05
4.04426e-06
1.12464e-05
4.01789e-06
1.15644e-05
3.89497e-06
1.19262e-05
3.65607e-06
1.23256e-05
3.28677e-06
1.27521e-05
2.78203e-06
1.31906e-05
2.15102e-06
1.36189e-05
1.42424e-06
1.40046e-05
6.57159e-07
1.43228e-05
-8.94864e-08
1.45598e-05
-7.73586e-07
1.47102e-05
-1.36677e-06
1.47769e-05
-1.85513e-06