/*--------------------------------*- C++ -*----------------------------------*\
| =========                 |                                                 |
| \\      /  F ield         | OpenFOAM: The Open Source CFD Toolbox           |
|  \\    /   O peration     | Version:  2206                                  |
|   \\  /    A nd           | Website:  www.openfoam.com                      |
|    \\/     M anipulation  |                                                 |
\*---------------------------------------------------------------------------*/
FoamFile
{
    version     2.0;
    format      ascii;
    arch        "LSB;label=32;scalar=64";
    class       volScalarField;
    location    "18.9999";
    object      p;
}
// * * * * * * * * * * * * * * * * * * * * * * * * * * * * * * * * * * * * * //

dimensions      [0 2 -2 0 0 0 0];

internalField   nonuniform List<scalar> 
1826
(
-0.177203
-0.196188
-0.216719
-0.237558
-0.25831
-0.27631
-0.288814
-0.294364
-0.291934
-0.281603
-0.26407
-0.240583
-0.212952
-0.183296
-0.153559
-0.124793
-0.0980446
-0.0748675
-0.0563206
-0.0425863
-0.033538
-0.0286621
-0.027438
-0.029111
-0.0328117
-0.0374577
-0.0420644
-0.0458237
-0.0493852
-0.0535075
-0.0587752
-0.0646698
-0.0718731
-0.0809049
-0.091397
-0.102947
-0.115066
-0.127277
-0.139062
-0.15009
-0.159645
-0.166517
-0.16995
-0.16943
-0.164751
-0.156113
-0.143917
-0.12891
-0.111978
-0.0940973
-0.0760649
-0.0581497
-0.0408607
-0.0251006
-0.0114773
-0.000189399
0.008699
0.015162
0.0192812
0.0212074
0.021297
0.0199295
0.0173639
0.013695
0.00878155
0.00242337
-0.0053741
-0.0144616
-0.0246705
-0.0356824
-0.0470616
-0.058309
-0.0690727
-0.0791377
-0.0879618
-0.0948757
-0.0994458
-0.101345
-0.100449
-0.0968438
-0.0907264
-0.0825147
-0.072717
-0.0618927
-0.0505929
-0.0391461
-0.0276317
-0.0164145
-0.00610179
0.00305842
0.0109912
0.0176256
0.0229101
0.0268586
0.0294999
0.0309979
0.0314142
0.030789
0.0291251
0.0264533
0.0228078
0.0182076
0.0127134
0.00647826
-0.000280824
-0.00719975
-0.0139894
-0.0204596
-0.0263529
-0.0313623
-0.0351796
-0.0375697
-0.0384106
-0.0377826
-0.0357788
-0.0326337
-0.0286507
-0.0241498
-0.0194018
-0.0145641
-0.00975677
-0.184781
-0.202259
-0.221398
-0.2417
-0.262311
-0.279908
-0.292151
-0.297533
-0.29498
-0.284732
-0.267342
-0.244233
-0.217284
-0.188613
-0.16048
-0.134023
-0.109388
-0.088254
-0.0718958
-0.0601425
-0.0527759
-0.0492721
-0.0487699
-0.0505568
-0.0538995
-0.0577625
-0.0614457
-0.0647621
-0.0674228
-0.0691835
-0.0709974
-0.0745914
-0.0793678
-0.0859058
-0.0947908
-0.10493
-0.115562
-0.126412
-0.137058
-0.147292
-0.156124
-0.1624
-0.165441
-0.164718
-0.160189
-0.151871
-0.140261
-0.126127
-0.110316
-0.0938083
-0.0775605
-0.0616164
-0.0460045
-0.0318401
-0.019804
-0.00990036
-0.00214311
0.00354002
0.0073184
0.00922449
0.00947364
0.00846725
0.00634892
0.00324982
-0.000687967
-0.0054637
-0.0113427
-0.0187316
-0.0274778
-0.0371791
-0.0472813
-0.0572499
-0.0669848
-0.0761644
-0.0841289
-0.0903624
-0.0944442
-0.0960371
-0.095121
-0.0916383
-0.0858553
-0.0782109
-0.0691921
-0.0593331
-0.0492471
-0.0392527
-0.0290406
-0.0189054
-0.00974222
-0.00164805
0.00538511
0.0112989
0.0160907
0.0197837
0.0223337
0.0239224
0.024583
0.0243156
0.0231478
0.0211254
0.018318
0.0147987
0.0104825
0.00524668
-0.000758742
-0.00684289
-0.0128837
-0.0187361
-0.0240904
-0.0286606
-0.0321757
-0.0343872
-0.0352393
-0.0347267
-0.0329652
-0.0301951
-0.026703
-0.0228107
-0.0188305
-0.0148363
-0.0107311
-0.189982
-0.20471
-0.221701
-0.240877
-0.260105
-0.276405
-0.287837
-0.292808
-0.290325
-0.280536
-0.263981
-0.242098
-0.21682
-0.190208
-0.164628
-0.141918
-0.12036
-0.101987
-0.0888147
-0.0799011
-0.0749583
-0.073379
-0.0740259
-0.0761516
-0.0792351
-0.082505
-0.0842635
-0.0846986
-0.0862215
-0.087898
-0.0878081
-0.0870767
-0.0867176
-0.0896615
-0.0966027
-0.104235
-0.112574
-0.121724
-0.130965
-0.139801
-0.147318
-0.152702
-0.155257
-0.154508
-0.150409
-0.14291
-0.132517
-0.119977
-0.106082
-0.0916996
-0.0780014
-0.0650661
-0.0516121
-0.0396933
-0.0299683
-0.0220435
-0.0159219
-0.0114374
-0.0083817
-0.00663659
-0.00607384
-0.00636151
-0.00743247
-0.00921151
-0.011721
-0.0149231
-0.0186539
-0.0230566
-0.0289744
-0.0370755
-0.0456743
-0.0538029
-0.0620842
-0.0699352
-0.0767392
-0.082077
-0.085536
-0.0868915
-0.0860946
-0.0830368
-0.0780163
-0.0714448
-0.063771
-0.0554442
-0.0470784
-0.0392533
-0.0309751
-0.0221508
-0.0146739
-0.00806542
-0.00224163
0.00270058
0.0067845
0.0100552
0.0125506
0.0144118
0.0156166
0.0161159
0.0158933
0.0149382
0.013262
0.0110399
0.00845988
0.00495104
-0.000306419
-0.0051248
-0.0099788
-0.0148528
-0.0193979
-0.0233533
-0.0264696
-0.0285114
-0.0294969
-0.0292984
-0.0280615
-0.0260228
-0.0234316
-0.0205396
-0.0177317
-0.0151193
-0.0121002
-0.190045
-0.201485
-0.216232
-0.23332
-0.250194
-0.264702
-0.274983
-0.279387
-0.277362
-0.268538
-0.253541
-0.233782
-0.21099
-0.187334
-0.164901
-0.146228
-0.128816
-0.114997
-0.105306
-0.0993539
-0.0975599
-0.0986802
-0.101086
-0.104182
-0.107108
-0.108997
-0.108762
-0.107587
-0.106298
-0.105001
-0.102368
-0.0981336
-0.0943633
-0.0931069
-0.0974233
-0.101524
-0.105881
-0.112752
-0.120074
-0.126958
-0.133051
-0.137553
-0.139712
-0.13924
-0.135894
-0.1297
-0.121097
-0.110734
-0.0993503
-0.0877166
-0.0770972
-0.067778
-0.0571652
-0.0482985
-0.0414337
-0.0358815
-0.031698
-0.0286198
-0.0264372
-0.0250112
-0.024057
-0.0234405
-0.0231903
-0.0233321
-0.0238825
-0.0248223
-0.026199
-0.028086
-0.0311606
-0.0361355
-0.0417405
-0.0470544
-0.053096
-0.0592085
-0.0646715
-0.069098
-0.0721101
-0.0735296
-0.0731816
-0.0710058
-0.0672975
-0.0624081
-0.0566842
-0.050453
-0.0442128
-0.0386673
-0.0328539
-0.0259326
-0.020617
-0.0159256
-0.0116531
-0.00790384
-0.00463424
-0.00178146
0.000704383
0.00292943
0.00484831
0.00630456
0.00725871
0.00773715
0.00767347
0.00707377
0.00646295
0.00497254
0.00146732
-0.0016108
-0.0049252
-0.00848587
-0.0119765
-0.0151734
-0.0178549
-0.0198139
-0.0210396
-0.0214205
-0.0210778
-0.0201874
-0.0189484
-0.01747
-0.016093
-0.0150802
-0.0135774
-0.179746
-0.18352
-0.191584
-0.203455
-0.217607
-0.231926
-0.244537
-0.253653
-0.257714
-0.256507
-0.249317
-0.236723
-0.219939
-0.200622
-0.180859
-0.161946
-0.144904
-0.131936
-0.124297
-0.119974
-0.118511
-0.120319
-0.123167
-0.126981
-0.131372
-0.134657
-0.136025
-0.135169
-0.132256
-0.127667
-0.121669
-0.114494
-0.106693
-0.100022
-0.0961758
-0.0948441
-0.0947058
-0.0965743
-0.101229
-0.10554
-0.109078
-0.113241
-0.11702
-0.119093
-0.119145
-0.116972
-0.112718
-0.106612
-0.0991085
-0.0908494
-0.0824656
-0.0747132
-0.0676784
-0.0607549
-0.0556334
-0.0521301
-0.0497506
-0.0479797
-0.0464936
-0.0453107
-0.044303
-0.0430297
-0.0414009
-0.0395044
-0.0374788
-0.0354244
-0.0335104
-0.0320479
-0.0315176
-0.0324268
-0.0338718
-0.0356642
-0.0387433
-0.0424302
-0.0463062
-0.0500277
-0.053232
-0.0556267
-0.0570553
-0.057353
-0.0564728
-0.0545705
-0.0518208
-0.0484219
-0.0446762
-0.0408937
-0.0373159
-0.0338524
-0.029812
-0.0266547
-0.023923
-0.0214275
-0.0191652
-0.0170115
-0.0148268
-0.0125194
-0.00973025
-0.00664348
-0.00390125
-0.00142388
0.000863356
0.00264615
0.00385312
0.00483003
0.00486796
0.0043012
0.00326173
0.00167698
-0.000300401
-0.00251072
-0.00479078
-0.0069938
-0.00898557
-0.0106648
-0.0119566
-0.0128669
-0.0134646
-0.0138356
-0.0140948
-0.0143921
-0.0148963
-0.0151208
-0.0109334
-0.012833
-0.0146833
-0.0165768
-0.170257
-0.180304
-0.191033
-0.201362
-0.210159
-0.216425
-0.219324
-0.218369
-0.213934
-0.205458
-0.193277
-0.177996
-0.16038
-0.141249
-0.121454
-0.101804
-0.0830179
-0.0657463
-0.0505014
-0.0376044
-0.0272343
-0.0194381
-0.0141523
-0.0112306
-0.0104869
-0.0117356
-0.0148329
-0.0191845
-0.0248902
-0.0318191
-0.0398263
-0.0487617
-0.0584582
-0.0687198
-0.0793076
-0.089939
-0.100293
-0.110015
-0.118731
-0.12607
-0.131636
-0.135166
-0.136338
-0.134942
-0.131465
-0.125469
-0.117131
-0.106729
-0.0947227
-0.0815056
-0.0675443
-0.0533149
-0.0392751
-0.0258471
-0.0134014
-0.00224383
0.00738653
0.0153195
0.0214432
0.0256922
0.0280459
0.0285147
0.0271241
0.0238828
0.0192528
0.013135
0.00569772
-0.00283841
-0.0122231
-0.02217
-0.0323612
-0.0424624
-0.0521268
-0.0610069
-0.0687723
-0.0751254
-0.0798203
-0.082672
-0.0835653
-0.0824578
-0.0794128
-0.0748054
-0.0685943
-0.0610421
-0.0524515
-0.0431415
-0.0334328
-0.0236354
-0.014035
-0.00488431
0.00359971
0.0112378
0.0178894
0.0234491
0.0278475
0.0310415
0.033015
0.0337851
0.033396
0.031918
0.029444
0.0260808
0.0219946
0.0173666
0.0123479
0.00712181
0.00188065
-0.0031894
-0.00791481
-0.0121424
-0.0157485
-0.0186431
-0.0207741
-0.0221312
-0.0227423
-0.0226615
-0.0219749
-0.020785
-0.0192025
-0.0173425
-0.0153184
-0.0132307
-0.168572
-0.179557
-0.191363
-0.202787
-0.212591
-0.219653
-0.223087
-0.223004
-0.218246
-0.209333
-0.196621
-0.180711
-0.162379
-0.142487
-0.121925
-0.10155
-0.0821422
-0.0643667
-0.0487354
-0.0355849
-0.0250903
-0.017281
-0.0120668
-0.00927148
-0.00867232
-0.0100455
-0.0131491
-0.0176839
-0.0235753
-0.0306662
-0.0388271
-0.0479257
-0.0578082
-0.0682902
-0.0791408
-0.0900827
-0.100789
-0.110894
-0.120008
-0.127726
-0.133651
-0.13745
-0.138859
-0.137993
-0.13417
-0.127879
-0.11925
-0.108544
-0.0961592
-0.0825397
-0.0681704
-0.0535432
-0.0391287
-0.0253601
-0.0126174
-0.00121088
0.00861994
0.0167032
0.0229305
0.0272465
0.0296377
0.0301176
0.0287351
0.0256491
0.0207827
0.0144521
0.00679644
-0.00198195
-0.0116271
-0.0218522
-0.0323425
-0.0427572
-0.0527419
-0.0619362
-0.0699932
-0.0765976
-0.0814887
-0.0844673
-0.0854005
-0.0842523
-0.0813716
-0.0764558
-0.0699608
-0.0621353
-0.053273
-0.0436962
-0.0337323
-0.023699
-0.0138876
-0.00455202
0.00408995
0.0118577
0.0186127
0.0242534
0.0287082
0.0319343
0.0339191
0.0346798
0.0342598
0.0327241
0.0301537
0.0266599
0.0224849
0.0177063
0.0125209
0.00712673
0.00172205
-0.00350001
-0.00835716
-0.0126897
-0.0163683
-0.0192999
-0.0214332
-0.0227601
-0.0233182
-0.0231551
-0.0223732
-0.02108
-0.0193928
-0.0174333
-0.0153198
-0.0131638
-0.166035
-0.178597
-0.19221
-0.205448
-0.216853
-0.225192
-0.229519
-0.229631
-0.224848
-0.215488
-0.20199
-0.185026
-0.165447
-0.144209
-0.122287
-0.100635
-0.0801238
-0.0614684
-0.0452033
-0.0316732
-0.0210394
-0.0132986
-0.0083127
-0.00585003
-0.00562572
-0.00733379
-0.0106325
-0.0155997
-0.0217976
-0.0291507
-0.0375657
-0.0469372
-0.0571367
-0.0679941
-0.0792813
-0.0907153
-0.101959
-0.112627
-0.122301
-0.130547
-0.136943
-0.141126
-0.142792
-0.141849
-0.138029
-0.131499
-0.122457
-0.111214
-0.0981906
-0.0838712
-0.0687843
-0.0534575
-0.0383931
-0.0240523
-0.0108288
0.000959862
0.0110709
0.0193349
0.0256524
0.0299764
0.0323044
0.0326728
0.0311481
0.0278259
0.0227834
0.0161698
0.00815985
-0.00103286
-0.0111446
-0.02187
-0.0328783
-0.0438122
-0.0542932
-0.06394
-0.0723823
-0.0792824
-0.0843583
-0.0874142
-0.0883566
-0.0872159
-0.08388
-0.0786567
-0.071776
-0.0635151
-0.0541968
-0.0441658
-0.0337708
-0.0233451
-0.0131861
-0.00355385
0.00533035
0.013288
0.0201803
0.0259117
0.0304127
0.0336416
0.0355849
0.0362563
0.0357011
0.0339926
0.0312315
0.0275658
0.0230755
0.0179961
0.0125025
0.00679876
0.00109832
-0.0043934
-0.00948251
-0.0139947
-0.0177902
-0.0207703
-0.0228835
-0.0241213
-0.0245241
-0.0241729
-0.0231644
-0.0216279
-0.0196952
-0.017496
-0.0151636
-0.012823
-0.163733
-0.177881
-0.193201
-0.2082
-0.221252
-0.231028
-0.236715
-0.236906
-0.232155
-0.222435
-0.208164
-0.190082
-0.169116
-0.14632
-0.122778
-0.0995556
-0.0776471
-0.0578686
-0.0408091
-0.0268322
-0.0160854
-0.00852563
-0.00393411
-0.00199231
-0.00234314
-0.0046087
-0.00844033
-0.0137481
-0.0202659
-0.0278853
-0.0365338
-0.0461443
-0.0566238
-0.0678288
-0.0795461
-0.0914915
-0.103317
-0.114615
-0.124937
-0.133811
-0.140784
-0.145463
-0.147548
-0.146523
-0.142547
-0.135663
-0.126079
-0.114144
-0.100323
-0.0851449
-0.0691867
-0.0530289
-0.0372162
-0.0222334
-0.00848806
0.00369306
0.0140587
0.0224412
0.0287824
0.0330601
0.0352834
0.0354912
0.0337518
0.0301629
0.0248088
0.0178185
0.00936099
-0.00033223
-0.0109872
-0.0222845
-0.0338692
-0.0453661
-0.0563787
-0.0665014
-0.0753366
-0.0825202
-0.0877588
-0.0908567
-0.0917096
-0.0902899
-0.0866096
-0.0809382
-0.0735303
-0.0647064
-0.054822
-0.0442443
-0.033348
-0.0224848
-0.0119605
-0.00203605
0.00707588
0.0151928
0.0221651
0.0279219
0.0323994
0.0355592
0.0373938
0.0379253
0.0371978
0.0352746
0.0322566
0.0282751
0.0234578
0.0180063
0.0121249
0.00603194
-4.17058e-05
-0.00587022
-0.0112432
-0.0159712
-0.0198973
-0.0228999
-0.0249162
-0.0259801
-0.0261356
-0.0254756
-0.0241099
-0.0221958
-0.019882
-0.0173184
-0.0146646
-0.0120531
-0.162357
-0.177517
-0.193983
-0.2102
-0.224484
-0.235337
-0.241998
-0.24274
-0.238251
-0.22835
-0.213508
-0.194521
-0.172378
-0.148224
-0.123265
-0.0986759
-0.0755291
-0.0547243
-0.0369222
-0.0225362
-0.0117091
-0.0043789
-0.00022458
0.00116774
0.000181687
-0.00273961
-0.00719743
-0.0129709
-0.0198452
-0.0276961
-0.0364867
-0.0462013
-0.0567913
-0.0681492
-0.0800897
-0.0923399
-0.104551
-0.116308
-0.127134
-0.136521
-0.143967
-0.149015
-0.151292
-0.150368
-0.146252
-0.139026
-0.128914
-0.116309
-0.10172
-0.0857187
-0.0689447
-0.0520356
-0.035573
-0.0200714
-0.00595764
0.00643831
0.016881
0.0252155
0.0314034
0.0354467
0.0373837
0.0372733
0.0352124
0.0313077
0.025637
0.0183136
0.00949977
-0.000577329
-0.0116346
-0.0233441
-0.0353435
-0.0472412
-0.0586214
-0.0690566
-0.0781285
-0.0854615
-0.090745
-0.0937627
-0.094389
-0.0926024
-0.0885059
-0.0823354
-0.0743784
-0.0649736
-0.0545261
-0.0434407
-0.032107
-0.0208871
-0.0100921
1.76973e-05
0.00921958
0.0173238
0.0242463
0.0299113
0.0342489
0.037234
0.0388703
0.0391828
0.0382106
0.036017
0.0326974
0.02837
0.0231852
0.0173362
0.0110479
0.0045581
-0.00188904
-0.00804895
-0.0136928
-0.018606
-0.0225821
-0.0254999
-0.0273772
-0.0281981
-0.0280033
-0.0269091
-0.0250526
-0.0226302
-0.0198001
-0.0167468
-0.0136577
-0.0106695
-0.163551
-0.178619
-0.1951
-0.211351
-0.225828
-0.237058
-0.243671
-0.245567
-0.241563
-0.231923
-0.217078
-0.197701
-0.174847
-0.149731
-0.123595
-0.0977662
-0.073562
-0.0520097
-0.0337544
-0.0192277
-0.00848529
-0.00156036
0.00194576
0.00262762
0.000987346
-0.00248872
-0.00742386
-0.0135728
-0.0206849
-0.0286007
-0.0373267
-0.0469109
-0.0573544
-0.068603
-0.0805184
-0.0928529
-0.105259
-0.117336
-0.128589
-0.138448
-0.14635
-0.151769
-0.154311
-0.153384
-0.149183
-0.141685
-0.131116
-0.117917
-0.102668
-0.0859776
-0.0684969
-0.0509373
-0.0339497
-0.0180759
-0.0037622
0.00866838
0.0190542
0.0272987
0.0332519
0.0369637
0.0385602
0.0381301
0.0357605
0.031531
0.0255452
0.0179245
0.00882176
-0.00153003
-0.012844
-0.0248017
-0.0370437
-0.0491729
-0.0607619
-0.0713666
-0.0805557
-0.0879424
-0.0931929
-0.0960377
-0.0963543
-0.0941609
-0.089597
-0.0829094
-0.0744277
-0.0644977
-0.0535298
-0.0419882
-0.0302857
-0.0187884
-0.00781777
0.00233714
0.0114595
0.0194914
0.0263108
0.0317497
0.0358155
0.0385176
0.0398623
0.039876
0.0386148
0.0361429
0.0325195
0.0278454
0.0222951
0.0160816
0.0094297
0.00258689
-0.00418835
-0.0106369
-0.0164989
-0.021512
-0.025487
-0.0283455
-0.0300578
-0.0305598
-0.0299268
-0.0282966
-0.0258824
-0.0228764
-0.0194668
-0.0158631
-0.0122845
-0.00888726
-0.164476
-0.179474
-0.196062
-0.212716
-0.227985
-0.24034
-0.248162
-0.250492
-0.24701
-0.237512
-0.222289
-0.202112
-0.178168
-0.151876
-0.12474
-0.0978938
-0.0725598
-0.0500992
-0.0312763
-0.0166779
-0.00631905
0.000569697
0.00418594
0.00419135
0.00160534
-0.00283898
-0.00858461
-0.0152406
-0.0225818
-0.0305093
-0.0390896
-0.0484451
-0.0586339
-0.0696288
-0.0813624
-0.0936384
-0.106125
-0.118429
-0.130069
-0.140416
-0.148802
-0.154585
-0.157148
-0.156568
-0.152358
-0.144561
-0.133481
-0.119622
-0.103625
-0.086232
-0.0681398
-0.0499932
-0.0325048
-0.0163152
-0.00188663
0.0104598
0.020574
0.028486
0.0341662
0.0375049
0.0386681
0.037837
0.035119
0.0306107
0.0244185
0.0166477
0.00743389
-0.00301588
-0.0144225
-0.0264794
-0.0388351
-0.0510904
-0.0628072
-0.0735237
-0.0827833
-0.0901723
-0.0953462
-0.0980162
-0.0980669
-0.0954866
-0.0904449
-0.0832187
-0.0741785
-0.0637581
-0.052363
-0.0404212
-0.028393
-0.0166789
-0.00560765
0.00453754
0.0135285
0.0213216
0.0279037
0.0331428
0.0369068
0.0392865
0.0403303
0.0400651
0.0385254
0.0357673
0.0318432
0.0268501
0.0209791
0.0144457
0.00747625
0.000325164
-0.00673781
-0.0134349
-0.0194687
-0.024551
-0.0285312
-0.0313363
-0.0328297
-0.0329772
-0.0318889
-0.0297372
-0.0267387
-0.0231353
-0.0191474
-0.0149739
-0.0108538
-0.165821
-0.181718
-0.199254
-0.217068
-0.233641
-0.247378
-0.256556
-0.259819
-0.257266
-0.247787
-0.231951
-0.210721
-0.185356
-0.157391
-0.128428
-0.100019
-0.0737755
-0.0506553
-0.0313472
-0.0166006
-0.00646161
-0.000416481
0.00217928
0.00246893
0.000652092
-0.00405256
-0.0101632
-0.0171942
-0.0248289
-0.0327952
-0.041223
-0.0502728
-0.0601494
-0.0709277
-0.0825774
-0.094927
-0.107647
-0.120326
-0.132435
-0.143293
-0.152202
-0.158508
-0.161639
-0.161266
-0.157028
-0.148929
-0.137335
-0.122813
-0.106042
-0.0878095
-0.068919
-0.050176
-0.0322136
-0.0156229
-0.00101386
0.0112972
0.0211669
0.0286192
0.0338753
0.0370603
0.0380538
0.0368698
0.0338389
0.0290954
0.022737
0.0148246
0.00550131
-0.005001
-0.0164432
-0.0285455
-0.0409675
-0.0533111
-0.065131
-0.0759436
-0.0852654
-0.0926851
-0.0978508
-0.10043
-0.100277
-0.0973451
-0.091841
-0.0840915
-0.0744959
-0.0635085
-0.0516218
-0.0393179
-0.0269899
-0.0150412
-0.0038739
0.00624618
0.0151125
0.0226424
0.0288697
0.0337929
0.0373275
0.0394349
0.0401694
0.0396062
0.0377873
0.0347756
0.030628
0.0253965
0.0192695
0.0124915
0.00528441
-0.00209888
-0.00937772
-0.0162579
-0.0224202
-0.0275735
-0.0315723
-0.0343187
-0.0356234
-0.0354592
-0.0339581
-0.0313073
-0.0277469
-0.0235501
-0.0189912
-0.0143251
-0.00973322
-0.166909
-0.184628
-0.203947
-0.22342
-0.241819
-0.257611
-0.268584
-0.27339
-0.270556
-0.260597
-0.243964
-0.22167
-0.195121
-0.165948
-0.135818
-0.106302
-0.0788784
-0.0547476
-0.0350102
-0.0200521
-0.00975407
-0.00416232
-0.00248959
-0.00351616
-0.00629337
-0.00993547
-0.0147718
-0.0212531
-0.0283647
-0.0361594
-0.0445494
-0.0533287
-0.0628391
-0.0732895
-0.08476
-0.0970997
-0.10997
-0.122928
-0.135388
-0.146655
-0.156124
-0.163016
-0.166577
-0.166295
-0.161867
-0.153422
-0.141381
-0.126344
-0.109073
-0.0903588
-0.0710078
-0.0518079
-0.0334887
-0.0167429
-0.00203033
0.0103425
0.0200661
0.0271348
0.0318057
0.0344124
0.0351878
0.034091
0.0310287
0.0262311
0.0199198
0.0121093
0.00285171
-0.00758377
-0.0189328
-0.0309509
-0.0433125
-0.055613
-0.0673892
-0.0781544
-0.0874945
-0.0949861
-0.100144
-0.102605
-0.102138
-0.0988608
-0.0929874
-0.0848397
-0.0748796
-0.0635923
-0.0514483
-0.038918
-0.026445
-0.0144414
-0.00323618
0.00686231
0.0155952
0.0228909
0.0287796
0.0332987
0.0365312
0.0384234
0.0389728
0.0381972
0.0361914
0.0330322
0.0287876
0.0234759
0.0172446
0.010364
0.00305499
-0.00442963
-0.0118008
-0.0187497
-0.0249518
-0.0301478
-0.0341961
-0.0368934
-0.0380215
-0.0375945
-0.0357736
-0.0327568
-0.0287995
-0.0241889
-0.0192075
-0.01412
-0.00916818
-0.170548
-0.189514
-0.210094
-0.230718
-0.250644
-0.268018
-0.280107
-0.285435
-0.282919
-0.272673
-0.255436
-0.232301
-0.204916
-0.175134
-0.14463
-0.114774
-0.0871194
-0.0630639
-0.0434728
-0.0286498
-0.018808
-0.013455
-0.0119011
-0.013594
-0.0174204
-0.0217385
-0.0261288
-0.0306219
-0.0361607
-0.042382
-0.04936
-0.0574971
-0.066633
-0.0766513
-0.0877717
-0.0998992
-0.112648
-0.125517
-0.137912
-0.149303
-0.159101
-0.166242
-0.169911
-0.16959
-0.16499
-0.156336
-0.14403
-0.128745
-0.111353
-0.0927418
-0.0736389
-0.0546091
-0.0364101
-0.0198215
-0.0053426
0.00667251
0.0160894
0.0229703
0.0273305
0.0294386
0.0297292
0.0285528
0.0258482
0.0215076
0.0155218
0.00813516
-0.000652108
-0.0107365
-0.0217772
-0.0334829
-0.0455278
-0.0574958
-0.0689345
-0.0794587
-0.0887052
-0.0960757
-0.101035
-0.103257
-0.102533
-0.0990156
-0.092909
-0.0845666
-0.0744839
-0.0632035
-0.0512298
-0.0389441
-0.0266589
-0.0148096
-0.00385285
0.00591675
0.0143507
0.0214027
0.0270346
0.0312241
0.0340857
0.0357275
0.0361729
0.0354113
0.0334496
0.0303461
0.0261938
0.0210389
0.0149784
0.00823929
0.00105541
-0.00629746
-0.0135135
-0.0203001
-0.0264071
-0.0316015
-0.035623
-0.0381867
-0.0391384
-0.038548
-0.0365465
-0.0333496
-0.0292392
-0.0245149
-0.0194448
-0.0142497
-0.00915982
)
;

boundaryField
{
    inlet
    {
        type            zeroGradient;
    }
    outlet
    {
        type            fixedValue;
        value           nonuniform List<scalar> 0();
    }
    topWall
    {
        type            zeroGradient;
    }
    lowerWall
    {
        type            zeroGradient;
    }
    leadingEdge
    {
        type            zeroGradient;
    }
    trailingEdge
    {
        type            zeroGradient;
    }
    upperSurface
    {
        type            zeroGradient;
    }
    lowerSurface
    {
        type            zeroGradient;
    }
    frontAndBack
    {
        type            empty;
    }
    procBoundary2to1
    {
        type            processor;
        value           nonuniform List<scalar> 
16
(
-0.161823
-0.1708
-0.178595
-0.182207
-0.182207
-0.181483
-0.161826
-0.159452
-0.155757
-0.152312
-0.150184
-0.151496
-0.152474
-0.152942
-0.152474
-0.155117
)
;
    }
    procBoundary2to3
    {
        type            processor;
        value           nonuniform List<scalar> 
16
(
-0.00521347
-0.00678369
-0.00910319
-0.0118832
-0.0147231
-0.011168
-0.0110555
-0.0105635
-0.00957083
-0.00789364
-0.0057941
-0.00699555
-0.00699555
-0.00542523
-0.00454333
-0.00441108
)
;
    }
    procBoundary2to6
    {
        type            processor;
        value           nonuniform List<scalar> 
123
(
-0.171731
-0.172162
-0.176067
-0.18405
-0.195245
-0.206987
-0.217566
-0.225539
-0.229809
-0.229564
-0.224481
-0.215052
-0.201953
-0.186272
-0.169437
-0.153279
-0.140522
-0.134461
-0.131269
-0.130663
-0.133057
-0.137895
-0.144042
-0.150541
-0.156343
-0.160211
-0.161198
-0.159365
-0.154393
-0.14682
-0.13727
-0.126503
-0.115739
-0.105881
-0.0981694
-0.0907259
-0.0855323
-0.0837297
-0.0845545
-0.0868673
-0.0893239
-0.0916448
-0.0940898
-0.0960138
-0.0968523
-0.0962163
-0.0941908
-0.0907404
-0.0859222
-0.0807728
-0.0760135
-0.0716192
-0.0672914
-0.0648524
-0.063658
-0.0636414
-0.0642895
-0.0646457
-0.0646351
-0.0644093
-0.0636051
-0.0619249
-0.0593163
-0.0557833
-0.051509
-0.0468117
-0.0420436
-0.0376131
-0.0341952
-0.0323198
-0.0304451
-0.0287275
-0.0288224
-0.02985
-0.0317419
-0.0341637
-0.0365438
-0.0386785
-0.040562
-0.0418672
-0.0423148
-0.0421246
-0.0414656
-0.0403869
-0.0390325
-0.0375404
-0.0359709
-0.0348356
-0.0342164
-0.0334063
-0.0326623
-0.0318856
-0.0309143
-0.0296339
-0.0278316
-0.0253476
-0.0221406
-0.0184137
-0.0144253
-0.0102287
-0.00601211
-0.00211569
0.00128757
0.00408424
0.00597878
0.00811153
0.00900089
0.00908766
0.00854864
0.00735736
0.00570197
0.0037836
0.00163936
-0.000571458
-0.00277658
-0.00492285
-0.0070027
-0.00899204
-0.00899204
-0.00758996
-0.0110678
-0.0141003
-0.0175848
)
;
    }
    procBoundary2to7
    {
        type            processor;
        value           uniform -0.0180089;
    }
}


// ************************************************************************* //
