/*--------------------------------*- C++ -*----------------------------------*\
| =========                 |                                                 |
| \\      /  F ield         | OpenFOAM: The Open Source CFD Toolbox           |
|  \\    /   O peration     | Version:  2206                                  |
|   \\  /    A nd           | Website:  www.openfoam.com                      |
|    \\/     M anipulation  |                                                 |
\*---------------------------------------------------------------------------*/
FoamFile
{
    version     2.0;
    format      ascii;
    arch        "LSB;label=32;scalar=64";
    class       surfaceScalarField;
    location    "19.7001";
    object      phi;
}
// * * * * * * * * * * * * * * * * * * * * * * * * * * * * * * * * * * * * * //

dimensions      [0 3 -1 0 0 0 0];

oriented        oriented;

internalField   nonuniform List<scalar> 
5904
(
8.94842e-06
-3.23309e-06
3.14363e-06
9.03896e-06
-3.1953e-06
3.10476e-06
9.13109e-06
-3.09209e-06
2.99997e-06
9.22618e-06
-2.91603e-06
2.82094e-06
9.32481e-06
-2.66091e-06
2.56229e-06
9.4264e-06
-2.32423e-06
2.22264e-06
9.52948e-06
-1.90897e-06
1.80589e-06
9.63183e-06
-1.42452e-06
1.32217e-06
9.73012e-06
-8.87245e-07
7.88961e-07
9.8187e-06
-3.22327e-07
2.33742e-07
9.89241e-06
2.36929e-07
-3.10635e-07
9.94773e-06
7.66844e-07
-8.2217e-07
9.98202e-06
1.24907e-06
-1.28336e-06
9.99373e-06
1.66995e-06
-1.68165e-06
9.98237e-06
2.02079e-06
-2.00944e-06
9.94838e-06
2.29823e-06
-2.26424e-06
9.89247e-06
2.50357e-06
-2.44766e-06
9.81416e-06
2.64113e-06
-2.56282e-06
9.71085e-06
2.71564e-06
-2.61233e-06
9.58336e-06
2.73174e-06
-2.60425e-06
9.43642e-06
2.70167e-06
-2.55473e-06
9.27523e-06
2.63952e-06
-2.47833e-06
9.10569e-06
2.55481e-06
-2.38527e-06
8.93407e-06
2.45145e-06
-2.27983e-06
8.76616e-06
2.32808e-06
-2.16018e-06
8.60668e-06
2.17976e-06
-2.02029e-06
8.45929e-06
2.00039e-06
-1.853e-06
8.32697e-06
1.78493e-06
-1.65261e-06
8.21235e-06
1.53072e-06
-1.4161e-06
8.11794e-06
1.23798e-06
-1.14357e-06
8.04601e-06
9.09968e-07
-8.38042e-07
7.99839e-06
5.52871e-07
-5.05244e-07
7.97606e-06
1.75672e-07
-1.53349e-07
7.97874e-06
-2.09414e-07
2.06736e-07
8.00475e-06
-5.8818e-07
5.62174e-07
8.05162e-06
-9.50147e-07
9.03278e-07
8.1162e-06
-1.2857e-06
1.22112e-06
8.19479e-06
-1.5866e-06
1.50801e-06
8.28336e-06
-1.84661e-06
1.75804e-06
8.3779e-06
-2.06193e-06
1.96739e-06
8.47496e-06
-2.23153e-06
2.13447e-06
8.57197e-06
-2.35646e-06
2.25945e-06
8.66768e-06
-2.43888e-06
2.34317e-06
8.76243e-06
-2.48004e-06
2.38529e-06
8.85628e-06
-2.47613e-06
2.38227e-06
8.94822e-06
-2.42374e-06
2.3318e-06
9.0378e-06
-2.32338e-06
2.2338e-06
9.12523e-06
-2.17628e-06
2.08886e-06
9.21079e-06
-1.98348e-06
1.89791e-06
9.29457e-06
-1.74609e-06
1.66231e-06
9.37626e-06
-1.46586e-06
1.38417e-06
9.45511e-06
-1.14577e-06
1.06692e-06
9.52989e-06
-7.9084e-07
7.16064e-07
9.59851e-06
-4.09193e-07
3.40567e-07
9.65723e-06
-1.42977e-08
-4.44225e-08
9.70316e-06
3.75342e-07
-4.21269e-07
9.73411e-06
7.46137e-07
-7.77083e-07
9.74832e-06
1.0862e-06
-1.10041e-06
9.7447e-06
1.38578e-06
-1.38216e-06
9.72292e-06
1.63788e-06
-1.61611e-06
9.68332e-06
1.83871e-06
-1.79912e-06
9.62648e-06
1.98766e-06
-1.93083e-06
9.55212e-06
2.08615e-06
-2.01179e-06
9.45924e-06
2.13556e-06
-2.04268e-06
9.35046e-06
2.1377e-06
-2.02892e-06
9.23024e-06
2.09985e-06
-1.97963e-06
9.10339e-06
2.02954e-06
-1.90269e-06
8.97498e-06
1.93225e-06
-1.80384e-06
8.84954e-06
1.81156e-06
-1.68612e-06
8.73068e-06
1.66895e-06
-1.55009e-06
8.62115e-06
1.50425e-06
-1.39471e-06
8.5231e-06
1.31656e-06
-1.21851e-06
8.43835e-06
1.10522e-06
-1.02047e-06
8.36853e-06
8.70431e-07
-8.00611e-07
8.31508e-06
6.13825e-07
-5.60377e-07
8.27918e-06
3.38867e-07
-3.02962e-07
8.26157e-06
5.12624e-08
-3.36513e-08
8.26216e-06
-2.40107e-07
2.39519e-07
8.27996e-06
-5.25605e-07
5.07795e-07
8.3134e-06
-7.97414e-07
7.63975e-07
8.36033e-06
-1.04814e-06
1.00121e-06
8.41817e-06
-1.27141e-06
1.21358e-06
8.48408e-06
-1.46243e-06
1.39651e-06
8.55523e-06
-1.61823e-06
1.54708e-06
8.62913e-06
-1.73781e-06
1.66391e-06
8.70414e-06
-1.82184e-06
1.74682e-06
8.77997e-06
-1.87158e-06
1.79576e-06
8.85702e-06
-1.88563e-06
1.80858e-06
8.93428e-06
-1.85984e-06
1.78258e-06
9.01041e-06
-1.79394e-06
1.71781e-06
9.08458e-06
-1.68962e-06
1.61544e-06
9.15647e-06
-1.5493e-06
1.47742e-06
9.2259e-06
-1.37547e-06
1.30604e-06
9.29272e-06
-1.17068e-06
1.10385e-06
9.35668e-06
-9.37714e-07
8.73757e-07
9.41725e-06
-6.80031e-07
6.19458e-07
9.47337e-06
-4.02486e-07
3.46373e-07
9.52263e-06
-1.12803e-07
6.3538e-08
9.56245e-06
1.76721e-07
-2.16541e-07
9.59101e-06
4.55807e-07
-4.84367e-07
9.60673e-06
7.15902e-07
-7.31624e-07
9.60854e-06
9.49584e-07
-9.51388e-07
9.59598e-06
1.15111e-06
-1.13856e-06
9.56927e-06
1.31689e-06
-1.29019e-06
9.52916e-06
1.4455e-06
-1.40538e-06
9.47622e-06
1.53727e-06
-1.48433e-06
9.41006e-06
1.59315e-06
-1.52699e-06
9.33114e-06
1.6134e-06
-1.53449e-06
9.24265e-06
1.60005e-06
-1.51155e-06
9.14815e-06
1.55765e-06
-1.46316e-06
9.05159e-06
1.49001e-06
-1.39345e-06
8.95672e-06
1.40025e-06
-1.30538e-06
8.86658e-06
1.29071e-06
-1.20058e-06
8.78354e-06
1.16266e-06
-1.07961e-06
8.70935e-06
1.01671e-06
-9.42522e-07
8.64539e-06
8.53345e-07
-7.89387e-07
8.59276e-06
6.73379e-07
-6.20743e-07
8.55235e-06
4.78284e-07
-4.37875e-07
8.52488e-06
2.70575e-07
-2.43108e-07
8.51078e-06
5.4261e-08
-4.01628e-08
-1.64216e-07
1.6509e-07
8.8977e-06
-3.28758e-06
8.95221e-06
-3.24981e-06
9.0064e-06
-3.14628e-06
9.06373e-06
-2.97337e-06
9.126e-06
-2.72318e-06
9.19379e-06
-2.39201e-06
9.26675e-06
-1.98193e-06
9.34375e-06
-1.50151e-06
9.42278e-06
-9.66277e-07
9.49971e-06
-3.99262e-07
9.56942e-06
1.67223e-07
9.6281e-06
7.0816e-07
9.67234e-06
1.20482e-06
9.69951e-06
1.64278e-06
9.70801e-06
2.01229e-06
9.6972e-06
2.30904e-06
9.66712e-06
2.53365e-06
9.61778e-06
2.69047e-06
9.54738e-06
2.78604e-06
9.45337e-06
2.82575e-06
9.3389e-06
2.81614e-06
9.20865e-06
2.76977e-06
9.068e-06
2.69546e-06
8.9229e-06
2.59655e-06
8.77898e-06
2.47201e-06
8.6409e-06
2.31784e-06
8.51243e-06
2.12886e-06
8.39674e-06
1.90062e-06
8.29672e-06
1.63073e-06
8.21507e-06
1.31963e-06
8.15414e-06
9.70899e-07
8.11575e-06
5.91262e-07
8.10082e-06
1.90603e-07
8.1087e-06
-2.17291e-07
8.13752e-06
-6.17001e-07
8.18468e-06
-9.97312e-07
8.24696e-06
-1.34798e-06
8.32058e-06
-1.66022e-06
8.40152e-06
-1.92754e-06
8.48575e-06
-2.14617e-06
8.56987e-06
-2.31565e-06
8.65127e-06
-2.43786e-06
8.72864e-06
-2.51625e-06
8.80266e-06
-2.55405e-06
8.87412e-06
-2.54759e-06
8.94193e-06
-2.49155e-06
9.00626e-06
-2.38772e-06
9.06815e-06
-2.23816e-06
9.12865e-06
-2.04398e-06
9.18856e-06
-1.806e-06
9.24823e-06
-1.52553e-06
9.30753e-06
-1.20507e-06
9.36582e-06
-8.49127e-07
9.42174e-06
-4.6511e-07
9.47258e-06
-6.51368e-08
9.51536e-06
3.32554e-07
9.54794e-06
7.13559e-07
9.56833e-06
1.06581e-06
9.57501e-06
1.37909e-06
9.56709e-06
1.64581e-06
9.54435e-06
1.86145e-06
9.5072e-06
2.02482e-06
9.45597e-06
2.13738e-06
9.38959e-06
2.20195e-06
9.30726e-06
2.22003e-06
9.21249e-06
2.19462e-06
9.10946e-06
2.13257e-06
9.00298e-06
2.03872e-06
8.89748e-06
1.91706e-06
8.79649e-06
1.76995e-06
8.70285e-06
1.59789e-06
8.61886e-06
1.40055e-06
8.54646e-06
1.17762e-06
8.48732e-06
9.29568e-07
8.44287e-06
6.58274e-07
8.41421e-06
3.67529e-07
8.40197e-06
6.35097e-08
8.40587e-06
-2.44012e-07
8.42484e-06
-5.44578e-07
8.45728e-06
-8.29852e-07
8.50109e-06
-1.09194e-06
8.55374e-06
-1.32407e-06
8.61245e-06
-1.52113e-06
8.67437e-06
-1.68016e-06
8.73696e-06
-1.80039e-06
8.79848e-06
-1.88336e-06
8.85879e-06
-1.93189e-06
8.91912e-06
-1.94596e-06
8.9788e-06
-1.91952e-06
9.03637e-06
-1.85151e-06
9.09152e-06
-1.74477e-06
9.14452e-06
-1.6023e-06
9.19577e-06
-1.42672e-06
9.24558e-06
-1.22048e-06
9.29406e-06
-9.86202e-07
9.34109e-06
-7.27055e-07
9.38605e-06
-4.47444e-07
9.4274e-06
-1.5416e-07
9.46274e-06
1.41387e-07
9.4904e-06
4.28149e-07
9.50877e-06
6.97525e-07
9.51657e-06
9.41784e-07
9.51298e-06
1.15471e-06
9.49778e-06
1.3321e-06
9.47137e-06
1.4719e-06
9.43452e-06
1.57413e-06
9.38739e-06
1.64028e-06
9.32906e-06
1.67173e-06
9.26059e-06
1.66852e-06
9.18493e-06
1.63331e-06
9.10573e-06
1.56921e-06
9.02663e-06
1.47934e-06
8.95064e-06
1.36671e-06
8.8801e-06
1.2332e-06
8.81688e-06
1.07992e-06
8.76243e-06
9.07796e-07
8.71788e-06
7.17928e-07
8.68413e-06
5.12038e-07
8.66183e-06
2.92876e-07
8.65133e-06
6.4759e-08
-1.65284e-07
8.86593e-06
-3.30864e-06
8.88183e-06
-3.26572e-06
8.89739e-06
-3.16184e-06
8.9169e-06
-2.99288e-06
8.94287e-06
-2.74915e-06
8.97668e-06
-2.42582e-06
9.01896e-06
-2.02421e-06
9.0697e-06
-1.55226e-06
9.12796e-06
-1.02454e-06
9.191e-06
-4.62303e-07
9.25415e-06
1.04067e-07
9.3136e-06
6.48713e-07
9.36552e-06
1.15291e-06
9.40644e-06
1.60185e-06
9.43369e-06
1.98505e-06
9.44529e-06
2.29744e-06
9.44017e-06
2.53876e-06
9.41794e-06
2.7127e-06
9.37797e-06
2.82602e-06
9.31773e-06
2.88599e-06
9.23614e-06
2.89773e-06
9.13742e-06
2.86849e-06
9.02657e-06
2.80631e-06
8.90949e-06
2.71363e-06
8.7916e-06
2.58989e-06
8.67735e-06
2.4321e-06
8.57043e-06
2.23578e-06
8.47415e-06
1.9969e-06
8.39157e-06
1.71332e-06
8.32541e-06
1.38579e-06
8.27794e-06
1.01837e-06
8.25087e-06
6.18333e-07
8.24487e-06
1.96601e-07
8.25884e-06
-2.3126e-07
8.29073e-06
-6.48897e-07
8.33781e-06
-1.04439e-06
8.39674e-06
-1.40691e-06
8.4638e-06
-1.72729e-06
8.53525e-06
-1.99899e-06
8.60743e-06
-2.21835e-06
8.67707e-06
-2.38528e-06
8.74138e-06
-2.50217e-06
8.79894e-06
-2.57381e-06
8.8507e-06
-2.60581e-06
8.89892e-06
-2.59582e-06
8.94127e-06
-2.53389e-06
8.97896e-06
-2.42541e-06
9.01413e-06
-2.27333e-06
9.04859e-06
-2.07845e-06
9.08376e-06
-1.84117e-06
9.12054e-06
-1.56232e-06
9.1594e-06
-1.24393e-06
9.20029e-06
-8.90017e-07
9.24254e-06
-5.07361e-07
9.28425e-06
-1.06847e-07
9.32266e-06
2.9414e-07
9.35563e-06
6.80598e-07
9.38098e-06
1.04046e-06
9.39684e-06
1.36323e-06
9.40175e-06
1.6409e-06
9.39485e-06
1.86836e-06
9.37601e-06
2.04365e-06
9.34577e-06
2.16762e-06
9.3042e-06
2.24352e-06
9.24919e-06
2.27504e-06
9.18086e-06
2.26295e-06
9.10274e-06
2.21069e-06
9.0198e-06
2.12166e-06
8.93615e-06
2.00071e-06
8.85519e-06
1.8509e-06
8.77974e-06
1.67334e-06
8.71213e-06
1.46816e-06
8.65435e-06
1.2354e-06
8.60802e-06
9.75894e-07
8.57448e-06
6.91816e-07
8.55468e-06
3.87326e-07
8.54906e-06
6.91345e-08
8.55703e-06
-2.51987e-07
8.57739e-06
-5.64939e-07
8.60854e-06
-8.60998e-07
8.64845e-06
-1.13186e-06
8.69481e-06
-1.37042e-06
8.74506e-06
-1.57138e-06
8.79662e-06
-1.73172e-06
8.8469e-06
-1.85067e-06
8.89399e-06
-1.93045e-06
8.93763e-06
-1.97553e-06
8.98011e-06
-1.98845e-06
9.02138e-06
-1.96079e-06
9.05908e-06
-1.88921e-06
9.09386e-06
-1.77955e-06
9.12678e-06
-1.63523e-06
9.15886e-06
-1.45879e-06
9.19085e-06
-1.25248e-06
9.22323e-06
-1.01858e-06
9.25612e-06
-7.59945e-07
9.28928e-06
-4.806e-07
9.32181e-06
-1.86695e-07
9.35171e-06
1.11493e-07
9.37742e-06
4.02437e-07
9.39737e-06
6.7757e-07
9.41013e-06
9.2903e-07
9.41455e-06
1.15029e-06
9.40995e-06
1.33669e-06
9.39631e-06
1.48555e-06
9.37425e-06
1.59619e-06
9.34458e-06
1.66995e-06
9.30686e-06
1.70944e-06
9.2593e-06
1.71609e-06
9.20338e-06
1.68923e-06
9.14284e-06
1.62975e-06
9.08106e-06
1.54112e-06
9.02088e-06
1.42689e-06
8.96464e-06
1.28944e-06
8.91419e-06
1.13037e-06
8.87098e-06
9.51001e-07
8.83614e-06
7.52773e-07
8.81048e-06
5.37693e-07
8.79458e-06
3.08777e-07
8.78866e-06
7.06798e-08
-1.68955e-07
8.85103e-06
-3.29565e-06
8.82839e-06
-3.24308e-06
8.80657e-06
-3.14002e-06
8.78947e-06
-2.97578e-06
8.78009e-06
-2.73977e-06
8.78066e-06
-2.42639e-06
8.79275e-06
-2.0363e-06
8.81737e-06
-1.57687e-06
8.85446e-06
-1.06163e-06
8.90261e-06
-5.1045e-07
8.9577e-06
4.89715e-08
9.01601e-06
5.90411e-07
9.07336e-06
1.09556e-06
9.12567e-06
1.54955e-06
9.16948e-06
1.94123e-06
9.20149e-06
2.26543e-06
9.21943e-06
2.52082e-06
9.22221e-06
2.70992e-06
9.20927e-06
2.83896e-06
9.17949e-06
2.91577e-06
9.13135e-06
2.94588e-06
9.06507e-06
2.93477e-06
8.98501e-06
2.88637e-06
8.89743e-06
2.80121e-06
8.80737e-06
2.67995e-06
8.71896e-06
2.52051e-06
8.63589e-06
2.31885e-06
8.56157e-06
2.07122e-06
8.49904e-06
1.77585e-06
8.45084e-06
1.43399e-06
8.41904e-06
1.05017e-06
8.40506e-06
6.32317e-07
8.40919e-06
1.92468e-07
8.42986e-06
-2.51927e-07
8.46487e-06
-6.83905e-07
8.51124e-06
-1.09077e-06
8.56551e-06
-1.46117e-06
8.62408e-06
-1.78586e-06
8.68373e-06
-2.05864e-06
8.74167e-06
-2.27629e-06
8.79509e-06
-2.43869e-06
8.84117e-06
-2.54826e-06
8.87788e-06
-2.61052e-06
8.90614e-06
-2.63408e-06
8.93011e-06
-2.61979e-06
8.9456e-06
-2.54938e-06
8.95563e-06
-2.43544e-06
8.96348e-06
-2.28118e-06
8.97152e-06
-2.08648e-06
8.98162e-06
-1.85127e-06
8.99522e-06
-1.57591e-06
9.01326e-06
-1.26197e-06
9.03625e-06
-9.13002e-07
9.06408e-06
-5.35191e-07
9.09571e-06
-1.38478e-07
9.12875e-06
2.61098e-07
9.1611e-06
6.48248e-07
9.19039e-06
1.01117e-06
9.21439e-06
1.33922e-06
9.23118e-06
1.62411e-06
9.23925e-06
1.86029e-06
9.23803e-06
2.04487e-06
9.2277e-06
2.17795e-06
9.2088e-06
2.26241e-06
9.18079e-06
2.30306e-06
9.13954e-06
2.3042e-06
9.08571e-06
2.26452e-06
9.02707e-06
2.1803e-06
8.96669e-06
2.06108e-06
8.90752e-06
1.91007e-06
8.85215e-06
1.72871e-06
8.80287e-06
1.51744e-06
8.7616e-06
1.27667e-06
8.72988e-06
1.00762e-06
8.70886e-06
7.12834e-07
8.6993e-06
3.96886e-07
8.70136e-06
6.7077e-08
8.71406e-06
-2.64684e-07
8.73605e-06
-5.86926e-07
8.76559e-06
-8.90543e-07
8.80068e-06
-1.16694e-06
8.83927e-06
-1.40901e-06
8.8794e-06
-1.61151e-06
8.91907e-06
-1.77139e-06
8.95618e-06
-1.88779e-06
8.98862e-06
-1.96288e-06
9.01516e-06
-2.00207e-06
9.03868e-06
-2.01198e-06
9.06044e-06
-1.98255e-06
9.07688e-06
-1.90565e-06
9.09026e-06
-1.79293e-06
9.10251e-06
-1.64748e-06
9.11502e-06
-1.4713e-06
9.12882e-06
-1.26628e-06
9.14466e-06
-1.03442e-06
9.163e-06
-7.78286e-07
9.18396e-06
-5.01559e-07
9.20709e-06
-2.09825e-07
9.23085e-06
8.77313e-08
9.25383e-06
3.79457e-07
9.2745e-06
6.56897e-07
9.29132e-06
9.12208e-07
9.30293e-06
1.13868e-06
9.30823e-06
1.33139e-06
9.30679e-06
1.48699e-06
9.29893e-06
1.60404e-06
9.28551e-06
1.68338e-06
9.26697e-06
1.72798e-06
9.24118e-06
1.74187e-06
9.20437e-06
1.72604e-06
9.16279e-06
1.67133e-06
9.11942e-06
1.58449e-06
9.07654e-06
1.46977e-06
9.03619e-06
1.32979e-06
9.00008e-06
1.16648e-06
8.9696e-06
9.81479e-07
8.94582e-06
7.76554e-07
8.92949e-06
5.54025e-07
8.92106e-06
3.17209e-07
8.92059e-06
7.11434e-08
-1.75854e-07
8.84863e-06
8.79209e-06
8.73536e-06
8.68347e-06
8.64042e-06
8.60927e-06
8.59243e-06
8.59165e-06
8.6078e-06
8.64041e-06
8.68618e-06
8.74154e-06
8.80217e-06
8.86353e-06
8.92138e-06
8.97152e-06
9.01062e-06
9.03654e-06
9.04846e-06
9.04676e-06
9.03084e-06
8.99775e-06
8.94757e-06
8.88993e-06
8.82881e-06
8.76785e-06
8.71072e-06
8.66075e-06
8.62064e-06
8.59259e-06
8.57834e-06
8.57881e-06
8.59387e-06
8.62152e-06
8.65934e-06
8.70415e-06
8.75244e-06
8.80082e-06
8.84647e-06
8.88723e-06
8.92112e-06
8.94677e-06
8.96323e-06
8.96973e-06
8.96573e-06
8.95322e-06
8.93562e-06
8.91607e-06
8.89776e-06
8.88309e-06
8.87385e-06
8.87137e-06
8.87658e-06
8.88985e-06
8.91081e-06
8.93754e-06
8.96812e-06
9.00014e-06
9.03113e-06
9.05872e-06
9.08092e-06
9.09656e-06
9.10533e-06
9.1076e-06
9.10353e-06
9.08906e-06
9.06053e-06
9.02679e-06
8.99054e-06
8.95426e-06
8.92031e-06
8.89083e-06
8.86757e-06
8.85187e-06
8.84467e-06
8.84645e-06
8.85698e-06
8.87488e-06
8.89862e-06
8.92627e-06
8.95586e-06
8.98554e-06
9.01377e-06
9.03932e-06
9.06131e-06
9.07863e-06
9.08945e-06
9.0947e-06
9.09396e-06
9.08844e-06
9.08035e-06
9.07158e-06
9.06407e-06
9.05934e-06
9.05849e-06
9.06223e-06
9.07092e-06
9.08441e-06
9.1017e-06
9.12145e-06
9.1422e-06
9.16237e-06
9.18042e-06
9.19508e-06
9.20552e-06
9.21153e-06
9.21345e-06
9.21179e-06
9.20533e-06
9.18861e-06
9.16648e-06
9.14214e-06
9.11732e-06
9.09379e-06
9.07308e-06
9.05643e-06
9.0448e-06
9.03882e-06
9.03879e-06
9.04456e-06
-1.18689e-07
-4.96013e-08
-8.06391e-08
-3.80499e-08
-5.61189e-08
-2.45202e-08
-4.6349e-08
-9.76993e-09
-5.02221e-08
3.87305e-09
-6.71174e-08
1.68954e-08
-9.5366e-08
2.82486e-08
-1.31955e-07
3.65886e-08
-1.73138e-07
4.11834e-08
-2.14614e-07
4.14761e-08
-2.51739e-07
3.71251e-08
-2.80081e-07
2.83421e-08
-2.96081e-07
1.59993e-08
-2.98022e-07
1.94102e-09
-2.8735e-07
-1.06716e-08
-2.63969e-07
-2.33809e-08
-2.30569e-07
-3.33997e-08
-1.9065e-07
-3.99191e-08
-1.47871e-07
-4.27789e-08
-1.05712e-07
-4.21589e-08
-6.7367e-08
-3.83454e-08
-3.54735e-08
-3.18935e-08
-1.17237e-08
-2.37498e-08
3.35759e-09
-1.50813e-08
1.00452e-08
-6.68765e-09
9.63349e-09
4.11751e-10
3.75732e-09
5.87617e-09
-5.25492e-09
9.01224e-09
-1.52931e-08
1.00382e-08
-2.35624e-08
8.26931e-09
-2.75143e-08
3.95191e-09
-2.59691e-08
-1.5452e-09
-1.79816e-08
-7.98754e-09
-3.05894e-09
-1.49226e-08
1.80201e-08
-2.10791e-08
4.49115e-08
-2.68914e-08
7.60836e-08
-3.11721e-08
1.09855e-07
-3.37713e-08
1.44538e-07
-3.46832e-08
1.78518e-07
-3.39796e-08
2.10284e-07
-3.17666e-08
2.38481e-07
-2.81962e-08
2.62008e-07
-2.35279e-08
2.80196e-07
-1.81873e-08
2.92896e-07
-1.27007e-08
3.00304e-07
-7.40778e-09
3.0312e-07
-2.8156e-09
3.02321e-07
7.99119e-10
2.9885e-07
3.47095e-09
2.93884e-07
4.96585e-09
2.88567e-07
5.31679e-09
2.8398e-07
4.58703e-09
2.81007e-07
2.97262e-09
2.80337e-07
6.70422e-10
2.81818e-07
-1.48073e-09
2.85687e-07
-3.86934e-09
2.91664e-07
-5.97668e-09
2.99235e-07
-7.57099e-09
3.07753e-07
-8.51852e-09
3.16517e-07
-8.76415e-09
3.24834e-07
-8.31651e-09
3.32093e-07
-7.25891e-09
3.37825e-07
-5.73261e-09
3.41767e-07
-3.94119e-09
3.43873e-07
-2.10594e-09
3.44319e-07
-4.46869e-10
3.43472e-07
8.47432e-10
3.41852e-07
1.62027e-09
3.40106e-07
1.74603e-09
3.38967e-07
1.13906e-09
3.39045e-07
-7.80697e-11
3.40644e-07
-1.59933e-09
3.44295e-07
-3.65102e-09
3.50272e-07
-5.97639e-09
3.5866e-07
-8.38844e-09
3.69379e-07
-1.0719e-08
3.82212e-07
-1.2833e-08
3.96842e-07
-1.46296e-08
4.12882e-07
-1.60404e-08
4.29908e-07
-1.70261e-08
4.47473e-07
-1.7565e-08
4.65115e-07
-1.76421e-08
4.82369e-07
-1.72539e-08
4.98787e-07
-1.64177e-08
5.13972e-07
-1.51854e-08
5.27618e-07
-1.36458e-08
5.39529e-07
-1.19109e-08
5.49614e-07
-1.00852e-08
5.57876e-07
-8.26177e-09
5.64397e-07
-6.52139e-09
5.6933e-07
-4.93319e-09
5.72873e-07
-3.54252e-09
5.75241e-07
-2.36831e-09
5.76657e-07
-1.41633e-09
5.77329e-07
-6.71848e-10
5.77451e-07
-1.2186e-10
5.77217e-07
2.33734e-10
5.76712e-07
5.05224e-10
5.76e-07
7.12426e-10
5.75097e-07
9.03152e-10
5.73982e-07
1.11452e-09
5.72603e-07
1.37948e-09
5.70888e-07
1.71457e-09
5.68759e-07
2.12906e-09
5.66163e-07
2.59642e-09
5.6308e-07
3.08304e-09
5.59533e-07
3.54623e-09
5.55602e-07
3.93127e-09
5.51415e-07
4.18662e-09
5.47131e-07
4.28455e-09
5.42953e-07
4.17743e-09
5.39132e-07
3.82155e-09
5.35902e-07
3.23015e-09
5.33495e-07
2.40726e-09
5.32148e-07
1.34694e-09
5.32039e-07
1.08971e-10
5.33146e-07
-1.10779e-09
5.35677e-07
-2.53082e-09
5.39661e-07
-3.98334e-09
5.45059e-07
-5.39818e-09
-6.7214e-09
1.92144e-07
-1.04064e-07
2.35142e-07
-8.10481e-08
2.65046e-07
-5.44238e-08
2.80905e-07
-2.56293e-08
2.83442e-07
1.33588e-09
2.74013e-07
2.6325e-08
2.54791e-07
4.74706e-08
2.28939e-07
6.24406e-08
1.99998e-07
7.01242e-08
1.71768e-07
6.97061e-08
1.48803e-07
6.00899e-08
1.35351e-07
4.1794e-08
1.35175e-07
1.61753e-08
1.47272e-07
-1.01559e-08
1.74316e-07
-3.77159e-08
2.13256e-07
-6.23211e-08
2.61043e-07
-8.1186e-08
3.14204e-07
-9.30806e-08
3.69247e-07
-9.78213e-08
4.22832e-07
-9.57438e-08
4.72032e-07
-8.75457e-08
5.14484e-07
-7.43457e-08
5.48537e-07
-5.78024e-08
5.73499e-07
-4.00438e-08
5.89954e-07
-2.31427e-08
5.99148e-07
-8.78205e-09
6.03481e-07
1.54344e-09
6.04981e-07
7.51213e-09
6.06343e-07
8.67564e-09
6.10118e-07
4.49513e-09
6.17424e-07
-3.3543e-09
6.30721e-07
-1.48423e-08
6.51034e-07
-2.83011e-08
6.78299e-07
-4.21872e-08
7.12127e-07
-5.49071e-08
7.50749e-07
-6.55129e-08
7.9274e-07
-7.31638e-08
8.36527e-07
-7.75583e-08
8.80547e-07
-7.87025e-08
9.23291e-07
-7.67236e-08
9.63346e-07
-7.18225e-08
9.99462e-07
-6.43118e-08
1.03063e-06
-5.46942e-08
1.05623e-06
-4.37919e-08
1.07609e-06
-3.25553e-08
1.09068e-06
-2.2005e-08
1.1007e-06
-1.28337e-08
1.10711e-06
-5.61062e-09
1.11119e-06
-6.01917e-10
1.11399e-06
2.15809e-09
1.1166e-06
2.71266e-09
1.12013e-06
1.05019e-09
1.12522e-06
-2.11362e-09
1.13247e-06
-6.58402e-09
1.14243e-06
-1.14388e-08
1.15476e-06
-1.62008e-08
1.1691e-06
-2.03098e-08
1.18489e-06
-2.3363e-08
1.20149e-06
-2.51169e-08
1.21817e-06
-2.5445e-08
1.23423e-06
-2.43802e-08
1.24908e-06
-2.2106e-08
1.26228e-06
-1.89288e-08
1.27358e-06
-1.52493e-08
1.28301e-06
-1.15275e-08
1.29077e-06
-8.21137e-09
1.29729e-06
-5.66921e-09
1.30309e-06
-4.18182e-09
1.30877e-06
-3.93637e-09
1.31495e-06
-5.04137e-09
1.32229e-06
-7.41918e-09
1.3315e-06
-1.08046e-08
1.34284e-06
-1.49943e-08
1.35651e-06
-1.96459e-08
1.37252e-06
-2.43988e-08
1.39073e-06
-2.89252e-08
1.41085e-06
-3.29566e-08
1.43252e-06
-3.62974e-08
1.4553e-06
-3.88259e-08
1.47876e-06
-4.04772e-08
1.50241e-06
-4.12203e-08
1.52581e-06
-4.10407e-08
1.54849e-06
-3.99362e-08
1.57001e-06
-3.79359e-08
1.58996e-06
-3.51386e-08
1.60805e-06
-3.17347e-08
1.6241e-06
-2.79621e-08
1.63806e-06
-2.40417e-08
1.64996e-06
-2.01622e-08
1.65993e-06
-1.64877e-08
1.66815e-06
-1.31534e-08
1.67486e-06
-1.0252e-08
1.68031e-06
-7.82672e-09
1.68477e-06
-5.87639e-09
1.68848e-06
-4.37274e-09
1.69163e-06
-3.27487e-09
1.69438e-06
-2.52136e-09
1.69689e-06
-2.00311e-09
1.69922e-06
-1.61645e-09
1.70139e-06
-1.27058e-09
1.7034e-06
-8.89747e-10
1.70518e-06
-4.00401e-10
1.70669e-06
1.99208e-10
1.70785e-06
9.70296e-10
1.7086e-06
1.85232e-09
1.70891e-06
2.76841e-09
1.70883e-06
3.6277e-09
1.70844e-06
4.31857e-09
1.70789e-06
4.73762e-09
1.70735e-06
4.82338e-09
1.70703e-06
4.49894e-09
1.70715e-06
3.69915e-09
1.708e-06
2.38684e-09
1.70975e-06
6.55919e-10
1.71254e-06
-1.44695e-09
1.71661e-06
-3.95627e-09
1.72218e-06
-6.67541e-09
1.7292e-06
-9.55417e-09
1.73767e-06
-1.24536e-08
1.74752e-06
-1.52457e-08
-1.78236e-08
1.17988e-06
-1.56084e-07
1.22227e-06
-1.23441e-07
1.25413e-06
-8.62806e-08
1.27483e-06
-4.63317e-08
1.28369e-06
-7.52765e-09
1.28244e-06
2.758e-08
1.27315e-06
5.67544e-08
1.25839e-06
7.7208e-08
1.24088e-06
8.76277e-08
1.22337e-06
8.72164e-08
1.20975e-06
7.37098e-08
1.20449e-06
4.70572e-08
1.21063e-06
1.00359e-08
1.22937e-06
-2.89005e-08
1.26168e-06
-7.00194e-08
1.30499e-06
-1.05632e-07
1.35621e-06
-1.32404e-07
1.41217e-06
-1.49048e-07
1.46987e-06
-1.55513e-07
1.52649e-06
-1.52369e-07
1.57954e-06
-1.40595e-07
1.62677e-06
-1.21579e-07
1.66642e-06
-9.74536e-08
1.69754e-06
-7.11624e-08
1.72029e-06
-4.58889e-08
1.73594e-06
-2.44358e-08
1.74628e-06
-8.79553e-09
1.75368e-06
1.1423e-10
1.76008e-06
2.27864e-09
1.76714e-06
-2.56684e-09
1.77789e-06
-1.41044e-08
1.79372e-06
-3.06769e-08
1.8157e-06
-5.0275e-08
1.84409e-06
-7.05787e-08
1.87837e-06
-8.9189e-08
1.91725e-06
-1.04395e-07
1.9593e-06
-1.15211e-07
2.0031e-06
-1.21354e-07
2.04733e-06
-1.22942e-07
2.09072e-06
-1.20112e-07
2.13196e-06
-1.13059e-07
2.16975e-06
-1.02101e-07
2.20286e-06
-8.7805e-08
2.23049e-06
-7.14227e-08
2.25246e-06
-5.45233e-08
2.26907e-06
-3.86123e-08
2.28106e-06
-2.48232e-08
2.28939e-06
-1.39461e-08
2.29523e-06
-6.43939e-09
2.29975e-06
-2.35797e-09
2.3038e-06
-1.34567e-09
2.30828e-06
-3.42217e-09
2.31454e-06
-8.37583e-09
2.32312e-06
-1.5165e-08
2.33441e-06
-2.27264e-08
2.34831e-06
-3.0102e-08
2.3645e-06
-3.64982e-08
2.38244e-06
-4.13093e-08
2.40151e-06
-4.4184e-08
2.42093e-06
-4.48649e-08
2.43991e-06
-4.33647e-08
2.45776e-06
-3.99511e-08
2.47391e-06
-3.50797e-08
2.488e-06
-2.93439e-08
2.49994e-06
-2.34631e-08
2.50987e-06
-1.8144e-08
2.51818e-06
-1.39738e-08
2.52535e-06
-1.13532e-08
2.53196e-06
-1.05475e-08
2.53868e-06
-1.17587e-08
2.54624e-06
-1.49846e-08
2.55532e-06
-1.98855e-08
2.56637e-06
-2.60409e-08
2.57965e-06
-3.29233e-08
2.59522e-06
-3.9972e-08
2.61298e-06
-4.66843e-08
2.63267e-06
-5.26508e-08
2.65396e-06
-5.758e-08
2.67643e-06
-6.12968e-08
2.69966e-06
-6.37134e-08
2.72323e-06
-6.47849e-08
2.74667e-06
-6.44788e-08
2.76951e-06
-6.2777e-08
2.79126e-06
-5.96881e-08
2.81145e-06
-5.53299e-08
2.82973e-06
-5.0013e-08
2.84591e-06
-4.41465e-08
2.85995e-06
-3.80829e-08
2.8719e-06
-3.21031e-08
2.88187e-06
-2.64585e-08
2.89007e-06
-2.13612e-08
2.89678e-06
-1.69616e-08
2.90229e-06
-1.33336e-08
2.90688e-06
-1.04705e-08
2.91083e-06
-8.32137e-09
2.91438e-06
-6.81838e-09
2.9177e-06
-5.84759e-09
2.92095e-06
-5.25327e-09
2.9242e-06
-4.86149e-09
2.92746e-06
-4.52837e-09
2.93073e-06
-4.15975e-09
2.93394e-06
-3.61428e-09
2.93691e-06
-2.77243e-09
2.93956e-06
-1.67481e-09
2.94176e-06
-3.51879e-10
2.94347e-06
1.0602e-09
2.94468e-06
2.41849e-09
2.94545e-06
3.54399e-09
2.94592e-06
4.27271e-09
2.94624e-06
4.50152e-09
2.94663e-06
4.10536e-09
2.94732e-06
3.00781e-09
2.94861e-06
1.0981e-09
2.95065e-06
-1.38034e-09
2.95377e-06
-4.56299e-09
2.9581e-06
-8.29314e-09
2.96384e-06
-1.24097e-08
2.97103e-06
-1.67455e-08
2.97967e-06
-2.11006e-08
2.9897e-06
-2.52731e-08
-2.90968e-08
2.66249e-06
-2.11249e-07
2.7083e-06
-1.69251e-07
2.74338e-06
-1.21359e-07
2.76646e-06
-6.9415e-08
2.77755e-06
-1.8618e-08
2.77992e-06
2.52144e-08
2.77679e-06
5.98841e-08
2.77088e-06
8.31132e-08
2.76403e-06
9.44814e-08
2.7566e-06
9.46385e-08
2.7522e-06
7.81183e-08
2.75477e-06
4.44825e-08
2.76583e-06
-1.02692e-09
2.78946e-06
-5.25231e-08
2.82324e-06
-1.03802e-07
2.86485e-06
-1.47249e-07
2.9117e-06
-1.79249e-07
2.96147e-06
-1.98822e-07
3.01221e-06
-2.06249e-07
3.06219e-06
-2.02346e-07
3.10989e-06
-1.88299e-07
3.15362e-06
-1.65307e-07
3.19177e-06
-1.35607e-07
3.22349e-06
-1.02884e-07
3.24881e-06
-7.11995e-08
3.26852e-06
-4.41455e-08
3.28392e-06
-2.42022e-08
3.29638e-06
-1.23411e-08
3.30703e-06
-8.37678e-09
3.31688e-06
-1.24098e-08
3.32782e-06
-2.50463e-08
3.34137e-06
-4.42287e-08
3.35871e-06
-6.76184e-08
3.38055e-06
-9.24188e-08
3.40675e-06
-1.15391e-07
3.43671e-06
-1.34348e-07
3.46964e-06
-1.48146e-07
3.50485e-06
-1.56557e-07
3.54177e-06
-1.59872e-07
3.57972e-06
-1.58058e-07
3.61773e-06
-1.51069e-07
3.65437e-06
-1.38744e-07
3.6875e-06
-1.20932e-07
3.71565e-06
-9.95688e-08
3.73812e-06
-7.69934e-08
3.755e-06
-5.54977e-08
3.76686e-06
-3.66844e-08
3.7745e-06
-2.15862e-08
3.77898e-06
-1.09194e-08
3.7813e-06
-4.67185e-09
3.78239e-06
-2.43524e-09
3.7831e-06
-4.14131e-09
3.78466e-06
-9.92715e-09
3.78799e-06
-1.84971e-08
3.79374e-06
-2.84736e-08
3.80208e-06
-3.8444e-08
3.81294e-06
-4.73581e-08
3.82609e-06
-5.44653e-08
3.84115e-06
-5.92384e-08
3.85746e-06
-6.1175e-08
3.87424e-06
-6.01503e-08
3.89068e-06
-5.63921e-08
3.90603e-06
-5.04225e-08
3.91968e-06
-4.29945e-08
3.93132e-06
-3.51019e-08
3.94091e-06
-2.77372e-08
3.94868e-06
-2.17404e-08
3.95499e-06
-1.76674e-08
3.96031e-06
-1.58696e-08
3.96496e-06
-1.64068e-08
3.96956e-06
-1.95864e-08
3.97483e-06
-2.515e-08
3.98135e-06
-3.25668e-08
3.98954e-06
-4.11145e-08
3.99963e-06
-5.00534e-08
4.01167e-06
-5.87313e-08
4.02562e-06
-6.65971e-08
4.0413e-06
-7.32609e-08
4.0585e-06
-7.84934e-08
4.07697e-06
-8.2182e-08
4.09644e-06
-8.4255e-08
4.11655e-06
-8.4593e-08
4.13679e-06
-8.30179e-08
4.15647e-06
-7.93685e-08
4.17485e-06
-7.37056e-08
4.19134e-06
-6.65072e-08
4.20566e-06
-5.84689e-08
4.21769e-06
-5.01072e-08
4.22737e-06
-4.17826e-08
4.23476e-06
-3.3854e-08
4.24006e-06
-2.66549e-08
4.24353e-06
-2.044e-08
4.24556e-06
-1.53559e-08
4.24648e-06
-1.13895e-08
4.24663e-06
-8.47065e-09
4.24636e-06
-6.55108e-09
4.24599e-06
-5.48031e-09
4.24576e-06
-5.02497e-09
4.24584e-06
-4.93841e-09
4.24631e-06
-5.00227e-09
4.24718e-06
-5.02875e-09
4.24839e-06
-4.82043e-09
4.24983e-06
-4.21822e-09
4.25133e-06
-3.17363e-09
4.25255e-06
-1.56729e-09
4.25328e-06
3.33238e-10
4.25345e-06
2.23984e-09
4.25307e-06
3.92855e-09
4.25224e-06
5.10245e-09
4.25107e-06
5.67565e-09
4.2497e-06
5.46716e-09
4.24842e-06
4.2963e-09
4.24746e-06
2.05487e-09
4.2472e-06
-1.1266e-09
4.24786e-06
-5.22229e-09
4.24969e-06
-1.01178e-08
4.2529e-06
-1.5616e-08
4.25762e-06
-2.14671e-08
4.2639e-06
-2.73792e-08
4.27167e-06
-3.30486e-08
-3.82316e-08
4.25645e-06
-2.56916e-07
4.30881e-06
-2.21615e-07
4.36555e-06
-1.78095e-07
4.41996e-06
-1.23829e-07
4.46662e-06
-6.5277e-08
4.50105e-06
-9.2142e-09
4.5234e-06
3.75326e-08
4.53721e-06
6.93005e-08
4.54597e-06
8.57237e-08
4.5526e-06
8.80044e-08
4.55971e-06
7.10086e-08
4.56901e-06
3.5186e-08
4.58278e-06
-1.48006e-08
4.60249e-06
-7.22258e-08
4.62788e-06
-1.29195e-07
4.65781e-06
-1.7718e-07
4.69124e-06
-2.12676e-07
4.72719e-06
-2.34776e-07
4.76446e-06
-2.43518e-07
4.80137e-06
-2.39253e-07
4.83689e-06
-2.23823e-07
4.86962e-06
-1.98034e-07
4.89763e-06
-1.63616e-07
4.91942e-06
-1.24673e-07
4.93524e-06
-8.7021e-08
4.94659e-06
-5.5496e-08
4.95558e-06
-3.31964e-08
4.96417e-06
-2.09241e-08
4.97334e-06
-1.7549e-08
4.98221e-06
-2.12839e-08
4.99205e-06
-3.48859e-08
5.00345e-06
-5.56234e-08
5.01647e-06
-8.06388e-08
5.03077e-06
-1.06721e-07
5.04597e-06
-1.30593e-07
5.06198e-06
-1.50353e-07
5.0786e-06
-1.64772e-07
5.0957e-06
-1.73652e-07
5.1138e-06
-1.7797e-07
5.13375e-06
-1.78009e-07
5.15619e-06
-1.73505e-07
5.18092e-06
-1.63482e-07
5.2068e-06
-1.46811e-07
5.2319e-06
-1.24663e-07
5.25442e-06
-9.95138e-08
5.2735e-06
-7.458e-08
5.28864e-06
-5.18246e-08
5.29947e-06
-3.24121e-08
5.30617e-06
-1.76225e-08
5.30945e-06
-7.95186e-09
5.30993e-06
-2.91747e-09
5.30852e-06
-2.72575e-09
5.30592e-06
-7.32739e-09
5.30329e-06
-1.58721e-08
5.30177e-06
-2.69499e-08
5.30212e-06
-3.87962e-08
5.30482e-06
-5.00587e-08
5.31007e-06
-5.97195e-08
5.31769e-06
-6.68578e-08
5.32707e-06
-7.05476e-08
5.33743e-06
-7.05187e-08
5.34804e-06
-6.69959e-08
5.35805e-06
-6.04375e-08
5.36661e-06
-5.1546e-08
5.3732e-06
-4.16919e-08
5.37774e-06
-3.22854e-08
5.38044e-06
-2.4434e-08
5.38154e-06
-1.87707e-08
5.38139e-06
-1.5716e-08
5.38047e-06
-1.54905e-08
5.37935e-06
-1.84614e-08
5.37861e-06
-2.4418e-08
5.37884e-06
-3.27904e-08
5.38041e-06
-4.26832e-08
5.38355e-06
-5.31956e-08
5.38839e-06
-6.35745e-08
5.39492e-06
-7.3128e-08
5.40307e-06
-8.14103e-08
5.41278e-06
-8.81976e-08
5.42404e-06
-9.34457e-08
5.43692e-06
-9.71399e-08
5.45143e-06
-9.90994e-08
5.46737e-06
-9.89535e-08
5.48413e-06
-9.61304e-08
5.50072e-06
-9.02935e-08
5.51626e-06
-8.20471e-08
5.53036e-06
-7.25707e-08
5.54268e-06
-6.24344e-08
5.5528e-06
-5.18991e-08
5.56042e-06
-4.14712e-08
5.56546e-06
-3.17e-08
5.56806e-06
-2.30386e-08
5.56854e-06
-1.58309e-08
5.56719e-06
-1.0041e-08
5.56435e-06
-5.63388e-09
5.56046e-06
-2.65561e-09
5.55596e-06
-9.83744e-10
5.5513e-06
-3.64881e-10
5.54679e-06
-4.31977e-10
5.54261e-06
-8.15769e-10
5.53881e-06
-1.2329e-09
5.53544e-06
-1.44691e-09
5.53247e-06
-1.24791e-09
5.52969e-06