/*--------------------------------*- C++ -*----------------------------------*\
| =========                 |                                                 |
| \\      /  F ield         | OpenFOAM: The Open Source CFD Toolbox           |
|  \\    /   O peration     | Version:  2206                                  |
|   \\  /    A nd           | Website:  www.openfoam.com                      |
|    \\/     M anipulation  |                                                 |
\*---------------------------------------------------------------------------*/
FoamFile
{
    version     2.0;
    format      ascii;
    arch        "LSB;label=32;scalar=64";
    class       surfaceScalarField;
    location    "18.6999";
    object      phi;
}
// * * * * * * * * * * * * * * * * * * * * * * * * * * * * * * * * * * * * * //

dimensions      [0 3 -1 0 0 0 0];

oriented        oriented;

internalField   nonuniform List<scalar> 
9559
(
1.1773e-05
-1.24876e-06
1.22513e-06
1.17893e-05
-1.50872e-06
1.49236e-06
1.17981e-05
-1.74644e-06
1.73763e-06
1.17993e-05
-1.96008e-06
1.95895e-06
1.17927e-05
-2.1485e-06
2.15502e-06
1.17787e-05
-2.31117e-06
2.32517e-06
1.17575e-05
-2.44813e-06
2.46932e-06
1.17295e-05
-2.55989e-06
2.58791e-06
1.1695e-05
-2.64735e-06
2.68189e-06
1.16541e-05
-2.71165e-06
2.75251e-06
1.16067e-05
-2.75369e-06
2.80111e-06
1.15521e-05
-2.77384e-06
2.82844e-06
1.14904e-05
-2.77323e-06
2.83498e-06
1.14221e-05
-2.75466e-06
2.82291e-06
1.1348e-05
-2.72086e-06
2.795e-06
1.12686e-05
-2.67436e-06
2.75368e-06
1.1185e-05
-2.61732e-06
2.70096e-06
1.10981e-05
-2.55133e-06
2.63824e-06
1.10091e-05
-2.47725e-06
2.56627e-06
1.09192e-05
-2.39523e-06
2.48511e-06
1.08298e-05
-2.30476e-06
2.39421e-06
1.0742e-05
-2.20479e-06
2.29253e-06
1.06572e-05
-2.09397e-06
2.17879e-06
1.05764e-05
-1.97084e-06
2.05161e-06
1.05008e-05
-1.83409e-06
1.90976e-06
1.04312e-05
-1.68271e-06
1.7523e-06
1.03686e-05
-1.51612e-06
1.57873e-06
1.03138e-05
-1.33425e-06
1.38907e-06
1.02674e-05
-1.13757e-06
1.1839e-06
1.02302e-05
-9.27145e-07
9.64413e-07
1.02024e-05
-7.04587e-07
7.32359e-07
1.01844e-05
-4.71981e-07
4.89971e-07
1.01763e-05
-2.31817e-07
2.39908e-07
1.0178e-05
1.29826e-08
-1.47142e-08
1.01892e-05
2.58795e-07
-2.6994e-07
1.02093e-05
5.02219e-07
-5.22296e-07
1.02376e-05
7.40541e-07
-7.6893e-07
1.02736e-05
9.71116e-07
-1.00707e-06
1.03163e-05
1.19147e-06
-1.23415e-06
1.03648e-05
1.39939e-06
-1.44787e-06
1.04181e-05
1.59295e-06
-1.64627e-06
1.04753e-05
1.77058e-06
-1.82775e-06
1.05353e-05
1.9311e-06
-1.99111e-06
1.05971e-05
2.07372e-06
-2.13559e-06
1.066e-05
2.19808e-06
-2.26088e-06
1.07228e-05
2.30414e-06
-2.36701e-06
1.0785e-05
2.39222e-06
-2.45443e-06
1.0846e-05
2.46289e-06
-2.52388e-06
1.09055e-05
2.5168e-06
-2.57624e-06
1.09633e-05
2.55453e-06
-2.61237e-06
1.10198e-05
2.57624e-06
-2.6327e-06
1.1075e-05
2.58134e-06
-2.63659e-06
1.1129e-05
2.56912e-06
-2.6231e-06
1.11817e-05
2.53958e-06
-2.59232e-06
1.12334e-05
2.49278e-06
-2.5445e-06
1.12844e-05
2.42875e-06
-2.47975e-06
1.1335e-05
2.34737e-06
-2.39799e-06
1.13856e-05
2.24846e-06
-2.29901e-06
1.14363e-05
2.13179e-06
-2.1825e-06
1.14873e-05
1.99724e-06
-2.04823e-06
1.15386e-05
1.84481e-06
-1.89608e-06
1.159e-05
1.67475e-06
-1.7262e-06
1.16414e-05
1.48764e-06
-1.53902e-06
1.16924e-05
1.28435e-06
-1.33537e-06
1.17426e-05
1.06618e-06
-1.11642e-06
1.17917e-05
8.34761e-07
-8.83784e-07
1.1839e-05
5.92134e-07
-6.39459e-07
1.18841e-05
3.4079e-07
-3.85888e-07
1.19263e-05
8.39222e-08
-1.26139e-07
1.19648e-05
-1.73957e-07
1.3551e-07
1.19989e-05
-4.28893e-07
3.94743e-07
1.20283e-05
-6.77679e-07
6.48313e-07
1.20524e-05
-9.17232e-07
8.93093e-07
1.20709e-05
-1.14468e-06
1.12614e-06
1.20836e-05
-1.35741e-06
1.3448e-06
1.209e-05
-1.55315e-06
1.54671e-06
1.20901e-05
-1.73003e-06
1.72991e-06
1.20838e-05
-1.88657e-06
1.89287e-06
1.20711e-05
-2.02179e-06
2.0345e-06
1.20521e-05
-2.1352e-06
2.15423e-06
1.20269e-05
-2.22681e-06
2.25201e-06
1.19957e-05
-2.29705e-06
2.32826e-06
1.19584e-05
-2.34651e-06
2.38379e-06
1.19144e-05
-2.37531e-06
2.41932e-06
1.1863e-05
-2.38343e-06
2.43486e-06
1.18046e-05
-2.37264e-06
2.43097e-06
1.17401e-05
-2.34563e-06
2.41016e-06
1.16702e-05
-2.3051e-06
2.37497e-06
1.15961e-05
-2.25359e-06
2.32775e-06
1.15188e-05
-2.19324e-06
2.27054e-06
1.14396e-05
-2.12563e-06
2.20483e-06
1.13597e-05
-2.05166e-06
2.13154e-06
1.12803e-05
-1.97159e-06
2.05095e-06
1.12026e-05
-1.88506e-06
1.96282e-06
1.11274e-05
-1.79133e-06
1.86652e-06
1.10556e-05
-1.68939e-06
1.76116e-06
1.0988e-05
-1.57818e-06
1.64579e-06
1.09252e-05
-1.45674e-06
1.51955e-06
1.08678e-05
-1.32435e-06
1.38177e-06
1.08163e-05
-1.1806e-06
1.23209e-06
1.07712e-05
-1.02542e-06
1.07054e-06
1.07328e-05
-8.59186e-07
8.97524e-07
1.07016e-05
-6.8264e-07
7.13859e-07
1.06778e-05
-4.96918e-07
5.20748e-07
1.06615e-05
-3.03506e-07
3.19759e-07
1.0653e-05
-1.04207e-07
1.12785e-07
1.0652e-05
9.88001e-08
-9.78792e-08
1.06585e-05
3.02739e-07
-3.09238e-07
1.06722e-05
5.049e-07
-5.1852e-07
1.06925e-05
7.03108e-07
-7.2345e-07
1.07191e-05
8.95212e-07
-9.21781e-07
1.07513e-05
1.07913e-06
-1.11136e-06
1.07885e-05
1.25296e-06
-1.29018e-06
1.083e-05
1.41496e-06
-1.45647e-06
1.08751e-05
1.56367e-06
-1.60871e-06
1.09228e-05
1.69791e-06
-1.74566e-06
1.09725e-05
1.81686e-06
-1.86649e-06
1.10232e-05
1.92002e-06
-1.97071e-06
1.10742e-05
2.00724e-06
-2.05823e-06
1.11248e-05
2.07865e-06
-2.12928e-06
1.11745e-05
2.13465e-06
-2.1844e-06
1.12231e-05
2.17572e-06
-2.22431e-06
1.12705e-05
2.20224e-06
-2.24964e-06
1.13169e-05
2.21408e-06
-2.26043e-06
1.1362e-05
2.21054e-06
-2.25568e-06
1.14057e-05
2.19154e-06
-2.23521e-06
1.14477e-05
2.15744e-06
-2.1995e-06
1.14882e-05
2.10871e-06
-2.14919e-06
1.15272e-05
2.04579e-06
-2.08482e-06
1.1565e-05
1.96907e-06
-2.00681e-06
1.16016e-05
1.87886e-06
-1.91546e-06
1.16371e-05
1.77546e-06
-1.81103e-06
1.16717e-05
1.65906e-06
-1.69362e-06
1.17052e-05
1.53036e-06
-1.56384e-06
1.17374e-05
1.38837e-06
-1.42058e-06
1.17681e-05
1.24035e-06
-1.2711e-06
1.1797e-05
1.05797e-06
-1.08681e-06
1.18241e-05
9.18829e-07
-9.45936e-07
6.21257e-07
-6.43487e-07
1.19911e-05
-1.26797e-06
1.20017e-05
-1.51928e-06
1.20035e-05
-1.74825e-06
1.19966e-05
-1.95319e-06
1.19812e-05
-2.1331e-06
1.19576e-05
-2.2876e-06
1.19263e-05
-2.4168e-06
1.18877e-05
-2.52128e-06
1.18422e-05
-2.60186e-06
1.17899e-05
-2.65937e-06
1.17305e-05
-2.69424e-06
1.16635e-05
-2.70692e-06
1.15897e-05
-2.69941e-06
1.15096e-05
-2.67452e-06
1.14237e-05
-2.63501e-06
1.13329e-05
-2.58355e-06
1.1238e-05
-2.52245e-06
1.11401e-05
-2.45342e-06
1.10404e-05
-2.37749e-06
1.094e-05
-2.2949e-06
1.08405e-05
-2.20517e-06
1.07429e-05
-2.10725e-06
1.06487e-05
-1.99973e-06
1.05589e-05
-1.88108e-06
1.04747e-05
-1.74989e-06
1.03971e-05
-1.60507e-06
1.03269e-05
-1.44594e-06
1.0265e-05
-1.27235e-06
1.02121e-05
-1.0847e-06
1.01689e-05
-8.83907e-07
1.01357e-05
-6.71446e-07
1.0113e-05
-4.49252e-07
1.01008e-05
-2.19659e-07
1.00992e-05
1.46099e-08
1.01078e-05
2.50252e-07
1.0126e-05
4.8396e-07
1.01534e-05
7.13164e-07
1.01892e-05
9.35347e-07
1.02325e-05
1.14815e-06
1.02825e-05
1.34942e-06
1.03381e-05
1.53732e-06
1.03984e-05
1.7103e-06
1.04623e-05
1.8672e-06
1.05288e-05
2.00721e-06
1.0597e-05
2.12989e-06
1.0666e-05
2.23514e-06
1.0735e-05
2.32315e-06
1.08036e-05
2.3943e-06
1.08714e-05
2.44902e-06
1.09383e-05
2.48765e-06
1.10044e-05
2.51014e-06
1.10698e-05
2.51591e-06
1.11345e-05
2.50442e-06
1.11985e-05
2.47563e-06
1.12618e-05
2.42948e-06
1.13246e-05
2.3659e-06
1.13872e-05
2.28478e-06
1.14497e-05
2.18595e-06
1.15122e-05
2.06929e-06
1.15747e-05
1.93474e-06
1.16371e-05
1.78243e-06
1.16991e-05
1.61274e-06
1.17604e-05
1.42633e-06
1.18206e-05
1.2242e-06
1.18791e-05
1.00767e-06
1.19354e-05
7.78435e-07
1.1989e-05
5.38556e-07
1.20392e-05
2.90579e-07
1.20852e-05
3.78902e-08
1.21262e-05
-2.14932e-07
1.21616e-05
-4.64291e-07
1.21909e-05
-7.0702e-07
1.22138e-05
-9.40107e-07
1.22299e-05
-1.16075e-06
1.22389e-05
-1.36642e-06
1.22407e-05
-1.55494e-06
1.22352e-05
-1.72452e-06
1.22224e-05
-1.87378e-06
1.22024e-05
-2.00182e-06
1.21754e-05
-2.10824e-06
1.21417e-05
-2.19306e-06
1.21012e-05
-2.25661e-06
1.20538e-05
-2.29904e-06
1.19986e-05
-2.32009e-06
1.19356e-05
-2.32046e-06
1.18656e-05
-2.30266e-06
1.17894e-05
-2.26945e-06
1.1708e-05
-2.2237e-06
1.16225e-05
-2.1681e-06
1.15342e-05
-2.10491e-06
1.14443e-05
-2.03574e-06
1.13542e-05
-1.96153e-06
1.1265e-05
-1.88244e-06
1.1178e-05
-1.79801e-06
1.1094e-05
-1.70735e-06
1.10139e-05
-1.60931e-06
1.09385e-05
-1.50273e-06
1.08683e-05
-1.38658e-06
1.0804e-05
-1.26006e-06
1.07461e-05
-1.1227e-06
1.06951e-05
-9.74408e-07
1.06514e-05
-8.15475e-07
1.06154e-05
-6.46598e-07
1.05873e-05
-4.68844e-07
1.05674e-05
-2.83617e-07
1.05558e-05
-9.26324e-08
1.05526e-05
1.02049e-07
1.05574e-05
2.97865e-07
1.05702e-05
4.92189e-07
1.05903e-05
6.8295e-07
1.06174e-05
8.68096e-07
1.06509e-05
1.04564e-06
1.06901e-05
1.21375e-06
1.07343e-05
1.37077e-06
1.07827e-05
1.5153e-06
1.08344e-05
1.6462e-06
1.08886e-05
1.76264e-06
1.09445e-05
1.86412e-06
1.10013e-05
1.95042e-06
1.10584e-05
2.02158e-06
1.11152e-05
2.07782e-06
1.11715e-05
2.11944e-06
1.12272e-05
2.14658e-06
1.12822e-05
2.15905e-06
1.13364e-05
2.15631e-06
1.13896e-05
2.13837e-06
1.14415e-05
2.10551e-06
1.14922e-05
2.05808e-06
1.15415e-05
1.99644e-06
1.15896e-05
1.92094e-06
1.16366e-05
1.83191e-06
1.16824e-05
1.72968e-06
1.17269e-05
1.6145e-06
1.17701e-05
1.48717e-06
1.18117e-05
1.34682e-06
1.18514e-05
1.20063e-06
1.18887e-05
1.02068e-06
1.19238e-05
8.83661e-07
5.91907e-07
1.22069e-05
-1.28237e-06
1.22114e-05
-1.52372e-06
1.22059e-05
-1.7428e-06
1.21908e-05
-1.93809e-06
1.21665e-05
-2.10874e-06
1.21333e-05
-2.25446e-06
1.2092e-05
-2.37544e-06
1.20429e-05
-2.47224e-06
1.19866e-05
-2.5455e-06
1.19229e-05
-2.59568e-06
1.18515e-05
-2.62293e-06
1.17728e-05
-2.62819e-06
1.16874e-05
-2.61395e-06
1.15957e-05
-2.58291e-06
1.14987e-05
-2.53792e-06
1.13969e-05
-2.48177e-06
1.12913e-05
-2.41688e-06
1.1183e-05
-2.34513e-06
1.10732e-05
-2.26767e-06
1.09632e-05
-2.18486e-06
1.08542e-05
-2.09624e-06
1.07477e-05
-2.00076e-06
1.06449e-05
-1.89694e-06
1.0547e-05
-1.78319e-06
1.04552e-05
-1.658e-06
1.03703e-05
-1.52019e-06
1.02933e-05
-1.369e-06
1.02252e-05
-1.20418e-06
1.01665e-05
-1.02603e-06
1.0118e-05
-8.35375e-07
1.00801e-05
-6.33535e-07
1.00531e-05
-4.22303e-07
1.00373e-05
-2.03855e-07
1.00326e-05
1.92807e-08
1.00388e-05
2.44106e-07
1.00553e-05
4.67428e-07
1.00817e-05
6.86821e-07
1.01171e-05
8.99897e-07
1.01609e-05
1.10441e-06
1.0212e-05
1.2983e-06
1.02695e-05
1.47978e-06
1.03324e-05
1.64738e-06
1.03997e-05
1.79991e-06
1.04704e-05
1.93655e-06
1.05435e-05
2.05681e-06
1.06181e-05
2.16052e-06
1.06935e-05
2.2477e-06
1.07693e-05
2.31857e-06
1.08449e-05
2.37336e-06
1.09204e-05
2.41217e-06
1.09957e-05
2.4348e-06
1.1071e-05
2.4407e-06
1.11459e-05
2.42943e-06
1.12206e-05
2.40093e-06
1.12951e-05
2.35506e-06
1.13693e-05
2.2917e-06
1.14433e-05
2.21073e-06
1.15172e-05
2.11202e-06
1.1591e-05
1.99551e-06
1.16645e-05
1.86126e-06
1.17374e-05
1.70951e-06
1.18094e-05
1.54074e-06
1.188e-05
1.35571e-06
1.19487e-05
1.15549e-06
1.2015e-05
9.41466e-07
1.2078e-05
7.15365e-07
1.21373e-05
4.79266e-07
1.21921e-05
2.35785e-07
1.22414e-05
-1.14371e-08
1.22845e-05
-2.57976e-07
1.23207e-05
-5.00524e-07
1.23497e-05
-7.35981e-07
1.2371e-05
-9.61414e-07
1.23843e-05
-1.17411e-06
1.23896e-05
-1.37165e-06
1.23866e-05
-1.55193e-06
1.23753e-05
-1.7133e-06
1.2356e-05
-1.85445e-06
1.23288e-05
-1.97458e-06
1.22939e-05
-2.07335e-06
1.22515e-05
-2.15072e-06
1.22017e-05
-2.20673e-06
1.21437e-05
-2.24105e-06
1.20772e-05
-2.25359e-06
1.20028e-05
-2.24607e-06
1.19213e-05
-2.22118e-06
1.18337e-05
-2.18182e-06
1.1741e-05
-2.13104e-06
1.16446e-05
-2.07166e-06
1.15457e-05
-2.006e-06
1.14457e-05
-1.93575e-06
1.13459e-05
-1.8618e-06
1.12477e-05
-1.78424e-06
1.11522e-05
-1.70246e-06
1.10602e-05
-1.61539e-06
1.09727e-05
-1.52176e-06
1.08903e-05
-1.4203e-06
1.08136e-05
-1.3099e-06
1.07432e-05
-1.18971e-06
1.06797e-05
-1.05921e-06
1.06236e-05
-9.18253e-07
1.05752e-05
-7.67103e-07
1.0535e-05
-6.06391e-07
1.05033e-05
-4.37118e-07
1.04803e-05
-2.6061e-07
1.04661e-05
-7.84962e-08
1.04609e-05
1.07283e-07
1.04644e-05
2.9437e-07
1.04763e-05
4.80242e-07
1.04964e-05
6.62928e-07
1.0524e-05
8.40483e-07
1.05586e-05
1.01102e-06
1.05995e-05
1.17279e-06
1.06461e-05
1.32422e-06
1.06974e-05
1.46395e-06
1.07527e-05
1.5909e-06
1.08111e-05
1.70424e-06
1.08718e-05
1.80343e-06
1.09341e-05
1.88819e-06
1.09972e-05
1.95847e-06
1.10607e-05
2.01432e-06
1.11242e-05
2.05587e-06
1.11877e-05
2.0831e-06
1.1251e-05
2.09574e-06
1.13139e-05
2.0934e-06
1.13762e-05
2.07615e-06
1.14375e-05
2.04418e-06
1.14978e-05
1.99777e-06
1.1557e-05
1.93722e-06
1.16151e-05
1.86287e-06
1.1672e-05
1.77503e-06
1.17276e-05
1.67408e-06
1.17818e-05
1.56032e-06
1.18343e-05
1.43463e-06
1.18849e-05
1.29625e-06
1.19332e-05
1.15224e-06
1.19787e-05
9.75201e-07
1.20217e-05
8.4067e-07
5.556e-07
1.24171e-05
-1.29165e-06
1.24152e-05
-1.52186e-06
1.24025e-05
-1.73002e-06
1.23792e-05
-1.91482e-06
1.2346e-05
-2.07553e-06
1.23035e-05
-2.21196e-06
1.22524e-05
-2.32431e-06
1.21932e-05
-2.41302e-06
1.21261e-05
-2.47847e-06
1.20512e-05
-2.52075e-06
1.19684e-05
-2.54011e-06
1.18783e-05
-2.53813e-06
1.17817e-05
-2.51728e-06
1.1679e-05
-2.48029e-06
1.15712e-05
-2.43008e-06
1.14589e-05
-2.36952e-06
1.13433e-05
-2.30119e-06
1.12252e-05
-2.2271e-06
1.11061e-05
-2.14853e-06
1.09871e-05
-2.06591e-06
1.08697e-05
-1.97885e-06
1.07552e-05
-1.88624e-06
1.06448e-05
-1.78655e-06
1.05398e-05
-1.67811e-06
1.04411e-05
-1.55934e-06
1.03499e-05
-1.42897e-06
1.0267e-05
-1.28615e-06
1.01934e-05
-1.13053e-06
1.01297e-05
-9.62328e-07
1.00766e-05
-7.82244e-07
1.00345e-05
-5.9148e-07
1.00039e-05
-3.91679e-07
9.98489e-06
-1.84859e-07
9.97752e-06
2.66456e-08
9.98153e-06
2.40101e-07
9.99647e-06
4.52485e-07
1.00218e-05
6.61483e-07
1.00569e-05
8.64841e-07
1.01008e-05
1.06042e-06
1.01529e-05
1.24627e-06
1.0212e-05
1.42068e-06
1.02772e-05
1.58218e-06
1.03474e-05
1.72964e-06
1.04218e-05
1.86219e-06
1.04993e-05
1.97932e-06
1.05791e-05
2.08072e-06
1.06605e-05
2.16633e-06
1.07429e-05
2.23616e-06
1.0826e-05
2.29026e-06
1.09096e-05
2.32855e-06
1.09937e-05
2.35069e-06
1.10782e-05
2.35616e-06
1.1163e-05
2.34465e-06
1.12479e-05
2.31602e-06
1.13329e-05
2.2701e-06
1.14178e-05
2.20674e-06
1.15027e-05
2.12583e-06
1.15875e-05
2.02729e-06
1.16719e-05
1.91112e-06
1.17556e-05
1.77749e-06
1.18384e-05
1.62673e-06
1.19197e-05
1.45943e-06
1.1999e-05
1.27644e-06
1.20756e-05
1.0789e-06
1.21488e-05
8.68239e-07
1.2218e-05
6.46197e-07
1.22823e-05
4.14887e-07
1.23411e-05
1.77009e-07
1.23932e-05
-6.34874e-08
1.24378e-05
-3.02591e-07
1.24744e-05
-5.37166e-07
1.25026e-05
-7.64203e-07
1.25221e-05
-9.80868e-07
1.25325e-05
-1.18455e-06
1.25338e-05
-1.37294e-06
1.25259e-05
-1.54405e-06
1.2509e-05
-1.69633e-06
1.24831e-05
-1.82861e-06
1.24487e-05
-1.94012e-06
1.24059e-05
-2.03053e-06
1.23548e-05
-2.09965e-06
1.22951e-05
-2.14708e-06
1.22264e-05
-2.17227e-06
1.21487e-05
-2.17593e-06
1.2063e-05
-2.16036e-06
1.19702e-05
-2.12834e-06
1.18713e-05
-2.08299e-06
1.17678e-05
-2.02748e-06
1.16608e-05
-1.96472e-06
1.15519e-05
-1.89712e-06
1.14425e-05
-1.82636e-06
1.13341e-05
-1.7533e-06
1.12277e-05
-1.67791e-06
1.11246e-05
-1.59936e-06
1.10256e-05
-1.51641e-06
1.09315e-05
-1.42767e-06
1.0843e-05
-1.33179e-06
1.07607e-05
-1.22759e-06
1.06852e-05
-1.11416e-06
1.06169e-05
-9.90945e-07
1.05564e-05
-8.57764e-07
1.05042e-05
-7.14825e-07
1.04605e-05
-5.62714e-07
1.04257e-05
-4.02367e-07
1.04002e-05
-2.35036e-07
1.03839e-05
-6.22639e-08
1.03771e-05
1.1413e-07
1.03795e-05
2.91981e-07
1.03908e-05
4.68885e-07
1.04108e-05
6.42972e-07
1.04389e-05
8.124e-07
1.04745e-05
9.7539e-07
1.0517e-05
1.13028e-06
1.05657e-05
1.27556e-06
1.06197e-05
1.40995e-06
1.06782e-05
1.53238e-06
1.07404e-05
1.64204e-06
1.08055e-05
1.73835e-06
1.08727e-05
1.82097e-06
1.09414e-05
1.88974e-06
1.10111e-05
1.94459e-06
1.10815e-05
1.98547e-06
1.11524e-05
2.01224e-06
1.12236e-05
2.02459e-06
1.12947e-05
2.02226e-06
1.13655e-05
2.00532e-06
1.14358e-05
1.97393e-06
1.15053e-05
1.92829e-06
1.15738e-05
1.86867e-06
1.16413e-05
1.79537e-06
1.17076e-05
1.70873e-06
1.17725e-05
1.60915e-06
1.18359e-05
1.49698e-06
1.18973e-05
1.3732e-06
1.19565e-05
1.2371e-06
1.20131e-05
1.09558e-06
1.20664e-05
9.2191e-07
1.21169e-05
7.90192e-07
5.12601e-07
1.26184e-05
-1.29561e-06
1.26102e-05
-1.51363e-06
1.25901e-05
-1.71e-06
1.25589e-05
-1.88357e-06
1.25171e-05
-2.03377e-06
1.24656e-05
-2.16044e-06
1.2405e-05
-2.26374e-06
1.23359e-05
-2.3439e-06
1.22584e-05
-2.40101e-06
1.21726e-05
-2.43496e-06
1.20789e-05
-2.44638e-06
1.1978e-05
-2.43723e-06
1.18706e-05
-2.40991e-06
1.17575e-05
-2.36716e-06
1.16394e-05
-2.312e-06
1.15173e-05
-2.2474e-06
1.13922e-05
-2.17604e-06
1.12651e-05
-2.10007e-06
1.11375e-05
-2.02088e-06
1.10105e-05
-1.93898e-06
1.08857e-05
-1.85397e-06
1.07641e-05
-1.7647e-06
1.06471e-05
-1.66958e-06
1.05359e-05
-1.56686e-06
1.04315e-05
-1.4549e-06
1.03348e-05
-1.33235e-06
1.0247e-05
-1.19828e-06
1.01687e-05
-1.05225e-06
1.01007e-05
-8.94365e-07
1.00437e-05
-7.25229e-07
9.99814e-06
-5.45921e-07
9.9644e-06
-3.57937e-07
9.94268e-06
-1.63138e-07
9.933e-06
3.63225e-08
9.93515e-06
2.3795e-07
9.94869e-06
4.38943e-07
9.97311e-06
6.37065e-07
1.00078e-05
8.30192e-07
1.00519e-05
1.0163e-06
1.01046e-05
1.19353e-06
1.01651e-05
1.36024e-06
1.02322e-05
1.51502e-06
1.03051e-05
1.65675e-06
1.03828e-05
1.78454e-06
1.04642e-05
1.89782e-06
1.05488e-05
1.99621e-06
1.06356e-05
2.07949e-06
1.07242e-05
2.14754e-06
1.08143e-05
2.20021e-06
1.09056e-05
2.23727e-06
1.0998e-05
2.25829e-06
1.10913e-05
2.26282e-06
1.11853e-05
2.25062e-06
1.12799e-05
2.22149e-06
1.13747e-05
2.17523e-06
1.14698e-05
2.1117e-06
1.15648e-05
2.03079e-06
1.16596e-05
1.93248e-06
1.17539e-05
1.81687e-06
1.18472e-05
1.68419e-06
1.1939e-05
1.53488e-06
1.20288e-05
1.36962e-06
1.21159e-05
1.18934e-06
1.21996e-05
9.95225e-07
1.22791e-05
7.88749e-07
1.23536e-05
5.71661e-07
1.24224e-05
3.46094e-07
1.24845e-05
1.14939e-07
1.25387e-05
-1.17677e-07
1.25844e-05
-3.48265e-07
1.2621e-05
-5.73786e-07
1.26481e-05
-7.91336e-07
1.26654e-05
-9.98193e-07
1.26728e-05
-1.19187e-06
1.267e-05
-1.37016e-06
1.26572e-05
-1.53123e-06
1.26344e-05
-1.67362e-06
1.26021e-05
-1.79627e-06
1.25604e-05
-1.89845e-06
1.25096e-05
-1.97973e-06
1.24496e-05
-2.03962e-06
1.23798e-05
-2.07732e-06
1.23002e-05
-2.09264e-06
1.22115e-05
-2.08719e-06
1.21145e-05
-2.06343e-06
1.20105e-05
-2.02435e-06
1.19008e-05
-1.97324e-06
1.17867e-05
-1.91341e-06
1.16699e-05
-1.84785e-06
1.15517e-05
-1.77898e-06
1.14339e-05
-1.70851e-06
1.13177e-05
-1.63712e-06
1.12043e-05
-1.5645e-06
1.10946e-05
-1.4897e-06
1.09896e-05
-1.41139e-06
1.089e-05
-1.32804e-06
1.07964e-05
-1.23819e-06
1.07094e-05
-1.14061e-06
1.06296e-05
-1.03435e-06
1.05575e-05
-9.18809e-07
1.04935e-05
-7.93779e-07
1.04381e-05
-6.59429e-07
1.03916e-05
-5.16291e-07
1.03545e-05
-3.65242e-07
1.0327e-05
-2.07468e-07
1.03091e-05
-4.44203e-08
1.0301e-05
1.222e-07
1.03026e-05
2.904e-07
1.03136e-05
4.57923e-07
1.03336e-05
6.22983e-07
1.03621e-05
7.83844e-07
1.03987e-05
9.38827e-07
1.04426e-05
1.08636e-06
1.04931e-05
1.22502e-06
1.05495e-05
1.35356e-06
1.0611e-05
1.47096e-06
1.06766e-05
1.57639e-06
1.07457e-05
1.66926e-06
1.08175e-05
1.74915e-06
1.08914e-05
1.81581e-06
1.0967e-05
1.86905e-06
1.10438e-05
1.90868e-06
1.11216e-05
1.93446e-06
1.12001e-05
1.94608e-06
1.1279e-05
1.94337e-06
1.13579e-05
1.92642e-06
1.14365e-05
1.8953e-06
1.15146e-05
1.85019e-06
1.15919e-05
1.79133e-06
1.16683e-05
1.71902e-06
1.17434e-05
1.63358e-06
1.18171e-05
1.53546e-06
1.18891e-05
1.42504e-06
1.19588e-05
1.30341e-06
1.20261e-05
1.16986e-06
1.20905e-05
1.03112e-06
1.21512e-05
8.61268e-07
1.22087e-05
7.32664e-07
4.63276e-07
1.28078e-05
-1.29418e-06
1.27932e-05
-1.49909e-06
1.27662e-05
-1.68291e-06
1.27272e-05
-1.84466e-06
1.26773e-05
-1.98385e-06
1.26172e-05
-2.10033e-06
1.25476e-05
-2.19416e-06
1.2469e-05
-2.26529e-06
1.23815e-05
-2.3135e-06
1.22853e-05
-2.33879e-06
1.21813e-05
-2.34231e-06
1.20701e-05
-2.32602e-06
1.19525e-05
-2.29231e-06
1.18293e-05
-2.24402e-06
1.17015e-05
-2.18421e-06
1.15701e-05
-2.11598e-06
1.14362e-05
-2.04211e-06
1.1301e-05
-1.96483e-06
1.11657e-05
-1.88565e-06
1.10318e-05
-1.80509e-06
1.09006e-05
-1.72269e-06
1.07731e-05
-1.63724e-06
1.06506e-05
-1.54712e-06
1.05343e-05
-1.4505e-06
1.04251e-05
-1.3457e-06
1.0324e-05
-1.23131e-06
1.02321e-05
-1.10631e-06
1.015e-05
-9.70197e-07
1.00786e-05
-8.22949e-07
1.00184e-05
-6.65069e-07
9.97004e-06
-4.97515e-07
9.93375e-06
-3.21651e-07
9.90979e-06
-1.3918e-07
9.89821e-06
4.79041e-08
9.89882e-06
2.37344e-07
9.91118e-06
4.26578e-07
9.93481e-06
6.13437e-07
9.96909e-06
7.95912e-07
1.00133e-05
9.72085e-07
1.00666e-05
1.1402e-06
1.01282e-05
1.29867e-06
1.01971e-05
1.44616e-06
1.02723e-05
1.58154e-06
1.03529e-05
1.70394e-06
1.0438e-05
1.81271e-06
1.05268e-05
1.90738e-06
1.06187e-05
1.98761e-06
1.07131e-05
2.05313e-06
1.08097e-05
2.10366e-06
1.09081e-05
2.13883e-06
1.10083e-05
2.15815e-06
1.11098e-05
2.16127e-06
1.12125e-05
2.14796e-06
1.1316e-05
2.118e-06
1.142e-05
2.07116e-06
1.15244e-05
2.00731e-06
1.16288e-05
1.92639e-06
1.17329e-05
1.82844e-06
1.18361e-05
1.71361e-06
1.19381e-05
1.58224e-06
1.20381e-05
1.43484e-06
1.21355e-05
1.27219e-06
1.22296e-05
1.09527e-06
1.23195e-05
9.05321e-07
1.24044e-05
7.03825e-07
1.24836e-05
4.92521e-07
1.25561e-05
2.73612e-07
1.26207e-05
5.03176e-08
1.26764e-05
-1.73411e-07
1.27226e-05
-3.94478e-07
1.27588e-05
-6.09952e-07
1.27845e-05
-8.17034e-07
1.27994e-05
-1.01312e-06
1.28034e-05
-1.19587e-06
1.27965e-05
-1.3632e-06
1.27786e-05
-1.51339e-06
1.27502e-05
-1.64513e-06
1.27113e-05
-1.75742e-06
1.26624e-05
-1.84951e-06
1.26034e-05
-1.92075e-06
1.2534e-05
-1.97022e-06
1.24538e-05
-1.99714e-06
1.23634e-05
-2.0022e-06
1.22636e-05
-1.9874e-06
1.21556e-05
-1.95541e-06
1.20407e-05
-1.90944e-06
1.19204e-05
-1.85297e-06
1.17964e-05
-1.7894e-06
1.16703e-05
-1.72177e-06
1.15439e-05
-1.65259e-06
1.14187e-05
-1.58334e-06
1.1296e-05
-1.51436e-06
1.11766e-05
-1.44514e-06
1.10616e-05
-1.37465e-06
1.09516e-05
-1.30144e-06
1.08475e-05
-1.22393e-06
1.07499e-05
-1.14055e-06
1.06592e-05
-1.04999e-06
1.05761e-05
-9.51251e-07
1.05011e-05
-8.43727e-07
1.04345e-05
-7.27175e-07
1.03768e-05
-6.01722e-07
1.03283e-05
-4.67859e-07
1.02895e-05
-3.26406e-07
1.02605e-05
-1.78484e-07
1.02415e-05
-2.54578e-08
1.02327e-05
1.31086e-07
1.02337e-05
2.89317e-07
1.02445e-05
4.4714e-07
1.02647e-05
6.02836e-07
1.02937e-05
7.54777e-07
1.03312e-05
9.01382e-07
1.03764e-05
1.04117e-06
1.04286e-05
1.17278e-06
1.04871e-05
1.29503e-06
1.05512e-05
1.40692e-06
1.062e-05
1.50762e-06
1.06927e-05
1.59651e-06
1.07688e-05
1.67311e-06
1.08475e-05
1.73708e-06
1.09284e-05
1.78812e-06
1.10112e-05
1.82594e-06
1.10954e-05
1.85023e-06
1.11807e-05
1.86071e-06
1.12668e-05
1.85728e-06
1.13533e-05
1.83998e-06
1.14397e-05
1.80887e-06
1.15258e-05
1.76408e-06
1.16113e-05
1.70584e-06
1.16959e-05
1.63443e-06
1.17793e-05
1.55021e-06
1.18611e-05
1.45365e-06
1.1941e-05
1.34515e-06
1.20185e-05
1.22591e-06
1.20932e-05
1.09514e-06
1.21649e-05
9.5942e-07
1.22323e-05
7.93834e-07
1.22964e-05
6.68612e-07
4.08086e-07
1.29826e-05
-1.28737e-06
1.29619e-05
-1.47844e-06
1.29281e-05
-1.64909e-06
1.28819e-05
-1.7985e-06
1.28243e-05
-1.92626e-06
1.27562e-05
-2.03216e-06
1.2678e-05
-2.11604e-06
1.25903e-05
-2.17756e-06
1.24932e-05
-2.21639e-06
1.23873e-05
-2.23288e-06
1.22735e-05
-2.22845e-06
1.21525e-05
-2.20502e-06
1.20252e-05
-2.16501e-06
1.18925e-05
-2.11137e-06
1.17555e-05
-2.04726e-06
1.16154e-05
-1.97587e-06
1.14734e-05
-1.90009e-06
1.13309e-05
-1.82228e-06
1.11892e-05
-1.74396e-06
1.10496e-05
-1.66547e-06
1.09131e-05
-1.58622e-06
1.07809e-05
-1.50503e-06
1.0654e-05
-1.42027e-06
1.05337e-05
-1.33013e-06
1.04208e-05
-1.23284e-06
1.03164e-05
-1.1269e-06
1.02213e-05
-1.01126e-06
1.01365e-05
-8.85304e-07
1.00624e-05
-7.48928e-07
9.99989e-06
-6.02525e-07
9.94931e-06
-4.46936e-07
9.91106e-06
-2.83395e-07
9.88535e-06
-1.13478e-07
9.87228e-06
6.0974e-08
9.87171e-06
2.37914e-07
9.88319e-06
4.15105e-07
9.9062e-06
5.90427e-07
9.94019e-06
7.61925e-07
9.98449e-06
9.27777e-07
1.00384e-05
1.08634e-06
1.01009e-05
1.23611e-06
1.01713e-05
1.37579e-06
1.02485e-05
1.50428e-06
1.03318e-05
1.6207e-06
1.04202e-05
1.72432e-06
1.0513e-05
1.8146e-06
1.06095e-05
1.89109e-06
1.07092e-05
1.95339e-06
1.08118e-05
2.00109e-06
1.09169e-05
2.03372e-06
1.10242e-05
2.05084e-06
1.11334e-05
2.05212e-06
1.1244e-05
2.03736e-06
1.13557e-05
2.00627e-06
1.14682e-05
1.95866e-06
1.15811e-05
1.89441e-06
1.1694e-05
1.81352e-06
1.18063e-05
1.71606e-06
1.19177e-05
1.60228e-06
1.20273e-05
1.47258e-06
1.21346e-05
1.32759e-06
1.22387e-05
1.16811e-06
1.23387e-05
9.95193e-07
1.24339e-05
8.10111e-07
1.25234e-05
6.14321e-07
1.26064e-05
4.09577e-07
1.26818e-05
1.98253e-07
1.27482e-05
-1.61272e-08
1.28049e-05
-2.30079e-07
1.28511e-05
-4.40715e-07
1.28864e-05
-6.45231e-07
1.29103e-05
-8.40948e-07
1.29226e-05
-1.02539e-06
1.2923e-05
-1.19635e-06
1.29118e-05
-1.35191e-06
1.28888e-05
-1.49047e-06
1.28545e-05
-1.61081e-06
1.28091e-05
-1.71197e-06
1.27527e-05
-1.79311e-06
1.26851e-05
-1.85315e-06
1.26058e-05
-1.89099e-06
1.25151e-05
-1.90644e-06
1.24138e-05
-1.90091e-06
1.2303e-05
-1.87661e-06
1.21841e-05
-1.83648e-06
1.20586e-05
-1.78397e-06
1.19284e-05
-1.72271e-06
1.17952e-05
-1.65618e-06
1.16609e-05
-1.58755e-06
1.15275e-05
-1.51914e-06
1.13962e-05
-1.452e-06
1.1268e-05
-1.38618e-06
1.11439e-05
-1.32103e-06
1.10246e-05
-1.25541e-06
1.0911e-05
-1.18782e-06
1.08036e-05
-1.11657e-06
1.07031e-05
-1.04003e-06
1.06099e-05
-9.56814e-07
1.05246e-05
-8.6591e-07
1.04475e-05
-7.66678e-07
1.03792e-05
-6.5885e-07
1.032e-05
-5.42527e-07
1.02703e-05
-4.1816e-07
1.02304e-05
-2.86523e-07
1.02006e-05
-1.48665e-07
1.0181e-05
-5.87101e-09
1.01717e-05
1.40377e-07
1.01726e-05
2.88412e-07
1.01835e-05
4.36302e-07
1.02039e-05
5.82385e-07
1.02336e-05
7.25134e-07
1.02719e-05
8.63063e-07
1.03183e-05
9.94773e-07
1.03721e-05
1.11898e-06
1.04326e-05
1.23455e-06
1.0499e-05
1.34049e-06
1.05706e-05
1.436e-06
1.06467e-05
1.52041e-06
1.07266e-05
1.5932e-06
1.08098e-05
1.65393e-06
1.08957e-05
1.70223e-06
1.09839e-05
1.73772e-06
1.10741e-05
1.76005e-06
1.11658e-05
1.76902e-06
1.12585e-05
1.76454e-06
1.13519e-05
1.74661e-06
1.14455e-05
1.71526e-06
1.1539e-05
1.6706e-06
1.1632e-05
1.61286e-06
1.17241e-05
1.54232e-06
1.18149e-05
1.45934e-06
1.19042e-05
1.36443e-06
1.19913e-05
1.25801e-06
1.20758e-05
1.14139e-06
1.21574e-05
1.01357e-06
1.22357e-05
8.81142e-07
1.23093e-05
7.20254e-07
1.23792e-05
5.98646e-07
3.47584e-07
1.31405e-05
-1.27528e-06
1.3114e-05
-1.45191e-06
1.30738e-05
-1.60892e-06
1.30209e-05
-1.7456e-06
1.29562e-05
-1.86154e-06
1.28804e-05
-1.95644e-06
1.27942e-05
-2.02984e-06
1.26979e-05
-2.08117e-06
1.25917e-05
-2.11024e-06
1.24766e-05
-2.11782e-06
1.23535e-05
-2.10532e-06
1.22232e-05
-2.07469e-06
1.20867e-05
-2.02847e-06
1.1945e-05
-1.96972e-06
1.17995e-05
-1.90171e-06
1.16513e-05
-1.82776e-06
1.15021e-05
-1.75088e-06
1.13534e-05
-1.67351e-06
1.12063e-05
-1.5969e-06
1.1062e-05
-1.52118e-06
1.09215e-05
-1.44572e-06
1.07858e-05
-1.36933e-06
1.06559e-05
-1.29036e-06
1.05328e-05
-1.20702e-06
1.04175e-05
-1.1175e-06
1.03108e-05
-1.02026e-06
1.02137e-05
-9.14161e-07
1.0127e-05
-7.98542e-07
1.00512e-05
-6.73209e-07
9.98714e-06
-5.38434e-07
9.93514e-06
-3.94932e-07
9.89556e-06
-2.43816e-07
9.86862e-06
-8.65419e-08
9.85441e-06
7.51826e-08
9.853e-06
2.39322e-07
9.86393e-06
4.04182e-07
9.88651e-06
5.67841e-07
9.92033e-06
7.28112e-07
9.96478e-06
8.83324e-07
1.00191e-05
1.03198e-06
1.00826e-05
1.17265e-06
1.01543e-05
1.30408e-06
1.02334e-05
1.4252e-06
1.0319e-05
1.53508e-06
1.04104e-05
1.63296e-06
1.05068e-05
1.71822e-06
1.06075e-05
1.79032e-06
1.07122e-05
1.84874e-06
1.08203e-05
1.89297e-06
1.09315e-05
1.92251e-06
1.10454e-05
1.93697e-06
1.11614e-05
1.93608e-06
1.12792e-05
1.91954e-06
1.13984e-05
1.8871e-06
1.15185e-05
1.83858e-06
1.1639e-05
1.7739e-06
1.17594e-05
1.6931e-06
1.18791e-05
1.59633e-06
1.19975e-05
1.48389e-06
1.21139e-05
1.35626e-06
1.22273e-05
1.21414e-06
1.2337e-05
1.05839e-06
1.24421e-05
8.90109e-07
1.25417e-05
7.10538e-07
1.26349e-05
5.21117e-07
1.27208e-05
3.23676e-07
1.27981e-05
1.20889e-07
1.28657e-05
-8.3691e-08
1.29227e-05
-2.87069e-07
1.29684e-05
-4.86458e-07
1.30024e-05
-6.79184e-07
1.30241e-05
-8.62707e-07
1.30334e-05
-1.03469e-06
1.30302e-05
-1.19307e-06
1.30144e-05
-1.33608e-06
1.29862e-05
-1.46228e-06
1.29458e-05
-1.57048e-06
1.28935e-05
-1.65968e-06
1.28292e-05
-1.72876e-06
1.27524e-05
-1.77632e-06
1.26629e-05
-1.80151e-06
1.25615e-05
-1.80505e-06
1.24492e-05
-1.78866e-06
1.23275e-05
-1.75486e-06
1.21979e-05
-1.7069e-06
1.20624e-05
-1.64842e-06
1.19229e-05
-1.58321e-06
1.17816e-05
-1.51487e-06
1.16405e-05
-1.4465e-06
1.15013e-05
-1.37992e-06
1.13651e-05
-1.31578e-06
1.12328e-05
-1.25391e-06
1.11053e-05
-1.19354e-06
1.09833e-05
-1.13339e-06
1.08673e-05
-1.07185e-06
1.0758e-05
-1.00723e-06
1.06558e-05
-9.37852e-07
1.05613e-05
-8.62266e-07
1.04748e-05
-7.79412e-07
1.03967e-05
-6.88654e-07
1.03276e-05
-5.89709e-07
1.02677e-05
-4.82661e-07
1.02175e-05
-3.67931e-07
1.01772e-05
-2.46243e-07
1.01471e-05
-1.1858e-07
1.01274e-05
1.3849e-08
1.01181e-05
1.49667e-07
1.01192e-05
2.87357e-07
1.01303e-05
4.25163e-07
1.01512e-05
5.61463e-07
1.01815e-05
6.94824e-07
1.02208e-05
8.23852e-07
1.02683e-05
9.47225e-07
1.03236e-05
1.06373e-06
1.03858e-05
1.17227e-06
1.04544e-05
1.27189e-06
1.05287e-05
1.36178e-06
1.06078e-05
1.44125e-06
1.06913e-05
1.50973e-06
1.07785e-05
1.56672e-06
1.08689e-05
1.61176e-06
1.09622e-05
1.64445e-06
1.10578e-05
1.66444e-06
1.11553e-05
1.67157e-06
1.12541e-05
1.66576e-06
1.13537e-05
1.64693e-06
1.14539e-05
1.61512e-06
1.1554e-05
1.57045e-06
1.16538e-05
1.51311e-06
1.17527e-05
1.44341e-06
1.18503e-05
1.3617e-06
1.19462e-05
1.26855e-06
1.20398e-05
1.16439e-06
1.21306e-05
1.05059e-06
1.22183e-05
9.25844e-07
1.23024e-05
7.97034e-07
1.23815e-05
6.41247e-07
1.24567e-05
5.23443e-07
2.82421e-07
1.32795e-05
-1.25809e-06
1.32475e-05
-1.41983e-06
1.32014e-05
-1.56285e-06
1.31423e-05
-1.68648e-06
1.3071e-05
-1.79025e-06
1.29882e-05
-1.87366e-06
1.28943e-05
-1.93597e-06
1.27897e-05
-1.97657e-06
1.26751e-05
-1.99562e-06
1.25514e-05
-1.99407e-06
1.24193e-05
-1.97332e-06
1.22801e-05
-1.93544e-06
1.21348e-05
-1.88313e-06
1.19846e-05
-1.81957e-06
1.18311e-05
-1.74821e-06
1.16758e-05
-1.67247e-06
1.15205e-05
-1.59556e-06
1.13666e-05