/*--------------------------------*- C++ -*----------------------------------*\
| =========                 |                                                 |
| \\      /  F ield         | OpenFOAM: The Open Source CFD Toolbox           |
|  \\    /   O peration     | Version:  2206                                  |
|   \\  /    A nd           | Website:  www.openfoam.com                      |
|    \\/     M anipulation  |                                                 |
\*---------------------------------------------------------------------------*/
FoamFile
{
    version     2.0;
    format      ascii;
    arch        "LSB;label=32;scalar=64";
    class       volVectorField;
    location    "18.9";
    object      U_0;
}
// * * * * * * * * * * * * * * * * * * * * * * * * * * * * * * * * * * * * * //

dimensions      [0 1 -1 0 0 0 0];

internalField   nonuniform List<vector> 
1848
(
(2.1907 0.202975 0)
(2.12827 0.192476 0)
(2.06925 0.183133 0)
(2.01631 0.175504 0)
(1.97086 0.168683 0)
(1.93315 0.161032 0)
(1.90263 0.150554 0)
(1.87865 0.135209 0)
(1.86101 0.113825 0)
(1.84932 0.0863134 0)
(1.84306 0.0530381 0)
(1.84204 0.0151018 0)
(1.84614 -0.0257027 0)
(1.85502 -0.0668731 0)
(1.86807 -0.105757 0)
(1.88471 -0.140545 0)
(1.90423 -0.169808 0)
(1.92591 -0.192595 0)
(1.94918 -0.208317 0)
(1.97375 -0.216602 0)
(1.99917 -0.217235 0)
(2.02484 -0.210253 0)
(2.05028 -0.195882 0)
(2.07494 -0.174702 0)
(2.09849 -0.147555 0)
(2.12071 -0.115292 0)
(2.14115 -0.0789679 0)
(2.15864 -0.0404231 0)
(2.17184 -0.00178913 0)
(2.1797 0.0351414 0)
(2.1814 0.0687758 0)
(2.17632 0.0979196 0)
(2.16379 0.121589 0)
(2.14392 0.138672 0)
(2.11807 0.149159 0)
(2.08816 0.154282 0)
(2.05671 0.155368 0)
(2.02617 0.153433 0)
(1.99777 0.148932 0)
(1.97236 0.141745 0)
(1.95042 0.131563 0)
(1.93221 0.117972 0)
(1.91793 0.100716 0)
(1.90763 0.079895 0)
(1.90116 0.0557811 0)
(1.89843 0.028971 0)
(1.89937 0.000389419 0)
(1.90377 -0.0285899 0)
(1.9112 -0.0562961 0)
(1.92127 -0.0815245 0)
(1.93347 -0.103279 0)
(1.94725 -0.120852 0)
(1.96211 -0.133826 0)
(1.97768 -0.142014 0)
(1.9938 -0.145336 0)
(2.01007 -0.143789 0)
(2.02615 -0.137524 0)
(2.04173 -0.126786 0)
(2.05644 -0.112002 0)
(2.06997 -0.0937299 0)
(2.08202 -0.0725937 0)
(2.09218 -0.0493424 0)
(2.09984 -0.0250536 0)
(2.10455 -0.000740916 0)
(2.10606 0.0227112 0)
(2.10424 0.0444877 0)
(2.09906 0.0638863 0)
(2.09056 0.0803391 0)
(2.07894 0.0933885 0)
(2.0647 0.102737 0)
(2.04863 0.10838 0)
(2.03157 0.110619 0)
(2.01428 0.109788 0)
(1.99745 0.106071 0)
(1.98165 0.0994929 0)
(1.96743 0.0900982 0)
(1.95522 0.0779894 0)
(1.94528 0.0632916 0)
(1.93776 0.0462414 0)
(1.93283 0.0272227 0)
(1.9306 0.00682187 0)
(1.93112 -0.014038 0)
(1.93427 -0.034233 0)
(1.93975 -0.0528505 0)
(1.94718 -0.0690805 0)
(1.95605 -0.0823124 0)
(1.96588 -0.0921894 0)
(1.97631 -0.0985647 0)
(1.98717 -0.101406 0)
(1.99821 -0.100751 0)
(2.00917 -0.096715 0)
(2.01983 -0.0894641 0)
(2.02991 -0.079332 0)
(2.03917 -0.0667487 0)
(2.04741 -0.0521641 0)
(2.05438 -0.0360865 0)
(2.05975 -0.0192047 0)
(2.06326 -0.00224436 0)
(2.0648 0.0141984 0)
(2.06435 0.0295755 0)
(2.06197 0.0434055 0)
(2.0578 0.0552866 0)
(2.05199 0.06492 0)
(2.04473 0.0720958 0)
(2.03623 0.0766822 0)
(2.02685 0.0786899 0)
(2.01697 0.0782861 0)
(2.00693 0.0755994 0)
(1.99711 0.0707181 0)
(1.98791 0.0638055 0)
(1.9797 0.0550655 0)
(1.97271 0.0447011 0)
(1.96714 0.0329324 0)
(1.96316 0.0200272 0)
(1.9609 0.0063563 0)
(1.96046 -0.00748821 0)
(1.96182 -0.0209045 0)
(1.96483 -0.0333359 0)
(1.96925 -0.0442795 0)
(1.97478 -0.0533363 0)
(1.98112 -0.0602419 0)
(1.988 -0.064862 0)
(1.99526 -0.0671523 0)
(2.30277 0.261091 0)
(2.25098 0.253199 0)
(2.19719 0.241251 0)
(2.14627 0.227715 0)
(2.10066 0.213324 0)
(2.06186 0.197656 0)
(2.03037 0.179406 0)
(2.00605 0.156702 0)
(1.98877 0.128624 0)
(1.97777 0.0950419 0)
(1.97235 0.056229 0)
(1.97209 0.0131315 0)
(1.9766 -0.0325269 0)
(1.98527 -0.077906 0)
(1.99744 -0.12044 0)
(2.01251 -0.158184 0)
(2.02974 -0.189648 0)
(2.04834 -0.213938 0)
(2.0676 -0.230684 0)
(2.08743 -0.239779 0)
(2.1079 -0.240964 0)
(2.12843 -0.234024 0)
(2.14868 -0.219037 0)
(2.16801 -0.196675 0)
(2.18602 -0.167996 0)
(2.20258 -0.134126 0)
(2.21768 -0.096106 0)
(2.23111 -0.055034 0)
(2.24218 -0.0126848 0)
(2.25007 0.028969 0)
(2.25399 0.068274 0)
(2.25331 0.103624 0)
(2.24759 0.133655 0)
(2.23645 0.157466 0)
(2.21952 0.174279 0)
(2.19761 0.183429 0)
(2.17224 0.185792 0)
(2.14518 0.183017 0)
(2.11858 0.176351 0)
(2.0941 0.166042 0)
(2.07279 0.152122 0)
(2.05526 0.134452 0)
(2.04176 0.113073 0)
(2.03216 0.088158 0)
(2.02633 0.0600999 0)
(2.0241 0.0295112 0)
(2.02527 -0.0026362 0)
(2.02944 -0.0346932 0)
(2.03618 -0.0650725 0)
(2.04507 -0.092485 0)
(2.05562 -0.115874 0)
(2.06728 -0.13453 0)
(2.07949 -0.148147 0)
(2.09193 -0.156734 0)
(2.10464 -0.160314 0)
(2.11748 -0.158777 0)
(2.13019 -0.152176 0)
(2.14254 -0.140717 0)
(2.15413 -0.124854 0)
(2.16461 -0.1052 0)
(2.17372 -0.0824354 0)
(2.18123 -0.0572854 0)
(2.18687 -0.03058 0)
(2.1903 -0.00354185 0)
(2.19129 0.0227846 0)
(2.18979 0.0475181 0)
(2.18576 0.0698544 0)
(2.17931 0.0890839 0)
(2.1706 0.104668 0)
(2.15988 0.116232 0)
(2.14743 0.123545 0)
(2.13377 0.126654 0)
(2.11958 0.126002 0)
(2.10536 0.12188 0)
(2.09178 0.114196 0)
(2.07954 0.103139 0)
(2.06908 0.0889787 0)
(2.06068 0.0719755 0)
(2.05453 0.0524497 0)
(2.05077 0.0308108 0)
(2.0495 0.00767402 0)
(2.05068 -0.0158815 0)
(2.05409 -0.0385396 0)
(2.05941 -0.0592362 0)
(2.06617 -0.0770345 0)
(2.07387 -0.091283 0)
(2.08198 -0.101701 0)
(2.0901 -0.108338 0)
(2.09824 -0.111336 0)
(2.10648 -0.110725 0)
(2.11465 -0.106544 0)
(2.12268 -0.0988675 0)
(2.13028 -0.0880562 0)
(2.13723 -0.0745839 0)
(2.14337 -0.0589266 0)
(2.14852 -0.0415934 0)
(2.15246 -0.0231553 0)
(2.15495 -0.00444498 0)
(2.15583 0.0137908 0)
(2.15512 0.0309336 0)
(2.15289 0.0464318 0)
(2.14927 0.0598223 0)
(2.14451 0.0707584 0)
(2.13884 0.079028 0)
(2.13247 0.0845487 0)
(2.12543 0.0872931 0)
(2.11796 0.0873183 0)
(2.11027 0.084741 0)
(2.10263 0.079564 0)
(2.09542 0.071977 0)
(2.08896 0.0622583 0)
(2.08349 0.0506737 0)
(2.07918 0.0374966 0)
(2.07619 0.0230255 0)
(2.07468 0.00765049 0)
(2.07475 -0.00796892 0)
(2.07636 -0.0230674 0)
(2.07936 -0.0369852 0)
(2.08349 -0.0491231 0)
(2.08842 -0.0590275 0)
(2.09378 -0.0664472 0)
(2.09925 -0.0713509 0)
(2.10475 -0.0738208 0)
(2.36065 0.301597 0)
(2.32643 0.299839 0)
(2.28675 0.289797 0)
(2.2455 0.27411 0)
(2.20662 0.254893 0)
(2.17234 0.232924 0)
(2.14395 0.207553 0)
(2.12206 0.177669 0)
(2.10667 0.142984 0)
(2.09704 0.10338 0)
(2.09261 0.059152 0)
(2.09288 0.0111195 0)
(2.09725 -0.0388683 0)
(2.10497 -0.0878282 0)
(2.11538 -0.133336 0)
(2.12792 -0.173336 0)
(2.14194 -0.206281 0)
(2.15669 -0.231306 0)
(2.17129 -0.248294 0)
(2.18552 -0.257653 0)
(2.20014 -0.259108 0)
(2.21482 -0.25204 0)
(2.22926 -0.236358 0)
(2.24276 -0.212917 0)
(2.25511 -0.182983 0)
(2.26628 -0.147782 0)
(2.27628 -0.10836 0)
(2.28508 -0.0657561 0)
(2.29253 -0.0214013 0)
(2.29836 0.0227431 0)
(2.30224 0.0651857 0)
(2.30375 0.10438 0)
(2.30243 0.138745 0)
(2.2979 0.166993 0)
(2.28989 0.188428 0)
(2.27811 0.202762 0)
(2.26254 0.209505 0)
(2.24443 0.20866 0)
(2.22447 0.201347 0)
(2.20429 0.188412 0)
(2.18596 0.170894 0)
(2.17043 0.149424 0)
(2.15802 0.124232 0)
(2.14893 0.0956563 0)
(2.14316 0.0641464 0)
(2.1406 0.0302963 0)
(2.14094 -0.00483339 0)
(2.14369 -0.0394637 0)
(2.1484 -0.0720427 0)
(2.1547 -0.101199 0)
(2.16221 -0.125806 0)
(2.1705 -0.145137 0)
(2.17908 -0.158974 0)
(2.18754 -0.167605 0)
(2.19609 -0.171329 0)
(2.20489 -0.169912 0)
(2.21382 -0.16321 0)
(2.22272 -0.15127 0)
(2.23113 -0.134564 0)
(2.23871 -0.113762 0)
(2.24522 -0.0896129 0)
(2.25045 -0.0628956 0)
(2.25425 -0.0344444 0)
(2.25642 -0.00536672 0)
(2.25686 0.0231117 0)
(2.25555 0.0500695 0)
(2.25245 0.0746316 0)
(2.24759 0.0959683 0)
(2.24117 0.113376 0)
(2.23352 0.126438 0)
(2.22493 0.13503 0)
(2.21555 0.139143 0)
(2.20561 0.138841 0)
(2.19522 0.134361 0)
(2.18487 0.125686 0)
(2.17553 0.113121 0)
(2.1677 0.0970935 0)
(2.16162 0.0780013 0)
(2.15747 0.0562601 0)
(2.15538 0.032328 0)
(2.15534 0.00688653 0)
(2.15706 -0.0187291 0)
(2.16013 -0.0431172 0)
(2.16422 -0.065141 0)
(2.16904 -0.083796 0)
(2.17425 -0.0984159 0)
(2.17952 -0.108784 0)
(2.18443 -0.115174 0)
(2.18897 -0.118114 0)
(2.19364 -0.117564 0)
(2.19856 -0.113332 0)
(2.20375 -0.105426 0)
(2.20881 -0.0942014 0)
(2.21355 -0.0801341 0)
(2.21782 -0.0637009 0)
(2.22146 -0.0454054 0)
(2.22428 -0.0258095 0)
(2.22606 -0.00570218 0)
(2.22661 0.0139769 0)
(2.22589 0.0325355 0)
(2.22395 0.0493294 0)
(2.22092 0.0638109 0)
(2.21702 0.0755793 0)
(2.21253 0.0844137 0)
(2.20782 0.0903063 0)
(2.20297 0.0934176 0)
(2.19784 0.0937584 0)
(2.19249 0.0912567 0)
(2.18707 0.085844 0)
(2.18201 0.0777308 0)
(2.17761 0.067247 0)
(2.17402 0.0547042 0)
(2.17141 0.0404062 0)
(2.16993 0.0246671 0)
(2.16967 0.00789717 0)
(2.17059 -0.00915747 0)
(2.17254 -0.0255601 0)
(2.1753 -0.0405558 0)
(2.17866 -0.0534684 0)
(2.18238 -0.063797 0)
(2.18619 -0.0713021 0)
(2.18974 -0.076074 0)
(2.19291 -0.0784742 0)
(2.37602 0.323021 0)
(2.35834 0.329176 0)
(2.33552 0.323904 0)
(2.3086 0.309584 0)
(2.28053 0.288241 0)
(2.25452 0.261668 0)
(2.23266 0.230502 0)
(2.21587 0.194709 0)
(2.20421 0.15435 0)
(2.19731 0.10959 0)
(2.19474 0.0607443 0)
(2.196 0.00862495 0)
(2.20034 -0.0446786 0)
(2.20686 -0.0962321 0)
(2.21489 -0.143765 0)
(2.22395 -0.185187 0)
(2.23371 -0.218884 0)
(2.24378 -0.243904 0)
(2.25332 -0.260293 0)
(2.26158 -0.269201 0)
(2.26971 -0.271274 0)
(2.27806 -0.264315 0)
(2.28611 -0.247713 0)
(2.29291 -0.223009 0)
(2.29886 -0.191863 0)
(2.30417 -0.155561 0)
(2.3089 -0.115135 0)
(2.31307 -0.0715308 0)
(2.31664 -0.0261033 0)
(2.31918 0.0192469 0)
(2.32067 0.0629685 0)
(2.32125 0.103548 0)
(2.32104 0.139717 0)
(2.31982 0.170428 0)
(2.31745 0.194368 0)
(2.31422 0.210422 0)
(2.31049 0.219061 0)
(2.30545 0.221021 0)
(2.29786 0.217827 0)
(2.28691 0.205878 0)
(2.27475 0.187531 0)
(2.26352 0.163874 0)
(2.25378 0.135697 0)
(2.24608 0.103785 0)
(2.24072 0.0688958 0)
(2.23767 0.0318979 0)
(2.23664 -0.00573676 0)
(2.23709 -0.0422657 0)
(2.23862 -0.0763052 0)
(2.24105 -0.106591 0)
(2.24429 -0.13202 0)
(2.24822 -0.151798 0)
(2.25262 -0.165678 0)
(2.25696 -0.174111 0)
(2.26116 -0.17794 0)
(2.26587 -0.177018 0)
(2.27117 -0.170579 0)
(2.27678 -0.158532 0)
(2.28201 -0.141345 0)
(2.28662 -0.119753 0)
(2.29047 -0.0945739 0)
(2.29338 -0.0666243 0)
(2.29515 -0.0367562 0)
(2.29577 -0.00625161 0)
(2.29532 0.0235459 0)
(2.29397 0.0518082 0)
(2.29185 0.0776755 0)
(2.28906 0.100196 0)
(2.28571 0.118667 0)
(2.28194 0.132575 0)
(2.27818 0.14168 0)
(2.27448 0.146078 0)
(2.2703 0.14675 0)
(2.26538 0.143584 0)
(2.25997 0.134494 0)
(2.25494 0.120977 0)
(2.25069 0.103547 0)
(2.24739 0.0827447 0)
(2.24516 0.0591187 0)
(2.24397 0.0332718 0)
(2.24364 0.00619895 0)
(2.24382 -0.0205207 0)
(2.24423 -0.0456724 0)
(2.24482 -0.0682171 0)
(2.2456 -0.0872053 0)
(2.24665 -0.101938 0)
(2.24794 -0.112133 0)
(2.24926 -0.118057 0)
(2.25049 -0.120451 0)
(2.25194 -0.120505 0)
(2.25399 -0.11711 0)
(2.25672 -0.109357 0)
(2.25961 -0.0981471 0)
(2.26245 -0.0839036 0)
(2.26515 -0.0671168 0)
(2.26756 -0.0483039 0)
(2.26952 -0.0279924 0)
(2.27086 -0.006912 0)
(2.27142 0.013879 0)
(2.27115 0.0335715 0)
(2.27006 0.05144 0)
(2.26819 0.0668487 0)
(2.2657 0.0792952 0)
(2.26287 0.0884623 0)
(2.26011 0.0943779 0)
(2.25762 0.0974134 0)
(2.25509 0.0980309 0)
(2.25239 0.0959494 0)
(2.24952 0.0902888 0)
(2.24698 0.0816856 0)
(2.24494 0.0704838 0)
(2.24348 0.0570371 0)
(2.24265 0.0416985 0)
(2.24248 0.0248433 0)
(2.24293 0.00699279 0)
(2.2438 -0.010864 0)
(2.24487 -0.0278383 0)
(2.24601 -0.0432127 0)
(2.24719 -0.0563449 0)
(2.24841 -0.0667152 0)
(2.24963 -0.074007 0)
(2.25072 -0.0783001 0)
(2.25161 -0.0801348 0)
(2.36235 0.312094 0)
(2.35817 0.331596 0)
(2.35282 0.340807 0)
(2.34406 0.340888 0)
(2.33225 0.330511 0)
(2.31808 0.310127 0)
(2.3041 0.282021 0)
(2.29216 0.247437 0)
(2.28252 0.207289 0)
(2.27631 0.162378 0)
(2.27324 0.113402 0)
(2.27303 0.0608817 0)
(2.27535 0.00573658 0)
(2.27953 -0.0495736 0)
(2.2847 -0.102392 0)
(2.29007 -0.150626 0)
(2.29508 -0.192537 0)
(2.29973 -0.2267 0)
(2.30422 -0.251623 0)
(2.30841 -0.266693 0)
(2.31122 -0.273247 0)
(2.31257 -0.274359 0)
(2.31304 -0.268421 0)
(2.31322 -0.250989 0)
(2.31354 -0.225883 0)
(2.31403 -0.194608 0)
(2.31495 -0.158298 0)
(2.31577 -0.117687 0)
(2.31658 -0.0736861 0)
(2.3172 -0.0275367 0)
(2.3175 0.0186503 0)
(2.31751 0.063006 0)
(2.31718 0.104081 0)
(2.31648 0.14059 0)
(2.31552 0.171314 0)
(2.31464 0.195069 0)
(2.31429 0.21092 0)
(2.31438 0.219215 0)
(2.31447 0.221771 0)
(2.31407 0.220759 0)
(2.3131 0.210853 0)
(2.31156 0.19364 0)
(2.30961 0.17028 0)
(2.3074 0.141807 0)
(2.30504 0.109152 0)
(2.30281 0.0731972 0)
(2.30081 0.0350829 0)
(2.29888 -0.00349447 0)
(2.29699 -0.040815 0)
(2.29525 -0.0755691 0)
(2.29381 -0.1066 0)
(2.29289 -0.132828 0)
(2.29271 -0.15342 0)
(2.29335 -0.167865 0)
(2.2945 -0.176333 0)
(2.2956 -0.17989 0)
(2.297 -0.179876 0)
(2.29894 -0.174132 0)
(2.3012 -0.161807 0)
(2.30319 -0.144193 0)
(2.30496 -0.122069 0)
(2.30643 -0.0962462 0)
(2.30741 -0.067544 0)
(2.30783 -0.0368926 0)
(2.30775 -0.00554734 0)
(2.30643 0.0250274 0)
(2.30431 0.0538029 0)
(2.30168 0.0799667 0)
(2.29885 0.102676 0)
(2.29618 0.121085 0)
(2.29396 0.134565 0)
(2.29248 0.142982 0)
(2.29187 0.146878 0)
(2.29163 0.147639 0)
(2.29149 0.145114 0)
(2.2914 0.136103 0)
(2.29134 0.122509 0)
(2.29129 0.104891 0)
(2.29118 0.083867 0)
(2.29094 0.0600925 0)
(2.29046 0.0342995 0)
(2.28953 0.00750321 0)
(2.28805 -0.0188742 0)
(2.28614 -0.0438022 0)
(2.28401 -0.0663205 0)
(2.28188 -0.0855153 0)
(2.28 -0.100691 0)
(2.27859 -0.111404 0)
(2.27774 -0.117776 0)
(2.27736 -0.120492 0)
(2.27729 -0.120875 0)
(2.27774 -0.118314 0)
(2.27875 -0.110864 0)
(2.28001 -0.0998385 0)
(2.28137 -0.0856436 0)
(2.28279 -0.0687812 0)
(2.28409 -0.0497638 0)
(2.28509 -0.029136 0)
(2.28569 -0.00762853 0)
(2.28585 0.0136528 0)
(2.28561 0.0338672 0)
(2.28497 0.052275 0)
(2.28402 0.0681613 0)
(2.2829 0.0808924 0)
(2.2818 0.0900688 0)
(2.28089 0.0956931 0)
(2.28032 0.0982433 0)
(2.28005 0.0987296 0)
(2.27986 0.0971095 0)
(2.27973 0.0912608 0)
(2.27975 0.0824168 0)
(2.27991 0.0709565 0)
(2.28013 0.0572569 0)
(2.28036 0.0416973 0)
(2.28053 0.0246945 0)
(2.2805 0.00686219 0)
(2.2802 -0.0108115 0)
(2.27965 -0.0275499 0)
(2.27891 -0.0427207 0)
(2.2781 -0.0557605 0)
(2.2773 -0.0661493 0)
(2.27662 -0.0735753 0)
(2.27612 -0.0780677 0)
(2.27581 -0.0800521 0)
(2.2802 -0.0776781 0)
(2.27961 -0.0798394 0)
(0.0309973 0.00142811 0)
(0.0291003 0.00147242 0)
(0.0270756 0.00160222 0)
(0.0247757 0.00172342 0)
(0.0221449 0.00185761 0)
(0.0193405 0.00193247 0)
(0.0164205 0.00190269 0)
(0.013712 0.00178626 0)
(0.0114625 0.00149005 0)
(0.00988039 0.00105197 0)
(0.00928156 0.000459817 0)
(0.00978608 -0.000256762 0)
(0.0115599 -0.000978515 0)
(0.0147292 -0.00168186 0)
(0.0192745 -0.00233551 0)
(0.0250878 -0.00290753 0)
(0.0319861 -0.0033702 0)
(0.0397288 -0.00370335 0)
(0.0480289 -0.00389672 0)
(0.0565881 -0.00394493 0)
(0.0651062 -0.00385113 0)
(0.0733107 -0.0036311 0)
(0.0809558 -0.00331295 0)
(0.0878515 -0.00291624 0)
(0.0938523 -0.00246141 0)
(0.0988806 -0.00197627 0)
(0.102894 -0.00149249 0)
(0.105892 -0.00101718 0)
(0.107897 -0.000554225 0)
(0.108955 -0.000102258 0)
(0.109166 0.000336086 0)
(0.108596 0.000734596 0)
(0.107282 0.00109183 0)
(0.105277 0.00141348 0)
(0.102639 0.00170449 0)
(0.0994262 0.00196032 0)
(0.0957157 0.00217192 0)
(0.0916009 0.00233541 0)
(0.0871938 0.00243762 0)
(0.0826349 0.00246584 0)
(0.0780848 0.00241357 0)
(0.0737235 0.0022742 0)
(0.0697412 0.00204162 0)
(0.0663278 0.00171577 0)
(0.0636667 0.00131599 0)
(0.061919 0.000859685 0)
(0.0611785 0.000340996 0)
(0.0614477 -0.000227089 0)
(0.0627389 -0.000747794 0)
(0.065055 -0.00122086 0)
(0.0683038 -0.00162899 0)
(0.0723468 -0.00196223 0)
(0.077018 -0.00220697 0)
(0.0821333 -0.0023594 0)
(0.0874944 -0.00242 0)
(0.0929119 -0.00238861 0)
(0.0982004 -0.00227706 0)
(0.103197 -0.00209354 0)
(0.107766 -0.00185128 0)
(0.111796 -0.00156969 0)
(0.11521 -0.00125702 0)
(0.117957 -0.000923573 0)
(0.120015 -0.000590076 0)
(0.121376 -0.000263199 0)
(0.12205 6.19935e-05 0)
(0.122099 0.000387321 0)
(0.121566 0.00066792 0)
(0.120485 0.000915182 0)
(0.118916 0.00112727 0)
(0.11693 0.00130215 0)
(0.114607 0.00143561 0)
(0.112033 0.0015228 0)
(0.109311 0.00155805 0)
(0.106552 0.00153825 0)
(0.103877 0.00145731 0)
(0.101414 0.00131256 0)
(0.0992942 0.0011066 0)
(0.0976476 0.000843426 0)
(0.0965958 0.000531457 0)
(0.0962035 0.000161797 0)
(0.0964985 -0.000244496 0)
(0.0975233 -0.000629068 0)
(0.0992977 -0.000990922 0)
(0.10178 -0.00131672 0)
(0.104895 -0.00159511 0)
(0.108538 -0.00181594 0)
(0.112583 -0.00197195 0)
(0.116889 -0.00205873 0)
(0.121306 -0.00207398 0)
(0.125682 -0.00201859 0)
(0.129874 -0.00189828 0)
(0.133752 -0.00172132 0)
(0.137204 -0.0014965 0)
(0.140136 -0.00123327 0)
(0.142479 -0.00094225 0)
(0.144182 -0.000634713 0)
(0.145216 -0.000320419 0)
(0.145598 4.93427e-06 0)
(0.145363 0.000331673 0)
(0.144541 0.000620061 0)
(0.143169 0.000872592 0)
(0.141311 0.00108716 0)
(0.139041 0.00126225 0)
(0.136439 0.00139729 0)
(0.13359 0.00149162 0)
(0.130585 0.00154424 0)
(0.127519 0.00155246 0)
(0.124487 0.00151519 0)
(0.121578 0.00143318 0)
(0.118882 0.00130956 0)
(0.116487 0.00114799 0)
(0.114473 0.000950873 0)
(0.112908 0.000725341 0)
(0.111849 0.000481549 0)
(0.111335 0.000226587 0)
(0.111349 -6.28205e-05 0)
(0.111877 -0.000321887 0)
(0.112915 -0.00055328 0)
(0.114415 -0.000753765 0)
(0.116309 -0.000917791 0)
(0.11852 -0.00104024 0)
(0.120959 -0.00111928 0)
(0.123533 -0.00115602 0)
(0.199105 0.00216197 0)
(0.199089 0.00229759 0)
(0.19887 0.00263359 0)
(0.198364 0.00305925 0)
(0.197539 0.00344053 0)
(0.196462 0.00366715 0)
(0.195319 0.00360622 0)
(0.194322 0.00319887 0)
(0.193745 0.00234786 0)
(0.193826 0.00105802 0)
(0.194785 -0.000644224 0)
(0.196912 -0.00262995 0)
(0.200383 -0.00472739 0)
(0.20522 -0.00681758 0)
(0.211399 -0.00878173 0)
(0.218807 -0.0105055 0)
(0.227246 -0.0118908 0)
(0.236457 -0.0128644 0)
(0.246139 -0.0133874 0)
(0.255982 -0.0134541 0)
(0.265666 -0.0130885 0)
(0.27491 -0.0123335 0)
(0.283472 -0.0112538 0)
(0.29117 -0.00993301 0)
(0.297872 -0.0084591 0)
(0.303499 -0.006903 0)
(0.308026 -0.00532524 0)
(0.311481 -0.00378918 0)
(0.313916 -0.00233525 0)
(0.315388 -0.000971545 0)
(0.315974 0.000330252 0)
(0.31574 0.00152895 0)
(0.314761 0.0026082 0)
(0.313112 0.00358999 0)
(0.310855 0.00447128 0)
(0.308057 0.00524045 0)
(0.304814 0.0058793 0)
(0.301224 0.00635403 0)
(0.2974 0.00663279 0)
(0.293512 0.0066903 0)
(0.289719 0.00648497 0)
(0.286189 0.00599813 0)
(0.283109 0.00524109 0)
(0.280672 0.00422911 0)
(0.279039 0.00296728 0)
(0.278329 0.00149255 0)
(0.278625 -0.000103815 0)
(0.28002 -0.00176478 0)
(0.282534 -0.00336485 0)
(0.286077 -0.00483515 0)
(0.290549 -0.00611582 0)
(0.295808 -0.00715631 0)
(0.301668 -0.00792253 0)
(0.307936 -0.00839437 0)
(0.3144 -0.0085694 0)
(0.320851 -0.00845864 0)
(0.327107 -0.0080874 0)
(0.332994 -0.00749379 0)
(0.338383 -0.00671808 0)
(0.343165 -0.00580807 0)
(0.34727 -0.0048091 0)
(0.350649 -0.00376235 0)
(0.353293 -0.00270107 0)
(0.35521 -0.00166295 0)
(0.356435 -0.000667234 0)
(0.356995 0.000289692 0)
(0.35694 0.00116606 0)
(0.356341 0.0019334 0)
(0.355263 0.00259152 0)
(0.353781 0.00313415 0)
(0.351981 0.00355005 0)
(0.349955 0.00382228 0)
(0.347813 0.00393305 0)
(0.345665 0.00386766 0)
(0.343633 0.00361897 0)
(0.341841 0.00318267 0)
(0.340414 0.00256067 0)
(0.339472 0.00176445 0)
(0.339115 0.000813607 0)
(0.339426 -0.000267887 0)
(0.34048 -0.00142337 0)
(0.342305 -0.00257237 0)
(0.34487 -0.00366454 0)
(0.348124 -0.00465418 0)
(0.351984 -0.005498 0)
(0.356334 -0.00615938 0)
(0.361035 -0.00661194 0)
(0.365935 -0.00684075 0)
(0.370869 -0.00684106 0)
(0.375681 -0.00661818 0)
(0.380223 -0.00618929 0)
(0.384362 -0.00558064 0)
(0.387986 -0.00482315 0)
(0.391007 -0.00395095 0)
(0.393363 -0.00300057 0)
(0.395019 -0.00200725 0)
(0.395968 -0.000997257 0)
(0.396222 2.34344e-05 0)
(0.395788 0.000991693 0)
(0.394733 0.00186593 0)
(0.393135 0.00263687 0)
(0.391066 0.00329501 0)
(0.38861 0.00383129 0)
(0.385859 0.0042368 0)
(0.382906 0.00450404 0)
(0.379848 0.00462917 0)
(0.376783 0.00461235 0)
(0.37381 0.00445603 0)
(0.371026 0.004163 0)
(0.368528 0.00373877 0)
(0.366398 0.00319464 0)
(0.364708 0.00254797 0)
(0.36352 0.00181836 0)
(0.362879 0.00102186 0)
(0.362799 0.000175418 0)
(0.363312 -0.000679121 0)
(0.364408 -0.00148776 0)
(0.36603 -0.00222291 0)
(0.36812 -0.00286165 0)
(0.370607 -0.0033836 0)
(0.373404 -0.00377453 0)
(0.376413 -0.00402638 0)
(0.379533 -0.00413483 0)
(0.484013 0.00136432 0)
(0.484336 0.00165773 0)
(0.484402 0.00232765 0)
(0.484033 0.00312945 0)
(0.483187 0.00386515 0)
(0.481901 0.00429738 0)
(0.480355 0.00425166 0)
(0.478786 0.00357139 0)
(0.477484 0.00216415 0)
(0.476769 5.4524e-05 0)
(0.476941 -0.00266471 0)
(0.478266 -0.00581753 0)
(0.480908 -0.00923927 0)
(0.484941 -0.0126992 0)
(0.490357 -0.0159686 0)
(0.497057 -0.0188369 0)
(0.504851 -0.0211286 0)
(0.513479 -0.0227193 0)
(0.522636 -0.0235418 0)
(0.531984 -0.0235841 0)
(0.541183 -0.0228841 0)
(0.549928 -0.0215326 0)
(0.557976 -0.0196467 0)
(0.565121 -0.0173659 0)
(0.571231 -0.0148331 0)
(0.576245 -0.0121818 0)
(0.580146 -0.00952006 0)
(0.582964 -0.00692773 0)
(0.584766 -0.00447819 0)
(0.585658 -0.00220492 0)
(0.585724 -8.87595e-05 0)
(0.585036 0.00185318 0)
(0.583695 0.00362258 0)
(0.581766 0.00523499 0)
(0.579301 0.00668621 0)
(0.576351 0.0079519 0)
(0.57299 0.00899643 0)
(0.569296 0.00976952 0)
(0.565375 0.0102108 0)
(0.561368 0.010265 0)
(0.557439 0.00989239 0)
(0.553752 0.00905394 0)
(0.550518 0.00774618 0)
(0.547915 0.00599769 0)
(0.546109 0.00385681 0)
(0.545287 0.00137563 0)
(0.54557 -0.00132909 0)
(0.546976 -0.00407109 0)
(0.549529 -0.00675019 0)
(0.553159 -0.00923604 0)
(0.557751 -0.011408 0)
(0.563151 -0.013171 0)
(0.569162 -0.0144604 0)
(0.575577 -0.0152407 0)
(0.582172 -0.0155054 0)
(0.588716 -0.0152776 0)
(0.595032 -0.0146013 0)
(0.600929 -0.0135471 0)
(0.606281 -0.0121871 0)
(0.610987 -0.0105991 0)
(0.614965 -0.0088662 0)
(0.618185 -0.00705731 0)
(0.620645 -0.00523218 0)
(0.62235 -0.00345423 0)
(0.623344 -0.00176038 0)
(0.62367 -0.000167007 0)
(0.623373 0.00129853 0)
(0.622526 0.00259777 0)
(0.62119 0.00371871 0)
(0.619435 0.00464357 0)
(0.617334 0.00534937 0)
(0.614975 0.00581109 0)
(0.612461 0.00600301 0)
(0.609895 0.00589517 0)
(0.607413 0.00547009 0)
(0.605143 0.00472531 0)
(0.603221 0.00367172 0)
(0.601785 0.00233297 0)
(0.600939 0.000727411 0)
(0.600798 -0.00107476 0)
(0.601436 -0.00296625 0)
(0.602886 -0.00487969 0)
(0.605136 -0.00671976 0)
(0.608134 -0.00839381 0)
(0.611796 -0.00981982 0)
(0.616002 -0.0109301 0)
(0.620605 -0.0116756 0)
(0.625445 -0.0120287 0)
(0.630348 -0.0119829 0)
(0.635145 -0.0115514 0)
(0.639683 -0.0107651 0)
(0.643821 -0.00966921 0)
(0.647442 -0.00831939 0)
(0.650454 -0.00677708 0)
(0.652795 -0.00510586 0)
(0.654426 -0.00336614 0)
(0.655337 -0.00161024 0)
(0.655532 0.000112035 0)
(0.655036 0.00172382 0)
(0.653919 0.00318718 0)
(0.652251 0.004481 0)
(0.650108 0.00558154 0)
(0.647578 0.00646956 0)
(0.644751 0.00713087 0)
(0.641717 0.00755665 0)
(0.638574 0.00774202 0)
(0.635423 0.00768223 0)
(0.63236 0.00737691 0)
(0.629481 0.00683414 0)
(0.62688 0.00606942 0)
(0.624644 0.0051033 0)
(0.622852 0.00396293 0)
(0.62157 0.00267997 0)
(0.620848 0.001287 0)
(0.620731 -0.000172471 0)
(0.621237 -0.00160576 0)
(0.62234 -0.00297713 0)
(0.623997 -0.00423708 0)
(0.626147 -0.00533648 0)
(0.628711 -0.0062359 0)
(0.631599 -0.00690688 0)
(0.634704 -0.00733265 0)
(0.637923 -0.00750756 0)
(0.841546 0.00137706 0)
(0.840337 0.00177389 0)
(0.838839 0.00288767 0)
(0.836935 0.00435019 0)
(0.834549 0.0057332 0)
(0.831666 0.00670858 0)
(0.828416 0.00697357 0)
(0.825032 0.00630762 0)
(0.821827 0.00458347 0)
(0.819199 0.00180304 0)
(0.817528 -0.0018967 0)
(0.817107 -0.00633166 0)
(0.818144 -0.0112218 0)
(0.820747 -0.0162418 0)
(0.824914 -0.0210535 0)
(0.830535 -0.0253342 0)
(0.837398 -0.028807 0)
(0.845202 -0.0312684 0)
(0.853597 -0.0326003 0)
(0.8622 -0.0327662 0)
(0.870631 -0.0318139 0)
(0.878551 -0.0298772 0)
(0.885674 -0.0271372 0)
(0.891782 -0.0238027 0)
(0.896738 -0.0200917 0)
(0.900476 -0.0162097 0)
(0.902987 -0.0123406 0)
(0.904325 -0.00859712 0)
(0.904571 -0.00508028 0)
(0.903864 -0.00185645 0)
(0.902339 0.00103946 0)
(0.900113 0.00364364 0)
(0.897291 0.00600235 0)
(0.893948 0.00814306 0)
(0.890131 0.0100718 0)
(0.88588 0.0117661 0)
(0.881243 0.0131752 0)
(0.876283 0.014226 0)
(0.871091 0.0148341 0)
(0.865797 0.0149084 0)
(0.860588 0.0143747 0)
(0.855636 0.0131776 0)
(0.851173 0.0113098 0)
(0.847428 0.00878723 0)
(0.84461 0.00567867 0)
(0.842878 0.00209939 0)
(0.842441 -0.00180109 0)
(0.843377 -0.00578192 0)
(0.845618 -0.00966193 0)
(0.849078 -0.0132554 0)
(0.853611 -0.0163876 0)
(0.859011 -0.0189183 0)
(0.86504 -0.0207515 0)
(0.871441 -0.0218348 0)
(0.877941 -0.0221561 0)
(0.884303 -0.0217528 0)
(0.890311 -0.0207028 0)
(0.895782 -0.0191088 0)
(0.900581 -0.017084 0)
(0.904607 -0.014749 0)
(0.9078 -0.0122204 0)
(0.910136 -0.00959793 0)
(0.911614 -0.00697014 0)
(0.912267 -0.00441676 0)
(0.912156 -0.0019918 0)
(0.911344 0.0002569 0)
(0.909897 0.00230284 0)
(0.907884 0.00413245 0)
(0.905369 0.00572544 0)
(0.902416 0.00705649 0)
(0.899097 0.00809289 0)
(0.895497 0.00879527 0)
(0.891714 0.00912003 0)
(0.887858 0.00902335 0)
(0.884083 0.00847447 0)
(0.88054 0.00746106 0)
(0.877386 0.00598825 0)
(0.874767 0.00408053 0)
(0.872815 0.00178765 0)
(0.871698 -0.000800319 0)
(0.871519 -0.00355826 0)
(0.872303 -0.00634657 0)
(0.874034 -0.00903432 0)
(0.876652 -0.0114891 0)
(0.880055 -0.0135886 0)
(0.884098 -0.0152309 0)
(0.888609 -0.016343 0)
(0.8934 -0.0168843 0)
(0.898274 -0.0168434 0)
(0.903037 -0.0162408 0)
(0.907518 -0.0151254 0)
(0.911565 -0.0135649 0)
(0.915049 -0.0116411 0)
(0.917876 -0.00944278 0)
(0.919978 -0.00705972 0)
(0.921318 -0.00457737 0)
(0.921884 -0.00207682 0)
(0.921686 0.000354954 0)
(0.920763 0.00263175 0)
(0.919189 0.00470166 0)
(0.917038 0.00652731 0)
(0.914392 0.00807644 0)
(0.911343 0.00932447 0)
(0.907985 0.0102536 0)
(0.904413 0.0108515 0)
(0.900728 0.0111099 0)
(0.897032 0.0110231 0)
(0.89343 0.0105918 0)
(0.890024 0.00982457 0)
(0.886918 0.00873811 0)
(0.884209 0.00735837 0)
(0.881989 0.00572047 0)
(0.880336 0.00386963 0)
(0.87931 0.00186205 0)
(0.878961 -0.000229025 0)
(0.879307 -0.00230564 0)
(0.880317 -0.00428592 0)
(0.881939 -0.00610058 0)
(0.8841 -0.00768117 0)
(0.886708 -0.00897036 0)
(0.889652 -0.00992683 0)
(0.892813 -0.0105267 0)
(0.89607 -0.0107601 0)
(1.19185 0.00392188 0)
(1.18578 0.00443834 0)
(1.17904 0.0056664 0)
(1.17166 0.0073329 0)
(1.16368 0.00908289 0)
(1.15522 0.0104919 0)
(1.14651 0.0110873 0)
(1.13791 0.0104408 0)
(1.12988 0.00836159 0)
(1.12299 0.00477064 0)
(1.11775 -0.000115202 0)
(1.11472 -0.00604438 0)
(1.11432 -0.0126045 0)
(1.1167 -0.0193265 0)
(1.1218 -0.0257801 0)
(1.12934 -0.0315163 0)
(1.13887 -0.0361432 0)
(1.1498 -0.0393771 0)
(1.16145 -0.0410655 0)
(1.17314 -0.0411767 0)
(1.1843 -0.0397869 0)
(1.19443 -0.0370713 0)
(1.20314 -0.0332948 0)
(1.21016 -0.0287677 0)
(1.21536 -0.0237922 0)
(1.21869 -0.0186296 0)
(1.2202 -0.0135107 0)
(1.21996 -0.00861757 0)
(1.21818 -0.00412666 0)
(1.21511 -0.000103639 0)
(1.21098 0.00348763 0)
(1.20599 0.00670835 0)
(1.2003 0.00962131 0)
(1.19403 0.012278 0)
(1.18725 0.014701 0)
(1.18 0.0168684 0)
(1.17234 0.0187114 0)
(1.16432 0.0201251 0)
(1.15605 0.0209815 0)
(1.1477 0.0211418 0)
(1.13949 0.0204825 0)
(1.13168 0.0189301 0)
(1.12459 0.0164437 0)
(1.11853 0.0130469 0)
(1.11382 0.00881315 0)
(1.11075 0.00389686 0)
(1.1096 -0.00144733 0)
(1.11051 -0.00691465 0)
(1.11344 -0.0122223 0)
(1.11823 -0.0171062 0)
(1.1246 -0.0213198 0)
(1.13219 -0.0246679 0)
(1.14055 -0.0270257 0)
(1.14922 -0.0283399 0)
(1.15776 -0.0286247 0)
(1.16581 -0.0279437 0)
(1.17305 -0.0264054 0)
(1.17927 -0.0241506 0)
(1.1843 -0.0213405 0)
(1.18807 -0.0181352 0)
(1.19055 -0.0146862 0)
(1.19176 -0.0111274 0)
(1.19173 -0.00757817 0)
(1.19056 -0.00416216 0)
(1.18843 -0.000949025 0)
(1.18545 0.00202179 0)
(1.18173 0.00472863 0)
(1.17736 0.00715183 0)
(1.17243 0.00926907 0)
(1.16702 0.0110513 0)
(1.16122 0.012457 0)
(1.15511 0.0134318 0)
(1.14881 0.0139098 0)
(1.14247 0.013821 0)
(1.13629 0.0131162 0)
(1.13046 0.0117681 0)
(1.12518 0.00977848 0)
(1.12069 0.00717831 0)
(1.11718 0.00404582 0)
(1.11485 0.000493055 0)
(1.11387 -0.00334325 0)
(1.11433 -0.0072402 0)
(1.1162 -0.0109864 0)
(1.11939 -0.0144067 0)
(1.12371 -0.0173319 0)
(1.12892 -0.0196202 0)
(1.13475 -0.0211724 0)
(1.14091 -0.0219379 0)
(1.14708 -0.0219089 0)
(1.15301 -0.0211158 0)
(1.15848 -0.0196236 0)
(1.16331 -0.0175251 0)
(1.16734 -0.0149339 0)
(1.17048 -0.0119751 0)
(1.17267 -0.00877177 0)
(1.17386 -0.0054395 0)
(1.17406 -0.00209095 0)
(1.17331 0.0011476 0)
(1.17168 0.00417381 0)
(1.16926 0.00691789 0)
(1.16615 0.00932771 0)
(1.16246 0.0113652 0)
(1.1583 0.0130013 0)
(1.15379 0.0142152 0)
(1.14904 0.0149927 0)
(1.14416 0.0153226 0)
(1.1393 0.0151956 0)
(1.13456 0.0146105 0)
(1.13008 0.0135759 0)
(1.12599 0.0121112 0)
(1.12241 0.0102482 0)
(1.11945 0.0080318 0)
(1.11722 0.00552069 0)
(1.11582 0.00279227 0)
(1.1153 -5.02154e-05 0)
(1.11569 -0.00287906 0)
(1.11695 -0.00556958 0)
(1.11901 -0.00802522 0)
(1.12176 -0.0101533 0)
(1.12505 -0.0118751 0)
(1.12874 -0.0131337 0)
(1.13263 -0.013897 0)
(1.13656 -0.0141543 0)
(1.45528 0.0128902 0)
(1.44543 0.0148033 0)
(1.43332 0.0173768 0)
(1.41897 0.0202241 0)
(1.40275 0.0228324 0)
(1.38527 0.0246443 0)
(1.3673 0.025117 0)
(1.34978 0.0237951 0)
(1.33353 0.0203974 0)
(1.31941 0.0148545 0)
(1.30831 0.00731301 0)
(1.30105 -0.00189395 0)
(1.29839 -0.0123049 0)
(1.30084 -0.023015 0)
(1.30833 -0.0332005 0)
(1.32049 -0.0421439 0)
(1.33656 -0.0492239 0)
(1.35553 -0.0540014 0)
(1.37621 -0.0562704 0)
(1.3972 -0.0560836 0)
(1.41728 -0.0536968 0)
(1.4355 -0.0494265 0)
(1.45112 -0.0436485 0)
(1.46368 -0.0368026 0)
(1.473 -0.0293367 0)
(1.47907 -0.0216652 0)
(1.48202 -0.0140878 0)
(1.48198 -0.00685516 0)
(1.47919 -0.000287218 0)
(1.47406 0.00546464 0)
(1.46699 0.0104226 0)
(1.45834 0.0146824 0)
(1.44839 0.0183824 0)
(1.43736 0.0216482 0)
(1.42543 0.0245631 0)
(1.41273 0.0271426 0)