/*--------------------------------*- C++ -*----------------------------------*\
| =========                 |                                                 |
| \\      /  F ield         | OpenFOAM: The Open Source CFD Toolbox           |
|  \\    /   O peration     | Version:  2206                                  |
|   \\  /    A nd           | Website:  www.openfoam.com                      |
|    \\/     M anipulation  |                                                 |
\*---------------------------------------------------------------------------*/
FoamFile
{
    version     2.0;
    format      ascii;
    arch        "LSB;label=32;scalar=64";
    class       surfaceScalarField;
    location    "19.5";
    object      ddtCorrDdt0(phi);
}
// * * * * * * * * * * * * * * * * * * * * * * * * * * * * * * * * * * * * * //

dimensions      [0 3 -2 0 0 0 0];

oriented        oriented;

internalField   nonuniform List<scalar> 
5918
(
-0.000140603
0.000173125
-3.25221e-05
-0.000239942
0.000111225
-1.1886e-05
-0.000309709
1.46839e-05
5.50836e-05
-0.000379427
-0.000108653
0.000178371
-0.000496258
-0.000320777
0.000437608
-0.000555568
-0.000743664
0.000802975
-0.00032029
-0.0012308
0.000995524
1.36674e-05
-0.00120443
0.000870477
0.000267501
-0.000894449
0.000640615
0.000434746
-0.000571197
0.000403953
0.000540994
-0.000305816
0.000199568
0.000614757
-9.33825e-05
1.96196e-05
0.00064647
9.30106e-05
-0.000124724
0.00065994
0.000212881
-0.000226351
0.000653695
0.000304133
-0.000297889
0.000623971
0.00039004
-0.000360315
0.000629384
0.00043135
-0.000436764
0.000777768
0.000339466
-0.000487849
0.00103118
0.000169646
-0.000423057
0.00110646
0.000197084
-0.000272366
0.000853634
0.000525951
-0.000273123
0.000421057
0.000964303
-0.000531727
-5.75113e-06
0.001324
-0.000897189
-0.000301764
0.00148207
-0.00118606
-0.000434166
0.00142017
-0.00128777
-0.000471087
0.00124717
-0.00121025
-0.000454434
0.00104182
-0.00105847
-0.000400295
0.000838698
-0.000892836
-0.000322871
0.000660765
-0.000738189
-0.000234089
0.000522885
-0.000611667
-0.000146241
0.000433401
-0.000521249
-7.47829e-05
0.000387988
-0.000459446
-3.22753e-05
0.000356409
-0.000398916
-3.05756e-05
0.000298715
-0.000300414
-9.1807e-05
0.000174989
-0.000113758
-0.000238666
-5.80426e-05
0.000204902
-0.000389271
-0.00050831
0.000658915
-0.000539314
-0.00101453
0.00116458
-0.000663654
-0.00149913
0.00162347
-0.000719232
-0.00187239
0.00192797
-0.0006749
-0.00202055
0.00197621
-0.000570004
-0.0019345
0.0018296
-0.000427736
-0.00171117
0.0015689
-0.000272806
-0.00140927
0.00125434
-0.000124991
-0.00108403
0.000936214
3.41401e-06
-0.000775667
0.000647262
0.000112018
-0.000508727
0.000400123
0.00020772
-0.00028738
0.000191678
0.000283772
-0.00010426
2.82083e-05
0.000329611
2.86029e-05
-7.44425e-05
0.000356248
0.000105886
-0.000132523
0.000372536
0.000145387
-0.000161674
0.000386025
0.000158776
-0.000172265
0.000403154
0.000151173
-0.000168302
0.000427515
0.000124863
-0.000149224
0.00045763
8.56192e-05
-0.000115734
0.000486139
4.80709e-05
-7.65803e-05
0.000502157
3.49571e-05
-5.09751e-05
0.000495854
6.90147e-05
-6.27116e-05
0.000461746
0.00016274
-0.000128631
0.000401627
0.00031157
-0.000251452
0.000322259
0.000494275
-0.000414907
0.000231454
0.000681243
-0.000590437
0.00013651
0.000843745
-0.000748801
4.38356e-05
0.00095982
-0.000867145
-4.05082e-05
0.00101691
-0.000932567
-0.000111441
0.00101008
-0.00093915
-0.000169813
0.000962757
-0.000904384
-0.000213761
0.000884548
-0.0008406
-0.000242799
0.000785819
-0.000756781
-0.000257684
0.000677226
-0.000662341
-0.000260293
0.000568086
-0.000565476
-0.000253266
0.00046526
-0.000472287
-0.000239289
0.000372891
-0.000386867
-0.000220864
0.000292699
-0.000311124
-0.000200487
0.00022442
-0.000244796
-0.00018176
0.000166285
-0.000185012
-0.000169814
0.000113328
-0.000125274
-0.000167896
5.10427e-05
-5.29609e-05
-0.000170217
-3.95693e-05
4.189e-05
-0.000173943
-0.000153598
0.000157325
-0.000180552
-0.000282617
0.000289225
-0.000188305
-0.000425287
0.000433041
-0.000195089
-0.000575039
0.000581823
-0.0001992
-0.000721805
0.000725917
-0.000199195
-0.000853885
0.00085388
-0.00095828
0.000952277
-9.75864e-05
0.000270712
-0.000175375
0.000189013
-0.000212451
5.17601e-05
-0.000196336
-0.000124768
-0.000160527
-0.000356586
-0.000222216
-0.000681975
-0.000166043
-0.00128697
-6.20719e-06
-0.00136427
0.000196061
-0.00109672
0.000362301
-0.000737438
0.000480775
-0.000424291
0.000576182
-0.000188789
0.000652208
1.69855e-05
0.000692069
0.00017302
0.000683696
0.000312507
0.000712451
0.000361284
0.000890404
0.000253398
0.00115963
7.02353e-05
0.00122486
0.000104416
0.000952499
0.00046945
0.000507904
0.000970546
5.36845e-05
0.00141852
-0.000290216
0.0016679
-0.000458234
0.00165009
-0.000513604
0.00147554
-0.000505897
0.00123946
-0.00045338
0.000989302
-0.000371745
0.000757063
-0.000273533
0.000562552
-0.000167549
0.000416901
-6.12213e-05
0.000327074
3.05006e-05
0.000296266
9.33698e-05
0.000293539
0.000121026
0.000271059
0.000103312
0.000192703
-2.8326e-06
4.81023e-05
-0.000147331
-0.000363812
-0.000310357
-0.000851508
-0.000467836
-0.00134165
-0.000583482
-0.00175675
-0.000613464
-0.00199056
-0.000570856
-0.00197711
-0.000479642
-0.00180239
-0.000359581
-0.00152933
-0.000230868
-0.00121274
-0.000108827
-0.000897708
-2.57456e-06
-0.000614979
9.02583e-05
-0.000380213
0.000176819
-0.00019082
0.000243852
-3.84304e-05
0.000287212
6.25262e-05
0.00031659
0.000116009
0.000340904
0.000134462
0.00036718
0.000124897
0.000398126
9.39164e-05
0.000430774
5.29714e-05
0.000457284
2.15603e-05
0.000468037
2.42044e-05
0.00045559
8.14615e-05
0.000417704
0.000200626
0.000357389
0.000371885
0.000280229
0.000571435
0.00019275
0.000768722
0.000101993
0.000934502
1.38402e-05
0.00104797
-6.42132e-05
0.00109496
-0.000129919
0.00107579
-0.000182024
0.00101486
-0.000218936
0.00092146
-0.000240363
0.000807246
-0.00024717
0.000684033
-0.000241461
0.000562377
-0.000226293
0.000450092
-0.000204991
0.000351588
-0.000180462
0.000268171
-0.000154436
0.000198394
-0.000128605
0.000140453
-0.000107428
9.21508e-05
-9.88509e-05
4.24656e-05
-9.89082e-05
-3.95121e-05
-9.90701e-05
-0.000153436
-0.000105795
-0.000275891
-0.000115809
-0.000415274
-0.000126953
-0.000563895
-0.000137509
-0.00071125
-0.000146137
-0.000845257
-0.000953329
-7.05493e-05
0.000341261
-0.000133828
0.000252292
-0.000165432
8.33644e-05
-0.000164533
-0.000125667
-9.50832e-05
-0.000426036
5.28652e-06
-0.000782345
-5.99688e-05
-0.00122172
7.01126e-06
-0.00143125
0.000133758
-0.00122346
0.000276904
-0.000880584
0.000407277
-0.000554663
0.000498297
-0.00027981
0.000582021
-6.6739e-05
0.000647623
0.000107418
0.000727556
0.000232574
0.000949321
0.000139519
0.0012374
-3.46793e-05
0.00130306
4.57565e-06
0.00103329
0.000374188
0.000594208
0.000908528
0.000121684
0.00144307
-0.000270483
0.00181069
-0.000486737
0.00188415
-0.000564729
0.00172808
-0.000563584
0.00147439
-0.000508373
0.00118425
-0.000419975
0.000900904
-0.000314299
0.000651386
-0.000201291
0.000449544
-8.80044e-05
0.000303614
2.69478e-05
0.000212122
0.000130868
0.000192346
0.000207489
0.000216918
0.000248027
0.000230521
0.000245437
0.000195293
0.000204502
8.90371e-05
7.57008e-05
-0.000235011
-9.4621e-05
-0.000681186
-0.000271334
-0.00116493
-0.000425017
-0.00160306
-0.00051898
-0.0018966
-0.000534357
-0.00196173
-0.000497014
-0.00183973
-0.000418277
-0.00160806
-0.000316357
-0.00131466
-0.000207967
-0.0010061
-0.000105292
-0.000717655
-1.5028e-05
-0.000470477
6.73109e-05
-0.000273159
0.000144201
-0.00011532
0.000205749
9.77445e-07
0.000250486
7.1272e-05
0.000287278
9.76698e-05
0.000323136
8.90397e-05
0.000359703
5.73489e-05
0.000393289
1.9385e-05
0.000416791
-1.94133e-06
0.000422768
1.82273e-05
0.000406354
9.7876e-05
0.000366959
0.000240021
0.000307452
0.000431392
0.000232749
0.000646137
0.000149454
0.000852017
6.36693e-05
0.00102029
-1.88481e-05
0.00113049
-8.96376e-05
0.00116575
-0.000148098
0.00113425
-0.000192006
0.00105877
-0.000220211
0.000949665
-0.000232943
0.000819978
-0.000231291
0.000682381
-0.000217401
0.000548487
-0.000194357
0.000427048
-0.000165612
0.000322842
-0.000134814
0.000237373
-0.000104341
0.00016792
-7.48309e-05
0.000110943
-4.79293e-05
6.52492e-05
-3.3301e-05
2.78373e-05
-2.29956e-05
-4.98175e-05
-2.33255e-05
-0.000153106
-3.12636e-05
-0.000267953
-4.37674e-05
-0.00040277
-5.88875e-05
-0.000548775
-7.52795e-05
-0.000694858
-9.16963e-05
-0.00082884
-0.000938534
-5.44223e-05
0.000395683
-9.70884e-05
0.000294958
-0.000122132
0.000108408
-0.000123975
-0.000123825
-9.59088e-05
-0.000454102
-2.26058e-05
-0.000855648
-2.19334e-05
-0.00122239
-4.59522e-05
-0.00140723
2.18597e-05
-0.00129128
0.0001333
-0.000992024
0.000252723
-0.000674086
0.000361405
-0.000388492
0.000480673
-0.000186007
0.000663859
-7.57687e-05
0.000951611
-5.51778e-05
0.00123308
-0.000141951
0.0012948
-9.63993e-05
0.00104666
0.000252711
0.000647639
0.000773212
0.000185275
0.00137089
-0.000253125
0.00188147
-0.000533449
0.00209101
-0.000636797
0.0019875
-0.000640326
0.00173161
-0.00057662
0.00141069
-0.000472523
0.00108016
-0.000349941
0.000778321
-0.000226836
0.000528282
-0.000111551
0.000334259
-3.87573e-06
0.000195939
0.000102975
0.000105271
0.000214683
8.06386e-05
0.000312747
0.000118854
0.000372013
0.000171254
0.000384885
0.000182422
0.000366667
0.000107255
0.000260383
-0.000128727
9.79079e-05
-0.000518711
-8.50547e-05
-0.000981972
-0.000261519
-0.0014266
-0.000401564
-0.00175656
-0.00046916
-0.00189414
-0.000481503
-0.00182738
-0.000446994
-0.00164257
-0.000378123
-0.00138353
-0.000289913
-0.00109431
-0.000196158
-0.00081141
-0.00010654
-0.000560094
-2.88616e-05
-0.000350838
4.40071e-05
-0.000188189
0.000114898
-6.99137e-05
0.000176438
9.73216e-06
0.000225312
4.87957e-05
0.000270015
4.43368e-05
0.000310843
1.65206e-05
0.000344199
-1.39705e-05
0.000364667
-2.24094e-05
0.000367284
1.56102e-05
0.000348626
0.000116534
0.000308533
0.000280114
0.000249963
0.000489962
0.000178666
0.000717435
0.000100507
0.000930176
2.06944e-05
0.0011001
-5.46616e-05
0.00120585
-0.000116281
0.00122737
-0.000164973
0.00118294
-0.000198432
0.00109223
-0.000216062
0.000967295
-0.000218806
0.000822723
-0.000208236
0.000671811
-0.000186474
0.000526724
-0.000156423
0.000396997
-0.000121071
0.00028749
-8.43951e-05
0.000200697
-5.08481e-05
0.000134373
-2.01865e-05
8.02818e-05
6.98515e-06
3.80775e-05
3.41377e-05
6.84794e-07
5.11031e-05
-6.67829e-05
4.92774e-05
-0.000151281
4.03997e-05
-0.000259076
2.58478e-05
-0.000388218
7.12316e-06
-0.000530051
-1.46351e-05
-0.000673099
-3.82414e-05
-0.000805233
-0.000914594
-5.25789e-05
-9.02898e-05
-0.000119115
-0.000114664
-9.47947e-05
-6.52716e-05
-2.3438e-05
-0.000126193
-7.16126e-05
3.05694e-05
0.000169017
0.000352816
0.000583904
0.000852833
0.00108107
0.00112218
0.000954372
0.000627166
0.000196762
-0.000277444
-0.000612846
-0.000742131
-0.000742457
-0.000662905
-0.000536532
-0.000390328
-0.000244816
-0.000110291
-3.62703e-06
8.32255e-05
0.00018303
0.000287365
0.000385902
0.000460522
0.000494777
0.000486833
0.000412741
0.000268925
8.60215e-05
-0.000104894
-0.000274395
-0.000387827
-0.000440907
-0.000446532
-0.000412378
-0.000350439
-0.000273291
-0.000192239
-0.000114685
-4.28672e-05
2.56481e-05
9.51096e-05
0.000156855
0.000209876
0.000253433
0.000285211
0.000302729
0.00030309
0.000282048
0.000240694
0.000183957
0.000117134
4.49173e-05
-2.73751e-05
-9.31903e-05
-0.000143354
-0.000179827
-0.000200806
-0.0002065
-0.00019844
-0.000178899
-0.000150173
-0.000114846
-7.55411e-05
-3.50746e-05
4.97289e-06
4.4068e-05
7.49529e-05
0.000103879
0.000116386
0.000116965
0.000107994
9.16039e-05
6.9516e-05
4.28804e-05
1.2841e-05
-0.000775194
-0.000882681
5.97949e-05
-1.36179e-06
2.12705e-06
-4.09341e-06
2.73162e-06
-7.25098e-06
3.15758e-06
-1.05912e-05
3.3402e-06
-1.38003e-05
3.20912e-06
-1.65289e-05
2.72857e-06
-1.84384e-05
1.90955e-06
-1.92399e-05
8.01423e-07
-1.87211e-05
-5.18714e-07
-1.67733e-05
-1.94784e-06
-1.33867e-05
-3.38664e-06
-8.73613e-06
-4.65054e-06
-3.32923e-06
-5.4069e-06
2.15509e-06
-5.48432e-06
6.47024e-06
-4.31515e-06
8.7784e-06
-2.30816e-06
9.11933e-06
-3.40934e-07
8.026e-06
1.09334e-06
5.90991e-06
2.11609e-06
3.14237e-06
2.76754e-06
7.93273e-08
3.06304e-06
-2.86724e-06
2.94656e-06
-5.39629e-06
2.52905e-06
-7.43399e-06
2.0377e-06
-8.91288e-06
1.47889e-06
-9.84042e-06
9.27531e-07
-1.03002e-05
4.59826e-07
-1.02728e-05
-2.74753e-08
-9.63269e-06
-6.4008e-07
-8.39318e-06
-1.23951e-06
-6.64151e-06
-1.75167e-06
-4.30308e-06
-2.33843e-06
-1.18909e-06
-3.11398e-06
2.92943e-06
-4.11852e-06
8.29345e-06
-5.36402e-06
1.51168e-05
-6.8234e-06
2.35982e-05
-8.48139e-06
3.33752e-05
-9.77694e-06
4.26086e-05
-9.23347e-06
5.10847e-05
-8.47602e-06
5.62901e-05
-5.2054e-06
5.64798e-05
-1.89754e-07
3.74527e-06
5.27345e-05
5.39562e-07
2.83972e-06
-5.77048e-07
3.84823e-06
-2.03393e-06
4.61446e-06
-3.75143e-06
5.0577e-06
-5.59956e-06
5.05725e-06
-7.40808e-06
4.53709e-06
-8.99963e-06
3.5011e-06
-1.02394e-05
2.04117e-06
-1.10739e-05
3.15829e-07
-1.14808e-05
-1.54098e-06
-1.138e-05
-3.48741e-06
-1.06157e-05
-5.41484e-06
-9.43347e-06
-6.58914e-06
-7.97404e-06
-6.94374e-06
-5.83096e-06
-6.45823e-06
-2.91258e-06
-5.22655e-06
2.01528e-07
-3.45504e-06
2.84678e-06
-1.55192e-06
4.6409e-06
3.21963e-07
5.40461e-06
2.00383e-06
5.16135e-06
3.30631e-06
3.90434e-06
4.20356e-06
1.78506e-06
4.64834e-06
-7.84252e-07
4.60701e-06
-3.43597e-06
4.13061e-06
-5.76479e-06
3.25635e-06
-7.2853e-06
1.98034e-06
-7.66858e-06
3.55802e-07
-6.86879e-06
-1.43987e-06
-4.81686e-06
-3.29143e-06
-1.41293e-06
-5.1556e-06
3.17086e-06
-6.92222e-06
8.53361e-06
-8.47674e-06
1.41735e-05
-9.75841e-06
1.95073e-05
-1.06978e-05
2.39179e-05
-1.12341e-05
2.67598e-05
-1.13232e-05
2.76405e-05
-1.06576e-05
2.71717e-05
-8.76466e-06
2.46558e-05
-5.9601e-06
2.17555e-05
-2.30517e-06
1.97762e-05
1.78961e-06
5.37037e-06
1.81511e-05
9.21716e-07
2.82002e-06
5.99724e-07
4.17022e-06
-5.25252e-08
5.26671e-06
-1.00887e-06
6.01404e-06
-2.19409e-06
6.24247e-06
-3.51596e-06
5.85896e-06
-4.87269e-06
4.85783e-06
-6.18259e-06
3.35107e-06
-7.42205e-06
1.55529e-06
-8.56296e-06
-4.00062e-07
-9.53445e-06
-2.51593e-06
-1.0267e-05
-4.68226e-06
-1.06752e-05
-6.181e-06
-1.06546e-05
-6.96433e-06
-1.00954e-05
-7.01742e-06
-8.9595e-06
-6.36243e-06
-7.32042e-06
-5.09411e-06
-5.40615e-06
-3.46619e-06
-3.40031e-06
-1.68387e-06
-1.48576e-06
8.92778e-08
1.48601e-07
1.67195e-06
1.42851e-06
2.92365e-06
2.3226e-06
3.75425e-06
2.8365e-06
4.09311e-06
3.06314e-06
3.90396e-06
3.11513e-06
3.20437e-06
3.09561e-06
1.99986e-06
3.11078e-06
3.40628e-07
3.29527e-06
-1.62436e-06
3.76429e-06
-3.76045e-06
4.57938e-06
-5.97069e-06
5.797e-06
-8.13984e-06
7.44288e-06
-1.01226e-05
9.45337e-06
-1.17689e-05
1.16639e-05
-1.29083e-05
1.37838e-05
-1.3354e-05
1.53663e-05
-1.29057e-05
1.60203e-05
-1.13117e-05
1.56321e-05
-8.37648e-06
1.39575e-05
-4.28544e-06
1.111e-05
5.42316e-07
7.38376e-06
5.51585e-06
9.8639e-06
2.89023e-06
1.76517e-06
2.67173e-06
1.53721e-06
4.39818e-06
9.0136e-07
5.90256e-06
-1.16343e-07
7.03175e-06
-1.38773e-06
7.51386e-06
-2.80357e-06
7.27479e-06
-4.26118e-06
6.31545e-06
-5.66213e-06
4.75202e-06
-7.01942e-06
2.91257e-06
-8.25553e-06
8.36049e-07
-9.2676e-06
-1.50385e-06
-1.01892e-05
-3.7607e-06
-1.07905e-05
-5.57965e-06
-1.09671e-05
-6.78771e-06
-1.0662e-05
-7.32252e-06
-9.88238e-06
-7.14209e-06
-8.66513e-06
-6.31137e-06
-7.13432e-06
-4.99701e-06
-5.42332e-06
-3.39487e-06
-3.64644e-06
-1.68761e-06
-1.92018e-06
-5.43122e-08
-3.39319e-07
1.34279e-06
1.03198e-06
2.38296e-06
2.1702e-06
2.95489e-06
3.07802e-06
2.99614e-06
3.79789e-06
2.4845e-06
4.36594e-06
1.43181e-06
4.78182e-06
-7.52469e-08
5.07758e-06
-1.92013e-06
5.32976e-06
-4.01263e-06
5.62195e-06
-6.26288e-06
5.99241e-06
-8.51031e-06
6.45796e-06
-1.05882e-05
7.03442e-06
-1.23453e-05
7.71908e-06
-1.3593e-05
8.4996e-06
-1.41346e-05
9.37761e-06
-1.37837e-05
1.04416e-05
-1.23756e-05
1.18858e-05
-9.82068e-06
1.38333e-05
-6.23301e-06
1.63114e-05
-1.93572e-06
1.92188e-05
2.60837e-06
6.83869e-06
2.22441e-05
3.61113e-06
2.35453e-06
3.28772e-06
4.72159e-06
2.43108e-06
6.7592e-06
1.26676e-06
8.19606e-06
-1.72177e-07
8.9528e-06
-1.90235e-06
9.00496e-06
-4.12108e-06
8.53418e-06
-6.77043e-06
7.40137e-06
-9.00896e-06
5.15111e-06
-1.04707e-05
2.29781e-06
-1.14217e-05
-5.52923e-07
-1.19722e-05
-3.21016e-06
-1.20257e-05
-5.52613e-06
-1.162e-05
-7.19347e-06
-1.07645e-05
-8.17792e-06
-9.56514e-06
-8.3415e-06
-8.1107e-06
-7.7658e-06
-6.48664e-06
-6.62107e-06
-4.80748e-06
-5.07404e-06
-3.17078e-06
-3.3243e-06
-1.65617e-06
-1.56893e-06
-3.21117e-07
7.74056e-09
7.97205e-07
1.26464e-06
1.70056e-06
2.05153e-06
2.39777e-06
2.29893e-06
2.92347e-06
1.95879e-06
3.34333e-06
1.01195e-06
3.64433e-06
-3.76249e-07
3.79271e-06
-2.06851e-06
3.86363e-06
-4.08355e-06
3.92968e-06
-6.32892e-06
4.04542e-06
-8.62605e-06
4.23605e-06
-1.07788e-05
4.55717e-06
-1.26665e-05
5.10289e-06
-1.41387e-05
5.95669e-06
-1.49884e-05
7.2475e-06
-1.50745e-05
9.1649e-06
-1.4293e-05
1.19398e-05
-1.25956e-05
1.57624e-05
-1.00555e-05
2.07161e-05
-6.88946e-06
2.674e-05
-3.41549e-06
1.98377e-09
3.35767e-05
5.61624e-06
2.25688e-06
4.94686e-06
5.39096e-06
3.58042e-06
8.12564e-06
1.6142e-06
1.01623e-05
-7.11557e-07
1.12786e-05
-3.15817e-06
1.14516e-05
-5.55332e-06
1.09293e-05
-7.79871e-06
9.64676e-06
-9.80848e-06
7.16088e-06
-1.14679e-05
3.95722e-06
-1.25455e-05
5.24702e-07
-1.29909e-05
-2.76478e-06
-1.28545e-05
-5.66253e-06
-1.21327e-05
-7.91527e-06
-1.0923e-05
-9.38764e-06
-9.40095e-06
-9.86353e-06
-7.67601e-06
-9.49075e-06
-5.85813e-06
-8.43895e-06
-4.09684e-06
-6.83533e-06
-2.4916e-06
-4.92953e-06
-1.10549e-06
-2.95504e-06
2.29527e-08
-1.12071e-06
8.80228e-07
4.07361e-07
1.48948e-06
1.44228e-06
1.88042e-06
1.908e-06
2.05991e-06
1.77931e-06
1.98271e-06
1.08915e-06
1.90013e-06
-2.93667e-07
1.889e-06
-2.05738e-06
1.90048e-06
-4.09503e-06
1.95652e-06
-6.38496e-06
2.06718e-06
-8.73671e-06
2.36495e-06
-1.10766e-05
2.92386e-06
-1.32254e-05
3.76049e-06
-1.49753e-05
5.00286e-06
-1.62307e-05
6.82061e-06
-1.68922e-05
9.40661e-06
-1.6879e-05
1.29706e-05
-1.61596e-05
1.76992e-05
-1.47842e-05
2.37006e-05
-1.28908e-05
3.09632e-05
-1.06781e-05
-8.35926e-06
3.93245e-05
8.58783e-06
2.3089e-06
7.4641e-06
6.51469e-06
5.40295e-06
1.01868e-05
2.59691e-06
1.29683e-05
-6.66771e-07
1.45422e-05
-4.04106e-06
1.48259e-05
-7.26927e-06
1.41575e-05
-1.02242e-05
1.26017e-05
-1.26283e-05
9.56503e-06
-1.43631e-05
5.69194e-06
-1.52701e-05
1.43174e-06
-1.53154e-05
-2.7195e-06
-1.45937e-05
-6.38415e-06
-1.31849e-05
-9.32414e-06
-1.13027e-05
-1.12698e-05
-9.0991e-06
-1.20671e-05
-6.85123e-06
-1.17386e-05
-4.73864e-06
-1.05515e-05
-2.86864e-06
-8.70532e-06
-1.34037e-06
-6.4578e-06
-1.85944e-07
-4.10946e-06
6.3016e-07
-1.93681e-06
1.06406e-06
-2.65389e-08
1.16147e-06
1.34486e-06
1.04053e-06
2.02894e-06
6.76654e-07
2.14319e-06
1.98973e-07
1.56683e-06
-1.92571e-07
9.78773e-08
-4.69207e-07
-1.78075e-06
-6.87821e-07
-3.87642e-06
-7.7202e-07
-6.30076e-06
-5.10264e-07
-8.99846e-06
2.30981e-08
-1.16099e-05
8.47523e-07
-1.40498e-05
2.11764e-06
-1.62455e-05
3.92223e-06
-1.80353e-05
6.36682e-06
-1.93368e-05
9.59341e-06
-2.01056e-05
1.37682e-05
-2.03344e-05
1.90493e-05
-2.00653e-05
2.55471e-05
-1.93886e-05
3.32915e-05
-1.84226e-05
-1.72743e-05
4.22066e-05
1.25974e-05
2.50973e-06
1.09277e-05
8.1844e-06
7.96903e-06
1.31454e-05
4.00336e-06
1.6934e-05
-5.60054e-07
1.91056e-05
-5.18169e-06
1.94475e-05
-9.42806e-06
1.84039e-05
-1.32303e-05
1.6404e-05
-1.63034e-05
1.26381e-05
-1.8392e-05
7.78049e-06
-1.92579e-05
2.29764e-06
-1.88958e-05
-3.08159e-06
-1.74267e-05
-7.85322e-06
-1.50498e-05
-1.1701e-05
-1.2032e-05
-1.42876e-05
-8.77734e-06
-1.53218e-05
-5.6489e-06
-1.48671e-05
-2.87237e-06
-1.33281e-05
-6.17346e-07
-1.09603e-05
1.02516e-06
-8.10031e-06
2.00575e-06
-5.09005e-06
2.40917e-06
-2.34024e-06
2.3108e-06
7.18388e-08
1.69103e-06
1.96462e-06
9.13043e-07
2.80693e-06
7.1601e-08
2.98463e-06
-1.134e-06
2.77242e-06
-2.19019e-06
1.15407e-06
-2.69704e-06
-1.2739e-06
-3.17088e-06
-3.40258e-06
-3.35477e-06
-6.11687e-06
-3.17582e-06
-9.17741e-06
-2.4919e-06
-1.22939e-05
-1.33126e-06
-1.52104e-05
3.11751e-07
-1.78885e-05
2.54499e-06
-2.02686e-05
5.46342e-06
-2.22553e-05
9.1698e-06
-2.3812e-05
1.3786e-05
-2.49506e-05
1.94332e-05
-2.57125e-05
2.62119e-05
-2.61673e-05
3.4183e-05
-2.63937e-05
-2.64303e-05
4.3339e-05
1.80642e-05
2.87894e-06
1.56621e-05
1.05865e-05
1.1526e-05
1.72815e-05
6.06748e-06
2.23925e-05
-2.24783e-07
2.53979e-05
-6.62464e-06
2.58474e-05
-1.23136e-05
2.40928e-05
-1.71898e-05
2.12802e-05
-2.11963e-05
1.66446e-05
-2.36926e-05
1.02768e-05
-2.44428e-05
3.04781e-06
-2.35248e-05
-3.99963e-06
-2.11241e-05
-1.02539e-05
-1.74806e-05
-1.53445e-05
-1.30393e-05
-1.87289e-05
-8.41705e-06
-1.9944e-05
-4.09708e-06
-1.9187e-05
-4.72977e-07
-1.69522e-05
2.26214e-06
-1.36955e-05
4.05438e-06
-9.89255e-06
4.85477e-06
-5.89043e-06
4.79676e-06
-2.28223e-06
4.17684e-06
6.91756e-07
2.8764e-06
3.26506e-06
1.11783e-06
4.56551e-06
-4.01452e-07
4.5039e-06
-2.06914e-06
4.44011e-06
-4.14765e-06
3.23258e-06
-5.31504e-06
-1.06505e-07
-5.99024e-06
-2.72739e-06
-6.19967e-06
-5.90745e-06
-6.01053e-06
-9.36655e-06
-5.33008e-06
-1.29743e-05
-4.01279e-06
-1.65277e-05
-2.05305e-06
-1.98482e-05
5.47433e-07
-2.2869e-05
3.84053e-06
-2.55484e-05
7.90531e-06
-2.78768e-05
1.28354e-05
-2.98807e-05
1.87273e-05
-3.16043e-05
2.56811e-05
-3.31211e-05
3.37985e-05
-3.4511e-05
-3.57695e-05
4.31376e-05
2.54647e-05
3.47567e-06
2.21505e-05
1.39007e-05
1.65482e-05
2.28838e-05
9.15568e-06
2.9785e-05
4.28125e-07
3.41255e-05
-8.6891e-06
3.49646e-05
-1.64845e-05
3.18882e-05
-2.22548e-05
2.70505e-05
-2.73992e-05
2.1789e-05
-3.05323e-05
1.34099e-05
-3.12029e-05
3.71844e-06
-2.96119e-05
-5.59061e-06
-2.60252e-05
-1.38406e-05
-2.06648e-05
-2.0705e-05
-1.42652e-05
-2.51285e-05
-7.8732e-06
-2.63361e-05
-2.07657e-06
-2.49836e-05
2.63392e-06
-2.16627e-05
5.97193e-06
-1.70335e-05
7.90974e-06
-1.18304e-05
8.54036e-06
-6.52106e-06
7.91167e-06
-1.65354e-06
6.43217e-06
2.17125e-06
4.358e-06
5.33924e-06
1.66901e-06
7.25449e-06
-1.04164e-06
7.21455e-06
-3.5488e-06
6.94727e-06
-6.0023e-06
5.68608e-06
-7.8343e-06
1.7255e-06
-9.0376e-06
-1.52409e-06
-9.59592e-06
-5.34913e-06
-9.49665e-06
-9.46581e-06
-8.71205e-06
-1.37589e-05
-7.21202e-06
-1.80278e-05
-4.99189e-06
-2.20683e-05
-2.07454e-06
-2.57864e-05
1.54209e-06
-2.9165e-05
5.89816e-06
-3.22329e-05
1.10622e-05
-3.50447e-05
1.71123e-05
-3.76544e-05
2.4168e-05
-4.01769e-05
3.2405e-05
-4.2748e-05
-4.5329e-05
4.19645e-05
3.59389e-05
4.53048e-06
3.10702e-05
1.87694e-05
2.3298e-05
3.06561e-05
1.36083e-05
3.94747e-05
2.41189e-06
4.53219e-05
-9.86788e-06
4.72443e-05
-2.1793e-05
4.38133e-05
-3.03539e-05
3.56115e-05
-3.66362e-05
2.80713e-05
-4.00747e-05
1.68485e-05
-4.05076e-05
4.15132e-06
-3.7969e-05
-8.12919e-06
-3.27452e-05
-1.90645e-05
-2.48362e-05
-2.86139e-05
-1.54763e-05
-3.44884e-05
-6.48598e-06
-3.53264e-05
1.05388e-06
-3.25235e-05
6.89708e-06
-2.75059e-05
1.08377e-05
-2.09741e-05
1.28273e-05
-1.38199e-05
1.30694e-05
-6.76311e-06
1.17632e-05
-3.47424e-07
9.22766e-06
4.70684e-06
5.93372e-06
8.63317e-06
2.26544e-06
1.09228e-05
-1.66847e-06
1.11485e-05
-5.51323e-06
1.0792e-05
-8.38914e-06
8.56199e-06
-1.08474e-05
4.18378e-06
-1.2706e-05
3.3452e-07
-1.36818e-05
-4.37335e-06
-1.37144e-05
-9.4332e-06
-1.28314e-05
-1.4642e-05
-1.10932e-05
-1.9766e-05
-8.5704e-06
-2.45911e-05
-5.33017e-06
-2.90266e-05
-1.4129e-06
-3.30823e-05
3.19871e-06
-3.68445e-05
8.5512e-06
-4.03972e-05
1.46655e-05
-4.37687e-05
2.17067e-05
-4.72182e-05
3.00102e-05
-5.10514e-05
-5.51175e-05
3.97986e-05
4.90613e-05
6.06708e-06
4.22599e-05
2.55707e-05
3.15236e-05
4.13924e-05
1.8234e-05
5.27643e-05
3.17623e-06
6.03796e-05
-1.23535e-05
6.2774e-05
-2.69007e-05
5.83605e-05
-3.87679e-05
4.74787e-05
-4.80453e-05
3.73486e-05
-5.29429e-05
2.17461e-05
-5.27904e-05
3.99888e-06
-4.94372e-05
-1.14825e-05
-4.22909e-05
-2.62108e-05
-3.05007e-05
-4.04041e-05
-1.74152e-05
-4.75739e-05
-4.78675e-06
-4.79549e-05
5.73324e-06
-4.30435e-05
1.34591e-05
-3.52317e-05
1.80812e-05
-2.55962e-05
2.00084e-05
-1.57471e-05
1.95735e-05
-6.32818e-06
1.71302e-05
2.09588e-06
1.31531e-05
8.68395e-06
8.25274e-06
1.35335e-05
2.98648e-06
1.6189e-05
-2.49956e-06
1.66345e-05
-7.54275e-06
1.58352e-05
-1.15311e-05
1.25503e-05
-1.50359e-05
7.68862e-06
-1.74271e-05
2.7257e-06
-1.86983e-05
-3.10214e-06
-1.88443e-05
-9.28724e-06
-1.78739e-05
-1.56123e-05
-1.58853e-05
-2.17546e-05
-1.30219e-05
-2.74545e-05
-9.40919e-06
-3.26393e-05
-5.15817e-06
-3.73333e-05
-2.71257e-07
-4.17314e-05
5.31952e-06
-4.5988e-05
1.14566e-05
-4.99058e-05
1.8289e-05
-5.40505e-05
2.64215e-05
-5.91839e-05
-6.49154e-05
3.62194e-05
6.3255e-05
8.5507e-06
5.40151e-05
3.48107e-05
3.97563e-05
5.56512e-05
2.3001e-05
6.95196e-05
4.82449e-06
7.85561e-05
-1.56092e-05
8.32077e-05
-3.41319e-05
7.68831e-05
-4.91612e-05
6.25081e-05
-6.00553e-05
4.82427e-05
-6.73969e-05
2.90877e-05
-7.0018e-05
6.61999e-06
-6.34805e-05
-1.802e-05
-5.02188e-05
-3.94725e-05
-3.55152e-05
-5.51076e-05
-1.82828e-05
-6.48063e-05
-2.19903e-06
-6.40386e-05
1.10653e-05
-5.63078e-05
2.07181e-05
-4.48846e-05
2.61735e-05
-3.10516e-05
2.82084e-05
-1.77821e-05
2.72106e-05
-5.33041e-06
2.35802e-05
5.7263e-06
1.79996e-05
1.42645e-05
1.13283e-05
2.02048e-05
4.18749e-06
2.33299e-05
-3.09513e-06
2.39171e-05
-9.59676e-06
2.23368e-05
-1.50471e-05
1.80006e-05
-1.96762e-05
1.23177e-05
-2.26144e-05
5.66397e-06
-2.4326e-05
-1.39054e-06
-2.46154e-05
-8.99784e-06
-2.35184e-05
-1.67093e-05
-2.11992e-05
-2.40738e-05
-1.79223e-05
-3.07314e-05
-1.39396e-05
-3.66221e-05
-9.45657e-06
-4.18163e-05
-4.44608e-06
-4.67419e-05
1.08256e-06
-5.15166e-05
6.4811e-06
-5.53044e-05
1.26053e-05
-6.01747e-05
2.04755e-05
-6.70541e-05
-7.43977e-05
2.99578e-05
7.37434e-05
1.25584e-05
6.26206e-05
4.59334e-05
4.76568e-05
7.06151e-05
2.7131e-05
9.00453e-05
3.44242e-06
0.000102245
-2.04137e-05
0.000107064
-4.36848e-05
0.000100154
-6.76926e-05
8.6516e-05
-8.34717e-05
6.40218e-05
-8.84588e-05
3.40747e-05
-8.34707e-05
1.63192e-06
-7.2423e-05
-2.90677e-05
-5.51472e-05
-5.67483e-05
-3.45249e-05
-7.573e-05
-1.73886e-05
-8.19426e-05
1.6362e-06
-8.30634e-05
2.00729e-05
-7.47445e-05
3.08347e-05
-5.56464e-05
3.53966e-05
-3.56135e-05
3.69275e-05
-1.93129e-05
3.43324e-05
-2.7353e-06
2.892e-05
1.11387e-05
2.13932e-05
2.17914e-05
1.27753e-05
2.88226e-05
3.74173e-06
3.23635e-05
-5.4855e-06
3.31443e-05
-1.36664e-05
3.05178e-05
-1.98961e-05
2.42303e-05
-2.52545e-05
1.76761e-05
-2.94534e-05
9.86289e-06
-3.15849e-05
7.40958e-07
-3.18242e-05
-8.75851e-06
-3.03067e-05
-1.82269e-05
-2.74326e-05
-2.69479e-05
-2.37453e-05
-3.44186e-05
-1.9573e-05
-4.07944e-05
-1.50432e-05
-4.63461e-05
-1.07071e-05
-5.1078e-05
-6.56637e-06
-5.56573e-05
-1.44197e-07
-6.17265e-05
7.48364e-06
-6.78026e-05
1.46545e-05
-7.42249e-05
-8.33321e-05
2.35889e-05
7.82434e-05
1.59247e-05
6.31839e-05
6.09929e-05
5.09569e-05
8.28421e-05
3.04899e-05
0.000110512
6.16895e-06
0.000126566
-1.95936e-05
0.000132826
-4.63763e-05
0.000126937
-7.0731e-05
0.000110871
-8.90091e-05
8.22999e-05
-9.98691e-05
4.49347e-05
-0.000100232
1.99511e-06
-8.93627e-05
-3.99372e-05
-6.71524e-05
-7.89586e-05
-3.48062e-05
-0.000108076
-5.6077e-06
-0.000111141
1.73919e-05
-0.000106063
3.5895e-05
-9.32476e-05
4.46787e-05
-6.44301e-05
4.59202e-05
-3.6855e-05
4.84927e-05
-2.18855e-05
4.34602e-05
2.29725e-06
3.53935e-05
1.92054e-05
2.52433e-05
3.19415e-05
1.41461e-05
3.99198e-05
2.46758e-06
4.4042e-05
-8.64826e-06
4.42602e-05
-1.84066e-05
4.02761e-05
-2.73971e-05
3.32208e-05
-3.43297e-05
2.46087e-05
-3.84235e-05
1.39566e-05
-3.98001e-05
2.11755e-06
-3.86376e-05
-9.92101e-06
-3.59674e-05
-2.0897e-05
-3.22949e-05
-3.06204e-05
-2.7524e-05
-3.91895e-05
-2.21554e-05
-4.6163e-05
-1.67673e-05
-5.17342e-05
-1.15076e-05
-5.63378e-05
-6.68356e-06
-6.04813e-05
-3.05076e-06
-6.53593e-05
6.69753e-07
-7.15231e-05
5.31913e-06
-7.88743e-05
-8.90396e-05
1.10266e-05
3.5065e-05
1.13634e-05
3.43466e-05
6.17112e-05
3.06995e-05
8.64892e-05
2.17042e-05
0.000119508
7.24436e-06
0.000141026
-1.28886e-05
0.000152959
-3.79539e-05
0.000152002
-5.81973e-05
0.000131114
-7.19937e-05
9.60963e-05
-7.96199e-05
5.25609e-05
-7.83803e-05
7.55499e-07
-7.00286e-05
-4.82889e-05
-5.36007e-05
-9.53866e-05
-2.64185e-05
-0.000135258
6.53356e-06
-0.000144093
3.40535e-05
-0.000133583
5.29931e-05
-0.000112187
5.65932e-05
-6.80303e-05
5.57624e-05
-3.60241e-05
5.41114e-05
-2.02345e-05
4.84416e-05
7.96708e-06
3.93133e-05
2.83337e-05
2.82111e-05
4.30437e-05
1.5909e-05
5.2222e-05
2.91796e-06
5.7033e-05
-9.12416e-06
5.63023e-05
-2.0046e-05
5.11979e-05
-2.96987e-05
4.28735e-05
-3.71855e-05
3.20955e-05
-4.24179e-05
1.91891e-05
-4.54109e-05
5.11055e-06
-4.59981e-05
-9.3338e-06
-4.3836e-05
-2.30592e-05
-3.95053e-05
-3.49511e-05
-3.42734e-05
-4.44215e-05
-2.89859e-05
-5.14505e-05
-2.41471e-05
-5.65729e-05
-2.01199e-05
-6.0365e-05
-1.69539e-05
-6.36473e-05
-1.46891e-05
-6.76242e-05
-1.27213e-05
-7.34908e-05
-1.01098e-05
-8.14858e-05
-9.27017e-05
-6.44775e-06
-6.0406e-05
-1.68045e-05
-3.55292e-05
3.68344e-05
-1.73031e-05
6.82631e-05
4.71118e-06
9.74933e-05
2.48906e-05
0.000120846
3.98707e-05
0.000137979
4.62698e-05
0.000145603
4.45453e-05
0.000132838
3.73349e-05
0.000103307
3.10399e-05
5.88559e-05
2.9892e-05
1.90345e-06
2.27605e-05
-4.11574e-05
1.98395e-05
-9.24656e-05
1.79569e-05
-0.000133376
2.58141e-05
-0.00015195
3.69741e-05
-0.000144743
4.13257e-05
-0.000116539
3.89716e-05
-6.56761e-05
3.60449e-05
-3.30975e-05
2.72243e-05
-1.1414e-05
2.086e-05
1.43314e-05
1.35178e-05
3.5676e-05
5.74059e-06
5.08209e-05
-2.68547e-06
6.0648e-05
-1.09585e-05
6.5306e-05
-1.882e-05
6.41638e-05
-2.63802e-05
5.8758e-05
-3.31511e-05
4.96444e-05
-3.85186e-05
3.74631e-05
-4.22639e-05
2.29343e-05
-4.4379e-05
7.22571e-06
-4.51429e-05
-8.56989e-06
-4.47161e-05
-2.3486e-05
-4.32122e-05
-3.6455e-05
-4.09182e-05
-4.67155e-05
-3.86071e-05
-5.37617e-05
-3.708e-05
-5.81e-05
-3.67423e-05
-6.07027e-05
-3.77063e-05
-6.26833e-05
-4.00617e-05
-6.52688e-05
-4.35926e-05
-6.996e-05
-4.66531e-05
-7.84253e-05
-9.1616e-05
-4.77387e-05
-5.80531e-05
-4.76792e-05
-2.19175e-05
6.9876e-07
7.98827e-06
3.83574e-05
3.16714e-05
7.38101e-05
4.4387e-05
0.000108131
4.58175e-05
0.000136549
4.40167e-05
0.000147404
4.30008e-05
0.000133854
4.10093e-05
0.000105298
4.21161e-05
5.7749e-05
4.17404e-05