/*--------------------------------*- C++ -*----------------------------------*\
| =========                 |                                                 |
| \\      /  F ield         | OpenFOAM: The Open Source CFD Toolbox           |
|  \\    /   O peration     | Version:  2206                                  |
|   \\  /    A nd           | Website:  www.openfoam.com                      |
|    \\/     M anipulation  |                                                 |
\*---------------------------------------------------------------------------*/
FoamFile
{
    version     2.0;
    format      ascii;
    arch        "LSB;label=32;scalar=64";
    class       surfaceScalarField;
    location    "19.5";
    object      phi;
}
// * * * * * * * * * * * * * * * * * * * * * * * * * * * * * * * * * * * * * //

dimensions      [0 3 -1 0 0 0 0];

oriented        oriented;

internalField   nonuniform List<scalar> 
9447
(
1.01236e-05
8.06386e-07
-8.03881e-07
1.01266e-05
5.92466e-07
-5.95547e-07
1.0135e-05
3.69974e-07
-3.78376e-07
1.01484e-05
1.42534e-07
-1.55945e-07
1.01662e-05
-8.50514e-08
6.72616e-08
1.01879e-05
-3.08856e-07
2.87193e-07
1.02129e-05
-5.25785e-07
5.00763e-07
1.02408e-05
-7.32981e-07
7.05081e-07
1.02711e-05
-9.27727e-07
8.97433e-07
1.03033e-05
-1.10762e-06
1.07539e-06
1.03371e-05
-1.27061e-06
1.23685e-06
1.0372e-05
-1.41496e-06
1.38007e-06
1.04076e-05
-1.53928e-06
1.50365e-06
1.04437e-05
-1.64263e-06
1.6066e-06
1.04798e-05
-1.72441e-06
1.68832e-06
1.05157e-05
-1.78449e-06
1.74856e-06
1.05515e-05
-1.82334e-06
1.78753e-06
1.05879e-05
-1.84079e-06
1.80442e-06
1.06253e-05
-1.83235e-06
1.79497e-06
1.06631e-05
-1.79499e-06
1.75712e-06
1.0701e-05
-1.7286e-06
1.69077e-06
1.07384e-05
-1.634e-06
1.59657e-06
1.07751e-05
-1.5124e-06
1.47568e-06
1.08108e-05
-1.36542e-06
1.32974e-06
1.08451e-05
-1.19514e-06
1.16086e-06
1.08775e-05
-1.00411e-06
9.71619e-07
1.09078e-05
-7.95379e-07
7.65114e-07
1.09354e-05
-5.7251e-07
5.44922e-07
1.09598e-05
-3.39631e-07
3.15233e-07
1.09803e-05
-1.01816e-07
8.12837e-08
1.09963e-05
1.34841e-07
-1.50846e-07
1.10073e-05
3.66042e-07
-3.77049e-07
1.10129e-05
5.88087e-07
-5.93666e-07
1.10127e-05
7.97674e-07
-7.97462e-07
1.10064e-05
9.91956e-07
-9.85697e-07
1.0994e-05
1.16862e-06
-1.15619e-06
1.09755e-05
1.32584e-06
-1.3073e-06
1.09511e-05
1.4623e-06
-1.4379e-06
1.09212e-05
1.57716e-06
-1.5473e-06
1.08865e-05
1.67e-06
-1.63526e-06
1.08476e-05
1.74074e-06
-1.70182e-06
1.08051e-05
1.78959e-06
-1.74714e-06
1.07594e-05
1.81655e-06
-1.77079e-06
1.07105e-05
1.81966e-06
-1.77084e-06
1.06599e-05
1.79718e-06
-1.74656e-06
1.06087e-05
1.74948e-06
-1.69827e-06
1.05581e-05
1.67711e-06
-1.62646e-06
1.0509e-05
1.581e-06
-1.5319e-06
1.04622e-05
1.46238e-06
-1.41566e-06
1.04185e-05
1.32288e-06
-1.27919e-06
1.03784e-05
1.16447e-06
-1.12433e-06
1.03422e-05
9.89542e-07
-9.53314e-07
1.03101e-05
8.00785e-07
-7.68708e-07
1.02823e-05
6.01162e-07
-5.73391e-07
1.02589e-05
3.93831e-07
-3.70439e-07
1.02399e-05
1.82335e-07
-1.63285e-07
1.0225e-05
-2.9153e-08
4.39895e-08
1.02143e-05
-2.37591e-07
2.48382e-07
1.02073e-05
-4.40323e-07
4.47307e-07
1.02038e-05
-6.348e-07
6.38223e-07
1.02037e-05
-8.18614e-07
8.1874e-07
1.02066e-05
-9.89488e-07
9.86658e-07
1.02119e-05
-1.14539e-06
1.14e-06
1.02195e-05
-1.28458e-06
1.27702e-06
1.02288e-05
-1.40549e-06
1.39616e-06
1.02395e-05
-1.50694e-06
1.49632e-06
1.02509e-05
-1.58832e-06
1.5769e-06
1.02623e-05
-1.64875e-06
1.63737e-06
1.0273e-05
-1.6888e-06
1.67811e-06
1.02827e-05
-1.71e-06
1.70026e-06
1.02931e-05
-1.71419e-06
1.70373e-06
1.0305e-05
-1.69555e-06
1.6837e-06
1.03153e-05
-1.64803e-06
1.63771e-06
1.03245e-05
-1.5781e-06
1.5689e-06
1.03328e-05
-1.48721e-06
1.47896e-06
1.03402e-05
-1.37688e-06
1.36946e-06
1.03468e-05
-1.24878e-06
1.24214e-06
1.03527e-05
-1.1048e-06
1.09893e-06
1.03578e-05
-9.47079e-07
9.41985e-07
1.03621e-05
-7.77999e-07
7.73692e-07
1.03656e-05
-6.00159e-07
5.9667e-07
1.03682e-05
-4.16382e-07
4.1377e-07
1.03698e-05
-2.29946e-07
2.28321e-07
1.03703e-05
-4.45372e-08
4.4063e-08
1.03695e-05
1.37196e-07
-1.36362e-07
1.03671e-05
3.12803e-07
-3.10481e-07
1.03631e-05
4.79965e-07
-4.75964e-07
1.03573e-05
6.36523e-07
-6.3068e-07
1.03494e-05
7.80593e-07
-7.72738e-07
1.03394e-05
9.10549e-07
-9.00546e-07
1.03272e-05
1.02503e-06
-1.01281e-06
1.03128e-05
1.12296e-06
-1.10855e-06
1.02963e-05
1.20364e-06
-1.18711e-06
1.02778e-05
1.26673e-06
-1.24827e-06
1.02577e-05
1.3122e-06
-1.29214e-06
1.02363e-05
1.34054e-06
-1.31912e-06
1.02131e-05
1.35217e-06
-1.32898e-06
1.01882e-05
1.34469e-06
-1.31972e-06
1.01623e-05
1.31757e-06
-1.29172e-06
1.01364e-05
1.27186e-06
-1.24598e-06
1.01113e-05
1.2088e-06
-1.18363e-06
1.00875e-05
1.12963e-06
-1.10585e-06
1.00657e-05
1.03565e-06
-1.01392e-06
1.00467e-05
9.28257e-07
-9.09176e-07
1.00308e-05
8.09024e-07
-7.93137e-07
1.00185e-05
6.7972e-07
-6.67441e-07
1.00101e-05
5.42211e-07
-5.33854e-07
1.00059e-05
3.98447e-07
-3.94254e-07
1.00061e-05
2.50523e-07
-2.50643e-07
1.00105e-05
1.00862e-07
-1.05316e-07
1.00192e-05
-4.7883e-08
3.92046e-08
1.00319e-05
-1.93803e-07
1.81069e-07
1.00485e-05
-3.35059e-07
3.18488e-07
1.00686e-05
-4.69878e-07
4.49737e-07
1.0092e-05
-5.9658e-07
5.73181e-07
1.01184e-05
-7.13617e-07
6.87298e-07
1.01473e-05
-8.19612e-07
7.90716e-07
1.01784e-05
-9.13394e-07
8.82254e-07
1.02114e-05
-9.93982e-07
9.60939e-07
1.0246e-05
-1.06059e-06
1.02599e-06
1.02819e-05
-1.11273e-06
1.07683e-06
1.03189e-05
-1.15011e-06
1.11312e-06
1.0357e-05
-1.17243e-06
1.13433e-06
1.03963e-05
-1.17834e-06
1.13909e-06
1.04363e-05
-1.16633e-06
1.12627e-06
1.04768e-05
-1.13655e-06
1.09613e-06
1.05172e-05
-1.08953e-06
1.04915e-06
1.05571e-05
-1.02604e-06
9.86127e-07
1.05961e-05
-9.47144e-07
9.0809e-07
1.06339e-05
-8.54107e-07
8.16328e-07
1.067e-05
-7.48236e-07
7.121e-07
1.07041e-05
-6.31941e-07
5.97889e-07
1.07358e-05
-5.04454e-07
4.72763e-07
1.07645e-05
-3.73712e-07
3.45028e-07
1.07893e-05
-2.2383e-07
1.99011e-07
1.08108e-05
-1.06287e-07
8.47763e-08
1.0982e-07
-1.2377e-07
1.00932e-05
8.01898e-07
1.01024e-05
5.83281e-07
1.01162e-05
3.56186e-07
1.01339e-05
1.24874e-07
1.01546e-05
-1.05838e-07
1.01781e-05
-3.32296e-07
1.02037e-05
-5.51392e-07
1.02311e-05
-7.60341e-07
1.02597e-05
-9.56422e-07
1.02894e-05
-1.13731e-06
1.03198e-05
-1.30098e-06
1.03505e-05
-1.44564e-06
1.03811e-05
-1.56994e-06
1.04114e-05
-1.67292e-06
1.0441e-05
-1.754e-06
1.04697e-05
-1.81323e-06
1.04977e-05
-1.85127e-06
1.05256e-05
-1.86873e-06
1.05547e-05
-1.86142e-06
1.05842e-05
-1.82448e-06
1.06136e-05
-1.758e-06
1.06427e-05
-1.66318e-06
1.06716e-05
-1.54128e-06
1.07001e-05
-1.39388e-06
1.07279e-05
-1.22296e-06
1.07548e-05
-1.03101e-06
1.07804e-05
-8.21005e-07
1.08044e-05
-5.96466e-07
1.08262e-05
-3.61467e-07
1.08453e-05
-1.20882e-07
1.08609e-05
1.19227e-07
1.08726e-05
3.54372e-07
1.08798e-05
5.80832e-07
1.08823e-05
7.95258e-07
1.08795e-05
9.94714e-07
1.08714e-05
1.17674e-06
1.08578e-05
1.33937e-06
1.0839e-05
1.48111e-06
1.08153e-05
1.60093e-06
1.07871e-05
1.69821e-06
1.07551e-05
1.7727e-06
1.072e-05
1.82465e-06
1.06821e-05
1.8545e-06
1.06411e-05
1.8607e-06
1.0598e-05
1.84023e-06
1.05541e-05
1.79337e-06
1.05104e-05
1.72079e-06
1.04679e-05
1.62359e-06
1.0427e-05
1.50322e-06
1.03885e-05
1.36144e-06
1.03526e-05
1.20039e-06
1.03196e-05
1.02251e-06
1.02898e-05
8.30571e-07
1.02634e-05
6.27553e-07
1.02406e-05
4.16671e-07
1.02214e-05
2.01539e-07
1.02058e-05
-1.35956e-08
1.01937e-05
-2.25491e-07
1.01848e-05
-4.31438e-07
1.01786e-05
-6.28601e-07
1.01746e-05
-8.14622e-07
1.01726e-05
-9.87505e-07
1.01725e-05
-1.14522e-06
1.01738e-05
-1.28595e-06
1.01765e-05
-1.40815e-06
1.018e-05
-1.51049e-06
1.01841e-05
-1.59234e-06
1.01882e-05
-1.65287e-06
1.01919e-05
-1.6925e-06
1.01947e-05
-1.71276e-06
1.01972e-05
-1.71676e-06
1.01994e-05
-1.69772e-06
1.02005e-05
-1.64907e-06
1.02008e-05
-1.5784e-06
1.02005e-05
-1.48699e-06
1.01999e-05
-1.37627e-06
1.0199e-05
-1.24789e-06
1.01979e-05
-1.10371e-06
1.01967e-05
-9.45852e-07
1.01954e-05
-7.76692e-07
1.0194e-05
-5.98784e-07
1.01926e-05
-4.14916e-07
1.01909e-05
-2.28289e-07
1.01889e-05
-4.25191e-08
1.01863e-05
1.39745e-07
1.01831e-05
3.16077e-07
1.01789e-05
4.84151e-07
1.01736e-05
6.41818e-07
1.0167e-05
7.87205e-07
1.01589e-05
9.18628e-07
1.01493e-05
1.03466e-06
1.0138e-05
1.13419e-06
1.01252e-05
1.21643e-06
1.01111e-05
1.28088e-06
1.00959e-05
1.32737e-06
1.008e-05
1.35647e-06
1.0063e-05
1.36918e-06
1.00443e-05
1.36334e-06
1.00251e-05
1.33681e-06
1.00061e-05
1.29081e-06
9.98811e-06
1.22683e-06
9.97158e-06
1.14617e-06
9.9571e-06
1.05013e-06
9.94522e-06
9.40138e-07
9.93638e-06
8.1787e-07
9.93082e-06
6.85277e-07
9.92871e-06
5.44323e-07
9.93022e-06
3.96939e-07
9.93546e-06
2.45278e-07
9.94439e-06
9.19341e-08
9.95682e-06
-6.03103e-08
9.97256e-06
-2.09546e-07
9.99138e-06
-3.53877e-07
1.0013e-05
-4.91469e-07
1.0037e-05
-6.20624e-07
1.00632e-05
-7.39787e-07
1.00912e-05
-8.47588e-07
1.01206e-05
-9.42871e-07
1.01513e-05
-1.02464e-06
1.01829e-05
-1.09217e-06
1.02151e-05
-1.145e-06
1.0248e-05
-1.18294e-06
1.02814e-05
-1.20588e-06
1.03158e-05
-1.21268e-06
1.03508e-05
-1.20136e-06
1.03862e-05
-1.17193e-06
1.04215e-05
-1.12492e-06
1.04566e-05
-1.06113e-06
1.04911e-05
-9.8164e-07
1.05247e-05
-8.87688e-07
1.05571e-05
-7.80622e-07
1.05879e-05
-6.62722e-07
1.06168e-05
-5.33409e-07
1.06435e-05
-4.0033e-07
1.06669e-05
-2.47274e-07
1.06876e-05
-1.26969e-07
9.56519e-08
1.00872e-05
7.90522e-07
1.01021e-05
5.68368e-07
1.01203e-05
3.38016e-07
1.01412e-05
1.03972e-07
1.01642e-05
-1.28847e-07
1.01888e-05
-3.56914e-07
1.02146e-05
-5.77165e-07
1.02411e-05
-7.86857e-07
1.0268e-05
-9.83248e-07
1.02948e-05
-1.16412e-06
1.03213e-05
-1.32753e-06
1.03474e-05
-1.47168e-06
1.03727e-05
-1.59527e-06
1.03971e-05
-1.69732e-06
1.04201e-05
-1.77704e-06
1.04416e-05
-1.83472e-06
1.04615e-05
-1.87112e-06
1.04803e-05
-1.88762e-06
1.0501e-05
-1.88203e-06
1.05217e-05
-1.84527e-06
1.05422e-05
-1.77849e-06
1.05627e-05
-1.68364e-06
1.05833e-05
-1.56191e-06
1.06042e-05
-1.41475e-06
1.06252e-05
-1.244e-06
1.06462e-05
-1.05202e-06
1.0667e-05
-8.41725e-07
1.06871e-05
-6.16558e-07
1.07061e-05
-3.80512e-07
1.07235e-05
-1.38267e-07
1.07385e-05
1.04213e-07
1.07506e-05
3.42243e-07
1.07594e-05
5.72104e-07
1.07642e-05
7.90403e-07
1.07648e-05
9.9412e-07
1.07609e-05
1.18066e-06
1.07524e-05
1.34791e-06
1.07392e-05
1.49424e-06
1.07217e-05
1.61841e-06
1.07004e-05
1.71958e-06
1.06757e-05
1.79735e-06
1.06484e-05
1.85194e-06
1.06189e-05
1.88404e-06
1.05864e-05
1.89314e-06
1.05516e-05
1.87503e-06
1.05156e-05
1.82937e-06
1.04794e-05
1.757e-06
1.04437e-05
1.65936e-06
1.04088e-05
1.53809e-06
1.03752e-05
1.39504e-06
1.03432e-05
1.23234e-06
1.03133e-05
1.05246e-06
1.02857e-05
8.58162e-07
1.02608e-05
6.52478e-07
1.02387e-05
4.38699e-07
1.02197e-05
2.2053e-07
1.02038e-05
2.32181e-09
1.01908e-05
-2.12486e-07
1.01803e-05
-4.20966e-07
1.01721e-05
-6.20308e-07
1.01656e-05
-8.08147e-07
1.01605e-05
-9.8238e-07
1.01563e-05
-1.14107e-06
1.01527e-05
-1.28239e-06
1.01493e-05
-1.4047e-06
1.01458e-05
-1.50697e-06
1.01423e-05
-1.58882e-06
1.01389e-05
-1.64952e-06
1.01356e-05
-1.68923e-06
1.01323e-05
-1.70946e-06
1.01274e-05
-1.7118e-06
1.01195e-05
-1.6899e-06
1.01116e-05
-1.64114e-06
1.01035e-05
-1.57023e-06
1.00951e-05
-1.47864e-06
1.00867e-05
-1.36786e-06
1.00784e-05
-1.23959e-06
1.00704e-05
-1.09569e-06
1.00628e-05
-9.38259e-07
1.00557e-05
-7.69633e-07
1.00493e-05
-5.92324e-07
1.00434e-05
-4.0908e-07
1.00382e-05
-2.23028e-07
1.00333e-05
-3.76782e-08
1.00287e-05
1.44334e-07
1.00242e-05
3.20588e-07
1.00196e-05
4.88779e-07
1.00146e-05
6.46767e-07
1.00092e-05
7.92669e-07
1.0003e-05
9.24767e-07
9.99608e-06
1.04162e-06
9.9882e-06
1.14207e-06
9.97946e-06
1.22517e-06
9.97003e-06
1.29031e-06
9.96013e-06
1.33727e-06
9.94997e-06
1.36662e-06
9.93959e-06
1.37957e-06
9.92719e-06
1.37574e-06
9.9145e-06
1.34949e-06
9.90255e-06
1.30277e-06
9.89181e-06
1.23757e-06
9.88272e-06
1.15526e-06
9.87571e-06
1.05714e-06
9.87125e-06
9.44595e-07
9.86968e-06
8.19438e-07
9.871e-06
6.83956e-07
9.87521e-06
5.4012e-07
9.88247e-06
3.89678e-07
9.89277e-06
2.34979e-07
9.90605e-06
7.86502e-08
9.92219e-06
-7.6453e-08
9.94091e-06
-2.28262e-07
9.96188e-06
-3.74848e-07
9.9848e-06
-5.14392e-07
1.00094e-05
-6.45192e-07
1.00353e-05
-7.65688e-07
1.00622e-05
-8.74533e-07
1.00899e-05
-9.70573e-07
1.01181e-05
-1.05282e-06
1.01465e-05
-1.12059e-06
1.0175e-05
-1.17348e-06
1.02034e-05
-1.21138e-06
1.0232e-05
-1.23441e-06
1.02611e-05
-1.24176e-06
1.02907e-05
-1.23097e-06
1.03205e-05
-1.20179e-06
1.03504e-05
-1.15479e-06
1.03801e-05
-1.09082e-06
1.04094e-05
-1.01096e-06
1.04382e-05
-9.1645e-07
1.04662e-05
-8.08636e-07
1.04931e-05
-6.89658e-07
1.05188e-05
-5.59127e-07
1.05429e-05
-4.24389e-07
1.05645e-05
-2.68921e-07
1.05841e-05
-1.46478e-07
8.14769e-08
1.0105e-05
7.7333e-07
1.01248e-05
5.48542e-07
1.01468e-05
3.16014e-07
1.01705e-05
8.03314e-08
1.01952e-05
-1.53553e-07
1.02205e-05
-3.82259e-07
1.0246e-05
-6.02678e-07
1.02712e-05
-8.12065e-07
1.02958e-05
-1.0078e-06
1.03194e-05
-1.18771e-06
1.03418e-05
-1.34997e-06
1.0363e-05
-1.49283e-06
1.03827e-05
-1.61503e-06
1.0401e-05
-1.71559e-06
1.04176e-05
-1.79359e-06
1.0432e-05
-1.84919e-06
1.04441e-05
-1.88314e-06
1.04541e-05
-1.89765e-06
1.0466e-05
-1.89394e-06
1.04774e-05
-1.85667e-06
1.04884e-05
-1.78947e-06
1.04996e-05
-1.6949e-06
1.05117e-05
-1.57392e-06
1.05246e-05
-1.42772e-06
1.05386e-05
-1.25797e-06
1.05534e-05
-1.06687e-06
1.0569e-05
-8.57243e-07
1.05849e-05
-6.32457e-07
1.06007e-05
-3.96398e-07
1.06161e-05
-1.5361e-07
1.06301e-05
9.01441e-08
1.06424e-05
3.29971e-07
1.06524e-05
5.62159e-07
1.06595e-05
7.8327e-07
1.06634e-05
9.90214e-07
1.06638e-05
1.18029e-06
1.06604e-05
1.35131e-06
1.06531e-05
1.50147e-06
1.06422e-05
1.62932e-06
1.0628e-05
1.73383e-06
1.06109e-05
1.81443e-06
1.05917e-05
1.87113e-06
1.05711e-05
1.90465e-06
1.05482e-05
1.91599e-06
1.05223e-05
1.90099e-06
1.04946e-05
1.8571e-06
1.04659e-05
1.78565e-06
1.04369e-05
1.68841e-06
1.04079e-05
1.567e-06
1.03797e-05
1.42331e-06
1.03525e-05
1.25953e-06
1.03267e-05
1.07822e-06
1.03027e-05
8.82197e-07
1.02806e-05
6.74621e-07
1.02603e-05
4.58908e-07
1.0242e-05
2.38858e-07
1.02254e-05
1.88944e-08
1.02106e-05
-1.97631e-07
1.01975e-05
-4.07853e-07
1.01862e-05
-6.0902e-07
1.01765e-05
-7.9849e-07
1.0168e-05
-9.73841e-07
1.01598e-05
-1.13291e-06
1.01516e-05
-1.27419e-06
1.01434e-05
-1.39642e-06
1.01347e-05
-1.49834e-06
1.01254e-05
-1.57945e-06
1.01155e-05
-1.63964e-06
1.01055e-05
-1.67921e-06
1.00952e-05
-1.69922e-06
1.00824e-05
-1.699e-06
1.00668e-05
-1.67424e-06
1.00508e-05
-1.62522e-06
1.00346e-05
-1.55402e-06
1.00183e-05
-1.46234e-06
1.00022e-05
-1.35175e-06
9.98661e-06
-1.22397e-06
9.97177e-06
-1.08085e-06
9.95794e-06
-9.24425e-07
9.94526e-06
-7.56951e-07
9.9338e-06
-5.8087e-07
9.92363e-06
-3.98911e-07
9.91473e-06
-2.14121e-07
9.90699e-06
-2.99398e-08
9.9003e-06
1.51023e-07
9.89453e-06
3.26359e-07
9.88949e-06
4.93818e-07
9.88499e-06
6.51265e-07
9.88083e-06
7.96834e-07
9.87679e-06
9.28803e-07
9.87261e-06
1.0458e-06
9.86814e-06
1.14654e-06
9.86347e-06
1.22985e-06
9.85868e-06
1.2951e-06
9.8538e-06
1.34216e-06
9.84902e-06
1.3714e-06
9.84452e-06
1.38408e-06
9.83807e-06
1.38219e-06
9.83216e-06
1.3554e-06
9.82779e-06
1.30714e-06
9.82513e-06
1.24022e-06
9.82418e-06
1.15622e-06
9.82503e-06
1.05629e-06
9.82781e-06
9.41811e-07
9.83251e-06
8.14736e-07
9.83975e-06
6.76721e-07
9.84999e-06
5.29874e-07
9.86293e-06
3.76743e-07
9.87832e-06
2.19587e-07
9.89596e-06
6.10092e-08
9.9156e-06
-9.60956e-08
9.93702e-06
-2.49682e-07
9.95996e-06
-3.97781e-07
9.98411e-06
-5.38547e-07
1.00092e-05
-6.70264e-07
1.00349e-05
-7.91365e-07
1.00608e-05
-9.00514e-07
1.00868e-05
-9.96548e-07
1.01125e-05
-1.07852e-06
1.01377e-05
-1.14581e-06
1.01623e-05
-1.19807e-06
1.01862e-05
-1.2353e-06
1.02097e-05
-1.25786e-06
1.02334e-05
-1.26542e-06
1.02574e-05
-1.25498e-06
1.02814e-05
-1.22586e-06
1.03054e-05
-1.17875e-06
1.03292e-05
-1.11461e-06
1.03528e-05
-1.03455e-06
1.03761e-05
-9.39791e-07
1.03991e-05
-8.31654e-07
1.04216e-05
-7.12134e-07
1.04435e-05
-5.80986e-07
1.04644e-05
-4.4529e-07
1.04837e-05
-2.8823e-07
1.05016e-05
-1.64355e-07
6.75992e-08
1.01483e-05
1.01726e-05
1.01981e-05
1.02242e-05
1.02504e-05
1.02763e-05
1.03012e-05
1.03247e-05
1.03463e-05
1.03659e-05
1.03831e-05
1.03981e-05
1.04109e-05
1.04219e-05
1.04312e-05
1.04388e-05
1.04445e-05
1.04482e-05
1.0451e-05
1.0452e-05
1.04528e-05
1.04546e-05
1.04577e-05
1.04626e-05
1.04692e-05
1.04777e-05
1.04878e-05
1.04994e-05
1.0512e-05
1.05253e-05
1.05384e-05
1.05508e-05
1.0562e-05
1.05714e-05
1.05785e-05
1.0583e-05
1.05846e-05
1.05831e-05
1.05787e-05
1.05717e-05
1.05625e-05
1.05521e-05
1.05411e-05
1.05287e-05
1.0511e-05
1.04909e-05
1.04698e-05
1.0448e-05
1.0426e-05
1.04044e-05
1.03834e-05
1.03634e-05
1.03446e-05
1.0327e-05
1.03106e-05
1.02952e-05
1.02806e-05
1.02665e-05
1.02525e-05
1.02384e-05
1.02241e-05
1.02093e-05
1.01944e-05
1.01793e-05
1.01641e-05
1.01487e-05
1.01332e-05
1.01173e-05
1.01008e-05
1.00834e-05
1.00635e-05
1.00415e-05
1.00185e-05
9.99482e-06
9.97102e-06
9.9475e-06
9.92469e-06
9.90305e-06
9.88297e-06
9.86473e-06
9.84853e-06
9.83443e-06
9.82236e-06
9.81217e-06
9.80364e-06
9.79662e-06
9.79099e-06
9.78656e-06
9.78322e-06
9.78072e-06
9.77884e-06
9.77747e-06
9.77666e-06
9.77647e-06
9.77684e-06
9.77761e-06
9.77845e-06
9.78007e-06
9.78264e-06
9.7862e-06
9.79099e-06
9.79753e-06
9.80578e-06
9.81543e-06
9.82674e-06
9.83989e-06
9.85505e-06
9.87239e-06
9.89179e-06
9.91289e-06
9.93544e-06
9.95917e-06
9.98377e-06
1.00089e-05
1.00343e-05
1.00596e-05
1.00845e-05
1.01087e-05
1.01321e-05
1.01544e-05
1.01755e-05
1.01955e-05
1.02143e-05
-1.2767e-06
1.02328e-05
-1.28395e-06
1.02514e-05
-1.27355e-06
1.02696e-05
-1.24403e-06
1.02873e-05
-1.1965e-06
1.03048e-05
-1.13212e-06
1.03223e-05
-1.05201e-06
1.03398e-05
-9.57303e-07
1.03574e-05
-8.49227e-07
1.03749e-05
-7.29664e-07
1.03924e-05
-5.98449e-07
1.04095e-05
-4.62453e-07
1.04259e-05
-3.04642e-07
1.04416e-05
-1.80015e-07
5.44884e-08
1.02437e-05
1.02565e-05
1.02699e-05
1.02826e-05
1.02947e-05
1.03064e-05
1.03179e-05
1.03294e-05
1.03412e-05
1.03534e-05
1.03662e-05
1.03794e-05
1.03927e-05
1.0406e-05
8.41963e-07
-1.34376e-07
9.68959e-07
-1.26996e-07
1.08673e-06
-1.17766e-07
1.19408e-06
-1.07359e-07
1.29046e-06
-9.63747e-08
1.3757e-06
-8.52358e-08
1.44994e-06
-7.42417e-08
1.51356e-06
-6.36203e-08
1.56708e-06
-5.35198e-08
1.6112e-06
-4.41227e-08
1.6471e-06
-3.58967e-08
1.6757e-06
-2.86044e-08
1.69762e-06
-2.1923e-08
1.71311e-06
-1.54889e-08
1.7226e-06
-9.48435e-09
1.72679e-06
-4.19089e-09
1.72648e-06
3.09665e-10
1.72345e-06
3.02469e-09
1.71764e-06
5.80911e-09
1.70922e-06
8.41957e-09
1.69903e-06
1.01904e-08
1.68801e-06
1.10258e-08
1.67704e-06
1.09646e-08
1.66692e-06
1.01276e-08
1.6579e-06
9.01988e-09
1.65004e-06
7.85954e-09
1.64339e-06
6.65055e-09
1.63803e-06
5.35394e-09
1.63405e-06
3.9793e-09
1.63151e-06
2.54056e-09
1.63048e-06
1.03529e-09
1.63071e-06
-2.34177e-10
1.63185e-06
-1.135e-09
1.63372e-06
-1.86981e-09
1.63606e-06
-2.34489e-09
1.63863e-06
-2.56736e-09
1.64119e-06
-2.56611e-09
1.64361e-06
-2.41072e-09
1.64584e-06
-2.23426e-09
1.64794e-06
-2.09556e-09
1.64975e-06
-1.8104e-09
1.65099e-06
-1.24913e-09
1.65111e-06
-1.15618e-10
1.64974e-06
1.3704e-09
1.6459e-06
3.83883e-09
1.63855e-06
7.3461e-09
1.62664e-06
1.19127e-08
1.60925e-06
1.73872e-08
1.58564e-06
2.36169e-08
1.5551e-06
3.05424e-08
1.51706e-06
3.80308e-08
1.47107e-06
4.59931e-08
1.41675e-06
5.43253e-08
1.35394e-06
6.28037e-08
1.28286e-06
7.10828e-08
1.2041e-06
7.8762e-08
1.11867e-06
8.54276e-08
1.02797e-06
9.06987e-08
9.33699e-07
9.42726e-08
8.37715e-07
9.59838e-08
7.41882e-07
9.58324e-08
6.47775e-07
9.41072e-08
5.56731e-07
9.10438e-08
4.70196e-07
8.65349e-08
3.89784e-07
8.04121e-08
3.17142e-07
7.26419e-08
2.53929e-07
6.32138e-08
2.01759e-07
5.21691e-08
1.62179e-07
3.95809e-08
1.3659e-07
2.55882e-08
1.25955e-07
1.06354e-08
1.29036e-07
-3.08115e-09
1.44929e-07
-1.58928e-08
1.73713e-07
-2.87841e-08
2.14593e-07
-4.08799e-08
2.66324e-07
-5.17313e-08
3.2738e-07
-6.10562e-08
3.96069e-07
-6.86893e-08
4.70589e-07
-7.45199e-08
5.4905e-07
-7.84604e-08
6.29584e-07
-8.05347e-08
7.10513e-07
-8.09284e-08
7.90373e-07
-7.98598e-08
8.67932e-07
-7.75593e-08
9.42205e-07
-7.4273e-08
1.01244e-06
-7.02309e-08
1.07811e-06
-6.56699e-08
1.13892e-06
-6.08102e-08
1.19471e-06
-5.5795e-08
1.24545e-06
-5.07393e-08
1.29119e-06
-4.57436e-08
1.33208e-06
-4.08908e-08
1.36831e-06
-3.62229e-08
1.40007e-06
-3.17678e-08
1.42759e-06
-2.75201e-08
1.45105e-06
-2.34521e-08
1.47053e-06
-1.94835e-08
1.48592e-06
-1.53854e-08
1.49709e-06
-1.11699e-08
1.50401e-06
-6.925e-09
1.50661e-06
-2.5982e-09
1.50515e-06
1.46221e-09
1.4991e-06
6.04743e-09
1.48796e-06
1.11395e-08
1.47158e-06
1.6382e-08
1.45019e-06
2.13908e-08
1.42411e-06
2.60716e-08
1.39389e-06
3.02257e-08
1.35999e-06
3.38966e-08
1.32272e-06
3.72725e-08
1.28238e-06
4.03434e-08
1.23945e-06
4.29243e-08
1.1946e-06
4.48524e-08
1.1485e-06
4.61018e-08
1.10183e-06
4.66719e-08
1.05533e-06
4.64969e-08
1.00982e-06
4.55088e-08
9.66129e-07
4.36911e-08
9.25068e-07
4.10614e-08
8.87375e-07
3.76929e-08
8.53663e-07
3.3712e-08
8.24466e-07
2.9197e-08
8.0028e-07
2.41865e-08
7.81581e-07
1.86985e-08
7.68896e-07
1.2685e-08
7.62631e-07
6.26533e-09
7.62894e-07
-2.63412e-10
7.68984e-07
-6.08975e-09
7.81318e-07
-1.2334e-08
7.99795e-07
-1.84766e-08
8.24134e-07
-2.43392e-08
8.53805e-07
-2.96707e-08
8.88385e-07
-3.45799e-08
9.26681e-07
-3.82963e-08
9.69859e-07
-4.31785e-08
1.0149e-06
-4.50399e-08
-5.44619e-08
2.99077e-06
-3.30864e-07
3.18122e-06
-3.17449e-07
3.36341e-06
-2.99958e-07
3.53538e-06
-2.79325e-07
3.69538e-06
-2.56373e-07
3.84203e-06
-2.31893e-07
3.97435e-06
-2.06555e-07
4.09161e-06
-1.80879e-07
4.19338e-06
-1.55293e-07
4.27951e-06
-1.30254e-07
4.35005e-06
-1.06435e-07
4.40522e-06
-8.37786e-08
4.44549e-06
-6.21905e-08
4.47164e-06
-4.16362e-08
4.48504e-06
-2.28842e-08
4.48736e-06
-6.51531e-09
4.48045e-06
7.22053e-09
4.46444e-06
1.90399e-08
4.44036e-06
2.98879e-08
4.41008e-06
3.86992e-08
4.37547e-06
4.4803e-08
4.33803e-06
4.84633e-08
4.29906e-06
4.99371e-08
4.26017e-06
4.90174e-08
4.22174e-06
4.7448e-08
4.18389e-06
4.57023e-08
4.14668e-06
4.38663e-08
4.11025e-06
4.17841e-08
4.07472e-06
3.95095e-08
4.0401e-06
3.71633e-08
4.0063e-06
3.48306e-08
3.97324e-06
3.28303e-08
3.94072e-06
3.13804e-08
3.90835e-06
3.05059e-08
3.87578e-06
3.02159e-08
3.84274e-06
3.0481e-08
3.80895e-06
3.12171e-08
3.7743e-06
3.22447e-08
3.73885e-06
3.32092e-08
3.70278e-06
3.39779e-08
3.66616e-06
3.48109e-08
3.62888e-06
3.60265e-08
3.59066e-06
3.8105e-08
3.55039e-06
4.16401e-08
3.50696e-06
4.72759e-08
3.45904e-06
5.52603e-08
3.40561e-06
6.5349e-08
3.34604e-06
7.69505e-08
3.28013e-06
8.95339e-08
3.20788e-06
1.02789e-07
3.12941e-06
1.16499e-07
3.04486e-06
1.30546e-07
2.95437e-06
1.4481e-07
2.85819e-06
1.58986e-07
2.75679e-06
1.72488e-07
2.65105e-06
1.84493e-07
2.54234e-06
1.94141e-07
2.4324e-06
2.00637e-07
2.32323e-06
2.03446e-07
2.21684e-06
2.02372e-07
2.11529e-06
1.97385e-07
2.02087e-06
1.88525e-07
1.93596e-06
1.7595e-07
1.86242e-06
1.60082e-07
1.80131e-06
1.41521e-07
1.7532e-06
1.20752e-07
1.7183e-06
9.81159e-08
1.69663e-06
7.3832e-08
1.68826e-06
4.79551e-08
1.69345e-06
2.0396e-08
1.71065e-06
-6.56735e-09
1.74182e-06
-3.42455e-08
1.78775e-06
-6.18198e-08
1.84769e-06
-8.87264e-08
1.9208e-06
-1.13992e-07
2.00586e-06
-1.36794e-07
2.10134e-06
-1.56536e-07
2.20545e-06
-1.72798e-07
2.31616e-06
-1.85228e-07
2.4312e-06
-1.93504e-07
2.54818e-06
-1.97515e-07
2.66487e-06
-1.97616e-07
2.77932e-06
-1.94314e-07
2.88991e-06
-1.88141e-07
2.99518e-06
-1.79553e-07
3.09398e-06
-1.69025e-07
3.18535e-06
-1.57038e-07
3.26854e-06
-1.44006e-07
3.343e-06
-1.30253e-07
3.40836e-06
-1.16098e-07
3.46446e-06
-1.01849e-07
3.51135e-06
-8.77756e-08
3.5492e-06
-7.4075e-08
3.57833e-06
-6.09015e-08
3.5992e-06
-4.83857e-08
3.61237e-06
-3.66266e-08
3.61843e-06
-2.55439e-08
3.6176e-06
-1.45553e-08
3.6098e-06
-3.36925e-09
3.59532e-06
7.55439e-09
3.57458e-06
1.81501e-08
3.54754e-06
2.84971e-08
3.51531e-06
3.82774e-08
3.47816e-06
4.82957e-08
3.43599e-06
5.85425e-08
3.38937e-06
6.80131e-08
3.33896e-06
7.64795e-08
3.28585e-06
8.33354e-08
3.23093e-06
8.88237e-08
3.17464e-06
9.35641e-08
3.11735e-06
9.7628e-08
3.05973e-06
1.00542e-07
3.00265e-06
1.01933e-07
2.94684e-06
1.01914e-07
2.89295e-06
1.00564e-07
2.8417e-06
9.77486e-08
2.79385e-06
9.33582e-08
2.75017e-06
8.73735e-08
2.71144e-06
7.9783e-08
2.67844e-06
7.07019e-08
2.65173e-06
6.04139e-08
2.63168e-06
4.92491e-08
2.6184e-06
3.7463e-08
2.61202e-06
2.50882e-08
2.6128e-06
1.19031e-08
2.62066e-06
-1.60087e-09
2.63574e-06
-1.53416e-08
2.6587e-06
-2.90452e-08
2.68904e-06
-4.26725e-08
2.72646e-06
-5.58999e-08
2.77055e-06
-6.84311e-08
2.82083e-06
-7.99465e-08
2.87666e-06
-9.04174e-08
2.93758e-06
-9.92097e-08
3.00265e-06
-1.08253e-07
3.0715e-06
-1.13884e-07
-1.24573e-07
4.55133e-06
-5.16968e-07
4.73267e-06
-4.98792e-07
4.90749e-06
-4.74773e-07
5.07461e-06
-4.46451e-07
5.23344e-06
-4.15195e-07
5.38365e-06
-3.82106e-07
5.52517e-06
-3.48072e-07
5.65809e-06
-3.13799e-07
5.7826e-06
-2.79806e-07
5.89881e-06
-2.46462e-07
6.00639e-06
-2.14016e-07
6.10509e-06
-1.82476e-07
6.19467e-06
-1.51772e-07
6.27494e-06
-1.21909e-07
6.34538e-06
-9.3327e-08
6.40574e-06
-6.68739e-08
6.45646e-06
-4.34948e-08
6.49635e-06
-2.08493e-08
6.52539e-06
8.41933e-10
6.54424e-06
1.98548e-08
6.5535e-06
3.55367e-08
6.5535e-06
4.84628e-08
6.544e-06
5.94419e-08
6.52513e-06
6.78883e-08
6.49777e-06
7.48104e-08
6.46307e-06
8.03996e-08
6.42186e-06
8.507e-08
6.37445e-06
8.91967e-08
6.32097e-06
9.29942e-08
6.26207e-06
9.60581e-08
6.19905e-06
9.78544e-08
6.13268e-06
9.91974e-08
6.06336e-06
1.00701e-07
5.99126e-06
1.0261e-07
5.91652e-06
1.04948e-07
5.83942e-06
1.07587e-07
5.76037e-06
1.10266e-07
5.67987e-06
1.12741e-07
5.59884e-06
1.14241e-07
5.51809e-06
1.14734e-07
5.43806e-06
1.14832e-07
5.35909e-06
1.15001e-07
5.28134e-06
1.1586e-07
5.20478e-06
1.18196e-07
5.12923e-06
1.22829e-07
5.05417e-06
1.3032e-07
4.97885e-06
1.40668e-07
4.9025e-06
1.53299e-07
4.82434e-06
1.67692e-07
4.7436e-06
1.83529e-07
4.65972e-06
2.00379e-07
4.57227e-06
2.17999e-07
4.48089e-06
2.36187e-07
4.38563e-06
2.54245e-07
4.28714e-06
2.70983e-07
4.18662e-06
2.85008e-07
4.08574e-06
2.95025e-07
3.98626e-06
3.00118e-07
3.88988e-06
2.99821e-07
3.7982e-06
2.94049e-07
3.71261e-06
2.82981e-07
3.63415e-06
2.66986e-07
3.56352e-06
2.46577e-07
3.50121e-06
2.22394e-07
3.4476e-06
1.95125e-07
3.40307e-06
1.65282e-07
3.36809e-06
1.33099e-07
3.34336e-06
9.85677e-08
3.3298e-06
6.15106e-08
3.32845e-06
2.17447e-08
3.33983e-06
-1.79439e-08
3.36481e-06
-5.92277e-08
3.40361e-06
-1.0062e-07
3.4559e-06
-1.41014e-07
3.52099e-06
-1.79085e-07
3.59785e-06
-2.1365e-07
3.68522e-06
-2.43914e-07
3.78186e-06
-2.69432e-07
3.88647e-06
-2.8984e-07
3.99736e-06
-3.04388e-07
4.11226e-06
-3.12423e-07
4.22924e-06
-3.14591e-07
4.34633e-06
-3.1141e-07
4.46188e-06
-3.03691e-07
4.57452e-06
-2.92188e-07
4.68308e-06
-2.77583e-07
4.78658e-06
-2.60547e-07
4.88417e-06
-2.4159e-07
4.97502e-06
-2.21105e-07
5.05846e-06
-1.99532e-07
5.13396e-06
-1.77354e-07
5.20115e-06
-1.54966e-07
5.2597e-06
-1.32626e-07
5.30933e-06
-1.10532e-07
5.34981e-06
-8.88616e-08
5.38099e-06
-6.7808e-08
5.40294e-06
-4.74925e-08
5.416e-06
-2.76177e-08
5.42015e-06
-7.51327e-09
5.41471e-06
1.29923e-08
5.39952e-06
3.33331e-08
5.37508e-06
5.294e-08
5.34243e-06
7.0933e-08
5.3026e-06
8.81199e-08
5.25636e-06
1.04782e-07
5.20429e-06
1.20081e-07
5.14719e-06
1.33582e-07
5.0879e-06
1.42633e-07
5.0285e-06
1.48224e-07
4.96915e-06
1.52905e-07
4.90968e-06
1.57099e-07
4.85062e-06
1.596e-07
4.79284e-06
1.59714e-07
4.73684e-06
1.57918e-07
4.68306e-06
1.54344e-07
4.63206e-06
1.48752e-07
4.58441e-06
1.41e-07
4.54068e-06
1.31106e-07
4.50149e-06
1.18975e-07
4.4674e-06
1.04787e-07
4.43886e-06
8.89551e-08
4.4162e-06
7.19142e-08
4.39965e-06
5.40157e-08
4.38945e-06
3.52834e-08
4.38601e-06
1.53462e-08
4.38915e-06
-4.74618e-09
4.39935e-06
-2.55409e-08
4.41683e-06
-4.65218e-08
4.44151e-06
-6.73594e-08
4.47326e-06
-8.76415e-08
4.51175e-06
-1.06929e-07
4.55663e-06
-1.24819e-07
4.60739e-06
-1.41178e-07
4.66375e-06
-1.55573e-07
4.72493e-06
-1.69436e-07
4.79038e-06
-1.79327e-07
-1.92482e-07
6.1825e-06
-6.64937e-07
6.32647e-06
-6.42759e-07
6.46496e-06
-6.13262e-07
6.59678e-06
-5.78274e-07
6.7211e-06
-5.39512e-07
6.83737e-06
-4.9838e-07
6.94539e-06
-4.56092e-07
7.04525e-06
-4.13655e-07
7.13727e-06
-3.71823e-07
7.22197e-06
-3.31167e-07
7.30008e-06
-2.92128e-07
7.37256e-06
-2.54949e-07
7.44042e-06
-2.19639e-07
7.50464e-06
-1.86132e-07
7.56588e-06
-1.54562e-07
7.62423e-06
-1.25228e-07
7.67886e-06
-9.81256e-08
7.73041e-06
-7.23967e-08
7.77913e-06
-4.78746e-08
7.82411e-06
-2.51297e-08
7.86423e-06
-4.58363e-09
7.8987e-06
1.39979e-08
7.92707e-06
3.10679e-08
7.94826e-06
4.67047e-08
7.96234e-06
6.07276e-08
7.96994e-06
7.28017e-08
7.97139e-06
8.36208e-08
7.9662e-06
9.43801e-08
7.95393e-06
1.05269e-07
7.93456e-06
1.15429e-07
7.90819e-06
1.24219e-07
7.87497e-06
1.32416e-07
7.83511e-06
1.40563e-07
7.78883e-06
1.48894e-07
7.73644e-06
1.57338e-07
7.67827e-06
1.65754e-07
7.61404e-06
1.74496e-07
7.54254e-06
1.84239e-07
7.46429e-06
1.92491e-07
7.38016e-06
1.98867e-07
7.29007e-06
2.04923e-07
7.1939e-06
2.11168e-07
7.09179e-06
2.17969e-07
6.98457e-06
2.25424e-07
6.87365e-06
2.33743e-07
6.76113e-06
2.42841e-07
6.64943e-06
2.52365e-07
6.54047e-06
2.62266e-07
6.43519e-06
2.7297e-07
6.33392e-06
2.84799e-07
6.23681e-06
2.97489e-07
6.14352e-06
3.11286e-07
6.05344e-06
3.26273e-07
5.96596e-06
3.41719e-07
5.88058e-06
3.56371e-07
5.79695e-06
3.68634e-07
5.715e-06
3.76974e-07
5.63498e-06
3.80136e-07
5.55755e-06
3.77258e-07
5.48353e-06
3.68063e-07
5.41377e-06
3.52747e-07
5.34892e-06
3.31831e-07
5.28951e-06
3.05985e-07
5.23599e-06
2.75917e-07
5.18883e-06
2.42283e-07
5.14854e-06
2.05575e-07
5.11562e-06
1.66018e-07
5.09059e-06
1.23596e-07
5.07385e-06
7.8255e-08
5.06533e-06
3.02659e-08
5.06678e-06
-1.93958e-08
5.0781e-06
-7.05509e-08
5.09966e-06
-1.22182e-07
5.13138e-06
-1.72736e-07
5.17297e-06
-2.20668e-07
5.22389e-06
-2.64569e-07
5.2836e-06
-3.0363e-07
5.3517e-06
-3.37527e-07
5.42784e-06
-3.65985e-07
5.51086e-06
-3.87409e-07
5.59839e-06
-3.99946e-07
5.68946e-06
-4.05666e-07
5.78292e-06
-4.04864e-07
5.87788e-06
-3.98652e-07
5.97292e-06
-3.87227e-07
6.06672e-06
-3.71387e-07
6.15845e-06
-3.5228e-07
6.24728e-06
-3.30417e-07
6.33219e-06
-3.06013e-07
6.41223e-06
-2.79572e-07
6.48674e-06
-2.51869e-07