/*--------------------------------*- C++ -*----------------------------------*\
| =========                 |                                                 |
| \\      /  F ield         | OpenFOAM: The Open Source CFD Toolbox           |
|  \\    /   O peration     | Version:  2206                                  |
|   \\  /    A nd           | Website:  www.openfoam.com                      |
|    \\/     M anipulation  |                                                 |
\*---------------------------------------------------------------------------*/
FoamFile
{
    version     2.0;
    format      ascii;
    arch        "LSB;label=32;scalar=64";
    class       volVectorField;
    location    "19.8";
    object      ddtCorrDdt0(U);
}
// * * * * * * * * * * * * * * * * * * * * * * * * * * * * * * * * * * * * * //

dimensions      [0 1 -2 0 0 0 0];

internalField   nonuniform List<vector> 
4796
(
(-9.70566 -14.151 0)
(-2.55547 -32.9824 0)
(11.5704 -42.8924 0)
(30.5248 -44.7035 0)
(50.9827 -38.0262 0)
(71.8831 -24.6878 0)
(88.991 -8.04024 0)
(101.209 8.52426 0)
(111.316 22.0692 0)
(123.978 35.0871 0)
(138.355 45.8895 0)
(159.101 49.5149 0)
(183.018 48.5999 0)
(199.296 53.283 0)
(174.793 76.3826 0)
(123.964 113.747 0)
(64.4661 150.439 0)
(18.2792 175.048 0)
(-13.6127 186.674 0)
(-28.6816 176.36 0)
(-34.7582 159.549 0)
(-38.823 140.341 0)
(-44.9829 118.316 0)
(-55.6082 91.417 0)
(-73.6353 56.1325 0)
(-100.705 9.01984 0)
(-133.312 -50.9394 0)
(-168.35 -120.162 0)
(-199.362 -194.867 0)
(-221.893 -263.834 0)
(-230.61 -312.74 0)
(-213.385 -321.808 0)
(-177.876 -298.717 0)
(-135.092 -257.957 0)
(-91.7902 -209.509 0)
(-52.2649 -161.135 0)
(-19.1444 -117.563 0)
(6.53831 -81.1066 0)
(26.9432 -52.466 0)
(44.3435 -27.3636 0)
(54.582 -7.27111 0)
(60.6417 4.68845 0)
(63.0755 11.6309 0)
(63.2609 15.5087 0)
(62.5823 17.3959 0)
(62.0162 18.1766 0)
(61.6709 18.5493 0)
(61.4287 19.2188 0)
(61.3545 20.3941 0)
(62.0341 21.2207 0)
(64.937 20.1564 0)
(71.3094 15.8255 0)
(80.495 9.38079 0)
(88.8198 5.93453 0)
(90.7211 12.0152 0)
(84.5909 30.7559 0)
(69.4091 61.0467 0)
(47.1283 98.1637 0)
(22.6948 133.03 0)
(4.15097 161.694 0)
(-22.9122 180.856 0)
(-36.2182 185.849 0)
(-45.792 178.637 0)
(-51.6409 165.011 0)
(-53.7778 147.097 0)
(-52.9288 126.962 0)
(-49.7326 106.469 0)
(-44.8246 87.1833 0)
(-38.7548 70.276 0)
(-31.9762 56.5119 0)
(-24.9338 46.2966 0)
(-18.104 39.4665 0)
(-12.0146 34.8702 0)
(-7.09133 30.5128 0)
(-4.1688 24.9362 0)
(-2.0743 17.9881 0)
(-1.48684 10.6545 0)
(-2.89896 -0.0120087 0)
(-6.58217 -30.7916 0)
(-11.1775 -58.704 0)
(-16.6205 -90.1807 0)
(-22.3874 -122.758 0)
(-27.7948 -153.33 0)
(-32.3974 -178.745 0)
(-35.627 -195.676 0)
(10.8764 -10.5568 0)
(23.3182 -45.7216 0)
(31.6028 -63.3083 0)
(44.9922 -70.8124 0)
(61.4824 -66.6851 0)
(82.7547 -51.8896 0)
(107.875 -33.023 0)
(131.898 -16.7823 0)
(157.904 -6.28389 0)
(186.345 3.2793 0)
(209.59 11.6366 0)
(212.019 26.5447 0)
(189.986 55.1527 0)
(139.488 99.1142 0)
(88.5199 142.038 0)
(41.0125 177.67 0)
(4.30606 200.368 0)
(-16.7245 208.649 0)
(-22.2446 195.777 0)
(-21.6112 179.732 0)
(-14.755 161.483 0)
(-6.01434 142.305 0)
(2.27786 122.294 0)
(6.74978 100.759 0)
(4.13285 75.5025 0)
(-10.6437 42.3271 0)
(-38.5784 -9.57582 0)
(-78.4112 -77.3147 0)
(-123.432 -156.014 0)
(-162.427 -236.153 0)
(-192.061 -301.993 0)
(-204.451 -338.916 0)
(-190.587 -333.31 0)
(-161.89 -301.268 0)
(-126.228 -254.688 0)
(-89.161 -203.206 0)
(-54.5113 -153.729 0)
(-24.7031 -109.909 0)
(-1.06047 -73.2718 0)
(17.043 -45.2622 0)
(34.637 -22.0556 0)
(45.0708 -2.90375 0)
(52.1586 8.38115 0)
(56.0755 14.3953 0)
(57.9222 17.2453 0)
(58.7803 18.2336 0)
(59.1803 18.6367 0)
(59.4637 19.2331 0)
(60.2293 19.5662 0)
(62.7687 18.1025 0)
(68.4975 13.3846 0)
(77.2927 5.90408 0)
(86.2967 0.116495 0)
(90.5026 2.70109 0)
(87.3967 17.7437 0)
(75.7427 45.926 0)
(57.5046 83.719 0)
(32.1014 123.705 0)
(12.924 158.996 0)
(-13.0004 186.447 0)
(-31.1667 200.626 0)
(-43.0718 197.932 0)
(-50.7495 186.219 0)
(-54.5035 168.393 0)
(-54.6992 146.816 0)
(-52.0406 123.766 0)
(-47.274 101.124 0)
(-41.0908 80.3782 0)
(-34.0728 62.5938 0)
(-26.6394 48.4027 0)
(-19.1654 38.1005 0)
(-11.97 31.5277 0)
(-5.20786 27.9173 0)
(0.743624 25.8457 0)
(4.96965 22.9057 0)
(6.53203 17.7284 0)
(7.76931 9.80904 0)
(7.87761 0.648521 0)
(5.76583 -26.5421 0)
(0.488381 -52.6712 0)
(-5.63109 -83.4832 0)
(-11.9735 -116.049 0)
(-18.3261 -147.115 0)
(-24.2544 -173.492 0)
(-29.2252 -192.113 0)
(12.9841 -42.444 0)
(27.2899 -57.62 0)
(35.5035 -70.0634 0)
(45.7345 -81.0221 0)
(58.6789 -84.4399 0)
(78.8761 -77.9231 0)
(102.411 -64.8913 0)
(127.734 -49.0784 0)
(146.225 -31.6081 0)
(149.848 -6.25703 0)
(138.788 25.8776 0)
(117.472 68.2063 0)
(85.1273 106.992 0)
(45.1409 151.575 0)
(17.2659 190.02 0)
(-15.9797 216.959 0)
(-34.6527 222.854 0)
(-37.7353 210.559 0)
(-33.9714 189.929 0)
(-23.0089 168.03 0)
(-8.26923 146.1 0)
(8.64741 126.287 0)
(25.7447 109.442 0)
(39.9722 94.9221 0)
(48.6753 78.8088 0)
(51.0372 56.8014 0)
(40.6505 27.3453 0)
(17.6855 -25.2238 0)
(-32.1598 -103.432 0)
(-83.2066 -188.028 0)
(-128.896 -266.893 0)
(-162.966 -323.782 0)
(-176.416 -345.143 0)
(-166.776 -328.474 0)
(-144.31 -290.329 0)
(-115.254 -241.308 0)
(-84.1025 -189.94 0)
(-54.2881 -141.844 0)
(-27.987 -100.064 0)
(-6.21356 -65.3843 0)
(9.5412 -37.705 0)
(25.291 -16.7417 0)
(36.5482 -0.718082 0)
(44.8754 9.4769 0)
(50.2028 14.297 0)
(53.0865 16.6754 0)
(54.6821 17.8109 0)
(56.0352 18.0998 0)
(58.5554 16.6571 0)
(63.7331 11.9893 0)
(71.9622 3.92916 0)
(81.2088 -4.02688 0)
(87.5043 -5.48701 0)
(87.0705 4.5735 0)
(79.875 28.7939 0)
(64.8222 65.0576 0)
(43.7578 107.495 0)
(20.8979 149.309 0)
(-3.62967 185.142 0)
(-24.973 208.883 0)
(-40.3428 215.754 0)
(-49.7701 207.795 0)
(-55.0851 191.478 0)
(-56.4893 169.394 0)
(-54.4716 144.306 0)
(-49.8784 118.62 0)
(-43.5222 94.1715 0)
(-36.1367 72.3458 0)
(-28.2763 54.02 0)
(-20.3265 39.7233 0)
(-12.6681 29.7357 0)
(-5.56721 23.7059 0)
(1.29627 20.8503 0)
(7.74417 19.281 0)
(13.1941 18.1 0)
(16.252 15.6764 0)
(17.6217 10.1711 0)
(17.9702 -1.17346 0)
(16.1365 -20.5575 0)
(11.1595 -46.2049 0)
(4.96224 -76.3615 0)
(-1.83657 -108.572 0)
(-9.00807 -139.707 0)
(-16.0793 -166.675 0)
(-22.5148 -186.581 0)
(7.25623 -56.9958 0)
(16.7118 -69.1037 0)
(21.5556 -78.8743 0)
(25.114 -88.7377 0)
(29.0802 -92.7112 0)
(35.7729 -88.3146 0)
(42.5445 -76.2634 0)
(47.4968 -56.5172 0)
(49.1338 -29.7324 0)
(46.6098 7.3307 0)
(42.3815 36.8381 0)
(30.886 78.5219 0)
(14.8432 141.274 0)
(-13.858 187.418 0)
(-44.3453 220.04 0)
(-57.5123 229.49 0)
(-57.0447 221.042 0)
(-50.3236 200.191 0)
(-40.4105 175.794 0)
(-25.0577 148.824 0)
(-5.74203 122.917 0)
(16.8337 100.971 0)
(41.0153 85.087 0)
(64.2363 75.7876 0)
(82.3248 67.5076 0)
(92.1052 51.5647 0)
(88.613 32.3718 0)
(73.8969 10.657 0)
(50.6181 -50.3365 0)
(3.23535 -129.333 0)
(-55.7043 -212.954 0)
(-103.878 -285.759 0)
(-138.048 -329.845 0)
(-150.574 -335.585 0)
(-144.542 -311.197 0)
(-127.44 -270.333 0)
(-103.736 -221.812 0)
(-77.6612 -172.822 0)
(-52.273 -127.655 0)
(-29.6061 -88.3989 0)
(-10.3911 -56.133 0)
(5.14184 -31.9773 0)
(17.6528 -14.5325 0)
(30.0206 -1.41136 0)
(39.1326 8.56901 0)
(44.8431 13.0186 0)
(48.0669 15.2359 0)
(51.3325 14.8864 0)
(56.5078 10.9311 0)
(64.2898 3.12715 0)
(73.5412 -6.0669 0)
(81.2817 -11.2386 0)
(83.6444 -6.71369 0)
(80.2643 11.3657 0)
(69.2687 43.35 0)
(51.9443 85.6149 0)
(29.5273 132.846 0)
(5.49181 176.691 0)
(-17.6062 210.106 0)
(-36.471 228.292 0)
(-48.6946 227.772 0)
(-55.5818 214.933 0)
(-58.2737 193.879 0)
(-57.0427 167.677 0)
(-52.6663 139.378 0)
(-46.1162 111.459 0)
(-38.2539 85.6563 0)
(-29.8508 63.2646 0)
(-21.4278 44.8873 0)
(-13.3617 30.8358 0)
(-6.02925 21.2602 0)
(1.08077 16.0657 0)
(8.62587 13.0924 0)
(15.1676 12.3951 0)
(20.6017 13.0399 0)
(24.4918 12.6367 0)
(26.6651 9.01942 0)
(27.1626 -0.0331231 0)
(25.3524 -16.8671 0)
(21.1334 -40.5021 0)
(15.0527 -69.1346 0)
(7.79888 -100.426 0)
(-0.106951 -131.269 0)
(-8.15643 -158.501 0)
(-15.8183 -179.291 0)
(2.38351 -63.5079 0)
(5.07406 -74.454 0)
(6.4674 -83.438 0)
(6.64286 -91.834 0)
(6.40071 -95.1864 0)
(5.67092 -90.156 0)
(4.84779 -78.6412 0)
(5.18637 -58.5354 0)
(7.26312 -31.0371 0)
(10.0829 8.30302 0)
(3.36975 49.7132 0)
(-18.9991 117.793 0)
(-52.6657 167.518 0)
(-70.083 208.763 0)
(-79.5253 229.226 0)
(-76.9001 229.894 0)
(-68.5413 214.178 0)
(-58.5822 189.302 0)
(-44.57 159.536 0)
(-27.649 127.946 0)
(-8.07805 98.0186 0)
(13.3281 72.6294 0)
(37.2091 53.153 0)
(63.6966 42.8141 0)
(94.182 45.7766 0)
(121.888 51.7174 0)
(132.295 39.8433 0)
(126.452 21.1157 0)
(102.914 -18.0178 0)
(72.1182 -74.9317 0)
(26.3146 -149.377 0)
(-39.4934 -229.799 0)
(-85.948 -292.504 0)
(-117.631 -322.103 0)
(-128.38 -314.733 0)
(-124.92 -286.311 0)
(-111.964 -245.43 0)
(-92.7828 -199.309 0)
(-71.1583 -153.788 0)
(-49.7309 -112.398 0)
(-29.9358 -77.0807 0)
(-12.6572 -48.4492 0)
(2.28923 -28.3118 0)
(13.0519 -13.9662 0)
(24.2304 -3.74633 0)
(33.5639 7.75955 0)
(40.2148 10.4675 0)
(46.4431 8.59475 0)
(54.2832 2.18876 0)
(63.516 -7.04524 0)
(72.1273 -14.8703 0)
(76.9808 -15.5184 0)
(76.378 -4.33395 0)
(69.9663 21.3644 0)
(56.0412 60.21 0)
(36.2041 108.904 0)
(13.1261 159.306 0)
(-10.4852 202.554 0)
(-31.6264 232.411 0)
(-47.3128 243.986 0)
(-56.1957 236.952 0)
(-60.1887 218.896 0)
(-59.8585 193.144 0)
(-55.7596 163.09 0)
(-48.9855 132.03 0)
(-40.6017 102.459 0)
(-31.4529 75.8858 0)
(-22.3673 53.4992 0)
(-13.7453 35.5998 0)
(-6.01807 22.2805 0)
(1.05374 13.5618 0)
(9.00923 7.39173 0)
(15.9901 4.98989 0)
(22.2561 5.71664 0)
(27.5424 7.78948 0)
(31.6415 9.07368 0)
(34.3064 7.29703 0)
(35.2453 0.25793 0)
(33.9933 -13.7136 0)
(30.1913 -34.7041 0)
(24.273 -61.5897 0)
(16.718 -91.6864 0)
(8.20016 -121.927 0)
(-0.672129 -149.165 0)
(-9.35642 -170.644 0)
(15.9022 -111.863 0)
(6.30912 -138.893 0)
(-3.24428 -160.802 0)
(0.569218 -0.00628386 0)
(0.558339 -0.0133866 0)
(0.56179 -0.0237263 0)
(0.578581 -0.0362565 0)
(0.609997 -0.0484057 0)
(0.657822 -0.05875 0)
(0.722081 -0.0666886 0)
(0.800519 -0.0711391 0)
(0.890865 -0.0715589 0)
(0.988268 -0.0660279 0)
(1.08576 -0.0519116 0)
(1.18187 -0.040181 0)
(1.26623 -0.0178457 0)
(1.32731 0.016945 0)
(1.35732 0.0542323 0)
(1.35296 0.088943 0)
(1.312 0.117519 0)
(1.2316 0.138103 0)
(1.12145 0.152149 0)
(0.953036 0.15079 0)
(0.791517 0.123775 0)
(0.637212 0.0783356 0)
(0.494175 0.0313107 0)
(0.373488 -0.00858008 0)
(0.279288 -0.0380921 0)
(0.21004 -0.0562041 0)
(0.163337 -0.0632494 0)
(0.136375 -0.0605485 0)
(0.125255 -0.0500063 0)
(0.12535 -0.0338866 0)
(0.13184 -0.0143696 0)
(0.140119 0.00759799 0)
(0.145499 0.0311578 0)
(0.144196 0.0530429 0)
(0.133337 0.0714553 0)
(0.111249 0.0850506 0)
(0.0774249 0.0927846 0)
(0.0327326 0.0937172 0)
(-0.020935 0.0869595 0)
(-0.0790692 0.069723 0)
(-0.134987 0.0403973 0)
(-0.18244 0.00597112 0)
(-0.216366 -0.0256804 0)
(-0.235504 -0.0497251 0)
(-0.241554 -0.0625104 0)
(-0.239185 -0.06026 0)
(-0.236829 -0.0402304 0)
(-0.246113 -0.00227687 0)
(-0.281151 0.0505265 0)
(-0.357081 0.112419 0)
(-0.486061 0.175352 0)
(-0.68051 0.229574 0)
(-0.958521 0.260784 0)
(-1.26569 0.261369 0)
(-1.60682 0.243332 0)
(-1.94747 0.212867 0)
(-2.27365 0.181243 0)
(-2.58129 0.157565 0)
(-2.86477 0.146034 0)
(-3.12247 0.132501 0)
(0.684106 0.0370727 0)
(0.64959 0.0157595 0)
(0.619081 0.00213803 0)
(0.595583 -0.0203528 0)
(0.581156 -0.0455481 0)
(0.576992 -0.0712732 0)
(0.584329 -0.0964559 0)
(0.60334 -0.11973 0)
(0.634609 -0.13917 0)
(0.680329 -0.152845 0)
(0.729714 -0.158488 0)
(0.7888 -0.153777 0)
(0.861251 -0.138657 0)
(0.936968 -0.113038 0)
(1.00626 -0.0758819 0)
(1.06715 -0.0278518 0)
(1.12215 0.0279153 0)
(1.17046 0.0865585 0)
(1.20397 0.144419 0)
(1.23202 0.195161 0)
(1.23327 0.230756 0)
(1.20169 0.248248 0)
(1.13607 0.249718 0)
(1.04008 0.237898 0)
(0.919743 0.215732 0)
(0.781586 0.186088 0)
(0.632564 0.151604 0)
(0.47988 0.114935 0)
(0.330264 0.0789407 0)
(0.189509 0.0462451 0)
(0.0622086 0.0190958 0)
(-0.0479027 -0.00184808 0)
(-0.138099 -0.0158854 0)
(-0.206232 -0.0228552 0)
(-0.251406 -0.0230019 0)
(-0.274013 -0.017015 0)
(-0.275618 -0.00592461 0)
(-0.25898 0.0089751 0)
(-0.227896 0.0261172 0)
(-0.189286 0.0439886 0)
(-0.147429 0.0604416 0)
(-0.121396 0.0729587 0)
(-0.116879 0.0810801 0)
(-0.141286 0.0857057 0)
(-0.202011 0.0891302 0)
(-0.302072 0.0946915 0)
(-0.443172 0.106299 0)
(-0.621638 0.12819 0)
(-0.830841 0.16408 0)
(-1.06147 0.21597 0)
(-1.2982 0.282802 0)
(-1.52634 0.357916 0)
(-1.72676 0.429711 0)
(-1.91122 0.478952 0)
(-2.07992 0.502259 0)
(-2.24519 0.500509 0)
(-2.41815 0.482204 0)
(-2.58737 0.458014 0)
(-2.74849 0.43369 0)
(-2.89967 0.399099 0)
(0.795686 0.0835277 0)
(0.75206 0.066514 0)
(0.705279 0.0436018 0)
(0.660129 0.015047 0)
(0.61908 -0.017719 0)
(0.583369 -0.0528189 0)
(0.554514 -0.0887467 0)
(0.534019 -0.12203 0)
(0.5237 -0.154271 0)
(0.524404 -0.185944 0)
(0.535509 -0.158894 0)
(0.561291 -0.226517 0)
(0.597128 -0.197526 0)
(0.644237 -0.157592 0)
(0.702685 -0.117443 0)
(0.76906 -0.06996 0)
(0.841984 -0.0304057 0)
(0.917214 0.0243431 0)
(0.991324 0.0813469 0)
(1.05983 0.13482 0)
(1.11743 0.181298 0)
(1.15865 0.218573 0)
(1.17878 0.246034 0)
(1.17533 0.264224 0)
(1.14748 0.274331 0)
(1.09546 0.277274 0)
(1.02113 0.27374 0)
(0.928016 0.264444 0)
(0.820434 0.250288 0)
(0.702618 0.232356 0)
(0.578598 0.211675 0)
(0.452468 0.189145 0)
(0.328252 0.165629 0)
(0.209611 0.141802 0)
(0.0994833 0.1182 0)
(-8.74861e-05 0.0953123 0)
(-0.0879385 0.0737104 0)
(-0.163994 0.0540776 0)
(-0.228818 0.0373453 0)
(-0.285097 0.0246682 0)
(-0.333623 0.0181713 0)
(-0.378502 0.0205669 0)
(-0.424268 0.0344213 0)
(-0.475735 0.0618389 0)
(-0.53799 0.104161 0)
(-0.615837 0.161552 0)
(-0.713327 0.232651 0)
(-0.833181 0.314352 0)
(-0.976265 0.401946 0)
(-1.14106 0.489252 0)
(-1.32363 0.568805 0)
(-1.51833 0.632658 0)
(-1.71699 0.672786 0)
(-1.91147 0.686697 0)
(-2.09383 0.675978 0)
(-2.25495 0.6411 0)
(-2.38383 0.587877 0)
(-2.46759 0.521236 0)
(-2.49707 0.44494 0)
(-2.45685 0.362582 0)
(0.856336 0.134963 0)
(0.806196 0.120093 0)
(0.751154 0.0989985 0)
(0.695747 0.0707655 0)
(0.642924 0.0359448 0)
(0.594067 -0.00364868 0)
(0.550516 -0.0461968 0)
(0.51442 -0.0892984 0)
(0.487789 -0.130521 0)
(0.469069 -0.167003 0)
(0.466829 -0.196102 0)
(0.480666 -0.215703 0)
(0.49899 -0.22368 0)
(0.530044 -0.218048 0)
(0.580129 -0.198551 0)
(0.645624 -0.165807 0)
(0.719337 -0.121187 0)
(0.796667 -0.0685848 0)
(0.876112 -0.0110764 0)
(0.954489 0.0485344 0)
(1.02717 0.107169 0)
(1.08943 0.161837 0)
(1.13724 0.210436 0)
(1.16795 0.253129 0)
(1.17931 0.289886 0)
(1.16968 0.318068 0)
(1.13924 0.336004 0)
(1.09114 0.344428 0)
(1.02615 0.34489 0)
(0.947609 0.338649 0)
(0.858368 0.326424 0)
(0.761368 0.308938 0)
(0.659562 0.28722 0)
(0.555613 0.262488 0)
(0.451736 0.236045 0)
(0.349628 0.209282 0)
(0.25041 0.183674 0)
(0.154562 0.160734 0)
(0.0619878 0.141944 0)
(-0.027979 0.128982 0)
(-0.116608 0.12386 0)
(-0.205293 0.128772 0)
(-0.295127 0.145817 0)
(-0.386915 0.176638 0)
(-0.481152 0.222228 0)
(-0.577944 0.282704 0)
(-0.677025 0.356941 0)
(-0.777829 0.442273 0)
(-0.879633 0.534463 0)
(-0.981803 0.627827 0)
(-1.0841 0.715199 0)
(-1.18687 0.788465 0)
(-1.2909 0.839848 0)
(-1.39763 0.863293 0)
(-1.50783 0.855451 0)
(-1.6212 0.815882 0)
(-1.73602 0.745982 0)
(-1.84886 0.648024 0)
(-1.95335 0.525031 0)
(-2.04596 0.380671 0)
(0.853916 0.195273 0)
(0.799367 0.182943 0)
(0.74029 0.162342 0)
(0.678941 0.133268 0)
(0.619783 0.0958578 0)
(0.564592 0.0513377 0)
(0.515409 0.00153474 0)
(0.47456 -0.0512308 0)
(0.444001 -0.103439 0)
(0.425618 -0.153897 0)
(0.421825 -0.194752 0)
(0.432373 -0.235843 0)
(0.456557 -0.260795 0)
(0.496284 -0.263931 0)
(0.552207 -0.254316 0)
(0.62045 -0.232155 0)
(0.69582 -0.197977 0)
(0.775534 -0.151735 0)
(0.857837 -0.0954799 0)
(0.938852 -0.0323533 0)
(1.0136 0.0342277 0)
(1.07822 0.100919 0)
(1.12995 0.162493 0)
(1.16577 0.219742 0)
(1.18503 0.276453 0)
(1.18306 0.327733 0)
(1.16214 0.367287 0)
(1.12659 0.3935 0)
(1.07829 0.408352 0)
(1.01874 0.414196 0)
(0.949289 0.411921 0)
(0.872293 0.402173 0)
(0.790317 0.386072 0)
(0.705417 0.365048 0)
(0.619151 0.340649 0)
(0.532715 0.314562 0)
(0.446918 0.288715 0)
(0.361869 0.265146 0)
(0.277935 0.246064 0)
(0.192203 0.23322 0)
(0.106881 0.22854 0)
(0.0203802 0.23455 0)
(-0.0679803 0.253225 0)
(-0.158246 0.28564 0)
(-0.249845 0.332268 0)
(-0.3418 0.392926 0)
(-0.433004 0.466171 0)
(-0.522263 0.549241 0)
(-0.608439 0.637721 0)
(-0.690948 0.72671 0)
(-0.770815 0.810529 0)
(-0.849906 0.881829 0)
(-0.930738 0.933535 0)
(-1.01651 0.960188 0)
(-1.11053 0.958554 0)
(-1.2161 0.927171 0)
(-1.33603 0.86622 0)
(-1.47179 0.777192 0)
(-1.62336 0.662529 0)
(-1.79019 0.52509 0)
(0.875461 0.270918 0)
(0.806444 0.260982 0)
(0.732439 0.239584 0)
(0.657247 0.207963 0)
(0.584229 0.165061 0)
(0.518164 0.115219 0)
(0.459059 0.0540164 0)
(0.412033 -0.00988992 0)
(0.378361 -0.0762865 0)
(0.359878 -0.14405 0)
(0.359543 -0.20215 0)
(0.376512 -0.257634 0)
(0.410854 -0.300172 0)
(0.461021 -0.320622 0)
(0.53001 -0.33334 0)
(0.612563 -0.322954 0)
(0.703552 -0.293507 0)
(0.801219 -0.254583 0)
(0.898173 -0.197487 0)
(0.989901 -0.127244 0)
(1.07186 -0.0486506 0)
(1.13941 0.0343114 0)
(1.19332 0.118068 0)
(1.20283 0.197312 0)
(1.21682 0.270052 0)
(1.22044 0.335148 0)
(1.20491 0.390828 0)
(1.17387 0.435359 0)
(1.12251 0.467312 0)
(1.06149 0.486513 0)
(0.992057 0.493651 0)
(0.916538 0.490026 0)
(0.837683 0.477309 0)
(0.757623 0.457422 0)
(0.677728 0.432549 0)
(0.598868 0.405102 0)
(0.521446 0.377698 0)
(0.4459 0.352759 0)
(0.371326 0.33343 0)
(0.298574 0.321337 0)
(0.225697 0.317583 0)
(0.153526 0.32521 0)
(0.0810213 0.346108 0)
(0.00766611 0.380533 0)
(-0.0661522 0.428267 0)
(-0.139829 0.48913 0)
(-0.212799 0.561286 0)
(-0.28528 0.641869 0)
(-0.354859 0.727767 0)
(-0.429649 0.813725 0)
(-0.49812 0.894866 0)
(-0.568088 0.966315 0)
(-0.643099 1.02187 0)
(-0.726294 1.05661 0)
(-0.821606 1.0685 0)
(-0.933575 1.05635 0)
(-1.06646 1.01912 0)
(-1.22363 0.956705 0)
(-1.40782 0.870452 0)
(-1.62086 0.762005 0)
(0.874872 0.347195 0)
(0.792923 0.34434 0)
(0.706311 0.327552 0)
(0.618392 0.296603 0)
(0.532431 0.249882 0)
(0.45423 0.191336 0)
(0.38604 0.119105 0)
(0.332319 0.0388252 0)
(0.296145 -0.0457731 0)
(0.279269 -0.133311 0)
(0.284338 -0.215415 0)
(0.311576 -0.291454 0)
(0.359851 -0.354432 0)
(0.428086 -0.398354 0)
(0.514196 -0.423792 0)
(0.61344 -0.427364 0)
(0.721269 -0.407816 0)
(0.832726 -0.367148 0)
(0.941501 -0.305841 0)
(1.04166 -0.225851 0)
(1.13155 -0.135023 0)
(1.20473 -0.034283 0)
(1.26073 0.0724959 0)
(1.29768 0.178561 0)
(1.3115 0.273048 0)
(1.30107 0.354586 0)
(1.27041 0.425351 0)
(1.22496 0.484676 0)
(1.16781 0.530193 0)
(1.10092 0.55975 0)
(1.02644 0.573852 0)
(0.947187 0.574476 0)
(0.865944 0.56393 0)
(0.785028 0.544604 0)
(0.706227 0.518997 0)
(0.630821 0.48977 0)
(0.558992 0.459754 0)
(0.49194 0.432012 0)
(0.425154 0.409499 0)
(0.372324 0.395133 0)
(0.311293 0.390864 0)
(0.252121 0.398518 0)
(0.195257 0.41949 0)
(0.137656 0.454231 0)
(0.0784832 0.502133 0)
(0.0177975 0.563024 0)
(-0.0430746 0.635417 0)
(-0.10618 0.715777 0)
(-0.170449 0.802259 0)
(-0.235786 0.89026 0)
(-0.306333 0.974031 0)
(-0.381047 1.05132 0)
(-0.464592 1.1165 0)
(-0.559592 1.16415 0)
(-0.667947 1.19281 0)
(-0.79509 1.20148 0)
(-0.945438 1.18939 0)
(-1.12252 1.15599 0)
(-1.32822 1.10144 0)
(-1.56326 1.02885 0)
(0.884052 0.443419 0)
(0.785242 0.449202 0)
(0.680114 0.436389 0)
(0.573183 0.404049 0)
(0.46897 0.350794 0)
(0.374045 0.280331 0)
(0.292475 0.192154 0)
(0.229218 0.0916384 0)
(0.18816 -0.0167326 0)
(0.171739 -0.130451 0)
(0.182548 -0.240266 0)
(0.221202 -0.342383 0)
(0.287272 -0.430959 0)
(0.378092 -0.498304 0)
(0.489665 -0.542542 0)
(0.616419 -0.558384 0)
(0.751882 -0.544205 0)
(0.889542 -0.502436 0)
(1.02125 -0.432935 0)
(1.14079 -0.340109 0)
(1.24358 -0.229994 0)
(1.32361 -0.106668 0)
(1.37899 0.0224216 0)
(1.40941 0.149391 0)
(1.41412 0.268529 0)
(1.39324 0.376958 0)
(1.34951 0.471906 0)
(1.28749 0.550031 0)
(1.2121 0.608661 0)
(1.12776 0.647042 0)
(1.03834 0.66648 0)
(0.947472 0.669277 0)
(0.858802 0.65785 0)
(0.775121 0.634792 0)
(0.69807 0.603778 0)
(0.627708 0.569033 0)
(0.563005 0.534121 0)
(0.504161 0.501761 0)
(0.450796 0.474358 0)
(0.404889 0.454479 0)
(0.359715 0.448734 0)
(0.319485 0.45548 0)
(0.278648 0.476356 0)
(0.23807 0.51099 0)
(0.196115 0.559884 0)
(0.146869 0.624212 0)
(0.101528 0.69682 0)
(0.0467665 0.780989 0)
(-0.0139274 0.871789 0)
(-0.0716578 0.961798 0)
(-0.146369 1.05292 0)
(-0.221651 1.13925 0)
(-0.303286 1.21758 0)
(-0.411984 1.28423 0)
(-0.535485 1.33667 0)
(-0.68008 1.37267 0)
(-0.852002 1.39114 0)
(-1.0537 1.39185 0)
(-1.28671 1.37266 0)
(-1.55214 1.33343 0)
(0.90455 0.559738 0)
(0.784484 0.575665 0)
(0.655522 0.567862 0)
(0.523565 0.534442 0)
(0.39498 0.474061 0)
(0.277197 0.3889 0)
(0.176713 0.28144 0)
(0.0989523 0.155292 0)
(0.0491285 0.0170262 0)
(0.0311467 -0.128099 0)
(0.0478453 -0.273194 0)
(0.100123 -0.411195 0)
(0.186278 -0.534181 0)
(0.303474 -0.627102 0)
(0.447872 -0.691987 0)
(0.611532 -0.722593 0)
(0.784584 -0.714889 0)
(0.958058 -0.669461 0)
(1.12249 -0.588108 0)
(1.26958 -0.475824 0)
(1.39221 -0.339381 0)
(1.48457 -0.186099 0)
(1.54406 -0.0249406 0)
(1.56962 0.135834 0)
(1.56191 0.288541 0)
(1.52306 0.426711 0)
(1.45717 0.545281 0)
(1.37017 0.640622 0)
(1.26856 0.710762 0)
(1.15854 0.755654 0)
(1.04567 0.776977 0)
(0.934962 0.77705 0)
(0.830442 0.758833 0)
(0.735439 0.726706 0)
(0.651918 0.685918 0)
(0.579611 0.642065 0)
(0.519818 0.597927 0)
(0.47033 0.556468 0)
(0.432279 0.520519 0)
(0.401761 0.495918 0)
(0.375019 0.48661 0)
(0.355009 0.491016 0)
(0.329692 0.513754 0)
(0.308968 0.550029 0)
(0.280685 0.604571 0)
(0.249132 0.673057 0)
(0.214412 0.752326 0)
(0.169003 0.844095 0)
(0.118309 0.941128 0)
(0.0611061 1.04018 0)
(-0.0121451 1.14299 0)
(-0.0938114 1.23955 0)
(-0.19014 1.32966 0)
(-0.303459 1.41406 0)
(-0.434118 1.4889 0)
(-0.587163 1.55213 0)
(-0.768294 1.60275 0)
(-0.978633 1.63713 0)
(-1.21557 1.65267 0)
(-1.4977 1.65922 0)
(0.940007 0.700344 0)
(0.793627 0.730049 0)
(0.634613 0.730543 0)
(0.470033 0.697133 0)
(0.308428 0.627428 0)
(0.16041 0.525872 0)
(0.0330554 0.392005 0)
(-0.0657318 0.234633 0)
(-0.12994 0.0585488 0)
(-0.153149 -0.12966 0)
(-0.130824 -0.319415 0)
(-0.0620729 -0.499458 0)
(0.0502618 -0.659933 0)
(0.201484 -0.795156 0)
(0.385052 -0.890172 0)
(0.592987 -0.935457 0)
(0.814918 -0.933594 0)
(1.03639 -0.881646 0)
(1.24426 -0.782227 0)
(1.42756 -0.642126 0)
(1.57694 -0.470001 0)
(1.68578 -0.276208 0)
(1.75059 -0.0719322 0)
(1.77062 0.131641 0)
(1.74759 0.324429 0)
(1.68589 0.497715 0)
(1.59183 0.644982 0)
(1.47323 0.761658 0)
(1.3385 0.845443 0)
(1.19601 0.896268 0)
(1.05303 0.916548 0)
(0.916041 0.910068 0)
(0.790692 0.88074 0)
(0.680747 0.834082 0)
(0.587525 0.777587 0)
(0.511107 0.717513 0)
(0.452415 0.657219 0)
(0.41133 0.600072 0)
(0.387694 0.551391 0)
(0.375046 0.517977 0)
(0.370314 0.502255 0)
(0.369017 0.505354 0)
(0.367449 0.527304 0)
(0.365244 0.5668 0)
(0.356292 0.625399 0)
(0.342835 0.699392 0)
(0.320349 0.787711 0)
(0.286854 0.888096 0)
(0.243959 0.995644 0)
(0.187128 1.10906 0)
(0.116797 1.22488 0)
(0.0323475 1.3397 0)
(-0.0696063 1.45224 0)
(-0.189907 1.55978 0)
(-0.330253 1.6598 0)
(-0.493518 1.75135 0)
(-0.681479 1.83189 0)
(-0.895978 1.8987 0)
(-1.14255 1.95544 0)
(-1.42725 2.00675 0)
(0.995219 0.869835 0)
(0.817215 0.920624 0)
(0.619805 0.93367 0)
(0.411612 0.900818 0)
(0.20758 0.823765 0)
(0.0180814 0.697803 0)
(-0.145008 0.534431 0)
(-0.274124 0.338774 0)
(-0.360284 0.113536 0)
(-0.393177 -0.129702 0)
(-0.367166 -0.378031 0)
(-0.280496 -0.617081 0)
(-0.134646 -0.831137 0)
(0.0631467 -1.00562 0)
(0.300637 -1.13431 0)
(0.566693 -1.20989 0)
(0.847879 -1.21265 0)
(1.13081 -1.15133 0)
(1.3953 -1.0269 0)
(1.62556 -0.848169 0)
(1.80969 -0.627645 0)
(1.93934 -0.379283 0)
(2.01047 -0.118211 0)
(2.02279 0.140994 0)
(1.97981 0.384871 0)
(1.8882 0.602166 0)
(1.75691 0.784213 0)
(1.59656 0.925225 0)
(1.41866 1.02236 0)
(1.23414 1.07643 0)
(1.0528 1.09121 0)
(0.883448 1.07161 0)
(0.733105 1.02329 0)
(0.60588 0.954728 0)
(0.502055 0.876087 0)
(0.421473 0.793951 0)
(0.366502 0.70983 0)
(0.338231 0.628694 0)
(0.330712 0.561626 0)
(0.336725 0.516532 0)
(0.353799 0.494 0)
(0.376811 0.494608 0)
(0.399868 0.518549 0)
(0.419777 0.56375 0)
(0.43346 0.629191 0)
(0.439361 0.713186 0)
(0.433197 0.813883 0)
(0.413349 0.927826 0)
(0.378996 1.05111 0)
(0.328119 1.1809 0)
(0.260233 1.31445 0)
(0.172777 1.44938 0)
(0.0676143 1.58104 0)
(-0.0595162 1.70923 0)
(-0.20889 1.83271 0)
(-0.381624 1.94971 0)
(-0.579925 2.05883 0)
(-0.807147 2.16035 0)
(-1.06664 2.2559 0)
(-1.36232 2.34458 0)
(1.07761 1.0763 0)
(0.860906 1.15483 0)
(0.615236 1.18767 0)
(0.351889 1.16336 0)
(0.0896179 1.07037 0)
(-0.153259 0.918478 0)
(-0.365367 0.722456 0)
(-0.538645 0.476496 0)
(-0.656319 0.189133 0)
(-0.704907 -0.125037 0)
(-0.677029 -0.449244 0)
(-0.569888 -0.764467 0)
(-0.385199 -1.05037 0)
(-0.129735 -1.28615 0)
(0.181602 -1.45479 0)
(0.527826 -1.55211 0)
(0.89159 -1.57107 0)
(1.25237 -1.49485 0)
(1.59035 -1.33664 0)
(1.88138 -1.10594 0)
(2.10931 -0.820426 0)
(2.26419 -0.499571 0)
(2.34146 -0.163605 0)
(2.3419 0.167913 0)
(2.27116 0.477144 0)
(2.13884 0.749383 0)
(1.95752 0.973451 0)
(1.74182 1.14215 0)
(1.50707 1.25248 0)
(1.26791 1.30636 0)
(1.03771 1.30928 0)
(0.828084 1.26802 0)
(0.647829 1.19115 0)
(0.500249 1.0916 0)
(0.384052 0.982845 0)
(0.300947 0.869158 0)
(0.255776 0.750354 0)
(0.244107 0.639083 0)
(0.254977 0.551889 0)
(0.286805 0.491535 0)
(0.331195 0.458484 0)
(0.382256 0.454434 0)
(0.4348 0.479134 0)
(0.484151 0.529311 0)
(0.521916 0.604435 0)
(0.549348 0.701499 0)
(0.561111 0.818429 0)
(0.555343 0.950658 0)
(0.530868 1.09365 0)
(0.486521 1.24414 0)
(0.421182 1.39968 0)
(0.334684 1.55698 0)
(0.227348 1.71294 0)
(0.0966006 1.86736 0)
(-0.0578068 2.01864 0)
(-0.237128 2.16534 0)
(-0.443594 2.30685 0)
(-0.680022 2.44353 0)
(-0.948731 2.57561 0)
(-1.24848 2.70126 0)
(1.41785 1.17149 0)
(1.19598 1.32395 0)
(0.933831 1.44311 0)
(0.62874 1.51116 0)
(0.29176 1.49513 0)
(-0.0472785 1.3827 0)
(-0.358617 1.21188 0)
(-0.639991 0.972095 0)
(-0.873975 0.662947 0)
(-1.0364 0.296381 0)
(-1.10993 -0.109928 0)
(-1.08384 -0.533914 0)
(-0.952761 -0.949992 0)
(-0.718567 -1.3307 0)
(-0.390526 -1.64851 0)
(0.014512 -1.87735 0)
(0.468395 -2.0032 0)
(0.944316 -2.03207 0)
(1.41039 -1.93586 0)
(1.84518 -1.72919 0)
(2.21632 -1.42724 0)
(2.50047 -1.05372 0)
(2.68568 -0.636175 0)
(2.76768 -0.201812 0)
(2.74899 0.223246 0)
(2.63837 0.615771 0)
(2.44989 0.956568 0)
(2.20102 1.23161 0)
(1.91158 1.43197 0)
(1.60177 1.55468 0)
(1.29108 1.60279 0)
(0.997536 1.58434 0)
(0.737056 1.50914 0)
(0.520207 1.39122 0)
(0.348414 1.24954 0)
(0.219546 1.09948 0)
(0.139214 0.93963 0)
(0.110328 0.773585 0)
(0.115374 0.626922 0)
(0.155747 0.512641 0)
(0.221094 0.43206 0)
(0.301147 0.386624 0)
(0.388735 0.378212 0)
(0.476588 0.405989 0)
(0.558532 0.465634 0)
(0.627258 0.554273 0)
(0.678854 0.669527 0)
(0.711115 0.807159 0)
(0.720931 0.961767 0)
(0.70765 1.12846 0)
(0.670084 1.30386 0)
(0.608143 1.48446 0)
(0.523602 1.66665 0)
(0.414511 1.84904 0)
(0.281006 2.03019 0)
(0.123122 2.20884 0)
(-0.0601255 2.38457 0)
(-0.270811 2.55761 0)
(-0.511375 2.72885 0)
(-0.784864 2.89925 0)
(-1.09463 3.0691 0)
(1.6283 1.41525 0)
(1.36259 1.61987 0)
(1.04635 1.79903 0)
(0.669084 1.92192 0)
(0.239363 1.91883 0)
(-0.198027 1.7937 0)
(-0.605879 1.59581 0)
(-0.981392 1.30392 0)
(-1.29856 0.917343 0)
(-1.52497 0.449917 0)
(-1.6372 -0.076048 0)
(-1.61912 -0.631409 0)
(-1.46121 -1.18113 0)
(-1.1644 -1.68779 0)
(-0.741255 -2.11484 0)
(-0.2138 -2.42674 0)
(0.382553 -2.59626 0)
(1.00626 -2.62743 0)
(1.62098 -2.51496 0)
(2.18257 -2.23835 0)
(2.65842 -1.83739 0)
(3.0147 -1.34375 0)
(3.23634 -0.79586 0)
(3.32002 -0.230934 0)
(3.27104 0.316362 0)
(3.10328 0.81548 0)
(2.83698 1.24211 0)
(2.49666 1.57882 0)
(2.10869 1.81535 0)
(1.69932 1.94857 0)
(1.29439 1.98291 0)
(0.918714 1.92899 0)
(0.594349 1.80192 0)
(0.33339 1.62428 0)
(0.133389 1.42447 0)
(-0.00699599 1.21753 0)
(-0.0779312 0.99541 0)
(-0.0904443 0.773131 0)
(-0.0567843 0.583721 0)
(0.0239859 0.435323 0)
(0.133154 0.329735 0)
(0.259753 0.269954 0)
(0.393982 0.257616 0)
(0.525222 0.290328 0)
(0.647258 0.361803 0)
(0.752176 0.468384 0)
(0.832612 0.607715 0)
(0.888474 0.772179 0)
(0.916375 0.954987 0)
(0.914538 1.15113 0)
(0.884653 1.35539 0)
(0.827872 1.56375 0)
(0.742404 1.77541 0)
(0.632696 1.98609 0)
(0.497763 2.19467 0)
(0.33782 2.40148 0)
(0.152744 2.60751 0)
(-0.0590991 2.81331 0)
(-0.300114 3.02022 0)
(-0.573463 3.2294 0)
(-0.883224 3.44125 0)
(1.91331 1.70452 0)
(1.59367 1.97356 0)
(1.21429 2.23294 0)
(0.754066 2.43859 0)
(0.204932 2.46235 0)
(-0.364969 2.33002 0)
(-0.902062 2.10439 0)
(-1.40386 1.75129 0)
(-1.83567 1.26817 0)
(-2.15381 0.671362 0)
(-2.3249 -0.0113248 0)
(-2.32417 -0.74199 0)
(-2.13632 -1.47253 0)
(-1.76075 -2.15022 0)
(-1.21357 -2.72423 0)
(-0.524463 -3.14671 0)
(0.2603 -3.3762 0)
(1.08233 -3.40944 0)
(1.89555 -3.26145 0)
(2.62837 -2.88859 0)
(3.24228 -2.35161 0)
(3.6914 -1.69502 0)
(3.95686 -0.972232 0)
(4.03717 -0.234233 0)
(3.94236 0.472483 0)
(3.69321 1.10796 0)
(3.31925 1.64141 0)
(2.8555 2.05217 0)
(2.33738 2.32917 0)
(1.798 2.46979 0)
(1.2692 2.47885 0)
(0.783888 2.36952 0)
(0.374577 2.16639 0)
(0.0589986 1.90613 0)
(-0.168898 1.62801 0)
(-0.310711 1.34158 0)
(-0.36183 1.03422 0)
(-0.357739 0.740794 0)
(-0.27984 0.494544 0)
(-0.146785 0.302493 0)
(0.019059 0.167524 0)
(0.205764 0.0933431 0)
(0.398645 0.0804236 0)
(0.583781 0.124209 0)
(0.7555 0.213488 0)
(0.901418 0.345734 0)
(1.01598 0.517003 0)
(1.09857 0.715607 0)
(1.14598 0.933507 0)
(1.15626 1.16494 0)
(1.13461 1.4025 0)
(1.08114 1.64265 0)
(0.994585 1.8856 0)
(0.884689 2.12455 0)
(0.748081 2.36041 0)
(0.586804 2.5946 0)
(0.401863 2.82883 0)
(0.191952 3.06512 0)
(-0.0451698 3.30579 0)
(-0.313072 3.55341 0)
(-0.616958 3.8099 0)
(2.29738 2.04869 0)
(1.9107 2.39941 0)
(1.44951 2.75427 0)
(0.900361 3.08072 0)
(0.212178 3.16268 0)
(-0.536737 3.0305 0)
(-1.24945 2.77743 0)
(-1.92337 2.35551 0)
(-2.51479 1.75491 0)
(-2.96456 0.994303 0)
(-3.22563 0.109053 0)
(-3.25959 -0.852587 0)
(-3.04022 -1.82601 0)
(-2.56366 -2.7385 0)
(-1.8505 -3.51846 0)
(-0.941739 -4.09799 0)
(0.0991573 -4.41595 0)
(1.1904 -4.45938 0)
(2.27023 -4.25952 0)