/*--------------------------------*- C++ -*----------------------------------*\
| =========                 |                                                 |
| \\      /  F ield         | OpenFOAM: The Open Source CFD Toolbox           |
|  \\    /   O peration     | Version:  2206                                  |
|   \\  /    A nd           | Website:  www.openfoam.com                      |
|    \\/     M anipulation  |                                                 |
\*---------------------------------------------------------------------------*/
FoamFile
{
    version     2.0;
    format      ascii;
    arch        "LSB;label=32;scalar=64";
    class       volVectorField;
    location    "18.9999";
    object      ddtCorrDdt0(U);
}
// * * * * * * * * * * * * * * * * * * * * * * * * * * * * * * * * * * * * * //

dimensions      [0 1 -2 0 0 0 0];

internalField   nonuniform List<vector> 
3087
(
(-2.17455 44.2831 0)
(-5.71137 38.0445 0)
(-17.7157 32.0845 0)
(-30.0904 26.5153 0)
(-41.5976 19.4585 0)
(-53.2908 9.9928 0)
(-65.4799 -2.81424 0)
(-78.3246 -20.1518 0)
(-91.9344 -42.4909 0)
(-106.964 -70.3855 0)
(-125.38 -105.309 0)
(-148.502 -148.163 0)
(-167.37 -185.41 0)
(-155.094 -189.845 0)
(-121.176 -167.446 0)
(-83.0845 -134.799 0)
(-47.1873 -100.642 0)
(-17.1793 -70.2297 0)
(6.78061 -45.6657 0)
(22.6032 -27.2654 0)
(39.2541 -10.6343 0)
(50.1411 1.6769 0)
(58.1669 10.2732 0)
(63.2193 15.0334 0)
(65.3048 17.7985 0)
(65.9379 19.0054 0)
(66.0332 19.263 0)
(66.1578 19.5946 0)
(66.5013 20.167 0)
(67.5889 20.6178 0)
(69.0985 21.4483 0)
(69.2237 24.9814 0)
(67.5048 31.5983 0)
(67.6655 36.8637 0)
(78.5766 31.3972 0)
(105.3 10.7541 0)
(136.981 -11.7268 0)
(144.361 -9.91529 0)
(123.583 22.6399 0)
(78.939 76.7578 0)
(31.1504 127.392 0)
(-18.3504 172.798 0)
(-59.9513 199.904 0)
(-80.2858 201.372 0)
(-90.1108 185.942 0)
(-93.3613 164.086 0)
(-91.4272 138.939 0)
(-85.7003 113.058 0)
(-77.4299 88.369 0)
(-67.7652 66.195 0)
(-57.65 47.3361 0)
(-47.7884 32.137 0)
(-38.6465 20.6003 0)
(-30.455 12.5909 0)
(-23.2989 7.92193 0)
(-17.1725 6.37977 0)
(-12.1222 7.86481 0)
(-7.32762 13.6906 0)
(-1.38507 23.9479 0)
(3.32336 35.8339 0)
(6.26399 45.0749 0)
(5.54778 44.7022 0)
(3.2149 36.8889 0)
(1.46606 25.069 0)
(-1.15205 9.74232 0)
(-6.34634 -28.715 0)
(-12.1387 -79.0397 0)
(-17.4634 -127.156 0)
(-23.2704 -173.498 0)
(-29.4089 -213.588 0)
(-35.2705 -242.433 0)
(-38.9676 -253.265 0)
(-39.5514 -245.808 0)
(-37.8597 -226.997 0)
(-33.8346 -199.437 0)
(-27.9442 -166.554 0)
(-21.0106 -131.792 0)
(-13.6668 -97.8239 0)
(-6.68638 -66.2428 0)
(-0.818801 -38.4289 0)
(6.00423 -15.3712 0)
(13.6084 5.60603 0)
(21.8764 22.6226 0)
(28.2812 33.879 0)
(32.7676 39.6633 0)
(36.6273 40.9978 0)
(39.9999 38.8138 0)
(42.9195 33.9544 0)
(45.6473 27.2622 0)
(48.1338 19.2251 0)
(50.2278 10.8377 0)
(51.7927 3.76325 0)
(52.9169 -0.34346 0)
(53.4537 -0.225596 0)
(53.3966 4.86906 0)
(52.7187 14.7001 0)
(51.5968 27.8974 0)
(50.0356 42.6475 0)
(47.9098 57.4121 0)
(45.0155 71.2117 0)
(41.1246 83.613 0)
(36.0479 94.4993 0)
(29.6961 103.805 0)
(22.0948 111.34 0)
(13.4384 116.736 0)
(4.06246 119.44 0)
(-5.52807 118.871 0)
(-14.8374 115.524 0)
(-23.4795 109.387 0)
(-31.135 100.704 0)
(-37.5421 89.9356 0)
(-42.5375 77.6853 0)
(-46.0619 64.6142 0)
(-48.1496 51.3751 0)
(-48.9087 38.5604 0)
(-48.4835 26.6718 0)
(-47.0075 16.1089 0)
(-44.6126 7.19799 0)
(-41.5312 0.167352 0)
(-38.1232 -5.00349 0)
(-34.7867 -8.63801 0)
(-31.8432 -11.2638 0)
(-29.4927 -13.4274 0)
(-1.32783 48.9024 0)
(-8.7196 45.6818 0)
(-18.4747 41.5235 0)
(-28.6234 36.1612 0)
(-38.2816 29.3094 0)
(-48.2893 20.1714 0)
(-58.814 7.63933 0)
(-70.1909 -9.62432 0)
(-82.2474 -32.4838 0)
(-94.3635 -60.4198 0)
(-106.092 -92.3534 0)
(-119.727 -127.729 0)
(-137.691 -165.44 0)
(-153.69 -196.67 0)
(-144.347 -195.416 0)
(-117.693 -169.123 0)
(-86.6262 -134.531 0)
(-55.4583 -99.9842 0)
(-27.8101 -69.9047 0)
(-5.02097 -44.4922 0)
(14.1484 -25.8601 0)
(26.5849 -10.4325 0)
(39.7798 -0.902372 0)
(50.5264 11.0804 0)
(57.7739 15.497 0)
(61.5413 17.5748 0)
(63.5379 18.6494 0)
(64.7543 18.961 0)
(66.5035 18.876 0)
(68.7825 18.8041 0)
(70.0147 20.8604 0)
(69.5062 26.0805 0)
(70.265 30.6886 0)
(80.5738 25.8022 0)
(106.713 5.11279 0)
(140.114 -20.0093 0)
(151.583 -21.6239 0)
(134.113 9.07157 0)
(95.2428 65.9605 0)
(42.2078 123.877 0)
(1.57514 177.321 0)
(-53.755 214.741 0)
(-78.2979 225.521 0)
(-91.8803 212.774 0)
(-97.9099 190.589 0)
(-97.4634 163.045 0)
(-92.1564 133.537 0)
(-83.4987 104.706 0)
(-72.8926 78.3266 0)
(-61.5387 55.5104 0)
(-50.3174 36.7918 0)
(-39.7966 22.2976 0)
(-30.352 11.7964 0)
(-22.1315 4.82649 0)
(-15.0436 1.19126 0)
(-8.94476 0.87432 0)
(-3.65086 3.30202 0)
(-0.0585111 9.0103 0)
(5.35366 18.3853 0)
(10.8908 30.5816 0)
(16.0581 42.1683 0)
(18.1899 46.6829 0)
(16.3682 40.6356 0)
(13.3821 27.2327 0)
(12.027 12.0564 0)
(9.81766 -24.741 0)
(4.48956 -73.9325 0)
(-2.1558 -121.028 0)
(-9.08912 -167.006 0)
(-16.5343 -206.961 0)
(-24.3461 -236.246 0)
(-31.0216 -249.353 0)
(-35.0615 -244.252 0)
(-36.842 -227.931 0)
(-36.2126 -202.684 0)
(-33.3416 -171.595 0)
(-28.8098 -137.91 0)
(-23.2298 -104.213 0)
(-17.3204 -72.5375 0)
(-11.5616 -44.4327 0)
(-6.20819 -20.8256 0)
(0.106074 -3.74048 0)
(9.22073 14.6924 0)
(16.6996 28.4789 0)
(21.7203 35.0267 0)
(26.131 37.0038 0)
(30.2139 35.2566 0)
(33.8397 30.7122 0)
(37.2354 24.3451 0)
(40.3474 16.6773 0)
(42.8916 8.70356 0)
(45.0484 2.12931 0)
(46.6974 -1.45262 0)
(47.7403 -0.735581 0)
(48.1975 4.93977 0)
(48.1681 15.2375 0)
(47.7286 28.8639 0)
(46.8365 44.1459 0)
(45.3289 59.6208 0)
(42.9687 74.3587 0)
(39.5086 87.9116 0)
(34.7601 100.083 0)
(28.6474 110.69 0)
(21.2323 119.402 0)
(12.7273 125.717 0)
(3.49526 128.943 0)
(-5.88991 128.26 0)
(-14.913 124.407 0)
(-23.1792 117.398 0)
(-30.3701 107.544 0)
(-36.23 95.3983 0)
(-40.6069 81.6678 0)
(-43.46 67.1185 0)
(-44.8564 52.4908 0)
(-44.9596 38.4331 0)
(-43.9795 25.4506 0)
(-42.057 13.9136 0)
(-39.2079 4.16798 0)
(-35.5508 -3.40145 0)
(-31.4875 -8.69389 0)
(-27.529 -12.0576 0)
(-24.0807 -14.1632 0)
(-21.363 -15.7007 0)
(-2.40074 54.4791 0)
(-8.2631 53.7793 0)
(-16.962 50.505 0)
(-24.8614 45.1982 0)
(-32.9595 38.6268 0)
(-41.5709 30.0408 0)
(-50.9916 18.4273 0)
(-61.8219 2.35443 0)
(-74.154 -19.8229 0)
(-88.1714 -49.3381 0)
(-101.784 -82.4016 0)
(-112.602 -117.245 0)
(-123.492 -151.313 0)
(-137.377 -182.554 0)
(-147.73 -202.556 0)
(-136.196 -190.713 0)
(-114.798 -162.639 0)
(-88.4231 -129.007 0)
(-61.2584 -96.7334 0)
(-35.6121 -68.6515 0)
(-12.8905 -43.2001 0)
(5.28911 -23.5849 0)
(20.8081 -13.5392 0)
(30.8542 -4.69653 0)
(44.2086 8.01611 0)
(53.4399 13.1741 0)
(58.8157 15.8595 0)
(62.5622 16.6166 0)
(66.2021 16.2112 0)
(68.7535 17.01 0)
(69.4305 20.7568 0)
(70.6634 24.5609 0)
(79.5852 20.6074 0)
(103.986 0.771198 0)
(138.034 -26.7454 0)
(155.133 -33.8288 0)
(141.966 -7.72727 0)
(111.997 47.1822 0)
(57.5162 112.527 0)
(20.276 174.096 0)
(-41.332 224.13 0)
(-73.8159 247.816 0)
(-92.6281 241.693 0)
(-102.134 220.604 0)
(-103.981 191.457 0)
(-99.5423 158.334 0)
(-90.5929 124.889 0)
(-78.9565 93.722 0)
(-66.1898 66.3422 0)
(-53.5079 43.5572 0)
(-41.5429 25.5043 0)
(-30.6874 12.1017 0)
(-21.0658 2.95573 0)
(-12.955 -2.66698 0)
(-6.17537 -5.27323 0)
(-0.748951 -4.53732 0)
(3.55335 -1.30907 0)
(7.99723 4.28315 0)
(12.5238 13.3622 0)
(17.792 25.2003 0)
(23.5194 37.3587 0)
(28.3259 44.8691 0)
(28.7507 41.8503 0)
(26.1394 31.0441 0)
(26.1327 12.0854 0)
(23.3789 -21.734 0)
(18.3141 -66.7958 0)
(11.4326 -114.001 0)
(3.80051 -159.465 0)
(-4.72863 -198.771 0)
(-14.1364 -227.875 0)
(-23.2075 -242.515 0)
(-30.1853 -239.504 0)
(-35.065 -225.619 0)
(-37.5267 -202.806 0)
(-37.522 -173.847 0)
(-35.495 -141.784 0)
(-31.9224 -109.098 0)
(-27.206 -77.9091 0)
(-21.7849 -50.0322 0)
(-15.8031 -26.5652 0)
(-9.16464 -9.12531 0)
(-3.38464 4.02173 0)
(4.34162 22.8871 0)
(10.5655 30.0009 0)
(15.6923 32.4539 0)
(20.3819 31.0733 0)
(24.6641 26.8649 0)
(28.6336 20.8706 0)
(32.1881 13.5998 0)
(35.1369 6.07568 0)
(37.6941 0.00931281 0)
(39.7058 -3.00394 0)
(41.1352 -1.70742 0)
(42.0687 4.45793 0)
(42.6083 15.1696 0)
(42.7548 29.2276 0)
(42.4361 45.0547 0)
(41.4768 61.2794 0)
(39.6245 77.0244 0)
(36.6175 91.8044 0)
(32.2737 105.329 0)
(26.5321 117.29 0)
(19.4753 127.22 0)
(11.328 134.453 0)
(2.49364 138.144 0)
(-6.40645 137.275 0)
(-14.872 132.837 0)
(-22.5102 124.878 0)
(-29.0162 113.781 0)
(-34.1464 100.192 0)
(-37.7559 84.9287 0)
(-39.81 68.8719 0)
(-40.396 52.8734 0)
(-39.7356 37.6614 0)
(-38.1458 23.7341 0)
(-35.8359 11.3224 0)
(-32.6593 0.672474 0)
(-28.5041 -7.55188 0)
(-23.8504 -13.008 0)
(-19.3499 -16.0233 0)
(-15.4904 -17.425 0)
(-12.5781 -18.1791 0)
(-2.56488 59.363 0)
(-8.39194 60.9287 0)
(-13.9341 57.3451 0)
(-19.4444 51.9729 0)
(-24.8284 45.7121 0)
(-32.0183 37.6834 0)
(-38.8569 27.3575 0)
(-48.3781 13.4685 0)
(-61.1651 -5.99693 0)
(-76.4767 -32.1337 0)
(-95.2423 -69.5872 0)
(-112.177 -107.857 0)
(-123.473 -142.743 0)
(-132.795 -172.362 0)
(-142.207 -194.426 0)
(-144.238 -199.861 0)
(-131.798 -181.777 0)
(-112.442 -153.609 0)
(-88.7799 -122.803 0)
(-63.8171 -93.2147 0)
(-39.6945 -66.1976 0)
(-17.3268 -43.882 0)
(0.553741 -25.3254 0)
(15.8566 -13.8711 0)
(27.461 -7.54352 0)
(40.279 3.9316 0)
(51.3163 9.51231 0)
(59.1802 11.4513 0)
(64.4373 12.6777 0)
(66.8247 15.6142 0)
(68.7164 18.8741 0)
(76.3645 15.8946 0)
(98.2251 -2.276 0)
(132.062 -31.4339 0)
(155.148 -45.5506 0)
(147.567 -26.0247 0)
(125.039 22.5691 0)
(78.7908 90.6706 0)
(34.4427 160.289 0)
(-24.6864 224.831 0)
(-66.4076 264.232 0)
(-92.5693 270.833 0)
(-105.967 253.389 0)
(-110.629 224.135 0)
(-107.683 187.934 0)
(-98.7673 149.576 0)
(-86.0465 112.858 0)
(-71.5282 80.2036 0)
(-56.989 52.8182 0)
(-43.5681 30.7325 0)
(-31.445 14.0367 0)
(-20.5258 2.16784 0)
(-11.3083 -6.05247 0)
(-2.76561 -10.5342 0)
(3.42507 -11.0078 0)
(7.61907 -8.91846 0)
(11.1925 -5.35418 0)
(14.9151 0.16239 0)
(19.0922 8.56701 0)
(24.3199 19.7061 0)
(30.3298 31.9178 0)
(36.3623 41.1615 0)
(39.2047 41.3214 0)
(38.5509 32.1475 0)
(38.7337 14.1941 0)
(35.553 -17.8168 0)
(30.2824 -61.3182 0)
(23.3354 -107.002 0)
(15.0626 -151.18 0)
(5.58287 -189.364 0)
(-5.00827 -217.818 0)
(-15.881 -233.312 0)
(-25.2231 -231.999 0)
(-32.666 -220.388 0)
(-37.8363 -200.098 0)
(-40.4081 -173.503 0)
(-40.6256 -143.456 0)
(-38.8428 -112.455 0)
(-35.3048 -82.6284 0)
(-30.4106 -55.8649 0)
(-24.4955 -33.4846 0)
(-18.1605 -15.7083 0)
(-14.0562 0.215952 0)
(-6.93197 14.9771 0)
(-0.110179 23.7183 0)
(5.58749 27.183 0)
(10.7615 26.206 0)
(15.5677 22.4282 0)
(19.9591 16.9253 0)
(23.8173 10.1993 0)
(27.0259 3.18537 0)
(29.8556 -2.37282 0)
(32.0909 -4.84638 0)
(33.7416 -3.05208 0)
(35.004 3.47316 0)
(35.9842 14.5486 0)
(36.5813 29.027 0)
(36.7364 45.4109 0)
(36.2525 62.4153 0)
(34.8811 79.2023 0)
(32.351 95.2355 0)
(28.4926 110.126 0)
(23.261 123.441 0)
(16.7503 134.566 0)
(9.19418 142.673 0)
(1.04598 146.766 0)
(-7.04998 145.634 0)
(-14.6525 140.54 0)
(-21.3838 131.581 0)
(-26.9701 119.209 0)
(-31.1969 104.159 0)
(-33.9244 87.3428 0)
(-35.1017 69.7647 0)
(-34.8024 52.4141 0)
(-33.292 36.1518 0)
(-31.0337 21.5125 0)
(-28.3967 8.48576 0)
(-24.9482 -3.1649 0)
(-20.2621 -12.2221 0)
(-15.1346 -17.8806 0)
(-10.3454 -20.4758 0)
(-6.34106 -21.1155 0)
(-3.26279 -20.6199 0)
(-2.83258 63.9485 0)
(-7.29281 65.6685 0)
(-9.92833 61.2758 0)
(-11.9317 56.1132 0)
(-13.9225 50.6629 0)
(-15.2851 44.0564 0)
(-20.1759 35.0753 0)
(-26.1981 23.6752 0)
(-34.6107 8.04885 0)
(-51.8499 -15.4765 0)
(-70.1795 -44.6023 0)
(-96.925 -91.3384 0)
(-120.514 -130.999 0)
(-133.68 -164.481 0)
(-143.073 -189.176 0)
(-146.687 -200.649 0)
(-140.343 -192.635 0)
(-127.136 -172.137 0)
(-108.245 -145.501 0)
(-86.0463 -117.303 0)
(-62.4159 -89.964 0)
(-39.2204 -65.0771 0)
(-18.4384 -45.3148 0)
(-0.0705009 -30.0044 0)
(14.9312 -17.2231 0)
(29.3505 -11.903 0)
(39.6304 -2.03969 0)
(52.6386 3.47851 0)
(59.8508 8.31018 0)
(63.7145 12.6493 0)
(71.0256 11.2138 0)
(90.659 -4.58903 0)
(123.53 -34.1351 0)
(151.514 -55.3751 0)
(150.093 -43.9978 0)
(132.906 -4.10707 0)
(99.1928 61.9144 0)
(48.4375 137.818 0)
(-7.00511 215.097 0)
(-56.1433 271.37 0)
(-90.9782 295.522 0)
(-109.63 286.784 0)
(-117.355 260.175 0)
(-116.243 222.402 0)
(-107.777 179.491 0)
(-94.2104 136.589 0)
(-77.8159 97.5483 0)
(-60.9703 64.6516 0)
(-45.3897 38.3736 0)
(-31.654 18.3929 0)
(-20.0999 2.76661 0)
(-9.63142 -8.76654 0)
(0.818515 -15.1283 0)
(7.59156 -16.8412 0)
(12.0867 -15.5071 0)
(15.478 -12.5093 0)
(18.4778 -8.71148 0)
(21.6144 -3.58439 0)
(25.3651 3.89913 0)
(30.3827 13.9934 0)
(36.5251 25.7303 0)
(43.15 35.9781 0)
(47.9909 39.2209 0)
(48.8381 32.1706 0)
(49.1458 15.7304 0)
(46.735 -14.2378 0)
(40.8892 -54.5712 0)
(33.4282 -99.0419 0)
(24.4692 -142.017 0)
(14.2054 -178.972 0)
(2.76736 -206.544 0)
(-9.31181 -222.13 0)
(-20.4382 -222.488 0)
(-29.8179 -212.797 0)
(-37.1362 -194.96 0)
(-41.8791 -170.954 0)
(-44.0122 -143.299 0)
(-43.7727 -114.435 0)
(-41.4389 -86.4055 0)
(-37.4663 -60.8918 0)
(-32.4133 -38.905 0)
(-27.0964 -20.6862 0)
(-22.4296 -5.49675 0)
(-16.9206 8.33072 0)
(-9.95208 17.5279 0)
(-3.96063 21.4889 0)
(1.56027 20.909 0)
(6.63239 17.6758 0)
(11.3378 12.7529 0)
(15.4313 6.54982 0)
(18.6502 -0.0323019 0)
(21.6153 -5.05303 0)
(23.9746 -6.84908 0)
(25.6207 -4.548 0)
(27.0355 2.10148 0)
(28.3557 13.5764 0)
(29.2831 28.5443 0)
(29.7433 45.397 0)
(29.6472 63.1204 0)
(28.7084 80.9126 0)
(26.6607 98.1599 0)
(23.3582 114.367 0)
(18.7676 128.974 0)
(12.9926 141.224 0)
(6.31187 150.135 0)
(-0.826515 154.488 0)
(-7.80897 153.01 0)
(-14.2173 147.208 0)
(-19.7304 137.239 0)
(-24.143 123.628 0)
(-27.2919 107.171 0)
(-29.0555 88.8457 0)
(-29.3548 69.7587 0)
(-28.1824 51.0731 0)
(-25.7392 33.8711 0)
(-22.6839 18.7553 0)
(-19.9531 5.4241 0)
(-16.3154 -7.62548 0)
(-10.5025 -17.3777 0)
(-5.227 -22.9536 0)
(-0.603881 -24.9803 0)
(3.18061 -24.2642 0)
(5.70172 -23.1745 0)
(-10.7676 1.78215 0)
(-5.97945 -13.0772 0)
(0.34902 -22.9894 0)
(5.72637 -27.8193 0)
(9.92257 -28.7244 0)
(12.9636 -27.3645 0)
(15.3428 -25.4337 0)
(-27.5249 -26.5088 0)
(-25.2422 -25.3548 0)
(-32.844 -19.8176 0)
(-10.9291 -14.239 0)
(39.9399 8.34898 0)
(16.4488 -1.70927 0)
(18.6004 0.168923 0)
(19.621 2.39827 0)
(19.7458 3.02763 0)
(19.1658 2.54717 0)
(17.8387 1.98086 0)
(16.4143 0.862402 0)
(15.3404 -1.10923 0)
(15.53 -3.81838 0)
(17.4397 -6.45501 0)
(21.0008 -7.40389 0)
(25.9962 -5.9123 0)
(31.1866 -3.2416 0)
(34.7604 -1.02156 0)
(36.8324 0.783196 0)
(36.0168 2.59058 0)
(33.1881 4.28778 0)
(26.1775 5.93496 0)
(18.2611 6.31404 0)
(9.29727 6.16366 0)
(-0.170409 5.80627 0)
(-8.54523 4.768 0)
(-14.172 3.12351 0)
(-17.6326 1.87249 0)
(-19.646 0.724585 0)
(-20.3588 -0.127204 0)
(-20.3182 -0.421652 0)
(-20.2811 -0.398477 0)
(-20.5009 -0.241402 0)
(-20.6703 -0.0102384 0)
(-21.4579 -0.101306 0)
(-21.9118 -0.594707 0)
(-21.6007 -1.26535 0)
(-20.1634 -1.77648 0)
(-17.1277 -1.8032 0)
(-13.6915 -1.61065 0)
(-10.1437 -1.36362 0)
(-6.44711 -1.66959 0)
(-1.43055 -3.45069 0)
(5.75129 -6.0487 0)
(14.6631 -6.9189 0)
(25.0241 -6.8871 0)
(35.2799 -5.83665 0)
(43.5608 -1.756 0)
(45.9423 1.97961 0)
(42.16 4.30655 0)
(35.3728 6.24943 0)
(23.7976 7.84641 0)
(9.08452 8.73048 0)
(-7.9366 8.71639 0)
(-25.0719 9.756 0)
(-38.4953 7.76226 0)
(-50.3892 4.53469 0)
(-54.5782 1.55792 0)
(-57.0111 -0.457693 0)
(-57.1826 -1.94748 0)
(-56.1175 -3.16192 0)
(-53.6885 -4.0323 0)
(-49.6622 -4.60596 0)
(-42.9797 -5.0427 0)
(-32.8827 -5.62854 0)
(-19.015 -6.67089 0)
(-2.3281 -8.25243 0)
(16.4207 -10.4808 0)
(36.0828 -9.23795 0)
(53.4981 -7.12051 0)
(66.4385 -4.46107 0)
(73.3515 -1.94876 0)
(73.9982 0.102661 0)
(71.0274 2.60085 0)
(61.5464 4.77841 0)
(48.7866 6.05889 0)
(34.5266 6.4267 0)
(20.7638 6.31854 0)
(8.88165 5.40558 0)
(-2.59198 4.38432 0)
(-11.9723 3.56761 0)
(-19.1832 2.73813 0)
(-24.7592 1.94147 0)
(-28.1926 1.15504 0)
(-29.4934 0.539807 0)
(-29.1086 0.0285177 0)
(-27.4116 -0.420736 0)
(-24.6538 -0.846542 0)
(-21.2491 -1.22694 0)
(-17.539 -1.52043 0)
(-13.7085 -1.65771 0)
(-9.72298 -1.6682 0)
(-6.13982 -2.16371 0)
(-2.44852 -2.15006 0)
(1.14409 -1.88277 0)
(4.6392 -1.60744 0)
(7.74387 -1.2492 0)
(10.2074 -0.871554 0)
(11.9112 -0.551401 0)
(12.9442 -0.314156 0)
(13.4543 -0.130157 0)
(13.5603 0.0153404 0)
(13.2908 0.185291 0)
(12.5501 0.397325 0)
(11.4243 0.636456 0)
(9.7677 0.881603 0)
(7.65248 1.09844 0)
(5.13045 1.26705 0)
(2.24086 1.35569 0)
(-0.690557 1.41792 0)
(-3.43891 1.35257 0)
(-5.97473 1.14694 0)
(-8.26007 0.947095 0)
(-10.1348 0.749993 0)
(-11.56 0.565904 0)
(-12.5477 0.401042 0)
(-13.1574 0.255964 0)
(-13.4589 0.124547 0)
(-13.4999 -3.4434e-06 0)
(-13.3458 -0.130397 0)
(-12.9609 -0.271162 0)
(-12.3194 -0.415978 0)
(-11.3962 -0.549629 0)
(-10.2045 -0.647851 0)
(-8.77082 -0.72241 0)
(-7.0885 -0.762737 0)
(-5.11113 -0.814449 0)
(6.83405 -5.67291 0)
(10.7001 -5.12923 0)
(15.0943 -4.02244 0)
(19.8815 -2.62092 0)
(24.9885 -1.35097 0)
(29.981 -0.346365 0)
(34.6804 0.444832 0)
(38.6889 1.0108 0)
(41.6099 1.19898 0)
(41.7916 0.362631 0)
(38.3873 -1.3547 0)
(33.0088 -2.49777 0)
(27.2205 -2.26815 0)
(21.2039 -1.42268 0)
(16.1516 0.0449558 0)
(11.3367 2.60428 0)
(5.15847 5.96864 0)
(-0.558421 8.40501 0)
(-5.52612 10.235 0)
(-10.4725 10.8984 0)
(-14.9018 10.7441 0)
(-19.4459 9.57662 0)
(-22.3632 7.36759 0)
(-22.4382 3.78269 0)
(-22.2709 1.28874 0)
(-21.4414 -0.018489 0)
(-20.0782 -0.265015 0)
(-18.2853 0.187546 0)
(-16.4875 1.00269 0)
(-14.9358 1.83111 0)
(-13.4602 2.16344 0)
(-12.1329 1.44855 0)
(-10.9175 0.13103 0)
(-9.85611 -2.79237 0)
(-8.29369 -6.50141 0)
(-6.05854 -8.04236 0)
(-4.12336 -7.05754 0)
(-2.77316 -6.8912 0)
(-0.412325 -8.35535 0)
(6.38019 -11.8566 0)
(16.8486 -14.4005 0)
(26.9326 -13.8784 0)
(34.0911 -9.31828 0)
(37.169 -4.92004 0)
(37.5035 0.312016 0)
(33.6913 6.61633 0)
(25.4227 13.0378 0)
(12.4541 18.8173 0)
(-2.97417 22.587 0)
(-15.3239 25.5569 0)
(-25.8068 23.5765 0)
(-35.651 18.1004 0)
(-40.5352 11.0559 0)
(-42.3432 5.22549 0)
(-41.6165 1.8213 0)
(-39.1878 -0.394916 0)
(-36.3755 -2.23514 0)
(-33.7826 -4.63828 0)
(-31.6312 -8.55808 0)
(-29.0698 -13.9731 0)
(-24.171 -19.521 0)
(-14.5987 -23.088 0)
(0.217004 -25.68 0)
(21.155 -28.8877 0)
(43.2271 -27.2569 0)
(61.2264 -21.877 0)
(73.32 -13.9993 0)
(77.7512 -4.80959 0)
(75.7384 4.07786 0)
(67.0889 11.7853 0)
(56.4656 17.3952 0)
(43.6962 20.3347 0)
(30.5957 21.0625 0)
(17.1838 20.3371 0)
(4.72071 18.0668 0)
(-6.65342 15.2301 0)
(-16.8692 12.3308 0)
(-25.5422 9.45329 0)
(-32.5472 6.29441 0)
(-37.6531 2.98717 0)
(-40.5411 0.0817463 0)
(-41.0265 -2.4373 0)
(-38.9514 -4.42362 0)
(-34.6015 -5.61418 0)
(-28.6112 -5.99486 0)
(-21.814 -5.81639 0)
(-15.0984 -5.48675 0)
(-9.27496 -5.72688 0)
(-3.02848 -6.07821 0)
(2.86791 -5.45891 0)
(7.62128 -5.03051 0)
(11.293 -4.76309 0)
(14.0417 -4.24343 0)
(15.8476 -3.18839 0)
(16.675 -2.01343 0)
(16.8428 -1.07812 0)
(16.6023 -0.226056 0)
(16.0291 0.442184 0)
(15.1446 1.07817 0)
(13.7896 1.80154 0)
(11.72 2.48278 0)
(9.18402 3.07294 0)
(6.36163 3.56156 0)
(3.36888 3.94586 0)
(0.315214 4.24477 0)
(-2.83134 4.35399 0)
(-6.09359 4.14635 0)
(-9.01949 3.63508 0)
(-11.4646 2.96669 0)
(-13.4195 2.2378 0)
(-14.8428 1.51655 0)
(-15.7409 0.874679 0)
(-16.1616 0.36433 0)
(-16.1648 -0.00121431 0)
(-15.8866 -0.25875 0)
(-15.3066 -0.470586 0)
(-14.3949 -0.733201 0)
(-13.0674 -1.10105 0)
(-11.3811 -1.52431 0)
(-9.43826 -1.89 0)
(-7.3534 -2.25241 0)
(-5.21761 -2.68924 0)
(-3.00525 -3.23218 0)
(0.192054 -7.68002 0)
(2.06054 -8.24487 0)
(4.40111 -6.46365 0)
(7.38901 -6.37197 0)
(10.8764 -6.25129 0)
(14.5994 -5.84406 0)
(18.3415 -5.41525 0)
(21.8892 -4.89864 0)
(24.8561 -4.0476 0)
(27.7982 -2.45105 0)
(29.5274 -0.236043 0)
(29.3171 2.24946 0)
(26.9869 4.71412 0)
(22.7123 6.93286 0)
(15.47 8.98666 0)
(6.91847 11.217 0)
(-1.5294 13.6232 0)
(-9.09143 15.5563 0)
(-15.3148 16.4071 0)
(-20.3222 15.6487 0)
(-24.2298 13.3136 0)
(-25.3017 10.3005 0)
(-24.8399 7.08154 0)
(-25.8227 3.11699 0)
(-25.203 -0.443486 0)
(-24.0737 -3.24715 0)
(-22.4802 -4.61117 0)
(-20.2757 -4.91438 0)
(-17.4039 -4.7167 0)
(-13.6282 -4.38181 0)
(-8.82927 -4.36453 0)
(-2.95042 -4.946 0)
(3.64119 -6.07544 0)
(10.7209 -6.64301 0)
(15.8038 -5.26459 0)
(16.7214 -2.13549 0)
(15.508 -0.240792 0)
(11.8118 -1.12983 0)
(8.44512 -9.12563 0)
(4.63479 -21.7756 0)
(6.2778 -25.9741 0)
(12.0779 -23.4261 0)
(15.6122 -15.8202 0)
(15.1504 -5.43489 0)
(12.1771 4.6318 0)
(7.77807 13.8902 0)
(0.362227 23.7387 0)
(-7.99003 30.5021 0)
(-15.3035 35.2472 0)
(-20.6645 37.22 0)
(-27.9457 31.6002 0)
(-29.3658 21.354 0)
(-27.3327 9.67312 0)
(-23.1884 0.088503 0)
(-17.2042 -5.53678 0)
(-9.61175 -8.08458 0)
(-1.0688 -8.21079 0)
(7.10761 -6.26533 0)
(13.0149 -4.9965 0)
(15.7092 -7.36041 0)
(14.3179 -15.1924 0)
(9.1106 -29.8325 0)
(5.82932 -45.4373 0)
(11.13 -51.1818 0)
(26.4791 -48.0237 0)
(45.1235 -37.6603 0)
(58.485 -20.4859 0)
(64.5813 -3.62865 0)
(66.0324 9.38346 0)
(63.3022 19.6757 0)
(56.3952 27.3279 0)
(46.5891 32.1471 0)
(35.4105 34.0507 0)
(23.1989 33.5246 0)
(12.1672 30.7761 0)
(1.43992 27.1253 0)
(-8.40415 22.7706 0)
(-17.381 18.4192 0)
(-25.3053 13.9666 0)
(-31.8584 8.60951 0)
(-37.1956 3.46152 0)
(-41.4654 -1.69352 0)
(-44.1161 -6.50301 0)
(-44.0983 -10.9438 0)
(-41.5498 -13.9876 0)
(-36.5748 -15.2681 0)
(-29.5722 -15.0401 0)
(-21.4651 -14.0496 0)
(-13.3011 -13.1994 0)
(-4.6166 -13.0919 0)
(4.13621 -11.0955 0)
(11.2881 -8.3762 0)
(16.6124 -5.55593 0)
(19.6608 -2.9244 0)
(20.5727 -0.996855 0)
(20.4834 0.201021 0)
(19.9576 0.868569 0)
(18.9973 1.15414 0)
(17.7655 1.83984 0)
(16.0762 3.28649 0)
(13.8478 4.73698 0)
(11.2526 5.88124 0)
(8.3966 6.72536 0)
(5.28694 7.33345 0)
(1.92738 7.88051 0)
(-1.50278 8.1173 0)
(-4.56374 7.53806 0)
(-7.27666 6.69777 0)
(-9.43998 5.64994 0)
(-11.0781 4.47225 0)
(-12.3014 3.23754 0)
(-13.2026 2.03856 0)
(-13.8783 0.975631 0)
(-14.4042 0.079344 0)
(-14.751 -0.756963 0)
(-15.0038 -1.8482 0)
(-15.1114 -2.91415 0)
(-14.8948 -3.85715 0)
(-14.0816 -4.61772 0)
(-12.678 -5.03572 0)
(-10.7336 -5.23553 0)
(-8.46706 -5.10517 0)
(-5.92992 -5.11721 0)
(-3.31889 -8.99612 0)
(-2.29325 -9.14227 0)
(-0.817943 -9.27863 0)
(1.29544 -9.22174 0)
(3.70618 -9.02275 0)
(6.19719 -8.72636 0)
(8.79768 -8.26754 0)
(11.4363 -7.51605 0)
(13.9707 -6.34553 0)
(16.3149 -4.58325 0)
(18.4165 -2.06118 0)
(20.2184 1.16813 0)
(21.59 4.86534 0)
(22.3763 8.87693 0)
(22.426 13.0357 0)
(21.7824 16.9367 0)
(20.6355 20.0731 0)
(19.1723 21.9119 0)
(17.7324 22.2481 0)
(16.1578 20.9233 0)
(14.5194 18.1416 0)
(12.5942 14.0268 0)
(10.1924 9.02795 0)
(7.60454 4.61979 0)
(5.30622 0.956961 0)
(3.06327 -1.87568 0)
(0.937849 -3.78904 0)
(-0.371278 -5.0307 0)
(-0.896692 -5.56923 0)
(-0.793983 -5.86244 0)
(-0.254789 -6.47248 0)
(0.359133 -7.7497 0)
(0.292086 -9.17613 0)
(-0.469294 -11.2234 0)
(0.476682 -13.9295 0)
(2.84663 -12.464 0)
(6.74965 -7.01205 0)
(14.686 -5.03835 0)
(24.0734 -5.29918 0)
(25.7866 -9.81262 0)
(18.6852 -18.0984 0)
(8.79146 -21.7454 0)
(-2.40702 -13.387 0)
(-10.3592 -0.296298 0)
(-14.3173 5.2624 0)
(-20.9872 14.8979 0)
(-27.3745 28.4459 0)
(-32.0137 35.445 0)
(-36.818 38.5283 0)
(-40.0559 38.6615 0)
(-41.5721 33.7998 0)
(-39.7078 21.793 0)
(-37.001 8.17858 0)
(-34.9248 -3.31136 0)
(-32.8782 -11.1772 0)
(-29.5144 -16.783 0)
(-23.6199 -19.9467 0)
(-14.7334 -20.973 0)
(-2.37507 -21.8838 0)
(14.1168 -22.0325 0)
(32.4685 -19.0882 0)
(46.5626 -16.3595 0)
(47.1958 -23.5568 0)
(37.031 -44.2437 0)
(27.4781 -61.2541 0)
(24.4271 -55.3125 0)
(27.0112 -39.1878 0)
(38.4278 -17.0426 0)
(47.1953 2.2932 0)
(53.2371 22.183 0)
(54.8466 37.1483 0)
(51.93 44.5975 0)
(46.6758 45.3512 0)
(38.54 42.8818 0)
(29.0977 39.3685 0)
(20.5286 35.3107 0)
(11.6941 31.0627 0)
(2.71609 26.7293 0)
(-6.0724 21.7785 0)
(-13.7075 14.831 0)
(-20.1033 10.7294 0)
(-25.5412 4.23771 0)
(-30.5682 -3.0957 0)
(-34.2433 -8.94863 0)
(-35.745 -14.056 0)
(-35.934 -17.9112 0)
(-34.6612 -20.4535 0)
(-31.5762 -21.953 0)
(-26.7944 -22.4916 0)
(-21.0441 -21.6963 0)
(-14.7216 -19.6261 0)
(-8.05154 -16.8022 0)
(-1.19579 -13.8999 0)
(5.95684 -8.60355 0)
(12.0155 -3.76771 0)
(16.2852 -1.53855 0)
(18.5209 1.18193 0)
(19.2706 3.12356 0)
(18.7217 4.67157 0)
(16.7456 6.38591 0)
(13.5403 7.84092 0)
(9.95668 8.86538 0)
(6.32136 9.58264 0)
(2.58599 10.3341 0)
(-1.2227 10.8598 0)
(-4.74569 10.8612 0)
(-7.44668 9.8996 0)
(-8.87258 8.18706 0)
(-9.4541 6.37573 0)
(-9.39067 4.69567 0)
(-8.8635 3.24403 0)
(-8.00444 2.07021 0)
(-6.95063 1.23692 0)
(-5.94861 0.696614 0)
(-5.27932 0.313373 0)
(-4.83708 0.49804 0)
(-4.52193 0.118592 0)
(-4.42282 -1.04383 0)
(-4.70114 -2.88424 0)
(-5.18756 -4.28157 0)
(-5.94589 -5.96961 0)
(-7.08685 -7.68588 0)
(-8.28447 -9.38296 0)
(-5.16093 -9.7916 0)
(-4.21123 -10.4858 0)
(-2.92748 -10.695 0)
(-1.34419 -10.8341 0)
(0.441403 -10.9544 0)
(2.37327 -10.8475 0)
(4.43198 -10.4605 0)
(6.57674 -9.71728 0)
(8.77359 -8.52243 0)
(11.025 -6.7564 0)
(13.3477 -4.27542 0)
(15.7745 -1.02666 0)
(18.4079 2.77214 0)
(21.28 6.86308 0)
(24.2924 11.0583 0)
(27.3463 14.9929 0)
(30.3634 18.2049 0)
(33.1989 20.2733 0)
(35.6614 20.9488 0)
(37.4845 20.1597 0)
(38.488 18.0464 0)
(38.7126 14.9982 0)
(37.494 11.1851 0)
(35.4062 7.40278 0)
(32.6629 3.96721 0)
(29.6149 1.14408 0)
(26.5315 -0.977035 0)
(23.4109 -2.58568 0)
(20.4714 -3.8007 0)
(18.0428 -4.77836 0)
(15.8613 -5.80916 0)
(13.4531 -6.84833 0)
(11.5354 -7.82002 0)
(10.2296 -8.78301 0)
(7.91522 -9.07995 0)
(5.0484 -9.03791 0)
(3.39493 -9.34895 0)
(2.67397 -10.6404 0)
(1.62986 -12.2042 0)
(0.775486 -13.5969 0)
(0.797403 -15.2099 0)
(-7.32341 -9.64248 0)
(-16.1931 0.638233 0)
(-22.202 4.63812 0)
(-29.4993 12.9897 0)
(-37.07 23.5006 0)
(-42.302 33.356 0)
(-45.8994 40.4956 0)
(-47.3378 41.7897 0)
(-47.6665 39.9912 0)
(-45.9637 32.4574 0)
(-44.1795 19.4434 0)
(-42.6996 5.51281 0)
(-43.8898 -4.38468 0)
(-45.449 -9.50138 0)
(-46.9408 -16.8667 0)
(-47.5132 -22.5566 0)
(-46.197 -26.7725 0)
(-42.3862 -30.8626 0)
(-36.1656 -36.0429 0)
(-26.8825 -41.7777 0)
(-12.4436 -44.413 0)
(9.19235 -42.0737 0)
(31.597 -39.7271 0)
(39.3327 -41.7158 0)
(33.0086 -39.8805 0)
(26.4245 -31.2843 0)
(24.4153 -21.1058 0)
(29.083 -8.12229 0)
(35.961 9.19029 0)
(45.6517 25.5948 0)
(55.5675 38.9884 0)
(62.7103 48.2229 0)
(63.9131 51.0195 0)
(59.441 49.5562 0)
(51.5619 46.3069 0)
(41.8296 42.1408 0)
(31.3572 36.989 0)
(21.1511 30.4607 0)
(11.5338 22.7586 0)
(3.49122 14.9127 0)
(-2.12029 9.39088 0)
(-7.96754 4.47807 0)
(-13.1978 -5.92244 0)
(-17.2017 -12.077 0)
(-19.7511 -16.4582 0)
(-21.6456 -19.665 0)
(-22.9786 -22.1639 0)
(-23.6047 -24.2113 0)
(-23.2158 -25.5292 0)
(-21.0024 -24.8319 0)
(-17.1759 -22.7025 0)
(-12.5045 -19.2773 0)
(-7.56506 -14.8084 0)
(-2.48023 -10.2993 0)
(1.50945 -6.14897 0)
(5.24141 -1.64536 0)
(7.59782 0.200292 0)
(9.4648 2.79223 0)
(10.0307 7.99452 0)
(8.88963 10.852 0)
(6.63717 12.639 0)
(3.52226 14.0791 0)
(-0.331416 15.3003 0)
(-4.42546 15.691 0)
(-7.62467 14.0791 0)
(-9.96828 11.7409 0)
(-11.7396 9.21604 0)
(-13.3831 6.80745 0)
(-15.1754 4.61693 0)
(-17.0092 2.52381 0)
(-18.5112 0.646802 0)
(-19.594 -0.783054 0)
(-20.1191 -1.63603 0)
(-19.8233 -1.79652 0)
(-18.2833 -3.49399 0)
(-15.6434 -4.36292 0)
(-12.1005 -4.90098 0)
(-7.85206 -5.41483 0)
(-2.83827 -5.33539 0)
(2.08667 -4.07048 0)
(5.5767 -2.74399 0)
(6.62387 -2.50777 0)
(-6.27338 -10.6757 0)
(-5.24129 -11.5051 0)
(-3.99631 -12.0942 0)
(-2.49346 -12.4777 0)
(-0.783026 -12.716 0)
(1.06671 -12.7231 0)
(3.03066 -12.434 0)
(5.1037 -11.8042 0)
(7.29705 -10.7176 0)
(9.63582 -9.03187 0)
(12.0688 -6.63444 0)
(14.7225 -3.78914 0)
(18.0477 -0.59361 0)
(21.7043 3.20173 0)
(25.7287 7.1213 0)
(29.9852 10.8317 0)
(34.3929 13.9466 0)
(38.752 16.2125 0)
(42.8122 17.3982 0)
(46.2648 17.4087 0)
(48.8396 16.2992 0)
(50.3563 14.315 0)
(50.8627 11.8693 0)
(50.3258 9.26783 0)
(48.4356 6.585 0)
(45.8957 4.19468 0)
(42.9297 2.24518 0)
(39.737 0.74091 0)
(36.4504 -0.46927 0)
(33.2038 -1.50825 0)
(30.028 -2.40963 0)
(26.7758 -3.33224 0)
(23.2537 -4.43619 0)
(19.3607 -5.56282 0)
(15.1848 -6.53931 0)
(11.0111 -7.21757 0)
(7.31722 -7.2967 0)
(3.71401 -7.09582 0)
(-0.666306 -7.32859 0)
(-6.44189 -8.18461 0)
(-13.6171 -7.70311 0)
(-22.0794 -3.40915 0)
(-29.0621 3.13864 0)
(-34.0349 11.2292 0)
(-39.0791 20.1025 0)
(-43.6136 28.5125 0)
(-46.9343 36.1506 0)
(-47.5434 41.0759 0)
(-45.1559 41.1216 0)
(-42.4788 38.2168 0)
(-40.7017 31.7738 0)
(-41.6127 20.9101 0)
(-45.2938 6.80297 0)
(-49.3414 -2.45115 0)
(-53.3018 -5.86213 0)
(-58.6643 -14.0702 0)
(-64.0366 -20.0349 0)
(-68.4735 -25.3641 0)
(-71.1853 -31.3612 0)
(-71.7296 -38.1363 0)
(-70.4399 -45.1232 0)
(-67.1173 -52.0914 0)
(-60.8141 -60.1801 0)
(-48.2294 -65.0819 0)
(-29.0414 -60.2166 0)
(-9.69801 -48.2641 0)
(6.96385 -35.831 0)
(22.6763 -25.2557 0)
(34.8877 -11.1781 0)
(43.7146 5.44615 0)
(53.6982 20.1667 0)
(63.697 31.3519 0)
(71.5651 40.0864 0)
(76.7533 46.7027 0)
(78.6495 51.3942 0)
(75.1985 52.3636 0)
(68.5969 50.8577 0)
(60.2116 47.2123 0)
(50.7931 41.3061 0)
(40.8868 33.3895 0)
(31.1145 24.62 0)
(23.1695 15.0786 0)
(17.0536 7.56339 0)
(12.5041 0.86562 0)
(6.54551 -8.29225 0)
(1.31351 -13.1548 0)
(-2.90447 -16.9357 0)
(-6.43559 -19.8775 0)
(-9.42885 -22.2292 0)
(-11.9387 -24.1759 0)
(-13.6183 -25.5416 0)
(-13.5931 -25.2574 0)
(-11.7389 -23.0705 0)
(-8.61865 -19.221 0)
(-4.66834 -14.3579 0)
(-0.642983 -9.26081 0)
(2.93386 -4.60606 0)
(5.20275 -1.47355 0)
(6.82711 1.58581 0)
(7.55166 7.82035 0)
(7.6171 11.4118 0)
(6.90441 14.1306 0)
(5.43712 16.4172 0)
(3.58756 18.2001 0)
(1.75249 18.2625 0)
(-0.210343 16.5134 0)
(-2.66573 14.2293 0)
(-5.97701 11.8216 0)
(-9.8312 9.64473 0)
(-14.1554 8.05977 0)
(-18.8839 6.38918 0)
(-23.7793 4.41317 0)
(-28.5928 2.63671 0)
(-32.859 0.888985 0)
(-36.1696 -0.944783 0)
(-38.7489 -2.87597 0)
(-41.7538 -5.00771 0)
(-43.3802 -7.53373 0)
(-43.9085 -10.3961 0)
(-43.1552 -12.8412 0)
(-40.5529 -14.3035 0)
(-33.6681 -12.5179 0)
(-24.9596 -10.3263 0)
(-7.32342 -11.7042 0)
(-6.11884 -12.6907 0)
(-4.72771 -13.5128 0)
(-3.12235 -14.1427 0)
(-1.29943 -14.5155 0)
(0.688826 -14.6528 0)
(2.82031 -14.4888 0)
(5.08898 -13.9686 0)
(7.50232 -13.0214 0)
(10.085 -11.5159 0)
(12.8466 -9.35359 0)
(15.7252 -6.72067 0)
(18.9995 -4.00843 0)
(22.9409 -0.893475 0)
(26.6505 2.65104 0)
(31.7021 6.17236 0)
(36.1402 9.32648 0)
(40.7343 11.8454 0)
(45.0696 13.5146 0)
(48.8669 14.2262 0)
(51.9133 14.0084 0)
(54.0363 13.0187 0)
(55.1202 11.473 0)
(55.2465 9.75837 0)
(54.6512 8.16997 0)
(52.933 6.53256 0)
(50.6731 5.05894 0)
(48.0202 3.81959 0)