/*--------------------------------*- C++ -*----------------------------------*\
| =========                 |                                                 |
| \\      /  F ield         | OpenFOAM: The Open Source CFD Toolbox           |
|  \\    /   O peration     | Version:  2206                                  |
|   \\  /    A nd           | Website:  www.openfoam.com                      |
|    \\/     M anipulation  |                                                 |
\*---------------------------------------------------------------------------*/
FoamFile
{
    version     2.0;
    format      ascii;
    arch        "LSB;label=32;scalar=64";
    class       volVectorField;
    location    "19.7001";
    object      ddtCorrDdt0(U);
}
// * * * * * * * * * * * * * * * * * * * * * * * * * * * * * * * * * * * * * //

dimensions      [0 1 -2 0 0 0 0];

internalField   nonuniform List<vector> 
3087
(
(-1.17391e-05 0.00173815 0)
(-6.42024e-05 0.00463486 0)
(-0.000177182 0.00693706 0)
(-0.00033629 0.0086453 0)
(-0.000524442 0.00975131 0)
(-0.000729713 0.0102524 0)
(-0.000944771 0.0101582 0)
(-0.00116211 0.00948741 0)
(-0.00137211 0.00826165 0)
(-0.00156462 0.00650378 0)
(-0.00172892 0.00423967 0)
(-0.00185568 0.00149708 0)
(-0.00193633 -0.00169304 0)
(-0.00196304 -0.00529787 0)
(-0.00192891 -0.00928165 0)
(-0.00182687 -0.0136061 0)
(-0.00165146 -0.0182309 0)
(-0.00139718 -0.0231125 0)
(-0.00106027 -0.0282064 0)
(-0.000636813 -0.0334647 0)
(-0.000124166 -0.0388389 0)
(0.000479862 -0.0442779 0)
(0.00117594 -0.0497316 0)
(0.00196455 -0.0551493 0)
(0.00284407 -0.060484 0)
(0.00381473 -0.0656912 0)
(0.00487031 -0.0707329 0)
(0.0060134 -0.0755778 0)
(0.00724228 -0.0801999 0)
(0.0085077 -0.0845794 0)
(0.00991424 -0.0887205 0)
(0.0113095 -0.0926051 0)
(0.0128506 -0.0962497 0)
(0.0143113 -0.0996368 0)
(0.0160188 -0.10282 0)
(0.017488 -0.105763 0)
(0.0193544 -0.108575 0)
(0.0208002 -0.111167 0)
(0.0227959 -0.11373 0)
(0.0242332 -0.116104 0)
(0.0262667 -0.118559 0)
(0.0277943 -0.120898 0)
(0.0297111 -0.123388 0)
(0.0314743 -0.125931 0)
(0.0331509 -0.128609 0)
(0.0351945 -0.131613 0)
(0.0366876 -0.134699 0)
(0.0388871 -0.138384 0)
(0.0403611 -0.142154 0)
(0.04269 -0.146797 0)
(0.0441355 -0.151421 0)
(0.0466418 -0.157338 0)
(0.0484652 -0.163285 0)
(0.0505212 -0.170073 0)
(0.0531217 -0.178197 0)
(0.0554229 -0.186704 0)
(0.0576473 -0.195985 0)
(0.0601798 -0.206551 0)
(0.0629968 -0.218361 0)
(0.066049 -0.231302 0)
(0.0692664 -0.245317 0)
(0.072647 -0.260464 0)
(0.0762613 -0.276894 0)
(0.0801859 -0.294713 0)
(0.0844598 -0.313985 0)
(0.0891061 -0.334736 0)
(0.0941434 -0.356998 0)
(0.0995969 -0.380815 0)
(0.105507 -0.406255 0)
(0.111901 -0.433413 0)
(0.118828 -0.46237 0)
(0.126312 -0.493199 0)
(0.134362 -0.525972 0)
(0.143023 -0.560738 0)
(0.152314 -0.59758 0)
(0.162257 -0.636577 0)
(0.172857 -0.677847 0)
(0.184106 -0.721499 0)
(0.195975 -0.767665 0)
(0.208421 -0.816456 0)
(0.221367 -0.868008 0)
(0.234713 -0.922432 0)
(0.248328 -0.979884 0)
(0.261962 -1.04041 0)
(0.27539 -1.10426 0)
(0.288143 -1.17142 0)
(0.299651 -1.24195 0)
(0.309163 -1.31587 0)
(0.315556 -1.39308 0)
(0.317229 -1.47319 0)
(0.311747 -1.55556 0)
(0.295779 -1.63926 0)
(0.264384 -1.72276 0)
(0.211736 -1.80257 0)
(0.126816 -1.87317 0)
(0.000586902 -1.91344 0)
(-0.207457 -1.90794 0)
(-0.365105 -1.78899 0)
(-0.938544 -1.39152 0)
(-0.127141 0.483749 0)
(-9.13006e-06 0.00176697 0)
(-4.99555e-05 0.00471505 0)
(-0.000138301 0.00705919 0)
(-0.000262412 0.00879837 0)
(-0.000408681 0.00992484 0)
(-0.000568933 0.0104386 0)
(-0.000738421 0.0103507 0)
(-0.000910627 0.00967843 0)
(-0.00107749 0.00844161 0)
(-0.00122979 0.00666296 0)
(-0.00135925 0.00436897 0)
(-0.00145874 0.00158823 0)
(-0.00152182 -0.00164695 0)
(-0.00154277 -0.00530351 0)
(-0.00151591 -0.00934456 0)
(-0.00143637 -0.0137319 0)
(-0.00129914 -0.0184245 0)
(-0.00110047 -0.0233783 0)
(-0.000836765 -0.0285483 0)
(-0.000505224 -0.0338853 0)
(-0.000103616 -0.0393403 0)
(0.000369255 -0.0448613 0)
(0.000914204 -0.0503976 0)
(0.00153119 -0.0558973 0)
(0.00221913 -0.0613131 0)
(0.00297818 -0.0665994 0)
(0.0038025 -0.0717179 0)
(0.00469646 -0.0766365 0)
(0.00565778 -0.0813272 0)
(0.00663549 -0.0857701 0)
(0.00775812 -0.0899747 0)
(0.00880369 -0.0939139 0)
(0.0100693 -0.0976097 0)
(0.0111297 -0.101037 0)
(0.012563 -0.104263 0)
(0.0135842 -0.107234 0)
(0.0151929 -0.11008 0)
(0.0161377 -0.112688 0)
(0.017908 -0.115283 0)
(0.0187834 -0.117651 0)
(0.0206397 -0.12015 0)
(0.0215514 -0.122452 0)
(0.023294 -0.125007 0)
(0.0244968 -0.127496 0)
(0.0258124 -0.130224 0)
(0.0275941 -0.133251 0)
(0.0283257 -0.136262 0)
(0.0306044 -0.140131 0)
(0.0311819 -0.143754 0)
(0.0333661 -0.148524 0)
(0.0343112 -0.153223 0)
(0.036435 -0.159198 0)
(0.0373921 -0.164928 0)
(0.0396747 -0.172492 0)
(0.041348 -0.180134 0)
(0.0428453 -0.188314 0)
(0.0450596 -0.19845 0)
(0.047184 -0.209332 0)
(0.0492931 -0.221133 0)
(0.051537 -0.233989 0)
(0.0539861 -0.248082 0)
(0.0566213 -0.263509 0)
(0.059475 -0.280309 0)
(0.0625949 -0.298473 0)
(0.0659977 -0.318053 0)
(0.0696952 -0.339097 0)
(0.0736939 -0.361711 0)
(0.0779966 -0.385943 0)
(0.0825957 -0.411864 0)
(0.0875297 -0.439501 0)
(0.0928821 -0.468913 0)
(0.0987169 -0.500189 0)
(0.105091 -0.53343 0)
(0.112012 -0.568712 0)
(0.119445 -0.606146 0)
(0.127346 -0.64576 0)
(0.135679 -0.687678 0)
(0.14443 -0.731932 0)
(0.153601 -0.778668 0)
(0.163174 -0.827925 0)
(0.173115 -0.879869 0)
(0.18334 -0.934521 0)
(0.19372 -0.992047 0)
(0.204042 -1.05242 0)
(0.213969 -1.11566 0)
(0.223231 -1.18183 0)
(0.231236 -1.25084 0)
(0.237244 -1.32224 0)
(0.240378 -1.39566 0)
(0.239383 -1.47004 0)
(0.232189 -1.54386 0)
(0.215861 -1.61524 0)
(0.186861 -1.68167 0)
(0.142147 -1.73874 0)
(0.0735595 -1.7742 0)
(-0.0182816 -1.7791 0)
(-0.131615 -1.73908 0)
(-0.278338 -1.5976 0)
(-0.436853 -1.36042 0)
(-0.455695 -0.927825 0)
(-6.43079e-06 0.00178854 0)
(-3.53785e-05 0.00477535 0)
(-9.84152e-05 0.00715129 0)
(-0.000187629 0.0089145 0)
(-0.000293114 0.0100578 0)
(-0.000409264 0.0105827 0)
(-0.000532865 0.0105002 0)
(-0.000658918 0.00982611 0)
(-0.000780461 0.00857965 0)
(-0.00089045 0.00678428 0)
(-0.000983511 0.0044669 0)
(-0.00105439 0.00165798 0)
(-0.00109901 -0.0016111 0)
(-0.00111345 -0.00530579 0)
(-0.00109367 -0.0093899 0)
(-0.00103618 -0.0138245 0)
(-0.000937331 -0.0185678 0)
(-0.000794504 -0.0235764 0)
(-0.000604635 -0.0288028 0)
(-0.000365919 -0.0341992 0)
(-7.70171e-05 -0.0397144 0)
(0.000263071 -0.0452974 0)
(0.000654691 -0.0508949 0)
(0.00109796 -0.0564564 0)
(0.00159151 -0.0619319 0)
(0.0021365 -0.0672775 0)
(0.00272533 -0.0724523 0)
(0.00337071 -0.0774262 0)
(0.00404711 -0.0821661 0)
(0.00474774 -0.0866601 0)
(0.00558084 -0.0909099 0)
(0.00627148 -0.0948903 0)
(0.00726053 -0.0986219 0)
(0.00791227 -0.102083 0)
(0.00906369 -0.105335 0)
(0.00965215 -0.108334 0)
(0.0109526 -0.111196 0)
(0.0114801 -0.113828 0)
(0.0128814 -0.116427 0)
(0.013397 -0.11882 0)
(0.0148052 -0.121311 0)
(0.0153989 -0.123634 0)
(0.0166872 -0.126191 0)
(0.0174844 -0.128667 0)
(0.0184911 -0.131454 0)
(0.0196959 -0.134394 0)
(0.020176 -0.137516 0)
(0.0220287 -0.141346 0)
(0.0219353 -0.144924 0)
(0.0241092 -0.14989 0)
(0.0242924 -0.154521 0)
(0.025856 -0.160401 0)
(0.0267056 -0.166559 0)
(0.028488 -0.174151 0)
(0.0290079 -0.18118 0)
(0.0308078 -0.190536 0)
(0.0324189 -0.200264 0)
(0.0337199 -0.210822 0)
(0.0351257 -0.222807 0)
(0.0367243 -0.236029 0)
(0.0385148 -0.250377 0)
(0.0404844 -0.265975 0)
(0.0426498 -0.282907 0)
(0.0450033 -0.301264 0)
(0.0474974 -0.3211 0)
(0.0500848 -0.342461 0)
(0.0527922 -0.365328 0)
(0.0557373 -0.389743 0)
(0.0590652 -0.415816 0)
(0.0628674 -0.443715 0)
(0.0671112 -0.473578 0)
(0.0716865 -0.505463 0)
(0.0764886 -0.539331 0)
(0.0814493 -0.575181 0)
(0.0865875 -0.612996 0)
(0.0919331 -0.652908 0)
(0.0975484 -0.695025 0)
(0.103489 -0.739534 0)
(0.109801 -0.786515 0)
(0.116488 -0.8361 0)
(0.123531 -0.8883 0)
(0.130866 -0.943203 0)
(0.138363 -1.00073 0)
(0.145797 -1.06091 0)
(0.152907 -1.12366 0)
(0.159261 -1.18878 0)
(0.164463 -1.25597 0)
(0.168102 -1.32523 0)
(0.169573 -1.39565 0)
(0.168237 -1.46591 0)
(0.162312 -1.53243 0)
(0.148887 -1.59401 0)
(0.126498 -1.64851 0)
(0.0921219 -1.68794 0)
(0.0468059 -1.70834 0)
(-0.010964 -1.69907 0)
(-0.0743462 -1.64515 0)
(-0.150849 -1.52788 0)
(-0.12051 -1.31576 0)
(-0.112711 -1.32899 0)
(-3.48913e-06 0.00180228 0)
(-1.95246e-05 0.00481525 0)
(-5.54979e-05 0.00721342 0)
(-0.000109977 0.00899185 0)
(-0.000178167 0.0101456 0)
(-0.000254608 0.0106789 0)
(-0.000334791 0.0106012 0)
(-0.000414007 0.00992662 0)
(-0.000487973 0.00867362 0)
(-0.000553698 0.00686702 0)
(-0.00060788 0.00453425 0)
(-0.000648671 0.00170597 0)
(-0.000673867 -0.00158573 0)
(-0.000680885 -0.00530636 0)
(-0.000667496 -0.00941947 0)
(-0.000631174 -0.0138858 0)
(-0.00057032 -0.0186636 0)
(-0.000482523 -0.0237084 0)
(-0.000366448 -0.0289731 0)
(-0.00022103 -0.034409 0)
(-4.54457e-05 -0.0399649 0)
(0.000160921 -0.0455888 0)
(0.000398125 -0.0512276 0)
(0.000666241 -0.0568297 0)
(0.000964035 -0.0623455 0)
(0.00129251 -0.0677296 0)
(0.00164505 -0.0729425 0)
(0.00203527 -0.07795 0)
(0.00242968 -0.0827245 0)
(0.00285704 -0.0872552 0)
(0.00337467 -0.0915339 0)
(0.00374065 -0.0955404 0)
(0.00439823 -0.0992937 0)
(0.00471017 -0.102779 0)
(0.00547733 -0.106046 0)
(0.00576621 -0.109068 0)
(0.00657392 -0.111932 0)
(0.00691307 -0.114594 0)
(0.00766212 -0.117174 0)
(0.00812978 -0.119615 0)
(0.00875889 -0.122058 0)
(0.00934247 -0.12445 0)
(0.00992268 -0.126943 0)
(0.0104686 -0.129467 0)
(0.0111793 -0.132256 0)
(0.0115422 -0.135103 0)
(0.0123885 -0.138447 0)
(0.0128373 -0.141933 0)
(0.0132498 -0.145912 0)
(0.0144727 -0.150631 0)
(0.0140774 -0.155261 0)
(0.0156706 -0.161426 0)
(0.0158341 -0.167612 0)
(0.0166186 -0.174771 0)
(0.01713 -0.182401 0)
(0.0187693 -0.192084 0)
(0.0192326 -0.20086 0)
(0.0200296 -0.212131 0)
(0.0208178 -0.224189 0)
(0.0219058 -0.237362 0)
(0.0232129 -0.251775 0)
(0.0245955 -0.267587 0)
(0.0259338 -0.284804 0)
(0.0271492 -0.303336 0)
(0.0283226 -0.323147 0)
(0.0297346 -0.344386 0)
(0.031648 -0.367327 0)
(0.034095 -0.392187 0)
(0.0368876 -0.418967 0)
(0.0397517 -0.447525 0)
(0.0424842 -0.477724 0)
(0.0450115 -0.509564 0)
(0.0473693 -0.543182 0)
(0.0497136 -0.578783 0)
(0.0521961 -0.616556 0)
(0.0549513 -0.656651 0)
(0.0580567 -0.699146 0)
(0.0615392 -0.744109 0)
(0.0653692 -0.79157 0)
(0.0694931 -0.841566 0)
(0.0738421 -0.894114 0)
(0.0783871 -0.949254 0)
(0.0830385 -1.00686 0)
(0.0876352 -1.06684 0)
(0.0919638 -1.12902 0)
(0.0957636 -1.19324 0)
(0.098701 -1.25928 0)
(0.100396 -1.32665 0)
(0.100811 -1.3951 0)
(0.10115 -1.4641 0)
(0.0989319 -1.52284 0)
(0.0902051 -1.57712 0)
(0.0752263 -1.62315 0)
(0.0552665 -1.65628 0)
(0.0296251 -1.66925 0)
(-0.00111274 -1.65383 0)
(-0.0371084 -1.60148 0)
(-0.0721353 -1.50145 0)
(-0.0864909 -1.39643 0)
(-0.188918 -0.779961 0)
(-0.000177904 0.00871979 0)
(-0.000199294 0.0069054 0)
(-0.000216694 0.00456421 0)
(-0.00022903 0.00172611 0)
(-0.000235965 -0.00157681 0)
(-0.00023679 -0.00531034 0)
(-0.000230702 -0.00943787 0)
(-0.000217085 -0.01392 0)
(-0.00019496 -0.0187149 0)
(-0.000164022 -0.0237778 0)
(-0.000123518 -0.0290617 0)
(-7.31766e-05 -0.0345174 0)
(-1.28057e-05 -0.0400937 0)
(5.76909e-05 -0.0457379 0)
(0.000138285 -0.0513973 0)
(0.000228904 -0.0570193 0)
(0.000328883 -0.0625546 0)
(0.000438729 -0.0679571 0)
(0.000555248 -0.073188 0)
(0.000684266 -0.0782106 0)
(0.000816177 -0.0830042 0)
(0.000943822 -0.0875528 0)
(0.00114337 -0.0918442 0)
(0.00121363 -0.0958642 0)
(0.00148979 -0.0996276 0)
(0.00152675 -0.103127 0)
(0.00183103 -0.1064 0)
(0.00189687 -0.109437 0)
(0.00214971 -0.112301 0)
(0.00232173 -0.114979 0)
(0.00245837 -0.117549 0)
(0.00275745 -0.120011 0)
(0.00280042 -0.122434 0)
(0.00314339 -0.124852 0)
(0.0032098 -0.127314 0)
(0.00345276 -0.129873 0)
(0.00368622 -0.132615 0)
(0.00370124 -0.13551 0)
(0.00417927 -0.138822 0)
(0.00393207 -0.142259 0)
(0.00456348 -0.146436 0)
(0.00440284 -0.150775 0)
(0.00448246 -0.155853 0)
(0.00524503 -0.161812 0)
(0.00447323 -0.167812 0)
(0.0052724 -0.175307 0)
(0.00554375 -0.183478 0)
(0.00597387 -0.19255 0)
(0.00570481 -0.201212 0)
(0.00635407 -0.212508 0)
(0.00693884 -0.224806 0)
(0.00768464 -0.238458 0)
(0.00817217 -0.253147 0)
(0.00815763 -0.268813 0)
(0.0080519 -0.285474 0)
(0.00844215 -0.303532 0)
(0.00959908 -0.323558 0)
(0.0113015 -0.345698 0)
(0.0130469 -0.369627 0)
(0.014401 -0.394926 0)
(0.015184 -0.421427 0)
(0.0154674 -0.449282 0)
(0.0154659 -0.478817 0)
(0.0154309 -0.510336 0)
(0.0155716 -0.544025 0)
(0.0159918 -0.579963 0)
(0.0167278 -0.618188 0)
(0.0177485 -0.658715 0)
(0.0190019 -0.701568 0)
(0.020427 -0.746788 0)
(0.0219823 -0.794432 0)
(0.0235982 -0.844528 0)
(0.0252004 -0.897118 0)
(0.0268543 -0.952315 0)
(0.0285989 -1.00988 0)
(0.0303012 -1.06977 0)
(0.0318621 -1.13175 0)
(0.0331103 -1.19539 0)
(0.0336713 -1.26026 0)
(0.0329964 -1.32598 0)
(0.0308809 -1.39334 0)
(0.0367195 -1.47142 0)
(0.0424243 -1.5205 0)
(0.0370896 -1.56753 0)
(0.0302524 -1.60963 0)
(0.0233275 -1.63784 0)
(0.0150282 -1.64665 0)
(0.00633331 -1.62983 0)
(-0.00316725 -1.58185 0)
(-0.00753496 -1.49561 0)
(-0.0328066 -1.34879 0)
(-0.0970539 -1.38453 0)
(-5.36877e-05 0.000137838 0)
(-0.000259064 8.06651e-05 0)
(-0.000631612 0.000166685 0)
(-0.00106203 0.000209996 0)
(-0.00151861 0.000227573 0)
(-0.00195117 0.000227415 0)
(-0.00233237 0.000173523 0)
(-0.00260568 0.000104568 0)
(-0.00265772 1.0533e-05 0)
(-0.00242932 -0.000121223 0)
(-0.00188346 -0.000291222 0)
(-0.000982354 -0.00049487 0)
(0.000317164 -0.000746494 0)
(0.0020763 -0.00105073 0)
(0.00436523 -0.00139076 0)
(0.00723432 -0.0017424 0)
(0.0107159 -0.00209558 0)
(0.0149306 -0.00261378 0)
(0.0199532 -0.0031383 0)
(0.0257136 -0.00358019 0)
(0.0321422 -0.00395456 0)
(0.0392388 -0.00430457 0)
(0.0468816 -0.00452712 0)
(0.0550221 -0.00480269 0)
(0.0638223 -0.00501629 0)
(0.072557 -0.00529331 0)
(0.0832145 -0.00537706 0)
(0.0920134 -0.00516484 0)
(0.101113 -0.00478678 0)
(0.11024 -0.00434108 0)
(0.119 -0.00385699 0)
(0.127395 -0.00337836 0)
(0.135434 -0.00296927 0)
(0.14322 -0.00269232 0)
(0.150817 -0.00259579 0)
(0.158368 -0.00275739 0)
(0.166127 -0.00312166 0)
(0.174333 -0.00358095 0)
(0.183106 -0.00417454 0)
(0.192579 -0.00492523 0)
(0.203147 -0.00570241 0)
(0.214255 -0.00652762 0)
(0.227174 -0.00758953 0)
(0.241178 -0.00874299 0)
(0.256223 -0.00959266 0)
(0.272637 -0.0101982 0)
(0.289557 -0.0104269 0)
(0.307632 -0.0106558 0)
(0.326009 -0.0108201 0)
(0.345436 -0.0110323 0)
(0.365535 -0.0113674 0)
(0.386089 -0.0117496 0)
(0.408164 -0.0112806 0)
(0.429545 -0.0116068 0)
(0.452723 -0.0120555 0)
(0.476737 -0.0132751 0)
(0.501517 -0.0140121 0)
(0.531814 -0.0158955 0)
(0.552836 -0.0145222 0)
(0.598777 -0.015245 0)
(0.621115 -0.0249776 0)
(0.666232 -0.0332648 0)
(0.709239 -0.0267429 0)
(0.750258 -0.0253265 0)
(0.789385 -0.0245774 0)
(0.835988 -0.0232377 0)
(0.876114 -0.0231764 0)
(0.919505 -0.0223205 0)
(0.964306 -0.0213188 0)
(1.01066 -0.0200357 0)
(1.0578 -0.0201488 0)
(1.10531 -0.0211621 0)
(1.15469 -0.0246328 0)
(1.20665 -0.0272496 0)
(1.26143 -0.0292352 0)
(1.31901 -0.0305314 0)
(1.37909 -0.0312635 0)
(1.44124 -0.0316858 0)
(1.50476 -0.031705 0)
(1.56885 -0.0314986 0)
(1.63344 -0.0315203 0)
(1.69872 -0.0312385 0)
(1.76416 -0.0300846 0)
(1.82893 -0.0291456 0)
(1.8932 -0.0287376 0)
(1.95797 -0.0284896 0)
(2.02403 -0.0287224 0)
(2.09183 -0.029245 0)
(2.16197 -0.0292967 0)
(2.23426 -0.0277361 0)
(2.30307 -0.0246433 0)
(2.37132 -0.0216427 0)
(2.42193 -0.0206455 0)
(2.49902 -0.0195449 0)
(2.54089 -0.0143432 0)
(2.57167 -0.00476155 0)
(2.59461 0.00805045 0)
(2.60211 0.0227348 0)
(2.58329 0.0402068 0)
(2.54413 0.0581836 0)
(-0.000104691 7.726e-05 0)
(-6.22987e-05 0.000596974 0)
(-0.000672439 0.000643499 0)
(-0.00117381 0.00067407 0)
(-0.00162182 0.000673745 0)
(-0.00206562 0.000472821 0)
(-0.0024615 0.000534716 0)
(-0.00276283 0.000150438 0)
(-0.00292942 -0.000246901 0)
(-0.0029011 -0.000667326 0)
(-0.00266549 -0.00114417 0)
(-0.00218757 -0.0016481 0)
(-0.00144553 -0.00223792 0)
(-0.000366525 -0.00294802 0)
(0.00111177 -0.00374348 0)
(0.00300994 -0.00461558 0)
(0.00524477 -0.00550616 0)
(0.00802708 -0.00650353 0)
(0.0115733 -0.0075385 0)
(0.015718 -0.00859456 0)
(0.0203391 -0.00961696 0)
(0.0255613 -0.0104893 0)
(0.0312408 -0.01134 0)
(0.0374077 -0.0121403 0)
(0.0441705 -0.0127254 0)
(0.051582 -0.0130893 0)
(0.0593982 -0.0133269 0)
(0.0674577 -0.0134749 0)
(0.0759405 -0.0135591 0)
(0.0848574 -0.0135601 0)
(0.0941097 -0.013454 0)
(0.103642 -0.0132757 0)
(0.11345 -0.013075 0)
(0.123542 -0.0129147 0)
(0.133906 -0.0128406 0)
(0.144622 -0.0130821 0)
(0.155823 -0.0136575 0)
(0.167452 -0.0142951 0)
(0.17942 -0.0150519 0)
(0.191852 -0.0160854 0)
(0.204727 -0.0173664 0)
(0.218708 -0.0188722 0)
(0.233618 -0.0206134 0)
(0.247948 -0.0217505 0)
(0.263932 -0.023312 0)
(0.280835 -0.0248256 0)
(0.297495 -0.0263208 0)
(0.316894 -0.0275752 0)
(0.334359 -0.0292033 0)
(0.356169 -0.0304029 0)
(0.376144 -0.0319971 0)
(0.399382 -0.0333199 0)
(0.423292 -0.0347242 0)
(0.447505 -0.0362698 0)
(0.474752 -0.0374891 0)
(0.502352 -0.0390939 0)
(0.530902 -0.0413319 0)
(0.566376 -0.0429697 0)
(0.594753 -0.0470378 0)
(0.634476 -0.0492783 0)
(0.66976 -0.0516849 0)
(0.703223 -0.0556244 0)
(0.738177 -0.0590067 0)
(0.780715 -0.0618691 0)
(0.830402 -0.0615308 0)
(0.875336 -0.0750137 0)
(0.926404 -0.0593598 0)
(0.978433 -0.0698246 0)
(1.03281 -0.0752234 0)
(1.08975 -0.0776255 0)
(1.14972 -0.0794808 0)
(1.21253 -0.0811711 0)
(1.27763 -0.0829487 0)
(1.34425 -0.0853229 0)
(1.41221 -0.0885204 0)
(1.48172 -0.0921543 0)
(1.55283 -0.0954741 0)
(1.62573 -0.0981972 0)
(1.70001 -0.09969 0)
(1.77449 -0.100078 0)
(1.84944 -0.101245 0)
(1.92627 -0.103049 0)
(2.0038 -0.103134 0)
(2.08458 -0.102596 0)
(2.16426 -0.103004 0)
(2.24542 -0.104496 0)
(2.32872 -0.107432 0)
(2.41346 -0.111843 0)
(2.50175 -0.116296 0)
(2.59295 -0.114355 0)
(2.67459 -0.10697 0)
(2.75512 -0.10091 0)
(2.82724 -0.0929252 0)
(2.88975 -0.0814801 0)
(2.94577 -0.0688803 0)
(3.00044 -0.0529345 0)
(3.05432 -0.0318021 0)
(3.10389 -0.00609685 0)
(3.13867 0.0239396 0)
(3.18202 0.0591689 0)
(-6.19289e-05 0.00027637 0)
(-0.000169303 0.000841146 0)
(-0.000649796 0.0010446 0)
(-0.000976481 0.00119144 0)
(-0.00170449 0.00120621 0)
(-0.00222589 0.00116423 0)
(-0.00298535 0.000958047 0)
(-0.00339908 0.000660009 0)
(-0.0039498 0.000184397 0)
(-0.00407355 -0.000390282 0)
(-0.00454681 -0.00107872 0)
(-0.00439538 -0.00185729 0)
(-0.004062 -0.00273093 0)
(-0.00350429 -0.00368049 0)
(-0.00265292 -0.0047301 0)
(-0.00149258 -0.00574632 0)
(-0.000105014 -0.0067022 0)
(0.00159954 -0.0091855 0)
(0.00381543 -0.0105943 0)
(0.00619825 -0.0119456 0)
(0.0089845 -0.0132576 0)
(0.0120561 -0.0152653 0)
(0.0153176 -0.0154145 0)
(0.0192363 -0.0178694 0)
(0.0237043 -0.0192659 0)
(0.0284678 -0.0214547 0)
(0.0332537 -0.0210023 0)
(0.0383742 -0.0214207 0)
(0.0440804 -0.0217732 0)
(0.0503728 -0.0220261 0)
(0.0571539 -0.0222249 0)
(0.0643627 -0.0223999 0)
(0.0719853 -0.0225818 0)
(0.0800143 -0.022812 0)
(0.088258 -0.0231125 0)
(0.0967833 -0.023556 0)
(0.105983 -0.0243638 0)
(0.115718 -0.0255639 0)
(0.125541 -0.0269649 0)
(0.135476 -0.0285486 0)
(0.145646 -0.0303466 0)
(0.156117 -0.0324713 0)
(0.166859 -0.034632 0)
(0.177976 -0.03695 0)
(0.189713 -0.0392579 0)
(0.201902 -0.0412198 0)
(0.214331 -0.0430453 0)
(0.227127 -0.0450173 0)
(0.240508 -0.0472431 0)
(0.254639 -0.0496035 0)
(0.269534 -0.0519959 0)
(0.285252 -0.0544542 0)
(0.301918 -0.0568787 0)
(0.319659 -0.059361 0)
(0.338281 -0.0608695 0)
(0.358099 -0.0693117 0)
(0.378841 -0.0730588 0)
(0.401229 -0.0764629 0)
(0.423716 -0.0820326 0)
(0.449701 -0.0865755 0)
(0.474751 -0.09231 0)
(0.500954 -0.0977884 0)
(0.534674 -0.0985193 0)
(0.560002 -0.107928 0)
(0.590634 -0.107919 0)
(0.622716 -0.113719 0)
(0.657953 -0.118891 0)
(0.697952 -0.124065 0)
(0.739627 -0.128604 0)
(0.78201 -0.132672 0)
(0.825918 -0.13692 0)
(0.871802 -0.141765 0)
(0.919856 -0.147296 0)
(0.970224 -0.153177 0)
(1.02294 -0.159149 0)
(1.07814 -0.164622 0)
(1.13489 -0.169459 0)
(1.19447 -0.173964 0)
(1.25604 -0.17552 0)
(1.31657 -0.175881 0)
(1.37876 -0.179658 0)
(1.44548 -0.183819 0)
(1.51421 -0.184844 0)
(1.58887 -0.184311 0)
(1.65482 -0.18466 0)
(1.72493 -0.187002 0)
(1.79703 -0.190278 0)
(1.87434 -0.196374 0)
(1.95444 -0.20523 0)
(2.02641 -0.199593 0)
(2.09398 -0.185394 0)
(2.17508 -0.179518 0)
(2.24625 -0.164468 0)
(2.33246 -0.143234 0)
(2.4308 -0.132288 0)
(2.53685 -0.122563 0)
(2.64606 -0.104169 0)
(2.75243 -0.0761911 0)
(2.85271 -0.040396 0)
(2.94288 0.00591547 0)
(-5.21221e-05 0.00034956 0)
(-0.000179167 0.00112485 0)
(-0.000609959 0.00146044 0)
(-0.00101778 0.00178831 0)
(-0.00172254 0.0017877 0)
(-0.0022242 0.00180053 0)
(-0.00299927 0.00149827 0)
(-0.00348005 0.00118307 0)
(-0.00412583 0.00046944 0)
(-0.00459977 1.99549e-05 0)
(-0.00498491 -0.000719472 0)
(-0.00507861 -0.00172183 0)
(-0.00512612 -0.00285023 0)
(-0.00501425 -0.00430979 0)
(-0.00465095 -0.00564058 0)
(-0.00407973 -0.00743406 0)
(-0.00298443 -0.0084803 0)
(-0.00170003 -0.0110616 0)
(-0.00110503 -0.0127921 0)
(0.0019417 -0.0140827 0)
(0.00175231 -0.0160351 0)
(0.00592719 -0.017014 0)
(0.00707647 -0.0188219 0)
(0.0120218 -0.0201166 0)
(0.010956 -0.021716 0)
(0.0151193 -0.022954 0)
(0.0198709 -0.0241642 0)
(0.0244728 -0.0252928 0)
(0.0295976 -0.0262579 0)
(0.0352758 -0.0271753 0)
(0.0413222 -0.0277232 0)
(0.0477333 -0.0283001 0)
(0.0545046 -0.0288356 0)
(0.0616745 -0.0293785 0)
(0.0689246 -0.0295514 0)
(0.0774032 -0.0318089 0)
(0.0847567 -0.033825 0)
(0.0924362 -0.0338873 0)
(0.100241 -0.0350413 0)
(0.108114 -0.0369071 0)
(0.115909 -0.0388552 0)
(0.123837 -0.0412136 0)
(0.131769 -0.0434456 0)
(0.139755 -0.0460125 0)
(0.148877 -0.0491558 0)
(0.15779 -0.0512212 0)
(0.165892 -0.0526873 0)
(0.173924 -0.0546149 0)
(0.182601 -0.0570681 0)
(0.191969 -0.0599149 0)
(0.201853 -0.0629308 0)
(0.212265 -0.0662932 0)
(0.223369 -0.0696786 0)
(0.235133 -0.0729454 0)
(0.247794 -0.0765532 0)
(0.261001 -0.0809512 0)
(0.274347 -0.0859163 0)
(0.288695 -0.0910361 0)
(0.303959 -0.0966824 0)
(0.319827 -0.102577 0)
(0.336551 -0.107916 0)
(0.353715 -0.114062 0)
(0.371551 -0.120865 0)
(0.39322 -0.127531 0)
(0.414409 -0.133418 0)
(0.436065 -0.1396 0)
(0.458991 -0.144954 0)
(0.48353 -0.150753 0)
(0.50915 -0.157192 0)
(0.536113 -0.16374 0)
(0.565089 -0.170342 0)
(0.59622 -0.177139 0)
(0.629304 -0.184265 0)
(0.663926 -0.191531 0)
(0.700398 -0.19949 0)
(0.738254 -0.206746 0)
(0.777839 -0.213867 0)
(0.822146 -0.223244 0)
(0.864447 -0.224135 0)
(0.908303 -0.221933 0)
(0.959585 -0.231852 0)
(1.0156 -0.243084 0)
(1.07359 -0.245707 0)
(1.13564 -0.244642 0)
(1.20452 -0.246972 0)
(1.28079 -0.253625 0)
(1.35663 -0.261304 0)
(1.44772 -0.267188 0)
(1.49827 -0.269056 0)
(1.54019 -0.268142 0)
(1.70591 -0.267787 0)
(1.78941 -0.267152 0)
(1.9073 -0.267258 0)
(2.07335 -0.269133 0)
(2.20996 -0.267053 0)
(2.34236 -0.256117 0)
(2.47909 -0.235255 0)
(2.61318 -0.204191 0)
(2.74359 -0.161946 0)
(2.86948 -0.106672 0)
(-4.72947e-05 0.000484993 0)
(-0.00020741 0.0013827 0)
(-0.0005766 0.0019294 0)
(-0.00107487 0.0022798 0)
(-0.00164749 0.00244553 0)
(-0.00230008 0.00240161 0)
(-0.00288725 0.00221614 0)
(-0.00358005 0.00175529 0)
(-0.00405566 0.00118738 0)
(-0.00468091 0.0003457 0)
(-0.00498446 -0.000597123 0)
(-0.00528859 -0.00178055 0)
(-0.00531675 -0.00304968 0)
(-0.00525836 -0.00446434 0)
(-0.00492286 -0.00595091 0)
(-0.00442951 -0.00759518 0)
(-0.00369346 -0.00928673 0)
(-0.00257972 -0.0111857 0)
(-0.00164566 -0.0133241 0)
(-0.000369568 -0.0153352 0)
(0.00123191 -0.0172941 0)
(0.00304411 -0.0196475 0)
(0.00524138 -0.021605 0)
(0.00779167 -0.0231901 0)
(0.0110283 -0.0246963 0)
(0.0143734 -0.0268113 0)
(0.017621 -0.0289101 0)
(0.0212337 -0.0305958 0)
(0.0249966 -0.0319598 0)
(0.0297892 -0.0331615 0)
(0.0345127 -0.034267 0)
(0.0400264 -0.0353303 0)
(0.0455615 -0.0362935 0)
(0.0518263 -0.037265 0)
(0.0580954 -0.0382071 0)
(0.0652616 -0.0393333 0)
(0.0718147 -0.0402853 0)
(0.0787646 -0.0414874 0)
(0.0859288 -0.0429406 0)
(0.0935684 -0.044446 0)
(0.0997173 -0.045798 0)
(0.109605 -0.0491456 0)
(0.111694 -0.0488914 0)
(0.125548 -0.0545056 0)
(0.123133 -0.0553844 0)
(0.130764 -0.0574983 0)
(0.140412 -0.0601806 0)
(0.148808 -0.0632008 0)
(0.157253 -0.0662778 0)
(0.166344 -0.0695015 0)
(0.175473 -0.0728494 0)
(0.185029 -0.076726 0)
(0.195284 -0.0810491 0)
(0.205496 -0.0844709 0)
(0.215191 -0.0878039 0)
(0.225114 -0.0930095 0)
(0.235876 -0.0990422 0)
(0.247222 -0.104803 0)
(0.258915 -0.111503 0)
(0.271057 -0.118389 0)
(0.28325 -0.124117 0)
(0.29533 -0.130169 0)
(0.309651 -0.136879 0)
(0.324187 -0.144424 0)
(0.338501 -0.151009 0)
(0.353985 -0.157654 0)
(0.370798 -0.164897 0)
(0.388781 -0.17285 0)
(0.40801 -0.181207 0)
(0.428554 -0.189476 0)
(0.450569 -0.197588 0)
(0.474114 -0.205762 0)
(0.499428 -0.21419 0)
(0.525272 -0.222943 0)
(0.556126 -0.231905 0)
(0.579355 -0.240995 0)
(0.620747 -0.250093 0)
(0.65009 -0.258821 0)
(0.663603 -0.267692 0)
(0.761604 -0.27755 0)
(0.805076 -0.287041 0)
(0.846226 -0.295079 0)
(0.902185 -0.303765 0)
(0.967778 -0.314435 0)
(1.03984 -0.325957 0)
(1.11778 -0.336519 0)
(1.19929 -0.345704 0)
(1.28519 -0.350882 0)
(1.38136 -0.351644 0)
(1.48597 -0.363786 0)
(1.59084 -0.382315 0)
(1.70381 -0.390685 0)
(1.82624 -0.404854 0)
(1.95111 -0.421074 0)
(2.08177 -0.418988 0)
(2.22397 -0.402755 0)
(2.37379 -0.379301 0)
(2.52641 -0.34691 0)
(2.67978 -0.30194 0)
(2.83231 -0.241539 0)
(-4.50369e-05 0.000609321 0)
(-0.000212856 0.00165281 0)
(-0.000574685 0.002349 0)
(-0.00105791 0.00282439 0)
(-0.00164549 0.00304144 0)
(-0.00227426 0.0030439 0)
(-0.00290574 0.00282326 0)
(-0.00356284 0.00235005 0)
(-0.00410668 0.00169674 0)
(-0.00466214 0.000803954 0)
(-0.00500946 -0.000234993 0)
(-0.00528414 -0.00149614 0)
(-0.00536074 -0.00291851 0)
(-0.00531083 -0.00453446 0)
(-0.00506238 -0.00630717 0)
(-0.00461097 -0.00823987 0)
(-0.00392112 -0.0102879 0)
(-0.00301691 -0.0124983 0)
(-0.00185532 -0.0147746 0)
(-0.000645176 -0.0170436 0)
(0.00110663 -0.0192693 0)
(0.00305572 -0.021483 0)
(0.0052655 -0.0236028 0)
(0.00778242 -0.0256343 0)
(0.0106852 -0.0277332 0)
(0.0138663 -0.0299662 0)
(0.0172182 -0.032069 0)
(0.0208003 -0.0338776 0)
(0.0247034 -0.0354932 0)
(0.0289495 -0.0370242 0)
(0.0334949 -0.0384654 0)
(0.0383828 -0.039826 0)
(0.0434738 -0.0411126 0)
(0.0490419 -0.0423798 0)
(0.0547735 -0.0436576 0)
(0.0606267 -0.0450219 0)
(0.0667367 -0.0465148 0)
(0.072974 -0.0480051 0)
(0.0792636 -0.0494734 0)
(0.0861335 -0.0514752 0)
(0.0925455 -0.0533695 0)
(0.099583 -0.0553728 0)
(0.10575 -0.0572776 0)
(0.113389 -0.0596627 0)
(0.119354 -0.0606835 0)
(0.127277 -0.0640396 0)
(0.133369 -0.0674154 0)
(0.140152 -0.0712637 0)
(0.145567 -0.0736698 0)
(0.153799 -0.0779235 0)
(0.158868 -0.0802107 0)
(0.168893 -0.0854382 0)
(0.170591 -0.0885034 0)
(0.176841 -0.0928312 0)
(0.191084 -0.0977674 0)
(0.200045 -0.10317 0)
(0.207021 -0.108885 0)
(0.216192 -0.114852 0)
(0.227897 -0.121175 0)
(0.232126 -0.127804 0)
(0.244964 -0.134684 0)
(0.257657 -0.141597 0)
(0.268096 -0.148359 0)
(0.279665 -0.156481 0)
(0.293751 -0.164403 0)
(0.308484 -0.172454 0)
(0.324411 -0.180779 0)
(0.341764 -0.189281 0)
(0.360335 -0.198083 0)
(0.380223 -0.207217 0)
(0.401665 -0.216727 0)
(0.424889 -0.22668 0)
(0.450106 -0.237021 0)
(0.477373 -0.24788 0)
(0.507042 -0.258578 0)
(0.539176 -0.270194 0)
(0.573775 -0.282018 0)
(0.612984 -0.29123 0)
(0.654591 -0.308366 0)
(0.694483 -0.329008 0)
(0.738718 -0.337793 0)
(0.792629 -0.344674 0)
(0.851206 -0.360509 0)
(0.911581 -0.380849 0)
(0.976822 -0.398929 0)
(1.04897 -0.413987 0)
(1.12793 -0.427545 0)
(1.21421 -0.440629 0)
(1.30915 -0.455657 0)
(1.4128 -0.476067 0)
(1.52324 -0.498127 0)
(1.64097 -0.516485 0)
(1.76794 -0.532918 0)
(1.90259 -0.545163 0)
(2.04419 -0.548621 0)
(2.19524 -0.544155 0)
(2.35625 -0.531321 0)
(2.52506 -0.506167 0)
(2.69878 -0.464542 0)
(2.8747 -0.402667 0)
(-4.25257e-05 0.000732274 0)
(-0.000212158 0.00191795 0)
(-0.000560982 0.00277906 0)
(-0.00104997 0.00334583 0)
(-0.00161664 0.00365051 0)
(-0.00225293 0.00367153 0)
(-0.00287547 0.00346364 0)
(-0.00352899 0.00296299 0)
(-0.00409077 0.00225088 0)
(-0.00461662 0.00128197 0)
(-0.00501807 9.87166e-05 0)
(-0.00529615 -0.00130986 0)
(-0.00544178 -0.00293441 0)
(-0.00539211 -0.00474065 0)
(-0.00518612 -0.00672911 0)
(-0.00474772 -0.00886231 0)
(-0.00406498 -0.0111201 0)
(-0.00322687 -0.0135278 0)
(-0.0020363 -0.0159761 0)
(-0.000718383 -0.0184881 0)
(0.000898622 -0.021039 0)
(0.00283705 -0.0235823 0)
(0.00502925 -0.026089 0)
(0.00752487 -0.0285409 0)
(0.0103598 -0.0309577 0)
(0.0134946 -0.0333412 0)
(0.0168663 -0.0356349 0)
(0.0204684 -0.0377741 0)
(0.0243497 -0.0397675 0)
(0.0285397 -0.0416404 0)
(0.0330258 -0.0434017 0)
(0.037833 -0.0450628 0)
(0.0428461 -0.0466319 0)
(0.0480751 -0.0481477 0)
(0.0537487 -0.0496761 0)
(0.0592623 -0.0511843 0)
(0.0653795 -0.0528285 0)
(0.0711132 -0.0543242 0)
(0.0775187 -0.0560486 0)
(0.0835775 -0.0577412 0)
(0.0900095 -0.0596852 0)
(0.0961595 -0.0616478 0)
(0.102527 -0.063692 0)
(0.108914 -0.065988 0)
(0.115127 -0.068229 0)
(0.121793 -0.0711625 0)
(0.128204 -0.0743075 0)
(0.134501 -0.0773983 0)
(0.140509 -0.0803059 0)
(0.147168 -0.0838033 0)
(0.15339 -0.0872266 0)
(0.160268 -0.090864 0)
(0.167414 -0.0945823 0)
(0.174621 -0.099897 0)
(0.181372 -0.106034 0)
(0.188179 -0.111526 0)
(0.195817 -0.116985 0)
(0.203988 -0.12331 0)
(0.212541 -0.129618 0)
(0.221609 -0.136418 0)
(0.230944 -0.144834 0)
(0.240356 -0.153423 0)
(0.25058 -0.161432 0)
(0.262087 -0.168941 0)
(0.274664 -0.178047 0)
(0.288092 -0.187827 0)
(0.302806 -0.197662 0)
(0.318902 -0.207798 0)
(0.336392 -0.218411 0)
(0.35544 -0.229507 0)
(0.376231 -0.241035 0)
(0.398902 -0.252989 0)
(0.423589 -0.265397 0)
(0.450419 -0.27834 0)
(0.479586 -0.291775 0)
(0.511346 -0.305945 0)
(0.545727 -0.320761 0)
(0.583273 -0.336201 0)
(0.624279 -0.353972 0)
(0.667278 -0.371974 0)
(0.712852 -0.387724 0)
(0.764635 -0.404379 0)
(0.823291 -0.423501 0)
(0.886181 -0.443505 0)
(0.952368 -0.464045 0)
(1.02346 -0.485843 0)
(1.10134 -0.508773 0)
(1.18724 -0.53243 0)
(1.28206 -0.556931 0)
(1.386 -0.582866 0)
(1.49816 -0.60994 0)
(1.61839 -0.636477 0)
(1.74782 -0.661843 0)
(1.8868 -0.684947 0)
(2.03597 -0.702318 0)
(2.19723 -0.710816 0)
(2.37134 -0.707932 0)
(2.55692 -0.6901 0)
(2.75145 -0.652918 0)
(2.95196 -0.59138 0)