/*--------------------------------*- C++ -*----------------------------------*\
| =========                 |                                                 |
| \\      /  F ield         | OpenFOAM: The Open Source CFD Toolbox           |
|  \\    /   O peration     | Version:  2206                                  |
|   \\  /    A nd           | Website:  www.openfoam.com                      |
|    \\/     M anipulation  |                                                 |
\*---------------------------------------------------------------------------*/
FoamFile
{
    version     2.0;
    format      ascii;
    arch        "LSB;label=32;scalar=64";
    class       surfaceScalarField;
    location    "18.9999";
    object      ddtCorrDdt0(phi);
}
// * * * * * * * * * * * * * * * * * * * * * * * * * * * * * * * * * * * * * //

dimensions      [0 3 -2 0 0 0 0];

oriented        oriented;

internalField   nonuniform List<scalar> 
9439
(
-0.000152005
0.000234622
-8.26176e-05
-0.000293753
0.000237983
-9.62351e-05
-0.000397386
0.000173914
-7.0281e-05
-0.000467487
6.0755e-05
9.3466e-06
-0.000515825
-8.65694e-05
0.000134907
-0.00055657
-0.000254321
0.000295065
-0.000628303
-0.000473703
0.000545437
-0.000663669
-0.000841508
0.000876873
-0.000466983
-0.00128488
0.0010882
-0.000147444
-0.00133594
0.00101641
0.000131715
-0.00110735
0.000828192
0.000337626
-0.000811711
0.000605799
0.000477256
-0.000539812
0.000400183
0.000571499
-0.000318142
0.000223899
0.000635119
-0.000136021
7.24014e-05
0.000661506
1.78144e-05
-4.42017e-05
0.000670247
0.000118609
-0.00012735
0.000673536
0.000183788
-0.000187077
0.000677509
0.000225947
-0.00022992
0.000675293
0.000268498
-0.000266282
0.00067751
0.000310224
-0.00031244
0.000740738
0.000297599
-0.000360827
0.00091313
0.000185676
-0.000358067
0.00111315
6.21625e-05
-0.000262179
0.00114205
0.000126275
-0.000155182
0.000918844
0.000440982
-0.000217772
0.000549521
0.000868142
-0.000498818
0.00015933
0.00125996
-0.000869766
-0.000171565
0.00152637
-0.00119547
-0.000393181
0.00161121
-0.0013896
-0.000505132
0.00152901
-0.00141706
-0.000552007
0.00136414
-0.00131727
-0.000549896
0.00116181
-0.00116392
-0.000511816
0.00095024
-0.000988319
-0.000449993
0.000750556
-0.000812379
-0.000374522
0.000576054
-0.000651525
-0.000293076
0.000435492
-0.000516937
-0.000209515
0.000332729
-0.000416291
-0.000126182
0.000272037
-0.00035537
-5.20963e-05
0.000259905
-0.00033399
2.21083e-08
0.000279449
-0.000331567
2.36194e-05
0.000291454
-0.000315052
2.93524e-05
0.000260661
-0.000266394
1.97238e-05
0.000186629
-0.000177001
-4.50018e-05
7.86363e-05
-1.39106e-05
-0.000161368
-0.000176236
0.000292603
-0.000247515
-0.000616416
0.000702563
-0.000343302
-0.00103628
0.00113206
-0.000430997
-0.00145465
0.00154235
-0.000496716
-0.00181315
0.00187887
-0.000517467
-0.00204581
0.00206657
-0.000485622
-0.00207725
0.00204541
-0.000419968
-0.00195699
0.00189134
-0.000329313
-0.00173684
0.00164618
-0.000225727
-0.00145644
0.00135285
-0.000120906
-0.0011545
0.00104967
-2.39623e-05
-0.000862785
0.000765841
6.0649e-05
-0.000603003
0.000518392
0.000136041
-0.000384999
0.000309607
0.000206382
-0.000203863
0.000133522
0.000259766
-5.3541e-05
1.57175e-07
0.000294231
4.71368e-05
-8.16023e-05
0.000316421
0.000104229
-0.000126419
0.000331274
0.000131806
-0.000146659
0.000343201
0.000140117
-0.000152044
0.000356288
0.000135526
-0.000148613
0.000373768
0.000120789
-0.000138269
0.00039677
9.81952e-05
-0.000121198
0.000422937
7.38527e-05
-0.000100019
0.000446117
6.00477e-05
-8.3228e-05
0.000457977
7.34625e-05
-8.53222e-05
0.000450991
0.000129302
-0.000122316
0.000421375
0.000234151
-0.000204535
0.000370476
0.000381727
-0.000330828
0.000303806
0.000554197
-0.000487527
0.000228276
0.000728107
-0.000652576
0.000149812
0.000881227
-0.000802763
7.50988e-05
0.000996491
-0.000921777
7.27595e-06
0.00106503
-0.000997212
-5.5005e-05
0.00108385
-0.00102157
-0.000110559
0.00105972
-0.00100417
-0.000154595
0.00100388
-0.000959848
-0.000187393
0.0009261
-0.000893302
-0.000208676
0.000832859
-0.000811577
-0.000218473
0.000731576
-0.000721778
-0.000217541
0.000629556
-0.000630488
-0.000207195
0.00053285
-0.000543195
-0.000189254
0.000445838
-0.000463779
-0.000166067
0.000370856
-0.000394043
-0.000140333
0.00030781
-0.000333544
-0.000114888
0.000254133
-0.000279578
-9.18317e-05
0.000205257
-0.000228314
-7.17553e-05
0.000157189
-0.000177265
-5.3626e-05
0.000107645
-0.000125774
5.83321e-05
-6.90435e-05
-0.00014315
0.000377772
-0.000272658
0.000367491
-0.000381296
0.000282551
-0.000464599
0.000144058
-0.000497716
-5.34525e-05
-0.00045955
-0.000292487
-0.000396706
-0.000536547
-0.000403381
-0.000834833
-0.000309001
-0.00137926
-0.000165864
-0.00147908
3.51461e-05
-0.00130836
0.000220606
-0.00099717
0.000361995
-0.000681201
0.000464368
-0.000420515
0.000547994
-0.000219648
0.000610466
-4.46574e-05
0.000662269
6.6806e-05
0.000687296
0.000158761
0.000697723
0.00021552
0.000709031
0.00025719
0.000782632
0.000236622
0.000970257
0.000109974
0.0011904
-3.44712e-05
0.00123787
1.46999e-05
0.00102564
0.0003385
0.000656845
0.000809778
0.000259327
0.00126566
-0.000106454
0.00162574
-0.000379965
0.00179988
-0.000526465
0.00175771
-0.000590918
0.00159347
-0.000595802
0.00136903
-0.000555629
0.00112163
-0.000486262
0.000880873
-0.000401531
0.000665825
-0.000311925
0.000486447
-0.000222641
0.000346209
-0.000136824
0.000246912
-5.12856e-05
0.000186499
2.98659e-05
0.000178753
9.88647e-05
0.00021045
0.000140736
0.000249583
0.000146335
0.000255062
0.000133359
0.000199605
0.000108488
0.000103507
2.08559e-05
-8.8604e-05
-7.3119e-05
-0.000522441
-0.00018301
-0.000926387
-0.00029014
-0.00134752
-0.000382887
-0.00172041
-0.000445953
-0.00198275
-0.000456367
-0.00206684
-0.000430793
-0.00198257
-0.00037374
-0.00179389
-0.000295246
-0.00153493
-0.000206589
-0.00124315
-0.000117594
-0.00095178
-3.52946e-05
-0.000685302
3.70014e-05
-0.000457295
0.000105182
-0.000272043
0.000172488
-0.000120847
0.000220904
-1.27907e-06
0.000255013
7.012e-05
0.000280333
0.000106486
0.000301678
0.000118772
0.000323506
0.000113698
0.000348803
9.54925e-05
0.000377732
6.92663e-05
0.000406726
4.48587e-05
0.00042908
3.76931e-05
0.00043723
6.53127e-05
0.000425691
0.000140841
0.000393118
0.000266723
0.000342385
0.00043246
0.000278853
0.000617729
0.000207996
0.000798964
0.000134236
0.000954987
6.10954e-05
0.00106963
-9.02341e-06
0.00113515
-6.91393e-05
0.00114396
-0.000120412
0.00111099
-0.0001625
0.00104597
-0.000192928
0.000956529
-0.000211058
0.000850989
-0.000217206
0.000737723
-0.000212317
0.000624667
-0.000197881
0.000518415
-0.000175798
0.000423755
-0.000148315
0.000343373
-0.000117787
0.000277282
-8.67684e-05
0.000223114
-5.84821e-05
0.000176971
-3.51917e-05
0.000133899
-1.66674e-05
8.91204e-05
4.03423e-05
-0.000136707
0.000514479
-0.00026586
0.000496645
-0.000377529
0.00039422
-0.000461874
0.000228403
-0.000527216
1.18896e-05
-0.000518536
-0.000301167
-0.000423443
-0.000631639
-0.000282826
-0.00097545
-0.00029084
-0.00137125
-0.000199038
-0.00157088
-7.24348e-05
-0.00143496
7.34769e-05
-0.00114308
0.000213738
-0.000821463
0.000336372
-0.000543149
0.000427007
-0.000310283
0.000510632
-0.000128282
0.000600096
-2.26583e-05
0.000651038
0.000107818
0.00068368
0.000182878
0.000777057
0.000163813
0.000987492
2.61872e-05
0.00123002
-0.000132555
0.00129757
-0.00010202
0.00110268
0.00020959
0.000741533
0.000699646
0.00035395
0.00119736
-3.45816e-05
0.00165419
-0.000364936
0.00195609
-0.000554277
0.00198922
-0.000639746
0.00184318
-0.000652918
0.00160664
-0.000610421
0.00132653
-0.000530895
0.00104211
-0.000431591
0.00078157
-0.000327012
0.000561246
-0.000227393
0.000386828
-0.00013636
0.000255175
-5.07423e-05
0.000161294
2.85577e-05
0.000107199
0.000106521
0.00010079
0.000179969
0.000137002
0.000241711
0.000187842
0.000268153
0.00022862
0.000255193
0.000212564
0.000232438
0.000126262
0.000193713
-4.98787e-05
8.46385e-05
-0.000413366
-3.29062e-05
-0.000808842
-0.000152784
-0.00122765
-0.000265769
-0.00160742
-0.000359331
-0.00188919
-0.000408679
-0.00201749
-0.000420964
-0.00197028
-0.000398809
-0.00181604
-0.000348654
-0.00158509
-0.000279444
-0.00131236
-0.000201442
-0.00102978
-0.000123643
-0.000763101
-5.14724e-05
-0.000529466
1.40408e-05
-0.000337556
7.89378e-05
-0.000185744
0.000141005
-6.33459e-05
0.000187572
2.35528e-05
0.00022357
7.04876e-05
0.000254587
8.77557e-05
0.000285057
8.32266e-05
0.0003174
6.31496e-05
0.000350812
3.58542e-05
0.000381046
1.46255e-05
0.000401732
1.70067e-05
0.000406839
6.02062e-05
0.000393009
0.000154671
0.000360557
0.000299176
0.00031254
0.000480476
0.000252855
0.000677414
0.000185592
0.000866226
0.000114609
0.00102597
4.29397e-05
0.0011413
-2.46994e-05
0.00120279
-8.26705e-05
0.00120193
-0.000131993
0.00116032
-0.000170659
0.00108464
-0.000197264
0.000983134
-0.000211298
0.000865022
-0.000213232
0.000739657
-0.000204175
0.00061561
-0.000185677
0.000499916
-0.000159645
0.000397723
-0.000128309
0.000312036
-9.42997e-05
0.000243273
-6.03668e-05
0.000189181
-2.87857e-05
0.00014539
-8.8911e-07
0.000106002
2.29678e-05
6.52635e-05
1.65969e-05
-0.000113026
0.000627505
-0.000242599
0.000626218
-0.000349635
0.000501256
-0.000425696
0.000304464
-0.000467066
5.32596e-05
-0.000491337
-0.000276896
-0.000436608
-0.000686368
-0.000356039
-0.00105602
-0.000317079
-0.00141021
-0.000292725
-0.00159524
-0.000222254
-0.00150544
-0.000108269
-0.00125707
2.98377e-05
-0.000959569
0.000162058
-0.000675369
0.000273605
-0.00042183
0.00037871
-0.000233387
0.000463818
-0.000107767
0.000565074
6.56299e-06
0.000721304
2.66475e-05
0.000966495
-8.13771e-05
0.0012106
-0.000217919
0.0012827
-0.000204658
0.00110512
7.55658e-05
0.000782418
0.00053229
0.000439357
0.00104271
3.71366e-05
0.00159958
-0.000356495
0.00204782
-0.000594879
0.00219448
-0.000702418
0.00209676
-0.000722425
0.00186319
-0.000676118
0.00156033
-0.000585501
0.00123591
-0.000469829
0.000926435
-0.000346442
0.000658184
-0.000229899
0.000444702
-0.000124511
0.00028144
-3.63194e-05
0.000166984
3.9254e-05
8.57204e-05
0.000111857
3.4596e-05
0.000182182
3.04644e-05
0.000254643
6.45412e-05
0.000318215
0.000124269
0.000362781
0.000184054
0.000374066
0.000201279
0.000356528
0.000143801
0.000324275
-1.7626e-05
0.000224157
-0.000313248
0.000106173
-0.000690858
-2.22826e-05
-0.00109919
-0.000150771
-0.00147893
-0.000267056
-0.0017729
-0.000349843
-0.0019347
-0.000393482
-0.00192664
-0.000402795
-0.00180673
-0.00038102
-0.00160686
-0.000334448
-0.00135893
-0.000271642
-0.00109259
-0.000201442
-0.000833301
-0.000131151
-0.000599756
-6.5775e-05
-0.000402933
-5.13341e-06
-0.000246386
5.74854e-05
-0.000125965
0.000114681
-3.3643e-05
0.000162215
2.29539e-05
0.000203327
4.66436e-05
0.000242035
4.45188e-05
0.000280114
2.50701e-05
0.000316248
-2.79574e-07
0.000346297
-1.54234e-05
0.000365038
-1.7345e-06
0.000368251
5.69928e-05
0.000354087
0.000168835
0.000323258
0.000330005
0.000278005
0.000525729
0.000221678
0.000733741
0.000158015
0.000929889
9.04874e-05
0.0010935
2.231e-05
0.00120948
-4.13007e-05
0.0012664
-9.66986e-05
0.00125733
-0.000142671
0.00120629
-0.000177099
0.00111907
-0.000198916
0.00100495
-0.000208048
0.000874154
-0.000205289
0.000736898
-0.000192031
0.000602352
-0.00016994
0.000477825
-0.000140796
0.000368579
-0.00010662
0.00027786
-7.00672e-05
0.00020672
-3.43096e-05
0.000153424
-6.79714e-07
0.00011176
3.24629e-05
7.28594e-05
6.24923e-05
3.52342e-05
-7.19734e-06
-0.000118109
-0.000196864
-0.000266325
-0.000325774
-0.000338019
-0.000384229
-0.000379964
-0.000358639
-0.00036656
-0.00038523
-0.000382064
-0.000304716
-0.000185795
-5.20591e-05
9.19479e-05
0.000242291
0.000391737
0.000600123
0.000868557
0.00108925
0.00113191
0.00101502
0.000759248
0.000471117
6.38822e-05
-0.000374385
-0.000659978
-0.000791969
-0.000812769
-0.000754676
-0.00064505
-0.00051016
-0.000369876
-0.000234601
-0.000111423
-1.20717e-05
6.59424e-05
0.000139271
0.000204998
0.000262842
0.00032084
0.00038015
0.000432912
0.000463426
0.000464694
0.000431668
0.000349031
0.000232526
9.75143e-05
-4.31619e-05
-0.000176366
-0.000286021
-0.000354994
-0.000391731
-0.000395537
-0.0003712
-0.000325627
-0.000266629
-0.000201798
-0.000136898
-7.60409e-05
-1.87066e-05
4.20816e-05
9.82703e-05
0.000148721
0.000193984
0.00023585
0.000273142
0.000302373
0.000319674
0.000322226
0.000308609
0.000279262
0.000236694
0.000184397
0.000125466
6.25337e-05
-1.29276e-06
-6.00743e-05
-0.000111288
-0.000152087
-0.000180862
-0.000196806
-0.000200299
-0.00019253
-0.000175194
-0.000150188
-0.000119283
-8.40201e-05
-4.62833e-05
-7.66722e-06
0.000114808
3.27472e-05
7.13454e-05
7.04358e-05
3.51708e-05
0.000100539
5.13121e-06
-2.92907e-05
2.04907e-05
6.53057e-05
0.000104492
0.000135869
-6.02243e-06
3.25181e-07
-6.53159e-06
5.09148e-07
-7.21872e-06
6.87132e-07
-8.06638e-06
8.47654e-07
-9.04651e-06
9.80137e-07
-1.01157e-05
1.06923e-06
-1.12354e-05
1.11969e-06
-1.23204e-05
1.08498e-06
-1.32976e-05
9.77144e-07
-1.4077e-05
7.79396e-07
-1.45727e-05
4.95723e-07
-1.47022e-05
1.29506e-07
-1.4395e-05
-3.07142e-07
-1.35976e-05
-7.97468e-07
-1.22836e-05
-1.31392e-06
-1.04513e-05
-1.83238e-06
-8.22711e-06
-2.22416e-06
-5.85582e-06
-2.3713e-06
-3.5431e-06
-2.31272e-06
-1.42113e-06
-2.12198e-06
4.45256e-07
-1.86637e-06
2.02901e-06
-1.58376e-06
3.33176e-06
-1.30275e-06
4.37549e-06
-1.04374e-06
5.19402e-06
-8.18525e-07
5.83024e-06
-6.36237e-07
6.33817e-06
-5.07918e-07
6.782e-06
-4.43841e-07
7.2417e-06
-4.59685e-07
7.80145e-06
-5.59752e-07
8.54691e-06
-7.45461e-07
9.55502e-06
-1.00812e-06
1.0866e-05
-1.311e-06
1.25229e-05
-1.65687e-06
1.44455e-05
-1.92263e-06
1.64221e-05
-1.97662e-06
1.83245e-05
-1.90232e-06
2.00375e-05
-1.71308e-06
2.14486e-05
-1.41101e-06
2.2488e-05
-1.0395e-06
2.28832e-05
-3.95176e-07
2.21771e-05
7.06136e-07
2.05771e-05
1.60002e-06
1.81864e-05
2.39069e-06
1.52664e-05
2.92002e-06
1.21846e-05
3.08179e-06
9.26397e-06
2.9206e-06
6.73764e-06
2.52631e-06
2.00145e-06
4.7362e-06
-5.20438e-06
1.4177e-07
-5.12778e-06
4.32545e-07
-5.17303e-06
7.32378e-07
-5.34341e-06
1.01803e-06
-5.64225e-06
1.27899e-06
-6.04091e-06
1.46788e-06
-6.60061e-06
1.67939e-06
-7.21102e-06
1.69538e-06
-7.87284e-06
1.63896e-06
-8.56272e-06
1.46928e-06
-9.27055e-06
1.20355e-06
-9.93275e-06
7.91712e-07
-1.04955e-05
2.55618e-07
-1.09235e-05
-3.6946e-07
-1.11928e-05
-1.04465e-06
-1.13061e-05
-1.71905e-06
-1.11776e-05
-2.35265e-06
-1.06491e-05
-2.89981e-06
-9.64302e-06
-3.31883e-06
-8.15584e-06
-3.60915e-06
-6.22879e-06
-3.79342e-06
-3.92357e-06
-3.88898e-06
-1.31669e-06
-3.90962e-06
1.50691e-06
-3.86735e-06
4.45951e-06
-3.77112e-06
7.45168e-06
-3.62841e-06
1.03913e-05
-3.44751e-06
1.31797e-05
-3.23223e-06
1.57052e-05
-2.98521e-06
1.78478e-05
-2.70239e-06
1.94773e-05
-2.37489e-06
2.04555e-05
-1.98639e-06
2.06765e-05
-1.53195e-06
1.9962e-05
-9.42403e-07
1.8314e-05
-2.74586e-07
1.59511e-05
3.86254e-07
1.29882e-05
1.06055e-06
9.54377e-06
1.73135e-06
5.75923e-06
2.37353e-06
1.72566e-06
2.99406e-06
-2.25279e-06
3.58327e-06
-5.65452e-06
4.10786e-06
-8.47421e-06
4.41971e-06
-1.05857e-05
4.50222e-06
-1.19913e-05
4.32562e-06
-1.27899e-05
3.88033e-06
-1.30734e-05
3.20413e-06
-1.2929e-05
2.38193e-06
1.49413e-06
-1.24217e-05
-5.79084e-06
-3.23999e-07
-5.35737e-06
-9.36914e-10
-4.998e-06
3.73014e-07
-4.71511e-06
7.35144e-07
-4.52844e-06
1.09232e-06
-4.44934e-06
1.38878e-06
-4.47857e-06
1.70862e-06
-4.62001e-06
1.83682e-06
-4.87448e-06
1.89343e-06
-5.23949e-06
1.83429e-06
-5.70559e-06
1.66965e-06
-6.26005e-06
1.34617e-06
-6.88349e-06
8.79055e-07
-7.54926e-06
2.96307e-07
-8.22546e-06
-3.68456e-07
-8.86365e-06
-1.08086e-06
-9.40994e-06
-1.80635e-06
-9.79949e-06
-2.51026e-06
-9.95792e-06
-3.1604e-06
-9.82995e-06
-3.73712e-06
-9.38717e-06
-4.2362e-06
-8.61855e-06
-4.6576e-06
-7.52849e-06
-4.99968e-06
-6.13648e-06
-5.25936e-06
-4.47448e-06
-5.43313e-06
-2.58595e-06
-5.51694e-06
-5.27446e-07
-5.50601e-06
1.63434e-06
-5.39402e-06
3.82256e-06
-5.17342e-06
5.95441e-06
-4.83424e-06
7.9437e-06
-4.36419e-06
9.70689e-06
-3.74958e-06
1.11563e-05
-2.98138e-06
1.22676e-05
-2.05367e-06
1.29561e-05
-9.63077e-07
1.30854e-05
2.56891e-07
1.25939e-05
1.55212e-06
1.14537e-05
2.87154e-06
9.67085e-06
4.15635e-06
7.31479e-06
5.35013e-06
4.50417e-06
6.39389e-06
1.40531e-06
7.20672e-06
-1.86604e-06
7.69106e-06
-5.16036e-06
7.79654e-06
-8.33981e-06
7.50508e-06
-1.12937e-05
6.83422e-06
-1.39381e-05
5.84853e-06
-1.61784e-05
4.6222e-06
3.28483e-06
-1.79691e-05
-6.1376e-06
-9.22478e-07
-5.55595e-06
-5.82584e-07
-5.02972e-06
-1.5322e-07
-4.56826e-06
2.73691e-07
-4.18883e-06
7.12882e-07
-3.94162e-06
1.14157e-06
-3.74824e-06
1.51523e-06
-3.70892e-06
1.79751e-06
-3.80563e-06
1.99014e-06
-4.0375e-06
2.06615e-06
-4.37604e-06
2.0082e-06
-4.83275e-06
1.80288e-06
-5.40415e-06
1.45045e-06
-6.07317e-06
9.6533e-07
-6.81077e-06
3.69147e-07
-7.57686e-06
-3.14776e-07
-8.3201e-06
-1.06312e-06
-8.98157e-06
-1.84879e-06
-9.50423e-06
-2.63774e-06
-9.84127e-06
-3.40007e-06
-9.95902e-06
-4.11845e-06
-9.83597e-06
-4.78065e-06
-9.4617e-06
-5.37395e-06
-8.83584e-06
-5.88522e-06
-7.96813e-06
-6.30084e-06
-6.87796e-06
-6.60711e-06
-5.59303e-06
-6.79095e-06
-4.14718e-06
-6.83986e-06
-2.5791e-06
-6.7415e-06
-9.3023e-07
-6.48312e-06
7.57118e-07
-6.05154e-06
2.44579e-06
-5.43826e-06
4.09844e-06
-4.63403e-06
5.68635e-06
-3.64159e-06
7.20576e-06
-2.48249e-06
8.64684e-06
-1.18418e-06
9.98547e-06
2.1349e-07
1.11982e-05
1.65877e-06
1.22637e-05
3.09084e-06
1.31688e-05
4.44507e-06
1.39089e-05
5.65382e-06
1.44747e-05
6.64092e-06
1.48358e-05
7.32989e-06
1.49621e-05
7.67024e-06
1.48264e-05
7.64082e-06
1.44092e-05
7.25143e-06
1.37092e-05
6.5485e-06
1.27253e-05
5.60607e-06
4.52465e-06
1.14855e-05
-5.93916e-06
-1.58772e-06
-5.29904e-06
-1.2227e-06
-4.69674e-06
-7.55523e-07
-4.17684e-06
-2.46204e-07
-3.7602e-06
2.96236e-07
-3.46316e-06
8.44535e-07
-3.29037e-06
1.34244e-06
-3.26656e-06
1.77369e-06
-3.39491e-06
2.1185e-06
-3.66792e-06
2.33916e-06
-4.06852e-06
2.4088e-06
-4.59547e-06
2.32983e-06
-5.2316e-06
2.08658e-06
-5.95462e-06
1.68835e-06
-6.73859e-06
1.15312e-06
-7.54714e-06
4.93774e-07
-8.32918e-06
-2.81077e-07
-9.03021e-06
-1.14776e-06
-9.60924e-06
-2.0587e-06
-1.00316e-05
-2.97766e-06
-1.02694e-05
-3.88074e-06
-1.03036e-05
-4.74638e-06
-1.01254e-05
-5.55213e-06
-9.73456e-06
-6.27609e-06
-9.13773e-06
-6.89767e-06
-8.34722e-06
-7.39761e-06
-7.3797e-06
-7.75847e-06
-6.25441e-06
-7.96516e-06
-4.99095e-06
-8.00496e-06
-3.60866e-06
-7.8654e-06
-2.12925e-06
-7.53095e-06
-5.79677e-07
-6.98783e-06
1.03549e-06
-6.2492e-06
2.73516e-06
-5.34125e-06
4.53121e-06
-4.27854e-06
6.42243e-06
-3.0754e-06
8.40412e-06
-1.7682e-06
1.04724e-05
-4.09549e-07
1.26184e-05
9.44825e-07
1.48264e-05
2.23712e-06
1.70713e-05
3.40892e-06
1.93138e-05
4.39841e-06
2.14923e-05
5.15136e-06
2.3535e-05
5.6276e-06
2.5371e-05
5.80476e-06
2.69316e-05
5.69086e-06
2.81585e-05
5.32161e-06
2.90078e-05
4.7568e-06
4.07471e-06
2.94577e-05
-5.58346e-06
-2.38413e-06
-4.84264e-06
-1.96353e-06
-4.16603e-06
-1.43213e-06
-3.59221e-06
-8.20023e-07
-3.1466e-06
-1.4937e-07
-2.84024e-06
5.38167e-07
-2.70024e-06
1.20244e-06
-2.72514e-06
1.79859e-06
-2.92856e-06
2.32192e-06
-3.32418e-06
2.73477e-06
-3.89249e-06
2.97712e-06
-4.6007e-06
3.03804e-06
-5.41129e-06
2.89717e-06
-6.29611e-06
2.57317e-06
-7.23058e-06
2.08759e-06
-8.1735e-06
1.4367e-06
-9.05678e-06
6.02195e-07
-9.81133e-06
-3.93212e-07
-1.04169e-05
-1.45312e-06
-1.0849e-05
-2.54558e-06
-1.10851e-05
-3.64467e-06
-1.11106e-05
-4.72087e-06
-1.09194e-05
-5.74329e-06
-1.05132e-05
-6.68233e-06
-9.90033e-06
-7.51052e-06
-9.09492e-06
-8.20302e-06
-8.11483e-06
-8.73856e-06
-6.97941e-06
-9.10058e-06
-5.70446e-06
-9.2799e-06
-4.28945e-06
-9.28042e-06
-2.76894e-06
-9.05146e-06
-1.16819e-06
-8.58858e-06
5.04501e-07
-7.9219e-06
2.28027e-06
-7.11702e-06
4.19711e-06
-6.19539e-06
6.23621e-06
-5.1145e-06
8.40612e-06
-3.93812e-06
1.07128e-05
-2.71621e-06
1.31589e-05
-1.50134e-06
1.57349e-05
-3.38809e-07
1.84204e-05
7.23338e-07
2.11813e-05
1.63757e-06
2.39722e-05
2.36047e-06
2.67345e-05
2.86522e-06
2.93935e-05
3.14576e-06
3.18744e-05
3.21006e-06
3.41103e-05
3.08568e-06
3.60482e-05
2.81891e-06
2.47079e-06
3.76521e-05
-5.0738e-06
-3.31654e-06
-4.20269e-06
-2.83464e-06
-3.4258e-06
-2.20902e-06
-2.78392e-06
-1.4619e-06
-2.30891e-06
-6.24387e-07
-2.02841e-06
2.57674e-07
-1.95822e-06
1.13225e-06
-2.10504e-06
1.94542e-06
-2.45289e-06
2.66976e-06
-2.99252e-06
3.2744e-06
-3.72009e-06
3.70469e-06
-4.59238e-06
3.91032e-06
-5.5653e-06
3.8701e-06
-6.61215e-06
3.62002e-06
-7.7202e-06
3.19563e-06
-8.83927e-06
2.55578e-06
-9.86721e-06
1.63014e-06
-1.07372e-05
4.76757e-07
-1.14383e-05
-7.51993e-07
-1.194e-05
-2.04388e-06
-1.22158e-05
-3.36884e-06
-1.22497e-05
-4.68703e-06
-1.20358e-05
-5.95717e-06
-1.15781e-05
-7.14003e-06
-1.08888e-05
-8.19982e-06
-9.98664e-06
-9.10517e-06
-8.89525e-06
-9.82995e-06
-7.64235e-06
-1.03535e-05
-6.26362e-06
-1.06586e-05
-4.81702e-06
-1.0727e-05
-3.26175e-06
-1.06067e-05
-1.53615e-06
-1.03142e-05
3.79274e-07
-9.83733e-06
2.3989e-06
-9.13665e-06
4.45001e-06
-8.2465e-06
6.59563e-06
-7.26012e-06
8.85038e-06
-6.19287e-06
1.12251e-05
-5.09096e-06
1.37328e-05
-4.00897e-06
1.63692e-05
-2.97527e-06
1.91222e-05
-2.02968e-06
2.19701e-05
-1.21035e-06
2.48782e-05
-5.47549e-07
2.7803e-05
-5.9601e-08
3.06979e-05
2.5086e-07
3.35114e-05
3.96588e-07
3.61924e-05
4.04594e-07
3.86965e-05
3.14879e-07
1.74532e-07
4.09927e-05
-4.45624e-06
-4.44115e-06
-3.41144e-06
-3.87945e-06
-2.49468e-06
-3.12578e-06
-1.75348e-06
-2.2031e-06
-1.2306e-06
-1.14727e-06
-9.59167e-07
-1.37583e-08
-9.5613e-07
1.12921e-06
-1.22304e-06
2.21233e-06
-1.74672e-06
3.19345e-06
-2.5109e-06
4.03859e-06
-3.49234e-06
4.68614e-06
-4.63762e-06
5.05561e-06
-5.88195e-06
5.11443e-06
-7.19136e-06
4.92944e-06
-8.55217e-06
4.55644e-06
-9.88937e-06
3.89298e-06
-1.10804e-05
2.82114e-06
-1.20874e-05
1.48382e-06
-1.28875e-05
4.80359e-08
-1.34434e-05
-1.48796e-06
-1.37275e-05
-3.08473e-06
-1.3724e-05
-4.69054e-06
-1.343e-05
-6.25119e-06
-1.2854e-05
-7.71594e-06
-1.20144e-05
-9.03945e-06
-1.09367e-05
-1.01829e-05
-9.65124e-06
-1.11154e-05
-8.19032e-06
-1.18144e-05
-6.58206e-06
-1.22669e-05
-4.8375e-06
-1.24716e-05
-3.00559e-06
-1.24387e-05
-1.12232e-06
-1.21974e-05
7.88163e-07
-1.17478e-05
2.76445e-06
-1.11129e-05
4.83249e-06
-1.03145e-05
6.9757e-06
-9.40333e-06
9.21836e-06
-8.43553e-06
1.1575e-05
-7.44765e-06
1.40297e-05
-6.46361e-06
1.65763e-05
-5.52186e-06
1.92292e-05
-4.68261e-06
2.19807e-05
-3.96185e-06
2.48081e-05
-3.37492e-06
2.76843e-05
-2.93579e-06
3.0578e-05
-2.64283e-06
3.34536e-05
-2.47909e-06
3.62733e-05
-2.41506e-06
3.89981e-05
-2.4099e-06
-2.4102e-06
4.15828e-05
-3.73536e-06
-5.8215e-06
-2.45344e-06
-5.16137e-06
-1.33632e-06
-4.2429e-06
-4.4603e-07
-3.09339e-06
1.62349e-07
-1.75565e-06
4.45991e-07
-2.97399e-07
3.83227e-07
1.19198e-06
-2.60021e-08
2.62156e-06
-7.62233e-07
3.92968e-06
-1.79728e-06
5.07364e-06
-3.09362e-06
5.98248e-06
-4.58482e-06
6.54681e-06
-6.18742e-06
6.71703e-06
-7.85206e-06
6.59408e-06
-9.55526e-06
6.25964e-06
-1.12033e-05
5.54103e-06
-1.26557e-05
4.27356e-06
-1.38795e-05
2.70757e-06
-1.48302e-05
9.98756e-07
-1.54655e-05
-8.52674e-07
-1.57583e-05
-2.7919e-06
-1.56954e-05
-4.75351e-06
-1.52782e-05
-6.66836e-06
-1.45223e-05
-8.47181e-06
-1.34549e-05
-1.01068e-05
-1.21122e-05
-1.15257e-05
-1.05362e-05
-1.26914e-05
-8.77139e-06
-1.35792e-05
-6.86075e-06
-1.41775e-05
-4.8444e-06
-1.44879e-05
-2.76347e-06
-1.45196e-05
-6.44298e-07
-1.43166e-05
1.484e-06
-1.38761e-05
3.62013e-06
-1.32491e-05
5.77037e-06
-1.24648e-05
7.94591e-06
-1.15789e-05
1.01522e-05
-1.06418e-05
1.2397e-05
-9.69248e-06
1.47118e-05
-8.77846e-06
1.71183e-05
-7.92834e-06
1.95954e-05
-7.15975e-06
2.21453e-05
-6.51175e-06
2.4775e-05
-6.00456e-06
2.74741e-05
-5.63487e-06
3.02265e-05
-5.39525e-06
3.30147e-05
-5.26729e-06
3.58183e-05
-5.21872e-06
3.86168e-05
-5.20835e-06
-5.18818e-06
4.13948e-05
-2.89225e-06
-7.54439e-06
-1.28747e-06
-6.76614e-06
1.08399e-07
-5.63877e-06
1.21234e-06
-4.19733e-06
1.95253e-06
-2.49584e-06
2.27451e-06
-6.19373e-07
2.14958e-06
1.3169e-06
1.57842e-06
3.19272e-06
5.89012e-07
4.91909e-06
-7.74466e-07
6.43712e-06
-2.45673e-06
7.66474e-06
-4.37687e-06
8.46695e-06
-6.42779e-06
8.76795e-06
-8.52995e-06
8.69624e-06
-1.0652e-05
8.38166e-06
-1.26978e-05
7.58682e-06
-1.44972e-05
6.07298e-06
-1.60078e-05
4.21818e-06
-1.71605e-05
2.15149e-06
-1.79097e-05
-1.03438e-07
-1.82281e-05
-2.47355e-06
-1.81041e-05
-4.87751e-06
-1.75445e-05
-7.22791e-06
-1.65738e-05
-9.44254e-06
-1.52307e-05
-1.14499e-05
-1.35651e-05
-1.31913e-05
-1.16342e-05
-1.46223e-05
-9.49877e-06
-1.57146e-05
-7.21792e-06
-1.64584e-05
-4.84887e-06
-1.6857e-05
-2.44204e-06
-1.69264e-05
-2.76175e-08
-1.6731e-05
2.35722e-06
-1.6261e-05
4.69582e-06
-1.55877e-05
6.98869e-06
-1.47576e-05
9.2425e-06
-1.38327e-05
1.14651e-05
-1.28643e-05
1.36783e-05
-1.19057e-05
1.58997e-05
-1.09999e-05
1.81515e-05
-1.01801e-05
2.04686e-05
-9.4769e-06
2.28553e-05
-8.89846e-06
2.53064e-05
-8.45559e-06
2.78338e-05
-8.16231e-06
3.04401e-05
-8.0015e-06
3.31207e-05
-7.94789e-06
3.58684e-05
-7.96649e-06
3.86722e-05
-8.01217e-06
-8.03448e-06
4.15185e-05
-1.89314e-06
-9.72189e-06
1.46212e-07
-8.80549e-06
1.924e-06
-7.41656e-06
3.32685e-06
-5.60017e-06
4.25916e-06
-3.42815e-06
4.65133e-06
-1.01155e-06
4.46618e-06
1.50206e-06
3.70278e-06
3.95612e-06
2.3985e-06
6.22337e-06
6.20766e-07
8.21486e-06
-1.54865e-06
9.83415e-06
-4.01075e-06
1.09291e-05
-6.62946e-06
1.13867e-05
-9.27548e-06
1.13423e-05
-1.19085e-05
1.10147e-05
-1.44534e-05
1.01316e-05
-1.66904e-05
8.31004e-06
-1.85618e-05
6.08953e-06
-1.99738e-05
3.56347e-06
-2.08752e-05
7.97989e-07
-2.12367e-05
-2.11206e-06
-2.10477e-05
-5.06653e-06
-2.03211e-05
-7.9545e-06
-1.9093e-05
-1.06706e-05
-1.74179e-05
-1.3125e-05
-1.53639e-05
-1.52453e-05
-1.30087e-05
-1.69775e-05
-1.04336e-05
-1.82897e-05
-7.71728e-06
-1.91747e-05
-4.93813e-06
-1.96361e-05
-2.15657e-06
-1.9708e-05
5.86426e-07
-1.9474e-05
3.24179e-06
-1.89163e-05
5.78754e-06
-1.81334e-05
8.22036e-06
-1.71905e-05
1.05457e-05
-1.6158e-05
1.27808e-05
-1.50994e-05
1.49493e-05
-1.40743e-05
1.70786e-05
-1.31292e-05
1.92005e-05
-1.2302e-05
2.1344e-05
-1.16204e-05
2.3547e-05
-1.11015e-05
2.58326e-05
-1.07412e-05
2.82062e-05
-1.05359e-05
3.06824e-05
-1.04777e-05
3.32749e-05
-1.05404e-05
3.59897e-05
-1.06813e-05
3.88252e-05
-1.08476e-05
-1.0982e-05
4.17727e-05
-7.11738e-07
-1.25075e-05
1.91603e-06
-1.14333e-05
4.21565e-06
-9.71617e-06
6.03182e-06
-7.41635e-06
7.2365e-06
-4.63283e-06
7.73996e-06
-1.51501e-06
7.49484e-06
1.74718e-06
6.49847e-06
4.95248e-06
4.79889e-06
7.92295e-06
2.49162e-06
1.05221e-05
-3.04639e-07
1.26304e-05
-3.46205e-06
1.40865e-05
-6.81113e-06
1.47357e-05
-1.01533e-05
1.46844e-05
-1.34135e-05
1.42749e-05
-1.65718e-05
1.32899e-05
-1.93657e-05
1.11039e-05
-2.16912e-05
8.41511e-06
-2.34213e-05
5.29358e-06
-2.45062e-05
1.88286e-06
-2.49177e-05
-1.7006e-06
-2.4644e-05
-5.34024e-06
-2.37061e-05
-8.89241e-06
-2.21558e-05
-1.22209e-05
-2.00676e-05
-1.52132e-05
-1.75338e-05
-1.77791e-05
-1.46586e-05
-1.98527e-05
-1.15489e-05
-2.13994e-05
-8.31084e-06
-2.24127e-05
-5.0491e-06
-2.28979e-05
-1.82798e-06
-2.29291e-05
1.28502e-06
-2.2587e-05
4.23053e-06
-2.18618e-05
6.98505e-06
-2.0888e-05
9.54338e-06
-1.97488e-05
1.19169e-05
-1.85316e-05
1.41299e-05
-1.73124e-05
1.62145e-05
-1.61589e-05
1.82109e-05
-1.51256e-05
2.01639e-05
-1.4255e-05
2.21176e-05
-1.35741e-05
2.4113e-05
-1.30968e-05
2.61974e-05
-1.28256e-05
2.84015e-05
-1.27399e-05
3.07427e-05
-1.28189e-05
3.32466e-05
-1.30443e-05
3.59328e-05
-1.33675e-05
3.88099e-05
-1.37247e-05
-1.40473e-05
4.18752e-05
6.82608e-07
-1.60965e-05
4.09944e-06
-1.48501e-05
7.11122e-06
-1.27279e-05
9.50003e-06
-9.80516e-06
1.10894e-05
-6.22221e-06
1.17604e-05
-2.18598e-06
1.14531e-05
2.0545e-06
1.01685e-05
6.23707e-06
7.97219e-06
1.01192e-05
4.98957e-06
1.35048e-05
1.37913e-06
1.62409e-05
-2.68999e-06
1.81556e-05
-7.00114e-06
1.90469e-05
-1.12584e-05
1.89417e-05
-1.52859e-05
1.83024e-05
-1.91632e-05
1.71672e-05
-2.26446e-05
1.45854e-05
-2.5532e-05
1.13025e-05
-2.76692e-05
7.4307e-06
-2.89905e-05
3.20417e-06
-2.94614e-05
-1.22969e-06
-2.9072e-05
-5.72959e-06
-2.78566e-05
-1.01078e-05
-2.58885e-05
-1.4189e-05
-2.32699e-05
-1.78317e-05
-2.01263e-05
-2.09227e-05
-1.65965e-05
-2.33825e-05
-1.28212e-05
-2.51748e-05
-8.94504e-06
-2.62889e-05
-5.09904e-06
-2.67439e-05
-1.34656e-06
-2.66816e-05
2.18797e-06
-2.61216e-05
5.45099e-06
-2.51249e-05
8.41825e-06
-2.38552e-05
1.10865e-05
-2.24171e-05
1.34753e-05
-2.09204e-05
1.56189e-05
-1.9456e-05
1.75639e-05
-1.81039e-05
1.93671e-05
-1.69287e-05
2.10894e-05
-1.59773e-05
2.27936e-05
-1.52783e-05
2.45374e-05
-1.48407e-05
2.63804e-05
-1.46687e-05
2.8375e-05
-1.47345e-05
3.05579e-05
-1.50018e-05
3.29554e-05
-1.54418e-05
3.5603e-05
-1.60152e-05
3.85229e-05
-1.66445e-05
-1.72436e-05
4.17191e-05
2.33453e-06
-2.07736e-05
6.81686e-06
-1.93324e-05
1.07933e-05
-1.67044e-05
1.39627e-05
-1.29745e-05
1.60805e-05
-8.33997e-06
1.69892e-05
-3.09468e-06
1.66161e-05
2.42758e-06
1.49727e-05
7.88044e-06
1.2151e-05
1.29409e-05
8.31474e-06
1.7341e-05
3.66679e-06
2.08888e-05
-1.58316e-06
2.34055e-05
-7.18015e-06
2.46439e-05
-1.27084e-05
2.44699e-05
-1.77347e-05
2.33288e-05
-2.23997e-05
2.18321e-05
-2.67445e-05
1.89302e-05
-3.03097e-05
1.48678e-05
-3.29367e-05
1.00577e-05
-3.45427e-05
4.81011e-06
-3.50719e-05
-7.0049e-07
-3.45184e-05
-6.28312e-06
-3.29356e-05
-1.16906e-05
-3.04236e-05
-1.6701e-05
-2.71209e-05
-2.11343e-05
-2.31965e-05
-2.48472e-05
-1.88337e-05
-2.77453e-05
-1.42204e-05
-2.97881e-05
-9.5529e-06
-3.09564e-05
-4.9769e-06
-3.13199e-05
-5.94917e-07
-3.10636e-05
3.4236e-06
-3.01401e-05
7.04107e-06
-2.87423e-05
1.02272e-05
-2.70413e-05
1.29846e-05
-2.51745e-05
1.53449e-05
-2.32806e-05
1.73584e-05
-2.14695e-05
1.90917e-05
-1.98372e-05
2.06226e-05
-1.84596e-05
2.20328e-05
-1.73876e-05
2.34059e-05
-1.66514e-05
2.48257e-05
-1.62605e-05
2.63689e-05
-1.62119e-05
2.81005e-05
-1.64661e-05
3.0072e-05
-1.69733e-05
3.23322e-05
-1.7702e-05
3.49232e-05
-1.86062e-05
3.78813e-05
-1.96026e-05
-2.05829e-05
4.12206e-05
4.19829e-06
-2.69221e-05
1.01523e-05
-2.52865e-05
1.54707e-05
-2.20227e-05
1.97223e-05
-1.72262e-05
2.25733e-05
-1.11909e-05
2.38081e-05
-4.32951e-06
2.33416e-05
2.89406e-06
2.12297e-05
9.99237e-06
1.76219e-05
1.65488e-05
1.27315e-05
2.22314e-05
6.8058e-06