/*--------------------------------*- C++ -*----------------------------------*\
| =========                 |                                                 |
| \\      /  F ield         | OpenFOAM: The Open Source CFD Toolbox           |
|  \\    /   O peration     | Version:  2206                                  |
|   \\  /    A nd           | Website:  www.openfoam.com                      |
|    \\/     M anipulation  |                                                 |
\*---------------------------------------------------------------------------*/
FoamFile
{
    version     2.0;
    format      ascii;
    arch        "LSB;label=32;scalar=64";
    class       surfaceScalarField;
    location    "19.2";
    object      ddtCorrDdt0(phi);
}
// * * * * * * * * * * * * * * * * * * * * * * * * * * * * * * * * * * * * * //

dimensions      [0 3 -2 0 0 0 0];

oriented        oriented;

internalField   nonuniform List<scalar> 
5927
(
-9.84304e-05
-0.00011446
0.000112817
-9.57425e-05
-0.0001646
0.000161913
-9.24611e-05
-0.00021112
0.000207838
-8.88394e-05
-0.000253763
0.000250142
-8.49423e-05
-0.000292229
0.000288332
-8.05399e-05
-0.000325911
0.000321508
-7.4924e-05
-0.000353289
0.000347673
-6.62417e-05
-0.000371126
0.000362444
-5.42812e-05
-0.000373344
0.000361383
-3.97703e-05
-0.00036328
0.000348769
-2.27753e-05
-0.000342737
0.000325742
-4.45625e-06
-0.000313401
0.000295082
1.36589e-05
-0.000276999
0.000258884
3.11738e-05
-0.000235462
0.000217947
4.76873e-05
-0.000191255
0.000174741
6.35562e-05
-0.000146623
0.000130754
8.0114e-05
-0.000102351
8.57933e-05
9.6888e-05
-5.74328e-05
4.06588e-05
0.000110122
-1.22139e-05
-1.02049e-06
0.000118913
2.90793e-05
-3.78698e-05
0.000122879
6.6664e-05
-7.06299e-05
0.000122055
0.000100864
-0.00010004
0.0001172
0.000131804
-0.000126949
0.000109173
0.000160217
-0.00015219
9.86977e-05
0.000186724
-0.000176249
8.63732e-05
0.000211452
-0.000199128
7.26327e-05
0.000234189
-0.000220448
5.7769e-05
0.000254368
-0.000239504
4.20101e-05
0.000270978
-0.000255219
2.56537e-05
0.000282275
-0.000265919
9.31895e-06
0.000284983
-0.000268648
-6.37043e-06
0.000280209
-0.00026452
-2.09909e-05
0.000268653
-0.000254033
-3.41096e-05
0.000250569
-0.000237451
-4.53014e-05
0.000226606
-0.000215414
-5.42124e-05
0.000197842
-0.000188931
-6.06982e-05
0.000165804
-0.000159318
-6.49663e-05
0.000132247
-0.000127979
-6.76715e-05
9.87351e-05
-9.60299e-05
-7.00109e-05
6.59602e-05
-6.36209e-05
-7.28999e-05
3.16738e-05
-2.87848e-05
-7.47785e-05
-7.4768e-06
9.35541e-06
-7.51072e-05
-4.76309e-05
4.79595e-05
-7.39929e-05
-8.72304e-05
8.61161e-05
-7.1782e-05
-0.000124842
0.000122631
-6.87958e-05
-0.000159666
0.00015668
-6.52439e-05
-0.000191257
0.000187705
-6.11636e-05
-0.000219231
0.00021515
-5.63977e-05
-0.000243012
0.000238246
-5.04413e-05
-0.000261563
0.000255606
-4.21821e-05
-0.00027253
0.000264271
-3.23415e-05
-0.000272626
0.000262786
-2.13911e-05
-0.000265047
0.000254097
-1.00399e-05
-0.000250694
0.000239342
1.27475e-06
-0.000230258
0.000218943
1.39178e-05
-0.000205129
0.000192486
2.71096e-05
-0.000176303
0.000163111
3.88701e-05
-0.000144885
0.000133124
4.96896e-05
-0.000112791
0.000101971
6.03356e-05
-8.07186e-05
7.00726e-05
7.07973e-05
-4.83514e-05
3.78896e-05
7.93244e-05
-1.51922e-05
6.66509e-06
8.4797e-05
1.67213e-05
-2.21939e-05
8.70549e-05
4.687e-05
-4.91279e-05
8.60912e-05
7.51716e-05
-7.42079e-05
8.24068e-05
0.000101139
-9.74547e-05
7.65446e-05
0.000124883
-0.00011902
6.89507e-05
0.00014657
-0.000138977
6.00223e-05
0.000166118
-0.000157189
5.007e-05
0.000183319
-0.000173367
3.93162e-05
0.0001978
-0.000187046
2.79406e-05
0.000208852
-0.000197476
1.61753e-05
0.000214973
-0.000203208
4.60441e-06
0.000214522
-0.000202951
-6.48348e-06
0.00020921
-0.000198122
-1.67965e-05
0.00019909
-0.000188777
-2.6042e-05
0.000184443
-0.000175197
-3.39408e-05
0.000165812
-0.000157913
-4.02593e-05
0.000143998
-0.00013768
-4.48963e-05
0.000120063
-0.000115426
-4.79981e-05
9.52106e-05
-9.21089e-05
-5.00531e-05
7.05141e-05
-6.84592e-05
-5.19768e-05
4.63825e-05
-4.44588e-05
-5.43139e-05
2.08964e-05
-1.85593e-05
-5.58034e-05
-8.05885e-06
9.54832e-06
-5.61092e-05
-3.76501e-05
3.79558e-05
-5.52214e-05
-6.68588e-05
6.5971e-05
-5.3344e-05
-9.45869e-05
9.27095e-05
-5.06762e-05
-0.000120225
0.000117557
-4.73763e-05
-0.000143354
0.000140054
-4.3539e-05
-0.000163567
0.00015973
-3.91222e-05
-0.00018043
0.000176013
-3.38872e-05
-0.000193191
0.000187956
-2.72438e-05
-0.000200208
0.000193564
-1.99754e-05
-0.00019968
0.000192412
-1.17789e-05
-0.000194847
0.000186651
-2.51779e-06
-0.000185699
0.000176438
7.08522e-06
-0.000171521
0.000161918
1.62005e-05
-0.000152887
0.000143772
2.43974e-05
-0.000131389
0.000123193
3.16885e-05
-0.000108619
0.000101327
3.82347e-05
-8.54216e-05
7.88754e-05
4.427e-05
-6.20455e-05
5.60102e-05
5.02479e-05
-3.86585e-05
3.26806e-05
5.55962e-05
-1.44623e-05
9.11396e-06
5.89769e-05
1.01966e-05
-1.35773e-05
6.02137e-05
3.43038e-05
-3.55407e-05
5.92194e-05
5.75321e-05
-5.65377e-05
5.63592e-05
7.90015e-05
-7.61414e-05
5.19724e-05
9.86257e-05
-9.42389e-05
4.6344e-05
0.000116363
-0.000110734
3.97396e-05
0.000132029
-0.000125425
3.23711e-05
0.000145415
-0.000138047
2.43298e-05
0.000156321
-0.00014828
1.59815e-05
0.000163992
-0.000155644
7.06228e-06
0.000167388
-0.000158468
-1.25099e-06
0.00016533
-0.000157017
-1.01354e-05
0.000162125
-0.00015324
-1.73546e-05
0.000150997
-0.000143778
-2.4181e-05
0.000142579
-0.000135753
0.000119591
-0.000113725
-7.35741e-05
-0.000117064
-7.06012e-05
-0.000167573
-6.77403e-05
-0.000213981
-6.51315e-05
-0.000256372
-6.27912e-05
-0.00029457
-6.05519e-05
-0.00032815
-5.7805e-05
-0.000356035
-5.33485e-05
-0.000375582
-4.56475e-05
-0.000381045
-3.57625e-05
-0.000373165
-2.3646e-05
-0.000354853
-9.94561e-06
-0.000327102
4.52171e-06
-0.000291467
1.90177e-05
-0.000249958
3.2728e-05
-0.000204965
4.50588e-05
-0.000158953
5.6744e-05
-0.000114036
6.99744e-05
-7.06631e-05
8.39372e-05
-2.61768e-05
9.4264e-05
1.87525e-05
0.000100274
6.06539e-05
0.000101605
9.95329e-05
9.89694e-05
0.00013444
9.31705e-05
0.000166016
8.48571e-05
0.000195037
7.46242e-05
0.000221685
6.29248e-05
0.000245888
5.00821e-05
0.000267211
3.6355e-05
0.000284706
2.20624e-05
0.000296568
7.80496e-06
0.00029924
-5.83529e-06
0.00029385
-1.84841e-05
0.000281302
-2.97551e-05
0.00026184
-3.92314e-05
0.000236082
-4.65226e-05
0.000205133
-5.141e-05
0.000170691
-5.40101e-05
0.000134847
-5.48936e-05
9.96185e-05
-5.52905e-05
6.63572e-05
-5.69951e-05
3.33783e-05
-5.84379e-05
-6.03397e-06
-5.81517e-05
-4.79171e-05
-5.64635e-05
-8.89186e-05
-5.40001e-05
-0.000127305
-5.12093e-05
-0.000162457
-4.83553e-05
-0.000194111
-4.54205e-05
-0.000222165
-4.23034e-05
-0.000246129
-3.86279e-05
-0.000265238
-3.34705e-05
-0.000277688
-2.65259e-05
-0.000279571
-1.84727e-05
-0.0002731
-1.0122e-05
-0.000259044
-1.82675e-06
-0.000238553
7.36976e-06
-0.000214326
1.70784e-05
-0.000186012
2.60432e-05
-0.00015385
3.41467e-05
-0.000120894
4.18512e-05
-8.84231e-05
5.00604e-05
-5.65605e-05
5.91468e-05
-2.42786e-05
6.59771e-05
9.89102e-06
6.98674e-05
4.29796e-05
7.05973e-05
7.44418e-05
6.86653e-05
0.000103071
6.45921e-05
0.000128956
5.87755e-05
0.000152387
5.16034e-05
0.00017329
4.33904e-05
0.000191532
3.43685e-05
0.000206822
2.47205e-05
0.0002185
1.46498e-05
0.000225044
4.72605e-06
0.000224446
-4.7923e-06
0.000218729
-1.36533e-05
0.000207951
-2.15985e-05
0.000192388
-2.83508e-05
0.000172564
-3.36272e-05
0.000149275
-3.72493e-05
0.000123686
-3.92903e-05
9.72517e-05
-4.0176e-05
7.13997e-05
-4.08363e-05
4.70428e-05
-4.25302e-05
2.25904e-05
-4.38832e-05
-6.7059e-06
-4.39322e-05
-3.76011e-05
-4.27937e-05
-6.79973e-05
-4.08695e-05
-9.65111e-05
-3.83907e-05
-0.000122703
-3.55467e-05
-0.000146198
-3.25003e-05
-0.000166613
-2.92559e-05
-0.000183675
-2.55759e-05
-0.000196871
-2.06308e-05
-0.000205153
-1.4324e-05
-0.000205987
-8.28653e-06
-0.000200885
-3.15958e-06
-0.000190826
2.29436e-06
-0.000176975
8.55486e-06
-0.000159148
1.56029e-05
-0.000138437
2.22063e-05
-0.000115222
2.72548e-05
-9.04702e-05
3.13217e-05
-6.61123e-05
3.54924e-05
-4.28293e-05
4.07353e-05
-1.97051e-05
4.52305e-05
5.70139e-06
4.75342e-05
3.20001e-05
4.762e-05
5.74463e-05
4.60388e-05
8.05828e-05
4.30313e-05
0.000101633
3.88526e-05
0.000120542
3.37483e-05
0.000137133
2.78829e-05
0.000151281
2.13386e-05
0.000162866
1.44437e-05
0.000170887
7.18045e-06
0.000174651
6.92209e-09
0.000172504
-7.58032e-06
0.000169712
-1.33433e-05
0.00015676
-1.91943e-05
0.00014843
0.00012458
-4.72693e-05
-0.000120809
-4.41481e-05
-0.000170695
-4.19746e-05
-0.000216154
-4.07815e-05
-0.000257565
-4.02943e-05
-0.000295057
-4.02069e-05
-0.000328238
-4.01089e-05
-0.000356133
-3.91492e-05
-0.000376542
-3.5677e-05
-0.000384517
-3.03634e-05
-0.000378479
-2.30501e-05
-0.000362166
-1.39713e-05
-0.000336181
-3.57435e-06
-0.000301863
7.50556e-06
-0.000261038
1.84202e-05
-0.000215879
2.82553e-05
-0.000168788
3.6536e-05
-0.000122317
4.46913e-05
-7.88185e-05
5.62741e-05
-3.77596e-05
6.80741e-05
6.9525e-06
7.58577e-05
5.28703e-05
7.90139e-05
9.63767e-05
7.84582e-05
0.000134995
7.48004e-05
0.000169674
6.86395e-05
0.000201198
6.05704e-05
0.000229754
5.10432e-05
0.000255415
4.03968e-05
0.000277857
2.89273e-05
0.000296175
1.69926e-05
0.000308503
5.20335e-06
0.00031103
-5.95999e-06
0.000305013
-1.61913e-05
0.000291534
-2.52003e-05
0.000270849
-3.26546e-05
0.000243536
-3.81877e-05
0.000210666
-4.1491e-05
0.000173995
-4.24914e-05
0.000135847
-4.15969e-05
9.87241e-05
-4.00025e-05
6.47629e-05
-4.03066e-05
3.36824e-05
-4.18163e-05
-4.52418e-06
-4.04441e-05
-4.92893e-05
-3.80784e-05
-9.12842e-05
-3.54387e-05
-0.000129945
-3.29544e-05
-0.000164941
-3.09249e-05
-0.000196141
-2.94112e-05
-0.000223679
-2.81029e-05
-0.000247438
-2.66523e-05
-0.000266689
-2.45106e-05
-0.000279829
-2.09014e-05
-0.00028318
-1.64315e-05
-0.00027757
-1.06922e-05
-0.000264783
-3.59582e-06
-0.000245649
3.35789e-06
-0.00022128
9.6338e-06
-0.000192287
1.59247e-05
-0.00016014
2.14177e-05
-0.000126387
2.58468e-05
-9.28522e-05
3.06573e-05
-6.1371e-05
3.77549e-05
-3.13763e-05
4.60681e-05
1.57784e-06
5.13297e-05
3.77181e-05
5.34328e-05
7.23387e-05
5.31741e-05
0.00010333
5.08832e-05
0.000131247
4.68931e-05
0.000156377
4.15765e-05
0.000178606
3.52368e-05
0.000197872
2.81056e-05
0.000213953
2.03716e-05
0.000226234
1.22361e-05
0.00023318
4.23212e-06
0.00023245
-3.41914e-06
0.00022638
-1.05299e-05
0.000215062
-1.69181e-05
0.000198776
-2.23485e-05
0.000177994
-2.65237e-05
0.00015345
-2.92017e-05
0.000126364
-3.03184e-05
9.83684e-05
-3.01281e-05
7.12095e-05
-2.94686e-05
4.63833e-05
-3.03181e-05
2.34399e-05
-3.19435e-05
-5.08045e-06
-3.14157e-05
-3.81288e-05
-2.9889e-05
-6.9524e-05
-2.79962e-05
-9.84038e-05
-2.58605e-05
-0.000124839
-2.35503e-05
-0.000148508
-2.12386e-05
-0.000168925
-1.9034e-05
-0.000185879
-1.65024e-05
-0.000199402
-1.3285e-05
-0.00020837
-9.69458e-06
-0.000209578
-5.99741e-06
-0.000204582
-2.42952e-06
-0.000194394
6.76986e-07
-0.000180081
4.51661e-06
-0.000162988
8.71255e-06
-0.000142633
1.25662e-05
-0.000119076
1.59206e-05
-9.38246e-05
1.85314e-05
-6.87231e-05
2.08369e-05
-4.51348e-05
2.43945e-05
-2.32627e-05
3.08521e-05
-7.561e-07
3.41368e-05
2.87154e-05
3.5045e-05
5.65382e-05
3.46454e-05
8.09824e-05
3.28472e-05
0.000103431
3.00646e-05
0.000123324
2.65181e-05
0.00014068
2.22687e-05
0.00015553
1.73982e-05
0.000167736
1.21181e-05
0.000176167
6.60803e-06
0.000180161
8.87708e-07
0.000178224
-4.81122e-06
0.000175411
-9.19858e-06
0.000161148
-1.40124e-05
0.000153244
0.000128578
-1.9371e-05
-0.000125538
-1.71116e-05
-0.000172954
-1.63401e-05
-0.000216926
-1.65101e-05
-0.000257395
-1.76639e-05
-0.000293903
-1.96597e-05
-0.000326242
-2.21129e-05
-0.00035368
-2.43376e-05
-0.000374317
-2.49668e-05
-0.000383888
-2.40147e-05
-0.000379431
-2.12736e-05
-0.000364907
-1.6725e-05
-0.000340729
-1.05634e-05
-0.000308025
-3.21693e-06
-0.000268384
4.58454e-06
-0.000223681
1.19427e-05
-0.000176147
1.80063e-05
-0.000128381
2.25207e-05
-8.33329e-05
2.85934e-05
-4.38323e-05
4.24218e-05
-6.87586e-06
5.13392e-05
4.39529e-05
5.50317e-05
9.26842e-05
5.59549e-05
0.000134072
5.41291e-05
0.0001715
5.00496e-05
0.000205278
4.42141e-05
0.00023559
3.70012e-05
0.000262628
2.87264e-05
0.000286132
1.97112e-05
0.00030519
1.03719e-05
0.000317842
1.39178e-06
0.00032001
-6.88735e-06
0.000313292
-1.42123e-05
0.000298859
-2.04127e-05
0.00027705
-2.53495e-05
0.000248473
-2.88622e-05
0.000214179
-3.07108e-05
0.000175843
-3.05763e-05
0.000135713
-2.83184e-05
9.64662e-05
-2.45617e-05
6.10062e-05
-2.21234e-05
3.12441e-05
-2.57928e-05
-8.54853e-07
-2.17426e-05
-5.33394e-05
-1.8413e-05
-9.46138e-05
-1.62575e-05
-0.000132101
-1.50755e-05
-0.000166123
-1.43032e-05
-0.000196913
-1.39029e-05
-0.000224079
-1.39463e-05
-0.000247394
-1.43045e-05
-0.00026633
-1.45614e-05
-0.000279572
-1.39224e-05
-0.000283819
-1.25241e-05
-0.000278969
-1.00239e-05
-0.000267284
-6.47147e-06
-0.000249202
-2.33125e-06
-0.00022542
2.16445e-06
-0.000196783
6.5269e-06
-0.000164503
1.02378e-05
-0.000130098
1.28576e-05
-9.54721e-05
1.43235e-05
-6.28368e-05
1.70161e-05
-3.40688e-05
2.63372e-05
-7.74315e-06
3.29878e-05
3.10675e-05
3.56002e-05
6.97263e-05
3.64985e-05
0.000102431
3.56711e-05
0.000132074
3.3368e-05
0.00015868
2.98612e-05
0.000182113
2.54201e-05
0.000202313
2.02668e-05
0.000219106
1.45848e-05
0.000231916
8.60379e-06
0.000239161
2.80242e-06
0.000238251
-2.6415e-06
0.000231824
-7.63177e-06
0.000220052
-1.20845e-05
0.000203229
-1.58622e-05
0.000181772
-1.87836e-05
0.000156371
-2.06403e-05
0.00012822
-2.11779e-05
9.8906e-05
-2.02325e-05
7.02641e-05
-1.82045e-05
4.43553e-05
-1.72458e-05
2.24812e-05
-2.0673e-05
-1.65322e-06
-1.84817e-05
-4.032e-05
-1.62372e-05
-7.17685e-05
-1.45161e-05
-0.000100125
-1.33357e-05
-0.000126019
-1.21295e-05
-0.000149714
-1.08582e-05
-0.000170196
-9.43057e-06
-0.000187307
-8.1702e-06
-0.000200663
-7.38573e-06
-0.000209155
-6.3428e-06
-0.000210621
-4.79547e-06
-0.000206129
-2.57095e-06
-0.000196619
2.00532e-07
-0.000182853
2.56972e-06
-0.000165357
4.17113e-06
-0.000144235
5.44739e-06
-0.000120352
6.89313e-06
-9.52703e-05
8.00318e-06
-6.98331e-05
8.38431e-06
-4.5516e-05
8.71812e-06
-2.35965e-05
1.41992e-05
-6.23724e-06
1.96745e-05
2.32402e-05
2.24514e-05
5.37613e-05
2.29518e-05
8.0482e-05
2.21107e-05
0.000104272
2.06576e-05
0.000124777
1.85908e-05
0.000142747
1.58734e-05
0.000158247
1.26326e-05
0.000170977
9.01334e-06
0.000179786
5.29926e-06
0.000183875
1.39534e-06
0.000182128
-2.24955e-06
0.000179056
-5.24002e-06
0.000164138
-8.64691e-06
0.000156651
0.000131316
7.04391e-06
9.63239e-06
1.02691e-05
8.58429e-06
5.22387e-06
7.1734e-07
-4.53273e-06
-9.95593e-06
-1.43948e-05
-1.75367e-05
-1.90695e-05
-1.88308e-05
-1.6857e-05
-1.34229e-05
-9.09726e-06
-4.56945e-06
-3.96539e-07
3.13655e-06
6.647e-06
1.66566e-05
2.59993e-05
3.00979e-05
3.24373e-05
3.21905e-05
2.99588e-05
2.62794e-05
2.13279e-05
1.54182e-05
8.91733e-06
2.29488e-06
-3.67716e-06
-8.81017e-06
-1.28534e-05
-1.57255e-05
-1.74921e-05
-1.82952e-05
-1.82186e-05
-1.71312e-05
-1.4704e-05
-1.06723e-05
-6.08159e-06
-6.46825e-06
-2.04506e-06
5.87206e-07
2.26391e-06
3.23555e-06
3.19162e-06
2.18227e-06
3.43267e-07
-2.08983e-06
-4.7409e-06
-6.91841e-06
-8.47257e-06
-9.13638e-06
-8.83724e-06
-7.6998e-06
-5.91854e-06
-3.77198e-06
-1.5686e-06
3.36478e-07
1.53947e-06
2.14844e-06
6.80281e-06
1.28825e-05
1.62631e-05
1.84666e-05
1.9324e-05
1.88413e-05
1.71975e-05
1.47025e-05
1.15439e-05
7.92556e-06
4.12346e-06
5.80628e-07
-2.52328e-06
-5.13522e-06
-7.26545e-06
-8.93373e-06
-1.01628e-05
-1.09498e-05
-1.11497e-05
-1.03791e-05
-8.23495e-06
-5.58927e-06
-7.69451e-06
-5.05184e-06
-3.5015e-06
-2.03757e-06
-6.22498e-07
-4.24122e-11
1.0282e-07
-1.01611e-07
-6.19507e-07
-1.28326e-06
-1.97959e-06
-2.50745e-06
-2.59015e-06
-2.33712e-06
-1.99508e-06
-1.46821e-06
-6.96291e-07
-1.35454e-07
1.21464e-07
1.15834e-07
3.78542e-07
1.64999e-06
3.7903e-06
5.41489e-06
7.70828e-06
9.52172e-06
0.000102459
1.01649e-05
0.000124134
9.90742e-06
0.000143004
8.91205e-06
0.000159243
7.35744e-06
0.000172531
5.48959e-06
0.000181654
3.58367e-06
0.000185781
1.66456e-06
0.000184047
-1.45974e-07
0.000180866
-1.65242e-06
0.000165645
-3.20938e-06
0.000158208
0.000132549
-2.74832e-06
-1.18691e-06
-3.69611e-07
1.27809e-07
3.02919e-07
3.51599e-07
4.31876e-07
6.81299e-07
7.76888e-07
7.33997e-07
1.18416e-06
-7.55226e-07
-2.45258e-06
1.70807e-06
-2.4633e-06
4.06656e-06
-2.35849e-06
6.22822e-06
-2.16166e-06
8.11631e-06
-1.88808e-06
9.67613e-06
-1.55983e-06
1.08816e-05
-1.20543e-06
1.17242e-05
-8.42639e-07
1.22123e-05
-4.88109e-07
1.23776e-05
-1.65318e-07
1.22638e-05
1.13834e-07
1.19224e-05
3.41458e-07
1.13988e-05
5.23513e-07
1.07271e-05
6.71719e-07
9.93323e-06
7.93897e-07
9.02102e-06
9.12209e-07
8.04127e-06
9.79748e-07
7.00904e-06
1.03223e-06
5.89557e-06
1.11348e-06
4.91429e-06
9.81281e-07
3.84687e-06
1.06742e-06
2.7272e-06
1.11967e-06
1.56379e-06
1.16342e-06
3.57921e-07
1.20586e-06
-8.95847e-07
1.25377e-06
-2.19841e-06
1.30256e-06
-3.5431e-06
1.34469e-06
-4.91261e-06
1.36951e-06
-6.2786e-06
1.36599e-06
-7.60417e-06
1.32557e-06
-8.84722e-06
1.24305e-06
-9.96079e-06
1.11357e-06
-1.09018e-05
9.41005e-07
-1.16312e-05
7.29442e-07
-1.21099e-05
4.78639e-07
-1.23018e-05
1.91884e-07
-1.21792e-05
-1.22541e-07
-1.17286e-05
-4.50668e-07
-1.09498e-05
-7.78776e-07
-9.85461e-06
-1.09517e-06
-8.46651e-06
-1.3881e-06
-6.78883e-06
-1.67768e-06
-4.85642e-06
-1.93241e-06
-3.11828e-06
-1.73814e-06
-1.15388e-06
-1.96439e-06
8.36554e-07
-1.99044e-06
2.76312e-06
-1.92656e-06
4.56706e-06
-1.80394e-06
6.19939e-06
-1.63233e-06
7.6204e-06
-1.42102e-06
8.80376e-06
-1.18335e-06
9.72904e-06
-9.25287e-07
1.03852e-05
-6.56147e-07
1.07812e-05
-3.96018e-07
1.09379e-05
-1.56645e-07
1.08754e-05
6.24683e-08
1.06181e-05
2.57246e-07
1.01926e-05
4.25496e-07
9.62018e-06
5.72474e-07
8.91123e-06
7.08949e-07
8.06764e-06
8.43595e-07
7.08914e-06
9.78497e-07
6.03766e-06
1.05148e-06
4.8379e-06
1.19976e-06
3.7545e-06
1.08341e-06
2.54626e-06
1.20823e-06
1.27996e-06
1.2663e-06
-1.31282e-08
1.29309e-06
-1.31365e-06
1.30053e-06
-2.60644e-06
1.29279e-06
-3.87432e-06
1.26789e-06
-5.0955e-06
1.22117e-06
-6.24706e-06
1.15157e-06
-7.3038e-06
1.05674e-06
-8.2393e-06
9.35506e-07
-9.0291e-06
7.89796e-07
-9.65307e-06
6.23977e-07
-1.00943e-05
4.41226e-07
-1.03368e-05
2.42458e-07
-1.03675e-05
3.0769e-08
-1.01797e-05
-1.87785e-07
-9.77458e-06
-4.05169e-07
-9.16111e-06
-6.13464e-07
-8.35462e-06
-8.06491e-07
-7.37482e-06
-9.79798e-07
-6.2395e-06
-1.13533e-06
-4.96845e-06
-1.27104e-06
-3.60352e-06
-1.36493e-06
-2.39388e-06
-1.20964e-06
-1.07252e-06
-1.32137e-06
2.2403e-07
-1.29654e-06
1.45146e-06
-1.22744e-06
2.58519e-06
-1.13372e-06
3.60614e-06
-1.02096e-06
4.50009e-06
-8.93938e-07
5.25917e-06
-7.59095e-07
5.87763e-06
-6.18449e-07
6.35273e-06
-4.75108e-07
6.68896e-06
-3.36233e-07
6.89435e-06
-2.05395e-07
6.97513e-06
-8.07698e-08
6.93703e-06
3.80864e-08
6.78581e-06
1.5122e-07
6.52596e-06
2.59846e-07
6.16096e-06
3.65006e-07
5.69422e-06
4.66727e-07
5.12891e-06
5.65317e-07
4.46414e-06
6.64763e-07
3.70257e-06
7.61572e-07
2.82026e-06
8.823e-07
2.04073e-06
7.79536e-07
1.13028e-06
9.1044e-07
1.78208e-07
9.52083e-07
-7.80156e-07
9.58356e-07
-1.71844e-06
9.38288e-07
-2.61209e-06
8.93647e-07
-3.42496e-06
8.12878e-07
-4.12855e-06
7.03582e-07
-4.6645e-06
5.35948e-07
-5.00756e-06
3.43062e-07
-1.12463e-07
3.15918e-06
-5.01123e-06
5.60888e-06
-4.913e-06
7.87447e-06
-4.62408e-06
9.86264e-06
-4.14983e-06
1.14905e-05
-3.51592e-06
1.27028e-05
-2.77216e-06
1.34752e-05
-1.97778e-06
1.38342e-05
-1.20164e-06
1.38219e-05
-4.7586e-07
1.34709e-05
1.85747e-07
1.28283e-05
7.56386e-07
1.19489e-05
1.2209e-06
1.08998e-05
1.57259e-06
9.75138e-06
1.82013e-06
8.54105e-06
2.00423e-06
7.25263e-06
2.20063e-06
5.92419e-06
2.30819e-06
4.67917e-06
2.27724e-06
3.47305e-06
2.3196e-06
2.16286e-06
2.29147e-06
9.26808e-07
2.30347e-06
-2.7642e-07
2.32289e-06
-1.46799e-06
2.35499e-06
-2.66101e-06
2.39888e-06
-3.85865e-06
2.45142e-06
-5.06138e-06
2.50529e-06
-6.26383e-06
2.54714e-06
-7.44927e-06
2.55494e-06
-8.58445e-06
2.50118e-06
-9.62708e-06
2.36819e-06
-1.05512e-05
2.16721e-06
-1.13115e-05
1.87386e-06
-1.18675e-05
1.49699e-06
-1.21839e-05
1.04584e-06
-1.22248e-05
5.19512e-07
-1.19598e-05
-7.30687e-08
-1.13703e-05
-7.1208e-07
-1.0453e-05
-1.36793e-06
-9.2272e-06
-2.00462e-06
-7.7219e-06
-2.60047e-06
-5.96363e-06
-3.14636e-06
-3.96352e-06
-3.6778e-06
-1.91885e-06
-3.97708e-06
3.9309e-07
-4.05009e-06
2.52467e-06
-4.09597e-06
4.54128e-06
-4.00705e-06
6.40647e-06
-3.79175e-06
8.0666e-06
-3.46407e-06
9.47378e-06
-3.03951e-06
1.0593e-05
-2.54025e-06
1.14016e-05
-1.99195e-06
1.1901e-05
-1.42469e-06
1.2108e-05
-8.63176e-07
1.20384e-05
-3.26429e-07
1.1716e-05
1.65834e-07
1.1171e-05
6.074e-07
1.04383e-05
9.89979e-07
9.55299e-06
1.31081e-06
8.54696e-06
1.57851e-06
7.45295e-06
1.80296e-06
6.25796e-06
2.03859e-06
4.93883e-06
2.29762e-06
3.64326e-06
2.34705e-06
2.3404e-06
2.50262e-06
8.85496e-07
2.53832e-06
-5.05609e-07
2.59934e-06
-1.86696e-06
2.62766e-06
-3.19912e-06
2.62524e-06
-4.49073e-06
2.59214e-06
-5.72332e-06
2.52538e-06
-6.88243e-06
2.427e-06
-7.94408e-06
2.28282e-06
-8.88465e-06
2.09214e-06
-9.68181e-06
1.85389e-06
-1.03208e-05
1.57454e-06
-1.07862e-05
1.25516e-06
-1.10592e-05
8.96934e-07
-1.1127e-05
5.0909e-07
-1.09803e-05
9.56978e-08
-1.06133e-05
-3.36231e-07
-1.0026e-05
-7.75059e-07
-9.22907e-06
-1.20209e-06
-8.24252e-06
-1.60001e-06
-7.09389e-06
-1.95513e-06
-5.81098e-06
-2.26271e-06
-4.40302e-06
-2.54329e-06
-2.89031e-06
-2.78375e-06
-1.43227e-06
-2.82297e-06
1.39654e-07
-2.78157e-06
1.5523e-06
-2.73401e-06
2.86125e-06
-2.6055e-06
4.05203e-06
-2.41823e-06
5.10419e-06
-2.18588e-06
5.9995e-06
-1.91628e-06
6.7273e-06
-1.62174e-06
7.28181e-06
-1.31361e-06
7.66888e-06
-1.00552e-06
7.89935e-06
-7.05589e-07
7.98186e-06
-4.18742e-07
7.92711e-06
-1.50643e-07
7.74566e-06
1.00677e-07
7.44851e-06
3.35226e-07
7.04656e-06
5.53176e-07
6.54827e-06
7.58134e-07
5.96153e-06
9.51739e-07
5.29463e-06
1.13362e-06
4.55324e-06
1.30671e-06
3.72959e-06
1.48841e-06
2.83004e-06
1.66112e-06
1.9361e-06
1.77624e-06
8.94723e-07
1.82091e-06
-9.12296e-08
1.89639e-06
-1.07315e-06
1.93401e-06
-2.03521e-06
1.92041e-06
-2.956e-06
1.85908e-06
-3.80406e-06
1.7417e-06
-4.55046e-06
1.55928e-06
-5.15198e-06
1.30511e-06
-5.56883e-06
9.52797e-07
-5.8492e-06
6.23432e-07
-1.55748e-07
2.18323e-06
-7.4971e-06
4.58994e-06
-7.31971e-06
6.81557e-06
-6.8497e-06
8.76188e-06
-6.09613e-06
1.03408e-05
-5.09479e-06
1.14919e-05
-3.92333e-06
1.21924e-05
-2.6783e-06
1.25073e-05
-1.51649e-06
1.24801e-05
-4.48617e-07
1.21411e-05
5.24715e-07
1.15477e-05
1.34974e-06
1.07677e-05
2.00091e-06
9.86185e-06
2.47846e-06
8.87002e-06
2.81197e-06
7.80222e-06
3.07202e-06
6.71232e-06
3.29054e-06
5.60341e-06
3.4171e-06
4.56768e-06
3.31297e-06
3.58136e-06
3.30592e-06
2.59775e-06
3.27508e-06
1.63494e-06
3.26628e-06
6.723e-07
3.28554e-06
-3.12027e-07
3.33932e-06
-1.33833e-06
3.42518e-06
-2.42084e-06
3.53393e-06
-3.5682e-06
3.65265e-06
-4.78125e-06
3.7602e-06
-6.04397e-06
3.81766e-06
-7.32044e-06
3.77765e-06
-8.5409e-06
3.58865e-06
-9.68023e-06
3.30654e-06
-1.06563e-05
2.84992e-06
-1.14489e-05
2.28961e-06
-1.20203e-05
1.61724e-06
-1.23223e-05
8.2154e-07
-1.23134e-05
-8.20019e-08
-1.19608e-05
-1.0647e-06
-1.12488e-05
-2.07993e-06
-1.018e-05
-3.07335e-06
-8.77554e-06
-4.00497e-06
-7.07243e-06
-4.84947e-06
-5.13088e-06
-5.61935e-06
-3.05722e-06
-6.05073e-06
-7.80808e-07
-6.3265e-06
1.48586e-06
-6.36265e-06
3.66142e-06
-6.18261e-06
5.68575e-06
-5.81607e-06
7.50068e-06
-5.27901e-06
9.05435e-06
-4.59317e-06
1.03092e-05
-3.79506e-06
1.12437e-05
-2.92652e-06
1.18457e-05
-2.02668e-06
1.21346e-05
-1.152e-06
1.21483e-05
-3.40147e-07
1.1915e-05
3.99151e-07
1.1463e-05
1.05932e-06
1.08289e-05
1.62416e-06
1.00453e-05
2.09438e-06
9.14062e-06
2.48318e-06
8.12501e-06
2.81857e-06
7.01037e-06
3.15323e-06
5.79691e-06
3.51108e-06
4.5294e-06
3.61457e-06
3.2269e-06
3.80511e-06
1.84749e-06
3.91773e-06
4.34244e-07
4.01259e-06
-9.90549e-07
4.05245e-06
-2.4199e-06
4.0546e-06
-3.84442e-06
4.01666e-06
-5.24046e-06
3.92142e-06
-6.60431e-06
3.79085e-06
-7.89498e-06
3.57349e-06
-9.08755e-06
3.28472e-06
-1.01442e-05
2.91053e-06
-1.10162e-05
2.44652e-06
-1.16834e-05
1.92242e-06
-1.21397e-05
1.35323e-06
-1.2364e-05
7.33376e-07
-1.23387e-05
7.03484e-08
-1.20525e-05
-6.22348e-07
-1.14987e-05
-1.32889e-06
-1.06877e-05
-2.01311e-06
-9.64086e-06
-2.64684e-06
-8.38815e-06
-3.20785e-06
-6.95831e-06
-3.69255e-06
-5.38933e-06
-4.11228e-06
-3.72078e-06
-4.4523e-06
-1.98544e-06
-4.55831e-06
-2.3852e-07
-4.52849e-06
1.43158e-06
-4.40412e-06
2.96797e-06
-4.14188e-06
4.3528e-06
-3.80306e-06
5.57255e-06
-3.40563e-06
6.61123e-06
-2.95496e-06
7.45914e-06
-2.46965e-06
8.10843e-06
-1.9629e-06
8.56023e-06
-1.45732e-06
8.83213e-06
-9.77487e-07
8.94579e-06
-5.32404e-07
8.91383e-06
-1.18695e-07
8.74601e-06
2.68496e-07
8.45278e-06
6.28457e-07
8.04619e-06
9.59765e-07
7.53482e-06
1.2695e-06
6.92499e-06
1.56156e-06
6.22142e-06
1.8372e-06
5.42711e-06
2.10102e-06
4.55143e-06
2.36409e-06
3.59238e-06
2.62016e-06
2.57818e-06
2.79043e-06
1.47957e-06
2.91953e-06
3.58142e-07
3.01781e-06
-7.8247e-07
3.07462e-06
-1.90431e-06
3.04225e-06
-2.98891e-06
2.94368e-06
-4.01529e-06
2.76808e-06
-4.9389e-06
2.48289e-06
-5.73352e-06
2.09972e-06
-6.34448e-06
1.56376e-06
-6.81453e-06
1.09348e-06
5.69402e-08
3.09448e-07
-1.01165e-05
2.86064e-06
-9.8709e-06
5.23213e-06
-9.22119e-06
7.31074e-06
-8.17474e-06
8.97883e-06
-6.76289e-06
1.01817e-05
-5.12622e-06
1.08969e-05
-3.39344e-06
1.12891e-05
-1.90869e-06
1.13338e-05
-4.93308e-07
1.10651e-05
7.93354e-07
1.05567e-05
1.85814e-06
9.87806e-06
2.67958e-06
9.087e-06
3.26953e-06
8.23754e-06
3.66143e-06
7.38146e-06
3.9281e-06
6.56809e-06
4.1039e-06
5.818e-06
4.16719e-06
5.03804e-06
4.09293e-06
4.35015e-06
3.99381e-06
3.7182e-06
3.90703e-06
3.12132e-06
3.86316e-06
2.52799e-06
3.87887e-06
1.89467e-06
3.97263e-06
1.17553e-06
4.14431e-06
3.3134e-07
4.37812e-06
-6.7067e-07
4.65466e-06
-1.85707e-06
4.94661e-06
-3.21748e-06
5.17806e-06
-4.72051e-06
5.28069e-06
-6.20173e-06
5.06987e-06
-7.7747e-06
4.87951e-06
-9.21159e-06
4.28681e-06
-1.0513e-05
3.59097e-06
-1.16322e-05
2.73645e-06
-1.24925e-05
1.6819e-06
-1.30211e-05
4.46592e-07
-1.3169e-05
-9.16825e-07
-1.2902e-05
-2.34689e-06
-1.22079e-05
-3.76749e-06
-1.11189e-05
-5.09393e-06
-9.70083e-06
-6.26759e-06
-8.05127e-06
-7.26891e-06
-6.08892e-06
-8.01308e-06
-3.92935e-06
-8.48607e-06
-1.65791e-06
-8.63409e-06
6.11885e-07
-8.45241e-06
2.80165e-06
-8.00584e-06
4.84186e-06
-7.31921e-06
6.65901e-06
-6.41033e-06
8.20309e-06
-5.33914e-06
9.46832e-06
-4.19175e-06
1.045e-05
-3.00835e-06
1.11355e-05
-1.83755e-06
1.15167e-05
-7.21312e-07
1.16293e-05
2.86515e-07
1.15247e-05
1.16396e-06
1.12357e-05
1.91315e-06
1.07903e-05
2.53977e-06
1.0201e-05
3.07251e-06
9.48355e-06
3.53602e-06
8.67196e-06
3.96482e-06
7.82258e-06
4.36046e-06
6.79269e-06
4.64446e-06
5.71193e-06
4.88587e-06
4.54681e-06
5.08285e-06
3.31877e-06
5.24063e-06
2.03485e-06
5.33638e-06
6.91782e-07
5.39767e-06
-7.13391e-07
5.42183e-06
-2.17767e-06
5.3857e-06
-3.69068e-06
5.30386e-06
-5.21873e-06
5.10154e-06
-6.73054e-06
4.79653e-06
-8.19055e-06
4.37055e-06
-9.54462e-06
3.80058e-06
-1.07609e-05
3.13873e-06
-1.18067e-05
2.39903e-06
-1.26398e-05
1.56645e-06
-1.32051e-05
6.35657e-07
-1.34697e-05
-3.57803e-07
-1.34217e-05
-1.37688e-06
-1.30483e-05
-2.38644e-06
-1.23534e-05
-3.34182e-06
-1.13636e-05
-4.19759e-06
-1.01086e-05
-4.94758e-06
-8.65762e-06
-5.56325e-06
-7.08467e-06
-6.02526e-06
-5.36084e-06
-6.28214e-06
-3.49763e-06
-6.3917e-06
-1.59352e-06
-6.30823e-06
2.69622e-07
-6.00503e-06
2.04631e-06
-5.57975e-06
3.69262e-06
-5.05194e-06
5.15676e-06
-4.41911e-06
6.4271e-06
-3.73999e-06
7.49604e-06
-3.03185e-06
8.36258e-06
-2.32386e-06
9.02468e-06
-1.63959e-06
9.4818e-06
-9.89525e-07
9.74375e-06
-3.80649e-07
9.83522e-06
1.77025e-07
9.77809e-06
6.85583e-07
9.58355e-06
1.15431e-06
9.25678e-06
1.59627e-06
8.79895e-06
2.01938e-06
8.21146e-06
2.42469e-06
7.4952e-06
2.81728e-06
6.66255e-06
3.19674e-06
5.73406e-06
3.54865e-06
4.69415e-06
3.83035e-06
3.56342e-06
4.05025e-06
2.34704e-06
4.23419e-06
1.06084e-06
4.36082e-06
-2.63981e-07
4.36707e-06
-1.60136e-06
4.28105e-06
-2.93175e-06
4.09847e-06
-4.18825e-06
3.73939e-06
-5.33904e-06
3.25051e-06
-6.33018e-06
2.55491e-06
-7.22377e-06
1.98706e-06
7.00821e-07
-6.28533e-06
-1.32741e-05
-2.9721e-06
-1.31841e-05
3.21314e-07
-1.25146e-05
3.38439e-06
-1.12378e-05
6.07571e-06
-9.4542e-06
8.30598e-06
-7.35649e-06
9.7467e-06
-4.83416e-06
1.09269e-05
-3.08892e-06
1.16265e-05
-1.19286e-06
1.18825e-05
5.3736e-07
1.17757e-05
1.96493e-06
1.14124e-05
3.04286e-06
1.09029e-05
3.77905e-06
1.03255e-05
4.23886e-06
9.73862e-06
4.51496e-06
9.17243e-06
4.67009e-06
8.6362e-06
4.70342e-06
8.104e-06
4.62513e-06
7.62661e-06
4.4712e-06
7.15774e-06
4.3759e-06
6.70208e-06
4.31882e-06
6.23235e-06
4.34861e-06
5.69241e-06
4.51257e-06
5.02318e-06
4.81354e-06
4.171e-06
5.2303e-06
3.08633e-06
5.73932e-06
1.73181e-06
6.30113e-06
9.25623e-08
6.81731e-06
-1.80478e-06
7.17802e-06
-3.91222e-06
7.17732e-06
-5.98882e-06
6.95611e-06
-7.95795e-06
6.25594e-06
-9.86238e-06
5.4954e-06
-1.16615e-05
4.53555e-06
-1.32627e-05
3.28316e-06
-1.4552e-05
1.73587e-06
-1.54332e-05
-3.56094e-08
-1.58298e-05
-1.95029e-06
-1.56733e-05
-3.924e-06
-1.49603e-05
-5.80697e-06
-1.37838e-05
-7.44401e-06
-1.22677e-05
-8.785e-06
-1.04553e-05
-9.82557e-06
-8.38346e-06
-1.05579e-05
-6.11338e-06
-1.09042e-05
-3.70045e-06
-1.08653e-05
-1.24541e-06
-1.04609e-05
1.13925e-06
-9.70387e-06
3.35351e-06
-8.62459e-06
5.36121e-06
-7.34684e-06
7.14572e-06
-5.97626e-06
8.63713e-06
-4.49976e-06
9.82e-06
-3.02042e-06
1.07181e-05
-1.61945e-06
1.13508e-05
-3.46163e-07
1.17374e-05
7.77389e-07
1.18957e-05
1.75487e-06
1.18492e-05
2.58624e-06
1.16337e-05
3.28798e-06
1.12708e-05
3.89894e-06
1.07796e-05
4.45598e-06
1.01769e-05
4.96324e-06
9.41112e-06
5.41022e-06
8.52959e-06
5.7674e-06
7.57699e-06
6.03545e-06
6.52601e-06
6.2916e-06
5.34392e-06
6.51847e-06
4.03124e-06
6.71035e-06
2.59837e-06
6.85469e-06
1.04513e-06
6.93894e-06
-5.91806e-07
6.9408e-06
-2.29719e-06
6.80693e-06
-4.06089e-06
6.56023e-06
-5.82355e-06
6.1332e-06
-7.45297e-06
5.43e-06
-8.96345e-06
4.64921e-06
-1.03603e-05
3.79588e-06
-1.16193e-05
2.8254e-06
-1.26948e-05
1.71118e-06
-1.35251e-05
4.72539e-07
-1.40576e-05