/*--------------------------------*- C++ -*----------------------------------*\
| =========                 |                                                 |
| \\      /  F ield         | OpenFOAM: The Open Source CFD Toolbox           |
|  \\    /   O peration     | Version:  2206                                  |
|   \\  /    A nd           | Website:  www.openfoam.com                      |
|    \\/     M anipulation  |                                                 |
\*---------------------------------------------------------------------------*/
FoamFile
{
    version     2.0;
    format      ascii;
    arch        "LSB;label=32;scalar=64";
    class       surfaceScalarField;
    location    "18.6999";
    object      phi;
}
// * * * * * * * * * * * * * * * * * * * * * * * * * * * * * * * * * * * * * //

dimensions      [0 3 -1 0 0 0 0];

oriented        oriented;

internalField   nonuniform List<scalar> 
9447
(
9.968e-06
-1.01346e-06
9.70025e-07
1.00137e-05
-1.1689e-06
1.12325e-06
1.0061e-05
-1.30603e-06
1.25866e-06
1.01096e-05
-1.42353e-06
1.37492e-06
1.01591e-05
-1.52036e-06
1.47092e-06
1.0209e-05
-1.59572e-06
1.54581e-06
1.02591e-05
-1.64924e-06
1.59911e-06
1.03095e-05
-1.68059e-06
1.63017e-06
1.03604e-05
-1.68763e-06
1.63679e-06
1.04112e-05
-1.66727e-06
1.61646e-06
1.04614e-05
-1.61945e-06
1.56919e-06
1.05107e-05
-1.54489e-06
1.49563e-06
1.05585e-05
-1.44475e-06
1.39691e-06
1.06046e-05
-1.32062e-06
1.27454e-06
1.06486e-05
-1.17451e-06
1.13052e-06
1.06902e-05
-1.00881e-06
9.67216e-07
1.07291e-05
-8.26352e-07
7.87451e-07
1.0765e-05
-6.30346e-07
5.94433e-07
1.07976e-05
-4.24376e-07
3.91782e-07
1.08265e-05
-2.1246e-07
1.83617e-07
1.0851e-05
4.43497e-10
-2.50221e-08
1.0871e-05
2.10311e-07
-2.30291e-07
1.08861e-05
4.14036e-07
-4.29085e-07
1.08959e-05
6.0877e-07
-6.18602e-07
1.09003e-05
7.92017e-07
-7.96399e-07
1.08991e-05
9.61645e-07
-9.60422e-07
1.08922e-05
1.11593e-06
-1.10905e-06
1.08797e-05
1.25351e-06
-1.24105e-06
1.08619e-05
1.37341e-06
-1.35558e-06
1.0839e-05
1.47496e-06
-1.45211e-06
1.08117e-05
1.55777e-06
-1.5304e-06
1.07804e-05
1.62164e-06
-1.59041e-06
1.07459e-05
1.6667e-06
-1.6322e-06
1.07084e-05
1.6931e-06
-1.65559e-06
1.06681e-05
1.69977e-06
-1.65948e-06
1.06264e-05
1.68469e-06
-1.64299e-06
1.05848e-05
1.64754e-06
-1.60591e-06
1.05447e-05
1.58801e-06
-1.54792e-06
1.05075e-05
1.50609e-06
-1.46881e-06
1.04741e-05
1.402e-06
-1.36862e-06
1.04455e-05
1.27632e-06
-1.2477e-06
1.04222e-05
1.13012e-06
-1.1069e-06
1.04049e-05
9.64927e-07
-9.47623e-07
1.0394e-05
7.82774e-07
-7.71831e-07
1.03891e-05
5.86537e-07
-5.81638e-07
1.03893e-05
3.7979e-07
-3.79977e-07
1.03946e-05
1.65877e-07
-1.71163e-07
1.04051e-05
-5.12722e-08
4.07753e-08
1.04201e-05
-2.66634e-07
2.51643e-07
1.0439e-05
-4.76825e-07
4.57877e-07
1.04614e-05
-6.788e-07
6.56358e-07
1.04868e-05
-8.69516e-07
8.44153e-07
1.05145e-05
-1.04638e-06
1.01865e-06
1.0544e-05
-1.20702e-06
1.17754e-06
1.05746e-05
-1.34947e-06
1.31886e-06
1.06057e-05
-1.47221e-06
1.44109e-06
1.06367e-05
-1.57405e-06
1.5431e-06
1.06669e-05
-1.65445e-06
1.62428e-06
1.06958e-05
-1.71347e-06
1.68453e-06
1.07233e-05
-1.75175e-06
1.72428e-06
1.07497e-05
-1.77034e-06
1.74391e-06
1.07759e-05
-1.76657e-06
1.74037e-06
1.08008e-05
-1.73537e-06
1.71051e-06
1.08234e-05
-1.67722e-06
1.65457e-06
1.08435e-05
-1.59395e-06
1.57389e-06
1.08607e-05
-1.48738e-06
1.47012e-06
1.0875e-05
-1.35951e-06
1.3452e-06
1.08863e-05
-1.21254e-06
1.2013e-06
1.08943e-05
-1.04893e-06
1.04087e-06
1.08991e-05
-8.71384e-07
8.66595e-07
1.09006e-05
-6.82837e-07
6.81395e-07
1.08986e-05
-4.86496e-07
4.88475e-07
1.08931e-05
-2.85932e-07
2.91448e-07
1.08839e-05
-8.5488e-08
9.46803e-08
1.08709e-05
1.11504e-07
-9.8524e-08
1.0854e-05
3.02318e-07
-2.85434e-07
1.08331e-05
4.84403e-07
-4.63527e-07
1.08082e-05
6.55467e-07
-6.3054e-07
1.07792e-05
8.135e-07
-7.8451e-07
1.07462e-05
9.56789e-07
-9.23799e-07
1.07094e-05
1.08392e-06
-1.04709e-06
1.0669e-05
1.19383e-06
-1.15338e-06
1.06252e-05
1.28575e-06
-1.24198e-06
1.05785e-05
1.3592e-06
-1.31249e-06
1.05292e-05
1.41394e-06
-1.36466e-06
1.04775e-05
1.44985e-06
-1.3982e-06
1.04237e-05
1.46618e-06
-1.41232e-06
1.03682e-05
1.46169e-06
-1.40621e-06
1.03119e-05
1.43672e-06
-1.38042e-06
1.02556e-05
1.39214e-06
-1.3358e-06
1.01999e-05
1.32897e-06
-1.27334e-06
1.01457e-05
1.24839e-06
-1.19421e-06
1.00937e-05
1.15175e-06
-1.09972e-06
1.00445e-05
1.04056e-06
-9.91315e-07
9.99861e-06
9.16512e-07
-8.70642e-07
9.95661e-06
7.81481e-07
-7.39489e-07
9.91892e-06
6.37479e-07
-5.99787e-07
9.88587e-06
4.86649e-07
-4.53599e-07
9.85773e-06
3.31276e-07
-3.03134e-07
9.83476e-06
1.73897e-07
-1.50927e-07
9.817e-06
1.71679e-08
5.93032e-10
9.80451e-06
-1.37078e-07
1.49567e-07
9.79735e-06
-2.86932e-07
2.94095e-07
9.79551e-06
-4.30443e-07
4.32282e-07
9.79887e-06
-5.65654e-07
5.62293e-07
9.80717e-06
-6.90693e-07
6.82397e-07
9.82002e-06
-8.03945e-07
7.91088e-07
9.83702e-06
-9.04119e-07
8.87125e-07
9.85775e-06
-9.90259e-07
9.69527e-07
9.88182e-06
-1.06162e-06
1.03755e-06
9.90885e-06
-1.11766e-06
1.09064e-06
9.93854e-06
-1.15811e-06
1.12841e-06
9.97101e-06
-1.18273e-06
1.15025e-06
1.00067e-05
-1.19012e-06
1.15444e-06
1.00452e-05
-1.17828e-06
1.13978e-06
1.0086e-05
-1.14738e-06
1.10654e-06
1.01287e-05
-1.09797e-06
1.05526e-06
1.01729e-05
-1.03098e-06
9.8685e-07
1.0218e-05
-9.47631e-07
9.02461e-07
1.02639e-05
-8.49332e-07
8.03482e-07
1.03101e-05
-7.37692e-07
6.91504e-07
1.03563e-05
-6.14506e-07
5.68316e-07
1.04021e-05
-4.81745e-07
4.35889e-07
1.04473e-05
-3.41561e-07
2.96385e-07
1.04914e-05
-1.96333e-07
1.52231e-07
1.05339e-05
-4.87896e-08
6.34376e-09
1.05742e-05
9.79634e-08
-1.38305e-07
1.0612e-05
2.41919e-07
-2.7977e-07
1.0647e-05
3.80749e-07
-4.15696e-07
1.06787e-05
5.13306e-07
-5.44968e-07
1.07066e-05
6.3652e-07
-6.64467e-07
1.07307e-05
7.51222e-07
-7.75289e-07
1.07503e-05
8.52716e-07
-8.72361e-07
1.07659e-05
9.44793e-07
-9.60378e-07
1.07766e-05
1.01859e-06
-1.02927e-06
1.07832e-05
1.08663e-06
-1.09323e-06
1.14132e-06
-1.14248e-06
9.89698e-06
-1.05415e-06
9.93909e-06
-1.21101e-06
9.98211e-06
-1.34905e-06
1.00256e-05
-1.46704e-06
1.00693e-05
-1.56399e-06
1.01127e-05
-1.6392e-06
1.01559e-05
-1.69242e-06
1.01989e-05
-1.72362e-06
1.02423e-05
-1.73095e-06
1.02856e-05
-1.71062e-06
1.03286e-05
-1.66242e-06
1.03708e-05
-1.58714e-06
1.04121e-05
-1.48603e-06
1.04522e-05
-1.3607e-06
1.04909e-05
-1.21318e-06
1.05279e-05
-1.04588e-06
1.05632e-05
-8.61604e-07
1.05964e-05
-6.6355e-07
1.06273e-05
-4.55254e-07
1.06555e-05
-2.40659e-07
1.06805e-05
-2.45445e-08
1.07019e-05
1.88893e-07
1.07194e-05
3.96549e-07
1.07326e-05
5.95548e-07
1.07412e-05
7.83358e-07
1.07451e-05
9.57786e-07
1.0744e-05
1.11698e-06
1.07381e-05
1.25946e-06
1.07274e-05
1.38416e-06
1.07121e-05
1.49021e-06
1.06929e-05
1.57702e-06
1.06702e-05
1.64428e-06
1.06448e-05
1.69207e-06
1.06172e-05
1.72074e-06
1.0587e-05
1.72997e-06
1.0555e-05
1.71667e-06
1.0523e-05
1.67954e-06
1.04925e-05
1.61848e-06
1.04648e-05
1.53383e-06
1.04407e-05
1.4261e-06
1.04209e-05
1.2961e-06
1.04058e-05
1.14522e-06
1.03956e-05
9.75194e-07
1.03901e-05
7.88275e-07
1.03888e-05
5.87757e-07
1.03918e-05
3.7679e-07
1.03994e-05
1.58305e-07
1.04111e-05
-6.29402e-08
1.04261e-05
-2.81667e-07
1.0444e-05
-4.94707e-07
1.04642e-05
-6.99039e-07
1.04863e-05
-8.91571e-07
1.05097e-05
-1.06982e-06
1.05341e-05
-1.23136e-06
1.05588e-05
-1.37421e-06
1.05834e-05
-1.49683e-06
1.06073e-05
-1.59795e-06
1.06299e-05
-1.67702e-06
1.06507e-05
-1.73429e-06
1.06695e-05
-1.77049e-06
1.06863e-05
-1.78722e-06
1.07038e-05
-1.78401e-06
1.07196e-05
-1.75123e-06
1.0733e-05
-1.69064e-06
1.0744e-05
-1.60495e-06
1.07527e-05
-1.49599e-06
1.07589e-05
-1.36574e-06
1.07627e-05
-1.21638e-06
1.07641e-05
-1.05034e-06
1.07631e-05
-8.70324e-07
1.07595e-05
-6.79264e-07
1.07534e-05
-4.80361e-07
1.07446e-05
-2.77133e-07
1.0733e-05
-7.38879e-08
1.07184e-05
1.26032e-07
1.07009e-05
3.19899e-07
1.06801e-05
5.05159e-07
1.06561e-05
6.79504e-07
1.06287e-05
8.40866e-07
1.0598e-05
9.87455e-07
1.05642e-05
1.11779e-06
1.05273e-05
1.23074e-06
1.04876e-05
1.32544e-06
1.04454e-05
1.40134e-06
1.04012e-05
1.45822e-06
1.03549e-05
1.49607e-06
1.03068e-05
1.51434e-06
1.02571e-05
1.51138e-06
1.02066e-05
1.48719e-06
1.01561e-05
1.44265e-06
1.01063e-05
1.37879e-06
1.00578e-05
1.29685e-06
1.00114e-05
1.19823e-06
9.96741e-06
1.08451e-06
9.92645e-06
9.57467e-07
9.88891e-06
8.19027e-07
9.85512e-06
6.7127e-07
9.82538e-06
5.16391e-07
9.79995e-06
3.567e-07
9.77903e-06
1.94815e-07
9.76268e-06
3.35261e-08
9.75086e-06
-1.25265e-07
9.74364e-06
-2.79711e-07
9.74103e-06
-4.27832e-07
9.74291e-06
-5.67532e-07
9.74904e-06
-6.96829e-07
9.75922e-06
-8.14115e-07
9.77302e-06
-9.17927e-07
9.79e-06
-1.00724e-06
9.80983e-06
-1.08145e-06
9.83213e-06
-1.13997e-06
9.85653e-06
-1.18251e-06
9.88296e-06
-1.20915e-06
9.9121e-06
-1.21926e-06
9.94399e-06
-1.21017e-06
9.97813e-06
-1.18153e-06
1.00141e-05
-1.13394e-06
1.00515e-05
-1.06841e-06
1.00901e-05
-9.86233e-07
1.01297e-05
-8.88857e-07
1.01699e-05
-7.77893e-07
1.02105e-05
-6.55117e-07
1.02512e-05
-5.22486e-07
1.02918e-05
-3.82135e-07
1.03318e-05
-2.36387e-07
1.03709e-05
-8.78501e-08
1.04085e-05
6.04e-08
1.04442e-05
2.06186e-07
1.04777e-05
3.47281e-07
1.05086e-05
4.82419e-07
1.05363e-05
6.08744e-07
1.05609e-05
7.26638e-07
1.05817e-05
8.31909e-07
1.0599e-05
9.27558e-07
1.0612e-05
1.00558e-06
1.06218e-05
1.07675e-06
1.13704e-06
9.85357e-06
-1.09219e-06
9.89221e-06
-1.24964e-06
9.93096e-06
-1.3878e-06
9.96941e-06
-1.5055e-06
1.00073e-05
-1.60184e-06
1.00443e-05
-1.67622e-06
1.00804e-05
-1.72852e-06
1.01158e-05
-1.75905e-06
1.01514e-05
-1.76649e-06
1.0187e-05
-1.74621e-06
1.02223e-05
-1.69774e-06
1.02571e-05
-1.62199e-06
1.02914e-05
-1.5203e-06
1.0325e-05
-1.39433e-06
1.03579e-05
-1.24608e-06
1.039e-05
-1.07795e-06
1.04211e-05
-8.92694e-07
1.0451e-05
-6.93464e-07
1.04795e-05
-4.83767e-07
1.05063e-05
-2.67475e-07
1.05309e-05
-4.91558e-08
1.0553e-05
1.66842e-07
1.05721e-05
3.7742e-07
1.0588e-05
5.79709e-07
1.06002e-05
7.71141e-07
1.06085e-05
9.49484e-07
1.06127e-05
1.11274e-06
1.06128e-05
1.2594e-06
1.06087e-05
1.38822e-06
1.06008e-05
1.49814e-06
1.05894e-05
1.58843e-06
1.05751e-05
1.65856e-06
1.05587e-05
1.70842e-06
1.0541e-05
1.73845e-06
1.05215e-05
1.74946e-06
1.04995e-05
1.73875e-06
1.04775e-05
1.70152e-06
1.04571e-05
1.63891e-06
1.04391e-05
1.55181e-06
1.0424e-05
1.44117e-06
1.04121e-05
1.30797e-06
1.04039e-05
1.15349e-06
1.03993e-05
9.79735e-07
1.03984e-05
7.89206e-07
1.04014e-05
5.84776e-07
1.04084e-05
3.69784e-07
1.04188e-05
1.47926e-07
1.04317e-05
-7.59098e-08
1.0447e-05
-2.96895e-07
1.0464e-05
-5.11699e-07
1.04822e-05
-7.17254e-07
1.05012e-05
-9.10559e-07
1.05205e-05
-1.08914e-06
1.05397e-05
-1.25056e-06
1.05584e-05
-1.39294e-06
1.05763e-05
-1.51477e-06
1.05931e-05
-1.61472e-06
1.06083e-05
-1.69223e-06
1.06214e-05
-1.7474e-06
1.06321e-05
-1.78112e-06
1.06403e-05
-1.79544e-06
1.06489e-05
-1.79264e-06
1.06553e-05
-1.75763e-06
1.06593e-05
-1.69462e-06
1.06612e-05
-1.60688e-06
1.06613e-05
-1.49609e-06
1.06597e-05
-1.36411e-06
1.06564e-05
-1.21305e-06
1.06514e-05
-1.04534e-06
1.06447e-05
-8.63645e-07
1.06363e-05
-6.70902e-07
1.06263e-05
-4.70289e-07
1.06144e-05
-2.65256e-07
1.06005e-05
-6.00586e-08
1.05846e-05
1.41942e-07
1.05665e-05
3.38019e-07
1.0546e-05
5.25635e-07
1.05231e-05
7.02451e-07
1.04976e-05
8.66356e-07
1.04696e-05
1.01551e-06
1.0439e-05
1.14838e-06
1.0406e-05
1.26375e-06
1.03707e-05
1.36069e-06
1.03335e-05
1.43857e-06
1.02945e-05
1.49718e-06
1.0254e-05
1.53654e-06
1.0212e-05
1.55638e-06
1.01685e-05
1.55484e-06
1.01244e-05
1.53133e-06
1.00803e-05
1.48676e-06
1.00368e-05
1.42223e-06
9.99462e-06
1.33907e-06
9.95407e-06
1.23878e-06
9.9156e-06
1.12299e-06
9.87955e-06
9.93514e-07
9.84627e-06
8.52305e-07
9.81611e-06
7.01435e-07
9.78941e-06
5.4309e-07
9.76653e-06
3.79582e-07
9.74784e-06
2.135e-07
9.73358e-06
4.779e-08
9.72363e-06
-1.15314e-07
9.71755e-06
-2.73638e-07
9.71505e-06
-4.25329e-07
9.71596e-06
-5.68443e-07
9.71994e-06
-7.0081e-07
9.72682e-06
-8.20996e-07
9.73696e-06
-9.28069e-07
9.75034e-06
-1.02061e-06
9.76623e-06
-1.09733e-06
9.78398e-06
-1.15772e-06
9.80321e-06
-1.20173e-06
9.82379e-06
-1.22973e-06
9.84645e-06
-1.24192e-06
9.87171e-06
-1.23543e-06
9.8991e-06
-1.20892e-06
9.92817e-06
-1.16301e-06
9.95862e-06
-1.09887e-06
9.99031e-06
-1.01792e-06
1.00231e-05
-9.21677e-07
1.0057e-05
-8.1172e-07
1.00916e-05
-6.8976e-07
1.01268e-05
-5.57714e-07
1.01624e-05
-4.177e-07
1.0198e-05
-2.7201e-07
1.02333e-05
-1.23108e-07
1.02677e-05
2.59884e-08
1.03009e-05
1.72965e-07
1.03326e-05
3.1563e-07
1.03623e-05
4.52698e-07
1.03897e-05
5.81361e-07
1.04144e-05
7.01872e-07
1.04363e-05
8.10039e-07
1.0455e-05
9.08876e-07
1.04706e-05
9.89977e-07
1.04834e-05
1.06395e-06
1.12979e-06
9.8393e-06
-1.1275e-06
9.87443e-06
-1.28477e-06
9.90889e-06
-1.42227e-06
9.94232e-06
-1.53893e-06
9.97445e-06
-1.63397e-06
1.00051e-05
-1.70682e-06
1.00341e-05
-1.75754e-06
1.00618e-05
-1.78678e-06
1.00894e-05
-1.79409e-06
1.0117e-05
-1.77386e-06
1.01444e-05
-1.72505e-06
1.01713e-05
-1.64895e-06
1.01981e-05
-1.54705e-06
1.02247e-05
-1.42097e-06
1.02513e-05
-1.27272e-06
1.0278e-05
-1.10458e-06
1.03045e-05
-9.19196e-07
1.03307e-05
-7.19681e-07
1.03564e-05
-5.09514e-07
1.03814e-05
-2.92458e-07
1.04052e-05
-7.2906e-08
1.04273e-05
1.44706e-07
1.04475e-05
3.57253e-07
1.04653e-05
5.6189e-07
1.04804e-05
7.56012e-07
1.04926e-05
9.37347e-07
1.05015e-05
1.10383e-06
1.0507e-05
1.25388e-06
1.05092e-05
1.38603e-06
1.05083e-05
1.49906e-06
1.05045e-05
1.59221e-06
1.04986e-05
1.66448e-06
1.04914e-05
1.71562e-06
1.04834e-05
1.74639e-06
1.04746e-05
1.75826e-06
1.04623e-05
1.75111e-06
1.04503e-05
1.71349e-06
1.04397e-05
1.64948e-06
1.04308e-05
1.56077e-06
1.04239e-05
1.44805e-06
1.04195e-05
1.31236e-06
1.04179e-05
1.15509e-06
1.04194e-05
9.78247e-07
1.04241e-05
7.84537e-07
1.04318e-05
5.77055e-07
1.04423e-05
3.59268e-07
1.04551e-05
1.35144e-07
1.04693e-05
-9.01452e-08
1.04846e-05
-3.12178e-07
1.05004e-05
-5.27534e-07
1.05163e-05
-7.33149e-07
1.05319e-05
-9.26142e-07
1.05468e-05
-1.10401e-06
1.05607e-05
-1.26447e-06
1.05735e-05
-1.40569e-06
1.05848e-05
-1.52611e-06
1.05945e-05
-1.62446e-06
1.06025e-05
-1.70021e-06
1.06084e-05
-1.75326e-06
1.06119e-05
-1.78464e-06
1.06134e-05
-1.79697e-06
1.06123e-05
-1.79155e-06
1.06087e-05
-1.75394e-06
1.06032e-05
-1.68917e-06
1.05963e-05
-1.6e-06
1.05882e-05
-1.48798e-06
1.0579e-05
-1.35491e-06
1.05688e-05
-1.20287e-06
1.05577e-05
-1.03423e-06
1.05457e-05
-8.51638e-07
1.05328e-05
-6.57996e-07
1.0519e-05
-4.56464e-07
1.05042e-05
-2.50447e-07
1.04883e-05
-4.41652e-08
1.04712e-05
1.59016e-07
1.04528e-05
3.56409e-07
1.04329e-05
5.45501e-07
1.04114e-05
7.23953e-07
1.03882e-05
8.89633e-07
1.0363e-05
1.04066e-06
1.03359e-05
1.17547e-06
1.0307e-05
1.29272e-06
1.02763e-05
1.39138e-06
1.02441e-05
1.47076e-06
1.02107e-05
1.53054e-06
1.01765e-05
1.57078e-06
1.01412e-05
1.59164e-06
1.01048e-05
1.59127e-06
1.00678e-05
1.56832e-06
1.00308e-05
1.52376e-06
9.9942e-06
1.45882e-06
9.95834e-06
1.37493e-06
9.92348e-06
1.27364e-06
9.88992e-06
1.15655e-06
9.85801e-06
1.02542e-06
9.82815e-06
8.82167e-07
9.80079e-06
7.28799e-07
9.77639e-06
5.67485e-07
9.7554e-06
4.00571e-07
9.73824e-06
2.30666e-07
9.72511e-06
6.09208e-08
9.71607e-06
-1.06281e-07
9.71088e-06
-2.68445e-07
9.70886e-06
-4.23311e-07
9.70957e-06
-5.69154e-07
9.7133e-06
-7.04535e-07
9.72008e-06
-8.27776e-07
9.72913e-06
-9.37125e-07
9.73986e-06
-1.03134e-06
9.75206e-06
-1.10953e-06
9.76541e-06
-1.17108e-06
9.7796e-06
-1.21592e-06
9.79455e-06
-1.24468e-06
9.81093e-06
-1.2583e-06
9.82988e-06
-1.25438e-06
9.8507e-06
-1.22974e-06
9.87284e-06
-1.18515e-06
9.89615e-06
-1.12218e-06
9.92067e-06
-1.04243e-06
9.94649e-06
-9.47494e-07
9.9736e-06
-8.38836e-07
1.00019e-05
-7.18049e-07
1.00312e-05
-5.87014e-07
1.00613e-05
-4.47847e-07
1.00921e-05
-3.02788e-07
1.01232e-05
-1.54183e-07
1.01541e-05
-4.91154e-09
1.01845e-05
1.4259e-07
1.0214e-05
2.861e-07
1.02422e-05
4.24464e-07
1.02689e-05
5.54642e-07
1.02936e-05
6.77231e-07
1.03162e-05
7.87413e-07
1.03361e-05
8.88978e-07
1.03537e-05
9.72401e-07
1.03691e-05
1.04852e-06
1.11967e-06
9.8536e-06
9.88561e-06
9.91616e-06
9.94488e-06
9.97147e-06
9.99573e-06
1.00176e-05
1.00375e-05
1.0057e-05
1.00768e-05
1.00959e-05
1.01145e-05
1.01331e-05
1.01522e-05
1.0172e-05
1.01926e-05
1.0214e-05
1.02359e-05
1.02583e-05
1.02808e-05
1.03032e-05
1.03248e-05
1.03455e-05
1.03647e-05
1.03821e-05
1.03975e-05
1.04104e-05
1.04208e-05
1.04289e-05
1.04348e-05
1.04389e-05
1.04416e-05
1.04434e-05
1.04447e-05
1.04451e-05
1.04437e-05
1.04419e-05
1.04403e-05
1.04397e-05
1.04408e-05
1.04442e-05
1.04499e-05
1.0458e-05
1.04683e-05
1.04807e-05
1.04947e-05
1.05099e-05
1.05254e-05
1.05407e-05
1.05554e-05
1.05689e-05
1.05809e-05
1.0591e-05
1.05991e-05
1.06049e-05
1.06087e-05
1.06106e-05
1.0611e-05
1.061e-05
1.06074e-05
1.0603e-05
1.05929e-05
1.05802e-05
1.0566e-05
1.05508e-05
1.05347e-05
1.05182e-05
1.05013e-05
1.04844e-05
1.04674e-05
1.04505e-05
1.04335e-05
1.04164e-05
1.0399e-05
1.03811e-05
1.03627e-05
1.03435e-05
1.03234e-05
1.03023e-05
1.02798e-05
1.02561e-05
1.02313e-05
1.02056e-05
1.01792e-05
1.01525e-05
1.01256e-05
1.00982e-05
1.00696e-05
1.00398e-05
1.00094e-05
9.97881e-06
9.94835e-06
9.91848e-06
9.88966e-06
9.86236e-06
9.83705e-06
9.81416e-06
9.79404e-06
9.7769e-06
9.7628e-06
9.75168e-06
9.74338e-06
9.73781e-06
9.73508e-06
9.73516e-06
9.73756e-06
9.74186e-06
9.74788e-06
9.75528e-06
9.76371e-06
9.77315e-06
9.78367e-06
9.79465e-06
9.80576e-06
9.81916e-06
9.83379e-06
9.84893e-06
9.86491e-06
9.88219e-06
9.901e-06
9.92132e-06
9.94307e-06
9.96611e-06
-6.10061e-07
9.99042e-06
-4.72154e-07
1.00159e-05
-3.28255e-07
1.00423e-05
-1.80579e-07
1.00692e-05
-3.18195e-08
1.00963e-05
1.15505e-07
1.01232e-05
2.59136e-07
1.01497e-05
3.98052e-07
1.01753e-05
5.28987e-07
1.01997e-05
6.52882e-07
1.02227e-05
7.64409e-07
1.02437e-05
8.67914e-07
1.02628e-05
9.53294e-07
1.02811e-05
1.0303e-06
1.10621e-06
9.9324e-06
9.95091e-06
9.97113e-06
9.99281e-06
1.00156e-05
1.00392e-05
1.00634e-05
1.00879e-05
1.01123e-05
1.01364e-05
1.01597e-05
1.01822e-05
1.0203e-05
1.02241e-05
1.19763e-06
1.31976e-07
1.0522e-06
1.45438e-07
8.97017e-07
1.55179e-07
7.36522e-07
1.60495e-07
5.74966e-07
1.61556e-07
4.16491e-07
1.58475e-07
2.65752e-07
1.50739e-07
1.28076e-07
1.37676e-07
9.1492e-09
1.18927e-07
-8.63356e-08
9.54849e-08
-1.55318e-07
6.89828e-08
-1.95559e-07
4.02411e-08
-2.06002e-07
1.04423e-08
-1.92428e-07
-1.35735e-08
-1.54503e-07
-3.79251e-08
-9.40065e-08
-6.04966e-08
-1.42851e-08
-7.97214e-08
8.13543e-08
-9.56394e-08
1.90141e-07
-1.08787e-07
3.08432e-07
-1.18291e-07
4.32666e-07
-1.24234e-07
5.59497e-07
-1.26831e-07
6.85946e-07
-1.26449e-07
8.09502e-07
-1.23556e-07
9.28167e-07
-1.18665e-07
1.04041e-06
-1.12244e-07
1.14511e-06
-1.04697e-07
1.24152e-06
-9.64147e-08
1.32923e-06
-8.771e-08
1.40808e-06
-7.88445e-08
1.47814e-06
-7.00604e-08
1.5397e-06
-6.1562e-08
1.5932e-06
-5.34987e-08
1.63916e-06
-4.59661e-08
1.67819e-06
-3.90284e-08
1.71092e-06
-3.2728e-08
1.73798e-06
-2.70593e-08
1.75996e-06
-2.19778e-08
1.77709e-06
-1.7128e-08
1.78954e-06
-1.24575e-08
1.79751e-06
-7.96234e-09
1.8007e-06
-3.19945e-09
1.79953e-06
1.17022e-09
1.79401e-06
5.52694e-09
1.78339e-06
1.06201e-08
1.76701e-06
1.63808e-08
1.74463e-06
2.23809e-08
1.71623e-06
2.83962e-08
1.68194e-06
3.42851e-08
1.64196e-06
3.99831e-08
1.59652e-06
4.54391e-08
1.54588e-06
5.06433e-08
1.49025e-06
5.56314e-08
1.42989e-06
6.03557e-08
1.3652e-06
6.46922e-08
1.29665e-06
6.85521e-08
1.22485e-06
7.18018e-08
1.15059e-06
7.42515e-08
1.07485e-06
7.5746e-08
9.98681e-07
7.61676e-08
9.23221e-07
7.54596e-08
8.49533e-07
7.36877e-08
7.78498e-07
7.10355e-08
7.11005e-07
6.74925e-08
6.48155e-07
6.28504e-08
5.91193e-07
5.6962e-08
5.41461e-07
4.97322e-08
5.00413e-07
4.10482e-08
4.69497e-07
3.09155e-08
4.50196e-07
1.93015e-08
4.43598e-07
6.59766e-09
4.48297e-07
-4.69898e-09
4.64535e-07
-1.62378e-08
4.9205e-07
-2.75149e-08
5.29854e-07
-3.78038e-08
5.76492e-07
-4.66383e-08
6.30265e-07
-5.37728e-08
6.89352e-07
-5.90877e-08
7.51911e-07
-6.25581e-08
8.16204e-07
-6.42933e-08
8.80691e-07
-6.44868e-08
9.4405e-07
-6.33595e-08
1.00523e-06
-6.11803e-08
1.06344e-06
-5.82095e-08
1.11811e-06
-5.46709e-08
1.16888e-06
-5.07738e-08
1.21558e-06
-4.66947e-08
1.25815e-06
-4.25742e-08
1.29668e-06
-3.85251e-08
1.33131e-06
-3.46278e-08
1.36225e-06
-3.09385e-08
1.38974e-06
-2.74973e-08
1.41407e-06
-2.43303e-08
1.43553e-06
-2.14611e-08
1.45446e-06
-1.89232e-08
1.47107e-06
-1.66124e-08
1.48554e-06
-1.44699e-08
1.49791e-06
-1.23706e-08
1.50843e-06
-1.05226e-08
1.51749e-06
-9.05606e-09
1.52514e-06
-7.6471e-09
1.53132e-06
-6.18067e-09
1.53586e-06
-4.5399e-09
1.53863e-06
-2.77137e-09
1.53949e-06
-8.58908e-10
1.53856e-06
9.26474e-10
1.53569e-06
2.86643e-09
1.53069e-06
5.00279e-09
1.52339e-06
7.30395e-09
1.51373e-06
9.65671e-09
1.50164e-06
1.20917e-08
1.48696e-06
1.46797e-08
1.46946e-06
1.75019e-08
1.44879e-06
2.06691e-08
1.4245e-06
2.42843e-08
1.39608e-06
2.84243e-08
1.36296e-06
3.3119e-08
1.32462e-06
3.83376e-08
1.28064e-06
4.39799e-08
1.23076e-06
4.98829e-08
1.17491e-06
5.58505e-08
1.11323e-06
6.16752e-08
1.04609e-06
6.71473e-08
9.74023e-07
7.20641e-08
8.97809e-07
7.62144e-08
8.18402e-07
7.94068e-08
7.3684e-07
8.15621e-08
6.5402e-07
8.282e-08
5.70824e-07
8.31953e-08
4.88351e-07
8.2473e-08
4.07924e-07
8.04271e-08
3.30853e-07
7.70716e-08
2.5858e-07
7.22725e-08
1.92453e-07
6.61277e-08
1.36107e-07
5.63457e-08
9.39769e-08
4.21299e-08
5.42316e-09
2.53356e-06
2.97315e-07
2.36107e-06
3.17922e-07
2.18616e-06
3.3009e-07
2.01422e-06
3.3244e-07
1.8516e-06
3.24175e-07
1.70503e-06
3.05042e-07
1.57991e-06
2.75856e-07
1.47926e-06
2.38328e-07
1.4037e-06
1.94487e-07
1.35308e-06
1.46104e-07
1.32789e-06
9.41766e-08
1.32861e-06
3.95168e-08
1.35203e-06
-1.29707e-08
1.40304e-06
-6.45923e-08
1.47943e-06
-1.14311e-07
1.57926e-06
-1.60324e-07
1.70051e-06
-2.00977e-07
1.84028e-06
-2.35409e-07
1.99475e-06
-2.63251e-07
2.16046e-06
-2.84001e-07
2.33368e-06
-2.97461e-07
2.51059e-06
-3.03736e-07
2.68754e-06
-3.03396e-07
2.86139e-06
-2.97407e-07
3.02965e-06
-2.86927e-07
3.19027e-06
-2.72867e-07
3.34147e-06
-2.5589e-07
3.48159e-06
-2.36535e-07
3.60924e-06
-2.15362e-07
3.7234e-06
-1.93012e-07
3.82345e-06
-1.70101e-07
3.90905e-06
-1.47162e-07
3.98018e-06
-1.24634e-07
4.03709e-06
-1.02877e-07
4.08029e-06
-8.22284e-08
4.11058e-06
-6.30203e-08
4.1291e-06
-4.55761e-08
4.13703e-06
-2.99087e-08
4.13504e-06
-1.51336e-08
4.12303e-06
-4.53338e-10
4.10136e-06
1.37156e-08
4.0707e-06
2.74543e-08
4.03149e-06
4.03819e-08
3.98559e-06
5.1428e-08
3.93304e-06
6.31711e-08
3.87378e-06
7.56414e-08
3.80831e-06
8.78508e-08
3.73729e-06
9.94144e-08
3.66151e-06
1.10069e-07
3.5818e-06
1.19689e-07
3.49897e-06
1.28266e-07
3.41364e-06
1.35978e-07
3.32615e-06
1.4312e-07
3.23687e-06
1.49632e-07
3.1464e-06
1.55169e-07
3.05536e-06
1.59586e-07
2.96451e-06
1.62655e-07
2.87473e-06
1.64034e-07
2.78698e-06
1.63491e-07
2.70233e-06
1.60819e-07
2.62195e-06
1.55841e-07
2.54709e-06
1.48542e-07
2.47911e-06
1.39017e-07
2.41923e-06
1.27374e-07
2.36833e-06
1.13755e-07
2.32706e-06
9.82321e-08
2.296e-06
8.07836e-08
2.2756e-06
6.1451e-08
2.26671e-06
3.98099e-08
2.26988e-06
1.61306e-08
2.28481e-06
-8.33695e-09
2.31376e-06
-3.36474e-08
2.35654e-06
-5.90186e-08
2.41236e-06
-8.33329e-08
2.48001e-06
-1.05458e-07
2.55788e-06
-1.24507e-07
2.64398e-06
-1.39874e-07
2.73611e-06
-1.5121e-07
2.83193e-06
-1.58382e-07
2.92918e-06
-1.61539e-07
3.02574e-06
-1.61052e-07
3.11985e-06
-1.57466e-07
3.21006e-06
-1.51395e-07
3.29522e-06
-1.4337e-07
3.3744e-06
-1.33851e-07
3.44687e-06
-1.23242e-07
3.51211e-06
-1.11934e-07
3.56984e-06
-1.00309e-07
3.61999e-06
-8.86748e-08
3.66264e-06
-7.72705e-08
3.69798e-06
-6.62849e-08
3.72635e-06
-5.58667e-08
3.74816e-06
-4.61349e-08
3.76388e-06
-3.71854e-08
3.77425e-06
-2.92931e-08
3.77972e-06
-2.20822e-08
3.78064e-06
-1.53859e-08
3.77712e-06
-8.84929e-09
3.76907e-06
-2.47243e-09
3.75735e-06
2.66425e-09
3.74245e-06
7.25081e-09
3.72459e-06
1.16813e-08
3.70337e-06
1.66734e-08
3.67886e-06
2.17377e-08
3.65116e-06
2.68466e-08
3.62037e-06
3.17104e-08
3.5867e-06
3.65443e-08
3.55008e-06
4.1623e-08
3.51054e-06
4.68404e-08
3.46813e-06
5.20655e-08
3.42289e-06
5.7333e-08
3.37482e-06
6.27516e-08
3.32381e-06
6.85054e-08
3.26964e-06
7.48422e-08
3.21193e-06
8.19953e-08
3.15024e-06
9.01129e-08
3.08414e-06
9.92217e-08
3.01327e-06
1.09207e-07
2.93744e-06
1.19806e-07
2.8567e-06
1.30625e-07
2.77132e-06
1.41234e-07
2.68169e-06
1.51306e-07
2.58827e-06
1.60568e-07
2.49165e-06
1.68676e-07
2.39265e-06
1.75217e-07
2.29229e-06
1.79764e-07
2.19199e-06
1.8187e-07
2.09371e-06
1.8109e-07
1.99972e-06
1.77193e-07
1.91198e-06
1.70211e-07
1.83197e-06
1.60436e-07
1.76116e-06
1.47886e-07
1.70036e-06
1.33072e-07
1.65113e-06
1.15352e-07
1.61363e-06
9.38516e-08
1.5856e-06
7.01541e-08
2.21432e-08
4.06568e-06
4.42968e-07
3.91855e-06
4.65054e-07
3.77381e-06
4.74837e-07
3.6349e-06
4.71344e-07
3.50475e-06
4.54328e-07
3.38561e-06
4.24182e-07
3.27934e-06
3.82123e-07
3.18768e-06
3.29987e-07
3.1125e-06
2.6967e-07
3.05605e-06
2.02558e-07
3.02051e-06
1.29711e-07
3.00789e-06
5.21363e-08
3.01982e-06
-2.49015e-08
3.05709e-06
-1.01863e-07
3.11864e-06
-1.75854e-07
3.20287e-06
-2.44562e-07
3.30777e-06
-3.05876e-07
3.4308e-06
-3.58435e-07
3.56909e-06
-4.01545e-07
3.71994e-06
-4.34848e-07
3.8806e-06
-4.58123e-07
4.04794e-06
-4.71068e-07
4.21865e-06
-4.74112e-07
4.38955e-06
-4.68303e-07
4.55823e-06
-4.55604e-07
4.7229e-06
-4.37543e-07
4.88186e-06
-4.14849e-07
5.03327e-06
-3.87948e-07
5.1754e-06
-3.57485e-07
5.30685e-06
-3.24468e-07
5.42665e-06
-2.89898e-07
5.5341e-06
-2.54609e-07
5.62872e-06
-2.19254e-07
5.71016e-06
-1.8432e-07
5.77818e-06
-1.50247e-07
5.83269e-06
-1.17537e-07
5.8739e-06
-8.67784e-08
5.90232e-06
-5.83356e-08
5.91889e-06
-3.17028e-08
5.92363e-06
-5.1861e-09
5.91665e-06
2.06863e-08
5.89702e-06
4.70896e-08
5.8648e-06
7.25973e-08
5.82063e-06
9.55985e-08
5.76551e-06
1.18299e-07
5.70022e-06
1.40927e-07
5.62532e-06
1.62749e-07
5.54203e-06
1.82701e-07
5.45244e-06
1.99663e-07
5.35879e-06
2.13337e-07
5.26292e-06
2.24142e-07
5.16608e-06
2.32814e-07
5.06906e-06
2.4014e-07
4.97241e-06
2.46283e-07
4.87664e-06
2.5094e-07
4.78209e-06
2.54132e-07
4.68936e-06
2.55386e-07
4.59923e-06
2.54162e-07
4.51246e-06
2.50267e-07
4.42983e-06
2.4345e-07
4.35222e-06
2.33448e-07
4.28041e-06
2.20354e-07
4.21486e-06
2.04564e-07
4.15595e-06
1.86291e-07
4.10414e-06
1.65563e-07
4.06004e-06
1.42327e-07
4.02445e-06
1.16373e-07
3.99857e-06
8.73342e-08
3.98342e-06
5.49624e-08
3.98093e-06
1.86229e-08
3.99104e-06
-1.84535e-08
4.01541e-06
-5.80156e-08
4.05402e-06
-9.76309e-08
4.10626e-06
-1.35566e-07
4.17085e-06
-1.7005e-07
4.24609e-06
-1.99749e-07
4.33016e-06
-2.23938e-07
4.42125e-06
-2.42302e-07
4.51738e-06
-2.54514e-07
4.61667e-06
-2.60827e-07
4.71724e-06
-2.61623e-07
4.81732e-06
-2.57545e-07
4.91558e-06
-2.49656e-07
5.01104e-06
-2.38834e-07
5.10283e-06
-2.25634e-07
5.19008e-06
-2.10501e-07
5.27208e-06
-1.93927e-07
5.34823e-06
-1.76464e-07
5.41809e-06
-1.58531e-07
5.48125e-06
-1.40427e-07
5.53736e-06
-1.22397e-07
5.58613e-06
-1.04635e-07
5.62731e-06
-8.73158e-08
5.66075e-06
-7.06247e-08
5.6863e-06
-5.48427e-08
5.70393e-06
-3.97146e-08
5.71394e-06
-2.54003e-08
5.71674e-06
-1.16508e-08
5.71214e-06
2.12984e-09
5.69948e-06
1.53216e-08
5.67905e-06
2.76895e-08
5.65121e-06
3.95162e-08
5.61631e-06
5.15715e-08
5.57456e-06
6.34857e-08
5.52625e-06
7.5161e-08
5.47273e-06
8.52255e-08
5.41492e-06
9.43548e-08
5.35297e-06
1.03577e-07
5.28746e-06
1.12347e-07
5.21905e-06
1.20481e-07
5.1484e-06
1.27982e-07
5.07609e-06
1.35063e-07
5.00248e-06
1.42116e-07
4.92774e-06
1.49581e-07
4.85188e-06
1.57855e-07
4.77474e-06
1.67257e-07
4.696e-06
1.77955e-07
4.6153e-06
1.89914e-07
4.53224e-06
2.02861e-07
4.44661e-06
2.16252e-07
4.3584e-06
2.29446e-07
4.26784e-06
2.41864e-07
4.17546e-06
2.52951e-07
4.08206e-06
2.62079e-07
3.98869e-06
2.6858e-07
3.89659e-06
2.71866e-07
3.80702e-06
2.7144e-07
3.72123e-06
2.66884e-07
3.64034e-06
2.58083e-07
3.56539e-06
2.45163e-07
3.49716e-06
2.28661e-07
3.43617e-06
2.08882e-07
3.38291e-06
1.86327e-07
3.33669e-06
1.61572e-07
3.29783e-06
1.32714e-07
3.26253e-06
1.05448e-07
5.20522e-08
5.71079e-06
5.49845e-07
5.60484e-06
5.71001e-07
5.50045e-06
5.79227e-07
5.39858e-06
5.73217e-07
5.30041e-06
5.52497e-07
5.20719e-06
5.17393e-07
5.12038e-06
4.68941e-07
5.04174e-06
4.08627e-07
4.97335e-06
3.38054e-07
4.91725e-06
2.58662e-07
4.87532e-06
1.71638e-07
4.84892e-06
7.85323e-08
4.84119e-06
-1.71714e-08
4.85236e-06
-1.13033e-07
4.88223e-06
-2.05721e-07
4.93011e-06
-2.92438e-07
4.99501e-06
-3.70776e-07
5.07564e-06
-4.39066e-07
5.17054e-06
-4.96444e-07
5.27823e-06
-5.4254e-07
5.3969e-06
-5.76795e-07
5.5238e-06
-5.97968e-07
5.65645e-06
-6.06759e-07
5.79239e-06
-6.04248e-07
5.9303e-06
-5.93508e-07
6.0692e-06
-5.76444e-07
6.2078e-06
-5.53454e-07
6.34397e-06
-5.2412e-07
6.4756e-06
-4.89115e-07
6.60104e-06
-4.49906e-07
6.71882e-06
-4.0768e-07
6.82769e-06
-3.63477e-07
6.9266e-06
-3.18159e-07
7.01466e-06
-2.7238e-07
7.09112e-06
-2.26708e-07
7.15532e-06
-1.81738e-07
7.20682e-06
-1.38276e-07
7.24562e-06
-9.71339e-08
7.27238e-06
-5.847e-08
7.28887e-06
-2.1673e-08
7.2956e-06
1.39555e-08
7.29429e-06
4.8397e-08
7.28568e-06
8.12119e-08
7.26907e-06
1.12211e-07
7.24529e-06
1.42076e-07
7.21512e-06
1.71099e-07
7.17858e-06
1.99286e-07
7.13544e-06
2.25839e-07
7.08523e-06
2.49877e-07
7.02758e-06
2.70982e-07
6.96252e-06
2.89202e-07
6.8902e-06
3.05136e-07
6.81009e-06
3.2025e-07
6.72262e-06
3.33753e-07
6.63078e-06
3.42777e-07
6.5374e-06
3.47514e-07
6.44508e-06
3.47711e-07
6.35554e-06
3.43701e-07
6.26974e-06
3.36067e-07
6.18852e-06
3.24668e-07
6.11277e-06
3.09199e-07
6.04325e-06
2.89877e-07
5.98012e-06
2.67693e-07
5.92357e-06
2.42839e-07
5.87388e-06
2.15249e-07
5.83149e-06
1.84723e-07
5.79699e-06
1.50869e-07
5.77118e-06
1.13149e-07
5.75487e-06
7.12734e-08
5.74827e-06
2.52175e-08
5.75329e-06
-2.34736e-08
5.76977e-06
-7.44961e-08
5.79754e-06
-1.254e-07
5.83577e-06
-1.73795e-07
5.88338e-06
-2.17656e-07
5.93922e-06
-2.55591e-07
6.00228e-06
-2.87006e-07
6.07169e-06
-3.11704e-07
6.14572e-06
-3.28543e-07
6.22305e-06
-3.38161e-07
6.30238e-06
-3.40956e-07
6.38237e-06
-3.37531e-07
6.46194e-06
-3.29222e-07
6.54028e-06
-3.17183e-07
6.61668e-06
-3.02029e-07
6.6902e-06
-2.8402e-07
6.76e-06
-2.63731e-07
6.82555e-06
-2.42015e-07
6.88642e-06
-2.19397e-07
6.94227e-06
-1.96275e-07
6.9929e-06