/*--------------------------------*- C++ -*----------------------------------*\
| =========                 |                                                 |
| \\      /  F ield         | OpenFOAM: The Open Source CFD Toolbox           |
|  \\    /   O peration     | Version:  2206                                  |
|   \\  /    A nd           | Website:  www.openfoam.com                      |
|    \\/     M anipulation  |                                                 |
\*---------------------------------------------------------------------------*/
FoamFile
{
    version     2.0;
    format      ascii;
    arch        "LSB;label=32;scalar=64";
    class       surfaceScalarField;
    location    "19.8";
    object      phi_0;
}
// * * * * * * * * * * * * * * * * * * * * * * * * * * * * * * * * * * * * * //

dimensions      [0 3 -1 0 0 0 0];

oriented        oriented;

internalField   nonuniform List<scalar> 
3590
(
6.54578e-06
-3.19838e-07
6.62086e-06
-1.7036e-07
9.52794e-08
6.6794e-06
-1.8899e-08
-3.96434e-08
6.71661e-06
1.27207e-07
-1.64419e-07
6.72871e-06
2.61905e-07
-2.74005e-07
6.71183e-06
3.80474e-07
-3.63591e-07
6.66124e-06
4.78588e-07
-4.27996e-07
6.57631e-06
5.50824e-07
-4.65897e-07
6.4621e-06
5.94681e-07
-4.80469e-07
6.32922e-06
6.11718e-07
-4.78837e-07
6.19101e-06
6.07641e-07
-4.69428e-07
6.05863e-06
5.90623e-07
-4.58241e-07
5.93855e-06
5.67096e-07
-4.47015e-07
5.83389e-06
5.39309e-07
-4.34649e-07
5.74559e-06
5.0675e-07
-4.1845e-07
5.67336e-06
4.67272e-07
-3.95042e-07
5.61673e-06
4.17498e-07
-3.60873e-07
5.5751e-06
3.55028e-07
-3.134e-07
5.54764e-06
2.7974e-07
-2.52276e-07
5.53349e-06
1.92061e-07
-1.77907e-07
5.532e-06
9.3627e-08
-9.21405e-08
5.54278e-06
-1.24706e-08
1.69411e-09
5.56494e-06
-1.21142e-07
9.89761e-08
5.59716e-06
-2.25879e-07
1.9366e-07
5.63807e-06
-3.21831e-07
2.8092e-07
5.68599e-06
-4.05032e-07
3.57109e-07
5.73914e-06
-4.72596e-07
4.19451e-07
5.79598e-06
-5.22947e-07
4.66104e-07
5.85551e-06
-5.55533e-07
4.96007e-07
5.91691e-06
-5.70036e-07
5.08635e-07
5.97901e-06
-5.65951e-07
5.03853e-07
6.04044e-06
-5.43367e-07
4.81932e-07
6.09984e-06
-5.02905e-07
4.43504e-07
6.15612e-06
-4.46171e-07
3.89897e-07
6.20846e-06
-3.75435e-07
3.23089e-07
6.25591e-06
-2.93136e-07
2.45686e-07
6.29642e-06
-2.01864e-07
1.61362e-07
6.32723e-06
-1.05041e-07
7.42215e-08
6.34607e-06
-7.07419e-09
-1.17615e-08
6.35134e-06
8.79166e-08
-9.31882e-08
6.34202e-06
1.76376e-07
-1.67056e-07
6.31752e-06
2.55198e-07
-2.30698e-07
6.27781e-06
3.21734e-07
-2.82022e-07
6.2245e-06
3.73836e-07
-3.2053e-07
6.16089e-06
4.10477e-07
-3.46867e-07
6.09122e-06
4.32171e-07
-3.62495e-07
6.01996e-06
4.40342e-07
-3.69081e-07
5.95073e-06
4.37125e-07
-3.67902e-07
5.88597e-06
4.24111e-07
-3.59344e-07
5.82756e-06
4.01473e-07
-3.43063e-07
5.77695e-06
3.69032e-07
-3.18427e-07
5.73511e-06
3.26664e-07
-2.84824e-07
5.70258e-06
2.74512e-07
-2.41976e-07
5.67958e-06
2.132e-07
-1.90206e-07
5.66622e-06
1.43804e-07
-1.30442e-07
5.66252e-06
6.80053e-08
-6.43084e-08
5.66833e-06
-1.15358e-08
5.73279e-09
5.68285e-06
-9.06051e-08
7.60844e-08
5.70508e-06
-1.65264e-07
1.43026e-07
5.73373e-06
-2.32328e-07
2.03685e-07
5.76727e-06
-2.8925e-07
2.55705e-07
5.80426e-06
-3.34383e-07
2.97401e-07
5.8435e-06
-3.66988e-07
3.27744e-07
5.88424e-06
-3.86979e-07
3.46238e-07
5.92586e-06
-3.94383e-07
3.52761e-07
5.96752e-06
-3.89154e-07
3.47494e-07
6.0083e-06
-3.71645e-07
3.30862e-07
6.04726e-06
-3.42465e-07
3.03506e-07
6.08353e-06
-3.02766e-07
2.66496e-07
6.11633e-06
-2.54055e-07
2.21261e-07
6.14478e-06
-1.97995e-07
1.69546e-07
6.16767e-06
-1.36452e-07
1.13554e-07
6.1838e-06
-7.17848e-08
5.56582e-08
6.19244e-06
-6.71569e-09
-1.91954e-09
6.19325e-06
5.64167e-08
-5.72354e-08
6.18622e-06
1.15592e-07
-1.08557e-07
6.17156e-06
1.69027e-07
-1.54367e-07
6.14968e-06
2.15205e-07
-1.93324e-07
6.12117e-06
2.52899e-07
-2.24391e-07
6.08708e-06
2.81229e-07
-2.47142e-07
6.04897e-06
2.99775e-07
-2.61666e-07
6.00854e-06
3.0873e-07
-2.68291e-07
5.96733e-06
3.08699e-07
-2.67489e-07
5.92684e-06
3.00184e-07
-2.59695e-07
5.88864e-06
2.83343e-07
-2.45151e-07
5.85412e-06
2.58568e-07
-2.2404e-07
5.82423e-06
2.26476e-07
-1.96594e-07
5.7997e-06
1.87677e-07
-1.63139e-07
5.78104e-06
1.42893e-07
-1.24236e-07
5.76871e-06
9.30109e-08
-8.06792e-08
5.76309e-06
3.92308e-08
-3.36086e-08
5.76438e-06
-1.6479e-08
1.51819e-08
5.77231e-06
-7.12319e-08
6.33075e-08
5.78621e-06
-1.22593e-07
1.08686e-07
5.80513e-06
-1.68318e-07
1.494e-07
5.82788e-06
-2.06595e-07
1.83852e-07
5.85327e-06
-2.36278e-07
2.1088e-07
5.88041e-06
-2.56931e-07
2.29795e-07
5.90868e-06
-2.68595e-07
2.4032e-07
5.93756e-06
-2.71365e-07
2.42485e-07
5.96641e-06
-2.65351e-07
2.36508e-07
5.9945e-06
-2.50753e-07
2.22666e-07
6.02111e-06
-2.28129e-07
2.01518e-07
6.04565e-06
-1.98518e-07
1.73979e-07
6.06757e-06
-1.63064e-07
1.41144e-07
6.08622e-06
-1.22979e-07
1.04325e-07
6.10082e-06
-7.96426e-08
6.50467e-08
6.11069e-06
-3.47937e-08
2.49214e-08
6.11558e-06
9.71209e-09
-1.46e-08
6.11542e-06
5.23758e-08
-5.22202e-08
6.11037e-06
9.18379e-08
-8.67845e-08
6.10075e-06
1.26919e-07
-1.17296e-07
6.08697e-06
1.56677e-07
-1.42904e-07
6.06947e-06
1.8043e-07
-1.62924e-07
6.04871e-06
1.97718e-07
-1.76959e-07
6.02541e-06
2.08324e-07
-1.85031e-07
6.00041e-06
2.12326e-07
-1.87324e-07
5.97454e-06
2.09988e-07
-1.84118e-07
5.94872e-06
2.01518e-07
-1.75694e-07
5.92394e-06
1.87152e-07
-1.62369e-07
5.90111e-06
1.67402e-07
-1.44575e-07
5.88099e-06
1.42907e-07
-1.22786e-07
5.86416e-06
1.143e-07
-9.74734e-08
5.8511e-06
8.22293e-08
-6.91648e-08
4.74238e-08
-3.85337e-08
6.69779e-06
-3.85884e-07
6.75831e-06
-2.30876e-07
6.80997e-06
-7.05611e-08
6.84966e-06
8.75154e-08
6.87431e-06
2.37256e-07
6.88018e-06
3.74608e-07
6.86341e-06
4.95358e-07
6.82036e-06
5.93869e-07
6.74985e-06
6.65192e-07
6.65514e-06
7.0643e-07
6.544e-06
7.18772e-07
6.42606e-06
7.08568e-07
6.31097e-06
6.82184e-07
6.20612e-06
6.44156e-07
6.11551e-06
5.97361e-07
6.041e-06
5.41786e-07
5.98312e-06
4.7538e-07
5.94119e-06
3.96958e-07
5.91411e-06
3.06812e-07
5.90058e-06
2.05595e-07
5.89949e-06
9.4713e-08
5.90992e-06
-2.28934e-08
5.93036e-06
-1.41589e-07
5.95949e-06
-2.55003e-07
5.99587e-06
-3.58208e-07
6.03772e-06
-4.46884e-07
6.08311e-06
-5.17988e-07
6.13041e-06
-5.70245e-07
6.17875e-06
-6.03872e-07
6.22806e-06
-6.19354e-07
6.27794e-06
-6.15823e-07
6.3272e-06
-5.92627e-07
6.37437e-06
-5.50079e-07
6.4182e-06
-4.90005e-07
6.4579e-06
-4.15131e-07
6.49308e-06
-3.28318e-07
6.52334e-06
-2.32121e-07
6.54741e-06
-1.29113e-07
6.5635e-06
-2.31688e-08
6.57029e-06
8.11281e-08
6.56669e-06
1.79975e-07
6.55208e-06
2.69813e-07
6.52626e-06
3.47554e-07
6.48929e-06
4.10804e-07
6.442e-06
4.57766e-07
6.38677e-06
4.87404e-07
6.32686e-06
5.00253e-07
6.26578e-06
4.98201e-07
6.2067e-06
4.83194e-07
6.15308e-06
4.55088e-07
6.10705e-06
4.15065e-07
6.06962e-06
3.64094e-07
6.04126e-06
3.02873e-07
6.02208e-06
2.32382e-07
6.01197e-06
1.53913e-07
6.01074e-06
6.9237e-08
6.01785e-06
-1.86467e-08
6.03225e-06
-1.05007e-07
6.05284e-06
-1.85852e-07
6.07825e-06
-2.57743e-07
6.107e-06
-3.17998e-07
6.13763e-06
-3.65018e-07
6.16905e-06
-3.98408e-07
6.20081e-06
-4.18735e-07
6.23299e-06
-4.2656e-07
6.26537e-06
-4.21539e-07
6.29732e-06
-4.03591e-07
6.32795e-06
-3.73099e-07
6.35638e-06
-3.31194e-07
6.3818e-06
-2.79478e-07
6.40353e-06
-2.1972e-07
6.42087e-06
-1.53797e-07
6.43293e-06
-8.38458e-08
6.43901e-06
-1.27966e-08
6.43892e-06
5.65104e-08
6.43266e-06
1.21849e-07
6.42049e-06
1.81199e-07
6.40291e-06
2.32781e-07
6.38063e-06
2.75181e-07
6.35438e-06
3.07481e-07
6.32492e-06
3.29237e-07
6.29318e-06
3.40466e-07
6.26023e-06
3.41653e-07
6.22715e-06
3.33258e-07
6.19559e-06
3.14911e-07
6.16689e-06
2.87268e-07
6.14207e-06
2.51288e-07
6.12192e-06
2.07834e-07
6.10699e-06
1.57815e-07
6.09776e-06
1.02241e-07
6.09459e-06
4.24056e-08
6.09755e-06
-1.94433e-08
6.10622e-06
-7.99024e-08
6.11982e-06
-1.36188e-07
6.13723e-06
-1.85726e-07
6.15713e-06
-2.26499e-07
6.17825e-06
-2.57396e-07
6.19965e-06
-2.78336e-07
6.22106e-06
-2.90004e-07
6.24265e-06
-2.9295e-07
6.26434e-06
-2.87046e-07
6.28547e-06
-2.71878e-07
6.30545e-06
-2.48108e-07
6.32381e-06
-2.16882e-07
6.34011e-06
-1.79365e-07
6.35391e-06
-1.36775e-07
6.36468e-06
-9.04122e-08
6.37174e-06
-4.18612e-08
6.37475e-06
6.70873e-09
6.37363e-06
5.34931e-08
6.36855e-06
9.69199e-08
6.35988e-06
1.35588e-07
6.34817e-06
1.68383e-07
6.33404e-06
1.94561e-07
6.31799e-06
2.13766e-07
6.30035e-06
2.25969e-07
6.28139e-06
2.31281e-07
6.26159e-06
2.29789e-07
6.24162e-06
2.21486e-07
6.22234e-06
2.06437e-07
6.2045e-06
1.85239e-07
6.18875e-06
1.58664e-07
6.17558e-06
1.27461e-07
6.16544e-06
9.23781e-08
5.41872e-08
6.79723e-06
-4.31321e-07
6.8404e-06
-2.74044e-07
6.87917e-06
-1.09328e-07
6.91099e-06
5.56961e-08
6.93281e-06
2.15434e-07
6.94297e-06
3.64451e-07
6.94222e-06
4.96107e-07
6.92943e-06
6.06655e-07
6.9011e-06
6.93527e-07
6.85273e-06
7.54801e-07
6.78422e-06
7.87279e-07
6.70117e-06
7.91618e-07
6.61093e-06
7.72425e-07
6.52205e-06
7.33033e-07
6.44129e-06
6.78124e-07
6.37267e-06
6.104e-07
6.3183e-06
5.29756e-07
6.27842e-06
4.36836e-07
6.25225e-06
3.3298e-07
6.23864e-06
2.19207e-07
6.23645e-06
9.69056e-08
6.24436e-06
-3.08008e-08
6.26055e-06
-1.57787e-07
6.2838e-06
-2.78253e-07
6.31278e-06
-3.8719e-07
6.34589e-06
-4.79985e-07
6.3812e-06
-5.53301e-07
6.41693e-06
-6.05974e-07
6.45211e-06
-6.39053e-07
6.48726e-06
-6.5451e-07
6.52335e-06
-6.51912e-07
6.55921e-06
-6.28488e-07
6.59325e-06
-5.84116e-07
6.62448e-06
-5.21233e-07
6.65226e-06
-4.42916e-07
6.67631e-06
-3.5236e-07
6.69645e-06
-2.52262e-07
6.71246e-06
-1.45128e-07
6.72377e-06
-3.44808e-08
6.72972e-06
7.51789e-08
6.72949e-06
1.80209e-07
6.72235e-06
2.76951e-07
6.70787e-06
3.62036e-07
6.68595e-06
4.3272e-07
6.65693e-06
4.86785e-07
6.62148e-06
5.22858e-07
6.58092e-06
5.40815e-07
6.53709e-06
5.42031e-07
6.49076e-06
5.2952e-07
6.44732e-06
4.98529e-07
6.40918e-06
4.53204e-07
6.37789e-06
3.95389e-07
6.35427e-06
3.26495e-07
6.33859e-06
2.48063e-07
6.33076e-06
1.6174e-07
6.33039e-06
6.96101e-08
6.33633e-06
-2.45884e-08
6.3473e-06
-1.15981e-07
6.36222e-06
-2.00773e-07
6.38008e-06
-2.756e-07
6.39988e-06
-3.37802e-07
6.42061e-06
-3.85748e-07
6.44135e-06
-4.19148e-07
6.46172e-06
-4.391e-07
6.4823e-06
-4.47144e-07
6.50401e-06
-4.43251e-07
6.52627e-06
-4.25847e-07
6.54813e-06
-3.94961e-07
6.56872e-06
-3.51778e-07
6.58723e-06
-2.97995e-07
6.60305e-06
-2.35533e-07
6.61561e-06
-1.66357e-07
6.62429e-06
-9.25235e-08
6.62838e-06
-1.68907e-08
6.62775e-06
5.71404e-08
6.62242e-06
1.27174e-07
6.61259e-06
1.91037e-07
6.59869e-06
2.46674e-07
6.58152e-06
2.92352e-07
6.56199e-06
3.2701e-07
6.54091e-06
3.50326e-07
6.51873e-06
3.62638e-07
6.49539e-06
3.64996e-07
6.47083e-06
3.57818e-07
6.44739e-06
3.38353e-07
6.42627e-06
3.08387e-07
6.40845e-06
2.69113e-07
6.39467e-06
2.21614e-07
6.38547e-06
1.67015e-07
6.3812e-06
1.06508e-07
6.38195e-06
4.16583e-08
6.38706e-06
-2.45556e-08
6.39571e-06
-8.85528e-08
6.40707e-06
-1.47548e-07
6.4203e-06
-1.98959e-07
6.43451e-06
-2.40702e-07
6.44873e-06
-2.71617e-07
6.46215e-06
-2.91761e-07
6.47455e-06
-3.02407e-07
6.4867e-06
-3.05097e-07
6.50013e-06
-3.00471e-07
6.5136e-06
-2.85347e-07
6.52667e-06
-2.61182e-07
6.53898e-06
-2.29193e-07
6.55014e-06
-1.90525e-07
6.55977e-06
-1.46407e-07
6.56746e-06
-9.80977e-08
6.57263e-06
-4.70358e-08
6.57474e-06
4.60335e-09
6.57359e-06
5.46365e-08
6.56923e-06
1.01283e-07
6.56194e-06
1.42877e-07
6.55227e-06
1.78056e-07
6.54092e-06
2.05907e-07
6.52862e-06
2.26069e-07
6.51581e-06
2.38773e-07
6.50251e-06
2.44588e-07
6.48835e-06
2.43949e-07
6.47388e-06
2.35955e-07
6.46002e-06
2.20292e-07
6.44737e-06
1.97894e-07
6.43643e-06
1.69605e-07
6.42764e-06
1.36252e-07
6.42135e-06
9.86596e-08
5.76605e-08
6.83099e-06
-4.58319e-07
6.85951e-06
-3.02558e-07
6.88729e-06
-1.37115e-07
6.90997e-06
3.30179e-08
6.92577e-06
1.99635e-07
6.93546e-06
3.54761e-07
6.93923e-06
4.92336e-07
6.93693e-06
6.08959e-07
6.92785e-06
7.02601e-07
6.91105e-06
7.71601e-07
6.8838e-06
8.14531e-07
6.84503e-06
8.30392e-07
6.79401e-06
8.23443e-07
6.73575e-06
7.91298e-07
6.6777e-06
7.36168e-07
6.62534e-06
6.62765e-07
6.58255e-06
5.7254e-07
6.55068e-06
4.6871e-07
6.5295e-06
3.54159e-07
6.51853e-06
2.30177e-07
6.51681e-06
9.86298e-08
6.52255e-06
-3.65439e-08
6.53382e-06
-1.69054e-07
6.54944e-06
-2.93882e-07
6.5686e-06
-4.06347e-07
6.59046e-06
-5.01844e-07
6.61372e-06
-5.76555e-07
6.63666e-06
-6.28919e-07
6.65782e-06
-6.60217e-07
6.6774e-06
-6.74089e-07
6.69864e-06
-6.73145e-07
6.72022e-06
-6.50067e-07
6.73963e-06
-6.03534e-07
6.75678e-06
-5.38376e-07
6.77151e-06
-4.57649e-07
6.78368e-06
-3.64534e-07
6.79308e-06
-2.61663e-07
6.79943e-06
-1.5147e-07
6.80276e-06
-3.7812e-08
6.80354e-06
7.43949e-08
6.80222e-06
1.8153e-07
6.79886e-06
2.80314e-07
6.79324e-06
3.67656e-07
6.78541e-06
4.4055e-07
6.77586e-06
4.96331e-07
6.76517e-06
5.33551e-07
6.75292e-06
5.53065e-07
6.73694e-06
5.58009e-07
6.71423e-06
5.52235e-07
6.68896e-06
5.238e-07
6.66438e-06
4.77781e-07
6.64271e-06
4.17054e-07
6.62527e-06
3.43943e-07
6.6127e-06
2.60627e-07
6.60505e-06
1.69393e-07
6.60174e-06
7.29154e-08
6.60162e-06
-2.44603e-08
6.60366e-06
-1.18027e-07
6.60737e-06
-2.04481e-07
6.61263e-06
-2.80861e-07
6.61946e-06
-3.44632e-07
6.62763e-06
-3.93917e-07
6.63653e-06
-4.28044e-07
6.6455e-06
-4.48072e-07
6.65472e-06
-4.56362e-07
6.66622e-06
-4.54758e-07
6.67963e-06
-4.39254e-07
6.69317e-06
-4.08506e-07
6.70613e-06
-3.64736e-07
6.71791e-06
-3.09769e-07
6.72798e-06
-2.45606e-07
6.73581e-06
-1.74188e-07
6.74087e-06
-9.75835e-08
6.74274e-06
-1.87602e-08
6.74168e-06
5.81956e-08
6.73808e-06
1.30783e-07
6.73213e-06
1.9698e-07
6.72416e-06
2.54644e-07
6.71466e-06
3.01858e-07
6.70426e-06
3.37408e-07
6.69363e-06
3.60956e-07
6.68317e-06
3.731e-07
6.67218e-06
3.7598e-07
6.65921e-06
3.70787e-07
6.64675e-06
3.50811e-07
6.63568e-06
3.19458e-07
6.62669e-06
2.78109e-07
6.62023e-06
2.28067e-07
6.61656e-06
1.70691e-07
6.61552e-06
1.07543e-07
6.61675e-06
4.0431e-08
6.6192e-06
-2.69998e-08
6.62221e-06
-9.15674e-08
6.62556e-06
-1.50899e-07
6.62926e-06
-2.02653e-07
6.63331e-06
-2.44756e-07
6.63757e-06
-2.75882e-07
6.6417e-06
-2.9589e-07
6.6454e-06
-3.06102e-07
6.64912e-06
-3.0882e-07
6.65488e-06
-3.06226e-07
6.66151e-06
-2.91977e-07
6.66852e-06
-2.68194e-07
6.67558e-06
-2.36253e-07
6.68237e-06
-1.97309e-07
6.68857e-06
-1.52616e-07
6.69387e-06
-1.03395e-07
6.69784e-06
-5.10011e-08
6.69994e-06
2.50515e-09
6.69995e-06
5.46178e-08
6.6978e-06
1.03432e-07
6.69357e-06
1.47113e-07
6.68756e-06
1.84061e-07
6.68037e-06
2.13098e-07
6.67276e-06
2.33682e-07
6.66542e-06
2.4611e-07
6.65845e-06
2.51556e-07
6.6507e-06
2.51704e-07
6.64226e-06
2.44393e-07
6.63438e-06
2.2817e-07
6.62744e-06
2.04837e-07
6.62178e-06
1.75263e-07
6.61764e-06
1.40393e-07
6.61517e-06
1.01134e-07
5.84221e-08
6.79736e-06
6.80981e-06
6.82628e-06
6.84437e-06
6.86185e-06
6.87646e-06
6.88593e-06
6.88918e-06
6.8871e-06
6.88183e-06
6.87617e-06
6.86861e-06
6.85311e-06
6.82959e-06
6.80459e-06
6.78115e-06
6.75992e-06
6.74237e-06
6.7304e-06
6.72438e-06
6.72367e-06
6.72678e-06
6.73217e-06
6.73882e-06
6.74641e-06
6.75522e-06
6.76504e-06
6.7747e-06
6.78252e-06
6.78758e-06
6.79276e-06
6.79763e-06
6.80173e-06
6.80571e-06
6.80971e-06
6.8129e-06
6.81445e-06
6.81428e-06
6.81229e-06
6.80868e-06
6.80392e-06
6.79864e-06
6.79361e-06
6.78955e-06
6.78697e-06
6.78608e-06
6.78643e-06
6.78655e-06
6.78655e-06
6.78571e-06
6.78401e-06
6.78157e-06
6.77863e-06
6.77534e-06
6.77156e-06
6.76688e-06
6.76114e-06
6.75481e-06
6.7484e-06
6.74267e-06
6.73846e-06
6.73635e-06
6.73635e-06
6.73767e-06
6.73945e-06
6.74302e-06
6.74878e-06
6.75466e-06
6.76066e-06
6.76649e-06
6.77156e-06
6.77527e-06
6.77726e-06
6.77736e-06
6.7752e-06
6.77083e-06
6.76503e-06
6.75864e-06
6.75249e-06
6.74747e-06
6.74426e-06
6.74288e-06
6.74228e-06
6.74172e-06
6.74167e-06
6.74194e-06
6.74239e-06
6.74292e-06
6.74333e-06
6.74332e-06
6.74239e-06
6.74024e-06
6.73699e-06
6.73303e-06
6.72891e-06
6.72517e-06
6.72223e-06
6.72034e-06
6.71934e-06
6.71903e-06
6.71993e-06
6.72192e-06
6.7246e-06
6.72778e-06
6.73121e-06
6.73452e-06
6.7373e-06
6.73921e-06
6.74005e-06
6.73985e-06
6.73868e-06
6.73661e-06
6.73389e-06
6.73088e-06
6.728e-06
6.72577e-06
6.72447e-06
6.72313e-06
6.72175e-06
6.72079e-06
6.72015e-06
6.71977e-06
6.71954e-06
6.7193e-06
2.8981e-07
-6.29293e-09
2.93763e-07
-3.95262e-09
2.95556e-07
-1.79294e-09
2.95387e-07
1.68459e-10
2.93459e-07
1.92857e-09
2.89801e-07
3.65811e-09
2.84513e-07
5.28755e-09
2.77714e-07
6.79916e-09
2.69544e-07
8.1696e-09
2.60182e-07
9.36272e-09
2.49849e-07
1.03322e-08
2.38831e-07
1.10181e-08
2.27463e-07
1.13686e-08
2.16157e-07
1.13053e-08
2.054e-07
1.07578e-08
1.95737e-07
9.66282e-09
1.87757e-07
7.97953e-09
1.82016e-07
5.74093e-09
1.79126e-07
2.89013e-09
1.7912e-07
6.45762e-12
1.82325e-07
-3.20563e-09
1.88998e-07
-6.67262e-09
1.99049e-07
-1.00509e-08
2.12196e-07
-1.3147e-08
2.27991e-07
-1.57949e-08
2.45847e-07
-1.78566e-08
2.65086e-07
-1.92392e-08
2.84986e-07
-1.98992e-08
3.04812e-07
-1.98262e-08
3.23867e-07
-1.90557e-08
3.41538e-07
-1.76702e-08
3.57336e-07
-1.57985e-08
3.7091e-07
-1.35736e-08
3.82016e-07
-1.11068e-08
3.90543e-07
-8.52625e-09
3.96507e-07
-5.96407e-09
3.99967e-07
-3.46008e-09
4.01058e-07
-1.09111e-09
4.00241e-07
8.17244e-10
3.97527e-07
2.71376e-09
3.93153e-07
4.37445e-09
3.87326e-07
5.82638e-09
3.80242e-07
7.0839e-09
3.72092e-07
8.15062e-09
3.63071e-07
9.02065e-09
3.53389e-07
9.68168e-09
3.43295e-07
1.00941e-08
3.33081e-07
1.02141e-08
3.23095e-07
9.98639e-09
3.13729e-07
9.3659e-09
3.05394e-07
8.33501e-09
2.98522e-07
6.87195e-09
2.93532e-07
4.9898e-09
2.90802e-07
2.72979e-09
2.90427e-07
3.75249e-10
2.92473e-07
-2.04554e-09
2.97124e-07
-4.65187e-09
3.04269e-07
-7.14479e-09
3.13664e-07
-9.39499e-09
3.24961e-07
-1.12967e-08
3.37728e-07
-1.27665e-08
3.51478e-07
-1.37506e-08
3.65706e-07
-1.42276e-08
3.79899e-07
-1.41932e-08
3.9357e-07
-1.36708e-08
4.06285e-07
-1.27154e-08
4.17679e-07
-1.13938e-08
4.27463e-07
-9.78413e-09
4.3545e-07
-7.98674e-09
4.41505e-07
-6.05561e-09
4.45579e-07
-4.07343e-09
4.47665e-07
-2.08667e-09
4.47957e-07
-2.91813e-10
4.46578e-07
1.37904e-09
4.43621e-07
2.95741e-09
4.39265e-07
4.3556e-09
4.33704e-07
5.56122e-09
4.27139e-07
6.56515e-09
4.19782e-07
7.35643e-09
4.11859e-07
7.9234e-09
4.03604e-07
8.25543e-09
3.95261e-07
8.3426e-09
3.87093e-07
8.16834e-09
3.79378e-07
7.71512e-09
3.72402e-07
6.97552e-09
3.66447e-07
5.95505e-09
3.61784e-07
4.66294e-09
3.58668e-07
3.11607e-09
3.57292e-07
1.37566e-09
3.57588e-07
-2.95456e-10
3.59697e-07
-2.10931e-09
3.63612e-07
-3.9146e-09
3.69203e-07
-5.59101e-09
3.76265e-07
-7.06183e-09
3.8453e-07
-8.26565e-09
3.93685e-07
-9.15499e-09
4.03385e-07
-9.69969e-09
4.13272e-07
-9.88739e-09
4.22993e-07
-9.72033e-09
4.32211e-07
-9.21838e-09
4.40628e-07
-8.41693e-09
4.47992e-07
-7.36421e-09
4.54104e-07
-6.11203e-09
4.5882e-07
-4.71546e-09
4.62043e-07
-3.22347e-09
4.63717e-07
-1.67407e-09
4.63959e-07
-2.41403e-10
4.62854e-07
1.10454e-09
4.60449e-07
2.40502e-09
4.56889e-07
3.56047e-09
4.5234e-07
4.54864e-09
4.46986e-07
5.35419e-09
4.41019e-07
5.96645e-09
4.34641e-07
6.3786e-09
4.28052e-07
6.5883e-09
4.2146e-07
6.59291e-09
4.15068e-07
6.39141e-09
4.0908e-07
5.98775e-09
4.03691e-07
5.38982e-09
3.99082e-07
4.60824e-09
3.95426e-07
3.65633e-09
3.92872e-07
2.55378e-09
3.91559e-07
1.31275e-09
9.59931e-11
9.14677e-07
-1.50033e-08
9.20998e-07
-1.02735e-08
9.25196e-07
-5.99036e-09
9.27355e-07
-1.99047e-09
9.27957e-07
1.32585e-09
9.26876e-07
4.73932e-09
9.2426e-07
7.90355e-09
9.20263e-07
1.07958e-08
9.15054e-07
1.33793e-08
9.08806e-07
1.56102e-08
9.01735e-07
1.74037e-08
8.941e-07
1.86527e-08
8.86241e-07
1.9228e-08
8.78546e-07
1.90001e-08
8.71481e-07
1.78228e-08
8.6555e-07
1.55935e-08
8.61224e-07
1.2306e-08
8.59043e-07
7.92152e-09
8.5951e-07
2.42381e-09
8.63009e-07
-3.49309e-09
8.69965e-07
-1.01613e-08
8.80346e-07
-1.70534e-08
8.94053e-07
-2.37579e-08
9.10796e-07
-2.98901e-08
9.30102e-07
-3.51013e-08
9.51352e-07
-3.91065e-08
9.73822e-07
-4.17093e-08
9.96736e-07
-4.28126e-08
1.01933e-06
-4.24198e-08
1.0409e-06
-4.06264e-08
1.06084e-06
-3.76093e-08
1.07865e-06
-3.36087e-08
1.09397e-06
-2.88907e-08
1.10661e-06
-2.37548e-08
1.11653e-06
-1.84387e-08
1.12372e-06
-1.31582e-08
1.12832e-06
-8.06226e-09
1.13069e-06
-3.45353e-09
1.13084e-06
6.65032e-10
1.12917e-06
4.38555e-09
1.12592e-06
7.62186e-09
1.12132e-06
1.04258e-08
1.11557e-06
1.2835e-08
1.10886e-06
1.48633e-08
1.10138e-06
1.64998e-08
1.09335e-06
1.77056e-08
1.08503e-06
1.84128e-08
1.07672e-06
1.85233e-08
1.06876e-06
1.79487e-08
1.0615e-06
1.66303e-08
1.05534e-06
1.44895e-08
1.05069e-06
1.15247e-08
1.04797e-06
7.70626e-09
1.04739e-06
3.31103e-09
1.04928e-06
-1.51481e-09
1.0539e-06
-6.66044e-09
1.0611e-06
-1.18586e-08
1.07077e-06
-1.68147e-08
1.08265e-06
-2.12686e-08
1.09635e-06
-2.49988e-08
1.11142e-06
-2.78333e-08
1.12733e-06
-2.96615e-08
1.14354e-06
-3.04356e-08
1.1595e-06
-3.01614e-08
1.17473e-06
-2.88962e-08
1.18877e-06
-2.67529e-08
1.20127e-06
-2.38937e-08
1.21197e-06
-2.04827e-08
1.22067e-06
-1.66927e-08
1.2273e-06
-1.26881e-08
1.23182e-06
-8.59033e-09
1.23435e-06
-4.61584e-09
1.23494e-06
-8.83086e-10
1.23374e-06
2.58291e-09
1.23099e-06
5.70108e-09
1.22691e-06
8.43658e-09
1.2217e-06
1.07704e-08
1.21558e-06
1.2688e-08
1.20876e-06
1.41741e-08
1.20148e-06
1.52099e-08
1.19396e-06
1.57749e-08
1.18646e-06
1.58424e-08
1.17925e-06
1.53795e-08
1.1726e-06
1.43581e-08
1.16681e-06
1.27635e-08
1.16213e-06
1.06423e-08
1.15879e-06
8.00395e-09
1.15699e-06
4.91027e-09
1.15692e-06
1.44688e-09
1.15877e-06
-2.14751e-09
1.1625e-06
-5.84065e-09
1.16802e-06
-9.43278e-09
1.17518e-06
-1.27504e-08
1.18376e-06
-1.56395e-08
1.19346e-06
-1.79698e-08
1.20395e-06
-1.96441e-08
1.21486e-06
-2.06042e-08
1.2258e-06
-2.08279e-08
1.2364e-06
-2.03267e-08
1.24633e-06
-1.91477e-08
1.25529e-06
-1.73711e-08
1.26302e-06
-1.50994e-08
1.26936e-06
-1.24472e-08
1.27418e-06
-9.53291e-09
1.2774e-06
-6.4503e-09
1.27905e-06
-3.32152e-09
1.27918e-06
-3.68747e-10
1.27783e-06
2.45656e-09
1.27521e-06
5.02053e-09
1.2715e-06
7.27267e-09
1.26687e-06
9.17173e-09
1.26154e-06
1.06887e-08
1.2557e-06
1.18057e-08
1.24957e-06
1.25135e-08
1.24335e-06
1.28093e-08
1.23725e-06
1.26931e-08
1.23147e-06
1.21672e-08
1.22622e-06
1.12402e-08
1.22168e-06
9.92962e-09
1.21803e-06
8.26028e-09
1.21541e-06
6.26666e-09
1.21397e-06
3.99754e-09
1.21376e-06
1.51982e-09
-1.03253e-09
1.7864e-06
-2.24402e-08
1.79171e-06
-1.55776e-08
1.79522e-06
-9.50272e-09
1.79717e-06
-3.93865e-09
1.79722e-06
1.27238e-09
1.79571e-06
6.24756e-09
1.79271e-06
1.09032e-08
1.78831e-06
1.51976e-08
1.7826e-06
1.90875e-08
1.7757e-06
2.2517e-08
1.76773e-06
2.53737e-08
1.75892e-06
2.74567e-08
1.7496e-06
2.85513e-08
1.74017e-06
2.84339e-08
1.73111e-06
2.68794e-08
1.72292e-06
2.37861e-08
1.71621e-06
1.90086e-08
1.71163e-06
1.25036e-08
1.70977e-06
4.29103e-09
1.71114e-06
-4.8673e-09
1.71609e-06
-1.51088e-08
1.72471e-06
-2.56743e-08
1.73692e-06
-3.59747e-08
1.75246e-06
-4.54294e-08
1.77085e-06
-5.34915e-08
1.79146e-06
-5.97089e-08
1.81352e-06
-6.37681e-08
1.83622e-06
-6.55168e-08
1.85875e-06
-6.49533e-08
1.88034e-06
-6.22152e-08
1.90032e-06
-5.7585e-08
1.91813e-06
-5.1426e-08
1.93341e-06
-4.41671e-08
1.94592e-06
-3.62601e-08
1.95556e-06
-2.80842e-08
1.96239e-06
-1.99901e-08
1.96657e-06
-1.22369e-08
1.96829e-06
-5.17927e-09
1.9678e-06
1.15847e-09
1.96543e-06
6.75865e-09
1.96143e-06
1.16145e-08
1.95605e-06
1.58126e-08
1.94946e-06
1.94231e-08
1.94184e-06
2.24822e-08
1.93336e-06
2.49794e-08
1.92421e-06
2.68544e-08
1.91463e-06
2.79923e-08
1.90491e-06
2.82417e-08
1.89539e-06
2.7469e-08
1.8865e-06
2.55248e-08
1.87867e-06
2.23171e-08
1.87238e-06
1.7818e-08
1.86807e-06
1.20159e-08
1.86611e-06
5.26983e-09
1.86686e-06
-2.26375e-09
1.87051e-06
-1.03095e-08
1.87703e-06
-1.8381e-08
1.88629e-06
-2.60703e-08
1.898e-06
-3.29833e-08
1.91177e-06
-3.87698e-08
1.92709e-06
-4.31544e-08
1.94339e-06
-4.59579e-08
1.96006e-06
-4.71034e-08
1.9765e-06
-4.66059e-08
1.99217e-06
-4.45684e-08
2.0066e-06
-4.11742e-08
2.01937e-06
-3.66672e-08
2.03021e-06
-3.13188e-08
2.03891e-06
-2.54005e-08
2.04541e-06
-1.91828e-08
2.0497e-06
-1.28818e-08
2.05177e-06
-6.68387e-09
2.05182e-06
-9.31594e-10
2.05e-06
4.40295e-09
2.04654e-06
9.15392e-09
2.04168e-06
1.32991e-08
2.03563e-06
1.68194e-08
2.02862e-06
1.9701e-08
2.02086e-06
2.19303e-08
2.01259e-06
2.3486e-08
2.00402e-06
2.43386e-08
1.99542e-06
2.44438e-08
1.98706e-06
2.3745e-08
1.97922e-06
2.21893e-08
1.97223e-06
1.97584e-08
1.96638e-06
1.64964e-08
1.96195e-06
1.24288e-08
1.95921e-06
7.64714e-09
1.95838e-06
2.28365e-09
1.95961e-06
-3.37772e-09
1.96293e-06
-9.16769e-09
1.96827e-06
-1.4772e-08
1.97547e-06
-1.99446e-08
1.98427e-06
-2.44466e-08
1.99438e-06
-2.80708e-08
2.00539e-06
-3.06612e-08
2.01691e-06
-3.21223e-08
2.0285e-06
-3.24217e-08
2.03976e-06
-3.15852e-08
2.05031e-06
-2.96935e-08
2.05981e-06
-2.68743e-08
2.068e-06
-2.32898e-08
2.07468e-06
-1.91217e-08
2.0797e-06
-1.4559e-08
2.08303e-06
-9.77773e-09
2.08461e-06
-4.90193e-09
2.08451e-06
-2.63734e-10
2.08282e-06
4.13907e-09
2.07974e-06
8.10003e-09
2.07546e-06
1.1559e-08
2.07017e-06
1.4459e-08
2.0641e-06
1.67603e-08
2.05747e-06
1.84393e-08
2.05049e-06
1.94858e-08
2.0434e-06
1.98979e-08
2.03642e-06
1.96795e-08
2.02975e-06
1.88356e-08
2.02361e-06
1.73774e-08
2.01821e-06
1.53315e-08
2.01373e-06
1.27375e-08
2.01036e-06
9.64106e-09
2.00824e-06
6.11922e-09
2.0075e-06
2.2581e-09
-1.73102e-09
2.81782e-06
-2.21171e-08
2.81538e-06
-1.31398e-08
2.81167e-06
-5.78981e-09
2.80724e-06
4.9038e-10
2.80219e-06
6.3185e-09
2.79652e-06
1.19147e-08
2.79005e-06
1.73762e-08
2.78252e-06
2.27246e-08
2.77372e-06
2.78857e-08
2.76347e-06
3.27734e-08
2.75164e-06
3.7203e-08
2.73835e-06
4.07504e-08
2.7239e-06
4.29926e-08
2.70878e-06
4.35584e-08
2.69354e-06
4.2116e-08
2.67898e-06
3.83492e-08
2.66594e-06
3.20516e-08
2.65527e-06
2.31751e-08
2.64768e-06
1.18798e-08
2.64419e-06
-1.37754e-09
2.6452e-06
-1.61201e-08
2.65091e-06
-3.13812e-08
2.66116e-06
-4.6229e-08
2.67557e-06
-5.98393e-08
2.69348e-06
-7.13985e-08
2.71401e-06
-8.02381e-08
2.73616e-06
-8.59226e-08
2.75891e-06
-8.82711e-08
2.78128e-06
-8.73194e-08
2.80237e-06
-8.33067e-08
2.82145e-06
-7.66627e-08
2.83796e-06
-6.79378e-08
2.85154e-06
-5.77414e-08
2.86197e-06
-4.6692e-08
2.86923e-06
-3.53418e-08
2.87338e-06
-2.41471e-08
2.87462e-06
-1.3474e-08
2.87317e-06
-3.72709e-09
2.86939e-06
4.93907e-09
2.86362e-06
1.2529e-08
2.85611e-06
1.91194e-08
2.84709e-06
2.48375e-08
2.83671e-06
2.9796e-08
2.82514e-06
3.40599e-08
2.8125e-06
3.76202e-08
2.79897e-06
4.03818e-08
2.78479e-06
4.21697e-08
2.77027e-06
4.27592e-08
2.75585e-06
4.18896e-08
2.74205e-06
3.93269e-08
2.72944e-06
3.49279e-08
2.71861e-06
2.86472e-08
2.71008e-06
2.05423e-08
2.70449e-06
1.08588e-08
2.70231e-06
-8.06723e-11
2.70378e-06
-1.17805e-08
2.7089e-06
-2.34973e-08
2.71746e-06
-3.46284e-08
2.7291e-06
-4.46234e-08
2.7433e-06
-5.29685e-08
2.7594e-06
-5.92596e-08
2.77669e-06
-6.3245e-08
2.79441e-06
-6.48286e-08
2.81185e-06
-6.40474e-08
2.82836e-06
-6.10698e-08
2.84335e-06
-5.61707e-08
2.85639e-06
-4.97061e-08
2.86714e-06
-4.20641e-08
2.87537e-06
-3.3638e-08
2.881e-06
-2.48101e-08
2.884e-06
-1.58778e-08
2.88445e-06
-7.13139e-09
2.88244e-06
1.06856e-09
2.87831e-06
8.54029e-09
2.87228e-06
1.51783e-08
2.86464e-06
2.09458e-08
2.85562e-06
2.58321e-08
2.84549e-06
2.98337e-08
2.83448e-06
3.2943e-08
2.82283e-06
3.51369e-08
2.8108e-06
3.63693e-08
2.79868e-06
3.65648e-08
2.78679e-06
3.56278e-08
2.7755e-06
3.34832e-08
2.76516e-06
3.00988e-08
2.75617e-06
2.54896e-08
2.74888e-06
1.97165e-08
2.74364e-06
1.28874e-08
2.7407e-06
5.22528e-09
2.74032e-06
-3.00595e-09
2.74257e-06
-1.14089e-08
2.74732e-06
-1.95227e-08
2.75438e-06
-2.70101e-08
2.76347e-06
-3.35319e-08
2.77418e-06
-3.87867e-08
2.78607e-06
-4.25462e-08
2.79862e-06
-4.46758e-08
2.81133e-06
-4.51317e-08
2.8237e-06
-4.39544e-08
2.83527e-06
-4.1267e-08
2.84566e-06
-3.7257e-08
2.85452e-06
-3.2156e-08
2.86163e-06
-2.62285e-08
2.86681e-06
-1.97416e-08
2.86998e-06
-1.29409e-08
2.87113e-06
-6.05631e-09
2.87023e-06
6.33259e-10
2.86749e-06
6.88348e-09
2.86308e-06
1.2511e-08
2.85722e-06
1.74155e-08
2.85016e-06
2.15229e-08
2.84213e-06
2.47839e-08
2.8334e-06
2.71706e-08
2.82422e-06
2.86717e-08
2.81483e-06
2.92873e-08
2.80548e-06
2.90216e-08
2.79644e-06
2.7879e-08
2.78795e-06
2.58713e-08
2.78025e-06
2.30297e-08
2.77358e-06
1.94061e-08
2.76815e-06
1.50731e-08
2.76414e-06
1.01273e-08
2.7617e-06
4.69377e-09
-1.05346e-09
3.82875e-06
-1.5536e-08
3.81713e-06
-1.52016e-09
3.80171e-06
9.63099e-09
3.78375e-06
1.84467e-08
3.76449e-06
2.55825e-08
3.74471e-06
3.16919e-08
3.72468e-06
3.74022e-08
3.70423e-06
4.31826e-08
3.6829e-06
4.92127e-08
3.66024e-06
5.54334e-08
3.63592e-06
6.15192e-08
3.60987e-06
6.68035e-08
3.58231e-06
7.05541e-08
3.5538e-06
7.20619e-08
3.52524e-06
7.06771e-08
3.49774e-06
6.58531e-08
3.47263e-06
5.71625e-08
3.45129e-06
4.45118e-08
3.43509e-06
2.80806e-08
3.42538e-06
8.33562e-09
3.42328e-06
-1.40235e-08
3.42931e-06
-3.74114e-08
3.44326e-06
-6.01802e-08
3.46441e-06
-8.09832e-08
3.49151e-06
-9.84985e-08
3.52292e-06
-1.11652e-07
3.55675e-06
-1.19751e-07
3.59105e-06
-1.2257e-07
3.62407e-06
-1.20337e-07
3.65435e-06
-1.13592e-07
3.68076e-06
-1.0307e-07
3.70248e-06
-8.96618e-08
3.71906e-06
-7.43221e-08
3.73035e-06
-5.7979e-08
3.73643e-06
-4.14221e-08
3.7375e-06
-2.52168e-08
3.73391e-06
-9.88731e-09
3.72627e-06
3.91976e-09
3.71528e-06
1.59293e-08
3.70155e-06
2.62581e-08
3.68557e-06
3.51009e-08
3.6677e-06
4.26994e-08
3.64822e-06
4.92753e-08
3.62732e-06
5.49681e-08
3.60514e-06
5.97922e-08
3.58191e-06
6.36151e-08
3.55791e-06
6.61723e-08
3.53358e-06
6.7089e-08
3.50953e-06
6.59358e-08
3.4865e-06
6.23568e-08
3.4653e-06
5.61268e-08
3.4468e-06
4.71487e-08
3.43188e-06
3.54652e-08
3.42138e-06
2.13602e-08
3.41604e-06
5.25454e-09
3.41643e-06
-1.21639e-08
3.42263e-06
-2.97055e-08
3.43433e-06
-4.63194e-08
3.45086e-06
-6.11576e-08
3.47132e-06
-7.34256e-08
3.49456e-06
-8.25029e-08
3.51932e-06
-8.80089e-08
3.54434e-06
-8.98495e-08
3.56849e-06
-8.81924e-08
3.59081e-06
-8.33874e-08
3.61053e-06
-7.58923e-08
3.62707e-06
-6.62522e-08
3.64008e-06
-5.50644e-08
3.64934e-06
-4.29002e-08
3.65479e-06
-3.02665e-08
3.65647e-06
-1.75584e-08
3.6545e-06
-5.15319e-09
3.64919e-06
6.37854e-09
3.64096e-06
1.67711e-08
3.6302e-06
2.59309e-08
3.61732e-06
3.38316e-08
3.60267e-06
4.04822e-08
3.5866e-06
4.59045e-08
3.56943e-06
5.01078e-08
3.5515e-06
5.3072e-08
3.53313e-06
5.47379e-08
3.51471e-06
5.49872e-08