/*--------------------------------*- C++ -*----------------------------------*\
| =========                 |                                                 |
| \\      /  F ield         | OpenFOAM: The Open Source CFD Toolbox           |
|  \\    /   O peration     | Version:  2206                                  |
|   \\  /    A nd           | Website:  www.openfoam.com                      |
|    \\/     M anipulation  |                                                 |
\*---------------------------------------------------------------------------*/
FoamFile
{
    version     2.0;
    format      ascii;
    arch        "LSB;label=32;scalar=64";
    class       volVectorField;
    location    "18.6";
    object      U;
}
// * * * * * * * * * * * * * * * * * * * * * * * * * * * * * * * * * * * * * //

dimensions      [0 1 -1 0 0 0 0];

internalField   nonuniform List<vector> 
3088
(
(2.01543 0.0609201 0)
(2.03294 -0.0163966 0)
(2.04803 -0.0958946 0)
(2.0599 -0.174275 0)
(2.06814 -0.249232 0)
(2.07245 -0.318657 0)
(2.07265 -0.38072 0)
(2.06867 -0.433921 0)
(2.06059 -0.477106 0)
(2.04873 -0.509454 0)
(2.03286 -0.530428 0)
(2.01166 -0.539089 0)
(1.98563 -0.53524 0)
(1.95497 -0.521172 0)
(1.92058 -0.499793 0)
(1.88376 -0.474499 0)
(1.84614 -0.448729 0)
(1.80909 -0.424851 0)
(1.77335 -0.403807 0)
(1.73946 -0.385743 0)
(1.70772 -0.370267 0)
(1.67818 -0.356644 0)
(1.65076 -0.343965 0)
(1.62528 -0.331257 0)
(1.60159 -0.317566 0)
(1.57958 -0.302008 0)
(1.55929 -0.283798 0)
(1.54076 -0.262122 0)
(1.52418 -0.236247 0)
(1.50983 -0.205568 0)
(1.49801 -0.169675 0)
(1.48906 -0.128422 0)
(1.4833 -0.0819768 0)
(1.48103 -0.0308599 0)
(1.48247 0.0240307 0)
(1.48776 0.0814347 0)
(1.49688 0.13966 0)
(1.50955 0.196676 0)
(1.52543 0.250928 0)
(1.5441 0.301027 0)
(1.56504 0.345785 0)
(1.58765 0.384295 0)
(1.61133 0.415989 0)
(1.63552 0.440616 0)
(1.65976 0.458184 0)
(1.68378 0.468859 0)
(1.70745 0.472786 0)
(1.7305 0.470126 0)
(1.75248 0.461445 0)
(1.77328 0.447638 0)
(1.79295 0.429694 0)
(1.81163 0.408506 0)
(1.82963 0.384765 0)
(1.84727 0.358917 0)
(1.86482 0.331175 0)
(1.88251 0.301565 0)
(1.90046 0.269988 0)
(1.91869 0.236294 0)
(1.93713 0.200326 0)
(1.9556 0.161999 0)
(1.97385 0.121286 0)
(1.99159 0.0782153 0)
(2.00857 0.0328633 0)
(2.02449 -0.014565 0)
(2.03899 -0.0634661 0)
(2.05148 -0.112562 0)
(2.06145 -0.160643 0)
(2.06845 -0.206558 0)
(2.07207 -0.249241 0)
(2.07205 -0.287686 0)
(2.06831 -0.320885 0)
(2.06081 -0.348035 0)
(2.04943 -0.368572 0)
(2.03344 -0.381692 0)
(2.01256 -0.386432 0)
(1.98693 -0.38334 0)
(1.95719 -0.373794 0)
(1.92457 -0.359738 0)
(1.89064 -0.343547 0)
(1.8572 -0.327519 0)
(1.82529 -0.31296 0)
(1.79564 -0.300416 0)
(1.76872 -0.28991 0)
(1.74475 -0.281067 0)
(1.72376 -0.273212 0)
(1.70566 -0.265464 0)
(1.69029 -0.256769 0)
(1.6775 -0.246004 0)
(1.66725 -0.232339 0)
(1.65932 -0.215072 0)
(1.65355 -0.193697 0)
(1.64984 -0.167946 0)
(1.64811 -0.137788 0)
(1.64827 -0.103422 0)
(1.65022 -0.0652546 0)
(1.65389 -0.0238762 0)
(1.65921 0.0199561 0)
(1.66609 0.0652774 0)
(1.67443 0.110765 0)
(1.68407 0.155127 0)
(1.69494 0.197417 0)
(1.70693 0.236732 0)
(1.71987 0.272253 0)
(1.73359 0.303298 0)
(1.74781 0.32938 0)
(1.76225 0.35026 0)
(1.77663 0.365942 0)
(1.79072 0.376606 0)
(1.80454 0.382403 0)
(1.81824 0.383165 0)
(1.83154 0.378689 0)
(1.84428 0.369198 0)
(1.85639 0.355169 0)
(1.86782 0.337214 0)
(1.87868 0.315957 0)
(1.88912 0.291954 0)
(1.8993 0.265665 0)
(1.90934 0.237454 0)
(1.91932 0.207592 0)
(1.92926 0.176283 0)
(1.93915 0.143697 0)
(1.9489 0.109971 0)
(1.95843 0.0752049 0)
(2.06735 0.0414988 0)
(2.08658 -0.0334073 0)
(2.1025 -0.109562 0)
(2.11439 -0.184116 0)
(2.12185 -0.254879 0)
(2.12459 -0.319884 0)
(2.12245 -0.377446 0)
(2.11543 -0.426193 0)
(2.10374 -0.465012 0)
(2.08748 -0.492983 0)
(2.0656 -0.509065 0)
(2.03789 -0.512096 0)
(2.00473 -0.503271 0)
(1.96679 -0.485059 0)
(1.92539 -0.460757 0)
(1.88221 -0.434166 0)
(1.83924 -0.408696 0)
(1.79758 -0.386108 0)
(1.758 -0.367011 0)
(1.72096 -0.351258 0)
(1.68662 -0.338204 0)
(1.65489 -0.326922 0)
(1.62553 -0.316389 0)
(1.59828 -0.305613 0)
(1.57288 -0.293694 0)
(1.54914 -0.279825 0)
(1.52705 -0.263313 0)
(1.50666 -0.243477 0)
(1.48816 -0.219676 0)
(1.47186 -0.191379 0)
(1.45811 -0.158216 0)
(1.4473 -0.120053 0)
(1.43983 -0.0770444 0)
(1.43604 -0.0296646 0)
(1.43623 0.0212736 0)
(1.44058 0.074632 0)
(1.44912 0.128938 0)
(1.46162 0.182347 0)
(1.47774 0.233361 0)
(1.49705 0.280702 0)
(1.51905 0.323257 0)
(1.54315 0.360158 0)
(1.56877 0.390822 0)
(1.59534 0.414933 0)
(1.62241 0.432389 0)
(1.64959 0.443224 0)
(1.67664 0.447564 0)
(1.70325 0.44564 0)
(1.72901 0.437965 0)
(1.75375 0.425279 0)
(1.77741 0.408397 0)
(1.80008 0.388085 0)
(1.82194 0.364964 0)
(1.84324 0.339471 0)
(1.86418 0.311857 0)
(1.88495 0.282218 0)
(1.90565 0.250547 0)
(1.92628 0.216789 0)
(1.94674 0.180892 0)
(1.96689 0.142834 0)
(1.98648 0.10264 0)
(2.00528 0.0603502 0)
(2.02307 0.0160416 0)
(2.03956 -0.0300174 0)
(2.05421 -0.076995 0)
(2.06644 -0.123675 0)
(2.07581 -0.168872 0)
(2.08185 -0.211376 0)
(2.08405 -0.250265 0)
(2.08222 -0.284783 0)
(2.07637 -0.314041 0)
(2.06639 -0.337152 0)
(2.05139 -0.353238 0)
(2.03076 -0.361007 0)
(2.00456 -0.360508 0)
(1.97332 -0.352908 0)
(1.93832 -0.340016 0)
(1.90119 -0.324224 0)
(1.86401 -0.308116 0)
(1.82814 -0.293456 0)
(1.79441 -0.281087 0)
(1.76338 -0.271248 0)
(1.73533 -0.263713 0)
(1.71033 -0.257896 0)
(1.68826 -0.25297 0)
(1.66896 -0.247973 0)
(1.65219 -0.241868 0)
(1.63774 -0.233573 0)
(1.6256 -0.22222 0)
(1.61566 -0.207155 0)
(1.6078 -0.187892 0)
(1.60201 -0.164189 0)
(1.59829 -0.136029 0)
(1.59662 -0.103613 0)
(1.597 -0.0673488 0)
(1.59941 -0.0278245 0)
(1.60384 0.014206 0)
(1.61025 0.0577987 0)
(1.61855 0.101709 0)
(1.62856 0.144593 0)
(1.64017 0.185521 0)
(1.65324 0.223622 0)
(1.66758 0.258127 0)
(1.68295 0.288403 0)
(1.69907 0.314002 0)
(1.71565 0.334683 0)
(1.73241 0.350397 0)
(1.74915 0.361209 0)
(1.76584 0.367155 0)
(1.78253 0.36811 0)
(1.79893 0.36401 0)
(1.8149 0.355072 0)
(1.83031 0.341689 0)
(1.84507 0.324376 0)
(1.85919 0.303681 0)
(1.87273 0.280128 0)
(1.88577 0.254178 0)
(1.89841 0.226218 0)
(1.91069 0.196562 0)
(1.92262 0.165463 0)
(1.93419 0.133127 0)
(1.94536 0.0997037 0)
(1.95607 0.0652985 0)
(2.11175 0.020179 0)
(2.13232 -0.0515295 0)
(2.14887 -0.123604 0)
(2.16072 -0.193576 0)
(2.16742 -0.25938 0)
(2.16867 -0.319228 0)
(2.16433 -0.371596 0)
(2.15448 -0.415193 0)
(2.1393 -0.448858 0)
(2.11818 -0.471391 0)
(2.09025 -0.481191 0)
(2.05592 -0.478167 0)
(2.01561 -0.464116 0)
(1.97056 -0.441879 0)
(1.92252 -0.415251 0)
(1.87383 -0.388358 0)
(1.8263 -0.36406 0)
(1.78095 -0.343595 0)
(1.7385 -0.32719 0)
(1.69928 -0.314366 0)
(1.66327 -0.304198 0)
(1.63022 -0.295569 0)
(1.59977 -0.287368 0)
(1.57152 -0.278611 0)
(1.54512 -0.268461 0)
(1.52034 -0.256219 0)
(1.49712 -0.241329 0)
(1.47552 -0.223256 0)
(1.45572 -0.201472 0)
(1.43806 -0.175531 0)
(1.42292 -0.145119 0)
(1.41073 -0.11012 0)
(1.40193 -0.0706726 0)
(1.39692 -0.0272042 0)
(1.39604 0.0195575 0)
(1.39949 0.0686006 0)
(1.40738 0.118644 0)
(1.41953 0.168098 0)
(1.43559 0.215511 0)
(1.45518 0.259715 0)
(1.4778 0.299673 0)
(1.50291 0.334555 0)
(1.52993 0.363763 0)
(1.55832 0.386934 0)
(1.58759 0.403892 0)
(1.61733 0.414601 0)
(1.64717 0.419138 0)
(1.67677 0.417751 0)
(1.70571 0.410908 0)
(1.7338 0.39922 0)
(1.76091 0.383358 0)
(1.78704 0.363969 0)
(1.8123 0.341604 0)
(1.83684 0.316675 0)
(1.86082 0.289455 0)
(1.88435 0.260094 0)
(1.9075 0.228662 0)
(1.93026 0.19519 0)
(1.95251 0.15971 0)
(1.97411 0.122262 0)
(1.99486 0.0828875 0)
(2.0146 0.0416264 0)
(2.03312 -0.00140654 0)
(2.04999 -0.045731 0)
(2.0645 -0.090308 0)
(2.07611 -0.134121 0)
(2.08443 -0.175963 0)
(2.08889 -0.214665 0)
(2.0895 -0.249587 0)
(2.08635 -0.280077 0)
(2.07816 -0.304901 0)
(2.06473 -0.323079 0)
(2.04491 -0.333188 0)
(2.01868 -0.33483 0)
(1.98653 -0.328928 0)
(1.94976 -0.31712 0)
(1.91013 -0.30173 0)
(1.86983 -0.285461 0)
(1.83067 -0.270481 0)
(1.79358 -0.257909 0)
(1.75917 -0.248207 0)
(1.72778 -0.241336 0)
(1.69946 -0.236849 0)
(1.6741 -0.233992 0)
(1.65149 -0.231829 0)
(1.63136 -0.229354 0)
(1.61347 -0.225564 0)
(1.59761 -0.219479 0)
(1.58375 -0.21024 0)
(1.57192 -0.197244 0)
(1.56207 -0.180039 0)
(1.55426 -0.158408 0)
(1.54857 -0.132349 0)
(1.54507 -0.102068 0)
(1.54382 -0.0679698 0)
(1.54489 -0.0306336 0)
(1.54831 0.00920101 0)
(1.55412 0.0506294 0)
(1.56224 0.0925143 0)
(1.57251 0.133542 0)
(1.58475 0.172766 0)
(1.59876 0.209352 0)
(1.61432 0.242568 0)
(1.63115 0.271822 0)
(1.64897 0.296692 0)
(1.6675 0.316926 0)
(1.68645 0.332419 0)
(1.70565 0.343144 0)
(1.72501 0.349065 0)
(1.74448 0.350099 0)
(1.76378 0.346272 0)
(1.78274 0.337794 0)
(1.80121 0.325004 0)
(1.81904 0.308344 0)
(1.83619 0.288304 0)
(1.85265 0.265367 0)
(1.86844 0.23998 0)
(1.88359 0.212537 0)
(1.89813 0.183376 0)
(1.91205 0.152777 0)
(1.92533 0.120965 0)
(1.93797 0.0880977 0)
(1.94995 0.0542838 0)
(2.14772 -0.00263402 0)
(2.16932 -0.0704874 0)
(2.18635 -0.137901 0)
(2.19815 -0.202645 0)
(2.20413 -0.262802 0)
(2.2039 -0.316816 0)
(2.19743 -0.36331 0)
(2.18491 -0.400967 0)
(2.16599 -0.428506 0)
(2.13942 -0.444283 0)
(2.10547 -0.446915 0)
(2.06423 -0.437408 0)
(2.01678 -0.417969 0)
(1.9649 -0.392073 0)
(1.91103 -0.364074 0)
(1.85788 -0.337961 0)
(1.80684 -0.315797 0)
(1.75895 -0.29833 0)
(1.71479 -0.285362 0)
(1.67447 -0.276043 0)
(1.6378 -0.269162 0)
(1.60437 -0.263439 0)
(1.57366 -0.257706 0)
(1.54518 -0.250995 0)
(1.51851 -0.242564 0)
(1.49337 -0.231872 0)
(1.46968 -0.21851 0)
(1.4475 -0.202104 0)
(1.42704 -0.182252 0)
(1.40862 -0.158602 0)
(1.39265 -0.130903 0)
(1.37958 -0.0990662 0)
(1.36987 -0.0632174 0)
(1.36396 -0.0237329 0)
(1.36221 0.0187448 0)
(1.36488 0.0633288 0)
(1.37209 0.108913 0)
(1.38374 0.154171 0)
(1.39951 0.197719 0)
(1.41906 0.238486 0)
(1.44192 0.275515 0)
(1.46758 0.308015 0)
(1.49549 0.335391 0)
(1.52512 0.357244 0)
(1.55598 0.373347 0)
(1.58763 0.383624 0)
(1.61964 0.388124 0)
(1.65161 0.387075 0)
(1.68313 0.380888 0)
(1.71395 0.370062 0)
(1.74391 0.355145 0)
(1.77295 0.336682 0)
(1.80109 0.315155 0)
(1.82841 0.290948 0)
(1.855 0.26434 0)
(1.88092 0.235525 0)
(1.90619 0.204634 0)
(1.93076 0.171773 0)
(1.95452 0.13703 0)
(1.97733 0.100477 0)
(1.99907 0.0621493 0)
(2.01963 0.0220978 0)
(2.03873 -0.0193631 0)
(2.05574 -0.0613803 0)
(2.07001 -0.103092 0)
(2.08097 -0.143559 0)
(2.08823 -0.18174 0)
(2.09073 -0.216784 0)
(2.09035 -0.247598 0)
(2.08444 -0.27322 0)
(2.07242 -0.292489 0)
(2.05361 -0.304071 0)
(2.02763 -0.307197 0)
(1.99493 -0.302561 0)
(1.95687 -0.291617 0)
(1.91533 -0.276576 0)
(1.87258 -0.260154 0)
(1.83087 -0.244799 0)
(1.79121 -0.231854 0)
(1.75432 -0.221978 0)
(1.72054 -0.215314 0)
(1.68988 -0.21156 0)
(1.66217 -0.210065 0)
(1.63715 -0.209955 0)
(1.61449 -0.210245 0)
(1.59389 -0.209944 0)
(1.57513 -0.208118 0)
(1.55805 -0.203906 0)
(1.54263 -0.196531 0)
(1.52904 -0.185439 0)
(1.51731 -0.170218 0)
(1.50759 -0.150671 0)
(1.50005 -0.126805 0)
(1.49481 -0.0988218 0)
(1.49201 -0.0671139 0)
(1.49177 -0.0322455 0)
(1.49416 0.00505736 0)
(1.49924 0.0439397 0)
(1.507 0.0833794 0)
(1.51727 0.122151 0)
(1.52987 0.159312 0)
(1.54458 0.194076 0)
(1.56114 0.225745 0)
(1.57925 0.253748 0)
(1.59859 0.27766 0)
(1.61885 0.297205 0)
(1.6398 0.312226 0)
(1.66123 0.322632 0)
(1.68302 0.328355 0)
(1.70503 0.329354 0)
(1.72698 0.325707 0)
(1.74868 0.317617 0)
(1.76993 0.305378 0)
(1.79057 0.289381 0)
(1.8105 0.270063 0)
(1.82966 0.247869 0)
(1.84801 0.223224 0)
(1.86554 0.196519 0)
(1.88223 0.1681 0)
(1.89807 0.138256 0)
(1.91306 0.107205 0)
(1.92722 0.0750958 0)
(1.94056 0.0420465 0)
(2.17492 -0.0266505 0)
(2.19725 -0.0901146 0)
(2.21464 -0.152433 0)
(2.22633 -0.211333 0)
(2.23147 -0.265109 0)
(2.22966 -0.312624 0)
(2.22108 -0.352543 0)
(2.2057 -0.383395 0)
(2.1822 -0.403637 0)
(2.15016 -0.411129 0)
(2.10949 -0.405916 0)
(2.06099 -0.389513 0)
(2.00646 -0.364877 0)
(1.94838 -0.336234 0)
(1.8901 -0.308296 0)
(1.83372 -0.28414 0)
(1.78058 -0.265157 0)
(1.73156 -0.251573 0)
(1.68699 -0.242729 0)
(1.64678 -0.237397 0)
(1.61053 -0.234115 0)
(1.57764 -0.231451 0)
(1.54748 -0.228203 0)
(1.51946 -0.22348 0)
(1.49316 -0.216684 0)
(1.46829 -0.207438 0)
(1.44476 -0.195499 0)
(1.42263 -0.180652 0)
(1.4021 -0.162626 0)
(1.3835 -0.141169 0)
(1.36724 -0.116097 0)
(1.35378 -0.0873519 0)
(1.3436 -0.0550528 0)
(1.33714 -0.01953 0)
(1.33477 0.0186588 0)
(1.33679 0.0587473 0)
(1.34334 0.099785 0)
(1.3544 0.140669 0)
(1.36972 0.180177 0)
(1.38895 0.217283 0)
(1.4117 0.251121 0)
(1.43749 0.280946 0)
(1.46582 0.306175 0)
(1.49617 0.326391 0)
(1.52805 0.341336 0)
(1.56099 0.350902 0)
(1.59455 0.355137 0)
(1.62826 0.354235 0)
(1.66171 0.348528 0)
(1.69464 0.338416 0)
(1.72685 0.324347 0)
(1.7582 0.306778 0)
(1.78868 0.28613 0)
(1.81828 0.262754 0)
(1.84702 0.236934 0)
(1.87491 0.208892 0)
(1.90191 0.178813 0)
(1.92794 0.146851 0)
(1.9529 0.113126 0)
(1.9767 0.0776982 0)
(1.99929 0.0405831 0)
(2.0205 0.00194258 0)
(2.03986 -0.037548 0)
(2.05676 -0.0770256 0)
(2.07062 -0.115554 0)
(2.08091 -0.152214 0)
(2.08658 -0.186284 0)
(2.08773 -0.216833 0)
(2.08377 -0.242561 0)
(2.07307 -0.262237 0)
(2.05504 -0.274418 0)
(2.02938 -0.278312 0)
(1.99637 -0.274459 0)
(1.95742 -0.264121 0)
(1.91453 -0.249385 0)
(1.87015 -0.23293 0)
(1.82674 -0.217322 0)
(1.7855 -0.204064 0)
(1.74718 -0.193955 0)
(1.71207 -0.187251 0)
(1.68014 -0.183767 0)
(1.65114 -0.182983 0)
(1.62474 -0.184137 0)
(1.60053 -0.186323 0)
(1.57817 -0.188583 0)
(1.55738 -0.189996 0)
(1.53797 -0.189724 0)
(1.51988 -0.187031 0)
(1.50314 -0.18126 0)
(1.48799 -0.171901 0)
(1.47459 -0.158586 0)
(1.46314 -0.141127 0)
(1.45389 -0.119532 0)
(1.44705 -0.093992 0)
(1.44281 -0.0648774 0)
(1.44131 -0.0327272 0)
(1.44268 0.0017854 0)
(1.447 0.0378435 0)
(1.45428 0.0745148 0)
(1.46437 0.110716 0)
(1.47707 0.145494 0)
(1.49216 0.178115 0)
(1.50938 0.207928 0)
(1.52842 0.234392 0)
(1.54899 0.257085 0)
(1.57077 0.2757 0)
(1.5935 0.290023 0)
(1.61693 0.299912 0)
(1.6409 0.305283 0)
(1.66519 0.306139 0)
(1.68951 0.30259 0)
(1.71365 0.294822 0)
(1.73739 0.283096 0)
(1.76055 0.26776 0)
(1.78298 0.249209 0)
(1.80458 0.227851 0)
(1.82526 0.204092 0)
(1.84497 0.178308 0)
(1.86368 0.150835 0)
(1.88137 0.12194 0)
(1.89808 0.0918123 0)
(1.91384 0.0605969 0)
(1.92854 0.0285522 0)
(2.19355 -0.0514544 0)
(2.21637 -0.110227 0)
(2.23377 -0.167141 0)
(2.24495 -0.219621 0)
(2.24896 -0.266105 0)
(2.24544 -0.306229 0)
(2.23458 -0.338902 0)
(2.21547 -0.362176 0)
(2.18674 -0.373288 0)
(2.14796 -0.371483 0)
(2.09964 -0.35774 0)
(2.0436 -0.334454 0)
(1.98246 -0.30551 0)
(1.91984 -0.275813 0)
(1.85881 -0.249437 0)
(1.80099 -0.228477 0)
(1.74753 -0.213692 0)
(1.69902 -0.204773 0)
(1.65552 -0.200611 0)
(1.61668 -0.199607 0)
(1.58187 -0.200045 0)
(1.55036 -0.200411 0)
(1.52144 -0.199555 0)
(1.49451 -0.196709 0)
(1.46916 -0.191431 0)
(1.44512 -0.183516 0)
(1.4223 -0.172886 0)
(1.40077 -0.15948 0)
(1.38072 -0.14316 0)
(1.36247 -0.123775 0)
(1.34643 -0.101209 0)
(1.33305 -0.0754364 0)
(1.3228 -0.0465696 0)
(1.31614 -0.014898 0)
(1.31344 0.0190998 0)
(1.315 0.0547744 0)
(1.32099 0.091314 0)
(1.33144 0.127782 0)
(1.3462 0.163174 0)
(1.36494 0.196498 0)
(1.38731 0.226956 0)
(1.41288 0.25387 0)
(1.4412 0.276685 0)
(1.47178 0.294982 0)
(1.50414 0.308492 0)
(1.53779 0.317098 0)
(1.57226 0.320836 0)
(1.60707 0.319879 0)
(1.64184 0.314464 0)
(1.67626 0.304902 0)
(1.7101 0.291562 0)
(1.74319 0.274828 0)
(1.77544 0.255062 0)
(1.80679 0.232589 0)
(1.8372 0.207693 0)
(1.86659 0.180619 0)
(1.8949 0.151584 0)
(1.92203 0.120762 0)
(1.9479 0.0882571 0)
(1.97252 0.0540944 0)
(1.99582 0.0183451 0)
(2.01741 -0.0184849 0)
(2.03667 -0.0556235 0)
(2.05295 -0.0921674 0)
(2.06553 -0.127124 0)
(2.07376 -0.15956 0)
(2.07692 -0.188646 0)
(2.07433 -0.213423 0)
(2.06491 -0.23278 0)
(2.04754 -0.244893 0)
(2.02204 -0.248874 0)
(1.98881 -0.245279 0)
(1.94929 -0.235263 0)
(1.90561 -0.220781 0)
(1.86039 -0.204448 0)
(1.81629 -0.188841 0)
(1.77456 -0.175503 0)
(1.73591 -0.165268 0)
(1.7006 -0.158447 0)
(1.66852 -0.154964 0)
(1.63937 -0.154426 0)
(1.61272 -0.156202 0)
(1.5881 -0.159495 0)
(1.56509 -0.163427 0)
(1.54334 -0.167119 0)
(1.52261 -0.169757 0)
(1.50282 -0.170626 0)
(1.48397 -0.169112 0)
(1.46619 -0.164679 0)
(1.44974 -0.156872 0)
(1.43491 -0.145364 0)
(1.42198 -0.129971 0)
(1.41123 -0.110692 0)
(1.40294 -0.0876991 0)
(1.39735 -0.0613303 0)
(1.39468 -0.0320851 0)
(1.39506 -0.000589685 0)
(1.39857 0.0324004 0)
(1.40526 0.0660407 0)
(1.41501 0.0994026 0)
(1.42762 0.131549 0)
(1.44285 0.161781 0)
(1.46044 0.189484 0)
(1.48013 0.214136 0)
(1.50159 0.235316 0)
(1.52454 0.252702 0)
(1.54871 0.266055 0)
(1.57384 0.275214 0)
(1.5997 0.280104 0)
(1.62597 0.280741 0)
(1.65236 0.277224 0)
(1.67863 0.269715 0)
(1.70456 0.258459 0)
(1.72992 0.243774 0)
(1.75455 0.22602 0)
(1.7783 0.205576 0)
(1.80105 0.182817 0)
(1.82273 0.158094 0)
(1.84331 0.131699 0)
(1.86283 0.103851 0)
(1.88131 0.0747237 0)
(1.89859 0.0446195 0)
(1.91431 0.0140742 0)
(2.20442 -0.0768326 0)
(2.22752 -0.130173 0)
(2.24428 -0.180695 0)
(2.2533 -0.226275 0)
(2.25492 -0.265506 0)
(2.25145 -0.298051 0)
(2.23704 -0.322714 0)
(2.21234 -0.33589 0)
(2.17615 -0.336076 0)
(2.12864 -0.324011 0)
(2.07181 -0.301659 0)
(2.00857 -0.272496 0)
(1.94265 -0.241272 0)
(1.87805 -0.212699 0)
(1.81662 -0.189479 0)
(1.75974 -0.17294 0)
(1.70814 -0.163259 0)
(1.66201 -0.159614 0)
(1.6211 -0.160427 0)
(1.58481 -0.16378 0)
(1.55235 -0.167818 0)
(1.52293 -0.171034 0)
(1.49582 -0.172378 0)
(1.47048 -0.171233 0)
(1.44654 -0.167327 0)
(1.42378 -0.160618 0)
(1.40213 -0.151183 0)
(1.38167 -0.1391 0)
(1.36256 -0.124358 0)
(1.34513 -0.106907 0)
(1.32975 -0.0867 0)
(1.31688 -0.0637435 0)
(1.30696 -0.03815 0)
(1.30043 -0.0101695 0)
(1.29766 0.0197908 0)
(1.29896 0.0511847 0)
(1.30452 0.0833263 0)
(1.31439 0.115423 0)
(1.32851 0.14663 0)
(1.34664 0.176119 0)
(1.36846 0.203128 0)
(1.39357 0.227 0)
(1.42156 0.247223 0)
(1.45198 0.263405 0)
(1.48434 0.275281 0)
(1.51814 0.282743 0)
(1.55292 0.285815 0)
(1.58826 0.284607 0)
(1.62376 0.2793 0)
(1.65908 0.270131 0)
(1.69398 0.257395 0)
(1.72823 0.241416 0)
(1.7617 0.222512 0)
(1.79427 0.200985 0)
(1.82582 0.177118 0)
(1.85623 0.151171 0)
(1.88541 0.123364 0)
(1.9133 0.0938403 0)
(1.93993 0.062634 0)
(1.96532 0.0297717 0)
(1.98909 -0.00432403 0)
(2.01059 -0.0389095 0)
(2.02902 -0.073109 0)
(2.04354 -0.105938 0)
(2.05335 -0.136414 0)
(2.05779 -0.163584 0)
(2.05628 -0.186646 0)
(2.04754 -0.204792 0)
(2.03039 -0.216039 0)
(2.00462 -0.219473 0)
(1.97087 -0.215604 0)
(1.9308 -0.205574 0)
(1.88673 -0.191295 0)
(1.84151 -0.175337 0)
(1.79779 -0.16013 0)
(1.75673 -0.147081 0)
(1.71896 -0.136967 0)
(1.68463 -0.130136 0)
(1.65358 -0.126593 0)
(1.62543 -0.126047 0)
(1.59968 -0.127987 0)
(1.57579 -0.13174 0)
(1.55326 -0.136535 0)
(1.53167 -0.141582 0)
(1.51074 -0.146126 0)
(1.49032 -0.149492 0)
(1.47041 -0.151095 0)
(1.4511 -0.150434 0)
(1.4326 -0.147074 0)
(1.41518 -0.140632 0)
(1.39922 -0.130813 0)
(1.38506 -0.117436 0)
(1.37304 -0.100483 0)
(1.3635 -0.0800985 0)
(1.35673 -0.0565791 0)
(1.35295 -0.0303693 0)
(1.35235 -0.00205466 0)
(1.35503 0.027689 0)
(1.36103 0.0581047 0)
(1.37029 0.0883837 0)
(1.38262 0.117691 0)
(1.39779 0.145305 0)
(1.41553 0.170656 0)
(1.4356 0.193246 0)
(1.45769 0.212657 0)
(1.48152 0.228556 0)
(1.5068 0.240692 0)
(1.53326 0.248912 0)
(1.56058 0.253157 0)
(1.58842 0.253459 0)
(1.61653 0.249897 0)
(1.64461 0.242602 0)
(1.67239 0.23179 0)
(1.69964 0.21775 0)
(1.72614 0.200816 0)
(1.75173 0.181337 0)
(1.77629 0.159647 0)
(1.79978 0.136036 0)
(1.82221 0.110728 0)
(1.84355 0.0839317 0)
(1.86359 0.056031 0)
(1.8819 0.027567 0)
(1.89794 -0.000855921 0)
(2.20851 -0.102913 0)
(2.23158 -0.150036 0)
(2.2477 -0.193203 0)
(2.25432 -0.231653 0)
(2.25445 -0.263463 0)
(2.24672 -0.287536 0)
(2.22429 -0.300771 0)
(2.18973 -0.301159 0)
(2.14263 -0.289443 0)
(2.08499 -0.267297 0)
(2.02018 -0.237843 0)
(1.95226 -0.20554 0)
(1.88561 -0.175186 0)
(1.82234 -0.149822 0)
(1.76385 -0.131224 0)
(1.71085 -0.120088 0)
(1.66353 -0.116044 0)
(1.62167 -0.117804 0)
(1.58475 -0.12346 0)
(1.55204 -0.130889 0)
(1.52266 -0.138177 0)
(1.49584 -0.143891 0)
(1.47094 -0.147131 0)
(1.44752 -0.147456 0)
(1.4253 -0.144757 0)
(1.40413 -0.139137 0)
(1.38399 -0.130797 0)
(1.36495 -0.119933 0)
(1.34716 -0.10665 0)
(1.33093 -0.090995 0)
(1.3166 -0.0729843 0)
(1.3046 -0.0526571 0)
(1.29536 -0.0301239 0)
(1.28928 -0.00560221 0)
(1.28674 0.0205655 0)
(1.28803 0.0479233 0)
(1.29334 0.0758923 0)
(1.30277 0.103799 0)
(1.31629 0.130924 0)
(1.33373 0.156553 0)
(1.35484 0.180024 0)
(1.37928 0.200755 0)
(1.40665 0.218265 0)
(1.43652 0.232194 0)
(1.46843 0.242304 0)
(1.50192 0.248471 0)
(1.53655 0.250682 0)
(1.57189 0.249008 0)
(1.60758 0.243596 0)
(1.64327 0.234643 0)
(1.67868 0.222379 0)
(1.71355 0.207068 0)
(1.7477 0.188996 0)
(1.78093 0.16845 0)
(1.81309 0.145705 0)
(1.84405 0.121004 0)
(1.87379 0.094504 0)
(1.90236 0.066237 0)
(1.92979 0.036218 0)
(1.95562 0.00490116 0)
(1.97909 -0.0269438 0)
(1.99924 -0.0584397 0)
(2.01513 -0.0886313 0)
(2.02586 -0.116571 0)
(2.0308 -0.141334 0)
(2.02933 -0.162234 0)
(2.02005 -0.178395 0)
(2.00199 -0.187799 0)
(1.97508 -0.189938 0)
(1.9403 -0.185314 0)
(1.89967 -0.175085 0)
(1.85578 -0.161205 0)
(1.81177 -0.146158 0)
(1.76974 -0.131918 0)
(1.73068 -0.119645 0)
(1.69508 -0.110033 0)
(1.663 -0.103439 0)
(1.63419 -0.0999216 0)
(1.60818 -0.0992719 0)
(1.58443 -0.101086 0)
(1.56233 -0.104813 0)
(1.54133 -0.109811 0)
(1.52097 -0.115404 0)
(1.5009 -0.120935 0)
(1.48094 -0.125795 0)
(1.46104 -0.129447 0)
(1.44129 -0.131424 0)
(1.42185 -0.131323 0)
(1.40298 -0.128792 0)
(1.38498 -0.123521 0)
(1.36825 -0.115246 0)
(1.3532 -0.103799 0)
(1.34021 -0.0891352 0)
(1.32965 -0.0713657 0)
(1.32185 -0.0507448 0)
(1.31708 -0.0276613 0)
(1.31555 -0.00262696 0)
(1.31739 0.0237534 0)
(1.32265 0.0508042 0)
(1.33129 0.0778101 0)
(1.34319 0.104058 0)
(1.35813 0.128878 0)
(1.37584 0.151674 0)
(1.39608 0.171976 0)
(1.41856 0.189384 0)
(1.44299 0.203574 0)
(1.46905 0.214307 0)
(1.49642 0.221437 0)
(1.52476 0.224918 0)
(1.55378 0.224755 0)
(1.58317 0.221013 0)
(1.61262 0.213829 0)
(1.64186 0.203409 0)
(1.67062 0.190009 0)
(1.69866 0.173914 0)
(1.72585 0.155411 0)
(1.7521 0.134757 0)
(1.77738 0.112169 0)
(1.80158 0.0879069 0)
(1.82435 0.0624502 0)
(1.84518 0.0363531 0)
(1.86346 0.010256 0)
(1.87847 -0.0151212 0)
(2.20535 -0.129025 0)
(2.22658 -0.169057 0)
(2.2393 -0.20414 0)
(2.24305 -0.233444 0)
(2.23638 -0.256137 0)
(2.21545 -0.268053 0)
(2.18069 -0.266891 0)
(2.1328 -0.254148 0)
(2.07409 -0.231571 0)
(2.00828 -0.201912 0)
(1.93989 -0.1693 0)
(1.87347 -0.138192 0)
(1.81103 -0.111472 0)
(1.7538 -0.0910965 0)
(1.70223 -0.0781307 0)
(1.65623 -0.0727315 0)
(1.61551 -0.074174 0)
(1.57961 -0.0809201 0)
(1.54787 -0.0908472 0)
(1.51947 -0.10171 0)
(1.49362 -0.111631 0)
(1.46964 -0.119323 0)
(1.4471 -0.124071 0)
(1.42572 -0.125607 0)
(1.40534 -0.123959 0)
(1.38594 -0.119333 0)
(1.36751 -0.112016 0)
(1.35014 -0.102289 0)
(1.33396 -0.0903592 0)
(1.31921 -0.0763643 0)
(1.30624 -0.060389 0)
(1.29542 -0.0425084 0)
(1.28713 -0.0228367 0)
(1.28178 -0.00156298 0)
(1.2797 0.0210295 0)
(1.28117 0.0445626 0)
(1.28642 0.0685537 0)
(1.29553 0.0924429 0)
(1.30852 0.11563 0)
(1.32528 0.137511 0)
(1.34561 0.157514 0)
(1.3692 0.175125 0)
(1.39571 0.189916 0)
(1.42475 0.201558 0)
(1.45591 0.209822 0)
(1.48874 0.214582 0)
(1.52284 0.215806 0)
(1.55779 0.213541 0)
(1.59323 0.207895 0)
(1.62882 0.199019 0)
(1.66423 0.187108 0)
(1.69921 0.172391 0)
(1.7335 0.155124 0)
(1.76688 0.13558 0)
(1.79924 0.11399 0)
(1.83057 0.0904773 0)
(1.86095 0.0650497 0)
(1.89027 0.037817 0)
(1.91784 0.00934313 0)
(1.94271 -0.019572 0)
(1.96377 -0.047998 0)
(1.97997 -0.0750272 0)
(1.99047 -0.0997555 0)
(1.99472 -0.121442 0)
(1.99185 -0.139623 0)
(1.98042 -0.152906 0)
(1.96003 -0.15963 0)
(1.93105 -0.159843 0)
(1.89503 -0.154231 0)
(1.85443 -0.144076 0)
(1.81207 -0.131264 0)
(1.77074 -0.117839 0)
(1.73184 -0.105178 0)
(1.69618 -0.094189 0)
(1.66405 -0.0854862 0)
(1.6354 -0.0794232 0)
(1.6099 -0.0760833 0)
(1.58701 -0.0753245 0)
(1.56617 -0.0768398 0)
(1.54674 -0.0802028 0)
(1.52815 -0.0849086 0)
(1.50991 -0.0904025 0)
(1.49165 -0.0961245 0)
(1.47313 -0.101571 0)
(1.45425 -0.106289 0)
(1.43508 -0.109866 0)
(1.41577 -0.111929 0)
(1.39655 -0.112148 0)
(1.3777 -0.110236 0)
(1.35956 -0.105943 0)
(1.34249 -0.0990508 0)
(1.32693 -0.0893976 0)
(1.31333 -0.0769404 0)
(1.30207 -0.0617432 0)
(1.2935 -0.0440057 0)
(1.28793 -0.0240585 0)
(1.2856 -0.00234305 0)
(1.28665 0.0206131 0)
(1.29116 0.0442198 0)
(1.29913 0.0678471 0)
(1.31045 0.0908591 0)
(1.32497 0.112656 0)
(1.34245 0.132701 0)
(1.36262 0.150525 0)
(1.3852 0.165742 0)
(1.40988 0.178053 0)
(1.43634 0.187241 0)
(1.46425 0.193169 0)
(1.49327 0.195765 0)
(1.52307 0.195029 0)
(1.55333 0.191024 0)
(1.58375 0.183877 0)
(1.61404 0.173772 0)
(1.64394 0.160927 0)
(1.6733 0.145564 0)
(1.70198 0.127881 0)
(1.72988 0.108088 0)
(1.75669 0.0865294 0)
(1.78189 0.0637395 0)
(1.80488 0.0403051 0)
(1.82493 0.0169051 0)
(1.84129 -0.00574461 0)
(1.85333 -0.0270077 0)
(2.19036 -0.152681 0)
(2.20503 -0.183825 0)
(2.20972 -0.209039 0)
(2.20189 -0.227925 0)
(2.17914 -0.236345 0)
(2.14144 -0.232716 0)
(2.09052 -0.218134 0)
(2.02983 -0.194593 0)
(1.96363 -0.16502 0)
(1.897 -0.133386 0)
(1.8337 -0.103183 0)
(1.77545 -0.0767079 0)
(1.72307 -0.0556381 0)
(1.67658 -0.0411204 0)
(1.63549 -0.0337458 0)
(1.59909 -0.0334737 0)
(1.56678 -0.0395118 0)
(1.538 -0.0502233 0)
(1.5121 -0.0633526 0)
(1.48832 -0.0766399 0)
(1.46603 -0.0883429 0)
(1.44484 -0.097375 0)
(1.42455 -0.103207 0)
(1.40511 -0.105708 0)
(1.38655 -0.104995 0)
(1.36892 -0.101325 0)
(1.35227 -0.0950101 0)
(1.33668 -0.0863877 0)
(1.32227 -0.0757457 0)
(1.30923 -0.063299 0)
(1.29784 -0.0491959 0)
(1.28841 -0.0335475 0)
(1.28132 -0.0164754 0)
(1.27692 0.00184861 0)
(1.27552 0.0211892 0)
(1.27739 0.0412286 0)
(1.28275 0.0615579 0)
(1.2917 0.0817108 0)
(1.30427 0.101188 0)
(1.32039 0.119485 0)
(1.3399 0.136116 0)
(1.36255 0.150643 0)
(1.38806 0.162696 0)
(1.41608 0.171982 0)
(1.44624 0.178294 0)
(1.47815 0.181512 0)
(1.51142 0.181595 0)
(1.54565 0.178575 0)
(1.58047 0.172534 0)
(1.61552 0.163594 0)
(1.65047 0.151927 0)
(1.68505 0.13775 0)
(1.71906 0.12129 0)
(1.7524 0.102698 0)
(1.78508 0.0820037 0)
(1.81705 0.0592357 0)
(1.84778 0.0347785 0)
(1.87631 0.00932203 0)
(1.90145 -0.0162788 0)
(1.922 -0.0411268 0)
(1.93693 -0.0642656 0)
(1.94562 -0.085077 0)
(1.94749 -0.103121 0)
(1.94125 -0.117812 0)
(1.92616 -0.127172 0)
(1.90247 -0.130707 0)
(1.87136 -0.128937 0)
(1.83505 -0.122764 0)
(1.7961 -0.11346 0)
(1.75714 -0.102563 0)
(1.71999 -0.0913833 0)
(1.68561 -0.0808216 0)
(1.65456 -0.0715603 0)
(1.62695 -0.0641333 0)
(1.60262 -0.0588667 0)
(1.58116 -0.0558619 0)
(1.56204 -0.0550395 0)
(1.54466 -0.0561886 0)
(1.52843 -0.0590029 0)
(1.51279 -0.0630969 0)
(1.4973 -0.0680196 0)
(1.48153 -0.0733329 0)
(1.46521 -0.0786294 0)
(1.44822 -0.0835449 0)
(1.43058 -0.0877611 0)
(1.41238 -0.0909819 0)
(1.39383 -0.0929141 0)
(1.37521 -0.0932751 0)
(1.3568 -0.091819 0)
(1.33895 -0.0883389 0)
(1.32202 -0.0826642 0)
(1.30643 -0.0746656 0)
(1.29261 -0.0642739 0)
(1.281 -0.0515334 0)
(1.27199 -0.0366092 0)
(1.26588 -0.0197537 0)
(1.26294 -0.00133428 0)
(1.26334 0.0181943 0)
(1.26718 0.0383271 0)
(1.27448 0.0585182 0)
(1.28518 0.0782098 0)
(1.29914 0.0968678 0)
(1.31616 0.114005 0)
(1.33601 0.129198 0)
(1.35839 0.142089 0)
(1.383 0.152395 0)
(1.40952 0.159908 0)
(1.4376 0.164489 0)
(1.46692 0.166074 0)
(1.49713 0.16466 0)
(1.52791 0.160302 0)
(1.55899 0.153103 0)
(1.59011 0.143198 0)
(1.62106 0.130725 0)
(1.65166 0.115841 0)
(1.68162 0.0987949 0)
(1.71037 0.0800443 0)
(1.73726 0.0601334 0)
(1.76155 0.0396874 0)
(1.78241 0.0193905 0)
(1.79911 -8.45074e-05 0)
(1.81113 -0.0181727 0)
(1.81825 -0.0344862 0)
(2.14998 -0.167159 0)
(2.15043 -0.188338 0)
(2.13611 -0.201261 0)
(2.10639 -0.20385 0)
(2.06211 -0.196068 0)
(2.0064 -0.179022 0)
(1.94419 -0.155152 0)
(1.88048 -0.12749 0)
(1.81957 -0.0991165 0)
(1.76331 -0.072011 0)
(1.71283 -0.0477174 0)
(1.66852 -0.0275633 0)
(1.6302 -0.012616 0)
(1.59724 -0.00355668 0)
(1.5686 -0.00069412 0)
(1.54316 -0.00407528 0)
(1.52014 -0.0131581 0)
(1.4989 -0.0263124 0)
(1.4788 -0.0412082 0)
(1.4594 -0.0556527 0)
(1.44038 -0.0681506 0)
(1.42168 -0.0778398 0)
(1.40338 -0.0843392 0)
(1.38568 -0.0875956 0)
(1.36875 -0.0877518 0)
(1.35276 -0.0850475 0)
(1.33781 -0.0797765 0)
(1.32399 -0.0722767 0)
(1.31139 -0.0628935 0)
(1.30015 -0.051921 0)
(1.29049 -0.0395712 0)
(1.28266 -0.0259993 0)
(1.27696 -0.0113472 0)
(1.27369 0.00422791 0)
(1.27315 0.0205308 0)
(1.27558 0.0372994 0)
(1.28118 0.0542052 0)
(1.29007 0.0708691 0)
(1.30229 0.0868837 0)
(1.31782 0.101831 0)
(1.33652 0.115301 0)
(1.35822 0.126917 0)
(1.38267 0.136356 0)
(1.40958 0.143356 0)
(1.43861 0.147733 0)
(1.46942 0.149383 0)
(1.50164 0.148275 0)
(1.5349 0.144459 0)
(1.56881 0.138016 0)
(1.60302 0.129029 0)
(1.63728 0.117604 0)
(1.67144 0.103838 0)
(1.70541 0.0877861 0)
(1.73902 0.0695246 0)
(1.77178 0.0493092 0)
(1.80264 0.0277756 0)
(1.8304 0.00571382 0)
(1.85371 -0.0159652 0)
(1.87146 -0.0364189 0)
(1.88301 -0.0550175 0)
(1.88794 -0.0714111 0)
(1.88522 -0.0853891 0)
(1.87407 -0.0953217 0)
(1.8548 -0.100398 0)
(1.82845 -0.101055 0)
(1.79699 -0.0980658 0)
(1.76272 -0.0923039 0)
(1.72779 -0.0847439 0)
(1.69407 -0.0763396 0)
(1.66252 -0.0677839 0)
(1.6338 -0.0596386 0)
(1.60821 -0.0524127 0)
(1.58574 -0.0465257 0)
(1.56615 -0.0422474 0)
(1.54902 -0.0396893 0)
(1.53384 -0.0388355 0)
(1.52006 -0.0395743 0)
(1.50714 -0.0417212 0)
(1.49462 -0.0450069 0)
(1.48205 -0.0490927 0)
(1.46904 -0.0536349 0)
(1.45532 -0.0583061 0)
(1.44076 -0.0628265 0)
(1.42535 -0.0669564 0)
(1.40913 -0.0704748 0)
(1.39225 -0.0731621 0)
(1.37489 -0.0747942 0)
(1.35731 -0.0751437 0)
(1.33982 -0.0739974 0)
(1.32274 -0.0711807 0)
(1.30645 -0.0665565 0)
(1.29133 -0.060028 0)
(1.2778 -0.0515513 0)
(1.26627 -0.0411438 0)
(1.25716 -0.0288953 0)
(1.25082 -0.0150212 0)
(1.24754 0.000181059 0)
(1.24749 0.0163493 0)
(1.2508 0.0330592 0)
(1.2575 0.0498375 0)
(1.26756 0.0661931 0)
(1.28089 0.08166 0)
(1.29733 0.0958132 0)
(1.31666 0.108274 0)
(1.33861 0.118722 0)
(1.36288 0.126899 0)
(1.38916 0.132611 0)
(1.41713 0.135734 0)
(1.44646 0.136205 0)
(1.47684 0.134003 0)
(1.50798 0.129142 0)
(1.53961 0.121669 0)
(1.57144 0.111672 0)