/*--------------------------------*- C++ -*----------------------------------*\
| =========                 |                                                 |
| \\      /  F ield         | OpenFOAM: The Open Source CFD Toolbox           |
|  \\    /   O peration     | Version:  2206                                  |
|   \\  /    A nd           | Website:  www.openfoam.com                      |
|    \\/     M anipulation  |                                                 |
\*---------------------------------------------------------------------------*/
FoamFile
{
    version     2.0;
    format      ascii;
    arch        "LSB;label=32;scalar=64";
    class       volVectorField;
    location    "20.0001";
    object      U_0;
}
// * * * * * * * * * * * * * * * * * * * * * * * * * * * * * * * * * * * * * //

dimensions      [0 1 -1 0 0 0 0];

internalField   nonuniform List<vector> 
4810
(
(1.58146 -0.584327 0)
(1.587 -0.569422 0)
(1.59249 -0.542028 0)
(1.59802 -0.501442 0)
(1.60375 -0.447271 0)
(1.60959 -0.379938 0)
(1.61538 -0.30081 0)
(1.62093 -0.212226 0)
(1.62601 -0.117594 0)
(1.63019 -0.0218045 0)
(1.63308 0.0708141 0)
(1.63439 0.157336 0)
(1.63391 0.235485 0)
(1.63148 0.303744 0)
(1.62704 0.361369 0)
(1.62064 0.408332 0)
(1.61235 0.445209 0)
(1.60227 0.472996 0)
(1.59051 0.492883 0)
(1.57706 0.506031 0)
(1.56189 0.513446 0)
(1.54529 0.516192 0)
(1.52752 0.515343 0)
(1.50888 0.511379 0)
(1.48981 0.504129 0)
(1.47075 0.492893 0)
(1.45217 0.476657 0)
(1.43458 0.454347 0)
(1.41842 0.425087 0)
(1.40411 0.388372 0)
(1.39196 0.344161 0)
(1.38224 0.292876 0)
(1.37511 0.235344 0)
(1.37061 0.172694 0)
(1.36909 0.106297 0)
(1.36943 0.0377338 0)
(1.37271 -0.0311161 0)
(1.37798 -0.098697 0)
(1.38491 -0.163862 0)
(1.39314 -0.225575 0)
(1.40221 -0.283009 0)
(1.41169 -0.335543 0)
(1.42119 -0.382727 0)
(1.43036 -0.424265 0)
(1.43894 -0.459992 0)
(1.44675 -0.489824 0)
(1.45366 -0.513679 0)
(1.4596 -0.53161 0)
(1.46445 -0.543774 0)
(1.46799 -0.550497 0)
(1.47064 -0.55217 0)
(1.47271 -0.547762 0)
(1.47367 -0.534065 0)
(1.47371 -0.512947 0)
(1.47311 -0.48452 0)
(1.47206 -0.448887 0)
(1.47072 -0.406287 0)
(1.46921 -0.357151 0)
(1.46768 -0.302134 0)
(1.46623 -0.24213 0)
(1.46496 -0.178279 0)
(1.4639 -0.112011 0)
(1.46306 -0.0452 0)
(1.46234 0.0203974 0)
(1.46163 0.0834541 0)
(1.46079 0.142762 0)
(1.45969 0.197299 0)
(1.45815 0.246275 0)
(1.45605 0.289156 0)
(1.45324 0.325664 0)
(1.44962 0.355765 0)
(1.44514 0.37961 0)
(1.43978 0.397483 0)
(1.43366 0.409755 0)
(1.42677 0.416789 0)
(1.4189 0.418512 0)
(1.4105 0.414741 0)
(1.40174 0.405763 0)
(1.39297 0.391696 0)
(1.38457 0.372599 0)
(1.37681 0.348557 0)
(1.36995 0.319741 0)
(1.36416 0.286466 0)
(1.35953 0.249196 0)
(1.35616 0.208541 0)
(1.35407 0.165224 0)
(1.35326 0.120062 0)
(1.35365 0.0739346 0)
(1.35518 0.0278377 0)
(1.35775 -0.0174783 0)
(1.36132 -0.0613844 0)
(1.36579 -0.103293 0)
(1.37104 -0.142669 0)
(1.37696 -0.179037 0)
(1.38344 -0.211992 0)
(1.39033 -0.241201 0)
(1.39753 -0.266403 0)
(1.40494 -0.28741 0)
(1.41248 -0.304096 0)
(1.42005 -0.316405 0)
(1.42756 -0.324341 0)
(1.43527 -0.327693 0)
(1.44315 -0.325654 0)
(1.45107 -0.317942 0)
(1.45913 -0.304631 0)
(1.46726 -0.285901 0)
(1.47543 -0.262026 0)
(1.48362 -0.233374 0)
(1.49182 -0.200408 0)
(1.5 -0.163694 0)
(1.5081 -0.123905 0)
(1.51608 -0.0818253 0)
(1.52384 -0.0383777 0)
(1.53123 0.00522649 0)
(1.53807 0.0480201 0)
(1.54426 0.0892547 0)
(1.54965 0.128262 0)
(1.5541 0.164478 0)
(1.55751 0.197473 0)
(1.55978 0.226942 0)
(1.56086 0.252716 0)
(1.56074 0.274729 0)
(1.55944 0.293009 0)
(1.55703 0.30765 0)
(1.5536 0.31877 0)
(1.5493 0.326491 0)
(1.54412 0.330861 0)
(1.53797 0.331649 0)
(1.53115 0.328758 0)
(1.5238 0.322233 0)
(1.5162 0.312039 0)
(1.50861 0.298143 0)
(1.50129 0.280513 0)
(1.49444 0.259144 0)
(1.48824 0.234087 0)
(1.48283 0.20548 0)
(1.47829 0.173558 0)
(1.4747 0.138667 0)
(1.56118 -0.588594 0)
(1.56224 -0.573284 0)
(1.56344 -0.545927 0)
(1.56515 -0.505703 0)
(1.56745 -0.451932 0)
(1.57032 -0.384912 0)
(1.5737 -0.305944 0)
(1.5775 -0.217335 0)
(1.58156 -0.122413 0)
(1.58552 -0.0258279 0)
(1.58895 0.0679509 0)
(1.59152 0.155977 0)
(1.59291 0.235909 0)
(1.59284 0.306137 0)
(1.59112 0.365828 0)
(1.58765 0.414882 0)
(1.58236 0.453817 0)
(1.57528 0.483591 0)
(1.56645 0.505409 0)
(1.55589 0.520476 0)
(1.54349 0.529792 0)
(1.52937 0.534204 0)
(1.51389 0.534607 0)
(1.49735 0.531464 0)
(1.4802 0.52454 0)
(1.46293 0.513093 0)
(1.44604 0.496094 0)
(1.42998 0.472497 0)
(1.41521 0.441477 0)
(1.4021 0.402602 0)
(1.39094 0.355909 0)
(1.382 0.301912 0)
(1.37549 0.241516 0)
(1.3715 0.175961 0)
(1.37015 0.106774 0)
(1.37114 0.0355388 0)
(1.37445 -0.0357561 0)
(1.37958 -0.105404 0)
(1.38623 -0.172167 0)
(1.39398 -0.234976 0)
(1.40237 -0.292998 0)
(1.41098 -0.345635 0)
(1.41941 -0.392508 0)
(1.42729 -0.4334 0)
(1.43436 -0.468248 0)
(1.44043 -0.497052 0)
(1.44541 -0.519791 0)
(1.4493 -0.536501 0)
(1.45213 -0.547295 0)
(1.45393 -0.552662 0)
(1.45468 -0.553749 0)
(1.45432 -0.548018 0)
(1.4527 -0.533194 0)
(1.45041 -0.511317 0)
(1.44767 -0.482364 0)
(1.44461 -0.446396 0)
(1.4414 -0.40364 0)
(1.43823 -0.354519 0)
(1.43525 -0.299672 0)
(1.43262 -0.239964 0)
(1.43044 -0.1765 0)
(1.42879 -0.110656 0)
(1.42766 -0.0442148 0)
(1.42698 0.0211132 0)
(1.4266 0.0840492 0)
(1.42638 0.143415 0)
(1.42614 0.198201 0)
(1.42568 0.247618 0)
(1.42481 0.291124 0)
(1.42335 0.328423 0)
(1.42116 0.359428 0)
(1.41814 0.384231 0)
(1.41427 0.403058 0)
(1.4096 0.416216 0)
(1.40432 0.424058 0)
(1.39813 0.426646 0)
(1.39131 0.423466 0)
(1.38413 0.414679 0)
(1.37687 0.400421 0)
(1.36988 0.380799 0)
(1.36343 0.355964 0)
(1.35773 0.326155 0)
(1.35296 0.291737 0)
(1.34923 0.253214 0)
(1.34664 0.211222 0)
(1.34522 0.166524 0)
(1.34498 0.120015 0)
(1.34582 0.0726599 0)
(1.34766 0.0254226 0)
(1.35045 -0.0209847 0)
(1.35413 -0.0658967 0)
(1.35861 -0.108697 0)
(1.36377 -0.148835 0)
(1.36949 -0.185825 0)
(1.37563 -0.219258 0)
(1.38207 -0.248806 0)
(1.38868 -0.274223 0)
(1.39537 -0.295339 0)
(1.40205 -0.312051 0)
(1.40865 -0.324331 0)
(1.41507 -0.332243 0)
(1.42156 -0.335684 0)
(1.4282 -0.333795 0)
(1.43482 -0.326195 0)
(1.44158 -0.312975 0)
(1.44842 -0.294326 0)
(1.45536 -0.270526 0)
(1.46239 -0.241938 0)
(1.46953 -0.209019 0)
(1.47677 -0.172324 0)
(1.48407 -0.132506 0)
(1.4914 -0.0903241 0)
(1.4987 -0.0466685 0)
(1.5058 -0.00265716 0)
(1.51256 0.0406873 0)
(1.51885 0.0826287 0)
(1.52453 0.1225 0)
(1.52946 0.159729 0)
(1.53351 0.193859 0)
(1.53657 0.224556 0)
(1.53858 0.251608 0)
(1.53949 0.274906 0)
(1.53931 0.294439 0)
(1.53807 0.310254 0)
(1.53587 0.322428 0)
(1.53285 0.331086 0)
(1.52914 0.336344 0)
(1.52452 0.338086 0)
(1.51922 0.335911 0)
(1.51336 0.329813 0)
(1.50722 0.319746 0)
(1.5011 0.305698 0)
(1.49523 0.287674 0)
(1.48976 0.265708 0)
(1.48484 0.239894 0)
(1.48056 0.210413 0)
(1.47699 0.177548 0)
(1.4742 0.141682 0)
(1.54328 -0.587404 0)
(1.53986 -0.571968 0)
(1.537 -0.545308 0)
(1.53501 -0.505911 0)
(1.53393 -0.453008 0)
(1.53384 -0.386847 0)
(1.53478 -0.308699 0)
(1.53675 -0.220823 0)
(1.53967 -0.126439 0)
(1.54324 -0.0299193 0)
(1.54702 0.0641925 0)
(1.55063 0.152971 0)
(1.55367 0.234051 0)
(1.55577 0.305761 0)
(1.5566 0.367186 0)
(1.55593 0.418139 0)
(1.55359 0.459061 0)
(1.54947 0.490845 0)
(1.54355 0.514666 0)
(1.53585 0.531729 0)
(1.5263 0.543063 0)
(1.51484 0.549385 0)
(1.50183 0.55127 0)
(1.48762 0.549126 0)
(1.47266 0.542689 0)
(1.45745 0.531181 0)
(1.44246 0.513581 0)
(1.42815 0.488884 0)
(1.41491 0.456331 0)
(1.4031 0.415562 0)
(1.39304 0.366676 0)
(1.38499 0.310201 0)
(1.37918 0.247101 0)
(1.37575 0.17873 0)
(1.3748 0.106717 0)
(1.37621 0.0329096 0)
(1.37966 -0.0405273 0)
(1.38478 -0.111947 0)
(1.39122 -0.180051 0)
(1.39854 -0.243732 0)
(1.4063 -0.302152 0)
(1.41405 -0.354725 0)
(1.42139 -0.401087 0)
(1.42799 -0.441096 0)
(1.4336 -0.474786 0)
(1.43803 -0.502266 0)
(1.44117 -0.523689 0)
(1.44307 -0.539244 0)
(1.44394 -0.549042 0)
(1.444 -0.553361 0)
(1.44282 -0.553171 0)
(1.44004 -0.545234 0)
(1.43617 -0.529735 0)
(1.43186 -0.507326 0)
(1.4272 -0.477999 0)
(1.42232 -0.441848 0)
(1.41745 -0.399117 0)
(1.41278 -0.35023 0)
(1.4085 -0.29581 0)
(1.4048 -0.236692 0)
(1.4018 -0.173946 0)
(1.39959 -0.108875 0)
(1.39817 -0.0431414 0)
(1.39747 0.0215994 0)
(1.39733 0.0841193 0)
(1.39759 0.143277 0)
(1.39803 0.198089 0)
(1.39841 0.247776 0)
(1.39853 0.291781 0)
(1.39817 0.32977 0)
(1.39718 0.361607 0)
(1.39544 0.387326 0)
(1.39288 0.407069 0)
(1.38957 0.421052 0)
(1.38572 0.429593 0)
(1.38111 0.432969 0)
(1.37574 0.430492 0)
(1.36997 0.422008 0)
(1.36404 0.407679 0)
(1.35833 0.387667 0)
(1.35313 0.362167 0)
(1.34864 0.331457 0)
(1.34502 0.295952 0)
(1.34234 0.256223 0)
(1.3407 0.21298 0)
(1.34003 0.167052 0)
(1.34024 0.119392 0)
(1.34129 0.0709298 0)
(1.34349 0.0226232 0)
(1.34652 -0.0247647 0)
(1.35033 -0.0705479 0)
(1.35483 -0.114099 0)
(1.35991 -0.154852 0)
(1.36543 -0.19231 0)
(1.37126 -0.226065 0)
(1.37726 -0.255799 0)
(1.38331 -0.281278 0)
(1.3893 -0.302359 0)
(1.39515 -0.318963 0)
(1.40082 -0.331097 0)
(1.40619 -0.338866 0)
(1.41147 -0.3423 0)
(1.41689 -0.340519 0)
(1.42223 -0.333009 0)
(1.42769 -0.319879 0)
(1.43326 -0.301346 0)
(1.43896 -0.277688 0)
(1.44484 -0.249263 0)
(1.45093 -0.216515 0)
(1.45723 -0.179982 0)
(1.46372 -0.140296 0)
(1.47039 -0.0981926 0)
(1.47718 -0.0545173 0)
(1.48397 -0.0102979 0)
(1.49058 0.033396 0)
(1.4969 0.0758454 0)
(1.50278 0.116383 0)
(1.50808 0.154428 0)
(1.51267 0.189509 0)
(1.51641 0.221269 0)
(1.51923 0.249459 0)
(1.52107 0.273926 0)
(1.52193 0.294606 0)
(1.52181 0.311501 0)
(1.52079 0.32465 0)
(1.519 0.334134 0)
(1.51666 0.340096 0)
(1.51367 0.342682 0)
(1.50992 0.341336 0)
(1.50563 0.335726 0)
(1.50103 0.325783 0)
(1.49642 0.311595 0)
(1.49197 0.293238 0)
(1.48781 0.270789 0)
(1.48403 0.244392 0)
(1.48077 0.214259 0)
(1.4781 0.180666 0)
(1.47609 0.143988 0)
(1.52784 -0.581015 0)
(1.52063 -0.566325 0)
(1.51405 -0.540549 0)
(1.50848 -0.502215 0)
(1.5041 -0.450556 0)
(1.5011 -0.385768 0)
(1.49964 -0.309069 0)
(1.49979 -0.222645 0)
(1.50152 -0.129577 0)
(1.5046 -0.033926 0)
(1.50857 0.0597454 0)
(1.51301 0.148564 0)
(1.51747 0.23017 0)
(1.52149 0.302858 0)
(1.52463 0.365645 0)
(1.52654 0.418266 0)
(1.52693 0.461068 0)
(1.52562 0.494862 0)
(1.5225 0.520749 0)
(1.51753 0.539883 0)
(1.51075 0.553264 0)
(1.50214 0.561593 0)
(1.49176 0.565185 0)
(1.48013 0.564182 0)
(1.46762 0.558367 0)
(1.4547 0.546951 0)
(1.44181 0.528931 0)
(1.4294 0.503355 0)
(1.41785 0.469526 0)
(1.40753 0.427116 0)
(1.39878 0.376219 0)
(1.39185 0.317446 0)
(1.38697 0.251859 0)
(1.38429 0.180883 0)
(1.38385 0.106252 0)
(1.38556 0.0300671 0)
(1.38911 -0.045352 0)
(1.39415 -0.118364 0)
(1.4003 -0.187581 0)
(1.40712 -0.251869 0)
(1.41415 -0.310382 0)
(1.42093 -0.362571 0)
(1.4271 -0.408168 0)
(1.43234 -0.447108 0)
(1.43645 -0.479475 0)
(1.43932 -0.505475 0)
(1.44088 -0.525386 0)
(1.44108 -0.539501 0)
(1.44017 -0.548137 0)
(1.43827 -0.551679 0)
(1.43487 -0.549359 0)
(1.43007 -0.540227 0)
(1.42437 -0.52415 0)
(1.41823 -0.501261 0)
(1.41183 -0.471658 0)
(1.40535 -0.43546 0)
(1.399 -0.392924 0)
(1.39301 -0.344466 0)
(1.38759 -0.29069 0)
(1.38292 -0.232395 0)
(1.37915 -0.170599 0)
(1.37638 -0.106536 0)
(1.37462 -0.0417643 0)
(1.37377 0.022121 0)
(1.37371 0.0839651 0)
(1.37425 0.142676 0)
(1.37516 0.197297 0)
(1.37621 0.247057 0)
(1.37715 0.291378 0)
(1.37776 0.329899 0)
(1.37785 0.362451 0)
(1.37725 0.388992 0)
(1.3759 0.409573 0)
(1.3738 0.424335 0)
(1.37113 0.433564 0)
(1.36801 0.43764 0)
(1.36406 0.435956 0)
(1.35974 0.427839 0)
(1.3553 0.413445 0)
(1.35114 0.39302 0)
(1.34745 0.36684 0)
(1.34433 0.335275 0)
(1.34185 0.298831 0)
(1.34006 0.258126 0)
(1.33905 0.213927 0)
(1.33885 0.167117 0)
(1.33922 0.118522 0)
(1.34076 0.0690002 0)
(1.34314 0.0196511 0)
(1.34633 -0.0286605 0)
(1.35025 -0.0752487 0)
(1.35478 -0.11948 0)
(1.35979 -0.160769 0)
(1.36512 -0.198602 0)
(1.37063 -0.232566 0)
(1.37619 -0.262345 0)
(1.38167 -0.287728 0)
(1.38698 -0.308596 0)
(1.39204 -0.324914 0)
(1.39678 -0.336731 0)
(1.40113 -0.344214 0)
(1.40522 -0.347529 0)
(1.40944 -0.345818 0)
(1.41353 -0.338377 0)
(1.4177 -0.32534 0)
(1.42198 -0.306962 0)
(1.42644 -0.283518 0)
(1.43116 -0.255352 0)
(1.43618 -0.222892 0)
(1.44153 -0.186654 0)
(1.44721 -0.147251 0)
(1.45319 -0.105391 0)
(1.45942 -0.0618737 0)
(1.46582 -0.0176531 0)
(1.47221 0.0262013 0)
(1.47847 0.0689589 0)
(1.48446 0.109969 0)
(1.49005 0.14865 0)
(1.49508 0.18452 0)
(1.49943 0.217193 0)
(1.503 0.246384 0)
(1.50571 0.271874 0)
(1.50756 0.293602 0)
(1.50854 0.311516 0)
(1.50871 0.325582 0)
(1.50816 0.335848 0)
(1.50709 0.342416 0)
(1.50574 0.345509 0)
(1.50369 0.344948 0)
(1.50094 0.339815 0)
(1.49778 0.330052 0)
(1.49457 0.315831 0)
(1.49143 0.297309 0)
(1.48846 0.274589 0)
(1.48582 0.247775 0)
(1.4836 0.217068 0)
(1.48188 0.182809 0)
(1.48069 0.145444 0)
(1.47434 0.0548423 0)
(1.47939 0.143034 0)
(1.48499 0.224572 0)
(1.49064 0.29774 0)
(1.4958 0.361509 0)
(1.50004 0.415532 0)
(1.50298 0.460056 0)
(1.50432 0.495792 0)
(1.50388 0.523735 0)
(1.50159 0.54494 0)
(1.49748 0.560323 0)
(1.49168 0.570547 0)
(1.48421 0.575905 0)
(1.47534 0.576206 0)
(1.46548 0.571191 0)
(1.45498 0.560096 0)
(1.44434 0.541904 0)
(1.43401 0.515715 0)
(1.42439 0.480837 0)
(1.41582 0.436949 0)
(1.40861 0.384259 0)
(1.40302 0.323439 0)
(1.39924 0.255601 0)
(1.39743 0.182265 0)
(1.39761 0.105305 0)
(1.39968 0.0270091 0)
(1.40335 -0.0501414 0)
(1.40827 -0.124491 0)
(1.41406 -0.194575 0)
(1.42028 -0.259214 0)
(1.42647 -0.317567 0)
(1.43221 -0.369143 0)
(1.4371 -0.413762 0)
(1.44088 -0.451491 0)
(1.44336 -0.482552 0)
(1.44449 -0.507226 0)
(1.44431 -0.525768 0)
(1.4429 -0.53847 0)
(1.44046 -0.54571 0)
(1.43651 -0.547749 0)
(1.43115 -0.543686 0)
(1.4246 -0.533344 0)
(1.41723 -0.516562 0)
(1.40944 -0.493302 0)
(1.40149 -0.463568 0)
(1.3936 -0.427477 0)
(1.38599 -0.385291 0)
(1.37888 -0.337432 0)
(1.37249 -0.28449 0)
(1.367 -0.227232 0)
(1.3626 -0.166616 0)
(1.35937 -0.103806 0)
(1.35732 -0.0402343 0)
(1.35638 0.0225797 0)
(1.35641 0.0835398 0)
(1.3572 0.141613 0)
(1.35852 0.195869 0)
(1.36009 0.245546 0)
(1.36164 0.29006 0)
(1.36293 0.329033 0)
(1.36375 0.362236 0)
(1.36395 0.389584 0)
(1.3635 0.411003 0)
(1.36242 0.426526 0)
(1.36093 0.436288 0)
(1.35941 0.440662 0)
(1.3572 0.439817 0)
(1.3545 0.431936 0)
(1.35156 0.417307 0)
(1.34872 0.396473 0)
(1.34613 0.369822 0)
(1.3439 0.337728 0)
(1.34215 0.300692 0)
(1.34104 0.259345 0)
(1.34044 0.214428 0)
(1.34056 0.166763 0)
(1.3416 0.11717 0)
(1.34349 0.0666344 0)
(1.34618 0.0163784 0)
(1.34963 -0.0327413 0)
(1.35372 -0.080018 0)
(1.35833 -0.124793 0)
(1.3633 -0.166457 0)
(1.36847 -0.204499 0)
(1.3737 -0.238536 0)
(1.37886 -0.26827 0)
(1.38384 -0.29349 0)
(1.38853 -0.314086 0)
(1.39285 -0.330047 0)
(1.39671 -0.341435 0)
(1.40005 -0.348476 0)
(1.40297 -0.351531 0)
(1.40598 -0.349804 0)
(1.40887 -0.342317 0)
(1.41176 -0.32933 0)
(1.41473 -0.311134 0)
(1.41792 -0.287978 0)
(1.42145 -0.260184 0)
(1.4254 -0.228145 0)
(1.42979 -0.192338 0)
(1.43463 -0.153352 0)
(1.43991 -0.11187 0)
(1.44556 -0.0686596 0)
(1.45152 -0.0246133 0)
(1.45762 0.0192266 0)
(1.46373 0.0621213 0)
(1.46972 0.103417 0)
(1.47545 0.14254 0)
(1.48079 0.179005 0)
(1.4856 0.212412 0)
(1.48978 0.242438 0)
(1.49326 0.268831 0)
(1.49601 0.291458 0)
(1.49804 0.310208 0)
(1.4994 0.325063 0)
(1.50019 0.335965 0)
(1.50054 0.342917 0)
(1.50063 0.346222 0)
(1.50028 0.346674 0)
(1.49908 0.342514 0)
(1.49727 0.332805 0)
(1.49538 0.31867 0)
(1.49355 0.300079 0)
(1.49185 0.277083 0)
(1.4904 0.249864 0)
(1.48929 0.218691 0)
(1.48854 0.18393 0)
(1.4882 0.146045 0)
(-0.0507595 -0.0209604 0)
(-0.00253801 -0.0198814 0)
(0.0436655 -0.0185757 0)
(0.0876548 -0.0171503 0)
(0.129459 -0.0155428 0)
(0.167754 -0.0137859 0)
(0.202574 -0.012035 0)
(0.233688 -0.0103676 0)
(0.26098 -0.00883393 0)
(0.284478 -0.00747686 0)
(0.30432 -0.00631323 0)
(0.320748 -0.00533294 0)
(0.334089 -0.00451466 0)
(0.344734 -0.00384128 0)
(0.353115 -0.00331259 0)
(0.359665 -0.00294186 0)
(0.364801 -0.00274138 0)
(0.368879 -0.0027244 0)
(0.37215 -0.00290385 0)
(0.374902 -0.00321423 0)
(0.377458 -0.00360581 0)
(0.380001 -0.00404745 0)
(0.382599 -0.00449763 0)
(0.385276 -0.00486808 0)
(0.387887 -0.00504477 0)
(0.390041 -0.00492721 0)
(0.391242 -0.00408813 0)
(0.390714 -0.00212714 0)
(0.387571 0.000531875 0)
(0.380713 0.00363848 0)
(0.368895 0.00772034 0)
(0.350929 0.0124632 0)
(0.326056 0.0171854 0)
(0.294268 0.0213033 0)
(0.256353 0.0244069 0)
(0.213654 0.026283 0)
(0.168457 0.0269968 0)
(0.122646 0.0268301 0)
(0.0778087 0.0260615 0)
(0.0348902 0.024878 0)
(-0.00459404 0.0229748 0)
(-0.0394363 0.020472 0)
(-0.0688437 0.0174707 0)
(-0.09199 0.0139475 0)
(-0.107938 0.010241 0)
(-0.116801 0.0064855 0)
(-0.118595 0.00285568 0)
(-0.113859 -0.000435507 0)
(-0.103094 -0.00329923 0)
(-0.0867569 -0.00565041 0)
(-0.0660778 -0.00744389 0)
(-0.0418984 -0.00870853 0)
(-0.0149645 -0.00939038 0)
(0.0134634 -0.00963893 0)
(0.0422795 -0.00952577 0)
(0.0711643 -0.00914194 0)
(0.0993635 -0.00852944 0)
(0.126356 -0.00774923 0)
(0.151735 -0.00687388 0)
(0.175126 -0.00599114 0)
(0.196437 -0.00517194 0)
(0.21557 -0.00445491 0)
(0.232502 -0.00386026 0)
(0.247254 -0.00339553 0)
(0.259884 -0.00305827 0)
(0.270477 -0.00283511 0)
(0.279136 -0.00269625 0)
(0.286023 -0.00258148 0)
(0.291366 -0.00243646 0)
(0.2954 -0.00225552 0)
(0.298272 -0.00206622 0)
(0.300041 -0.00189474 0)
(0.300753 -0.00171473 0)
(0.300592 -0.00151133 0)
(0.299667 -0.00140944 0)
(0.298196 -0.00124876 0)
(0.296272 -0.00104788 0)
(0.293907 -0.000856682 0)
(0.291182 -0.000667401 0)
(0.288245 -0.0005043 0)
(0.285259 -0.000414494 0)
(0.28235 -0.000365258 0)
(0.279563 -0.000342665 0)
(0.276922 -0.00035336 0)
(0.274457 -0.000406404 0)
(0.272217 -0.0005027 0)
(0.270251 -0.000628228 0)
(0.268585 -0.00076874 0)
(0.267227 -0.000918025 0)
(0.266188 -0.00107329 0)
(0.265482 -0.00123667 0)
(0.265133 -0.00141883 0)
(0.265142 -0.00165352 0)
(0.265538 -0.00188758 0)
(0.266324 -0.00210773 0)
(0.267502 -0.00233136 0)
(0.269055 -0.00255013 0)
(0.270949 -0.00275369 0)
(0.273132 -0.00293029 0)
(0.275533 -0.00306785 0)
(0.278051 -0.00315228 0)
(0.280548 -0.00316246 0)
(0.282834 -0.0030703 0)
(0.284629 -0.0028385 0)
(0.285575 -0.00235739 0)
(0.285389 -0.00144359 0)
(0.283803 -0.0003074 0)
(0.280532 0.000978076 0)
(0.275261 0.00247865 0)
(0.267703 0.00416436 0)
(0.25762 0.005911 0)
(0.244847 0.00764832 0)
(0.229326 0.00931217 0)
(0.21115 0.0108353 0)
(0.19056 0.0121419 0)
(0.167964 0.0131705 0)
(0.14391 0.0138798 0)
(0.118978 0.0142671 0)
(0.0938602 0.0144024 0)
(0.0690428 0.0143013 0)
(0.0449223 0.0138972 0)
(0.0221078 0.0130189 0)
(0.00149263 0.0116676 0)
(-0.0159026 0.00988417 0)
(-0.0296724 0.00783929 0)
(-0.0392286 0.00558397 0)
(-0.0441942 0.00321308 0)
(-0.044508 0.00071735 0)
(-0.0407282 -0.00163173 0)
(-0.0329096 -0.00358792 0)
(-0.0213809 -0.00528569 0)
(-0.00664625 -0.00651304 0)
(0.0106258 -0.00749023 0)
(0.0295144 -0.00814094 0)
(0.0496312 -0.00850109 0)
(0.0703559 -0.0086061 0)
(0.0911449 -0.00850183 0)
(0.165954 -0.0878263 0)
(0.221013 -0.0852277 0)
(0.274985 -0.081664 0)
(0.327471 -0.0774177 0)
(0.378081 -0.0724279 0)
(0.426554 -0.0666663 0)
(0.472564 -0.0603537 0)
(0.515688 -0.0536816 0)
(0.555499 -0.0468104 0)
(0.591518 -0.0399157 0)
(0.623314 -0.0332139 0)
(0.650584 -0.0269542 0)
(0.673147 -0.0213611 0)
(0.69098 -0.0165947 0)
(0.70425 -0.0127164 0)
(0.71332 -0.0096785 0)
(0.718713 -0.00736008 0)
(0.721084 -0.00562688 0)
(0.720935 -0.00406803 0)
(0.718242 -0.00303745 0)
(0.713637 -0.00249417 0)
(0.707646 -0.0018813 0)
(0.700627 -0.00124101 0)
(0.692862 -0.000565829 0)
(0.684353 0.000439905 0)
(0.674707 0.00191722 0)
(0.663331 0.00422273 0)
(0.649181 0.00803337 0)
(0.631062 0.0136796 0)
(0.608106 0.0212028 0)
(0.579766 0.0303849 0)
(0.545867 0.0407948 0)
(0.506495 0.0517248 0)
(0.461984 0.0620148 0)
(0.413335 0.0702871 0)
(0.362417 0.0755337 0)
(0.311376 0.077434 0)
(0.262078 0.0762201 0)
(0.216087 0.0721719 0)
(0.175338 0.0658877 0)
(0.140724 0.0579141 0)
(0.112486 0.0486456 0)
(0.0909285 0.038341 0)
(0.0760133 0.027402 0)
(0.0677656 0.0159291 0)
(0.0663459 0.00416812 0)
(0.0714319 -0.00774305 0)
(0.0830696 -0.0189549 0)
(0.101132 -0.0288555 0)
(0.124897 -0.0372033 0)
(0.153521 -0.0438961 0)
(0.186066 -0.0489435 0)
(0.221643 -0.0522867 0)
(0.259447 -0.0540859 0)
(0.298629 -0.0545379 0)
(0.338431 -0.0538529 0)
(0.378215 -0.0522066 0)
(0.417521 -0.0497711 0)
(0.456004 -0.0467041 0)
(0.493353 -0.0431766 0)
(0.529282 -0.0393397 0)
(0.563472 -0.0352809 0)
(0.595631 -0.0310703 0)
(0.625491 -0.026781 0)
(0.652791 -0.0224813 0)
(0.677288 -0.018231 0)
(0.698778 -0.0141015 0)
(0.717161 -0.010376 0)
(0.732389 -0.00728472 0)
(0.744454 -0.00472273 0)
(0.753441 -0.00249549 0)
(0.759478 -0.000422303 0)
(0.762774 0.00147852 0)
(0.763774 0.00321975 0)
(0.762667 0.00480745 0)
(0.759723 0.00572886 0)
(0.755169 0.00659785 0)
(0.74926 0.00738894 0)
(0.742262 0.00780624 0)
(0.734408 0.00783316 0)
(0.726053 0.00757311 0)
(0.717542 0.00717717 0)
(0.709002 0.00672937 0)
(0.700466 0.00625874 0)
(0.691991 0.00576433 0)
(0.683664 0.00520892 0)
(0.675556 0.00461281 0)
(0.667691 0.00403295 0)
(0.660059 0.00346728 0)
(0.652649 0.0028948 0)
(0.645451 0.00231495 0)
(0.638462 0.00170786 0)
(0.631724 0.00104093 0)
(0.625288 0.000336639 0)
(0.619145 -0.000355849 0)
(0.613273 -0.00100127 0)
(0.607636 -0.00156707 0)
(0.60219 -0.00201603 0)
(0.59687 -0.00231073 0)
(0.591597 -0.00241557 0)
(0.586289 -0.00229307 0)
(0.580818 -0.00189231 0)
(0.574994 -0.00113612 0)
(0.568567 8.26988e-05 0)
(0.561273 0.00189871 0)
(0.552667 0.00432058 0)
(0.542274 0.00717622 0)
(0.529871 0.0104049 0)
(0.515349 0.0139837 0)
(0.498669 0.0179015 0)
(0.479818 0.0221215 0)
(0.458809 0.026535 0)
(0.435685 0.0309344 0)
(0.41059 0.0350234 0)
(0.38388 0.0384863 0)
(0.356056 0.0410535 0)
(0.327781 0.0425356 0)
(0.299812 0.0428523 0)
(0.272797 0.0420343 0)
(0.247733 0.0401835 0)
(0.225512 0.0373397 0)
(0.206745 0.0334708 0)
(0.191474 0.0285519 0)
(0.179842 0.0227432 0)
(0.172112 0.0162185 0)
(0.168511 0.00906172 0)
(0.169031 0.00153298 0)
(0.173747 -0.0061619 0)
(0.183166 -0.0135673 0)
(0.196892 -0.0202218 0)
(0.214476 -0.0259629 0)
(0.235418 -0.0305461 0)
(0.259125 -0.0340847 0)
(0.284882 -0.0365267 0)
(0.312027 -0.0378921 0)
(0.339931 -0.0382678 0)
(0.36801 -0.0377816 0)
(0.401501 -0.147438 0)
(0.447943 -0.1444 0)
(0.493473 -0.140129 0)
(0.537908 -0.134852 0)
(0.581111 -0.128616 0)
(0.623015 -0.121404 0)
(0.663508 -0.113253 0)
(0.702424 -0.104226 0)
(0.739528 -0.0943996 0)
(0.774661 -0.0838939 0)
(0.807606 -0.0728943 0)
(0.838077 -0.0615821 0)
(0.865655 -0.0501809 0)
(0.889845 -0.0389662 0)
(0.909998 -0.0283436 0)
(0.92556 -0.0188216 0)
(0.936164 -0.0108882 0)
(0.941959 -0.00448596 0)
(0.943423 0.00121592 0)
(0.940355 0.00630334 0)
(0.932753 0.00989029 0)
(0.920963 0.0119876 0)
(0.905832 0.0128892 0)
(0.888666 0.0133192 0)
(0.870421 0.0142816 0)
(0.851618 0.016926 0)
(0.832793 0.0221564 0)
(0.81412 0.0302771 0)
(0.794996 0.0412409 0)
(0.773998 0.054672 0)
(0.749183 0.0699255 0)
(0.719002 0.0862021 0)
(0.682806 0.102436 0)
(0.64113 0.116958 0)
(0.595871 0.127612 0)
(0.54985 0.132807 0)
(0.505191 0.132682 0)
(0.463143 0.127818 0)
(0.424679 0.118672 0)
(0.39027 0.106221 0)
(0.360239 0.091652 0)
(0.33468 0.0756132 0)
(0.313975 0.0585185 0)
(0.298462 0.0404732 0)
(0.288941 0.021628 0)
(0.285748 0.00220754 0)
(0.28946 -0.0173515 0)
(0.299912 -0.0357994 0)
(0.316442 -0.0524931 0)
(0.338281 -0.0668546 0)
(0.364536 -0.078562 0)
(0.394288 -0.0876182 0)
(0.42671 -0.094128 0)
(0.461055 -0.0982228 0)
(0.496607 -0.100147 0)
(0.532753 -0.100249 0)
(0.569046 -0.0988766 0)
(0.605136 -0.0963251 0)
(0.640813 -0.0928446 0)
(0.67592 -0.0886355 0)
(0.710337 -0.0838511 0)
(0.744038 -0.0785988 0)
(0.776981 -0.072946 0)
(0.809067 -0.0669294 0)
(0.840153 -0.0605868 0)
(0.870071 -0.0539687 0)
(0.89866 -0.0471626 0)
(0.925715 -0.0402685 0)
(0.950946 -0.0333502 0)
(0.974036 -0.0264519 0)
(0.994737 -0.0196514 0)
(1.01288 -0.0130543 0)
(1.02828 -0.00683895 0)
(1.04096 -0.00165058 0)
(1.05112 0.00232391 0)
(1.05863 0.00621482 0)
(1.06364 0.00966879 0)
(1.06653 0.0124109 0)
(1.06755 0.0147715 0)
(1.06668 0.016804 0)
(1.06403 0.0177128 0)
(1.0599 0.0181613 0)
(1.0545 0.0184583 0)
(1.04794 0.0186111 0)
(1.04028 0.0184904 0)
(1.03166 0.0181152 0)
(1.02235 0.0175959 0)
(1.01254 0.0169993 0)
(1.00226 0.0163723 0)
(0.99151 0.0157497 0)
(0.980321 0.0151277 0)
(0.968744 0.0144588 0)
(0.956836 0.0136897 0)
(0.944641 0.0128629 0)
(0.932156 0.012062 0)
(0.919363 0.0113176 0)
(0.90626 0.0106349 0)
(0.892852 0.0100432 0)
(0.879154 0.00957899 0)
(0.865193 0.00927598 0)
(0.851027 0.00919475 0)
(0.836705 0.00945862 0)
(0.822267 0.0102618 0)
(0.807744 0.0118539 0)
(0.793158 0.0144692 0)
(0.778436 0.0181867 0)
(0.763357 0.0229696 0)
(0.747646 0.0285722 0)
(0.731006 0.0346922 0)
(0.713093 0.0411129 0)
(0.693547 0.0476476 0)
(0.672107 0.0540803 0)
(0.648781 0.0601507 0)
(0.62386 0.0655205 0)
(0.597854 0.0697844 0)
(0.571457 0.072559 0)
(0.545419 0.0735896 0)
(0.520314 0.0727762 0)
(0.496678 0.0701019 0)
(0.474894 0.0656159 0)
(0.455216 0.0594886 0)
(0.437886 0.0519584 0)
(0.42318 0.0431972 0)
(0.411544 0.0333096 0)
(0.403389 0.0223033 0)
(0.399253 0.0103138 0)
(0.399459 -0.00238027 0)
(0.404206 -0.0150481 0)
(0.413452 -0.0272111 0)
(0.426864 -0.0384307 0)
(0.44394 -0.048266 0)
(0.464137 -0.0564243 0)
(0.486857 -0.0628025 0)
(0.511431 -0.0673638 0)
(0.537215 -0.0701456 0)
(0.563618 -0.071274 0)
(0.590097 -0.0709609 0)
(0.700246 -0.192259 0)
(0.733046 -0.187975 0)
(0.764579 -0.182329 0)
(0.79474 -0.175634 0)
(0.82355 -0.168033 0)
(0.851094 -0.159554 0)
(0.877514 -0.150197 0)
(0.902927 -0.139996 0)
(0.92742 -0.129032 0)
(0.951038 -0.117421 0)
(0.973776 -0.105284 0)
(0.995589 -0.0927397 0)
(1.01642 -0.0798626 0)
(1.03618 -0.0666721 0)
(1.05475 -0.0532159 0)
(1.07181 -0.0397035 0)
(1.08674 -0.0265986 0)
(1.09878 -0.014342 0)
(1.10746 -0.00301472 0)
(1.11274 0.00744746 0)
(1.11438 0.0175293 0)
(1.11155 0.0271139 0)
(1.10358 0.034789 0)
(1.08995 0.0396913 0)
(1.07066 0.0439927 0)
(1.04654 0.0471467 0)
(1.0194 0.0499208 0)
(0.991474 0.0541005 0)
(0.964506 0.0620642 0)
(0.939447 0.0755751 0)
(0.916279 0.0945363 0)
(0.893545 0.117151 0)
(0.868691 0.140568 0)
(0.839729 0.160908 0)
(0.807342 0.174172 0)
(0.773617 0.178949 0)
(0.74018 0.176481 0)
(0.707468 0.168525 0)
(0.676418 0.156218 0)
(0.648061 0.140501 0)
(0.623122 0.122326 0)
(0.601871 0.102096 0)
(0.584901 0.080099 0)
(0.572618 0.0561745 0)
(0.565669 0.0305279 0)
(0.564083 0.00362235 0)
(0.568513 -0.0232774 0)
(0.578776 -0.0487155 0)
(0.59391 -0.0716059 0)
(0.613055 -0.0911362 0)
(0.635223 -0.106831 0)
(0.659579 -0.118827 0)
(0.685363 -0.127426 0)
(0.711916 -0.132822 0)
(0.738676 -0.135363 0)
(0.765362 -0.135601 0)
(0.791834 -0.13409 0)
(0.817965 -0.131237 0)
(0.843669 -0.127355 0)
(0.868916 -0.122734 0)
(0.893749 -0.117583 0)
(0.918271 -0.112001 0)
(0.942599 -0.105993 0)
(0.966795 -0.0995406 0)
(0.990848 -0.0926504 0)
(1.01467 -0.0853711 0)
(1.03815 -0.0777631 0)
(1.06118 -0.0699082 0)
(1.08365 -0.0619029 0)
(1.10548 -0.0538311 0)
(1.1266 -0.0457388 0)
(1.14694 -0.0376596 0)
(1.16642 -0.0297183 0)
(1.18477 -0.0220854 0)
(1.20159 -0.0148194 0)
(1.21665 -0.00800499 0)
(1.22995 -0.00179106 0)
(1.24141 0.00370661 0)
(1.251 0.00851129 0)
(1.25876 0.0126348 0)
(1.26476 0.0157715 0)
(1.26881 0.0182859 0)
(1.27111 0.0203331 0)
(1.272 0.022194 0)
(1.27142 0.024047 0)
(1.26944 0.0252577 0)
(1.26619 0.0258125 0)
(1.26176 0.0262949 0)
(1.25626 0.0267829 0)
(1.24978 0.0272027 0)
(1.24229 0.0274798 0)
(1.23377 0.0276234 0)
(1.22426 0.0276636 0)
(1.21393 0.0276353 0)
(1.20281 0.0275919 0)
(1.19079 0.0275879 0)
(1.17782 0.02767 0)
(1.16391 0.027876 0)
(1.14904 0.0282351 0)
(1.13319 0.0287712 0)
(1.11631 0.0295179 0)
(1.09835 0.0305551 0)
(1.07931 0.0319773 0)
(1.05923 0.0338872 0)
(1.03828 0.0363954 0)
(1.01679 0.0395785 0)
(0.995194 0.0434922 0)
(0.97393 0.048195 0)
(0.953107 0.0538331 0)
(0.932694 0.0605754 0)
(0.912525 0.06838 0)
(0.892256 0.0768367 0)
(0.871549 0.0851862 0)
(0.850207 0.0924877 0)
(0.828314 0.0978532 0)
(0.806166 0.100725 0)
(0.784202 0.100974 0)
(0.762917 0.0987417 0)
(0.74277 0.0942475 0)
(0.724146 0.0877252 0)
(0.707414 0.0794286 0)
(0.69292 0.0694933 0)
(0.68106 0.0578796 0)
(0.672244 0.0444755 0)
(0.666861 0.0293957 0)
(0.665058 0.0129375 0)
(0.667008 -0.00455142 0)
(0.673031 -0.0222267 0)
(0.682834 -0.0391661 0)
(0.695902 -0.0546172 0)
(0.711739 -0.0680108 0)
(0.729808 -0.0790073 0)
(0.749582 -0.087473 0)
(0.77059 -0.0933898 0)
(0.792357 -0.0968271 0)
(0.814351 -0.0979966 0)
(0.836128 -0.0972559 0)
(1.02087 -0.222024 0)
(1.04009 -0.216315 0)
(1.05822 -0.209074 0)
(1.07495 -0.200718 0)
(1.09015 -0.191509 0)
(1.10386 -0.181582 0)
(1.11623 -0.170989 0)
(1.12744 -0.159756 0)
(1.13775 -0.147929 0)
(1.14737 -0.135574 0)
(1.15651 -0.122752 0)
(1.16532 -0.109536 0)
(1.17394 -0.0960261 0)
(1.18244 -0.0823304 0)
(1.1909 -0.0685394 0)
(1.19935 -0.0547376 0)
(1.20775 -0.0409942 0)
(1.21585 -0.0273546 0)
(1.22322 -0.013844 0)
(1.22934 -0.000612869 0)
(1.23383 0.0121908 0)
(1.23659 0.0245868 0)
(1.23739 0.0367776 0)
(1.23518 0.0488781 0)
(1.22901 0.0606774 0)
(1.21823 0.0718216 0)
(1.20194 0.0817214 0)
(1.17971 0.0905334 0)
(1.15264 0.0989261 0)
(1.12364 0.108331 0)
(1.0968 0.120743 0)
(1.07395 0.138442 0)
(1.05534 0.161292 0)
(1.03986 0.18481 0)
(1.02565 0.20279 0)
(1.00963 0.209942 0)
(0.992562 0.209602 0)
(0.973636 0.202836 0)
(0.953305 0.188232 0)
(0.933883 0.168058 0)
(0.917202 0.144798 0)
(0.9043 0.119354 0)
(0.895833 0.0919222 0)
(0.892063 0.0625647 0)
(0.892868 0.0314142 0)
(0.898013 -0.000969232 0)
(0.907421 -0.0330489 0)
(0.920247 -0.0630273 0)
(0.935392 -0.089614 0)
(0.952134 -0.11195 0)
(0.969758 -0.129525 0)
(0.98796 -0.142769 0)
(1.00603 -0.151926 0)
(1.02336 -0.157243 0)
(1.03969 -0.159347 0)
(1.05508 -0.159069 0)
(1.06972 -0.156928 0)
(1.08364 -0.153388 0)
(1.09681 -0.148827 0)
(1.10923 -0.143532 0)
(1.12106 -0.137893 0)
(1.13243 -0.13214 0)
(1.14356 -0.12628 0)
(1.15468 -0.120145 0)
(1.16597 -0.113615 0)
(1.17759 -0.106518 0)
(1.18964 -0.0990185 0)
(1.20219 -0.0912422 0)
(1.21523 -0.0832408 0)
(1.22873 -0.0750508 0)
(1.24261 -0.0667174 0)
(1.25678 -0.0582904 0)
(1.27114 -0.0498514 0)
(1.28554 -0.0415725 0)
(1.29981 -0.0335634 0)