/*--------------------------------*- C++ -*----------------------------------*\
| =========                 |                                                 |
| \\      /  F ield         | OpenFOAM: The Open Source CFD Toolbox           |
|  \\    /   O peration     | Version:  2206                                  |
|   \\  /    A nd           | Website:  www.openfoam.com                      |
|    \\/     M anipulation  |                                                 |
\*---------------------------------------------------------------------------*/
FoamFile
{
    version     2.0;
    format      ascii;
    arch        "LSB;label=32;scalar=64";
    class       volVectorField;
    location    "18.5001";
    object      U;
}
// * * * * * * * * * * * * * * * * * * * * * * * * * * * * * * * * * * * * * //

dimensions      [0 1 -1 0 0 0 0];

internalField   nonuniform List<vector> 
4830
(
(1.47761 -8.84141e-05 0)
(1.47764 -0.000265101 0)
(1.47771 -0.000441523 0)
(1.47782 -0.000617392 0)
(1.47797 -0.000792488 0)
(1.47815 -0.000966646 0)
(1.47837 -0.00113971 0)
(1.47862 -0.00131149 0)
(1.4789 -0.0014818 0)
(1.47922 -0.00165045 0)
(1.47957 -0.0018172 0)
(1.47994 -0.00198183 0)
(1.48035 -0.00214409 0)
(1.48078 -0.00230371 0)
(1.48123 -0.0024604 0)
(1.48172 -0.00261385 0)
(1.48222 -0.00276373 0)
(1.48274 -0.00290965 0)
(1.48329 -0.00305124 0)
(1.48385 -0.00318806 0)
(1.48442 -0.00331965 0)
(1.48501 -0.00344554 0)
(1.48562 -0.00356519 0)
(1.48623 -0.00367809 0)
(1.48686 -0.00378366 0)
(1.48749 -0.00388131 0)
(1.48813 -0.00397046 0)
(1.48878 -0.0040505 0)
(1.48943 -0.0041208 0)
(1.49008 -0.00418078 0)
(1.49073 -0.00422984 0)
(1.49138 -0.00426733 0)
(1.49203 -0.00429263 0)
(1.49267 -0.00430519 0)
(1.49331 -0.00430445 0)
(1.49394 -0.00428992 0)
(1.49456 -0.00426112 0)
(1.49516 -0.00421761 0)
(1.49576 -0.00415901 0)
(1.49634 -0.00408498 0)
(1.49691 -0.0039952 0)
(1.49746 -0.00388946 0)
(1.49799 -0.00376746 0)
(1.49849 -0.00362915 0)
(1.49898 -0.00347413 0)
(1.49944 -0.0033026 0)
(1.49987 -0.00311392 0)
(1.50027 -0.00290859 0)
(1.50065 -0.00268568 0)
(1.50099 -0.00244583 0)
(1.50129 -0.00218816 0)
(1.50156 -0.00191281 0)
(1.50179 -0.00161985 0)
(1.50197 -0.00130805 0)
(1.50211 -0.000978252 0)
(1.5022 -0.000628346 0)
(1.50224 -0.000257903 0)
(1.50223 0.000134061 0)
(1.50216 0.000548648 0)
(1.50202 0.000987113 0)
(1.50182 0.00145096 0)
(1.50155 0.00194199 0)
(1.50121 0.00246229 0)
(1.50079 0.00301426 0)
(1.50028 0.00360065 0)
(1.49969 0.00422457 0)
(1.49899 0.00488955 0)
(1.4982 0.00559961 0)
(1.4973 0.00635927 0)
(1.49627 0.00717362 0)
(1.49512 0.00804844 0)
(1.49384 0.0089902 0)
(1.49241 0.0100062 0)
(1.49082 0.0111047 0)
(1.48906 0.012295 0)
(1.48712 0.0135874 0)
(1.48498 0.0149939 0)
(1.48262 0.0165277 0)
(1.48004 0.0182041 0)
(1.4772 0.0200401 0)
(1.47409 0.0220555 0)
(1.47067 0.0242724 0)
(1.46694 0.0267166 0)
(1.46285 0.0294173 0)
(1.45837 0.0324085 0)
(1.45347 0.0357292 0)
(1.4481 0.0394251 0)
(1.44222 0.0435492 0)
(1.43579 0.0481636 0)
(1.42875 0.0533414 0)
(1.42103 0.0591691 0)
(1.41257 0.0657492 0)
(1.40329 0.0732042 0)
(1.39312 0.0816812 0)
(1.38196 0.0913576 0)
(1.36971 0.102449 0)
(1.35627 0.115217 0)
(1.34152 0.129986 0)
(1.32535 0.147157 0)
(1.30764 0.167228 0)
(1.28827 0.19083 0)
(1.26714 0.218766 0)
(1.24419 0.252071 0)
(1.21939 0.292114 0)
(1.19287 0.340717 0)
(1.16468 0.400485 0)
(1.13631 0.47495 0)
(1.10587 0.570352 0)
(1.09029 0.693452 0)
(1.05221 0.867716 0)
(1.20041 1.08286 0)
(1.09887 1.54638 0)
(1.47761 -0.000109428 0)
(1.47764 -0.000328102 0)
(1.47771 -0.000546261 0)
(1.47783 -0.000763428 0)
(1.47798 -0.000979206 0)
(1.47817 -0.00119327 0)
(1.47839 -0.00140532 0)
(1.47865 -0.00161504 0)
(1.47894 -0.0018221 0)
(1.47926 -0.0020262 0)
(1.47962 -0.00222701 0)
(1.48001 -0.00242421 0)
(1.48042 -0.00261749 0)
(1.48086 -0.00280651 0)
(1.48133 -0.00299094 0)
(1.48182 -0.00317043 0)
(1.48234 -0.0033446 0)
(1.48287 -0.00351308 0)
(1.48343 -0.00367544 0)
(1.484 -0.00383125 0)
(1.48459 -0.00398006 0)
(1.48519 -0.00412136 0)
(1.48581 -0.00425466 0)
(1.48643 -0.00437941 0)
(1.48707 -0.00449505 0)
(1.48772 -0.004601 0)
(1.48837 -0.00469668 0)
(1.48903 -0.00478148 0)
(1.48969 -0.00485477 0)
(1.49035 -0.00491599 0)
(1.49101 -0.00496451 0)
(1.49168 -0.00499969 0)
(1.49233 -0.00502092 0)
(1.49299 -0.00502762 0)
(1.49364 -0.00501925 0)
(1.49428 -0.00499528 0)
(1.49491 -0.00495522 0)
(1.49553 -0.00489864 0)
(1.49614 -0.00482512 0)
(1.49673 -0.00473429 0)
(1.49731 -0.00462585 0)
(1.49787 -0.00449946 0)
(1.49842 -0.00435492 0)
(1.49894 -0.00419195 0)
(1.49944 -0.00401037 0)
(1.49991 -0.00380996 0)
(1.50036 -0.00359053 0)
(1.50078 -0.00335184 0)
(1.50117 -0.00309376 0)
(1.50152 -0.00281578 0)
(1.50185 -0.00251819 0)
(1.50213 -0.0021998 0)
(1.50238 -0.00186117 0)
(1.50259 -0.0015016 0)
(1.50275 -0.00111943 0)
(1.50286 -0.000714522 0)
(1.50293 -0.000285812 0)
(1.50294 0.000167937 0)
(1.5029 0.000648116 0)
(1.5028 0.0011563 0)
(1.50263 0.00169432 0)
(1.5024 0.00226428 0)
(1.5021 0.00286861 0)
(1.50172 0.00351009 0)
(1.50126 0.00419187 0)
(1.50072 0.00491755 0)
(1.50008 0.0056912 0)
(1.49935 0.00651741 0)
(1.49851 0.00740137 0)
(1.49756 0.0083489 0)
(1.49649 0.00936656 0)
(1.4953 0.0104617 0)
(1.49397 0.0116426 0)
(1.49249 0.0129186 0)
(1.49085 0.0143001 0)
(1.48904 0.0157988 0)
(1.48705 0.0174281 0)
(1.48486 0.0192029 0)
(1.48245 0.0211401 0)
(1.47982 0.0232588 0)
(1.47693 0.0255808 0)
(1.47378 0.0281309 0)
(1.47033 0.0309372 0)
(1.46656 0.0340321 0)
(1.46245 0.0374526 0)
(1.45797 0.0412416 0)
(1.45308 0.0454484 0)
(1.44774 0.0501303 0)
(1.44193 0.055354 0)
(1.4356 0.0611976 0)
(1.4287 0.0677527 0)
(1.4212 0.0751273 0)
(1.41303 0.0834491 0)
(1.40415 0.0928704 0)
(1.3945 0.103573 0)
(1.38405 0.115775 0)
(1.37273 0.12974 0)
(1.36051 0.145787 0)
(1.34738 0.164307 0)
(1.33333 0.18578 0)
(1.31842 0.2108 0)
(1.30276 0.240106 0)
(1.28659 0.274634 0)
(1.2703 0.315578 0)
(1.2547 0.36448 0)
(1.24074 0.423385 0)
(1.23168 0.494964 0)
(1.22837 0.582977 0)
(1.24776 0.691013 0)
(1.27597 0.826721 0)
(1.38185 0.96647 0)
(1.51626 1.2421 0)
(1.47761 -0.0001311 0)
(1.47764 -0.00039306 0)
(1.47772 -0.000654242 0)
(1.47783 -0.00091395 0)
(1.47799 -0.0011716 0)
(1.47818 -0.00142672 0)
(1.47842 -0.00167882 0)
(1.47868 -0.00192745 0)
(1.47898 -0.00217216 0)
(1.47932 -0.00241251 0)
(1.47968 -0.0026481 0)
(1.48008 -0.0028785 0)
(1.48051 -0.00310335 0)
(1.48096 -0.00332223 0)
(1.48144 -0.00353479 0)
(1.48195 -0.00374063 0)
(1.48247 -0.00393936 0)
(1.48302 -0.00413057 0)
(1.48359 -0.00431386 0)
(1.48418 -0.00448877 0)
(1.48478 -0.00465485 0)
(1.4854 -0.00481162 0)
(1.48603 -0.00495856 0)
(1.48667 -0.00509516 0)
(1.48732 -0.00522086 0)
(1.48798 -0.00533509 0)
(1.48865 -0.00543727 0)
(1.48932 -0.0055268 0)
(1.48999 -0.00560307 0)
(1.49067 -0.00566551 0)
(1.49134 -0.0057135 0)
(1.49202 -0.00574638 0)
(1.49269 -0.00576357 0)
(1.49336 -0.00576447 0)
(1.49402 -0.00574853 0)
(1.49468 -0.00571523 0)
(1.49532 -0.00566407 0)
(1.49596 -0.00559458 0)
(1.49658 -0.00550635 0)
(1.49719 -0.00539898 0)
(1.49778 -0.00527214 0)
(1.49836 -0.00512548 0)
(1.49892 -0.00495877 0)
(1.49946 -0.00477164 0)
(1.49997 -0.00456401 0)
(1.50046 -0.00433536 0)
(1.50093 -0.00408584 0)
(1.50137 -0.00381463 0)
(1.50178 -0.00352216 0)
(1.50215 -0.0032073 0)
(1.5025 -0.00287042 0)
(1.5028 -0.00251073 0)
(1.50308 -0.00212765 0)
(1.50331 -0.0017207 0)
(1.50349 -0.0012888 0)
(1.50364 -0.000830996 0)
(1.50373 -0.000346081 0)
(1.50378 0.000167292 0)
(1.50377 0.000710665 0)
(1.5037 0.00128582 0)
(1.50358 0.00189485 0)
(1.50339 0.00254018 0)
(1.50313 0.00322457 0)
(1.5028 0.00395114 0)
(1.5024 0.00472346 0)
(1.50191 0.00554554 0)
(1.50134 0.00642193 0)
(1.50068 0.00735773 0)
(1.49992 0.00835868 0)
(1.49905 0.00943123 0)
(1.49808 0.0105826 0)
(1.49698 0.0118209 0)
(1.49576 0.0131553 0)
(1.4944 0.0145959 0)
(1.4929 0.0161542 0)
(1.49124 0.0178429 0)
(1.48941 0.0196766 0)
(1.48741 0.0216715 0)
(1.48521 0.0238459 0)
(1.4828 0.0262203 0)
(1.48017 0.0288183 0)
(1.4773 0.0316664 0)
(1.47417 0.0347946 0)
(1.47076 0.0382373 0)
(1.46706 0.0420337 0)
(1.46303 0.0462288 0)
(1.45866 0.0508744 0)
(1.45391 0.0560299 0)
(1.44877 0.0617644 0)
(1.44321 0.0681579 0)
(1.43719 0.0753034 0)
(1.4307 0.08331 0)
(1.4237 0.0923053 0)
(1.41618 0.102439 0)
(1.40812 0.113889 0)
(1.39951 0.126866 0)
(1.39036 0.141617 0)
(1.38069 0.158442 0)
(1.37058 0.177696 0)
(1.36013 0.199805 0)
(1.34951 0.225283 0)
(1.33901 0.254745 0)
(1.32906 0.288934 0)
(1.32032 0.328731 0)
(1.31386 0.375185 0)
(1.31112 0.429447 0)
(1.31481 0.492824 0)
(1.32759 0.566122 0)
(1.3559 0.649522 0)
(1.40452 0.744313 0)
(1.47107 0.821313 0)
(1.61547 0.954778 0)
(1.47761 -0.000153545 0)
(1.47764 -0.000460325 0)
(1.47772 -0.000766039 0)
(1.47784 -0.00106976 0)
(1.47801 -0.00137069 0)
(1.47821 -0.00166816 0)
(1.47845 -0.00196156 0)
(1.47872 -0.00225024 0)
(1.47903 -0.00253363 0)
(1.47938 -0.00281117 0)
(1.47976 -0.00308235 0)
(1.48017 -0.00334668 0)
(1.48061 -0.0036037 0)
(1.48108 -0.00385297 0)
(1.48157 -0.00409408 0)
(1.48209 -0.00432662 0)
(1.48263 -0.00455018 0)
(1.4832 -0.00476435 0)
(1.48378 -0.00496871 0)
(1.48438 -0.00516283 0)
(1.485 -0.00534626 0)
(1.48563 -0.00551853 0)
(1.48628 -0.00567914 0)
(1.48694 -0.00582758 0)
(1.48761 -0.00596332 0)
(1.48828 -0.0060858 0)
(1.48896 -0.00619446 0)
(1.48965 -0.0062887 0)
(1.49034 -0.00636793 0)
(1.49103 -0.00643159 0)
(1.49172 -0.00647906 0)
(1.49242 -0.00650969 0)
(1.4931 -0.00652288 0)
(1.49379 -0.00651805 0)
(1.49447 -0.00649465 0)
(1.49514 -0.00645214 0)
(1.4958 -0.00639003 0)
(1.49645 -0.00630784 0)
(1.49709 -0.00620513 0)
(1.49772 -0.0060815 0)
(1.49833 -0.0059366 0)
(1.49892 -0.00577006 0)
(1.4995 -0.00558161 0)
(1.50005 -0.00537089 0)
(1.50059 -0.00513771 0)
(1.5011 -0.00488164 0)
(1.50158 -0.00460257 0)
(1.50204 -0.00430002 0)
(1.50247 -0.00397374 0)
(1.50287 -0.0036234 0)
(1.50324 -0.00324837 0)
(1.50357 -0.00284831 0)
(1.50387 -0.00242265 0)
(1.50413 -0.00197014 0)
(1.50435 -0.00149003 0)
(1.50452 -0.000981265 0)
(1.50465 -0.000442506 0)
(1.50473 0.000127794 0)
(1.50476 0.000731376 0)
(1.50473 0.00137029 0)
(1.50465 0.00204684 0)
(1.50451 0.00276369 0)
(1.5043 0.00352386 0)
(1.50403 0.00433077 0)
(1.50368 0.00518833 0)
(1.50326 0.00610092 0)
(1.50276 0.00707348 0)
(1.50218 0.00811155 0)
(1.5015 0.00922135 0)
(1.50073 0.0104099 0)
(1.49985 0.0116849 0)
(1.49887 0.0130551 0)
(1.49777 0.0145303 0)
(1.49655 0.0161214 0)
(1.49519 0.0178407 0)
(1.4937 0.0197016 0)
(1.49205 0.0217197 0)
(1.49025 0.0239121 0)
(1.48827 0.0262981 0)
(1.48611 0.0288994 0)
(1.48376 0.0317404 0)
(1.48119 0.034849 0)
(1.47841 0.0382562 0)
(1.47539 0.0419977 0)
(1.47212 0.0461137 0)
(1.46858 0.0506501 0)
(1.46475 0.0556595 0)
(1.46063 0.0612018 0)
(1.45619 0.067346 0)
(1.45143 0.0741715 0)
(1.44633 0.0817698 0)
(1.44088 0.0902465 0)
(1.43508 0.0997245 0)
(1.42894 0.110346 0)
(1.42246 0.122276 0)
(1.41568 0.135709 0)
(1.40866 0.150868 0)
(1.40147 0.168015 0)
(1.39423 0.187457 0)
(1.38713 0.209546 0)
(1.38043 0.23469 0)
(1.3745 0.263355 0)
(1.36987 0.296063 0)
(1.36728 0.333373 0)
(1.36777 0.375859 0)
(1.37275 0.423985 0)
(1.3841 0.478046 0)
(1.40444 0.53781 0)
(1.43582 0.601409 0)
(1.48622 0.670732 0)
(1.54831 0.726206 0)
(1.6486 0.801742 0)
(1.47761 -0.000176887 0)
(1.47764 -0.000530277 0)
(1.47773 -0.000882282 0)
(1.47785 -0.00123171 0)
(1.47802 -0.00157754 0)
(1.47823 -0.00191891 0)
(1.47848 -0.00225501 0)
(1.47877 -0.00258505 0)
(1.47909 -0.0029083 0)
(1.47945 -0.00322408 0)
(1.47984 -0.00353177 0)
(1.48027 -0.00383081 0)
(1.48072 -0.00412069 0)
(1.48121 -0.00440092 0)
(1.48172 -0.00467105 0)
(1.48226 -0.00493067 0)
(1.48282 -0.00517935 0)
(1.4834 -0.00541669 0)
(1.484 -0.00564229 0)
(1.48462 -0.00585572 0)
(1.48525 -0.00605656 0)
(1.48591 -0.00624436 0)
(1.48657 -0.00641864 0)
(1.48725 -0.00657892 0)
(1.48793 -0.00672468 0)
(1.48862 -0.00685539 0)
(1.48932 -0.00697049 0)
(1.49003 -0.00706943 0)
(1.49074 -0.00715161 0)
(1.49145 -0.0072165 0)
(1.49216 -0.00726346 0)
(1.49287 -0.00729187 0)
(1.49357 -0.00730112 0)
(1.49427 -0.00729065 0)
(1.49497 -0.0072599 0)
(1.49566 -0.00720834 0)
(1.49634 -0.00713545 0)
(1.49701 -0.00704077 0)
(1.49767 -0.00692385 0)
(1.49831 -0.00678428 0)
(1.49894 -0.00662167 0)
(1.49956 -0.00643569 0)
(1.50015 -0.00622596 0)
(1.50073 -0.00599223 0)
(1.50129 -0.00573409 0)
(1.50182 -0.00545137 0)
(1.50233 -0.00514355 0)
(1.50281 -0.00481054 0)
(1.50326 -0.00445164 0)
(1.50369 -0.00406669 0)
(1.50408 -0.00365502 0)
(1.50444 -0.00321615 0)
(1.50477 -0.00274896 0)
(1.50506 -0.00225288 0)
(1.5053 -0.00172681 0)
(1.50551 -0.00116944 0)
(1.50568 -0.000579305 0)
(1.5058 4.52188e-05 0)
(1.50587 0.000705997 0)
(1.50589 0.00140524 0)
(1.50585 0.00214548 0)
(1.50576 0.00292957 0)
(1.50561 0.00376079 0)
(1.5054 0.00464282 0)
(1.50512 0.00557984 0)
(1.50477 0.00657652 0)
(1.50435 0.00763814 0)
(1.50384 0.00877059 0)
(1.50326 0.00998048 0)
(1.50259 0.0112752 0)
(1.50182 0.012663 0)
(1.50096 0.014153 0)
(1.49999 0.0157556 0)
(1.49891 0.0174822 0)
(1.49772 0.0193455 0)
(1.4964 0.0213598 0)
(1.49495 0.0235411 0)
(1.49335 0.0259071 0)
(1.49162 0.0284778 0)
(1.48972 0.0312755 0)
(1.48766 0.0343254 0)
(1.48542 0.0376555 0)
(1.483 0.0412976 0)
(1.48038 0.0452874 0)
(1.47756 0.0496655 0)
(1.47452 0.0544774 0)
(1.47127 0.0597751 0)
(1.46779 0.0656175 0)
(1.46408 0.0720715 0)
(1.46013 0.0792135 0)
(1.45595 0.0871307 0)
(1.45155 0.0959226 0)
(1.44694 0.105703 0)
(1.44215 0.116602 0)
(1.43722 0.128768 0)
(1.43221 0.142371 0)
(1.4272 0.157605 0)
(1.42231 0.174688 0)
(1.41771 0.193868 0)
(1.41362 0.215418 0)
(1.41035 0.23964 0)
(1.40829 0.266854 0)
(1.40799 0.297383 0)
(1.41016 0.33153 0)
(1.41573 0.369525 0)
(1.42588 0.411451 0)
(1.44203 0.457089 0)
(1.4662 0.505992 0)
(1.49976 0.556121 0)
(1.54685 0.607861 0)
(1.6071 0.651954 0)
(1.68037 0.692 0)
(1.47761 -0.000201272 0)
(1.47765 -0.000603339 0)
(1.47773 -0.00100366 0)
(1.47787 -0.00140076 0)
(1.47804 -0.00179335 0)
(1.47826 -0.00218037 0)
(1.47852 -0.00256079 0)
(1.47882 -0.00293366 0)
(1.47916 -0.00329809 0)
(1.47953 -0.00365327 0)
(1.47994 -0.0039985 0)
(1.48038 -0.00433313 0)
(1.48085 -0.0046566 0)
(1.48136 -0.00496838 0)
(1.48189 -0.00526803 0)
(1.48244 -0.0055551 0)
(1.48302 -0.00582919 0)
(1.48362 -0.00608993 0)
(1.48425 -0.00633691 0)
(1.48489 -0.00656975 0)
(1.48554 -0.00678805 0)
(1.48621 -0.00699139 0)
(1.4869 -0.00717934 0)
(1.48759 -0.00735143 0)
(1.4883 -0.00750718 0)
(1.48901 -0.00764608 0)
(1.48973 -0.00776761 0)
(1.49045 -0.00787121 0)
(1.49118 -0.00795634 0)
(1.49191 -0.00802247 0)
(1.49264 -0.00806894 0)
(1.49337 -0.00809517 0)
(1.4941 -0.00810056 0)
(1.49482 -0.00808454 0)
(1.49554 -0.00804657 0)
(1.49625 -0.00798611 0)
(1.49695 -0.00790265 0)
(1.49764 -0.00779572 0)
(1.49832 -0.00766487 0)
(1.49898 -0.00750968 0)
(1.49963 -0.00732976 0)
(1.50027 -0.00712476 0)
(1.50089 -0.0068943 0)
(1.50149 -0.00663809 0)
(1.50207 -0.00635575 0)
(1.50262 -0.00604701 0)
(1.50315 -0.00571147 0)
(1.50366 -0.00534874 0)
(1.50414 -0.00495848 0)
(1.50459 -0.00454007 0)
(1.50502 -0.00409313 0)
(1.50541 -0.00361665 0)
(1.50576 -0.00311007 0)
(1.50609 -0.00257235 0)
(1.50637 -0.00200231 0)
(1.50661 -0.00139865 0)
(1.50682 -0.000759856 0)
(1.50698 -8.41777e-05 0)
(1.50709 0.000630456 0)
(1.50716 0.00138637 0)
(1.50718 0.00218624 0)
(1.50714 0.0030331 0)
(1.50705 0.00393038 0)
(1.5069 0.00488199 0)
(1.5067 0.00589231 0)
(1.50642 0.00696627 0)
(1.50608 0.00810939 0)
(1.50567 0.00932785 0)
(1.50518 0.0106285 0)
(1.50462 0.0120192 0)
(1.50397 0.0135083 0)
(1.50323 0.0151054 0)
(1.5024 0.0168212 0)
(1.50148 0.0186674 0)
(1.50045 0.0206572 0)
(1.49932 0.0228052 0)
(1.49807 0.0251276 0)
(1.4967 0.0276427 0)
(1.49521 0.0303705 0)
(1.49359 0.0333336 0)
(1.49183 0.0365572 0)
(1.48993 0.0400694 0)
(1.48788 0.0439018 0)
(1.48568 0.0480896 0)
(1.48332 0.0526725 0)
(1.4808 0.057695 0)
(1.47813 0.0632072 0)
(1.47529 0.0692654 0)
(1.4723 0.0759331 0)
(1.46916 0.083282 0)
(1.4659 0.0913926 0)
(1.46252 0.100356 0)
(1.45907 0.110274 0)
(1.45558 0.121263 0)
(1.45211 0.13345 0)
(1.44876 0.14698 0)
(1.44561 0.162012 0)
(1.44282 0.17872 0)
(1.44056 0.197292 0)
(1.43909 0.217928 0)
(1.43871 0.240832 0)
(1.43982 0.266198 0)
(1.44292 0.294197 0)
(1.44866 0.324943 0)
(1.4578 0.358447 0)
(1.47132 0.394567 0)
(1.49029 0.432867 0)
(1.51605 0.47269 0)
(1.54967 0.512414 0)
(1.59245 0.550697 0)
(1.64526 0.583432 0)
(1.70521 0.607489 0)
(1.47761 -0.000226857 0)
(1.47765 -0.000679984 0)
(1.47774 -0.00113097 0)
(1.47788 -0.00157798 0)
(1.47806 -0.00201947 0)
(1.47829 -0.00245412 0)
(1.47857 -0.00288069 0)
(1.47888 -0.00329803 0)
(1.47923 -0.00370511 0)
(1.47962 -0.00410098 0)
(1.48005 -0.00448485 0)
(1.48051 -0.00485601 0)
(1.481 -0.00521384 0)
(1.48153 -0.00555781 0)
(1.48208 -0.00588746 0)
(1.48266 -0.00620237 0)
(1.48326 -0.00650216 0)
(1.48388 -0.00678647 0)
(1.48452 -0.00705496 0)
(1.48519 -0.00730728 0)
(1.48587 -0.00754307 0)
(1.48656 -0.00776195 0)
(1.48726 -0.00796353 0)
(1.48798 -0.00814739 0)
(1.48871 -0.00831308 0)
(1.48944 -0.00846012 0)
(1.49019 -0.00858803 0)
(1.49093 -0.00869628 0)
(1.49168 -0.00878435 0)
(1.49243 -0.00885171 0)
(1.49318 -0.00889773 0)
(1.49394 -0.00892182 0)
(1.49468 -0.00892342 0)
(1.49543 -0.00890196 0)
(1.49617 -0.00885691 0)
(1.4969 -0.00878772 0)
(1.49762 -0.00869391 0)
(1.49833 -0.00857498 0)
(1.49904 -0.0084305 0)
(1.49973 -0.00826003 0)
(1.5004 -0.00806321 0)
(1.50106 -0.00783963 0)
(1.5017 -0.00758899 0)
(1.50233 -0.00731087 0)
(1.50293 -0.00700506 0)
(1.50351 -0.00667104 0)
(1.50407 -0.00630864 0)
(1.50461 -0.00591729 0)
(1.50512 -0.00549664 0)
(1.5056 -0.00504618 0)
(1.50605 -0.00456512 0)
(1.50647 -0.0040529 0)
(1.50686 -0.0035086 0)
(1.50722 -0.00293119 0)
(1.50754 -0.00231948 0)
(1.50783 -0.0016721 0)
(1.50807 -0.000987443 0)
(1.50828 -0.000263661 0)
(1.50844 0.000501377 0)
(1.50856 0.00131011 0)
(1.50863 0.00216531 0)
(1.50865 0.00307017 0)
(1.50863 0.00402825 0)
(1.50855 0.00504362 0)
(1.50841 0.00612081 0)
(1.50822 0.00726493 0)
(1.50796 0.00848167 0)
(1.50764 0.0097774 0)
(1.50726 0.0111592 0)
(1.50681 0.012635 0)
(1.50628 0.0142136 0)
(1.50568 0.0159047 0)
(1.50499 0.017719 0)
(1.50423 0.0196687 0)
(1.50337 0.0217669 0)
(1.50243 0.0240285 0)
(1.50139 0.0264697 0)
(1.50026 0.0291088 0)
(1.49902 0.0319658 0)
(1.49768 0.0350631 0)
(1.49623 0.0384256 0)
(1.49468 0.0420808 0)
(1.49301 0.0460595 0)
(1.49123 0.0503958 0)
(1.48933 0.055128 0)
(1.48733 0.0602985 0)
(1.48523 0.0659545 0)
(1.48304 0.072149 0)
(1.48076 0.0789406 0)
(1.47842 0.0863948 0)
(1.47603 0.0945846 0)
(1.47364 0.103591 0)
(1.47129 0.113503 0)
(1.46902 0.124419 0)
(1.46692 0.136447 0)
(1.46507 0.149703 0)
(1.46361 0.164315 0)
(1.46267 0.180412 0)
(1.46245 0.19813 0)
(1.46319 0.217602 0)
(1.46518 0.238951 0)
(1.46881 0.262274 0)
(1.4745 0.287627 0)
(1.48281 0.314996 0)
(1.49436 0.344257 0)
(1.50987 0.375136 0)
(1.53012 0.407118 0)
(1.55591 0.439438 0)
(1.58794 0.470847 0)
(1.62656 0.499807 0)
(1.67199 0.524165 0)
(1.72308 0.54184 0)
(1.47761 -0.000253822 0)
(1.47765 -0.000760752 0)
(1.47775 -0.00126507 0)
(1.47789 -0.00176458 0)
(1.47809 -0.00225739 0)
(1.47833 -0.00274191 0)
(1.47862 -0.00321668 0)
(1.47895 -0.00368035 0)
(1.47932 -0.00413168 0)
(1.47973 -0.00456965 0)
(1.48018 -0.00499335 0)
(1.48066 -0.00540202 0)
(1.48118 -0.00579502 0)
(1.48172 -0.00617181 0)
(1.4823 -0.00653195 0)
(1.4829 -0.00687505 0)
(1.48352 -0.00720078 0)
(1.48417 -0.00750883 0)
(1.48484 -0.00779891 0)
(1.48552 -0.00807073 0)
(1.48623 -0.00832399 0)
(1.48694 -0.00855836 0)
(1.48767 -0.00877351 0)
(1.48842 -0.00896906 0)
(1.48917 -0.00914462 0)
(1.48993 -0.00929975 0)
(1.49069 -0.00943398 0)
(1.49146 -0.00954683 0)
(1.49223 -0.00963782 0)
(1.49301 -0.00970642 0)
(1.49379 -0.00975201 0)
(1.49456 -0.00977403 0)
(1.49533 -0.00977193 0)
(1.4961 -0.00974515 0)
(1.49686 -0.00969316 0)
(1.49762 -0.00961543 0)
(1.49837 -0.00951147 0)
(1.4991 -0.00938081 0)
(1.49983 -0.00922299 0)
(1.50054 -0.00903761 0)
(1.50125 -0.00882428 0)
(1.50193 -0.00858262 0)
(1.5026 -0.00831228 0)
(1.50325 -0.00801295 0)
(1.50388 -0.00768424 0)
(1.50449 -0.00732587 0)
(1.50508 -0.00693738 0)
(1.50564 -0.00651846 0)
(1.50618 -0.00606859 0)
(1.5067 -0.00558717 0)
(1.50718 -0.00507365 0)
(1.50764 -0.00452725 0)
(1.50807 -0.00394705 0)
(1.50846 -0.00333202 0)
(1.50882 -0.00268095 0)
(1.50915 -0.00199242 0)
(1.50944 -0.00126478 0)
(1.50969 -0.000496139 0)
(1.5099 0.000315712 0)
(1.51007 0.00117327 0)
(1.5102 0.00207942 0)
(1.51029 0.00303739 0)
(1.51033 0.00405087 0)
(1.51032 0.00512399 0)
(1.51026 0.00626141 0)
(1.51015 0.00746833 0)
(1.50998 0.00875058 0)
(1.50976 0.0101146 0)
(1.50948 0.0115677 0)
(1.50915 0.0131177 0)
(1.50874 0.0147736 0)
(1.50828 0.0165452 0)
(1.50775 0.0184433 0)
(1.50714 0.0204799 0)
(1.50647 0.0226684 0)
(1.50572 0.0250234 0)
(1.5049 0.0275611 0)
(1.504 0.0302993 0)
(1.50303 0.0332579 0)
(1.50197 0.0364586 0)
(1.50083 0.0399257 0)
(1.49962 0.0436857 0)
(1.49833 0.0477682 0)
(1.49697 0.0522057 0)
(1.49554 0.0570343 0)
(1.49405 0.0622936 0)
(1.49251 0.0680276 0)
(1.49094 0.0742846 0)
(1.48935 0.0811181 0)
(1.48777 0.0885866 0)
(1.48623 0.0967542 0)
(1.48477 0.105691 0)
(1.48344 0.115473 0)
(1.4823 0.126181 0)
(1.48144 0.137904 0)
(1.48096 0.150732 0)
(1.48097 0.164758 0)
(1.48164 0.180078 0)
(1.48315 0.19678 0)
(1.48572 0.214942 0)
(1.48962 0.234624 0)
(1.49519 0.255851 0)
(1.5028 0.2786 0)
(1.51288 0.302776 0)
(1.52593 0.328182 0)
(1.54246 0.35449 0)
(1.56301 0.381188 0)
(1.58805 0.407565 0)
(1.61796 0.432655 0)
(1.65286 0.455284 0)
(1.69254 0.474079 0)
(1.73638 0.487676 0)
(1.47761 -0.000282379 0)
(1.47765 -0.000846267 0)
(1.47775 -0.001407 0)
(1.47791 -0.00196194 0)
(1.47812 -0.00250883 0)
(1.47838 -0.00304577 0)
(1.47868 -0.00357103 0)
(1.47903 -0.00408304 0)
(1.47942 -0.00458041 0)
(1.47985 -0.00506197 0)
(1.48032 -0.00552675 0)
(1.48083 -0.00597395 0)
(1.48137 -0.00640292 0)
(1.48194 -0.00681315 0)
(1.48254 -0.00720423 0)
(1.48317 -0.00757584 0)
(1.48382 -0.00792771 0)
(1.48449 -0.00825959 0)
(1.48519 -0.00857128 0)
(1.4859 -0.00886257 0)
(1.48663 -0.00913322 0)
(1.48737 -0.009383 0)
(1.48813 -0.00961161 0)
(1.4889 -0.00981875 0)
(1.48967 -0.0100041 0)
(1.49046 -0.0101672 0)
(1.49125 -0.0103077 0)
(1.49205 -0.0104251 0)
(1.49285 -0.010519 0)
(1.49365 -0.0105888 0)
(1.49445 -0.010634 0)
(1.49525 -0.010654 0)
(1.49605 -0.0106483 0)
(1.49684 -0.0106163 0)
(1.49763 -0.0105575 0)
(1.49841 -0.0104714 0)
(1.49918 -0.0103576 0)
(1.49995 -0.0102154 0)
(1.5007 -0.0100446 0)
(1.50144 -0.00984464 0)
(1.50217 -0.0096152 0)
(1.50288 -0.00935592 0)
(1.50358 -0.00906644 0)
(1.50426 -0.00874645 0)
(1.50492 -0.0083956 0)
(1.50556 -0.00801355 0)
(1.50618 -0.00759998 0)
(1.50678 -0.0071544 0)
(1.50735 -0.0066764 0)
(1.5079 -0.00616544 0)
(1.50842 -0.00562085 0)
(1.50891 -0.00504188 0)
(1.50937 -0.00442764 0)
(1.50981 -0.0037771 0)
(1.51021 -0.00308902 0)
(1.51058 -0.00236198 0)
(1.51092 -0.0015943 0)
(1.51122 -0.000784068 0)
(1.51148 7.09509e-05 0)
(1.51171 0.000973291 0)
(1.5119 0.00192586 0)
(1.51204 0.00293194 0)
(1.51215 0.00399527 0)
(1.51221 0.00512002 0)
(1.51224 0.0063109 0)
(1.51221 0.00757315 0)
(1.51214 0.00891265 0)
(1.51202 0.0103359 0)
(1.51185 0.0118501 0)
(1.51163 0.0134633 0)
(1.51136 0.0151843 0)
(1.51103 0.0170229 0)
(1.51065 0.0189899 0)
(1.51021 0.0210972 0)
(1.50972 0.0233578 0)
(1.50917 0.0257862 0)
(1.50857 0.0283982 0)
(1.50791 0.0312112 0)
(1.50719 0.0342444 0)
(1.50642 0.0375188 0)
(1.50559 0.0410574 0)
(1.50472 0.0448858 0)
(1.50381 0.0490316 0)
(1.50286 0.0535256 0)
(1.50188 0.058401 0)
(1.50089 0.0636945 0)
(1.4999 0.0694461 0)
(1.49892 0.0756993 0)
(1.49799 0.0825016 0)
(1.49713 0.0899041 0)
(1.49638 0.0979622 0)
(1.49578 0.106735 0)
(1.49539 0.116285 0)
(1.49529 0.126678 0)
(1.49554 0.137981 0)
(1.49626 0.150264 0)
(1.49756 0.163591 0)
(1.4996 0.178025 0)
(1.50254 0.193618 0)
(1.50659 0.210404 0)
(1.512 0.228397 0)
(1.51903 0.247571 0)
(1.528 0.267854 0)
(1.53926 0.289107 0)
(1.55316 0.311105 0)
(1.57008 0.333513 0)
(1.59037 0.35587 0)
(1.61431 0.377568 0)
(1.64207 0.397854 0)
(1.67363 0.415845 0)
(1.70868 0.430562 0)
(1.74667 0.441045 0)
(1.47761 -0.000312769 0)
(1.47766 -0.000937252 0)
(1.47777 -0.00155794 0)
(1.47793 -0.00217168 0)
(1.47815 -0.00277578 0)
(1.47843 -0.00336799 0)
(1.47875 -0.0039463 0)
(1.47912 -0.00450888 0)
(1.47953 -0.00505419 0)
(1.47999 -0.00558094 0)
(1.48049 -0.00608809 0)
(1.48102 -0.00657485 0)
(1.48159 -0.00704057 0)
(1.48219 -0.00748481 0)
(1.48282 -0.00790722 0)
(1.48347 -0.00830757 0)
(1.48415 -0.00868568 0)
(1.48486 -0.00904142 0)
(1.48558 -0.00937468 0)
(1.48632 -0.00968532 0)
(1.48708 -0.00997323 0)
(1.48785 -0.0102382 0)
(1.48864 -0.0104801 0)
(1.48943 -0.0106987 0)
(1.49024 -0.0108936 0)
(1.49105 -0.0110646 0)
(1.49187 -0.0112113 0)
(1.49269 -0.0113332 0)
(1.49352 -0.0114299 0)
(1.49435 -0.011501 0)
(1.49518 -0.0115458 0)
(1.496 -0.0115639 0)
(1.49683 -0.0115546 0)
(1.49765 -0.0115176 0)
(1.49847 -0.0114522 0)
(1.49928 -0.0113579 0)
(1.50008 -0.0112344 0)
(1.50087 -0.011081 0)
(1.50166 -0.0108975 0)
(1.50243 -0.0106833 0)
(1.50318 -0.0104382 0)
(1.50393 -0.0101617 0)
(1.50465 -0.0098536 0)
(1.50536 -0.00951352 0)
(1.50605 -0.00914119 0)
(1.50673 -0.00873629 0)
(1.50738 -0.00829837 0)
(1.50801 -0.00782716 0)
(1.50861 -0.00732218 0)
(1.5092 -0.00678289 0)
(1.50975 -0.00620866 0)
(1.51028 -0.00559875 0)
(1.51079 -0.00495232 0)
(1.51126 -0.00426833 0)
(1.51171 -0.00354558 0)
(1.51212 -0.00278265 0)
(1.51251 -0.00197787 0)
(1.51286 -0.00112934 0)
(1.51317 -0.000234825 0)
(1.51346 0.000708211 0)
(1.51371 0.00170267 0)
(1.51392 0.00275184 0)
(1.5141 0.00385945 0)
(1.51424 0.00502968 0)
(1.51434 0.00626721 0)
(1.5144 0.0075773 0)
(1.51442 0.00896576 0)
(1.5144 0.0104391 0)
(1.51434 0.0120044 0)
(1.51424 0.0136697 0)
(1.5141 0.0154437 0)
(1.51392 0.017336 0)
(1.51369 0.0193572 0)
(1.51342 0.021519 0)
(1.51311 0.023834 0)
(1.51276 0.0263163 0)
(1.51237 0.0289811 0)
(1.51195 0.0318453 0)
(1.51149 0.0349271 0)
(1.511 0.0382466 0)
(1.51048 0.0418255 0)
(1.50994 0.0456877 0)
(1.5094 0.0498592 0)
(1.50885 0.054368 0)
(1.50831 0.0592449 0)
(1.50779 0.0645229 0)
(1.50732 0.0702379 0)
(1.50691 0.0764284 0)
(1.5066 0.0831357 0)
(1.50641 0.0904036 0)
(1.50639 0.0982787 0)
(1.50659 0.10681 0)
(1.50706 0.116046 0)
(1.50787 0.12604 0)
(1.50911 0.13684 0)
(1.51087 0.148496 0)
(1.51328 0.161051 0)
(1.51646 0.174538 0)
(1.52058 0.188982 0)
(1.52581 0.204385 0)
(1.53237 0.220727 0)
(1.54048 0.237952 0)
(1.55039 0.255959 0)
(1.56236 0.274589 0)
(1.57667 0.293615 0)
(1.59358 0.312725 0)
(1.61329 0.331514 0)
(1.63598 0.349481 0)
(1.66168 0.36603 0)
(1.69031 0.380497 0)
(1.72154 0.392184 0)
(1.75491 0.400452 0)
(1.47761 -0.000345281 0)
(1.47766 -0.00103457 0)
(1.47778 -0.00171929 0)
(1.47796 -0.00239568 0)
(1.47819 -0.00306056 0)
(1.47849 -0.00371125 0)
(1.47883 -0.00434543 0)
(1.47922 -0.00496102 0)
(1.47966 -0.0055563 0)
(1.48015 -0.0061299 0)
(1.48067 -0.00668076 0)
(1.48124 -0.00720807 0)
(1.48184 -0.00771128 0)
(1.48247 -0.00819001 0)
(1.48313 -0.00864404 0)
(1.48382 -0.00907325 0)
(1.48453 -0.0094776 0)
(1.48526 -0.00985709 0)
(1.48602 -0.0102117 0)
(1.48679 -0.0105415 0)
(1.48758 -0.0108465 0)
(1.48838 -0.0111265 0)
(1.4892 -0.0113814 0)
(1.49002 -0.0116112 0)
(1.49086 -0.0118156 0)
(1.4917 -0.0119943 0)
(1.49255 -0.012147 0)
(1.4934 -0.0122734 0)
(1.49426 -0.0123729 0)
(1.49512 -0.0124452 0)
(1.49597 -0.0124896 0)
(1.49683 -0.0125058 0)
(1.49769 -0.0124931 0)
(1.49854 -0.0124511 0)
(1.49938 -0.0123792 0)
(1.50022 -0.012277 0)
(1.50106 -0.012144 0)
(1.50188 -0.0119797 0)
(1.50269 -0.0117838 0)
(1.50349 -0.0115557 0)
(1.50428 -0.0112953 0)
(1.50506 -0.0110021 0)
(1.50582 -0.0106758 0)
(1.50656 -0.0103162 0)
(1.50728 -0.00992307 0)
(1.50799 -0.00949595 0)
(1.50868 -0.00903462 0)
(1.50934 -0.0085387 0)
(1.50998 -0.00800778 0)
(1.5106 -0.00744136 0)
(1.5112 -0.00683887 0)
(1.51177 -0.00619963 0)
(1.51231 -0.00552281 0)
(1.51283 -0.00480743 0)
(1.51332 -0.00405232 0)
(1.51378 -0.0032561 0)
(1.51421 -0.00241715 0)
(1.51461 -0.00153358 0)
(1.51498 -0.000603219 0)
(1.51533 0.000376445 0)
(1.51564 0.00140826 0)
(1.51592 0.00249549 0)
(1.51616 0.00364181 0)
(1.51638 0.00485135 0)
(1.51656 0.00612876 0)
(1.51671 0.00747919 0)
(1.51683 0.0089084 0)
(1.51691 0.0104228 0)
(1.51696 0.0120293 0)
(1.51698 0.0137358 0)
(1.51697 0.0155508 0)
(1.51693 0.0174837 0)
(1.51685 0.0195447 0)
(1.51675 0.0217452 0)
(1.51662 0.0240974 0)
(1.51647 0.0266147 0)
(1.51629 0.0293118 0)
(1.5161 0.0322045 0)
(1.51589 0.0353103 0)
(1.51568 0.038648 0)
(1.51546 0.0422378 0)
(1.51525 0.0461019 0)
(1.51506 0.0502641 0)
(1.51489 0.0547501 0)
(1.51477 0.0595874 0)
(1.51471 0.0648056 0)
(1.51473 0.0704364 0)
(1.51485 0.076513 0)
(1.51512 0.0830708 0)
(1.51555 0.0901466 0)
(1.5162 0.0977786 0)
(1.51711 0.106006 0)
(1.51835 0.114866 0)
(1.51998 0.124399 0)
(1.52208 0.134639 0)
(1.52474 0.145616 0)
(1.52807 0.157356 0)
(1.5322 0.169873 0)
(1.53727 0.183167 0)
(1.54343 0.19722 0)
(1.55085 0.21199 0)
(1.55972 0.2274 0)
(1.57024 0.243339 0)
(1.58261 0.259644 0)
(1.59702 0.276099 0)
(1.61365 0.292424 0)
(1.63262 0.308274 0)
(1.65402 0.32324 0)
(1.67783 0.336856 0)
(1.70392 0.348627 0)
(1.732 0.358054 0)
(1.76169 0.364702 0)
(1.47761 -0.00038026 0)
(1.47767 -0.00113924 0)
(1.47779 -0.00189271 0)
(1.47798 -0.0026362 0)
(1.47824 -0.0033659 0)
(1.47855 -0.00407869 0)
(1.47892 -0.00477185 0)
(1.47934 -0.00544309 0)
(1.47981 -0.00609051 0)
(1.48033 -0.00671267 0)
(1.48089 -0.00730851 0)
(1.48148 -0.0078773 0)
(1.48212 -0.0084186 0)
(1.48278 -0.00893217 0)
(1.48348 -0.00941796 0)
(1.4842 -0.00987601 0)
(1.48495 -0.0103065 0)
(1.48572 -0.0107095 0)
(1.48651 -0.0110852 0)
(1.48731 -0.0114338 0)
(1.48813 -0.0117555 0)
(1.48897 -0.0120501 0)
(1.48982 -0.0123178 0)
(1.49068 -0.0125586 0)
(1.49154 -0.0127721 0)
(1.49242 -0.0129583 0)
(1.4933 -0.0131169 0)
(1.49418 -0.0132476 0)
(1.49507 -0.01335 0)
(1.49596 -0.0134234 0)
(1.49685 -0.0134675 0)
(1.49774 -0.0134819 0)
(1.49862 -0.0134659 0)
(1.49951 -0.0134191 0)
(1.50038 -0.0133409 0)
(1.50126 -0.013231 0)
(1.50212 -0.0130887 0)
(1.50298 -0.0129137 0)
(1.50382 -0.0127056 0)
(1.50466 -0.012464 0)
(1.50548 -0.0121886 0)
(1.50629 -0.0118791 0)
(1.50708 -0.0115351 0)
(1.50786 -0.0111566 0)
(1.50861 -0.0107431 0)
(1.50936 -0.0102945 0)