/*--------------------------------*- C++ -*----------------------------------*\
| =========                 |                                                 |
| \\      /  F ield         | OpenFOAM: The Open Source CFD Toolbox           |
|  \\    /   O peration     | Version:  2206                                  |
|   \\  /    A nd           | Website:  www.openfoam.com                      |
|    \\/     M anipulation  |                                                 |
\*---------------------------------------------------------------------------*/
FoamFile
{
    version     2.0;
    format      ascii;
    arch        "LSB;label=32;scalar=64";
    class       surfaceScalarField;
    location    "19.5999";
    object      ddtCorrDdt0(phi);
}
// * * * * * * * * * * * * * * * * * * * * * * * * * * * * * * * * * * * * * //

dimensions      [0 3 -2 0 0 0 0];

oriented        oriented;

internalField   nonuniform List<scalar> 
3474
(
1.86913e-05
2.96192e-06
1.4935e-05
3.75624e-06
1.11242e-05
3.81064e-06
7.90699e-06
3.21717e-06
5.6623e-06
2.24462e-06
4.503e-06
1.1592e-06
4.3645e-06
1.38436e-07
5.08342e-06
-7.19005e-07
6.45377e-06
-1.3704e-06
8.27288e-06
-1.8192e-06
1.03061e-05
-2.03324e-06
1.23162e-05
-2.01021e-06
1.40781e-05
-1.76202e-06
1.54384e-05
-1.36036e-06
1.62949e-05
-8.56591e-07
1.66145e-05
-3.19709e-07
1.64235e-05
1.91014e-07
1.58023e-05
6.21089e-07
1.48712e-05
9.31004e-07
1.37683e-05
1.10279e-06
1.26303e-05
1.13791e-06
1.15776e-05
1.0525e-06
1.07049e-05
8.72627e-07
1.00734e-05
6.31393e-07
9.7118e-06
3.61617e-07
9.6206e-06
9.10826e-08
9.77435e-06
-1.53787e-07
1.01317e-05
-3.57536e-07
1.06376e-05
-5.05921e-07
1.12341e-05
-5.96631e-07
1.1868e-05
-6.3394e-07
1.24873e-05
-6.19356e-07
1.30522e-05
-5.6489e-07
1.35431e-05
-4.91013e-07
1.3949e-05
-4.05871e-07
1.42689e-05
-3.20081e-07
1.45138e-05
-2.44922e-07
1.47053e-05
-1.91688e-07
1.48691e-05
-1.63835e-07
1.50318e-05
-1.62795e-07
1.52146e-05
-1.82779e-07
1.543e-05
-2.1547e-07
1.56757e-05
-2.45649e-07
1.59292e-05
-2.53656e-07
1.61478e-05
-2.18506e-07
1.62457e-05
-9.80521e-08
1.60912e-05
1.54592e-07
1.5465e-05
6.26191e-07
1.4017e-05
1.44818e-06
1.11322e-05
2.88478e-06
5.73097e-06
5.40117e-06
-4.50686e-06
1.02368e-05
-2.43173e-05
1.98099e-05
4.1481e-05
-6.57986e-05
1.47571e-05
3.70944e-06
1.3851e-05
4.66221e-06
1.29505e-05
4.7111e-06
1.21984e-05
3.96925e-06
1.16708e-05
2.77209e-06
1.13818e-05
1.44817e-06
1.13701e-05
1.50115e-07
1.15671e-05
-9.16137e-07
1.18926e-05
-1.69596e-06
1.23681e-05
-2.29478e-06
1.29436e-05
-2.60878e-06
1.35808e-05
-2.64748e-06
1.41403e-05
-2.32153e-06
1.45715e-05
-1.79167e-06
1.48272e-05
-1.11232e-06
1.49143e-05
-4.06935e-07
1.48396e-05
2.65733e-07
1.46186e-05
8.41959e-07
1.4276e-05
1.27351e-06
1.38431e-05
1.5356e-06
1.33574e-05
1.62352e-06
1.2861e-05
1.54886e-06
1.23939e-05
1.3396e-06
1.19907e-05
1.03457e-06
1.16762e-05
6.76041e-07
1.1467e-05
3.00235e-07
1.13719e-05
-5.87266e-08
1.13868e-05
-3.72554e-07
1.15049e-05
-6.24019e-07
1.17094e-05
-8.0123e-07
1.19797e-05
-9.04283e-07
1.23038e-05
-9.43489e-07
1.26626e-05
-9.23674e-07
1.30354e-05
-8.6393e-07
1.34122e-05
-7.82665e-07
1.37882e-05
-6.96234e-07
1.41602e-05
-6.17025e-07
1.45271e-05
-5.58646e-07
1.489e-05
-5.26788e-07
1.52506e-05
-5.2348e-07
1.56098e-05
-5.41934e-07
1.59654e-05
-5.7108e-07
1.631e-05
-5.90259e-07
1.66278e-05
-5.7155e-07
1.6886e-05
-4.76758e-07
1.70386e-05
-2.50652e-07
1.70068e-05
1.86425e-07
1.66724e-05
9.60553e-07
1.58566e-05
2.26412e-06
1.43105e-05
4.43093e-06
1.17072e-05
8.00431e-06
7.98869e-06
1.39548e-05
4.31993e-06
2.34781e-05
3.76556e-05
8.14536e-06
9.1963e-06
2.28822e-06
1.07763e-05
3.08216e-06
1.22922e-05
3.19518e-06
1.35146e-05
2.74679e-06
1.43769e-05
1.90971e-06
1.49763e-05
8.48723e-07
1.53714e-05
-2.45003e-07
1.55704e-05
-1.11516e-06
1.56051e-05
-1.73076e-06
1.55159e-05
-2.20559e-06
1.53704e-05
-2.46339e-06
1.51934e-05
-2.47053e-06
1.49843e-05
-2.1124e-06
1.47637e-05
-1.57114e-06
1.45522e-05
-9.00909e-07
1.43619e-05
-2.16694e-07
1.41938e-05
4.33842e-07
1.40452e-05
9.90409e-07
1.39114e-05
1.40727e-06
1.37842e-05
1.66277e-06
1.36557e-05
1.75193e-06
1.3525e-05
1.67949e-06
1.33925e-05
1.47204e-06
1.32561e-05
1.1709e-06
1.31189e-05
8.13172e-07
1.2986e-05
4.33107e-07
1.28626e-05
6.45733e-08
1.27534e-05
-2.63345e-07
1.26612e-05
-5.31859e-07
1.25916e-05
-7.31665e-07
1.25443e-05
-8.57024e-07
1.25177e-05
-9.16935e-07
1.25181e-05
-9.24127e-07
1.25479e-05
-8.93804e-07
1.26075e-05
-8.42292e-07
1.26976e-05
-7.86382e-07
1.28197e-05
-7.3924e-07
1.29738e-05
-7.12808e-07
1.31597e-05
-7.12685e-07
1.33752e-05
-7.39067e-07
1.36178e-05
-7.8455e-07
1.38825e-05
-8.35759e-07
1.41621e-05
-8.69858e-07
1.44451e-05
-8.54629e-07
1.4718e-05
-7.49678e-07
1.49643e-05
-4.96963e-07
1.51624e-05
-1.16411e-08
1.53021e-05
8.2083e-07
1.54003e-05
2.16592e-06
1.55749e-05
4.25648e-06
1.6153e-05
7.42604e-06
1.79751e-05
1.21325e-05
2.30421e-05
1.8411e-05
2.57404e-05
3.49574e-05
1.05498e-05
1.11203e-06
1.18468e-05
1.78509e-06
1.3046e-05
1.99589e-06
1.40109e-05
1.78186e-06
1.46636e-05
1.25694e-06
1.49615e-05
5.50834e-07
1.49208e-05
-2.04386e-07
1.46793e-05
-8.73651e-07
1.43358e-05
-1.38728e-06
1.3889e-05
-1.75885e-06
1.33831e-05
-1.95752e-06
1.28297e-05
-1.91717e-06
1.23438e-05
-1.62658e-06
1.19472e-05
-1.17461e-06
1.17053e-05
-6.59111e-07
1.16029e-05
-1.1429e-07
1.16374e-05
3.99322e-07
1.17872e-05
8.40529e-07
1.2024e-05
1.17036e-06
1.23099e-05
1.37679e-06
1.2609e-05
1.4528e-06
1.29026e-05
1.38583e-06
1.31723e-05
1.20227e-06
1.33983e-05
9.44916e-07
1.35689e-05
6.42488e-07
1.3683e-05
3.18967e-07
1.37455e-05
1.96581e-09
1.37603e-05
-2.78159e-07
1.37381e-05
-5.09685e-07
1.36845e-05
-6.78128e-07
1.36105e-05
-7.83007e-07
1.3527e-05
-8.335e-07
1.34423e-05
-8.39375e-07
1.33633e-05
-8.14859e-07
1.32965e-05
-7.75619e-07
1.32467e-05
-7.36573e-07
1.32173e-05
-7.09928e-07
1.32105e-05
-7.06073e-07
1.32276e-05
-7.29782e-07
1.32676e-05
-7.79149e-07
1.33306e-05
-8.47491e-07
1.34166e-05
-9.21808e-07
1.35253e-05
-9.78629e-07
1.36576e-05
-9.86918e-07
1.38191e-05
-9.11166e-07
1.40173e-05
-6.95233e-07
1.42827e-05
-2.77026e-07
1.46961e-05
4.0744e-07
1.54051e-05
1.45687e-06
1.6687e-05
2.97459e-06
1.90189e-05
5.09417e-06
2.32901e-05
7.86119e-06
3.10424e-05
1.06586e-05
1.31005e-05
4.36823e-05
1.16367e-05
3.64957e-07
1.2515e-05
9.06694e-07
1.33622e-05
1.14864e-06
1.40468e-05
1.09728e-06
1.44951e-05
8.086e-07
1.46852e-05
3.60705e-07
1.46334e-05
-1.52587e-07
1.43933e-05
-6.33591e-07
1.40117e-05
-1.00573e-06
1.35144e-05
-1.26166e-06
1.29397e-05
-1.38278e-06
1.23874e-05
-1.36492e-06
1.18971e-05
-1.13633e-06
1.1523e-05
-8.00627e-07
1.12735e-05
-4.09641e-07
1.11576e-05
1.55222e-09
1.1184e-05
3.72858e-07
1.13279e-05
6.96601e-07
1.15682e-05
9.30005e-07
1.18502e-05
1.09474e-06
1.21529e-05
1.14999e-06
1.24776e-05
1.06112e-06
1.27828e-05
8.97e-07
1.30515e-05
6.7622e-07
1.32742e-05
4.19702e-07
1.34466e-05
1.46513e-07
1.35716e-05
-1.23019e-07
1.3643e-05
-3.4966e-07
1.36749e-05
-5.41596e-07
1.36592e-05
-6.62463e-07
1.36145e-05
-7.38285e-07
1.35496e-05
-7.68658e-07
1.347e-05
-7.59828e-07
1.33822e-05
-7.27069e-07
1.3293e-05
-6.86469e-07
1.32084e-05
-6.51962e-07
1.31335e-05
-6.35115e-07
1.30739e-05
-6.46499e-07
1.30344e-05
-6.90362e-07
1.30175e-05
-7.62269e-07
1.30276e-05
-8.57559e-07
1.30712e-05
-9.65471e-07
1.31563e-05
-1.06377e-06
1.32934e-05
-1.12398e-06
1.34934e-05
-1.1112e-06
1.37991e-05
-1.00094e-06
1.4288e-05
-7.6594e-07
1.50515e-05
-3.56132e-07
1.62493e-05
2.59136e-07
1.81408e-05
1.08309e-06
2.12029e-05
2.03202e-06
2.61739e-05
2.8902e-06
3.29182e-05
3.91423e-06
4.9551e-06
4.10636e-05
1.23525e-05
-2.9677e-08
1.28944e-05
3.64755e-07
1.34632e-05
5.79777e-07
1.39618e-05
5.98643e-07
1.43296e-05
4.40726e-07
1.45259e-05
1.64449e-07
1.45271e-05
-1.53869e-07
1.43425e-05
-4.49018e-07
1.40148e-05
-6.78082e-07
1.35725e-05
-8.19327e-07
1.30569e-05
-8.67264e-07
1.25431e-05
-8.51161e-07
1.20885e-05
-6.81747e-07
1.17593e-05
-4.715e-07
1.15286e-05
-1.79016e-07
1.13899e-05
1.40196e-07
1.13425e-05
4.20256e-07
1.13744e-05
6.64634e-07
1.14686e-05
8.35744e-07
1.16729e-05
8.90336e-07
1.19633e-05
8.59539e-07
1.22416e-05
7.82815e-07
1.25036e-05
6.349e-07
1.27603e-05
4.19488e-07
1.30056e-05
1.74379e-07
1.32174e-05
-6.52756e-08
1.33903e-05
-2.9597e-07
1.3517e-05
-4.76392e-07
1.36109e-05
-6.35565e-07
1.36556e-05
-7.07198e-07
1.36495e-05
-7.32203e-07
1.35914e-05
-7.10559e-07
1.34971e-05
-6.65567e-07
1.33814e-05
-6.11333e-07
1.32534e-05
-5.5857e-07
1.31226e-05
-5.21144e-07
1.2997e-05
-5.09542e-07
1.28903e-05
-5.39874e-07
1.28085e-05
-6.08545e-07
1.27601e-05
-7.13907e-07
1.27581e-05
-8.55595e-07
1.28123e-05
-1.01967e-06
1.29323e-05
-1.18385e-06
1.31335e-05
-1.32515e-06
1.34428e-05
-1.42055e-06
1.38866e-05
-1.44474e-06
1.44984e-05
-1.3778e-06
1.53572e-05
-1.2149e-06
1.65959e-05
-9.79636e-07
1.83965e-05
-7.17452e-07
2.09803e-05
-5.5182e-07
2.46017e-05
-7.31253e-07
2.99334e-05
-1.41746e-06
-2.98158e-06
3.787e-05
1.36064e-05
-1.25672e-07
1.3774e-05
1.97149e-07
1.39856e-05
3.6813e-07
1.41858e-05
3.98435e-07
1.43073e-05
3.19205e-07
1.43007e-05
1.70969e-07
1.41609e-05
-1.41357e-08
1.39118e-05
-1.99888e-07
1.35939e-05
-3.60213e-07
1.31995e-05
-4.25009e-07
1.27809e-05
-4.48629e-07
1.234e-05
-4.10394e-07
1.19505e-05
-2.92257e-07
1.16139e-05
-1.34972e-07
1.13595e-05
7.54087e-08
1.12092e-05
2.90368e-07
1.11507e-05
4.78786e-07
1.11835e-05
6.31698e-07
1.13006e-05
7.18661e-07
1.1461e-05
7.29871e-07
1.1657e-05
6.63438e-07
1.1901e-05
5.38857e-07
1.21667e-05
3.69166e-07
1.24276e-05
1.58531e-07
1.26751e-05
-7.31937e-08
1.2908e-05
-2.98182e-07
1.3106e-05
-4.9397e-07
1.32718e-05
-6.42234e-07
1.33948e-05
-7.58588e-07
1.34738e-05
-7.86282e-07
1.35001e-05
-7.58502e-07
1.34729e-05
-6.83333e-07
1.33983e-05
-5.9097e-07
1.32965e-05
-5.09574e-07
1.31695e-05
-4.31633e-07
1.30313e-05
-3.82966e-07
1.28763e-05
-3.54601e-07
1.27393e-05
-4.02838e-07
1.26172e-05
-4.86524e-07
1.25157e-05
-6.1237e-07
1.24503e-05
-7.90259e-07
1.2441e-05
-1.01039e-06
1.25002e-05
-1.24308e-06
1.26383e-05
-1.46327e-06
1.28698e-05
-1.65211e-06
1.32168e-05
-1.7917e-06
1.37148e-05
-1.87584e-06
1.44132e-05
-1.9133e-06
1.53785e-05
-1.94498e-06
1.67131e-05
-2.05204e-06
1.8536e-05
-2.37475e-06
2.09389e-05
-3.13412e-06
2.41266e-05
-4.60523e-06
-7.20357e-06
2.83486e-05
1.33208e-05
-2.58489e-07
1.35113e-05
6.55024e-09
1.37111e-05
1.68336e-07
1.38753e-05
2.34248e-07
1.3972e-05
2.22438e-07
1.39849e-05
1.58085e-07
1.39042e-05
6.65241e-08
1.37355e-05
-3.12304e-08
1.34967e-05
-1.21451e-07
1.32078e-05
-1.36126e-07
1.28903e-05
-1.31145e-07
1.25658e-05
-8.59758e-08
1.22726e-05
9.53971e-10
1.20174e-05
1.20178e-07
1.1832e-05
2.60759e-07
1.17228e-05
3.99444e-07
1.16871e-05
5.14474e-07
1.17293e-05
5.89439e-07
1.18378e-05
6.10116e-07
1.19989e-05
5.68716e-07
1.21982e-05
4.64186e-07
1.24282e-05
3.08724e-07
1.26785e-05
1.18864e-07
1.29251e-05
-8.80912e-08
1.31563e-05
-3.04409e-07
1.33603e-05
-5.02235e-07
1.35259e-05
-6.59503e-07
1.3651e-05
-7.6748e-07
1.3706e-05
-8.13506e-07
1.37094e-05
-7.89799e-07
1.36565e-05
-7.05529e-07
1.35507e-05
-5.77648e-07
1.33962e-05
-4.36389e-07
1.32024e-05
-3.15879e-07
1.29776e-05
-2.06761e-07
1.27311e-05
-1.36537e-07
1.24727e-05
-9.61974e-08
1.22133e-05
-1.43567e-07
1.19616e-05
-2.34745e-07
1.17277e-05
-3.78586e-07
1.15201e-05
-5.82518e-07
1.13462e-05
-8.36621e-07
1.12132e-05
-1.11005e-06
1.11284e-05
-1.37855e-06
1.10964e-05
-1.62007e-06
1.11225e-05
-1.81786e-06
1.12121e-05
-1.96537e-06
1.13692e-05
-2.07049e-06
1.15953e-05
-2.17104e-06
1.18849e-05
-2.34169e-06
1.22087e-05
-2.69844e-06
1.24729e-05
-3.39851e-06
1.25278e-05
-4.66004e-06
-6.78193e-06
1.21061e-05
1.27438e-05
-2.36444e-07
1.28171e-05
-6.68118e-08
1.29375e-05
4.79114e-08
1.30597e-05
1.12034e-07
1.31479e-05
1.34248e-07
1.31805e-05
1.25409e-07
1.31393e-05
1.07745e-07
1.30346e-05
7.34249e-08
1.2881e-05
3.20831e-08
1.27182e-05
2.66414e-08
1.25491e-05
3.79201e-08
1.23964e-05
6.6723e-08
1.22811e-05
1.16161e-07
1.22184e-05
1.82916e-07
1.22222e-05
2.56849e-07
1.2296e-05
3.25683e-07
1.2436e-05
3.74377e-07
1.26336e-05
3.91803e-07
1.28739e-05
3.69758e-07
1.31379e-05
3.04714e-07
1.34036e-05
1.9835e-07
1.36518e-05
6.05544e-08
1.38668e-05
-9.62303e-08
1.40408e-05
-2.62047e-07
1.41519e-05
-4.15612e-07
1.41846e-05
-5.34799e-07
1.41441e-05
-6.1912e-07
1.40341e-05
-6.57487e-07
1.38615e-05
-6.40935e-07
1.36367e-05
-5.6492e-07
1.33781e-05
-4.47135e-07
1.31003e-05
-2.99761e-07
1.28112e-05
-1.47381e-07
1.25093e-05
-1.38393e-08
1.22034e-05
9.8968e-08
1.18863e-05
1.80622e-07
1.15759e-05
2.14118e-07
1.12475e-05
1.8492e-07
1.09095e-05
1.031e-07
1.05651e-05
-3.4074e-08
1.02066e-05
-2.24229e-07
9.81928e-06
-4.49124e-07
9.39774e-06
-6.88692e-07
8.94557e-06
-9.26256e-07
8.47301e-06
-1.14769e-06
7.97636e-06
-1.32107e-06
7.3895e-06
-1.3787e-06
6.63027e-06
-1.31111e-06
5.62335e-06
-1.16429e-06
4.26427e-06
-9.82454e-07
2.37159e-06
-8.05939e-07
-3.55268e-07
-6.71481e-07
-4.39967e-06
-6.15806e-07
-6.79961e-07
-1.05015e-05
1.12779e-05
1.1211e-05
1.12589e-05
1.13709e-05
1.15052e-05
1.16306e-05
1.17383e-05
1.18117e-05
1.18438e-05
1.18704e-05
1.19083e-05
1.1975e-05
1.20912e-05
1.2274e-05
1.25309e-05
1.28565e-05
1.32309e-05
1.36226e-05
1.39924e-05
1.4297e-05
1.44954e-05
1.45559e-05
1.44597e-05
1.41976e-05
1.3782e-05
1.32472e-05
1.26281e-05
1.19705e-05
1.13296e-05
1.07646e-05
1.03176e-05
1.00177e-05
9.8704e-06
9.85648e-06
9.9555e-06
1.0136e-05
1.03502e-05
1.0535e-05
1.06382e-05
1.06041e-05
1.03799e-05
9.93067e-06
9.24205e-06
8.31569e-06
7.16809e-06
5.84691e-06
4.4683e-06
3.15709e-06
1.9929e-06
1.01034e-06
2.04501e-07
-4.67079e-07
-1.08278e-06
-1.76284e-06
-8.31318e-05
8.11515e-05
-6.38183e-05
-8.51051e-06
0.000128246
-0.000202867
9.01391e-05
0.000152868
-0.000251517
0.000212871
0.000133119
-0.00025585
0.000327601
7.3925e-05
-0.000188655
0.000408173
-8.88808e-06
-7.16843e-05
0.000452626
-9.92812e-05
5.4829e-05
0.000474477
-0.000184813
0.000162962
0.00048254
-0.00027088
0.000262817
0.000478122
-0.000349065
0.000353483
0.000481557
-0.000411138
0.000407703
0.000503196
-0.000452221
0.000430582
0.000524759
-0.000458766
0.000437202
0.000488162
-0.000423297
0.000459895
0.000327901
-0.000359145
0.000519405
4.04836e-05
-0.000296622
0.000584039
-0.000317894
-0.00029734
0.000655718
-0.000680572
-0.000237119
0.000599797
-0.000998797
-0.000141964
0.000460188
-0.00126653
4.07848e-06
0.000263655
-0.00148592
0.000199439
1.99503e-05
-0.0016582
0.000447224
-0.000274943
-0.00174352
0.000703178
-0.000617857
-0.00165383
0.000861424
-0.000951114
-0.00137556
0.000865528
-0.0011438
-0.00100634
0.000764133
-0.00113335
-0.000626433
0.000591765
-0.00097167
-0.000277221
0.000397235
-0.000746446
-2.54584e-06
0.000294093
-0.000568768
0.000206723
0.000234009
-0.000443278
0.000398247
0.000127177
-0.000318701
0.000559176
2.40463e-05
-0.000184974
0.00067136
-4.98963e-05
-6.22879e-05
0.000740522
-0.000116645
4.74824e-05
0.000776871
-0.000173399
0.00013705
0.000777875
-0.000209517
0.000208513
0.000742525
-0.000229558
0.000264909
0.000679729
-0.000241726
0.000304522
0.000608474
-0.000241258
0.000312513
0.000561837
-0.000212778
0.000259415
0.000570711
-0.000137427
0.000128552
0.000642493
-1.62763e-05
-5.55057e-05
0.000748966
0.000116586
-0.000223058
0.000824961
0.000222347
-0.000298342
0.000822767
0.000257533
-0.000255338
0.000741697
0.000199035
-0.000117965
0.000598988
5.60379e-05
8.66707e-05
0.000410825
-0.000137972
0.000326136
0.000209591
-0.000333815
0.000535049
2.24158e-05
-0.000486185
0.00067336
-0.000139806
-0.000566073
0.000728294
-0.000249609
-0.000592669
0.000702472
-0.00032009
-0.000556816
0.000627297
-0.000363706
-0.000483005
0.000526621
-0.000387272
-0.000393359
0.000416925
-0.000398671
-0.000298812
0.000310211
-0.000404519
-0.00020652
0.000212368
-0.000409628
-0.00011995
0.00012506
-0.000418376
-4.16257e-05
5.03738e-05
-0.000435092
3.06907e-05
-1.39748e-05
-0.000462858
0.000104826
-7.7061e-05
-0.000503063
0.000190875
-0.00015067
-0.000555941
0.000295672
-0.000242795
-0.000613681
0.000412299
-0.000354559
-0.000654304
0.000519249
-0.000478627
-0.000647672
0.000585053
-0.000591685
-0.000581334
0.000586638
-0.000652976
-0.000464802
0.00052541
-0.000641942
-0.000324254
0.000433662
-0.000574211
-0.000186598
0.000333423
-0.000471079
-5.66834e-05
0.000226147
-0.000356061
9.43934e-05
0.000117292
-0.000268369
0.000262465
-6.41096e-06
-0.00016166
0.000407229
-0.000113859
-3.09054e-05
0.000521915
-0.000190255
7.5569e-05
0.000591198
-0.000211354
0.000142071
0.000614868
-0.000183318
0.000159648
0.000604053
-0.000120799
0.000131614
0.000568922
-4.1781e-05
7.69115e-05
0.000516258
3.34933e-05
1.91709e-05
0.000453907
8.65e-05
-2.41486e-05
0.000389801
0.00010567
-4.15641e-05
0.000329952
8.843e-05
-2.85818e-05
0.00027541
4.07261e-05
1.38162e-05
-2.95904e-05
8.35731e-05
3.22627e-05
5.70346e-05
8.4345e-05
7.61636e-05
0.000155127
8.20858e-05
0.000229312
5.89343e-05
0.000291741
1.14953e-05
0.000331196
-4.83422e-05
0.000345738
-0.000113823
0.000341671
-0.000180746
0.000314473
-0.000243682
0.000260969
-0.00029556
0.000186772
-0.000336941
9.99157e-05
-0.000365364
3.46522e-06
-0.000362315
-9.31599e-05
-0.000326672
-0.000178989
-0.000273315
-0.000279052
-0.000196558
-0.000448689
-0.000127704
-0.000657098
-2.87097e-05
-0.000893887
9.4825e-05
-0.00111585
0.000226042
-0.00128237
0.000365961
-0.00135428
0.000519134
-0.00128759
0.000636488
-0.00107178
0.000645609
-0.000773806
0.000567557
-0.000456376
0.000446702
-0.000190557
0.000325945
-3.73309e-06
0.000210411
0.000184345
0.000106015
0.000392333
2.60217e-05
0.000559455
-3.99452e-05
0.000686736
-0.000103234
0.000778637
-0.000141798
0.000829181
-0.000167189
0.000835045
-0.000179263
0.000801956
-0.000176428
0.00073781
-0.000165412
0.000647074
-0.000150991
0.000540398
-0.000134581
0.000439185
-0.000111565
0.000373779
-7.2021e-05
0.000366555
-9.05228e-06
0.00042619
5.69505e-05
0.000541878
0.00010666
0.000669918
0.000129493
0.000744246
0.000124706
0.00071547
8.48138e-05
0.00058456
-7.06167e-06
0.000388347
-0.000137603
0.000177887
-0.000275726
-9.34582e-06
-0.000378839
-0.000170254
-0.000431761
-0.000284019
-0.00044305
-0.000352149
-0.000414876
-0.000404705
-0.000340803
-0.000444384
-0.000259133
-0.00047549
-0.000175414
-0.0005034
-9.20404e-05
-0.000532732
-1.22937e-05
-0.000566688
6.46467e-05
-0.000609164
0.000147303
-0.000664309
0.00024602
-0.000728723
0.000360087
-0.000770865
0.00045444
-0.000748683
0.000497068
-0.000660617
0.000496987
-0.000541252
0.000467273
-0.00039019
0.000374348
-0.000238431
0.000281903
-9.47789e-05
0.000189772
5.00494e-05
8.13183e-05
0.000237897
-7.05557e-05
0.000430524
-0.000199038
0.000571149
-0.000254483
0.000635236
-0.000254343
0.000646093
-0.000222211
0.000623033
-0.000160258
0.000580687
-7.84537e-05
0.000524756
1.41498e-05
0.000465896
9.23535e-05
0.00041021
0.000142186
0.00036091
0.000154971
0.000317817
0.000131523
0.000278024
8.05185e-05
1.23448e-05
5.82486e-05
3.37434e-05
9.47202e-05
3.96921e-05
0.000139742
3.70637e-05
0.000180351
1.83262e-05
0.000209605
-1.77592e-05
0.000226863
-6.56003e-05
0.000231755
-0.000118715
0.000220865
-0.000169857
0.00018899
-0.000211806
0.000136392
-0.000242963
6.60402e-05
-0.000266589
-2.08538e-05
-0.00027847
-0.000120783
-0.000262386
-0.000233658
-0.000213798
-0.000353456
-0.000153517
-0.000447742
-0.000102272
-0.000553875
-2.15713e-05
-0.000675084
9.24998e-05
-0.000783429
0.00020317
-0.0008627
0.000305313
-0.000910657
0.000413918
-0.000919657
0.000528134
-0.000855363
0.000572194
-0.000714788
0.000505034
-0.000524682
0.000377451
-0.000316216
0.000238237
-0.00010532
0.00011505
7.95566e-05
2.55343e-05
0.000266184
-8.0612e-05
0.000479917
-0.000187711
0.000674917
-0.000234945
0.000792835
-0.000221153
0.000855333
-0.000204296
0.000865852
-0.000177707
0.000832112
-0.000145523
0.000766299
-0.000110614
0.000675654
-7.47673e-05
0.000567148
-4.24847e-05
0.000450119
-1.75518e-05
0.00033809
4.62948e-07
0.00024563
2.04391e-05
0.000187937
4.8641e-05
0.000176165
6.87228e-05
0.000215896
6.69288e-05
0.000302531
4.28579e-05
0.000419701
7.53634e-06
0.000523608
-1.90926e-05
0.000555757
-3.92111e-05
0.000491533
-7.33781e-05
0.000342403
-0.000126596
0.000158927
-0.000195363
-1.37525e-05
-0.000259081
-0.000173676
-0.000283126
-0.000308595
-0.000279957
-0.000402677
-0.000246721
-0.000475369
-0.00018644
-0.000537292
-0.000113491
-0.000595481
-3.38512e-05
-0.000656864
4.90894e-05
-0.000721959
0.000129742
-0.000786896
0.000212239
-0.000838014
0.000297138
-0.000850747
0.00037282
-0.000809594
0.000413287
-0.000691669
0.000379143
-0.000519006
0.000324323
-0.000343756
0.000292023
-0.000184341
0.000214934
-1.84228e-05
0.000115985
0.000186687
-1.5338e-05
0.000382703
-0.000114698
0.000518844
-0.000206696
0.000581322
-0.000261516
0.00059056
-0.000263722
0.000558578
-0.000222361
0.000501567
-0.000165199
0.000439642
-9.83324e-05
0.000387486
-2.62987e-05
0.000335666
6.59707e-05
0.000303364
0.000124655
0.000286921
0.000158629
0.00028129
0.000160603
0.000277648
0.000135165
0.0002674
9.07657e-05
3.47375e-05
6.19555e-05
1.54703e-05
8.43929e-05
1.72548e-05
0.000110666
1.07907e-05
0.000139831
-1.08393e-05
0.000163876
-4.18037e-05
0.00017596
-7.76843e-05
0.000174484
-0.000117239
0.000157998
-0.000153371
0.000126037
-0.000179845
7.9409e-05
-0.000196335
1.81963e-05
-0.000205377
-5.94184e-05
-0.000200855
-0.000146275
-0.000175529
-0.000232877
-0.000127196
-0.000324087
-6.23063e-05
-0.000422107
-4.25267e-06
-0.00051399
7.03118e-05
-0.000590758
0.000169268
-0.000654106
0.000266519
-0.000708466
0.000359672
-0.000758287
0.000463739
-0.000767491
0.000537338
-0.000687369
0.000492072
-0.000540707
0.000358372
-0.000390885
0.000227629
-0.000274871
0.000122223
-9.07773e-05
-6.90441e-05
0.000144222
-0.000209465
0.000371517
-0.000307908
0.000543391
-0.000359585
0.000672864
-0.000364418
0.00075877
-0.000307059
0.000787304
-0.000232831
0.000761864
-0.000152267
0.000697332
-8.09906e-05
0.000600738
-1.40206e-05
0.000490151
3.58198e-05
0.000376648
7.10182e-05
0.000266701
9.23952e-05
0.000168833
9.83309e-05
8.68417e-05
0.000102431
3.61596e-05
9.93232e-05
2.80409e-05
7.68414e-05
4.61043e-05
4.88654e-05
7.50528e-05
1.39094e-05
0.00011668
-3.40906e-05
0.000178521
-8.09337e-05
0.000250026
-0.000110716
0.000288228
-0.000111581
0.000268527
-0.000106895
0.000179346
-0.000106182
3.74986e-05
-0.000117234
-0.00011397
-0.000131657
-0.000257662
-0.000136265
-0.000390576
-0.000113807
-0.000504741
-7.22755e-05
-0.00060482
-1.34123e-05
-0.000701156
6.24847e-05
-0.000797368
0.000145302
-0.000869187
0.00020156
-0.000872078
0.000215131
-0.000795209
0.000220269
-0.000642208
0.000219819
-0.000458852
0.000229931
-0.000281125
0.000201416
-9.52255e-05
0.000138425
0.000118285
7.85124e-05
0.000308823
2.43954e-05
0.000448359
-2.35515e-05
0.000517956
-8.49346e-05
0.00053879
-0.000135533
0.000507314
-0.00017522
0.00043459
-0.000188792
0.000348778
-0.00017791
0.000263491
-0.000137074
0.000190001
-9.17096e-05
0.000136837
-4.51675e-05
0.000100746
9.79166e-06
8.58593e-05
8.08576e-05
0.000101075
0.00010944
0.000136284
0.00012342
0.000178926
0.000117961
0.000216925
9.71656e-05
0.0002379
6.9791e-05
3.70821e-05
5.27588e-05
3.77517e-06
7.30434e-05
-3.02976e-06
9.83388e-05
-1.45046e-05
0.000118266
-3.07664e-05
0.000130934
-5.44715e-05
0.000136906
-8.36566e-05
0.000132937
-0.00011327
0.000115863
-0.000136296
8.63582e-05
-0.000150341
4.59634e-05
-0.00015594
-8.59384e-06
-0.00015082
-7.79761e-05
-0.000131473
-0.00015119
-0.000102315
-0.000223079
-5.53062e-05
-0.000290919
5.53287e-06
-0.00036093
6.57588e-05
-0.000426558
0.000135939
-0.000481403
0.000224113
-0.000528115
0.000313231
-0.000568112
0.000399668
-0.000576433
0.00047206
-0.000528161
0.000489067
-0.000446831
0.000410741
-0.000343721
0.000255262
-0.000246712
0.000130621
-0.000119675
-4.81496e-06
3.30389e-05
-0.000221758
0.000199436
-0.000375861
0.000366614
-0.000475086
0.000497685
-0.000490656
0.000578433
-0.000445166
0.000596237
-0.000324862
0.000552159
-0.000188753
0.000488326
-8.84344e-05
0.000414742
-7.40657e-06
0.00031759
8.3131e-05
0.000223943
0.000129467
0.000132255
0.000162706
4.27797e-05
0.000181871
-3.47961e-05
0.000175907
-7.99631e-05
0.000147598
-8.85151e-05
0.000107875
-7.98689e-05
6.81953e-05
-6.5505e-05
3.45015e-05
-4.30813e-05
-8.51426e-06
-3.56853e-06
-7.36034e-05
2.93694e-05
-0.000113872
5.80331e-05
-0.00013938
6.02924e-05
-0.00011384
4.11287e-05
-8.77312e-05
3.71774e-06
-6.87712e-05
-6.18644e-05
-5.16517e-05
-0.000155708
-3.78137e-05
-0.000268861
-2.31125e-05
-0.000381826
-8.42571e-07
-0.000484655
3.0554e-05
-0.000558391
6.03231e-05
-0.000578493
8.25873e-05
-0.000531492
9.83008e-05
-0.000451732
0.000121799
-0.000364274
0.000127674
-0.000247405
0.0001034
-0.00010956
8.19736e-05
3.98286e-05
8.05422e-05
0.0001798
6.14445e-05
0.000282572
3.56526e-05
0.00035349
7.59443e-06
0.000394406
-1.65201e-05
0.00040762
-3.6766e-05
0.000381316
-5.86308e-05
0.000327645
-8.18612e-05
0.000253876
-0.000101451
0.00017477
-0.000109686
9.71467e-05
-0.000100287
3.29819e-05
-7.29094e-05
-2.47959e-05
-3.39318e-05
-6.90955e-05
-8.67952e-07
-9.1753e-05
3.24491e-05
-7.18694e-05
6.0974e-05
-2.93574e-05
6.69277e-05
2.61649e-05
6.78973e-05
8.04318e-05
6.36939e-05
0.000125299
5.2298e-05
0.000160243
3.48477e-05
1.23372e-05
4.84213e-05
-6.77608e-06
5.98497e-05
-1.44581e-05
7.17618e-05
-2.64167e-05
8.36361e-05
-4.26407e-05
9.23243e-05
-6.31598e-05
9.28543e-05
-8.41865e-05
8.2548e-05
-0.000102964
6.545e-05
-0.000119198
4.19699e-05
-0.00012686
9.59886e-06
-0.000123569
-3.56615e-05
-0.000105559
-9.55232e-05
-7.16114e-05
-0.000159421
-3.84169e-05
-0.000213358
-1.3693e-06
-0.000252145
4.43198e-05
-0.000279172
9.27859e-05
-0.000309115
0.000165883
-0.000333589
0.000248587
-0.000319831
0.000299473
-0.000268552
0.000348389
-0.000179635
0.000383144
-9.80982e-05
0.000407529
-5.11724e-05
0.000363816
-3.04822e-05
0.000234572
-4.78479e-06
0.000104924
6.41827e-05
-7.37824e-05
0.000115609
-0.000273184
0.000171949
-0.000432202
0.000221831
-0.000524968
0.000223295
-0.00049212
0.00020045
-0.00042232
0.000174964
-0.000299377
0.00013776
-0.000151549
9.75268e-05
-4.82008e-05
4.88921e-05
4.12282e-05
-1.05484e-05
0.000142571
-6.26438e-05
0.000181563
-9.77752e-05
0.000197837
-0.000107366
0.000191462
-9.37838e-05
0.000162324
-7.12282e-05
0.000125042
-5.03753e-05
8.70223e-05
-3.52085e-05
5.30285e-05
-2.59889e-05
2.52819e-05
-2.56912e-05
-8.81197e-06
-3.67503e-05
-6.25442e-05
-4.95908e-05
-0.000101031
-6.33948e-05
-0.000125576
-6.39409e-05
-0.000113294
-6.72668e-05
-8.44053e-05
-8.18741e-05
-5.41639e-05
-0.000104241
-2.92844e-05
-0.000130875
-1.11799e-05
-0.000153766
-2.21939e-07
-0.000159359
4.75051e-06
-0.000145791
1.69864e-05
-0.000115835
3.03667e-05
-8.25017e-05
4.92543e-05
-5.79345e-05
7.37336e-05
-3.3223e-05
9.70879e-05
-4.186e-06
9.86369e-05
1.84131e-05
8.08011e-05
3.77658e-05
6.2621e-05
7.8011e-05
4.02969e-05
0.000126463
1.29921e-05
0.000171383
-9.26729e-06
0.000200849
-2.1871e-05
0.000210406
-2.60771e-05
0.000201855
-2.82152e-05
0.000178
-3.47763e-05
0.000138874
-4.27343e-05
8.82768e-05
-5.08539e-05
2.5978e-05
-4.7387e-05
-3.96906e-05
-3.46181e-05
-9.20451e-05
-2.05549e-05
-0.000123987
-1.98986e-06
-0.00013518
1.03248e-05
-0.000121917
1.91863e-05
-8.74584e-05
2.65155e-05
-4.81209e-05
2.75901e-05
-4.39991e-06
2.41763e-05
3.85843e-05
2.07098e-05
7.48925e-05
1.59898e-05
9.79799e-05
1.17602e-05
6.08446e-06
3.33797e-05
-1.18072e-05
3.82067e-05
-1.92851e-05
4.17803e-05
-2.99903e-05
4.29903e-05
-4.38506e-05
4.03352e-05
-6.05046e-05
3.37821e-05
-7.76334e-05
2.30666e-05
-9.22481e-05
5.15938e-06
-0.000101291
-2.03426e-05
-0.000101358
-5.37822e-05
-9.01296e-05
-9.32577e-05
-6.60836e-05
-0.000129094
-3.5775e-05
-0.000161873
-5.63837e-06
-0.000184061
2.08191e-05
-0.000190902
5.11606e-05
-0.000192468
9.43517e-05
-0.000157463
0.000130878
-5.27672e-05
0.000143891
9.88069e-05
0.000147899
0.000206184
0.000241012
0.000200334
0.000388994
0.000176809
0.000431054
0.000183192
0.000357432
0.000204657
0.000213107
0.000248925
6.06554e-05
0.000280393
-0.00010525
0.000273083
-0.000265874
0.000224246
-0.000383365
0.000138125
-0.000438847
2.69258e-05
-0.000380921
-6.05706e-05
-0.000334824
-0.000130079
-0.000229868
-0.000164522
-0.000117106
-0.000181726
-3.0997e-05
-0.000190943
5.04453e-05
-0.000167489
0.000119118
-0.000128795
0.000142868
-7.94662e-05
0.000148509
-3.43722e-05
0.000146368
8.46195e-06
0.00011949
2.43038e-05
0.0001092
2.93649e-05
8.19612e-05
2.89662e-05
5.34272e-05
2.89845e-05
2.52637e-05
2.66243e-05
-6.45182e-06
9.05126e-06
-4.49711e-05
-1.23591e-05
-7.96207e-05
-3.13742e-05
-0.00010656
-4.17374e-05
-0.000102931
-3.61135e-05
-9.00291e-05
-2.35154e-05
-6.67621e-05
-8.09464e-06
-4.47052e-05
6.27156e-06
-2.55461e-05
1.41048e-05
-8.05522e-06
1.03988e-05
8.45661e-06
-5.0249e-06
3.24101e-05
-2.9179e-05
5.45208e-05
-5.42516e-05
7.4327e-05
-6.76187e-05
8.71007e-05
-5.8748e-05
8.82172e-05
-3.5297e-05
7.51859e-05
-7.6983e-06
5.32025e-05
2.23429e-05
3.25798e-05
5.69871e-05
5.65274e-06
8.77928e-05
-1.78136e-05
0.000102354
-2.38287e-05
0.000103877
-2.33938e-05
9.6521e-05
-1.87211e-05
8.32081e-05
-1.49023e-05
6.37079e-05
-1.52762e-05
3.76544e-05
-1.66808e-05
5.75036e-06
-1.89499e-05
-2.49363e-05
-1.67003e-05
-4.70185e-05
-1.2536e-05
-5.84981e-05
-9.07532e-06
-5.71147e-05
-3.3733e-06
-4.87027e-05
1.91286e-06
-3.573e-05
6.21354e-06
-1.86352e-05
9.42072e-06
-1.87499e-06
1.08299e-05
1.40426e-05
8.25865e-06
2.77185e-05
7.03388e-06
3.69331e-05
6.77526e-06
4.28331e-05
5.86018e-06
3.74587e-06
1.0574e-05
-1.0275e-05
6.88613e-06
-1.55973e-05
-2.35002e-08
-2.30805e-05
-1.11674e-05
-3.27068e-05
-2.72824e-05
-4.43896e-05
-4.78968e-05
-5.70191e-05
-7.09296e-05
-6.92153e-05
-9.653e-05
-7.56906e-05
-0.000125598
-7.22907e-05
-0.000157374
-5.83534e-05
-0.000186257
-3.72007e-05
-0.000207643
-1.43888e-05
-0.000211782
-1.49919e-06
-0.000189675
-1.28758e-06
-0.000126306
-1.22083e-05
-2.28001e-05
-9.15447e-06
9.74422e-05
1.06357e-05
0.000164333
7.70008e-05
0.000124152
0.00018808
0.000107581
0.000257583
0.000126033
0.000370542
0.000217614
0.000339474
0.000321633
0.000253413
0.000394025
0.000140715
0.000418326
3.63543e-05
0.000401855
-8.87787e-05
0.000334035
-0.000198054
0.000226406
-0.000275736
8.74594e-05
-0.0002999
-2.79717e-05
-0.00026549
-0.000134927
-0.000227869
-0.000202766
-0.000162028
-0.000231211
-8.86614e-05
-0.000238233
-2.3975e-05
-0.00021685
2.90617e-05
-0.000170023
7.2291e-05