/*--------------------------------*- C++ -*----------------------------------*\
| =========                 |                                                 |
| \\      /  F ield         | OpenFOAM: The Open Source CFD Toolbox           |
|  \\    /   O peration     | Version:  2206                                  |
|   \\  /    A nd           | Website:  www.openfoam.com                      |
|    \\/     M anipulation  |                                                 |
\*---------------------------------------------------------------------------*/
FoamFile
{
    version     2.0;
    format      ascii;
    arch        "LSB;label=32;scalar=64";
    class       volScalarField;
    location    "18.5001";
    object      p;
}
// * * * * * * * * * * * * * * * * * * * * * * * * * * * * * * * * * * * * * //

dimensions      [0 2 -2 0 0 0 0];

internalField   nonuniform List<scalar> 
1848
(
2.12885
2.12855
2.12777
2.12656
2.12501
2.12319
2.12114
2.11887
2.11642
2.11382
2.11109
2.10824
2.1053
2.10227
2.09916
2.09599
2.09275
2.08946
2.08613
2.08275
2.07933
2.07588
2.07239
2.06889
2.06536
2.06181
2.05825
2.05468
2.0511
2.04752
2.04395
2.04039
2.03684
2.0333
2.0298
2.02631
2.02287
2.01946
2.0161
2.01278
2.00952
2.00631
2.00317
2.00009
1.99708
1.99414
1.99127
1.98848
1.98577
1.98313
1.98058
1.97811
1.97572
1.97341
1.97119
1.96905
1.96699
1.96502
1.96314
1.96134
1.95964
1.95804
1.95653
1.95513
1.95384
1.95267
1.95163
1.95073
1.94998
1.94942
1.94906
1.94892
1.94903
1.94942
1.95014
1.95124
1.95275
1.95475
1.95731
1.96052
1.96446
1.96925
1.97502
1.98191
1.99009
1.99975
2.01109
2.02434
2.03972
2.05744
2.07771
2.10062
2.12611
2.15379
2.18277
2.21113
2.23543
2.24869
2.24097
2.18319
2.07408
1.5783
2.12741
2.12713
2.12642
2.12531
2.12387
2.12217
2.12023
2.11808
2.11573
2.11322
2.11057
2.10779
2.10491
2.10193
2.09887
2.09573
2.09253
2.08928
2.08597
2.08261
2.07922
2.07579
2.07232
2.06884
2.06532
2.0618
2.05825
2.0547
2.05115
2.04759
2.04404
2.04049
2.03696
2.03345
2.02996
2.0265
2.02307
2.01969
2.01634
2.01304
2.0098
2.00661
2.00348
2.00042
1.99742
1.99449
1.99164
1.98886
1.98615
1.98353
1.98099
1.97852
1.97614
1.97385
1.97163
1.96951
1.96747
1.96552
1.96366
1.96189
1.96022
1.95866
1.9572
1.95585
1.95463
1.95354
1.95259
1.9518
1.95118
1.95076
1.95056
1.95063
1.95097
1.95164
1.95269
1.95416
1.95612
1.95865
1.96183
1.96578
1.97061
1.97646
1.98351
1.99195
2.00202
2.01399
2.02816
2.04491
2.06464
2.08783
2.11497
2.14661
2.18325
2.22531
2.273
2.32599
2.38313
2.44153
2.49567
2.53344
2.53542
2.44373
2.12635
2.12609
2.12543
2.12438
2.12303
2.12141
2.11956
2.11748
2.1152
2.11276
2.11016
2.10744
2.1046
2.10167
2.09864
2.09554
2.09237
2.08913
2.08585
2.08251
2.07913
2.07572
2.07227
2.0688
2.0653
2.06179
2.05826
2.05473
2.05118
2.04764
2.04411
2.04058
2.03706
2.03357
2.03009
2.02665
2.02324
2.01986
2.01653
2.01325
2.01002
2.00684
2.00373
2.00067
1.99768
1.99477
1.99192
1.98915
1.98646
1.98384
1.9813
1.97885
1.97648
1.97419
1.97199
1.96988
1.96785
1.96592
1.96408
1.96234
1.9607
1.95917
1.95775
1.95645
1.95528
1.95426
1.95339
1.95268
1.95217
1.95186
1.95181
1.95203
1.95257
1.95347
1.95477
1.95655
1.95887
1.96183
1.96552
1.97007
1.97562
1.98234
1.99043
2.00014
2.01174
2.02559
2.04208
2.06171
2.08503
2.11272
2.14555
2.18441
2.23027
2.28417
2.34707
2.41965
2.50196
2.5927
2.68819
2.78092
2.85674
2.89832
2.12566
2.12541
2.12477
2.12377
2.12247
2.12091
2.1191
2.11707
2.11485
2.11245
2.10989
2.10721
2.1044
2.10149
2.09849
2.09541
2.09225
2.08904
2.08576
2.08244
2.07908
2.07567
2.07224
2.06878
2.06529
2.06179
2.05827
2.05474
2.05121
2.04768
2.04415
2.04063
2.03713
2.03364
2.03018
2.02675
2.02334
2.01998
2.01666
2.01339
2.01017
2.007
2.00389
2.00085
1.99787
1.99496
1.99212
1.98935
1.98667
1.98406
1.98153
1.97908
1.97672
1.97444
1.97225
1.97015
1.96814
1.96622
1.9644
1.96268
1.96106
1.95955
1.95817
1.95691
1.95578
1.95481
1.954
1.95337
1.95294
1.95272
1.95276
1.95311
1.95379
1.95486
1.95636
1.95836
1.96095
1.96422
1.96829
1.97328
1.97935
1.9867
1.99555
2.00617
2.01889
2.0341
2.05228
2.07398
2.0999
2.13084
2.16777
2.21183
2.2643
2.32661
2.40016
2.48616
2.58509
2.6959
2.8146
2.93238
3.03326
3.09507
2.12445
2.12347
2.12219
2.12065
2.11887
2.11687
2.11467
2.11229
2.10976
2.10709
2.1043
2.1014
2.09841
2.09534
2.0922
2.08899
2.08572
2.08241
2.07905
2.07565
2.07222
2.06877
2.06529
2.06179
2.05827
2.05475
2.05123
2.0477
2.04418
2.04067
2.03717
2.03369
2.03023
2.0268
2.02341
2.02005
2.01673
2.01347
2.01025
2.00709
2.00399
2.00095
1.99797
1.99507
1.99223
1.98947
1.98679
1.98419
1.98167
1.97923
1.97687
1.9746
1.97242
1.97032
1.96832
1.96642
1.96461
1.9629
1.9613
1.95982
1.95845
1.95722
1.95612
1.95519
1.95441
1.95383
1.95345
1.95331
1.95342
1.95384
1.95461
1.95578
1.9574
1.95955
1.96231
1.96577
1.97006
1.97531
1.9817
1.98942
1.99871
2.00986
2.02321
2.0392
2.05831
2.08118
2.10853
2.14127
2.18045
2.22733
2.28337
2.35015
2.42931
2.52223
2.62953
2.75007
2.87944
3.00792
3.11799
3.18641
2.21834
2.18481
2.16266
2.15335
2.14787
2.14232
2.13681
2.13179
2.1273
2.12313
2.11913
2.11524
2.11144
2.10769
2.10395
2.10021
2.09647
2.09273
2.08898
2.08522
2.08143
2.07762
2.0738
2.06996
2.0661
2.06223
2.05836
2.05447
2.05044
2.04629
2.04217
2.0381
2.03405
2.03002
2.02603
2.02208
2.01818
2.01433
2.01055
2.00684
2.00321
1.99968
1.99623
1.99289
1.98964
1.9865
1.98347
1.98056
1.97775
1.97504
1.97245
1.96995
1.96754
1.96522
1.96298
1.96081
1.9587
1.95664
1.95463
1.95265
1.95069
1.94875
1.9468
1.94484
1.94285
1.94083
1.93876
1.93662
1.9344
1.93211
1.92972
1.9272
1.92455
1.92173
1.9187
1.91543
1.91186
1.90793
1.90357
1.8987
1.89322
1.88699
1.87985
1.8716
1.86201
1.85075
1.83745
1.82163
1.80269
1.77987
1.75222
1.7186
1.67755
1.62777
1.56793
1.49561
1.40827
1.30433
1.18226
1.04059
0.878935
0.698799
2.18274
2.16954
2.15696
2.15005
2.14508
2.14008
2.13509
2.13044
2.12616
2.12214
2.11826
2.11451
2.11084
2.10716
2.10346
2.09976
2.09607
2.09237
2.08866
2.08493
2.08118
2.07741
2.07362
2.06981
2.06599
2.06215
2.05828
2.05438
2.0504
2.04636
2.04231
2.03829
2.03429
2.0303
2.02635
2.02243
2.01856
2.01475
2.011
2.00732
2.00371
2.0002
1.99677
1.99345
1.99022
1.98708
1.98405
1.98113
1.97831
1.97561
1.973
1.9705
1.96808
1.96575
1.9635
1.96131
1.95919
1.95713
1.9551
1.95311
1.95115
1.94919
1.94724
1.94528
1.94329
1.94127
1.93921
1.93708
1.93491
1.93266
1.93029
1.92779
1.92516
1.92239
1.91942
1.91622
1.91273
1.90889
1.90463
1.89986
1.89449
1.8884
1.88141
1.87335
1.86396
1.85292
1.83986
1.8243
1.80566
1.78313
1.75573
1.72236
1.68178
1.63258
1.57301
1.49953
1.40993
1.3039
1.17905
1.03305
0.865521
0.67842
2.16762
2.16311
2.15565
2.14913
2.14396
2.13922
2.13453
2.13005
2.12581
2.12178
2.11784
2.11407
2.1105
2.10687
2.10318
2.09949
2.0958
2.09212
2.08842
2.08472
2.08099
2.07723
2.07345
2.06966
2.06586
2.06203
2.05818
2.05431
2.05042
2.0465
2.04255
2.0386
2.03467
2.03075
2.02687
2.02302
2.01922
2.01546
2.01177
2.00814
2.00458
2.00111
1.99771
1.99441
1.9912
1.98808
1.98506
1.98215
1.97934
1.97662
1.97401
1.97149
1.96905
1.9667
1.96443
1.96222
1.96008
1.958
1.95596
1.95396
1.95199
1.95005
1.94811
1.94617
1.94423
1.94227
1.94028
1.93825
1.93617
1.93402
1.9318
1.92949
1.92708
1.92455
1.92187
1.91897
1.91582
1.91237
1.90857
1.90433
1.89957
1.89415
1.88793
1.88072
1.87227
1.86229
1.85043
1.83627
1.81925
1.79845
1.77262
1.74064
1.70149
1.65369
1.5952
1.52055
1.4278
1.31808
1.18746
1.03265
0.853037
0.651179
2.15738
2.15503
2.15006
2.14478
2.14027
2.13618
2.1321
2.12807
2.12414
2.12035
2.11665
2.11305
2.10951
2.10595
2.10236
2.09877
2.09517
2.09157
2.08794
2.0843
2.08062
2.07692
2.0732
2.06945
2.06568
2.06188
2.05803
2.05418
2.05039
2.0466
2.04275
2.03888
2.03502
2.03118
2.02737
2.02359
2.01985
2.01617
2.01254
2.00896
2.00544
2.002
1.99865
1.99538
1.99221
1.98912
1.98612
1.98322
1.98042
1.97773
1.97513
1.97262
1.97018
1.96781
1.96553
1.96332
1.96117
1.95909
1.95706
1.95507
1.95312
1.9512
1.9493
1.94742
1.94555
1.94367
1.94179
1.93989
1.93795
1.93598
1.93398
1.93193
1.92981
1.92759
1.92527
1.9228
1.92016
1.91731
1.91418
1.91071
1.90682
1.90241
1.89734
1.89141
1.88441
1.87603
1.86595
1.85383
1.83916
1.82082
1.79712
1.76706
1.73001
1.68408
1.62612
1.55238
1.46009
1.34663
1.20786
1.0405
0.843231
0.6194
2.14981
2.14847
2.14535
2.14151
2.13778
2.1342
2.13059
2.12693
2.12328
2.11968
2.1161
2.11257
2.10906
2.10555
2.10202
2.09848
2.09493
2.09135
2.08775
2.08413
2.08049
2.07682
2.07314
2.06943
2.06569
2.06193
2.05816
2.05439
2.05063
2.04685
2.04305
2.03923
2.03543
2.03165
2.02789
2.02417
2.0205
2.01686
2.01328
2.00975
2.00628
2.00289
1.99959
1.99636
1.9932
1.99013
1.98715
1.98425
1.98143
1.97876
1.97619
1.97369
1.97126
1.96889
1.9666
1.96439
1.96224
1.96016
1.95813
1.95616
1.95423
1.95234
1.95049
1.94867
1.94688
1.9451
1.94333
1.94157
1.93981
1.93805
1.93628
1.9345
1.93271
1.93087
1.92899
1.92704
1.925
1.92282
1.92047
1.91791
1.91506
1.91184
1.90812
1.90376
1.89859
1.89221
1.88434
1.87479
1.86281
1.84739
1.8274
1.80174
1.769
1.72689
1.67229
1.60146
1.51011
1.39348
1.24593
1.06275
0.839507
0.582657
2.14411
2.14327
2.14113
2.13818
2.13502
2.13183
2.12857
2.12522
2.12183
2.11842
2.11502
2.11162
2.10821
2.10479
2.10135
2.09789
2.0944
2.09088
2.08734
2.08377
2.08018
2.07656
2.07292
2.06926
2.06558
2.06188
2.05816
2.05443
2.0507
2.04695
2.04321
2.03946
2.03572
2.032
2.02831
2.02465
2.02102
2.01744
2.01391
2.01043
2.00702
2.00367
2.0004
1.9972
1.99407
1.99103
1.98808
1.98521
1.98243
1.97976
1.97718
1.97466
1.97222
1.96986
1.96758
1.96537
1.96324
1.96117
1.95916
1.95721
1.95532
1.95347
1.95168
1.94993
1.94822
1.94654
1.94491
1.9433
1.94172
1.94018
1.93867
1.93718
1.93571
1.93426
1.93283
1.93142
1.93
1.92853
1.92702
1.92542
1.92371
1.9218
1.91957
1.91691
1.9137
1.90972
1.9047
1.89827
1.88985
1.87865
1.86366
1.84355
1.81659
1.78036
1.73156
1.66586
1.57777
1.46071
1.30626
1.10656
0.84741
0.538624
2.13962
2.13901
2.13742
2.13511
2.13247
2.12968
2.12677
2.12374
2.1206
2.11741
2.11418
2.11091
2.10761
2.10428
2.10091
2.09751
2.09407
2.0906
2.08711
2.08358
2.08002
2.07644
2.07283
2.0692
2.06556
2.06189
2.0582
2.05451
2.05081
2.04711
2.04341
2.03971
2.03602
2.03235
2.0287
2.02509
2.02151
2.01797
2.01448
2.01105
2.00768
2.00437
2.00113
1.99796
1.99487
1.99185
1.98892
1.98607
1.98331
1.98063
1.97805
1.97554
1.97311
1.97076
1.96849
1.96629
1.96417
1.96211
1.96013
1.95821
1.95635
1.95455
1.95282
1.95114
1.94951
1.94794
1.94643
1.94498
1.94359
1.94226
1.94099
1.9398
1.93868
1.93763
1.93667
1.93579
1.93499
1.93427
1.93361
1.93302
1.93246
1.93191
1.93129
1.93056
1.9296
1.92827
1.92633
1.92347
1.91924
1.91299
1.90378
1.89034
1.87094
1.84307
1.80314
1.74608
1.66501
1.5508
1.39207
1.17782
0.88217
0.521813
2.13601
2.13553
2.13429
2.13242
2.13018
2.12773
2.12509
2.1223
2.11938
2.11637
2.11328
2.11013
2.10693
2.10368
2.10038
2.09704
2.09366
2.09024
2.08679
2.0833
2.07979
2.07624
2.07267
2.06908
2.06547
2.06184
2.05819
2.05454
2.05088
2.04722
2.04356
2.0399
2.03626
2.03263
2.02903
2.02546
2.02192
2.01843
2.01498
2.01158
2.00824
2.00496
2.00175
1.99861
1.99554
1.99255
1.98964
1.9868
1.98405
1.98139
1.97881
1.97631
1.97389
1.97155
1.96929
1.9671
1.96499
1.96296
1.961
1.95911
1.95729
1.95555
1.95387
1.95226
1.95073
1.94927
1.94789
1.94659
1.94537
1.94425
1.94324
1.94233
1.94155
1.9409
1.94039
1.94005
1.93987
1.93988
1.94009
1.9405
1.94114
1.94198
1.94304
1.94427
1.94565
1.94708
1.94843
1.9495
1.94995
1.94931
1.94682
1.94143
1.93153
1.91472
1.88736
1.84374
1.77546
1.66889
1.5068
1.26406
0.918201
0.519202
2.13309
2.13269
2.13166
2.1301
2.12816
2.12597
2.12358
2.121
2.11827
2.11541
2.11246
2.10943
2.10633
2.10316
2.09994
2.09666
2.09333
2.08996
2.08655
2.08311
2.07963
2.07612
2.07258
2.06902
2.06544
2.06184
2.05823
2.05461
2.05098
2.04735
2.04372
2.0401
2.03649
2.0329
2.02933
2.0258
2.0223
2.01883
2.01542
2.01205
2.00874
2.00549
2.00231
1.99919
1.99614
1.99317
1.99028
1.98746
1.98472
1.98207
1.9795
1.97701
1.9746
1.97226
1.97001
1.96784
1.96575
1.96374
1.9618
1.95995
1.95817
1.95647
1.95486
1.95332
1.95187
1.95052
1.94926
1.9481
1.94706
1.94614
1.94536
1.94473
1.94427
1.94399
1.94393
1.9441
1.94453
1.94525
1.9463
1.9477
1.94951
1.95175
1.95446
1.95767
1.96141
1.96567
1.97044
1.97563
1.98109
1.98653
1.99148
1.99517
1.99639
1.99314
1.98227
1.9583
1.91274
1.82762
1.67932
1.39606
0.937959
0.149708
2.13073
2.13039
2.12951
2.12815
2.12644
2.12446
2.12225
2.11985
2.11728
2.11456
2.11173
2.1088
2.10578
2.10268
2.09952
2.0963
2.09302
2.08969
2.08632
2.08291
2.07946
2.07598
2.07247
2.06894
2.06539
2.06181
2.05823
2.05463
2.05104
2.04743
2.04384
2.04025
2.03667
2.03311
2.02958
2.02607
2.0226
2.01917
2.01578
2.01245
2.00916
2.00594
2.00277
1.99968
1.99665
1.99369
1.99081
1.98801
1.98529
1.98264
1.98008
1.9776
1.9752
1.97288
1.97064
1.96849
1.96641
1.96442
1.96251
1.96069
1.95895
1.9573
1.95574
1.95428
1.95291
1.95165
1.95051
1.94948
1.9486
1.94787
1.94731
1.94694
1.94677
1.94685
1.9472
1.94786
1.94886
1.95025
1.95209
1.95443
1.95735
1.96092
1.96523
1.97035
1.97639
1.98344
1.99159
2.00091
2.01144
2.02312
2.03581
2.04916
2.06249
2.07454
2.08319
2.08449
2.0722
2.03155
1.9438
1.71224
1.27022
-0.389677
0.503914
0.300196
0.095399
-0.102341
-0.286947
-0.454923
-0.604356
-0.734519
-0.845731
-0.939037
-1.01679
-1.08035
-1.1314
-1.17091
-1.1999
-1.21969
-1.23211
-1.23821
-1.23888
-1.23509
-1.22786
-1.21813
-1.20669
-1.19418
-1.18109
-1.16781
-1.15458
-1.14158
-1.12892
-1.11662
-1.10471
-1.0932
0.476194
0.265862
0.0568087
-0.14199
-0.325547
-0.491359
-0.637784
-0.764432
-0.872348
-0.963187
-1.0377
-1.09814
-1.146
-1.18336
-1.21099
-1.23017
-1.24172
-1.2466
-1.24605
-1.24112
-1.23285
-1.2222
-1.20999
-1.19687
-1.18334
-1.16974
-1.15632
-1.14323
-1.13054
-1.11825
-1.10638
-1.09494
0.432477
0.207155
-0.0105165
-0.211693
-0.394935
-0.558241
-0.700154
-0.821269
-0.923373
-1.00814
-1.07746
-1.13346
-1.17777
-1.21145
-1.23616
-1.25284
-1.26191
-1.26415
-1.26085
-1.25334
-1.24278
-1.23011
-1.21619
-1.20174
-1.1872
-1.1729
-1.15915
-1.14605
-1.13349
-1.12137
-1.10967
-1.09845
0.374713
0.123676
-0.109768
-0.316339
-0.500135
-0.65861
-0.791859
-0.902933
-0.99526
-1.07104
-1.13243
-1.18185
-1.22055
-1.24963
-1.27011
-1.28329
-1.28929
-1.28786
-1.2805
-1.2692
-1.25525
-1.23965
-1.22334
-1.20706
-1.19121
-1.17588
-1.16153
-1.14833
-1.13594
-1.12408
-1.11252
-1.10133
0.296882
0.00858904
-0.24002
-0.451166
-0.637709
-0.791241
-0.914079
-1.01137
-1.08929
-1.15202
-1.20272
-1.24334
-1.27503
-1.29838
-1.31279
-1.32038
-1.322
-1.31585
-1.30318
-1.28651
-1.26787
-1.24857
-1.22926
-1.21082
-1.19355
-1.17757
-1.16302
-1.14977
-1.13747
-1.12578
-1.11451
-1.10358
0.168562
-0.181403
-0.432435
-0.639646
-0.818396
-0.959978
-1.06913
-1.14907
-1.20625
-1.24995
-1.28655
-1.3167
-1.34045
-1.35792
-1.36849
-1.37124
-1.3661
-1.35301
-1.33341
-1.31011
-1.2856
-1.26128
-1.23758
-1.21605
-1.19668
-1.17947
-1.16428
-1.15075
-1.13844
-1.12692
-1.11592
-1.1054
-0.013065
-0.474139
-0.737178
-0.93846
-1.08473
-1.18138
-1.25392
-1.3031
-1.33387
-1.35456
-1.3723
-1.38906
-1.40295
-1.41322
-1.41986
-1.41937
-1.40832
-1.3876
-1.36006
-1.32966
-1.29911
-1.26932
-1.24176
-1.21732
-1.1961
-1.17827
-1.16328
-1.1504
-1.13888
-1.12801
-1.1174
-1.10687
-0.231417
-0.79043
-1.07819
-1.29183
-1.40454
-1.444
-1.45951
-1.46793
-1.4691
-1.46417
-1.4621
-1.46552
-1.47252
-1.47848
-1.48006
-1.47375
-1.45594
-1.4267
-1.38984
-1.35065
-1.31244
-1.27634
-1.24417
-1.21627
-1.19309
-1.17452
-1.15974
-1.14766
-1.13712
-1.1271
-1.11702
-1.10662
-1.0555
-1.24147
-1.33278
-1.54561
-1.59884
-1.57728
-1.54729
-1.52187
-1.49932
-1.48215
-1.47411
-1.47399
-1.48037
-1.49023
-1.49797
-1.49521
-1.47563
-1.44337
-1.40399
-1.36165
-1.31963
-1.28034
-1.24554
-1.21607
-1.19216
-1.17342
-1.15887
-1.14725
-1.1372
-1.12746
-1.11724
-1.10636
-3.65968
-2.41941
-1.59732
-1.62711
-1.61674
-1.5943
-1.56841
-1.54146
-1.51534
-1.49439
-1.48229
-1.47822
-1.47967
-1.48343
-1.48482
-1.47803
-1.46062
-1.43271
-1.39715
-1.35759
-1.31724
-1.2789
-1.24443
-1.21469
-1.19024
-1.17104
-1.15602
-1.14396
-1.13364
-1.12384
-1.11368
-1.10296
)
;

boundaryField
{
    inlet
    {
        type            zeroGradient;
    }
    outlet
    {
        type            fixedValue;
        value           nonuniform List<scalar> 0();
    }
    topWall
    {
        type            zeroGradient;
    }
    lowerWall
    {
        type            zeroGradient;
    }
    leadingEdge
    {
        type            zeroGradient;
    }
    trailingEdge
    {
        type            zeroGradient;
    }
    upperSurface
    {
        type            zeroGradient;
    }
    lowerSurface
    {
        type            zeroGradient;
    }
    frontAndBack
    {
        type            empty;
    }
    procBoundary0to1
    {
        type            processor;
        value           nonuniform List<scalar> 10(-1.08209 -1.08396 -1.08784 -1.09092 -1.0934 -1.09545 -1.09667 -1.09627 -1.09529 -1.09212);
    }
    procBoundary0to4
    {
        type            processor;
        value           nonuniform List<scalar> 
103
(
2.12532
2.12508
2.12508
2.12445
2.12347
2.12219
2.12065
2.11888
2.11687
2.11467
2.11229
2.10976
2.10709
2.1043
2.1014
2.09841
2.09534
2.0922
2.08899
2.08572
2.08241
2.07905
2.07566
2.07223
2.06877
2.06529
2.06179
2.05828
2.05476
2.05123
2.04771
2.04418
2.04067
2.03717
2.03369
2.03024
2.02681
2.02342
2.02006
2.01675
2.01348
2.01027
2.00711
2.00401
2.00097
1.998
1.99509
1.99226
1.98951
1.98683
1.98423
1.98171
1.97928
1.97693
1.97466
1.97248
1.9704
1.9684
1.96651
1.96471
1.96301
1.96142
1.95995
1.9586
1.95738
1.95631
1.95539
1.95464
1.95407
1.95373
1.95362
1.95375
1.9542
1.95501
1.95623
1.9579
1.96009
1.96291
1.96643
1.97079
1.97612
1.98259
1.99041
1.9998
2.01107
2.02456
2.04069
2.05997
2.08302
2.11058
2.14354
2.18299
2.23016
2.28653
2.35369
2.43327
2.52668
2.6345
2.75564
2.88565
3.01477
3.12543
3.19423
)
;
    }
}


// ************************************************************************* //
