/*--------------------------------*- C++ -*----------------------------------*\
| =========                 |                                                 |
| \\      /  F ield         | OpenFOAM: The Open Source CFD Toolbox           |
|  \\    /   O peration     | Version:  2206                                  |
|   \\  /    A nd           | Website:  www.openfoam.com                      |
|    \\/     M anipulation  |                                                 |
\*---------------------------------------------------------------------------*/
FoamFile
{
    version     2.0;
    format      ascii;
    arch        "LSB;label=32;scalar=64";
    class       surfaceScalarField;
    location    "19.8";
    object      phi;
}
// * * * * * * * * * * * * * * * * * * * * * * * * * * * * * * * * * * * * * //

dimensions      [0 3 -1 0 0 0 0];

oriented        oriented;

internalField   nonuniform List<scalar> 
5892
(
1.006e-06
-1.09433e-06
8.83223e-08
2.16871e-06
-1.55387e-06
3.91162e-07
3.35396e-06
-1.83374e-06
6.48491e-07
4.53131e-06
-1.94475e-06
7.67402e-07
5.66796e-06
-1.823e-06
6.86339e-07
6.78427e-06
-1.39729e-06
2.80983e-07
7.87865e-06
-5.46619e-07
-5.4777e-07
8.78833e-06
8.59825e-07
-1.7695e-06
9.30961e-06
2.45512e-06
-2.9764e-06
9.47839e-06
3.76002e-06
-3.92881e-06
9.39731e-06
4.65997e-06
-4.57889e-06
9.15535e-06
5.19652e-06
-4.95456e-06
8.80824e-06
5.4456e-06
-5.09848e-06
8.39793e-06
5.45976e-06
-5.04945e-06
7.9676e-06
5.2941e-06
-4.86376e-06
7.54066e-06
5.01998e-06
-4.59304e-06
7.13681e-06
4.6767e-06
-4.27285e-06
6.76717e-06
4.28671e-06
-3.91707e-06
6.38984e-06
3.90237e-06
-3.52505e-06
5.90584e-06
3.6184e-06
-3.13441e-06
5.28568e-06
3.45219e-06
-2.83202e-06
4.68337e-06
3.24092e-06
-2.63862e-06
4.30732e-06
2.79095e-06
-2.4149e-06
4.24239e-06
2.05113e-06
-1.9862e-06
4.45959e-06
1.08853e-06
-1.30573e-06
4.86016e-06
4.00798e-08
-4.40648e-07
5.33368e-06
-9.48006e-07
4.74494e-07
5.81822e-06
-1.80406e-06
1.31951e-06
6.27871e-06
-2.50794e-06
2.04745e-06
6.69161e-06
-3.06213e-06
2.64923e-06
7.04347e-06
-3.48446e-06
3.1326e-06
7.32881e-06
-3.80247e-06
3.51713e-06
7.5501e-06
-4.04842e-06
3.82713e-06
7.71896e-06
-4.25145e-06
4.08259e-06
7.8532e-06
-4.42246e-06
4.28822e-06
7.97451e-06
-4.54928e-06
4.42796e-06
8.11426e-06
-4.60127e-06
4.46152e-06
8.31746e-06
-4.52684e-06
4.32364e-06
8.58341e-06
-4.21182e-06
3.94587e-06
8.9099e-06
-3.63267e-06
3.30618e-06
9.28455e-06
-2.80558e-06
2.43094e-06
9.67586e-06
-1.78952e-06
1.39821e-06
1.00362e-05
-6.99802e-07
3.39415e-07
1.03349e-05
3.36186e-07
-6.34802e-07
1.05543e-05
1.24351e-06
-1.46291e-06
1.06894e-05
1.98192e-06
-2.11703e-06
1.07457e-05
2.54167e-06
-2.59797e-06
1.07347e-05
2.93515e-06
-2.92415e-06
1.06693e-05
3.18573e-06
-3.12031e-06
1.05566e-05
3.32096e-06
-3.20832e-06
1.04048e-05
3.3609e-06
-3.20904e-06
1.02281e-05
3.32927e-06
-3.1526e-06
1.00364e-05
3.25484e-06
-3.06311e-06
9.83489e-06
3.15846e-06
-2.95698e-06
9.62517e-06
3.05559e-06
-2.84587e-06
9.40548e-06
2.95921e-06
-2.73952e-06
9.17283e-06
2.88023e-06
-2.64758e-06
8.926e-06
2.8245e-06
-2.57767e-06
8.66842e-06
2.7873e-06
-2.52972e-06
8.40914e-06
2.74994e-06
-2.49066e-06
8.16165e-06
2.68232e-06
-2.43483e-06
7.94051e-06
2.55073e-06
-2.32959e-06
7.75761e-06
2.32848e-06
-2.14558e-06
7.62044e-06
2.00415e-06
-1.86698e-06
7.53242e-06
1.58369e-06
-1.49567e-06
7.49359e-06
1.08736e-06
-1.04854e-06
7.50098e-06
5.44464e-07
-5.5185e-07
7.54834e-06
-1.11139e-08
-3.62463e-08
7.62882e-06
-5.49364e-07
4.68884e-07
7.73519e-06
-1.05145e-06
9.45086e-07
7.85971e-06
-1.50394e-06
1.37942e-06
7.99479e-06
-1.8989e-06
1.76382e-06
8.13357e-06
-2.23348e-06
2.09471e-06
8.27047e-06
-2.50924e-06
2.37233e-06
8.40132e-06
-2.7304e-06
2.59955e-06
8.52327e-06
-2.90271e-06
2.78076e-06
8.63474e-06
-3.03228e-06
2.92081e-06
-3.12467e-06
3.02369e-06
7.34082e-07
-1.82841e-06
1.65395e-06
-2.47374e-06
2.58837e-06
-2.76816e-06
3.54047e-06
-2.89685e-06
4.48826e-06
-2.77079e-06
5.36377e-06
-2.2728e-06
6.16692e-06
-1.34977e-06
6.93303e-06
9.37178e-08
7.5301e-06
1.85805e-06
7.88239e-06
3.40773e-06
8.01166e-06
4.5307e-06
7.97506e-06
5.23312e-06
7.81624e-06
5.60442e-06
7.5612e-06
5.7148e-06
7.2332e-06
5.6221e-06
6.88055e-06
5.37263e-06
6.53532e-06
5.02193e-06
6.16318e-06
4.65884e-06
5.67051e-06
4.39504e-06
5.03585e-06
4.25307e-06
4.41859e-06
4.06944e-06
4.02403e-06
3.63549e-06
3.93561e-06
2.87936e-06
4.13842e-06
1.84832e-06
4.5508e-06
6.76155e-07
5.05732e-06
-4.66445e-07
5.58434e-06
-1.47502e-06
6.091e-06
-2.31072e-06
6.549e-06
-2.96595e-06
6.94097e-06
-3.4541e-06
7.25849e-06
-3.80198e-06
7.49925e-06
-4.04323e-06
7.66603e-06
-4.21521e-06
7.76998e-06
-4.35539e-06
7.83033e-06
-4.48281e-06
7.86909e-06
-4.58804e-06
7.91043e-06
-4.64262e-06
7.99651e-06
-4.61292e-06
8.149e-06
-4.3643e-06
8.37322e-06
-3.85689e-06
8.66527e-06
-3.09763e-06
9.00408e-06
-2.12832e-06
9.34865e-06
-1.04438e-06
9.66103e-06
2.38046e-08
9.91817e-06
9.86375e-07
1.01062e-05
1.79384e-06
1.02229e-05
2.42506e-06
1.02736e-05
2.88444e-06
1.02682e-05
3.19111e-06
1.02151e-05
3.37404e-06
1.01192e-05
3.45683e-06
9.98809e-06
3.46034e-06
9.83403e-06
3.4089e-06
9.66411e-06
3.32837e-06
9.48083e-06
3.23887e-06
9.2834e-06
3.15663e-06
9.07032e-06
3.09331e-06
8.84252e-06
3.0523e-06
8.60553e-06
3.02428e-06
8.36962e-06
2.98585e-06
8.14786e-06
2.90407e-06
7.95303e-06
2.74557e-06
7.79507e-06
2.48644e-06
7.68046e-06
2.11877e-06
7.61223e-06
1.65192e-06
7.59018e-06
1.10941e-06
7.61139e-06
5.23258e-07
7.66917e-06
-6.88925e-08
7.75699e-06
-6.37188e-07
7.8672e-06
-1.16166e-06
7.99183e-06
-1.62858e-06
8.12302e-06
-2.03009e-06
8.25371e-06
-2.36417e-06
8.3783e-06
-2.63383e-06
8.49303e-06
-2.84513e-06
8.59568e-06
-3.00536e-06
8.68503e-06
-3.12163e-06
-3.20041e-06
4.27425e-07
-2.25583e-06
8.71e-07
-2.91732e-06
1.39142e-06
-3.28858e-06
2.02331e-06
-3.52874e-06
2.76827e-06
-3.51574e-06
3.53865e-06
-3.04319e-06
4.23801e-06
-2.04913e-06
4.89073e-06
-5.59002e-07
5.49746e-06
1.25132e-06
5.98644e-06
2.91875e-06
6.32046e-06
4.19668e-06
6.49718e-06
5.05641e-06
6.54129e-06
5.56031e-06
6.48936e-06
5.76673e-06
6.33885e-06
5.77261e-06
6.11814e-06
5.59334e-06
5.82477e-06
5.3153e-06
5.38141e-06
5.1022e-06
4.78032e-06
4.99614e-06
4.18126e-06
4.85212e-06
3.78591e-06
4.4648e-06
3.67946e-06
3.74194e-06
3.86631e-06
2.69251e-06
4.28842e-06
1.42621e-06
4.832e-06
1.32571e-07
5.4083e-06
-1.04274e-06
5.96683e-06
-2.03355e-06
6.47316e-06
-2.81705e-06
6.90691e-06
-3.3997e-06
7.25836e-06
-3.80554e-06
7.52544e-06
-4.06905e-06
7.71146e-06
-4.22925e-06
7.81958e-06
-4.32333e-06
7.85945e-06
-4.39526e-06
7.84955e-06
-4.4729e-06
7.81208e-06
-4.55057e-06
7.77218e-06
-4.60271e-06
7.74931e-06
-4.59005e-06
7.79142e-06
-4.40641e-06
7.91446e-06
-3.97993e-06
8.11919e-06
-3.30236e-06
8.39191e-06
-2.40104e-06
8.70243e-06
-1.35489e-06
9.01004e-06
-2.83812e-07
9.28827e-06
7.0815e-07
9.51708e-06
1.56503e-06
9.68622e-06
2.25592e-06
9.79431e-06
2.77635e-06
9.84603e-06
3.13939e-06
9.85005e-06
3.37002e-06
9.81156e-06
3.49532e-06
9.73418e-06
3.53771e-06
9.62473e-06
3.51835e-06
9.49147e-06
3.46163e-06
9.33857e-06
3.39178e-06
9.16694e-06
3.32826e-06
8.97734e-06
3.28292e-06
8.77312e-06
3.25652e-06
8.56161e-06
3.23579e-06
8.3535e-06
3.19396e-06
8.1609e-06
3.09668e-06
7.99486e-06
2.9116e-06
7.86409e-06
2.61721e-06
7.77432e-06
2.20853e-06
7.72791e-06
1.69834e-06
7.72441e-06
1.1129e-06
7.76036e-06
4.87307e-07
7.82887e-06
-1.37401e-07
7.92321e-06
-7.31533e-07
8.03552e-06
-1.27396e-06
8.15782e-06
-1.75088e-06
8.28234e-06
-2.15461e-06
8.40209e-06
-2.48392e-06
8.51155e-06
-2.74329e-06
8.60734e-06
-2.94091e-06
8.68775e-06
-3.08577e-06
8.75247e-06
-3.18636e-06
-3.24971e-06
2.00977e-08
-2.27593e-06
6.1051e-09
-2.90332e-06
1.42767e-07
-3.42524e-06
4.251e-07
-3.81107e-06
8.56758e-07
-3.9474e-06
1.43172e-06
-3.61814e-06
2.05102e-06
-2.66843e-06
2.6807e-06
-1.18868e-06
3.34484e-06
5.87183e-07
3.97445e-06
2.28915e-06
4.50573e-06
3.66539e-06
4.90509e-06
4.65705e-06
5.17614e-06
5.28926e-06
5.32766e-06
5.6152e-06
5.36012e-06
5.74015e-06
5.24013e-06
5.71333e-06
4.92285e-06
5.63258e-06
4.43333e-06
5.59173e-06
3.92402e-06
5.50545e-06
3.57864e-06
5.1975e-06
3.4812e-06
4.56223e-06
3.66342e-06
3.55973e-06
4.10079e-06
2.25515e-06
4.69093e-06
8.36071e-07
5.32673e-06
-5.03233e-07
5.94443e-06
-1.66044e-06
6.50257e-06
-2.5917e-06
6.97694e-06
-3.29141e-06
7.35721e-06
-3.77996e-06
7.64457e-06
-4.09291e-06
7.84583e-06
-4.27031e-06
7.96964e-06
-4.35306e-06
8.02154e-06
-4.37523e-06
8.00251e-06
-4.37623e-06
7.92353e-06
-4.39392e-06
7.80892e-06
-4.43597e-06
7.68692e-06
-4.48071e-06
7.57638e-06
-4.47951e-06
7.52003e-06
-4.35006e-06
7.54716e-06
-4.00705e-06
7.66431e-06
-3.41951e-06
7.86453e-06
-2.60126e-06
8.1269e-06
-1.61726e-06
8.41425e-06
-5.71162e-07
8.69623e-06
4.26171e-07
8.95032e-06
1.31093e-06
9.16066e-06
2.04559e-06
9.31845e-06
2.61856e-06
9.42279e-06
3.03505e-06
9.47912e-06
3.31369e-06
9.49331e-06
3.48113e-06
9.46948e-06
3.56155e-06
9.40907e-06
3.57876e-06
9.31678e-06
3.55392e-06
9.19873e-06
3.50982e-06
9.05766e-06
3.46933e-06
8.89679e-06
3.44379e-06
8.72176e-06
3.43156e-06
8.541e-06
3.41655e-06
8.36497e-06
3.36998e-06
8.20484e-06
3.25682e-06
8.07068e-06
3.04575e-06
7.97029e-06
2.71761e-06
7.90814e-06
2.27068e-06
7.88584e-06
1.72064e-06
7.90268e-06
1.09606e-06
7.95412e-06
4.35871e-07
8.03302e-06
-2.16298e-07
8.13234e-06
-8.30851e-07
8.24416e-06
-1.38578e-06
8.36073e-06
-1.86746e-06
8.47477e-06
-2.26864e-06
8.5798e-06
-2.58895e-06
8.67083e-06
-2.83432e-06
8.74469e-06
-3.01477e-06
8.79968e-06
-3.14076e-06
8.83667e-06
-3.22335e-06
-3.27135e-06
-3.73235e-07
-7.50959e-07
-9.60365e-07
-9.90167e-07
-8.62458e-07
-5.40655e-07
-5.45589e-08
5.6673e-07
1.30487e-06
2.08774e-06
2.80491e-06
3.4091e-06
3.8721e-06
4.16943e-06
4.28687e-06
4.19476e-06
3.92496e-06
3.60523e-06
3.37863e-06
3.33786e-06
3.54096e-06
4.00723e-06
4.65363e-06
5.35997e-06
6.04401e-06
6.65706e-06
7.17106e-06
7.57618e-06
7.87426e-06
8.07435e-06
8.19463e-06
8.24994e-06
8.23968e-06
8.16371e-06
8.029e-06
7.85375e-06
7.66249e-06
7.47995e-06
7.33872e-06
7.27582e-06
7.30745e-06
7.4338e-06
7.64006e-06
7.89587e-06
8.1679e-06
8.43223e-06
8.6694e-06
8.86671e-06
9.01816e-06
9.12331e-06
9.18612e-06
9.21038e-06
9.19875e-06
9.1504e-06
9.06995e-06
8.96249e-06
8.8343e-06
8.69301e-06
8.54727e-06
8.40702e-06
8.28313e-06
8.1848e-06
8.11822e-06
8.0867e-06
8.09105e-06
8.12956e-06
8.19697e-06
8.2855e-06
8.38796e-06
8.49657e-06
8.60396e-06
8.70369e-06
8.79045e-06
8.86021e-06
-2.90407e-06
8.91015e-06
-3.06472e-06
8.93908e-06
-3.16968e-06
8.94799e-06
-3.23226e-06
-3.26145e-06
9.07188e-06
9.09533e-06
9.09743e-06
9.07681e-06
6.04318e-06
1.57807e-07
5.87661e-06
1.66576e-07
5.70238e-06
1.74231e-07
5.52159e-06
1.80786e-07
5.33504e-06
1.86553e-07
5.14326e-06
1.91776e-07
4.94648e-06
1.96782e-07
4.74452e-06
2.01963e-07
4.53684e-06
2.07675e-07
4.32271e-06
2.14131e-07
4.10131e-06
2.21397e-07
3.87172e-06
2.2959e-07
3.63317e-06
2.38549e-07
3.38578e-06
2.47391e-07
3.13088e-06
2.54908e-07
2.87248e-06
2.58391e-07
2.61887e-06
2.53619e-07
2.37862e-06
2.40245e-07
2.15722e-06
2.21397e-07
1.9569e-06
2.00323e-07
1.7783e-06
1.78598e-07
1.62097e-06
1.57338e-07
1.48338e-06
1.37588e-07
1.36359e-06
1.19785e-07
1.25973e-06
1.0386e-07
1.16981e-06
8.99204e-08
1.09186e-06
7.79487e-08
1.02402e-06
6.78386e-08
9.64564e-07
5.94605e-08
9.11937e-07
5.26262e-08
8.64927e-07
4.70107e-08
8.22437e-07
4.249e-08
7.83279e-07
3.91574e-08
7.46367e-07
3.69126e-08
7.10799e-07
3.55671e-08
6.75689e-07
3.51105e-08
6.39998e-07
3.56906e-08
6.02475e-07
3.75234e-08
5.61481e-07
4.09941e-08
5.15357e-07
4.61242e-08
4.6313e-07
5.22265e-08
4.04573e-07
5.85575e-08
3.40217e-07
6.4356e-08
2.71658e-07
6.85588e-08
2.0236e-07
6.92974e-08
1.3735e-07
6.50108e-08
8.16723e-08
5.56774e-08
3.96171e-08
4.20551e-08
1.36687e-08
2.59484e-08
2.56901e-09
1.10997e-08
1.65222e-09
9.16783e-10
7.9269e-09
-6.27468e-09
-5.74719e-09
1.36741e-08
1.03779e-05
2.29748e-07
1.02979e-05
2.4655e-07
1.02103e-05
2.61899e-07
1.01158e-05
2.753e-07
1.00148e-05
2.87512e-07
9.90783e-06
2.98749e-07
9.79511e-06
3.09497e-07
9.67675e-06
3.2033e-07
9.55265e-06
3.31768e-07
9.42258e-06
3.44207e-07
9.28614e-06
3.57836e-07
9.14316e-06
3.72564e-07
8.99387e-06
3.87847e-07
8.83851e-06
4.0275e-07
8.67754e-06
4.15873e-07
8.51041e-06
4.2552e-07
8.33405e-06
4.29982e-07
8.14642e-06
4.27881e-07
7.9488e-06
4.19007e-07
7.74442e-06
4.04706e-07
7.53657e-06
3.86447e-07
7.32839e-06
3.65517e-07
7.12301e-06
3.42974e-07
6.92291e-06
3.19885e-07
6.72961e-06
2.97155e-07
6.54398e-06
2.75557e-07
6.36615e-06
2.55779e-07
6.19559e-06
2.38398e-07
6.03131e-06
2.23742e-07
5.87195e-06
2.11978e-07
5.71575e-06
2.03217e-07
5.56068e-06
1.97552e-07
5.40497e-06
1.9487e-07
5.24697e-06
1.94911e-07
5.08512e-06
1.97422e-07
4.91811e-06
2.02123e-07
4.74514e-06
2.0866e-07
4.56608e-06
2.16584e-07
4.38204e-06
2.25031e-07
4.195e-06
2.33167e-07
4.00677e-06
2.4045e-07
3.81923e-06
2.46101e-07
3.63442e-06
2.49171e-07
3.45417e-06
2.48802e-07
3.279e-06
2.44468e-07
3.10763e-06
2.36382e-07
2.93771e-06
2.256e-07
2.76583e-06
2.13938e-07
2.58805e-06
2.03722e-07
2.4021e-06
1.97051e-07
2.20819e-06
1.94824e-07
2.00564e-06
1.96275e-07
2.01112e-07
1.79878e-06
1.15304e-05
2.54739e-07
1.14999e-05
2.76997e-07
1.14645e-05
2.97315e-07
1.14246e-05
3.15166e-07
1.13809e-05
3.31246e-07
1.13338e-05
3.45834e-07
1.12838e-05
3.59538e-07
1.12311e-05
3.73036e-07
1.11759e-05
3.86935e-07
1.11185e-05
4.0166e-07
1.10589e-05
4.17386e-07
1.09974e-05
4.34115e-07
1.09338e-05
4.51404e-07
1.08682e-05
4.68393e-07
1.08001e-05
4.83898e-07
1.07292e-05
4.96495e-07
1.06543e-05
5.04794e-07
1.05745e-05
5.07717e-07
1.04887e-05
5.04849e-07
1.03967e-05
4.96682e-07
1.02991e-05
4.84027e-07
1.01969e-05
4.67757e-07
1.0091e-05
4.48842e-07
9.98259e-06
4.28294e-07
9.87264e-06
4.0711e-07
9.76195e-06
3.86239e-07
9.65121e-06
3.66518e-07
9.5409e-06
3.48717e-07
9.43118e-06
3.33462e-07
9.32192e-06
3.21234e-07
9.21273e-06
3.12406e-07
9.10313e-06
3.07151e-07
8.9926e-06
3.05397e-07
8.88053e-06
3.06984e-07
8.76626e-06
3.11692e-07
8.64917e-06
3.19212e-07
8.52872e-06
3.29105e-07
8.40451e-06
3.40802e-07
8.27584e-06
3.53699e-07
8.14202e-06
3.66989e-07
8.00282e-06
3.79649e-07
7.85824e-06
3.90674e-07
7.70823e-06
3.99188e-07
7.55241e-06
4.04618e-07
7.38996e-06
4.06921e-07
7.21955e-06
4.06786e-07
7.03949e-06
4.05663e-07
6.84784e-06
4.0559e-07
6.6427e-06
4.08863e-07
6.42222e-06
4.17525e-07
6.18423e-06
4.32815e-07
5.92561e-06
4.54899e-07
4.83268e-07
5.64345e-06
1.1809e-05
2.66682e-07
1.1793e-05
2.93033e-07
1.17736e-05
3.16689e-07
1.17513e-05
3.37449e-07
1.17271e-05
3.5547e-07
1.17016e-05
3.71343e-07
1.16752e-05
3.85868e-07
1.16484e-05
3.99844e-07
1.16214e-05
4.13992e-07
1.15942e-05
4.28799e-07
1.15672e-05
4.44426e-07
1.15404e-05
4.60904e-07
1.15138e-05
4.77985e-07
1.14872e-05
4.94983e-07
1.14603e-05
5.10885e-07
1.14322e-05
5.24515e-07
1.14024e-05
5.3467e-07
1.13697e-05
5.40378e-07
1.13335e-05
5.41096e-07
1.12933e-05
5.36857e-07
1.12492e-05
5.28114e-07
1.12014e-05
5.15517e-07
1.11504e-05
4.99848e-07
1.10967e-05
4.82004e-07
1.10409e-05
4.6293e-07
1.09836e-05
4.43569e-07
1.09252e-05
4.24894e-07
1.08661e-05
4.07759e-07
1.08067e-05
3.92871e-07
1.0747e-05
3.80971e-07
1.06869e-05
3.72497e-07
1.06265e-05
3.67532e-07
1.05658e-05
3.66083e-07
1.05047e-05
3.68099e-07
1.0443e-05
3.73451e-07
1.03803e-05
3.81876e-07
1.03165e-05
3.92926e-07
1.02512e-05
4.06043e-07
1.01843e-05
4.20602e-07
1.01155e-05
4.35874e-07
1.0044e-05
4.51073e-07
9.96926e-06
4.65454e-07
9.89003e-06
4.78414e-07
9.805e-06
4.89651e-07
9.7126e-06
4.99324e-07
9.6112e-06
5.08178e-07
9.49932e-06
5.17545e-07
9.37572e-06
5.29196e-07
9.2395e-06
5.45076e-07
9.0901e-06
5.66932e-07
8.92699e-06
5.95922e-07
8.74951e-06
6.3238e-07
6.75876e-07
8.5569e-06
1.1868e-05
2.76846e-07
1.18537e-05
3.07302e-07
1.18367e-05
3.33747e-07
1.18179e-05
3.56271e-07
1.17978e-05
3.75545e-07
1.1777e-05
3.92165e-07
1.1756e-05
4.06826e-07
1.17356e-05
4.20287e-07
1.17164e-05
4.33156e-07
1.1699e-05
4.46181e-07
1.16832e-05
4.60284e-07
1.16683e-05
4.75745e-07
1.16541e-05
4.92171e-07
1.16402e-05
5.08912e-07
1.16261e-05
5.25019e-07
1.16111e-05
5.39484e-07
1.15948e-05
5.50991e-07
1.15766e-05
5.58588e-07
1.1556e-05
5.61648e-07
1.15329e-05
5.59939e-07
1.15074e-05
5.53647e-07
1.14797e-05
5.43249e-07
1.14501e-05
5.29423e-07
1.14191e-05
5.13012e-07
1.1387e-05
4.94975e-07
1.13544e-05
4.76194e-07
1.13216e-05
4.57752e-07
1.12887e-05
4.40564e-07
1.12562e-05
4.25388e-07
1.1224e-05
4.13227e-07
1.1192e-05
4.04428e-07
1.11606e-05
3.99001e-07
1.11296e-05
3.97047e-07
1.10991e-05
3.98558e-07
1.10691e-05
4.035e-07
1.10393e-05
4.11635e-07
1.10098e-05
4.22502e-07
1.09802e-05
4.35599e-07
1.09504e-05
4.50389e-07
1.092e-05
4.66294e-07
1.08884e-05
4.82707e-07
1.08548e-05
4.99068e-07
1.08182e-05
5.1501e-07
1.07774e-05
5.30427e-07
1.07311e-05
5.45588e-07
1.06781e-05
5.61215e-07
1.06172e-05
5.78435e-07
1.05477e-05
5.98674e-07
1.04693e-05
6.23463e-07
1.03821e-05
6.5418e-07
1.02862e-05
6.91785e-07
1.0182e-05
7.36641e-07
7.88466e-07
1.00694e-05
1.18877e-05
2.89606e-07
1.18709e-05
3.24035e-07
1.18514e-05
3.53267e-07
1.18303e-05
3.77391e-07
1.18088e-05
3.97012e-07
1.1788e-05
4.12999e-07
1.17684e-05
4.26414e-07
1.17504e-05
4.38317e-07
1.1734e-05
4.49531e-07
1.17192e-05
4.60943e-07
1.17059e-05
4.73603e-07
1.16937e-05
4.8794e-07
1.16821e-05
5.0378e-07
1.16705e-05
5.2051e-07
1.16584e-05
5.3714e-07
1.16452e-05
5.52672e-07
1.16306e-05
5.65588e-07
1.16142e-05
5.74963e-07
1.15959e-05
5.80005e-07
1.15756e-05
5.8022e-07
1.15536e-05
5.7561e-07
1.15304e-05
5.66527e-07
1.15062e-05
5.53595e-07
1.14816e-05
5.37622e-07
1.14569e-05
5.19647e-07
1.14325e-05
5.00599e-07
1.14087e-05
4.81539e-07
1.13855e-05
4.63791e-07
1.1363e-05
4.47917e-07
1.13419e-05
4.34285e-07
1.13227e-05
4.23607e-07
1.13049e-05
4.16788e-07
1.12881e-05
4.13923e-07
1.12721e-05
4.1449e-07
1.1257e-05
4.18654e-07
1.12425e-05
4.26069e-07
1.12288e-05
4.36229e-07
1.12156e-05
4.48769e-07
1.12028e-05
4.63203e-07
1.11901e-05
4.79028e-07
1.1177e-05
4.95794e-07
1.11629e-05
5.13123e-07
1.11472e-05
5.30784e-07
1.11288e-05
5.48814e-07
1.11068e-05
5.67539e-07
1.10805e-05
5.87583e-07
1.1049e-05
6.09875e-07
1.10121e-05
6.35557e-07
1.09698e-05
6.6583e-07
1.09222e-05
7.01782e-07
1.08698e-05
7.44201e-07
1.0813e-05
7.93432e-07
8.49291e-07
1.07521e-05
1.19099e-05
3.07183e-07
1.18881e-05
3.4581e-07
1.18638e-05
3.77604e-07
1.18385e-05
4.02709e-07
1.18136e-05
4.21841e-07
1.17905e-05
4.36162e-07
1.17697e-05
4.47174e-07
1.17516e-05
4.56406e-07
1.17361e-05
4.65014e-07
1.1723e-05
4.74119e-07
1.17115e-05
4.85084e-07
1.17009e-05
4.98486e-07
1.16904e-05
5.14277e-07
1.16792e-05
5.31761e-07
1.16665e-05
5.49857e-07
1.16518e-05
5.67309e-07
1.1635e-05
5.82461e-07
1.16159e-05
5.94068e-07
1.15948e-05
6.01093e-07
1.15721e-05
6.02903e-07
1.15483e-05
5.99369e-07
1.15241e-05
5.90794e-07
1.14998e-05
5.7782e-07
1.14761e-05
5.6132e-07
1.14534e-05
5.42335e-07
1.1432e-05
5.22087e-07
1.1412e-05
5.01524e-07
1.13939e-05
4.81821e-07
1.13777e-05
4.64179e-07
1.13628e-05
4.49121e-07
1.13496e-05
4.36896e-07
1.1338e-05
4.28383e-07
1.13274e-05
4.24504e-07
1.13175e-05
4.24331e-07
1.13088e-05
4.27351e-07
1.13013e-05
4.33624e-07
1.12944e-05
4.43091e-07
1.1288e-05
4.55188e-07
1.12819e-05
4.69267e-07
1.1276e-05
4.84925e-07
1.127e-05
5.01825e-07
1.12635e-05
5.19675e-07
1.12559e-05
5.3835e-07
1.12468e-05
5.57951e-07
1.12355e-05
5.78819e-07
1.12215e-05
6.01537e-07
1.12045e-05
6.26895e-07
1.11842e-05
6.5583e-07
1.11607e-05
6.89319e-07
1.11343e-05
7.2825e-07
1.11052e-05
7.73292e-07
1.10738e-05
8.24765e-07
8.82563e-07
1.10406e-05
1.19379e-05
3.31049e-07
1.19095e-05
3.74276e-07
1.18786e-05
4.0849e-07
1.18474e-05
4.33896e-07
1.18178e-05
4.51432e-07
1.17913e-05
4.6266e-07
1.17688e-05
4.6969e-07
1.17504e-05
4.74801e-07
1.17357e-05
4.79678e-07
1.17242e-05
4.85641e-07
1.17148e-05
4.94456e-07
1.17063e-05
5.06994e-07
1.16973e-05
5.23289e-07
1.16866e-05
5.42497e-07
1.16731e-05
5.63294e-07
1.16564e-05
5.84029e-07
1.16361e-05
6.02728e-07
1.16127e-05
6.17532e-07
1.15867e-05
6.27056e-07
1.15591e-05
6.3051e-07
1.15308e-05
6.2769e-07
1.15027e-05
6.18906e-07
1.14756e-05
6.04909e-07
1.14502e-05
5.86712e-07
1.1427e-05
5.65482e-07
1.14065e-05
5.4268e-07
1.13885e-05
5.19493e-07
1.13733e-05
4.96991e-07
1.13608e-05
4.76688e-07
1.13503e-05
4.5962e-07
1.13416e-05
4.45652e-07
1.13348e-05
4.35142e-07
1.13295e-05
4.29807e-07
1.13248e-05
4.29013e-07
1.13207e-05
4.31487e-07
1.13169e-05
4.37417e-07
1.13135e-05
4.46458e-07
1.13106e-05
4.58118e-07
1.13078e-05
4.72027e-07
1.1305e-05
4.8773e-07
1.1302e-05
5.04811e-07
1.12987e-05
5.23033e-07
1.12947e-05
5.42342e-07
1.12897e-05
5.62881e-07
1.12836e-05
5.85006e-07
1.12758e-05
6.09267e-07
1.12663e-05
6.3638e-07
1.1255e-05
6.67163e-07
1.12419e-05
7.02465e-07
1.1227e-05
7.43072e-07
1.12107e-05
7.89604e-07
1.11931e-05
8.42411e-07
9.01498e-07
1.11742e-05
1.19726e-05
3.63091e-07
1.19354e-05
4.1152e-07
1.18959e-05
4.47971e-07
1.1857e-05
4.7277e-07
1.18212e-05
4.87232e-07
1.17904e-05
4.93469e-07
1.17658e-05
4.94285e-07
1.17475e-05
4.93095e-07
1.17345e-05
4.92681e-07
1.17256e-05
4.94525e-07
1.17196e-05
5.00494e-07
1.17143e-05
5.1225e-07
1.17078e-05
5.29808e-07
1.16983e-05
5.51997e-07
1.16845e-05
5.77115e-07
1.16655e-05
6.02974e-07
1.16414e-05
6.26882e-07
1.16127e-05
6.46196e-07
1.15808e-05
6.5902e-07
1.15469e-05
6.64355e-07
1.15126e-05
6.61984e-07
1.14792e-05
6.52345e-07
1.14477e-05
6.36346e-07
1.14192e-05
6.15207e-07
1.13943e-05
5.90402e-07
1.13733e-05
5.63668e-07
1.13562e-05
5.36614e-07
1.13429e-05
5.10336e-07
1.13332e-05
4.86319e-07
1.13265e-05
4.66321e-07
1.1322e-05
4.50204e-07
1.13194e-05
4.37732e-07
1.13183e-05
4.30917e-07
1.1318e-05
4.29317e-07
1.13179e-05
4.31542e-07
1.13179e-05
4.37482e-07
1.13177e-05
4.46602e-07
1.13174e-05
4.58457e-07
1.13168e-05
4.72588e-07
1.1316e-05
4.88532e-07
1.13149e-05
5.05899e-07
1.13135e-05
5.24443e-07
1.13117e-05
5.44135e-07
1.13095e-05
5.65153e-07
1.13066e-05
5.87872e-07
1.1303e-05
6.12851e-07
1.12986e-05
6.40779e-07
1.12933e-05
6.72424e-07
1.12872e-05
7.08584e-07
1.12803e-05
7.50034e-07
1.12724e-05
7.97422e-07
1.12637e-05
8.51187e-07
9.11506e-07
1.12537e-05
1.20137e-05
4.05863e-07
1.1965e-05
4.60302e-07
1.19142e-05
4.98714e-07
1.18654e-05
5.21625e-07
1.18215e-05
5.31051e-07
1.17851e-05
5.29862e-07
1.17578e-05
5.21605e-07
1.17398e-05
5.11154e-07
1.17301e-05
5.02382e-07
1.1726e-05
4.98557e-07
1.17255e-05
5.01048e-07
1.17253e-05
5.12379e-07
1.1723e-05
5.32154e-07
1.17161e-05
5.58946e-07
1.17026e-05
5.90587e-07
1.16814e-05
6.24126e-07
1.16528e-05
6.55551e-07
1.16179e-05
6.81059e-07
1.15787e-05
6.98188e-07
1.15373e-05
7.05746e-07
1.14958e-05
7.03561e-07
1.14559e-05
6.92242e-07
1.14192e-05
6.73003e-07
1.1387e-05
6.47456e-07
1.13599e-05
6.175e-07
1.13382e-05
5.85299e-07
1.1322e-05
5.52869e-07
1.13108e-05
5.21539e-07
1.13041e-05
4.93011e-07
1.13011e-05
4.69304e-07
1.13011e-05
4.50166e-07
1.1303e-05
4.35833e-07
1.13058e-05
4.28162e-07
1.13092e-05
4.25866e-07
1.13128e-05
4.27977e-07
1.1316e-05
4.34276e-07
1.13186e-05
4.44015e-07
1.13206e-05
4.56499e-07
1.13219e-05
4.71209e-07
1.13228e-05
4.87699e-07
1.13231e-05
5.05527e-07
1.13232e-05
5.24395e-07
1.1323e-05
5.44275e-07
1.13228e-05
5.65383e-07
1.13226e-05
5.88133e-07
1.13223e-05
6.1313e-07
1.1322e-05
6.41088e-07
1.13216e-05
6.72761e-07
1.13212e-05
7.08968e-07
1.13207e-05
7.5055e-07
1.13199e-05
7.98253e-07
1.13184e-05
8.52671e-07
9.14228e-07
1.13157e-05
1.21268e-05
3.81566e-07
1.20691e-05
4.63505e-07
1.20044e-05
5.25017e-07
1.19384e-05
5.64754e-07
1.18762e-05
5.83836e-07
1.18218e-05
5.85407e-07
1.17784e-05
5.73325e-07
1.17476e-05
5.52314e-07
1.17307e-05
5.28123e-07
1.17255e-05
5.07584e-07
1.17278e-05
4.96234e-07
1.17345e-05
4.94369e-07
1.17421e-05
5.04743e-07
1.17464e-05
5.27832e-07
1.17439e-05
5.61451e-07
1.17318e-05
6.02704e-07
1.17083e-05
6.47651e-07
1.16738e-05
6.90014e-07
1.16307e-05
7.24135e-07
1.15821e-05
7.4682e-07
1.1531e-05
7.56831e-07
1.14804e-05
7.54208e-07
1.14326e-05
7.39981e-07
1.13898e-05
7.15885e-07
1.13531e-05
6.84085e-07
1.13236e-05
6.47049e-07
1.13013e-05
6.07558e-07
1.12862e-05
5.6799e-07
1.12777e-05
5.30058e-07
1.12747e-05
4.96039e-07
1.12762e-05
4.6774e-07
1.12813e-05
4.45102e-07
1.12881e-05
4.29055e-07
1.12959e-05
4.20367e-07
1.1304e-05
4.17752e-07
1.13115e-05
4.20438e-07
1.1318e-05
4.27774e-07
1.13232e-05
4.38795e-07
1.13272e-05
4.52541e-07
1.133e-05
4.68359e-07
1.1332e-05
4.85776e-07
1.13332e-05
5.04262e-07
1.13342e-05
5.23432e-07
1.13352e-05
5.43268e-07
1.13366e-05
5.64023e-07
1.13385e-05
5.86191e-07
1.13411e-05
6.10494e-07
1.13445e-05
6.37695e-07
1.13487e-05
6.68559e-07
1.13537e-05
7.03996e-07
1.13593e-05
7.44977e-07
1.13652e-05
7.92372e-07
1.13709e-05
8.46972e-07
9.09544e-07
1.13755e-05
1.22225e-05
4.41536e-07
1.21461e-05
5.39937e-07
1.20608e-05
6.1033e-07
1.19748e-05
6.50744e-07
1.18954e-05
6.63185e-07
1.18281e-05
6.52718e-07
1.17766e-05
6.24869e-07
1.17427e-05
5.86144e-07
1.17272e-05
5.43696e-07
1.17267e-05
5.08036e-07
1.17388e-05
4.84171e-07
1.17575e-05
4.75589e-07
1.17766e-05
4.85713e-07
1.17901e-05
5.14273e-07
1.17944e-05
5.57214e-07
1.17845e-05
6.12595e-07
1.17578e-05
6.7429e-07
1.1716e-05
7.31841e-07
1.16621e-05
7.78072e-07
1.16006e-05
8.08331e-07
1.15363e-05
8.21078e-07
1.14735e-05
8.17049e-07
1.14152e-05
7.98253e-07
1.1364e-05
7.67083e-07
1.13216e-05
7.26498e-07
1.12888e-05
6.79821e-07
1.12658e-05
6.30579e-07
1.12521e-05
5.81667e-07
1.12468e-05
5.35393e-07
1.12484e-05
4.94429e-07
1.12556e-05
4.60587e-07
1.12664e-05
4.34238e-07
1.12793e-05
4.16145e-07
1.12931e-05
4.06552e-07
1.13064e-05
4.045e-07
1.13181e-05
4.08714e-07
1.13278e-05
4.18087e-07
1.13355e-05
4.31129e-07
1.13414e-05
4.4662e-07
1.13457e-05
4.64102e-07
1.13484e-05
4.83046e-07
1.13501e-05
5.02568e-07
1.13514e-05
5.22071e-07
1.13531e-05
5.41641e-07
1.13555e-05
5.61574e-07
1.13592e-05
5.82517e-07
1.13642e-05
6.05453e-07
1.13708e-05
6.31108e-07
1.13792e-05
6.60202e-07
1.13893e-05
6.939e-07
1.14008e-05
7.33402e-07
1.14135e-05
7.79673e-07
1.14268e-05
8.33699e-07
8.96705e-07
1.14397e-05
1.22761e-05
5.17782e-07
1.21788e-05
6.37165e-07
1.20715e-05
7.17638e-07
1.19652e-05
7.57024e-07
1.18693e-05
7.59139e-07
1.17898e-05
7.32194e-07
1.17307e-05
6.83955e-07
1.16964e-05
6.20476e-07
1.16875e-05
5.5261e-07
1.16986e-05
4.96952e-07
1.17246e-05
4.58108e-07
1.17601e-05
4.40124e-07
1.17983e-05
4.47507e-07
1.18304e-05
4.82135e-07
1.18451e-05
5.42541e-07
1.1838e-05
6.19724e-07
1.18092e-05
7.03099e-07
1.17588e-05
7.82233e-07
1.16927e-05
8.44131e-07
1.16177e-05
8.83375e-07
1.15399e-05
8.98866e-07
1.14645e-05
8.92405e-07
1.13954e-05
8.67351e-07
1.13358e-05
8.26715e-07
1.12878e-05
7.74528e-07
1.12522e-05
7.15359e-07
1.12292e-05
6.53641e-07
1.12179e-05
5.92946e-07
1.1217e-05
5.36245e-07
1.12247e-05
4.86731e-07
1.12387e-05
4.4665e-07
1.12567e-05
4.16221e-07
1.12772e-05
3.95655e-07
1.12979e-05
3.85848e-07
1.13168e-05
3.85541e-07
1.13334e-05
3.92135e-07
1.13477e-05
4.03811e-07
1.13591e-05
4.19689e-07
1.13668e-05
4.38951e-07
1.13711e-05
4.5979e-07
1.13735e-05
4.80676e-07
1.13751e-05
5.00948e-07
1.13769e-05
5.20291e-07
1.13794e-05
5.39096e-07
1.13831e-05
5.57875e-07
1.13883e-05
5.77382e-07
1.13955e-05
5.9827e-07
1.14052e-05
6.21326e-07
1.14177e-05
6.47711e-07
1.14329e-05
6.7877e-07
1.14504e-05
7.15844e-07
1.14702e-05
7.59932e-07
1.14916e-05
8.12217e-07
8.74449e-07
1.15139e-05
1.21473e-05
6.09043e-07
1.20336e-05
7.50867e-07
1.19103e-05
8.4097e-07
1.17908e-05
8.76446e-07
1.16828e-05
8.67196e-07
1.15953e-05
8.19709e-07
1.15358e-05
7.43444e-07
1.15081e-05
6.48119e-07
1.15118e-05
5.48963e-07
1.1547e-05
4.61712e-07
1.16073e-05
3.97799e-07
1.16785e-05
3.68988e-07
1.17441e-05
3.81915e-07
1.17921e-05
4.34118e-07
1.18162e-05
5.18409e-07
1.18098e-05
6.26099e-07
1.17763e-05
7.36649e-07
1.17223e-05
8.36234e-07
1.16486e-05
9.17802e-07
1.15613e-05
9.70745e-07
1.14727e-05
9.87448e-07
1.1388e-05
9.77034e-07
1.13119e-05
9.43481e-07
1.12483e-05
8.9037e-07
1.11993e-05
8.23498e-07
1.11657e-05
7.48921e-07
1.11474e-05
6.71974e-07
1.11432e-05
5.97097e-07
1.11512e-05
5.28289e-07
1.1169e-05
4.689e-07
1.11946e-05
4.21069e-07
1.12241e-05
3.86718e-07
1.12541e-05
3.6568e-07
1.1284e-05
3.5594e-07
1.13127e-05
3.56806e-07
1.13375e-05
3.67331e-07
1.1356e-05
3.85315e-07
1.13675e-05
4.0817e-07
1.13736e-05
4.32923e-07
1.13763e-05
4.57083e-07
1.13774e-05
4.7959e-07
1.13783e-05
5.00068e-07
1.138e-05
5.18585e-07
1.13831e-05
5.35992e-07
1.13882e-05
5.52757e-07
1.13961e-05
5.69429e-07
1.14074e-05
5.87002e-07
1.14224e-05
6.06316e-07
1.14416e-05
6.28556e-07
1.14644e-05
6.55961e-07
1.14906e-05
6.89604e-07
1.15205e-05
7.30039e-07
1.15538e-05
7.78898e-07
8.38692e-07
1.15896e-05
1.15792e-05
6.82773e-07
1.14714e-05
8.58621e-07
1.13488e-05
9.63575e-07
1.12368e-05
9.88458e-07
1.1136e-05
9.67992e-07
1.10558e-05
8.99928e-07
1.10067e-05
7.92521e-07
1.09937e-05
6.61174e-07
1.10181e-05
5.24566e-07
1.10795e-05
4.0026e-07
1.11695e-05
3.07838e-07
1.12762e-05
2.62246e-07
1.1386e-05
2.72159e-07
1.14823e-05
3.37827e-07
1.15489e-05
4.51738e-07
1.15719e-05
6.03176e-07
1.15493e-05
7.59181e-07
1.14931e-05
8.92465e-07
1.14131e-05
9.97833e-07
1.13206e-05
1.06321e-06
1.12333e-05
1.07475e-06
1.11491e-05
1.0612e-06
1.10745e-05
1.01812e-06
1.1015e-05
9.49863e-07
1.09729e-05
8.65633e-07
1.09486e-05
7.73216e-07
1.09419e-05
6.78583e-07
1.09514e-05
5.87674e-07
1.09742e-05
5.05428e-07
1.10077e-05
4.35391e-07
1.10486e-05
3.80237e-07
1.10938e-05
3.41475e-07
1.11406e-05
3.18896e-07
1.1185e-05
3.11508e-07
1.12242e-05
3.17627e-07
1.12569e-05
3.34673e-07
1.12825e-05
3.59721e-07
1.1301e-05
3.89648e-07
1.13131e-05
4.20772e-07
1.13206e-05
4.49655e-07
1.13252e-05
4.74948e-07
1.13289e-05
4.96324e-07
1.13332e-05
5.14306e-07
1.13394e-05
5.29833e-07
1.13486e-05
5.43499e-07
1.13617e-05
5.56353e-07
1.1379e-05
5.69716e-07
1.14001e-05
5.85203e-07
1.14248e-05
6.03892e-07
1.14547e-05
6.26049e-07
1.1491e-05
6.53334e-07
1.15331e-05
6.87922e-07
1.15817e-05
7.30271e-07
7.84106e-07
1.16363e-05
9.81023e-06
6.64669e-07
9.79472e-06
8.74122e-07
9.7631e-06
9.95199e-07
9.72793e-06
1.02363e-06
9.69693e-06
9.98991e-07
9.67666e-06
9.20202e-07
9.67818e-06
7.90997e-07
9.70978e-06
6.29578e-07
9.78002e-06
4.54321e-07
9.88683e-06
2.93456e-07
1.00188e-05
1.75906e-07
1.01646e-05
1.16365e-07
1.03136e-05
1.23149e-07
1.04515e-05
1.99944e-07
1.05647e-05
3.38564e-07
1.06427e-05
5.25221e-07
1.06739e-05
7.2791e-07
1.0662e-05
9.04399e-07
1.06214e-05
1.03847e-06
1.05681e-05
1.1165e-06
1.0518e-05
1.12482e-06
1.04733e-05
1.10592e-06