/*--------------------------------*- C++ -*----------------------------------*\
| =========                 |                                                 |
| \\      /  F ield         | OpenFOAM: The Open Source CFD Toolbox           |
|  \\    /   O peration     | Version:  2206                                  |
|   \\  /    A nd           | Website:  www.openfoam.com                      |
|    \\/     M anipulation  |                                                 |
\*---------------------------------------------------------------------------*/
FoamFile
{
    version     2.0;
    format      ascii;
    arch        "LSB;label=32;scalar=64";
    class       volVectorField;
    location    "18.6999";
    object      U_0;
}
// * * * * * * * * * * * * * * * * * * * * * * * * * * * * * * * * * * * * * //

dimensions      [0 1 -1 0 0 0 0];

internalField   nonuniform List<vector> 
4866
(
(1.47761 -7.22521e-05 0)
(1.47764 -0.000206168 0)
(1.47771 -0.000332636 0)
(1.47782 -0.000451068 0)
(1.47797 -0.000561308 0)
(1.47816 -0.000663426 0)
(1.47838 -0.000757581 0)
(1.47863 -0.000843963 0)
(1.47892 -0.000922788 0)
(1.47925 -0.000994299 0)
(1.4796 -0.00105877 0)
(1.47999 -0.00111649 0)
(1.4804 -0.00116778 0)
(1.48084 -0.00121297 0)
(1.48131 -0.00125239 0)
(1.48181 -0.00128637 0)
(1.48232 -0.00131525 0)
(1.48286 -0.00133935 0)
(1.48342 -0.00135898 0)
(1.484 -0.0013744 0)
(1.4846 -0.00138586 0)
(1.48521 -0.00139357 0)
(1.48584 -0.00139766 0)
(1.48648 -0.00139822 0)
(1.48713 -0.00139529 0)
(1.48779 -0.0013888 0)
(1.48846 -0.00137865 0)
(1.48914 -0.00136463 0)
(1.48982 -0.00134647 0)
(1.4905 -0.0013238 0)
(1.49118 -0.00129617 0)
(1.49187 -0.00126302 0)
(1.49255 -0.00122375 0)
(1.49323 -0.00117771 0)
(1.4939 -0.00112409 0)
(1.49457 -0.0010621 0)
(1.49523 -0.000990792 0)
(1.49588 -0.000909247 0)
(1.49651 -0.000816383 0)
(1.49714 -0.000711226 0)
(1.49774 -0.000592553 0)
(1.49834 -0.000459394 0)
(1.49891 -0.000310335 0)
(1.49946 -0.000144495 0)
(1.49999 3.97207e-05 0)
(1.5005 0.000243193 0)
(1.50098 0.000467481 0)
(1.50143 0.000713706 0)
(1.50186 0.000983236 0)
(1.50225 0.00127728 0)
(1.50261 0.00159752 0)
(1.50293 0.00194455 0)
(1.50321 0.00232087 0)
(1.50346 0.00272773 0)
(1.50366 0.00316664 0)
(1.50382 0.00363943 0)
(1.50393 0.00414791 0)
(1.50399 0.00469394 0)
(1.50399 0.00527953 0)
(1.50394 0.00590681 0)
(1.50382 0.00657806 0)
(1.50365 0.00729574 0)
(1.5034 0.00806252 0)
(1.50308 0.00888129 0)
(1.50268 0.00975523 0)
(1.5022 0.0106878 0)
(1.50164 0.0116828 0)
(1.50097 0.0127445 0)
(1.50021 0.0138776 0)
(1.49934 0.0150873 0)
(1.49835 0.0163795 0)
(1.49724 0.0177607 0)
(1.49599 0.0192382 0)
(1.4946 0.0208203 0)
(1.49306 0.0225164 0)
(1.49134 0.0243369 0)
(1.48945 0.0262939 0)
(1.48736 0.0284009 0)
(1.48505 0.0306733 0)
(1.48251 0.0331287 0)
(1.47972 0.0357872 0)
(1.47666 0.038672 0)
(1.47329 0.0418093 0)
(1.46961 0.0452299 0)
(1.46556 0.0489689 0)
(1.46112 0.0530673 0)
(1.45626 0.0575726 0)
(1.45093 0.0625404 0)
(1.44509 0.0680361 0)
(1.43868 0.0741361 0)
(1.43165 0.0809314 0)
(1.42394 0.0885296 0)
(1.41547 0.0970594 0)
(1.40619 0.106675 0)
(1.39599 0.117563 0)
(1.3848 0.129949 0)
(1.37251 0.144108 0)
(1.35904 0.16038 0)
(1.34426 0.179184 0)
(1.32809 0.201044 0)
(1.31042 0.226621 0)
(1.29118 0.256758 0)
(1.27032 0.292544 0)
(1.24786 0.335423 0)
(1.22397 0.387315 0)
(1.19875 0.45099 0)
(1.17379 0.530174 0)
(1.14729 0.631602 0)
(1.13687 0.761982 0)
(1.10426 0.947709 0)
(1.27198 1.17407 0)
(1.17405 1.67165 0)
(1.47761 -9.37736e-05 0)
(1.47764 -0.000269936 0)
(1.47771 -0.000438688 0)
(1.47783 -0.00059913 0)
(1.47798 -0.000750885 0)
(1.47818 -0.000893848 0)
(1.4784 -0.00102802 0)
(1.47867 -0.00115345 0)
(1.47896 -0.00127021 0)
(1.4793 -0.00137843 0)
(1.47966 -0.00147827 0)
(1.48006 -0.00156996 0)
(1.48048 -0.00165371 0)
(1.48094 -0.00172981 0)
(1.48142 -0.00179851 0)
(1.48193 -0.00186012 0)
(1.48246 -0.00191493 0)
(1.48301 -0.00196322 0)
(1.48359 -0.00200528 0)
(1.48418 -0.00204136 0)
(1.48479 -0.0020717 0)
(1.48542 -0.00209648 0)
(1.48606 -0.00211584 0)
(1.48672 -0.00212987 0)
(1.48739 -0.00213859 0)
(1.48806 -0.00214195 0)
(1.48875 -0.00213982 0)
(1.48944 -0.00213201 0)
(1.49014 -0.00211824 0)
(1.49084 -0.00209814 0)
(1.49154 -0.00207127 0)
(1.49224 -0.00203706 0)
(1.49294 -0.0019949 0)
(1.49363 -0.00194412 0)
(1.49433 -0.00188394 0)
(1.49501 -0.00181356 0)
(1.49569 -0.00173199 0)
(1.49635 -0.00163836 0)
(1.49701 -0.00153152 0)
(1.49765 -0.00141054 0)
(1.49828 -0.00127412 0)
(1.49889 -0.00112136 0)
(1.49948 -0.000950738 0)
(1.50005 -0.000761394 0)
(1.5006 -0.000551747 0)
(1.50113 -0.000320775 0)
(1.50163 -6.70193e-05 0)
(1.5021 0.000210768 0)
(1.50255 0.000513964 0)
(1.50297 0.000843981 0)
(1.50335 0.00120208 0)
(1.5037 0.00158997 0)
(1.50401 0.00200943 0)
(1.50428 0.00246188 0)
(1.50452 0.0029492 0)
(1.5047 0.00347329 0)
(1.50485 0.00403609 0)
(1.50494 0.00463963 0)
(1.50498 0.00528612 0)
(1.50497 0.00597793 0)
(1.5049 0.00671761 0)
(1.50477 0.00750792 0)
(1.50457 0.00835185 0)
(1.5043 0.00925264 0)
(1.50396 0.0102139 0)
(1.50355 0.0112395 0)
(1.50305 0.0123337 0)
(1.50246 0.0135014 0)
(1.50178 0.0147478 0)
(1.50099 0.0160789 0)
(1.5001 0.0175012 0)
(1.4991 0.019022 0)
(1.49797 0.0206496 0)
(1.4967 0.0223933 0)
(1.4953 0.0242635 0)
(1.49374 0.0262719 0)
(1.49201 0.0284317 0)
(1.49011 0.0307582 0)
(1.48801 0.0332682 0)
(1.4857 0.0359812 0)
(1.48317 0.0389192 0)
(1.48039 0.0421076 0)
(1.47735 0.0455752 0)
(1.47402 0.0493552 0)
(1.47039 0.0534858 0)
(1.46641 0.058011 0)
(1.46207 0.062982 0)
(1.45733 0.0684582 0)
(1.45215 0.0745087 0)
(1.44652 0.0812145 0)
(1.44037 0.0886709 0)
(1.43368 0.0969902 0)
(1.42641 0.106305 0)
(1.4185 0.116774 0)
(1.40991 0.128587 0)
(1.40062 0.141969 0)
(1.39058 0.157196 0)
(1.37977 0.1746 0)
(1.3682 0.194588 0)
(1.35588 0.21766 0)
(1.34289 0.244435 0)
(1.32939 0.275688 0)
(1.31567 0.312396 0)
(1.30215 0.355813 0)
(1.28977 0.407559 0)
(1.27953 0.469804 0)
(1.2751 0.545326 0)
(1.277 0.638269 0)
(1.30486 0.751899 0)
(1.33839 0.895498 0)
(1.46977 1.04204 0)
(1.59292 1.32811 0)
(1.47761 -0.0001159 0)
(1.47764 -0.000335784 0)
(1.47772 -0.000548204 0)
(1.47784 -0.00075199 0)
(1.478 -0.000946562 0)
(1.47819 -0.00113163 0)
(1.47843 -0.00130703 0)
(1.4787 -0.00147264 0)
(1.47901 -0.0016284 0)
(1.47935 -0.00177432 0)
(1.47973 -0.00191046 0)
(1.48014 -0.00203695 0)
(1.48058 -0.00215393 0)
(1.48104 -0.00226162 0)
(1.48154 -0.00236023 0)
(1.48206 -0.00245001 0)
(1.48261 -0.00253123 0)
(1.48318 -0.00260415 0)
(1.48377 -0.00266902 0)
(1.48438 -0.00272611 0)
(1.48501 -0.00277563 0)
(1.48566 -0.00281776 0)
(1.48632 -0.00285264 0)
(1.48699 -0.00288036 0)
(1.48768 -0.00290093 0)
(1.48837 -0.00291432 0)
(1.48908 -0.00292039 0)
(1.48979 -0.00291895 0)
(1.4905 -0.00290973 0)
(1.49122 -0.00289236 0)
(1.49194 -0.0028664 0)
(1.49266 -0.00283128 0)
(1.49338 -0.00278638 0)
(1.49409 -0.00273105 0)
(1.4948 -0.00266448 0)
(1.49551 -0.00258589 0)
(1.4962 -0.00249429 0)
(1.49689 -0.0023888 0)
(1.49756 -0.00226826 0)
(1.49823 -0.00213175 0)
(1.49887 -0.00197795 0)
(1.4995 -0.00180592 0)
(1.50012 -0.00161423 0)
(1.50071 -0.00140184 0)
(1.50128 -0.00116736 0)
(1.50184 -0.000909524 0)
(1.50236 -0.00062706 0)
(1.50286 -0.0003185 0)
(1.50333 1.74151e-05 0)
(1.50377 0.000382262 0)
(1.50418 0.000777316 0)
(1.50456 0.00120466 0)
(1.5049 0.00166564 0)
(1.50521 0.00216211 0)
(1.50547 0.00269601 0)
(1.50569 0.0032693 0)
(1.50587 0.00388403 0)
(1.506 0.00454243 0)
(1.50609 0.00524691 0)
(1.50612 0.00600002 0)
(1.5061 0.00680456 0)
(1.50602 0.00766353 0)
(1.50587 0.00858019 0)
(1.50567 0.00955811 0)
(1.50539 0.0106012 0)
(1.50504 0.0117138 0)
(1.50462 0.0129006 0)
(1.50411 0.0141669 0)
(1.50352 0.0155184 0)
(1.50283 0.0169617 0)
(1.50205 0.0185039 0)
(1.50116 0.0201531 0)
(1.50016 0.0219182 0)
(1.49903 0.0238093 0)
(1.49778 0.0258377 0)
(1.49639 0.0280162 0)
(1.49485 0.030359 0)
(1.49315 0.0328824 0)
(1.49128 0.0356046 0)
(1.48923 0.0385463 0)
(1.48697 0.0417311 0)
(1.48451 0.0451858 0)
(1.48182 0.0489409 0)
(1.47888 0.0530312 0)
(1.47568 0.0574968 0)
(1.4722 0.0623836 0)
(1.46842 0.0677445 0)
(1.46431 0.0736406 0)
(1.45986 0.0801428 0)
(1.45504 0.0873332 0)
(1.44983 0.0953078 0)
(1.44421 0.104179 0)
(1.43817 0.114077 0)
(1.4317 0.125159 0)
(1.42478 0.137606 0)
(1.41742 0.151635 0)
(1.40965 0.167504 0)
(1.40151 0.185519 0)
(1.39309 0.20605 0)
(1.38452 0.229535 0)
(1.37601 0.256507 0)
(1.36789 0.287603 0)
(1.36064 0.323591 0)
(1.355 0.365388 0)
(1.35216 0.41408 0)
(1.35363 0.470864 0)
(1.36253 0.537097 0)
(1.38126 0.613561 0)
(1.41823 0.700708 0)
(1.47449 0.798024 0)
(1.55789 0.878759 0)
(1.71573 1.01699 0)
(1.47761 -0.000138755 0)
(1.47764 -0.000404039 0)
(1.47772 -0.000661747 0)
(1.47785 -0.000910449 0)
(1.47801 -0.00114935 0)
(1.47822 -0.00137797 0)
(1.47846 -0.00159597 0)
(1.47874 -0.00180305 0)
(1.47906 -0.00199902 0)
(1.47942 -0.00218375 0)
(1.47981 -0.0023572 0)
(1.48023 -0.00251941 0)
(1.48068 -0.00267045 0)
(1.48117 -0.00281046 0)
(1.48168 -0.00293964 0)
(1.48222 -0.00305817 0)
(1.48279 -0.00316631 0)
(1.48337 -0.0032643 0)
(1.48398 -0.0033524 0)
(1.48461 -0.00343083 0)
(1.48526 -0.00349983 0)
(1.48593 -0.00355958 0)
(1.48661 -0.00361023 0)
(1.4873 -0.00365185 0)
(1.48801 -0.00368447 0)
(1.48872 -0.00370806 0)
(1.48944 -0.00372251 0)
(1.49017 -0.00372761 0)
(1.49091 -0.0037231 0)
(1.49165 -0.00370861 0)
(1.49239 -0.00368372 0)
(1.49313 -0.00364786 0)
(1.49387 -0.0036004 0)
(1.4946 -0.00354069 0)
(1.49534 -0.00346794 0)
(1.49606 -0.00338135 0)
(1.49678 -0.00327995 0)
(1.49749 -0.00316286 0)
(1.49818 -0.00302891 0)
(1.49887 -0.00287719 0)
(1.49954 -0.0027064 0)
(1.50019 -0.00251552 0)
(1.50083 -0.00230323 0)
(1.50145 -0.00206838 0)
(1.50205 -0.00180961 0)
(1.50262 -0.00152571 0)
(1.50317 -0.0012152 0)
(1.5037 -0.000876907 0)
(1.5042 -0.000509118 0)
(1.50467 -0.000110772 0)
(1.50511 0.000320328 0)
(1.50552 0.000785405 0)
(1.50589 0.00128636 0)
(1.50623 0.00182507 0)
(1.50653 0.00240348 0)
(1.50679 0.00302364 0)
(1.50701 0.00368776 0)
(1.50718 0.0043982 0)
(1.50731 0.00515751 0)
(1.50739 0.00596843 0)
(1.50742 0.00683392 0)
(1.50739 0.0077572 0)
(1.50731 0.00874179 0)
(1.50717 0.00979152 0)
(1.50696 0.0109106 0)
(1.50669 0.0121037 0)
(1.50635 0.0133758 0)
(1.50593 0.0147326 0)
(1.50543 0.0161803 0)
(1.50485 0.0177259 0)
(1.50418 0.0193771 0)
(1.50341 0.0211424 0)
(1.50255 0.0230313 0)
(1.50157 0.0250547 0)
(1.50049 0.0272244 0)
(1.49928 0.0295539 0)
(1.49794 0.0320583 0)
(1.49646 0.0347545 0)
(1.49483 0.0376618 0)
(1.49305 0.0408016 0)
(1.4911 0.0441985 0)
(1.48897 0.04788 0)
(1.48665 0.0518776 0)
(1.48412 0.056227 0)
(1.48139 0.0609688 0)
(1.47842 0.0661496 0)
(1.47522 0.0718224 0)
(1.47178 0.0780483 0)
(1.46807 0.0848974 0)
(1.46409 0.0924505 0)
(1.45984 0.100801 0)
(1.45532 0.110056 0)
(1.45053 0.120342 0)
(1.44549 0.131803 0)
(1.44022 0.144609 0)
(1.43477 0.158956 0)
(1.4292 0.175075 0)
(1.42362 0.193234 0)
(1.41818 0.213742 0)
(1.41307 0.236963 0)
(1.40861 0.263313 0)
(1.4052 0.293265 0)
(1.40344 0.32735 0)
(1.40412 0.366135 0)
(1.40842 0.410197 0)
(1.41781 0.459981 0)
(1.43445 0.515789 0)
(1.46092 0.577162 0)
(1.50016 0.642592 0)
(1.55927 0.712116 0)
(1.63187 0.767988 0)
(1.74979 0.843577 0)
(1.47761 -0.000162487 0)
(1.47764 -0.000475073 0)
(1.47773 -0.000779931 0)
(1.47786 -0.00107535 0)
(1.47803 -0.00136032 0)
(1.47824 -0.00163414 0)
(1.4785 -0.00189629 0)
(1.47879 -0.0021463 0)
(1.47912 -0.00238382 0)
(1.47949 -0.00260859 0)
(1.4799 -0.00282046 0)
(1.48034 -0.00301938 0)
(1.48081 -0.00320537 0)
(1.48131 -0.00337849 0)
(1.48184 -0.00353891 0)
(1.4824 -0.0036868 0)
(1.48298 -0.00382238 0)
(1.48359 -0.00394589 0)
(1.48422 -0.00405759 0)
(1.48487 -0.00415771 0)
(1.48554 -0.00424649 0)
(1.48623 -0.00432412 0)
(1.48693 -0.00439075 0)
(1.48764 -0.00444648 0)
(1.48837 -0.00449135 0)
(1.48911 -0.00452532 0)
(1.48985 -0.0045483 0)
(1.49061 -0.0045601 0)
(1.49136 -0.00456046 0)
(1.49212 -0.00454902 0)
(1.49289 -0.00452536 0)
(1.49365 -0.00448893 0)
(1.49441 -0.00443909 0)
(1.49517 -0.00437519 0)
(1.49593 -0.00429647 0)
(1.49668 -0.00420211 0)
(1.49742 -0.00409117 0)
(1.49815 -0.00396274 0)
(1.49887 -0.00381573 0)
(1.49958 -0.00364912 0)
(1.50028 -0.00346175 0)
(1.50095 -0.00325246 0)
(1.50162 -0.00302009 0)
(1.50226 -0.00276332 0)
(1.50289 -0.00248099 0)
(1.50349 -0.00217163 0)
(1.50407 -0.00183412 0)
(1.50462 -0.00146675 0)
(1.50515 -0.00106852 0)
(1.50565 -0.000637342 0)
(1.50613 -0.000171904 0)
(1.50657 0.000329513 0)
(1.50697 0.00086872 0)
(1.50735 0.00144769 0)
(1.50769 0.00206841 0)
(1.50799 0.00273302 0)
(1.50825 0.00344381 0)
(1.50847 0.00420326 0)
(1.50864 0.00501402 0)
(1.50878 0.00587898 0)
(1.50886 0.00680125 0)
(1.50889 0.00778423 0)
(1.50887 0.00883163 0)
(1.5088 0.00994749 0)
(1.50867 0.0111363 0)
(1.50848 0.0124028 0)
(1.50822 0.0137525 0)
(1.5079 0.0151913 0)
(1.5075 0.0167258 0)
(1.50703 0.0183632 0)
(1.50648 0.0201117 0)
(1.50585 0.0219801 0)
(1.50513 0.0239785 0)
(1.50431 0.026118 0)
(1.5034 0.0284111 0)
(1.50238 0.0308717 0)
(1.50125 0.0335153 0)
(1.50001 0.0363594 0)
(1.49863 0.0394235 0)
(1.49713 0.0427298 0)
(1.49549 0.0463029 0)
(1.49371 0.0501709 0)
(1.49178 0.0543652 0)
(1.48968 0.0589215 0)
(1.48742 0.0638802 0)
(1.485 0.069287 0)
(1.48239 0.0751942 0)
(1.47962 0.0816607 0)
(1.47666 0.0887541 0)
(1.47354 0.0965513 0)
(1.47025 0.10514 0)
(1.46681 0.114621 0)
(1.46326 0.125109 0)
(1.45961 0.136736 0)
(1.45594 0.149651 0)
(1.4523 0.164026 0)
(1.4488 0.180056 0)
(1.44559 0.197961 0)
(1.44284 0.217991 0)
(1.44081 0.240419 0)
(1.43983 0.265547 0)
(1.44036 0.293692 0)
(1.44299 0.325172 0)
(1.44849 0.360275 0)
(1.45788 0.399211 0)
(1.47243 0.442013 0)
(1.4937 0.488422 0)
(1.52381 0.537801 0)
(1.56434 0.588152 0)
(1.61988 0.639285 0)
(1.68847 0.68143 0)
(1.7753 0.719237 0)
(1.47761 -0.000187254 0)
(1.47765 -0.000549306 0)
(1.47773 -0.000903439 0)
(1.47787 -0.00124765 0)
(1.47805 -0.00158065 0)
(1.47827 -0.00190155 0)
(1.47854 -0.0022096 0)
(1.47885 -0.00250416 0)
(1.47919 -0.00278471 0)
(1.47958 -0.00305086 0)
(1.48 -0.00330236 0)
(1.48046 -0.00353906 0)
(1.48095 -0.00376091 0)
(1.48147 -0.00396796 0)
(1.48202 -0.00416033 0)
(1.4826 -0.00433817 0)
(1.48321 -0.00450171 0)
(1.48384 -0.00465118 0)
(1.48449 -0.00478686 0)
(1.48516 -0.00490899 0)
(1.48586 -0.00501782 0)
(1.48656 -0.00511357 0)
(1.48729 -0.00519639 0)
(1.48803 -0.00526642 0)
(1.48878 -0.0053237 0)
(1.48954 -0.00536822 0)
(1.49031 -0.00539989 0)
(1.49108 -0.00541854 0)
(1.49187 -0.00542392 0)
(1.49265 -0.00541569 0)
(1.49344 -0.00539342 0)
(1.49423 -0.00535659 0)
(1.49501 -0.00530456 0)
(1.4958 -0.00523668 0)
(1.49658 -0.0051522 0)
(1.49735 -0.00505031 0)
(1.49812 -0.0049301 0)
(1.49888 -0.00479063 0)
(1.49962 -0.00463087 0)
(1.50036 -0.00444976 0)
(1.50108 -0.00424619 0)
(1.50179 -0.00401901 0)
(1.50248 -0.00376701 0)
(1.50315 -0.00348902 0)
(1.5038 -0.00318366 0)
(1.50444 -0.00284982 0)
(1.50505 -0.00248586 0)
(1.50563 -0.0020908 0)
(1.50619 -0.00166275 0)
(1.50673 -0.00120032 0)
(1.50723 -0.000701933 0)
(1.50771 -0.000165768 0)
(1.50815 0.000409934 0)
(1.50857 0.00102713 0)
(1.50895 0.00168789 0)
(1.50929 0.00239439 0)
(1.5096 0.00314901 0)
(1.50986 0.00395428 0)
(1.51009 0.00481295 0)
(1.51028 0.00572801 0)
(1.51042 0.00670269 0)
(1.51051 0.00774052 0)
(1.51056 0.00884534 0)
(1.51056 0.0100214 0)
(1.51051 0.0112732 0)
(1.5104 0.012606 0)
(1.51023 0.0140252 0)
(1.51001 0.0155371 0)
(1.50972 0.0171484 0)
(1.50937 0.0188667 0)
(1.50895 0.0207003 0)
(1.50845 0.0226584 0)
(1.50788 0.0247514 0)
(1.50723 0.0269905 0)
(1.5065 0.0293885 0)
(1.50568 0.0319596 0)
(1.50477 0.0347195 0)
(1.50376 0.0376858 0)
(1.50266 0.0408783 0)
(1.50145 0.0443188 0)
(1.50013 0.0480322 0)
(1.4987 0.0520459 0)
(1.49716 0.0563912 0)
(1.4955 0.0611027 0)
(1.49373 0.0662198 0)
(1.49184 0.0717865 0)
(1.48984 0.0778526 0)
(1.48773 0.0844742 0)
(1.48552 0.0917143 0)
(1.48323 0.0996444 0)
(1.48088 0.108345 0)
(1.4785 0.117906 0)
(1.47613 0.128431 0)
(1.47381 0.140033 0)
(1.47163 0.152841 0)
(1.46968 0.166997 0)
(1.46807 0.182659 0)
(1.46697 0.2 0)
(1.4666 0.219205 0)
(1.4672 0.240467 0)
(1.46913 0.263983 0)
(1.47283 0.289936 0)
(1.47884 0.31848 0)
(1.48785 0.349702 0)
(1.50071 0.383577 0)
(1.51846 0.419902 0)
(1.54224 0.45817 0)
(1.57351 0.497591 0)
(1.61336 0.536379 0)
(1.66344 0.573051 0)
(1.72385 0.60274 0)
(1.79309 0.622908 0)
(1.47761 -0.000213223 0)
(1.47765 -0.000627212 0)
(1.47774 -0.00103305 0)
(1.47788 -0.00142838 0)
(1.47807 -0.00181167 0)
(1.47831 -0.00218175 0)
(1.47859 -0.00253766 0)
(1.47891 -0.00287857 0)
(1.47927 -0.00320377 0)
(1.47968 -0.00351276 0)
(1.48012 -0.00380516 0)
(1.48059 -0.00408076 0)
(1.48111 -0.00433947 0)
(1.48165 -0.00458128 0)
(1.48222 -0.00480629 0)
(1.48283 -0.00501468 0)
(1.48346 -0.00520667 0)
(1.48411 -0.00538252 0)
(1.48479 -0.00554252 0)
(1.48549 -0.00568694 0)
(1.4862 -0.00581607 0)
(1.48694 -0.00593013 0)
(1.48769 -0.00602934 0)
(1.48845 -0.00611382 0)
(1.48923 -0.00618366 0)
(1.49001 -0.00623887 0)
(1.49081 -0.00627938 0)
(1.49161 -0.00630502 0)
(1.49242 -0.00631557 0)
(1.49323 -0.0063107 0)
(1.49404 -0.00628999 0)
(1.49486 -0.00625294 0)
(1.49567 -0.0061989 0)
(1.49648 -0.00612725 0)
(1.49729 -0.00603724 0)
(1.49809 -0.00592806 0)
(1.49889 -0.00579886 0)
(1.49967 -0.00564865 0)
(1.50045 -0.00547647 0)
(1.50121 -0.00528125 0)
(1.50196 -0.00506191 0)
(1.5027 -0.00481728 0)
(1.50342 -0.00454626 0)
(1.50412 -0.00424753 0)
(1.5048 -0.00392003 0)
(1.50547 -0.0035622 0)
(1.50611 -0.00317304 0)
(1.50673 -0.0027509 0)
(1.50732 -0.00229436 0)
(1.50789 -0.00180198 0)
(1.50843 -0.00127205 0)
(1.50895 -0.000702834 0)
(1.50943 -9.24837e-05 0)
(1.50988 0.000560876 0)
(1.5103 0.00125932 0)
(1.51069 0.00200508 0)
(1.51105 0.00280058 0)
(1.51137 0.00364838 0)
(1.51165 0.0045513 0)
(1.51189 0.00551238 0)
(1.51209 0.00653493 0)
(1.51225 0.00762257 0)
(1.51237 0.00877925 0)
(1.51244 0.0100093 0)
(1.51247 0.0113174 0)
(1.51245 0.0127088 0)
(1.51238 0.0141892 0)
(1.51226 0.015765 0)
(1.51208 0.017443 0)
(1.51185 0.0192309 0)
(1.51156 0.0211372 0)
(1.51121 0.0231713 0)
(1.5108 0.0253435 0)
(1.51032 0.0276654 0)
(1.50977 0.0301497 0)
(1.50916 0.0328105 0)
(1.50847 0.0356636 0)
(1.50771 0.0387265 0)
(1.50687 0.0420186 0)
(1.50595 0.0455615 0)
(1.50496 0.0493795 0)
(1.50389 0.0534992 0)
(1.50274 0.0579507 0)
(1.50152 0.0627674 0)
(1.50023 0.0679866 0)
(1.49888 0.07365 0)
(1.49747 0.0798039 0)
(1.49601 0.0865002 0)
(1.49454 0.0937968 0)
(1.49306 0.101758 0)
(1.49161 0.110455 0)
(1.49023 0.119969 0)
(1.48896 0.130385 0)
(1.48789 0.141801 0)
(1.48708 0.154323 0)
(1.48665 0.168063 0)
(1.48672 0.183143 0)
(1.48748 0.199689 0)
(1.48912 0.21783 0)
(1.49192 0.237687 0)
(1.49619 0.259371 0)
(1.50235 0.282962 0)
(1.51086 0.308491 0)
(1.52231 0.33591 0)
(1.53738 0.36505 0)
(1.55685 0.395573 0)
(1.58152 0.426881 0)
(1.61228 0.458099 0)
(1.6498 0.487799 0)
(1.69453 0.514323 0)
(1.74653 0.535124 0)
(1.80458 0.548116 0)
(1.47761 -0.000240583 0)
(1.47765 -0.000709329 0)
(1.47775 -0.00116963 0)
(1.4779 -0.00161877 0)
(1.4781 -0.00205487 0)
(1.47835 -0.0024765 0)
(1.47864 -0.00288245 0)
(1.47898 -0.00327167 0)
(1.47936 -0.00364331 0)
(1.47979 -0.00399669 0)
(1.48025 -0.00433136 0)
(1.48075 -0.00464704 0)
(1.48128 -0.00494357 0)
(1.48185 -0.00522097 0)
(1.48245 -0.00547933 0)
(1.48308 -0.00571883 0)
(1.48374 -0.00593973 0)
(1.48442 -0.00614232 0)
(1.48512 -0.00632694 0)
(1.48585 -0.00649389 0)
(1.48659 -0.00664351 0)
(1.48735 -0.00677606 0)
(1.48813 -0.00689177 0)
(1.48892 -0.00699084 0)
(1.48972 -0.00707336 0)
(1.49054 -0.00713938 0)
(1.49136 -0.00718884 0)
(1.49219 -0.0072216 0)
(1.49303 -0.00723746 0)
(1.49386 -0.0072361 0)
(1.49471 -0.00721711 0)
(1.49555 -0.00718001 0)
(1.49639 -0.00712417 0)
(1.49723 -0.00704895 0)
(1.49807 -0.00695364 0)
(1.4989 -0.00683744 0)
(1.49972 -0.0066995 0)
(1.50054 -0.0065389 0)
(1.50134 -0.00635463 0)
(1.50213 -0.00614569 0)
(1.50292 -0.00591097 0)
(1.50368 -0.00564942 0)
(1.50443 -0.00535983 0)
(1.50517 -0.00504112 0)
(1.50588 -0.00469192 0)
(1.50658 -0.00431117 0)
(1.50726 -0.00389743 0)
(1.50791 -0.0034493 0)
(1.50854 -0.00296548 0)
(1.50914 -0.00244436 0)
(1.50972 -0.00188432 0)
(1.51028 -0.00128367 0)
(1.5108 -0.000640629 0)
(1.5113 4.67264e-05 0)
(1.51176 0.000780462 0)
(1.5122 0.0015628 0)
(1.5126 0.00239616 0)
(1.51297 0.00328313 0)
(1.51331 0.00422655 0)
(1.51361 0.00522948 0)
(1.51388 0.00629527 0)
(1.51411 0.00742759 0)
(1.5143 0.00863043 0)
(1.51445 0.00990817 0)
(1.51456 0.0112656 0)
(1.51463 0.012708 0)
(1.51465 0.0142411 0)
(1.51464 0.0158714 0)
(1.51458 0.0176057 0)
(1.51447 0.0194518 0)
(1.51431 0.0214183 0)
(1.51411 0.0235145 0)
(1.51385 0.0257507 0)
(1.51355 0.0281384 0)
(1.51319 0.0306903 0)
(1.51278 0.0334202 0)
(1.51232 0.0363437 0)
(1.5118 0.0394778 0)
(1.51124 0.0428415 0)
(1.51062 0.0464557 0)
(1.50995 0.0503436 0)
(1.50924 0.0545309 0)
(1.50848 0.0590459 0)
(1.50769 0.0639202 0)
(1.50687 0.0691885 0)
(1.50604 0.0748894 0)
(1.50521 0.0810654 0)
(1.50439 0.0877634 0)
(1.50361 0.0950351 0)
(1.5029 0.102937 0)
(1.5023 0.111532 0)
(1.50185 0.120886 0)
(1.50162 0.131074 0)
(1.50167 0.142173 0)
(1.5021 0.154266 0)
(1.50301 0.167439 0)
(1.50456 0.18178 0)
(1.50689 0.197375 0)
(1.51022 0.214303 0)
(1.51479 0.232628 0)
(1.5209 0.252393 0)
(1.52889 0.273602 0)
(1.53918 0.296203 0)
(1.55222 0.320064 0)
(1.56853 0.34494 0)
(1.58868 0.37044 0)
(1.61321 0.395973 0)
(1.64262 0.420728 0)
(1.67728 0.443608 0)
(1.71729 0.463308 0)
(1.76239 0.478261 0)
(1.81171 0.48696 0)
(1.47761 -0.000269547 0)
(1.47765 -0.000796286 0)
(1.47776 -0.0013142 0)
(1.47792 -0.00182018 0)
(1.47813 -0.00231195 0)
(1.47839 -0.00278778 0)
(1.4787 -0.00324619 0)
(1.47906 -0.0036859 0)
(1.47946 -0.00410587 0)
(1.47991 -0.00450532 0)
(1.4804 -0.00488368 0)
(1.48092 -0.00524062 0)
(1.48148 -0.00557598 0)
(1.48208 -0.00588977 0)
(1.48271 -0.00618212 0)
(1.48336 -0.00645324 0)
(1.48405 -0.00670345 0)
(1.48476 -0.00693309 0)
(1.48549 -0.00714255 0)
(1.48624 -0.00733221 0)
(1.48702 -0.00750244 0)
(1.48781 -0.00765358 0)
(1.48861 -0.0077859 0)
(1.48943 -0.00789963 0)
(1.49027 -0.00799492 0)
(1.49111 -0.00807182 0)
(1.49196 -0.00813033 0)
(1.49282 -0.00817033 0)
(1.49369 -0.00819162 0)
(1.49456 -0.00819391 0)
(1.49543 -0.0081768 0)
(1.4963 -0.00813984 0)
(1.49717 -0.00808239 0)
(1.49804 -0.00800382 0)
(1.49891 -0.00790343 0)
(1.49977 -0.00778048 0)
(1.50063 -0.0076341 0)
(1.50147 -0.0074634 0)
(1.50231 -0.00726739 0)
(1.50314 -0.0070451 0)
(1.50395 -0.00679546 0)
(1.50475 -0.0065174 0)
(1.50553 -0.00620985 0)
(1.5063 -0.0058716 0)
(1.50705 -0.00550155 0)
(1.50778 -0.00509849 0)
(1.50849 -0.00466104 0)
(1.50918 -0.00418801 0)
(1.50985 -0.00367796 0)
(1.51049 -0.00312936 0)
(1.51111 -0.00254069 0)
(1.51171 -0.0019103 0)
(1.51227 -0.00123645 0)
(1.51281 -0.000517225 0)
(1.51333 0.000249393 0)
(1.51381 0.0010656 0)
(1.51426 0.00193379 0)
(1.51469 0.00285654 0)
(1.51508 0.00383666 0)
(1.51544 0.00487723 0)
(1.51577 0.00598159 0)
(1.51607 0.00715339 0)
(1.51634 0.00839665 0)
(1.51657 0.00971573 0)
(1.51676 0.0111155 0)
(1.51692 0.0126011 0)
(1.51705 0.0141784 0)
(1.51714 0.0158537 0)
(1.51719 0.017634 0)
(1.51721 0.019527 0)
(1.51719 0.0215411 0)
(1.51713 0.0236856 0)
(1.51704 0.0259706 0)
(1.51691 0.0284074 0)
(1.51674 0.0310085 0)
(1.51654 0.0337872 0)
(1.5163 0.0367588 0)
(1.51603 0.0399395 0)
(1.51573 0.0433477 0)
(1.51541 0.0470032 0)
(1.51506 0.0509281 0)
(1.5147 0.0551464 0)
(1.51433 0.0596847 0)
(1.51396 0.0645722 0)
(1.5136 0.0698407 0)
(1.51327 0.0755252 0)
(1.51298 0.0816639 0)
(1.51277 0.0882983 0)
(1.51265 0.0954736 0)
(1.51266 0.103238 0)
(1.51285 0.111645 0)
(1.51326 0.12075 0)
(1.51396 0.130611 0)
(1.51502 0.141289 0)
(1.51654 0.152847 0)
(1.51863 0.165346 0)
(1.52143 0.178844 0)
(1.52508 0.193394 0)
(1.52978 0.209033 0)
(1.53575 0.225783 0)
(1.54325 0.243636 0)
(1.55257 0.262545 0)
(1.56404 0.282406 0)
(1.57803 0.303042 0)
(1.59491 0.324182 0)
(1.61508 0.345435 0)
(1.63889 0.366266 0)
(1.66661 0.385987 0)
(1.69841 0.40374 0)
(1.73422 0.418538 0)
(1.77366 0.429279 0)
(1.81597 0.434883 0)
(1.47761 -0.000300358 0)
(1.47766 -0.000888819 0)
(1.47777 -0.00146793 0)
(1.47794 -0.00203421 0)
(1.47817 -0.00258489 0)
(1.47844 -0.00311789 0)
(1.47877 -0.00363143 0)
(1.47915 -0.00412399 0)
(1.47958 -0.00459435 0)
(1.48005 -0.0050416 0)
(1.48057 -0.00546511 0)
(1.48112 -0.00586451 0)
(1.48171 -0.00623967 0)
(1.48233 -0.0065906 0)
(1.48299 -0.00691751 0)
(1.48368 -0.00722068 0)
(1.48439 -0.00750049 0)
(1.48514 -0.00775739 0)
(1.4859 -0.00799184 0)
(1.48668 -0.0082043 0)
(1.48749 -0.00839521 0)
(1.48831 -0.00856497 0)
(1.48915 -0.00871392 0)
(1.49 -0.00884234 0)
(1.49086 -0.00895043 0)
(1.49174 -0.00903827 0)
(1.49262 -0.0091059 0)
(1.49351 -0.00915322 0)
(1.49441 -0.00918006 0)
(1.49531 -0.00918613 0)
(1.49621 -0.00917106 0)
(1.49712 -0.00913439 0)
(1.49802 -0.00907554 0)
(1.49893 -0.00899383 0)
(1.49982 -0.00888863 0)
(1.50072 -0.00875918 0)
(1.50161 -0.00860466 0)
(1.50248 -0.00842417 0)
(1.50336 -0.00821677 0)
(1.50421 -0.00798149 0)
(1.50506 -0.00771732 0)
(1.5059 -0.00742322 0)
(1.50672 -0.00709815 0)
(1.50752 -0.00674099 0)
(1.5083 -0.0063507 0)
(1.50907 -0.00592597 0)
(1.50982 -0.00546575 0)
(1.51055 -0.00496871 0)
(1.51125 -0.00443349 0)
(1.51194 -0.00385869 0)
(1.5126 -0.00324283 0)
(1.51323 -0.00258434 0)
(1.51384 -0.00188152 0)
(1.51443 -0.00113253 0)
(1.51499 -0.000335414 0)
(1.51552 0.000511986 0)
(1.51603 0.00141199 0)
(1.51651 0.00236714 0)
(1.51696 0.00338021 0)
(1.51738 0.00445422 0)
(1.51778 0.00559248 0)
(1.51815 0.00679859 0)
(1.51849 0.00807653 0)
(1.5188 0.00943063 0)
(1.51908 0.0108656 0)
(1.51933 0.0123868 0)
(1.51956 0.0139998 0)
(1.51976 0.0157109 0)
(1.51993 0.0175269 0)
(1.52007 0.0194555 0)
(1.52018 0.0215049 0)
(1.52027 0.0236841 0)
(1.52034 0.026003 0)
(1.52038 0.0284727 0)
(1.52041 0.031105 0)
(1.52041 0.033913 0)
(1.52039 0.0369111 0)
(1.52037 0.0401149 0)
(1.52033 0.0435417 0)
(1.52029 0.0472102 0)
(1.52026 0.051141 0)
(1.52024 0.0553564 0)
(1.52024 0.0598808 0)
(1.52027 0.0647408 0)
(1.52035 0.0699651 0)
(1.5205 0.0755849 0)
(1.52074 0.0816337 0)
(1.52109 0.0881477 0)
(1.52158 0.0951653 0)
(1.52226 0.102727 0)
(1.52317 0.110877 0)
(1.52436 0.119658 0)
(1.52589 0.129117 0)
(1.52785 0.139298 0)
(1.53033 0.150245 0)
(1.53342 0.162 0)
(1.53726 0.174594 0)
(1.54199 0.188053 0)
(1.54779 0.202385 0)
(1.55484 0.217578 0)
(1.56336 0.23359 0)
(1.57359 0.250341 0)
(1.5858 0.2677 0)
(1.60026 0.285475 0)
(1.61724 0.303392 0)
(1.63702 0.321089 0)
(1.6598 0.338102 0)
(1.68572 0.35386 0)
(1.71481 0.36769 0)
(1.74692 0.378844 0)
(1.78167 0.386549 0)
(1.81844 0.390075 0)
(1.47761 -0.000333304 0)
(1.47766 -0.000987785 0)
(1.47778 -0.00163223 0)
(1.47796 -0.00226275 0)
(1.47821 -0.002876 0)
(1.4785 -0.00346948 0)
(1.47885 -0.0040411 0)
(1.47926 -0.00458907 0)
(1.47971 -0.005112 0)
(1.48021 -0.00560886 0)
(1.48076 -0.00607899 0)
(1.48134 -0.00652202 0)
(1.48196 -0.00693786 0)
(1.48262 -0.0073266 0)
(1.48331 -0.00768853 0)
(1.48403 -0.00802406 0)
(1.48478 -0.00833367 0)
(1.48556 -0.00861792 0)
(1.48635 -0.00887738 0)
(1.48717 -0.00911261 0)
(1.48801 -0.00932414 0)
(1.48887 -0.00951247 0)
(1.48974 -0.009678 0)
(1.49062 -0.00982108 0)
(1.49152 -0.00994195 0)
(1.49243 -0.0100408 0)
(1.49334 -0.0101175 0)
(1.49427 -0.0101722 0)
(1.4952 -0.0102047 0)
(1.49613 -0.0102147 0)
(1.49707 -0.0102018 0)
(1.49801 -0.0101656 0)
(1.49894 -0.0101056 0)
(1.49988 -0.010021 0)
(1.50081 -0.00991121 0)
(1.50174 -0.00977556 0)
(1.50266 -0.00961319 0)
(1.50358 -0.00942324 0)
(1.50448 -0.00920476 0)
(1.50538 -0.00895685 0)
(1.50626 -0.0086785 0)
(1.50713 -0.00836878 0)
(1.50799 -0.00802662 0)
(1.50883 -0.00765111 0)
(1.50965 -0.00724105 0)
(1.51045 -0.00679546 0)
(1.51124 -0.00631319 0)
(1.51201 -0.005793 0)
(1.51275 -0.00523366 0)
(1.51348 -0.00463386 0)
(1.51418 -0.00399221 0)
(1.51486 -0.0033072 0)
(1.51552 -0.00257723 0)
(1.51615 -0.00180055 0)
(1.51676 -0.000975265 0)
(1.51734 -9.9317e-05 0)
(1.5179 0.000829543 0)
(1.51843 0.00181377 0)
(1.51895 0.00285606 0)
(1.51943 0.00395936 0)
(1.51989 0.00512689 0)
(1.52033 0.0063622 0)
(1.52075 0.00766915 0)
(1.52114 0.009052 0)
(1.5215 0.0105154 0)
(1.52185 0.0120645 0)
(1.52218 0.0137048 0)
(1.52248 0.0154425 0)
(1.52277 0.0172842 0)
(1.52303 0.0192373 0)
(1.52329 0.0213099 0)
(1.52352 0.0235106 0)
(1.52375 0.0258492 0)
(1.52396 0.0283359 0)
(1.52417 0.0309823 0)
(1.52437 0.0338008 0)
(1.52458 0.0368049 0)
(1.52479 0.0400095 0)
(1.52501 0.0434307 0)
(1.52525 0.0470858 0)
(1.52552 0.0509937 0)
(1.52582 0.055175 0)
(1.52618 0.0596517 0)
(1.5266 0.0644475 0)
(1.52709 0.0695881 0)
(1.52769 0.0751007 0)
(1.52842 0.0810142 0)
(1.52929 0.0873593 0)
(1.53035 0.0941681 0)
(1.53164 0.101474 0)
(1.5332 0.10931 0)
(1.53508 0.117712 0)
(1.53736 0.126713 0)
(1.5401 0.136343 0)
(1.54339 0.146632 0)
(1.54732 0.157602 0)
(1.55203 0.169267 0)
(1.55763 0.181629 0)
(1.56427 0.194675 0)
(1.57212 0.208369 0)
(1.58136 0.222649 0)
(1.59218 0.237417 0)
(1.60478 0.252531 0)
(1.61938 0.267796 0)
(1.63616 0.282957 0)
(1.65529 0.29769 0)
(1.6769 0.311601 0)
(1.70103 0.324223 0)
(1.72764 0.335034 0)
(1.75655 0.343475 0)
(1.78741 0.348998 0)
(1.81973 0.351102 0)
(1.47761 -0.000368728 0)
(1.47767 -0.00109421 0)
(1.47779 -0.00180877 0)
(1.47799 -0.00250804 0)
(1.47825 -0.003188 0)
(1.47857 -0.00384567 0)
(1.47895 -0.00447861 0)
(1.47938 -0.00508475 0)
(1.47986 -0.00566254 0)
(1.4804 -0.00621086 0)
(1.48097 -0.00672904 0)
(1.48159 -0.00721678 0)
(1.48225 -0.00767406 0)
(1.48295 -0.00810113 0)
(1.48367 -0.00849841 0)
(1.48443 -0.00886644 0)
(1.48522 -0.00920588 0)
(1.48603 -0.00951742 0)
(1.48686 -0.00980177 0)
(1.48771 -0.0100596 0)
(1.48859 -0.0102916 0)
(1.48948 -0.0104984 0)
(1.49038 -0.0106803 0)
(1.4913 -0.010838 0)
(1.49224 -0.0109715 0)
(1.49318 -0.0110813 0)
(1.49413 -0.0111672 0)
(1.49509 -0.0112293 0)
(1.49605 -0.0112676 0)
(1.49702 -0.0112816 0)
(1.49799 -0.011271 0)
(1.49897 -0.0112355 0)
(1.49994 -0.0111744 0)
(1.50091 -0.0110872 0)
(1.50188 -0.0109732 0)
(1.50285 -0.0108316 0)
(1.5038 -0.0106617 0)
(1.50476 -0.0104626 0)
(1.5057 -0.0102333 0)
(1.50663 -0.009973 0)
(1.50755 -0.00968083 0)
(1.50846 -0.00935577 0)
(1.50935 -0.00899701 0)
(1.51023 -0.00860348 0)
(1.51109 -0.00817427 0)
(1.51194 -0.00770839 0)
(1.51276 -0.00720474 0)
(1.51357 -0.00666224 0)
(1.51436 -0.00607975 0)