/*--------------------------------*- C++ -*----------------------------------*\
| =========                 |                                                 |
| \\      /  F ield         | OpenFOAM: The Open Source CFD Toolbox           |
|  \\    /   O peration     | Version:  2206                                  |
|   \\  /    A nd           | Website:  www.openfoam.com                      |
|    \\/     M anipulation  |                                                 |
\*---------------------------------------------------------------------------*/
FoamFile
{
    version     2.0;
    format      ascii;
    arch        "LSB;label=32;scalar=64";
    class       volVectorField;
    location    "19.5999";
    object      U;
}
// * * * * * * * * * * * * * * * * * * * * * * * * * * * * * * * * * * * * * //

dimensions      [0 1 -1 0 0 0 0];

internalField   nonuniform List<vector> 
4866
(
(1.26043 0.221304 0)
(1.27402 0.275634 0)
(1.28922 0.325745 0)
(1.30559 0.371306 0)
(1.32268 0.412183 0)
(1.34008 0.448435 0)
(1.35742 0.480266 0)
(1.37438 0.507969 0)
(1.39073 0.531897 0)
(1.40628 0.55242 0)
(1.42093 0.569885 0)
(1.43461 0.584596 0)
(1.44729 0.596792 0)
(1.45901 0.606612 0)
(1.46983 0.614072 0)
(1.47989 0.619042 0)
(1.48942 0.621137 0)
(1.49855 0.619607 0)
(1.50723 0.613822 0)
(1.51562 0.603291 0)
(1.52382 0.5875 0)
(1.53193 0.565931 0)
(1.54002 0.538113 0)
(1.54814 0.503677 0)
(1.55631 0.462407 0)
(1.56451 0.414288 0)
(1.5727 0.359542 0)
(1.58081 0.298652 0)
(1.58875 0.232376 0)
(1.59644 0.161764 0)
(1.60377 0.0882234 0)
(1.61056 0.0137286 0)
(1.61657 -0.0596278 0)
(1.62164 -0.130389 0)
(1.62561 -0.197265 0)
(1.62834 -0.259192 0)
(1.62972 -0.315389 0)
(1.6297 -0.365359 0)
(1.62826 -0.408878 0)
(1.62545 -0.445965 0)
(1.62132 -0.476825 0)
(1.61598 -0.501817 0)
(1.60951 -0.521399 0)
(1.60202 -0.536073 0)
(1.59355 -0.546326 0)
(1.58404 -0.552553 0)
(1.57349 -0.555097 0)
(1.56204 -0.554508 0)
(1.54967 -0.551384 0)
(1.53647 -0.546172 0)
(1.5225 -0.539184 0)
(1.50784 -0.530578 0)
(1.49261 -0.520362 0)
(1.47695 -0.508409 0)
(1.46102 -0.494488 0)
(1.44501 -0.478296 0)
(1.42913 -0.459497 0)
(1.41358 -0.437757 0)
(1.39859 -0.412776 0)
(1.3844 -0.384318 0)
(1.37122 -0.352233 0)
(1.3593 -0.31648 0)
(1.34882 -0.277135 0)
(1.34001 -0.234408 0)
(1.33304 -0.188631 0)
(1.32806 -0.140241 0)
(1.32516 -0.0898033 0)
(1.32441 -0.0380249 0)
(1.32579 0.0143179 0)
(1.32916 0.0663641 0)
(1.33436 0.117404 0)
(1.34121 0.166802 0)
(1.34952 0.213992 0)
(1.35904 0.258486 0)
(1.36953 0.299894 0)
(1.38074 0.337925 0)
(1.39243 0.372385 0)
(1.40438 0.403186 0)
(1.4164 0.430319 0)
(1.42831 0.453853 0)
(1.43997 0.473916 0)
(1.45124 0.490662 0)
(1.46204 0.504272 0)
(1.47232 0.51492 0)
(1.48208 0.522741 0)
(1.49135 0.52779 0)
(1.50028 0.529959 0)
(1.50897 0.528914 0)
(1.51735 0.524429 0)
(1.52557 0.516346 0)
(1.53371 0.504471 0)
(1.54184 0.48858 0)
(1.55004 0.468439 0)
(1.55836 0.443843 0)
(1.56683 0.414644 0)
(1.57544 0.380782 0)
(1.58417 0.34231 0)
(1.59296 0.299409 0)
(1.60175 0.252397 0)
(1.61046 0.201733 0)
(1.61898 0.148016 0)
(1.62723 0.092013 0)
(1.63507 0.0347231 0)
(1.64231 -0.0225195 0)
(1.64881 -0.0786783 0)
(1.65445 -0.132889 0)
(1.6591 -0.184373 0)
(1.66268 -0.232472 0)
(1.6651 -0.276664 0)
(1.66632 -0.316574 0)
(1.66631 -0.351973 0)
(1.6651 -0.382763 0)
(1.66271 -0.408964 0)
(1.65921 -0.430687 0)
(1.65466 -0.448127 0)
(1.64912 -0.461528 0)
(1.64267 -0.47115 0)
(1.63523 -0.477192 0)
(1.62668 -0.47976 0)
(1.61721 -0.479151 0)
(1.60681 -0.475848 0)
(1.59557 -0.47025 0)
(1.58358 -0.462696 0)
(1.57094 -0.453443 0)
(1.5578 -0.442637 0)
(1.5443 -0.430313 0)
(1.53061 -0.416399 0)
(1.51694 -0.400727 0)
(1.50348 -0.383071 0)
(1.49042 -0.363175 0)
(1.47794 -0.340795 0)
(1.46623 -0.315732 0)
(1.45545 -0.287853 0)
(1.44576 -0.257115 0)
(1.43729 -0.223572 0)
(1.43017 -0.187375 0)
(1.42451 -0.148788 0)
(1.42039 -0.108174 0)
(1.41784 -0.0659754 0)
(1.2597 0.207318 0)
(1.27309 0.259511 0)
(1.28823 0.307968 0)
(1.30468 0.352372 0)
(1.32202 0.392581 0)
(1.33984 0.4286 0)
(1.3578 0.460565 0)
(1.37559 0.488706 0)
(1.39298 0.513307 0)
(1.40979 0.53467 0)
(1.4259 0.553082 0)
(1.44125 0.568791 0)
(1.45582 0.581976 0)
(1.46964 0.592719 0)
(1.48277 0.600986 0)
(1.49533 0.606599 0)
(1.50751 0.609155 0)
(1.51945 0.607998 0)
(1.53109 0.602529 0)
(1.54255 0.592224 0)
(1.55391 0.576565 0)
(1.56519 0.555056 0)
(1.57644 0.527257 0)
(1.58765 0.492835 0)
(1.59877 0.451613 0)
(1.60972 0.403614 0)
(1.6204 0.349091 0)
(1.63067 0.28855 0)
(1.64038 0.222755 0)
(1.6494 0.152755 0)
(1.65757 0.0799843 0)
(1.66466 0.00653657 0)
(1.67045 -0.0655892 0)
(1.67481 -0.134946 0)
(1.67761 -0.20027 0)
(1.67877 -0.260542 0)
(1.67826 -0.315026 0)
(1.67609 -0.363275 0)
(1.6723 -0.405118 0)
(1.66699 -0.440619 0)
(1.66026 -0.47002 0)
(1.65228 -0.493691 0)
(1.64318 -0.512072 0)
(1.63309 -0.525633 0)
(1.62206 -0.534807 0)
(1.61004 -0.539946 0)
(1.59719 -0.541454 0)
(1.58356 -0.539924 0)
(1.56917 -0.535911 0)
(1.55407 -0.529865 0)
(1.53831 -0.522118 0)
(1.52196 -0.512858 0)
(1.50513 -0.502125 0)
(1.48794 -0.489822 0)
(1.47056 -0.475743 0)
(1.45316 -0.459606 0)
(1.43595 -0.441093 0)
(1.41912 -0.419886 0)
(1.4029 -0.395697 0)
(1.38753 -0.368294 0)
(1.37324 -0.337526 0)
(1.36026 -0.303338 0)
(1.34881 -0.265784 0)
(1.33909 -0.225045 0)
(1.33128 -0.181428 0)
(1.3255 -0.135347 0)
(1.32183 -0.0873135 0)
(1.32043 -0.0379894 0)
(1.32109 0.0119736 0)
(1.3239 0.0618392 0)
(1.32863 0.110869 0)
(1.33513 0.158447 0)
(1.34322 0.204056 0)
(1.35268 0.247235 0)
(1.36326 0.287602 0)
(1.37473 0.324862 0)
(1.38685 0.358806 0)
(1.3994 0.389323 0)
(1.41218 0.416395 0)
(1.42499 0.44006 0)
(1.4377 0.460403 0)
(1.45017 0.477546 0)
(1.46233 0.491628 0)
(1.47412 0.502772 0)
(1.48554 0.511064 0)
(1.49662 0.516511 0)
(1.50748 0.518972 0)
(1.51821 0.518157 0)
(1.52875 0.51385 0)
(1.53922 0.505872 0)
(1.54968 0.494021 0)
(1.56017 0.47808 0)
(1.57073 0.457837 0)
(1.58139 0.433114 0)
(1.59214 0.403793 0)
(1.60294 0.369846 0)
(1.61374 0.331352 0)
(1.62443 0.288517 0)
(1.63493 0.241675 0)
(1.64511 0.191299 0)
(1.65486 0.137995 0)
(1.66405 0.0825342 0)
(1.67253 0.0259788 0)
(1.68008 -0.0303273 0)
(1.68657 -0.0854133 0)
(1.69189 -0.138424 0)
(1.69595 -0.188602 0)
(1.69868 -0.235313 0)
(1.70003 -0.278065 0)
(1.69999 -0.316516 0)
(1.69858 -0.350467 0)
(1.69584 -0.379853 0)
(1.69182 -0.404719 0)
(1.68661 -0.425193 0)
(1.68032 -0.441466 0)
(1.67302 -0.453764 0)
(1.66474 -0.462295 0)
(1.65537 -0.467191 0)
(1.64501 -0.468606 0)
(1.63374 -0.466965 0)
(1.62158 -0.462713 0)
(1.60864 -0.456254 0)
(1.59501 -0.447947 0)
(1.58077 -0.43807 0)
(1.56606 -0.426798 0)
(1.55104 -0.414193 0)
(1.53587 -0.400202 0)
(1.52074 -0.384672 0)
(1.50586 -0.36738 0)
(1.49143 -0.348067 0)
(1.47763 -0.326479 0)
(1.46467 -0.302402 0)
(1.45269 -0.275691 0)
(1.44187 -0.246288 0)
(1.43235 -0.214229 0)
(1.42425 -0.179652 0)
(1.41769 -0.142789 0)
(1.41273 -0.103969 0)
(1.40945 -0.0636037 0)
(1.26292 0.193635 0)
(1.27599 0.243599 0)
(1.2909 0.290286 0)
(1.30725 0.333383 0)
(1.32465 0.372726 0)
(1.34271 0.408288 0)
(1.36111 0.440155 0)
(1.37956 0.468496 0)
(1.39783 0.493526 0)
(1.41575 0.515484 0)
(1.43319 0.534595 0)
(1.45009 0.551049 0)
(1.46644 0.564968 0)
(1.48227 0.576387 0)
(1.49763 0.58523 0)
(1.51262 0.591279 0)
(1.52739 0.594126 0)
(1.54207 0.59318 0)
(1.55659 0.587878 0)
(1.57106 0.577691 0)
(1.58548 0.562107 0)
(1.59985 0.540656 0)
(1.61415 0.512935 0)
(1.62832 0.478654 0)
(1.64226 0.43768 0)
(1.65583 0.390069 0)
(1.66887 0.336103 0)
(1.68117 0.276308 0)
(1.69251 0.211461 0)
(1.7027 0.142612 0)
(1.71153 0.0711933 0)
(1.71874 -0.000611649 0)
(1.72414 -0.0709348 0)
(1.72763 -0.138358 0)
(1.72914 -0.201666 0)
(1.72864 -0.259893 0)
(1.72616 -0.312355 0)
(1.72179 -0.358654 0)
(1.71564 -0.398659 0)
(1.70787 -0.432464 0)
(1.69865 -0.460337 0)
(1.68814 -0.482659 0)
(1.67651 -0.49986 0)
(1.66392 -0.512355 0)
(1.65044 -0.520523 0)
(1.63611 -0.524713 0)
(1.6211 -0.52537 0)
(1.60545 -0.523061 0)
(1.58917 -0.518308 0)
(1.57232 -0.511562 0)
(1.55491 -0.503174 0)
(1.53701 -0.493364 0)
(1.51871 -0.482209 0)
(1.50014 -0.469644 0)
(1.48145 -0.45549 0)
(1.46282 -0.439485 0)
(1.44444 -0.421326 0)
(1.42652 -0.400708 0)
(1.40925 -0.377358 0)
(1.39287 -0.351056 0)
(1.3776 -0.321654 0)
(1.36368 -0.289092 0)
(1.35133 -0.25341 0)
(1.34076 -0.214758 0)
(1.33215 -0.173393 0)
(1.32563 -0.129682 0)
(1.32126 -0.0840898 0)
(1.3194 -0.0371695 0)
(1.31924 0.010414 0)
(1.32142 0.0579412 0)
(1.3258 0.10479 0)
(1.33196 0.150411 0)
(1.33983 0.194297 0)
(1.3492 0.236003 0)
(1.35982 0.275154 0)
(1.37147 0.311457 0)
(1.38393 0.344702 0)
(1.39698 0.37477 0)
(1.41039 0.401608 0)
(1.42401 0.425225 0)
(1.43767 0.445674 0)
(1.45125 0.463039 0)
(1.46468 0.477414 0)
(1.47791 0.48888 0)
(1.49092 0.497476 0)
(1.50375 0.503164 0)
(1.51649 0.50578 0)
(1.5292 0.505067 0)
(1.54184 0.500826 0)
(1.55451 0.492865 0)
(1.56721 0.480979 0)
(1.57998 0.464965 0)
(1.59283 0.444634 0)
(1.60574 0.419833 0)
(1.61867 0.390479 0)
(1.63156 0.356572 0)
(1.6443 0.318224 0)
(1.65678 0.275661 0)
(1.66885 0.229234 0)
(1.68038 0.179416 0)
(1.69122 0.12682 0)
(1.70122 0.0722407 0)
(1.7102 0.0167865 0)
(1.71792 -0.0382302 0)
(1.72429 -0.0919007 0)
(1.7292 -0.14339 0)
(1.73258 -0.191968 0)
(1.73439 -0.237033 0)
(1.73461 -0.278128 0)
(1.73327 -0.31494 0)
(1.73042 -0.347303 0)
(1.72614 -0.375174 0)
(1.7205 -0.39862 0)
(1.71363 -0.417785 0)
(1.70562 -0.432852 0)
(1.69658 -0.444009 0)
(1.68648 -0.451401 0)
(1.6753 -0.455134 0)
(1.6632 -0.455471 0)
(1.6502 -0.452855 0)
(1.63638 -0.447709 0)
(1.62184 -0.440444 0)
(1.60665 -0.431435 0)
(1.5909 -0.420983 0)
(1.57474 -0.409291 0)
(1.5583 -0.396448 0)
(1.54175 -0.382422 0)
(1.5253 -0.367078 0)
(1.50914 -0.350197 0)
(1.49346 -0.33152 0)
(1.47848 -0.310785 0)
(1.46438 -0.287764 0)
(1.45134 -0.262296 0)
(1.43951 -0.234304 0)
(1.42905 -0.203807 0)
(1.42007 -0.170925 0)
(1.41269 -0.135868 0)
(1.407 -0.0989324 0)
(1.40305 -0.060494 0)
(1.26942 0.180469 0)
(1.28206 0.228102 0)
(1.29662 0.272882 0)
(1.31275 0.314504 0)
(1.33007 0.35279 0)
(1.34823 0.387682 0)
(1.36693 0.419219 0)
(1.38589 0.447511 0)
(1.4049 0.472715 0)
(1.42379 0.495007 0)
(1.44243 0.514555 0)
(1.46078 0.531491 0)
(1.4788 0.545886 0)
(1.49652 0.557734 0)
(1.51399 0.566919 0)
(1.53129 0.573197 0)
(1.54856 0.576155 0)
(1.56586 0.575257 0)
(1.58314 0.569984 0)
(1.60046 0.559819 0)
(1.61779 0.544269 0)
(1.63507 0.522894 0)
(1.65224 0.495328 0)
(1.66921 0.461319 0)
(1.68581 0.420771 0)
(1.70184 0.373796 0)
(1.71705 0.320724 0)
(1.73115 0.262106 0)
(1.74388 0.198704 0)
(1.75501 0.131544 0)
(1.76429 0.0620776 0)
(1.77146 -0.00751878 0)
(1.77635 -0.0755041 0)
(1.77888 -0.140506 0)
(1.77905 -0.201365 0)
(1.77687 -0.25718 0)
(1.77244 -0.307331 0)
(1.76592 -0.351473 0)
(1.75748 -0.389511 0)
(1.74734 -0.421559 0)
(1.73573 -0.447889 0)
(1.72283 -0.468867 0)
(1.70885 -0.484901 0)
(1.69393 -0.496384 0)
(1.6782 -0.50366 0)
(1.66176 -0.507067 0)
(1.64478 -0.507043 0)
(1.62729 -0.504109 0)
(1.60931 -0.498759 0)
(1.59086 -0.491441 0)
(1.57197 -0.482525 0)
(1.55267 -0.472263 0)
(1.53305 -0.460775 0)
(1.51323 -0.448035 0)
(1.49337 -0.433892 0)
(1.47364 -0.418106 0)
(1.45424 -0.400383 0)
(1.43537 -0.380426 0)
(1.41723 -0.357971 0)
(1.40003 -0.332807 0)
(1.38397 -0.304793 0)
(1.36928 -0.273873 0)
(1.35617 -0.240078 0)
(1.34485 -0.203534 0)
(1.33549 -0.164461 0)
(1.32824 -0.123186 0)
(1.3232 -0.0801236 0)
(1.32048 -0.0357081 0)
(1.3201 0.00944419 0)
(1.32179 0.0545613 0)
(1.32571 0.099134 0)
(1.33154 0.142688 0)
(1.33916 0.184726 0)
(1.34839 0.224817 0)
(1.359 0.262603 0)
(1.37077 0.297799 0)
(1.38348 0.330193 0)
(1.39691 0.359642 0)
(1.41087 0.386071 0)
(1.42519 0.409462 0)
(1.43972 0.429836 0)
(1.45433 0.44724 0)
(1.46896 0.461725 0)
(1.48354 0.473332 0)
(1.49807 0.482057 0)
(1.51257 0.487826 0)
(1.52712 0.490458 0)
(1.54173 0.489725 0)
(1.55639 0.485442 0)
(1.57114 0.477416 0)
(1.58599 0.465447 0)
(1.60093 0.449345 0)
(1.61594 0.428946 0)
(1.63098 0.404128 0)
(1.64596 0.374838 0)
(1.66078 0.34111 0)
(1.67532 0.303082 0)
(1.68943 0.260999 0)
(1.70293 0.215226 0)
(1.71566 0.166243 0)
(1.72744 0.114659 0)
(1.73811 0.0612815 0)
(1.74743 0.00730199 0)
(1.7552 -0.0460973 0)
(1.76133 -0.0980328 0)
(1.76574 -0.1477 0)
(1.76837 -0.194404 0)
(1.76922 -0.23758 0)
(1.76829 -0.276809 0)
(1.76564 -0.311815 0)
(1.76136 -0.342462 0)
(1.75556 -0.36873 0)
(1.74835 -0.390696 0)
(1.73986 -0.408502 0)
(1.73021 -0.422315 0)
(1.71947 -0.432282 0)
(1.70762 -0.438497 0)
(1.69474 -0.441098 0)
(1.68097 -0.440425 0)
(1.66635 -0.436892 0)
(1.65096 -0.430911 0)
(1.6349 -0.422901 0)
(1.61824 -0.41325 0)
(1.60109 -0.402284 0)
(1.58357 -0.39023 0)
(1.56583 -0.377205 0)
(1.54804 -0.3632 0)
(1.53039 -0.348094 0)
(1.51308 -0.331677 0)
(1.49631 -0.31369 0)
(1.48028 -0.293864 0)
(1.46518 -0.271961 0)
(1.45119 -0.247802 0)
(1.43848 -0.221292 0)
(1.42719 -0.19243 0)
(1.41744 -0.161313 0)
(1.40935 -0.128129 0)
(1.40301 -0.0931504 0)
(1.39847 -0.0567165 0)
(1.27851 0.167831 0)
(1.29067 0.213075 0)
(1.30482 0.255847 0)
(1.32063 0.295854 0)
(1.33777 0.332909 0)
(1.35593 0.366925 0)
(1.37481 0.3979 0)
(1.39417 0.425897 0)
(1.41379 0.451018 0)
(1.43352 0.473382 0)
(1.45324 0.4931 0)
(1.4729 0.510254 0)
(1.49247 0.524871 0)
(1.51196 0.536901 0)
(1.5314 0.546199 0)
(1.55087 0.552496 0)
(1.57049 0.555389 0)
(1.59023 0.554395 0)
(1.61008 0.549038 0)
(1.63005 0.538823 0)
(1.65006 0.523282 0)
(1.67004 0.502 0)
(1.68988 0.474644 0)
(1.70941 0.441017 0)
(1.72839 0.401104 0)
(1.74655 0.355073 0)
(1.76358 0.303279 0)
(1.77917 0.24627 0)
(1.79303 0.184779 0)
(1.80487 0.119801 0)
(1.81443 0.0528174 0)
(1.82142 -0.0140521 0)
(1.82569 -0.0792105 0)
(1.82723 -0.141349 0)
(1.82606 -0.19938 0)
(1.82225 -0.252471 0)
(1.81598 -0.300065 0)
(1.80744 -0.34187 0)
(1.79688 -0.377828 0)
(1.78455 -0.408067 0)
(1.77073 -0.432849 0)
(1.75565 -0.452517 0)
(1.73952 -0.46744 0)
(1.72254 -0.477981 0)
(1.70483 -0.484477 0)
(1.68653 -0.487252 0)
(1.66782 -0.486696 0)
(1.64871 -0.483277 0)
(1.62922 -0.477459 0)
(1.60936 -0.469685 0)
(1.58915 -0.460341 0)
(1.5686 -0.449719 0)
(1.54781 -0.43798 0)
(1.52689 -0.425143 0)
(1.50599 -0.411093 0)
(1.48529 -0.39561 0)
(1.465 -0.378413 0)
(1.44532 -0.359207 0)
(1.42643 -0.337728 0)
(1.40855 -0.313765 0)
(1.39187 -0.287183 0)
(1.37659 -0.257923 0)
(1.36291 -0.226012 0)
(1.35102 -0.191564 0)
(1.34109 -0.154775 0)
(1.33327 -0.115935 0)
(1.32767 -0.0754102 0)
(1.32437 -0.0336209 0)
(1.3234 0.00893392 0)
(1.3247 0.0516199 0)
(1.32815 0.0938836 0)
(1.33363 0.135287 0)
(1.34098 0.175376 0)
(1.35002 0.213742 0)
(1.36055 0.250042 0)
(1.37236 0.283991 0)
(1.38525 0.315374 0)
(1.39899 0.344036 0)
(1.41342 0.369882 0)
(1.42836 0.392868 0)
(1.44367 0.412983 0)
(1.45923 0.430239 0)
(1.47496 0.444651 0)
(1.49082 0.456218 0)
(1.50678 0.464898 0)
(1.52286 0.470586 0)
(1.53912 0.473098 0)
(1.55554 0.472231 0)
(1.5721 0.467814 0)
(1.58883 0.459654 0)
(1.60569 0.447563 0)
(1.62265 0.43137 0)
(1.63967 0.410936 0)
(1.65665 0.386171 0)
(1.67351 0.357052 0)
(1.6901 0.323643 0)
(1.70626 0.286105 0)
(1.72182 0.244708 0)
(1.73657 0.199833 0)
(1.7503 0.151959 0)
(1.76285 0.101692 0)
(1.774 0.0498491 0)
(1.78352 -0.00233134 0)
(1.79122 -0.0537984 0)
(1.79701 -0.103701 0)
(1.80085 -0.151271 0)
(1.80269 -0.195854 0)
(1.80254 -0.236928 0)
(1.80046 -0.274112 0)
(1.79653 -0.30717 0)
(1.79087 -0.335993 0)
(1.78361 -0.360581 0)
(1.7749 -0.381017 0)
(1.76487 -0.397427 0)
(1.75365 -0.409948 0)
(1.74128 -0.418684 0)
(1.72778 -0.423717 0)
(1.71333 -0.425239 0)
(1.698 -0.423608 0)
(1.68187 -0.419208 0)
(1.66502 -0.412446 0)
(1.64754 -0.403747 0)
(1.62952 -0.393515 0)
(1.61106 -0.382094 0)
(1.59229 -0.369743 0)
(1.57337 -0.356602 0)
(1.55446 -0.342683 0)
(1.53576 -0.327878 0)
(1.51746 -0.311983 0)
(1.49975 -0.294739 0)
(1.48282 -0.275873 0)
(1.46687 -0.25514 0)
(1.45207 -0.232347 0)
(1.43859 -0.20738 0)
(1.42658 -0.180215 0)
(1.41618 -0.150926 0)
(1.40748 -0.11968 0)
(1.40057 -0.0867217 0)
(1.39552 -0.0523585 0)
(1.28955 0.155757 0)
(1.30121 0.198576 0)
(1.31491 0.239257 0)
(1.33036 0.277522 0)
(1.34726 0.313181 0)
(1.36532 0.346126 0)
(1.3843 0.37632 0)
(1.40394 0.403783 0)
(1.42407 0.428568 0)
(1.44453 0.450744 0)
(1.46521 0.470373 0)
(1.48605 0.487489 0)
(1.50702 0.502076 0)
(1.52812 0.514052 0)
(1.54938 0.523242 0)
(1.57084 0.529363 0)
(1.59259 0.532035 0)
(1.61456 0.530827 0)
(1.63675 0.525296 0)
(1.65912 0.51497 0)
(1.68156 0.499406 0)
(1.70397 0.478226 0)
(1.72615 0.451175 0)
(1.74786 0.418133 0)
(1.76882 0.379122 0)
(1.78873 0.334338 0)
(1.80725 0.284156 0)
(1.82402 0.229122 0)
(1.83873 0.169954 0)
(1.85107 0.107609 0)
(1.86072 0.0435825 0)
(1.8674 -0.0200949 0)
(1.87101 -0.0819948 0)
(1.87155 -0.140888 0)
(1.86909 -0.195767 0)
(1.86377 -0.245875 0)
(1.85581 -0.290719 0)
(1.84545 -0.330053 0)
(1.833 -0.363847 0)
(1.81874 -0.392237 0)
(1.80297 -0.415475 0)
(1.78597 -0.433873 0)
(1.76799 -0.447766 0)
(1.74923 -0.457478 0)
(1.72985 -0.463314 0)
(1.71 -0.465572 0)
(1.68983 -0.464607 0)
(1.66933 -0.460818 0)
(1.64855 -0.454637 0)
(1.62748 -0.446501 0)
(1.60611 -0.436816 0)
(1.58448 -0.42591 0)
(1.56267 -0.413993 0)
(1.54077 -0.401131 0)
(1.51897 -0.387248 0)
(1.49744 -0.372147 0)
(1.47639 -0.355555 0)
(1.45602 -0.337178 0)
(1.43653 -0.316748 0)
(1.4181 -0.294053 0)
(1.40092 -0.268957 0)
(1.38518 -0.241399 0)
(1.37106 -0.2114 0)
(1.35874 -0.17906 0)
(1.34837 -0.144556 0)
(1.34011 -0.10814 0)
(1.33407 -0.0701358 0)
(1.33031 -0.0309297 0)
(1.32887 0.00903054 0)
(1.32972 0.0492241 0)
(1.33276 0.0891154 0)
(1.33788 0.128287 0)
(1.34493 0.166325 0)
(1.35377 0.202852 0)
(1.36418 0.237535 0)
(1.37599 0.270096 0)
(1.38899 0.300317 0)
(1.40299 0.328032 0)
(1.41781 0.353127 0)
(1.4333 0.375531 0)
(1.44931 0.395206 0)
(1.46574 0.41213 0)
(1.4825 0.426285 0)
(1.49954 0.437634 0)
(1.51683 0.446103 0)
(1.53439 0.451558 0)
(1.55225 0.453822 0)
(1.57035 0.452721 0)
(1.58868 0.448088 0)
(1.60722 0.43974 0)
(1.62593 0.427503 0)
(1.64474 0.411229 0)
(1.66357 0.390806 0)
(1.68231 0.36617 0)
(1.70084 0.337329 0)
(1.719 0.304376 0)
(1.73657 0.267509 0)
(1.75334 0.227024 0)
(1.7691 0.1833 0)
(1.78364 0.136799 0)
(1.79676 0.0881139 0)
(1.80824 0.0381223 0)
(1.81781 -0.0119648 0)
(1.82532 -0.0612162 0)
(1.8307 -0.108818 0)
(1.83391 -0.154047 0)
(1.83493 -0.196293 0)
(1.8338 -0.235079 0)
(1.8306 -0.270068 0)
(1.82544 -0.30106 0)
(1.81847 -0.327971 0)
(1.80985 -0.350817 0)
(1.79973 -0.369676 0)
(1.78826 -0.384652 0)
(1.77557 -0.395844 0)
(1.76168 -0.403321 0)
(1.74669 -0.407185 0)
(1.73079 -0.407677 0)
(1.71402 -0.405132 0)
(1.69649 -0.39991 0)
(1.67828 -0.39242 0)
(1.65949 -0.38309 0)
(1.64021 -0.372338 0)
(1.62055 -0.360533 0)
(1.60065 -0.347957 0)
(1.58066 -0.334777 0)
(1.56077 -0.321022 0)
(1.54116 -0.306595 0)
(1.52201 -0.291291 0)
(1.50352 -0.274849 0)
(1.48586 -0.256994 0)
(1.46921 -0.237474 0)
(1.45375 -0.21609 0)
(1.43965 -0.192713 0)
(1.42704 -0.167297 0)
(1.41608 -0.139888 0)
(1.40687 -0.110624 0)
(1.3995 -0.0797265 0)
(1.394 -0.0474747 0)
(1.30195 0.144244 0)
(1.31312 0.184621 0)
(1.32636 0.223145 0)
(1.34141 0.259559 0)
(1.35803 0.293674 0)
(1.37595 0.325368 0)
(1.39494 0.354575 0)
(1.41478 0.381278 0)
(1.43532 0.405487 0)
(1.45639 0.427228 0)
(1.4779 0.446519 0)
(1.49978 0.463351 0)
(1.522 0.477675 0)
(1.54454 0.489375 0)
(1.56742 0.498256 0)
(1.59067 0.504032 0)
(1.61431 0.506353 0)
(1.63827 0.504833 0)
(1.66253 0.499047 0)
(1.687 0.488554 0)
(1.71156 0.472963 0)
(1.73601 0.451982 0)
(1.7601 0.425404 0)
(1.78359 0.393141 0)
(1.80614 0.355256 0)
(1.82742 0.311984 0)
(1.84706 0.263718 0)
(1.86469 0.210994 0)
(1.87996 0.154498 0)
(1.89256 0.095175 0)
(1.90213 0.0345514 0)
(1.9084 -0.0255536 0)
(1.91131 -0.0838413 0)
(1.91088 -0.13918 0)
(1.90724 -0.190652 0)
(1.90057 -0.237578 0)
(1.89113 -0.279527 0)
(1.87921 -0.316297 0)
(1.86515 -0.347876 0)
(1.84927 -0.374403 0)
(1.83189 -0.396111 0)
(1.81331 -0.413288 0)
(1.79382 -0.426231 0)
(1.77363 -0.435225 0)
(1.75292 -0.440522 0)
(1.73183 -0.442369 0)
(1.71048 -0.44107 0)
(1.68887 -0.436989 0)
(1.66701 -0.430521 0)
(1.64491 -0.422093 0)
(1.62257 -0.412128 0)
(1.60002 -0.400997 0)
(1.57731 -0.388959 0)
(1.55458 -0.376136 0)
(1.53199 -0.362495 0)
(1.50974 -0.347861 0)
(1.48805 -0.331965 0)
(1.46711 -0.314505 0)
(1.44713 -0.295202 0)
(1.42828 -0.273838 0)
(1.41074 -0.25027 0)
(1.39467 -0.224439 0)
(1.38025 -0.196361 0)
(1.36762 -0.166127 0)
(1.35694 -0.133895 0)
(1.34836 -0.0998921 0)
(1.34196 -0.0644061 0)
(1.33783 -0.0277798 0)
(1.33601 0.00959378 0)
(1.33647 0.0472648 0)
(1.33915 0.0847439 0)
(1.34394 0.121633 0)
(1.35071 0.157553 0)
(1.35933 0.192151 0)
(1.36961 0.225111 0)
(1.38138 0.256162 0)
(1.39445 0.285083 0)
(1.40865 0.311699 0)
(1.42381 0.33588 0)
(1.43978 0.357532 0)
(1.45642 0.376592 0)
(1.47363 0.393009 0)
(1.49133 0.406731 0)
(1.50946 0.417692 0)
(1.52798 0.425787 0)
(1.54691 0.430871 0)
(1.56623 0.432778 0)
(1.58586 0.431356 0)
(1.60579 0.426443 0)
(1.62597 0.417868 0)
(1.64633 0.405477 0)
(1.66678 0.389145 0)
(1.68722 0.368783 0)
(1.70751 0.344357 0)
(1.72748 0.315909 0)
(1.74694 0.283578 0)
(1.76566 0.247586 0)
(1.7834 0.208227 0)
(1.79994 0.16587 0)
(1.81508 0.120965 0)
(1.82859 0.0741219 0)
(1.84023 0.0262702 0)
(1.84971 -0.0214647 0)
(1.85695 -0.0682505 0)
(1.86185 -0.11332 0)
(1.86439 -0.155998 0)
(1.86458 -0.195723 0)
(1.8625 -0.232069 0)
(1.85823 -0.264741 0)
(1.85192 -0.293571 0)
(1.84374 -0.318503 0)
(1.83386 -0.339558 0)
(1.82246 -0.356801 0)
(1.80968 -0.370309 0)
(1.79562 -0.380142 0)
(1.78035 -0.386353 0)
(1.76405 -0.389075 0)
(1.74681 -0.388573 0)
(1.72873 -0.385142 0)
(1.70992 -0.379133 0)
(1.69046 -0.370956 0)
(1.67046 -0.361048 0)
(1.65001 -0.349842 0)
(1.62925 -0.337729 0)
(1.60833 -0.325014 0)
(1.58742 -0.311881 0)
(1.5667 -0.29838 0)
(1.54634 -0.284412 0)
(1.52651 -0.269769 0)
(1.5074 -0.254192 0)
(1.48917 -0.2374 0)
(1.47199 -0.219132 0)
(1.45603 -0.199185 0)
(1.44145 -0.177424 0)
(1.42839 -0.153789 0)
(1.41698 -0.128305 0)
(1.40737 -0.101081 0)
(1.39962 -0.0722971 0)
(1.39378 -0.0422056 0)
(1.31516 0.133249 0)
(1.32588 0.171185 0)
(1.33867 0.207512 0)
(1.35332 0.241991 0)
(1.36962 0.274438 0)
(1.38735 0.304718 0)
(1.4063 0.332748 0)
(1.42627 0.358481 0)
(1.44711 0.381893 0)
(1.46868 0.402971 0)
(1.49089 0.421694 0)
(1.51366 0.438019 0)
(1.53696 0.451864 0)
(1.56075 0.463089 0)
(1.58503 0.471485 0)
(1.60983 0.476774 0)
(1.6351 0.478637 0)
(1.66078 0.476717 0)
(1.6868 0.470615 0)
(1.71304 0.459956 0)
(1.7393 0.444426 0)
(1.76536 0.423762 0)
(1.79096 0.397797 0)
(1.8158 0.366492 0)
(1.83953 0.329953 0)
(1.86179 0.288444 0)
(1.88218 0.242367 0)
(1.90033 0.192245 0)
(1.9159 0.138731 0)
(1.92853 0.0827489 0)
(1.93786 0.0258678 0)
(1.94364 -0.0303656 0)
(1.94584 -0.0847706 0)
(1.94453 -0.136325 0)
(1.93985 -0.184205 0)
(1.93203 -0.227813 0)
(1.92136 -0.266776 0)
(1.90818 -0.300929 0)
(1.89283 -0.330276 0)
(1.87568 -0.354951 0)
(1.85706 -0.375168 0)
(1.83731 -0.391185 0)
(1.8167 -0.40326 0)
(1.79547 -0.411624 0)
(1.77378 -0.416467 0)
(1.75176 -0.417978 0)
(1.72951 -0.416408 0)
(1.70703 -0.412072 0)
(1.68433 -0.40535 0)
(1.66139 -0.396669 0)
(1.63823 -0.386468 0)
(1.61489 -0.375155 0)
(1.59143 -0.363043 0)
(1.56799 -0.350309 0)
(1.54473 -0.336967 0)
(1.52188 -0.32287 0)
(1.49966 -0.307753 0)
(1.47826 -0.291299 0)
(1.4579 -0.273209 0)
(1.43875 -0.253248 0)
(1.42096 -0.231267 0)
(1.40468 -0.207201 0)
(1.39007 -0.181062 0)
(1.37727 -0.15293 0)
(1.36641 -0.122953 0)
(1.35761 -0.0913346 0)
(1.35097 -0.0583338 0)
(1.34658 -0.0242565 0)
(1.34445 0.0105485 0)
(1.34461 0.0456937 0)
(1.34698 0.0807402 0)
(1.35147 0.11531 0)
(1.35799 0.149057 0)
(1.3664 0.181651 0)
(1.37654 0.212794 0)
(1.38826 0.242223 0)
(1.40138 0.269716 0)
(1.41574 0.295091 0)
(1.43119 0.318206 0)
(1.44758 0.338948 0)
(1.46478 0.357229 0)
(1.48269 0.372971 0)
(1.50123 0.386097 0)
(1.52033 0.39651 0)
(1.53997 0.404085 0)
(1.56013 0.408676 0)
(1.58074 0.410135 0)
(1.60175 0.408323 0)
(1.6231 0.403083 0)
(1.64472 0.39426 0)
(1.66652 0.381721 0)
(1.68839 0.365362 0)
(1.7102 0.345122 0)
(1.73178 0.321004 0)
(1.75292 0.293098 0)
(1.77341 0.261562 0)
(1.793 0.226623 0)
(1.81147 0.188576 0)
(1.82857 0.147782 0)
(1.8441 0.104688 0)
(1.85783 0.0599101 0)
(1.86945 0.0144639 0)
(1.87874 -0.0307029 0)
(1.8856 -0.0748138 0)
(1.88997 -0.117156 0)
(1.89183 -0.15711 0)
(1.89121 -0.194168 0)
(1.88821 -0.227953 0)
(1.88295 -0.258214 0)
(1.8756 -0.284816 0)
(1.86632 -0.307719 0)
(1.85532 -0.326944 0)
(1.84277 -0.342539 0)
(1.82881 -0.354546 0)
(1.81354 -0.362993 0)
(1.79706 -0.367941 0)
(1.77958 -0.369552 0)
(1.76115 -0.368068 0)
(1.74189 -0.363765 0)
(1.7219 -0.356992 0)
(1.70129 -0.348161 0)
(1.68016 -0.337723 0)
(1.65864 -0.326131 0)
(1.63688 -0.313795 0)
(1.61506 -0.301042 0)
(1.59337 -0.288085 0)
(1.57198 -0.274952 0)
(1.55104 -0.261536 0)
(1.5307 -0.247632 0)
(1.51114 -0.232976 0)
(1.4925 -0.217288 0)
(1.47496 -0.200315 0)
(1.45868 -0.181837 0)
(1.44378 -0.161708 0)
(1.43043 -0.13986 0)
(1.41873 -0.116306 0)
(1.40881 -0.0911284 0)
(1.40074 -0.0644815 0)
(1.39462 -0.0365943 0)
(1.32868 0.122727 0)
(1.33898 0.158246 0)
(1.35135 0.19235 0)
(1.36561 0.224824 0)
(1.3816 0.255494 0)
(1.3991 0.284225 0)
(1.41795 0.310916 0)
(1.43798 0.335492 0)
(1.45903 0.357903 0)
(1.481 0.378109 0)
(1.50376 0.396056 0)
(1.52726 0.411673 0)
(1.55145 0.42485 0)
(1.57629 0.435427 0)
(1.60176 0.443188 0)
(1.62785 0.447876 0)
(1.65447 0.449194 0)
(1.68155 0.446815 0)
(1.70898 0.440406 0)
(1.73657 0.429649 0)
(1.76412 0.414258 0)
(1.79139 0.394018 0)
(1.81809 0.368811 0)
(1.84387 0.338644 0)
(1.86838 0.303659 0)
(1.89123 0.26414 0)
(1.91202 0.220485 0)
(1.93038 0.173191 0)
(1.94597 0.122891 0)
(1.95844 0.0705397 0)
(1.96738 0.0176463 0)
(1.97262 -0.0344994 0)
(1.97415 -0.0848369 0)
(1.97204 -0.132458 0)
(1.96649 -0.176637 0)
(1.95774 -0.216853 0)
(1.94613 -0.25279 0)
(1.932 -0.284316 0)
(1.91574 -0.311448 0)
(1.8977 -0.33431 0)
(1.87826 -0.353096 0)
(1.85775 -0.368027 0)
(1.83644 -0.379309 0)
(1.81457 -0.387104 0)
(1.79227 -0.391533 0)
(1.76964 -0.39273 0)
(1.74677 -0.3909 0)
(1.72365 -0.386318 0)
(1.70028 -0.37934 0)
(1.67668 -0.370402 0)
(1.65284 -0.359976 0)
(1.62882 -0.348507 0)
(1.60472 -0.33636 0)
(1.58067 -0.323769 0)
(1.55689 -0.310798 0)
(1.53356 -0.297312 0)
(1.51092 -0.283045 0)
(1.48916 -0.26767 0)
(1.46851 -0.250876 0)
(1.44914 -0.232402 0)
(1.43122 -0.21207 0)
(1.41485 -0.189804 0)
(1.40018 -0.165616 0)
(1.38733 -0.139584 0)
(1.3764 -0.111844 0)
(1.3675 -0.0825811 0)
(1.36074 -0.0520301 0)
(1.35618 -0.0204663 0)
(1.35385 0.0118009 0)
(1.35378 0.0444322 0)
(1.35591 0.0770426 0)
(1.36017 0.109273 0)
(1.36647 0.140807 0)
(1.37469 0.171339 0)
(1.38471 0.200586 0)
(1.39636 0.228297 0)
(1.40951 0.254249 0)
(1.424 0.278258 0)
(1.43969 0.300168 0)
(1.45644 0.319853 0)
(1.47412 0.337203 0)
(1.49265 0.352118 0)
(1.51193 0.364495 0)
(1.53191 0.374216 0)
(1.55254 0.381145 0)
(1.57377 0.385146 0)
(1.59551 0.386086 0)
(1.6177 0.383832 0)
(1.64027 0.378233 0)
(1.66312 0.369155 0)
(1.68613 0.356485 0)
(1.70918 0.340144 0)
(1.7321 0.32011 0)
(1.75468 0.296431 0)
(1.77671 0.269212 0)
(1.79795 0.238623 0)
(1.81817 0.204899 0)
(1.83712 0.168334 0)
(1.85456 0.129275 0)
(1.8703 0.0881632 0)
(1.88405 0.0456877 0)
(1.89551 0.00284288 0)
(1.90449 -0.0395729 0)
(1.91091 -0.0808372 0)
(1.9147 -0.120297 0)
(1.91587 -0.157391 0)
(1.91447 -0.191669 0)
(1.91062 -0.222806 0)
(1.90445 -0.250593 0)
(1.89616 -0.274924 0)
(1.88592 -0.295768 0)
(1.87394 -0.313138 0)
(1.8604 -0.327056 0)
(1.84541 -0.337531 0)
(1.82907 -0.344578 0)
(1.81158 -0.348269 0)
(1.79303 -0.348778 0)
(1.77354 -0.346309 0)
(1.75321 -0.341132 0)
(1.73215 -0.333602 0)
(1.71047 -0.324141 0)
(1.6883 -0.313221 0)
(1.66581 -0.301314 0)
(1.64316 -0.288859 0)
(1.62058 -0.276216 0)
(1.59826 -0.263561 0)
(1.57634 -0.2509 0)
(1.55496 -0.23812 0)
(1.53429 -0.225023 0)
(1.51445 -0.211356 0)
(1.4956 -0.196838 0)
(1.47788 -0.181195 0)
(1.46144 -0.164216 0)
(1.44641 -0.145744 0)
(1.43292 -0.125696 0)
(1.42108 -0.104065 0)
(1.41102 -0.0809172 0)
(1.40281 -0.0563917 0)
(1.39652 -0.0306964 0)
(1.34198 0.112615 0)
(1.35194 0.145752 0)
(1.36394 0.17763 0)
(1.37784 0.208055 0)
(1.39351 0.236865 0)
(1.41078 0.263926 0)
(1.42949 0.28913 0)
(1.44951 0.312392 0)
(1.47068 0.333639 0)
(1.49291 0.352797 0)
(1.5161 0.369791 0)
(1.54017 0.384525 0)
(1.56506 0.396868 0)
(1.59075 0.406646 0)
(1.61718 0.413652 0)
(1.64427 0.417647 0)
(1.67194 0.418377 0)
(1.70007 0.415557 0)
(1.72851 0.408885 0)
(1.75707 0.398083 0)
(1.78553 0.382916 0)
(1.8136 0.363219 0)
(1.84098 0.33892 0)
(1.86731 0.310064 0)
(1.89221 0.276823 0)
(1.91528 0.239489 0)
(1.93614 0.198448 0)
(1.95443 0.154171 0)
(1.96981 0.10727 0)
(1.98193 0.0587314 0)
(1.9904 0.00996676 0)
(1.99508 -0.0379626 0)
(1.99598 -0.0841276 0)
(1.9932 -0.127746 0)
(1.98696 -0.168185 0)
(1.97755 -0.204999 0)
(1.9653 -0.237925 0)
(1.95057 -0.26686 0)
(1.93377 -0.291827 0)
(1.91526 -0.312944 0)
(1.89543 -0.330375 0)
(1.87459 -0.344295 0)
(1.85302 -0.35484 0)
(1.83089 -0.362092 0)
(1.80831 -0.366102 0)
(1.78537 -0.366956 0)
(1.76213 -0.364822 0)
(1.73856 -0.359944 0)
(1.7147 -0.352674 0)
(1.69054 -0.343459 0)
(1.66613 -0.332799 0)
(1.64154 -0.321186 0)
(1.61689 -0.309043 0)
(1.59235 -0.296666 0)
(1.56814 -0.28413 0)
(1.54444 -0.271312 0)
(1.52147 -0.25796 0)
(1.49947 -0.243749 0)
(1.47862 -0.228333 0)
(1.45913 -0.211416 0)
(1.44116 -0.192807 0)
(1.42481 -0.172399 0)
(1.41019 -0.150189 0)
(1.3974 -0.126251 0)
(1.38653 -0.100721 0)
(1.37767 -0.0737743 0)
(1.3709 -0.0456277 0)
(1.36628 -0.0165299 0)
(1.36386 0.0132405 0)
(1.36365 0.0433834 0)
(1.36562 0.073572 0)
(1.36971 0.103462 0)
(1.37584 0.132762 0)
(1.38392 0.16119 0)
(1.39382 0.188481 0)
(1.40542 0.214392 0)
(1.41859 0.238708 0)
(1.43318 0.261239 0)
(1.44906 0.281823 0)
(1.46611 0.30032 0)
(1.48421 0.316603 0)
(1.50326 0.330553 0)
(1.52319 0.342047 0)
(1.54392 0.350952 0)
(1.5654 0.357136 0)
(1.58753 0.360473 0)
(1.61022 0.360844 0)
(1.6334 0.358109 0)
(1.65698 0.352137 0)
(1.68082 0.342811 0)
(1.70481 0.330044 0)
(1.72877 0.313796 0)
(1.75251 0.294082 0)
(1.77582 0.270962 0)
(1.79846 0.244559 0)
(1.8202 0.215058 0)
(1.84078 0.182697 0)
(1.85998 0.147758 0)
(1.87757 0.110575 0)
(1.89332 0.071611 0)
(1.90691 0.031651 0)
(1.91808 -0.0084485 0)
(1.92666 -0.0479725 0)
(1.93257 -0.0862588 0)
(1.93576 -0.122718 0)
(1.93624 -0.156855 0)
(1.9341 -0.188279 0)