/*--------------------------------*- C++ -*----------------------------------*\
| =========                 |                                                 |
| \\      /  F ield         | OpenFOAM: The Open Source CFD Toolbox           |
|  \\    /   O peration     | Version:  2206                                  |
|   \\  /    A nd           | Website:  www.openfoam.com                      |
|    \\/     M anipulation  |                                                 |
\*---------------------------------------------------------------------------*/
FoamFile
{
    version     2.0;
    format      ascii;
    arch        "LSB;label=32;scalar=64";
    class       surfaceScalarField;
    location    "18.8001";
    object      phi;
}
// * * * * * * * * * * * * * * * * * * * * * * * * * * * * * * * * * * * * * //

dimensions      [0 3 -1 0 0 0 0];

oriented        oriented;

internalField   nonuniform List<scalar> 
5929
(
8.7623e-06
-9.34267e-07
1.02083e-06
8.68427e-06
-8.24714e-07
9.02751e-07
8.61598e-06
-7.01925e-07
7.70207e-07
8.55842e-06
-5.6618e-07
6.23745e-07
8.51236e-06
-4.1833e-07
4.64384e-07
8.47847e-06
-2.59976e-07
2.93869e-07
8.45725e-06
-9.37278e-08
1.14952e-07
8.44884e-06
7.64287e-08
-6.80249e-08
8.45285e-06
2.45311e-07
-2.49323e-07
8.46855e-06
4.08766e-07
-4.24457e-07
8.49485e-06
5.62712e-07
-5.89021e-07
8.53041e-06
7.03389e-07
-7.38947e-07
8.57361e-06
8.27628e-07
-8.70827e-07
8.62275e-06
9.3305e-07
-9.82188e-07
8.67624e-06
1.01811e-06
-1.0716e-06
8.73286e-06
1.08194e-06
-1.13855e-06
8.79198e-06
1.12382e-06
-1.18295e-06
8.8535e-06
1.14244e-06
-1.20395e-06
8.91674e-06
1.13614e-06
-1.19938e-06
8.9806e-06
1.10458e-06
-1.16844e-06
9.04404e-06
1.04799e-06
-1.11143e-06
9.10615e-06
9.67283e-07
-1.0294e-06
9.16623e-06
8.63959e-07
-9.24033e-07
9.22369e-06
7.3989e-07
-7.97351e-07
9.278e-06
5.97338e-07
-6.51643e-07
9.32847e-06
4.39139e-07
-4.89613e-07
9.37401e-06
2.69202e-07
-3.1474e-07
9.41256e-06
9.35448e-08
-1.32103e-07
9.44238e-06
-8.0671e-08
5.08586e-08
9.46236e-06
-2.48065e-07
2.28081e-07
9.47207e-06
-4.04142e-07
3.94434e-07
9.47186e-06
-5.45395e-07
5.45599e-07
9.46093e-06
-6.67958e-07
6.78892e-07
9.43849e-06
-7.69661e-07
7.92098e-07
9.40549e-06
-8.50297e-07
8.83303e-07
9.36244e-06
-9.09175e-07
9.52224e-07
9.30959e-06
-9.45785e-07
9.98632e-07
9.24806e-06
-9.60892e-07
1.02242e-06
9.1803e-06
-9.56652e-07
1.02441e-06
9.10891e-06
-9.35349e-07
1.00674e-06
9.03652e-06
-8.98951e-07
9.71342e-07
8.96561e-06
-8.48967e-07
9.19877e-07
8.89828e-06
-7.8642e-07
8.53753e-07
8.83614e-06
-7.11971e-07
7.74104e-07
8.78042e-06
-6.26133e-07
6.81853e-07
8.73201e-06
-5.2949e-07
5.77899e-07
8.69159e-06
-4.22861e-07
4.63285e-07
8.65968e-06
-3.07418e-07
3.39334e-07
8.63668e-06
-1.84813e-07
2.0781e-07
8.62287e-06
-5.73883e-08
7.11989e-08
8.61822e-06
7.13093e-08
-6.66595e-08
8.62239e-06
1.97937e-07
-2.02109e-07
8.63484e-06
3.19548e-07
-3.32001e-07
8.65482e-06
4.33306e-07
-4.53284e-07
8.68136e-06
5.36647e-07
-5.63182e-07
8.71332e-06
6.2743e-07
-6.5939e-07
8.7495e-06
7.04068e-07
-7.40256e-07
8.78881e-06
7.65542e-07
-8.04851e-07
8.83041e-06
8.11266e-07
-8.52861e-07
8.87392e-06
8.40724e-07
-8.84237e-07
8.91929e-06
8.52912e-07
-8.98278e-07
8.96596e-06
8.46673e-07
-8.93343e-07
9.0131e-06
8.21797e-07
-8.68942e-07
9.0599e-06
7.78468e-07
-8.2526e-07
9.10556e-06
7.17384e-07
-7.63053e-07
9.14945e-06
6.3971e-07
-6.83599e-07
9.19101e-06
5.46958e-07
-5.8851e-07
9.22971e-06
4.40982e-07
-4.79684e-07
9.26499e-06
3.24069e-07
-3.59354e-07
9.29606e-06
1.99229e-07
-2.30295e-07
9.32158e-06
7.07848e-08
-9.63074e-08
9.34054e-06
-5.65191e-08
3.75628e-08
9.35224e-06
-1.79172e-07
1.67471e-07
9.35604e-06
-2.94063e-07
2.90258e-07
9.35163e-06
-3.98472e-07
4.02886e-07
9.33921e-06
-4.90228e-07
5.02651e-07
9.31927e-06
-5.67894e-07
5.8783e-07
9.29239e-06
-6.30668e-07
6.57551e-07
9.25909e-06
-6.78073e-07
7.11368e-07
9.21983e-06
-7.0982e-07
7.49084e-07
9.17535e-06
-7.26083e-07
7.70565e-07
9.1271e-06
-7.27687e-07
7.75928e-07
9.07683e-06
-7.15726e-07
7.66e-07
9.02622e-06
-6.91108e-07
7.41724e-07
8.9769e-06
-6.54622e-07
7.03934e-07
8.93032e-06
-6.07e-07
6.53585e-07
8.88759e-06
-5.48958e-07
5.91689e-07
8.84958e-06
-4.81253e-07
5.19257e-07
8.81697e-06
-4.04758e-07
4.37373e-07
8.79024e-06
-3.20526e-07
3.4725e-07
8.76979e-06
-2.29852e-07
2.50301e-07
8.7559e-06
-1.3437e-07
1.48263e-07
8.7487e-06
-3.6298e-08
4.34997e-08
8.74807e-06
6.15307e-08
-6.09001e-08
8.75371e-06
1.56862e-07
-1.62501e-07
8.76517e-06
2.47574e-07
-2.59039e-07
8.78188e-06
3.31696e-07
-3.48401e-07
8.80311e-06
4.07493e-07
-4.28728e-07
8.82807e-06
4.73566e-07
-4.98524e-07
8.85592e-06
5.28897e-07
-5.56742e-07
8.88588e-06
5.72846e-07
-6.02812e-07
8.91742e-06
6.05036e-07
-6.3657e-07
8.9503e-06
6.25091e-07
-6.57978e-07
8.98448e-06
6.32271e-07
-6.66447e-07
9.01947e-06
6.25878e-07
-6.60866e-07
9.05462e-06
6.05865e-07
-6.41016e-07
9.08928e-06
5.72436e-07
-6.07095e-07
9.12283e-06
5.26179e-07
-5.5973e-07
9.15472e-06
4.68017e-07
-4.99906e-07
9.18444e-06
3.99132e-07
-4.28855e-07
9.21152e-06
3.2097e-07
-3.48044e-07
9.23543e-06
2.35269e-07
-2.59179e-07
9.25551e-06
1.44201e-07
-1.64281e-07
9.27083e-06
5.06927e-08
-6.60202e-08
9.28067e-06
-4.19077e-08
3.20712e-08
9.28485e-06
-1.31769e-07
1.27589e-07
9.28284e-06
-2.1537e-07
2.17381e-07
9.27523e-06
-2.93756e-07
3.01368e-07
9.2614e-06
-3.60177e-07
3.74007e-07
9.24291e-06
-4.21752e-07
4.40243e-07
9.21975e-06
-4.6716e-07
4.90314e-07
-5.11174e-07
5.41215e-07
8.64047e-06
-8.40329e-07
8.55628e-06
-7.40518e-07
8.48287e-06
-6.28524e-07
8.42113e-06
-5.04439e-07
8.3718e-06
-3.68999e-07
8.33553e-06
-2.23703e-07
8.31278e-06
-7.09782e-08
8.30373e-06
8.54788e-08
8.30798e-06
2.41059e-07
8.32481e-06
3.91938e-07
8.35315e-06
5.34369e-07
8.39165e-06
6.64895e-07
8.43872e-06
7.80558e-07
8.49274e-06
8.7903e-07
8.55223e-06
9.5862e-07
8.61608e-06
1.01809e-06
8.68366e-06
1.05624e-06
8.75448e-06
1.07161e-06
8.82752e-06
1.0631e-06
8.90156e-06
1.03053e-06
8.97547e-06
9.74075e-07
9.0482e-06
8.9456e-07
9.11881e-06
7.93341e-07
9.18651e-06
6.7219e-07
9.25047e-06
5.33379e-07
9.30961e-06
3.80002e-07
9.36213e-06
2.16689e-07
9.40548e-06
5.01937e-08
9.43802e-06
-1.13213e-07
9.45857e-06
-2.68614e-07
9.46644e-06
-4.12009e-07
9.46084e-06
-5.39797e-07
9.44188e-06
-6.49003e-07
9.41035e-06
-7.38128e-07
9.36649e-06
-8.06439e-07
9.31064e-06
-8.53322e-07
9.2441e-06
-8.79249e-07
9.16944e-06
-8.8623e-07
9.08954e-06
-8.76754e-07
9.00731e-06
-8.53119e-07
8.92553e-06
-8.17166e-07
8.84664e-06
-7.7008e-07
8.77264e-06
-7.12412e-07
8.70499e-06
-6.44322e-07
8.64476e-06
-5.6591e-07
8.59276e-06
-4.77484e-07
8.54958e-06
-3.79684e-07
8.51572e-06
-2.73561e-07
8.49157e-06
-1.60657e-07
8.47735e-06
-4.3167e-08
8.47298e-06
7.56706e-08
8.47811e-06
1.92808e-07
8.49216e-06
3.05504e-07
8.51434e-06
4.11125e-07
8.54369e-06
5.07295e-07
8.57911e-06
5.92009e-07
8.61946e-06
6.63714e-07
8.66372e-06
7.21285e-07
8.71112e-06
7.63866e-07
8.76126e-06
7.90589e-07
8.81377e-06
8.00401e-07
8.86785e-06
7.92589e-07
8.92261e-06
7.67042e-07
8.97714e-06
7.23931e-07
9.03061e-06
6.63915e-07
9.08224e-06
5.88078e-07
9.13132e-06
4.97881e-07
9.17709e-06
3.95209e-07
9.21863e-06
2.82532e-07
9.25454e-06
1.63319e-07
9.2831e-06
4.22297e-08
9.30328e-06
-7.67012e-08
9.31433e-06
-1.90219e-07
9.31576e-06
-2.95495e-07
9.30748e-06
-3.90196e-07
9.28982e-06
-4.72561e-07
9.26332e-06
-5.41397e-07
9.22858e-06
-5.95927e-07
9.18619e-06
-6.35682e-07
9.13713e-06
-6.60764e-07
9.08305e-06
-6.72001e-07
9.02589e-06
-6.70529e-07
8.96755e-06
-6.57383e-07
8.90984e-06
-6.33405e-07
8.85444e-06
-5.99217e-07
8.8027e-06
-5.55267e-07
8.75571e-06
-5.01967e-07
8.71428e-06
-4.39817e-07
8.67901e-06
-3.6949e-07
8.65037e-06
-2.91891e-07
8.62872e-06
-2.08201e-07
8.6143e-06
-1.19951e-07
8.6072e-06
-2.91942e-08
8.60724e-06
6.14921e-08
8.61409e-06
1.50014e-07
8.62726e-06
2.34395e-07
8.64616e-06
3.12799e-07
8.67005e-06
3.83608e-07
8.69812e-06
4.45492e-07
8.72958e-06
4.97434e-07
8.76373e-06
5.38698e-07
8.80006e-06
5.68708e-07
8.83829e-06
5.8686e-07
8.8781e-06
5.92465e-07
8.91883e-06
5.85144e-07
8.95981e-06
5.64888e-07
9.00033e-06
5.31913e-07
9.03972e-06
4.86791e-07
9.07733e-06
4.3041e-07
9.11251e-06
3.63945e-07
9.14461e-06
2.88877e-07
9.17282e-06
2.07058e-07
9.19609e-06
1.2093e-07
9.21331e-06
3.3471e-08
9.22386e-06
-5.24525e-08
9.22746e-06
-1.35375e-07
9.22388e-06
-2.11783e-07
9.2133e-06
-2.83179e-07
9.19612e-06
-3.43001e-07
9.17267e-06
-3.983e-07
9.14374e-06
-4.38233e-07
-4.74876e-07
8.51002e-06
-7.4159e-07
8.42197e-06
-6.52473e-07
8.34551e-06
-5.52059e-07
8.2814e-06
-4.40331e-07
8.23034e-06
-3.17937e-07
8.19292e-06
-1.86289e-07
8.16962e-06
-4.76723e-08
8.16057e-06
9.45232e-08
8.16541e-06
2.36217e-07
8.18345e-06
3.73898e-07
8.21369e-06
5.04129e-07
8.25486e-06
6.23729e-07
8.30549e-06
7.2993e-07
8.36406e-06
8.20452e-07
8.42922e-06
8.9346e-07
8.49994e-06
9.47378e-07
8.57548e-06
9.80702e-07
8.65494e-06
9.92149e-07
8.73702e-06
9.81025e-07
8.82048e-06
9.47073e-07
8.90407e-06
8.90482e-07
8.98661e-06
8.1202e-07
9.06701e-06
7.12939e-07
9.14423e-06
5.94976e-07
9.21706e-06
4.60543e-07
9.28383e-06
3.13232e-07
9.34175e-06
1.58771e-07
9.38819e-06
3.75358e-09
9.42144e-06
-1.46467e-07
9.44023e-06
-2.87397e-07
9.44359e-06
-4.15375e-07
9.43125e-06
-5.27459e-07
9.40375e-06
-6.21497e-07
9.36167e-06
-6.96046e-07
9.30541e-06
-7.50179e-07
9.23627e-06
-7.84181e-07
9.15692e-06
-7.99903e-07
9.07055e-06
-7.99864e-07
8.98038e-06
-7.86579e-07
8.88944e-06
-7.62178e-07
8.80048e-06
-7.28214e-07
8.71582e-06
-6.85418e-07
8.63721e-06
-6.33795e-07
8.56588e-06
-5.73001e-07
8.50274e-06
-5.02768e-07
8.44848e-06
-4.23222e-07
8.40366e-06
-3.34862e-07
8.36873e-06
-2.38631e-07
8.34405e-06
-1.35983e-07
8.32986e-06
-2.89735e-08
8.32606e-06
7.9474e-08
8.33227e-06
1.86593e-07
8.34793e-06
2.89848e-07
8.37224e-06
3.8681e-07
8.40427e-06
4.75269e-07
8.44295e-06
5.53328e-07
8.48723e-06
6.1943e-07
8.5362e-06
6.7232e-07
8.58915e-06
7.10908e-07
8.6456e-06
7.34146e-07
8.70483e-06
7.41165e-07
8.76589e-06
7.31531e-07
8.82784e-06
7.05092e-07
8.88973e-06
6.62042e-07
8.95063e-06
6.03019e-07
9.00963e-06
5.29075e-07
9.06581e-06
4.41698e-07
9.11809e-06
3.4293e-07
9.16496e-06
2.35659e-07
9.20433e-06
1.23952e-07
9.23451e-06
1.20529e-08
9.25447e-06
-9.66631e-08
9.26353e-06
-1.99275e-07
9.26138e-06
-2.93348e-07
9.24814e-06
-3.7696e-07
9.22425e-06
-4.48667e-07
9.19027e-06
-5.07419e-07
9.14688e-06
-5.52534e-07
9.09522e-06
-5.84023e-07
9.03713e-06
-6.0268e-07
8.97474e-06
-6.09604e-07
8.91011e-06
-6.05903e-07
8.84525e-06
-5.92519e-07
8.78199e-06
-5.70151e-07
8.72196e-06
-5.39183e-07
8.66643e-06
-4.99735e-07
8.61638e-06
-4.51919e-07
8.57256e-06
-3.95997e-07
8.53553e-06
-3.32458e-07
8.50571e-06
-2.62071e-07
8.48342e-06
-1.85912e-07
8.46888e-06
-1.05406e-07
8.46212e-06
-2.24393e-08
8.46295e-06
6.06651e-08
8.471e-06
1.41959e-07
8.4858e-06
2.19601e-07
8.50671e-06
2.91881e-07
8.53304e-06
3.57279e-07
8.56402e-06
4.14516e-07
8.5989e-06
4.62554e-07
8.63705e-06
5.00551e-07
8.67798e-06
5.27772e-07
8.72131e-06
5.43531e-07
8.76646e-06
5.47312e-07
8.8127e-06
5.38908e-07
8.8593e-06
5.18292e-07
8.9055e-06
4.85708e-07
8.95055e-06
4.41739e-07
8.99368e-06
3.87281e-07
9.03407e-06
3.23558e-07
9.07078e-06
2.52169e-07
9.10262e-06
1.75212e-07
9.12816e-06
9.53904e-08
9.14639e-06
1.52416e-08
9.15676e-06
-6.28219e-08
9.15896e-06
-1.37569e-07
9.153e-06
-2.05823e-07
9.13884e-06
-2.6902e-07
9.1176e-06
-3.21765e-07
9.08875e-06
-3.69445e-07
9.05378e-06
-4.03272e-07
-4.32615e-07
8.3746e-06
-6.40694e-07
8.28493e-06
-5.62802e-07
8.20732e-06
-4.74451e-07
8.14247e-06
-3.75484e-07
8.09104e-06
-2.66502e-07
8.05361e-06
-1.4886e-07
8.03065e-06
-2.47068e-08
8.02227e-06
1.02899e-07
8.02813e-06
2.30352e-07
8.0476e-06
3.54429e-07
8.07975e-06
4.71978e-07
8.12343e-06
5.80056e-07
8.17732e-06
6.7604e-07
8.24011e-06
7.5766e-07
8.31063e-06
8.22942e-07
8.38788e-06
8.7013e-07
8.47081e-06
8.97767e-07
8.55814e-06
9.04815e-07
8.64852e-06
8.9065e-07
8.74061e-06
8.54978e-07
8.83309e-06
7.98008e-07
8.92465e-06
7.20454e-07
9.01407e-06
6.23521e-07
9.10001e-06
5.09035e-07
9.18071e-06
3.79843e-07
9.25328e-06
2.40662e-07
9.31427e-06
9.77794e-08
9.36122e-06
-4.31975e-08
9.39236e-06
-1.77605e-07
9.40654e-06
-3.01573e-07
9.40324e-06
-4.12077e-07
9.38259e-06
-5.06811e-07
9.34501e-06
-5.83909e-07
9.29091e-06
-6.41947e-07
9.22167e-06
-6.80944e-07
9.14006e-06
-7.02573e-07
9.04953e-06
-7.09367e-07
8.95363e-06
-7.03963e-07
8.85576e-06
-6.88711e-07
8.75903e-06
-6.65452e-07
8.66595e-06
-6.3513e-07
8.57827e-06
-5.97736e-07
8.49729e-06
-5.52816e-07
8.42406e-06
-4.99775e-07
8.35945e-06
-4.38151e-07
8.30408e-06
-3.67858e-07
8.25849e-06
-2.89276e-07
8.22315e-06
-2.03284e-07
8.19841e-06
-1.11246e-07
8.18451e-06
-1.50729e-08
8.18136e-06
8.2628e-08
8.1886e-06
1.79351e-07
8.20569e-06
2.72757e-07
8.2319e-06
3.606e-07
8.26635e-06
4.4082e-07
8.30808e-06
5.11595e-07
8.35615e-06
5.71356e-07
8.40974e-06
6.18733e-07
8.46815e-06
6.52504e-07
8.53061e-06
6.71684e-07
8.59617e-06
6.75606e-07
8.66382e-06
6.63872e-07
8.7326e-06
6.3632e-07
8.80146e-06
5.93176e-07
8.86939e-06
5.35094e-07
8.9353e-06
4.63167e-07
8.99794e-06
3.79051e-07
9.05568e-06
2.85198e-07
9.10614e-06
1.85195e-07
9.14707e-06
8.30253e-08
9.17702e-06
-1.78968e-08
9.195e-06
-1.1465e-07
9.2005e-06
-2.04776e-07
9.19344e-06
-2.86288e-07
9.17411e-06
-3.57628e-07
9.14299e-06
-4.17546e-07
9.10074e-06
-4.65168e-07
9.04862e-06
-5.0041e-07
8.9886e-06
-5.24011e-07
8.92297e-06
-5.37042e-07
8.85398e-06
-5.40616e-07
8.7838e-06
-5.35719e-07
8.71443e-06
-5.23153e-07
8.64763e-06
-5.03349e-07
8.58477e-06
-4.76328e-07
8.52698e-06
-4.41937e-07
8.47512e-06
-4.00064e-07
8.42987e-06
-3.50745e-07
8.39175e-06
-2.94336e-07
8.36118e-06
-2.31502e-07
8.33849e-06
-1.63224e-07
8.3239e-06
-9.0815e-08
8.31745e-06
-1.59897e-08
8.31894e-06
5.91755e-08
8.32802e-06
1.32873e-07
8.34423e-06
2.03395e-07
8.36697e-06
2.69146e-07
8.39555e-06
3.2869e-07
8.42929e-06
3.80778e-07
8.4675e-06
4.24342e-07
8.5096e-06
4.58452e-07
8.55507e-06
4.82301e-07
8.60332e-06
4.95287e-07
8.65359e-06
4.97042e-07
8.70512e-06
4.87373e-07
8.75715e-06
4.6627e-07
8.80883e-06
4.34028e-07
8.85929e-06
3.9127e-07
8.90761e-06
3.38961e-07
8.9527e-06
2.78476e-07
8.99316e-06
2.11709e-07
9.02733e-06
1.41041e-07
9.05383e-06
6.88912e-08
9.07184e-06
-2.76883e-09
9.0809e-06
-7.18891e-08
9.08071e-06
-1.37371e-07
9.07157e-06
-1.96691e-07
9.05331e-06
-2.5076e-07
9.02725e-06
-2.95696e-07
8.99285e-06
-3.35046e-07
8.95209e-06
-3.62515e-07
-3.85227e-07
8.23725e-06
-5.4033e-07
8.14824e-06
-4.73793e-07
8.07138e-06
-3.9759e-07
8.00738e-06
-3.11483e-07
7.95691e-06
-2.16025e-07
7.92055e-06
-1.12504e-07
7.89878e-06
-2.93381e-09
7.89171e-06
1.09968e-07
7.89904e-06
2.23017e-07
7.92022e-06
3.33251e-07
7.95443e-06
4.3777e-07
8.00066e-06
5.33828e-07
8.05778e-06
6.18912e-07
8.1247e-06
6.90748e-07
8.20033e-06
7.47308e-07
8.28357e-06
7.86887e-07
8.37311e-06
8.08229e-07
8.46752e-06
8.10402e-07
8.56542e-06
7.92758e-07
8.66537e-06
7.55026e-07
8.76597e-06
6.97405e-07
8.86583e-06
6.20591e-07
8.96348e-06
5.25875e-07
9.05701e-06
4.15506e-07
9.14339e-06
2.93462e-07
9.21864e-06
1.65408e-07
9.27952e-06
3.6905e-08
9.32369e-06
-8.73678e-08
9.34959e-06
-2.03507e-07
9.35648e-06
-3.08462e-07
9.34429e-06
-3.99885e-07
9.31322e-06
-4.75739e-07
9.26353e-06
-5.34225e-07
9.1966e-06
-5.7501e-07
9.11523e-06
-5.99578e-07
9.0231e-06
-6.10446e-07
8.92408e-06
-6.10342e-07
8.82188e-06
-6.01767e-07
8.71993e-06
-5.86763e-07
8.62091e-06
-5.66428e-07
8.52659e-06
-5.4081e-07
8.43825e-06
-5.09404e-07
8.35692e-06
-4.7148e-07
8.28345e-06
-4.2631e-07
8.21865e-06
-3.73349e-07
8.1632e-06
-3.12409e-07
8.1177e-06
-2.43772e-07
8.08262e-06
-1.68204e-07
8.05835e-06
-8.69738e-08
8.04512e-06
-1.84413e-09
8.04285e-06
8.4897e-08
8.05122e-06
1.70979e-07
8.06974e-06
2.54236e-07
8.09776e-06
3.32587e-07
8.13449e-06
4.0409e-07
8.1791e-06
4.6698e-07
8.23079e-06
5.19666e-07
8.28879e-06
5.60742e-07
8.35225e-06
5.89042e-07
8.4202e-06
6.03727e-07
8.49163e-06
6.0418e-07
8.5655e-06
5.89998e-07
8.64074e-06
5.61081e-07
8.71621e-06
5.17708e-07
8.7907e-06
4.60606e-07
8.86281e-06
3.91059e-07
8.93068e-06
3.11176e-07
8.99171e-06
2.24169e-07
9.04324e-06
1.33664e-07
9.08339e-06
4.28798e-08
9.11084e-06
-4.53474e-08
9.12482e-06
-1.28632e-07
9.12509e-06
-2.05042e-07
9.1118e-06
-2.72998e-07
9.0853e-06
-3.31134e-07
9.04616e-06
-3.78407e-07
8.99568e-06
-4.14688e-07
8.93589e-06
-4.40618e-07
8.86918e-06
-4.57296e-07
8.798e-06
-4.65869e-07
8.72473e-06
-4.67342e-07
8.65152e-06
-4.62509e-07
8.58016e-06
-4.51792e-07
8.51197e-06
-4.35167e-07
8.44804e-06
-4.12398e-07
8.3893e-06
-3.8319e-07
8.33656e-06
-3.47324e-07
8.29056e-06
-3.04746e-07
8.25189e-06
-2.55666e-07
8.22098e-06
-2.00597e-07
8.19818e-06
-1.40426e-07
8.18372e-06
-7.63531e-08
8.17764e-06
-9.91312e-09
8.17977e-06
5.70554e-08
8.18976e-06
1.22876e-07
8.2072e-06
1.8596e-07
8.23153e-06
2.44809e-07
8.26217e-06
2.98053e-07
8.29849e-06
3.44459e-07
8.33989e-06
3.82938e-07
8.3858e-06
4.12549e-07
8.43554e-06
4.32562e-07
8.48835e-06
4.42476e-07
8.54345e-06
4.41937e-07
8.60005e-06
4.30772e-07
8.65727e-06
4.09049e-07
8.71416e-06
3.77141e-07
8.76966e-06
3.35774e-07
8.82252e-06
2.86093e-07
8.87112e-06
2.29877e-07
8.91358e-06
1.69252e-07
8.94828e-06
1.06339e-07
8.97418e-06
4.29959e-08
8.99053e-06
-1.91239e-08
8.99706e-06
-7.84126e-08
8.99353e-06
-1.33846e-07
8.98051e-06
-1.83667e-07
8.95771e-06
-2.27965e-07
8.92655e-06
-2.64535e-07
8.88705e-06
-2.95547e-07
8.84145e-06
-3.16918e-07
-3.34136e-07
8.1024e-06
-4.42944e-07
8.01609e-06
-3.87484e-07
7.94165e-06
-3.23155e-07
7.87989e-06
-2.49723e-07
7.83152e-06
-1.67656e-07
7.79717e-06
-7.81527e-08
7.77731e-06
1.69274e-08
7.77211e-06
1.15171e-07
7.78134e-06
2.1379e-07
7.80454e-06
3.10049e-07
7.84105e-06
4.01261e-07
7.89002e-06
4.84851e-07
7.95054e-06
5.58396e-07
8.02162e-06
6.19666e-07
8.10211e-06
6.66819e-07
8.19069e-06
6.9831e-07
8.28601e-06
7.1291e-07
8.38669e-06
7.09718e-07
8.49131e-06
6.88144e-07
8.59836e-06
6.47967e-07
8.70636e-06
5.89408e-07
8.81367e-06
5.13278e-07
8.91822e-06
4.21327e-07
9.01671e-06
3.17014e-07
9.1048e-06
2.05373e-07
9.17861e-06
9.16042e-08
9.23526e-06
-1.97535e-08
9.27275e-06
-1.24857e-07
9.29004e-06
-2.20791e-07
9.28691e-06
-3.05337e-07
9.26347e-06
-3.76446e-07
9.2198e-06
-4.32062e-07
9.15713e-06
-4.71563e-07
9.07837e-06
-4.96247e-07
8.98735e-06
-5.08556e-07
8.88815e-06
-5.11247e-07
8.78471e-06
-5.06905e-07
8.68062e-06
-4.97673e-07
8.57863e-06
-4.84771e-07
8.48053e-06
-4.68333e-07
8.38759e-06
-4.47866e-07
8.30076e-06
-4.22575e-07
8.22086e-06
-3.91581e-07
8.14865e-06
-3.54099e-07
8.08488e-06
-3.09584e-07
8.03031e-06
-2.57839e-07
7.98562e-06
-1.99077e-07
7.95137e-06
-1.33957e-07
7.92799e-06
-6.35921e-08
7.91572e-06
1.04261e-08
7.91452e-06
8.60919e-08
7.92415e-06
1.6135e-07
7.94419e-06
2.34196e-07
7.97409e-06
3.02691e-07
8.01318e-06
3.64997e-07
8.06077e-06
4.1939e-07
8.11611e-06
4.64328e-07
8.1783e-06
4.98553e-07
8.24635e-06
5.20988e-07
8.31928e-06
5.30797e-07
8.39607e-06
5.27395e-07
8.47562e-06
5.10448e-07
8.55675e-06
4.79952e-07
8.63814e-06
4.36318e-07
8.71821e-06
3.8053e-07
8.79486e-06
3.14415e-07
8.86517e-06
2.40867e-07
8.92622e-06
1.63117e-07
8.97581e-06
8.40671e-08
9.01234e-06
6.35148e-09
9.03479e-06
-6.7791e-08
9.04274e-06
-1.36584e-07
9.03625e-06
-1.98556e-07
9.01559e-06
-2.52334e-07
8.98121e-06
-2.96752e-07
8.93435e-06
-3.31552e-07
8.87704e-06
-3.57373e-07
8.81173e-06
-3.75311e-07
8.74098e-06
-3.86545e-07
8.66721e-06
-3.92103e-07
8.59261e-06
-3.92746e-07
8.51898e-06
-3.88879e-07
8.44768e-06
-3.80483e-07
8.37976e-06
-3.67249e-07
8.31614e-06
-3.48778e-07
8.25764e-06
-3.24692e-07
8.20504e-06
-2.94725e-07
8.15908e-06
-2.58783e-07
8.12041e-06
-2.16999e-07
8.08959e-06
-1.69772e-07
8.06698e-06
-1.17817e-07
8.05283e-06
-6.22075e-08
8.04722e-06
-4.3058e-09
8.05002e-06
5.4263e-08
8.06094e-06
1.11954e-07
8.07961e-06
1.67286e-07
8.10557e-06
2.18849e-07
8.1383e-06
2.65322e-07
8.17727e-06
3.05494e-07
8.22186e-06
3.38342e-07
8.27137e-06
3.63042e-07
8.32503e-06
3.78908e-07
8.38205e-06
3.85451e-07
8.44162e-06
3.82363e-07
8.50284e-06
3.69553e-07
8.5647e-06
3.47196e-07
8.62602e-06
3.15819e-07
8.68538e-06
2.76411e-07
8.7409e-06
2.30577e-07
8.79054e-06
1.80236e-07
8.83259e-06
1.27198e-07
8.8658e-06
7.31361e-08
8.88925e-06
1.95457e-08
8.90243e-06
-3.2304e-08
8.90524e-06
-8.12302e-08
8.8977e-06
-1.26301e-07
8.88031e-06
-1.66274e-07
8.85303e-06
-2.00691e-07
8.81734e-06
-2.28844e-07
8.77404e-06
-2.52246e-07
8.72533e-06
-2.68212e-07
-2.8122e-07
7.97471e-06
-3.50825e-07
7.89298e-06
-3.05763e-07
7.82251e-06
-2.52686e-07
7.76423e-06
-1.91436e-07
7.71898e-06
-1.22408e-07
7.68746e-06
-4.66355e-08
7.67018e-06
3.42082e-08
7.66738e-06
1.17972e-07
7.67894e-06
2.02231e-07
7.70454e-06
2.84453e-07
7.74367e-06
3.62123e-07
7.79567e-06
4.32855e-07
7.85964e-06
4.94423e-07
7.93455e-06
5.4476e-07
8.01926e-06
5.82112e-07
8.11252e-06
6.05051e-07
8.21299e-06
6.12439e-07
8.31927e-06
6.03431e-07
8.42991e-06
5.77508e-07
8.54333e-06
5.34548e-07
8.65775e-06
4.74991e-07
8.77083e-06
4.00191e-07
8.87891e-06
3.13249e-07
8.97731e-06
2.18614e-07
9.06176e-06
1.20928e-07
9.12895e-06
2.44152e-08
9.17647e-06
-6.72797e-08
9.20307e-06
-1.51458e-07
9.20845e-06
-2.2617e-07
9.19265e-06
-2.89529e-07
9.1556e-06
-3.39396e-07
9.09848e-06
-3.74949e-07
9.02426e-06
-3.97339e-07
8.9369e-06
-4.08883e-07
8.8406e-06
-4.12257e-07
8.73937e-06
-4.10018e-07
8.63676e-06
-4.043e-07
8.53547e-06
-3.96383e-07
8.43722e-06
-3.86516e-07
8.34317e-06
-3.74279e-07
8.25419e-06
-3.58886e-07
8.171e-06
-3.39392e-07
8.0943e-06
-3.14875e-07
8.02478e-06
-2.84577e-07
7.96321e-06
-2.48016e-07
7.91042e-06
-2.05049e-07
7.86722e-06
-1.55879e-07
7.83431e-06
-1.01045e-07
7.81218e-06
-4.14647e-08
7.80112e-06
2.14881e-08
7.80115e-06
8.60634e-08
7.81214e-06
1.50359e-07
7.83382e-06
2.12516e-07
7.86576e-06
2.70745e-07
7.9074e-06
3.23358e-07
7.958e-06
3.68793e-07
8.01672e-06
4.05609e-07
8.08269e-06
4.32586e-07
8.15495e-06
4.48726e-07
8.23248e-06
4.53267e-07
8.31417e-06
4.457e-07
8.3988e-06
4.25819e-07
8.48494e-06
3.93814e-07
8.57083e-06
3.50426e-07
8.65403e-06
2.9733e-07
8.7314e-06
2.37044e-07
8.79989e-06
1.72383e-07
8.8571e-06
1.05901e-07
8.90121e-06
3.99661e-08
8.93099e-06
-2.34357e-08
8.94597e-06
-8.27633e-08
8.94613e-06
-1.36753e-07
8.93169e-06
-1.84115e-07
8.90301e-06
-2.23648e-07
8.86124e-06
-2.54988e-07
8.80842e-06
-2.78732e-07
8.74699e-06
-2.95942e-07
8.67946e-06
-3.07777e-07
8.60818e-06
-3.15268e-07
8.53524e-06
-3.19163e-07
8.46236e-06
-3.19862e-07
8.39086e-06
-3.17377e-07
8.32176e-06
-3.11382e-07
8.25592e-06
-3.01416e-07
8.19414e-06
-2.86997e-07
8.13717e-06
-2.67718e-07
8.08576e-06
-2.43312e-07
8.04066e-06
-2.1369e-07
8.00263e-06
-1.78961e-07
7.97229e-06
-1.39436e-07
7.95015e-06
-9.56735e-08
7.93648e-06
-4.85446e-08
7.93143e-06
7.45217e-10
7.93493e-06
5.07641e-08
7.94682e-06
1.00067e-07
7.96681e-06
1.47291e-07
7.99453e-06
1.91137e-07
8.02945e-06
2.30394e-07
8.071e-06
2.63945e-07
8.11851e-06
2.90829e-07
8.17128e-06
3.10276e-07
8.22851e-06
3.21683e-07
8.28933e-06
3.24627e-07
8.3528e-06
3.18893e-07
8.41783e-06
3.04525e-07
8.48312e-06
2.81904e-07
8.54701e-06
2.51924e-07
8.60745e-06
2.15975e-07
8.66236e-06
1.75671e-07
8.71003e-06
1.3256e-07
8.74908e-06
8.81486e-08
8.77847e-06
4.3746e-08
8.79759e-06
4.22834e-10
8.80624e-06
-4.0946e-08
8.80449e-06
-7.94861e-08
8.79249e-06
-1.14302e-07
8.77069e-06
-1.44476e-07
8.73978e-06
-1.6978e-07
8.70118e-06
-1.90243e-07
8.65613e-06
-2.07195e-07
8.60661e-06
-2.18688e-07
-2.28676e-07
7.85942e-06
-2.66006e-07
7.78395e-06
-2.30298e-07
7.71882e-06
-1.87552e-07
7.6651e-06
-1.37717e-07
7.62383e-06
-8.11356e-08
7.59585e-06
-1.86534e-08
7.58172e-06
4.83319e-08
7.58179e-06
1.17902e-07
7.59605e-06
1.87972e-07
7.6243e-06
2.56206e-07
7.66617e-06
3.20253e-07
7.72106e-06
3.77961e-07
7.78819e-06
4.27292e-07
7.86659e-06
4.66365e-07
7.95514e-06
4.93563e-07
8.05263e-06
5.07557e-07
8.15776e-06
5.07313e-07
8.26908e-06
4.92113e-07
8.38496e-06
4.61619e-07
8.50346e-06
4.16051e-07
8.62187e-06
3.56581e-07
8.73605e-06
2.86013e-07
8.84106e-06
2.08241e-07
8.93246e-06
1.27209e-07
9.00668e-06
4.67067e-08
9.0611e-06
-2.99982e-08
9.09437e-06
-1.00553e-07
9.10627e-06
-1.63358e-07
9.09683e-06
-2.1673e-07
9.06593e-06
-2.58632e-07
9.01479e-06
-2.88252e-07
8.94648e-06
-3.06647e-07
8.86509e-06
-3.15942e-07
8.7748e-06
-3.18596e-07
8.67951e-06
-3.16968e-07
8.58254e-06
-3.13047e-07
8.48631e-06
-3.08071e-07
8.39231e-06
-3.02384e-07
8.30149e-06
-2.95697e-07
8.21454e-06
-2.8733e-07
8.13204e-06
-2.76379e-07
8.05454e-06
-2.61893e-07
7.98267e-06
-2.43013e-07
7.91718e-06
-2.19084e-07
7.8589e-06
-1.89732e-07
7.80874e-06
-1.54897e-07
7.76768e-06
-1.14812e-07
7.73657e-06
-6.99366e-08
7.71606e-06
-2.0957e-08
7.70649e-06
3.1057e-08
7.70798e-06
8.45787e-08
7.72052e-06
1.37816e-07
7.74395e-06
1.89087e-07
7.77793e-06
2.36765e-07
7.82195e-06
2.79335e-07
7.87532e-06
3.1542e-07
7.9372e-06
3.43737e-07
8.00665e-06
3.63133e-07
8.0827e-06
3.72679e-07
8.16422e-06
3.71741e-07
8.24993e-06
3.59994e-07
8.33824e-06
3.37504e-07
8.42716e-06
3.04899e-07
8.51388e-06
2.63702e-07
8.59515e-06
2.16066e-07
8.66793e-06
1.64262e-07
8.72978e-06
1.10529e-07
8.77876e-06
5.69231e-08
8.81361e-06
5.11855e-09
8.83381e-06
-4.3639e-08
8.83942e-06
-8.83697e-08
8.83063e-06
-1.27961e-07
8.80775e-06
-1.61241e-07
8.77192e-06
-1.87812e-07
8.72514e-06
-2.08208e-07
8.66979e-06
-2.23383e-07
8.60823e-06
-2.34386e-07
8.54263e-06
-2.42174e-07
8.47483e-06
-2.47471e-07
8.40634e-06
-2.50679e-07
8.33833e-06
-2.51845e-07
8.27165e-06
-2.50703e-07
8.20707e-06
-2.46795e-07
8.14526e-06
-2.39612e-07
8.08695e-06
-2.2868e-07
8.03285e-06
-2.13626e-07
7.98376e-06
-1.94223e-07
7.94049e-06
-1.70414e-07
7.90384e-06
-1.42312e-07
7.87458e-06
-1.10176e-07
7.85332e-06
-7.44158e-08
7.84046e-06
-3.56812e-08
7.83617e-06
5.03336e-09
7.84051e-06
4.64202e-08
7.85344e-06
8.71442e-08
7.87473e-06
1.25999e-07
7.90404e-06
1.61825e-07
7.9409e-06
1.93533e-07
7.98471e-06
2.20133e-07
8.03477e-06
2.40777e-07
8.09026e-06
2.54781e-07
8.1503e-06
2.61643e-07
8.21386e-06
2.61067e-07
8.27974e-06
2.53011e-07
8.3465e-06
2.37772e-07
8.41225e-06
2.1615e-07
8.47488e-06
1.893e-07
8.53239e-06
1.58467e-07
8.58311e-06
1.24944e-07
8.62564e-06
9.0029e-08
8.65892e-06
5.48721e-08
8.6823e-06
2.03635e-08
8.69557e-06
-1.28435e-08
8.69879e-06
-4.41675e-08
8.69214e-06
-7.2839e-08
8.67587e-06
-9.80322e-08
8.65074e-06
-1.19348e-07
8.61794e-06
-1.36975e-07
8.57881e-06
-1.5111e-07
8.53464e-06
-1.63025e-07
8.48704e-06
-1.71089e-07
-1.79004e-07
7.7615e-06
-1.9005e-07
7.69359e-06
-1.62385e-07
7.63487e-06
-1.28832e-07
7.58662e-06
-8.94651e-08
7.55006e-06
-4.45778e-08
7.52622e-06
5.19033e-09
7.5158e-06
5.87467e-08
7.51921e-06
1.14492e-07
7.53642e-06
1.70766e-07
7.56738e-06
2.25246e-07
7.61193e-06
2.75699e-07
7.66957e-06
3.20324e-07
7.73959e-06
3.57269e-07
7.82114e-06
3.84817e-07
7.91318e-06
4.01522e-07
8.0145e-06
4.06239e-07
8.12365e-06
3.9816e-07
8.23887e-06
3.76896e-07
8.35787e-06
3.42617e-07
8.47741e-06
2.96512e-07
8.59291e-06
2.41079e-07
8.69936e-06
1.79565e-07
8.7924e-06
1.15204e-07
8.86842e-06
5.11913e-08
8.92486e-06
-9.74112e-09
8.96056e-06
-6.56999e-08
8.97552e-06
-1.15503e-07
8.96986e-06
-1.57703e-07
8.94355e-06
-1.90416e-07
8.89803e-06
-2.13113e-07
8.83659e-06
-2.26818e-07
8.76332e-06
-2.33374e-07
8.68224e-06
-2.34856e-07
8.59688e-06
-2.3324e-07
8.51011e-06
-2.30195e-07
8.42385e-06
-2.26788e-07
8.33917e-06
-2.23391e-07
8.25666e-06
-2.19874e-07
8.17671e-06
-2.15751e-07
8.09967e-06
-2.10289e-07
8.02593e-06
-2.02641e-07
7.95601e-06
-1.91973e-07
7.89058e-06
-1.77579e-07
7.83047e-06
-1.58973e-07
7.77664e-06
-1.35903e-07
7.73012e-06
-1.08376e-07
7.69195e-06
-7.66405e-08
7.66314e-06
-4.1129e-08
7.64455e-06
-2.36871e-09
7.63668e-06
3.89252e-08
7.63979e-06
8.14696e-08
7.65401e-06
1.23598e-07
7.67925e-06
1.63847e-07
7.71525e-06
2.00767e-07
7.76152e-06
2.3306e-07
7.81736e-06
2.59586e-07
7.88186e-06
2.79232e-07
7.95405e-06
2.90939e-07
8.03279e-06
2.93947e-07
8.11663e-06
2.87894e-07
8.20382e-06
2.7281e-07
8.29201e-06
2.49309e-07
8.37818e-06
2.18736e-07
8.45907e-06
1.82809e-07
8.53186e-06
1.43271e-07
8.59417e-06
1.0195e-07
8.64415e-06
6.05492e-08
8.68065e-06
2.04308e-08
8.70325e-06
-1.74859e-08
8.71213e-06
-5.25228e-08
8.70756e-06
-8.37921e-08
8.68985e-06
-1.10254e-07
8.66014e-06
-1.31535e-07
8.62042e-06
-1.48093e-07
8.57293e-06
-1.60716e-07
8.51981e-06
-1.70261e-07
8.46293e-06
-1.77505e-07
8.40381e-06
-1.8305e-07
8.34359e-06
-1.87259e-07
8.28315e-06
-1.90231e-07
8.22309e-06
-1.91791e-07
8.16395e-06
-1.91563e-07
8.10625e-06
-1.89092e-07
8.05056e-06
-1.83922e-07
7.99754e-06
-1.75664e-07
7.94795e-06
-1.64036e-07
7.90262e-06
-1.48886e-07
7.8624e-06
-1.30199e-07
7.82819e-06
-1.08101e-07
7.80083e-06
-8.28202e-08
7.78108e-06
-5.46611e-08
7.76945e-06
-2.40553e-08
7.76624e-06
8.24323e-09
7.77163e-06
4.10373e-08
7.78563e-06
7.31373e-08
7.80811e-06
1.03527e-07
7.83871e-06
1.31221e-07
7.87696e-06
1.55286e-07
7.9222e-06
1.74887e-07
7.97365e-06
1.89325e-07
8.03036e-06
1.98073e-07
8.0912e-06
2.00801e-07
8.15485e-06
1.97419e-07
8.2197e-06
1.88163e-07
8.28377e-06
1.73701e-07
8.345e-06
1.54917e-07
8.40158e-06
1.32721e-07
8.45193e-06
1.08119e-07
8.49473e-06
8.21438e-08
8.52901e-06
5.57474e-08
8.5542e-06
2.96885e-08
8.57009e-06
4.46508e-09
8.57682e-06
-1.95666e-08
8.57457e-06
-4.19157e-08
8.56356e-06
-6.18354e-08
8.54442e-06
-7.88882e-08
8.51822e-06
-9.31544e-08
8.48619e-06
-1.04936e-07
8.44946e-06
-1.14382e-07
8.40911e-06
-1.22676e-07
8.36631e-06
-1.28295e-07
-1.34725e-07
7.68514e-06
-1.2412e-07
7.62578e-06
-1.03018e-07
7.57436e-06
-7.74149e-08
7.53235e-06
-4.74555e-08
7.50111e-06
-1.33362e-08
7.48169e-06
2.46133e-08
7.47504e-06
6.53978e-08
7.48164e-06
1.07887e-07
7.50182e-06
1.50586e-07
7.53593e-06
1.91136e-07
7.58355e-06
2.28081e-07
7.64417e-06
2.59704e-07
7.71715e-06
2.84282e-07
7.80165e-06
3.00324e-07
7.8965e-06
3.06671e-07
8.00019e-06
3.02548e-07
8.1107e-06
2.87647e-07
8.22528e-06
2.62319e-07
8.33997e-06
2.2793e-07
8.44999e-06
1.86486e-07
8.55066e-06
1.40411e-07
8.63795e-06
9.22723e-08
8.70862e-06
4.45375e-08
8.76059e-06
-7.85442e-10
8.79322e-06
-4.23647e-08
8.80684e-06
-7.93201e-08
8.80157e-06
-1.10239e-07
8.77785e-06
-1.33976e-07
8.73752e-06
-1.5009e-07
8.68402e-06
-1.5961e-07
8.6212e-06
-1.64004e-07
8.55266e-06
-1.64829e-07
8.48134e-06
-1.63534e-07
8.40939e-06
-1.61293e-07
8.33804e-06
-1.5885e-07
8.2678e-06
-1.56549e-07
8.19884e-06
-1.54421e-07
8.13118e-06
-1.52214e-07
8.06488e-06
-1.49459e-07
8.00013e-06
-1.45534e-07
7.93725e-06