/*--------------------------------*- C++ -*----------------------------------*\
| =========                 |                                                 |
| \\      /  F ield         | OpenFOAM: The Open Source CFD Toolbox           |
|  \\    /   O peration     | Version:  2206                                  |
|   \\  /    A nd           | Website:  www.openfoam.com                      |
|    \\/     M anipulation  |                                                 |
\*---------------------------------------------------------------------------*/
FoamFile
{
    version     2.0;
    format      ascii;
    arch        "LSB;label=32;scalar=64";
    class       volVectorField;
    location    "19.5999";
    object      U_0;
}
// * * * * * * * * * * * * * * * * * * * * * * * * * * * * * * * * * * * * * //

dimensions      [0 1 -1 0 0 0 0];

internalField   nonuniform List<vector> 
3080
(
(1.5253 0.135755 0)
(1.53458 0.195545 0)
(1.54718 0.250645 0)
(1.56248 0.299992 0)
(1.5798 0.342831 0)
(1.59853 0.378732 0)
(1.61808 0.407551 0)
(1.63798 0.429324 0)
(1.65792 0.444125 0)
(1.67798 0.45179 0)
(1.69831 0.45167 0)
(1.7185 0.443261 0)
(1.73861 0.426364 0)
(1.75852 0.400899 0)
(1.77815 0.366911 0)
(1.79742 0.324568 0)
(1.81619 0.274229 0)
(1.83425 0.216524 0)
(1.85135 0.152445 0)
(1.86715 0.0835118 0)
(1.88105 0.0121821 0)
(1.89231 -0.0582849 0)
(1.90054 -0.125595 0)
(1.90544 -0.18771 0)
(1.9068 -0.242944 0)
(1.90451 -0.29006 0)
(1.89863 -0.328317 0)
(1.88936 -0.357428 0)
(1.8768 -0.377453 0)
(1.86037 -0.388497 0)
(1.84043 -0.39075 0)
(1.81752 -0.385763 0)
(1.79235 -0.375167 0)
(1.76587 -0.360286 0)
(1.73899 -0.342026 0)
(1.71255 -0.320766 0)
(1.68726 -0.29644 0)
(1.66364 -0.268746 0)
(1.64211 -0.237354 0)
(1.62297 -0.202049 0)
(1.60655 -0.162812 0)
(1.59311 -0.119867 0)
(1.58292 -0.0737126 0)
(1.57619 -0.025149 0)
(1.57303 0.024646 0)
(1.57342 0.0741501 0)
(1.57717 0.122131 0)
(1.58399 0.167432 0)
(1.59353 0.208999 0)
(1.60535 0.245953 0)
(1.61895 0.277641 0)
(1.63386 0.303657 0)
(1.64963 0.323808 0)
(1.66592 0.338037 0)
(1.68265 0.346217 0)
(1.69993 0.347928 0)
(1.71736 0.342831 0)
(1.73484 0.330936 0)
(1.75216 0.312382 0)
(1.76918 0.287431 0)
(1.78578 0.256417 0)
(1.80187 0.219729 0)
(1.81735 0.177836 0)
(1.83208 0.131341 0)
(1.84589 0.0810952 0)
(1.85845 0.0284335 0)
(1.86916 -0.0244908 0)
(1.87757 -0.0758356 0)
(1.88336 -0.124071 0)
(1.88629 -0.167852 0)
(1.88619 -0.206111 0)
(1.88302 -0.238129 0)
(1.87689 -0.263525 0)
(1.86796 -0.282203 0)
(1.85609 -0.29423 0)
(1.84114 -0.299513 0)
(1.82371 -0.298605 0)
(1.80422 -0.292596 0)
(1.78341 -0.282434 0)
(1.76204 -0.268913 0)
(1.74084 -0.252577 0)
(1.72042 -0.233672 0)
(1.70128 -0.212213 0)
(1.68377 -0.1881 0)
(1.66817 -0.161236 0)
(1.65471 -0.1316 0)
(1.64357 -0.0993047 0)
(1.63493 -0.0646361 0)
(1.62893 -0.0280814 0)
(1.62566 0.00961549 0)
(1.62513 0.0473663 0)
(1.62722 0.0842126 0)
(1.63174 0.119281 0)
(1.63844 0.151748 0)
(1.64701 0.180903 0)
(1.6571 0.206185 0)
(1.66834 0.227208 0)
(1.68038 0.24376 0)
(1.69296 0.255742 0)
(1.70597 0.263045 0)
(1.7195 0.265366 0)
(1.73327 0.262401 0)
(1.74716 0.254132 0)
(1.76099 0.240651 0)
(1.77458 0.22218 0)
(1.78781 0.199026 0)
(1.80059 0.171549 0)
(1.81285 0.140157 0)
(1.82451 0.105345 0)
(1.83543 0.0677629 0)
(1.8454 0.0283885 0)
(1.85396 -0.0112148 0)
(1.86075 -0.0497063 0)
(1.86548 -0.085996 0)
(1.86791 -0.119165 0)
(1.86794 -0.148484 0)
(1.86559 -0.173407 0)
(1.86093 -0.19365 0)
(1.85411 -0.209135 0)
(1.84512 -0.219834 0)
(1.83378 -0.225655 0)
(1.8205 -0.226759 0)
(1.80562 -0.223814 0)
(1.78969 -0.217418 0)
(1.51092 0.128536 0)
(1.52009 0.184579 0)
(1.53288 0.236496 0)
(1.5487 0.283282 0)
(1.56694 0.324195 0)
(1.58699 0.358767 0)
(1.60832 0.386759 0)
(1.63046 0.408061 0)
(1.65316 0.422555 0)
(1.67646 0.429896 0)
(1.70029 0.42951 0)
(1.72432 0.421026 0)
(1.74848 0.404211 0)
(1.77255 0.378961 0)
(1.79633 0.345328 0)
(1.81961 0.303525 0)
(1.84212 0.253965 0)
(1.86356 0.197323 0)
(1.88355 0.134656 0)
(1.90163 0.0676449 0)
(1.917 -0.000944493 0)
(1.92891 -0.0681909 0)
(1.93699 -0.13193 0)
(1.94096 -0.190235 0)
(1.94069 -0.241547 0)
(1.93616 -0.284764 0)
(1.92754 -0.319234 0)
(1.91505 -0.344673 0)
(1.89839 -0.361002 0)
(1.87742 -0.368102 0)
(1.85287 -0.366998 0)
(1.82539 -0.359503 0)
(1.79597 -0.347281 0)
(1.76562 -0.331713 0)
(1.73533 -0.313662 0)
(1.70594 -0.293394 0)
(1.67813 -0.270682 0)
(1.65237 -0.24505 0)
(1.629 -0.216053 0)
(1.60831 -0.183434 0)
(1.59056 -0.147162 0)
(1.57603 -0.107445 0)
(1.56494 -0.064747 0)
(1.55749 -0.0198082 0)
(1.55381 0.0263031 0)
(1.55388 0.0722339 0)
(1.55752 0.116862 0)
(1.56447 0.159126 0)
(1.57438 0.198054 0)
(1.58684 0.232822 0)
(1.60139 0.262798 0)
(1.61756 0.287547 0)
(1.63495 0.306798 0)
(1.65325 0.320353 0)
(1.67239 0.327939 0)
(1.69227 0.329167 0)
(1.7125 0.323843 0)
(1.73292 0.311956 0)
(1.75329 0.293605 0)
(1.77338 0.269018 0)
(1.793 0.238512 0)
(1.81199 0.202476 0)
(1.83015 0.161394 0)
(1.84731 0.115903 0)
(1.86319 0.0669489 0)
(1.87729 0.0161146 0)
(1.8889 -0.0344003 0)
(1.89758 -0.0829801 0)
(1.903 -0.128163 0)
(1.90495 -0.168707 0)
(1.90333 -0.203665 0)
(1.89818 -0.232424 0)
(1.88969 -0.254671 0)
(1.87785 -0.270322 0)
(1.86241 -0.279208 0)
(1.84389 -0.281525 0)
(1.82278 -0.278356 0)
(1.79982 -0.270789 0)
(1.77587 -0.259827 0)
(1.75173 -0.246257 0)
(1.72812 -0.230544 0)
(1.70566 -0.212821 0)
(1.68478 -0.192963 0)
(1.66579 -0.170752 0)
(1.64892 -0.146015 0)
(1.63438 -0.118704 0)
(1.62233 -0.0889143 0)
(1.61296 -0.0569069 0)
(1.60639 -0.0231315 0)
(1.60272 0.0117293 0)
(1.60196 0.0467016 0)
(1.60399 0.0809134 0)
(1.60864 0.113562 0)
(1.61568 0.143888 0)
(1.62479 0.17123 0)
(1.63564 0.195052 0)
(1.64789 0.214961 0)
(1.66122 0.230687 0)
(1.67536 0.242036 0)
(1.69025 0.248784 0)
(1.70583 0.250629 0)
(1.72176 0.247392 0)
(1.73791 0.239062 0)
(1.75407 0.225711 0)
(1.77002 0.207533 0)
(1.7856 0.184805 0)
(1.80066 0.157866 0)
(1.81507 0.127125 0)
(1.82869 0.0930986 0)
(1.84132 0.0565123 0)
(1.85257 0.0185326 0)
(1.8619 -0.0192364 0)
(1.86899 -0.0555847 0)
(1.87352 -0.0894256 0)
(1.87524 -0.119969 0)
(1.87411 -0.146692 0)
(1.87028 -0.169138 0)
(1.86389 -0.186984 0)
(1.85492 -0.200113 0)
(1.84318 -0.208414 0)
(1.829 -0.211913 0)
(1.81281 -0.21124 0)
(1.7952 -0.207078 0)
(1.77679 -0.200044 0)
(1.49929 0.12151 0)
(1.50841 0.173575 0)
(1.52137 0.222024 0)
(1.53764 0.265914 0)
(1.55667 0.30452 0)
(1.57789 0.337343 0)
(1.60081 0.364052 0)
(1.625 0.384403 0)
(1.65025 0.398108 0)
(1.67657 0.404729 0)
(1.70364 0.40379 0)
(1.73121 0.394998 0)
(1.75909 0.378112 0)
(1.78696 0.353034 0)
(1.81451 0.319842 0)
(1.8414 0.278785 0)
(1.86725 0.230314 0)
(1.89167 0.175154 0)
(1.9142 0.114452 0)
(1.93418 0.0500857 0)
(1.95063 -0.0149675 0)
(1.96287 -0.0782085 0)
(1.97052 -0.137603 0)
(1.97333 -0.191388 0)
(1.97123 -0.238149 0)
(1.96433 -0.276902 0)
(1.95287 -0.307037 0)
(1.93679 -0.328214 0)
(1.91567 -0.340112 0)
(1.89021 -0.343028 0)
(1.86104 -0.338678 0)
(1.82917 -0.328901 0)
(1.79578 -0.315439 0)
(1.762 -0.299666 0)
(1.7289 -0.282375 0)
(1.69722 -0.263598 0)
(1.66747 -0.24288 0)
(1.64009 -0.21961 0)
(1.61542 -0.193295 0)
(1.59368 -0.163616 0)
(1.57509 -0.130523 0)
(1.55989 -0.0942216 0)
(1.54827 -0.0551506 0)
(1.54044 -0.0139954 0)
(1.53649 0.0282757 0)
(1.53641 0.0704636 0)
(1.54006 0.111551 0)
(1.54718 0.150571 0)
(1.55745 0.186627 0)
(1.5705 0.218947 0)
(1.58589 0.246915 0)
(1.60321 0.270068 0)
(1.62207 0.288058 0)
(1.64222 0.300574 0)
(1.66356 0.307264 0)
(1.68578 0.307817 0)
(1.70855 0.302115 0)
(1.73165 0.29012 0)
(1.75476 0.271915 0)
(1.7776 0.247709 0)
(1.79992 0.217804 0)
(1.82147 0.182582 0)
(1.84203 0.142532 0)
(1.86133 0.0983392 0)
(1.87898 0.0511067 0)
(1.89423 0.00276869 0)
(1.90638 -0.0447493 0)
(1.91497 -0.0899254 0)
(1.91966 -0.131433 0)
(1.92029 -0.168185 0)
(1.91688 -0.199347 0)
(1.90957 -0.224393 0)
(1.89844 -0.243068 0)
(1.88321 -0.255109 0)
(1.86422 -0.260391 0)
(1.84201 -0.259818 0)
(1.81737 -0.254549 0)
(1.79125 -0.245724 0)
(1.76456 -0.234356 0)
(1.73817 -0.221177 0)
(1.71281 -0.206536 0)
(1.68892 -0.190351 0)
(1.66683 -0.172348 0)
(1.64683 -0.152234 0)
(1.62914 -0.129816 0)
(1.61393 -0.105002 0)
(1.60135 -0.0778725 0)
(1.59155 -0.0486717 0)
(1.58468 -0.017818 0)
(1.58082 0.0140666 0)
(1.57998 0.0461167 0)
(1.58206 0.0775417 0)
(1.58689 0.107606 0)
(1.59426 0.135612 0)
(1.60387 0.160942 0)
(1.61542 0.183081 0)
(1.62859 0.201623 0)
(1.64309 0.216251 0)
(1.6587 0.226684 0)
(1.67532 0.23264 0)
(1.69273 0.233868 0)
(1.71064 0.230264 0)
(1.72886 0.221799 0)
(1.74713 0.208535 0)
(1.76521 0.190645 0)
(1.7829 0.168384 0)
(1.80002 0.142075 0)
(1.81638 0.112128 0)
(1.83177 0.079104 0)
(1.84583 0.0438616 0)
(1.85794 0.00783589 0)
(1.86761 -0.0276164 0)
(1.87455 -0.0613145 0)
(1.87846 -0.0921922 0)
(1.87916 -0.119725 0)
(1.87703 -0.143568 0)
(1.87154 -0.16316 0)
(1.86314 -0.178192 0)
(1.8515 -0.18851 0)
(1.83689 -0.194012 0)
(1.81982 -0.19525 0)
(1.8009 -0.192955 0)
(1.78084 -0.187816 0)
(1.76034 -0.180452 0)
(1.48995 0.11457 0)
(1.4991 0.162494 0)
(1.51226 0.207253 0)
(1.52895 0.247965 0)
(1.54867 0.283929 0)
(1.57094 0.314614 0)
(1.59529 0.339606 0)
(1.62137 0.358539 0)
(1.649 0.371002 0)
(1.67803 0.376549 0)
(1.70805 0.374812 0)
(1.73882 0.365517 0)
(1.77002 0.348441 0)
(1.80126 0.323524 0)
(1.83211 0.290877 0)
(1.86214 0.25078 0)
(1.89087 0.203712 0)
(1.91782 0.150438 0)
(1.94246 0.0922167 0)
(1.96388 0.031245 0)
(1.98102 -0.0295416 0)
(1.99324 -0.0880264 0)
(2.00014 -0.142348 0)
(2.00151 -0.190941 0)
(1.99738 -0.232563 0)
(1.98797 -0.266298 0)
(1.97339 -0.291514 0)
(1.95316 -0.307713 0)
(1.92767 -0.31458 0)
(1.8976 -0.313386 0)
(1.86393 -0.305966 0)
(1.82797 -0.294276 0)
(1.79105 -0.280126 0)
(1.75453 -0.264844 0)
(1.7193 -0.248873 0)
(1.68596 -0.231983 0)
(1.65494 -0.213605 0)
(1.6266 -0.193032 0)
(1.60119 -0.169635 0)
(1.57894 -0.143097 0)
(1.56001 -0.113357 0)
(1.54457 -0.080607 0)
(1.53282 -0.045275 0)
(1.52492 -0.00800137 0)
(1.52096 0.030339 0)
(1.52094 0.0686843 0)
(1.52472 0.10611 0)
(1.53208 0.141733 0)
(1.54274 0.174732 0)
(1.55635 0.204383 0)
(1.57252 0.230081 0)
(1.59089 0.251334 0)
(1.61112 0.267727 0)
(1.63299 0.278872 0)
(1.65629 0.28442 0)
(1.68059 0.284141 0)
(1.70563 0.27793 0)
(1.73108 0.265736 0)
(1.75659 0.247642 0)
(1.78184 0.223843 0)
(1.8065 0.194627 0)
(1.83029 0.160363 0)
(1.85291 0.121556 0)
(1.87401 0.0789879 0)
(1.89297 0.0340387 0)
(1.90888 -0.0112176 0)
(1.92114 -0.0551285 0)
(1.92921 -0.0962582 0)
(1.93272 -0.133491 0)
(1.93166 -0.165945 0)
(1.92622 -0.192874 0)
(1.91647 -0.213833 0)
(1.90214 -0.228439 0)
(1.88335 -0.236268 0)
(1.86066 -0.237955 0)
(1.83485 -0.23466 0)
(1.807 -0.227605 0)
(1.77816 -0.217979 0)
(1.74938 -0.206761 0)
(1.72151 -0.194511 0)
(1.69503 -0.181279 0)
(1.67029 -0.166856 0)
(1.64757 -0.150906 0)
(1.6271 -0.133073 0)
(1.60905 -0.113094 0)
(1.59359 -0.0908936 0)
(1.58085 -0.0665268 0)
(1.57096 -0.0402232 0)
(1.56406 -0.0123777 0)
(1.56022 0.0164435 0)
(1.55947 0.0454811 0)
(1.5617 0.0740168 0)
(1.56677 0.101377 0)
(1.57448 0.126921 0)
(1.58458 0.150071 0)
(1.59679 0.170327 0)
(1.61082 0.18727 0)
(1.62642 0.200539 0)
(1.64341 0.209807 0)
(1.66159 0.214787 0)
(1.68064 0.215291 0)
(1.70032 0.21123 0)
(1.72037 0.202563 0)
(1.74051 0.18935 0)
(1.7605 0.171746 0)
(1.78008 0.149984 0)
(1.79903 0.124384 0)
(1.81711 0.0953849 0)
(1.83398 0.0636542 0)
(1.84904 0.0303064 0)
(1.86157 -0.00322416 0)
(1.87117 -0.0358175 0)
(1.87759 -0.0664026 0)
(1.88006 -0.0941692 0)
(1.88011 -0.118483 0)
(1.87643 -0.139026 0)
(1.86893 -0.155239 0)
(1.8579 -0.166975 0)
(1.84335 -0.173983 0)
(1.82583 -0.176711 0)
(1.806 -0.175895 0)
(1.78468 -0.172265 0)
(1.76263 -0.166524 0)
(1.74061 -0.159258 0)
(1.48244 0.107568 0)
(1.49175 0.151257 0)
(1.50515 0.192169 0)
(1.52225 0.229481 0)
(1.54262 0.262514 0)
(1.56583 0.290704 0)
(1.59149 0.313569 0)
(1.61932 0.330646 0)
(1.64912 0.341483 0)
(1.68051 0.345678 0)
(1.71315 0.342936 0)
(1.74673 0.332983 0)
(1.78081 0.315649 0)
(1.81493 0.290922 0)
(1.84857 0.25895 0)
(1.88121 0.220029 0)
(1.91231 0.174644 0)
(1.94135 0.12361 0)
(1.96761 0.068379 0)
(1.9899 0.0116012 0)
(2.00729 -0.0442722 0)
(2.01909 -0.0972878 0)
(2.02485 -0.145853 0)
(2.02443 -0.188655 0)
(2.01807 -0.224552 0)
(2.00593 -0.252671 0)
(1.98758 -0.272351 0)
(1.96307 -0.282748 0)
(1.93303 -0.2845 0)
(1.89836 -0.279281 0)
(1.86047 -0.269101 0)
(1.82088 -0.256083 0)
(1.78125 -0.242045 0)
(1.74275 -0.227931 0)
(1.70611 -0.213807 0)
(1.67183 -0.199241 0)
(1.64027 -0.183533 0)
(1.61166 -0.165903 0)
(1.58618 -0.145669 0)
(1.56399 -0.122424 0)
(1.54524 -0.0961398 0)
(1.53002 -0.0670155 0)
(1.5185 -0.0354726 0)
(1.51085 -0.00211839 0)
(1.50715 0.032259 0)
(1.50739 0.0667208 0)
(1.51145 0.100419 0)
(1.51915 0.132551 0)
(1.53024 0.162358 0)
(1.54441 0.189159 0)
(1.56135 0.212355 0)
(1.58071 0.231429 0)
(1.60224 0.245923 0)
(1.62568 0.255438 0)
(1.65065 0.259665 0)
(1.6768 0.258427 0)
(1.70379 0.251598 0)
(1.73126 0.239141 0)
(1.75881 0.221143 0)
(1.78608 0.197789 0)
(1.81272 0.169345 0)
(1.8384 0.136174 0)
(1.86275 0.0988251 0)
(1.88521 0.0582535 0)
(1.90479 0.0162596 0)
(1.92071 -0.0253905 0)
(1.93242 -0.0650992 0)
(1.93943 -0.101465 0)
(1.94137 -0.133792 0)
(1.93834 -0.161585 0)
(1.93062 -0.184001 0)
(1.91787 -0.200392 0)
(1.89991 -0.210138 0)
(1.87729 -0.2136 0)
(1.85084 -0.211869 0)
(1.82172 -0.206193 0)
(1.79116 -0.197891 0)
(1.76036 -0.188144 0)
(1.73037 -0.177726 0)
(1.70172 -0.166829 0)
(1.6748 -0.155325 0)
(1.64989 -0.142902 0)
(1.62717 -0.129171 0)
(1.6068 -0.113745 0)
(1.58891 -0.0963222 0)
(1.57364 -0.0767858 0)
(1.56112 -0.0552288 0)
(1.55145 -0.0318632 0)
(1.54478 -0.00706062 0)
(1.54118 0.0186651 0)
(1.54067 0.0446519 0)
(1.54318 0.0702457 0)
(1.54857 0.0948295 0)
(1.55668 0.117811 0)
(1.56728 0.138644 0)
(1.58013 0.156839 0)
(1.595 0.171965 0)
(1.61166 0.183642 0)
(1.62991 0.191545 0)
(1.64943 0.195417 0)
(1.66994 0.195109 0)
(1.69116 0.190511 0)
(1.71281 0.181587 0)
(1.7346 0.168393 0)
(1.75624 0.151071 0)
(1.77747 0.129842 0)
(1.79802 0.105039 0)
(1.81757 0.0771769 0)
(1.83554 0.0471366 0)
(1.85112 0.0162661 0)
(1.8637 -0.0142927 0)
(1.8729 -0.0435027 0)
(1.87831 -0.0705465 0)
(1.87962 -0.094832 0)
(1.87794 -0.115624 0)
(1.8717 -0.132357 0)
(1.86148 -0.144791 0)
(1.84738 -0.152698 0)
(1.8298 -0.156417 0)
(1.80948 -0.15664 0)
(1.78731 -0.154116 0)
(1.76415 -0.149607 0)
(1.74084 -0.143786 0)
(1.7181 -0.137108 0)
(1.47634 0.100349 0)
(1.48595 0.139774 0)
(1.49967 0.176741 0)
(1.5172 0.210484 0)
(1.53819 0.240335 0)
(1.56228 0.265705 0)
(1.58917 0.28606 0)
(1.61861 0.300912 0)
(1.65024 0.309823 0)
(1.68367 0.312461 0)
(1.71856 0.308538 0)
(1.75448 0.297818 0)
(1.79095 0.2802 0)
(1.82742 0.255727 0)
(1.8633 0.22457 0)
(1.898 0.187026 0)
(1.93099 0.143588 0)
(1.96162 0.0951755 0)
(1.98884 0.0436511 0)
(2.01141 -0.00837886 0)
(2.02851 -0.0587433 0)
(2.0394 -0.105593 0)
(2.04352 -0.147693 0)
(2.04093 -0.184133 0)
(2.03204 -0.213824 0)
(2.01658 -0.235822 0)
(1.99409 -0.248954 0)
(1.96505 -0.253173 0)
(1.93024 -0.24984 0)
(1.89114 -0.240872 0)
(1.84948 -0.228553 0)
(1.80713 -0.215105 0)
(1.76574 -0.20202 0)
(1.72616 -0.189723 0)
(1.68901 -0.177976 0)
(1.65469 -0.166151 0)
(1.6234 -0.153427 0)
(1.59528 -0.138955 0)
(1.57041 -0.12201 0)
(1.54888 -0.102157 0)
(1.53077 -0.0793513 0)
(1.51621 -0.0538577 0)
(1.5053 -0.0260913 0)
(1.4982 0.0033663 0)
(1.49501 0.0338077 0)
(1.49571 0.0644003 0)
(1.50021 0.0943606 0)
(1.50836 0.122951 0)
(1.51995 0.149468 0)
(1.53474 0.173261 0)
(1.55245 0.193745 0)
(1.5728 0.2104 0)
(1.59555 0.22277 0)
(1.62029 0.230474 0)
(1.64669 0.233268 0)
(1.6744 0.230964 0)
(1.70302 0.223443 0)
(1.73215 0.210691 0)
(1.76138 0.192794 0)
(1.79031 0.169916 0)
(1.81859 0.142303 0)
(1.84583 0.110339 0)
(1.87151 0.0747376 0)
(1.8946 0.0369247 0)
(1.91405 -0.00141379 0)
(1.92917 -0.0387934 0)
(1.9395 -0.0737611 0)
(1.94424 -0.105202 0)
(1.94462 -0.132469 0)
(1.93998 -0.155225 0)
(1.92905 -0.17243 0)
(1.91244 -0.18328 0)
(1.89037 -0.187853 0)
(1.86371 -0.187155 0)
(1.83376 -0.18241 0)
(1.80191 -0.175008 0)
(1.76954 -0.166287 0)
(1.73789 -0.157212 0)
(1.70757 -0.148116 0)
(1.67901 -0.138952 0)
(1.65248 -0.129455 0)
(1.62814 -0.119226 0)
(1.60607 -0.107815 0)
(1.58637 -0.0948184 0)
(1.56912 -0.0799509 0)
(1.55446 -0.0630914 0)
(1.5425 -0.0443166 0)
(1.53336 -0.0238666 0)
(1.52716 -0.00208649 0)
(1.524 0.0205572 0)
(1.5239 0.0434985 0)
(1.52681 0.066129 0)
(1.53261 0.0878838 0)
(1.54118 0.108213 0)
(1.55233 0.126602 0)
(1.56586 0.142577 0)
(1.58158 0.155715 0)
(1.59924 0.165641 0)
(1.61856 0.17205 0)
(1.63923 0.174738 0)
(1.66099 0.173539 0)
(1.68353 0.16834 0)
(1.70654 0.159114 0)
(1.72973 0.145911 0)
(1.7528 0.128862 0)
(1.77546 0.108191 0)
(1.79737 0.0842856 0)
(1.81797 0.0578536 0)
(1.83636 0.03011 0)
(1.85181 0.00217346 0)
(1.86376 -0.0249264 0)
(1.8718 -0.0503215 0)
(1.87561 -0.0734064 0)
(1.87531 -0.0935846 0)
(1.87062 -0.110233 0)
(1.86142 -0.122838 0)
(1.84793 -0.131054 0)
(1.83062 -0.135244 0)
(1.81019 -0.136059 0)
(1.7876 -0.134239 0)
(1.7638 -0.130582 0)
(1.73969 -0.125823 0)
(1.71608 -0.120483 0)
(1.69338 -0.114745 0)
(1.47123 0.0927125 0)
(1.48128 0.127916 0)
(1.49543 0.160907 0)
(1.51344 0.190953 0)
(1.53505 0.217403 0)
(1.56002 0.239675 0)
(1.58807 0.257234 0)
(1.61885 0.269592 0)
(1.65198 0.276391 0)
(1.68711 0.277314 0)
(1.72381 0.272089 0)
(1.76161 0.260555 0)
(1.79994 0.242682 0)
(1.8382 0.218558 0)
(1.87577 0.188354 0)
(1.9121 0.152334 0)
(1.94658 0.111037 0)
(1.97826 0.0657239 0)
(2.00563 0.0186553 0)
(2.02762 -0.028051 0)
(2.04347 -0.0722745 0)
(2.05255 -0.112207 0)
(2.05447 -0.147238 0)
(2.04986 -0.176985 0)
(2.0379 -0.200122 0)
(2.01834 -0.21499 0)
(1.99115 -0.220866 0)
(1.95698 -0.218846 0)
(1.91738 -0.210649 0)
(1.87425 -0.19859 0)
(1.82975 -0.185174 0)
(1.78595 -0.172399 0)
(1.74393 -0.161088 0)
(1.70444 -0.151249 0)
(1.66793 -0.142371 0)
(1.6346 -0.133644 0)
(1.6045 -0.124128 0)
(1.57765 -0.112916 0)
(1.55404 -0.0992813 0)
(1.53372 -0.0828045 0)
(1.51674 -0.063449 0)
(1.50322 -0.0415186 0)
(1.49326 -0.0174559 0)
(1.487 0.00818493 0)
(1.48454 0.0347547 0)
(1.4859 0.0615347 0)
(1.49101 0.0877759 0)
(1.49974 0.1128 0)
(1.51194 0.135958 0)
(1.52742 0.156637 0)
(1.54595 0.174274 0)
(1.56725 0.188352 0)
(1.59097 0.198448 0)
(1.61681 0.204258 0)
(1.6444 0.205528 0)
(1.67336 0.202079 0)
(1.70327 0.193824 0)
(1.7337 0.18076 0)
(1.76425 0.162957 0)
(1.79451 0.140558 0)
(1.82412 0.113816 0)
(1.85258 0.0832492 0)
(1.87893 0.0500091 0)
(1.90197 0.0157047 0)
(1.92074 -0.0182926 0)
(1.93455 -0.0507142 0)
(1.94282 -0.0805031 0)
(1.94499 -0.106892 0)
(1.9436 -0.128861 0)
(1.93457 -0.145923 0)
(1.91922 -0.156812 0)
(1.89795 -0.161663 0)
(1.87138 -0.161358 0)
(1.84097 -0.157038 0)
(1.80828 -0.15012 0)
(1.77486 -0.142044 0)
(1.74214 -0.133914 0)
(1.71078 -0.126178 0)
(1.68125 -0.11887 0)
(1.65382 -0.111768 0)
(1.62858 -0.104472 0)
(1.60557 -0.0965064 0)
(1.5848 -0.0874105 0)
(1.56631 -0.076801 0)
(1.55017 -0.064421 0)
(1.5365 -0.0501706 0)
(1.52543 -0.0341201 0)
(1.51709 -0.0165113 0)
(1.5116 0.00230968 0)
(1.50907 0.0219248 0)
(1.50953 0.041845 0)
(1.51296 0.0615357 0)
(1.5193 0.0804521 0)
(1.52843 0.0980884 0)
(1.5402 0.113959 0)
(1.55445 0.127601 0)
(1.57095 0.138609 0)
(1.58944 0.14667 0)
(1.60967 0.151528 0)
(1.63133 0.15296 0)
(1.65413 0.150799 0)
(1.67776 0.144944 0)
(1.70191 0.13537 0)
(1.72629 0.122119 0)
(1.75058 0.105325 0)
(1.77441 0.0852637 0)
(1.79718 0.0625194 0)
(1.81793 0.0381809 0)
(1.83581 0.0132959 0)
(1.85015 -0.0111466 0)
(1.86043 -0.0342702 0)
(1.86636 -0.055399 0)
(1.86781 -0.0740197 0)
(1.86467 -0.0896797 0)
(1.85665 -0.101825 0)
(1.84392 -0.109815 0)
(1.82704 -0.113959 0)
(1.8068 -0.114918 0)
(1.7842 -0.113421 0)
(1.76025 -0.110276 0)
(1.73593 -0.106253 0)
(1.71207 -0.101911 0)
(1.68909 -0.097476 0)
(1.66727 -0.09294 0)
(1.46683 0.0845479 0)
(1.47744 0.115577 0)
(1.4921 0.144565 0)
(1.51067 0.170827 0)
(1.53299 0.193737 0)
(1.55878 0.212697 0)
(1.58776 0.227231 0)
(1.61961 0.23695 0)
(1.65396 0.241497 0)
(1.69039 0.240571 0)
(1.72844 0.233972 0)
(1.76758 0.221618 0)
(1.80723 0.203538 0)
(1.84676 0.179832 0)
(1.88561 0.150629 0)
(1.92322 0.116196 0)
(1.95879 0.0773851 0)
(1.99072 0.0361145 0)
(2.01756 -0.00566686 0)
(2.03814 -0.0461232 0)
(2.0518 -0.0835298 0)
(2.05723 -0.116764 0)
(2.05749 -0.144742 0)
(2.05041 -0.16745 0)
(2.03358 -0.182698 0)
(2.0086 -0.189101 0)
(1.97545 -0.187501 0)
(1.93576 -0.179453 0)
(1.89172 -0.167188 0)
(1.84572 -0.153355 0)
(1.80023 -0.140325 0)
(1.75653 -0.129301 0)
(1.7155 -0.120563 0)
(1.67762 -0.113768 0)
(1.64308 -0.108157 0)
(1.61188 -0.102736 0)
(1.58393 -0.0964843 0)
(1.55913 -0.0885012 0)
(1.53744 -0.0780912 0)
(1.51885 -0.0648717 0)
(1.50344 -0.0488461 0)
(1.49132 -0.0303452 0)
(1.4826 -0.00985359 0)
(1.47743 0.0120951 0)
(1.47592 0.0349084 0)
(1.47811 0.057941 0)
(1.48397 0.0805262 0)
(1.49343 0.102013 0)
(1.50636 0.121781 0)
(1.52257 0.139259 0)
(1.54184 0.153935 0)
(1.5639 0.16536 0)
(1.58845 0.173153 0)
(1.61516 0.177006 0)
(1.64365 0.176689 0)
(1.67354 0.172065 0)
(1.7044 0.163068 0)
(1.7358 0.149687 0)
(1.76737 0.131962 0)
(1.79872 0.110026 0)
(1.82934 0.0842338 0)
(1.85831 0.0555124 0)
(1.88429 0.0253546 0)
(1.90624 -0.00488614 0)
(1.92323 -0.0339122 0)
(1.93474 -0.0607323 0)
(1.93987 -0.0848437 0)
(1.93965 -0.105343 0)
(1.93242 -0.121451 0)
(1.91817 -0.131599 0)
(1.89749 -0.135889 0)
(1.87117 -0.135314 0)
(1.84065 -0.130929 0)
(1.80764 -0.124122 0)
(1.77387 -0.116393 0)
(1.74085 -0.108912 0)
(1.70929 -0.1022 0)
(1.67967 -0.096354 0)
(1.65222 -0.0911819 0)
(1.62697 -0.0862975 0)
(1.60389 -0.0812184 0)
(1.58294 -0.07545 0)
(1.56406 -0.0685518 0)
(1.54728 -0.0601846 0)
(1.53267 -0.0501402 0)
(1.52035 -0.0383543 0)
(1.51048 -0.0249095 0)
(1.5032 -0.0100299 0)
(1.49864 0.00594561 0)
(1.49692 0.0226362 0)
(1.49808 0.0396033 0)
(1.50215 0.0563623 0)
(1.50909 0.0724251 0)
(1.51882 0.0873163 0)
(1.53121 0.100587 0)
(1.5461 0.111831 0)
(1.56329 0.120695 0)
(1.58251 0.126882 0)
(1.60351 0.13014 0)
(1.62598 0.130266 0)
(1.64963 0.127099 0)
(1.67417 0.120543 0)
(1.69929 0.110569 0)
(1.72466 0.09723 0)
(1.74988 0.0807237 0)
(1.77426 0.061571 0)
(1.79675 0.0407559 0)
(1.81644 0.0192159 0)
(1.83257 -0.00213251 0)
(1.8445 -0.0224617 0)
(1.85192 -0.0411288 0)
(1.8547 -0.0576243 0)
(1.85276 -0.0715885 0)
(1.84573 -0.082489 0)
(1.83379 -0.0896038 0)
(1.81746 -0.0932172 0)
(1.79766 -0.0939219 0)
(1.77546 -0.0924309 0)
(1.75192 -0.089542 0)
(1.72806 -0.0860209 0)
(1.7047 -0.0824224 0)
(1.68221 -0.0789814 0)
(1.66085 -0.075706 0)
(1.64075 -0.072476 0)
(1.46306 0.0756863 0)
(1.47421 0.102653 0)
(1.48943 0.127668 0)
(1.50859 0.150081 0)
(1.5315 0.169312 0)
(1.55797 0.184872 0)
(1.58771 0.196344 0)
(1.62038 0.20336 0)
(1.65559 0.205604 0)
(1.6929 0.202831 0)
(1.73182 0.194898 0)
(1.77181 0.181773 0)
(1.8123 0.163507 0)
(1.85275 0.14018 0)
(1.89262 0.111903 0)
(1.93125 0.0791496 0)
(1.96707 0.0435281 0)
(1.99841 0.00695713 0)
(2.02372 -0.0287315 0)
(2.04199 -0.0620423 0)
(2.05245 -0.0921776 0)
(2.05488 -0.118353 0)
(2.05137 -0.139335 0)
(2.03758 -0.153425 0)
(2.01353 -0.158839 0)
(1.98103 -0.156628 0)
(1.9413 -0.148104 0)
(1.89674 -0.135271 0)
(1.85006 -0.120796 0)
(1.80397 -0.107236 0)
(1.75986 -0.0960376 0)
(1.71859 -0.0877449 0)
(1.68066 -0.0822392 0)
(1.64621 -0.0788764 0)
(1.61514 -0.076664 0)
(1.58727 -0.0745056 0)
(1.5624 -0.0713753 0)
(1.54039 -0.0664166 0)
(1.52117 -0.0590023 0)
(1.50477 -0.048816 0)
(1.49128 -0.0359124 0)
(1.48085 -0.020654 0)
(1.47362 -0.0035532 0)
(1.46975 0.0148734 0)
(1.46937 0.0340829 0)
(1.47252 0.0534798 0)
(1.47924 0.0724489 0)
(1.48948 0.0904108 0)
(1.50313 0.106817 0)
(1.52002 0.121144 0)
(1.53994 0.132919 0)
(1.56263 0.141719 0)
(1.5878 0.147192 0)
(1.61512 0.149062 0)
(1.64424 0.147141 0)
(1.67477 0.14132 0)
(1.70631 0.131538 0)
(1.73846 0.117763 0)
(1.77084 0.100018 0)
(1.80293 0.0785555 0)
(1.83371 0.0542134 0)
(1.86174 0.0283085 0)
(1.88579 0.00207214 0)
(1.90478 -0.0232596 0)
(1.91801 -0.0466999 0)
(1.92522 -0.0674735 0)
(1.92618 -0.0851667 0)
(1.9201 -0.0991838 0)
(1.90657 -0.107863 0)
(1.88616 -0.111061 0)
(1.85999 -0.109684 0)
(1.82966 -0.104838 0)
(1.79695 -0.0978969 0)
(1.76373 -0.0903631 0)
(1.73145 -0.0833733 0)
(1.70082 -0.07747 0)
(1.67224 -0.0727793 0)
(1.64587 -0.069139 0)
(1.62169 -0.0661926 0)
(1.59959 -0.063468 0)
(1.57945 -0.0604576 0)
(1.56117 -0.0566869 0)
(1.54468 -0.0517655 0)
(1.53001 -0.0454195 0)
(1.51725 -0.0375019 0)
(1.50656 -0.0279886 0)
(1.49812 -0.0169725 0)
(1.4921 -0.00466669 0)
(1.48866 0.00860287 0)
(1.48791 0.0224974 0)
(1.48991 0.0366223 0)
(1.4947 0.0505292 0)
(1.50229 0.0637849 0)
(1.51262 0.0759651 0)
(1.52559 0.0866626 0)
(1.54106 0.0955079 0)
(1.55884 0.102185 0)
(1.57869 0.106438 0)
(1.60034 0.108049 0)
(1.62349 0.106819 0)
(1.64786 0.10259 0)
(1.67314 0.0952689 0)
(1.69901 0.0848443 0)
(1.72497 0.0714831 0)
(1.7502 0.0557083 0)
(1.77357 0.0383845 0)
(1.79415 0.0203196 0)
(1.8111 0.00234464 0)
(1.82378 -0.0147848 0)
(1.83184 -0.0304975 0)
(1.83525 -0.0443706 0)
(1.83385 -0.0561379 0)
(1.8273 -0.0651702 0)
(1.81582 -0.0708527 0)
(1.80002 -0.073515 0)
(1.78086 -0.0736741 0)
(1.7595 -0.0719861 0)
(1.737 -0.0692142 0)
(1.71442 -0.0660812 0)
(1.69242 -0.0630733 0)
(1.67134 -0.0604009 0)
(1.65135 -0.058086 0)
(1.63253 -0.0560357 0)
(1.61489 -0.0540719 0)
(1.45987 0.0664199 0)
(1.47135 0.08921 0)
(1.48695 0.110209 0)
(1.50658 0.12876 0)
(1.53 0.144322 0)
(1.557 0.156451 0)
(1.5873 0.164784 0)
(1.62053 0.16902 0)
(1.65625 0.1689 0)
(1.69397 0.16423 0)
(1.73323 0.154922 0)
(1.77357 0.140985 0)
(1.81461 0.122466 0)
(1.85592 0.0994223 0)
(1.89679 0.072103 0)
(1.93553 0.0417208 0)
(1.97019 0.0101469 0)
(1.99899 -0.0206624 0)
(2.02061 -0.0492166 0)
(2.03398 -0.0747514 0)
(2.03942 -0.0967034 0)
(2.03608 -0.114869 0)
(2.02222 -0.126721 0)
(1.99831 -0.130228 0)
(1.9655 -0.126391 0)
(1.9257 -0.116834 0)
(1.88134 -0.103359 0)
(1.83534 -0.0884411 0)
(1.79051 -0.0745682 0)
(1.74805 -0.0631903 0)
(1.70875 -0.0550251 0)
(1.67293 -0.050192 0)
(1.6406 -0.0482453 0)
(1.61155 -0.0482967 0)
(1.58548 -0.0492524 0)
(1.56209 -0.0500125 0)
(1.54115 -0.0496098 0)
(1.52252 -0.0472779 0)
(1.50617 -0.0424829 0)
(1.49221 -0.0349878 0)
(1.48081 -0.0249106 0)
(1.47218 -0.012653 0)
(1.46654 0.0012669 0)
(1.46407 0.0163696 0)
(1.46491 0.0321766 0)
(1.46912 0.0481064 0)
(1.47676 0.0635839 0)
(1.48781 0.0781134 0)
(1.50217 0.0912113 0)
(1.51967 0.10241 0)
(1.5401 0.111283 0)
(1.56323 0.117453 0)
(1.58877 0.120605 0)
(1.61644 0.120499 0)
(1.64591 0.116974 0)
(1.67687 0.109948 0)
(1.70893 0.0993584 0)
(1.74166 0.0851356 0)
(1.77442 0.0674541 0)
(1.80595 0.0471505 0)
(1.83474 0.0254161 0)
(1.85944 0.00339452 0)
(1.87888 -0.0177824 0)
(1.89236 -0.0371964 0)
(1.89964 -0.0542459 0)
(1.9006 -0.0686492 0)
(1.89434 -0.0797668 0)
(1.88067 -0.0860091 0)
(1.86015 -0.0875102 0)
(1.83411 -0.0849773 0)
(1.80436 -0.0794662 0)
(1.77281 -0.0723665 0)
(1.74139 -0.06511 0)
(1.71126 -0.0586551 0)
(1.68301 -0.0534836 0)
(1.65692 -0.0497309 0)
(1.63302 -0.0472812 0)
(1.61122 -0.045824 0)
(1.59132 -0.0449185 0)
(1.57314 -0.0440687 0)
(1.5565 -0.0427904 0)
(1.5413 -0.0406667 0)
(1.52753 -0.0373837 0)
(1.51524 -0.0327471 0)
(1.50456 -0.0266806 0)
(1.49569 -0.0192096 0)
(1.48884 -0.0104398 0)
(1.4842 -0.000566768 0)
(1.48199 0.0101108 0)
(1.48231 0.021368 0)
(1.48521 0.0328302 0)
(1.49077 0.0439958 0)
(1.49904 0.0544992 0)
(1.50998 0.0639953 0)
(1.5235 0.072126 0)
(1.53949 0.0785619 0)
(1.55779 0.0830323 0)
(1.57818 0.085342 0)
(1.60039 0.0853168 0)
(1.62411 0.0827457 0)
(1.649 0.0774439 0)
(1.67467 0.0693631 0)
(1.70053 0.0587051 0)
(1.72551 0.0460638 0)
(1.74856 0.0321291 0)
(1.76871 0.0175998 0)
(1.78511 0.00319327 0)
(1.79718 -0.0104472 0)
(1.80471 -0.0228605 0)
(1.80769 -0.0337998 0)
(1.80589 -0.043069 0)
(1.79908 -0.0497936 0)
(1.78764 -0.0536906 0)
(1.77229 -0.0551478 0)
(1.75408 -0.0546285 0)
(1.73414 -0.0527251 0)
(1.71353 -0.0501177 0)
(1.69319 -0.0474082 0)
(1.67357 -0.0449628 0)
(1.65492 -0.0429418 0)
(1.63733 -0.041374 0)
(1.6208 -0.0401941 0)
(1.60528 -0.0392568 0)
(1.59069 -0.0383607 0)
(1.45847 0.0571516 0)
(1.46937 0.075471 0)
(1.48464 0.0923552 0)
(1.50415 0.106989 0)
(1.52762 0.118831 0)
(1.55479 0.127503 0)
(1.5853 0.132749 0)
(1.61871 0.134374 0)
(1.65452 0.132179 0)
(1.69232 0.12594 0)
(1.73183 0.115476 0)
(1.7729 0.100606 0)
(1.81524 0.0812617 0)
(1.85776 0.0579903 0)
(1.89801 0.0322595 0)
(1.93382 0.0056607 0)
(1.9633 -0.0199796 0)
(1.98486 -0.0433718 0)
(1.99824 -0.0635721 0)
(2.00324 -0.0805403 0)
(1.99842 -0.0941023 0)
(1.98291 -0.101609 0)
(1.95715 -0.102338 0)
(1.9227 -0.0968203 0)
(1.88219 -0.0862605 0)
(1.83854 -0.0725528 0)
(1.79495 -0.0580226 0)
(1.75349 -0.0445908 0)
(1.71522 -0.0335378 0)
(1.6806 -0.0255854 0)
(1.64968 -0.0209994 0)
(1.62221 -0.0196304 0)
(1.59782 -0.0208872 0)
(1.57602 -0.0237775 0)
(1.55633 -0.0272026 0)
(1.53839 -0.0301467 0)
(1.52201 -0.0317654 0)
(1.50712 -0.0314143 0)
(1.49381 -0.0286803 0)
(1.48232 -0.0234435 0)
(1.47296 -0.0158777 0)
(1.46603 -0.00636445 0)
(1.4618 0.00456225 0)
(1.46054 0.0164437 0)
(1.46246 0.0289561 0)
(1.46767 0.0415729 0)
(1.47618 0.0537107 0)
(1.48797 0.0649706 0)
(1.50294 0.0749498 0)
(1.52093 0.0832244 0)
(1.54174 0.0893945 0)
(1.56514 0.0931021 0)
(1.5909 0.0940474 0)
(1.61879 0.0919947 0)
(1.64859 0.0867749 0)
(1.67998 0.078308 0)
(1.71231 0.0666681 0)
(1.74456 0.0521891 0)
(1.77515 0.0356863 0)
(1.80269 0.018162 0)
(1.82576 0.000646869 0)
(1.84329 -0.0158883 0)
(1.8548 -0.0308257 0)
(1.86021 -0.0438443 0)
(1.85902 -0.0548196 0)
(1.85061 -0.0623292 0)
(1.83531 -0.0655817 0)
(1.814 -0.0649961 0)
(1.78826 -0.0612499 0)
(1.76 -0.055344 0)
(1.73123 -0.0485471 0)
(1.70347 -0.0419855 0)
(1.67742 -0.0363471 0)
(1.65346 -0.031993 0)
(1.63166 -0.0290651 0)
(1.61193 -0.0275166 0)
(1.59405 -0.0271082 0)
(1.57777 -0.0274629 0)
(1.56282 -0.0281349 0)
(1.54901 -0.0286684 0)
(1.53617 -0.0286488 0)
(1.52427 -0.0277444 0)
(1.51336 -0.0257303 0)
(1.50356 -0.0224859 0)
(1.49505 -0.0179844 0)
(1.48806 -0.0122866 0)
(1.48286 -0.00550302 0)
(1.47969 0.00220606 0)
(1.47878 0.0105793 0)
(1.47979 0.0193355 0)
(1.48381 0.0281397 0)
(1.49026 0.0366528 0)
(1.49928 0.0445486 0)
(1.51085 0.0514918 0)
(1.52491 0.0571567 0)
(1.54137 0.0612447 0)
(1.56015 0.0635172 0)
(1.58103 0.0638495 0)
(1.60361 0.062122 0)
(1.62738 0.0581486 0)