/*--------------------------------*- C++ -*----------------------------------*\
| =========                 |                                                 |
| \\      /  F ield         | OpenFOAM: The Open Source CFD Toolbox           |
|  \\    /   O peration     | Version:  2206                                  |
|   \\  /    A nd           | Website:  www.openfoam.com                      |
|    \\/     M anipulation  |                                                 |
\*---------------------------------------------------------------------------*/
FoamFile
{
    version     2.0;
    format      ascii;
    arch        "LSB;label=32;scalar=64";
    class       volScalarField;
    location    "18.2001";
    object      p;
}
// * * * * * * * * * * * * * * * * * * * * * * * * * * * * * * * * * * * * * //

dimensions      [0 2 -2 0 0 0 0];

internalField   nonuniform List<scalar> 
1838
(
-0.737654
-0.65955
-0.629947
-0.63767
-0.69609
-0.815197
-0.999151
-1.24564
-1.53147
-1.82776
-2.04726
-2.13767
-2.075
-1.89701
-1.65119
-1.37379
-1.10006
-0.859988
-0.657526
-0.49221
-0.367246
-0.278614
-0.217757
-0.179744
-0.166588
-0.182549
-0.223418
-0.26625
-0.288927
-0.285613
-0.270865
-0.23937
-0.200527
-0.161096
-0.125871
-0.100549
-0.0890051
-0.0936576
-0.115157
-0.154567
-0.212683
-0.286679
-0.370033
-0.452953
-0.525009
-0.578199
-0.606941
-0.611286
-0.596241
-0.563596
-0.51945
-0.474489
-0.43545
-0.396702
-0.35775
-0.319297
-0.281862
-0.246079
-0.217601
-0.204223
-0.209166
-0.230721
-0.265129
-0.306392
-0.348667
-0.388912
-0.421137
-0.439244
-0.441323
-0.427769
-0.400492
-0.362629
-0.318213
-0.271395
-0.22583
-0.183948
-0.147486
-0.118496
-0.0984221
-0.0873522
-0.0846747
-0.0893754
-0.100108
-0.114616
-0.130911
-0.146422
-0.156217
-0.16219
-0.167382
-0.16243
-0.146281
-0.132916
-0.122905
-0.115363
-0.112908
-0.115876
-0.123936
-0.136615
-0.152876
-0.171103
-0.189778
-0.208587
-0.774426
-0.738724
-0.719857
-0.72622
-0.778134
-0.894422
-1.08815
-1.35818
-1.67761
-1.99198
-2.22188
-2.32604
-2.25785
-2.05531
-1.77822
-1.46712
-1.1577
-0.8853
-0.668601
-0.492818
-0.36307
-0.275865
-0.224933
-0.209628
-0.235434
-0.290901
-0.353346
-0.401294
-0.425515
-0.426756
-0.402997
-0.35955
-0.308816
-0.258448
-0.214461
-0.181952
-0.164506
-0.164088
-0.182398
-0.219151
-0.272962
-0.34629
-0.43427
-0.525319
-0.606805
-0.668275
-0.702634
-0.707294
-0.687265
-0.648171
-0.587953
-0.519564
-0.456431
-0.4013
-0.351378
-0.307654
-0.270275
-0.239752
-0.21932
-0.213877
-0.225355
-0.252143
-0.290096
-0.333742
-0.38002
-0.424052
-0.457362
-0.474981
-0.475637
-0.459621
-0.429113
-0.388039
-0.340988
-0.292385
-0.246422
-0.205574
-0.170969
-0.144299
-0.126698
-0.118012
-0.117449
-0.123892
-0.13574
-0.150616
-0.166251
-0.180716
-0.190318
-0.192693
-0.194561
-0.188688
-0.169869
-0.153317
-0.140254
-0.129717
-0.124518
-0.125748
-0.132465
-0.143721
-0.158532
-0.175331
-0.193042
-0.21163
-0.872994
-0.852015
-0.839019
-0.845437
-0.891375
-0.998361
-1.18576
-1.46131
-1.79419
-2.12204
-2.36638
-2.4423
-2.3501
-2.12616
-1.8273
-1.50048
-1.18498
-0.904466
-0.679204
-0.50394
-0.379972
-0.306072
-0.28088
-0.306498
-0.365431
-0.440109
-0.508038
-0.560202
-0.587984
-0.578184
-0.538642
-0.480571
-0.415004
-0.351321
-0.29638
-0.255136
-0.231407
-0.225558
-0.239346
-0.274281
-0.327353
-0.395403
-0.485008
-0.580774
-0.669334
-0.73715
-0.77685
-0.78323
-0.75805
-0.708961
-0.642438
-0.565381
-0.486704
-0.418224
-0.360113
-0.31017
-0.271533
-0.244337
-0.229527
-0.229429
-0.244995
-0.274465
-0.313443
-0.359107
-0.408765
-0.453928
-0.487291
-0.504371
-0.50278
-0.484032
-0.45069
-0.406912
-0.357838
-0.308276
-0.262979
-0.224314
-0.191555
-0.167853
-0.153551
-0.14814
-0.150476
-0.159341
-0.173114
-0.18944
-0.205429
-0.219391
-0.228763
-0.231613
-0.228351
-0.218083
-0.199169
-0.178093
-0.159793
-0.146457
-0.138262
-0.136366
-0.140408
-0.149053
-0.161169
-0.175456
-0.191624
-0.208993
-0.985957
-0.978231
-0.975238
-0.988195
-1.03087
-1.12043
-1.27556
-1.5282
-1.81889
-2.11335
-2.32572
-2.38557
-2.28386
-2.05673
-1.76278
-1.44882
-1.15015
-0.888499
-0.672332
-0.516637
-0.410528
-0.363391
-0.37739
-0.432672
-0.514575
-0.59759
-0.678161
-0.737718
-0.751407
-0.724688
-0.667289
-0.590838
-0.507937
-0.429206
-0.361187
-0.308896
-0.27643
-0.263305
-0.270522
-0.299076
-0.352462
-0.423744
-0.512239
-0.609334
-0.701818
-0.775532
-0.819389
-0.829459
-0.804937
-0.75171
-0.680476
-0.599113
-0.515401
-0.436992
-0.373316
-0.320579
-0.28016
-0.254024
-0.242429
-0.245311
-0.262543
-0.292099
-0.331162
-0.378634
-0.428903
-0.473512
-0.505863
-0.521026
-0.518092
-0.496963
-0.461187
-0.415349
-0.365226
-0.315756
-0.271764
-0.235222
-0.205774
-0.185842
-0.17481
-0.173039
-0.179624
-0.192032
-0.208523
-0.226925
-0.244378
-0.258092
-0.266828
-0.268484
-0.262611
-0.249464
-0.230343
-0.206577
-0.182126
-0.162455
-0.150009
-0.144812
-0.144977
-0.149849
-0.158448
-0.169971
-0.184052
-0.199068
-1.14031
-1.16546
-1.20605
-1.26922
-1.37401
-1.54105
-1.74573
-1.95373
-2.09809
-2.12635
-2.03057
-1.82697
-1.56716
-1.29119
-1.03059
-0.806421
-0.623378
-0.494423
-0.427411
-0.42082
-0.470906
-0.551564
-0.648286
-0.760087
-0.853328
-0.898556
-0.897018
-0.852058
-0.774545
-0.678526
-0.577788
-0.484438
-0.403447
-0.33908
-0.300066
-0.281317
-0.281957
-0.305123
-0.353675
-0.427571
-0.512142
-0.607023
-0.700408
-0.777702
-0.826309
-0.841297
-0.821264
-0.770704
-0.699577
-0.61738
-0.533539
-0.453163
-0.383177
-0.330295
-0.289117
-0.262482
-0.251781
-0.255569
-0.272081
-0.300261
-0.339623
-0.387141
-0.435814
-0.478711
-0.509187
-0.522593
-0.51811
-0.495296
-0.458354
-0.411942
-0.361792
-0.312226
-0.269734
-0.235647
-0.211377
-0.195131
-0.18915
-0.19203
-0.201845
-0.217515
-0.237228
-0.258414
-0.278069
-0.293086
-0.301447
-0.302048
-0.293711
-0.27734
-0.255139
-0.229776
-0.203749
-0.178201
-0.158107
-0.149272
-0.144562
-0.144626
-0.149299
-0.157715
-0.168779
-0.181035
-0.587587
-0.569627
-0.55281
-0.537064
-0.522618
-0.509564
-0.497492
-0.486174
-0.475569
-0.46564
-0.456305
-0.447449
-0.438975
-0.430785
-0.422769
-0.414884
-0.407104
-0.399387
-0.391721
-0.384193
-0.376922
-0.37007
-0.363905
-0.358763
-0.355059
-0.353282
-0.35375
-0.355596
-0.357155
-0.357635
-0.357117
-0.587496
-0.569435
-0.552604
-0.536987
-0.522634
-0.509505
-0.49738
-0.486082
-0.475535
-0.465682
-0.456443
-0.447719
-0.439414
-0.431435
-0.423695
-0.416134
-0.408716
-0.401395
-0.394096
-0.386991
-0.380208
-0.373886
-0.36831
-0.363688
-0.36031
-0.358376
-0.35764
-0.357648
-0.357814
-0.357514
-0.356208
-0.586903
-0.568609
-0.551656
-0.536021
-0.521703
-0.508614
-0.496587
-0.485459
-0.47512
-0.465499
-0.45652
-0.448108
-0.440198
-0.432729
-0.425648
-0.418925
-0.412539
-0.406478
-0.400747
-0.395402
-0.390531
-0.386208
-0.382572
-0.379811
-0.378071
-0.377381
-0.377602
-0.378482
-0.379511
-0.380099
-0.379947
-0.584291
-0.565944
-0.549029
-0.533447
-0.519254
-0.506348
-0.49454
-0.483659
-0.473589
-0.464277
-0.455654
-0.447667
-0.440289
-0.433483
-0.427206
-0.421484
-0.416307
-0.41167
-0.40765
-0.404194
-0.401394
-0.399249
-0.397747
-0.39712
-0.397479
-0.398804
-0.400981
-0.403767
-0.40679
-0.40953
-0.411903
-0.579724
-0.561209
-0.544451
-0.529284
-0.515588
-0.503169
-0.491813
-0.481357
-0.47169
-0.462751
-0.454526
-0.446981
-0.440173
-0.434067
-0.428652
-0.42402
-0.420175
-0.417024
-0.41462
-0.412984
-0.412139
-0.412106
-0.412933
-0.41472
-0.417529
-0.421342
-0.426028
-0.431313
-0.437077
-0.443127
-0.449128
-0.573354
-0.554703
-0.53821
-0.523559
-0.510452
-0.498596
-0.487762
-0.47779
-0.468574
-0.460047
-0.452231
-0.445165
-0.438899
-0.433485
-0.42901
-0.425457
-0.422816
-0.421078
-0.420287
-0.420466
-0.421609
-0.423727
-0.426842
-0.430964
-0.436158
-0.442576
-0.450137
-0.458621
-0.467646
-0.477008
-0.486958
-0.564723
-0.546466
-0.530667
-0.516856
-0.504596
-0.493539
-0.4834
-0.473984
-0.465207
-0.457056
-0.449578
-0.4429
-0.437088
-0.432275
-0.428556
-0.425972
-0.424535
-0.424249
-0.425109
-0.427103
-0.430218
-0.434455
-0.439833
-0.446384
-0.45418
-0.463334
-0.473874
-0.485697
-0.498504
-0.511813
-0.524931
-0.553666
-0.535886
-0.520956
-0.508219
-0.497066
-0.487046
-0.477807
-0.469124
-0.460904
-0.453164
-0.446009
-0.439636
-0.434231
-0.42995
-0.4269
-0.425193
-0.424859
-0.425883
-0.42822
-0.431832
-0.436705
-0.442844
-0.450273
-0.459057
-0.469313
-0.481202
-0.494888
-0.510441
-0.52768
-0.545785
-0.562985
-0.546802
-0.529306
-0.514893
-0.502799
-0.492308
-0.482852
-0.474031
-0.465638
-0.457591
-0.449892
-0.442718
-0.436366
-0.431094
-0.427104
-0.424513
-0.423417
-0.423858
-0.4258
-0.429184
-0.433953
-0.440084
-0.447579
-0.456463
-0.466819
-0.478814
-0.492713
-0.508893
-0.5278
-0.549799
-0.574482
-0.598727
-0.544336
-0.526832
-0.512397
-0.500295
-0.489834
-0.480443
-0.471727
-0.463463
-0.45559
-0.448085
-0.441062
-0.434849
-0.429736
-0.425897
-0.423457
-0.422495
-0.423055
-0.425135
-0.42868
-0.433612
-0.439918
-0.447619
-0.456748
-0.467405
-0.479793
-0.494244
-0.511291
-0.531687
-0.556967
-0.587874
-0.63036
-0.355925
-0.35425
-0.352086
-0.349343
-0.345959
-0.343698
-0.347457
-0.363274
-0.397564
-0.456072
-0.544266
-0.661563
-0.802488
-0.969923
-1.14016
-1.27498
-1.33395
-1.29831
-1.19986
-1.05221
-0.881313
-0.710069
-0.552806
-0.418118
-0.308058
-0.220963
-0.155515
-0.107163
-0.0749513
-0.0569192
-0.0484425
-0.050934
-0.0630993
-0.082803
-0.10779
-0.134979
-0.161269
-0.183132
-0.19805
-0.205053
-0.205036
-0.198992
-0.189637
-0.180468
-0.175379
-0.177413
-0.188968
-0.208827
-0.24308
-0.283105
-0.32983
-0.378566
-0.421351
-0.449067
-0.455365
-0.440629
-0.408447
-0.364815
-0.317548
-0.273832
-0.239548
-0.218459
-0.211024
-0.213657
-0.22426
-0.23949
-0.255069
-0.267152
-0.272544
-0.26934
-0.259027
-0.241005
-0.217061
-0.189351
-0.160287
-0.132091
-0.106667
-0.0856023
-0.0699638
-0.0601922
-0.0562336
-0.057338
-0.0619749
-0.0692261
-0.077776
-0.086313
-0.0938038
-0.0996642
-0.103785
-0.10622
-0.107501
-0.108299
-0.109387
-0.111519
-0.115004
-0.120155
-0.126897
-0.13487
-0.143513
-0.152135
-0.159994
-0.166369
-0.354027
-0.351228
-0.347747
-0.342584
-0.332772
-0.317255
-0.304683
-0.310062
-0.34612
-0.41951
-0.52592
-0.656507
-0.810403
-1.00531
-1.19646
-1.35462
-1.43074
-1.39932
-1.28452
-1.10701
-0.909732
-0.721055
-0.553691
-0.413979
-0.301676
-0.212806
-0.144383
-0.0944318
-0.061845
-0.0422512
-0.0363622
-0.0413733
-0.0561024
-0.0784922
-0.106227
-0.136636
-0.165563
-0.189765
-0.206279
-0.213851
-0.212582
-0.204096
-0.19171
-0.178535
-0.169828
-0.168679
-0.178436
-0.199045
-0.232748
-0.278387
-0.331154
-0.386679
-0.436612
-0.469769
-0.477009
-0.461761
-0.424014
-0.372999
-0.318329
-0.268171
-0.229265
-0.206363
-0.200073
-0.205134
-0.219595
-0.239114
-0.258294
-0.273416
-0.280888
-0.2788
-0.267449
-0.247698
-0.221665
-0.191719
-0.16063
-0.130434
-0.103254
-0.0808883
-0.0645535
-0.0547655
-0.0512838
-0.053191
-0.0591333
-0.0678065
-0.0776717
-0.0872558
-0.0953714
-0.101563
-0.10545
-0.107431
-0.108086
-0.108157
-0.108493
-0.109981
-0.113317
-0.118539
-0.125607
-0.134124
-0.14345
-0.152806
-0.161371
-0.168363
-0.378952
-0.376949
-0.373461
-0.367858
-0.360147
-0.352147
-0.34874
-0.358155
-0.389156
-0.448817
-0.541936
-0.677306
-0.859964
-1.08058
-1.30157
-1.47149
-1.54097
-1.49635
-1.3372
-1.12965
-0.912736
-0.712687
-0.538263
-0.39372
-0.281406
-0.194257
-0.127167
-0.078206
-0.0478568
-0.027559
-0.0212578
-0.0279268
-0.0459564
-0.0727106
-0.105249
-0.140151
-0.173489
-0.201221
-0.219584
-0.226926
-0.224031
-0.211573
-0.193668
-0.174909
-0.159442
-0.152724
-0.159986
-0.181725
-0.22017
-0.273383
-0.336676
-0.404407
-0.468516
-0.511919
-0.52214
-0.498029
-0.448139
-0.384657
-0.318162
-0.25742
-0.210996
-0.184842
-0.179464
-0.191607
-0.213425
-0.239396
-0.264898
-0.285435
-0.295939
-0.294707
-0.281081
-0.258358
-0.228928
-0.195487
-0.160956
-0.127214
-0.0969299
-0.0723945
-0.0550299
-0.045373
-0.043323
-0.0463496
-0.0543268
-0.0652545
-0.0772545
-0.0886175
-0.0975876
-0.104423
-0.108236
-0.109578
-0.109261
-0.108096
-0.107119
-0.107728
-0.110601
-0.115878
-0.123485
-0.132916
-0.143404
-0.153992
-0.163758
-0.17187
-0.413743
-0.415035
-0.415873
-0.41689
-0.419591
-0.425708
-0.438367
-0.463563
-0.507855
-0.577239
-0.676898
-0.809619
-0.97553
-1.16358
-1.34152
-1.46344
-1.4939
-1.42286
-1.27056
-1.07483
-0.87137
-0.684314
-0.52311
-0.38899
-0.281311
-0.19266
-0.118907
-0.0612943
-0.0240406
-0.00954263
-0.00718778
-0.017098
-0.0386175
-0.0674504
-0.102348
-0.139942
-0.176401
-0.207415
-0.228289
-0.23721
-0.233679
-0.217808
-0.194042
-0.169389
-0.147331
-0.133794
-0.138153
-0.164675
-0.209852
-0.272801
-0.347013
-0.426614
-0.50161
-0.552252
-0.56376
-0.529015
-0.467373
-0.39304
-0.316891
-0.24538
-0.191091
-0.163599
-0.162306
-0.181862
-0.211203
-0.243579
-0.274176
-0.297998
-0.309818
-0.307918
-0.293338
-0.268285
-0.235849
-0.199443
-0.161944
-0.125344
-0.0915799
-0.0638414
-0.0443242
-0.0337208
-0.0310666
-0.0370806
-0.047698
-0.0611526
-0.0756108
-0.0898052
-0.101303
-0.108372
-0.112084
-0.112896
-0.11163
-0.109229
-0.106819
-0.106072
-0.108169
-0.113148
-0.121149
-0.131426
-0.143006
-0.154842
-0.165979
-0.175337
-0.45478
-0.460337
-0.467005
-0.477018
-0.492796
-0.515663
-0.547728
-0.592341
-0.651383
-0.7265
-0.8213
-0.930692
-1.05217
-1.17845
-1.28618
-1.34834
-1.34471
-1.27013
-1.13578
-0.967653
-0.793617
-0.630898
-0.490179
-0.37293
-0.274736
-0.193782
-0.130083
-0.0834757
-0.0501601
-0.028805
-0.0158086
-0.0157329
-0.0291721
-0.0537173
-0.085635
-0.121365
-0.157988
-0.191427
-0.214678
-0.225149
-0.225983
-0.21508
-0.195439
-0.170147
-0.146487
-0.133587
-0.139671
-0.165403
-0.212245
-0.280665
-0.359607
-0.442157
-0.514448
-0.562599
-0.569935
-0.532331
-0.466719
-0.39132
-0.316494
-0.246082
-0.192929
-0.166063
-0.164969
-0.185363
-0.215662
-0.248062
-0.278993
-0.304655
-0.318116
-0.317277
-0.301376
-0.274344
-0.239465
-0.200768
-0.161299
-0.122272
-0.086371
-0.0568851
-0.0371004
-0.0270999
-0.0255976
-0.0312345
-0.042489
-0.0569906
-0.0730038
-0.0882287
-0.100901
-0.109507
-0.114306
-0.115622
-0.114132
-0.111041
-0.10751
-0.10523
-0.105853
-0.110831
-0.118912
-0.129642
-0.142061
-0.15502
-0.167352
-0.178086
-0.496462
-0.505359
-0.516957
-0.536312
-0.567457
-0.607681
-0.658342
-0.723373
-0.798611
-0.879524
-0.968035
-1.05642
-1.13279
-1.19577
-1.23633
-1.23965
-1.19596
-1.10507
-0.977842
-0.833699
-0.690271
-0.557822
-0.443501
-0.348343
-0.269485
-0.203498
-0.148451
-0.103975
-0.0716624
-0.0511001
-0.0358721
-0.0269159
-0.029492
-0.043192
-0.0613519
-0.0841844
-0.112133
-0.142002
-0.166015
-0.183649
-0.198446
-0.197804
-0.175897
-0.148005
-0.129295
-0.129468
-0.146426
-0.180034
-0.234686
-0.306087
-0.381254
-0.453053
-0.511178
-0.546291
-0.54652
-0.509672
-0.448838
-0.378746
-0.307871
-0.246505
-0.202328
-0.181687
-0.186027
-0.206037
-0.234564
-0.264406
-0.290607
-0.309391
-0.31696
-0.311026
-0.29378
-0.267598
-0.235209
-0.199089
-0.160629
-0.121326
-0.0846927
-0.0533435
-0.0317733
-0.0203233
-0.0173424
-0.0236923
-0.0364339
-0.0525866
-0.0704806
-0.0862599
-0.100067
-0.110573
-0.116903
-0.119187
-0.117827
-0.114554
-0.11099
-0.107395
-0.107347
-0.11106
-0.118559
-0.129008
-0.141443
-0.154736
-0.167637
-0.179393
-0.536769
-0.546414
-0.55738
-0.581591
-0.62833
-0.691951
-0.768454
-0.862728
-0.96535
-1.0542
-1.13655
-1.2089
-1.24487
-1.24769
-1.22757
-1.17638
-1.09121
-0.978349
-0.84883
-0.717122
-0.593852
-0.484238
-0.391044
-0.313721
-0.25048
-0.200477
-0.159931
-0.125872
-0.0960119
-0.0714289
-0.0495818
-0.0294696
-0.0186665
-0.0166085
-0.0182518
-0.0283088
-0.0486419
-0.074151
-0.0928574
-0.106681
-0.134224
-0.162729
-0.166452
-0.163651
-0.163834
-0.168947
-0.181319
-0.214061
-0.27039
-0.336104
-0.40055
-0.454978
-0.49632
-0.517907
-0.511291
-0.476892
-0.422705
-0.359588
-0.295012
-0.243233
-0.209763
-0.196555
-0.202814
-0.223373
-0.250523
-0.277183
-0.298471
-0.312316
-0.317675
-0.311945
-0.295177
-0.26892
-0.235951
-0.198464
-0.159204
-0.12216
-0.0860594
-0.0527692
-0.0319048
-0.0222819
-0.0183323
-0.0236076
-0.032822
-0.0467561
-0.0658662
-0.0831639
-0.099738
-0.112416
-0.120179
-0.123052
-0.121685
-0.117491
-0.112686
-0.108578
-0.107254
-0.110479
-0.117768
-0.128152
-0.14082
-0.154735
-0.168759
-0.182001
-0.576858
-0.582377
-0.588302
-0.613858
-0.6692
-0.750679
-0.853421
-0.981318
-1.1186
-1.23404
-1.32899
-1.39831
-1.40578
-1.35273
-1.27341
-1.16921
-1.04177
-0.901383
-0.759324
-0.626869
-0.510734
-0.41332
-0.334582
-0.273327
-0.226393
-0.189673
-0.161528
-0.14074
-0.120166
-0.0984895
-0.0732543
-0.0424268
-0.0145395
0.00542805
0.0175549
0.0212442
0.0118021
-0.0111738
-0.0430436
-0.0806222
-0.124531
-0.16993
-0.199022
-0.213042
-0.234854
-0.260481
-0.274668
-0.291628
-0.325557
-0.370217
-0.415237
-0.452134
-0.477089
-0.484084
-0.469598
-0.435862
-0.387371
-0.330598
-0.274127
-0.230684
-0.206197
-0.201765
-0.215169
-0.240574
-0.269796
-0.296636
-0.318002
-0.333569
-0.337807
-0.330298
-0.312704
-0.284091
-0.248483
-0.208516
-0.166912
-0.126711
-0.0900122
-0.0594516
-0.0380827
-0.0265625
-0.0217806
-0.0255441
-0.0384892
-0.0544446
-0.0701561
-0.0848434
-0.100951
-0.113302
-0.123051
-0.127125
-0.125489
-0.12012
-0.113617
-0.109095
-0.107029
-0.109737
-0.11713
-0.128087
-0.141646
-0.156751
-0.172373
-0.187378
-0.615204
-0.605586
-0.602688
-0.633804
-0.702936
-0.809356
-0.951197
-1.12518
-1.31063
-1.46366
-1.56774
-1.61924
-1.60136
-1.50482
-1.36124
-1.20129
-1.03108
-0.859818
-0.699757
-0.559569
-0.443257
-0.352204
-0.284661
-0.234473
-0.196385
-0.171624
-0.163903
-0.158415
-0.139102
-0.117037
-0.0871853
-0.0551576
-0.0274732
-0.00371023
0.0148991
0.0241691
0.0206966
0.00319168
-0.028061
-0.0729975
-0.13006
-0.192409
-0.251304
-0.297683
-0.335972
-0.359829
-0.378534
-0.402526
-0.416717
-0.426181
-0.434645
-0.444515
-0.450621
-0.44455
-0.423729
-0.389828
-0.346067
-0.296498
-0.249271
-0.215641
-0.200942
-0.205524
-0.226543
-0.257459
-0.291343
-0.321885
-0.34696
-0.364181
-0.36842
-0.359162
-0.338109
-0.306828
-0.26859
-0.226466
-0.183193
-0.141537
-0.104018
-0.072994
-0.0506646
-0.0382265
-0.034849
-0.0376036
-0.0496417
-0.06521
-0.0812203
-0.0997522
-0.11338
-0.121885
-0.128592
-0.130015
-0.126936
-0.12094
-0.113538
-0.107783
-0.105768
-0.108437
-0.116082
-0.128135
-0.143298
-0.160218
-0.177698
-0.194605
-0.661307
-0.602875
-0.564251
-0.586481
-0.660204
-0.787794
-0.969675
-1.19921
-1.46062
-1.69182
-1.84464
-1.89386
-1.83884
-1.69496
-1.49084
-1.26838
-1.0511
-0.846766
-0.665523
-0.513465
-0.393858
-0.305998
-0.243871
-0.199654
-0.171557
-0.16076
-0.162592
-0.172402
-0.180159
-0.176124
-0.155611
-0.126428
-0.0987176
-0.0707335
-0.0417702
-0.023282
-0.0185986
-0.0290508
-0.055462
-0.098885
-0.158261
-0.229573
-0.30579
-0.37571
-0.433412
-0.471106
-0.488768
-0.500609
-0.503879
-0.486942
-0.466207
-0.451383
-0.43463
-0.41181
-0.382898
-0.348019
-0.308247
-0.265834
-0.228023
-0.204517
-0.200266
-0.214161
-0.242659
-0.279757
-0.318342
-0.353667
-0.383237
-0.401125
-0.404284
-0.392827
-0.368678
-0.334033
-0.292456
-0.247728
-0.203101
-0.16095
-0.123632
-0.0934944
-0.0719444
-0.0593987
-0.0554541
-0.0594705
-0.0705611
-0.0860354
-0.102722
-0.117609
-0.129008
-0.14115
-0.143886
-0.139182
-0.13208
-0.122678
-0.11399
-0.108349
-0.106676
-0.109863
-0.118103
-0.130886
-0.147126
-0.165308
-0.183946
-0.202189
)
;

boundaryField
{
    inlet
    {
        type            zeroGradient;
    }
    outlet
    {
        type            fixedValue;
        value           nonuniform List<scalar> 0();
    }
    topWall
    {
        type            zeroGradient;
    }
    lowerWall
    {
        type            zeroGradient;
    }
    leadingEdge
    {
        type            zeroGradient;
    }
    trailingEdge
    {
        type            zeroGradient;
    }
    upperSurface
    {
        type            zeroGradient;
    }
    lowerSurface
    {
        type            zeroGradient;
    }
    frontAndBack
    {
        type            empty;
    }
    procBoundary1to0
    {
        type            processor;
        value           nonuniform List<scalar> 10(-0.60669 -0.606787 -0.606582 -0.604283 -0.600208 -0.59445 -0.585886 -0.574909 -0.568118 -0.565608);
    }
    procBoundary1to2
    {
        type            processor;
        value           nonuniform List<scalar> 
14
(
-0.226148
-0.228844
-0.224803
-0.212819
-0.170652
-0.173072
-0.177815
-0.182301
-0.186505
-0.188963
-0.193258
-0.200344
-0.209681
-0.218953
)
;
    }
    procBoundary1to5
    {
        type            processor;
        value           nonuniform List<scalar> 
103
(
-1.12393
-1.12728
-1.12728
-1.34052
-1.38061
-1.4171
-1.45107
-1.48563
-1.53012
-1.60416
-1.68405
-1.73524
-1.71731
-1.62432
-1.44841
-1.24331
-1.02542
-0.821599
-0.649457
-0.519455
-0.438604
-0.417406
-0.448877
-0.520843
-0.637342
-0.776618
-0.903384
-0.989234
-1.02459
-1.00705
-0.942977
-0.845976
-0.731847
-0.615412
-0.508389
-0.416458
-0.348601
-0.303379
-0.279584
-0.276431
-0.296049
-0.339507
-0.406458
-0.486374
-0.576257
-0.667582
-0.745861
-0.798671
-0.81851
-0.805247
-0.761524
-0.695614
-0.617208
-0.536201
-0.45805
-0.386329
-0.331064
-0.292147
-0.264678
-0.252267
-0.253911
-0.269018
-0.296825
-0.335481
-0.380577
-0.426611
-0.466864
-0.494748
-0.50709
-0.501236
-0.47824
-0.441679
-0.396972
-0.348397
-0.299424
-0.257493
-0.227098
-0.207773
-0.196914
-0.195826
-0.202357
-0.215419
-0.234703
-0.257864
-0.28192
-0.303821
-0.320368
-0.328884
-0.328578
-0.318431
-0.299578
-0.274095
-0.245272
-0.215817
-0.188286
-0.165826
-0.149001
-0.138653
-0.134613
-0.135259
-0.139799
-0.146917
-0.156271
)
;
    }
    procBoundary1to6
    {
        type            processor;
        value           uniform -0.192658;
    }
}


// ************************************************************************* //
