/*--------------------------------*- C++ -*----------------------------------*\
| =========                 |                                                 |
| \\      /  F ield         | OpenFOAM: The Open Source CFD Toolbox           |
|  \\    /   O peration     | Version:  2206                                  |
|   \\  /    A nd           | Website:  www.openfoam.com                      |
|    \\/     M anipulation  |                                                 |
\*---------------------------------------------------------------------------*/
FoamFile
{
    version     2.0;
    format      ascii;
    arch        "LSB;label=32;scalar=64";
    class       volVectorField;
    location    "18.3999";
    object      U;
}
// * * * * * * * * * * * * * * * * * * * * * * * * * * * * * * * * * * * * * //

dimensions      [0 1 -1 0 0 0 0];

internalField   nonuniform List<vector> 
3062
(
(1.72458 -0.174875 0)
(1.73263 -0.187533 0)
(1.7409 -0.196396 0)
(1.74939 -0.201418 0)
(1.75825 -0.202243 0)
(1.76719 -0.198513 0)
(1.77614 -0.190218 0)
(1.78492 -0.1775 0)
(1.79338 -0.160631 0)
(1.80144 -0.139976 0)
(1.80901 -0.115972 0)
(1.81605 -0.0891436 0)
(1.82246 -0.0601339 0)
(1.82813 -0.029777 0)
(1.83281 0.000731243 0)
(1.83635 0.0304248 0)
(1.83861 0.058534 0)
(1.83952 0.0843794 0)
(1.83902 0.107398 0)
(1.8371 0.127171 0)
(1.83382 0.143442 0)
(1.82927 0.156094 0)
(1.82359 0.165128 0)
(1.81671 0.170537 0)
(1.80861 0.17219 0)
(1.79958 0.17023 0)
(1.78983 0.164939 0)
(1.77974 0.156548 0)
(1.7697 0.145321 0)
(1.76006 0.131522 0)
(1.75111 0.115388 0)
(1.74312 0.0971486 0)
(1.73627 0.0770519 0)
(1.73074 0.0553945 0)
(1.72664 0.0325495 0)
(1.72405 0.00902142 0)
(1.723 -0.0145086 0)
(1.72341 -0.0374756 0)
(1.72518 -0.0593591 0)
(1.72818 -0.079672 0)
(1.73223 -0.0979852 0)
(1.73714 -0.113951 0)
(1.74271 -0.127319 0)
(1.74874 -0.137938 0)
(1.75504 -0.145748 0)
(1.76152 -0.150727 0)
(1.76829 -0.152719 0)
(1.77524 -0.151418 0)
(1.78225 -0.146747 0)
(1.78921 -0.138757 0)
(1.79598 -0.127605 0)
(1.80247 -0.113534 0)
(1.80859 -0.0968455 0)
(1.8143 -0.077901 0)
(1.81952 -0.0571367 0)
(1.82417 -0.0350884 0)
(1.82811 -0.0124756 0)
(1.83119 0.00986873 0)
(1.83331 0.031364 0)
(1.8344 0.0514949 0)
(1.8344 0.0698497 0)
(1.83332 0.0860801 0)
(1.83123 0.0999069 0)
(1.82818 0.111183 0)
(1.82428 0.119851 0)
(1.81962 0.125889 0)
(1.81407 0.129236 0)
(1.80773 0.129779 0)
(1.80075 0.127634 0)
(1.79333 0.122943 0)
(1.78575 0.115855 0)
(1.77827 0.106567 0)
(1.77114 0.0952903 0)
(1.76457 0.0822318 0)
(1.75874 0.0676101 0)
(1.75379 0.0516648 0)
(1.74983 0.034673 0)
(1.74695 0.0169807 0)
(1.74521 -0.000927172 0)
(1.74458 -0.0185881 0)
(1.74502 -0.035616 0)
(1.74644 -0.0516435 0)
(1.74874 -0.0663348 0)
(1.7518 -0.0794004 0)
(1.75546 -0.0906131 0)
(1.75958 -0.0998219 0)
(1.76401 -0.106951 0)
(1.76864 -0.111982 0)
(1.77346 -0.114877 0)
(1.77854 -0.115448 0)
(1.78372 -0.113526 0)
(1.78897 -0.109106 0)
(1.79417 -0.102251 0)
(1.7992 -0.0931099 0)
(1.804 -0.0818833 0)
(1.8085 -0.0688183 0)
(1.81264 -0.0542118 0)
(1.81636 -0.0384177 0)
(1.81956 -0.0218718 0)
(1.82212 -0.00516965 0)
(1.82398 0.0111849 0)
(1.82503 0.0267836 0)
(1.82532 0.0412676 0)
(1.82509 0.0544062 0)
(1.82396 0.0659848 0)
(1.82215 0.0757741 0)
(1.81974 0.0836692 0)
(1.81677 0.0896298 0)
(1.81329 0.093645 0)
(1.80919 0.0956526 0)
(1.80458 0.0955557 0)
(1.79956 0.0934277 0)
(1.79429 0.0893487 0)
(1.78895 0.0834299 0)
(1.78373 0.0758336 0)
(1.77881 0.0667143 0)
(1.7743 0.0563122 0)
(1.77035 0.044631 0)
(1.767 0.032369 0)
(1.76439 0.0181033 0)
(1.76247 0.00679516 0)
(1.76155 -0.0138268 0)
(1.73956 -0.182164 0)
(1.74642 -0.195069 0)
(1.75326 -0.204033 0)
(1.76002 -0.20917 0)
(1.76702 -0.210195 0)
(1.77401 -0.206521 0)
(1.78092 -0.198082 0)
(1.78758 -0.185084 0)
(1.7939 -0.167854 0)
(1.79984 -0.146782 0)
(1.80539 -0.122322 0)
(1.81055 -0.0949941 0)
(1.81528 -0.0654126 0)
(1.81953 -0.0343598 0)
(1.82315 -0.00294975 0)
(1.82597 0.027761 0)
(1.82791 0.0569926 0)
(1.82887 0.0840372 0)
(1.82877 0.108295 0)
(1.82759 0.129303 0)
(1.82534 0.146754 0)
(1.82208 0.160495 0)
(1.81795 0.170511 0)
(1.81302 0.176901 0)
(1.80705 0.179627 0)
(1.8002 0.178513 0)
(1.79262 0.173774 0)
(1.78458 0.165588 0)
(1.77648 0.154219 0)
(1.76865 0.139967 0)
(1.76135 0.12311 0)
(1.75482 0.10392 0)
(1.74926 0.0826914 0)
(1.74481 0.0597615 0)
(1.7416 0.0355449 0)
(1.7397 0.0105902 0)
(1.73912 -0.0143445 0)
(1.7398 -0.0386341 0)
(1.74165 -0.0617205 0)
(1.74452 -0.0830839 0)
(1.74826 -0.102268 0)
(1.75268 -0.118906 0)
(1.75758 -0.132745 0)
(1.76276 -0.143647 0)
(1.76804 -0.151603 0)
(1.77327 -0.156687 0)
(1.77863 -0.158848 0)
(1.78412 -0.157675 0)
(1.78957 -0.152978 0)
(1.79493 -0.144828 0)
(1.80005 -0.133426 0)
(1.80487 -0.119041 0)
(1.80939 -0.101991 0)
(1.81355 -0.0826445 0)
(1.81736 -0.0614247 0)
(1.82078 -0.0388422 0)
(1.82372 -0.0155686 0)
(1.82606 0.0075482 0)
(1.82773 0.0298924 0)
(1.82865 0.0509388 0)
(1.82877 0.0702314 0)
(1.82809 0.0873871 0)
(1.82662 0.102105 0)
(1.82439 0.114194 0)
(1.82149 0.123573 0)
(1.81804 0.130262 0)
(1.81405 0.134313 0)
(1.80934 0.135597 0)
(1.80406 0.133995 0)
(1.79828 0.12963 0)
(1.79225 0.122617 0)
(1.78624 0.113164 0)
(1.78047 0.101506 0)
(1.77513 0.0878766 0)
(1.77038 0.0725258 0)
(1.76636 0.0557241 0)
(1.76317 0.0377783 0)
(1.76089 0.0190648 0)
(1.75958 0.000102673 0)
(1.75924 -0.0185749 0)
(1.75979 -0.0365535 0)
(1.76118 -0.0534428 0)
(1.76331 -0.0688847 0)
(1.76604 -0.0825674 0)
(1.76926 -0.0942498 0)
(1.7728 -0.103783 0)
(1.77654 -0.111113 0)
(1.78034 -0.116265 0)
(1.78414 -0.119285 0)
(1.78813 -0.120025 0)
(1.79219 -0.118191 0)
(1.79625 -0.113742 0)
(1.80023 -0.10676 0)
(1.80402 -0.0974181 0)
(1.80758 -0.0859342 0)
(1.81088 -0.072568 0)
(1.81389 -0.0576199 0)
(1.81658 -0.04143 0)
(1.81893 -0.0244129 0)
(1.82084 -0.00712686 0)
(1.82227 0.00985979 0)
(1.82317 0.0261149 0)
(1.8235 0.0412635 0)
(1.82323 0.055058 0)
(1.82239 0.06725 0)
(1.82105 0.0776012 0)
(1.81923 0.0859993 0)
(1.81702 0.0924117 0)
(1.81452 0.0968521 0)
(1.81168 0.0993444 0)
(1.80834 0.0997365 0)
(1.80461 0.0979493 0)
(1.80057 0.0940469 0)
(1.79641 0.0881348 0)
(1.7923 0.0803827 0)
(1.78838 0.0709691 0)
(1.78478 0.0601406 0)
(1.78162 0.0479421 0)
(1.77893 0.0350965 0)
(1.77684 0.0200933 0)
(1.7753 0.00819054 0)
(1.77467 -0.0134427 0)
(1.75439 -0.188352 0)
(1.75998 -0.201262 0)
(1.76532 -0.210068 0)
(1.77027 -0.215075 0)
(1.7753 -0.216168 0)
(1.7803 -0.212486 0)
(1.78507 -0.203818 0)
(1.78949 -0.190483 0)
(1.79352 -0.172895 0)
(1.79724 -0.151473 0)
(1.80068 -0.126676 0)
(1.80389 -0.0990227 0)
(1.80688 -0.069101 0)
(1.80965 -0.0376448 0)
(1.81211 -0.00568656 0)
(1.81414 0.025669 0)
(1.81565 0.0556461 0)
(1.81656 0.0835228 0)
(1.81678 0.108675 0)
(1.81626 0.130599 0)
(1.81496 0.148941 0)
(1.81293 0.163511 0)
(1.81022 0.174279 0)
(1.80701 0.181353 0)
(1.80321 0.184915 0)
(1.79856 0.184703 0)
(1.79321 0.180619 0)
(1.78732 0.172701 0)
(1.78128 0.161261 0)
(1.77541 0.146665 0)
(1.76992 0.129227 0)
(1.76503 0.109253 0)
(1.76092 0.0870746 0)
(1.75773 0.0630664 0)
(1.75557 0.0376822 0)
(1.75449 0.0115158 0)
(1.7545 -0.0146033 0)
(1.75553 -0.039996 0)
(1.75748 -0.06407 0)
(1.76023 -0.0862772 0)
(1.76363 -0.106137 0)
(1.76751 -0.123265 0)
(1.77168 -0.137392 0)
(1.77596 -0.148398 0)
(1.78017 -0.156307 0)
(1.78412 -0.161292 0)
(1.78799 -0.163473 0)
(1.79197 -0.162379 0)
(1.79583 -0.157598 0)
(1.7995 -0.149231 0)
(1.80288 -0.137557 0)
(1.80596 -0.122883 0)
(1.80878 -0.105532 0)
(1.81137 -0.0858815 0)
(1.81372 -0.0643542 0)
(1.81585 -0.0414372 0)
(1.81772 -0.0177496 0)
(1.81925 0.00586993 0)
(1.82038 0.0287807 0)
(1.82105 0.0504515 0)
(1.82122 0.0704033 0)
(1.82086 0.0882275 0)
(1.81994 0.103604 0)
(1.81849 0.116314 0)
(1.81655 0.126238 0)
(1.81421 0.133367 0)
(1.81162 0.137827 0)
(1.80856 0.139725 0)
(1.80496 0.138745 0)
(1.80087 0.134789 0)
(1.79646 0.127907 0)
(1.79202 0.118357 0)
(1.78771 0.106414 0)
(1.78372 0.0923344 0)
(1.78018 0.0763938 0)
(1.77721 0.0588875 0)
(1.77492 0.0401479 0)
(1.77337 0.0205799 0)
(1.7726 0.0007356 0)
(1.7726 -0.0187886 0)
(1.77333 -0.0375548 0)
(1.77471 -0.0551481 0)
(1.77665 -0.0711889 0)
(1.77906 -0.0853477 0)
(1.7818 -0.097368 0)
(1.78474 -0.107096 0)
(1.78775 -0.114491 0)
(1.7907 -0.119619 0)
(1.79348 -0.122618 0)
(1.79634 -0.123446 0)
(1.79925 -0.12168 0)
(1.80211 -0.11716 0)
(1.80482 -0.110014 0)
(1.80731 -0.100467 0)
(1.80957 -0.0887554 0)
(1.81164 -0.0751378 0)
(1.81349 -0.0599216 0)
(1.81514 -0.0434553 0)
(1.81657 -0.0261368 0)
(1.81774 -0.008492 0)
(1.81863 0.00888399 0)
(1.8192 0.0255774 0)
(1.81941 0.0412208 0)
(1.81925 0.0555053 0)
(1.81872 0.0681541 0)
(1.81784 0.0789265 0)
(1.81663 0.0876746 0)
(1.81515 0.0943502 0)
(1.81348 0.0990048 0)
(1.81171 0.101759 0)
(1.80963 0.102614 0)
(1.80718 0.101242 0)
(1.80441 0.0975675 0)
(1.80147 0.0917048 0)
(1.79853 0.0838577 0)
(1.79571 0.0742376 0)
(1.79311 0.0630786 0)
(1.79083 0.0504873 0)
(1.78891 0.0371926 0)
(1.78746 0.0215864 0)
(1.7864 0.00919893 0)
(1.78616 -0.0132389 0)
(1.76869 -0.193331 0)
(1.77293 -0.206045 0)
(1.77676 -0.214489 0)
(1.77991 -0.219151 0)
(1.78286 -0.220216 0)
(1.78578 -0.216327 0)
(1.78834 -0.207238 0)
(1.79038 -0.193512 0)
(1.79207 -0.175611 0)
(1.79352 -0.153946 0)
(1.79481 -0.128969 0)
(1.79602 -0.101182 0)
(1.79724 -0.0711555 0)
(1.79848 -0.0395808 0)
(1.79974 -0.00741333 0)
(1.80092 0.0242254 0)
(1.80196 0.0545732 0)
(1.80277 0.0829122 0)
(1.80325 0.108605 0)
(1.80332 0.131123 0)
(1.80293 0.150077 0)
(1.80206 0.165232 0)
(1.80076 0.176502 0)
(1.79914 0.183966 0)
(1.79742 0.187919 0)
(1.79501 0.188518 0)
(1.79182 0.185036 0)
(1.78799 0.177467 0)
(1.78406 0.166106 0)
(1.78026 0.15133 0)
(1.77671 0.133486 0)
(1.77362 0.112919 0)
(1.77112 0.0899939 0)
(1.76935 0.065122 0)
(1.76838 0.038798 0)
(1.76825 0.011667 0)
(1.76895 -0.0153746 0)
(1.77038 -0.0416083 0)
(1.77246 -0.0664142 0)
(1.77506 -0.0892247 0)
(1.77806 -0.109539 0)
(1.78132 -0.126955 0)
(1.78468 -0.141204 0)
(1.788 -0.152151 0)
(1.7911 -0.159854 0)
(1.79378 -0.16458 0)
(1.79609 -0.16666 0)
(1.79849 -0.165537 0)
(1.80075 -0.160528 0)
(1.80265 -0.151842 0)
(1.80421 -0.139871 0)
(1.80554 -0.124954 0)
(1.80666 -0.107403 0)
(1.80763 -0.0875795 0)
(1.80849 -0.0658978 0)
(1.8093 -0.0428297 0)
(1.81005 -0.0189599 0)
(1.81072 0.00489525 0)
(1.81128 0.0280899 0)
(1.81166 0.0500945 0)
(1.81183 0.0704258 0)
(1.81173 0.0886669 0)
(1.81133 0.104469 0)
(1.81062 0.117577 0)
(1.80962 0.127858 0)
(1.80837 0.135291 0)
(1.80702 0.139973 0)
(1.80557 0.142157 0)
(1.80363 0.1417 0)
(1.80113 0.138115 0)
(1.79829 0.131435 0)
(1.79545 0.1219 0)
(1.79271 0.109796 0)
(1.79017 0.0954074 0)
(1.78796 0.079031 0)
(1.78617 0.0609855 0)
(1.78489 0.0416289 0)
(1.78417 0.0213945 0)
(1.78404 0.000867502 0)
(1.78447 -0.019301 0)
(1.78541 -0.0386533 0)
(1.78679 -0.0567638 0)
(1.78854 -0.0732337 0)
(1.79057 -0.087714 0)
(1.79278 -0.0999326 0)
(1.79507 -0.109735 0)
(1.79733 -0.117087 0)
(1.79943 -0.12208 0)
(1.80121 -0.124931 0)
(1.80287 -0.125781 0)
(1.80461 -0.123992 0)
(1.80625 -0.119313 0)
(1.80765 -0.111942 0)
(1.80882 -0.102171 0)
(1.80981 -0.0902658 0)
(1.81064 -0.0764829 0)
(1.81132 -0.0611136 0)
(1.81189 -0.0444948 0)
(1.81237 -0.0270148 0)
(1.81277 -0.00918417 0)
(1.81307 0.00839303 0)
(1.81326 0.0253149 0)
(1.81332 0.0412127 0)
(1.81323 0.0557601 0)
(1.81297 0.0686671 0)
(1.81254 0.079696 0)
(1.81194 0.0886886 0)
(1.81119 0.0955742 0)
(1.81034 0.100365 0)
(1.80952 0.103181 0)
(1.80861 0.104216 0)
(1.80735 0.10318 0)
(1.80574 0.0997418 0)
(1.80402 0.0939971 0)
(1.8023 0.0861411 0)
(1.80065 0.0764065 0)
(1.79912 0.0650169 0)
(1.79783 0.0521356 0)
(1.79676 0.038508 0)
(1.79607 0.022457 0)
(1.79556 0.00971374 0)
(1.79582 -0.0132988 0)
(1.78214 -0.19693 0)
(1.78481 -0.209283 0)
(1.78705 -0.217134 0)
(1.78866 -0.221013 0)
(1.78969 -0.221788 0)
(1.79037 -0.218184 0)
(1.79046 -0.208402 0)
(1.79013 -0.194219 0)
(1.78936 -0.176009 0)
(1.78843 -0.154179 0)
(1.78752 -0.129165 0)
(1.78675 -0.10144 0)
(1.7862 -0.071544 0)
(1.78596 -0.0401321 0)
(1.78603 -0.00810508 0)
(1.78639 0.0234562 0)
(1.78695 0.0538098 0)
(1.78764 0.0822484 0)
(1.78836 0.108134 0)
(1.78901 0.130924 0)
(1.78953 0.150198 0)
(1.78987 0.165672 0)
(1.79003 0.177222 0)
(1.79 0.184907 0)
(1.78988 0.18898 0)
(1.78947 0.190006 0)
(1.7884 0.187941 0)
(1.78675 0.180382 0)
(1.78502 0.168975 0)
(1.78335 0.154031 0)
(1.78184 0.135876 0)
(1.78064 0.114858 0)
(1.77986 0.0913598 0)
(1.77961 0.0658257 0)
(1.77994 0.0387904 0)
(1.78086 0.0109568 0)
(1.78231 -0.016719 0)
(1.7842 -0.0434965 0)
(1.78641 -0.0687383 0)
(1.78884 -0.0918723 0)
(1.79137 -0.112391 0)
(1.79388 -0.129881 0)
(1.79627 -0.144053 0)
(1.79846 -0.154783 0)
(1.80038 -0.162122 0)
(1.80185 -0.166334 0)
(1.80286 -0.167913 0)
(1.80365 -0.167142 0)
(1.80407 -0.161756 0)
(1.80414 -0.152705 0)
(1.80395 -0.140456 0)
(1.8034 -0.125308 0)
(1.80273 -0.107602 0)
(1.80204 -0.0877039 0)
(1.8014 -0.0660137 0)
(1.80089 -0.0429848 0)
(1.80056 -0.01917 0)
(1.8004 0.00465027 0)
(1.8004 0.0278474 0)
(1.8005 0.0499063 0)
(1.80067 0.0703432 0)
(1.80083 0.0887316 0)
(1.80096 0.104709 0)
(1.80101 0.118028 0)
(1.80097 0.128492 0)
(1.80084 0.136022 0)
(1.80067 0.140733 0)
(1.80049 0.142926 0)
(1.80003 0.143178 0)
(1.79911 0.14026 0)
(1.79791 0.133522 0)
(1.79672 0.123941 0)
(1.79559 0.111707 0)
(1.79457 0.0970965 0)
(1.79375 0.080407 0)
(1.79322 0.0619677 0)
(1.79304 0.0421575 0)
(1.79323 0.0214413 0)
(1.79381 0.000448287 0)
(1.79471 -0.0201479 0)
(1.7959 -0.0398709 0)
(1.79729 -0.0582782 0)
(1.79881 -0.074966 0)
(1.8004 -0.0895857 0)
(1.80199 -0.101866 0)
(1.80351 -0.111635 0)
(1.80492 -0.118837 0)
(1.80612 -0.123557 0)
(1.80702 -0.126031 0)
(1.80762 -0.126635 0)
(1.80815 -0.12516 0)
(1.80845 -0.12018 0)
(1.80851 -0.112598 0)
(1.8084 -0.102641 0)
(1.80804 -0.0905588 0)
(1.80755 -0.0766341 0)
(1.80703 -0.0611709 0)
(1.80651 -0.0445027 0)
(1.80606 -0.0270102 0)
(1.8057 -0.00918731 0)
(1.80544 0.00839498 0)
(1.80529 0.025328 0)
(1.80521 0.0412592 0)
(1.80519 0.0558632 0)
(1.80521 0.068845 0)
(1.80525 0.0799578 0)
(1.80528 0.0890227 0)
(1.80531 0.0959461 0)
(1.80532 0.100737 0)
(1.80532 0.103524 0)
(1.80529 0.104577 0)
(1.80506 0.104256 0)
(1.80461 0.100891 0)
(1.80418 0.0951044 0)
(1.80368 0.0872148 0)
(1.80327 0.0774089 0)
(1.80291 0.0658984 0)
(1.80264 0.0528497 0)
(1.80249 0.0390055 0)
(1.80262 0.0226696 0)
(1.80271 0.00969493 0)
(1.80354 -0.0136549 0)
(1.79981 0.10438 0)
(1.80055 0.103927 0)
(1.80136 0.100679 0)
(1.80213 0.0949532 0)
(1.80282 0.0870572 0)
(1.80353 0.0772118 0)
(1.80429 0.0656393 0)
(1.80511 0.052512 0)
(1.80595 0.0385662 0)
(1.80697 0.0221123 0)
(1.80773 0.00903824 0)
(1.80922 -0.0143731 0)
(0.100648 -0.000537447 0)
(0.102027 -0.000534625 0)
(0.103392 -0.000519837 0)
(0.104717 -0.0004944 0)
(0.105981 -0.000460904 0)
(0.10717 -0.000422308 0)
(0.108274 -0.000381279 0)
(0.109291 -0.000340046 0)
(0.11022 -0.000300338 0)
(0.111068 -0.000263531 0)
(0.111839 -0.000230659 0)
(0.112545 -0.000202417 0)
(0.113193 -0.000179077 0)
(0.113796 -0.000160506 0)
(0.114361 -0.000146155 0)
(0.114898 -0.000135159 0)
(0.115411 -0.000126447 0)
(0.115905 -0.00011886 0)
(0.116381 -0.000111277 0)
(0.116837 -0.000102856 0)
(0.11727 -9.31408e-05 0)
(0.117676 -8.18447e-05 0)
(0.118052 -6.88191e-05 0)
(0.118394 -5.47822e-05 0)
(0.118699 -4.07608e-05 0)
(0.118968 -2.79154e-05 0)
(0.119205 -1.74533e-05 0)
(0.119416 -1.04848e-05 0)
(0.119609 -8.09804e-06 0)
(0.119795 -1.11958e-05 0)
(0.119984 -2.02709e-05 0)
(0.120191 -3.50832e-05 0)
(0.120427 -5.4791e-05 0)
(0.120702 -7.81342e-05 0)
(0.121024 -0.000103531 0)
(0.121397 -0.000129193 0)
(0.12182 -0.000153182 0)
(0.12229 -0.000173765 0)
(0.122798 -0.000189522 0)
(0.123333 -0.000199674 0)
(0.123883 -0.000204048 0)
(0.124437 -0.000202742 0)
(0.124983 -0.000195922 0)
(0.12551 -0.000183867 0)
(0.126008 -0.000166867 0)
(0.126466 -0.000145287 0)
(0.126877 -0.000119671 0)
(0.127231 -9.082e-05 0)
(0.127525 -5.98623e-05 0)
(0.127755 -2.81763e-05 0)
(0.127921 3.08412e-06 0)
(0.128026 3.28184e-05 0)
(0.128075 6.03941e-05 0)
(0.128075 8.68376e-05 0)
(0.128035 0.000107354 0)
(0.127961 0.000122957 0)
(0.127863 0.000134306 0)
(0.127748 0.000142051 0)
(0.127623 0.000147064 0)
(0.127494 0.000149879 0)
(0.127366 0.000150995 0)
(0.127242 0.000150834 0)
(0.127124 0.00014975 0)
(0.127015 0.000147827 0)
(0.126917 0.000145028 0)
(0.12683 0.000141172 0)
(0.126758 0.000135933 0)
(0.126703 0.000128997 0)
(0.12667 0.000119471 0)
(0.126662 0.00010462 0)
(0.126682 8.49312e-05 0)
(0.126736 6.30843e-05 0)
(0.126831 3.8571e-05 0)
(0.126972 1.15418e-05 0)
(0.127167 -1.7682e-05 0)
(0.127419 -4.87267e-05 0)
(0.127733 -8.10254e-05 0)
(0.128111 -0.00011364 0)
(0.128554 -0.000145733 0)
(0.129061 -0.000176465 0)
(0.129627 -0.000205036 0)
(0.130248 -0.000230724 0)
(0.130918 -0.000252867 0)
(0.131629 -0.000270882 0)
(0.132371 -0.000284283 0)
(0.133133 -0.000292745 0)
(0.133906 -0.000296045 0)
(0.134678 -0.000294223 0)
(0.135437 -0.000287627 0)
(0.136174 -0.00027679 0)
(0.136881 -0.000262353 0)
(0.137549 -0.000245051 0)
(0.138174 -0.000225661 0)
(0.138751 -0.000204988 0)
(0.139279 -0.000183752 0)
(0.139757 -0.00016254 0)
(0.140185 -0.000141763 0)
(0.140564 -0.000121704 0)
(0.140897 -0.000102528 0)
(0.141186 -8.43217e-05 0)
(0.141432 -6.70774e-05 0)
(0.141638 -5.07616e-05 0)
(0.141806 -3.53414e-05 0)
(0.141939 -2.10759e-05 0)
(0.142038 -7.79865e-06 0)
(0.142105 4.66102e-06 0)
(0.142141 1.63158e-05 0)
(0.142151 2.72811e-05 0)
(0.142136 3.6986e-05 0)
(0.1421 4.41565e-05 0)
(0.142048 4.92946e-05 0)
(0.141984 5.19814e-05 0)
(0.141914 5.17175e-05 0)
(0.141845 4.8679e-05 0)
(0.141784 4.28104e-05 0)
(0.141738 3.40444e-05 0)
(0.141713 2.20245e-05 0)
(0.141715 5.66013e-06 0)
(0.141746 -1.03216e-05 0)
(0.141814 -2.83159e-05 0)
(0.141909 -3.58011e-05 0)
(0.142097 -5.42932e-05 0)
(0.326407 -0.00227005 0)
(0.32836 -0.00225953 0)
(0.330289 -0.00221031 0)
(0.33217 -0.00212631 0)
(0.333978 -0.00201618 0)
(0.335698 -0.0018898 0)
(0.337323 -0.00175574 0)
(0.33885 -0.00162113 0)
(0.34028 -0.00149149 0)
(0.34162 -0.00137109 0)
(0.342876 -0.00126315 0)
(0.344059 -0.00116978 0)
(0.345179 -0.00109175 0)
(0.346247 -0.00102856 0)
(0.347273 -0.000978527 0)
(0.348265 -0.000938793 0)
(0.34923 -0.000905791 0)
(0.35017 -0.000875801 0)
(0.351086 -0.000845198 0)
(0.351975 -0.000811272 0)
(0.352834 -0.000772508 0)
(0.353658 -0.00072752 0)
(0.354442 -0.000674804 0)
(0.355181 -0.000617562 0)
(0.355873 -0.00055991 0)
(0.356517 -0.000505656 0)
(0.357119 -0.000458811 0)
(0.357683 -0.000422982 0)
(0.358219 -0.000401701 0)
(0.358738 -0.000397636 0)
(0.359252 -0.000412328 0)
(0.359776 -0.000445409 0)
(0.360323 -0.000494795 0)
(0.360903 -0.000556995 0)
(0.361525 -0.000627163 0)
(0.362192 -0.000699562 0)
(0.362905 -0.000767698 0)
(0.363658 -0.000825707 0)
(0.364442 -0.000868751 0)
(0.365246 -0.000894311 0)
(0.366058 -0.000902166 0)
(0.366864 -0.000893107 0)
(0.367655 -0.000868038 0)
(0.36842 -0.000827731 0)
(0.36915 -0.000772993 0)
(0.369837 -0.000705097 0)
(0.370471 -0.000625879 0)
(0.371048 -0.000537647 0)
(0.371562 -0.000443866 0)
(0.372012 -0.000349322 0)
(0.372401 -0.00025844 0)
(0.372733 -0.00017434 0)
(0.373016 -9.87905e-05 0)
(0.373255 -3.27059e-05 0)
(0.373461 1.99004e-05 0)
(0.373644 5.85177e-05 0)
(0.373816 8.43813e-05 0)
(0.373985 9.89484e-05 0)
(0.374158 0.000104001 0)
(0.374341 0.000101337 0)
(0.374539 9.28124e-05 0)
(0.374755 8.00194e-05 0)
(0.374991 6.41742e-05 0)
(0.375249 4.60956e-05 0)
(0.375528 2.60224e-05 0)
(0.375831 3.62182e-06 0)
(0.376157 -2.19139e-05 0)
(0.376511 -5.16474e-05 0)
(0.376892 -8.68014e-05 0)
(0.377305 -0.000130504 0)
(0.377756 -0.000184304 0)
(0.378249 -0.000246749 0)
(0.378789 -0.000317541 0)
(0.379381 -0.000396388 0)
(0.380029 -0.000482446 0)
(0.380739 -0.000574213 0)
(0.381511 -0.000669611 0)
(0.382349 -0.000766122 0)
(0.38325 -0.00086097 0)
(0.384211 -0.000951352 0)
(0.385229 -0.00103463 0)
(0.386296 -0.00110842 0)
(0.387404 -0.00117055 0)
(0.388544 -0.00121907 0)
(0.389705 -0.00125237 0)
(0.390875 -0.00126932 0)
(0.392041 -0.00126923 0)
(0.393191 -0.00125226 0)
(0.394314 -0.00121954 0)
(0.395398 -0.00117285 0)
(0.396434 -0.0011144 0)
(0.397414 -0.00104664 0)
(0.398334 -0.000972207 0)
(0.399188 -0.000893757 0)
(0.399977 -0.000813664 0)
(0.400699 -0.000733843 0)
(0.401356 -0.000655684 0)
(0.401949 -0.00058017 0)
(0.402482 -0.000507912 0)
(0.402957 -0.000439276 0)
(0.403378 -0.000374361 0)
(0.403746 -0.000313138 0)
(0.404065 -0.000255464 0)
(0.404338 -0.00020124 0)
(0.404567 -0.000150279 0)
(0.404755 -0.000102559 0)
(0.404904 -5.80925e-05 0)
(0.405018 -1.76207e-05 0)
(0.4051 1.58661e-05 0)
(0.405154 4.43748e-05 0)
(0.405186 6.61561e-05 0)
(0.405202 7.90534e-05 0)
(0.405208 8.32779e-05 0)
(0.405212 7.72328e-05 0)
(0.405221 5.97428e-05 0)
(0.405242 3.27505e-05 0)
(0.405283 -3.53756e-06 0)
(0.405351 -4.96908e-05 0)
(0.405448 -0.00010005 0)
(0.405596 -0.000157565 0)
(0.405726 -0.000213276 0)
(0.406082 -0.000283011 0)
(0.576186 -0.0043374 0)
(0.578053 -0.00432742 0)
(0.579901 -0.00424806 0)
(0.581697 -0.00410503 0)
(0.583415 -0.00391553 0)
(0.585039 -0.00369776 0)
(0.58656 -0.00346653 0)
(0.587978 -0.00323405 0)
(0.589296 -0.00300955 0)
(0.590518 -0.00280012 0)
(0.591653 -0.00261152 0)
(0.592712 -0.0024477 0)
(0.593707 -0.00231031 0)
(0.59465 -0.00219858 0)
(0.595552 -0.00210958 0)
(0.596422 -0.00203848 0)
(0.597268 -0.00197923 0)
(0.598092 -0.00192508 0)
(0.598894 -0.00186857 0)
(0.599672 -0.00180343 0)
(0.600422 -0.00172649 0)
(0.60114 -0.00163866 0)
(0.601817 -0.00154127 0)
(0.602445 -0.00143611 0)
(0.603022 -0.00132836 0)
(0.60355 -0.00122561 0)
(0.604032 -0.00113506 0)
(0.604475 -0.00106159 0)
(0.604889 -0.00101138 0)
(0.605285 -0.000991448 0)
(0.605677 -0.00100543 0)
(0.606082 -0.00105258 0)
(0.606517 -0.00112946 0)
(0.606996 -0.00122984 0)
(0.607529 -0.00134534 0)
(0.608122 -0.0014659 0)
(0.608777 -0.00158045 0)
(0.609488 -0.0016781 0)
(0.610245 -0.00175019 0)
(0.611033 -0.00179218 0)
(0.611839 -0.00180411 0)
(0.612648 -0.00178784 0)
(0.613449 -0.00174518 0)
(0.614232 -0.00167759 0)
(0.614988 -0.00158639 0)
(0.615706 -0.00147307 0)
(0.616378 -0.0013402 0)
(0.616994 -0.00119245 0)
(0.617551 -0.00103624 0)
(0.618045 -0.000878957 0)
(0.618479 -0.000727967 0)
(0.618857 -0.00059 0)
(0.619186 -0.000469487 0)
(0.619473 -0.000369549 0)
(0.61973 -0.000291727 0)
(0.619968 -0.000238606 0)
(0.620196 -0.00020928 0)
(0.620425 -0.000200893 0)
(0.620663 -0.00020911 0)
(0.620915 -0.000230151 0)
(0.621187 -0.000260497 0)
(0.621482 -0.000296723 0)
(0.621798 -0.000336419 0)
(0.622137 -0.000378588 0)
(0.622498 -0.000423644 0)
(0.622882 -0.000472738 0)
(0.623288 -0.000527169 0)
(0.62372 -0.000588205 0)
(0.624178 -0.000657166 0)
(0.624667 -0.000735271 0)
(0.62519 -0.000824369 0)
(0.625753 -0.000927027 0)
(0.626361 -0.00104402 0)
(0.627021 -0.00117489 0)
(0.627739 -0.00131811 0)
(0.628518 -0.00147104 0)
(0.629362 -0.00162998 0)
(0.630274 -0.00179041 0)
(0.631252 -0.00194738 0)
(0.632293 -0.00209592 0)
(0.633392 -0.00223144 0)
(0.634542 -0.00234983 0)
(0.635735 -0.00244742 0)
(0.636961 -0.00252082 0)
(0.638208 -0.00256716 0)
(0.639463 -0.00258444 0)
(0.640713 -0.00257166 0)
(0.641944 -0.00252919 0)
(0.643142 -0.00245896 0)
(0.644297 -0.00236421 0)
(0.645398 -0.00224888 0)
(0.646437 -0.00211733 0)
(0.647408 -0.00197427 0)
(0.648308 -0.00182453 0)
(0.649136 -0.00167247 0)
(0.649891 -0.00152159 0)
(0.650576 -0.0013743 0)
(0.651193 -0.0012322 0)
(0.651746 -0.00109627 0)
(0.652238 -0.000966932 0)
(0.652673 -0.000844288 0)
(0.653053 -0.000728287 0)
(0.653383 -0.000618519 0)
(0.653665 -0.000514452 0)
(0.653901 -0.000416203 0)
(0.654094 -0.000324413 0)
(0.654248 -0.000239716 0)
(0.654363 -0.000162732 0)
(0.654442 -9.46037e-05 0)
(0.654491 -3.6377e-05 0)
(0.654513 8.99955e-06 0)
(0.654515 3.88272e-05 0)
(0.654507 5.17261e-05 0)
(0.654493 4.74068e-05 0)
(0.654482 2.34184e-05 0)
(0.654482 -1.85184e-05 0)
(0.654501 -7.63703e-05 0)
(0.654549 -0.000147562 0)
(0.654622 -0.000229401 0)
(0.654761 -0.000325366 0)
(0.654859 -0.000418306 0)
(0.655218 -0.000553407 0)
(0.842771 -0.00608 0)
(0.84424 -0.00606103 0)
(0.845697 -0.00593896 0)
(0.847097 -0.00571397 0)
(0.848407 -0.0054187 0)
(0.849609 -0.00508467 0)
(0.850696 -0.00473376 0)
(0.85167 -0.00438447 0)
(0.852535 -0.00405029 0)
(0.853296 -0.00374159 0)
(0.853964 -0.00346697 0)
(0.85455 -0.0032319 0)
(0.85507 -0.00303776 0)
(0.855537 -0.0028824 0)
(0.855966 -0.00276188 0)
(0.856368 -0.00266743 0)
(0.856753 -0.00258811 0)
(0.857126 -0.00251407 0)
(0.857489 -0.00243669 0)
(0.857839 -0.00235109 0)
(0.858166 -0.0022581 0)
(0.858462 -0.00215163 0)
(0.858718 -0.00200701 0)
(0.858927 -0.00184923 0)
(0.859087 -0.0016913 0)
(0.859196 -0.00153969 0)
(0.859259 -0.00140461 0)
(0.859282 -0.00129745 0)
(0.859274 -0.00122989 0)
(0.859251 -0.00120425 0)
(0.859226 -0.00122766 0)
(0.859222 -0.00130359 0)
(0.85926 -0.00142694 0)
(0.859358 -0.00158878 0)
(0.85953 -0.00177576 0)
(0.859786 -0.0019733 0)
(0.860128 -0.0021612 0)
(0.860553 -0.00232626 0)
(0.861048 -0.00244986 0)
(0.861591 -0.00252312 0)
(0.862165 -0.00254862 0)
(0.862755 -0.00253112 0)
(0.863348 -0.0024748 0)
(0.863932 -0.00238318 0)
(0.864499 -0.00225839 0)
(0.865034 -0.00210186 0)
(0.865527 -0.00191651 0)
(0.865964 -0.00170892 0)
(0.866339 -0.00148889 0)
(0.866645 -0.00126823 0)
(0.866885 -0.00105856 0)
(0.867062 -0.000868388 0)
(0.867182 -0.00070312 0)
(0.867256 -0.000567464 0)
(0.867295 -0.000464957 0)
(0.867315 -0.000398011 0)
(0.867326 -0.000364833 0)
(0.867334 -0.000359577 0)
(0.867351 -0.000379844 0)
(0.867384 -0.000419919 0)
(0.867437 -0.000472889 0)
(0.867513 -0.000533816 0)
(0.86761 -0.000599223 0)
(0.867726 -0.000667097 0)
(0.86786 -0.000736935 0)
(0.868013 -0.000809647 0)
(0.868184 -0.000887305 0)
(0.868377 -0.000972882 0)
(0.868593 -0.00106937 0)
(0.868836 -0.00117931 0)
(0.869111 -0.00130538 0)
(0.869425 -0.00145008 0)
(0.869785 -0.00161482 0)
(0.870198 -0.00179947 0)
(0.870674 -0.00200218 0)
(0.871218 -0.0022193 0)
(0.871836 -0.00244554 0)
(0.872532 -0.00267425 0)
(0.873305 -0.00289787 0)
(0.874153 -0.00310893 0)
(0.87507 -0.00330083 0)
(0.876049 -0.00346806 0)
(0.87708 -0.00360563 0)
(0.878154 -0.00370864 0)
(0.879257 -0.00377255 0)
(0.880375 -0.00379385 0)
(0.881491 -0.00377086 0)
(0.88259 -0.00370394 0)
(0.883656 -0.00359589 0)
(0.884675 -0.00345165 0)
(0.885637 -0.00327722 0)
(0.886532 -0.0030791 0)
(0.887355 -0.00286445 0)
(0.8881 -0.00264068 0)
(0.888767 -0.00241438 0)
(0.889358 -0.00219056 0)
(0.889874 -0.00197286 0)
(0.890321 -0.00176376 0)
(0.890702 -0.00156509 0)
(0.891023 -0.00137776 0)
(0.891288 -0.00120144 0)
(0.891501 -0.00103539 0)
(0.891667 -0.000879075 0)
(0.891788 -0.000732051 0)
(0.891868 -0.000593541 0)
(0.89191 -0.00046249 0)
(0.891916 -0.000338205 0)
(0.891887 -0.00022236 0)
(0.891826 -0.00011916 0)
(0.891735 -3.16641e-05 0)
(0.89162 3.67611e-05 0)
(0.891488 7.92982e-05 0)
(0.891346 9.86107e-05 0)
(0.891204 9.63254e-05 0)
(0.891071 6.64442e-05 0)
(0.890956 7.06088e-06 0)
(0.890868 -7.55845e-05 0)
(0.890816 -0.00017918 0)
(0.890796 -0.000298096 0)
(0.890847 -0.000437035 0)
(0.890875 -0.000567525 0)
(0.891135 -0.00077072 0)
(1.10159 -0.00717109 0)
(1.10262 -0.00718591 0)
(1.10367 -0.00703937 0)
(1.10466 -0.00675307 0)
(1.10554 -0.00637794 0)
(1.10629 -0.005955 0)
(1.10691 -0.00551339 0)
(1.10739 -0.00507792 0)
(1.10775 -0.00465732 0)
(1.10798 -0.00426039 0)
(1.10811 -0.00389996 0)
(1.10814 -0.00358627 0)
(1.10809 -0.00332438 0)
(1.10799 -0.00311549 0)
(1.10784 -0.00295653 0)
(1.10767 -0.00283874 0)
(1.10748 -0.0027507 0)
(1.1073 -0.00268054 0)
(1.10711 -0.00260617 0)
(1.10691 -0.002507 0)
(1.1067 -0.00237005 0)
(1.10645 -0.0022068 0)
(1.10617 -0.00201948 0)
(1.10585 -0.00181402 0)
(1.10549 -0.0016003 0)
(1.10506 -0.00139587 0)
(1.10459 -0.00122531 0)
(1.10408 -0.00108168 0)
(1.10353 -0.000978589 0)
(1.10299 -0.000937115 0)
(1.10246 -0.00096817 0)
(1.10198 -0.0010741 0)
(1.10157 -0.00124837 0)
(1.10125 -0.00147879 0)
(1.10104 -0.0017496 0)
(1.10096 -0.00203984 0)
(1.10102 -0.00232207 0)
(1.10121 -0.00256652 0)
(1.10151 -0.00275277 0)
(1.10189 -0.00287166 0)
(1.10232 -0.00293271 0)
(1.10277 -0.00294536 0)
(1.10322 -0.00290992 0)
(1.10367 -0.00282597 0)
(1.10409 -0.00269377 0)
(1.10448 -0.00251309 0)
(1.10481 -0.00228687 0)
(1.10507 -0.00202489 0)
(1.10525 -0.00174142 0)
(1.10534 -0.0014516 0)
(1.10533 -0.00117011 0)
(1.10523 -0.000910458 0)
(1.10505 -0.000683873 0)
(1.10481 -0.000498932 0)
(1.10452 -0.000364002 0)
(1.10419 -0.000282198 0)
(1.10384 -0.00023933 0)
(1.10348 -0.000236028 0)
(1.10313 -0.00026631 0)
(1.10278 -0.000321409 0)
(1.10245 -0.000391928 0)
(1.10214 -0.000468006 0)
(1.10184 -0.000544674 0)
(1.10157 -0.000619371 0)
(1.1013 -0.000694565 0)
(1.10105 -0.000775338 0)
(1.10082 -0.000866354 0)
(1.1006 -0.000969663 0)
(1.10039 -0.00108456 0)
(1.1002 -0.00121815 0)
(1.10004 -0.00137687 0)
(1.09991 -0.00156427 0)
(1.09983 -0.00178184 0)
(1.09981 -0.00202961 0)
(1.09985 -0.00230523 0)
(1.09997 -0.00260374 0)
(1.10018 -0.00291727 0)
(1.10049 -0.00323598 0)
(1.10089 -0.0035493 0)
(1.10138 -0.00384679 0)
(1.10197 -0.00411848 0)
(1.10263 -0.00435647 0)
(1.10337 -0.00455347 0)
(1.10417 -0.00470192 0)
(1.10502 -0.00479495 0)
(1.10589 -0.00482721 0)
(1.10678 -0.00479598 0)
(1.10766 -0.00470266 0)
(1.10851 -0.00455251 0)
(1.10931 -0.00435326 0)
(1.11005 -0.0041133 0)
(1.11071 -0.00384131 0)
(1.1113 -0.00354691 0)
(1.1118 -0.003241 0)
(1.11221 -0.00293351 0)
(1.11254 -0.00263227 0)
(1.11279 -0.00234235 0)
(1.11296 -0.00206625 0)
(1.11306 -0.00180484 0)
(1.1131 -0.00155831 0)
(1.11309 -0.00132644 0)
(1.11303 -0.00110925 0)
(1.11292 -0.000906619 0)
(1.11277 -0.000716267 0)
(1.11258 -0.000537148 0)
(1.11236 -0.000370085 0)
(1.1121 -0.000215117 0)
(1.11181 -7.20284e-05 0)
(1.1115 5.8932e-05 0)
(1.11115 0.000171639 0)
(1.11079 0.00025943 0)
(1.11041 0.0003172 0)
(1.11004 0.000340857 0)
(1.10967 0.000327917 0)
(1.10932 0.000277955 0)
(1.109 0.00019236 0)
(1.10873 7.36975e-05 0)
(1.10851 -7.26288e-05 0)
(1.10834 -0.000238467 0)
(1.10826 -0.000437809 0)
(1.10818 -0.000614555 0)
(1.10831 -0.000903184 0)
(1.32291 -0.00822167 0)
(1.3235 -0.00828138 0)
(1.32411 -0.00816899 0)
(1.32463 -0.00774051 0)
(1.32499 -0.00719059 0)
(1.3252 -0.00657881 0)
(1.32525 -0.00592342 0)
(1.32518 -0.0052652 0)
(1.32501 -0.00464064 0)
(1.32474 -0.00407213 0)