/*--------------------------------*- C++ -*----------------------------------*\
| =========                 |                                                 |
| \\      /  F ield         | OpenFOAM: The Open Source CFD Toolbox           |
|  \\    /   O peration     | Version:  2206                                  |
|   \\  /    A nd           | Website:  www.openfoam.com                      |
|    \\/     M anipulation  |                                                 |
\*---------------------------------------------------------------------------*/
FoamFile
{
    version     2.0;
    format      ascii;
    arch        "LSB;label=32;scalar=64";
    class       surfaceScalarField;
    location    "18.3999";
    object      phi;
}
// * * * * * * * * * * * * * * * * * * * * * * * * * * * * * * * * * * * * * //

dimensions      [0 3 -1 0 0 0 0];

oriented        oriented;

internalField   nonuniform List<scalar> 
9419
(
1.08731e-05
-2.38129e-06
2.58475e-06
1.06811e-05
-2.31521e-06
2.5072e-06
1.05109e-05
-2.21258e-06
2.38285e-06
1.03712e-05
-2.05823e-06
2.19792e-06
1.02683e-05
-1.84231e-06
1.94516e-06
1.02053e-05
-1.56239e-06
1.6254e-06
1.01806e-05
-1.22342e-06
1.24814e-06
1.01917e-05
-8.38551e-07
8.27424e-07
1.02346e-05
-4.2268e-07
3.79747e-07
1.03023e-05
6.63085e-09
-7.43189e-08
1.03891e-05
4.29126e-07
-5.15936e-07
1.04898e-05
8.3333e-07
-9.34032e-07
1.05992e-05
1.21109e-06
-1.32041e-06
1.07122e-05
1.55671e-06
-1.66971e-06
1.08245e-05
1.86733e-06
-1.97961e-06
1.09322e-05
2.14214e-06
-2.24991e-06
1.10327e-05
2.38238e-06
-2.48287e-06
1.11242e-05
2.5901e-06
-2.68152e-06
1.12059e-05
2.76761e-06
-2.84938e-06
1.12783e-05
2.91693e-06
-2.9893e-06
1.1342e-05
3.03911e-06
-3.10278e-06
1.13979e-05
3.13469e-06
-3.19058e-06
1.14469e-05
3.20359e-06
-3.25265e-06
1.14912e-05
3.24478e-06
-3.28911e-06
1.15353e-05
3.25197e-06
-3.29604e-06
1.15823e-05
3.21253e-06
-3.25951e-06
1.16303e-05
3.11776e-06
-3.16575e-06
1.16807e-05
2.96357e-06
-3.01396e-06
1.1734e-05
2.74758e-06
-2.8009e-06
1.179e-05
2.46978e-06
-2.52583e-06
1.1848e-05
2.13343e-06
-2.19144e-06
1.19068e-05
1.74537e-06
-1.80415e-06
1.19648e-05
1.31608e-06
-1.37407e-06
1.202e-05
8.59974e-07
-9.15199e-07
1.20692e-05
3.9722e-07
-4.46381e-07
1.21101e-05
-5.37417e-08
1.28079e-08
1.21408e-05
-4.8011e-07
4.49404e-07
1.21597e-05
-8.71451e-07
8.52605e-07
1.21656e-05
-1.22022e-06
1.21435e-06
1.21579e-05
-1.52189e-06
1.52955e-06
1.21367e-05
-1.77483e-06
1.796e-06
1.21025e-05
-1.97988e-06
2.01416e-06
1.20557e-05
-2.13985e-06
2.18661e-06
1.19971e-05
-2.25882e-06
2.31741e-06
1.1927e-05
-2.34118e-06
2.41132e-06
1.18451e-05
-2.3908e-06
2.47268e-06
1.17518e-05
-2.41203e-06
2.50533e-06
1.16486e-05
-2.41133e-06
2.51455e-06
1.1537e-05
-2.39479e-06
2.50638e-06
1.14188e-05
-2.3666e-06
2.48477e-06
1.12963e-05
-2.32868e-06
2.45124e-06
1.1172e-05
-2.28051e-06
2.40479e-06
1.10491e-05
-2.21932e-06
2.34223e-06
1.09309e-05
-2.14068e-06
2.25889e-06
1.08206e-05
-2.03943e-06
2.14969e-06
1.07212e-05
-1.91072e-06
2.01013e-06
1.0635e-05
-1.75102e-06
1.83724e-06
1.05636e-05
-1.55873e-06
1.63012e-06
1.05079e-05
-1.33454e-06
1.3902e-06
1.04683e-05
-1.08139e-06
1.12101e-06
1.04444e-05
-8.03955e-07
8.27836e-07
1.0435e-05
-5.07873e-07
5.1725e-07
1.04385e-05
-2.00273e-07
1.96764e-07
1.04537e-05
1.09988e-07
-1.25141e-07
1.04792e-05
4.15919e-07
-4.4144e-07
1.05129e-05
7.12667e-07
-7.46316e-07
1.05528e-05
9.95532e-07
-1.03549e-06
1.05974e-05
1.26082e-06
-1.30543e-06
1.0645e-05
1.50531e-06
-1.55289e-06
1.06942e-05
1.72657e-06
-1.77575e-06
1.07438e-05
1.92269e-06
-1.9723e-06
1.07929e-05
2.09238e-06
-2.14147e-06
1.08405e-05
2.2345e-06
-2.28215e-06
1.08861e-05
2.34858e-06
-2.39411e-06
1.09291e-05
2.43462e-06
-2.47767e-06
1.09696e-05
2.49289e-06
-2.53336e-06
1.10085e-05
2.52346e-06
-2.56236e-06
1.10477e-05
2.52151e-06
-2.56069e-06
1.10865e-05
2.48072e-06
-2.51951e-06
1.11242e-05
2.39952e-06
-2.43726e-06
1.11609e-05
2.27804e-06
-2.31474e-06
1.11966e-05
2.11724e-06
-2.15296e-06
1.12313e-05
1.91897e-06
-1.95366e-06
1.12648e-05
1.68614e-06
-1.71959e-06
1.12966e-05
1.42278e-06
-1.45465e-06
1.13265e-05
1.13411e-06
-1.164e-06
1.13539e-05
8.26617e-07
-8.53988e-07
1.1378e-05
5.08258e-07
-5.32334e-07
1.13977e-05
1.89417e-07
-2.09176e-07
1.14124e-05
-1.21865e-07
1.07156e-07
1.14214e-05
-4.19332e-07
4.10402e-07
1.14239e-05
-6.9763e-07
6.95138e-07
1.14194e-05
-9.52501e-07
9.57006e-07
1.14074e-05
-1.1809e-06
1.19282e-06
1.13879e-05
-1.38103e-06
1.40062e-06
1.13605e-05
-1.55225e-06
1.57959e-06
1.13255e-05
-1.69489e-06
1.72987e-06
1.12832e-05
-1.81001e-06
1.85237e-06
1.12338e-05
-1.89908e-06
1.94842e-06
1.1178e-05
-1.96357e-06
2.01944e-06
1.11159e-05
-2.00451e-06
2.06656e-06
1.10482e-05
-2.02236e-06
2.09009e-06
1.09763e-05
-2.01794e-06
2.0899e-06
1.0902e-05
-1.99234e-06
2.06663e-06
1.08273e-05
-1.9457e-06
2.02036e-06
1.07543e-05
-1.87754e-06
1.95055e-06
1.06849e-05
-1.78706e-06
1.8565e-06
1.06207e-05
-1.67347e-06
1.73761e-06
1.05633e-05
-1.53635e-06
1.59378e-06
1.05136e-05
-1.37601e-06
1.42565e-06
1.04725e-05
-1.19358e-06
1.23473e-06
1.04402e-05
-9.91158e-07
1.02346e-06
1.04168e-05
-7.71694e-07
7.95106e-07
1.0402e-05
-5.38847e-07
5.53647e-07
1.03955e-05
-2.96718e-07
3.03149e-07
1.03969e-05
-5.03011e-08
4.8933e-08
1.0405e-05
1.94595e-07
-2.02663e-07
1.0419e-05
4.34108e-07
-4.48127e-07
1.04384e-05
6.64815e-07
-6.84239e-07
1.04625e-05
8.83441e-07
-9.07554e-07
1.04906e-05
1.08701e-06
-1.11505e-06
1.05218e-05
1.27291e-06
-1.30413e-06
1.05555e-05
1.43907e-06
-1.47277e-06
1.05909e-05
1.58363e-06
-1.61904e-06
1.06273e-05
1.70529e-06
-1.74169e-06
1.06641e-05
1.80326e-06
-1.84003e-06
1.07007e-05
1.87723e-06
-1.91385e-06
1.07368e-05
1.92737e-06
-1.96352e-06
1.07728e-05
1.9538e-06
-1.98976e-06
1.08093e-05
1.95312e-06
-1.98962e-06
1.08458e-05
1.92154e-06
-1.95801e-06
1.08814e-05
1.85884e-06
-1.89449e-06
1.09157e-05
1.76583e-06
-1.80017e-06
1.09485e-05
1.64402e-06
-1.67673e-06
1.09793e-05
1.49542e-06
-1.52626e-06
1.1008e-05
1.32255e-06
-1.35129e-06
1.12842e-06
-1.15483e-06
1.09632e-05
-2.17205e-06
1.07609e-05
-2.11289e-06
1.05761e-05
-2.0278e-06
1.04193e-05
-1.9014e-06
1.02984e-05
-1.72141e-06
1.02182e-05
-1.48218e-06
1.01795e-05
-1.18474e-06
1.0178e-05
-8.36985e-07
1.02104e-05
-4.55143e-07
1.02728e-05
-5.57461e-08
1.03563e-05
3.45651e-07
1.04552e-05
7.3441e-07
1.05645e-05
1.1018e-06
1.06793e-05
1.44188e-06
1.07954e-05
1.7512e-06
1.09093e-05
2.02832e-06
1.10182e-05
2.27345e-06
1.11205e-05
2.48776e-06
1.12155e-05
2.67259e-06
1.13032e-05
2.82922e-06
1.1384e-05
2.9584e-06
1.14584e-05
3.06025e-06
1.15279e-05
3.13406e-06
1.15951e-05
3.17763e-06
1.16633e-05
3.18373e-06
1.17338e-05
3.14206e-06
1.1806e-05
3.04554e-06
1.188e-05
2.88963e-06
1.19553e-05
2.67225e-06
1.20311e-05
2.39394e-06
1.21061e-05
2.05842e-06
1.21787e-05
1.67283e-06
1.22468e-05
1.248e-06
1.23079e-05
7.98877e-07
1.23587e-05
3.4639e-07
1.23973e-05
-9.23527e-08
1.24221e-05
-5.04872e-07
1.24319e-05
-8.8124e-07
1.24261e-05
-1.21448e-06
1.24049e-05
-1.50065e-06
1.23687e-05
-1.7387e-06
1.23187e-05
-1.92988e-06
1.2256e-05
-2.07713e-06
1.21815e-05
-2.1843e-06
1.20956e-05
-2.25526e-06
1.19985e-05
-2.29374e-06
1.18914e-05
-2.30493e-06
1.17758e-05
-2.29574e-06
1.16531e-05
-2.27205e-06
1.15247e-05
-2.2382e-06
1.13925e-05
-2.19646e-06
1.12588e-05
-2.14684e-06
1.11265e-05
-2.08705e-06
1.09989e-05
-2.01305e-06
1.08792e-05
-1.91975e-06
1.07706e-05
-1.80211e-06
1.06756e-05
-1.65604e-06
1.05962e-05
-1.47926e-06
1.05333e-05
-1.27169e-06
1.04874e-05
-1.0355e-06
1.04582e-05
-7.74708e-07
1.0445e-05
-4.94712e-07
1.04469e-05
-2.02102e-07
1.04613e-05
9.55383e-08
1.04865e-05
3.90733e-07
1.05209e-05
6.78255e-07
1.05628e-05
9.53622e-07
1.06106e-05
1.21304e-06
1.06627e-05
1.45325e-06
1.07176e-05
1.67163e-06
1.07742e-05
1.86611e-06
1.08314e-05
2.0352e-06
1.08882e-05
2.17765e-06
1.0944e-05
2.29278e-06
1.09984e-05
2.38026e-06
1.10513e-05
2.44e-06
1.11035e-05
2.47123e-06
1.1156e-05
2.46899e-06
1.12083e-05
2.42843e-06
1.12597e-05
2.34815e-06
1.13097e-05
2.22801e-06
1.1358e-05
2.06891e-06
1.14042e-05
1.87276e-06
1.14479e-05
1.64252e-06
1.14883e-05
1.38231e-06
1.1525e-05
1.09741e-06
1.15573e-05
7.94324e-07
1.15843e-05
4.81302e-07
1.16049e-05
1.68783e-07
1.16186e-05
-1.35512e-07
1.16246e-05
-4.25406e-07
1.16227e-05
-6.95665e-07
1.16123e-05
-9.42179e-07
1.15935e-05
-1.16208e-06
1.15662e-05
-1.35373e-06
1.15306e-05
-1.51666e-06
1.14871e-05
-1.65131e-06
1.14359e-05
-1.75887e-06
1.13776e-05
-1.84082e-06
1.13126e-05
-1.89856e-06
1.12412e-05
-1.93308e-06
1.11641e-05
-1.94531e-06
1.10831e-05
-1.9369e-06
1.09999e-05
-1.9091e-06
1.09164e-05
-1.86223e-06
1.08348e-05
-1.7959e-06
1.07569e-05
-1.70925e-06
1.06848e-05
-1.60132e-06
1.06199e-05
-1.47144e-06
1.05634e-05
-1.31955e-06
1.05163e-05
-1.14642e-06
1.04789e-05
-9.53767e-07
1.04514e-05
-7.44196e-07
1.04336e-05
-5.21066e-07
1.04252e-05
-2.8832e-07
1.04255e-05
-5.06106e-08
1.04336e-05
1.86524e-07
1.04487e-05
4.19008e-07
1.04701e-05
6.43391e-07
1.04971e-05
8.56441e-07
1.05289e-05
1.05522e-06
1.05647e-05
1.23714e-06
1.06036e-05
1.40009e-06
1.0645e-05
1.54223e-06
1.06881e-05
1.66222e-06
1.07322e-05
1.75919e-06
1.07767e-05
1.83274e-06
1.08212e-05
1.88281e-06
1.08661e-05
1.90893e-06
1.09116e-05
1.90767e-06
1.09569e-05
1.8762e-06
1.10014e-05
1.81436e-06
1.10443e-05
1.72287e-06
1.10853e-05
1.60308e-06
1.11238e-05
1.45694e-06
1.11594e-05
1.28692e-06
1.09599e-06
1.10727e-05
-1.96242e-06
1.08651e-05
-1.90528e-06
1.06696e-05
-1.83231e-06
1.04974e-05
-1.72922e-06
1.03585e-05
-1.58248e-06
1.02592e-05
-1.38288e-06
1.02024e-05
-1.12798e-06
1.0188e-05
-8.22515e-07
1.02112e-05
-4.78322e-07
1.02655e-05
-1.10128e-07
1.03439e-05
2.67292e-07
1.04398e-05
6.38533e-07
1.0548e-05
9.93598e-07
1.06637e-05
1.32611e-06
1.07829e-05
1.63203e-06
1.09021e-05
1.90915e-06
1.10187e-05
2.15678e-06
1.11313e-05
2.37525e-06
1.12387e-05
2.56516e-06
1.13408e-05
2.72706e-06
1.1438e-05
2.86123e-06
1.1531e-05
2.96729e-06
1.16211e-05
3.04395e-06
1.17106e-05
3.08809e-06
1.18019e-05
3.09242e-06
1.18956e-05
3.04844e-06
1.1991e-05
2.95007e-06
1.20875e-05
2.79313e-06
1.21839e-05
2.57584e-06
1.22787e-05
2.29918e-06
1.23699e-05
1.96724e-06
1.24552e-05
1.58748e-06
1.25323e-05
1.17095e-06
1.25979e-05
7.33214e-07
1.26491e-05
2.95207e-07
1.26842e-05
-1.27393e-07
1.27019e-05
-5.22604e-07
1.27018e-05
-8.81118e-07
1.26839e-05
-1.19661e-06
1.2649e-05
-1.46573e-06
1.25982e-05
-1.68788e-06
1.25329e-05
-1.86461e-06
1.24546e-05
-1.99888e-06
1.23646e-05
-2.09425e-06
1.22634e-05
-2.1541e-06
1.21521e-05
-2.18244e-06
1.20324e-05
-2.1852e-06
1.19057e-05
-2.169e-06
1.17731e-05
-2.13948e-06
1.16359e-05
-2.10097e-06
1.14955e-05
-2.05606e-06
1.13539e-05
-2.00524e-06
1.12136e-05
-1.94682e-06
1.10778e-05
-1.87726e-06
1.09498e-05
-1.79174e-06
1.08328e-05
-1.68512e-06
1.07297e-05
-1.55292e-06
1.06426e-05
-1.39217e-06
1.05729e-05
-1.20198e-06
1.05211e-05
-9.83711e-07
1.04871e-05
-7.40697e-07
1.04702e-05
-4.77832e-07
1.04693e-05
-2.01147e-07
1.04823e-05
8.25734e-08
1.05071e-05
3.65899e-07
1.05422e-05
6.43124e-07
1.0586e-05
9.09828e-07
1.06369e-05
1.16217e-06
1.06933e-05
1.39684e-06
1.07538e-05
1.61109e-06
1.08172e-05
1.80271e-06
1.08824e-05
1.97004e-06
1.09484e-05
2.11166e-06
1.10145e-05
2.2267e-06
1.10802e-05
2.31456e-06
1.11454e-05
2.37476e-06
1.12108e-05
2.40585e-06
1.12767e-05
2.40307e-06
1.13425e-05
2.36266e-06
1.14073e-05
2.28333e-06
1.14704e-05
2.16489e-06
1.15311e-05
2.00822e-06
1.15886e-05
1.81524e-06
1.16422e-05
1.58895e-06
1.1691e-05
1.33349e-06
1.17343e-05
1.05415e-06
1.17712e-05
7.57444e-07
1.18006e-05
4.51824e-07
1.18217e-05
1.47678e-07
1.18339e-05
-1.47674e-07
1.18367e-05
-4.28189e-07
1.18298e-05
-6.88807e-07
1.18133e-05
-9.25636e-07
1.17872e-05
-1.13601e-06
1.17519e-05
-1.31846e-06
1.17079e-05
-1.47263e-06
1.16556e-05
-1.59906e-06
1.15957e-05
-1.69894e-06
1.15286e-05
-1.77368e-06
1.14546e-05
-1.82457e-06
1.13742e-05
-1.85267e-06
1.12884e-05
-1.85955e-06
1.11989e-05
-1.84735e-06
1.11072e-05
-1.81749e-06
1.10155e-05
-1.7705e-06
1.09257e-05
-1.70611e-06
1.084e-05
-1.62348e-06
1.07602e-05
-1.52153e-06
1.0688e-05
-1.39933e-06
1.0625e-05
-1.25649e-06
1.0572e-05
-1.0934e-06
1.05296e-05
-9.11383e-07
1.0498e-05
-7.1266e-07
1.04773e-05
-5.00283e-07
1.04669e-05
-2.77938e-07
1.04662e-05
-4.99374e-08
1.04743e-05
1.78425e-07
1.04904e-05
4.02878e-07
1.05138e-05
6.19998e-07
1.05437e-05
8.26583e-07
1.05792e-05
1.01973e-06
1.06195e-05
1.19685e-06
1.06637e-05
1.35582e-06
1.07111e-05
1.49483e-06
1.07609e-05
1.61246e-06
1.08123e-05
1.70782e-06
1.08646e-05
1.78036e-06
1.09177e-05
1.82979e-06
1.09714e-05
1.85517e-06
1.10258e-05
1.85325e-06
1.10801e-05
1.82192e-06
1.11334e-05
1.76107e-06
1.1185e-05
1.67132e-06
1.12341e-05
1.55396e-06
1.12802e-05
1.41086e-06
1.13227e-05
1.24443e-06
1.05759e-06
1.11963e-05
-1.75762e-06
1.09887e-05
-1.69766e-06
1.07871e-05
-1.63066e-06
1.06026e-05
-1.54477e-06
1.04467e-05
-1.4266e-06
1.03285e-05
-1.26468e-06
1.02533e-05
-1.05268e-06
1.0222e-05
-7.9125e-07
1.02315e-05
-4.87833e-07
1.02757e-05
-1.54313e-07
1.03474e-05
1.95527e-07
1.04393e-05
5.46715e-07
1.05456e-05
8.873e-07
1.06616e-05
1.21008e-06
1.07833e-05
1.51035e-06
1.09073e-05
1.78516e-06
1.10311e-05
2.03297e-06
1.11531e-05
2.25327e-06
1.12722e-05
2.446e-06
1.13882e-05
2.61105e-06
1.15014e-05
2.74809e-06
1.16124e-05
2.85631e-06
1.17224e-05
2.93393e-06
1.18333e-05
2.9772e-06
1.19466e-05
2.97912e-06
1.20623e-05
2.93271e-06
1.21796e-05
2.83271e-06
1.22973e-05
2.67549e-06
1.24134e-05
2.45971e-06
1.25258e-05
2.18683e-06
1.26317e-05
1.86135e-06
1.27282e-05
1.49091e-06
1.28126e-05
1.08662e-06
1.28813e-05
6.64476e-07
1.29316e-05
2.44881e-07
1.29622e-05
-1.57978e-07
1.29723e-05
-5.32743e-07
1.29621e-05
-8.70847e-07
1.29321e-05
-1.16666e-06
1.28838e-05
-1.41743e-06
1.28189e-05
-1.62293e-06
1.27391e-05
-1.78485e-06
1.26462e-05
-1.90601e-06
1.25416e-05
-1.98959e-06
1.24264e-05
-2.03892e-06
1.23024e-05
-2.05845e-06
1.21715e-05
-2.05434e-06
1.20352e-05
-2.03264e-06
1.18943e-05
-1.99862e-06
1.17499e-05
-1.95651e-06
1.16029e-05
-1.90908e-06
1.14549e-05
-1.85729e-06
1.13082e-05
-1.8001e-06
1.11655e-05
-1.73459e-06
1.10302e-05
-1.65643e-06
1.09057e-05
-1.56055e-06
1.07949e-05
-1.44218e-06
1.07005e-05
-1.29774e-06
1.0624e-05
-1.12553e-06
1.05663e-05
-9.26024e-07
1.05274e-05
-7.01782e-07
1.05067e-05
-4.57058e-07
1.05028e-05
-1.9733e-07
1.05142e-05
7.11726e-08
1.05387e-05
3.41482e-07
1.05745e-05
6.07297e-07
1.06201e-05
8.64197e-07
1.0674e-05
1.10829e-06
1.07346e-05
1.33622e-06
1.08006e-05
1.54513e-06
1.08706e-05
1.73267e-06
1.09436e-05
1.89703e-06
1.10186e-05
2.03667e-06
1.10948e-05
2.15049e-06
1.11717e-05
2.23767e-06
1.12491e-05
2.29736e-06
1.13274e-05
2.32758e-06
1.14064e-05
2.32402e-06
1.14854e-05
2.28368e-06
1.15633e-05
2.20545e-06
1.1639e-05
2.08913e-06
1.17116e-05
1.93563e-06
1.178e-05
1.74688e-06
1.18431e-05
1.52589e-06
1.18998e-05
1.27677e-06
1.19491e-05
1.00478e-06
1.19901e-05
7.16451e-07
1.20216e-05
4.20327e-07
1.20427e-05
1.26579e-07
1.2053e-05
-1.57939e-07
1.20522e-05
-4.27366e-07
1.20402e-05
-6.76876e-07
1.20174e-05
-9.02799e-07
1.19841e-05
-1.10268e-06
1.19409e-05
-1.27524e-06
1.18885e-05
-1.42024e-06
1.18277e-05
-1.53827e-06
1.17591e-05
-1.63041e-06
1.16834e-05
-1.69794e-06
1.16008e-05
-1.742e-06
1.15121e-05
-1.7639e-06
1.14183e-05
-1.76578e-06
1.1321e-05
-1.75001e-06
1.12217e-05
-1.71822e-06
1.11224e-05
-1.67117e-06
1.1025e-05
-1.60878e-06
1.09318e-05
-1.53027e-06
1.08448e-05
-1.43449e-06
1.07658e-05
-1.32031e-06
1.06963e-05
-1.18704e-06
1.06376e-05
-1.03466e-06
1.05903e-05
-8.64076e-07
1.05547e-05
-6.77119e-07
1.05309e-05
-4.76481e-07
1.05185e-05
-2.65545e-07
1.05169e-05
-4.83118e-08
1.05251e-05
1.70281e-07
1.05422e-05
3.85736e-07
1.05675e-05
5.94667e-07
1.06002e-05
7.93903e-07
1.06394e-05
9.80563e-07
1.06842e-05
1.15208e-06
1.07337e-05
1.30631e-06
1.0787e-05
1.44146e-06
1.08434e-05
1.55608e-06
1.0902e-05
1.64919e-06
1.09623e-05
1.72014e-06
1.10237e-05
1.76839e-06
1.10862e-05
1.79263e-06
1.11495e-05
1.78995e-06
1.12127e-05
1.75878e-06
1.12747e-05
1.69904e-06
1.13347e-05
1.61131e-06
1.13919e-05
1.4968e-06
1.14454e-05
1.35733e-06
1.14946e-05
1.19523e-06
1.01338e-06
1.13296e-05
-1.56271e-06
1.11282e-05
-1.49626e-06
1.09263e-05
-1.42875e-06
1.0734e-05
-1.35245e-06
1.05633e-05
-1.25591e-06
1.04256e-05
-1.12694e-06
1.03289e-05
-9.56064e-07
1.02771e-05
-7.39391e-07
1.02689e-05
-4.79613e-07
1.02996e-05
-1.84994e-07
1.03624e-05
1.32693e-07
1.04492e-05
4.59898e-07
1.0553e-05
7.83478e-07
1.06689e-05
1.09421e-06
1.07927e-05
1.38654e-06
1.09211e-05
1.65675e-06
1.10516e-05
1.90249e-06
1.11825e-05
2.1224e-06
1.13127e-05
2.31573e-06
1.1442e-05
2.48179e-06
1.15704e-05
2.6197e-06
1.16985e-05
2.72818e-06
1.18274e-05
2.80507e-06
1.19583e-05
2.84626e-06
1.20921e-05
2.84531e-06
1.22284e-05
2.79646e-06
1.23659e-05
2.69521e-06
1.25028e-05
2.53859e-06
1.26366e-05
2.32592e-06
1.27642e-05
2.05919e-06
1.28825e-05
1.74305e-06
1.29883e-05
1.38514e-06
1.30782e-05
9.96654e-07
1.31487e-05
5.94049e-07
1.31972e-05
1.96336e-07
1.32228e-05
-1.83602e-07
1.32253e-05
-5.35234e-07
1.32053e-05
-8.50788e-07
1.3164e-05
-1.12535e-06
1.31032e-05
-1.35672e-06
1.30253e-05
-1.54499e-06
1.29323e-05
-1.69184e-06
1.28261e-05
-1.79985e-06
1.27085e-05
-1.87191e-06
1.25811e-05
-1.91152e-06
1.24462e-05
-1.92362e-06
1.2306e-05
-1.91411e-06
1.21617e-05
-1.88838e-06
1.20143e-05
-1.85121e-06
1.18644e-05
-1.80657e-06
1.17126e-05
-1.75729e-06
1.156e-05
-1.70473e-06
1.14084e-05
-1.64851e-06
1.12603e-05
-1.58648e-06
1.11188e-05
-1.51494e-06
1.09874e-05
-1.42916e-06
1.08695e-05
-1.32424e-06
1.07679e-05
-1.1961e-06
1.06846e-05
-1.04224e-06
1.06208e-05
-8.62211e-07
1.05767e-05
-6.57695e-07
1.05518e-05
-4.32188e-07
1.0545e-05
-1.90557e-07
1.05548e-05
6.14449e-08
1.05788e-05
3.17448e-07
1.06153e-05
5.70793e-07
1.06627e-05
8.1678e-07
1.07195e-05
1.0515e-06
1.07842e-05
1.27152e-06
1.08554e-05
1.4739e-06
1.09319e-05
1.65618e-06
1.10125e-05
1.81641e-06
1.10963e-05
1.95294e-06
1.11823e-05
2.06446e-06
1.127e-05
2.14994e-06
1.13592e-05
2.20819e-06
1.14499e-05
2.23694e-06
1.15415e-05
2.23236e-06
1.16331e-05
2.19209e-06
1.17234e-05
2.11514e-06
1.18111e-05
2.0014e-06
1.1895e-05
1.85178e-06
1.19736e-05
1.66825e-06
1.20457e-05
1.45386e-06
1.21098e-05
1.21268e-06
1.21647e-05
9.49871e-07
1.22092e-05
6.71919e-07
1.22421e-05
3.87443e-07
1.22626e-05
1.06049e-07
1.22705e-05
-1.65818e-07
1.22657e-05
-4.22559e-07
1.22484e-05
-6.59632e-07
1.22193e-05
-8.73618e-07
1.21789e-05
-1.06228e-06
1.21281e-05
-1.22447e-06
1.20679e-05
-1.36001e-06
1.19991e-05
-1.46946e-06
1.19225e-05
-1.55381e-06
1.18387e-05
-1.61415e-06
1.17482e-05
-1.65156e-06
1.16519e-05
-1.6676e-06
1.1551e-05
-1.66485e-06
1.14467e-05
-1.64576e-06
1.13407e-05
-1.61217e-06
1.12346e-05
-1.56509e-06
1.11305e-05
-1.50467e-06
1.10305e-05
-1.43025e-06
1.09367e-05
-1.34071e-06
1.08512e-05
-1.23477e-06
1.07756e-05
-1.11144e-06
1.07112e-05
-9.70325e-07
1.06591e-05
-8.119e-07
1.06195e-05
-6.37564e-07
1.05926e-05
-4.49608e-07
1.05782e-05
-2.51088e-07
1.05755e-05
-4.56816e-08
1.05837e-05
1.62116e-07
1.06018e-05
3.67622e-07
1.0629e-05
5.67448e-07
1.06645e-05
7.58457e-07
1.07073e-05
9.37793e-07
1.07564e-05
1.10291e-06
1.08111e-05
1.25166e-06
1.08703e-05
1.38223e-06
1.09332e-05
1.49318e-06
1.0999e-05
1.58344e-06
1.10669e-05
1.65222e-06
1.11365e-05
1.69875e-06
1.12076e-05
1.72151e-06
1.12796e-05
1.71799e-06
1.13514e-05
1.68701e-06
1.14219e-05
1.62854e-06
1.14901e-05
1.5431e-06
1.1555e-05
1.43189e-06
1.16157e-05
1.29663e-06
1.16713e-05
1.13961e-06
9.6362e-07
1.1466e-05
-1.38093e-06
1.12768e-05
-1.3071e-06
1.10822e-05
-1.23417e-06
1.08891e-05
-1.15934e-06
1.07085e-05
-1.07524e-06
1.05528e-05
-9.71276e-07
1.04332e-05
-8.36503e-07
1.0357e-05
-6.63138e-07
1.03262e-05
-4.4884e-07
1.03384e-05
-1.97227e-07
1.03879e-05
8.3208e-08
1.04669e-05
3.80915e-07
1.0567e-05
6.83356e-07
1.0682e-05
9.79238e-07
1.08074e-05
1.26112e-06
1.09398e-05
1.52436e-06
1.10766e-05
1.76575e-06
1.12158e-05
1.98312e-06
1.13566e-05
2.17495e-06
1.14984e-05
2.34001e-06
1.16412e-05
2.47694e-06
1.17853e-05
2.58401e-06
1.19317e-05
2.65873e-06
1.2081e-05
2.69694e-06
1.22334e-05
2.69286e-06
1.23882e-05
2.64174e-06
1.25435e-05
2.53985e-06
1.26971e-05
2.38505e-06
1.28456e-05
2.17733e-06
1.29859e-05
1.91895e-06
1.31143e-05
1.61468e-06
1.32272e-05
1.2722e-06
1.33212e-05
9.02695e-07
1.33921e-05
5.23135e-07
1.34382e-05
1.5024e-07
1.34587e-05
-2.0415e-07
1.34539e-05
-5.30465e-07
1.34249e-05
-8.21783e-07
1.33735e-05
-1.0739e-06
1.33019e-05
-1.28511e-06
1.32126e-05
-1.4557e-06
1.3108e-05
-1.58729e-06
1.29904e-05
-1.68219e-06
1.28616e-05
-1.74317e-06
1.27242e-05
-1.77411e-06
1.25807e-05
-1.78014e-06
1.24332e-05
-1.76657e-06
1.2283e-05
-1.73815e-06
1.21309e-05
-1.6991e-06
1.19773e-05
-1.65298e-06
1.18225e-05
-1.60253e-06
1.16672e-05
-1.54941e-06
1.15125e-05
-1.49387e-06
1.13606e-05
-1.43458e-06
1.12144e-05
-1.36867e-06
1.10772e-05
-1.29196e-06
1.09526e-05
-1.19968e-06
1.08439e-05
-1.08741e-06
1.07536e-05
-9.51943e-07
1.06833e-05
-7.91894e-07
1.06336e-05
-6.07955e-07
1.06041e-05
-4.02755e-07
1.0594e-05
-1.80454e-07
1.06017e-05
5.37426e-08
1.06252e-05
2.93967e-07
1.06623e-05
5.33714e-07
1.07114e-05
7.67684e-07
1.0771e-05
9.91909e-07
1.08396e-05
1.2029e-06
1.09159e-05
1.39762e-06
1.09985e-05
1.57353e-06
1.10864e-05
1.72851e-06
1.11785e-05
1.86085e-06
1.12739e-05
1.96908e-06
1.13719e-05
2.0519e-06
1.14722e-05
2.1079e-06
1.15745e-05
2.13466e-06
1.1678e-05
2.12889e-06
1.17814e-05
2.08869e-06
1.18833e-05
2.01322e-06
1.19823e-05
1.90245e-06
1.20766e-05
1.75744e-06
1.21646e-05
1.58023e-06
1.22446e-05
1.37381e-06
1.23151e-05
1.14218e-06
1.23747e-05
8.90298e-07
1.24221e-05
6.24543e-07
1.24559e-05
3.53676e-07
1.24755e-05
8.63988e-08
1.24809e-05
-1.71178e-07
1.24721e-05
-4.13797e-07
1.24497e-05
-6.37236e-07
1.24145e-05
-8.38361e-07
1.23673e-05
-1.01515e-06
1.23095e-05
-1.16659e-06
1.2242e-05
-1.29251e-06
1.21659e-05
-1.39337e-06
1.2082e-05
-1.46998e-06
1.19911e-05
-1.52323e-06
1.18938e-05
-1.5542e-06
1.17909e-05
-1.56479e-06
1.16838e-05
-1.55774e-06
1.15736e-05
-1.53557e-06
1.14618e-05
-1.50029e-06
1.13499e-05
-1.45318e-06
1.12398e-05
-1.39462e-06
1.11337e-05
-1.32419e-06
1.10338e-05
-1.24081e-06
1.09422e-05
-1.14317e-06
1.08608e-05
-1.03e-06
1.07911e-05
-9.00578e-07
1.07341e-05
-7.54917e-07
1.06905e-05
-5.93965e-07
1.06604e-05
-4.19585e-07
1.06438e-05
-2.34455e-07
1.064e-05
-4.19085e-08
1.06482e-05
1.54009e-07
1.06671e-05
3.48632e-07
1.06961e-05
5.38442e-07
1.07342e-05
7.20357e-07
1.07805e-05
8.91548e-07
1.08339e-05
1.04949e-06
1.08935e-05
1.19202e-06
1.09584e-05
1.31734e-06
1.10276e-05
1.42399e-06
1.11003e-05
1.51079e-06
1.11757e-05
1.57684e-06
1.12532e-05
1.62117e-06
1.13326e-05
1.64217e-06
1.14128e-05
1.63774e-06
1.14928e-05
1.60702e-06
1.15714e-05
1.54996e-06
1.16474e-05
1.4671e-06
1.17197e-05
1.35958e-06
1.17872e-05
1.22909e-06
1.1849e-05
1.07787e-06
9.08649e-07
1.15999e-05
-1.21289e-06
1.14265e-05
-1.13372e-06
1.12464e-05
-1.05403e-06
1.10617e-05
-9.74677e-07
1.08798e-05
-8.93364e-07
1.07121e-05
-8.03581e-07
1.05714e-05
-6.95809e-07
1.04686e-05
-5.60322e-07
1.04103e-05
-3.90465e-07
1.03976e-05
-1.84615e-07
1.04274e-05
5.34116e-08
1.0493e-05
3.15315e-07
1.05861e-05
5.90274e-07
1.06985e-05
8.66834e-07
1.08245e-05
1.13515e-06
1.09601e-05
1.38871e-06
1.11025e-05
1.62335e-06
1.12497e-05
1.836e-06
1.14002e-05
2.02436e-06
1.15537e-05
2.18659e-06
1.17097e-05
2.32088e-06
1.18686e-05
2.42513e-06
1.20308e-05
2.49659e-06
1.21965e-05
2.53121e-06
1.23653e-05
2.524e-06
1.2536e-05
2.47106e-06
1.27064e-05
2.36951e-06
1.28734e-05
2.21796e-06
1.30339e-05
2.01688e-06
1.3184e-05
1.7688e-06
1.33201e-05
1.47863e-06
1.34383e-05
1.15403e-06
1.35345e-05
8.06418e-07
1.3605e-05
4.52639e-07
1.36484e-05
1.06927e-07
1.36641e-05
-2.19887e-07
1.36529e-05
-5.19246e-07
1.36162e-05
-7.85105e-07
1.35562e-05
-1.01394e-06
1.34756e-05
-1.20447e-06
1.3377e-05
-1.35711e-06
1.32631e-05
-1.47333e-06
1.31361e-05
-1.55526e-06
1.29988e-05
-1.60581e-06
1.28538e-05
-1.62916e-06
1.2704e-05
-1.63029e-06
1.25512e-05
-1.61383e-06
1.2397e-05
-1.5839e-06
1.22419e-05
-1.54409e-06
1.20865e-05
-1.49749e-06
1.19305e-05
-1.44661e-06
1.17744e-05
-1.39322e-06
1.16186e-05
-1.33811e-06
1.14648e-05
-1.28079e-06
1.13154e-05
-1.21929e-06
1.11737e-05
-1.15024e-06
1.10433e-05
-1.06931e-06
1.09279e-05
-9.71996e-07
1.08305e-05
-8.54527e-07
1.07532e-05
-7.14623e-07
1.06972e-05
-5.51924e-07
1.06625e-05
-3.68058e-07
1.06484e-05
-1.66349e-07
1.06535e-05
4.86344e-08
1.06759e-05
2.71527e-07
1.07134e-05
4.96312e-07
1.07639e-05
7.17138e-07
1.0826e-05
9.29763e-07
1.08983e-05
1.13063e-06
1.09793e-05
1.31662e-06
1.10678e-05
1.48509e-06
1.11624e-05
1.63382e-06
1.12623e-05
1.76097e-06
1.13664e-05
1.86496e-06
1.1474e-05
1.9443e-06
1.15846e-05
1.99734e-06
1.16976e-05
2.02168e-06
1.18119e-05
2.01456e-06
1.19261e-05
1.97447e-06
1.20386e-05
1.90072e-06
1.21476e-05
1.79353e-06
1.2251e-05
1.65401e-06
1.23471e-05
1.48418e-06
1.24339e-05
1.28699e-06
1.25098e-05
1.06626e-06
1.25732e-05
8.26846e-07
1.26228e-05
5.74988e-07
1.26571e-05
3.19418e-07
1.26756e-05
6.78241e-08
1.26785e-05
-1.74051e-07
1.26661e-05
-4.01339e-07
1.2639e-05
-6.10163e-07
1.25983e-05
-7.97687e-07
1.25452e-05
-9.62089e-07
1.24811e-05
-1.10246e-06
1.24072e-05
-1.21861e-06
1.23247e-05
-1.31087e-06
1.22345e-05
-1.37982e-06
1.21375e-05
-1.42618e-06
1.20344e-05
-1.45109e-06
1.19262e-05
-1.45666e-06
1.18141e-05
-1.44563e-06
1.16991e-05
-1.42058e-06
1.15825e-05
-1.38368e-06
1.14658e-05
-1.33646e-06
1.13508e-05
-1.27959e-06
1.12395e-05
-1.2129e-06
1.11342e-05
-1.13549e-06
1.1037e-05
-1.04604e-06
1.09502e-05
-9.43119e-07
1.08752e-05
-8.25643e-07
1.08135e-05
-6.93208e-07
1.07658e-05
-5.46291e-07
1.07326e-05
-3.86295e-07
1.07136e-05
-2.15473e-07
1.07084e-05
-3.67893e-08
1.07163e-05
1.46142e-07
1.0736e-05
3.28932e-07
1.07666e-05
5.07829e-07
1.08072e-05
6.79794e-07
1.08567e-05
8.42038e-07
1.09141e-05
9.92055e-07
1.09785e-05
1.12768e-06
1.10487e-05
1.24709e-06
1.11239e-05
1.3488e-06
1.12031e-05
1.43159e-06
1.12856e-05
1.49439e-06
1.13706e-05
1.53609e-06
1.14577e-05
1.5551e-06
1.15458e-05
1.5497e-06
1.16335e-05
1.51925e-06
1.17197e-05
1.46375e-06
1.18031e-05
1.38374e-06
1.18823e-05
1.28038e-06
1.19561e-05
1.15531e-06
1.20232e-05
1.01068e-06
8.4911e-07
1.17281e-05
-1.05691e-06
1.15706e-05
-9.7624e-07
1.14088e-05
-8.92238e-07
1.12411e-05
-8.07018e-07
1.10696e-05
-7.21818e-07
1.09012e-05
-6.35185e-07
1.07472e-05
-5.41851e-07
1.06206e-05
-4.3365e-07
1.05321e-05
-3.02004e-07
1.04883e-05
-1.40798e-07
1.04902e-05
5.14963e-08
1.05341e-05
2.71424e-07
1.06131e-05
5.11326e-07
1.07186e-05
7.61327e-07
1.08427e-05
1.01102e-06
1.09799e-05
1.25147e-06
1.11268e-05
1.47651e-06
1.12807e-05
1.68205e-06
1.14401e-05
1.86493e-06
1.16041e-05
2.02261e-06
1.17722e-05
2.1528e-06
1.19442e-05
2.25308e-06
1.21203e-05
2.32053e-06
1.23002e-05
2.35133e-06
1.24829e-05
2.34129e-06
1.26667e-05
2.2873e-06
1.28489e-05
2.18725e-06
1.30265e-05
2.04035e-06
1.31959e-05
1.84747e-06
1.33533e-05
1.61141e-06
1.34948e-05
1.33715e-06
1.36164e-05
1.03245e-06
1.37136e-05
7.09163e-07
1.37832e-05
3.83118e-07
1.38238e-05
6.63154e-08
1.38354e-05
-2.31482e-07
1.38189e-05
-5.02754e-07
1.37761e-05
-7.42329e-07
1.37095e-05
-9.47344e-07
1.36219e-05
-1.11688e-06
1.35162e-05
-1.25139e-06
1.33951e-05
-1.35226e-06
1.32614e-05
-1.42157e-06
1.31181e-05
-1.46251e-06
1.29683e-05
-1.47935e-06
1.28146e-05
-1.47657e-06
1.26589e-05
-1.45816e-06
1.25027e-05
-1.42763e-06
1.23466e-05
-1.38796e-06
1.21908e-05
-1.34173e-06
1.20353e-05
-1.2911e-06
1.18799e-05
-1.23784e-06
1.17249e-05
-1.18309e-06
1.15712e-05
-1.12708e-06
1.14206e-05
-1.06874e-06
1.1276e-05
-1.00566e-06
1.1141e-05
-9.34299e-07
1.10195e-05
-8.5046e-07
1.0915e-05
-7.50028e-07
1.08303e-05
-6.29954e-07
1.07672e-05
-4.88829e-07
1.07263e-05
-3.27158e-07
1.07073e-05
-1.47271e-07
1.07088e-05
4.70424e-08
1.07294e-05
2.5099e-07
1.07666e-05
4.59132e-07
1.08181e-05
6.65584e-07
1.08824e-05
8.65476e-07
1.09579e-05
1.05513e-06
1.10432e-05
1.23136e-06
1.11368e-05
1.39141e-06
1.12377e-05
1.53294e-06
1.13447e-05
1.65401e-06
1.14567e-05
1.75291e-06
1.1573e-05
1.82801e-06
1.16929e-05
1.8775e-06
1.18154e-05
1.8991e-06
1.19394e-05
1.89057e-06
1.20631e-05
1.85077e-06
1.21846e-05
1.77922e-06
1.23019e-05
1.67623e-06
1.24129e-05
1.54298e-06
1.25157e-05
1.38147e-06
1.26081e-05
1.19457e-06
1.26884e-05
9.85956e-07
1.27549e-05
7.60327e-07
1.2806e-05
5.23894e-07
1.28404e-05
2.85018e-07
1.28578e-05
5.04098e-08
1.28584e-05
-1.74629e-07
1.28427e-05
-3.85643e-07
1.28117e-05
-5.79118e-07
1.27665e-05
-7.52508e-07
1.27086e-05
-9.04174e-07
1.26394e-05
-1.03327e-06
1.25603e-05
-1.13956e-06
1.24726e-05
-1.22319e-06
1.23774e-05
-1.28454e-06
1.22754e-05
-1.32417e-06
1.21676e-05
-1.34335e-06
1.20553e-05
-1.34431e-06
1.19393e-05
-1.32967e-06
1.18207e-05
-1.30198e-06
1.17006e-05
-1.26354e-06
1.15802e-05
-1.21609e-06
1.14612e-05
-1.16064e-06
1.13457e-05
-1.09733e-06
1.12357e-05
-1.02555e-06
1.11337e-05
-9.44039e-07
1.10419e-05
-8.51254e-07
1.0962e-05
-7.45812e-07
1.08957e-05
-6.26899e-07
1.0844e-05
-4.94516e-07
1.08073e-05
-3.49584e-07
1.07857e-05
-1.93907e-07
1.07789e-05
-3.00399e-08
1.07863e-05
1.38827e-07
1.08064e-05
3.08779e-07
1.08384e-05
4.75877e-07
1.08811e-05
6.3706e-07
1.09336e-05
7.89573e-07
1.09947e-05
9.30937e-07
1.10634e-05
1.05898e-06
1.11386e-05
1.17187e-06
1.12193e-05
1.26808e-06
1.13046e-05
1.3463e-06
1.13936e-05
1.40537e-06
1.14857e-05
1.44404e-06
1.15799e-05
1.46084e-06
1.16752e-05
1.45444e-06
1.17701e-05
1.42437e-06
1.18631e-05
1.37068e-06
1.19529e-05
1.29394e-06
1.20381e-05
1.19523e-06
1.21172e-05
1.07617e-06
1.21891e-05
9.38809e-07
7.8565e-07
1.185e-05
-9.10209e-07
1.17055e-05
-8.31799e-07
1.15613e-05
-7.48059e-07
1.14146e-05
-6.60306e-07
1.12634e-05
-5.70589e-07
1.11087e-05
-4.80533e-07
1.09566e-05
-3.89714e-07
1.08174e-05
-2.94482e-07
1.07037e-05
-1.88282e-07
1.06267e-05
-6.37462e-08
1.05933e-05
8.48248e-08
1.06053e-05
2.59422e-07
1.06593e-05
4.57383e-07
1.07485e-05
6.72132e-07
1.08646e-05
8.94911e-07
1.09998e-05
1.11626e-06
1.11485e-05
1.32782e-06
1.13073e-05
1.52323e-06
1.14739e-05
1.69831e-06
1.16469e-05
1.84964e-06
1.18253e-05
1.97437e-06
1.20087e-05
2.06972e-06
1.21966e-05
2.13267e-06
1.23882e-05
2.15974e-06
1.2582e-05
2.14747e-06
1.27758e-05
2.09344e-06
1.2967e-05
1.99611e-06
1.31522e-05
1.85517e-06
1.33278e-05
1.67185e-06
1.34901e-05
1.44912e-06
1.36351e-05
1.19213e-06
1.37587e-05
9.08824e-07
1.38562e-05
6.11715e-07
1.39247e-05
3.14638e-07
1.39631e-05
2.78957e-08