/*--------------------------------*- C++ -*----------------------------------*\
| =========                 |                                                 |
| \\      /  F ield         | OpenFOAM: The Open Source CFD Toolbox           |
|  \\    /   O peration     | Version:  2206                                  |
|   \\  /    A nd           | Website:  www.openfoam.com                      |
|    \\/     M anipulation  |                                                 |
\*---------------------------------------------------------------------------*/
FoamFile
{
    version     2.0;
    format      ascii;
    arch        "LSB;label=32;scalar=64";
    class       surfaceScalarField;
    location    "18.2001";
    object      phi_0;
}
// * * * * * * * * * * * * * * * * * * * * * * * * * * * * * * * * * * * * * //

dimensions      [0 3 -1 0 0 0 0];

oriented        oriented;

internalField   nonuniform List<scalar> 
9419
(
1.09955e-05
-2.40748e-06
2.61185e-06
1.0797e-05
-2.35449e-06
2.55296e-06
1.06143e-05
-2.27448e-06
2.45714e-06
1.04571e-05
-2.15121e-06
2.30842e-06
1.03331e-05
-1.97166e-06
2.09565e-06
1.02472e-05
-1.72909e-06
1.81504e-06
1.02004e-05
-1.42427e-06
1.47106e-06
1.01904e-05
-1.06579e-06
1.07577e-06
1.02143e-05
-6.67804e-07
6.43948e-07
1.02672e-05
-2.45976e-07
1.93045e-07
1.0342e-05
1.80556e-07
-2.55351e-07
1.04337e-05
5.94875e-07
-6.86611e-07
1.05371e-05
9.87518e-07
-1.09093e-06
1.06471e-05
1.35137e-06
-1.46137e-06
1.07591e-05
1.682e-06
-1.79391e-06
1.08687e-05
1.97728e-06
-2.08693e-06
1.09728e-05
2.23744e-06
-2.34149e-06
1.10688e-05
2.46391e-06
-2.55998e-06
1.11557e-05
2.65897e-06
-2.74583e-06
1.1233e-05
2.82475e-06
-2.9021e-06
1.13013e-05
2.96276e-06
-3.03105e-06
1.13614e-05
3.0739e-06
-3.13402e-06
1.14142e-05
3.15837e-06
-3.21111e-06
1.14608e-05
3.21594e-06
-3.26253e-06
1.15041e-05
3.24421e-06
-3.28756e-06
1.15498e-05
3.23338e-06
-3.279e-06
1.15966e-05
3.17163e-06
-3.21844e-06
1.16451e-05
3.05301e-06
-3.10151e-06
1.16962e-05
2.87415e-06
-2.9253e-06
1.17502e-05
2.63354e-06
-2.68752e-06
1.18066e-05
2.33248e-06
-2.38885e-06
1.18644e-05
1.97566e-06
-2.03347e-06
1.19223e-05
1.57131e-06
-1.62926e-06
1.19788e-05
1.13133e-06
-1.18777e-06
1.20311e-05
6.72051e-07
-7.24446e-07
1.20766e-05
2.14507e-07
-2.59958e-07
1.21131e-05
-2.26039e-07
1.89579e-07
1.21387e-05
-6.37768e-07
6.12127e-07
1.21521e-05
-1.01144e-06
9.9803e-07
1.21524e-05
-1.34073e-06
1.34046e-06
1.21392e-05
-1.62232e-06
1.63548e-06
1.21128e-05
-1.85557e-06
1.882e-06
1.20736e-05
-2.04213e-06
2.08134e-06
1.20223e-05
-2.18536e-06
2.23668e-06
1.19593e-05
-2.28955e-06
2.35246e-06
1.18849e-05
-2.35888e-06
2.43331e-06
1.17988e-05
-2.39714e-06
2.48324e-06
1.17018e-05
-2.40937e-06
2.50635e-06
1.15956e-05
-2.40225e-06
2.50849e-06
1.14817e-05
-2.38107e-06
2.49497e-06
1.13621e-05
-2.34911e-06
2.46871e-06
1.12392e-05
-2.30729e-06
2.4302e-06
1.11158e-05
-2.25412e-06
2.37748e-06
1.09952e-05
-2.18609e-06
2.3067e-06
1.08806e-05
-2.09842e-06
2.21298e-06
1.07753e-05
-1.98602e-06
2.09141e-06
1.06817e-05
-1.84456e-06
1.93812e-06
1.0602e-05
-1.67131e-06
1.751e-06
1.05375e-05
-1.46565e-06
1.53018e-06
1.04888e-05
-1.22927e-06
1.27797e-06
1.04559e-05
-9.65843e-07
9.98693e-07
1.04383e-05
-6.8059e-07
6.98169e-07
1.04344e-05
-3.79469e-07
3.83412e-07
1.04427e-05
-7.04899e-08
6.21423e-08
1.04623e-05
2.37749e-07
-2.57347e-07
1.04912e-05
5.39671e-07
-5.6851e-07
1.05273e-05
8.30383e-07
-8.66543e-07
1.05691e-05
1.10569e-06
-1.1475e-06
1.06148e-05
1.36201e-06
-1.4077e-06
1.0663e-05
1.59652e-06
-1.64464e-06
1.07122e-05
1.80699e-06
-1.85621e-06
1.07615e-05
1.99184e-06
-2.04114e-06
1.08098e-05
2.14967e-06
-2.19804e-06
1.08565e-05
2.27972e-06
-2.3264e-06
1.0901e-05
2.38176e-06
-2.42622e-06
1.09428e-05
2.45581e-06
-2.49765e-06
1.09824e-05
2.50231e-06
-2.54184e-06
1.10213e-05
2.52008e-06
-2.55899e-06
1.10604e-05
2.50202e-06
-2.54117e-06
1.10988e-05
2.44423e-06
-2.4826e-06
1.11361e-05
2.34608e-06
-2.38335e-06
1.11723e-05
2.2081e-06
-2.24436e-06
1.12076e-05
2.03163e-06
-2.06688e-06
1.12417e-05
1.81895e-06
-1.85307e-06
1.12744e-05
1.57343e-06
-1.60616e-06
1.13054e-05
1.29959e-06
-1.33058e-06
1.13342e-05
1.00316e-06
-1.03194e-06
1.13601e-05
6.91115e-07
-7.17073e-07
1.13824e-05
3.72348e-07
-3.94598e-07
1.14e-05
5.70063e-08
-7.46268e-08
1.14123e-05
-2.48151e-07
2.35877e-07
1.14185e-05
-5.37232e-07
5.31e-07
1.14181e-05
-8.05347e-07
8.05776e-07
1.14105e-05
-1.04875e-06
1.05634e-06
1.13954e-05
-1.26493e-06
1.28003e-06
1.13726e-05
-1.45258e-06
1.47537e-06
1.13421e-05
-1.61147e-06
1.64197e-06
1.13041e-05
-1.74228e-06
1.78028e-06
1.12589e-05
-1.84623e-06
1.89143e-06
1.1207e-05
-1.92484e-06
1.97678e-06
1.11487e-05
-1.97942e-06
2.03768e-06
1.10844e-05
-2.01069e-06
2.07496e-06
1.1015e-05
-2.01911e-06
2.08856e-06
1.09422e-05
-2.00576e-06
2.0786e-06
1.08678e-05
-1.97133e-06
2.04567e-06
1.0794e-05
-1.91567e-06
1.98952e-06
1.07226e-05
-1.83815e-06
1.90953e-06
1.06555e-05
-1.73795e-06
1.80501e-06
1.05944e-05
-1.61442e-06
1.67558e-06
1.05404e-05
-1.46744e-06
1.52143e-06
1.04945e-05
-1.29768e-06
1.34358e-06
1.04572e-05
-1.10668e-06
1.14395e-06
1.04288e-05
-8.96928e-07
9.25337e-07
1.04091e-05
-6.71701e-07
6.91366e-07
1.03979e-05
-4.3482e-07
4.46031e-07
1.03949e-05
-1.90668e-07
1.93671e-07
1.03991e-05
5.51425e-08
-5.93759e-08
1.04097e-05
2.97622e-07
-3.08163e-07
1.0426e-05
5.33268e-07
-5.49552e-07
1.04473e-05
7.58698e-07
-7.8007e-07
1.04731e-05
9.70738e-07
-9.96465e-07
1.05024e-05
1.16658e-06
-1.1959e-06
1.05346e-05
1.34391e-06
-1.37613e-06
1.0569e-05
1.50063e-06
-1.53499e-06
1.06047e-05
1.63518e-06
-1.67094e-06
1.06412e-05
1.74647e-06
-1.78296e-06
1.06779e-05
1.83392e-06
-1.87055e-06
1.07142e-05
1.89741e-06
-1.93373e-06
1.075e-05
1.93727e-06
-1.97313e-06
1.07861e-05
1.95267e-06
-1.98875e-06
1.08226e-05
1.93878e-06
-1.97527e-06
1.08587e-05
1.89377e-06
-1.92987e-06
1.08937e-05
1.81796e-06
-1.853e-06
1.09273e-05
1.71249e-06
-1.74608e-06
1.09592e-05
1.57911e-06
-1.61096e-06
1.0989e-05
1.42004e-06
-1.44991e-06
1.238e-06
-1.26568e-06
1.10885e-05
-2.19945e-06
1.08823e-05
-2.14825e-06
1.06874e-05
-2.07963e-06
1.05146e-05
-1.97838e-06
1.03731e-05
-1.83016e-06
1.02696e-05
-1.62557e-06
1.02072e-05
-1.36185e-06
1.0184e-05
-1.04262e-06
1.01963e-05
-6.80143e-07
1.02411e-05
-2.90787e-07
1.03117e-05
1.10018e-07
1.04008e-05
5.0579e-07
1.05031e-05
8.85151e-07
1.06139e-05
1.24065e-06
1.07284e-05
1.56747e-06
1.08427e-05
1.86295e-06
1.09537e-05
2.12642e-06
1.10592e-05
2.35848e-06
1.11578e-05
2.56033e-06
1.12492e-05
2.73333e-06
1.13335e-05
2.87849e-06
1.14111e-05
2.99628e-06
1.1483e-05
3.08648e-06
1.15509e-05
3.14803e-06
1.16179e-05
3.17725e-06
1.16868e-05
3.16449e-06
1.17575e-05
3.1009e-06
1.18299e-05
2.98061e-06
1.19039e-05
2.80017e-06
1.19789e-05
2.55854e-06
1.20538e-05
2.25754e-06
1.21272e-05
1.90222e-06
1.21974e-05
1.50114e-06
1.22622e-05
1.06655e-06
1.23187e-05
6.15507e-07
1.23642e-05
1.69001e-07
1.23969e-05
-2.58733e-07
1.24154e-05
-6.56239e-07
1.24188e-05
-1.01479e-06
1.24067e-05
-1.32865e-06
1.23794e-05
-1.59506e-06
1.23378e-05
-1.81391e-06
1.22828e-05
-1.98717e-06
1.22156e-05
-2.11819e-06
1.2137e-05
-2.21088e-06
1.2047e-05
-2.26894e-06
1.19463e-05
-2.29638e-06
1.18362e-05
-2.29926e-06
1.17181e-05
-2.28419e-06
1.15935e-05
-2.25644e-06
1.14639e-05
-2.21955e-06
1.13315e-05
-2.17485e-06
1.11988e-05
-2.12139e-06
1.10688e-05
-2.05609e-06
1.09448e-05
-1.97444e-06
1.08301e-05
-1.8713e-06
1.07275e-05
-1.74198e-06
1.06393e-05
-1.58315e-06
1.05671e-05
-1.39345e-06
1.05116e-05
-1.17379e-06
1.0473e-05
-9.27152e-07
1.04505e-05
-6.58179e-07
1.04438e-05
-3.7273e-07
1.04511e-05
-7.77681e-08
1.047e-05
2.18869e-07
1.04989e-05
5.10684e-07
1.05364e-05
7.92927e-07
1.05807e-05
1.06143e-06
1.06301e-05
1.31258e-06
1.06832e-05
1.54339e-06
1.07387e-05
1.7515e-06
1.07955e-05
1.93511e-06
1.08524e-05
2.09274e-06
1.09087e-05
2.22343e-06
1.09638e-05
2.32667e-06
1.10173e-05
2.40223e-06
1.10697e-05
2.44998e-06
1.11219e-05
2.46782e-06
1.11744e-05
2.44959e-06
1.12262e-05
2.39236e-06
1.1277e-05
2.29533e-06
1.13262e-05
2.15886e-06
1.13736e-05
1.98427e-06
1.14186e-05
1.7739e-06
1.14609e-05
1.53122e-06
1.14997e-05
1.26079e-06
1.15344e-05
9.68367e-07
1.15645e-05
6.61076e-07
1.15887e-05
3.48097e-07
1.16064e-05
3.93382e-08
1.16169e-05
-2.58605e-07
1.16196e-05
-5.39935e-07
1.16141e-05
-7.99893e-07
1.16002e-05
-1.0349e-06
1.15779e-05
-1.2426e-06
1.15472e-05
-1.42186e-06
1.15083e-05
-1.57261e-06
1.14617e-05
-1.69563e-06
1.14077e-05
-1.79224e-06
1.13468e-05
-1.86393e-06
1.12793e-05
-1.91192e-06
1.12057e-05
-1.93705e-06
1.11271e-05
-1.9405e-06
1.10452e-05
-1.92392e-06
1.0962e-05
-1.88811e-06
1.08794e-05
-1.83309e-06
1.07995e-05
-1.75826e-06
1.07243e-05
-1.66267e-06
1.06553e-05
-1.54548e-06
1.05941e-05
-1.40626e-06
1.05418e-05
-1.24531e-06
1.04989e-05
-1.06381e-06
1.04658e-05
-8.63869e-07
1.04426e-05
-6.48431e-07
1.04289e-05
-4.211e-07
1.04243e-05
-1.86086e-07
1.04279e-05
5.15216e-08
1.04389e-05
2.86577e-07
1.04567e-05
5.15508e-07
1.04804e-05
7.34944e-07
1.05094e-05
9.4176e-07
1.05428e-05
1.13317e-06
1.05799e-05
1.30684e-06
1.06198e-05
1.4607e-06
1.06619e-05
1.59315e-06
1.07053e-05
1.70306e-06
1.07494e-05
1.78978e-06
1.07938e-05
1.85303e-06
1.08383e-05
1.89281e-06
1.08833e-05
1.90765e-06
1.09286e-05
1.89343e-06
1.09735e-05
1.84886e-06
1.10173e-05
1.77422e-06
1.10593e-05
1.67049e-06
1.10991e-05
1.53933e-06
1.11362e-05
1.38288e-06
1.20383e-06
1.11976e-05
-1.99293e-06
1.09889e-05
-1.93948e-06
1.07863e-05
-1.87712e-06
1.06008e-05
-1.7928e-06
1.04428e-05
-1.67226e-06
1.03209e-05
-1.50364e-06
1.02398e-05
-1.28073e-06
1.02012e-05
-1.00406e-06
1.02025e-05
-6.8141e-07
1.02383e-05
-3.2663e-07
1.03026e-05
4.58061e-08
1.03875e-05
4.20796e-07
1.04878e-05
7.84928e-07
1.05983e-05
1.13016e-06
1.07146e-05
1.45115e-06
1.08329e-05
1.74465e-06
1.09502e-05
2.00911e-06
1.10643e-05
2.24433e-06
1.1174e-05
2.45068e-06
1.12786e-05
2.62875e-06
1.1378e-05
2.77902e-06
1.14728e-05
2.90147e-06
1.1564e-05
2.99536e-06
1.16531e-05
3.05891e-06
1.17427e-05
3.0876e-06
1.18345e-05
3.07273e-06
1.19283e-05
3.00706e-06
1.20236e-05
2.88531e-06
1.21195e-05
2.70432e-06
1.22146e-05
2.46343e-06
1.23073e-05
2.16488e-06
1.23954e-05
1.81405e-06
1.24769e-05
1.41972e-06
1.25489e-05
9.94515e-07
1.26082e-05
5.56167e-07
1.26525e-05
1.24741e-07
1.26802e-05
-2.86468e-07
1.26905e-05
-6.66535e-07
1.26831e-05
-1.00737e-06
1.26583e-05
-1.30385e-06
1.2617e-05
-1.55377e-06
1.25605e-05
-1.7574e-06
1.24903e-05
-1.91692e-06
1.24076e-05
-2.03557e-06
1.23136e-05
-2.11684e-06
1.22088e-05
-2.16416e-06
1.20945e-05
-2.1821e-06
1.19724e-05
-2.17715e-06
1.18438e-05
-2.15555e-06
1.17098e-05
-2.12243e-06
1.15717e-05
-2.08145e-06
1.14312e-05
-2.03435e-06
1.12905e-05
-1.98071e-06
1.11524e-05
-1.91804e-06
1.10202e-05
-1.84221e-06
1.08971e-05
-1.74821e-06
1.07863e-05
-1.63112e-06
1.06902e-05
-1.48707e-06
1.06107e-05
-1.31396e-06
1.05488e-05
-1.11187e-06
1.05047e-05
-8.83051e-07
1.0478e-05
-6.31516e-07
1.04679e-05
-3.62661e-07
1.0473e-05
-8.28103e-08
1.04909e-05
2.00944e-07
1.052e-05
4.81588e-07
1.05587e-05
7.54255e-07
1.06053e-05
1.01477e-06
1.06584e-05
1.25951e-06
1.07164e-05
1.48538e-06
1.0778e-05
1.6899e-06
1.0842e-05
1.87111e-06
1.09074e-05
2.02736e-06
1.09733e-05
2.15754e-06
1.10391e-05
2.2609e-06
1.11044e-05
2.33692e-06
1.11694e-05
2.38496e-06
1.12349e-05
2.40232e-06
1.13007e-05
2.38379e-06
1.1366e-05
2.32705e-06
1.143e-05
2.23131e-06
1.1492e-05
2.09686e-06
1.15513e-05
1.92501e-06
1.1607e-05
1.71815e-06
1.16585e-05
1.47976e-06
1.17049e-05
1.21442e-06
1.17453e-05
9.27873e-07
1.17791e-05
6.27295e-07
1.1805e-05
3.22222e-07
1.18223e-05
2.20307e-08
1.18305e-05
-2.66813e-07
1.18293e-05
-5.38673e-07
1.18184e-05
-7.88993e-07
1.17979e-05
-1.01439e-06
1.1768e-05
-1.21273e-06
1.17291e-05
-1.383e-06
1.16818e-05
-1.52525e-06
1.16264e-05
-1.6403e-06
1.15637e-05
-1.72947e-06
1.14939e-05
-1.79414e-06
1.14174e-05
-1.83545e-06
1.13349e-05
-1.85455e-06
1.12477e-05
-1.85331e-06
1.11574e-05
-1.83365e-06
1.10659e-05
-1.79659e-06
1.09751e-05
-1.74232e-06
1.08872e-05
-1.6703e-06
1.08041e-05
-1.57957e-06
1.07277e-05
-1.46909e-06
1.06596e-05
-1.33814e-06
1.06009e-05
-1.18667e-06
1.05526e-05
-1.01546e-06
1.05149e-05
-8.26229e-07
1.04881e-05
-6.21583e-07
1.04718e-05
-4.04839e-07
1.04657e-05
-1.79938e-07
1.04688e-05
4.84247e-08
1.04803e-05
2.75059e-07
1.04995e-05
4.96311e-07
1.05256e-05
7.0884e-07
1.05578e-05
9.09565e-07
1.05952e-05
1.09571e-06
1.06371e-05
1.26494e-06
1.06827e-05
1.41519e-06
1.0731e-05
1.54484e-06
1.07813e-05
1.65273e-06
1.0833e-05
1.73811e-06
1.08854e-05
1.80056e-06
1.09385e-05
1.83971e-06
1.09924e-05
1.85373e-06
1.10467e-05
1.83917e-06
1.11005e-05
1.79511e-06
1.11529e-05
1.72179e-06
1.12033e-05
1.62011e-06
1.1251e-05
1.49164e-06
1.12954e-05
1.33846e-06
1.16322e-06
1.13179e-05
-1.79256e-06
1.11118e-05
-1.7334e-06
1.09065e-05
-1.67187e-06
1.07121e-05
-1.59834e-06
1.05398e-05
-1.49998e-06
1.04002e-05
-1.36398e-06
1.03004e-05
-1.18099e-06
1.0244e-05
-9.47673e-07
1.02303e-05
-6.67722e-07
1.02546e-05
-3.50857e-07
1.03102e-05
-9.83986e-09
1.03899e-05
3.41139e-07
1.0487e-05
6.87816e-07
1.05965e-05
1.02063e-06
1.0714e-05
1.33364e-06
1.08358e-05
1.6229e-06
1.09588e-05
1.88607e-06
1.1081e-05
2.12211e-06
1.1201e-05
2.33069e-06
1.13181e-05
2.51168e-06
1.14322e-05
2.66492e-06
1.15437e-05
2.78995e-06
1.16535e-05
2.88556e-06
1.1763e-05
2.94937e-06
1.18742e-05
2.97641e-06
1.19879e-05
2.95906e-06
1.21037e-05
2.8913e-06
1.22205e-05
2.7685e-06
1.23368e-05
2.58797e-06
1.24507e-05
2.34952e-06
1.25598e-05
2.05581e-06
1.26613e-05
1.71258e-06
1.27523e-05
1.3287e-06
1.283e-05
9.16821e-07
1.28907e-05
4.95422e-07
1.29327e-05
8.27897e-08
1.29547e-05
-3.08491e-07
1.29564e-05
-6.68228e-07
1.29381e-05
-9.89048e-07
1.29007e-05
-1.26649e-06
1.28458e-05
-1.49884e-06
1.27751e-05
-1.68669e-06
1.26904e-05
-1.8322e-06
1.25932e-05
-1.93839e-06
1.24848e-05
-2.00843e-06
1.23665e-05
-2.04586e-06
1.22402e-05
-2.0558e-06
1.21076e-05
-2.04455e-06
1.19699e-05
-2.01785e-06
1.1828e-05
-1.98057e-06
1.1683e-05
-1.9364e-06
1.1536e-05
-1.88737e-06
1.13889e-05
-1.83362e-06
1.12442e-05
-1.77332e-06
1.11049e-05
-1.70291e-06
1.09743e-05
-1.61768e-06
1.08559e-05
-1.51265e-06
1.07523e-05
-1.38348e-06
1.06657e-05
-1.22738e-06
1.05974e-05
-1.04359e-06
1.05478e-05
-8.33495e-07
1.05167e-05
-6.00416e-07
1.05032e-05
-3.4916e-07
1.0506e-05
-8.55258e-08
1.05229e-05
1.84037e-07
1.0552e-05
4.5242e-07
1.05919e-05
7.14393e-07
1.06409e-05
9.65782e-07
1.06975e-05
1.20292e-06
1.07602e-05
1.42266e-06
1.08277e-05
1.62237e-06
1.08989e-05
1.79997e-06
1.09725e-05
1.95368e-06
1.10479e-05
2.0822e-06
1.11242e-05
2.18459e-06
1.12011e-05
2.26005e-06
1.12786e-05
2.30746e-06
1.1357e-05
2.32385e-06
1.1436e-05
2.30487e-06
1.15144e-05
2.24864e-06
1.15912e-05
2.15444e-06
1.16655e-05
2.02256e-06
1.17362e-05
1.85433e-06
1.18022e-05
1.65216e-06
1.18625e-05
1.41949e-06
1.1916e-05
1.16091e-06
1.19618e-05
8.8212e-07
1.19988e-05
5.90287e-07
1.20258e-05
2.95189e-07
1.20423e-05
5.52816e-09
1.20479e-05
-2.72401e-07
1.20424e-05
-5.33191e-07
1.20259e-05
-7.72509e-07
1.19987e-05
-9.87201e-07
1.19613e-05
-1.17532e-06
1.19143e-05
-1.33603e-06
1.18586e-05
-1.46946e-06
1.17947e-05
-1.57643e-06
1.17233e-05
-1.65813e-06
1.1645e-05
-1.71579e-06
1.15601e-05
-1.75052e-06
1.14694e-05
-1.76386e-06
1.13743e-05
-1.75823e-06
1.12763e-05
-1.73568e-06
1.11772e-05
-1.69747e-06
1.10789e-05
-1.64399e-06
1.09834e-05
-1.57486e-06
1.0893e-05
-1.48912e-06
1.08095e-05
-1.3856e-06
1.07347e-05
-1.26334e-06
1.06699e-05
-1.12192e-06
1.06162e-05
-9.61724e-07
1.0574e-05
-7.84068e-07
1.05436e-05
-5.91163e-07
1.05248e-05
-3.86002e-07
1.05171e-05
-1.72225e-07
1.05197e-05
4.5823e-08
1.05317e-05
2.63067e-07
1.05523e-05
4.75697e-07
1.05807e-05
6.80418e-07
1.06161e-05
8.74185e-07
1.06575e-05
1.05424e-06
1.07042e-05
1.21824e-06
1.07553e-05
1.36415e-06
1.08098e-05
1.49031e-06
1.0867e-05
1.59553e-06
1.09262e-05
1.67896e-06
1.09867e-05
1.74004e-06
1.10483e-05
1.77807e-06
1.1111e-05
1.79102e-06
1.11741e-05
1.77608e-06
1.12366e-05
1.7326e-06
1.12976e-05
1.66078e-06
1.13563e-05
1.56149e-06
1.14117e-05
1.4362e-06
1.14632e-05
1.28695e-06
1.11631e-06
1.14448e-05
-1.60228e-06
1.1247e-05
-1.53566e-06
1.10451e-05
-1.46998e-06
1.0847e-05
-1.40021e-06
1.06638e-05
-1.31672e-06
1.05072e-05
-1.2074e-06
1.03872e-05
-1.06105e-06
1.03101e-05
-8.70527e-07
1.02772e-05
-6.34869e-07
1.02858e-05
-3.59438e-07
1.03302e-05
-5.41861e-08
1.0403e-05
2.68324e-07
1.04963e-05
5.94461e-07
1.06044e-05
9.12538e-07
1.07228e-05
1.21532e-06
1.08476e-05
1.49809e-06
1.09759e-05
1.75774e-06
1.11057e-05
1.99237e-06
1.12354e-05
2.20094e-06
1.13644e-05
2.3827e-06
1.14924e-05
2.53687e-06
1.16199e-05
2.6625e-06
1.17475e-05
2.758e-06
1.18763e-05
2.82056e-06
1.20076e-05
2.84507e-06
1.21417e-05
2.82498e-06
1.22777e-05
2.75525e-06
1.24143e-05
2.63195e-06
1.25492e-05
2.45303e-06
1.26798e-05
2.21891e-06
1.2803e-05
1.93265e-06
1.29155e-05
1.60002e-06
1.30143e-05
1.2299e-06
1.30961e-05
8.35101e-07
1.31571e-05
4.34371e-07
1.3196e-05
4.39031e-08
1.3212e-05
-3.24484e-07
1.32052e-05
-6.6143e-07
1.31765e-05
-9.60326e-07
1.31274e-05
-1.21737e-06
1.30598e-05
-1.43132e-06
1.29761e-05
-1.60292e-06
1.28781e-05
-1.73428e-06
1.27678e-05
-1.82808e-06
1.26467e-05
-1.8873e-06
1.25167e-05
-1.91588e-06
1.23802e-05
-1.91926e-06
1.22388e-05
-1.90318e-06
1.20938e-05
-1.87279e-06
1.19458e-05
-1.8326e-06
1.17955e-05
-1.78613e-06
1.16438e-05
-1.73565e-06
1.1492e-05
-1.6818e-06
1.13421e-05
-1.62347e-06
1.1197e-05
-1.55783e-06
1.106e-05
-1.48068e-06
1.09346e-05
-1.38717e-06
1.08238e-05
-1.27267e-06
1.07301e-05
-1.13375e-06
1.06553e-05
-9.68775e-07
1.06001e-05
-7.78243e-07
1.05643e-05
-5.64634e-07
1.05472e-05
-3.32072e-07
1.05475e-05
-8.58264e-08
1.05634e-05
1.68177e-07
1.05926e-05
4.23188e-07
1.06336e-05
6.73373e-07
1.06849e-05
9.14526e-07
1.07449e-05
1.14293e-06
1.08122e-05
1.35536e-06
1.08855e-05
1.54908e-06
1.09635e-05
1.72189e-06
1.10453e-05
1.87192e-06
1.11298e-05
1.99769e-06
1.12163e-05
2.09805e-06
1.13044e-05
2.17197e-06
1.13939e-05
2.21794e-06
1.14849e-05
2.23293e-06
1.15764e-05
2.21338e-06
1.16673e-05
2.15773e-06
1.17563e-05
2.06536e-06
1.18423e-05
1.9366e-06
1.19238e-05
1.77282e-06
1.19995e-05
1.57644e-06
1.20681e-05
1.35093e-06
1.21282e-05
1.10079e-06
1.21787e-05
8.31668e-07
1.22183e-05
5.50678e-07
1.22459e-05
2.67587e-07
1.2261e-05
-9.63235e-09
1.22635e-05
-2.74923e-07
1.22535e-05
-5.2316e-07
1.22313e-05
-7.50274e-07
1.21974e-05
-9.53361e-07
1.21528e-05
-1.13064e-06
1.20981e-05
-1.2814e-06
1.20345e-05
-1.40578e-06
1.19626e-05
-1.50455e-06
1.18832e-05
-1.57876e-06
1.17969e-05
-1.62947e-06
1.17042e-05
-1.65784e-06
1.16062e-05
-1.66584e-06
1.15041e-05
-1.65612e-06
1.13993e-05
-1.63087e-06
1.12934e-05
-1.59159e-06
1.11883e-05
-1.53891e-06
1.10861e-05
-1.47264e-06
1.09889e-05
-1.39189e-06
1.08987e-05
-1.29546e-06
1.08176e-05
-1.18216e-06
1.07469e-05
-1.05125e-06
1.06879e-05
-9.02711e-07
1.06412e-05
-7.37406e-07
1.06072e-05
-5.57136e-07
1.05857e-05
-3.64533e-07
1.05764e-05
-1.6291e-07
1.05785e-05
4.37639e-08
1.05909e-05
2.50642e-07
1.06129e-05
4.53713e-07
1.06436e-05
6.4973e-07
1.06821e-05
8.3568e-07
1.07275e-05
1.00883e-06
1.07789e-05
1.16683e-06
1.08354e-05
1.30767e-06
1.0896e-05
1.42967e-06
1.096e-05
1.53158e-06
1.10264e-05
1.61248e-06
1.10949e-05
1.67163e-06
1.11649e-05
1.70806e-06
1.12362e-05
1.71972e-06
1.13079e-05
1.70438e-06
1.13789e-05
1.66157e-06
1.14482e-05
1.59146e-06
1.15148e-05
1.49489e-06
1.15777e-05
1.37329e-06
1.16361e-05
1.22862e-06
1.06338e-06
1.15727e-05
-1.42404e-06
1.13878e-05
-1.35075e-06
1.11961e-05
-1.27826e-06
1.10017e-05
-1.20582e-06
1.08135e-05
-1.12852e-06
1.06433e-05
-1.03726e-06
1.05033e-05
-9.20971e-07
1.04026e-05
-7.69904e-07
1.03464e-05
-5.78628e-07
1.03345e-05
-3.4755e-07
1.0363e-05
-8.26263e-08
1.04251e-05
2.06156e-07
1.05128e-05
5.06745e-07
1.06186e-05
8.06817e-07
1.07371e-05
1.09676e-06
1.08646e-05
1.37064e-06
1.09978e-05
1.62448e-06
1.11346e-05
1.85554e-06
1.12736e-05
2.06198e-06
1.14139e-05
2.24245e-06
1.15551e-05
2.39564e-06
1.16975e-05
2.5201e-06
1.18416e-05
2.61389e-06
1.19882e-05
2.67396e-06
1.21379e-05
2.69533e-06
1.22905e-05
2.67241e-06
1.24447e-05
2.60104e-06
1.25986e-05
2.47807e-06
1.27494e-05
2.30222e-06
1.28939e-05
2.07443e-06
1.30286e-05
1.79792e-06
1.31501e-05
1.47854e-06
1.32549e-05
1.12515e-06
1.33391e-05
7.50878e-07
1.33995e-05
3.73954e-07
1.34349e-05
8.51001e-09
1.34449e-05
-3.34532e-07
1.34302e-05
-6.46706e-07
1.33921e-05
-9.222e-07
1.33326e-05
-1.15784e-06
1.3254e-05
-1.35275e-06
1.31588e-05
-1.50778e-06
1.30494e-05
-1.62487e-06
1.29278e-05
-1.70642e-06
1.2796e-05
-1.7555e-06
1.26565e-05
-1.77644e-06
1.25118e-05
-1.77459e-06
1.23637e-05
-1.75502e-06
1.22131e-05
-1.72227e-06
1.20609e-05
-1.68034e-06
1.19072e-05
-1.63248e-06
1.17526e-05
-1.58103e-06
1.15979e-05
-1.52709e-06
1.14447e-05
-1.47024e-06
1.12954e-05
-1.40851e-06
1.11531e-05
-1.33844e-06
1.10215e-05
-1.25551e-06
1.09038e-05
-1.15504e-06
1.08032e-05
-1.03308e-06
1.07216e-05
-8.87182e-07
1.06602e-05
-7.1687e-07
1.06193e-05
-5.23696e-07
1.05982e-05
-3.10981e-07
1.05957e-05
-8.33663e-08
1.06102e-05
1.53673e-07
1.06394e-05
3.93989e-07
1.06815e-05
6.31297e-07
1.07349e-05
8.6111e-07
1.07982e-05
1.07966e-06
1.08699e-05
1.28366e-06
1.09487e-05
1.47029e-06
1.10333e-05
1.6372e-06
1.11228e-05
1.78246e-06
1.12161e-05
1.90443e-06
1.13124e-05
2.00178e-06
1.14111e-05
2.07325e-06
1.15119e-05
2.11708e-06
1.16146e-05
2.13032e-06
1.17178e-05
2.1101e-06
1.18204e-05
2.05512e-06
1.1921e-05
1.96486e-06
1.20178e-05
1.83976e-06
1.21093e-05
1.68129e-06
1.21938e-05
1.49192e-06
1.22697e-05
1.27504e-06
1.23355e-05
1.03501e-06
1.23899e-05
7.77304e-07
1.24315e-05
5.09086e-07
1.24592e-05
2.39834e-07
1.24728e-05
-2.32156e-08
1.24722e-05
-2.74312e-07
1.24577e-05
-5.08658e-07
1.24299e-05
-7.22492e-07
1.23897e-05
-9.13167e-07
1.23382e-05
-1.07909e-06
1.22764e-05
-1.21961e-06
1.22054e-05
-1.33485e-06
1.21263e-05
-1.42544e-06
1.20398e-05
-1.49222e-06
1.19464e-05
-1.53611e-06
1.1847e-05
-1.55843e-06
1.17426e-05
-1.56147e-06
1.16345e-05
-1.54796e-06
1.15238e-05
-1.5202e-06
1.14121e-05
-1.4799e-06
1.13012e-05
-1.42797e-06
1.1193e-05
-1.36444e-06
1.10897e-05
-1.28859e-06
1.09934e-05
-1.19922e-06
1.09063e-05
-1.09502e-06
1.083e-05
-9.74934e-07
1.07658e-05
-8.38541e-07
1.07146e-05
-6.86264e-07
1.0677e-05
-5.19454e-07
1.06528e-05
-3.40336e-07
1.06417e-05
-1.51866e-07
1.06431e-05
4.23518e-08
1.06559e-05
2.37874e-07
1.06792e-05
4.30454e-07
1.0712e-05
6.16881e-07
1.07535e-05
7.9417e-07
1.08027e-05
9.59623e-07
1.08587e-05
1.11087e-06
1.09204e-05
1.24593e-06
1.0987e-05
1.36312e-06
1.10574e-05
1.46111e-06
1.1131e-05
1.53889e-06
1.12071e-05
1.59558e-06
1.12851e-05
1.63e-06
1.13646e-05
1.64021e-06
1.14446e-05
1.62447e-06
1.15237e-05
1.58241e-06
1.1601e-05
1.51422e-06
1.16751e-05
1.42071e-06
1.17452e-05
1.30325e-06
1.181e-05
1.16378e-06
1.00475e-06
1.16978e-05
-1.2576e-06
1.15275e-05
-1.1805e-06
1.13511e-05
-1.10185e-06
1.11686e-05
-1.02333e-06
1.09846e-05
-9.44466e-07
1.08083e-05
-8.60966e-07
1.0652e-05
-7.64692e-07
1.05278e-05
-6.45703e-07
1.04446e-05
-4.9546e-07
1.04066e-05
-3.09536e-07
1.04128e-05
-8.88561e-08
1.04584e-05
1.60603e-07
1.05359e-05
4.29211e-07
1.0637e-05
7.05783e-07
1.07544e-05
9.79313e-07
1.08836e-05
1.24144e-06
1.10211e-05
1.48695e-06
1.11645e-05
1.71218e-06
1.1312e-05
1.91444e-06
1.14628e-05
2.09171e-06
1.16163e-05
2.24217e-06
1.17724e-05
2.36392e-06
1.19316e-05
2.45471e-06
1.20942e-05
2.51135e-06
1.22603e-05
2.52923e-06
1.24291e-05
2.50368e-06
1.25988e-05
2.4313e-06
1.2767e-05
2.30981e-06
1.29307e-05
2.13859e-06
1.30862e-05
1.91889e-06
1.323e-05
1.65417e-06
1.33582e-05
1.35034e-06
1.3467e-05
1.01628e-06
1.35524e-05
6.65477e-07
1.36115e-05
3.14873e-07
1.36433e-05
-2.33062e-08
1.36479e-05
-3.39125e-07
1.36263e-05
-6.25058e-07
1.35802e-05
-8.76088e-07
1.3512e-05
-1.08962e-06
1.34243e-05
-1.26508e-06
1.33198e-05
-1.40333e-06
1.32011e-05
-1.50609e-06
1.30703e-05
-1.57569e-06
1.29303e-05
-1.61545e-06
1.27838e-05
-1.6299e-06
1.26331e-05
-1.62397e-06
1.24802e-05
-1.60208e-06
1.23261e-05
-1.56813e-06
1.21713e-05
-1.52556e-06
1.2016e-05
-1.47722e-06
1.18604e-05
-1.42535e-06
1.17046e-05
-1.37138e-06
1.155e-05
-1.31556e-06
1.13982e-05
-1.25678e-06
1.12522e-05
-1.19245e-06
1.11155e-05
-1.11875e-06
1.09916e-05
-1.03118e-06
1.0884e-05
-9.25499e-07
1.07954e-05
-7.98541e-07
1.07274e-05
-6.48845e-07
1.06806e-05
-4.76935e-07
1.06548e-05
-2.85203e-07
1.0649e-05
-7.75465e-08
1.06616e-05
1.41105e-07
1.06904e-05
3.65152e-07
1.07333e-05
5.88412e-07
1.07886e-05
8.05765e-07
1.08549e-05
1.01338e-06
1.09307e-05
1.20787e-06
1.10147e-05
1.38633e-06
1.11056e-05
1.54631e-06
1.12023e-05
1.68577e-06
1.13037e-05
1.80299e-06
1.1409e-05
1.89644e-06
1.15176e-05
1.96466e-06
1.1629e-05
2.00575e-06
1.17423e-05
2.01697e-06
1.18564e-05
1.996e-06
1.19697e-05
1.94179e-06
1.20806e-05
1.85402e-06
1.2187e-05
1.7333e-06
1.22872e-05
1.58113e-06
1.23792e-05
1.39991e-06
1.24613e-05
1.19294e-06
1.25319e-05
9.64453e-07
1.25894e-05
7.19771e-07
1.26324e-05
4.66044e-07
1.266e-05
2.12256e-07
1.26719e-05
-3.5118e-08
1.26683e-05
-2.70694e-07
1.26497e-05
-4.90036e-07
1.26169e-05
-6.89712e-07
1.25711e-05
-8.67326e-07
1.25134e-05
-1.02145e-06
1.24453e-05
-1.1515e-06
1.2368e-05
-1.25751e-06
1.22825e-05
-1.33995e-06
1.21897e-05
-1.39944e-06
1.20904e-05
-1.43678e-06
1.19854e-05
-1.45345e-06
1.18759e-05
-1.45194e-06
1.17628e-05
-1.4349e-06
1.16474e-05
-1.40477e-06
1.15309e-05
-1.36347e-06
1.14151e-05
-1.31216e-06
1.13019e-05
-1.25116e-06
1.11932e-05
-1.17997e-06
1.10915e-05
-1.09751e-06
1.09989e-05
-1.00238e-06
1.09172e-05
-8.93271e-07
1.08481e-05
-7.6938e-07
1.07925e-05
-6.30678e-07
1.07511e-05
-4.78048e-07
1.0724e-05
-3.13269e-07
1.0711e-05
-1.38908e-07
1.07116e-05
4.18033e-08
1.07246e-05
2.24917e-07
1.07489e-05
4.06094e-07
1.07837e-05
5.82053e-07
1.08281e-05
7.49855e-07
1.08809e-05
9.06828e-07
1.09411e-05
1.05061e-06
1.10078e-05
1.17921e-06
1.108e-05
1.29095e-06
1.11567e-05
1.38444e-06
1.1237e-05
1.45857e-06
1.13203e-05
1.5123e-06
1.14059e-05
1.54437e-06
1.14931e-05
1.55298e-06
1.15808e-05
1.53681e-06
1.16676e-05
1.49557e-06
1.17524e-05
1.4295e-06
1.18337e-05
1.3394e-06
1.19103e-05
1.22664e-06
1.1981e-05
1.09308e-06
9.41082e-07
1.1818e-05
-1.10117e-06
1.16614e-05
-1.02393e-06
1.15021e-05
-9.42487e-07
1.13375e-05
-8.58759e-07
1.11676e-05
-7.74587e-07
1.09967e-05
-6.90061e-07
1.0834e-05
-6.01917e-07
1.06915e-05
-5.03293e-07
1.05816e-05
-3.85554e-07
1.05131e-05
-2.41006e-07
1.04899e-05
-6.56158e-08
1.05107e-05
1.39787e-07
1.05702e-05
3.69676e-07
1.06608e-05
6.15179e-07
1.0774e-05
8.66101e-07
1.0903e-05
1.11246e-06
1.10434e-05
1.34654e-06
1.11922e-05
1.56336e-06
1.13474e-05
1.75928e-06
1.15076e-05
1.93149e-06
1.16722e-05
2.07761e-06
1.18407e-05
2.19534e-06
1.20133e-05
2.28214e-06
1.21899e-05
2.33478e-06
1.237e-05
2.34915e-06
1.25522e-05
2.32143e-06
1.27345e-05
2.24899e-06
1.29141e-05
2.13024e-06
1.30876e-05
1.96507e-06
1.32514e-05
1.75508e-06
1.34017e-05
1.5039e-06
1.35345e-05
1.2175e-06
1.36459e-05
9.04861e-07
1.37315e-05
5.79932e-07
1.37889e-05
2.57444e-07
1.38175e-05
-5.18689e-08
1.38175e-05
-3.3915e-07
1.37903e-05
-5.97832e-07
1.37379e-05
-8.23693e-07
1.36629e-05
-1.01467e-06
1.35683e-05
-1.17041e-06
1.34567e-05
-1.29177e-06
1.33309e-05
-1.38032e-06
1.31937e-05
-1.43847e-06
1.30481e-05
-1.46983e-06
1.2897e-05
-1.47885e-06
1.27429e-05
-1.46981e-06
1.25873e-05
-1.44652e-06
1.24315e-05
-1.41229e-06
1.22759e-05
-1.36994e-06
1.21205e-05
-1.32191e-06
1.19654e-05
-1.27023e-06
1.18105e-05
-1.21644e-06
1.16562e-05
-1.16132e-06
1.15041e-05
-1.10459e-06
1.13562e-05
-1.04457e-06
1.12158e-05
-9.78341e-07
1.10866e-05
-9.0202e-07
1.09725e-05
-8.11371e-07
1.08766e-05
-7.02676e-07
1.08013e-05
-5.7358e-07
1.07479e-05
-4.2351e-07
1.07165e-05
-2.5379e-07
1.07064e-05
-6.74187e-08
1.07161e-05
1.31342e-07
1.07439e-05
3.3743e-07
1.07871e-05
5.45175e-07
1.0844e-05
7.48916e-07
1.09129e-05
9.44477e-07
1.09923e-05
1.12841e-06
1.10809e-05
1.29769e-06
1.11775e-05
1.44978e-06
1.12807e-05
1.58253e-06
1.13896e-05
1.69412e-06
1.15031e-05
1.78288e-06
1.16206e-05
1.84716e-06
1.17414e-05
1.885e-06
1.18644e-05
1.89398e-06
1.19881e-05
1.87231e-06
1.21107e-05
1.81919e-06
1.22302e-05
1.73446e-06
1.23447e-05
1.61881e-06
1.24521e-05
1.47376e-06
1.25503e-05
1.30168e-06
1.26375e-05
1.10576e-06
1.27119e-05
8.90062e-07
1.27719e-05
6.59781e-07
1.28158e-05
4.22073e-07
1.2843e-05
1.85096e-07
1.28533e-05
-4.53706e-08
1.28469e-05
-2.64368e-07
1.28247e-05
-4.67849e-07
1.27877e-05
-6.5272e-07
1.27372e-05
-8.16824e-07
1.26747e-05
-9.58874e-07
1.26015e-05
-1.07829e-06
1.2519e-05
-1.17502e-06
1.24283e-05
-1.24931e-06
1.23305e-05
-1.30159e-06
1.22263e-05
-1.33262e-06
1.21169e-05
-1.34405e-06
1.20033e-05
-1.33835e-06
1.18865e-05
-1.31811e-06
1.17676e-05
-1.28579e-06
1.16476e-05
-1.24347e-06
1.1528e-05
-1.19259e-06
1.14106e-05
-1.13381e-06
1.12976e-05
-1.06693e-06
1.11912e-05
-9.91074e-07
1.10936e-05
-9.04819e-07
1.1007e-05
-8.06662e-07
1.09331e-05
-6.95448e-07
1.08731e-05
-5.70705e-07
1.08279e-05
-4.32834e-07
1.07978e-05
-2.83149e-07
1.07826e-05
-1.23783e-07
1.0782e-05
4.24352e-08
1.07949e-05
2.12036e-07
1.08201e-05
3.80896e-07
1.08566e-05
5.45525e-07
1.09034e-05
7.0303e-07
1.09595e-05
8.50772e-07
1.10237e-05
9.86401e-07
1.1095e-05
1.1079e-06
1.11724e-05
1.21358e-06
1.12548e-05
1.30201e-06
1.13414e-05
1.37198e-06
1.14314e-05
1.42231e-06
1.15241e-05
1.45168e-06
1.16185e-05
1.45857e-06
1.17133e-05
1.442e-06
1.18071e-05
1.40177e-06
1.18985e-05
1.33813e-06
1.1986e-05
1.25189e-06
1.20683e-05
1.14436e-06
1.2144e-05
1.01734e-06
8.73083e-07
1.19335e-05
-9.52633e-07
1.17878e-05
-8.78155e-07
1.16434e-05
-7.98159e-07
1.14981e-05
-7.13393e-07
1.13491e-05
-6.25589e-07
1.11957e-05
-5.36713e-07
1.10413e-05
-4.47513e-07
1.08941e-05
-3.56043e-07
1.07656e-05
-2.57066e-07
1.0668e-05
-1.43403e-07
1.06106e-05
-8.23205e-09
1.05979e-05
1.52478e-07
1.0629e-05
3.38531e-07
1.0699e-05
5.45271e-07
1.08001e-05
7.64929e-07
1.09243e-05
9.88325e-07
1.10645e-05
1.20626e-06
1.12166e-05
1.4113e-06
1.13776e-05
1.59826e-06
1.15457e-05
1.76337e-06
1.17198e-05
1.90356e-06
1.18991e-05
2.01608e-06
1.20831e-05
2.09812e-06
1.22714e-05
2.14649e-06
1.24629e-05
2.15764e-06
1.26558e-05
2.12853e-06
1.28476e-05
2.05712e-06
1.30355e-05
1.94235e-06
1.32161e-05
1.78455e-06
1.33855e-05
1.5856e-06
1.35402e-05
1.34928e-06
1.3676e-05
1.08165e-06
1.37887e-05
7.92136e-07
1.3874e-05
4.94684e-07
1.393e-05
2.01479e-07
1.3956e-05
-7.79007e-08
1.39526e-05