/*--------------------------------*- C++ -*----------------------------------*\
| =========                 |                                                 |
| \\      /  F ield         | OpenFOAM: The Open Source CFD Toolbox           |
|  \\    /   O peration     | Version:  2206                                  |
|   \\  /    A nd           | Website:  www.openfoam.com                      |
|    \\/     M anipulation  |                                                 |
\*---------------------------------------------------------------------------*/
FoamFile
{
    version     2.0;
    format      ascii;
    arch        "LSB;label=32;scalar=64";
    class       volVectorField;
    location    "19.1001";
    object      ddtCorrDdt0(U);
}
// * * * * * * * * * * * * * * * * * * * * * * * * * * * * * * * * * * * * * //

dimensions      [0 1 -2 0 0 0 0];

internalField   nonuniform List<vector> 
3063
(
(24.012 4.79331 0)
(13.4896 5.57542 0)
(0.490747 7.22764 0)
(-10.5898 5.92278 0)
(-22.264 2.23887 0)
(-23.832 -0.308456 0)
(-24.1817 -1.75709 0)
(-20.6414 -2.68488 0)
(-13.6276 -2.98457 0)
(-7.41229 -2.87005 0)
(0.635363 -2.56364 0)
(8.22984 -1.63029 0)
(13.422 -0.902254 0)
(18.0398 -0.442288 0)
(21.175 -0.0552864 0)
(22.7296 0.300084 0)
(22.9659 0.543989 0)
(22.6143 0.663041 0)
(21.2948 0.569678 0)
(20.2965 0.115413 0)
(19.7981 -1.04968 0)
(21.5574 -2.17014 0)
(15.3719 11.9993 0)
(8.20146 18.5296 0)
(1.25605 20.3752 0)
(-10.2316 15.8929 0)
(-15.6185 7.93858 0)
(-17.4632 -0.192544 0)
(-17.7847 -5.75871 0)
(-15.7726 -9.28682 0)
(-12.2205 -11.3257 0)
(-7.5688 -12.0564 0)
(-2.52145 -11.8111 0)
(2.29662 -10.3923 0)
(6.92838 -8.13909 0)
(10.838 -5.60868 0)
(13.7623 -3.16122 0)
(15.6379 -1.04081 0)
(16.9065 0.555694 0)
(17.5125 1.57421 0)
(17.7918 1.89467 0)
(18.2658 1.36142 0)
(18.8171 -0.186561 0)
(21.0833 -3.02742 0)
(-3.31828 14.468 0)
(-3.15809 26.532 0)
(-5.28404 28.8443 0)
(-6.37561 23.5566 0)
(-7.40408 15.7018 0)
(-7.50242 5.07994 0)
(-7.45641 -3.59992 0)
(-7.01859 -9.33787 0)
(-6.47087 -12.6239 0)
(-5.59302 -14.2417 0)
(-4.38369 -14.3946 0)
(-2.94134 -13.2866 0)
(-1.38501 -11.2712 0)
(0.222941 -8.73951 0)
(1.85011 -6.09787 0)
(3.36376 -3.70518 0)
(4.83317 -1.78292 0)
(6.02943 -0.459097 0)
(7.46477 -0.0485463 0)
(8.94689 -0.589815 0)
(10.5182 -2.3974 0)
(12.6174 -5.43383 0)
(-3.41457 14.6054 0)
(-6.02844 22.1382 0)
(-4.04347 24.1151 0)
(-0.517879 20.0193 0)
(3.10578 13.3915 0)
(2.94922 2.56136 0)
(2.7417 -3.76825 0)
(1.59671 -7.98261 0)
(0.294168 -11.2075 0)
(-1.1368 -12.8768 0)
(-2.50537 -13.8963 0)
(-3.57611 -13.3443 0)
(-4.14056 -11.5712 0)
(-4.33836 -9.22594 0)
(-4.00161 -6.77157 0)
(-3.36531 -4.51731 0)
(-2.43947 -2.64431 0)
(-1.21345 -1.46898 0)
(0.362135 -1.30361 0)
(1.94309 -2.05914 0)
(3.77149 -4.07606 0)
(5.19976 -6.93368 0)
(-6.35549 16.3268 0)
(-3.60397 23.2031 0)
(2.6131 22.5229 0)
(7.84585 17.8074 0)
(11.253 12.1966 0)
(11.4404 5.15588 0)
(11.6165 -3.75863 0)
(8.87632 -5.90903 0)
(6.60093 -9.50983 0)
(4.16182 -11.4693 0)
(1.71326 -11.8979 0)
(-0.545413 -11.4239 0)
(-2.43012 -10.1746 0)
(-3.59246 -8.4827 0)
(-4.32111 -6.6032 0)
(-4.33776 -4.95831 0)
(-3.81616 -3.61661 0)
(-2.82303 -2.93448 0)
(-1.58506 -3.0307 0)
(-0.365489 -3.89092 0)
(0.543615 -5.44392 0)
(0.729332 -7.65562 0)
(-7.68558 13.1838 0)
(-2.40674 15.8153 0)
(3.27433 14.8755 0)
(7.71725 12.2247 0)
(10.1883 8.17282 0)
(11.5347 3.29227 0)
(10.6871 -1.44753 0)
(8.80543 -4.87681 0)
(6.91173 -7.28123 0)
(4.57662 -8.52973 0)
(2.14274 -9.17584 0)
(0.0347997 -9.27106 0)
(-1.67204 -8.58594 0)
(-2.78885 -7.29697 0)
(-3.36656 -6.06094 0)
(-3.73278 -5.04199 0)
(-3.5736 -4.0922 0)
(-3.05535 -3.71752 0)
(-2.4139 -3.83803 0)
(-1.8796 -4.40035 0)
(-1.69519 -5.51154 0)
(-1.6527 -7.14584 0)
(-5.05586 8.75704 0)
(-2.09071 10.735 0)
(1.08767 11.2156 0)
(4.59791 10.2447 0)
(7.79859 7.13247 0)
(8.64122 3.57843 0)
(8.61822 -0.0672587 0)
(7.55837 -2.93811 0)
(6.00371 -5.08283 0)
(4.37839 -6.48384 0)
(2.80744 -7.06876 0)
(0.753704 -7.58387 0)
(-0.83267 -7.22043 0)
(-2.00275 -6.65581 0)
(-2.87821 -5.5745 0)
(-3.24212 -4.68053 0)
(-3.32593 -4.33184 0)
(-3.20848 -4.0945 0)
(-3.06217 -4.2185 0)
(-2.98034 -4.74794 0)
(-2.93386 -5.64381 0)
(-3.34693 -6.9252 0)
(-5.05243 6.44957 0)
(-3.49886 8.26978 0)
(0.39311 8.91952 0)
(3.49132 7.32161 0)
(5.23888 4.8378 0)
(6.35118 2.32289 0)
(6.65556 -0.198415 0)
(6.08261 -2.31557 0)
(4.93546 -3.97876 0)
(3.51119 -5.17787 0)
(2.05742 -5.81548 0)
(0.651517 -5.966 0)
(-0.661777 -5.8282 0)
(-1.77915 -5.42501 0)
(-2.71059 -4.86405 0)
(-3.15687 -4.49462 0)
(-3.34214 -4.17006 0)
(-3.51117 -4.03173 0)
(-3.63139 -4.12479 0)
(-3.76904 -4.49215 0)
(-4.11423 -5.13792 0)
(-4.75369 -5.99413 0)
(-4.16042 4.58126 0)
(-2.23787 5.73899 0)
(0.0352762 5.77829 0)
(2.08375 4.87414 0)
(3.63434 3.56579 0)
(4.50453 1.9434 0)
(4.71938 0.190022 0)
(4.36924 -1.42253 0)
(3.62196 -2.74479 0)
(2.62808 -3.72601 0)
(1.51266 -4.33864 0)
(0.392753 -4.66949 0)
(-0.668697 -4.73499 0)
(-1.56675 -4.57828 0)
(-2.27123 -4.30791 0)
(-2.72745 -4.06403 0)
(-3.08383 -3.8763 0)
(-3.41368 -3.8137 0)
(-3.71741 -3.91777 0)
(-4.07933 -4.2024 0)
(-4.59446 -4.64896 0)
(-5.35166 -5.21923 0)
(-3.13877 3.27248 0)
(-1.84965 3.94485 0)
(-0.289581 4.0739 0)
(1.24265 3.69307 0)
(2.30643 2.70003 0)
(2.94692 1.45907 0)
(3.17554 0.14349 0)
(3.00988 -1.09479 0)
(2.52799 -2.14447 0)
(1.83263 -2.95906 0)
(1.01914 -3.51707 0)
(0.180654 -3.83016 0)
(-0.645547 -3.92967 0)
(-1.3755 -3.87545 0)
(-1.99439 -3.74321 0)
(-2.5144 -3.62369 0)
(-2.94528 -3.51825 0)
(-3.36499 -3.46534 0)
(-3.7925 -3.50524 0)
(-4.28807 -3.65646 0)
(-4.92449 -3.91256 0)
(-5.74724 -4.21889 0)
(-2.40643 2.32867 0)
(-1.51264 2.77762 0)
(-0.445712 2.91437 0)
(0.558577 2.57217 0)
(1.35402 1.88401 0)
(1.87756 1.02179 0)
(2.09533 0.0833818 0)
(2.02126 -0.82995 0)
(1.70367 -1.63501 0)
(1.20994 -2.28355 0)
(0.602489 -2.75436 0)
(-0.0500145 -3.04775 0)
(-0.710877 -3.19337 0)
(-1.32866 -3.22513 0)
(-1.88301 -3.17959 0)
(-2.39558 -3.11106 0)
(-2.86472 -3.03251 0)
(-3.34282 -2.98171 0)
(-3.84766 -2.98219 0)
(-4.4209 -3.04364 0)
(-5.11304 -3.1598 0)
(-5.9525 -3.28656 0)
(-1.93294 1.67291 0)
(-1.31365 1.96615 0)
(-0.586043 2.04205 0)
(0.129924 1.83427 0)
(0.713738 1.36344 0)
(1.1049 0.735807 0)
(1.27881 0.0327459 0)
(1.24611 -0.668113 0)
(1.03184 -1.30482 0)
(0.680125 -1.83271 0)
(0.23004 -2.23226 0)
(-0.274208 -2.49915 0)
(-0.796184 -2.64859 0)
(-1.31274 -2.7037 0)
(-1.81184 -2.68842 0)
(-2.30091 -2.63755 0)
(-2.77202 -2.56354 0)
(-3.26468 -2.49211 0)
(-3.79808 -2.43683 0)
(-4.40409 -2.40347 0)
(-5.1162 -2.3847 0)
(-5.95725 -2.35407 0)
(-1.60712 1.22166 0)
(-1.18061 1.41559 0)
(-0.678116 1.47017 0)
(-0.187512 1.30934 0)
(0.225661 0.958713 0)
(0.515618 0.487516 0)
(0.656037 -0.0446534 0)
(0.652655 -0.578366 0)
(0.511267 -1.07439 0)
(0.261116 -1.49555 0)
(-0.064465 -1.81691 0)
(-0.457791 -2.04467 0)
(-0.876855 -2.17825 0)
(-1.30438 -2.22554 0)
(-1.75216 -2.21978 0)
(-2.20659 -2.17438 0)
(-2.66375 -2.08314 0)
(-3.15766 -1.96614 0)
(-3.70616 -1.84163 0)
(-4.33129 -1.71674 0)
(-5.05396 -1.58476 0)
(-5.89017 -1.4348 0)
(-1.3876 0.914206 0)
(-1.10339 1.04062 0)
(-0.76422 1.0661 0)
(-0.42861 0.936127 0)
(-0.139703 0.668723 0)
(0.0740119 0.309044 0)
(0.184735 -0.105342 0)
(0.193076 -0.523589 0)
(0.10783 -0.912936 0)
(-0.0752246 -1.25696 0)
(-0.309051 -1.51003 0)
(-0.604705 -1.68611 0)
(-0.951208 -1.79777 0)
(-1.3151 -1.81131 0)
(-1.71588 -1.7664 0)
(-2.13302 -1.70958 0)
(-2.56854 -1.60616 0)
(-3.05322 -1.4491 0)
(-3.6042 -1.25853 0)
(-4.22655 -1.04798 0)
(-4.93212 -0.817334 0)
(-5.73077 -0.562662 0)
(-1.23763 0.712847 0)
(-1.05535 0.793247 0)
(-0.839159 0.783067 0)
(-0.605362 0.686531 0)
(-0.413675 0.463027 0)
(-0.261224 0.178868 0)
(-0.167744 -0.151129 0)
(-0.15548 -0.498659 0)
(-0.192097 -0.801438 0)
(-0.319353 -1.0781 0)
(-0.50399 -1.28425 0)
(-0.708087 -1.40185 0)
(-1.011 -1.48014 0)
(-1.34819 -1.47677 0)
(-1.55786 -1.42399 0)
(-2.05799 -1.31252 0)
(-2.48722 -1.14715 0)
(-2.94992 -0.937725 0)
(-3.46221 -0.689932 0)
(-4.03339 -0.402377 0)
(-4.67499 -0.0786944 0)
(-5.39955 0.26683 0)
(-1.12942 0.596293 0)
(-1.01975 0.647174 0)
(-0.890146 0.611424 0)
(-0.734019 0.524428 0)
(-0.600135 0.326942 0)
(-0.469519 0.0500978 0)
(-0.382236 -0.207866 0)
(-0.359883 -0.482757 0)
(-0.386556 -0.738903 0)
(-0.470709 -0.948531 0)
(-0.609827 -1.10186 0)
(-0.79644 -1.18745 0)
(-1.03387 -1.20321 0)
(-1.30901 -1.17574 0)
(-1.61075 -1.08502 0)
(-1.96477 -0.912854 0)
(-2.31386 -0.700123 0)
(-2.688 -0.462933 0)
(-3.10165 -0.18134 0)
(-3.56602 0.15997 0)
(-4.05495 0.549905 0)
(-4.63727 0.966655 0)
(-1.02621 0.528976 0)
(-0.960409 0.551234 0)
(-0.875322 0.504982 0)
(-0.776667 0.390904 0)
(-0.67443 0.212372 0)
(-0.587554 -0.0142865 0)
(-0.527818 -0.260243 0)
(-0.492923 -0.498357 0)
(-0.489826 -0.703354 0)
(-0.532553 -0.858372 0)
(-0.631121 -0.955572 0)
(-0.78627 -0.989756 0)
(-0.991766 -0.96803 0)
(-1.23791 -0.900081 0)
(-1.51634 -0.77808 0)
(-1.80997 -0.603678 0)
(-2.07973 -0.395553 0)
(-2.35585 -0.145165 0)
(-2.62054 0.170805 0)
(-2.87497 0.562871 0)
(-3.13366 1.02014 0)
(-3.40095 1.50434 0)
(-0.928112 0.503504 0)
(-0.863114 0.501951 0)
(-0.780963 0.438364 0)
(-0.689289 0.314525 0)
(-0.596536 0.134422 0)
(-0.514451 -0.0876687 0)
(-0.451741 -0.318938 0)
(-0.414142 -0.529901 0)
(-0.4173 -0.69691 0)
(-0.471586 -0.803437 0)
(-0.5961 -0.843897 0)
(-0.791227 -0.824889 0)
(-1.0409 -0.758673 0)
(-1.32118 -0.656594 0)
(-1.60494 -0.525313 0)
(-1.85967 -0.371822 0)
(-2.04779 -0.198967 0)
(-2.13647 0.00318288 0)
(-2.09132 0.263309 0)
(-1.93767 0.616013 0)
(-1.58696 1.04836 0)
(-1.07995 1.50998 0)
(-0.671428 0.414046 0)
(-0.523218 0.406616 0)
(-0.373006 0.34972 0)
(-0.238988 0.241508 0)
(-0.130593 0.0849109 0)
(-0.0675729 -0.107261 0)
(-0.0610119 -0.311547 0)
(-0.108427 -0.497355 0)
(-0.239533 -0.627848 0)
(-0.484373 -0.681253 0)
(-0.829537 -0.651891 0)
(-1.24465 -0.561645 0)
(-1.67859 -0.436279 0)
(-2.07578 -0.300937 0)
(-2.38965 -0.179106 0)
(-2.57823 -0.0767485 0)
(-2.60108 -0.0149969 0)
(-2.40657 -0.0122278 0)
(-1.94432 -0.0713183 0)
(-1.02553 -0.185376 0)
(0.112223 -0.291593 0)
(1.42352 -0.283474 0)
(0.0894513 0.217821 0)
(0.41119 0.179293 0)
(0.694777 0.108461 0)
(0.896652 0.00748282 0)
(0.975099 -0.115146 0)
(0.894917 -0.24032 0)
(0.64884 -0.3437 0)
(0.215276 -0.384863 0)
(-0.26643 -0.323989 0)
(-0.721943 -0.170779 0)
(-1.10241 -0.00286627 0)
(-1.40642 0.0880485 0)
(-1.62343 0.0933154 0)
(-1.77307 0.0358016 0)
(-1.8939 -0.065404 0)
(-2.02412 -0.21577 0)
(-2.21068 -0.409194 0)
(-2.51769 -0.6218 0)
(-3.02472 -0.7804 0)
(-3.67618 -0.684191 0)
(-4.29462 -0.27751 0)
(-4.72138 0.338279 0)
(24.8819 -5.20672 0)
(33.9946 -11.0964 0)
(44.6385 -22.5937 0)
(52.2828 -37.1171 0)
(52.5394 -45.9164 0)
(48.7503 -58.1898 0)
(39.215 -69.8391 0)
(19.5508 -77.6859 0)
(-9.64145 -80.2311 0)
(-49.269 -77.7604 0)
(-97.6003 -65.1076 0)
(-141.081 -40.1095 0)
(-174.634 -3.04227 0)
(-196.999 42.3149 0)
(-210.825 96.1818 0)
(-221.69 160.196 0)
(-205.667 207.347 0)
(-147.519 208.438 0)
(-83.7227 186.012 0)
(-29.011 157.019 0)
(14.9271 127.99 0)
(45.9136 98.9343 0)
(69.6403 70.7191 0)
(86.6451 42.9301 0)
(95.6942 20.9185 0)
(99.4313 5.63993 0)
(99.0918 -5.36433 0)
(96.6837 -13.2898 0)
(93.8629 -19.2376 0)
(91.2187 -23.9289 0)
(89.3502 -27.6582 0)
(88.1483 -31.1082 0)
(86.3893 -35.9341 0)
(83.3048 -43.1042 0)
(81.8179 -49.6363 0)
(88.7749 -49.2627 0)
(107.584 -39.2991 0)
(129.617 -29.1136 0)
(132.644 -35.5966 0)
(110.895 -67.3045 0)
(66.5144 -110.335 0)
(22.8835 -150.171 0)
(-26.6309 -180.386 0)
(-55.9001 -190.665 0)
(-68.875 -179.539 0)
(-74.1561 -161.108 0)
(-73.2407 -139.612 0)
(-68.1405 -118.086 0)
(-60.7436 -98.6464 0)
(-52.7101 -82.1624 0)
(-45.3952 -68.1027 0)
(-39.6857 -54.727 0)
(-37.9647 -39.0011 0)
(-42.7841 -15.8185 0)
(-51.9445 17.2257 0)
(-65.474 60.7381 0)
(-79.6491 111.836 0)
(-93.0292 164.261 0)
(-103.621 210.531 0)
(-107.293 240.915 0)
(-98.6331 244.003 0)
(-82.7714 229.356 0)
(-62.2736 202.551 0)
(-39.915 169.309 0)
(-18.2527 134.419 0)
(0.804287 101.047 0)
(17.0553 70.7732 0)
(33.1757 43.2498 0)
(45.9055 17.6614 0)
(55.5535 -1.16516 0)
(62.3318 -14.2796 0)
(66.7291 -22.8605 0)
(69.8367 -27.5583 0)
(72.4784 -28.7681 0)
(75.2229 -26.7314 0)
(78.2346 -22.1539 0)
(81.1535 -16.6556 0)
(83.0375 -12.6453 0)
(82.7021 -12.5612 0)
(79.7639 -18.0994 0)
(73.7804 -29.9469 0)
(63.9344 -46.9277 0)
(51.8039 -66.7317 0)
(38.5224 -86.0927 0)
(24.9423 -102.285 0)
(11.8642 -113.666 0)
(-0.0799901 -119.422 0)
(-10.3176 -119.084 0)
(-18.9722 -114.895 0)
(-26.2298 -107.771 0)
(-32.0351 -98.5023 0)
(-36.4217 -87.8252 0)
(-39.5424 -76.3916 0)
(-41.6134 -64.6791 0)
(-42.9075 -52.9402 0)
(-43.7162 -41.1509 0)
(-44.5702 -28.9119 0)
(-46.2185 -15.3835 0)
(-47.7545 0.0642045 0)
(-49.3071 17.0571 0)
(-50.7046 35.4852 0)
(-51.5524 54.7716 0)
(-51.7877 74.1766 0)
(-51.2924 92.8323 0)
(-49.9381 109.639 0)
(22.7085 -6.23927 0)
(26.4736 -14.198 0)
(30.0962 -26.6402 0)
(28.4291 -36.8252 0)
(21.9069 -41.7783 0)
(13.8977 -53.9869 0)
(1.57227 -60.8577 0)
(-15.4776 -62.6616 0)
(-36.096 -58.6353 0)
(-59.187 -47.5855 0)
(-83.8757 -28.5061 0)
(-111.737 -4.78884 0)
(-137.345 25.0251 0)
(-155.188 60.158 0)
(-161.991 102.542 0)
(-147.975 143.734 0)
(-105.423 155.992 0)
(-50.1602 152.528 0)
(-5.99927 138.097 0)
(25.4278 120.409 0)
(46.6768 100.887 0)
(71.515 76.6032 0)
(85.6927 53.6489 0)
(94.0303 34.1356 0)
(97.7708 18.6047 0)
(97.3795 6.39093 0)
(95.3729 -3.06413 0)
(92.7356 -10.4122 0)
(89.9461 -16.3401 0)
(87.277 -21.3867 0)
(85.018 -25.8987 0)
(83.4561 -30.002 0)
(82.3008 -34.0962 0)
(80.2935 -39.5041 0)
(76.4578 -47.1764 0)
(73.3463 -54.8129 0)
(77.5352 -56.9747 0)
(93.3312 -50.4713 0)
(113.801 -41.7195 0)
(118.965 -44.3774 0)
(99.4786 -68.2859 0)
(59.3817 -103.681 0)
(17.2697 -136.794 0)
(-29.8395 -160.676 0)
(-56.6998 -167.743 0)
(-67.8245 -157.325 0)
(-71.4286 -140.949 0)
(-69.9628 -122.667 0)
(-65.8943 -104.886 0)
(-61.0879 -88.4298 0)
(-56.9592 -72.8288 0)
(-55.1137 -56.3506 0)
(-58.4429 -35.758 0)
(-65.8333 -7.27613 0)
(-77.3245 29.4959 0)
(-91.4928 74.7583 0)
(-105.514 125.26 0)
(-117.347 174.961 0)
(-124.07 215.275 0)
(-119.655 234.147 0)
(-103.61 228.759 0)
(-81.249 208.305 0)
(-55.5202 178.82 0)
(-29.7358 145.825 0)
(-6.66201 113.138 0)
(12.815 82.8065 0)
(30.7172 55.0168 0)
(46.1441 28.4118 0)
(57.1802 7.07085 0)
(65.1202 -8.33142 0)
(70.1497 -19.0629 0)
(73.2835 -25.9877 0)
(75.332 -29.8613 0)
(76.9111 -30.9403 0)
(78.5865 -29.1843 0)
(80.7102 -24.8111 0)
(83.1669 -18.9121 0)
(85.1913 -13.5685 0)
(85.3898 -11.2811 0)
(83.0653 -13.9178 0)
(77.6989 -22.2394 0)
(69.0374 -36.239 0)
(56.697 -53.8102 0)
(42.8969 -72.3168 0)
(28.703 -88.6401 0)
(14.8933 -100.78 0)
(2.15403 -107.833 0)
(-8.86998 -109.424 0)
(-18.0956 -106.594 0)
(-25.9517 -100.871 0)
(-32.5011 -92.9696 0)
(-37.7612 -83.5822 0)
(-41.8566 -73.28 0)
(-44.9814 -62.445 0)
(-47.3865 -51.2693 0)
(-49.3893 -39.6605 0)
(-51.5377 -27.2089 0)
(-54.0979 -13.3694 0)
(-56.1797 1.9907 0)
(-58.252 18.6962 0)
(-59.8208 36.6327 0)
(-60.6304 55.2388 0)
(-60.5743 73.8252 0)
(-59.5539 91.5523 0)
(-57.4537 107.231 0)
(13.8413 -9.18052 0)
(15.152 -16.1153 0)
(14.1592 -26.0509 0)
(10.191 -32.6719 0)
(3.602 -35.5867 0)
(-4.57421 -41.8483 0)
(-16.6894 -44.2883 0)
(-31.8095 -43.0452 0)
(-48.5024 -37.0357 0)
(-65.9347 -25.5046 0)
(-81.3049 -9.29259 0)
(-94.6422 12.2432 0)
(-105.254 37.8692 0)
(-95.6139 65.0838 0)
(-94.8859 90.0895 0)
(-70.4933 108.506 0)
(-28.6457 117.057 0)
(0.914327 115.26 0)
(13.7821 108.453 0)
(41.2984 99.9626 0)
(61.858 80.9766 0)
(75.4593 61.9044 0)
(84.6336 45.1913 0)
(89.3897 30.6298 0)
(90.8719 18.115 0)
(90.3403 7.71535 0)
(88.7481 -0.833211 0)
(86.6997 -7.90579 0)
(84.5432 -13.8479 0)
(82.4231 -19.0184 0)
(80.3639 -23.7919 0)
(78.4551 -28.4094 0)
(76.8647 -32.887 0)
(75.3721 -37.4024 0)
(72.9121 -42.8906 0)
(68.3871 -50.346 0)
(63.5388 -58.7665 0)
(63.8139 -63.9334 0)
(73.9183 -61.5511 0)
(90.488 -54.0839 0)
(99.3621 -51.6617 0)
(87.0298 -65.124 0)
(55.4006 -92.4715 0)
(14.4017 -120.171 0)
(-23.2799 -139.07 0)
(-54.5175 -145.616 0)
(-65.7501 -138.124 0)
(-69.9578 -123.8 0)
(-70.7154 -107.572 0)
(-70.0787 -91.0395 0)
(-70.0249 -73.6233 0)
(-72.8572 -53.7429 0)
(-80.2819 -28.6145 0)
(-90.1517 3.68584 0)
(-103.521 43.0405 0)
(-118.007 88.7696 0)
(-131.136 137.357 0)
(-140.198 182.307 0)
(-140.545 213.645 0)
(-126.022 219.087 0)
(-103.003 206.307 0)
(-74.5842 181.422 0)
(-44.7446 151.191 0)
(-17.1863 120.439 0)
(5.91905 91.3324 0)
(26.0291 64.4795 0)
(44.0623 38.3901 0)
(56.9282 15.6482 0)
(66.3999 -1.36867 0)
(72.4471 -13.8744 0)
(76.1095 -22.495 0)
(78.2931 -28.0699 0)
(79.5377 -31.2072 0)
(80.1498 -32.04 0)
(80.6319 -30.5329 0)
(81.6989 -26.7296 0)
(83.4493 -21.0213 0)
(85.3473 -14.8494 0)
(86.1662 -10.6027 0)
(84.7327 -10.5282 0)
(80.266 -15.5889 0)
(72.5737 -25.9337 0)
(61.4976 -41.0172 0)
(47.2909 -58.0237 0)
(32.5318 -74.2808 0)
(18.0688 -87.1392 0)
(4.47821 -95.4139 0)
(-7.53243 -99.0252 0)
(-17.4358 -97.7065 0)
(-25.7778 -93.3256 0)
(-32.9674 -86.6879 0)
(-39.0293 -78.4785 0)
(-44.031 -69.1821 0)
(-48.1629 -59.1346 0)
(-51.6536 -48.4496 0)
(-54.8614 -36.9902 0)
(-58.2088 -24.4502 0)
(-61.3523 -10.6234 0)
(-64.0934 4.38583 0)
(-66.4989 20.6134 0)
(-68.1403 37.8234 0)
(-68.8233 55.5058 0)
(-68.4372 73.0538 0)
(-66.9226 89.6361 0)
(-64.1004 103.892 0)
(5.84082 -10.2106 0)
(5.58252 -14.9623 0)
(3.25274 -21.326 0)
(-2.02063 -26.7486 0)
(-8.60196 -29.9029 0)
(-16.1277 -32.0975 0)
(-26.0249 -32.5655 0)
(-37.4624 -29.8528 0)
(-49.5727 -23.4498 0)
(-61.459 -13.6076 0)
(-67.5336 -0.0683402 0)
(-73.7738 17.2675 0)
(-74.0129 35.7386 0)
(-68.603 55.3176 0)
(-56.8378 73.5845 0)
(-42.1558 82.6053 0)
(-18.8295 88.7892 0)
(5.25055 95.4318 0)
(22.2282 92.9179 0)
(44.7674 80.3619 0)
(59.2646 65.9976 0)
(69.2398 52.4957 0)
(75.8546 39.8045 0)
(79.568 28.0966 0)
(81.236 17.6077 0)
(81.539 8.43765 0)
(80.9893 0.535122 0)
(79.9496 -6.24408 0)
(78.6503 -12.0933 0)
(77.1993 -17.2344 0)
(75.5959 -21.9295 0)
(73.8012 -26.4567 0)
(71.8505 -31.0103 0)
(69.8615 -35.6382 0)
(67.662 -40.3392 0)
(64.3758 -45.6002 0)
(58.9054 -52.3945 0)
(51.6977 -60.4067 0)
(47.0421 -67.2643 0)
(50.3234 -69.3424 0)
(62.0117 -65.9741 0)
(73.212 -61.7882 0)
(69.4883 -64.244 0)
(48.8524 -79.7021 0)
(13.7864 -100.341 0)
(-13.9561 -116.925 0)
(-47.7319 -123.386 0)
(-64.9378 -117.546 0)
(-73.7627 -105.036 0)
(-79.4899 -89.055 0)
(-84.9878 -69.7978 0)
(-93.2232 -46.7694 0)
(-103.901 -18.1115 0)
(-116.733 16.6336 0)
(-131.595 57.3602 0)
(-145.869 102.26 0)
(-156.689 147.156 0)
(-159.86 184.329 0)
(-148.213 201.062 0)
(-124.846 196.749 0)
(-94.8 177.379 0)
(-61.8893 149.941 0)
(-30.1357 121.287 0)
(-3.01455 94.8505 0)
(19.317 70.2119 0)
(39.2849 46.0269 0)
(54.1968 23.268 0)
(65.4487 5.55335 0)
(72.9824 -8.08943 0)
(77.6691 -18.0545 0)
(80.4795 -24.9404 0)
(82.0638 -29.4066 0)
(82.6083 -31.7278 0)
(82.1697 -32.0577 0)
(81.5444 -30.7139 0)
(81.2769 -27.5784 0)
(81.8752 -22.5076 0)
(83.2213 -16.2647 0)
(84.3905 -10.746 0)
(84.0107 -8.2101 0)
(80.9345 -10.1809 0)
(74.6039 -17.0776 0)
(65.0174 -28.6614 0)
(52.0231 -43.7596 0)
(36.6653 -59.2398 0)
(21.5598 -72.7998 0)
(7.35833 -82.0356 0)
(-5.81864 -87.4047 0)
(-16.7221 -88.5496 0)
(-25.5622 -85.2547 0)
(-33.4053 -79.691 0)
(-40.2424 -72.5314 0)
(-46.1017 -64.1381 0)
(-51.1823 -54.7772 0)
(-55.7453 -44.5067 0)
(-60.1352 -33.2177 0)
(-64.3535 -20.8024 0)
(-67.9925 -7.32682 0)
(-71.2872 7.16521 0)
(-73.8813 22.6877 0)
(-75.5065 38.9413 0)
(-76.0017 55.5144 0)
(-75.2971 71.8802 0)
(-73.3421 87.1341 0)
(-69.6944 99.5546 0)
(0.390108 -10.2794 0)
(-0.720023 -13.7304 0)
(-3.18474 -17.7852 0)
(-7.5262 -21.1353 0)
(-13.3371 -23.0246 0)
(-19.9602 -23.9196 0)
(-27.5894 -23.1501 0)
(-35.8828 -19.922 0)
(-43.793 -13.9897 0)
(-50.7021 -5.85183 0)
(-56.0314 4.83255 0)
(-58.4251 18.1303 0)
(-56.8968 32.4281 0)
(-51.0403 46.9581 0)
(-40.165 60.2343 0)
(-25.9213 68.6543 0)
(-11.3635 72.4721 0)
(4.69249 74.6179 0)
(22.3255 71.9976 0)
(38.0713 64.3039 0)
(49.8193 54.8601 0)
(58.3123 44.9538 0)
(64.525 34.8847 0)
(68.7332 25.125 0)
(71.3627 16.074 0)
(72.8127 7.91712 0)
(73.412 0.709075 0)
(73.4052 -5.60183 0)
(72.9517 -11.1182 0)
(72.1267 -15.9874 0)
(70.9619 -20.4336 0)
(69.4262 -24.6765 0)
(67.517 -28.9056 0)
(65.1363 -33.2001 0)
(62.2602 -37.4994 0)
(58.7718 -41.7235 0)
(54.1565 -46.3526 0)
(47.6049 -52.4272 0)
(38.9809 -59.9989 0)
(30.5396 -67.7007 0)
(25.8237 -72.3858 0)
(27.8783 -72.379 0)
(35.6875 -69.0058 0)
(40.0535 -67.6719 0)
(30.8769 -73.0556 0)
(7.80755 -82.902 0)
(-20.9633 -91.7216 0)
(-47.939 -95.9371 0)
(-67.8376 -92.0571 0)
(-87.5959 -79.393 0)
(-102.09 -60.0049 0)
(-116.776 -34.9569 0)
(-132.293 -4.35355 0)
(-148.524 31.7487 0)
(-163.728 72.224 0)
(-174.914 113.944 0)
(-178.087 151.111 0)
(-167.287 173.986 0)
(-142.893 177.838 0)
(-110.977 165.994 0)
(-76.641 143.496 0)
(-43.01 116.256 0)
(-13.078 91.89 0)
(11.526 71.3399 0)
(32.228 50.7148 0)
(48.4264 29.0072 0)
(61.441 11.3514 0)
(70.8423 -2.70147 0)
(77.1551 -13.5444 0)
(81.2367 -21.4171 0)
(83.7276 -26.8675 0)
(84.9981 -30.183 0)
(84.6398 -31.3469 0)
(83.3259 -31.023 0)
(81.4184 -29.6044 0)
(79.5484 -26.9765 0)
(78.4473 -22.8757 0)
(78.5352 -17.3325 0)
(79.4328 -11.4576 0)
(79.8783 -7.192 0)
(78.4858 -6.37091 0)
(74.2245 -9.99171 0)
(66.6471 -18.0047 0)
(55.8718 -29.9451 0)
(41.8808 -44.1359 0)
(26.6436 -57.6607 0)
(9.29194 -68.1599 0)
(0.0264816 -74.8315 0)
(-16.1259 -77.9645 0)
(-25.4873 -76.4431 0)
(-33.9181 -72.0218 0)
(-41.5231 -65.8138 0)
(-48.1499 -58.2227 0)
(-54.1307 -49.4357 0)
(-59.7539 -39.5353 0)
(-65.0668 -28.5196 0)
(-69.7578 -16.4819 0)
(-74.0323 -3.58198 0)
(-77.6356 10.2394 0)
(-80.303 24.8287 0)
(-81.8353 39.9385 0)
(-82.1338 55.275 0)
(-81.2 70.3279 0)
(-78.838 83.9449 0)
(-73.848 93.6831 0)
(-1.83099 -9.22512 0)
(-3.67868 -11.6654 0)
(-5.97356 -14.2878 0)
(-9.82285 -16.4369 0)
(-14.6409 -17.513 0)
(-20.0763 -17.5254 0)
(-25.9472 -16.2297 0)
(-32.037 -13.1856 0)
(-37.7437 -8.1614 0)
(-42.417 -1.21474 0)
(-45.5217 7.58741 0)
(-46.363 17.8815 0)
(-44.2888 28.7385 0)
(-39.0319 39.2672 0)
(-30.523 48.4755 0)
(-19.3972 54.9263 0)
(-7.05845 58.5521 0)
(5.88212 59.9863 0)
(19.1963 58.2773 0)
(31.4033 53.0496 0)
(41.3363 45.9199 0)
(49.1046 37.9138 0)
(55.1801 29.5739 0)
(59.7759 21.3536 0)
(63.0608 13.5678 0)
(65.3057 6.4059 0)
(66.7397 -0.0473561 0)
(67.5268 -5.77954 0)
(67.7656 -10.812 0)
(67.4713 -15.2197 0)
(66.67 -19.2238 0)
(65.3886 -23.0536 0)
(63.4494 -26.7124 0)
(60.872 -30.3511 0)
(57.5921 -34.0018 0)
(53.5736 -37.5735 0)
(48.6218 -41.1596 0)
(42.415 -45.3982 0)
(34.6189 -50.8125 0)
(25.0341 -56.8519 0)
(14.4815 -63.4449 0)
(4.85756 -69.6229 0)
(-1.92605 -72.5379 0)
(-4.3694 -71.5064 0)
(-4.65915 -69.2916 0)
(-9.22838 -67.7469 0)
(-21.8621 -68.2067 0)
(-42.4275 -68.7327 0)
(-67.4919 -65.3868 0)
(-92.4449 -55.5739 0)
(-116.192 -38.9984 0)
(-138.422 -15.417 0)
(-158.362 14.3591 0)
(-174.499 48.4358 0)
(-184.212 83.6274 0)
(-184.517 115.603 0)
(-172.63 138.69 0)
(-148.355 148.022 0)
(-116.819 144.562 0)
(-83.2969 130.615 0)
(-51.5465 109.271 0)
(-18.656 87.3495 0)
(-2.71559 66.1111 0)
(21.9526 51.4975 0)
(39.6287 32.5419 0)
(53.2116 15.4588 0)
(64.8946 1.32646 0)
(73.5569 -10.0475 0)
(79.7131 -18.582 0)
(83.8939 -24.634 0)
(86.4764 -28.6181 0)
(87.2332 -30.3829 0)
(86.0786 -30.1272 0)
(83.6987 -28.8084 0)
(80.3333 -26.946 0)
(76.5984 -24.5718 0)
(73.3333 -21.3665 0)
(71.3529 -17.1429 0)
(70.9037 -12.1198 0)
(71.3482 -7.41103 0)
(71.4428 -4.73372 0)
(69.8089 -5.49734 0)
(65.4157 -10.2386 0)
(57.7807 -18.6081 0)
(46.8294 -29.8463 0)
(32.7649 -42.1516 0)
(15.177 -53.4135 0)
(3.08419 -61.1892 0)
(-11.5472 -65.2493 0)
(-24.4872 -66.4681 0)
(-33.8842 -63.6646 0)
(-42.4603 -58.3396 0)
(-50.0275 -51.4129 0)
(-56.9755 -43.1887 0)
(-63.4143 -33.688 0)
(-69.2346 -23.1243 0)
(-74.5663 -11.7233 0)
(-79.2349 0.501332 0)
(-83.0291 13.4177 0)
(-85.7409 26.8675 0)
(-87.2412 40.7328 0)
(-87.5635 54.8382 0)
(-86.6718 68.5316 0)
(-83.5486 79.8932 0)
(-76.2704 85.9654 0)
(-4.29192 -8.34166 0)
(-5.75258 -9.78114 0)
(-8.02565 -11.391 0)
(-11.2371 -12.6021 0)
(-15.0006 -12.9933 0)
(-19.1854 -12.5112 0)
(-23.7089 -11.0041 0)
(-28.2095 -8.16765 0)
(-32.2383 -3.80684 0)
(-35.3649 1.9708 0)
(-37.167 8.93597 0)
(-37.1591 16.7978 0)
(-34.9257 25.0205 0)
(-30.3211 32.9304 0)
(-23.4461 39.8078 0)
(-14.7441 44.8281 0)
(-4.9798 47.6396 0)
(5.31713 48.3621 0)
(15.8038 46.7752 0)
(25.7181 42.9023 0)
(34.2987 37.4039 0)
(41.4343 31.0181 0)
(47.3301 24.1976 0)
(52.0786 17.2664 0)
(55.8015 10.5365 0)
(58.6637 4.23303 0)
(60.7958 -1.51169 0)
(62.2786 -6.6272 0)
(63.1362 -11.0726 0)
(63.3248 -14.8858 0)
(62.863 -18.2995 0)
(61.7576 -21.4939 0)
(59.7407 -24.413 0)
(56.9281 -27.3208 0)
(53.2846 -30.2223 0)
(48.846 -32.8667 0)
(43.4547 -35.2254 0)
(36.8355 -38.1775 0)
(28.8972 -42.6399 0)
(19.7812 -47.5801 0)
(9.94213 -52.543 0)
(-1.04156 -57.4166 0)
(-12.9904 -62.1153 0)
(-24.2258 -65.1801 0)
(-33.6007 -65.9604 0)
(-41.1659 -62.7786 0)
(-49.4382 -57.5646 0)
(-60.9296 -51.3203 0)
(-77.0085 -43.0882 0)
(-95.9189 -30.9857 0)
(-116.131 -14.701 0)
(-135.017 6.06344 0)
(-149.875 30.4043 0)
(-158.312 56.2362 0)
(-158.605 80.9573 0)
(-150.216 101.99 0)
(-131.569 114.82 0)
(-106.79 118.621 0)
(-80.5505 113.525 0)
(-55.1461 100.431 0)
(-32.1258 81.7704 0)
(-5.95033 64.1609 0)
(7.36696 48.0824 0)
(28.7941 34.1174 0)
(41.9406 17.6358 0)
(54.8441 3.54455 0)
(66.3087 -8.3234 0)
(75.3334 -17.496 0)
(82.0389 -23.8976 0)
(86.6531 -28.0687 0)
(89.2732 -30.1704 0)
(88.8385 -29.7869 0)
(86.7077 -27.878 0)
(82.998 -25.2605 0)
(78.0965 -22.5506 0)
(72.5144 -20.0238 0)
(66.9587 -17.556 0)
(62.3017 -14.7399 0)
(59.2908 -11.3459 0)
(58.0475 -7.71004 0)
(57.9661 -4.88164 0)
(58.1342 -4.18813 0)
(57.3459 -6.26446 0)
(54.1134 -11.1041 0)
(47.6643 -18.4144 0)
(37.9451 -27.8412 0)
(24.7445 -38.1862 0)
(8.87324 -46.604 0)
(-4.22238 -51.6348 0)
(-19.2868 -53.8859 0)
(-32.0006 -53.4621 0)
(-42.075 -49.9585 0)
(-51.0362 -43.8074 0)
(-59.0161 -36.0792 0)
(-66.226 -27.1811 0)
(-72.777 -17.2795 0)
(-78.6451 -6.51767 0)
(-83.7183 4.90616 0)
(-87.8181 16.8055 0)
(-90.7719 29.0949 0)
(-92.5767 41.8003 0)
(-93.3249 54.7085 0)
(-92.2619 66.3195 0)
(-86.655 73.4246 0)
(-77.1742 76.1368 0)
(-5.73097 -6.93387 0)
(-7.16951 -7.92565 0)
(-9.07567 -8.79843 0)
(-11.684 -9.43185 0)
(-14.8217 -9.4134 0)
(-18.022 -8.715 0)
(-21.3937 -7.13992 0)
(-24.6921 -4.56775 0)
(-27.5597 -0.894508 0)
(-29.6437 3.81361 0)
(-30.6113 9.36582 0)
(-30.1421 15.4955 0)
(-28.002 21.7907 0)
(-24.1107 27.7409 0)
(-18.5538 32.8312 0)
(-11.6159 36.5668 0)
(-3.75839 38.6559 0)
(4.61271 39.0236 0)
(13.1394 37.6363 0)
(21.3502 34.6192 0)
(28.7492 30.1908 0)
(35.1913 24.814 0)
(40.7968 18.9471 0)
(45.5967 12.9069 0)
(49.6419 6.98316 0)
(53.0033 1.40617 0)
(55.7245 -3.66565 0)
(57.8074 -8.12155 0)
(59.1973 -11.8711 0)
(59.7839 -14.9402 0)
(59.6034 -17.6122 0)
(58.5697 -19.9695 0)
(56.3655 -21.9159 0)
(53.1769 -23.8701 0)
(48.9969 -25.9683 0)
(43.9728 -27.8932 0)
(38.0981 -29.2311 0)
(31.1913 -30.7293 0)
(23.0563 -34.0592 0)
(13.782 -38.3146 0)
(4.11475 -42.4374 0)
(-5.94987 -46.4354 0)
(-16.8195 -49.9381 0)
(-28.3264 -52.4946 0)
(-39.9395 -53.8161 0)
(-51.1934 -53.218 0)
(-60.922 -48.6586 0)
(-70.4143 -40.6316 0)
(-81.4234 -30.1799 0)
(-93.2843 -16.918 0)
(-104.289 -0.633524 0)
(-113.841 17.8672 0)
(-120.419 37.7045 0)
(-122.573 57.5615 0)
(-118.987 75.4071 0)
(-108.837 88.8608 0)
(-93.0324 96.079 0)
(-75.7513 97.6454 0)
(-58.4114 92.9238 0)
(-40.6284 80.7446 0)
(-22.5317 62.7264 0)
(-4.8859 44.9958 0)
(10.2405 32.3499 0)
(27.0391 19.0985 0)
(41.6253 4.05736 0)
(55.6865 -8.73736 0)
(68.1488 -18.8947 0)
(78.0461 -25.8278 0)
(85.2653 -29.9175 0)
(89.9964 -31.6935 0)
(91.2165 -30.8432 0)
(89.4749 -27.9577 0)
(85.7844 -24.1784 0)
(80.4947 -20.1878 0)
(74.0204 -16.4855 0)
(66.7529 -13.4354 0)
(59.1918 -11.1506 0)
(52.0089 -9.42554 0)
(46.0033 -7.83164 0)
(41.8252 -6.11901 0)
(39.7214 -4.78069 0)
(39.1383 -4.78613 0)
(39.6761 -6.42023 0)
(40.2837 -9.36843 0)
(39.276 -13.5162 0)
(35.2526 -18.8878 0)
(27.7139 -25.0842 0)
(16.8181 -31.5351 0)
(3.16577 -36.696 0)
(-11.3141 -39.6442 0)
(-23.4489 -40.6536 0)
(-37.9478 -38.8839 0)
(-48.8125 -34.4303 0)
(-58.8005 -27.9288 0)
(-67.6679 -19.9049 0)
(-75.5066 -10.7384 0)
(-82.4218 -0.769171 0)
(-88.398 9.69796 0)
(-93.3432 20.4366 0)
(-97.1801 31.5126 0)
(-99.8135 43.1311 0)
(-100.482 54.3241 0)
(-96.0298 61.9761 0)
(-86.7262 65.0649 0)
(-72.3416 63.2949 0)
(-6.371 -5.79481 0)
(-7.81686 -6.37288 0)
(-9.53406 -6.72884 0)
(-11.6866 -6.85265 0)
(-14.2609 -6.62591 0)
(-16.6808 -5.84737 0)
(-19.2038 -4.33452 0)
(-21.7015 -1.98138 0)
(-23.7835 1.161 0)
(-25.1424 4.99388 0)
(-25.5708 9.3842 0)
(-24.8569 14.1269 0)
(-22.8466 18.9188 0)
(-19.4991 23.3965 0)
(-14.8926 27.1879 0)
(-9.23739 29.9489 0)
(-2.83857 31.432 0)
(4.01353 31.4418 0)
(10.9884 30.0949 0)
(17.8126 27.5147 0)
(24.2374 23.7694 0)
(30.0438 19.0526 0)
(35.3745 13.8636 0)
(40.1937 8.46382 0)
(44.4955 3.13394 0)
(48.2815 -1.86427 0)
(51.519 -6.33225 0)
(54.1312 -10.1123 0)
(55.9767 -13.072 0)
(56.8778 -15.2553 0)
(56.9055 -17.0046 0)
(55.7823 -18.2483 0)
(53.2741 -18.9904 0)
(49.581 -19.7883 0)
(44.7176 -20.8993 0)
(38.8797 -22.063 0)
(32.1571 -22.5939 0)
(24.675 -22.7032 0)
(16.4844 -24.7899 0)
(6.54291 -28.9192 0)
(-2.94389 -33.1065 0)
(-12.5541 -36.7624 0)
(-22.1391 -39.6511 0)
(-31.726 -41.6292 0)
(-41.3592 -42.5367 0)
(-51.15 -42.0169 0)
(-60.3799 -38.6116 0)
(-68.2442 -30.8408 0)
(-76.1647 -20.3239 0)
(-84.2176 -7.85747 0)
(-90.8409 6.57671 0)
(-95.1794 22.7117 0)
(-97.1335 39.6718 0)
(-95.9696 55.6337 0)
(-91.2529 68.2508 0)
(-83.0391 76.678 0)
(-73.1151 82.5712 0)
(-62.5099 84.1166 0)
(-50.7307 78.2498 0)
(-36.3008 64.6768 0)
(-18.8303 46.355 0)
(-1.78448 28.8727 0)
(10.5283 17.4719 0)
(26.5799 3.18951 0)
(43.5456 -11.2756 0)
(58.9562 -22.6986 0)
(71.8013 -30.4696 0)
(81.5413 -34.5233 0)
(88.3389 -35.6265 0)
(91.6656 -33.9608 0)
(90.8577 -29.7554 0)
(87.5218 -24.4941 0)
(81.9609 -18.9388 0)
(74.739 -13.6222 0)
(66.4763 -9.00708 0)
(57.6242 -5.38095 0)
(48.4672 -2.90332 0)
(39.5126 -1.53888 0)
(31.6843 -1.02028 0)
(25.9495 -1.18164 0)
(22.5173 -2.21088 0)
(20.4277 -4.24293 0)
(19.31 -7.10643 0)
(19.135 -10.361 0)
(19.2007 -13.5027 0)
(19.23 -16.6408 0)
(17.4254 -19.8663 0)
(12.586 -22.1294 0)
(4.51496 -24.1786 0)