/*--------------------------------*- C++ -*----------------------------------*\
| =========                 |                                                 |
| \\      /  F ield         | OpenFOAM: The Open Source CFD Toolbox           |
|  \\    /   O peration     | Version:  2206                                  |
|   \\  /    A nd           | Website:  www.openfoam.com                      |
|    \\/     M anipulation  |                                                 |
\*---------------------------------------------------------------------------*/
FoamFile
{
    version     2.0;
    format      ascii;
    arch        "LSB;label=32;scalar=64";
    class       volVectorField;
    location    "19.7001";
    object      U_0;
}
// * * * * * * * * * * * * * * * * * * * * * * * * * * * * * * * * * * * * * //

dimensions      [0 1 -1 0 0 0 0];

internalField   nonuniform List<vector> 
3088
(
(1.39454 0.148606 0)
(1.40692 0.206844 0)
(1.42389 0.261929 0)
(1.4449 0.312581 0)
(1.46929 0.357732 0)
(1.4963 0.396602 0)
(1.52519 0.428724 0)
(1.5552 0.453939 0)
(1.58569 0.472362 0)
(1.61606 0.484316 0)
(1.6458 0.490291 0)
(1.67448 0.490919 0)
(1.70175 0.486941 0)
(1.72747 0.479123 0)
(1.75166 0.468167 0)
(1.7745 0.454659 0)
(1.79628 0.438974 0)
(1.81734 0.421214 0)
(1.83803 0.401255 0)
(1.85861 0.378788 0)
(1.87932 0.353388 0)
(1.90028 0.324573 0)
(1.92153 0.291871 0)
(1.94299 0.254896 0)
(1.96446 0.213386 0)
(1.98564 0.167242 0)
(2.00617 0.116539 0)
(2.02565 0.0615206 0)
(2.04367 0.00267133 0)
(2.05974 -0.0590322 0)
(2.07311 -0.12167 0)
(2.08314 -0.183267 0)
(2.08947 -0.242191 0)
(2.09183 -0.296857 0)
(2.09005 -0.345795 0)
(2.08405 -0.387727 0)
(2.07393 -0.421595 0)
(2.05976 -0.446539 0)
(2.04069 -0.461765 0)
(2.01657 -0.466267 0)
(1.98777 -0.460822 0)
(1.95484 -0.447341 0)
(1.919 -0.428367 0)
(1.88176 -0.406886 0)
(1.84491 -0.3857 0)
(1.80943 -0.366388 0)
(1.776 -0.349605 0)
(1.74502 -0.335408 0)
(1.71668 -0.323412 0)
(1.69097 -0.31291 0)
(1.6678 -0.302993 0)
(1.64703 -0.292632 0)
(1.62853 -0.280737 0)
(1.61228 -0.266309 0)
(1.59829 -0.248504 0)
(1.58652 -0.226533 0)
(1.57705 -0.199812 0)
(1.56996 -0.167993 0)
(1.56534 -0.131004 0)
(1.56326 -0.0890651 0)
(1.56381 -0.0426927 0)
(1.56702 0.00730838 0)
(1.57295 0.0598325 0)
(1.58152 0.113392 0)
(1.5925 0.166124 0)
(1.60566 0.216615 0)
(1.62072 0.263625 0)
(1.63735 0.306059 0)
(1.65515 0.343044 0)
(1.67371 0.374005 0)
(1.69265 0.398677 0)
(1.71158 0.417064 0)
(1.73027 0.429333 0)
(1.74873 0.4356 0)
(1.76697 0.435743 0)
(1.78461 0.429817 0)
(1.80147 0.41836 0)
(1.81749 0.402163 0)
(1.83271 0.382077 0)
(1.84733 0.358869 0)
(1.86159 0.333138 0)
(1.87574 0.305293 0)
(1.88995 0.275574 0)
(1.90433 0.244096 0)
(1.9189 0.210911 0)
(1.93361 0.176044 0)
(1.94831 0.139516 0)
(1.96284 0.101382 0)
(1.97701 0.0617038 0)
(1.99064 0.0205552 0)
(2.00351 -0.0218889 0)
(2.01526 -0.0651204 0)
(2.02538 -0.108187 0)
(2.03353 -0.150122 0)
(2.03937 -0.189792 0)
(2.04236 -0.226256 0)
(2.04226 -0.259061 0)
(2.03921 -0.287548 0)
(2.03271 -0.310742 0)
(2.02258 -0.328039 0)
(2.00779 -0.338724 0)
(1.98833 -0.342177 0)
(1.96448 -0.339212 0)
(1.93713 -0.331126 0)
(1.90758 -0.319643 0)
(1.87744 -0.306765 0)
(1.84829 -0.294186 0)
(1.82096 -0.282727 0)
(1.79606 -0.272679 0)
(1.77396 -0.263942 0)
(1.75478 -0.256118 0)
(1.73849 -0.248572 0)
(1.72495 -0.240447 0)
(1.714 -0.230723 0)
(1.70558 -0.218664 0)
(1.69942 -0.20368 0)
(1.69527 -0.185297 0)
(1.69295 -0.163257 0)
(1.69228 -0.137514 0)
(1.69312 -0.108216 0)
(1.69532 -0.075686 0)
(1.69876 -0.0403744 0)
(1.70336 -0.00284001 0)
(1.36648 0.138992 0)
(1.37835 0.19235 0)
(1.39495 0.242994 0)
(1.41581 0.289787 0)
(1.44031 0.331763 0)
(1.46776 0.368192 0)
(1.49744 0.398611 0)
(1.52862 0.422826 0)
(1.56065 0.440888 0)
(1.59291 0.45305 0)
(1.62487 0.459717 0)
(1.65609 0.461418 0)
(1.68626 0.458753 0)
(1.71521 0.452326 0)
(1.74293 0.442687 0)
(1.76951 0.430307 0)
(1.79515 0.415479 0)
(1.82011 0.39828 0)
(1.84466 0.378599 0)
(1.86901 0.356184 0)
(1.89334 0.330685 0)
(1.91771 0.301715 0)
(1.94211 0.268907 0)
(1.96641 0.231983 0)
(1.99038 0.190791 0)
(2.01368 0.145315 0)
(2.03593 0.0956722 0)
(2.05676 0.0421209 0)
(2.07575 -0.014808 0)
(2.09234 -0.0739392 0)
(2.1057 -0.133264 0)
(2.11527 -0.191106 0)
(2.12061 -0.24593 0)
(2.12144 -0.296279 0)
(2.11759 -0.340795 0)
(2.10906 -0.378257 0)
(2.09591 -0.407577 0)
(2.07762 -0.427812 0)
(2.0535 -0.437675 0)
(2.02385 -0.436922 0)
(1.98903 -0.42697 0)
(1.95019 -0.410073 0)
(1.90895 -0.389217 0)
(1.86735 -0.367639 0)
(1.82693 -0.347653 0)
(1.78853 -0.330342 0)
(1.75271 -0.316044 0)
(1.71972 -0.30456 0)
(1.68958 -0.295298 0)
(1.66215 -0.287417 0)
(1.63722 -0.279948 0)
(1.61457 -0.271877 0)
(1.59404 -0.262192 0)
(1.57555 -0.249931 0)
(1.55918 -0.234306 0)
(1.54493 -0.21458 0)
(1.53295 -0.190207 0)
(1.5234 -0.160861 0)
(1.51645 -0.126472 0)
(1.51227 -0.0872495 0)
(1.51102 -0.0436931 0)
(1.5128 0.00340994 0)
(1.51771 0.0530136 0)
(1.52574 0.103768 0)
(1.53668 0.153925 0)
(1.5503 0.202092 0)
(1.56629 0.247112 0)
(1.5843 0.287955 0)
(1.6039 0.323787 0)
(1.62464 0.35402 0)
(1.64606 0.378338 0)
(1.66781 0.396657 0)
(1.68967 0.409016 0)
(1.71153 0.415447 0)
(1.73331 0.415914 0)
(1.75464 0.410569 0)
(1.77533 0.399882 0)
(1.79525 0.384505 0)
(1.81436 0.365159 0)
(1.83275 0.342523 0)
(1.85058 0.317165 0)
(1.86801 0.289511 0)
(1.88517 0.259853 0)
(1.90215 0.22838 0)
(1.91897 0.195216 0)
(1.93555 0.160456 0)
(1.9518 0.124185 0)
(1.96757 0.0864683 0)
(1.98275 0.047358 0)
(1.99717 0.0069572 0)
(2.01057 -0.034411 0)
(2.02242 -0.0759978 0)
(2.03224 -0.117011 0)
(2.03963 -0.156533 0)
(2.04415 -0.193518 0)
(2.04534 -0.227191 0)
(2.04449 -0.256896 0)
(2.03908 -0.281767 0)
(2.02962 -0.300906 0)
(2.01506 -0.313623 0)
(1.99516 -0.319056 0)
(1.97023 -0.317781 0)
(1.94114 -0.310998 0)
(1.90927 -0.300392 0)
(1.87628 -0.288031 0)
(1.84397 -0.275875 0)
(1.8133 -0.265028 0)
(1.78496 -0.255962 0)
(1.75938 -0.248701 0)
(1.73674 -0.242913 0)
(1.71704 -0.238011 0)
(1.70012 -0.23324 0)
(1.68578 -0.227728 0)
(1.67379 -0.220496 0)
(1.66408 -0.21071 0)
(1.65648 -0.197801 0)
(1.65079 -0.181314 0)
(1.64689 -0.161019 0)
(1.64469 -0.136888 0)
(1.64412 -0.109088 0)
(1.64508 -0.0779563 0)
(1.64753 -0.0439648 0)
(1.65141 -0.00769187 0)
(1.34477 0.129933 0)
(1.35611 0.178354 0)
(1.37222 0.224439 0)
(1.39269 0.267188 0)
(1.41696 0.30574 0)
(1.44442 0.339429 0)
(1.47437 0.367814 0)
(1.50614 0.390683 0)
(1.53908 0.408039 0)
(1.57258 0.420068 0)
(1.60612 0.427084 0)
(1.63927 0.429507 0)
(1.67173 0.427803 0)
(1.70332 0.422443 0)
(1.73397 0.413862 0)
(1.76371 0.402431 0)
(1.79265 0.388364 0)
(1.82099 0.371704 0)
(1.84891 0.352352 0)
(1.87657 0.330103 0)
(1.90405 0.304679 0)
(1.93138 0.275785 0)
(1.95849 0.243158 0)
(1.98518 0.206619 0)
(2.01118 0.166111 0)
(2.03616 0.121681 0)
(2.05974 0.0734651 0)
(2.08157 0.0217244 0)
(2.10123 -0.0329145 0)
(2.11801 -0.0889685 0)
(2.13117 -0.144566 0)
(2.14012 -0.198151 0)
(2.1443 -0.248344 0)
(2.14344 -0.293893 0)
(2.13749 -0.333472 0)
(2.12646 -0.365831 0)
(2.10996 -0.389975 0)
(2.08702 -0.404473 0)
(2.05769 -0.408112 0)
(2.02207 -0.401739 0)
(1.9812 -0.38721 0)
(1.93679 -0.367351 0)
(1.89101 -0.345566 0)
(1.84612 -0.324881 0)
(1.80318 -0.306864 0)
(1.76295 -0.292169 0)
(1.7258 -0.280799 0)
(1.69178 -0.272286 0)
(1.66073 -0.26585 0)
(1.63235 -0.260553 0)
(1.60634 -0.255409 0)
(1.58242 -0.249452 0)
(1.56037 -0.24176 0)
(1.54012 -0.231472 0)
(1.52177 -0.217868 0)
(1.50544 -0.200302 0)
(1.49129 -0.17827 0)
(1.47959 -0.15147 0)
(1.47059 -0.119841 0)
(1.46453 -0.083581 0)
(1.46162 -0.0431595 0)
(1.46205 0.000696115 0)
(1.46595 0.0469852 0)
(1.47336 0.0944729 0)
(1.4841 0.141622 0)
(1.49791 0.187038 0)
(1.51449 0.229641 0)
(1.53348 0.268467 0)
(1.55444 0.30273 0)
(1.57692 0.331857 0)
(1.60048 0.355483 0)
(1.62473 0.373416 0)
(1.64939 0.385589 0)
(1.67428 0.391989 0)
(1.69924 0.39264 0)
(1.72388 0.387749 0)
(1.74799 0.377733 0)
(1.7714 0.363137 0)
(1.794 0.344575 0)
(1.81581 0.322648 0)
(1.8369 0.297882 0)
(1.85736 0.270701 0)
(1.87727 0.241428 0)
(1.89668 0.210305 0)
(1.91559 0.177515 0)
(1.93393 0.143207 0)
(1.95162 0.107489 0)
(1.96858 0.070436 0)
(1.98473 0.0321155 0)
(1.99989 -0.00727921 0)
(2.01366 -0.0471557 0)
(2.02554 -0.086799 0)
(2.03505 -0.12539 0)
(2.04184 -0.162058 0)
(2.04488 -0.196096 0)
(2.045 -0.226546 0)
(2.04147 -0.252382 0)
(2.03243 -0.272678 0)
(2.01818 -0.286782 0)
(1.99818 -0.293715 0)
(1.97257 -0.293811 0)
(1.94227 -0.288138 0)
(1.90869 -0.27829 0)
(1.87353 -0.266323 0)
(1.83874 -0.254355 0)
(1.80545 -0.243741 0)
(1.77439 -0.235157 0)
(1.74602 -0.228798 0)
(1.72052 -0.224453 0)
(1.6979 -0.221594 0)
(1.67803 -0.219484 0)
(1.66069 -0.217283 0)
(1.64563 -0.214116 0)
(1.63261 -0.20908 0)
(1.62152 -0.201339 0)
(1.61238 -0.190351 0)
(1.60502 -0.175687 0)
(1.59941 -0.157144 0)
(1.59555 -0.134715 0)
(1.59344 -0.108576 0)
(1.59307 -0.0790637 0)
(1.59443 -0.0466544 0)
(1.5975 -0.0119362 0)
(1.32853 0.121352 0)
(1.33935 0.164873 0)
(1.35489 0.206377 0)
(1.3748 0.244997 0)
(1.39859 0.27998 0)
(1.42571 0.310729 0)
(1.45552 0.336832 0)
(1.48739 0.35807 0)
(1.5207 0.37441 0)
(1.55489 0.385975 0)
(1.58945 0.392997 0)
(1.62397 0.395783 0)
(1.65815 0.394687 0)
(1.6918 0.390074 0)
(1.72479 0.382291 0)
(1.75709 0.371613 0)
(1.78878 0.358181 0)
(1.81996 0.342011 0)
(1.85073 0.323017 0)
(1.88117 0.301034 0)
(1.91132 0.275852 0)
(1.94112 0.247262 0)
(1.97043 0.215099 0)
(1.99904 0.17927 0)
(2.02663 0.13979 0)
(2.05286 0.0967453 0)
(2.07741 0.050274 0)
(2.09994 0.000664582 0)
(2.11993 -0.051281 0)
(2.13655 -0.103878 0)
(2.14919 -0.155434 0)
(2.15726 -0.204296 0)
(2.1601 -0.249264 0)
(2.15742 -0.289462 0)
(2.14933 -0.323635 0)
(2.13562 -0.350455 0)
(2.11503 -0.368416 0)
(2.08705 -0.375754 0)
(2.05164 -0.372623 0)
(2.00967 -0.36044 0)
(1.9629 -0.341747 0)
(1.91369 -0.319959 0)
(1.86481 -0.298585 0)
(1.81782 -0.279773 0)
(1.77369 -0.2645 0)
(1.73292 -0.252987 0)
(1.69564 -0.244893 0)
(1.66167 -0.239504 0)
(1.63065 -0.235892 0)
(1.60215 -0.233055 0)
(1.57574 -0.230023 0)
(1.55112 -0.225913 0)
(1.52808 -0.219938 0)
(1.50658 -0.211384 0)
(1.48673 -0.199623 0)
(1.46875 -0.184101 0)
(1.45286 -0.164366 0)
(1.43938 -0.140145 0)
(1.42864 -0.111377 0)
(1.42095 -0.0782452 0)
(1.4166 -0.0411837 0)
(1.41581 -0.000867495 0)
(1.41872 0.0417831 0)
(1.42542 0.0856553 0)
(1.43581 0.129429 0)
(1.44958 0.171732 0)
(1.46646 0.211561 0)
(1.48607 0.248014 0)
(1.50799 0.280342 0)
(1.53179 0.307973 0)
(1.55704 0.330514 0)
(1.58334 0.347718 0)
(1.61039 0.359441 0)
(1.63789 0.36562 0)
(1.66559 0.366318 0)
(1.69311 0.36177 0)
(1.7202 0.352337 0)
(1.74666 0.338482 0)
(1.77232 0.320731 0)
(1.79715 0.299613 0)
(1.82114 0.27561 0)
(1.84431 0.249133 0)
(1.86669 0.220525 0)
(1.8883 0.190062 0)
(1.90909 0.157969 0)
(1.92902 0.12442 0)
(1.94804 0.089528 0)
(1.96612 0.0533637 0)
(1.98316 0.0160443 0)
(1.99888 -0.0219998 0)
(2.01282 -0.0600687 0)
(2.02449 -0.0973964 0)
(2.03334 -0.133154 0)
(2.0388 -0.16656 0)
(2.04039 -0.196858 0)
(2.03744 -0.223054 0)
(2.02952 -0.244024 0)
(2.01579 -0.258928 0)
(1.99595 -0.266828 0)
(1.97011 -0.267934 0)
(1.9391 -0.263143 0)
(1.90441 -0.25394 0)
(1.86779 -0.242326 0)
(1.83133 -0.230487 0)
(1.79629 -0.219946 0)
(1.76344 -0.211544 0)
(1.73319 -0.205623 0)
(1.70571 -0.202111 0)
(1.68097 -0.200604 0)
(1.65881 -0.20044 0)
(1.63902 -0.200801 0)
(1.62134 -0.200814 0)
(1.60556 -0.199631 0)
(1.59147 -0.196446 0)
(1.579 -0.190501 0)
(1.56823 -0.181256 0)
(1.55914 -0.168328 0)
(1.55176 -0.151535 0)
(1.54617 -0.130886 0)
(1.54243 -0.106558 0)
(1.5406 -0.0788846 0)
(1.54074 -0.0483335 0)
(1.54289 -0.0154836 0)
(1.3168 0.113222 0)
(1.32715 0.15198 0)
(1.3421 0.188971 0)
(1.36133 0.223459 0)
(1.38445 0.254797 0)
(1.41095 0.282463 0)
(1.44027 0.306085 0)
(1.47185 0.32545 0)
(1.50512 0.340493 0)
(1.53954 0.351279 0)
(1.57466 0.357967 0)
(1.61006 0.360769 0)
(1.64546 0.35995 0)
(1.6806 0.355793 0)
(1.71536 0.348555 0)
(1.74967 0.338422 0)
(1.78354 0.325484 0)
(1.817 0.309741 0)
(1.85008 0.29112 0)
(1.88279 0.269493 0)
(1.91507 0.244712 0)
(1.94682 0.216646 0)
(1.97783 0.185215 0)
(2.00785 0.150406 0)
(2.03657 0.11227 0)
(2.06371 0.070886 0)
(2.08899 0.0263837 0)
(2.11203 -0.0208248 0)
(2.13198 -0.06951 0)
(2.148 -0.118154 0)
(2.15956 -0.165155 0)
(2.16589 -0.208916 0)
(2.167 -0.248473 0)
(2.16349 -0.283152 0)
(2.15304 -0.311454 0)
(2.13559 -0.331668 0)
(2.10975 -0.341652 0)
(2.07529 -0.340993 0)
(2.03296 -0.330725 0)
(1.98457 -0.313073 0)
(1.93263 -0.291344 0)
(1.88037 -0.269328 0)
(1.82994 -0.249703 0)
(1.78253 -0.233781 0)
(1.73881 -0.221992 0)
(1.699 -0.21414 0)
(1.6629 -0.209564 0)
(1.63008 -0.207314 0)
(1.59999 -0.206346 0)
(1.57209 -0.205667 0)
(1.54591 -0.204402 0)
(1.52115 -0.201808 0)
(1.49765 -0.197255 0)
(1.47541 -0.190178 0)
(1.45458 -0.180058 0)
(1.43544 -0.166438 0)
(1.41826 -0.148918 0)
(1.40343 -0.127257 0)
(1.39132 -0.101396 0)
(1.38231 -0.0714911 0)
(1.37671 -0.0379336 0)
(1.37481 -0.00136083 0)
(1.3768 0.0374182 0)
(1.38276 0.0774162 0)
(1.39264 0.117495 0)
(1.4062 0.156407 0)
(1.4231 0.193165 0)
(1.44303 0.226935 0)
(1.46556 0.257002 0)
(1.49029 0.282801 0)
(1.5168 0.30391 0)
(1.54469 0.320042 0)
(1.57362 0.331022 0)
(1.60327 0.336789 0)
(1.63324 0.337411 0)
(1.66315 0.333099 0)
(1.69274 0.324165 0)
(1.72176 0.311002 0)
(1.75002 0.294066 0)
(1.77742 0.273824 0)
(1.80389 0.250715 0)
(1.82941 0.225135 0)
(1.85393 0.197432 0)
(1.87743 0.167902 0)
(1.89986 0.136784 0)
(1.9212 0.104247 0)
(1.94145 0.0703922 0)
(1.96059 0.0353159 0)
(1.97838 -0.000662167 0)
(1.99437 -0.0369261 0)
(2.00802 -0.0727541 0)
(2.01876 -0.107292 0)
(2.02599 -0.139675 0)
(2.02909 -0.169071 0)
(2.02754 -0.194652 0)
(2.02074 -0.215599 0)
(2.00769 -0.230908 0)
(1.98809 -0.239306 0)
(1.96216 -0.240983 0)
(1.93077 -0.236799 0)
(1.89545 -0.228128 0)
(1.85803 -0.216884 0)
(1.8207 -0.205245 0)
(1.78481 -0.194802 0)
(1.7511 -0.186458 0)
(1.71992 -0.180644 0)
(1.69139 -0.177434 0)
(1.66543 -0.176583 0)
(1.64185 -0.177568 0)
(1.62039 -0.179666 0)
(1.60081 -0.182037 0)
(1.58285 -0.183826 0)
(1.56634 -0.184237 0)
(1.55117 -0.182558 0)
(1.5373 -0.178137 0)
(1.5249 -0.170466 0)
(1.51407 -0.159198 0)
(1.50492 -0.144157 0)
(1.4976 -0.125358 0)
(1.49224 -0.102975 0)
(1.48894 -0.0773308 0)
(1.48782 -0.0488794 0)
(1.48894 -0.0181854 0)
(1.30851 0.105382 0)
(1.31843 0.139551 0)
(1.33276 0.172163 0)
(1.35127 0.202601 0)
(1.37362 0.230317 0)
(1.39936 0.254857 0)
(1.42801 0.275886 0)
(1.45905 0.293192 0)
(1.49196 0.306692 0)
(1.52626 0.316412 0)
(1.56152 0.322453 0)
(1.59736 0.324964 0)
(1.63346 0.32413 0)
(1.6696 0.320154 0)
(1.70562 0.313208 0)
(1.74142 0.303415 0)
(1.77695 0.290834 0)
(1.81216 0.275454 0)
(1.84702 0.257215 0)
(1.88144 0.236027 0)
(1.91533 0.211802 0)
(1.94849 0.184477 0)
(1.98068 0.154038 0)
(2.01163 0.120509 0)
(2.04108 0.0839232 0)
(2.06884 0.0443282 0)
(2.09469 0.00194055 0)
(2.11797 -0.0423752 0)
(2.13769 -0.0872568 0)
(2.15308 -0.131407 0)
(2.16363 -0.173435 0)
(2.1679 -0.212276 0)
(2.16805 -0.246552 0)
(2.16206 -0.275054 0)
(2.14728 -0.296034 0)
(2.12365 -0.307321 0)
(2.09034 -0.308049 0)
(2.04793 -0.298954 0)
(1.99837 -0.281972 0)
(1.94437 -0.260248 0)
(1.88945 -0.237664 0)
(1.83638 -0.217306 0)
(1.78654 -0.200765 0)
(1.74079 -0.188687 0)
(1.69937 -0.181008 0)
(1.66207 -0.177101 0)
(1.6284 -0.176004 0)
(1.59771 -0.176631 0)
(1.56933 -0.177936 0)
(1.54266 -0.179008 0)
(1.51728 -0.179115 0)
(1.49291 -0.17768 0)
(1.46946 -0.174235 0)
(1.447 -0.168368 0)
(1.4257 -0.159681 0)
(1.40589 -0.147798 0)
(1.38791 -0.13238 0)
(1.37217 -0.113214 0)
(1.3591 -0.0902449 0)
(1.3491 -0.0636091 0)
(1.34253 -0.0336516 0)
(1.33969 -0.000911254 0)
(1.34083 0.0338783 0)
(1.34604 0.0698418 0)
(1.35532 0.105999 0)
(1.36848 0.141298 0)
(1.3852 0.174735 0)
(1.40515 0.205547 0)
(1.42798 0.23306 0)
(1.45328 0.256718 0)
(1.48065 0.276086 0)
(1.50969 0.290855 0)
(1.54002 0.30084 0)
(1.57125 0.305994 0)
(1.60295 0.306402 0)
(1.63476 0.302227 0)
(1.66633 0.293705 0)
(1.69741 0.281181 0)
(1.72778 0.26505 0)
(1.75728 0.245726 0)
(1.78579 0.223612 0)
(1.81322 0.199087 0)
(1.83949 0.172492 0)
(1.86455 0.14412 0)
(1.88838 0.114187 0)
(1.911 0.0828242 0)
(1.93242 0.0501311 0)
(1.95244 0.016415 0)
(1.9706 -0.0177469 0)
(1.98632 -0.05166 0)
(1.99894 -0.0844992 0)
(2.00777 -0.115411 0)
(2.01219 -0.143545 0)
(2.01172 -0.16808 0)
(2.00577 -0.188314 0)
(1.99322 -0.203262 0)
(1.97379 -0.211568 0)
(1.94772 -0.213378 0)
(1.91606 -0.209501 0)
(1.88045 -0.201255 0)
(1.84284 -0.190481 0)
(1.80549 -0.17927 0)
(1.76969 -0.169117 0)
(1.73608 -0.160892 0)
(1.70498 -0.155082 0)
(1.67644 -0.151872 0)
(1.65029 -0.151164 0)
(1.6263 -0.152598 0)
(1.60416 -0.155596 0)
(1.58357 -0.159424 0)
(1.56427 -0.163274 0)
(1.54607 -0.166354 0)
(1.52886 -0.167946 0)
(1.51262 -0.16743 0)
(1.49742 -0.164273 0)
(1.48344 -0.158013 0)
(1.47093 -0.148331 0)
(1.46006 -0.13505 0)
(1.45106 -0.118175 0)
(1.44412 -0.0978662 0)
(1.43938 -0.0744245 0)
(1.437 -0.0482803 0)
(1.43708 -0.0199731 0)
(1.30265 0.097873 0)
(1.31226 0.12771 0)
(1.32605 0.156115 0)
(1.34384 0.182592 0)
(1.36537 0.206696 0)
(1.39025 0.228051 0)
(1.41808 0.246371 0)
(1.44838 0.261467 0)
(1.4807 0.27324 0)
(1.5146 0.281676 0)
(1.54967 0.286826 0)
(1.58557 0.288785 0)
(1.622 0.287666 0)
(1.65872 0.283599 0)
(1.69556 0.276703 0)
(1.73239 0.267064 0)
(1.76908 0.254716 0)
(1.80554 0.239647 0)
(1.84166 0.221809 0)
(1.87728 0.201153 0)
(1.91223 0.177641 0)
(1.94626 0.151267 0)
(1.97912 0.122043 0)
(2.01058 0.089972 0)
(2.0405 0.0550266 0)
(2.06874 0.0172562 0)
(2.09487 -0.0228006 0)
(2.11795 -0.0638488 0)
(2.13714 -0.104626 0)
(2.15176 -0.143868 0)
(2.16067 -0.180614 0)
(2.16356 -0.213731 0)
(2.16038 -0.241594 0)
(2.14797 -0.262437 0)
(2.12567 -0.273688 0)
(2.09303 -0.274653 0)
(2.05045 -0.265918 0)
(1.99995 -0.249145 0)
(1.94451 -0.22732 0)
(1.88791 -0.204321 0)
(1.83334 -0.18343 0)
(1.78233 -0.16644 0)
(1.73582 -0.154168 0)
(1.69404 -0.146647 0)
(1.65675 -0.143308 0)
(1.62337 -0.143209 0)
(1.59317 -0.145235 0)
(1.56539 -0.148267 0)
(1.53932 -0.151325 0)
(1.51439 -0.153646 0)
(1.49025 -0.154675 0)
(1.46671 -0.154021 0)
(1.44376 -0.151374 0)
(1.42154 -0.146459 0)
(1.40027 -0.138992 0)
(1.38029 -0.128674 0)
(1.36199 -0.115229 0)
(1.34581 -0.0984606 0)
(1.33218 -0.0783168 0)
(1.32154 -0.0549109 0)
(1.31428 -0.0285367 0)
(1.31074 0.000342823 0)
(1.31115 0.031089 0)
(1.31565 0.0629415 0)
(1.32428 0.0950499 0)
(1.33691 0.126521 0)
(1.35329 0.156484 0)
(1.37308 0.184138 0)
(1.39594 0.208856 0)
(1.4215 0.230109 0)
(1.44937 0.247473 0)
(1.47913 0.260645 0)
(1.51035 0.269447 0)
(1.5426 0.273835 0)
(1.57548 0.273872 0)
(1.60861 0.269687 0)
(1.64165 0.261483 0)
(1.67428 0.249533 0)
(1.70624 0.234182 0)
(1.73734 0.215801 0)
(1.7674 0.194761 0)
(1.79629 0.171418 0)
(1.82391 0.146085 0)
(1.85026 0.119005 0)
(1.87534 0.0903283 0)
(1.89918 0.0601846 0)
(1.9215 0.0289359 0)
(1.94184 -0.00287907 0)
(1.95954 -0.0345564 0)
(1.97386 -0.0652849 0)
(1.98406 -0.0942256 0)
(1.98951 -0.120554 0)
(1.98974 -0.1435 0)
(1.98409 -0.162443 0)
(1.97152 -0.176288 0)
(1.95185 -0.18384 0)
(1.92546 -0.185343 0)
(1.89362 -0.181554 0)
(1.85813 -0.173741 0)
(1.82108 -0.16368 0)
(1.78464 -0.153247 0)
(1.74988 -0.143703 0)
(1.71739 -0.13583 0)
(1.6874 -0.130123 0)
(1.65987 -0.126832 0)
(1.63459 -0.125965 0)
(1.61124 -0.127313 0)
(1.58944 -0.13047 0)
(1.56886 -0.134862 0)
(1.54918 -0.139799 0)
(1.5302 -0.144554 0)
(1.5118 -0.148427 0)
(1.49396 -0.150796 0)
(1.47675 -0.151132 0)
(1.46033 -0.14899 0)
(1.44491 -0.143981 0)
(1.43083 -0.135807 0)
(1.41836 -0.124283 0)
(1.40777 -0.10939 0)
(1.3993 -0.0912654 0)
(1.39317 -0.07018 0)
(1.38953 -0.0465289 0)
(1.38854 -0.0208141 0)
(1.29814 0.0904085 0)
(1.30756 0.11616 0)
(1.32091 0.140572 0)
(1.33808 0.163264 0)
(1.35884 0.18388 0)
(1.38287 0.202114 0)
(1.40982 0.217721 0)
(1.43929 0.230532 0)
(1.47088 0.240445 0)
(1.50418 0.24742 0)
(1.53883 0.251466 0)
(1.57451 0.252629 0)
(1.61095 0.250975 0)
(1.64791 0.246582 0)
(1.6852 0.239535 0)
(1.72265 0.229892 0)
(1.76008 0.217676 0)
(1.79734 0.202873 0)
(1.83423 0.185463 0)
(1.87055 0.165438 0)
(1.90604 0.142807 0)
(1.94045 0.11757 0)
(1.97359 0.0896986 0)
(2.00538 0.0591183 0)
(2.03574 0.0257602 0)
(2.0643 -0.0100606 0)
(2.0901 -0.0472764 0)
(2.11216 -0.0846992 0)
(2.12957 -0.121019 0)
(2.14145 -0.154981 0)
(2.14696 -0.185399 0)
(2.14504 -0.211172 0)
(2.13376 -0.230692 0)
(2.11171 -0.240951 0)
(2.07866 -0.241144 0)
(2.03541 -0.232008 0)
(1.9841 -0.215088 0)
(1.92791 -0.193184 0)
(1.87099 -0.170135 0)
(1.81655 -0.149164 0)
(1.76618 -0.132114 0)
(1.72071 -0.119865 0)
(1.68028 -0.112533 0)
(1.64453 -0.109659 0)
(1.61285 -0.110371 0)
(1.58444 -0.113559 0)
(1.55843 -0.118055 0)
(1.53404 -0.122798 0)
(1.51062 -0.126956 0)
(1.48771 -0.129961 0)
(1.4651 -0.13146 0)
(1.44272 -0.131231 0)
(1.42065 -0.129103 0)
(1.39908 -0.124912 0)
(1.37829 -0.118468 0)
(1.3586 -0.109547 0)
(1.34045 -0.0979208 0)
(1.32429 -0.0834241 0)
(1.31057 -0.0659919 0)
(1.2997 -0.0457099 0)
(1.2921 -0.0228262 0)
(1.28811 0.00224581 0)
(1.28799 0.0289757 0)
(1.29191 0.056719 0)
(1.29992 0.0847428 0)
(1.31194 0.112273 0)
(1.32782 0.138548 0)
(1.34725 0.162866 0)
(1.36992 0.184611 0)
(1.39544 0.203269 0)
(1.42342 0.218441 0)
(1.45343 0.229848 0)
(1.48504 0.23733 0)
(1.51782 0.240823 0)
(1.55138 0.24035 0)
(1.58531 0.236017 0)
(1.61927 0.228005 0)
(1.65292 0.216559 0)
(1.68595 0.201967 0)
(1.71813 0.184551 0)
(1.74925 0.164647 0)
(1.77918 0.142557 0)
(1.80791 0.118515 0)
(1.83543 0.0926765 0)
(1.86166 0.0652456 0)
(1.88624 0.0366513 0)
(1.90861 0.00744382 0)
(1.92801 -0.0216398 0)
(1.94361 -0.0497961 0)
(1.95465 -0.076225 0)
(1.96054 -0.10015 0)
(1.96087 -0.120924 0)
(1.95482 -0.137998 0)
(1.9416 -0.15004 0)
(1.92123 -0.156283 0)
(1.89442 -0.157116 0)
(1.86265 -0.153306 0)
(1.8279 -0.146091 0)
(1.79227 -0.137083 0)
(1.75766 -0.127802 0)
(1.72489 -0.119227 0)
(1.69446 -0.112026 0)
(1.6665 -0.106661 0)
(1.64092 -0.103393 0)
(1.61744 -0.102293 0)
(1.59567 -0.103259 0)
(1.5752 -0.106038 0)
(1.55563 -0.110242 0)
(1.53659 -0.115359 0)
(1.51782 -0.120791 0)
(1.49919 -0.125913 0)
(1.48067 -0.130128 0)
(1.46234 -0.132911 0)
(1.44434 -0.133815 0)
(1.4269 -0.132463 0)
(1.4103 -0.12854 0)
(1.39484 -0.121769 0)
(1.38094 -0.111976 0)
(1.36889 -0.0991016 0)
(1.35901 -0.08324 0)
(1.35153 -0.0646257 0)
(1.34667 -0.0436127 0)
(1.34457 -0.0206554 0)
(1.294 0.0829874 0)
(1.3034 0.104931 0)
(1.31647 0.125576 0)
(1.33313 0.14465 0)
(1.3532 0.161885 0)
(1.37644 0.177041 0)
(1.40255 0.189922 0)
(1.43119 0.200379 0)
(1.46199 0.208316 0)
(1.49461 0.213678 0)
(1.5287 0.216442 0)
(1.56399 0.216609 0)
(1.6002 0.214206 0)
(1.63713 0.209279 0)
(1.67458 0.201894 0)
(1.71231 0.192117 0)
(1.75011 0.179974 0)
(1.78773 0.165458 0)
(1.82493 0.14856 0)
(1.86145 0.129301 0)
(1.89705 0.107697 0)
(1.93157 0.0836934 0)
(1.96503 0.0571128 0)
(1.99737 0.0278071 0)
(2.02803 -0.0039265 0)
(2.05587 -0.037129 0)
(2.07977 -0.0707269 0)
(2.09859 -0.103486 0)
(2.11125 -0.134002 0)
(2.11696 -0.161069 0)
(2.11472 -0.183811 0)
(2.10238 -0.200655 0)
(2.07877 -0.208712 0)
(2.04376 -0.20743 0)
(1.99875 -0.19738 0)
(1.94641 -0.180139 0)
(1.89026 -0.158516 0)
(1.83478 -0.136224 0)
(1.78262 -0.116008 0)
(1.73513 -0.0995222 0)
(1.69289 -0.0876294 0)
(1.65584 -0.0805649 0)
(1.62352 -0.0780171 0)
(1.59519 -0.0792486 0)
(1.56999 -0.083233 0)
(1.54702 -0.0888086 0)
(1.52541 -0.0948553 0)
(1.50448 -0.100461 0)
(1.48374 -0.105008 0)
(1.46293 -0.108146 0)
(1.44199 -0.109705 0)
(1.42097 -0.109602 0)
(1.40005 -0.10777 0)
(1.37946 -0.104126 0)
(1.35951 -0.0985531 0)
(1.34055 -0.0908909 0)
(1.323 -0.0809571 0)
(1.30727 -0.0685921 0)
(1.29386 -0.0537415 0)
(1.28317 -0.0364622 0)
(1.27559 -0.0169479 0)
(1.27148 0.00445302 0)
(1.27109 0.0272878 0)
(1.27462 0.0510135 0)
(1.28214 0.0750085 0)
(1.29362 0.0986097 0)
(1.30893 0.121154 0)
(1.32785 0.142018 0)
(1.35007 0.160649 0)
(1.37523 0.17658 0)
(1.40295 0.189444 0)
(1.43282 0.198974 0)
(1.4644 0.205004 0)
(1.49729 0.207459 0)
(1.53106 0.206351 0)
(1.56531 0.201765 0)
(1.59967 0.193851 0)
(1.63378 0.182824 0)
(1.66735 0.168946 0)
(1.70012 0.15249 0)
(1.73195 0.133696 0)
(1.76278 0.112747 0)
(1.79255 0.0898168 0)
(1.82095 0.0652404 0)
(1.8475 0.0394976 0)
(1.87146 0.0132046 0)
(1.89194 -0.0128651 0)
(1.90807 -0.0379263 0)
(1.91912 -0.0612431 0)
(1.92465 -0.082159 0)
(1.92422 -0.100229 0)
(1.91694 -0.114793 0)
(1.90245 -0.124444 0)
(1.88111 -0.129006 0)
(1.85401 -0.129008 0)
(1.82289 -0.125255 0)
(1.78972 -0.118906 0)
(1.75652 -0.111293 0)
(1.72463 -0.103497 0)
(1.69473 -0.0962423 0)
(1.66718 -0.0900544 0)
(1.64204 -0.0853245 0)
(1.61913 -0.0822943 0)
(1.59815 -0.0810572 0)
(1.57868 -0.0815834 0)
(1.56029 -0.0837376 0)
(1.54253 -0.0872857 0)
(1.52506 -0.0918779 0)
(1.50755 -0.09708 0)
(1.48974 -0.102422 0)
(1.47157 -0.107418 0)
(1.45309 -0.11159 0)
(1.43449 -0.114485 0)
(1.41597 -0.115717 0)
(1.39782 -0.114963 0)
(1.38032 -0.111955 0)
(1.36385 -0.106469 0)
(1.34876 -0.0983221 0)
(1.33548 -0.0874472 0)
(1.32435 -0.0738919 0)
(1.31566 -0.0578247 0)
(1.30964 -0.0395447 0)
(1.30647 -0.0194581 0)
(1.28903 0.0752687 0)
(1.29862 0.0936938 0)
(1.31163 0.110849 0)
(1.32798 0.126539 0)
(1.34756 0.140567 0)
(1.37016 0.152758 0)
(1.39555 0.16297 0)
(1.42344 0.171089 0)
(1.45351 0.17703 0)
(1.48544 0.180728 0)
(1.51893 0.182125 0)
(1.55369 0.181181 0)
(1.58952 0.177883 0)
(1.62622 0.17227 0)
(1.6636 0.164422 0)
(1.70139 0.15442 0)
(1.73925 0.142297 0)
(1.77684 0.128061 0)
(1.8139 0.111742 0)
(1.85033 0.0933514 0)
(1.88612 0.0727379 0)
(1.92127 0.0496049 0)
(1.95546 0.0238666 0)
(1.98755 -0.0038861 0)
(2.01623 -0.0328129 0)
(2.04018 -0.0619439 0)
(2.05822 -0.0900534 0)
(2.06953 -0.116046 0)
(2.0732 -0.139086 0)
(2.0674 -0.158337 0)
(2.05054 -0.171108 0)
(2.02221 -0.175708 0)
(1.98303 -0.172047 0)
(1.93522 -0.160819 0)
(1.8822 -0.143805 0)
(1.82812 -0.123804 0)
(1.77664 -0.103724 0)
(1.72943 -0.0855028 0)
(1.68744 -0.0704674 0)
(1.65091 -0.0594642 0)
(1.61952 -0.0528602 0)
(1.59264 -0.0505234 0)
(1.56941 -0.0519021 0)
(1.54894 -0.0561445 0)
(1.53029 -0.0621989 0)
(1.51256 -0.0689707 0)
(1.49503 -0.0755094 0)
(1.47723 -0.0811256 0)
(1.45896 -0.0854179 0)
(1.44016 -0.0882261 0)
(1.4209 -0.0895189 0)
(1.40134 -0.0893104 0)
(1.38172 -0.087607 0)
(1.36234 -0.0843871 0)
(1.34353 -0.0795768 0)
(1.32563 -0.0730526 0)
(1.30904 -0.0646749 0)
(1.29418 -0.0543187 0)
(1.28146 -0.0419006 0)
(1.27132 -0.0274467 0)
(1.26413 -0.0111425 0)
(1.2602 0.00673987 0)
(1.25983 0.0258238 0)
(1.26318 0.0456575 0)
(1.27037 0.0657199 0)
(1.2814 0.0854522 0)
(1.29618 0.104291 0)
(1.3145 0.121699 0)
(1.33612 0.137188 0)
(1.3607 0.150339 0)
(1.38789 0.160815 0)
(1.41729 0.168367 0)
(1.4485 0.172833 0)
(1.48109 0.174139 0)
(1.51464 0.172294 0)
(1.54874 0.16737 0)
(1.58301 0.159498 0)
(1.61714 0.14885 0)
(1.65089 0.135609 0)
(1.68409 0.119927 0)
(1.71662 0.10195 0)
(1.74816 0.0819354 0)
(1.77817 0.0603315 0)
(1.80592 0.0376919 0)
(1.8305 0.0147065 0)
(1.85091 -0.00783994 0)
(1.86632 -0.0292185 0)
(1.87621 -0.0488186 0)
(1.88032 -0.0662229 0)
(1.87808 -0.0811455 0)
(1.86882 -0.0925024 0)
(1.85273 -0.0994251 0)
(1.83059 -0.102234 0)
(1.80386 -0.101529 0)
(1.77436 -0.0981062 0)
(1.74392 -0.0929404 0)
(1.71414 -0.0869867 0)
(1.68589 -0.0809293 0)
(1.65968 -0.0752574 0)
(1.63572 -0.0703595 0)
(1.61398 -0.0665329 0)
(1.59426 -0.0639714 0)
(1.57624 -0.0627704 0)
(1.5595 -0.0629455 0)
(1.54364 -0.0644456 0)
(1.52823 -0.0671531 0)
(1.51293 -0.0708558 0)
(1.49738 -0.0752661 0)
(1.48129 -0.0800434 0)
(1.46453 -0.0848336 0)
(1.44706 -0.0892895 0)
(1.42898 -0.0930644 0)
(1.41047 -0.0958024 0)
(1.39183 -0.0971548 0)
(1.37337 -0.0968276 0)
(1.35541 -0.0945848 0)
(1.33832 -0.0902376 0)
(1.32249 -0.0836418 0)
(1.30832 -0.0747011 0)
(1.2962 -0.0634089 0)
(1.2865 -0.0499052 0)
(1.27949 -0.0344186 0)
(1.27535 -0.0172778 0)
(1.28213 0.0672201 0)
(1.29214 0.0823308 0)
(1.30531 0.0962084 0)
(1.32161 0.108714 0)
(1.34092 0.119701 0)
(1.36312 0.129037 0)
(1.388 0.136621 0)
(1.41532 0.142371 0)
(1.44482 0.146234 0)
(1.47617 0.14816 0)
(1.50907 0.14808 0)
(1.54328 0.145895 0)
(1.57862 0.141529 0)
(1.61493 0.135007 0)
(1.65199 0.126515 0)
(1.68946 0.116299 0)
(1.72697 0.104453 0)
(1.76431 0.0908247 0)
(1.80157 0.0751048 0)
(1.83883 0.057027 0)
(1.87566 0.0366287 0)
(1.91076 0.0143179 0)
(1.94267 -0.00923643 0)
(1.96988 -0.0331341 0)
(1.99115 -0.0565876 0)
(2.00563 -0.0790107 0)
(2.01238 -0.0998958 0)
(2.00963 -0.118564 0)
(1.99592 -0.131633 0)
(1.97098 -0.138518 0)
(1.93539 -0.138836 0)
(1.89135 -0.132844 0)
(1.84217 -0.121666 0)
(1.79156 -0.10696 0)
(1.74302 -0.0907068 0)
(1.69832 -0.0744754 0)
(1.65865 -0.0595309 0)
(1.62451 -0.0469273 0)
(1.59581 -0.0374747 0)
(1.57202 -0.0315906 0)
(1.55227 -0.0293226 0)
(1.53564 -0.0303996 0)
(1.52114 -0.0342826 0)
(1.50786 -0.0401286 0)
(1.49497 -0.0468719 0)
(1.48169 -0.0535746 0)
(1.46756 -0.0595587 0)
(1.4524 -0.0644125 0)
(1.43621 -0.0679385 0)
(1.41915 -0.0700893 0)
(1.40143 -0.0709071 0)
(1.38332 -0.0704617 0)
(1.36511 -0.0688099 0)
(1.34712 -0.0659669 0)
(1.32968 -0.0618763 0)
(1.31311 -0.0564335 0)
(1.29778 -0.0495227 0)
(1.28407 -0.041042 0)
(1.27239 -0.0309215 0)
(1.26311 -0.0191496 0)
(1.2566 -0.00583623 0)
(1.25319 0.00874748 0)
(1.25311 0.0243059 0)
(1.25655 0.040465 0)
(1.26363 0.0567841 0)
(1.27437 0.0727988 0)
(1.28871 0.0880421 0)
(1.30647 0.102059 0)
(1.32744 0.114427 0)
(1.35132 0.124781 0)
(1.37778 0.132821 0)
(1.40646 0.138328 0)
(1.43696 0.141163 0)
(1.4689 0.14127 0)
(1.50187 0.138662 0)
(1.53551 0.133375 0)
(1.5695 0.12545 0)
(1.6036 0.114946 0)
(1.63759 0.101966 0)
(1.67108 0.0867194 0)
(1.70338 0.0696149 0)
(1.73369 0.051169 0)
(1.76106 0.0320167 0)
(1.78444 0.0128702 0)
(1.80293 -0.00554619 0)
(1.81595 -0.0226408 0)
(1.82329 -0.0380733 0)
(1.82473 -0.0517194 0)
(1.81963 -0.0630472 0)
(1.80809 -0.0708247 0)
(1.79072 -0.0751461 0)
(1.76871 -0.0765304 0)
(1.74367 -0.0755504 0)
(1.71719 -0.0728659 0)
(1.6908 -0.0691712 0)
(1.66544 -0.0650257 0)
(1.64169 -0.060814 0)
(1.61984 -0.056828 0)
(1.59999 -0.0533291 0)
(1.58204 -0.0505295 0)
(1.56579 -0.0485764 0)
(1.55093 -0.0475581 0)
(1.53712 -0.0475141 0)
(1.52397 -0.0484479 0)
(1.51113 -0.0503252 0)
(1.49828 -0.0530402 0)
(1.48508 -0.0564182 0)
(1.47124 -0.0602329 0)
(1.4566 -0.0642456 0)
(1.44106 -0.0682177 0)
(1.42464 -0.0719041 0)
(1.40743 -0.0750503 0)
(1.38961 -0.0773924 0)