/*--------------------------------*- C++ -*----------------------------------*\
| =========                 |                                                 |
| \\      /  F ield         | OpenFOAM: The Open Source CFD Toolbox           |
|  \\    /   O peration     | Version:  2206                                  |
|   \\  /    A nd           | Website:  www.openfoam.com                      |
|    \\/     M anipulation  |                                                 |
\*---------------------------------------------------------------------------*/
FoamFile
{
    version     2.0;
    format      ascii;
    arch        "LSB;label=32;scalar=64";
    class       surfaceScalarField;
    location    "18.6999";
    object      phi_0;
}
// * * * * * * * * * * * * * * * * * * * * * * * * * * * * * * * * * * * * * //

dimensions      [0 3 -1 0 0 0 0];

oriented        oriented;

internalField   nonuniform List<scalar> 
5972
(
7.38824e-06
-1.38336e-09
1.14142e-09
7.38897e-06
-4.14875e-09
3.42241e-09
7.39017e-06
-6.8787e-09
5.67465e-09
7.39184e-06
-9.54797e-09
7.87818e-09
7.39396e-06
-1.21356e-08
1.00163e-08
7.39651e-06
-1.4625e-08
1.20757e-08
7.39947e-06
-1.70031e-08
1.40456e-08
7.40281e-06
-1.92598e-08
1.59176e-08
7.40651e-06
-2.13882e-08
1.76856e-08
7.41055e-06
-2.33842e-08
1.9346e-08
7.4149e-06
-2.52465e-08
2.08973e-08
7.41954e-06
-2.6976e-08
2.23397e-08
7.42444e-06
-2.85751e-08
2.36749e-08
7.42958e-06
-3.00473e-08
2.49056e-08
7.43494e-06
-3.13971e-08
2.60353e-08
7.4405e-06
-3.26297e-08
2.70678e-08
7.44625e-06
-3.37501e-08
2.80074e-08
7.45215e-06
-3.47637e-08
2.88584e-08
7.4582e-06
-3.56755e-08
2.9625e-08
7.46438e-06
-3.64903e-08
3.0311e-08
7.47067e-06
-3.72124e-08
3.09202e-08
7.47706e-06
-3.78456e-08
3.14557e-08
7.48354e-06
-3.83933e-08
3.19204e-08
7.49008e-06
-3.88582e-08
3.23167e-08
7.49667e-06
-3.92427e-08
3.26465e-08
7.50331e-06
-3.95484e-08
3.29112e-08
7.50997e-06
-3.97765e-08
3.31121e-08
7.51665e-06
-3.9928e-08
3.32498e-08
7.52333e-06
-4.00034e-08
3.33245e-08
7.53e-06
-4.00028e-08
3.33369e-08
7.53664e-06
-3.99261e-08
3.32865e-08
7.54324e-06
-3.97728e-08
3.3173e-08
7.54978e-06
-3.95428e-08
3.29961e-08
7.55626e-06
-3.92356e-08
3.27555e-08
7.56266e-06
-3.88509e-08
3.24507e-08
7.56897e-06
-3.83881e-08
3.20812e-08
7.57517e-06
-3.78469e-08
3.16466e-08
7.58125e-06
-3.7227e-08
3.11468e-08
7.5872e-06
-3.65282e-08
3.05809e-08
7.593e-06
-3.575e-08
2.99493e-08
7.59864e-06
-3.48925e-08
2.92509e-08
7.60411e-06
-3.39549e-08
2.84862e-08
7.60939e-06
-3.29373e-08
2.76537e-08
7.61448e-06
-3.18384e-08
2.67539e-08
7.61935e-06
-3.06582e-08
2.57848e-08
7.624e-06
-2.93942e-08
2.47465e-08
7.62841e-06
-2.80461e-08
2.36361e-08
7.63257e-06
-2.66094e-08
2.24526e-08
7.63646e-06
-2.50833e-08
2.11923e-08
7.64007e-06
-2.34607e-08
1.9852e-08
7.64338e-06
-2.17398e-08
1.84273e-08
7.64638e-06
-1.99097e-08
1.69114e-08
7.64904e-06
-1.79678e-08
1.52994e-08
7.65136e-06
-1.58988e-08
1.35802e-08
7.65331e-06
-1.36999e-08
1.17492e-08
7.65487e-06
-1.13498e-08
9.79141e-09
7.65602e-06
-8.84885e-09
7.70435e-09
7.65671e-06
-6.15997e-09
5.4681e-09
7.65692e-06
-3.26483e-09
3.05157e-09
7.65662e-06
-1.39007e-10
4.3944e-10
7.65577e-06
3.24822e-09
-2.39479e-09
7.65432e-06
6.92961e-09
-5.47965e-09
7.65222e-06
1.0944e-08
-8.84842e-09
7.64943e-06
1.53359e-08
-1.25393e-08
7.64587e-06
2.01569e-08
-1.65966e-08
7.64147e-06
2.5466e-08
-2.10716e-08
7.63616e-06
3.13312e-08
-2.60232e-08
7.62985e-06
3.78307e-08
-3.15193e-08
7.62244e-06
4.50544e-08
-3.76383e-08
7.6138e-06
5.31065e-08
-4.44711e-08
7.60382e-06
6.21074e-08
-5.21232e-08
7.59234e-06
7.21968e-08
-6.07172e-08
7.5792e-06
8.35371e-08
-7.03962e-08
7.56421e-06
9.63179e-08
-8.13278e-08
7.54715e-06
1.10761e-07
-9.37092e-08
7.5278e-06
1.27128e-07
-1.07773e-07
7.50586e-06
1.45726e-07
-1.23794e-07
7.48104e-06
1.66921e-07
-1.421e-07
7.45298e-06
1.91144e-07
-1.63084e-07
7.42128e-06
2.18916e-07
-1.87218e-07
7.3855e-06
2.5086e-07
-2.15072e-07
7.34511e-06
2.87727e-07
-2.4734e-07
7.29955e-06
3.30431e-07
-2.84872e-07
7.24818e-06
3.80087e-07
-3.28714e-07
7.19028e-06
4.38065e-07
-3.80162e-07
7.12506e-06
5.0606e-07
-4.40841e-07
7.05167e-06
5.86181e-07
-5.1279e-07
6.96919e-06
6.81077e-07
-5.98606e-07
6.87671e-06
7.94099e-07
-7.01615e-07
6.77331e-06
9.29534e-07
-8.26133e-07
6.6582e-06
1.09292e-06
-9.77814e-07
6.53088e-06
1.29157e-06
-1.16425e-06
6.39128e-06
1.53518e-06
-1.39558e-06
6.2404e-06
1.83751e-06
-1.68663e-06
6.08009e-06
2.21697e-06
-2.05666e-06
5.91909e-06
2.70467e-06
-2.54367e-06
5.76965e-06
3.33285e-06
-3.18342e-06
5.75436e-06
4.17883e-06
-4.16354e-06
6.11122e-06
5.12308e-06
-5.47994e-06
6.78343e-06
8.32546e-06
-8.99766e-06
7.38825e-06
-1.63668e-09
7.38901e-06
-4.90929e-09
7.39027e-06
-8.13858e-09
7.39202e-06
-1.12931e-08
7.39423e-06
-1.43468e-08
7.39688e-06
-1.72798e-08
7.39996e-06
-2.00765e-08
7.40342e-06
-2.27252e-08
7.40725e-06
-2.52185e-08
7.41142e-06
-2.75523e-08
7.4159e-06
-2.97259e-08
7.42067e-06
-3.17411e-08
7.42569e-06
-3.36014e-08
7.43096e-06
-3.53118e-08
7.43644e-06
-3.6878e-08
7.44212e-06
-3.83064e-08
7.44797e-06
-3.96035e-08
7.45398e-06
-4.07755e-08
7.46013e-06
-4.18287e-08
7.46641e-06
-4.27686e-08
7.4728e-06
-4.36004e-08
7.47928e-06
-4.43284e-08
7.48585e-06
-4.49566e-08
7.49248e-06
-4.54881e-08
7.49916e-06
-4.59255e-08
7.50588e-06
-4.62707e-08
7.51263e-06
-4.65251e-08
7.51939e-06
-4.66895e-08
7.52615e-06
-4.67647e-08
7.5329e-06
-4.67506e-08
7.53962e-06
-4.66471e-08
7.5463e-06
-4.64537e-08
7.55293e-06
-4.61702e-08
7.55949e-06
-4.5796e-08
7.56597e-06
-4.53309e-08
7.57236e-06
-4.47744e-08
7.57864e-06
-4.41263e-08
7.58479e-06
-4.33861e-08
7.59082e-06
-4.25538e-08
7.5967e-06
-4.16291e-08
7.60242e-06
-4.06121e-08
7.60797e-06
-3.95022e-08
7.61333e-06
-3.82996e-08
7.61849e-06
-3.7003e-08
7.62345e-06
-3.56124e-08
7.62818e-06
-3.41255e-08
7.63267e-06
-3.25414e-08
7.63692e-06
-3.08564e-08
7.64091e-06
-2.90679e-08
7.64462e-06
-2.71704e-08
7.64803e-06
-2.51588e-08
7.65115e-06
-2.30255e-08
7.65394e-06
-2.07621e-08
7.6564e-06
-1.83583e-08
7.65851e-06
-1.58025e-08
7.66024e-06
-1.30806e-08
7.66157e-06
-1.01778e-08
7.66247e-06
-7.06217e-09
7.66292e-06
-3.71391e-09
7.66288e-06
-1.03979e-10
7.66233e-06
3.80207e-09
7.66122e-06
8.04084e-09
7.65951e-06
1.2656e-08
7.65714e-06
1.76978e-08
7.65408e-06
2.32235e-08
7.65024e-06
2.92989e-08
7.64558e-06
3.59997e-08
7.63999e-06
4.34125e-08
7.63341e-06
5.16369e-08
7.62573e-06
6.07878e-08
7.61684e-06
7.09975e-08
7.60662e-06
8.24192e-08
7.59492e-06
9.52302e-08
7.58161e-06
1.09637e-07
7.56649e-06
1.2588e-07
7.54938e-06
1.4424e-07
7.53005e-06
1.65047e-07
7.50828e-06
1.88691e-07
7.4838e-06
2.15629e-07
7.45631e-06
2.46409e-07
7.42549e-06
2.81679e-07
7.391e-06
3.22217e-07
7.35247e-06
3.68959e-07
7.30952e-06
4.23035e-07
7.26177e-06
4.85814e-07
7.20886e-06
5.5897e-07
7.15049e-06
6.44553e-07
7.08648e-06
7.45089e-07
7.01687e-06
8.6371e-07
6.94208e-06
1.00432e-06
6.86316e-06
1.17183e-06
6.78232e-06
1.37241e-06
6.70356e-06
1.61395e-06
6.63485e-06
1.90621e-06
6.59003e-06
2.26179e-06
6.60107e-06
2.69363e-06
6.71941e-06
3.21451e-06
7.0571e-06
3.84114e-06
7.74991e-06
4.43027e-06
5.74678e-06
8.78656e-06
7.38827e-06
-1.90427e-09
7.38907e-06
-5.71281e-09
7.3904e-06
-9.46844e-09
7.39224e-06
-1.31322e-08
7.39457e-06
-1.66724e-08
7.39735e-06
-2.00651e-08
7.40057e-06
-2.32922e-08
7.40418e-06
-2.63411e-08
7.40817e-06
-2.92038e-08
7.41249e-06
-3.18772e-08
7.41713e-06
-3.43614e-08
7.42205e-06
-3.66599e-08
7.42722e-06
-3.87777e-08
7.43263e-06
-4.07215e-08
7.43825e-06
-4.2499e-08
7.44407e-06
-4.41179e-08
7.45005e-06
-4.55862e-08
7.45618e-06
-4.69117e-08
7.46246e-06
-4.81014e-08
7.46885e-06
-4.91621e-08
7.47535e-06
-5.00996e-08
7.48194e-06
-5.09191e-08
7.48861e-06
-5.16249e-08
7.49534e-06
-5.22206e-08
7.50212e-06
-5.2709e-08
7.50895e-06
-5.30922e-08
7.51579e-06
-5.33716e-08
7.52265e-06
-5.35481e-08
7.52951e-06
-5.36224e-08
7.53635e-06
-5.35943e-08
7.54317e-06
-5.34635e-08
7.54994e-06
-5.32296e-08
7.55667e-06
-5.28922e-08
7.56332e-06
-5.24508e-08
7.5699e-06
-5.19049e-08
7.57638e-06
-5.12544e-08
7.58275e-06
-5.04987e-08
7.589e-06
-4.96378e-08
7.59512e-06
-4.86717e-08
7.60109e-06
-4.76003e-08
7.6069e-06
-4.64235e-08
7.61254e-06
-4.51416e-08
7.61799e-06
-4.3754e-08
7.62325e-06
-4.2261e-08
7.6283e-06
-4.0661e-08
7.63313e-06
-3.89537e-08
7.63772e-06
-3.71361e-08
7.64207e-06
-3.52071e-08
7.64617e-06
-3.31611e-08
7.64999e-06
-3.09953e-08
7.65353e-06
-2.87014e-08
7.65678e-06
-2.62742e-08
7.65972e-06
-2.37015e-08
7.66234e-06
-2.09758e-08
7.66462e-06
-1.80794e-08
7.66654e-06
-1.50031e-08
7.66808e-06
-1.17182e-08
7.66922e-06
-8.20257e-09
7.66994e-06
-4.43018e-09
7.6702e-06
-3.69535e-10
7.66999e-06
4.01731e-09
7.66926e-06
8.76969e-09
7.66798e-06
1.39357e-08
7.66611e-06
1.95699e-08
7.66359e-06
2.57346e-08
7.66039e-06
3.2501e-08
7.65644e-06
3.99507e-08
7.65168e-06
4.81772e-08
7.64603e-06
5.72876e-08
7.63941e-06
6.74047e-08
7.63174e-06
7.86698e-08
7.62291e-06
9.12459e-08
7.61282e-06
1.05321e-07
7.60135e-06
1.21112e-07
7.58835e-06
1.38871e-07
7.5737e-06
1.58892e-07
7.55723e-06
1.81517e-07
7.53878e-06
2.07146e-07
7.51816e-06
2.36248e-07
7.49519e-06
2.69378e-07
7.46968e-06
3.07187e-07
7.44145e-06
3.50449e-07
7.41033e-06
4.00083e-07
7.37618e-06
4.57184e-07
7.33893e-06
5.23064e-07
7.2986e-06
5.99293e-07
7.2554e-06
6.87757e-07
7.20976e-06
7.90728e-07
7.16253e-06
9.10942e-07
7.11517e-06
1.05169e-06
7.07009e-06
1.2169e-06
7.03128e-06
1.41123e-06
7.0051e-06
1.64012e-06
7.00205e-06
1.90926e-06
7.03889e-06
2.22495e-06
7.14207e-06
2.59045e-06
7.35088e-06
3.00571e-06
7.70763e-06
3.48439e-06
8.24137e-06
3.89652e-06
4.67169e-06
9.31646e-06
7.38829e-06
-2.18969e-09
7.38914e-06
-6.5699e-09
7.39056e-06
-1.08853e-08
7.39251e-06
-1.50878e-08
7.39498e-06
-1.91387e-08
7.39793e-06
-2.30098e-08
7.40131e-06
-2.66807e-08
7.40511e-06
-3.0138e-08
7.40928e-06
-3.33744e-08
7.41379e-06
-3.6388e-08
7.41861e-06
-3.91809e-08
7.42371e-06
-4.17586e-08
7.42906e-06
-4.41284e-08
7.43464e-06
-4.62995e-08
7.44042e-06
-4.82814e-08
7.44639e-06
-5.00841e-08
7.45252e-06
-5.1717e-08
7.4588e-06
-5.31896e-08
7.46521e-06
-5.45101e-08
7.47173e-06
-5.56864e-08
7.47836e-06
-5.67252e-08
7.48507e-06
-5.76322e-08
7.49186e-06
-5.84124e-08
7.49871e-06
-5.90696e-08
7.5056e-06
-5.96068e-08
7.51254e-06
-6.00264e-08
7.5195e-06
-6.03297e-08
7.52646e-06
-6.05175e-08
7.53343e-06
-6.05902e-08
7.54039e-06
-6.05476e-08
7.54731e-06
-6.03893e-08
7.5542e-06
-6.01146e-08
7.56103e-06
-5.9723e-08
7.56779e-06
-5.9214e-08
7.57447e-06
-5.85871e-08
7.58106e-06
-5.7842e-08
7.58754e-06
-5.69783e-08
7.5939e-06
-5.59962e-08
7.60012e-06
-5.48956e-08
7.6062e-06
-5.3677e-08
7.61212e-06
-5.23402e-08
7.61786e-06
-5.08861e-08
7.62342e-06
-4.9314e-08
7.62878e-06
-4.76248e-08
7.63394e-06
-4.58172e-08
7.63888e-06
-4.3891e-08
7.64359e-06
-4.18438e-08
7.64805e-06
-3.96738e-08
7.65227e-06
-3.73768e-08
7.65622e-06
-3.49483e-08
7.6599e-06
-3.2382e-08
7.6633e-06
-2.96697e-08
7.6664e-06
-2.6802e-08
7.66919e-06
-2.37667e-08
7.67166e-06
-2.05496e-08
7.67379e-06
-1.71346e-08
7.67557e-06
-1.34938e-08
7.67697e-06
-9.60562e-09
7.67798e-06
-5.44052e-09
7.67858e-06
-9.65454e-10
7.67873e-06
3.8604e-09
7.67842e-06
9.07882e-09
7.67762e-06
1.47413e-08
7.67628e-06
2.09058e-08
7.67438e-06
2.76382e-08
7.67186e-06
3.50142e-08
7.6687e-06
4.31196e-08
7.66482e-06
5.20529e-08
7.66018e-06
6.19263e-08
7.65472e-06
7.28683e-08
7.64836e-06
8.50261e-08
7.64104e-06
9.85682e-08
7.63267e-06
1.13689e-07
7.62317e-06
1.30611e-07
7.61245e-06
1.49592e-07
7.60041e-06
1.70929e-07
7.58696e-06
1.94969e-07
7.572e-06
2.2211e-07
7.55543e-06
2.52819e-07
7.53717e-06
2.87639e-07
7.51715e-06
3.27205e-07
7.49533e-06
3.72261e-07
7.47174e-06
4.23678e-07
7.44644e-06
4.82479e-07
7.41964e-06
5.49867e-07
7.39168e-06
6.27252e-07
7.36315e-06
7.16291e-07
7.33496e-06
8.18916e-07
7.30853e-06
9.37374e-07
7.28598e-06
1.07424e-06
7.27046e-06
1.23242e-06
7.26663e-06
1.41506e-06
7.28132e-06
1.62543e-06
7.32425e-06
1.86633e-06
7.4094e-06
2.1398e-06
7.55402e-06
2.44583e-06
7.78315e-06
2.77658e-06
8.12582e-06
3.14172e-06
8.58077e-06
3.44156e-06
3.80803e-06
9.44443e-06
7.38831e-06
-2.49739e-09
7.38923e-06
-7.49367e-09
7.39076e-06
-1.24102e-08
7.39286e-06
-1.71871e-08
7.39549e-06
-2.17775e-08
7.39863e-06
-2.61482e-08
7.40223e-06
-3.02771e-08
7.40624e-06
-3.41509e-08
7.41063e-06
-3.77641e-08
7.41536e-06
-4.1117e-08
7.42039e-06
-4.42145e-08
7.4257e-06
-4.70651e-08
7.43125e-06
-4.96794e-08
7.43702e-06
-5.20693e-08
7.44299e-06
-5.42471e-08
7.44913e-06
-5.62249e-08
7.45543e-06
-5.80144e-08
7.46186e-06
-5.96265e-08
7.46842e-06
-6.1071e-08
7.47509e-06
-6.23568e-08
7.48186e-06
-6.34916e-08
7.48871e-06
-6.44817e-08
7.49563e-06
-6.53326e-08
7.50261e-06
-6.60485e-08
7.50963e-06
-6.66325e-08
7.51669e-06
-6.70868e-08
7.52378e-06
-6.74128e-08
7.53087e-06
-6.76112e-08
7.53796e-06
-6.7682e-08
7.54504e-06
-6.76247e-08
7.55209e-06
-6.74387e-08
7.5591e-06
-6.71231e-08
7.56605e-06
-6.66772e-08
7.57294e-06
-6.61003e-08
7.57974e-06
-6.53919e-08
7.58645e-06
-6.45517e-08
7.59305e-06
-6.35794e-08
7.59953e-06
-6.24754e-08
7.60588e-06
-6.12397e-08
7.61207e-06
-5.9873e-08
7.61811e-06
-5.83758e-08
7.62397e-06
-5.67487e-08
7.62965e-06
-5.49925e-08
7.63513e-06
-5.31071e-08
7.64041e-06
-5.10933e-08
7.64547e-06
-4.89496e-08
7.6503e-06
-4.6676e-08
7.65489e-06
-4.42688e-08
7.65924e-06
-4.17264e-08
7.66334e-06
-3.90422e-08
7.66717e-06
-3.6212e-08
7.67072e-06
-3.32256e-08
7.674e-06
-3.00755e-08
7.67698e-06
-2.67461e-08
7.67965e-06
-2.3227e-08
7.68201e-06
-1.94929e-08
7.68404e-06
-1.55228e-08
7.68573e-06
-1.12913e-08
7.68705e-06
-6.76741e-09
7.688e-06
-1.91603e-09
7.68856e-06
3.30392e-09
7.6887e-06
8.93789e-09
7.6884e-06
1.50391e-08
7.68764e-06
2.16678e-08
7.68639e-06
2.88929e-08
7.68461e-06
3.67925e-08
7.68227e-06
4.54557e-08
7.67934e-06
5.49837e-08
7.67578e-06
6.54919e-08
7.67153e-06
7.71118e-08
7.66657e-06
8.99933e-08
7.66083e-06
1.04307e-07
7.65427e-06
1.2025e-07
7.64683e-06
1.38045e-07
7.63847e-06
1.57949e-07
7.62915e-06
1.80257e-07
7.61881e-06
2.05308e-07
7.60742e-06
2.33493e-07
7.59498e-06
2.65261e-07
7.58149e-06
3.01133e-07
7.56698e-06
3.41707e-07
7.55157e-06
3.87678e-07
7.5354e-06
4.39846e-07
7.51875e-06
4.99133e-07
7.50201e-06
5.66603e-07
7.48579e-06
6.43474e-07
7.47094e-06
7.31135e-07
7.45871e-06
8.31151e-07
7.45082e-06
9.45262e-07
7.44971e-06
1.07535e-06
7.45875e-06
1.22338e-06
7.48257e-06
1.39125e-06
7.52745e-06
1.58056e-06
7.60158e-06
1.7922e-06
7.7158e-06
2.02557e-06
7.88304e-06
2.2786e-06
8.11861e-06
2.541e-06
8.44974e-06
2.8106e-06
8.85424e-06
3.03707e-06
3.2325e-06
9.42977e-06
7.38834e-06
-2.83316e-09
7.38934e-06
-8.50071e-09
7.391e-06
-1.40694e-08
7.39328e-06
-1.94641e-08
7.39613e-06
-2.46279e-08
7.3995e-06
-2.95214e-08
7.40335e-06
-3.41225e-08
7.40762e-06
-3.842e-08
7.41226e-06
-4.24109e-08
7.41725e-06
-4.60994e-08
7.42253e-06
-4.94946e-08
7.42807e-06
-5.26089e-08
7.43385e-06
-5.54573e-08
7.43983e-06
-5.80551e-08
7.446e-06
-6.04178e-08
7.45234e-06
-6.25602e-08
7.45882e-06
-6.44964e-08
7.46543e-06
-6.6239e-08
7.47216e-06
-6.77996e-08
7.47899e-06
-6.9188e-08
7.48592e-06
-7.04128e-08
7.49291e-06
-7.14812e-08
7.49998e-06
-7.23989e-08
7.5071e-06
-7.31704e-08
7.51427e-06
-7.37988e-08
7.52147e-06
-7.42864e-08
7.52869e-06
-7.46342e-08
7.53592e-06
-7.48427e-08
7.54315e-06
-7.49115e-08
7.55037e-06
-7.48396e-08
7.55755e-06
-7.46259e-08
7.5647e-06
-7.42695e-08
7.57179e-06
-7.37692e-08
7.57882e-06
-7.31242e-08
7.58576e-06
-7.2334e-08
7.5926e-06
-7.13981e-08
7.59934e-06
-7.03166e-08
7.60596e-06
-6.90896e-08
7.61243e-06
-6.77179e-08
7.61876e-06
-6.6202e-08
7.62493e-06
-6.45434e-08
7.63092e-06
-6.27427e-08
7.63673e-06
-6.08015e-08
7.64235e-06
-5.87204e-08
7.64775e-06
-5.65005e-08
7.65295e-06
-5.41413e-08
7.65791e-06
-5.16429e-08
7.66265e-06
-4.90032e-08
7.66714e-06
-4.62195e-08
7.67139e-06
-4.32876e-08
7.67537e-06
-4.02011e-08
7.6791e-06
-3.69527e-08
7.68256e-06
-3.35319e-08
7.68574e-06
-2.99265e-08
7.68863e-06
-2.61214e-08
7.69123e-06
-2.20924e-08
7.69353e-06
-1.78195e-08
7.69551e-06
-1.32753e-08
7.69717e-06
-8.42788e-09
7.6985e-06
-3.24107e-09
7.69948e-06
2.32688e-09
7.70009e-06
8.32361e-09
7.70033e-06
1.48033e-08
7.70017e-06
2.18279e-08
7.69959e-06
2.94676e-08
7.69858e-06
3.78022e-08
7.69711e-06
4.69221e-08
7.69517e-06
5.69299e-08
7.69272e-06
6.79419e-08
7.68974e-06
8.009e-08
7.68621e-06
9.35244e-08
7.6821e-06
1.08415e-07
7.6774e-06
1.24956e-07
7.67207e-06
1.43367e-07
7.66613e-06
1.63898e-07
7.65955e-06
1.86837e-07
7.65235e-06
2.12508e-07
7.64455e-06
2.41285e-07
7.63622e-06
2.73591e-07
7.62745e-06
3.09911e-07
7.61836e-06
3.50797e-07
7.60916e-06
3.96878e-07
7.60013e-06
4.48868e-07
7.59169e-06
5.07574e-07
7.58439e-06
5.73903e-07
7.579e-06
6.48868e-07
7.57655e-06
7.33585e-07
7.57844e-06
8.29259e-07
7.58655e-06
9.37157e-07
7.60334e-06
1.05855e-06
7.6321e-06
1.19463e-06
7.67704e-06
1.3463e-06
7.74358e-06
1.51401e-06
7.83846e-06
1.69732e-06
7.96981e-06
1.89422e-06
8.14732e-06
2.10109e-06
8.3792e-06
2.30912e-06
8.67952e-06
2.51028e-06
9.03408e-06
2.6825e-06
2.81206e-06
9.45452e-06
7.38837e-06
-3.20418e-09
7.38948e-06
-9.61251e-09
7.39131e-06
-1.5897e-08
7.39381e-06
-2.19614e-08
7.39692e-06
-2.77387e-08
7.40058e-06
-3.31791e-08
7.40472e-06
-3.82657e-08
7.40929e-06
-4.29912e-08
7.41424e-06
-4.73576e-08
7.41951e-06
-5.13743e-08
7.42507e-06
-5.50561e-08
7.43089e-06
-5.84213e-08
7.43692e-06
-6.14896e-08
7.44314e-06
-6.42812e-08
7.44954e-06
-6.68152e-08
7.45609e-06
-6.91095e-08
7.46278e-06
-7.11806e-08
7.46958e-06
-7.30433e-08
7.47649e-06
-7.47106e-08
7.4835e-06
-7.61937e-08
7.49059e-06
-7.7502e-08
7.49775e-06
-7.86433e-08
7.50497e-06
-7.96237e-08
7.51225e-06
-8.04477e-08
7.51957e-06
-8.11186e-08
7.52692e-06
-8.16381e-08
7.53429e-06
-8.20072e-08
7.54168e-06
-8.22257e-08
7.54906e-06
-8.22928e-08
7.55643e-06
-8.22067e-08
7.56377e-06
-8.19659e-08
7.57107e-06
-8.15689e-08
7.57831e-06
-8.10144e-08
7.58549e-06
-8.03013e-08
7.59258e-06
-7.94288e-08
7.59958e-06
-7.83967e-08
7.60647e-06
-7.72049e-08
7.61323e-06
-7.5854e-08
7.61986e-06
-7.43446e-08
7.62634e-06
-7.26784e-08
7.63265e-06
-7.08565e-08
7.63879e-06
-6.88812e-08
7.64474e-06
-6.67536e-08
7.6505e-06
-6.44763e-08
7.65605e-06
-6.20497e-08
7.66138e-06
-5.94764e-08
7.66649e-06
-5.67547e-08
7.67138e-06
-5.3886e-08
7.67602e-06
-5.08656e-08
7.68043e-06
-4.76924e-08
7.68458e-06
-4.43581e-08
7.68849e-06
-4.08585e-08
7.69214e-06
-3.71801e-08
7.69553e-06
-3.33154e-08
7.69865e-06
-2.92423e-08
7.7015e-06
-2.49426e-08
7.70407e-06
-2.03941e-08
7.70637e-06
-1.55687e-08
7.70837e-06
-1.04342e-08
7.71008e-06
-4.95376e-09
7.7115e-06
9.1474e-10
7.7126e-06
7.22021e-09
7.71339e-06
1.40169e-08
7.71385e-06
2.13674e-08
7.71397e-06
2.93425e-08
7.71375e-06
3.80222e-08
7.71318e-06
4.74967e-08
7.71224e-06
5.78684e-08
7.71093e-06
6.92527e-08
7.70924e-06
8.17798e-08
7.70717e-06
9.55972e-08
7.70471e-06
1.10871e-07
7.70187e-06
1.2779e-07
7.69867e-06
1.46566e-07
7.69513e-06
1.6744e-07
7.69129e-06
1.90683e-07
7.68719e-06
2.16603e-07
7.68293e-06
2.45546e-07
7.67862e-06
2.77904e-07
7.67441e-06
3.1412e-07
7.67052e-06
3.54688e-07
7.66723e-06
4.00165e-07
7.66493e-06
4.5117e-07
7.66412e-06
5.08386e-07
7.66546e-06
5.72564e-07
7.66981e-06
6.44514e-07
7.6783e-06
7.25093e-07
7.69238e-06
8.1518e-07
7.7139e-06
9.15633e-07
7.74523e-06
1.02722e-06
7.78934e-06
1.15052e-06
7.8499e-06
1.28575e-06
7.93136e-06
1.43255e-06
8.03896e-06
1.58972e-06
8.17851e-06
1.75467e-06
8.3563e-06
1.9233e-06
8.5767e-06
2.08871e-06
8.84451e-06
2.24247e-06
9.15521e-06
2.37181e-06
2.46383e-06
9.50344e-06
7.38841e-06
-3.61915e-09
7.38966e-06
-1.0858e-08
7.3917e-06
-1.79369e-08
7.39448e-06
-2.47369e-08
7.39791e-06
-3.11699e-08
7.40191e-06
-3.7182e-08
7.40641e-06
-4.27646e-08
7.41134e-06
-4.79185e-08
7.41663e-06
-5.26526e-08
7.42224e-06
-5.69848e-08
7.42812e-06
-6.09366e-08
7.43424e-06
-6.45344e-08
7.44055e-06
-6.78045e-08
7.44704e-06
-7.07722e-08
7.45369e-06
-7.34608e-08
7.46047e-06
-7.58916e-08
7.46737e-06
-7.80838e-08
7.47438e-06
-8.00545e-08
7.48149e-06
-8.18181e-08
7.48868e-06
-8.3387e-08
7.49595e-06
-8.47716e-08
7.50329e-06
-8.59801e-08
7.51069e-06
-8.70188e-08
7.51813e-06
-8.78923e-08
7.52561e-06
-8.86036e-08
7.53313e-06
-8.91542e-08
7.54067e-06
-8.95444e-08
7.54822e-06
-8.97734e-08
7.55576e-06
-8.98396e-08
7.5633e-06
-8.97403e-08
7.5708e-06
-8.94733e-08
7.57827e-06
-8.90365e-08
7.58569e-06
-8.84282e-08
7.59303e-06
-8.7647e-08
7.60029e-06
-8.6692e-08
7.60746e-06
-8.5563e-08
7.61452e-06
-8.42598e-08
7.62144e-06
-8.27836e-08
7.62824e-06
-8.11349e-08
7.63487e-06
-7.93164e-08
7.64135e-06
-7.73292e-08
7.64764e-06
-7.51771e-08
7.65375e-06
-7.28611e-08
7.65966e-06
-7.0386e-08
7.66536e-06
-6.77522e-08
7.67085e-06
-6.49641e-08
7.67612e-06
-6.20208e-08
7.68115e-06
-5.89248e-08
7.68596e-06
-5.56727e-08
7.69053e-06
-5.22631e-08
7.69486e-06
-4.869e-08
7.69895e-06
-4.49483e-08
7.7028e-06
-4.10265e-08
7.7064e-06
-3.69167e-08
7.70976e-06
-3.25964e-08
7.71286e-06
-2.80495e-08
7.71572e-06
-2.32529e-08
7.71833e-06
-1.81784e-08
7.72069e-06
-1.27936e-08
7.7228e-06
-7.06147e-09
7.72465e-06
-9.40787e-10
7.72625e-06
5.61902e-09
7.7276e-06
1.26706e-08
7.72869e-06
2.02769e-08
7.72953e-06
2.85081e-08
7.7301e-06
3.7443e-08
7.73043e-06
4.71708e-08
7.73051e-06
5.77918e-08
7.73034e-06
6.94186e-08
7.72994e-06
8.21782e-08
7.72933e-06
9.62132e-08
7.72851e-06
1.11684e-07
7.72754e-06
1.28769e-07
7.72643e-06
1.47671e-07
7.72526e-06
1.68616e-07
7.72408e-06
1.91857e-07
7.72301e-06
2.17678e-07
7.72216e-06
2.46397e-07
7.72169e-06
2.78367e-07
7.72183e-06
3.13983e-07
7.72284e-06
3.5368e-07
7.72507e-06
3.97936e-07
7.72896e-06
4.47275e-07
7.73509e-06
5.02257e-07
7.74417e-06
5.63483e-07
7.75711e-06
6.31573e-07
7.77505e-06
7.07155e-07
7.7994e-06
7.90828e-07
7.83192e-06
8.83115e-07
7.87475e-06
9.84394e-07
7.93047e-06
1.0948e-06
8.00214e-06
1.21407e-06
8.09328e-06
1.34141e-06
8.20778e-06
1.47523e-06
8.3496e-06
1.61284e-06
8.52256e-06
1.75034e-06
8.72914e-06
1.88213e-06
8.97046e-06
2.00115e-06
9.2438e-06
2.09847e-06
2.16509e-06
9.54253e-06
7.38847e-06
-4.09049e-09
7.38989e-06
-1.2277e-08
7.39221e-06
-2.02533e-08
7.39534e-06
-2.78655e-08
7.39916e-06
-3.49988e-08
7.40359e-06
-4.1605e-08
7.40851e-06
-4.76873e-08
7.41385e-06
-5.32622e-08
7.41955e-06
-5.83491e-08
7.42554e-06
-6.29759e-08
7.43178e-06
-6.71745e-08
7.43823e-06
-7.09816e-08
7.44485e-06
-7.44304e-08
7.45163e-06
-7.75523e-08
7.45855e-06
-8.03751e-08
7.46558e-06
-8.29242e-08
7.47272e-06
-8.52218e-08
7.47995e-06
-8.72867e-08
7.48727e-06
-8.91351e-08
7.49466e-06
-9.07803e-08
7.50212e-06
-9.22335e-08
7.50964e-06
-9.35032e-08
7.51722e-06
-9.45959e-08
7.52485e-06
-9.55161e-08
7.53251e-06
-9.62662e-08
7.5402e-06
-9.68475e-08
7.54792e-06
-9.72593e-08
7.55564e-06
-9.75002e-08
7.56337e-06
-9.7567e-08
7.57109e-06
-9.74563e-08
7.57878e-06
-9.71646e-08
7.58643e-06
-9.66891e-08
7.59403e-06
-9.60276e-08
7.60156e-06
-9.51786e-08
7.60901e-06
-9.41408e-08
7.61636e-06
-9.29141e-08
7.6236e-06
-9.14982e-08
7.63071e-06
-8.98948e-08
7.63768e-06
-8.81046e-08
7.6445e-06
-8.61311e-08
7.65114e-06
-8.39758e-08
7.65761e-06
-8.16437e-08
7.66388e-06
-7.91369e-08
7.66996e-06
-7.64609e-08
7.67583e-06
-7.36179e-08
7.68147e-06
-7.06134e-08
7.6869e-06
-6.74489e-08
7.6921e-06
-6.41267e-08
7.69708e-06
-6.06464e-08
7.70182e-06
-5.70052e-08
7.70633e-06
-5.32006e-08
7.71061e-06
-4.92256e-08
7.71466e-06
-4.50736e-08
7.71847e-06
-4.07329e-08
7.72206e-06
-3.61852e-08
7.72543e-06
-3.14145e-08
7.72857e-06
-2.63976e-08
7.7315e-06
-2.11061e-08
7.73421e-06
-1.55079e-08
7.73672e-06
-9.56645e-09
7.73902e-06
-3.2403e-09
7.74112e-06
3.51862e-09
7.74302e-06
1.0764e-08
7.74474e-06
1.85567e-08
7.74629e-06
2.69655e-08
7.74766e-06
3.60676e-08
7.74888e-06
4.59494e-08
7.74997e-06
5.67079e-08
7.75093e-06
6.84516e-08
7.75181e-06
8.13024e-08
7.75263e-06
9.53961e-08
7.75343e-06
1.10884e-07
7.75426e-06
1.27936e-07
7.75519e-06
1.4674e-07
7.7563e-06
1.67503e-07
7.7577e-06
1.9046e-07
7.75951e-06
2.15867e-07
7.7619e-06
2.44009e-07
7.76506e-06
2.75201e-07
7.76926e-06
3.09785e-07
7.77481e-06
3.48135e-07
7.78209e-06
3.90654e-07
7.7916e-06
4.37769e-07
7.80392e-06
4.89929e-07
7.81982e-06
5.47591e-07
7.84018e-06
6.11213e-07
7.86611e-06
6.81224e-07
7.89894e-06
7.57994e-07
7.94027e-06
8.41787e-07
7.99197e-06
9.32691e-07
8.05623e-06
1.03054e-06
8.13551e-06
1.1348e-06
8.2325e-06
1.24442e-06
8.35001e-06
1.35771e-06
8.49071e-06
1.47215e-06
8.65682e-06
1.58423e-06
8.84955e-06
1.68941e-06
9.06852e-06
1.78217e-06
9.31081e-06
1.85618e-06
1.90521e-06
9.57069e-06
7.38855e-06
-4.63666e-09
7.3902e-06
-1.39271e-08
7.39288e-06
-2.2933e-08
7.39646e-06
-3.14448e-08
7.40078e-06
-3.93241e-08
7.40571e-06
-4.65379e-08
7.41114e-06
-5.31161e-08
7.41698e-06
-5.90951e-08
7.42314e-06
-6.45094e-08
7.42956e-06
-6.93994e-08
7.4362e-06
-7.38124e-08
7.44301e-06
-7.7796e-08
7.44997e-06
-8.13933e-08
7.45706e-06
-8.46422e-08
7.46426e-06
-8.75757e-08
7.47156e-06
-9.02229e-08
7.47895e-06
-9.26081e-08
7.48641e-06
-9.47517e-08
7.49395e-06
-9.66719e-08
7.50155e-06
-9.83832e-08
7.50922e-06
-9.98968e-08
7.51694e-06
-1.01222e-07
7.5247e-06
-1.02364e-07
7.53252e-06
-1.03329e-07
7.54037e-06
-1.04117e-07
7.54825e-06
-1.04729e-07
7.55615e-06
-1.05164e-07
7.56407e-06
-1.05419e-07
7.572e-06
-1.0549e-07
7.57991e-06
-1.05371e-07
7.5878e-06
-1.05057e-07
7.59566e-06
-1.04544e-07
7.60346e-06
-1.03831e-07
7.6112e-06
-1.02914e-07
7.61885e-06
-1.01794e-07
7.6264e-06
-1.00468e-07
7.63384e-06
-9.89384e-08
7.64115e-06
-9.72056e-08
7.64832e-06
-9.52711e-08
7.65533e-06
-9.31391e-08
7.66217e-06
-9.08121e-08
7.66882e-06
-8.82961e-08
7.67527e-06
-8.55941e-08
7.68153e-06
-8.27131e-08
7.68757e-06
-7.96573e-08
7.69339e-06
-7.64336e-08
7.69898e-06
-7.30462e-08
7.70436e-06
-6.94985e-08
7.7095e-06
-6.57916e-08
7.71442e-06
-6.19228e-08
7.71911e-06
-5.78922e-08
7.72358e-06
-5.36927e-08
7.72782e-06
-4.93209e-08
7.73186e-06
-4.47642e-08
7.73568e-06
-4.00081e-08
7.7393e-06
-3.50368e-08
7.74273e-06
-2.98269e-08
7.74597e-06
-2.43499e-08
7.74904e-06
-1.85742e-08
7.75194e-06
-1.24646e-08
7.75468e-06
-5.98046e-09
7.75727e-06
9.24412e-10
7.75973e-06
8.30334e-09
7.76208e-06
1.62147e-08
7.76432e-06
2.47252e-08
7.76647e-06
3.39091e-08
7.76857e-06
4.38492e-08
7.77064e-06
5.46379e-08
7.77272e-06
6.63783e-08
7.77483e-06
7.91859e-08
7.77704e-06
9.31887e-08
7.7794e-06
1.08528e-07
7.78197e-06
1.2536e-07
7.78486e-06
1.43858e-07
7.78815e-06
1.64211e-07
7.79198e-06
1.86628e-07
7.79651e-06
2.11339e-07
7.80192e-06
2.38595e-07
7.80846e-06
2.68668e-07
7.81639e-06
3.01851e-07
7.82607e-06
3.38459e-07
7.8379e-06
3.78819e-07
7.8524e-06
4.23273e-07
7.87016e-06
4.72162e-07
7.89193e-06
5.25822e-07
7.91858e-06
5.84565e-07
7.95114e-06
6.48662e-07
7.99083e-06
7.18303e-07
8.03906e-06
7.93557e-07
8.09744e-06
8.74315e-07
8.16776e-06
9.60223e-07
8.25196e-06
1.05059e-06
8.35208e-06
1.14431e-06
8.47008e-06
1.23971e-06
8.6077e-06
1.33452e-06
8.76615e-06
1.42578e-06
8.94575e-06
1.50981e-06
9.14552e-06
1.5824e-06
9.36268e-06
1.63902e-06
1.67529e-06
9.5926e-06
7.38865e-06
-5.28443e-09
7.39061e-06
-1.58921e-08
7.39378e-06
-2.60986e-08
7.39794e-06
-3.56101e-08
7.40289e-06
-4.42717e-08
7.40845e-06
-5.20921e-08
7.41448e-06
-5.91461e-08
7.42088e-06
-6.54975e-08
7.42757e-06
-7.11984e-08
7.43448e-06
-7.63079e-08
7.44155e-06
-8.08918e-08
7.44877e-06
-8.50118e-08
7.4561e-06
-8.87216e-08
7.46352e-06
-9.20659e-08
7.47103e-06
-9.50828e-08
7.47861e-06
-9.78038e-08
7.48626e-06
-1.00256e-07
7.49397e-06
-1.02463e-07
7.50174e-06
-1.04442e-07
7.50956e-06
-1.06208e-07
7.51744e-06
-1.07774e-07
7.52537e-06
-1.09148e-07
7.53334e-06
-1.10336e-07
7.54135e-06
-1.11343e-07
7.54941e-06
-1.12169e-07
7.55749e-06
-1.12813e-07
7.5656e-06
-1.13274e-07
7.57373e-06
-1.13547e-07
7.58186e-06
-1.13626e-07
7.58999e-06
-1.13502e-07
7.59811e-06
-1.13169e-07
7.60618e-06
-1.12622e-07
7.61421e-06
-1.11858e-07
7.62217e-06
-1.10875e-07
7.63005e-06
-1.09671e-07
7.63783e-06
-1.08246e-07
7.64549e-06
-1.066e-07
7.65302e-06
-1.04736e-07
7.6604e-06
-1.02653e-07
7.66762e-06
-1.00358e-07
7.67466e-06
-9.78544e-08
7.68151e-06
-9.51496e-08
7.68817e-06
-9.22465e-08
7.69461e-06
-8.91551e-08
7.70083e-06
-8.58802e-08
7.70683e-06
-8.2433e-08
7.7126e-06
-7.88196e-08
7.71815e-06
-7.5046e-08
7.72347e-06
-7.11122e-08
7.72857e-06
-6.70187e-08
7.73344e-06
-6.27655e-08
7.7381e-06
-5.83488e-08
7.74254e-06
-5.3765e-08
7.74678e-06
-4.90059e-08
7.75083e-06
-4.40592e-08
7.75471e-06
-3.89108e-08
7.75842e-06
-3.35355e-08
7.76197e-06
-2.79036e-08
7.76538e-06
-2.1985e-08
7.76866e-06
-1.5747e-08
7.77183e-06
-9.15055e-09
7.77491e-06
-2.15061e-09
7.77791e-06
5.30365e-09
7.78085e-06
1.32687e-08
7.78377e-06
2.18079e-08
7.78669e-06
3.09924e-08
7.78964e-06
4.09001e-08
7.79266e-06
5.16172e-08
7.7958e-06
6.32409e-08
7.7991e-06
7.58796e-08
7.80264e-06
8.96523e-08
7.80648e-06
1.04689e-07
7.81071e-06
1.21132e-07
7.81543e-06
1.39137e-07
7.82076e-06
1.58873e-07
7.82687e-06
1.80525e-07
7.83391e-06
2.04294e-07
7.84211e-06
2.30395e-07
7.85172e-06
2.59061e-07
7.86303e-06
2.90538e-07
7.87641e-06
3.25081e-07
7.89228e-06
3.62953e-07
7.91114e-06
4.04414e-07
7.93359e-06
4.49708e-07
7.96035e-06
4.99065e-07
7.99223e-06
5.52683e-07
8.03019e-06
6.10702e-07
8.07531e-06
6.73178e-07
8.12883e-06
7.40042e-07
8.19209e-06
8.11058e-07
8.26654e-06
8.8577e-07
8.3537e-06
9.63438e-07
8.45504e-06
1.04296e-06
8.57193e-06
1.12282e-06
8.70544e-06
1.20102e-06
8.85612e-06
1.27509e-06
9.02379e-06
1.34214e-06
9.20724e-06
1.39895e-06
9.40406e-06
1.44221e-06
1.46884e-06
9.61051e-06
7.38879e-06
-6.07549e-09
7.3912e-06
-1.83023e-08
7.39503e-06
-2.99303e-08
7.39997e-06
-4.05436e-08
7.4057e-06
-5.00022e-08
7.41201e-06
-5.8405e-08
7.41876e-06
-6.58938e-08
7.42582e-06
-7.25637e-08
7.43311e-06
-7.84885e-08
7.44056e-06
-8.3755e-08
7.44812e-06
-8.84516e-08
7.45577e-06
-9.26569e-08
7.46348e-06
-9.64345e-08
7.47125e-06
-9.98373e-08
7.47907e-06
-1.02906e-07
7.48694e-06
-1.05675e-07
7.49486e-06
-1.08173e-07
7.50282e-06
-1.10424e-07
7.51083e-06
-1.12448e-07
7.51888e-06
-1.14259e-07
7.52698e-06
-1.1587e-07
7.53512e-06
-1.17288e-07
7.5433e-06
-1.1852e-07
7.55152e-06
-1.19568e-07
7.55979e-06
-1.20432e-07
7.56809e-06
-1.21112e-07
7.57642e-06
-1.21603e-07
7.58477e-06
-1.21901e-07
7.59314e-06
-1.21995e-07
7.60151e-06
-1.21872e-07
7.60987e-06
-1.21524e-07
7.61819e-06
-1.20945e-07
7.62646e-06
-1.20133e-07
7.63467e-06
-1.19085e-07
7.6428e-06
-1.17797e-07
7.65083e-06
-1.16272e-07
7.65874e-06
-1.14509e-07
7.66651e-06
-1.1251e-07
7.67413e-06
-1.10274e-07
7.68158e-06
-1.07812e-07
7.68885e-06