/*--------------------------------*- C++ -*----------------------------------*\
| =========                 |                                                 |
| \\      /  F ield         | OpenFOAM: The Open Source CFD Toolbox           |
|  \\    /   O peration     | Version:  2206                                  |
|   \\  /    A nd           | Website:  www.openfoam.com                      |
|    \\/     M anipulation  |                                                 |
\*---------------------------------------------------------------------------*/
FoamFile
{
    version     2.0;
    format      ascii;
    arch        "LSB;label=32;scalar=64";
    class       volVectorField;
    location    "19.1001";
    object      ddtCorrDdt0(U);
}
// * * * * * * * * * * * * * * * * * * * * * * * * * * * * * * * * * * * * * //

dimensions      [0 1 -2 0 0 0 0];

internalField   nonuniform List<vector> 
1877
(
(-46.9771 -47.0559 0)
(-44.3735 -59.6148 0)
(-41.9569 -70.3707 0)
(-39.7803 -79.5945 0)
(-36.7381 -86.5366 0)
(-30.8766 -88.4205 0)
(-22.346 -86.0754 0)
(-11.3653 -79.6897 0)
(1.63289 -69.9671 0)
(16.9404 -57.79 0)
(33.9398 -42.7763 0)
(48.6477 -26.3757 0)
(59.4416 -13.1228 0)
(64.1864 -3.80759 0)
(62.9337 2.33287 0)
(58.7019 6.95591 0)
(52.5516 11.6747 0)
(45.3761 17.1013 0)
(37.8074 23.8445 0)
(29.8205 31.726 0)
(21.8545 39.7672 0)
(14.4765 47.704 0)
(7.49424 54.901 0)
(0.836644 60.8403 0)
(-5.64182 64.8272 0)
(-11.7515 65.5724 0)
(-17.218 62.663 0)
(-22.0307 57.1431 0)
(-25.9386 49.4487 0)
(-28.7821 40.2658 0)
(-30.5989 30.3206 0)
(-31.7691 20.1238 0)
(-32.8004 9.71602 0)
(-33.2125 -0.985699 0)
(-32.8406 -11.5457 0)
(-31.7718 -21.6759 0)
(-29.7432 -30.8612 0)
(-26.9829 -38.7501 0)
(-23.7463 -45.2768 0)
(-20.0884 -50.4615 0)
(-15.7492 -54.0376 0)
(-10.4574 -55.1259 0)
(-4.63118 -54.3203 0)
(1.53604 -51.7438 0)
(7.8704 -47.5731 0)
(14.208 -41.9992 0)
(20.3638 -35.2727 0)
(25.9924 -27.6944 0)
(30.4938 -19.7052 0)
(33.3445 -11.978 0)
(34.4876 -5.0646 0)
(34.2301 1.13509 0)
(32.8466 7.26373 0)
(30.3679 13.593 0)
(26.9853 19.9854 0)
(23.1901 26.331 0)
(19.1379 32.3834 0)
(14.8882 37.9125 0)
(10.4273 42.7193 0)
(5.6451 46.5211 0)
(0.450948 48.7703 0)
(-4.92562 48.4262 0)
(-10.0938 45.9528 0)
(-14.6495 41.485 0)
(-18.2744 35.3659 0)
(-20.797 28.143 0)
(-22.3198 20.3975 0)
(-23.337 12.5018 0)
(-24.1798 4.51886 0)
(-24.2918 -3.43078 0)
(-24.0926 -11.2102 0)
(-23.2644 -18.4681 0)
(-21.7938 -24.8584 0)
(-19.8328 -30.2419 0)
(-17.4374 -34.561 0)
(-14.529 -37.7345 0)
(-10.9149 -39.3577 0)
(-6.80192 -39.483 0)
(-2.51094 -38.3598 0)
(1.78952 -36.0878 0)
(5.9285 -32.7922 0)
(9.75399 -28.6234 0)
(13.1627 -23.7684 0)
(16.1271 -18.4293 0)
(18.662 -12.7911 0)
(20.6364 -7.09309 0)
(21.7324 -1.61061 0)
(22.1659 3.60881 0)
(21.8298 8.68026 0)
(20.7002 13.4816 0)
(18.9242 17.8782 0)
(16.6901 21.8142 0)
(14.1436 25.2483 0)
(11.3789 28.1522 0)
(8.41134 30.4711 0)
(5.15712 31.9654 0)
(1.64757 32.1686 0)
(-1.90193 31.2426 0)
(-5.31852 29.1588 0)
(-8.40087 25.9822 0)
(-10.9402 21.9012 0)
(-12.8133 17.2098 0)
(-14.1409 12.1975 0)
(-15.2465 7.00215 0)
(-15.9994 1.69272 0)
(-16.3255 -3.57191 0)
(-16.3371 -8.75231 0)
(-15.8618 -13.5681 0)
(-14.9819 -17.8162 0)
(-13.7928 -21.4318 0)
(-12.3083 -24.3736 0)
(-10.4465 -26.5136 0)
(-8.07112 -27.4483 0)
(-5.41438 -27.3698 0)
(-2.62897 -26.3807 0)
(0.173952 -24.5589 0)
(2.87646 -22.0054 0)
(5.357 -18.8532 0)
(7.54184 -15.2736 0)
(9.493 -11.4204 0)
(11.3299 -7.35313 0)
(12.7621 -3.20851 0)
(13.7737 0.719665 0)
(14.4025 4.50057 0)
(14.4948 8.1048 0)
(-35.0911 -49.6487 0)
(-32.2337 -62.6355 0)
(-29.483 -73.321 0)
(-27.1535 -82.0702 0)
(-25.3316 -88.8938 0)
(-23.2338 -92.9483 0)
(-19.6655 -92.8147 0)
(-13.9985 -89.3092 0)
(-6.02396 -82.2313 0)
(3.90746 -71.6377 0)
(15.5405 -58.1168 0)
(29.1842 -42.12 0)
(41.8658 -23.7342 0)
(51.1608 -7.57896 0)
(56.1114 3.89382 0)
(55.1971 11.5225 0)
(50.6865 18.1897 0)
(43.8148 24.7666 0)
(35.8969 32.2868 0)
(27.3054 40.2071 0)
(19.0803 48.0285 0)
(11.4639 55.3954 0)
(4.51491 61.9917 0)
(-1.81368 67.4168 0)
(-7.61969 70.8816 0)
(-12.5848 70.8194 0)
(-16.7746 67.2842 0)
(-20.3401 60.9488 0)
(-23.1069 52.2724 0)
(-24.9306 42.0702 0)
(-25.7804 31.3049 0)
(-26.0227 20.7168 0)
(-26.5956 10.2067 0)
(-26.9844 -0.898151 0)
(-26.8151 -12.1625 0)
(-26.1547 -23.1792 0)
(-24.4897 -33.2065 0)
(-22.0586 -41.7809 0)
(-19.1158 -48.86 0)
(-15.7412 -54.5108 0)
(-11.9171 -58.6293 0)
(-7.47836 -60.4643 0)
(-2.6076 -59.7856 0)
(2.37284 -57.2633 0)
(7.34508 -53.0545 0)
(12.2036 -47.3237 0)
(16.7669 -40.2758 0)
(20.8685 -32.2097 0)
(24.4047 -23.4906 0)
(27.1972 -14.5731 0)
(28.8853 -6.19502 0)
(29.3073 1.26787 0)
(28.6351 8.74826 0)
(26.7526 16.2504 0)
(23.9001 23.4376 0)
(20.4813 30.2455 0)
(16.6877 36.5978 0)
(12.5907 42.3799 0)
(8.18861 47.4796 0)
(3.42162 51.6439 0)
(-1.65711 54.2051 0)
(-6.62115 53.7576 0)
(-11.0441 50.7496 0)
(-14.5965 45.3515 0)
(-17.0597 38.0589 0)
(-18.3457 29.6689 0)
(-18.5453 21.0683 0)
(-18.3305 12.852 0)
(-18.6431 4.78796 0)
(-18.6003 -3.36422 0)
(-18.6308 -11.6991 0)
(-18.1469 -19.5255 0)
(-17.1124 -26.412 0)
(-15.682 -32.2541 0)
(-13.8942 -36.9997 0)
(-11.7486 -40.6518 0)
(-9.09714 -43.0367 0)
(-5.79905 -43.4344 0)
(-2.18409 -42.3921 0)
(1.50587 -40.0044 0)
(5.07446 -36.4306 0)
(8.3247 -31.8641 0)
(11.064 -26.5425 0)
(13.1795 -20.7532 0)
(14.7843 -14.7772 0)
(16.2257 -8.73132 0)
(17.3049 -2.65964 0)
(17.7677 3.26076 0)
(17.7578 9.13922 0)
(17.0165 14.6806 0)
(15.6763 19.6571 0)
(13.9381 24.0239 0)
(11.9122 27.7624 0)
(9.6683 30.9049 0)
(7.20691 33.4748 0)
(4.43191 35.2802 0)
(1.28495 35.6574 0)
(-1.99683 34.7142 0)
(-5.11892 32.3967 0)
(-7.82587 28.7231 0)
(-9.88232 23.9467 0)
(-11.1221 18.534 0)
(-11.6062 13.0152 0)
(-11.9303 7.6399 0)
(-12.3998 2.17574 0)
(-12.5462 -3.37957 0)
(-12.5769 -9.00736 0)
(-12.1724 -14.2119 0)
(-11.463 -18.7667 0)
(-10.5529 -22.661 0)
(-9.44715 -25.8602 0)
(-8.13391 -28.3052 0)
(-6.48235 -29.7568 0)
(-4.45387 -29.862 0)
(-2.2413 -28.9604 0)
(0.0351605 -27.1036 0)
(2.26203 -24.3885 0)
(4.29392 -20.9657 0)
(5.98067 -17.0532 0)
(7.23401 -12.9066 0)
(8.25302 -8.73102 0)
(9.41328 -4.47034 0)
(10.189 -0.197087 0)
(10.8676 3.96591 0)
(11.1643 8.09172 0)
(-22.0925 -52.2473 0)
(-19.6333 -65.1885 0)
(-17.5482 -75.5252 0)
(-16.093 -83.8327 0)
(-15.4356 -90.2846 0)
(-14.7144 -94.5557 0)
(-13.2567 -95.7033 0)
(-10.5597 -93.8144 0)
(-7.27465 -88.5129 0)
(-3.1699 -79.6772 0)
(2.12608 -67.4643 0)
(9.21836 -52.8874 0)
(19.1856 -37.099 0)
(29.3742 -19.5245 0)
(36.6533 -1.61059 0)
(41.9904 12.8246 0)
(43.1422 24.0192 0)
(39.1355 32.7028 0)
(32.6286 40.5706 0)
(25.3516 48.3828 0)
(17.8463 55.7304 0)
(10.642 62.3491 0)
(4.12608 68.213 0)
(-1.65926 73.0684 0)
(-6.51983 75.9734 0)
(-10.0943 74.8618 0)
(-12.8936 70.7368 0)
(-15.2033 63.6928 0)
(-17.0379 54.1903 0)
(-18.3004 43.0973 0)
(-18.7792 31.5871 0)
(-18.4883 20.7649 0)
(-18.8035 10.6215 0)
(-19.5117 -0.440979 0)
(-19.8689 -12.2317 0)
(-19.8331 -24.191 0)
(-18.7397 -35.0159 0)
(-16.9822 -44.1405 0)
(-14.7244 -51.6792 0)
(-12.0643 -57.7683 0)
(-9.00253 -62.3634 0)
(-5.51277 -64.7918 0)
(-1.70904 -64.3539 0)
(2.14856 -62.0135 0)
(6.00493 -57.869 0)
(9.82803 -51.9472 0)
(13.4207 -44.3579 0)
(16.5025 -35.4876 0)
(18.9031 -25.9181 0)
(20.7689 -16.2493 0)
(22.2527 -6.99998 0)
(22.9196 1.47523 0)
(23.2149 10.0234 0)
(21.9193 18.5167 0)
(19.3221 26.3804 0)
(16.0783 33.6449 0)
(12.3157 40.3578 0)
(8.10296 46.4813 0)
(3.52845 51.9666 0)
(-1.25432 56.5029 0)
(-5.62043 59.0791 0)
(-8.84155 57.9748 0)
(-11.1287 54.0853 0)
(-12.6016 47.6186 0)
(-13.348 39.2047 0)
(-13.4213 29.7884 0)
(-12.7133 20.4969 0)
(-11.4465 12.3485 0)
(-11.3446 4.87701 0)
(-11.5698 -3.23619 0)
(-12.4046 -11.8248 0)
(-12.4734 -20.0195 0)
(-12.0717 -27.321 0)
(-11.4279 -33.5196 0)
(-10.4658 -38.5566 0)
(-9.17244 -42.5597 0)
(-7.50604 -45.4628 0)
(-5.24209 -46.5967 0)
(-2.45546 -45.8433 0)
(0.567998 -43.5784 0)
(3.59559 -39.8491 0)
(6.39642 -34.8347 0)
(8.74633 -28.8226 0)
(10.452 -22.2766 0)
(11.4371 -15.7388 0)
(12.1807 -9.48863 0)
(13.1089 -3.20201 0)
(13.619 3.07455 0)
(13.8995 9.57304 0)
(13.3902 15.6501 0)
(12.3287 20.9903 0)
(10.9303 25.6172 0)
(9.21503 29.549 0)
(7.19479 32.8819 0)
(4.8412 35.7352 0)
(2.14723 37.9801 0)
(-0.63996 38.7947 0)
(-3.17928 37.7801 0)
(-5.34069 35.1276 0)
(-7.04014 30.8625 0)
(-8.17605 25.3097 0)
(-8.6302 19.0904 0)
(-8.29326 13.0074 0)
(-7.62173 7.68731 0)
(-7.78938 2.45351 0)
(-8.01795 -3.31289 0)
(-8.35405 -9.25139 0)
(-8.11835 -14.6995 0)
(-7.6791 -19.4388 0)
(-7.17174 -23.4948 0)
(-6.53288 -26.8459 0)
(-5.78224 -29.4836 0)
(-4.86244 -31.2812 0)
(-3.60688 -31.6857 0)
(-2.07719 -30.9472 0)
(-0.396046 -29.1591 0)
(1.35255 -26.3533 0)
(3.02377 -22.6626 0)
(4.43095 -18.3523 0)
(5.38255 -13.7844 0)
(5.77851 -9.35218 0)
(6.19049 -5.25296 0)
(6.89225 -0.904804 0)
(7.58782 3.55864 0)
(8.05979 8.08649 0)
(-7.63955 -55.3718 0)
(-6.11395 -67.4917 0)
(-5.25752 -76.9325 0)
(-4.85457 -84.0844 0)
(-6.42817 -89.9943 0)
(-7.26582 -94.8666 0)
(-6.56038 -97.0049 0)
(-5.94253 -95.2147 0)
(-5.0803 -90.161 0)
(-2.95586 -82.1626 0)
(-1.84537 -71.6188 0)
(0.352931 -58.4243 0)
(2.68832 -42.2137 0)
(4.33444 -24.6866 0)
(7.98381 -9.5068 0)
(15.2199 1.23223 0)
(25.5438 21.6118 0)
(27.8381 35.1363 0)
(26.09 46.3484 0)
(22.252 55.9483 0)
(17.0093 63.6786 0)
(11.3852 69.7846 0)
(6.06856 74.7402 0)
(1.34351 78.4555 0)
(-2.17263 79.4765 0)
(-4.23579 77.3031 0)
(-5.61628 72.5374 0)
(-6.84749 65.1914 0)
(-8.18981 55.4566 0)
(-9.63839 43.914 0)
(-10.6784 31.7269 0)
(-10.597 20.4655 0)
(-10.4219 11.0442 0)
(-11.767 0.618938 0)
(-12.5808 -11.7431 0)
(-13.0896 -24.592 0)
(-12.6925 -36.2151 0)
(-11.5375 -45.9298 0)
(-9.61228 -53.9208 0)
(-7.49218 -60.3058 0)
(-5.04121 -65.2079 0)
(-2.40385 -68.0786 0)
(0.212316 -67.5144 0)
(2.38497 -64.8402 0)
(4.00341 -60.4842 0)
(5.29532 -54.5102 0)
(6.57767 -46.8815 0)
(7.90622 -37.9611 0)
(9.06804 -28.3372 0)
(9.66641 -18.7151 0)
(11.81 -8.47437 0)
(12.6047 -0.855872 0)
(14.2765 10.2671 0)
(14.2033 20.3615 0)
(12.4201 29.4086 0)
(9.88047 37.6147 0)
(6.75718 44.933 0)
(3.20368 51.4444 0)
(-0.47519 57.0651 0)
(-3.78651 61.0563 0)
(-5.72647 61.7279 0)
(-6.19653 59.3851 0)
(-6.02011 54.6216 0)
(-5.63037 47.6643 0)
(-5.30289 38.946 0)
(-5.17546 29.1178 0)
(-4.93015 19.2959 0)
(-4.12899 10.9379 0)
(-4.39325 4.56863 0)
(-4.95705 -0.934113 0)
(-6.39612 -11.5975 0)
(-6.81564 -19.8245 0)
(-7.08861 -27.4151 0)
(-7.39697 -33.9748 0)
(-7.31713 -39.3486 0)
(-6.73426 -43.6806 0)
(-5.78594 -46.9461 0)
(-4.36274 -48.6694 0)
(-2.54149 -48.2386 0)
(-0.629015 -46.0769 0)
(1.23962 -42.2104 0)
(2.97418 -36.9882 0)
(4.58098 -30.6821 0)
(5.91362 -23.7267 0)
(6.64759 -16.7579 0)
(6.72243 -10.429 0)
(7.50503 -4.45816 0)
(8.39642 2.22553 0)
(9.37033 9.54683 0)
(9.11675 16.2697 0)
(8.23184 22.209 0)
(7.07374 27.3437 0)
(5.61665 31.7229 0)
(3.88868 35.4942 0)
(1.89813 38.71 0)
(-0.219469 40.9401 0)
(-1.85765 41.0238 0)
(-2.82317 39.4528 0)
(-3.38347 36.3181 0)
(-3.75035 31.6147 0)
(-3.98944 25.5475 0)
(-4.04791 18.7225 0)
(-3.69134 12.0989 0)
(-3.11248 6.6447 0)
(-3.04377 2.74417 0)
(-3.49472 -2.29877 0)
(-4.22448 -9.26853 0)
(-4.25087 -14.8103 0)
(-4.09158 -19.6972 0)
(-3.95026 -23.8688 0)
(-3.76935 -27.2933 0)
(-3.53731 -29.9996 0)
(-3.22874 -31.9652 0)
(-2.71024 -32.7517 0)
(-1.93412 -32.225 0)
(-1.02613 -30.6189 0)
(-0.0131606 -27.8921 0)
(1.05101 -24.1148 0)
(2.04391 -19.5024 0)
(2.76441 -14.4476 0)
(2.81022 -9.54971 0)
(2.82811 -5.2687 0)
(3.0874 -2.0428 0)
(3.86991 2.72304 0)
(4.59804 7.85225 0)
(4.69143 -55.822 0)
(4.30077 -67.0869 0)
(2.3082 -76.3219 0)
(1.79342 -83.5956 0)
(1.21597 -89.3523 0)
(0.214642 -94.3179 0)
(-1.03792 -96.8884 0)
(-2.2473 -95.3822 0)
(-2.92136 -90.7022 0)
(-2.91106 -82.8646 0)
(-2.46334 -72.0304 0)
(-2.09097 -58.2593 0)
(-2.49707 -41.7475 0)
(-3.22792 -24.7403 0)
(-2.78996 -11.3124 0)
(-1.44213 -4.53059 0)
(1.19591 13.8971 0)
(4.11809 31.4075 0)
(5.92789 45.1367 0)
(7.51448 56.6857 0)
(7.7919 65.9879 0)
(7.02359 73.0264 0)
(5.77454 78.2851 0)
(4.45393 81.7285 0)
(3.58867 81.5958 0)
(3.1832 78.817 0)
(2.78398 73.7913 0)
(2.02024 66.5967 0)
(0.724817 57.1573 0)
(-1.03821 45.6447 0)
(-2.93264 32.9257 0)
(-3.97724 20.6251 0)
(-3.99008 10.5818 0)
(-4.72716 2.32127 0)
(-5.59611 -10.6278 0)
(-6.36836 -24.3307 0)
(-7.34412 -36.2615 0)
(-6.79706 -46.9646 0)
(-6.21182 -55.8605 0)
(-4.47228 -62.7162 0)
(-2.11604 -67.6216 0)
(-0.717247 -70.0103 0)
(0.931962 -69.1579 0)
(2.74817 -66.2276 0)
(5.03908 -61.3934 0)
(5.77849 -55.0203 0)
(6.02816 -47.2082 0)
(5.6028 -37.9899 0)
(4.30606 -27.5844 0)
(2.3989 -17.1214 0)
(0.609105 -8.17789 0)
(0.325522 -3.10758 0)
(0.475168 8.86459 0)
(0.494349 20.3257 0)
(0.443578 29.9354 0)
(0.110611 38.8782 0)
(-0.606174 46.7477 0)
(-1.45381 53.5359 0)
(-2.09846 59.0076 0)
(-2.02229 62.0149 0)
(-1.00789 61.4105 0)
(0.393232 58.7242 0)
(1.58319 53.902 0)
(2.44848 47.0725 0)
(2.88263 38.7434 0)
(2.63836 29.4964 0)
(1.76226 19.8576 0)
(0.80747 11.0918 0)
(0.254125 4.76077 0)
(-0.435898 0.906819 0)
(-1.55267 -11.1461 0)
(-2.29498 -19.1007 0)
(-3.18421 -26.4422 0)
(-4.44163 -33.1514 0)
(-4.95678 -39.0775 0)
(-5.01746 -44.0805 0)
(-4.64793 -47.9449 0)
(-3.49557 -50.0769 0)
(-1.49467 -49.6759 0)
(-0.706217 -47.4915 0)
(1.03209 -43.7109 0)
(2.30435 -38.435 0)
(3.11194 -31.8089 0)
(3.53809 -24.2777 0)
(3.32724 -16.474 0)
(2.05946 -9.43737 0)
(1.25244 -4.23588 0)
(1.37692 -0.231762 0)
(1.63892 9.7152 0)
(1.34079 16.564 0)
(0.971094 22.7012 0)
(0.69978 27.9893 0)
(0.433414 32.4572 0)
(0.142094 36.3589 0)
(-0.137228 39.7377 0)
(-0.235749 41.8276 0)
(-0.135087 41.4486 0)
(0.120645 39.5208 0)
(0.455564 36.2514 0)
(0.716768 31.6387 0)
(0.763373 25.7004 0)
(0.580128 18.9235 0)
(0.272559 12.1841 0)
(0.0527323 6.41526 0)
(0.00725397 2.80131 0)
(-0.32633 -1.2357 0)
(-0.820157 -9.24744 0)
(-1.10821 -14.7027 0)
(-1.32093 -19.6095 0)
(-1.51822 -23.7905 0)
(-1.73997 -27.2258 0)
(-1.78951 -29.9869 0)
(-1.65122 -32.0569 0)
(-1.27974 -33.041 0)
(-0.852577 -32.6046 0)
(-0.460545 -31.0929 0)
(-0.111781 -28.4655 0)
(0.230188 -24.7358 0)
(0.507623 -20.0337 0)
(0.649572 -14.7158 0)
(0.586315 -9.41848 0)
(0.32492 -4.92112 0)
(0.146038 -2.2286 0)
(0.298803 1.59375 0)
(0.482857 7.74505 0)
(-0.531586 2.08765 0)
(-0.878041 7.94867 0)
(-12.4788 -1.00918 0)
(-10.2452 -1.11029 0)
(-7.85513 -1.15669 0)
(-5.41611 -1.15607 0)
(-3.00875 -1.11458 0)
(-0.692362 -1.06574 0)
(1.32625 -1.11972 0)
(3.12545 -0.944503 0)
(4.83403 -0.820526 0)
(6.37676 -0.72392 0)
(7.76247 -0.640846 0)
(9.00583 -0.564943 0)
(10.1092 -0.489451 0)
(11.0613 -0.407709 0)
(11.8377 -0.314046 0)
(12.401 -0.205596 0)
(12.7197 -0.0773325 0)
(12.7497 0.0798695 0)
(12.4233 0.26548 0)
(11.6897 0.469928 0)
(10.5182 0.681155 0)
(8.90224 0.886765 0)
(6.84489 1.06977 0)
(4.37852 1.23592 0)
(1.86392 1.50344 0)
(-0.680946 1.40202 0)
(-3.39974 1.29623 0)
(-5.9919 1.16536 0)
(-8.31469 0.996462 0)
(-10.2668 0.794216 0)
(-11.7699 0.567079 0)
(-12.7734 0.32747 0)
(-13.26 0.0848759 0)
(-13.2224 -0.149062 0)
(-12.7062 -0.359205 0)
(-11.7742 -0.537013 0)
(-10.4917 -0.679434 0)
(-8.93994 -0.784473 0)
(-7.19814 -0.852824 0)
(-5.33906 -0.889418 0)
(-3.41983 -0.898301 0)
(-1.48407 -0.899633 0)
(0.255573 -1.00193 0)
(1.87937 -0.860324 0)
(3.4691 -0.757039 0)
(4.92642 -0.671391 0)
(6.23545 -0.589284 0)
(7.3922 -0.506877 0)
(8.38581 -0.420611 0)
(9.19869 -0.326887 0)
(9.80677 -0.222455 0)
(10.1839 -0.105557 0)
(10.2961 0.0246496 0)
(10.1196 0.165987 0)
(9.64317 0.317405 0)
(8.83228 0.474137 0)
(7.69005 0.625239 0)
(6.23436 0.759644 0)
(4.4962 0.864614 0)
(2.53143 0.94762 0)
(0.537377 1.09064 0)
(-1.42908 1.00278 0)
(-3.42258 0.919912 0)
(-5.26634 0.808579 0)
(-6.87358 0.673256 0)
(-8.18225 0.518191 0)
(-9.14753 0.350181 0)
(-9.74721 0.176758 0)
(-9.96289 0.00369552 0)
(-9.81826 -0.160585 0)
(-9.33695 -0.307675 0)
(-8.55846 -0.433421 0)
(-7.53283 -0.535117 0)
(-6.3129 -0.611911 0)
(-4.95061 -0.664687 0)
(-3.48968 -0.695284 0)
(-1.96125 -0.713663 0)
(-0.549503 -0.805824 0)
(0.813251 -0.71663 0)
(2.14718 -0.636675 0)
(3.38418 -0.563856 0)
(4.48939 -0.489387 0)
(5.44843 -0.411541 0)
(6.24807 -0.329684 0)
(6.87486 -0.243769 0)
(7.31626 -0.153599 0)
(7.56134 -0.0576892 0)
(7.59387 0.0434763 0)
(7.4116 0.146554 0)
(7.00792 0.247818 0)
(6.39254 0.345063 0)
(5.57334 0.436796 0)
(4.56143 0.519339 0)
(3.37587 0.587622 0)
(2.0348 0.648741 0)
(0.729977 0.779641 0)
(-0.56918 0.69638 0)
(-1.92306 0.634437 0)
(-3.19139 0.564927 0)
(-4.32027 0.482942 0)
(-5.27222 0.388717 0)
(-6.01695 0.284824 0)
(-6.53032 0.175623 0)
(-6.80794 0.0637508 0)
(-6.83993 -0.0473089 0)
(-6.64269 -0.151612 0)
(-6.23006 -0.245099 0)
(-5.62833 -0.325491 0)
(-4.86746 -0.391137 0)
(-3.97995 -0.440899 0)
(-2.99865 -0.474024 0)
(-1.95349 -0.486959 0)
(-0.898988 -0.49246 0)
(0.132172 -0.527729 0)
(1.09842 -0.473283 0)
(2.02517 -0.425653 0)
(2.86558 -0.371244 0)
(3.59709 -0.312217 0)
(4.20563 -0.249184 0)
(4.67996 -0.183046 0)
(5.01159 -0.114797 0)
(5.1952 -0.0441226 0)
(5.22344 0.0282062 0)
(5.09994 0.0995753 0)
(4.82552 0.167905 0)
(-12.0407 -3.34329 0)
(-9.52672 -3.63991 0)
(-6.89014 -3.74628 0)
(-4.25231 -3.69329 0)
(-1.72329 -3.52541 0)
(0.576691 -3.31327 0)
(2.78261 -3.14759 0)
(4.74732 -2.76256 0)
(6.37607 -2.4379 0)
(7.81376 -2.16067 0)
(9.08201 -1.91422 0)
(10.1931 -1.68383 0)
(11.1531 -1.45068 0)
(11.9529 -1.19364 0)
(12.5685 -0.893033 0)
(12.9656 -0.534937 0)
(13.0739 -0.111117 0)
(12.8416 0.384615 0)
(12.2564 0.950699 0)
(11.2778 1.56606 0)
(9.89366 2.19757 0)
(8.11636 2.80432 0)
(5.99647 3.3598 0)
(3.62861 3.87648 0)
(0.856197 4.26154 0)
(-2.06841 4.25537 0)
(-4.82854 4.05003 0)
(-7.42588 3.68269 0)
(-9.73953 3.15941 0)
(-11.6437 2.50636 0)
(-13.052 1.76332 0)
(-13.9182 0.975978 0)
(-14.2127 0.182071 0)
(-13.9517 -0.577117 0)
(-13.1939 -1.25815 0)
(-11.9934 -1.83165 0)
(-10.4376 -2.28286 0)
(-8.62097 -2.60612 0)
(-6.63838 -2.80652 0)
(-4.57652 -2.89596 0)
(-2.51956 -2.89768 0)
(-0.564109 -2.86582 0)
(1.42685 -2.81663 0)
(3.25039 -2.54806 0)
(4.80008 -2.29407 0)
(6.19177 -2.04705 0)
(7.4221 -1.7993 0)
(8.4809 -1.54444 0)
(9.35979 -1.27338 0)
(10.0454 -0.975494 0)
(10.517 -0.641254 0)
(10.7488 -0.265526 0)
(10.6973 0.15301 0)
(10.3478 0.609044 0)
(9.65553 1.08992 0)
(8.6364 1.57467 0)
(7.30472 2.03562 0)
(5.69164 2.44566 0)
(3.8545 2.79343 0)
(1.85608 3.08463 0)
(-0.364804 3.21908 0)
(-2.57658 3.12816 0)
(-4.61697 2.90654 0)
(-6.47837 2.57385 0)
(-8.07589 2.14245 0)
(-9.33626 1.6353 0)
(-10.2131 1.08056 0)
(-10.6877 0.506856 0)
(-10.7349 -0.0613902 0)
(-10.4033 -0.596579 0)
(-9.71237 -1.0736 0)
(-8.71413 -1.47675 0)
(-7.46931 -1.79704 0)
(-6.04195 -2.03139 0)
(-4.49567 -2.18184 0)
(-2.89598 -2.25891 0)
(-1.32461 -2.29998 0)
(0.312882 -2.32764 0)
(1.87451 -2.15183 0)
(3.22595 -1.95712 0)
(4.44114 -1.74651 0)
(5.50839 -1.5178 0)
(6.40792 -1.27178 0)
(7.12771 -1.00944 0)
(7.65727 -0.731404 0)
(7.98841 -0.438301 0)
(8.10598 -0.129336 0)
(8.00553 0.193777 0)
(7.68375 0.523149 0)
(7.13557 0.847295 0)
(6.36454 1.15671 0)
(5.38944 1.44115 0)
(4.24135 1.68795 0)
(2.96159 1.8934 0)
(1.60764 2.07947 0)
(0.0791036 2.20042 0)
(-1.43907 2.12921 0)
(-2.81655 1.9906 0)
(-4.09327 1.79328 0)
(-5.2199 1.53737 0)
(-6.14586 1.23153 0)
(-6.83745 0.889377 0)
(-7.276 0.52729 0)
(-7.44584 0.158004 0)
(-7.35206 -0.204304 0)
(-7.01496 -0.543029 0)
(-6.45238 -0.844875 0)
(-5.69709 -1.10114 0)
(-4.78584 -1.30616 0)
(-3.7577 -1.45733 0)
(-2.65189 -1.55421 0)
(-1.51251 -1.6073 0)
(-0.376178 -1.63242 0)
(0.770275 -1.58543 0)
(1.83089 -1.47631 0)
(2.77416 -1.33296 0)
(3.60656 -1.16541 0)
(4.31131 -0.977651 0)
(4.87441 -0.773686 0)
(5.28691 -0.557635 0)
(5.54414 -0.333617 0)
(5.63815 -0.103502 0)
(5.57057 0.12943 0)
(5.34607 0.358556 0)
(4.96694 0.577202 0)
(-12.1071 -5.83365 0)
(-9.43063 -6.34317 0)
(-6.6676 -6.52361 0)
(-3.95265 -6.4213 0)
(-1.38847 -6.1054 0)
(0.942445 -5.64572 0)
(3.05572 -5.08162 0)
(4.85403 -4.47622 0)
(6.39237 -3.94431 0)
(7.73528 -3.47711 0)
(8.9221 -3.06515 0)
(9.98522 -2.68703 0)
(10.9394 -2.30944 0)
(11.7795 -1.89415 0)
(12.4853 -1.40256 0)
(13.0097 -0.8027 0)
(13.2992 -0.080581 0)
(13.2744 0.757633 0)
(12.8857 1.7063 0)
(12.0762 2.74024 0)
(10.7962 3.80084 0)
(9.03512 4.83006 0)
(6.82114 5.76897 0)
(4.20827 6.54389 0)
(1.18778 6.9602 0)
(-1.94476 7.06778 0)
(-4.98107 6.85258 0)
(-7.82956 6.28664 0)
(-10.3565 5.40653 0)
(-12.4282 4.27548 0)
(-13.9493 2.97296 0)
(-14.8747 1.58577 0)
(-15.1729 0.184365 0)
(-14.8666 -1.14763 0)
(-14.0306 -2.33273 0)
(-12.7255 -3.32692 0)
(-11.0474 -4.10047 0)
(-9.10213 -4.64039 0)
(-6.99356 -4.9563 0)
(-4.8132 -5.07459 0)
(-2.63527 -5.03858 0)
(-0.522339 -4.88485 0)
(1.51398 -4.56408 0)
(3.3454 -4.173 0)
(4.97619 -3.78414 0)
(6.42973 -3.38223 0)
(7.71247 -2.97071 0)
(8.82931 -2.54474 0)
(9.77844 -2.09034 0)
(10.5476 -1.58899 0)
(11.1116 -1.02318 0)
(11.4418 -0.381723 0)
(11.4795 0.337225 0)
(11.2055 1.12605 0)
(10.583 1.95848 0)
(9.58806 2.79167 0)
(8.22075 3.58345 0)
(6.50278 4.29295 0)
(4.48333 4.88868 0)
(2.21386 5.31904 0)
(-0.228078 5.40957 0)
(-2.6561 5.31129 0)
(-4.95212 4.98808 0)
(-7.03826 4.43355 0)
(-8.82278 3.684 0)
(-10.2269 2.78823 0)
(-11.2002 1.80318 0)
(-11.7244 0.782639 0)
(-11.7637 -0.222832 0)
(-11.3886 -1.16059 0)
(-10.6199 -1.99217 0)
(-9.5168 -2.69016 0)
(-8.14869 -3.23692 0)
(-6.58761 -3.62734 0)
(-4.90234 -3.86897 0)
(-3.15489 -3.98386 0)
(-1.3985 -3.99353 0)
(0.348831 -3.84374 0)
(1.9826 -3.57998 0)
(3.45695 -3.28276 0)
(4.77637 -2.93506 0)
(5.92852 -2.54499 0)
(6.90197 -2.12091 0)
(7.68763 -1.66719 0)
(8.27599 -1.18574 0)
(8.65877 -0.677785 0)
(8.81875 -0.144374 0)
(8.74137 0.411332 0)
(8.42901 0.978596 0)
(7.86995 1.53891 0)
(7.07016 2.07306 0)
(6.04216 2.5601 0)
(4.80748 2.9817 0)
(3.40107 3.32687 0)
(1.86009 3.58105 0)
(0.193456 3.64766 0)
(-1.45701 3.58441 0)
(-3.02173 3.4036 0)
(-4.46396 3.08475 0)
(-5.73121 2.64401 0)
(-6.77264 2.10578 0)
(-7.55037 1.49888 0)
(-8.04436 0.854465 0)
(-8.23487 0.198401 0)
(-8.12857 -0.439651 0)
(-7.75389 -1.03125 0)
(-7.13029 -1.55584 0)
(-6.29539 -1.99847 0)
(-5.29094 -2.34922 0)
(-4.15905 -2.60427 0)
(-2.93912 -2.7693 0)
(-1.66485 -2.86315 0)
(-0.396851 -2.87965 0)
(0.828688 -2.70511 0)
(1.98725 -2.5084 0)
(3.0335 -2.26807 0)
(3.95064 -1.97859 0)
(4.725 -1.65028 0)
(5.34456 -1.29225 0)
(5.80087 -0.913126 0)
(6.09026 -0.520591 0)
(6.20282 -0.119246 0)
(6.13835 0.284264 0)
(5.90461 0.679899 0)
(5.5016 1.05695 0)
(-14.3441 -8.68153 0)
(-10.8106 -9.28172 0)
(-7.21457 -9.40477 0)
(-3.71643 -9.16637 0)
(-0.422756 -8.63695 0)
(2.42392 -7.82734 0)
(4.75784 -6.89507 0)
(6.63197 -6.07999 0)
(8.12496 -5.37463 0)
(9.36087 -4.77984 0)
(10.4527 -4.27862 0)
(11.4851 -3.83053 0)
(12.5037 -3.3802 0)
(13.5076 -2.86728 0)
(14.4492 -2.23404 0)
(15.2579 -1.43266 0)
(15.8455 -0.433964 0)
(16.1119 0.765358 0)
(15.8912 2.15442 0)
(15.1294 3.69756 0)
(13.7383 5.31394 0)
(11.6795 6.90947 0)
(8.96531 8.37472 0)
(5.65737 9.58112 0)
(1.7683 10.3703 0)
(-2.401 10.4812 0)
(-6.48506 10.138 0)
(-10.2923 9.30514 0)
(-13.6113 7.99871 0)
(-16.2416 6.31226 0)
(-18.0503 4.37383 0)
(-18.9971 2.32285 0)
(-19.0362 0.267196 0)
(-18.3657 -1.68099 0)
(-17.0409 -3.42407 0)
(-15.1872 -4.88569 0)
(-12.9462 -6.02047 0)
(-10.455 -6.81087 0)
(-7.83663 -7.2678 0)
(-5.18641 -7.44063 0)
(-2.56702 -7.40137 0)
(-0.0672022 -7.16099 0)
(2.24143 -6.64659 0)
(4.30065 -6.05394 0)
(6.1293 -5.45594 0)
(7.74795 -4.86326 0)
(9.1817 -4.27726 0)
(10.4529 -3.68603 0)
(11.5702 -3.06334 0)
(12.5211 -2.3751 0)
(13.2724 -1.58856 0)
(13.778 -0.681344 0)
(13.9594 0.354271 0)
(13.7438 1.50678 0)
(13.1023 2.74024 0)
(11.9823 3.99455 0)
(10.3717 5.20643 0)
(8.28715 6.31165 0)
(5.77957 7.24172 0)
(2.90892 7.90527 0)
(-0.228167 8.14118 0)
(-3.37084 7.94769 0)
(-6.34297 7.44485 0)
(-9.0155 6.61256 0)
(-11.258 5.48969 0)
(-12.9647 4.14765 0)
(-14.0794 2.67395 0)
(-14.5796 1.14836 0)
(-14.4833 -0.352574 0)
(-13.8864 -1.75343 0)
(-12.8301 -2.99295 0)
(-11.3964 -4.02707 0)
(-9.67407 -4.83091 0)
(-7.74976 -5.39882 0)
(-5.70107 -5.74859 0)
(-3.58973 -5.91873 0)
(-1.46457 -5.92431 0)
(0.6048 -5.69483 0)
(2.51007 -5.28456 0)
(4.24036 -4.81349 0)
(5.78214 -4.28669 0)
(7.12451 -3.71158 0)
(8.26279 -3.0952 0)
(9.19096 -2.44092 0)
(9.89978 -1.74842 0)
(10.3796 -1.0161 0)
(10.6086 -0.241123 0)
(10.5532 0.572184 0)
(10.2202 1.40709 0)
(9.58652 2.23799 0)
(8.65355 3.03684 0)
(7.43269 3.77368 0)
(5.94654 4.42031 0)
(4.23354 4.95268 0)
(2.33813 5.33805 0)
(0.281386 5.49963 0)
(-1.78413 5.38136 0)
(-3.74122 5.08796 0)
(-5.5342 4.60693 0)
(-7.0929 3.94725 0)
(-8.35354 3.13999 0)
(-9.27212 2.22816 0)
(-9.83147 1.25887 0)
(-10.0067 0.270852 0)
(-9.83347 -0.687887 0)
(-9.33763 -1.57213 0)
(-8.54961 -2.35148 0)
(-7.51618 -3.00467 0)
(-6.2875 -3.51834 0)
(-4.91464 -3.89093 0)
(-3.44696 -4.13622 0)
(-1.93371 -4.26709 0)
(-0.376467 -4.2563 0)
(1.11867 -4.02417 0)
(2.4744 -3.71766 0)
(3.70338 -3.34618 0)
(4.78219 -2.91108 0)
(5.69172 -2.423 0)
(6.41986 -1.8944 0)
(6.95764 -1.33707 0)
(7.30213 -0.760966 0)
(7.43865 -0.170572 0)
(7.36729 0.423528 0)
(7.0958 1.0061 0)
(6.62273 1.56332 0)
(-22.3549 -12.7547 0)
(-16.7167 -13.7079 0)
(-11.1542 -13.904 0)
(-5.79868 -13.5248 0)
(-0.707287 -12.6718 0)
(3.87054 -11.2353 0)
(7.64413 -9.52683 0)
(10.6937 -7.98963 0)
(13.1046 -6.75588 0)
(15.0036 -5.84194 0)
(16.5594 -5.20658 0)
(17.9366 -4.75934 0)
(19.2548 -4.37283 0)
(20.5694 -3.91232 0)
(21.8644 -3.26095 0)
(23.057 -2.33001 0)
(24.0105 -1.06221 0)
(24.5501 0.569891 0)
(24.392 2.553 0)
(23.4544 4.81418 0)
(21.5794 7.22813 0)
(18.6853 9.64505 0)
(14.7709 11.9002 0)
(9.91564 13.8051 0)
(4.12385 15.1276 0)
(-2.41511 15.5783 0)
(-9.00057 15.0665 0)
(-15.2746 13.7584 0)
(-20.858 11.6853 0)
(-25.3917 9.00082 0)
(-28.6079 5.9229 0)
(-30.3608 2.70228 0)
(-30.4451 -0.38682 0)
(-29.2124 -3.1559 0)
(-26.8198 -5.55276 0)
(-23.5139 -7.49463 0)
(-19.5943 -8.92635 0)
(-15.3543 -9.8587 0)
(-11.0424 -10.3608 0)
(-6.82181 -10.5154 0)
(-2.75535 -10.3532 0)
(1.05732 -9.78723 0)
(4.40655 -8.98885 0)
(7.25833 -8.16049 0)
(9.66922 -7.32089 0)
(11.7319 -6.52183 0)
(13.5284 -5.76668 0)
(15.122 -5.02669 0)
(16.5482 -4.25491 0)
(17.8033 -3.39032 0)
(18.8421 -2.37229 0)
(19.5891 -1.15561 0)
(19.9143 0.283426 0)
(19.6916 1.91595 0)
(18.8853 3.6817 0)
(17.4114 5.50829 0)
(15.2376 7.29889 0)
(12.3727 8.95069 0)
(8.86923 10.3681 0)
(4.80798 11.4282 0)
(0.261354 11.9036 0)
(-4.44158 11.6301 0)
(-8.97618 10.8455 0)
(-13.1091 9.55039 0)
(-16.6139 7.80949 0)
(-19.3011 5.74199 0)
(-21.0466 3.49602 0)
(-21.7507 1.23411 0)
(-21.4466 -0.888538 0)
(-20.3303 -2.81206 0)
(-18.4989 -4.49764 0)
(-16.1179 -5.88138 0)
(-13.3663 -6.93512 0)
(-10.4058 -7.67302 0)
(-7.36441 -8.1284 0)
(-4.32188 -8.33489 0)
(-1.32562 -8.27935 0)
(1.51011 -7.87191 0)
(4.06527 -7.3254 0)
(6.32503 -6.66106 0)
(8.29757 -5.91227 0)
(9.99889 -5.11162 0)
(11.4363 -4.26581 0)
(12.6105 -3.37408 0)
(13.5144 -2.43284 0)
(14.1371 -1.43523 0)
(14.4414 -0.367518 0)
(14.3788 0.764291 0)
(13.9538 1.93227 0)
(13.1316 3.10398 0)
(11.9072 4.24234 0)
(10.2876 5.30474 0)
(8.296 6.24925 0)
(5.97355 7.03934 0)
(3.36992 7.62169 0)
(0.526499 7.8831 0)
(-2.39887 7.71396 0)
(-5.22539 7.2697 0)
(-7.82998 6.54526 0)
(-10.0902 5.56054 0)
(-11.8991 4.3672 0)
(-13.1785 3.03402 0)
(-13.8909 1.63534 0)
(-13.9825 0.245747 0)
(-13.5883 -1.07979 0)
(-12.7337 -2.30673 0)
(-11.4901 -3.3875 0)
(-9.93996 -4.28975 0)
(-8.16349 -4.99882 0)
(-6.23495 -5.51365 0)
(-4.21557 -5.84815 0)
(-2.14813 -6.00213 0)
(-0.0816076 -5.91004 0)
(1.86118 -5.61511 0)
(3.62946 -5.1892 0)
(5.20559 -4.65099 0)
(6.57405 -4.03009 0)
(7.71906 -3.3442 0)
(8.62786 -2.60632 0)
(9.29205 -1.83104 0)
(9.711 -1.03152 0)
(9.85816 -0.211954 0)
(9.74993 0.613177 0)
(9.38391 1.42342 0)
(8.75877 2.20086 0)
(-40.0551 -19.9772 0)
(-29.3266 -20.6753 0)
(-18.9122 -20.5208 0)
(-9.275 -19.7913 0)
(-0.529675 -18.352 0)
(6.81707 -15.9931 0)
(12.5843 -13.7815 0)
(16.9428 -11.6903 0)
(20.2458 -9.83611 0)
(22.8865 -8.40036 0)
(25.147 -7.38835 0)
(27.232 -6.69873 0)
(29.2657 -6.17084 0)
(31.2756 -5.61334 0)
(33.2014 -4.83339 0)
(34.9047 -3.66149 0)
(36.1868 -1.96248 0)
(36.7914 0.364763 0)
(36.3779 3.27626 0)
(34.8917 6.62017 0)
(32.1304 10.2303 0)
(28.0008 13.8969 0)
(22.4895 17.379 0)
(15.6644 20.4661 0)
(7.81693 22.8012 0)
(-0.806184 23.8021 0)
(-9.67555 23.2399 0)
(-18.267 21.3593 0)
(-26.1475 18.2687 0)
(-32.9727 14.1949 0)
(-38.4615 9.43027 0)
(-42.3809 4.31775 0)
(-44.5413 -0.737634 0)
(-44.4991 -5.30992 0)
(-42.4056 -9.15926 0)
(-38.5545 -12.1912 0)
(-33.2714 -14.3282 0)
(-27.0147 -15.5499 0)
(-20.2749 -16.0027 0)
(-13.4856 -15.9359 0)
(-6.89695 -15.5272 0)
(-0.503366 -14.6536 0)
(5.33984 -12.9979 0)
(10.3646 -11.4438 0)
(14.4798 -10.0537 0)
(17.7906 -8.81667 0)
(20.4928 -7.74178 0)
(22.7406 -6.76979 0)
(24.6389 -5.80044 0)
(26.2335 -4.71833 0)
(27.4985 -3.4069 0)
(28.3495 -1.76422 0)
(28.5752 0.246089 0)
(28.1467 2.5602 0)
(26.9508 5.08919 0)
(24.9001 7.73134 0)
(21.9558 10.36 0)
(18.1194 12.8286 0)
(13.4519 14.9914 0)
(8.07061 16.6771 0)
(2.12691 17.5829 0)
(-4.0724 17.3546 0)
(-10.18 16.2738 0)
(-15.919 14.3975 0)
(-21.0329 11.817 0)
(-25.3051 8.69128 0)
(-28.5549 5.22508 0)
(-30.6483 1.65365 0)
(-31.3791 -1.76127 0)
(-30.6028 -4.77385 0)
(-28.6135 -7.2946 0)
(-25.5371 -9.28049 0)
(-21.6225 -10.6863 0)
(-17.1621 -11.5511 0)
(-12.4415 -11.9925 0)
(-7.68496 -12.1354 0)
(-2.98691 -11.9606 0)
(1.56037 -11.2426 0)
(5.67317 -10.1581 0)
(9.24497 -9.1163 0)
(12.2064 -8.0341 0)
(14.6218 -6.91075 0)
(16.5705 -5.75856 0)
(18.0968 -4.56393 0)
(19.2253 -3.30442 0)
(19.9707 -1.9586 0)
(20.2801 -0.498204 0)
(20.1414 1.06462 0)
(19.5376 2.68734 0)
(18.4314 4.32952 0)
(16.8134 5.94028 0)
(14.6887 7.45881 0)
(12.0811 8.82842 0)
(9.03457 10.0022 0)
(5.60944 10.9101 0)
(1.87163 11.4018 0)
(-2.05889 11.2559 0)
(-5.97509 10.6385 0)
(-9.70393 9.59068 0)
(-13.0829 8.12901 0)
(-15.9677 6.32413 0)
(-18.2175 4.27684 0)
(-19.7243 2.10781 0)
(-20.3885 -0.0339638 0)
(-20.1231 -1.99744 0)
(-19.1052 -3.7268 0)
(-17.3952 -5.20781 0)
(-15.121 -6.40581 0)
(-12.4346 -7.30146 0)
(-9.49106 -7.92796 0)
(-6.4239 -8.33158 0)
(-3.31907 -8.5012 0)
(-0.22728 -8.32734 0)
(2.69771 -7.76482 0)
(5.34001 -7.11189 0)
(7.6127 -6.35654 0)
(9.50845 -5.4816 0)
(11.0477 -4.52271 0)
(12.2395 -3.50444 0)
(13.0862 -2.44044 0)
(13.5991 -1.34265 0)
(13.7417 -0.220904 0)
(13.5707 0.905782 0)
(13.0669 2.01634 0)
(12.231 3.08774 0)
(-68.0647 -33.9972 0)