/*--------------------------------*- C++ -*----------------------------------*\
| =========                 |                                                 |
| \\      /  F ield         | OpenFOAM: The Open Source CFD Toolbox           |
|  \\    /   O peration     | Version:  2206                                  |
|   \\  /    A nd           | Website:  www.openfoam.com                      |
|    \\/     M anipulation  |                                                 |
\*---------------------------------------------------------------------------*/
FoamFile
{
    version     2.0;
    format      ascii;
    arch        "LSB;label=32;scalar=64";
    class       surfaceScalarField;
    location    "18.2001";
    object      phi_0;
}
// * * * * * * * * * * * * * * * * * * * * * * * * * * * * * * * * * * * * * //

dimensions      [0 3 -1 0 0 0 0];

oriented        oriented;

internalField   nonuniform List<scalar> 
5971
(
4.59543e-07
1.79461e-07
-6.39004e-07
6.6786e-07
5.8783e-07
-7.96147e-07
8.30201e-07
8.83486e-07
-1.04583e-06
9.61964e-07
1.04448e-06
-1.17624e-06
1.07949e-06
1.07401e-06
-1.19154e-06
1.23088e-06
9.37177e-07
-1.08856e-06
1.45465e-06
6.3188e-07
-8.55656e-07
1.76194e-06
1.96209e-07
-5.03493e-07
2.199e-06
-3.83905e-07
-5.31573e-08
2.75541e-06
-9.91906e-07
4.35499e-07
3.44228e-06
-1.56673e-06
8.79857e-07
4.25221e-06
-2.01427e-06
1.20434e-06
5.15015e-06
-2.25562e-06
1.35767e-06
6.08909e-06
-2.24411e-06
1.30518e-06
7.03589e-06
-1.95685e-06
1.01004e-06
7.97634e-06
-1.37543e-06
4.34983e-07
8.84593e-06
-5.06064e-07
-3.63526e-07
9.54218e-06
5.11446e-07
-1.2077e-06
1.00254e-05
1.47646e-06
-1.95971e-06
1.03038e-05
2.29004e-06
-2.56845e-06
1.04132e-05
2.91602e-06
-3.02544e-06
1.03943e-05
3.35744e-06
-3.33848e-06
1.02769e-05
3.64032e-06
-3.52292e-06
1.00845e-05
3.78769e-06
-3.59531e-06
9.84742e-06
3.8137e-06
-3.57661e-06
9.58792e-06
3.75608e-06
-3.49659e-06
9.32294e-06
3.64219e-06
-3.3772e-06
9.0619e-06
3.49547e-06
-3.23443e-06
8.80806e-06
3.3336e-06
-3.07975e-06
8.56374e-06
3.16334e-06
-2.91902e-06
8.3307e-06
2.98392e-06
-2.75089e-06
8.09978e-06
2.80179e-06
-2.57087e-06
7.84158e-06
2.64456e-06
-2.38636e-06
7.52211e-06
2.54521e-06
-2.22574e-06
7.14386e-06
2.49688e-06
-2.11863e-06
6.76739e-06
2.42768e-06
-2.05121e-06
6.47956e-06
2.23794e-06
-1.95012e-06
6.34222e-06
1.86389e-06
-1.72655e-06
6.36207e-06
1.31626e-06
-1.33611e-06
6.52266e-06
6.35007e-07
-7.95592e-07
6.78298e-06
-1.08075e-07
-1.52253e-07
7.08356e-06
-8.17582e-07
5.17007e-07
7.39259e-06
-1.44636e-06
1.13732e-06
7.68867e-06
-1.97477e-06
1.67869e-06
7.95618e-06
-2.39788e-06
2.13038e-06
8.18512e-06
-2.72211e-06
2.49317e-06
8.3704e-06
-2.96207e-06
2.77679e-06
8.51097e-06
-3.13761e-06
2.99704e-06
8.60991e-06
-3.27034e-06
3.17141e-06
8.67471e-06
-3.37776e-06
3.31295e-06
8.71522e-06
-3.46629e-06
3.42578e-06
8.74208e-06
-3.53418e-06
3.50733e-06
8.7652e-06
-3.57192e-06
3.54879e-06
8.80414e-06
-3.57041e-06
3.53147e-06
8.87368e-06
-3.47481e-06
3.40527e-06
8.97708e-06
-3.23992e-06
3.13652e-06
9.11742e-06
-2.86647e-06
2.72613e-06
9.28989e-06
-2.35499e-06
2.18252e-06
9.48326e-06
-1.72903e-06
1.53565e-06
9.67835e-06
-1.03495e-06
8.39864e-07
9.85583e-06
-3.37935e-07
1.60452e-07
1.00038e-05
3.12287e-07
-4.60273e-07
1.01143e-05
8.8473e-07
-9.95229e-07
1.01839e-05
1.3621e-06
-1.43173e-06
1.02134e-05
1.7388e-06
-1.7683e-06
1.02063e-05
2.0195e-06
-2.01233e-06
1.01671e-05
2.21465e-06
-2.17546e-06
1.00987e-05
2.33701e-06
-2.26861e-06
1.00028e-05
2.39809e-06
-2.30219e-06
9.88514e-06
2.40881e-06
-2.29116e-06
9.75098e-06
2.3869e-06
-2.25274e-06
9.60316e-06
2.3495e-06
-2.20167e-06
9.44328e-06
2.31035e-06
-2.15046e-06
9.27309e-06
2.27815e-06
-2.10796e-06
9.09575e-06
2.25434e-06
-2.077e-06
8.91634e-06
2.23186e-06
-2.05245e-06
8.74174e-06
2.19622e-06
-2.02162e-06
8.57986e-06
2.12806e-06
-1.96618e-06
8.43804e-06
2.00806e-06
-1.86624e-06
8.32182e-06
1.82215e-06
-1.70593e-06
8.2347e-06
1.56488e-06
-1.47775e-06
8.17817e-06
1.24046e-06
-1.18393e-06
8.15187e-06
8.61671e-07
-8.35374e-07
8.15377e-06
4.47097e-07
-4.48996e-07
8.18025e-06
1.91601e-08
-4.56416e-08
8.22655e-06
-3.99572e-07
3.53275e-07
8.28817e-06
-7.94622e-07
7.33004e-07
8.36036e-06
-1.15562e-06
1.08343e-06
8.43838e-06
-1.47583e-06
1.39781e-06
8.51768e-06
-1.7516e-06
1.6723e-06
8.59466e-06
-1.98212e-06
1.90514e-06
8.6669e-06
-2.1693e-06
2.09706e-06
8.73269e-06
-2.31567e-06
2.24987e-06
8.79073e-06
-2.42424e-06
2.36621e-06
8.84034e-06
-2.49875e-06
2.44915e-06
8.88184e-06
-2.54286e-06
2.50136e-06
8.91851e-06
-2.55929e-06
2.52262e-06
8.95654e-06
-2.54163e-06
2.5036e-06
8.99368e-06
-2.47159e-06
2.43445e-06
9.0324e-06
-2.35094e-06
2.31222e-06
9.07449e-06
-2.17672e-06
2.13462e-06
9.12077e-06
-1.94692e-06
1.90064e-06
9.17123e-06
-1.66257e-06
1.61211e-06
9.22519e-06
-1.32832e-06
1.27436e-06
-9.52832e-07
8.96658e-07
-2.78098e-07
4.57559e-07
-3.65915e-07
6.75647e-07
-3.55162e-07
8.72733e-07
-3.28734e-07
1.01805e-06
-2.97411e-07
1.04269e-06
-2.61922e-07
9.01688e-07
-1.92744e-07
5.62701e-07
-3.37035e-08
3.7169e-08
2.39617e-07
-6.57226e-07
6.75571e-07
-1.42786e-06
1.28053e-06
-2.17169e-06
2.05313e-06
-2.78687e-06
2.97174e-06
-3.17423e-06
3.98784e-06
-3.26021e-06
5.03265e-06
-3.00166e-06
6.05684e-06
-2.39961e-06
7.02983e-06
-1.47906e-06
7.89127e-06
-3.49996e-07
8.58182e-06
7.85923e-07
9.08481e-06
1.78705e-06
9.4072e-06
2.59363e-06
9.57263e-06
3.19201e-06
9.61631e-06
3.59664e-06
9.56693e-06
3.83707e-06
9.44141e-06
3.93922e-06
9.26219e-06
3.93531e-06
9.04703e-06
3.85734e-06
8.81679e-06
3.72572e-06
8.58472e-06
3.56566e-06
8.35894e-06
3.38912e-06
8.13484e-06
3.20803e-06
7.88631e-06
3.05031e-06
7.57791e-06
2.95297e-06
7.20458e-06
2.91854e-06
6.82147e-06
2.87999e-06
6.51373e-06
2.73543e-06
6.34652e-06
2.40515e-06
6.3294e-06
1.88101e-06
6.45905e-06
1.1866e-06
6.71035e-06
3.83712e-07
7.01933e-06
-4.1706e-07
7.34499e-06
-1.14324e-06
7.66162e-06
-1.76298e-06
7.95027e-06
-2.26342e-06
8.19884e-06
-2.64646e-06
8.40102e-06
-2.92429e-06
8.55459e-06
-3.11564e-06
8.66006e-06
-3.24308e-06
8.72052e-06
-3.3308e-06
8.7433e-06
-3.40054e-06
8.73829e-06
-3.46129e-06
8.71714e-06
-3.51303e-06
8.69238e-06
-3.54716e-06
8.67249e-06
-3.55052e-06
8.67524e-06
-3.47756e-06
8.71717e-06
-3.28185e-06
8.80133e-06
-2.95063e-06
8.92517e-06
-2.47882e-06
9.08065e-06
-1.88451e-06
9.25348e-06
-1.20778e-06
9.42361e-06
-5.08056e-07
9.57804e-06
1.57851e-07
9.70643e-06
7.56338e-07
9.80234e-06
1.2662e-06
9.86336e-06
1.67778e-06
9.89028e-06
1.99257e-06
9.88632e-06
2.21861e-06
9.85485e-06
2.36848e-06
9.79684e-06
2.45611e-06
9.71294e-06
2.4927e-06
9.60805e-06
2.49179e-06
9.48586e-06
2.47169e-06
9.34904e-06
2.44717e-06
9.20061e-06
2.42659e-06
9.04484e-06
2.4101e-06
8.88762e-06
2.38909e-06
8.73613e-06
2.34771e-06
8.59772e-06
2.26646e-06
8.47872e-06
2.12706e-06
8.38389e-06
1.91698e-06
8.31617e-06
1.6326e-06
8.27654e-06
1.28008e-06
8.26449e-06
8.73729e-07
8.27797e-06
4.33614e-07
8.31282e-06
-1.56869e-08
8.36457e-06
-4.51322e-07
8.42868e-06
-8.58735e-07
8.50028e-06
-1.22722e-06
8.57437e-06
-1.54992e-06
8.64632e-06
-1.82354e-06
8.71259e-06
-2.04838e-06
8.77077e-06
-2.22748e-06
8.81988e-06
-2.36478e-06
8.85957e-06
-2.46393e-06
8.88984e-06
-2.52902e-06
8.91084e-06
-2.56386e-06
8.92453e-06
-2.57299e-06
8.93463e-06
-2.55173e-06
8.94253e-06
-2.47949e-06
8.95248e-06
-2.36089e-06
8.9669e-06
-2.19113e-06
8.98715e-06
-1.96717e-06
9.01381e-06
-1.68922e-06
9.04684e-06
-1.36135e-06
-9.91619e-07
-3.70335e-07
8.27894e-07
-6.30812e-07
9.36124e-07
-8.60602e-07
1.10252e-06
-1.08803e-06
1.24548e-06
-1.31348e-06
1.26814e-06
-1.5012e-06
1.08941e-06
-1.5707e-06
6.32199e-07
-1.50445e-06
-2.90883e-08
-1.29266e-06
-8.69009e-07
-9.41412e-07
-1.77911e-06
-4.56309e-07
-2.65679e-06
1.65507e-07
-3.40868e-06
9.32793e-07
-3.94151e-06
1.84507e-06
-4.17249e-06
2.86868e-06
-4.02527e-06
3.94224e-06
-3.47317e-06
5.01261e-06
-2.54942e-06
6.02383e-06
-1.36121e-06
6.90524e-06
-9.54941e-08
7.6213e-06
1.07099e-06
8.16084e-06
2.05409e-06
8.53141e-06
2.82144e-06
8.75495e-06
3.3731e-06
8.86124e-06
3.73078e-06
8.87672e-06
3.92374e-06
8.81753e-06
3.9945e-06
8.69165e-06
3.98322e-06
8.51849e-06
3.89888e-06
8.32958e-06
3.75457e-06
8.13307e-06
3.58563e-06
7.91175e-06
3.42934e-06
7.63188e-06
3.33019e-06
7.28257e-06
3.30227e-06
6.91094e-06
3.29017e-06
6.59467e-06
3.19625e-06
6.39857e-06
2.93152e-06
6.34297e-06
2.46076e-06
6.44096e-06
1.78302e-06
6.67971e-06
9.4785e-07
6.99719e-06
6.62355e-08
7.34136e-06
-7.61229e-07
7.68062e-06
-1.4825e-06
7.99167e-06
-2.07404e-06
8.25967e-06
-2.53142e-06
8.47728e-06
-2.86407e-06
8.64301e-06
-3.09002e-06
8.75875e-06
-3.23137e-06
8.82766e-06
-3.312e-06
8.85322e-06
-3.35636e-06
8.83771e-06
-3.38503e-06
8.78783e-06
-3.41141e-06
8.71706e-06
-3.44226e-06
8.64072e-06
-3.47081e-06
8.56761e-06
-3.47741e-06
8.5141e-06
-3.42405e-06
8.49964e-06
-3.26739e-06
8.52946e-06
-2.98045e-06
8.60429e-06
-2.55365e-06
8.71914e-06
-1.99937e-06
8.86368e-06
-1.35232e-06
9.02013e-06
-6.64502e-07
9.17356e-06
4.41923e-09
9.31282e-06
6.17079e-07
9.42909e-06
1.14993e-06
9.51723e-06
1.58963e-06
9.57541e-06
1.93439e-06
9.60449e-06
2.18952e-06
9.60683e-06
2.36615e-06
9.5845e-06
2.47843e-06
9.53655e-06
2.54066e-06
9.46343e-06
2.56491e-06
9.36951e-06
2.5656e-06
9.25867e-06
2.558e-06
9.1352e-06
2.55006e-06
9.00446e-06
2.54085e-06
8.87282e-06
2.52073e-06
8.7473e-06
2.47322e-06
8.63465e-06
2.37911e-06
8.54053e-06
2.22118e-06
8.46909e-06
1.98842e-06
8.42256e-06
1.67913e-06
8.40149e-06
1.30115e-06
8.40501e-06
8.70213e-07
8.43086e-06
4.07761e-07
8.47431e-06
-5.91292e-08
8.53111e-06
-5.08128e-07
8.59669e-06
-9.24315e-07
8.66614e-06
-1.29667e-06
8.73458e-06
-1.61836e-06
8.79766e-06
-1.88663e-06
8.85199e-06
-2.10271e-06
8.89511e-06
-2.2706e-06
8.92605e-06
-2.39572e-06
8.94539e-06
-2.48327e-06
8.95477e-06
-2.53839e-06
8.9551e-06
-2.5642e-06
8.94549e-06
-2.56337e-06
8.92589e-06
-2.53213e-06
8.90513e-06
-2.45874e-06
8.88715e-06
-2.34291e-06
8.87464e-06
-2.17862e-06
8.86939e-06
-1.96193e-06
8.87258e-06
-1.69241e-06
8.88479e-06
-1.37356e-06
-1.0128e-06
-3.93287e-07
1.22118e-06
-7.87062e-07
1.3299e-06
-1.1644e-06
1.47986e-06
-1.50452e-06
1.5856e-06
-1.776e-06
1.53962e-06
-1.94558e-06
1.25899e-06
-2.00366e-06
6.90276e-07
-1.93906e-06
-9.3682e-08
-1.7533e-06
-1.05478e-06
-1.46668e-06
-2.06572e-06
-1.10387e-06
-3.0196e-06
-6.78661e-07
-3.83389e-06
-1.77234e-07
-4.44294e-06
4.37706e-07
-4.78743e-06
1.20903e-06
-4.7966e-06
2.12695e-06
-4.39109e-06
3.14297e-06
-3.56544e-06
4.19367e-06
-2.41191e-06
5.19256e-06
-1.09438e-06
6.07239e-06
1.91156e-07
6.79907e-06
1.32741e-06
7.36236e-06
2.25815e-06
7.76985e-06
2.96561e-06
8.04063e-06
3.45999e-06
8.19625e-06
3.76812e-06
8.25709e-06
3.93366e-06
8.24669e-06
3.99362e-06
8.16897e-06
3.97661e-06
8.04381e-06
3.87973e-06
7.87779e-06
3.75166e-06
7.64841e-06
3.65872e-06
7.34481e-06
3.63378e-06
7.00521e-06
3.64187e-06
6.6985e-06
3.59688e-06
6.48621e-06
3.40854e-06
6.40125e-06
3.01649e-06
6.47079e-06
2.39122e-06
6.69415e-06
1.55965e-06
7.01987e-06
6.22131e-07
7.38622e-06
-3.0011e-07
7.75175e-06
-1.12676e-06
8.08853e-06
-1.81928e-06
8.37827e-06
-2.36378e-06
8.61167e-06
-2.76482e-06
8.78667e-06
-3.03907e-06
8.9062e-06
-3.20954e-06
8.97657e-06
-3.30175e-06
9.00432e-06
-3.33975e-06
8.9917e-06
-3.34374e-06
8.93777e-06
-3.3311e-06
8.84986e-06
-3.3235e-06
8.73896e-06
-3.33137e-06
8.61778e-06
-3.34963e-06
8.49838e-06
-3.35801e-06
8.39621e-06
-3.32188e-06
8.32868e-06
-3.19986e-06
8.30622e-06
-2.95798e-06
8.33282e-06
-2.58026e-06
8.40649e-06
-2.07303e-06
8.51933e-06
-1.46516e-06
8.65714e-06
-8.02312e-07
8.80361e-06
-1.42054e-07
8.9472e-06
4.73488e-07
9.07771e-06
1.01942e-06
9.188e-06
1.47935e-06
9.27377e-06
1.84862e-06
9.33342e-06
2.12988e-06
9.36725e-06
2.33231e-06
9.37664e-06
2.46904e-06
9.3621e-06
2.55519e-06
9.32217e-06
2.60484e-06
9.25839e-06
2.62938e-06
9.1759e-06
2.6405e-06
9.08025e-06
2.64571e-06
8.97756e-06
2.64353e-06
8.8742e-06
2.62409e-06
8.777e-06
2.57042e-06
8.69241e-06
2.46371e-06
8.62554e-06
2.28805e-06
8.57966e-06
2.0343e-06
8.55621e-06
1.70258e-06
8.55526e-06
1.3021e-06
8.57558e-06
8.49901e-07
8.61419e-06
3.69147e-07
8.66616e-06
-1.11095e-07
8.72722e-06
-5.69193e-07
8.79275e-06
-9.89847e-07
8.85805e-06
-1.36197e-06
8.91873e-06
-1.67903e-06
8.97097e-06
-1.93888e-06
9.0118e-06
-2.14354e-06
9.03909e-06
-2.2979e-06
9.05197e-06
-2.4086e-06
9.05122e-06
-2.48252e-06
9.03759e-06
-2.52476e-06
9.01177e-06
-2.53838e-06
8.97451e-06
-2.52611e-06
8.92839e-06
-2.486e-06
8.88144e-06
-2.41179e-06
8.83704e-06
-2.29851e-06
8.79863e-06
-2.14021e-06
8.7688e-06
-1.9321e-06
8.7493e-06
-1.6729e-06
8.74121e-06
-1.36547e-06
-1.01661e-06
-3.56124e-07
-7.52794e-07
-1.11026e-06
-1.39909e-06
-1.61345e-06
-1.75291e-06
-1.78926e-06
-1.6971e-06
-1.47102e-06
-1.15919e-06
-8.25212e-07
-5.07548e-07
-2.03688e-07
9.73661e-08
4.72673e-07
1.0293e-06
1.79783e-06
2.72074e-06
3.69787e-06
4.63586e-06
5.47369e-06
6.18119e-06
6.74537e-06
7.16911e-06
7.46288e-06
7.64559e-06
7.74111e-06
7.76655e-06
7.715e-06
7.57288e-06
7.34258e-06
7.06268e-06
6.79208e-06
6.5894e-06
6.49391e-06
6.54379e-06
6.7543e-06
7.08815e-06
7.48125e-06
7.87871e-06
8.24622e-06
8.56106e-06
8.81192e-06
8.99632e-06
9.11832e-06
9.1861e-06
9.20851e-06
9.19073e-06
9.13382e-06
9.04307e-06
8.92351e-06
8.78086e-06
8.62423e-06
8.46561e-06
8.32005e-06
8.2045e-06
8.13318e-06
8.11365e-06
8.14661e-06
8.22655e-06
8.34216e-06
8.47716e-06
8.61941e-06
8.75811e-06
8.88458e-06
8.99271e-06
9.07868e-06
9.14085e-06
9.17896e-06
9.19378e-06
9.18558e-06
9.15388e-06
9.1024e-06
9.03759e-06
8.96606e-06
8.89323e-06
8.82664e-06
8.77259e-06
8.73529e-06
8.71702e-06
8.71852e-06
8.73918e-06
8.77723e-06
8.82881e-06
8.88876e-06
8.9528e-06
9.0164e-06
9.07528e-06
9.12569e-06
9.16454e-06
9.1896e-06
9.19953e-06
9.19382e-06
9.1721e-06
9.13368e-06
9.08023e-06
9.01541e-06
8.9438e-06
8.87104e-06
8.80134e-06
8.73835e-06
8.68523e-06
8.64426e-06
8.61696e-06
-1.33817e-06
-1.00385e-06
8.51148e-06
5.00259e-06
2.52684e-07
4.72919e-06
2.73398e-07
4.43517e-06
2.94022e-07
4.12148e-06
3.13692e-07
3.7898e-06
3.31679e-07
3.44259e-06
3.47208e-07
3.08381e-06
3.58779e-07
2.72272e-06
3.61094e-07
2.37235e-06
3.50365e-07
2.04227e-06
3.30081e-07
1.73692e-06
3.0535e-07
1.45719e-06
2.79733e-07
1.20269e-06
2.54496e-07
9.72642e-07
2.30052e-07
7.66227e-07
2.06415e-07
5.83155e-07
1.83072e-07
4.23903e-07
1.59253e-07
2.9008e-07
1.33822e-07
1.83978e-07
1.06103e-07
1.04701e-07
7.92766e-08
5.64632e-08
4.82379e-08
9.67453e-06
3.90611e-07
9.52189e-06
4.26036e-07
9.35446e-06
4.61447e-07
9.17199e-06
4.9617e-07
8.97455e-06
5.29114e-07
8.76299e-06
5.58766e-07
8.53815e-06
5.83618e-07
8.29671e-06
6.02538e-07
8.03274e-06
6.14333e-07
7.74458e-06
6.18246e-07
7.43452e-06
6.15405e-07
7.10608e-06
6.08179e-07
6.76238e-06
5.98194e-07
6.40606e-06
5.86373e-07
6.03919e-06
5.73281e-07
5.66299e-06
5.59271e-07
5.27784e-06
5.44403e-07
4.88291e-06
5.28756e-07
4.47601e-06
5.13001e-07
4.05872e-06
4.96565e-07
4.79176e-07
3.63601e-06
1.10981e-05
4.50038e-07
1.10311e-05
4.93019e-07
1.09568e-05
5.35811e-07
1.08753e-05
5.7761e-07
1.07871e-05
6.17359e-07
1.0692e-05
6.53891e-07
1.05895e-05
6.86121e-07
1.04789e-05
7.13073e-07
1.03592e-05
7.34056e-07
1.02284e-05
7.49028e-07
1.00852e-05
7.5863e-07
9.92927e-06
7.64101e-07
9.76064e-06
7.66827e-07
9.57922e-06
7.67796e-07
9.38478e-06
7.67717e-07
9.17695e-06
7.67104e-07
8.95491e-06
7.66439e-07
8.71745e-06
7.66222e-07
8.46356e-06
7.6689e-07
8.19062e-06
7.69506e-07
7.7446e-07
7.89534e-06
1.14906e-05
4.80282e-07
1.14561e-05
5.27503e-07
1.14178e-05
5.7405e-07
1.13762e-05
6.19231e-07
1.13318e-05
6.61796e-07
1.12849e-05
7.0078e-07
1.12354e-05
7.35604e-07
1.1183e-05
7.65511e-07
1.11268e-05
7.90185e-07
1.10661e-05
8.09763e-07
1.09999e-05
8.24825e-07
1.09277e-05
8.36342e-07
1.08491e-05
8.45441e-07
1.07638e-05
8.53067e-07
1.06715e-05
8.60041e-07
1.05713e-05
8.67309e-07
1.04623e-05
8.75368e-07
1.03442e-05
8.8438e-07
1.02162e-05
8.94864e-07
1.00782e-05
9.07485e-07
9.22547e-07
9.93013e-06
1.15975e-05
5.01742e-07
1.15724e-05
5.52529e-07
1.15443e-05
6.02201e-07
1.15136e-05
6.49915e-07
1.1481e-05
6.94354e-07
1.14472e-05
7.34619e-07
1.14126e-05
7.70255e-07
1.13774e-05
8.00689e-07
1.13415e-05
8.26044e-07
1.13046e-05
8.46636e-07
1.12664e-05
8.63077e-07
1.12263e-05
8.76393e-07
1.11842e-05
8.87563e-07
1.11399e-05
8.97411e-07
1.10931e-05
9.06859e-07
1.10433e-05
9.17022e-07
1.09904e-05
9.28351e-07
1.09338e-05
9.4092e-07
1.08735e-05
9.55198e-07
1.08093e-05
9.7166e-07
9.90568e-07
1.07413e-05
1.16625e-05
4.66144e-07
1.16425e-05
5.21652e-07
1.16186e-05
5.76518e-07
1.15909e-05
6.2983e-07
1.15606e-05
6.80245e-07
1.15285e-05
7.26493e-07
1.14953e-05
7.67755e-07
1.1462e-05
8.03609e-07
1.14289e-05
8.33764e-07
1.13963e-05
8.58606e-07
1.13644e-05
8.78542e-07
1.13331e-05
8.94454e-07
1.1302e-05
9.07442e-07
1.12712e-05
9.18375e-07
1.12401e-05
9.28455e-07
1.12085e-05
9.385e-07
1.11769e-05
9.48673e-07
1.11454e-05
9.59785e-07
1.11137e-05
9.72639e-07
1.10815e-05
9.87388e-07
1.1049e-05
1.00417e-06
1.02296e-06
1.10166e-05
1.17059e-05
4.81192e-07
1.16855e-05
5.42068e-07
1.16599e-05
6.02096e-07
1.16297e-05
6.60043e-07
1.15959e-05
7.1406e-07
1.15597e-05
7.62722e-07
1.15223e-05
8.05163e-07
1.14848e-05
8.41024e-07
1.14482e-05
8.70362e-07
1.14131e-05
8.93753e-07
1.13797e-05
9.11947e-07
1.13481e-05
9.26079e-07
1.13182e-05
9.3731e-07
1.12899e-05
9.46678e-07
1.12631e-05
9.55289e-07
1.12375e-05
9.64063e-07
1.12127e-05
9.73467e-07
1.11885e-05
9.83945e-07
1.11652e-05
9.95991e-07
1.11427e-05
1.00987e-06
1.11214e-05
1.02546e-06
1.04256e-06
1.11018e-05
1.17561e-05
4.95998e-07
1.17345e-05
5.63604e-07
1.17063e-05
6.30335e-07
1.16719e-05
6.94379e-07
1.16328e-05
7.53197e-07
1.15905e-05
8.0502e-07
1.15468e-05
8.48917e-07
1.15031e-05
8.84649e-07
1.14609e-05
9.12592e-07
1.1421e-05
9.33624e-07
1.1384e-05
9.48945e-07
1.13501e-05
9.59978e-07
1.13193e-05
9.6813e-07
1.12913e-05
9.74724e-07
1.12656e-05
9.80926e-07
1.1242e-05
9.87643e-07
1.12201e-05
9.95448e-07
1.11994e-05
1.00466e-06
1.11798e-05
1.01558e-06
1.11613e-05
1.02831e-06
1.11442e-05
1.04259e-06
1.058e-06
1.11288e-05
1.18151e-05
5.10153e-07
1.17924e-05
5.86338e-07
1.17608e-05
6.61896e-07
1.17211e-05
7.34082e-07
1.16751e-05
7.99267e-07
1.16249e-05
8.55161e-07
1.15731e-05
9.00767e-07
1.15217e-05
9.3605e-07
1.14725e-05
9.61781e-07
1.14268e-05
9.79326e-07
1.13853e-05
9.90418e-07
1.13484e-05
9.96917e-07
1.13159e-05
1.00064e-06
1.12874e-05
1.00322e-06
1.12623e-05
1.00599e-06
1.124e-05
1.00992e-06
1.12199e-05
1.01559e-06
1.12014e-05
1.02318e-06
1.1184e-05
1.03292e-06
1.11677e-05
1.04468e-06
1.11523e-05
1.05794e-06
1.07208e-06
1.11382e-05
1.18842e-05
5.22817e-07
1.18603e-05
6.10241e-07
1.18244e-05
6.97733e-07
1.17778e-05
7.80717e-07
1.17229e-05
8.5418e-07
1.16628e-05
9.15189e-07
1.16009e-05
9.62672e-07
1.15401e-05
9.96879e-07
1.14827e-05
1.01917e-06
1.14304e-05
1.03164e-06
1.13841e-05
1.03674e-06
1.1344e-05
1.03695e-06
1.13101e-05
1.03462e-06
1.12815e-05
1.0318e-06
1.12574e-05
1.03011e-06
1.12366e-05
1.03067e-06
1.12184e-05
1.03384e-06
1.12018e-05
1.03971e-06
1.11863e-05
1.04841e-06
1.11714e-05
1.05959e-06
1.1157e-05
1.07241e-06
1.08594e-06
1.11431e-05
1.19704e-05
5.32621e-07
1.19455e-05
6.35128e-07
1.19039e-05
7.39368e-07
1.18473e-05
8.3735e-07
1.17799e-05
9.21579e-07
1.17064e-05
9.88661e-07
1.16313e-05
1.03773e-06
1.15586e-05
1.06958e-06
1.14913e-05
1.0865e-06
1.14313e-05
1.09163e-06
1.13797e-05
1.08839e-06
1.13366e-05
1.08008e-06
1.13015e-05
1.0697e-06
1.12734e-05
1.05983e-06
1.12511e-05
1.05248e-06
1.12328e-05
1.04896e-06
1.12172e-05
1.04942e-06
1.12032e-05
1.05372e-06
1.11898e-05
1.06186e-06
1.11761e-05
1.07321e-06
1.11619e-05
1.0866e-06
1.10057e-06
1.11473e-05
1.20871e-05
5.36892e-07
1.20612e-05
6.61077e-07
1.20123e-05
7.88257e-07
1.19429e-05
9.06732e-07
1.18587e-05
1.00578e-06
1.17667e-05
1.08068e-06
1.16736e-05
1.13081e-06
1.1585e-05
1.15819e-06
1.15047e-05
1.16681e-06
1.1435e-05
1.16131e-06
1.13769e-05
1.14647e-06
1.13304e-05
1.12664e-06
1.12943e-05
1.10571e-06
1.12674e-05
1.08676e-06
1.12478e-05
1.0721e-06
1.12331e-05
1.06366e-06
1.12209e-05
1.06165e-06
1.12099e-05
1.06471e-06
1.11988e-05
1.07296e-06
1.11864e-05
1.08554e-06
1.11722e-05
1.10086e-06
1.11689e-06
1.11559e-05
1.21942e-05
5.33087e-07
1.21718e-05
6.83514e-07
1.21184e-05
8.41633e-07
1.20364e-05
9.88694e-07
1.19352e-05
1.10702e-06
1.18244e-05
1.19149e-06
1.17128e-05
1.24235e-06
1.16083e-05
1.26278e-06
1.15156e-05
1.25951e-06
1.14374e-05
1.23949e-06
1.13743e-05
1.2096e-06
1.1326e-05
1.17489e-06
1.1291e-05
1.14072e-06
1.12669e-05
1.11088e-06
1.12515e-05
1.0875e-06
1.12424e-05
1.07275e-06
1.12359e-05
1.06812e-06
1.12301e-05
1.07055e-06
1.12229e-05
1.08018e-06
1.12126e-05
1.09583e-06
1.11983e-05
1.11515e-06
1.13543e-06
1.11797e-05
1.21781e-05
5.20697e-07
1.21545e-05
7.07177e-07
1.20972e-05
8.98887e-07
1.20117e-05
1.07422e-06
1.19003e-05
1.21843e-06
1.17759e-05
1.31584e-06
1.16541e-05
1.36422e-06
1.15428e-05
1.37409e-06
1.14465e-05
1.35579e-06
1.13681e-05
1.3179e-06
1.13087e-05
1.26901e-06
1.12675e-05
1.21604e-06
1.1242e-05
1.16622e-06
1.12289e-05
1.12399e-06
1.12245e-05
1.09184e-06
1.12252e-05
1.07213e-06
1.12278e-05
1.06553e-06
1.12295e-05
1.06878e-06
1.12286e-05
1.08107e-06
1.12238e-05
1.10068e-06
1.12129e-05
1.12605e-06
1.15408e-06
1.11942e-05
1.17994e-05
4.47824e-07
1.18213e-05
6.85316e-07
1.17833e-05
9.36843e-07
1.17021e-05
1.15548e-06
1.15944e-05
1.32608e-06
1.14745e-05
1.43576e-06
1.1363e-05
1.47575e-06
1.12655e-05
1.47153e-06
1.11854e-05
1.4359e-06
1.11268e-05
1.37655e-06
1.10902e-05
1.30558e-06
1.10734e-05
1.23279e-06
1.10736e-05
1.1661e-06
1.10862e-05
1.11137e-06
1.11061e-05
1.07195e-06
1.11294e-05
1.04876e-06
1.1154e-05
1.04098e-06
1.11751e-05
1.04767e-06
1.11894e-05
1.06678e-06
1.11944e-05
1.09566e-06
1.11887e-05
1.13179e-06
1.17106e-06
1.11717e-05
1.03552e-05
2.87908e-07
1.04842e-05
5.56372e-07
1.05582e-05
8.62803e-07
1.0577e-05
1.13672e-06
1.05579e-05
1.34512e-06
1.05208e-05
1.47291e-06
1.0486e-05
1.51056e-06
1.0462e-05
1.49548e-06
1.04535e-05
1.44444e-06
1.04618e-05
1.36827e-06
1.04882e-05
1.27915e-06
1.05313e-05
1.18969e-06
1.05877e-05
1.10968e-06
1.06532e-05
1.04587e-06
1.07239e-05
1.00122e-06
1.07963e-05
9.76417e-07
1.0866e-05
9.71294e-07
1.0929e-05
9.84661e-07
1.09819e-05
1.01386e-06
1.10208e-05
1.05673e-06
1.1042e-05
1.11061e-06
1.16967e-06
1.10434e-05
6.879e-06
-2.43445e-08
7.19967e-06
2.35695e-07
7.50061e-06
5.61862e-07
7.75584e-06
8.81497e-07
7.97017e-06
1.13079e-06
8.15907e-06
1.28401e-06
8.33236e-06
1.33727e-06
8.50087e-06
1.32697e-06
8.67001e-06
1.27529e-06
8.84011e-06
1.19817e-06
9.01199e-06
1.10727e-06
9.18429e-06
1.01739e-06
9.35476e-06
9.39208e-07
9.52197e-06
8.78666e-07
9.68425e-06
8.38941e-07
9.84005e-06
8.20614e-07
9.98883e-06
8.22516e-07
1.01297e-05
8.43822e-07
1.02602e-05
8.83364e-07
1.03761e-05
9.40822e-07
1.04704e-05
1.01623e-06
1.10372e-06
1.05364e-05
2.79759e-06
-3.05701e-07
3.10273e-06
-6.94432e-08
3.4555e-06
2.09087e-07
3.83589e-06
5.01105e-07
4.23028e-06
7.36406e-07
4.62557e-06
8.88715e-07
5.0098e-06
9.5304e-07
5.38351e-06
9.53256e-07
5.74585e-06
9.12955e-07
6.09513e-06
8.48892e-07
6.42728e-06
7.75122e-07
6.74082e-06
7.03855e-07
7.03682e-06
6.43209e-07
7.31692e-06
5.98557e-07
7.58301e-06
5.72853e-07
7.83723e-06
5.664e-07
8.08207e-06
5.77676e-07
8.32004e-06
6.05848e-07
8.55217e-06
6.51231e-07
8.77711e-06
7.15891e-07
8.98722e-06
8.06113e-07
9.21452e-07
9.1695e-06
-9.59668e-07
-2.86713e-07
-8.60127e-07
-1.68984e-07
-6.53708e-07
2.66839e-09
-2.99353e-07
1.46751e-07
1.37394e-07
2.99658e-07
6.25615e-07
4.00494e-07
1.13772e-06
4.40935e-07
1.64502e-06
4.45953e-07
2.13354e-06
4.24441e-07
2.59382e-06
3.88605e-07
3.01861e-06
3.50332e-07
3.40714e-06
3.15328e-07
3.76468e-06
2.85673e-07
4.09759e-06
2.65648e-07
4.4128e-06
2.57636e-07
4.71958e-06
2.59622e-07
5.02579e-06
2.71468e-07
5.33799e-06
2.9365e-07
5.66224e-06
3.26978e-07
6.00238e-06
3.75753e-07
6.35601e-06
4.52484e-07
5.71603e-07
6.70586e-06
-2.82374e-06
-2.99272e-06
-2.99005e-06
-2.8433e-06
-2.54364e-06
-2.14315e-06
-1.70222e-06
-1.25626e-06
-8.31821e-07
-4.43216e-07
-9.28844e-08
2.22443e-07
5.08117e-07
7.73765e-07
1.0314e-06
1.29102e-06
1.56249e-06
1.85614e-06
2.18312e-06
2.55887e-06
3.01136e-06
3.58296e-06
9.83416e-09
3.84038e-08
-1.60795e-08
2.59137e-08
-3.43577e-08
1.82782e-08
-4.95048e-08
1.51471e-08
-6.4355e-08
1.48502e-08
-8.5445e-08
2.109e-08
-1.20235e-07
3.47903e-08
-1.69342e-07
4.91067e-08
-2.2422e-07
5.48781e-08
-2.79263e-07
5.50433e-08
-3.29784e-07
5.0521e-08
-3.69867e-07
4.00829e-08
-3.97136e-07
2.72689e-08
-4.09994e-07
1.2858e-08
-4.07552e-07
-2.44168e-09
-3.93466e-07
-1.40863e-08
-3.72411e-07
-2.10547e-08
-3.55117e-07
-1.72943e-08
-3.50905e-07
-4.21224e-09
-3.66784e-07
1.58791e-08
-4.0815e-07
4.13662e-08
-4.78797e-07
7.06469e-08
-5.76739e-07
9.79419e-08
-6.91629e-07
1.1489e-07
-8.0759e-07
1.15961e-07
-9.07069e-07
9.94791e-08
-9.79146e-07
7.20775e-08
-1.01929e-06
4.01412e-08
-1.02671e-06
7.41949e-09
-1.00519e-06
-2.15126e-08
-9.52593e-07
-5.26012e-08
-8.67192e-07
-8.54007e-08
-7.50272e-07
-1.1692e-07
-6.09021e-07
-1.41252e-07
-4.57355e-07
-1.51665e-07
-3.14021e-07
-1.43335e-07
-1.99586e-07
-1.14435e-07
-1.31824e-07
-6.77618e-08
-1.22964e-07
-8.86011e-09
-1.67529e-07
4.45653e-08
-2.65814e-07
9.82849e-08
-4.0751e-07
1.41696e-07
-5.77493e-07
1.69983e-07
-7.57058e-07
1.79564e-07
-9.23795e-07
1.66738e-07
-1.05587e-06
1.32072e-07
-1.13544e-06
7.95709e-08
-1.14987e-06
1.44308e-08
-1.10439e-06
-4.54766e-08
-9.97396e-07
-1.06997e-07
-8.39303e-07
-1.58092e-07
-6.50994e-07
-1.88309e-07
-4.58048e-07
-1.92946e-07
-2.87423e-07
-1.70625e-07
-1.65451e-07
-1.21972e-07
-1.14735e-07
-5.07155e-08
-1.41298e-07
2.65624e-08
-2.49088e-07
1.0779e-07
-4.30657e-07
1.81569e-07
-6.65084e-07
2.34427e-07
-9.22432e-07
2.57348e-07
-1.1687e-06
2.46268e-07
-1.36889e-06
2.00186e-07
-1.49417e-06
1.25282e-07
-1.52623e-06
3.20634e-08
-1.48008e-06
-4.61519e-08
-1.36169e-06
-1.18394e-07
-1.18942e-06
-1.72265e-07
-9.87768e-07
-2.01653e-07
-7.80761e-07
-2.07007e-07
-5.87905e-07
-1.92856e-07
-4.23143e-07
-1.64762e-07
-2.95559e-07
-1.27584e-07
-2.09052e-07
-8.65075e-08
-1.62541e-07
-4.65107e-08
-1.51122e-07
-1.14186e-08
-1.65137e-07
1.40146e-08
-1.97553e-07
3.2416e-08
-2.38861e-07
4.13084e-08
-2.80232e-07
4.13704e-08
-3.12857e-07
3.26255e-08
-3.29247e-07
1.63894e-08
-3.27582e-07
-1.66421e-09
-3.07695e-07
-1.9887e-08
-2.69169e-07
-3.85263e-08
-2.14812e-07
-5.4357e-08
-1.49071e-07
-6.57411e-08
-7.66334e-08
-7.24375e-08
-1.81907e-09
-7.48143e-08
7.16931e-08
-7.35121e-08
1.40984e-07
-6.92909e-08
2.03493e-07
-6.25093e-08
2.56754e-07
-5.32612e-08
2.98705e-07
-4.19502e-08
3.28338e-07
-2.96333e-08
3.45777e-07
-1.74389e-08
3.52033e-07
-6.25607e-09
3.49464e-07
2.56868e-09
3.40248e-07
9.21644e-09
3.27248e-07
1.30001e-08
3.13344e-07
1.39035e-08
3.01301e-07
1.20432e-08
2.93673e-07
7.62818e-09
2.91989e-07
1.6839e-09
-3.93334e-09
3.21228e-06
4.62133e-07
2.793e-06
4.45192e-07
2.3835e-06
4.2778e-07
1.99067e-06
4.07974e-07
1.62023e-06
3.85289e-07
1.28615e-06
3.55171e-07
1.00275e-06
3.18192e-07
7.71258e-07
2.80596e-07
5.79204e-07
2.46932e-07
4.1445e-07
2.19798e-07
2.68864e-07
1.96107e-07
1.36823e-07
1.72123e-07
1.76143e-08
1.46478e-07
-8.59113e-08
1.16384e-07
-1.69406e-07
8.10527e-08
-2.28381e-07
4.4889e-08
-2.66663e-07
1.72275e-08
-2.93942e-07
9.9847e-09
-3.21827e-07
2.36727e-08
-3.64827e-07
5.88786e-08
-4.29563e-07
1.06102e-07
-5.20273e-07
1.61357e-07
-6.36733e-07
2.14402e-07
-7.68159e-07
2.46315e-07
-8.98961e-07
2.46763e-07
-1.00621e-06
2.06732e-07
-1.08071e-06
1.46573e-07
-1.11827e-06
7.77022e-08
-1.11935e-06
8.50403e-09
-1.09697e-06
-4.39015e-08
-1.04331e-06
-1.06253e-07
-9.56984e-07
-1.71731e-07
-8.4071e-07
-2.33194e-07
-7.02328e-07
-2.79634e-07
-5.53753e-07
-3.0024e-07
-4.13694e-07
-2.83394e-07
-3.01471e-07
-2.26658e-07
-2.36492e-07
-1.3274e-07
-2.29281e-07
-1.60719e-08
-2.74922e-07
9.02066e-08
-3.75806e-07
1.99169e-07
-5.17139e-07
2.83029e-07
-6.80765e-07
3.33609e-07
-8.501e-07
3.48899e-07
-1.00325e-06
3.19891e-07
-1.1214e-06
2.50218e-07
-1.1847e-06
1.42873e-07
-1.17806e-06
7.79125e-09
-1.11195e-06
-1.11589e-07
-9.84933e-07
-2.34014e-07
-8.105e-07
-3.32525e-07
-6.12294e-07
-3.86515e-07
-4.09748e-07
-3.95492e-07
-2.24482e-07
-3.55891e-07
-8.32561e-08
-2.63198e-07
-9.11976e-09
-1.24852e-07
-1.20663e-08
2.9509e-08
-9.68709e-08
1.92595e-07
-2.54339e-07
3.39037e-07
-4.62111e-07
4.42199e-07
-6.92396e-07
4.87633e-07
-9.09006e-07
4.62878e-07
-1.06829e-06
3.59473e-07
-1.1375e-06
1.94488e-07
-1.11258e-06
7.14328e-09
-1.011e-06
-1.47734e-07
-8.46048e-07
-2.83342e-07
-6.43189e-07
-3.75124e-07
-4.24159e-07
-4.20683e-07
-2.05885e-07
-4.2528e-07
-2.13763e-09
-3.96604e-07
1.73653e-07
-3.40553e-07
3.12471e-07
-2.66402e-07
4.11549e-07
-1.85585e-07
4.73237e-07
-1.08199e-07
5.0325e-07
-4.14322e-08
5.11001e-07
6.26411e-09
5.0476e-07
3.86571e-08
4.91945e-07
5.41233e-08
4.79256e-07
5.40597e-08
4.74766e-07
3.71154e-08
4.85671e-07
5.48466e-09
5.1156e-07
-2.75538e-08
5.56904e-07
-6.52304e-08
6.19114e-07
-1.00737e-07
6.94526e-07
-1.29769e-07
7.78854e-07
-1.5007e-07
8.67888e-07
-1.61472e-07
9.5791e-07
-1.64836e-07
1.04576e-06
-1.61366e-07
1.12873e-06
-1.52255e-07
1.20445e-06
-1.38234e-07
1.27068e-06
-1.1949e-07
1.32543e-06
-9.66936e-08
1.36807e-06
-7.22814e-08
1.39907e-06
-4.84391e-08
1.4198e-06
-2.69861e-08
1.43175e-06
-9.37822e-09
1.43813e-06
2.83423e-09
1.44107e-06
1.00665e-08
1.44308e-06
1.18942e-08
1.44646e-06
8.65479e-09
1.45341e-06
6.77427e-10
1.46406e-06
-8.96536e-09
-2.07924e-08
7.57623e-06
7.81244e-07
7.23253e-06
7.88884e-07
6.86438e-06
7.95932e-07
6.47206e-06
8.00297e-07
6.05738e-06
7.99963e-07
5.61958e-06
7.92971e-07
5.15963e-06
7.78142e-07
4.6844e-06
7.5583e-07
4.20691e-06
7.24422e-07
3.74284e-06
6.83873e-07
3.30132e-06
6.37626e-07
2.88558e-06
5.87864e-07
2.49658e-06
5.35474e-07
2.13179e-06
4.81171e-07
1.78738e-06
4.25463e-07
1.46271e-06
3.69558e-07
1.16417e-06
3.15767e-07
9.04792e-07
2.69367e-07
6.91965e-07
2.36499e-07
5.24635e-07
2.26209e-07
3.88569e-07
2.42168e-07
2.65251e-07
2.84676e-07
1.39912e-07
3.39741e-07
9.04359e-09
3.77184e-07
-1.11533e-07
3.6734e-07
-2.17954e-07
3.13152e-07
-2.94411e-07
2.23031e-07
-3.37364e-07
1.20655e-07
-3.51347e-07
2.24872e-08
-3.40802e-07
-5.44464e-08
-3.10545e-07
-1.3651e-07
-2.58088e-07
-2.24187e-07
-1.81345e-07
-3.09937e-07
-8.26171e-08
-3.78363e-07
2.87082e-08
-4.11565e-07
1.47612e-07
-4.02298e-07
2.59096e-07
-3.38141e-07
3.38206e-07
-2.11851e-07
3.70568e-07