/*--------------------------------*- C++ -*----------------------------------*\
| =========                 |                                                 |
| \\      /  F ield         | OpenFOAM: The Open Source CFD Toolbox           |
|  \\    /   O peration     | Version:  2206                                  |
|   \\  /    A nd           | Website:  www.openfoam.com                      |
|    \\/     M anipulation  |                                                 |
\*---------------------------------------------------------------------------*/
FoamFile
{
    version     2.0;
    format      ascii;
    arch        "LSB;label=32;scalar=64";
    class       volVectorField;
    location    "18.2001";
    object      U_0;
}
// * * * * * * * * * * * * * * * * * * * * * * * * * * * * * * * * * * * * * //

dimensions      [0 1 -1 0 0 0 0];

internalField   nonuniform List<vector> 
3062
(
(0.122469 0.0854166 0)
(0.097852 0.143602 0)
(0.150746 0.198788 0)
(0.185816 0.227294 0)
(0.208032 0.230433 0)
(0.233031 0.205618 0)
(0.268739 0.150523 0)
(0.319428 0.0683357 0)
(0.391422 -0.0322794 0)
(0.488696 -0.141979 0)
(0.611637 -0.244342 0)
(0.761535 -0.321489 0)
(0.934122 -0.360559 0)
(1.11957 -0.35474 0)
(1.309 -0.298766 0)
(1.49943 -0.185089 0)
(1.68884 -0.0136853 0)
(1.85102 0.178059 0)
(1.96924 0.352991 0)
(2.04371 0.495946 0)
(2.07996 0.603143 0)
(2.08687 0.676467 0)
(2.07228 0.721972 0)
(2.0392 0.743848 0)
(1.99465 0.743428 0)
(1.94403 0.727943 0)
(1.89097 0.703551 0)
(1.83804 0.673861 0)
(1.78648 0.641806 0)
(1.73653 0.608742 0)
(1.68882 0.573938 0)
(1.6434 0.536778 0)
(1.59655 0.500767 0)
(1.54014 0.473504 0)
(1.46842 0.459248 0)
(1.38839 0.449393 0)
(1.31777 0.423916 0)
(1.27327 0.365121 0)
(1.26376 0.27097 0)
(1.28084 0.147512 0)
(1.328 0.00703096 0)
(1.38599 -0.132182 0)
(1.44803 -0.257934 0)
(1.50942 -0.36561 0)
(1.56636 -0.453645 0)
(1.61633 -0.522745 0)
(1.65784 -0.575392 0)
(1.69034 -0.615247 0)
(1.71406 -0.646248 0)
(1.73008 -0.671322 0)
(1.74013 -0.691304 0)
(1.74604 -0.7058 0)
(1.75028 -0.713472 0)
(1.75575 -0.712912 0)
(1.76574 -0.691481 0)
(1.78278 -0.64083 0)
(1.80728 -0.56211 0)
(1.83902 -0.456169 0)
(1.87656 -0.328269 0)
(1.9167 -0.188464 0)
(1.95487 -0.0500916 0)
(1.98799 0.0776805 0)
(2.0141 0.188966 0)
(2.03213 0.280737 0)
(2.04185 0.35229 0)
(2.0438 0.404855 0)
(2.03901 0.440665 0)
(2.02827 0.46233 0)
(2.01128 0.471885 0)
(1.9897 0.471562 0)
(1.96435 0.465301 0)
(1.93604 0.456273 0)
(1.90521 0.447102 0)
(1.87209 0.439559 0)
(1.83712 0.434067 0)
(1.8011 0.429395 0)
(1.76532 0.422795 0)
(1.73121 0.410461 0)
(1.70048 0.388451 0)
(1.67444 0.35375 0)
(1.654 0.3051 0)
(1.63965 0.243155 0)
(1.63148 0.170294 0)
(1.62924 0.0900792 0)
(1.63234 0.00680017 0)
(1.63988 -0.0750942 0)
(1.65092 -0.152702 0)
(1.66454 -0.22398 0)
(1.67978 -0.287593 0)
(1.69572 -0.342796 0)
(1.71149 -0.389294 0)
(1.7265 -0.427344 0)
(1.74036 -0.457375 0)
(1.75281 -0.479967 0)
(1.7636 -0.495825 0)
(1.77246 -0.505685 0)
(1.78011 -0.509773 0)
(1.78755 -0.505839 0)
(1.79491 -0.492016 0)
(1.8024 -0.467746 0)
(1.81039 -0.432519 0)
(1.81919 -0.386057 0)
(1.82888 -0.328652 0)
(1.83939 -0.261305 0)
(1.85053 -0.185798 0)
(-0.0310639 0.0261511 0)
(-0.0762945 0.113741 0)
(-0.071331 0.165053 0)
(-0.0670313 0.195042 0)
(-0.0608984 0.200414 0)
(-0.0547454 0.173583 0)
(-0.0446304 0.111537 0)
(-0.0242786 0.0160709 0)
(0.0152531 -0.106989 0)
(0.0836369 -0.244563 0)
(0.186012 -0.376233 0)
(0.322892 -0.481953 0)
(0.492506 -0.543533 0)
(0.688551 -0.548472 0)
(0.898014 -0.491843 0)
(1.10742 -0.373127 0)
(1.31165 -0.195574 0)
(1.50203 0.020721 0)
(1.65868 0.233232 0)
(1.77763 0.416689 0)
(1.8589 0.560591 0)
(1.90579 0.664174 0)
(1.92452 0.731641 0)
(1.92314 0.769201 0)
(1.90405 0.78097 0)
(1.87231 0.773869 0)
(1.832 0.752557 0)
(1.78667 0.723911 0)
(1.73982 0.691396 0)
(1.69382 0.656425 0)
(1.64962 0.619504 0)
(1.6043 0.583823 0)
(1.55023 0.556902 0)
(1.48074 0.544301 0)
(1.40046 0.538993 0)
(1.3272 0.521014 0)
(1.2769 0.470017 0)
(1.26181 0.38007 0)
(1.26988 0.255145 0)
(1.31301 0.105297 0)
(1.37191 -0.0508558 0)
(1.43665 -0.195406 0)
(1.50193 -0.32112 0)
(1.56317 -0.42471 0)
(1.61727 -0.505827 0)
(1.66249 -0.566324 0)
(1.69804 -0.609561 0)
(1.72379 -0.639852 0)
(1.74019 -0.661934 0)
(1.7482 -0.679793 0)
(1.74929 -0.695243 0)
(1.74617 -0.707692 0)
(1.74073 -0.714726 0)
(1.73565 -0.715108 0)
(1.7329 -0.698663 0)
(1.73674 -0.655122 0)
(1.74932 -0.584387 0)
(1.77048 -0.485736 0)
(1.79913 -0.363266 0)
(1.8331 -0.225468 0)
(1.86842 -0.0851293 0)
(1.90155 0.0471532 0)
(1.93024 0.164814 0)
(1.95286 0.26398 0)
(1.96853 0.343113 0)
(1.97713 0.402827 0)
(1.97918 0.444988 0)
(1.97564 0.472138 0)
(1.96662 0.487187 0)
(1.95204 0.491859 0)
(1.93304 0.489299 0)
(1.91019 0.483367 0)
(1.88415 0.47688 0)
(1.85545 0.471543 0)
(1.82476 0.467511 0)
(1.7931 0.463195 0)
(1.76182 0.455526 0)
(1.73244 0.440591 0)
(1.70638 0.414605 0)
(1.6848 0.374925 0)
(1.66847 0.320659 0)
(1.65776 0.252828 0)
(1.65272 0.174172 0)
(1.65307 0.0885678 0)
(1.65818 0.000666765 0)
(1.6671 -0.084914 0)
(1.67893 -0.165305 0)
(1.69274 -0.238409 0)
(1.70756 -0.302868 0)
(1.72236 -0.357958 0)
(1.73631 -0.403655 0)
(1.74884 -0.440459 0)
(1.75958 -0.468937 0)
(1.76845 -0.489755 0)
(1.77547 -0.503679 0)
(1.78046 -0.511413 0)
(1.7838 -0.513834 0)
(1.78608 -0.510789 0)
(1.78763 -0.496648 0)
(1.78925 -0.472629 0)
(1.79157 -0.438143 0)
(1.79498 -0.392679 0)
(1.79966 -0.336338 0)
(1.80566 -0.269984 0)
(1.81292 -0.195294 0)
(-0.0402137 0.127543 0)
(-0.104961 0.151856 0)
(-0.148281 0.186295 0)
(-0.193372 0.215073 0)
(-0.238205 0.221527 0)
(-0.281277 0.190887 0)
(-0.309729 0.112784 0)
(-0.312377 -0.0107278 0)
(-0.28385 -0.165912 0)
(-0.228055 -0.333991 0)
(-0.145526 -0.496127 0)
(-0.0371866 -0.633216 0)
(0.0992817 -0.724962 0)
(0.266583 -0.754719 0)
(0.461956 -0.710455 0)
(0.675953 -0.590371 0)
(0.895646 -0.40183 0)
(1.11064 -0.166698 0)
(1.30324 0.0755431 0)
(1.4633 0.29413 0)
(1.5884 0.474149 0)
(1.67815 0.61086 0)
(1.73587 0.705794 0)
(1.76715 0.764336 0)
(1.77767 0.793349 0)
(1.77321 0.799488 0)
(1.75361 0.790047 0)
(1.72233 0.765746 0)
(1.68504 0.73444 0)
(1.64661 0.698904 0)
(1.60648 0.663423 0)
(1.55824 0.636056 0)
(1.49437 0.623944 0)
(1.41798 0.622309 0)
(1.34565 0.612087 0)
(1.29083 0.57221 0)
(1.26786 0.491935 0)
(1.26902 0.37168 0)
(1.30661 0.217704 0)
(1.36584 0.0473844 0)
(1.43388 -0.116762 0)
(1.50351 -0.262599 0)
(1.5694 -0.38462 0)
(1.62775 -0.481067 0)
(1.67644 -0.553057 0)
(1.71467 -0.603614 0)
(1.74262 -0.636878 0)
(1.76084 -0.657524 0)
(1.77024 -0.670432 0)
(1.77119 -0.680416 0)
(1.76398 -0.689299 0)
(1.7512 -0.697711 0)
(1.73582 -0.704333 0)
(1.71999 -0.705038 0)
(1.70644 -0.69223 0)
(1.6989 -0.657407 0)
(1.70019 -0.595601 0)
(1.71085 -0.505515 0)
(1.73036 -0.390277 0)
(1.7572 -0.257439 0)
(1.78839 -0.117922 0)
(1.82011 0.0160899 0)
(1.84989 0.137778 0)
(1.87577 0.242514 0)
(1.89633 0.327983 0)
(1.91092 0.394186 0)
(1.91948 0.442428 0)
(1.92246 0.475079 0)
(1.92054 0.494986 0)
(1.91344 0.505109 0)
(1.90108 0.507304 0)
(1.88424 0.505155 0)
(1.86357 0.501833 0)
(1.83989 0.498939 0)
(1.81416 0.496379 0)
(1.78755 0.49229 0)
(1.76144 0.483403 0)
(1.73726 0.465829 0)
(1.7163 0.43603 0)
(1.69959 0.391667 0)
(1.68774 0.332171 0)
(1.68103 0.258978 0)
(1.67942 0.17508 0)
(1.6826 0.0846479 0)
(1.68981 -0.00715715 0)
(1.70009 -0.0958048 0)
(1.71257 -0.178351 0)
(1.72632 -0.252617 0)
(1.74033 -0.317212 0)
(1.75367 -0.371544 0)
(1.76554 -0.415761 0)
(1.77536 -0.450596 0)
(1.78277 -0.477037 0)
(1.78772 -0.495856 0)
(1.79051 -0.507933 0)
(1.79153 -0.513989 0)
(1.79052 -0.515149 0)
(1.7874 -0.509926 0)
(1.783 -0.495132 0)
(1.77892 -0.4717 0)
(1.77576 -0.438268 0)
(1.77389 -0.394124 0)
(1.77364 -0.339274 0)
(1.77518 -0.274476 0)
(1.77857 -0.201274 0)
(-0.0360681 0.20336 0)
(-0.119373 0.221949 0)
(-0.196194 0.254647 0)
(-0.269948 0.281076 0)
(-0.333512 0.277861 0)
(-0.377271 0.230568 0)
(-0.398651 0.127987 0)
(-0.398891 -0.0214249 0)
(-0.372141 -0.204393 0)
(-0.323907 -0.399645 0)
(-0.257913 -0.585992 0)
(-0.179982 -0.744605 0)
(-0.0904563 -0.859218 0)
(0.016949 -0.915892 0)
(0.151891 -0.8962 0)
(0.321954 -0.79467 0)
(0.521733 -0.615002 0)
(0.734784 -0.376714 0)
(0.945745 -0.114584 0)
(1.13572 0.132737 0)
(1.29682 0.346058 0)
(1.42539 0.516518 0)
(1.52129 0.642448 0)
(1.58764 0.727051 0)
(1.62903 0.775387 0)
(1.64953 0.797478 0)
(1.65366 0.802784 0)
(1.64431 0.793431 0)
(1.62301 0.766872 0)
(1.59452 0.734882 0)
(1.55654 0.707793 0)
(1.50275 0.695307 0)
(1.43456 0.695892 0)
(1.36683 0.692826 0)
(1.31161 0.665738 0)
(1.28153 0.59996 0)
(1.27783 0.491002 0)
(1.30969 0.339457 0)
(1.36835 0.160401 0)
(1.44032 -0.0219001 0)
(1.51516 -0.188569 0)
(1.58645 -0.33104 0)
(1.64966 -0.445474 0)
(1.70213 -0.531849 0)
(1.74283 -0.592808 0)
(1.77198 -0.63256 0)
(1.79056 -0.655709 0)
(1.80003 -0.667197 0)
(1.80179 -0.671865 0)
(1.7949 -0.67334 0)
(1.78022 -0.675021 0)
(1.75976 -0.678957 0)
(1.73587 -0.683854 0)
(1.71104 -0.685564 0)
(1.68786 -0.676833 0)
(1.67013 -0.649172 0)
(1.6607 -0.596203 0)
(1.66109 -0.515553 0)
(1.67151 -0.409081 0)
(1.6909 -0.283134 0)
(1.71696 -0.147548 0)
(1.74622 -0.0140861 0)
(1.77578 0.109223 0)
(1.80361 0.217562 0)
(1.82794 0.307929 0)
(1.84763 0.379602 0)
(1.86214 0.433412 0)
(1.87137 0.471401 0)
(1.87562 0.496235 0)
(1.87525 0.510964 0)
(1.86968 0.518606 0)
(1.8591 0.521014 0)
(1.84424 0.521261 0)
(1.82612 0.520968 0)
(1.80595 0.51983 0)
(1.78498 0.515869 0)
(1.76455 0.505732 0)
(1.74602 0.485632 0)
(1.73064 0.452247 0)
(1.71925 0.4035 0)
(1.7123 0.339258 0)
(1.70993 0.261251 0)
(1.71204 0.172768 0)
(1.71821 0.0782193 0)
(1.72755 -0.0167048 0)
(1.73911 -0.107633 0)
(1.75201 -0.191539 0)
(1.76532 -0.266188 0)
(1.77811 -0.330239 0)
(1.78956 -0.383194 0)
(1.79898 -0.42539 0)
(1.80585 -0.457697 0)
(1.80985 -0.481328 0)
(1.811 -0.497559 0)
(1.80966 -0.507414 0)
(1.8055 -0.511676 0)
(1.79908 -0.510306 0)
(1.79052 -0.502878 0)
(1.78091 -0.48825 0)
(1.77152 -0.465355 0)
(1.7631 -0.433088 0)
(1.75616 -0.390552 0)
(1.75115 -0.33758 0)
(1.74836 -0.274832 0)
(1.74796 -0.203725 0)
(-0.029745 0.278558 0)
(-0.112471 0.304331 0)
(-0.190778 0.329805 0)
(-0.257803 0.342908 0)
(-0.309054 0.326785 0)
(-0.342131 0.263952 0)
(-0.36036 0.143093 0)
(-0.35614 -0.031059 0)
(-0.320132 -0.239553 0)
(-0.262109 -0.45243 0)
(-0.195291 -0.648524 0)
(-0.130042 -0.813606 0)
(-0.0692232 -0.937499 0)
(-0.0115726 -1.00939 0)
(0.049935 -1.02166 0)
(0.134117 -0.952251 0)
(0.269487 -0.800389 0)
(0.445677 -0.579279 0)
(0.643265 -0.317257 0)
(0.839072 -0.0527224 0)
(1.01843 0.186405 0)
(1.17375 0.387139 0)
(1.3007 0.543733 0)
(1.39865 0.656655 0)
(1.46933 0.731096 0)
(1.51588 0.774938 0)
(1.54272 0.7936 0)
(1.55372 0.796657 0)
(1.55238 0.784417 0)
(1.53366 0.76513 0)
(1.49556 0.754931 0)
(1.44113 0.757165 0)
(1.38314 0.760108 0)
(1.33304 0.74528 0)
(1.30137 0.696789 0)
(1.29433 0.604923 0)
(1.32193 0.463479 0)
(1.37978 0.283164 0)
(1.45605 0.0872782 0)
(1.5374 -0.0991503 0)
(1.61524 -0.262864 0)
(1.68418 -0.397175 0)
(1.74095 -0.500347 0)
(1.78427 -0.574239 0)
(1.81449 -0.622892 0)
(1.83298 -0.651254 0)
(1.84144 -0.664989 0)
(1.84204 -0.668545 0)
(1.83423 -0.665505 0)
(1.81923 -0.659023 0)
(1.79801 -0.654262 0)
(1.77144 -0.653415 0)
(1.74092 -0.655754 0)
(1.70865 -0.657399 0)
(1.67728 -0.651635 0)
(1.65022 -0.630433 0)
(1.63097 -0.586617 0)
(1.62168 -0.516117 0)
(1.62325 -0.419667 0)
(1.63513 -0.30247 0)
(1.65559 -0.172949 0)
(1.68151 -0.0423851 0)
(1.70984 0.0804437 0)
(1.73843 0.190429 0)
(1.76527 0.283984 0)
(1.78894 0.35997 0)
(1.80843 0.418631 0)
(1.82323 0.46161 0)
(1.83319 0.491432 0)
(1.83846 0.510971 0)
(1.83921 0.523154 0)
(1.83506 0.530656 0)
(1.82645 0.534827 0)
(1.8145 0.537148 0)
(1.80054 0.537432 0)
(1.78574 0.533689 0)
(1.77139 0.52231 0)
(1.75902 0.499692 0)
(1.74971 0.462805 0)
(1.74406 0.410031 0)
(1.74241 0.34156 0)
(1.74474 0.25936 0)
(1.75082 0.166967 0)
(1.76009 0.0692252 0)
(1.77154 -0.02792 0)
(1.78419 -0.120199 0)
(1.79718 -0.204526 0)
(1.80962 -0.278698 0)
(1.82071 -0.341445 0)
(1.82975 -0.392409 0)
(1.8362 -0.432069 0)
(1.83972 -0.461505 0)
(1.84016 -0.48213 0)
(1.83754 -0.495345 0)
(1.83142 -0.502398 0)
(1.82202 -0.503705 0)
(1.81 -0.500097 0)
(1.79609 -0.491384 0)
(1.78139 -0.476379 0)
(1.76691 -0.453948 0)
(1.75345 -0.422876 0)
(1.74169 -0.382169 0)
(1.7322 -0.331457 0)
(1.72532 -0.271224 0)
(1.72131 -0.202778 0)
(1.7059 -0.263904 0)
(1.69854 -0.198616 0)
(1.02693 0.0343776 0)
(0.974346 0.0367203 0)
(0.917602 0.0389612 0)
(0.856782 0.0409494 0)
(0.792157 0.0425165 0)
(0.724071 0.0435066 0)
(0.653304 0.0437426 0)
(0.579601 0.0424139 0)
(0.50763 0.0386991 0)
(0.439903 0.0328151 0)
(0.376906 0.0259896 0)
(0.318512 0.0194538 0)
(0.265003 0.0135687 0)
(0.216523 0.00829383 0)
(0.17292 0.00339729 0)
(0.134014 -0.00154144 0)
(0.099796 -0.00672958 0)
(0.0705318 -0.0122787 0)
(0.0468102 -0.0179748 0)
(0.028306 -0.0224162 0)
(0.0148324 -0.0246191 0)
(1.94949 0.0673401 0)
(1.92045 0.0732883 0)
(1.88842 0.0792807 0)
(1.85352 0.085182 0)
(1.81544 0.0908055 0)
(1.77446 0.0959127 0)
(1.73064 0.100212 0)
(1.68439 0.103201 0)
(1.63406 0.104305 0)
(1.57878 0.103462 0)
(1.5189 0.101032 0)
(1.45495 0.0975897 0)
(1.3876 0.0935582 0)
(1.31747 0.089182 0)
(1.24504 0.0846324 0)
(1.17066 0.0800545 0)
(1.0945 0.075424 0)
(1.01655 0.0706027 0)
(0.936767 0.065381 0)
(0.854039 0.059403 0)
(0.770006 0.0526686 0)
(2.22599 0.0867524 0)
(2.21335 0.0948373 0)
(2.1992 0.102907 0)
(2.18361 0.110809 0)
(2.16661 0.118344 0)
(2.14826 0.125243 0)
(2.12849 0.131218 0)
(2.10722 0.13603 0)
(2.08424 0.13957 0)
(2.05931 0.14187 0)
(2.03195 0.143095 0)
(2.00209 0.143514 0)
(1.96966 0.143379 0)
(1.93465 0.142865 0)
(1.89707 0.142089 0)
(1.85686 0.141108 0)
(1.81392 0.139962 0)
(1.76806 0.138718 0)
(1.71896 0.137529 0)
(1.66664 0.136581 0)
(1.60992 0.135858 0)
(2.30139 0.0934324 0)
(2.2949 0.102529 0)
(2.28761 0.111555 0)
(2.2796 0.120341 0)
(2.27096 0.128689 0)
(2.2618 0.136379 0)
(2.25215 0.143219 0)
(2.24198 0.149066 0)
(2.23115 0.153843 0)
(2.21951 0.157553 0)
(2.20687 0.160299 0)
(2.19307 0.162276 0)
(2.17801 0.163714 0)
(2.16164 0.164807 0)
(2.14389 0.165722 0)
(2.12473 0.166615 0)
(2.10381 0.167576 0)
(2.08113 0.168681 0)
(2.05658 0.170051 0)
(2.03002 0.171861 0)
(2.00143 0.174246 0)
(2.32186 0.0984808 0)
(2.31719 0.108283 0)
(2.31185 0.117892 0)
(2.30593 0.127209 0)
(2.29958 0.135914 0)
(2.29289 0.143824 0)
(2.286 0.150898 0)
(2.27901 0.156995 0)
(2.27191 0.162072 0)
(2.26466 0.16618 0)
(2.25717 0.169437 0)
(2.24936 0.172026 0)
(2.24117 0.174174 0)
(2.23254 0.176054 0)
(2.22342 0.177821 0)
(2.21379 0.179703 0)
(2.20356 0.181845 0)
(2.19262 0.184259 0)
(2.18095 0.187004 0)
(2.16851 0.190187 0)
(2.15532 0.193864 0)
(2.33428 0.0917113 0)
(2.33074 0.102328 0)
(2.32634 0.11284 0)
(2.32115 0.123089 0)
(2.3153 0.132845 0)
(2.30901 0.14188 0)
(2.30244 0.150033 0)
(2.29573 0.1572 0)
(2.28908 0.16328 0)
(2.28249 0.168347 0)
(2.27603 0.172464 0)
(2.26973 0.175775 0)
(2.26348 0.17851 0)
(2.2573 0.180826 0)
(2.25121 0.182923 0)
(2.24488 0.184967 0)
(2.23845 0.18708 0)
(2.23226 0.189403 0)
(2.22596 0.192029 0)
(2.21956 0.195026 0)
(2.21308 0.198451 0)
(2.20658 0.20233 0)
(2.34296 0.0947777 0)
(2.33942 0.106376 0)
(2.33482 0.117812 0)
(2.32921 0.128881 0)
(2.32276 0.139267 0)
(2.31569 0.148717 0)
(2.30826 0.157059 0)
(2.30071 0.164212 0)
(2.29327 0.17016 0)
(2.28605 0.174998 0)
(2.27919 0.178836 0)
(2.27269 0.18188 0)
(2.26653 0.184349 0)
(2.26073 0.186428 0)
(2.25523 0.188345 0)
(2.24998 0.190308 0)
(2.24498 0.19236 0)
(2.2401 0.194577 0)
(2.23534 0.197095 0)
(2.23076 0.199985 0)
(2.22634 0.203251 0)
(2.22226 0.206872 0)
(2.35301 0.0978022 0)
(2.34941 0.110577 0)
(2.34444 0.123162 0)
(2.33815 0.135269 0)
(2.33073 0.146473 0)
(2.32251 0.156461 0)
(2.31381 0.165059 0)
(2.30499 0.17221 0)
(2.29633 0.177958 0)
(2.28807 0.182443 0)
(2.28036 0.185855 0)
(2.27325 0.188442 0)
(2.26679 0.19045 0)
(2.26092 0.192113 0)
(2.25556 0.193656 0)
(2.25066 0.195239 0)
(2.24613 0.196969 0)
(2.24188 0.198944 0)
(2.23785 0.201254 0)
(2.23405 0.203928 0)
(2.23049 0.20693 0)
(2.22722 0.210183 0)
(2.36483 0.100727 0)
(2.3612 0.115016 0)
(2.3558 0.129121 0)
(2.34863 0.142604 0)
(2.33997 0.154898 0)
(2.33022 0.165609 0)
(2.3199 0.17454 0)
(2.30946 0.181657 0)
(2.29931 0.187065 0)
(2.28975 0.190981 0)
(2.28099 0.19369 0)
(2.27314 0.195515 0)
(2.2662 0.196772 0)
(2.26012 0.197755 0)
(2.25479 0.198705 0)
(2.25009 0.199809 0)
(2.24588 0.201187 0)
(2.24204 0.202891 0)
(2.23847 0.204967 0)
(2.23511 0.207409 0)
(2.23195 0.210139 0)
(2.22899 0.213064 0)
(2.37857 0.103485 0)
(2.37501 0.119717 0)
(2.36911 0.13585 0)
(2.3608 0.1512 0)
(2.35051 0.164892 0)
(2.33885 0.176457 0)
(2.32649 0.185705 0)
(2.31406 0.192659 0)
(2.30211 0.197516 0)
(2.29106 0.200606 0)
(2.28114 0.202332 0)
(2.27249 0.203116 0)
(2.2651 0.203363 0)
(2.25887 0.203432 0)
(2.25366 0.203611 0)
(2.24922 0.20411 0)
(2.24536 0.205028 0)
(2.24193 0.206388 0)
(2.23875 0.208238 0)
(2.23573 0.210521 0)
(2.23282 0.213103 0)
(2.22997 0.215835 0)
(2.39565 0.10589 0)
(2.39236 0.124708 0)
(2.38584 0.143545 0)
(2.37595 0.161374 0)
(2.3633 0.177065 0)
(2.34896 0.18984 0)
(2.33387 0.199493 0)
(2.31889 0.206138 0)
(2.30473 0.210132 0)
(2.29189 0.211986 0)
(2.28067 0.21227 0)
(2.27119 0.211555 0)
(2.26339 0.210376 0)
(2.25713 0.209192 0)
(2.25216 0.208357 0)
(2.24817 0.208107 0)
(2.24487 0.208497 0)
(2.24196 0.209506 0)
(2.23924 0.211158 0)
(2.23658 0.21337 0)
(2.23383 0.215946 0)
(2.23095 0.218658 0)
(2.41856 0.107457 0)
(2.41589 0.12986 0)
(2.4086 0.152662 0)
(2.39665 0.173595 0)
(2.38097 0.191371 0)
(2.36295 0.205378 0)
(2.34409 0.215331 0)
(2.32564 0.221415 0)
(2.30855 0.224194 0)
(2.29343 0.224419 0)
(2.2806 0.222886 0)
(2.27014 0.220317 0)
(2.26192 0.217377 0)
(2.25571 0.214649 0)
(2.25114 0.212565 0)
(2.24782 0.211418 0)
(2.24529 0.211248 0)
(2.24299 0.212007 0)
(2.24083 0.213647 0)
(2.23855 0.215999 0)
(2.23594 0.218783 0)
(2.23291 0.221659 0)
(2.43912 0.107911 0)
(2.43738 0.134951 0)
(2.43139 0.163495 0)
(2.41705 0.190527 0)
(2.3981 0.211958 0)
(2.37648 0.2274 0)
(2.35378 0.237173 0)
(2.33176 0.241848 0)
(2.31178 0.242381 0)
(2.29456 0.239846 0)
(2.28038 0.235387 0)
(2.26927 0.230063 0)
(2.26102 0.224683 0)
(2.25522 0.219881 0)
(2.25138 0.216177 0)
(2.24902 0.213971 0)
(2.24774 0.213289 0)
(2.24656 0.213801 0)
(2.24531 0.215539 0)
(2.24366 0.218332 0)
(2.24127 0.221784 0)
(2.238 0.225376 0)
(2.4356 0.105409 0)
(2.43445 0.138192 0)
(2.42681 0.171874 0)
(2.41341 0.203438 0)
(2.39281 0.230199 0)
(2.36807 0.248922 0)
(2.34293 0.259382 0)
(2.31917 0.262897 0)
(2.29817 0.261194 0)
(2.28055 0.255851 0)
(2.26662 0.248386 0)
(2.25668 0.2398 0)
(2.25015 0.231532 0)
(2.24644 0.224431 0)
(2.24486 0.218778 0)
(2.24474 0.215182 0)
(2.24519 0.214186 0)
(2.24575 0.214647 0)
(2.24585 0.216681 0)
(2.24532 0.220013 0)
(2.24402 0.224293 0)
(2.24106 0.228956 0)
(2.35401 0.103602 0)
(2.36477 0.146475 0)
(2.3635 0.189717 0)
(2.35126 0.227294 0)
(2.33139 0.256903 0)
(2.30763 0.276548 0)
(2.28351 0.285659 0)
(2.26215 0.286056 0)
(2.24414 0.280229 0)
(2.23011 0.270467 0)
(2.22054 0.258571 0)
(2.21528 0.246135 0)
(2.21379 0.234582 0)
(2.21532 0.224889 0)
(2.21886 0.217805 0)
(2.22329 0.213565 0)
(2.22829 0.211912 0)
(2.23306 0.21279 0)
(2.23676 0.215827 0)
(2.23874 0.220543 0)
(2.23873 0.226462 0)
(2.2365 0.232939 0)
(2.05436 0.0676372 0)
(2.08591 0.120544 0)
(2.10838 0.18 0)
(2.11742 0.232155 0)
(2.11599 0.272258 0)
(2.10937 0.297646 0)
(2.1006 0.305292 0)
(2.09431 0.303514 0)
(2.0907 0.295173 0)
(2.09053 0.280976 0)
(2.09396 0.264374 0)
(2.10094 0.24767 0)
(2.11111 0.232467 0)
(2.12353 0.220149 0)
(2.13737 0.211304 0)
(2.15186 0.20609 0)
(2.16637 0.204507 0)
(2.17976 0.206286 0)
(2.19157 0.210884 0)
(2.20089 0.217798 0)
(2.20702 0.226512 0)
(2.20939 0.236041 0)
(1.34001 0.0415329 0)
(1.40747 0.0917832 0)
(1.47407 0.15324 0)
(1.53075 0.211916 0)
(1.57693 0.258243 0)
(1.61509 0.286458 0)
(1.65013 0.29512 0)
(1.6838 0.292526 0)
(1.71708 0.2821 0)
(1.75067 0.266867 0)
(1.78474 0.248087 0)
(1.81932 0.228953 0)
(1.85369 0.212005 0)
(1.88758 0.198589 0)
(1.9207 0.189365 0)
(1.95262 0.184472 0)
(1.98306 0.183757 0)
(2.01218 0.187055 0)
(2.03942 0.193945 0)
(2.06422 0.204121 0)
(2.08565 0.217158 0)
(2.10161 0.231757 0)
(0.524535 -0.0513004 0)
(0.589246 0.00229858 0)
(0.657334 0.0725756 0)
(0.733373 0.140976 0)
(0.81074 0.194433 0)
(0.88844 0.228894 0)
(0.965184 0.24351 0)
(1.04038 0.242964 0)
(1.11348 0.232974 0)
(1.18442 0.217514 0)
(1.25251 0.199808 0)
(1.31707 0.182465 0)
(1.37808 0.167341 0)
(1.43571 0.155671 0)
(1.49032 0.148126 0)
(1.54236 0.144852 0)
(1.59217 0.14562 0)
(1.64041 0.150224 0)
(1.68742 0.158589 0)
(1.73289 0.17085 0)
(1.77725 0.187792 0)
(1.81554 0.208568 0)
(-0.199495 -0.0575787 0)
(-0.186355 -0.0244291 0)
(-0.151958 0.0206556 0)
(-0.0940097 0.0698455 0)
(-0.0135026 0.109835 0)
(0.0794007 0.132649 0)
(0.178144 0.140102 0)
(0.279455 0.138387 0)
(0.378493 0.130601 0)
(0.473165 0.119311 0)
(0.561723 0.107214 0)
(0.64292 0.0962726 0)
(0.717691 0.0874078 0)
(0.786688 0.0816602 0)
(0.851227 0.0794531 0)
(0.913186 0.0805442 0)
(0.974326 0.0845392 0)
(1.03592 0.091233 0)
(1.09939 0.100662 0)
(1.1653 0.1135 0)
(1.23506 0.131166 0)
(1.30244 0.156614 0)
(-0.543543 -0.0409304 0)
(-0.588088 -0.0270982 0)
(-0.603995 -0.0100572 0)
(-0.587304 0.00884739 0)
(-0.541664 0.0249907 0)
(-0.464975 0.0329795 0)
(-0.383451 0.0355356 0)
(-0.294647 0.0353458 0)
(-0.20746 0.0330363 0)
(-0.127913 0.0300778 0)
(-0.0543864 0.0277036 0)
(0.0127636 0.0263565 0)
(0.0729646 0.0259876 0)
(0.127886 0.0258463 0)
(0.18066 0.0261286 0)
(0.232009 0.0269365 0)
(0.284778 0.0285579 0)
(0.34085 0.0313348 0)
(0.403046 0.0355974 0)
(0.47143 0.041932 0)
(0.558214 0.0530042 0)
(0.634403 0.0642285 0)
(0.00544653 -0.0247626 0)
(-0.00106839 -0.0233424 0)
(-0.00556953 -0.0210925 0)
(-0.00886209 -0.0181057 0)
(-0.0114496 -0.0148399 0)
(-0.0148546 -0.00853397 0)
(-0.0201501 -0.000434742 0)
(-0.0289166 0.00593903 0)
(-0.0397337 0.00941173 0)
(-0.050924 0.0106707 0)
(-0.0616786 0.0103201 0)
(-0.0706148 0.00852438 0)
(-0.077236 0.00648528 0)
(-0.0811213 0.00436112 0)
(-0.0819438 0.00196884 0)
(-0.0800021 -0.000495388 0)
(-0.0762358 -0.00250068 0)
(-0.0722067 -0.00357027 0)
(-0.069849 -0.00351353 0)
(-0.0709576 -0.00202781 0)
(-0.0768169 0.000506156 0)
(-0.0884447 0.00383242 0)
(-0.105965 0.00716153 0)
(-0.127835 0.00943211 0)
(-0.151139 0.0100232 0)
(-0.172656 0.00878793 0)
(-0.189623 0.0063749 0)
(-0.200648 0.00337979 0)
(-0.205247 0.000332861 0)
(-0.203689 -0.00272521 0)
(-0.196096 -0.00623315 0)
(-0.181981 -0.00991446 0)
(-0.161272 -0.0133427 0)
(-0.134938 -0.0157823 0)
(-0.104986 -0.0165927 0)
(-0.0748874 -0.0153705 0)
(-0.0489219 -0.0121738 0)
(-0.0308592 -0.00704835 0)
(-0.023477 -0.000994784 0)
(-0.0276855 0.00535486 0)
(-0.0430133 0.0112882 0)
(-0.0681081 0.0158406 0)
(-0.100214 0.0185743 0)
(-0.135803 0.0192651 0)
(-0.170637 0.0176503 0)
(-0.200298 0.0139756 0)
(-0.221042 0.008621 0)
(-0.229917 0.00214699 0)
(-0.226267 -0.00478177 0)
(-0.210304 -0.0114593 0)
(-0.183054 -0.0165462 0)
(-0.147676 -0.019057 0)
(-0.108811 -0.0187484 0)
(-0.0721676 -0.0156206 0)
(-0.0426237 -0.00984433 0)
(-0.025259 -0.0020586 0)
(-0.0231045 0.00715086 0)
(-0.0374735 0.0165197 0)
(-0.0680826 0.0242443 0)
(-0.111724 0.0290679 0)
(-0.162162 0.0303828 0)
(-0.213089 0.0281968 0)
(-0.257447 0.0227417 0)
(-0.289175 0.014809 0)
(-0.304173 0.00555177 0)
(-0.301849 -0.00401433 0)
(-0.284486 -0.0121986 0)
(-0.254709 -0.0176248 0)
(-0.216883 -0.0201836 0)
(-0.175566 -0.0202745 0)
(-0.135655 -0.0184534 0)
(-0.100093 -0.0153535 0)
(-0.070983 -0.0114806 0)
(-0.0497632 -0.00738939 0)
(-0.0367998 -0.00351234 0)
(-0.0312934 -0.000143684 0)
(-0.0318027 0.00253122 0)
(-0.0366855 0.00418082 0)
(-0.0441832 0.00494108 0)
(-0.0525281 0.0048634 0)
(-0.0597792 0.004031 0)
(-0.0646188 0.00256776 0)
(-0.0659215 0.000703909 0)
(-0.06358 -0.00137552 0)
(-0.0576103 -0.00323726 0)
(-0.0482045 -0.00470753 0)
(-0.036203 -0.00569869 0)
(-0.0223622 -0.00625678 0)
(-0.00758057 -0.00641014 0)
(0.00726153 -0.00620457 0)
(0.0214942 -0.00573054 0)
(0.0346541 -0.00502129 0)
(0.0461952 -0.00410135 0)
(0.0556577 -0.0030207 0)
(0.0627784 -0.00186325 0)
(0.067454 -0.000755103 0)
(0.0697655 0.000238817 0)
(0.0700998 0.00107765 0)
(0.0688816 0.00163199 0)
(0.0666347 0.00192825 0)
(0.0639359 0.00195938 0)
(0.0613489 0.00174591 0)
(0.0594021 0.0013498 0)
(0.0585079 0.00083361 0)
(0.0587805 0.000157633 0)
(0.685164 0.0455532 0)
(0.600099 0.0387401 0)
(0.517231 0.032843 0)
(0.435572 0.0280278 0)
(0.360346 0.0240797 0)
(0.287239 0.0196843 0)
(0.226265 0.0151788 0)
(0.174557 0.0115315 0)
(0.132852 0.00927829 0)
(0.0980175 0.00810562 0)
(0.0672987 0.007205 0)
(0.0397401 0.00554454 0)
(0.0146828 0.00304448 0)
(-0.00745928 -0.000143468 0)
(-0.0260362 -0.00356338 0)
(-0.0400747 -0.00652425 0)
(-0.0496189 -0.00745701 0)
(-0.0559836 -0.00436696 0)
(-0.0611025 0.00185361 0)
(-0.0681092 0.00967412 0)
(-0.078912 0.0181788 0)
(-0.0949063 0.026889 0)
(-0.116472 0.0342914 0)
(-0.142005 0.0383826 0)
(-0.1684 0.0381883 0)
(-0.19192 0.0325802 0)
(-0.209738 0.0238684 0)
(-0.220746 0.0136634 0)
(-0.224527 0.00330392 0)
(-0.222215 -0.00703067 0)
(-0.214415 -0.0171182 0)
(-0.200005 -0.02692 0)
(-0.179069 -0.0357029 0)
(-0.153005 -0.0420346 0)
(-0.123851 -0.0444734 0)
(-0.0946655 -0.0415524 0)
(-0.0694085 -0.0332599 0)
(-0.0519915 -0.0197971 0)
(-0.0449264 -0.00283023 0)
(-0.0493383 0.0153075 0)
(-0.0650155 0.0312505 0)
(-0.0903101 0.0435833 0)
(-0.122006 0.0511306 0)
(-0.155873 0.0533454 0)
(-0.188164 0.048988 0)
(-0.214947 0.0385945 0)
(-0.232763 0.0230862 0)
(-0.238008 0.00387987 0)
(-0.229586 -0.0166254 0)
(-0.209297 -0.0348982 0)
(-0.178306 -0.0488365 0)
(-0.140467 -0.0561714 0)
(-0.0999871 -0.0568319 0)
(-0.0608981 -0.0504795 0)
(-0.0279403 -0.0367297 0)
(-0.0059872 -0.016761 0)
(0.00132948 0.00735965 0)
(-0.00887858 0.0315664 0)
(-0.0354271 0.052572 0)
(-0.0740791 0.0673836 0)
(-0.119202 0.0737893 0)
(-0.165054 0.0700353 0)
(-0.202215 0.0554321 0)
(-0.223687 0.0326725 0)
(-0.226246 0.0061123 0)
(-0.211994 -0.0199628 0)
(-0.184451 -0.0402652 0)
(-0.147262 -0.0534402 0)
(-0.105038 -0.0597035 0)
(-0.0614215 -0.0598837 0)
(-0.0194669 -0.0551895 0)
(0.0180907 -0.0467957 0)
(0.049171 -0.0360417 0)
(0.0726328 -0.0243569 0)
(0.0882887 -0.0131819 0)
(0.0971688 -0.00354155 0)
(0.100911 0.00397136 0)
(0.100992 0.00870824 0)
(0.0990386 0.0108017 0)
(0.096553 0.010489 0)
(0.0949921 0.00791795 0)
(0.0957996 0.00344389 0)
(0.099609 -0.002341 0)
(0.106851 -0.00827559 0)
(0.117726 -0.0135512 0)
(0.131579 -0.017723 0)
(0.147601 -0.0205959 0)
(0.164978 -0.0221806 0)
(0.182941 -0.0225974 0)
(0.200767 -0.0220494 0)
(0.217884 -0.0207555 0)
(0.233767 -0.0188206 0)
(0.247943 -0.0161905 0)
(0.259985 -0.0129134 0)
(0.269639 -0.00932926 0)
(0.276905 -0.00576238 0)
(0.281969 -0.00250976 0)
(0.285128 0.000193723 0)
(0.286882 0.00213263 0)
(0.287737 0.00315156 0)
(0.288198 0.00335004 0)
(0.288735 0.0028267 0)
(0.289789 0.00154373 0)
(0.291592 -0.000276831 0)
(0.294379 -0.00224893 0)
(1.54846 0.13538 0)
(1.48214 0.134941 0)
(1.41095 0.13413 0)
(1.3348 0.132396 0)
(1.2539 0.12937 0)
(1.16881 0.124491 0)
(1.07888 0.11734 0)
(0.985203 0.108373 0)
(0.888564 0.0980866 0)
(0.793685 0.0874491 0)
(0.70304 0.0770464 0)
(0.617174 0.0670112 0)
(0.536671 0.0572708 0)
(0.461737 0.0474375 0)
(0.391147 0.0369392 0)
(0.324698 0.0258126 0)
(0.261991 0.0156936 0)
(0.205209 0.00964035 0)
(0.156932 0.00908166 0)
(0.119657 0.0142554 0)
(0.0898225 0.0241882 0)
(0.0638408 0.0377135 0)
(0.0388742 0.051238 0)
(0.0139774 0.0586289 0)
(-0.0116644 0.0559486 0)
(-0.0346755 0.0446198 0)
(-0.0517027 0.0290287 0)
(-0.0630329 0.0130155 0)
(-0.0691685 -0.00183297 0)
(-0.0699307 -0.0163942 0)
(-0.0657457 -0.0310363 0)
(-0.0572098 -0.0460281 0)
(-0.0440384 -0.059681 0)
(-0.0264819 -0.0692866 0)
(-0.00466434 -0.0721271 0)
(0.0193835 -0.0664397 0)
(0.042425 -0.0508769 0)
(0.0612123 -0.0278495 0)
(0.072123 -0.00116552 0)
(0.0723754 0.0254573 0)
(0.0625161 0.0492481 0)
(0.0454142 0.067236 0)
(0.0237272 0.0774245 0)
(-0.000885179 0.0786754 0)
(-0.0243276 0.0703863 0)
(-0.0418593 0.0528928 0)
(-0.0514892 0.02741 0)
(-0.0531015 -0.00351293 0)
(-0.0448879 -0.0359108 0)
(-0.0273044 -0.0639945 0)
(-0.00139187 -0.0847048 0)
(0.0300956 -0.09588 0)
(0.0638375 -0.0960653 0)
(0.0986218 -0.0844894 0)
(0.130994 -0.0611772 0)
(0.156073 -0.028309 0)
(0.16949 0.0100501 0)
(0.169692 0.0484465 0)
(0.15818 0.081151 0)
(0.138318 0.102949 0)
(0.115594 0.110057 0)
(0.0964378 0.100126 0)
(0.0852713 0.073396 0)
(0.084561 0.0345011 0)
(0.0934887 -0.00907197 0)
(0.113959 -0.048697 0)
(0.14434 -0.0786652 0)
(0.180224 -0.0975479 0)
(0.218964 -0.105718 0)
(0.258346 -0.104765 0)
(0.296647 -0.0965777 0)
(0.332219 -0.0821778 0)
(0.36305 -0.0637779 0)
(0.387623 -0.0443873 0)
(0.405555 -0.0262913 0)
(0.417518 -0.0111352 0)
(0.424542 0.000234492 0)
(0.427977 0.00743767 0)
(0.429445 0.0104548 0)
(0.429936 0.0101415 0)
(0.430274 0.00564303 0)
(0.431254 -0.00202836 0)
(0.434718 -0.0112932 0)
(0.441584 -0.0206585 0)
(0.451451 -0.0291726 0)
(0.463821 -0.0359186 0)
(0.47812 -0.0404007 0)
(0.49371 -0.042682 0)
(0.510009 -0.0430566 0)
(0.526527 -0.0417443 0)
(0.542923 -0.0388687 0)
(0.558937 -0.0345925 0)
(0.574158 -0.029261 0)
(0.587927 -0.0233609 0)
(0.599606 -0.0174064 0)
(0.608946 -0.011875 0)
(0.615934 -0.00711903 0)
(0.620841 -0.00337571 0)
(0.623995 -0.00074555 0)
(0.62596 0.000708927 0)
(0.627325 0.00101036 0)
(0.628273 0.000174831 0)
(0.628886 -0.00160097 0)
(0.629852 -0.00415086 0)
(0.631698 -0.00693282 0)
(1.97076 0.177182 0)
(1.93791 0.180472 0)
(1.90271 0.183811 0)
(1.86492 0.186815 0)
(1.82427 0.189091 0)
(1.78042 0.190283 0)
(1.733 0.190218 0)
(1.68156 0.188804 0)
(1.62621 0.185815 0)
(1.56567 0.180882 0)
(1.49994 0.174052 0)
(1.42956 0.165606 0)
(1.3552 0.15583 0)
(1.27751 0.145042 0)
(1.197 0.133635 0)
(1.11401 0.122139 0)
(1.02877 0.110739 0)
(0.941696 0.0999547 0)
(0.852984 0.090184 0)
(0.765761 0.0823981 0)
(0.684604 0.0782665 0)
(0.612373 0.0784562 0)
(0.55277 0.0815429 0)
(0.508053 0.0839353 0)
(0.475359 0.0806687 0)
(0.450035 0.0696055 0)
(0.429061 0.0515081 0)
(0.408504 0.0302745 0)
(0.389064 0.00933767 0)
(0.375556 -0.0102092 0)
(0.368686 -0.0299393 0)