/*--------------------------------*- C++ -*----------------------------------*\
| =========                 |                                                 |
| \\      /  F ield         | OpenFOAM: The Open Source CFD Toolbox           |
|  \\    /   O peration     | Version:  2206                                  |
|   \\  /    A nd           | Website:  www.openfoam.com                      |
|    \\/     M anipulation  |                                                 |
\*---------------------------------------------------------------------------*/
FoamFile
{
    version     2.0;
    format      ascii;
    arch        "LSB;label=32;scalar=64";
    class       surfaceScalarField;
    location    "19.7001";
    object      phi_0;
}
// * * * * * * * * * * * * * * * * * * * * * * * * * * * * * * * * * * * * * //

dimensions      [0 3 -1 0 0 0 0];

oriented        oriented;

internalField   nonuniform List<scalar> 
6025
(
1.00165e-05
6.79816e-07
-7.02808e-07
1.0031e-05
8.63073e-07
-8.77557e-07
1.00356e-05
1.03397e-06
-1.03859e-06
1.00296e-05
1.1895e-06
-1.18348e-06
1.00118e-05
1.32661e-06
-1.3088e-06
9.98055e-06
1.44192e-06
-1.41065e-06
9.93425e-06
1.53325e-06
-1.48695e-06
9.87092e-06
1.59857e-06
-1.53523e-06
9.79019e-06
1.6358e-06
-1.55508e-06
9.69464e-06
1.64511e-06
-1.54957e-06
9.5885e-06
1.63006e-06
-1.52391e-06
9.47718e-06
1.5959e-06
-1.48458e-06
9.36687e-06
1.54882e-06
-1.43851e-06
9.26267e-06
1.49509e-06
-1.39089e-06
9.1677e-06
1.43917e-06
-1.3442e-06
9.08386e-06
1.38302e-06
-1.29918e-06
9.01217e-06
1.32693e-06
-1.25524e-06
8.9531e-06
1.26945e-06
-1.21038e-06
8.90673e-06
1.20761e-06
-1.16124e-06
8.87235e-06
1.1387e-06
-1.10432e-06
8.84892e-06
1.06098e-06
-1.03755e-06
8.83522e-06
9.72482e-07
-9.58782e-07
8.82995e-06
8.71732e-07
-8.66463e-07
8.83185e-06
7.57904e-07
-7.59808e-07
8.83976e-06
6.30948e-07
-6.38854e-07
8.85263e-06
4.91534e-07
-5.044e-07
8.86956e-06
3.40916e-07
-3.5785e-07
8.88985e-06
1.80749e-07
-2.01038e-07
8.91297e-06
1.29728e-08
-3.60927e-08
8.93859e-06
-1.60155e-07
1.34535e-07
8.96652e-06
-3.35609e-07
3.07683e-07
8.9967e-06
-5.09454e-07
4.79266e-07
9.02924e-06
-6.78891e-07
6.46353e-07
9.06424e-06
-8.41267e-07
8.06274e-07
9.10174e-06
-9.93841e-07
9.56336e-07
9.14169e-06
-1.13379e-06
1.09384e-06
9.18377e-06
-1.2583e-06
1.21622e-06
9.22736e-06
-1.36487e-06
1.32127e-06
9.27154e-06
-1.45168e-06
1.4075e-06
9.31524e-06
-1.51808e-06
1.47438e-06
9.35765e-06
-1.56475e-06
1.52234e-06
9.39863e-06
-1.59338e-06
1.5524e-06
9.43881e-06
-1.60503e-06
1.56485e-06
9.47823e-06
-1.59767e-06
1.55825e-06
9.51593e-06
-1.56952e-06
1.53182e-06
9.55127e-06
-1.52141e-06
1.48607e-06
9.58411e-06
-1.45523e-06
1.42239e-06
9.6146e-06
-1.37308e-06
1.34259e-06
9.64322e-06
-1.27733e-06
1.24871e-06
9.67046e-06
-1.17e-06
1.14276e-06
9.69662e-06
-1.05275e-06
1.02658e-06
9.72182e-06
-9.27067e-07
9.0187e-07
9.74597e-06
-7.94357e-07
7.70204e-07
9.769e-06
-6.56017e-07
6.32993e-07
9.79077e-06
-5.13255e-07
4.91481e-07
9.81108e-06
-3.66999e-07
3.4669e-07
9.8296e-06
-2.17959e-07
1.99436e-07
9.84584e-06
-6.67661e-08
5.05269e-08
9.85921e-06
8.54336e-08
-9.88006e-08
9.86922e-06
2.36789e-07
-2.46796e-07
9.87524e-06
3.85704e-07
-3.91727e-07
9.87726e-06
5.30403e-07
-5.32425e-07
9.87482e-06
6.69137e-07
-6.66693e-07
9.86597e-06
8.00145e-07
-7.91302e-07
9.8495e-06
9.20652e-07
-9.04178e-07
9.82519e-06
1.02826e-06
-1.00395e-06
9.79272e-06
1.12146e-06
-1.08899e-06
9.75187e-06
1.19883e-06
-1.15798e-06
9.70246e-06
1.25936e-06
-1.20995e-06
9.64483e-06
1.30234e-06
-1.2447e-06
9.58039e-06
1.32773e-06
-1.26329e-06
9.5115e-06
1.33672e-06
-1.26783e-06
9.44088e-06
1.33154e-06
-1.26092e-06
9.3715e-06
1.31476e-06
-1.24538e-06
9.30595e-06
1.28896e-06
-1.2234e-06
9.24605e-06
1.256e-06
-1.1961e-06
9.19305e-06
1.21656e-06
-1.16356e-06
9.14773e-06
1.17016e-06
-1.12484e-06
9.11027e-06
1.11591e-06
-1.07845e-06
9.08045e-06
1.0531e-06
-1.02328e-06
9.05775e-06
9.81052e-07
-9.58355e-07
9.04148e-06
8.99278e-07
-8.83003e-07
9.03083e-06
8.07553e-07
-7.96908e-07
9.02501e-06
7.06051e-07
-7.00225e-07
9.02324e-06
5.95356e-07
-5.93588e-07
9.02486e-06
4.76409e-07
-4.78029e-07
9.02932e-06
3.50406e-07
-3.54868e-07
9.03622e-06
2.18698e-07
-2.25592e-07
9.04529e-06
8.27341e-08
-9.18076e-08
9.05644e-06
-5.5806e-08
4.46566e-08
9.06968e-06
-1.94552e-07
1.81307e-07
9.08512e-06
-3.31416e-07
3.15976e-07
9.10288e-06
-4.64831e-07
4.47074e-07
9.12308e-06
-5.93244e-07
5.73048e-07
9.1458e-06
-7.15052e-07
6.9233e-07
9.17107e-06
-8.28574e-07
8.03302e-07
9.1988e-06
-9.32056e-07
9.04328e-07
9.22872e-06
-1.02379e-06
9.9386e-07
9.26038e-06
-1.10227e-06
1.07061e-06
9.29312e-06
-1.16651e-06
1.13377e-06
9.32625e-06
-1.21623e-06
1.1831e-06
9.35924e-06
-1.25191e-06
1.21892e-06
9.39201e-06
-1.27453e-06
1.24176e-06
9.42496e-06
-1.28458e-06
1.25164e-06
9.45818e-06
-1.28105e-06
1.24782e-06
9.49127e-06
-1.26304e-06
1.22996e-06
9.52369e-06
-1.2305e-06
1.19808e-06
9.55508e-06
-1.18404e-06
1.15265e-06
9.58523e-06
-1.12465e-06
1.0945e-06
9.61403e-06
-1.05344e-06
1.02464e-06
9.6414e-06
-9.71594e-07
9.44226e-07
9.66726e-06
-8.8041e-07
8.54544e-07
9.69161e-06
-7.81176e-07
7.56831e-07
9.71436e-06
-6.75304e-07
6.52551e-07
9.73555e-06
-5.63764e-07
5.42572e-07
9.755e-06
-4.4823e-07
4.28779e-07
9.77254e-06
-3.2809e-07
3.10555e-07
9.78713e-06
-2.07887e-07
1.9329e-07
9.79833e-06
-8.34045e-08
7.22104e-08
9.8059e-06
3.32973e-08
-4.08724e-08
9.80921e-06
1.62133e-07
-1.65439e-07
9.81085e-06
2.58422e-07
-2.60065e-07
4.23801e-07
-4.1958e-07
9.97941e-06
6.53642e-07
9.99865e-06
8.43829e-07
1.00093e-05
1.02333e-06
1.00103e-05
1.18851e-06
1.00012e-05
1.33565e-06
9.98163e-06
1.46154e-06
9.95096e-06
1.56393e-06
9.90784e-06
1.64168e-06
9.85013e-06
1.69352e-06
9.77751e-06
1.71773e-06
9.69259e-06
1.71498e-06
9.59933e-06
1.68917e-06
9.50275e-06
1.6454e-06
9.4085e-06
1.58934e-06
9.32099e-06
1.52668e-06
9.24274e-06
1.46127e-06
9.17542e-06
1.39425e-06
9.12012e-06
1.32475e-06
9.07718e-06
1.25055e-06
9.04602e-06
1.16986e-06
9.02582e-06
1.08118e-06
9.01541e-06
9.82889e-07
9.01348e-06
8.73664e-07
9.01866e-06
7.52726e-07
9.02963e-06
6.19978e-07
9.04519e-06
4.75975e-07
9.06429e-06
3.21813e-07
9.0861e-06
1.58942e-07
9.10998e-06
-1.09136e-08
9.13555e-06
-1.85721e-07
9.16255e-06
-3.62609e-07
9.19091e-06
-5.37811e-07
9.22066e-06
-7.0865e-07
9.25186e-06
-8.72465e-07
9.2845e-06
-1.02648e-06
9.31849e-06
-1.16778e-06
9.35362e-06
-1.29343e-06
9.3894e-06
-1.40066e-06
9.42505e-06
-1.48733e-06
9.45948e-06
-1.55251e-06
9.49168e-06
-1.59695e-06
9.52137e-06
-1.62308e-06
9.54958e-06
-1.63324e-06
9.57705e-06
-1.62514e-06
9.60215e-06
-1.59462e-06
9.62452e-06
-1.54378e-06
9.64455e-06
-1.47526e-06
9.6628e-06
-1.39133e-06
9.67998e-06
-1.29451e-06
9.69693e-06
-1.18695e-06
9.71422e-06
-1.07003e-06
9.73198e-06
-9.44828e-07
9.7501e-06
-8.12475e-07
9.76837e-06
-6.74292e-07
9.78647e-06
-5.31357e-07
9.804e-06
-3.84527e-07
9.82057e-06
-2.34529e-07
9.83579e-06
-8.19818e-08
9.849e-06
7.22208e-08
9.85948e-06
2.2631e-07
9.86675e-06
3.78436e-07
9.87051e-06
5.26643e-07
9.87057e-06
6.69075e-07
9.86654e-06
8.04168e-07
9.85731e-06
9.29891e-07
9.84194e-06
1.04363e-06
9.82006e-06
1.14334e-06
9.79128e-06
1.22761e-06
9.75539e-06
1.29524e-06
9.71227e-06
1.34545e-06
9.66223e-06
1.37778e-06
9.6066e-06
1.39235e-06
9.54758e-06
1.39055e-06
9.48756e-06
1.37478e-06
9.42917e-06
1.34736e-06
9.37489e-06
1.31027e-06
9.32661e-06
1.26485e-06
9.2853e-06
1.21146e-06
9.2513e-06
1.14991e-06
9.22454e-06
1.07986e-06
9.20464e-06
1.00095e-06
9.19098e-06
9.12933e-07
9.18282e-06
8.15716e-07
9.17934e-06
7.09535e-07
9.17974e-06
5.94952e-07
9.18331e-06
4.72835e-07
9.18946e-06
3.44264e-07
9.19771e-06
2.10445e-07
9.20777e-06
7.267e-08
9.21949e-06
-6.75232e-08
9.23281e-06
-2.07868e-07
9.24776e-06
-3.46367e-07
9.26439e-06
-4.81467e-07
9.28274e-06
-6.11591e-07
9.3028e-06
-7.35114e-07
9.32454e-06
-8.50311e-07
9.34786e-06
-9.5538e-07
9.37259e-06
-1.04851e-06
9.39839e-06
-1.12806e-06
9.4247e-06
-1.19283e-06
9.45086e-06
-1.24238e-06
9.47625e-06
-1.2773e-06
9.50071e-06
-1.299e-06
9.52489e-06
-1.30876e-06
9.5494e-06
-1.30556e-06
9.57352e-06
-1.28716e-06
9.59667e-06
-1.25364e-06
9.61863e-06
-1.206e-06
9.63951e-06
-1.14553e-06
9.65951e-06
-1.07343e-06
9.67865e-06
-9.90737e-07
9.69688e-06
-8.98635e-07
9.71425e-06
-7.9855e-07
9.73084e-06
-6.91895e-07
9.74667e-06
-5.79594e-07
9.76156e-06
-4.63116e-07
9.77544e-06
-3.41967e-07
9.78732e-06
-2.19771e-07
9.79635e-06
-9.2431e-08
9.80229e-06
2.73509e-08
9.80507e-06
1.5936e-07
9.80627e-06
2.57216e-07
4.27329e-07
9.9199e-06
6.2555e-07
9.94264e-06
8.21093e-07
9.95866e-06
1.00732e-06
9.96689e-06
1.18028e-06
9.9665e-06
1.33603e-06
9.95698e-06
1.47106e-06
9.93814e-06
1.58276e-06
9.91013e-06
1.66969e-06
9.87222e-06
1.73143e-06
9.82231e-06
1.76764e-06
9.75996e-06
1.77733e-06
9.68764e-06
1.76149e-06
9.60892e-06
1.72411e-06
9.52852e-06
1.66974e-06
9.4514e-06
1.6038e-06
9.38128e-06
1.53139e-06
9.32048e-06
1.45505e-06
9.27049e-06
1.37474e-06
9.23181e-06
1.28924e-06
9.2042e-06
1.19747e-06
9.18706e-06
1.09832e-06
9.1794e-06
9.90548e-07
9.17999e-06
8.73068e-07
9.18749e-06
7.4523e-07
9.20052e-06
6.06947e-07
9.2178e-06
4.58693e-07
9.23821e-06
3.01407e-07
9.26081e-06
1.36345e-07
9.28491e-06
-3.50158e-08
9.31006e-06
-2.10875e-07
9.33594e-06
-3.88485e-07
9.36241e-06
-5.64282e-07
9.38943e-06
-7.35671e-07
9.41691e-06
-8.99945e-07
9.44469e-06
-1.05425e-06
9.47253e-06
-1.19563e-06
9.5002e-06
-1.32109e-06
9.5274e-06
-1.42786e-06
9.55369e-06
-1.51363e-06
9.5783e-06
-1.57712e-06
9.60012e-06
-1.61877e-06
9.61834e-06
-1.64129e-06
9.63398e-06
-1.64888e-06
9.64912e-06
-1.64028e-06
9.66041e-06
-1.60591e-06
9.66863e-06
-1.55201e-06
9.67536e-06
-1.48199e-06
9.68212e-06
-1.39809e-06
9.68976e-06
-1.30216e-06
9.6983e-06
-1.19549e-06
9.70766e-06
-1.07939e-06
9.71828e-06
-9.55445e-07
9.73059e-06
-8.24782e-07
9.74436e-06
-6.88061e-07
9.75907e-06
-5.46075e-07
9.77424e-06
-3.99689e-07
9.78934e-06
-2.49636e-07
9.80393e-06
-9.65707e-08
9.81747e-06
5.8678e-08
9.82933e-06
2.14451e-07
9.83904e-06
3.68728e-07
9.84597e-06
5.19712e-07
9.84945e-06
6.65597e-07
9.8491e-06
8.04517e-07
9.84473e-06
9.34263e-07
9.83587e-06
1.05248e-06
9.82214e-06
1.15707e-06
9.80351e-06
1.24624e-06
9.77984e-06
1.31891e-06
9.75075e-06
1.37454e-06
9.71579e-06
1.41275e-06
9.67494e-06
1.4332e-06
9.62936e-06
1.43613e-06
9.58098e-06
1.42316e-06
9.5322e-06
1.39614e-06
9.48563e-06
1.35684e-06
9.4434e-06
1.30708e-06
9.40687e-06
1.24799e-06
9.37674e-06
1.18004e-06
9.35319e-06
1.1034e-06
9.33602e-06
1.01813e-06
9.32475e-06
9.24206e-07
9.31871e-06
8.21758e-07
9.31714e-06
7.11105e-07
9.31926e-06
5.92825e-07
9.32437e-06
4.67729e-07
9.33184e-06
3.36796e-07
9.34119e-06
2.01094e-07
9.35208e-06
6.17748e-08
9.36429e-06
-7.97345e-08
9.37765e-06
-2.21224e-07
9.3921e-06
-3.60815e-07
9.40758e-06
-4.9695e-07
9.42401e-06
-6.28021e-07
9.44127e-06
-7.52368e-07
9.4592e-06
-8.68244e-07
9.47768e-06
-9.73858e-07
9.49658e-06
-1.06741e-06
9.51576e-06
-1.14724e-06
9.53495e-06
-1.21202e-06
9.55367e-06
-1.26111e-06
9.57127e-06
-1.2949e-06
9.58723e-06
-1.31496e-06
9.60202e-06
-1.32355e-06
9.61763e-06
-1.32117e-06
9.63252e-06
-1.30206e-06
9.64606e-06
-1.26718e-06
9.65824e-06
-1.21818e-06
9.66953e-06
-1.15682e-06
9.68064e-06
-1.08454e-06
9.69182e-06
-1.00192e-06
9.70309e-06
-9.09905e-07
9.71445e-06
-8.09912e-07
9.72573e-06
-7.03171e-07
9.73673e-06
-5.90599e-07
9.74724e-06
-4.73622e-07
9.75733e-06
-3.52057e-07
9.76638e-06
-2.28822e-07
9.77424e-06
-1.00288e-07
9.78051e-06
2.10737e-08
9.78432e-06
1.55555e-07
9.78574e-06
2.55793e-07
4.30551e-07
9.83764e-06
5.96123e-07
9.86316e-06
7.95575e-07
9.88374e-06
9.86733e-07
9.89841e-06
1.16561e-06
9.90625e-06
1.32819e-06
9.90651e-06
1.4708e-06
9.89881e-06
1.59046e-06
9.88334e-06
1.68516e-06
9.86058e-06
1.75419e-06
9.83016e-06
1.79806e-06
9.79016e-06
1.81733e-06
9.74003e-06
1.81162e-06
9.68142e-06
1.78272e-06
9.61823e-06
1.73293e-06
9.55473e-06
1.66731e-06
9.49513e-06
1.59099e-06
9.44274e-06
1.50744e-06
9.39953e-06
1.41795e-06
9.36621e-06
1.32255e-06
9.34289e-06
1.2208e-06
9.32919e-06
1.11203e-06
9.32432e-06
9.95412e-07
9.32722e-06
8.70174e-07
9.3366e-06
7.35847e-07
9.35114e-06
5.92405e-07
9.36956e-06
4.40279e-07
9.39069e-06
2.80278e-07
9.41357e-06
1.13456e-07
9.43751e-06
-5.89542e-08
9.462e-06
-2.35357e-07
9.48656e-06
-4.13052e-07
9.51102e-06
-5.88741e-07
9.53521e-06
-7.59854e-07
9.55888e-06
-9.23616e-07
9.58169e-06
-1.07707e-06
9.60322e-06
-1.21716e-06
9.62304e-06
-1.34091e-06
9.64085e-06
-1.44567e-06
9.65652e-06
-1.52929e-06
9.66997e-06
-1.59057e-06
9.68091e-06
-1.62971e-06
9.68843e-06
-1.64881e-06
9.69203e-06
-1.65248e-06
9.69227e-06
-1.64052e-06
9.68965e-06
-1.60329e-06
9.6855e-06
-1.54785e-06
9.68045e-06
-1.47695e-06
9.67547e-06
-1.3931e-06
9.67123e-06
-1.29792e-06
9.66882e-06
-1.19308e-06
9.66942e-06
-1.07999e-06
9.67336e-06
-9.5939e-07
9.68047e-06
-8.31883e-07
9.69039e-06
-6.97987e-07
9.7026e-06
-5.58283e-07
9.7164e-06
-4.1349e-07
9.73112e-06
-2.64357e-07
9.74616e-06
-1.11608e-07
9.76094e-06
4.38964e-08
9.77475e-06
2.00646e-07
9.78703e-06
3.56442e-07
9.79726e-06
5.09483e-07
9.80493e-06
6.57926e-07
9.80967e-06
7.99782e-07
9.81108e-06
9.32848e-07
9.80876e-06
1.0548e-06
9.80245e-06
1.16338e-06
9.79207e-06
1.25662e-06
9.77789e-06
1.33309e-06
9.76044e-06
1.39199e-06
9.73967e-06
1.43352e-06
9.7145e-06
1.45836e-06
9.68407e-06
1.46656e-06
9.6491e-06
1.45813e-06
9.61187e-06
1.43337e-06
9.57506e-06
1.39365e-06
9.54074e-06
1.3414e-06
9.51046e-06
1.27827e-06
9.48522e-06
1.20528e-06
9.4655e-06
1.12312e-06
9.45137e-06
1.03226e-06
9.44255e-06
9.33021e-07
9.43855e-06
8.25758e-07
9.43872e-06
7.10939e-07
9.44234e-06
5.89198e-07
9.44875e-06
4.61325e-07
9.45733e-06
3.2822e-07
9.46759e-06
1.90828e-07
9.47918e-06
5.01886e-08
9.49174e-06
-9.22926e-08
9.50495e-06
-2.34438e-07
9.51865e-06
-3.7451e-07
9.53265e-06
-5.10954e-07
9.54677e-06
-6.42139e-07
9.56078e-06
-7.66377e-07
9.57445e-06
-8.81912e-07
9.58757e-06
-9.8698e-07
9.6e-06
-1.07985e-06
9.61172e-06
-1.15895e-06
9.62272e-06
-1.22302e-06
9.633e-06
-1.27138e-06
9.64233e-06
-1.30423e-06
9.65031e-06
-1.32294e-06
9.6566e-06
-1.32984e-06
9.66249e-06
-1.32706e-06
9.66695e-06
-1.30652e-06
9.67054e-06
-1.27076e-06
9.674e-06
-1.22165e-06
9.67747e-06
-1.16029e-06
9.68057e-06
-1.08765e-06
9.68369e-06
-1.00503e-06
9.68754e-06
-9.13762e-07
9.69222e-06
-8.14587e-07
9.69754e-06
-7.08495e-07
9.70343e-06
-5.96493e-07
9.70962e-06
-4.79811e-07
9.71617e-06
-3.58605e-07
9.72266e-06
-2.35313e-07
9.72888e-06
-1.06504e-07
9.73422e-06
1.57289e-08
9.73804e-06
1.51741e-07
9.74022e-06
2.53612e-07
4.32321e-07
9.732e-06
9.75995e-06
9.78449e-06
9.80482e-06
9.8201e-06
9.82956e-06
9.83268e-06
9.82933e-06
9.81991e-06
9.80507e-06
9.78431e-06
9.75537e-06
9.71714e-06
9.67331e-06
9.62683e-06
9.58137e-06
9.54027e-06
9.50585e-06
9.47939e-06
9.46141e-06
9.45182e-06
9.45006e-06
9.45524e-06
9.46625e-06
9.48188e-06
9.50091e-06
9.52223e-06
9.54492e-06
9.56828e-06
9.59177e-06
9.61479e-06
9.637e-06
9.65807e-06
9.67758e-06
9.69504e-06
9.7099e-06
9.72159e-06
9.72972e-06
9.7342e-06
9.73537e-06
9.73406e-06
9.73099e-06
9.72382e-06
9.70937e-06
9.69095e-06
9.67025e-06
9.64939e-06
9.63033e-06
9.61487e-06
9.60408e-06
9.59832e-06
9.59758e-06
9.60143e-06
9.60922e-06
9.62021e-06
9.63357e-06
9.64852e-06
9.66442e-06
9.68068e-06
9.69658e-06
9.71153e-06
9.72513e-06
9.73699e-06
9.74676e-06
9.7541e-06
9.75863e-06
9.76005e-06
9.75814e-06
9.753e-06
9.74505e-06
9.73505e-06
9.72353e-06
9.7092e-06
9.68912e-06
9.66464e-06
9.63924e-06
9.61465e-06
9.59245e-06
9.57377e-06
9.55932e-06
9.54937e-06
9.54386e-06
9.54247e-06
9.54469e-06
9.54993e-06
9.55759e-06
9.5671e-06
9.57804e-06
9.58999e-06
9.6025e-06
9.6151e-06
9.62749e-06
9.63936e-06
9.65045e-06
9.6605e-06
9.66924e-06
9.67646e-06
9.68201e-06
9.68587e-06
9.68818e-06
9.68919e-06
9.68928e-06
9.68878e-06
9.68756e-06
9.68418e-06
9.67919e-06
9.67316e-06
9.66674e-06
9.66028e-06
9.65433e-06
9.64962e-06
9.64638e-06
-9.10519e-07
9.64476e-06
-8.12975e-07
9.64474e-06
-7.08474e-07
9.64615e-06
-5.97899e-07
9.64862e-06
-4.8228e-07
9.65211e-06
-3.62097e-07
9.65627e-06
-2.39476e-07
9.66082e-06
-1.11048e-07
9.66514e-06
1.14108e-08
9.66874e-06
1.48137e-07
9.67149e-06
2.50864e-07
4.3254e-07
9.58046e-06
9.57459e-06
9.57095e-06
9.56922e-06
9.56898e-06
9.57e-06
9.57196e-06
9.57464e-06
9.57755e-06
9.58037e-06
9.58296e-06
9.30892e-07
6.7647e-09
9.2397e-07
6.92134e-09
9.16906e-07
7.06385e-09
9.09683e-07
7.22363e-09
9.02255e-07
7.4282e-09
8.94556e-07
7.69901e-09
8.86505e-07
8.05039e-09
8.78015e-07
8.49012e-09
8.68995e-07
9.01978e-09
8.5936e-07
9.63519e-09
8.49034e-07
1.03265e-08
8.37956e-07
1.10777e-08
8.26088e-07
1.18678e-08
8.13418e-07
1.26706e-08
7.99961e-07
1.34563e-08
7.8577e-07
1.41908e-08
7.70933e-07
1.4837e-08
7.55578e-07
1.5355e-08
7.39872e-07
1.57066e-08
7.24017e-07
1.58553e-08
7.08251e-07
1.57654e-08
6.92853e-07
1.53979e-08
6.78137e-07
1.47161e-08
6.64441e-07
1.36956e-08
6.52116e-07
1.23258e-08
6.41508e-07
1.06075e-08
6.32953e-07
8.55492e-09
6.26763e-07
6.19057e-09
6.23234e-07
3.52845e-09
6.2261e-07
6.24126e-10
6.24526e-07
-1.91625e-09
6.29336e-07
-4.80941e-09
6.36997e-07
-7.66169e-09
6.47379e-07
-1.03814e-08
6.60275e-07
-1.28961e-08
6.75416e-07
-1.51411e-08
6.92476e-07
-1.70603e-08
7.11085e-07
-1.86091e-08
7.30842e-07
-1.97571e-08
7.51331e-07
-2.04882e-08
7.72126e-07
-2.07958e-08
7.92811e-07
-2.06849e-08
8.12991e-07
-2.01797e-08
8.32308e-07
-1.9317e-08
8.50449e-07
-1.81414e-08
8.67153e-07
-1.67035e-08
8.82212e-07
-1.50591e-08
8.95478e-07
-1.32656e-08
9.06858e-07
-1.13802e-08
9.16314e-07
-9.45628e-09
9.23857e-07
-7.54267e-09
9.29538e-07
-5.68121e-09
9.33444e-07
-3.90604e-09
9.35686e-07
-2.2423e-09
9.3639e-07
-7.03953e-10
9.35908e-07
4.82396e-10
9.34281e-07
1.62682e-09
9.31664e-07
2.61693e-09
9.28208e-07
3.45637e-09
9.24049e-07
4.15888e-09
9.19299e-07
4.74937e-09
9.14044e-07
5.25537e-09
9.08339e-07
5.70528e-09
9.02211e-07
6.12761e-09
8.95662e-07
6.5492e-09
8.88668e-07
6.9941e-09
8.81186e-07
7.48199e-09
8.73158e-07
8.02766e-09
8.64518e-07
8.64008e-09
8.55196e-07
9.3217e-09
8.45128e-07
1.00681e-08
8.3426e-07
1.08682e-08
8.22556e-07
1.1704e-08
8.10005e-07
1.25509e-08
7.96627e-07
1.33782e-08
7.82476e-07
1.41506e-08
7.67646e-07
1.48305e-08
7.52268e-07
1.5378e-08
7.36514e-07
1.57536e-08
7.20598e-07
1.59164e-08
7.04766e-07
1.58314e-08
6.89294e-07
1.5472e-08
6.74481e-07
1.48129e-08
6.60648e-07
1.38338e-08
6.48113e-07
1.25349e-08
6.37188e-07
1.09251e-08
6.28161e-07
9.02717e-09
6.2129e-07
6.87022e-09
6.16808e-07
4.48222e-09
6.14953e-07
1.85478e-09
6.15497e-07
-5.4364e-10
6.18533e-07
-3.03634e-09
6.24094e-07
-5.56099e-09
6.32076e-07
-7.98205e-09
6.42313e-07
-1.02371e-08
6.54593e-07
-1.22793e-08
6.68661e-07
-1.40687e-08
6.84235e-07
-1.5574e-08
7.01009e-07
-1.67732e-08
7.18663e-07
-1.7654e-08
7.36875e-07
-1.82127e-08
7.55328e-07
-1.84528e-08
7.73714e-07
-1.83855e-08
7.91747e-07
-1.80335e-08
8.09174e-07
-1.74268e-08
8.25772e-07
-1.65979e-08
8.41355e-07
-1.55829e-08
8.55776e-07
-1.44218e-08
8.68929e-07
-1.3153e-08
8.80744e-07
-1.18146e-08
8.9119e-07
-1.04458e-08
9.00266e-07
-9.07628e-09
9.08005e-07
-7.73909e-09
9.14459e-07
-6.45409e-09
9.19708e-07
-5.24831e-09
9.23838e-07
-4.13068e-09
9.2694e-07
-3.10227e-09
9.29115e-07
-2.1744e-09
9.30395e-07
-1.27967e-09
9.3085e-07
-4.55421e-10
9.30396e-07
4.53961e-10
9.29138e-07
1.25813e-09
2.77684e-09
2.42015e-06
1.67395e-08
2.41011e-06
1.69613e-08
2.40001e-06
1.71555e-08
2.38985e-06
1.73855e-08
2.37957e-06
1.77064e-08
2.36911e-06
1.816e-08
2.35839e-06
1.87732e-08
2.34732e-06
1.95585e-08
2.33583e-06
2.05158e-08
2.32383e-06
2.16334e-08
2.31127e-06
2.28884e-08
2.2981e-06
2.42463e-08
2.2843e-06
2.56626e-08
2.26989e-06
2.7084e-08
2.2549e-06
2.84491e-08
2.2394e-06
2.96892e-08
2.2235e-06
3.07304e-08
2.20736e-06
3.14946e-08
2.19117e-06
3.19041e-08
2.17514e-06
3.18813e-08
2.15956e-06
3.13499e-08
2.14472e-06
3.02377e-08
2.13094e-06
2.84919e-08
2.11856e-06
2.60792e-08
2.10789e-06
2.29904e-08
2.09926e-06
1.92404e-08
2.09294e-06
1.48712e-08
2.08919e-06
9.94155e-09
2.08821e-06
4.50586e-09
2.09011e-06
-1.26885e-09
2.09526e-06
-7.06897e-09
2.10338e-06
-1.29336e-08
2.11439e-06
-1.86706e-08
2.12812e-06
-2.41075e-08
2.14431e-06
-2.90888e-08
2.16265e-06
-3.34757e-08
2.18274e-06
-3.71516e-08
2.20416e-06
-4.0027e-08
2.22644e-06
-4.20434e-08
2.24913e-06
-4.31734e-08
2.27174e-06
-4.34118e-08
2.29384e-06
-4.27793e-08
2.31499e-06
-4.13305e-08
2.33482e-06
-3.91461e-08
2.353e-06
-3.63251e-08
2.36928e-06
-3.29795e-08
2.38345e-06
-2.92309e-08
2.39539e-06
-2.52037e-08
2.40503e-06
-2.10207e-08
2.41237e-06
-1.67967e-08
2.41746e-06
-1.26355e-08
2.4204e-06
-8.62203e-09
2.42131e-06
-4.81097e-09
2.42034e-06
-1.27711e-09
2.41777e-06
1.87246e-09
2.41365e-06
4.60024e-09
2.4083e-06
6.97137e-09
2.40193e-06
8.98659e-09
2.39472e-06
1.06692e-08
2.38682e-06
1.20583e-08
2.37837e-06
1.3204e-08
2.36946e-06
1.41629e-08
2.36017e-06
1.49946e-08
2.35054e-06
1.57583e-08
2.34058e-06
1.651e-08
2.33027e-06
1.7299e-08
2.31959e-06
1.81659e-08
2.30848e-06
1.91401e-08
2.29688e-06
2.02389e-08
2.28473e-06
2.1466e-08
2.27199e-06
2.28112e-08
2.25861e-06
2.42504e-08
2.24457e-06
2.57454e-08
2.22987e-06
2.72449e-08
2.21457e-06
2.86866e-08
2.19872e-06
3e-08
2.18244e-06
3.11083e-08
2.16589e-06
3.19309e-08
2.14925e-06
3.23882e-08
2.13276e-06
3.24033e-08
2.11669e-06
3.19021e-08
2.10134e-06
3.08201e-08
2.08704e-06
2.91178e-08
2.07409e-06
2.67812e-08
2.0628e-06
2.38226e-08
2.05346e-06
2.02744e-08
2.0463e-06
1.61817e-08
2.04153e-06
1.16381e-08
2.03932e-06
6.70038e-09
2.03971e-06
1.45828e-09
2.04297e-06
-3.80481e-09
2.04897e-06
-9.03511e-09
2.05756e-06
-1.41455e-08
2.06858e-06
-1.90035e-08
2.08183e-06
-2.34925e-08
2.09707e-06
-2.75118e-08
2.11398e-06
-3.09784e-08
2.13223e-06
-3.38295e-08
2.15148e-06
-3.60238e-08
2.17137e-06
-3.75417e-08
2.19154e-06
-3.83817e-08
2.21164e-06
-3.85557e-08
2.23135e-06
-3.80948e-08
2.25037e-06
-3.70515e-08
2.26843e-06
-3.5491e-08
2.28532e-06
-3.34865e-08
2.30086e-06
-3.11189e-08
2.31491e-06
-2.84752e-08
2.3274e-06
-2.56403e-08
2.33828e-06
-2.26973e-08
2.34756e-06
-1.97244e-08
2.35528e-06
-1.67939e-08
2.3615e-06
-1.39654e-08
2.36634e-06
-1.1295e-08
2.36991e-06
-8.81684e-09
2.37235e-06
-6.56735e-09
2.37381e-06
-4.56383e-09
2.37443e-06
-2.79123e-09
2.37432e-06
-1.17429e-09
2.37364e-06
2.2222e-10
2.37226e-06
1.83505e-09
2.37051e-06
3.01504e-09
5.6716e-09
3.76463e-06
2.79686e-08
3.75351e-06
2.8078e-08
3.74251e-06
2.81564e-08
3.73159e-06
2.83025e-08
3.7207e-06
2.86007e-08
3.70974e-06
2.91229e-08
3.69859e-06
2.99201e-08
3.68714e-06
3.10095e-08
3.67527e-06
3.23852e-08
3.66287e-06
3.40271e-08
3.64987e-06
3.58972e-08
3.63617e-06
3.79396e-08
3.62175e-06
4.00828e-08
3.60659e-06
4.22415e-08
3.59073e-06
4.43185e-08
3.57421e-06
4.62057e-08
3.55715e-06
4.77872e-08
3.53971e-06
4.89392e-08
3.52208e-06
4.95351e-08
3.5045e-06
4.94585e-08
3.48725e-06
4.85992e-08
3.47064e-06
4.68466e-08
3.45503e-06
4.4107e-08
3.44078e-06
4.03225e-08
3.4283e-06
3.54762e-08
3.41795e-06
2.9592e-08
3.41008e-06
2.27335e-08
3.40504e-06
1.49879e-08
3.40308e-06
6.46166e-09
3.40439e-06
-2.57354e-09
3.40909e-06
-1.17729e-08
3.41711e-06
-2.09574e-08
3.42835e-06
-2.99042e-08
3.4426e-06
-3.83588e-08
3.45959e-06
-4.60771e-08
3.47895e-06
-5.28398e-08
3.50026e-06
-5.84623e-08
3.52304e-06
-6.28036e-08
3.54677e-06
-6.57724e-08
3.57092e-06
-6.73277e-08
3.59497e-06
-6.74641e-08
3.61842e-06
-6.62222e-08
3.64078e-06
-6.36952e-08
3.66165e-06
-6.00138e-08
3.68066e-06
-5.53379e-08
3.69753e-06
-4.98502e-08
3.71205e-06
-4.37478e-08
3.72408e-06
-3.72329e-08
3.73356e-06
-3.0504e-08
3.74051e-06
-2.37445e-08
3.74499e-06
-1.71116e-08
3.74708e-06
-1.07202e-08
3.74693e-06
-4.65916e-09
3.74477e-06
8.84728e-10
3.74085e-06
5.79493e-09
3.73539e-06
1.00608e-08
3.72865e-06
1.37071e-08
3.72087e-06
1.67637e-08
3.71227e-06
1.92761e-08
3.70301e-06
2.13117e-08
3.69326e-06
2.29533e-08
3.68313e-06
2.42938e-08
3.6727e-06
2.54298e-08
3.662e-06
2.64572e-08
3.65104e-06
2.74657e-08
3.63981e-06
2.85345e-08
3.62825e-06
2.97286e-08
3.61629e-06
3.10952e-08
3.60387e-06
3.26622e-08
3.5909e-06
3.44358e-08
3.57731e-06
3.64005e-08
3.56304e-06
3.85185e-08
3.54805e-06
4.07306e-08
3.53234e-06
4.29574e-08
3.51593e-06
4.51025e-08
3.49887e-06
4.70553e-08
3.48128e-06
4.86951e-08
3.46332e-06
4.98941e-08
3.44518e-06
5.05249e-08
3.42712e-06
5.04695e-08
3.4094e-06
4.96163e-08
3.39236e-06
4.78635e-08
3.37633e-06
4.5147e-08
3.36167e-06
4.14398e-08
3.34874e-06
3.67527e-08
3.33787e-06
3.11461e-08
3.32934e-06
2.47122e-08
3.32342e-06
1.75566e-08
3.32033e-06
9.79637e-09
3.32018e-06
1.59932e-09
3.32307e-06
-6.69405e-09
3.32893e-06
-1.48871e-08
3.33762e-06
-2.28352e-08
3.34897e-06
-3.03584e-08
3.36276e-06
-3.72796e-08
3.37869e-06
-4.34434e-08
3.39643e-06
-4.87208e-08
3.41562e-06
-5.30148e-08
3.43586e-06
-5.62636e-08
3.45676e-06
-5.84406e-08
3.47792e-06
-5.95442e-08
3.49896e-06
-5.95948e-08
3.51951e-06
-5.86502e-08
3.53926e-06
-5.67979e-08
3.55791e-06
-5.41425e-08
3.57523e-06
-5.08037e-08
3.59102e-06
-4.69102e-08
3.60514e-06
-4.26001e-08
3.61752e-06
-3.80122e-08
3.6281e-06
-3.32782e-08
3.6369e-06
-2.85249e-08
3.64397e-06
-2.38665e-08
3.6494e-06
-1.93986e-08
3.65331e-06
-1.52049e-08
3.65584e-06
-1.13454e-08
3.65713e-06
-7.85957e-09
3.65737e-06
-4.79909e-09
3.65673e-06
-2.15431e-09
3.65536e-06
2.00221e-10
3.65344e-06
2.1359e-09
3.65092e-06
4.36276e-09
3.64811e-06
5.81714e-09
9.37872e-09
4.95136e-06
4.23814e-08
4.93719e-06
4.22489e-08
4.92331e-06
4.20434e-08
4.90969e-06
4.19176e-08
4.89629e-06
4.20037e-08
4.883e-06
4.24114e-08
4.8697e-06
4.32226e-08
4.85623e-06
4.44789e-08
4.84243e-06
4.61841e-08
4.82814e-06
4.8313e-08
4.81323e-06
5.08126e-08
4.79756e-06
5.36039e-08
4.78106e-06
5.65845e-08
4.76367e-06
5.96319e-08
4.74538e-06
6.26058e-08
4.72624e-06
6.53498e-08
4.70633e-06
6.76935e-08
4.68582e-06
6.94562e-08
4.6649e-06
7.04525e-08
4.64386e-06
7.0501e-08
4.62302e-06
6.94377e-08
4.60276e-06
6.71021e-08
4.58353e-06
6.33431e-08
4.56579e-06
5.80625e-08
4.55004e-06
5.12268e-08
4.53677e-06
4.28629e-08
4.52644e-06
3.30541e-08
4.51951e-06
2.1923e-08
4.51633e-06
9.6383e-09
4.51722e-06
-3.46448e-09
4.52226e-06
-1.68079e-08
4.53138e-06
-3.0076e-08
4.54444e-06
-4.29659e-08
4.5612e-06
-5.51185e-08
4.5813e-06
-6.61758e-08
4.60427e-06
-7.58159e-08
4.62958e-06
-8.37707e-08
4.65662e-06
-8.98383e-08
4.68474e-06
-9.38942e-08
4.7133e-06
-9.58899e-08
4.74167e-06
-9.5832e-08
4.76924e-06
-9.37952e-08
4.79547e-06
-8.99203e-08
4.81985e-06
-8.4397e-08
4.84197e-06
-7.74593e-08
4.86149e-06
-6.93735e-08
4.87817e-06
-6.04268e-08
4.89186e-06
-5.09147e-08
4.90248e-06
-4.11255e-08
4.91005e-06
-3.1322e-08
4.91466e-06
-2.17208e-08
4.91642e-06
-1.24807e-08
4.91552e-06
-3.75068e-09
4.91219e-06
4.21299e-09
4.90676e-06
1.12191e-08
4.89956e-06
1.72611e-08
4.89091e-06
2.23637e-08
4.88109e-06
2.65766e-08
4.87039e-06
2.99765e-08
4.85904e-06
3.26675e-08
4.84722e-06
3.47755e-08
4.83507e-06
3.64404e-08
4.82269e-06
3.78078e-08
4.81013e-06
3.90212e-08
4.79738e-06
4.02146e-08
4.78441e-06
4.15065e-08
4.77114e-06
4.2994e-08
4.75749e-06
4.47485e-08
4.74334e-06
4.68127e-08
4.72857e-06
4.91983e-08
4.71309e-06
5.18846e-08
4.69679e-06
5.4819e-08
4.6796e-06
5.79174e-08
4.66149e-06
6.1067e-08
4.64247e-06
6.41293e-08
4.62258e-06
6.6944e-08
4.60194e-06
6.93337e-08
4.58072e-06
7.11101e-08
4.55916e-06
7.20839e-08
4.53756e-06
7.20774e-08
4.51624e-06
7.0928e-08
4.49562e-06
6.84866e-08
4.47612e-06
6.46458e-08
4.4582e-06
5.93664e-08
4.44228e-06
5.26702e-08
4.42879e-06
4.46335e-08
4.41813e-06
3.53781e-08
4.41062e-06
2.50592e-08
4.40657e-06
1.38505e-08
4.40616e-06
2.0042e-09
4.40944e-06
-9.97188e-09
4.4163e-06
-2.17428e-08
4.42657e-06
-3.31054e-08
4.44002e-06
-4.38114e-08
4.45635e-06
-5.36099e-08
4.47519e-06
-6.22781e-08
4.4961e-06
-6.96338e-08
4.51863e-06
-7.55424e-08
4.54229e-06
-7.9923e-08
4.5666e-06
-8.27513e-08
4.59108e-06
-8.40307e-08
4.61529e-06
-8.38027e-08
4.6388e-06
-8.21629e-08
4.66124e-06
-7.92392e-08
4.68229e-06
-7.51836e-08
4.70165e-06
-7.01678e-08
4.71912e-06
-6.43804e-08
4.73454e-06
-5.8018e-08
4.74781e-06
-5.128e-08
4.75889e-06
-4.43604e-08
4.7678e-06
-3.74408e-08
4.77462e-06
-3.06832e-08
4.77945e-06
-2.42237e-08
4.78241e-06
-1.817e-08
4.78367e-06
-1.26004e-08
4.78342e-06
-7.6134e-09
4.78188e-06
-3.26139e-09
4.7793e-06
4.26103e-10
4.77584e-06
3.66183e-09
4.77175e-06
6.22924e-09
4.76699e-06
9.11654e-09
4.76195e-06
1.08614e-08
1.53741e-08
5.9434e-06
6.12245e-08
5.9247e-06
6.09502e-08
5.90624e-06
6.05027e-08
5.88806e-06
6.01022e-08
5.87012e-06
5.99412e-08
5.85235e-06
6.01865e-08
5.8346e-06
6.0968e-08
5.81671e-06
6.23669e-08
5.79848e-06
6.44176e-08
5.77969e-06
6.71067e-08
5.76012e-06
7.03768e-08
5.7396e-06
7.41298e-08
5.71795e-06
7.82316e-08
5.69506e-06
8.25154e-08
5.67089e-06
8.6785e-08
5.64542e-06
9.08177e-08
5.61874e-06
9.43672e-08
5.59103e-06
9.71686e-08
5.56254e-06
9.89437e-08
5.53363e-06
9.94113e-08
5.50476e-06
9.83092e-08
5.47647e-06
9.53946e-08
5.44937e-06
9.04378e-08
5.42416e-06
8.32727e-08
5.40156e-06
7.3833e-08
5.38228e-06
6.21395e-08
5.36704e-06
4.82881e-08
5.35653e-06
3.24379e-08
5.35134e-06
1.48236e-08
5.35203e-06
-4.15203e-09
5.35883e-06
-2.36104e-08
5.37172e-06
-4.29578e-08
5.3905e-06
-6.17493e-08
5.41482e-06
-7.94394e-08
5.44412e-06
-9.54753e-08
5.47766e-06
-1.09358e-07
5.51456e-06
-1.20674e-07
5.55384e-06
-1.29118e-07
5.59445e-06
-1.345e-07
5.63533e-06
-1.36772e-07
5.67553e-06
-1.36032e-07
5.7142e-06
-1.32465e-07
5.75058e-06
-1.26304e-07
5.78404e-06
-1.1785e-07
5.81404e-06
-1.07464e-07
5.84021e-06
-9.55438e-08
5.86229e-06
-8.25078e-08
5.88016e-06
-6.87776e-08
5.89379e-06
-5.47561e-08
5.90327e-06
-4.08006e-08
5.90874e-06
-2.7194e-08
5.9104e-06
-1.41438e-08
5.90851e-06
-1.86018e-09
5.90339e-06
9.3325e-09
5.89549e-06
1.91161e-08
5.88528e-06
2.74772e-08
5.87318e-06
3.44602e-08
5.85962e-06
4.01404e-08
5.84496e-06
4.46356e-08
5.82953e-06
4.81018e-08
5.81358e-06
5.07237e-08
5.79731e-06
5.27051e-08
5.78086e-06
5.4258e-08
5.76429e-06
5.55922e-08
5.7476e-06
5.69041e-08
5.73074e-06
5.83684e-08
5.7136e-06
6.01294e-08
5.69606e-06
6.22953e-08
5.67794e-06
6.49334e-08
5.65907e-06
6.80662e-08
5.63928e-06
7.16706e-08
5.61843e-06
7.56767e-08
5.59637e-06
7.997e-08
5.57305e-06
8.43935e-08
5.54842e-06
8.87518e-08
5.52255e-06
9.28158e-08
5.49556e-06
9.6329e-08
5.46765e-06
9.90173e-08
5.43913e-06
1.00601e-07
5.4104e-06
1.0081e-07
5.38193e-06
9.9395e-08
5.35428e-06
9.61374e-08
5.32805e-06
9.08774e-08
5.30387e-06
8.35454e-08
5.28238e-06
7.41606e-08
5.2642e-06
6.28187e-08