/*--------------------------------*- C++ -*----------------------------------*\
| =========                 |                                                 |
| \\      /  F ield         | OpenFOAM: The Open Source CFD Toolbox           |
|  \\    /   O peration     | Version:  2206                                  |
|   \\  /    A nd           | Website:  www.openfoam.com                      |
|    \\/     M anipulation  |                                                 |
\*---------------------------------------------------------------------------*/
FoamFile
{
    version     2.0;
    format      ascii;
    arch        "LSB;label=32;scalar=64";
    class       surfaceScalarField;
    location    "19.1001";
    object      ddtCorrDdt0(phi);
}
// * * * * * * * * * * * * * * * * * * * * * * * * * * * * * * * * * * * * * //

dimensions      [0 3 -2 0 0 0 0];

oriented        oriented;

internalField   nonuniform List<scalar> 
9483
(
0.000273185
-7.15422e-05
0.000323106
-4.99215e-05
0.00034342
-2.03138e-05
0.000331067
1.23532e-05
0.000288276
4.27911e-05
0.000218616
6.96597e-05
0.000125781
9.28355e-05
5.05606e-05
7.52204e-05
-4.00599e-05
9.06205e-05
-0.000133787
9.37275e-05
-0.000221508
8.77211e-05
-0.000286587
6.50785e-05
-0.000325786
3.91994e-05
-0.00034312
1.73341e-05
-0.00034234
-7.80115e-07
-0.000324415
-1.79249e-05
-0.000289128
-3.52875e-05
-0.000241246
-4.7882e-05
-0.000182529
-5.87164e-05
-0.000110923
-7.16064e-05
-2.97921e-05
-8.11308e-05
5.79256e-05
-8.77176e-05
0.000150334
-9.24086e-05
0.00024815
-9.78163e-05
0.000356737
-0.000108586
-0.000120472
0.000477209
0.00021135
-0.000131941
0.000248561
-8.71325e-05
0.000260159
-3.19117e-05
0.000236205
3.63069e-05
0.000185147
9.38494e-05
0.000113931
0.000140875
9.03368e-05
0.00011643
1.59183e-05
0.000149639
-5.28537e-05
0.000159392
-0.00012273
0.000163604
-0.000187498
0.000152489
-0.000243538
0.000121118
-0.000280508
7.61691e-05
-0.000296692
3.35189e-05
-0.000296736
-7.36857e-07
-0.00028588
-2.8781e-05
-0.000266212
-5.49553e-05
-0.000235683
-7.84109e-05
-0.000195664
-9.87353e-05
-0.000150538
-0.000116732
-9.96265e-05
-0.000132042
-4.24263e-05
-0.000144918
2.09237e-05
-0.000155759
8.79814e-05
-0.000164874
0.000151306
-0.000171911
-0.000178668
0.000209503
6.31218e-05
-0.000173438
9.14529e-05
-0.000115464
0.000103128
-4.35864e-05
0.000105834
3.36011e-05
9.22783e-05
0.000107405
9.30011e-05
0.000140152
4.8599e-05
0.000160832
2.65373e-05
0.000171701
-5.48308e-06
0.000191413
-4.55014e-05
0.000203622
-8.80188e-05
0.000195007
-0.000124214
0.000157313
-0.000148566
0.000100522
-0.000161025
4.5978e-05
-0.000168319
6.55678e-06
-0.000168171
-2.89287e-05
-0.000161732
-6.13942e-05
-0.000150628
-8.95154e-05
-0.000135702
-0.000113662
-0.000118649
-0.000133784
-0.000100566
-0.000150126
-8.27356e-05
-0.000162748
-6.61458e-05
-0.000172348
-5.06554e-05
-0.000180364
-3.6219e-05
-0.000186347
-0.000193349
-2.15383e-05
-0.000115186
-0.000148301
-0.000111681
-0.000118968
-8.70394e-05
-6.82278e-05
-4.59948e-05
-7.44343e-06
2.48329e-06
5.89265e-05
1.32432e-05
0.000129392
3.20639e-05
0.000142012
2.9243e-05
0.000174521
1.52428e-05
0.000205413
1.0171e-06
0.000217848
-1.0588e-05
0.000206612
-2.00925e-05
0.000166818
-2.48321e-05
0.000105261
-2.83911e-05
4.9537e-05
-3.89678e-05
1.71335e-05
-4.42551e-05
-2.36414e-05
-4.66192e-05
-5.90301e-05
-4.76553e-05
-8.84793e-05
-4.80578e-05
-0.000113259
-4.86733e-05
-0.000133169
-5.01284e-05
-0.000148671
-5.35187e-05
-0.000159358
-5.88959e-05
-0.000166971
-6.69206e-05
-0.00017234
-7.80611e-05
-0.000175207
-0.000176768
-9.4642e-05
0.000128073
-0.000100793
8.24148e-05
-7.33099e-05
5.80271e-05
-4.38401e-05
3.47214e-05
1.58623e-05
2.20077e-05
7.16403e-05
2.86487e-05
0.000122751
1.58344e-05
0.000154826
8.21424e-06
0.000182142
9.65447e-06
0.000203973
2.17748e-05
0.000205728
4.12125e-05
0.000187174
5.88959e-05
0.000149135
6.6532e-05
9.76251e-05
6.42013e-05
5.18677e-05
5.95963e-05
2.17386e-05
5.36284e-05
-1.76735e-05
4.6029e-05
-5.14307e-05
3.67616e-05
-7.92118e-05
2.5839e-05
-0.000102337
1.27406e-05
-0.00012007
-2.18102e-06
-0.000133749
-1.8878e-05
-0.000142661
-3.74123e-05
-0.000148437
-5.79921e-05
-0.00015176
-8.08705e-05
-0.000152328
-0.00015073
-0.000106909
-1.817e-05
-9.31159e-05
-2.45125e-05
-6.69673e-05
-3.23909e-05
-3.59617e-05
-3.42479e-05
1.77193e-05
-3.0561e-05
6.79534e-05
-1.74509e-05
0.000109641
-6.30665e-06
0.000143682
1.1825e-05
0.00016401
3.82941e-05
0.000177504
6.71151e-05
0.000176907
9.57801e-05
0.000158509
0.000115574
0.000129341
0.000119774
9.3425e-05
0.000115749
5.58928e-05
0.000115295
2.2192e-05
0.000107863
-1.02406e-05
9.61744e-05
-3.97425e-05
8.14912e-05
-6.45286e-05
6.39662e-05
-8.48115e-05
4.42157e-05
-0.00010032
2.2671e-05
-0.000112204
1.7577e-07
-0.000120165
-2.33484e-05
-0.000124913
-4.79941e-05
-0.000127114
-7.37245e-05
-0.000126598
-0.000123562
-0.000100892
-9.19854e-05
-7.44076e-05
-0.000107347
-5.16058e-05
-0.000121458
-2.18503e-05
-0.000117658
1.39191e-05
-0.000104176
5.4471e-05
-8.501e-05
9.04757e-05
-5.5718e-05
0.00011439
-2.24874e-05
0.000130779
1.2077e-05
0.000142939
4.5113e-05
0.000143871
7.33623e-05
0.00013026
9.44226e-05
0.000108281
0.000107344
8.05035e-05
0.000113238
4.99991e-05
0.000114044
2.13856e-05
0.000108969
-5.16508e-06
9.84918e-05
-2.92655e-05
8.39928e-05
-5.00296e-05
6.62929e-05
-6.71117e-05
4.66365e-05
-8.06635e-05
2.54813e-05
-9.10493e-05
3.42823e-06
-9.81124e-05
-1.93506e-05
-0.000102134
-4.28078e-05
-0.000103657
-6.68984e-05
-0.000102507
-9.86734e-05
-9.17873e-05
-0.000106051
-5.87597e-05
-0.000120905
-3.67515e-05
-0.000130115
-1.26404e-05
-0.000131631
1.54352e-05
-0.000118328
4.11679e-05
-9.16406e-05
6.3788e-05
-6.56357e-05
8.83849e-05
-4.0084e-05
0.000105228
-9.0652e-06
0.000111921
2.36977e-05
0.000111108
5.2029e-05
0.000101928
7.42382e-05
8.60714e-05
8.93098e-05
6.54319e-05
9.6615e-05
4.2694e-05
9.77069e-05
2.02936e-05
9.34233e-05
-8.81443e-07
8.45443e-05
-2.03865e-05
7.20526e-05
-3.75379e-05
5.68358e-05
-5.18948e-05
3.96492e-05
-6.34769e-05
2.10417e-05
-7.24417e-05
1.48402e-06
-7.85547e-05
-1.88156e-05
-8.18342e-05
-3.9656e-05
-8.28164e-05
-6.07248e-05
-8.14386e-05
-7.72943e-05
-8.21038e-05
-9.52328e-05
-4.21784e-05
-0.000105113
-2.68713e-05
-0.000110104
-7.64892e-06
-0.000107447
1.27783e-05
-9.94672e-05
3.31877e-05
-8.70467e-05
5.13675e-05
-6.58784e-05
6.72166e-05
-3.98538e-05
7.92031e-05
-1.35973e-05
8.56641e-05
1.24385e-05
8.50721e-05
3.57943e-05
7.85726e-05
5.45455e-05
6.73202e-05
6.73758e-05
5.26017e-05
7.42379e-05
3.58319e-05
7.59385e-05
1.85931e-05
7.31819e-05
1.87519e-06
6.65208e-05
-1.37254e-05
5.66428e-05
-2.76599e-05
4.42493e-05
-3.95013e-05
2.99388e-05
-4.91664e-05
1.4232e-05
-5.6735e-05
-2.39798e-06
-6.19247e-05
-1.97479e-05
-6.44843e-05
-3.76371e-05
-6.49271e-05
-5.56239e-05
-6.34519e-05
-5.93908e-05
-7.35273e-05
-8.16489e-05
-3.11298e-05
-8.94532e-05
-1.9067e-05
-9.25668e-05
-4.53528e-06
-9.06186e-05
1.083e-05
-8.33946e-05
2.59638e-05
-7.16588e-05
3.96316e-05
-5.58422e-05
5.14e-05
-3.69819e-05
6.03428e-05
-1.61687e-05
6.48509e-05
3.92784e-06
6.49756e-05
2.19273e-05
6.05731e-05
3.65605e-05
5.2687e-05
4.71319e-05
4.20303e-05
5.33759e-05
2.95878e-05
5.55258e-05
1.64433e-05
5.39818e-05
3.41917e-06
4.91567e-05
-8.90027e-06
4.15621e-05
-2.00653e-05
3.17513e-05
-2.96905e-05
2.02068e-05
-3.76219e-05
7.30743e-06
-4.38356e-05
-6.52866e-06
-4.80886e-05
-2.10153e-05
-4.99976e-05
-3.60011e-05
-4.99413e-05
-5.10483e-05
-4.84047e-05
-4.46692e-05
-6.577e-05
-6.764e-05
-2.29361e-05
-7.3176e-05
-1.35309e-05
-7.51093e-05
-2.60196e-06
-7.32312e-05
8.95196e-06
-6.75885e-05
2.03211e-05
-5.86997e-05
3.07428e-05
-4.68264e-05
3.95267e-05
-3.2415e-05
4.59313e-05
-1.69077e-05
4.93436e-05
-1.80671e-06
4.98746e-05
1.18745e-05
4.68919e-05
2.32975e-05
4.12641e-05
3.18415e-05
3.34863e-05
3.71802e-05
2.42491e-05
3.93351e-05
1.42884e-05
3.85182e-05
4.23608e-06
3.50261e-05
-5.4082e-06
2.92164e-05
-1.42556e-05
2.14877e-05
-2.19618e-05
1.22158e-05
-2.835e-05
1.68526e-06
-3.33051e-05
-9.74686e-06
-3.66564e-05
-2.17276e-05
-3.80168e-05
-3.40877e-05
-3.75813e-05
-4.65226e-05
-3.59698e-05
-3.26907e-05
-5.85011e-05
-5.51611e-05
-1.70613e-05
-5.89687e-05
-9.72333e-06
-6.02058e-05
-1.36489e-06
-5.86928e-05
7.43899e-06
-5.44409e-05
1.60692e-05
-4.76417e-05
2.39436e-05
-3.86414e-05
3.05264e-05
-2.80079e-05
3.52979e-05
-1.66799e-05
3.80156e-05
-5.38945e-06
3.85842e-05
4.95001e-06
3.65524e-05
1.37099e-05
3.25042e-05
2.03946e-05
2.68015e-05
2.47212e-05
1.99225e-05
2.66288e-05
1.23809e-05
2.62098e-05
4.65507e-06
2.36523e-05
-2.85072e-06
1.91842e-05
-9.78747e-06
1.31032e-05
-1.58807e-05
5.69266e-06
-2.09395e-05
-2.82304e-06
-2.47894e-05
-1.21533e-05
-2.73262e-05
-2.1933e-05
-2.82371e-05
-3.19222e-05
-2.75921e-05
-4.20057e-05
-2.58863e-05
-2.29885e-05
-5.17078e-05
-4.57967e-05
-1.27376e-05
-4.85455e-05
-6.97449e-06
-4.93841e-05
-5.26302e-07
-4.81558e-05
6.2107e-06
-4.48685e-05
1.27819e-05
-3.9689e-05
1.87641e-05
-3.29302e-05
2.37676e-05
-2.50348e-05
2.74025e-05
-1.65688e-05
2.95496e-05
-8.02541e-06
3.00409e-05
-1.45146e-07
2.86722e-05
6.59528e-06
2.57638e-05
1.18264e-05
2.15704e-05
1.5309e-05
1.64399e-05
1.69517e-05
1.07382e-05
1.67795e-05
4.82729e-06
1.48911e-05
-9.62311e-07
1.14559e-05
-6.35229e-06
6.68089e-06
-1.11057e-05
7.62159e-07
-1.50207e-05
-6.06263e-06
-1.79646e-05
-1.36016e-05
-1.97873e-05
-2.15172e-05
-2.03214e-05
-2.95044e-05
-1.96049e-05
-3.75625e-05
-1.78282e-05
-1.50988e-05
-4.54522e-05
-3.87102e-05
-9.51621e-06
-4.07017e-05
-4.98306e-06
-4.12444e-05
1.64297e-08
-4.02312e-05
5.19751e-06
-3.7685e-05
1.02357e-05
-3.37396e-05
1.48187e-05
-2.86134e-05
1.86414e-05
-2.26482e-05
2.14374e-05
-1.62738e-05
2.31751e-05
-9.81901e-06
2.35861e-05
-3.82512e-06
2.26783e-05
1.35472e-06
2.0584e-05
5.42812e-06
1.7497e-05
8.19761e-06
1.36704e-05
9.5626e-06
9.37322e-06
9.51109e-06
4.8788e-06
8.10462e-06
4.44162e-07
5.44853e-06
-3.69618e-06
1.68553e-06
-7.34268e-06
-3.00683e-06
-1.03284e-05
-8.46008e-06
-1.25113e-05
-1.44824e-05
-1.37649e-05
-2.0793e-05
-1.40109e-05
-2.71707e-05
-1.32271e-05
-3.35076e-05
-1.14913e-05
-8.76297e-06
-3.98434e-05
-3.31128e-05
-7.09084e-06
-3.45812e-05
-3.51467e-06
-3.49493e-05
3.8456e-07
-3.41485e-05
4.39667e-06
-3.21986e-05
8.28575e-06
-2.91953e-05
1.18155e-05
-2.53047e-05
1.47508e-05
-2.08235e-05
1.69561e-05
-1.59909e-05
1.83426e-05
-1.11042e-05
1.86994e-05
-6.52229e-06
1.80964e-05
-2.52912e-06
1.65908e-05
6.41992e-07
1.43259e-05
2.82998e-06
1.14824e-05
3.94314e-06
8.26007e-06
3.95529e-06
4.86666e-06
2.89411e-06
1.50534e-06
8.34342e-07
-1.63641e-06
-2.11701e-06
-4.39132e-06
-5.82985e-06
-6.61553e-06
-1.01528e-05
-8.1884e-06
-1.49084e-05
-9.00927e-06
-1.99083e-05
-9.01101e-06
-2.49614e-05
-8.17403e-06
-2.99721e-05
-6.4806e-06
-3.80885e-06
-3.49262e-05
-2.87054e-05
-5.23724e-06
-2.98145e-05
-2.4056e-06
-3.00814e-05
6.51428e-07
-2.94608e-05
3.77612e-06
-2.79696e-05
6.79454e-06
-2.56782e-05
9.52412e-06
-2.27366e-05
1.18091e-05
-1.93539e-05
1.35734e-05
-1.56612e-05
1.465e-05
-1.19481e-05
1.49863e-05
-8.44673e-06
1.4595e-05
-5.37832e-06
1.35224e-05
-2.92245e-06
1.187e-05
-1.20863e-06
9.76863e-06
-3.16924e-07
7.36836e-06
-2.78945e-07
4.82868e-06
-1.08216e-06
2.30857e-06
-2.67699e-06
-4.15787e-08
-4.98328e-06
-2.08502e-06
-7.8969e-06
-3.7019e-06
-1.12949e-05
-4.79035e-06
-1.50358e-05
-5.26845e-06
-1.89708e-05
-5.07596e-06
-2.29729e-05
-4.17196e-06
-2.69426e-05
-2.51089e-06
-1.73682e-08
-3.0734e-05
-2.52225e-05
-3.80204e-06
-2.60772e-05
-1.55087e-06
-2.62837e-05
8.57892e-07
-2.58137e-05
3.30611e-06
-2.46796e-05
5.66045e-06
-2.2944e-05
7.78859e-06
-2.07367e-05
9.60186e-06
-1.81516e-05
1.09882e-05
-1.53484e-05
1.18468e-05
-1.25203e-05
1.21582e-05
-9.84238e-06
1.19171e-05
-7.48218e-06
1.11622e-05
-5.57799e-06
9.96587e-06
-4.23456e-06
8.42521e-06
-3.51996e-06
6.65376e-06
-3.46531e-06
4.77404e-06
-4.06705e-06
2.91032e-06
-5.29102e-06
1.1824e-06
-7.07709e-06
-2.98951e-07
-9.3438e-06
-1.43519e-06
-1.19926e-05
-2.1415e-06
-1.49134e-05
-2.34771e-06
-1.79909e-05
-1.99844e-06
-2.11118e-05
-1.05102e-06
-2.41537e-05
5.31029e-07
2.7795e-06
-2.69506e-05
-2.24497e-05
-2.67352e-06
-2.31266e-05
-8.73923e-07
-2.33046e-05
1.03586e-06
-2.29588e-05
2.96036e-06
-2.21133e-05
4.81495e-06
-2.08178e-05
6.49302e-06
-1.91455e-05
7.92962e-06
-1.71733e-05
9.01602e-06
-1.50418e-05
9.71526e-06
-1.2882e-05
9.99834e-06
-1.08295e-05
9.86468e-06
-9.01059e-06
9.34327e-06
-7.53212e-06
8.48741e-06
-6.47695e-06
7.37004e-06
-5.90116e-06
6.07797e-06
-5.83274e-06
4.70563e-06
-6.27253e-06
3.35011e-06
-7.19698e-06
2.10686e-06
-8.56109e-06
1.06516e-06
-1.03012e-05
3.04971e-07
-1.23389e-05
-1.03807e-07
-1.45844e-05
-1.02207e-07
-1.6939e-05
3.56101e-07
-1.92922e-05
1.30218e-06
-2.15141e-05
2.75293e-06
4.71379e-06
-2.34484e-05
-2.02362e-05
-1.77114e-06
-2.0786e-05
-3.2416e-07
-2.09521e-05
1.20192e-06
-2.072e-05
2.72831e-06
-2.01035e-05
4.19843e-06
-1.91392e-05
5.52876e-06
-1.78657e-05
6.65612e-06
-1.63723e-05
7.52264e-06
-1.47506e-05
8.09352e-06
-1.31011e-05
8.34883e-06
-1.1525e-05
8.2886e-06
-1.01178e-05
7.93606e-06
-8.96237e-06
7.33203e-06
-8.12418e-06
6.53185e-06
-7.64875e-06
5.60255e-06
-7.56095e-06
4.61783e-06
-7.86425e-06
3.65341e-06
-8.54213e-06
2.78474e-06
-9.56082e-06
2.08386e-06
-1.08703e-05
1.61445e-06
-1.24061e-05
1.43199e-06
-1.40926e-05
1.5843e-06
-1.58438e-05
2.1073e-06
-1.75599e-05
3.0183e-06
-1.91246e-05
4.31763e-06
6.00343e-06
-2.04142e-05
-1.84597e-05
-1.02932e-06
-1.89267e-05
1.4279e-07
-1.90935e-05
1.3688e-06
-1.89566e-05
2.59143e-06
-1.85132e-05
3.75502e-06
-1.7794e-05
4.80954e-06
-1.68426e-05
5.70471e-06
-1.57148e-05
6.39486e-06
-1.44813e-05
6.86e-06
-1.32179e-05
7.0854e-06
-1.20004e-05
7.07115e-06
-1.09026e-05
6.83824e-06
-9.98884e-06
6.4183e-06
-9.31105e-06
5.85406e-06
-8.90621e-06
5.19771e-06
-8.79542e-06
4.50705e-06
-8.98372e-06
3.84171e-06
-9.45945e-06
3.26048e-06
-1.0196e-05
2.82041e-06
-1.11543e-05
2.57277e-06
-1.22814e-05
2.55907e-06
-1.3513e-05
2.81595e-06
-1.4777e-05
3.37133e-06
-1.59911e-05
4.23239e-06
-1.70597e-05
5.38619e-06
6.8279e-06
-1.78842e-05
-1.70255e-05
-4.02837e-07
-1.74379e-05
5.55186e-07
-1.76142e-05
1.54512e-06
-1.75477e-05
2.52496e-06
-1.72444e-05
3.45173e-06
-1.67255e-05
4.29064e-06
-1.60233e-05
5.0025e-06
-1.51752e-05
5.54675e-06
-1.42373e-05
5.9221e-06
-1.32669e-05
6.11507e-06
-1.23205e-05
6.12466e-06
-1.14557e-05
5.97345e-06
-1.07229e-05
5.68553e-06
-1.01626e-05
5.2938e-06
-9.80535e-06
4.84043e-06
-9.66851e-06
4.37021e-06
-9.75732e-06
3.93053e-06
-1.00652e-05
3.56832e-06
-1.057e-05
3.32522e-06
-1.12411e-05
3.24392e-06
-1.20373e-05
3.3553e-06
-1.29042e-05
3.68277e-06
-1.37815e-05
4.24867e-06
-1.46044e-05
5.05527e-06
-1.52961e-05
6.0779e-06
7.30759e-06
-1.57758e-05
-1.58537e-05
1.41392e-07
-1.62301e-05
9.31541e-07
-1.64218e-05
1.73682e-06
-1.6423e-05
2.52616e-06
-1.62367e-05
3.26546e-06
-1.58783e-05
3.9322e-06
-1.53724e-05
4.49661e-06
-1.47415e-05
4.91589e-06
-1.40315e-05
5.21208e-06
-1.32848e-05
5.36837e-06
-1.25427e-05
5.38257e-06
-1.18518e-05
5.28255e-06
-1.12518e-05
5.08552e-06
-1.0774e-05
4.81605e-06
-1.04435e-05
4.50984e-06
-1.02756e-05
4.20233e-06
-1.02736e-05
3.92852e-06
-1.04316e-05
3.72638e-06
-1.0737e-05
3.63058e-06
-1.11595e-05
3.66649e-06
-1.1676e-05
3.87174e-06
-1.22382e-05
4.24503e-06
-1.27986e-05
4.80902e-06
-1.33091e-05
5.56579e-06
-1.3701e-05
6.46981e-06
7.5286e-06
-1.3922e-05
-1.48883e-05
6.29768e-07
-1.52482e-05
1.29139e-06
-1.54635e-05
1.95217e-06
-1.55279e-05
2.59058e-06
-1.54421e-05
3.17965e-06
-1.5216e-05
3.70611e-06
-1.4867e-05
4.14764e-06
-1.44044e-05
4.45329e-06
-1.38699e-05
4.6776e-06
-1.329e-05
4.78845e-06
-1.2694e-05
4.78656e-06
-1.21249e-05
4.7134e-06
-1.16109e-05
4.57158e-06
-1.11775e-05
4.38263e-06
-1.08439e-05
4.17629e-06
-1.06224e-05
3.98077e-06
-1.05194e-05
3.82553e-06
-1.05247e-05
3.73169e-06
-1.0642e-05
3.74794e-06
-1.08379e-05
3.86235e-06
-1.11046e-05
4.13843e-06
-1.14121e-05
4.55253e-06
-1.17385e-05
5.13538e-06
-1.20166e-05
5.84398e-06
-1.21512e-05
6.60434e-06
7.55452e-06
-1.21771e-05
-1.40861e-05
1.08151e-06
-1.44438e-05
1.64912e-06
-1.46853e-05
2.19365e-06
-1.48011e-05
2.70639e-06
-1.48008e-05
3.17933e-06
-1.46782e-05
3.58351e-06
-1.44489e-05
3.91831e-06
-1.41017e-05
4.10611e-06
-1.36868e-05
4.26268e-06
-1.32189e-05
4.32055e-06
-1.27047e-05
4.27237e-06
-1.21977e-05
4.20646e-06
-1.1711e-05
4.08486e-06
-1.12679e-05
3.93951e-06
-1.08871e-05
3.79547e-06
-1.05771e-05
3.67079e-06
-1.03474e-05
3.59582e-06
-1.0195e-05
3.57929e-06
-1.01174e-05
3.67042e-06
-1.01054e-05
3.85029e-06
-1.01249e-05
4.15794e-06
-1.01615e-05
4.58912e-06
-1.01535e-05
5.12738e-06
-1.01273e-05
5.81785e-06
-1.02012e-05
6.67818e-06
7.54751e-06
-1.01941e-05
-1.33978e-05
1.51528e-06
-1.37474e-05
1.99874e-06
-1.40167e-05
2.46293e-06
-1.41751e-05
2.86484e-06
-1.42312e-05
3.23536e-06
-1.41872e-05
3.53953e-06
-1.40308e-05
3.76191e-06
-1.37638e-05
3.83916e-06
-1.3404e-05
3.90284e-06
-1.2965e-05
3.88158e-06
-1.24661e-05
3.77345e-06
-1.19276e-05
3.66799e-06
-1.13839e-05
3.54118e-06
-1.08591e-05
3.41471e-06
-1.0369e-05
3.30531e-06
-9.92362e-06
3.22543e-06
-9.52288e-06
3.19508e-06
-9.17598e-06
3.2324e-06
-8.86317e-06
3.35761e-06
-8.59035e-06
3.57747e-06
-8.33496e-06
3.90256e-06
-8.08493e-06
4.3391e-06
-7.84929e-06
4.89174e-06
-7.57365e-06
5.54221e-06
-7.17758e-06
6.28212e-06
7.07008e-06
-6.70015e-06
-1.27051e-05
1.9175e-06
-1.30324e-05
2.32607e-06
-1.32875e-05
2.71801e-06
-1.34559e-05
3.03328e-06
-1.35302e-05
3.30965e-06
-1.34829e-05
3.49223e-06
-1.33021e-05
3.58113e-06
-1.303e-05
3.56708e-06
-1.26291e-05
3.50195e-06
-1.21171e-05
3.36954e-06
-1.15391e-05
3.19549e-06
-1.08885e-05
3.01735e-06
-1.01962e-05
2.84889e-06
-9.48959e-06
2.70808e-06
-8.78137e-06
2.5971e-06
-8.07727e-06
2.52133e-06
-7.3876e-06
2.50541e-06
-6.71873e-06
2.56353e-06
-6.06678e-06
2.70565e-06
-5.42839e-06
2.93909e-06
-4.79252e-06
3.26669e-06
-4.14583e-06
3.6924e-06
-3.45429e-06
4.20021e-06
-2.71535e-06
4.80328e-06
-1.94277e-06
5.50954e-06
6.25786e-06
-1.13055e-06
-1.1942e-05
2.20018e-06
-1.21629e-05
2.547e-06
-1.22955e-05
2.85062e-06
-1.23278e-05
3.06559e-06
-1.23232e-05
3.30499e-06
-1.21254e-05
3.29447e-06
-1.17678e-05
3.22349e-06
-1.13158e-05
3.11509e-06
-1.07051e-05
2.8913e-06
-9.9463e-06
2.61072e-06
-9.06532e-06
2.31451e-06
-8.08914e-06
2.04118e-06
-7.05012e-06
1.80987e-06
-5.95794e-06
1.6159e-06
-4.83469e-06
1.47385e-06
-3.71725e-06
1.4039e-06
-2.61513e-06
1.40329e-06
-1.52665e-06
1.47505e-06
-4.48675e-07
1.62768e-06
6.23688e-07
1.86673e-06
1.69878e-06
2.1916e-06
2.79005e-06
2.60114e-06
3.89967e-06
3.09059e-06
5.03754e-06
3.66541e-06
6.23628e-06
4.3108e-06
4.99557e-06
7.49857e-06
-1.0563e-05
2.1689e-06
-1.04396e-05
2.42355e-06
-1.02106e-05
2.62165e-06
-9.86803e-06
2.72301e-06
-9.39895e-06
2.8359e-06
-8.7843e-06
2.67983e-06
-8.01226e-06
2.45145e-06
-7.08361e-06
2.18644e-06
-6.00164e-06
1.80932e-06
-4.77613e-06
1.38522e-06
-3.42718e-06
9.65548e-07
-2.01193e-06
6.25938e-07
-5.70293e-07
3.68232e-07
8.63671e-07
1.81943e-07
2.27144e-06
6.60673e-08
3.64883e-06
2.65291e-08
4.98723e-06
6.48786e-08
6.28882e-06
1.73469e-07
7.56305e-06
3.53446e-07
8.82758e-06
6.02207e-07
1.01069e-05
9.12242e-07
1.1433e-05
1.27511e-06
1.28367e-05
1.68688e-06
1.44091e-05
2.09298e-06
1.61938e-05
2.52614e-06
3.03749e-06
1.81519e-05
-7.38706e-06
1.45788e-06
-6.54069e-06
1.57716e-06
-5.56451e-06
1.64548e-06
-4.49551e-06
1.65398e-06
-3.26491e-06
1.60532e-06
-2.00055e-06
1.41545e-06
-6.64877e-07
1.1158e-06
7.59393e-07
7.62152e-07
2.33275e-06
2.35993e-07
4.04098e-06
-3.23033e-07
5.70232e-06
-6.95771e-07
7.20344e-06
-8.75204e-07
8.5171e-06
-9.45399e-07
9.64083e-06
-9.41815e-07
1.05896e-05
-8.8266e-07
1.13977e-05
-7.81587e-07
1.21132e-05
-6.50631e-07
1.27909e-05
-5.04271e-07
1.34914e-05
-3.47038e-07
1.42806e-05
-1.87014e-07
1.52326e-05
-3.9656e-08
1.64138e-05
9.38933e-08
1.78725e-05
2.28157e-07
1.95441e-05
4.21404e-07
2.14315e-05
6.38719e-07
8.52933e-07
2.3616e-05
-2.4056e-07
1.33661e-06
2.98208e-06
4.63608e-06
6.24138e-06
7.65685e-06
8.77263e-06
9.5348e-06
9.77077e-06
9.44776e-06
8.75197e-06
7.87679e-06
6.93137e-06
5.98957e-06
5.10689e-06
4.32533e-06
3.67468e-06
3.17043e-06
2.82337e-06
2.63638e-06
2.5967e-06
2.69062e-06
2.91876e-06
3.34019e-06
3.97888e-06
4.83185e-06
0.000521032
-0.000180317
0.000136494
0.000464883
-0.000203121
0.00025927
0.000283612
-0.000242682
0.000423954
5.51586e-05
-0.000286001
0.000514454
-0.000161121
-0.000350186
0.000566465
-0.000417326
-0.000420338
0.000676544
-0.000590898
-0.000420338
0.00059391
-0.000750146
-0.000390167
0.000549415
-0.000900713
-0.000295109
0.000445676
-0.0010325
-0.000152469
0.000284261
-0.00113435
2.78787e-05
7.3965e-05
-0.00119549
0.000232097
-0.000170956
-0.00120937
0.000441692
-0.000427814
-0.00119231
0.000657114
-0.000674175
-0.00118307
0.000899616
-0.000908852
-0.00115103
0.00112361
-0.00115566
-0.00101467
0.00124507
-0.00138142
-0.000760856
0.00117043
-0.00142425
-0.000476391
0.00101903
-0.00130349
-0.000213766
0.000842922
-0.00110555
3.32526e-06
0.000660004
-0.000877095
0.00017114
0.000489604
-0.000657419
0.000299665
0.000338837
-0.000467362
0.00039453
0.00020939
-0.000304255
0.000456769
0.000104031
-0.00016627
0.000483161
2.71745e-05
-5.35664e-05
0.00048852
-2.29103e-05
1.75513e-05
0.000481032
-5.40868e-05
6.15749e-05
0.000468887
-7.43995e-05
8.65447e-05
0.000457584
-8.79031e-05
9.92058e-05
0.000449491
-9.75064e-05
0.000105599
0.000446543
-0.000105143
0.000108091
0.00044842
-0.000111874
0.000109997
0.000451938
-0.000119794
0.000116276
0.000455872
-0.000132695
0.00012876
0.000467803
-0.000151721
0.00013979
0.000503763
-0.000168928
0.000132968
0.000574771
-0.000166314
9.5307e-05
0.00066303
-0.000135333
4.70734e-05
0.000714253
-0.000102509
5.1286e-05
0.00067947
-0.000129024
0.000163807
0.000549281
-0.000259588
0.000389778
0.000345454
-0.000483919
0.000687745
0.000129966
-0.00074432
0.000959809
-7.81294e-05
-0.000966897
0.00117499
-0.000258118
-0.00112559
0.00130558
-0.000370818
-0.00119502
0.00130772
-0.000437287
-0.00116017
0.00122664
-0.000469759
-0.00106786
0.00110034
-0.000473079
-0.00094521
0.000948529
-0.00045403
-0.000808189
0.00078914
-0.00041977
-0.000670319
0.000636059
-0.000377026
-0.00054168
0.000498936
-0.000330971
-0.000429089
0.000383034
-0.000284954
-0.000336765
0.000290748
-0.0002408
-0.000267963
0.000223808
-0.000200143
-0.000225482
0.000184825
-0.00016591
-0.00020901
0.000174777
-0.000141778
-0.000210282
0.00018615
-0.000129603
-0.000214546
0.000202371
-0.000127194
-0.000209237
0.000206828
-0.000127535
-0.000188438
0.000188779
-0.000130634
-0.000149647
0.000152746
-0.000146125
-8.10588e-05
9.655e-05
-0.000175394
4.08191e-05
-1.15506e-05
-0.000195602
0.000225741
-0.000205533
-0.000204324
0.000458088
-0.000449366
-0.000206741
0.000710146
-0.000707728
-0.000202146
0.000962839
-0.000967435
-0.000190093
0.00119668
-0.00120873
-0.000170961
0.00138959
-0.00140872
-0.000144877
0.00151375
-0.00153984
-0.000109447
0.00152642
-0.00156185
-6.94373e-05
0.00145874
-0.00149875
-2.63947e-05
0.0013326
-0.00137564
1.76053e-05
0.00116472
-0.00120872
6.05191e-05
0.000973302
-0.00101622
0.000100598
0.000775747
-0.000815826
0.000136789
0.000586426
-0.000622617
0.000168889
0.000415174
-0.000447273
0.000197956
0.000265477
-0.000294544
0.000226025
0.000134207
-0.000162275
0.000249471
2.34581e-05
-4.69039e-05
0.000265985
-5.54542e-05
3.89404e-05
0.000278104
-0.00010666
9.45405e-05
0.00028796
-0.000136976
0.000127119
0.000297628
-0.000152194
0.000142527
0.000308758
-0.000156878
0.000145749
0.000321864
-0.000154476
0.00014137
0.000335743
-0.000148557
0.000134678
0.000347502
-0.000144155
0.000132396
0.000353325
-0.000147855
0.000142032
0.000349654
-0.000166291
0.000169962
0.000334349
-0.000203972
0.000219276
0.000307341
-0.000261442
0.000288451
0.000270506
-0.000334698
0.000371533
0.000226892
-0.000416209
0.000459823
0.000179721
-0.000497028
0.000544199
0.000131639
-0.000569024
0.000617105
8.44163e-05
-0.000626385
0.000673608
3.92133e-05
-0.000665921
0.000711124
-2.31655e-06
-0.000686137
0.000727666
-4.01337e-05
-0.000686278
0.000724095
-7.41833e-05
-0.000673262
0.000707311
-0.000103602
-0.000649194
0.000678613
-0.000127523
-0.000615991
0.000639912
-0.000145402
-0.000575832
0.00059371
-0.000157093
-0.000531036
0.000542727
-0.000162867
-0.000483821
0.000489595
-0.000163387
-0.000436039
0.00043656
-0.000159603
-0.000388956
0.000385172
-0.000152574
-0.00034313
0.000336101
-0.000143344
-0.000298498
0.000289268
-0.000132901
-0.000254586
0.000244143
-0.00012223
-0.000210702
0.000200031
-0.00016606
0.000156286
0.000234651
-0.000205465
0.000256912
-0.000225382
0.000256876
-0.000242646
0.000216533
-0.000245658
0.000106084
-0.000239737
-0.000100415
-0.00021384
-0.000301387
-0.000219367
-0.000530503
-0.00016105
-0.000731444
-9.41681e-05
-0.00089061
6.69609e-06
-0.00100556
0.000142833
-0.00108365
0.000310178
-0.00114268
0.000500726
-0.0011932
0.000707634
-0.00118536
0.000891778
-0.00103104
0.000969292
-0.000731864
0.000945894
-0.000417983
0.000856553
-0.000136581
0.000737626
8.22524e-05
0.000624089
0.000242911
0.000499345
0.000363988
0.000368528
0.000448305
0.000254519
0.000499015
0.00015868
0.000518656
8.43911e-05
0.00051586
2.99698e-05
0.000502114
-9.16368e-06
0.000485398
-3.73709e-05
0.000469064
-5.8066e-05
0.000455092
-7.39308e-05
0.000444638
-8.70523e-05
0.000438611
-9.91155e-05
0.000437653
-0.000110916
0.000440514
-0.000122655
0.000443646
-0.000135826
0.000446752
-0.000154828
0.000458523
-0.000180699
0.000495758
-0.000203549
0.000566038
-0.000205613
0.000644978
-0.000181449
0.000675862
-0.000159908
0.000614451
-0.000198178
0.000460878
-0.000330345
0.000251665
-0.000535107
3.74416e-05
-0.000752674
-0.000154089
-0.000934059
-0.000301597
-0.00104752
-0.000390453
-0.00107131
-0.000440967
-0.00101735
-0.00046152
-0.000924657
-0.000458047
-0.000811661
-0.000437053
-0.000691314
-0.000404825
-0.000573908
-0.000366425
-0.000467488
-0.000325598
-0.000377593
-0.000285165
-0.000308395
-0.000248156
-0.000262491
-0.000218431
-0.000238734
-0.000199039
-0.000229675
-0.000189856
-0.000223729
-0.000188133
-0.000210961
-0.00019179
-0.00018478
-0.000203071
-0.000138367
-0.000225577
-5.85529e-05
-0.00025303
6.82724e-05
-0.000274108
0.000246819
-0.00028273
0.000466709
-0.000279629
0.000707045
-0.000265376
0.000948586
-0.000240435
0.00117173
-0.000205775
0.00135493
-0.000162212
0.00147019
-0.000110092
0.0014743
-5.51578e-05
0.00140381
3.99965e-07
0.00127704
5.41858e-05
0.00111093
0.000104121
0.000923367
0.00014867
0.000731198
0.000187197
0.000547899
0.000220409
0.000381962
0.000250068
0.000235817
0.000275974
0.000108301
0.000293955
5.4769e-06
0.000304843
-6.63423e-05
0.000311118
-0.000112935
0.00031495
-0.000140808
0.000318473
-0.000155717
0.000323579
-0.000161984
0.000331409
-0.000162307
0.000341606
-0.000158753
0.000351814
-0.000154363
0.000358161
-0.000154202
0.000356547
-0.000164676
0.000343891
-0.000191317
0.00031901
-0.000236561
0.000283023
-0.000298711
0.000238825
-0.000372011
0.000190047
-0.00044825
0.000140042
-0.000519019
9.12798e-05
-0.000577623
4.53291e-05
-0.00061997
3.4695e-06
-0.000644277
-3.35869e-05
-0.000649221
-6.68946e-05
-0.000639954
-9.57761e-05
-0.000620313
-0.000119636
-0.000592132
-0.000138069
-0.000557398
-0.000150997
-0.000518108
-0.000158695
-0.000476123
-0.00016176
-0.000432974
-0.000161013
-0.000389703
-0.000157375
-0.000346768
-0.000151786
-0.000304087
-0.000145186
-0.000261187
-0.000138521
-0.000217367
-0.000171845
-2.45346e-05
-0.000202468
-4.27306e-05
-0.000207186
-7.84912e-05
-0.000206885
-0.000126895
-0.000197255
-0.000187454
-0.000179177
-0.000249771
-0.000151523
-0.00035703
-0.000112108
-0.000475757
-4.23236e-05
-0.000612983
4.30579e-05
-0.000748133
0.000141845
-0.000865515
0.000260216
-0.000951686
0.000396349
-0.000982298
0.000531338
-0.000910254
0.00063559
-0.000726586
0.000708111
-0.000465867
0.000708573
-0.000195242
0.000675268
1.55406e-05
0.000645771
0.000154497
0.000598671
0.000281602
0.000496984
0.000393653
0.000387293
0.000465794
0.000296388
0.000506684
0.000213629
0.000521862
0.000143502
0.000518845
8.74085e-05
0.000505801
4.30134e-05
0.000488508
8.12887e-06
0.000470581
-1.94437e-05
0.000454254
-4.17387e-05
0.000440712
-6.03886e-05
0.00043047
-7.68104e-05
0.000423704
-9.23503e-05
0.000420704
-0.000107916
0.000421512
-0.000123462
0.00042452
-0.000138835
0.000426443
-0.00015675
0.000426914
-0.00018117
0.000435541
-0.000212175
0.000469605
-0.000239678
0.00053513
-0.000246974
0.000604792
-0.000229569
0.000620755
-0.000214141
0.000542232
-0.000251821
0.000377111
-0.000369987
0.00016955
-0.000545112
-3.73588e-05
-0.00072715
-0.000212127
-0.000872748
-0.000332764
-0.000950678
-0.000402632
-0.000947483
-0.000440209
-0.00088708
-0.000452142
-0.000799728
-0.000444513
-0.000698944
-0.000423127
-0.000595293
-0.000393094
-0.000497521
-0.000358575
-0.000412112
-0.000323262
-0.000343708
-0.000291014
-0.00029474
-0.000265738
-0.00026401
-0.000249875
-0.000245538
-0.000243308
-0.000230296
-0.000244632
-0.000209637
-0.00025322
-0.000176191
-0.000270227
-0.00012136
-0.000295272
-3.35079e-05
-0.000322072
9.50724e-05
-0.000342072
0.000266819
-0.000348968
0.000473606
-0.000341323
0.000699399
-0.000319097
0.00092636
-0.000283321
0.00113596
-0.000235625
0.00130723
-0.000176443
0.00141101
-0.000110233
0.00140809
-4.24938e-05
0.00133607
2.38931e-05
0.00121066
8.62982e-05
0.00104853
0.000142598
0.000867067
0.000191493
0.000682304
0.00023275
0.000506642
0.000267387
0.000347324
0.000296681
0.000206523
0.000318857
8.61247e-05
0.000331599
-7.26453e-06
0.000337201
-7.19447e-05
0.000338193
-0.000113927
0.000336795
-0.00013941
0.000335053
-0.000153974
0.000334772
-0.000161703
0.000337318
-0.000164854
0.00034314
-0.000164575
0.000350958
-0.000162181
0.000357485
-0.00016073
0.000358222
-0.000165413
0.000349138
-0.000182233
0.000327962
-0.000215385
0.000294633
-0.000265382
0.000251399
-0.000328777
0.000201962
-0.000398813
0.000150287
-0.000467344
9.96422e-05
-0.000526978
5.22068e-05
-0.000572535
9.3059e-06
-0.000601376
-2.76906e-05
-0.000612225
-6.04956e-05
-0.000607149
-8.89539e-05
-0.000591855
-0.000112779
-0.000568307
-0.000131753
-0.000538424
-0.000145885
-0.000503976
-0.000155454
-0.000466554
-0.000160989
-0.000427439
-0.00016321
-0.000387482
-0.000162944
-0.000347034
-0.000161044
-0.000305987
-0.000158339
-0.000263892
-0.000155593
-0.000220113
-0.000173921
-0.000120821