/*--------------------------------*- C++ -*----------------------------------*\
| =========                 |                                                 |
| \\      /  F ield         | OpenFOAM: The Open Source CFD Toolbox           |
|  \\    /   O peration     | Version:  2206                                  |
|   \\  /    A nd           | Website:  www.openfoam.com                      |
|    \\/     M anipulation  |                                                 |
\*---------------------------------------------------------------------------*/
FoamFile
{
    version     2.0;
    format      ascii;
    arch        "LSB;label=32;scalar=64";
    class       volVectorField;
    location    "18.2001";
    object      ddt0(U);
}
// * * * * * * * * * * * * * * * * * * * * * * * * * * * * * * * * * * * * * //

dimensions      [0 1 -2 0 0 0 0];

internalField   nonuniform List<vector> 
3063
(
(25.5656 -14.6634 0)
(25.8072 -19.7764 0)
(25.2545 -24.4267 0)
(24.0254 -28.7151 0)
(22.2476 -32.6907 0)
(20.0278 -36.3328 0)
(17.4496 -39.5591 0)
(14.5772 -42.2327 0)
(11.4556 -44.1402 0)
(8.13717 -44.9085 0)
(4.81504 -44.7114 0)
(1.58542 -43.5515 0)
(-1.48288 -41.4458 0)
(-4.31572 -38.4543 0)
(-6.84558 -34.6832 0)
(-9.02743 -30.2744 0)
(-10.8412 -25.3881 0)
(-12.2924 -20.1691 0)
(-13.4947 -14.6855 0)
(-14.8209 -8.79051 0)
(-16.0281 -2.2751 0)
(-16.912 4.50238 0)
(-17.6221 11.3955 0)
(-17.9798 18.2096 0)
(-18.0337 24.7194 0)
(-17.8284 30.7627 0)
(-17.3688 36.1784 0)
(-16.6423 40.772 0)
(-15.5857 44.264 0)
(-13.9898 46.1687 0)
(-11.7914 46.1435 0)
(-9.25953 44.7496 0)
(-6.42732 42.1083 0)
(-3.34475 38.5034 0)
(-0.244252 34.2464 0)
(2.69754 29.4188 0)
(5.46284 24.1499 0)
(8.11108 18.7039 0)
(10.855 13.1317 0)
(13.6901 7.29307 0)
(15.9484 1.59595 0)
(17.8144 -3.57063 0)
(19.0596 -8.32043 0)
(19.6525 -12.6482 0)
(19.6235 -16.5711 0)
(19.0272 -20.1295 0)
(17.9466 -23.359 0)
(16.4647 -26.2665 0)
(14.6548 -28.8213 0)
(12.578 -30.9515 0)
(10.2741 -32.5301 0)
(7.77361 -33.3089 0)
(5.23493 -33.3729 0)
(2.7445 -32.7394 0)
(0.347277 -31.4158 0)
(-1.90498 -29.4359 0)
(-3.96166 -26.8661 0)
(-5.78447 -23.7989 0)
(-7.3539 -20.3433 0)
(-8.66674 -16.5992 0)
(-9.77025 -12.6224 0)
(-10.8916 -8.35845 0)
(-12.0428 -3.66651 0)
(-12.8986 1.29671 0)
(-13.6602 6.36335 0)
(-14.1727 11.4471 0)
(-14.4269 16.3752 0)
(-14.4453 21.002 0)
(-14.2273 25.1952 0)
(-13.7576 28.8046 0)
(-12.9923 31.6403 0)
(-11.8056 33.4223 0)
(-10.0868 33.7899 0)
(-8.08788 33.1765 0)
(-5.9144 31.6799 0)
(-3.65606 29.4421 0)
(-1.0078 26.6621 0)
(0.431496 23.2995 0)
(3.37695 19.5869 0)
(5.36747 15.6994 0)
(7.35431 11.7754 0)
(9.55447 7.65422 0)
(11.391 3.35797 0)
(12.9335 -0.627187 0)
(14.0859 -4.35642 0)
(14.7646 -7.83421 0)
(14.978 -11.0284 0)
(14.7502 -13.934 0)
(14.1299 -16.5584 0)
(13.176 -18.9049 0)
(11.9443 -20.9576 0)
(10.4841 -22.6781 0)
(8.83042 -23.9982 0)
(7.00022 -24.7644 0)
(5.09824 -24.9787 0)
(3.21257 -24.6925 0)
(1.37502 -23.9055 0)
(-0.378806 -22.634 0)
(-2.01041 -20.914 0)
(-3.48726 -18.8026 0)
(-4.78754 -16.3721 0)
(-5.90189 -13.6989 0)
(-6.8346 -10.8435 0)
(-7.67388 -7.82067 0)
(-8.60321 -4.54594 0)
(-9.3776 -0.974281 0)
(-10.0344 2.69086 0)
(-10.5572 6.4183 0)
(-10.8676 10.0992 0)
(-10.9746 13.6083 0)
(-10.883 16.8479 0)
(-10.5853 19.7207 0)
(-10.0684 22.1188 0)
(-9.29809 23.9094 0)
(-8.17215 24.8629 0)
(-6.73456 24.9389 0)
(-5.12919 24.3385 0)
(-3.4392 23.2129 0)
(-1.6 21.4789 0)
(0.13834 19.4635 0)
(2.05818 16.8999 0)
(3.40607 14.7394 0)
(5.91808 10.0283 0)
(28.9868 -15.1401 0)
(28.7652 -19.4028 0)
(27.7435 -23.3177 0)
(26.0639 -27.0035 0)
(23.8677 -30.4975 0)
(21.269 -33.7553 0)
(18.3499 -36.6682 0)
(15.1632 -39.0778 0)
(11.7404 -40.7494 0)
(8.17649 -41.4611 0)
(4.63576 -41.3109 0)
(1.18664 -40.2752 0)
(-2.10235 -38.3685 0)
(-5.15946 -35.6441 0)
(-7.92505 -32.1936 0)
(-10.3625 -28.1342 0)
(-12.459 -23.5844 0)
(-14.238 -18.6299 0)
(-15.8688 -13.2752 0)
(-17.5514 -7.41846 0)
(-18.7884 -1.10727 0)
(-19.8532 5.36164 0)
(-20.6108 11.939 0)
(-20.9995 18.4278 0)
(-21.048 24.6301 0)
(-20.7662 30.3772 0)
(-20.1432 35.4838 0)
(-19.1379 39.7155 0)
(-17.6102 42.7243 0)
(-15.2995 43.8952 0)
(-12.4578 43.4854 0)
(-9.33922 41.753 0)
(-5.94715 38.8214 0)
(-2.28927 35.2059 0)
(0.684853 31.0872 0)
(4.58379 26.3004 0)
(7.65818 21.1452 0)
(10.9405 15.7893 0)
(14.3032 10.1845 0)
(17.0501 4.59638 0)
(19.3435 -0.430794 0)
(20.9716 -4.98987 0)
(21.8917 -9.09074 0)
(22.1362 -12.7641 0)
(21.7449 -16.0835 0)
(20.7904 -19.1187 0)
(19.3655 -21.9119 0)
(17.5604 -24.4639 0)
(15.4514 -26.7315 0)
(13.0907 -28.6251 0)
(10.509 -29.9802 0)
(7.79908 -30.6826 0)
(5.08447 -30.7589 0)
(2.41624 -30.1934 0)
(-0.157057 -28.992 0)
(-2.58262 -27.1854 0)
(-4.81407 -24.8313 0)
(-6.82026 -22.0063 0)
(-8.58771 -18.7898 0)
(-10.1285 -15.2421 0)
(-11.5422 -11.3761 0)
(-12.9762 -7.14306 0)
(-14.164 -2.55874 0)
(-15.1729 2.17038 0)
(-15.9824 7.01104 0)
(-16.5146 11.8408 0)
(-16.7677 16.5064 0)
(-16.7378 20.8699 0)
(-16.4102 24.7848 0)
(-15.7514 28.0759 0)
(-14.6682 30.5105 0)
(-12.9694 31.691 0)
(-10.8085 31.7306 0)
(-8.37759 30.867 0)
(-5.76145 29.2131 0)
(-3.0562 26.9307 0)
(-0.265079 24.1544 0)
(2.48605 20.8289 0)
(5.02721 17.1679 0)
(7.44468 13.4543 0)
(9.96014 9.57237 0)
(12.2023 5.4872 0)
(14.0575 1.65824 0)
(15.4837 -1.88239 0)
(16.4011 -5.15868 0)
(16.8198 -8.15431 0)
(16.758 -10.8839 0)
(16.2512 -13.3699 0)
(15.357 -15.6329 0)
(14.1395 -17.6781 0)
(12.6579 -19.4852 0)
(10.9549 -21.0038 0)
(9.05955 -22.1363 0)
(7.03407 -22.7954 0)
(4.98162 -23.0041 0)
(2.94923 -22.7503 0)
(0.970065 -22.0338 0)
(-0.919029 -20.8694 0)
(-2.68276 -19.2903 0)
(-4.29345 -17.345 0)
(-5.73507 -15.0906 0)
(-7.00474 -12.5794 0)
(-8.13393 -9.84138 0)
(-9.2321 -6.86242 0)
(-10.2928 -3.61525 0)
(-11.1261 -0.197619 0)
(-11.8519 3.2981 0)
(-12.3821 6.83608 0)
(-12.689 10.3058 0)
(-12.7666 13.599 0)
(-12.6024 16.6145 0)
(-12.1787 19.2446 0)
(-11.4616 21.3667 0)
(-10.371 22.8249 0)
(-8.82364 23.3574 0)
(-7.04203 23.2467 0)
(-5.08267 22.499 0)
(-3.04586 21.2873 0)
(-0.876879 19.4995 0)
(1.08109 17.5476 0)
(3.32385 15.0472 0)
(4.92135 12.8585 0)
(7.75733 8.33659 0)
(31.7781 -15.1315 0)
(31.0121 -18.5447 0)
(29.4793 -21.7359 0)
(27.3487 -24.845 0)
(24.7705 -27.8977 0)
(21.8514 -30.8165 0)
(18.6536 -33.458 0)
(15.2205 -35.645 0)
(11.5775 -37.1225 0)
(7.85713 -37.8192 0)
(4.16312 -37.7215 0)
(0.556734 -36.81 0)
(-2.89583 -35.097 0)
(-6.12899 -32.6285 0)
(-9.09163 -29.4784 0)
(-11.7548 -25.7342 0)
(-14.1164 -21.4734 0)
(-16.2371 -16.7382 0)
(-18.2596 -11.5177 0)
(-20.0561 -5.83045 0)
(-21.4568 0.138527 0)
(-22.6119 6.29032 0)
(-23.3934 12.5223 0)
(-23.7878 18.6463 0)
(-23.7955 24.4833 0)
(-23.4015 29.8523 0)
(-22.5671 34.5389 0)
(-21.1845 38.2427 0)
(-18.9835 40.4592 0)
(-15.9569 40.9577 0)
(-12.5074 40.1714 0)
(-8.84795 38.2112 0)
(-4.46678 35.3167 0)
(-1.57832 31.5868 0)
(2.66005 27.3872 0)
(6.70771 22.5872 0)
(10.4233 17.6254 0)
(14.3501 12.3294 0)
(17.6574 6.9413 0)
(20.4179 2.10008 0)
(22.454 -2.24692 0)
(23.7167 -6.10248 0)
(24.2449 -9.49276 0)
(24.0804 -12.5054 0)
(23.2871 -15.2327 0)
(21.9574 -17.7592 0)
(20.1945 -20.1362 0)
(18.0882 -22.3563 0)
(15.7098 -24.3568 0)
(13.1077 -26.0133 0)
(10.3487 -27.2202 0)
(7.51659 -27.8941 0)
(4.67948 -27.9901 0)
(1.887 -27.4956 0)
(-0.811781 -26.4157 0)
(-3.36909 -24.7781 0)
(-5.74617 -22.6288 0)
(-7.91912 -20.0225 0)
(-9.88452 -17.0096 0)
(-11.6843 -13.6213 0)
(-13.4097 -9.86093 0)
(-14.9722 -5.73913 0)
(-16.2494 -1.39055 0)
(-17.3493 3.10419 0)
(-18.1789 7.68991 0)
(-18.7125 12.2331 0)
(-18.935 16.5973 0)
(-18.8247 20.6413 0)
(-18.3451 24.201 0)
(-17.4112 27.0646 0)
(-15.8272 28.884 0)
(-13.5902 29.5089 0)
(-10.979 29.2241 0)
(-8.0968 28.1224 0)
(-5.04783 26.3277 0)
(-1.91984 23.9721 0)
(1.19815 21.1697 0)
(4.20324 17.9858 0)
(7.10193 14.5356 0)
(10.01 10.8863 0)
(12.6083 7.04189 0)
(14.8092 3.42917 0)
(16.5324 0.107837 0)
(17.7013 -2.93931 0)
(18.3348 -5.69669 0)
(18.4559 -8.18979 0)
(18.095 -10.4599 0)
(17.299 -12.5389 0)
(16.13 -14.4525 0)
(14.6568 -16.2084 0)
(12.9427 -17.7778 0)
(11.0251 -19.0799 0)
(8.96795 -20.0711 0)
(6.83173 -20.6896 0)
(4.6739 -20.8966 0)
(2.53341 -20.679 0)
(0.446437 -20.0356 0)
(-1.55157 -18.9796 0)
(-3.42986 -17.5386 0)
(-5.1665 -15.7495 0)
(-6.75137 -13.651 0)
(-8.19538 -11.2735 0)
(-9.55173 -8.63063 0)
(-10.8552 -5.72745 0)
(-11.928 -2.60635 0)
(-12.8608 0.615591 0)
(-13.6086 3.92885 0)
(-14.1314 7.25321 0)
(-14.4102 10.4845 0)
(-14.4219 13.5207 0)
(-14.1405 16.2561 0)
(-13.5271 18.5757 0)
(-12.5006 20.3305 0)
(-10.9392 21.2582 0)
(-9.03494 21.5255 0)
(-6.91192 21.2081 0)
(-4.62051 20.3285 0)
(-2.27528 19.0414 0)
(0.143082 17.2546 0)
(2.34782 15.4129 0)
(4.86731 12.864 0)
(6.71058 10.7115 0)
(9.70128 6.51967 0)
(33.667 -14.5096 0)
(32.2436 -17.0851 0)
(30.2596 -19.6594 0)
(27.8019 -22.3121 0)
(24.958 -25.0146 0)
(21.801 -27.6496 0)
(18.3926 -30.0406 0)
(14.7792 -31.9996 0)
(11.0256 -33.3718 0)
(7.21581 -34.053 0)
(3.42494 -34.0056 0)
(-0.286474 -33.2113 0)
(-3.85691 -31.6796 0)
(-7.23038 -29.4465 0)
(-10.3647 -26.5646 0)
(-13.2387 -23.0898 0)
(-15.8685 -19.0688 0)
(-18.317 -14.5341 0)
(-20.561 -9.51963 0)
(-22.3881 -4.14066 0)
(-23.9415 1.47004 0)
(-25.1352 7.27226 0)
(-25.9271 13.1153 0)
(-26.3015 18.8303 0)
(-26.2354 24.2411 0)
(-25.687 29.1403 0)
(-24.5582 33.2577 0)
(-22.6111 36.187 0)
(-19.637 37.4389 0)
(-16.0638 37.4397 0)
(-12.0913 36.2755 0)
(-7.88009 34.1423 0)
(-3.16931 31.3206 0)
(0.584894 27.5889 0)
(5.3529 23.1853 0)
(9.61109 18.5365 0)
(13.9563 13.6077 0)
(17.8032 8.53948 0)
(21.0591 3.95876 0)
(23.5035 -0.12935 0)
(25.1067 -3.71167 0)
(25.9053 -6.80006 0)
(25.9446 -9.46526 0)
(25.2595 -11.7991 0)
(24.0139 -13.9503 0)
(22.3556 -16.0283 0)
(20.34 -18.049 0)
(18.03 -19.9854 0)
(15.4806 -21.7618 0)
(12.7478 -23.2669 0)
(9.89479 -24.3816 0)
(6.98255 -25.0161 0)
(4.06162 -25.1271 0)
(1.18202 -24.6995 0)
(-1.61067 -23.734 0)
(-4.27592 -22.2498 0)
(-6.78307 -20.2767 0)
(-9.11825 -17.8493 0)
(-11.2944 -15.0015 0)
(-13.3508 -11.7569 0)
(-15.2366 -8.13656 0)
(-16.8424 -4.24217 0)
(-18.2452 -0.161056 0)
(-19.3795 4.0809 0)
(-20.2155 8.37498 0)
(-20.7278 12.5979 0)
(-20.8851 16.617 0)
(-20.6435 20.2755 0)
(-19.9117 23.3715 0)
(-18.488 25.5814 0)
(-16.2741 26.6539 0)
(-13.5717 26.855 0)
(-10.498 26.2428 0)
(-7.182 24.934 0)
(-3.74899 23.0476 0)
(-0.314694 20.6876 0)
(3.03798 17.9422 0)
(6.34841 14.8937 0)
(9.67944 11.5541 0)
(12.6198 7.96335 0)
(15.1714 4.63506 0)
(17.1885 1.58222 0)
(18.6087 -1.20156 0)
(19.4545 -3.69635 0)
(19.7517 -5.9245 0)
(19.5314 -7.92305 0)
(18.8177 -9.72479 0)
(17.7115 -11.3976 0)
(16.3111 -12.9924 0)
(14.6586 -14.4953 0)
(12.7974 -15.8629 0)
(10.7727 -17.0328 0)
(8.63215 -17.9339 0)
(6.42407 -18.5035 0)
(4.19122 -18.7048 0)
(1.97342 -18.5212 0)
(-0.194779 -17.9479 0)
(-2.28203 -16.9929 0)
(-4.26235 -15.6741 0)
(-6.11997 -14.0154 0)
(-7.85452 -12.0434 0)
(-9.48645 -9.78053 0)
(-11.0251 -7.24365 0)
(-12.3547 -4.46724 0)
(-13.5212 -1.55992 0)
(-14.5001 1.46886 0)
(-15.2528 4.56456 0)
(-15.7515 7.63894 0)
(-15.9659 10.5947 0)
(-15.8614 13.3261 0)
(-15.3857 15.7193 0)
(-14.4486 17.6193 0)
(-12.9068 18.7728 0)
(-10.9636 19.3387 0)
(-8.72308 19.3414 0)
(-6.27896 18.8374 0)
(-3.70598 17.8585 0)
(-1.11903 16.536 0)
(1.48354 14.7929 0)
(3.95943 12.9938 0)
(6.66767 10.4584 0)
(8.69305 8.41876 0)
(11.6056 4.70048 0)
(34.3779 -13.1726 0)
(32.5082 -15.1617 0)
(30.1625 -17.2723 0)
(27.4326 -19.5274 0)
(24.3891 -21.8953 0)
(21.0831 -24.2641 0)
(17.5639 -26.4555 0)
(13.883 -28.2753 0)
(10.0942 -29.563 0)
(6.25074 -30.224 0)
(2.41496 -30.2198 0)
(-1.35618 -29.5281 0)
(-5.00758 -28.1511 0)
(-8.49255 -26.113 0)
(-11.7778 -23.4515 0)
(-14.8541 -20.2066 0)
(-17.7352 -16.4166 0)
(-20.3736 -12.1162 0)
(-22.6322 -7.40065 0)
(-24.5914 -2.40029 0)
(-26.1942 2.86111 0)
(-27.4021 8.27305 0)
(-28.1857 13.6899 0)
(-28.5107 18.9513 0)
(-28.3263 23.8608 0)
(-27.5279 28.1667 0)
(-25.8885 31.4948 0)
(-23.075 33.2821 0)
(-19.5189 33.9006 0)
(-15.3711 33.3904 0)
(-10.833 31.8891 0)
(-6.11636 29.586 0)
(-1.25783 26.6114 0)
(3.6128 22.9135 0)
(8.51674 18.6859 0)
(13.3328 14.0468 0)
(17.6134 9.33697 0)
(21.3117 5.09441 0)
(24.1375 1.32217 0)
(26.0464 -1.93078 0)
(27.0796 -4.66168 0)
(27.2685 -6.92759 0)
(26.6427 -8.83499 0)
(25.5243 -10.6042 0)
(23.9826 -12.3396 0)
(22.0957 -14.0764 0)
(19.9174 -15.8051 0)
(17.4854 -17.492 0)
(14.8417 -19.07 0)
(12.039 -20.4324 0)
(9.13482 -21.4614 0)
(6.17783 -22.064 0)
(3.2118 -22.1931 0)
(0.278503 -21.8248 0)
(-2.58273 -20.9545 0)
(-5.33768 -19.5956 0)
(-7.96538 -17.7702 0)
(-10.4669 -15.5043 0)
(-12.8406 -12.8149 0)
(-15.0024 -9.7148 0)
(-16.9331 -6.32307 0)
(-18.6432 -2.70193 0)
(-20.087 1.12545 0)
(-21.2346 5.07517 0)
(-22.054 9.04024 0)
(-22.5055 12.9006 0)
(-22.534 16.5096 0)
(-22.0334 19.6707 0)
(-20.7791 22.0538 0)
(-18.6531 23.4129 0)
(-15.9454 23.9622 0)
(-12.7684 23.7334 0)
(-9.27173 22.8339 0)
(-5.60565 21.376 0)
(-1.91004 19.4512 0)
(1.72602 17.1378 0)
(5.36694 14.5077 0)
(9.02023 11.5009 0)
(12.3048 8.2531 0)
(15.1701 5.25165 0)
(17.4435 2.50419 0)
(19.0839 0.0249822 0)
(20.114 -2.16708 0)
(20.561 -4.08726 0)
(20.4344 -5.76079 0)
(19.7908 -7.2456 0)
(18.8092 -8.65799 0)
(17.5336 -10.0415 0)
(16.0059 -11.3949 0)
(14.2596 -12.6903 0)
(12.3274 -13.8841 0)
(10.2468 -14.9177 0)
(8.05931 -15.7274 0)
(5.80668 -16.2527 0)
(3.52666 -16.4497 0)
(1.25639 -16.2953 0)
(-0.973814 -15.7794 0)
(-3.13684 -14.9057 0)
(-5.21228 -13.6887 0)
(-7.19402 -12.1472 0)
(-9.08171 -10.2968 0)
(-10.8379 -8.14474 0)
(-12.4039 -5.7456 0)
(-13.808 -3.18635 0)
(-15.013 -0.475069 0)
(-15.9925 2.34 0)
(-16.7177 5.18217 0)
(-17.1496 7.96637 0)
(-17.2407 10.5938 0)
(-16.9189 12.9455 0)
(-16.0682 14.8427 0)
(-14.5738 16.0939 0)
(-12.6441 16.8369 0)
(-10.3577 17.0768 0)
(-7.81253 16.8415 0)
(-5.11126 16.1918 0)
(-2.34714 15.1564 0)
(0.405151 13.8356 0)
(3.16177 12.1437 0)
(5.87993 10.3501 0)
(8.62115 7.96069 0)
(10.6666 6.12078 0)
(13.2502 3.02947 0)
(33.9947 -11.3427 0)
(31.7315 -12.8629 0)
(29.1263 -14.5951 0)
(26.2405 -16.5473 0)
(23.1077 -18.6626 0)
(19.7569 -20.8208 0)
(16.2243 -22.8437 0)
(12.553 -24.5362 0)
(8.78332 -25.7407 0)
(4.9596 -26.3741 0)
(1.12891 -26.3924 0)
(-2.65835 -25.7774 0)
(-6.35757 -24.5298 0)
(-9.93656 -22.6656 0)
(-13.366 -20.2063 0)
(-16.609 -17.1707 0)
(-19.5613 -13.5818 0)
(-22.231 -9.59319 0)
(-24.5828 -5.25752 0)
(-26.5787 -0.602029 0)
(-28.1953 4.27981 0)
(-29.3983 9.26727 0)
(-30.1424 14.2212 0)
(-30.3617 18.9657 0)
(-29.926 23.2592 0)
(-28.5735 26.7068 0)
(-25.9615 28.7952 0)
(-22.4955 29.8032 0)
(-18.3111 29.757 0)
(-13.5998 28.7631 0)
(-8.58797 26.9893 0)
(-3.45327 24.5387 0)
(1.72616 21.5049 0)
(7.10366 17.9236 0)
(12.3972 13.6439 0)
(17.142 9.33423 0)
(21.2042 5.48704 0)
(24.3389 2.10038 0)
(26.4967 -0.762044 0)
(27.7129 -3.08158 0)
(27.9911 -4.90904 0)
(27.4614 -6.39012 0)
(26.4333 -7.75053 0)
(24.9982 -9.11388 0)
(23.2441 -10.5196 0)
(21.2205 -11.9691 0)
(18.9545 -13.4442 0)
(16.4682 -14.9134 0)
(13.7924 -16.3206 0)
(10.9728 -17.5657 0)
(8.06252 -18.5232 0)
(5.1039 -19.0913 0)
(2.13268 -19.2203 0)
(-0.821311 -18.8925 0)
(-3.73409 -18.107 0)
(-6.58106 -16.8658 0)
(-9.33039 -15.1673 0)
(-11.9212 -13.0031 0)
(-14.3403 -10.463 0)
(-16.5671 -7.61447 0)
(-18.5626 -4.48186 0)
(-20.3 -1.10778 0)
(-21.7503 2.43243 0)
(-22.8736 6.05027 0)
(-23.6202 9.64442 0)
(-23.9212 13.0789 0)
(-23.6495 16.1502 0)
(-22.5377 18.5105 0)
(-20.5308 19.9926 0)
(-17.8725 20.7392 0)
(-14.6636 20.7716 0)
(-11.0668 20.1812 0)
(-7.25783 19.0815 0)
(-3.40005 17.5522 0)
(0.417927 15.659 0)
(4.30207 13.4536 0)
(8.18585 10.7807 0)
(11.7172 7.91236 0)
(14.8067 5.27982 0)
(17.2668 2.87904 0)
(19.0667 0.746679 0)
(20.2302 -1.09978 0)
(20.7907 -2.6757 0)
(20.7378 -4.00328 0)
(20.2127 -5.17793 0)
(19.3617 -6.31452 0)
(18.2269 -7.45213 0)
(16.8492 -8.59017 0)
(15.2564 -9.72025 0)
(13.4704 -10.8216 0)
(11.5157 -11.8555 0)
(9.42242 -12.7671 0)
(7.22637 -13.4929 0)
(4.96379 -13.9693 0)
(2.67175 -14.1512 0)
(0.379353 -14.0112 0)
(-1.89214 -13.544 0)
(-4.12633 -12.751 0)
(-6.30119 -11.6296 0)
(-8.3726 -10.1695 0)
(-10.3089 -8.41306 0)
(-12.105 -6.43039 0)
(-13.7264 -4.24353 0)
(-15.1465 -1.87614 0)
(-16.3412 0.619556 0)
(-17.2764 3.17704 0)
(-17.9064 5.72218 0)
(-18.1743 8.16526 0)
(-17.9936 10.3707 0)
(-17.1982 12.1361 0)
(-15.7822 13.3847 0)
(-13.8986 14.1895 0)
(-11.6193 14.5548 0)
(-9.04344 14.5092 0)
(-6.28184 14.0958 0)
(-3.44284 13.3588 0)
(-0.593724 12.3156 0)
(2.30082 11.0367 0)
(5.18493 9.36355 0)
(7.90353 7.58362 0)
(10.4653 5.55417 0)
(12.3201 4.03483 0)
(14.3772 1.65491 0)
(32.3464 -9.10777 0)
(29.8631 -10.3069 0)
(27.1573 -11.7851 0)
(24.2521 -13.5096 0)
(21.152 -15.4124 0)
(17.8635 -17.3842 0)
(14.4088 -19.2577 0)
(10.8249 -20.836 0)
(7.14414 -21.9617 0)
(3.39524 -22.5618 0)
(-0.39664 -22.5982 0)
(-4.1859 -22.0461 0)
(-7.91464 -20.8853 0)
(-11.5279 -19.1171 0)
(-14.9924 -16.7992 0)
(-18.2632 -13.9891 0)
(-21.2776 -10.7384 0)
(-23.9799 -7.08745 0)
(-26.3397 -3.08014 0)
(-28.3375 1.21058 0)
(-29.9405 5.68345 0)
(-31.095 10.2181 0)
(-31.7143 14.6535 0)
(-31.6322 18.7442 0)
(-30.5099 22.054 0)
(-28.1036 24.2135 0)
(-24.748 25.4028 0)
(-20.5617 25.6379 0)
(-15.7495 25.0027 0)
(-10.5822 23.6533 0)
(-5.28626 21.6883 0)
(0.0953137 19.2221 0)
(5.79474 16.2116 0)
(11.3531 12.3337 0)
(16.4569 8.54378 0)
(20.7693 5.15091 0)
(24.0836 2.21505 0)
(26.3759 -0.190337 0)
(27.6833 -2.04669 0)
(27.9996 -3.40724 0)
(27.5323 -4.44263 0)
(26.584 -5.38155 0)
(25.2586 -6.35902 0)
(23.642 -7.41971 0)
(21.7877 -8.56998 0)
(19.7211 -9.79192 0)
(17.4521 -11.0531 0)
(14.9887 -12.3239 0)
(12.3514 -13.5681 0)
(9.57938 -14.7014 0)
(6.7216 -15.5915 0)
(3.81225 -16.1274 0)
(0.864762 -16.2636 0)
(-2.1112 -15.9718 0)
(-5.06118 -15.2076 0)
(-7.94182 -14.0192 0)
(-10.7201 -12.4307 0)
(-13.3566 -10.4633 0)
(-15.8115 -8.14278 0)
(-18.0543 -5.50573 0)
(-20.0556 -2.60625 0)
(-21.7779 0.488979 0)
(-23.1746 3.70187 0)
(-24.1835 6.94501 0)
(-24.7162 10.095 0)
(-24.6247 12.9307 0)
(-23.5874 15.1029 0)
(-21.7036 16.5698 0)
(-19.1142 17.3802 0)
(-15.9256 17.5483 0)
(-12.3054 17.1564 0)
(-8.44895 16.3275 0)
(-4.53961 15.1373 0)
(-0.663196 13.6409 0)
(3.33527 11.8363 0)
(7.30968 9.47297 0)
(10.9627 7.02543 0)
(14.1298 4.78637 0)
(16.65 2.76408 0)
(18.5043 1.00676 0)
(19.7187 -0.469935 0)
(20.3359 -1.68545 0)
(20.3499 -2.67044 0)
(19.9406 -3.53377 0)
(19.2256 -4.38007 0)
(18.2482 -5.25002 0)
(17.0458 -6.15053 0)
(15.6413 -7.07723 0)
(14.05 -8.01751 0)
(12.2859 -8.94794 0)
(10.3662 -9.83346 0)
(8.31443 -10.627 0)
(6.15921 -11.2701 0)
(3.93104 -11.699 0)
(1.66047 -11.8635 0)
(-0.642779 -11.7365 0)
(-2.95814 -11.2894 0)
(-5.23142 -10.5085 0)
(-7.43317 -9.44661 0)
(-9.53105 -8.11742 0)
(-11.4917 -6.53533 0)
(-13.2874 -4.72386 0)
(-14.8915 -2.72001 0)
(-16.2699 -0.573416 0)
(-17.3803 1.65913 0)
(-18.1695 3.91006 0)
(-18.5666 6.0863 0)
(-18.4746 8.04732 0)
(-17.6847 9.59528 0)
(-16.3574 10.7559 0)
(-14.5373 11.5322 0)
(-12.3047 11.9306 0)
(-9.76127 11.9844 0)
(-7.02225 11.7371 0)
(-4.20385 11.2255 0)
(-1.36836 10.4689 0)
(1.54728 9.46187 0)
(4.48649 8.09507 0)
(7.23862 6.54051 0)
(9.68715 5.06234 0)
(11.8544 3.493 0)
(13.341 2.34791 0)
(14.758 0.667384 0)
(29.4538 -6.66722 0)
(26.9559 -7.67845 0)
(24.3275 -8.99126 0)
(21.5554 -10.546 0)
(18.6169 -12.2711 0)
(15.5001 -14.0747 0)
(12.2144 -15.8084 0)
(8.79019 -17.2755 0)
(5.24738 -18.3153 0)
(1.59965 -18.8414 0)
(-2.11348 -18.8161 0)
(-5.83917 -18.2689 0)
(-9.52903 -17.1876 0)
(-13.129 -15.5726 0)
(-16.5881 -13.4468 0)
(-19.8577 -10.8633 0)
(-22.8739 -7.88443 0)
(-25.5674 -4.54897 0)
(-27.8985 -0.892634 0)
(-29.8446 3.00858 0)
(-31.3515 7.04016 0)
(-32.3043 11.0535 0)
(-32.4899 14.7647 0)
(-31.4661 17.7211 0)
(-29.2129 19.7542 0)
(-25.942 20.9286 0)
(-21.7728 21.2531 0)
(-16.9319 20.8145 0)
(-11.7216 19.7652 0)
(-6.40525 18.2159 0)
(-0.951947 16.2727 0)
(4.87723 13.6797 0)
(10.5462 10.2955 0)
(15.7391 7.08264 0)
(20.065 4.21115 0)
(23.3518 1.7792 0)
(25.5939 -0.125587 0)
(26.8449 -1.48708 0)
(27.0995 -2.37092 0)
(26.6601 -2.96953 0)
(25.7843 -3.50341 0)
(24.5764 -4.09978 0)
(23.1203 -4.80734 0)
(21.4666 -5.64431 0)
(19.64 -6.60066 0)
(17.6453 -7.63965 0)
(15.4748 -8.71849 0)
(13.1218 -9.81313 0)
(10.5969 -10.9104 0)
(7.93265 -11.9432 0)
(5.17181 -12.7643 0)
(2.32842 -13.2465 0)
(-0.601674 -13.3092 0)
(-3.56752 -12.9657 0)
(-6.5059 -12.2623 0)
(-9.36543 -11.1828 0)
(-12.1153 -9.72692 0)
(-14.7258 -7.91185 0)
(-17.1588 -5.77604 0)
(-19.3693 -3.37001 0)
(-21.3068 -0.750887 0)
(-22.9136 2.01559 0)
(-24.1129 4.8451 0)
(-24.7915 7.60242 0)
(-24.7718 10.0618 0)
(-23.7386 11.9335 0)
(-21.941 13.2593 0)
(-19.4114 14.0181 0)
(-16.272 14.2169 0)
(-12.7008 13.9326 0)
(-8.90906 13.2915 0)
(-5.09342 12.3707 0)
(-1.30402 11.2403 0)
(2.66946 9.80957 0)
(6.55522 7.74699 0)
(10.1313 5.73313 0)
(13.1795 3.90527 0)
(15.5828 2.2811 0)
(17.3397 0.90986 0)
(18.4851 -0.19996 0)
(19.0745 -1.06921 0)
(19.1205 -1.73584 0)
(18.8082 -2.30615 0)
(18.2317 -2.8744 0)
(17.4297 -3.48122 0)
(16.4324 -4.13881 0)
(15.2562 -4.84712 0)
(13.9097 -5.59556 0)
(12.3981 -6.36719 0)
(10.7257 -7.14054 0)
(8.90226 -7.88519 0)
(6.94592 -8.55789 0)
(4.8804 -9.10373 0)
(2.72794 -9.46277 0)
(0.494428 -9.58184 0)
(-1.80067 -9.39409 0)
(-4.10099 -8.95012 0)
(-6.3561 -8.26481 0)
(-8.52547 -7.31938 0)
(-10.5823 -6.11362 0)
(-12.4955 -4.67229 0)
(-14.2249 -3.03825 0)
(-15.7239 -1.2582 0)
(-16.9401 0.617403 0)
(-17.8134 2.526 0)
(-18.2652 4.36584 0)
(-18.1479 5.99181 0)
(-17.386 7.29338 0)
(-16.1145 8.28692 0)
(-14.3643 8.96674 0)
(-12.2118 9.3324 0)
(-9.76317 9.41692 0)
(-7.13962 9.26932 0)
(-4.45815 8.92431 0)
(-1.75165 8.41158 0)
(1.07677 7.67698 0)
(3.89344 6.507 0)
(6.53084 5.29363 0)
(8.8764 4.1186 0)
(10.8225 3.00731 0)
(12.4012 1.90479 0)
(13.4276 1.16381 0)
(14.193 0.0951557 0)
(25.4087 -4.26678 0)
(23.1381 -5.1872 0)
(20.785 -6.39242 0)
(18.3044 -7.80331 0)
(15.6544 -9.35215 0)
(12.8108 -10.9738 0)
(9.77132 -12.5465 0)
(6.54963 -13.8778 0)
(3.15835 -14.7848 0)
(-0.352989 -15.1999 0)
(-3.92741 -15.1556 0)
(-7.53536 -14.615 0)
(-11.1329 -13.576 0)
(-14.6612 -12.0485 0)
(-18.0727 -10.0655 0)
(-21.3166 -7.69607 0)
(-24.3004 -5.02533 0)
(-26.9184 -2.07315 0)
(-29.1156 1.1841 0)
(-30.8509 4.66905 0)
(-31.983 8.16193 0)
(-32.2538 11.3374 0)
(-31.1369 13.7707 0)
(-28.9286 15.5099 0)
(-25.6514 16.5148 0)
(-21.4759 16.7819 0)
(-16.6658 16.4149 0)
(-11.5626 15.5488 0)
(-6.42898 14.3606 0)
(-1.06382 12.9104 0)
(4.68324 10.6018 0)
(10.1637 7.75184 0)
(15.0845 5.14965 0)
(19.0839 2.86004 0)
(22.0435 0.985229 0)
(23.9825 -0.387465 0)
(24.9782 -1.25133 0)
(25.039 -1.69156 0)
(24.5888 -1.90931 0)
(23.7768 -2.09124 0)
(22.7102 -2.34511 0)
(21.46 -2.72409 0)
(20.0631 -3.25708 0)
(18.5336 -3.94394 0)
(16.8694 -4.75317 0)
(15.0556 -5.63265 0)
(13.0719 -6.53175 0)
(10.906 -7.43379 0)
(8.56795 -8.35736 0)
(6.08198 -9.26523 0)
(3.45967 -9.99283 0)
(0.687787 -10.3594 0)
(-2.18276 -10.3525 0)
(-5.0779 -10.0538 0)
(-7.93929 -9.41861 0)
(-10.7278 -8.42728 0)
(-13.4066 -7.08634 0)
(-15.9322 -5.4263 0)
(-18.2507 -3.49792 0)
(-20.2965 -1.35646 0)
(-21.9933 0.938987 0)
(-23.251 3.30726 0)
(-23.9404 5.58286 0)
(-23.7928 7.54791 0)
(-22.7375 9.06368 0)
(-20.9452 10.1371 0)
(-18.4618 10.7512 0)
(-15.4124 10.9079 0)
(-11.9854 10.6783 0)
(-8.39855 10.1765 0)
(-4.85042 9.48838 0)
(-1.31539 8.68796 0)
(2.42737 7.51698 0)
(6.02289 5.82527 0)
(9.26883 4.25202 0)
(11.9605 2.84336 0)
(14.0341 1.621 0)
(15.5145 0.624383 0)
(16.4499 -0.144066 0)
(16.9078 -0.707568 0)
(16.9117 -1.10723 0)
(16.6617 -1.43675 0)
(16.2118 -1.77216 0)
(15.5947 -2.1489 0)
(14.8298 -2.5824 0)
(13.9226 -3.07842 0)
(12.8696 -3.63013 0)
(11.6651 -4.22118 0)
(10.305 -4.83251 0)
(8.79113 -5.4474 0)
(7.13393 -6.04915 0)
(5.34719 -6.60538 0)
(3.43873 -7.05823 0)
(1.39752 -7.34288 0)
(-0.782149 -7.35682 0)
(-3.02235 -7.13907 0)
(-5.24474 -6.72109 0)
(-7.39189 -6.07912 0)
(-9.42997 -5.21295 0)
(-11.3317 -4.13713 0)
(-13.0615 -2.88258 0)
(-14.5661 -1.48867 0)
(-15.7792 0.000646888 0)
(-16.6273 1.52019 0)
(-17.0295 2.9687 0)
(-16.8068 4.21767 0)
(-16.0638 5.23548 0)
(-14.837 6.01889 0)
(-13.1753 6.5584 0)
(-11.1592 6.85395 0)
(-8.89333 6.93653 0)
(-6.49942 6.85351 0)
(-4.08674 6.64397 0)
(-1.64187 6.33131 0)
(0.945769 5.76945 0)
(3.48608 4.85145 0)
(5.84536 3.94592 0)
(7.87047 3.09022 0)
(9.57199 2.27378 0)
(10.8663 1.55251 0)
(11.7853 0.907825 0)
(12.3569 0.512517 0)
(12.5796 -0.108218 0)
(20.4015 -2.18874 0)
(18.6102 -3.06127 0)
(16.7303 -4.16767 0)
(14.6929 -5.42379 0)
(12.4465 -6.77573 0)
(9.96423 -8.18735 0)
(7.22544 -9.55271 0)
(4.20478 -10.6905 0)
(0.967136 -11.4016 0)
(-2.33908 -11.7421 0)
(-5.71073 -11.6205 0)
(-9.16413 -11.0526 0)
(-12.6329 -10.0679 0)
(-16.0296 -8.65278 0)
(-19.3266 -6.81708 0)
(-22.5001 -4.64798 0)
(-25.3794 -2.28712 0)
(-27.702 0.288933 0)
(-29.354 3.10971 0)
(-30.3109 5.91812 0)
(-30.2375 8.34844 0)
(-28.9858 10.203 0)
(-26.6541 11.4987 0)
(-23.2934 12.2034 0)
(-19.1435 12.3199 0)
(-14.5131 11.9518 0)
(-9.78256 11.2666 0)
(-5.07305 10.4682 0)
(0.0516899 9.39555 0)
(5.29365 7.24359 0)
(10.177 5.04486 0)
(14.3703 3.10221 0)
(17.6232 1.44111 0)
(19.9011 0.149722 0)
(21.2654 -0.696523 0)
(21.7728 -1.11345 0)
(21.6033 -1.20954 0)
(21.0916 -1.15343 0)
(20.3388 -1.08417 0)
(19.4337 -1.07886 0)
(18.4268 -1.18932 0)
(17.3398 -1.45194 0)
(16.1748 -1.877 0)
(14.919 -2.44705 0)
(13.5482 -3.1228 0)
(12.031 -3.8515 0)
(10.3354 -4.58532 0)
(8.44305 -5.31537 0)
(6.36398 -6.0803 0)
(4.10132 -6.85313 0)
(1.59461 -7.42921 0)
(-1.09975 -7.60333 0)
(-3.85601 -7.53362 0)
(-6.60553 -7.20352 0)
(-9.2938 -6.59067 0)
(-11.8742 -5.68656 0)
(-14.3043 -4.49631 0)
(-16.5393 -3.05058 0)
(-18.5107 -1.40313 0)
(-20.1168 0.385161 0)
(-21.2334 2.21323 0)
(-21.7243 3.92773 0)
(-21.2993 5.34589 0)
(-20.1733 6.44536 0)
(-18.3663 7.21438 0)
(-15.9696 7.64093 0)
(-13.1256 7.73095 0)
(-10.0157 7.54869 0)
(-6.84997 7.18157 0)
(-3.78454 6.72691 0)
(-0.673049 6.22369 0)
(2.59188 5.20497 0)
(5.6099 3.9394 0)
(8.2442 2.82516 0)
(10.34 1.83813 0)
(11.8866 0.999768 0)
(12.9376 0.340277 0)
(13.5548 -0.140398 0)
(13.7955 -0.465512 0)
(13.7378 -0.678549 0)
(13.5229 -0.848328 0)
(13.1816 -1.02643 0)
(12.7374 -1.23687 0)
(12.1974 -1.49452 0)
(11.5567 -1.80859 0)
(10.8045 -2.17739 0)
(9.93107 -2.59068 0)
(8.92905 -3.03651 0)
(7.78799 -3.50309 0)
(6.49762 -3.97745 0)
(5.06328 -4.43993 0)
(3.50593 -4.8468 0)
(1.81596 -5.13662 0)
(-0.0578178 -5.22922 0)
(-2.04648 -5.10988 0)
(-4.05806 -4.91108 0)
(-6.03267 -4.59305 0)
(-7.9236 -4.10398 0)
(-9.68289 -3.40643 0)
(-11.2658 -2.49713 0)
(-12.6221 -1.43942 0)
(-13.683 -0.315959 0)
(-14.3754 0.801541 0)
(-14.5922 1.83344 0)
(-14.2738 2.71318 0)
(-13.5319 3.43905 0)
(-12.3823 4.00618 0)
(-10.8802 4.39679 0)
(-9.1044 4.61483 0)
(-7.15344 4.68996 0)
(-5.14003 4.66182 0)
(-3.14106 4.57258 0)
(-1.08221 4.42038 0)
(1.09458 3.95535 0)
(3.1699 3.30383 0)
(5.04707 2.69809 0)
(6.63397 2.12446 0)
(7.88283 1.59587 0)
(8.90364 1.13188 0)
(9.49635 0.766363 0)
(9.87964 0.461171 0)
(10.1001 0.289552 0)
(9.98157 -0.0541842 0)
(14.747 -0.704637 0)
(13.5859 -1.51601 0)
(12.2815 -2.48241 0)
(10.7594 -3.52713 0)
(8.98326 -4.61365 0)
(6.95432 -5.71961 0)
(4.61049 -6.76725 0)
(1.81422 -7.59248 0)
(-1.209 -8.24037 0)
(-4.25603 -8.60094 0)
(-7.37358 -8.35907 0)
(-10.5943 -7.67344 0)
(-13.7937 -6.70251 0)
(-16.8468 -5.34793 0)
(-19.7342 -3.52047 0)
(-22.4501 -1.45408 0)
(-24.7031 0.235109 0)
(-26.0703 1.71672 0)
(-26.4132 3.6088 0)
(-25.7926 5.50251 0)
(-24.2418 6.88288 0)
(-21.649 7.89124 0)
(-18.3977 8.01722 0)
(-14.5265 8.01562 0)
(-10.4626 7.72921 0)
(-6.47998 7.33158 0)
(-2.38741 6.9689 0)
(2.08464 5.79739 0)
(6.29567 4.15284 0)
(10.0327 2.67272 0)
(13.0042 1.40944 0)
(15.1276 0.36784 0)
(16.455 -0.370503 0)
(17.0714 -0.769316 0)
(17.0308 -0.872122 0)
(16.6849 -0.778033 0)
(16.1357 -0.592438 0)
(15.4807 -0.397614 0)
(14.7784 -0.245746 0)
(14.055 -0.185058 0)
(13.3147 -0.255649 0)
(12.5442 -0.476595 0)
(11.7153 -0.841884 0)
(10.7928 -1.32133 0)
(9.74258 -1.8675 0)
(8.53715 -2.4255 0)
(7.15748 -2.95004 0)
(5.60757 -3.43787 0)
(3.9247 -3.94444 0)
(2.03055 -4.4926 0)
(-0.232723 -4.76012 0)
(-2.63686 -4.85601 0)
(-5.08706 -4.83835 0)
(-7.51488 -4.6349 0)
(-9.84911 -4.18895 0)
(-12.0195 -3.46849 0)
(-13.9638 -2.46115 0)
(-15.6188 -1.228 0)
(-16.8853 0.0865873 0)
(-17.6365 1.35021 0)
(-17.6512 2.46899 0)
(-17.0095 3.43018 0)
(-15.8203 4.08299 0)
(-14.1012 4.58929 0)
(-11.9758 4.85867 0)
(-9.57634 4.90866 0)
(-7.05363 4.80077 0)
(-4.57774 4.60169 0)
(-2.19627 4.39537 0)
(0.313838 4.04429 0)
(2.75221 3.20831 0)
(4.92486 2.41128 0)
(6.71068 1.73561 0)
(8.04558 1.13516 0)
(8.96486 0.628088 0)
(9.53001 0.237276 0)
(9.80537 -0.041676 0)
(9.82875 -0.224235 0)
(9.72903 -0.344429 0)
(9.54736 -0.438912 0)
(9.31277 -0.534608 0)
(9.03822 -0.646406 0)
(8.72151 -0.786839 0)
(8.35115 -0.96561 0)
(7.90993 -1.18706 0)
(7.3793 -1.45005 0)
(6.74494 -1.74928 0)
(5.99105 -2.06954 0)
(5.09979 -2.38917 0)
(4.06161 -2.70423 0)
(2.88233 -3.03646 0)
(1.57001 -3.36473 0)
(0.138659 -3.55109 0)
(-1.27893 -3.53858 0)
(-2.65917 -3.41571 0)
(-4.08249 -3.17741 0)
(-5.57397 -2.82521 0)
(-7.09116 -2.36622 0)
(-8.53232 -1.81439 0)
(-9.74815 -1.17327 0)
(-10.5527 -0.471059 0)
(-11.0148 0.235336 0)
(-11.0155 0.881744 0)
(-10.6589 1.44289 0)
(-9.97487 1.92026 0)
(-9.00131 2.30496 0)
(-7.79003 2.57978 0)
(-6.40569 2.74752 0)
(-4.92844 2.83457 0)
(-3.4424 2.87406 0)
(-1.97009 2.89463 0)
(-0.404927 2.81939 0)
(1.17501 2.45909 0)
(2.64312 2.08398 0)
(3.91979 1.74267 0)
(4.95662 1.41332 0)
(5.76218 1.10987 0)
(6.3383 0.850493 0)
(6.74098 0.649693 0)
(6.92696 0.515023 0)
(6.98391 0.385496 0)
(7.01527 0.3203 0)
(6.801 0.115821 0)
(9.04715 0.0775783 0)
(8.46614 -0.593626 0)
(7.68792 -1.34543 0)
(6.659 -2.12332 0)
(5.37539 -2.92476 0)
(3.78411 -3.82746 0)
(1.864 -4.53451 0)
(-0.110003 -4.98688 0)
(-2.1864 -5.27358 0)
(-5.53139 -5.36344 0)
(-8.77191 -5.17733 0)
(-11.2598 -4.65637 0)
(-13.8221 -3.81518 0)
(-16.0516 -2.71445 0)
(-17.8714 -1.42572 0)
(-18.6163 -0.0490527 0)
(-17.7296 1.24803 0)
(-18.6789 2.3526 0)
(-18.7342 3.16048 0)
(-16.7883 3.79162 0)
(-14.4997 4.18881 0)
(-11.715 4.209 0)
(-8.60774 4.37146 0)
(-5.63827 4.24546 0)
(-2.76414 4.21961 0)
(0.449867 3.82045 0)
(3.49942 2.84854 0)
(6.21201 1.93741 0)
(8.39428 1.19238 0)
(9.94269 0.539631 0)
(10.8955 0.00983401 0)
(11.3441 -0.337851 0)
(11.3171 -0.486793 0)
(11.064 -0.473897 0)