/*--------------------------------*- C++ -*----------------------------------*\
| =========                 |                                                 |
| \\      /  F ield         | OpenFOAM: The Open Source CFD Toolbox           |
|  \\    /   O peration     | Version:  2206                                  |
|   \\  /    A nd           | Website:  www.openfoam.com                      |
|    \\/     M anipulation  |                                                 |
\*---------------------------------------------------------------------------*/
FoamFile
{
    version     2.0;
    format      ascii;
    arch        "LSB;label=32;scalar=64";
    class       surfaceScalarField;
    location    "19.1001";
    object      ddtCorrDdt0(phi);
}
// * * * * * * * * * * * * * * * * * * * * * * * * * * * * * * * * * * * * * //

dimensions      [0 3 -2 0 0 0 0];

oriented        oriented;

internalField   nonuniform List<scalar> 
9447
(
3.3013e-05
-0.000480801
0.000473523
4.07718e-05
-0.000454023
0.000446264
4.89841e-05
-0.000420705
0.000412493
5.75313e-05
-0.000382048
0.000373501
6.62165e-05
-0.00033932
0.000330635
7.47824e-05
-0.000293789
0.000285223
8.29139e-05
-0.000246642
0.000238511
9.02783e-05
-0.000198909
0.000191545
9.66256e-05
-0.000151423
0.000145075
0.000102022
-0.000104785
9.93886e-05
0.000107075
-5.78976e-05
5.28445e-05
0.000110806
-6.15411e-06
2.42343e-06
0.000112139
4.6096e-05
-4.74285e-05
0.000111224
9.63274e-05
-9.5413e-05
0.00010829
0.000144298
-0.000141363
0.000103612
0.000189539
-0.000184861
9.74889e-05
0.000231535
-0.000225412
9.02078e-05
0.000269684
-0.000262403
8.20236e-05
0.00030339
-0.000295206
7.31539e-05
0.000332136
-0.000323267
6.37828e-05
0.000355511
-0.00034614
5.40661e-05
0.000373223
-0.000363507
4.41137e-05
0.000385076
-0.000375123
3.40153e-05
0.000390282
-0.000380183
2.39044e-05
0.000389043
-0.000378932
1.39145e-05
0.000382999
-0.000373009
4.27616e-06
0.000372061
-0.000362422
-4.73322e-06
0.000356321
-0.000347311
-1.29212e-05
0.000336151
-0.000327963
-2.02783e-05
0.000312106
-0.000304749
-2.68467e-05
0.000284648
-0.000278079
-3.25767e-05
0.000254081
-0.000248351
-3.73844e-05
0.000220806
-0.000215998
-4.12321e-05
0.00018548
-0.000181632
-4.41224e-05
0.000148897
-0.000146007
-4.6118e-05
0.000111915
-0.00010992
-4.74296e-05
7.55466e-05
-7.42351e-05
-4.91078e-05
4.01578e-05
-3.84796e-05
-5.11772e-05
-1.96295e-06
4.03234e-06
-5.22774e-05
-4.72757e-05
4.83759e-05
-5.26773e-05
-9.10091e-05
9.1409e-05
-5.27037e-05
-0.000132618
0.000132645
-5.25408e-05
-0.000171858
0.000171696
-5.22809e-05
-0.000208507
0.000208247
-5.19775e-05
-0.000242222
0.000241919
-5.16428e-05
-0.000272606
0.000272271
-5.12386e-05
-0.000299239
0.000298835
-5.06833e-05
-0.000321673
0.000321118
-4.98702e-05
-0.000339405
0.000338592
-4.86548e-05
-0.000351844
0.000350629
-4.6599e-05
-0.000358017
0.000355961
-4.38138e-05
-0.000356718
0.000353933
-4.02581e-05
-0.00035036
0.000346805
-3.59102e-05
-0.000339069
0.000334721
-3.0765e-05
-0.00032316
0.000318014
-2.48722e-05
-0.000303046
0.000297153
-1.8354e-05
-0.000279206
0.000272688
-1.13896e-05
-0.000252191
0.000245227
-4.17072e-06
-0.000222669
0.00021545
3.04835e-06
-0.000191235
0.000184015
9.87623e-06
-0.000158352
0.000151525
1.59491e-05
-0.000124664
0.000118591
2.09633e-05
-9.09831e-05
8.59689e-05
2.46882e-05
-5.83288e-05
5.4604e-05
2.86885e-05
-2.81447e-05
2.41444e-05
3.57315e-05
4.75037e-06
-1.17933e-05
3.82243e-05
4.63983e-05
-4.88911e-05
3.84029e-05
8.44774e-05
-8.4656e-05
3.68176e-05
0.000120114
-0.000118529
3.36394e-05
0.000153715
-0.000150536
2.90939e-05
0.000185098
-0.000180552
2.34171e-05
0.000213862
-0.000208185
1.69041e-05
0.000239488
-0.000232975
9.84891e-06
0.000261533
-0.000254478
2.43631e-06
0.00027974
-0.000272328
-5.17922e-06
0.000293784
-0.000286168
-1.28149e-05
0.000303278
-0.000295642
-2.02322e-05
0.000307673
-0.000300256
-2.73848e-05
0.000306315
-0.000299163
-3.4188e-05
0.000301043
-0.00029424
-4.05544e-05
0.000291948
-0.000285582
-4.64025e-05
0.000279186
-0.000273338
-5.16761e-05
0.000262994
-0.00025772
-5.63368e-05
0.000243678
-0.000239018
-6.03515e-05
0.000221577
-0.000217562
-6.37093e-05
0.000197046
-0.000193688
-6.64379e-05
0.000170521
-0.000167793
-6.85862e-05
0.000142464
-0.000140316
-7.02581e-05
0.000113316
-0.000111644
-7.16663e-05
8.34594e-05
-8.20513e-05
-7.32646e-05
5.29044e-05
-5.13061e-05
-7.51676e-05
1.93927e-05
-1.74897e-05
-7.63217e-05
-1.83609e-05
1.9515e-05
-7.65473e-05
-5.64333e-05
5.66588e-05
-7.58124e-05
-9.38988e-05
9.31639e-05
-7.41352e-05
-0.000129965
0.000128287
-7.15479e-05
-0.000163952
0.000161365
-6.80824e-05
-0.000195265
0.0001918
-6.37748e-05
-0.000223325
0.000219017
-5.86609e-05
-0.000247586
0.000242472
-5.27639e-05
-0.000267538
0.000261641
-4.6066e-05
-0.000282669
0.000275971
-3.84768e-05
-0.000292295
0.000284706
-2.98651e-05
-0.000294981
0.000286369
-2.07591e-05
-0.000292188
0.000283082
-1.12097e-05
-0.000285081
0.000275531
-1.32841e-06
-0.000274007
0.000264126
8.74341e-06
-0.000259393
0.000249321
1.88369e-05
-0.000241704
0.00023161
2.87681e-05
-0.000221423
0.000211491
3.83428e-05
-0.000199015
0.000189441
4.73861e-05
-0.000174921
0.000165877
5.57685e-05
-0.000149545
0.000141163
6.34327e-05
-0.000123206
0.000115542
7.04814e-05
-9.60958e-05
8.90471e-05
7.72354e-05
-6.80263e-05
6.12723e-05
8.35716e-05
-3.79906e-05
3.16544e-05
8.84083e-05
-5.94858e-06
1.11189e-06
9.16932e-05
2.60196e-05
-2.93046e-05
9.33982e-05
5.78803e-05
-5.95853e-05
9.35505e-05
8.92593e-05
-8.94116e-05
9.22764e-05
0.000119723
-0.000118449
8.97397e-05
0.000148864
-0.000146327
8.61266e-05
0.000176209
-0.000172596
8.16342e-05
0.000201247
-0.000196755
7.64543e-05
0.000223475
-0.000218295
7.07628e-05
0.000242392
-0.0002367
6.47134e-05
0.000257576
-0.000251527
5.84506e-05
0.00026841
-0.000262148
5.2058e-05
0.000274521
-0.000268129
4.58139e-05
0.000274812
-0.000268568
3.9716e-05
0.000270452
-0.000264354
3.40593e-05
0.000262211
-0.000256554
2.85177e-05
0.000253528
-0.000247986
2.36497e-05
0.000229855
-0.000224988
1.94403e-05
0.000217377
-0.000213167
0.000181323
-0.000177917
3.35557e-05
-0.000486013
3.93677e-05
-0.000459835
4.57656e-05
-0.000427103
5.26488e-05
-0.000388931
5.98371e-05
-0.000346508
6.70671e-05
-0.000301019
7.40001e-05
-0.000253575
8.02711e-05
-0.00020518
8.55936e-05
-0.000156745
9.00004e-05
-0.000109192
9.42976e-05
-6.21948e-05
9.79428e-05
-9.79925e-06
9.93488e-05
4.469e-05
9.8713e-05
9.69632e-05
9.62747e-05
0.000146736
9.22949e-05
0.000193519
8.70315e-05
0.000236798
8.07178e-05
0.000275997
7.35581e-05
0.00031055
6.57368e-05
0.000339957
5.74205e-05
0.000363827
4.87665e-05
0.000381877
3.98906e-05
0.000393951
3.09179e-05
0.000399254
2.19998e-05
0.000397961
1.31954e-05
0.000391804
4.66252e-06
0.000380593
-3.48002e-06
0.000364463
-1.07963e-05
0.000343467
-1.69968e-05
0.000318307
-2.24212e-05
0.000290072
-2.71121e-05
0.000258772
-3.08919e-05
0.000224586
-3.3744e-05
0.000188332
-3.57048e-05
0.000150858
-3.68511e-05
0.000113062
-3.73529e-05
7.60484e-05
-3.81402e-05
4.09451e-05
-3.99155e-05
-1.87632e-07
-4.06653e-05
-4.65259e-05
-4.07539e-05
-9.09205e-05
-4.06919e-05
-0.00013268
-4.06703e-05
-0.00017188
-4.07385e-05
-0.000208439
-4.09366e-05
-0.000242024
-4.12791e-05
-0.000272263
-4.17147e-05
-0.000298803
-4.21436e-05
-0.000321244
-4.24327e-05
-0.000339116
-4.24021e-05
-0.000351875
-4.17064e-05
-0.000358712
-4.03318e-05
-0.000358092
-3.82536e-05
-0.000352439
-3.54259e-05
-0.000341897
-3.18268e-05
-0.000326759
-2.74952e-05
-0.000307377
-2.25102e-05
-0.000284192
-1.70188e-05
-0.000257682
-1.12489e-05
-0.000228439
-5.48221e-06
-0.000197001
4.50458e-08
-0.00016388
5.05362e-06
-0.000129672
9.10506e-06
-9.50345e-05
1.2041e-05
-6.12647e-05
1.41578e-05
-3.02615e-05
2.18825e-05
-2.97431e-06
2.42879e-05
4.39929e-05
2.36453e-05
8.512e-05
2.16546e-05
0.000122105
1.84705e-05
0.000156899
1.43074e-05
0.000189261
9.29336e-06
0.000218876
3.77244e-06
0.000245009
-1.98475e-06
0.00026729
-7.97588e-06
0.000285732
-1.41262e-05
0.000299934
-2.02574e-05
0.000309409
-2.61292e-05
0.000313545
-3.17051e-05
0.000311891
-3.69105e-05
0.000306249
-4.16804e-05
0.000296718
-4.59518e-05
0.000283458
-4.96767e-05
0.000266719
-5.28327e-05
0.000246834
-5.5398e-05
0.000224142
-5.7378e-05
0.000199026
-5.88087e-05
0.000171952
-5.9741e-05
0.000143397
-6.02828e-05
0.000113858
-6.06552e-05
8.38318e-05
-6.13762e-05
5.36254e-05
-6.29211e-05
2.09376e-05
-6.40143e-05
-1.72677e-05
-6.43204e-05
-5.61272e-05
-6.38419e-05
-9.43772e-05
-6.26334e-05
-0.000131173
-6.07217e-05
-0.000165864
-5.81208e-05
-0.000197866
-5.48385e-05
-0.000226607
-5.08753e-05
-0.000251549
-4.62234e-05
-0.00027219
-4.08667e-05
-0.000288026
-3.47176e-05
-0.000298444
-2.75285e-05
-0.00030217
-1.98247e-05
-0.000299892
-1.1649e-05
-0.000293256
-3.0919e-06
-0.000282564
5.72223e-06
-0.000268207
1.46361e-05
-0.000250617
2.3478e-05
-0.000230264
3.20692e-05
-0.000207607
4.02184e-05
-0.00018307
4.77437e-05
-0.000157071
5.45467e-05
-0.000130009
6.06831e-05
-0.000102232
6.64673e-05
-7.38105e-05
7.22592e-05
-4.37826e-05
7.70403e-05
-1.07297e-05
8.02688e-05
2.27912e-05
8.20084e-05
5.61407e-05
8.23314e-05
8.89362e-05
8.14006e-05
0.000120654
7.94045e-05
0.00015086
7.65263e-05
0.000179088
7.29386e-05
0.000204835
6.87938e-05
0.00022762
6.42197e-05
0.000246966
5.93188e-05
0.000262477
5.42124e-05
0.000273517
4.89461e-05
0.000279788
4.37967e-05
0.000279962
3.87248e-05
0.000275524
3.41994e-05
0.000266736
2.9701e-05
0.000258026
2.573e-05
0.000233826
2.26464e-05
0.00022046
0.000183769
3.39358e-05
-0.00048923
3.78417e-05
-0.000463741
4.24331e-05
-0.000431694
4.76219e-05
-0.00039412
5.32354e-05
-0.000352122
5.90107e-05
-0.000306794
6.46118e-05
-0.000259176
6.96767e-05
-0.000210245
7.39294e-05
-0.000160998
7.7365e-05
-0.000112628
8.07984e-05
-6.56281e-05
8.44955e-05
-1.34964e-05
8.60814e-05
4.31042e-05
8.56841e-05
9.73605e-05
8.357e-05
0.00014885
8.00349e-05
0.000197054
7.53689e-05
0.000241464
6.98385e-05
0.000281528
6.36462e-05
0.000316742
5.69397e-05
0.000346664
4.97953e-05
0.000370972
4.21718e-05
0.000389501
3.41879e-05
0.000401935
2.63227e-05
0.00040712
1.88985e-05
0.000405385
1.1746e-05
0.000398956
5.23302e-06
0.000387106
-5.86348e-07
0.000370283
-6.81455e-06
0.000349696
-1.32248e-05
0.000324717
-1.83735e-05
0.000295221
-2.21034e-05
0.000262502
-2.48373e-05
0.000227319
-2.66593e-05
0.000190154
-2.76285e-05
0.000151827
-2.78653e-05
0.000113298
-2.76123e-05
7.57954e-05
-2.76001e-05
4.09328e-05
-2.92102e-05
1.42252e-06
-2.94267e-05
-4.63093e-05
-2.89584e-05
-9.13888e-05
-2.85195e-05
-0.000133119
-2.85606e-05
-0.000171839
-2.89375e-05
-0.000208062
-2.96295e-05
-0.000241332
-3.06337e-05
-0.000271259
-3.19061e-05
-0.000297531
-3.33162e-05
-0.000319834
-3.46729e-05
-0.00033776
-3.57643e-05
-0.000350784
-3.63605e-05
-0.000358116
-3.62844e-05
-0.000358168
-3.5613e-05
-0.00035311
-3.42664e-05
-0.000343243
-3.22032e-05
-0.000328822
-2.94224e-05
-0.000310158
-2.59823e-05
-0.000287632
-2.20248e-05
-0.00026164
-1.77874e-05
-0.000232676
-1.34963e-05
-0.000201292
-9.31464e-06
-0.000168061
-5.49288e-06
-0.000133494
-2.18829e-06
-9.83391e-05
6.96455e-07
-6.41495e-05
3.31587e-06
-3.2881e-05
7.23273e-06
-6.89117e-06
9.06137e-06
4.21642e-05
7.84711e-06
8.63343e-05
5.57418e-06
0.000124378
2.75852e-06
0.000159714
-4.71745e-07
0.000192491
-4.18916e-06
0.000222593
-8.30295e-06
0.000249122
-1.29227e-05
0.00027191
-1.76832e-05
0.000290492
-2.23949e-05
0.000304646
-2.70727e-05
0.000314087
-3.14211e-05
0.000317894
-3.54053e-05
0.000315876
-3.89868e-05
0.00030983
-4.21337e-05
0.000299865
-4.48125e-05
0.000286137
-4.70053e-05
0.000268912
-4.87074e-05
0.000248536
-4.99082e-05
0.000225343
-5.06029e-05
0.000199721
-5.07802e-05
0.000172129
-5.04937e-05
0.00014311
-4.98709e-05
0.000113235
-4.91455e-05
8.31064e-05
-4.8871e-05
5.33509e-05
-4.99758e-05
2.20424e-05
-5.10084e-05
-1.62352e-05
-5.13403e-05
-5.57953e-05
-5.1047e-05
-9.46705e-05
-5.02752e-05
-0.000131945
-4.90437e-05
-0.000167095
-4.73486e-05
-0.000199562
-4.51585e-05
-0.000228797
-4.24257e-05
-0.000254282
-3.91133e-05
-0.000275503
-3.51732e-05
-0.000291966
-3.04958e-05
-0.000303122
-2.48226e-05
-0.000307843
-1.85855e-05
-0.000306129
-1.18359e-05
-0.000300006
-4.65582e-06
-0.000289744
2.83602e-06
-0.000275699
1.05014e-05
-0.000258283
1.81811e-05
-0.000237944
2.56862e-05
-0.000215112
3.28151e-05
-0.000190199
3.93893e-05
-0.000163645
4.5268e-05
-0.000135888
5.03942e-05
-0.000107358
5.50213e-05
-7.84376e-05
5.99327e-05
-4.86939e-05
6.46543e-05
-1.54513e-05
6.78364e-05
1.9609e-05
6.96508e-05
5.43264e-05
7.02318e-05
8.83553e-05
6.97792e-05
0.000121106
6.84887e-05
0.00015215
6.65102e-05
0.000181066
6.39625e-05
0.000207382
6.09369e-05
0.000230645
5.74856e-05
0.000250417
5.36716e-05
0.000266291
4.96001e-05
0.000277588
4.53638e-05
0.000284024
4.12103e-05
0.000284115
3.7167e-05
0.000279567
3.36459e-05
0.000270257
3.01633e-05
0.000261509
2.68824e-05
0.000237107
2.43249e-05
0.000223018
0.000185656
3.4131e-05
-0.000490574
3.61832e-05
-0.000465793
3.89355e-05
-0.000434446
4.23265e-05
-0.000397511
4.62382e-05
-0.000356033
5.04762e-05
-0.000311032
5.47498e-05
-0.00026345
5.86985e-05
-0.000214194
6.20025e-05
-0.000164302
6.44764e-05
-0.000115102
6.67021e-05
-6.78538e-05
7.02146e-05
-1.70089e-05
7.15675e-05
4.17513e-05
7.08723e-05
9.80557e-05
6.87278e-05
0.000150994
6.56764e-05
0.000200106
6.20808e-05
0.000245059
5.81219e-05
0.000285487
5.376e-05
0.000321104
4.89497e-05
0.000351474
4.36866e-05
0.000376235
3.78192e-05
0.000395368
3.11743e-05
0.00040858
2.3989e-05
0.000414305
1.67724e-05
0.000412602
1.03123e-05
0.000405416
3.98047e-06
0.000393438
-2.52814e-06
0.000376791
-7.72929e-06
0.000354897
-1.16324e-05
0.00032862
-1.4913e-05
0.000298501
-1.74679e-05
0.000265057
-1.91427e-05
0.000228994
-2.00658e-05
0.000191077
-2.01543e-05
0.000151916
-1.94557e-05
0.0001126
-1.82697e-05
7.46095e-05
-1.74429e-05
4.01061e-05
-2.03044e-05
4.28397e-06
-1.91474e-05
-4.74663e-05
-1.73616e-05
-9.31746e-05
-1.64443e-05
-0.000134037
-1.63107e-05
-0.000171972
-1.69373e-05
-0.000207436
-1.80008e-05
-0.000240269
-1.95206e-05
-0.000269739
-2.14837e-05
-0.000295568
-2.38186e-05
-0.000317499
-2.62767e-05
-0.000335302
-2.85122e-05
-0.000348548
-3.03167e-05
-0.000356312
-3.14796e-05
-0.000357005
-3.2169e-05
-0.000352421
-3.22622e-05
-0.00034315
-3.16884e-05
-0.000329396
-3.04431e-05
-0.000311403
-2.85762e-05
-0.000289499
-2.62492e-05
-0.000263967
-2.36857e-05
-0.00023524
-2.10121e-05
-0.000203966
-1.83049e-05
-0.000170768
-1.5618e-05
-0.000136181
-1.29061e-05
-0.000101051
-1.01916e-05
-6.68639e-05
-7.17579e-06
-3.58968e-05
-8.84565e-06
-5.22131e-06
-8.61156e-06
4.19301e-05
-8.52571e-06
8.62484e-05
-9.33943e-06
0.000125191
-1.11246e-05
0.0001615
-1.35006e-05
0.000194867
-1.59734e-05
0.000225066
-1.89889e-05
0.000252138
-2.24572e-05
0.000275378
-2.61519e-05
0.000294187
-2.97875e-05
0.000308281
-3.31441e-05
0.000317444
-3.60215e-05
0.000320771
-3.85284e-05
0.000318382
-4.06379e-05
0.00031194
-4.23126e-05
0.00030154
-4.35231e-05
0.000287347
-4.42573e-05
0.000269646
-4.44971e-05
0.000248776
-4.42456e-05
0.000225091
-4.35233e-05
0.000198998
-4.23699e-05
0.000170976
-4.08793e-05
0.000141619
-3.91732e-05
0.000111529
-3.74201e-05
8.13533e-05
-3.60599e-05
5.19907e-05
-3.65635e-05
2.2546e-05
-3.76113e-05
-1.51873e-05
-3.77045e-05
-5.57022e-05
-3.74407e-05
-9.49342e-05
-3.70726e-05
-0.000132313
-3.65474e-05
-0.000167621
-3.58021e-05
-0.000200307
-3.47508e-05
-0.000229848
-3.3303e-05
-0.00025573
-3.13743e-05
-0.000277431
-2.88729e-05
-0.000294467
-2.56942e-05
-0.0003063
-2.15752e-05
-0.000311962
-1.68551e-05
-0.000310849
-1.16136e-05
-0.000305247
-5.92881e-06
-0.000295429
1.02041e-07
-0.00028173
6.35971e-06
-0.000264541
1.26948e-05
-0.000244279
1.89466e-05
-0.000221364
2.4955e-05
-0.000196207
3.0511e-05
-0.000169201
3.53855e-05
-0.000140762
3.9483e-05
-0.000111456
4.29739e-05
-8.19286e-05
4.66812e-05
-5.24011e-05
5.12351e-05
-2.00052e-05
5.44963e-05
1.63479e-05
5.65721e-05
5.22506e-05
5.76386e-05
8.72887e-05
5.79164e-05
0.000120828
5.75296e-05
0.000152537
5.65097e-05
0.000182086
5.4884e-05
0.000209008
5.27243e-05
0.000232805
5.01574e-05
0.000252984
4.73097e-05
0.000269139
4.42808e-05
0.000280617
4.12096e-05
0.000287095
3.82401e-05
0.000287085
3.54558e-05
0.000282351
3.31157e-05
0.000272598
3.08004e-05
0.000263824
2.82897e-05
0.000239618
2.64199e-05
0.000224888
0.000187031
3.37622e-05
3.38455e-05
3.46944e-05
3.63401e-05
3.87658e-05
4.18017e-05
4.4992e-05
4.7729e-05
4.95512e-05
5.02309e-05
5.03527e-05
5.32151e-05
5.47619e-05
5.48171e-05
5.4268e-05
5.32596e-05
5.16174e-05
4.92484e-05
4.61745e-05
4.22982e-05
3.74675e-05
3.20497e-05
2.65244e-05
2.06077e-05
1.44045e-05
8.01015e-06
2.15491e-06
-2.62983e-06
-6.51138e-06
-9.38451e-06
-1.13902e-05
-1.26535e-05
-1.32757e-05
-1.34289e-05
-1.33685e-05
-1.28973e-05
-1.15531e-05
-9.71098e-06
-1.34306e-05
-1.09983e-05
-8.71394e-06
-6.90365e-06
-5.41219e-06
-4.99232e-06
-5.90977e-06
-7.6482e-06
-1.02187e-05
-1.34222e-05
-1.68072e-05
-2.01229e-05
-2.3058e-05
-2.55136e-05
-2.77633e-05
-2.95772e-05
-3.07537e-05
-3.1329e-05
-3.13613e-05
-3.09264e-05
-3.0133e-05
-2.90791e-05
-2.77949e-05
-2.61726e-05
-2.40813e-05
-2.1612e-05
-1.97147e-05
-2.25441e-05
-2.27521e-05
-2.18436e-05
-2.20095e-05
-2.30746e-05
-2.49749e-05
-2.73495e-05
-2.97777e-05
-3.21606e-05
-3.45018e-05
-3.67491e-05
-3.87274e-05
-4.01314e-05
-4.1118e-05
-4.16675e-05
-4.17615e-05
-4.14054e-05
-4.06305e-05
-3.94722e-05
-3.79818e-05
-3.61718e-05
-3.40274e-05
-3.15356e-05
-2.87086e-05
-2.57313e-05
-2.30958e-05
-2.26466e-05
-2.47368e-05
-2.36865e-05
-2.3043e-05
-2.29553e-05
-2.32225e-05
-2.35707e-05
-2.37828e-05
-2.37094e-05
-2.32641e-05
-2.23257e-05
-2.07648e-05
-1.82755e-05
-1.51243e-05
-1.14229e-05
-7.2389e-06
-2.6624e-06
2.18093e-06
7.16724e-06
1.21838e-05
1.70484e-05
2.14796e-05
2.52266e-05
2.81836e-05
3.04058e-05
3.26227e-05
3.6894e-05
4.08026e-05
4.35593e-05
4.52586e-05
4.61049e-05
4.61625e-05
0.000152479
4.55491e-05
0.000182699
4.44076e-05
0.00021015
4.28565e-05
0.000234356
4.10445e-05
0.000254796
3.91214e-05
0.000271062
3.72069e-05
0.000282532
3.54036e-05
0.000288898
3.38168e-05
0.000288671
3.23841e-05
0.000283784
3.14359e-05
0.000273546
3.06603e-05
0.0002646
2.93579e-05
0.000240921
2.85854e-05
0.00022566
0.000187666
3.36667e-05
3.34237e-05
3.28619e-05
3.21284e-05
3.13166e-05
3.05108e-05
2.97493e-05
2.91104e-05
2.8737e-05
2.83737e-05
2.84443e-05
2.89961e-05
2.86365e-05
2.88747e-05
-2.38526e-05
-3.48998e-06
-2.07116e-05
-3.14091e-06
-1.80767e-05
-2.63498e-06
-1.52981e-05
-2.77854e-06
-1.19556e-05
-3.34252e-06
-7.45144e-06
-4.50418e-06
-3.11881e-06
-4.33263e-06
3.10648e-06
-6.22529e-06
1.0659e-05
-7.55249e-06
1.89767e-05
-8.31773e-06
2.80924e-05
-9.11575e-06
3.80194e-05
-9.92694e-06
4.86824e-05
-1.0663e-05
5.98277e-05
-1.11453e-05
7.10463e-05
-1.12186e-05
8.18108e-05
-1.07646e-05
9.13734e-05
-9.56257e-06
9.8982e-05
-7.60862e-06
0.00010404
-5.05838e-06
0.00010618
-2.13976e-06
0.000105332
8.47688e-07
0.000101767
3.56551e-06
9.6143e-05
5.62398e-06
8.87664e-05
7.37655e-06
7.96066e-05
9.15985e-06
6.88521e-05
1.07545e-05
5.66802e-05
1.21719e-05
4.31802e-05
1.35e-05
2.84205e-05
1.47598e-05
1.29816e-05
1.54388e-05
8.3553e-07
1.21461e-05
-1.31905e-05
1.4026e-05
-2.64129e-05
1.32224e-05
-3.83582e-05
1.19452e-05
-4.85898e-05
1.02316e-05
-5.68493e-05
8.25946e-06
-6.29942e-05
6.14495e-06
-6.69693e-05
3.97505e-06
-6.88218e-05
1.85252e-06
-6.87926e-05
-2.91558e-08
-6.72144e-05
-1.57818e-06
-6.43944e-05
-2.82006e-06
-6.05778e-05
-3.81664e-06
-5.59699e-05
-4.60789e-06
-5.0793e-05
-5.17689e-06
-4.52563e-05
-5.53672e-06
-3.95686e-05
-5.68769e-06
-3.39412e-05
-5.62737e-06
-2.85983e-05
-5.34285e-06
-2.37371e-05
-4.86121e-06
-1.93667e-05
-4.37046e-06
-1.55145e-05
-3.85216e-06
-1.22876e-05
-3.22694e-06
-9.81978e-06
-2.46779e-06
-8.12439e-06
-1.6954e-06
-6.83482e-06
-1.28957e-06
-5.99381e-06
-8.41005e-07
-5.5137e-06
-4.80115e-07
-5.4171e-06
-9.65948e-08
-5.55558e-06
1.38482e-07
-6.05147e-06
4.95893e-07
-6.80506e-06
7.53584e-07
-7.6165e-06
8.11439e-07
-8.31494e-06
6.98443e-07
-8.84154e-06
5.26607e-07
-9.18578e-06
3.44236e-07
-9.35378e-06
1.68002e-07
-9.41432e-06
6.05392e-08
-9.33907e-06
-7.5244e-08
-9.07368e-06
-2.65392e-07
-8.66481e-06
-4.08868e-07
-8.17147e-06
-4.93339e-07
-7.63452e-06
-5.36945e-07
-7.07948e-06
-5.55039e-07
-6.45959e-06
-6.1989e-07
-5.56976e-06
-8.8982e-07
-4.66634e-06
-9.03422e-07
-3.27749e-06
-1.38885e-06
-1.3188e-06
-1.95869e-06
1.34401e-06
-2.6628e-06
4.79291e-06
-3.4489e-06
9.04041e-06
-4.2475e-06
1.40161e-05
-4.9757e-06
1.96245e-05
-5.60843e-06
2.56712e-05
-6.04663e-06
3.20388e-05
-6.36761e-06
3.86442e-05
-6.60536e-06
4.53691e-05
-6.72492e-06
5.20104e-05
-6.64129e-06
5.82851e-05
-6.27475e-06
6.38719e-05
-5.58681e-06
6.84763e-05
-4.60435e-06
7.18384e-05
-3.36216e-06
7.37852e-05
-1.94679e-06
7.43083e-05
-5.23087e-07
7.36133e-05
6.95005e-07
7.17952e-05
1.81812e-06
6.87701e-05
3.02514e-06
6.45168e-05
4.25326e-06
5.90802e-05
5.43661e-06
5.25267e-05
6.55356e-06
4.49129e-05
7.61373e-06
3.62905e-05
8.62242e-06
2.66843e-05
9.60623e-06
1.64144e-05
1.02699e-05
5.41233e-06
1.1002e-05
-3.78425e-06
9.19658e-06
-1.36153e-05
9.83102e-06
-2.32476e-05
9.63228e-06
-3.22986e-05
9.051e-06
-4.04982e-05
8.19965e-06
-4.76376e-05
7.1394e-06
-5.35573e-05
5.91973e-06
-5.81533e-05
4.596e-06
-6.13756e-05
3.22224e-06
-6.32287e-05
1.85317e-06
-6.3785e-05
5.56246e-07
-6.31634e-05
-6.21538e-07
-6.14864e-05
-1.67708e-06
-5.8899e-05
-2.58735e-06
-5.56141e-05
-3.28493e-06
-5.18324e-05
-3.7817e-06
-4.7696e-05
-4.13634e-06
-4.33319e-05
-4.36414e-06
-3.8849e-05
-4.48292e-06
-3.43329e-05
-4.51607e-06
-2.98425e-05
-4.49042e-06
-2.54118e-05
-4.43063e-06
-2.10539e-05
-4.35794e-06
-1.67615e-05
-4.2924e-06
-1.25132e-05
-4.24828e-06
-8.29249e-06
-4.22072e-06
-4.05777e-06
-4.23473e-06
1.50228e-07
-4.208e-06
4.90591e-06
-4.75568e-06
9.42548e-06
-4.51957e-06
-4.83345e-06
-2.17671e-06
-1.3048e-05
7.2406e-06
-1.25582e-05
1.63628e-05
-1.17572e-05
2.4679e-05
-1.10947e-05
3.21349e-05
-1.07985e-05
3.90478e-05
-1.14171e-05
4.71314e-05
-1.24162e-05
5.48193e-05
-1.39132e-05
6.2828e-05
-1.55612e-05
7.09578e-05
-1.64475e-05
7.92567e-05
-1.74147e-05
8.7772e-05
-1.84422e-05
9.64189e-05
-1.93099e-05
0.000104856
-1.95829e-05
0.000112559
-1.89209e-05
0.000119138
-1.73442e-05
0.000123929
-1.43529e-05
0.000126243
-9.92263e-06
0.000125761
-4.57671e-06
0.00012245
1.17102e-06
0.000116271
7.02738e-06
0.00010721
1.26257e-05
9.51475e-05
1.76869e-05
8.07823e-05
2.17418e-05
6.54392e-05
2.45029e-05
4.99798e-05
2.62139e-05
3.482e-05
2.73317e-05
1.97688e-05
2.85512e-05
4.57247e-06
2.99561e-05
-8.1363e-06
2.81476e-05
-2.59677e-05
2.99775e-05
-4.20137e-05
3.0072e-05
-5.76782e-05
2.88869e-05
-7.2246e-05
2.6513e-05
-8.51743e-05
2.316e-05
-9.60482e-05
1.91333e-05
-0.000104568
1.46645e-05
-0.000110406
9.8135e-06
-0.000113291
4.73728e-06
-0.000113475
1.54439e-07
-0.000111473
-3.58011e-06
-0.000107642
-6.65032e-06
-0.000102186
-9.27321e-06
-9.52787e-05
-1.15149e-05
-8.71344e-05
-1.33213e-05
-7.80082e-05
-1.46629e-05
-6.82703e-05
-1.54256e-05
-5.83322e-05
-1.55655e-05
-4.85847e-05
-1.50904e-05
-3.9315e-05
-1.41309e-05
-3.06859e-05
-1.29995e-05
-2.27914e-05
-1.17466e-05
-1.57508e-05
-1.02676e-05
-1.06435e-05
-7.57512e-06
-6.94673e-06
-5.39213e-06
-3.59442e-06
-4.64187e-06
-4.47653e-07
-3.98777e-06
2.17171e-06
-3.09947e-06
4.17242e-06
-2.09731e-06
5.92272e-06
-1.61181e-06
6.76973e-06
-3.51121e-07
7.09235e-06
4.30963e-07
7.31251e-06
5.91284e-07
7.76704e-06
2.43907e-07
8.43913e-06
-1.45482e-07
9.26775e-06
-4.84384e-07
1.0276e-05
-8.40239e-07
1.1241e-05
-9.04474e-07
1.23148e-05
-1.14907e-06
1.35831e-05
-1.5337e-06
1.4921e-05
-1.74673e-06
1.62617e-05
-1.83408e-06
1.75635e-05
-1.83865e-06
1.88046e-05
-1.79622e-06
1.99879e-05
-1.80314e-06
2.10855e-05
-1.98743e-06
2.25362e-05
-2.3541e-06
2.43151e-05
-3.16774e-06
2.67245e-05
-4.36813e-06
2.99165e-05
-5.85483e-06
3.39463e-05
-7.47865e-06
3.87478e-05
-9.04901e-06
4.413e-05
-1.03579e-05
4.97486e-05
-1.1227e-05
5.53487e-05
-1.16467e-05
6.07717e-05
-1.17906e-05
6.59661e-05
-1.17998e-05
7.0934e-05
-1.16927e-05
7.55894e-05
-1.12967e-05
7.96355e-05
-1.03209e-05
8.27037e-05
-8.65497e-06
8.44825e-05
-6.38308e-06
8.47969e-05
-3.67657e-06
8.35848e-05
-7.34756e-07
8.07662e-05
2.29559e-06
7.61396e-05
5.32158e-06
6.97786e-05
8.17906e-06
6.21357e-05
1.06681e-05
5.36503e-05
1.27386e-05
4.46424e-05
1.44445e-05
3.53276e-05
1.58684e-05
2.5793e-05
1.71483e-05
1.60533e-05
1.83621e-05
6.0862e-06
1.95734e-05
-3.5094e-06
1.98655e-05
-1.31564e-05
2.0649e-05
-2.47639e-05
2.08041e-05
-3.57196e-05
2.07867e-05
-4.62448e-05
2.01575e-05
-5.61287e-05
1.89349e-05
-6.51098e-05
1.71808e-05
-7.29439e-05
1.49734e-05
-7.94433e-05
1.24192e-05
-8.44829e-05
9.63554e-06
-8.79877e-05
6.72705e-06
-8.99214e-05
3.78686e-06
-9.02806e-05
9.15493e-07
-8.91369e-05
-1.76523e-06
-8.66609e-05
-4.15307e-06
-8.30405e-05
-6.20773e-06
-7.84024e-05
-7.92304e-06
-7.28738e-05
-9.31039e-06
-6.6622e-05
-1.03881e-05
-5.98047e-05
-1.11815e-05
-5.25682e-05
-1.17194e-05
-4.50481e-05
-1.20361e-05
-3.73627e-05
-1.21758e-05
-2.96109e-05
-1.21824e-05
-2.187e-05
-1.20988e-05
-1.42064e-05
-1.1956e-05
-6.65837e-06
-1.17963e-05
7.13371e-07
-1.15925e-05
7.76955e-06
-1.12909e-05
1.46331e-05
-1.10715e-05
2.15614e-05
-1.1684e-05
2.86823e-05
-1.16405e-05
-1.16474e-05
-3.04521e-05
-2.88876e-05
-1.44744e-05
-2.85359e-05
2.78652e-06
-2.90181e-05
2.03969e-05
-2.87051e-05
3.74862e-05
-2.78877e-05
5.3602e-05
-2.75329e-05
6.79379e-05
-2.67521e-05
7.95837e-05
-2.5559e-05
8.82812e-05
-2.42587e-05
9.46568e-05
-2.28231e-05
9.93518e-05
-2.21097e-05
0.000102869
-2.19599e-05
0.000105994
-2.24339e-05
0.000109277
-2.28663e-05
0.000112659
-2.23027e-05
0.000116586
-2.12718e-05
0.00011969
-1.74569e-05
0.000120801
-1.10336e-05
0.000119658
-3.4339e-06
0.000116286
4.54324e-06
0.000110565
1.27489e-05
0.000102692
2.04985e-05
9.32302e-05
2.71487e-05
8.27646e-05
3.22073e-05
7.16501e-05
3.56174e-05
6.00174e-05
3.78466e-05
4.76797e-05
3.96694e-05
3.4348e-05
4.18829e-05
1.95166e-05
4.47875e-05
5.89747e-06
4.17667e-05
-1.11484e-05
4.70234e-05
-2.7713e-05
4.66366e-05
-4.38925e-05
4.50665e-05
-5.91399e-05
4.17603e-05
-7.29434e-05
3.69636e-05
-8.5061e-05
3.12509e-05
-9.54959e-05
2.50994e-05
-0.000104142
1.84599e-05
-0.000110371
1.09655e-05
-0.000114522
4.30576e-06
-0.000116969
-1.13329e-06
-0.000117941
-5.67838e-06
-0.000117576
-9.63824e-06
-0.000115886
-1.32048e-05
-0.000112725
-1.6482e-05
-0.000107959
-1.94287e-05
-0.000101766
-2.16191e-05
-9.44145e-05
-2.29166e-05
-8.62824e-05
-2.32225e-05
-7.76549e-05
-2.27584e-05
-6.88053e-05
-2.18491e-05
-5.992e-05
-2.06319e-05
-5.13395e-05
-1.88481e-05
-4.33249e-05
-1.55897e-05
-3.56871e-05
-1.303e-05
-2.85707e-05
-1.17583e-05
-2.19886e-05
-1.05698e-05
-1.61835e-05
-8.90457e-06
-1.12677e-05
-7.01314e-06
-6.32017e-06
-6.55934e-06
-1.53676e-06
-5.13454e-06
2.85008e-06
-3.95587e-06
7.02055e-06
-3.57919e-06
1.12913e-05
-4.0268e-06
1.55967e-05
-4.45096e-06
2.01657e-05
-5.05336e-06
2.49909e-05
-5.66541e-06
2.86718e-05
-4.58538e-06
3.20835e-05
-4.56081e-06
3.5722e-05
-5.17211e-06
3.90796e-05
-5.10435e-06
4.19504e-05
-4.70488e-06
4.42574e-05
-4.1457e-06
4.59797e-05
-3.51853e-06
4.71337e-05
-2.95707e-06
4.78313e-05
-2.68502e-06
4.83359e-05
-2.85874e-06
4.87313e-05
-3.56316e-06
4.91734e-05
-4.81018e-06
4.985e-05
-6.53146e-06
5.094e-05
-8.56863e-06
5.25703e-05
-1.06793e-05
5.47617e-05
-1.25493e-05
5.73202e-05
-1.37855e-05
6.00696e-05
-1.43961e-05
6.29706e-05
-1.46916e-05
6.60523e-05
-1.48815e-05
6.92897e-05
-1.49301e-05
7.24887e-05
-1.44957e-05
7.52656e-05
-1.30978e-05
7.71602e-05
-1.05496e-05
7.78957e-05
-7.11862e-06
7.73776e-05
-3.15848e-06
7.55273e-05
1.11557e-06
7.23744e-05
5.44852e-06
6.81213e-05
9.57462e-06
6.29858e-05
1.33146e-05
5.71157e-05
1.65382e-05
5.06415e-05
1.92129e-05
4.36585e-05
2.14275e-05
3.61778e-05
2.33491e-05
2.80824e-05
2.52437e-05
1.90996e-05
2.73449e-05
8.84703e-06
2.98259e-05
6.47965e-07
2.80646e-05
-1.03853e-05
3.16823e-05
-2.13629e-05
3.17817e-05
-3.2081e-05
3.15047e-05
-4.23851e-05
3.04616e-05
-5.2051e-05
2.86008e-05
-6.08307e-05
2.59605e-05
-6.84909e-05
2.26336e-05
-7.48602e-05
1.87885e-05
-7.98461e-05
1.46214e-05
-8.34037e-05
1.02846e-05
-8.54998e-05
5.88301e-06
-8.61449e-05
1.56055e-06
-8.55007e-05
-2.40944e-06
-8.38632e-05
-5.7905e-06
-8.14344e-05
-8.63658e-06
-7.82894e-05
-1.10681e-05
-7.45181e-05
-1.30816e-05
-7.02419e-05
-1.46643e-05
-6.55612e-05
-1.58622e-05
-6.05419e-05
-1.67387e-05
-5.52244e-05
-1.73537e-05
-4.9622e-05
-1.77782e-05
-4.37317e-05
-1.80727e-05
-3.75107e-05
-1.83199e-05
-3.08976e-05
-1.85691e-05
-2.38537e-05
-1.88403e-05
-1.63537e-05
-1.90925e-05
-8.44207e-06
-1.92025e-05
-4.48745e-08
-1.94687e-05
8.18349e-06
-1.99124e-05
1.71651e-05
-2.0622e-05
-2.06555e-05
-6.48678e-05
-3.67821e-05
-5.50938e-05
-3.83098e-05
-4.4377e-05
-3.9735e-05
-3.2176e-05
-4.09061e-05
-1.77374e-05
-4.23263e-05
-1.34161e-06
-4.39287e-05
1.60935e-05
-4.41872e-05
3.37968e-05
-4.32624e-05
5.09767e-05
-4.14386e-05
6.70146e-05
-3.8861e-05
8.10157e-05
-3.61108e-05
9.20526e-05
-3.29969e-05
0.000100252
-3.06329e-05
0.000105012
-2.76263e-05
0.000104363
-2.16542e-05
0.000104064
-2.09728e-05
0.000102961
-1.63537e-05
0.000101197
-9.26989e-06
9.92615e-05
-1.49823e-06
9.68015e-05
7.00332e-06
9.32866e-05
1.62637e-05
8.87149e-05
2.50702e-05
8.31433e-05
3.27203e-05
7.66563e-05
3.86943e-05
6.92717e-05
4.3002e-05
6.1174e-05
4.59443e-05
5.2373e-05
4.84704e-05
4.31394e-05
5.11164e-05
3.41041e-05
5.38228e-05
1.95605e-05
5.63103e-05
8.51784e-06
5.8066e-05
-3.53256e-06
5.8687e-05
-1.5443e-05
5.69769e-05
-2.66496e-05
5.29669e-05
-3.67585e-05
4.70725e-05
-4.58753e-05
4.03677e-05
-5.44908e-05
3.37148e-05
-6.25241e-05
2.64933e-05
-6.80037e-05
1.6445e-05
-7.21119e-05
8.41396e-06
-7.56502e-05
2.40498e-06
-7.8849e-05
-2.47953e-06
-8.16985e-05
-6.78875e-06
-8.42754e-05
-1.06279e-05
-8.61645e-05
-1.45929e-05
-8.62856e-05
-1.93076e-05
-8.52752e-05
-2.26294e-05
-8.3661e-05
-2.45309e-05
-8.15526e-05
-2.53309e-05
-7.90238e-05
-2.52871e-05
-7.61806e-05
-2.46924e-05
-7.30434e-05
-2.37692e-05
-6.94677e-05
-2.24237e-05
-6.45714e-05
-2.0486e-05
-5.90066e-05
-1.85948e-05
-5.36807e-05
-1.70841e-05
-4.84591e-05
-1.57914e-05
-4.30619e-05
-1.43018e-05
-3.73768e-05
-1.26983e-05
-3.24228e-05
-1.15134e-05
-2.72125e-05
-1.03448e-05
-2.2175e-05
-8.99338e-06