/*--------------------------------*- C++ -*----------------------------------*\
| =========                 |                                                 |
| \\      /  F ield         | OpenFOAM: The Open Source CFD Toolbox           |
|  \\    /   O peration     | Version:  2206                                  |
|   \\  /    A nd           | Website:  www.openfoam.com                      |
|    \\/     M anipulation  |                                                 |
\*---------------------------------------------------------------------------*/
FoamFile
{
    version     2.0;
    format      ascii;
    arch        "LSB;label=32;scalar=64";
    class       volScalarField;
    location    "19.2";
    object      p;
}
// * * * * * * * * * * * * * * * * * * * * * * * * * * * * * * * * * * * * * //

dimensions      [0 2 -2 0 0 0 0];

internalField   nonuniform List<scalar> 
1813
(
-1.79583
-1.90256
-2.08341
-2.22738
-2.26184
-2.16004
-1.93587
-1.62861
-1.27166
-0.900117
-0.549923
-0.243224
0.0083865
0.198205
0.328475
0.411595
0.455277
0.461393
0.4415
0.386565
0.284155
0.131274
-0.0651928
-0.285605
-0.500437
-0.686155
-0.824693
-0.91893
-0.968505
-0.954819
-0.886394
-0.787594
-0.670601
-0.558023
-0.458793
-0.379982
-0.324214
-0.28935
-0.271699
-0.266979
-0.271169
-0.28486
-0.310391
-0.344346
-0.38078
-0.419043
-0.458594
-0.49389
-0.522405
-0.542106
-0.542119
-0.521921
-0.487304
-0.438012
-0.380432
-0.321016
-0.264111
-0.213423
-0.17302
-0.146248
-0.134872
-0.139693
-0.158993
-0.190088
-0.227683
-0.268523
-0.304415
-0.333115
-0.349801
-0.363131
-0.36986
-0.359337
-0.332715
-0.306358
-0.286552
-0.268604
-0.254131
-0.244814
-0.240839
-0.242912
-0.25092
-0.26402
-0.280885
-0.30046
-0.32144
-1.76587
-1.86332
-2.01847
-2.16678
-2.24281
-2.20366
-2.03697
-1.76651
-1.42368
-1.05423
-0.711083
-0.426431
-0.210634
-0.0519953
0.0698136
0.160655
0.216181
0.252474
0.265065
0.242009
0.170505
0.0461069
-0.128899
-0.338153
-0.555783
-0.749271
-0.89341
-0.983881
-1.02245
-1.00637
-0.938045
-0.834459
-0.712734
-0.593834
-0.488667
-0.403089
-0.339877
-0.298753
-0.27583
-0.265709
-0.266431
-0.281183
-0.309754
-0.349422
-0.398037
-0.449821
-0.499422
-0.545188
-0.583544
-0.60642
-0.60706
-0.585036
-0.544278
-0.489967
-0.428432
-0.36577
-0.307301
-0.256641
-0.21625
-0.188973
-0.176584
-0.179248
-0.195782
-0.223813
-0.259802
-0.298736
-0.3351
-0.364074
-0.380397
-0.387977
-0.393255
-0.37664
-0.344649
-0.317183
-0.292285
-0.269739
-0.2526
-0.241877
-0.237428
-0.239656
-0.248561
-0.263452
-0.283066
-0.305728
-0.329523
-1.66728
-1.74812
-1.8727
-2.00309
-2.07671
-2.06945
-1.96289
-1.76943
-1.51521
-1.24725
-0.999118
-0.788558
-0.61807
-0.477502
-0.344796
-0.260714
-0.166819
-0.0871454
-0.0286628
-0.00296965
-0.0239086
-0.0980808
-0.225714
-0.401763
-0.600312
-0.787783
-0.93759
-1.03411
-1.07279
-1.05453
-0.987721
-0.884409
-0.76252
-0.637945
-0.524357
-0.432708
-0.362105
-0.312133
-0.281927
-0.267653
-0.269052
-0.2875
-0.322782
-0.372724
-0.431784
-0.494475
-0.557411
-0.616238
-0.660417
-0.681392
-0.676893
-0.64855
-0.600547
-0.53984
-0.473263
-0.407215
-0.346958
-0.29654
-0.257825
-0.231694
-0.21978
-0.222207
-0.237907
-0.264999
-0.30012
-0.338668
-0.375303
-0.405075
-0.423736
-0.429554
-0.425226
-0.40618
-0.373079
-0.337763
-0.307291
-0.280709
-0.259913
-0.246644
-0.241124
-0.242856
-0.251729
-0.267145
-0.287747
-0.311435
-0.336658
-1.51298
-1.56475
-1.64529
-1.72654
-1.80064
-1.8185
-1.77588
-1.68369
-1.55647
-1.43627
-1.3211
-1.20837
-1.10074
-0.989459
-0.872317
-0.720464
-0.574838
-0.444319
-0.338181
-0.265402
-0.235713
-0.258286
-0.331416
-0.451601
-0.616185
-0.788137
-0.934656
-1.03692
-1.08385
-1.07256
-1.01132
-0.913138
-0.794627
-0.672111
-0.55422
-0.453632
-0.380942
-0.326713
-0.292808
-0.278546
-0.282782
-0.306456
-0.349392
-0.408852
-0.478754
-0.553327
-0.628284
-0.692772
-0.736544
-0.753132
-0.742906
-0.706374
-0.650067
-0.58216
-0.510225
-0.440772
-0.378905
-0.328081
-0.290495
-0.266447
-0.256026
-0.259529
-0.275907
-0.303616
-0.339747
-0.379527
-0.416702
-0.447014
-0.466273
-0.472322
-0.465496
-0.44457
-0.409115
-0.36737
-0.329281
-0.297578
-0.2729
-0.256616
-0.248932
-0.249321
-0.257093
-0.271552
-0.291161
-0.31407
-0.339984
-1.33967
-1.36516
-1.40931
-1.45918
-1.50561
-1.53428
-1.54643
-1.55007
-1.55527
-1.57966
-1.61465
-1.62673
-1.58769
-1.48342
-1.32514
-1.1317
-0.929117
-0.739665
-0.57977
-0.458261
-0.383081
-0.363608
-0.397386
-0.469574
-0.589906
-0.739237
-0.879886
-0.983311
-1.03868
-1.04071
-0.99266
-0.905908
-0.79698
-0.680694
-0.568449
-0.469064
-0.393151
-0.340615
-0.307303
-0.294829
-0.302413
-0.331124
-0.381505
-0.449055
-0.527195
-0.611472
-0.693442
-0.760597
-0.80307
-0.81528
-0.796528
-0.750908
-0.686276
-0.611314
-0.534596
-0.462341
-0.397465
-0.346385
-0.311046
-0.288156
-0.27859
-0.283995
-0.303128
-0.332856
-0.37081
-0.412813
-0.452681
-0.484469
-0.504796
-0.510259
-0.500238
-0.476254
-0.441453
-0.399723
-0.355711
-0.317076
-0.287723
-0.26773
-0.256864
-0.254779
-0.260389
-0.272451
-0.289608
-0.311422
-0.337098
-0.325243
-0.866551
-0.857862
-0.850163
-0.843534
-0.838051
-0.8337
-0.83089
-0.829695
-0.829603
-0.830506
-0.832431
-0.835341
-0.839164
-0.843823
-0.849248
-0.855371
-0.862123
-0.86943
-0.877212
-0.88539
-0.893884
-0.902606
-0.911469
-0.920394
-0.929304
-0.938129
-0.946805
-0.955289
-0.963549
-0.971568
-0.979333
-0.986843
-0.994117
-1.00115
-1.00791
-1.01436
-1.02049
-1.02627
-1.03164
-1.03654
-1.04095
-1.04483
-1.04818
-1.05103
-1.05327
-1.05445
-1.05417
-1.0523
-1.04886
-1.04385
-1.03724
-1.02898
-1.01903
-0.86687
-0.857919
-0.84997
-0.843117
-0.837452
-0.83306
-0.830101
-0.82858
-0.8283
-0.829136
-0.831029
-0.833927
-0.837756
-0.84244
-0.847904
-0.854075
-0.860879
-0.868238
-0.876071
-0.884301
-0.892845
-0.901615
-0.910517
-0.919486
-0.928468
-0.937384
-0.946162
-0.954765
-0.963166
-0.97135
-0.97931
-0.987042
-0.994541
-1.00181
-1.00882
-1.01557
-1.02203
-1.02819
-1.03398
-1.03935
-1.04425
-1.04863
-1.05243
-1.05552
-1.05765
-1.05861
-1.05815
-1.05609
-1.05234
-1.04685
-1.03956
-1.03043
-1.01942
-0.867139
-0.85771
-0.849275
-0.841939
-0.83584
-0.831069
-0.827678
-0.825674
-0.824988
-0.825532
-0.82724
-0.830047
-0.833869
-0.838609
-0.844184
-0.850492
-0.857443
-0.864944
-0.872903
-0.881241
-0.889877
-0.898736
-0.90775
-0.916869
-0.92603
-0.935178
-0.944259
-0.95324
-0.962101
-0.970825
-0.979416
-0.987884
-0.996223
-1.00441
-1.01244
-1.02028
-1.0279
-1.03529
-1.04241
-1.04923
-1.05571
-1.06182
-1.06746
-1.07254
-1.07693
-1.08051
-1.08309
-1.08444
-1.08438
-1.0828
-1.07955
-1.0744
-1.06715
-0.866318
-0.856256
-0.847184
-0.839189
-0.832494
-0.82722
-0.823397
-0.821016
-0.820011
-0.820326
-0.821915
-0.824707
-0.82862
-0.833535
-0.839349
-0.845912
-0.853122
-0.860881
-0.869097
-0.877657
-0.886467
-0.895495
-0.904703
-0.914047
-0.923469
-0.932943
-0.942421
-0.951886
-0.96128
-0.970585
-0.979854
-0.989131
-0.998408
-1.00765
-1.01683
-1.02593
-1.03495
-1.04384
-1.05259
-1.06124
-1.06977
-1.07816
-1.08637
-1.09436
-1.10208
-1.10945
-1.11635
-1.1226
-1.128
-1.13238
-1.13554
-1.137
-1.13617
-0.864181
-0.853285
-0.843423
-0.83474
-0.827422
-0.821602
-0.81734
-0.814646
-0.813487
-0.813791
-0.815493
-0.818479
-0.822624
-0.827792
-0.833878
-0.840754
-0.848291
-0.856358
-0.864912
-0.873805
-0.882853
-0.892085
-0.901512
-0.911105
-0.920808
-0.930618
-0.940508
-0.950507
-0.960536
-0.970504
-0.980547
-0.990716
-1.00098
-1.01129
-1.02165
-1.03205
-1.04251
-1.05301
-1.06358
-1.07426
-1.08505
-1.09597
-1.10704
-1.1183
-1.12974
-1.14142
-1.15332
-1.16534
-1.17739
-1.18933
-1.20092
-1.21132
-1.21981
-0.861438
-0.84954
-0.83875
-0.829224
-0.821139
-0.814654
-0.809863
-0.806797
-0.805425
-0.805684
-0.807492
-0.810721
-0.815211
-0.820821
-0.827379
-0.834743
-0.842745
-0.851239
-0.860122
-0.869286
-0.878639
-0.888174
-0.897894
-0.907779
-0.917819
-0.928006
-0.938349
-0.948832
-0.959444
-0.970177
-0.98107
-0.992141
-1.00338
-1.01477
-1.02632
-1.03804
-1.04994
-1.06207
-1.07444
-1.08712
-1.10015
-1.11359
-1.12751
-1.14203
-1.15733
-1.17351
-1.19062
-1.2087
-1.22781
-1.24798
-1.2694
-1.2903
-1.31031
-0.857926
-0.844947
-0.833027
-0.822419
-0.81337
-0.806101
-0.800767
-0.797429
-0.796025
-0.796437
-0.798536
-0.802205
-0.80727
-0.813523
-0.820744
-0.828726
-0.837283
-0.846261
-0.855544
-0.865049
-0.874723
-0.884545
-0.894521
-0.90466
-0.914981
-0.925501
-0.93624
-0.947204
-0.958405
-0.969846
-0.981533
-0.993473
-1.00567
-1.01813
-1.03086
-1.04387
-1.05721
-1.0709
-1.08503
-1.09966
-1.11489
-1.13083
-1.14761
-1.16542
-1.18447
-1.20498
-1.22717
-1.25129
-1.2776
-1.30632
-1.33756
-1.37069
-1.405
-0.867719
-0.853118
-0.839205
-0.826234
-0.814581
-0.804582
-0.79651
-0.790592
-0.786911
-0.785421
-0.78601
-0.788515
-0.792761
-0.798512
-0.805498
-0.813457
-0.822138
-0.831331
-0.840873
-0.850642
-0.860559
-0.870587
-0.880724
-0.890987
-0.90141
-0.912034
-0.922896
-0.93403
-0.945456
-0.9572
-0.969269
-0.98166
-0.99438
-1.00743
-1.02083
-1.03458
-1.04871
-1.06328
-1.07833
-1.09396
-1.11027
-1.1274
-1.1455
-1.16479
-1.1855
-1.20793
-1.23243
-1.25939
-1.28932
-1.32277
-1.36038
-1.40285
-1.45077
-1.50435
-0.866196
-0.850776
-0.835918
-0.821926
-0.809268
-0.798408
-0.789698
-0.783369
-0.779485
-0.777985
-0.778731
-0.781555
-0.786262
-0.792555
-0.800121
-0.80865
-0.817859
-0.827514
-0.837439
-0.847509
-0.857657
-0.867862
-0.87814
-0.888529
-0.899084
-0.909865
-0.920922
-0.932304
-0.944038
-0.956151
-0.968652
-0.981545
-0.994829
-1.00849
-1.02253
-1.03698
-1.05188
-1.06727
-1.08323
-1.09985
-1.11725
-1.13561
-1.15512
-1.17603
-1.19863
-1.22327
-1.25041
-1.28057
-1.31443
-1.35284
-1.39689
-1.448
-1.50821
-1.57983
-0.862701
-0.847412
-0.832733
-0.818912
-0.806423
-0.795745
-0.78723
-0.781081
-0.777365
-0.776046
-0.776922
-0.779801
-0.784547
-0.790885
-0.798496
-0.807077
-0.816353
-0.826088
-0.836102
-0.846271
-0.856524
-0.866836
-0.87722
-0.887712
-0.898364
-0.909234
-0.920377
-0.931838
-0.943654
-0.95585
-0.96844
-0.981431
-0.994826
-1.00861
-1.02279
-1.0374
-1.05247
-1.06806
-1.08424
-1.10111
-1.1188
-1.13748
-1.15735
-1.17867
-1.20175
-1.22696
-1.25477
-1.28575
-1.32062
-1.36032
-1.406
-1.45946
-1.52214
-1.59842
-1.00733
-0.993871
-0.978623
-0.961982
-0.946816
-0.934333
-0.918621
-0.889547
-0.838097
-0.761025
-0.663628
-0.558892
-0.451892
-0.33713
-0.210071
-0.075678
0.0510604
0.154826
0.223575
0.250195
0.241051
0.186116
0.084154
-0.0868845
-0.273579
-0.480143
-0.673882
-0.824619
-0.91491
-0.942896
-0.91939
-0.855453
-0.766912
-0.669429
-0.575029
-0.491891
-0.424973
-0.376162
-0.345125
-0.330775
-0.329024
-0.338842
-0.357635
-0.38242
-0.409224
-0.434011
-0.452654
-0.461234
-0.457275
-0.441621
-0.414009
-0.377305
-0.335289
-0.291706
-0.250292
-0.214425
-0.186563
-0.168243
-0.159444
-0.16248
-0.173426
-0.191401
-0.213393
-0.23604
-0.256213
-0.271844
-0.282279
-0.288082
-0.289988
-0.289174
-0.286847
-0.284118
-0.28192
-0.2809
-0.281234
-0.283233
-0.286746
-0.291328
-0.296335
-0.301039
-0.304785
-0.307158
-0.308052
-0.307683
-0.306244
-0.304042
-1.00657
-0.992107
-0.976888
-0.963062
-0.953206
-0.948035
-0.942641
-0.920693
-0.863839
-0.771112
-0.663172
-0.55702
-0.458251
-0.356443
-0.233922
-0.0910204
0.0521506
0.172485
0.256179
0.305644
0.295166
0.231234
0.111306
-0.0662333
-0.280169
-0.509863
-0.723701
-0.887496
-0.982689
-1.00938
-0.975861
-0.897008
-0.792228
-0.680348
-0.57457
-0.483591
-0.411796
-0.360535
-0.329001
-0.314996
-0.315923
-0.329049
-0.35157
-0.380736
-0.41175
-0.440679
-0.463159
-0.474468
-0.472014
-0.455952
-0.426399
-0.386454
-0.340321
-0.292378
-0.24678
-0.207246
-0.176654
-0.156787
-0.148499
-0.152125
-0.165856
-0.187509
-0.21307
-0.238873
-0.261195
-0.277686
-0.288093
-0.292921
-0.29347
-0.291218
-0.287524
-0.283616
-0.28057
-0.279137
-0.279236
-0.281402
-0.285405
-0.290701
-0.296519
-0.301968
-0.306221
-0.308792
-0.309731
-0.309059
-0.307228
-0.304711
-1.05769
-1.04606
-1.03258
-1.01796
-1.0026
-0.985113
-0.960161
-0.91748
-0.849491
-0.760559
-0.662174
-0.563818
-0.464632
-0.350357
-0.207473
-0.0409948
0.116122
0.2327
0.311378
0.362224
0.359066
0.288814
0.147711
-0.0592627
-0.311558
-0.578861
-0.822918
-1.00807
-1.10913
-1.12414
-1.06814
-0.961312
-0.829512
-0.693524
-0.568239
-0.463782
-0.383919
-0.329282
-0.298268
-0.286292
-0.292476
-0.31199
-0.341318
-0.379789
-0.418582
-0.45553
-0.484929
-0.50097
-0.498489
-0.48285
-0.449419
-0.403008
-0.349083
-0.292862
-0.239041
-0.192513
-0.157048
-0.135105
-0.126841
-0.133101
-0.151961
-0.181131
-0.213522
-0.245219
-0.271312
-0.289177
-0.298789
-0.30165
-0.299694
-0.294902
-0.288793
-0.282764
-0.278074
-0.275678
-0.275384
-0.277955
-0.28296
-0.289651
-0.297053
-0.303977
-0.309212
-0.311905
-0.312688
-0.311406
-0.308872
-0.305827
-1.13239
-1.12472
-1.11187
-1.09228
-1.06469
-1.02781
-0.979137
-0.915419
-0.834765
-0.738765
-0.632572
-0.520416
-0.401191
-0.272949
-0.135979
0.0041075
0.136099
0.261765
0.382373
0.444052
0.436608
0.348551
0.177273
-0.0642653
-0.352729
-0.659005
-0.938809
-1.14556
-1.24998
-1.25135
-1.17175
-1.03385
-0.870004
-0.706641
-0.557093
-0.435732
-0.34659
-0.289319
-0.261517
-0.252581
-0.264754
-0.29258
-0.331667
-0.378605
-0.42876
-0.476646
-0.515748
-0.539379
-0.54175
-0.521221
-0.480168
-0.424639
-0.36112
-0.294889
-0.230799
-0.174457
-0.131856
-0.10712
-0.0980029
-0.107875
-0.133734
-0.170582
-0.212578
-0.252551
-0.283932
-0.303588
-0.312343
-0.312887
-0.30808
-0.300495
-0.291455
-0.282739
-0.275765
-0.271306
-0.270793
-0.273659
-0.279715
-0.287985
-0.297349
-0.306217
-0.312879
-0.31629
-0.316279
-0.31412
-0.310802
-0.307292
-1.22493
-1.22403
-1.21396
-1.19087
-1.15233
-1.09701
-1.02395
-0.934871
-0.831702
-0.71509
-0.591392
-0.466512
-0.340124
-0.212179
-0.0835783
0.0450329
0.170653
0.283783
0.373232
0.426874
0.433672
0.361561
0.186421
-0.0758389
-0.383377
-0.716549
-1.02668
-1.25055
-1.36139
-1.35946
-1.25794
-1.09445
-0.903855
-0.716254
-0.550005
-0.414408
-0.315976
-0.253212
-0.220369
-0.219764
-0.23999
-0.276988
-0.325815
-0.381401
-0.441938
-0.499513
-0.54683
-0.576508
-0.581877
-0.554896
-0.505397
-0.441193
-0.369878
-0.295299
-0.223738
-0.161317
-0.112078
-0.0778222
-0.0679274
-0.0795976
-0.110867
-0.155173
-0.204926
-0.254
-0.292333
-0.314916
-0.323933
-0.323791
-0.317431
-0.308361
-0.297609
-0.286031
-0.276548
-0.270686
-0.268081
-0.270242
-0.276529
-0.285431
-0.296168
-0.306748
-0.314645
-0.318108
-0.318257
-0.315846
-0.312328
-1.32905
-1.34184
-1.34029
-1.31476
-1.26462
-1.19152
-1.09414
-0.975709
-0.841779
-0.697854
-0.551758
-0.409464
-0.272819
-0.142963
-0.0219999
0.0923912
0.201228
0.291966
0.356577
0.3865
0.367437
0.284285
0.122894
-0.111019
-0.395101
-0.713013
-1.02447
-1.25605
-1.37341
-1.36659
-1.25714
-1.08622
-0.88901
-0.696137
-0.530563
-0.396955
-0.3012
-0.241935
-0.214101
-0.214149
-0.2355
-0.273324
-0.323522
-0.382315
-0.447699
-0.509674
-0.559709
-0.590151
-0.592748
-0.561914
-0.509502
-0.444333
-0.373511
-0.295911
-0.218544
-0.150148
-0.0979967
-0.0658172
-0.0546207
-0.0644103
-0.0932899
-0.137692
-0.189502
-0.241317
-0.283655
-0.311592
-0.326202
-0.3306
-0.327432
-0.319944
-0.309596
-0.297812
-0.286344
-0.274934
-0.267741
-0.267054
-0.271663
-0.280138
-0.290579
-0.301854
-0.311904
-0.317706
-0.3179
-0.315983
-0.313323
-1.43923
-1.47027
-1.48862
-1.47432
-1.4182
-1.32532
-1.19833
-1.04438
-0.874227
-0.696964
-0.521337
-0.354994
-0.203101
-0.0674308
0.0527154
0.15802
0.24513
0.310483
0.352507
0.361009
0.323074
0.229794
0.0736817
-0.140218
-0.399376
-0.672607
-0.932186
-1.1337
-1.23831
-1.23777
-1.14569
-0.994649
-0.821039
-0.651805
-0.504582
-0.387976
-0.302496
-0.247331
-0.221591
-0.223204
-0.245016
-0.281094
-0.328574
-0.384695
-0.441836
-0.495163
-0.536341
-0.558475
-0.554322
-0.52379
-0.479021
-0.427181
-0.370092
-0.308946
-0.245409
-0.185648
-0.134043
-0.0923746
-0.0617927
-0.0510162
-0.0697749
-0.11395
-0.1653
-0.215138
-0.261446
-0.297146
-0.318812
-0.328849
-0.332136
-0.32972
-0.323607
-0.314257
-0.300552
-0.287268
-0.278454
-0.272359
-0.271505
-0.275718
-0.2824
-0.291306
-0.300195
-0.305904
-0.308375
-0.309673
-0.31148
-1.56241
-1.61766
-1.65544
-1.65725
-1.60522
-1.49688
-1.33654
-1.14017
-0.926642
-0.707168
-0.493914
-0.298522
-0.126775
0.019232
0.14137
0.241646
0.312858
0.359352
0.37859
0.361867
0.304747
0.201683
0.0446832
-0.158302
-0.390918
-0.622917
-0.827179
-0.991505
-1.08439
-1.08564
-1.01059
-0.888967
-0.744182
-0.600125
-0.47419
-0.374277
-0.302717
-0.259226
-0.2404
-0.240963
-0.257539
-0.287778
-0.327659
-0.375091
-0.421127
-0.461899
-0.492701
-0.513066
-0.513753
-0.49067
-0.461262
-0.424275
-0.377649
-0.322933
-0.264865
-0.208867
-0.156155
-0.115653
-0.090733
-0.073864
-0.0752732
-0.105195
-0.148921
-0.189214
-0.231982
-0.26885
-0.298696
-0.319621
-0.333462
-0.339896
-0.339526
-0.332147
-0.318945
-0.303916
-0.288085
-0.275454
-0.269992
-0.267906
-0.270079
-0.276467
-0.284378
-0.291743
-0.297729
-0.304977
-0.312594
-1.67274
-1.78241
-1.86785
-1.89308
-1.84077
-1.7108
-1.5114
-1.26689
-1.00203
-0.732471
-0.473622
-0.24081
-0.042452
0.118604
0.24352
0.331364
0.378901
0.412914
0.416223
0.372612
0.282072
0.161521
0.00689331
-0.180993
-0.390678
-0.595186
-0.765878
-0.900485
-0.989964
-0.982933
-0.90268
-0.800384
-0.679031
-0.556303
-0.449693
-0.365908
-0.306382
-0.270571
-0.255555
-0.257177
-0.271237
-0.293873
-0.324285
-0.360672
-0.400806
-0.435826
-0.460533
-0.476086
-0.477104
-0.4726
-0.458324
-0.434492
-0.397958
-0.345935
-0.291347
-0.240137
-0.186344
-0.138954
-0.103709
-0.0856761
-0.0850129
-0.102733
-0.138274
-0.173946
-0.215311
-0.260076
-0.292027
-0.313613
-0.329846
-0.339385
-0.344759
-0.342815
-0.331194
-0.313415
-0.295221
-0.280686
-0.270614
-0.263092
-0.261672
-0.265506
-0.272756
-0.280716
-0.289241
-0.299051
-0.310379
-1.69462
-1.8485
-2.01566
-2.10838
-2.0876
-1.95441
-1.72825
-1.43772
-1.11543
-0.789091
-0.479202
-0.204517
0.0239725
0.204403
0.33987
0.436368
0.493951
0.499681
0.469998
0.402384
0.290151
0.136904
-0.0431776
-0.237201
-0.43659
-0.617798
-0.764747
-0.877164
-0.949491
-0.943325
-0.867736
-0.769788
-0.657516
-0.544765
-0.445995
-0.368713
-0.314344
-0.281601
-0.267309
-0.266867
-0.275667
-0.291356
-0.316716
-0.350244
-0.386283
-0.41807
-0.442678
-0.462917
-0.480222
-0.493865
-0.495656
-0.4715
-0.434175
-0.389942
-0.336021
-0.278745
-0.222093
-0.171804
-0.132418
-0.106931
-0.0976892
-0.108836
-0.136613
-0.17224
-0.211911
-0.254769
-0.286792
-0.318017
-0.341941
-0.35024
-0.350479
-0.345383
-0.330597
-0.312149
-0.293841
-0.276184
-0.262519
-0.255035
-0.25095
-0.252492
-0.259612
-0.270266
-0.283138
-0.298293
-0.315109
)
;

boundaryField
{
    inlet
    {
        type            zeroGradient;
    }
    outlet
    {
        type            fixedValue;
        value           nonuniform List<scalar> 0();
    }
    topWall
    {
        type            zeroGradient;
    }
    lowerWall
    {
        type            zeroGradient;
    }
    leadingEdge
    {
        type            zeroGradient;
    }
    trailingEdge
    {
        type            zeroGradient;
    }
    upperSurface
    {
        type            zeroGradient;
    }
    lowerSurface
    {
        type            zeroGradient;
    }
    frontAndBack
    {
        type            empty;
    }
    procBoundary1to0
    {
        type            processor;
        value           nonuniform List<scalar> 
11
(
-0.876119
-0.876713
-0.877476
-0.877345
-0.876011
-0.874311
-0.871764
-0.871764
-0.883009
-0.882186
-0.87869
)
;
    }
    procBoundary1to2
    {
        type            processor;
        value           nonuniform List<scalar> 
16
(
-0.341879
-0.353299
-0.362836
-0.367161
-0.363335
-0.301315
-0.301824
-0.302734
-0.304144
-0.309058
-0.309058
-0.311107
-0.313606
-0.317795
-0.321967
-0.331602
)
;
    }
    procBoundary1to5
    {
        type            processor;
        value           nonuniform List<scalar> 
86
(
-1.17284
-1.17999
-1.19387
-1.21387
-1.23993
-1.27439
-1.32759
-1.41471
-1.55882
-1.73093
-1.90026
-2.00646
-2.00417
-1.89713
-1.7031
-1.45943
-1.20233
-0.958784
-0.747579
-0.577178
-0.459635
-0.397333
-0.393574
-0.450025
-0.533477
-0.640722
-0.769435
-0.878021
-0.940076
-0.955128
-0.923889
-0.854727
-0.761515
-0.658634
-0.559232
-0.468842
-0.394518
-0.346089
-0.316095
-0.307483
-0.318567
-0.35125
-0.408849
-0.481988
-0.566153
-0.657197
-0.74266
-0.809826
-0.848285
-0.854551
-0.828271
-0.774802
-0.703154
-0.622577
-0.542322
-0.466913
-0.400118
-0.351205
-0.315949
-0.294833
-0.288808
-0.295951
-0.315921
-0.34781
-0.388503
-0.433187
-0.475971
-0.510343
-0.531683
-0.537727
-0.526907
-0.50123
-0.46489
-0.422528
-0.377513
-0.33506
-0.299994
-0.276987
-0.261682
-0.255407
-0.257812
-0.266625
-0.281357
-0.301559
-0.301559
-0.30349
)
;
    }
    procBoundary1to6
    {
        type            processor;
        value           uniform -0.349534;
    }
}


// ************************************************************************* //
