/*--------------------------------*- C++ -*----------------------------------*\
| =========                 |                                                 |
| \\      /  F ield         | OpenFOAM: The Open Source CFD Toolbox           |
|  \\    /   O peration     | Version:  2206                                  |
|   \\  /    A nd           | Website:  www.openfoam.com                      |
|    \\/     M anipulation  |                                                 |
\*---------------------------------------------------------------------------*/
FoamFile
{
    version     2.0;
    format      ascii;
    arch        "LSB;label=32;scalar=64";
    class       volVectorField;
    location    "19.1001";
    object      U_0;
}
// * * * * * * * * * * * * * * * * * * * * * * * * * * * * * * * * * * * * * //

dimensions      [0 1 -1 0 0 0 0];

internalField   nonuniform List<vector> 
3062
(
(1.68403 0.250446 0)
(1.67291 0.193307 0)
(1.6655 0.130637 0)
(1.66189 0.0644702 0)
(1.66189 -0.00268284 0)
(1.66517 -0.068477 0)
(1.67131 -0.131263 0)
(1.67979 -0.18958 0)
(1.69005 -0.242225 0)
(1.70152 -0.288333 0)
(1.71369 -0.327381 0)
(1.72602 -0.359061 0)
(1.73805 -0.383414 0)
(1.74934 -0.400772 0)
(1.75959 -0.411591 0)
(1.76946 -0.415895 0)
(1.77923 -0.412334 0)
(1.78864 -0.399914 0)
(1.7978 -0.378659 0)
(1.80687 -0.348716 0)
(1.816 -0.31025 0)
(1.82531 -0.263635 0)
(1.83479 -0.209556 0)
(1.84437 -0.149081 0)
(1.85389 -0.0837688 0)
(1.86301 -0.0158852 0)
(1.87118 0.0515402 0)
(1.87798 0.11627 0)
(1.88303 0.176458 0)
(1.88602 0.23059 0)
(1.8867 0.277559 0)
(1.8849 0.316713 0)
(1.88059 0.347819 0)
(1.87389 0.370987 0)
(1.86489 0.386558 0)
(1.85311 0.39483 0)
(1.83879 0.39589 0)
(1.8224 0.390689 0)
(1.80448 0.380012 0)
(1.78579 0.364322 0)
(1.76706 0.343911 0)
(1.74892 0.318914 0)
(1.73189 0.289369 0)
(1.71641 0.255339 0)
(1.70282 0.217005 0)
(1.69144 0.174726 0)
(1.68253 0.129079 0)
(1.67627 0.0809096 0)
(1.67278 0.0313748 0)
(1.67203 -0.0179915 0)
(1.67389 -0.0659535 0)
(1.67811 -0.111371 0)
(1.68441 -0.153184 0)
(1.69243 -0.190495 0)
(1.70175 -0.222593 0)
(1.71196 -0.249023 0)
(1.72264 -0.26961 0)
(1.73344 -0.284387 0)
(1.74415 -0.293457 0)
(1.75517 -0.296524 0)
(1.76633 -0.292736 0)
(1.77742 -0.281859 0)
(1.78832 -0.264072 0)
(1.79887 -0.239728 0)
(1.80903 -0.209267 0)
(1.8188 -0.173228 0)
(1.82811 -0.132274 0)
(1.8369 -0.0872596 0)
(1.84502 -0.0393351 0)
(1.85217 0.00982365 0)
(1.85796 0.0581864 0)
(1.86215 0.104353 0)
(1.86454 0.147051 0)
(1.86495 0.185221 0)
(1.86328 0.218073 0)
(1.85951 0.245119 0)
(1.85371 0.266149 0)
(1.84606 0.281163 0)
(1.83639 0.290243 0)
(1.82453 0.293268 0)
(1.81101 0.290586 0)
(1.79612 0.282898 0)
(1.78045 0.270722 0)
(1.76461 0.254522 0)
(1.74917 0.23467 0)
(1.7346 0.211431 0)
(1.72129 0.185002 0)
(1.70959 0.155589 0)
(1.69974 0.123458 0)
(1.69195 0.0889913 0)
(1.6864 0.0527379 0)
(1.68317 0.015496 0)
(1.68227 -0.0216481 0)
(1.68359 -0.0577967 0)
(1.68696 -0.0920986 0)
(1.69214 -0.123757 0)
(1.69885 -0.15208 0)
(1.70675 -0.176518 0)
(1.71553 -0.196701 0)
(1.72485 -0.212447 0)
(1.73441 -0.223726 0)
(1.74413 -0.230527 0)
(1.75423 -0.232518 0)
(1.76447 -0.229189 0)
(1.77469 -0.220482 0)
(1.78474 -0.206531 0)
(1.79444 -0.187629 0)
(1.80371 -0.164172 0)
(1.81247 -0.13664 0)
(1.82067 -0.1056 0)
(1.82822 -0.071749 0)
(1.835 -0.0360041 0)
(1.84077 0.000300695 0)
(1.84527 0.0358552 0)
(1.84835 0.0696924 0)
(1.84988 0.10094 0)
(1.84976 0.128874 0)
(1.84797 0.152954 0)
(1.84452 0.172844 0)
(1.83951 0.188382 0)
(1.83309 0.199549 0)
(1.82515 0.206362 0)
(1.81565 0.208691 0)
(1.69947 0.262029 0)
(1.69098 0.201451 0)
(1.68585 0.135211 0)
(1.6841 0.0655149 0)
(1.68554 -0.00486208 0)
(1.68979 -0.0735178 0)
(1.69638 -0.13866 0)
(1.70474 -0.198774 0)
(1.71431 -0.252665 0)
(1.72454 -0.299486 0)
(1.73494 -0.338754 0)
(1.74504 -0.370139 0)
(1.7545 -0.393786 0)
(1.76297 -0.410164 0)
(1.76991 -0.420007 0)
(1.7758 -0.423815 0)
(1.78138 -0.419825 0)
(1.78633 -0.406943 0)
(1.79079 -0.385452 0)
(1.79512 -0.35551 0)
(1.79968 -0.317249 0)
(1.80467 -0.270949 0)
(1.81019 -0.217197 0)
(1.81625 -0.156981 0)
(1.82281 -0.0917604 0)
(1.82963 -0.0235857 0)
(1.83629 0.0446202 0)
(1.84234 0.110492 0)
(1.84743 0.172192 0)
(1.85119 0.228163 0)
(1.85331 0.277217 0)
(1.85353 0.318591 0)
(1.85171 0.351949 0)
(1.84784 0.377333 0)
(1.84207 0.395062 0)
(1.83435 0.405627 0)
(1.82413 0.409134 0)
(1.81198 0.405745 0)
(1.79813 0.396287 0)
(1.78328 0.381134 0)
(1.76817 0.360605 0)
(1.75339 0.334931 0)
(1.73942 0.304237 0)
(1.72667 0.268657 0)
(1.71552 0.228431 0)
(1.70627 0.183974 0)
(1.69916 0.135926 0)
(1.69439 0.085209 0)
(1.69202 0.0330791 0)
(1.69203 -0.0187836 0)
(1.69424 -0.0690589 0)
(1.69842 -0.11652 0)
(1.70427 -0.160052 0)
(1.71147 -0.198715 0)
(1.71962 -0.231743 0)
(1.72832 -0.25868 0)
(1.73718 -0.2794 0)
(1.74583 -0.294052 0)
(1.75394 -0.302957 0)
(1.76204 -0.306091 0)
(1.77019 -0.302379 0)
(1.77807 -0.291285 0)
(1.78559 -0.273141 0)
(1.79272 -0.248432 0)
(1.79953 -0.217627 0)
(1.80611 -0.181255 0)
(1.81248 -0.139948 0)
(1.81864 -0.0945035 0)
(1.82453 -0.0459857 0)
(1.82995 0.00406099 0)
(1.83459 0.0536103 0)
(1.83821 0.101181 0)
(1.8406 0.145483 0)
(1.84157 0.185416 0)
(1.84097 0.220119 0)
(1.83873 0.249013 0)
(1.83485 0.271815 0)
(1.82946 0.288507 0)
(1.82268 0.299275 0)
(1.81409 0.304205 0)
(1.80385 0.303105 0)
(1.79224 0.29652 0)
(1.77968 0.284909 0)
(1.7668 0.268718 0)
(1.75411 0.248375 0)
(1.74207 0.22421 0)
(1.73104 0.196494 0)
(1.72135 0.165494 0)
(1.71325 0.131535 0)
(1.70696 0.095052 0)
(1.70262 0.0566539 0)
(1.70034 0.0172109 0)
(1.70009 -0.0220772 0)
(1.70177 -0.0602258 0)
(1.70518 -0.0963205 0)
(1.71012 -0.129513 0)
(1.71629 -0.159071 0)
(1.72339 -0.18441 0)
(1.73109 -0.205154 0)
(1.73905 -0.221169 0)
(1.74698 -0.232526 0)
(1.75473 -0.23939 0)
(1.76266 -0.241568 0)
(1.77063 -0.238313 0)
(1.77844 -0.229448 0)
(1.786 -0.215188 0)
(1.79318 -0.195893 0)
(1.79995 -0.171995 0)
(1.80632 -0.143984 0)
(1.81228 -0.112428 0)
(1.81783 -0.0780006 0)
(1.82291 -0.0415543 0)
(1.82735 -0.00428833 0)
(1.83096 0.0323806 0)
(1.83359 0.0674761 0)
(1.83511 0.100102 0)
(1.83542 0.129494 0)
(1.83443 0.155057 0)
(1.83215 0.176389 0)
(1.82861 0.19328 0)
(1.82395 0.205701 0)
(1.81826 0.213756 0)
(1.81126 0.21745 0)
(1.71786 0.270619 0)
(1.71235 0.206977 0)
(1.70978 0.137588 0)
(1.71012 0.0648125 0)
(1.71312 -0.0083145 0)
(1.71837 -0.079275 0)
(1.72536 -0.146183 0)
(1.73352 -0.20748 0)
(1.74225 -0.262002 0)
(1.75099 -0.30894 0)
(1.75923 -0.347824 0)
(1.76665 -0.378551 0)
(1.77307 -0.401205 0)
(1.77829 -0.416139 0)
(1.782 -0.424266 0)
(1.78439 -0.426677 0)
(1.78579 -0.423246 0)
(1.78593 -0.409232 0)
(1.78554 -0.387419 0)
(1.78517 -0.357634 0)
(1.78517 -0.319794 0)
(1.78585 -0.27411 0)
(1.78742 -0.221087 0)
(1.78997 -0.161626 0)
(1.79353 -0.0970676 0)
(1.79798 -0.029302 0)
(1.80298 0.0389219 0)
(1.80812 0.105186 0)
(1.81304 0.16765 0)
(1.81735 0.224749 0)
(1.82067 0.275256 0)
(1.82268 0.318322 0)
(1.82316 0.353498 0)
(1.82196 0.380714 0)
(1.81914 0.40021 0)
(1.81492 0.412462 0)
(1.80896 0.418112 0)
(1.80099 0.416798 0)
(1.79135 0.40878 0)
(1.78047 0.39429 0)
(1.76916 0.37379 0)
(1.75796 0.347659 0)
(1.74728 0.316083 0)
(1.73755 0.279243 0)
(1.72912 0.237427 0)
(1.72228 0.191105 0)
(1.71726 0.140992 0)
(1.7142 0.0880871 0)
(1.71316 0.0337537 0)
(1.71405 -0.0201772 0)
(1.71666 -0.0723251 0)
(1.72077 -0.121391 0)
(1.72607 -0.166226 0)
(1.73226 -0.205851 0)
(1.73902 -0.239455 0)
(1.74601 -0.266588 0)
(1.7529 -0.287146 0)
(1.75934 -0.301359 0)
(1.76487 -0.309751 0)
(1.76987 -0.312763 0)
(1.77485 -0.308839 0)
(1.77939 -0.297305 0)
(1.78334 -0.278731 0)
(1.78687 -0.253685 0)
(1.79021 -0.22266 0)
(1.79351 -0.186162 0)
(1.79687 -0.144778 0)
(1.80034 -0.099261 0)
(1.80393 -0.0506052 0)
(1.80754 -0.000206841 0)
(1.81092 0.0499622 0)
(1.81386 0.098364 0)
(1.81614 0.14371 0)
(1.81754 0.184863 0)
(1.8179 0.220912 0)
(1.81707 0.251224 0)
(1.81498 0.275458 0)
(1.81167 0.293505 0)
(1.80737 0.305524 0)
(1.80203 0.311915 0)
(1.79507 0.312486 0)
(1.78684 0.307151 0)
(1.77752 0.29619 0)
(1.76775 0.280094 0)
(1.75803 0.259402 0)
(1.74874 0.234507 0)
(1.74023 0.205732 0)
(1.73281 0.173393 0)
(1.72671 0.137867 0)
(1.72215 0.0996408 0)
(1.71925 0.0593838 0)
(1.71809 0.0180472 0)
(1.71862 -0.0230572 0)
(1.7207 -0.0628756 0)
(1.72417 -0.100439 0)
(1.7288 -0.134857 0)
(1.73434 -0.165356 0)
(1.7405 -0.191316 0)
(1.74699 -0.21235 0)
(1.75349 -0.228356 0)
(1.75971 -0.239501 0)
(1.76539 -0.246135 0)
(1.77103 -0.248305 0)
(1.77665 -0.245042 0)
(1.78197 -0.235919 0)
(1.78688 -0.221273 0)
(1.79136 -0.201579 0)
(1.7955 -0.17731 0)
(1.79937 -0.148967 0)
(1.80303 -0.117101 0)
(1.80651 -0.0823528 0)
(1.80981 -0.0455237 0)
(1.81285 -0.0077237 0)
(1.81548 0.0296369 0)
(1.81756 0.0655527 0)
(1.81897 0.0991227 0)
(1.81959 0.129556 0)
(1.81933 0.156217 0)
(1.81812 0.178652 0)
(1.81596 0.196611 0)
(1.81292 0.210023 0)
(1.80919 0.218983 0)
(1.80472 0.223724 0)
(1.73963 0.275867 0)
(1.7374 0.209598 0)
(1.73762 0.137526 0)
(1.74021 0.062215 0)
(1.74485 -0.0130722 0)
(1.75106 -0.0857229 0)
(1.75836 -0.153786 0)
(1.76618 -0.215669 0)
(1.77393 -0.27015 0)
(1.78104 -0.316501 0)
(1.78706 -0.354437 0)
(1.79167 -0.384066 0)
(1.79473 -0.405498 0)
(1.79636 -0.41921 0)
(1.79681 -0.426089 0)
(1.7955 -0.427339 0)
(1.79201 -0.421621 0)
(1.78714 -0.406767 0)
(1.78193 -0.384646 0)
(1.7769 -0.355105 0)
(1.77246 -0.317935 0)
(1.76896 -0.273183 0)
(1.76668 -0.221274 0)
(1.76579 -0.163023 0)
(1.7664 -0.0996725 0)
(1.76847 -0.0329984 0)
(1.77176 0.0345655 0)
(1.7759 0.100477 0)
(1.78051 0.16299 0)
(1.78521 0.220544 0)
(1.78957 0.271881 0)
(1.7932 0.316093 0)
(1.7958 0.352638 0)
(1.79716 0.381337 0)
(1.79721 0.402308 0)
(1.79618 0.415963 0)
(1.79412 0.422793 0)
(1.7904 0.423428 0)
(1.78485 0.416842 0)
(1.77782 0.403236 0)
(1.77036 0.383089 0)
(1.76288 0.356806 0)
(1.7557 0.324642 0)
(1.74922 0.28683 0)
(1.74376 0.243722 0)
(1.73957 0.195868 0)
(1.73684 0.144049 0)
(1.73569 0.0893507 0)
(1.73612 0.0332672 0)
(1.73799 -0.0222433 0)
(1.74106 -0.0757494 0)
(1.74507 -0.125912 0)
(1.74974 -0.171534 0)
(1.75474 -0.211658 0)
(1.75984 -0.245485 0)
(1.76479 -0.272537 0)
(1.7694 -0.292677 0)
(1.77341 -0.306118 0)
(1.77649 -0.313422 0)
(1.77865 -0.315467 0)
(1.78035 -0.312196 0)
(1.78111 -0.299639 0)
(1.78126 -0.280535 0)
(1.78112 -0.255292 0)
(1.78096 -0.224268 0)
(1.78099 -0.187906 0)
(1.78135 -0.146754 0)
(1.78215 -0.10152 0)
(1.78344 -0.0531414 0)
(1.78519 -0.00289506 0)
(1.78725 0.0473341 0)
(1.78942 0.0959962 0)
(1.79149 0.141818 0)
(1.79324 0.183664 0)
(1.79444 0.220598 0)
(1.79493 0.251914 0)
(1.79458 0.277159 0)
(1.79338 0.296185 0)
(1.79144 0.309095 0)
(1.78896 0.316259 0)
(1.78553 0.318241 0)
(1.78058 0.314115 0)
(1.77435 0.303932 0)
(1.7677 0.28817 0)
(1.76108 0.267378 0)
(1.75472 0.242008 0)
(1.74892 0.212433 0)
(1.74398 0.179023 0)
(1.7401 0.142208 0)
(1.73747 0.102536 0)
(1.7362 0.0607402 0)
(1.73631 0.0178668 0)
(1.73771 -0.0246677 0)
(1.74025 -0.0657625 0)
(1.74375 -0.1044 0)
(1.74798 -0.139671 0)
(1.75273 -0.170775 0)
(1.75777 -0.197065 0)
(1.76286 -0.21814 0)
(1.76779 -0.233907 0)
(1.77228 -0.244614 0)
(1.77594 -0.250786 0)
(1.77912 -0.252794 0)
(1.78229 -0.249258 0)
(1.78501 -0.239635 0)
(1.78713 -0.224551 0)
(1.78883 -0.204519 0)
(1.79027 -0.180007 0)
(1.7916 -0.15151 0)
(1.79291 -0.119558 0)
(1.7943 -0.0847614 0)
(1.79579 -0.0478777 0)
(1.79739 -0.00993727 0)
(1.79898 0.0276942 0)
(1.80046 0.0639989 0)
(1.80169 0.0980816 0)
(1.80256 0.129145 0)
(1.80294 0.156533 0)
(1.80274 0.179745 0)
(1.80192 0.198457 0)
(1.8005 0.212529 0)
(1.79859 0.222058 0)
(1.79642 0.227337 0)
(1.81695 -0.418164 0)
(1.81305 -0.423702 0)
(1.80703 -0.422516 0)
(1.79882 -0.414415 0)
(1.78927 -0.399311 0)
(1.77953 -0.377238 0)
(1.77009 -0.348138 0)
(1.76139 -0.311836 0)
(1.75391 -0.268316 0)
(1.74796 -0.21789 0)
(1.74379 -0.161285 0)
(1.74157 -0.0996555 0)
(1.74132 -0.0346353 0)
(1.74288 0.0315741 0)
(1.74594 0.0964885 0)
(1.75012 0.158379 0)
(1.755 0.215728 0)
(1.76017 0.267291 0)
(1.76521 0.312111 0)
(1.76976 0.349546 0)
(1.77358 0.379269 0)
(1.77651 0.401269 0)
(1.77855 0.415844 0)
(1.77975 0.423603 0)
(1.77992 0.425627 0)
(1.77835 0.421898 0)
(1.77547 0.408662 0)
(1.772 0.388675 0)
(1.76832 0.362315 0)
(1.76482 0.329738 0)
(1.76179 0.291195 0)
(1.7595 0.247096 0)
(1.75815 0.198052 0)
(1.75788 0.144918 0)
(1.75877 0.0888515 0)
(1.76076 0.0315017 0)
(1.76365 -0.0250723 0)
(1.76719 -0.0793781 0)
(1.7711 -0.130059 0)
(1.77507 -0.175863 0)
(1.77882 -0.215957 0)
(1.78209 -0.249514 0)
(1.78473 -0.276149 0)
(1.78665 -0.295761 0)
(1.78783 -0.308525 0)
(1.78838 -0.314979 0)
(1.78795 -0.316372 0)
(1.78593 -0.311693 0)
(1.78272 -0.298338 0)
(1.77909 -0.278765 0)
(1.77535 -0.253384 0)
(1.77174 -0.222515 0)
(1.76854 -0.186528 0)
(1.76596 -0.145908 0)
(1.76414 -0.101311 0)
(1.7632 -0.0536082 0)
(1.76313 -0.0039847 0)
(1.76386 0.0457802 0)
(1.76522 0.0941612 0)
(1.767 0.139922 0)
(1.76899 0.181937 0)
(1.77095 0.219239 0)
(1.77269 0.251082 0)
(1.77406 0.277023 0)
(1.77495 0.296703 0)
(1.77538 0.310157 0)
(1.77544 0.317819 0)
(1.77497 0.320459 0)
(1.77323 0.318746 0)
(1.77028 0.309006 0)
(1.76692 0.29332 0)
(1.76348 0.272403 0)
(1.76015 0.246669 0)
(1.7572 0.216482 0)
(1.75489 0.182232 0)
(1.75339 0.144394 0)
(1.75284 0.103574 0)
(1.75332 0.060578 0)
(1.7548 0.0165587 0)
(1.75715 -0.0269756 0)
(1.76019 -0.0688907 0)
(1.7637 -0.108156 0)
(1.76746 -0.14383 0)
(1.77128 -0.175132 0)
(1.77498 -0.201436 0)
(1.77842 -0.222344 0)
(1.78149 -0.237712 0)
(1.78405 -0.247698 0)
(1.78586 -0.252873 0)
(1.78696 -0.254227 0)
(1.78755 -0.251236 0)
(1.78738 -0.240745 0)
(1.78661 -0.225075 0)
(1.78543 -0.204705 0)
(1.78412 -0.180059 0)
(1.78287 -0.151585 0)
(1.78184 -0.119775 0)
(1.78114 -0.0852075 0)
(1.78086 -0.0485951 0)
(1.78104 -0.010894 0)
(1.7816 0.0265921 0)
(1.78246 0.0628593 0)
(1.7835 0.0970344 0)
(1.78458 0.128322 0)
(1.78557 0.156042 0)
(1.78637 0.179666 0)
(1.78689 0.198849 0)
(1.78711 0.21341 0)
(1.78703 0.223276 0)
(1.78681 0.228747 0)
(0.0842946 -0.000387263 0)
(0.0859626 0.000137594 0)
(0.0866253 0.000518134 0)
(0.0866056 0.0007089 0)
(0.0862186 0.000738731 0)
(0.0858125 0.000606377 0)
(0.085711 0.00030978 0)
(0.0861312 -7.16604e-05 0)
(0.0872303 -0.000447569 0)
(0.089069 -0.000794012 0)
(0.0915753 -0.00108395 0)
(0.0946144 -0.00130184 0)
(0.0980242 -0.00144102 0)
(0.10159 -0.00147961 0)
(0.105083 -0.00139033 0)
(0.108238 -0.00115932 0)
(0.110807 -0.000849795 0)
(0.112631 -0.00049625 0)
(0.113602 -0.000110687 0)
(0.113722 0.000312779 0)
(0.11302 0.000697993 0)
(0.111575 0.000998079 0)
(0.109526 0.00119842 0)
(0.107063 0.00129765 0)
(0.104387 0.00130669 0)
(0.101697 0.00123251 0)
(0.0991763 0.00108295 0)
(0.0969834 0.000874012 0)
(0.0952313 0.000627835 0)
(0.0939839 0.000374966 0)
(0.0932484 0.00013248 0)
(0.092982 -8.4003e-05 0)
(0.093112 -0.000252905 0)
(0.0935427 -0.000364491 0)
(0.0941586 -0.000422655 0)
(0.0948394 -0.000425642 0)
(0.0954575 -0.000374937 0)
(0.0959006 -0.000289302 0)
(0.0960966 -0.000177018 0)
(0.0960087 -4.19612e-05 0)
(0.0956227 7.7351e-05 0)
(0.0949541 0.000174952 0)
(0.0940591 0.000242299 0)
(0.0930116 0.000273798 0)
(0.091894 0.000268373 0)
(0.0907892 0.000225681 0)
(0.08978 0.000149878 0)
(0.0889343 4.86748e-05 0)
(0.0883037 -6.44365e-05 0)
(0.0879078 -0.000178409 0)
(0.0877429 -0.000278581 0)
(0.0877916 -0.000357125 0)
(0.0880226 -0.000414299 0)
(0.088391 -0.000448299 0)
(0.0888491 -0.000453813 0)
(0.0893446 -0.000436609 0)
(0.0898255 -0.000394907 0)
(0.0902352 -0.000331034 0)
(0.090517 -0.000247755 0)
(0.0906346 -0.000143952 0)
(0.0905647 -3.46728e-05 0)
(0.0902938 6.36875e-05 0)
(0.0898267 0.000151597 0)
(0.0891883 0.00022517 0)
(0.0884136 0.000279898 0)
(0.087545 0.000313405 0)
(0.0866297 0.000324492 0)
(0.0857168 0.000313541 0)
(0.0848534 0.00028236 0)
(0.0840816 0.000234368 0)
(0.0834355 0.000174012 0)
(0.0829384 0.000106133 0)
(0.0826032 3.5717e-05 0)
(0.0824297 -3.26603e-05 0)
(0.0824009 -9.6362e-05 0)
(0.0824951 -0.000143932 0)
(0.0826879 -0.000175892 0)
(0.0829464 -0.000193207 0)
(0.0832381 -0.000197157 0)
(0.0835352 -0.000189855 0)
(0.0838149 -0.000174243 0)
(0.0840633 -0.000154132 0)
(0.0842759 -0.000133256 0)
(0.084456 -0.000114393 0)
(0.084614 -0.000101216 0)
(0.0847665 -9.7742e-05 0)
(0.0849347 -0.000106579 0)
(0.0851423 -0.000128772 0)
(0.0854145 -0.000162877 0)
(0.0857736 -0.000205174 0)
(0.0862338 -0.000251609 0)
(0.0868016 -0.000298497 0)
(0.0874746 -0.000342245 0)
(0.0882431 -0.000378808 0)
(0.0890884 -0.000405558 0)
(0.0899893 -0.000421441 0)
(0.0909222 -0.000427375 0)
(0.0918655 -0.000423193 0)
(0.0927994 -0.000410064 0)
(0.0937051 -0.000388848 0)
(0.0945652 -0.000359601 0)
(0.0953631 -0.000323116 0)
(0.0960834 -0.000280178 0)
(0.0967145 -0.000232581 0)
(0.0972497 -0.000183397 0)
(0.0976899 -0.000135904 0)
(0.0980417 -9.26956e-05 0)
(0.0983167 -5.5511e-05 0)
(0.0985288 -2.49457e-05 0)
(0.0986932 -1.3421e-06 0)
(0.0988253 1.49861e-05 0)
(0.0989398 2.45331e-05 0)
(0.0990489 2.86157e-05 0)
(0.0991622 2.90414e-05 0)
(0.0992853 2.79067e-05 0)
(0.0994196 2.71078e-05 0)
(0.0995633 2.74002e-05 0)
(0.0997132 2.92389e-05 0)
(0.0998655 3.29111e-05 0)
(0.100016 3.82352e-05 0)
(0.100161 4.45971e-05 0)
(0.100298 5.10622e-05 0)
(0.100428 5.63829e-05 0)
(0.323812 -0.00393561 0)
(0.327322 -0.00230176 0)
(0.329726 -0.00107823 0)
(0.331321 -0.000300664 0)
(0.332508 2.21447e-05 0)
(0.333629 -0.000137738 0)
(0.334983 -0.000779406 0)
(0.336885 -0.00173533 0)
(0.339442 -0.00277294 0)
(0.342627 -0.00373734 0)
(0.34635 -0.00453747 0)
(0.350473 -0.00511582 0)
(0.354832 -0.00541854 0)
(0.359245 -0.00538015 0)
(0.363425 -0.00496862 0)
(0.367093 -0.00422045 0)
(0.370023 -0.00321915 0)
(0.372069 -0.00205976 0)
(0.373174 -0.00078909 0)
(0.373277 0.000555217 0)
(0.372369 0.00177451 0)
(0.370617 0.00275734 0)
(0.368225 0.00347102 0)
(0.365411 0.00390054 0)
(0.362394 0.00404359 0)
(0.359394 0.00391034 0)
(0.356593 0.00352767 0)
(0.35413 0.00294778 0)
(0.352112 0.0022459 0)
(0.350584 0.00149818 0)
(0.349541 0.000776254 0)
(0.34894 0.00014111 0)
(0.348699 -0.000366487 0)
(0.348702 -0.000711486 0)
(0.348829 -0.000875441 0)
(0.348947 -0.0008658 0)
(0.348924 -0.00067169 0)
(0.348639 -0.000336302 0)
(0.348033 9.10106e-05 0)
(0.347065 0.000557558 0)
(0.345737 0.0010154 0)
(0.344098 0.00140525 0)
(0.342217 0.00169573 0)
(0.340182 0.0018688 0)
(0.338083 0.00192036 0)
(0.336012 0.00185168 0)
(0.334054 0.00166972 0)
(0.33228 0.00139694 0)
(0.330739 0.00107183 0)
(0.329446 0.000732789 0)
(0.328394 0.000412014 0)
(0.327552 0.000132307 0)
(0.326891 -9.68035e-05 0)
(0.326373 -0.000270856 0)
(0.325941 -0.000387701 0)
(0.325544 -0.000436687 0)
(0.325136 -0.000418108 0)
(0.324659 -0.000312582 0)
(0.324064 -0.000117383 0)
(0.323307 0.000141766 0)
(0.322356 0.000431858 0)
(0.321218 0.000714941 0)
(0.319913 0.000969983 0)
(0.318469 0.00118393 0)
(0.316922 0.00134218 0)
(0.315319 0.00143489 0)
(0.31371 0.00145716 0)
(0.312143 0.00140823 0)
(0.310667 0.00129324 0)
(0.30932 0.00112294 0)
(0.308137 0.000911097 0)
(0.307138 0.000673955 0)
(0.306333 0.000431196 0)
(0.305717 0.000200006 0)
(0.305282 -8.61484e-06 0)
(0.305006 -0.00018266 0)
(0.304853 -0.000308074 0)
(0.304782 -0.000382575 0)
(0.304762 -0.00041181 0)
(0.304763 -0.000405054 0)
(0.304762 -0.000367986 0)
(0.304746 -0.000318521 0)
(0.30471 -0.000269471 0)
(0.304655 -0.000234398 0)
(0.304592 -0.000223331 0)
(0.304535 -0.000244573 0)
(0.304508 -0.000301873 0)
(0.304538 -0.000395602 0)
(0.304654 -0.000523058 0)
(0.304879 -0.000675449 0)
(0.305227 -0.000841935 0)
(0.305702 -0.00100756 0)
(0.306301 -0.00116194 0)
(0.307013 -0.00129404 0)
(0.307814 -0.00139545 0)
(0.308681 -0.00146136 0)
(0.309589 -0.00149167 0)
(0.310516 -0.00148904 0)
(0.311441 -0.00145775 0)
(0.312347 -0.00139935 0)
(0.313218 -0.00131342 0)
(0.314038 -0.0012037 0)
(0.314789 -0.00107485 0)
(0.315461 -0.000932762 0)
(0.316047 -0.000787618 0)
(0.316549 -0.000649991 0)
(0.316976 -0.000527792 0)
(0.317341 -0.000426575 0)
(0.317661 -0.000348292 0)
(0.317951 -0.000294287 0)
(0.318228 -0.000263341 0)
(0.318507 -0.000252127 0)
(0.318803 -0.000256877 0)
(0.319125 -0.00027329 0)
(0.31948 -0.000295096 0)
(0.319868 -0.000316546 0)
(0.320285 -0.00033395 0)
(0.320727 -0.000345774 0)
(0.32119 -0.000351411 0)
(0.321669 -0.000350978 0)
(0.322157 -0.000345808 0)
(0.322654 -0.000338919 0)
(0.323157 -0.000334379 0)
(0.653433 -0.00833577 0)
(0.657274 -0.00512644 0)
(0.660053 -0.00276314 0)
(0.66202 -0.00135933 0)
(0.663471 -0.000846011 0)
(0.664669 -0.00116612 0)
(0.665755 -0.00231382 0)
(0.667002 -0.00404925 0)
(0.668568 -0.00597597 0)
(0.67051 -0.00774047 0)
(0.672853 -0.00910537 0)
(0.675571 -0.0099763 0)
(0.678549 -0.0104689 0)
(0.681633 -0.0104378 0)
(0.684645 -0.00970727 0)
(0.68731 -0.00812649 0)
(0.689375 -0.00612782 0)
(0.690743 -0.00393111 0)
(0.691282 -0.00150434 0)
(0.690866 0.000998423 0)
(0.689462 0.00326625 0)
(0.687173 0.00510398 0)
(0.684174 0.00640977 0)
(0.680662 0.00715311 0)
(0.676833 0.00735432 0)
(0.672892 0.00706114 0)
(0.669055 0.00635188 0)
(0.665501 0.00533423 0)
(0.662375 0.00413446 0)
(0.659752 0.00288692 0)
(0.65765 0.00171087 0)
(0.656036 0.000694574 0)
(0.654829 -8.09391e-05 0)
(0.653907 -0.000532046 0)
(0.653153 -0.000708904 0)
(0.652429 -0.000591578 0)
(0.651613 -9.3934e-05 0)
(0.650581 0.000656525 0)
(0.649227 0.00152961 0)
(0.647492 0.00242152 0)
(0.645363 0.00324585 0)
(0.642874 0.00391695 0)
(0.640102 0.00437448 0)
(0.637141 0.004593 0)
(0.634088 0.00457679 0)
(0.631039 0.00433869 0)
(0.628091 0.00390261 0)
(0.625329 0.00332228 0)
(0.62281 0.00267341 0)
(0.620549 0.00202566 0)
(0.618535 0.00143265 0)
(0.61674 0.000936492 0)
(0.61513 0.00055609 0)
(0.61366 0.000295185 0)
(0.612307 0.000151402 0)
(0.611045 0.000139516 0)
(0.609825 0.000275632 0)
(0.608594 0.00056961 0)
(0.607265 0.00100123 0)
(0.605765 0.0015159 0)
(0.604056 0.00204763 0)
(0.60214 0.00254496 0)
(0.600038 0.00297498 0)
(0.597776 0.00331134 0)
(0.595394 0.00353152 0)
(0.592942 0.00362554 0)
(0.590477 0.00359331 0)
(0.588055 0.00343961 0)
(0.58573 0.00317609 0)
(0.58355 0.00282233 0)
(0.581551 0.00240203 0)
(0.579761 0.00194209 0)
(0.578192 0.00147133 0)
(0.576845 0.00102116 0)
(0.575704 0.000621494 0)
(0.574736 0.00029141 0)
(0.573904 4.38037e-05 0)
(0.573167 -0.000111328 0)
(0.572487 -0.000186446 0)
(0.571829 -0.000197261 0)
(0.571163 -0.000162287 0)
(0.570472 -0.000102733 0)
(0.569745 -3.925e-05 0)
(0.568985 8.62082e-06 0)
(0.568206 2.05593e-05 0)
(0.567439 -1.78825e-05 0)
(0.566708 -0.000113735 0)
(0.566046 -0.000273914 0)
(0.565487 -0.000502717 0)
(0.565056 -0.000775438 0)
(0.564773 -0.00106778 0)
(0.564642 -0.0013578 0)
(0.564665 -0.00163309 0)
(0.564832 -0.00186437 0)
(0.565116 -0.00203222 0)
(0.565489 -0.00213537 0)
(0.565921 -0.00219028 0)
(0.566384 -0.00219012 0)
(0.566861 -0.00214838 0)
(0.567338 -0.00207153 0)
(0.567797 -0.00196073 0)
(0.568219 -0.00181475 0)
(0.568586 -0.00163464 0)
(0.568881 -0.00143119 0)
(0.569097 -0.00122269 0)
(0.569235 -0.00102807 0)
(0.569308 -0.000859515 0)
(0.569331 -0.000724038 0)
(0.569321 -0.000623149 0)
(0.569295 -0.000559054 0)
(0.56927 -0.000533123 0)
(0.569262 -0.000545123 0)
(0.569289 -0.000587703 0)
(0.569361 -0.000649756 0)
(0.569483 -0.000720563 0)
(0.569654 -0.000784201 0)
(0.569869 -0.000838993 0)
(0.570121 -0.000882513 0)
(0.570402 -0.000912929 0)
(0.570706 -0.000930886 0)
(0.571027 -0.000939165 0)
(0.571359 -0.000941966 0)
(0.5717 -0.000946591 0)
(1.02383 -0.0132465 0)
(1.02521 -0.00962977 0)
(1.02621 -0.00676489 0)
(1.02705 -0.00470891 0)
(1.02785 -0.00356005 0)
(1.02879 -0.00331008 0)
(1.02979 -0.00389852 0)
(1.03073 -0.00503544 0)
(1.03155 -0.0064402 0)
(1.03222 -0.00790642 0)
(1.03278 -0.00930506 0)
(1.03328 -0.0104754 0)
(1.03371 -0.011206 0)
(1.03408 -0.0112893 0)
(1.03426 -0.0104868 0)
(1.03408 -0.00869813 0)
(1.03359 -0.00634367 0)
(1.03287 -0.00365975 0)
(1.03191 -0.000683904 0)
(1.03044 0.00248117 0)
(1.02832 0.00551063 0)
(1.02569 0.00808713 0)
(1.02259 0.0100694 0)
(1.0191 0.011374 0)
(1.01534 0.0119976 0)
(1.01142 0.011946 0)
(1.00745 0.0112377 0)
(1.00356 0.00996171 0)
(0.999911 0.00829172 0)
(0.996576 0.00646445 0)
(0.993573 0.00468321 0)
(0.99087 0.00309815 0)
(0.98839 0.00182779 0)
(0.986034 0.000964394 0)
(0.983724 0.000546209 0)
(0.981405 0.000589423 0)
(0.97902 0.00105412 0)
(0.976502 0.0018443 0)
(0.973773 0.00286429 0)
(0.970792 0.00404588 0)
(0.967567 0.00524051 0)
(0.964133 0.00627557 0)
(0.960557 0.0070624 0)
(0.956931 0.00756056 0)
(0.953321 0.00779145 0)
(0.94977 0.007744 0)
(0.946334 0.00737982 0)
(0.943069 0.00674372 0)
(0.939996 0.00597356 0)
(0.9371 0.00518908 0)
(0.934356 0.00445841 0)
(0.931748 0.00381304 0)
(0.92926 0.00327863 0)
(0.926873 0.00287108 0)
(0.924578 0.00259249 0)
(0.922371 0.00243431 0)
(0.920243 0.00241175 0)
(0.918158 0.00257461 0)
(0.916037 0.00294923 0)
(0.91378 0.00348373 0)
(0.911334 0.00407898 0)
(0.908705 0.00465936 0)
(0.905909 0.00520022 0)
(0.902954 0.00566601 0)
(0.899858 0.00600888 0)
(0.896664 0.00619788 0)
(0.893418 0.00621366 0)
(0.890177 0.00604511 0)
(0.887002 0.00570194 0)
(0.88395 0.00521268 0)
(0.88107 0.00461478 0)
(0.878402 0.00395144 0)
(0.875977 0.00326769 0)
(0.873808 0.00261194 0)
(0.871886 0.00203073 0)
(0.870178 0.00155792 0)
(0.868638 0.00121401 0)
(0.867217 0.00100072 0)
(0.865869 0.000907027 0)
(0.864549 0.000913422 0)
(0.863221 0.000994038 0)
(0.861853 0.00111278 0)
(0.860427 0.00123532 0)
(0.858943 0.00133568 0)
(0.857411 0.00137623 0)
(0.855862 0.00133035 0)
(0.854332 0.00118365 0)
(0.852864 0.000932932 0)
(0.851496 0.000584736 0)
(0.850276 0.000163162 0)
(0.849244 -0.000302138 0)
(0.848408 -0.000789919 0)
(0.847754 -0.00126178 0)
(0.847277 -0.00168531 0)
(0.846945 -0.00202675 0)
(0.846717 -0.00227628 0)
(0.846555 -0.00243762 0)
(0.846426 -0.00251462 0)
(0.846315 -0.00253056 0)
(0.846212 -0.00248726 0)
(0.846106 -0.00236102 0)
(0.84598 -0.00216862 0)
(0.845807 -0.00190832 0)
(0.845557 -0.00158977 0)
(0.845214 -0.00125189 0)
(0.844782 -0.000940276 0)
(0.844276 -0.000676033 0)
(0.843715 -0.000472295 0)
(0.843121 -0.000325804 0)
(0.842518 -0.000249013 0)
(0.841933 -0.000234892 0)
(0.841384 -0.000274263 0)
(0.840888 -0.000357365 0)
(0.840453 -0.000467641 0)
(0.840082 -0.000584623 0)
(0.839773 -0.000693908 0)
(0.83952 -0.000786194 0)
(0.839313 -0.000861803 0)
(0.839138 -0.000920709 0)
(0.838984 -0.000962682 0)
(0.83884 -0.000988421 0)
(0.838699 -0.00100427 0)
(0.838559 -0.00102005 0)
(1.35971 -0.0123361 0)
(1.36218 -0.00751162 0)
(1.3638 -0.00393489 0)
(1.3645 -0.00204566 0)
(1.36454 -0.00156547 0)
(1.36412 -0.0017219 0)
(1.36355 -0.00282487 0)
(1.36292 -0.00459862 0)
(1.36217 -0.00657935 0)
(1.36124 -0.00847753 0)
(1.36011 -0.0100906 0)
(1.35872 -0.0111626 0)
(1.35703 -0.0115306 0)
(1.35497 -0.0113402 0)
(1.35215 -0.0102529 0)
(1.3482 -0.00822028 0)
(1.34318 -0.00580635 0)
(1.33749 -0.00324136 0)
(1.33154 -0.000134046 0)
(1.3256 0.00368163 0)
(1.31988 0.00730896 0)
(1.31442 0.0104016 0)
(1.30929 0.0127984 0)
(1.30454 0.0143415 0)
(1.30022 0.0150519 0)
(1.29633 0.0149737 0)
(1.29293 0.0141726 0)
(1.29009 0.0127969 0)
(1.28791 0.0110547 0)
(1.28643 0.0091695 0)
(1.28554 0.00737366 0)
(1.28505 0.00585035 0)
(1.2848 0.00476749 0)
(1.28466 0.00417109 0)
(1.28443 0.00395259 0)
(1.2839 0.00418516 0)
(1.28293 0.00489508 0)
(1.28134 0.00605252 0)
(1.27901 0.00746976 0)
(1.27589 0.00893231 0)
(1.27201 0.0102852 0)
(1.2675 0.0113491 0)
(1.26252 0.0120269 0)
(1.25733 0.0122946 0)
(1.25216 0.0121535 0)
(1.24712 0.0116276 0)
(1.24238 0.0108066 0)
(1.23814 0.00981147 0)
(1.23443 0.0087434 0)
(1.23116 0.00768981 0)
(1.22822 0.0067166 0)
(1.22551 0.00584979 0)
(1.22293 0.00509875 0)
(1.2204 0.00448647 0)
(1.21789 0.00403913 0)
(1.21544 0.00377843 0)
(1.21308 0.00374816 0)
(1.21082 0.00405454 0)
(1.20857 0.00476771 0)
(1.20613 0.00579168 0)
(1.20341 0.00690566 0)
(1.20046 0.00792805 0)
(1.19732 0.00884921 0)
(1.19397 0.00960947 0)
(1.19042 0.0101185 0)
(1.1867 0.0103631 0)
(1.18288 0.0103616 0)
(1.17903 0.0101133 0)
(1.17526 0.00964358 0)
(1.17165 0.00899088 0)
(1.16826 0.00818701 0)
(1.16515 0.00726807 0)
(1.16235 0.00627697 0)
(1.15987 0.00528674 0)
(1.1577 0.00438859 0)
(1.15576 0.00364366 0)
(1.15399 0.00307922 0)
(1.15229 0.00269881 0)
(1.15061 0.00248844 0)
(1.1489 0.00242757 0)
(1.14709 0.00250134 0)
(1.14514 0.00265966 0)
(1.14306 0.00284227 0)
(1.14084 0.00298509 0)
(1.13849 0.00304321 0)
(1.13605 0.0029893 0)
(1.13362 0.00280562 0)
(1.13124 0.00248462 0)
(1.12901 0.00200755 0)
(1.12698 0.00139407 0)
(1.12521 0.000697409 0)
(1.12372 -2.75948e-05 0)
(1.12253 -0.000696365 0)
(1.12161 -0.0012401 0)
(1.12092 -0.00162807 0)
(1.12037 -0.00185419 0)
(1.11991 -0.00194477 0)
(1.11949 -0.00193328 0)
(1.1191 -0.00186812 0)
(1.11871 -0.0017496 0)
(1.11833 -0.00157007 0)
(1.11795 -0.00131919 0)
(1.11751 -0.000998761 0)
(1.11695 -0.000642072 0)
(1.11621 -0.00029304 0)
(1.1153 2.08663e-05 0)
(1.11427 0.000279653 0)
(1.11314 0.000478554 0)
(1.11197 0.000604234 0)
(1.11079 0.000650318 0)
(1.10963 0.000620769 0)
(1.10852 0.0005227 0)
(1.10747 0.000368016 0)
(1.10649 0.000176748 0)
(1.10559 -2.7061e-05 0)
(1.10476 -0.000222215 0)
(1.10399 -0.000394636 0)
(1.10326 -0.000530314 0)
(1.10255 -0.000621459 0)
(1.10184 -0.000671443 0)
(1.10112 -0.000688918 0)
(1.10038 -0.000689821 0)
(1.09961 -0.000692224 0)
(1.54039 -0.0191013 0)
(1.54489 -0.0140687 0)
(1.54991 -0.00987578 0)
(1.55559 -0.00643466 0)
(1.56181 -0.00405678 0)
(1.56865 -0.00338052 0)
(1.57639 -0.00376352 0)
(1.58509 -0.00458121 0)
(1.59461 -0.00551742 0)
(1.60465 -0.00628376 0)
(1.61463 -0.00671556 0)
(1.62339 -0.00690686 0)
(1.63045 -0.00707973 0)
(1.63542 -0.00650844 0)
(1.63773 -0.00368078 0)
(1.63603 0.000817987 0)
(1.63016 0.00540277 0)
(1.62077 0.00932102 0)
(1.60861 0.0126613 0)
(1.59415 0.0154674 0)
(1.57812 0.0175335 0)
(1.56152 0.0189486 0)
(1.5452 0.0198268 0)
(1.52974 0.0201014 0)
(1.51567 0.0198991 0)
(1.50328 0.019109 0)
(1.49271 0.0175909 0)
(1.48401 0.0152833 0)
(1.47733 0.0121893 0)
(1.47258 0.0090471 0)
(1.46961 0.0062232 0)
(1.46821 0.00391868 0)
(1.46822 0.00217771 0)
(1.46952 0.00124783 0)
(1.47166 0.00109195 0)
(1.47429 0.00180681 0)
(1.47713 0.00330877 0)
(1.47977 0.00540659 0)
(1.48175 0.00788404 0)
(1.48285 0.010563 0)
(1.48302 0.0131457 0)
(1.48237 0.0153501 0)