/*--------------------------------*- C++ -*----------------------------------*\
| =========                 |                                                 |
| \\      /  F ield         | OpenFOAM: The Open Source CFD Toolbox           |
|  \\    /   O peration     | Version:  2206                                  |
|   \\  /    A nd           | Website:  www.openfoam.com                      |
|    \\/     M anipulation  |                                                 |
\*---------------------------------------------------------------------------*/
FoamFile
{
    version     2.0;
    format      ascii;
    arch        "LSB;label=32;scalar=64";
    class       volVectorField;
    location    "18.5001";
    object      ddtCorrDdt0(U);
}
// * * * * * * * * * * * * * * * * * * * * * * * * * * * * * * * * * * * * * //

dimensions      [0 1 -2 0 0 0 0];

internalField   nonuniform List<vector> 
3062
(
(7.53602e-06 -0.00082577 0)
(3.15227e-05 -0.00256254 0)
(8.77583e-05 -0.00431054 0)
(0.000181118 -0.00599502 0)
(0.000307504 -0.00760342 0)
(0.000462243 -0.00911087 0)
(0.000643798 -0.0104801 0)
(0.000849465 -0.0116765 0)
(0.00107662 -0.0126735 0)
(0.00132073 -0.0134546 0)
(0.00157842 -0.0140108 0)
(0.00184508 -0.0143428 0)
(0.00211726 -0.0144573 0)
(0.00239045 -0.0143695 0)
(0.0026616 -0.0140992 0)
(0.00292719 -0.0136733 0)
(0.00318431 -0.0131224 0)
(0.00343048 -0.0124837 0)
(0.00366552 -0.0117947 0)
(0.00388798 -0.0110978 0)
(0.00409733 -0.0104342 0)
(0.00429436 -0.00984674 0)
(0.0044819 -0.00937418 0)
(0.00466164 -0.00905553 0)
(0.0048362 -0.00892435 0)
(0.00500934 -0.00901247 0)
(0.00518717 -0.00934396 0)
(0.00537299 -0.00993932 0)
(0.00557539 -0.0108149 0)
(0.0057816 -0.0119788 0)
(0.00604171 -0.0134324 0)
(0.00630296 -0.0151734 0)
(0.00662015 -0.0171927 0)
(0.00697359 -0.0194792 0)
(0.0073627 -0.0220119 0)
(0.00783181 -0.0247778 0)
(0.00831136 -0.0277425 0)
(0.00891335 -0.0308965 0)
(0.00950445 -0.034197 0)
(0.0102424 -0.0376412 0)
(0.0109696 -0.0411834 0)
(0.0118369 -0.0448259 0)
(0.0127247 -0.0485318 0)
(0.0137108 -0.0523012 0)
(0.0147774 -0.0561223 0)
(0.0158764 -0.0599813 0)
(0.0171278 -0.0639083 0)
(0.0183461 -0.0678638 0)
(0.0197767 -0.0719322 0)
(0.021136 -0.0760417 0)
(0.0227298 -0.0803296 0)
(0.0242716 -0.084706 0)
(0.0260089 -0.089321 0)
(0.0277771 -0.094126 0)
(0.0296542 -0.0992069 0)
(0.0316541 -0.104646 0)
(0.0336932 -0.110409 0)
(0.0358863 -0.116799 0)
(0.038161 -0.123591 0)
(0.0405793 -0.130947 0)
(0.0431758 -0.138925 0)
(0.0459451 -0.147582 0)
(0.0488937 -0.156976 0)
(0.0520356 -0.167174 0)
(0.0553966 -0.178234 0)
(0.0589964 -0.190219 0)
(0.0628646 -0.203187 0)
(0.0670283 -0.217198 0)
(0.0715239 -0.232307 0)
(0.0763808 -0.248576 0)
(0.0816384 -0.266063 0)
(0.0873316 -0.284836 0)
(0.0935082 -0.304962 0)
(0.100213 -0.326522 0)
(0.107506 -0.349595 0)
(0.11545 -0.374279 0)
(0.124123 -0.400676 0)
(0.133608 -0.428911 0)
(0.144014 -0.459117 0)
(0.155456 -0.491458 0)
(0.168084 -0.526115 0)
(0.18206 -0.563306 0)
(0.197594 -0.603281 0)
(0.214929 -0.646338 0)
(0.234357 -0.692829 0)
(0.25624 -0.743176 0)
(0.281009 -0.797882 0)
(0.309175 -0.857572 0)
(0.341369 -0.92301 0)
(0.37833 -0.995185 0)
(0.420936 -1.07538 0)
(0.470214 -1.16535 0)
(0.527201 -1.26753 0)
(0.59316 -1.38573 0)
(0.668624 -1.52555 0)
(0.752664 -1.69586 0)
(0.844933 -1.916 0)
(0.915329 -2.22779 0)
(1.02825 -2.71499 0)
(0.163022 -3.93578 0)
(5.87771e-06 -0.0008458 0)
(2.48186e-05 -0.00259152 0)
(6.82481e-05 -0.00437556 0)
(0.000140847 -0.00609153 0)
(0.000238367 -0.00772843 0)
(0.00035855 -0.00926118 0)
(0.00050029 -0.0106532 0)
(0.000662203 -0.0118691 0)
(0.000840672 -0.0128831 0)
(0.0010327 -0.0136774 0)
(0.00123455 -0.0142439 0)
(0.00144362 -0.0145817 0)
(0.00165636 -0.0146994 0)
(0.00187026 -0.0146106 0)
(0.00208231 -0.0143372 0)
(0.00229016 -0.0139046 0)
(0.00249086 -0.0133465 0)
(0.00268383 -0.0126971 0)
(0.00286786 -0.0119977 0)
(0.00304194 -0.0112891 0)
(0.00320523 -0.0106154 0)
(0.00335964 -0.0100173 0)
(0.00350632 -0.00953728 0)
(0.00364689 -0.00921254 0)
(0.00378288 -0.00907975 0)
(0.00391872 -0.00916826 0)
(0.00405828 -0.00950575 0)
(0.00420244 -0.0101106 0)
(0.00436416 -0.0110016 0)
(0.00451785 -0.0121832 0)
(0.00473342 -0.0136632 0)
(0.00492335 -0.0154321 0)
(0.0051872 -0.0174883 0)
(0.00544812 -0.0198115 0)
(0.00576515 -0.0223923 0)
(0.00612284 -0.0252023 0)
(0.00650169 -0.0282225 0)
(0.00697561 -0.0314282 0)
(0.00742811 -0.0347897 0)
(0.00802194 -0.0382911 0)
(0.00856834 -0.0418978 0)
(0.00927349 -0.045602 0)
(0.00993968 -0.0493731 0)
(0.0107392 -0.0532084 0)
(0.0115496 -0.0570937 0)
(0.0124265 -0.061022 0)
(0.0133984 -0.0650136 0)
(0.014346 -0.0690393 0)
(0.0154829 -0.0731775 0)
(0.0165144 -0.0773555 0)
(0.017801 -0.0817267 0)
(0.01896 -0.0861679 0)
(0.020366 -0.0908888 0)
(0.0217212 -0.095757 0)
(0.0232244 -0.100955 0)
(0.0247986 -0.106453 0)
(0.026415 -0.112281 0)
(0.0282031 -0.1187 0)
(0.0299269 -0.125629 0)
(0.0318073 -0.133178 0)
(0.0338364 -0.141315 0)
(0.0359981 -0.15012 0)
(0.0382919 -0.159673 0)
(0.0407364 -0.170044 0)
(0.0433489 -0.181298 0)
(0.0461517 -0.1935 0)
(0.0491647 -0.206719 0)
(0.0524185 -0.221015 0)
(0.0559365 -0.236444 0)
(0.059748 -0.253066 0)
(0.0638771 -0.270941 0)
(0.0683579 -0.290138 0)
(0.0732205 -0.31073 0)
(0.0785078 -0.3328 0)
(0.0842609 -0.356437 0)
(0.0905362 -0.381748 0)
(0.0973903 -0.408844 0)
(0.104899 -0.437863 0)
(0.113141 -0.468954 0)
(0.12222 -0.502297 0)
(0.13225 -0.538097 0)
(0.14337 -0.5766 0)
(0.155747 -0.618087 0)
(0.169577 -0.662899 0)
(0.185096 -0.711437 0)
(0.202591 -0.764177 0)
(0.222392 -0.821699 0)
(0.244901 -0.884699 0)
(0.270568 -0.954032 0)
(0.299908 -1.03076 0)
(0.333454 -1.11622 0)
(0.371699 -1.21214 0)
(0.414935 -1.32081 0)
(0.463014 -1.44532 0)
(0.514249 -1.58993 0)
(0.565734 -1.76113 0)
(0.605997 -1.96834 0)
(0.626508 -2.22536 0)
(0.541461 -2.53684 0)
(0.281364 -2.77513 0)
(2.7659e-06 -0.000854526 0)
(1.68977e-05 -0.00262398 0)
(5.19653e-05 -0.00442942 0)
(0.000105454 -0.00616399 0)
(0.000174418 -0.00781921 0)
(0.000258392 -0.0093721 0)
(0.000358224 -0.010783 0)
(0.000473223 -0.0120158 0)
(0.000601341 -0.0130425 0)
(0.000739488 -0.0138471 0)
(0.000885077 -0.0144201 0)
(0.00103539 -0.0147631 0)
(0.00118845 -0.0148823 0)
(0.00134194 -0.014794 0)
(0.00149444 -0.0145173 0)
(0.00164329 -0.0140812 0)
(0.00178785 -0.0135156 0)
(0.00192636 -0.0128595 0)
(0.00205885 -0.012151 0)
(0.0021838 -0.0114346 0)
(0.00230151 -0.0107516 0)
(0.00241193 -0.010147 0)
(0.00251752 -0.00965993 0)
(0.00261812 -0.0093318 0)
(0.00271622 -0.00919607 0)
(0.00281302 -0.00928656 0)
(0.00291394 -0.00962698 0)
(0.00301505 -0.0102402 0)
(0.00313709 -0.0111409 0)
(0.00323516 -0.0123382 0)
(0.00340432 -0.0138373 0)
(0.00352507 -0.0156284 0)
(0.00372811 -0.0177106 0)
(0.00390331 -0.0200642 0)
(0.00413758 -0.0226775 0)
(0.00439352 -0.0255236 0)
(0.00465838 -0.0285834 0)
(0.0050148 -0.0318297 0)
(0.00531501 -0.0352358 0)
(0.00577217 -0.0387825 0)
(0.00612989 -0.0424365 0)
(0.0066687 -0.0461876 0)
(0.0071204 -0.0500095 0)
(0.00771007 -0.0538911 0)
(0.00828777 -0.0578301 0)
(0.00890825 -0.0618045 0)
(0.00962543 -0.0658506 0)
(0.0102742 -0.069924 0)
(0.0111303 -0.074118 0)
(0.0118183 -0.0783447 0)
(0.0127961 -0.0827784 0)
(0.0135672 -0.0872698 0)
(0.014612 -0.0920646 0)
(0.0155704 -0.0970052 0)
(0.016617 -0.10226 0)
(0.0178068 -0.107806 0)
(0.0191024 -0.113629 0)
(0.0204675 -0.120179 0)
(0.0215229 -0.127193 0)
(0.0228444 -0.134846 0)
(0.0243677 -0.143131 0)
(0.0259532 -0.152066 0)
(0.0276034 -0.161746 0)
(0.0293422 -0.172258 0)
(0.0311914 -0.18367 0)
(0.0331612 -0.196052 0)
(0.0352778 -0.209467 0)
(0.0375709 -0.223975 0)
(0.0400693 -0.239634 0)
(0.0427904 -0.256506 0)
(0.045754 -0.274656 0)
(0.048978 -0.294156 0)
(0.0524861 -0.315084 0)
(0.0563037 -0.337528 0)
(0.0604643 -0.361585 0)
(0.0650052 -0.387364 0)
(0.0699723 -0.41499 0)
(0.0754172 -0.444607 0)
(0.0814028 -0.476378 0)
(0.0880017 -0.510498 0)
(0.0953008 -0.547189 0)
(0.103401 -0.586712 0)
(0.112427 -0.629383 0)
(0.122518 -0.675569 0)
(0.133852 -0.7257 0)
(0.146627 -0.780303 0)
(0.161083 -0.839991 0)
(0.177493 -0.905511 0)
(0.196154 -0.977753 0)
(0.217386 -1.05779 0)
(0.241468 -1.14692 0)
(0.268568 -1.2467 0)
(0.298535 -1.359 0)
(0.330691 -1.48613 0)
(0.362613 -1.62991 0)
(0.391091 -1.79459 0)
(0.406041 -1.98225 0)
(0.391654 -2.19205 0)
(0.307476 -2.41292 0)
(0.119099 -2.91831 0)
(-1.77399e-08 -0.000861661 0)
(8.91363e-06 -0.00264434 0)
(3.48183e-05 -0.00446383 0)
(6.90818e-05 -0.00621258 0)
(0.00011122 -0.00788125 0)
(0.00016281 -0.0094456 0)
(0.000222869 -0.0108689 0)
(0.000290797 -0.0121131 0)
(0.000365726 -0.0131502 0)
(0.000447235 -0.0139619 0)
(0.000533433 -0.0145405 0)
(0.000623383 -0.0148858 0)
(0.000714967 -0.0150066 0)
(0.000807567 -0.014917 0)
(0.000899069 -0.0146392 0)
(0.000989511 -0.0141989 0)
(0.00107631 -0.0136297 0)
(0.0011604 -0.0129675 0)
(0.00124057 -0.012254 0)
(0.00131667 -0.0115311 0)
(0.00138695 -0.0108435 0)
(0.00145427 -0.0102328 0)
(0.00151794 -0.00974261 0)
(0.00157915 -0.00941097 0)
(0.00163703 -0.00927516 0)
(0.0016957 -0.00936498 0)
(0.0017567 -0.00970909 0)
(0.00181466 -0.0103268 0)
(0.00189708 -0.011235 0)
(0.00193276 -0.0124387 0)
(0.00206261 -0.0139544 0)
(0.00210505 -0.0157594 0)
(0.00225866 -0.0178623 0)
(0.00233464 -0.0202323 0)
(0.00249847 -0.0228715 0)
(0.00263962 -0.0257375 0)
(0.00280107 -0.0288277 0)
(0.00303078 -0.0320974 0)
(0.00317874 -0.0355382 0)
(0.00350711 -0.0391102 0)
(0.00365234 -0.0428002 0)
(0.00405983 -0.0465793 0)
(0.00424588 -0.0504373 0)
(0.00467804 -0.054348 0)
(0.00496865 -0.0583245 0)
(0.00537002 -0.0623274 0)
(0.00580644 -0.066412 0)
(0.00615747 -0.0705149 0)
(0.0067443 -0.0747477 0)
(0.00705519 -0.0790039 0)
(0.00776674 -0.0834815 0)
(0.00809491 -0.0879991 0)
(0.00883682 -0.0928543 0)
(0.00932134 -0.0978197 0)
(0.0100391 -0.103219 0)
(0.0106654 -0.108763 0)
(0.0114569 -0.114822 0)
(0.0123772 -0.121076 0)
(0.0131051 -0.128309 0)
(0.0138691 -0.135972 0)
(0.014835 -0.144285 0)
(0.0158551 -0.153299 0)
(0.0168446 -0.163054 0)
(0.0178477 -0.173619 0)
(0.0188967 -0.185091 0)
(0.0200193 -0.197565 0)
(0.0212366 -0.211117 0)
(0.0225771 -0.225798 0)
(0.0240516 -0.24166 0)
(0.0256727 -0.258751 0)
(0.0274449 -0.277134 0)
(0.0293834 -0.296876 0)
(0.0314982 -0.318064 0)
(0.0338089 -0.340785 0)
(0.036331 -0.365146 0)
(0.0390905 -0.391259 0)
(0.0421099 -0.419257 0)
(0.0454235 -0.449288 0)
(0.0490662 -0.481527 0)
(0.0530859 -0.516173 0)
(0.0575343 -0.553467 0)
(0.0624791 -0.593677 0)
(0.0679923 -0.637141 0)
(0.0741667 -0.68424 0)
(0.0810963 -0.735434 0)
(0.0889126 -0.791267 0)
(0.0977525 -0.852388 0)
(0.107769 -0.919561 0)
(0.119135 -0.993692 0)
(0.132017 -1.07583 0)
(0.146536 -1.16719 0)
(0.162709 -1.26914 0)
(0.180343 -1.38317 0)
(0.198694 -1.51067 0)
(0.216542 -1.6533 0)
(0.230895 -1.81138 0)
(0.23656 -1.98313 0)
(0.223922 -2.16433 0)
(0.196936 -2.33629 0)
(0.113878 -2.39128 0)
(2.75752e-05 -0.00623933 0)
(4.25508e-05 -0.00791397 0)
(6.03795e-05 -0.00948408 0)
(8.05986e-05 -0.0109113 0)
(0.000102453 -0.0121591 0)
(0.000126338 -0.0131996 0)
(0.000151763 -0.0140152 0)
(0.000179508 -0.014597 0)
(0.000208405 -0.0149451 0)
(0.000238749 -0.0150673 0)
(0.000269138 -0.0149786 0)
(0.000300226 -0.0147 0)
(0.000330181 -0.0142588 0)
(0.000360309 -0.0136872 0)
(0.000388794 -0.0130228 0)
(0.000416587 -0.0123064 0)
(0.000442239 -0.011581 0)
(0.000467234 -0.0108899 0)
(0.000489756 -0.0102771 0)
(0.000511745 -0.00978429 0)
(0.000531701 -0.00945146 0)
(0.000552075 -0.00931391 0)
(0.000570698 -0.00940447 0)
(0.000591247 -0.00974921 0)
(0.00060883 -0.0103707 0)
(0.000638721 -0.0112808 0)
(0.000647983 -0.0124918 0)
(0.000716555 -0.0140106 0)
(0.000670356 -0.0158225 0)
(0.000784449 -0.0179376 0)
(0.000756859 -0.0203155 0)
(0.000844465 -0.0229702 0)
(0.000885361 -0.0258437 0)
(0.000913906 -0.0289531 0)
(0.00105268 -0.032231 0)
(0.00100543 -0.0356915 0)
(0.00124554 -0.0392739 0)
(0.00114013 -0.0429828 0)
(0.00144254 -0.0467755 0)
(0.00134675 -0.050651 0)
(0.0016188 -0.0545764 0)
(0.00164395 -0.058572 0)
(0.001776 -0.0625877 0)
(0.00200839 -0.0666929 0)
(0.00195545 -0.0708131 0)
(0.00240278 -0.0750557 0)
(0.00217366 -0.0793423 0)
(0.00282753 -0.0838304 0)
(0.00245816 -0.0883449 0)
(0.00315861 -0.0932846 0)
(0.00301977 -0.0981644 0)
(0.00316946 -0.103674 0)
(0.0037713 -0.109397 0)
(0.00338901 -0.115671 0)
(0.00383598 -0.121187 0)
(0.00460091 -0.129117 0)
(0.0049876 -0.136848 0)
(0.00536922 -0.145048 0)
(0.00573561 -0.154012 0)
(0.00608146 -0.16374 0)
(0.00638688 -0.174309 0)
(0.00665246 -0.185827 0)
(0.00689191 -0.19838 0)
(0.0071552 -0.212017 0)
(0.00747546 -0.22678 0)
(0.00787572 -0.242714 0)
(0.00835188 -0.25988 0)
(0.00890847 -0.278344 0)
(0.00953901 -0.298183 0)
(0.0102505 -0.319479 0)
(0.0110393 -0.342327 0)
(0.0119146 -0.366828 0)
(0.012875 -0.3931 0)
(0.0139327 -0.421275 0)
(0.0150918 -0.45151 0)
(0.0163702 -0.483981 0)
(0.0177787 -0.518899 0)
(0.0193401 -0.556505 0)
(0.0210714 -0.597084 0)
(0.0230034 -0.640964 0)
(0.0251571 -0.688547 0)
(0.0275709 -0.740296 0)
(0.0302756 -0.796766 0)
(0.0333242 -0.858611 0)
(0.0367683 -0.926604 0)
(0.0406677 -1.00164 0)
(0.0450801 -1.08477 0)
(0.0500519 -1.17715 0)
(0.0555861 -1.28004 0)
(0.0616097 -1.39472 0)
(0.0678693 -1.52229 0)
(0.0738897 -1.6636 0)
(0.0784849 -1.81796 0)
(0.0795934 -1.98236 0)
(0.0721841 -2.14788 0)
(0.058466 -2.30726 0)
(0.0400954 -2.3506 0)
(3.50326e-05 -5.48131e-05 0)
(0.0001646 -8.28566e-05 0)
(0.000445128 -0.000125912 0)
(0.000842181 -0.000188719 0)
(0.00132215 -0.000241671 0)
(0.00189131 -0.000301528 0)
(0.00255807 -0.000342104 0)
(0.00331939 -0.000380414 0)
(0.00413134 -0.000415225 0)
(0.00496502 -0.00043526 0)
(0.00579734 -0.000435679 0)
(0.0066051 -0.000421037 0)
(0.00737658 -0.000400287 0)
(0.00810624 -0.000365998 0)
(0.00877992 -0.000313519 0)
(0.00937719 -0.00024798 0)
(0.00988574 -0.000181496 0)
(0.0102985 -0.000111878 0)
(0.0106109 -3.82777e-05 0)
(0.0108278 2.68495e-05 0)
(0.010966 7.07691e-05 0)
(0.0110493 9.1281e-05 0)
(0.0111119 7.51798e-05 0)
(0.0112001 2.238e-05 0)
(0.0113439 -6.21914e-05 0)
(0.0116037 -0.000154901 0)
(0.0119122 -0.000260997 0)
(0.0124462 -0.000397068 0)
(0.0131998 -0.000543171 0)
(0.0141246 -0.000672823 0)
(0.0152353 -0.000774055 0)
(0.0165269 -0.000839413 0)
(0.0179552 -0.000863313 0)
(0.0194818 -0.000847223 0)
(0.0210759 -0.00079972 0)
(0.0226883 -0.000738765 0)
(0.024336 -0.000668887 0)
(0.0259592 -0.000609031 0)
(0.0275941 -0.000587423 0)
(0.0292652 -0.000615805 0)
(0.0309514 -0.000709742 0)
(0.0328685 -0.000884397 0)
(0.0348706 -0.00106429 0)
(0.0371246 -0.00127214 0)
(0.039567 -0.00146559 0)
(0.042335 -0.00164152 0)
(0.0453681 -0.00181151 0)
(0.0486914 -0.00195442 0)
(0.0523808 -0.00210088 0)
(0.05623 -0.00216958 0)
(0.0605096 -0.00226648 0)
(0.0648702 -0.00227509 0)
(0.069522 -0.00234816 0)
(0.0744628 -0.00249245 0)
(0.0796226 -0.00263241 0)
(0.0849596 -0.00287673 0)
(0.0914233 -0.00302162 0)
(0.096724 -0.00341078 0)
(0.104861 -0.0034441 0)
(0.111243 -0.00406885 0)
(0.119041 -0.00373207 0)
(0.127061 -0.00342325 0)
(0.134949 -0.00246086 0)
(0.142892 -0.00318148 0)
(0.152427 -0.00454495 0)
(0.162823 -0.0059016 0)
(0.174746 -0.0073266 0)
(0.187894 -0.00785811 0)
(0.201943 -0.00780874 0)
(0.21671 -0.00814523 0)
(0.232179 -0.00847291 0)
(0.248454 -0.00883241 0)
(0.265585 -0.00929841 0)
(0.283578 -0.00962198 0)
(0.302507 -0.0100609 0)
(0.322491 -0.0106339 0)
(0.343665 -0.0113137 0)
(0.36614 -0.0120599 0)
(0.390003 -0.0128395 0)
(0.415327 -0.0136283 0)
(0.442132 -0.0144045 0)
(0.470495 -0.0152474 0)
(0.500644 -0.0162564 0)
(0.532623 -0.0171953 0)
(0.566158 -0.0178281 0)
(0.600924 -0.0182913 0)
(0.636778 -0.0187237 0)
(0.673749 -0.0191406 0)
(0.711767 -0.0194813 0)
(0.750593 -0.0197619 0)
(0.789963 -0.0200853 0)
(0.830052 -0.0205398 0)
(0.868624 -0.0217398 0)
(0.916424 -0.0224847 0)
(0.955526 -0.0218668 0)
(0.99692 -0.0214901 0)
(1.03986 -0.0220116 0)
(1.08385 -0.0233028 0)
(1.12826 -0.0248936 0)
(1.17489 -0.0265515 0)
(2.52392e-05 -9.93542e-05 0)
(9.16742e-05 -0.000306607 0)
(0.000321095 -0.000661353 0)
(0.000862245 -0.000646467 0)
(0.00132818 -0.000862626 0)
(0.00188963 -0.000866645 0)
(0.00252129 -0.00111925 0)
(0.00321528 -0.00115287 0)
(0.00397193 -0.00118924 0)
(0.00477426 -0.00120459 0)
(0.00558564 -0.00117297 0)
(0.00639445 -0.00111991 0)
(0.00719851 -0.00108314 0)
(0.00800605 -0.00103326 0)
(0.00879699 -0.000952817 0)
(0.00954616 -0.000848285 0)
(0.0102515 -0.000728527 0)
(0.0109122 -0.00061123 0)
(0.0115099 -0.000489666 0)
(0.0120353 -0.000375389 0)
(0.0124999 -0.000283724 0)
(0.012909 -0.000232988 0)
(0.0132717 -0.000218024 0)
(0.0136133 -0.000253283 0)
(0.013962 -0.000321772 0)
(0.0143119 -0.000436899 0)
(0.0146769 -0.000610461 0)
(0.0151068 -0.000834383 0)
(0.0156235 -0.00108186 0)
(0.0162227 -0.00133761 0)
(0.016916 -0.00158635 0)
(0.0177207 -0.00181947 0)
(0.0186495 -0.0020203 0)
(0.0197102 -0.00218495 0)
(0.0209089 -0.00231072 0)
(0.0222613 -0.00242373 0)
(0.0237769 -0.00250787 0)
(0.0254449 -0.00256708 0)
(0.0272619 -0.00262185 0)
(0.0292203 -0.00269756 0)
(0.0313227 -0.00281078 0)
(0.0335657 -0.00297242 0)
(0.035794 -0.00320814 0)
(0.0385249 -0.00334905 0)
(0.0408707 -0.00369807 0)
(0.0439155 -0.0040179 0)
(0.0465068 -0.00442662 0)
(0.0496827 -0.00480851 0)
(0.0528076 -0.00523493 0)
(0.0560201 -0.00566995 0)
(0.0600245 -0.00602874 0)
(0.0631915 -0.00652405 0)
(0.0681488 -0.00681292 0)
(0.0715627 -0.00739163 0)
(0.0771658 -0.00770648 0)
(0.081296 -0.00838392 0)
(0.0871116 -0.00881043 0)
(0.0923786 -0.00946004 0)
(0.0985351 -0.0101114 0)
(0.105781 -0.0105958 0)
(0.111091 -0.0117185 0)
(0.120305 -0.0120473 0)
(0.126918 -0.0135859 0)
(0.137416 -0.0142627 0)
(0.147052 -0.0161704 0)
(0.158438 -0.0167364 0)
(0.169364 -0.0174458 0)
(0.180007 -0.0195809 0)
(0.192459 -0.0208683 0)
(0.205816 -0.0220353 0)
(0.220008 -0.0232127 0)
(0.235137 -0.0244267 0)
(0.251237 -0.0257143 0)
(0.268336 -0.0271327 0)
(0.286526 -0.0287051 0)
(0.305879 -0.0304342 0)
(0.326462 -0.0323155 0)
(0.348325 -0.0343276 0)
(0.371518 -0.0364498 0)
(0.396105 -0.0386553 0)
(0.422038 -0.0409389 0)
(0.449378 -0.0433848 0)
(0.478443 -0.04601 0)
(0.508655 -0.0484935 0)
(0.540387 -0.0505621 0)
(0.573685 -0.0524202 0)
(0.608517 -0.0542708 0)
(0.644999 -0.0561512 0)
(0.682958 -0.0577011 0)
(0.722024 -0.0587368 0)
(0.761612 -0.0593568 0)
(0.801296 -0.0600876 0)
(0.841307 -0.0618051 0)
(0.881683 -0.0632003 0)
(0.922867 -0.0632401 0)
(0.96524 -0.0633156 0)
(1.00779 -0.0642214 0)
(1.05102 -0.0657539 0)
(1.09141 -0.0677724 0)
(1.13524 -0.0706187 0)
(2.69758e-05 -0.000139142 0)
(8.76286e-05 -0.000516778 0)
(0.000325085 -0.000821025 0)
(0.000581296 -0.00103572 0)
(0.00102545 -0.00128763 0)
(0.00156992 -0.0015079 0)
(0.00225303 -0.00172373 0)
(0.00301074 -0.00187257 0)
(0.00375587 -0.002022 0)
(0.00465422 -0.00209563 0)
(0.00536047 -0.00211757 0)
(0.00645143 -0.00209471 0)
(0.00737739 -0.0020369 0)
(0.00827601 -0.00194781 0)
(0.0091551 -0.00182593 0)
(0.00999186 -0.0016813 0)
(0.0107802 -0.00156868 0)
(0.0115364 -0.00136444 0)
(0.0122525 -0.00116265 0)
(0.0129238 -0.000977148 0)
(0.0135551 -0.000851932 0)
(0.0141708 -0.000676564 0)
(0.0147449 -0.000644398 0)
(0.0153174 -0.000681094 0)
(0.0158834 -0.000769305 0)
(0.0164172 -0.00076938 0)
(0.016954 -0.00101875 0)
(0.0175348 -0.00136497 0)
(0.0181617 -0.0016511 0)
(0.0188356 -0.00196186 0)
(0.0195736 -0.00228864 0)
(0.0204042 -0.00261219 0)
(0.0213498 -0.00292451 0)
(0.0224301 -0.00321067 0)
(0.0236485 -0.00347675 0)
(0.0250527 -0.00371887 0)
(0.0266817 -0.00396556 0)
(0.0285204 -0.00420916 0)
(0.0305537 -0.00445939 0)
(0.0327859 -0.00473602 0)
(0.0352135 -0.00505882 0)
(0.0378405 -0.00543064 0)
(0.0406456 -0.00585368 0)
(0.0436393 -0.00630351 0)
(0.0468243 -0.00676868 0)
(0.050164 -0.0072278 0)
(0.0536216 -0.00772696 0)
(0.0572356 -0.00828134 0)
(0.0610489 -0.00885154 0)
(0.065078 -0.00942594 0)
(0.0693438 -0.00997927 0)
(0.0738548 -0.0105475 0)
(0.0786446 -0.0111251 0)
(0.0837078 -0.0117566 0)
(0.0890708 -0.0124338 0)
(0.0947664 -0.0131908 0)
(0.100803 -0.0138324 0)
(0.107262 -0.0158896 0)
(0.113991 -0.0168383 0)
(0.121322 -0.0174926 0)
(0.128915 -0.0185537 0)
(0.137386 -0.0195349 0)
(0.146511 -0.0206739 0)
(0.155515 -0.0228454 0)
(0.166036 -0.0240432 0)
(0.17651 -0.0262304 0)
(0.187485 -0.0289782 0)
(0.199516 -0.0311498 0)
(0.212353 -0.0332727 0)
(0.226109 -0.0354724 0)
(0.240953 -0.0377444 0)
(0.256969 -0.0400863 0)
(0.274171 -0.0425107 0)
(0.292578 -0.045035 0)
(0.312224 -0.0477026 0)
(0.333118 -0.0505704 0)
(0.355314 -0.0536615 0)
(0.378792 -0.0569153 0)
(0.403575 -0.0603563 0)
(0.429726 -0.0637179 0)
(0.456821 -0.0671766 0)
(0.485146 -0.0712147 0)
(0.51525 -0.0754124 0)
(0.546386 -0.0793127 0)
(0.580057 -0.0829831 0)
(0.615421 -0.0865594 0)
(0.652095 -0.0900454 0)
(0.690282 -0.0935589 0)
(0.728943 -0.0963999 0)
(0.768468 -0.0981925 0)
(0.80773 -0.0989111 0)
(0.848206 -0.0998387 0)
(0.889554 -0.102127 0)
(0.931108 -0.104133 0)
(0.972133 -0.104985 0)
(1.01226 -0.105322 0)
(1.05135 -0.105827 0)
(1.08916 -0.106585 0)
(1.12587 -0.108009 0)
(1.16144 -0.110684 0)
(2.18241e-05 -0.000188671 0)
(0.000101083 -0.000649622 0)
(0.000292886 -0.00107745 0)
(0.000603482 -0.00147013 0)
(0.0010564 -0.00180712 0)
(0.0015587 -0.00213829 0)
(0.00220626 -0.00240593 0)
(0.00287237 -0.00265009 0)
(0.00366934 -0.00283266 0)
(0.00446052 -0.00280594 0)
(0.00537309 -0.00290937 0)
(0.00629032 -0.00297851 0)
(0.00718701 -0.0029911 0)
(0.00811235 -0.00287678 0)
(0.0090512 -0.00273449 0)
(0.00998121 -0.00250831 0)
(0.0108792 -0.00229911 0)
(0.0117246 -0.00213173 0)
(0.01259 -0.00186982 0)
(0.0132903 -0.00166536 0)
(0.0143054 -0.0014702 0)
(0.0146872 -0.001414 0)
(0.0158085 -0.00130993 0)
(0.0161871 -0.00135667 0)
(0.0168034 -0.00143014 0)
(0.017631 -0.00157737 0)
(0.0182759 -0.00176446 0)
(0.0188968 -0.00204143 0)
(0.0195165 -0.00237176 0)
(0.0201522 -0.00273378 0)
(0.0208362 -0.00314486 0)
(0.0216077 -0.00356628 0)
(0.0224893 -0.00400147 0)
(0.0235078 -0.00441683 0)
(0.024694 -0.00480539 0)
(0.0261076 -0.00546342 0)
(0.0276304 -0.00589052 0)
(0.0294428 -0.00634479 0)
(0.031461 -0.00680415 0)
(0.0337167 -0.0072831 0)
(0.036222 -0.00780453 0)
(0.0389983 -0.00838858 0)
(0.0420144 -0.00900908 0)
(0.0452858 -0.00969363 0)
(0.0488272 -0.0103378 0)
(0.0524819 -0.0108173 0)
(0.056264 -0.0114069 0)
(0.0603088 -0.0121459 0)
(0.0646717 -0.0129881 0)
(0.0693175 -0.0138534 0)
(0.0742254 -0.0147482 0)
(0.0794025 -0.0156722 0)
(0.0848594 -0.0166239 0)
(0.0906034 -0.0176574 0)
(0.0966702 -0.0188208 0)
(0.103114 -0.0200497 0)
(0.110006 -0.0212661 0)
(0.117203 -0.0225328 0)
(0.124577 -0.0239515 0)
(0.132378 -0.0254907 0)
(0.140748 -0.027174 0)
(0.149655 -0.0290968 0)
(0.159162 -0.0311612 0)
(0.169507 -0.0334699 0)
(0.179934 -0.0357733 0)
(0.19061 -0.0383472 0)
(0.202316 -0.0411899 0)
(0.214935 -0.0442798 0)
(0.228399 -0.0474563 0)
(0.242814 -0.0506695 0)
(0.258312 -0.0539718 0)
(0.274988 -0.0574175 0)
(0.292905 -0.0610291 0)
(0.312112 -0.064839 0)
(0.33262 -0.0688578 0)
(0.354463 -0.0731361 0)
(0.377684 -0.0776788 0)
(0.402184 -0.0822948 0)
(0.428333 -0.0873266 0)
(0.455397 -0.0916721 0)
(0.483555 -0.0957886 0)
(0.513627 -0.101453 0)
(0.545817 -0.107587 0)
(0.57955 -0.113301 0)
(0.614221 -0.118675 0)
(0.64964 -0.123734 0)
(0.685947 -0.128311 0)
(0.723594 -0.132233 0)
(0.758238 -0.13553 0)
(0.79834 -0.13834 0)
(0.836865 -0.14083 0)
(0.885006 -0.142952 0)
(0.924149 -0.144321 0)
(0.962872 -0.144661 0)
(1.00121 -0.144042 0)
(1.03834 -0.142845 0)
(1.07411 -0.141556 0)
(1.10842 -0.140607 0)
(1.14124 -0.140516 0)
(1.17211 -0.141855 0)
(2.00357e-05 -0.000237076 0)
(0.000101896 -0.000805339 0)
(0.000296128 -0.00134104 0)
(0.000615768 -0.00182515 0)
(0.00104374 -0.00227243 0)
(0.00157059 -0.0026837 0)
(0.00216774 -0.00306476 0)
(0.00288002 -0.00336399 0)
(0.00361255 -0.00361752 0)
(0.00444181 -0.00378451 0)
(0.00531579 -0.00389841 0)
(0.00622913 -0.00393333 0)
(0.0071386 -0.00389004 0)
(0.00805413 -0.00378323 0)
(0.00897753 -0.00363211 0)
(0.0098697 -0.0034527 0)
(0.0107803 -0.00323951 0)
(0.0116362 -0.00301886 0)
(0.0124685 -0.00278046 0)
(0.013292 -0.00255965 0)
(0.0140762 -0.00235568 0)
(0.0148505 -0.00218705 0)
(0.0155592 -0.00207203 0)
(0.0162787 -0.0019813 0)
(0.0169418 -0.00201754 0)
(0.0175453 -0.00216881 0)
(0.0181359 -0.00236406 0)
(0.0187818 -0.00261751 0)
(0.0193546 -0.0029423 0)
(0.0201583 -0.00334092 0)
(0.0207742 -0.00379477 0)
(0.0216375 -0.00431492 0)
(0.0226144 -0.00488099 0)
(0.023466 -0.00544391 0)
(0.0250176 -0.00614033 0)
(0.0259799 -0.00668103 0)
(0.0279745 -0.00746661 0)
(0.0294603 -0.00807314 0)
(0.0316018 -0.00883411 0)
(0.0339212 -0.00961126 0)
(0.0364509 -0.010433 0)
(0.0392739 -0.0113003 0)
(0.0421117 -0.0120944 0)
(0.0457305 -0.0130482 0)
(0.0481058 -0.0139809 0)
(0.0526451 -0.0149268 0)
(0.0572958 -0.0159147 0)
(0.0618436 -0.0169203 0)
(0.0666453 -0.0179446 0)
(0.0716002 -0.0189983 0)
(0.0767089 -0.0200763 0)
(0.0820057 -0.0212024 0)
(0.0874792 -0.0223251 0)
(0.0931322 -0.0234946 0)
(0.0991567 -0.0249847 0)
(0.105665 -0.026676 0)
(0.11254 -0.0282955 0)
(0.119586 -0.029988 0)
(0.126942 -0.0318524 0)
(0.134813 -0.0338612 0)
(0.143232 -0.0358963 0)
(0.152221 -0.0382814 0)
(0.161685 -0.0406943 0)
(0.171976 -0.0432426 0)
(0.182647 -0.0463217 0)
(0.19364 -0.049295 0)
(0.205392 -0.0529654 0)
(0.218302 -0.0570724 0)
(0.23226 -0.0612794 0)
(0.247153 -0.0656087 0)
(0.263022 -0.0701727 0)
(0.279972 -0.0749843 0)
(0.298034 -0.07998 0)
(0.31737 -0.0851189 0)
(0.337716 -0.090423 0)
(0.359737 -0.0959459 0)
(0.382442 -0.101724 0)
(0.406735 -0.107769 0)
(0.434157 -0.114034 0)
(0.456464 -0.120524 0)
(0.495554 -0.127222 0)
(0.525608 -0.133997 0)
(0.55664 -0.140627 0)
(0.589496 -0.147022 0)
(0.623426 -0.153144 0)
(0.658356 -0.158907 0)
(0.694469 -0.164159 0)
(0.731994 -0.168582 0)
(0.770844 -0.172699 0)
(0.810475 -0.176802 0)
(0.850128 -0.180879 0)
(0.889512 -0.183661 0)
(0.929216 -0.183919 0)
(0.969277 -0.182812 0)
(1.00872 -0.181069 0)
(1.0468 -0.178783 0)
(1.08319 -0.176147 0)
(1.11758 -0.173619 0)
(1.14967 -0.171781 0)
(1.17933 -0.171473 0)
(1.97145e-05 -0.000292288 0)
(0.000103861 -0.000951605 0)
(0.000297925 -0.00159134 0)
(0.000607966 -0.00218949 0)
(0.0010286 -0.00274083 0)
(0.00153837 -0.00325346 0)
(0.00214162 -0.00370426 0)
(0.00282287 -0.00408523 0)
(0.00357133 -0.00438595 0)
(0.00437905 -0.00459851 0)
(0.00524034 -0.00473409 0)
(0.00612521 -0.00479787 0)
(0.00701817 -0.00478698 0)
(0.00792194 -0.00470145 0)
(0.00881979 -0.00455359 0)
(0.00972571 -0.00434703 0)
(0.0105947 -0.0041073 0)
(0.0114608 -0.0038396 0)
(0.0122607 -0.00356667 0)
(0.0130669 -0.00329783 0)
(0.0138045 -0.00306184 0)
(0.0145208 -0.0028721 0)
(0.0152017 -0.0027398 0)
(0.0158556 -0.00267438 0)
(0.0164916 -0.00270102 0)
(0.0171106 -0.00281559 0)
(0.0177163 -0.00300636 0)
(0.0183314 -0.00327974 0)
(0.01897 -0.00365474 0)
(0.0196546 -0.00411627 0)
(0.0203966 -0.00465217 0)
(0.0212552 -0.00527375 0)
(0.0221241 -0.00592876 0)
(0.0232739 -0.00667896 0)
(0.0244423 -0.0074505 0)
(0.0258626 -0.00829667 0)
(0.0274709 -0.00920278 0)
(0.0292227 -0.0101001 0)
(0.03129 -0.0110731 0)
(0.0335948 -0.0121096 0)
(0.0360474 -0.0131147 0)
(0.0388334 -0.0141597 0)
(0.0418813 -0.0152515 0)
(0.0451147 -0.01627 0)
(0.0488538 -0.0175419 0)
(0.052369 -0.018795 0)
(0.0566016 -0.0204026 0)
(0.0603615 -0.0213509 0)
(0.0653307 -0.0229191 0)
(0.0697422 -0.0238115 0)
(0.0752121 -0.0254098 0)
(0.0803357 -0.0265395 0)
(0.086183 -0.0280363 0)
(0.0924781 -0.0295819 0)
(0.0995832 -0.0312441 0)
(0.104325 -0.033047 0)
(0.111507 -0.034999 0)
(0.118367 -0.0371331 0)
(0.126616 -0.0394376 0)
(0.133691 -0.0419138 0)
(0.142639 -0.0445958 0)
(0.152118 -0.0475096 0)
(0.159868 -0.0506872 0)
(0.173302 -0.0540025 0)
(0.179822 -0.0578263 0)
(0.196629 -0.0619783 0)
(0.20894 -0.0663986 0)
(0.221699 -0.0710931 0)
(0.235548 -0.0760405 0)
(0.250238 -0.0812196 0)
(0.26569 -0.086639 0)
(0.281973 -0.0923208 0)
(0.299212 -0.0982934 0)
(0.317562 -0.10456 0)
(0.337176 -0.111151 0)
(0.358178 -0.118042 0)
(0.380666 -0.125215 0)
(0.404607 -0.132818 0)
(0.430136 -0.140459 0)
(0.456964 -0.149121 0)
(0.484541 -0.158311 0)
(0.513597 -0.166128 0)
(0.544989 -0.173351 0)
(0.578325 -0.180696 0)
(0.613093 -0.188069 0)
(0.64924 -0.195172 0)
(0.686849 -0.201802 0)
(0.725908 -0.207819 0)
(0.766274 -0.213248 0)
(0.807628 -0.21796 0)
(0.849528 -0.22162 0)
(0.891545 -0.223698 0)
(0.933426 -0.223967 0)
(0.974937 -0.222802 0)
(1.01557 -0.220365 0)
(1.05464 -0.21665 0)
(1.09153 -0.211913 0)
(1.12563 -0.20674 0)
(1.15645 -0.201967 0)
(1.18377 -0.198682 0)
(1.89697e-05 -0.000342037 0)
(0.000100998 -0.00109916 0)
(0.000292626 -0.0018445 0)
(0.000596845 -0.00254847 0)
(0.00100515 -0.00320398 0)
(0.0015047 -0.00380652 0)
(0.00209513 -0.00434008 0)
(0.0027596 -0.00479667 0)
(0.00349915 -0.00515929 0)
(0.0042855 -0.0054325 0)
(0.00512594 -0.00560916 0)
(0.00599023 -0.0056982 0)
(0.00687396 -0.00569528 0)
(0.0077664 -0.00560629 0)
(0.00864803 -0.00544507 0)
(0.00953264 -0.00522023 0)
(0.0103719 -0.00495829 0)
(0.0112117 -0.00466246 0)
(0.0119841 -0.00436258 0)
(0.0127563 -0.00406301 0)
(0.0134621 -0.00379504 0)
(0.0141478 -0.00356771 0)
(0.0148014 -0.00339879 0)
(0.0154257 -0.00330271 0)
(0.0160312 -0.00329378 0)
(0.0166234 -0.00338467 0)
(0.0172083 -0.0035792 0)
(0.0178033 -0.00387783 0)
(0.0184315 -0.00428489 0)
(0.0191042 -0.00479462 0)
(0.0198584 -0.00540667 0)
(0.0206572 -0.00610569 0)
(0.0216086 -0.00689629 0)
(0.0226847 -0.00777794 0)
(0.0238804 -0.00872885 0)
(0.0252853 -0.00975783 0)
(0.026857 -0.0108478 0)
(0.0286289 -0.0119794 0)
(0.0306401 -0.0131807 0)
(0.0328836 -0.0144334 0)
(0.0352884 -0.0156945 0)
(0.0380568 -0.0170498 0)
(0.0409427 -0.0183733 0)
(0.0442193 -0.0197985 0)
(0.0476418 -0.0212311 0)
(0.0513648 -0.0227892 0)
(0.0552684 -0.0243152 0)
(0.0593391 -0.025762 0)
(0.0638023 -0.0273207 0)
(0.0684002 -0.0288205 0)
(0.0734215 -0.0305045 0)
(0.0786069 -0.0321549 0)
(0.0841423 -0.0340003 0)
(0.0899091 -0.0359662 0)
(0.0960661 -0.03783 0)
(0.102678 -0.0397305 0)
(0.109702 -0.041989 0)
(0.11695 -0.0445789 0)
(0.124514 -0.0473235 0)
(0.132522 -0.0502201 0)
(0.141018 -0.0534724 0)
(0.150062 -0.0568273 0)
(0.159639 -0.0606524 0)
(0.169733 -0.064927 0)
(0.180326 -0.0695208 0)
(0.19143 -0.0745757 0)
(0.20316 -0.0794426 0)
(0.215856 -0.0844941 0)
(0.229504 -0.0900197 0)