/*--------------------------------*- C++ -*----------------------------------*\
| =========                 |                                                 |
| \\      /  F ield         | OpenFOAM: The Open Source CFD Toolbox           |
|  \\    /   O peration     | Version:  2206                                  |
|   \\  /    A nd           | Website:  www.openfoam.com                      |
|    \\/     M anipulation  |                                                 |
\*---------------------------------------------------------------------------*/
FoamFile
{
    version     2.0;
    format      ascii;
    arch        "LSB;label=32;scalar=64";
    class       volVectorField;
    location    "19.1001";
    object      ddtCorrDdt0(U);
}
// * * * * * * * * * * * * * * * * * * * * * * * * * * * * * * * * * * * * * //

dimensions      [0 1 -2 0 0 0 0];

internalField   nonuniform List<vector> 
1826
(
(35.0146 -23.9033 0)
(39.4405 -2.49858 0)
(47.9461 35.6244 0)
(36.0132 72.1329 0)
(5.25171 106.035 0)
(-44.8446 151.162 0)
(-100.372 170.809 0)
(-159.084 178.002 0)
(-218.901 163.015 0)
(-271.037 122.466 0)
(-314.457 59.3509 0)
(-340.55 -14.8024 0)
(-344.26 -87.8885 0)
(-333.371 -165.88 0)
(-327.929 -261.216 0)
(-306.672 -335.141 0)
(-230.987 -324.919 0)
(-139.471 -270.574 0)
(-48.7227 -208.701 0)
(25.1908 -156.716 0)
(77.6449 -115.92 0)
(134.201 -69.4446 0)
(176.275 -21.2586 0)
(208.312 18.6875 0)
(230.947 50.7016 0)
(245.437 76.2922 0)
(249.487 92.8758 0)
(238.067 104.321 0)
(221.718 112.564 0)
(226.275 96.965 0)
(268.941 34.1364 0)
(336.705 -48.6934 0)
(372.728 -90.1834 0)
(344.626 -61.3516 0)
(278.893 9.49382 0)
(189.852 97.0903 0)
(95.4229 171.11 0)
(22.9745 225.568 0)
(-67.162 256.753 0)
(-109.407 258.305 0)
(-135.855 233.861 0)
(-151.032 201.843 0)
(-155.123 167.313 0)
(-152.153 132.522 0)
(-146.299 99.8638 0)
(-141.541 69.4759 0)
(-142.818 39.6892 0)
(-150.384 7.32034 0)
(-165.587 -29.7099 0)
(-186.736 -75.4799 0)
(-211.054 -130.857 0)
(-238.075 -194.688 0)
(-264.753 -260.898 0)
(-275.507 -308.502 0)
(-250.273 -308.796 0)
(-200.883 -272.878 0)
(-136.641 -214.076 0)
(-71.942 -156.202 0)
(-13.3095 -113.522 0)
(43.4979 -64.2055 0)
(105.42 0.681936 0)
(156.694 54.5833 0)
(196.104 92.1993 0)
(218.813 108.062 0)
(223.352 97.6364 0)
(220.322 68.9164 0)
(211.043 29.9562 0)
(196.272 -8.43881 0)
(177.768 -35.2034 0)
(157.904 -44.6356 0)
(138.045 -37.1528 0)
(118.911 -15.9865 0)
(100.678 17.428 0)
(78.1412 58.059 0)
(55.3947 96.676 0)
(32.4471 127.547 0)
(8.40781 147.627 0)
(-15.3866 155.716 0)
(-36.909 151.484 0)
(-55.3865 138.948 0)
(-70.2814 119.831 0)
(-81.6075 96.2907 0)
(-89.8804 70.2546 0)
(-96.0978 43.2751 0)
(-100.295 16.6985 0)
(-102.311 -8.32308 0)
(-103.321 -31.2007 0)
(-103.974 -51.8415 0)
(-105.568 -70.9423 0)
(-108.928 -89.608 0)
(-113.296 -108.144 0)
(-115.535 -124.105 0)
(-109.467 -130.454 0)
(-96.1349 -127.075 0)
(-8.97543 -44.0226 0)
(-20.3692 17.2956 0)
(-35.1253 61.2221 0)
(-52.6113 107.466 0)
(-75.6018 154.292 0)
(-111.449 193.324 0)
(-145.713 216.224 0)
(-189.467 229.056 0)
(-248.665 214.294 0)
(-310.731 168.299 0)
(-367.903 93.1134 0)
(-410.928 -3.02552 0)
(-427.049 -103.772 0)
(-408.468 -195.06 0)
(-369.899 -279.731 0)
(-333.86 -361.903 0)
(-277.932 -392.134 0)
(-202.148 -358.347 0)
(-119.619 -297.118 0)
(-40.4486 -232.83 0)
(26.9498 -173.254 0)
(75.2538 -116.799 0)
(122.463 -64.6128 0)
(162.297 -14.4937 0)
(198.099 28.2987 0)
(223.66 61.911 0)
(231.234 92.7363 0)
(228.088 115.167 0)
(238.593 106.612 0)
(286.573 47.5177 0)
(354.874 -37.8785 0)
(383.403 -80.6039 0)
(351.435 -56.3843 0)
(288.746 10.026 0)
(210.275 101.946 0)
(111.629 188.542 0)
(31.1278 258.35 0)
(-55.7499 301.136 0)
(-104.229 309.335 0)
(-132.704 285.809 0)
(-148.151 248.809 0)
(-151.455 205.897 0)
(-144.913 162.524 0)
(-131.688 122.701 0)
(-115.336 88.5746 0)
(-99.3275 61.6127 0)
(-88.7529 40.6067 0)
(-88.0154 17.2191 0)
(-97.6005 -13.6688 0)
(-118.02 -53.5674 0)
(-142.794 -105.057 0)
(-169.96 -167.414 0)
(-197.652 -235.737 0)
(-221.459 -299.161 0)
(-225.556 -331.93 0)
(-201.659 -320.005 0)
(-157.918 -278.442 0)
(-102.967 -224.076 0)
(-49.219 -168.568 0)
(0.322524 -115.159 0)
(55.6186 -55.373 0)
(104.07 7.62244 0)
(146.425 55.6937 0)
(177.81 85.4175 0)
(196.684 90.329 0)
(202.055 71.3228 0)
(199.57 39.9283 0)
(189.049 7.43323 0)
(172.523 -15.8043 0)
(153.054 -23.9209 0)
(132.864 -16.5657 0)
(113.289 4.71949 0)
(92.598 39.9134 0)
(68.6513 80.8136 0)
(46.3276 120.109 0)
(23.5109 151.627 0)
(0.363229 171.909 0)
(-21.3871 178.263 0)
(-40.0395 171.074 0)
(-55.1843 154.691 0)
(-65.9828 131.342 0)
(-72.3682 103.962 0)
(-75.4287 75.2223 0)
(-77.1928 46.6379 0)
(-78.8309 18.7149 0)
(-78.3796 -7.83235 0)
(-77.1668 -31.445 0)
(-76.2541 -51.8479 0)
(-76.6329 -69.8043 0)
(-78.7697 -86.8134 0)
(-82.6413 -104.161 0)
(-87.3046 -121.454 0)
(-89.6279 -135.76 0)
(-83.8896 -140.105 0)
(-14.1804 -13.8606 0)
(-26.7465 20.5491 0)
(-33.369 62.8785 0)
(-46.0904 114.056 0)
(-63.5922 165.932 0)
(-92.5935 217.314 0)
(-118.9 263.051 0)
(-152.183 276.432 0)
(-192.031 263.458 0)
(-232.62 221.037 0)
(-279.665 147.383 0)
(-335.356 38.3448 0)
(-385.667 -88.5636 0)
(-411.695 -216.645 0)
(-405.425 -330.894 0)
(-376.407 -418.403 0)
(-324.52 -454.179 0)
(-255.173 -432.553 0)
(-181.992 -377.356 0)
(-107.03 -308.026 0)
(-38.5309 -235.358 0)
(18.4801 -164.483 0)
(66.4727 -107.002 0)
(101.855 -59.9054 0)
(146.948 -16.2875 0)
(180.076 47.9445 0)
(195.633 88.1184 0)
(215.429 98.7418 0)
(264.512 56.2537 0)
(331.318 -19.7397 0)
(364.62 -65.6021 0)
(344.643 -54.378 0)
(294.904 3.91516 0)
(225.361 92.2332 0)
(128.928 189.517 0)
(35.2831 278.801 0)
(-42.5283 337.681 0)
(-97.4986 358.192 0)
(-130.089 340.73 0)
(-147.726 302.821 0)
(-151.53 252.824 0)
(-143.247 198.619 0)
(-125.842 146.965 0)
(-102.64 102.405 0)
(-76.6679 67.5106 0)
(-51.9263 40.4046 0)
(-32.8817 26.1931 0)
(-23.5695 16.3658 0)
(-24.5122 5.38019 0)
(-42.6524 -30.5397 0)
(-69.7547 -77.493 0)
(-100.977 -138.399 0)
(-132.26 -208.903 0)
(-160.657 -278.522 0)
(-180.504 -331.483 0)
(-177.188 -341.746 0)
(-153.899 -318.035 0)
(-116.174 -273.308 0)
(-72.024 -218.826 0)
(-30.4922 -160.608 0)
(7.12938 -103.088 0)
(53.6079 -42.2965 0)
(94.0396 18.1152 0)
(129.816 56.4222 0)
(155.54 72.7687 0)
(169.059 66.0659 0)
(171.873 44.0666 0)
(166.063 19.3561 0)
(152.858 1.42974 0)
(135.466 -4.57386 0)
(116.822 3.06921 0)
(98.2942 26.5179 0)
(75.2292 62.3302 0)
(53.0179 103.717 0)
(31.3745 142.93 0)
(9.83743 174.367 0)
(-10.8744 194.002 0)
(-28.6052 197.111 0)
(-42.4721 186.44 0)
(-52.4461 165.692 0)
(-58.3235 137.858 0)
(-60.0637 106.541 0)
(-58.0612 75.3352 0)
(-54.3292 46.5206 0)
(-52.708 18.3486 0)
(-49.6155 -10.2365 0)
(-46.2433 -33.6071 0)
(-44.5325 -52.3611 0)
(-45.3146 -68.5506 0)
(-48.2197 -83.6445 0)
(-52.836 -99.4403 0)
(-58.739 -116.537 0)
(-64.5875 -133.538 0)
(-67.1391 -145.975 0)
(-8.58095 2.4576 0)
(-13.1866 30.8606 0)
(-14.5656 73.293 0)
(-20.245 128.582 0)
(-27.8619 187.164 0)
(-36.7161 242.847 0)
(-51.3514 289.737 0)
(-62.8033 305.933 0)
(-75.0488 293.389 0)
(-89.8403 249.29 0)
(-116.062 179.352 0)
(-149.372 84.9587 0)
(-202.005 -42.3802 0)
(-267.103 -195.071 0)
(-320.211 -330.36 0)
(-335.619 -441.973 0)
(-324.365 -502.347 0)
(-280.631 -494.05 0)
(-224.156 -446.287 0)
(-162.402 -377.493 0)
(-100.137 -300.358 0)
(-41.7105 -223.271 0)
(8.98324 -150.477 0)
(50.8157 -92.8587 0)
(86.2782 -54.1725 0)
(115.033 13.5444 0)
(156.669 57.5293 0)
(212.761 43.3568 0)
(278.541 -10.3327 0)
(319.407 -54.3429 0)
(312.686 -55.0858 0)
(278.688 -9.02336 0)
(222.818 71.0784 0)
(134.239 176.328 0)
(44.2069 284.627 0)
(-33.6798 361.678 0)
(-93.6533 398.604 0)
(-131.3 394.648 0)
(-150.192 360.866 0)
(-154.182 307.805 0)
(-144.388 244.179 0)
(-123.479 178.971 0)
(-94.7898 120.43 0)
(-62.6084 72.1586 0)
(-30.1835 35.7681 0)
(1.32315 16.7797 0)
(24.9232 10.0519 0)
(43.2106 9.57926 0)
(45.0171 7.31693 0)
(32.1851 -7.12384 0)
(5.59532 -45.6636 0)
(-29.3625 -104.271 0)
(-65.2733 -176.25 0)
(-98.7829 -250.902 0)
(-126.725 -313.821 0)
(-140.958 -346.66 0)
(-135.144 -338.746 0)
(-115.883 -306.239 0)
(-87.3631 -257.538 0)
(-55.2572 -199.383 0)
(-24.1396 -138.001 0)
(4.66035 -79.3709 0)
(41.0497 -24.7625 0)
(76.436 24.4315 0)
(107.9 49.5818 0)
(127.183 54.0786 0)
(133.138 42.9162 0)
(131.271 27.1274 0)
(121.987 15.1729 0)
(107.936 12.05 0)
(91.8763 22.2128 0)
(71.8637 47.8149 0)
(50.0757 84.2903 0)
(29.4354 125.346 0)
(9.33482 163.988 0)
(-9.72028 194.559 0)
(-25.9761 211.929 0)
(-36.9673 210.172 0)
(-43.8749 195.847 0)
(-47.0064 171.064 0)
(-46.731 139.198 0)
(-43.3711 104.029 0)
(-37.1007 69.452 0)
(-28.5915 39.5848 0)
(-23.165 14.5741 0)
(-16.2712 -13.418 0)
(-10.7586 -37.5475 0)
(-8.96228 -53.024 0)
(-12.6133 -65.2082 0)
(-18.4881 -78.5797 0)
(-25.0463 -93.4319 0)
(-32.0306 -109.892 0)
(-39.1964 -127.076 0)
(-45.5334 -142.48 0)
(14.3906 126.794 0)
(18.9004 184.73 0)
(17.076 244.709 0)
(6.86972 292.698 0)
(-3.80034 313.69 0)
(-0.693748 298.948 0)
(17.9523 263.709 0)
(39.0854 201.065 0)
(46.4568 110.655 0)
(33.4874 10.9284 0)
(-14.482 -137.107 0)
(-125.571 -279.718 0)
(-202.355 -416.535 0)
(-249.509 -503.342 0)
(-252.481 -525.936 0)
(-226.454 -491.81 0)
(-189.319 -431.034 0)
(-145.748 -356.024 0)
(-98.5686 -276.395 0)
(-51.781 -202.153 0)
(-8.04543 -136.746 0)
(29.625 -76.6621 0)
(72.2991 -35.1573 0)
(128.248 -6.92864 0)
(200.571 -26.0035 0)
(243.555 -52.1121 0)
(251.745 -57.4751 0)
(233.78 -24.0846 0)
(194.013 40.8365 0)
(118.623 145.439 0)
(35.0921 266.026 0)
(-42.2371 363.652 0)
(-103.776 423.055 0)
(-143.661 439.709 0)
(-160.524 415.751 0)
(-161.719 365.628 0)
(-148.687 297.548 0)
(-123.82 221.796 0)
(-91.0659 148.378 0)
(-55.6733 82.6985 0)
(-18.9889 34.9872 0)
(15.5646 5.66404 0)
(59.8091 -18.7958 0)
(92.6329 -14.3391 0)
(110.08 -0.983946 0)
(111.81 11.2268 0)
(101.934 10.7138 0)
(78.8449 -13.527 0)
(41.904 -66.6503 0)
(1.81378 -138.73 0)
(-36.79 -217.327 0)
(-71.3258 -287.291 0)
(-97.6925 -333.902 0)
(-108.6 -342.66 0)
(-105.683 -321.383 0)
(-93.373 -279.996 0)
(-74.5161 -225.669 0)
(-52.2336 -165.479 0)
(-28.4191 -106.233 0)
(-6.49657 -53.9186 0)
(23.8231 -15.873 0)
(55.0536 23.7854 0)
(79.0463 40.4081 0)
(88.8611 38.8858 0)
(88.7165 30.899 0)
(83.2847 24.9066 0)
(73.1867 26.6958 0)
(57.3989 41.0631 0)
(37.7815 68.1651 0)
(18.0094 105.033 0)
(-1.14176 145.147 0)
(-18.958 182.37 0)
(-34.0977 210.287 0)
(-43.6873 222.241 0)
(-46.3251 215.742 0)
(-44.4837 197.201 0)
(-38.9123 168.922 0)
(-30.8751 134.411 0)
(-21.5428 96.9864 0)
(-11.321 60.5538 0)
(-1.69304 29.2672 0)
(11.5655 9.26206 0)
(22.2862 -25.3478 0)
(25.7355 -39.4669 0)
(22.8072 -49.7938 0)
(18.4221 -60.261 0)
(11.329 -71.6466 0)
(3.24637 -85.679 0)
(-6.25295 -101.992 0)
(-15.3182 -119.551 0)
(-0.30258 -0.10421 0)
(-0.152962 -0.0651366 0)
(-0.0429942 -0.0299696 0)
(0.0319202 -0.00326423 0)
(0.0911905 0.014422 0)
(0.121615 0.0219416 0)
(0.159546 0.0186489 0)
(0.20268 0.00957535 0)
(0.252412 -0.00133191 0)
(0.314876 -0.0109661 0)
(0.387411 -0.0156454 0)
(0.461902 -0.0123017 0)
(0.525983 0.00050209 0)
(0.568711 0.0223324 0)
(0.577321 0.0507673 0)
(0.542949 0.0814378 0)
(0.461526 0.109173 0)
(0.332826 0.128804 0)
(0.16628 0.136564 0)
(-0.0307449 0.12694 0)
(-0.231054 0.0997286 0)
(-0.422217 0.0553682 0)
(-0.587697 -0.00795269 0)
(-0.683453 -0.0778048 0)
(-0.739022 -0.132894 0)
(-0.746592 -0.168733 0)
(-0.703408 -0.185558 0)
(-0.628331 -0.181356 0)
(-0.546923 -0.150462 0)
(-0.483775 -0.0948238 0)
(-0.475299 -0.00990913 0)
(-0.562817 0.102988 0)
(-0.787447 0.237197 0)
(-1.18505 0.383288 0)
(-1.80218 0.519688 0)
(-2.59843 0.631653 0)
(-3.61009 0.726936 0)
(-4.86412 0.819067 0)
(-6.34737 0.89397 0)
(-8.06417 0.984876 0)
(-10.0143 1.08784 0)
(-12.1807 1.1859 0)
(-0.471783 -0.242954 0)
(-0.447531 -0.195621 0)
(-0.447595 -0.154419 0)
(-0.462915 -0.12338 0)
(-0.482182 -0.101669 0)
(-0.494813 -0.0906899 0)
(-0.490239 -0.0929467 0)
(-0.464762 -0.105841 0)
(-0.418704 -0.122874 0)
(-0.352753 -0.137147 0)
(-0.269694 -0.14313 0)
(-0.175789 -0.136578 0)
(-0.0793372 -0.11461 0)
(0.0113519 -0.0764561 0)
(0.088502 -0.0235535 0)
(0.145462 0.0397267 0)
(0.177491 0.107602 0)
(0.182494 0.17282 0)
(0.158793 0.230341 0)
(0.108399 0.26983 0)
(0.0348791 0.288208 0)
(-0.0584677 0.286297 0)
(-0.169603 0.260556 0)
(-0.284635 0.213836 0)
(-0.405422 0.15582 0)
(-0.532137 0.0960354 0)
(-0.664842 0.0437354 0)
(-0.803543 0.00960312 0)
(-0.956761 0.00435763 0)
(-1.12831 0.0377496 0)
(-1.32916 0.117357 0)
(-1.57658 0.249243 0)
(-1.88893 0.437169 0)
(-2.2917 0.68162 0)
(-2.8051 0.977047 0)
(-3.50491 1.31607 0)
(-4.42211 1.69425 0)
(-5.62703 2.10955 0)
(-7.1373 2.55207 0)
(-8.9856 2.98925 0)
(-11.1845 3.38259 0)
(-13.7449 3.69071 0)
(-0.292551 -0.184194 0)
(-0.345396 -0.0960186 0)
(-0.419583 -0.0275318 0)
(-0.501422 0.0128962 0)
(-0.579376 0.0272501 0)
(-0.644651 0.0146425 0)
(-0.687851 -0.025727 0)
(-0.701573 -0.0582435 0)
(-0.681971 -0.103793 0)
(-0.630336 -0.150014 0)
(-0.551248 -0.184642 0)
(-0.450609 -0.1985 0)
(-0.335367 -0.188289 0)
(-0.213036 -0.153812 0)
(-0.0916771 -0.0967113 0)
(0.0213212 -0.023054 0)
(0.120039 0.0582243 0)
(0.201234 0.139914 0)
(0.257842 0.212187 0)
(0.288122 0.26748 0)
(0.295491 0.296653 0)
(0.274816 0.299626 0)
(0.225053 0.268507 0)
(0.150218 0.21797 0)
(0.0515682 0.192612 0)
(-0.067549 0.15853 0)
(-0.205536 0.140568 0)
(-0.361639 0.133693 0)
(-0.538237 0.179183 0)
(-0.735646 0.230732 0)
(-0.959099 0.376651 0)
(-1.21419 0.578774 0)
(-1.51077 0.848228 0)
(-1.86436 1.18983 0)
(-2.29613 1.60768 0)
(-2.83542 2.10274 0)
(-3.51301 2.67414 0)
(-4.4043 3.38883 0)
(-5.50651 4.01421 0)
(-6.90523 4.7557 0)
(-8.63729 5.59189 0)
(-10.7357 6.29314 0)
(-0.266836 -0.175197 0)
(-0.3464 -0.0659886 0)
(-0.42962 0.0102134 0)
(-0.560117 0.0485212 0)
(-0.673062 0.0520238 0)
(-0.768455 0.0221129 0)
(-0.832848 -0.0405533 0)
(-0.856974 -0.121332 0)
(-0.836983 -0.204675 0)
(-0.775902 -0.278859 0)
(-0.681238 -0.334741 0)
(-0.560679 -0.364018 0)
(-0.422797 -0.361586 0)
(-0.275903 -0.325979 0)
(-0.129787 -0.260121 0)
(0.00575873 -0.170847 0)
(0.127202 -0.0658074 0)
(0.229164 0.0362508 0)
(0.313518 0.161988 0)
(0.359744 0.222779 0)
(0.392595 0.296693 0)
(0.402677 0.354635 0)
(0.377565 0.35923 0)
(0.330187 0.356229 0)
(0.259614 0.338664 0)
(0.171949 0.31835 0)
(0.0689723 0.310256 0)
(-0.0502287 0.326749 0)
(-0.184381 0.378472 0)
(-0.334927 0.476525 0)
(-0.506287 0.631828 0)
(-0.698751 0.855362 0)
(-0.917905 1.15752 0)
(-1.17477 1.5481 0)
(-1.48464 2.03819 0)
(-1.86931 2.63728 0)
(-2.36692 3.36357 0)
(-3.00983 4.2259 0)
(-3.85077 5.21179 0)
(-5.0054 6.31858 0)
(-6.54624 7.49889 0)
(-8.53121 8.63438 0)
(0.166635 -0.054119 0)
(0.0604713 0.103917 0)
(-0.116785 0.213169 0)
(-0.322876 0.266785 0)
(-0.519117 0.259947 0)
(-0.689234 0.193923 0)
(-0.811696 0.0807408 0)
(-0.864906 -0.0480532 0)
(-0.851365 -0.191917 0)
(-0.780584 -0.311548 0)
(-0.666576 -0.406297 0)
(-0.521999 -0.461082 0)
(-0.359396 -0.476094 0)
(-0.201073 -0.451152 0)
(-0.0511668 -0.377802 0)
(0.0812024 -0.280947 0)
(0.190094 -0.17812 0)
(0.271205 -0.0565258 0)
(0.340447 0.0624238 0)
(0.376509 0.169262 0)
(0.388247 0.245739 0)
(0.375966 0.302962 0)
(0.339552 0.341607 0)
(0.304194 0.35055 0)
(0.228706 0.361722 0)
(0.141588 0.367594 0)
(0.0513007 0.380663 0)
(-0.0433798 0.413446 0)
(-0.141148 0.480161 0)
(-0.241057 0.592212 0)
(-0.344099 0.765267 0)
(-0.452104 1.01313 0)
(-0.570982 1.34878 0)
(-0.710139 1.78415 0)
(-0.885639 2.33843 0)
(-1.12417 3.03972 0)
(-1.48321 3.88652 0)
(-1.90308 4.91217 0)
(-2.5148 6.12344 0)
(-3.41204 7.55482 0)
(-4.75315 9.24643 0)
(-6.66835 11.0388 0)
(0.42871 -0.04002 0)
(0.269877 0.191231 0)
(0.0487593 0.344502 0)
(-0.196312 0.407534 0)
(-0.432187 0.392222 0)
(-0.635165 0.306533 0)
(-0.784745 0.106412 0)
(-0.844414 -0.103903 0)
(-0.83114 -0.303325 0)
(-0.758572 -0.472012 0)
(-0.633786 -0.601635 0)
(-0.47151 -0.672685 0)
(-0.287125 -0.683416 0)
(-0.099071 -0.635417 0)
(0.0774457 -0.537639 0)
(0.232812 -0.403412 0)
(0.355765 -0.246643 0)
(0.437967 -0.0842454 0)
(0.48275 0.0712982 0)
(0.494036 0.207582 0)
(0.474855 0.31751 0)
(0.431273 0.399937 0)
(0.370278 0.450981 0)
(0.296253 0.475228 0)
(0.217473 0.483904 0)
(0.142115 0.485584 0)
(0.0731563 0.490676 0)
(0.0119308 0.512729 0)
(-0.0393968 0.566915 0)
(-0.0790394 0.668162 0)
(-0.107109 0.83257 0)
(-0.125589 1.07618 0)
(-0.139684 1.41566 0)
(-0.148605 1.869 0)
(-0.204683 2.45912 0)
(-0.238566 3.20744 0)
(-0.338061 4.15591 0)
(-0.539096 5.32907 0)
(-0.902854 6.77171 0)
(-1.60558 8.53096 0)
(-2.58924 10.639 0)
(-3.42536 13.1745 0)
(1.10377 0.202844 0)
(0.863868 0.552468 0)
(0.574855 0.75613 0)
(0.272999 0.817848 0)
(-0.029619 0.758634 0)
(-0.32005 0.583394 0)
(-0.539258 0.331118 0)
(-0.639685 0.0349912 0)
(-0.664139 -0.250213 0)
(-0.625041 -0.507569 0)
(-0.528272 -0.710942 0)
(-0.387519 -0.841758 0)
(-0.222934 -0.891462 0)
(-0.054258 -0.862003 0)
(0.102269 -0.763395 0)
(0.236171 -0.611566 0)
(0.339126 -0.42722 0)
(0.403556 -0.229458 0)
(0.429105 -0.034548 0)
(0.421404 0.141793 0)
(0.38632 0.288345 0)
(0.330337 0.39988 0)
(0.262244 0.474374 0)
(0.189782 0.515036 0)
(0.120574 0.531388 0)
(0.0622595 0.533933 0)
(0.0207308 0.534667 0)
(9.84907e-05 0.547877 0)
(0.00402547 0.589217 0)
(0.0360166 0.674948 0)
(0.0988216 0.821703 0)
(0.194777 1.04701 0)
(0.324939 1.36976 0)
(0.494749 1.81379 0)
(0.690309 2.40179 0)
(0.911269 3.16535 0)
(1.14267 4.15309 0)
(1.35618 5.42929 0)
(1.49854 7.08096 0)
(1.42642 9.17793 0)
(0.891347 11.8051 0)
(-0.396696 15.3171 0)
(2.48977 0.248166 0)
(2.21955 0.577482 0)
(1.89078 0.838279 0)
(1.53577 0.976423 0)
(1.17842 0.996525 0)
(0.832728 0.849982 0)
(0.52114 0.39423 0)
(0.228142 0.0458944 0)
(0.00699834 -0.280483 0)
(-0.168228 -0.569264 0)
(-0.287877 -0.789919 0)
(-0.356884 -0.922764 0)
(-0.390462 -0.959332 0)
(-0.399715 -0.905965 0)
(-0.40071 -0.779015 0)
(-0.398554 -0.604377 0)
(-0.391184 -0.379875 0)
(-0.39221 -0.146421 0)
(-0.391957 0.0720376 0)
(-0.391527 0.262317 0)
(-0.391142 0.414376 0)
(-0.378927 0.520571 0)
(-0.363119 0.58347 0)
(-0.337629 0.605754 0)
(-0.29862 0.595147 0)
(-0.242373 0.564691 0)
(-0.166219 0.529625 0)
(-0.0676989 0.504533 0)
(0.0575496 0.50473 0)
(0.215816 0.546376 0)
(0.414632 0.645796 0)
(0.663518 0.819477 0)
(0.974839 1.085 0)
(1.36471 1.46378 0)
(1.8531 1.98071 0)
(2.4597 2.67017 0)
(3.20637 3.58555 0)
(4.11485 4.8052 0)
(5.18815 6.44985 0)
(6.41879 8.66545 0)
(7.63482 11.7423 0)
(8.64943 16.1066 0)
(-0.119737 0.702306 0)
(-0.0157076 1.24463 0)
(0.148571 1.55384 0)
(0.359118 1.64745 0)
(0.594392 1.56426 0)
(0.809275 1.34017 0)
(0.950528 1.01897 0)
(0.98449 0.618265 0)
(0.940233 0.181121 0)
(0.825996 -0.229955 0)
(0.652823 -0.57588 0)
(0.457044 -0.826949 0)
(0.248097 -0.960588 0)
(0.0293763 -0.976671 0)
(-0.184601 -0.890592 0)
(-0.380353 -0.729404 0)
(-0.538412 -0.523575 0)
(-0.641305 -0.298912 0)
(-0.689875 -0.0781433 0)
(-0.681289 0.120139 0)
(-0.613195 0.280988 0)
(-0.511252 0.398163 0)
(-0.366695 0.470214 0)
(-0.196936 0.49955 0)
(-0.0160457 0.491625 0)
(0.174797 0.458543 0)
(0.373068 0.414509 0)
(0.575628 0.371655 0)
(0.78735 0.343414 0)
(1.01883 0.34441 0)
(1.28418 0.388497 0)
(1.60282 0.488957 0)
(2.00102 0.65958 0)
(2.51287 0.916246 0)
(3.18203 1.2786 0)
(4.06292 1.77439 0)
(5.22553 2.44618 0)
(6.75927 3.36479 0)
(8.78708 4.64026 0)
(11.4676 6.43059 0)
(14.7929 9.20442 0)
(19.4918 13.5731 0)
(-2.36598 0.471981 0)
(-1.77923 0.476654 0)
(-0.919252 0.429405 0)
(0.0769082 0.343153 0)
(1.07875 0.224516 0)
(1.96949 0.0748027 0)
(2.65335 -0.0931967 0)
(3.06804 -0.233623 0)
(3.19978 -0.332917 0)
(3.05902 -0.392221 0)
(2.68173 -0.4196 0)
(2.09941 -0.401447 0)
(1.44789 -0.329328 0)
(0.775045 -0.223621 0)
(0.168734 -0.107932 0)
(-0.320565 0.00211399 0)
(-0.662428 0.09937 0)
(-0.8443 0.176569 0)
(-0.87216 0.227575 0)
(-0.76508 0.250875 0)
(-0.548295 0.250592 0)
(-0.257207 0.230095 0)
(0.0778933 0.193924 0)
(0.431289 0.149172 0)
(0.758756 0.100962 0)
(1.05657 0.0564567 0)
(1.32334 0.0208733 0)
(1.54124 -0.00296739 0)
(1.72573 -0.0096376 0)
(1.90054 0.00654445 0)
(2.09216 0.0492069 0)
(2.33666 0.12128 0)
(2.67974 0.22566 0)
(3.1753 0.366549 0)
(3.88737 0.549392 0)
(4.89458 0.795835 0)
(6.30837 1.11343 0)
(8.23884 1.54793 0)
(10.9972 2.17047 0)
(14.6782 3.02964 0)
(20.0361 4.71281 0)
(28.0182 6.99612 0)
(-14.5122 1.30068 0)
(-16.9474 1.51062 0)
(-19.4644 2.07029 0)
(-22.3107 3.29033 0)
(-26.3269 5.74162 0)
(-32.3598 8.09741 0)
(-40.1265 7.41341 0)
(-44.4373 2.14165 0)
(-44.0744 -4.66812 0)
(-40.2446 -10.6639 0)
(-32.4326 -18.0899 0)
(-17.6028 -20.4655 0)
(4.90429 -22.9501 0)
(40.6581 -25.4966 0)
(91.4944 -26.8144 0)
(156.244 -26.9619 0)
(208.8 -21.6716 0)
(205.539 13.1347 0)
(178.684 23.3369 0)
(138.322 30.563 0)
(82.2081 34.4847 0)
(24.4773 33.7678 0)
(-24.3861 29.1504 0)
(-64.3742 19.4714 0)
(-90.6384 9.80656 0)
(-103.521 1.90639 0)
(-104.033 -3.85074 0)
(-96.5093 -7.10524 0)
(-85.2752 -8.52969 0)
(-70.5349 -8.7604 0)
(-51.9797 -8.25145 0)
(-34.6408 -9.07543 0)
(-20.4067 -8.0629 0)
(-7.07897 -7.70119 0)
(3.53738 -5.60882 0)
(12.2901 -3.61942 0)
(17.6004 -1.73773 0)
(19.0853 0.495621 0)
(16.3438 2.34982 0)
(10.8828 3.64513 0)
(2.9821 4.56471 0)
(-6.52291 5.11176 0)
(-16.16 5.28027 0)
(-25.1334 4.78899 0)
(-33.3959 3.57382 0)
(-38.707 1.93343 0)
(-41.0592 -0.0405867 0)
(-39.3227 -2.42199 0)
(-32.6901 -4.83134 0)
(-21.0723 -7.10953 0)
(-5.23079 -8.90505 0)
(12.9165 -10.0253 0)
(30.7827 -9.25717 0)
(47.8162 -7.37689 0)
(60.0171 -4.12808 0)
(62.2548 0.794798 0)
(58.0196 4.38433 0)
(47.2522 7.29444 0)
(31.3107 9.12613 0)
(14.3292 9.68508 0)
(-1.35653 8.18915 0)
(-14.915 5.72074 0)
(-23.6953 2.9935 0)
(-26.9408 0.333438 0)
(-25.4441 -1.95224 0)
(-19.9387 -3.59132 0)
(-11.6373 -4.52537 0)
(-3.47365 -4.72338 0)
(4.2719 -4.03844 0)
(11.0448 -2.79136 0)
(15.1987 -1.42251 0)
(16.7033 -0.0378882 0)
(15.5779 1.15068 0)
(12.3777 2.01104 0)
(7.97634 2.34138 0)
(3.06082 2.81697 0)
(-2.24577 2.75334 0)
(-7.18191 2.16272 0)
(-11.1263 1.79537 0)
(-14.1792 1.30885 0)
(-16.3328 0.779644 0)
(-17.4021 0.236417 0)
(-17.3596 -0.282113 0)
(-16.4051 -0.743163 0)
(-14.5657 -1.11541 0)
(-12.1004 -1.34939 0)
(-9.28078 -1.44487 0)
(-6.4215 -1.41659 0)
(-3.72685 -1.27158 0)
(-1.3626 -1.04746 0)
(0.550326 -0.780924 0)
(2.05387 -0.55082 0)
(3.23737 -0.367262 0)
(4.0827 -0.324233 0)
(-16.5828 3.84528 0)
(-19.5155 3.78339 0)
(-22.2403 3.449 0)
(-24.2171 2.72332 0)
(-24.7117 1.8909 0)
(-21.8638 0.596425 0)
(-10.8722 -0.864389 0)
(5.67843 -1.79337 0)
(20.9582 -2.17334 0)
(37.2044 -1.42631 0)
(44.952 -3.27274 0)
(39.1036 -15.6641 0)
(38.7569 -36.9986 0)
(50.7338 -77.7964 0)
(89.3397 -93.5014 0)
(144.991 -63.6667 0)
(186.282 -30.1316 0)
(190.976 4.01579 0)
(158.321 44.2832 0)
(110.999 76.7777 0)
(47.9709 94.1207 0)
(-7.21661 92.8554 0)
(-48.0356 71.7972 0)
(-80.1431 47.7186 0)
(-96.3779 24.9371 0)
(-101.106 6.51987 0)
(-98.2004 -7.0253 0)
(-89.6949 -16.3098 0)
(-77.3412 -22.2554 0)
(-62.7445 -25.2115 0)
(-46.9186 -25.1544 0)
(-30.9625 -25.008 0)
(-16.6659 -21.9417 0)
(-2.66285 -19.5336 0)
(8.89161 -14.9137 0)
(16.4569 -9.46925 0)
(20.2966 -3.97335 0)
(20.5324 1.22387 0)
(17.1911 6.42842 0)
(10.7133 10.6648 0)
(1.92406 13.6496 0)
(-8.21961 15.0476 0)
(-18.0244 14.9184 0)
(-26.4653 13.2579 0)
(-33.857 10.0286 0)
(-38.9609 5.47467 0)
(-40.9354 -0.147649 0)
(-38.9615 -6.62008 0)
(-32.4401 -13.7065 0)
(-20.9265 -20.8343 0)
(-4.78089 -26.1275 0)
(14.938 -28.1601 0)
(35.0277 -26.11 0)
(51.9545 -19.6565 0)
(62.272 -11.4887 0)
(65.9089 -0.978546 0)
(60.7161 11.0533 0)
(47.6685 21.3016 0)
(29.1521 26.793 0)
(10.2435 27.4917 0)
(-5.24259 22.5782 0)
(-17.385 15.8643 0)
(-25.0595 8.44555 0)
(-28.0135 0.985599 0)
(-26.1086 -5.66083 0)
(-20.0787 -10.6262 0)
(-11.611 -13.2916 0)
(-2.92918 -14.0468 0)
(5.18179 -11.6348 0)
(11.7551 -8.14156 0)
(15.6786 -4.1624 0)
(16.7515 -0.0691131 0)
(15.0915 3.58021 0)
(11.2874 6.23532 0)
(7.05633 7.81046 0)
(2.55537 7.99345 0)
(-3.08419 7.44577 0)
(-7.66238 6.47555 0)
(-11.0374 5.2049 0)
(-14.0295 3.7653 0)
(-16.0384 2.22541 0)
(-17.0166 0.62841 0)
(-16.9638 -0.868262 0)
(-15.9348 -2.21068 0)
(-14.0465 -3.28055 0)
(-11.5179 -3.95705 0)
(-8.66046 -4.22555 0)
(-5.74565 -4.1339 0)
(-3.02747 -3.75557 0)
(-0.664805 -3.19404 0)
(1.24097 -2.52322 0)
(2.70392 -1.87295 0)
(3.77212 -1.4138 0)
(4.52099 -1.08641 0)
(-13.2195 6.76157 0)
(-16.013 6.86791 0)
(-18.8881 6.45533 0)
(-21.4537 5.28649 0)
(-23.1389 2.96381 0)
(-23.1832 -1.40533 0)
(-21.5323 -8.81102 0)
(-17.5753 -18.4703 0)
(-8.47984 -27.8779 0)
(8.44037 -34.8878 0)
(35.1642 -37.3148 0)
(76.3524 -35.1667 0)
(119.673 -35.0617 0)
(147.007 -54.3453 0)
(126.422 -85.936 0)
(106.048 -90.3617 0)
(106.481 -51.1072 0)
(102.033 5.57492 0)
(69.1678 80.2432 0)
(26.5401 136.937 0)
(-6.36204 156.491 0)
(-40.3673 142.76 0)
(-74.4769 101.149 0)
(-91.4923 59.0052 0)
(-98.1537 23.9462 0)
(-94.1775 -1.61077 0)
(-82.0234 -20.9004 0)
(-66.6802 -29.0477 0)
(-50.1534 -32.1614 0)
(-35.6963 -33.8748 0)
(-24.5802 -36.0625 0)
(-15.6626 -38.4822 0)
(-8.12255 -37.8841 0)
(1.477 -32.1856 0)
(9.92823 -23.84 0)
(15.0306 -13.6546 0)
(16.5038 -4.44722 0)
(15.36 4.25639 0)
(11.4955 12.5094 0)
(5.3472 18.7764 0)
(-2.0573 22.7475 0)
(-9.79994 24.2543 0)
(-17.4871 23.7341 0)
(-23.7508 20.5694 0)
(-29.1401 15.286 0)
(-32.9555 8.01027 0)
(-34.8068 -1.11802 0)
(-34.2935 -11.5824 0)
(-30.5609 -22.4903 0)
(-21.8615 -34.1748 0)
(-7.50122 -44.1747 0)
(10.7429 -48.1246 0)
(28.7423 -43.8913 0)
(44.2905 -32.9613 0)
(54.5839 -16.9783 0)
(57.3247 1.1171 0)
(52.5558 20.8852 0)
(41.2555 37.9394 0)
(26.2265 45.4023 0)
(9.45846 43.5599 0)
(-4.78122 35.4158 0)
(-15.1668 24.5704 0)
(-22.4554 12.7629 0)
(-26.1693 1.19142 0)
(-25.5342 -9.70224 0)
(-20.4358 -18.4117 0)
(-12.617 -22.8321 0)
(-3.27748 -22.9513 0)
(5.17835 -18.6772 0)
(11.2783 -12.5428 0)
(15.1703 -5.6141 0)
(16.5157 0.831844 0)
(15.4349 6.6364 0)
(12.4278 10.6477 0)
(7.96872 12.898 0)
(3.16136 12.8997 0)
(-1.37044 11.8601 0)
(-5.61625 10.4904 0)
(-9.26211 8.40416 0)
(-12.3702 6.07735 0)
(-14.7309 3.73896 0)
(-16.143 1.34885 0)
(-16.5818 -0.940576 0)
(-16.0336 -3.34899 0)
(-14.4726 -5.44896 0)
(-12.0997 -6.85766 0)
(-9.26402 -7.47422 0)
(-6.31177 -7.36036 0)
(-3.49137 -6.71249 0)
(-0.991984 -5.74769 0)
(1.08138 -4.57708 0)
(2.59347 -3.34182 0)
(3.64678 -2.25423 0)
(4.41712 -1.51957 0)
(-11.0858 9.55152 0)
(-14.2122 9.98617 0)
(-17.8703 9.71839 0)
(-22.0274 8.34674 0)
(-26.5089 5.24782 0)
(-30.9721 -0.235502 0)
(-35.009 -8.55034 0)
(-37.97 -19.4952 0)
(-38.5975 -32.1999 0)
(-35.5374 -45.9225 0)
(-27.7962 -59.3461 0)
(-14.8835 -75.2643 0)
(6.44119 -85.6423 0)
(38.1811 -80.1611 0)
(64.0723 -78.2545 0)
(59.7261 -66.6339 0)
(24.3684 -34.9934 0)
(1.60908 15.0201 0)
(-17.1306 87.1705 0)
(-30.4281 149.695 0)
(-24.9629 183.547 0)
(-28.5142 166.636 0)
(-44.6701 124.037 0)
(-53.6585 73.9715 0)
(-60.9038 25.0357 0)
(-64.8489 -7.36878 0)
(-63.9769 -32.2582 0)
(-62.0431 -51.1712 0)
(-52.2912 -60.1289 0)
(-34.9102 -60.1946 0)
(-14.4735 -52.7376 0)
(1.8277 -43.0211 0)
(10.9011 -37.0054 0)
(15.1167 -31.9994 0)
(14.1448 -24.7391 0)
(10.5845 -15.7008 0)
(6.63457 -5.59993 0)
(3.48394 4.86975 0)
(-0.719561 15.3095 0)
(-6.5703 23.7218 0)
(-11.4932 29.3714 0)
(-14.1998 31.7529 0)
(-17.1076 30.9751 0)
(-19.3666 26.4232 0)
(-18.9473 18.9986 0)
(-17.2625 9.80717 0)
(-16.2299 -1.23485 0)
(-15.2738 -12.0212 0)
(-14.9159 -28.9081 0)
(-14.787 -47.9696 0)
(-10.4661 -61.4133 0)
(2.01621 -63.6847 0)
(16.781 -57.8697 0)
(27.6172 -44.5099 0)
(34.3693 -24.4196 0)
(38.1278 -2.61371 0)
(36.9018 27.2681 0)
(32.1679 51.5888 0)
(22.2315 62.2927 0)
(8.97206 58.7825 0)
(-3.24262 48.205 0)
(-12.0428 34.5334 0)
(-19.666 19.6138 0)
(-24.496 1.99328 0)
(-26.3742 -13.3488 0)
(-23.5928 -25.0737 0)
(-15.4702 -30.1133 0)
(-5.80391 -30.1926 0)
(2.68675 -26.0758 0)
(8.41086 -19.0452 0)
(13.0131 -10.7799 0)
(15.4068 -0.944098 0)
(15.7282 7.95082 0)
(13.8769 14.2462 0)
(10.3338 17.4149 0)
(6.72946 18.3179 0)
(3.47773 17.4907 0)
(0.0774909 15.6812 0)
(-3.7554 12.9035 0)
(-7.60656 9.53886 0)
(-11.3139 5.95352 0)
(-14.6542 1.59752 0)
(-17.387 -2.197 0)
(-18.7911 -5.43636 0)
(-18.0085 -7.90667 0)
(-15.5727 -9.49596 0)
(-12.1306 -9.97401 0)
(-8.30887 -9.56087 0)
(-4.54552 -8.57815 0)
(-1.10475 -7.31483 0)
(1.6868 -5.59095 0)
(4.22209 -3.95196 0)
(5.47494 -3.06615 0)
(5.98621 -2.35828 0)
(-9.38296 12.7639 0)
(-13.116 14.1283 0)
(-18.1311 14.7488 0)
(-24.4348 14.0066 0)
(-31.608 11.2074 0)
(-39.0671 5.90595 0)
(-46.7257 -2.73799 0)
(-53.8511 -15.4287 0)
(-59.2034 -30.2688 0)
(-63.9803 -45.9886 0)
(-65.7722 -63.2141 0)
(-63.4934 -81.2924 0)
(-60.4232 -94.9387 0)
(-52.9032 -101.198 0)
(-36.2213 -104.074 0)
(-25.1569 -68.4489 0)
(-17.0929 -14.3873 0)
(-13.8734 24.0987 0)
(-2.91603 92.8053 0)
(17.1567 143.861 0)
(43.4203 169.945 0)
(69.5254 167.461 0)
(85.1404 136.205 0)
(79.5967 88.9735 0)
(63.2938 43.9842 0)
(44.7818 6.32598 0)
(26.8903 -22.0239 0)
(9.95179 -38.1983 0)
(-4.15638 -55.4265 0)
(-18.5592 -64.5172 0)
(-27.0552 -70.3313 0)
(-28.2595 -64.3706 0)
(-21.7057 -54.5521 0)
(-9.39629 -44.5166 0)
(-0.262791 -30.7283 0)
(3.71199 -8.45627 0)
(-2.73584 1.87401 0)
(-9.1865 10.4996 0)
(-18.9471 25.515 0)
(-29.8929 30.7187 0)
(-38.1333 32.2178 0)
(-41.0217 30.2708 0)
(-38.2669 24.9465 0)
(-29.9223 20.5415 0)
(-14.9396 15.9481 0)
(1.94095 9.82805 0)
(18.8836 4.58474 0)
(32.7113 -6.04744 0)
(40.4694 -10.0499 0)
(42.3563 -28.2791 0)
(35.148 -62.8507 0)
(22.9108 -83.1898 0)
(13.8406 -82.5839 0)
(13.6559 -61.614 0)
(19.3975 -32.6503 0)
(24.6616 -8.29774 0)
(28.5137 17.0485 0)
(33.7468 60.0046 0)
(36.0224 78.9796 0)
(27.8171 74.6858 0)
(13.2032 62.0982 0)
(-1.67428 45.8839 0)
(-15.4333 30.411 0)
(-28.2704 15.2006 0)
(-40.3234 -8.75469 0)
(-50.4684 -34.1024 0)
(-47.6166 -47.2157 0)
(-31.279 -44.6504 0)
(-13.7692 -36.4318 0)
(-0.118174 -25.5987 0)
(9.92046 -13.4546 0)
(15.4313 -2.18291 0)
(18.1649 10.9713 0)
(18.875 18.5709 0)
(16.1682 20.359 0)
(11.622 19.9924 0)
(7.63918 18.9058 0)
(3.87319 17.4941 0)
(-0.151954 15.7666 0)
(-4.39659 13.8232 0)
(-8.344 11.6018 0)
(-11.9803 8.22397 0)
(-15.7784 5.51863 0)
(-18.9055 -1.4244 0)
(-20.9723 -8.38825 0)
(-21.2509 -13.2519 0)
(-19.3108 -16.0479 0)
(-16.1601 -16.6004 0)
(-11.7518 -15.5876 0)
(-6.44221 -13.3993 0)
(-1.36258 -10.6729 0)
(4.08794 -7.72446 0)
(8.32645 -4.76339 0)
(11.1868 -1.2152 0)
(-6.53149 15.9761 0)
(-9.94402 18.4825 0)