/*--------------------------------*- C++ -*----------------------------------*\
| =========                 |                                                 |
| \\      /  F ield         | OpenFOAM: The Open Source CFD Toolbox           |
|  \\    /   O peration     | Version:  2206                                  |
|   \\  /    A nd           | Website:  www.openfoam.com                      |
|    \\/     M anipulation  |                                                 |
\*---------------------------------------------------------------------------*/
FoamFile
{
    version     2.0;
    format      ascii;
    arch        "LSB;label=32;scalar=64";
    class       surfaceScalarField;
    location    "19.1001";
    object      phi;
}
// * * * * * * * * * * * * * * * * * * * * * * * * * * * * * * * * * * * * * //

dimensions      [0 3 -1 0 0 0 0];

oriented        oriented;

internalField   nonuniform List<scalar> 
9482
(
1.30293e-06
-2.11626e-06
8.13323e-07
2.68308e-06
-2.27157e-06
8.91426e-07
4.0698e-06
-1.8266e-06
4.39874e-07
5.40621e-06
-8.32793e-07
-5.03615e-07
6.51417e-06
6.31112e-07
-1.73907e-06
7.28568e-06
2.15997e-06
-2.93148e-06
7.78006e-06
3.4231e-06
-3.91748e-06
8.06221e-06
4.36478e-06
-4.64693e-06
8.188e-06
5.01052e-06
-5.13631e-06
8.19868e-06
5.4182e-06
-5.42888e-06
8.11674e-06
5.64791e-06
-5.56597e-06
7.95035e-06
5.72977e-06
-5.56338e-06
7.70987e-06
5.66658e-06
-5.4261e-06
7.42051e-06
5.47249e-06
-5.18312e-06
7.11488e-06
5.16645e-06
-4.86083e-06
6.80491e-06
4.78737e-06
-4.47739e-06
6.45629e-06
4.39341e-06
-4.04479e-06
5.99055e-06
4.05969e-06
-3.59394e-06
5.3775e-06
3.80143e-06
-3.18839e-06
4.74331e-06
3.51405e-06
-2.87986e-06
4.29474e-06
3.06672e-06
-2.61815e-06
4.16195e-06
2.4012e-06
-2.26841e-06
4.35263e-06
1.54546e-06
-1.73614e-06
4.79421e-06
5.75052e-07
-1.01663e-06
5.37164e-06
-3.99527e-07
-1.77901e-07
5.98853e-06
-1.29456e-06
6.77666e-07
6.59582e-06
-2.07693e-06
1.46964e-06
7.16458e-06
-2.7348e-06
2.16604e-06
7.67532e-06
-3.26955e-06
2.75881e-06
8.11616e-06
-3.69187e-06
3.25103e-06
8.48232e-06
-4.0201e-06
3.65395e-06
8.77456e-06
-4.27794e-06
3.9857e-06
9.00049e-06
-4.4932e-06
4.26727e-06
9.1752e-06
-4.68974e-06
4.51504e-06
9.31794e-06
-4.87452e-06
4.73177e-06
9.45144e-06
-5.03741e-06
4.90391e-06
9.60175e-06
-5.14921e-06
4.99889e-06
9.80784e-06
-5.16833e-06
4.96225e-06
1.0104e-05
-5.0254e-06
4.72925e-06
1.04799e-05
-4.61517e-06
4.23924e-06
1.09229e-05
-3.92132e-06
3.47834e-06
1.14106e-05
-2.96895e-06
2.48125e-06
1.19007e-05
-1.82602e-06
1.33595e-06
1.23375e-05
-6.1772e-07
1.80922e-07
1.26892e-05
5.27092e-07
-8.78838e-07
1.29404e-05
1.53315e-06
-1.78435e-06
1.30891e-05
2.36061e-06
-2.50928e-06
1.3144e-05
2.99927e-06
-3.05417e-06
1.31204e-05
3.46089e-06
-3.43732e-06
1.30349e-05
3.77053e-06
-3.68498e-06
1.29004e-05
3.95733e-06
-3.8229e-06
1.27293e-05
4.04633e-06
-3.87523e-06
1.25379e-05
4.06102e-06
-3.86956e-06
1.23394e-05
4.02989e-06
-3.83142e-06
1.21412e-05
3.9763e-06
-3.77813e-06
1.19463e-05
3.91522e-06
-3.72032e-06
1.17549e-05
3.85519e-06
-3.66378e-06
1.1566e-05
3.8004e-06
-3.61148e-06
1.13777e-05
3.75299e-06
-3.56471e-06
1.11872e-05
3.71479e-06
-3.52429e-06
1.09905e-05
3.68865e-06
-3.49191e-06
1.07828e-05
3.67833e-06
-3.47064e-06
1.05603e-05
3.68632e-06
-3.46381e-06
1.03221e-05
3.70951e-06
-3.47138e-06
1.00722e-05
3.73512e-06
-3.48519e-06
9.81893e-06
3.73955e-06
-3.48628e-06
9.57373e-06
3.69166e-06
-3.44646e-06
9.34839e-06
3.55964e-06
-3.3343e-06
9.153e-06
3.31896e-06
-3.12358e-06
8.99492e-06
2.95823e-06
-2.80014e-06
8.87843e-06
2.4813e-06
-2.36482e-06
8.80532e-06
1.90503e-06
-1.83191e-06
8.77565e-06
1.25496e-06
-1.22529e-06
8.78766e-06
5.61587e-07
-5.73595e-07
8.83607e-06
-1.40733e-07
9.23222e-08
8.91559e-06
-8.22558e-07
7.4304e-07
9.02015e-06
-1.46381e-06
1.35924e-06
9.1427e-06
-2.0483e-06
1.92574e-06
9.27579e-06
-2.5652e-06
2.43212e-06
9.41222e-06
-3.00913e-06
2.8727e-06
9.54551e-06
-3.37978e-06
3.2465e-06
9.67013e-06
-3.68123e-06
3.55661e-06
9.78167e-06
-3.92092e-06
3.80938e-06
9.87676e-06
-4.10847e-06
4.01339e-06
9.95279e-06
-4.2545e-06
4.17846e-06
1.00079e-05
-4.3696e-06
4.31447e-06
1.00416e-05
-4.46322e-06
4.42958e-06
1.00551e-05
-4.5418e-06
4.52825e-06
1.00517e-05
-4.60617e-06
4.60958e-06
1.00354e-05
-4.65285e-06
4.66913e-06
1.00095e-05
-4.6758e-06
4.7017e-06
9.97316e-06
-4.66627e-06
4.70262e-06
9.92768e-06
-4.60948e-06
4.65495e-06
9.88148e-06
-4.48986e-06
4.53606e-06
9.83634e-06
-4.29819e-06
4.34333e-06
9.7945e-06
-4.02856e-06
4.0704e-06
9.75843e-06
-3.67911e-06
3.71518e-06
9.73071e-06
-3.25257e-06
3.28029e-06
9.71393e-06
-2.75611e-06
2.77288e-06
9.71037e-06
-2.20099e-06
2.20455e-06
9.72157e-06
-1.60256e-06
1.59137e-06
9.74753e-06
-9.8051e-07
9.54551e-07
9.78654e-06
-3.59891e-07
3.20876e-07
9.83583e-06
2.39921e-07
-2.89212e-07
9.89226e-06
8.02762e-07
-8.59186e-07
9.95211e-06
1.31593e-06
-1.37578e-06
1.00118e-05
1.76966e-06
-1.82935e-06
1.00681e-05
2.15818e-06
-2.21445e-06
1.01183e-05
2.47933e-06
-2.52957e-06
1.01601e-05
2.7354e-06
-2.77722e-06
1.01921e-05
2.9297e-06
-2.96168e-06
1.02133e-05
3.06834e-06
-3.08957e-06
1.02234e-05
3.15893e-06
-3.16903e-06
1.02225e-05
3.20946e-06
-3.20849e-06
1.02089e-05
3.22743e-06
-3.21382e-06
3.21898e-06
-3.18947e-06
9.05804e-07
-3.02206e-06
1.8655e-06
-3.23127e-06
2.75653e-06
-2.71762e-06
3.6286e-06
-1.70486e-06
4.51149e-06
-2.51776e-07
5.22116e-06
1.45029e-06
5.75142e-06
2.89284e-06
6.12196e-06
3.99423e-06
6.35927e-06
4.77321e-06
6.48397e-06
5.2935e-06
6.51311e-06
5.61877e-06
6.47042e-06
5.77246e-06
6.35123e-06
5.78577e-06
6.16809e-06
5.65562e-06
5.92338e-06
5.41116e-06
5.56942e-06
5.14133e-06
5.04969e-06
4.91314e-06
4.41209e-06
4.69729e-06
3.83844e-06
4.37509e-06
3.51043e-06
3.84206e-06
3.50355e-06
3.07359e-06
3.79987e-06
2.10488e-06
4.33461e-06
1.01073e-06
4.9928e-06
-8.31436e-08
5.68129e-06
-1.08801e-06
6.35317e-06
-1.96644e-06
6.97947e-06
-2.70323e-06
7.54119e-06
-3.29653e-06
8.0268e-06
-3.75516e-06
8.43047e-06
-4.09553e-06
8.75104e-06
-4.34068e-06
8.99043e-06
-4.51733e-06
9.15453e-06
-4.6573e-06
9.25703e-06
-4.79224e-06
9.3171e-06
-4.93459e-06
9.35745e-06
-5.07775e-06
9.4013e-06
-5.19306e-06
9.4769e-06
-5.24392e-06
9.63308e-06
-5.18158e-06
9.87748e-06
-4.85957e-06
1.02061e-05
-4.24994e-06
1.06074e-05
-3.37024e-06
1.10525e-05
-2.27114e-06
1.149e-05
-1.0552e-06
1.18779e-05
1.39183e-07
1.21915e-05
1.21958e-06
1.24184e-05
2.13371e-06
1.25578e-05
2.85984e-06
1.26177e-05
3.40093e-06
1.26113e-05
3.77697e-06
1.25521e-05
4.01655e-06
1.24497e-05
4.14869e-06
1.23133e-05
4.19747e-06
1.21571e-05
4.18608e-06
1.19917e-05
4.14169e-06
1.18232e-05
4.08376e-06
1.16541e-05
4.02428e-06
1.14845e-05
3.96992e-06
1.13132e-05
3.92435e-06
1.11373e-05
3.89067e-06
1.09531e-05
3.87289e-06
1.07563e-05
3.87506e-06
1.05445e-05
3.89816e-06
1.03182e-05
3.93579e-06
1.00824e-05
3.97091e-06
9.84562e-06
3.97636e-06
9.61805e-06
3.91923e-06
9.40994e-06
3.76776e-06
9.23009e-06
3.49881e-06
9.0849e-06
3.10342e-06
8.97833e-06
2.58787e-06
8.91251e-06
1.97084e-06
8.88804e-06
1.27943e-06
8.90352e-06
5.46098e-07
8.9541e-06
-1.91306e-07
9.0345e-06
-9.02964e-07
9.13815e-06
-1.56746e-06
9.25756e-06
-2.1677e-06
9.38512e-06
-2.69276e-06
9.51365e-06
-3.13766e-06
9.63672e-06
-3.50285e-06
9.74892e-06
-3.79343e-06
9.84599e-06
-4.018e-06
9.92483e-06
-4.18731e-06
9.98346e-06
-4.31313e-06
1.00208e-05
-4.40691e-06
1.00363e-05
-4.47871e-06
1.00301e-05
-4.53568e-06
1.0004e-05
-4.58e-06
9.96135e-06
-4.61022e-06
9.90637e-06
-4.62082e-06
9.84165e-06
-4.60155e-06
9.77069e-06
-4.53852e-06
9.69822e-06
-4.41739e-06
9.62753e-06
-4.2275e-06
9.56156e-06
-3.96259e-06
9.50329e-06
-3.62083e-06
9.45575e-06
-3.20504e-06
9.42194e-06
-2.7223e-06
9.4045e-06
-2.18355e-06
9.40527e-06
-1.60333e-06
9.42459e-06
-9.99824e-07
9.4608e-06
-3.96106e-07
9.51129e-06
1.89432e-07
9.57257e-06
7.41477e-07
9.6408e-06
1.2477e-06
9.71192e-06
1.69854e-06
9.78211e-06
2.08799e-06
9.84791e-06
2.41353e-06
9.90671e-06
2.6766e-06
9.9561e-06
2.8803e-06
9.99439e-06
3.03005e-06
1.00206e-05
3.13274e-06
1.00343e-05
3.19577e-06
1.00348e-05
3.22691e-06
3.23367e-06
5.14136e-07
-3.5362e-06
1.00754e-06
-3.72468e-06
1.48087e-06
-3.19094e-06
2.00675e-06
-2.23075e-06
2.60615e-06
-8.5118e-07
3.23867e-06
8.17782e-07
3.775e-06
2.3565e-06
4.20587e-06
3.56337e-06
4.53542e-06
4.44366e-06
4.76865e-06
5.06026e-06
4.91552e-06
5.4719e-06
4.98088e-06
5.7071e-06
4.95359e-06
5.81306e-06
4.79979e-06
5.80941e-06
4.47355e-06
5.7374e-06
3.97276e-06
5.64213e-06
3.41327e-06
5.47263e-06
2.9767e-06
5.13386e-06
2.78974e-06
4.56205e-06
2.89515e-06
3.73664e-06
3.28997e-06
2.67878e-06
3.91128e-06
1.48357e-06
4.64845e-06
2.73554e-07
5.41292e-06
-8.47614e-07
6.15712e-06
-1.83221e-06
6.84849e-06
-2.65781e-06
7.46437e-06
-3.31911e-06
7.99241e-06
-3.82456e-06
8.42936e-06
-4.19212e-06
8.77748e-06
-4.44365e-06
9.04064e-06
-4.60384e-06
9.22318e-06
-4.69988e-06
9.32759e-06
-4.76171e-06
9.36288e-06
-4.82753e-06
9.34723e-06
-4.91894e-06
9.30273e-06
-5.03324e-06
9.25609e-06
-5.14642e-06
9.22941e-06
-5.21725e-06
9.24939e-06
-5.20156e-06
9.35999e-06
-4.97018e-06
9.56947e-06
-4.45942e-06
9.87311e-06
-3.67388e-06
1.02504e-05
-2.64847e-06
1.0663e-05
-1.46777e-06
1.10622e-05
-2.60021e-07
1.14173e-05
8.64489e-07
1.17072e-05
1.84387e-06
1.19222e-05
2.64484e-06
1.20623e-05
3.2608e-06
1.21344e-05
3.70486e-06
1.21489e-05
4.00207e-06
1.21166e-05
4.18095e-06
1.20451e-05
4.26903e-06
1.19425e-05
4.28864e-06
1.18198e-05
4.26436e-06
1.16859e-05
4.21771e-06
1.15457e-05
4.1645e-06
1.1401e-05
4.11461e-06
1.12514e-05
4.07398e-06
1.10946e-05
4.04745e-06
1.09274e-05
4.04005e-06
1.07468e-05
4.05571e-06
1.05512e-05
4.09368e-06
1.03427e-05
4.14431e-06
1.01268e-05
4.1868e-06
9.91147e-06
4.19172e-06
9.7056e-06
4.1251e-06
9.5182e-06
3.95516e-06
9.35681e-06
3.66019e-06
9.22686e-06
3.23337e-06
9.13211e-06
2.68262e-06
9.0751e-06
2.02786e-06
9.05693e-06
1.2976e-06
9.07638e-06
5.26648e-07
9.12884e-06
-2.43767e-07
9.2088e-06
-9.82931e-07
9.30937e-06
-1.66802e-06
9.42276e-06
-2.28108e-06
9.54141e-06
-2.81142e-06
9.6583e-06
-3.25455e-06
9.76732e-06
-3.61187e-06
9.86353e-06
-3.88965e-06
9.94314e-06
-4.09761e-06
1.00034e-05
-4.24761e-06
1.0043e-05
-4.35264e-06
1.00613e-05
-4.42526e-06
1.00584e-05
-4.47578e-06
1.00327e-05
-4.50999e-06
9.98491e-06
-4.53222e-06
9.91883e-06
-4.54414e-06
9.83887e-06
-4.54086e-06
9.7492e-06
-4.51188e-06
9.6541e-06
-4.44341e-06
9.55805e-06
-4.32133e-06
9.46498e-06
-4.13443e-06
9.37821e-06
-3.87583e-06
9.301e-06
-3.54362e-06
9.23657e-06
-3.14061e-06
9.18813e-06
-2.67385e-06
9.15849e-06
-2.15392e-06
9.14964e-06
-1.59448e-06
9.16219e-06
-1.01237e-06
9.19468e-06
-4.28598e-07
9.24465e-06
1.39466e-07
9.30851e-06
6.77616e-07
9.38229e-06
1.17392e-06
9.46163e-06
1.61921e-06
9.5423e-06
2.00732e-06
9.62042e-06
2.3354e-06
9.69265e-06
2.60438e-06
9.75609e-06
2.81686e-06
9.80845e-06
2.97769e-06
9.84815e-06
3.09304e-06
9.87394e-06
3.16998e-06
9.88527e-06
3.21558e-06
3.23652e-06
7.06712e-08
-3.60687e-06
8.04499e-08
-3.73446e-06
1.63353e-07
-3.27384e-06
4.06619e-07
-2.47401e-06
7.99365e-07
-1.24393e-06
1.3624e-06
2.54749e-07
1.94727e-06
1.77163e-06
2.46606e-06
3.04458e-06
2.88669e-06
4.02304e-06
3.20366e-06
4.74329e-06
3.40927e-06
5.26628e-06
3.47903e-06
5.63734e-06
3.3916e-06
5.90049e-06
3.13981e-06
6.0612e-06
2.77686e-06
6.10035e-06
2.41359e-06
6.0054e-06
2.17692e-06
5.7093e-06
2.14796e-06
5.16281e-06
2.37226e-06
4.33775e-06
2.86342e-06
3.24548e-06
3.57264e-06
1.96955e-06
4.39504e-06
6.61182e-07
5.24511e-06
-5.76518e-07
6.07017e-06
-1.67268e-06
6.8319e-06
-2.59394e-06
7.50319e-06
-3.3291e-06
8.06935e-06
-3.88527e-06
8.52857e-06
-4.28378e-06
8.88769e-06
-4.55123e-06
9.15898e-06
-4.71494e-06
9.35145e-06
-4.79631e-06
9.47227e-06
-4.8207e-06
9.52362e-06
-4.81305e-06
9.50548e-06
-4.80939e-06
9.42574e-06
-4.8392e-06
9.3048e-06
-4.91231e-06
9.17025e-06
-5.01187e-06
9.04912e-06
-5.09612e-06
8.95695e-06
-5.10938e-06
8.94444e-06
-4.95768e-06
9.03823e-06
-4.5532e-06
9.23982e-06
-3.87547e-06
9.53657e-06
-2.94522e-06
9.9014e-06
-1.8326e-06
1.02891e-05
-6.47719e-07
1.06634e-05
4.902e-07
1.09976e-05
1.50965e-06
1.12741e-05
2.3683e-06
1.14852e-05
3.04974e-06
1.16309e-05
3.5592e-06
1.17165e-05
3.91639e-06
1.17518e-05
4.14573e-06
1.17465e-05
4.27431e-06
1.17049e-05
4.33019e-06
1.16332e-05
4.33606e-06
1.15397e-05
4.31121e-06
1.14334e-05
4.27079e-06
1.13181e-05
4.22997e-06
1.11943e-05
4.19774e-06
1.10609e-05
4.1809e-06
1.09155e-05
4.18545e-06
1.07561e-05
4.2151e-06
1.05824e-05
4.26737e-06
1.03973e-05
4.32935e-06
1.0207e-05
4.37718e-06
1.00181e-05
4.38062e-06
9.83842e-06
4.30474e-06
9.67579e-06
4.11778e-06
9.53632e-06
3.79966e-06
9.42462e-06
3.34507e-06
9.34434e-06
2.76291e-06
9.29835e-06
2.07385e-06
9.28807e-06
1.30788e-06
9.31216e-06
5.02558e-07
9.36609e-06
-2.97697e-07
9.44413e-06
-1.06097e-06
9.5392e-06
-1.76309e-06
9.64361e-06
-2.3855e-06
9.75008e-06
-2.91789e-06
9.852e-06
-3.35647e-06
9.94385e-06
-3.70372e-06
1.00214e-05
-3.96724e-06
1.00817e-05
-4.15791e-06
1.01226e-05
-4.28843e-06
1.01426e-05
-4.37266e-06
1.01408e-05
-4.42352e-06
1.01155e-05
-4.4504e-06
1.00661e-05
-4.46067e-06
9.99573e-06
-4.46181e-06
9.90767e-06
-4.45607e-06
9.80578e-06
-4.43898e-06
9.69436e-06
-4.40046e-06
9.57802e-06
-4.32707e-06
9.46155e-06
-4.20486e-06
9.34924e-06
-4.02212e-06
9.24488e-06
-3.77147e-06
9.15188e-06
-3.45062e-06
9.07351e-06
-3.06224e-06
9.01293e-06
-2.61327e-06
8.97294e-06
-2.11393e-06
8.95557e-06
-1.57711e-06
8.96161e-06
-1.01842e-06
8.98977e-06
-4.56753e-07
9.03765e-06
9.15812e-08
9.10182e-06
6.13445e-07
9.17831e-06
1.09743e-06
9.26264e-06
1.53488e-06
9.35027e-06
1.9197e-06
9.43699e-06
2.24868e-06
9.51899e-06
2.52238e-06
9.59302e-06
2.74283e-06
9.65627e-06
2.91445e-06
9.70663e-06
3.04268e-06
9.74278e-06
3.13382e-06
9.76388e-06
3.19448e-06
3.23035e-06
-2.61041e-07
-5.90223e-07
-8.07213e-07
-8.79429e-07
-7.38267e-07
-3.97035e-07
1.27569e-07
6.58001e-07
1.1164e-06
1.4576e-06
1.66148e-06
1.7313e-06
1.6966e-06
1.60841e-06
1.51841e-06
1.50586e-06
1.64163e-06
1.98978e-06
2.5869e-06
3.38872e-06
4.30682e-06
5.24731e-06
6.15156e-06
6.97702e-06
7.69547e-06
8.29258e-06
8.76675e-06
9.12726e-06
9.38754e-06
9.56319e-06
9.67243e-06
9.72237e-06
9.71716e-06
9.65246e-06
9.52756e-06
9.35216e-06
9.14832e-06
8.94357e-06
8.76271e-06
8.644e-06
8.6276e-06
8.72638e-06
8.93641e-06
9.23837e-06
9.59579e-06
9.96803e-06
1.03261e-05
1.0647e-05
1.09156e-05
1.11256e-05
1.12783e-05
1.13785e-05
1.14328e-05
1.14493e-05
1.14326e-05
1.13867e-05
1.13195e-05
1.12378e-05
1.1144e-05
1.10379e-05
1.09185e-05
1.07849e-05
1.06377e-05
1.04816e-05
1.03224e-05
1.01653e-05
1.00167e-05
9.88318e-06
9.76965e-06
9.67995e-06
9.61744e-06
9.58491e-06
9.58389e-06
9.61291e-06
9.66726e-06
9.7411e-06
9.82733e-06
9.91877e-06
1.00086e-05
1.00908e-05
1.01609e-05
1.02156e-05
1.02528e-05
1.02714e-05
1.02703e-05
1.02474e-05
1.01997e-05
1.01288e-05
1.00374e-05
9.92877e-06
9.80667e-06
9.67569e-06
9.54078e-06
9.40683e-06
9.27842e-06
9.15958e-06
9.05382e-06
8.96431e-06
8.89397e-06
8.84545e-06
8.82077e-06
8.82088e-06
8.84459e-06
8.88949e-06
8.95232e-06
9.02923e-06
9.11579e-06
1.44831e-06
9.20743e-06
1.82807e-06
9.29957e-06
2.15654e-06
9.38817e-06
2.43378e-06
9.46963e-06
2.66137e-06
9.54095e-06
2.84313e-06
9.59948e-06
2.98415e-06
9.64351e-06
3.08979e-06
9.67234e-06
3.16565e-06
3.2166e-06
9.01777e-06
9.11052e-06
9.20508e-06
9.29723e-06
9.38302e-06
9.45924e-06
9.52335e-06
9.57355e-06
9.60917e-06
4.92499e-06
1.90998e-07
4.72382e-06
2.01173e-07
4.51265e-06
2.11161e-07
4.29173e-06
2.20924e-07
4.06133e-06
2.30398e-07
3.82189e-06
2.39444e-07
3.57423e-06
2.47657e-07
3.31997e-06
2.5426e-07
3.06299e-06
2.56979e-07
2.80826e-06
2.54733e-07
2.55914e-06
2.4912e-07
2.31758e-06
2.41554e-07
2.08478e-06
2.32801e-07
1.86163e-06
2.23155e-07
1.64882e-06
2.12805e-07
1.44694e-06
2.01883e-07
1.25644e-06
1.905e-07
1.07773e-06
1.78716e-07
9.11275e-07
1.6645e-07
7.57668e-07
1.53607e-07
6.1738e-07
1.40288e-07
4.90813e-07
1.26567e-07
3.77533e-07
1.1328e-07
2.75846e-07
1.01687e-07
9.17924e-08
1.84053e-07
1.08754e-05
3.11894e-07
1.07444e-05
3.32146e-07
1.06034e-05
3.52152e-07
1.04525e-05
3.71849e-07
1.02917e-05
3.91181e-07
1.01212e-05
4.09969e-07
9.94092e-06
4.27916e-07
9.75056e-06
4.44626e-07
9.54767e-06
4.59869e-07
9.32928e-06
4.73122e-07
9.09445e-06
4.83953e-07
8.84339e-06
4.9261e-07
8.57664e-06
4.99553e-07
8.29473e-06
5.05063e-07
7.99823e-06
5.093e-07
7.68776e-06
5.1236e-07
7.36396e-06
5.14295e-07
7.02763e-06
5.15043e-07
6.6795e-06
5.14584e-07
6.32028e-06
5.12825e-07
5.9509e-06
5.09668e-07
5.57249e-06
5.04975e-07
5.18767e-06
4.981e-07
4.80096e-06
4.88406e-07
4.76118e-07
4.41663e-06
1.32284e-05
3.67023e-07
1.31669e-05
3.93648e-07
1.3099e-05
4.19998e-07
1.30249e-05
4.45995e-07
1.29446e-05
4.71517e-07
1.28581e-05
4.96439e-07
1.27654e-05
5.20607e-07
1.26662e-05
5.43805e-07
1.25603e-05
5.65809e-07
1.2447e-05
5.86412e-07
1.23254e-05
6.05506e-07
1.21949e-05
6.23169e-07
1.20548e-05
6.39674e-07
1.19045e-05
6.55282e-07
1.17437e-05
6.70106e-07
1.15719e-05
6.84198e-07
1.13886e-05
6.97577e-07
1.11935e-05
7.10204e-07
1.0986e-05
7.22004e-07
1.0766e-05
7.3284e-07
1.05331e-05
7.42543e-07
1.02872e-05
7.50922e-07
1.00274e-05
7.57938e-07
9.75235e-06
7.63422e-07
7.66845e-07
9.46162e-06
1.39945e-05
3.90774e-07
1.39668e-05
4.2133e-07
1.39354e-05
4.51387e-07
1.39005e-05
4.80891e-07
1.38623e-05
5.09777e-07
1.38207e-05
5.37962e-07
1.3776e-05
5.65361e-07
1.37279e-05
5.91864e-07
1.36763e-05
6.17393e-07
1.36208e-05
6.41906e-07
1.35609e-05
6.65404e-07
1.34961e-05
6.88001e-07
1.34259e-05
7.09855e-07
1.33501e-05
7.31103e-07
1.32683e-05
7.5189e-07
1.31802e-05
7.72304e-07
1.30854e-05
7.92378e-07
1.29835e-05
8.12089e-07
1.28742e-05
8.31358e-07
1.2757e-05
8.5005e-07
1.26315e-05
8.67969e-07
1.24975e-05
8.84937e-07
1.23547e-05
9.00775e-07
1.22029e-05
9.152e-07
9.27832e-07
1.20419e-05
1.42218e-05
4.03703e-07
1.4206e-05
4.37134e-07
1.41876e-05
4.6977e-07
1.41669e-05
5.01574e-07
1.41442e-05
5.32517e-07
1.41196e-05
5.62556e-07
1.40933e-05
5.91682e-07
1.40653e-05
6.19844e-07
1.40356e-05
6.47129e-07
1.40039e-05
6.7356e-07
1.39701e-05
6.99189e-07
1.3934e-05
7.24137e-07
1.38953e-05
7.4857e-07
1.38537e-05
7.72641e-07
1.38092e-05
7.96475e-07
1.37613e-05
8.20158e-07
1.371e-05
8.43727e-07
1.36549e-05
8.67166e-07
1.35958e-05
8.90406e-07
1.35326e-05
9.13328e-07
1.34647e-05
9.35785e-07
1.33921e-05
9.57532e-07
1.33146e-05
9.78272e-07
1.32321e-05
9.97729e-07
1.01557e-06
1.31444e-05
1.4284e-05
4.13802e-07
1.42713e-05
4.49806e-07
1.42564e-05
4.84677e-07
1.42396e-05
5.18387e-07
1.42212e-05
5.50938e-07
1.42014e-05
5.82335e-07
1.41805e-05
6.12644e-07
1.41584e-05
6.41874e-07
1.41354e-05
6.70162e-07
1.41114e-05
6.9757e-07
1.40864e-05
7.24229e-07
1.40601e-05
7.50346e-07
1.40326e-05
7.76098e-07
1.40036e-05
8.01643e-07
1.3973e-05
8.27107e-07
1.39406e-05
8.52573e-07
1.39062e-05
8.78077e-07
1.38698e-05
9.03597e-07
1.38311e-05
9.29059e-07
1.37901e-05
9.54328e-07
1.37467e-05
9.79223e-07
1.37007e-05
1.00351e-06
1.36521e-05
1.02689e-06
1.36008e-05
1.04905e-06
1.06963e-06
1.35467e-05
1.43136e-05
4.24476e-07
1.43004e-05
4.63009e-07
1.42851e-05
5.00019e-07
1.4268e-05
5.35491e-07
1.42495e-05
5.69457e-07
1.42298e-05
6.01972e-07
1.42093e-05
6.33123e-07
1.41882e-05
6.6304e-07
1.41664e-05
6.91924e-07
1.41441e-05
7.19897e-07
1.41212e-05
7.47135e-07
1.40976e-05
7.73919e-07
1.40732e-05
8.00452e-07
1.4048e-05
8.26907e-07
1.40217e-05
8.5342e-07
1.39942e-05
8.80078e-07
1.39653e-05
9.06913e-07
1.3935e-05
9.33899e-07
1.39031e-05
9.60944e-07
1.38696e-05
9.87894e-07
1.38343e-05
1.01454e-06
1.37971e-05
1.04063e-06
1.37582e-05
1.06583e-06
1.37174e-05
1.08982e-06
1.11222e-06
1.36748e-05
1.4344e-05
4.3691e-07
1.4329e-05
4.78022e-07
1.43119e-05
5.17164e-07
1.4293e-05
5.54337e-07
1.42729e-05
5.89604e-07
1.42518e-05
6.23061e-07
1.42301e-05
6.54851e-07
1.42079e-05
6.85201e-07
1.41855e-05
7.14379e-07
1.41628e-05
7.42585e-07
1.41399e-05
7.70051e-07
1.41166e-05
7.97136e-07
1.4093e-05
8.24113e-07
1.40687e-05
8.51169e-07
1.40437e-05
8.7846e-07
1.40177e-05
9.06082e-07
1.39905e-05
9.34069e-07
1.3962e-05
9.62381e-07
1.39321e-05
9.90907e-07
1.39005e-05
1.01947e-06
1.38672e-05
1.04782e-06
1.38322e-05
1.07566e-06
1.37954e-05
1.10264e-06
1.37568e-05
1.12838e-06
1.15247e-06
1.37166e-05
1.43802e-05
4.51799e-07
1.43626e-05
4.95581e-07
1.43429e-05
5.36863e-07
1.43216e-05
5.75664e-07
1.42991e-05
6.12084e-07
1.42759e-05
6.46272e-07
1.42523e-05
6.78442e-07
1.42286e-05
7.08921e-07
1.42049e-05
7.38065e-07
1.41813e-05
7.66158e-07
1.41579e-05
7.93508e-07
1.41345e-05
8.20569e-07
1.41109e-05
8.47704e-07
1.40869e-05
8.75131e-07
1.40623e-05
9.03037e-07
1.40369e-05
9.31532e-07
1.40103e-05
9.60653e-07
1.39823e-05
9.90346e-07
1.39528e-05
1.02047e-06
1.39214e-05
1.05082e-06
1.38881e-05
1.08109e-06
1.38528e-05
1.11094e-06
1.38155e-05
1.13996e-06
1.37762e-05
1.16771e-06
1.19374e-06
1.37349e-05
1.4422e-05
4.69729e-07
1.44012e-05
5.16286e-07
1.43784e-05
5.59703e-07
1.43541e-05
6.00022e-07
1.43287e-05
6.37389e-07
1.4303e-05
6.7202e-07
1.42772e-05
7.04221e-07
1.42517e-05
7.3443e-07
1.42267e-05
7.63122e-07
1.42021e-05
7.90678e-07
1.41781e-05
8.17495e-07
1.41546e-05
8.44154e-07
1.41311e-05
8.71131e-07
1.41076e-05
8.98695e-07
1.40835e-05
9.27074e-07
1.40587e-05
9.56404e-07
1.40326e-05
9.86723e-07
1.4005e-05
1.01796e-06
1.39755e-05
1.04995e-06
1.39439e-05
1.08243e-06
1.39099e-05
1.11503e-06
1.38735e-05
1.14735e-06
1.38346e-05
1.17891e-06
1.37931e-05
1.20919e-06
1.23766e-06
1.37492e-05
1.4469e-05
4.91447e-07
1.44443e-05
5.40892e-07
1.44176e-05
5.86415e-07
1.43896e-05
6.28079e-07
1.43609e-05
6.66092e-07
1.43321e-05
7.00761e-07
1.43038e-05
7.32507e-07
1.42764e-05
7.61908e-07
1.42499e-05
7.89589e-07
1.42245e-05
8.16054e-07
1.42002e-05
8.41808e-07
1.41768e-05
8.67588e-07
1.41539e-05
8.94017e-07
1.41312e-05
9.21433e-07
1.41081e-05
9.50121e-07
1.40843e-05
9.8025e-07
1.40591e-05
1.01186e-06
1.40322e-05
1.04488e-06
1.40031e-05
1.07907e-06
1.39714e-05
1.11412e-06
1.39368e-05
1.14959e-06
1.38992e-05
1.18498e-06
1.38584e-05
1.21972e-06
1.38144e-05
1.2532e-06
1.2848e-06
1.37672e-05
1.45208e-05
5.17874e-07
1.44914e-05
5.70341e-07
1.44599e-05
6.17911e-07
1.44273e-05
6.60671e-07
1.43945e-05
6.98913e-07
1.43622e-05
7.33064e-07
1.4331e-05
7.637e-07
1.43013e-05
7.91572e-07
1.42734e-05
8.17505e-07
1.42473e-05
8.42162e-07
1.42229e-05
8.66166e-07
1.42001e-05
8.90456e-07
1.41782e-05
9.1584e-07
1.41569e-05
9.42748e-07
1.41355e-05
9.71538e-07
1.41133e-05
1.00242e-06
1.40898e-05
1.03545e-06
1.40641e-05
1.07051e-06
1.40359e-05
1.10732e-06
1.40045e-05
1.14548e-06
1.39697e-05
1.18445e-06
1.3931e-05
1.22363e-06
1.38884e-05
1.26231e-06
1.38418e-05
1.29979e-06
1.33531e-06
1.37913e-05
1.45776e-05
5.50171e-07
1.45421e-05
6.05824e-07
1.45047e-05
6.55344e-07
1.44665e-05
6.98855e-07
1.44286e-05
7.36754e-07
1.43921e-05
7.6964e-07
1.43575e-05
7.98289e-07
1.43254e-05
8.2368e-07
1.4296e-05
8.46897e-07
1.42693e-05
8.68819e-07
1.42453e-05
8.90208e-07
1.42235e-05
9.12225e-07
1.42034e-05
9.35925e-07
1.41843e-05
9.61868e-07
1.41653e-05
9.90508e-07
1.41457e-05
1.02209e-06
1.41244e-05
1.05668e-06
1.41008e-05
1.09412e-06
1.40741e-05
1.13407e-06
1.40435e-05
1.17599e-06
1.40088e-05
1.21923e-06
1.39694e-05
1.26304e-06
1.39251e-05
1.30657e-06
1.38759e-05
1.34896e-06
1.38934e-06
1.38219e-05
1.46391e-05
5.89797e-07
1.45961e-05
6.48844e-07
1.45513e-05
7.0017e-07
1.45062e-05
7.43956e-07
1.44622e-05
7.80747e-07
1.44204e-05
8.11365e-07
1.43819e-05
8.36862e-07
1.4347e-05
8.58514e-07
1.43162e-05
8.77747e-07
1.42893e-05
8.95747e-07
1.4266e-05
9.13435e-07
1.42461e-05
9.32196e-07
1.42286e-05
9.53399e-07
1.42127e-05
9.77789e-07
1.41972e-05
1.00596e-06
1.41811e-05
1.0382e-06
1.41632e-05
1.07455e-06
1.41426e-05
1.1148e-06
1.41181e-05
1.15852e-06
1.40891e-05
1.20502e-06
1.40548e-05
1.25347e-06
1.4015e-05
1.30293e-06
1.39691e-05
1.35238e-06
1.39173e-05
1.40078e-06
1.44709e-06
1.38596e-05
1.47055e-05
6.38637e-07
1.4653e-05
7.01328e-07
1.4599e-05
7.54246e-07
1.45453e-05
7.97662e-07
1.44937e-05
8.32323e-07
1.44457e-05
8.5935e-07
1.44024e-05
8.80151e-07
1.43645e-05
8.96387e-07
1.43323e-05
9.09941e-07
1.43056e-05
9.22479e-07
1.42839e-05
9.35136e-07
1.42667e-05
9.49424e-07
1.4253e-05
9.67119e-07
1.42415e-05
9.89231e-07
1.42309e-05
1.01654e-06
1.42198e-05
1.04936e-06
1.42066e-05
1.08773e-06
1.419e-05
1.13137e-06
1.41689e-05
1.17968e-06
1.41421e-05
1.23177e-06
1.4109e-05
1.2866e-06
1.40689e-05
1.34297e-06
1.40217e-05
1.39964e-06
1.39671e-05
1.45534e-06
1.50883e-06
1.39054e-05
1.4777e-05
6.99115e-07
1.47126e-05
7.65768e-07
1.46469e-05
8.19968e-07
1.45824e-05
8.62131e-07
1.45214e-05
8.93301e-07
1.44658e-05
9.15004e-07
1.44168e-05
9.29105e-07
1.43755e-05
9.37729e-07
1.43421e-05
9.43304e-07
1.43163e-05
9.48281e-07
1.42972e-05
9.54278e-07
1.4284e-05
9.62631e-07
1.42755e-05
9.75531e-07
1.42703e-05
9.94498e-07
1.42663e-05
1.02047e-06
1.42619e-05
1.05383e-06
1.4255e-05
1.09458e-06
1.42441e-05
1.14234e-06
1.42274e-05
1.19629e-06
1.42039e-05
1.25528e-06
1.41726e-05
1.31794e-06
1.41328e-05
1.38276e-06
1.40842e-05
1.44821e-06
1.40268e-05
1.51275e-06
1.57491e-06
1.39607e-05
1.48537e-05
7.74372e-07
1.47741e-05
8.45347e-07
1.46938e-05
9.00336e-07
1.46159e-05
9.40035e-07
1.45433e-05
9.65916e-07
1.44782e-05
9.80082e-07
1.44223e-05
9.84987e-07
1.43768e-05
9.83254e-07
1.43423e-05
9.77795e-07
1.43185e-05
9.72021e-07
1.43037e-05
9.69072e-07
1.42963e-05
9.70095e-07
1.42951e-05
9.76671e-07
1.42982e-05
9.91424e-07
1.43032e-05
1.01546e-06
1.43077e-05
1.04931e-06
1.43093e-05
1.09298e-06
1.43058e-05
1.14586e-06
1.42953e-05
1.20684e-06
1.42762e-05
1.27439e-06
1.42474e-05
1.3467e-06
1.42083e-05
1.42187e-06
1.41585e-05
1.49798e-06
1.40981e-05
1.57317e-06
1.64573e-06
1.40273e-05
1.49359e-05
8.68655e-07
1.4837e-05
9.44296e-07
1.4738e-05
9.9929e-07
1.46433e-05
1.03477e-06
1.45563e-05
1.05287e-06
1.448e-05
1.05646e-06
1.4416e-05
1.04891e-06
1.43656e-05
1.03367e-06
1.43295e-05
1.0139e-06
1.4308e-05
9.93506e-07
1.42992e-05
9.77871e-07
1.43004e-05
9.68934e-07
1.43094e-05
9.67672e-07
1.43239e-05
9.76932e-07
1.4341e-05
9.98321e-07
1.43576e-05
1.03272e-06
1.43705e-05
1.08007e-06
1.43769e-05
1.13946e-06
1.43744e-05
1.20935e-06
1.43611e-05
1.28767e-06
1.43358e-05
1.37201e-06
1.42978e-05
1.45992e-06
1.42468e-05
1.54899e-06
1.4183e-05
1.63697e-06
1.72187e-06
1.41068e-05
1.50243e-05
9.87578e-07
1.49004e-05
1.06817e-06
1.47778e-05
1.12189e-06
1.4662e-05
1.15062e-06
1.45574e-05
1.1575e-06
1.44673e-05
1.14648e-06
1.43942e-05
1.12205e-06
1.43393e-05
1.08855e-06
1.43034e-05
1.04982e-06
1.42853e-05
1.01166e-06
1.42825e-05
9.80657e-07
1.42936e-05
9.57764e-07
1.43159e-05
9.45369e-07
1.43457e-05
9.47187e-07
1.43788e-05
9.65166e-07
1.44113e-05
1.0003e-06
1.44389e-05
1.05238e-06
1.44583e-05
1.12013e-06
1.44662e-05
1.20141e-06
1.44606e-05
1.29333e-06
1.44399e-05
1.39266e-06
1.44036e-05
1.49625e-06
1.43515e-05
1.6011e-06
1.4284e-05
1.70446e-06
1.80401e-06
1.42018e-05
1.5123e-05
1.13974e-06
1.49661e-05
1.22515e-06
1.48126e-05
1.27532e-06
1.46698e-05
1.29349e-06
1.4543e-05
1.2843e-06
1.44363e-05
1.25317e-06
1.43522e-05
1.20611e-06
1.42922e-05
1.14856e-06
1.42563e-05
1.0857e-06
1.42427e-05
1.0253e-06
1.42496e-05
9.73732e-07
1.42749e-05
9.32416e-07
1.43147e-05
9.05618e-07
1.43642e-05
8.97678e-07
1.44182e-05
9.11185e-07
1.44712e-05
9.4731e-07
1.45179e-05
1.00563e-06
1.45537e-05
1.08434e-06
1.45746e-05
1.18047e-06
1.45781e-05
1.2899e-06
1.45626e-05
1.40811e-06
1.45279e-05
1.53098e-06
1.44742e-05
1.6548e-06
1.44024e-05
1.77624e-06
1.89277e-06
1.43136e-05
1.54442e-05
1.19784e-06
1.52475e-05
1.33642e-06
1.50465e-05
1.42612e-06
1.48526e-05
1.46927e-06
1.46745e-05
1.47155e-06
1.4519e-05
1.43979e-06
1.43908e-05
1.38142e-06
1.42926e-05
1.30428e-06
1.42259e-05
1.21527e-06
1.41901e-05
1.12148e-06
1.41832e-05
1.03217e-06
1.42034e-05
9.5355e-07
1.42472e-05
8.8864e-07
1.43096e-05
8.43254e-07
1.43845e-05
8.22712e-07
1.44652e-05
8.30474e-07
1.45445e-05
8.68045e-07
1.46154e-05
9.34689e-07
1.46719e-05
1.02791e-06
1.47088e-05
1.14351e-06
1.47233e-05
1.27542e-06
1.47139e-05
1.41754e-06
1.46802e-05
1.56471e-06
1.46231e-05
1.71183e-06
1.45449e-05
1.85453e-06
1.99047e-06
1.44472e-05
1.56069e-05
1.42318e-06
1.53601e-05
1.58325e-06
1.51101e-05
1.67611e-06
1.48718e-05
1.70758e-06
1.46558e-05
1.68754e-06
1.447e-05
1.62562e-06
1.43195e-05
1.5319e-06
1.42073e-05
1.41647e-06
1.41347e-05
1.28784e-06
1.41011e-05
1.1551e-06
1.41047e-05
1.02859e-06
1.41432e-05
9.15059e-07
1.42121e-05
8.19736e-07
1.43051e-05
7.50187e-07
1.44145e-05
7.1338e-07
1.45308e-05
7.14164e-07
1.46444e-05
7.54379e-07
1.47466e-05
8.32558e-07
1.48288e-05
9.4565e-07
1.48841e-05
1.08823e-06
1.49094e-05
1.25008e-06
1.49049e-05
1.42211e-06
1.48708e-05
1.59874e-06
1.48087e-05
1.77397e-06
1.47219e-05
1.94129e-06
2.09933e-06
1.46131e-05
1.56394e-05
1.69625e-06
1.53426e-05
1.88006e-06
1.50459e-05
1.97279e-06
1.47672e-05
1.98629e-06
1.45185e-05
1.93624e-06
1.43085e-05
1.83567e-06
1.41428e-05
1.69758e-06
1.40244e-05
1.53491e-06
1.39537e-05
1.35853e-06
1.39299e-05
1.17889e-06
1.39513e-05
1.00716e-06
1.40155e-05
8.50888e-07
1.41174e-05
7.17768e-07
1.42503e-05
6.17354e-07
1.44046e-05
5.59003e-07
1.45686e-05
5.50164e-07
1.47293e-05
5.93729e-07
1.48745e-05
6.87382e-07
1.49928e-05
8.27278e-07
1.50766e-05
1.00453e-06
1.51245e-05
1.2021e-06
1.51329e-05
1.41373e-06
1.51013e-05
1.63039e-06
1.50354e-05
1.83985e-06
1.49419e-05
2.03479e-06
2.2172e-06
1.4824e-05
1.52988e-05
1.98358e-06
1.49847e-05
2.19412e-06
1.46726e-05
2.28489e-06
1.43794e-05
2.27954e-06
1.41188e-05
2.1968e-06
1.39025e-05
2.052e-06
1.37369e-05
1.86316e-06
1.36248e-05
1.64705e-06
1.35664e-05
1.4169e-06
1.35627e-05
1.18259e-06
1.36128e-05
9.57081e-07
1.37143e-05
7.49413e-07
1.38614e-05
5.70616e-07
1.40459e-05
4.32909e-07
1.42566e-05
3.48302e-07
1.4478e-05
3.28696e-07
1.46951e-05
3.76676e-07
1.4894e-05
4.8845e-07
1.50619e-05
6.59417e-07
1.51876e-05
8.78773e-07
1.52545e-05
1.1352e-06
1.52647e-05
1.40358e-06
1.5237e-05
1.65806e-06
1.51756e-05
1.90131e-06
1.5085e-05
2.1254e-06
2.33182e-06
1.49703e-05
1.41328e-05
2.19117e-06
1.38859e-05
2.44099e-06
1.36468e-05
2.52405e-06
1.34202e-05
2.50616e-06
1.3214e-05
2.40298e-06
1.30453e-05
2.22071e-06
1.29219e-05
1.98648e-06
1.28476e-05
1.72135e-06
1.28246e-05
1.43995e-06
1.28531e-05
1.15408e-06
1.29316e-05
8.78597e-07
1.30642e-05
6.16806e-07
1.3252e-05
3.82824e-07
1.34876e-05
1.97299e-07
1.37582e-05
7.7685e-08
1.405e-05
3.69133e-08
1.43403e-05
8.63859e-08
1.46003e-05
2.28392e-07
1.48106e-05
4.49161e-07