/*--------------------------------*- C++ -*----------------------------------*\
| =========                 |                                                 |
| \\      /  F ield         | OpenFOAM: The Open Source CFD Toolbox           |
|  \\    /   O peration     | Version:  2206                                  |
|   \\  /    A nd           | Website:  www.openfoam.com                      |
|    \\/     M anipulation  |                                                 |
\*---------------------------------------------------------------------------*/
FoamFile
{
    version     2.0;
    format      ascii;
    arch        "LSB;label=32;scalar=64";
    class       volVectorField;
    location    "19.8";
    object      U_0;
}
// * * * * * * * * * * * * * * * * * * * * * * * * * * * * * * * * * * * * * //

dimensions      [0 1 -1 0 0 0 0];

internalField   nonuniform List<vector> 
3050
(
(1.72901 -0.199746 0)
(1.73807 -0.217941 0)
(1.74758 -0.231473 0)
(1.75729 -0.240384 0)
(1.76735 -0.244542 0)
(1.77776 -0.243405 0)
(1.78823 -0.236749 0)
(1.79869 -0.224642 0)
(1.80892 -0.207317 0)
(1.8188 -0.18514 0)
(1.82827 -0.158543 0)
(1.83727 -0.128029 0)
(1.84575 -0.0941985 0)
(1.85361 -0.0578344 0)
(1.86064 -0.0200823 0)
(1.86645 0.0174711 0)
(1.87082 0.0535958 0)
(1.87353 0.0872168 0)
(1.87439 0.117548 0)
(1.87338 0.144072 0)
(1.87062 0.166331 0)
(1.86622 0.184038 0)
(1.86031 0.197149 0)
(1.8529 0.205717 0)
(1.84377 0.209655 0)
(1.83329 0.208993 0)
(1.82179 0.204194 0)
(1.8097 0.195624 0)
(1.79755 0.18362 0)
(1.78578 0.168505 0)
(1.77475 0.150554 0)
(1.76476 0.130004 0)
(1.75601 0.107097 0)
(1.74868 0.0821171 0)
(1.7429 0.0554162 0)
(1.73877 0.0274657 0)
(1.73636 -0.00103975 0)
(1.73566 -0.0292485 0)
(1.7366 -0.0564996 0)
(1.73906 -0.0821483 0)
(1.74287 -0.1056 0)
(1.74783 -0.12635 0)
(1.7537 -0.144015 0)
(1.76026 -0.158354 0)
(1.76724 -0.169265 0)
(1.77444 -0.176759 0)
(1.78188 -0.180805 0)
(1.78967 -0.181077 0)
(1.79757 -0.177314 0)
(1.80553 -0.169513 0)
(1.81338 -0.157798 0)
(1.82097 -0.142413 0)
(1.82822 -0.123681 0)
(1.83504 -0.101986 0)
(1.84136 -0.0777909 0)
(1.8471 -0.0516606 0)
(1.85211 -0.0243445 0)
(1.85617 0.00309334 0)
(1.85914 0.0298034 0)
(1.8609 0.0551351 0)
(1.86133 0.0784914 0)
(1.86097 0.0992685 0)
(1.85895 0.117056 0)
(1.85571 0.131651 0)
(1.85139 0.142981 0)
(1.84607 0.151024 0)
(1.83972 0.155764 0)
(1.83235 0.157098 0)
(1.82428 0.155145 0)
(1.81573 0.150127 0)
(1.80704 0.142223 0)
(1.79853 0.13166 0)
(1.79048 0.118681 0)
(1.78311 0.103522 0)
(1.77659 0.0864289 0)
(1.77105 0.0676718 0)
(1.76661 0.0475626 0)
(1.76333 0.0264855 0)
(1.76129 0.00497172 0)
(1.76049 -0.0163412 0)
(1.76088 -0.0369732 0)
(1.76239 -0.0564584 0)
(1.76492 -0.0743645 0)
(1.76832 -0.0903198 0)
(1.77245 -0.104036 0)
(1.77713 -0.115324 0)
(1.78219 -0.124096 0)
(1.78747 -0.130346 0)
(1.79293 -0.134074 0)
(1.79867 -0.135099 0)
(1.80456 -0.133183 0)
(1.81053 -0.128306 0)
(1.81646 -0.120525 0)
(1.82222 -0.109996 0)
(1.82771 -0.0969431 0)
(1.83287 -0.0816395 0)
(1.83761 -0.0644098 0)
(1.84186 -0.0456496 0)
(1.84555 -0.0258654 0)
(1.84855 -0.00572636 0)
(1.85076 0.0141404 0)
(1.85208 0.0332762 0)
(1.85244 0.0511994 0)
(1.8518 0.0674511 0)
(1.85021 0.0816679 0)
(1.84776 0.0936385 0)
(1.84454 0.103268 0)
(1.84068 0.110519 0)
(1.83624 0.115389 0)
(1.83113 0.117825 0)
(1.82548 0.117737 0)
(1.81946 0.115208 0)
(1.81322 0.110317 0)
(1.80702 0.103194 0)
(1.80105 0.094031 0)
(1.79548 0.0830095 0)
(1.79043 0.0704108 0)
(1.78602 0.0562466 0)
(1.78228 0.0413399 0)
(1.77932 0.0239786 0)
(1.7771 0.0101834 0)
(1.77586 -0.0148365 0)
(1.75236 -0.207859 0)
(1.76016 -0.226546 0)
(1.76815 -0.240305 0)
(1.77606 -0.249321 0)
(1.78402 -0.253676 0)
(1.79226 -0.25276 0)
(1.80043 -0.246113 0)
(1.8085 -0.233818 0)
(1.81628 -0.216187 0)
(1.82371 -0.193641 0)
(1.8308 -0.166647 0)
(1.83755 -0.135716 0)
(1.84399 -0.10143 0)
(1.85007 -0.0645115 0)
(1.8557 -0.0259633 0)
(1.86059 0.0126702 0)
(1.8645 0.0500906 0)
(1.86722 0.0852559 0)
(1.86857 0.117276 0)
(1.86846 0.145441 0)
(1.86691 0.169216 0)
(1.86398 0.188336 0)
(1.85981 0.202778 0)
(1.85465 0.21263 0)
(1.84829 0.217992 0)
(1.84055 0.218623 0)
(1.83176 0.214692 0)
(1.82216 0.206548 0)
(1.81225 0.194512 0)
(1.80251 0.178972 0)
(1.79327 0.160272 0)
(1.78482 0.138715 0)
(1.77738 0.1146 0)
(1.77112 0.0882552 0)
(1.76619 0.0600695 0)
(1.76267 0.0305445 0)
(1.76065 0.000417964 0)
(1.76012 -0.0293648 0)
(1.761 -0.0580979 0)
(1.7632 -0.0850933 0)
(1.76655 -0.109714 0)
(1.77088 -0.131418 0)
(1.77596 -0.149799 0)
(1.78155 -0.164609 0)
(1.78742 -0.175776 0)
(1.7933 -0.183399 0)
(1.79921 -0.187607 0)
(1.8054 -0.188108 0)
(1.81162 -0.184443 0)
(1.81786 -0.176572 0)
(1.82394 -0.164655 0)
(1.82976 -0.148973 0)
(1.83525 -0.129879 0)
(1.84041 -0.107775 0)
(1.8452 -0.0831131 0)
(1.84959 -0.0564279 0)
(1.8535 -0.0284037 0)
(1.85675 -4.95285e-05 0)
(1.85921 0.0276621 0)
(1.86075 0.0539873 0)
(1.86127 0.0782721 0)
(1.86126 0.100075 0)
(1.86012 0.119032 0)
(1.85805 0.134729 0)
(1.85514 0.147018 0)
(1.85148 0.155915 0)
(1.84716 0.161512 0)
(1.84193 0.163763 0)
(1.83595 0.162485 0)
(1.82936 0.157847 0)
(1.82243 0.149999 0)
(1.81551 0.139206 0)
(1.80887 0.12576 0)
(1.80272 0.10994 0)
(1.79722 0.0920295 0)
(1.7925 0.072334 0)
(1.78869 0.0511915 0)
(1.78584 0.0290076 0)
(1.78404 0.00634164 0)
(1.78331 -0.0161059 0)
(1.78359 -0.0378202 0)
(1.78484 -0.0583034 0)
(1.78696 -0.0770937 0)
(1.78982 -0.0937933 0)
(1.7933 -0.108093 0)
(1.79722 -0.119796 0)
(1.80143 -0.128826 0)
(1.80575 -0.135221 0)
(1.81007 -0.139077 0)
(1.81461 -0.140294 0)
(1.81926 -0.138513 0)
(1.82396 -0.133641 0)
(1.82863 -0.125742 0)
(1.83311 -0.114999 0)
(1.83735 -0.101656 0)
(1.84128 -0.086005 0)
(1.84489 -0.0683873 0)
(1.84815 -0.0491925 0)
(1.851 -0.0288781 0)
(1.85332 -0.00804737 0)
(1.85489 0.0125791 0)
(1.85585 0.0324784 0)
(1.85625 0.0511819 0)
(1.85608 0.0682362 0)
(1.85527 0.0832572 0)
(1.8537 0.095991 0)
(1.85145 0.106278 0)
(1.8487 0.114075 0)
(1.84557 0.119428 0)
(1.84203 0.122399 0)
(1.83791 0.122834 0)
(1.83338 0.120662 0)
(1.8285 0.115913 0)
(1.82354 0.108725 0)
(1.8187 0.0993213 0)
(1.8141 0.0879167 0)
(1.80987 0.0748089 0)
(1.80612 0.0600606 0)
(1.80289 0.044527 0)
(1.80024 0.0263868 0)
(1.79825 0.0119826 0)
(1.79692 -0.014066 0)
(1.77477 -0.214786 0)
(1.78118 -0.233718 0)
(1.78756 -0.247443 0)
(1.79358 -0.256283 0)
(1.79931 -0.260594 0)
(1.80528 -0.259804 0)
(1.81107 -0.253076 0)
(1.81661 -0.240502 0)
(1.82178 -0.222534 0)
(1.82661 -0.199668 0)
(1.83119 -0.172397 0)
(1.83563 -0.141222 0)
(1.83995 -0.106708 0)
(1.84419 -0.0695295 0)
(1.84829 -0.0305944 0)
(1.85209 0.00868758 0)
(1.85536 0.0469468 0)
(1.85792 0.0831435 0)
(1.8596 0.116341 0)
(1.86027 0.145759 0)
(1.85986 0.170804 0)
(1.85838 0.191099 0)
(1.85589 0.206534 0)
(1.8526 0.217259 0)
(1.84873 0.223579 0)
(1.84381 0.225523 0)
(1.83782 0.22267 0)
(1.83087 0.215166 0)
(1.8234 0.203284 0)
(1.81589 0.187508 0)
(1.80867 0.168267 0)
(1.802 0.145917 0)
(1.7961 0.120814 0)
(1.79114 0.0933309 0)
(1.78726 0.0638921 0)
(1.78454 0.0330303 0)
(1.78305 0.00153046 0)
(1.7828 -0.0295838 0)
(1.78369 -0.0595635 0)
(1.78564 -0.0876845 0)
(1.78852 -0.113274 0)
(1.79216 -0.135751 0)
(1.79637 -0.154683 0)
(1.80093 -0.169797 0)
(1.80561 -0.181044 0)
(1.81015 -0.188605 0)
(1.81445 -0.192785 0)
(1.81895 -0.193434 0)
(1.82346 -0.189844 0)
(1.82792 -0.181853 0)
(1.83215 -0.169696 0)
(1.83609 -0.153724 0)
(1.83975 -0.134331 0)
(1.84316 -0.11194 0)
(1.84637 -0.0869821 0)
(1.84938 -0.0599678 0)
(1.85216 -0.0315352 0)
(1.85462 -0.00259758 0)
(1.85663 0.0257998 0)
(1.85812 0.0528846 0)
(1.85896 0.0779536 0)
(1.85906 0.100529 0)
(1.85846 0.120207 0)
(1.85728 0.136625 0)
(1.85547 0.149598 0)
(1.8532 0.159102 0)
(1.8506 0.165228 0)
(1.84753 0.168203 0)
(1.84368 0.167749 0)
(1.83913 0.16369 0)
(1.83409 0.156073 0)
(1.82892 0.145221 0)
(1.82386 0.131491 0)
(1.81909 0.115199 0)
(1.81478 0.0966661 0)
(1.81106 0.0762276 0)
(1.80802 0.0542456 0)
(1.80574 0.0311505 0)
(1.8043 0.00752796 0)
(1.8037 -0.0158711 0)
(1.80394 -0.0384927 0)
(1.80494 -0.0598111 0)
(1.80664 -0.0793401 0)
(1.80894 -0.096657 0)
(1.81172 -0.111429 0)
(1.81484 -0.123443 0)
(1.81816 -0.132621 0)
(1.82149 -0.139035 0)
(1.82467 -0.14288 0)
(1.82795 -0.144217 0)
(1.83135 -0.14258 0)
(1.83478 -0.137701 0)
(1.83813 -0.129666 0)
(1.84129 -0.118715 0)
(1.84422 -0.105118 0)
(1.84692 -0.0891775 0)
(1.84935 -0.0712557 0)
(1.85151 -0.0517286 0)
(1.85337 -0.0310025 0)
(1.8549 -0.00963337 0)
(1.85602 0.011534 0)
(1.85676 0.0318905 0)
(1.85701 0.0510026 0)
(1.85702 0.0685136 0)
(1.85659 0.0841085 0)
(1.85571 0.0974495 0)
(1.85445 0.108254 0)
(1.85283 0.116433 0)
(1.85096 0.122075 0)
(1.84893 0.125372 0)
(1.84647 0.126381 0)
(1.84348 0.124677 0)
(1.84003 0.120139 0)
(1.8364 0.112974 0)
(1.83278 0.10346 0)
(1.82928 0.0918365 0)
(1.82601 0.0783893 0)
(1.82305 0.0632455 0)
(1.82045 0.0472665 0)
(1.81825 0.0285174 0)
(1.8166 0.0136384 0)
(1.8153 -0.0132237 0)
(1.79569 -0.220373 0)
(1.80057 -0.239334 0)
(1.80527 -0.252817 0)
(1.80943 -0.261259 0)
(1.81282 -0.265314 0)
(1.81637 -0.264536 0)
(1.81972 -0.257504 0)
(1.82259 -0.244496 0)
(1.82497 -0.226162 0)
(1.82716 -0.203071 0)
(1.82926 -0.17568 0)
(1.83136 -0.144472 0)
(1.83353 -0.109978 0)
(1.83587 -0.0728298 0)
(1.83838 -0.0338652 0)
(1.84098 0.00563767 0)
(1.84349 0.0442733 0)
(1.84577 0.0810207 0)
(1.84764 0.11493 0)
(1.84895 0.145176 0)
(1.84958 0.171114 0)
(1.84947 0.192315 0)
(1.84862 0.208574 0)
(1.84716 0.219921 0)
(1.84538 0.226679 0)
(1.84313 0.229435 0)
(1.83989 0.227696 0)
(1.83555 0.220939 0)
(1.83056 0.209427 0)
(1.82546 0.193674 0)
(1.82048 0.174155 0)
(1.81581 0.151286 0)
(1.81168 0.12547 0)
(1.80823 0.0971211 0)
(1.8056 0.0666989 0)
(1.80387 0.0347744 0)
(1.80309 0.00218406 0)
(1.80323 -0.0299794 0)
(1.80421 -0.0609268 0)
(1.80594 -0.0899083 0)
(1.80831 -0.116221 0)
(1.81119 -0.139261 0)
(1.81443 -0.158577 0)
(1.81785 -0.173851 0)
(1.82128 -0.18504 0)
(1.82447 -0.192391 0)
(1.82718 -0.196377 0)
(1.82989 -0.197117 0)
(1.83266 -0.193478 0)
(1.83529 -0.185264 0)
(1.83753 -0.172822 0)
(1.83951 -0.156583 0)
(1.84135 -0.13697 0)
(1.84308 -0.114404 0)
(1.84473 -0.0893245 0)
(1.84634 -0.0622085 0)
(1.84793 -0.0336457 0)
(1.84947 -0.00448515 0)
(1.85089 0.0242104 0)
(1.85211 0.0517128 0)
(1.85303 0.0773451 0)
(1.85355 0.10053 0)
(1.85364 0.120772 0)
(1.85329 0.137684 0)
(1.85255 0.151048 0)
(1.85148 0.160859 0)
(1.85028 0.167276 0)
(1.84901 0.170564 0)
(1.84725 0.17093 0)
(1.84474 0.167487 0)
(1.84156 0.160164 0)
(1.8382 0.149414 0)
(1.83485 0.135579 0)
(1.83163 0.119003 0)
(1.82867 0.100061 0)
(1.82609 0.0791026 0)
(1.82399 0.0565102 0)
(1.82244 0.0327354 0)
(1.82149 0.00838731 0)
(1.82115 -0.0157365 0)
(1.82141 -0.0390463 0)
(1.82221 -0.0609975 0)
(1.82349 -0.081087 0)
(1.82518 -0.0988731 0)
(1.82722 -0.114001 0)
(1.82949 -0.126235 0)
(1.83187 -0.135483 0)
(1.83421 -0.141827 0)
(1.83629 -0.145544 0)
(1.83824 -0.146915 0)
(1.84039 -0.145392 0)
(1.84257 -0.140454 0)
(1.84457 -0.132242 0)
(1.84632 -0.121094 0)
(1.84791 -0.107308 0)
(1.84938 -0.0911621 0)
(1.85071 -0.073001 0)
(1.8519 -0.0532272 0)
(1.85288 -0.0322619 0)
(1.8537 -0.0106695 0)
(1.85445 0.0107564 0)
(1.855 0.0314343 0)
(1.8553 0.0508836 0)
(1.85532 0.0687095 0)
(1.85507 0.0845593 0)
(1.85462 0.0981097 0)
(1.85411 0.109145 0)
(1.85339 0.117578 0)
(1.85254 0.123438 0)
(1.85175 0.126876 0)
(1.85075 0.128129 0)
(1.84953 0.127163 0)
(1.84764 0.122988 0)
(1.84533 0.116005 0)
(1.84298 0.106486 0)
(1.84065 0.0947072 0)
(1.83841 0.0810231 0)
(1.83634 0.0656161 0)
(1.83448 0.0493369 0)
(1.83285 0.0301702 0)
(1.83162 0.0149697 0)
(1.83048 -0.0124551 0)
(1.81476 -0.224447 0)
(1.81784 -0.243258 0)
(1.8206 -0.256277 0)
(1.82284 -0.263939 0)
(1.8243 -0.267122 0)
(1.82544 -0.266725 0)
(1.82596 -0.259346 0)
(1.82598 -0.245759 0)
(1.82573 -0.227153 0)
(1.82526 -0.203927 0)
(1.82471 -0.17654 0)
(1.82437 -0.14546 0)
(1.82437 -0.111199 0)
(1.82481 -0.0743544 0)
(1.82575 -0.0357006 0)
(1.82715 0.00360609 0)
(1.82888 0.0421739 0)
(1.83082 0.0790087 0)
(1.8328 0.113169 0)
(1.83466 0.143819 0)
(1.83626 0.170276 0)
(1.8375 0.192046 0)
(1.83832 0.208853 0)
(1.83875 0.22067 0)
(1.83889 0.227734 0)
(1.8388 0.230576 0)
(1.83802 0.230438 0)
(1.83626 0.224609 0)
(1.83388 0.21331 0)
(1.83128 0.197632 0)
(1.82862 0.177959 0)
(1.8261 0.154729 0)
(1.82388 0.128398 0)
(1.82211 0.0994135 0)
(1.82089 0.0682648 0)
(1.8203 0.0355585 0)
(1.82036 0.00218939 0)
(1.82101 -0.0306906 0)
(1.82217 -0.0622714 0)
(1.82374 -0.0917815 0)
(1.8256 -0.118513 0)
(1.82764 -0.141858 0)
(1.82975 -0.161335 0)
(1.83186 -0.176625 0)
(1.83387 -0.187653 0)
(1.83565 -0.194634 0)
(1.83702 -0.198069 0)
(1.83805 -0.198682 0)
(1.83893 -0.195361 0)
(1.83952 -0.186648 0)
(1.83981 -0.173931 0)
(1.83993 -0.15755 0)
(1.83992 -0.137872 0)
(1.83988 -0.115288 0)
(1.83992 -0.0902248 0)
(1.8401 -0.0631597 0)
(1.84049 -0.034667 0)
(1.84109 -0.00555695 0)
(1.84188 0.0231456 0)
(1.84278 0.0507305 0)
(1.84372 0.0765356 0)
(1.8446 0.0999613 0)
(1.84535 0.120495 0)
(1.84594 0.137733 0)
(1.84634 0.151407 0)
(1.84656 0.161411 0)
(1.84663 0.167847 0)
(1.84662 0.171063 0)
(1.84648 0.171792 0)
(1.84599 0.169641 0)
(1.8448 0.162531 0)
(1.84342 0.151911 0)
(1.84198 0.138097 0)
(1.84036 0.121413 0)
(1.83885 0.102233 0)
(1.83751 0.0809321 0)
(1.83644 0.0579207 0)
(1.8357 0.033675 0)
(1.83533 0.00882888 0)
(1.83534 -0.0157817 0)
(1.83568 -0.0395385 0)
(1.83632 -0.0618822 0)
(1.8372 -0.0823115 0)
(1.83826 -0.100384 0)
(1.83947 -0.11573 0)
(1.84077 -0.128088 0)
(1.84211 -0.137336 0)
(1.84339 -0.143531 0)
(1.84445 -0.146962 0)
(1.84533 -0.14812 0)
(1.84618 -0.146986 0)
(1.84699 -0.141821 0)
(1.84758 -0.133375 0)
(1.84813 -0.122063 0)
(1.84841 -0.108169 0)
(1.8486 -0.0919498 0)
(1.84876 -0.073734 0)
(1.8489 -0.0538878 0)
(1.84907 -0.0328537 0)
(1.84929 -0.0112174 0)
(1.84955 0.0102677 0)
(1.84984 0.0310578 0)
(1.85012 0.0506802 0)
(1.85038 0.0686998 0)
(1.85059 0.0847204 0)
(1.85075 0.0984032 0)
(1.85082 0.109531 0)
(1.85083 0.117996 0)
(1.8508 0.123808 0)
(1.85076 0.127157 0)
(1.85075 0.128397 0)
(1.85066 0.128084 0)
(1.85021 0.124242 0)
(1.84965 0.117468 0)
(1.84901 0.108111 0)
(1.84805 0.0964197 0)
(1.84696 0.082718 0)
(1.84586 0.0672185 0)
(1.8448 0.0507937 0)
(1.84379 0.0313915 0)
(1.84303 0.0160117 0)
(1.84215 -0.0117414 0)
(0.132247 -0.000493218 0)
(0.133461 -0.000505062 0)
(0.134689 -0.000503049 0)
(0.135899 -0.000487599 0)
(0.137064 -0.000459726 0)
(0.138158 -0.000421372 0)
(0.139161 -0.000375285 0)
(0.140059 -0.000323999 0)
(0.140842 -0.000270138 0)
(0.141507 -0.000216247 0)
(0.142056 -0.000164094 0)
(0.142494 -0.000115389 0)
(0.142828 -7.07979e-05 0)
(0.143068 -3.05158e-05 0)
(0.143222 5.88718e-06 0)
(0.143297 4.02552e-05 0)
(0.143304 7.60756e-05 0)
(0.143247 0.000106757 0)
(0.143129 0.000135131 0)
(0.142949 0.000162614 0)
(0.14271 0.000188878 0)
(0.142411 0.000214321 0)
(0.142055 0.000238532 0)
(0.141645 0.000260349 0)
(0.141185 0.000278852 0)
(0.140685 0.000292871 0)
(0.140154 0.00030079 0)
(0.139608 0.000301536 0)
(0.139062 0.000294156 0)
(0.138535 0.000277781 0)
(0.138048 0.000252158 0)
(0.13762 0.000217462 0)
(0.137271 0.000174444 0)
(0.137018 0.000124493 0)
(0.136879 6.85825e-05 0)
(0.136856 9.72413e-07 0)
(0.136952 -6.37247e-05 0)
(0.137174 -0.000124024 0)
(0.137517 -0.000179689 0)
(0.137973 -0.000229137 0)
(0.138529 -0.000271013 0)
(0.139168 -0.000303924 0)
(0.139871 -0.000326832 0)
(0.140614 -0.000339227 0)
(0.141376 -0.000340919 0)
(0.142133 -0.000332559 0)
(0.142866 -0.000315412 0)
(0.143556 -0.000290725 0)
(0.14419 -0.000259717 0)
(0.144755 -0.000224231 0)
(0.145241 -0.00018579 0)
(0.145646 -0.000145288 0)
(0.145966 -0.000105382 0)
(0.146202 -6.61831e-05 0)
(0.146358 -2.89654e-05 0)
(0.146437 6.75089e-06 0)
(0.146449 4.31296e-05 0)
(0.1464 7.43695e-05 0)
(0.146293 0.000101931 0)
(0.146134 0.000126593 0)
(0.145925 0.000148969 0)
(0.145671 0.000169344 0)
(0.145376 0.000187825 0)
(0.145042 0.000204286 0)
(0.144673 0.000218412 0)
(0.144274 0.000229801 0)
(0.143851 0.000237931 0)
(0.143411 0.000242181 0)
(0.142963 0.00024183 0)
(0.142518 0.000235976 0)
(0.142087 0.000223989 0)
(0.141684 0.000205757 0)
(0.141322 0.000181316 0)
(0.141014 0.00015098 0)
(0.140773 0.00011522 0)
(0.140611 7.48188e-05 0)
(0.140537 2.86987e-05 0)
(0.140552 -2.59944e-05 0)
(0.140659 -7.68757e-05 0)
(0.140863 -0.000125212 0)
(0.141162 -0.000170033 0)
(0.141549 -0.000210451 0)
(0.142016 -0.000245466 0)
(0.14255 -0.000274134 0)
(0.143138 -0.000295714 0)
(0.143765 -0.000309727 0)
(0.144414 -0.000315863 0)
(0.145069 -0.00031401 0)
(0.145711 -0.000304425 0)
(0.146326 -0.000287734 0)
(0.146899 -0.000264727 0)
(0.147418 -0.000236372 0)
(0.147871 -0.000203717 0)
(0.148253 -0.00016791 0)
(0.148556 -0.000130083 0)
(0.148778 -9.13814e-05 0)
(0.148918 -5.29256e-05 0)
(0.148976 -1.43074e-05 0)
(0.148961 2.78304e-05 0)
(0.148877 6.46244e-05 0)
(0.148725 9.75502e-05 0)
(0.148513 0.000126867 0)
(0.148245 0.000152732 0)
(0.147929 0.000175265 0)
(0.147571 0.000194517 0)
(0.147178 0.000210394 0)
(0.146757 0.000222765 0)
(0.146315 0.00023151 0)
(0.145861 0.000236296 0)
(0.145404 0.000236703 0)
(0.144953 0.000232427 0)
(0.144518 0.000223217 0)
(0.14411 0.000208833 0)
(0.143741 0.000189184 0)
(0.143422 0.000164361 0)
(0.143163 0.000134957 0)
(0.142977 0.000101533 0)
(0.142876 6.31999e-05 0)
(0.142855 1.89755e-05 0)
(0.142943 -3.56113e-05 0)
(0.143071 -6.80758e-05 0)
(0.143533 -0.000150072 0)
(0.39258 -0.00191451 0)
(0.394211 -0.00194596 0)
(0.395839 -0.00193309 0)
(0.397432 -0.0018764 0)
(0.398958 -0.00177973 0)
(0.400394 -0.00164959 0)
(0.401718 -0.00149426 0)
(0.402915 -0.00132231 0)
(0.403979 -0.00114218 0)
(0.404906 -0.000961867 0)
(0.405701 -0.00078746 0)
(0.406372 -0.000623946 0)
(0.406928 -0.000473902 0)
(0.407381 -0.000337729 0)
(0.407742 -0.000214959 0)
(0.408022 -0.000103717 0)
(0.408225 1.05538e-06 0)
(0.408356 9.93976e-05 0)
(0.408424 0.0001924 0)
(0.408428 0.000283811 0)
(0.408367 0.000372842 0)
(0.408243 0.000459656 0)
(0.408056 0.000542201 0)
(0.407811 0.000618546 0)
(0.407511 0.000683923 0)
(0.407166 0.0007345 0)
(0.406788 0.000766384 0)
(0.40639 0.000775305 0)
(0.405991 0.000758129 0)
(0.405611 0.000711676 0)
(0.405269 0.000635787 0)
(0.404987 0.000531569 0)
(0.404786 0.000399768 0)
(0.404681 0.000244311 0)
(0.404686 7.02117e-05 0)
(0.404815 -0.000119561 0)
(0.405076 -0.000310933 0)
(0.405461 -0.000495601 0)
(0.405964 -0.000668072 0)
(0.406578 -0.000823074 0)
(0.407288 -0.000955155 0)
(0.408076 -0.00105923 0)
(0.408921 -0.00113116 0)
(0.409799 -0.00116891 0)
(0.410686 -0.00117286 0)
(0.411559 -0.00114545 0)
(0.412396 -0.00109009 0)
(0.413182 -0.00101079 0)
(0.413901 -0.000912366 0)
(0.414543 -0.000799765 0)
(0.415099 -0.000677705 0)
(0.415567 -0.000551438 0)
(0.415946 -0.00042483 0)
(0.416239 -0.000302444 0)
(0.416451 -0.000186833 0)
(0.41659 -7.99662e-05 0)
(0.416662 2.0399e-05 0)
(0.416672 0.000111689 0)
(0.416629 0.000193429 0)
(0.416539 0.000267486 0)
(0.416406 0.000335422 0)
(0.416232 0.000398027 0)
(0.416022 0.000455565 0)
(0.415777 0.000507708 0)
(0.415501 0.000553495 0)
(0.415198 0.000591331 0)
(0.414873 0.000619277 0)
(0.414534 0.000634884 0)
(0.414189 0.000635932 0)
(0.413849 0.000620696 0)
(0.413525 0.000587565 0)
(0.413229 0.000534825 0)
(0.412975 0.000462989 0)
(0.412775 0.000373202 0)
(0.412642 0.000266168 0)
(0.412585 0.000143717 0)
(0.412611 8.87022e-06 0)
(0.41273 -0.000137351 0)
(0.412946 -0.000283995 0)
(0.413252 -0.000425897 0)
(0.413646 -0.000559098 0)
(0.41412 -0.000679737 0)
(0.414664 -0.000784202 0)
(0.415265 -0.000869223 0)
(0.415909 -0.00093207 0)
(0.416579 -0.000970857 0)
(0.417258 -0.000984627 0)
(0.417927 -0.000973305 0)
(0.41857 -0.000937766 0)
(0.419171 -0.000879942 0)
(0.419717 -0.000802582 0)
(0.420196 -0.0007091 0)
(0.420598 -0.00060315 0)
(0.420918 -0.000488492 0)
(0.421151 -0.000368805 0)
(0.421299 -0.00024757 0)
(0.421361 -0.000127008 0)
(0.421343 -9.17845e-06 0)
(0.421247 0.00010439 0)
(0.42108 0.00020854 0)
(0.420852 0.000302242 0)
(0.420571 0.0003855 0)
(0.420244 0.000458382 0)
(0.41988 0.000520845 0)
(0.419484 0.000572714 0)
(0.419067 0.000613797 0)
(0.418634 0.000643726 0)
(0.418195 0.000661796 0)
(0.417758 0.000667213 0)
(0.417332 0.000659125 0)
(0.416927 0.000636505 0)
(0.416552 0.000598343 0)
(0.416219 0.000543999 0)
(0.415939 0.000473242 0)
(0.415722 0.000386769 0)
(0.415579 0.00028518 0)
(0.415517 0.000168942 0)
(0.41555 3.8272e-05 0)
(0.415664 -0.000100122 0)
(0.415945 -0.000263438 0)
(0.416163 -0.000405663 0)
(0.416961 -0.000647695 0)
(0.648974 -0.00368695 0)
(0.650703 -0.00373037 0)
(0.652431 -0.00369674 0)
(0.654122 -0.00358633 0)
(0.655741 -0.00340577 0)
(0.657259 -0.00316689 0)
(0.65865 -0.00288477 0)
(0.6599 -0.0025746 0)
(0.661 -0.00225188 0)
(0.661948 -0.00193072 0)
(0.662751 -0.00162203 0)
(0.663416 -0.00133441 0)
(0.663957 -0.00107357 0)
(0.664389 -0.000839896 0)
(0.664723 -0.000631659 0)
(0.664971 -0.000445192 0)
(0.665145 -0.000275555 0)
(0.665248 -0.000113113 0)
(0.665283 4.65123e-05 0)
(0.665254 0.000203245 0)
(0.665159 0.000357245 0)
(0.665 0.000508942 0)
(0.664774 0.000656993 0)
(0.664486 0.000796455 0)
(0.66414 0.000918901 0)
(0.663745 0.0010162 0)
(0.663311 0.00108137 0)
(0.662856 0.00110766 0)
(0.662396 0.00108836 0)
(0.661956 0.00102011 0)
(0.661557 0.000899463 0)
(0.661222 0.000728096 0)
(0.660974 0.000509726 0)
(0.660833 0.000248323 0)
(0.660816 -4.28952e-05 0)
(0.660934 -0.000348821 0)
(0.661194 -0.000661637 0)
(0.661591 -0.000968453 0)
(0.66212 -0.00125741 0)
(0.662769 -0.00151843 0)
(0.663524 -0.00174144 0)
(0.664366 -0.00191667 0)
(0.66527 -0.0020363 0)
(0.66621 -0.00209632 0)
(0.667155 -0.00209745 0)
(0.668082 -0.00204411 0)
(0.668966 -0.00194332 0)
(0.669791 -0.00180226 0)
(0.670539 -0.00162868 0)
(0.671198 -0.00143201 0)
(0.671763 -0.00122035 0)
(0.672227 -0.00100293 0)
(0.672593 -0.000786954 0)
(0.672864 -0.00058021 0)
(0.673045 -0.000388283 0)
(0.673147 -0.000213178 0)
(0.673178 -5.50062e-05 0)
(0.673146 8.81437e-05 0)
(0.673059 0.000216355 0)
(0.672923 0.000332873 0)
(0.672743 0.000440013 0)
(0.672522 0.00053934 0)
(0.672264 0.000631515 0)
(0.671969 0.000716109 0)
(0.671642 0.000791542 0)
(0.671286 0.000855151 0)
(0.670905 0.000903413 0)
(0.670508 0.000932516 0)
(0.670102 0.000938184 0)
(0.669699 0.000916233 0)
(0.66931 0.000863282 0)
(0.668952 0.000778626 0)
(0.668636 0.000661022 0)
(0.668378 0.000511754 0)
(0.668191 0.000334445 0)
(0.668087 0.000130531 0)
(0.668074 -9.13695e-05 0)
(0.66816 -0.000320826 0)
(0.668351 -0.000554746 0)
(0.668642 -0.00078443 0)
(0.669031 -0.00100062 0)
(0.669507 -0.0011959 0)
(0.670061 -0.0013636 0)
(0.670679 -0.00149761 0)
(0.671344 -0.00159303 0)
(0.672037 -0.00164666 0)
(0.672739 -0.00165716 0)
(0.67343 -0.00162485 0)
(0.674093 -0.00155148 0)
(0.674709 -0.00144066 0)
(0.675263 -0.00129745 0)
(0.675741 -0.00112792 0)
(0.676136 -0.000938608 0)
(0.676439 -0.000736208 0)
(0.676648 -0.00052695 0)
(0.676761 -0.000316112 0)
(0.676779 -0.000109023 0)
(0.676707 8.66848e-05 0)
(0.676554 0.000265874 0)
(0.676325 0.000429966 0)
(0.67603 0.000577544 0)
(0.675678 0.00070751 0)
(0.675277 0.000819478 0)
(0.674836 0.000913311 0)
(0.674362 0.000988852 0)
(0.673863 0.0010457 0)
(0.673348 0.00108325 0)
(0.672825 0.00110057 0)
(0.672303 0.00109645 0)
(0.671791 0.00106941 0)
(0.671299 0.00101775 0)
(0.670837 0.000940047 0)
(0.670417 0.000835263 0)
(0.670052 0.000703469 0)
(0.669753 0.00054546 0)
(0.669532 0.000361111 0)
(0.669397 0.000152122 0)
(0.669366 -7.94429e-05 0)
(0.669416 -0.000316552 0)
(0.669655 -0.000587051 0)
(0.66981 -0.000822003 0)
(0.670574 -0.00121243 0)
(0.902191 -0.00538782 0)
(0.903789 -0.00545527 0)
(0.905389 -0.00540494 0)
(0.906947 -0.00523707 0)
(0.90842 -0.00496215 0)
(0.909773 -0.00459917 0)
(0.910979 -0.00417099 0)
(0.912019 -0.00370142 0)
(0.912887 -0.00321388 0)
(0.913582 -0.00273033 0)
(0.914112 -0.00226921 0)
(0.91449 -0.00184232 0)
(0.914733 -0.00145514 0)
(0.914858 -0.00110787 0)
(0.914883 -0.000797199 0)
(0.914819 -0.000518742 0)
(0.914678 -0.000268584 0)
(0.914467 -3.71057e-05 0)
(0.914188 0.000186403 0)
(0.913841 0.000406804 0)
(0.913426 0.000626177 0)
(0.912941 0.000843747 0)
(0.912384 0.00105521 0)
(0.911758 0.00125282 0)
(0.911067 0.00142657 0)
(0.910323 0.00156535 0)
(0.909538 0.00165763 0)
(0.908732 0.00169275 0)
(0.907928 0.00166078 0)
(0.907152 0.00155478 0)
(0.906432 0.00137216 0)
(0.905797 0.00111382 0)
(0.905275 0.000785008 0)
(0.90489 0.000394544 0)
(0.904664 -4.48003e-05 0)
(0.904611 -0.000510432 0)
(0.904738 -0.000977501 0)
(0.90504 -0.00143027 0)
(0.905505 -0.00185493 0)
(0.90612 -0.00223793 0)
(0.906868 -0.00256472 0)
(0.907726 -0.00282031 0)
(0.908662 -0.00299136 0)
(0.909642 -0.00307065 0)
(0.910625 -0.00306048 0)
(0.91158 -0.00297015 0)
(0.91248 -0.00281064 0)
(0.913303 -0.00259257 0)
(0.914028 -0.00232762 0)
(0.914641 -0.00202882 0)
(0.915135 -0.00170963 0)
(0.915503 -0.00138317 0)
(0.915747 -0.00106093 0)
(0.91587 -0.0007519 0)
(0.91588 -0.000464179 0)
(0.915791 -0.000203654 0)
(0.915617 2.70346e-05 0)
(0.915367 0.000232361 0)
(0.915054 0.000416084 0)
(0.914683 0.000582123 0)
(0.914261 0.000734207 0)
(0.913791 0.000875099 0)
(0.913278 0.0010061 0)
(0.912722 0.00112675 0)
(0.912128 0.00123469 0)
(0.911498 0.00132588 0)
(0.910841 0.00139491 0)
(0.910163 0.00143578 0)
(0.909476 0.00144228 0)
(0.908792 0.00140853 0)
(0.908127 0.00132968 0)
(0.907499 0.00120312 0)
(0.906925 0.00102818 0)
(0.906424 0.000807625 0)
(0.906012 0.000545402 0)
(0.905701 0.000246271 0)
(0.905508 -8.1243e-05 0)
(0.905442 -0.00042584 0)
(0.905508 -0.000772832 0)
(0.905704 -0.00111027 0)
(0.906025 -0.00142754 0)
(0.90646 -0.00171438 0)
(0.906998 -0.00196082 0)
(0.90762 -0.00215763 0)
(0.908308 -0.00229733 0)
(0.90904 -0.00237488 0)
(0.909791 -0.00238815 0)
(0.910537 -0.00233772 0)
(0.911254 -0.00222616 0)
(0.911921 -0.00205856 0)
(0.912518 -0.00184273 0)
(0.91303 -0.00158809 0)
(0.913444 -0.00130461 0)
(0.913753 -0.00100202 0)
(0.91395 -0.000689086 0)
(0.914033 -0.000373404 0)
(0.914003 -6.40363e-05 0)
(0.913865 0.000226789 0)
(0.913627 0.000494147 0)
(0.913298 0.000736524 0)
(0.912889 0.000952676 0)
(0.912409 0.00114193 0)
(0.911868 0.00130425 0)
(0.911274 0.00143985 0)
(0.910637 0.00154883 0)
(0.909964 0.00163094 0)
(0.909265 0.00168542 0)
(0.908548 0.00171086 0)
(0.907823 0.00170548 0)
(0.9071 0.00166736 0)
(0.906391 0.00159402 0)
(0.905707 0.00148267 0)
(0.905062 0.00133115 0)
(0.904472 0.00113917 0)
(0.90395 0.000907117 0)
(0.903512 0.000637757 0)
(0.903168 0.00033357 0)
(0.902938 -2.64663e-06 0)
(0.902801 -0.000357171 0)
(0.902856 -0.0007609 0)
(0.902871 -0.00109974 0)
(0.903426 -0.00165483 0)
(1.13653 -0.00679645 0)
(1.13822 -0.00688833 0)
(1.13991 -0.00682278 0)
(1.14154 -0.00659446 0)
(1.14304 -0.00621596 0)
(1.14437 -0.0057156 0)
(1.14547 -0.00512675 0)
(1.14634 -0.00448366 0)
(1.14697 -0.00381872 0)
(1.14735 -0.00316387 0)
(1.14751 -0.00254136 0)
(1.14745 -0.00196568 0)
(1.14722 -0.00145072 0)
(1.14684 -0.000999259 0)
(1.14635 -0.000602212 0)
(1.14576 -0.000251348 0)
(1.1451 6.38554e-05 0)
(1.14436 0.000365608 0)
(1.14357 0.000657857 0)
(1.14271 0.000948459 0)
(1.14179 0.00124233 0)
(1.14079 0.00153842 0)
(1.13972 0.00182998 0)
(1.13857 0.00210522 0)
(1.13734 0.00234877 0)
(1.13605 0.00254386 0)
(1.1347 0.00267371 0)
(1.13333 0.00272253 0)
(1.13197 0.00267625 0)
(1.13064 0.00252499 0)
(1.1294 0.00226526 0)
(1.12827 0.00189845 0)
(1.12729 0.00143219 0)
(1.12651 0.000880139 0)
(1.12594 0.000260867 0)
(1.12562 -0.000398799 0)
(1.12555 -0.00106774 0)
(1.12573 -0.00171223 0)
(1.12614 -0.00231463 0)
(1.12676 -0.00286123 0)
(1.12756 -0.00333115 0)
(1.12853 -0.0037009 0)
(1.12963 -0.00394769 0)
(1.13078 -0.00405833 0)
(1.13194 -0.00403899 0)
(1.13307 -0.00390749 0)
(1.13411 -0.00367853 0)
(1.13505 -0.00336541 0)
(1.13586 -0.00298462 0)
(1.13651 -0.00255585 0)
(1.13699 -0.00209826 0)
(1.1373 -0.00162954 0)
(1.13744 -0.00116517 0)
(1.1374 -0.000721181 0)
(1.1372 -0.000316599 0)
(1.13686 4.43965e-05 0)
(1.13641 0.000363994 0)
(1.13585 0.000646358 0)
(1.1352 0.000897119 0)
(1.13448 0.0011227 0)
(1.13369 0.00132915 0)
(1.13284 0.001521 0)
(1.13193 0.00170044 0)
(1.13097 0.0018669 0)
(1.12995 0.00201707 0)
(1.12889 0.00214524 0)
(1.12779 0.00224389 0)
(1.12666 0.00230458 0)
(1.12552 0.00231865 0)
(1.12438 0.00227705 0)
(1.12327 0.00217189 0)
(1.12221 0.00199864 0)
(1.12122 0.00175667 0)
(1.12033 0.00144839 0)
(1.11957 0.00107876 0)
(1.11894 0.000657418 0)
(1.11846 0.000194745 0)
(1.11816 -0.000296103 0)
(1.11802 -0.000797893 0)
(1.11807 -0.00128917 0)
(1.11829 -0.00174858 0)
(1.11867 -0.00216464 0)
(1.11919 -0.00252403 0)
(1.11983 -0.00281306 0)
(1.12057 -0.00302062 0)
(1.12138 -0.00313949 0)
(1.12223 -0.00316652 0)
(1.12309 -0.00310247 0)
(1.12392 -0.00295161 0)
(1.12469 -0.0027216 0)
(1.12538 -0.00242371 0)
(1.12598 -0.00207125 0)
(1.12645 -0.00167812 0)
(1.12679 -0.00125761 0)
(1.127 -0.000821692 0)
(1.12707 -0.000381859 0)
(1.12699 4.7463e-05 0)
(1.12678 0.000451243 0)
(1.12645 0.000823334 0)
(1.12599 0.0011605 0)
(1.12544 0.00146124 0)
(1.1248 0.00172515 0)
(1.12407 0.00195258 0)
(1.12328 0.00214414 0)
(1.12243 0.00230025 0)
(1.12152 0.00242076 0)
(1.12058 0.00250459 0)
(1.1196 0.00254974 0)
(1.11861 0.00255339 0)
(1.1176 0.00251244 0)
(1.1166 0.0024236 0)
(1.11561 0.00228275 0)
(1.11467 0.00208609 0)
(1.11377 0.00183209 0)
(1.11296 0.00152107 0)
(1.11223 0.00115734 0)
(1.11161 0.000745623 0)
(1.11113 0.000289916 0)
(1.11076 -0.000179645 0)
(1.11059 -0.000734465 0)
(1.11044 -0.00118357 0)
(1.11077 -0.00193444 0)
(1.32837 -0.00880856 0)
(1.33049 -0.00894685 0)
(1.33264 -0.00882817 0)
(1.3347 -0.00845889 0)
(1.33659 -0.00786579 0)
(1.33825 -0.00709938 0)
(1.3396 -0.00620917 0)
(1.34063 -0.00525013 0)
(1.34131 -0.00426759 0)
(1.34165 -0.00330005 0)
(1.34165 -0.00238577 0)
(1.34136 -0.00156007 0)
(1.34082 -0.000845236 0)
(1.34007 -0.000234077 0)
(1.33914 0.000287776 0)
(1.33807 0.000737205 0)
(1.33689 0.00113336 0)
(1.33561 0.00149604 0)
(1.33426 0.00184354 0)
(1.33283 0.00219076 0)
(1.33132 0.00254644 0)
(1.32973 0.00291156 0)
(1.32803 0.00327822 0)
(1.32623 0.00363055 0)
(1.32433 0.0039471 0)
(1.32235 0.0042034 0)
(1.3203 0.00437406 0)
(1.31822 0.00443454 0)
(1.31615 0.00436275 0)
(1.31414 0.00414337 0)
(1.31225 0.00376965 0)
(1.31053 0.00324239 0)
(1.30904 0.00256723 0)