/*--------------------------------*- C++ -*----------------------------------*\
| =========                 |                                                 |
| \\      /  F ield         | OpenFOAM: The Open Source CFD Toolbox           |
|  \\    /   O peration     | Version:  2206                                  |
|   \\  /    A nd           | Website:  www.openfoam.com                      |
|    \\/     M anipulation  |                                                 |
\*---------------------------------------------------------------------------*/
FoamFile
{
    version     2.0;
    format      ascii;
    arch        "LSB;label=32;scalar=64";
    class       surfaceScalarField;
    location    "19.2";
    object      phi;
}
// * * * * * * * * * * * * * * * * * * * * * * * * * * * * * * * * * * * * * //

dimensions      [0 3 -1 0 0 0 0];

oriented        oriented;

internalField   nonuniform List<scalar> 
9559
(
9.92592e-06
2.49447e-07
-2.6388e-07
9.95025e-06
5.1479e-07
-5.39117e-07
9.98367e-06
7.74291e-07
-8.0771e-07
1.00252e-05
1.02504e-06
-1.06661e-06
1.00739e-05
1.26435e-06
-1.31305e-06
1.01287e-05
1.48986e-06
-1.54458e-06
1.01882e-05
1.69957e-06
-1.75915e-06
1.02515e-05
1.8919e-06
-1.95518e-06
1.03174e-05
2.06571e-06
-2.13158e-06
1.03848e-05
2.22033e-06
-2.28771e-06
1.04527e-05
2.35545e-06
-2.42335e-06
1.05202e-05
2.47117e-06
-2.53868e-06
1.05866e-05
2.56793e-06
-2.6343e-06
1.06512e-05
2.6464e-06
-2.71105e-06
1.07138e-05
2.70732e-06
-2.76991e-06
1.07743e-05
2.75137e-06
-2.81185e-06
1.08329e-05
2.77889e-06
-2.83751e-06
1.089e-05
2.78939e-06
-2.84652e-06
1.09458e-05
2.78177e-06
-2.83752e-06
1.10002e-05
2.75564e-06
-2.8101e-06
1.10537e-05
2.71079e-06
-2.76427e-06
1.11066e-05
2.64694e-06
-2.69984e-06
1.11594e-05
2.56366e-06
-2.6164e-06
1.12123e-05
2.46044e-06
-2.51337e-06
1.12657e-05
2.33678e-06
-2.39015e-06
1.13196e-05
2.19233e-06
-2.24626e-06
1.13741e-05
2.02697e-06
-2.08143e-06
1.14289e-05
1.8409e-06
-1.89575e-06
1.14839e-05
1.63478e-06
-1.68973e-06
1.15385e-05
1.40969e-06
-1.46437e-06
1.15925e-05
1.16724e-06
-1.22118e-06
1.16452e-05
9.095e-07
-9.62191e-07
1.16961e-05
6.39056e-07
-6.8995e-07
1.17445e-05
3.59118e-07
-4.07604e-07
1.17898e-05
7.39033e-08
-1.19138e-07
1.18308e-05
-2.10992e-07
1.69943e-07
1.18671e-05
-4.91312e-07
4.55054e-07
1.1898e-05
-7.63343e-07
7.32437e-07
1.19231e-05
-1.02363e-06
9.98574e-07
1.19419e-05
-1.26908e-06
1.25027e-06
1.19541e-05
-1.497e-06
1.48474e-06
1.19596e-05
-1.70519e-06
1.69969e-06
1.19583e-05
-1.89194e-06
1.8933e-06
1.19501e-05
-2.05607e-06
2.06428e-06
1.19351e-05
-2.19691e-06
2.21186e-06
1.19136e-05
-2.31429e-06
2.33579e-06
1.18858e-05
-2.40852e-06
2.43631e-06
1.1852e-05
-2.48028e-06
2.51414e-06
1.1812e-05
-2.53034e-06
2.57034e-06
1.17652e-05
-2.55899e-06
2.60577e-06
1.1711e-05
-2.56639e-06
2.62057e-06
1.165e-05
-2.55456e-06
2.6156e-06
1.15827e-05
-2.52631e-06
2.59357e-06
1.151e-05
-2.48437e-06
2.55709e-06
1.14328e-05
-2.43127e-06
2.50849e-06
1.13521e-05
-2.36906e-06
2.44971e-06
1.12692e-05
-2.29917e-06
2.38206e-06
1.11853e-05
-2.22233e-06
2.30623e-06
1.11016e-05
-2.13858e-06
2.22225e-06
1.10194e-05
-2.04734e-06
2.1296e-06
1.09396e-05
-1.94762e-06
2.02738e-06
1.08633e-05
-1.83821e-06
1.91449e-06
1.07914e-05
-1.7179e-06
1.7898e-06
1.07247e-05
-1.58562e-06
1.65233e-06
1.0664e-05
-1.44061e-06
1.5014e-06
1.06098e-05
-1.28252e-06
1.33671e-06
1.05628e-05
-1.11141e-06
1.15842e-06
1.05234e-05
-9.27846e-07
9.67175e-07
1.04922e-05
-7.32877e-07
7.64114e-07
1.04694e-05
-5.27965e-07
5.50801e-07
1.04551e-05
-3.14966e-07
3.29196e-07
1.04496e-05
-9.61097e-08
1.01656e-07
1.04526e-05
1.25968e-07
-1.28984e-07
1.04639e-05
3.47959e-07
-3.59215e-07
1.04829e-05
5.67149e-07
-5.86244e-07
1.05094e-05
7.81138e-07
-8.07556e-07
1.05425e-05
9.87589e-07
-1.02071e-06
1.05816e-05
1.18431e-06
-1.22344e-06
1.0626e-05
1.36931e-06
-1.41368e-06
1.06748e-05
1.54085e-06
-1.58963e-06
1.07271e-05
1.69752e-06
-1.74984e-06
1.07821e-05
1.83823e-06
-1.89321e-06
1.08388e-05
1.96228e-06
-2.01902e-06
1.08965e-05
2.06932e-06
-2.12697e-06
1.09543e-05
2.15935e-06
-2.21714e-06
1.10116e-05
2.23268e-06
-2.28996e-06
1.10679e-05
2.28979e-06
-2.34612e-06
1.1123e-05
2.33125e-06
-2.38639e-06
1.11771e-05
2.35737e-06
-2.41139e-06
1.12301e-05
2.3679e-06
-2.42094e-06
1.12821e-05
2.36213e-06
-2.4141e-06
1.13328e-05
2.34006e-06
-2.3908e-06
1.13823e-05
2.30194e-06
-2.35147e-06
1.14308e-05
2.24809e-06
-2.29657e-06
1.14785e-05
2.17873e-06
-2.2264e-06
1.15256e-05
2.09401e-06
-2.14115e-06
1.15725e-05
1.99401e-06
-2.04086e-06
1.16192e-05
1.87879e-06
-1.92553e-06
1.16659e-05
1.74844e-06
-1.79515e-06
1.17126e-05
1.60317e-06
-1.64984e-06
1.17591e-05
1.44334e-06
-1.48986e-06
1.18053e-05
1.26956e-06
-1.31572e-06
1.18508e-05
1.08266e-06
-1.12818e-06
1.18953e-05
8.83746e-07
-9.28277e-07
1.19385e-05
6.7421e-07
-7.17363e-07
1.19798e-05
4.55727e-07
-4.97085e-07
1.20189e-05
2.30363e-07
-2.69462e-07
1.20552e-05
8.15944e-10
-3.70511e-08
1.20878e-05
-2.29097e-07
1.96459e-07
1.21164e-05
-4.56196e-07
4.276e-07
1.21405e-05
-6.77712e-07
6.53592e-07
1.21598e-05
-8.90931e-07
8.71696e-07
1.21737e-05
-1.09324e-06
1.07927e-06
1.21821e-05
-1.28222e-06
1.27385e-06
1.21846e-05
-1.45569e-06
1.45321e-06
1.21809e-05
-1.6118e-06
1.61545e-06
1.2171e-05
-1.74914e-06
1.75906e-06
1.21548e-05
-1.86672e-06
1.88295e-06
1.21323e-05
-1.96408e-06
1.98659e-06
1.21036e-05
-2.04127e-06
2.06994e-06
1.20688e-05
-2.0986e-06
2.13342e-06
1.20274e-05
-2.13627e-06
2.17762e-06
1.19787e-05
-2.15394e-06
2.20266e-06
1.19226e-05
-2.1522e-06
2.20832e-06
1.18598e-05
-2.13336e-06
2.19613e-06
1.17912e-05
-2.09985e-06
2.16845e-06
1.17178e-05
-2.05416e-06
2.12759e-06
1.16407e-05
-1.99853e-06
2.07565e-06
1.15611e-05
-1.9348e-06
2.01442e-06
1.14802e-05
-1.86423e-06
1.94514e-06
1.13991e-05
-1.78745e-06
1.86852e-06
1.13189e-05
-1.70453e-06
1.78475e-06
1.12404e-05
-1.61497e-06
1.69345e-06
1.11644e-05
-1.51829e-06
1.59432e-06
1.10914e-05
-1.41229e-06
1.48523e-06
1.10219e-05
-1.30142e-06
1.37092e-06
1.09568e-05
-1.16152e-06
1.2266e-06
1.08952e-05
-1.05553e-06
1.1172e-06
-8.10763e-07
8.64706e-07
9.85663e-06
2.38089e-07
9.87868e-06
4.92742e-07
9.91066e-06
7.42312e-07
9.95167e-06
9.84028e-07
1.00007e-05
1.21533e-06
1.00566e-05
1.43391e-06
1.01184e-05
1.63784e-06
1.01847e-05
1.82556e-06
1.02545e-05
1.99591e-06
1.03267e-05
2.14814e-06
1.04003e-05
2.2819e-06
1.04742e-05
2.39718e-06
1.05479e-05
2.49428e-06
1.06206e-05
2.57365e-06
1.06921e-05
2.63581e-06
1.07623e-05
2.68118e-06
1.08314e-05
2.70983e-06
1.08996e-05
2.72118e-06
1.0967e-05
2.71434e-06
1.10338e-05
2.68891e-06
1.11e-05
2.64458e-06
1.11659e-05
2.581e-06
1.12318e-05
2.49773e-06
1.12979e-05
2.39433e-06
1.13643e-05
2.2704e-06
1.1431e-05
2.12571e-06
1.14977e-05
1.96027e-06
1.15641e-05
1.77444e-06
1.16299e-05
1.56898e-06
1.16945e-05
1.34508e-06
1.17574e-05
1.1044e-06
1.18178e-05
8.49066e-07
1.18752e-05
5.81679e-07
1.19287e-05
3.05556e-07
1.19775e-05
2.51327e-08
1.20206e-05
-2.54062e-07
1.20574e-05
-5.281e-07
1.20874e-05
-7.93327e-07
1.21101e-05
-1.04638e-06
1.21253e-05
-1.28427e-06
1.21327e-05
-1.50443e-06
1.21323e-05
-1.70478e-06
1.21241e-05
-1.88374e-06
1.21083e-05
-2.04021e-06
1.2085e-05
-2.17362e-06
1.20546e-05
-2.28389e-06
1.20174e-05
-2.3713e-06
1.19735e-05
-2.4364e-06
1.19227e-05
-2.47951e-06
1.18642e-05
-2.50057e-06
1.17983e-05
-2.50042e-06
1.17254e-05
-2.48173e-06
1.16464e-05
-2.44732e-06
1.15621e-05
-2.40007e-06
1.14735e-05
-2.34265e-06
1.13817e-05
-2.27725e-06
1.1288e-05
-2.20542e-06
1.11936e-05
-2.12792e-06
1.10998e-05
-2.04479e-06
1.10078e-05
-1.95538e-06
1.09188e-05
-1.8586e-06
1.08337e-05
-1.75315e-06
1.07535e-05
-1.63768e-06
1.0679e-05
-1.51107e-06
1.06108e-05
-1.37248e-06
1.05498e-05
-1.22147e-06
1.04964e-05
-1.05806e-06
1.04513e-05
-8.82726e-07
1.04148e-05
-6.96424e-07
1.03874e-05
-5.00521e-07
1.03692e-05
-2.96767e-07
1.03604e-05
-8.72597e-08
1.03608e-05
1.25549e-07
1.03702e-05
3.38563e-07
1.03882e-05
5.49161e-07
1.04142e-05
7.55059e-07
1.04478e-05
9.54032e-07
1.04881e-05
1.14398e-06
1.05344e-05
1.32298e-06
1.05859e-05
1.48938e-06
1.06416e-05
1.6418e-06
1.07007e-05
1.77918e-06
1.07622e-05
1.9008e-06
1.08252e-05
2.00626e-06
1.08891e-05
2.09549e-06
1.09531e-05
2.16865e-06
1.10168e-05
2.22606e-06
1.108e-05
2.26805e-06
1.11427e-05
2.29472e-06
1.12048e-05
2.30575e-06
1.12664e-05
2.30062e-06
1.13271e-05
2.27933e-06
1.1387e-05
2.24204e-06
1.14461e-05
2.18896e-06
1.15046e-05
2.12024e-06
1.15626e-05
2.03603e-06
1.16202e-05
1.93641e-06
1.16775e-05
1.82151e-06
1.17344e-05
1.6915e-06
1.17909e-05
1.54668e-06
1.18467e-05
1.38751e-06
1.19016e-05
1.21469e-06
1.19551e-05
1.02911e-06
1.20069e-05
8.31945e-07
1.20565e-05
6.24611e-07
1.21034e-05
4.08814e-07
1.21471e-05
1.86676e-07
1.21869e-05
-3.89137e-08
1.22219e-05
-2.64154e-07
1.22518e-05
-4.86121e-07
1.22762e-05
-7.02066e-07
1.22946e-05
-9.09311e-07
1.23066e-05
-1.10529e-06
1.2312e-05
-1.28762e-06
1.23105e-05
-1.45419e-06
1.2302e-05
-1.60325e-06
1.22863e-05
-1.73346e-06
1.22635e-05
-1.84394e-06
1.22337e-05
-1.93432e-06
1.21971e-05
-2.00462e-06
1.21534e-05
-2.05492e-06
1.2102e-05
-2.08488e-06
1.20425e-05
-2.09439e-06
1.19754e-05
-2.08512e-06
1.19016e-05
-2.05954e-06
1.1822e-05
-2.02028e-06
1.17378e-05
-1.96998e-06
1.16503e-05
-1.911e-06
1.15607e-05
-1.84521e-06
1.14703e-05
-1.77386e-06
1.13804e-05
-1.6975e-06
1.12919e-05
-1.61605e-06
1.12058e-05
-1.52884e-06
1.11227e-05
-1.43522e-06
1.10433e-05
-1.33289e-06
1.09679e-05
-1.22605e-06
1.08976e-05
-1.09123e-06
1.08313e-05
-9.89168e-07
-7.53175e-07
9.80223e-06
2.29631e-07
9.82206e-06
4.72915e-07
9.85253e-06
7.1184e-07
9.89279e-06
9.4377e-07
9.94186e-06
1.16626e-06
9.99867e-06
1.3771e-06
1.00621e-05
1.57442e-06
1.0131e-05
1.75667e-06
1.02042e-05
1.92269e-06
1.02807e-05
2.0717e-06
1.03593e-05
2.20326e-06
1.04392e-05
2.31727e-06
1.05196e-05
2.41385e-06
1.06e-05
2.49328e-06
1.068e-05
2.55583e-06
1.07595e-05
2.60169e-06
1.08386e-05
2.63072e-06
1.09175e-05
2.64228e-06
1.09962e-05
2.63561e-06
1.10747e-05
2.61036e-06
1.11532e-05
2.56613e-06
1.12317e-05
2.50253e-06
1.13103e-05
2.41914e-06
1.1389e-05
2.31558e-06
1.14679e-05
2.19155e-06
1.15466e-05
2.04696e-06
1.16249e-05
1.88194e-06
1.17024e-05
1.69699e-06
1.17784e-05
1.49298e-06
1.18523e-05
1.27119e-06
1.19234e-05
1.03333e-06
1.19909e-05
7.81544e-07
1.20541e-05
5.18476e-07
1.21121e-05
2.47502e-07
1.21638e-05
-2.65514e-08
1.22084e-05
-2.98617e-07
1.22452e-05
-5.64941e-07
1.22739e-05
-8.21973e-07
1.22939e-05
-1.06647e-06
1.23052e-05
-1.29556e-06
1.23076e-05
-1.50684e-06
1.23012e-05
-1.69834e-06
1.22861e-05
-1.86861e-06
1.22625e-05
-2.01667e-06
1.22309e-05
-2.14203e-06
1.21917e-05
-2.24463e-06
1.21451e-05
-2.32468e-06
1.20911e-05
-2.38242e-06
1.20293e-05
-2.41773e-06
1.19594e-05
-2.43063e-06
1.18819e-05
-2.42294e-06
1.17975e-05
-2.39738e-06
1.17071e-05
-2.3569e-06
1.16116e-05
-2.30451e-06
1.15119e-05
-2.24303e-06
1.14095e-05
-2.17478e-06
1.13054e-05
-2.10138e-06
1.12012e-05
-2.02367e-06
1.1098e-05
-1.94162e-06
1.09971e-05
-1.85452e-06
1.08997e-05
-1.76117e-06
1.08067e-05
-1.66013e-06
1.0719e-05
-1.54999e-06
1.06375e-05
-1.42952e-06
1.05628e-05
-1.29781e-06
1.04957e-05
-1.15437e-06
1.04368e-05
-9.99135e-07
1.03866e-05
-8.32529e-07
1.03456e-05
-6.55409e-07
1.03141e-05
-4.6905e-07
1.02924e-05
-2.75095e-07
1.02807e-05
-7.55091e-08
1.02788e-05
1.27421e-07
1.02865e-05
3.30829e-07
1.03035e-05
5.32188e-07
1.03292e-05
7.29336e-07
1.03631e-05
9.20159e-07
1.04044e-05
1.10266e-06
1.04524e-05
1.275e-06
1.05062e-05
1.4356e-06
1.05649e-05
1.58312e-06
1.06275e-05
1.71651e-06
1.06933e-05
1.83503e-06
1.07613e-05
1.93826e-06
1.08308e-05
2.02602e-06
1.09011e-05
2.09835e-06
1.09718e-05
2.15538e-06
1.10426e-05
2.19724e-06
1.11134e-05
2.22389e-06
1.11842e-05
2.23493e-06
1.12549e-05
2.22998e-06
1.13251e-05
2.20907e-06
1.13949e-05
2.17227e-06
1.14641e-05
2.1197e-06
1.15329e-05
2.05148e-06
1.16012e-05
1.96773e-06
1.1669e-05
1.86858e-06
1.17364e-05
1.7542e-06
1.1803e-05
1.62483e-06
1.18688e-05
1.48088e-06
1.19335e-05
1.32288e-06
1.19965e-05
1.15161e-06
1.20576e-05
9.68033e-07
1.21162e-05
7.73359e-07
1.21718e-05
5.69035e-07
1.22238e-05
3.56789e-07
1.22717e-05
1.38815e-07
1.23145e-05
-8.17259e-08
1.23516e-05
-3.01269e-07
1.23825e-05
-5.1706e-07
1.24068e-05
-7.26381e-07
1.24241e-05
-9.26601e-07
1.2434e-05
-1.1152e-06
1.24363e-05
-1.28988e-06
1.24307e-05
-1.44858e-06
1.24171e-05
-1.58968e-06
1.23956e-05
-1.71194e-06
1.23662e-05
-1.81456e-06
1.23291e-05
-1.89721e-06
1.22843e-05
-1.95979e-06
1.22313e-05
-2.00193e-06
1.21695e-05
-2.0231e-06
1.20992e-05
-2.02407e-06
1.20212e-05
-2.0071e-06
1.19364e-05
-1.97479e-06
1.18461e-05
-1.92997e-06
1.17515e-05
-1.8754e-06
1.16541e-05
-1.81353e-06
1.15551e-05
-1.74624e-06
1.1456e-05
-1.67474e-06
1.13579e-05
-1.59946e-06
1.1262e-05
-1.52015e-06
1.11691e-05
-1.43594e-06
1.10799e-05
-1.34598e-06
1.09949e-05
-1.24791e-06
1.09145e-05
-1.14568e-06
1.08399e-05
-1.01658e-06
1.07696e-05
-9.18937e-07
-6.92725e-07
9.76157e-06
2.23835e-07
9.7793e-06
4.55189e-07
9.80826e-06
6.82878e-07
9.84766e-06
9.04376e-07
9.89656e-06
1.11735e-06
9.95395e-06
1.31971e-06
1.00187e-05
1.50964e-06
1.00898e-05
1.68562e-06
1.0166e-05
1.84651e-06
1.02462e-05
1.99148e-06
1.03294e-05
2.12003e-06
1.04147e-05
2.23193e-06
1.05015e-05
2.32714e-06
1.0589e-05
2.40575e-06
1.0677e-05
2.46784e-06
1.07653e-05
2.51338e-06
1.0854e-05
2.54202e-06
1.09431e-05
2.55313e-06
1.10326e-05
2.54609e-06
1.11225e-05
2.52053e-06
1.12126e-05
2.47601e-06
1.1303e-05
2.41213e-06
1.13936e-05
2.32852e-06
1.14843e-05
2.22485e-06
1.1575e-05
2.10094e-06
1.16651e-05
1.95681e-06
1.17543e-05
1.79274e-06
1.1842e-05
1.60933e-06
1.19274e-05
1.40756e-06
1.20098e-05
1.18879e-06
1.20883e-05
9.54775e-07
1.21622e-05
7.07671e-07
1.22305e-05
4.50147e-07
1.22923e-05
1.85724e-07
1.23463e-05
-8.05124e-08
1.23917e-05
-3.44082e-07
1.24281e-05
-6.01342e-07
1.2455e-05
-8.48876e-07
1.24721e-05
-1.08358e-06
1.24793e-05
-1.30274e-06
1.24766e-05
-1.50408e-06
1.2464e-05
-1.68582e-06
1.2442e-05
-1.8466e-06
1.24109e-05
-1.98556e-06
1.23712e-05
-2.10228e-06
1.23232e-05
-2.19664e-06
1.22672e-05
-2.26869e-06
1.2203e-05
-2.31824e-06
1.21302e-05
-2.34494e-06
1.20491e-05
-2.34947e-06
1.19603e-05
-2.33417e-06
1.18647e-05
-2.30177e-06
1.17631e-05
-2.25535e-06
1.16567e-05
-2.19809e-06
1.15466e-05
-2.13291e-06
1.1434e-05
-2.06222e-06
1.13204e-05
-1.98775e-06
1.12071e-05
-1.91033e-06
1.10953e-05
-1.82991e-06
1.09865e-05
-1.74565e-06
1.08816e-05
-1.65624e-06
1.07815e-05
-1.56011e-06
1.06873e-05
-1.45575e-06
1.05996e-05
-1.34187e-06
1.05193e-05
-1.21749e-06
1.0447e-05
-1.08205e-06
1.03833e-05
-9.3544e-07
1.03288e-05
-7.78003e-07
1.02839e-05
-6.10517e-07
1.0249e-05
-4.34164e-07
1.02244e-05
-2.5048e-07
1.02102e-05
-6.12968e-08
1.02064e-05
1.31243e-07
1.02127e-05
3.24521e-07
1.02287e-05
5.16103e-07
1.02541e-05
7.03945e-07
1.02882e-05
8.8605e-07
1.03304e-05
1.06052e-06
1.03798e-05
1.22562e-06
1.04355e-05
1.37982e-06
1.04968e-05
1.52182e-06
1.05628e-05
1.6506e-06
1.06324e-05
1.76541e-06
1.07049e-05
1.86576e-06
1.07795e-05
1.95138e-06
1.08556e-05
2.02221e-06
1.09328e-05
2.0782e-06
1.10108e-05
2.11931e-06
1.10893e-05
2.14534e-06
1.11683e-05
2.1559e-06
1.12476e-05
2.15072e-06
1.13269e-05
2.1298e-06
1.1406e-05
2.09316e-06
1.14848e-05
2.04086e-06
1.15633e-05
1.973e-06
1.16413e-05
1.8897e-06
1.17188e-05
1.79111e-06
1.17955e-05
1.67745e-06
1.18713e-05
1.54905e-06
1.19458e-05
1.40638e-06
1.20187e-05
1.25006e-06
1.20893e-05
1.08093e-06
1.21574e-05
9.00013e-07
1.22222e-05
7.08552e-07
1.22832e-05
5.0801e-07
1.23398e-05
3.00144e-07
1.23914e-05
8.72801e-08
1.24368e-05
-1.27172e-07
1.24756e-05
-3.40051e-07
1.25072e-05
-5.48672e-07
1.25312e-05
-7.50365e-07
1.25471e-05
-9.42547e-07
1.25547e-05
-1.12278e-06
1.25537e-05
-1.28882e-06
1.25438e-05
-1.43873e-06
1.25251e-05
-1.57098e-06
1.24976e-05
-1.68447e-06
1.24616e-05
-1.77847e-06
1.24169e-05
-1.85257e-06
1.23635e-05
-1.90637e-06
1.23007e-05
-1.93914e-06
1.22284e-05
-1.95077e-06
1.21473e-05
-1.94299e-06
1.20584e-05
-1.91822e-06
1.19629e-05
-1.8793e-06
1.18622e-05
-1.82923e-06
1.17577e-05
-1.77088e-06
1.16509e-05
-1.70672e-06
1.15432e-05
-1.63861e-06
1.14362e-05
-1.5677e-06
1.1331e-05
-1.49426e-06
1.12287e-05
-1.41781e-06
1.113e-05
-1.33723e-06
1.10355e-05
-1.25156e-06
1.09459e-05
-1.15825e-06
1.08614e-05
-1.06123e-06
1.07833e-05
-9.38459e-07
1.07101e-05
-8.45706e-07
-6.30214e-07
9.73343e-06
2.20401e-07
9.74927e-06
4.39343e-07
9.7768e-06
6.55356e-07
9.81529e-06
8.65883e-07
9.86391e-06
1.06872e-06
9.92169e-06
1.26193e-06
9.98755e-06
1.44377e-06
1.00604e-05
1.61276e-06
1.01392e-05
1.76777e-06
1.02227e-05
1.90793e-06
1.03101e-05
2.03267e-06
1.04004e-05
2.14162e-06
1.04929e-05
2.23461e-06
1.05871e-05
2.31154e-06
1.06826e-05
2.37232e-06
1.07793e-05
2.41671e-06
1.08771e-05
2.44425e-06
1.09759e-05
2.45429e-06
1.10757e-05
2.44634e-06
1.11762e-05
2.42003e-06
1.12773e-05
2.37489e-06
1.13789e-05
2.31054e-06
1.14808e-05
2.22664e-06
1.15827e-05
2.12296e-06
1.16842e-05
1.99942e-06
1.17849e-05
1.85615e-06
1.18841e-05
1.69356e-06
1.1981e-05
1.51237e-06
1.20749e-05
1.31364e-06
1.21649e-05
1.09879e-06
1.22501e-05
8.6963e-07
1.23295e-05
6.283e-07
1.24021e-05
3.77508e-07
1.24668e-05
1.21015e-07
1.25224e-05
-1.36095e-07
1.25682e-05
-3.89883e-07
1.26037e-05
-6.36828e-07
1.26285e-05
-8.73665e-07
1.26423e-05
-1.09745e-06
1.26452e-05
-1.30564e-06
1.26373e-05
-1.49612e-06
1.26187e-05
-1.66725e-06
1.25899e-05
-1.81783e-06
1.25514e-05
-1.94706e-06
1.25037e-05
-2.05454e-06
1.24471e-05
-2.14005e-06
1.23817e-05
-2.20332e-06
1.23073e-05
-2.24377e-06
1.22236e-05
-2.26128e-06
1.21315e-05
-2.25735e-06
1.20317e-05
-2.23435e-06
1.19251e-05
-2.19517e-06
1.18128e-05
-2.14304e-06
1.16959e-05
-2.08125e-06
1.15758e-05
-2.01283e-06
1.14539e-05
-1.94027e-06
1.13315e-05
-1.86532e-06
1.121e-05
-1.78884e-06
1.10907e-05
-1.71066e-06
1.09749e-05
-1.62981e-06
1.08635e-05
-1.54484e-06
1.07574e-05
-1.45407e-06
1.06576e-05
-1.35594e-06
1.05648e-05
-1.24907e-06
1.04798e-05
-1.13243e-06
1.04031e-05
-1.00539e-06
1.03355e-05
-8.678e-07
1.02774e-05
-7.19921e-07
1.02293e-05
-5.62457e-07
1.01917e-05
-3.96497e-07
1.01646e-05
-2.23469e-07
1.01484e-05
-4.50878e-08
1.0143e-05
1.36652e-07
1.01482e-05
3.19377e-07
1.01635e-05
5.00743e-07
1.01887e-05
6.78826e-07
1.0223e-05
8.51738e-07
1.02658e-05
1.01769e-06
1.03164e-05
1.17503e-06
1.03739e-05
1.32229e-06
1.04375e-05
1.45822e-06
1.05063e-05
1.58182e-06
1.05794e-05
1.69231e-06
1.0656e-05
1.78916e-06
1.07354e-05
1.87202e-06
1.08169e-05
1.94068e-06
1.09001e-05
1.99497e-06
1.09847e-05
2.03471e-06
1.10705e-05
2.05956e-06
1.11572e-05
2.06917e-06
1.12446e-05
2.06334e-06
1.13323e-05
2.04207e-06
1.14202e-05
2.0053e-06
1.1508e-05
1.95307e-06
1.15955e-05
1.88546e-06
1.16826e-05
1.80259e-06
1.17691e-05
1.70467e-06
1.18546e-05
1.59195e-06
1.19388e-05
1.46484e-06
1.20213e-05
1.32386e-06
1.21016e-05
1.16972e-06
1.21793e-05
1.00331e-06
1.22536e-05
8.25701e-07
1.2324e-05
6.38142e-07
1.23899e-05
4.42112e-07
1.24506e-05
2.39433e-07
1.25052e-05
3.26425e-08
1.25528e-05
-1.74792e-07
1.25929e-05
-3.80082e-07
1.26248e-05
-5.80587e-07
1.26481e-05
-7.73695e-07
1.26624e-05
-9.56872e-07
1.26674e-05
-1.12776e-06
1.26628e-05
-1.28423e-06
1.26486e-05
-1.42445e-06
1.26246e-05
-1.54702e-06
1.2591e-05
-1.65092e-06
1.2548e-05
-1.73547e-06
1.24955e-05
-1.80005e-06
1.2433e-05
-1.84382e-06
1.236e-05
-1.86613e-06
1.22771e-05
-1.86786e-06
1.21852e-05
-1.85113e-06
1.20856e-05
-1.81861e-06
1.19796e-05
-1.77334e-06
1.18689e-05
-1.7185e-06
1.1755e-05
-1.65699e-06
1.16396e-05
-1.59131e-06
1.15243e-05
-1.52328e-06
1.14104e-05
-1.45387e-06
1.12992e-05
-1.38303e-06
1.11915e-05
-1.31008e-06
1.1088e-05
-1.23374e-06
1.09894e-05
-1.15295e-06
1.08961e-05
-1.06492e-06
1.08085e-05
-9.73671e-07
1.07278e-05
-8.57796e-07
1.06525e-05
-7.70365e-07
-5.66447e-07
9.71665e-06
2.19111e-07
9.73078e-06
4.25214e-07
9.7569e-06
6.29233e-07
9.79454e-06
8.28239e-07
9.84289e-06
1.02038e-06
9.90095e-06
1.20387e-06
9.96772e-06
1.377e-06
1.00421e-05
1.53836e-06
1.01231e-05
1.6868e-06
1.02096e-05
1.82142e-06
1.03007e-05
1.94157e-06
1.03956e-05
2.04676e-06
1.04935e-05
2.1367e-06
1.05939e-05
2.21112e-06
1.06964e-05
2.26976e-06
1.08009e-05
2.31222e-06
1.09073e-05
2.33793e-06
1.10152e-05
2.34635e-06
1.11245e-05
2.33704e-06
1.12349e-05
2.30958e-06
1.13463e-05
2.26355e-06
1.14583e-05
2.19857e-06
1.15705e-05
2.11438e-06
1.16827e-05
2.01083e-06
1.17941e-05
1.88794e-06
1.19043e-05
1.74596e-06
1.20125e-05
1.58541e-06
1.21177e-05
1.40711e-06
1.22191e-05
1.21222e-06
1.23157e-05
1.00221e-06
1.24065e-05
7.78875e-07
1.24904e-05
5.44343e-07
1.25665e-05
3.014e-07
1.26334e-05
5.41867e-08
1.26899e-05
-1.92621e-07
1.27355e-05
-4.3546e-07
1.27696e-05
-6.70956e-07
1.27919e-05
-8.96014e-07
1.28024e-05
-1.10787e-06
1.28009e-05
-1.30416e-06
1.27877e-05
-1.48294e-06
1.27632e-05
-1.64273e-06
1.27278e-05
-1.78246e-06
1.26821e-05
-1.90136e-06
1.26266e-05
-1.99899e-06
1.25615e-05
-2.07493e-06
1.24866e-05
-2.1285e-06
1.24019e-05
-2.15903e-06
1.23077e-05
-2.16706e-06
1.22048e-05
-2.15447e-06
1.20942e-05
-2.12373e-06
1.19769e-05
-2.0779e-06
1.18542e-05
-2.02035e-06
1.17274e-05
-1.95448e-06
1.1598e-05
-1.88341e-06
1.14674e-05
-1.80969e-06
1.13373e-05
-1.73514e-06
1.12088e-05
-1.66039e-06
1.10832e-05
-1.58506e-06
1.09615e-05
-1.50809e-06
1.08446e-05
-1.428e-06
1.07336e-05
-1.34306e-06
1.06293e-05
-1.25158e-06
1.05323e-05
-1.15212e-06
1.04435e-05
-1.04359e-06
1.03634e-05
-9.25316e-07
1.02927e-05
-7.97075e-07
1.02318e-05
-6.59078e-07
1.01813e-05
-5.11951e-07
1.01415e-05
-3.56692e-07
1.01127e-05
-1.94627e-07
1.0095e-05
-2.73587e-08
1.00883e-05
1.43264e-07
1.00926e-05
3.15106e-07
1.01074e-05
4.85914e-07
1.01324e-05
6.53875e-07
1.01669e-05
8.1721e-07
1.02104e-05
9.74228e-07
1.02621e-05
1.12336e-06
1.03211e-05
1.26322e-06
1.03868e-05
1.39258e-06
1.04581e-05
1.51046e-06
1.05343e-05
1.61608e-06
1.06147e-05
1.70884e-06
1.06984e-05
1.78832e-06
1.07849e-05
1.85419e-06
1.08737e-05
1.90615e-06
1.09645e-05
1.9439e-06
1.1057e-05
1.96704e-06
1.11509e-05
1.97527e-06
1.12458e-05
1.96844e-06
1.13414e-05
1.94648e-06
1.14374e-05
1.90932e-06
1.15335e-05
1.85698e-06
1.16294e-05
1.78954e-06
1.17248e-05
1.70714e-06
1.18195e-05
1.61e-06
1.1913e-05
1.49846e-06
1.20049e-05
1.37295e-06
1.20946e-05
1.23409e-06
1.21817e-05
1.08263e-06
1.22655e-05
9.19507e-07
1.23454e-05
7.45806e-07
1.24208e-05
5.62796e-07
1.24909e-05
3.71975e-07
1.25551e-05
1.75251e-07
1.26122e-05
-2.45026e-08
1.26615e-05
-2.24084e-07
1.27024e-05
-4.20918e-07
1.27342e-05
-6.12408e-07
1.27565e-05
-7.96009e-07
1.27689e-05
-9.6925e-07
1.2771e-05
-1.12986e-06
1.27626e-05
-1.27584e-06
1.27437e-05
-1.40551e-06
1.27142e-05
-1.51755e-06
1.26743e-05
-1.61104e-06
1.2624e-05
-1.6852e-06
1.2563e-05
-1.73905e-06
1.24908e-05
-1.77153e-06
1.24073e-05
-1.78273e-06
1.23138e-05
-1.77428e-06
1.22112e-05
-1.74854e-06
1.2101e-05
-1.70845e-06
1.1985e-05
-1.65729e-06
1.18648e-05
-1.59831e-06
1.17423e-05
-1.5345e-06
1.16193e-05
-1.46833e-06
1.14975e-05
-1.40147e-06
1.1378e-05
-1.33444e-06
1.12619e-05
-1.26692e-06
1.115e-05
-1.19811e-06
1.10428e-05
-1.12658e-06
1.09411e-05
-1.05125e-06
1.08452e-05
-9.6898e-07
1.07555e-05
-8.84005e-07
1.06733e-05
-7.75558e-07
1.05967e-05
-6.93828e-07
-5.02217e-07
9.71009e-06
2.20211e-07
9.72202e-06
4.13284e-07
9.74716e-06
6.04093e-07
9.78429e-06
7.91108e-07
9.83247e-06
9.72213e-07
9.89081e-06
1.14552e-06
9.95835e-06
1.30945e-06
1.00341e-05
1.46263e-06
1.0117e-05
1.60388e-06
1.02062e-05
1.73228e-06
1.03006e-05
1.84709e-06
1.03996e-05
1.94776e-06
1.05025e-05
2.03385e-06
1.06087e-05
2.10495e-06
1.07178e-05
2.16066e-06
1.08295e-05
2.20044e-06
1.09438e-05
2.22372e-06
1.10601e-05
2.23001e-06
1.11782e-05
2.21892e-06
1.12978e-05
2.19e-06
1.14185e-05
2.14285e-06
1.15399e-05
2.07717e-06
1.16615e-05
1.99274e-06
1.17829e-05
1.8895e-06
1.19032e-05
1.76759e-06
1.20218e-05
1.62735e-06
1.21378e-05
1.46942e-06
1.22502e-05
1.29471e-06
1.2358e-05
1.10445e-06
1.246e-05
9.00138e-07
1.25554e-05
6.83513e-07
1.2643e-05
4.56718e-07
1.27217e-05
2.22756e-07
1.27898e-05
-1.39583e-08
1.28466e-05
-2.49425e-07
1.28914e-05
-4.80274e-07
1.29238e-05
-7.03313e-07
1.29434e-05
-9.15634e-07
1.29502e-05
-1.11467e-06
1.29443e-05
-1.29825e-06
1.2926e-05
-1.46461e-06
1.28956e-05
-1.61241e-06
1.28539e-05
-1.74067e-06
1.28012e-05
-1.84866e-06
1.27379e-05
-1.93577e-06
1.26642e-05
-2.00124e-06
1.25799e-05
-2.04413e-06
1.2485e-05
-2.06412e-06
1.23804e-05
-2.06244e-06
1.22669e-05
-2.04104e-06
1.21458e-05
-2.00258e-06
1.20182e-05
-1.95031e-06
1.18856e-05
-1.88774e-06
1.17495e-05
-1.81839e-06
1.16115e-05
-1.74545e-06
1.14734e-05
-1.67159e-06
1.13366e-05
-1.59835e-06
1.12023e-05
-1.52605e-06
1.10714e-05
-1.4542e-06
1.0945e-05
-1.38168e-06
1.0824e-05
-1.30696e-06
1.07092e-05
-1.22826e-06
1.06014e-05
-1.14382e-06
1.05014e-05
-1.05212e-06
1.04098e-05
-9.5201e-07
1.03273e-05
-8.42781e-07
1.02544e-05
-7.24157e-07
1.01916e-05
-5.96291e-07
1.01394e-05
-4.59734e-07
1.00981e-05
-3.15402e-07
1.0068e-05
-1.64524e-07
1.00492e-05
-8.5928e-09
1.00418e-05
1.50688e-07
1.00455e-05
3.11393e-07
1.006e-05
4.71394e-07
1.0085e-05
6.28959e-07
1.01198e-05
7.82412e-07
1.01638e-05
9.30161e-07
1.02165e-05
1.07072e-06
1.02769e-05
1.20276e-06
1.03444e-05
1.32511e-06
1.0418e-05
1.4368e-06
1.04971e-05
1.53702e-06
1.05808e-05
1.62514e-06
1.06685e-05
1.70065e-06
1.07595e-05
1.76313e-06
1.08535e-05
1.81217e-06
1.09501e-05
1.84736e-06
1.10488e-05
1.86832e-06
1.11493e-05
1.87477e-06
1.12511e-05
1.8666e-06
1.13539e-05
1.84367e-06
1.14573e-05
1.80591e-06
1.1561e-05
1.75333e-06
1.16645e-05
1.68601e-06
1.17675e-05
1.60412e-06
1.18696e-05
1.50792e-06
1.19703e-05
1.39779e-06
1.2069e-05
1.27423e-06
1.21652e-05
1.13789e-06
1.22583e-05
9.89598e-07
1.23475e-05
8.30292e-07
1.24322e-05
6.61074e-07
1.25118e-05
4.8322e-07
1.25855e-05
2.98249e-07
1.26525e-05
1.08291e-07
1.27115e-05
-8.35542e-08
1.2762e-05
-2.7452e-07
1.28031e-05
-4.62079e-07
1.28344e-05
-6.43692e-07
1.28553e-05
-8.16886e-07
1.28653e-05
-9.79279e-07
1.28642e-05
-1.12871e-06
1.28516e-05
-1.26331e-06
1.28277e-05
-1.38156e-06
1.27924e-05
-1.48226e-06
1.27458e-05
-1.56442e-06
1.26876e-05
-1.62704e-06
1.26173e-05
-1.66879e-06
1.25348e-05
-1.689e-06
1.24408e-05
-1.68872e-06
1.23365e-05
-1.66992e-06
1.22232e-05
-1.63529e-06
1.21028e-05
-1.58807e-06
1.19772e-05
-1.53169e-06
1.18484e-05
-1.46949e-06
1.17184e-05
-1.40452e-06
1.15892e-05
-1.33911e-06
1.14622e-05
-1.27442e-06
1.13383e-05
-1.21061e-06
1.12186e-05
-1.14716e-06
1.11036e-05
-1.08314e-06
1.0994e-05
-1.01698e-06
1.08904e-05
-9.47657e-07
1.0793e-05
-8.71598e-07
1.07023e-05
-7.93303e-07
1.06195e-05
-6.9274e-07
1.05427e-05
-6.17018e-07
-4.38301e-07
9.7124e-06
2.21993e-07
9.72381e-06
4.01878e-07
9.74794e-06
5.79963e-07
9.78431e-06
7.54738e-07
9.83215e-06
9.24374e-07
9.89058e-06
1.08709e-06
9.95869e-06
1.24135e-06
1.00355e-05
1.38579e-06
1.01201e-05
1.51925e-06
1.02116e-05
1.64078e-06
1.03092e-05
1.74958e-06
1.04119e-05
1.84499e-06
1.05193e-05
1.92647e-06
1.06307e-05
1.99351e-06
1.07459e-05
2.04553e-06
1.08643e-05
2.08197e-06
1.09858e-05
2.10228e-06
1.11097e-05
2.10603e-06
1.12359e-05
2.09281e-06
1.13637e-05
2.06218e-06
1.14928e-05
2.01378e-06
1.16226e-05
1.94737e-06
1.17525e-05
1.8628e-06
1.18819e-05
1.76012e-06
1.20099e-05
1.63954e-06
1.21358e-05
1.50152e-06
1.22584e-05
1.3468e-06
1.23767e-05
1.17639e-06
1.24896e-05
9.91522e-07
1.25961e-05
7.93674e-07
1.26951e-05
5.84553e-07
1.27854e-05
3.66389e-07
1.28656e-05
1.42563e-07
1.29343e-05
-8.2673e-08
1.29907e-05
-3.05864e-07
1.30343e-05
-5.2381e-07
1.30645e-05
-7.33514e-07
1.30811e-05
-9.32265e-07
1.30841e-05
-1.11771e-06
1.30738e-05
-1.28788e-06
1.30503e-05
-1.44118e-06
1.30143e-05
-1.57641e-06
1.29663e-05
-1.69263e-06
1.29067e-05
-1.78907e-06
1.28358e-05
-1.86483e-06
1.27533e-05
-1.91878e-06
1.26593e-05
-1.95012e-06
1.25544e-05
-1.95923e-06
1.24395e-05
-1.94754e-06
1.23157e-05
-1.91722e-06
1.21843e-05
-1.87116e-06
1.20468e-05
-1.8128e-06
1.19048e-05
-1.7458e-06
1.17602e-05
-1.67377e-06
1.16148e-05
-1.60006e-06
1.14704e-05
-1.52714e-06
1.13281e-05
-1.45609e-06
1.11891e-05
-1.38703e-06
1.10543e-05
-1.31937e-06
1.09245e-05
-1.25191e-06
1.08006e-05
-1.18304e-06
1.06833e-05
-1.11097e-06
1.05734e-05
-1.0339e-06
1.04715e-05
-9.5024e-07
1.03783e-05
-8.58791e-07
1.02943e-05
-7.58807e-07
1.02201e-05
-6.49974e-07
1.01562e-05
-5.32392e-07
1.0103e-05
-4.06548e-07
1.00609e-05
-2.73281e-07
1.00301e-05
-1.33728e-07
1.00108e-05
1.07277e-08
1.00029e-05
1.58518e-07
1.00064e-05
3.07911e-07
1.00209e-05
4.56941e-07
1.00459e-05
6.03914e-07
1.00811e-05
7.47259e-07
1.01258e-05
8.85475e-07
1.01793e-05
1.01716e-06
1.0241e-05
1.14104e-06
1.03102e-05
1.25599e-06
1.03859e-05
1.36105e-06
1.04676e-05
1.4554e-06
1.05543e-05
1.53836e-06
1.06456e-05
1.60936e-06
1.07409e-05
1.66788e-06
1.08396e-05
1.71344e-06
1.09414e-05
1.74557e-06
1.10458e-05
1.76393e-06
1.11523e-05
1.76828e-06
1.12604e-05
1.75847e-06
1.13697e-05
1.73433e-06
1.14799e-05
1.69579e-06
1.15903e-05
1.64286e-06
1.17007e-05
1.57566e-06
1.18104e-05
1.49436e-06
1.19191e-05
1.39927e-06
1.20261e-05
1.29081e-06
1.21308e-05
1.16953e-06
1.22325e-05
1.03614e-06
1.23306e-05
8.91475e-07
1.24244e-05
7.36488e-07
1.25132e-05
5.72284e-07
1.25963e-05
4.00136e-07
1.26729e-05
2.21644e-07
1.27419e-05
3.93061e-08
1.28023e-05
-1.43922e-07
1.28533e-05
-3.25536e-07
1.28942e-05
-5.03029e-07
1.29245e-05
-6.73916e-07
1.29434e-05
-8.35806e-07
1.29505e-05
-9.86437e-07
1.29456e-05
-1.12379e-06
1.29285e-05
-1.24616e-06
1.2899e-05
-1.35213e-06
1.28574e-05
-1.44059e-06
1.28033e-05
-1.5104e-06
1.27364e-05
-1.56007e-06
1.26561e-05
-1.58846e-06
1.25629e-05
-1.59587e-06
1.2458e-05
-1.58385e-06
1.23429e-05
-1.55475e-06
1.22192e-05
-1.51163e-06
1.20891e-05
-1.45798e-06
1.19548e-05
-1.39737e-06
1.18185e-05
-1.33323e-06
1.16826e-05
-1.26854e-06
1.15485e-05
-1.20509e-06
1.14176e-05
-1.14353e-06
1.12908e-05
-1.08378e-06
1.11688e-05
-1.02515e-06
1.10522e-05
-9.66547e-07
1.09415e-05
-9.06281e-07
1.08373e-05
-8.43409e-07
1.07397e-05
-7.73984e-07
1.0649e-05
-7.02664e-07
1.05666e-05
-6.10328e-07
1.04904e-05
-5.40839e-07
-3.75458e-07
9.72325e-06
2.24956e-07
9.73387e-06
3.91263e-07
9.75734e-06
5.56488e-07
9.79318e-06
7.189e-07
9.84074e-06
8.76815e-07
9.89923e-06
1.0286e-06
9.96782e-06
1.17276e-06
1.00456e-05
1.30799e-06
1.01317e-05
1.43313e-06
1.02253e-05
1.54719e-06
1.03256e-05
1.64933e-06
1.04317e-05
1.73882e-06
1.05432e-05
1.815e-06
1.06595e-05
1.87725e-06
1.07801e-05
1.92494e-06
1.09046e-05
1.95748e-06
1.10325e-05
1.97438e-06
1.11632e-05