/*--------------------------------*- C++ -*----------------------------------*\
| =========                 |                                                 |
| \\      /  F ield         | OpenFOAM: The Open Source CFD Toolbox           |
|  \\    /   O peration     | Version:  2206                                  |
|   \\  /    A nd           | Website:  www.openfoam.com                      |
|    \\/     M anipulation  |                                                 |
\*---------------------------------------------------------------------------*/
FoamFile
{
    version     2.0;
    format      ascii;
    arch        "LSB;label=32;scalar=64";
    class       volScalarField;
    location    "18.5001";
    object      p;
}
// * * * * * * * * * * * * * * * * * * * * * * * * * * * * * * * * * * * * * //

dimensions      [0 2 -2 0 0 0 0];

internalField   nonuniform List<scalar> 
3050
(
-1.56104
-1.40975
-1.29336
-1.10907
-0.855001
-0.584671
-0.339849
-0.14317
-0.00260914
0.0905779
0.141935
0.154244
0.130536
0.0692735
-0.0325935
-0.176304
-0.356516
-0.55782
-0.749271
-0.89508
-0.980446
-1.00132
-0.970222
-0.905162
-0.821789
-0.731169
-0.643712
-0.570119
-0.510924
-0.463772
-0.427483
-0.400531
-0.381594
-0.369436
-0.363028
-0.361887
-0.365602
-0.374176
-0.387958
-0.40632
-0.427598
-0.450941
-0.468804
-0.478284
-0.48293
-0.480533
-0.469891
-0.454375
-0.436263
-0.417532
-0.399973
-0.384973
-0.37348
-0.366057
-0.363101
-0.36551
-0.37523
-0.391754
-0.411735
-0.439502
-0.472002
-0.505459
-0.536314
-0.560394
-0.574
-0.576211
-0.566099
-0.545074
-0.515537
-0.480184
-0.441821
-0.402699
-0.363613
-0.326654
-0.295792
-0.270602
-0.250269
-0.234916
-0.224443
-0.218614
-0.217107
-0.219455
-0.225007
-0.232875
-0.241955
-0.251019
-0.258822
-0.264305
-0.266699
-0.265723
-0.261272
-0.253632
-0.243391
-0.231329
-0.218334
-0.205294
-1.31718
-1.34676
-1.2917
-1.1571
-0.965047
-0.758688
-0.566371
-0.405179
-0.279953
-0.187241
-0.132413
-0.100836
-0.0952437
-0.120123
-0.181144
-0.284627
-0.42904
-0.603649
-0.784442
-0.935522
-1.02955
-1.05935
-1.03193
-0.965318
-0.877363
-0.782299
-0.687953
-0.603345
-0.534424
-0.482952
-0.444147
-0.415975
-0.397204
-0.386121
-0.381878
-0.383934
-0.391951
-0.406101
-0.426334
-0.451464
-0.47941
-0.506868
-0.527041
-0.537783
-0.540103
-0.533255
-0.518157
-0.497793
-0.474823
-0.451631
-0.430137
-0.411793
-0.397588
-0.387904
-0.382731
-0.382737
-0.389654
-0.404567
-0.42347
-0.449752
-0.480788
-0.513206
-0.543474
-0.567561
-0.581771
-0.584887
-0.575982
-0.556232
-0.527885
-0.493566
-0.456052
-0.417904
-0.380635
-0.344457
-0.312778
-0.287561
-0.267453
-0.252265
-0.242022
-0.236509
-0.235415
-0.2383
-0.244522
-0.253164
-0.263062
-0.272866
-0.281235
-0.287043
-0.28943
-0.288109
-0.282969
-0.274345
-0.262897
-0.249502
-0.235134
-0.220747
-1.20687
-1.21381
-1.19763
-1.14348
-1.05491
-0.952987
-0.846095
-0.738965
-0.637002
-0.549525
-0.464439
-0.398774
-0.355824
-0.340163
-0.35625
-0.410389
-0.505935
-0.632935
-0.783193
-0.92325
-1.0192
-1.05944
-1.04353
-0.984097
-0.899323
-0.804859
-0.711074
-0.624299
-0.552078
-0.496346
-0.457233
-0.428819
-0.410868
-0.402011
-0.400981
-0.407113
-0.420398
-0.441125
-0.468626
-0.501042
-0.536422
-0.567881
-0.589464
-0.599769
-0.598983
-0.587043
-0.566283
-0.539989
-0.511259
-0.482816
-0.456695
-0.434355
-0.416778
-0.404199
-0.396274
-0.393772
-0.397659
-0.408845
-0.428449
-0.452452
-0.48087
-0.511505
-0.54057
-0.564182
-0.578841
-0.582714
-0.575348
-0.557466
-0.531105
-0.498738
-0.463023
-0.426492
-0.391143
-0.357627
-0.326569
-0.301256
-0.281804
-0.26724
-0.257598
-0.252738
-0.252342
-0.256015
-0.263145
-0.272782
-0.283655
-0.294277
-0.303259
-0.309364
-0.311635
-0.309825
-0.3038
-0.293964
-0.281082
-0.266141
-0.250189
-0.234265
-1.06548
-1.09032
-1.11568
-1.13371
-1.14868
-1.15023
-1.13626
-1.09546
-1.01644
-0.911612
-0.787841
-0.678737
-0.590566
-0.531206
-0.505405
-0.514492
-0.559778
-0.636468
-0.743681
-0.86062
-0.952786
-0.999475
-0.99857
-0.954251
-0.881211
-0.79467
-0.706456
-0.624786
-0.557163
-0.501782
-0.461988
-0.436579
-0.421132
-0.415488
-0.41854
-0.42966
-0.449079
-0.477102
-0.512687
-0.553702
-0.595406
-0.630412
-0.653285
-0.661687
-0.656819
-0.638902
-0.611527
-0.578517
-0.543414
-0.509206
-0.478068
-0.451433
-0.430112
-0.413993
-0.403219
-0.398438
-0.399944
-0.408013
-0.425568
-0.446942
-0.472635
-0.500961
-0.52832
-0.551049
-0.565838
-0.570433
-0.564818
-0.54922
-0.525406
-0.49568
-0.462531
-0.428353
-0.395176
-0.364381
-0.336048
-0.311401
-0.292535
-0.279
-0.270361
-0.266499
-0.267076
-0.271789
-0.280082
-0.290917
-0.302842
-0.314354
-0.323985
-0.330348
-0.332395
-0.329964
-0.322863
-0.31162
-0.297118
-0.28046
-0.262751
-0.245142
-0.969149
-1.00624
-1.06686
-1.14605
-1.24801
-1.35631
-1.43919
-1.45005
-1.37966
-1.24218
-1.0765
-0.913814
-0.774362
-0.666549
-0.596412
-0.566385
-0.572456
-0.615549
-0.678635
-0.760403
-0.841395
-0.891947
-0.903425
-0.877552
-0.822623
-0.751331
-0.675629
-0.604848
-0.544228
-0.495382
-0.458133
-0.43667
-0.425575
-0.424377
-0.432464
-0.449403
-0.475752
-0.511985
-0.556784
-0.60597
-0.652966
-0.691011
-0.714124
-0.720232
-0.709943
-0.68535
-0.650844
-0.610763
-0.569152
-0.529129
-0.493007
-0.461934
-0.436727
-0.4172
-0.40402
-0.397178
-0.396361
-0.401998
-0.415057
-0.43388
-0.457114
-0.482811
-0.508079
-0.529552
-0.5441
-0.549487
-0.54561
-0.532462
-0.511544
-0.484938
-0.454933
-0.423748
-0.393272
-0.365008
-0.339807
-0.317538
-0.299465
-0.286818
-0.279505
-0.277052
-0.278813
-0.284828
-0.294516
-0.306589
-0.31961
-0.332084
-0.342369
-0.348947
-0.350732
-0.347493
-0.339186
-0.326417
-0.31018
-0.291695
-0.272166
-0.252813
-0.357265
-0.363974
-0.36536
-0.361299
-0.35175
-0.337434
-0.319465
-0.299142
-0.27786
-0.25685
-0.748819
-0.743771
-0.737805
-0.731323
-0.724757
-0.718564
-0.713199
-0.709084
-0.706541
-0.705629
-0.706564
-0.707628
-0.706271
-0.701989
-0.695231
-0.6866
-0.676582
-0.665544
-0.653751
-0.641383
-0.628558
-0.615341
-0.601751
-0.587776
-0.57342
-0.558769
-0.543982
-0.529272
-0.514932
-0.50118
-0.48802
-0.475313
-0.754009
-0.749204
-0.743477
-0.737196
-0.730765
-0.724588
-0.719074
-0.714704
-0.711749
-0.710104
-0.709105
-0.707539
-0.704454
-0.699333
-0.692227
-0.683511
-0.673577
-0.662729
-0.65119
-0.639128
-0.626621
-0.613664
-0.600227
-0.586227
-0.57159
-0.556492
-0.541223
-0.52614
-0.511761
-0.498454
-0.486059
-0.474206
-0.76751
-0.763479
-0.758462
-0.752729
-0.746585
-0.740355
-0.734369
-0.728949
-0.724248
-0.72016
-0.71633
-0.712284
-0.707501
-0.701475
-0.694091
-0.685507
-0.675898
-0.665439
-0.654279
-0.642526
-0.630256
-0.617497
-0.604235
-0.59044
-0.576084
-0.561219
-0.546171
-0.531386
-0.517123
-0.503469
-0.490324
-0.477524
-0.782382
-0.778999
-0.774533
-0.769159
-0.763092
-0.756596
-0.749901
-0.743272
-0.736876
-0.730712
-0.724653
-0.718458
-0.711799
-0.704379
-0.696101
-0.687035
-0.677297
-0.66699
-0.656197
-0.644964
-0.633305
-0.621251
-0.608782
-0.595822
-0.582338
-0.568408
-0.554257
-0.540125
-0.52614
-0.512346
-0.498724
-0.48518
-0.799376
-0.796571
-0.792554
-0.787397
-0.781215
-0.774189
-0.76654
-0.758516
-0.75033
-0.742104
-0.733868
-0.725564
-0.717083
-0.708324
-0.699228
-0.689819
-0.680154
-0.670231
-0.660094
-0.649814
-0.63923
-0.628195
-0.616758
-0.604903
-0.592552
-0.579681
-0.566363
-0.552729
-0.538848
-0.524697
-0.510224
-0.495334
-0.817475
-0.815233
-0.811626
-0.806605
-0.800185
-0.792491
-0.783771
-0.77423
-0.764128
-0.75374
-0.743276
-0.732857
-0.72255
-0.712422
-0.702457
-0.692654
-0.683056
-0.673505
-0.663965
-0.654703
-0.645384
-0.635531
-0.625257
-0.614619
-0.603489
-0.591759
-0.579401
-0.566419
-0.552789
-0.538435
-0.523256
-0.507153
-0.837082
-0.835484
-0.832332
-0.827427
-0.820668
-0.812108
-0.802003
-0.790621
-0.778358
-0.765656
-0.75289
-0.740351
-0.72825
-0.71674
-0.705889
-0.695698
-0.686122
-0.677055
-0.668368
-0.659949
-0.65159
-0.643051
-0.63423
-0.625019
-0.615248
-0.604767
-0.593456
-0.581213
-0.567917
-0.553437
-0.537619
-0.520352
-0.858074
-0.857344
-0.854826
-0.850117
-0.842967
-0.83333
-0.821493
-0.807859
-0.793016
-0.777626
-0.762264
-0.747403
-0.733399
-0.720486
-0.708775
-0.698266
-0.688856
-0.680378
-0.672588
-0.665192
-0.65807
-0.651054
-0.643843
-0.636192
-0.627903
-0.618786
-0.608641
-0.59727
-0.584465
-0.570006
-0.553706
-0.535404
-0.880612
-0.881204
-0.879697
-0.875404
-0.86789
-0.856984
-0.842977
-0.826484
-0.808412
-0.789728
-0.77126
-0.753686
-0.73751
-0.723044
-0.710413
-0.699595
-0.690432
-0.682705
-0.67611
-0.670144
-0.664558
-0.659261
-0.653859
-0.647992
-0.641413
-0.633886
-0.62514
-0.614885
-0.602818
-0.588623
-0.571999
-0.552715
-0.90466
-0.907362
-0.907557
-0.904126
-0.8964
-0.883964
-0.867093
-0.846873
-0.824699
-0.801923
-0.779677
-0.758886
-0.740214
-0.724037
-0.710488
-0.69947
-0.690734
-0.683977
-0.678821
-0.674691
-0.670933
-0.667586
-0.664242
-0.660431
-0.655839
-0.650186
-0.643139
-0.634316
-0.62331
-0.609684
-0.592995
-0.572859
-0.930423
-0.936346
-0.939233
-0.937389
-0.929869
-0.915698
-0.894906
-0.869538
-0.841936
-0.813899
-0.786932
-0.762251
-0.740675
-0.722634
-0.708205
-0.697201
-0.689223
-0.683748
-0.680343
-0.678372
-0.677006
-0.676073
-0.675137
-0.673697
-0.671415
-0.667977
-0.662995
-0.655998
-0.64646
-0.633801
-0.617388
-0.596623
-0.957872
-0.969063
-0.976009
-0.976848
-0.970363
-0.953818
-0.927645
-0.895446
-0.860642
-0.825689
-0.792676
-0.763179
-0.738142
-0.718
-0.702768
-0.692081
-0.685255
-0.681673
-0.680534
-0.680933
-0.682532
-0.68455
-0.686373
-0.687655
-0.688079
-0.687303
-0.684917
-0.68035
-0.672929
-0.661885
-0.646317
-0.625309
-0.986528
-1.00656
-1.01975
-1.02486
-1.02225
-1.00195
-0.966194
-0.924349
-0.880072
-0.83616
-0.795574
-0.76027
-0.731265
-0.708969
-0.693198
-0.683227
-0.678225
-0.677215
-0.678908
-0.682644
-0.687925
-0.693333
-0.6983
-0.702677
-0.706156
-0.708463
-0.709214
-0.707691
-0.703158
-0.694654
-0.680867
-0.660373
-1.0175
-1.04906
-1.07228
-1.0856
-1.08687
-1.064
-1.01705
-0.959713
-0.901317
-0.845034
-0.794654
-0.751996
-0.718259
-0.693747
-0.677798
-0.669331
-0.667098
-0.669615
-0.675094
-0.683058
-0.692659
-0.702002
-0.710681
-0.718648
-0.725429
-0.731276
-0.736092
-0.738554
-0.737878
-0.733056
-0.722327
-0.703582
-1.04704
-1.09767
-1.1408
-1.16558
-1.16542
-1.13427
-1.07465
-1.00054
-0.923261
-0.850544
-0.788587
-0.737367
-0.698282
-0.671642
-0.656109
-0.650172
-0.651874
-0.659088
-0.67012
-0.6834
-0.69727
-0.710762
-0.723487
-0.735263
-0.745953
-0.75571
-0.764572
-0.772141
-0.777556
-0.778621
-0.77315
-0.758464
-1.07496
-1.15058
-1.21885
-1.26335
-1.26624
-1.22246
-1.14119
-1.042
-0.940555
-0.849076
-0.773024
-0.712653
-0.668587
-0.64063
-0.626804
-0.624739
-0.631768
-0.645256
-0.66288
-0.682447
-0.702107
-0.720823
-0.738014
-0.753544
-0.767796
-0.781388
-0.794801
-0.807939
-0.820045
-0.829417
-0.833224
-0.827479
-1.0768
-1.17875
-1.27325
-1.34037
-1.35433
-1.30415
-1.20281
-1.07895
-0.95654
-0.846909
-0.753952
-0.682774
-0.634022
-0.605618
-0.594501
-0.597254
-0.610578
-0.631102
-0.655742
-0.681794
-0.707274
-0.731039
-0.752495
-0.771649
-0.789288
-0.806669
-0.825021
-0.844961
-0.866305
-0.887505
-0.904886
-0.911567
-1.08945
-1.19319
-1.29484
-1.36629
-1.38093
-1.32667
-1.21877
-1.08442
-0.950443
-0.830038
-0.729427
-0.653305
-0.602402
-0.574315
-0.565876
-0.573165
-0.592094
-0.618804
-0.649776
-0.681819
-0.712483
-0.740343
-0.764873
-0.786451
-0.806356
-0.826505
-0.849045
-0.875868
-0.908189
-0.945583
-0.984567
-1.01563
-1.09179
-1.18515
-1.27899
-1.34372
-1.35611
-1.30101
-1.19727
-1.06559
-0.933336
-0.813757
-0.715177
-0.641237
-0.59191
-0.565046
-0.558205
-0.567415
-0.588257
-0.616837
-0.64969
-0.683378
-0.715335
-0.744307
-0.769882
-0.79245
-0.813348
-0.83493
-0.860226
-0.892387
-0.934358
-0.988588
-1.05516
-1.12467
-1.09524
-1.175
-1.25091
-1.2973
-1.29409
-1.24913
-1.16244
-1.04537
-0.920279
-0.806669
-0.712526
-0.641919
-0.594611
-0.568173
-0.56128
-0.570017
-0.589963
-0.617515
-0.649113
-0.681609
-0.712674
-0.740986
-0.766169
-0.788694
-0.809907
-0.832269
-0.859056
-0.893852
-0.940613
-1.00539
-1.09493
-1.22532
-0.462789
-0.45016
-0.437294
-0.423908
-0.409261
-0.392694
-0.373502
-0.352616
-0.330591
-0.308714
-0.288633
-0.272275
-0.261151
-0.256645
-0.260441
-0.272259
-0.294048
-0.328012
-0.371587
-0.422987
-0.476338
-0.522634
-0.553205
-0.563079
-0.552666
-0.52658
-0.489055
-0.445089
-0.399914
-0.35789
-0.322703
-0.297431
-0.283642
-0.281925
-0.291364
-0.311347
-0.340871
-0.377815
-0.417761
-0.45421
-0.479111
-0.484529
-0.466306
-0.427248
-0.37193
-0.307867
-0.242338
-0.181504
-0.13
-0.0909445
-0.0657469
-0.0547621
-0.0563663
-0.0699214
-0.0933388
-0.123467
-0.156456
-0.188321
-0.215601
-0.235857
-0.247753
-0.253149
-0.251175
-0.243028
-0.230305
-0.214699
-0.197838
-0.181151
-0.165846
-0.152873
-0.142865
-0.136126
-0.132612
-0.131464
-0.132523
-0.135089
-0.138361
-0.141504
-0.143645
-0.144027
-0.142234
-0.138253
-0.131913
-0.123567
-0.113811
-0.10332
-0.0926985
-0.0824464
-0.0730032
-0.0646498
-0.0575548
-0.0517787
-0.0472599
-0.0438357
-0.0412627
-0.0392431
-0.462256
-0.449846
-0.437506
-0.424914
-0.411164
-0.395396
-0.37737
-0.356782
-0.334406
-0.310552
-0.287643
-0.268722
-0.255613
-0.24896
-0.24934
-0.260025
-0.282747
-0.318798
-0.367431
-0.425188
-0.485691
-0.53881
-0.57365
-0.584174
-0.572248
-0.543904
-0.502019
-0.452894
-0.402554
-0.355815
-0.316197
-0.287616
-0.271805
-0.269399
-0.279592
-0.302342
-0.336035
-0.378113
-0.424228
-0.467533
-0.499286
-0.508712
-0.491075
-0.450465
-0.389664
-0.3185
-0.245569
-0.178041
-0.121306
-0.0787273
-0.0518026
-0.0406095
-0.0440593
-0.0605597
-0.0875198
-0.121392
-0.157965
-0.192878
-0.222368
-0.244174
-0.257714
-0.262113
-0.258729
-0.249028
-0.234663
-0.21741
-0.198996
-0.180891
-0.164379
-0.15051
-0.13998
-0.13308
-0.129791
-0.129144
-0.130917
-0.134254
-0.138333
-0.14234
-0.145239
-0.146088
-0.14507
-0.141008
-0.134267
-0.125363
-0.115013
-0.103923
-0.0928058
-0.0821478
-0.0723724
-0.0637823
-0.0565628
-0.0507677
-0.0463275
-0.0430695
-0.0407418
-0.0390343
-0.464812
-0.452056
-0.439052
-0.42544
-0.410821
-0.394293
-0.374965
-0.35212
-0.326208
-0.299841
-0.276219
-0.257489
-0.244053
-0.235912
-0.234608
-0.243859
-0.267186
-0.307309
-0.364306
-0.433973
-0.508244
-0.573096
-0.615858
-0.627645
-0.61087
-0.571636
-0.519604
-0.461714
-0.403372
-0.349548
-0.302066
-0.267786
-0.248335
-0.245221
-0.258768
-0.287899
-0.330601
-0.383314
-0.441278
-0.497735
-0.540753
-0.55778
-0.540915
-0.492357
-0.419396
-0.335301
-0.250604
-0.172048
-0.105552
-0.0565286
-0.0268547
-0.017163
-0.0228874
-0.0446178
-0.0781216
-0.118807
-0.16171
-0.202051
-0.235195
-0.258451
-0.271439
-0.275185
-0.270411
-0.258629
-0.241715
-0.221707
-0.200712
-0.180268
-0.161803
-0.146514
-0.135149
-0.127944
-0.124579
-0.125237
-0.128303
-0.132996
-0.138456
-0.143896
-0.148125
-0.150197
-0.149094
-0.14488
-0.13762
-0.127919
-0.116661
-0.104725
-0.0928519
-0.0815853
-0.0713364
-0.062416
-0.0550374
-0.0492471
-0.044952
-0.0419458
-0.0399354
-0.0385733
-0.471537
-0.457589
-0.443142
-0.42784
-0.411114
-0.392299
-0.370899
-0.347122
-0.321971
-0.296745
-0.272356
-0.249423
-0.228958
-0.214229
-0.210197
-0.221196
-0.250035
-0.298837
-0.36779
-0.451373
-0.538475
-0.613538
-0.659882
-0.667185
-0.640278
-0.591865
-0.531011
-0.464762
-0.398768
-0.337549
-0.284923
-0.245243
-0.222575
-0.218831
-0.236125
-0.273673
-0.326965
-0.391047
-0.462167
-0.53372
-0.589493
-0.614274
-0.596712
-0.535395
-0.447155
-0.349407
-0.253426
-0.164565
-0.0897995
-0.0345124
-0.000365157
0.012975
0.00239771
-0.0255125
-0.0660775
-0.113293
-0.162322
-0.208679
-0.245808
-0.271337
-0.285483
-0.28927
-0.283829
-0.270679
-0.251757
-0.229169
-0.205479
-0.181751
-0.160248
-0.142767
-0.13033
-0.122953
-0.120323
-0.121722
-0.12584
-0.131707
-0.138377
-0.145127
-0.150508
-0.153332
-0.152755
-0.148498
-0.140742
-0.130302
-0.118273
-0.105675
-0.0932922
-0.0816695
-0.0711278
-0.0619173
-0.0543098
-0.0483714
-0.0440106
-0.0410319
-0.0391295
-0.0379108
-0.479891
-0.46373
-0.446703
-0.428608
-0.409163
-0.388124
-0.365443
-0.341407
-0.316613
-0.291945
-0.268527
-0.247749
-0.231748
-0.222037
-0.220744
-0.231714
-0.259771
-0.307497
-0.377399
-0.462924
-0.550608
-0.624282
-0.668225
-0.673579
-0.644993
-0.59397
-0.529968
-0.460497
-0.391438
-0.326079
-0.268478
-0.222581
-0.198946
-0.197682
-0.221961
-0.268379
-0.329657
-0.401105
-0.47965
-0.55573
-0.615054
-0.641795
-0.617928
-0.549634
-0.454613
-0.352679
-0.253507
-0.159997
-0.0800204
-0.0205265
0.0145579
0.0266821
0.016374
-0.0124131
-0.0550038
-0.104928
-0.156616
-0.205476
-0.246181
-0.275327
-0.293062
-0.299357
-0.295271
-0.282458
-0.262872
-0.239015
-0.21368
-0.188642
-0.165157
-0.145506
-0.131109
-0.122053
-0.118415
-0.119222
-0.123524
-0.129956
-0.137138
-0.144195
-0.150505
-0.154003
-0.153907
-0.149769
-0.141841
-0.131153
-0.119013
-0.106474
-0.0941608
-0.0826239
-0.0722131
-0.0631602
-0.0556853
-0.0498155
-0.0453816
-0.042132
-0.0397679
-0.0379808
-0.490042
-0.471807
-0.452371
-0.431734
-0.409902
-0.386926
-0.363002
-0.338517
-0.314069
-0.290579
-0.269393
-0.251839
-0.239322
-0.233563
-0.237034
-0.253201
-0.284711
-0.331775
-0.393309
-0.465357
-0.537151
-0.596947
-0.632428
-0.636522
-0.61035
-0.56183
-0.501584
-0.437096
-0.37392
-0.315618
-0.267427
-0.233465
-0.211278
-0.20954
-0.232596
-0.278356
-0.338354
-0.408687
-0.481993
-0.547952
-0.596909
-0.613266
-0.590853
-0.525216
-0.435348
-0.341472
-0.251548
-0.167551
-0.0952952
-0.0391397
-0.00124027
0.0175512
0.0158738
-0.00755901
-0.0471523
-0.0951821
-0.144691
-0.19295
-0.235981
-0.268167
-0.288797
-0.297869
-0.296975
-0.287325
-0.270165
-0.247686
-0.22233
-0.197268
-0.172879
-0.151973
-0.136142
-0.126151
-0.121776
-0.121519
-0.124401
-0.129557
-0.135484
-0.141248
-0.146227
-0.149219
-0.148842
-0.145008
-0.137878
-0.128289
-0.117586
-0.106879
-0.0961063
-0.0857773
-0.0762548
-0.0675812
-0.0598804
-0.0533263
-0.0480159
-0.0437849
-0.040229
-0.0373393
-0.501593
-0.48129
-0.459459
-0.436246
-0.411874
-0.386661
-0.361046
-0.335583
-0.311251
-0.288842
-0.269739
-0.255117
-0.245809
-0.243542
-0.250153
-0.267405
-0.296009
-0.338651
-0.391252
-0.448092
-0.503551
-0.549885
-0.576804
-0.579276
-0.558379
-0.519644
-0.470688
-0.417728
-0.364686
-0.316325
-0.276439
-0.247613
-0.231434
-0.234798
-0.259547
-0.299758
-0.350779
-0.408194
-0.465486
-0.515827
-0.550284
-0.558334
-0.53452
-0.479021
-0.404732
-0.325303
-0.249065
-0.179327
-0.117204
-0.0673333
-0.0328036
-0.014814
-0.0121808
-0.0250078
-0.0521986
-0.0898972
-0.13213
-0.17414
-0.212942
-0.245266
-0.269741
-0.283737
-0.288065
-0.283159
-0.270434
-0.251856
-0.229152
-0.205025
-0.182201
-0.162268
-0.145864
-0.134164
-0.127742
-0.125657
-0.126624
-0.129497
-0.13324
-0.137309
-0.140354
-0.141827
-0.14109
-0.137904
-0.132033
-0.12414
-0.115494
-0.106631
-0.0979615
-0.0894744
-0.0811607
-0.0732031
-0.0658799
-0.0592223
-0.0532013
-0.047858
-0.0430862
-0.0389109
-0.51497
-0.492401
-0.467843
-0.441607
-0.41419
-0.386202
-0.3586
-0.331881
-0.306534
-0.284257
-0.26645
-0.253862
-0.247197
-0.247644
-0.256453
-0.274526
-0.301715
-0.338587
-0.382269
-0.427179
-0.47054
-0.505464
-0.52522
-0.526757
-0.510805
-0.480882
-0.441978
-0.398867
-0.356024
-0.317729
-0.286928
-0.265486
-0.255786
-0.261133
-0.281603
-0.313402
-0.352557
-0.394138
-0.435351
-0.469705
-0.489794
-0.490201
-0.468386
-0.425445
-0.369592
-0.308633
-0.248501
-0.191967
-0.140671
-0.0983815
-0.0668515
-0.0463482
-0.0380965
-0.0441887
-0.0622653
-0.0892377
-0.123842
-0.158975
-0.191805
-0.222682
-0.248131
-0.264443
-0.271277
-0.270517
-0.2623
-0.247518
-0.228588
-0.208334
-0.188173
-0.169755
-0.154928
-0.143748
-0.136278
-0.132315
-0.131013
-0.131265
-0.132544
-0.134423
-0.135948
-0.135995
-0.134275
-0.131279
-0.126509
-0.120362
-0.113405
-0.106164
-0.0998584
-0.0937515
-0.0869005
-0.0793886
-0.0722083
-0.0653529
-0.0582762
-0.0513528
-0.0450211
-0.0391988
-0.53061
-0.505664
-0.478106
-0.448414
-0.417368
-0.38586
-0.354854
-0.325437
-0.298629
-0.276
-0.258456
-0.246851
-0.241977
-0.244567
-0.255182
-0.274109
-0.300588
-0.333538
-0.370223
-0.407303
-0.442359
-0.470294
-0.485513
-0.486448
-0.474059
-0.450704
-0.420007
-0.385866
-0.352164
-0.322344
-0.298519
-0.282359
-0.276129
-0.281323
-0.296716
-0.319103
-0.345539
-0.374766
-0.402451
-0.422961
-0.432745
-0.430965
-0.413187
-0.37961
-0.337637
-0.291631
-0.245499
-0.20088
-0.159107
-0.122828
-0.0945582
-0.0746447
-0.064127
-0.0635036
-0.0723668
-0.0906627
-0.115856
-0.144725
-0.174732
-0.202813
-0.225623
-0.243533
-0.256126
-0.259832
-0.255347
-0.244852
-0.229616
-0.21131
-0.192686
-0.175784
-0.161669
-0.150423
-0.14221
-0.137082
-0.134435
-0.133076
-0.132559
-0.132081
-0.131391
-0.130214
-0.128189
-0.125183
-0.121417
-0.117029
-0.111992
-0.10694
-0.102136
-0.0972721
-0.0919311
-0.0855314
-0.0782728
-0.0712632
-0.0641528
-0.0567311
-0.0493435
-0.0421988
-0.549048
-0.521514
-0.49053
-0.456767
-0.42122
-0.385048
-0.349584
-0.316404
-0.287019
-0.262659
-0.244426
-0.23324
-0.229728
-0.234246
-0.246847
-0.26724
-0.294058
-0.325427
-0.359216
-0.392059
-0.421483
-0.445261
-0.458487
-0.459233
-0.449358
-0.43074
-0.406134
-0.378681
-0.351381
-0.327219
-0.308146
-0.295431
-0.290466
-0.293629
-0.303411
-0.317384
-0.334824
-0.354201
-0.37215
-0.384037
-0.387677
-0.382587
-0.367047
-0.342222
-0.311268
-0.276755
-0.241177
-0.206056
-0.172441
-0.142606
-0.118263
-0.0994995
-0.0873024
-0.0827237
-0.0862157
-0.0976415
-0.116132
-0.13957
-0.165547
-0.191236
-0.214839
-0.234264
-0.249176
-0.256233
-0.254668
-0.246957
-0.234171
-0.217957
-0.200729
-0.184129
-0.16941
-0.157406
-0.148081
-0.141269
-0.136514
-0.133282
-0.131042
-0.129154
-0.127106
-0.125058
-0.122738
-0.11982
-0.117017
-0.114154
-0.111033
-0.108005
-0.105178
-0.102068
-0.0980867
-0.0922522
-0.0854493
-0.0788052
-0.0715246
-0.0634207
-0.0551123
-0.0469988
-0.571072
-0.540585
-0.505474
-0.466592
-0.425241
-0.383071
-0.341976
-0.303926
-0.270622
-0.243562
-0.224044
-0.212966
-0.210799
-0.217583
-0.232896
-0.255875
-0.284598
-0.316605
-0.349641
-0.381204
-0.40957
-0.4312
-0.442424
-0.443275
-0.435134
-0.419567
-0.39893
-0.375853
-0.352772
-0.332225
-0.315976
-0.304778
-0.299275
-0.299617
-0.30464
-0.312862
-0.323877
-0.335811
-0.345791
-0.351396
-0.351323
-0.345047
-0.332429
-0.31383
-0.290679
-0.264744
-0.237481
-0.209535
-0.182258
-0.158074
-0.136899
-0.119388
-0.106647
-0.0999291
-0.100035
-0.107327
-0.121624
-0.141729
-0.165363
-0.190071
-0.213894
-0.234977
-0.251941
-0.261807
-0.263319
-0.258403
-0.246408
-0.230482
-0.21331
-0.196048
-0.179868
-0.165752
-0.154323
-0.145481
-0.138694
-0.133532
-0.129544
-0.126246
-0.123235
-0.120405
-0.117763
-0.115568
-0.113991
-0.11275
-0.111828
-0.11106
-0.109952
-0.107981
-0.105278
-0.10067
-0.0939088
-0.0874544
-0.0805374
-0.071944
-0.063078
-0.0543424
-0.598099
-0.564301
-0.524191
-0.478855
-0.430104
-0.380254
-0.331797
-0.287141
-0.248471
-0.217682
-0.19624
-0.185065
-0.18451
-0.194315
-0.213583
-0.240833
-0.273509
-0.308619
-0.343662
-0.376491
-0.405093
-0.42562
-0.435677
-0.436575
-0.429383
-0.415578
-0.3973
-0.376855
-0.356328
-0.337796
-0.322758
-0.311749
-0.305084
-0.302825
-0.304075
-0.307816
-0.313505
-0.319534
-0.324062
-0.325744
-0.323645
-0.317343
-0.306813
-0.292474
-0.275138
-0.255596
-0.234669
-0.212713
-0.190468
-0.169758
-0.151413
-0.135683
-0.12344
-0.115917
-0.114237
-0.119188
-0.131006
-0.149129
-0.171922
-0.196899
-0.221722
-0.244609
-0.263961
-0.275919
-0.278269
-0.278353
-0.268294
-0.24905
-0.231328
-0.213007
-0.194658
-0.177952
-0.163547
-0.151788
-0.142493
-0.135098
-0.129221
-0.124464
-0.120488
-0.117155
-0.114618
-0.1132
-0.11299
-0.11368
-0.11482
-0.115907
-0.116252
-0.115332
-0.113924
-0.110214
-0.104274
-0.0983418
-0.0908571
-0.0820143
-0.0728232
-0.0636633
-0.631833
-0.594375
-0.548154
-0.494621
-0.436348
-0.37651
-0.318358
-0.264992
-0.21924
-0.183478
-0.159442
-0.148138
-0.149812
-0.163867
-0.18887
-0.222638
-0.261803
-0.302677
-0.342371
-0.378583
-0.408587
-0.428707
-0.438249
-0.438784
-0.431539
-0.418155
-0.400715
-0.381337
-0.36187
-0.344044
-0.329086
-0.317402
-0.309167
-0.304341
-0.3023
-0.302442
-0.304125
-0.306134
-0.307278
-0.306618
-0.303519
-0.297632
-0.289095
-0.278266
-0.265123
-0.250321
-0.234712
-0.218294
-0.200708
-0.184108
-0.169143
-0.155205
-0.143513
-0.135735
-0.133121
-0.136631
-0.146742
-0.163253
-0.185211
-0.210725
-0.236975
-0.26193
-0.283453
-0.2984
-0.302866
-0.302791
-0.294955
-0.275946
-0.255654
-0.235196
-0.214181
-0.194337
-0.176683
-0.161596
-0.149223
-0.139316
-0.131382
-0.125052
-0.120055
-0.116343
-0.114171
-0.113781
-0.115034
-0.11742
-0.120271
-0.122817
-0.124358
-0.124825
-0.124172
-0.121441
-0.116572
-0.110305
-0.102611
-0.093794
-0.0844398
-0.0750511
-0.674429
-0.633067
-0.579361
-0.515313
-0.444671
-0.371834
-0.301075
-0.236423
-0.181544
-0.139425
-0.112131
-0.100797
-0.105614
-0.125633
-0.158796
-0.202021
-0.250926
-0.300715
-0.347677
-0.389037
-0.42161
-0.442186
-0.451014
-0.45033
-0.441831
-0.427373
-0.409159
-0.389277
-0.369451
-0.351157
-0.335337
-0.322354
-0.312368
-0.305282
-0.300769
-0.29839
-0.297386
-0.296856
-0.295988
-0.294148
-0.290884
-0.285923
-0.27926
-0.271034
-0.261929
-0.252745
-0.242264
-0.230067
-0.217068
-0.203931
-0.190664
-0.178004
-0.167081
-0.159746
-0.157149
-0.160275
-0.16975
-0.185584
-0.207102
-0.232795
-0.260308
-0.286976
-0.310188
-0.326954
-0.335223
-0.334948
-0.326237
-0.308483
-0.285997
-0.261935
-0.237919
-0.214792
-0.193642
-0.175147
-0.159542
-0.146828
-0.136734
-0.12885
-0.122918
-0.118978
-0.117246
-0.117781
-0.120258
-0.123994
-0.128095
-0.131704
-0.134517
-0.136349
-0.136432
-0.134236
-0.12983
-0.123658
-0.115985
-0.107135
-0.0976651
-0.0881494
-0.729898
-0.684168
-0.620975
-0.543124
-0.456202
-0.366326
-0.279091
-0.199782
-0.133204
-0.0831644
-0.0521606
-0.0414176
-0.0510057
-0.0794611
-0.12398
-0.180572
-0.243375
-0.305705
-0.362866
-0.411389
-0.447748
-0.468927
-0.475887
-0.472236
-0.460821
-0.443653
-0.423003
-0.401104
-0.379673
-0.359878
-0.342494
-0.327938
-0.31629
-0.307429
-0.301148
-0.296973
-0.294216
-0.292236
-0.290449
-0.288339
-0.285522
-0.281834
-0.277457
-0.273163
-0.269346
-0.264366
-0.257619
-0.248037
-0.237874
-0.227582
-0.215214
-0.203289
-0.19357
-0.187287
-0.18544
-0.188853
-0.198319
-0.21412
-0.235783
-0.262026
-0.29067
-0.318723
-0.343417
-0.361652
-0.371422
-0.371804
-0.362779
-0.345364
-0.321487
-0.293641
-0.265538
-0.238934
-0.214258
-0.192314
-0.173554
-0.158036
-0.145703
-0.136303
-0.129515
-0.125359
-0.12395
-0.125179
-0.128547
-0.133192
-0.138124
-0.142789
-0.146933
-0.149695
-0.150321
-0.148584
-0.14454
-0.138543
-0.13088
-0.121979
-0.112409
-0.102763
-0.803186
-0.75303
-0.677556
-0.581588
-0.473641
-0.361713
-0.25306
-0.154844
-0.0732682
-0.0129668
0.0228811
0.0323094
0.0154696
-0.0251506
-0.0856384
-0.160528
-0.242704
-0.32298
-0.393036
-0.449795
-0.491273
-0.512753
-0.515795
-0.507131
-0.490464
-0.468253
-0.443214
-0.417678
-0.393242
-0.370948
-0.351471
-0.335118
-0.32186
-0.311549
-0.303977
-0.298682
-0.295065
-0.292596
-0.290764
-0.289151
-0.287592
-0.286237
-0.285553
-0.285747
-0.285704
-0.284004
-0.279258
-0.272339
-0.264016
-0.253227
-0.241839
-0.231158
-0.222489
-0.217107
-0.216201
-0.22045
-0.230341
-0.246446
-0.268602
-0.295661
-0.325524
-0.35517
-0.381122
-0.400873
-0.411437
-0.411867
-0.402224
-0.383948
-0.358914
-0.328797
-0.296533
-0.265847
-0.237798
-0.212593
-0.190828
-0.172716
-0.158274
-0.14736
-0.139754
-0.13532
-0.134056
-0.135707
-0.139612
-0.144797
-0.150467
-0.156289
-0.161411
-0.16478
-0.165897
-0.164534
-0.160791
-0.154902
-0.147193
-0.138188
-0.128483
-0.118684
-0.897803
-0.846486
-0.754619
-0.633846
-0.498446
-0.358117
-0.222118
-0.100402
-0.00111317
0.0707742
0.11196
0.118822
0.0919649
0.0351392
-0.0468403
-0.146815
-0.254193
-0.358259
-0.446728
-0.511413
-0.560123
-0.581294
-0.57328
-0.555785
-0.531388
-0.501717
-0.470106
-0.439126
-0.410323
-0.384644
-0.362581
-0.344244
-0.329467
-0.318025
-0.309679
-0.303961
-0.30028
-0.298119
-0.297053
-0.296904
-0.297811
-0.300116
-0.303881
-0.30798
-0.310962
-0.310763
-0.307403
-0.301607
-0.292753
-0.282086
-0.271094
-0.261032
-0.253096
-0.248395
-0.248101
-0.253198
-0.263815
-0.280341
-0.303064
-0.331031
-0.362146
-0.393317
-0.420815
-0.44147
-0.45275
-0.453171
-0.44287
-0.42338
-0.396782
-0.364977
-0.329765
-0.294835
-0.263284
-0.235192
-0.210735
-0.190307
-0.173963
-0.161652
-0.153198
-0.148412
-0.147133
-0.14897
-0.153125
-0.158704
-0.165259
-0.172022
-0.177749
-0.181641
-0.183184
-0.182111
-0.178565
-0.172665
-0.164821
-0.155601
-0.145645
-0.135607
-1.02529
-0.973684
-0.861293
-0.711444
-0.541751
-0.364622
-0.193467
-0.0416994
0.0809205
0.167635
0.212526
0.216069
0.179462
0.10621
0.000520884
-0.131712
-0.278755
-0.417411
-0.528236
-0.603806
-0.653552
-0.676036
-0.661719
-0.626769
-0.587885
-0.546328
-0.505031
-0.46626
-0.431444
-0.401334
-0.376114
-0.355592
-0.3394
-0.327175
-0.318564
-0.313037
-0.309997
-0.308935
-0.309625
-0.3122
-0.316974
-0.323999
-0.332143
-0.339323
-0.343999
-0.344723
-0.341304
-0.334522
-0.324764
-0.31351
-0.302248
-0.292227
-0.28453
-0.280091
-0.27996
-0.285389
-0.296655
-0.313631
-0.336718
-0.365394
-0.397581
-0.430104
-0.459092
-0.480546
-0.492697
-0.493116
-0.482226
-0.461583
-0.433406
-0.400038
-0.363205
-0.324957
-0.289696
-0.259035
-0.232352
-0.209959
-0.19203
-0.178493
-0.169235
-0.164071
-0.162676
-0.164506
-0.168767
-0.174925
-0.182296
-0.189628
-0.195872
-0.200235
-0.202122
-0.20125
-0.197736
-0.191693
-0.183574
-0.173985
-0.16361
-0.15317
-1.17798
-1.12584
-0.993438
-0.815029
-0.60898
-0.392459
-0.185248
-0.00488619
0.13772
0.238822
0.299115
0.310284
0.267523
0.17777
0.0498844
-0.108919
-0.288633
-0.469879
-0.620216
-0.722261
-0.776758
-0.789233
-0.764617
-0.717436
-0.659696
-0.60094
-0.546969
-0.49847
-0.456226
-0.420799
-0.391949
-0.36911
-0.351669
-0.339053
-0.330654
-0.325883
-0.324187
-0.325145
-0.328838
-0.335678
-0.345634
-0.357666
-0.369901
-0.378913
-0.383708
-0.384526
-0.380342
-0.371452
-0.359898
-0.347187
-0.334793
-0.323999
-0.315832
-0.311074
-0.310543
-0.31556
-0.326972
-0.344151
-0.367265
-0.396267
-0.429119
-0.462572
-0.492689
-0.515308
-0.527929
-0.528638
-0.517519
-0.496112
-0.46675
-0.432043
-0.394222
-0.354586
-0.316196
-0.282917
-0.254547