/*--------------------------------*- C++ -*----------------------------------*\
| =========                 |                                                 |
| \\      /  F ield         | OpenFOAM: The Open Source CFD Toolbox           |
|  \\    /   O peration     | Version:  2206                                  |
|   \\  /    A nd           | Website:  www.openfoam.com                      |
|    \\/     M anipulation  |                                                 |
\*---------------------------------------------------------------------------*/
FoamFile
{
    version     2.0;
    format      ascii;
    arch        "LSB;label=32;scalar=64";
    class       volVectorField;
    location    "18.3999";
    object      U_0;
}
// * * * * * * * * * * * * * * * * * * * * * * * * * * * * * * * * * * * * * //

dimensions      [0 1 -1 0 0 0 0];

internalField   nonuniform List<vector> 
4824
(
(-0.294216 0.0365537 0)
(-0.329526 0.0464611 0)
(-0.380865 0.0578074 0)
(-0.449236 0.0671484 0)
(-0.532203 0.0723469 0)
(-0.624321 0.0724935 0)
(-0.717966 0.0674665 0)
(-0.804387 0.0576446 0)
(-0.875111 0.0440993 0)
(-0.92384 0.029192 0)
(-0.947273 0.0132233 0)
(-0.944641 -0.00457865 0)
(-0.918763 -0.0210534 0)
(-0.870463 -0.0372415 0)
(-0.800523 -0.0508631 0)
(-0.711399 -0.0614791 0)
(-0.606626 -0.0681114 0)
(-0.487313 -0.0700244 0)
(-0.371983 -0.0688304 0)
(-0.255453 -0.0662349 0)
(-0.142318 -0.0624896 0)
(-0.0348092 -0.0575638 0)
(0.0659758 -0.0517139 0)
(0.155168 -0.0460913 0)
(0.238715 -0.0407215 0)
(0.310149 -0.0349056 0)
(0.371637 -0.028852 0)
(0.423141 -0.0227064 0)
(0.464951 -0.0164641 0)
(0.497606 -0.0102443 0)
(0.521596 -0.00425714 0)
(0.53697 0.00185144 0)
(0.543746 0.00725393 0)
(0.54227 0.0118732 0)
(0.532426 0.0142062 0)
(0.515314 0.0154319 0)
(0.493962 0.0119811 0)
(0.466092 0.00989117 0)
(-0.26638 0.035535 0)
(-0.280013 0.0587042 0)
(-0.309718 0.0852852 0)
(-0.355996 0.110328 0)
(-0.415894 0.12913 0)
(-0.481978 0.136778 0)
(-0.544575 0.130723 0)
(-0.592684 0.111632 0)
(-0.620938 0.0802861 0)
(-0.626599 0.0423376 0)
(-0.612225 7.86898e-06 0)
(-0.582521 -0.0414941 0)
(-0.534825 -0.0805356 0)
(-0.470441 -0.117022 0)
(-0.390935 -0.150129 0)
(-0.298342 -0.177756 0)
(-0.196608 -0.196894 0)
(-0.0893423 -0.204987 0)
(0.0213315 -0.204387 0)
(0.132051 -0.199002 0)
(0.239313 -0.189872 0)
(0.340906 -0.177507 0)
(0.435808 -0.162206 0)
(0.522839 -0.145398 0)
(0.600534 -0.128162 0)
(0.668305 -0.110632 0)
(0.726267 -0.0934394 0)
(0.774616 -0.0772042 0)
(0.81377 -0.0623017 0)
(0.844422 -0.0488486 0)
(0.867529 -0.0365449 0)
(0.884336 -0.0245142 0)
(0.895918 -0.0113432 0)
(0.902131 0.00364634 0)
(0.902223 0.0188817 0)
(0.895015 0.0323084 0)
(0.878093 0.0409729 0)
(0.849993 0.0411957 0)
(-0.0745405 0.0571429 0)
(-0.0451576 0.0910765 0)
(-0.0252541 0.129002 0)
(-0.0160272 0.16455 0)
(-0.0146892 0.189854 0)
(-0.0147646 0.192454 0)
(-0.0108993 0.171832 0)
(-0.00083804 0.130068 0)
(0.0165875 0.0744967 0)
(0.0434093 0.0149587 0)
(0.0732279 -0.0401123 0)
(0.110201 -0.0924866 0)
(0.155667 -0.142172 0)
(0.208963 -0.190672 0)
(0.270657 -0.236726 0)
(0.340659 -0.276788 0)
(0.417051 -0.306251 0)
(0.49646 -0.320642 0)
(0.577164 -0.321377 0)
(0.657329 -0.313742 0)
(0.735439 -0.300447 0)
(0.809957 -0.282296 0)
(0.879738 -0.26017 0)
(0.944162 -0.235239 0)
(1.00274 -0.208603 0)
(1.05511 -0.181107 0)
(1.10117 -0.153471 0)
(1.14096 -0.126254 0)
(1.1744 -0.0998634 0)
(1.20126 -0.0747725 0)
(1.22121 -0.0517189 0)
(1.23426 -0.0310961 0)
(1.24129 -0.0125967 0)
(1.2435 0.00446737 0)
(1.24214 0.0210625 0)
(1.23838 0.0384135 0)
(1.23306 0.0546995 0)
(1.22741 0.0631715 0)
(0.259243 -0.05209 0)
(0.297497 -0.0195412 0)
(0.354223 0.0379396 0)
(0.420245 0.100349 0)
(0.487568 0.144818 0)
(0.555778 0.162109 0)
(0.617216 0.151627 0)
(0.669587 0.125107 0)
(0.711603 0.0759376 0)
(0.744357 0.0153035 0)
(0.772104 -0.0486248 0)
(0.79855 -0.110787 0)
(0.830656 -0.171379 0)
(0.870835 -0.231259 0)
(0.916538 -0.28804 0)
(0.964575 -0.335976 0)
(1.01257 -0.371115 0)
(1.05888 -0.388691 0)
(1.10457 -0.390547 0)
(1.14958 -0.381985 0)
(1.19373 -0.366372 0)
(1.23625 -0.344881 0)
(1.27617 -0.31858 0)
(1.31297 -0.288953 0)
(1.34673 -0.257411 0)
(1.37751 -0.225148 0)
(1.40544 -0.193078 0)
(1.43077 -0.16183 0)
(1.45372 -0.131881 0)
(1.47466 -0.103361 0)
(1.49386 -0.0761129 0)
(1.51133 -0.049869 0)
(1.52671 -0.0248876 0)
(1.53988 -0.00167958 0)
(1.55114 0.0196252 0)
(1.56089 0.038428 0)
(1.56997 0.053052 0)
(1.57877 0.0620743 0)
(1.08607 -0.0106874 0)
(1.05913 -0.00284461 0)
(1.04505 0.00679472 0)
(1.04369 0.0222486 0)
(1.06346 0.0418525 0)
(1.10302 0.0517233 0)
(1.1508 0.0466259 0)
(1.19867 0.0270896 0)
(1.24549 -0.0101683 0)
(1.29026 -0.0579488 0)
(1.33177 -0.111624 0)
(1.37043 -0.167867 0)
(1.40768 -0.225309 0)
(1.44381 -0.283674 0)
(1.475 -0.336564 0)
(1.50042 -0.380238 0)
(1.51756 -0.409294 0)
(1.53119 -0.418067 0)
(1.54374 -0.416181 0)
(1.55553 -0.410612 0)
(1.56665 -0.395629 0)
(1.57716 -0.373071 0)
(1.5872 -0.345193 0)
(1.59712 -0.313954 0)
(1.60723 -0.280956 0)
(1.61777 -0.247281 0)
(1.62882 -0.213939 0)
(1.64044 -0.181601 0)
(1.65269 -0.150536 0)
(1.66549 -0.121052 0)
(1.67873 -0.0934099 0)
(1.69246 -0.067695 0)
(1.7069 -0.0438055 0)
(1.7223 -0.0216827 0)
(1.73888 -0.00135388 0)
(1.75706 0.0168814 0)
(1.77686 0.0319044 0)
(1.79762 0.0421232 0)
(1.71122 -0.0040879 0)
(1.70299 0.00801567 0)
(1.70131 0.0238587 0)
(1.70607 0.0426508 0)
(1.71792 0.0484162 0)
(1.73658 0.0450773 0)
(1.76008 0.0305313 0)
(1.78669 0.00317984 0)
(1.81454 -0.035187 0)
(1.84056 -0.082656 0)
(1.86283 -0.136213 0)
(1.88101 -0.192712 0)
(1.8944 -0.248406 0)
(1.90128 -0.302636 0)
(1.8999 -0.348485 0)
(1.89146 -0.380948 0)
(1.87714 -0.407006 0)
(1.85995 -0.418786 0)
(1.84264 -0.416316 0)
(1.82673 -0.408353 0)
(1.81126 -0.391471 0)
(1.79686 -0.3684 0)
(1.7847 -0.341231 0)
(1.77537 -0.311554 0)
(1.76895 -0.280499 0)
(1.76545 -0.249099 0)
(1.76481 -0.218142 0)
(1.76685 -0.188096 0)
(1.77134 -0.159338 0)
(1.7781 -0.132077 0)
(1.78701 -0.106336 0)
(1.79799 -0.082116 0)
(1.81097 -0.0595164 0)
(1.82586 -0.0388486 0)
(1.84258 -0.0204824 0)
(1.86126 -0.00476017 0)
(1.88201 0.00770989 0)
(1.90449 0.0160563 0)
(2.01803 0.0121386 0)
(2.01545 0.0157956 0)
(2.01755 0.0205459 0)
(2.02621 0.0240386 0)
(2.04202 0.0235088 0)
(2.06271 0.0158958 0)
(2.08599 -0.000944121 0)
(2.10985 -0.0274836 0)
(2.13136 -0.0632067 0)
(2.14822 -0.106208 0)
(2.15798 -0.15331 0)
(2.15947 -0.202223 0)
(2.15256 -0.248088 0)
(2.13806 -0.290126 0)
(2.11591 -0.327385 0)
(2.08907 -0.355865 0)
(2.05912 -0.374559 0)
(2.02593 -0.383226 0)
(1.99361 -0.38269 0)
(1.96306 -0.374905 0)
(1.93444 -0.36113 0)
(1.90863 -0.342329 0)
(1.88676 -0.319866 0)
(1.869 -0.294909 0)
(1.85527 -0.268517 0)
(1.84542 -0.241522 0)
(1.83926 -0.214576 0)
(1.8365 -0.188179 0)
(1.83685 -0.16266 0)
(1.84005 -0.138264 0)
(1.84587 -0.115261 0)
(1.8541 -0.093864 0)
(1.86463 -0.074208 0)
(1.87746 -0.0564135 0)
(1.89254 -0.0406888 0)
(1.90974 -0.0274068 0)
(1.92883 -0.0170652 0)
(1.94945 -0.0101714 0)
(2.14087 0.00995562 0)
(2.1419 0.0092639 0)
(2.14726 0.00874452 0)
(2.15778 0.0072293 0)
(2.17273 0.00231775 0)
(2.19059 -0.00819221 0)
(2.20912 -0.0254997 0)
(2.22577 -0.0497568 0)
(2.23756 -0.08044 0)
(2.24393 -0.11622 0)
(2.24363 -0.154572 0)
(2.23666 -0.193238 0)
(2.22402 -0.230825 0)
(2.20693 -0.265703 0)
(2.1819 -0.296142 0)
(2.15181 -0.31955 0)
(2.11871 -0.335586 0)
(2.08402 -0.343928 0)
(2.04965 -0.344815 0)
(2.01708 -0.339594 0)
(1.98692 -0.329146 0)
(1.95988 -0.314266 0)
(1.93651 -0.296037 0)
(1.917 -0.275498 0)
(1.90134 -0.253488 0)
(1.88944 -0.230708 0)
(1.88113 -0.207736 0)
(1.87617 -0.185035 0)
(1.87432 -0.162995 0)
(1.87535 -0.141904 0)
(1.87906 -0.121942 0)
(1.88527 -0.103286 0)
(1.89382 -0.0861478 0)
(1.90454 -0.0707472 0)
(1.9173 -0.0573136 0)
(1.93192 -0.0461283 0)
(1.94817 -0.0375419 0)
(1.96565 -0.0319075 0)
(2.18035 0.0103368 0)
(2.1832 0.00622436 0)
(2.1881 0.00195425 0)
(2.19537 -0.00374731 0)
(2.20591 -0.01236 0)
(2.21781 -0.0248864 0)
(2.2301 -0.0417879 0)
(2.24062 -0.0630893 0)
(2.25012 -0.0883938 0)
(2.25404 -0.117022 0)
(2.25197 -0.147992 0)
(2.24574 -0.180106 0)
(2.23254 -0.211701 0)
(2.21309 -0.240904 0)
(2.18898 -0.265462 0)
(2.16121 -0.28468 0)
(2.13091 -0.2982 0)
(2.09938 -0.305816 0)
(2.068 -0.3077 0)
(2.03797 -0.304492 0)
(2.01003 -0.296881 0)
(1.98473 -0.285571 0)
(1.96253 -0.271366 0)
(1.94365 -0.255019 0)
(1.92817 -0.237184 0)
(1.91604 -0.21845 0)
(1.90715 -0.199332 0)
(1.90133 -0.180253 0)
(1.89839 -0.16155 0)
(1.89813 -0.143515 0)
(1.90037 -0.126399 0)
(1.90492 -0.110425 0)
(1.91162 -0.0958101 0)
(1.92029 -0.0827618 0)
(1.93077 -0.0714783 0)
(1.94286 -0.0621737 0)
(1.95631 -0.0550901 0)
(1.97075 -0.0504653 0)
(2.1838 0.00739395 0)
(2.18647 0.000915754 0)
(2.19106 -0.00574429 0)
(2.19748 -0.0136137 0)
(2.20523 -0.0236378 0)
(2.21361 -0.0363691 0)
(2.22174 -0.0521062 0)
(2.22855 -0.0710988 0)
(2.23286 -0.0931475 0)
(2.23384 -0.117396 0)
(2.23084 -0.14322 0)
(2.22317 -0.169683 0)
(2.21068 -0.195156 0)
(2.19375 -0.218221 0)
(2.17294 -0.238063 0)
(2.149 -0.254095 0)
(2.12306 -0.265753 0)
(2.09615 -0.272844 0)
(2.06926 -0.275443 0)
(2.0433 -0.273891 0)
(2.01895 -0.268673 0)
(1.9967 -0.260319 0)
(1.97694 -0.2494 0)
(1.95991 -0.236489 0)
(1.9457 -0.222131 0)
(1.93432 -0.206824 0)
(1.92573 -0.191006 0)
(1.9198 -0.175057 0)
(1.9164 -0.159313 0)
(1.9154 -0.144064 0)
(1.91662 -0.129552 0)
(1.91992 -0.11599 0)
(1.92514 -0.103578 0)
(1.93212 -0.0925158 0)
(1.94066 -0.0829909 0)
(1.95056 -0.0751825 0)
(1.96158 -0.0692693 0)
(1.97343 -0.0654161 0)
(2.17429 0.00509114 0)
(2.17713 -0.00275494 0)
(2.18101 -0.010979 0)
(2.18588 -0.0202024 0)
(2.19145 -0.0309525 0)
(2.19717 -0.043637 0)
(2.20236 -0.0585076 0)
(2.20628 -0.0756085 0)
(2.2082 -0.0946814 0)
(2.20747 -0.115215 0)
(2.20357 -0.13662 0)
(2.19617 -0.158123 0)
(2.18511 -0.17879 0)
(2.17055 -0.19779 0)
(2.15296 -0.214426 0)
(2.13299 -0.228079 0)
(2.11145 -0.238296 0)
(2.08905 -0.244914 0)
(2.06656 -0.247953 0)
(2.04467 -0.24761 0)
(2.02394 -0.24421 0)
(2.00482 -0.238138 0)
(1.98763 -0.229826 0)
(1.9726 -0.219723 0)
(1.95987 -0.208265 0)
(1.94949 -0.195862 0)
(1.94143 -0.182891 0)
(1.93566 -0.169689 0)
(1.93208 -0.156557 0)
(1.93058 -0.143761 0)
(1.93104 -0.131534 0)
(1.93333 -0.120091 0)
(1.9373 -0.109632 0)
(1.9428 -0.100333 0)
(1.94967 -0.0923567 0)
(1.9577 -0.0858496 0)
(1.96669 -0.0809476 0)
(1.97636 -0.077766 0)
(2.1625 0.00224735 0)
(2.16515 -0.00654479 0)
(2.16839 -0.0156763 0)
(2.17213 -0.0255202 0)
(2.17611 -0.0364456 0)
(2.17997 -0.0487364 0)
(2.1832 -0.0625301 0)
(2.1853 -0.0778087 0)
(2.18574 -0.0943976 0)
(2.18403 -0.111959 0)
(2.17982 -0.130029 0)
(2.17288 -0.148049 0)
(2.16313 -0.165377 0)
(2.15075 -0.181339 0)
(2.13603 -0.195374 0)
(2.11948 -0.207005 0)
(2.1016 -0.215933 0)
(2.08297 -0.222007 0)
(2.06416 -0.22521 0)
(2.04571 -0.225657 0)
(2.02808 -0.223564 0)
(2.01165 -0.219214 0)
(1.99672 -0.21293 0)
(1.9835 -0.20506 0)
(1.97214 -0.195949 0)
(1.9627 -0.185939 0)
(1.95521 -0.175347 0)
(1.94966 -0.164465 0)
(1.94598 -0.153563 0)
(1.94411 -0.142891 0)
(1.94394 -0.132663 0)
(1.94536 -0.123076 0)
(1.94826 -0.114318 0)
(1.9525 -0.106547 0)
(1.95793 -0.0998981 0)
(1.96438 -0.0944926 0)
(1.97165 -0.0904381 0)
(1.97952 -0.0878247 0)
(2.15224 -0.00044459 0)
(2.1547 -0.00965171 0)
(2.15739 -0.0191398 0)
(2.16023 -0.0291692 0)
(2.16304 -0.0399803 0)
(2.16555 -0.0517463 0)
(2.16739 -0.0645454 0)
(2.16821 -0.0783495 0)
(2.16763 -0.0930159 0)
(2.16531 -0.10828 0)
(2.16102 -0.123775 0)
(2.1546 -0.139075 0)
(2.14602 -0.153702 0)
(2.1354 -0.167169 0)
(2.12295 -0.179081 0)
(2.109 -0.189096 0)
(2.09396 -0.196964 0)
(2.07826 -0.202545 0)
(2.06236 -0.205803 0)
(2.04666 -0.206805 0)
(2.03155 -0.205696 0)
(2.01735 -0.20268 0)
(2.00432 -0.198003 0)
(1.99264 -0.191934 0)
(1.98247 -0.18475 0)
(1.97388 -0.176733 0)
(1.96693 -0.168152 0)
(1.9616 -0.159255 0)
(1.95788 -0.150282 0)
(1.95571 -0.141458 0)
(1.95502 -0.132973 0)
(1.95573 -0.125005 0)
(1.95771 -0.117735 0)
(1.96086 -0.111306 0)
(1.96506 -0.105826 0)
(1.97016 -0.101391 0)
(1.97598 -0.0980917 0)
(1.98233 -0.0960036 0)
(2.14221 -0.00307069 0)
(2.14449 -0.0124157 0)
(2.14677 -0.0219857 0)
(2.14898 -0.0319508 0)
(2.15098 -0.0424617 0)
(2.15257 -0.0536248 0)
(2.15349 -0.0654802 0)
(2.15348 -0.0779883 0)
(2.15229 -0.0910253 0)
(2.14967 -0.104385 0)
(2.14546 -0.117795 0)
(2.13956 -0.130935 0)
(2.13195 -0.143457 0)
(2.12272 -0.15501 0)
(2.11203 -0.165298 0)
(2.10016 -0.174036 0)
(2.08739 -0.181028 0)
(2.07406 -0.186159 0)
(2.06051 -0.189391 0)
(2.04708 -0.190762 0)
(2.03407 -0.190373 0)
(2.02174 -0.188375 0)
(2.01033 -0.184955 0)
(2 -0.180327 0)
(1.99088 -0.174711 0)
(1.98307 -0.168339 0)
(1.97662 -0.16144 0)
(1.97155 -0.154223 0)
(1.96784 -0.146893 0)
(1.96546 -0.139657 0)
(1.96436 -0.132682 0)
(1.96447 -0.126118 0)
(1.96569 -0.120142 0)
(1.96793 -0.114886 0)
(1.97108 -0.110432 0)
(1.97503 -0.106852 0)
(1.97963 -0.104225 0)
(1.98472 -0.102618 0)
(2.1323 -0.00561194 0)
(2.13444 -0.0148782 0)
(2.13642 -0.0243093 0)
(2.13819 -0.034018 0)
(2.13964 -0.0441004 0)
(2.14062 -0.0546186 0)
(2.14094 -0.0655865 0)
(2.14042 -0.0769602 0)
(2.13888 -0.0886363 0)
(2.13616 -0.100454 0)
(2.13213 -0.112205 0)
(2.12674 -0.123645 0)
(2.11998 -0.134508 0)
(2.11193 -0.144539 0)
(2.10272 -0.153495 0)
(2.09255 -0.161167 0)
(2.08163 -0.167409 0)
(2.07023 -0.172124 0)
(2.05862 -0.175278 0)
(2.04706 -0.176892 0)
(2.0358 -0.177038 0)
(2.02506 -0.175828 0)
(2.01504 -0.173407 0)
(2.00587 -0.169943 0)
(1.9977 -0.165613 0)
(1.9906 -0.160607 0)
(1.98462 -0.15512 0)
(1.97981 -0.149327 0)
(1.97615 -0.1434 0)
(1.97363 -0.13753 0)
(1.9722 -0.131863 0)
(1.97182 -0.126516 0)
(1.97241 -0.121663 0)
(1.97388 -0.117437 0)
(1.97615 -0.113892 0)
(1.97914 -0.111073 0)
(1.98271 -0.109058 0)
(1.98673 -0.107904 0)
(2.12267 -0.00808097 0)
(2.12471 -0.0171221 0)
(2.12649 -0.026278 0)
(2.12796 -0.0356222 0)
(2.12904 -0.0452141 0)
(2.12962 -0.0550854 0)
(2.12958 -0.0652321 0)
(2.12877 -0.0756097 0)
(2.12708 -0.0861308 0)
(2.12439 -0.0966671 0)
(2.12062 -0.107056 0)
(2.11574 -0.117108 0)
(2.10975 -0.126625 0)
(2.10271 -0.135416 0)
(2.09474 -0.143291 0)
(2.08596 -0.150096 0)
(2.07657 -0.155716 0)
(2.06677 -0.160071 0)
(2.05676 -0.163131 0)
(2.04676 -0.164908 0)
(2.03698 -0.165455 0)
(2.02758 -0.164856 0)
(2.01875 -0.163225 0)
(2.0106 -0.160697 0)
(2.00325 -0.157415 0)
(1.99678 -0.153536 0)
(1.99125 -0.149225 0)
(1.98668 -0.144632 0)
(1.98309 -0.139894 0)
(1.98047 -0.135189 0)
(1.97879 -0.130648 0)
(1.97801 -0.126355 0)
(1.97808 -0.122468 0)
(1.9789 -0.119143 0)
(1.98042 -0.116404 0)
(1.98259 -0.114268 0)
(1.98529 -0.112811 0)
(1.9884 -0.112086 0)
(2.11346 -0.010516 0)
(2.11544 -0.0192301 0)
(2.11708 -0.0280239 0)
(2.11836 -0.0369362 0)
(2.11921 -0.0460017 0)
(2.11956 -0.0552336 0)
(2.11931 -0.0646178 0)
(2.11838 -0.0741107 0)
(2.11666 -0.0836378 0)
(2.1141 -0.0930961 0)
(2.11063 -0.102356 0)
(2.10624 -0.111273 0)
(2.10094 -0.119701 0)
(2.09478 -0.127479 0)
(2.08785 -0.134472 0)
(2.08025 -0.140557 0)
(2.07214 -0.145646 0)
(2.06367 -0.149675 0)
(2.055 -0.152622 0)
(2.04632 -0.154494 0)
(2.03777 -0.15533 0)
(2.02952 -0.155198 0)
(2.02171 -0.154188 0)
(2.01443 -0.152408 0)
(2.00781 -0.149978 0)
(2.00189 -0.147026 0)
(1.99675 -0.143694 0)
(1.99242 -0.140107 0)
(1.9889 -0.136377 0)
(1.98621 -0.132662 0)
(1.98433 -0.129094 0)
(1.98321 -0.125718 0)
(1.98285 -0.122661 0)
(1.98313 -0.120114 0)
(1.98401 -0.118094 0)
(1.98548 -0.116575 0)
(1.98743 -0.115633 0)
(1.98976 -0.115315 0)
(2.10479 -0.0129071 0)
(2.10672 -0.0212279 0)
(2.10829 -0.0296013 0)
(2.10945 -0.0380476 0)
(2.11017 -0.0465784 0)
(2.1104 -0.0551946 0)
(2.11006 -0.0638771 0)
(2.1091 -0.072584 0)
(2.10746 -0.0812516 0)
(2.10508 -0.0897933 0)
(2.10194 -0.0981093 0)
(2.09802 -0.10609 0)
(2.09335 -0.113606 0)
(2.08795 -0.120546 0)
(2.08192 -0.126802 0)
(2.07532 -0.13228 0)
(2.06829 -0.136912 0)
(2.06094 -0.140649 0)
(2.0534 -0.143475 0)
(2.04582 -0.145394 0)
(2.03833 -0.146438 0)
(2.03106 -0.146662 0)
(2.02411 -0.146139 0)
(2.01759 -0.144956 0)
(2.01158 -0.143216 0)
(2.00615 -0.141023 0)
(2.00136 -0.138499 0)
(1.99724 -0.135751 0)
(1.99379 -0.132871 0)
(1.99105 -0.129999 0)
(1.98899 -0.127264 0)
(1.9876 -0.124693 0)
(1.98686 -0.122356 0)
(1.98669 -0.120467 0)
(1.98701 -0.119083 0)
(1.98786 -0.118121 0)
(1.98918 -0.11766 0)
(1.99086 -0.117738 0)
(2.09671 -0.0153076 0)
(2.09863 -0.0232085 0)
(2.10015 -0.0311284 0)
(2.10125 -0.0390838 0)
(2.10192 -0.0470821 0)
(2.1021 -0.0551106 0)
(2.10176 -0.0631458 0)
(2.10085 -0.0711472 0)
(2.09933 -0.079061 0)
(2.09718 -0.0868199 0)
(2.09437 -0.0943343 0)
(2.0909 -0.101515 0)
(2.08679 -0.108269 0)
(2.08208 -0.114505 0)
(2.07683 -0.120138 0)
(2.07109 -0.125099 0)
(2.06498 -0.129332 0)
(2.05858 -0.132802 0)
(2.052 -0.135497 0)
(2.04537 -0.137423 0)
(2.03877 -0.138606 0)
(2.03232 -0.139092 0)
(2.02612 -0.138941 0)
(2.02025 -0.138228 0)
(2.01478 -0.137038 0)
(2.00977 -0.135458 0)
(2.00529 -0.133599 0)
(2.00134 -0.131539 0)
(1.99795 -0.129373 0)
(1.99516 -0.127224 0)
(1.99297 -0.125195 0)
(1.99132 -0.123316 0)
(1.99022 -0.121618 0)
(1.98967 -0.120286 0)
(1.98956 -0.119465 0)
(1.98988 -0.119015 0)
(1.99064 -0.119004 0)
(1.99177 -0.119475 0)
(2.08931 -0.0176691 0)
(2.09121 -0.0251221 0)
(2.09272 -0.0325822 0)
(2.09381 -0.0400542 0)
(2.09446 -0.0475329 0)
(2.09465 -0.0550048 0)
(2.09436 -0.0624459 0)
(2.09354 -0.0698185 0)
(2.09219 -0.0770732 0)
(2.09028 -0.0841486 0)
(2.08781 -0.0909758 0)
(2.08477 -0.0974826 0)
(2.08118 -0.103592 0)
(2.07708 -0.10923 0)
(2.07251 -0.114332 0)
(2.06753 -0.118843 0)
(2.0622 -0.122722 0)
(2.05662 -0.125943 0)
(2.05087 -0.1285 0)
(2.04503 -0.130399 0)
(2.0392 -0.131665 0)
(2.03346 -0.132336 0)
(2.0279 -0.132465 0)
(2.02258 -0.132115 0)
(2.01757 -0.131357 0)
(2.01294 -0.130273 0)
(2.00871 -0.128946 0)
(2.00491 -0.127453 0)
(2.0016 -0.125887 0)
(1.99877 -0.124343 0)
(1.99642 -0.122898 0)
(1.99454 -0.121592 0)
(1.99311 -0.120467 0)
(1.9922 -0.119685 0)
(1.9918 -0.119374 0)
(1.99173 -0.11939 0)
(1.99199 -0.11979 0)
(1.99261 -0.120623 0)
(2.08259 -0.0200898 0)
(2.08451 -0.0270854 0)
(2.08601 -0.0340783 0)
(2.08711 -0.0410687 0)
(2.08778 -0.0480463 0)
(2.08802 -0.054994 0)
(2.0878 -0.0618883 0)
(2.08712 -0.0686902 0)
(2.08595 -0.075357 0)
(2.0843 -0.0818371 0)
(2.08215 -0.0880692 0)
(2.07952 -0.0939931 0)
(2.07641 -0.0995455 0)
(2.07286 -0.104667 0)
(2.06891 -0.109305 0)
(2.06459 -0.113417 0)
(2.05996 -0.116972 0)
(2.0551 -0.119954 0)
(2.05005 -0.12236 0)
(2.04491 -0.124201 0)
(2.03974 -0.125499 0)
(2.03462 -0.12629 0)
(2.02961 -0.126618 0)
(2.02478 -0.12654 0)
(2.02018 -0.126118 0)
(2.01586 -0.125421 0)
(2.01186 -0.124521 0)
(2.00822 -0.123492 0)
(2.00495 -0.122415 0)
(2.00209 -0.121365 0)
(1.99962 -0.120403 0)
(1.99755 -0.119585 0)
(1.99592 -0.119017 0)
(1.99475 -0.118778 0)
(1.99394 -0.11885 0)
(1.9934 -0.119252 0)
(1.99319 -0.120015 0)
(1.9933 -0.121182 0)
(2.07666 -0.0224542 0)
(2.07858 -0.0289944 0)
(2.0801 -0.0355289 0)
(2.08121 -0.0420558 0)
(2.08193 -0.0485597 0)
(2.08223 -0.0550214 0)
(2.08211 -0.0614185 0)
(2.08157 -0.0677116 0)
(2.08061 -0.0738632 0)
(2.07921 -0.0798257 0)
(2.07738 -0.0855421 0)
(2.07513 -0.0909646 0)
(2.07248 -0.0960369 0)
(2.06944 -0.100709 0)
(2.06605 -0.104942 0)
(2.06233 -0.108698 0)
(2.05833 -0.111956 0)
(2.0541 -0.114708 0)
(2.04969 -0.116956 0)
(2.04516 -0.118711 0)
(2.04057 -0.119998 0)
(2.03598 -0.120849 0)
(2.03146 -0.121307 0)
(2.02705 -0.121422 0)
(2.0228 -0.12125 0)
(2.01876 -0.120853 0)
(2.01496 -0.120297 0)
(2.01143 -0.119646 0)
(2.00819 -0.118971 0)
(2.00527 -0.118338 0)
(2.00268 -0.117805 0)
(2.00043 -0.117442 0)
(1.99852 -0.117308 0)
(1.99694 -0.117428 0)
(1.99566 -0.117816 0)
(1.99465 -0.118554 0)
(1.99395 -0.119689 0)
(1.99355 -0.121196 0)
(2.07152 -0.024904 0)
(2.07345 -0.0309901 0)
(2.07498 -0.0370725 0)
(2.07613 -0.043149 0)
(2.07689 -0.0492009 0)
(2.07728 -0.0552074 0)
(2.07727 -0.0611489 0)
(2.07689 -0.0669827 0)
(2.07613 -0.0726767 0)
(2.07499 -0.0781864 0)
(2.07349 -0.0834544 0)
(2.07161 -0.0884449 0)
(2.06939 -0.0931015 0)
(2.06682 -0.0973793 0)
(2.06394 -0.101248 0)
(2.06077 -0.104674 0)
(2.05733 -0.107647 0)
(2.05366 -0.110169 0)
(2.0498 -0.112251 0)
(2.0458 -0.113903 0)
(2.0417 -0.115146 0)
(2.03755 -0.116011 0)
(2.03341 -0.116538 0)
(2.02931 -0.11677 0)
(2.0253 -0.116753 0)
(2.02142 -0.116546 0)
(2.01769 -0.116212 0)
(2.01414 -0.11581 0)
(2.0108 -0.115409 0)
(2.00769 -0.11507 0)
(2.00481 -0.114841 0)
(2.00221 -0.114803 0)
(1.99988 -0.115038 0)
(1.99782 -0.115528 0)
(1.99602 -0.116254 0)
(1.99448 -0.117314 0)
(1.99312 -0.118757 0)
(1.99216 -0.120605 0)
(2.06733 -0.0272695 0)
(2.06926 -0.0329138 0)
(2.0708 -0.038564 0)
(2.07197 -0.0442189 0)
(2.07278 -0.0498507 0)
(2.07322 -0.0554468 0)
(2.07332 -0.0609809 0)
(2.07307 -0.0664089 0)
(2.07249 -0.0717035 0)
(2.07158 -0.0768165 0)
(2.07034 -0.0816945 0)
(2.06878 -0.0863063 0)
(2.06692 -0.0906031 0)
(2.06476 -0.0945367 0)
(2.06229 -0.0980793 0)
(2.05954 -0.101196 0)
(2.05652 -0.103874 0)
(2.05324 -0.106129 0)
(2.04973 -0.107985 0)
(2.04605 -0.109463 0)
(2.04222 -0.110586 0)
(2.03828 -0.111386 0)
(2.03428 -0.111903 0)
(2.03025 -0.11218 0)
(2.02622 -0.112261 0)
(2.02225 -0.112187 0)
(2.01832 -0.112015 0)
(2.0145 -0.111816 0)
(2.01087 -0.111651 0)
(2.00734 -0.11157 0)
(2.00402 -0.111624 0)
(2.00097 -0.111858 0)
(1.9979 -0.112319 0)
(1.99502 -0.11304 0)
(1.99257 -0.114065 0)
(1.99029 -0.11542 0)
(1.98819 -0.117152 0)
(1.9863 -0.119301 0)
(2.06387 -0.0297253 0)
(2.06574 -0.0349299 0)
(2.06723 -0.0401492 0)
(2.06836 -0.0453861 0)
(2.06913 -0.0506135 0)
(2.06956 -0.0558138 0)
(2.06967 -0.0609688 0)
(2.06946 -0.0660318 0)
(2.06894 -0.070969 0)
(2.06812 -0.075733 0)
(2.06701 -0.0802508 0)
(2.0656 -0.0845373 0)
(2.06387 -0.0884663 0)
(2.06183 -0.0920556 0)
(2.05948 -0.0952721 0)
(2.05681 -0.0980831 0)
(2.05391 -0.100486 0)
(2.05074 -0.102492 0)
(2.04728 -0.10412 0)
(2.04355 -0.105395 0)
(2.03958 -0.106349 0)
(2.0354 -0.107016 0)
(2.03106 -0.107436 0)
(2.02659 -0.10765 0)
(2.02203 -0.107703 0)
(2.01748 -0.107646 0)
(2.01297 -0.107532 0)
(2.00847 -0.10742 0)
(2.00401 -0.107355 0)
(1.99959 -0.107384 0)
(1.99523 -0.107567 0)
(1.99092 -0.107928 0)
(1.98665 -0.108504 0)
(1.98247 -0.109397 0)
(1.97832 -0.110643 0)
(1.97418 -0.112217 0)
(1.97008 -0.114134 0)
(1.96602 -0.116432 0)
(2.05852 -0.0319503 0)
(2.06005 -0.0367283 0)
(2.06119 -0.0415428 0)
(2.06195 -0.0463894 0)
(2.06234 -0.0512331 0)
(2.06239 -0.0560913 0)
(2.06209 -0.0608835 0)
(2.06148 -0.0656258 0)
(2.06056 -0.0702647 0)
(2.05934 -0.0746947 0)
(2.05779 -0.0789009 0)
(2.05593 -0.082831 0)
(2.05375 -0.0864374 0)
(2.05124 -0.0896758 0)
(2.04837 -0.0925136 0)
(2.04512 -0.0949434 0)
(2.04147 -0.096973 0)
(2.03739 -0.0986112 0)
(2.03292 -0.0998787 0)
(2.02808 -0.100812 0)
(2.02288 -0.101454 0)
(2.01736 -0.101849 0)
(2.01156 -0.102046 0)
(2.0055 -0.102091 0)
(1.9992 -0.102032 0)
(1.9927 -0.101918 0)
(1.986 -0.101787 0)
(1.97913 -0.10167 0)
(1.97211 -0.101604 0)
(1.96495 -0.101635 0)
(1.95765 -0.10181 0)
(1.9502 -0.102163 0)
(1.94259 -0.102739 0)
(1.93477 -0.103592 0)
(1.92674 -0.104752 0)
(1.91849 -0.106223 0)
(1.91 -0.108027 0)
(1.90123 -0.110193 0)
(2.0359 -0.0335353 0)
(2.03651 -0.0378143 0)
(2.03663 -0.0421492 0)
(2.03627 -0.0465288 0)
(2.03543 -0.0509359 0)
(2.03413 -0.0553487 0)
(2.03236 -0.059736 0)
(2.03016 -0.0640611 0)
(2.02757 -0.0682837 0)
(2.02456 -0.0723523 0)
(2.0211 -0.0762015 0)
(2.01718 -0.0797664 0)
(2.01279 -0.0829802 0)
(2.0079 -0.085792 0)
(2.00248 -0.0881711 0)
(1.99645 -0.0901037 0)
(1.9898 -0.0915996 0)
(1.98248 -0.0926886 0)
(1.97452 -0.0934138 0)
(1.96594 -0.0938244 0)
(1.95676 -0.0939699 0)
(1.94702 -0.0938978 0)
(1.93674 -0.0936535 0)
(1.92594 -0.0932809 0)
(1.91469 -0.0928247 0)
(1.903 -0.0923265 0)
(1.8909 -0.0918212 0)
(1.87841 -0.0913426 0)
(1.86554 -0.0909288 0)
(1.85229 -0.0906186 0)
(1.83866 -0.0904473 0)
(1.82461 -0.0904457 0)
(1.81012 -0.0906394 0)
(1.79515 -0.0910677 0)
(1.77965 -0.0917777 0)
(1.76355 -0.0927923 0)
(1.74676 -0.0941217 0)
(1.72922 -0.095776 0)
(1.95334 -0.0340279 0)
(1.95095 -0.0376887 0)
(1.94781 -0.0414085 0)
(1.94391 -0.0451781 0)
(1.93924 -0.0489751 0)
(1.9338 -0.0528019 0)
(1.92759 -0.0565126 0)
(1.92061 -0.0605477 0)
(1.91286 -0.0641791 0)
(1.90434 -0.0675437 0)
(1.89505 -0.0706768 0)
(1.88497 -0.0735262 0)
(1.87403 -0.0760246 0)
(1.86225 -0.0780591 0)
(1.84958 -0.0796033 0)
(1.83597 -0.0806689 0)
(1.82135 -0.0812968 0)
(1.80573 -0.0815432 0)
(1.78913 -0.081465 0)
(1.7716 -0.0811165 0)
(1.75321 -0.0805481 0)
(1.73403 -0.0798047 0)
(1.71412 -0.0789265 0)
(1.69355 -0.0779562 0)
(1.67236 -0.0769354 0)
(1.6506 -0.0758982 0)
(1.6283 -0.0748713 0)
(1.60548 -0.0738793 0)
(1.58215 -0.0729454 0)
(1.5583 -0.0720907 0)
(1.5339 -0.0713328 0)
(1.50892 -0.0706849 0)
(1.48326 -0.0701615 0)
(1.45689 -0.0697796 0)
(1.42952 -0.069535 0)
(1.40099 -0.0694274 0)
(1.37115 -0.0694676 0)
(1.33985 -0.0696768 0)
(1.66781 -0.0281388 0)
(1.65824 -0.0306484 0)
(1.6474 -0.0332037 0)
(1.63526 -0.0357979 0)
(1.62182 -0.0384185 0)
(1.60704 -0.041048 0)
(1.59095 -0.043661 0)
(1.5735 -0.0462259 0)
(1.55468 -0.048709 0)
(1.53455 -0.0510626 0)
(1.51316 -0.0532182 0)
(1.49058 -0.0550825 0)
(1.46679 -0.0565604 0)
(1.44195 -0.0574992 0)
(1.41546 -0.0577687 0)
(1.38725 -0.0573985 0)
(1.35746 -0.056516 0)
(1.32628 -0.0552502 0)
(1.29396 -0.0537017 0)
(1.26073 -0.0519527 0)
(1.22681 -0.0500731 0)
(1.19239 -0.0481213 0)
(1.15761 -0.0461459 0)
(1.12262 -0.0441888 0)
(1.08753 -0.0422817 0)
(1.0524 -0.0404588 0)
(1.01729 -0.0387351 0)
(0.982219 -0.0371162 0)
(0.947185 -0.0356022 0)
(0.91216 -0.034188 0)
(0.877094 -0.0328624 0)
(0.841907 -0.0316023 0)
(0.80653 -0.030376 0)
(0.770748 -0.0291257 0)
(0.734729 -0.0278044 0)
(0.698503 -0.026373 0)
(0.661968 -0.0248035 0)
(0.625001 -0.0230719 0)
(0.849222 -0.0152007 0)
(0.829639 -0.0161001 0)
(0.808558 -0.0170034 0)
(0.785957 -0.0179048 0)
(0.761827 -0.0187927 0)
(0.736161 -0.019656 0)
(0.70898 -0.0204676 0)
(0.680288 -0.0212401 0)
(0.650146 -0.0219163 0)
(0.618673 -0.0224234 0)
(0.58603 -0.0227101 0)
(0.552375 -0.0227197 0)
(0.518117 -0.0224113 0)
(0.482934 -0.0214958 0)
(0.44904 -0.0197825 0)
(0.416273 -0.0174441 0)
(0.384892 -0.0148944 0)
(0.355101 -0.0124214 0)
(0.327017 -0.0101436 0)
(0.300653 -0.00810089 0)
(0.275971 -0.00629736 0)
(0.252906 -0.00471698 0)
(0.231381 -0.00333381 0)
(0.211314 -0.00211583 0)
(0.192621 -0.0010285 0)
(0.175216 -1.97653e-05 0)
(0.159024 0.000956667 0)
(0.14398 0.00192681 0)
(0.13003 0.00291648 0)
(0.117139 0.00395484 0)
(0.105286 0.00507819 0)
(0.0944871 0.00632984 0)
(0.0847921 0.00771582 0)
(0.0762019 0.00905334 0)
(0.0686798 0.0101807 0)
(0.0621984 0.0111802 0)
(0.0567929 0.0121533 0)
(0.0525457 0.0130921 0)
(0.429951 -0.0903407 0)
(0.299671 -0.102078 0)
(0.224228 -0.0571888 0)
(0.190259 -0.0215907 0)
(0.163537 -0.011675 0)
(0.139195 -0.0237857 0)
(0.117683 -0.0500508 0)
(0.0997839 -0.0756014 0)
(0.0886872 -0.0933587 0)
(0.0869086 -0.0988445 0)
(0.0968599 -0.0896478 0)
(0.120593 -0.0652762 0)
(0.159492 -0.0277809 0)
(0.215839 0.0210274 0)
(0.289786 0.0768819 0)
(0.379568 0.134745 0)
(0.48491 0.188519 0)
(0.604716 0.231427 0)
(0.737344 0.25758 0)
(0.880335 0.262291 0)
(1.03055 0.241814 0)
(1.18487 0.193202 0)
(1.34059 0.115525 0)
(1.49171 0.0144462 0)
(1.62545 -0.0954226 0)
(1.73551 -0.20283 0)
(1.81927 -0.300121 0)
(1.87724 -0.383044 0)
(1.91219 -0.450415 0)
(1.92827 -0.502464 0)
(1.92987 -0.540632 0)
(1.92027 -0.567326 0)
(1.90128 -0.583729 0)
(1.87578 -0.589975 0)
(1.84602 -0.588271 0)
(1.81399 -0.581016 0)
(1.78137 -0.569969 0)
(1.74909 -0.556287 0)
(1.71781 -0.540886 0)
(1.68775 -0.524394 0)
(1.65894 -0.507184 0)
(1.63127 -0.48949 0)
(1.60453 -0.471525 0)
(1.57846 -0.453453 0)
(1.55292 -0.435225 0)
(1.52804 -0.416421 0)
(1.50391 -0.396696 0)
(1.47977 -0.37672 0)
(1.45324 -0.359083 0)
(1.42089 -0.347644 0)
(1.38064 -0.344507 0)
(1.33505 -0.346408 0)
(1.29157 -0.344965 0)
(1.25637 -0.330058 0)
(1.23916 -0.293711 0)
(1.23757 -0.234561 0)
(1.25385 -0.15271 0)
(1.28756 -0.0532973 0)
(1.3282 0.052755 0)
(1.37063 0.154717 0)
(1.41181 0.247962 0)
(1.44986 0.329956 0)
(1.48355 0.399561 0)
(1.51207 0.456871 0)
(1.53498 0.50311 0)
(1.55204 0.540495 0)
(1.56313 0.571952 0)
(1.56828 0.600342 0)
(1.56761 0.627775 0)
(1.56198 0.655505 0)
(1.55278 0.683667 0)
(1.54217 0.709573 0)
(1.53254 0.730037 0)
(1.52568 0.7419 0)
(1.52122 0.743914 0)
(1.51942 0.728204 0)
(1.52259 0.68434 0)
(1.53137 0.616106 0)
(1.5451 0.524445 0)
(1.56306 0.412976 0)
(1.58444 0.287531 0)
(1.60783 0.15622 0)
(1.63138 0.0283035 0)
(1.65376 -0.0905015 0)
(1.67383 -0.195894 0)
(1.69068 -0.285183 0)
(1.70372 -0.357266 0)
(1.71276 -0.412503 0)
(1.71794 -0.452153 0)
(1.71957 -0.478274 0)
(1.71862 -0.493232 0)
(1.71483 -0.499335 0)
(1.70846 -0.497812 0)
(1.6998 -0.49032 0)
(1.68948 -0.479004 0)
(1.67824 -0.465539 0)
(1.66646 -0.451193 0)
(1.65436 -0.436817 0)
(1.64206 -0.422913 0)
(1.62955 -0.409725 0)
(1.61682 -0.39739 0)
(1.60384 -0.385966 0)
(1.5906 -0.37546 0)
(1.57703 -0.365855 0)
(1.56308 -0.357152 0)
(0.809735 0.0240739 0)
(0.73725 0.0129779 0)
(0.659629 0.00741087 0)
(0.61583 0.0033509 0)
(0.59363 -0.00490664 0)
(0.582727 -0.0227623 0)
(0.580323 -0.0477368 0)
(0.582669 -0.0755113 0)
(0.588591 -0.0991783 0)
(0.598407 -0.11386 0)
(0.614116 -0.116681 0)
(0.637356 -0.106137 0)
(0.670421 -0.0832889 0)
(0.714293 -0.0506267 0)
(0.771454 -0.0123465 0)
(0.845141 0.0273719 0)
(0.9351 0.0629905 0)
(1.03989 0.0895384 0)
(1.15748 0.102477 0)
(1.28499 0.0978226 0)
(1.41901 0.0720654 0)
(1.55542 0.0226467 0)
(1.68586 -0.0476179 0)
(1.79936 -0.128714 0)
(1.89026 -0.211133 0)
(1.95595 -0.288314 0)
(1.99734 -0.356598 0)
(2.01833 -0.413966 0)
(2.02261 -0.460735 0)
(2.01427 -0.497601 0)
(1.99629 -0.524723 0)
(1.97074 -0.542228 0)
(1.94011 -0.550929 0)
(1.90636 -0.552885 0)
(1.87126 -0.549686 0)
(1.83615 -0.542462 0)
(1.80199 -0.532289 0)
(1.76914 -0.520011 0)
(1.73772 -0.506203 0)
(1.70772 -0.491253 0)
(1.67904 -0.47545 0)
(1.65155 -0.458985 0)
(1.62506 -0.441987 0)
(1.59932 -0.424584 0)
(1.57407 -0.406891 0)
(1.54923 -0.388824 0)
(1.52501 -0.369928 0)
(1.50151 -0.349819 0)
(1.47789 -0.329203 0)
(1.45156 -0.310836 0)
(1.41883 -0.298771 0)
(1.37763 -0.295037 0)
(1.33104 -0.295929 0)
(1.28728 -0.292634 0)
(1.25295 -0.274753 0)
(1.23835 -0.235279 0)