/*--------------------------------*- C++ -*----------------------------------*\
| =========                 |                                                 |
| \\      /  F ield         | OpenFOAM: The Open Source CFD Toolbox           |
|  \\    /   O peration     | Version:  2206                                  |
|   \\  /    A nd           | Website:  www.openfoam.com                      |
|    \\/     M anipulation  |                                                 |
\*---------------------------------------------------------------------------*/
FoamFile
{
    version     2.0;
    format      ascii;
    arch        "LSB;label=32;scalar=64";
    class       volVectorField;
    location    "18.0999";
    object      U;
}
// * * * * * * * * * * * * * * * * * * * * * * * * * * * * * * * * * * * * * //

dimensions      [0 1 -1 0 0 0 0];

internalField   nonuniform List<vector> 
3080
(
(-0.471188 0.00855719 0)
(-0.472226 -0.0108761 0)
(-0.430976 -0.0287118 0)
(-0.371456 -0.0430471 0)
(-0.282606 -0.054442 0)
(-0.174573 -0.0612008 0)
(-0.0564428 -0.0643451 0)
(0.0775973 -0.0636413 0)
(0.2049 -0.0626952 0)
(0.331838 -0.0665894 0)
(0.487701 -0.0804645 0)
(0.6085 -0.0907988 0)
(0.122367 0.00808445 0)
(0.166932 -0.0401458 0)
(0.228663 -0.0902334 0)
(0.308044 -0.133929 0)
(0.402098 -0.169122 0)
(0.50732 -0.193705 0)
(0.619745 -0.207393 0)
(0.734887 -0.211513 0)
(0.852371 -0.210874 0)
(0.967529 -0.212943 0)
(1.08659 -0.223413 0)
(1.18669 -0.246243 0)
(0.938235 -0.0559924 0)
(1.01236 -0.10188 0)
(1.08489 -0.153431 0)
(1.15487 -0.203425 0)
(1.22313 -0.245777 0)
(1.29006 -0.277616 0)
(1.35586 -0.297444 0)
(1.42175 -0.305237 0)
(1.48688 -0.306378 0)
(1.55193 -0.307589 0)
(1.61421 -0.313146 0)
(1.66811 -0.325471 0)
(1.71913 -0.129756 0)
(1.76053 -0.172273 0)
(1.79859 -0.218873 0)
(1.83027 -0.262109 0)
(1.85644 -0.297521 0)
(1.87647 -0.322631 0)
(1.89303 -0.335952 0)
(1.91087 -0.338721 0)
(1.92931 -0.339449 0)
(1.94823 -0.340374 0)
(1.96481 -0.343088 0)
(1.97896 -0.348556 0)
(2.17123 -0.149543 0)
(2.18797 -0.18658 0)
(2.19647 -0.227132 0)
(2.19612 -0.264814 0)
(2.18928 -0.294168 0)
(2.17832 -0.316091 0)
(2.16572 -0.332238 0)
(2.15384 -0.340812 0)
(2.14403 -0.343001 0)
(2.13573 -0.343868 0)
(2.12713 -0.344301 0)
(2.11689 -0.344123 0)
(2.31657 -0.167583 0)
(2.31876 -0.198145 0)
(2.31443 -0.228942 0)
(2.30356 -0.257621 0)
(2.28776 -0.282131 0)
(2.26917 -0.301049 0)
(2.24938 -0.313975 0)
(2.22949 -0.32142 0)
(2.21079 -0.324967 0)
(2.19356 -0.32616 0)
(2.1771 -0.326022 0)
(2.1601 -0.324916 0)
(2.34564 -0.167394 0)
(2.3438 -0.190926 0)
(2.33808 -0.215426 0)
(2.32611 -0.23932 0)
(2.30988 -0.260401 0)
(2.29093 -0.277482 0)
(2.27031 -0.29053 0)
(2.24938 -0.299444 0)
(2.22915 -0.304744 0)
(2.20993 -0.307492 0)
(2.1915 -0.308287 0)
(2.1736 -0.307222 0)
(2.33645 -0.164534 0)
(2.33242 -0.185568 0)
(2.32452 -0.207104 0)
(2.3129 -0.227526 0)
(2.29826 -0.245526 0)
(2.28138 -0.26044 0)
(2.26307 -0.272069 0)
(2.24424 -0.280396 0)
(2.2256 -0.285756 0)
(2.20763 -0.288725 0)
(2.19034 -0.289724 0)
(2.1737 -0.288904 0)
(2.3133 -0.162439 0)
(2.30862 -0.179981 0)
(2.3013 -0.197522 0)
(2.29132 -0.214177 0)
(2.27887 -0.229398 0)
(2.26462 -0.242518 0)
(2.24918 -0.253266 0)
(2.23324 -0.261545 0)
(2.21729 -0.267472 0)
(2.20176 -0.271275 0)
(2.18676 -0.273171 0)
(2.17245 -0.273266 0)
(2.29546 -0.157489 0)
(2.29043 -0.172972 0)
(2.2835 -0.188462 0)
(2.2746 -0.203403 0)
(2.26397 -0.217189 0)
(2.25201 -0.229263 0)
(2.23915 -0.239345 0)
(2.22578 -0.247367 0)
(2.21231 -0.253334 0)
(2.19902 -0.257383 0)
(2.1861 -0.259667 0)
(2.17375 -0.260294 0)
(2.28143 -0.15331 0)
(2.27629 -0.167255 0)
(2.26978 -0.181076 0)
(2.26186 -0.194368 0)
(2.2527 -0.206628 0)
(2.2425 -0.217526 0)
(2.23153 -0.226835 0)
(2.22011 -0.234451 0)
(2.20852 -0.240361 0)
(2.197 -0.24463 0)
(2.18578 -0.247347 0)
(2.175 -0.248614 0)
(2.26928 -0.148328 0)
(2.26413 -0.161119 0)
(2.25799 -0.173743 0)
(2.25085 -0.185906 0)
(2.2428 -0.197222 0)
(2.23397 -0.207409 0)
(2.22458 -0.216245 0)
(2.21481 -0.223625 0)
(2.2049 -0.229512 0)
(2.195 -0.233949 0)
(2.18531 -0.237011 0)
(2.17599 -0.238794 0)
(2.25831 -0.143527 0)
(2.25326 -0.155506 0)
(2.24751 -0.167325 0)
(2.24108 -0.178686 0)
(2.23403 -0.189294 0)
(2.22645 -0.198892 0)
(2.21846 -0.207289 0)
(2.21016 -0.214405 0)
(2.20171 -0.220188 0)
(2.19321 -0.224686 0)
(2.1848 -0.227977 0)
(2.17662 -0.230164 0)
(2.24851 -0.138664 0)
(2.24358 -0.150069 0)
(2.23817 -0.161333 0)
(2.23236 -0.17214 0)
(2.22615 -0.182265 0)
(2.21958 -0.191457 0)
(2.21273 -0.19951 0)
(2.20558 -0.206383 0)
(2.19825 -0.212016 0)
(2.19077 -0.216453 0)
(2.18321 -0.219812 0)
(2.17572 -0.222262 0)
(2.23924 -0.133799 0)
(2.2343 -0.14483 0)
(2.22907 -0.155762 0)
(2.22362 -0.16626 0)
(2.21795 -0.176107 0)
(2.21205 -0.185064 0)
(2.20591 -0.192879 0)
(2.19944 -0.199514 0)
(2.1926 -0.204978 0)
(2.18544 -0.20929 0)
(2.17797 -0.212583 0)
(2.17015 -0.21499 0)
(2.228 -0.128891 0)
(2.22244 -0.139702 0)
(2.21665 -0.15048 0)
(2.21074 -0.160814 0)
(2.2046 -0.170519 0)
(2.19817 -0.179132 0)
(2.19131 -0.186565 0)
(2.18381 -0.192742 0)
(2.17555 -0.197658 0)
(2.16643 -0.201423 0)
(2.15643 -0.204145 0)
(2.14556 -0.20594 0)
(2.20021 -0.12237 0)
(2.19187 -0.132995 0)
(2.1831 -0.14355 0)
(2.1739 -0.153693 0)
(2.16416 -0.163045 0)
(2.15369 -0.17125 0)
(2.14216 -0.178003 0)
(2.12917 -0.183194 0)
(2.1144 -0.186938 0)
(2.09766 -0.189414 0)
(2.07885 -0.19077 0)
(2.05801 -0.191156 0)
(2.10516 -0.112479 0)
(2.08822 -0.122392 0)
(2.06991 -0.132248 0)
(2.0501 -0.141568 0)
(2.02864 -0.149819 0)
(2.00514 -0.156526 0)
(1.97897 -0.161379 0)
(1.94955 -0.164391 0)
(1.91641 -0.16581 0)
(1.87945 -0.165887 0)
(1.83873 -0.164793 0)
(1.7944 -0.162623 0)
(1.78886 -0.086013 0)
(1.75086 -0.0936389 0)
(1.70948 -0.101294 0)
(1.6645 -0.108546 0)
(1.61645 -0.114532 0)
(1.56253 -0.118034 0)
(1.50169 -0.118586 0)
(1.43413 -0.116422 0)
(1.36052 -0.112207 0)
(1.28209 -0.106487 0)
(1.20014 -0.099806 0)
(1.11583 -0.0925873 0)
(0.843262 -0.0424089 0)
(0.778634 -0.0454979 0)
(0.708619 -0.0482686 0)
(0.633932 -0.0503459 0)
(0.552706 -0.050096 0)
(0.473005 -0.0457031 0)
(0.398142 -0.0372755 0)
(0.328242 -0.0272438 0)
(0.264028 -0.018054 0)
(0.206528 -0.0102574 0)
(0.155854 -0.00335819 0)
(0.111754 0.00328665 0)
(0.781106 -0.221174 0)
(0.816801 -0.286558 0)
(0.821696 -0.337235 0)
(0.802346 -0.362753 0)
(0.754917 -0.362079 0)
(0.688428 -0.334443 0)
(0.624043 -0.280688 0)
(0.580505 -0.202945 0)
(0.571031 -0.104356 0)
(0.604644 0.0115366 0)
(0.680456 0.135639 0)
(0.790578 0.250564 0)
(0.930341 0.340761 0)
(1.09337 0.395195 0)
(1.27129 0.407273 0)
(1.45675 0.370766 0)
(1.6475 0.275514 0)
(1.8428 0.116267 0)
(2.01736 -0.0759785 0)
(2.14433 -0.258747 0)
(2.22134 -0.414401 0)
(2.25537 -0.536401 0)
(2.25581 -0.625013 0)
(2.23186 -0.684232 0)
(2.18882 -0.717254 0)
(2.13419 -0.726863 0)
(2.07449 -0.720694 0)
(2.01439 -0.705357 0)
(1.95707 -0.684983 0)
(1.90318 -0.661956 0)
(1.85258 -0.637736 0)
(1.80461 -0.613228 0)
(1.75832 -0.588878 0)
(1.71318 -0.564345 0)
(1.66915 -0.538607 0)
(1.62567 -0.511519 0)
(1.57986 -0.485252 0)
(1.52691 -0.463846 0)
(1.46415 -0.448583 0)
(1.3965 -0.432532 0)
(1.33531 -0.402121 0)
(1.29174 -0.345027 0)
(1.2747 -0.25809 0)
(1.27791 -0.147693 0)
(1.30394 -0.0236256 0)
(1.34206 0.101333 0)
(1.38654 0.21652 0)
(1.43422 0.317442 0)
(1.48204 0.402194 0)
(1.5277 0.470773 0)
(1.56965 0.52469 0)
(1.60692 0.566501 0)
(1.63923 0.599195 0)
(1.66693 0.625516 0)
(1.69084 0.647282 0)
(1.71187 0.665041 0)
(1.7309 0.678028 0)
(1.75016 0.683389 0)
(1.77175 0.675806 0)
(1.79711 0.649247 0)
(1.8258 0.598618 0)
(1.85709 0.522316 0)
(1.89035 0.421506 0)
(1.92432 0.300466 0)
(1.95694 0.167062 0)
(1.98526 0.0328362 0)
(2.00741 -0.093533 0)
(2.02254 -0.206378 0)
(2.03032 -0.302135 0)
(2.03089 -0.379271 0)
(2.02486 -0.437933 0)
(2.01316 -0.4795 0)
(1.99641 -0.505879 0)
(1.97439 -0.518663 0)
(1.9482 -0.519664 0)
(1.91859 -0.512405 0)
(1.88612 -0.500141 0)
(1.85122 -0.485728 0)
(1.81412 -0.47142 0)
(1.77513 -0.458436 0)
(1.73486 -0.446629 0)
(1.69426 -0.434441 0)
(1.65459 -0.419174 0)
(1.61726 -0.397617 0)
(1.5835 -0.366977 0)
(1.55425 -0.325683 0)
(1.53013 -0.273642 0)
(1.51157 -0.212062 0)
(1.49881 -0.143061 0)
(1.49193 -0.0692935 0)
(1.49078 0.00627671 0)
(1.49496 0.0807165 0)
(1.50391 0.152102 0)
(1.51698 0.218819 0)
(1.53338 0.279627 0)
(1.55231 0.333676 0)
(1.57297 0.380476 0)
(1.5946 0.419855 0)
(1.61653 0.451912 0)
(1.63828 0.4769 0)
(1.65954 0.495081 0)
(1.68032 0.506472 0)
(1.70111 0.51044 0)
(1.72181 0.505791 0)
(1.74239 0.491683 0)
(1.76293 0.467484 0)
(1.78334 0.432773 0)
(1.80356 0.387412 0)
(1.82343 0.331647 0)
(1.8427 0.266208 0)
(1.86105 0.192387 0)
(1.87809 0.112202 0)
(1.89318 0.0288463 0)
(1.28497 -0.30928 0)
(1.325 -0.349947 0)
(1.33298 -0.361358 0)
(1.332 -0.357519 0)
(1.32299 -0.331672 0)
(1.3062 -0.286855 0)
(1.2848 -0.227874 0)
(1.26204 -0.158447 0)
(1.24304 -0.0824486 0)
(1.23502 -0.00448298 0)
(1.25303 0.0717951 0)
(1.30798 0.142692 0)
(1.40089 0.198709 0)
(1.52524 0.22997 0)
(1.67267 0.227051 0)
(1.83713 0.178187 0)
(2.01371 0.0752804 0)
(2.17534 -0.0641206 0)
(2.29176 -0.206539 0)
(2.35939 -0.334824 0)
(2.38306 -0.444512 0)
(2.37366 -0.532455 0)
(2.34232 -0.596866 0)
(2.29228 -0.63784 0)
(2.23156 -0.65795 0)
(2.16645 -0.662852 0)
(2.10176 -0.65743 0)
(2.04014 -0.645182 0)
(1.9824 -0.628582 0)
(1.92854 -0.60926 0)
(1.87816 -0.588228 0)
(1.83061 -0.566094 0)
(1.785 -0.54321 0)
(1.74047 -0.51965 0)
(1.6967 -0.494953 0)
(1.6539 -0.46815 0)
(1.61136 -0.439116 0)
(1.5659 -0.410349 0)
(1.51264 -0.385963 0)
(1.44985 -0.366537 0)
(1.38438 -0.344333 0)
(1.3285 -0.306526 0)
(1.29363 -0.243854 0)
(1.28398 -0.156426 0)
(1.29452 -0.0508845 0)
(1.32576 0.062602 0)
(1.36552 0.171859 0)
(1.41028 0.270315 0)
(1.45705 0.355241 0)
(1.50332 0.426002 0)
(1.54734 0.483465 0)
(1.58803 0.529517 0)
(1.62496 0.56649 0)
(1.6583 0.596583 0)
(1.68865 0.621283 0)
(1.71686 0.640897 0)
(1.74443 0.654125 0)
(1.77339 0.657759 0)
(1.80497 0.647254 0)
(1.84006 0.617321 0)
(1.87822 0.563924 0)
(1.91847 0.485782 0)
(1.95952 0.384483 0)
(1.99955 0.264775 0)
(2.03574 0.135402 0)
(2.06498 0.00762459 0)
(2.0859 -0.111225 0)
(2.09802 -0.216083 0)
(2.10143 -0.303981 0)
(2.09676 -0.373835 0)
(2.08506 -0.426082 0)
(2.06741 -0.462087 0)
(2.04413 -0.483402 0)
(2.01578 -0.491372 0)
(1.98382 -0.4887 0)
(1.94891 -0.478616 0)
(1.91172 -0.463983 0)
(1.87256 -0.447473 0)
(1.83158 -0.431316 0)
(1.78899 -0.416901 0)
(1.74532 -0.404395 0)
(1.7015 -0.392592 0)
(1.6587 -0.379023 0)
(1.61825 -0.360504 0)
(1.58164 -0.334081 0)
(1.54994 -0.297814 0)
(1.52378 -0.251306 0)
(1.50355 -0.195556 0)
(1.48941 -0.132518 0)
(1.48137 -0.0646728 0)
(1.47926 0.00524099 0)
(1.48269 0.0745125 0)
(1.49111 0.141297 0)
(1.50394 0.204104 0)
(1.52046 0.261768 0)
(1.53992 0.31346 0)
(1.56155 0.358667 0)
(1.58464 0.397155 0)
(1.60858 0.42888 0)
(1.63289 0.453903 0)
(1.65729 0.472247 0)
(1.6818 0.483687 0)
(1.70672 0.487513 0)
(1.73188 0.482743 0)
(1.7572 0.468609 0)
(1.78261 0.444474 0)
(1.80791 0.409956 0)
(1.83285 0.364995 0)
(1.85713 0.309916 0)
(1.88035 0.245515 0)
(1.90207 0.173159 0)
(1.92172 0.0950196 0)
(1.93846 0.0145582 0)
(1.71273 -0.349341 0)
(1.72565 -0.360797 0)
(1.72176 -0.360077 0)
(1.71179 -0.349277 0)
(1.69696 -0.322128 0)
(1.68186 -0.280053 0)
(1.67221 -0.225067 0)
(1.67233 -0.160311 0)
(1.68567 -0.0893241 0)
(1.71245 -0.017403 0)
(1.75422 0.045454 0)
(1.81454 0.092389 0)
(1.89331 0.119439 0)
(1.9899 0.122975 0)
(2.10311 0.098039 0)
(2.22713 0.0409172 0)
(2.33481 -0.0449906 0)
(2.4093 -0.149706 0)
(2.44669 -0.254847 0)
(2.45544 -0.34933 0)
(2.44769 -0.431265 0)
(2.41415 -0.498003 0)
(2.36471 -0.545608 0)
(2.3052 -0.575771 0)
(2.24109 -0.591883 0)
(2.17674 -0.597331 0)
(2.11459 -0.594745 0)
(2.0558 -0.586259 0)
(2.00068 -0.573556 0)
(1.94907 -0.55783 0)
(1.90055 -0.539875 0)
(1.85461 -0.520141 0)
(1.81061 -0.49883 0)
(1.76778 -0.476089 0)
(1.72556 -0.452022 0)
(1.68379 -0.426111 0)
(1.64282 -0.397284 0)
(1.60207 -0.365446 0)
(1.55836 -0.3332 0)
(1.5069 -0.30472 0)
(1.44627 -0.280683 0)
(1.38415 -0.254007 0)
(1.3334 -0.212684 0)
(1.30458 -0.149468 0)
(1.30061 -0.0658667 0)
(1.31784 0.0313027 0)
(1.35133 0.131788 0)
(1.39215 0.225644 0)
(1.43679 0.308989 0)
(1.48268 0.380367 0)
(1.5279 0.43992 0)
(1.57124 0.488859 0)
(1.61216 0.528927 0)
(1.65067 0.561804 0)
(1.68727 0.588517 0)
(1.72294 0.608923 0)
(1.75932 0.621376 0)
(1.79763 0.622736 0)
(1.83883 0.609001 0)
(1.88331 0.575889 0)
(1.93044 0.52024 0)
(1.97891 0.441217 0)
(2.02694 0.340842 0)
(2.07202 0.224637 0)
(2.11053 0.102097 0)
(2.1397 -0.0170323 0)
(2.15861 -0.126468 0)
(2.1672 -0.221887 0)
(2.16602 -0.300935 0)
(2.15615 -0.362909 0)
(2.13891 -0.40841 0)
(2.11528 -0.438605 0)
(2.08572 -0.454659 0)
(2.05182 -0.458369 0)
(2.0147 -0.452704 0)
(1.97525 -0.440342 0)
(1.93404 -0.423819 0)
(1.8913 -0.405592 0)
(1.84708 -0.387863 0)
(1.80151 -0.372219 0)
(1.75506 -0.359181 0)
(1.70858 -0.347847 0)
(1.66318 -0.336004 0)
(1.62018 -0.320648 0)
(1.58097 -0.298659 0)
(1.54703 -0.267811 0)
(1.51904 -0.227241 0)
(1.49736 -0.177654 0)
(1.48209 -0.120837 0)
(1.47314 -0.0591225 0)
(1.47031 0.0049628 0)
(1.47317 0.0688793 0)
(1.4812 0.130833 0)
(1.49387 0.189447 0)
(1.5105 0.243624 0)
(1.53041 0.292561 0)
(1.5529 0.335728 0)
(1.57729 0.372815 0)
(1.60305 0.403656 0)
(1.62972 0.428138 0)
(1.65706 0.446083 0)
(1.68507 0.457082 0)
(1.71386 0.460406 0)
(1.74315 0.455245 0)
(1.77286 0.440895 0)
(1.80275 0.416763 0)
(1.8325 0.382528 0)
(1.86172 0.338202 0)
(1.88996 0.284189 0)
(1.91668 0.221361 0)
(1.9413 0.151162 0)
(1.96315 0.0758588 0)
(1.98114 -0.000735924 0)
(1.98092 -0.355315 0)
(1.97367 -0.356534 0)
(1.95889 -0.350519 0)
(1.94015 -0.332789 0)
(1.921 -0.304074 0)
(1.9058 -0.265024 0)
(1.89842 -0.217547 0)
(1.90177 -0.164735 0)
(1.91791 -0.110472 0)
(1.94862 -0.0590346 0)
(1.99515 -0.0142941 0)
(2.05624 0.0182906 0)
(2.12752 0.0337951 0)
(2.20638 0.0279552 0)
(2.28642 -0.00141501 0)
(2.3604 -0.0514507 0)
(2.4213 -0.113927 0)
(2.46272 -0.183867 0)
(2.47276 -0.261051 0)
(2.4697 -0.336266 0)
(2.44329 -0.401723 0)
(2.40101 -0.451953 0)
(2.34971 -0.488879 0)
(2.29303 -0.514292 0)
(2.23439 -0.529656 0)
(2.17622 -0.536598 0)
(2.11988 -0.536707 0)
(2.06606 -0.531425 0)
(2.01505 -0.521954 0)
(1.96676 -0.5092 0)
(1.92097 -0.49381 0)
(1.87733 -0.476182 0)
(1.83543 -0.456446 0)
(1.79481 -0.434656 0)
(1.75495 -0.410975 0)
(1.7153 -0.385377 0)
(1.67587 -0.357306 0)
(1.63716 -0.325805 0)
(1.59888 -0.290855 0)
(1.55811 -0.254949 0)
(1.51023 -0.222181 0)
(1.45368 -0.193779 0)
(1.39571 -0.164216 0)
(1.34888 -0.123045 0)
(1.32359 -0.0639658 0)
(1.32257 0.0116961 0)
(1.34322 0.0977169 0)
(1.37805 0.184788 0)
(1.41957 0.26461 0)
(1.46427 0.334769 0)
(1.50999 0.394786 0)
(1.55537 0.445187 0)
(1.5998 0.487057 0)
(1.64322 0.521476 0)
(1.68608 0.54894 0)
(1.72938 0.568908 0)
(1.77436 0.579617 0)
(1.82171 0.578263 0)
(1.87208 0.561428 0)
(1.92537 0.525588 0)
(1.98068 0.468346 0)
(2.03644 0.389472 0)
(2.0904 0.291706 0)
(2.13919 0.181384 0)
(2.17869 0.0681942 0)
(2.20681 -0.040283 0)
(2.22301 -0.138688 0)
(2.22768 -0.223517 0)
(2.22182 -0.292979 0)
(2.2069 -0.346662 0)
(2.18428 -0.385138 0)
(2.15484 -0.409268 0)
(2.11991 -0.420223 0)
(2.08123 -0.420328 0)
(2.03983 -0.41216 0)
(1.99662 -0.398002 0)
(1.95213 -0.380057 0)
(1.90653 -0.360527 0)
(1.85981 -0.341565 0)
(1.81205 -0.324954 0)
(1.76355 -0.311532 0)
(1.71499 -0.30073 0)
(1.66749 -0.290622 0)
(1.6224 -0.278408 0)
(1.5811 -0.261019 0)
(1.54499 -0.235826 0)
(1.51529 -0.201606 0)
(1.49231 -0.15857 0)
(1.47606 -0.108255 0)
(1.46642 -0.0528648 0)
(1.46307 0.0052198 0)
(1.46557 0.0636313 0)
(1.47339 0.120581 0)
(1.486 0.17478 0)
(1.50281 0.225192 0)
(1.52318 0.271036 0)
(1.54646 0.311763 0)
(1.57207 0.346986 0)
(1.59951 0.376426 0)
(1.62838 0.399824 0)
(1.65846 0.416835 0)
(1.6897 0.426935 0)
(1.72201 0.42944 0)
(1.75507 0.423669 0)
(1.78871 0.408969 0)
(1.82258 0.384817 0)
(1.85624 0.350973 0)
(1.88918 0.307534 0)
(1.92079 0.254981 0)
(1.95045 0.194239 0)
(1.97749 0.1268 0)
(2.00102 0.0552251 0)
(2.01986 -0.0166875 0)
(2.10325 -0.343016 0)
(2.08563 -0.338411 0)
(2.06474 -0.327848 0)
(2.04316 -0.310367 0)
(2.02407 -0.285395 0)
(2.01037 -0.253404 0)
(2.00452 -0.215968 0)
(2.00856 -0.175299 0)
(2.02402 -0.134071 0)
(2.05153 -0.095527 0)
(2.09071 -0.0632738 0)
(2.14007 -0.0410855 0)
(2.19677 -0.0321872 0)
(2.25664 -0.0386763 0)
(2.31441 -0.0611532 0)
(2.36439 -0.0985277 0)
(2.40181 -0.14708 0)
(2.42528 -0.202463 0)
(2.43285 -0.261151 0)
(2.42304 -0.317846 0)
(2.3983 -0.36694 0)
(2.36269 -0.407012 0)
(2.31992 -0.438261 0)
(2.27261 -0.460933 0)
(2.22292 -0.475561 0)
(2.17257 -0.483144 0)
(2.12276 -0.484803 0)
(2.07428 -0.481583 0)
(2.02757 -0.474372 0)
(1.98283 -0.46385 0)
(1.94003 -0.450509 0)
(1.89904 -0.434654 0)
(1.85957 -0.416369 0)
(1.82137 -0.395655 0)
(1.78412 -0.372534 0)
(1.74729 -0.347023 0)
(1.71046 -0.319089 0)
(1.67373 -0.288358 0)
(1.6377 -0.254065 0)
(1.60231 -0.2161 0)
(1.56519 -0.176639 0)
(1.52211 -0.139865 0)
(1.47112 -0.108019 0)
(1.41791 -0.0774942 0)
(1.37389 -0.0395655 0)
(1.3496 0.0122565 0)
(1.3486 0.0767793 0)
(1.36886 0.149047 0)
(1.40417 0.222509 0)
(1.44641 0.290026 0)
(1.49206 0.348893 0)
(1.53921 0.399028 0)
(1.58702 0.441064 0)
(1.63536 0.475498 0)
(1.68463 0.502314 0)
(1.73563 0.520716 0)
(1.78891 0.529033 0)
(1.8449 0.524857 0)
(1.90377 0.505205 0)
(1.96506 0.467206 0)
(2.02767 0.409185 0)
(2.08983 0.331633 0)
(2.14856 0.238269 0)
(2.19939 0.136548 0)
(2.23853 0.0347586 0)
(2.26453 -0.0612861 0)
(2.27726 -0.14737 0)
(2.27762 -0.220768 0)
(2.26704 -0.280165 0)
(2.24717 -0.325295 0)
(2.21926 -0.356559 0)
(2.18462 -0.374647 0)
(2.14531 -0.381115 0)
(2.10267 -0.378269 0)
(2.05785 -0.368149 0)
(2.01168 -0.352676 0)
(1.96467 -0.333737 0)
(1.917 -0.313282 0)
(1.86873 -0.293392 0)
(1.81977 -0.275985 0)
(1.77013 -0.262188 0)
(1.72031 -0.251858 0)
(1.67135 -0.24341 0)
(1.62463 -0.234239 0)
(1.58161 -0.221375 0)
(1.54366 -0.202055 0)
(1.51213 -0.174455 0)
(1.48783 -0.138377 0)
(1.47067 -0.0949063 0)
(1.46042 -0.0460821 0)
(1.45672 0.0058066 0)
(1.45907 0.0585821 0)
(1.46688 0.110392 0)
(1.4796 0.160003 0)
(1.49668 0.206422 0)
(1.51755 0.248885 0)
(1.54165 0.286811 0)
(1.56844 0.319748 0)
(1.59748 0.347317 0)
(1.62842 0.369133 0)
(1.66104 0.384735 0)
(1.69522 0.393568 0)
(1.73063 0.395017 0)
(1.76701 0.388476 0)
(1.80406 0.373347 0)
(1.84132 0.349209 0)
(1.87825 0.315917 0)
(1.91423 0.273647 0)
(1.94856 0.222939 0)
(1.98055 0.164731 0)
(2.00946 0.100628 0)
(2.03415 0.0335564 0)
(2.05346 -0.0329884 0)
(2.14198 -0.322274 0)
(2.12265 -0.316633 0)
(2.10289 -0.306624 0)
(2.08418 -0.291263 0)
(2.06854 -0.270426 0)
(2.05796 -0.244749 0)
(2.05421 -0.215432 0)
(2.05865 -0.184179 0)
(2.07217 -0.153144 0)
(2.09501 -0.124835 0)
(2.12657 -0.101923 0)
(2.1654 -0.0870073 0)
(2.20913 -0.0822812 0)
(2.25454 -0.0890697 0)
(2.29784 -0.107658 0)
(2.33532 -0.137049 0)
(2.36362 -0.174008 0)
(2.38103 -0.215438 0)
(2.38615 -0.259111 0)
(2.37843 -0.301878 0)
(2.35921 -0.340369 0)
(2.33102 -0.372665 0)
(2.2963 -0.398195 0)
(2.25691 -0.417029 0)
(2.21449 -0.42955 0)
(2.17044 -0.436424 0)
(2.12599 -0.438427 0)
(2.08203 -0.436281 0)
(2.03914 -0.430563 0)
(1.99766 -0.421717 0)
(1.95778 -0.410067 0)
(1.91951 -0.395781 0)
(1.88269 -0.378856 0)
(1.84716 -0.359256 0)
(1.81268 -0.336912 0)
(1.77886 -0.311732 0)
(1.74527 -0.283715 0)
(1.71148 -0.252937 0)
(1.67756 -0.219292 0)
(1.64425 -0.182365 0)
(1.61203 -0.142096 0)
(1.57916 -0.100097 0)
(1.54151 -0.0600399 0)
(1.49637 -0.0252957 0)
(1.44852 0.00462362 0)
(1.40751 0.0365094 0)
(1.38284 0.0783023 0)
(1.38053 0.130166 0)
(1.39624 0.187512 0)
(1.43037 0.246211 0)
(1.47326 0.301739 0)
(1.52109 0.350207 0)
(1.57222 0.390902 0)
(1.62586 0.423819 0)
(1.68193 0.448682 0)
(1.74061 0.464648 0)
(1.80202 0.470227 0)
(1.86628 0.46326 0)
(1.93315 0.441145 0)
(2.00196 0.401563 0)
(2.07145 0.343532 0)
(2.13922 0.268693 0)
(2.2011 0.182146 0)
(2.25196 0.091714 0)
(2.28925 0.00319165 0)
(2.31182 -0.0789787 0)
(2.32011 -0.151868 0)
(2.31564 -0.213404 0)
(2.30018 -0.262509 0)
(2.27527 -0.298951 0)
(2.24238 -0.322986 0)
(2.20362 -0.335495 0)
(2.16071 -0.33824 0)
(2.115 -0.332938 0)
(2.06757 -0.321264 0)
(2.0192 -0.304883 0)
(1.97041 -0.285428 0)
(1.92155 -0.264624 0)
(1.87271 -0.244346 0)
(1.82364 -0.226391 0)
(1.77406 -0.212151 0)
(1.72412 -0.202031 0)
(1.67462 -0.194978 0)
(1.62691 -0.188626 0)
(1.58255 -0.180051 0)
(1.54303 -0.16649 0)
(1.50968 -0.145763 0)
(1.4837 -0.116979 0)
(1.46544 -0.0807984 0)
(1.45452 -0.0388754 0)
(1.45051 0.00657187 0)
(1.45285 0.0534664 0)
(1.46088 0.100055 0)
(1.47391 0.144963 0)
(1.49141 0.187219 0)
(1.51289 0.226055 0)
(1.53785 0.260863 0)
(1.56584 0.291135 0)
(1.59646 0.316408 0)
(1.62938 0.336211 0)
(1.66435 0.350039 0)
(1.70106 0.357349 0)
(1.73916 0.357586 0)
(1.77835 0.350178 0)
(1.8182 0.334614 0)
(1.85819 0.310581 0)
(1.89768 0.278028 0)
(1.93598 0.237199 0)
(1.97234 0.188659 0)
(2.00606 0.133382 0)
(2.03624 0.0731951 0)
(2.06152 0.01132 0)
(2.08094 -0.0492763 0)
(2.1556 -0.304051 0)
(2.1376 -0.298169 0)
(2.12028 -0.288896 0)
(2.10468 -0.275771 0)
(2.09215 -0.258882 0)
(2.08416 -0.238752 0)
(2.08194 -0.216287 0)
(2.08639 -0.192805 0)
(2.09804 -0.169966 0)
(2.11691 -0.149634 0)
(2.14244 -0.133708 0)
(2.17343 -0.12394 0)
(2.20799 -0.121739 0)
(2.24363 -0.127904 0)
(2.27754 -0.142541 0)
(2.30702 -0.164975 0)
(2.32962 -0.193145 0)
(2.34386 -0.224772 0)
(2.3486 -0.257829 0)
(2.34341 -0.290178 0)
(2.32898 -0.319557 0)
(2.30673 -0.344466 0)
(2.27823 -0.364381 0)
(2.24493 -0.379244 0)
(2.2082 -0.389246 0)
(2.16931 -0.394808 0)
(2.12934 -0.396489 0)
(2.08912 -0.394798 0)
(2.04949 -0.390082 0)
(2.0109 -0.382564 0)
(1.97368 -0.372399 0)
(1.93803 -0.359613 0)
(1.90391 -0.344081 0)
(1.87121 -0.325675 0)
(1.83975 -0.304252 0)
(1.80915 -0.279627 0)
(1.77897 -0.251708 0)
(1.74873 -0.220608 0)
(1.71801 -0.186687 0)
(1.68683 -0.150295 0)
(1.65601 -0.111317 0)
(1.62658 -0.0695829 0)
(1.59787 -0.0264305 0)
(1.56663 0.0145797 0)
(1.52956 0.0498845 0)
(1.4888 0.0786474 0)
(1.45229 0.104604 0)
(1.42829 0.134643 0)
(1.424 0.172237 0)
(1.43631 0.214573 0)
(1.46593 0.258375 0)
(1.50819 0.299865 0)
(1.55901 0.336235 0)
(1.61614 0.365832 0)
(1.67816 0.387629 0)
(1.74428 0.4006 0)
(1.81399 0.403282 0)
(1.88683 0.393645 0)
(1.96219 0.36942 0)
(2.03903 0.328832 0)
(2.11543 0.271837 0)
(2.18746 0.201826 0)
(2.2493 0.125561 0)
(2.29755 0.0484335 0)
(2.33047 -0.0250544 0)
(2.34771 -0.0920434 0)
(2.35028 -0.151106 0)
(2.34034 -0.200698 0)
(2.31972 -0.239721 0)
(2.28984 -0.267794 0)
(2.25283 -0.285154 0)
(2.21067 -0.292981 0)
(2.16491 -0.292557 0)
(2.11681 -0.285214 0)
(2.06739 -0.272396 0)
(2.01747 -0.255554 0)
(1.96772 -0.236131 0)
(1.91865 -0.215624 0)
(1.87029 -0.195526 0)
(1.82237 -0.177403 0)
(1.77435 -0.162758 0)
(1.72586 -0.152496 0)
(1.67721 -0.146251 0)
(1.62952 -0.142159 0)
(1.58443 -0.13741 0)
(1.54362 -0.129187 0)
(1.5086 -0.115238 0)
(1.4806 -0.0940692 0)
(1.46063 -0.0655954 0)
(1.44864 -0.0310909 0)
(1.44407 0.00749582 0)
(1.44635 0.0481782 0)
(1.45468 0.0893363 0)
(1.46821 0.129483 0)
(1.4863 0.167428 0)
(1.50854 0.20242 0)
(1.53451 0.233829 0)
(1.56378 0.261105 0)
(1.59599 0.283739 0)
(1.6308 0.30123 0)
(1.66781 0.313064 0)
(1.70666 0.318728 0)
(1.74699 0.317684 0)
(1.78841 0.309403 0)
(1.83041 0.293479 0)
(1.87241 0.269705 0)
(1.91373 0.238109 0)
(1.95364 0.198975 0)
(1.99144 0.152868 0)
(2.02636 0.100858 0)
(2.05714 0.0451573 0)
(2.08237 -0.0111482 0)
(2.10127 -0.0653534 0)
(2.15748 -0.286161 0)
(2.14191 -0.281153 0)
(2.12756 -0.273481 0)
(2.11519 -0.262991 0)
(2.1057 -0.24986 0)
(2.10014 -0.234539 0)
(2.09939 -0.21775 0)
(2.10405 -0.200506 0)
(2.11443 -0.184056 0)
(2.13046 -0.169764 0)
(2.15164 -0.15899 0)
(2.17693 -0.152972 0)
(2.20486 -0.152658 0)
(2.23353 -0.158482 0)
(2.26089 -0.170524 0)
(2.285 -0.18833 0)
(2.30397 -0.210136 0)
(2.31651 -0.23388 0)
(2.32157 -0.258138 0)
(2.31848 -0.281833 0)
(2.30753 -0.303385 0)
(2.28962 -0.321659 0)
(2.26578 -0.336166 0)
(2.23706 -0.346836 0)
(2.20459 -0.353845 0)
(2.16947 -0.357525 0)
(2.13274 -0.358298 0)
(2.09532 -0.356546 0)
(2.05801 -0.352446 0)
(2.02157 -0.346051 0)
(1.98644 -0.337337 0)
(1.953 -0.326138 0)
(1.92139 -0.312182 0)
(1.89149 -0.295183 0)
(1.86324 -0.274875 0)
(1.83622 -0.250937 0)
(1.80983 -0.223251 0)
(1.78348 -0.191936 0)
(1.75656 -0.157341 0)
(1.72862 -0.120227 0)
(1.6998 -0.0815784 0)
(1.67112 -0.0415161 0)
(1.64367 0.000428192 0)
(1.61834 0.0420603 0)
(1.594 0.0802262 0)
(1.56815 0.112566 0)
(1.54022 0.13833 0)
(1.51457 0.159243 0)
(1.49719 0.179848 0)
(1.49342 0.203969 0)
(1.50604 0.230359 0)
(1.53446 0.257389 0)
(1.57694 0.28288 0)
(1.63112 0.304505 0)
(1.6946 0.320295 0)
(1.76534 0.328537 0)
(1.8417 0.327377 0)
(1.92214 0.314717 0)
(2.00502 0.288563 0)
(2.08818 0.24797 0)
(2.16781 0.194874 0)
(2.23796 0.134754 0)
(2.29457 0.0722648 0)
(2.33527 0.01071 0)
(2.3596 -0.0467131 0)
(2.36901 -0.0986405 0)
(2.36609 -0.144559 0)
(2.35027 -0.182992 0)
(2.3243 -0.21233 0)
(2.2901 -0.232378 0)
(2.24953 -0.243907 0)
(2.20441 -0.24766 0)
(2.15621 -0.244494 0)
(2.10612 -0.235513 0)
(2.0552 -0.222005 0)
(2.00443 -0.205299 0)
(1.95467 -0.186668 0)
(1.90632 -0.167223 0)
(1.85956 -0.148108 0)
(1.81413 -0.130534 0)
(1.76935 -0.115791 0)
(1.72438 -0.105047 0)
(1.67872 -0.0987293 0)
(1.63287 -0.0958851 0)
(1.58828 -0.0941356 0)
(1.54674 -0.0905505 0)
(1.51011 -0.0827381 0)
(1.47992 -0.0690921 0)
(1.45738 -0.0487159 0)
(1.44354 -0.0221098 0)
(1.43782 0.0089496 0)
(1.43956 0.0428043 0)
(1.44802 0.0781765 0)
(1.46203 0.11339 0)
(1.48085 0.146889 0)
(1.50405 0.177843 0)
(1.53119 0.205623 0)
(1.56185 0.229647 0)
(1.59562 0.249395 0)
(1.6321 0.264388 0)
(1.67086 0.274133 0)
(1.71148 0.278106 0)
(1.75353 0.275776 0)
(1.79655 0.266686 0)
(1.84001 0.250527 0)
(1.88331 0.227181 0)
(1.92578 0.196733 0)
(1.96677 0.159441 0)
(2.00559 0.115902 0)
(2.04114 0.0676096 0)
(2.07171 0.0172541 0)
(2.09606 -0.0326962 0)
(2.1134 -0.0798297 0)
(2.15868 -0.271504 0)
(2.14576 -0.267732 0)
(2.13416 -0.261766 0)
(2.12448 -0.253648 0)
(2.11739 -0.243762 0)
(2.11359 -0.23243 0)
(2.11379 -0.220231 0)
(2.1184 -0.207952 0)
(2.12756 -0.196526 0)
(2.14119 -0.186963 0)
(2.15886 -0.180238 0)
(2.17977 -0.17719 0)
(2.2028 -0.178359 0)
(2.22648 -0.183909 0)
(2.24933 -0.193931 0)
(2.26978 -0.208025 0)
(2.28629 -0.224751 0)
(2.29776 -0.242256 0)
(2.30322 -0.259387 0)
(2.3018 -0.275832 0)
(2.29344 -0.290518 0)
(2.27869 -0.302593 0)
(2.25817 -0.311753 0)
(2.23261 -0.318041 0)
(2.20291 -0.321673 0)
(2.17004 -0.322991 0)
(2.13506 -0.322391 0)
(2.09897 -0.320178 0)
(2.06263 -0.316419 0)
(2.0271 -0.311078 0)
(1.99308 -0.303989 0)
(1.96111 -0.294738 0)
(1.93158 -0.282856 0)
(1.90442 -0.267898 0)
(1.87951 -0.249259 0)
(1.85655 -0.226393 0)
(1.83466 -0.199013 0)
(1.81293 -0.16728 0)
(1.79045 -0.131731 0)
(1.76645 -0.0934179 0)
(1.74067 -0.0537368 0)
(1.71335 -0.013392 0)
(1.68568 0.0268153 0)
(1.65985 0.0653533 0)
(1.63739 0.100954 0)
(1.61899 0.131925 0)
(1.60475 0.156741 0)
(1.5943 0.175702 0)
(1.58754 0.190829 0)
(1.58702 0.204338 0)
(1.5964 0.216689 0)
(1.61822 0.228265 0)
(1.65367 0.238925 0)
(1.70235 0.24756 0)
(1.76268 0.252718 0)
(1.83248 0.252723 0)
(1.90931 0.245641 0)
(1.99046 0.22949 0)
(2.07295 0.202779 0)
(2.15257 0.165867 0)
(2.22442 0.121825 0)
(2.28453 0.0749228 0)
(2.33042 0.0285258 0)
(2.36045 -0.0161486 0)
(2.3735 -0.0591425 0)
(2.37532 -0.0980648 0)
(2.36628 -0.132283 0)
(2.34368 -0.159606 0)
(2.31268 -0.179718 0)
(2.27426 -0.192997 0)
(2.23017 -0.19957 0)
(2.18211 -0.199792 0)
(2.13147 -0.194353 0)
(2.07959 -0.184274 0)
(2.02782 -0.170794 0)
(1.97727 -0.155071 0)
(1.92857 -0.138025 0)
(1.8822 -0.120504 0)
(1.83834 -0.103298 0)
(1.79676 -0.087191 0)
(1.75678 -0.0730926 0)
(1.7173 -0.0620416 0)
(1.6773 -0.0549225 0)
(1.63619 -0.0517746 0)
(1.59433 -0.0512847 0)
(1.5537 -0.0510045 0)
(1.51633 -0.0483486 0)
(1.48425 -0.0414964 0)
(1.45899 -0.0293956 0)
(1.44169 -0.0114711 0)
(1.43413 0.0115952 0)
(1.43359 0.0380331 0)
(1.4407 0.0668543 0)
(1.45517 0.0966074 0)
(1.47467 0.125362 0)
(1.49892 0.152045 0)
(1.52735 0.176008 0)
(1.55941 0.196655 0)
(1.59467 0.213462 0)
(1.63267 0.225963 0)
(1.67291 0.233674 0)
(1.71487 0.236075 0)
(1.75807 0.23265 0)
(1.80205 0.222968 0)
(1.84632 0.20676 0)
(1.89037 0.183956 0)
(1.9336 0.154648 0)
(1.97538 0.119155 0)
(2.01482 0.0784573 0)
(2.05028 0.0347128 0)
(2.08015 -0.00983638 0)
(2.10313 -0.0528378 0)
(2.11855 -0.0921697 0)
(2.16193 -0.259277 0)
(2.15096 -0.256579 0)
(2.14129 -0.252169 0)
(2.13345 -0.246181 0)
(2.12793 -0.239043 0)
(2.12515 -0.231086 0)
(2.12569 -0.222659 0)
(2.12988 -0.214416 0)
(2.13777 -0.207048 0)
(2.14929 -0.201286 0)
(2.16412 -0.197814 0)
(2.18168 -0.197166 0)
(2.20108 -0.199597 0)
(2.22119 -0.205099 0)
(2.24094 -0.213742 0)
(2.25902 -0.22513 0)
(2.2741 -0.237996 0)
(2.28503 -0.250606 0)
(2.29093 -0.261752 0)
(2.29104 -0.271815 0)
(2.28466 -0.280215 0)
(2.27208 -0.286286 0)
(2.2536 -0.289964 0)
(2.22968 -0.291453 0)
(2.20105 -0.29116 0)
(2.16863 -0.28955 0)
(2.13352 -0.287097 0)
(2.09688 -0.284091 0)
(2.05973 -0.28054 0)
(2.02349 -0.276371 0)
(1.98912 -0.271272 0)
(1.95749 -0.264502 0)
(1.92931 -0.255264 0)
(1.90481 -0.243082 0)
(1.88359 -0.226998 0)
(1.86547 -0.206066 0)
(1.84925 -0.179709 0)
(1.83331 -0.147742 0)
(1.8163 -0.110643 0)
(1.79702 -0.0700649 0)
(1.77489 -0.0282367 0)
(1.74973 0.0136117 0)
(1.72238 0.0538325 0)
(1.69511 0.0902116 0)
(1.67059 0.121317 0)
(1.65136 0.146134 0)
(1.63907 0.164392 0)
(1.63421 0.17752 0)
(1.63707 0.187705 0)
(1.64789 0.194512 0)
(1.66729 0.197939 0)
(1.69636 0.198718 0)
(1.73582 0.197508 0)
(1.78573 0.19453 0)
(1.84517 0.189479 0)
(1.91228 0.181519 0)
(1.98468 0.169311 0)
(2.05971 0.151366 0)
(2.13367 0.127044 0)
(2.2022 0.0970006 0)
(2.2615 0.0631866 0)
(2.3088 0.0289513 0)
(2.34243 -0.00273531 0)
(2.36233 -0.0326289 0)
(2.36805 -0.062397 0)
(2.36278 -0.0900891 0)
(2.34481 -0.113005 0)
(2.31694 -0.130352 0)
(2.28068 -0.1427 0)
(2.23759 -0.149917 0)
(2.18941 -0.15192 0)
(2.13784 -0.14907 0)
(2.08458 -0.142089 0)
(2.03158 -0.132009 0)
(1.98023 -0.119787 0)
(1.9314 -0.106135 0)
(1.88565 -0.091688 0)
(1.84327 -0.0770659 0)
(1.80425 -0.062721 0)
(1.76819 -0.0489916 0)
(1.73432 -0.0363843 0)
(1.70161 -0.0256977 0)
(1.66889 -0.0177932 0)
(1.63524 -0.0132363 0)
(1.59999 -0.0118811 0)