/*--------------------------------*- C++ -*----------------------------------*\
| =========                 |                                                 |
| \\      /  F ield         | OpenFOAM: The Open Source CFD Toolbox           |
|  \\    /   O peration     | Version:  2206                                  |
|   \\  /    A nd           | Website:  www.openfoam.com                      |
|    \\/     M anipulation  |                                                 |
\*---------------------------------------------------------------------------*/
FoamFile
{
    version     2.0;
    format      ascii;
    arch        "LSB;label=32;scalar=64";
    class       volVectorField;
    location    "19.4001";
    object      ddt0(U);
}
// * * * * * * * * * * * * * * * * * * * * * * * * * * * * * * * * * * * * * //

dimensions      [0 1 -2 0 0 0 0];

internalField   nonuniform List<vector> 
4824
(
(26.8103 -18.5093 0)
(27.6418 -17.3391 0)
(28.6315 -15.983 0)
(29.8751 -14.4296 0)
(31.4627 -12.6297 0)
(33.4267 -10.5956 0)
(35.6779 -8.52857 0)
(37.9654 -6.91162 0)
(39.8891 -6.49936 0)
(40.9787 -8.16999 0)
(40.82 -12.6674 0)
(39.1794 -20.3237 0)
(36.0692 -30.8808 0)
(31.7294 -43.4985 0)
(26.5567 -56.9474 0)
(20.9825 -69.8969 0)
(15.3228 -81.1796 0)
(9.82389 -89.9436 0)
(4.53376 -95.6206 0)
(-0.140236 -98.0642 0)
(-4.48677 -97.4444 0)
(-8.23374 -94.6413 0)
(-11.5274 -90.0455 0)
(-14.2918 -84.1174 0)
(-16.4241 -77.2275 0)
(-17.9202 -69.7499 0)
(-18.8125 -62.042 0)
(-19.1555 -54.3994 0)
(-19.0261 -47.0527 0)
(-18.5133 -40.1632 0)
(-17.7018 -33.8091 0)
(-16.6744 -27.9803 0)
(-15.5444 -22.6307 0)
(-14.3964 -17.6307 0)
(-13.3084 -12.7555 0)
(-12.7917 -7.38841 0)
(-12.4754 -0.359519 0)
(-12.1789 7.92329 0)
(-12.2305 17.2535 0)
(-12.3917 27.5267 0)
(-12.6461 38.5331 0)
(-12.9309 49.9356 0)
(-13.1575 61.2866 0)
(-13.2626 72.0674 0)
(-13.2025 81.7334 0)
(-12.9491 89.7312 0)
(-12.474 95.4383 0)
(-11.6392 97.8853 0)
(-10.4056 96.8498 0)
(-8.9174 93.504 0)
(-7.17294 88.1143 0)
(-5.19008 81.0486 0)
(-3.00931 72.747 0)
(-0.67619 63.6905 0)
(1.76184 54.3639 0)
(4.25529 45.218 0)
(6.75531 36.6308 0)
(9.209 28.8632 0)
(11.5556 22.0028 0)
(13.8921 15.9225 0)
(16.448 10.2975 0)
(18.6653 5.16852 0)
(20.7696 1.03004 0)
(22.5249 -2.45347 0)
(23.8113 -5.64411 0)
(24.5942 -8.86927 0)
(24.8285 -12.3915 0)
(24.5044 -16.3543 0)
(23.6566 -20.7737 0)
(22.3538 -25.5554 0)
(20.686 -30.5272 0)
(18.7481 -35.4814 0)
(16.6236 -40.2143 0)
(14.3745 -44.555 0)
(12.0392 -48.3795 0)
(9.63485 -51.6125 0)
(7.16361 -54.2148 0)
(4.62875 -56.1593 0)
(2.05251 -57.4192 0)
(-0.528845 -57.9309 0)
(-3.08273 -57.7094 0)
(-5.57049 -56.9224 0)
(-7.933 -55.574 0)
(-10.1098 -53.6952 0)
(-12.0473 -51.339 0)
(-13.7007 -48.578 0)
(-15.0421 -45.496 0)
(-16.0581 -42.192 0)
(-16.749 -38.7632 0)
(-17.127 -35.2979 0)
(-17.2134 -31.8695 0)
(-17.0369 -28.5344 0)
(-16.6351 -25.3271 0)
(-16.0524 -22.2757 0)
(-15.336 -19.3926 0)
(-14.5344 -16.6723 0)
(-13.695 -14.0892 0)
(-12.8607 -11.5985 0)
(-12.0555 -9.13681 0)
(-11.2989 -6.61268 0)
(-10.7019 -3.81798 0)
(-10.2151 -0.400837 0)
(-9.60188 3.56253 0)
(-9.1463 7.96116 0)
(-8.72083 12.7497 0)
(-8.32397 17.8795 0)
(-7.96389 23.2812 0)
(-7.62503 28.8633 0)
(-7.29575 34.519 0)
(-6.96853 40.1307 0)
(-6.63737 45.5746 0)
(-6.29791 50.7258 0)
(-5.94741 55.46 0)
(-5.58522 59.6533 0)
(-5.21135 63.1817 0)
(-4.82516 65.9093 0)
(-4.41926 67.6315 0)
(-3.95265 67.9418 0)
(-3.42539 67.1461 0)
(-2.84407 65.4085 0)
(-2.19684 62.7807 0)
(-1.47612 59.3469 0)
(-0.679206 55.2213 0)
(0.194741 50.5427 0)
(1.14388 45.4665 0)
(2.16278 40.1539 0)
(3.24224 34.7624 0)
(4.36957 29.4336 0)
(5.53019 24.2822 0)
(6.70351 19.3817 0)
(7.86655 14.7477 0)
(9.1006 10.3168 0)
(10.5414 5.93769 0)
(11.7902 1.63244 0)
(12.9651 -2.34653 0)
(13.9626 -6.17064 0)
(14.7123 -9.97033 0)
(15.2151 -13.8454 0)
(29.3705 -19.2093 0)
(29.8953 -18.1748 0)
(30.5736 -17.0408 0)
(31.4786 -15.813 0)
(32.7034 -14.4255 0)
(34.3229 -12.8075 0)
(36.3232 -11.007 0)
(38.5362 -9.32008 0)
(40.6134 -8.34912 0)
(42.0722 -8.92798 0)
(42.4124 -11.9052 0)
(41.2639 -17.8446 0)
(38.503 -26.7751 0)
(34.2831 -38.1108 0)
(28.9875 -50.7547 0)
(23.0713 -63.3609 0)
(16.9816 -74.6851 0)
(11.1793 -83.7861 0)
(5.22477 -89.996 0)
(1.07738 -93.0232 0)
(-3.53764 -92.8438 0)
(-7.67593 -90.5752 0)
(-10.9096 -86.5865 0)
(-13.7912 -81.3111 0)
(-16.0562 -75.1033 0)
(-17.711 -68.2989 0)
(-18.8106 -61.2166 0)
(-19.395 -54.1297 0)
(-19.5285 -47.2624 0)
(-19.2861 -40.7622 0)
(-18.7523 -34.684 0)
(-18.0245 -29.0293 0)
(-17.2067 -23.7306 0)
(-16.3664 -18.6484 0)
(-15.5938 -13.5449 0)
(-15.35 -7.80072 0)
(-15.2036 -0.526438 0)
(-15.1155 7.90978 0)
(-15.2787 17.3789 0)
(-15.4647 27.7483 0)
(-15.6583 38.7758 0)
(-15.8033 50.1163 0)
(-15.8218 61.3313 0)
(-15.6598 71.9222 0)
(-15.2843 81.3623 0)
(-14.6773 89.0997 0)
(-13.8129 94.4884 0)
(-12.5372 96.463 0)
(-10.8745 95.1122 0)
(-8.982 91.4754 0)
(-6.85932 85.8251 0)
(-4.53718 78.5423 0)
(-2.07089 70.0776 0)
(0.483842 60.9148 0)
(3.07113 51.5372 0)
(5.64478 42.3935 0)
(8.15904 33.8548 0)
(10.5605 26.1683 0)
(12.8266 19.39 0)
(15.1826 13.3048 0)
(17.6266 7.6051 0)
(19.7542 2.72409 0)
(21.8051 -1.07628 0)
(23.5082 -4.14033 0)
(24.802 -6.81531 0)
(25.6267 -9.45255 0)
(25.9102 -12.3467 0)
(25.6188 -15.6851 0)
(24.7643 -19.5307 0)
(23.4017 -23.8267 0)
(21.6205 -28.4219 0)
(19.5273 -33.1098 0)
(17.2276 -37.6712 0)
(14.8097 -41.9094 0)
(12.3363 -45.6729 0)
(9.84299 -48.8625 0)
(7.34365 -51.4249 0)
(4.84318 -53.338 0)
(2.34858 -54.5889 0)
(-0.123616 -55.121 0)
(-2.55564 -54.9489 0)
(-4.92646 -54.2617 0)
(-7.19254 -53.0735 0)
(-9.30362 -51.4132 0)
(-11.2125 -49.3259 0)
(-12.8792 -46.8729 0)
(-14.2735 -44.1282 0)
(-15.3779 -41.1734 0)
(-16.1884 -38.0894 0)
(-16.7135 -34.9504 0)
(-16.972 -31.8183 0)
(-16.9913 -28.7409 0)
(-16.8044 -25.7524 0)
(-16.4489 -22.8741 0)
(-15.9656 -20.1136 0)
(-15.3971 -17.4649 0)
(-14.785 -14.9065 0)
(-14.1665 -12.3997 0)
(-13.5626 -9.88611 0)
(-12.9925 -7.27629 0)
(-12.5519 -4.38254 0)
(-12.2188 -0.918467 0)
(-11.7576 3.07025 0)
(-11.4054 7.49405 0)
(-11.0492 12.3104 0)
(-10.6839 17.4614 0)
(-10.3191 22.8734 0)
(-9.94212 28.4547 0)
(-9.54251 34.0998 0)
(-9.11323 39.693 0)
(-8.64835 45.1128 0)
(-8.14379 50.2362 0)
(-7.59755 54.9413 0)
(-7.01075 59.1071 0)
(-6.38752 62.6087 0)
(-5.73201 65.3075 0)
(-5.04117 66.9894 0)
(-4.27987 67.2181 0)
(-3.46463 66.37 0)
(-2.60541 64.5699 0)
(-1.69532 61.8739 0)
(-0.731851 58.3687 0)
(0.283794 54.1713 0)
(1.34978 49.4231 0)
(2.46225 44.2817 0)
(3.61522 38.9121 0)
(4.8004 33.475 0)
(6.00846 28.1142 0)
(7.22923 22.9431 0)
(8.44475 18.0244 0)
(9.67575 13.3518 0)
(11.0695 8.82594 0)
(12.5302 4.37563 0)
(13.7906 0.234873 0)
(14.9856 -3.54367 0)
(15.9575 -7.13326 0)
(16.6842 -10.6598 0)
(17.1529 -14.2438 0)
(31.5342 -19.5696 0)
(31.8038 -18.6901 0)
(32.2221 -17.756 0)
(32.8395 -16.8145 0)
(33.7263 -15.8141 0)
(34.9755 -14.6461 0)
(36.6399 -13.2411 0)
(38.6498 -11.7079 0)
(40.7488 -10.4494 0)
(42.4936 -10.1751 0)
(43.3408 -11.7564 0)
(42.7976 -15.9464 0)
(40.5876 -23.0727 0)
(36.7326 -32.8531 0)
(31.5221 -44.4108 0)
(25.4593 -56.4789 0)
(19.1028 -67.742 0)
(12.857 -77.1377 0)
(6.67083 -84.0344 0)
(1.59571 -87.8383 0)
(-2.61032 -88.1126 0)
(-7.0806 -86.354 0)
(-10.3189 -83.0369 0)
(-13.2674 -78.4103 0)
(-15.6421 -72.836 0)
(-17.4458 -66.6541 0)
(-18.7335 -60.1555 0)
(-19.5373 -53.5983 0)
(-19.9127 -47.1855 0)
(-19.9363 -41.0402 0)
(-19.694 -35.2245 0)
(-19.2761 -29.728 0)
(-18.7736 -24.4745 0)
(-18.2378 -19.3218 0)
(-17.781 -14.0161 0)
(-17.8135 -7.9473 0)
(-17.8214 -0.478221 0)
(-17.9361 8.05258 0)
(-18.1948 17.5798 0)
(-18.4029 27.9532 0)
(-18.5424 38.9115 0)
(-18.5562 50.1075 0)
(-18.3749 61.1142 0)
(-17.9523 71.4527 0)
(-17.2633 80.6152 0)
(-16.3019 88.0554 0)
(-15.0474 93.0864 0)
(-13.3277 94.5419 0)
(-11.2458 92.9098 0)
(-8.95188 89.0102 0)
(-6.46406 83.1407 0)
(-3.82582 75.6947 0)
(-1.10087 67.1301 0)
(1.65247 57.9327 0)
(4.37748 48.5827 0)
(7.01806 39.5209 0)
(9.53053 31.105 0)
(11.8639 23.5531 0)
(14.053 16.8719 0)
(16.4119 10.7541 0)
(18.6231 5.03213 0)
(20.6686 0.406529 0)
(22.6076 -3.10931 0)
(24.245 -5.81023 0)
(25.5478 -8.02449 0)
(26.4366 -10.1097 0)
(26.818 -12.3824 0)
(26.6292 -15.0712 0)
(25.8498 -18.2908 0)
(24.5091 -22.0344 0)
(22.6834 -26.1876 0)
(20.4817 -30.5605 0)
(18.0261 -34.929 0)
(15.4311 -39.0745 0)
(12.789 -42.8145 0)
(10.1616 -46.0187 0)
(7.58239 -48.6113 0)
(5.06355 -50.5597 0)
(2.60727 -51.8511 0)
(0.220503 -52.4392 0)
(-2.09596 -52.3245 0)
(-4.34695 -51.7259 0)
(-6.50695 -50.6709 0)
(-8.53693 -49.1927 0)
(-10.3981 -47.3337 0)
(-12.0555 -45.1472 0)
(-13.4805 -42.6955 0)
(-14.6549 -40.0463 0)
(-15.572 -37.2674 0)
(-16.2364 -34.4207 0)
(-16.6628 -31.5583 0)
(-16.8735 -28.7201 0)
(-16.8966 -25.9339 0)
(-16.7645 -23.2161 0)
(-16.5127 -20.5724 0)
(-16.1771 -17.9974 0)
(-15.793 -15.4729 0)
(-15.3913 -12.9648 0)
(-14.9895 -10.4188 0)
(-14.6093 -7.74495 0)
(-14.3394 -4.76789 0)
(-14.1482 -1.26679 0)
(-13.8378 2.71857 0)
(-13.5941 7.13056 0)
(-13.3133 11.9338 0)
(-12.99 17.065 0)
(-12.6312 22.4477 0)
(-12.2251 27.9903 0)
(-11.7621 33.5875 0)
(-11.2354 39.1255 0)
(-10.6395 44.4847 0)
(-9.97113 49.5444 0)
(-9.22999 54.1859 0)
(-8.41939 58.2927 0)
(-7.54777 61.7426 0)
(-6.62468 64.3912 0)
(-5.64974 66.0194 0)
(-4.59368 66.1684 0)
(-3.49191 65.2776 0)
(-2.35606 63.4299 0)
(-1.18441 60.6854 0)
(0.0196973 57.1333 0)
(1.25085 52.892 0)
(2.50455 48.1047 0)
(3.77573 42.9306 0)
(5.0583 37.5361 0)
(6.34571 32.0828 0)
(7.63288 26.7142 0)
(8.91121 21.5356 0)
(10.177 16.5949 0)
(11.5199 11.8562 0)
(13.0529 7.22631 0)
(14.4483 2.79107 0)
(15.773 -1.15783 0)
(16.9553 -4.73333 0)
(17.9049 -8.07302 0)
(18.6072 -11.3126 0)
(19.0365 -14.5883 0)
(33.2638 -19.6574 0)
(33.321 -18.9493 0)
(33.5462 -18.2035 0)
(33.9517 -17.4973 0)
(34.5675 -16.8186 0)
(35.4714 -16.0698 0)
(36.7558 -15.1179 0)
(38.4491 -13.9146 0)
(40.4184 -12.6456 0)
(42.3134 -11.8237 0)
(43.6036 -12.2414 0)
(43.7133 -14.7597 0)
(42.2005 -19.9831 0)
(38.9083 -27.9679 0)
(34.0157 -38.1412 0)
(27.9708 -49.4211 0)
(21.3633 -60.4706 0)
(14.7542 -70.0835 0)
(8.47999 -77.5001 0)
(2.74032 -82.1042 0)
(-2.14942 -83.3411 0)
(-6.17778 -82.1467 0)
(-9.66687 -79.429 0)
(-12.6883 -75.4035 0)
(-15.1682 -70.4259 0)
(-17.1222 -64.8252 0)
(-18.587 -58.875 0)
(-19.5984 -52.814 0)
(-20.2135 -46.8177 0)
(-20.5049 -41.0059 0)
(-20.551 -35.43 0)
(-20.4366 -30.0762 0)
(-20.2396 -24.8663 0)
(-20.002 -19.6548 0)
(-19.8634 -14.1692 0)
(-20.1662 -7.833 0)
(-20.3085 -0.23545 0)
(-20.6126 8.33521 0)
(-20.9505 17.8485 0)
(-21.1743 28.141 0)
(-21.2606 38.9452 0)
(-21.1484 49.9175 0)
(-20.7764 60.6432 0)
(-20.1067 70.6646 0)
(-19.1189 79.4949 0)
(-17.8094 86.5886 0)
(-16.1588 91.215 0)
(-13.9942 92.1423 0)
(-11.5077 90.2494 0)
(-8.82562 86.1235 0)
(-5.989 80.0875 0)
(-3.05449 72.5426 0)
(-0.0944545 63.948 0)
(2.82565 54.7875 0)
(5.6467 45.5367 0)
(8.31991 36.6245 0)
(10.802 28.3866 0)
(13.0457 21.0075 0)
(15.1754 14.4363 0)
(17.4956 8.29644 0)
(19.4049 2.65243 0)
(21.3377 -1.74768 0)
(23.1261 -5.02936 0)
(24.678 -7.43962 0)
(25.9797 -9.27609 0)
(26.9451 -10.8763 0)
(27.467 -12.5637 0)
(27.4532 -14.6013 0)
(26.8443 -17.156 0)
(25.6314 -20.2794 0)
(23.8624 -23.9095 0)
(21.6344 -27.8911 0)
(19.0752 -32.0113 0)
(16.3211 -36.0401 0)
(13.4951 -39.7672 0)
(10.6926 -43.0273 0)
(7.97522 -45.7113 0)
(5.3729 -47.7621 0)
(2.89455 -49.1564 0)
(0.546207 -49.8587 0)
(-1.6818 -49.8258 0)
(-3.82282 -49.317 0)
(-5.87741 -48.3782 0)
(-7.81981 -47.0521 0)
(-9.62123 -45.3825 0)
(-11.2541 -43.4187 0)
(-12.6937 -41.2152 0)
(-13.9228 -38.8289 0)
(-14.933 -36.3158 0)
(-15.7252 -33.7267 0)
(-16.3093 -31.1039 0)
(-16.7028 -28.4793 0)
(-16.9287 -25.8753 0)
(-17.0141 -23.305 0)
(-16.9881 -20.7726 0)
(-16.8805 -18.2731 0)
(-16.7202 -15.7908 0)
(-16.532 -13.2951 0)
(-16.3304 -10.7329 0)
(-16.1433 -8.0118 0)
(-16.0529 -4.96988 0)
(-15.9945 -1.45139 0)
(-15.8309 2.50355 0)
(-15.695 6.87369 0)
(-15.4912 11.6276 0)
(-15.2155 16.6999 0)
(-14.8693 22.0139 0)
(-14.4402 27.478 0)
(-13.9196 32.9879 0)
(-13.3013 38.4314 0)
(-12.5805 43.6918 0)
(-11.7552 48.6522 0)
(-10.8265 53.1982 0)
(-9.79921 57.2179 0)
(-8.68546 60.5933 0)
(-7.50118 63.1757 0)
(-6.24667 64.7274 0)
(-4.90345 64.7946 0)
(-3.52369 63.866 0)
(-2.1165 61.984 0)
(-0.687233 59.213 0)
(0.753474 55.6432 0)
(2.19509 51.3917 0)
(3.62843 46.5986 0)
(5.05197 41.4239 0)
(6.45994 36.035 0)
(7.84811 30.5935 0)
(9.21362 25.2366 0)
(10.5502 20.0585 0)
(11.8926 15.0832 0)
(13.3793 10.2498 0)
(14.959 5.54109 0)
(16.3498 1.22401 0)
(17.7071 -2.54855 0)
(18.8678 -5.9118 0)
(19.7969 -8.98853 0)
(20.4707 -11.9284 0)
(20.8563 -14.8793 0)
(34.5364 -19.5145 0)
(34.4346 -19.0087 0)
(34.5304 -18.4649 0)
(34.8002 -17.9582 0)
(35.2345 -17.5166 0)
(35.8677 -17.0959 0)
(36.7855 -16.5728 0)
(38.083 -15.8044 0)
(39.7639 -14.7699 0)
(41.6308 -13.7321 0)
(43.2328 -13.319 0)
(43.973 -14.3761 0)
(43.2784 -17.7017 0)
(40.7802 -23.6956 0)
(36.4546 -32.1664 0)
(30.6483 -42.3185 0)
(23.949 -52.9194 0)
(16.9991 -62.6801 0)
(10.3056 -70.5686 0)
(4.19746 -75.8924 0)
(-1.0427 -78.2783 0)
(-5.34176 -77.8206 0)
(-8.97134 -75.7047 0)
(-12.0862 -72.2689 0)
(-14.6804 -67.8706 0)
(-16.772 -62.8204 0)
(-18.4025 -57.383 0)
(-19.6146 -51.7778 0)
(-20.4635 -46.1693 0)
(-21.0144 -40.6641 0)
(-21.3397 -35.3084 0)
(-21.5164 -30.087 0)
(-21.609 -24.9209 0)
(-21.6583 -19.6592 0)
(-21.8315 -14.0119 0)
(-22.3544 -7.47022 0)
(-22.6548 0.181776 0)
(-23.1171 8.73911 0)
(-23.5174 18.1716 0)
(-23.7495 28.3059 0)
(-23.7814 38.8783 0)
(-23.5491 49.5541 0)
(-22.9982 59.9357 0)
(-22.096 69.5839 0)
(-20.823 78.0217 0)
(-19.1736 84.7036 0)
(-17.1264 88.8822 0)
(-14.5309 89.2771 0)
(-11.6771 87.1481 0)
(-8.63823 82.8344 0)
(-5.47872 76.682 0)
(-2.27182 69.1004 0)
(0.903776 60.5491 0)
(3.97681 51.5044 0)
(6.88392 42.4302 0)
(9.57665 33.7405 0)
(12.0129 25.7466 0)
(14.164 18.5884 0)
(16.2255 12.1332 0)
(18.3314 6.00233 0)
(19.996 0.536413 0)
(21.7017 -3.70287 0)
(23.2747 -6.82702 0)
(24.7156 -9.02147 0)
(26.0062 -10.5624 0)
(27.0452 -11.7741 0)
(27.7359 -12.9534 0)
(27.9628 -14.3754 0)
(27.6263 -16.2511 0)
(26.6697 -18.6951 0)
(25.0954 -21.7108 0)
(22.9685 -25.1977 0)
(20.4052 -28.9757 0)
(17.5514 -32.8214 0)
(14.5573 -36.5068 0)
(11.5551 -39.8323 0)
(8.64389 -42.6492 0)
(5.88522 -44.8656 0)
(3.30735 -46.4351 0)
(0.92235 -47.3219 0)
(-1.27267 -47.4248 0)
(-3.33103 -47.0196 0)
(-5.29389 -46.1919 0)
(-7.15243 -44.9972 0)
(-8.88953 -43.485 0)
(-10.4883 -41.7042 0)
(-11.9307 -39.7048 0)
(-13.2016 -37.5367 0)
(-14.2914 -35.2475 0)
(-15.1986 -32.8782 0)
(-15.9297 -30.462 0)
(-16.4957 -28.0255 0)
(-16.9147 -25.5852 0)
(-17.2085 -23.1499 0)
(-17.3999 -20.7224 0)
(-17.512 -18.2991 0)
(-17.5679 -15.866 0)
(-17.5866 -13.3941 0)
(-17.5816 -10.8289 0)
(-17.5891 -8.07432 0)
(-17.6779 -4.98893 0)
(-17.7386 -1.47995 0)
(-17.7208 2.41964 0)
(-17.6866 6.72187 0)
(-17.5583 11.3935 0)
(-17.3325 16.3699 0)
(-17.004 21.5764 0)
(-16.5606 26.9232 0)
(-15.9943 32.3082 0)
(-15.2988 37.6221 0)
(-14.4674 42.7504 0)
(-13.4961 47.577 0)
(-12.3824 51.9899 0)
(-11.1362 55.8865 0)
(-9.77751 59.1586 0)
(-8.331 61.6559 0)
(-6.80079 63.1064 0)
(-5.18744 63.1229 0)
(-3.55279 62.1602 0)
(-1.90475 60.2567 0)
(-0.249813 57.476 0)
(1.40163 53.9086 0)
(3.04021 49.6716 0)
(4.65688 44.9044 0)
(6.23564 39.7613 0)
(7.76945 34.4067 0)
(9.26324 28.9997 0)
(10.7126 23.67 0)
(12.1251 18.4933 0)
(13.5863 13.4651 0)
(15.2269 8.53149 0)
(16.7733 3.81015 0)
(18.234 -0.341028 0)
(19.5891 -3.93559 0)
(20.7298 -7.07167 0)
(21.6365 -9.87245 0)
(22.2747 -12.4987 0)
(22.61 -15.1082 0)
(35.3466 -19.2175 0)
(35.1641 -18.9457 0)
(35.1888 -18.6133 0)
(35.387 -18.2863 0)
(35.7225 -18.0152 0)
(36.1852 -17.8078 0)
(36.8179 -17.598 0)
(37.718 -17.2457 0)
(38.9813 -16.6099 0)
(40.5879 -15.7006 0)
(42.2788 -14.8516 0)
(43.5113 -14.802 0)
(43.6559 -16.4162 0)
(42.1274 -20.3436 0)
(38.6939 -26.8071 0)
(33.4291 -35.4056 0)
(26.8812 -45.1878 0)
(19.7267 -54.8389 0)
(12.6155 -63.1554 0)
(6.03694 -69.2721 0)
(0.314194 -72.7234 0)
(-4.37593 -73.281 0)
(-8.20816 -71.826 0)
(-11.4598 -69.0072 0)
(-14.186 -65.1772 0)
(-16.4181 -60.6511 0)
(-18.2104 -55.6901 0)
(-19.6149 -50.5044 0)
(-20.6854 -45.2504 0)
(-21.4823 -40.0265 0)
(-22.0712 -34.8748 0)
(-22.5201 -29.7785 0)
(-22.8806 -24.6583 0)
(-23.2015 -19.3561 0)
(-23.6714 -13.5693 0)
(-24.3521 -6.88221 0)
(-24.8395 0.760748 0)
(-25.4214 9.24651 0)
(-25.8675 18.5338 0)
(-26.0995 28.4421 0)
(-26.0748 38.7152 0)
(-25.7274 49.0304 0)
(-25.0043 59.0053 0)
(-23.8676 68.2135 0)
(-22.3107 76.2015 0)
(-20.3611 82.433 0)
(-17.9399 86.0369 0)
(-14.9678 86.0317 0)
(-11.7762 83.6567 0)
(-8.41311 79.1839 0)
(-4.95971 72.9622 0)
(-1.50863 65.401 0)
(1.85338 56.9555 0)
(5.05217 48.0956 0)
(8.02418 39.2706 0)
(10.7199 30.8697 0)
(13.0967 23.1734 0)
(15.1622 16.282 0)
(17.1533 9.99106 0)
(18.9861 3.97622 0)
(20.3943 -1.25921 0)
(21.8052 -5.35102 0)
(23.0853 -8.38973 0)
(24.3087 -10.5053 0)
(25.5081 -11.8939 0)
(26.6137 -12.8178 0)
(27.4813 -13.5904 0)
(27.989 -14.4804 0)
(28.0158 -15.7096 0)
(27.4521 -17.4453 0)
(26.2413 -19.7638 0)
(24.3941 -22.6372 0)
(21.9891 -25.9423 0)
(19.1595 -29.4873 0)
(16.0685 -33.0468 0)
(12.8814 -36.3991 0)
(9.74167 -39.3562 0)
(6.75527 -41.7814 0)
(3.9855 -43.5893 0)
(1.46482 -44.7218 0)
(-0.786344 -45.0719 0)
(-2.82161 -44.801 0)
(-4.72703 -44.0961 0)
(-6.52127 -43.0235 0)
(-8.20257 -41.6431 0)
(-9.76662 -40.0094 0)
(-11.2029 -38.1741 0)
(-12.5017 -36.1838 0)
(-13.6567 -34.0783 0)
(-14.6655 -31.892 0)
(-15.5297 -29.6521 0)
(-16.258 -27.3757 0)
(-16.862 -25.0753 0)
(-17.3546 -22.7601 0)
(-17.752 -20.4327 0)
(-18.073 -18.087 0)
(-18.3349 -15.7091 0)
(-18.5511 -13.2696 0)
(-18.7378 -10.7103 0)
(-18.9412 -7.93427 0)
(-19.2017 -4.83356 0)
(-19.3629 -1.36484 0)
(-19.489 2.46077 0)
(-19.549 6.67128 0)
(-19.4964 11.2309 0)
(-19.3249 16.0796 0)
(-19.0233 21.1467 0)
(-18.5781 26.345 0)
(-17.9771 31.5729 0)
(-17.2065 36.7172 0)
(-16.2542 41.6638 0)
(-15.1231 46.3076 0)
(-13.8255 50.5497 0)
(-12.377 54.2962 0)
(-10.8001 57.4457 0)
(-9.12327 59.8466 0)
(-7.3507 61.1935 0)
(-5.49541 61.1702 0)
(-3.62759 60.1887 0)
(-1.75756 58.2823 0)
(0.105273 55.5101 0)
(1.94856 51.96 0)
(3.76327 47.7507 0)
(5.54114 43.024 0)
(7.27305 37.9359 0)
(8.95015 32.644 0)
(10.559 27.2934 0)
(12.1039 22.0003 0)
(13.6218 16.8159 0)
(15.2534 11.7131 0)
(17.0011 6.70143 0)
(18.5432 2.06674 0)
(20.0678 -1.91808 0)
(21.4124 -5.31941 0)
(22.5361 -8.21047 0)
(23.416 -10.7212 0)
(24.0116 -13.0186 0)
(24.29 -15.2696 0)
(35.7314 -18.8617 0)
(35.5373 -18.8333 0)
(35.5485 -18.7153 0)
(35.7296 -18.5568 0)
(36.0335 -18.4116 0)
(36.4182 -18.3229 0)
(36.8767 -18.2884 0)
(37.4655 -18.2246 0)
(38.2966 -17.9772 0)
(39.4636 -17.4174 0)
(40.9278 -16.5865 0)
(42.3733 -15.8969 0)
(43.2084 -16.1559 0)
(42.6456 -18.1367 0)
(40.3623 -22.4446 0)
(36.1189 -29.1346 0)
(30.0326 -37.5487 0)
(22.9341 -46.6989 0)
(15.5188 -55.2372 0)
(8.4255 -62.0761 0)
(2.11557 -66.5567 0)
(-3.13453 -68.3788 0)
(-7.32535 -67.7027 0)
(-10.7788 -65.562 0)
(-13.6741 -62.3191 0)
(-16.0683 -58.3089 0)
(-18.0277 -53.8007 0)
(-19.6181 -49.0055 0)
(-20.8965 -44.078 0)
(-21.921 -39.1137 0)
(-22.7518 -34.1523 0)
(-23.4477 -29.1762 0)
(-24.0509 -24.1033 0)
(-24.6283 -18.7668 0)
(-25.3744 -12.8669 0)
(-26.1775 -6.10276 0)
(-26.8249 1.47578 0)
(-27.4983 9.837 0)
(-27.9741 18.9204 0)
(-28.1948 28.5423 0)
(-28.1056 38.4548 0)
(-27.6387 48.3445 0)
(-26.7408 57.8415 0)
(-25.3887 66.5561 0)
(-23.6004 74.0737 0)
(-21.3868 79.8209 0)
(-18.6237 82.7875 0)
(-15.3277 82.4224 0)
(-11.8229 79.8044 0)
(-8.16488 75.2008 0)
(-4.44775 68.956 0)
(-0.780153 61.476 0)
(2.74133 53.2046 0)
(6.0373 44.5961 0)
(9.04691 36.084 0)
(11.7265 28.0348 0)
(14.0391 20.6897 0)
(16.0179 14.1017 0)
(17.8922 8.02931 0)
(19.43 2.248 0)
(20.5661 -2.71245 0)
(21.6446 -6.64946 0)
(22.5854 -9.6304 0)
(23.5104 -11.7489 0)
(24.4945 -13.1415 0)
(25.5264 -13.9845 0)
(26.5266 -14.5025 0)
(27.3303 -14.9741 0)
(27.7686 -15.6515 0)
(27.7162 -16.7114 0)
(27.0485 -18.2878 0)
(25.7029 -20.4349 0)
(23.6913 -23.1113 0)
(21.0997 -26.1877 0)
(18.0742 -29.4715 0)
(14.795 -32.7412 0)
(11.4454 -35.7822 0)
(8.1849 -38.4141 0)
(5.13071 -40.5035 0)
(2.35749 -41.9537 0)
(-0.0786064 -42.652 0)
(-2.20004 -42.5872 0)
(-4.11627 -42.0426 0)
(-5.89102 -41.1036 0)
(-7.53975 -39.849 0)
(-9.07455 -38.3425 0)
(-10.5035 -36.6389 0)
(-11.8259 -34.7854 0)
(-13.0386 -32.8213 0)
(-14.1391 -30.7776 0)
(-15.1268 -28.6768 0)
(-16.0044 -26.5344 0)
(-16.7769 -24.3596 0)
(-17.4538 -22.1539 0)
(-18.0468 -19.9161 0)
(-18.5645 -17.6456 0)
(-19.0179 -15.3289 0)
(-19.4199 -12.9298 0)
(-19.7958 -10.3823 0)
(-20.1939 -7.59808 0)
(-20.5862 -4.51488 0)
(-20.8737 -1.11815 0)
(-21.1233 2.6204 0)
(-21.2734 6.71938 0)
(-21.2975 11.1432 0)
(-21.1818 15.8391 0)
(-20.907 20.7377 0)
(-20.4522 25.7479 0)
(-19.7965 30.7645 0)
(-18.9365 35.6876 0)
(-17.8754 40.4181 0)
(-16.6148 44.8565 0)
(-15.1656 48.91 0)
(-13.5473 52.4905 0)
(-11.7871 55.5037 0)
(-9.91545 57.7962 0)
(-7.93343 59.0275 0)
(-5.86757 58.9664 0)
(-3.79422 57.9731 0)
(-1.72509 56.0755 0)
(0.327999 53.3268 0)
(2.35103 49.8125 0)
(4.33376 45.6479 0)
(6.26707 40.9745 0)
(8.14309 35.9484 0)
(9.95573 30.7283 0)
(11.6989 25.4501 0)
(13.369 20.1979 0)
(15.0466 14.99 0)
(16.8892 9.80282 0)
(18.656 4.76893 0)
(20.3016 0.301931 0)
(21.8506 -3.50924 0)
(23.1846 -6.69448 0)
(24.2889 -9.32092 0)
(25.1323 -11.5253 0)
(25.676 -13.4776 0)
(25.8889 -15.3535 0)
(35.728 -18.537 0)
(35.5942 -18.7424 0)
(35.6492 -18.8291 0)
(35.8599 -18.8301 0)
(36.1816 -18.7873 0)
(36.5601 -18.7535 0)
(36.9509 -18.7718 0)
(37.3532 -18.8341 0)
(37.8396 -18.8444 0)
(38.5399 -18.6404 0)
(39.5486 -18.1067 0)
(40.8035 -17.3177 0)
(41.9563 -16.7452 0)
(42.301 -17.1962 0)
(41.0993 -19.4016 0)
(38.1231 -23.8628 0)
(33.1887 -30.5365 0)
(26.475 -38.5438 0)
(19.006 -46.8848 0)
(11.492 -54.2585 0)
(4.54599 -59.7005 0)
(-1.4155 -62.7646 0)
(-6.19126 -63.2474 0)
(-9.98202 -61.8606 0)
(-13.1118 -59.2569 0)
(-15.7077 -55.7732 0)
(-17.8542 -51.7097 0)
(-19.6316 -47.2898 0)
(-21.1067 -42.6702 0)
(-22.3397 -37.9496 0)
(-23.3887 -33.1687 0)
(-24.3053 -28.3084 0)
(-25.1289 -23.2828 0)
(-25.9492 -17.9165 0)
(-26.926 -11.9379 0)
(-27.796 -5.17026 0)
(-28.6049 2.29599 0)
(-29.3317 10.4869 0)
(-29.8201 19.313 0)
(-30.0158 28.5923 0)
(-29.8528 38.0867 0)
(-29.265 47.4961 0)
(-28.2096 56.4767 0)
(-26.6867 64.6806 0)
(-24.7053 71.6858 0)
(-22.2655 76.8933 0)
(-19.1904 79.1873 0)
(-15.6069 78.4694 0)
(-11.8248 75.6274 0)
(-7.90606 70.9218 0)
(-3.95624 64.697 0)
(-0.0999896 57.3547 0)
(3.55418 49.324 0)
(6.91947 41.0355 0)
(9.93765 32.8969 0)
(12.5757 25.2484 0)
(14.8134 18.2994 0)
(16.7064 12.0615 0)
(18.4202 6.28606 0)
(19.6629 0.848563 0)
(20.5228 -3.79595 0)
(21.2485 -7.55342 0)
(21.8167 -10.4808 0)
(22.3727 -12.6508 0)
(23.0269 -14.1536 0)
(23.8265 -15.0955 0)
(24.7624 -15.612 0)
(25.7493 -15.8828 0)
(26.6094 -16.1433 0)
(27.1162 -16.6371 0)
(27.1346 -17.5147 0)
(26.5192 -18.8843 0)
(25.19 -20.7892 0)
(23.1485 -23.1944 0)
(20.4788 -25.9813 0)
(17.3336 -28.9693 0)
(13.9087 -31.9465 0)
(10.4095 -34.7036 0)
(7.01858 -37.0584 0)
(3.87524 -38.8634 0)
(1.09111 -39.99 0)
(-1.28431 -40.2661 0)
(-3.33207 -39.9491 0)
(-5.16935 -39.1876 0)
(-6.84323 -38.0742 0)
(-8.38586 -36.6864 0)
(-9.82424 -35.0908 0)
(-11.1732 -33.3428 0)
(-12.4387 -31.4857 0)
(-13.6218 -29.5511 0)
(-14.7211 -27.5597 0)
(-15.7354 -25.5234 0)
(-16.6655 -23.4489 0)
(-17.5136 -21.3389 0)
(-18.2825 -19.1933 0)
(-18.9793 -17.0027 0)
(-19.6121 -14.7457 0)
(-20.194 -12.3837 0)
(-20.7638 -9.85009 0)
(-21.3443 -7.08341 0)
(-21.8277 -4.05157 0)
(-22.2611 -0.742496 0)
(-22.6162 2.89583 0)
(-22.8517 6.86414 0)
(-22.9446 11.1297 0)
(-22.8705 15.6418 0)
(-22.6011 20.3257 0)
(-22.1193 25.0992 0)
(-21.4212 29.8775 0)
(-20.4993 34.5629 0)
(-19.3525 39.0567 0)
(-17.9857 43.266 0)
(-16.4122 47.1082 0)
(-14.6557 50.5061 0)
(-12.7487 53.3679 0)
(-10.7223 55.5368 0)
(-8.56791 56.6441 0)
(-6.32728 56.547 0)
(-4.08257 55.5472 0)
(-1.84326 53.6638 0)
(0.378889 50.9457 0)
(2.56903 47.4748 0)
(4.71605 43.3655 0)
(6.80866 38.7579 0)
(8.83695 33.8044 0)
(10.7937 28.6584 0)
(12.674 23.4431 0)
(14.5037 18.2169 0)
(16.4268 12.9671 0)
(18.4614 7.7167 0)
(20.2596 2.77007 0)
(22.019 -1.51063 0)
(23.5794 -5.11944 0)
(24.9032 -8.05657 0)
(25.9778 -10.3954 0)
(26.7704 -12.2751 0)
(27.2496 -13.867 0)
(27.3873 -15.3522 0)
(35.3809 -18.3294 0)
(35.3766 -18.7466 0)
(35.5346 -19.0134 0)
(35.822 -19.1534 0)
(36.1991 -19.196 0)
(36.6158 -19.1848 0)
(37.0143 -19.1772 0)
(37.35 -19.2199 0)
(37.6305 -19.3032 0)
(37.9481 -19.3253 0)
(38.4496 -19.1192 0)
(39.2318 -18.5674 0)
(40.2194 -17.782 0)
(41.0471 -17.2807 0)
(40.833 -17.8005 0)
(39.1026 -20.1032 0)
(35.5257 -24.5271 0)
(30.0813 -30.9919 0)
(22.9164 -38.4053 0)
(15.2279 -45.8389 0)
(7.75923 -52.0804 0)
(1.03484 -56.3008 0)
(-4.5682 -58.2017 0)
(-8.95927 -57.7385 0)
(-12.4306 -55.8975 0)
(-15.2825 -52.9978 0)
(-17.6596 -49.4022 0)
(-19.6439 -45.362 0)
(-21.3148 -41.0447 0)
(-22.7425 -36.5594 0)
(-23.9873 -31.9518 0)
(-25.0974 -27.2033 0)
(-26.1189 -22.2233 0)
(-27.1624 -16.8363 0)
(-28.3084 -10.8278 0)
(-29.2417 -4.12793 0)
(-30.1651 3.1963 0)
(-30.918 11.171 0)
(-31.401 19.6902 0)
(-31.5566 28.5787 0)
(-31.3146 37.6076 0)
(-30.618 46.4969 0)
(-29.444 54.9468 0)
(-27.7865 62.6201 0)
(-25.6491 69.0889 0)
(-23.007 73.6929 0)
(-19.6367 75.2534 0)
(-15.8173 74.2214 0)
(-11.7914 71.1711 0)
(-7.64142 66.3853 0)
(-3.4879 60.2174 0)
(0.529546 53.0681 0)
(4.2882 45.346 0)
(7.69239 37.4474 0)
(10.6866 29.7422 0)
(13.2525 22.538 0)
(15.3955 16.0178 0)
(17.1813 10.172 0)
(18.7023 4.78054 0)
(19.6827 -0.227186 0)
(20.2664 -4.51662 0)
(20.6573 -8.05136 0)
(20.8586 -10.8929 0)
(21.0162 -13.1104 0)
(21.2574 -14.7694 0)
(21.6721 -15.9298 0)
(22.3182 -16.6578 0)
(23.1975 -17.0402 0)
(24.2337 -17.2003 0)
(25.2625 -17.3145 0)
(26.0166 -17.6075 0)
(26.279 -18.2522 0)
(25.9114 -19.3427 0)
(24.7925 -20.921 0)
(22.8946 -22.9633 0)
(20.2847 -25.3806 0)
(17.1127 -28.0203 0)
(13.5867 -30.6883 0)
(9.93709 -33.1798 0)
(6.3775 -35.2976 0)
(3.10482 -36.8575 0)
(0.267292 -37.6571 0)
(-2.12054 -37.6683 0)
(-4.17746 -37.1657 0)
(-5.99427 -36.2455 0)
(-7.62236 -35.0018 0)
(-9.11657 -33.5151 0)
(-10.5163 -31.855 0)
(-11.8442 -30.0766 0)
(-13.1103 -28.2197 0)
(-14.316 -26.3086 0)
(-15.4578 -24.3555 0)
(-16.5322 -22.365 0)
(-17.5363 -20.3377 0)
(-18.469 -18.271 0)
(-19.3297 -16.1549 0)
(-20.1266 -13.961 0)
(-20.8929 -11.6347 0)
(-21.6557 -9.12513 0)
(-22.3442 -6.40218 0)
(-22.9612 -3.45762 0)
(-23.5115 -0.241356 0)
(-23.9536 3.27701 0)
(-24.2597 7.08874 0)
(-24.4007 11.1634 0)
(-24.3476 15.4519 0)
(-24.0839 19.8971 0)
(-23.5951 24.4239 0)
(-22.8691 28.9445 0)
(-21.8994 33.3667 0)
(-20.686 37.5996 0)
(-19.2374 41.56 0)
(-17.571 45.1761 0)
(-15.7138 48.3816 0)
(-13.7024 51.0882 0)
(-11.5665 53.1215 0)
(-9.28178 54.0851 0)
(-6.90863 53.9562 0)
(-4.52774 52.9483 0)
(-2.14608 51.0768 0)
(0.226394 48.3859 0)
(2.57491 44.9554 0)
(4.88771 40.9001 0)
(7.15125 36.3608 0)
(9.35145 31.4857 0)
(11.4742 26.4159 0)
(13.5184 21.2504 0)
(15.5706 16.0143 0)
(17.7897 10.6935 0)
(19.9044 5.43298 0)
(21.8787 0.700513 0)
(23.7044 -3.3677 0)
(25.2711 -6.73103 0)
(26.5734 -9.38604 0)
(27.5953 -11.4127 0)
(28.3127 -12.9497 0)
(28.7043 -14.1686 0)
(28.7474 -15.2543 0)
(34.7399 -18.3148 0)
(34.9241 -18.9163 0)
(35.2418 -19.3292 0)
(35.6555 -19.5747 0)
(36.1254 -19.6763 0)
(36.6091 -19.6662 0)
(37.0551 -19.5941 0)
(37.4028 -19.5243 0)
(37.6085 -19.5132 0)
(37.6969 -19.5578 0)
(37.7799 -19.5442 0)
(38.0131 -19.2954 0)
(38.5114 -18.6953 0)
(39.213 -17.8846 0)
(39.583 -17.3631 0)
(38.9407 -17.9343 0)
(36.7214 -20.2097 0)
(32.6798 -24.4286 0)
(26.8649 -30.4836 0)
(19.4961 -37.249 0)
(11.7247 -43.7305 0)
(4.38924 -48.9238 0)
(-2.14541 -52.0355 0)
(-7.40343 -53.1125 0)
(-11.5292 -52.1385 0)
(-14.7108 -49.8976 0)
(-17.3869 -46.8172 0)
(-19.6227 -43.1914 0)
(-21.5037 -39.1973 0)
(-23.1231 -34.9576 0)
(-24.5492 -30.5274 0)
(-25.8332 -25.8905 0)
(-27.038 -20.9564 0)
(-28.2814 -15.5646 0)
(-29.4987 -9.57777 0)
(-30.5386 -3.00804 0)
(-31.515 4.14234 0)
(-32.2684 11.8607 0)
(-32.7298 20.0329 0)
(-32.8366 28.4944 0)
(-32.5228 37.0325 0)
(-31.7435 45.3948 0)
(-30.4783 53.2995 0)
(-28.7207 60.416 0)
(-26.4638 66.3001 0)
(-23.6201 70.238 0)
(-19.9633 71.0509 0)
(-15.9569 69.7103 0)
(-11.7158 66.4622 0)
(-7.35795 61.6189 0)
(-3.02872 55.5471 0)
(1.11762 48.6474 0)
(4.94392 41.305 0)
(8.34967 33.8698 0)
(11.2842 26.6596 0)
(13.7427 19.94 0)
(15.7578 13.8732 0)
(17.3977 8.45437 0)
(18.7007 3.51755 0)
(19.4583 -1.00327 0)
(19.7817 -4.90554 0)
(19.8845 -8.1785 0)
(19.7717 -10.8854 0)
(19.57 -13.1015 0)
(19.4007 -14.8872 0)
(19.3646 -16.2833 0)
(19.5539 -17.3206 0)
(20.036 -18.0285 0)
(20.8343 -18.4456 0)
(21.9073 -18.6329 0)
(23.1251 -18.6947 0)
(24.2635 -18.7907 0)
(25.0123 -19.113 0)
(25.1301 -19.8049 0)
(24.4746 -20.9341 0)
(22.9631 -22.5022 0)
(20.6115 -24.4504 0)
(17.5469 -26.6643 0)
(13.9813 -28.9816 0)
(10.1723 -31.2031 0)
(6.41366 -33.1029 0)
(2.95644 -34.4503 0)
(-0.041107 -34.9505 0)
(-2.57204 -34.8362 0)
(-4.73561 -34.2123 0)
(-6.61481 -33.1834 0)
(-8.27443 -31.8462 0)
(-9.79114 -30.286 0)
(-11.2182 -28.5782 0)
(-12.585 -26.7804 0)
(-13.9021 -24.9285 0)
(-15.1679 -23.0399 0)
(-16.3762 -21.1208 0)
(-17.5217 -19.1718 0)
(-18.5979 -17.1844 0)
(-19.6072 -15.1351 0)
(-20.5778 -12.985 0)
(-21.5339 -10.6949 0)
(-22.4121 -8.2315 0)
(-23.2216 -5.59505 0)
(-23.962 -2.74391 0)
(-24.6016 0.362973 0)
(-25.1167 3.73574 0)
(-25.4786 7.36572 0)
(-25.6587 11.2294 0)
(-25.6345 15.2873 0)
(-25.3851 19.4805 0)
(-24.8936 23.7371 0)
(-24.1485 27.9768 0)
(-23.145 32.1156 0)
(-21.8858 36.0722 0)
(-20.3829 39.7734 0)
(-18.6586 43.1569 0)
(-16.7449 46.1657 0)
(-14.6785 48.7128 0)
(-12.4793 50.6005 0)
(-10.1056 51.4011 0)
(-7.64543 51.2353 0)
(-5.16157 50.2093 0)
(-2.65954 48.3368 0)
(-0.146958 45.6585 0)
(2.36188 42.2535 0)
(4.85298 38.2397 0)
(7.30963 33.7605 0)
(9.7107 28.9592 0)
(12.0312 23.956 0)
(14.3021 18.8181 0)
(16.6879 13.5372 0)
(19.1555 8.15114 0)
(21.3727 3.02256 0)
(23.4942 -1.47499 0)
(25.3516 -5.28354 0)
(26.915 -8.34033 0)
(28.1772 -10.6626 0)
(29.1206 -12.3423 0)
(29.7351 -13.5167 0)
(30.0091 -14.354 0)
(29.927 -15.0347 0)
(33.8583 -18.554 0)
(34.2769 -19.3101 0)
(34.8003 -19.833 0)
(35.3858 -20.1426 0)
(35.9885 -20.2635 0)
(36.5668 -20.225 0)
(37.0785 -20.065 0)
(37.4678 -19.8384 0)