/*--------------------------------*- C++ -*----------------------------------*\
| =========                 |                                                 |
| \\      /  F ield         | OpenFOAM: The Open Source CFD Toolbox           |
|  \\    /   O peration     | Version:  2206                                  |
|   \\  /    A nd           | Website:  www.openfoam.com                      |
|    \\/     M anipulation  |                                                 |
\*---------------------------------------------------------------------------*/
FoamFile
{
    version     2.0;
    format      ascii;
    arch        "LSB;label=32;scalar=64";
    class       volVectorField;
    location    "18.5001";
    object      U;
}
// * * * * * * * * * * * * * * * * * * * * * * * * * * * * * * * * * * * * * //

dimensions      [0 1 -1 0 0 0 0];

internalField   nonuniform List<vector> 
4830
(
(1.56769 -0.618032 0)
(1.57153 -0.595472 0)
(1.57476 -0.563058 0)
(1.57743 -0.520397 0)
(1.57952 -0.467485 0)
(1.581 -0.404798 0)
(1.58186 -0.333312 0)
(1.58212 -0.254491 0)
(1.58182 -0.170337 0)
(1.58098 -0.0835776 0)
(1.57953 0.00238311 0)
(1.57737 0.0851431 0)
(1.57438 0.162734 0)
(1.57048 0.233564 0)
(1.56557 0.296481 0)
(1.55963 0.3508 0)
(1.55266 0.396276 0)
(1.54468 0.433021 0)
(1.53576 0.461456 0)
(1.52596 0.482228 0)
(1.51533 0.496073 0)
(1.50367 0.503609 0)
(1.49087 0.505263 0)
(1.47714 0.501932 0)
(1.46245 0.494668 0)
(1.44698 0.484194 0)
(1.43097 0.470874 0)
(1.41475 0.454725 0)
(1.39875 0.435485 0)
(1.38339 0.412747 0)
(1.36912 0.386113 0)
(1.35628 0.355328 0)
(1.34514 0.320374 0)
(1.33587 0.281495 0)
(1.32853 0.239175 0)
(1.32316 0.194076 0)
(1.31973 0.146979 0)
(1.31818 0.0987483 0)
(1.31842 0.0503526 0)
(1.32032 0.00257253 0)
(1.32376 -0.0439882 0)
(1.3286 -0.0887691 0)
(1.33465 -0.131277 0)
(1.34171 -0.1711 0)
(1.34956 -0.207912 0)
(1.35799 -0.241464 0)
(1.3668 -0.271588 0)
(1.37581 -0.298169 0)
(1.38488 -0.321132 0)
(1.39389 -0.340427 0)
(1.40279 -0.356017 0)
(1.41152 -0.367862 0)
(1.42006 -0.375896 0)
(1.42859 -0.379876 0)
(1.43731 -0.379109 0)
(1.44608 -0.373137 0)
(1.45511 -0.361777 0)
(1.46442 -0.344905 0)
(1.47406 -0.322485 0)
(1.48406 -0.29459 0)
(1.4944 -0.261433 0)
(1.50505 -0.223395 0)
(1.51595 -0.181033 0)
(1.52699 -0.135092 0)
(1.53806 -0.0865205 0)
(1.54895 -0.0365228 0)
(1.55936 0.0133923 0)
(1.56905 0.0621111 0)
(1.57784 0.108745 0)
(1.58553 0.152544 0)
(1.59198 0.19292 0)
(1.59705 0.229473 0)
(1.60066 0.261982 0)
(1.6028 0.290391 0)
(1.60345 0.314776 0)
(1.60267 0.33531 0)
(1.60051 0.352225 0)
(1.59706 0.365765 0)
(1.59242 0.376155 0)
(1.58666 0.38357 0)
(1.5798 0.388084 0)
(1.57199 0.389687 0)
(1.56346 0.388403 0)
(1.55441 0.384116 0)
(1.54505 0.376552 0)
(1.5356 0.365367 0)
(1.52625 0.350191 0)
(1.51717 0.330665 0)
(1.50851 0.306504 0)
(1.50041 0.27755 0)
(1.49297 0.243807 0)
(1.48627 0.205485 0)
(1.48039 0.162995 0)
(1.47536 0.116937 0)
(1.4712 0.0680828 0)
(1.46791 0.0173694 0)
(1.46543 -0.0340425 0)
(1.46366 -0.0849078 0)
(1.46249 -0.1344 0)
(1.46179 -0.18177 0)
(1.46143 -0.226365 0)
(1.46129 -0.267641 0)
(1.46124 -0.305182 0)
(1.46119 -0.338686 0)
(1.46107 -0.367947 0)
(1.46084 -0.392837 0)
(1.46044 -0.413315 0)
(1.45985 -0.429435 0)
(1.45891 -0.441334 0)
(1.45764 -0.449297 0)
(1.45625 -0.453462 0)
(1.45429 -0.453954 0)
(1.45173 -0.449854 0)
(1.44868 -0.441175 0)
(1.44551 -0.428144 0)
(1.4423 -0.410889 0)
(1.4391 -0.389478 0)
(1.43601 -0.363985 0)
(1.43313 -0.334522 0)
(1.43054 -0.301268 0)
(1.42834 -0.264487 0)
(1.42659 -0.224541 0)
(1.42535 -0.181902 0)
(1.42467 -0.137147 0)
(1.42457 -0.0909601 0)
(1.42505 -0.0441986 0)
(1.42606 0.00216098 0)
(1.42754 0.0474295 0)
(1.4294 0.0909164 0)
(1.43156 0.132013 0)
(1.43388 0.170131 0)
(1.43627 0.204823 0)
(1.43861 0.235728 0)
(1.4408 0.26259 0)
(1.44273 0.285234 0)
(1.44436 0.303612 0)
(1.44565 0.317769 0)
(1.44657 0.327847 0)
(1.54036 -0.620264 0)
(1.53983 -0.597002 0)
(1.53892 -0.564036 0)
(1.53765 -0.520852 0)
(1.53605 -0.467431 0)
(1.5342 -0.404266 0)
(1.53216 -0.332353 0)
(1.53005 -0.253178 0)
(1.52797 -0.168745 0)
(1.52598 -0.0817272 0)
(1.52405 0.00457679 0)
(1.52206 0.0878101 0)
(1.51985 0.166026 0)
(1.51727 0.237624 0)
(1.51416 0.301431 0)
(1.51039 0.356722 0)
(1.50586 0.403202 0)
(1.50049 0.440964 0)
(1.49425 0.470413 0)
(1.48711 0.49219 0)
(1.47911 0.507071 0)
(1.47005 0.515811 0)
(1.45961 0.518816 0)
(1.44805 0.516713 0)
(1.43533 0.510524 0)
(1.42165 0.500884 0)
(1.40733 0.488049 0)
(1.39275 0.471938 0)
(1.37834 0.452239 0)
(1.36454 0.428554 0)
(1.35175 0.400544 0)
(1.34028 0.368054 0)
(1.33037 0.331171 0)
(1.32216 0.290233 0)
(1.31575 0.2458 0)
(1.31117 0.198579 0)
(1.30846 0.149385 0)
(1.30758 0.0991316 0)
(1.30844 0.0488461 0)
(1.31092 -0.000708525 0)
(1.3149 -0.0488917 0)
(1.32023 -0.0951008 0)
(1.32672 -0.138811 0)
(1.33413 -0.179588 0)
(1.34222 -0.217102 0)
(1.35076 -0.251114 0)
(1.35953 -0.281477 0)
(1.36834 -0.308106 0)
(1.37702 -0.330971 0)
(1.38545 -0.350067 0)
(1.39358 -0.365396 0)
(1.40136 -0.376967 0)
(1.40876 -0.384779 0)
(1.41594 -0.388694 0)
(1.42319 -0.388015 0)
(1.43036 -0.382205 0)
(1.4377 -0.371097 0)
(1.44531 -0.354568 0)
(1.45326 -0.332559 0)
(1.46164 -0.30511 0)
(1.47048 -0.272399 0)
(1.47979 -0.234769 0)
(1.48954 -0.192744 0)
(1.49965 -0.147037 0)
(1.51004 -0.0985397 0)
(1.52055 -0.0483575 0)
(1.5309 0.0020564 0)
(1.54083 0.0515024 0)
(1.55015 0.0990913 0)
(1.55866 0.144052 0)
(1.56616 0.185767 0)
(1.57251 0.223793 0)
(1.57759 0.257864 0)
(1.58132 0.287874 0)
(1.58368 0.313855 0)
(1.58466 0.335943 0)
(1.58432 0.354338 0)
(1.58272 0.369256 0)
(1.57997 0.380913 0)
(1.57618 0.389489 0)
(1.57143 0.395098 0)
(1.56571 0.397695 0)
(1.55922 0.397131 0)
(1.55213 0.393337 0)
(1.54464 0.38604 0)
(1.53697 0.374905 0)
(1.52932 0.359583 0)
(1.52186 0.339736 0)
(1.51471 0.3151 0)
(1.50801 0.285534 0)
(1.50184 0.251079 0)
(1.49627 0.211972 0)
(1.49135 0.168642 0)
(1.48712 0.121709 0)
(1.48358 0.0719767 0)
(1.48072 0.0204229 0)
(1.47846 -0.0317221 0)
(1.47672 -0.0832118 0)
(1.47539 -0.1332 0)
(1.47435 -0.180918 0)
(1.47348 -0.225714 0)
(1.47264 -0.26705 0)
(1.47172 -0.304526 0)
(1.47061 -0.337868 0)
(1.46923 -0.366912 0)
(1.46754 -0.391577 0)
(1.46552 -0.411815 0)
(1.46321 -0.427659 0)
(1.46062 -0.439232 0)
(1.45776 -0.446757 0)
(1.45457 -0.450528 0)
(1.45066 -0.450296 0)
(1.44628 -0.445681 0)
(1.44143 -0.436694 0)
(1.43636 -0.423484 0)
(1.4312 -0.406175 0)
(1.42607 -0.384835 0)
(1.42106 -0.359535 0)
(1.4163 -0.330383 0)
(1.4119 -0.297549 0)
(1.40795 -0.261283 0)
(1.40455 -0.221937 0)
(1.40177 -0.179965 0)
(1.39968 -0.135926 0)
(1.39831 -0.0904763 0)
(1.39767 -0.0444304 0)
(1.39773 0.00126279 0)
(1.39844 0.0459491 0)
(1.3997 0.0889599 0)
(1.40143 0.129681 0)
(1.40351 0.16757 0)
(1.40583 0.202154 0)
(1.40827 0.233078 0)
(1.41072 0.260061 0)
(1.41308 0.282926 0)
(1.41527 0.301592 0)
(1.41721 0.316117 0)
(1.41885 0.326579 0)
(1.5153 -0.617443 0)
(1.51072 -0.593872 0)
(1.50595 -0.560602 0)
(1.50099 -0.517157 0)
(1.49595 -0.463566 0)
(1.491 -0.400359 0)
(1.48629 -0.328554 0)
(1.482 -0.249646 0)
(1.4783 -0.165619 0)
(1.47528 -0.0790556 0)
(1.47292 0.00688756 0)
(1.47109 0.0899221 0)
(1.4696 0.168146 0)
(1.46824 0.23997 0)
(1.46678 0.304211 0)
(1.46502 0.360119 0)
(1.46274 0.407367 0)
(1.45981 0.446015 0)
(1.45606 0.476439 0)
(1.4514 0.499271 0)
(1.44577 0.515288 0)
(1.43911 0.525297 0)
(1.431 0.529831 0)
(1.42153 0.529194 0)
(1.41079 0.524241 0)
(1.39897 0.515533 0)
(1.38644 0.503225 0)
(1.37359 0.487174 0)
(1.36085 0.467055 0)
(1.34863 0.442503 0)
(1.33728 0.413256 0)
(1.32711 0.379246 0)
(1.31834 0.340641 0)
(1.31115 0.297852 0)
(1.30563 0.251488 0)
(1.30188 0.202254 0)
(1.29996 0.150976 0)
(1.29986 0.0987388 0)
(1.30142 0.0466285 0)
(1.30453 -0.00466022 0)
(1.30912 -0.0544302 0)
(1.315 -0.102012 0)
(1.32196 -0.14684 0)
(1.32974 -0.188459 0)
(1.3381 -0.226537 0)
(1.34678 -0.260842 0)
(1.35554 -0.291247 0)
(1.36417 -0.317715 0)
(1.37251 -0.340268 0)
(1.38042 -0.358946 0)
(1.38783 -0.373803 0)
(1.39471 -0.384898 0)
(1.40103 -0.392297 0)
(1.40695 -0.395964 0)
(1.4128 -0.395218 0)
(1.41839 -0.389453 0)
(1.42406 -0.378528 0)
(1.42996 -0.36233 0)
(1.43623 -0.340776 0)
(1.44298 -0.313871 0)
(1.4503 -0.281751 0)
(1.45823 -0.244718 0)
(1.46676 -0.203255 0)
(1.47587 -0.158029 0)
(1.48548 -0.109889 0)
(1.49547 -0.0598714 0)
(1.50561 -0.00928393 0)
(1.51561 0.0405674 0)
(1.52528 0.0887981 0)
(1.53441 0.134628 0)
(1.54279 0.177415 0)
(1.55023 0.216682 0)
(1.55661 0.252118 0)
(1.5618 0.283575 0)
(1.56574 0.311037 0)
(1.5684 0.334592 0)
(1.56981 0.354397 0)
(1.57 0.370641 0)
(1.56907 0.383519 0)
(1.56713 0.393178 0)
(1.56438 0.399739 0)
(1.56088 0.403306 0)
(1.55651 0.403635 0)
(1.55148 0.400485 0)
(1.54589 0.393545 0)
(1.54004 0.382514 0)
(1.53415 0.367112 0)
(1.52838 0.347029 0)
(1.52283 0.322015 0)
(1.51762 0.291969 0)
(1.5128 0.25696 0)
(1.50843 0.217242 0)
(1.50453 0.173264 0)
(1.50112 0.12567 0)
(1.4982 0.0752834 0)
(1.49574 0.0231171 0)
(1.49369 -0.0295387 0)
(1.49195 -0.0814417 0)
(1.49043 -0.131727 0)
(1.48902 -0.179612 0)
(1.4876 -0.224431 0)
(1.48605 -0.265655 0)
(1.48427 -0.302894 0)
(1.48216 -0.335894 0)
(1.47963 -0.364513 0)
(1.47665 -0.388713 0)
(1.4732 -0.408515 0)
(1.46929 -0.423979 0)
(1.46502 -0.435216 0)
(1.46049 -0.442417 0)
(1.45546 -0.445693 0)
(1.44983 -0.444698 0)
(1.44372 -0.439448 0)
(1.43716 -0.430082 0)
(1.43036 -0.416704 0)
(1.42345 -0.399375 0)
(1.41655 -0.378133 0)
(1.4098 -0.353055 0)
(1.40332 -0.324257 0)
(1.39724 -0.291907 0)
(1.39168 -0.256247 0)
(1.38676 -0.21761 0)
(1.38255 -0.176431 0)
(1.37914 -0.133249 0)
(1.37657 -0.0886919 0)
(1.37487 -0.0435333 0)
(1.37401 0.00132218 0)
(1.37394 0.0452427 0)
(1.37459 0.0875861 0)
(1.37586 0.127751 0)
(1.37766 0.165214 0)
(1.37985 0.199506 0)
(1.38231 0.230252 0)
(1.38494 0.257201 0)
(1.38761 0.280143 0)
(1.39021 0.298987 0)
(1.39266 0.313772 0)
(1.39488 0.324589 0)
(1.49319 -0.61036 0)
(1.48495 -0.586539 0)
(1.4766 -0.553102 0)
(1.46825 -0.509633 0)
(1.46009 -0.456201 0)
(1.45234 -0.393366 0)
(1.44522 -0.322161 0)
(1.43897 -0.24407 0)
(1.4338 -0.161038 0)
(1.42982 -0.0755494 0)
(1.42704 0.00939965 0)
(1.42531 0.0916223 0)
(1.42443 0.169278 0)
(1.42414 0.240815 0)
(1.42416 0.305057 0)
(1.4242 0.361241 0)
(1.42399 0.409019 0)
(1.42327 0.448418 0)
(1.42182 0.479787 0)
(1.41945 0.503712 0)
(1.41602 0.520942 0)
(1.41149 0.532272 0)
(1.40564 0.538364 0)
(1.39818 0.539385 0)
(1.38941 0.535803 0)
(1.37944 0.528135 0)
(1.36867 0.51646 0)
(1.3575 0.500589 0)
(1.34636 0.480197 0)
(1.33565 0.454953 0)
(1.32573 0.424651 0)
(1.3169 0.389282 0)
(1.30938 0.349069 0)
(1.30336 0.304465 0)
(1.29891 0.256124 0)
(1.29629 0.204862 0)
(1.29532 0.151623 0)
(1.29566 0.0975105 0)
(1.29795 0.0435973 0)
(1.30175 -0.00938138 0)
(1.30695 -0.060658 0)
(1.3134 -0.109515 0)
(1.32083 -0.155357 0)
(1.32899 -0.19771 0)
(1.33763 -0.236237 0)
(1.34645 -0.270705 0)
(1.35521 -0.301008 0)
(1.36368 -0.327148 0)
(1.37167 -0.349184 0)
(1.37906 -0.367215 0)
(1.38575 -0.38136 0)
(1.39175 -0.391752 0)
(1.39704 -0.398528 0)
(1.40178 -0.401755 0)
(1.40631 -0.400757 0)
(1.41042 -0.394891 0)
(1.41445 -0.384077 0)
(1.41863 -0.368207 0)
(1.42319 -0.34715 0)
(1.42831 -0.320865 0)
(1.43408 -0.289459 0)
(1.44059 -0.253188 0)
(1.44786 -0.212484 0)
(1.45589 -0.167975 0)
(1.46463 -0.120458 0)
(1.47398 -0.0708894 0)
(1.48374 -0.0204615 0)
(1.49365 0.0294886 0)
(1.50349 0.0780573 0)
(1.51304 0.124463 0)
(1.5221 0.168055 0)
(1.53045 0.208323 0)
(1.53793 0.244921 0)
(1.54441 0.277655 0)
(1.54977 0.306467 0)
(1.55397 0.331398 0)
(1.55701 0.35256 0)
(1.55891 0.370094 0)
(1.55974 0.384133 0)
(1.55966 0.394812 0)
(1.55885 0.402192 0)
(1.5575 0.406431 0)
(1.55543 0.407646 0)
(1.55247 0.405232 0)
(1.54875 0.3988 0)
(1.54475 0.388023 0)
(1.54073 0.372645 0)
(1.53674 0.352414 0)
(1.53288 0.327145 0)
(1.52923 0.29677 0)
(1.52584 0.261377 0)
(1.52272 0.221242 0)
(1.51991 0.176833 0)
(1.51738 0.128809 0)
(1.51515 0.0780055 0)
(1.51318 0.0254602 0)
(1.51141 -0.0274777 0)
(1.50974 -0.0795669 0)
(1.50808 -0.129923 0)
(1.50632 -0.177757 0)
(1.50436 -0.2224 0)
(1.50209 -0.263326 0)
(1.49942 -0.30016 0)
(1.49626 -0.332671 0)
(1.49257 -0.360741 0)
(1.48832 -0.384355 0)
(1.48349 -0.403571 0)
(1.47811 -0.4185 0)
(1.47225 -0.429276 0)
(1.466 -0.436037 0)
(1.45914 -0.438747 0)
(1.45178 -0.437171 0)
(1.444 -0.431454 0)
(1.43586 -0.421733 0)
(1.42749 -0.408115 0)
(1.41901 -0.390692 0)
(1.41055 -0.369539 0)
(1.40223 -0.344721 0)
(1.39421 -0.316328 0)
(1.38661 -0.284522 0)
(1.3796 -0.24954 0)
(1.37328 -0.211703 0)
(1.36777 -0.171423 0)
(1.36315 -0.129212 0)
(1.35948 -0.0856712 0)
(1.35679 -0.0415397 0)
(1.35506 0.00232862 0)
(1.35424 0.0453183 0)
(1.35428 0.0868226 0)
(1.35508 0.126257 0)
(1.35655 0.163117 0)
(1.35855 0.196951 0)
(1.36096 0.227378 0)
(1.36365 0.254134 0)
(1.36651 0.277023 0)
(1.3694 0.295944 0)
(1.37223 0.3109 0)
(1.37493 0.321967 0)
(1.47453 -0.599317 0)
(1.4629 -0.575306 0)
(1.45131 -0.541889 0)
(1.43995 -0.498659 0)
(1.42904 -0.445717 0)
(1.41885 -0.383652 0)
(1.40965 -0.313507 0)
(1.40173 -0.236749 0)
(1.39532 -0.155262 0)
(1.39055 -0.0714052 0)
(1.38744 0.0120044 0)
(1.38583 0.0928885 0)
(1.38549 0.169485 0)
(1.38614 0.240291 0)
(1.38744 0.304156 0)
(1.38904 0.36032 0)
(1.3906 0.408418 0)
(1.3918 0.448451 0)
(1.39233 0.480728 0)
(1.39195 0.505786 0)
(1.39047 0.524304 0)
(1.38782 0.53701 0)
(1.38395 0.544587 0)
(1.37848 0.547369 0)
(1.37158 0.545293 0)
(1.36343 0.538766 0)
(1.35442 0.527797 0)
(1.34501 0.512155 0)
(1.33564 0.491522 0)
(1.3267 0.465605 0)
(1.31851 0.434252 0)
(1.3113 0.397537 0)
(1.30526 0.355775 0)
(1.3005 0.30951 0)
(1.29709 0.259469 0)
(1.29517 0.206529 0)
(1.29477 0.151634 0)
(1.29563 0.0957192 0)
(1.29862 0.0399292 0)
(1.30302 -0.0147436 0)
(1.3088 -0.0674837 0)
(1.31577 -0.11755 0)
(1.32364 -0.164313 0)
(1.33216 -0.207282 0)
(1.34104 -0.246115 0)
(1.34997 -0.280572 0)
(1.35869 -0.310591 0)
(1.36697 -0.336224 0)
(1.37463 -0.357595 0)
(1.38151 -0.374837 0)
(1.38751 -0.388131 0)
(1.39264 -0.397695 0)
(1.39689 -0.403707 0)
(1.40048 -0.406323 0)
(1.40376 -0.404845 0)
(1.40649 -0.398611 0)
(1.40899 -0.387716 0)
(1.41149 -0.372123 0)
(1.41431 -0.35164 0)
(1.41774 -0.326095 0)
(1.42193 -0.295517 0)
(1.42698 -0.260143 0)
(1.43295 -0.220376 0)
(1.43984 -0.176788 0)
(1.44762 -0.130117 0)
(1.45623 -0.0812632 0)
(1.46549 -0.0313011 0)
(1.47516 0.0184697 0)
(1.48499 0.0670905 0)
(1.49478 0.113799 0)
(1.50431 0.157923 0)
(1.51338 0.198945 0)
(1.52178 0.236486 0)
(1.52937 0.270311 0)
(1.53602 0.300309 0)
(1.54165 0.326471 0)
(1.54626 0.348852 0)
(1.54985 0.367535 0)
(1.5525 0.382653 0)
(1.55429 0.394172 0)
(1.55536 0.402264 0)
(1.55586 0.407097 0)
(1.55583 0.408967 0)
(1.55496 0.408233 0)
(1.55325 0.402164 0)
(1.55118 0.391465 0)
(1.54906 0.376101 0)
(1.54692 0.355809 0)
(1.54482 0.330412 0)
(1.54281 0.299859 0)
(1.5409 0.264257 0)
(1.53911 0.223899 0)
(1.53744 0.179265 0)
(1.53586 0.131025 0)
(1.53437 0.0800286 0)
(1.53292 0.0273378 0)
(1.53144 -0.0256395 0)
(1.52983 -0.077673 0)
(1.52802 -0.127865 0)
(1.5259 -0.175418 0)
(1.52339 -0.21967 0)
(1.52039 -0.260106 0)
(1.51683 -0.296363 0)
(1.51265 -0.328229 0)
(1.50781 -0.355618 0)
(1.50231 -0.378544 0)
(1.49615 -0.397087 0)
(1.48937 -0.411381 0)
(1.48204 -0.421575 0)
(1.47417 -0.427763 0)
(1.46562 -0.42984 0)
(1.45661 -0.427724 0)
(1.44721 -0.421609 0)
(1.4375 -0.411621 0)
(1.42765 -0.39786 0)
(1.41774 -0.380405 0)
(1.4079 -0.359334 0)
(1.39823 -0.334743 0)
(1.38888 -0.306763 0)
(1.37997 -0.275553 0)
(1.37167 -0.241325 0)
(1.3641 -0.204375 0)
(1.3574 -0.165096 0)
(1.35168 -0.123969 0)
(1.347 -0.0815644 0)
(1.3434 -0.0385817 0)
(1.34087 0.00417428 0)
(1.33936 0.0461114 0)
(1.3388 0.0866443 0)
(1.33913 0.125208 0)
(1.34024 0.161322 0)
(1.342 0.194557 0)
(1.34428 0.224538 0)
(1.34694 0.250986 0)
(1.34987 0.273704 0)
(1.35295 0.292581 0)
(1.35611 0.307592 0)
(1.35926 0.318781 0)
(0.28844 0.0251383 0)
(0.243377 0.0301692 0)
(0.190136 0.0333913 0)
(0.131745 0.0350142 0)
(0.0721061 0.0350033 0)
(0.0138485 0.0333719 0)
(-0.0383131 0.0297312 0)
(-0.0818596 0.0246072 0)
(-0.114891 0.0184177 0)
(-0.136266 0.0122955 0)
(-0.146877 0.0066209 0)
(-0.147356 0.00131531 0)
(-0.139374 -0.0030835 0)
(-0.124195 -0.00661797 0)
(-0.10265 -0.00926081 0)
(-0.0760559 -0.0110902 0)
(-0.0457613 -0.0123027 0)
(-0.0127655 -0.0128458 0)
(0.0213096 -0.0128412 0)
(0.0554653 -0.0124405 0)
(0.0892819 -0.0117263 0)
(0.121788 -0.0107286 0)
(0.152382 -0.00952785 0)
(0.180443 -0.00823179 0)
(0.205722 -0.0069345 0)
(0.228015 -0.00570555 0)
(0.247242 -0.00460292 0)
(0.263461 -0.00367346 0)
(0.276831 -0.00294554 0)
(0.287594 -0.0024273 0)
(0.296038 -0.00210764 0)
(0.302485 -0.00196002 0)
(0.307265 -0.00194216 0)
(0.310752 -0.00200708 0)
(0.313252 -0.00215097 0)
(0.314923 -0.00239521 0)
(0.315866 -0.00277276 0)
(0.316235 -0.003251 0)
(0.316248 -0.00364427 0)
(0.316121 -0.00389009 0)
(0.315908 -0.00401943 0)
(0.315607 -0.00406863 0)
(0.315294 -0.00403895 0)
(0.31507 -0.00390819 0)
(0.315062 -0.00365331 0)
(0.315385 -0.00337508 0)
(0.316055 -0.00314122 0)
(0.316993 -0.00296698 0)
(0.31808 -0.00280789 0)
(0.319166 -0.00264125 0)
(0.320062 -0.00244375 0)
(0.320545 -0.00215382 0)
(0.320381 -0.0016719 0)
(0.319287 -0.00107727 0)
(0.316932 -0.00027966 0)
(0.313015 0.000817931 0)
(0.307218 0.00226885 0)
(0.299133 0.0041108 0)
(0.288278 0.00626168 0)
(0.274168 0.00862753 0)
(0.256382 0.0110879 0)
(0.234653 0.0134992 0)
(0.208975 0.0156922 0)
(0.179699 0.0174954 0)
(0.147532 0.018796 0)
(0.113607 0.019586 0)
(0.0791489 0.0198306 0)
(0.0450023 0.0193803 0)
(0.0128083 0.0178673 0)
(-0.0150707 0.0153732 0)
(-0.0373879 0.0122352 0)
(-0.0531688 0.00870894 0)
(-0.061568 0.00495626 0)
(-0.0626011 0.00112639 0)
(-0.0572769 -0.00235468 0)
(-0.0459315 -0.00523898 0)
(-0.0291896 -0.00743741 0)
(-0.00789499 -0.00891203 0)
(0.0163661 -0.00981559 0)
(0.042308 -0.0101844 0)
(0.0691482 -0.0100966 0)
(0.0958429 -0.00962672 0)
(0.121582 -0.00886787 0)
(0.145752 -0.00790973 0)
(0.167828 -0.00684975 0)
(0.187524 -0.0057821 0)
(0.20474 -0.00477569 0)
(0.21945 -0.00387649 0)
(0.231739 -0.00311832 0)
(0.241768 -0.00252247 0)
(0.249749 -0.00209636 0)
(0.255917 -0.00183316 0)
(0.260514 -0.00170669 0)
(0.263841 -0.00166512 0)
(0.266226 -0.00167402 0)
(0.267892 -0.00173767 0)
(0.268936 -0.00185624 0)
(0.269419 -0.00199476 0)
(0.269495 -0.00208515 0)
(0.269211 -0.002151 0)
(0.268649 -0.00217628 0)
(0.267929 -0.00212034 0)
(0.267101 -0.00199153 0)
(0.266145 -0.00182201 0)
(0.265052 -0.0016253 0)
(0.263851 -0.00139607 0)
(0.262586 -0.00113204 0)
(0.261282 -0.000858039 0)
(0.259968 -0.000624484 0)
(0.258698 -0.00044832 0)
(0.257506 -0.000302844 0)
(0.256387 -0.000177298 0)
(0.255307 -6.05069e-05 0)
(0.254211 6.44399e-05 0)
(0.253033 0.00020154 0)
(0.25171 0.000347613 0)
(0.250181 0.000505411 0)
(0.248377 0.00068006 0)
(0.246218 0.000874561 0)
(0.24362 0.00108986 0)
(0.240501 0.00132685 0)
(0.236794 0.00158879 0)
(0.232461 0.00187444 0)
(0.227485 0.00217696 0)
(0.221875 0.00248908 0)
(0.215664 0.00280761 0)
(0.20889 0.00313217 0)
(0.201588 0.00346276 0)
(0.193782 0.00379805 0)
(0.185494 0.00413259 0)
(0.176748 0.00445741 0)
(0.167578 0.0047634 0)
(0.158039 0.00503792 0)
(0.148213 0.00526316 0)
(0.138215 0.00542099 0)
(0.128206 0.00550236 0)
(0.118329 0.00549637 0)
(0.108771 0.00537909 0)
(0.466791 0.0696792 0)
(0.413047 0.0846958 0)
(0.352946 0.0949762 0)
(0.290519 0.09901 0)
(0.230366 0.0959283 0)
(0.177139 0.0866117 0)
(0.133897 0.0725687 0)
(0.101741 0.0555458 0)
(0.0804764 0.0377272 0)
(0.0694227 0.0199695 0)
(0.0676652 0.00296459 0)
(0.0743243 -0.0128637 0)
(0.0892027 -0.0266146 0)
(0.11134 -0.0380073 0)
(0.139624 -0.0471443 0)
(0.173012 -0.0540786 0)
(0.210534 -0.0590017 0)
(0.251194 -0.0619917 0)
(0.294018 -0.0632 0)
(0.338022 -0.0628726 0)
(0.382173 -0.0612276 0)
(0.42568 -0.0584091 0)
(0.467962 -0.0546139 0)
(0.508465 -0.0500658 0)
(0.546644 -0.0449864 0)
(0.581997 -0.0395837 0)
(0.614147 -0.034068 0)
(0.642847 -0.0286379 0)
(0.667977 -0.0234541 0)
(0.689523 -0.0186313 0)
(0.707559 -0.0142487 0)
(0.722238 -0.0103632 0)
(0.733777 -0.00705068 0)
(0.742477 -0.0045521 0)
(0.748542 -0.00254329 0)
(0.752189 -0.000510554 0)
(0.753783 0.00127375 0)
(0.753589 0.00297928 0)
(0.751598 0.00396272 0)
(0.747944 0.0044416 0)
(0.74276 0.00489829 0)
(0.736242 0.0051419 0)
(0.728616 0.00501261 0)
(0.720144 0.00450237 0)
(0.711069 0.00370872 0)
(0.701554 0.00277176 0)
(0.691774 0.00184494 0)
(0.681853 0.00114038 0)
(0.671797 0.000732325 0)
(0.661517 0.000680838 0)
(0.650871 0.00107353 0)
(0.639704 0.00200847 0)
(0.627768 0.00360782 0)
(0.614811 0.0059054 0)
(0.600656 0.00878925 0)
(0.585078 0.0120154 0)
(0.567803 0.0156826 0)
(0.548536 0.0199186 0)
(0.526972 0.0248104 0)
(0.502835 0.0303667 0)
(0.475897 0.0364663 0)
(0.44598 0.042769 0)
(0.413225 0.0487194 0)
(0.378167 0.0536351 0)
(0.341782 0.0568332 0)
(0.305485 0.0578036 0)
(0.270915 0.056285 0)
(0.240429 0.0522966 0)
(0.215353 0.0458192 0)
(0.195877 0.0371709 0)
(0.182471 0.0269574 0)
(0.175404 0.015717 0)
(0.174692 0.00388678 0)
(0.180167 -0.00817438 0)
(0.192334 -0.019435 0)
(0.210798 -0.0292428 0)
(0.234642 -0.0372423 0)
(0.263055 -0.0431826 0)
(0.295014 -0.0471542 0)
(0.32933 -0.0492382 0)
(0.364862 -0.0495834 0)
(0.400548 -0.0484286 0)
(0.435524 -0.0460943 0)
(0.469183 -0.0428649 0)
(0.501006 -0.0389841 0)
(0.530572 -0.0346985 0)
(0.557556 -0.0302316 0)
(0.581763 -0.0257624 0)
(0.603109 -0.0214344 0)
(0.621611 -0.0173494 0)
(0.637364 -0.0135612 0)
(0.650511 -0.0100896 0)
(0.661236 -0.00696732 0)
(0.6698 -0.00447747 0)
(0.676411 -0.00268503 0)
(0.681264 -0.00109804 0)
(0.684553 0.000341953 0)
(0.68643 0.00156446 0)
(0.687183 0.00250661 0)
(0.686881 0.00344844 0)
(0.68543 0.00408397 0)
(0.682978 0.00434825 0)
(0.679632 0.00453106 0)
(0.675489 0.00472782 0)
(0.670681 0.00486029 0)
(0.665339 0.00483531 0)
(0.65954 0.00467377 0)
(0.653313 0.00440131 0)
(0.646752 0.0040402 0)
(0.640045 0.00362783 0)
(0.63333 0.00321647 0)
(0.626629 0.00288649 0)
(0.619918 0.00268286 0)
(0.613137 0.00261886 0)
(0.606201 0.00270163 0)
(0.599054 0.00293781 0)
(0.591665 0.00333614 0)
(0.583989 0.00390752 0)
(0.575966 0.00466104 0)
(0.567534 0.00559941 0)
(0.558637 0.00670888 0)
(0.549234 0.00791233 0)
(0.5393 0.0091587 0)
(0.528841 0.0103992 0)
(0.517904 0.0115699 0)
(0.506569 0.0126331 0)
(0.494917 0.0135893 0)
(0.48302 0.0144545 0)
(0.470932 0.0152445 0)
(0.458697 0.0159663 0)
(0.446342 0.0166081 0)
(0.433903 0.0171393 0)
(0.421454 0.0175125 0)
(0.409097 0.0176682 0)
(0.396981 0.0175446 0)
(0.385307 0.0170949 0)
(0.374376 0.0162978 0)
(0.364491 0.015151 0)
(0.673172 0.123857 0)
(0.630666 0.14562 0)
(0.583904 0.159098 0)
(0.536692 0.162223 0)
(0.491729 0.155069 0)
(0.450972 0.138284 0)
(0.416213 0.114253 0)
(0.38823 0.0863508 0)
(0.367381 0.0572003 0)
(0.35405 0.028566 0)
(0.348199 0.00137844 0)
(0.350214 -0.0237326 0)
(0.359552 -0.0459193 0)
(0.375442 -0.0648443 0)
(0.397122 -0.0804924 0)
(0.423852 -0.0929231 0)
(0.454859 -0.102252 0)
(0.489345 -0.108589 0)
(0.526479 -0.112069 0)
(0.565395 -0.112948 0)
(0.605374 -0.111662 0)
(0.645843 -0.108518 0)
(0.686252 -0.103761 0)
(0.726102 -0.0975765 0)
(0.764858 -0.0901632 0)
(0.801908 -0.0818263 0)
(0.836716 -0.0729221 0)
(0.86887 -0.0637937 0)
(0.898084 -0.0547513 0)
(0.924181 -0.0460503 0)
(0.947091 -0.037885 0)
(0.966826 -0.0303972 0)
(0.983459 -0.0236597 0)
(0.997031 -0.0176508 0)
(1.0076 -0.0123104 0)
(1.01542 -0.00767278 0)
(1.02081 -0.00378229 0)
(1.02413 -0.000451684 0)
(1.02575 0.00261132 0)
(1.02577 0.0056515 0)
(1.02427 0.00846892 0)
(1.02141 0.010916 0)
(1.01722 0.0129939 0)
(1.01165 0.0147317 0)
(1.00464 0.01615 0)
(0.996089 0.0172925 0)
(0.985899 0.0182599 0)
(0.973983 0.0191792 0)
(0.960281 0.0201727 0)
(0.944753 0.0213367 0)
(0.927427 0.0227323 0)
(0.908454 0.0243856 0)
(0.888114 0.0262953 0)
(0.866795 0.0285484 0)
(0.844895 0.0313375 0)
(0.822625 0.0349747 0)
(0.799931 0.0397472 0)
(0.776653 0.0457892 0)
(0.752552 0.0530353 0)
(0.727313 0.0612438 0)
(0.700644 0.0700247 0)
(0.672504 0.0787715 0)
(0.643138 0.0865795 0)
(0.613287 0.092359 0)
(0.583894 0.0951739 0)
(0.555848 0.094413 0)
(0.529948 0.0897211 0)
(0.506751 0.0811019 0)
(0.486734 0.0690541 0)
(0.470377 0.0542967 0)
(0.458257 0.0375539 0)
(0.450923 0.0194032 0)
(0.448685 0.000433171 0)
(0.452374 -0.0185652 0)
(0.462265 -0.0365384 0)
(0.477719 -0.0527588 0)
(0.49813 -0.0664997 0)
(0.522851 -0.0772655 0)
(0.551129 -0.0848519 0)
(0.582041 -0.0892658 0)
(0.614611 -0.0907237 0)
(0.647919 -0.089633 0)
(0.681175 -0.0865216 0)
(0.71381 -0.0818307 0)
(0.745368 -0.0759112 0)
(0.775356 -0.0691312 0)
(0.803346 -0.0618458 0)
(0.829005 -0.0543708 0)
(0.852128 -0.0469929 0)
(0.872621 -0.0399569 0)
(0.890515 -0.0334441 0)
(0.905953 -0.0275689 0)
(0.919175 -0.0223891 0)
(0.930395 -0.0179057 0)
(0.939756 -0.0140376 0)
(0.947499 -0.0106609 0)
(0.953959 -0.00768766 0)
(0.959374 -0.00509378 0)
(0.96389 -0.00282718 0)
(0.967717 -0.000755276 0)
(0.97101 0.00124686 0)
(0.973818 0.00323065 0)
(0.976187 0.00510755 0)
(0.978133 0.00681473 0)
(0.979651 0.00829967 0)
(0.980705 0.00960187 0)
(0.981193 0.0109159 0)
(0.980878 0.0123241 0)
(0.979601 0.0134499 0)
(0.97725 0.0140459 0)
(0.973722 0.0144965 0)
(0.968946 0.0148879 0)
(0.962865 0.0152892 0)
(0.955433 0.0158704 0)
(0.946642 0.0166042 0)
(0.936522 0.0173466 0)
(0.925148 0.0181175 0)
(0.912632 0.0189641 0)
(0.89912 0.0199144 0)
(0.884779 0.0209673 0)
(0.869797 0.0220983 0)
(0.854362 0.0232761 0)
(0.838648 0.0244526 0)
(0.822849 0.0255594 0)
(0.807147 0.0265449 0)
(0.791608 0.0273967 0)
(0.776305 0.0281267 0)
(0.761303 0.028766 0)
(0.746655 0.0293561 0)
(0.732408 0.0299156 0)
(0.718621 0.0304254 0)
(0.705358 0.030838 0)
(0.692689 0.0310766 0)
(0.680688 0.031036 0)
(0.669442 0.0305884 0)
(0.659034 0.0295969 0)
(0.649542 0.0279552 0)
(0.641044 0.0256362 0)
(0.899508 0.157631 0)
(0.879019 0.187273 0)
(0.85474 0.204928 0)
(0.828503 0.209053 0)
(0.801307 0.199851 0)
(0.772915 0.178335 0)
(0.744814 0.148114 0)
(0.719336 0.113175 0)
(0.698219 0.0770467 0)
(0.682219 0.0413444 0)
(0.671457 0.00699238 0)
(0.666776 -0.0251334 0)
(0.667824 -0.0541028 0)
(0.673663 -0.0794885 0)
(0.684038 -0.101174 0)
(0.698712 -0.119089 0)
(0.717267 -0.133109 0)
(0.739334 -0.14329 0)
(0.764443 -0.149745 0)
(0.791825 -0.152568 0)
(0.820772 -0.152423 0)
(0.850881 -0.149847 0)
(0.881916 -0.145415 0)
(0.913652 -0.139222 0)
(0.945651 -0.131117 0)
(0.977212 -0.121315 0)
(1.0078 -0.110357 0)
(1.03705 -0.0987323 0)
(1.06468 -0.0868479 0)
(1.09047 -0.0750263 0)
(1.11425 -0.06353 0)
(1.13586 -0.0525708 0)
(1.15521 -0.0423102 0)
(1.17221 -0.0328459 0)
(1.18686 -0.024154 0)
(1.19918 -0.0161928 0)
(1.20912 -0.00905944 0)
(1.21662 -0.00292182 0)
(1.22175 0.0022007 0)
(1.22481 0.00653113 0)
(1.22606 0.0104516 0)
(1.22555 0.0141454 0)
(1.22336 0.0174343 0)
(1.21961 0.0202912 0)
(1.21435 0.022791 0)
(1.2076 0.0250843 0)
(1.19942 0.0273906 0)
(1.18989 0.0299322 0)
(1.17909 0.0328772 0)
(1.16706 0.0363166 0)
(1.15375 0.0402636 0)
(1.13904 0.0446471 0)
(1.12269 0.0493266 0)
(1.10442 0.0541574 0)
(1.08401 0.0590487 0)
(1.06141 0.0640288 0)
(1.03692 0.069283 0)
(1.01117 0.0750805 0)
(0.984937 0.0817091 0)
(0.958963 0.0894012 0)
(0.933587 0.0981123 0)
(0.909015 0.107118 0)
(0.885547 0.115074 0)
(0.863421 0.120616 0)
(0.842601 0.122738 0)
(0.822918 0.120779 0)
(0.804392 0.114377 0)
(0.787311 0.103636 0)
(0.771916 0.0889726 0)
(0.758665 0.0709722 0)
(0.748094 0.0502511 0)
(0.740592 0.0273631 0)
(0.736572 0.00281552 0)
(0.736812 -0.0222496 0)
(0.741588 -0.0463679 0)
(0.750661 -0.0683729 0)
(0.76375 -0.0874087 0)
(0.780495 -0.102861 0)
(0.800336 -0.114243 0)
(0.822639 -0.121361 0)
(0.846705 -0.12439 0)
(0.871826 -0.123911 0)
(0.897573 -0.12091 0)
(0.923742 -0.116002 0)
(0.950041 -0.109317 0)
(0.975949 -0.101099 0)
(1.00099 -0.0918265 0)
(1.02483 -0.0819557 0)
(1.04714 -0.0718877 0)
(1.06774 -0.0619687 0)
(1.0865 -0.0524973 0)
(1.10338 -0.0436992 0)
(1.11839 -0.0357192 0)
(1.13157 -0.0286595 0)
(1.14297 -0.0225556 0)
(1.15273 -0.0173499 0)
(1.16103 -0.0129534 0)
(1.16805 -0.00929877 0)
(1.17398 -0.00631662 0)
(1.17897 -0.00389242 0)
(1.18318 -0.00194755 0)
(1.18671 -0.000361595 0)
(1.18974 0.00100371 0)
(1.19253 0.00223921 0)
(1.19512 0.00342276 0)
(1.1975 0.00452929 0)
(1.19951 0.00581849 0)
(1.20117 0.00731168 0)
(1.2025 0.00891 0)
(1.20337 0.0106315 0)
(1.20359 0.0125185 0)
(1.20301 0.0146388 0)
(1.20152 0.0170539 0)
(1.19904 0.019742 0)
(1.19556 0.0226318 0)
(1.19104 0.0256352 0)
(1.18541 0.0286581 0)
(1.17862 0.0316279 0)
(1.17062 0.0344854 0)
(1.16138 0.037178 0)
(1.15092 0.039664 0)
(1.13932 0.0419096 0)
(1.12666 0.043875 0)
(1.11304 0.045504 0)
(1.09855 0.0467717 0)
(1.08335 0.0476971 0)
(1.06759 0.0483036 0)
(1.05147 0.0486123 0)
(1.03517 0.0486471 0)
(1.01898 0.0484258 0)
(1.00313 0.0479439 0)
(0.987876 0.0471717 0)
(0.973455 0.0460627 0)
(0.960078 0.044559 0)
(0.947907 0.0425966 0)
(0.937029 0.0401181 0)
(0.927461 0.037089 0)
(0.919157 0.0335037 0)
(1.12917 0.16558 0)
(1.12511 0.195773 0)
(1.12497 0.215489 0)
(1.12502 0.222134 0)
(1.12182 0.220705 0)
(1.11349 0.20712 0)
(1.09982 0.179812 0)
(1.08229 0.144388 0)
(1.06312 0.104081 0)
(1.04441 0.0617601 0)
(1.02777 0.0207794 0)
(1.01418 -0.0169926 0)
(1.00413 -0.0510454 0)
(0.997471 -0.0810088 0)
(0.994122 -0.106798 0)
(0.994058 -0.128524 0)
(0.997288 -0.146369 0)
(1.00384 -0.160444 0)
(1.0137 -0.170474 0)
(1.02652 -0.175925 0)
(1.04142 -0.178329 0)
(1.0577 -0.177718 0)
(1.07523 -0.174601 0)
(1.09435 -0.16921 0)
(1.11481 -0.161439 0)
(1.13579 -0.151514 0)
(1.15676 -0.14 0)
(1.17755 -0.127461 0)
(1.19791 -0.114426 0)
(1.21765 -0.101296 0)
(1.23662 -0.0883692 0)
(1.2547 -0.0758572 0)
(1.27177 -0.0639202 0)
(1.28776 -0.0526726 0)
(1.3026 -0.0421382 0)
(1.31627 -0.0322777 0)
(1.32877 -0.0230703 0)
(1.33998 -0.0145507 0)
(1.34975 -0.00673765 0)
(1.35792 0.000432288 0)
(1.36446 0.00702364 0)
(1.36941 0.0130337 0)
(1.37281 0.0184511 0)
(1.37467 0.0234378 0)
(1.37486 0.0282602 0)
(1.37323 0.032903 0)
(1.36973 0.0373512 0)
(1.36434 0.041692 0)
(1.35708 0.0460201 0)
(1.34806 0.0504494 0)
(1.33746 0.0551094 0)
(1.32551 0.0601327 0)
(1.31241 0.0656473 0)
(1.29832 0.0717648 0)
(1.28331 0.0785467 0)
(1.26731 0.0859585 0)
(1.25018 0.093848 0)
(1.23179 0.101969 0)
(1.21214 0.110092 0)
(1.19136 0.118152 0)