/*--------------------------------*- C++ -*----------------------------------*\
| =========                 |                                                 |
| \\      /  F ield         | OpenFOAM: The Open Source CFD Toolbox           |
|  \\    /   O peration     | Version:  2206                                  |
|   \\  /    A nd           | Website:  www.openfoam.com                      |
|    \\/     M anipulation  |                                                 |
\*---------------------------------------------------------------------------*/
FoamFile
{
    version     2.0;
    format      ascii;
    arch        "LSB;label=32;scalar=64";
    class       volVectorField;
    location    "19.7001";
    object      U_0;
}
// * * * * * * * * * * * * * * * * * * * * * * * * * * * * * * * * * * * * * //

dimensions      [0 1 -1 0 0 0 0];

internalField   nonuniform List<vector> 
4823
(
(0.150075 0.0650596 0)
(0.131156 0.107442 0)
(0.199453 0.155516 0)
(0.249359 0.18263 0)
(0.273332 0.191426 0)
(0.289532 0.191048 0)
(0.304241 0.177757 0)
(0.322722 0.147165 0)
(0.348469 0.101909 0)
(0.382813 0.0433827 0)
(0.426365 -0.0237317 0)
(0.478798 -0.0939284 0)
(0.540295 -0.161027 0)
(0.613003 -0.219183 0)
(0.698963 -0.262811 0)
(0.798184 -0.286596 0)
(0.908898 -0.285418 0)
(1.02862 -0.254037 0)
(1.15531 -0.187492 0)
(1.2874 -0.0850493 0)
(1.41657 0.040301 0)
(1.52791 0.16472 0)
(1.61799 0.276054 0)
(1.68602 0.368756 0)
(1.73318 0.441861 0)
(1.7621 0.497057 0)
(1.77602 0.537041 0)
(1.77846 0.564088 0)
(1.772 0.581805 0)
(1.75739 0.59003 0)
(1.73715 0.592028 0)
(1.71323 0.58903 0)
(1.6871 0.582926 0)
(1.65968 0.574948 0)
(1.63163 0.565803 0)
(1.60324 0.555937 0)
(1.57439 0.545747 0)
(1.54489 0.535409 0)
(1.51497 0.524383 0)
(1.48531 0.511521 0)
(1.45564 0.496814 0)
(1.42265 0.483873 0)
(1.37943 0.480584 0)
(1.31889 0.49468 0)
(1.24042 0.525266 0)
(1.1562 0.557115 0)
(1.08045 0.572866 0)
(1.0201 0.560348 0)
(0.983079 0.511385 0)
(0.972212 0.428783 0)
(0.977272 0.320383 0)
(1.00446 0.195221 0)
(1.04299 0.0645324 0)
(1.08843 -0.0614049 0)
(1.13791 -0.177343 0)
(1.18862 -0.280045 0)
(1.23818 -0.36771 0)
(1.28476 -0.439853 0)
(1.32704 -0.497041 0)
(1.36425 -0.54056 0)
(1.39605 -0.572124 0)
(1.42244 -0.593657 0)
(1.44367 -0.607132 0)
(1.4601 -0.614463 0)
(1.47212 -0.617433 0)
(1.48007 -0.617774 0)
(1.48422 -0.617157 0)
(1.48518 -0.616811 0)
(1.48271 -0.618032 0)
(1.47661 -0.621976 0)
(1.46729 -0.629102 0)
(1.45528 -0.638637 0)
(1.442 -0.648305 0)
(1.42921 -0.655265 0)
(1.41742 -0.656228 0)
(1.40855 -0.645521 0)
(1.40498 -0.618568 0)
(1.40786 -0.572654 0)
(1.41757 -0.506968 0)
(1.43393 -0.422856 0)
(1.45629 -0.323751 0)
(1.4835 -0.214787 0)
(1.51379 -0.102512 0)
(1.54494 0.00600057 0)
(1.57554 0.106717 0)
(1.60423 0.196389 0)
(1.62987 0.272969 0)
(1.65174 0.335769 0)
(1.66937 0.384925 0)
(1.68271 0.421447 0)
(1.69199 0.446867 0)
(1.69761 0.462932 0)
(1.70016 0.471297 0)
(1.70032 0.474058 0)
(1.69783 0.472527 0)
(1.69293 0.467004 0)
(1.68622 0.459244 0)
(1.67832 0.45023 0)
(1.66952 0.440671 0)
(1.65995 0.431013 0)
(1.64968 0.42153 0)
(1.63867 0.412438 0)
(1.6268 0.403959 0)
(1.61387 0.396345 0)
(1.59967 0.38983 0)
(-0.0198023 -0.0624774 0)
(-0.0435869 0.0480462 0)
(-0.0297135 0.100339 0)
(-0.0100162 0.133224 0)
(0.0123357 0.152282 0)
(0.0346708 0.154466 0)
(0.055561 0.138718 0)
(0.0742287 0.106316 0)
(0.0905548 0.0596912 0)
(0.106449 0.00167891 0)
(0.125368 -0.0661586 0)
(0.152304 -0.14214 0)
(0.192125 -0.220485 0)
(0.247503 -0.294173 0)
(0.319638 -0.355257 0)
(0.408409 -0.395797 0)
(0.512883 -0.40838 0)
(0.631125 -0.387113 0)
(0.76092 -0.328351 0)
(0.900106 -0.232401 0)
(1.04624 -0.106451 0)
(1.18956 0.0323589 0)
(1.31778 0.164561 0)
(1.42723 0.280947 0)
(1.51571 0.377581 0)
(1.58311 0.454163 0)
(1.63107 0.512263 0)
(1.66216 0.554131 0)
(1.67912 0.582586 0)
(1.6849 0.60055 0)
(1.68209 0.610245 0)
(1.67121 0.612165 0)
(1.65449 0.609893 0)
(1.63368 0.604033 0)
(1.6101 0.596096 0)
(1.5845 0.587245 0)
(1.55726 0.578135 0)
(1.52887 0.568528 0)
(1.50013 0.557462 0)
(1.47103 0.544871 0)
(1.43901 0.533871 0)
(1.39798 0.531899 0)
(1.34111 0.547053 0)
(1.26665 0.58016 0)
(1.18414 0.617965 0)
(1.10783 0.642513 0)
(1.04466 0.641465 0)
(1.00053 0.604407 0)
(0.981374 0.529957 0)
(0.98115 0.42416 0)
(1.0021 0.295123 0)
(1.03761 0.154344 0)
(1.08208 0.0143314 0)
(1.13189 -0.116938 0)
(1.18406 -0.234953 0)
(1.23583 -0.336843 0)
(1.28493 -0.42138 0)
(1.32972 -0.488746 0)
(1.36915 -0.540134 0)
(1.40276 -0.577367 0)
(1.4305 -0.602587 0)
(1.4526 -0.618034 0)
(1.4695 -0.625883 0)
(1.48172 -0.628161 0)
(1.48982 -0.626704 0)
(1.49432 -0.623032 0)
(1.49554 -0.618489 0)
(1.49361 -0.614436 0)
(1.48869 -0.612065 0)
(1.48068 -0.612355 0)
(1.46951 -0.616044 0)
(1.45538 -0.622971 0)
(1.43907 -0.631556 0)
(1.42222 -0.638899 0)
(1.406 -0.64174 0)
(1.39187 -0.635395 0)
(1.38245 -0.614779 0)
(1.37918 -0.576265 0)
(1.38295 -0.518329 0)
(1.39388 -0.441656 0)
(1.41153 -0.349059 0)
(1.43491 -0.24516 0)
(1.46254 -0.135872 0)
(1.49229 -0.0282092 0)
(1.52254 0.0731975 0)
(1.55197 0.165045 0)
(1.57932 0.244943 0)
(1.60369 0.311846 0)
(1.62444 0.365561 0)
(1.64123 0.406656 0)
(1.65409 0.436392 0)
(1.66328 0.456307 0)
(1.66911 0.467991 0)
(1.67214 0.473451 0)
(1.67288 0.474675 0)
(1.67109 0.472227 0)
(1.6669 0.466212 0)
(1.66104 0.458567 0)
(1.65397 0.450098 0)
(1.64588 0.441388 0)
(1.63686 0.43283 0)
(1.6269 0.424745 0)
(1.6159 0.417441 0)
(1.60368 0.411214 0)
(1.5901 0.406265 0)
(-0.0336504 0.0770435 0)
(-0.0707359 0.0784245 0)
(-0.0805754 0.097439 0)
(-0.0880403 0.122131 0)
(-0.0926161 0.139765 0)
(-0.0983242 0.144807 0)
(-0.107848 0.13471 0)
(-0.120926 0.107576 0)
(-0.134676 0.0618875 0)
(-0.143683 -0.00261693 0)
(-0.142536 -0.0840214 0)
(-0.127851 -0.176333 0)
(-0.0982092 -0.272045 0)
(-0.0533003 -0.36339 0)
(0.00633586 -0.442055 0)
(0.08036 -0.499656 0)
(0.169893 -0.528854 0)
(0.275295 -0.522727 0)
(0.395814 -0.477385 0)
(0.530641 -0.392902 0)
(0.677824 -0.274714 0)
(0.833736 -0.134107 0)
(0.988418 0.0119193 0)
(1.13086 0.148228 0)
(1.25613 0.267969 0)
(1.36115 0.368214 0)
(1.44512 0.448635 0)
(1.50896 0.510566 0)
(1.55461 0.556197 0)
(1.58461 0.587596 0)
(1.60153 0.607565 0)
(1.60768 0.619634 0)
(1.60578 0.624718 0)
(1.59595 0.624655 0)
(1.5801 0.620964 0)
(1.55976 0.615122 0)
(1.53621 0.60803 0)
(1.5108 0.599417 0)
(1.48417 0.589249 0)
(1.45464 0.580074 0)
(1.41725 0.578665 0)
(1.36565 0.593409 0)
(1.29723 0.627154 0)
(1.21877 0.669657 0)
(1.14363 0.702967 0)
(1.07911 0.714125 0)
(1.02949 0.691874 0)
(1.002 0.630934 0)
(0.996217 0.533204 0)
(1.01114 0.405064 0)
(1.04271 0.258202 0)
(1.08579 0.105621 0)
(1.1356 -0.0412209 0)
(1.18877 -0.175858 0)
(1.24237 -0.293975 0)
(1.29379 -0.393211 0)
(1.34097 -0.473011 0)
(1.38254 -0.534277 0)
(1.41781 -0.5789 0)
(1.44667 -0.609288 0)
(1.46947 -0.627967 0)
(1.48673 -0.637379 0)
(1.49898 -0.639859 0)
(1.50678 -0.637395 0)
(1.51053 -0.631446 0)
(1.51076 -0.623952 0)
(1.50833 -0.616183 0)
(1.50359 -0.609057 0)
(1.49645 -0.603477 0)
(1.48666 -0.600406 0)
(1.47391 -0.600674 0)
(1.45811 -0.604533 0)
(1.43961 -0.61115 0)
(1.41954 -0.618214 0)
(1.39962 -0.622299 0)
(1.381 -0.619279 0)
(1.36615 -0.604379 0)
(1.35707 -0.57324 0)
(1.35501 -0.523384 0)
(1.36053 -0.454765 0)
(1.37338 -0.36954 0)
(1.39276 -0.271749 0)
(1.41738 -0.166735 0)
(1.44528 -0.0610826 0)
(1.47463 0.0398579 0)
(1.5041 0.132746 0)
(1.53244 0.215012 0)
(1.55856 0.285189 0)
(1.58173 0.342837 0)
(1.60143 0.38818 0)
(1.61746 0.422118 0)
(1.62988 0.445983 0)
(1.63886 0.461363 0)
(1.64468 0.469956 0)
(1.64786 0.473464 0)
(1.64892 0.473858 0)
(1.64763 0.470523 0)
(1.64402 0.464696 0)
(1.63883 0.457676 0)
(1.63237 0.450192 0)
(1.62477 0.442802 0)
(1.61602 0.435938 0)
(1.60607 0.429986 0)
(1.59479 0.425256 0)
(1.58211 0.421886 0)
(-0.020724 0.103346 0)
(-0.0617244 0.107521 0)
(-0.0966455 0.124376 0)
(-0.128367 0.147364 0)
(-0.159307 0.165483 0)
(-0.190205 0.171923 0)
(-0.219775 0.161623 0)
(-0.245529 0.130444 0)
(-0.263423 0.0763394 0)
(-0.270695 -0.000174038 0)
(-0.26716 -0.0949904 0)
(-0.252479 -0.202231 0)
(-0.228209 -0.312859 0)
(-0.194346 -0.418403 0)
(-0.151449 -0.510604 0)
(-0.0993327 -0.581878 0)
(-0.0361686 -0.626199 0)
(0.0412656 -0.637432 0)
(0.13617 -0.610049 0)
(0.250446 -0.542994 0)
(0.383084 -0.440291 0)
(0.530467 -0.310114 0)
(0.68727 -0.164294 0)
(0.844235 -0.0168262 0)
(0.991907 0.120957 0)
(1.12456 0.243338 0)
(1.2384 0.347204 0)
(1.33216 0.431833 0)
(1.40623 0.498148 0)
(1.46194 0.54802 0)
(1.50116 0.583906 0)
(1.52624 0.608001 0)
(1.53948 0.623281 0)
(1.54316 0.632528 0)
(1.53865 0.636488 0)
(1.52686 0.636463 0)
(1.50993 0.633029 0)
(1.4894 0.62683 0)
(1.46488 0.620368 0)
(1.4329 0.619741 0)
(1.38799 0.633331 0)
(1.32717 0.665851 0)
(1.25496 0.710769 0)
(1.18326 0.751631 0)
(1.11989 0.774931 0)
(1.06818 0.769504 0)
(1.03446 0.726165 0)
(1.02313 0.641891 0)
(1.03258 0.520383 0)
(1.05999 0.372637 0)
(1.10109 0.211536 0)
(1.15074 0.0503836 0)
(1.20464 -0.101049 0)
(1.25965 -0.236723 0)
(1.31296 -0.352771 0)
(1.36222 -0.44745 0)
(1.40576 -0.520933 0)
(1.44258 -0.574909 0)
(1.47233 -0.612024 0)
(1.49532 -0.635244 0)
(1.51226 -0.647493 0)
(1.52402 -0.651262 0)
(1.53129 -0.648389 0)
(1.53379 -0.640842 0)
(1.53254 -0.631067 0)
(1.52866 -0.62063 0)
(1.52275 -0.610473 0)
(1.51509 -0.601125 0)
(1.50569 -0.593093 0)
(1.49422 -0.58711 0)
(1.4802 -0.584056 0)
(1.46323 -0.584562 0)
(1.44329 -0.588434 0)
(1.421 -0.594126 0)
(1.39793 -0.598631 0)
(1.37565 -0.598083 0)
(1.35604 -0.587934 0)
(1.34155 -0.563785 0)
(1.33386 -0.522212 0)
(1.33394 -0.462154 0)
(1.34191 -0.385038 0)
(1.35714 -0.294289 0)
(1.37846 -0.194716 0)
(1.40417 -0.0921869 0)
(1.43222 0.00731281 0)
(1.46121 0.100238 0)
(1.48991 0.183917 0)
(1.51716 0.256588 0)
(1.5421 0.317502 0)
(1.5641 0.366602 0)
(1.58278 0.4045 0)
(1.59803 0.432332 0)
(1.60981 0.451422 0)
(1.61838 0.463421 0)
(1.62408 0.469927 0)
(1.62732 0.472292 0)
(1.62856 0.47193 0)
(1.62757 0.468361 0)
(1.62442 0.463127 0)
(1.61972 0.457157 0)
(1.61366 0.45116 0)
(1.60627 0.445703 0)
(1.59753 0.441235 0)
(1.5874 0.438063 0)
(1.57587 0.436238 0)
(-0.277214 0.00663577 0)
(-0.274679 -0.100255 0)
(-0.258708 -0.220327 0)
(-0.231937 -0.343245 0)
(-0.197502 -0.45948 0)
(-0.158917 -0.561208 0)
(-0.118159 -0.642706 0)
(-0.0758192 -0.698522 0)
(-0.0294694 -0.723352 0)
(0.0264964 -0.715118 0)
(0.0999365 -0.66824 0)
(0.199018 -0.586652 0)
(0.320969 -0.473941 0)
(0.461026 -0.338364 0)
(0.611113 -0.191137 0)
(0.761809 -0.0442778 0)
(0.905315 0.0931979 0)
(1.03635 0.216605 0)
(1.1511 0.322917 0)
(1.24768 0.411032 0)
(1.32578 0.481532 0)
(1.38613 0.535939 0)
(1.43025 0.576534 0)
(1.45995 0.60589 0)
(1.47738 0.625881 0)
(1.4849 0.63903 0)
(1.48473 0.647331 0)
(1.47712 0.649938 0)
(1.46238 0.649995 0)
(1.43875 0.652648 0)
(1.40243 0.666329 0)
(1.35085 0.697115 0)
(1.28708 0.74209 0)
(1.22132 0.787854 0)
(1.16195 0.821165 0)
(1.11232 0.831771 0)
(1.0758 0.808154 0)
(1.06045 0.742631 0)
(1.06574 0.634439 0)
(1.08964 0.492385 0)
(1.12862 0.328658 0)
(1.17807 0.156718 0)
(1.23285 -0.0100564 0)
(1.2892 -0.163294 0)
(1.34408 -0.297352 0)
(1.39493 -0.409042 0)
(1.43989 -0.497347 0)
(1.47784 -0.563184 0)
(1.50829 -0.608959 0)
(1.53132 -0.63807 0)
(1.54747 -0.654208 0)
(1.55786 -0.660295 0)
(1.56391 -0.65879 0)
(1.56491 -0.650525 0)
(1.56187 -0.638754 0)
(1.55615 -0.625792 0)
(1.54843 -0.612984 0)
(1.53916 -0.600947 0)
(1.5286 -0.589906 0)
(1.51681 -0.58006 0)
(1.50355 -0.571831 0)
(1.48833 -0.565941 0)
(1.47051 -0.563183 0)
(1.44971 -0.563914 0)
(1.4261 -0.567425 0)
(1.4007 -0.571473 0)
(1.37541 -0.572532 0)
(1.35186 -0.566302 0)
(1.33252 -0.548306 0)
(1.31945 -0.514855 0)
(1.3141 -0.463754 0)
(1.31705 -0.395425 0)
(1.32795 -0.312556 0)
(1.34575 -0.219394 0)
(1.36891 -0.121213 0)
(1.39537 -0.0240197 0)
(1.42349 0.0680762 0)
(1.45205 0.152302 0)
(1.47988 0.226689 0)
(1.50603 0.290223 0)
(1.52976 0.342578 0)
(1.55054 0.384091 0)
(1.56813 0.41568 0)
(1.58244 0.438527 0)
(1.59349 0.453996 0)
(1.60156 0.463572 0)
(1.60708 0.468659 0)
(1.61031 0.470235 0)
(1.61158 0.469554 0)
(1.61076 0.466408 0)
(1.60792 0.462251 0)
(1.6035 0.4579 0)
(1.59761 0.454027 0)
(1.59027 0.451145 0)
(1.58151 0.449539 0)
(1.57141 0.449164 0)
(0.849657 0.0137679 0)
(0.832198 0.0147112 0)
(0.813246 0.0157143 0)
(0.79271 0.0167775 0)
(0.770495 0.017898 0)
(0.746512 0.0190673 0)
(0.720674 0.0202699 0)
(0.69291 0.0214805 0)
(0.663164 0.0226656 0)
(0.631435 0.0237642 0)
(0.597733 0.0247387 0)
(0.562122 0.0255132 0)
(0.524946 0.0258362 0)
(0.486049 0.0251773 0)
(0.448021 0.0232131 0)
(0.411063 0.0202191 0)
(0.375375 0.0168419 0)
(0.341309 0.0135625 0)
(0.309163 0.0105358 0)
(0.279023 0.00780311 0)
(0.250867 0.0053732 0)
(0.224667 0.00323482 0)
(0.200386 0.00136189 0)
(0.177963 -0.000304432 0)
(0.157328 -0.00178578 0)
(0.138406 -0.00306935 0)
(0.12111 -0.00415284 0)
(0.105336 -0.00501504 0)
(0.0909832 -0.00568532 0)
(0.0778907 -0.00603294 0)
(0.0658475 -0.00597643 0)
(0.0546764 -0.00567373 0)
(0.0442946 -0.00524732 0)
(0.0346396 -0.00474819 0)
(0.0256658 -0.00417608 0)
(0.0173528 -0.00351075 0)
(0.00949093 -0.00263358 0)
(1.6609 0.0248033 0)
(1.65281 0.0272108 0)
(1.64353 0.0297585 0)
(1.633 0.0324557 0)
(1.62116 0.0353074 0)
(1.60795 0.038312 0)
(1.5933 0.0414592 0)
(1.57715 0.0447272 0)
(1.55944 0.0480791 0)
(1.54015 0.0514588 0)
(1.51925 0.0547806 0)
(1.49668 0.0579274 0)
(1.47233 0.0607666 0)
(1.44645 0.0630451 0)
(1.41813 0.0644951 0)
(1.38713 0.0650839 0)
(1.35349 0.0649364 0)
(1.31736 0.0642038 0)
(1.27904 0.0629971 0)
(1.23882 0.0614072 0)
(1.19698 0.0595181 0)
(1.15378 0.0574036 0)
(1.10949 0.0551252 0)
(1.06436 0.0527475 0)
(1.01863 0.050304 0)
(0.972518 0.0478198 0)
(0.926254 0.0453158 0)
(0.87993 0.0428062 0)
(0.834071 0.0403189 0)
(0.788369 0.0378122 0)
(0.743869 0.0353258 0)
(0.700615 0.0328762 0)
(0.658717 0.0304992 0)
(0.618226 0.0282305 0)
(0.579148 0.0261026 0)
(0.541598 0.0241491 0)
(0.505421 0.0224126 0)
(1.94602 0.0294637 0)
(1.9445 0.0329046 0)
(1.94233 0.0365277 0)
(1.93951 0.0403441 0)
(1.93602 0.0443591 0)
(1.93183 0.0485702 0)
(1.92691 0.0529653 0)
(1.92125 0.0575103 0)
(1.91481 0.0621855 0)
(1.90755 0.0668463 0)
(1.89947 0.071585 0)
(1.89042 0.0765236 0)
(1.8804 0.0805858 0)
(1.86927 0.0841662 0)
(1.8569 0.0873193 0)
(1.84314 0.0900575 0)
(1.82784 0.0923014 0)
(1.8109 0.0940835 0)
(1.79228 0.0954494 0)
(1.772 0.0964325 0)
(1.75009 0.0970613 0)
(1.72662 0.0973677 0)
(1.70163 0.0973771 0)
(1.67521 0.0971058 0)
(1.64746 0.0965663 0)
(1.61848 0.0957729 0)
(1.58839 0.0947462 0)
(1.5573 0.0934927 0)
(1.52532 0.0920261 0)
(1.49261 0.0903452 0)
(1.45902 0.0884143 0)
(1.42464 0.0862684 0)
(1.38959 0.08397 0)
(1.35402 0.0815792 0)
(1.31806 0.0791441 0)
(1.28181 0.076711 0)
(1.24543 0.074322 0)
(2.02915 0.0283299 0)
(2.0304 0.0322337 0)
(2.0313 0.0363235 0)
(2.03186 0.0406112 0)
(2.03207 0.0451034 0)
(2.03195 0.0497998 0)
(2.03148 0.0546903 0)
(2.03067 0.0597516 0)
(2.02951 0.0649482 0)
(2.02799 0.0702227 0)
(2.02604 0.0755075 0)
(2.02371 0.0807177 0)
(2.02094 0.0857569 0)
(2.01759 0.0905287 0)
(2.01349 0.0949471 0)
(2.00855 0.0989465 0)
(2.00269 0.102507 0)
(1.99583 0.105644 0)
(1.9879 0.108384 0)
(1.97889 0.110752 0)
(1.96876 0.112759 0)
(1.95752 0.114417 0)
(1.94521 0.115737 0)
(1.93185 0.116728 0)
(1.91748 0.117398 0)
(1.90215 0.117757 0)
(1.8859 0.117814 0)
(1.8688 0.117579 0)
(1.85088 0.117063 0)
(1.83222 0.116289 0)
(1.81287 0.115285 0)
(1.7929 0.114081 0)
(1.77235 0.112709 0)
(1.75127 0.111197 0)
(1.7297 0.109576 0)
(1.7077 0.107875 0)
(1.68535 0.106123 0)
(2.05171 0.0261261 0)
(2.05388 0.0303611 0)
(2.05583 0.034764 0)
(2.05756 0.039349 0)
(2.05908 0.0441258 0)
(2.06041 0.0490969 0)
(2.06154 0.0542559 0)
(2.06248 0.0595846 0)
(2.06322 0.0650553 0)
(2.06375 0.0706234 0)
(2.06406 0.076234 0)
(2.06413 0.081872 0)
(2.06391 0.0873729 0)
(2.06329 0.0926434 0)
(2.06221 0.0975998 0)
(2.06059 0.102277 0)
(2.05837 0.106644 0)
(2.0555 0.110665 0)
(2.05195 0.114334 0)
(2.04769 0.117655 0)
(2.04273 0.120633 0)
(2.03707 0.123266 0)
(2.03072 0.12555 0)
(2.02372 0.127484 0)
(2.01609 0.129072 0)
(2.00785 0.130315 0)
(1.99906 0.13122 0)
(1.98973 0.131795 0)
(1.97991 0.132052 0)
(1.96961 0.132011 0)
(1.95887 0.131689 0)
(1.94768 0.131104 0)
(1.9361 0.130277 0)
(1.92417 0.129237 0)
(1.91192 0.128015 0)
(1.89939 0.126648 0)
(1.88661 0.125169 0)
(2.05634 0.0231979 0)
(2.05898 0.027668 0)
(2.06142 0.032288 0)
(2.06368 0.0370749 0)
(2.06578 0.0420421 0)
(2.06771 0.0471961 0)
(2.06947 0.0525349 0)
(2.07107 0.0580465 0)
(2.07249 0.0637085 0)
(2.07372 0.0694821 0)
(2.07474 0.0753321 0)
(2.07552 0.0811992 0)
(2.07603 0.0870073 0)
(2.07621 0.0926858 0)
(2.076 0.0981572 0)
(2.07534 0.103425 0)
(2.07418 0.108419 0)
(2.0725 0.113077 0)
(2.07025 0.117435 0)
(2.06744 0.121451 0)
(2.06408 0.125102 0)
(2.0602 0.128371 0)
(2.05584 0.13125 0)
(2.05102 0.133735 0)
(2.04578 0.135827 0)
(2.04017 0.137528 0)
(2.03424 0.138848 0)
(2.02801 0.139798 0)
(2.02153 0.140395 0)
(2.01483 0.14066 0)
(2.00794 0.14062 0)
(2.00088 0.1403 0)
(1.99367 0.13972 0)
(1.98635 0.138909 0)
(1.97892 0.137889 0)
(1.97141 0.136696 0)
(1.96385 0.135383 0)
(2.0588 0.019937 0)
(2.06162 0.0246101 0)
(2.06427 0.0294227 0)
(2.06678 0.0343962 0)
(2.06913 0.0395476 0)
(2.07134 0.0448879 0)
(2.07338 0.0504196 0)
(2.07525 0.0561359 0)
(2.07693 0.0620201 0)
(2.0784 0.0680412 0)
(2.07962 0.0741605 0)
(2.08056 0.0803375 0)
(2.08118 0.086514 0)
(2.08145 0.0926149 0)
(2.0813 0.0985689 0)
(2.08069 0.10434 0)
(2.07959 0.109866 0)
(2.078 0.115107 0)
(2.07589 0.120035 0)
(2.07328 0.124604 0)
(2.07019 0.128784 0)
(2.06664 0.132564 0)
(2.06266 0.135919 0)
(2.0583 0.138837 0)
(2.05362 0.141313 0)
(2.04865 0.143351 0)
(2.04345 0.144959 0)
(2.03806 0.146153 0)
(2.03253 0.146953 0)
(2.0269 0.147384 0)
(2.02121 0.147474 0)
(2.01549 0.147252 0)
(2.00976 0.146744 0)
(2.00405 0.145984 0)
(1.99835 0.145003 0)
(1.99259 0.143823 0)
(1.98688 0.142462 0)
(2.05858 0.0118694 0)
(2.06168 0.0166103 0)
(2.06463 0.021455 0)
(2.06744 0.0264292 0)
(2.07013 0.0315601 0)
(2.0727 0.0368714 0)
(2.07512 0.0423806 0)
(2.07738 0.0480979 0)
(2.07947 0.0540237 0)
(2.08134 0.0601477 0)
(2.08297 0.0664481 0)
(2.0843 0.0728892 0)
(2.08531 0.0794273 0)
(2.08594 0.086023 0)
(2.08615 0.0925929 0)
(2.08588 0.0990659 0)
(2.08511 0.105391 0)
(2.0838 0.111499 0)
(2.08195 0.117329 0)
(2.07956 0.122831 0)
(2.07665 0.127953 0)
(2.07325 0.132654 0)
(2.0694 0.136904 0)
(2.06515 0.140676 0)
(2.06056 0.143953 0)
(2.05568 0.146728 0)
(2.05057 0.149003 0)
(2.0453 0.150789 0)
(2.0399 0.152103 0)
(2.03443 0.15297 0)
(2.02893 0.15342 0)
(2.02344 0.153487 0)
(2.018 0.153207 0)
(2.01262 0.152621 0)
(2.00734 0.151769 0)
(2.00217 0.150699 0)
(1.99714 0.149447 0)
(1.99225 0.148017 0)
(2.062 0.00819082 0)
(2.06518 0.0130863 0)
(2.06825 0.0180702 0)
(2.07122 0.0231767 0)
(2.0741 0.028442 0)
(2.07687 0.0338986 0)
(2.07953 0.0395733 0)
(2.08203 0.0454852 0)
(2.08436 0.0516435 0)
(2.08645 0.0580452 0)
(2.08827 0.0646746 0)
(2.08976 0.0715023 0)
(2.09085 0.0784823 0)
(2.0915 0.0855619 0)
(2.09165 0.0926842 0)
(2.09125 0.0997554 0)
(2.09027 0.106708 0)
(2.08868 0.11346 0)
(2.08648 0.119936 0)
(2.08367 0.126066 0)
(2.08028 0.131785 0)
(2.07635 0.137037 0)
(2.07195 0.141779 0)
(2.06713 0.145977 0)
(2.06196 0.149609 0)
(2.05652 0.152667 0)
(2.05088 0.155156 0)
(2.04511 0.157088 0)
(2.03928 0.158488 0)
(2.03344 0.159387 0)
(2.02766 0.159822 0)
(2.02196 0.159836 0)
(2.01638 0.159472 0)
(2.01095 0.158774 0)
(2.0057 0.157782 0)
(2.00062 0.156538 0)
(1.99574 0.155072 0)
(1.99104 0.153411 0)
(2.06586 0.00452694 0)
(2.0691 0.00952567 0)
(2.07229 0.0145975 0)
(2.07542 0.0197878 0)
(2.0785 0.0251438 0)
(2.08151 0.0307096 0)
(2.08444 0.0365239 0)
(2.08724 0.0426175 0)
(2.08986 0.0490102 0)
(2.09225 0.0557087 0)
(2.09433 0.0627036 0)
(2.09604 0.0699692 0)
(2.09731 0.0774622 0)
(2.09805 0.0851226 0)
(2.0982 0.0928752 0)
(2.09771 0.100642 0)
(2.09655 0.108321 0)
(2.09467 0.115814 0)
(2.09208 0.123026 0)
(2.0888 0.129866 0)
(2.08486 0.136249 0)
(2.08031 0.142103 0)
(2.07523 0.14737 0)
(2.06969 0.152007 0)
(2.06379 0.155989 0)
(2.05761 0.159304 0)
(2.05125 0.161959 0)
(2.04478 0.163972 0)
(2.0383 0.165375 0)
(2.03185 0.166209 0)
(2.02551 0.166521 0)
(2.01933 0.166364 0)
(2.01334 0.165791 0)
(2.00757 0.164859 0)
(2.00205 0.163619 0)
(1.99677 0.162122 0)
(1.99175 0.160413 0)
(1.98698 0.158536 0)
(2.07008 0.000758449 0)
(2.07337 0.00580583 0)
(2.07665 0.0109105 0)
(2.07995 0.0161305 0)
(2.08325 0.0215268 0)
(2.08654 0.0271583 0)
(2.08978 0.0330791 0)
(2.09294 0.0393352 0)
(2.09594 0.0459606 0)
(2.0987 0.0529733 0)
(2.10115 0.0603727 0)
(2.10318 0.068137 0)
(2.1047 0.0762219 0)
(2.10562 0.084562 0)
(2.10585 0.0930712 0)
(2.10533 0.101645 0)
(2.10401 0.110173 0)
(2.10185 0.118536 0)
(2.09887 0.126606 0)
(2.09507 0.134268 0)
(2.09052 0.141414 0)
(2.08527 0.147951 0)
(2.07942 0.153807 0)
(2.07307 0.158927 0)
(2.06632 0.16328 0)
(2.0593 0.166856 0)
(2.05211 0.169664 0)
(2.04484 0.17173 0)
(2.0376 0.173097 0)
(2.03045 0.173817 0)
(2.02347 0.173949 0)
(2.01671 0.173561 0)
(2.01022 0.172719 0)
(2.00401 0.171489 0)
(1.99811 0.169935 0)
(1.99253 0.168118 0)
(1.98726 0.166092 0)
(1.98229 0.163905 0)
(2.07452 -0.00296048 0)
(2.07783 0.00206301 0)
(2.08121 0.00712378 0)
(2.08467 0.0122956 0)
(2.08821 0.0176567 0)
(2.09182 0.0232848 0)
(2.09545 0.029254 0)
(2.09904 0.0356302 0)
(2.10251 0.0424658 0)
(2.10577 0.0497944 0)
(2.10869 0.0576263 0)
(2.11117 0.0659449 0)
(2.11307 0.0747044 0)
(2.11427 0.0838304 0)
(2.11467 0.0932214 0)
(2.11417 0.102753 0)
(2.11273 0.11228 0)
(2.1103 0.121657 0)
(2.10689 0.130732 0)
(2.10252 0.13935 0)
(2.09727 0.147376 0)
(2.09121 0.154692 0)
(2.08448 0.161205 0)
(2.07718 0.16685 0)
(2.06947 0.17159 0)
(2.06148 0.175417 0)
(2.05334 0.178346 0)
(2.04518 0.180416 0)
(2.03709 0.181682 0)
(2.02917 0.182214 0)
(2.0215 0.182088 0)
(2.01414 0.181386 0)
(2.00711 0.180192 0)
(2.00046 0.178586 0)
(1.99418 0.176645 0)
(1.98829 0.174439 0)
(1.98277 0.172032 0)
(1.97761 0.169481 0)
(2.07909 -0.00668192 0)
(2.08239 -0.00177021 0)
(2.08584 0.00315333 0)
(2.08947 0.00817941 0)
(2.09329 0.0134089 0)
(2.09727 0.0189437 0)
(2.10136 0.024883 0)
(2.10549 0.0313186 0)
(2.10956 0.0383278 0)
(2.11345 0.0459652 0)
(2.11701 0.0542563 0)
(2.12008 0.0631922 0)
(2.1225 0.0727254 0)
(2.12412 0.0827701 0)
(2.12479 0.0932037 0)
(2.1244 0.103872 0)
(2.12287 0.114597 0)
(2.12017 0.125185 0)
(2.11628 0.135448 0)
(2.11127 0.145195 0)
(2.1052 0.154248 0)
(2.0982 0.162459 0)
(2.09042 0.169713 0)
(2.08202 0.17593 0)
(2.07317 0.18107 0)
(2.06405 0.185129 0)
(2.05482 0.188134 0)
(2.04562 0.19014 0)
(2.03658 0.191221 0)
(2.02781 0.191468 0)
(2.01939 0.190982 0)
(2.01137 0.189864 0)
(2.0038 0.188217 0)
(1.99669 0.18614 0)
(1.99005 0.183723 0)
(1.98388 0.181049 0)
(1.97815 0.178191 0)
(1.97285 0.175215 0)
(2.08365 -0.0102904 0)
(2.08689 -0.00559873 0)
(2.09039 -0.000930188 0)
(2.0942 0.00382669 0)
(2.09832 0.00879588 0)
(2.10273 0.0141121 0)
(2.10738 0.0199081 0)
(2.11218 0.0263099 0)
(2.11701 0.0334279 0)
(2.12171 0.0413461 0)
(2.1261 0.0501113 0)
(2.12997 0.0597258 0)
(2.13311 0.0701415 0)
(2.13532 0.0812581 0)
(2.1364 0.0929262 0)
(2.13622 0.104954 0)
(2.13466 0.117115 0)
(2.13167 0.129161 0)
(2.12725 0.140847 0)
(2.12148 0.151943 0)
(2.11444 0.162212 0)
(2.10631 0.171464 0)
(2.09728 0.179558 0)
(2.08755 0.1864 0)
(2.07736 0.191948 0)
(2.06691 0.196206 0)
(2.0564 0.199218 0)
(2.04602 0.201064 0)
(2.0359 0.201846 0)
(2.02617 0.201683 0)
(2.01692 0.200705 0)
(2.0082 0.199041 0)
(2.00006 0.196818 0)
(1.9925 0.194153 0)
(1.98551 0.191155 0)
(1.97909 0.18792 0)
(1.97319 0.184529 0)
(1.96779 0.181055 0)
(2.08806 -0.013764 0)
(2.09119 -0.00942427 0)
(2.09471 -0.00515751 0)
(2.09869 -0.00082834 0)
(2.10314 0.00371767 0)
(2.10806 0.00864964 0)
(2.11338 0.0141461 0)
(2.11901 0.0203807 0)
(2.12479 0.0275099 0)
(2.13054 0.0356586 0)
(2.13601 0.0449051 0)
(2.14094 0.0552687 0)
(2.14505 0.0667015 0)
(2.14807 0.0790851 0)
(2.14975 0.092234 0)
(2.1499 0.105904 0)
(2.14837 0.119808 0)
(2.14509 0.133624 0)
(2.14007 0.147031 0)
(2.13339 0.159742 0)
(2.1252 0.171453 0)
(2.1157 0.181925 0)
(2.10514 0.190978 0)
(2.09381 0.198504 0)
(2.082 0.20446 0)
(2.06996 0.208867 0)
(2.05796 0.211796 0)
(2.0462 0.213357 0)
(2.03485 0.213693 0)
(2.02405 0.212962 0)
(2.0139 0.211329 0)
(2.00444 0.208959 0)
(1.99571 0.206008 0)
(1.9877 0.202619 0)
(1.98039 0.198917 0)
(1.97375 0.195013 0)
(1.96773 0.190995 0)
(1.96228 0.186944 0)
(2.09216 -0.0169834 0)
(2.09509 -0.0131543 0)
(2.09858 -0.00946872 0)
(2.10271 -0.00576882 0)
(2.10752 -0.00186096 0)
(2.11301 0.00246906 0)
(2.11914 0.00745435 0)
(2.12579 0.0133306 0)
(2.13278 0.0203196 0)
(2.13987 0.0286047 0)
(2.14676 0.0383108 0)
(2.1531 0.0494852 0)
(2.15851 0.0620836 0)
(2.16264 0.0759671 0)
(2.16516 0.090905 0)
(2.1658 0.106586 0)
(2.16437 0.122637 0)
(2.16079 0.13864 0)
(2.15506 0.154175 0)
(2.14729 0.168868 0)
(2.13767 0.182318 0)
(2.12649 0.194223 0)
(2.11407 0.204365 0)
(2.1008 0.212621 0)
(2.08703 0.218956 0)
(2.07311 0.223419 0)
(2.05934 0.22612 0)
(2.04598 0.22722 0)
(2.03323 0.226911 0)
(2.02124 0.225402 0)
(2.0101 0.222909 0)
(1.99987 0.219636 0)
(1.99054 0.215777 0)
(1.98211 0.211501 0)
(1.97452 0.206956 0)
(1.96772 0.202266 0)
(1.96164 0.197524 0)
(1.95622 0.192814 0)
(2.09576 -0.0198504 0)
(2.09839 -0.0167163 0)
(2.10176 -0.0138254 0)
(2.106 -0.0109991 0)
(2.11117 -0.00800497 0)
(2.11731 -0.00456586 0)
(2.12438 -0.000377399 0)
(2.13227 0.00488244 0)
(2.14078 0.0115241 0)
(2.1496 0.0198147 0)
(2.15834 0.0299461 0)
(2.16653 0.0420055 0)
(2.17369 0.0559553 0)
(2.17933 0.0716283 0)
(2.18302 0.0887329 0)
(2.18439 0.106867 0)
(2.18319 0.125548 0)
(2.1793 0.144234 0)
(2.17272 0.162376 0)
(2.16358 0.179494 0)
(2.15217 0.19507 0)
(2.13887 0.208698 0)
(2.12414 0.220108 0)
(2.10846 0.229159 0)
(2.09231 0.235838 0)
(2.07612 0.240234 0)
(2.06027 0.242518 0)
(2.04507 0.242921 0)
(2.03073 0.241705 0)
(2.01743 0.239149 0)
(2.00525 0.235531 0)
(1.99422 0.23111 0)
(1.98433 0.226121 0)
(1.97553 0.220767 0)
(1.96773 0.215216 0)
(1.96086 0.20961 0)
(1.95481 0.204041 0)
(1.94949 0.198588 0)
(2.09868 -0.0221906 0)
(2.10085 -0.0199685 0)
(2.10399 -0.0181315 0)
(2.10824 -0.0164824 0)
(2.11376 -0.0147529 0)
(2.12061 -0.0126004 0)
(2.12881 -0.00962452 0)
(2.13824 -0.00538263 0)
(2.14868 0.000568782 0)
(2.15973 0.00862463 0)
(2.17088 0.0190805 0)
(2.18153 0.032086 0)
(2.19102 0.0476204 0)
(2.19869 0.065489 0)
(2.20397 0.0853215 0)
(2.20635 0.106579 0)
(2.20549 0.128608 0)
(2.20125 0.150705 0)
(2.19364 0.172139 0)
(2.18281 0.192245 0)
(2.16915 0.210357 0)
(2.15318 0.225984 0)
(2.13551 0.238793 0)
(2.11682 0.248636 0)
(2.09773 0.255537 0)
(2.07878 0.259653 0)
(2.06045 0.261243 0)
(2.0431 0.260629 0)
(2.02698 0.25817 0)
(2.01224 0.254233 0)
(1.99898 0.249174 0)
(1.98717 0.243317 0)
(1.97678 0.236947 0)
(1.9677 0.230303 0)
(1.95981 0.223574 0)
(1.95299 0.216917 0)
(1.94709 0.210426 0)
(1.94199 0.204163 0)
(2.10094 -0.0238089 0)
(2.10247 -0.0227051 0)
(2.10522 -0.0222135 0)
(2.10939 -0.0220953 0)
(2.1152 -0.0220417 0)
(2.12282 -0.0216448 0)
(2.13234 -0.0203805 0)
(2.14367 -0.0176441 0)
(2.15657 -0.0128174 0)
(2.17054 -0.00532575 0)
(2.18491 0.00528542 0)
(2.19887 0.0192489 0)
(2.21153 0.0365607 0)
(2.22201 0.0569942 0)
(2.22949 0.0800988 0)
(2.23327 0.105184 0)
(2.23293 0.131385 0)
(2.22825 0.157779 0)
(2.21923 0.183444 0)
(2.20608 0.207475 0)
(2.18942 0.228865 0)
(2.16995 0.246973 0)
(2.14852 0.261403 0)
(2.12601 0.272031 0)
(2.10324 0.278959 0)
(2.08093 0.282461 0)
(2.05963 0.282927 0)
(2.03976 0.28082 0)
(2.02161 0.276629 0)
(2.00532 0.27084 0)
(1.99093 0.263907 0)
(1.97839 0.256237 0)
(1.9676 0.248172 0)
(1.95838 0.239983 0)
(1.95056 0.231881 0)
(1.94396 0.224034 0)
(1.93837 0.216527 0)
(1.93363 0.209399 0)
(2.1034 -0.0245707 0)
(2.10398 -0.02484 0)
(2.10602 -0.026055 0)
(2.10985 -0.0279754 0)
(2.11576 -0.0302286 0)
(2.12407 -0.0323388 0)
(2.135 -0.0336103 0)
(2.14855 -0.0331601 0)
(2.16443 -0.030117 0)
(2.18208 -0.0236417 0)
(2.20058 -0.0130306 0)
(2.2188 0.00208461 0)
(2.23556 0.0217252 0)
(2.24972 0.0456039 0)
(2.26017 0.0730699 0)
(2.26595 0.103083 0)
(2.26647 0.134593 0)
(2.2615 0.166454 0)
(2.25096 0.197232 0)
(2.23502 0.225814 0)
(2.21441 0.251135 0)
(2.1903 0.272184 0)
(2.16392 0.288426 0)
(2.13648 0.29978 0)
(2.10906 0.306475 0)
(2.08256 0.308951 0)
(2.05764 0.307785 0)
(2.03481 0.303625 0)
(2.01435 0.297134 0)
(1.99636 0.288944 0)
(1.98084 0.27964 0)
(1.96766 0.269723 0)
(1.95661 0.259607 0)
(1.94745 0.249605 0)
(1.9399 0.239928 0)
(1.93371 0.230754 0)
(1.92862 0.222159 0)
(1.9244 0.214143 0)
(2.10509 -0.0239387 0)
(2.10429 -0.0255453 0)
(2.10488 -0.0285764 0)
(2.10759 -0.0328508 0)
(2.1129 -0.0379358 0)
(2.1213 -0.0432945 0)
(2.13332 -0.0480804 0)
(2.14908 -0.0510486 0)
(2.16827 -0.0509465 0)
(2.19024 -0.0464321 0)
(2.21383 -0.0365598 0)
(2.23749 -0.0208165 0)
(2.25959 0.0010379 0)
(2.27856 0.028786 0)
(2.29278 0.0618238 0)
(2.30114 0.0983124 0)
(2.30321 0.136703 0)
(2.29825 0.176154 0)
(2.28594 0.214711 0)
(2.26701 0.24981 0)
(2.2422 0.28007 0)
(2.21278 0.304498 0)
(2.18057 0.322534 0)
(2.14731 0.334238 0)
(2.11444 0.340041 0)
(2.08309 0.340649 0)
(2.05405 0.336926 0)
(2.02789 0.329777 0)
(2.00492 0.320103 0)
(1.9852 0.308727 0)
(1.96862 0.296373 0)
(1.95496 0.283654 0)
(1.94388 0.27105 0)
(1.93503 0.258911 0)
(1.92803 0.247451 0)
(1.92251 0.236834 0)
(1.91813 0.22711 0)
(1.9146 0.218225 0)
(2.09791 -0.0217614 0)
(2.09495 -0.0252635 0)
(2.09345 -0.0305467 0)
(2.0941 -0.0377418 0)
(2.09775 -0.0466091 0)
(2.10571 -0.056402 0)
(2.11752 -0.0657923 0)
(2.13456 -0.0732706 0)
(2.1566 -0.0772529 0)
(2.18278 -0.0752155 0)
(2.21135 -0.0658347 0)
(2.24046 -0.0489604 0)
(2.2687 -0.0242971 0)
(2.2935 0.00795877 0)
(2.31285 0.0467183 0)
(2.3282 0.0903591 0)
(2.32911 0.13688 0)
(2.32601 0.184322 0)
(2.31329 0.230717 0)
(2.29142 0.274634 0)
(2.26226 0.312453 0)
(2.2279 0.341723 0)
(2.19031 0.362227 0)
(2.15158 0.374426 0)
(2.11355 0.379059 0)
(2.0777 0.377261 0)
(2.04497 0.37024 0)
(2.01597 0.359218 0)
(1.99103 0.345443 0)
(1.97015 0.33002 0)
(1.95311 0.313871 0)
(1.93957 0.297741 0)
(1.92905 0.282186 0)
(1.92107 0.267583 0)
(1.91512 0.254144 0)
(1.91072 0.242008 0)
(1.90743 0.231165 0)
(1.90488 0.221483 0)
(2.06766 -0.0141433 0)
(2.06098 -0.0187275 0)
(2.05526 -0.0258713 0)