/*--------------------------------*- C++ -*----------------------------------*\
| =========                 |                                                 |
| \\      /  F ield         | OpenFOAM: The Open Source CFD Toolbox           |
|  \\    /   O peration     | Version:  2206                                  |
|   \\  /    A nd           | Website:  www.openfoam.com                      |
|    \\/     M anipulation  |                                                 |
\*---------------------------------------------------------------------------*/
FoamFile
{
    version     2.0;
    format      ascii;
    arch        "LSB;label=32;scalar=64";
    class       volScalarField;
    location    "18.6999";
    object      p;
}
// * * * * * * * * * * * * * * * * * * * * * * * * * * * * * * * * * * * * * //

dimensions      [0 2 -2 0 0 0 0];

internalField   nonuniform List<scalar> 
1839
(
2.19298
2.19264
2.19176
2.1904
2.18869
2.18671
2.18451
2.1821
2.17953
2.17681
2.17398
2.17105
2.16803
2.16494
2.16178
2.15856
2.15528
2.15195
2.14858
2.14517
2.14173
2.13825
2.13474
2.13121
2.12766
2.12409
2.12051
2.11692
2.11332
2.10972
2.10613
2.10255
2.09898
2.09543
2.0919
2.0884
2.08494
2.08152
2.07814
2.07481
2.07154
2.06833
2.06519
2.06211
2.0591
2.05617
2.05331
2.05054
2.04784
2.04524
2.04271
2.04027
2.03792
2.03565
2.03347
2.03138
2.02937
2.02746
2.02564
2.02391
2.02227
2.02074
2.01931
2.01799
2.01678
2.01569
2.01474
2.01393
2.01328
2.01281
2.01254
2.01249
2.01268
2.01315
2.01393
2.01507
2.0166
2.01858
2.02106
2.02413
2.02784
2.03229
2.03757
2.04378
2.05103
2.05942
2.06907
2.08005
2.09243
2.1062
2.12124
2.13722
2.15353
2.16899
2.18154
2.18736
2.18039
2.14618
2.06649
1.84646
1.42136
-0.19417
2.19534
2.19494
2.19392
2.19235
2.19042
2.18823
2.18583
2.18325
2.18052
2.17767
2.17472
2.17169
2.16859
2.16542
2.1622
2.15892
2.1556
2.15223
2.14882
2.14538
2.1419
2.13839
2.13486
2.1313
2.12772
2.12412
2.12051
2.11689
2.11327
2.10964
2.10602
2.10241
2.09881
2.09522
2.09167
2.08814
2.08465
2.0812
2.07779
2.07444
2.07115
2.06791
2.06475
2.06165
2.05863
2.05568
2.05282
2.05003
2.04733
2.04471
2.04219
2.03974
2.03739
2.03512
2.03293
2.03083
2.02882
2.0269
2.02506
2.02332
2.02166
2.0201
2.01863
2.01726
2.016
2.01484
2.0138
2.01289
2.01212
2.01151
2.01106
2.0108
2.01075
2.01093
2.01137
2.01209
2.01313
2.01453
2.01633
2.01856
2.02129
2.02454
2.02839
2.03285
2.03798
2.04379
2.05028
2.05739
2.06499
2.07282
2.08046
2.08718
2.09183
2.09248
2.0861
2.06734
2.02794
1.95032
1.81145
1.5411
1.10058
0.339707
2.19827
2.19778
2.19654
2.19467
2.19244
2.18998
2.18735
2.18456
2.18164
2.17863
2.17554
2.17239
2.16919
2.16594
2.16264
2.1593
2.15592
2.15251
2.14906
2.14557
2.14206
2.13852
2.13495
2.13136
2.12775
2.12412
2.12048
2.11683
2.11318
2.10952
2.10587
2.10222
2.09858
2.09496
2.09137
2.08781
2.08428
2.0808
2.07737
2.07399
2.07066
2.06741
2.06422
2.0611
2.05806
2.05509
2.05221
2.04942
2.04671
2.04409
2.04155
2.03911
2.03675
2.03448
2.03229
2.03019
2.02817
2.02624
2.02439
2.02262
2.02094
2.01935
2.01784
2.01642
2.01509
2.01385
2.01272
2.0117
2.01079
2.01001
2.00937
2.00888
2.00856
2.00842
2.00848
2.00876
2.00927
2.01004
2.01109
2.01243
2.0141
2.01609
2.01842
2.02106
2.024
2.02716
2.03044
2.03365
2.0365
2.03853
2.03904
2.03702
2.03093
2.01844
1.99603
1.95813
1.89655
1.79796
1.6455
1.41468
1.0832
0.700867
2.20188
2.20127
2.19968
2.19737
2.19472
2.19194
2.18903
2.18599
2.18286
2.17967
2.17644
2.17317
2.16987
2.16654
2.16318
2.15977
2.15634
2.15287
2.14937
2.14585
2.1423
2.13872
2.13511
2.13149
2.12784
2.12417
2.1205
2.11681
2.11311
2.10942
2.10573
2.10203
2.09835
2.09469
2.09106
2.08745
2.08388
2.08036
2.07689
2.07347
2.07012
2.06683
2.06361
2.06047
2.05741
2.05443
2.05153
2.04872
2.046
2.04338
2.04084
2.0384
2.03603
2.03376
2.03157
2.02946
2.02743
2.02549
2.02363
2.02184
2.02014
2.01851
2.01696
2.01548
2.01408
2.01276
2.01153
2.01038
2.00933
2.00837
2.00752
2.00678
2.00617
2.00569
2.00535
2.00515
2.00511
2.00522
2.00549
2.00592
2.0065
2.00721
2.00799
2.0088
2.00955
2.01012
2.01029
2.00978
2.00816
2.00482
1.99887
1.98909
1.9738
1.95058
1.91595
1.86495
1.79084
1.68473
1.53541
1.33211
1.04919
0.702796
2.20636
2.20552
2.20339
2.20044
2.19727
2.19409
2.19083
2.18748
2.18409
2.18068
2.17728
2.17388
2.17047
2.16706
2.16362
2.16015
2.15666
2.15315
2.14961
2.14604
2.14245
2.13884
2.1352
2.13154
2.12787
2.12417
2.12045
2.11673
2.113
2.10927
2.10553
2.10179
2.09806
2.09435
2.09067
2.08702
2.08341
2.07984
2.07633
2.07287
2.06947
2.06615
2.0629
2.05973
2.05664
2.05363
2.05071
2.04789
2.04516
2.04254
2.04002
2.03757
2.0352
2.03292
2.03073
2.02862
2.02659
2.02464
2.02276
2.02096
2.01923
2.01757
2.01597
2.01444
2.01297
2.01157
2.01023
2.00895
2.00774
2.00661
2.00554
2.00454
2.00363
2.00279
2.00204
2.00136
2.00075
2.00019
1.99967
1.99918
1.99869
1.99814
1.99741
1.99644
1.99508
1.99314
1.99037
1.98646
1.98084
1.97276
1.96125
1.94504
1.92243
1.89109
1.84782
1.78837
1.70738
1.59839
1.45311
1.26375
1.0162
0.719898
2.21206
2.21073
2.20761
2.20376
2.20003
2.19646
2.19284
2.18918
2.18554
2.18194
2.17836
2.17483
2.17132
2.16781
2.16429
2.16075
2.15719
2.15362
2.15003
2.14641
2.14277
2.1391
2.13542
2.13171
2.12798
2.12423
2.12046
2.11669
2.11294
2.10917
2.10537
2.10156
2.09777
2.094
2.09026
2.08655
2.08289
2.07927
2.07571
2.0722
2.06875
2.06539
2.06211
2.05891
2.05579
2.05276
2.04982
2.04696
2.04419
2.04157
2.03907
2.03664
2.03428
2.032
2.02981
2.0277
2.02566
2.02371
2.02182
2.02
2.01825
2.01656
2.01492
2.01333
2.01179
2.0103
2.00885
2.00744
2.00607
2.00474
2.00345
2.0022
2.00099
1.9998
1.99864
1.99747
1.99629
1.99508
1.9938
1.99241
1.99086
1.98908
1.98697
1.98438
1.98118
1.97696
1.97148
1.96457
1.95555
1.94342
1.92709
1.9055
1.87729
1.84026
1.79135
1.72689
1.64267
1.53404
1.39539
1.22206
1.00955
0.764035
2.21964
2.21728
2.21232
2.20704
2.20253
2.19843
2.19436
2.19033
2.1864
2.18261
2.17891
2.17531
2.17177
2.16822
2.16463
2.16103
2.15744
2.15384
2.15022
2.14657
2.1429
2.1392
2.13548
2.13174
2.12797
2.12417
2.12033
2.11649
2.1127
2.10892
2.10508
2.10122
2.09737
2.09354
2.08974
2.08597
2.08225
2.07859
2.07498
2.07142
2.06792
2.06451
2.06119
2.05795
2.05481
2.05176
2.04881
2.04595
2.0432
2.04057
2.03804
2.0356
2.03324
2.03097
2.02878
2.02668
2.02465
2.0227
2.02082
2.01899
2.01722
2.0155
2.01383
2.01219
2.01059
2.00902
2.00747
2.00594
2.00441
2.0029
2.00139
1.9999
1.9984
1.99685
1.99528
1.99364
1.99191
1.99006
1.98805
1.98582
1.9833
1.9804
1.977
1.97293
1.96798
1.96186
1.95428
1.94493
1.93333
1.9184
1.89853
1.87266
1.84023
1.7995
1.74732
1.68001
1.59485
1.4893
1.35921
1.20127
1.01411
0.800853
2.22988
2.22536
2.21791
2.21139
2.20621
2.20148
2.19679
2.19231
2.18807
2.18404
2.18011
2.17634
2.17276
2.16914
2.16545
2.16175
2.15807
2.15439
2.1507
2.147
2.14327
2.13951
2.13574
2.13195
2.12815
2.12433
2.12048
2.11662
2.11274
2.10883
2.10489
2.10094
2.09702
2.09312
2.08924
2.08541
2.08162
2.07789
2.07421
2.07061
2.06707
2.06362
2.06026
2.05699
2.05382
2.05074
2.04776
2.0449
2.04214
2.03949
2.03694
2.0345
2.03214
2.02988
2.02771
2.02562
2.0236
2.02166
2.01978
2.01795
2.01617
2.01443
2.01272
2.01104
2.00938
2.00773
2.00608
2.00444
2.00278
2.0011
1.9994
1.99767
1.99589
1.99406
1.99216
1.99012
1.98791
1.98551
1.98287
1.97991
1.97656
1.97271
1.96823
1.96293
1.9566
1.94895
1.93967
1.92836
1.9145
1.89721
1.87527
1.84759
1.81317
1.77063
1.71797
1.64973
1.56408
1.46219
1.34006
1.19437
1.02447
0.832727
2.245
2.2318
2.21921
2.21231
2.20734
2.20233
2.19735
2.19269
2.18842
2.1844
2.18053
2.17677
2.1731
2.16943
2.16573
2.16203
2.15834
2.15464
2.15093
2.14721
2.14346
2.13969
2.13591
2.1321
2.12828
2.12445
2.12059
2.11669
2.11272
2.10868
2.10464
2.10063
2.09664
2.09267
2.08873
2.08483
2.08098
2.07718
2.07345
2.06979
2.06621
2.06272
2.05932
2.05603
2.05284
2.04974
2.04676
2.04389
2.04113
2.03849
2.03595
2.03352
2.03119
2.02895
2.02681
2.02474
2.02275
2.02082
2.01895
2.01714
2.01536
2.01362
2.0119
2.0102
2.0085
2.0068
2.00509
2.00336
2.00161
1.99985
1.99801
1.99611
1.99413
1.99207
1.9899
1.98757
1.98504
1.98227
1.9792
1.97574
1.97182
1.96733
1.96212
1.95601
1.94878
1.94012
1.92969
1.91704
1.90161
1.88264
1.85918
1.83016
1.79439
1.75048
1.69675
1.62968
1.54718
1.44893
1.33244
1.19537
1.03732
0.860121
2.2806
2.24707
2.22492
2.2156
2.21013
2.20458
2.19907
2.19405
2.18956
2.18539
2.18139
2.17751
2.17371
2.16995
2.16621
2.16248
2.15874
2.155
2.15126
2.14749
2.14371
2.13991
2.13609
2.13225
2.12839
2.12453
2.12067
2.11678
2.11276
2.10862
2.10451
2.10044
2.09641
2.09239
2.08841
2.08447
2.08059
2.07676
2.073
2.06931
2.06571
2.0622
2.05879
2.05548
2.05227
2.04917
2.04619
2.04332
2.04057
2.03793
2.0354
2.03298
2.03066
2.02843
2.0263
2.02425
2.02227
2.02035
2.0185
2.01669
2.01493
2.0132
2.01149
2.00979
2.0081
2.0064
2.00468
2.00294
2.00117
1.99936
1.99751
1.99559
1.99359
1.9915
1.98927
1.98688
1.98429
1.98144
1.97828
1.97474
1.97072
1.96611
1.96076
1.95449
1.94707
1.93822
1.92757
1.91467
1.89897
1.87973
1.85604
1.82679
1.79058
1.74609
1.69209
1.62622
1.54594
1.4497
1.33593
1.20313
1.05086
0.880537
-3.37032
-2.16323
-1.35612
-1.38994
-1.38516
-1.37371
-1.35508
-1.32933
-1.29453
-1.25224
-1.20596
-1.16145
-1.12222
-1.08907
-1.06169
-1.04037
-1.025
-1.01272
-0.999594
-0.981874
-0.956969
-0.924453
-0.885401
-0.841633
-0.795159
-0.748338
-0.704202
-0.664616
-0.630205
-0.600971
-0.576516
-0.820278
-0.998731
-1.09743
-1.31269
-1.36916
-1.36205
-1.34719
-1.32786
-1.29439
-1.24857
-1.20152
-1.15726
-1.11897
-1.08641
-1.05907
-1.03903
-1.02716
-1.02114
-1.01259
-0.994521
-0.96742
-0.933022
-0.892398
-0.84698
-0.799073
-0.751614
-0.707283
-0.667513
-0.63293
-0.603546
-0.578993
-0.0226471
-0.564327
-0.850008
-1.06817
-1.18795
-1.23478
-1.25485
-1.25909
-1.24663
-1.21961
-1.18532
-1.14747
-1.10883
-1.07689
-1.05105
-1.03178
-1.01797
-1.00736
-0.994521
-0.975759
-0.950399
-0.918342
-0.880433
-0.838484
-0.794168
-0.750548
-0.709289
-0.671524
-0.638325
-0.6098
-0.585605
0.18735
-0.256418
-0.513257
-0.71342
-0.859894
-0.955703
-1.02675
-1.07049
-1.08869
-1.08912
-1.079
-1.06205
-1.04289
-1.0257
-1.01307
-1.00028
-0.988875
-0.978407
-0.965914
-0.948755
-0.925767
-0.897155
-0.863665
-0.826869
-0.788002
-0.749076
-0.711991
-0.677898
-0.647221
-0.620107
-0.596451
0.365394
0.0311668
-0.211134
-0.411988
-0.585497
-0.722846
-0.827963
-0.900967
-0.945727
-0.972883
-0.98887
-0.995207
-0.994169
-0.989396
-0.981692
-0.972252
-0.962753
-0.9525
-0.939716
-0.922928
-0.901529
-0.875865
-0.846214
-0.813849
-0.780349
-0.745924
-0.712832
-0.682245
-0.653905
-0.628041
-0.604856
0.491594
0.217577
-0.0203036
-0.222833
-0.401738
-0.548717
-0.664563
-0.752928
-0.819108
-0.867078
-0.900272
-0.921075
-0.932155
-0.936408
-0.936497
-0.933723
-0.928573
-0.921054
-0.910403
-0.895908
-0.877355
-0.854976
-0.829214
-0.800894
-0.771081
-0.740783
-0.711317
-0.683372
-0.657123
-0.632818
-0.610628
0.568366
0.330692
0.108907
-0.0876961
-0.262262
-0.412196
-0.536626
-0.63787
-0.718739
-0.780893
-0.827085
-0.859928
-0.881972
-0.895818
-0.903501
-0.906379
-0.904871
-0.899538
-0.890296
-0.877054
-0.86003
-0.839738
-0.816756
-0.791481
-0.764498
-0.737046
-0.710068
-0.683985
-0.659242
-0.636122
-0.614704
0.625613
0.413121
0.207495
0.0173001
-0.155666
-0.309232
-0.44136
-0.552169
-0.642861
-0.714938
-0.770465
-0.812008
-0.841797
-0.862093
-0.874747
-0.881385
-0.882531
-0.878914
-0.871087
-0.859394
-0.84417
-0.825866
-0.804981
-0.782013
-0.757614
-0.732645
-0.707759
-0.683423
-0.660044
-0.637869
0.669102
0.471274
0.274503
0.0873103
-0.0853346
-0.240688
-0.376747
-0.492728
-0.589458
-0.668289
-0.729986
-0.777244
-0.812152
-0.837141
-0.853605
-0.862916
-0.866147
-0.864072
-0.857493
-0.846929
-0.832822
-0.81567
-0.796029
-0.774497
-0.751688
-0.728225
-0.704677
-0.681511
-0.659078
-0.637613
0.696681
0.505271
0.312847
0.127047
-0.0462699
-0.203442
-0.342249
-0.46164
-0.561586
-0.643118
-0.708885
-0.760069
-0.798649
-0.825989
-0.844043
-0.854192
-0.858147
-0.856809
-0.85081
-0.840724
-0.827105
-0.810511
-0.791521
-0.770713
-0.748653
-0.725904
-0.703001
-0.680389
-0.658401
-0.637277
2.18757
2.18733
2.18757
2.18733
2.1867
2.18572
2.18444
2.1829
2.18112
2.17912
2.17692
2.17454
2.17201
2.16934
2.16655
2.16365
2.16066
2.15759
2.15444
2.15124
2.14797
2.14466
2.1413
2.1379
2.13447
2.13102
2.12754
2.12404
2.12052
2.117
2.11348
2.10995
2.10643
2.10292
2.09942
2.09594
2.09248
2.08905
2.08566
2.0823
2.07899
2.07572
2.0725
2.06934
2.06624
2.0632
2.06023
2.05733
2.0545
2.05174
2.04906
2.04646
2.04394
2.04151
2.03916
2.03689
2.03471
2.03262
2.03063
2.02873
2.02693
2.02523
2.02364
2.02217
2.02082
2.0196
2.01852
2.01759
2.01684
2.01628
2.01593
2.01581
2.01594
2.01639
2.0172
2.01841
2.02007
2.02226
2.02507
2.02859
2.03294
2.03826
2.04472
2.05252
2.0619
2.07315
2.08662
2.10273
2.12199
2.14501
2.17254
2.20547
2.24487
2.292
2.34832
2.41542
2.49493
2.58825
2.69598
2.81702
2.9469
3.07591
3.18645
3.25517
2.18791
2.18766
2.18702
2.18602
2.18472
2.18316
2.18135
2.17932
2.1771
2.1747
2.17214
2.16946
2.16665
2.16374
2.16074
2.15766
2.1545
2.15129
2.14801
2.14469
2.14133
2.13793
2.13449
2.13103
2.12755
2.12404
2.12052
2.117
2.11347
2.10994
2.10641
2.10289
2.09939
2.09591
2.09245
2.08901
2.08561
2.08225
2.07894
2.07567
2.07245
2.06928
2.06618
2.06314
2.06017
2.05726
2.05443
2.05168
2.049
2.0464
2.04388
2.04145
2.0391
2.03683
2.03466
2.03257
2.03058
2.02869
2.02689
2.02519
2.02361
2.02214
2.02079
2.01957
2.01849
2.01756
2.01681
2.01624
2.01588
2.01573
2.01586
2.0163
2.01708
2.01826
2.01988
2.02202
2.02477
2.0282
2.03245
2.03765
2.04395
2.05155
2.06068
2.07161
2.08468
2.10028
2.11888
2.14106
2.16751
2.19904
2.23665
2.28146
2.33478
2.39804
2.47266
2.55986
2.66012
2.77238
2.89263
3.01199
3.11433
3.17728
2.1886
2.18834
2.18768
2.18663
2.18528
2.18367
2.18181
2.17973
2.17745
2.17501
2.17242
2.16969
2.16686
2.16392
2.16089
2.15779
2.15462
2.15139
2.1481
2.14477
2.14139
2.13798
2.13453
2.13106
2.12756
2.12405
2.12052
2.11699
2.11345
2.10991
2.10637
2.10285
2.09934
2.09584
2.09237
2.08893
2.08552
2.08215
2.07883
2.07555
2.07233
2.06916
2.06605
2.063
2.06003
2.05712
2.05428
2.05153
2.04885
2.04625
2.04373
2.0413
2.03895
2.03668
2.03451
2.03243
2.03043
2.02854
2.02674
2.02504
2.02345
2.02197
2.02062
2.01939
2.01829
2.01735
2.01657
2.01597
2.01557
2.01539
2.01547
2.01584
2.01655
2.01763
2.01914
2.02115
2.02372
2.02696
2.03096
2.03584
2.04177
2.04891
2.05746
2.06769
2.07987
2.09435
2.11156
2.13197
2.15618
2.18486
2.21881
2.25892
2.3062
2.36168
2.42637
2.50097
2.58554
2.67878
2.777
2.87258
2.95118
2.99463
2.18966
2.18938
2.18867
2.18756
2.18613
2.18443
2.18249
2.18033
2.17798
2.17547
2.17282
2.17004
2.16716
2.16418
2.16112
2.15799
2.15479
2.15153
2.14822
2.14487
2.14148
2.13805
2.13459
2.1311
2.12759
2.12406
2.12052
2.11697
2.11342
2.10986
2.10631
2.10277
2.09925
2.09574
2.09225
2.0888
2.08538
2.082
2.07866
2.07537
2.07213
2.06895
2.06584
2.06278
2.0598
2.05689
2.05405
2.05129
2.0486
2.046
2.04348
2.04105
2.0387
2.03643
2.03426
2.03217
2.03018
2.02828
2.02648
2.02477
2.02317
2.02168
2.02031
2.01906
2.01794
2.01696
2.01614
2.01549
2.01502
2.01477
2.01477
2.01504
2.01562
2.01655
2.01788
2.01966
2.02197
2.02488
2.02849
2.03291
2.03826
2.0447
2.05239
2.06155
2.07241
2.08526
2.10042
2.11827
2.13923
2.16379
2.19248
2.22585
2.26446
2.30874
2.35894
2.4148
2.47519
2.53729
2.59565
2.63817
2.6455
2.55959
2.19111
2.1908
2.19002
2.18881
2.18726
2.18544
2.18339
2.18112
2.17868
2.17608
2.17334
2.1705
2.16755
2.16452
2.16142
2.15825
2.15501
2.15172
2.14839
2.14501
2.14159
2.13814
2.13466
2.13115
2.12763
2.12408
2.12052
2.11695
2.11338
2.10981
2.10624
2.10268
2.09913
2.0956
2.0921
2.08863
2.08519
2.08179
2.07843
2.07513
2.07188
2.06868
2.06555
2.06249
2.0595
2.05657
2.05373
2.05096
2.04827
2.04567
2.04315
2.04071
2.03836
2.03609
2.03392
2.03183
2.02983
2.02792
2.02611
2.0244
2.02278
2.02127
2.01987
2.01859
2.01743
2.01641
2.01553
2.01481
2.01426
2.01391
2.01379
2.01392
2.01432
2.01504
2.01612
2.01762
2.01957
2.02206
2.02516
2.02896
2.03357
2.03909
2.04568
2.05347
2.06266
2.07344
2.08603
2.10067
2.1176
2.13707
2.15929
2.18441
2.21238
2.2429
2.2751
2.30718
2.33578
2.3541
2.35243
2.30216
2.20219
1.72274
)
;

boundaryField
{
    inlet
    {
        type            zeroGradient;
    }
    outlet
    {
        type            fixedValue;
        value           nonuniform List<scalar> 0();
    }
    topWall
    {
        type            zeroGradient;
    }
    lowerWall
    {
        type            zeroGradient;
    }
    leadingEdge
    {
        type            zeroGradient;
    }
    trailingEdge
    {
        type            zeroGradient;
    }
    upperSurface
    {
        type            zeroGradient;
    }
    lowerSurface
    {
        type            zeroGradient;
    }
    frontAndBack
    {
        type            empty;
    }
    procBoundary4to0
    {
        type            processor;
        value           nonuniform List<scalar> 
103
(
2.18791
2.18766
2.1867
2.1867
2.18572
2.18444
2.1829
2.18112
2.17912
2.17692
2.17454
2.17201
2.16934
2.16655
2.16365
2.16066
2.15759
2.15444
2.15124
2.14797
2.14466
2.1413
2.1379
2.13447
2.13101
2.12753
2.12403
2.12052
2.117
2.11347
2.10995
2.10642
2.10291
2.09941
2.09593
2.09248
2.08905
2.08565
2.08229
2.07898
2.07571
2.07249
2.06933
2.06623
2.06319
2.06022
2.05731
2.05448
2.05172
2.04904
2.04644
2.04391
2.04147
2.03912
2.03685
2.03467
2.03257
2.03057
2.02867
2.02686
2.02516
2.02356
2.02207
2.02071
2.01948
2.01839
2.01745
2.01668
2.0161
2.01573
2.01559
2.0157
2.01612
2.0169
2.01807
2.0197
2.02185
2.02461
2.02808
2.03238
2.03764
2.04403
2.05176
2.06106
2.07221
2.08558
2.10158
2.12071
2.14359
2.17097
2.20372
2.24293
2.28985
2.34593
2.41276
2.49199
2.585
2.6924
2.81308
2.94263
3.0713
3.18154
3.25001
)
;
    }
    procBoundary4to5
    {
        type            processor;
        value           nonuniform List<scalar> 
11
(
-0.556228
-0.558698
-0.565247
-0.57595
-0.584247
-0.590493
-0.594955
-0.617005
-0.617005
-0.617258
-0.617172
)
;
    }
}


// ************************************************************************* //
