/*--------------------------------*- C++ -*----------------------------------*\
| =========                 |                                                 |
| \\      /  F ield         | OpenFOAM: The Open Source CFD Toolbox           |
|  \\    /   O peration     | Version:  2206                                  |
|   \\  /    A nd           | Website:  www.openfoam.com                      |
|    \\/     M anipulation  |                                                 |
\*---------------------------------------------------------------------------*/
FoamFile
{
    version     2.0;
    format      ascii;
    arch        "LSB;label=32;scalar=64";
    class       volVectorField;
    location    "18.9999";
    object      ddt0(U);
}
// * * * * * * * * * * * * * * * * * * * * * * * * * * * * * * * * * * * * * //

dimensions      [0 1 -2 0 0 0 0];

internalField   nonuniform List<vector> 
3087
(
(-1.50366e-05 0.00217381 0)
(-7.97019e-05 0.00681687 0)
(-0.00023418 0.01182 0)
(-0.00048437 0.017125 0)
(-0.000830206 0.0226943 0)
(-0.00127544 0.0284851 0)
(-0.00182558 0.0344463 0)
(-0.00248497 0.0405297 0)
(-0.00325599 0.0466843 0)
(-0.00414146 0.0528607 0)
(-0.00513985 0.0590064 0)
(-0.00625166 0.0650712 0)
(-0.0074753 0.0710083 0)
(-0.00880928 0.0767801 0)
(-0.0102509 0.082358 0)
(-0.0117955 0.0877224 0)
(-0.0134391 0.0928662 0)
(-0.0151797 0.0977865 0)
(-0.0170139 0.102492 0)
(-0.0189384 0.106996 0)
(-0.0209495 0.11132 0)
(-0.0230446 0.115491 0)
(-0.0252203 0.119543 0)
(-0.0274756 0.123514 0)
(-0.0298071 0.127449 0)
(-0.0322168 0.131394 0)
(-0.0346936 0.135403 0)
(-0.0372824 0.139537 0)
(-0.0398326 0.143842 0)
(-0.0426968 0.148401 0)
(-0.045335 0.153281 0)
(-0.0483998 0.158561 0)
(-0.0512285 0.164311 0)
(-0.0544443 0.170611 0)
(-0.0575657 0.177568 0)
(-0.060908 0.18523 0)
(-0.0644304 0.193766 0)
(-0.0679164 0.203158 0)
(-0.0719024 0.213662 0)
(-0.0756292 0.22518 0)
(-0.0801021 0.238039 0)
(-0.0842171 0.252085 0)
(-0.0891962 0.26769 0)
(-0.0938862 0.284661 0)
(-0.0993861 0.30337 0)
(-0.104908 0.323698 0)
(-0.110917 0.345846 0)
(-0.117438 0.369927 0)
(-0.12428 0.39596 0)
(-0.131698 0.424063 0)
(-0.139755 0.454421 0)
(-0.148343 0.486952 0)
(-0.157757 0.521914 0)
(-0.167666 0.559074 0)
(-0.178788 0.599184 0)
(-0.190135 0.641219 0)
(-0.202681 0.68702 0)
(-0.215598 0.736511 0)
(-0.22924 0.788418 0)
(-0.244374 0.843832 0)
(-0.260774 0.902905 0)
(-0.278313 0.965672 0)
(-0.297103 1.03235 0)
(-0.317295 1.10317 0)
(-0.339006 1.17843 0)
(-0.362347 1.25837 0)
(-0.387448 1.34334 0)
(-0.414456 1.43365 0)
(-0.443534 1.52967 0)
(-0.474846 1.63178 0)
(-0.508601 1.74042 0)
(-0.545038 1.85607 0)
(-0.584393 1.97928 0)
(-0.626966 2.11063 0)
(-0.673088 2.2508 0)
(-0.72314 2.40051 0)
(-0.777562 2.56059 0)
(-0.836866 2.73192 0)
(-0.901645 2.91556 0)
(-0.972594 3.11261 0)
(-1.05051 3.32439 0)
(-1.13636 3.55234 0)
(-1.23123 3.79817 0)
(-1.33638 4.0637 0)
(-1.45334 4.35116 0)
(-1.58388 4.66313 0)
(-1.73007 5.00265 0)
(-1.89428 5.37327 0)
(-2.0792 5.7794 0)
(-2.28784 6.22644 0)
(-2.52331 6.72134 0)
(-2.78878 7.2732 0)
(-3.08617 7.89439 0)
(-3.41649 8.60274 0)
(-3.77601 9.42587 0)
(-4.14184 10.3901 0)
(-4.49155 11.5901 0)
(-4.73596 13.2073 0)
(-4.88508 15.4743 0)
(-0.852606 20.7218 0)
(-1.09414e-05 0.00220681 0)
(-6.03566e-05 0.00692499 0)
(-0.000180376 0.0120049 0)
(-0.000376558 0.0173935 0)
(-0.00064766 0.0230513 0)
(-0.000996692 0.0289338 0)
(-0.00142721 0.0349899 0)
(-0.00194277 0.0411708 0)
(-0.00254618 0.0474245 0)
(-0.00323806 0.0537016 0)
(-0.0040186 0.0599485 0)
(-0.0048875 0.0661135 0)
(-0.00584394 0.0721507 0)
(-0.00688638 0.0780193 0)
(-0.00801423 0.0836917 0)
(-0.00922169 0.0891484 0)
(-0.0105075 0.0943801 0)
(-0.0118686 0.0993855 0)
(-0.0133034 0.104172 0)
(-0.0148083 0.108756 0)
(-0.0163816 0.113155 0)
(-0.0180197 0.1174 0)
(-0.0197216 0.121523 0)
(-0.0214847 0.125564 0)
(-0.0233073 0.129566 0)
(-0.0251916 0.133579 0)
(-0.0271217 0.137655 0)
(-0.0291643 0.141856 0)
(-0.0310978 0.146233 0)
(-0.0334398 0.150871 0)
(-0.0353689 0.155829 0)
(-0.0379065 0.16119 0)
(-0.0399742 0.167024 0)
(-0.042629 0.173423 0)
(-0.0449442 0.180482 0)
(-0.0476375 0.188262 0)
(-0.0503652 0.196932 0)
(-0.0530286 0.206458 0)
(-0.0562858 0.217143 0)
(-0.0589731 0.228807 0)
(-0.0627383 0.241901 0)
(-0.0656599 0.256129 0)
(-0.0698262 0.272006 0)
(-0.0732244 0.28921 0)
(-0.0777839 0.308262 0)
(-0.0817943 0.328845 0)
(-0.086749 0.351434 0)
(-0.0916493 0.375866 0)
(-0.0969743 0.402313 0)
(-0.10284 0.43098 0)
(-0.109036 0.461828 0)
(-0.115656 0.494944 0)
(-0.123118 0.530603 0)
(-0.130918 0.568558 0)
(-0.139676 0.609202 0)
(-0.149006 0.6524 0)
(-0.158684 0.697757 0)
(-0.169217 0.748394 0)
(-0.17975 0.801507 0)
(-0.191422 0.857996 0)
(-0.204208 0.918045 0)
(-0.217942 0.981853 0)
(-0.232653 1.04972 0)
(-0.248462 1.12187 0)
(-0.265475 1.19856 0)
(-0.283773 1.28006 0)
(-0.303452 1.36668 0)
(-0.324631 1.45876 0)
(-0.347431 1.55669 0)
(-0.371996 1.66088 0)
(-0.398506 1.77179 0)
(-0.427136 1.88994 0)
(-0.458081 2.01592 0)
(-0.49157 2.15032 0)
(-0.527869 2.29388 0)
(-0.567286 2.44733 0)
(-0.610176 2.61157 0)
(-0.656951 2.78757 0)
(-0.708098 2.97645 0)
(-0.76417 3.17941 0)
(-0.825803 3.3979 0)
(-0.893754 3.63349 0)
(-0.968843 3.88795 0)
(-1.05213 4.1634 0)
(-1.14479 4.46229 0)
(-1.24819 4.78732 0)
(-1.3639 5.14179 0)
(-1.49365 5.52948 0)
(-1.63932 5.95498 0)
(-1.8027 6.42367 0)
(-1.98533 6.94217 0)
(-2.18792 7.51848 0)
(-2.40896 8.16251 0)
(-2.6452 8.88846 0)
(-2.87877 9.70639 0)
(-3.0956 10.6464 0)
(-3.23432 11.7441 0)
(-3.23591 13.0287 0)
(-2.63455 14.4882 0)
(-1.28188 15.4426 0)
(-7.49639e-06 0.00222962 0)
(-4.1882e-05 0.00700529 0)
(-0.00012745 0.0121435 0)
(-0.00026873 0.0175933 0)
(-0.000463326 0.0233177 0)
(-0.000713576 0.0292682 0)
(-0.00102192 0.035397 0)
(-0.0013917 0.0416502 0)
(-0.00182423 0.0479804 0)
(-0.00232042 0.0543324 0)
(-0.0028804 0.0606562 0)
(-0.00350278 0.0668973 0)
(-0.00418812 0.0730089 0)
(-0.00493619 0.0789507 0)
(-0.00574445 0.0846942 0)
(-0.00661086 0.0902206 0)
(-0.00753307 0.0955188 0)
(-0.00851025 0.10059 0)
(-0.00953926 0.105439 0)
(-0.0106198 0.110082 0)
(-0.0117488 0.114539 0)
(-0.0129245 0.11884 0)
(-0.0141451 0.123016 0)
(-0.0154099 0.127109 0)
(-0.0167157 0.131161 0)
(-0.0180674 0.135224 0)
(-0.0194457 0.139351 0)
(-0.0209239 0.143599 0)
(-0.0222637 0.148036 0)
(-0.0240214 0.152729 0)
(-0.0253126 0.157746 0)
(-0.0272124 0.163167 0)
(-0.0286172 0.169069 0)
(-0.0305909 0.17554 0)
(-0.0321816 0.182675 0)
(-0.0341734 0.190549 0)
(-0.0360763 0.199305 0)
(-0.0380084 0.20895 0)
(-0.0403623 0.219745 0)
(-0.0421953 0.231545 0)
(-0.04506 0.244796 0)
(-0.0469096 0.259165 0)
(-0.0501655 0.275247 0)
(-0.0523339 0.292635 0)
(-0.0558139 0.311911 0)
(-0.058469 0.332731 0)
(-0.0622543 0.355619 0)
(-0.0654149 0.380256 0)
(-0.0695285 0.407114 0)
(-0.0734864 0.4361 0)
(-0.0778422 0.467284 0)
(-0.0826499 0.501001 0)
(-0.0877666 0.537092 0)
(-0.0935205 0.57588 0)
(-0.0995745 0.616857 0)
(-0.106998 0.661089 0)
(-0.114079 0.706474 0)
(-0.122289 0.757483 0)
(-0.129527 0.810978 0)
(-0.137694 0.868381 0)
(-0.146823 0.92942 0)
(-0.156649 0.994102 0)
(-0.167177 1.06284 0)
(-0.178531 1.13597 0)
(-0.19076 1.21372 0)
(-0.203896 1.29635 0)
(-0.218015 1.38421 0)
(-0.233217 1.47764 0)
(-0.249595 1.57705 0)
(-0.267262 1.68286 0)
(-0.286333 1.79553 0)
(-0.306934 1.91562 0)
(-0.329213 2.04368 0)
(-0.353321 2.18039 0)
(-0.379465 2.32647 0)
(-0.407882 2.48276 0)
(-0.43883 2.65016 0)
(-0.47261 2.82974 0)
(-0.509567 3.02264 0)
(-0.550079 3.23014 0)
(-0.594573 3.45372 0)
(-0.643589 3.6951 0)
(-0.697783 3.95615 0)
(-0.757936 4.23916 0)
(-0.824924 4.54663 0)
(-0.899743 4.88156 0)
(-0.983488 5.24727 0)
(-1.07729 5.64771 0)
(-1.18226 6.0873 0)
(-1.29933 6.57124 0)
(-1.429 7.10541 0)
(-1.57069 7.69634 0)
(-1.72235 8.35177 0)
(-1.87687 9.0779 0)
(-2.02167 9.88086 0)
(-2.13773 10.7747 0)
(-2.18034 11.7557 0)
(-2.0429 12.8011 0)
(-1.65065 13.8106 0)
(-0.62763 16.7248 0)
(-4.14334e-06 0.0022435 0)
(-2.39525e-05 0.00705912 0)
(-7.55743e-05 0.012235 0)
(-0.000160294 0.0177271 0)
(-0.00027772 0.0234952 0)
(-0.000427825 0.0294929 0)
(-0.000613156 0.0356686 0)
(-0.000834881 0.041972 0)
(-0.00109502 0.0483513 0)
(-0.00139337 0.0547556 0)
(-0.00172846 0.0611308 0)
(-0.00210229 0.067423 0)
(-0.00251385 0.0735842 0)
(-0.00296286 0.0795747 0)
(-0.00344894 0.085366 0)
(-0.00397063 0.0909381 0)
(-0.00452708 0.0962822 0)
(-0.00511615 0.101396 0)
(-0.00573827 0.106288 0)
(-0.00639097 0.11097 0)
(-0.00707242 0.115466 0)
(-0.00778096 0.119803 0)
(-0.00851588 0.124015 0)
(-0.0092763 0.128141 0)
(-0.0100608 0.132229 0)
(-0.0108726 0.136324 0)
(-0.0116993 0.140485 0)
(-0.0125885 0.144762 0)
(-0.0133915 0.149242 0)
(-0.0144369 0.15397 0)
(-0.0152408 0.159029 0)
(-0.016327 0.164484 0)
(-0.0172382 0.170437 0)
(-0.0183506 0.176951 0)
(-0.0193555 0.184141 0)
(-0.0205407 0.192076 0)
(-0.0216289 0.200885 0)
(-0.0229148 0.210626 0)
(-0.0241373 0.221461 0)
(-0.0254572 0.233398 0)
(-0.0269814 0.246695 0)
(-0.0281988 0.261215 0)
(-0.0301664 0.277393 0)
(-0.0313285 0.294917 0)
(-0.0336184 0.314346 0)
(-0.0349971 0.335323 0)
(-0.037423 0.358366 0)
(-0.0391425 0.383196 0)
(-0.0417947 0.4103 0)
(-0.0438463 0.439408 0)
(-0.0465834 0.470913 0)
(-0.0493662 0.504899 0)
(-0.0520441 0.541284 0)
(-0.0555724 0.580589 0)
(-0.0587357 0.622285 0)
(-0.0638223 0.667271 0)
(-0.0684571 0.71325 0)
(-0.0750606 0.763606 0)
(-0.0789877 0.81729 0)
(-0.0831923 0.874784 0)
(-0.0888664 0.936739 0)
(-0.0950002 1.00232 0)
(-0.101228 1.07176 0)
(-0.107885 1.14551 0)
(-0.11515 1.22391 0)
(-0.123014 1.30729 0)
(-0.131491 1.39596 0)
(-0.140631 1.49029 0)
(-0.150503 1.59067 0)
(-0.161156 1.69754 0)
(-0.172647 1.81139 0)
(-0.185061 1.93277 0)
(-0.198475 2.06227 0)
(-0.213002 2.20053 0)
(-0.22877 2.34835 0)
(-0.245926 2.50658 0)
(-0.264605 2.67615 0)
(-0.284952 2.85813 0)
(-0.307168 3.05371 0)
(-0.331484 3.26417 0)
(-0.358154 3.49113 0)
(-0.387568 3.73638 0)
(-0.42022 4.00192 0)
(-0.456618 4.29007 0)
(-0.49729 4.60347 0)
(-0.542793 4.94511 0)
(-0.593695 5.31837 0)
(-0.650577 5.72709 0)
(-0.713946 6.17569 0)
(-0.784163 6.66897 0)
(-0.861239 7.21216 0)
(-0.944562 7.8108 0)
(-1.03218 8.46957 0)
(-1.11952 9.19168 0)
(-1.20029 9.98372 0)
(-1.25788 10.8385 0)
(-1.2641 11.7379 0)
(-1.17168 12.643 0)
(-1.00825 13.5127 0)
(-0.450797 12.9585 0)
(-0.000358776 0.0485379 0)
(-0.000456 0.0549669 0)
(-0.000567337 0.061367 0)
(-0.000690894 0.0676845 0)
(-0.000827052 0.073871 0)
(-0.000976032 0.0798869 0)
(-0.00113789 0.0857029 0)
(-0.00131232 0.0912997 0)
(-0.00149913 0.0966669 0)
(-0.00169859 0.101803 0)
(-0.00190897 0.106715 0)
(-0.00212979 0.111418 0)
(-0.00235936 0.115931 0)
(-0.00259715 0.120286 0)
(-0.00284264 0.124514 0)
(-0.00309614 0.128657 0)
(-0.00335656 0.13276 0)
(-0.00362586 0.136871 0)
(-0.00389994 0.141048 0)
(-0.00419343 0.145341 0)
(-0.00446642 0.149841 0)
(-0.0047894 0.154587 0)
(-0.0050965 0.159667 0)
(-0.00539673 0.165141 0)
(-0.00576463 0.171117 0)
(-0.00606326 0.177654 0)
(-0.00644712 0.184872 0)
(-0.00681046 0.192836 0)
(-0.00715718 0.201675 0)
(-0.00764488 0.211458 0)
(-0.00793176 0.22232 0)
(-0.0085349 0.234326 0)
(-0.00883908 0.247634 0)
(-0.00942716 0.262254 0)
(-0.00995456 0.278445 0)
(-0.0103383 0.296065 0)
(-0.0112227 0.315551 0)
(-0.0114342 0.336591 0)
(-0.0124889 0.359723 0)
(-0.0128131 0.384638 0)
(-0.0138209 0.411816 0)
(-0.0143101 0.440988 0)
(-0.0152878 0.472666 0)
(-0.0160001 0.506608 0)
(-0.0165698 0.543209 0)
(-0.0176897 0.58252 0)
(-0.0177244 0.624836 0)
(-0.0189835 0.670019 0)
(-0.0197733 0.71763 0)
(-0.0273922 0.765759 0)
(-0.0298187 0.822518 0)
(-0.0289614 0.879513 0)
(-0.0300976 0.940489 0)
(-0.0325072 1.00584 0)
(-0.03477 1.07566 0)
(-0.0369578 1.14991 0)
(-0.0392653 1.2288 0)
(-0.0417745 1.31265 0)
(-0.0445211 1.40181 0)
(-0.0475118 1.49666 0)
(-0.0507418 1.59759 0)
(-0.0542144 1.705 0)
(-0.0579533 1.81941 0)
(-0.0620166 1.94139 0)
(-0.0665032 2.07158 0)
(-0.0713922 2.21053 0)
(-0.0766576 2.35923 0)
(-0.0823095 2.51843 0)
(-0.0883361 2.68902 0)
(-0.0948032 2.87209 0)
(-0.101913 3.06904 0)
(-0.109761 3.28086 0)
(-0.118457 3.50942 0)
(-0.128306 3.75671 0)
(-0.139439 4.02466 0)
(-0.15192 4.31552 0)
(-0.165882 4.63189 0)
(-0.181459 4.97676 0)
(-0.198767 5.35353 0)
(-0.217884 5.76594 0)
(-0.238953 6.21822 0)
(-0.262113 6.71509 0)
(-0.2873 7.26138 0)
(-0.314226 7.86192 0)
(-0.342314 8.5211 0)
(-0.370672 9.24158 0)
(-0.39642 10.0216 0)
(-0.413773 10.8539 0)
(-0.411172 11.7172 0)
(-0.374204 12.5633 0)
(-0.243824 13.3463 0)
(-0.0315708 13.6292 0)
(-0.000118042 7.36386e-05 0)
(-0.000504379 0.000299738 0)
(-0.00135192 0.000396329 0)
(-0.00264265 0.000621522 0)
(-0.0042546 0.000831499 0)
(-0.00628369 0.00108378 0)
(-0.0088043 0.00132356 0)
(-0.0118737 0.00157516 0)
(-0.0154565 0.00184637 0)
(-0.0195202 0.00210642 0)
(-0.0240174 0.00233883 0)
(-0.0288943 0.00255359 0)
(-0.0341441 0.00280513 0)
(-0.0398058 0.00305671 0)
(-0.045877 0.00325575 0)
(-0.0522913 0.00338234 0)
(-0.0590324 0.00352549 0)
(-0.0660659 0.00365754 0)
(-0.0732707 0.00367576 0)
(-0.0805281 0.00360242 0)
(-0.087734 0.00345367 0)
(-0.0948918 0.00333992 0)
(-0.101882 0.00311917 0)
(-0.108595 0.00281817 0)
(-0.115099 0.00254128 0)
(-0.12112 0.00252398 0)
(-0.128211 0.00230324 0)
(-0.13307 0.00195386 0)
(-0.138402 0.00174903 0)
(-0.143821 0.00173432 0)
(-0.149311 0.00189188 0)
(-0.15512 0.00225334 0)
(-0.161478 0.00284066 0)
(-0.168652 0.00364021 0)
(-0.176842 0.00462846 0)
(-0.186339 0.00578865 0)
(-0.1973 0.00697533 0)
(-0.209956 0.00803632 0)
(-0.224101 0.0090374 0)
(-0.239914 0.00998164 0)
(-0.257329 0.0109701 0)
(-0.276303 0.011753 0)
(-0.296932 0.0123473 0)
(-0.318544 0.0128508 0)
(-0.341407 0.0131353 0)
(-0.365417 0.0133209 0)
(-0.390347 0.0135089 0)
(-0.416507 0.0138799 0)
(-0.443746 0.0145642 0)
(-0.472696 0.0154022 0)
(-0.503225 0.0165572 0)
(-0.535754 0.0178734 0)
(-0.570672 0.0183071 0)
(-0.60671 0.0200175 0)
(-0.647249 0.0215784 0)
(-0.687447 0.0236751 0)
(-0.736117 0.0262783 0)
(-0.784717 0.0288171 0)
(-0.835721 0.0318415 0)
(-0.90425 0.0287909 0)
(-0.953288 0.033602 0)
(-1.02406 0.0457806 0)
(-1.0947 0.0368542 0)
(-1.16296 0.0341522 0)
(-1.23095 0.0361111 0)
(-1.30749 0.0394289 0)
(-1.38635 0.045646 0)
(-1.47278 0.047454 0)
(-1.56588 0.0470255 0)
(-1.66462 0.0514208 0)
(-1.76885 0.0561002 0)
(-1.87916 0.0602144 0)
(-1.99638 0.0655305 0)
(-2.12038 0.068959 0)
(-2.25105 0.0720013 0)
(-2.38823 0.0748546 0)
(-2.53167 0.0774415 0)
(-2.681 0.0797067 0)
(-2.83587 0.0817056 0)
(-2.99573 0.0833718 0)
(-3.16007 0.0850008 0)
(-3.32947 0.0874147 0)
(-3.50512 0.0904543 0)
(-3.68709 0.0930568 0)
(-3.8741 0.0947646 0)
(-4.06479 0.0958675 0)
(-4.25811 0.0964691 0)
(-4.45323 0.0963807 0)
(-4.64912 0.0948132 0)
(-4.84336 0.0911621 0)
(-5.03116 0.0862639 0)
(-5.21398 0.0806498 0)
(-5.36671 0.0785859 0)
(-5.56686 0.0745183 0)
(-5.69516 0.060486 0)
(-5.80945 0.0428249 0)
(-5.90714 0.026278 0)
(-5.9811 0.0121088 0)
(-6.02042 -0.00253849 0)
(-6.03056 -0.0195822 0)
(2.09256e-05 0.000467478 0)
(-0.000434375 0.000713374 0)
(-0.000766417 0.00222212 0)
(-0.00258977 0.0021047 0)
(-0.00414039 0.00301968 0)
(-0.00611261 0.00333576 0)
(-0.00845164 0.0043403 0)
(-0.0111883 0.0049951 0)
(-0.014378 0.00571168 0)
(-0.018033 0.0063604 0)
(-0.0220122 0.00688066 0)
(-0.0263147 0.00731572 0)
(-0.0309557 0.00792115 0)
(-0.0360623 0.00857664 0)
(-0.0416121 0.00916053 0)
(-0.0474609 0.00965361 0)
(-0.0536644 0.0100135 0)
(-0.0603503 0.0104082 0)
(-0.0673906 0.0106996 0)
(-0.074622 0.0108331 0)
(-0.0819351 0.0108212 0)
(-0.0894813 0.0106977 0)
(-0.0972427 0.010514 0)
(-0.105042 0.0103407 0)
(-0.112745 0.0100145 0)
(-0.120703 0.00955454 0)
(-0.128729 0.00915458 0)
(-0.136616 0.00894756 0)
(-0.144659 0.00895424 0)
(-0.15294 0.00912063 0)
(-0.161424 0.00943261 0)
(-0.170135 0.00995473 0)
(-0.179149 0.0107379 0)
(-0.188544 0.0117978 0)
(-0.198379 0.0131487 0)
(-0.208825 0.0149449 0)
(-0.22007 0.0170466 0)
(-0.232091 0.0191248 0)
(-0.244897 0.0212118 0)
(-0.258518 0.023371 0)
(-0.273469 0.0255954 0)
(-0.288686 0.0278973 0)
(-0.306601 0.0301575 0)
(-0.324423 0.0317703 0)
(-0.344806 0.0337962 0)
(-0.36607 0.0358365 0)
(-0.389172 0.0378154 0)
(-0.413537 0.0399821 0)
(-0.440054 0.0423216 0)
(-0.46768 0.0449681 0)
(-0.498831 0.0476546 0)
(-0.530045 0.0509228 0)
(-0.565945 0.0540997 0)
(-0.601854 0.0579511 0)
(-0.643012 0.0616447 0)
(-0.683723 0.0658567 0)
(-0.727685 0.0703313 0)
(-0.779229 0.0743425 0)
(-0.829981 0.0804721 0)
(-0.889004 0.085406 0)
(-0.940534 0.0920435 0)
(-1.0089 0.0959515 0)
(-1.06247 0.105578 0)
(-1.13819 0.110936 0)
(-1.21162 0.115109 0)
(-1.30043 0.12391 0)
(-1.38716 0.115754 0)
(-1.47176 0.137503 0)
(-1.56893 0.148236 0)
(-1.6719 0.155811 0)
(-1.78004 0.163382 0)
(-1.89389 0.171795 0)
(-2.01367 0.180944 0)
(-2.13934 0.19064 0)
(-2.27132 0.200572 0)
(-2.40993 0.210392 0)
(-2.55524 0.219825 0)
(-2.70711 0.228729 0)
(-2.8656 0.237182 0)
(-3.03029 0.244788 0)
(-3.19995 0.252255 0)
(-3.37519 0.261295 0)
(-3.55806 0.271037 0)
(-3.74787 0.279355 0)
(-3.9432 0.285704 0)
(-4.1431 0.290688 0)
(-4.34724 0.294383 0)
(-4.55508 0.297685 0)
(-4.76762 0.297742 0)
(-4.97931 0.291895 0)
(-5.18756 0.279929 0)
(-5.38447 0.264113 0)
(-5.57047 0.251466 0)
(-5.74532 0.235523 0)
(-5.9099 0.207301 0)
(-6.06503 0.171845 0)
(-6.20342 0.134522 0)
(-6.32595 0.0951522 0)
(-6.40448 0.0528254 0)
(-6.47333 0.00965575 0)
(-5.70316e-05 0.000401742 0)
(-0.000236298 0.00144613 0)
(-0.000792938 0.00252152 0)
(-0.00161314 0.00326127 0)
(-0.00272596 0.00433068 0)
(-0.00455242 0.00532225 0)
(-0.00659088 0.00652172 0)
(-0.00943381 0.0075567 0)
(-0.0120254 0.00885077 0)
(-0.0158797 0.00996457 0)
(-0.0184183 0.0110112 0)
(-0.0235203 0.0119847 0)
(-0.0281924 0.0129091 0)
(-0.0331002 0.0137762 0)
(-0.038364 0.0145593 0)
(-0.0439154 0.0150176 0)
(-0.0496253 0.0167361 0)
(-0.0556334 0.0173079 0)
(-0.0621312 0.0175785 0)
(-0.0686869 0.0179173 0)
(-0.0755066 0.0179726 0)
(-0.0826093 0.0192076 0)
(-0.089837 0.0184489 0)
(-0.0975982 0.0184769 0)
(-0.105865 0.0184156 0)
(-0.114241 0.0200927 0)
(-0.122467 0.0177567 0)
(-0.131014 0.0176421 0)
(-0.140129 0.0179091 0)
(-0.149729 0.0183027 0)
(-0.159663 0.0189314 0)
(-0.169866 0.0198256 0)
(-0.180363 0.0210216 0)
(-0.191164 0.022503 0)
(-0.202123 0.0242807 0)
(-0.213448 0.0263317 0)
(-0.225594 0.0288075 0)
(-0.238406 0.0316017 0)
(-0.251592 0.034534 0)
(-0.265294 0.0375628 0)
(-0.279743 0.0406692 0)
(-0.295086 0.0439069 0)
(-0.311425 0.0472222 0)
(-0.328984 0.050628 0)
(-0.348059 0.0538947 0)
(-0.368479 0.0569104 0)
(-0.390159 0.0600666 0)
(-0.413312 0.0637005 0)
(-0.438277 0.0678067 0)
(-0.465197 0.0723311 0)
(-0.494166 0.0772063 0)
(-0.525277 0.0824643 0)
(-0.558706 0.0880358 0)
(-0.594598 0.0939971 0)
(-0.633102 0.100415 0)
(-0.674131 0.104617 0)
(-0.718442 0.122008 0)
(-0.765463 0.131937 0)
(-0.815843 0.139195 0)
(-0.868097 0.14687 0)
(-0.928265 0.151551 0)
(-0.98632 0.16328 0)
(-1.05489 0.16954 0)
(-1.12383 0.183391 0)
(-1.19651 0.186631 0)
(-1.26779 0.200298 0)
(-1.35056 0.214124 0)
(-1.44286 0.227345 0)
(-1.53863 0.241238 0)
(-1.63811 0.256071 0)
(-1.74353 0.271432 0)
(-1.85575 0.28713 0)
(-1.97452 0.303257 0)
(-2.09975 0.319732 0)
(-2.23173 0.336317 0)
(-2.37069 0.352953 0)
(-2.51719 0.36924 0)
(-2.67075 0.385115 0)
(-2.83282 0.400501 0)
(-3.0017 0.412107 0)
(-3.17317 0.424178 0)
(-3.35117 0.442268 0)
(-3.53985 0.460671 0)
(-3.73744 0.475248 0)
(-3.94267 0.48712 0)
(-4.15481 0.497661 0)
(-4.37235 0.506186 0)
(-4.59939 0.515755 0)
(-4.82481 0.519513 0)
(-5.05272 0.513137 0)
(-5.27309 0.494467 0)
(-5.49337 0.46853 0)
(-5.71638 0.447986 0)
(-5.93873 0.424394 0)
(-6.15357 0.389083 0)
(-6.35486 0.342662 0)
(-6.5383 0.288407 0)
(-6.69919 0.226231 0)
(-6.83545 0.157115 0)
(-6.9385 0.0857017 0)
(-5.44313e-05 0.000550264 0)
(-0.00028237 0.00179943 0)
(-0.000739532 0.00320467 0)
(-0.00164581 0.00453224 0)
(-0.00286597 0.00593695 0)
(-0.00449298 0.00733231 0)
(-0.00638568 0.00886232 0)
(-0.00875147 0.010316 0)
(-0.0114184 0.0121091 0)
(-0.014332 0.0125789 0)
(-0.0178742 0.0141313 0)
(-0.0219263 0.0157884 0)
(-0.0259732 0.017521 0)
(-0.0304301 0.0189353 0)
(-0.0353443 0.0201397 0)
(-0.0406828 0.0214373 0)
(-0.046481 0.0217167 0)
(-0.0521682 0.0240099 0)
(-0.0582656 0.0243986 0)
(-0.0648735 0.0245993 0)
(-0.0717097 0.024959 0)
(-0.0792338 0.0248599 0)
(-0.0856 0.025517 0)
(-0.0958831 0.0257038 0)
(-0.0990172 0.0262062 0)
(-0.109545 0.0264343 0)
(-0.119719 0.0266891 0)
(-0.129502 0.0272393 0)
(-0.139782 0.0278865 0)
(-0.150352 0.0287577 0)
(-0.161049 0.0294039 0)
(-0.171905 0.0304915 0)
(-0.182939 0.031892 0)
(-0.194235 0.0335454 0)
(-0.20568 0.0351793 0)
(-0.218063 0.0394978 0)
(-0.229617 0.0431947 0)
(-0.24198 0.045166 0)
(-0.254706 0.0482849 0)
(-0.268032 0.0518869 0)
(-0.282004 0.0557128 0)
(-0.296755 0.0597986 0)
(-0.312347 0.0639673 0)
(-0.329343 0.0689011 0)
(-0.348339 0.0740656 0)
(-0.368016 0.0781268 0)
(-0.388204 0.0823245 0)
(-0.409874 0.0875226 0)
(-0.433676 0.0935841 0)
(-0.459599 0.100228 0)
(-0.487555 0.107431 0)
(-0.517612 0.115157 0)
(-0.549908 0.123408 0)
(-0.584647 0.132246 0)
(-0.621953 0.141735 0)
(-0.662731 0.151799 0)
(-0.706612 0.162448 0)
(-0.751847 0.173273 0)
(-0.799381 0.184689 0)
(-0.850693 0.196759 0)
(-0.906191 0.209077 0)
(-0.965223 0.222972 0)
(-1.02821 0.236911 0)
(-1.0978 0.248701 0)
(-1.16876 0.265127 0)
(-1.24228 0.283388 0)
(-1.32261 0.301127 0)
(-1.40885 0.32006 0)
(-1.49939 0.340177 0)
(-1.59498 0.360727 0)
(-1.69669 0.381505 0)
(-1.80477 0.402873 0)
(-1.9192 0.425032 0)
(-2.04028 0.448019 0)
(-2.16821 0.471435 0)
(-2.30386 0.495717 0)
(-2.44708 0.519716 0)
(-2.59871 0.544147 0)
(-2.76132 0.570498 0)
(-2.92583 0.583601 0)
(-3.09649 0.595776 0)
(-3.28291 0.626692 0)
(-3.48461 0.659154 0)
(-3.69596 0.68361 0)
(-3.91299 0.703558 0)
(-4.13676 0.721117 0)
(-4.36298 0.735561 0)
(-4.60934 0.745001 0)
(-4.79792 0.748271 0)
(-5.06842 0.745263 0)
(-5.27956 0.736348 0)
(-5.60702 0.721526 0)
(-5.85706 0.698155 0)
(-6.0971 0.66288 0)
(-6.33141 0.613758 0)
(-6.55171 0.550758 0)
(-6.75297 0.47477 0)
(-6.93136 0.386653 0)
(-7.08156 0.287741 0)
(-7.20058 0.180588 0)
(-4.79576e-05 0.000690639 0)
(-0.000288527 0.00217786 0)
(-0.000735088 0.0039333 0)
(-0.00167321 0.00552038 0)
(-0.00285409 0.00726616 0)
(-0.00447298 0.00900445 0)
(-0.00634607 0.0108922 0)
(-0.00866823 0.0127517 0)
(-0.0112831 0.0146441 0)
(-0.014186 0.0165401 0)
(-0.0177037 0.0184035 0)
(-0.0214652 0.0202583 0)
(-0.0256048 0.0219188 0)
(-0.0299817 0.0234535 0)
(-0.0348827 0.0248524 0)
(-0.0399031 0.0262824 0)
(-0.0454065 0.0275749 0)
(-0.0512474 0.0288619 0)
(-0.0571197 0.0300495 0)
(-0.0632516 0.0311452 0)
(-0.0699814 0.0320855 0)
(-0.0769598 0.033162 0)
(-0.0844409 0.0338952 0)
(-0.0921945 0.0341982 0)
(-0.100786 0.0345071 0)
(-0.109271 0.0357282 0)
(-0.117667 0.0368916 0)
(-0.126523 0.0377278 0)
(-0.135838 0.0385061 0)
(-0.145806 0.0394293 0)
(-0.156247 0.040584 0)
(-0.166407 0.0419362 0)
(-0.178348 0.0437494 0)
(-0.188595 0.0455677 0)
(-0.201976 0.0482443 0)
(-0.212501 0.0505397 0)
(-0.226551 0.0540193 0)
(-0.237562 0.0569586 0)
(-0.251607 0.0611303 0)
(-0.265132 0.0651503 0)
(-0.279089 0.0696293 0)
(-0.294852 0.0748547 0)
(-0.308856 0.0795807 0)
(-0.329718 0.0867661 0)
(-0.337765 0.0914946 0)
(-0.359591 0.097611 0)
(-0.383298 0.104381 0)
(-0.406767 0.111654 0)
(-0.431854 0.119428 0)
(-0.458698 0.127721 0)
(-0.487106 0.136673 0)
(-0.51722 0.146304 0)
(-0.549225 0.156504 0)
(-0.583165 0.167276 0)
(-0.619373 0.179151 0)
(-0.658453 0.192269 0)
(-0.700143 0.206915 0)
(-0.74359 0.221661 0)
(-0.789735 0.237166 0)
(-0.839628 0.253077 0)
(-0.892731 0.266972 0)
(-0.949713 0.284818 0)
(-1.01202 0.304722 0)
(-1.07731 0.315962 0)
(-1.14144 0.328848 0)
(-1.21147 0.352232 0)
(-1.29029 0.379241 0)
(-1.37441 0.405206 0)
(-1.46242 0.430798 0)
(-1.55552 0.456955 0)
(-1.65455 0.483875 0)
(-1.75974 0.511719 0)
(-1.87108 0.540583 0)
(-1.98952 0.570404 0)
(-2.11301 0.601096 0)
(-2.24815 0.632523 0)
(-2.3803 0.664646 0)
(-2.53757 0.697258 0)
(-2.68921 0.730122 0)
(-2.82116 0.764011 0)
(-3.10618 0.799244 0)
(-3.28716 0.833975 0)
(-3.4774 0.86658 0)
(-3.68678 0.897117 0)
(-3.9035 0.925374 0)
(-4.128 0.950116 0)
(-4.362 0.970588 0)
(-4.60656 0.982063 0)
(-4.86159 0.988933 0)
(-5.12229 0.993339 0)
(-5.38295 0.995568 0)
(-5.63903 0.98906 0)
(-5.89421 0.95965 0)
(-6.15117 0.91096 0)
(-6.4034 0.84714 0)
(-6.64287 0.767568 0)
(-6.86399 0.670817 0)
(-7.06184 0.556752 0)
(-7.23001 0.426582 0)
(-7.36367 0.282625 0)
(-4.78264e-05 0.000803722 0)
(-0.000271791 0.00259514 0)
(-0.000760406 0.00458293 0)
(-0.00162987 0.006556 0)
(-0.00280671 0.00863624 0)
(-0.00435054 0.0107604 0)
(-0.00620745 0.0129783 0)
(-0.00846045 0.0151925 0)
(-0.0110286 0.0174312 0)
(-0.0139977 0.019587 0)
(-0.01736 0.0217383 0)
(-0.0211178 0.0238487 0)
(-0.0251134 0.0259371 0)
(-0.0294811 0.0279253 0)
(-0.0341782 0.0298192 0)
(-0.0392202 0.0316286 0)
(-0.044624 0.0333136 0)
(-0.0503217 0.0349446 0)
(-0.0562606 0.0363898 0)
(-0.0624933 0.0376551 0)
(-0.0692223 0.038795 0)
(-0.0761789 0.0398486 0)
(-0.0834375 0.0408457 0)
(-0.0910132 0.0417551 0)
(-0.098988 0.042782 0)
(-0.107261 0.0440578 0)
(-0.115738 0.0452683 0)
(-0.124485 0.0463669 0)
(-0.133592 0.0475545 0)
(-0.143063 0.0489703 0)
(-0.152895 0.0505454 0)
(-0.163129 0.0524071 0)
(-0.173703 0.054504 0)
(-0.184533 0.0569206 0)
(-0.196366 0.0597875 0)
(-0.20737 0.0629157 0)
(-0.220294 0.0668636 0)
(-0.23164 0.0704778 0)
(-0.245709 0.0751185 0)
(-0.258498 0.0796633 0)
(-0.273415 0.0850233 0)
(-0.287745 0.0901999 0)
(-0.304021 0.0965155 0)
(-0.320323 0.102117 0)
(-0.338626 0.108646 0)
(-0.357654 0.116929 0)
(-0.377445 0.126181 0)
(-0.398008 0.135115 0)
(-0.420882 0.144601 0)
(-0.445191 0.154223 0)
(-0.472081 0.165364 0)
(-0.500055 0.176296 0)
(-0.529846 0.188947 0)
(-0.562174 0.202189 0)
(-0.600104 0.216314 0)
(-0.634198 0.231438 0)
(-0.671923 0.24766 0)
(-0.712792 0.264703 0)
(-0.761458 0.282367 0)
(-0.800578 0.300813 0)
(-0.852914 0.320241 0)
(-0.91913 0.340663 0)
(-0.957366 0.362008 0)
(-1.01739 0.384365 0)
(-1.12653 0.408793 0)
(-1.19913 0.434797 0)
(-1.27603 0.461845 0)
(-1.36034 0.490223 0)
(-1.44763 0.520233 0)
(-1.53931 0.551786 0)
(-1.6372 0.584695 0)
(-1.74171 0.618902 0)
(-1.85303 0.654445 0)
(-1.97165 0.691183 0)
(-2.09794 0.729287 0)
(-2.23254 0.768148 0)
(-2.37587 0.808618 0)
(-2.52833 0.849919 0)
(-2.69227 0.890136 0)
(-2.86242 0.944216 0)
(-3.03298 1.00026 0)
(-3.21464 1.03745 0)
(-3.41535 1.07104 0)
(-3.62833 1.10928 0)
(-3.84911 1.14766 0)
(-4.07917 1.18239 0)
(-4.31982 1.2123 0)
(-4.57099 1.23609 0)
(-4.83202 1.25415 0)
(-5.10114 1.2655 0)
(-5.37557 1.26715 0)
(-5.65242 1.25403 0)
(-5.92973 1.2215 0)
(-6.20577 1.1701 0)
(-6.47681 1.09969 0)
(-6.73718 1.00768 0)
(-6.98054 0.891704 0)
(-7.20022 0.751137 0)
(-7.38826 0.587176 0)
(-7.53745 0.402177 0)
(-4.75423e-05 0.000930899 0)
(-0.000262484 0.00298451 0)
(-0.000751633 0.00525338 0)
(-0.00158449 0.00757244 0)
(-0.00273901 0.00997983 0)
(-0.00422286 0.0124598 0)
(-0.0060482 0.0150051 0)
(-0.00822847 0.0175848 0)
(-0.0107576 0.0201737 0)
(-0.0136653 0.0227276 0)
(-0.0169077 0.0252797 0)
(-0.0205416 0.027778 0)
(-0.0244856 0.0302221 0)
(-0.0287653 0.0325678 0)
(-0.0334098 0.0347777 0)
(-0.0383748 0.0368828 0)
(-0.0436479 0.0388746 0)
(-0.0492748 0.0407512 0)
(-0.0551038 0.0424935 0)
(-0.061358 0.0440809 0)
(-0.0678244 0.0456041 0)
(-0.0745987 0.0470443 0)
(-0.0816924 0.0484048 0)
(-0.0891045 0.04971 0)
(-0.0968473 0.0510186 0)
(-0.1049 0.0523883 0)
(-0.113196 0.0538134 0)
(-0.121731 0.0552883 0)
(-0.130571 0.0568657 0)
(-0.139766 0.0586038 0)
(-0.149296 0.0605233 0)
(-0.159241 0.0626934 0)
(-0.169348 0.0651186 0)
(-0.180064 0.067949 0)
(-0.190967 0.0711221 0)
(-0.202238 0.0747089 0)
(-0.214105 0.0787573 0)
(-0.225988 0.0830223 0)
(-0.239 0.0879646 0)
(-0.251937 0.0931692 0)
(-0.266008 0.0990574 0)
(-0.280406 0.105336 0)
(-0.295963 0.11229 0)
(-0.312092 0.119591 0)
(-0.32962 0.127732 0)
(-0.348176 0.136873 0)
(-0.367814 0.146704 0)
(-0.388552 0.156898 0)
(-0.410666 0.167571 0)
(-0.434475 0.179144 0)
(-0.460279 0.191865 0)
(-0.487394 0.204937 0)
(-0.517 0.219551 0)
(-0.548157 0.23511 0)
(-0.581996 0.251992 0)
(-0.618202 0.26899 0)
(-0.657348 0.287023 0)
(-0.698899 0.307098 0)
(-0.743088 0.327669 0)
(-0.790731 0.349131 0)
(-0.841526 0.374138 0)
(-0.896211 0.397342 0)
(-0.95719 0.420122 0)
(-1.02082 0.453751 0)
(-1.08374 0.489632 0)
(-1.15226 0.517363 0)
(-1.23042 0.54439 0)
(-1.31449 0.57599 0)
(-1.40232 0.611002 0)
(-1.49515 0.648048 0)
(-1.59402 0.686958 0)
(-1.69918 0.727736 0)
(-1.81092 0.770321 0)
(-1.92969 0.814651 0)
(-2.05596 0.860724 0)
(-2.19021 0.908414 0)
(-2.33292 0.957882 0)
(-2.48437 1.00904 0)
(-2.64522 1.06198 0)
(-2.81509 1.11853 0)
(-2.99222 1.17379 0)
(-3.17841 1.22368 0)
(-3.37749 1.27319 0)
(-3.58955 1.32407 0)
(-3.81279 1.37358 0)
(-4.04707 1.4195 0)
(-4.29294 1.46069 0)
(-4.55049 1.49578 0)
(-4.81934 1.52326 0)
(-5.09839 1.54123 0)
(-5.38561 1.547 0)
(-5.67853 1.53717 0)
(-5.9748 1.50791 0)
(-6.27218 1.45593 0)
(-6.56704 1.37842 0)
(-6.85358 1.27244 0)
(-7.12448 1.13545 0)
(-7.37153 0.965988 0)
(-7.58531 0.764408 0)
(-7.75567 0.53271 0)
(-4.63453e-05 0.00104493 0)
(-0.000249846 0.0033739 0)
(-0.0007331 0.00590979 0)
(-0.00153633 0.00854494 0)
(-0.00265584 0.0112714 0)
(-0.00409005 0.0140871 0)
(-0.00585807 0.0169736 0)
(-0.00797372 0.0198997 0)
(-0.0104334 0.0228429 0)
(-0.0132446 0.0257696 0)
(-0.0164139 0.0286592 0)
(-0.019921 0.0314986 0)
(-0.0237959 0.0342476 0)
(-0.027966 0.0369134 0)
(-0.0324986 0.0394472 0)
(-0.0373382 0.0418664 0)
(-0.0424703 0.0441755 0)
(-0.0479688 0.0463422 0)
(-0.053649 0.0484003 0)
(-0.0597619 0.0503133 0)
(-0.0660859 0.0521261 0)
(-0.0727082 0.0538383 0)
(-0.0796272 0.0554746 0)
(-0.0868337 0.0570675 0)
(-0.0943295 0.0586566 0)
(-0.102104 0.0602944 0)
(-0.110132 0.0620098 0)
(-0.118415 0.063802 0)
(-0.126984 0.0656962 0)
(-0.135871 0.0677447 0)
(-0.145069 0.0700054 0)
(-0.154629 0.0725143 0)
(-0.164383 0.0753049 0)
(-0.174666 0.0784906 0)
(-0.185149 0.0820379 0)
(-0.196086 0.0860173 0)
(-0.20742 0.0904451 0)
(-0.21912 0.0953046 0)
(-0.231476 0.100744 0)
(-0.244178 0.106633 0)
(-0.25775 0.113184 0)
(-0.271801 0.120227 0)
(-0.286889 0.128005 0)
(-0.302613 0.136317 0)
(-0.319628 0.14551 0)
(-0.337557 0.155441 0)
(-0.356669 0.166272 0)
(-0.376993 0.17791 0)
(-0.398432 0.190153 0)
(-0.421775 0.203598 0)