/*--------------------------------*- C++ -*----------------------------------*\
| =========                 |                                                 |
| \\      /  F ield         | OpenFOAM: The Open Source CFD Toolbox           |
|  \\    /   O peration     | Version:  2206                                  |
|   \\  /    A nd           | Website:  www.openfoam.com                      |
|    \\/     M anipulation  |                                                 |
\*---------------------------------------------------------------------------*/
FoamFile
{
    version     2.0;
    format      ascii;
    arch        "LSB;label=32;scalar=64";
    class       surfaceScalarField;
    location    "18.6999";
    object      ddtCorrDdt0(phi);
}
// * * * * * * * * * * * * * * * * * * * * * * * * * * * * * * * * * * * * * //

dimensions      [0 3 -2 0 0 0 0];

oriented        oriented;

internalField   nonuniform List<scalar> 
3505
(
-4.83337e-12
1.3857e-10
-1.33585e-10
-2.43603e-11
3.33136e-10
-3.1362e-10
-5.33059e-11
5.30121e-10
-5.012e-10
-9.00597e-11
6.99492e-10
-6.63159e-10
-1.33054e-10
8.29139e-10
-7.86419e-10
-1.81626e-10
9.12735e-10
-8.6515e-10
-2.33064e-10
9.52426e-10
-9.01717e-10
-2.86352e-10
9.51949e-10
-8.99976e-10
-3.38444e-10
9.16333e-10
-8.65234e-10
-3.88307e-10
8.50586e-10
-8.01751e-10
-4.3285e-10
7.60259e-10
-7.15523e-10
-4.74039e-10
6.55002e-10
-6.14381e-10
-5.09233e-10
5.41654e-10
-5.06885e-10
-5.41497e-10
4.32646e-10
-4.01441e-10
-5.67219e-10
3.33996e-10
-3.08857e-10
-5.90201e-10
2.57471e-10
-2.35149e-10
-6.09714e-10
2.09483e-10
-1.90516e-10
-6.30605e-10
1.97228e-10
-1.77339e-10
-6.51305e-10
2.24823e-10
-2.04221e-10
-6.78038e-10
2.97967e-10
-2.71882e-10
-7.09189e-10
4.17218e-10
-3.86562e-10
-7.51673e-10
5.84894e-10
-5.43098e-10
-8.05779e-10
7.99547e-10
-7.459e-10
-8.77692e-10
1.05995e-09
-9.88856e-10
-9.66604e-10
1.36335e-09
-1.27509e-09
-1.07952e-09
1.70741e-09
-1.59551e-09
-1.21451e-09
2.08716e-09
-1.9531e-09
-1.37824e-09
2.49996e-09
-2.33753e-09
-1.56997e-09
2.94353e-09
-2.75212e-09
-1.79394e-09
3.41503e-09
-3.19191e-09
-2.04971e-09
3.91285e-09
-3.65777e-09
-2.34318e-09
4.43852e-09
-4.14584e-09
-2.67244e-09
4.98943e-09
-4.66094e-09
-3.04541e-09
5.57631e-09
-5.20413e-09
-3.45317e-09
6.19334e-09
-5.78522e-09
-3.91606e-09
6.86787e-09
-6.40627e-09
-4.41868e-09
7.58925e-09
-7.08754e-09
-4.98329e-09
8.38872e-09
-7.82621e-09
-5.59728e-09
9.26101e-09
-8.64737e-09
-6.27995e-09
1.02399e-08
-9.55898e-09
-7.03382e-09
1.13377e-08
-1.05852e-08
-7.85941e-09
1.25698e-08
-1.17453e-08
-8.78418e-09
1.39696e-08
-1.30454e-08
-9.79243e-09
1.55415e-08
-1.45334e-08
-1.09293e-08
1.73418e-08
-1.62058e-08
-1.21843e-08
1.93722e-08
-1.81192e-08
-1.35864e-08
2.1671e-08
-2.02699e-08
-1.51582e-08
2.42822e-08
-2.27126e-08
-1.68946e-08
2.72111e-08
-2.54755e-08
-1.88599e-08
3.05368e-08
-2.85718e-08
-2.10265e-08
3.42497e-08
-3.20844e-08
-2.34885e-08
3.8442e-08
-3.59806e-08
-2.62219e-08
4.31286e-08
-4.0397e-08
-2.93026e-08
4.83783e-08
-4.53002e-08
-3.27611e-08
5.42715e-08
-5.08165e-08
-3.66128e-08
6.0829e-08
-5.69818e-08
-4.09578e-08
6.81897e-08
-6.38478e-08
-4.57761e-08
7.63854e-08
-7.15697e-08
-5.12129e-08
8.55572e-08
-8.01228e-08
-5.72297e-08
9.57627e-08
-8.97499e-08
-6.40133e-08
1.07208e-07
-1.00426e-07
-7.15224e-08
1.19901e-07
-1.12396e-07
-7.99144e-08
1.34097e-07
-1.25708e-07
-8.93601e-08
1.50028e-07
-1.40585e-07
-9.96458e-08
1.67417e-07
-1.57134e-07
-1.11436e-07
1.87404e-07
-1.75617e-07
-1.24224e-07
2.08997e-07
-1.96213e-07
-1.38274e-07
2.33224e-07
-2.19178e-07
-1.53742e-07
2.60448e-07
-2.44984e-07
-1.71206e-07
2.91655e-07
-2.74194e-07
-1.90728e-07
3.25808e-07
-3.06289e-07
-2.12372e-07
3.63845e-07
-3.42204e-07
-2.36342e-07
4.06154e-07
-3.82187e-07
-2.6285e-07
4.53274e-07
-4.26769e-07
-2.92213e-07
5.05808e-07
-4.76449e-07
-3.24811e-07
5.64353e-07
-5.3176e-07
-3.61041e-07
6.29486e-07
-5.93262e-07
-4.01349e-07
7.01902e-07
-6.61599e-07
-4.46209e-07
7.82386e-07
-7.37534e-07
-4.96155e-07
8.71884e-07
-8.21946e-07
-5.51757e-07
9.71414e-07
-9.15819e-07
-6.13645e-07
1.08213e-06
-1.02025e-06
-6.82506e-07
1.2053e-06
-1.13645e-06
-7.59089e-07
1.34234e-06
-1.26576e-06
-8.44274e-07
1.49477e-06
-1.4096e-06
-9.39149e-07
1.6643e-06
-1.56944e-06
-1.04505e-06
1.85283e-06
-1.74694e-06
-1.1636e-06
2.0626e-06
-1.94406e-06
-1.29665e-06
2.29627e-06
-2.16323e-06
-1.44623e-06
2.55684e-06
-2.40727e-06
-1.61494e-06
2.84811e-06
-2.67943e-06
-1.8058e-06
3.17462e-06
-2.98378e-06
-2.02221e-06
3.54205e-06
-3.32567e-06
-2.26794e-06
3.95809e-06
-3.71238e-06
-2.54649e-06
4.4332e-06
-4.15468e-06
-2.85902e-06
4.98135e-06
-4.66884e-06
-3.20593e-06
5.62643e-06
-5.27952e-06
-3.57653e-06
6.4067e-06
-6.0361e-06
-3.94147e-06
7.37833e-06
-7.01338e-06
-4.05891e-06
8.64705e-06
-8.52962e-06
-3.65056e-06
1.03005e-05
-1.07088e-05
1.29764e-05
-1.66269e-05
-2.39412e-12
1.41069e-10
-1.91682e-11
3.49822e-10
-4.3415e-11
5.54253e-10
-7.3114e-11
7.28988e-10
-1.0656e-10
8.62436e-10
-1.44376e-10
9.50274e-10
-1.84433e-10
9.92337e-10
-2.26096e-10
9.93221e-10
-2.67001e-10
9.56662e-10
-3.05137e-10
8.88915e-10
-3.41045e-10
7.96106e-10
-3.73272e-10
6.86868e-10
-4.01918e-10
5.69782e-10
-4.2698e-10
4.56309e-10
-4.47179e-10
3.54046e-10
-4.66417e-10
2.75924e-10
-4.81645e-10
2.24977e-10
-4.97757e-10
2.13057e-10
-5.13155e-10
2.41122e-10
-5.34911e-10
3.19004e-10
-5.60054e-10
4.42498e-10
-5.95559e-10
6.19531e-10
-6.37915e-10
8.42278e-10
-6.95969e-10
1.11753e-09
-7.65951e-10
1.43383e-09
-8.56122e-10
1.79701e-09
-9.62146e-10
2.19344e-09
-1.09217e-09
2.62961e-09
-1.24261e-09
3.09455e-09
-1.42155e-09
3.59306e-09
-1.6249e-09
4.11607e-09
-1.85761e-09
4.67027e-09
-2.11855e-09
5.24975e-09
-2.4089e-09
5.86727e-09
-2.7368e-09
6.52112e-09
-3.1e-09
7.23086e-09
-3.50132e-09
7.9892e-09
-3.94273e-09
8.83e-09
-4.42931e-09
9.74703e-09
-4.96947e-09
1.07796e-08
-5.56279e-09
1.19299e-08
-6.21959e-09
1.32255e-08
-6.94404e-09
1.46933e-08
-7.75124e-09
1.63478e-08
-8.65217e-09
1.82411e-08
-9.64176e-09
2.03613e-08
-1.07585e-08
2.27865e-08
-1.19879e-08
2.55113e-08
-1.33738e-08
2.85964e-08
-1.4919e-08
3.20796e-08
-1.66458e-08
3.59763e-08
-1.85947e-08
4.03884e-08
-2.07513e-08
4.52842e-08
-2.32094e-08
5.08334e-08
-2.59181e-08
5.6976e-08
-2.89941e-08
6.39026e-08
-3.24024e-08
7.1596e-08
-3.624e-08
8.02228e-08
-4.05096e-08
8.98242e-08
-4.52969e-08
1.00549e-07
-5.06383e-08
1.12546e-07
-5.65529e-08
1.25815e-07
-6.3307e-08
1.4085e-07
-7.05531e-08
1.57273e-07
-7.90678e-08
1.7593e-07
-8.81991e-08
1.96533e-07
-9.85771e-08
2.19373e-07
-1.10524e-07
2.45169e-07
-1.21226e-07
2.71149e-07
-1.35463e-07
3.0589e-07
-1.5083e-07
3.41173e-07
-1.67808e-07
3.80822e-07
-1.86644e-07
4.24989e-07
-2.07572e-07
4.74199e-07
-2.30804e-07
5.29039e-07
-2.56562e-07
5.90107e-07
-2.85135e-07
6.58057e-07
-3.16877e-07
7.33639e-07
-3.522e-07
8.17705e-07
-3.91547e-07
9.11225e-07
-4.35387e-07
1.01525e-06
-4.84239e-07
1.13098e-06
-5.3866e-07
1.25972e-06
-5.99275e-07
1.40294e-06
-6.66805e-07
1.56229e-06
-7.42111e-07
1.7396e-06
-8.26232e-07
1.93695e-06
-9.20387e-07
2.15675e-06
-1.02593e-06
2.40181e-06
-1.14448e-06
2.67537e-06
-1.27768e-06
2.98131e-06
-1.42735e-06
3.32427e-06
-1.59514e-06
3.70984e-06
-1.7821e-06
4.14503e-06
-1.98691e-06
4.638e-06
-2.20618e-06
5.20061e-06
-2.4285e-06
5.84874e-06
-2.62182e-06
6.60001e-06
-2.72414e-06
7.48064e-06
-2.58298e-06
8.50587e-06
-2.00188e-06
9.71935e-06
1.09745e-05
-8.26374e-13
1.4196e-10
-1.30151e-11
3.61978e-10
-3.15313e-11
5.72612e-10
-5.33692e-11
7.5103e-10
-7.82981e-11
8.87335e-10
-1.04675e-10
9.77343e-10
-1.33535e-10
1.0213e-09
-1.628e-10
1.02284e-09
-1.92072e-10
9.85845e-10
-2.19171e-10
9.16561e-10
-2.45399e-10
8.22224e-10
-2.68205e-10
7.09805e-10
-2.90003e-10
5.90532e-10
-3.07642e-10
4.73542e-10
-3.23507e-10
3.69526e-10
-3.36094e-10
2.88578e-10
-3.48252e-10
2.36979e-10
-3.58212e-10
2.24078e-10
-3.71408e-10
2.54124e-10
-3.85845e-10
3.33754e-10
-4.06085e-10
4.6182e-10
-4.30002e-10
6.43316e-10
-4.63276e-10
8.75289e-10
-5.03416e-10
1.15812e-09
-5.55826e-10
1.48608e-09
-6.18433e-10
1.85988e-09
-6.97251e-10
2.27195e-09
-7.89255e-10
2.72228e-09
-9.00702e-10
3.20545e-09
-1.02627e-09
3.71881e-09
-1.17629e-09
4.26502e-09
-1.34212e-09
4.83523e-09
-1.5333e-09
5.44036e-09
-1.74291e-09
6.07719e-09
-1.98199e-09
6.75976e-09
-2.24311e-09
7.49181e-09
-2.53338e-09
8.27805e-09
-2.85258e-09
9.14909e-09
-3.20509e-09
1.00989e-08
-3.59521e-09
1.11698e-08
-4.02434e-09
1.23571e-08
-4.4994e-09
1.36992e-08
-5.02658e-09
1.52196e-08
-5.60929e-09
1.69288e-08
-6.26021e-09
1.88911e-08
-6.9746e-09
2.10739e-08
-7.78553e-09
2.3597e-08
-8.66946e-09
2.63935e-08
-9.681e-09
2.96065e-08
-1.07907e-08
3.31866e-08
-1.20465e-08
3.72309e-08
-1.34506e-08
4.179e-08
-1.50169e-08
4.685e-08
-1.67932e-08
5.26051e-08
-1.8752e-08
5.89327e-08
-2.09845e-08
6.61318e-08
-2.34392e-08
7.40511e-08
-2.62216e-08
8.3002e-08
-2.9309e-08
9.2912e-08
-3.275e-08
1.03986e-07
-3.66311e-08
1.16426e-07
-4.08732e-08
1.30055e-07
-4.57542e-08
1.45731e-07
-5.09702e-08
1.62487e-07
-5.71727e-08
1.82131e-07
-6.36354e-08
2.02993e-07
-7.13021e-08
2.27038e-07
-7.90726e-08
2.52938e-07
-8.93333e-08
2.81409e-07
-9.88817e-08
3.15437e-07
-1.09786e-07
3.52077e-07
-1.21871e-07
3.92906e-07
-1.35303e-07
4.38418e-07
-1.50234e-07
4.89129e-07
-1.66797e-07
5.456e-07
-1.8519e-07
6.08499e-07
-2.05664e-07
6.78529e-07
-2.28478e-07
7.56452e-07
-2.53928e-07
8.4315e-07
-2.82301e-07
9.39597e-07
-3.13932e-07
1.04688e-06
-3.49187e-07
1.16623e-06
-3.88494e-07
1.29902e-06
-4.32328e-07
1.44678e-06
-4.81244e-07
1.61121e-06
-5.35861e-07
1.79422e-06
-5.96921e-07
1.99801e-06
-6.65247e-07
2.22508e-06
-7.41778e-07
2.47834e-06
-8.27552e-07
2.76115e-06
-9.23598e-07
3.07736e-06
-1.03083e-06
3.43151e-06
-1.14975e-06
3.82877e-06
-1.27968e-06
4.27497e-06
-1.41865e-06
4.77698e-06
-1.56071e-06
5.34268e-06
-1.69075e-06
5.97879e-06
-1.78053e-06
6.68978e-06
-1.77488e-06
7.47498e-06
-1.58306e-06
8.31403e-06
-9.82008e-07
9.11831e-06
9.99249e-06
1.69766e-12
-7.96413e-12
-2.10858e-11
-3.47352e-11
-4.83066e-11
9.01677e-10
-6.30802e-11
9.92334e-10
-7.93085e-11
1.03814e-09
-9.6731e-11
1.04022e-09
-1.14108e-10
1.00364e-09
-1.31393e-10
9.33774e-10
-1.46559e-10
8.37997e-10
-1.61282e-10
7.24125e-10
-1.74161e-10
6.03243e-10
-1.85099e-10
4.84355e-10
-1.94822e-10
3.79205e-10
-2.02907e-10
2.9652e-10
-2.09752e-10
2.44192e-10
-2.16682e-10
2.30683e-10
-2.2473e-10
2.62547e-10
-2.33765e-10
3.41849e-10
-2.46011e-10
4.73527e-10
-2.60975e-10
6.57742e-10
-2.79997e-10
8.94206e-10
-3.04183e-10
1.18172e-09
-3.36105e-10
1.51781e-09
-3.74717e-10
1.89781e-09
-4.21826e-10
2.31901e-09
-4.77989e-10
2.77778e-09
-5.42604e-10
3.27033e-09
-6.21842e-10
3.79698e-09
-7.14576e-10
4.35688e-09
-8.12125e-10
4.93187e-09
-9.28221e-10
5.55584e-09
-1.05425e-09
6.20233e-09
-1.19884e-09
6.90459e-09
-1.35697e-09
7.64833e-09
-1.53217e-09
8.45243e-09
-1.72883e-09
9.34474e-09
-1.93564e-09
1.03061e-08
-2.17909e-09
1.14115e-08
-2.4326e-09
1.26089e-08
-2.72647e-09
1.39921e-08
-3.04084e-09
1.55319e-08
-3.39453e-09
1.72816e-08
-3.79111e-09
1.9285e-08
-4.2162e-09
2.14984e-08
-4.71732e-09
2.4095e-08
-5.23942e-09
2.69147e-08
-5.86787e-09
3.02313e-08
-6.52331e-09
3.38407e-08
-7.29937e-09
3.80027e-08
-8.14127e-09
4.26329e-08
-9.08548e-09
4.77893e-08
-1.01779e-08
5.36975e-08
-1.13355e-08
6.0086e-08
-1.27122e-08
6.75091e-08
-1.41803e-08
7.55149e-08
-1.58567e-08
8.46803e-08
-1.77477e-08
9.47973e-08
-1.97785e-08
1.06016e-07
-2.2181e-08
1.18825e-07
-2.46542e-08
1.32527e-07
-2.76953e-08
1.48768e-07
-3.06372e-08
1.65428e-07
-3.46041e-08
1.86094e-07
-3.80969e-08
2.06484e-07
-4.32473e-08
2.32186e-07
-4.85379e-08
2.58227e-07
-5.47985e-08
2.87667e-07
-6.04521e-08
3.2109e-07
-6.70619e-08
3.58685e-07
-7.44572e-08
4.003e-07
-8.26601e-08
4.46621e-07
-9.17906e-08
4.98258e-07
-1.0175e-07
5.55561e-07
-1.12657e-07
6.19404e-07
-1.24677e-07
6.9055e-07
-1.38026e-07
7.69798e-07
-1.52939e-07
8.58065e-07
-1.69671e-07
9.56323e-07
-1.88467e-07
1.06568e-06
-2.09586e-07
1.18735e-06
-2.33274e-07
1.32271e-06
-2.59812e-07
1.47332e-06
-2.89503e-07
1.6409e-06
-3.22709e-07
1.82743e-06
-3.5984e-07
2.03514e-06
-4.01394e-07
2.26663e-06
-4.47889e-07
2.52485e-06
-4.99908e-07
2.81318e-06
-5.58031e-07
3.13551e-06
-6.22601e-07
3.4961e-06
-6.93704e-07
3.8999e-06
-7.70722e-07
4.35201e-06
-8.51787e-07
4.85807e-06
-9.31549e-07
5.42245e-06
-1.00046e-06
6.04772e-06
-1.04199e-06
6.73131e-06
-1.02802e-06
7.46102e-06
-9.25632e-07
8.21165e-06
-7.18309e-07
8.91099e-06
9.2742e-06
-1.76293e-11
-2.1238e-11
-2.56965e-11
-3.09866e-11
-3.63409e-11
-4.11796e-11
-4.63811e-11
-5.12969e-11
-5.56509e-11
-5.95535e-11
-6.3119e-11
-6.61153e-11
-6.95415e-11
-7.23159e-11
-7.55648e-11
-7.88751e-11
-8.24597e-11
-8.63033e-11
-9.30971e-11
-1.01706e-10
-1.12491e-10
-1.25346e-10
-1.41839e-10
-1.60901e-10
-1.8446e-10
-2.13817e-10
-2.26456e-10
-2.71727e-10
-3.02881e-10
-3.48332e-10
-4.02447e-10
-4.43736e-10
-5.24009e-10
-5.60773e-10
-6.64625e-10
-7.17375e-10
-8.21175e-10
-9.16239e-10
-1.00512e-09
-1.16376e-09
-1.23402e-09
-1.45294e-09
-1.53977e-09
-1.78599e-09
-1.95049e-09
-2.17675e-09
-2.48044e-09
-2.66157e-09
-3.13324e-09
-3.3045e-09
-3.89036e-09
-4.18536e-09
-4.76154e-09
-5.3465e-09
-5.82167e-09
-6.77389e-09
-7.19313e-09
-8.44775e-09
-8.99258e-09
-1.0364e-08
-1.13084e-08
-1.2301e-08
-1.42448e-08
-1.41652e-08
-1.95554e-08
-2.2992e-08
-2.51447e-08
-2.69181e-08
-2.89065e-08
-3.16062e-08
-3.44418e-08
-3.77137e-08
-4.14342e-08
-4.56591e-08
-5.04335e-08
-5.58369e-08
-6.19538e-08
-6.88698e-08
-7.66607e-08
-8.54136e-08
-9.52244e-08
-1.06238e-07
-1.18623e-07
-1.3256e-07
-1.4826e-07
-1.65888e-07
-1.85613e-07
-2.07591e-07
-2.31828e-07
-2.58149e-07
-2.85681e-07
-3.12883e-07
-3.37155e-07
-3.5364e-07
-3.53922e-07
-3.23075e-07
-2.82555e-07
-1.91925e-11
1.9088e-11
-6.76558e-11
4.83818e-11
-1.34308e-10
6.64674e-11
-2.0356e-10
6.91512e-11
-2.9299e-10
8.91998e-11
-3.80824e-10
8.77194e-11
-4.73329e-10
9.22369e-11
-5.6051e-10
8.71116e-11
-6.34336e-10
7.3569e-11
-6.93719e-10
5.93422e-11
-7.30805e-10
3.67749e-11
-7.439e-10
1.30651e-11
-7.41428e-10
-2.77323e-12
-7.23811e-10
-1.76511e-11
-6.93937e-10
-3.0295e-11
-6.53979e-10
-4.00438e-11
-6.12154e-10
-4.22245e-11
-5.71971e-10
-4.01626e-11
-5.41984e-10
-3.03865e-11
-5.24869e-10
-1.71098e-11
-5.27291e-10
1.93886e-12
-5.49146e-10
2.18587e-11
-5.96483e-10
4.69071e-11
-6.62528e-10
6.60316e-11
-7.48384e-10
8.53173e-11
-8.4632e-10
9.77869e-11
-9.53006e-10
1.06117e-10
-1.05611e-09
1.02953e-10
-1.15945e-09
1.02692e-10
-1.26205e-09
1.02342e-10
-1.37367e-09
1.10844e-10
-1.49367e-09
1.19742e-10
-1.63082e-09
1.36303e-10
-1.78403e-09
1.5293e-10
-1.96312e-09
1.78028e-10
-2.17121e-09
2.07819e-10
-2.40926e-09
2.37075e-10
-2.68655e-09
2.77026e-10
-3.04375e-09
3.56089e-10
-3.48989e-09
4.45886e-10
-4.02823e-09
5.37269e-10
-4.64668e-09
6.1815e-10
-5.35018e-09
7.02316e-10
-6.1154e-09
7.64905e-10
-6.93898e-09
8.22394e-10
-7.84962e-09
9.10198e-10
-8.90457e-09
1.05361e-09
-1.01312e-08
1.22607e-09
-1.15698e-08
1.43713e-09
-1.33036e-08
1.73302e-09
-1.53666e-08
2.0611e-09
-1.78229e-08
2.45544e-09
-2.06695e-08
2.84465e-09
-2.393e-08
3.25955e-09
-2.76113e-08
3.67887e-09
-3.17551e-08
4.14281e-09
-3.64108e-08
4.65327e-09
-4.16143e-08
5.20245e-09
-4.7633e-08
6.01638e-09
-5.43768e-08
6.74265e-09
-6.20718e-08
7.69287e-09
-7.07204e-08
8.64748e-09
-8.05334e-08
9.81097e-09
-9.20065e-08
1.1472e-08
-1.04936e-07
1.29279e-08
-1.19825e-07
1.48882e-08
-1.36687e-07
1.68601e-08
-1.54678e-07
1.79901e-08
-1.73215e-07
1.85357e-08
-1.94365e-07
2.11483e-08
-2.17263e-07
2.28968e-08
-2.43575e-07
2.6311e-08
-2.74455e-07
3.08781e-08
-3.16006e-07
4.155e-08
-3.63289e-07
4.72805e-08
-4.15809e-07
5.25187e-08
-4.74383e-07
5.85716e-08
-5.39559e-07
6.51739e-08
-6.12522e-07
7.29614e-08
-6.93961e-07
8.14366e-08
-7.84413e-07
9.04507e-08
-8.85601e-07
1.01186e-07
-9.99507e-07
1.13905e-07
-1.12823e-06
1.28724e-07
-1.27362e-06
1.45391e-07
-1.43796e-06
1.64339e-07
-1.62377e-06
1.85805e-07
-1.83215e-06
2.08375e-07
-2.06233e-06
2.30188e-07
-2.31366e-06
2.51331e-07
-2.5846e-06
2.70938e-07
-2.87504e-06
2.90439e-07
-3.195e-06
3.19959e-07
-3.53879e-06
3.43792e-07
-3.88805e-06
3.49258e-07
-4.25107e-06
3.63025e-07
-4.62852e-06
3.77444e-07
-5.00584e-06
3.77326e-07
-5.37472e-06
3.68874e-07
-5.71901e-06
3.44294e-07
-6.01619e-06
2.97181e-07
2.29379e-07
-6.24556e-06
-8.58614e-12
2.75154e-11
-5.34099e-11
9.30521e-11
-1.29183e-10
1.42068e-10
-2.14137e-10
1.53943e-10
-3.00592e-10
1.75472e-10
-3.8925e-10
1.76205e-10
-4.79826e-10
1.82623e-10
-5.65637e-10
1.72791e-10
-6.49669e-10
1.57452e-10
-7.24403e-10
1.33942e-10
-7.77229e-10
8.94197e-11
-8.18064e-10
5.37801e-11
-8.53e-10
3.19787e-11
-8.75969e-10
5.14736e-12
-8.86687e-10
-1.98308e-11
-8.87768e-10
-3.91574e-11
-8.83836e-10
-4.6397e-11
-8.78513e-10
-4.55979e-11
-8.76576e-10
-3.25127e-11
-8.80236e-10
-1.36286e-11
-8.92965e-10
1.44064e-11
-9.17944e-10
4.67166e-11
-9.64715e-10
9.34381e-11
-1.0282e-09
1.2929e-10
-1.11266e-09
1.69418e-10
-1.22e-09
2.04855e-10
-1.35586e-09
2.41574e-10
-1.5113e-09
2.5808e-10
-1.69049e-09
2.81429e-10
-1.89345e-09
3.04897e-10
-2.12603e-09
3.42854e-10
-2.38917e-09
3.82456e-10
-2.68145e-09
4.28041e-10
-3.00411e-09
4.7503e-10
-3.35568e-09
5.28938e-10
-3.74168e-09
5.93372e-10
-4.15969e-09
6.54504e-10
-4.5849e-09
7.01732e-10
-5.05603e-09
8.26524e-10
-5.59401e-09
9.83381e-10
-6.21281e-09
1.15542e-09
-6.92682e-09
1.33164e-09
-7.71522e-09
1.48998e-09
-8.59096e-09
1.64015e-09
-9.58988e-09
1.82056e-09
-1.07352e-08
2.0549e-09
-1.20138e-08
2.33132e-09
-1.34533e-08
2.66483e-09
-1.50716e-08
3.05441e-09
-1.68711e-08
3.53148e-09
-1.89094e-08
4.09797e-09
-2.12256e-08
4.77063e-09
-2.39261e-08
5.54383e-09
-2.70158e-08
6.3479e-09
-3.05873e-08
7.2488e-09
-3.46352e-08
8.18926e-09
-3.92678e-08
9.28428e-09
-4.45464e-08
1.04797e-08
-5.03514e-08
1.18198e-08
-5.70192e-08
1.34091e-08
-6.44225e-08
1.50947e-08
-7.29798e-08
1.72035e-08
-8.27049e-08
1.95346e-08
-9.34475e-08
2.22135e-08
-1.05652e-07
2.51312e-08
-1.19117e-07
2.8352e-08
-1.33774e-07
3.15162e-08
-1.502e-07
3.44149e-08
-1.7253e-07
4.08641e-08
-1.9768e-07
4.62981e-08
-2.27199e-07
5.24145e-08
-2.60937e-07
6.00473e-08
-2.9858e-07
6.85199e-08
-3.34673e-07
7.76413e-08
-3.74934e-07
8.75406e-08
-4.20482e-07
9.80645e-08
-4.71845e-07
1.09933e-07
-5.30253e-07
1.2358e-07
-5.96506e-07
1.39212e-07
-6.71943e-07
1.56872e-07
-7.58404e-07
1.76911e-07
-8.57227e-07
2.00007e-07
-9.69736e-07
2.26412e-07
-1.09708e-06
2.56071e-07
-1.24015e-06
2.88451e-07
-1.39958e-06
3.23773e-07
-1.57722e-06
3.63445e-07
-1.77628e-06
4.07434e-07
-1.9995e-06
4.53404e-07
-2.24814e-06
4.99971e-07
-2.51986e-06
5.42661e-07
-2.81837e-06
5.88949e-07
-3.14942e-06
6.51007e-07
-3.51744e-06
7.11816e-07
-3.92407e-06
7.55883e-07
-4.35368e-06
7.92637e-07
-4.80383e-06
8.27593e-07
-5.26809e-06
8.41588e-07
-5.71682e-06
8.17605e-07
-6.12564e-06
7.53113e-07
-6.47446e-06
6.46003e-07
4.98718e-07
-6.74379e-06
-1.60384e-11
4.3393e-11
-5.36799e-11
1.30522e-10
-1.05886e-10
1.94082e-10
-1.84217e-10
2.32103e-10
-2.78907e-10
2.69983e-10
-3.83491e-10
2.80622e-10
-4.94152e-10
2.93117e-10
-5.81347e-10
2.59868e-10
-6.85025e-10
2.60991e-10
-7.81092e-10
2.29892e-10
-8.89323e-10
1.97504e-10
-9.88793e-10
1.53124e-10
-1.0506e-09
9.36168e-11
-1.08694e-09
4.13124e-11
-1.10754e-09
5.29743e-13
-1.11867e-09
-2.82292e-11
-1.12394e-09
-4.12753e-11
-1.12726e-09
-4.24137e-11
-1.13293e-09
-2.70594e-11
-1.14877e-09
2.0274e-12
-1.18331e-09
4.88127e-11
-1.23945e-09
1.02693e-10
-1.32035e-09
1.74075e-10
-1.43203e-09
2.40687e-10
-1.57601e-09
3.13113e-10
-1.75995e-09
3.88456e-10
-1.98721e-09
4.68462e-10
-2.25253e-09
5.23e-10
-2.5602e-09
5.88686e-10
-2.92445e-09
6.68669e-10
-3.34048e-09
7.58403e-10
-3.81035e-09
8.5186e-10
-4.33001e-09
9.47115e-10
-4.90543e-09
1.04992e-09
-5.53387e-09
1.15685e-09
-6.22268e-09
1.28174e-09
-6.97226e-09
1.40357e-09
-7.79824e-09
1.52716e-09
-8.68836e-09
1.71606e-09
-9.63849e-09
1.93298e-09
-1.06798e-08
2.19618e-09
-1.18739e-08
2.52516e-09
-1.32454e-08
2.86095e-09
-1.47235e-08
3.11767e-09
-1.63896e-08
3.48618e-09
-1.82302e-08
3.89481e-09
-2.02963e-08
4.39669e-09
-2.26158e-08
4.98347e-09
-2.52086e-08
5.64622e-09
-2.80413e-08
6.36306e-09
-3.11775e-08
7.23313e-09
-3.47044e-08
8.29652e-09
-3.86695e-08
9.50759e-09
-4.31669e-08
1.08441e-08
-4.82416e-08
1.2322e-08
-5.40003e-08
1.39467e-08
-6.04776e-08
1.57602e-08
-6.7753e-08
1.77537e-08
-7.59139e-08
1.99793e-08
-8.50139e-08
2.25079e-08
-9.52814e-08
2.53608e-08
-1.06679e-07
2.85993e-08
-1.19424e-07
3.22787e-08
-1.33653e-07
3.64415e-08
-1.49544e-07
4.10209e-08
-1.67245e-07
4.60516e-08
-1.87239e-07
5.15093e-08
-2.10634e-07
5.78096e-08
-2.36828e-07
6.7057e-08
-2.65749e-07
7.52182e-08
-2.97851e-07
8.45153e-08
-3.32758e-07
9.4953e-08
-3.74122e-07
1.09882e-07
-4.18588e-07
1.22106e-07
-4.68157e-07
1.37108e-07
-5.23387e-07
1.53293e-07
-5.85436e-07
1.7198e-07
-6.55317e-07
1.9346e-07
-7.33957e-07
2.1785e-07
-8.22739e-07
2.45653e-07
-9.23121e-07
2.7729e-07
-1.03612e-06
3.13003e-07
-1.16274e-06
3.53032e-07
-1.30385e-06
3.97181e-07
-1.45907e-06
4.43672e-07
-1.62979e-06
4.94487e-07
-1.82081e-06
5.54469e-07
-2.03588e-06
6.22498e-07
-2.27702e-06
6.94547e-07
-2.54548e-06
7.68433e-07
-2.8417e-06
8.38877e-07
-3.17729e-06
9.24546e-07
-3.54863e-06
1.02235e-06
-3.94408e-06
1.10726e-06
-4.37658e-06
1.18838e-06
-4.83735e-06
1.25341e-06
-5.30028e-06
1.29053e-06
-5.7611e-06
1.3024e-06
-6.21634e-06
1.27285e-06
-6.64687e-06
1.18365e-06
-7.02158e-06
1.02071e-06
7.79652e-07
-7.30251e-06
-1.42555e-11
5.74241e-11
-4.64397e-11
1.62491e-10
-1.05026e-10
2.52477e-10
-1.8036e-10
3.07263e-10
-2.73858e-10
3.6332e-10
-3.73321e-10
3.7992e-10
-4.79645e-10
3.99307e-10
-5.88683e-10
3.68777e-10
-6.94496e-10
3.66711e-10
-7.94158e-10
3.29443e-10
-8.75881e-10
2.79114e-10
-9.50148e-10
2.27273e-10
-1.02428e-09
1.67601e-10
-1.09257e-09
1.09396e-10
-1.15122e-09
5.89649e-11
-1.19831e-09
1.87092e-11
-1.23621e-09
-3.50553e-12
-1.26899e-09
-9.84649e-12
-1.30178e-09
5.52915e-12
-1.34027e-09
4.04047e-11
-1.38616e-09
9.4573e-11
-1.45055e-09
1.66878e-10
-1.53314e-09
2.56378e-10
-1.64878e-09
3.56064e-10
-1.80415e-09
4.68174e-10
-2.00156e-09
5.85531e-10
-2.24013e-09
7.06615e-10
-2.55986e-09
8.4233e-10
-2.95523e-09
9.83606e-10
-3.39903e-09
1.11201e-09
-3.88575e-09
1.24463e-09
-4.42341e-09
1.38897e-09
-4.99565e-09
1.51885e-09
-5.64064e-09
1.69444e-09
-6.32677e-09
1.84253e-09
-7.09977e-09
2.05427e-09
-7.93796e-09
2.24125e-09
-8.89039e-09
2.47901e-09
-9.91473e-09
2.73984e-09
-1.10079e-08
3.02563e-09
-1.22863e-08
3.47405e-09
-1.36565e-08
3.89492e-09
-1.52996e-08
4.50344e-09
-1.70437e-08
4.86127e-09
-1.91085e-08
5.55039e-09
-2.13794e-08
6.16503e-09
-2.39267e-08
6.94321e-09
-2.68584e-08
7.91416e-09
-3.00272e-08
8.81406e-09
-3.34405e-08
9.77553e-09
-3.73425e-08
1.1134e-08
-4.17646e-08
1.27175e-08
-4.67208e-08
1.44626e-08
-5.22623e-08
1.63842e-08
-5.84561e-08
1.85145e-08
-6.53774e-08
2.08667e-08
-7.3155e-08
2.35365e-08
-8.17434e-08
2.63409e-08
-9.13074e-08
2.9542e-08
-1.02002e-07
3.3201e-08
-1.13924e-07
3.72814e-08
-1.27208e-07
4.18819e-08
-1.41987e-07
4.70562e-08
-1.58443e-07
5.28967e-08
-1.76836e-07
5.94128e-08
-1.97581e-07
6.67959e-08
-2.2113e-07
7.5057e-08
-2.47695e-07
8.43742e-08
-2.76003e-07
9.53637e-08
-3.08078e-07
1.07292e-07
-3.44024e-07
1.20461e-07
-3.8408e-07
1.35008e-07
-4.27427e-07
1.53228e-07
-4.77164e-07
1.71841e-07
-5.3225e-07
1.92193e-07
-5.93782e-07
2.14823e-07
-6.62733e-07
2.40929e-07
-7.39701e-07
2.70426e-07
-8.25628e-07
3.03775e-07
-9.22007e-07
3.42031e-07
-1.03011e-06
3.85395e-07
-1.15114e-06
4.34029e-07
-1.28649e-06
4.88382e-07
-1.43654e-06
5.47228e-07
-1.59979e-06
6.06921e-07
-1.78113e-06
6.75824e-07
-1.98353e-06
7.56868e-07
-2.203e-06
8.4197e-07
-2.44212e-06
9.33667e-07
-2.70948e-06
1.03579e-06
-3.02699e-06
1.15639e-06
-3.37719e-06
1.27475e-06
-3.73539e-06
1.38055e-06
-4.11869e-06
1.49055e-06
-4.53217e-06
1.60187e-06
-4.9809e-06
1.70214e-06
-5.46558e-06
1.77521e-06
-5.97398e-06
1.8108e-06
-6.49201e-06
1.79088e-06
-6.99685e-06
1.68848e-06
-7.44787e-06
1.47174e-06
1.12851e-06
-7.79672e-06
-1.54257e-11
7.265e-11
-4.66789e-11
1.93548e-10
-1.00765e-10
3.06382e-10
-1.75563e-10
3.81903e-10
-2.59489e-10
4.47086e-10
-3.58616e-10
4.78922e-10
-4.54591e-10
4.95142e-10
-5.70799e-10
4.84902e-10
-6.66803e-10
4.6264e-10
-7.58237e-10
4.20809e-10
-8.43076e-10
3.63874e-10
-9.19368e-10
3.03461e-10
-9.87606e-10
2.35668e-10
-1.04768e-09
1.69267e-10
-1.09967e-09
1.10765e-10
-1.14683e-09
6.57134e-11
-1.18899e-09
3.84301e-11
-1.23043e-09
3.13959e-11
-1.27226e-09
4.71983e-11
-1.31903e-09
8.70557e-11
-1.37584e-09
1.51227e-10
-1.4482e-09
2.39014e-10
-1.53951e-09
3.47426e-10
-1.65852e-09
4.74779e-10
-1.8086e-09
6.1796e-10
-2.00168e-09
7.78245e-10
-2.24431e-09
9.4884e-10
-2.53586e-09
1.13344e-09
-2.88206e-09
1.32938e-09
-3.29505e-09
1.52455e-09
-3.7771e-09
1.72615e-09
-4.31316e-09
1.92455e-09
-4.94499e-09
2.15025e-09
-5.62991e-09
2.37895e-09
-6.40777e-09
2.61998e-09
-7.26265e-09
2.90868e-09
-8.19694e-09
3.17498e-09
-9.26359e-09
3.54508e-09
-1.04016e-08
3.87727e-09
-1.1719e-08
4.3425e-09
-1.30891e-08
4.84369e-09
-1.46022e-08
5.40743e-09
-1.62153e-08
6.11615e-09
-1.8082e-08
6.72738e-09
-2.02096e-08
7.6774e-09
-2.2511e-08
8.46565e-09
-2.51958e-08
9.62705e-09
-2.80207e-08
1.07381e-08
-3.14201e-08
1.22128e-08
-3.55943e-08
1.39487e-08
-4.0127e-08
1.56657e-08
-4.4891e-08
1.74804e-08
-5.0017e-08
1.95872e-08
-5.557e-08
2.19361e-08
-6.16613e-08
2.46047e-08
-6.8338e-08
2.75423e-08
-7.60676e-08
3.1265e-08
-8.44081e-08
3.46802e-08
-9.37443e-08
3.88768e-08
-1.04313e-07
4.3768e-08
-1.16117e-07
4.90844e-08
-1.2942e-07
5.51833e-08
-1.44326e-07
6.19615e-08
-1.61108e-07
6.96772e-08
-1.79959e-07
7.82623e-08
-2.00904e-07
8.77398e-08
-2.24217e-07
9.83694e-08
-2.50375e-07
1.10531e-07
-2.79443e-07
1.24431e-07
-3.12217e-07
1.40065e-07
-3.49437e-07
1.57679e-07
-3.89128e-07
1.74698e-07
-4.36204e-07
2.00302e-07
-4.88031e-07
2.23666e-07
-5.43575e-07
2.47736e-07
-6.05412e-07
2.76658e-07
-6.74658e-07
3.10173e-07
-7.52506e-07
3.48271e-07
-8.40067e-07
3.91334e-07
-9.37138e-07
4.391e-07
-1.04398e-06
4.92237e-07
-1.16233e-06
5.5237e-07
-1.29191e-06
6.17963e-07
-1.43279e-06
6.88108e-07
-1.59703e-06
7.71158e-07
-1.78353e-06
8.62321e-07
-1.9827e-06
9.56044e-07
-2.20023e-06
1.05949e-06
-2.44067e-06
1.17411e-06
-2.70507e-06
1.30019e-06
-2.98843e-06
1.43974e-06
-3.30221e-06
1.58854e-06
-3.65991e-06
1.73824e-06
-4.05919e-06
1.88983e-06
-4.50009e-06
2.04277e-06
-4.98468e-06
2.18673e-06
-5.51667e-06
2.30719e-06
-6.09214e-06
2.38627e-06
-6.70156e-06
2.4003e-06
-7.32016e-06
2.30708e-06
-7.89973e-06
2.0513e-06
1.60625e-06
-8.37747e-06
-1.3963e-11
8.63807e-11
-4.42071e-11
2.23598e-10
-9.34781e-11
3.55497e-10
-1.63525e-10
4.51792e-10
-2.44206e-10
5.27653e-10
-3.36337e-10
5.70901e-10
-4.32718e-10
5.91445e-10
-5.33645e-10
5.85769e-10
-6.27102e-10
5.56058e-10
-7.17552e-10
5.11215e-10
-8.01046e-10
4.473e-10
-8.74234e-10
3.76512e-10
-9.3763e-10
2.989e-10
-9.91787e-10
2.23203e-10
-1.03836e-09
1.57154e-10
-1.07913e-09
1.06211e-10
-1.11538e-09
7.44835e-11
-1.1507e-09
6.64823e-11
-1.18772e-09
8.40796e-11
-1.23161e-09
1.30779e-10
-1.28613e-09
2.05606e-10
-1.35683e-09
3.09451e-10
-1.44862e-09
4.38963e-10
-1.56844e-09
5.94309e-10
-1.72162e-09
7.70842e-10
-1.91307e-09
9.69276e-10
-2.14886e-09
1.18423e-09
-2.43358e-09
1.41772e-09
-2.76742e-09
1.66283e-09
-3.15872e-09
1.91533e-09
-3.60953e-09
2.17655e-09
-4.13583e-09
2.45045e-09
-4.73235e-09
2.74643e-09
-5.40545e-09
3.05173e-09
-6.16504e-09
3.37918e-09
-6.9971e-09
3.74022e-09
-7.94166e-09
4.11896e-09
-8.96214e-09
4.56491e-09
-1.01151e-08
5.02965e-09
-1.13652e-08
5.59208e-09
-1.27338e-08
6.21164e-09
-1.4249e-08
6.92239e-09
-1.58726e-08
7.73911e-09
-1.77531e-08
8.60721e-09
-1.97406e-08
9.66422e-09
-2.20544e-08
1.07785e-08
-2.45584e-08
1.21301e-08
-2.74327e-08
1.36117e-08
-3.05527e-08
1.53317e-08
-3.39347e-08
1.733e-08
-3.77824e-08
1.95125e-08
-4.21873e-08
2.18837e-08
-4.71393e-08
2.45383e-08
-5.26898e-08
2.74855e-08
-5.88763e-08
3.07902e-08
-6.57306e-08
3.43956e-08
-7.354e-08
3.90731e-08
-8.22634e-08
4.34022e-08
-9.19745e-08
4.85864e-08
-1.02701e-07
5.44929e-08
-1.14733e-07
6.11143e-08
-1.28133e-07
6.85827e-08
-1.43104e-07
7.69306e-08
-1.59716e-07
8.62875e-08
-1.7818e-07
9.67255e-08
-1.98937e-07
1.08495e-07
-2.22196e-07
1.21628e-07
-2.48105e-07
1.36438e-07
-2.76795e-07
1.53119e-07
-3.08477e-07
1.71746e-07
-3.43084e-07
1.92285e-07
-3.83407e-07
2.15018e-07
-4.23335e-07
2.40228e-07
-4.69264e-07
2.69593e-07
-5.26166e-07
3.04636e-07
-5.91469e-07
3.41958e-07
-6.6343e-07
3.8213e-07
-7.41744e-07
4.26583e-07
-8.26382e-07
4.7597e-07
-9.18114e-07
5.3083e-07
-1.01752e-06
5.91643e-07
-1.12361e-06
6.58456e-07
-1.2395e-06
7.3385e-07
-1.37234e-06
8.20951e-07
-1.5203e-06
9.19106e-07
-1.68429e-06
1.02631e-06
-1.87013e-06
1.14189e-06
-2.07855e-06
1.2679e-06
-2.31135e-06
1.40691e-06
-2.5708e-06
1.55964e-06
-2.85749e-06
1.72642e-06
-3.17441e-06
1.90545e-06
-3.52944e-06
2.09327e-06
-3.92913e-06
2.28952e-06
-4.37918e-06
2.49282e-06
-4.88783e-06
2.69538e-06
-5.46466e-06
2.88402e-06
-6.11488e-06
3.03649e-06
-6.84194e-06
3.12737e-06
-7.63211e-06
3.09725e-06
-8.43945e-06
2.85865e-06
2.35691e-06
-9.19011e-06
-1.52218e-11
1.01452e-10
-3.91984e-11
2.47445e-10
-8.43148e-11
4.00482e-10
-1.48704e-10
5.16077e-10
-2.24425e-10
6.03233e-10
-3.09822e-10
6.56221e-10
-4.00186e-10
6.81773e-10
-4.93104e-10
6.78638e-10
-5.84635e-10
6.47573e-10
-6.69491e-10
5.96039e-10
-7.47039e-10
5.24742e-10
-8.13589e-10
4.42955e-10
-8.72399e-10
3.57494e-10
-9.23708e-10
2.74364e-10
-9.67449e-10
2.00642e-10
-1.00411e-09
1.4267e-10
-1.03751e-09
1.07606e-10
-1.06909e-09
9.79061e-11
-1.10383e-09
1.18669e-10
-1.14384e-09
1.70673e-10
-1.19553e-09
2.57067e-10
-1.26182e-09
3.75516e-10
-1.34982e-09
5.26721e-10
-1.46261e-09
7.06857e-10
-1.60806e-09
9.15921e-10
-1.78817e-09
1.14904e-09
-2.01046e-09
1.40613e-09
-2.27538e-09
1.6823e-09
-2.58849e-09
1.9755e-09
-2.95682e-09
2.2833e-09
-3.38677e-09
2.60616e-09
-3.87958e-09
2.94289e-09
-4.43621e-09
3.30281e-09
-5.06285e-09
3.67802e-09
-5.76524e-09
4.0811e-09
-6.53965e-09
4.51411e-09
-7.40937e-09
4.98807e-09
-8.35751e-09
5.51241e-09
-9.41947e-09
6.09106e-09
-1.05776e-08
6.74953e-09
-1.18525e-08
7.48627e-09
-1.32611e-08
8.33032e-09
-1.47955e-08
9.2725e-09
-1.65272e-08
1.03383e-08
-1.84169e-08
1.1553e-08
-2.05629e-08
1.29235e-08
-2.29312e-08
1.44977e-08
-2.5586e-08
1.62656e-08
-2.85521e-08
1.82973e-08
-3.18089e-08
2.05859e-08
-3.54413e-08
2.31426e-08
-3.95209e-08
2.59627e-08