/*--------------------------------*- C++ -*----------------------------------*\
| =========                 |                                                 |
| \\      /  F ield         | OpenFOAM: The Open Source CFD Toolbox           |
|  \\    /   O peration     | Version:  2206                                  |
|   \\  /    A nd           | Website:  www.openfoam.com                      |
|    \\/     M anipulation  |                                                 |
\*---------------------------------------------------------------------------*/
FoamFile
{
    version     2.0;
    format      ascii;
    arch        "LSB;label=32;scalar=64";
    class       volVectorField;
    location    "18.3";
    object      ddt0(U);
}
// * * * * * * * * * * * * * * * * * * * * * * * * * * * * * * * * * * * * * //

dimensions      [0 1 -2 0 0 0 0];

internalField   nonuniform List<vector> 
4810
(
(-10.1107 -30.8034 0)
(-10.0251 -23.315 0)
(-9.63045 -16.0128 0)
(-9.29007 -8.95395 0)
(-9.71368 -0.485478 0)
(-9.2194 9.469 0)
(-8.81485 19.4633 0)
(-8.10074 29.0331 0)
(-7.24988 38.0366 0)
(-6.35046 46.3631 0)
(-5.39323 53.8883 0)
(-4.38608 60.488 0)
(-3.34244 66.03 0)
(-2.27509 70.3745 0)
(-1.19223 73.3337 0)
(-0.0816772 74.4934 0)
(1.06936 73.8088 0)
(2.26691 71.8483 0)
(3.51561 68.6949 0)
(4.81959 64.4768 0)
(6.17156 59.3566 0)
(7.55537 53.5215 0)
(8.94697 47.1699 0)
(10.3131 40.4956 0)
(11.6126 33.6697 0)
(12.7925 26.8295 0)
(13.7735 20.0779 0)
(14.6173 13.4066 0)
(15.6887 6.42109 0)
(16.2399 -1.06826 0)
(16.6123 -8.29869 0)
(16.7473 -15.2304 0)
(16.5466 -21.8244 0)
(16.0853 -28.0205 0)
(15.4026 -33.7601 0)
(14.5284 -38.9728 0)
(13.4991 -43.5874 0)
(12.3465 -47.5404 0)
(11.0971 -50.7788 0)
(9.77393 -53.2586 0)
(8.39535 -54.9367 0)
(6.96272 -55.6901 0)
(5.5004 -55.5585 0)
(4.03521 -54.7609 0)
(2.57907 -53.2917 0)
(1.15657 -51.1584 0)
(-0.202885 -48.3859 0)
(-1.47485 -45.0205 0)
(-2.64613 -41.1265 0)
(-3.71275 -36.774 0)
(-4.66963 -32.0319 0)
(-5.50717 -26.9822 0)
(-6.22079 -21.7367 0)
(-6.78433 -16.42 0)
(-7.1097 -11.1462 0)
(-7.71136 -5.74417 0)
(-8.26967 0.749667 0)
(-8.60104 7.40828 0)
(-8.95913 13.9217 0)
(-9.15734 20.1966 0)
(-9.27141 26.1498 0)
(-9.33336 31.7244 0)
(-9.33816 36.8555 0)
(-9.28683 41.4693 0)
(-9.17943 45.4882 0)
(-9.01399 48.8337 0)
(-8.78619 51.4189 0)
(-8.48454 53.1335 0)
(-8.05451 53.75 0)
(-7.48536 53.2991 0)
(-6.82168 52.075 0)
(-6.04668 50.1037 0)
(-5.16132 47.4385 0)
(-4.17602 44.1518 0)
(-3.10474 40.339 0)
(-1.96636 36.1016 0)
(-0.790916 31.5319 0)
(0.383527 26.7337 0)
(1.52262 21.8185 0)
(2.59151 16.8928 0)
(3.49114 12.0537 0)
(4.04626 7.45049 0)
(5.07921 2.98516 0)
(5.89316 -2.43109 0)
(6.61974 -7.92007 0)
(6.95663 -13.1381 0)
(6.93871 -18.0207 0)
(6.6833 -22.6188 0)
(6.20026 -26.919 0)
(5.50788 -30.8739 0)
(4.6416 -34.4329 0)
(3.63566 -37.541 0)
(2.5242 -40.1448 0)
(1.3402 -42.1962 0)
(0.11501 -43.6518 0)
(-1.12188 -44.4506 0)
(-2.32757 -44.4384 0)
(-3.49194 -43.8335 0)
(-4.60181 -42.6862 0)
(-5.64445 -41.0132 0)
(-6.60844 -38.8374 0)
(-7.4849 -36.1902 0)
(-8.26796 -33.1114 0)
(-8.95508 -29.6501 0)
(-9.546 -25.8584 0)
(-10.0412 -21.7944 0)
(-10.445 -17.526 0)
(-10.7475 -13.1149 0)
(-10.9776 -8.58337 0)
(-11.3511 -3.74752 0)
(-11.5795 1.6601 0)
(-11.5799 7.1796 0)
(-11.5459 12.6116 0)
(-11.3225 17.8485 0)
(-10.9411 22.7881 0)
(-10.4237 27.3399 0)
(-9.77165 31.4175 0)
(-8.99274 34.9415 0)
(-8.09559 37.8405 0)
(-7.08891 40.0451 0)
(-5.97634 41.4685 0)
(-4.73957 41.928 0)
(-3.41341 41.5477 0)
(-2.04379 40.5445 0)
(-0.64071 38.9659 0)
(0.781141 36.868 0)
(2.20015 34.3143 0)
(3.59497 31.3725 0)
(4.94388 28.1105 0)
(6.22438 24.5903 0)
(7.41975 20.8727 0)
(8.49395 16.9876 0)
(9.50753 12.9876 0)
(10.4283 8.69487 0)
(11.4206 4.29359 0)
(11.9452 -0.7922 0)
(12.5127 -4.6687 0)
(12.6375 -11.8241 0)
(-12.2164 -30.7044 0)
(-12.3084 -23.4224 0)
(-12.0989 -16.2387 0)
(-12.0323 -9.05862 0)
(-12.3767 -0.486474 0)
(-11.9214 9.11936 0)
(-11.5593 18.7761 0)
(-10.8703 28.1412 0)
(-9.97211 37.0099 0)
(-8.96193 45.2339 0)
(-7.84619 52.6774 0)
(-6.64092 59.2111 0)
(-5.36684 64.7042 0)
(-4.04353 69.015 0)
(-2.68457 71.9489 0)
(-1.279 73.0593 0)
(0.174619 72.3307 0)
(1.66804 70.3191 0)
(3.20139 67.1118 0)
(4.77392 62.8456 0)
(6.37464 57.692 0)
(7.98329 51.8473 0)
(9.57221 45.5194 0)
(11.1083 38.9112 0)
(12.5546 32.2006 0)
(13.8594 25.5193 0)
(14.9531 18.9365 0)
(15.9511 12.3837 0)
(17.0992 5.48578 0)
(17.6381 -1.68996 0)
(18.0761 -8.57216 0)
(18.2 -15.1644 0)
(17.9756 -21.4359 0)
(17.4673 -27.3425 0)
(16.7063 -32.8335 0)
(15.7277 -37.8409 0)
(14.5742 -42.2919 0)
(13.2856 -46.1183 0)
(11.8963 -49.2612 0)
(10.4354 -51.67 0)
(8.92455 -53.2917 0)
(7.36191 -53.9908 0)
(5.77182 -53.846 0)
(4.17993 -53.0497 0)
(2.59831 -51.6036 0)
(1.04705 -49.5221 0)
(-0.449654 -46.829 0)
(-1.86889 -43.5634 0)
(-3.1945 -39.7813 0)
(-4.41676 -35.55 0)
(-5.52529 -30.9429 0)
(-6.50725 -26.0427 0)
(-7.35172 -20.9503 0)
(-8.01057 -15.7782 0)
(-8.47119 -10.6095 0)
(-9.29977 -5.10713 0)
(-9.79101 1.34995 0)
(-10.2311 7.84177 0)
(-10.6071 14.2152 0)
(-10.8118 20.3757 0)
(-10.9131 26.2349 0)
(-10.9299 31.7268 0)
(-10.8607 36.7795 0)
(-10.7093 41.3161 0)
(-10.4775 45.2582 0)
(-10.1651 48.5248 0)
(-9.77237 51.0242 0)
(-9.28994 52.6275 0)
(-8.65044 53.065 0)
(-7.86864 52.4996 0)
(-6.98807 51.1505 0)
(-5.99533 49.0543 0)
(-4.89445 46.2732 0)
(-3.70047 42.8885 0)
(-2.43311 38.9965 0)
(-1.11658 34.7043 0)
(0.220045 30.1235 0)
(1.53924 25.3629 0)
(2.80002 20.5275 0)
(3.95389 15.7263 0)
(4.8959 11.0664 0)
(5.70946 6.6079 0)
(6.96454 1.82068 0)
(7.77338 -3.43041 0)
(8.51346 -8.47931 0)
(8.88699 -13.3142 0)
(8.91921 -17.8879 0)
(8.6829 -22.2007 0)
(8.18851 -26.2382 0)
(7.45395 -29.9622 0)
(6.5118 -33.3267 0)
(5.39784 -36.2803 0)
(4.14976 -38.77 0)
(2.80551 -40.7468 0)
(1.4014 -42.1662 0)
(-0.0292538 -42.9643 0)
(-1.44346 -42.9933 0)
(-2.81926 -42.4378 0)
(-4.14266 -41.3578 0)
(-5.39834 -39.7668 0)
(-6.57358 -37.686 0)
(-7.65678 -35.1433 0)
(-8.6394 -32.1754 0)
(-9.51622 -28.8284 0)
(-10.2845 -25.1525 0)
(-10.9428 -21.2023 0)
(-11.4918 -17.0387 0)
(-11.9258 -12.7133 0)
(-12.2825 -8.22974 0)
(-12.7192 -3.42607 0)
(-12.9542 1.83921 0)
(-12.9699 7.17402 0)
(-12.9038 12.42 0)
(-12.6305 17.4748 0)
(-12.1802 22.2391 0)
(-11.5727 26.6243 0)
(-10.8119 30.5458 0)
(-9.90802 33.9237 0)
(-8.87213 36.686 0)
(-7.71405 38.764 0)
(-6.43809 40.063 0)
(-5.03008 40.3858 0)
(-3.54047 39.9486 0)
(-2.01191 38.902 0)
(-0.458139 37.2983 0)
(1.10374 35.1979 0)
(2.65079 32.6662 0)
(4.16066 29.7707 0)
(5.6123 26.5781 0)
(6.98446 23.1476 0)
(8.2663 19.5372 0)
(9.42583 15.7579 0)
(10.5562 11.8468 0)
(11.5442 7.63543 0)
(12.5488 3.39357 0)
(13.1021 -1.4205 0)
(13.6679 -5.06188 0)
(13.771 -11.8125 0)
(-14.2406 -30.3779 0)
(-14.5144 -23.3107 0)
(-14.5029 -16.2581 0)
(-14.6597 -9.01456 0)
(-14.9735 -0.490084 0)
(-14.5937 8.79122 0)
(-14.2544 18.1277 0)
(-13.5764 27.2388 0)
(-12.6452 35.9072 0)
(-11.5454 43.9688 0)
(-10.2908 51.2781 0)
(-8.90352 57.701 0)
(-7.41055 63.1082 0)
(-5.8391 67.3569 0)
(-4.20859 70.2389 0)
(-2.50636 71.285 0)
(-0.74557 70.5132 0)
(1.0485 68.4604 0)
(2.87242 65.2171 0)
(4.71728 60.9248 0)
(6.56552 55.7655 0)
(8.39384 49.9446 0)
(10.1696 43.6744 0)
(11.8603 37.1626 0)
(13.4322 30.5889 0)
(14.8378 24.0794 0)
(16.0339 17.6759 0)
(17.1759 11.2473 0)
(18.3121 4.48814 0)
(18.9124 -2.33887 0)
(19.3777 -8.85973 0)
(19.4935 -15.0906 0)
(19.2545 -21.012 0)
(18.7089 -26.5976 0)
(17.881 -31.8078 0)
(16.8071 -36.5821 0)
(15.5341 -40.8492 0)
(14.109 -44.538 0)
(12.5749 -47.5829 0)
(10.9691 -49.9248 0)
(9.32016 -51.4984 0)
(7.62651 -52.1513 0)
(5.9149 -51.996 0)
(4.20294 -51.2027 0)
(2.5018 -49.7783 0)
(0.828764 -47.7405 0)
(-0.796323 -45.1169 0)
(-2.35231 -41.9439 0)
(-3.81908 -38.2709 0)
(-5.18107 -34.1623 0)
(-6.42535 -29.6943 0)
(-7.53881 -24.9519 0)
(-8.50207 -20.0274 0)
(-9.25717 -15.0109 0)
(-9.87908 -9.92228 0)
(-10.8351 -4.33776 0)
(-11.3271 1.98545 0)
(-11.8509 8.30416 0)
(-12.2328 14.5236 0)
(-12.4339 20.5453 0)
(-12.5116 26.2812 0)
(-12.4751 31.6593 0)
(-12.3245 36.6035 0)
(-12.0646 41.035 0)
(-11.699 44.8731 0)
(-11.2306 48.0363 0)
(-10.6613 50.4289 0)
(-9.97889 51.8983 0)
(-9.10993 52.1349 0)
(-8.10745 51.4501 0)
(-7.00002 49.975 0)
(-5.7825 47.7582 0)
(-4.46525 44.8689 0)
(-3.06741 41.3963 0)
(-1.61203 37.446 0)
(-0.127717 33.129 0)
(1.35026 28.5579 0)
(2.78638 23.8515 0)
(4.14676 19.124 0)
(5.36842 14.471 0)
(6.36909 9.96311 0)
(7.5084 5.50735 0)
(8.71405 0.553788 0)
(9.59649 -4.36692 0)
(10.3349 -9.0696 0)
(10.7263 -13.5608 0)
(10.801 -17.8033 0)
(10.5865 -21.7984 0)
(10.0877 -25.538 0)
(9.32214 -28.9939 0)
(8.31839 -32.1273 0)
(7.11156 -34.8923 0)
(5.74148 -37.2377 0)
(4.24996 -39.1145 0)
(2.67762 -40.4761 0)
(1.06228 -41.2571 0)
(-0.550545 -41.3152 0)
(-2.12958 -40.8072 0)
(-3.65733 -39.7945 0)
(-5.1157 -38.2872 0)
(-6.49097 -36.3055 0)
(-7.76943 -33.8741 0)
(-8.93989 -31.0269 0)
(-9.99461 -27.8066 0)
(-10.9288 -24.2616 0)
(-11.7393 -20.4417 0)
(-12.4237 -16.4008 0)
(-12.9809 -12.1813 0)
(-13.45 -7.7762 0)
(-13.9366 -3.0576 0)
(-14.1812 2.02681 0)
(-14.2086 7.15118 0)
(-14.1112 12.1868 0)
(-13.7906 17.0359 0)
(-13.2753 21.6032 0)
(-12.5838 25.8018 0)
(-11.7223 29.5483 0)
(-10.7022 32.7644 0)
(-9.53656 35.3766 0)
(-8.23634 37.3113 0)
(-6.8036 38.4751 0)
(-5.23212 38.6634 0)
(-3.59222 38.1726 0)
(-1.91713 37.09 0)
(-0.224535 35.4733 0)
(1.46444 33.3843 0)
(3.12565 30.8893 0)
(4.73615 28.0549 0)
(6.27604 24.9464 0)
(7.72661 21.6161 0)
(9.07895 18.1114 0)
(10.3123 14.4351 0)
(11.5447 10.6152 0)
(12.5563 6.52442 0)
(13.5563 2.48558 0)
(14.1258 -2.04745 0)
(14.6804 -5.45685 0)
(14.758 -11.7788 0)
(-16.15 -29.825 0)
(-16.6097 -22.9867 0)
(-16.8054 -16.0787 0)
(-17.1518 -8.83081 0)
(-17.4644 -0.448194 0)
(-17.1792 8.50193 0)
(-16.8618 17.5077 0)
(-16.1888 26.3249 0)
(-15.229 34.74 0)
(-14.0533 42.5832 0)
(-12.6778 49.7061 0)
(-11.1272 55.9743 0)
(-9.43098 61.2593 0)
(-7.6218 65.417 0)
(-5.72535 68.2232 0)
(-3.72757 69.1708 0)
(-1.66276 68.3568 0)
(0.429231 66.2678 0)
(2.53831 63.0034 0)
(4.64716 58.7106 0)
(6.73106 53.5746 0)
(8.76389 47.8087 0)
(10.7166 41.6344 0)
(12.5526 35.2592 0)
(14.2366 28.8554 0)
(15.7236 22.5373 0)
(17.0099 16.3212 0)
(18.2702 10.033 0)
(19.3704 3.46673 0)
(20.0141 -3.0021 0)
(20.4934 -9.15549 0)
(20.6039 -15.0134 0)
(20.3585 -20.5659 0)
(19.7886 -25.8034 0)
(18.9103 -30.7008 0)
(17.7575 -35.21 0)
(16.3775 -39.2667 0)
(14.8222 -42.7999 0)
(13.143 -45.7394 0)
(11.3869 -48.0167 0)
(9.59208 -49.5509 0)
(7.76275 -50.1701 0)
(5.92769 -50.0101 0)
(4.09788 -49.2229 0)
(2.28145 -47.8207 0)
(0.494073 -45.824 0)
(-1.24734 -43.263 0)
(-2.92454 -40.1759 0)
(-4.51686 -36.6114 0)
(-6.00401 -32.6298 0)
(-7.36713 -28.3056 0)
(-8.59335 -23.7264 0)
(-9.6586 -18.9766 0)
(-10.512 -14.1199 0)
(-11.3158 -9.09495 0)
(-12.3094 -3.47016 0)
(-12.8738 2.66469 0)
(-13.4413 8.79234 0)
(-13.8207 14.8364 0)
(-14.0104 20.6941 0)
(-14.0541 26.2778 0)
(-13.9548 31.5111 0)
(-13.7137 36.315 0)
(-13.3354 40.6107 0)
(-12.8244 44.3188 0)
(-12.1879 47.3543 0)
(-11.4301 49.6105 0)
(-10.527 50.9152 0)
(-9.41408 50.9479 0)
(-8.18458 50.1433 0)
(-6.84367 48.5453 0)
(-5.39697 46.2161 0)
(-3.86241 43.2334 0)
(-2.26397 39.6926 0)
(-0.631702 35.7041 0)
(1.00181 31.3868 0)
(2.60154 26.8597 0)
(4.1319 22.2391 0)
(5.55603 17.6334 0)
(6.80889 13.1238 0)
(7.93578 8.7308 0)
(9.34086 4.19168 0)
(10.386 -0.685667 0)
(11.3502 -5.29686 0)
(12.0728 -9.68357 0)
(12.4731 -13.8365 0)
(12.573 -17.7405 0)
(12.3725 -21.4032 0)
(11.8711 -24.8222 0)
(11.0817 -27.9803 0)
(10.0277 -30.8494 0)
(8.74178 -33.3918 0)
(7.26434 -35.5618 0)
(5.64001 -37.3117 0)
(3.9132 -38.5939 0)
(2.12635 -39.3415 0)
(0.327502 -39.4166 0)
(-1.44238 -38.9545 0)
(-3.16133 -38.0098 0)
(-4.80929 -36.5891 0)
(-6.37043 -34.7106 0)
(-7.82968 -32.3979 0)
(-9.17336 -29.6811 0)
(-10.3914 -26.5996 0)
(-11.4775 -23.1992 0)
(-12.4272 -19.5253 0)
(-13.2364 -15.6244 0)
(-13.9062 -11.5312 0)
(-14.4724 -7.23601 0)
(-14.9981 -2.64952 0)
(-15.2533 2.22135 0)
(-15.2882 7.11187 0)
(-15.1603 11.915 0)
(-14.7948 16.537 0)
(-14.219 20.8863 0)
(-13.45 24.8791 0)
(-12.4958 28.433 0)
(-11.3687 31.4703 0)
(-10.0814 33.9191 0)
(-8.64545 35.7009 0)
(-7.05759 36.7011 0)
(-5.33277 36.7786 0)
(-3.55412 36.2367 0)
(-1.74575 35.1268 0)
(0.068833 33.5083 0)
(1.86521 31.444 0)
(3.61895 28.9993 0)
(5.30925 26.2394 0)
(6.91937 23.2247 0)
(8.43417 20.0014 0)
(9.84945 16.6078 0)
(11.1541 13.0388 0)
(12.46 9.32664 0)
(13.4569 5.40639 0)
(14.4467 1.59699 0)
(15.014 -2.65566 0)
(15.5487 -5.83736 0)
(15.5934 -11.7203 0)
(-17.9161 -29.0473 0)
(-18.5631 -22.4503 0)
(-18.9654 -15.7024 0)
(-19.4775 -8.50904 0)
(-19.8065 -0.337905 0)
(-19.625 8.25779 0)
(-19.3322 16.9089 0)
(-18.6693 25.3975 0)
(-17.6969 33.519 0)
(-16.4692 41.1025 0)
(-14.9973 47.9933 0)
(-13.2952 54.054 0)
(-11.3975 59.1649 0)
(-9.34647 63.1879 0)
(-7.17778 65.8853 0)
(-4.88037 66.7142 0)
(-2.51607 65.865 0)
(-0.134631 63.7552 0)
(2.24645 60.4932 0)
(4.60342 56.2311 0)
(6.90526 51.1571 0)
(9.1197 45.4846 0)
(11.2142 39.4375 0)
(13.1591 33.2264 0)
(14.9243 27.0178 0)
(16.4708 20.9065 0)
(17.8262 14.8782 0)
(19.1631 8.74349 0)
(20.2143 2.42133 0)
(20.9124 -3.67659 0)
(21.396 -9.4572 0)
(21.5077 -14.9319 0)
(21.2654 -20.1007 0)
(20.6839 -24.9707 0)
(19.7748 -29.5294 0)
(18.5654 -33.7429 0)
(17.099 -37.5587 0)
(15.4285 -40.912 0)
(13.6111 -43.731 0)
(11.7036 -45.9394 0)
(9.75584 -47.4414 0)
(7.78238 -48.0426 0)
(5.81772 -47.8877 0)
(3.86901 -47.1138 0)
(1.94032 -45.738 0)
(0.0450912 -43.7841 0)
(-1.80179 -41.2841 0)
(-3.58424 -38.279 0)
(-5.28342 -34.8202 0)
(-6.87786 -30.9689 0)
(-8.34561 -26.7977 0)
(-9.66911 -22.3875 0)
(-10.8171 -17.8114 0)
(-11.7676 -13.1056 0)
(-12.7554 -8.1308 0)
(-13.7515 -2.53143 0)
(-14.3818 3.38042 0)
(-14.9766 9.2986 0)
(-15.3466 15.1455 0)
(-15.5162 20.8135 0)
(-15.5153 26.2158 0)
(-15.3426 31.273 0)
(-15.0006 35.9047 0)
(-14.4945 40.0326 0)
(-13.8309 43.5809 0)
(-13.019 46.4662 0)
(-12.0647 48.567 0)
(-10.9224 49.6404 0)
(-9.5687 49.5152 0)
(-8.09892 48.5704 0)
(-6.51461 46.8484 0)
(-4.8312 44.4157 0)
(-3.07814 41.3578 0)
(-1.28891 37.7776 0)
(0.502776 33.7882 0)
(2.26075 29.5084 0)
(3.95055 25.0582 0)
(5.54069 20.5507 0)
(6.99326 16.0827 0)
(8.27683 11.7066 0)
(9.57807 7.35317 0)
(10.9881 2.75 0)
(12.0467 -1.87285 0)
(13.0123 -6.20982 0)
(13.7044 -10.2978 0)
(14.1048 -14.1225 0)
(14.2166 -17.6875 0)
(14.0241 -21.0071 0)
(13.5207 -24.0876 0)
(12.7117 -26.9251 0)
(11.6161 -29.5031 0)
(10.2634 -31.794 0)
(8.6926 -33.7604 0)
(6.95024 -35.3577 0)
(5.08402 -36.5385 0)
(3.13993 -37.2358 0)
(1.16939 -37.3148 0)
(-0.776346 -36.8966 0)
(-2.67082 -36.0201 0)
(-4.49263 -34.6891 0)
(-6.22313 -32.919 0)
(-7.84618 -30.732 0)
(-9.3462 -28.1551 0)
(-10.7112 -25.224 0)
(-11.9334 -21.9807 0)
(-13.0078 -18.4669 0)
(-13.9292 -14.7218 0)
(-14.6989 -10.7751 0)
(-15.3456 -6.62119 0)
(-15.8996 -2.20892 0)
(-16.1637 2.41922 0)
(-16.2012 7.05332 0)
(-16.045 11.603 0)
(-15.64 15.9797 0)
(-15.0112 20.0956 0)
(-14.1739 23.8675 0)
(-13.136 27.2134 0)
(-11.9068 30.0545 0)
(-10.5003 32.3175 0)
(-8.92926 33.9287 0)
(-7.18812 34.7491 0)
(-5.32199 34.7423 0)
(-3.41456 34.1534 0)
(-1.48644 33.029 0)
(0.434781 31.4261 0)
(2.32204 29.4056 0)
(4.15048 27.0288 0)
(5.90058 24.3564 0)
(7.55908 21.4428 0)
(9.11416 18.3268 0)
(10.5707 15.0408 0)
(11.929 11.5809 0)
(13.2499 8.00011 0)
(14.2191 4.29589 0)
(15.1871 0.722821 0)
(15.7403 -3.24683 0)
(16.2559 -6.19827 0)
(16.2697 -11.6327 0)
(-19.5115 -28.0462 0)
(-20.3411 -21.704 0)
(-20.9416 -15.1378 0)
(-21.6019 -8.05891 0)
(-21.9616 -0.156631 0)
(-21.8977 8.06497 0)
(-21.6484 16.3488 0)
(-21.0137 24.4892 0)
(-20.0335 32.2773 0)
(-18.741 39.541 0)
(-17.1506 46.1333 0)
(-15.2973 51.9316 0)
(-13.2163 56.8246 0)
(-10.9528 60.6779 0)
(-8.54631 63.239 0)
(-5.97986 63.929 0)
(-3.3409 63.0507 0)
(-0.691136 60.9344 0)
(1.94245 57.6968 0)
(4.52983 53.4937 0)
(7.03506 48.5165 0)
(9.42255 42.9804 0)
(11.6564 37.1064 0)
(13.7058 31.0989 0)
(15.5425 25.1142 0)
(17.1376 19.2308 0)
(18.5499 13.4037 0)
(19.9126 7.44529 0)
(20.8731 1.39609 0)
(21.5895 -4.35082 0)
(22.0465 -9.77255 0)
(22.1504 -14.8711 0)
(21.9195 -19.6518 0)
(21.3513 -24.1342 0)
(20.4399 -28.3259 0)
(19.2055 -32.2097 0)
(17.6841 -35.7486 0)
(15.9255 -38.8882 0)
(13.9893 -41.5614 0)
(11.9401 -43.6882 0)
(9.83959 -45.1588 0)
(7.71514 -45.7581 0)
(5.61083 -45.6225 0)
(3.53645 -44.8745 0)
(1.4939 -43.5342 0)
(-0.505969 -41.6293 0)
(-2.451 -39.1945 0)
(-4.32659 -36.2732 0)
(-6.11514 -32.9199 0)
(-7.79637 -29.199 0)
(-9.3494 -25.1833 0)
(-10.7539 -20.9468 0)
(-11.9744 -16.5459 0)
(-13.0312 -11.9763 0)
(-14.1647 -7.04319 0)
(-15.1165 -1.54634 0)
(-15.8309 4.11738 0)
(-16.4248 9.8086 0)
(-16.7761 15.4334 0)
(-16.9159 20.8842 0)
(-16.8599 26.0765 0)
(-16.6052 30.9285 0)
(-16.1533 35.36 0)
(-15.5086 39.2951 0)
(-14.6787 42.6585 0)
(-13.676 45.3628 0)
(-12.5055 47.274 0)
(-11.1076 48.093 0)
(-9.50326 47.8033 0)
(-7.7887 46.7193 0)
(-5.97081 44.8845 0)
(-4.07294 42.3706 0)
(-2.13021 39.268 0)
(-0.178383 35.6825 0)
(1.74564 31.7287 0)
(3.60402 27.5247 0)
(5.36366 23.1879 0)
(6.99602 18.8219 0)
(8.46563 14.4995 0)
(9.80534 10.2324 0)
(11.2485 5.87921 0)
(12.5406 1.3266 0)
(13.6086 -3.02264 0)
(14.5233 -7.09923 0)
(15.1692 -10.9023 0)
(15.5508 -14.4159 0)
(15.6572 -17.6514 0)
(15.4669 -20.6263 0)
(14.9669 -23.3557 0)
(14.1535 -25.849 0)
(13.0342 -28.1062 0)
(11.6328 -30.1143 0)
(9.98803 -31.8467 0)
(8.14746 -33.2649 0)
(6.16177 -34.3214 0)
(4.07908 -34.9509 0)
(1.95515 -35.024 0)
(-0.147439 -34.6496 0)
(-2.19886 -33.8426 0)
(-4.17643 -32.6058 0)
(-6.05848 -30.9503 0)
(-7.82662 -28.8964 0)
(-9.46489 -26.4691 0)
(-10.9591 -23.6993 0)
(-12.3004 -20.6252 0)
(-13.4835 -17.2848 0)
(-14.5031 -13.7116 0)
(-15.3592 -9.9328 0)
(-16.0716 -5.95092 0)
(-16.6467 -1.74828 0)
(-16.92 2.61658 0)
(-16.9594 6.9809 0)
(-16.7788 11.264 0)
(-16.3352 15.3788 0)
(-15.6512 19.2412 0)
(-14.7422 22.771 0)
(-13.617 25.8866 0)
(-12.29 28.5128 0)
(-10.773 30.5776 0)
(-9.07624 31.9996 0)
(-7.19739 32.639 0)
(-5.21011 32.5616 0)
(-3.19047 31.9373 0)
(-1.16146 30.8122 0)
(0.847247 29.2405 0)
(2.80788 27.2802 0)
(4.69666 24.988 0)
(6.4957 22.4179 0)
(8.19483 19.6168 0)
(9.78489 16.6158 0)
(11.2778 13.4438 0)
(12.6671 10.1109 0)
(13.9329 6.69327 0)
(14.8966 3.23481 0)
(15.8062 -0.109458 0)
(16.319 -3.80426 0)
(16.7989 -6.53746 0)
(16.7685 -11.5279 0)
(-20.905 -26.8379 0)
(-21.9133 -20.7647 0)
(-22.7115 -14.399 0)
(-23.5202 -7.47813 0)
(-23.9249 0.124434 0)
(-23.983 7.9616 0)
(-23.7599 15.8439 0)
(-23.1168 23.5766 0)
(-22.1023 30.971 0)
(-20.7504 37.8703 0)
(-19.0745 44.1323 0)
(-17.1031 49.6374 0)
(-14.8731 54.2824 0)
(-12.4307 57.9365 0)
(-9.81436 60.3294 0)
(-7.00412 60.8563 0)
(-4.12194 59.9469 0)
(-1.23094 57.8354 0)
(1.6304 54.6437 0)
(4.42334 50.5271 0)
(7.10596 45.6771 0)
(9.64014 40.309 0)
(11.9901 34.6421 0)
(14.1256 28.872 0)
(16.0182 23.1401 0)
(17.6496 17.5041 0)
(19.1075 11.895 0)
(20.4746 6.15539 0)
(21.3583 0.4215 0)
(22.0831 -4.98228 0)
(22.5088 -10.056 0)
(22.5965 -14.7932 0)
(22.3624 -19.2023 0)
(21.7959 -23.3068 0)
(20.8895 -27.1235 0)
(19.6514 -30.6545 0)
(18.1053 -33.8829 0)
(16.2924 -36.7712 0)
(14.2688 -39.2634 0)
(12.1016 -41.2819 0)
(9.86084 -42.7073 0)
(7.58596 -43.3051 0)
(5.33737 -43.2015 0)
(3.13099 -42.4953 0)
(0.970435 -41.2055 0)
(-1.13389 -39.3612 0)
(-3.17212 -37.0008 0)
(-5.13193 -34.1716 0)
(-6.99681 -30.931 0)
(-8.74756 -27.346 0)
(-10.3654 -23.4887 0)
(-11.8282 -19.4246 0)
(-13.1059 -15.1917 0)
(-14.2732 -10.7448 0)
(-15.515 -5.87726 0)
(-16.4073 -0.554035 0)
(-17.1878 4.86359 0)
(-17.772 10.3155 0)
(-18.105 15.6998 0)
(-18.2133 20.9124 0)
(-18.0946 25.866 0)
(-17.7433 30.478 0)
(-17.1621 34.6706 0)
(-16.3569 38.3731 0)
(-15.34 41.5179 0)
(-14.1299 44.0175 0)
(-12.7332 45.7107 0)
(-11.0801 46.2483 0)
(-9.24245 45.8181 0)
(-7.30161 44.6105 0)
(-5.27183 42.6831 0)
(-3.18242 40.113 0)
(-1.07329 36.9944 0)
(1.01621 33.4353 0)
(3.04671 29.5509 0)
(4.98149 25.4568 0)
(6.79044 21.2612 0)
(8.44728 17.0517 0)
(9.93691 12.8741 0)
(11.3692 8.6893 0)
(12.8728 4.35773 0)
(14.0366 -0.0156713 0)
(15.1071 -4.10534 0)
(15.9565 -7.92793 0)
(16.5522 -11.4549 0)
(16.8992 -14.6722 0)
(16.9779 -17.5913 0)
(16.766 -20.2306 0)
(16.2461 -22.6114 0)
(15.4078 -24.7546 0)
(14.2532 -26.6753 0)
(12.8017 -28.3789 0)
(11.0898 -29.8535 0)
(9.16601 -31.0696 0)
(7.08216 -31.9805 0)
(4.88599 -32.518 0)
(2.63884 -32.5772 0)
(0.40932 -32.241 0)
(-1.7717 -31.5026 0)
(-3.87981 -30.362 0)
(-5.89086 -28.8265 0)
(-7.78313 -26.9128 0)
(-9.53982 -24.6435 0)
(-11.1458 -22.045 0)
(-12.5911 -19.1503 0)
(-13.8701 -15.9934 0)
(-14.9776 -12.6043 0)
(-15.9103 -9.00954 0)
(-16.6735 -5.22524 0)
(-17.2559 -1.26314 0)
(-17.5277 2.81628 0)
(-17.5487 6.88928 0)
(-17.3249 10.8815 0)
(-16.8324 14.7145 0)
(-16.0942 18.3099 0)
(-15.1247 21.5869 0)
(-13.9318 24.4639 0)
(-12.5231 26.863 0)
(-10.9061 28.7108 0)
(-9.08905 29.9344 0)
(-7.08359 30.3937 0)
(-4.99742 30.2604 0)
(-2.88573 29.6138 0)
(-0.776355 28.5027 0)
(1.29869 26.9769 0)
(3.31214 25.0908 0)
(5.24334 22.8947 0)
(7.07594 20.4341 0)
(8.80367 17.7497 0)
(10.4214 14.8684 0)
(11.9398 11.8234 0)
(13.3244 8.65133 0)
(14.5082 5.43393 0)
(15.4561 2.22152 0)
(16.3042 -0.888569 0)
(16.7712 -4.30499 0)
(17.2128 -6.8251 0)
(17.1268 -11.3829 0)
(-22.0941 -25.4191 0)
(-23.2831 -19.6138 0)
(-24.2735 -13.4597 0)
(-25.204 -6.75403 0)
(-25.6281 0.481461 0)
(-25.7609 7.88488 0)
(-25.5471 15.3317 0)
(-24.9098 22.6389 0)
(-23.887 29.6252 0)
(-22.4966 36.1361 0)
(-20.7532 42.0357 0)
(-18.6863 47.2142 0)
(-16.3366 51.5769 0)
(-13.7508 54.9949 0)
(-10.9527 57.1852 0)
(-7.92465 57.5229 0)
(-4.83667 56.5845 0)
(-1.73989 54.4888 0)
(1.31451 51.3622 0)
(4.28078 47.3601 0)
(7.1114 42.6712 0)
(9.76412 37.5066 0)
(12.2029 32.08 0)
(14.3997 26.5779 0)
(16.3277 21.1258 0)
(17.9816 15.7587 0)
(19.4649 10.3823 0)
(20.7599 4.88418 0)
(21.6329 -0.515577 0)
(22.3318 -5.59093 0)
(22.7261 -10.3288 0)
(22.8062 -14.7144 0)
(22.5811 -18.7575 0)
(22.0331 -22.4852 0)
(21.1488 -25.9234 0)
(19.927 -29.0885 0)
(18.38 -31.9818 0)
(16.5381 -34.5856 0)
(14.4509 -36.8607 0)
(12.1855 -38.7391 0)
(9.81795 -40.0986 0)
(7.40021 -40.6926 0)
(5.01156 -40.6285 0)
(2.67538 -39.9778 0)
(0.398982 -38.7544 0)
(-1.80635 -36.9862 0)
(-3.93159 -34.7132 0)
(-5.96653 -31.9863 0)
(-7.89686 -28.867 0)
(-9.70574 -25.4246 0)
(-11.3767 -21.7294 0)
(-12.8872 -17.8368 0)
(-14.2249 -13.7611 0)
(-15.5027 -9.41727 0)
(-16.7513 -4.64187 0)
(-17.6654 0.444496 0)
(-18.4599 5.614 0)
(-19.0073 10.8091 0)
(-19.2906 15.9246 0)
(-19.3235 20.8631 0)
(-19.1048 25.5411 0)
(-18.6325 29.8786 0)
(-17.9091 33.8031 0)
(-16.9434 37.2508 0)
(-15.7522 40.1583 0)
(-14.3552 42.4331 0)
(-12.7412 43.8896 0)
(-10.8434 44.1441 0)
(-8.80124 43.5832 0)
(-6.65759 42.2671 0)
(-4.43951 40.2678 0)
(-2.18557 37.6674 0)
(0.0608879 34.5643 0)
(2.25801 31.0667 0)
(4.3656 27.2864 0)
(6.34949 23.3324 0)
(8.18446 19.3006 0)
(9.84939 15.2557 0)
(11.3691 11.2102 0)
(12.8906 7.08889 0)
(14.3118 2.84291 0)
(15.455 -1.27454 0)
(16.4718 -5.12791 0)
(17.2506 -8.70362 0)
(17.7944 -11.9624 0)
(18.1001 -14.8931 0)
(18.1458 -17.5026 0)
(17.9088 -19.8085 0)
(17.3667 -21.8369 0)
(16.5007 -23.6183 0)
(15.3042 -25.1847 0)
(13.7945 -26.5655 0)
(12.0113 -27.7677 0)
(10.0066 -28.7701 0)
(7.83132 -29.5279 0)
(5.53461 -29.9592 0)
(3.1893 -30.0098 0)
(0.859597 -29.7053 0)
(-1.42424 -29.0326 0)
(-3.6351 -27.9874 0)
(-5.74752 -26.5742 0)
(-7.73894 -24.805 0)
(-9.59121 -22.6985 0)
(-11.2888 -20.2774 0)
(-12.8195 -17.5696 0)
(-14.1756 -14.606 0)
(-15.3484 -11.4163 0)
(-16.3284 -8.0318 0)
(-17.1097 -4.48165 0)
(-17.6771 -0.79345 0)
(-17.9381 2.98173 0)
(-17.9321 6.75198 0)
(-17.6731 10.449 0)
(-17.143 13.9989 0)
(-16.3626 17.3247 0)
(-15.3451 20.3428 0)
(-14.0942 22.9668 0)
(-12.6097 25.1167 0)
(-10.8952 26.7279 0)
(-8.95414 27.7187 0)
(-6.84636 28.0453 0)
(-4.68315 27.8616 0)
(-2.50253 27.2051 0)
(-0.336284 26.122 0)
(1.78315 24.6577 0)
(3.82967 22.858 0)
(5.78591 20.7676 0)
(7.63925 18.4233 0)
(9.38312 15.8595 0)
(11.0164 13.1083 0)
(12.5326 10.2172 0)
(13.8442 7.23391 0)
(14.9767 4.24676 0)
(15.878 1.26444 0)
(16.662 -1.61434 0)
(17.0789 -4.75464 0)
(17.4839 -7.0703 0)
(17.3415 -11.2031 0)
(-23.0441 -23.8082 0)
(-24.386 -18.2902 0)
(-25.5352 -12.3822 0)
(-26.5372 -5.95715 0)
(-27.0088 0.870844 0)
(-27.2142 7.84734 0)
(-27.0204 14.8543 0)
(-26.3951 21.7151 0)
(-25.3668 28.2624 0)
(-23.9465 34.3515 0)
(-22.1503 39.8568 0)
(-20.0087 44.6809 0)
(-17.5658 48.7398 0)
(-14.871 51.8961 0)
(-11.9174 53.797 0)
(-8.72132 54.0007 0)
(-5.47185 53.0196 0)
(-2.21371 50.9433 0)
(0.994756 47.8968 0)
(4.09626 44.0323 0)
(7.03793 39.5329 0)
(9.77562 34.603 0)
(12.2733 29.4473 0)
(14.504 24.2396 0)
(16.4422 19.0886 0)
(18.099 14.009 0)
(19.5888 8.88864 0)
(20.8033 3.66104 0)
(21.6533 -1.4072 0)
(22.3206 -6.16355 0)
(22.6872 -10.5817 0)
(22.7636 -14.6369 0)
(22.5532 -18.3348 0)
(22.0351 -21.7 0)
(21.1919 -24.7627 0)
(20.0135 -27.5512 0)
(18.5004 -30.0847 0)
(16.6699 -32.3676 0)
(14.561 -34.384 0)
(12.2356 -36.0826 0)
(9.76901 -37.3443 0)
(7.22187 -37.9206 0)
(4.69316 -37.902 0)
(2.22024 -37.3192 0)
(-0.18112 -36.1787 0)
(-2.49577 -34.5042 0)
(-4.71234 -32.3353 0)
(-6.82068 -29.7255 0)
(-8.8085 -26.7393 0)
(-10.6626 -23.448 0)
(-12.3694 -19.918 0)
(-13.9085 -16.1933 0)
(-15.295 -12.2657 0)
(-16.6513 -8.02983 0)
(-17.8452 -3.40041 0)
(-18.7688 1.42217 0)
(-19.5301 6.32537 0)
(-20.0194 11.2392 0)
(-20.2391 16.0623 0)
(-20.1935 20.7067 0)
(-19.8756 25.0902 0)
(-19.2836 29.1346 0)
(-18.4222 32.7722 0)
(-17.3035 35.9483 0)
(-15.9483 38.6065 0)
(-14.3752 40.6393 0)
(-12.5378 41.7755 0)
(-10.4353 41.8336 0)
(-8.20839 41.1317 0)
(-5.88878 39.7203 0)
(-3.51284 37.6717 0)
(-1.12715 35.0705 0)
(1.2228 32.0153 0)
(3.49416 28.6118 0)
(5.64861 24.9665 0)
(7.65699 21.1781 0)
(9.49813 17.3233 0)
(11.1669 13.4421 0)
(12.736 9.5143 0)
(14.2985 5.47571 0)
(15.5934 1.39693 0)
(16.7324 -2.46416 0)
(17.6812 -6.08268 0)
(18.3959 -9.41202 0)
(18.886 -12.4108 0)
(19.1413 -15.0653 0)
(19.1427 -17.376 0)
(18.8689 -19.3559 0)
(18.2952 -21.0306 0)
(17.3953 -22.4421 0)
(16.1521 -23.6455 0)
(14.579 -24.692 0)
(12.7233 -25.6097 0)
(10.6439 -26.3877 0)
(8.39357 -26.9672 0)
(6.03307 -27.301 0)
(3.62663 -27.3429 0)
(1.2255 -27.0679 0)
(-1.13696 -26.4609 0)
(-3.4292 -25.5123 0)
(-5.62397 -24.2235 0)
(-7.69629 -22.602 0)
(-9.62561 -20.6627 0)
(-11.3951 -18.4249 0)
(-12.9903 -15.9132 0)
(-14.4007 -13.1563 0)
(-15.6144 -10.1845 0)
(-16.6188 -7.03254 0)
(-17.4008 -3.73777 0)
(-17.9442 -0.338259 0)
(-18.1911 3.12637 0)
(-18.1529 6.58825 0)
(-17.8562 9.98384 0)
(-17.2882 13.2442 0)
(-16.4686 16.2938 0)
(-15.4086 19.0422 0)
(-14.1038 21.3942 0)
(-12.5417 23.273 0)
(-10.7185 24.6258 0)
(-8.65874 25.3746 0)
(-6.48549 25.6153 0)
(-4.26941 25.3921 0)
(-2.04666 24.7406 0)
(0.149997 23.6993 0)
(2.28946 22.3071 0)
(4.35009 20.6032 0)
(6.31588 18.6218 0)
(8.17619 16.3965 0)
(9.92623 13.9639 0)
(11.5522 11.3665 0)
(12.9981 8.6528 0)
(14.2472 5.89338 0)
(15.328 3.13093 0)
(16.1634 0.373611 0)
(16.8827 -2.27582 0)
(17.2525 -5.15042 0)
(17.62 -7.26986 0)
(17.416 -10.9835 0)
(-23.7168 -22.0372 0)
(-25.2013 -16.8134 0)
(-26.4988 -11.1702 0)
(-27.5276 -5.06767 0)
(-28.0857 1.32414 0)
(-28.3366 7.85229 0)
(-28.1592 14.3964 0)
(-27.5464 20.7893 0)
(-26.5156 26.8779 0)
(-25.0745 32.5256 0)
(-23.2414 37.6174 0)
(-21.049 42.069 0)
(-18.5431 45.8064 0)
(-15.7692 48.679 0)
(-12.6916 50.2568 0)
(-9.37816 50.3246 0)
(-6.01215 49.2915 0)
(-2.63781 47.2407 0)
(0.680287 44.2904 0)
(3.87334 40.588 0)
(6.88164 36.306 0)
(9.66141 31.6381 0)
(12.1812 26.7795 0)
(14.415 21.8904 0)
(16.3372 17.0615 0)
(17.9747 12.2841 0)
(19.4401 7.43075 0)
(20.5588 2.48853 0)
(21.4051 -2.25541 0)
(22.0416 -6.70857 0)
(22.393 -10.825 0)
(22.4768 -14.5695 0)
(22.2897 -17.9411 0)
(21.8104 -20.9602 0)
(21.02 -23.6587 0)
(19.9037 -26.0725 0)
(18.4531 -28.2345 0)
(16.6733 -30.17 0)
(14.5905 -31.8888 0)
(12.2559 -33.3626 0)
(9.73121 -34.4811 0)
(7.08371 -35.003 0)
(4.43621 -35.022 0)
(1.83531 -34.5114 0)
(-0.690618 -33.4674 0)
(-3.11827 -31.9063 0)
(-5.431 -29.864 0)
(-7.61607 -27.3932 0)
(-9.66158 -24.5593 0)
(-11.5573 -21.4329 0)
(-13.2918 -18.0751 0)
(-14.8522 -14.518 0)
(-16.2859 -10.7333 0)
(-17.6795 -6.62511 0)
(-18.782 -2.19403 0)
(-19.7096 2.35644 0)
(-20.4104 6.98282 0)
(-20.8299 11.6015 0)
(-20.973 16.1181 0)
(-20.8347 20.4499 0)
(-20.4079 24.5169 0)
(-19.6923 28.2469 0)
(-18.6945 31.5814 0)
(-17.4294 34.4742 0)
(-15.9204 36.8671 0)
(-14.18 38.6297 0)
(-12.1419 39.4381 0)
(-9.86908 39.317 0)
(-7.48588 38.4877 0)
(-5.02503 37.0032 0)
(-2.53029 34.9328 0)
(-0.0526911 32.3613 0)
(2.36209 29.3855 0)
(4.67239 26.1069 0)
(6.84376 22.6221 0)
(8.85222 19.0152 0)
(10.6847 15.3419 0)
(12.3622 11.614 0)
(13.9803 7.79415 0)
(15.4957 3.87665 0)
(16.7406 0.0344187 0)
(17.8485 -3.59201 0)
(18.7357 -6.97603 0)
(19.3978 -10.0579 0)
(19.8363 -12.7988 0)
(20.0375 -15.1803 0)
(19.985 -17.1972 0)
(19.6591 -18.8593 0)
(19.0287 -20.1907 0)
(18.0549 -21.224 0)
(16.7235 -22.0187 0)
(15.0957 -22.7195 0)
(13.1942 -23.3571 0)
(11.0691 -23.9195 0)
(8.78099 -24.358 0)
(6.38967 -24.61 0)
(3.94808 -24.6232 0)
(1.49982 -24.3649 0)
(-0.918916 -23.8141 0)
(-3.27316 -22.957 0)
(-5.53274 -21.7902 0)
(-7.6701 -20.3182 0)
(-9.66102 -18.5511 0)
(-11.4854 -16.5041 0)
(-13.1267 -14.1992 0)
(-14.57 -11.6629 0)
(-15.8002 -8.92702 0)
(-16.8019 -6.02835 0)
(-17.5601 -3.00922 0)
(-18.0647 0.088937 0)
(-18.2901 3.2336 0)
(-18.2139 6.37866 0)
(-17.8784 9.4702 0)
(-17.2751 12.442 0)
(-16.42 15.2159 0)
(-15.3198 17.69 0)
(-13.9524 19.7548 0)
(-12.2891 21.3285 0)
(-10.3389 22.3682 0)
(-8.21824 22.9651 0)
(-6.00897 23.1315 0)
(-3.76725 22.8848 0)
(-1.53138 22.2512 0)
(0.668245 21.262 0)
(2.80572 19.9476 0)
(4.8618 18.3399 0)
(6.82335 16.4722 0)
(8.67973 14.3794 0)
(10.4139 12.0999 0)
(11.9634 9.66815 0)
(13.3426 7.16891 0)
(14.5399 4.6294 0)
(15.5477 2.08501 0)
(16.3311 -0.451152 0)
(16.9806 -2.87582 0)
(17.3017 -5.49138 0)
(17.6359 -7.4215 0)
(17.3657 -10.721 0)
(-24.1118 -20.1199 0)
(-25.7367 -15.1973 0)
(-27.1624 -9.8495 0)
(-28.1918 -4.11569 0)
(-28.8366 1.8269 0)
(-29.1169 7.89743 0)
(-28.9547 13.966 0)
(-28.3528 19.8767 0)
(-27.3186 25.4893 0)
(-25.8602 30.6776 0)
(-23.9993 35.3405 0)
(-21.7733 39.4069 0)
(-19.2317 42.8042 0)
(-16.4116 45.3565 0)
(-13.2496 46.5897 0)
(-9.8795 46.541 0)
(-6.45198 45.4651 0)
(-3.01101 43.4435 0)