/*--------------------------------*- C++ -*----------------------------------*\
| =========                 |                                                 |
| \\      /  F ield         | OpenFOAM: The Open Source CFD Toolbox           |
|  \\    /   O peration     | Version:  2206                                  |
|   \\  /    A nd           | Website:  www.openfoam.com                      |
|    \\/     M anipulation  |                                                 |
\*---------------------------------------------------------------------------*/
FoamFile
{
    version     2.0;
    format      ascii;
    arch        "LSB;label=32;scalar=64";
    class       surfaceScalarField;
    location    "18.9";
    object      ddtCorrDdt0(phi);
}
// * * * * * * * * * * * * * * * * * * * * * * * * * * * * * * * * * * * * * //

dimensions      [0 3 -2 0 0 0 0];

oriented        oriented;

internalField   nonuniform List<scalar> 
5904
(
-0.000102663
-0.000174887
0.0001721
-9.93151e-05
-0.000225217
0.00022187
-9.56318e-05
-0.000271522
0.000267839
-9.16422e-05
-0.000313454
0.000309465
-8.70961e-05
-0.00035034
0.000345794
-8.12594e-05
-0.000380578
0.000374741
-7.22587e-05
-0.000400773
0.000391772
-5.94488e-05
-0.000404175
0.000391365
-4.38478e-05
-0.000393759
0.000378158
-2.57125e-05
-0.000371816
0.000353681
-6.13949e-06
-0.000339858
0.000320285
1.37195e-05
-0.000299818
0.000279959
3.31733e-05
-0.000254089
0.000234635
5.15264e-05
-0.000205545
0.000187192
6.89109e-05
-0.00015663
0.000139246
8.69757e-05
-0.00010846
9.03956e-05
0.000105359
-5.98469e-05
4.14633e-05
0.000119826
-1.12223e-05
-3.24452e-06
0.00012943
3.26647e-05
-4.22683e-05
0.000133725
7.22256e-05
-7.65206e-05
0.000132762
0.000107969
-0.000107006
0.00012739
0.000140265
-0.000134893
0.000118568
0.000170081
-0.000161259
0.000107091
0.000198172
-0.000186695
9.35931e-05
0.000224697
-0.000211199
7.8528e-05
0.00024938
-0.000234315
6.22121e-05
0.000271521
-0.000255205
4.49071e-05
0.000289966
-0.000272661
2.69678e-05
0.00030286
-0.000284921
9.1166e-06
0.000306777
-0.000288926
-7.97701e-06
0.000302095
-0.000285001
-2.38358e-05
0.000290017
-0.000274159
-3.79774e-05
0.000270774
-0.000256633
-4.99561e-05
0.00024508
-0.000233101
-5.9422e-05
0.00021411
-0.000204644
-6.62379e-05
0.000179488
-0.000172672
-7.0629e-05
0.000143125
-0.000138734
-7.32892e-05
0.000106774
-0.000104114
-7.54862e-05
7.13214e-05
-6.91244e-05
-7.8346e-05
3.45067e-05
-3.16469e-05
-8.02229e-05
-7.78303e-06
9.65994e-06
-8.03842e-05
-5.13392e-05
5.15006e-05
-7.90375e-05
-9.41962e-05
9.28495e-05
-7.66294e-05
-0.000134818
0.00013241
-7.35142e-05
-0.000172443
0.000169328
-6.98912e-05
-0.000206665
0.000203042
-6.57728e-05
-0.000237051
0.000232933
-6.08915e-05
-0.000262976
0.000258095
-5.4589e-05
-0.000283239
0.000276937
-4.56033e-05
-0.00029522
0.000286235
-3.47836e-05
-0.000295172
0.000284353
-2.28594e-05
-0.000286423
0.000274499
-1.06664e-05
-0.000269452
0.000257259
1.45732e-06
-0.000246299
0.000234175
1.49221e-05
-0.000219439
0.000205974
2.9072e-05
-0.000187929
0.000173779
4.18841e-05
-0.000153389
0.000140577
5.39345e-05
-0.000118457
0.000106406
6.59073e-05
-8.35515e-05
7.15787e-05
7.75385e-05
-4.83337e-05
3.67025e-05
8.66854e-05
-1.25133e-05
3.36641e-06
9.24434e-05
2.13382e-05
-2.70962e-05
9.45796e-05
5.31195e-05
-5.52556e-05
9.31593e-05
8.27489e-05
-8.13287e-05
8.87887e-05
0.000109865
-0.000105495
8.20848e-05
0.000134719
-0.000128016
7.35479e-05
0.00015753
-0.000148993
6.3602e-05
0.000178214
-0.000168268
5.25686e-05
0.000196515
-0.000185482
4.06828e-05
0.000211965
-0.000200079
2.81563e-05
0.00022375
-0.000211224
1.52948e-05
0.000230301
-0.00021744
2.69552e-06
0.000229723
-0.000217124
-9.31434e-06
0.000223877
-0.000211867
-2.04038e-05
0.000212829
-0.00020174
-3.02525e-05
0.000196902
-0.000187054
-3.85711e-05
0.000176708
-0.00016839
-4.51451e-05
0.000153144
-0.00014657
-4.99083e-05
0.000127344
-0.000122581
-5.3036e-05
0.000100538
-9.74106e-05
-5.50601e-05
7.38431e-05
-7.1819e-05
-5.69767e-05
4.77017e-05
-4.57852e-05
-5.92916e-05
1.99572e-05
-1.76423e-05
-6.06534e-05
-1.14166e-05
1.27784e-05
-6.07148e-05
-4.34314e-05
4.34927e-05
-5.95386e-05
-7.48766e-05
7.37004e-05
-5.73666e-05
-0.000104621
0.000102449
-5.44013e-05
-0.00013205
0.000129085
-5.07767e-05
-0.000156716
0.000153092
-4.65394e-05
-0.00017819
0.000173953
-4.16355e-05
-0.000195931
0.000191027
-3.58292e-05
-0.000209056
0.00020325
-2.85146e-05
-0.000215765
0.00020845
-2.03691e-05
-0.000214655
0.00020651
-1.14015e-05
-0.000208364
0.000199397
-1.36907e-06
-0.000197481
0.000187449
8.89154e-06
-0.000181209
0.000170948
1.84216e-05
-0.000160388
0.000150858
2.73932e-05
-0.000137524
0.000128553
3.57014e-05
-0.000113227
0.000104919
4.3157e-05
-8.7901e-05
8.04453e-05
5.01519e-05
-6.24621e-05
5.54671e-05
5.69185e-05
-3.69468e-05
3.01803e-05
6.24113e-05
-1.05916e-05
5.09876e-06
6.56459e-05
1.54965e-05
-1.87312e-05
6.64704e-05
4.07813e-05
-4.16057e-05
6.49181e-05
6.48767e-05
-6.33244e-05
6.13829e-05
8.71428e-05
-8.36076e-05
5.6237e-05
0.000107522
-0.000102376
4.9808e-05
0.000125937
-0.000119508
4.23756e-05
0.000142212
-0.000134779
3.41387e-05
0.000156142
-0.000147905
2.52863e-05
0.000167298
-0.000158446
1.58964e-05
0.000175151
-0.000165761
6.42724e-06
0.000177885
-0.000168416
-2.71167e-06
0.000176038
-0.000166899
-1.15467e-05
0.000169921
-0.000161086
-2.00684e-05
0.000162017
-0.000153495
-2.67745e-05
0.000145785
-0.000139079
-3.31494e-05
0.000134851
-0.000128476
0.000106966
-0.000101731
-7.51142e-05
-0.000177925
-7.23053e-05
-0.000228026
-6.98185e-05
-0.000274009
-6.76221e-05
-0.000315651
-6.54607e-05
-0.000352502
-6.26978e-05
-0.000383341
-5.81277e-05
-0.000405343
-4.99676e-05
-0.000412335
-3.94697e-05
-0.000404257
-2.66284e-05
-0.000384658
-1.19782e-05
-0.000354509
3.75408e-06
-0.000315551
1.97662e-05
-0.000270101
3.51e-05
-0.000220878
4.9083e-05
-0.000170613
6.22334e-05
-0.000121611
7.68203e-05
-7.44338e-05
9.19816e-05
-2.63836e-05
0.000103156
2.14898e-05
0.000109565
6.5817e-05
0.000110849
0.000106685
0.000107801
0.000143313
0.000101302
0.00017658
9.20719e-05
0.000207402
8.07448e-05
0.000236024
6.7801e-05
0.000262324
5.3593e-05
0.000285729
3.84181e-05
0.000305141
2.26556e-05
0.000318623
7.03154e-06
0.000322401
-7.84228e-06
0.000316969
-2.15328e-05
0.000303708
-3.36019e-05
0.000282843
-4.36348e-05
0.000255113
-5.12552e-05
0.00022173
-5.62374e-05
0.000184471
-5.87049e-05
0.000145593
-5.93149e-05
0.000107384
-5.94068e-05
7.14133e-05
-6.0944e-05
3.60438e-05
-6.22872e-05
-6.43979e-06
-6.17062e-05
-5.19203e-05
-5.96917e-05
-9.62106e-05
-5.70518e-05
-0.000137458
-5.42484e-05
-0.000175246
-5.14437e-05
-0.00020947
-4.86236e-05
-0.000239871
-4.5681e-05
-0.000265919
-4.21548e-05
-0.000286765
-3.70173e-05
-0.000300358
-2.99423e-05
-0.000302247
-2.16459e-05
-0.000294719
-1.18794e-05
-0.000279218
-1.11469e-06
-0.000257064
9.09518e-06
-0.000229649
1.90878e-05
-0.000197922
2.8814e-05
-0.000163115
3.76339e-05
-0.000127277
4.61414e-05
-9.2059e-05
5.54225e-05
-5.76149e-05
6.53712e-05
-2.24619e-05
7.25822e-05
1.41271e-05
7.64513e-05
4.92504e-05
7.68259e-05
8.23743e-05
7.43127e-05
0.000112378
6.94958e-05
0.000139536
6.28242e-05
0.000164202
5.47128e-05
0.000186325
4.54876e-05
0.00020574
3.53975e-05
0.000222055
2.46609e-05
0.000234487
1.35602e-05
0.000241402
2.68012e-06
0.000240603
-7.67818e-06
0.000234235
-1.72183e-05
0.000222369
-2.56486e-05
0.000205333
-3.26824e-05
0.000183742
-3.8067e-05
0.000158529
-4.16573e-05
0.000130935
-4.35331e-05
0.000102414
-4.41804e-05
7.44903e-05
-4.47032e-05
4.82245e-05
-4.63533e-05
2.16073e-05
-4.74913e-05
-1.02786e-05
-4.72379e-05
-4.36848e-05
-4.57854e-05
-7.63291e-05
-4.35678e-05
-0.000106839
-4.08651e-05
-0.000134753
-3.78504e-05
-0.000159731
-3.45289e-05
-0.000181512
-3.08152e-05
-0.000199645
-2.65341e-05
-0.000213337
-2.12693e-05
-0.00022103
-1.54523e-05
-0.000220472
-8.95771e-06
-0.000214859
-2.82969e-06
-0.000203609
3.65594e-06
-0.000187695
1.13023e-05
-0.000168034
1.85644e-05
-0.000144786
2.50025e-05
-0.000119665
3.05029e-05
-9.34014e-05
3.53309e-05
-6.72901e-05
4.04339e-05
-4.20498e-05
4.63319e-05
-1.64896e-05
5.08013e-05
1.10272e-05
5.28808e-05
3.87017e-05
5.26735e-05
6.5084e-05
5.05731e-05
8.92432e-05
4.69151e-05
0.00011118
4.2026e-05
0.000130826
3.61621e-05
0.000148075
2.94973e-05
0.000162807
2.22058e-05
0.00017459
1.43811e-05
0.000182975
6.40134e-06
0.000185865
-1.2809e-06
0.000183721
-8.91951e-06
0.00017756
-1.59026e-05
0.000169
-2.14671e-05
0.000151349
-2.71645e-05
0.000140549
0.000111229
-4.60533e-05
-0.00018107
-4.40587e-05
-0.000230021
-4.3196e-05
-0.000274871
-4.30703e-05
-0.000315776
-4.33191e-05
-0.000352253
-4.34916e-05
-0.000383168
-4.27023e-05
-0.000406132
-3.9188e-05
-0.00041585
-3.36178e-05
-0.000409827
-2.58746e-05
-0.000392401
-1.61511e-05
-0.000364232
-4.86976e-06
-0.000326832
7.31693e-06
-0.000282288
1.94924e-05
-0.000233054
3.068e-05
-0.000181801
4.03185e-05
-0.000131249
4.97729e-05
-8.38882e-05
6.26018e-05
-3.92126e-05
7.52418e-05
8.84986e-06
8.34228e-05
5.76359e-05
8.66165e-05
0.000103491
8.57225e-05
0.000144207
8.14289e-05
0.000180874
7.44199e-05
0.000214411
6.53336e-05
0.00024511
5.46478e-05
0.00027301
4.2738e-05
0.000297639
2.99422e-05
0.000317936
1.66911e-05
0.000331874
3.74452e-06
0.000335348
-8.41796e-06
0.000329131
-1.94354e-05
0.000314725
-2.89748e-05
0.000292383
-3.67263e-05
0.000262864
-4.23398e-05
0.000227343
-4.5497e-05
0.000187628
-4.61213e-05
0.000146217
-4.47062e-05
0.000105969
-4.26049e-05
6.9312e-05
-4.26288e-05
3.60676e-05
-4.40862e-05
-4.98236e-06
-4.21918e-05
-5.38146e-05
-3.93572e-05
-9.90453e-05
-3.65411e-05
-0.000140274
-3.41868e-05
-0.000177601
-3.24732e-05
-0.000211184
-3.1227e-05
-0.000241117
-3.01476e-05
-0.000266998
-2.89418e-05
-0.000287971
-2.70124e-05
-0.000302287
-2.33923e-05
-0.000305867
-1.85349e-05
-0.000299577
-1.22349e-05
-0.000285518
-4.85278e-06
-0.000264446
2.96828e-06
-0.00023747
1.06805e-05
-0.000205634
1.78707e-05
-0.000170306
2.40205e-05
-0.000133426
2.89724e-05
-9.70109e-05
3.43506e-05
-6.29931e-05
4.25848e-05
-3.06962e-05
5.15177e-05
5.19424e-06
5.68032e-05
4.39648e-05
5.86594e-05
8.05181e-05
5.79244e-05
0.000113113
5.49796e-05
0.000142481
5.02196e-05
0.000168962
4.40408e-05
0.000192504
3.67612e-05
0.00021302
2.8636e-05
0.00023018
1.98954e-05
0.000243228
1.08279e-05
0.000250469
1.97894e-06
0.000249452
-6.38914e-06
0.000242603
-1.40452e-05
0.000230025
-2.07732e-05
0.000212061
-2.63359e-05
0.000189305
-3.04689e-05
0.000162662
-3.29396e-05
0.000133405
-3.36788e-05
0.000103153
-3.30293e-05
7.38409e-05
-3.20455e-05
4.72407e-05
-3.29038e-05
2.24657e-05
-3.4203e-05
-8.9795e-06
-3.32931e-05
-4.45946e-05
-3.14571e-05
-7.81651e-05
-2.92465e-05
-0.000109049
-2.69147e-05
-0.000137084
-2.466e-05
-0.000161986
-2.26562e-05
-0.000183516
-2.06003e-05
-0.000201701
-1.8029e-05
-0.000215908
-1.44921e-05
-0.000224567
-1.01059e-05
-0.000224859
-6.2107e-06
-0.000218754
-2.65894e-06
-0.000207161
1.18455e-06
-0.000191538
5.6815e-06
-0.000172531
1.06216e-05
-0.000149726
1.49504e-05
-0.000123994
1.85462e-05
-9.69971e-05
2.14058e-05
-7.01498e-05
2.43422e-05
-4.49861e-05
2.9015e-05
-2.11624e-05
3.53388e-05
4.70334e-06
3.82893e-05
3.57512e-05
3.92063e-05
6.41669e-05
3.84556e-05
8.99939e-05
3.62089e-05
0.000113427
3.28796e-05
0.000134156
2.86753e-05
0.00015228
2.37069e-05
0.000167775
1.81288e-05
0.000180168
1.20926e-05
0.000189011
5.83241e-06
0.000192125
-1.95065e-07
0.000189748
-6.28555e-06
0.00018365
-1.15306e-05
0.000174245
-1.59128e-05
0.000155731
-2.09362e-05
0.000145572
0.00011435
-1.64872e-05
-0.000183406
-1.58172e-05
-0.000230691
-1.64146e-05
-0.000274274
-1.81771e-05
-0.000314014
-2.08157e-05
-0.000349614
-2.38777e-05
-0.000380106
-2.66452e-05
-0.000403365
-2.7597e-05
-0.000414898
-2.67631e-05
-0.000410661
-2.39217e-05
-0.000395242
-1.90453e-05
-0.000369109
-1.23296e-05
-0.000333548
-4.21633e-06
-0.000290401
4.5229e-06
-0.000241793
1.28688e-05
-0.000190147
1.99074e-05
-0.000138288
2.55117e-05
-8.94925e-05
3.27789e-05
-4.64798e-05
4.78806e-05
-6.25178e-06
5.70179e-05
4.84987e-05
6.07881e-05
9.97209e-05
6.14038e-05
0.000143592
5.90174e-05
0.00018326
5.41893e-05
0.000219239
4.74475e-05
0.000251852
3.91864e-05
0.000281271
2.97698e-05
0.000307056
1.95752e-05
0.000328131
9.10372e-06
0.000342346
-7.91972e-07
0.000345244
-9.79469e-06
0.000338134
-1.76055e-05
0.000322536
-2.40292e-05
0.000298806
-2.89541e-05
0.000267789
-3.22566e-05
0.000230646
-3.37219e-05
0.000189093
-3.30682e-05
0.000145563
-3.01602e-05
0.000103061
-2.56341e-05
6.47859e-05
-2.25108e-05
3.29444e-05
-2.64609e-05
-1.03227e-06
-2.14868e-05
-5.87888e-05
-1.77535e-05
-0.000102779
-1.5612e-05
-0.000142416
-1.45814e-05
-0.000178631
-1.40111e-05
-0.000211754
-1.39247e-05
-0.000241204
-1.4437e-05
-0.000266486
-1.52986e-05
-0.00028711
-1.59897e-05
-0.000301596
-1.55828e-05
-0.000306274
-1.42023e-05
-0.000300957
-1.15922e-05
-0.000288129
-7.84177e-06
-0.000268196
-3.28381e-06
-0.000242028
1.74929e-06
-0.000210667
6.82946e-06
-0.000175386
1.13265e-05
-0.000137923
1.46408e-05
-0.000100325
1.6667e-05
-6.50192e-05
2.00454e-05
-3.40747e-05
3.06944e-05
-5.45469e-06
3.70924e-05
3.75668e-05
3.95269e-05
7.80837e-05
4.00423e-05
0.000112598
3.8678e-05
0.000143845
3.57414e-05
0.000171898
3.15054e-05
0.00019674
2.62455e-05
0.00021828
2.0204e-05
0.000236221
1.36205e-05
0.000249811
6.83869e-06
0.000257251
3.36788e-07
0.000255954
-5.66717e-06
0.000248607
-1.10221e-05
0.00023538
-1.56287e-05
0.000216667
-1.93933e-05
0.000193069
-2.21398e-05
0.000165408
-2.36046e-05
0.00013487
-2.35661e-05
0.000103115
-2.1992e-05
7.22668e-05
-1.94669e-05
4.47156e-05
-1.85659e-05
2.15647e-05
-2.14678e-05
-6.07761e-06
-1.8741e-05
-4.73214e-05
-1.63087e-05
-8.05975e-05
-1.45456e-05
-0.000110813
-1.32916e-05
-0.000138338
-1.21212e-05
-0.000163156
-1.09415e-05
-0.000184695
-9.99801e-06
-0.000202644
-9.32062e-06
-0.000216586
-8.43676e-06
-0.000225451
-7.15235e-06
-0.000226143
-5.34343e-06
-0.000220563
-2.75315e-06
-0.000209751
1.84658e-07
-0.000194476
2.78452e-06
-0.000175131
5.02974e-06
-0.000151972
6.9319e-06
-0.000125896
8.61016e-06
-9.86754e-05
9.77844e-06
-7.1318e-05
1.03828e-05
-4.55905e-05
1.22519e-05
-2.30314e-05
1.97629e-05
-2.80767e-06
2.36497e-05
3.18645e-05
2.53847e-05
6.24319e-05
2.55436e-05
8.9835e-05
2.44213e-05
0.000114549
2.26295e-05
0.000135947
2.00518e-05
0.000154857
1.67609e-05
0.000171066
1.29278e-05
0.000184001
8.77199e-06
0.000193167
4.42414e-06
0.000196473
2.80338e-07
0.000193892
-3.86504e-06
0.000187796
-7.29042e-06
0.00017767
-1.03768e-05
0.000158818
-1.40574e-05
0.000149253
0.000116241
1.37474e-05
1.35911e-05
1.10641e-05
6.84973e-06
1.44109e-06
-4.71229e-06
-1.0976e-05
-1.60745e-05
-1.96809e-05
-2.14587e-05
-2.12269e-05
-1.90287e-05
-1.51659e-05
-1.02294e-05
-4.99513e-06
-1.56359e-07
3.91627e-06
8.22979e-06
2.00435e-05
2.99879e-05
3.39559e-05
3.59474e-05
3.51733e-05
3.22819e-05
2.77998e-05
2.19143e-05
1.50113e-05
7.51012e-06
-1.9152e-08
-6.61974e-06
-1.21712e-05
-1.63857e-05
-1.91435e-05
-2.05306e-05
-2.0775e-05
-2.0047e-05
-1.82885e-05
-1.51701e-05
-1.04494e-05
-5.21099e-06
-4.48527e-06
2.26459e-07
2.68431e-06
4.53468e-06
5.77853e-06
5.55985e-06
3.88491e-06
1.28233e-06
-1.91242e-06
-5.254e-06
-7.93818e-06
-9.83871e-06
-1.06819e-05
-1.04009e-05
-9.10442e-06
-7.01397e-06
-4.46363e-06
-1.8773e-06
3.59708e-07
1.94432e-06
3.1816e-06
9.52298e-06
1.57662e-05
1.9202e-05
2.10993e-05
2.13549e-05
2.02035e-05
1.7868e-05
1.46019e-05
1.06308e-05
6.21855e-06
1.8084e-06
-2.21214e-06
-5.64911e-06
-8.39293e-06
-1.04351e-05
-1.1846e-05
-1.26692e-05
-1.28913e-05
-1.24439e-05
-1.10537e-05
-8.32875e-06
-5.6915e-06
-6.96886e-06
-3.87136e-06
-1.95109e-06
-4.74276e-07
6.20098e-07
1.06614e-06
9.80396e-07
4.44476e-07
-4.55626e-07
-1.62456e-06
-2.63429e-06
-3.18944e-06
-3.15896e-06
-2.7767e-06
-2.26593e-06
-1.54097e-06
-4.81767e-07
3.60422e-07
7.79183e-07
7.41303e-07
5.02277e-07
3.82777e-06
7.10552e-06
8.67944e-06
1.04343e-05
1.17571e-05
1.17999e-05
1.09193e-05
9.33091e-06
7.23964e-06
4.94071e-06
2.59448e-06
3.85265e-07
-1.71328e-06
-3.44449e-06
-4.88198e-06
-6.412e-06
-6.11307e-06
-1.92626e-06
-4.1857e-06
-1.92737e-06
-2.32225e-06
-1.86345e-06
-5.58902e-07
-1.76335e-06
1.10953e-06
-1.66843e-06
2.40971e-06
-1.30018e-06
3.67913e-06
-1.26942e-06
4.79933e-06
-1.1202e-06
5.7898e-06
-9.90472e-07
6.67557e-06
-8.8577e-07
7.47908e-06
-8.03515e-07
8.21672e-06
-7.37635e-07
8.89657e-06
-6.79855e-07
9.51709e-06
-6.20523e-07
1.00671e-05
-5.5002e-07
1.05272e-05
-4.60073e-07
1.08722e-05
-3.45021e-07
1.10719e-05
-1.99695e-07
1.10966e-05
-2.47315e-08
1.09223e-05
1.74305e-07
1.05254e-05
3.96953e-07
9.88388e-06
6.41491e-07
8.98332e-06
9.00554e-07
7.82079e-06
1.16253e-06
6.3998e-06
1.42099e-06
4.75417e-06
1.64563e-06
2.82522e-06
1.92895e-06
1.22139e-06
1.60383e-06
-7.63403e-07
1.98479e-06
-2.74009e-06
1.97669e-06
-4.64975e-06
1.90965e-06
-6.43416e-06
1.78441e-06
-8.04409e-06
1.60993e-06
-9.43277e-06
1.38868e-06
-1.05595e-05
1.12674e-06
-1.13927e-05
8.33173e-07
-1.1913e-05
5.20332e-07
-1.21138e-05
2.008e-07
-1.20036e-05
-1.10255e-07
-1.16089e-05
-3.94667e-07
-1.09672e-05
-6.41723e-07
-1.01174e-05
-8.4979e-07
-9.10034e-06
-1.01705e-06
-7.95798e-06
-1.14235e-06
-6.73139e-06
-1.2266e-06
-5.45767e-06
-1.27372e-06
-4.16721e-06
-1.29046e-06
-2.88303e-06
-1.28418e-06
-1.61634e-06
-1.26669e-06
-3.60949e-07
-1.25539e-06
9.15359e-07
-1.27631e-06
1.96511e-06
-1.04975e-06
3.07569e-06
-1.11058e-06
4.16595e-06
-1.09026e-06
5.21067e-06
-1.04473e-06
6.19451e-06
-9.83839e-07
7.10161e-06
-9.07098e-07
7.91274e-06
-8.11133e-07
8.60591e-06
-6.93171e-07
9.15798e-06
-5.52067e-07
9.54673e-06
-3.88752e-07
9.7532e-06
-2.06466e-07
9.75799e-06
-4.79539e-09
9.54707e-06
2.10923e-07
9.11581e-06
4.31259e-07
8.46616e-06
6.4965e-07
7.60684e-06
8.5931e-07
6.55479e-06
1.05206e-06
5.33542e-06
1.21937e-06
3.98177e-06
1.35365e-06
2.52921e-06
1.45256e-06
1.00821e-06
1.52101e-06
-5.26983e-07
1.53519e-06
-1.85606e-06
1.32908e-06
-3.20509e-06
1.34903e-06
-4.44934e-06
1.24424e-06
-5.54932e-06
1.09998e-06
-6.48335e-06
9.34031e-07
-7.23417e-06
7.50826e-07
-7.78909e-06
5.54913e-07
-8.14222e-06
3.53136e-07
-8.29652e-06
1.54295e-07
-8.26352e-06
-3.30041e-08
-8.05791e-06
-2.05599e-07
-7.69894e-06
-3.58973e-07
-7.2109e-06
-4.88043e-07
-6.61844e-06
-5.92461e-07
-5.94587e-06
-6.72565e-07
-5.21621e-06
-7.29663e-07
-4.4494e-06
-7.66806e-07
-3.66167e-06
-7.87738e-07
-2.86395e-06
-7.97712e-07
-2.06378e-06
-8.00178e-07
-1.26492e-06
-7.98853e-07
-4.68926e-07
-7.95997e-07
3.27173e-07
-7.96098e-07
1.13201e-06
-8.0484e-07
1.80764e-06
-6.7563e-07
2.5229e-06
-7.15261e-07
3.20937e-06
-6.86465e-07
3.83996e-06
-6.30589e-07
4.39704e-06
-5.57077e-07
4.86331e-06
-4.66271e-07
5.22154e-06
-3.58228e-07
5.45547e-06
-2.33935e-07
5.55139e-06
-9.59191e-08
5.5e-06
5.1385e-08
5.29528e-06
2.04727e-07
4.93679e-06
3.58486e-07
4.43245e-06
5.04341e-07
3.79539e-06
6.37059e-07
3.04404e-06
7.51348e-07
2.20359e-06
8.40455e-07
1.30237e-06
9.01214e-07
3.72766e-07
9.29607e-07
-5.51238e-07
9.24005e-07
-1.42145e-06
8.70209e-07
-2.17107e-06
7.49625e-07
-2.82043e-06
6.49358e-07
-3.30915e-06
4.88719e-07
1.63166e-07
-4.62947e-06
-4.12864e-06
-2.47277e-06
-4.08407e-06
-4.33362e-07
-3.90286e-06
1.42243e-06
-3.61914e-06
3.03089e-06
-3.2769e-06
4.62013e-06
-2.88942e-06
5.8913e-06
-2.54059e-06
6.95937e-06
-2.18827e-06
7.85474e-06
-1.88584e-06
8.62092e-06
-1.65195e-06
9.28481e-06
-1.46741e-06
9.86558e-06
-1.3184e-06
1.03733e-05
-1.18755e-06
1.08075e-05
-1.05471e-06
1.11576e-05
-9.00208e-07
1.14048e-05
-7.07268e-07
1.15241e-05
-4.64254e-07
1.14895e-05
-1.65138e-07
1.12742e-05
1.90618e-07
1.0849e-05
5.99518e-07
1.01942e-05
1.05171e-06
9.29816e-06
1.53753e-06
8.15552e-06
2.04319e-06
6.75949e-06
2.55856e-06
5.13963e-06
3.04085e-06
3.3541e-06
3.43116e-06
1.49823e-06
3.78482e-06
-8.09268e-07
3.91133e-06
-2.87445e-06
4.04998e-06
-4.91435e-06
4.01659e-06
-6.85803e-06
3.85333e-06
-8.64977e-06
3.57614e-06
-1.02322e-05
3.19233e-06
-1.15547e-05
2.71117e-06
-1.25743e-05
2.14635e-06
-1.32579e-05
1.51684e-06
-1.35864e-05
8.48834e-07
-1.35565e-05
1.70898e-07
-1.31879e-05
-4.78938e-07
-1.25168e-05
-1.06572e-06
-1.1585e-05
-1.5735e-06
-1.04378e-05
-1.99698e-06
-9.12279e-06
-2.33209e-06
-7.68828e-06
-2.57687e-06
-6.18184e-06
-2.73304e-06
-4.648e-06
-2.80756e-06
-3.12519e-06
-2.81327e-06
-1.64026e-06
-2.76911e-06
-2.12671e-07
-2.69428e-06
1.14418e-06
-2.61225e-06
2.4297e-06
-2.56183e-06
3.77949e-06
-2.39953e-06
4.97022e-06
-2.30131e-06
6.07745e-06
-2.19749e-06
7.11096e-06
-2.07824e-06
8.06065e-06
-1.93353e-06
8.90881e-06
-1.75527e-06
9.63462e-06
-1.53694e-06
1.02157e-05
-1.27424e-06
1.06297e-05
-9.66072e-07
1.08561e-05
-6.15118e-07
1.08768e-05
-2.27193e-07
1.06795e-05
1.92491e-07
1.02558e-05
6.34587e-07
9.60179e-06
1.0853e-06
8.72253e-06
1.52891e-06
7.63227e-06
1.94957e-06
6.3527e-06
2.33164e-06
4.91466e-06
2.6574e-06
3.35895e-06
2.90936e-06
1.71749e-06
3.09401e-06
3.77017e-08
3.2008e-06
-1.56555e-06
3.13844e-06
-3.20822e-06
2.97175e-06
-4.64451e-06
2.78533e-06
-5.93118e-06
2.53091e-06
-7.0518e-06
2.22059e-06
-7.98354e-06
1.86578e-06
-8.70712e-06
1.47441e-06
-9.20849e-06
1.05628e-06
-9.48176e-06
6.264e-07
-9.53145e-06
2.03984e-07
-9.37017e-06
-1.94277e-07
-9.01989e-06
-5.55879e-07
-8.50769e-06
-8.71181e-07
-7.86009e-06
-1.13564e-06
-7.10439e-06
-1.34816e-06
-6.2677e-06
-1.50926e-06
-5.37586e-06
-1.62151e-06
-4.45301e-06
-1.68965e-06
-3.51775e-06
-1.723e-06
-2.5839e-06
-1.73156e-06
-1.65887e-06
-1.72521e-06
-7.51207e-07
-1.70651e-06
1.39015e-07
-1.68622e-06
1.00137e-06
-1.65845e-06
1.83875e-06
-1.64222e-06
2.65151e-06
-1.48839e-06
3.44645e-06
-1.5102e-06
4.16018e-06
-1.40019e-06
4.80032e-06
-1.27074e-06
5.35221e-06
-1.10896e-06
5.7974e-06
-9.11466e-07
6.11813e-06
-6.78959e-07
6.2977e-06
-4.13501e-07
6.32239e-06
-1.20607e-07
6.18302e-06
1.9075e-07
5.87666e-06
5.11095e-07
5.40727e-06
8.27867e-07
4.78404e-06
1.12758e-06
4.02336e-06
1.39774e-06
3.14747e-06
1.62723e-06
2.18187e-06
1.80605e-06
1.1622e-06
1.92089e-06
1.25538e-07
1.96627e-06
-9.03885e-07
1.95343e-06
-1.87528e-06
1.84161e-06
-2.77258e-06
1.64692e-06
-3.50366e-06
1.38044e-06
-4.094e-06
1.07906e-06
4.41526e-07
-4.19882e-06
-6.40985e-06
-1.9865e-06
-6.29639e-06
7.44157e-08
-5.96378e-06
1.93053e-06
-5.47525e-06
3.55205e-06
-4.89842e-06
5.0011e-06
-4.33848e-06
6.13267e-06
-3.67215e-06
7.08518e-06
-3.14078e-06
7.8668e-06
-2.66746e-06
8.51486e-06
-2.30001e-06
9.06751e-06
-2.02006e-06
9.55518e-06
-1.80607e-06
9.99403e-06
-1.6264e-06
1.0386e-05
-1.44668e-06
1.07208e-05
-1.23505e-06
1.09783e-05
-9.64718e-07
1.11287e-05
-6.14681e-07
1.114e-05
-1.76414e-07
1.09835e-05
3.47065e-07
1.06328e-05
9.50296e-07
1.00606e-05
1.62389e-06
9.24609e-06
2.35202e-06
8.15658e-06
3.1327e-06
6.78756e-06
3.92758e-06
5.14707e-06
4.68134e-06
3.42501e-06
5.15321e-06
1.41872e-06
5.79111e-06
-7.45041e-07
6.07509e-06
-2.88573e-06
6.19067e-06
-4.97718e-06
6.10804e-06
-6.96777e-06
5.84392e-06
-8.80536e-06
5.41373e-06
-1.04353e-05
4.82224e-06
-1.18049e-05
4.08078e-06
-1.28657e-05
3.20718e-06
-1.35773e-05
2.22845e-06
-1.39109e-05
1.18245e-06
-1.3859e-05
1.18915e-07
-1.34478e-05
-8.90051e-07
-1.27239e-05
-1.78963e-06
-1.17335e-05
-2.5639e-06
-1.05225e-05
-3.20803e-06
-9.14074e-06
-3.71383e-06
-7.64161e-06
-4.076e-06
-6.07866e-06
-4.29599e-06
-4.50235e-06
-4.38387e-06
-2.95236e-06
-4.36326e-06
-1.45611e-06
-4.26536e-06
-2.38275e-08
-4.12656e-06
1.34606e-06
-3.98214e-06
2.65207e-06
-3.86784e-06
3.90055e-06
-3.64801e-06
5.08272e-06
-3.48349e-06
6.19959e-06
-3.31436e-06
7.24888e-06
-3.12752e-06
8.21918e-06
-2.90383e-06
9.09377e-06
-2.62986e-06
9.8513e-06
-2.29448e-06
1.04676e-05
-1.8905e-06
1.09174e-05
-1.41596e-06
1.11768e-05
-8.74508e-07
1.12246e-05
-2.74959e-07
1.1045e-05
3.72062e-07
1.06294e-05
1.05022e-06
9.97501e-06
1.73968e-06
9.08562e-06
2.41831e-06
7.97145e-06
3.06374e-06
6.65112e-06
3.65196e-06
5.1502e-06
4.15833e-06
3.5098e-06
4.54976e-06
1.77877e-06
4.82504e-06
1.15553e-08
4.96801e-06
-1.70396e-06
4.85395e-06
-3.34826e-06
4.61604e-06
-4.84787e-06
4.28494e-06
-6.18934e-06
3.87237e-06
-7.35376e-06
3.38502e-06
-8.32134e-06
2.83336e-06
-9.07253e-06
2.2256e-06
-9.59015e-06
1.5739e-06
-9.86436e-06
9.00607e-07
-9.89959e-06
2.39221e-07
-9.70913e-06
-3.84741e-07
-9.32027e-06
-9.44737e-07
-8.76691e-06
-1.42454e-06
-8.07856e-06
-1.82399e-06
-7.28423e-06
-2.14249e-06
-6.41199e-06
-2.3815e-06
-5.48846e-06
-2.54503e-06
-4.53934e-06
-2.63878e-06
-3.58742e-06
-2.67493e-06
-2.64459e-06
-2.67439e-06
-1.71883e-06
-2.65097e-06
-8.11883e-07
-2.61346e-06
7.54092e-08
-2.57351e-06
9.46919e-07
-2.52996e-06
1.79647e-06
-2.49177e-06
2.65307e-06
-2.345e-06
3.45115e-06
-2.30828e-06
4.20296e-06
-2.152e-06
4.88843e-06
-1.9562e-06
5.48843e-06
-1.70897e-06
5.98285e-06
-1.40588e-06
6.35105e-06
-1.04717e-06
6.57371e-06
-6.36158e-07
6.63399e-06
-1.80888e-07
6.51799e-06
3.06757e-07
6.21986e-06
8.09221e-07
5.74529e-06
1.30244e-06
5.10486e-06
1.76801e-06
4.31326e-06
2.18934e-06
3.39292e-06
2.54757e-06
2.3748e-06
2.82418e-06
1.28578e-06
3.00991e-06
1.67317e-07
3.08473e-06
-9.40418e-07
3.06116e-06
-1.99051e-06
2.89169e-06
-2.95707e-06
2.61349e-06
-3.77665e-06
2.20001e-06
-4.49298e-06
1.79539e-06
8.78403e-07
-4.18715e-06
-8.85936e-06
-1.81963e-06
-8.66391e-06
3.77618e-07
-8.16103e-06
2.34978e-06
-7.44742e-06
4.06393e-06
-6.61257e-06
5.46438e-06
-5.73892e-06
6.62687e-06
-4.83464e-06
7.51866e-06
-4.03257e-06
8.22514e-06
-3.37395e-06
8.78743e-06
-2.8623e-06
9.25039e-06
-2.48302e-06
9.65497e-06
-2.21065e-06
1.00275e-05
-1.99892e-06
1.03768e-05
-1.79593e-06
1.06949e-05
-1.5532e-06
1.09582e-05
-1.22806e-06
1.11364e-05
-7.92813e-07
1.11972e-05
-2.37248e-07
1.11032e-05
4.41094e-07
1.08163e-05
1.23719e-06
1.03036e-05
2.13658e-06
9.53374e-06
3.12187e-06
8.48952e-06
4.17692e-06
7.16157e-06
5.25553e-06
5.56208e-06
6.28083e-06
3.58714e-06
7.12815e-06
1.5031e-06
7.87515e-06
-7.2477e-07
8.30296e-06
-2.96828e-06
8.43418e-06
-5.14196e-06
8.28172e-06
-7.20581e-06
7.90777e-06
-9.1152e-06
7.32312e-06
-1.08162e-05
6.5232e-06
-1.22552e-05
5.5198e-06
-1.33769e-05
4.3289e-06
-1.41288e-05
2.98035e-06
-1.44641e-05
1.51777e-06
-1.43675e-05
2.23345e-08
-1.38795e-05
-1.37814e-06
-1.30688e-05
-2.60028e-06
-1.19924e-05
-3.6403e-06
-1.06946e-05
-4.50589e-06
-9.22552e-06
-5.18287e-06
-7.64204e-06
-5.65948e-06
-6.0037e-06
-5.93433e-06
-4.36905e-06
-6.01852e-06
-2.78394e-06
-5.94837e-06
-1.27188e-06
-5.77741e-06
1.61791e-07
-5.56024e-06
1.50894e-06
-5.32929e-06
2.75263e-06
-5.11153e-06
3.96049e-06
-4.85587e-06
5.12215e-06
-4.64514e-06
6.24128e-06
-4.43349e-06
7.30986e-06
-4.1961e-06
8.31606e-06
-3.91003e-06
9.24088e-06
-3.55467e-06
1.00591e-05
-3.11268e-06
1.07411e-05
-2.57249e-06
1.12555e-05
-1.93034e-06
1.15723e-05
-1.19131e-06
1.16664e-05
-3.6914e-07
1.15191e-05
5.19392e-07
1.11178e-05
1.45155e-06
1.04552e-05
2.40227e-06
9.53076e-06
3.34273e-06
8.35236e-06
4.24213e-06
6.93741e-06
5.06692e-06
5.31616e-06
5.77958e-06
3.52642e-06
6.3395e-06
1.63799e-06
6.71347e-06
-2.56411e-07
6.86241e-06
-2.13179e-06
6.72934e-06
-3.86123e-06
6.34548e-06
-5.41698e-06
5.84068e-06
-6.78745e-06
5.24284e-06
-7.96152e-06
4.55909e-06
-8.9234e-06
3.79524e-06
-9.65322e-06
2.95542e-06
-1.01287e-05
2.04938e-06
-1.03313e-05
1.10321e-06
-1.02644e-05
1.7228e-07
-9.95926e-06
-6.89842e-07
-9.45383e-06
-1.45016e-06
-8.7807e-06
-2.09767e-06
-7.97757e-06
-2.62712e-06
-7.08083e-06
-3.03923e-06
-6.12224e-06
-3.34009e-06
-5.12923e-06
-3.53805e-06
-4.13099e-06
-3.63701e-06
-3.15489e-06
-3.65102e-06
-2.20753e-06
-3.62175e-06
-1.29228e-06
-3.56622e-06
-4.07842e-07
-3.4979e-06
4.5734e-07
-3.43869e-06
1.3083e-06
-3.38092e-06
2.1276e-06
-3.31107e-06
2.97896e-06
-3.19635e-06
3.75342e-06
-3.08275e-06
4.50285e-06
-2.90143e-06
5.19624e-06
-2.64959e-06
5.8095e-06
-2.32223e-06
6.31821e-06
-1.91458e-06
6.69762e-06
-1.42658e-06
6.92393e-06
-8.6246e-07
6.97348e-06
-2.3044e-07
6.82731e-06
4.52924e-07
6.48295e-06
1.15358e-06
5.94518e-06
1.84021e-06
5.22086e-06
2.49233e-06
4.32549e-06
3.0847e-06
3.28308e-06
3.58999e-06
2.12356e-06
3.9837e-06
8.88563e-07
4.2449e-06
-3.8523e-07
4.35852e-06
-1.63834e-06
4.31427e-06
-2.80686e-06
4.06021e-06
-3.8752e-06
3.68183e-06
-4.77924e-06
3.10405e-06
-5.58102e-06
2.59718e-06
1.40905e-06
-5.44317e-06
-1.17449e-05
-2.67828e-06
-1.14288e-05
-1.42896e-07
-1.06964e-05
2.06985e-06
-9.66017e-06
3.94497e-06
-8.48768e-06
5.47032e-06
-7.26427e-06
6.71429e-06
-6.07862e-06
7.7225e-06
-5.04078e-06
8.54656e-06
-4.198e-06
9.23683e-06
-3.55257e-06
9.85068e-06
-3.09687e-06
1.04414e-05
-2.80139e-06
1.1031e-05
-2.58849e-06
1.16137e-05
-2.37869e-06
1.21651e-05
-2.10452e-06
1.26455e-05
-1.70851e-06
1.3007e-05
-1.15431e-06
1.32004e-05
-4.30629e-07
1.31881e-05
4.53411e-07
1.29373e-05
1.48798e-06
1.24109e-05
2.66292e-06
1.15749e-05
3.95787e-06
1.04037e-05
5.34814e-06
8.87845e-06
6.7808e-06
6.98249e-06
8.17679e-06
4.67807e-06
9.43257e-06
2.08545e-06
1.04678e-05
-6.77931e-07
1.10663e-05
-3.43296e-06
1.11892e-05
-6.02833e-06
1.08771e-05
-8.45562e-06
1.03351e-05
-1.06775e-05
9.54501e-06
-1.26335e-05
8.47919e-06
-1.42695e-05
7.1558e-06
-1.55207e-05
5.5801e-06
-1.63154e-05
3.77507e-06
-1.65912e-05
1.79358e-06
-1.63195e-05
-2.4939e-07
-1.55625e-05
-2.13518e-06
-1.44469e-05
-3.71587e-06
-1.30591e-05
-5.0281e-06
-1.14512e-05
-6.11375e-06
-9.68485e-06
-6.94924e-06
-7.82459e-06
-7.51974e-06
-5.93756e-06
-7.82137e-06
-4.09919e-06
-7.85689e-06
-2.36467e-06
-7.68289e-06
-7.62723e-07
-7.37936e-06
6.82893e-07
-7.00585e-06
1.98851e-06
-6.6349e-06
3.1917e-06
-6.31473e-06
4.38745e-06
-6.05162e-06
5.56641e-06
-5.82411e-06
6.73276e-06
-5.59983e-06
7.88335e-06
-5.3467e-06
9.00389e-06
-5.03057e-06
1.00681e-05
-4.6189e-06
1.10397e-05
-4.08424e-06
1.18749e-05
-3.40776e-06
1.25271e-05
-2.58245e-06
1.29501e-05
-1.61434e-06
1.31046e-05
-5.23657e-07
1.2969e-05
6.54969e-07
1.25281e-05
1.89248e-06
1.17684e-05
3.16201e-06
1.06909e-05
4.42016e-06
9.30186e-06
5.6312e-06
7.60745e-06
6.76133e-06
5.62785e-06
7.75918e-06
3.4147e-06
8.55265e-06
1.06819e-06
9.05998e-06
-1.28017e-06
9.21077e-06
-3.51826e-06
8.96743e-06
-5.53616e-06
8.36338e-06
-7.29663e-06
7.60116e-06
-8.7945e-06
6.74071e-06
-1.0033e-05
5.79759e-06
-1.10056e-05
4.76783e-06
-1.16904e-05
3.64026e-06
-1.20432e-05
2.4021e-06
-1.20514e-05
1.11144e-06
-1.1744e-05
-1.35155e-07
-1.11586e-05
-1.27519e-06
-1.03401e-05
-2.26866e-06
-9.34185e-06
-3.09593e-06
-8.21727e-06
-3.7517e-06
-7.01505e-06
-4.24145e-06