/*--------------------------------*- C++ -*----------------------------------*\
| =========                 |                                                 |
| \\      /  F ield         | OpenFOAM: The Open Source CFD Toolbox           |
|  \\    /   O peration     | Version:  2206                                  |
|   \\  /    A nd           | Website:  www.openfoam.com                      |
|    \\/     M anipulation  |                                                 |
\*---------------------------------------------------------------------------*/
FoamFile
{
    version     2.0;
    format      ascii;
    arch        "LSB;label=32;scalar=64";
    class       surfaceScalarField;
    location    "19.2999";
    object      phi;
}
// * * * * * * * * * * * * * * * * * * * * * * * * * * * * * * * * * * * * * //

dimensions      [0 3 -1 0 0 0 0];

oriented        oriented;

internalField   nonuniform List<scalar> 
9421
(
1.09691e-05
-1.49718e-07
1.37324e-07
1.09784e-05
9.49648e-08
-1.04341e-07
1.09844e-05
3.32018e-07
-3.37938e-07
1.09864e-05
5.57835e-07
-5.59856e-07
1.09841e-05
7.6929e-07
-7.67008e-07
1.09772e-05
9.63776e-07
-9.56867e-07
1.09654e-05
1.13927e-06
-1.12751e-06
1.09487e-05
1.2943e-06
-1.27761e-06
1.09272e-05
1.4279e-06
-1.40637e-06
1.09012e-05
1.5395e-06
-1.51343e-06
1.0871e-05
1.62897e-06
-1.59881e-06
1.08373e-05
1.6965e-06
-1.66282e-06
1.08007e-05
1.74251e-06
-1.70591e-06
1.07613e-05
1.76735e-06
-1.72795e-06
1.07193e-05
1.76926e-06
-1.72724e-06
1.0676e-05
1.74649e-06
-1.70318e-06
1.06328e-05
1.69935e-06
-1.65613e-06
1.05909e-05
1.62828e-06
-1.58644e-06
1.05516e-05
1.53401e-06
-1.49467e-06
1.05157e-05
1.41752e-06
-1.3816e-06
1.04839e-05
1.28018e-06
-1.24838e-06
1.04567e-05
1.12378e-06
-1.09661e-06
1.04344e-05
9.50626e-07
-9.2838e-07
1.04172e-05
7.63415e-07
-7.46207e-07
1.0405e-05
5.65233e-07
-5.53003e-07
1.03976e-05
3.59381e-07
-3.52021e-07
1.03951e-05
1.4943e-07
-1.46851e-07
1.0397e-05
-5.99308e-08
5.80367e-08
1.04028e-05
-2.65037e-07
2.59182e-07
1.04123e-05
-4.63293e-07
4.5382e-07
1.04252e-05
-6.5222e-07
6.39356e-07
1.04411e-05
-8.29218e-07
8.13297e-07
1.04597e-05
-9.9192e-07
9.73337e-07
1.04805e-05
-1.13835e-06
1.11751e-06
1.05032e-05
-1.26685e-06
1.24417e-06
1.05272e-05
-1.37612e-06
1.35208e-06
1.05521e-05
-1.46514e-06
1.44023e-06
1.05774e-05
-1.53354e-06
1.50823e-06
1.06028e-05
-1.58157e-06
1.5562e-06
1.06281e-05
-1.60995e-06
1.58463e-06
1.06541e-05
-1.61846e-06
1.59249e-06
1.06807e-05
-1.6022e-06
1.57561e-06
1.07072e-05
-1.55983e-06
1.53337e-06
1.07329e-05
-1.49226e-06
1.46654e-06
1.07575e-05
-1.40107e-06
1.37643e-06
1.07808e-05
-1.28807e-06
1.26478e-06
1.08026e-05
-1.15535e-06
1.1336e-06
1.08226e-05
-1.00522e-06
9.85204e-07
1.08407e-05
-8.40298e-07
8.22156e-07
1.08568e-05
-6.6341e-07
6.47297e-07
1.08708e-05
-4.77644e-07
4.6372e-07
1.08823e-05
-2.86435e-07
2.74884e-07
1.08912e-05
-9.39845e-08
8.51174e-08
1.08971e-05
9.59439e-08
-1.01925e-07
1.09e-05
2.80575e-07
-2.83456e-07
1.08996e-05
4.57337e-07
-4.56909e-07
1.08957e-05
6.23886e-07
-6.19978e-07
1.08882e-05
7.78131e-07
-7.70646e-07
1.08771e-05
9.18325e-07
-9.07231e-07
1.08625e-05
1.04305e-06
-1.0284e-06
1.08445e-05
1.15116e-06
-1.13316e-06
1.08234e-05
1.24181e-06
-1.22079e-06
1.07998e-05
1.31455e-06
-1.29093e-06
1.07741e-05
1.36924e-06
-1.34351e-06
1.07467e-05
1.4061e-06
-1.37874e-06
1.07178e-05
1.42544e-06
-1.39649e-06
1.06871e-05
1.4255e-06
-1.39484e-06
1.06557e-05
1.40433e-06
-1.37287e-06
1.06244e-05
1.36228e-06
-1.33101e-06
1.05942e-05
1.30007e-06
-1.26988e-06
1.05658e-05
1.21876e-06
-1.19036e-06
1.05398e-05
1.11957e-06
-1.09357e-06
1.05167e-05
1.004e-06
-9.80872e-07
1.04968e-05
8.73836e-07
-8.53923e-07
1.04803e-05
7.31123e-07
-7.14646e-07
1.04674e-05
5.78129e-07
-5.65216e-07
1.04581e-05
4.17347e-07
-4.08038e-07
1.04523e-05
2.51498e-07
-2.45741e-07
1.045e-05
8.36672e-08
-8.13616e-08
1.0451e-05
-8.2792e-08
8.17635e-08
1.04552e-05
-2.45556e-07
2.41348e-07
1.04624e-05
-4.02405e-07
3.95208e-07
1.04724e-05
-5.51224e-07
5.41259e-07
1.04849e-05
-6.9014e-07
6.77597e-07
1.04998e-05
-8.17375e-07
8.02524e-07
1.05167e-05
-9.31368e-07
9.14499e-07
1.05352e-05
-1.03081e-06
1.01224e-06
1.05552e-05
-1.11473e-06
1.09477e-06
1.05762e-05
-1.18248e-06
1.16149e-06
1.05978e-05
-1.23373e-06
1.21212e-06
1.06197e-05
-1.26865e-06
1.24672e-06
1.0642e-05
-1.28787e-06
1.26558e-06
1.06652e-05
-1.29019e-06
1.26695e-06
1.0689e-05
-1.27216e-06
1.24839e-06
1.07127e-05
-1.23368e-06
1.21002e-06
1.07357e-05
-1.17567e-06
1.15261e-06
1.07578e-05
-1.09946e-06
1.07738e-06
1.07786e-05
-1.00659e-06
9.85756e-07
1.0798e-05
-8.98758e-07
8.79415e-07
1.08156e-05
-7.77859e-07
7.60212e-07
1.08314e-05
-6.45947e-07
6.30178e-07
1.08451e-05
-5.0524e-07
4.91504e-07
1.08567e-05
-3.58108e-07
3.46556e-07
1.08659e-05
-2.07154e-07
1.97943e-07
1.08726e-05
-5.55641e-08
4.89072e-08
1.08765e-05
9.39709e-08
-9.79538e-08
1.08777e-05
2.39377e-07
-2.40573e-07
1.0876e-05
3.78701e-07
-3.77009e-07
1.08714e-05
5.1014e-07
-5.05499e-07
1.08638e-05
6.3206e-07
-6.24457e-07
1.08533e-05
7.43003e-07
-7.32502e-07
1.084e-05
8.41754e-07
-8.2848e-07
1.08242e-05
9.27356e-07
-9.11497e-07
1.0806e-05
9.99019e-07
-9.80893e-07
1.0786e-05
1.05623e-06
-1.03623e-06
1.07645e-05
1.09886e-06
-1.07737e-06
1.07419e-05
1.1271e-06
-1.10444e-06
1.0718e-05
1.14106e-06
-1.11717e-06
1.06928e-05
1.13886e-06
-1.1137e-06
1.06671e-05
1.11917e-06
-1.09344e-06
1.06415e-05
1.08236e-06
-1.05679e-06
1.06167e-05
1.02916e-06
-1.00437e-06
1.05933e-05
9.60526e-07
-9.37037e-07
1.05715e-05
8.77614e-07
-8.55848e-07
1.05518e-05
7.81765e-07
-7.62057e-07
1.05344e-05
6.74511e-07
-6.5711e-07
1.05194e-05
5.57617e-07
-5.42684e-07
1.05071e-05
4.32867e-07
-4.20484e-07
1.04973e-05
3.02562e-07
-2.92754e-07
1.04901e-05
1.67905e-07
-1.6072e-07
1.04854e-05
3.36807e-08
-2.90526e-08
1.04835e-05
-1.0194e-07
1.03907e-07
1.04837e-05
-2.30682e-07
2.30417e-07
1.0487e-05
-3.5774e-07
3.54446e-07
1.04917e-05
-4.81632e-07
4.76988e-07
1.04984e-05
-5.78742e-07
5.72073e-07
-7.24383e-07
7.15201e-07
1.0827e-05
-1.60478e-07
1.08359e-05
8.61578e-08
1.08422e-05
3.25634e-07
1.08457e-05
5.54365e-07
1.08458e-05
7.69187e-07
1.08422e-05
9.67434e-07
1.08344e-05
1.147e-06
1.08224e-05
1.30628e-06
1.08063e-05
1.44407e-06
1.07861e-05
1.55966e-06
1.07623e-05
1.65274e-06
1.07356e-05
1.72329e-06
1.07064e-05
1.77167e-06
1.06751e-05
1.79869e-06
1.06411e-05
1.8032e-06
1.06058e-05
1.78185e-06
1.05704e-05
1.73473e-06
1.05362e-05
1.66241e-06
1.05044e-05
1.56589e-06
1.04755e-05
1.44638e-06
1.04502e-05
1.30546e-06
1.04288e-05
1.14517e-06
1.04115e-05
9.6794e-07
1.03983e-05
7.76614e-07
1.03892e-05
5.7433e-07
1.03842e-05
3.64405e-07
1.03827e-05
1.50907e-07
1.03844e-05
-6.161e-08
1.03893e-05
-2.69979e-07
1.03973e-05
-4.71254e-07
1.0408e-05
-6.62868e-07
1.0421e-05
-8.42297e-07
1.04362e-05
-1.00705e-06
1.0453e-05
-1.15518e-06
1.04711e-05
-1.28498e-06
1.04901e-05
-1.39512e-06
1.05095e-05
-1.48456e-06
1.05289e-05
-1.55294e-06
1.0548e-05
-1.60061e-06
1.05665e-05
-1.6285e-06
1.05855e-05
-1.63747e-06
1.06056e-05
-1.62223e-06
1.06254e-05
-1.57966e-06
1.06445e-05
-1.51137e-06
1.06627e-05
-1.4193e-06
1.068e-05
-1.30533e-06
1.06962e-05
-1.17154e-06
1.07112e-05
-1.02027e-06
1.0725e-05
-8.54093e-07
1.07375e-05
-6.75847e-07
1.07484e-05
-4.88602e-07
1.07577e-05
-2.95759e-07
1.07651e-05
-1.01386e-07
1.07704e-05
9.067e-08
1.07733e-05
2.77647e-07
1.07737e-05
4.56974e-07
1.07713e-05
6.26278e-07
1.07661e-05
7.83395e-07
1.07578e-05
9.26543e-07
1.07467e-05
1.05419e-06
1.07328e-05
1.16506e-06
1.07164e-05
1.25821e-06
1.06979e-05
1.33308e-06
1.06777e-05
1.38944e-06
1.06563e-05
1.42747e-06
1.06339e-05
1.44787e-06
1.06097e-05
1.44965e-06
1.05846e-05
1.42945e-06
1.05596e-05
1.38727e-06
1.05356e-05
1.32409e-06
1.05132e-05
1.24118e-06
1.04929e-05
1.13987e-06
1.0475e-05
1.02183e-06
1.04599e-05
8.8899e-07
1.04475e-05
7.43502e-07
1.0438e-05
5.87673e-07
1.04312e-05
4.2406e-07
1.04273e-05
2.55479e-07
1.04259e-05
8.50577e-08
1.0427e-05
-8.3897e-08
1.04305e-05
-2.49089e-07
1.04364e-05
-4.08334e-07
1.04446e-05
-5.59378e-07
1.04548e-05
-7.00315e-07
1.04667e-05
-8.293e-07
1.04802e-05
-9.44842e-07
1.04949e-05
-1.04558e-06
1.05107e-05
-1.1305e-06
1.05271e-05
-1.19891e-06
1.05438e-05
-1.25044e-06
1.05605e-05
-1.28534e-06
1.05773e-05
-1.30459e-06
1.05949e-05
-1.30784e-06
1.06133e-05
-1.29057e-06
1.06316e-05
-1.25196e-06
1.06493e-05
-1.19339e-06
1.06663e-05
-1.1164e-06
1.06822e-05
-1.02256e-06
1.06971e-05
-9.13624e-07
1.07107e-05
-7.91475e-07
1.0723e-05
-6.5818e-07
1.07337e-05
-5.15963e-07
1.07428e-05
-3.67201e-07
1.07501e-05
-2.14488e-07
1.07555e-05
-6.0942e-08
1.07588e-05
9.06596e-08
1.07599e-05
2.38257e-07
1.07587e-05
3.79874e-07
1.07552e-05
5.13675e-07
1.07493e-05
6.37982e-07
1.0741e-05
7.51266e-07
1.07305e-05
8.52269e-07
1.07179e-05
9.39944e-07
1.07035e-05
1.01339e-06
1.06877e-05
1.07207e-06
1.06708e-05
1.1158e-06
1.06531e-05
1.14477e-06
1.06346e-05
1.15952e-06
1.06149e-05
1.15862e-06
1.05944e-05
1.13964e-06
1.0574e-05
1.10276e-06
1.05543e-05
1.0489e-06
1.05356e-05
9.79188e-07
1.05184e-05
8.9485e-07
1.05028e-05
7.97315e-07
1.04892e-05
6.88182e-07
1.04775e-05
5.69309e-07
1.04678e-05
4.42575e-07
1.046e-05
3.10279e-07
1.04543e-05
1.73672e-07
1.04506e-05
3.73929e-08
1.04487e-05
-1.00094e-07
1.04488e-05
-2.30764e-07
1.04509e-05
-3.59807e-07
1.0454e-05
-4.84777e-07
1.04587e-05
-5.83453e-07
-7.30784e-07
1.07035e-05
-1.6953e-07
1.07116e-05
7.80622e-08
1.07182e-05
3.18997e-07
1.07229e-05
5.49685e-07
1.07251e-05
7.66964e-07
1.07244e-05
9.68122e-07
1.07205e-05
1.15096e-06
1.0713e-05
1.3137e-06
1.07021e-05
1.455e-06
1.06877e-05
1.57401e-06
1.06703e-05
1.67019e-06
1.06504e-05
1.74321e-06
1.06286e-05
1.79344e-06
1.06054e-05
1.82194e-06
1.05798e-05
1.82873e-06
1.05526e-05
1.80909e-06
1.05254e-05
1.76196e-06
1.04993e-05
1.68846e-06
1.04752e-05
1.59001e-06
1.04535e-05
1.46807e-06
1.04345e-05
1.32445e-06
1.04185e-05
1.16125e-06
1.04055e-05
9.80931e-07
1.03957e-05
7.86344e-07
1.03893e-05
5.80732e-07
1.03859e-05
3.67785e-07
1.03852e-05
1.5166e-07
1.0387e-05
-6.33757e-08
1.03913e-05
-2.7432e-07
1.03982e-05
-4.78101e-07
1.0407e-05
-6.71763e-07
1.04175e-05
-8.52756e-07
1.04292e-05
-1.01875e-06
1.04419e-05
-1.16791e-06
1.04555e-05
-1.29855e-06
1.04695e-05
-1.40915e-06
1.04836e-05
-1.49864e-06
1.04974e-05
-1.56669e-06
1.05103e-05
-1.61359e-06
1.05222e-05
-1.64032e-06
1.05337e-05
-1.64903e-06
1.05476e-05
-1.6361e-06
1.05608e-05
-1.59282e-06
1.05731e-05
-1.52373e-06
1.05848e-05
-1.43101e-06
1.0596e-05
-1.31649e-06
1.06066e-05
-1.18219e-06
1.06167e-05
-1.03037e-06
1.06262e-05
-8.63576e-07
1.0635e-05
-6.84639e-07
1.0643e-05
-4.96604e-07
1.06501e-05
-3.02836e-07
1.0656e-05
-1.07271e-07
1.06605e-05
8.61798e-08
1.06633e-05
2.74762e-07
1.06644e-05
4.55913e-07
1.06635e-05
6.27228e-07
1.06604e-05
7.86483e-07
1.0655e-05
9.31908e-07
1.06474e-05
1.06181e-06
1.06376e-05
1.17482e-06
1.06259e-05
1.26995e-06
1.06125e-05
1.3465e-06
1.05978e-05
1.4041e-06
1.05824e-05
1.44288e-06
1.05666e-05
1.46368e-06
1.05492e-05
1.46704e-06
1.05305e-05
1.44814e-06
1.05121e-05
1.40568e-06
1.04947e-05
1.34154e-06
1.04786e-05
1.2572e-06
1.04644e-05
1.15412e-06
1.0452e-05
1.03418e-06
1.04416e-05
8.99438e-07
1.0433e-05
7.52074e-07
1.04264e-05
5.943e-07
1.04218e-05
4.28658e-07
1.04192e-05
2.58032e-07
1.04185e-05
8.57565e-08
1.04197e-05
-8.50361e-08
1.04227e-05
-2.52101e-07
1.04274e-05
-4.13013e-07
1.04336e-05
-5.65617e-07
1.04413e-05
-7.07969e-07
1.04501e-05
-8.38169e-07
1.04602e-05
-9.5491e-07
1.04712e-05
-1.05662e-06
1.0483e-05
-1.14224e-06
1.0495e-05
-1.21096e-06
1.05069e-05
-1.2623e-06
1.05184e-05
-1.29683e-06
1.05296e-05
-1.31579e-06
1.05413e-05
-1.3196e-06
1.05547e-05
-1.3039e-06
1.05675e-05
-1.26479e-06
1.05798e-05
-1.20564e-06
1.05914e-05
-1.12803e-06
1.06024e-05
-1.03355e-06
1.06127e-05
-9.23927e-07
1.06222e-05
-8.01004e-07
1.06309e-05
-6.66829e-07
1.06385e-05
-5.23625e-07
1.06451e-05
-3.7378e-07
1.06505e-05
-2.1988e-07
1.06545e-05
-6.4981e-08
1.06571e-05
8.80704e-08
1.06581e-05
2.37241e-07
1.06575e-05
3.8052e-07
1.06551e-05
5.16049e-07
1.0651e-05
6.4213e-07
1.06451e-05
7.57157e-07
1.06375e-05
8.59841e-07
1.06284e-05
9.49068e-07
1.06179e-05
1.02385e-06
1.06064e-05
1.08363e-06
1.0594e-05
1.12812e-06
1.05813e-05
1.15751e-06
1.05682e-05
1.1726e-06
1.05538e-05
1.17302e-06
1.05384e-05
1.15501e-06
1.05232e-05
1.11798e-06
1.05086e-05
1.0635e-06
1.0495e-05
9.92831e-07
1.04825e-05
9.07306e-07
1.04714e-05
8.08391e-07
1.04618e-05
6.97849e-07
1.04535e-05
5.77549e-07
1.04468e-05
4.49277e-07
1.04417e-05
3.15396e-07
1.0438e-05
1.77378e-07
1.04356e-05
3.97573e-08
1.04341e-05
-9.85638e-08
1.04336e-05
-2.30255e-07
1.0434e-05
-3.60213e-07
1.04351e-05
-4.85906e-07
1.04373e-05
-5.85605e-07
-7.34138e-07
1.05988e-05
-1.76676e-07
1.0606e-05
7.09312e-08
1.06126e-05
3.12356e-07
1.06182e-05
5.44038e-07
1.06224e-05
7.62853e-07
1.06245e-05
9.6601e-07
1.06242e-05
1.15125e-06
1.06212e-05
1.31671e-06
1.06153e-05
1.46086e-06
1.06066e-05
1.5827e-06
1.05955e-05
1.68131e-06
1.05824e-05
1.75625e-06
1.05682e-05
1.80773e-06
1.05535e-05
1.83664e-06
1.05373e-05
1.84486e-06
1.05182e-05
1.82818e-06
1.04994e-05
1.78083e-06
1.04813e-05
1.70658e-06
1.04642e-05
1.60705e-06
1.04486e-05
1.48365e-06
1.04349e-05
1.33816e-06
1.04234e-05
1.17275e-06
1.04143e-05
9.90052e-07
1.04076e-05
7.9302e-07
1.04034e-05
5.84977e-07
1.04016e-05
3.69587e-07
1.04022e-05
1.51061e-07
1.04049e-05
-6.6095e-08
1.04093e-05
-2.78743e-07
1.04151e-05
-4.8388e-07
1.0422e-05
-6.78692e-07
1.04299e-05
-8.60626e-07
1.04384e-05
-1.02731e-06
1.04475e-05
-1.17694e-06
1.04567e-05
-1.30778e-06
1.04659e-05
-1.41831e-06
1.04748e-05
-1.50754e-06
1.04831e-05
-1.57503e-06
1.04904e-05
-1.62086e-06
1.04963e-05
-1.64623e-06
1.05013e-05
-1.65404e-06
1.05084e-05
-1.64319e-06
1.05143e-05
-1.59877e-06
1.05197e-05
-1.52907e-06
1.05248e-05
-1.43611e-06
1.05298e-05
-1.32156e-06
1.0535e-05
-1.18731e-06
1.05402e-05
-1.03555e-06
1.05454e-05
-8.68786e-07
1.05506e-05
-6.89832e-07
1.05557e-05
-5.01706e-07
1.05606e-05
-3.07741e-07
1.0565e-05
-1.11726e-07
1.05688e-05
8.23777e-08
1.05718e-05
2.7182e-07
1.05736e-05
4.54039e-07
1.05742e-05
6.26634e-07
1.05734e-05
7.87356e-07
1.05709e-05
9.34406e-07
1.05667e-05
1.06592e-06
1.0561e-05
1.18051e-06
1.05539e-05
1.27714e-06
1.05455e-05
1.35482e-06
1.05366e-05
1.41305e-06
1.05275e-05
1.45197e-06
1.05186e-05
1.47258e-06
1.05086e-05
1.47703e-06
1.04962e-05
1.46059e-06
1.04847e-05
1.41716e-06
1.0474e-05
1.35219e-06
1.04642e-05
1.26706e-06
1.04552e-05
1.16313e-06
1.04472e-05
1.04215e-06
1.04404e-05
9.06204e-07
1.04351e-05
7.57442e-07
1.0431e-05
5.98336e-07
1.04282e-05
4.31503e-07
1.04266e-05
2.59583e-07
1.04265e-05
8.59001e-08
1.04277e-05
-8.62611e-08
1.04301e-05
-2.54479e-07
1.04335e-05
-4.16399e-07
1.04379e-05
-5.70008e-07
1.04434e-05
-7.13515e-07
1.045e-05
-8.44765e-07
1.04572e-05
-9.62114e-07
1.04648e-05
-1.06417e-06
1.04725e-05
-1.15004e-06
1.04803e-05
-1.21875e-06
1.04877e-05
-1.26971e-06
1.04945e-05
-1.30362e-06
1.05004e-05
-1.3217e-06
1.05066e-05
-1.32577e-06
1.05145e-05
-1.31182e-06
1.05217e-05
-1.27192e-06
1.05282e-05
-1.21221e-06
1.05344e-05
-1.13422e-06
1.05404e-05
-1.03949e-06
1.05461e-05
-9.29633e-07
1.05515e-05
-8.06427e-07
1.05566e-05
-6.71898e-07
1.05612e-05
-5.28277e-07
1.05654e-05
-3.77952e-07
1.0569e-05
-2.2349e-07
1.05719e-05
-6.787e-08
1.0574e-05
8.59985e-08
1.05751e-05
2.36137e-07
1.05751e-05
3.80466e-07
1.0574e-05
5.17135e-07
1.05717e-05
6.44435e-07
1.05682e-05
7.60705e-07
1.05634e-05
8.64566e-07
1.05577e-05
9.54854e-07
1.0551e-05
1.03053e-06
1.05435e-05
1.09109e-06
1.05357e-05
1.13591e-06
1.05281e-05
1.16512e-06
1.05208e-05
1.1799e-06
1.05121e-05
1.1817e-06
1.0502e-05
1.16516e-06
1.04927e-05
1.12728e-06
1.0484e-05
1.07215e-06
1.04759e-05
1.00096e-06
1.04683e-05
9.14907e-07
1.04613e-05
8.15428e-07
1.04549e-05
7.04258e-07
1.04491e-05
5.83283e-07
1.04441e-05
4.54305e-07
1.04399e-05
3.1962e-07
1.04365e-05
1.80768e-07
1.04339e-05
4.23197e-08
1.0432e-05
-9.66712e-08
1.04309e-05
-2.29118e-07
1.04304e-05
-3.59733e-07
1.04305e-05
-4.85962e-07
1.04312e-05
-5.86363e-07
-7.35301e-07
1.05147e-05
1.0521e-05
1.05277e-05
1.05343e-05
1.05401e-05
1.05447e-05
1.05477e-05
1.05487e-05
1.05476e-05
1.05446e-05
1.05401e-05
1.05344e-05
1.05281e-05
1.05219e-05
1.0515e-05
1.05036e-05
1.0492e-05
1.04807e-05
1.04701e-05
1.04606e-05
1.04525e-05
1.04461e-05
1.04414e-05
1.04387e-05
1.04377e-05
1.04384e-05
1.04406e-05
1.04439e-05
1.0448e-05
1.04526e-05
1.04573e-05
1.0462e-05
1.04665e-05
1.04706e-05
1.04745e-05
1.0478e-05
1.04813e-05
1.04841e-05
1.04866e-05
1.04885e-05
1.04892e-05
1.04884e-05
1.04866e-05
1.04848e-05
1.04834e-05
1.04824e-05
1.04821e-05
1.04823e-05
1.04832e-05
1.04848e-05
1.0487e-05
1.04898e-05
1.04928e-05
1.04958e-05
1.04987e-05
1.05011e-05
1.0503e-05
1.0504e-05
1.05042e-05
1.05034e-05
1.05019e-05
1.04998e-05
1.04973e-05
1.04947e-05
1.04923e-05
1.04902e-05
1.04876e-05
1.04823e-05
1.04771e-05
1.0472e-05
1.04673e-05
1.04629e-05
1.0459e-05
1.04558e-05
1.04535e-05
1.0452e-05
1.04514e-05
1.04517e-05
1.04526e-05
1.04542e-05
1.04563e-05
1.04588e-05
1.04617e-05
1.04646e-05
1.04677e-05
1.0471e-05
1.04743e-05
1.04777e-05
1.04812e-05
1.04849e-05
1.04882e-05
1.04906e-05
1.04924e-05
1.04939e-05
1.04949e-05
1.04957e-05
1.04965e-05
1.04974e-05
1.04985e-05
1.04997e-05
1.0501e-05
1.05024e-05
1.05039e-05
1.05055e-05
1.0507e-05
1.05084e-05
1.05093e-05
1.05099e-05
1.05099e-05
1.05093e-05
1.05081e-05
1.05063e-05
1.05042e-05
1.05019e-05
1.04995e-05
1.04971e-05
1.04951e-05
1.04936e-05
1.04915e-05
1.04876e-05
1.04836e-05
1.04796e-05
1.04757e-05
1.0472e-05
1.04682e-05
1.04644e-05
1.0461e-05
1.04579e-05
1.04551e-05
1.04526e-05
1.04504e-05
1.04485e-05
1.04468e-05
1.04452e-05
1.04437e-05
1.04421e-05
-5.84761e-07
-7.33472e-07
1.04786e-05
6.89373e-07
8.30161e-09
6.81733e-07
7.64006e-09
6.75084e-07
6.64868e-09
6.69703e-07
5.38109e-09
6.65831e-07
3.87202e-09
6.63664e-07
2.16733e-09
6.63383e-07
2.80285e-10
6.64725e-07
-1.34186e-09
6.6788e-07
-3.15541e-09
6.72796e-07
-4.91544e-09
6.79361e-07
-6.56553e-09
6.87424e-07
-8.06301e-09
6.96804e-07
-9.38003e-09
7.07305e-07
-1.05004e-08
7.18723e-07
-1.14177e-08
7.30856e-07
-1.21339e-08
7.43516e-07
-1.26593e-08
7.56526e-07
-1.30099e-08
7.6973e-07
-1.32048e-08
7.82996e-07
-1.32659e-08
7.96213e-07
-1.32165e-08
8.09292e-07
-1.30789e-08
8.22163e-07
-1.28717e-08
8.34774e-07
-1.26111e-08
8.47084e-07
-1.23094e-08
8.59058e-07
-1.19743e-08
8.70665e-07
-1.16075e-08
8.81873e-07
-1.12073e-08
8.9264e-07
-1.07672e-08
9.02919e-07
-1.0279e-08
9.1265e-07
-9.73094e-09
9.21757e-07
-9.10755e-09
9.30149e-07
-8.3917e-09
9.37729e-07
-7.57981e-09
9.44405e-07
-6.67651e-09
9.50091e-07
-5.68547e-09
9.54699e-07
-4.60792e-09
9.58142e-07
-3.44305e-09
9.60327e-07
-2.18584e-09
9.61124e-07
-7.96372e-10
9.60632e-07
4.91501e-10
9.58782e-07
1.85052e-09
9.55502e-07
3.27972e-09
9.50788e-07
4.71443e-09
9.44684e-07
6.10408e-09
9.37281e-07
7.40235e-09
9.28708e-07
8.57369e-09
9.19114e-07
9.59333e-09
9.08675e-07
1.04396e-08
8.97585e-07
1.10896e-08
8.86064e-07
1.15214e-08
8.74346e-07
1.17178e-08
8.62674e-07
1.16712e-08
8.51286e-07
1.13881e-08
8.4041e-07
1.08762e-08
8.30272e-07
1.01383e-08
8.21095e-07
9.17684e-09
8.13092e-07
8.00292e-09
8.06455e-07
6.63711e-09
8.01349e-07
5.10521e-09
7.97916e-07
3.43316e-09
7.96235e-07
1.68103e-09
7.96283e-07
-4.74755e-11
7.97938e-07
-1.65505e-09
8.01267e-07
-3.32925e-09
8.0622e-07
-4.95312e-09
8.12705e-07
-6.48503e-09
8.20604e-07
-7.89857e-09
8.29779e-07
-9.1754e-09
8.40079e-07
-1.02998e-08
8.51336e-07
-1.12576e-08
8.63372e-07
-1.20362e-08
8.76e-07
-1.2628e-08
8.89031e-07
-1.30307e-08
9.02273e-07
-1.32418e-08
9.1554e-07
-1.32668e-08
9.28662e-07
-1.31219e-08
9.41484e-07
-1.28225e-08
9.53862e-07
-1.23781e-08
9.65659e-07
-1.17966e-08
9.76746e-07
-1.1087e-08
9.87005e-07
-1.0259e-08
9.96327e-07
-9.3225e-09
1.00461e-06
-8.28667e-09
1.01177e-06
-7.16028e-09
1.01773e-06
-5.95221e-09
1.0224e-06
-4.67125e-09
1.02572e-06
-3.32288e-09
1.02762e-06
-1.89908e-09
1.02801e-06
-3.93471e-10
1.02716e-06
8.53951e-10
1.02493e-06
2.22708e-09
1.02134e-06
3.59692e-09
1.01641e-06
4.92246e-09
1.01024e-06
6.17369e-09
1.00291e-06
7.32415e-09
9.94568e-07
8.34674e-09
9.85351e-07
9.21676e-09
9.75436e-07
9.91486e-09
9.65008e-07
1.04287e-08
9.54258e-07
1.07496e-08
9.43389e-07
1.08691e-08
9.32603e-07
1.07858e-08
9.22094e-07
1.05095e-08
9.12039e-07
1.00543e-08
9.02607e-07
9.43182e-09
8.93958e-07
8.64976e-09
8.86241e-07
7.71692e-09
8.79597e-07
6.64374e-09
8.74154e-07
5.44343e-09
8.70026e-07
4.12757e-09
8.67326e-07
2.7002e-09
8.66126e-07
1.19969e-09
8.66341e-07
-2.14508e-10
8.67934e-07
-1.59361e-09
8.70942e-07
-3.00742e-09
8.75326e-07
-4.38441e-09
8.81017e-07
-5.69054e-09
8.87924e-07
-6.90781e-09
8.95948e-07
-8.02397e-09
9.04978e-07
-9.02927e-09
9.14894e-07
-9.91597e-09
9.25572e-07
-1.06785e-08
9.36885e-07
-1.13134e-08
9.48703e-07
-1.18173e-08
9.60892e-07
-1.21891e-08
9.73323e-07
-1.24311e-08
9.85868e-07
-1.25455e-08
9.98396e-07
-1.25279e-08
1.01078e-06
-1.23884e-08
1.02291e-06
-1.21294e-08
1.03467e-06
-1.17516e-08
1.04592e-06
-1.12501e-08
1.05648e-06
-1.05604e-08
1.06618e-06
-9.69883e-09
1.07471e-06
-8.53539e-09
-6.2264e-09
2.19397e-06
1.08035e-08
2.1924e-06
9.20846e-09
2.19209e-06
6.95196e-09
2.19338e-06
4.09759e-09
2.19637e-06
8.76211e-10
2.20121e-06
-2.66662e-09
2.20795e-06
-6.46067e-09
2.21686e-06
-1.02541e-08
2.22771e-06
-1.40068e-08
2.24039e-06
-1.75954e-08
2.25475e-06
-2.09197e-08
2.27058e-06
-2.39005e-08
2.28769e-06
-2.64811e-08
2.30581e-06
-2.86282e-08
2.32473e-06
-3.03308e-08
2.34419e-06
-3.15971e-08
2.36398e-06
-3.24523e-08
2.3839e-06
-3.29306e-08
2.40377e-06
-3.30751e-08
2.42344e-06
-3.29371e-08
2.44279e-06
-3.25657e-08
2.46172e-06
-3.20063e-08
2.48015e-06
-3.12981e-08
2.49801e-06
-3.04735e-08
2.51526e-06
-2.95568e-08
2.53185e-06
-2.85652e-08
2.54775e-06
-2.75049e-08
2.56291e-06
-2.63703e-08
2.57729e-06
-2.51494e-08
2.59084e-06
-2.38259e-08
2.60348e-06
-2.23701e-08
2.61512e-06
-2.07523e-08
2.62569e-06
-1.89553e-08
2.63508e-06
-1.69792e-08
2.64323e-06
-1.48253e-08
2.65005e-06
-1.25028e-08
2.65546e-06
-1.00191e-08
2.65941e-06
-7.39319e-09
2.66185e-06
-4.62587e-09
2.66277e-06
-1.71369e-09
2.66201e-06
1.25112e-09
2.65958e-06
4.28032e-09
2.65555e-06
7.30599e-09
2.64999e-06
1.02803e-08
2.64297e-06
1.31202e-08
2.63464e-06
1.57303e-08
2.62519e-06
1.80304e-08
2.61482e-06
1.99617e-08
2.60378e-06
2.14782e-08
2.59233e-06
2.25396e-08
2.58074e-06
2.31114e-08
2.56928e-06
2.31734e-08
2.55823e-06
2.27223e-08
2.54785e-06
2.17677e-08
2.53841e-06
2.03235e-08
2.53014e-06
1.84061e-08
2.52328e-06
1.60392e-08
2.51802e-06
1.32621e-08
2.51453e-06
1.01266e-08
2.51294e-06
6.68896e-09
2.51336e-06
3.01265e-09
2.51571e-06
-6.65418e-10
2.52007e-06
-4.41071e-09
2.5265e-06
-8.07812e-09
2.5348e-06
-1.16336e-08
2.54486e-06
-1.50086e-08
2.55652e-06
-1.81467e-08
2.56962e-06
-2.10016e-08
2.58398e-06
-2.35347e-08
2.59939e-06
-2.57135e-08
2.61564e-06
-2.75079e-08
2.6325e-06
-2.88915e-08
2.64972e-06
-2.98462e-08
2.66705e-06
-3.03647e-08
2.68427e-06
-3.04551e-08
2.70114e-06
-3.01438e-08
2.71749e-06
-2.94676e-08
2.73313e-06
-2.8461e-08
2.74789e-06
-2.71449e-08
2.76163e-06
-2.55321e-08
2.77419e-06
-2.36434e-08
2.78544e-06
-2.15088e-08
2.79527e-06
-1.91597e-08
2.80361e-06
-1.66241e-08
2.81038e-06
-1.39284e-08
2.81552e-06
-1.10981e-08
2.81901e-06
-8.15755e-09
2.82081e-06
-5.12477e-09
2.8209e-06
-1.98523e-09
2.81938e-06
1.12211e-09
2.81609e-06
4.14836e-09
2.81122e-06
7.0946e-09
2.80489e-06
9.93171e-09
2.79719e-06
1.26165e-08
2.78827e-06
1.50992e-08
2.77826e-06
1.73257e-08
2.76737e-06
1.92429e-08
2.75578e-06
2.08031e-08
2.74373e-06
2.19665e-08
2.73145e-06
2.27051e-08
2.7192e-06
2.30073e-08
2.70719e-06
2.28745e-08
2.69566e-06
2.23172e-08
2.68481e-06
2.13542e-08
2.67486e-06
2.00137e-08
2.66596e-06
1.8326e-08
2.65829e-06
1.63197e-08
2.65199e-06
1.40214e-08
2.64717e-06
1.14594e-08
2.64395e-06
8.66515e-09
2.64242e-06
5.65978e-09
2.64267e-06
2.45094e-09
2.64462e-06
-7.5232e-10
2.64838e-06
-3.97568e-09
2.65392e-06
-7.13822e-09
2.66113e-06
-1.02104e-08
2.66989e-06
-1.31431e-08
2.68009e-06
-1.5895e-08
2.69161e-06
-1.84317e-08
2.70432e-06
-2.07254e-08
2.71804e-06
-2.27559e-08
2.73264e-06
-2.45093e-08
2.74793e-06
-2.59762e-08
2.76377e-06
-2.7149e-08
2.77997e-06
-2.80209e-08
2.79637e-06
-2.85896e-08
2.8128e-06
-2.88584e-08
2.82909e-06
-2.88392e-08
2.84511e-06
-2.85461e-08
2.86071e-06
-2.79886e-08
2.87577e-06
-2.7192e-08
2.89016e-06
-2.61338e-08
2.90375e-06
-2.48391e-08
2.91643e-06
-2.32491e-08
2.92792e-06
-2.11865e-08
2.93856e-06
-1.91743e-08
-1.49316e-08
3.86018e-06
1.06592e-08
3.86119e-06
8.20025e-09
3.86338e-06
4.76149e-09
3.86698e-06
4.98845e-10
3.87228e-06
-4.42863e-09
3.87948e-06
-9.86597e-09
3.88861e-06
-1.55881e-08
3.89973e-06
-2.13697e-08
3.91275e-06
-2.70335e-08
3.92757e-06
-3.24101e-08
3.944e-06
-3.73469e-08
3.96182e-06
-4.17224e-08
3.98079e-06
-4.54498e-08
4.00064e-06
-4.84784e-08
4.0211e-06
-5.07925e-08
4.04191e-06
-5.24044e-08
4.06281e-06
-5.33532e-08
4.08358e-06
-5.3704e-08
4.10404e-06
-5.35382e-08
4.12404e-06
-5.29376e-08
4.14346e-06
-5.19803e-08
4.16219e-06
-5.07423e-08
4.18019e-06
-4.92928e-08
4.1974e-06
-4.76876e-08
4.21382e-06
-4.59692e-08
4.22942e-06
-4.41713e-08
4.24423e-06
-4.23105e-08
4.25824e-06
-4.03823e-08
4.27146e-06
-3.83715e-08
4.28389e-06
-3.62499e-08
4.29549e-06
-3.39723e-08
4.30623e-06
-3.14996e-08
4.31608e-06
-2.88037e-08
4.32497e-06
-2.58642e-08
4.33281e-06
-2.26627e-08
4.33951e-06
-1.92077e-08
4.34501e-06
-1.55202e-08
4.34924e-06
-1.16259e-08
4.35218e-06
-7.56532e-09
4.35381e-06
-3.34101e-09
4.3541e-06
9.6019e-10
4.35302e-06
5.36683e-09
4.35052e-06
9.79819e-09
4.34663e-06
1.41782e-08
4.34136e-06
1.83821e-08
4.33483e-06
2.22598e-08
4.32718e-06
2.56803e-08
4.31861e-06
2.85379e-08
4.30934e-06
3.07479e-08
4.29963e-06
3.22494e-08
4.28974e-06
3.29994e-08
4.27994e-06
3.29778e-08
4.27047e-06
3.21889e-08
4.26159e-06
3.06479e-08
4.25354e-06
2.83728e-08
4.24656e-06
2.53903e-08
4.24085e-06
2.17439e-08
4.23662e-06
1.74936e-08
4.23403e-06
1.27153e-08
4.23322e-06
7.50111e-09
4.23432e-06
1.91024e-09
4.23725e-06
-3.59916e-09
4.24208e-06
-9.23935e-09
4.24875e-06
-1.47486e-08
4.25717e-06
-2.00461e-08
4.2672e-06
-2.50423e-08
4.27871e-06
-2.96556e-08
4.29153e-06
-3.3823e-08
4.30549e-06
-3.7497e-08
4.32042e-06
-4.06377e-08
4.33611e-06
-4.32049e-08
4.35238e-06
-4.51553e-08
4.36898e-06
-4.6452e-08
4.38569e-06
-4.70763e-08
4.40229e-06
-4.70481e-08
4.41857e-06
-4.64259e-08
4.43438e-06
-4.52764e-08
4.44957e-06
-4.36527e-08
4.46401e-06
-4.15807e-08
4.47754e-06
-3.90648e-08
4.49002e-06
-3.61204e-08
4.5013e-06
-3.27916e-08
4.51127e-06
-2.9136e-08
4.51985e-06
-2.52041e-08
4.52697e-06
-2.10413e-08
4.53256e-06
-1.66896e-08
4.53658e-06
-1.21828e-08
4.539e-06
-7.54087e-09
4.5398e-06
-2.78016e-09
4.53903e-06
1.89034e-09
4.53665e-06
6.52965e-09
4.53271e-06
1.10303e-08
4.52728e-06
1.53582e-08
4.52045e-06
1.94477e-08
4.51233e-06
2.32189e-08
4.50307e-06
2.65866e-08
4.49284e-06
2.94725e-08
4.48184e-06
3.1808e-08
4.47027e-06
3.35314e-08
4.45838e-06
3.45953e-08
4.44641e-06
3.49761e-08
4.43461e-06
3.46782e-08
4.4232e-06
3.37242e-08
4.41241e-06
3.21427e-08
4.40245e-06
2.99731e-08
4.39352e-06
2.7265e-08
4.38576e-06
2.40709e-08
4.37934e-06
2.04419e-08
4.37438e-06
1.64284e-08
4.37097e-06
1.2072e-08
4.36922e-06
7.4049e-09
4.36919e-06
2.48393e-09
4.37092e-06
-2.48388e-09
4.3744e-06
-7.45386e-09
4.37958e-06
-1.23223e-08
4.3864e-06
-1.70286e-08
4.39477e-06
-2.15106e-08
4.40458e-06
-2.57097e-08
4.41573e-06
-2.95736e-08
4.42806e-06
-3.30591e-08
4.44144e-06
-3.61379e-08
4.45573e-06
-3.87948e-08
4.47077e-06
-4.10201e-08
4.48642e-06
-4.28018e-08
4.50253e-06
-4.41275e-08
4.51893e-06
-4.49873e-08
4.53545e-06
-4.53824e-08
4.55194e-06
-4.53218e-08
4.56823e-06
-4.48458e-08
4.58422e-06
-4.39784e-08
4.59978e-06
-4.27452e-08
4.61482e-06
-4.11748e-08
4.62917e-06
-3.9186e-08
4.64287e-06
-3.69537e-08
4.65567e-06
-3.39865e-08
4.66786e-06
-3.1368e-08
-2.57549e-08
5.67547e-06
1.05811e-08
5.67611e-06
7.55496e-09
5.67764e-06
3.23096e-09
5.68039e-06
-2.25056e-09
5.68464e-06
-8.67021e-09
5.69052e-06
-1.57498e-08
5.69814e-06
-2.32082e-08
5.70754e-06
-3.07732e-08
5.7187e-06
-3.81926e-08
5.73153e-06
-4.52397e-08
5.7459e-06
-5.17125e-08
5.76162e-06
-5.74452e-08
5.77849e-06
-6.23157e-08
5.79626e-06
-6.62492e-08
5.81468e-06
-6.92199e-08
5.83351e-06
-7.12301e-08
5.85247e-06
-7.23112e-08
5.87131e-06
-7.2548e-08
5.88984e-06
-7.20618e-08
5.90785e-06
-7.09564e-08
5.9252e-06
-6.93272e-08
5.94174e-06
-6.72796e-08
5.95736e-06
-6.49145e-08
5.97199e-06
-6.23143e-08
5.98557e-06
-5.95478e-08
5.99808e-06
-5.66827e-08
6.00952e-06
-5.37561e-08
6.0199e-06
-5.07641e-08
6.02925e-06
-4.77225e-08
6.03762e-06
-4.46172e-08
6.04502e-06
-4.13741e-08
6.05145e-06
-3.79299e-08
6.05692e-06
-3.42681e-08
6.06144e-06
-3.03817e-08
6.06502e-06
-2.62457e-08
6.06765e-06
-2.18411e-08
6.06931e-06
-1.71789e-08
6.06999e-06
-1.2305e-08
6.06971e-06
-7.28687e-09
6.06854e-06
-2.16821e-09
6.06647e-06
3.03242e-09
6.06351e-06
8.32104e-09
6.05965e-06
1.36615e-08
6.05485e-06
1.89778e-08
6.04912e-06
2.41086e-08
6.04253e-06
2.88483e-08
6.03518e-06
3.30325e-08
6.02721e-06
3.65124e-08
6.01879e-06
3.91627e-08
6.01013e-06
4.09089e-08
6.00142e-06
4.17156e-08
5.99283e-06
4.15627e-08
5.98458e-06
4.0442e-08
5.97687e-06
3.83609e-08
5.96991e-06
3.53321e-08
5.96392e-06
3.13752e-08
5.95913e-06
2.65395e-08
5.9557e-06
2.09251e-08
5.95377e-06
1.46436e-08
5.95343e-06
7.83873e-09
5.95463e-06
7.11435e-10
5.95754e-06
-6.51313e-09
5.96201e-06
-1.37058e-08
5.96797e-06
-2.07068e-08
5.97531e-06
-2.73921e-08
5.98392e-06
-3.36479e-08
5.99364e-06
-3.93755e-08
6.00432e-06
-4.45044e-08
6.0158e-06
-4.89819e-08
6.02793e-06
-5.27677e-08
6.04055e-06
-5.58204e-08
6.05348e-06
-5.80826e-08
6.06653e-06
-5.95021e-08
6.07952e-06
-6.00693e-08
6.0923e-06
-5.98253e-08
6.10473e-06
-5.88537e-08
6.11671e-06
-5.72655e-08
6.12822e-06
-5.51575e-08
6.13919e-06
-5.25534e-08
6.14954e-06
-4.94119e-08
6.15913e-06
-4.57154e-08
6.16786e-06
-4.152e-08
6.17563e-06
-3.69079e-08
6.18237e-06
-3.19408e-08
6.188e-06
-2.6671e-08
6.19246e-06
-2.11487e-08
6.1957e-06
-1.54219e-08
6.1977e-06
-9.54166e-09
6.19849e-06
-3.56919e-09
6.19798e-06
2.40035e-09
6.1962e-06
8.3087e-09
6.19314e-06
1.40869e-08
6.18882e-06
1.96768e-08
6.18327e-06
2.49973e-08
6.17656e-06
2.99355e-08
6.16878e-06
3.43657e-08
6.16007e-06
3.81837e-08
6.15057e-06
4.13025e-08
6.14047e-06
4.3632e-08
6.12996e-06
4.51032e-08
6.11925e-06
4.56904e-08
6.10853e-06