/*--------------------------------*- C++ -*----------------------------------*\
| =========                 |                                                 |
| \\      /  F ield         | OpenFOAM: The Open Source CFD Toolbox           |
|  \\    /   O peration     | Version:  2206                                  |
|   \\  /    A nd           | Website:  www.openfoam.com                      |
|    \\/     M anipulation  |                                                 |
\*---------------------------------------------------------------------------*/
FoamFile
{
    version     2.0;
    format      ascii;
    arch        "LSB;label=32;scalar=64";
    class       surfaceScalarField;
    location    "18.6";
    object      phi_0;
}
// * * * * * * * * * * * * * * * * * * * * * * * * * * * * * * * * * * * * * //

dimensions      [0 3 -1 0 0 0 0];

oriented        oriented;

internalField   nonuniform List<scalar> 
9469
(
-2.17538e-06
3.98285e-07
-2.56844e-06
3.93061e-07
-2.91783e-06
3.49387e-07
-3.18533e-06
2.67502e-07
-3.34285e-06
1.57519e-07
-3.37405e-06
3.11981e-08
-3.29367e-06
-8.03717e-08
-3.10817e-06
-1.85509e-07
-2.84161e-06
-2.66553e-07
-2.52673e-06
-3.14887e-07
-2.19843e-06
-3.283e-07
-1.88958e-06
-3.08844e-07
-1.62926e-06
-2.60323e-07
-1.44223e-06
-1.87026e-07
-1.34661e-06
-9.56262e-08
-1.34921e-06
2.59871e-09
-1.42919e-06
7.9982e-08
-1.59192e-06
1.6273e-07
-1.80789e-06
2.15971e-07
-2.0435e-06
2.35615e-07
-2.26544e-06
2.21938e-07
-2.43106e-06
1.65616e-07
-2.50252e-06
7.1462e-08
-2.47201e-06
-3.05152e-08
-2.35385e-06
-1.18161e-07
-2.14762e-06
-2.06226e-07
-1.86582e-06
-2.81804e-07
-1.51849e-06
-3.47321e-07
-1.11402e-06
-4.04473e-07
-6.6079e-07
-4.53231e-07
-1.64578e-07
-4.96212e-07
3.60882e-07
-5.25461e-07
9.05627e-07
-5.44744e-07
1.4696e-06
-5.63977e-07
2.05506e-06
-5.8546e-07
2.65283e-06
-5.97762e-07
3.24998e-06
-5.97152e-07
-5.85123e-07
3.8351e-06
-2.27783e-06
7.13449e-07
-2.58516e-06
7.00393e-07
-2.85403e-06
6.18249e-07
-3.03865e-06
4.52128e-07
-3.08676e-06
2.05625e-07
-3.00701e-06
-4.85497e-08
-2.81053e-06
-2.7685e-07
-2.51322e-06
-4.82816e-07
-2.15406e-06
-6.25722e-07
-1.7639e-06
-7.05038e-07
-1.36745e-06
-7.24753e-07
-9.86545e-07
-6.8975e-07
-6.42981e-07
-6.03888e-07
-3.55665e-07
-4.74341e-07
-1.37884e-07
-3.13408e-07
5.67103e-09
-1.40956e-07
7.21151e-08
1.35379e-08
9.51492e-08
1.39696e-07
1.02162e-07
2.08958e-07
1.12828e-07
2.24949e-07
1.48839e-07
1.85927e-07
2.2079e-07
9.36656e-08
3.45672e-07
-5.34201e-08
5.29102e-07
-2.13945e-07
7.81227e-07
-3.70285e-07
1.08989e-06
-5.14891e-07
1.45199e-06
-6.43905e-07
1.86217e-06
-7.57501e-07
2.31439e-06
-8.56692e-07
2.80284e-06
-9.41676e-07
3.31878e-06
-1.01215e-06
3.86073e-06
-1.06741e-06
4.42553e-06
-1.10955e-06
5.00277e-06
-1.14122e-06
5.57882e-06
-1.16151e-06
6.15008e-06
-1.16902e-06
6.71845e-06
-1.16553e-06
-1.15551e-06
7.28884e-06
-6.29975e-07
8.30257e-07
-7.22083e-07
7.925e-07
-7.55422e-07
6.51589e-07
-6.95219e-07
3.91925e-07
-5.3914e-07
4.95461e-08
-3.03209e-07
-2.8448e-07
1.95953e-08
-5.99654e-07
3.82018e-07
-8.45239e-07
7.59241e-07
-1.00295e-06
1.12996e-06
-1.07576e-06
1.49024e-06
-1.08503e-06
1.84041e-06
-1.03992e-06
2.17953e-06
-9.4301e-07
2.50811e-06
-8.02916e-07
2.82529e-06
-6.30595e-07
3.12635e-06
-4.42017e-07
3.39997e-06
-2.60079e-07
3.65695e-06
-1.1728e-07
3.90164e-06
-3.57307e-08
4.13441e-06
-7.82663e-09
4.35961e-06
-3.92688e-08
4.58302e-06
-1.29747e-07
4.81066e-06
-2.81056e-07
5.05399e-06
-4.57274e-07
5.3213e-06
-6.37604e-07
5.6156e-06
-8.09182e-07
5.93639e-06
-9.64698e-07
6.28144e-06
-1.10255e-06
6.64759e-06
-1.22285e-06
7.03086e-06
-1.32494e-06
7.42612e-06
-1.40741e-06
7.82976e-06
-1.47105e-06
8.24004e-06
-1.51983e-06
8.65191e-06
-1.55308e-06
9.0608e-06
-1.5704e-06
9.46612e-06
-1.57434e-06
9.86965e-06
-1.56906e-06
-1.56032e-06
1.02745e-05
2.96328e-06
6.49593e-07
3.18615e-06
5.69624e-07
3.45643e-06
3.81313e-07
3.77241e-06
7.59418e-08
4.11472e-06
-2.92764e-07
4.48886e-06
-6.58618e-07
4.86174e-06
-9.72534e-07
5.21897e-06
-1.20247e-06
5.5392e-06
-1.32318e-06
5.81561e-06
-1.35217e-06
6.05712e-06
-1.32654e-06
6.27014e-06
-1.25294e-06
6.45399e-06
-1.12686e-06
6.61905e-06
-9.67979e-07
6.7836e-06
-7.95137e-07
6.96831e-06
-6.26729e-07
7.18966e-06
-4.81431e-07
7.44755e-06
-3.75171e-07
7.72559e-06
-3.13776e-07
8.01738e-06
-2.99609e-07
8.31696e-06
-3.38854e-07
8.6178e-06
-4.30588e-07
8.90123e-06
-5.64478e-07
9.16632e-06
-7.22369e-07
9.41792e-06
-8.89207e-07
9.66171e-06
-1.05297e-06
9.90278e-06
-1.20576e-06
1.0144e-05
-1.34379e-06
1.03857e-05
-1.46457e-06
1.06268e-05
-1.56603e-06
1.08663e-05
-1.64684e-06
1.11037e-05
-1.7085e-06
1.13394e-05
-1.75556e-06
1.15692e-05
-1.78286e-06
1.17928e-05
-1.79398e-06
1.20134e-05
-1.79499e-06
1.22343e-05
-1.78991e-06
-1.78378e-06
1.24577e-05
7.91928e-06
4.8481e-07
8.17512e-06
3.1378e-07
8.48338e-06
7.30564e-08
8.81408e-06
-2.54758e-07
9.12615e-06
-6.04831e-07
9.39569e-06
-9.2816e-07
9.61298e-06
-1.18983e-06
9.78766e-06
-1.37714e-06
9.93812e-06
-1.47363e-06
1.00684e-05
-1.48249e-06
1.01941e-05
-1.45224e-06
1.03183e-05
-1.37708e-06
1.04484e-05
-1.25696e-06
1.05921e-05
-1.1117e-06
1.07543e-05
-9.57345e-07
1.09356e-05
-8.08008e-07
1.1133e-05
-6.78822e-07
1.13401e-05
-5.82323e-07
1.15531e-05
-5.26723e-07
1.17695e-05
-5.16007e-07
1.19819e-05
-5.51315e-07
1.21811e-05
-6.29714e-07
1.23594e-05
-7.42842e-07
1.25172e-05
-8.80127e-07
1.2657e-05
-1.02906e-06
1.27816e-05
-1.17756e-06
1.28935e-05
-1.31763e-06
1.29941e-05
-1.44436e-06
1.30841e-05
-1.55459e-06
1.31653e-05
-1.6472e-06
1.32395e-05
-1.72108e-06
1.33074e-05
-1.77642e-06
1.33697e-05
-1.81781e-06
1.343e-05
-1.84317e-06
1.34922e-05
-1.85615e-06
1.35584e-05
-1.86124e-06
1.36302e-05
-1.8617e-06
-1.8625e-06
1.37089e-05
1.27572e-05
3.69941e-07
1.28986e-05
1.72295e-07
1.30513e-05
-7.95927e-08
1.31693e-05
-3.72724e-07
1.32403e-05
-6.75839e-07
1.32582e-05
-9.46116e-07
1.32313e-05
-1.16289e-06
1.31757e-05
-1.32153e-06
1.31128e-05
-1.41078e-06
1.30569e-05
-1.42656e-06
1.30123e-05
-1.40765e-06
1.29816e-05
-1.34634e-06
1.29764e-05
-1.25181e-06
1.30025e-05
-1.13778e-06
1.30622e-05
-1.01704e-06
1.31564e-05
-9.02265e-07
1.32821e-05
-8.04469e-07
1.34314e-05
-7.31627e-07
1.3595e-05
-6.90358e-07
1.37638e-05
-6.84765e-07
1.3928e-05
-7.15498e-07
1.40774e-05
-7.7917e-07
1.42044e-05
-8.69851e-07
1.43051e-05
-9.80823e-07
1.43789e-05
-1.10281e-06
1.44248e-05
-1.2235e-06
1.44455e-05
-1.33834e-06
1.44461e-05
-1.4449e-06
1.44312e-05
-1.53971e-06
1.44055e-05
-1.62155e-06
1.43735e-05
-1.68909e-06
1.4339e-05
-1.74188e-06
1.43025e-05
-1.78135e-06
1.42694e-05
-1.81007e-06
1.42433e-05
-1.82997e-06
1.42247e-05
-1.84271e-06
1.42146e-05
-1.85159e-06
-1.86019e-06
1.42123e-05
1.50409e-05
2.58306e-07
1.51432e-05
6.99457e-08
1.5216e-05
-1.52354e-07
1.52372e-05
-3.93902e-07
1.51973e-05
-6.36024e-07
1.51066e-05
-8.55423e-07
1.49797e-05
-1.0359e-06
1.4828e-05
-1.16988e-06
1.46709e-05
-1.25365e-06
1.45325e-05
-1.28813e-06
1.44083e-05
-1.28349e-06
1.43075e-05
-1.24551e-06
1.42382e-05
-1.18258e-06
1.4205e-05
-1.10455e-06
1.42079e-05
-1.01991e-06
1.42447e-05
-9.39143e-07
1.43117e-05
-8.7143e-07
1.44014e-05
-8.21308e-07
1.45055e-05
-7.94429e-07
1.46155e-05
-7.94777e-07
1.47208e-05
-8.20799e-07
1.48112e-05
-8.69583e-07
1.48818e-05
-9.40505e-07
1.49294e-05
-1.02841e-06
1.49511e-05
-1.12444e-06
1.49482e-05
-1.22066e-06
1.49258e-05
-1.31593e-06
1.48887e-05
-1.40782e-06
1.48402e-05
-1.49117e-06
1.4783e-05
-1.56441e-06
1.47208e-05
-1.62686e-06
1.46569e-05
-1.67802e-06
1.45944e-05
-1.71885e-06
1.45352e-05
-1.75084e-06
1.44807e-05
-1.77547e-06
1.44324e-05
-1.79437e-06
1.43912e-05
-1.81037e-06
-1.82663e-06
1.43576e-05
1.5824e-05
1.78263e-07
1.58786e-05
1.53811e-08
1.58964e-05
-1.70097e-07
1.58682e-05
-3.65792e-07
1.5795e-05
-5.62756e-07
1.56853e-05
-7.45715e-07
1.55491e-05
-8.99725e-07
1.53972e-05
-1.01796e-06
1.52411e-05
-1.09758e-06
1.50928e-05
-1.13985e-06
1.49593e-05
-1.14995e-06
1.48481e-05
-1.13433e-06
1.47647e-05
-1.09915e-06
1.47119e-05
-1.05173e-06
1.46892e-05
-9.97237e-07
1.46933e-05
-9.43289e-07
1.47225e-05
-9.00596e-07
1.47726e-05
-8.71388e-07
1.4835e-05
-8.56815e-07
1.48993e-05
-8.59105e-07
1.49598e-05
-8.81284e-07
1.50136e-05
-9.23387e-07
1.50538e-05
-9.80749e-07
1.50741e-05
-1.04871e-06
1.50749e-05
-1.12526e-06
1.50616e-05
-1.20734e-06
1.50347e-05
-1.28905e-06
1.49936e-05
-1.36672e-06
1.4941e-05
-1.43855e-06
1.48802e-05
-1.50357e-06
1.48143e-05
-1.56098e-06
1.47462e-05
-1.6099e-06
1.4678e-05
-1.65067e-06
1.46114e-05
-1.68424e-06
1.45482e-05
-1.71224e-06
1.44898e-05
-1.73603e-06
1.44368e-05
-1.75736e-06
-1.77839e-06
1.43886e-05
1.59287e-05
1.10689e-07
1.59724e-05
-2.83219e-08
1.59823e-05
-1.79998e-07
1.59582e-05
-3.41687e-07
1.58983e-05
-5.02827e-07
1.58042e-05
-6.51663e-07
1.5685e-05
-7.80465e-07
1.55509e-05
-8.83892e-07
1.54124e-05
-9.59054e-07
1.52787e-05
-1.00624e-06
1.51573e-05
-1.0285e-06
1.50533e-05
-1.03029e-06
1.49703e-05
-1.01619e-06
1.49102e-05
-9.91581e-07
1.48742e-05
-9.61298e-07
1.48611e-05
-9.30158e-07
1.48664e-05
-9.05937e-07
1.48861e-05
-8.91061e-07
1.49161e-05
-8.86864e-07
1.49528e-05
-8.95717e-07
1.49895e-05
-9.17994e-07
1.50205e-05
-9.54368e-07
1.50421e-05
-1.00237e-06
1.50522e-05
-1.0588e-06
1.50492e-05
-1.12227e-06
1.5032e-05
-1.19017e-06
1.5002e-05
-1.25903e-06
1.4961e-05
-1.3257e-06
1.49107e-05
-1.38824e-06
1.4853e-05
-1.44587e-06
1.47899e-05
-1.49789e-06
1.47237e-05
-1.54368e-06
1.46565e-05
-1.58348e-06
1.45901e-05
-1.61785e-06
1.45257e-05
-1.64789e-06
1.44643e-05
-1.67465e-06
1.44065e-05
-1.69954e-06
-1.72396e-06
1.43521e-05
1.58306e-05
6.42842e-08
1.58592e-05
-5.69055e-08
1.5865e-05
-1.85804e-07
1.58424e-05
-3.19162e-07
1.57916e-05
-4.52024e-07
1.57157e-05
-5.75755e-07
1.562e-05
-6.84729e-07
1.55114e-05
-7.75285e-07
1.53977e-05
-8.45342e-07
1.52862e-05
-8.94773e-07
1.5183e-05
-9.2529e-07
1.50925e-05
-9.39816e-07
1.5018e-05
-9.41691e-07
1.49609e-05
-9.34454e-07
1.49215e-05
-9.21948e-07
1.49001e-05
-9.08734e-07
1.48937e-05
-8.99554e-07
1.48987e-05
-8.96062e-07
1.49116e-05
-8.99695e-07
1.49286e-05
-9.12702e-07
1.49461e-05
-9.35582e-07
1.49603e-05
-9.6853e-07
1.49684e-05
-1.01045e-06
1.49687e-05
-1.05914e-06
1.49595e-05
-1.113e-06
1.49398e-05
-1.17048e-06
1.49099e-05
-1.22918e-06
1.48709e-05
-1.28672e-06
1.48243e-05
-1.3416e-06
1.47715e-05
-1.39308e-06
1.47142e-05
-1.44062e-06
1.46543e-05
-1.48374e-06
1.45932e-05
-1.52239e-06
1.45323e-05
-1.55696e-06
1.44726e-05
-1.58812e-06
1.44146e-05
-1.61668e-06
1.43587e-05
-1.64362e-06
-1.6699e-06
1.43046e-05
1.56674e-05
3.0336e-08
1.56861e-05
-7.56168e-08
1.56867e-05
-1.86426e-07
1.5667e-05
-2.99457e-07
1.56261e-05
-4.1112e-07
1.55663e-05
-5.15969e-07
1.54916e-05
-6.10044e-07
1.5407e-05
-6.9064e-07
1.53178e-05
-7.56166e-07
1.52293e-05
-8.06304e-07
1.5146e-05
-8.41995e-07
1.50713e-05
-8.6512e-07
1.50076e-05
-8.78009e-07
1.49566e-05
-8.83387e-07
1.49192e-05
-8.84558e-07
1.48955e-05
-8.85018e-07
1.48829e-05
-8.8697e-07
1.48783e-05
-8.91485e-07
1.48798e-05
-9.01229e-07
1.4885e-05
-9.17821e-07
1.4891e-05
-9.41662e-07
1.48952e-05
-9.72651e-07
1.48949e-05
-1.01018e-06
1.48888e-05
-1.05306e-06
1.48758e-05
-1.10001e-06
1.48551e-05
-1.14973e-06
1.48265e-05
-1.20062e-06
1.47909e-05
-1.25113e-06
1.47494e-05
-1.30005e-06
1.47029e-05
-1.34661e-06
1.46526e-05
-1.39028e-06
1.45996e-05
-1.43074e-06
1.4545e-05
-1.46781e-06
1.44897e-05
-1.50174e-06
1.44345e-05
-1.53292e-06
1.43798e-05
-1.56195e-06
1.43257e-05
-1.58948e-06
-1.6162e-06
1.4272e-05
1.55203e-05
5.18313e-09
1.55334e-05
-8.86977e-08
1.55325e-05
-1.85542e-07
1.55164e-05
-2.83347e-07
1.54846e-05
-3.79349e-07
1.54387e-05
-4.70111e-07
1.53815e-05
-5.52794e-07
1.53162e-05
-6.25394e-07
1.52468e-05
-6.86713e-07
1.51769e-05
-7.36417e-07
1.51099e-05
-7.75037e-07
1.50487e-05
-8.03839e-07
1.49952e-05
-8.24523e-07
1.49509e-05
-8.39143e-07
1.49165e-05
-8.50084e-07
1.4891e-05
-8.596e-07
1.48732e-05
-8.6913e-07
1.4862e-05
-8.80245e-07
1.48558e-05
-8.95078e-07
1.48526e-05
-9.14593e-07
1.48502e-05
-9.39248e-07
1.48465e-05
-9.69029e-07
1.484e-05
-1.00361e-06
1.48292e-05
-1.04227e-06
1.48133e-05
-1.08408e-06
1.47916e-05
-1.12803e-06
1.4764e-05
-1.17304e-06
1.47308e-05
-1.21799e-06
1.46927e-05
-1.26195e-06
1.46504e-05
-1.30422e-06
1.46044e-05
-1.34433e-06
1.45557e-05
-1.38206e-06
1.45052e-05
-1.41724e-06
1.44534e-05
-1.44996e-06
1.44009e-05
-1.48044e-06
1.4348e-05
-1.50909e-06
1.42949e-05
-1.53631e-06
-1.56261e-06
1.42413e-05
1.5401e-05
-1.45129e-08
1.54109e-05
-9.86402e-08
1.54099e-05
-1.8451e-07
1.53971e-05
-2.70529e-07
1.53723e-05
-3.54599e-07
1.53367e-05
-4.34486e-07
1.52921e-05
-5.0819e-07
1.52409e-05
-5.74244e-07
1.5186e-05
-6.31749e-07
1.513e-05
-6.80418e-07
1.50755e-05
-7.20556e-07
1.50246e-05
-7.52986e-07
1.4979e-05
-7.78897e-07
1.49397e-05
-7.99809e-07
1.49071e-05
-8.17488e-07
1.4881e-05
-8.33459e-07
1.48606e-05
-8.48787e-07
1.48453e-05
-8.64935e-07
1.48337e-05
-8.83526e-07
1.48244e-05
-9.05281e-07
1.48158e-05
-9.30639e-07
1.48065e-05
-9.59655e-07
1.4795e-05
-9.92138e-07
1.47803e-05
-1.02764e-06
1.47618e-05
-1.06553e-06
1.47388e-05
-1.10507e-06
1.47113e-05
-1.14547e-06
1.46792e-05
-1.18595e-06
1.46431e-05
-1.22578e-06
1.46033e-05
-1.26442e-06
1.45604e-05
-1.30146e-06
1.4515e-05
-1.33664e-06
1.44676e-05
-1.36984e-06
1.44187e-05
-1.40105e-06
1.43686e-05
-1.43041e-06
1.43177e-05
-1.45811e-06
1.42658e-05
-1.48446e-06
-1.50975e-06
1.42129e-05
1.52976e-05
-3.08392e-08
1.53059e-05
-1.06933e-07
1.53053e-05
-1.8392e-07
1.52953e-05
-2.60512e-07
1.5276e-05
-3.35238e-07
1.5248e-05
-4.06567e-07
1.52129e-05
-4.7309e-07
1.51724e-05
-5.3373e-07
1.51285e-05
-5.87801e-07
1.50831e-05
-6.35066e-07
1.50383e-05
-6.75701e-07
1.49955e-05
-7.10252e-07
1.49562e-05
-7.3955e-07
1.49211e-05
-7.64709e-07
1.48906e-05
-7.87009e-07
1.48647e-05
-8.07508e-07
1.48429e-05
-8.2705e-07
1.48249e-05
-8.46877e-07
1.48096e-05
-8.6825e-07
1.4796e-05
-8.91709e-07
1.4783e-05
-9.17609e-07
1.47694e-05
-9.46058e-07
1.47542e-05
-9.76974e-07
1.47367e-05
-1.01009e-06
1.47161e-05
-1.04496e-06
1.46921e-05
-1.08108e-06
1.46645e-05
-1.11786e-06
1.46333e-05
-1.15474e-06
1.45987e-05
-1.19117e-06
1.4561e-05
-1.2267e-06
1.45205e-05
-1.26099e-06
1.44777e-05
-1.29381e-06
1.44328e-05
-1.32501e-06
1.43863e-05
-1.35455e-06
1.43384e-05
-1.38247e-06
1.42892e-05
-1.4089e-06
1.42387e-05
-1.43399e-06
-1.45792e-06
1.41869e-05
1.52053e-05
-4.5235e-08
1.52129e-05
-1.1453e-07
1.52131e-05
-1.84117e-07
1.52056e-05
-2.53049e-07
1.51907e-05
-3.20274e-07
1.51688e-05
-3.84709e-07
1.51411e-05
-4.45349e-07
1.51087e-05
-5.01396e-07
1.50733e-05
-5.52336e-07
1.50362e-05
-5.9798e-07
1.49989e-05
-6.38432e-07
1.49627e-05
-6.7404e-07
1.49285e-05
-7.05379e-07
1.48971e-05
-7.33268e-07
1.48687e-05
-7.58644e-07
1.48435e-05
-7.82276e-07
1.48213e-05
-8.04831e-07
1.48017e-05
-8.27287e-07
1.47841e-05
-8.50626e-07
1.47676e-05
-8.75273e-07
1.47515e-05
-9.01514e-07
1.4735e-05
-9.29485e-07
1.47172e-05
-9.59173e-07
1.46975e-05
-9.90413e-07
1.46754e-05
-1.02292e-06
1.46507e-05
-1.05631e-06
1.4623e-05
-1.09019e-06
1.45924e-05
-1.12412e-06
1.45589e-05
-1.15769e-06
1.45227e-05
-1.19054e-06
1.44842e-05
-1.2224e-06
1.44434e-05
-1.25304e-06
1.44007e-05
-1.28231e-06
1.43563e-05
-1.31015e-06
1.43103e-05
-1.33653e-06
1.42629e-05
-1.3615e-06
1.42141e-05
-1.38512e-06
-1.40749e-06
1.41636e-05
1.51224e-05
-5.85704e-08
1.51298e-05
-1.21958e-07
1.5131e-05
-1.85292e-07
1.51258e-05
-2.4787e-07
1.51145e-05
-3.08919e-07
1.50974e-05
-3.67659e-07
1.50754e-05
-4.23364e-07
1.50495e-05
-4.75443e-07
1.50206e-05
-5.23508e-07
1.49901e-05
-5.67407e-07
1.49588e-05
-6.07198e-07
1.49279e-05
-6.43102e-07
1.4898e-05
-6.75518e-07
1.48698e-05
-7.0505e-07
1.48436e-05
-7.32387e-07
1.48194e-05
-7.58096e-07
1.47972e-05
-7.82693e-07
1.47769e-05
-8.06928e-07
1.47578e-05
-8.31569e-07
1.47395e-05
-8.56968e-07
1.47214e-05
-8.83354e-07
1.47027e-05
-9.10868e-07
1.46831e-05
-9.3953e-07
1.46619e-05
-9.69246e-07
1.46389e-05
-9.99829e-07
1.46136e-05
-1.03102e-06
1.45859e-05
-1.06252e-06
1.45558e-05
-1.094e-06
1.45233e-05
-1.12517e-06
1.44884e-05
-1.15572e-06
1.44514e-05
-1.18542e-06
1.44125e-05
-1.21406e-06
1.43717e-05
-1.24151e-06
1.43292e-05
-1.26767e-06
1.42851e-05
-1.29247e-06
1.42395e-05
-1.3159e-06
1.41924e-05
-1.33796e-06
-1.35867e-06
1.41436e-05
1.50476e-05
-7.1386e-08
1.50552e-05
-1.2959e-07
1.50575e-05
-1.87549e-07
1.50543e-05
-2.44731e-07
1.5046e-05
-3.00564e-07
1.50328e-05
-3.54482e-07
1.50154e-05
-4.0595e-07
1.49945e-05
-4.54528e-07
1.49709e-05
-4.99919e-07
1.49455e-05
-5.42005e-07
1.49191e-05
-5.80812e-07
1.48925e-05
-6.16479e-07
1.48662e-05
-6.49281e-07
1.48409e-05
-6.7966e-07
1.48166e-05
-7.08128e-07
1.47936e-05
-7.35105e-07
1.47719e-05
-7.60987e-07
1.47513e-05
-7.8634e-07
1.47315e-05
-8.11764e-07
1.47121e-05
-8.37558e-07
1.46926e-05
-8.63903e-07
1.46727e-05
-8.90927e-07
1.46518e-05
-9.18673e-07
1.46297e-05
-9.47095e-07
1.46059e-05
-9.76074e-07
1.45803e-05
-1.00543e-06
1.45528e-05
-1.03494e-06
1.45231e-05
-1.06437e-06
1.44915e-05
-1.09348e-06
1.44578e-05
-1.12204e-06
1.44222e-05
-1.14983e-06
1.43848e-05
-1.17668e-06
1.43457e-05
-1.20244e-06
1.43051e-05
-1.22699e-06
1.42628e-05
-1.25025e-06
1.42191e-05
-1.27216e-06
1.41738e-05
-1.29265e-06
-1.3117e-06
1.41268e-05
1.49802e-05
-8.40591e-08
1.49883e-05
-1.37638e-07
1.49916e-05
-1.90878e-07
1.49903e-05
-2.43374e-07
1.49844e-05
-2.947e-07
1.49744e-05
-3.44436e-07
1.49606e-05
-3.92187e-07
1.49437e-05
-4.37618e-07
1.49243e-05
-4.80504e-07
1.4903e-05
-5.20747e-07
1.48806e-05
-5.58354e-07
1.48575e-05
-5.93409e-07
1.48343e-05
-6.26101e-07
1.48114e-05
-6.56749e-07
1.4789e-05
-6.85733e-07
1.47673e-05
-7.13367e-07
1.47462e-05
-7.3995e-07
1.47258e-05
-7.65905e-07
1.47057e-05
-7.91697e-07
1.46857e-05
-8.17583e-07
1.46656e-05
-8.43707e-07
1.46448e-05
-8.70184e-07
1.46232e-05
-8.97068e-07
1.46005e-05
-9.24344e-07
1.45763e-05
-9.51938e-07
1.45506e-05
-9.79727e-07
1.45232e-05
-1.00755e-06
1.44941e-05
-1.03524e-06
1.44632e-05
-1.06258e-06
1.44306e-05
-1.08941e-06
1.43963e-05
-1.11553e-06
1.43604e-05
-1.14077e-06
1.43229e-05
-1.165e-06
1.4284e-05
-1.18807e-06
1.42436e-05
-1.20988e-06
1.42018e-05
-1.23032e-06
1.41584e-05
-1.24931e-06
-1.26677e-06
1.41135e-05
1.49197e-05
-9.68074e-08
1.49282e-05
-1.46195e-07
1.49326e-05
-1.95216e-07
1.49328e-05
-2.43561e-07
1.4929e-05
-2.90909e-07
1.49215e-05
-3.36943e-07
1.49107e-05
-3.81368e-07
1.4897e-05
-4.23928e-07
1.48809e-05
-4.64446e-07
1.4863e-05
-5.02842e-07
1.48438e-05
-5.39108e-07
1.48237e-05
-5.73292e-07
1.48031e-05
-6.05519e-07
1.47823e-05
-6.36014e-07
1.47617e-05
-6.65058e-07
1.47412e-05
-6.92888e-07
1.4721e-05
-7.19722e-07
1.47009e-05
-7.45874e-07
1.46809e-05
-7.71704e-07
1.46608e-05
-7.97433e-07
1.46403e-05
-8.23177e-07
1.46191e-05
-8.49039e-07
1.45971e-05
-8.75078e-07
1.45741e-05
-9.013e-07
1.45498e-05
-9.27664e-07
1.45242e-05
-9.54086e-07
1.44971e-05
-9.80454e-07
1.44684e-05
-1.00663e-06
1.44383e-05
-1.03246e-06
1.44067e-05
-1.05778e-06
1.43736e-05
-1.08245e-06
1.43391e-05
-1.10629e-06
1.43033e-05
-1.12915e-06
1.42661e-05
-1.1509e-06
1.42276e-05
-1.1714e-06
1.41878e-05
-1.19051e-06
1.41466e-05
-1.20812e-06
-1.2241e-06
1.4104e-05
1.48657e-05
-1.0974e-07
1.48747e-05
-1.55276e-07
1.488e-05
-2.00464e-07
1.48815e-05
-2.45064e-07
1.48794e-05
-2.88833e-07
1.4874e-05
-3.31529e-07
1.48656e-05
-3.72927e-07
1.48545e-05
-4.12831e-07
1.48411e-05
-4.51101e-07
1.48259e-05
-4.87663e-07
1.48093e-05
-5.225e-07
1.47917e-05
-5.55638e-07
1.47733e-05
-5.87151e-07
1.47545e-05
-6.17191e-07
1.47354e-05
-6.45961e-07
1.47161e-05
-6.73639e-07
1.46968e-05
-7.00382e-07
1.46773e-05
-7.26415e-07
1.46577e-05
-7.52022e-07
1.46376e-05
-7.77389e-07
1.46171e-05
-8.02614e-07
1.45958e-05
-8.2779e-07
1.45737e-05
-8.5298e-07
1.45506e-05
-8.78203e-07
1.45264e-05
-9.03444e-07
1.4501e-05
-9.28648e-07
1.44742e-05
-9.53736e-07
1.44462e-05
-9.78603e-07
1.44169e-05
-1.00313e-06
1.43863e-05
-1.02717e-06
1.43544e-05
-1.05059e-06
1.43213e-05
-1.07323e-06
1.42871e-05
-1.09494e-06
1.42518e-05
-1.11556e-06
1.42153e-05
-1.13493e-06
1.41777e-05
-1.15289e-06
1.41389e-05
-1.16929e-06
-1.18397e-06
1.40987e-05
1.48178e-05
-1.22897e-07
1.48274e-05
-1.64851e-07
1.48334e-05
-2.06505e-07
1.4836e-05
-2.47673e-07
1.48354e-05
-2.8817e-07
1.48316e-05
-3.27808e-07
1.48251e-05
-3.66415e-07
1.48161e-05
-4.03837e-07
1.4805e-05
-4.39961e-07
1.4792e-05
-4.74717e-07
1.47776e-05
-5.08082e-07
1.4762e-05
-5.4006e-07
1.47456e-05
-5.70692e-07
1.47285e-05
-6.00068e-07
1.47108e-05
-6.28324e-07
1.46928e-05
-6.55595e-07
1.46744e-05
-6.8199e-07
1.46556e-05
-7.07663e-07
1.46365e-05
-7.32839e-07
1.46167e-05
-7.57677e-07
1.45964e-05
-7.82262e-07
1.45753e-05
-8.06683e-07
1.45533e-05
-8.31004e-07
1.45304e-05
-8.5526e-07
1.45064e-05
-8.79451e-07
1.44813e-05
-9.03549e-07
1.4455e-05
-9.275e-07
1.44277e-05
-9.51224e-07
1.43992e-05
-9.74622e-07
1.43696e-05
-9.97576e-07
1.43389e-05
-1.01995e-06
1.43073e-05
-1.0416e-06
1.42747e-05
-1.06237e-06
1.42412e-05
-1.08207e-06
1.42068e-05
-1.10051e-06
1.41714e-05
-1.11752e-06
1.41351e-05
-1.1329e-06
-1.14646e-06
1.40975e-05
1.47763e-05
-1.36264e-07
1.47863e-05
-1.7485e-07
1.4793e-05
-2.13204e-07
1.47965e-05
-2.51185e-07
1.4797e-05
-2.88649e-07
1.47946e-05
-3.25451e-07
1.47896e-05
-3.61455e-07
1.47824e-05
-3.96542e-07
1.4773e-05
-4.30615e-07
1.47619e-05
-4.63609e-07
1.47493e-05
-4.95491e-07
1.47355e-05
-5.2625e-07
1.47207e-05
-5.55899e-07
1.47051e-05
-5.84478e-07
1.46889e-05
-6.12058e-07
1.4672e-05
-6.3874e-07
1.46546e-05
-6.64597e-07
1.46367e-05
-6.89723e-07
1.46181e-05
-7.14301e-07
1.45989e-05
-7.38462e-07
1.45789e-05
-7.62291e-07
1.45581e-05
-7.85876e-07
1.45364e-05
-8.09287e-07
1.45137e-05
-8.3257e-07
1.449e-05
-8.55743e-07
1.44653e-05
-8.78797e-07
1.44395e-05
-9.01699e-07
1.44126e-05
-9.2439e-07
1.43848e-05
-9.46791e-07
1.4356e-05
-9.68798e-07
1.43264e-05
-9.90286e-07
1.42959e-05
-1.0111e-06
1.42646e-05
-1.03107e-06
1.42325e-05
-1.05001e-06
1.41997e-05
-1.06768e-06
1.4166e-05
-1.08386e-06
1.41314e-05
-1.09834e-06
-1.11086e-06
1.40958e-05
1.47411e-05
-1.49816e-07
1.47514e-05
-1.85204e-07
1.47587e-05
-2.20445e-07
1.47629e-05
-2.55432e-07
1.47643e-05
-2.90055e-07
1.47631e-05
-3.24196e-07
1.47594e-05
-3.57756e-07
1.47535e-05
-3.90636e-07
1.47456e-05
-4.22742e-07
1.4736e-05
-4.54017e-07
1.47249e-05
-4.84426e-07
1.47126e-05
-5.13941e-07
1.46993e-05
-5.42542e-07
1.4685e-05
-5.70236e-07
1.467e-05
-5.97033e-07
1.46542e-05
-6.22986e-07
1.46378e-05
-6.48145e-07
1.46206e-05
-6.72557e-07
1.46027e-05
-6.96371e-07
1.45839e-05
-7.19697e-07
1.45643e-05
-7.42627e-07
1.45436e-05
-7.65256e-07
1.4522e-05
-7.8766e-07
1.44993e-05
-8.09895e-07
1.44756e-05
-8.31995e-07
1.44508e-05
-8.5397e-07
1.44249e-05
-8.75804e-07
1.43979e-05
-8.97457e-07
1.437e-05
-9.18864e-07
1.43412e-05
-9.39937e-07
1.43114e-05
-9.60574e-07
1.42809e-05
-9.8059e-07
1.42496e-05
-9.99786e-07
1.42176e-05
-1.01797e-06
1.41848e-05
-1.03489e-06
1.41512e-05
-1.05027e-06
1.41167e-05
-1.06383e-06
-1.07527e-06
1.40811e-05
1.4713e-05
-1.63464e-07
1.47236e-05
-1.95781e-07
1.47312e-05
-2.28045e-07
1.47359e-05
-2.60171e-07
1.47379e-05
-2.92082e-07
1.47374e-05
-3.23678e-07
1.47346e-05
-3.54899e-07
1.47296e-05
-3.85659e-07
1.47227e-05
-4.15855e-07
1.47141e-05
-4.45443e-07
1.47041e-05
-4.74385e-07
1.46928e-05
-5.02652e-07
1.46804e-05
-5.30165e-07
1.46671e-05
-5.56893e-07
1.46528e-05
-5.82802e-07
1.46377e-05
-6.07887e-07
1.46218e-05
-6.32168e-07
1.46049e-05
-6.55667e-07
1.4587e-05
-6.78489e-07
1.4568e-05
-7.00739e-07
1.45479e-05
-7.22531e-07
1.45267e-05
-7.43969e-07
1.45041e-05
-7.6514e-07
1.44803e-05
-7.86112e-07
1.44553e-05
-8.06933e-07
1.44289e-05
-8.27632e-07
1.44014e-05
-8.48208e-07
1.43725e-05
-8.68636e-07
1.43425e-05
-8.88862e-07
1.43114e-05
-9.08803e-07
1.42792e-05
-9.2833e-07
1.42459e-05
-9.47309e-07
1.42116e-05
-9.65549e-07
1.41765e-05
-9.82796e-07
1.41403e-05
-9.98771e-07
1.41032e-05
-1.01313e-06
1.40649e-05
-1.02554e-06
-1.03562e-06
1.40253e-05
1.469e-05
-1.76813e-07
1.47003e-05
-2.06102e-07
1.47077e-05
-2.35444e-07
1.47123e-05
-2.64784e-07
1.47143e-05
-2.94027e-07
1.47137e-05
-3.23126e-07
1.47109e-05
-3.52037e-07
1.47059e-05
-3.80673e-07
1.4699e-05
-4.0893e-07
1.46903e-05
-4.36782e-07
1.46801e-05
-4.64187e-07
1.46685e-05
-4.9108e-07
1.46557e-05
-5.17341e-07
1.46417e-05
-5.42911e-07
1.46266e-05
-5.67729e-07
1.46105e-05
-5.91717e-07
1.45931e-05
-6.14833e-07
1.45745e-05
-6.37078e-07
1.45546e-05
-6.58513e-07
1.45331e-05
-6.79254e-07
1.451e-05
-6.99439e-07
1.44852e-05
-7.19194e-07
1.44587e-05
-7.38612e-07
1.44304e-05
-7.57776e-07
1.44002e-05
-7.7675e-07
1.43681e-05
-7.95573e-07
1.43342e-05
-8.14256e-07
1.42983e-05
-8.32786e-07
1.42606e-05
-8.51124e-07
1.4221e-05
-8.69223e-07
1.41796e-05
-8.86947e-07
1.41364e-05
-9.04108e-07
1.40914e-05
-9.20536e-07
1.40446e-05
-9.35977e-07
1.39959e-05
-9.50087e-07
1.39452e-05
-9.62485e-07
1.38925e-05
-9.72763e-07
-9.80491e-07
1.38373e-05
1.46513e-05
-1.87977e-07
1.46594e-05
-2.1417e-07
1.46644e-05
-2.40502e-07
1.46666e-05
-2.66929e-07
1.46659e-05
-2.93372e-07
1.46626e-05
-3.19815e-07
1.46569e-05
-3.46321e-07
1.46488e-05
-3.72573e-07
1.46384e-05
-3.98587e-07
1.46261e-05
-4.24421e-07
1.46119e-05
-4.50003e-07
1.4596e-05
-4.75205e-07
1.45786e-05
-4.99888e-07
1.45596e-05
-5.23909e-07
1.4539e-05
-5.47124e-07
1.45166e-05
-5.69384e-07
1.44924e-05
-5.90583e-07
1.4466e-05
-6.10684e-07
1.44372e-05
-6.2974e-07
1.44059e-05
-6.47908e-07
1.43718e-05
-6.6537e-07
1.43348e-05
-6.82247e-07
1.42949e-05
-6.98632e-07
1.42517e-05
-7.14634e-07
1.42053e-05
-7.30335e-07
1.41555e-05
-7.45777e-07
1.41022e-05
-7.60976e-07
1.40454e-05
-7.75914e-07
1.39848e-05
-7.90553e-07
1.39204e-05
-8.0481e-07
1.3852e-05
-8.1862e-07
1.37799e-05
-8.31924e-07
1.37038e-05
-8.44511e-07
1.36239e-05
-8.56055e-07
1.354e-05
-8.66182e-07
1.3452e-05
-8.74505e-07
1.33599e-05
-8.80597e-07
-8.83977e-07
1.32634e-05
1.44866e-05
-1.93482e-07
1.44884e-05
-2.15953e-07
1.44865e-05
-2.38612e-07
1.44809e-05
-2.614e-07
1.44719e-05
-2.84315e-07
1.44592e-05
-3.07096e-07
1.44436e-05
-3.30708e-07
1.44246e-05
-3.53626e-07
1.44024e-05
-3.76352e-07
1.43771e-05
-3.99121e-07
1.43489e-05
-4.21803e-07
1.43179e-05
-4.44192e-07
1.42841e-05
-4.6608e-07
1.42474e-05
-4.87255e-07
1.42078e-05
-5.07478e-07
1.41649e-05
-5.26495e-07
1.41184e-05
-5.44075e-07
1.40678e-05
-5.60096e-07
1.40127e-05
-5.74644e-07
1.39527e-05
-5.87948e-07
1.38876e-05
-6.00216e-07
1.38169e-05
-6.11641e-07
1.37407e-05
-6.22381e-07
1.36586e-05
-6.32532e-07
1.35704e-05
-6.42156e-07
1.34759e-05
-6.51297e-07
1.33749e-05
-6.59978e-07
1.32672e-05
-6.68193e-07
1.31526e-05
-6.75921e-07
1.30309e-05
-6.83125e-07
1.2902e-05
-6.89743e-07
1.2766e-05
-6.95917e-07
1.26229e-05
-7.01434e-07
1.24727e-05
-7.05799e-07
1.23152e-05
-7.08679e-07
1.21505e-05
-7.09797e-07
1.19787e-05
-7.08827e-07
-7.05347e-07
1.18001e-05
1.3889e-05
-1.80296e-07
1.38706e-05
-1.97491e-07
1.38468e-05
-2.14818e-07
1.38176e-05
-2.32247e-07
1.37831e-05
-2.49788e-07
1.37432e-05
-2.67176e-07
1.36979e-05
-2.85409e-07
1.36472e-05
-3.0293e-07
1.35911e-05
-3.2026e-07
1.35296e-05
-3.37654e-07
1.34628e-05
-3.54927e-07
1.33904e-05
-3.71865e-07
1.33126e-05
-3.88301e-07
1.32293e-05
-4.0394e-07
1.31402e-05
-4.18347e-07
1.3045e-05
-4.31271e-07
1.29432e-05
-4.4225e-07
1.28339e-05
-4.5087e-07
1.27166e-05
-4.57368e-07
1.25909e-05
-4.6219e-07
1.24563e-05
-4.65646e-07
1.23126e-05
-4.67948e-07
1.21595e-05
-4.69277e-07
1.19968e-05
-4.69771e-07
1.18241e-05
-4.69499e-07
1.16413e-05
-4.68513e-07
1.14482e-05
-4.66863e-07
1.12446e-05
-4.6458e-07
1.10304e-05
-4.61717e-07
1.08055e-05
-4.58275e-07
1.057e-05
-4.54243e-07
1.0323e-05
-4.48877e-07
1.00634e-05
-4.41801e-07
9.79129e-06
-4.33723e-07
9.5076e-06
-4.24993e-07
9.21351e-06
-4.15707e-07
8.91055e-06
-4.05864e-07
-3.95301e-07
8.6005e-06
1.18614e-05
-1.22368e-07
1.17953e-05
-1.31377e-07
1.17208e-05
-1.40403e-07
1.1638e-05
-1.49432e-07
1.15467e-05
-1.58461e-07
1.1447e-05
-1.6745e-07
1.13381e-05
-1.76559e-07
1.12206e-05
-1.85411e-07
1.10944e-05
-1.94089e-07
1.09595e-05
-2.02709e-07
1.08158e-05
-2.11201e-07
1.06633e-05
-2.19416e-07
1.05022e-05
-2.27208e-07
1.03325e-05
-2.34229e-07
1.01542e-05
-2.39986e-07
9.96517e-06
-2.42284e-07
9.76281e-06
-2.39895e-07
9.54624e-06
-2.343e-07
9.31571e-06
-2.26836e-07
9.07182e-06
-2.18296e-07
8.8152e-06
-2.09028e-07
8.54651e-06
-1.99257e-07
8.26638e-06
-1.8915e-07
7.97543e-06
-1.78823e-07
7.67428e-06
-1.68351e-07
7.36353e-06
-1.57757e-07
7.04366e-06
-1.46995e-07
6.71517e-06
-1.36086e-07
6.37855e-06
-1.25104e-07
6.03445e-06
-1.14171e-07
5.68379e-06
-1.03588e-07
5.32947e-06
-9.45548e-08
4.97557e-06
-8.79013e-08
4.6247e-06
-8.28502e-08
4.27876e-06
-7.90511e-08
3.93976e-06
-7.67126e-08
3.61041e-06
-7.65141e-08
-7.88785e-08
3.29399e-06
6.1209e-06
5.98953e-06
5.84913e-06
5.69969e-06
5.54123e-06
5.37378e-06
5.19722e-06
5.01181e-06
4.81772e-06
4.61501e-06
4.40381e-06
4.1844e-06
3.95719e-06
3.72296e-06
3.48297e-06
3.24069e-06
3.0008e-06
2.7665e-06
2.53966e-06
2.32136e-06
2.11234e-06
1.91308e-06
1.72393e-06
1.54511e-06
1.37675e-06
1.219e-06
1.072e-06
9.35917e-07
8.10813e-07
6.96642e-07
5.93054e-07
4.98499e-07
4.10598e-07
3.27748e-07
2.48696e-07
1.71984e-07
9.54698e-08
1.65913e-08
4.45202e-06
-5.7385e-07
-4.30671e-08
5.17685e-06
-5.48299e-07
-1.76533e-07
5.96233e-06
-5.38935e-07
-2.46547e-07
6.80059e-06
-5.79299e-07
-2.5896e-07
7.68267e-06
-6.83746e-07
-1.9833e-07
8.58356e-06
-8.65508e-07
-3.53889e-08
9.46983e-06
-1.13861e-06
2.5234e-07
1.02936e-05
-1.50893e-06
6.85125e-07
1.10011e-05
-1.96341e-06
1.25589e-06
1.15415e-05
-2.46679e-06
1.92648e-06
1.18891e-05
-2.97181e-06
2.62418e-06
1.20503e-05
-3.43563e-06
3.27441e-06
1.20561e-05
-3.82534e-06
3.81956e-06
1.19451e-05
-4.12481e-06
4.23586e-06
1.17509e-05
-4.33106e-06
4.52518e-06
1.1497e-05
-4.44647e-06
4.70044e-06
1.12009e-05
-4.47731e-06
4.77343e-06
1.0881e-05
-4.43414e-06
4.75403e-06
1.05533e-05
-4.32937e-06
4.65699e-06
1.02293e-05
-4.17511e-06
4.49913e-06
9.91681e-06
-3.9819e-06
4.2944e-06
9.62059e-06
-3.75837e-06
4.05459e-06
9.34174e-06
-3.51182e-06
3.79067e-06
9.07888e-06
-3.24806e-06
3.51092e-06
8.83068e-06
-2.97152e-06
3.21972e-06
8.60034e-06
-2.68679e-06
2.91713e-06
8.39341e-06
-2.39515e-06
2.60208e-06
8.19958e-06
-2.09404e-06
2.28787e-06
7.96801e-06
-1.78378e-06
2.01536e-06
7.61477e-06
-1.48502e-06
1.83826e-06
7.08814e-06
-1.24312e-06
1.76976e-06
6.45621e-06
-1.10609e-06
1.73802e-06
5.87788e-06
-1.05648e-06
1.63481e-06
5.49228e-06
-1.00391e-06
1.3895e-06
5.36212e-06
-8.67053e-07
9.9722e-07
5.48534e-06
-6.18555e-07