/*--------------------------------*- C++ -*----------------------------------*\
| =========                 |                                                 |
| \\      /  F ield         | OpenFOAM: The Open Source CFD Toolbox           |
|  \\    /   O peration     | Version:  2206                                  |
|   \\  /    A nd           | Website:  www.openfoam.com                      |
|    \\/     M anipulation  |                                                 |
\*---------------------------------------------------------------------------*/
FoamFile
{
    version     2.0;
    format      ascii;
    arch        "LSB;label=32;scalar=64";
    class       volVectorField;
    location    "18.0999";
    object      U_0;
}
// * * * * * * * * * * * * * * * * * * * * * * * * * * * * * * * * * * * * * //

dimensions      [0 1 -1 0 0 0 0];

internalField   nonuniform List<vector> 
4866
(
(-0.0243957 0.30939 0)
(-0.0872265 0.286981 0)
(-0.124078 0.279475 0)
(-0.176633 0.28422 0)
(-0.232846 0.275605 0)
(-0.283985 0.233843 0)
(-0.315514 0.15254 0)
(-0.320712 0.0384672 0)
(-0.300684 -0.103082 0)
(-0.259777 -0.25706 0)
(-0.198299 -0.411656 0)
(-0.120305 -0.556318 0)
(-0.0319635 -0.683349 0)
(0.0641999 -0.787491 0)
(0.168448 -0.863505 0)
(0.282545 -0.907424 0)
(0.409845 -0.915168 0)
(0.551802 -0.882654 0)
(0.705969 -0.808707 0)
(0.865903 -0.69523 0)
(1.02439 -0.545945 0)
(1.17812 -0.362211 0)
(1.32805 -0.146001 0)
(1.4688 0.0857527 0)
(1.58886 0.30403 0)
(1.68318 0.491669 0)
(1.74969 0.640491 0)
(1.78966 0.749243 0)
(1.80729 0.821982 0)
(1.80779 0.863912 0)
(1.79453 0.883476 0)
(1.76982 0.883436 0)
(1.73896 0.8694 0)
(1.70514 0.848613 0)
(1.67131 0.82532 0)
(1.63915 0.80226 0)
(1.60873 0.780594 0)
(1.57989 0.760842 0)
(1.55228 0.743176 0)
(1.52549 0.727595 0)
(1.49904 0.71404 0)
(1.47245 0.702452 0)
(1.4453 0.692688 0)
(1.41738 0.684381 0)
(1.38835 0.677125 0)
(1.35756 0.671124 0)
(1.32376 0.66748 0)
(1.28552 0.667404 0)
(1.24253 0.669985 0)
(1.19669 0.670355 0)
(1.15177 0.660568 0)
(1.11207 0.632158 0)
(1.08099 0.579367 0)
(1.06037 0.501129 0)
(1.05094 0.400819 0)
(1.05195 0.284351 0)
(1.0629 0.1586 0)
(1.08181 0.0316218 0)
(1.10717 -0.0901931 0)
(1.1377 -0.203117 0)
(1.17181 -0.304339 0)
(1.20788 -0.392107 0)
(1.24443 -0.465757 0)
(1.2802 -0.525575 0)
(1.31426 -0.572581 0)
(1.34594 -0.608281 0)
(1.37483 -0.63446 0)
(1.40073 -0.653023 0)
(1.42358 -0.665849 0)
(1.44349 -0.674697 0)
(1.46073 -0.681124 0)
(1.47557 -0.686484 0)
(1.48826 -0.692041 0)
(1.49901 -0.699068 0)
(1.50787 -0.708531 0)
(1.51504 -0.720946 0)
(1.52086 -0.736003 0)
(1.52587 -0.751734 0)
(1.53069 -0.765493 0)
(1.5354 -0.775359 0)
(1.53947 -0.780375 0)
(1.54359 -0.779331 0)
(1.54728 -0.765404 0)
(1.55058 -0.735239 0)
(1.55356 -0.689381 0)
(1.55637 -0.627215 0)
(1.55915 -0.548925 0)
(1.56205 -0.455564 0)
(1.56526 -0.349127 0)
(1.56895 -0.232626 0)
(1.57317 -0.110278 0)
(1.57771 0.0119333 0)
(1.58223 0.129348 0)
(1.58641 0.238485 0)
(1.58988 0.336598 0)
(1.59236 0.421894 0)
(1.59365 0.493494 0)
(1.59364 0.551376 0)
(1.59229 0.596182 0)
(1.58963 0.629093 0)
(1.58571 0.65158 0)
(1.5807 0.665321 0)
(1.57437 0.671897 0)
(1.56639 0.672169 0)
(1.55703 0.667789 0)
(1.54623 0.660621 0)
(1.53416 0.652093 0)
(1.52086 0.643324 0)
(1.50628 0.635079 0)
(1.49038 0.627775 0)
(1.47318 0.62146 0)
(1.45475 0.61577 0)
(1.43526 0.609916 0)
(1.41496 0.602754 0)
(1.39417 0.592939 0)
(1.37323 0.579126 0)
(1.35249 0.560169 0)
(1.33222 0.53525 0)
(1.31273 0.503925 0)
(1.29431 0.466087 0)
(1.27728 0.421882 0)
(1.26201 0.371645 0)
(1.24889 0.31588 0)
(1.23833 0.255245 0)
(1.2307 0.190549 0)
(1.22627 0.122843 0)
(1.22529 0.0533867 0)
(1.22777 -0.0165444 0)
(1.23348 -0.0855037 0)
(1.24215 -0.15222 0)
(1.25349 -0.215665 0)
(1.26707 -0.274973 0)
(1.28238 -0.329478 0)
(1.29893 -0.378754 0)
(1.31622 -0.422616 0)
(1.33379 -0.461112 0)
(1.35122 -0.49448 0)
(-0.0340095 0.38088 0)
(-0.0929859 0.355526 0)
(-0.16488 0.354724 0)
(-0.238515 0.362318 0)
(-0.295563 0.339407 0)
(-0.332535 0.275189 0)
(-0.346254 0.168261 0)
(-0.345867 0.0275715 0)
(-0.312519 -0.139957 0)
(-0.256416 -0.319128 0)
(-0.182825 -0.493124 0)
(-0.100648 -0.64995 0)
(-0.0170888 -0.783455 0)
(0.0640053 -0.892104 0)
(0.141051 -0.971955 0)
(0.217852 -1.0246 0)
(0.301232 -1.04785 0)
(0.398391 -1.03291 0)
(0.514538 -0.974905 0)
(0.648814 -0.870488 0)
(0.793735 -0.721168 0)
(0.94208 -0.532067 0)
(1.08978 -0.309127 0)
(1.23361 -0.065054 0)
(1.36453 0.174133 0)
(1.4765 0.388497 0)
(1.56559 0.565918 0)
(1.63047 0.702223 0)
(1.67234 0.798582 0)
(1.69441 0.861174 0)
(1.70093 0.894597 0)
(1.69589 0.905112 0)
(1.68089 0.899701 0)
(1.65852 0.882172 0)
(1.63224 0.859258 0)
(1.6055 0.835016 0)
(1.57969 0.811924 0)
(1.55474 0.790936 0)
(1.53048 0.772411 0)
(1.50663 0.756437 0)
(1.48278 0.742988 0)
(1.45855 0.731917 0)
(1.43365 0.722937 0)
(1.40784 0.7157 0)
(1.38058 0.710204 0)
(1.35081 0.70729 0)
(1.31712 0.708274 0)
(1.27861 0.713341 0)
(1.23601 0.719488 0)
(1.19199 0.720018 0)
(1.15018 0.706072 0)
(1.11422 0.669665 0)
(1.08685 0.606423 0)
(1.06957 0.516489 0)
(1.06293 0.404181 0)
(1.06651 0.276338 0)
(1.07937 0.140741 0)
(1.10004 0.00583354 0)
(1.12705 -0.122494 0)
(1.15893 -0.24017 0)
(1.19397 -0.344263 0)
(1.23044 -0.433109 0)
(1.26681 -0.50628 0)
(1.30182 -0.564394 0)
(1.33459 -0.608826 0)
(1.36455 -0.641397 0)
(1.39137 -0.664137 0)
(1.41495 -0.679141 0)
(1.43527 -0.688461 0)
(1.45243 -0.694023 0)
(1.4667 -0.697503 0)
(1.47845 -0.700246 0)
(1.48798 -0.703407 0)
(1.49548 -0.708224 0)
(1.50095 -0.715615 0)
(1.50453 -0.726078 0)
(1.50636 -0.739531 0)
(1.5068 -0.754532 0)
(1.50652 -0.768155 0)
(1.50617 -0.778022 0)
(1.50576 -0.782411 0)
(1.50457 -0.781094 0)
(1.50238 -0.765851 0)
(1.4998 -0.73542 0)
(1.49736 -0.689529 0)
(1.49509 -0.627475 0)
(1.49322 -0.549512 0)
(1.49209 -0.456752 0)
(1.49206 -0.351214 0)
(1.49348 -0.235843 0)
(1.49652 -0.11465 0)
(1.50101 0.00666456 0)
(1.50661 0.123599 0)
(1.51289 0.232735 0)
(1.51937 0.331317 0)
(1.52559 0.417443 0)
(1.53116 0.490206 0)
(1.53576 0.54943 0)
(1.53919 0.595693 0)
(1.54131 0.63008 0)
(1.54205 0.65415 0)
(1.54149 0.669283 0)
(1.53966 0.677214 0)
(1.53609 0.679495 0)
(1.5308 0.676991 0)
(1.52363 0.671513 0)
(1.51482 0.664608 0)
(1.50447 0.657445 0)
(1.49256 0.650813 0)
(1.47908 0.645107 0)
(1.46411 0.640314 0)
(1.44777 0.635983 0)
(1.43025 0.631234 0)
(1.41182 0.624854 0)
(1.39278 0.615461 0)
(1.37344 0.601711 0)
(1.35411 0.582478 0)
(1.33506 0.556966 0)
(1.31659 0.524731 0)
(1.29902 0.485609 0)
(1.28271 0.439692 0)
(1.26805 0.387294 0)
(1.25548 0.3289 0)
(1.24544 0.265184 0)
(1.23832 0.197038 0)
(1.23442 0.125594 0)
(1.23395 0.0522218 0)
(1.23688 -0.0214258 0)
(1.24298 -0.0938065 0)
(1.25196 -0.163631 0)
(1.26347 -0.229745 0)
(1.27703 -0.291192 0)
(1.29214 -0.347265 0)
(1.3083 -0.397536 0)
(1.32498 -0.441851 0)
(1.34174 -0.480311 0)
(1.35815 -0.513212 0)
(-0.0241191 0.448735 0)
(-0.0914346 0.434711 0)
(-0.169121 0.437837 0)
(-0.231532 0.425212 0)
(-0.271802 0.382225 0)
(-0.293098 0.296997 0)
(-0.295796 0.169307 0)
(-0.275424 0.000102132 0)
(-0.224203 -0.196707 0)
(-0.151901 -0.396894 0)
(-0.0681079 -0.58134 0)
(0.0165747 -0.73843 0)
(0.0945734 -0.866039 0)
(0.161925 -0.965593 0)
(0.218123 -1.03981 0)
(0.266472 -1.09258 0)
(0.309517 -1.12159 0)
(0.35593 -1.12619 0)
(0.415481 -1.08982 0)
(0.501087 -1.00728 0)
(0.610012 -0.873218 0)
(0.735597 -0.690483 0)
(0.870482 -0.468095 0)
(1.00954 -0.219542 0)
(1.14466 0.032657 0)
(1.26773 0.266414 0)
(1.37359 0.467501 0)
(1.45914 0.629185 0)
(1.52305 0.749924 0)
(1.56678 0.832846 0)
(1.59344 0.881974 0)
(1.60625 0.905346 0)
(1.60862 0.910766 0)
(1.60184 0.904061 0)
(1.58676 0.884632 0)
(1.56764 0.861099 0)
(1.54773 0.837579 0)
(1.52788 0.816046 0)
(1.50799 0.797146 0)
(1.4879 0.781114 0)
(1.46736 0.767971 0)
(1.44613 0.757543 0)
(1.42403 0.749555 0)
(1.40079 0.743903 0)
(1.37558 0.741072 0)
(1.34717 0.742253 0)
(1.31438 0.748365 0)
(1.27695 0.758183 0)
(1.23637 0.766822 0)
(1.19548 0.766275 0)
(1.15747 0.747477 0)
(1.12562 0.703079 0)
(1.10219 0.629523 0)
(1.08838 0.528191 0)
(1.08455 0.404495 0)
(1.09043 0.265931 0)
(1.10529 0.120893 0)
(1.12773 -0.0218639 0)
(1.15622 -0.156411 0)
(1.18915 -0.278354 0)
(1.22466 -0.384711 0)
(1.26095 -0.473949 0)
(1.29646 -0.545939 0)
(1.32998 -0.6017 0)
(1.36071 -0.64301 0)
(1.38821 -0.672029 0)
(1.4123 -0.691041 0)
(1.43297 -0.702271 0)
(1.45027 -0.707876 0)
(1.4643 -0.709938 0)
(1.4753 -0.710307 0)
(1.48366 -0.710374 0)
(1.48976 -0.711031 0)
(1.49383 -0.713377 0)
(1.49583 -0.718635 0)
(1.49584 -0.727017 0)
(1.49391 -0.738467 0)
(1.49015 -0.751947 0)
(1.48518 -0.764804 0)
(1.47986 -0.774545 0)
(1.47427 -0.779223 0)
(1.46771 -0.775499 0)
(1.46037 -0.75979 0)
(1.45277 -0.729692 0)
(1.44541 -0.684032 0)
(1.43847 -0.62246 0)
(1.43232 -0.545392 0)
(1.42749 -0.454013 0)
(1.42448 -0.350334 0)
(1.42376 -0.237186 0)
(1.42559 -0.118345 0)
(1.42991 0.000890274 0)
(1.43631 0.116197 0)
(1.44434 0.224297 0)
(1.45341 0.322438 0)
(1.46291 0.408699 0)
(1.47232 0.4821 0)
(1.48116 0.542362 0)
(1.48905 0.58994 0)
(1.49572 0.625859 0)
(1.50098 0.651455 0)
(1.50474 0.668269 0)
(1.50696 0.677936 0)
(1.50768 0.681891 0)
(1.50642 0.682028 0)
(1.50291 0.678655 0)
(1.49737 0.673606 0)
(1.49 0.668339 0)
(1.48084 0.663587 0)
(1.46993 0.659693 0)
(1.4574 0.656586 0)
(1.44338 0.653745 0)
(1.42809 0.650225 0)
(1.41178 0.644763 0)
(1.39474 0.635958 0)
(1.37724 0.622468 0)
(1.35956 0.603185 0)
(1.34201 0.577303 0)
(1.32486 0.54432 0)
(1.30847 0.504057 0)
(1.29319 0.456577 0)
(1.27946 0.402134 0)
(1.26774 0.341193 0)
(1.25848 0.274451 0)
(1.25208 0.202883 0)
(1.24884 0.127748 0)
(1.24892 0.0505761 0)
(1.25229 -0.0267076 0)
(1.2587 -0.10244 0)
(1.26783 -0.175222 0)
(1.27929 -0.243806 0)
(1.29259 -0.30717 0)
(1.30722 -0.364581 0)
(1.32267 -0.415616 0)
(1.33843 -0.460151 0)
(1.35407 -0.498339 0)
(1.36917 -0.53055 0)
(-0.0126013 0.507895 0)
(-0.0736252 0.512886 0)
(-0.134065 0.502944 0)
(-0.171692 0.473569 0)
(-0.191663 0.407553 0)
(-0.190532 0.297923 0)
(-0.16841 0.14505 0)
(-0.118207 -0.0562625 0)
(-0.0420915 -0.27767 0)
(0.047752 -0.491755 0)
(0.138838 -0.676817 0)
(0.219943 -0.823918 0)
(0.285008 -0.935383 0)
(0.332826 -1.01861 0)
(0.363075 -1.07797 0)
(0.380679 -1.11986 0)
(0.388447 -1.14121 0)
(0.395594 -1.14947 0)
(0.411182 -1.14157 0)
(0.43923 -1.08662 0)
(0.495293 -0.980887 0)
(0.582134 -0.820111 0)
(0.691236 -0.610859 0)
(0.814476 -0.368225 0)
(0.944226 -0.11256 0)
(1.07043 0.132628 0)
(1.18629 0.35158 0)
(1.28682 0.534619 0)
(1.36903 0.677641 0)
(1.43267 0.781395 0)
(1.47878 0.849573 0)
(1.50935 0.888162 0)
(1.52725 0.903839 0)
(1.53451 0.906656 0)
(1.53394 0.898055 0)
(1.52538 0.878617 0)
(1.51288 0.856527 0)
(1.49906 0.835591 0)
(1.48434 0.817276 0)
(1.46871 0.802013 0)
(1.45218 0.789821 0)
(1.43469 0.780462 0)
(1.41613 0.773779 0)
(1.39606 0.770087 0)
(1.37348 0.770379 0)
(1.34722 0.775936 0)
(1.31645 0.78694 0)
(1.28147 0.800637 0)
(1.24446 0.810588 0)
(1.20765 0.808166 0)
(1.17432 0.784222 0)
(1.14717 0.731693 0)
(1.12805 0.648226 0)
(1.1179 0.536334 0)
(1.11704 0.401993 0)
(1.12542 0.253148 0)
(1.14239 0.0989371 0)
(1.16652 -0.0513227 0)
(1.19617 -0.191558 0)
(1.2296 -0.317088 0)
(1.26487 -0.424949 0)
(1.30015 -0.513774 0)
(1.33392 -0.583807 0)
(1.36505 -0.636537 0)
(1.39287 -0.674193 0)
(1.41709 -0.699289 0)
(1.4377 -0.714363 0)
(1.45484 -0.721752 0)
(1.46859 -0.723599 0)
(1.47905 -0.722069 0)
(1.48649 -0.719152 0)
(1.49127 -0.716424 0)
(1.49366 -0.714855 0)
(1.49433 -0.71494 0)
(1.49288 -0.717753 0)
(1.48931 -0.723835 0)
(1.48372 -0.733086 0)
(1.47608 -0.744647 0)
(1.46686 -0.756399 0)
(1.45688 -0.7655 0)
(1.44608 -0.769463 0)
(1.43462 -0.765073 0)
(1.42273 -0.748957 0)
(1.41071 -0.718785 0)
(1.39898 -0.673459 0)
(1.38793 -0.612718 0)
(1.37807 -0.537066 0)
(1.37001 -0.447744 0)
(1.36436 -0.346725 0)
(1.36169 -0.236708 0)
(1.36234 -0.121242 0)
(1.36631 -0.00511398 0)
(1.37322 0.10756 0)
(1.38257 0.213651 0)
(1.39373 0.310519 0)
(1.406 0.396242 0)
(1.41869 0.469722 0)
(1.43124 0.530635 0)
(1.44312 0.579335 0)
(1.45391 0.616688 0)
(1.46331 0.643923 0)
(1.47111 0.662546 0)
(1.47715 0.674047 0)
(1.48128 0.679954 0)
(1.48355 0.682175 0)
(1.48393 0.681706 0)
(1.4819 0.679041 0)
(1.47763 0.675977 0)
(1.47134 0.673331 0)
(1.46319 0.67141 0)
(1.4533 0.670105 0)
(1.44184 0.668855 0)
(1.42902 0.666665 0)
(1.41507 0.662243 0)
(1.40027 0.654178 0)
(1.38488 0.641132 0)
(1.36919 0.621973 0)
(1.35347 0.595862 0)
(1.33802 0.56231 0)
(1.32317 0.521086 0)
(1.3093 0.472184 0)
(1.29685 0.415814 0)
(1.2863 0.352426 0)
(1.27809 0.282756 0)
(1.27261 0.207868 0)
(1.27017 0.129161 0)
(1.27088 0.0483532 0)
(1.27467 -0.0323839 0)
(1.28128 -0.111255 0)
(1.29037 -0.186749 0)
(1.30152 -0.25754 0)
(1.31425 -0.322552 0)
(1.32805 -0.381032 0)
(1.34241 -0.432578 0)
(1.35687 -0.477102 0)
(1.37101 -0.514815 0)
(1.38445 -0.546155 0)
(-0.000906104 0.545551 0)
(-0.0365137 0.566229 0)
(-0.0664093 0.542585 0)
(-0.0740789 0.490529 0)
(-0.0631901 0.401275 0)
(-0.0274025 0.268289 0)
(0.0307073 0.0872067 0)
(0.112823 -0.1333 0)
(0.21432 -0.372122 0)
(0.312417 -0.590769 0)
(0.397227 -0.766548 0)
(0.465765 -0.897115 0)
(0.516764 -0.988539 0)
(0.550022 -1.05013 0)
(0.564029 -1.08881 0)
(0.557968 -1.11434 0)
(0.533516 -1.13626 0)
(0.499117 -1.14367 0)
(0.466138 -1.13767 0)
(0.450985 -1.10518 0)
(0.457084 -1.0328 0)
(0.49314 -0.906641 0)
(0.565695 -0.724557 0)
(0.663757 -0.499302 0)
(0.777823 -0.251275 0)
(0.898165 -0.00346122 0)
(1.01567 0.225529 0)
(1.12446 0.424408 0)
(1.2199 0.586409 0)
(1.29935 0.709735 0)
(1.36223 0.796444 0)
(1.40939 0.851722 0)
(1.44229 0.882784 0)
(1.4631 0.89555 0)
(1.4752 0.895737 0)
(1.4793 0.884699 0)
(1.47615 0.867022 0)
(1.46936 0.8482 0)
(1.46065 0.831351 0)
(1.4503 0.817337 0)
(1.4385 0.806304 0)
(1.42532 0.798145 0)
(1.41071 0.793065 0)
(1.39417 0.791884 0)
(1.37475 0.795899 0)
(1.35144 0.806159 0)
(1.32376 0.821887 0)
(1.29263 0.838735 0)
(1.26053 0.849248 0)
(1.22898 0.844573 0)
(1.2013 0.81518 0)
(1.17959 0.754868 0)
(1.1653 0.662337 0)
(1.1592 0.540706 0)
(1.16173 0.396346 0)
(1.17296 0.237706 0)
(1.19216 0.0749069 0)
(1.21773 -0.0822015 0)
(1.24802 -0.22732 0)
(1.28115 -0.35553 0)
(1.31519 -0.463985 0)
(1.3484 -0.551514 0)
(1.37937 -0.618807 0)
(1.40713 -0.667857 0)
(1.43111 -0.701381 0)
(1.45116 -0.72227 0)
(1.4675 -0.733294 0)
(1.48046 -0.736839 0)
(1.4901 -0.734955 0)
(1.49642 -0.729923 0)
(1.49988 -0.723958 0)
(1.50098 -0.71856 0)
(1.49998 -0.714533 0)
(1.49694 -0.712458 0)
(1.492 -0.713034 0)
(1.48502 -0.716759 0)
(1.47594 -0.723671 0)
(1.46476 -0.733049 0)
(1.45167 -0.74316 0)
(1.4374 -0.75126 0)
(1.42217 -0.754436 0)
(1.40636 -0.749397 0)
(1.39031 -0.733059 0)
(1.37435 -0.70314 0)
(1.35892 -0.658498 0)
(1.34447 -0.598971 0)
(1.33154 -0.525195 0)
(1.32081 -0.438483 0)
(1.31296 -0.340766 0)
(1.30861 -0.234615 0)
(1.30817 -0.123302 0)
(1.3117 -0.0111276 0)
(1.31886 0.0980721 0)
(1.32913 0.201343 0)
(1.34187 0.296183 0)
(1.35632 0.380703 0)
(1.37172 0.453753 0)
(1.38737 0.514925 0)
(1.40266 0.564486 0)
(1.41704 0.603161 0)
(1.43013 0.632115 0)
(1.44158 0.652713 0)
(1.45112 0.666424 0)
(1.45864 0.674777 0)
(1.46406 0.679058 0)
(1.46738 0.680596 0)
(1.46861 0.680728 0)
(1.46765 0.680239 0)
(1.4644 0.679836 0)
(1.45916 0.679962 0)
(1.45207 0.680543 0)
(1.44332 0.680977 0)
(1.43315 0.680217 0)
(1.42181 0.676961 0)
(1.40954 0.669794 0)
(1.3966 0.657312 0)
(1.38326 0.63839 0)
(1.36977 0.612227 0)
(1.3564 0.578278 0)
(1.3435 0.536248 0)
(1.33144 0.48607 0)
(1.32067 0.427917 0)
(1.31164 0.36224 0)
(1.30477 0.289817 0)
(1.30045 0.211804 0)
(1.29892 0.129739 0)
(1.3003 0.0455512 0)
(1.30447 -0.0383531 0)
(1.31114 -0.120052 0)
(1.31996 -0.197935 0)
(1.33052 -0.270605 0)
(1.34233 -0.336933 0)
(1.3549 -0.396171 0)
(1.36777 -0.447943 0)
(1.3805 -0.492211 0)
(1.39272 -0.529244 0)
(1.40408 -0.559526 0)
(1.3374 0.0421836 0)
(1.34186 -0.0444946 0)
(1.34842 -0.128619 0)
(1.35674 -0.208492 0)
(1.36639 -0.282646 0)
(1.37693 -0.34992 0)
(1.38789 -0.409595 0)
(1.39887 -0.461324 0)
(1.40949 -0.505125 0)
(1.41941 -0.541307 0)
(1.42836 -0.570421 0)
(0.460754 0.0219582 0)
(0.427581 0.0210577 0)
(1.32986 0.0533678 0)
(1.30604 0.0548114 0)
(1.73529 0.0720373 0)
(1.72467 0.0746318 0)
(1.8857 0.0774171 0)
(1.88259 0.0806726 0)
(1.93318 0.0786585 0)
(1.93302 0.0820749 0)
(1.94528 0.0778788 0)
(1.94603 0.0812913 0)
(1.94797 0.0769635 0)
(1.94878 0.0802908 0)
(1.9492 0.0762003 0)
(1.94983 0.0793719 0)
(1.95047 0.0757033 0)
(1.95085 0.0786771 0)
(1.95187 0.0755608 0)
(1.95197 0.0782725 0)
(1.95326 0.0757469 0)
(1.95306 0.0781275 0)
(1.95449 0.0763345 0)
(1.95398 0.0783041 0)
(1.95543 0.0773332 0)
(1.95458 0.0788085 0)
(1.95594 0.078794 0)
(1.95473 0.0796889 0)
(1.95583 0.0807256 0)
(1.95423 0.080928 0)
(1.95494 0.0831776 0)
(1.95295 0.0825041 0)
(1.9531 0.0861541 0)
(1.95073 0.0845337 0)
(1.95013 0.0897478 0)
(1.94729 0.0869954 0)
(1.94578 0.093886 0)
(1.94252 0.0898664 0)
(1.93989 0.0985708 0)
(1.93628 0.093195 0)
(1.93265 0.103617 0)
(1.92885 0.0967705 0)
(1.9256 0.108851 0)
(1.92174 0.100803 0)
(1.92014 0.113771 0)
(1.91694 0.104242 0)
(1.90146 0.118267 0)
(1.89975 0.108356 0)
(1.84805 0.117838 0)
(1.84967 0.108021 0)
(1.72081 0.115802 0)
(1.72856 0.108304 0)
(1.44708 0.0961566 0)
(1.45727 0.0977175 0)
(0.878649 0.0777809 0)
(0.903164 0.0821993 0)
(0.245627 0.043535 0)
(0.271425 0.0718372 0)
(-0.0218082 0.0326332 0)
(0.0530057 0.0562296 0)
(0.395103 0.018987 0)
(0.363609 0.0159868 0)
(0.3334 0.0126912 0)
(0.304917 0.00943476 0)
(0.278433 0.0063255 0)
(0.25401 0.00340304 0)
(0.231664 0.000643042 0)
(0.211459 -0.00212304 0)
(0.193461 -0.00484586 0)
(0.177722 -0.00746956 0)
(0.164271 -0.00988951 0)
(0.153003 -0.011794 0)
(0.14356 -0.0126912 0)
(0.135433 -0.0124194 0)
(0.128096 -0.0111739 0)
(0.12104 -0.00916207 0)
(0.113849 -0.00639939 0)
(0.10604 -0.0028676 0)
(0.0969958 0.00122581 0)
(0.0859488 0.00537428 0)
(0.0718326 0.00901537 0)
(0.0536783 0.0114495 0)
(0.0318738 0.0124459 0)
(0.00779835 0.0118027 0)
(-0.0156653 0.0100704 0)
(-0.0364603 0.00770954 0)
(-0.0534427 0.0051705 0)
(-0.0658726 0.00272752 0)
(-0.0736388 0.000546247 0)
(-0.0769155 -0.00125546 0)
(-0.0765295 -0.00290913 0)
(-0.0735459 -0.00396705 0)
(-0.0683738 -0.00451392 0)
(-0.0617501 -0.00461807 0)
(-0.0543879 -0.00439304 0)
(-0.0467522 -0.00408356 0)
(-0.0390716 -0.00389864 0)
(-0.0312868 -0.00391025 0)
(-0.0230496 -0.00414352 0)
(-0.0139664 -0.00457328 0)
(-0.00353329 -0.00507624 0)
(0.00822199 -0.00562144 0)
(0.0210153 -0.00598409 0)
(0.0345568 -0.0060145 0)
(0.0481308 -0.00557504 0)
(0.0606837 -0.00465664 0)
(0.0708379 -0.00327029 0)
(0.0770317 -0.00137019 0)
(0.0782576 0.00116454 0)
(0.0733155 0.00477922 0)
(0.0613709 0.0089318 0)
(0.042288 0.0128462 0)
(0.0163877 0.015801 0)
(-0.0143067 0.0176097 0)
(-0.0469119 0.0183432 0)
(-0.0789611 0.0174514 0)
(-0.107369 0.0146564 0)
(-0.12836 0.0100489 0)
(-0.139097 0.00412945 0)
(-0.13849 -0.00257379 0)
(-0.128301 -0.00902027 0)
(-0.109349 -0.0141471 0)
(-0.0834473 -0.0176701 0)
(-0.0523435 -0.0197642 0)
(-0.0180413 -0.0205492 0)
(0.017358 -0.0203752 0)
(0.0522555 -0.019564 0)
(0.0864991 -0.0182734 0)
(0.119107 -0.0165168 0)
(0.14927 -0.0143743 0)
(0.176246 -0.0119389 0)
(0.199832 -0.0093665 0)
(0.219406 -0.00698755 0)
(0.234181 -0.00484757 0)
(0.243481 -0.00278255 0)
(0.246997 -0.000346722 0)
(0.244454 0.00323446 0)
(0.235567 0.00711897 0)
(0.220014 0.0111687 0)
(0.198005 0.014648 0)
(0.170998 0.0170125 0)
(0.141194 0.0181397 0)
(0.110852 0.0183098 0)
(0.081978 0.0169878 0)
(0.0570895 0.0141641 0)
(0.0386238 0.0104148 0)
(0.0276995 0.0064889 0)
(0.0244042 0.00267923 0)
(0.0271854 -0.000975884 0)
(0.0349011 -0.003771 0)
(0.0471413 -0.00582769 0)
(0.0629603 -0.0072191 0)
(0.0812385 -0.00802151 0)
(0.100927 -0.0084115 0)
(0.121118 -0.0084752 0)
(0.141053 -0.00826965 0)
(0.160124 -0.00785097 0)
(0.177778 -0.00727658 0)
(0.193699 -0.00659376 0)
(0.207584 -0.00581668 0)
(0.219234 -0.00494571 0)
(0.228555 -0.00399556 0)
(0.235547 -0.00299659 0)
(0.240232 -0.00201654 0)
(0.242574 -0.00108109 0)
(0.242751 0.000121111 0)
(0.240739 0.00140358 0)
(0.236627 0.00264384 0)
(0.230407 0.0038346 0)
(0.22222 0.00486563 0)
(0.212318 0.00571707 0)
(0.201022 0.00634736 0)
(0.188733 0.00672754 0)
(0.175895 0.0068609 0)
(0.16299 0.00675416 0)
(0.15054 0.00642532 0)
(0.138948 0.00587661 0)
(0.12869 0.00508944 0)
(0.120205 0.00407831 0)
(0.113891 0.00290423 0)
(0.110135 0.00165774 0)
(0.109066 0.000339083 0)
(0.110571 -0.00108338 0)
(0.114504 -0.00232517 0)
(0.12076 -0.00341463 0)
(0.129045 -0.00428986 0)
(0.138954 -0.00493246 0)
(0.150023 -0.00534275 0)
(0.161779 -0.00553655 0)
(0.17376 -0.0055461 0)
(0.18554 -0.00541466 0)
(0.196816 -0.00518752 0)
(0.207345 -0.00490162 0)
(0.216945 -0.00458954 0)
(0.225515 -0.0042698 0)
(0.232982 -0.00393788 0)
(0.239296 -0.00356067 0)
(1.28011 0.0556182 0)
(1.25195 0.055756 0)
(1.22164 0.0553409 0)
(1.18927 0.0544613 0)
(1.15499 0.0531818 0)
(1.11893 0.0515834 0)
(1.08118 0.0497936 0)
(1.04178 0.0478656 0)
(1.00075 0.045812 0)
(0.958017 0.0436399 0)
(0.913515 0.0413609 0)
(0.867213 0.0390082 0)
(0.819027 0.0366011 0)
(0.769795 0.0341898 0)
(0.720345 0.0318587 0)
(0.671138 0.0297115 0)
(0.622589 0.0278596 0)
(0.575374 0.0264499 0)
(0.530061 0.0258088 0)
(0.486996 0.0266214 0)
(0.446804 0.0292658 0)
(0.410411 0.0329603 0)
(0.377917 0.0360952 0)
(0.348923 0.0369431 0)
(0.322641 0.0348544 0)
(0.298949 0.0300181 0)
(0.278064 0.0234471 0)
(0.260207 0.0162393 0)
(0.245601 0.00934877 0)
(0.234455 0.00303704 0)
(0.227246 -0.0026812 0)
(0.223692 -0.00725834 0)
(0.222549 -0.0102286 0)
(0.222864 -0.0118647 0)
(0.224288 -0.0126827 0)
(0.226507 -0.0130758 0)
(0.229254 -0.0135301 0)
(0.232254 -0.0144517 0)
(0.235268 -0.0160752 0)
(0.238291 -0.0183306 0)
(0.241493 -0.0209645 0)
(0.245015 -0.0236957 0)
(0.248748 -0.0259177 0)
(0.252681 -0.0267948 0)
(0.256442 -0.0262017 0)
(0.2597 -0.0227832 0)
(0.261766 -0.0164872 0)
(0.261754 -0.00753208 0)
(0.259184 0.00419149 0)
(0.252375 0.0173398 0)
(0.239699 0.0302346 0)
(0.221812 0.0410511 0)
(0.201239 0.0483805 0)
(0.179599 0.0517492 0)
(0.158611 0.0513011 0)
(0.140706 0.0464751 0)
(0.12828 0.0364925 0)
(0.123378 0.0220077 0)
(0.126154 0.00449748 0)
(0.136539 -0.0139843 0)
(0.155543 -0.0304956 0)
(0.181417 -0.0435683 0)
(0.2118 -0.0526953 0)
(0.24462 -0.0580722 0)
(0.278048 -0.060443 0)
(0.310827 -0.0606997 0)
(0.342116 -0.0595259 0)
(0.371211 -0.0573063 0)
(0.397736 -0.0540678 0)
(0.421647 -0.0497374 0)
(0.442991 -0.0447038 0)
(0.461545 -0.0391252 0)
(0.47699 -0.031225 0)
(0.489037 -0.0213911 0)
(0.497622 -0.010784 0)
(0.50249 0.000410514 0)
(0.502304 0.0122837 0)
(0.495298 0.0240995 0)
(0.480598 0.0350078 0)
(0.458524 0.0435047 0)
(0.431363 0.0482042 0)
(0.402459 0.0489039 0)
(0.374625 0.046011 0)
(0.350407 0.039605 0)
(0.332022 0.0302061 0)
(0.320598 0.0188877 0)
(0.315622 0.00721459 0)
(0.316015 -0.00389947 0)
(0.322051 -0.0138842 0)
(0.333487 -0.0221638 0)
(0.349201 -0.0286085 0)
(0.368368 -0.0331594 0)
(0.389959 -0.0357924 0)
(0.412973 -0.0367713 0)
(0.436736 -0.0363405 0)
(0.460623 -0.0347654 0)
(0.483954 -0.0323455 0)
(0.506085 -0.0292032 0)
(0.526314 -0.025446 0)
(0.544012 -0.0212996 0)
(0.558645 -0.0169831 0)
(0.569843 -0.0127402 0)
(0.577496 -0.00873375 0)
(0.581768 -0.00492748 0)
(0.582947 -0.00099052 0)
(0.580876 0.00301375 0)
(0.575576 0.00683716 0)
(0.567407 0.0104289 0)
(0.556808 0.0137327 0)
(0.544307 0.0166307 0)
(0.530428 0.0189777 0)
(0.515632 0.0206584 0)
(0.500472 0.0216267 0)
(0.485551 0.0219014 0)
(0.471323 0.0214086 0)
(0.458306 0.0200055 0)
(0.447144 0.017765 0)
(0.438269 0.0148377 0)
(0.431922 0.0113823 0)
(0.42821 0.00748184 0)
(0.427198 0.00309054 0)
(0.428815 -0.00159925 0)
(0.433136 -0.00627197 0)
(0.440175 -0.0106172 0)
(0.449582 -0.0144063 0)
(0.460964 -0.0174732 0)
(0.473867 -0.0197245 0)
(0.487776 -0.0211268 0)
(0.502184 -0.0216934 0)
(0.516595 -0.0215076 0)
(0.530619 -0.0206873 0)
(0.543935 -0.0193535 0)
(0.556258 -0.0176172 0)
(0.567384 -0.0155812 0)
(0.577191 -0.0133416 0)
(0.58562 -0.010974 0)
(0.592576 -0.00854187 0)
(1.7131 0.0768229 0)
(1.70043 0.0786188 0)
(1.68654 0.0800593 0)
(1.67129 0.0812076 0)
(1.6546 0.0821446 0)
(1.63643 0.0829366 0)
(1.61669 0.0836406 0)
(1.59528 0.0843062 0)
(1.57208 0.0849865 0)
(1.54703 0.0857439 0)
(1.52005 0.0866472 0)
(1.49107 0.0877624 0)
(1.46015 0.0890893 0)
(1.42701 0.0904678 0)
(1.39137 0.0916987 0)
(1.35326 0.0926371 0)
(1.31281 0.0931651 0)
(1.27024 0.0932262 0)
(1.22593 0.0928078 0)
(1.18034 0.0919197 0)
(1.1342 0.0905109 0)
(1.08942 0.0883448 0)
(1.04722 0.0848948 0)
(1.00813 0.0796037 0)
(0.972563 0.0722606 0)
(0.940468 0.062936 0)
(0.911732 0.0520454 0)
(0.88647 0.040378 0)
(0.864655 0.0288283 0)
(0.846234 0.0181827 0)
(0.830368 0.0089088 0)
(0.816392 0.00129213 0)
(0.804959 -0.00454642 0)
(0.795373 -0.00850637 0)
(0.787506 -0.0105693 0)
(0.781028 -0.0113931 0)
(0.775471 -0.0114735 0)
(0.770245 -0.0110993 0)
(0.764908 -0.0105842 0)
(0.758916 -0.0102727 0)
(0.751633 -0.0102071 0)
(0.742499 -0.0102051 0)
(0.731031 -0.00998121 0)
(0.717015 -0.00917405 0)
(0.700385 -0.00747941 0)
(0.681207 -0.00477004 0)
(0.660382 -0.00103963 0)
(0.639669 0.00428347 0)
(0.619324 0.0129329 0)
(0.599466 0.0252247 0)
(0.58267 0.0389073 0)
(0.570296 0.0505809 0)
(0.56245 0.0575695 0)
(0.558747 0.059662 0)
(0.558397 0.0583086 0)
(0.562847 0.0505757 0)
(0.572383 0.0355246 0)
(0.586332 0.0146917 0)
(0.603686 -0.00962374 0)
(0.624767 -0.034721 0)
(0.648896 -0.0569631 0)
(0.674317 -0.0742686 0)
(0.70019 -0.0858928 0)
(0.725466 -0.0915442 0)
(0.749384 -0.0921952 0)
(0.771399 -0.0893843 0)
(0.790898 -0.0840817 0)
(0.807018 -0.0770955 0)
(0.819093 -0.0692417 0)
(0.826952 -0.0609526 0)
(0.830595 -0.0521072 0)
(0.82989 -0.0428368 0)
(0.82545 -0.033763 0)
(0.818747 -0.0250812 0)
(0.811139 -0.0164571 0)
(0.804106 -0.00652974 0)
(0.798426 0.00640546 0)
(0.793789 0.0237324 0)
(0.788527 0.0444066 0)
(0.781488 0.0633003 0)
(0.772409 0.0755146 0)
(0.760875 0.0784958 0)
(0.748219 0.0768549 0)
(0.734924 0.0686814 0)
(0.72151 0.0518947 0)
(0.708881 0.0323034 0)
(0.698481 0.013358 0)
(0.691133 -0.00401561 0)
(0.68776 -0.0195062 0)
(0.688354 -0.0331608 0)
(0.692736 -0.0447195 0)
(0.700607 -0.0536097 0)
(0.711475 -0.058761 0)
(0.724694 -0.0619421 0)
(0.739426 -0.0633222 0)
(0.755071 -0.0627184 0)
(0.771417 -0.0602502 0)
(0.788382 -0.0561331 0)
(0.805626 -0.0505645 0)
(0.822497 -0.0435925 0)
(0.838242 -0.0353883 0)
(0.852195 -0.0264932 0)
(0.863786 -0.0175086 0)
(0.872589 -0.00882081 0)
(0.878412 -0.000511031 0)
(0.88127 0.00748174 0)
(0.881041 0.0152603 0)
(0.877649 0.0224479 0)
(0.871315 0.0287223 0)
(0.86237 0.0334521 0)
(0.851317 0.0371219 0)
(0.83905 0.0394004 0)
(0.82662 0.0399822 0)
(0.814579 0.0389823 0)
(0.803224 0.0365508 0)
(0.793049 0.0327909 0)
(0.784587 0.0278488 0)
(0.778142 0.0219823 0)
(0.773874 0.0154433 0)
(0.771898 0.00837184 0)
(0.772222 0.000994598 0)
(0.774858 -0.00645492 0)
(0.779797 -0.0136157 0)
(0.78672 -0.0202436 0)
(0.795282 -0.0260639 0)
(0.805135 -0.0307908 0)
(0.815911 -0.0342277 0)
(0.82723 -0.0362812 0)
(0.838663 -0.0369698 0)
(0.849876 -0.0365285 0)
(0.860638 -0.0351655 0)
(0.870707 -0.0330209 0)
(0.879862 -0.0303041 0)
(0.887961 -0.0272793 0)
(0.894973 -0.0241664 0)
(0.900974 -0.0210515 0)
(0.905967 -0.0177014 0)
(1.87907 0.083659 0)
(1.87504 0.0862929 0)
(1.8704 0.0889096 0)
(1.86505 0.0911216 0)
(1.85892 0.093085 0)
(1.85194 0.0950371 0)
(1.84405 0.0970538 0)
(1.83516 0.0991411 0)
(1.82522 0.101345 0)
(1.81416 0.103709 0)
(1.80193 0.106264 0)
(1.78849 0.109026 0)
(1.7738 0.111982 0)
(1.75788 0.115094 0)
(1.74069 0.118272 0)
(1.72218 0.121385 0)
(1.70235 0.124275 0)
(1.68122 0.126772 0)
(1.65884 0.128722 0)
(1.63538 0.129972 0)
(1.61115 0.130185 0)
(1.58645 0.128832 0)
(1.5615 0.125358 0)
(1.53636 0.119391 0)
(1.51105 0.110863 0)
(1.48554 0.100035 0)
(1.45984 0.0874556 0)
(1.434 0.0738346 0)
(1.40798 0.0598738 0)
(1.38223 0.0464647 0)
(1.35714 0.0343769 0)
(1.33313 0.0241857 0)
(1.31042 0.0160437 0)
(1.28915 0.00982688 0)
(1.26938 0.00535105 0)
(1.25104 0.0023168 0)
(1.23411 0.000394044 0)
(1.21842 -0.000746133 0)
(1.20375 -0.00138051 0)
(1.18979 -0.00165368 0)
(1.17615 -0.00151882 0)
(1.16256 -0.000733212 0)
(1.14891 0.00103347 0)
(1.13509 0.00410291 0)
(1.12105 0.00869395 0)
(1.10688 0.0149863 0)
(1.09268 0.0227966 0)
(1.07839 0.0315897 0)
(1.06349 0.0411289 0)
(1.04869 0.051546 0)
(1.03714 0.0600849 0)
(1.03005 0.0635212 0)
(1.02757 0.0637087 0)
(1.02783 0.0613995 0)
(1.03235 0.053523 0)
(1.04134 0.0396747 0)
(1.0533 0.0199699 0)
(1.06757 -0.00435882 0)
(1.08279 -0.0311544 0)
(1.09781 -0.0572038 0)
(1.11203 -0.0795709 0)
(1.12562 -0.0968078 0)
(1.13847 -0.108114 0)
(1.15062 -0.112997 0)
(1.16226 -0.11282 0)
(1.1735 -0.109232 0)
(1.18441 -0.102362 0)
(1.19481 -0.0926414 0)
(1.20419 -0.0809457 0)
(1.212 -0.0678655 0)
(1.2178 -0.053897 0)
(1.22133 -0.039409 0)
(1.22228 -0.0246796 0)
(1.22012 -0.0101756 0)
(1.21443 0.00345547 0)
(1.20453 0.0158785 0)
(1.19067 0.027495 0)
(1.17449 0.0399296 0)
(1.15909 0.0539388 0)
(1.14764 0.0668491 0)
(1.14063 0.0754174 0)
(1.13667 0.0792846 0)
(1.13325 0.0788878 0)
(1.1301 0.0728744 0)
(1.12576 0.0613178 0)
(1.11875 0.0456549 0)
(1.10957 0.0275916 0)
(1.09933 0.00860224 0)
(1.08956 -0.00971591 0)
(1.08083 -0.0266258 0)
(1.07318 -0.0414414 0)
(1.06679 -0.0535136 0)
(1.06215 -0.0623255 0)
(1.05965 -0.0677237 0)
(1.05887 -0.0700606 0)
(1.05943 -0.0704465 0)
(1.06112 -0.0699322 0)
(1.06372 -0.0679949 0)
(1.0673 -0.0638862 0)
(1.07205 -0.057967 0)
(1.07777 -0.0503348 0)
(1.08406 -0.0414396 0)
(1.09071 -0.0317241 0)
(1.09746 -0.021493 0)
(1.10398 -0.0109339 0)
(1.10995 -0.000229196 0)
(1.11523 0.0103447 0)
(1.11965 0.0205217 0)
(1.12306 0.029921 0)
(1.1252 0.038062 0)
(1.126 0.0442045 0)
(1.12588 0.0477164 0)
(1.12483 0.048763 0)
(1.12292 0.0484257 0)
(1.12041 0.0468081 0)
(1.11759 0.0425368 0)
(1.11477 0.0363088 0)
(1.1123 0.0286477 0)
(1.11054 0.0199703 0)
(1.10972 0.0106125 0)
(1.10997 0.000883121 0)
(1.11146 -0.00881226 0)
(1.11435 -0.0181859 0)
(1.11859 -0.0268094 0)
(1.12396 -0.0342527 0)
(1.13019 -0.0401962 0)
(1.13707 -0.0444994 0)
(1.14445 -0.0470782 0)
(1.15212 -0.0478973 0)
(1.15982 -0.0471876 0)
(1.16758 -0.0452393 0)
(1.17535 -0.0422465 0)
(1.18295 -0.0383491 0)
(1.19008 -0.0338208 0)
(1.19651 -0.0289803 0)