/*--------------------------------*- C++ -*----------------------------------*\
| =========                 |                                                 |
| \\      /  F ield         | OpenFOAM: The Open Source CFD Toolbox           |
|  \\    /   O peration     | Version:  2206                                  |
|   \\  /    A nd           | Website:  www.openfoam.com                      |
|    \\/     M anipulation  |                                                 |
\*---------------------------------------------------------------------------*/
FoamFile
{
    version     2.0;
    format      ascii;
    arch        "LSB;label=32;scalar=64";
    class       volVectorField;
    location    "19.5";
    object      ddt0(U);
}
// * * * * * * * * * * * * * * * * * * * * * * * * * * * * * * * * * * * * * //

dimensions      [0 1 -2 0 0 0 0];

internalField   nonuniform List<vector> 
4810
(
(-9.52259 2.62289 0)
(-8.87162 -16.2588 0)
(-8.97905 -37.5203 0)
(-9.6394 -59.3086 0)
(-10.7569 -82.0797 0)
(-12.0727 -104.561 0)
(-13.4053 -125.272 0)
(-14.6599 -142.679 0)
(-15.7042 -155.209 0)
(-16.1927 -160.889 0)
(-15.8504 -158.706 0)
(-14.7934 -151.48 0)
(-13.0584 -139.992 0)
(-10.6849 -125.309 0)
(-7.79556 -108.627 0)
(-4.54437 -91.1485 0)
(-1.07491 -73.9595 0)
(2.48324 -57.9307 0)
(6.01441 -43.6425 0)
(9.52554 -31.3276 0)
(13.2933 -20.8144 0)
(17.2045 -11.8007 0)
(20.4203 -4.588 0)
(23.2568 1.02768 0)
(25.3187 6.33165 0)
(26.5215 12.4031 0)
(26.8138 20.0696 0)
(26.1621 29.7492 0)
(24.6114 41.3733 0)
(22.2679 54.4519 0)
(19.2634 68.2029 0)
(15.7209 81.7082 0)
(11.7619 94.0968 0)
(7.53737 104.601 0)
(3.0781 112.465 0)
(-1.31739 117.45 0)
(-5.22775 118.889 0)
(-8.50068 117.015 0)
(-11.2809 112.91 0)
(-13.4668 106.888 0)
(-14.9855 99.2914 0)
(-15.8703 90.5135 0)
(-16.2094 80.9444 0)
(-16.0852 70.8787 0)
(-15.5826 60.5688 0)
(-14.7606 50.2375 0)
(-13.6744 40.0772 0)
(-12.3402 30.2741 0)
(-10.6823 21.0268 0)
(-9.73774 11.9768 0)
(-9.77267 -0.000842262 0)
(-8.98745 -14.2311 0)
(-8.30631 -28.5716 0)
(-7.75749 -42.8266 0)
(-7.4229 -57.0194 0)
(-7.21363 -70.8976 0)
(-7.04943 -84.0621 0)
(-6.88647 -96.0254 0)
(-6.69138 -106.247 0)
(-6.43165 -114.15 0)
(-6.03043 -118.992 0)
(-5.28565 -119.531 0)
(-4.20697 -116.99 0)
(-2.83719 -111.858 0)
(-1.15409 -104.5 0)
(0.824358 -95.3925 0)
(3.04193 -85.0781 0)
(5.42741 -74.1007 0)
(7.90026 -62.954 0)
(10.3838 -52.038 0)
(12.7975 -41.6195 0)
(15.0498 -31.8127 0)
(17.2537 -22.5276 0)
(19.783 -13.3761 0)
(21.8259 -4.30103 0)
(23.562 4.00436 0)
(24.8583 11.8583 0)
(25.5554 19.5595 0)
(25.6835 27.3194 0)
(25.2571 35.2607 0)
(24.314 43.3705 0)
(22.9226 51.5115 0)
(21.1644 59.4567 0)
(19.123 66.9287 0)
(16.8774 73.6383 0)
(14.4997 79.3144 0)
(12.0526 83.7289 0)
(9.59718 86.6804 0)
(7.18432 87.8307 0)
(4.86207 87.2475 0)
(2.64172 85.3395 0)
(0.539915 82.1107 0)
(-1.3862 77.6232 0)
(-3.07558 72.0154 0)
(-4.50254 65.4755 0)
(-5.68849 58.1589 0)
(-6.62436 50.2051 0)
(-7.30534 41.7917 0)
(-7.75696 33.1303 0)
(-7.95944 24.4701 0)
(-7.72997 16.1 0)
(-8.15307 7.8058 0)
(-8.31075 -2.78364 0)
(-8.24362 -13.6662 0)
(-8.19862 -24.0894 0)
(-8.02261 -33.8925 0)
(-7.88612 -43.0196 0)
(-7.82967 -51.4117 0)
(-7.84434 -58.9746 0)
(-7.92934 -65.5832 0)
(-8.0772 -71.0879 0)
(-8.27233 -75.3181 0)
(-8.47734 -78.0557 0)
(-8.57132 -78.8739 0)
(-8.50832 -78.0469 0)
(-8.28716 -75.9255 0)
(-7.8632 -72.5795 0)
(-7.21291 -68.1406 0)
(-6.33748 -62.7892 0)
(-5.24848 -56.7267 0)
(-3.97376 -50.1685 0)
(-2.55971 -43.3245 0)
(-1.07051 -36.3612 0)
(0.4162 -29.4117 0)
(1.84948 -22.6139 0)
(3.09777 -16.0823 0)
(3.9036 -9.94504 0)
(5.35761 -4.09887 0)
(6.65244 3.10582 0)
(7.73422 10.3979 0)
(8.15899 17.3486 0)
(8.09328 23.9923 0)
(7.67305 30.463 0)
(6.89254 36.7546 0)
(5.79412 42.7695 0)
(4.46903 48.3683 0)
(3.00192 53.426 0)
(1.45371 57.7708 0)
(-2.69855 3.25538 0)
(-1.15482 -17.6609 0)
(-1.4723 -37.0877 0)
(-2.76879 -58.0193 0)
(-4.3896 -80.4075 0)
(-6.30185 -102.699 0)
(-8.42472 -123.351 0)
(-10.6318 -140.826 0)
(-12.7732 -153.634 0)
(-14.4922 -160.104 0)
(-15.4029 -158.717 0)
(-15.5481 -152.341 0)
(-14.9238 -141.683 0)
(-13.5226 -127.75 0)
(-11.4214 -111.684 0)
(-8.75494 -94.6576 0)
(-5.66638 -77.7611 0)
(-2.29481 -61.8857 0)
(1.21868 -47.6603 0)
(4.7713 -35.3864 0)
(8.41888 -24.9878 0)
(12.3846 -16.0616 0)
(16.0548 -8.28409 0)
(19.0336 -1.80068 0)
(21.3336 4.38847 0)
(22.7194 11.4574 0)
(23.1903 20.1679 0)
(22.7556 30.859 0)
(21.4798 43.3988 0)
(19.4658 57.263 0)
(16.7939 71.6561 0)
(13.553 85.7152 0)
(9.88447 98.5532 0)
(5.91989 109.292 0)
(1.80624 117.275 0)
(-2.21856 121.993 0)
(-5.77395 122.667 0)
(-8.72528 120.252 0)
(-11.126 115.471 0)
(-12.8744 108.701 0)
(-13.9183 100.372 0)
(-14.3001 90.9337 0)
(-14.113 80.7805 0)
(-13.496 70.2612 0)
(-12.5781 59.618 0)
(-11.4245 48.9942 0)
(-10.12 38.5768 0)
(-8.64005 28.5762 0)
(-6.74152 19.3768 0)
(-5.02702 11.0639 0)
(-5.1284 -0.333411 0)
(-4.24958 -15.1949 0)
(-3.32947 -29.3001 0)
(-2.84512 -43.2331 0)
(-2.74165 -57.1923 0)
(-2.82526 -70.9293 0)
(-3.02599 -84.0233 0)
(-3.30392 -95.9658 0)
(-3.61768 -106.216 0)
(-3.92597 -114.2 0)
(-4.14907 -119.229 0)
(-4.07718 -120.182 0)
(-3.65915 -117.957 0)
(-2.93191 -113.195 0)
(-1.85572 -106.212 0)
(-0.4245 -97.4484 0)
(1.32386 -87.4162 0)
(3.33151 -76.6409 0)
(5.52449 -65.6059 0)
(7.81956 -54.7075 0)
(10.1307 -44.2294 0)
(12.3458 -34.3205 0)
(14.4008 -24.9695 0)
(16.6988 -15.8935 0)
(19.0042 -6.60388 0)
(20.6703 2.29308 0)
(22.0651 10.7248 0)
(22.8586 19.0404 0)
(23.0882 27.4169 0)
(22.7967 35.9395 0)
(22.0223 44.5699 0)
(20.8296 53.1532 0)
(19.2935 61.4548 0)
(17.4887 69.1985 0)
(15.4857 76.1 0)
(13.349 81.8956 0)
(11.1357 86.3632 0)
(8.90532 89.2959 0)
(6.71431 90.3398 0)
(4.63407 89.6458 0)
(2.66006 87.6247 0)
(0.769293 84.2646 0)
(-0.971765 79.5684 0)
(-2.53622 73.6688 0)
(-3.78868 66.8309 0)
(-4.79222 59.2415 0)
(-5.56959 51.0051 0)
(-6.07506 42.3124 0)
(-6.33711 33.3996 0)
(-6.39969 24.5295 0)
(-6.05089 16.0162 0)
(-6.13167 7.95166 0)
(-6.46578 -2.5734 0)
(-6.32667 -13.7658 0)
(-6.20827 -24.3009 0)
(-6.01303 -34.0598 0)
(-5.91484 -43.0953 0)
(-5.93319 -51.3859 0)
(-6.05023 -58.8497 0)
(-6.26326 -65.3657 0)
(-6.5662 -70.7918 0)
(-6.94491 -74.9757 0)
(-7.36187 -77.7318 0)
(-7.70929 -78.7002 0)
(-7.92277 -78.0263 0)
(-7.98953 -76.1165 0)
(-7.85865 -73.0096 0)
(-7.50052 -68.823 0)
(-6.91125 -63.7259 0)
(-6.09806 -57.9045 0)
(-5.08378 -51.5487 0)
(-3.90838 -44.8341 0)
(-2.6338 -37.9186 0)
(-1.33141 -30.9645 0)
(-0.0574922 -24.104 0)
(1.09792 -17.3877 0)
(1.90018 -10.9733 0)
(2.85831 -5.29275 0)
(4.22763 1.63604 0)
(5.47913 9.69949 0)
(5.68363 17.1248 0)
(5.45529 24.2303 0)
(5.00161 31.1235 0)
(4.24237 37.7974 0)
(3.2185 44.1137 0)
(2.06457 49.8546 0)
(0.829828 54.9577 0)
(-0.360456 59.3341 0)
(4.12928 -1.87859 0)
(5.80365 -17.5042 0)
(5.24324 -35.621 0)
(3.67746 -56.1961 0)
(1.70996 -78.1547 0)
(-0.734931 -100.097 0)
(-3.56727 -120.5 0)
(-6.62631 -137.879 0)
(-9.73432 -150.836 0)
(-12.5567 -157.981 0)
(-14.6108 -157.424 0)
(-15.8475 -151.94 0)
(-16.2636 -142.227 0)
(-15.8043 -129.206 0)
(-14.495 -113.949 0)
(-12.4438 -97.5917 0)
(-9.78187 -81.2016 0)
(-6.66069 -65.6694 0)
(-3.23255 -51.6526 0)
(0.350006 -39.4768 0)
(3.95284 -29.1151 0)
(7.64076 -20.2531 0)
(11.4596 -12.3106 0)
(14.5913 -4.869 0)
(16.9915 2.27706 0)
(18.5838 10.3139 0)
(19.2788 20.0383 0)
(19.1086 31.6886 0)
(18.132 45.0789 0)
(16.4034 59.6854 0)
(14.0188 74.7927 0)
(11.1012 89.4429 0)
(7.76755 102.653 0)
(4.16714 113.609 0)
(0.449203 121.622 0)
(-3.15286 126.075 0)
(-6.28743 126.061 0)
(-8.85643 123.076 0)
(-10.8391 117.579 0)
(-12.1366 110.02 0)
(-12.7157 100.909 0)
(-12.6244 90.7792 0)
(-11.9562 80.0834 0)
(-10.8405 69.1521 0)
(-9.43082 58.2121 0)
(-7.89104 47.4211 0)
(-6.31662 36.847 0)
(-4.77172 26.5836 0)
(-3.16138 17.0674 0)
(-1.221 8.9996 0)
(-0.525416 0.983707 0)
(0.896114 -17.169 0)
(1.58141 -30.1117 0)
(1.77315 -43.4492 0)
(1.65227 -57.0806 0)
(1.29962 -70.6033 0)
(0.758271 -83.5454 0)
(0.071396 -95.3833 0)
(-0.718474 -105.578 0)
(-1.56265 -113.576 0)
(-2.36599 -118.755 0)
(-2.90871 -120.123 0)
(-3.09877 -118.232 0)
(-2.96059 -113.867 0)
(-2.43888 -107.304 0)
(-1.51044 -98.9497 0)
(-0.19998 -89.2836 0)
(1.44425 -78.8051 0)
(3.35184 -67.9768 0)
(5.43733 -57.1875 0)
(7.61168 -46.7232 0)
(9.76243 -36.7458 0)
(11.7323 -27.2953 0)
(13.6913 -18.2444 0)
(16.096 -8.98196 0)
(17.7307 0.491715 0)
(19.1656 9.49776 0)
(20.0516 18.4105 0)
(20.3685 27.3828 0)
(20.1947 36.4569 0)
(19.5801 45.574 0)
(18.5876 54.5667 0)
(17.2887 63.1958 0)
(15.75 71.1895 0)
(14.0281 78.2692 0)
(12.1694 84.1793 0)
(10.2132 88.7057 0)
(8.2005 91.6401 0)
(6.17621 92.6178 0)
(4.22439 91.8346 0)
(2.34811 89.7 0)
(0.785496 86.1668 0)
(-0.579011 81.2516 0)
(-1.6649 75.1091 0)
(-3.0374 68.0681 0)
(-3.95571 60.1959 0)
(-4.55512 51.6172 0)
(-4.91825 42.6161 0)
(-5.02962 33.4705 0)
(-4.95557 24.4028 0)
(-4.53682 15.7537 0)
(-4.18742 7.92412 0)
(-4.7639 -2.31552 0)
(-4.58036 -13.9019 0)
(-4.33301 -24.5377 0)
(-4.13171 -34.2103 0)
(-4.104 -43.113 0)
(-4.21421 -51.2698 0)
(-4.431 -58.6105 0)
(-4.75087 -65.0119 0)
(-5.17408 -70.3316 0)
(-5.69251 -74.4366 0)
(-6.27455 -77.1829 0)
(-6.82809 -78.2597 0)
(-7.27679 -77.7167 0)
(-7.58975 -75.9947 0)
(-7.72118 -73.1219 0)
(-7.63418 -69.195 0)
(-7.31659 -64.3582 0)
(-6.7713 -58.7716 0)
(-6.01914 -52.621 0)
(-5.09568 -46.0701 0)
(-4.04898 -39.2477 0)
(-2.93808 -32.2941 0)
(-1.82409 -25.327 0)
(-0.77337 -18.4569 0)
(0.134914 -11.8698 0)
(0.81975 -5.84947 0)
(1.94273 -1.4246 0)
(2.88295 9.69195 0)
(2.96344 17.3741 0)
(2.66426 24.6968 0)
(2.23038 31.8614 0)
(1.58587 38.7537 0)
(0.802508 45.1676 0)
(0.190299 51.0022 0)
(-1.17559 56.1739 0)
(-2.07231 60.6058 0)
(10.6496 -3.81523 0)
(11.8426 -17.5402 0)
(11.3695 -34.6525 0)
(9.7985 -54.2677 0)
(7.48114 -75.4557 0)
(4.51308 -96.8215 0)
(1.03846 -116.816 0)
(-2.7661 -133.973 0)
(-6.70191 -146.988 0)
(-10.4655 -154.584 0)
(-13.5288 -155.029 0)
(-15.726 -150.408 0)
(-17.0797 -141.7 0)
(-17.4943 -129.709 0)
(-16.9478 -115.428 0)
(-15.5214 -99.9273 0)
(-13.3362 -84.2332 0)
(-10.5404 -69.223 0)
(-7.29566 -55.5408 0)
(-3.77929 -43.5249 0)
(-0.182209 -33.1798 0)
(3.29794 -24.1945 0)
(6.61575 -16.1151 0)
(9.96544 -8.22669 0)
(12.3493 0.00190956 0)
(14.2021 8.90946 0)
(15.2069 19.5974 0)
(15.2673 32.1682 0)
(14.4709 46.3861 0)
(12.9943 61.8331 0)
(10.9211 77.6045 0)
(8.36063 92.7303 0)
(5.44021 106.302 0)
(2.26769 117.472 0)
(-1.01373 125.491 0)
(-4.13562 129.599 0)
(-6.77913 128.994 0)
(-8.88006 125.386 0)
(-10.3718 119.145 0)
(-11.1711 110.792 0)
(-11.2593 100.899 0)
(-10.683 90.0558 0)
(-9.54155 78.7789 0)
(-7.98842 67.4628 0)
(-6.2112 56.3371 0)
(-4.37895 45.505 0)
(-2.60126 35.0418 0)
(-0.954835 24.9907 0)
(0.450063 15.5671 0)
(1.80301 7.65773 0)
(4.26382 -1.93129 0)
(6.03388 -17.8969 0)
(6.17618 -30.3145 0)
(6.02814 -43.3331 0)
(5.72763 -56.6774 0)
(5.12827 -69.9459 0)
(4.27196 -82.6714 0)
(3.2122 -94.34 0)
(1.99767 -104.422 0)
(0.6903 -112.384 0)
(-0.605881 -117.665 0)
(-1.6846 -119.403 0)
(-2.42502 -117.853 0)
(-2.82665 -113.915 0)
(-2.82501 -107.822 0)
(-2.38161 -99.9409 0)
(-1.5059 -90.7154 0)
(-0.235523 -80.6154 0)
(1.36308 -70.0775 0)
(3.20145 -59.4702 0)
(5.1857 -49.0665 0)
(7.21512 -39.0434 0)
(9.12834 -29.4847 0)
(10.8162 -20.3652 0)
(12.9738 -11.2604 0)
(14.7461 -1.37239 0)
(16.1006 8.22451 0)
(17.0686 17.7112 0)
(17.4817 27.2406 0)
(17.4564 36.8158 0)
(17.0673 46.3655 0)
(16.3691 55.7184 0)
(15.4173 64.6351 0)
(14.2511 72.8514 0)
(12.891 80.1076 0)
(11.3451 86.1638 0)
(9.62378 90.8064 0)
(7.76085 93.8268 0)
(5.80523 94.8077 0)
(3.90741 93.901 0)
(2.12922 91.4752 0)
(0.40716 87.6648 0)
(-0.429453 82.5945 0)
(-1.96575 76.4492 0)
(-2.63213 69.186 0)
(-3.14907 60.9759 0)
(-3.54756 52.1124 0)
(-3.75919 42.8 0)
(-3.77796 33.3717 0)
(-3.63415 24.09 0)
(-3.25916 15.2218 0)
(-2.39579 7.43147 0)
(-3.14835 -1.28656 0)
(-2.7445 -14.5198 0)
(-2.51532 -24.7937 0)
(-2.36803 -34.2597 0)
(-2.40155 -43.012 0)
(-2.61078 -51.0365 0)
(-2.94241 -58.2593 0)
(-3.36995 -64.5467 0)
(-3.89551 -69.7501 0)
(-4.52996 -73.7498 0)
(-5.2511 -76.4451 0)
(-5.97175 -77.588 0)
(-6.60757 -77.1643 0)
(-7.12606 -75.6163 0)
(-7.4809 -72.9642 0)
(-7.62928 -69.2792 0)
(-7.55819 -64.695 0)
(-7.26906 -59.3606 0)
(-6.77391 -53.4349 0)
(-6.09704 -47.0479 0)
(-5.28592 -40.3339 0)
(-4.39944 -33.437 0)
(-3.48884 -26.486 0)
(-2.58609 -19.5576 0)
(-1.65142 -12.8288 0)
(-0.673048 -6.78131 0)
(-0.707816 -1.47792 0)
(-0.303424 8.92546 0)
(-0.0288769 17.3498 0)
(0.190193 24.9874 0)
(-0.310117 32.2568 0)
(-0.615953 39.2947 0)
(-1.13681 45.911 0)
(-1.88722 51.9883 0)
(-2.76094 57.3223 0)
(-3.61375 61.689 0)
(-12.2294 -151.614 0)
(-15.2652 -147.863 0)
(-17.4517 -140.209 0)
(-18.6641 -129.336 0)
(-18.8394 -116.146 0)
(-18.027 -101.638 0)
(-16.3257 -86.7926 0)
(-13.8755 -72.4595 0)
(-10.8563 -59.2547 0)
(-7.48763 -47.4884 0)
(-4.01839 -37.1394 0)
(-0.734271 -27.9038 0)
(2.05159 -19.402 0)
(4.67809 -11.4227 0)
(7.61989 -2.67013 0)
(9.65998 7.13717 0)
(10.9994 18.9506 0)
(11.1322 32.5002 0)
(10.4897 47.5957 0)
(9.24828 63.6934 0)
(7.49933 79.9892 0)
(5.34104 95.5575 0)
(2.86231 109.462 0)
(0.161052 120.826 0)
(-2.6203 128.833 0)
(-5.19323 132.527 0)
(-7.2707 131.39 0)
(-8.82217 127.134 0)
(-9.77149 120.157 0)
(-10.0425 111.015 0)
(-9.62923 100.356 0)
(-8.58246 88.8316 0)
(-7.00067 77.0192 0)
(-5.02571 65.3718 0)
(-2.83853 54.1552 0)
(-0.647476 43.4224 0)
(1.33767 33.1241 0)
(2.83695 23.276 0)
(4.05809 14.0261 0)
(6.11617 5.29937 0)
(8.40206 -5.78576 0)
(10.0261 -17.8199 0)
(10.2319 -30.2453 0)
(10.0343 -43.0309 0)
(9.5306 -56.0415 0)
(8.65492 -68.9748 0)
(7.48045 -81.4069 0)
(6.06011 -92.8444 0)
(4.44303 -102.77 0)
(2.7041 -110.674 0)
(0.958035 -116.05 0)
(-0.5934 -118.129 0)
(-1.80729 -116.921 0)
(-2.66942 -113.409 0)
(-3.12109 -107.797 0)
(-3.1157 -100.418 0)
(-2.6514 -91.6784 0)
(-1.75772 -82.0072 0)
(-0.487756 -71.8148 0)
(1.09027 -61.4577 0)
(2.89181 -51.2034 0)
(4.80299 -41.2112 0)
(6.63563 -31.5428 0)
(8.10415 -22.2405 0)
(9.63626 -13.2434 0)
(11.6364 -3.33895 0)
(12.8282 6.90213 0)
(13.9419 16.9346 0)
(14.5701 26.9551 0)
(14.809 36.9423 0)
(14.7404 46.8222 0)
(14.3781 56.4401 0)
(13.7345 65.58 0)
(12.8301 74.0317 0)
(11.6772 81.544 0)
(10.2826 87.8621 0)
(8.67426 92.7444 0)
(6.92204 95.9266 0)
(5.12543 96.9328 0)
(3.41379 95.9313 0)
(1.85525 93.3365 0)
(0.447313 89.2316 0)
(-0.7107 83.8372 0)
(-1.53572 77.2633 0)
(-2.04399 69.6587 0)
(-2.34782 61.2956 0)
(-2.44684 52.3218 0)
(-2.59106 42.9386 0)
(-2.78744 33.3568 0)
(-2.5178 23.8395 0)
(-2.11844 14.7503 0)
(-1.25464 6.83348 0)
(-1.71763 -1.04303 0)
(-1.17716 -15.1978 0)
(-0.607249 -25.1022 0)
(-0.67834 -34.2542 0)
(-0.778095 -42.762 0)
(-1.06777 -50.6153 0)
(-1.51965 -57.7376 0)
(-2.05668 -63.9264 0)
(-2.71647 -69.0308 0)
(-3.44138 -72.9433 0)
(-4.27134 -75.5708 0)
(-5.13193 -76.7501 0)
(-5.92603 -76.4161 0)
(-6.62568 -75.0119 0)
(-7.1877 -72.5557 0)
(-7.56808 -69.0985 0)
(-7.74272 -64.7486 0)
(-7.70977 -59.6377 0)
(-7.48377 -53.9114 0)
(-7.08944 -47.7035 0)
(-6.54824 -41.1159 0)
(-5.89614 -34.2912 0)
(-5.1914 -27.3904 0)
(-4.46644 -20.5189 0)
(-3.62971 -13.8626 0)
(-2.62329 -7.72884 0)
(-3.015 -0.795786 0)
(-2.58728 8.29486 0)
(-2.24943 16.934 0)
(-2.07209 24.9742 0)
(-2.22292 32.6978 0)
(-2.6775 39.8838 0)
(-3.22559 46.6169 0)
(-3.83222 52.7731 0)
(-4.44534 58.1127 0)
(-5.04125 62.4826 0)
(-29.8597 1.79817 0)
(-32.8927 1.045 0)
(-33.7545 0.411483 0)
(-34.3971 -0.0611655 0)
(-33.9312 -0.496417 0)
(-32.3001 -0.884178 0)
(-30.4255 -1.19677 0)
(-27.0636 -1.33747 0)
(-24.5002 -1.40186 0)
(-21.2484 -1.5297 0)
(-17.8875 -1.5788 0)
(-14.6024 -1.52206 0)
(-11.6295 -1.39856 0)
(-8.94584 -1.25453 0)
(-6.62416 -1.10283 0)
(-4.67025 -0.949445 0)
(-3.0678 -0.799324 0)
(-1.79029 -0.653539 0)
(-0.803843 -0.512044 0)
(-0.0687204 -0.408132 0)
(0.458079 -0.311978 0)
(0.810009 -0.220936 0)
(1.0168 -0.137209 0)
(1.10452 -0.059953 0)
(1.09228 0.0124347 0)
(0.998602 0.0826445 0)
(0.846325 0.141001 0)
(0.671313 0.166165 0)
(0.424334 0.248759 0)
(0.155738 0.364146 0)
(-0.135437 0.448973 0)
(-0.429633 0.507026 0)
(-0.767066 0.526954 0)
(-1.16785 0.558796 0)
(-1.55653 0.614074 0)
(-1.918 0.571236 0)
(-2.30983 0.502317 0)
(-2.69153 0.452185 0)
(-3.04959 0.411126 0)
(-3.40052 0.376252 0)
(-3.74066 0.316585 0)
(-4.08328 0.248959 0)
(-4.44474 0.161625 0)
(-4.82212 0.10858 0)
(-5.18107 0.0806651 0)
(-5.48314 0.0677128 0)
(-5.69297 0.0535716 0)
(-5.80451 0.0279318 0)
(-5.79873 -0.0150676 0)
(-5.62248 -0.0843855 0)
(-5.21837 -0.193427 0)
(-4.47755 -0.359752 0)
(-3.28178 -0.652292 0)
(-1.78243 -1.28812 0)
(0.268513 -1.73707 0)
(2.75419 -1.97504 0)
(5.87265 -2.42932 0)
(9.69531 -3.00127 0)
(14.193 -3.33366 0)
(19.2946 -3.49462 0)
(24.8503 -3.44871 0)
(30.4123 -3.16721 0)
(35.6085 -2.66231 0)
(39.9855 -1.95644 0)
(43.129 -1.24797 0)
(44.3818 -0.705037 0)
(44.9601 0.219635 0)
(42.7084 1.42421 0)
(38.4955 2.60013 0)
(32.4493 3.64453 0)
(24.0406 4.74297 0)
(15.2056 4.81676 0)
(6.21249 4.48851 0)
(-2.91896 4.62498 0)
(-10.3804 4.05328 0)
(-17.5526 3.25871 0)
(-23.4823 2.42815 0)
(-27.7038 1.65138 0)
(-30.9753 0.902245 0)
(-32.5026 0.225669 0)
(-32.5719 -0.239706 0)
(-32.3073 -0.584919 0)
(-30.9451 -0.892419 0)
(-29.0084 -1.10077 0)
(-26.4079 -1.16766 0)
(-23.7468 -1.12007 0)
(-20.9627 -1.00947 0)
(-18.2203 -0.859625 0)
(-15.6127 -0.6898 0)
(-13.2039 -0.52121 0)
(-11.0353 -0.374408 0)
(-9.1272 -0.266638 0)
(-7.49353 -0.205401 0)
(-6.17323 -0.207448 0)
(-5.15769 -0.201627 0)
(-4.33588 -0.166803 0)
(-3.64155 -0.134404 0)
(-3.07359 -0.0945249 0)
(-2.65828 -0.130366 0)
(-2.37482 -0.198565 0)
(-2.14394 -0.226354 0)
(-1.92403 -0.21787 0)
(-1.62163 -0.285319 0)
(-1.11206 -0.393594 0)
(-0.381938 -0.574743 0)
(0.689886 -0.807481 0)
(2.06418 -0.896255 0)
(3.86076 -1.12043 0)
(5.98534 -1.44243 0)
(8.40357 -1.73734 0)
(11.0992 -1.92269 0)
(14.0152 -2.01066 0)
(17.0714 -1.98876 0)
(20.1285 -1.84235 0)
(22.9793 -1.57832 0)
(25.4032 -1.22482 0)
(27.2057 -0.821897 0)
(28.2631 -0.399171 0)
(28.4948 -0.0111414 0)
(27.808 0.275979 0)
(26.7147 0.602471 0)
(24.8807 1.07676 0)
(22.2476 1.63307 0)
(18.4253 2.13065 0)
(13.8735 2.42904 0)
(8.96209 2.56039 0)
(3.70211 2.50587 0)
(-1.1382 2.63346 0)
(-5.3035 2.19584 0)
(-9.33069 1.74958 0)
(-13.067 1.27671 0)
(-15.6627 1.02789 0)
(-17.3359 0.646706 0)
(-18.62 0.32412 0)
(-19.2343 0.0550024 0)
(-19.2788 -0.154132 0)
(-18.8499 -0.310919 0)
(-36.8666 5.42956 0)
(-39.8927 3.11547 0)
(-41.8642 1.059 0)
(-42.5959 -0.64661 0)
(-42.0549 -2.20847 0)
(-40.54 -3.56122 0)
(-38.2374 -4.67129 0)
(-35.191 -5.36519 0)
(-31.4702 -5.63383 0)
(-27.3487 -5.74131 0)
(-23.1596 -5.6553 0)
(-19.0739 -5.31024 0)
(-15.2096 -4.75348 0)
(-11.6889 -4.10196 0)
(-8.60549 -3.43189 0)
(-5.99953 -2.78778 0)
(-3.873 -2.19733 0)
(-2.20134 -1.67538 0)
(-0.937156 -1.22678 0)
(-0.0306328 -0.849326 0)
(0.566202 -0.537856 0)
(0.908662 -0.285022 0)
(1.0459 -0.0828132 0)
(1.0214 0.0736285 0)
(0.873893 0.187146 0)
(0.635038 0.260904 0)
(0.339616 0.291211 0)
(0.0342157 0.30314 0)
(-0.25935 0.309189 0)
(-0.539597 0.265258 0)
(-0.796712 0.170055 0)
(-1.02263 0.0818444 0)
(-1.21732 0.216003 0)
(-1.33573 0.238114 0)
(-1.47729 0.263357 0)
(-1.56736 0.244783 0)
(-1.50355 0.242981 0)
(-1.47625 0.248288 0)
(-1.33002 0.252407 0)
(-1.04565 0.278185 0)
(-0.673038 0.307801 0)
(-0.258844 0.42272 0)
(0.230635 0.656181 0)
(0.780995 0.737599 0)
(1.32902 0.752766 0)
(1.87013 0.576547 0)
(2.44608 0.357459 0)
(3.09727 0.111379 0)
(3.83977 -0.223618 0)
(4.70679 -0.656203 0)
(5.7642 -1.17873 0)
(7.08871 -1.77992 0)
(8.68285 -2.47808 0)
(10.6924 -3.39486 0)
(13.2455 -4.27415 0)
(16.1627 -5.0492 0)
(19.3918 -5.94886 0)
(22.925 -6.89783 0)
(26.7768 -7.83788 0)
(30.9255 -8.64246 0)
(35.384 -9.02261 0)
(39.8079 -8.68897 0)
(43.6492 -7.5278 0)
(46.3251 -5.53451 0)
(47.4274 -2.8524 0)
(46.5786 0.295252 0)
(42.692 3.64354 0)
(37.8496 6.85103 0)
(31.1139 9.80917 0)
(23.4168 12.367 0)
(15.3434 13.7507 0)
(6.51935 14.9619 0)
(-1.14155 15.4786 0)
(-8.98021 14.8317 0)
(-17.5235 12.9941 0)
(-24.6585 10.7844 0)
(-30.5742 8.37762 0)
(-35.1122 5.9495 0)
(-38.2663 3.57786 0)
(-40.1737 1.40216 0)
(-40.9105 -0.33998 0)
(-40.516 -1.72541 0)
(-39.3234 -2.92578 0)
(-37.495 -3.90265 0)
(-35.1981 -4.57227 0)
(-32.535 -4.93432 0)
(-29.613 -5.08229 0)
(-26.5406 -5.06957 0)
(-23.398 -4.92111 0)
(-20.2441 -4.6544 0)
(-17.1244 -4.28479 0)
(-14.073 -3.82634 0)
(-11.1243 -3.27523 0)
(-8.36554 -2.45242 0)
(-5.74792 -1.8074 0)
(-3.37119 -1.50689 0)
(-1.38355 -1.23168 0)
(0.368183 -1.0876 0)
(2.17721 -0.611603 0)
(3.7976 -0.296616 0)
(5.27428 -0.208108 0)
(6.44729 -0.297211 0)
(7.45694 -0.533581 0)
(8.56689 -0.901638 0)
(9.78255 -1.46107 0)
(11.2246 -2.27442 0)
(12.9131 -3.20463 0)
(14.7933 -3.75474 0)
(16.8913 -4.08895 0)
(19.153 -4.38664 0)
(21.5125 -4.62631 0)
(23.8999 -4.78536 0)
(26.2343 -4.81629 0)
(28.4141 -4.61746 0)
(30.3476 -4.05449 0)
(31.7333 -3.10927 0)
(32.3843 -1.87008 0)
(32.1231 -0.4525 0)
(31.0382 1.01743 0)
(29.0965 2.42153 0)
(25.7469 3.68233 0)
(21.6058 4.89627 0)
(17.0224 6.0795 0)
(12.5236 7.0953 0)
(7.87088 7.81571 0)
(3.06369 8.2469 0)
(-1.36636 8.22591 0)
(-5.99354 8.1987 0)
(-10.9937 7.40324 0)
(-15.2686 6.26818 0)
(-19.0222 4.9713 0)
(-22.0578 3.88063 0)
(-24.2911 2.64749 0)
(-25.8483 1.47561 0)
(-26.7565 0.426284 0)
(-27.0899 -0.463431 0)
(-26.8831 -1.19325 0)
(-35.2274 9.8417 0)
(-38.4161 6.28444 0)
(-40.6163 2.91784 0)
(-41.8348 -0.163753 0)
(-42.3441 -2.89046 0)
(-42.1492 -5.27223 0)
(-41.3022 -7.34269 0)
(-39.7557 -8.99227 0)
(-37.5283 -10.1322 0)
(-34.6974 -10.7835 0)
(-31.302 -10.9689 0)
(-27.6373 -10.6559 0)
(-23.8523 -9.92568 0)
(-20.0822 -8.91051 0)
(-16.4554 -7.7334 0)
(-13.0761 -6.49627 0)
(-10.0196 -5.27901 0)
(-7.33228 -4.13948 0)
(-5.03418 -3.11483 0)
(-3.12406 -2.22539 0)
(-1.58057 -1.47514 0)
(-0.370144 -0.858835 0)
(0.551417 -0.363428 0)
(1.23605 0.0315033 0)
(1.72076 0.345914 0)
(2.03886 0.592874 0)
(2.25214 0.745259 0)
(2.37083 0.767931 0)
(2.40022 0.782436 0)
(2.38114 0.93308 0)
(2.36722 0.990585 0)
(2.24798 0.979274 0)
(2.08843 0.943944 0)
(1.97688 0.921521 0)
(1.83361 0.867235 0)
(1.70525 0.795445 0)
(1.5577 0.647472 0)
(1.37344 0.437285 0)
(1.26337 0.184307 0)
(1.29302 -0.10665 0)
(1.39972 -0.415247 0)
(1.57305 -0.524501 0)
(1.93836 -1.00522 0)
(2.53412 -1.22604 0)
(3.3549 -1.35091 0)
(4.39173 -1.49246 0)
(5.64628 -1.65783 0)
(7.14533 -1.80761 0)
(8.86949 -1.96309 0)
(10.7351 -2.18571 0)
(12.6181 -2.56873 0)
(14.404 -3.21588 0)
(16.0346 -4.17275 0)
(17.5445 -5.32346 0)
(19.067 -6.6111 0)
(20.7795 -7.97061 0)
(22.8307 -9.31508 0)
(25.3214 -10.6043 0)
(28.2608 -11.7781 0)
(31.6045 -12.6739 0)
(34.9827 -12.9354 0)
(37.9729 -12.0831 0)
(40.0979 -9.82653 0)
(40.8091 -6.27928 0)
(40.2032 -1.89239 0)
(38.452 2.97279 0)
(35.7402 7.92872 0)
(32.1055 12.6325 0)
(27.5172 16.886 0)
(21.9714 20.413 0)
(15.2614 23.1576 0)
(7.66057 25.0193 0)
(-0.662811 26.0002 0)
(-9.2086 23.9946 0)
(-16.8999 21.334 0)
(-23.561 18.0172 0)
(-29.1741 14.2139 0)
(-33.5836 10.2476 0)
(-36.6917 6.38415 0)
(-38.516 2.8391 0)
(-39.1911 -0.186481 0)
(-38.8051 -2.63879 0)
(-37.7201 -4.57495 0)
(-36.0105 -6.04674 0)
(-33.7776 -7.06251 0)
(-31.1545 -7.65039 0)
(-28.2868 -7.88679 0)
(-25.314 -7.85991 0)
(-22.3615 -7.64318 0)
(-19.537 -7.30916 0)
(-16.9218 -6.93298 0)
(-14.5589 -6.57002 0)
(-12.4287 -6.23469 0)
(-10.4185 -5.91526 0)
(-8.43588 -5.55594 0)
(-6.51569 -5.07936 0)
(-4.68608 -4.51241 0)
(-2.93457 -4.05418 0)
(-1.18201 -3.95868 0)
(0.945129 -3.99868 0)
(3.36616 -3.66788 0)
(5.98371 -2.65317 0)
(8.7784 -2.92828 0)
(11.5712 -3.19626 0)
(14.2509 -3.37184 0)
(16.676 -3.64534 0)
(18.6711 -4.09459 0)
(20.2356 -4.72743 0)
(21.576 -5.48629 0)
(22.8356 -6.22487 0)
(24.1137 -6.799 0)
(25.5494 -7.11541 0)
(27.1637 -7.09648 0)
(28.8342 -6.60336 0)
(30.1565 -5.4536 0)
(30.7916 -3.65344 0)
(30.5908 -1.50891 0)
(29.7375 0.764582 0)
(28.2234 3.10434 0)
(26.1205 5.45947 0)
(23.5677 7.62441 0)
(20.6925 9.44007 0)
(17.4713 10.8872 0)
(13.8035 12.0779 0)
(9.57225 13.1028 0)
(4.75152 13.9662 0)
(-0.0695105 14.4946 0)
(-4.9264 13.6088 0)
(-9.82539 12.45 0)
(-14.0323 10.8695 0)
(-17.5534 8.95506 0)
(-20.3472 6.96194 0)
(-22.394 4.96903 0)
(-23.7745 3.08179 0)
(-24.548 1.3742 0)
(-24.8061 -0.0860911 0)
(-24.5985 -1.2723 0)
(-24.4533 14.0957 0)
(-26.91 9.59256 0)
(-28.6305 5.20588 0)
(-29.7001 1.45708 0)
(-30.3644 -1.79171 0)
(-30.6779 -4.77235 0)
(-30.6034 -7.53582 0)
(-30.0566 -9.91903 0)
(-29.0424 -11.7694 0)
(-27.6488 -13.0535 0)
(-26.1171 -13.6954 0)
(-24.4438 -13.716 0)
(-22.67 -13.2314 0)
(-20.8151 -12.3674 0)
(-18.904 -11.2407 0)
(-16.9691 -9.95374 0)
(-15.0456 -8.59355 0)
(-13.1703 -7.23155 0)
(-11.3788 -5.92408 0)
(-9.70307 -4.71316 0)
(-8.16682 -3.62581 0)
(-6.78573 -2.67679 0)
(-5.5703 -1.87421 0)
(-4.51752 -1.21681 0)
(-3.61294 -0.687625 0)
(-2.84289 -0.275822 0)
(-2.14331 -0.0549007 0)
(-1.59494 0.234939 0)
(-1.18601 0.459141 0)
(-0.770765 0.368716 0)
(-0.371858 0.378048 0)
(0.0539911 0.46971 0)
(0.422462 0.568457 0)
(0.786994 0.525922 0)
(1.24722 0.455078 0)
(1.76101 0.257057 0)
(2.33039 0.458733 0)
(2.95678 0.424003 0)
(3.60873 0.0588019 0)
(4.28469 -0.0744129 0)
(4.97826 -0.196397 0)
(5.70224 -0.354824 0)
(6.44536 -0.540416 0)
(7.16418 -0.772078 0)
(7.81119 -1.08397 0)
(8.3534 -1.53963 0)
(8.87311 -2.17993 0)
(9.46473 -2.98907 0)
(10.1855 -3.897 0)
(11.158 -4.80949 0)
(12.5036 -5.64261 0)
(14.2596 -6.34788 0)
(16.3417 -6.94308 0)
(18.5667 -7.52961 0)
(20.722 -8.28157 0)
(22.6375 -9.35909 0)
(24.2473 -10.8329 0)
(25.5801 -12.6076 0)
(26.8746 -14.3839 0)
(28.3132 -15.7136 0)
(29.9118 -15.9644 0)
(31.1928 -14.4156 0)
(31.661 -10.9451 0)
(31.4822 -6.25112 0)
(30.7802 -0.951668 0)
(29.7073 4.72546 0)
(28.0143 10.6171 0)
(25.4074 16.3841 0)
(21.8559 21.8063 0)
(17.2875 26.6421 0)
(11.8643 30.5953 0)
(6.08537 33.3678 0)
(-0.945046 34.1338 0)
(-8.32679 32.4465 0)
(-14.4656 29.2835 0)
(-20.0418 25.0843 0)
(-25.0082 20.1509 0)
(-29.1084 14.7501 0)
(-32.19 9.27685 0)
(-34.2771 4.29582 0)
(-35.4427 0.184975 0)
(-35.9026 -3.13417 0)
(-35.7095 -5.97597 0)
(-34.7962 -8.31096 0)
(-33.2963 -10.0234 0)
(-31.2581 -11.1351 0)
(-28.7732 -11.7358 0)
(-25.9355 -11.9039 0)
(-22.8331 -11.6882 0)
(-19.5626 -11.138 0)
(-16.2234 -10.326 0)
(-12.9313 -9.34709 0)
(-9.81816 -8.31581 0)
(-7.00144 -7.33005 0)
(-4.56967 -6.45635 0)
(-2.5688 -5.68915 0)
(-0.956448 -5.05754 0)
(0.42142 -4.76671 0)
(1.69067 -4.8375 0)
(2.71754 -5.03739 0)
(3.45088 -5.42777 0)
(4.31126 -5.93261 0)
(5.48911 -6.47496 0)
(6.82625 -6.97646 0)
(8.48453 -7.38794 0)
(10.6444 -7.65179 0)
(13.2448 -7.7594 0)
(16.1019 -7.73696 0)
(18.9789 -7.66729 0)
(21.5966 -7.62876 0)
(23.7151 -7.69276 0)
(25.2192 -7.88646 0)
(26.2423 -8.0054 0)
(26.9393 -7.5762 0)
(27.1337 -6.09428 0)
(26.9961 -3.64779 0)
(26.4477 -0.900445 0)
(25.5843 1.89007 0)
(24.377 4.77024 0)
(22.7177 7.65181 0)
(20.6024 10.1553 0)
(18.0631 12.3062 0)
(15.0559 14.2918 0)
(11.5529 16.2181 0)
(7.63469 17.9534 0)
(3.59596 19.2431 0)
(-1.04608 19.9672 0)
(-5.7448 19.1454 0)
(-9.49603 17.4023 0)
(-12.6677 15.004 0)
(-15.2826 12.2375 0)
(-17.2987 9.35652 0)
(-18.8098 6.55592 0)
(-19.8444 3.93575 0)
(-20.3887 1.59828 0)
(-20.4682 -0.332083 0)
(-20.1805 -1.87621 0)
(-12.4486 16.6583 0)
(-12.9254 11.5086 0)
(-12.9899 6.32903 0)
(-12.9079 1.9977 0)
(-12.7482 -1.47774 0)
(-12.5084 -4.70293 0)
(-12.1646 -7.72401 0)
(-11.782 -10.3896 0)
(-11.3588 -12.4728 0)
(-10.9163 -13.8644 0)
(-10.4323 -14.5219 0)
(-9.98695 -14.5315 0)
(-9.63663 -14.0471 0)
(-9.35413 -13.2025 0)
(-9.10693 -12.1174 0)
(-8.86748 -10.8893 0)
(-8.61181 -9.5955 0)
(-8.32334 -8.29562 0)
(-7.99391 -7.03496 0)
(-7.62349 -5.84752 0)
(-7.21897 -4.75754 0)
(-6.78974 -3.77842 0)
(-6.34782 -2.91719 0)
(-5.91244 -2.17862 0)
(-5.49484 -1.55803 0)
(-5.09902 -1.05462 0)
(-4.76807 -0.666908 0)
(-4.49181 -0.362705 0)
(-4.215 -0.138199 0)
(-4.00693 -0.00367825 0)
(-3.90296 0.0557143 0)
(-3.82986 0.0781548 0)
(-3.72423 0.0819875 0)
(-3.60185 0.028287 0)
(-3.48284 -0.104819 0)
(-3.37233 -0.281584 0)
(-3.22213 -0.485768 0)
(-2.9503 -0.788087 0)
(-2.56748 -1.12243 0)
(-2.10194 -1.46131 0)
(-1.45125 -1.80639 0)
(-0.54028 -2.14102 0)
(0.651661 -2.5106 0)
(2.12596 -2.9145 0)
(3.88115 -2.88963 0)
(5.90733 -3.10515 0)
(8.08803 -3.49921 0)
(10.2801 -3.7858 0)
(12.3236 -4.18096 0)
(14.0702 -4.7878 0)
(15.4352 -5.6703 0)
(16.438 -6.83566 0)
(17.2151 -8.20051 0)
(17.9858 -9.60773 0)
(18.9565 -10.8957 0)
(20.1951 -11.9921 0)
(21.5667 -12.9503 0)
(22.7949 -13.9286 0)
(23.6053 -15.0941 0)
(24.0922 -16.264 0)
(24.0606 -16.3626 0)
(23.6418 -14.488 0)
(22.9285 -10.6493 0)
(22.0751 -5.67502 0)
(21.5084 -0.320372 0)
(20.8966 5.72709 0)
(19.6507 12.2858 0)
(17.9482 18.9579 0)
(15.5999 25.3829 0)
(12.6379 31.2035 0)
(9.22454 36.076 0)
(5.49077 39.5899 0)
(0.994611 40.4194 0)
(-3.94294 38.743 0)
(-8.68139 35.2801 0)
(-13.091 30.4864 0)
(-17.0871 24.9003 0)
(-20.5568 18.9175 0)
(-23.42 12.8067 0)
(-25.6153 6.70498 0)
(-26.8889 1.48536 0)
(-27.9745 -2.57425 0)
(-28.9758 -5.81381 0)
(-29.408 -8.6949 0)
(-29.2682 -11.0225 0)
(-28.756 -12.7404 0)
(-27.8027 -13.8371 0)
(-26.5669 -14.456 0)
(-25.0431 -14.655 0)
(-23.2642 -14.5275 0)
(-21.2264 -14.1494 0)
(-18.8891 -13.5438 0)
(-16.238 -12.7199 0)
(-13.3024 -11.6839 0)
(-10.1591 -10.4656 0)
(-6.92367 -9.18483 0)
(-3.70095 -8.12285 0)
(-0.516043 -7.4723 0)
(2.55922 -6.91669 0)
(5.26898 -6.19894 0)
(7.57417 -5.65244 0)
(9.42695 -5.42614 0)
(10.6864 -5.70337 0)
(11.312 -6.43152 0)
(11.467 -7.41863 0)
(11.3136 -8.51836 0)
(11.1032 -9.59612 0)
(11.1345 -10.5079 0)
(11.7115 -11.1282 0)
(12.9363 -11.2921 0)
(14.5764 -10.9464 0)
(16.3119 -10.3074 0)
(18.0282 -9.54389 0)
(19.7223 -8.28993 0)
(20.9256 -6.04178 0)
(21.0305 -3.12956 0)
(20.644 -0.118421 0)
(20.1914 3.0189 0)
(19.6081 6.35623 0)
(18.4968 9.66053 0)
(16.6092 12.7228 0)
(14.1712 15.506 0)
(11.2761 18.032 0)
(8.08722 20.2871 0)
(4.85076 22.1912 0)
(1.67529 23.535 0)
(-1.61627 23.7355 0)
(-4.61874 22.6465 0)
(-7.08189 20.5118 0)
(-9.1853 17.6378 0)
(-10.9999 14.4358 0)
(-12.5599 11.2202 0)
(-13.8923 8.11053 0)
(-14.973 5.06375 0)
(-15.6927 2.10314 0)
(-15.9916 -0.386513 0)
(-16.212 -2.24872 0)
(-5.38773 16.223 0)
(-3.84339 10.7984 0)
(-2.21415 5.40566 0)
(-1.19264 1.19038 0)
(-0.3572 -2.4852 0)
(0.766929 -5.30351 0)
(1.97184 -8.45139 0)
(3.05142 -10.9566 0)
(3.83202 -12.8394 0)
(4.3057 -14.1645 0)
(4.56857 -14.8107 0)