/*--------------------------------*- C++ -*----------------------------------*\
| =========                 |                                                 |
| \\      /  F ield         | OpenFOAM: The Open Source CFD Toolbox           |
|  \\    /   O peration     | Version:  2206                                  |
|   \\  /    A nd           | Website:  www.openfoam.com                      |
|    \\/     M anipulation  |                                                 |
\*---------------------------------------------------------------------------*/
FoamFile
{
    version     2.0;
    format      ascii;
    arch        "LSB;label=32;scalar=64";
    class       surfaceScalarField;
    location    "19.5";
    object      phi;
}
// * * * * * * * * * * * * * * * * * * * * * * * * * * * * * * * * * * * * * //

dimensions      [0 3 -1 0 0 0 0];

oriented        oriented;

internalField   nonuniform List<scalar> 
9447
(
1.07347e-05
-3.72545e-06
3.70207e-06
1.07551e-05
-3.7276e-06
3.70723e-06
1.07743e-05
-3.67318e-06
3.65395e-06
1.07925e-05
-3.54328e-06
3.52516e-06
1.08125e-05
-3.34099e-06
3.32094e-06
1.08358e-05
-3.06173e-06
3.03847e-06
1.08628e-05
-2.70567e-06
2.67866e-06
1.08935e-05
-2.27807e-06
2.24735e-06
1.09275e-05
-1.78944e-06
1.75541e-06
1.0964e-05
-1.25533e-06
1.21889e-06
1.10007e-05
-6.96654e-07
6.59945e-07
1.10348e-05
-1.40351e-07
1.06267e-07
1.10638e-05
3.93838e-07
-4.22875e-07
1.10854e-05
8.90918e-07
-9.12531e-07
1.10975e-05
1.33925e-06
-1.35136e-06
1.10985e-05
1.73112e-06
-1.73213e-06
1.10874e-05
2.06293e-06
-2.05177e-06
1.10634e-05
2.33493e-06
-2.31101e-06
1.10266e-05
2.55048e-06
-2.51368e-06
1.09771e-05
2.71534e-06
-2.66574e-06
1.09147e-05
2.83636e-06
-2.77405e-06
1.08395e-05
2.92024e-06
-2.84505e-06
1.07516e-05
2.97245e-06
-2.88451e-06
1.06526e-05
2.99786e-06
-2.89881e-06
1.05452e-05
3.00112e-06
-2.89377e-06
1.04326e-05
2.98394e-06
-2.87132e-06
1.03181e-05
2.94397e-06
-2.82953e-06
1.02055e-05
2.87589e-06
-2.76329e-06
1.00984e-05
2.77278e-06
-2.66567e-06
1.00002e-05
2.62786e-06
-2.52961e-06
9.91368e-06
2.43601e-06
-2.3495e-06
9.84123e-06
2.1948e-06
-2.12235e-06
9.78465e-06
1.90498e-06
-1.84839e-06
9.74523e-06
1.57042e-06
-1.53101e-06
9.72371e-06
1.19798e-06
-1.17645e-06
9.72051e-06
7.9692e-07
-7.93716e-07
9.73486e-06
3.78035e-07
-3.92386e-07
9.7642e-06
-4.59767e-08
1.66344e-08
9.80629e-06
-4.62504e-07
4.20419e-07
9.85886e-06
-8.63211e-07
8.10639e-07
9.91933e-06
-1.24102e-06
1.18055e-06
9.98507e-06
-1.59024e-06
1.5245e-06
1.00537e-05
-1.90673e-06
1.83812e-06
1.01231e-05
-2.18766e-06
2.11823e-06
1.01916e-05
-2.43149e-06
2.36296e-06
1.02578e-05
-2.63747e-06
2.57128e-06
1.03205e-05
-2.80566e-06
2.74299e-06
1.03787e-05
-2.93666e-06
2.87849e-06
1.04315e-05
-3.03163e-06
2.97879e-06
1.04792e-05
-3.09323e-06
3.04555e-06
1.05236e-05
-3.1239e-06
3.07947e-06
1.05674e-05
-3.11757e-06
3.07377e-06
1.06089e-05
-3.06144e-06
3.01993e-06
1.06479e-05
-2.95529e-06
2.91628e-06
1.06852e-05
-2.8003e-06
2.76304e-06
1.07214e-05
-2.59694e-06
2.5608e-06
1.07567e-05
-2.34629e-06
2.31095e-06
1.07913e-05
-2.05075e-06
2.01616e-06
1.0825e-05
-1.71435e-06
1.68064e-06
1.08575e-05
-1.3429e-06
1.31034e-06
1.08885e-05
-9.44077e-07
9.13139e-07
1.09171e-05
-5.27809e-07
4.99213e-07
1.09418e-05
-1.07511e-07
8.27666e-08
1.09615e-05
3.0428e-07
-3.23981e-07
1.09749e-05
6.98582e-07
-7.11951e-07
1.09807e-05
1.06755e-06
-1.07333e-06
1.09778e-05
1.40488e-06
-1.40196e-06
1.09653e-05
1.70611e-06
-1.69362e-06
1.09427e-05
1.96861e-06
-1.946e-06
1.09097e-05
2.19154e-06
-2.15857e-06
1.08665e-05
2.37547e-06
-2.33223e-06
1.08133e-05
2.52202e-06
-2.46884e-06
1.07506e-05
2.63334e-06
-2.57065e-06
1.06787e-05
2.71153e-06
-2.63966e-06
1.05976e-05
2.75778e-06
-2.6767e-06
1.0508e-05
2.7721e-06
-2.68249e-06
1.04118e-05
2.75578e-06
-2.65961e-06
1.03112e-05
2.71079e-06
-2.61013e-06
1.02083e-05
2.63787e-06
-2.53496e-06
1.01054e-05
2.53701e-06
-2.43414e-06
1.00048e-05
2.4077e-06
-2.30708e-06
9.90843e-06
2.24944e-06
-2.15309e-06
9.81808e-06
2.06212e-06
-1.97177e-06
9.73512e-06
1.84641e-06
-1.76345e-06
9.66061e-06
1.60392e-06
-1.52941e-06
9.59529e-06
1.3373e-06
-1.27198e-06
9.53962e-06
1.05019e-06
-9.94522e-07
9.49379e-06
7.47097e-07
-7.01271e-07
9.45778e-06
4.3321e-07
-3.97202e-07
9.43135e-06
1.14726e-07
-8.82879e-08
9.41408e-06
-2.01495e-07
2.18759e-07
9.40558e-06
-5.10586e-07
5.1909e-07
9.40532e-06
-8.07768e-07
8.08029e-07
9.41255e-06
-1.08834e-06
1.08111e-06
9.42631e-06
-1.34809e-06
1.33432e-06
9.44564e-06
-1.58358e-06
1.56426e-06
9.46961e-06
-1.79206e-06
1.76809e-06
9.49723e-06
-1.97117e-06
1.94355e-06
9.52752e-06
-2.1192e-06
2.08891e-06
9.55956e-06
-2.23525e-06
2.2032e-06
9.59258e-06
-2.3194e-06
2.28639e-06
9.62602e-06
-2.37274e-06
2.3393e-06
9.66021e-06
-2.39659e-06
2.3624e-06
9.69574e-06
-2.38543e-06
2.3499e-06
9.73173e-06
-2.33493e-06
2.29893e-06
9.76764e-06
-2.24689e-06
2.21099e-06
9.80337e-06
-2.12402e-06
2.08828e-06
9.83911e-06
-1.9691e-06
1.93337e-06
9.87508e-06
-1.78499e-06
1.74901e-06
9.91155e-06
-1.57477e-06
1.5383e-06
9.94873e-06
-1.34189e-06
1.30471e-06
9.98682e-06
-1.09027e-06
1.05218e-06
1.00259e-05
-8.24329e-07
7.85243e-07
1.00659e-05
-5.49066e-07
5.09102e-07
1.01062e-05
-2.70555e-07
2.30257e-07
1.01462e-05
4.84313e-09
-4.48633e-08
1.01852e-05
2.72677e-07
-3.11648e-07
1.02222e-05
5.28685e-07
-5.65749e-07
1.02564e-05
7.69102e-07
-8.03326e-07
1.02869e-05
9.90759e-07
-1.02123e-06
1.03128e-05
1.19113e-06
-1.21699e-06
1.03333e-05
1.36846e-06
-1.38899e-06
1.0348e-05
1.52165e-06
-1.53636e-06
1.03567e-05
1.65015e-06
-1.65884e-06
1.03594e-05
1.75402e-06
-1.75675e-06
1.03564e-05
1.83386e-06
-1.83084e-06
1.03485e-05
1.89014e-06
-1.88218e-06
1.03364e-05
1.92424e-06
-1.91222e-06
1.03197e-05
1.93796e-06
-1.92127e-06
1.02969e-05
1.9293e-06
-1.90651e-06
1.02706e-05
1.89433e-06
-1.86795e-06
1.02428e-05
1.83412e-06
-1.80635e-06
1.02152e-05
1.75022e-06
-1.72267e-06
1.01894e-05
1.64349e-06
-1.61763e-06
1.01666e-05
1.51465e-06
-1.49185e-06
1.01479e-05
1.36475e-06
-1.34612e-06
1.01343e-05
1.19535e-06
-1.18168e-06
1.00842e-06
-1.00019e-06
1.06064e-05
-3.72869e-06
1.06019e-05
-3.72309e-06
1.0592e-05
-3.66332e-06
1.05843e-05
-3.53554e-06
1.05808e-05
-3.33751e-06
1.05831e-05
-3.06397e-06
1.0592e-05
-2.71456e-06
1.06081e-05
-2.29419e-06
1.06316e-05
-1.81293e-06
1.0662e-05
-1.28571e-06
1.06974e-05
-7.321e-07
1.07349e-05
-1.77887e-07
1.07719e-05
3.56908e-07
1.08053e-05
8.57447e-07
1.08326e-05
1.31196e-06
1.08514e-05
1.71237e-06
1.08597e-05
2.0546e-06
1.08563e-05
2.33836e-06
1.08402e-05
2.56651e-06
1.08112e-05
2.74439e-06
1.0769e-05
2.87856e-06
1.07136e-05
2.97566e-06
1.06448e-05
3.04119e-06
1.05638e-05
3.07889e-06
1.04733e-05
3.09164e-06
1.03766e-05
3.0806e-06
1.02773e-05
3.04327e-06
1.0179e-05
2.9742e-06
1.00852e-05
2.8666e-06
9.99901e-06
2.71405e-06
9.92316e-06
2.51185e-06
9.86001e-06
2.25796e-06
9.81148e-06
1.9535e-06
9.77895e-06
1.60296e-06
9.76317e-06
1.21376e-06
9.76429e-06
7.95795e-07
9.78149e-06
3.6084e-07
9.81232e-06
-7.6806e-08
9.85457e-06
-5.04759e-07
9.90574e-06
-9.14375e-07
9.96302e-06
-1.2983e-06
1.00237e-05
-1.65087e-06
1.00851e-05
-1.96823e-06
1.01455e-05
-2.24796e-06
1.0203e-05
-2.48903e-06
1.02567e-05
-2.69114e-06
1.03057e-05
-2.85471e-06
1.03496e-05
-2.98052e-06
1.03874e-05
-3.06945e-06
1.04187e-05
-3.1245e-06
1.04444e-05
-3.14967e-06
1.04703e-05
-3.14345e-06
1.04927e-05
-3.0838e-06
1.05123e-05
-2.9749e-06
1.05307e-05
-2.81875e-06
1.0549e-05
-2.61523e-06
1.05678e-05
-2.36505e-06
1.05873e-05
-2.07031e-06
1.06078e-05
-1.73485e-06
1.06292e-05
-1.3643e-06
1.06513e-05
-9.66155e-07
1.06735e-05
-5.49999e-07
1.06944e-05
-1.28398e-07
1.07127e-05
2.85921e-07
1.07272e-05
6.84137e-07
1.07363e-05
1.05845e-06
1.07387e-05
1.40249e-06
1.07332e-05
1.71161e-06
1.07189e-05
1.98293e-06
1.06951e-05
2.21526e-06
1.06618e-05
2.40885e-06
1.06188e-05
2.56496e-06
1.05666e-05
2.68552e-06
1.05056e-05
2.77257e-06
1.04357e-05
2.82763e-06
1.03572e-05
2.8506e-06
1.02719e-05
2.84115e-06
1.01817e-05
2.80093e-06
1.0089e-05
2.7306e-06
9.99592e-06
2.6301e-06
9.90455e-06
2.49907e-06
9.81679e-06
2.3372e-06
9.73426e-06
2.14465e-06
9.65828e-06
1.9224e-06
9.58984e-06
1.67236e-06
9.52966e-06
1.39747e-06
9.47821e-06
1.10165e-06
9.4357e-06
7.89608e-07
9.40211e-06
4.668e-07
9.37715e-06
1.39678e-07
9.36039e-06
-1.84733e-07
9.35143e-06
-5.01625e-07
9.34989e-06
-8.06222e-07
9.35516e-06
-1.09361e-06
9.36636e-06
-1.35929e-06
9.38243e-06
-1.59966e-06
9.40245e-06
-1.81208e-06
9.42543e-06
-1.99414e-06
9.45037e-06
-2.14414e-06
9.47642e-06
-2.2613e-06
9.50282e-06
-2.3458e-06
9.52901e-06
-2.39893e-06
9.55537e-06
-2.42295e-06
9.58312e-06
-2.41318e-06
9.61118e-06
-2.36299e-06
9.63896e-06
-2.27467e-06
9.6666e-06
-2.15166e-06
9.69445e-06
-1.99695e-06
9.72287e-06
-1.81341e-06
9.75223e-06
-1.60413e-06
9.78285e-06
-1.3725e-06
9.81501e-06
-1.12243e-06
9.8489e-06
-8.58227e-07
9.88453e-06
-5.84691e-07
9.92152e-06
-3.07545e-07
9.9593e-06
-3.29435e-08
9.99717e-06
2.34815e-07
1.00343e-05
4.91591e-07
1.00696e-05
7.33712e-07
1.01024e-05
9.58004e-07
1.01316e-05
1.1619e-06
1.01565e-05
1.34356e-06
1.01766e-05
1.50164e-06
1.01914e-05
1.63532e-06
1.0201e-05
1.74445e-06
1.02055e-05
1.82936e-06
1.02054e-05
1.89023e-06
1.02014e-05
1.92822e-06
1.01943e-05
1.94502e-06
1.0181e-05
1.94263e-06
1.01638e-05
1.91151e-06
1.01461e-05
1.85186e-06
1.0129e-05
1.76734e-06
1.01137e-05
1.65876e-06
1.01014e-05
1.52698e-06
1.00929e-05
1.37323e-06
1.00887e-05
1.19958e-06
1.00834e-06
1.05031e-05
-3.70858e-06
1.04728e-05
-3.69277e-06
1.04381e-05
-3.62857e-06
1.04068e-05
-3.50426e-06
1.03811e-05
-3.31185e-06
1.03631e-05
-3.04599e-06
1.03544e-05
-2.70585e-06
1.03562e-05
-2.29591e-06
1.03689e-05
-1.8257e-06
1.03925e-05
-1.30932e-06
1.04256e-05
-7.65157e-07
1.0465e-05
-2.17316e-07
1.0508e-05
3.13964e-07
1.05512e-05
8.14196e-07
1.05915e-05
1.27163e-06
1.06259e-05
1.67797e-06
1.06518e-05
2.02874e-06
1.06671e-05
2.32309e-06
1.06702e-05
2.56335e-06
1.06604e-05
2.75425e-06
1.06371e-05
2.90182e-06
1.06005e-05
3.01229e-06
1.05507e-05
3.09093e-06
1.04886e-05
3.14104e-06
1.04161e-05
3.16412e-06
1.03367e-05
3.15998e-06
1.02539e-05
3.12615e-06
1.01709e-05
3.05714e-06
1.00913e-05
2.94624e-06
1.0018e-05
2.78736e-06
9.95374e-06
2.57608e-06
9.90096e-06
2.31074e-06
9.86147e-06
1.99299e-06
9.83654e-06
1.62789e-06
9.82686e-06
1.22344e-06
9.83246e-06
7.90192e-07
9.85243e-06
3.40879e-07
9.88446e-06
-1.0884e-07
9.92633e-06
-5.46633e-07
9.97542e-06
-9.63458e-07
1.00289e-05
-1.35175e-06
1.00839e-05
-1.70588e-06
1.01379e-05
-2.02223e-06
1.01887e-05
-2.29883e-06
1.02349e-05
-2.5352e-06
1.02755e-05
-2.73171e-06
1.03101e-05
-2.88931e-06
1.03388e-05
-3.00925e-06
1.03616e-05
-3.09227e-06
1.03782e-05
-3.14109e-06
1.03884e-05
-3.1599e-06
1.03955e-05
-3.15049e-06
1.03981e-05
-3.08642e-06
1.03988e-05
-2.97565e-06
1.03994e-05
-2.81932e-06
1.04009e-05
-2.61669e-06
1.0404e-05
-2.36819e-06
1.04094e-05
-2.0757e-06
1.04174e-05
-1.74288e-06
1.04283e-05
-1.37517e-06
1.0442e-05
-9.79848e-07
1.04581e-05
-5.66068e-07
1.04752e-05
-1.45529e-07
1.04921e-05
2.69019e-07
1.05073e-05
6.6895e-07
1.05192e-05
1.04657e-06
1.05262e-05
1.39549e-06
1.05269e-05
1.71092e-06
1.052e-05
1.98977e-06
1.05047e-05
2.23053e-06
1.04805e-05
2.43309e-06
1.04471e-05
2.59832e-06
1.04049e-05
2.72776e-06
1.03542e-05
2.82325e-06
1.02954e-05
2.88646e-06
1.02283e-05
2.91774e-06
1.01539e-05
2.9155e-06
1.00746e-05
2.88026e-06
9.99241e-06
2.81277e-06
9.90951e-06
2.713e-06
9.82787e-06
2.58072e-06
9.74921e-06
2.41586e-06
9.67499e-06
2.21887e-06
9.60638e-06
1.991e-06
9.54428e-06
1.73445e-06
9.48936e-06
1.45239e-06
9.4421e-06
1.14892e-06
9.40279e-06
8.28919e-07
9.37157e-06
4.98013e-07
9.34838e-06
1.62867e-07
9.33291e-06
-1.69259e-07
9.32442e-06
-4.93133e-07
9.32208e-06
-8.03883e-07
9.32508e-06
-1.09661e-06
9.33291e-06
-1.36713e-06
9.34539e-06
-1.61213e-06
9.3616e-06
-1.82829e-06
9.38016e-06
-2.0127e-06
9.40004e-06
-2.16403e-06
9.42051e-06
-2.28176e-06
9.4409e-06
-2.36619e-06
9.46049e-06
-2.41852e-06
9.47921e-06
-2.44167e-06
9.4997e-06
-2.43367e-06
9.52029e-06
-2.38357e-06
9.54042e-06
-2.2948e-06
9.56054e-06
-2.17178e-06
9.58116e-06
-2.01757e-06
9.60274e-06
-1.835e-06
9.62567e-06
-1.62705e-06
9.65029e-06
-1.39713e-06
9.67695e-06
-1.14908e-06
9.7059e-06
-8.87186e-07
9.73728e-06
-6.1607e-07
9.77086e-06
-3.41117e-07
9.80615e-06
-6.82388e-08
9.84251e-06
1.9846e-07
9.87913e-06
4.54965e-07
9.91512e-06
6.97727e-07
9.94954e-06
9.23583e-07
9.98149e-06
1.12995e-06
1.00102e-05
1.31488e-06
1.00349e-05
1.47687e-06
1.00553e-05
1.61491e-06
1.00712e-05
1.72858e-06
1.00826e-05
1.81796e-06
1.00898e-05
1.88301e-06
1.00934e-05
1.9246e-06
1.0094e-05
1.94447e-06
1.00902e-05
1.94642e-06
1.00832e-05
1.91852e-06
1.00762e-05
1.85886e-06
1.00701e-05
1.77339e-06
1.00658e-05
1.66314e-06
1.00637e-05
1.52905e-06
1.00643e-05
1.37261e-06
1.00682e-05
1.19569e-06
1.00068e-06
1.04276e-05
1.03736e-05
1.03173e-05
1.0264e-05
1.02174e-05
1.01802e-05
1.01548e-05
1.01427e-05
1.01448e-05
1.01612e-05
1.01909e-05
-7.94839e-07
1.02307e-05
-2.57137e-07
1.02777e-05
2.66957e-07
1.03285e-05
7.63444e-07
1.03794e-05
1.22074e-06
1.04269e-05
1.63043e-06
1.04679e-05
1.98771e-06
1.04998e-05
2.29123e-06
1.05204e-05
2.54276e-06
1.05283e-05
2.74634e-06
1.05228e-05
2.90729e-06
1.0504e-05
3.0311e-06
1.04726e-05
3.12235e-06
1.04297e-05
3.18398e-06
1.03766e-05
3.21718e-06
1.03156e-05
3.22096e-06
1.02499e-05
3.19183e-06
1.0183e-05
3.12407e-06
1.01183e-05
3.01091e-06
1.0059e-05
2.84667e-06
1.00077e-05
2.62743e-06
9.96641e-06
2.352e-06
9.93684e-06
2.02256e-06
9.92012e-06
1.64461e-06
9.91691e-06
1.22665e-06
9.9272e-06
7.79903e-07
9.94991e-06
3.1817e-07
9.98281e-06
-1.41739e-07
1.00237e-05
-5.87485e-07
1.00698e-05
-1.0096e-06
1.01184e-05
-1.40036e-06
1.01667e-05
-1.75417e-06
1.02121e-05
-2.06764e-06
1.02526e-05
-2.33933e-06
1.02868e-05
-2.56942e-06
1.03142e-05
-2.75905e-06
1.03345e-05
-2.90968e-06
1.03482e-05
-3.02288e-06
1.03558e-05
-3.09993e-06
1.03583e-05
-3.14353e-06
1.03553e-05
-3.15693e-06
1.03424e-05
-3.13761e-06
1.03262e-05
-3.07018e-06
1.03094e-05
-2.9589e-06
1.02934e-05
-2.80332e-06
1.02793e-05
-2.60253e-06
1.02679e-05
-2.35678e-06
1.026e-05
-2.06787e-06
1.02564e-05
-1.73923e-06
1.02573e-05
-1.37609e-06
1.02629e-05
-9.85427e-07
1.02728e-05
-5.75947e-07
1.02858e-05
-1.58617e-07
1.03008e-05
2.54094e-07
1.0316e-05
6.5369e-07
1.03299e-05
1.03265e-06
1.03408e-05
1.38466e-06
1.03469e-05
1.70484e-06
1.03468e-05
1.98989e-06
1.03393e-05
2.23798e-06
1.03238e-05
2.44864e-06
1.02997e-05
2.62234e-06
1.02673e-05
2.76023e-06
1.02267e-05
2.86378e-06
1.01787e-05
2.93446e-06
1.01233e-05
2.9732e-06
1.00605e-05
2.97829e-06
9.99253e-06
2.9482e-06
9.92152e-06
2.88378e-06
9.84939e-06
2.78513e-06
9.77786e-06
2.65224e-06
9.7084e-06
2.48532e-06
9.64222e-06
2.28505e-06
9.58031e-06
2.05292e-06
9.52347e-06
1.79128e-06
9.47247e-06
1.50339e-06
9.42799e-06
1.1934e-06
9.39063e-06
8.66278e-07
9.36088e-06
5.27765e-07
9.33891e-06
1.8484e-07
9.32443e-06
-1.54785e-07
9.31689e-06
-4.8559e-07
9.31513e-06
-8.02127e-07
9.31825e-06
-1.09973e-06
9.32565e-06
-1.37452e-06
9.33609e-06
-1.62258e-06
9.34867e-06
-1.84086e-06
9.3628e-06
-2.02683e-06
9.37775e-06
-2.17897e-06
9.39289e-06
-2.2969e-06
9.40765e-06
-2.38095e-06
9.42128e-06
-2.43215e-06
9.43338e-06
-2.45378e-06
9.447e-06
-2.44729e-06
9.46025e-06
-2.39682e-06
9.47311e-06
-2.30766e-06
9.48617e-06
-2.18485e-06
9.50003e-06
-2.03143e-06
9.51525e-06
-1.85021e-06
9.53225e-06
-1.64405e-06
9.55136e-06
-1.41624e-06
9.57292e-06
-1.17064e-06
9.59728e-06
-9.11537e-07
9.62462e-06
-6.43418e-07
9.65484e-06
-3.71333e-07
9.68753e-06
-1.00925e-07
9.72211e-06
1.63878e-07
9.75783e-06
4.19241e-07
9.79387e-06
6.61693e-07
9.82933e-06
8.88123e-07
9.86333e-06
1.09595e-06
9.89505e-06
1.28316e-06
9.92381e-06
1.44811e-06
9.94919e-06
1.58953e-06
9.97093e-06
1.70685e-06
9.98888e-06
1.8e-06
1.00031e-05
1.86882e-06
1.00138e-05
1.91386e-06
1.00213e-05
1.93696e-06
1.00281e-05
1.9397e-06
1.00335e-05
1.91313e-06
1.00376e-05
1.85467e-06
1.00418e-05
1.76922e-06
1.0047e-05
1.65797e-06
1.00537e-05
1.52237e-06
1.00623e-05
1.36393e-06
1.00736e-05
1.18443e-06
9.86464e-07
9.99678e-06
1.00357e-05
1.00851e-05
1.01413e-05
1.02004e-05
1.02587e-05
1.03125e-05
1.03586e-05
1.03945e-05
1.04182e-05
1.04289e-05
1.04267e-05
1.04129e-05
1.0389e-05
1.03563e-05
1.0315e-05
1.02669e-05
1.02167e-05
1.01681e-05
1.01241e-05
1.00868e-05
1.00581e-05
1.00394e-05
1.00317e-05
1.00355e-05
1.00508e-05
1.00763e-05
1.01098e-05
1.01491e-05
1.01917e-05
1.02346e-05
1.02754e-05
1.03115e-05
1.0341e-05
1.03627e-05
1.03759e-05
1.0381e-05
1.03789e-05
1.0371e-05
1.03583e-05
1.03394e-05
1.03101e-05
1.02779e-05
1.02454e-05
1.0214e-05
1.01853e-05
1.01605e-05
1.01405e-05
1.01262e-05
1.01181e-05
1.01164e-05
1.01207e-05
1.013e-05
1.01429e-05
1.01579e-05
1.01732e-05
1.0187e-05
1.01976e-05
1.02034e-05
1.0203e-05
1.01955e-05
1.01801e-05
1.01567e-05
1.01259e-05
1.00885e-05
1.00449e-05
9.99438e-06
9.93853e-06
9.87907e-06
9.81765e-06
9.75577e-06
9.69472e-06
9.63567e-06
9.57972e-06
9.52788e-06
9.48111e-06
9.44027e-06
9.40611e-06
9.37906e-06
9.35908e-06
9.3458e-06
9.33857e-06
9.33675e-06
9.33931e-06
9.34484e-06
9.35233e-06
9.36103e-06
9.37067e-06
9.38127e-06
9.39221e-06
9.40237e-06
9.41106e-06
9.41807e-06
9.42572e-06
9.432e-06
9.43769e-06
9.44384e-06
9.45114e-06
9.4602e-06
9.47148e-06
9.48538e-06
9.50216e-06
9.52217e-06
9.54569e-06
9.57264e-06
9.60269e-06
9.63542e-06
9.67014e-06
9.7061e-06
9.74245e-06
9.77838e-06
9.81317e-06
9.84609e-06
9.87662e-06
9.9044e-06
9.9293e-06
9.95114e-06
9.96979e-06
9.98555e-06
1.00009e-05
1.00157e-05
1.00288e-05
1.00414e-05
1.00547e-05
1.00695e-05
1.00862e-05
1.0105e-05
-2.03821e-06
-3.05467e-07
-1.70299e-06
-3.35215e-07
-1.35263e-06
-3.50357e-07
-9.96454e-07
-3.56179e-07
-6.41452e-07
-3.55002e-07
-2.95417e-07
-3.46035e-07
3.44271e-08
-3.29844e-07
3.42094e-07
-3.07667e-07
6.25099e-07
-2.83005e-07
8.82479e-07
-2.5738e-07
1.11244e-06
-2.29964e-07
1.31415e-06
-2.01702e-07
1.48845e-06
-1.74304e-07
1.63729e-06
-1.48836e-07
1.76295e-06
-1.25668e-07
1.86787e-06
-1.04919e-07
1.95443e-06
-8.65608e-08
2.02493e-06
-7.0494e-08
2.08153e-06
-5.65976e-08
2.12621e-06
-4.4684e-08
2.16064e-06
-3.4427e-08
2.1863e-06
-2.5665e-08
2.20455e-06
-1.82477e-08
2.21659e-06
-1.20384e-08
2.22352e-06
-6.9372e-09
2.22644e-06
-2.91105e-09
2.22649e-06
-5.4998e-11
2.22411e-06
2.38128e-09
2.21999e-06
4.11448e-09
2.21502e-06
4.97904e-09
2.20988e-06
5.1402e-09
2.20478e-06
5.10011e-09
2.20015e-06
4.62325e-09
2.19703e-06
3.11761e-09
2.19586e-06
1.17463e-09
2.19635e-06
-4.8844e-10
2.19885e-06
-2.50002e-09
2.2033e-06
-4.4557e-09
2.20968e-06
-6.37437e-09
2.21822e-06
-8.54459e-09
2.22898e-06
-1.07548e-08
2.24184e-06
-1.28596e-08
2.25722e-06
-1.53807e-08
2.27534e-06
-1.81259e-08
2.29618e-06
-2.08357e-08
2.31957e-06
-2.33918e-08
2.3449e-06
-2.53265e-08
2.37152e-06
-2.66242e-08
2.39878e-06
-2.72599e-08
2.42576e-06
-2.69805e-08
2.45117e-06
-2.54051e-08
2.47322e-06
-2.20539e-08
2.48955e-06
-1.63324e-08
2.49661e-06
-7.06041e-09
2.49221e-06
4.40704e-09
2.47323e-06
1.89773e-08
2.4357e-06
3.75303e-08
2.37497e-06
6.07273e-08
2.28585e-06
8.91227e-08
2.16339e-06
1.22462e-07
2.00329e-06
1.60102e-07
1.80307e-06
2.00216e-07
1.56286e-06
2.40213e-07
1.28646e-06
2.76393e-07
9.80589e-07
3.05875e-07
6.54377e-07
3.26212e-07
3.20385e-07
3.33991e-07
-8.01088e-09
3.28396e-07
-3.13968e-07
3.05957e-07
-5.80652e-07
2.66684e-07
-7.92333e-07
2.11681e-07
-9.37702e-07
1.45369e-07
-1.00988e-06
7.21795e-08
-1.01148e-06
1.59563e-09
-9.53131e-07
-5.83457e-08
-8.36819e-07
-1.16312e-07
-6.71884e-07
-1.64936e-07
-4.69501e-07
-2.02383e-07
-2.40973e-07
-2.28527e-07
2.42575e-09
-2.43399e-07
2.50557e-07
-2.48131e-07
4.95829e-07
-2.45273e-07
7.32383e-07
-2.36553e-07
9.5506e-07
-2.22677e-07
1.15988e-06
-2.04819e-07
1.34451e-06
-1.84629e-07
1.50814e-06
-1.63634e-07
1.65091e-06
-1.42765e-07
1.7736e-06
-1.22696e-07
1.87756e-06
-1.03955e-07
1.96447e-06
-8.69165e-08
2.03627e-06
-7.17981e-08
2.09496e-06
-5.86863e-08
2.14264e-06
-4.76861e-08
2.18184e-06
-3.91932e-08
2.21449e-06
-3.2652e-08
2.24157e-06
-2.70858e-08
2.2641e-06
-2.25264e-08
2.28313e-06
-1.90282e-08
2.30001e-06
-1.68763e-08
2.31531e-06
-1.53075e-08
2.32921e-06
-1.39012e-08
2.34166e-06
-1.24429e-08
2.35143e-06
-9.7758e-09
2.35664e-06
-5.20855e-09
2.35546e-06
1.1788e-09
2.34581e-06
9.65303e-09
2.32438e-06
2.14327e-08
2.2888e-06
3.5573e-08
2.23704e-06
5.17597e-08
2.16715e-06
6.98896e-08
2.07752e-06
8.96335e-08
1.96695e-06
1.10574e-07
1.83493e-06
1.32022e-07
1.68212e-06
1.52801e-07
1.51074e-06
1.71389e-07
1.32436e-06
1.86374e-07
1.12775e-06
1.96613e-07
9.26252e-07
2.01497e-07
7.25425e-07
2.00827e-07
5.29954e-07
1.95471e-07
3.44493e-07
1.85461e-07
1.74768e-07
1.69725e-07
2.77868e-08
1.46981e-07
-8.98932e-08
1.1768e-07
-1.73608e-07
8.37144e-08
-2.19728e-07
4.61202e-08
-2.2757e-07
7.84171e-09
-2.04421e-07
-2.31483e-08
-1.49933e-07
-5.44878e-08
-6.80942e-08
-8.18392e-08
3.54285e-08
-1.03523e-07
1.56027e-07
-1.20599e-07
2.88345e-07
-1.32317e-07
4.27297e-07
-1.38952e-07
5.68322e-07
-1.41025e-07
-1.39265e-07
-4.14829e-07
-6.65384e-07
-2.8735e-08
-7.21309e-07
3.77837e-07
-7.56928e-07
7.94076e-07
-7.72418e-07
1.20914e-06
-7.70071e-07
1.61518e-06
-7.52071e-07
2.00585e-06
-7.20516e-07
2.37588e-06
-6.777e-07
2.71968e-06
-6.26797e-07
3.03312e-06
-5.70829e-07
3.3151e-06
-5.11938e-07
3.56566e-06
-4.52265e-07
3.78552e-06
-3.94162e-07
3.97625e-06
-3.3957e-07
4.14025e-06
-2.89661e-07
4.28033e-06
-2.45004e-07
4.39952e-06
-2.05753e-07
4.50079e-06
-1.71762e-07
4.58688e-06
-1.42685e-07
4.66025e-06
-1.18055e-07
4.72317e-06
-9.73441e-08
4.77756e-06
-8.00567e-08
4.82504e-06
-6.57313e-08
4.86697e-06
-5.39607e-08
4.90442e-06
-4.43871e-08
4.93821e-06
-3.67096e-08
4.96875e-06
-3.05887e-08
4.99653e-06
-2.54005e-08
5.02165e-06
-2.10033e-08
5.04415e-06
-1.75208e-08
5.0641e-06
-1.48082e-08
5.08143e-06
-1.22344e-08
5.096e-06
-9.94659e-09
5.10786e-06
-8.74015e-09
5.1167e-06
-7.66655e-09
5.12267e-06
-6.46296e-09
5.12519e-06
-5.01459e-09
5.12444e-06
-3.70438e-09
5.12032e-06
-2.25579e-09
5.11214e-06
-3.65533e-10
5.09933e-06
2.05441e-09
5.08172e-06
4.75434e-09
5.05975e-06
6.58157e-09
5.03305e-06
8.57877e-09
5.0019e-06
1.0316e-08
4.96671e-06
1.17912e-08
4.92766e-06
1.37309e-08
4.88455e-06
1.64857e-08
4.83704e-06
2.02491e-08
4.78457e-06
2.54913e-08
4.72618e-06
3.29818e-08
4.66039e-06
4.37333e-08
4.58524e-06
5.88241e-08
4.49895e-06
7.92201e-08
4.39797e-06
1.05397e-07
4.27936e-06
1.37587e-07
4.14083e-06
1.76057e-07
3.98011e-06
2.2145e-07
3.79489e-06
2.74336e-07
3.58247e-06
3.34888e-07
3.34012e-06
4.02454e-07
3.06619e-06
4.74138e-07
2.76222e-06
5.44185e-07
2.43354e-06
6.05077e-07
2.09006e-06
6.49353e-07
1.7454e-06
6.70868e-07
1.41545e-06
6.63946e-07
1.1166e-06
6.27246e-07
8.61136e-07
5.61422e-07
6.59595e-07
4.68226e-07
5.17673e-07
3.53604e-07
4.4031e-07
2.22732e-07
4.32107e-07
8.0382e-08
4.83332e-07
-4.96293e-08
6.0135e-07
-1.76364e-07
7.75862e-07
-2.90824e-07
9.97832e-07
-3.86906e-07
1.25711e-06
-4.61658e-07
1.5429e-06
-5.14317e-07
1.84524e-06
-5.45746e-07
2.15527e-06
-5.58153e-07
2.4648e-06
-5.5481e-07
2.76716e-06
-5.38907e-07
3.05732e-06
-5.12837e-07
3.3314e-06
-4.78903e-07
3.58636e-06
-4.39585e-07
3.81986e-06
-3.97136e-07
4.03041e-06
-3.53315e-07
4.21716e-06
-3.09448e-07
4.37978e-06
-2.66569e-07
4.51833e-06
-2.25467e-07
4.63322e-06
-1.86688e-07
4.72517e-06
-1.50643e-07
4.79526e-06
-1.17778e-07
4.84491e-06
-8.88358e-08
4.87588e-06
-6.36262e-08
4.89046e-06
-4.16682e-08
4.89086e-06
-2.29191e-08
4.8782e-06
-6.37294e-09
4.85314e-06
8.18677e-09
4.81678e-06
2.1047e-08
4.77074e-06
3.21405e-08
4.71777e-06
4.05337e-08
4.6572e-06
5.07847e-08
4.58849e-06
6.3501e-08
4.51047e-06
7.92004e-08
4.42131e-06
9.88162e-08
4.31963e-06
1.23115e-07
4.20396e-06
1.51241e-07
4.07318e-06
1.82545e-07
3.92654e-06
2.1652e-07
3.76381e-06
2.52373e-07
3.58516e-06
2.89219e-07
3.39124e-06
3.25946e-07
3.18336e-06
3.60673e-07
2.9643e-06
3.9045e-07
2.73854e-06
4.12138e-07
2.51159e-06
4.2356e-07
2.28943e-06
4.23655e-07
2.0784e-06
4.11857e-07
1.88612e-06
3.87757e-07
1.71969e-06
3.51888e-07
1.58349e-06
3.05929e-07
1.4791e-06
2.51367e-07
1.40689e-06
1.89892e-07
1.36861e-06
1.21989e-07
1.36478e-06
4.9951e-08
1.39314e-06
-2.0516e-08
1.45915e-06
-8.91567e-08
1.55826e-06
-1.53597e-07
1.68661e-06
-2.10186e-07
1.84e-06
-2.5692e-07
2.01263e-06
-2.93225e-07
2.19925e-06
-3.18941e-07
2.39477e-06
-3.34469e-07
2.59448e-06
-3.40739e-07
-3.39063e-07
1.56124e-06
-9.95162e-07
1.91959e-06
-1.07966e-06
2.29683e-06
-1.13416e-06
2.68434e-06
-1.15993e-06
3.07485e-06
-1.16058e-06
3.46262e-06
-1.13984e-06
3.84247e-06
-1.10036e-06
4.20939e-06
-1.04462e-06
4.55845e-06
-9.75858e-07
4.88533e-06
-8.9771e-07
5.18688e-06
-8.13489e-07
5.46117e-06
-7.26552e-07
5.70733e-06
-6.40328e-07
5.92538e-06
-5.5762e-07
6.11611e-06
-4.8039e-07
6.28097e-06
-4.0986e-07
6.42188e-06
-3.46666e-07
6.54109e-06
-2.90975e-07
6.64102e-06
-2.42606e-07
6.72409e-06
-2.0113e-07
6.7927e-06
-1.65949e-07
6.84903e-06
-1.36394e-07
6.89506e-06
-1.11757e-07
6.93244e-06
-9.1343e-08
6.96259e-06
-7.45342e-08
6.98673e-06
-6.08476e-08
7.00583e-06
-4.96886e-08
7.02027e-06
-3.98393e-08
7.03109e-06
-3.18281e-08
7.03878e-06
-2.52093e-08
7.0434e-06
-1.94277e-08
7.04562e-06
-1.44609e-08
7.04597e-06
-1.02893e-08
7.04423e-06
-6.99888e-09
7.04051e-06
-3.94602e-09
7.03491e-06
-8.65332e-10
7.02708e-06
2.81294e-09
7.01762e-06
5.75508e-09
7.00631e-06
9.05519e-09
6.99229e-06
1.36577e-08
6.97517e-06
1.91695e-08
6.95453e-06
2.54004e-08
6.92931e-06
3.17959e-08
6.89818e-06
3.97049e-08
6.85978e-06
4.87167e-08
6.81287e-06
5.87095e-08
6.75639e-06
7.02105e-08
6.68913e-06
8.37389e-08
6.61006e-06
9.93189e-08
6.51855e-06
1.17008e-07
6.41461e-06
1.36916e-07
6.29898e-06
1.59363e-07
6.17275e-06
1.85058e-07
6.03693e-06
2.15043e-07
5.89184e-06
2.50487e-07
5.73676e-06
2.92664e-07
5.56981e-06
3.43006e-07
5.38836e-06
4.02901e-07
5.18938e-06
4.73309e-07
4.97005e-06
5.54225e-07
4.72878e-06
6.43724e-07
4.46626e-06
7.36654e-07
4.1866e-06
8.23842e-07
3.89754e-06
8.94139e-07
3.60849e-06
9.38401e-07
3.32847e-06
9.5089e-07
3.06454e-06
9.27882e-07
2.82396e-06
8.67825e-07
2.6141e-06
7.71275e-07
2.44208e-06
6.4025e-07
2.31701e-06
4.78669e-07
2.24657e-06
2.93174e-07
2.23587e-06
9.10813e-08
2.28911e-06
-1.02866e-07
2.40188e-06
-2.89132e-07
2.56592e-06
-4.5487e-07
2.7731e-06
-5.94082e-07
3.01474e-06
-7.03297e-07
3.28161e-06
-7.81192e-07
3.56439e-06
-8.28527e-07
3.8544e-06
-8.48158e-07
4.14416e-06
-8.44577e-07
4.42787e-06
-8.22612e-07
4.70107e-06
-7.86039e-07
4.96011e-06
-7.37945e-07
5.20206e-06
-6.81532e-07
5.42484e-06
-6.19921e-07
5.6273e-06
-5.55767e-07
5.80904e-06
-4.91193e-07
5.97041e-06
-4.27933e-07
6.11228e-06
-3.67345e-07
6.23592e-06
-3.10322e-07
6.34257e-06
-2.5729e-07
6.4331e-06
-2.08313e-07
6.50761e-06
-1.63346e-07
6.56626e-06
-1.22276e-07
6.60975e-06
-8.5157e-08
6.63871e-06
-5.1879e-08
6.65343e-06
-2.10932e-08
6.6527e-06
8.9206e-09
6.63439e-06
3.93542e-08
6.59707e-06
6.9459e-08
6.53993e-06
9.76739e-08
6.46287e-06
1.27849e-07
6.36656e-06
1.59807e-07
6.25267e-06
1.93097e-07
6.12382e-06
2.27665e-07
5.98325e-06
2.63681e-07
5.83306e-06
3.01431e-07
5.67425e-06
3.41357e-07
5.50701e-06
3.83757e-07
5.33073e-06
4.28654e-07
5.1443e-06
4.75648e-07
4.94705e-06
5.23197e-07
4.74006e-06
5.67662e-07
4.52705e-06
6.03459e-07
4.31337e-06
6.25821e-07
4.10408e-06
6.32854e-07
3.90361e-06
6.24123e-07
3.71616e-06
5.99307e-07
3.54516e-06
5.5875e-07
3.39309e-06
5.03965e-07
3.26228e-06
4.36737e-07
3.15542e-06
3.58227e-07
3.07649e-06
2.68817e-07
3.02872e-06
1.69765e-07
3.01746e-06
6.1208e-08
3.04154e-06
-4.45915e-08
3.10242e-06
-1.50041e-07
3.19609e-06
-2.47271e-07
3.31816e-06
-3.3225e-07
3.46366e-06
-4.0242e-07
3.62719e-06
-4.56754e-07
3.80361e-06
-4.95365e-07
3.98819e-06
-5.19042e-07
4.17658e-06
-5.29137e-07
-5.27706e-07
3.70971e-06
-1.27128e-06
4.00709e-06
-1.37704e-06
4.318e-06
-1.44507e-06
4.63489e-06
-1.47683e-06
4.95259e-06
-1.47828e-06
5.26762e-06
-1.45488e-06
5.57655e-06
-1.40928e-06
5.87576e-06
-1.34383e-06
6.16197e-06
-1.26207e-06
6.43256e-06
-1.1683e-06
6.686e-06
-1.06693e-06
6.92177e-06
-9.62324e-07
7.13979e-06
-8.58344e-07
7.34011e-06
-7.57939e-07
7.52294e-06
-6.63227e-07
7.68868e-06
-5.75597e-07
7.83785e-06
-4.95838e-07
7.97115e-06
-4.24271e-07
8.0894e-06
-3.60858e-07
8.19357e-06
-3.05299e-07
8.28471e-06
-2.57092e-07
8.36394e-06
-2.1562e-07
8.43239e-06
-1.80214e-07
8.4912e-06
-1.50148e-07
8.54135e-06
-1.24689e-07
8.58373e-06
-1.03223e-07
8.61901e-06
-8.49724e-08
8.64804e-06
-6.88627e-08
8.67181e-06
-5.56018e-08
8.69074e-06
-4.41438e-08
8.70475e-06
-3.34287e-08
8.71385e-06
-2.35656e-08
8.71838e-06
-1.4816e-08
8.7184e-06
-7.0175e-09
8.71357e-06
8.75708e-10
8.70402e-06
8.68759e-09
8.6893e-06
1.75349e-08
8.66923e-06
2.58273e-08
8.64359e-06
3.46904e-08
8.61229e-06
4.49603e-08
8.57531e-06
5.61475e-08
8.53254e-06
6.817e-08
8.48338e-06
8.0953e-08
8.42824e-06
9.48524e-08
8.36689e-06
1.10067e-07
8.30011e-06
1.25481e-07
8.22829e-06
1.4203e-07
8.15084e-06
1.61193e-07
8.06715e-06
1.83012e-07
7.97592e-06
2.08234e-07
7.87527e-06
2.37567e-07
7.76303e-06
2.71599e-07
7.63741e-06
3.10677e-07
7.4976e-06
3.5486e-07
7.34398e-06
4.04106e-07
7.17799e-06
4.58651e-07
7.00167e-06
5.19323e-07
6.81704e-06
5.87536e-07
6.62533e-06
6.65016e-07
6.42656e-06
7.52999e-07
6.21985e-06
8.50438e-07
6.00585e-06
9.50648e-07
5.78825e-06
1.04145e-06
5.57199e-06
1.1104e-06
5.36094e-06
1.14945e-06
5.15763e-06
1.1542e-06
4.96508e-06
1.12043e-06
4.78828e-06
1.04463e-06
4.63359e-06
9.25962e-07
4.50746e-06
7.66388e-07
4.41552e-06
5.70611e-07
4.36322e-06
3.45465e-07
4.35224e-06
1.02069e-07
4.39116e-06
-1.41786e-07
4.47355e-06
-3.71527e-07
4.59542e-06
-5.76734e-07
4.75184e-06
-7.50506e-07
4.93713e-06
-8.88582e-07
5.1448e-06
-9.88863e-07
5.3682e-06
-1.05193e-06
5.60079e-06
-1.08075e-06
5.83729e-06
-1.08108e-06
6.07374e-06
-1.05905e-06
6.30616e-06
-1.01847e-06
6.53066e-06
-9.62446e-07
6.74387e-06
-8.94732e-07
6.94292e-06
-8.18972e-07
7.12558e-06
-7.38429e-07
7.2901e-06
-6.55714e-07
7.43526e-06
-5.7309e-07
7.56037e-06
-4.92462e-07
7.66536e-06
-4.1531e-07
7.7508e-06
-3.42731e-07
7.81793e-06
-2.75441e-07
7.86846e-06
-2.13878e-07
7.9045e-06
-1.58321e-07
7.92817e-06
-1.08821e-07
7.94085e-06
-6.45561e-08
7.94322e-06
-2.34727e-08
7.93626e-06
1.58851e-08
7.92167e-06
5.39475e-08
7.89964e-06
9.14848e-08
7.86784e-06
1.29476e-07
7.82582e-06
1.69867e-07
7.7719e-06
2.13725e-07
7.70352e-06
2.61478e-07
7.6181e-06
3.13088e-07
7.51381e-06
3.6797e-07
7.39007e-06