/*--------------------------------*- C++ -*----------------------------------*\
| =========                 |                                                 |
| \\      /  F ield         | OpenFOAM: The Open Source CFD Toolbox           |
|  \\    /   O peration     | Version:  2206                                  |
|   \\  /    A nd           | Website:  www.openfoam.com                      |
|    \\/     M anipulation  |                                                 |
\*---------------------------------------------------------------------------*/
FoamFile
{
    version     2.0;
    format      ascii;
    arch        "LSB;label=32;scalar=64";
    class       volVectorField;
    location    "18.9";
    object      ddt0(U);
}
// * * * * * * * * * * * * * * * * * * * * * * * * * * * * * * * * * * * * * //

dimensions      [0 1 -2 0 0 0 0];

internalField   nonuniform List<vector> 
1815
(
(1.54404 -21.5329 0)
(-2.77521 -21.2421 0)
(-6.78747 -19.9228 0)
(-10.3778 -17.6715 0)
(-13.4414 -14.6398 0)
(-15.932 -11.0271 0)
(-17.7991 -7.08196 0)
(-19.1005 -3.09055 0)
(-20.0002 0.85928 0)
(-20.4904 4.78962 0)
(-20.514 8.55941 0)
(-20.0044 11.9458 0)
(-18.8673 14.7316 0)
(-16.9225 16.6671 0)
(-14.3515 17.8801 0)
(-11.2276 18.3776 0)
(-7.73337 18.1697 0)
(-4.03523 17.3329 0)
(-0.255227 15.9676 0)
(3.60594 14.1366 0)
(7.4349 11.7744 0)
(10.8418 8.97784 0)
(13.743 6.22263 0)
(15.9765 3.61138 0)
(17.4766 1.13118 0)
(18.2792 -1.20848 0)
(18.4013 -3.38059 0)
(17.8164 -5.3604 0)
(16.7074 -7.19316 0)
(15.1326 -8.89731 0)
(13.1617 -10.4899 0)
(10.8444 -11.9626 0)
(8.22664 -13.2416 0)
(5.3738 -14.1853 0)
(2.4098 -14.6283 0)
(-0.530077 -14.4788 0)
(-3.34388 -13.7232 0)
(-5.93131 -12.3866 0)
(-8.19845 -10.5349 0)
(-10.0899 -8.27373 0)
(-11.5839 -5.73793 0)
(-12.6547 -3.08571 0)
(-13.3823 -0.458523 0)
(-13.806 2.13321 0)
(-13.8788 4.65113 0)
(-13.5289 6.9369 0)
(-12.6662 8.80737 0)
(-11.3335 10.2134 0)
(-9.60355 11.1883 0)
(-7.55226 11.7505 0)
(-5.29824 11.8875 0)
(-2.95513 11.5939 0)
(-0.601967 10.9121 0)
(1.7614 9.89662 0)
(4.1089 8.55671 0)
(6.2765 6.88191 0)
(8.13796 5.04946 0)
(9.65797 3.23275 0)
(10.7777 1.47276 0)
(11.4766 -0.224192 0)
(11.7529 -1.83245 0)
(11.5451 -3.30249 0)
(10.9505 -4.6256 0)
(10.0139 -5.79778 0)
(8.77931 -6.82007 0)
(7.28922 -7.69433 0)
(5.58832 -8.39423 0)
(3.76012 -8.83868 0)
(1.90148 -8.93394 0)
(0.0970707 -8.64554 0)
(-1.61333 -7.99087 0)
(-3.20256 -6.99755 0)
(-4.62183 -5.69511 0)
(-5.78754 -4.15827 0)
(-6.74167 -2.55029 0)
(-7.48794 -0.901628 0)
(-8.01784 0.789619 0)
(-8.31406 2.47649 0)
(-8.36449 4.08797 0)
(-8.16302 5.55117 0)
(-7.69236 6.79228 0)
(-6.89509 7.69365 0)
(-5.82376 8.25431 0)
(-4.55263 8.48068 0)
(-3.14318 8.37234 0)
(-1.66938 7.95708 0)
(-0.195013 7.27673 0)
(1.2435 6.38488 0)
(2.65517 5.32194 0)
(4.01992 4.07257 0)
(5.16018 2.65829 0)
(6.10443 1.2996 0)
(6.82154 0.0216941 0)
(7.28128 -1.19799 0)
(7.46279 -2.34455 0)
(7.3487 -3.38253 0)
(6.95894 -4.29514 0)
(6.34014 -5.08255 0)
(5.52851 -5.72655 0)
(4.5614 -6.21453 0)
(3.46862 -6.53482 0)
(2.28666 -6.66688 0)
(1.07411 -6.59298 0)
(-0.128423 -6.31574 0)
(-1.28573 -5.84364 0)
(-2.36091 -5.19078 0)
(-3.32326 -4.37963 0)
(-4.15087 -3.43895 0)
(-4.82962 -2.40352 0)
(-5.34932 -1.31778 0)
(-5.70285 -0.240349 0)
(-5.89016 0.778003 0)
(-5.90621 1.7211 0)
(-5.72627 2.57652 0)
(-5.34648 3.29894 0)
(-4.76169 3.84748 0)
(-4.00728 4.21363 0)
(-3.10956 4.39419 0)
(-2.04603 4.40666 0)
(-1.23836 4.48087 0)
(0.332876 4.00147 0)
(2.16106 -16.9913 0)
(-2.29518 -16.8613 0)
(-6.65268 -15.7765 0)
(-10.7406 -13.8932 0)
(-14.3939 -11.3535 0)
(-17.5041 -8.34455 0)
(-20.0159 -5.05266 0)
(-21.9161 -1.60211 0)
(-23.198 1.91388 0)
(-23.7831 5.33844 0)
(-23.5247 8.42194 0)
(-22.2015 10.878 0)
(-20.0387 12.6934 0)
(-17.1096 13.871 0)
(-13.5843 14.4394 0)
(-9.6723 14.4414 0)
(-5.58043 13.9644 0)
(-1.3886 13.084 0)
(2.89469 11.735 0)
(6.91459 9.76884 0)
(10.4945 7.73837 0)
(13.4505 5.76851 0)
(15.6719 3.85665 0)
(17.1757 2.01294 0)
(18.0272 0.269677 0)
(18.2476 -1.34838 0)
(17.9096 -2.85861 0)
(17.1343 -4.31913 0)
(15.9508 -5.73663 0)
(14.4011 -7.08265 0)
(12.5179 -8.33766 0)
(10.3244 -9.48297 0)
(7.8435 -10.4805 0)
(5.11305 -11.2339 0)
(2.20624 -11.6032 0)
(-0.803663 -11.4828 0)
(-3.79477 -10.8193 0)
(-6.64183 -9.68945 0)
(-9.22752 -8.14097 0)
(-11.4589 -6.25871 0)
(-13.2744 -4.1528 0)
(-14.6414 -1.92125 0)
(-15.5499 0.348781 0)
(-15.9714 2.54829 0)
(-15.7506 4.53359 0)
(-14.914 6.19465 0)
(-13.5194 7.48443 0)
(-11.6339 8.40464 0)
(-9.36356 8.98206 0)
(-6.84114 9.24589 0)
(-4.19525 9.21198 0)
(-1.47486 8.88671 0)
(1.33093 8.22739 0)
(4.04901 7.11897 0)
(6.5204 5.85307 0)
(8.63795 4.55417 0)
(10.3061 3.24584 0)
(11.494 1.94134 0)
(12.2231 0.670558 0)
(12.4813 -0.527372 0)
(12.3038 -1.63357 0)
(11.7881 -2.67254 0)
(10.9604 -3.65117 0)
(9.85847 -4.54688 0)
(8.51717 -5.33447 0)
(6.96955 -6.00127 0)
(5.25983 -6.5395 0)
(3.43988 -6.90428 0)
(1.5577 -7.01206 0)
(-0.365479 -6.7967 0)
(-2.25647 -6.18846 0)
(-4.03196 -5.2928 0)
(-5.63539 -4.19584 0)
(-7.01504 -2.94402 0)
(-8.14413 -1.57348 0)
(-9.01373 -0.12471 0)
(-9.60572 1.35326 0)
(-9.87608 2.79107 0)
(-9.77677 4.10048 0)
(-9.22562 5.16641 0)
(-8.31714 5.98733 0)
(-7.0944 6.55277 0)
(-5.62657 6.85037 0)
(-3.99685 6.87489 0)
(-2.28147 6.65204 0)
(-0.533302 6.21779 0)
(1.22424 5.58691 0)
(2.93521 4.72805 0)
(4.44509 3.64794 0)
(5.73828 2.55118 0)
(6.75824 1.49077 0)
(7.46744 0.466126 0)
(7.87045 -0.505643 0)
(7.98271 -1.40277 0)
(7.79168 -2.20999 0)
(7.36396 -2.94229 0)
(6.73835 -3.60693 0)
(5.94766 -4.19726 0)
(5.01942 -4.69369 0)
(3.97308 -5.07441 0)
(2.82122 -5.319 0)
(1.5839 -5.40599 0)
(0.303512 -5.313 0)
(-0.973218 -5.0428 0)
(-2.20636 -4.6184 0)
(-3.35649 -4.04971 0)
(-4.38671 -3.35362 0)
(-5.26479 -2.55403 0)
(-5.96423 -1.68711 0)
(-6.46157 -0.801494 0)
(-6.71295 0.061724 0)
(-6.72489 0.864444 0)
(-6.51441 1.58532 0)
(-6.07277 2.20742 0)
(-5.42951 2.70572 0)
(-4.58538 3.05085 0)
(-3.61066 3.24038 0)
(-2.51109 3.28002 0)
(-1.3756 3.29626 0)
(-0.418663 3.3051 0)
(1.33097 2.80727 0)
(0.857975 -12.5332 0)
(-3.42657 -12.2536 0)
(-7.6623 -11.2862 0)
(-11.6467 -9.73905 0)
(-15.1879 -7.68536 0)
(-18.1465 -5.24884 0)
(-20.4215 -2.5754 0)
(-21.9331 0.168195 0)
(-22.5985 2.79327 0)
(-22.1571 5.08714 0)
(-20.7936 6.98056 0)
(-18.5995 8.4462 0)
(-15.7338 9.46816 0)
(-12.4005 10.0487 0)
(-8.80934 10.2536 0)
(-5.12002 10.146 0)
(-1.37281 9.71479 0)
(2.32671 8.78262 0)
(5.69234 7.52231 0)
(8.61334 6.27493 0)
(10.9691 5.01465 0)
(12.7576 3.73032 0)
(14.0208 2.45704 0)
(14.8089 1.21837 0)
(15.147 0.0284301 0)
(15.0674 -1.11256 0)
(14.6595 -2.2327 0)
(13.9211 -3.33351 0)
(12.8639 -4.39571 0)
(11.5006 -5.40222 0)
(9.84359 -6.33836 0)
(7.90615 -7.18614 0)
(5.70272 -7.90916 0)
(3.24801 -8.42333 0)
(0.572059 -8.60428 0)
(-2.21749 -8.34816 0)
(-4.97882 -7.75166 0)
(-7.57994 -6.82009 0)
(-9.90525 -5.58382 0)
(-11.8542 -4.10509 0)
(-13.3469 -2.46643 0)
(-14.3295 -0.772778 0)
(-14.7009 0.861649 0)
(-14.4123 2.33641 0)
(-13.5686 3.60813 0)
(-12.2038 4.6506 0)
(-10.4072 5.43015 0)
(-8.2961 5.95334 0)
(-5.99187 6.27502 0)
(-3.59238 6.44098 0)
(-1.12132 6.40646 0)
(1.3741 5.99199 0)
(3.71531 5.30709 0)
(5.80066 4.57677 0)
(7.5356 3.80754 0)
(8.88818 2.99544 0)
(9.85642 2.15322 0)
(10.4593 1.30295 0)
(10.6966 0.466297 0)
(10.6168 -0.343076 0)
(10.2759 -1.13615 0)
(9.68693 -1.91065 0)
(8.86473 -2.64334 0)
(7.82508 -3.30586 0)
(6.59108 -3.88299 0)
(5.19239 -4.37214 0)
(3.65907 -4.773 0)
(2.00662 -5.04416 0)
(0.219942 -5.0708 0)
(-1.61436 -4.7458 0)
(-3.39448 -4.21712 0)
(-5.033 -3.5015 0)
(-6.46274 -2.61729 0)
(-7.63409 -1.60311 0)
(-8.50529 -0.512073 0)
(-9.03944 0.598531 0)
(-9.20329 1.66727 0)
(-8.91166 2.61058 0)
(-8.27316 3.42018 0)
(-7.32011 4.0838 0)
(-6.11218 4.59079 0)
(-4.71374 4.9215 0)
(-3.19883 5.07176 0)
(-1.61729 5.04407 0)
(-0.0169409 4.82796 0)
(1.53936 4.40284 0)
(2.9505 3.78405 0)
(4.1853 3.10856 0)
(5.19131 2.40251 0)
(5.93604 1.66614 0)
(6.42467 0.9153 0)
(6.66542 0.183559 0)
(6.66731 -0.501571 0)
(6.48179 -1.13711 0)
(6.12433 -1.73589 0)
(5.61457 -2.30601 0)
(4.96982 -2.83863 0)
(4.20402 -3.31156 0)
(3.32578 -3.69545 0)
(2.34461 -3.96362 0)
(1.28178 -4.08793 0)
(0.172847 -4.08856 0)
(-0.951992 -3.97176 0)
(-2.05106 -3.73895 0)
(-3.08294 -3.39406 0)
(-4.00909 -2.94703 0)
(-4.792 -2.41448 0)
(-5.39948 -1.82007 0)
(-5.79657 -1.19197 0)
(-5.95168 -0.564767 0)
(-5.89157 0.0256004 0)
(-5.61699 0.568427 0)
(-5.14839 1.05007 0)
(-4.50607 1.45735 0)
(-3.73102 1.77602 0)
(-2.83987 1.98917 0)
(-1.90371 2.09964 0)
(-0.92848 2.1122 0)
(0.0494462 2.14422 0)
(0.950961 2.06646 0)
(2.34033 1.66328 0)
(-0.818035 -8.42178 0)
(-4.2824 -8.07409 0)
(-7.61026 -7.31572 0)
(-10.6242 -6.17353 0)
(-13.1519 -4.70813 0)
(-15.0563 -3.01938 0)
(-16.2504 -1.22637 0)
(-16.641 0.530855 0)
(-16.2183 2.12041 0)
(-15.1616 3.51975 0)
(-13.5453 4.7145 0)
(-11.4971 5.65966 0)
(-9.1595 6.34315 0)
(-6.66076 6.77943 0)
(-4.09169 6.97895 0)
(-1.5035 6.89767 0)
(0.997025 6.45803 0)
(3.27314 5.85468 0)
(5.24785 5.18268 0)
(6.87781 4.40214 0)
(8.18036 3.54827 0)
(9.1759 2.66184 0)
(9.87692 1.76626 0)
(10.301 0.878332 0)
(10.4382 0.0118825 0)
(10.3356 -0.835506 0)
(9.99555 -1.6685 0)
(9.41622 -2.47889 0)
(8.60089 -3.25708 0)
(7.55566 -3.99012 0)
(6.28836 -4.66092 0)
(4.80512 -5.24688 0)
(3.11459 -5.71219 0)
(1.20617 -6.00251 0)
(-0.850302 -6.00229 0)
(-2.92778 -5.77584 0)
(-4.91592 -5.32361 0)
(-6.71503 -4.64869 0)
(-8.23184 -3.7813 0)
(-9.38591 -2.77063 0)
(-10.1224 -1.68051 0)
(-10.3623 -0.582844 0)
(-10.1753 0.449251 0)
(-9.59519 1.3992 0)
(-8.66605 2.24371 0)
(-7.45404 2.94678 0)
(-6.03624 3.49183 0)
(-4.48873 3.88712 0)
(-2.86936 4.15573 0)
(-1.19412 4.29652 0)
(0.505037 4.21088 0)
(2.08265 3.94296 0)
(3.48158 3.61486 0)
(4.66985 3.20064 0)
(5.6368 2.71978 0)
(6.38024 2.19865 0)
(6.90358 1.64877 0)
(7.21344 1.0805 0)
(7.29369 0.498409 0)
(7.19795 -0.0862439 0)
(6.91488 -0.661588 0)
(6.44848 -1.22021 0)
(5.81049 -1.7491 0)
(5.01555 -2.22594 0)
(4.07789 -2.64042 0)
(3.01874 -2.98797 0)
(1.85403 -3.26445 0)
(0.559307 -3.41832 0)
(-0.811263 -3.31368 0)
(-2.14731 -3.0719 0)
(-3.37867 -2.69172 0)
(-4.44873 -2.17865 0)
(-5.31157 -1.5613 0)
(-5.92775 -0.8738 0)
(-6.27224 -0.15204 0)
(-6.32044 0.56307 0)
(-6.08878 1.23851 0)
(-5.63355 1.87373 0)
(-4.97624 2.45227 0)
(-4.15321 2.94185 0)
(-3.20354 3.32397 0)
(-2.16659 3.58158 0)
(-1.08174 3.6958 0)
(0.00592386 3.65807 0)
(1.0433 3.47095 0)
(1.99409 3.19281 0)
(2.82015 2.83309 0)
(3.49673 2.3885 0)
(4.0198 1.87135 0)
(4.38687 1.31554 0)
(4.59859 0.753939 0)
(4.66756 0.206294 0)
(4.60139 -0.322906 0)
(4.41019 -0.827834 0)
(4.10366 -1.30226 0)
(3.68894 -1.74789 0)
(3.17113 -2.16218 0)
(2.5564 -2.52288 0)
(1.85794 -2.79903 0)
(1.10177 -2.99364 0)
(0.313678 -3.10258 0)
(-0.472717 -3.11762 0)
(-1.24339 -3.03732 0)
(-1.97345 -2.86865 0)
(-2.63392 -2.62291 0)
(-3.19652 -2.31146 0)
(-3.6365 -1.94723 0)
(-3.9294 -1.54169 0)
(-4.06354 -1.11575 0)
(-4.05342 -0.693211 0)
(-3.89646 -0.281484 0)
(-3.60468 0.104892 0)
(-3.1972 0.454005 0)
(-2.68619 0.757003 0)
(-2.09689 1.00168 0)
(-1.45065 1.17672 0)
(-0.793677 1.2771 0)
(-0.129167 1.29484 0)
(0.490328 1.26818 0)
(1.0535 1.22304 0)
(1.87013 0.974884 0)
(-1.12628 -5.58749 0)
(-3.24909 -5.34345 0)
(-5.20669 -4.85382 0)
(-6.9056 -4.12863 0)
(-8.2522 -3.19933 0)
(-9.17763 -2.124 0)
(-9.65602 -0.974353 0)
(-9.65713 0.179888 0)
(-9.28369 1.29475 0)
(-8.57041 2.32776 0)
(-7.5722 3.23095 0)
(-6.35334 3.96897 0)
(-4.97763 4.52273 0)
(-3.50224 4.87801 0)
(-1.97386 5.02742 0)
(-0.44009 4.95913 0)
(1.01228 4.73436 0)
(2.32949 4.37246 0)
(3.48472 3.8795 0)
(4.46938 3.30021 0)
(5.27562 2.66954 0)
(5.89767 2.00787 0)
(6.33743 1.33361 0)
(6.59874 0.664684 0)
(6.67817 0.00747967 0)
(6.59993 -0.640587 0)
(6.35792 -1.27596 0)
(5.95319 -1.89104 0)
(5.38889 -2.47783 0)
(4.67095 -3.02647 0)
(3.80675 -3.51996 0)
(2.80311 -3.93008 0)
(1.65341 -4.22799 0)
(0.384692 -4.38421 0)
(-0.92483 -4.37126 0)
(-2.20388 -4.21375 0)
(-3.39839 -3.90451 0)
(-4.45435 -3.4499 0)
(-5.31941 -2.86854 0)
(-5.95271 -2.19133 0)
(-6.32847 -1.45502 0)
(-6.43173 -0.690118 0)
(-6.30475 0.0640256 0)
(-5.95666 0.774189 0)
(-5.41369 1.41163 0)
(-4.71018 1.95567 0)
(-3.8845 2.39073 0)
(-2.97629 2.70696 0)
(-2.01869 2.90584 0)
(-1.03493 3.00502 0)
(-0.0466399 3.01941 0)
(0.899749 2.91632 0)
(1.74486 2.68209 0)
(2.47976 2.39357 0)
(3.09718 2.06389 0)
(3.58667 1.7042 0)
(3.94589 1.31967 0)
(4.18126 0.916221 0)
(4.29024 0.492273 0)
(4.27904 0.0601712 0)
(4.14254 -0.367836 0)
(3.87957 -0.784497 0)
(3.5064 -1.17475 0)
(3.02741 -1.52965 0)
(2.4503 -1.83861 0)
(1.78765 -2.09107 0)
(1.043 -2.27364 0)
(0.218841 -2.34069 0)
(-0.610834 -2.28412 0)
(-1.39541 -2.13101 0)
(-2.10428 -1.87472 0)
(-2.7082 -1.52574 0)
(-3.18024 -1.10028 0)
(-3.50105 -0.618547 0)
(-3.66155 -0.10333 0)
(-3.6631 0.425866 0)
(-3.51463 0.951744 0)
(-3.22839 1.45033 0)
(-2.8196 1.89964 0)
(-2.30251 2.27793 0)
(-1.69715 2.56855 0)
(-1.02849 2.75979 0)
(-0.325213 2.8554 0)
(0.380689 2.85172 0)
(1.05859 2.74883 0)
(1.68396 2.54869 0)
(2.23884 2.26099 0)
(2.70791 1.90678 0)
(3.07842 1.50444 0)
(3.3401 1.07307 0)
(3.49679 0.632763 0)
(3.54847 0.196414 0)
(3.50083 -0.22513 0)
(3.36058 -0.624995 0)
(3.13384 -1.00041 0)
(2.82516 -1.35205 0)
(2.43757 -1.6792 0)
(1.97626 -1.9686 0)
(1.45878 -2.19823 0)
(0.910573 -2.36869 0)
(0.343058 -2.46866 0)
(-0.223852 -2.49146 0)
(-0.76677 -2.43832 0)
(-1.27454 -2.31941 0)
(-1.72842 -2.14488 0)
(-2.11324 -1.92385 0)
(-2.41731 -1.66647 0)
(-2.6322 -1.38127 0)
(-2.74089 -1.06958 0)
(-2.75738 -0.753486 0)
(-2.68039 -0.445274 0)
(-2.52359 -0.158016 0)
(-2.28467 0.103455 0)
(-1.99386 0.326701 0)
(-1.63741 0.514768 0)
(-1.26683 0.658324 0)
(-0.861965 0.761572 0)
(-0.479947 0.825128 0)
(-0.0848062 0.832847 0)
(0.240384 0.808557 0)
(0.686579 0.578016 0)
(-0.57757 -4.05259 0)
(-1.80887 -3.89173 0)
(-2.94733 -3.55087 0)
(-3.9453 -3.03435 0)
(-4.75342 -2.36417 0)
(-5.33182 -1.58053 0)
(-5.6615 -0.732181 0)
(-5.73698 0.137513 0)
(-5.56095 0.983498 0)
(-5.16297 1.76468 0)
(-4.56538 2.44857 0)
(-3.80357 3.01097 0)
(-2.91795 3.43448 0)
(-1.95098 3.70992 0)
(-0.948449 3.82902 0)
(0.0601982 3.80497 0)
(1.03188 3.64292 0)
(1.92027 3.36676 0)
(2.71105 3.00195 0)
(3.38754 2.56956 0)
(3.93879 2.0883 0)
(4.36145 1.57645 0)
(4.65477 1.05045 0)
(4.81709 0.523729 0)
(4.86238 0.00186409 0)
(4.78757 -0.513416 0)
(4.59293 -1.01521 0)
(4.28006 -1.4976 0)
(3.85183 -1.95554 0)
(3.31376 -2.38181 0)
(2.67253 -2.76006 0)
(1.93214 -3.06054 0)
(1.08685 -3.24015 0)
(0.193144 -3.35284 0)
(-0.702892 -3.35641 0)
(-1.57927 -3.24126 0)
(-2.40585 -3.01122 0)
(-3.14866 -2.67255 0)
(-3.77646 -2.24029 0)
(-4.26426 -1.73728 0)
(-4.59695 -1.18877 0)
(-4.76564 -0.615303 0)
(-4.75851 -0.0430014 0)
(-4.60337 0.49416 0)
(-4.30674 0.977447 0)
(-3.88724 1.39368 0)
(-3.36853 1.73309 0)
(-2.77564 1.98971 0)
(-2.13287 2.16045 0)
(-1.46198 2.24184 0)
(-0.786126 2.23315 0)
(-0.131955 2.14895 0)
(0.475692 2.00853 0)
(1.02135 1.81967 0)
(1.499 1.5908 0)
(1.90537 1.32956 0)
(2.23581 1.03963 0)
(2.48548 0.726436 0)
(2.64552 0.396201 0)
(2.7127 0.0421256 0)
(2.67711 -0.242269 0)
(2.55681 -0.570307 0)
(2.34817 -0.884662 0)
(2.0618 -1.14763 0)
(1.69557 -1.37702 0)
(1.26161 -1.55045 0)
(0.774295 -1.66271 0)
(0.250367 -1.70483 0)
(-0.280015 -1.66508 0)
(-0.789199 -1.54354 0)
(-1.2568 -1.3453 0)
(-1.661 -1.07793 0)
(-1.98222 -0.753358 0)
(-2.20552 -0.387204 0)
(-2.3208 0.00380552 0)
(-2.32388 0.404657 0)
(-2.21513 0.80099 0)
(-1.99838 1.17611 0)
(-1.68393 1.51355 0)
(-1.28742 1.80005 0)
(-0.826692 2.02211 0)
(-0.312623 2.16484 0)
(0.232637 2.2419 0)
(0.780855 2.23936 0)
(1.31329 2.15739 0)
(1.80934 2.00483 0)
(2.25054 1.79074 0)
(2.62214 1.52549 0)
(2.91399 1.21973 0)
(3.11301 0.884335 0)
(3.22989 0.53908 0)
(3.26354 0.195458 0)
(3.21744 -0.138945 0)
(3.0964 -0.458608 0)
(2.90617 -0.759689 0)
(2.65116 -1.03954 0)
(2.33427 -1.29662 0)
(1.95934 -1.5286 0)
(1.53466 -1.72249 0)
(1.07764 -1.861 0)
(0.605789 -1.95194 0)
(0.127322 -1.98812 0)
(-0.333611 -1.96154 0)
(-0.766885 -1.8838 0)
(-1.15921 -1.76344 0)
(-1.50185 -1.60456 0)
(-1.78844 -1.4163 0)
(-2.01317 -1.20663 0)
(-2.17047 -0.980828 0)
(-2.25739 -0.746692 0)
(-2.27467 -0.513655 0)
(-2.22758 -0.290402 0)
(-2.12019 -0.0823463 0)
(-1.97466 0.0995311 0)
(-1.78482 0.256764 0)
(-1.56925 0.379709 0)
(-1.33537 0.466102 0)
(-1.09099 0.516301 0)
(-0.8347 0.519403 0)
(-0.60913 0.503769 0)
(-0.313225 0.364795 0)
(-0.341281 -3.03519 0)
(-1.25133 -2.91028 0)
(-2.10782 -2.64407 0)
(-2.87073 -2.24865 0)
(-3.50122 -1.7431 0)
(-3.96656 -1.15544 0)
(-4.24677 -0.519659 0)
(-4.32765 0.129459 0)
(-4.2139 0.761954 0)
(-3.91914 1.35073 0)
(-3.45934 1.86915 0)
(-2.8605 2.29867 0)
(-2.15172 2.62732 0)
(-1.36417 2.84858 0)
(-0.535076 2.95826 0)
(0.290224 2.95511 0)
(1.09484 2.82853 0)
(1.84536 2.62268 0)
(2.51617 2.34799 0)
(3.09271 2.0176 0)
(3.56437 1.64717 0)
(3.92599 1.25137 0)
(4.17254 0.841656 0)
(4.30748 0.428115 0)
(4.33457 0.0176459 0)
(4.2527 -0.384979 0)
(4.06386 -0.775611 0)
(3.77074 -1.14931 0)
(3.37681 -1.50152 0)
(2.88681 -1.82711 0)
(2.31133 -2.10801 0)
(1.67897 -2.33072 0)
(0.938322 -2.51849 0)
(0.149251 -2.57491 0)
(-0.605247 -2.55255 0)
(-1.35313 -2.45781 0)
(-2.06401 -2.28046 0)
(-2.70691 -2.02465 0)
(-3.25822 -1.70164 0)
(-3.69792 -1.3269 0)
(-4.01195 -0.918508 0)
(-4.19266 -0.494597 0)
(-4.23558 -0.0720163 0)
(-4.14089 0.329904 0)
(-3.93105 0.692059 0)
(-3.61528 1.00357 0)
(-3.21151 1.25749 0)
(-2.73943 1.44934 0)
(-2.21897 1.57793 0)
(-1.66992 1.64387 0)
(-1.11232 1.64759 0)
(-0.566877 1.5914 0)
(-0.0519946 1.48252 0)
(0.419421 1.33324 0)
(0.838252 1.15315 0)
(1.19753 0.951102 0)
(1.49165 0.73259 0)
(1.71382 0.496154 0)
(1.86234 0.252309 0)
(1.93427 0.0178276 0)
(1.92901 -0.206457 0)
(1.85939 -0.463836 0)
(1.71119 -0.683204 0)
(1.49013 -0.872774 0)
(1.20984 -1.035 0)
(0.878423 -1.15989 0)
(0.507496 -1.23887 0)
(0.112468 -1.26205 0)
(-0.286759 -1.22424 0)
(-0.669709 -1.12843 0)
(-1.01819 -0.977084 0)
(-1.31492 -0.77547 0)
(-1.54523 -0.532702 0)
(-1.69337 -0.260262 0)
(-1.75581 0.0313355 0)
(-1.72939 0.331045 0)
(-1.61249 0.628261 0)
(-1.40787 0.912856 0)
(-1.12084 1.17413 0)
(-0.763728 1.39516 0)
(-0.363659 1.57052 0)
(0.0924711 1.69968 0)
(0.582548 1.75199 0)
(1.06198 1.74842 0)
(1.52752 1.68993 0)
(1.96351 1.57797 0)
(2.35418 1.4188 0)
(2.68692 1.22056 0)
(2.95194 0.991927 0)
(3.14153 0.739791 0)
(3.24893 0.472546 0)
(3.28512 0.203528 0)
(3.24966 -0.0594739 0)
(3.14623 -0.311831 0)
(2.97896 -0.550488 0)
(2.75245 -0.771975 0)
(2.47066 -0.972428 0)
(2.13768 -1.14872 0)
(1.75909 -1.30023 0)
(1.34245 -1.42057 0)
(0.90487 -1.48983 0)
(0.469582 -1.52539 0)
(0.0341853 -1.5252 0)
(-0.391998 -1.47144 0)
(-0.78308 -1.38882 0)
(-1.13342 -1.27534 0)
(-1.44117 -1.13918 0)
(-1.69881 -0.985403 0)
(-1.90191 -0.818977 0)
(-2.04879 -0.646972 0)
(-2.1395 -0.475677 0)
(-2.17697 -0.310416 0)
(-2.16391 -0.154927 0)
(-2.10645 -0.0151307 0)
(-2.0117 0.104141 0)
(-1.88197 0.200839 0)
(-1.73454 0.271322 0)
(-1.56874 0.313342 0)
(-1.39811 0.316189 0)
(-1.235 0.300667 0)
(-1.03626 0.180103 0)
(-0.691998 -2.13142 0)
(-1.54202 -2.03065 0)
(-2.33739 -1.83327 0)
(-3.03879 -1.54801 0)
(-3.61102 -1.18825 0)
(-4.02635 -0.772967 0)
(-4.2634 -0.325725 0)
(-4.31162 0.130829 0)
(-4.18035 0.57709 0)
(-3.87345 0.991502 0)
(-3.40837 1.35459 0)
(-2.81008 1.65374 0)
(-2.10711 1.87998 0)
(-1.33018 2.02992 0)
(-0.510969 2.10638 0)
(0.31133 2.1102 0)
(1.12166 2.03537 0)
(1.8785 1.88873 0)
(2.55945 1.6992 0)
(3.14996 1.46895 0)
(3.63746 1.20806 0)
(4.01467 0.926922 0)
(4.27899 0.633531 0)
(4.42552 0.333615 0)
(4.45742 0.0351339 0)
(4.37908 -0.256633 0)
(4.19161 -0.538573 0)
(3.89955 -0.806463 0)
(3.50821 -1.05594 0)
(3.02323 -1.28472 0)
(2.44509 -1.49155 0)
(1.77548 -1.64912 0)
(1.11151 -1.78886 0)
(0.426911 -1.81918 0)
(-0.33379 -1.77981 0)
(-1.06899 -1.72115 0)
(-1.74908 -1.6017 0)
(-2.36354 -1.42519 0)
(-2.89266 -1.20254 0)
(-3.31875 -0.944808 0)
(-3.62971 -0.664084 0)
(-3.81857 -0.373094 0)
(-3.88376 -0.0841479 0)
(-3.82517 0.1917 0)
(-3.65554 0.442226 0)
(-3.39047 0.657956 0)
(-3.04359 0.834073 0)
(-2.63284 0.967617 0)
(-2.17654 1.05722 0)
(-1.69322 1.10288 0)
(-1.20128 1.10588 0)
(-0.717994 1.0693 0)
(-0.259347 0.998348 0)
(0.161621 0.899295 0)
(0.535207 0.777606 0)
(0.854388 0.638135 0)
(1.11348 0.485107 0)
(1.30726 0.321877 0)
(1.43107 0.151541 0)
(1.48409 -0.0209653 0)
(1.47037 -0.187615 0)
(1.39044 -0.349888 0)
(1.23715 -0.499849 0)
(1.02316 -0.631095 0)
(0.758017 -0.740276 0)
(0.449722 -0.821635 0)
(0.110111 -0.869794 0)
(-0.246029 -0.879667 0)
(-0.601883 -0.848413 0)
(-0.939155 -0.776434 0)
(-1.24213 -0.665479 0)
(-1.49423 -0.520234 0)
(-1.67914 -0.34696 0)
(-1.79223 -0.152813 0)
(-1.82367 0.0555473 0)
(-1.76896 0.268252 0)
(-1.6277 0.477663 0)
(-1.40208 0.67425 0)
(-1.09849 0.853174 0)
(-0.725085 1.01276 0)
(-0.292751 1.15079 0)
(0.165928 1.24163 0)
(0.647735 1.25365 0)
(1.1516 1.25462 0)
(1.63758 1.22033 0)
(2.09271 1.14583 0)
(2.5048 1.037 0)
(2.86136 0.900208 0)
(3.15259 0.741331 0)
(3.37118 0.565275 0)
(3.51312 0.377017 0)
(3.57266 0.183026 0)
(3.55707 -0.00800592 0)
(3.47069 -0.192099 0)
(3.31596 -0.367098 0)
(3.09715 -0.529836 0)
(2.81944 -0.676362 0)
(2.49061 -0.803348 0)
(2.11897 -0.907951 0)
(1.71338 -0.992103 0)
(1.28019 -1.06037 0)
(0.824164 -1.09463 0)
(0.384788 -1.09578 0)
(-0.049292 -1.07262 0)
(-0.47043 -1.00927 0)
(-0.851783 -0.921559 0)
(-1.19631 -0.830225 0)
(-1.49533 -0.726878 0)
(-1.74552 -0.613393 0)
(-1.94469 -0.494604 0)
(-2.09222 -0.375105 0)
(-2.18938 -0.259135 0)
(-2.23846 -0.150055 0)
(-2.24373 -0.0519869 0)
(-2.21007 0.0316709 0)
(-2.1452 0.0996955 0)
(-2.05275 0.148626 0)
(-1.94194 0.176435 0)
(-1.82564 0.175894 0)
(-1.70495 0.158274 0)
(-1.58238 0.0702773 0)
(-1.10534 -1.27382 0)
(-1.92406 -1.21216 0)
(-2.68122 -1.09583 0)
(-3.33981 -0.929378 0)
(-3.8675 -0.720477 0)
(-4.23979 -0.47987 0)
(-4.43487 -0.219535 0)
(-4.45163 0.0484412 0)
(-4.28804 0.311555 0)
(-3.95284 0.556724 0)
(-3.46279 0.77276 0)
(-2.84129 0.951948 0)
(-2.11603 1.09001 0)
(-1.31816 1.18342 0)
(-0.482817 1.23398 0)
(0.349531 1.25488 0)
(1.20127 1.24027 0)
(1.9971 1.15161 0)
(2.70479 1.03883 0)
(3.32638 0.903963 0)
(3.84458 0.752523 0)
(4.2474 0.589048 0)
(4.53085 0.417837 0)
(4.69327 0.242833 0)
(4.73066 0.0667726 0)
(4.65197 -0.107457 0)
(4.45807 -0.277336 0)
(4.15527 -0.439817 0)
(3.75129 -0.591287 0)
(3.25472 -0.727449 0)
(2.67653 -0.844479 0)
(2.03613 -0.942709 0)
(1.35407 -0.996813 0)
(0.674562 -1.05828 0)
(-0.0605104 -1.09551 0)
(-0.803687 -1.03913 0)
(-1.46225 -0.952182 0)
(-2.06376 -0.841692 0)
(-2.58741 -0.708867 0)
(-3.01407 -0.557458 0)
(-3.33127 -0.393562 0)
(-3.53227 -0.224489 0)
(-3.61629 -0.0572094 0)
(-3.58638 0.102483 0)
(-3.44817 0.248715 0)
(-3.21883 0.375373 0)
(-2.91156 0.478725 0)
(-2.54299 0.557158 0)
(-2.1307 0.61003 0)
(-1.69237 0.637358 0)
(-1.24547 0.639807 0)
(-0.806511 0.619082 0)
(-0.390303 0.577976 0)
(-0.00918972 0.519848 0)
(0.327013 0.447967 0)
(0.610568 0.36523 0)
(0.835473 0.273787 0)
(0.99704 0.175516 0)
(1.09194 0.0736498 0)
(1.11924 -0.0280192 0)
(1.08128 -0.127271 0)
(0.978021 -0.224986 0)
(0.811837 -0.313609 0)
(0.591161 -0.390424 0)
(0.324408 -0.45375 0)
(0.0214931 -0.500291 0)
(-0.305492 -0.527144 0)
(-0.641786 -0.531929 0)
(-0.972238 -0.513448 0)
(-1.27932 -0.472151 0)
(-1.5492 -0.409226 0)
(-1.76328 -0.327005 0)
(-1.91525 -0.228016 0)
(-1.99276 -0.116156 0)
(-1.98918 0.00343893 0)
(-1.90121 0.126518 0)
(-1.72916 0.247932 0)
(-1.47628 0.363304 0)
(-1.14925 0.467206 0)
(-0.758255 0.557937 0)
(-0.318742 0.64056 0)
(0.152109 0.700629 0)
(0.665295 0.758422 0)
(1.19891 0.763319 0)
(1.69386 0.738349 0)
(2.16128 0.694471 0)
(2.58995 0.633187 0)
(2.96617 0.556582 0)
(3.27981 0.467272 0)
(3.52297 0.367919 0)
(3.69037 0.261464 0)
(3.77899 0.150968 0)
(3.78464 0.0392243 0)
(3.71632 -0.0689824 0)
(3.57536 -0.170393 0)
(3.36692 -0.263482 0)
(3.09366 -0.348721 0)
(2.76273 -0.425486 0)
(2.38569 -0.490119 0)
(1.97253 -0.538428 0)
(1.5344 -0.568521 0)
(1.08719 -0.589486 0)
(0.628637 -0.603454 0)
(0.188269 -0.588515 0)
(-0.214274 -0.561273 0)
(-0.622474 -0.536984 0)
(-0.996021 -0.485342 0)
(-1.31448 -0.423247 0)
(-1.58688 -0.356887 0)
(-1.81125 -0.288936 0)
(-1.98637 -0.22147 0)
(-2.11272 -0.156501 0)
(-2.19222 -0.0959305 0)
(-2.22865 -0.0419191 0)
(-2.22628 0.00396551 0)
(-2.1939 0.0398635 0)
(-2.13228 0.0642398 0)
(-2.06159 0.0764618 0)
(-1.97423 0.0711973 0)
(-1.89755 0.0499134 0)
(-1.83965 0.0010558 0)
(-0.903946 -0.424831 0)
(-1.74634 -0.403683 0)
(-2.53707 -0.365907 0)
(-3.23971 -0.312851 0)
(-3.82187 -0.246786 0)
(-4.25755 -0.170793 0)
(-4.52832 -0.0876706 0)
(-4.62343 -0.00109647 0)
(-4.54125 0.0845269 0)
(-4.28665 0.164824 0)
(-3.87419 0.236037 0)
(-3.32632 0.296226 0)
(-2.66508 0.343662 0)
(-1.91822 0.377028 0)
(-1.11271 0.39538 0)
(-0.283799 0.406106 0)
(0.523226 0.427176 0)
(1.28161 0.390208 0)
(2.00938 0.351321 0)
(2.667 0.307655 0)
(3.23839 0.259846 0)
(3.71275 0.208998 0)
(4.08143 0.155878 0)
(4.33878 0.101336 0)
(4.48134 0.0455885 0)
(4.50768 -0.0107301 0)
(4.41867 -0.0662134 0)
(4.21659 -0.119948 0)
(3.90613 -0.171036 0)
(3.49384 -0.218027 0)
(2.9897 -0.258712 0)
(2.40814 -0.288938 0)
(1.76565 -0.307392 0)
(1.0712 -0.339415 0)
(0.414286 -0.394668 0)
(-0.218937 -0.346133 0)
(-0.872743 -0.305809 0)
(-1.47116 -0.26888 0)
(-1.9938 -0.224248 0)
(-2.42602 -0.175135 0)
(-2.75686 -0.122883 0)
(-2.97956 -0.0693036 0)
(-3.09218 -0.0164977 0)
(-3.0969 0.0333944 0)
(-3.00017 0.0791163 0)
(-2.8118 0.119225 0)
(-2.54528 0.15205 0)
(-2.21641 0.176937 0)
(-1.84179 0.19367 0)
(-1.43831 0.202274 0)
(-1.02266 0.202941 0)
(-0.610801 0.196238 0)
(-0.217056 0.182914 0)
(0.145861 0.163957 0)
(0.467552 0.140357 0)
(0.739846 0.113007 0)
(0.956205 0.0825648 0)
(1.11145 0.0497132 0)
(1.20178 0.0154095 0)
(1.22568 -0.0190796 0)
(1.18304 -0.0527217 0)
(1.07487 -0.0849385 0)
(0.904143 -0.114036 0)
(0.67642 -0.139109 0)
(0.399188 -0.159452 0)
(0.0819566 -0.174213 0)
(-0.263599 -0.18268 0)
(-0.623773 -0.18419 0)
(-0.983148 -0.178517 0)
(-1.32633 -0.165777 0)
(-1.63845 -0.146475 0)
(-1.90457 -0.121014 0)
(-2.11229 -0.0898071 0)
(-2.24976 -0.0543878 0)
(-2.31176 -0.0160618 0)
(-2.2926 0.0238046 0)
(-2.19109 0.0637868 0)
(-2.00851 0.102452 0)
(-1.74897 0.138343 0)
(-1.41889 0.169338 0)
(-1.02393 0.192617 0)
(-0.576291 0.216361 0)
(-0.132146 0.278629 0)
(0.320012 0.262239 0)
(0.799213 0.253106 0)
(1.26886 0.237543 0)
(1.70988 0.217019 0)
(2.11071 0.19267 0)
(2.4617 0.164808 0)
(2.75491 0.134059 0)
(2.98419 0.101343 0)
(3.14567 0.0678347 0)
(3.23686 0.0340457 0)
(3.25719 0.000686353 0)
(3.20803 -0.0310637 0)
(3.09437 -0.0600793 0)
(2.92261 -0.0860636 0)
(2.69801 -0.1098 0)
(2.424 -0.131392 0)
(2.10781 -0.149346 0)
(1.75896 -0.163794 0)
(1.38599 -0.17076 0)
(1.00004 -0.167923 0)
(0.614816 -0.163376 0)
(0.240634 -0.167634 0)
(-0.109428 -0.176845 0)
(-0.418279 -0.151041 0)
(-0.706791 -0.132617 0)
(-0.959623 -0.113589 0)
(-1.17145 -0.0923491 0)
(-1.34073 -0.0718911 0)
(-1.46811 -0.0526345 0)
(-1.55549 -0.0350304 0)
(-1.60636 -0.0196474 0)
(-1.62496 -0.00691369 0)
(-1.61786 0.00231468 0)
(-1.58941 0.00858486 0)
(-1.55296 0.0100209 0)
(-1.50514 0.00700294 0)
(-1.48176 2.22348e-05 0)
(-1.4643 -0.000728801 0)
(1.93658 -33.9401 0)
(2.52642 -32.2925 0)
(2.83692 -29.3637 0)
(2.81031 -25.1883 0)
(2.4473 -20.0405 0)
(1.81746 -14.385 0)
(1.04769 -8.89662 0)
(0.333804 -4.50401 0)
(-0.0467488 -1.9363 0)
(-0.835232 3.23256 0)
(-1.77239 8.73668 0)
(-2.34102 13.3873 0)
(-2.66061 17.5128 0)
(-2.77693 21.0198 0)
(-2.65 23.9064 0)
(-2.29692 26.1349 0)
(-1.7297 27.4767 0)
(-1.11037 27.4252 0)
(-0.550615 26.3321 0)
(-0.0319933 24.1632 0)
(0.404315 21.0041 0)
(0.714967 16.9979 0)
(0.854108 12.4642 0)
(0.746521 8.01946 0)
(0.393965 4.35824 0)
(0.166229 1.97236 0)
(0.135532 -2.01658 0)
(0.0230121 -6.85964 0)
(-0.165933 -10.8735 0)
(-0.309999 -14.4437 0)
(-0.379431 -17.5278 0)
(-0.354958 -20.1182 0)
(-0.194849 -22.1621 0)
(0.163153 -23.409 0)
(0.576445 -23.3087 0)
(0.94341 -22.3065 0)
(1.21976 -20.428 0)
(1.37841 -17.7393 0)
(1.39838 -14.416 0)
(1.25946 -10.6965 0)
(0.972682 -6.94715 0)
(0.579894 -3.62512 0)
(0.26674 -1.15934 0)
(0.0834502 1.71765 0)
(-0.154628 5.52488 0)
(-0.509868 8.56918 0)
(-0.807567 11.2974 0)
(-0.99528 13.6316 0)
(-1.08919 15.5498 0)
(-1.08746 17.0508 0)
(-0.982287 17.9972 0)
(-0.778665 17.997 0)
(-0.491912 17.2951 0)
(-0.212513 15.9204 0)
(0.04969 13.922 0)
(0.272662 11.4368 0)
(0.424276 8.6406 0)
(0.461673 5.79122 0)
(0.343266 3.22229 0)
(0.212867 1.30745 0)
(0.207768 -0.973212 0)
(0.21852 -4.06447 0)
(0.150939 -6.62272 0)
(0.0833057 -8.89469 0)
(0.0605407 -10.8673 0)
(0.0931434 -12.5253 0)
(0.205625 -13.8174 0)
(0.388283 -14.478 0)
(0.574126 -14.2825 0)
(0.739256 -13.4891 0)
(0.861924 -12.1324 0)
(0.921947 -10.2921 0)
(0.893263 -8.13885 0)
(0.769463 -5.91321 0)
(0.57919 -3.85402 0)
(0.416938 -2.18683 0)
(0.36493 -0.00637784 0)
(0.241609 2.41115 0)
(-0.00912222 4.58828 0)
(-0.261956 6.55689 0)
(-0.473705 8.26129 0)
(-0.642323 9.68431 0)
(-0.748171 10.8316 0)
(-0.776967 11.6742 0)
(-0.755588 12.0216 0)
(-0.688876 11.8605 0)
(-0.603085 11.2632 0)
(-0.51121 10.2008 0)
(-0.421965 8.67173 0)
(-0.343112 6.76571 0)
(-0.287593 4.71218 0)
(-0.274112 2.8514 0)
(-0.254601 1.62926 0)
(-0.249322 0.7011 0)
(-0.258492 -1.92969 0)
(-0.243215 -3.7024 0)
(-0.230152 -5.33241 0)
(-0.226998 -6.77002 0)
(-0.221434 -7.98733 0)
(-0.200614 -8.99727 0)
(-0.155325 -9.79426 0)
(-0.0602264 -10.2656 0)
(0.0260743 -10.1861 0)
(0.0995481 -9.74988 0)
(0.154767 -8.98331 0)
(0.189542 -7.92167 0)
(0.205163 -6.60556 0)
(0.20135 -5.09112 0)
(0.170307 -3.46293 0)
(0.110713 -1.85814 0)
(0.04017 -0.444134 0)
(-0.0308135 0.593867 0)
(-0.0255767 1.47788 0)
(-0.0235451 3.20672 0)
(-0.0999379 4.35594 0)
(-0.183686 5.37389 0)
(-0.231062 6.1952 0)
(-0.257955 6.92037 0)
(-0.262094 7.24847 0)
(-0.255489 7.38996 0)
(-0.221482 6.91437 0)
(0.776682 -34.7671 0)
(0.656825 -32.8845 0)
(0.455782 -29.5865 0)
(0.107048 -24.9927 0)
(-0.349806 -19.4454 0)
(-0.761037 -13.5413 0)
(-0.818596 -8.05984 0)
(-0.851514 -3.83377 0)
(-1.27992 -1.8343 0)
(-2.35535 4.39632 0)
(-3.26284 9.60691 0)
(-3.68678 14.0241 0)
(-3.89161 17.8704 0)
(-3.88576 21.1189 0)
(-3.62386 23.7899 0)
(-3.12427 25.8263 0)
(-2.32719 26.8712 0)
(-1.23787 26.6551 0)
(-0.00201366 25.472 0)
(1.24562 23.2994 0)