/*--------------------------------*- C++ -*----------------------------------*\
| =========                 |                                                 |
| \\      /  F ield         | OpenFOAM: The Open Source CFD Toolbox           |
|  \\    /   O peration     | Version:  2206                                  |
|   \\  /    A nd           | Website:  www.openfoam.com                      |
|    \\/     M anipulation  |                                                 |
\*---------------------------------------------------------------------------*/
FoamFile
{
    version     2.0;
    format      ascii;
    arch        "LSB;label=32;scalar=64";
    class       volVectorField;
    location    "19.1001";
    object      ddtCorrDdt0(U);
}
// * * * * * * * * * * * * * * * * * * * * * * * * * * * * * * * * * * * * * //

dimensions      [0 1 -2 0 0 0 0];

internalField   nonuniform List<vector> 
3038
(
(-18.8191 -142.439 0)
(-27.747 -133.026 0)
(-34.9447 -120.862 0)
(-40.298 -106.815 0)
(-43.8455 -91.7805 0)
(-45.7739 -76.5474 0)
(-46.4035 -61.7056 0)
(-46.0431 -47.4421 0)
(-45.2572 -33.5859 0)
(-45.1197 -19.1894 0)
(-45.4226 -2.83111 0)
(-45.2427 15.1721 0)
(-45.4929 34.5486 0)
(-45.6945 55.0978 0)
(-45.8116 76.4238 0)
(-45.6686 97.9094 0)
(-45.0117 118.667 0)
(-43.6431 137.524 0)
(-41.3599 152.952 0)
(-37.6743 162.841 0)
(-31.8623 163.789 0)
(-24.7469 158.312 0)
(-16.8015 147.295 0)
(-8.25346 131.684 0)
(0.58375 112.708 0)
(9.33576 91.7176 0)
(17.5589 69.9164 0)
(25.7311 48.2349 0)
(35.7597 26.6443 0)
(44.1442 5.89959 0)
(51.7218 -9.97314 0)
(57.3838 -21.3654 0)
(60.8237 -29.059 0)
(62.1129 -34.4447 0)
(61.4045 -39.2116 0)
(59.0444 -44.7745 0)
(55.4524 -51.8654 0)
(50.9413 -60.454 0)
(45.6441 -70.064 0)
(39.601 -80.0571 0)
(32.8254 -89.7024 0)
(25.3677 -98.2093 0)
(17.3522 -104.757 0)
(9.01334 -108.436 0)
(0.73018 -108.332 0)
(-7.09894 -105.312 0)
(-14.2326 -99.47 0)
(-20.4368 -91.1196 0)
(-25.5354 -80.7563 0)
(-29.4524 -68.9793 0)
(-32.2163 -56.3942 0)
(-33.9369 -43.4987 0)
(-34.9493 -30.5158 0)
(-36.1121 -17.0519 0)
(-37.052 -2.43559 0)
(-37.147 12.5678 0)
(-37.118 27.529 0)
(-36.6808 42.191 0)
(-36.0173 56.3776 0)
(-35.1925 69.9835 0)
(-34.1527 82.8493 0)
(-32.8285 94.6879 0)
(-31.1207 104.953 0)
(-28.775 112.597 0)
(-25.0985 115.607 0)
(-20.1017 113.598 0)
(-14.3374 107.797 0)
(-7.93449 98.5643 0)
(-1.10696 86.5741 0)
(5.8406 72.6944 0)
(12.5238 57.7782 0)
(18.8847 42.572 0)
(25.9405 27.3715 0)
(32.8434 11.8492 0)
(38.4381 -1.62743 0)
(42.8007 -12.4651 0)
(45.3518 -21.0176 0)
(46.1461 -27.7998 0)
(45.3627 -33.6193 0)
(43.2972 -39.2283 0)
(40.2943 -45.1027 0)
(36.6141 -51.3807 0)
(32.3971 -57.9403 0)
(27.703 -64.4972 0)
(22.5606 -70.6452 0)
(17.0036 -75.8826 0)
(11.1256 -79.6162 0)
(5.08221 -80.97 0)
(-0.830175 -79.9222 0)
(-6.38853 -76.8015 0)
(-11.4312 -71.6944 0)
(-15.7965 -64.8412 0)
(-19.3652 -56.6062 0)
(-22.0861 -47.4225 0)
(-24.0172 -37.7165 0)
(-25.2965 -27.759 0)
(-26.4521 -17.4716 0)
(-27.7769 -6.33708 0)
(-28.2627 5.42728 0)
(-28.5697 17.2056 0)
(-28.4109 28.7244 0)
(-27.8708 39.7126 0)
(-27.1046 50.0336 0)
(-26.1591 59.5913 0)
(-25.0444 68.2464 0)
(-23.7296 75.7178 0)
(-22.0465 81.394 0)
(-19.4629 83.9533 0)
(-15.846 82.9047 0)
(-11.5313 79.2368 0)
(-6.61918 73.2647 0)
(-1.42395 65.4356 0)
(3.76946 56.1834 0)
(8.80706 46.1521 0)
(13.525 35.7577 0)
(18.3998 25.1913 0)
(23.7005 14.3003 0)
(27.9032 3.93735 0)
(31.2813 -4.84639 0)
(33.362 -12.3213 0)
(34.1029 -18.6886 0)
(-17.8011 -132.44 0)
(-27.3207 -124.569 0)
(-35.2757 -114.124 0)
(-41.5416 -101.842 0)
(-46.1356 -88.473 0)
(-49.2311 -74.693 0)
(-51.084 -60.9142 0)
(-52.0496 -47.2591 0)
(-52.6835 -33.4501 0)
(-53.8136 -18.6839 0)
(-54.8449 -2.22501 0)
(-55.5953 15.6468 0)
(-56.3775 34.9222 0)
(-56.8037 55.2883 0)
(-56.796 76.2528 0)
(-56.1725 97.1643 0)
(-54.7142 117.129 0)
(-52.2609 135.003 0)
(-48.5509 149.16 0)
(-42.8516 156.947 0)
(-34.8829 156.313 0)
(-25.7558 149.809 0)
(-15.8486 138.098 0)
(-5.49079 122.164 0)
(4.89164 103.209 0)
(14.8325 82.4597 0)
(24.2581 60.8894 0)
(34.8745 38.9568 0)
(45.4833 16.5548 0)
(54.4367 -2.32243 0)
(61.7733 -16.2638 0)
(66.6565 -25.5305 0)
(69.0908 -30.9801 0)
(69.1914 -34.2188 0)
(67.2927 -37.1404 0)
(64.101 -41.3764 0)
(59.7086 -47.4288 0)
(54.4313 -55.1788 0)
(48.5346 -64.0988 0)
(41.9792 -73.4021 0)
(34.7539 -82.3639 0)
(26.9021 -90.2651 0)
(18.523 -96.3625 0)
(9.82233 -99.8737 0)
(1.15034 -100.033 0)
(-7.10801 -97.5467 0)
(-14.7247 -92.4957 0)
(-21.4727 -85.1398 0)
(-27.1817 -75.8956 0)
(-31.7831 -65.2604 0)
(-35.3042 -53.7155 0)
(-37.8621 -41.6223 0)
(-39.8277 -29.0724 0)
(-41.7956 -15.7603 0)
(-43.0992 -1.5598 0)
(-43.7887 12.8812 0)
(-44.1024 27.398 0)
(-43.8819 41.7107 0)
(-43.253 55.598 0)
(-42.2523 68.9044 0)
(-40.8487 81.4246 0)
(-39.0016 92.8249 0)
(-36.6065 102.48 0)
(-33.2134 109.112 0)
(-28.03 110.394 0)
(-21.6153 107.524 0)
(-14.3705 100.983 0)
(-6.53488 91.2787 0)
(1.56763 79.1025 0)
(9.53446 65.2819 0)
(17.1344 50.6018 0)
(25.0317 35.58 0)
(33.4072 19.9224 0)
(40.2939 5.29984 0)
(45.9974 -6.4884 0)
(49.7513 -15.6152 0)
(51.5058 -22.3739 0)
(51.4249 -27.4715 0)
(49.7838 -31.8523 0)
(46.9642 -36.3563 0)
(43.3476 -41.4514 0)
(39.178 -47.1753 0)
(34.5463 -53.2726 0)
(29.4705 -59.3831 0)
(23.9574 -65.1021 0)
(18.0536 -69.9719 0)
(11.8321 -73.4468 0)
(5.4447 -74.78 0)
(-0.819455 -73.971 0)
(-6.75039 -71.2682 0)
(-12.1909 -66.7495 0)
(-16.9863 -60.6213 0)
(-21.031 -53.1902 0)
(-24.2918 -44.7993 0)
(-26.7922 -35.7483 0)
(-28.743 -26.2147 0)
(-30.5887 -16.0891 0)
(-32.1766 -5.19517 0)
(-33.0157 6.04868 0)
(-33.5482 17.3355 0)
(-33.5388 28.4288 0)
(-33.0771 39.0737 0)
(-32.2708 49.1183 0)
(-31.1621 58.4339 0)
(-29.764 66.8356 0)
(-28.0103 73.9413 0)
(-25.5688 78.9244 0)
(-21.8378 80.2267 0)
(-17.1779 78.4473 0)
(-11.7951 74.0171 0)
(-5.76259 67.5782 0)
(0.444601 59.806 0)
(6.37504 50.8022 0)
(12.0067 40.8388 0)
(17.8065 30.5079 0)
(24.1299 19.828 0)
(29.3683 9.1914 0)
(33.7059 0.177073 0)
(36.6548 -7.32215 0)
(38.1106 -13.461 0)
(38.1941 -18.5432 0)
(-17.094 -122.02 0)
(-27.0218 -115.533 0)
(-35.5624 -106.632 0)
(-42.5913 -95.9471 0)
(-48.1185 -84.099 0)
(-52.2892 -71.6346 0)
(-55.3389 -58.8326 0)
(-57.6057 -45.7289 0)
(-59.6413 -32.0145 0)
(-61.9429 -17.1383 0)
(-63.6164 -0.833919 0)
(-65.1803 16.7489 0)
(-66.3772 35.6552 0)
(-66.9424 55.5051 0)
(-66.7504 75.7658 0)
(-65.6109 95.7722 0)
(-63.3546 114.666 0)
(-59.8149 131.229 0)
(-54.6659 143.653 0)
(-46.9285 148.931 0)
(-37.0042 146.871 0)
(-25.9754 139.349 0)
(-14.2555 127.089 0)
(-2.25691 111.053 0)
(9.46393 92.3103 0)
(20.5129 71.8709 0)
(31.9942 50.3853 0)
(44.6053 27.7143 0)
(55.2801 6.29765 0)
(64.5994 -10.391 0)
(71.3256 -22.0196 0)
(75.2226 -28.7249 0)
(76.2391 -31.5976 0)
(74.7771 -32.6535 0)
(71.8612 -34.0988 0)
(67.7297 -37.1296 0)
(62.6659 -42.2819 0)
(56.7738 -49.3445 0)
(50.2214 -57.5835 0)
(43.2371 -66.2973 0)
(35.6682 -74.6554 0)
(27.5363 -82.0004 0)
(18.9276 -87.6777 0)
(10.0182 -91.0233 0)
(1.12644 -91.415 0)
(-7.39531 -89.4119 0)
(-15.3406 -85.0844 0)
(-22.4987 -78.6478 0)
(-28.7103 -70.4384 0)
(-33.9099 -60.8518 0)
(-38.1231 -50.2551 0)
(-41.4854 -38.8937 0)
(-44.3589 -26.7887 0)
(-47.0132 -13.8384 0)
(-48.6455 -0.241238 0)
(-49.8547 13.5857 0)
(-50.4487 27.5438 0)
(-50.3953 41.3397 0)
(-49.772 54.7408 0)
(-48.595 67.5606 0)
(-46.8574 79.5707 0)
(-44.5424 90.3864 0)
(-41.4583 99.163 0)
(-36.7784 104.078 0)
(-30.1496 103.914 0)
(-22.305 99.9971 0)
(-13.5685 92.7284 0)
(-4.37396 82.6872 0)
(4.80897 70.4667 0)
(13.6651 56.818 0)
(22.5568 42.3949 0)
(32.2873 27.0794 0)
(40.727 11.6964 0)
(47.9786 -1.0214 0)
(53.1399 -10.8952 0)
(55.9867 -17.9759 0)
(56.6765 -22.7323 0)
(55.2962 -26.0232 0)
(52.7774 -29.1536 0)
(49.4016 -32.8381 0)
(45.3764 -37.3685 0)
(40.7704 -42.5902 0)
(35.7512 -48.2254 0)
(30.3712 -53.9242 0)
(24.593 -59.2492 0)
(18.4422 -63.7668 0)
(11.989 -66.9928 0)
(5.38248 -68.3133 0)
(-1.10557 -67.725 0)
(-7.28781 -65.4133 0)
(-13.0177 -61.4452 0)
(-18.1537 -55.9921 0)
(-22.6034 -49.2989 0)
(-26.3397 -41.6265 0)
(-29.4104 -33.1812 0)
(-32.0152 -24.0458 0)
(-34.4241 -14.2035 0)
(-36.1936 -3.75974 0)
(-37.3877 6.89887 0)
(-38.0994 17.6487 0)
(-38.2176 28.2422 0)
(-37.8235 38.4482 0)
(-36.9878 48.1114 0)
(-35.7442 57.0714 0)
(-34.0716 65.0608 0)
(-31.7729 71.5192 0)
(-28.2161 75.2619 0)
(-23.2268 75.4587 0)
(-17.5135 72.8995 0)
(-11.0673 67.7668 0)
(-4.14068 61.1352 0)
(1.73038 53.4606 0)
(9.52593 44.3651 0)
(15.9914 34.5429 0)
(23.3524 24.1934 0)
(29.8534 13.5562 0)
(35.232 4.36904 0)
(39.1283 -3.19445 0)
(41.342 -9.21398 0)
(41.9967 -13.8906 0)
(41.2239 -17.6436 0)
(-16.7672 -111.338 0)
(-26.9462 -106.084 0)
(-35.9196 -98.5457 0)
(-43.5712 -89.2743 0)
(-49.9135 -78.7907 0)
(-55.0584 -67.4721 0)
(-59.2289 -55.5255 0)
(-62.7598 -42.9098 0)
(-66.1116 -29.3642 0)
(-69.2173 -14.6591 0)
(-71.664 1.22129 0)
(-73.8133 18.3471 0)
(-75.2837 36.6294 0)
(-75.8713 55.6504 0)
(-75.4 74.8873 0)
(-73.7022 93.7055 0)
(-70.6674 111.259 0)
(-66.1369 126.235 0)
(-59.4789 136.494 0)
(-49.7192 138.865 0)
(-38.1341 135.509 0)
(-25.3279 127.095 0)
(-11.9301 114.457 0)
(1.46922 98.4977 0)
(14.2983 80.0422 0)
(26.9324 59.8148 0)
(41.1843 38.0472 0)
(53.8799 15.1946 0)
(65.415 -3.89659 0)
(74.3937 -18.1132 0)
(80.1743 -26.8538 0)
(82.6207 -30.4713 0)
(81.7204 -30.5842 0)
(79.0798 -29.8928 0)
(75.0119 -30.0701 0)
(69.922 -32.1007 0)
(64.091 -36.4032 0)
(57.6873 -42.8558 0)
(50.7068 -50.6453 0)
(43.3144 -58.8213 0)
(35.5562 -66.6877 0)
(27.2908 -73.5466 0)
(18.5889 -78.8414 0)
(9.61225 -82.0404 0)
(0.648345 -82.6334 0)
(-7.99136 -81.0561 0)
(-16.13 -77.3728 0)
(-23.577 -71.7581 0)
(-30.1878 -64.4768 0)
(-35.9022 -55.8285 0)
(-40.7481 -46.0743 0)
(-44.8805 -35.3712 0)
(-48.5632 -23.7682 0)
(-51.5828 -11.3891 0)
(-53.7164 1.45378 0)
(-55.2791 14.6145 0)
(-56.0834 27.9024 0)
(-56.141 41.0325 0)
(-55.4854 53.7874 0)
(-54.1352 65.9732 0)
(-52.1101 77.3366 0)
(-49.3473 87.3585 0)
(-45.382 94.8721 0)
(-39.1734 97.5537 0)
(-31.2603 96.0443 0)
(-21.9842 90.9767 0)
(-11.7376 83.0728 0)
(-1.36188 72.9338 0)
(8.61176 60.8184 0)
(18.5043 47.4092 0)
(29.4851 32.8403 0)
(39.6423 17.2028 0)
(48.579 3.71855 0)
(55.365 -6.9041 0)
(59.5133 -14.4602 0)
(61.1135 -19.146 0)
(60.1229 -21.7063 0)
(57.8325 -23.6537 0)
(54.5654 -25.8892 0)
(50.6117 -28.8809 0)
(46.1549 -32.8214 0)
(41.2797 -37.6339 0)
(35.9865 -42.9053 0)
(30.3782 -48.216 0)
(24.4617 -53.1911 0)
(18.1825 -57.3806 0)
(11.6118 -60.3667 0)
(4.90732 -61.6868 0)
(-1.69193 -61.2969 0)
(-8.02061 -59.3397 0)
(-13.9464 -55.8714 0)
(-19.3449 -51.028 0)
(-24.1379 -44.9933 0)
(-28.3065 -37.9508 0)
(-31.9139 -30.0371 0)
(-35.1154 -21.3261 0)
(-37.8757 -11.9305 0)
(-39.8497 -2.09946 0)
(-41.3275 7.95826 0)
(-42.1857 18.123 0)
(-42.4182 28.1511 0)
(-42.085 37.8427 0)
(-41.2357 47.0329 0)
(-39.8794 55.5034 0)
(-37.8873 62.838 0)
(-34.7942 68.232 0)
(-29.845 70.1832 0)
(-23.7647 69.4911 0)
(-17.0246 66.3168 0)
(-8.61508 61.1315 0)
(-3.12634 54.1031 0)
(5.19679 46.1092 0)
(13.371 36.8333 0)
(21.4743 27.1491 0)
(29.225 16.7478 0)
(35.8021 7.55625 0)
(40.7119 0.0123843 0)
(43.7484 -5.87654 0)
(45.0061 -10.2056 0)
(44.5247 -13.3279 0)
(42.9314 -15.9523 0)
(-16.8715 -100.513 0)
(-27.15 -96.3529 0)
(-36.4108 -89.9945 0)
(-44.5582 -81.9473 0)
(-51.5893 -72.6227 0)
(-57.6131 -62.2885 0)
(-62.8332 -51.0627 0)
(-67.5575 -38.8973 0)
(-71.9684 -25.7077 0)
(-75.5814 -11.4504 0)
(-78.7668 3.84974 0)
(-81.2909 20.3149 0)
(-82.8957 37.7062 0)
(-83.3733 55.6156 0)
(-82.538 73.5722 0)
(-80.2826 90.9934 0)
(-76.5354 106.989 0)
(-71.0496 120.048 0)
(-62.622 127.176 0)
(-51.2718 127.409 0)
(-38.0852 122.489 0)
(-23.6124 113.218 0)
(-8.70345 100.433 0)
(5.70039 84.5843 0)
(19.676 66.3301 0)
(35.0806 46.2145 0)
(50.1573 23.459 0)
(63.946 2.65012 0)
(75.4688 -13.933 0)
(83.5484 -25.0501 0)
(87.8812 -30.2258 0)
(87.9718 -30.3323 0)
(85.6755 -28.1451 0)
(81.6498 -25.8844 0)
(76.4301 -24.976 0)
(70.4546 -26.2463 0)
(63.9754 -29.9706 0)
(57.1134 -35.9079 0)
(49.9153 -43.3578 0)
(42.2994 -51.1697 0)
(34.4493 -58.6125 0)
(26.2031 -65.0526 0)
(17.5475 -69.9974 0)
(8.63201 -73.0559 0)
(-0.27555 -73.828 0)
(-8.90632 -72.6098 0)
(-17.1206 -69.4825 0)
(-24.7532 -64.5816 0)
(-31.675 -58.1012 0)
(-37.8348 -50.2516 0)
(-43.277 -41.2256 0)
(-48.1146 -31.1532 0)
(-52.3232 -20.1837 0)
(-55.5785 -8.56058 0)
(-58.167 3.49767 0)
(-59.9679 15.9058 0)
(-60.9247 28.4023 0)
(-61.0408 40.739 0)
(-60.3363 52.7244 0)
(-58.8528 64.167 0)
(-56.5862 74.735 0)
(-53.2274 83.6469 0)
(-47.7576 89.0547 0)
(-40.0187 89.8685 0)
(-30.8982 86.8358 0)
(-20.4406 80.311 0)
(-8.99864 72.0318 0)
(2.07462 62.3429 0)
(13.1539 50.3693 0)
(25.0829 36.7394 0)
(37.1255 21.3156 0)
(47.8694 7.38412 0)
(56.403 -3.83431 0)
(62.0127 -11.8625 0)
(64.6487 -16.6007 0)
(64.1899 -18.6357 0)
(62.0756 -19.5315 0)
(58.841 -20.4253 0)
(54.8719 -21.9582 0)
(50.4375 -24.4495 0)
(45.6702 -27.9804 0)
(40.6129 -32.4152 0)
(35.2597 -37.4106 0)
(29.5626 -42.4136 0)
(23.5953 -47.044 0)
(17.3149 -50.9278 0)
(10.7444 -53.694 0)
(4.04581 -55.0144 0)
(-2.56991 -54.7943 0)
(-8.96007 -53.1485 0)
(-15.0112 -50.1152 0)
(-20.6144 -45.7921 0)
(-25.7042 -40.3101 0)
(-30.2705 -33.8038 0)
(-34.3637 -26.3917 0)
(-37.9939 -18.1987 0)
(-40.8491 -9.39314 0)
(-43.134 -0.235012 0)
(-44.791 9.20204 0)
(-45.7773 18.7292 0)
(-46.1174 28.1406 0)
(-45.8555 37.2628 0)
(-45.0197 45.8971 0)
(-43.5355 53.7005 0)
(-41.0308 60.0063 0)
(-36.66 63.4971 0)
(-30.6582 64.1793 0)
(-23.577 62.4221 0)
(-15.716 58.6356 0)
(-6.52416 53.4345 0)
(0.504181 46.2593 0)
(10.1587 37.7274 0)
(19.1786 28.5156 0)
(27.7961 18.5352 0)
(35.481 9.57475 0)
(41.4028 2.17104 0)
(45.2417 -3.50667 0)
(47.1073 -7.46527 0)
(46.9956 -10.0103 0)
(45.6316 -11.8806 0)
(43.4629 -13.7107 0)
(-17.3516 -89.7204 0)
(-27.623 -86.4875 0)
(-37.0538 -81.1337 0)
(-45.5945 -74.1043 0)
(-53.2153 -65.7161 0)
(-60.0315 -56.1741 0)
(-66.233 -45.5726 0)
(-71.9378 -33.9381 0)
(-76.8307 -21.2828 0)
(-81.1405 -7.72258 0)
(-84.7547 6.88449 0)
(-87.4591 22.4553 0)
(-89.0368 38.7052 0)
(-89.2753 55.2739 0)
(-88.0474 71.7618 0)
(-85.3168 87.6377 0)
(-80.9748 101.919 0)
(-74.2053 112.521 0)
(-63.8511 116.421 0)
(-51.2327 114.691 0)
(-36.7257 107.952 0)
(-20.6718 97.6352 0)
(-4.55452 84.9799 0)
(10.6355 69.5741 0)
(26.705 51.5199 0)
(44.0245 29.9086 0)
(60.2041 8.30836 0)
(74.4537 -9.98679 0)
(85.1173 -23.3193 0)
(91.5627 -30.4351 0)
(93.2149 -31.3769 0)
(91.338 -28.3866 0)
(87.4292 -24.2022 0)
(82.0492 -20.6402 0)
(75.8064 -18.9186 0)
(69.112 -19.6815 0)
(62.1996 -23.0613 0)
(55.1253 -28.7136 0)
(47.8392 -35.8721 0)
(40.2792 -43.4899 0)
(32.4247 -50.5616 0)
(24.3269 -56.643 0)
(15.8515 -61.2658 0)
(7.12327 -64.184 0)
(-1.6179 -65.1261 0)
(-10.1427 -64.1887 0)
(-18.3395 -61.5093 0)
(-26.0758 -57.1841 0)
(-33.242 -51.3564 0)
(-39.8034 -44.1852 0)
(-45.7717 -35.8344 0)
(-51.0433 -26.435 0)
(-55.4326 -16.2287 0)
(-59.0858 -5.46048 0)
(-61.9166 5.80352 0)
(-63.8727 17.3622 0)
(-64.9254 28.9743 0)
(-65.0706 40.4374 0)
(-64.3505 51.5869 0)
(-62.8071 62.195 0)
(-60.2386 71.6828 0)
(-55.6907 78.6282 0)
(-48.258 81.4199 0)
(-38.9579 80.6761 0)
(-28.5672 76.3973 0)
(-15.712 69.3727 0)
(-6.51154 60.4478 0)
(5.71058 50.7672 0)
(19.805 38.1957 0)
(33.275 23.4694 0)
(46.0115 9.49474 0)
(56.4014 -1.97986 0)
(63.4829 -10.3056 0)
(67.1885 -15.088 0)
(67.3178 -16.6993 0)
(65.339 -16.6647 0)
(62.076 -16.3181 0)
(57.998 -16.4433 0)
(53.4929 -17.4948 0)
(48.7882 -19.6956 0)
(43.9429 -23.0057 0)
(38.9085 -27.1824 0)
(33.6101 -31.8698 0)
(28.0089 -36.6292 0)
(22.0792 -40.9346 0)
(15.8983 -44.5254 0)
(9.438 -47.0832 0)
(2.82746 -48.3886 0)
(-3.73783 -48.2842 0)
(-10.1224 -46.8759 0)
(-16.2437 -44.1932 0)
(-22.0162 -40.3066 0)
(-27.3798 -35.3118 0)
(-32.2958 -29.3108 0)
(-36.6834 -22.4118 0)
(-40.3911 -14.8009 0)
(-43.5054 -6.70072 0)
(-45.9723 1.81538 0)
(-47.7618 10.5928 0)
(-48.8741 19.4505 0)
(-49.3337 28.226 0)
(-49.1694 36.7359 0)
(-48.3267 44.688 0)
(-46.4789 51.512 0)
(-42.764 55.9992 0)
(-37.0707 57.7236 0)
(-29.8956 57.0806 0)
(-21.6001 54.3389 0)
(-12.717 49.9534 0)
(-3.37427 44.2424 0)
(6.20119 37.068 0)
(16.4024 28.62 0)
(25.9357 18.9704 0)
(34.4805 10.3814 0)
(41.2584 3.27302 0)
(45.8131 -2.11504 0)
(48.2022 -5.67116 0)
(48.4381 -7.65586 0)
(47.2615 -8.7919 0)
(45.2331 -9.77496 0)
(42.6342 -11.0257 0)
(-17.9203 -78.9828 0)
(-28.2257 -76.5486 0)
(-37.8084 -71.9781 0)
(-46.6906 -65.7615 0)
(-54.8546 -58.1372 0)
(-62.41 -49.2789 0)
(-69.3282 -39.2667 0)
(-75.4803 -28.2419 0)
(-80.9757 -16.363 0)
(-85.6967 -3.54868 0)
(-89.4928 10.1721 0)
(-92.1846 24.6204 0)
(-93.5799 39.5305 0)
(-93.5584 54.6228 0)
(-92.0874 69.588 0)
(-89.0837 83.8292 0)
(-83.9969 95.9453 0)
(-75.0409 102.795 0)
(-62.9905 104.215 0)
(-48.7754 100.34 0)
(-32.9649 91.8201 0)
(-15.9131 81.0975 0)
(-1.79317 68.8841 0)
(17.5823 53.6214 0)
(36.1139 33.7817 0)
(54.7779 12.062 0)
(71.861 -7.06408 0)
(85.0728 -22.009 0)
(93.6632 -30.9718 0)
(96.9438 -33.1845 0)
(95.5202 -30.0714 0)
(91.7561 -24.5857 0)
(86.2613 -18.8143 0)
(79.754 -14.2926 0)
(72.7962 -12.0752 0)
(65.7545 -12.6758 0)
(58.762 -15.9922 0)
(51.7768 -21.5162 0)
(44.6579 -28.4662 0)
(37.297 -35.8671 0)
(29.6384 -42.704 0)
(21.7703 -48.4502 0)
(13.5882 -52.7865 0)
(5.1504 -55.545 0)
(-3.34369 -56.5996 0)
(-11.697 -55.8575 0)
(-19.8179 -53.5158 0)
(-27.6146 -49.6544 0)
(-34.9853 -44.3707 0)
(-41.8192 -37.775 0)
(-47.9701 -30.0237 0)
(-53.4314 -21.4071 0)
(-58.1156 -12.0666 0)
(-61.9575 -2.11132 0)
(-64.9116 8.28634 0)
(-66.9477 18.9214 0)
(-68.0555 29.5973 0)
(-68.2669 40.1573 0)
(-67.6336 50.4443 0)
(-66.0449 60.0285 0)
(-62.7199 67.715 0)
(-56.3059 71.6061 0)
(-47.5349 72.3128 0)
(-36.8197 69.9397 0)
(-24.9722 64.7638 0)
(-10.1402 57.9304 0)
(-3.40875 48.1969 0)
(15.6946 37.8161 0)
(29.9014 23.2772 0)
(43.7167 9.74933 0)
(55.7356 -1.55672 0)
(64.0953 -9.89053 0)
(68.6552 -14.5594 0)
(69.2296 -15.7341 0)
(67.2965 -14.8605 0)
(63.9286 -13.3738 0)
(59.684 -12.1741 0)
(55.0707 -11.8633 0)
(50.3808 -12.7645 0)
(45.7147 -14.908 0)
(41.0375 -18.1157 0)
(36.2287 -22.089 0)
(31.1577 -26.4823 0)
(25.7541 -30.9226 0)
(20.0242 -34.9822 0)
(14.0096 -38.2673 0)
(7.74619 -40.6003 0)
(1.30487 -41.8276 0)
(-5.16667 -41.8472 0)
(-11.5372 -40.6309 0)
(-17.7159 -38.2183 0)
(-23.6146 -34.6715 0)
(-29.1156 -30.0507 0)
(-34.1452 -24.5209 0)
(-38.6292 -18.2361 0)
(-42.5105 -11.3076 0)
(-45.7578 -3.84221 0)
(-48.3462 4.01546 0)
(-50.2667 12.1083 0)
(-51.5251 20.2962 0)
(-52.1371 28.4277 0)
(-52.0378 36.2456 0)
(-50.8796 43.2133 0)
(-47.7234 48.1524 0)
(-42.3642 50.5418 0)
(-35.278 50.6828 0)
(-26.7795 48.7355 0)
(-17.4367 45.1666 0)
(-7.71959 40.2781 0)
(2.29379 34.3263 0)
(13.2203 27.0625 0)
(23.691 18.0778 0)
(33.0382 9.96434 0)
(40.4264 3.30096 0)
(45.4743 -1.65436 0)
(48.2116 -4.73851 0)
(48.6489 -6.15093 0)
(47.5826 -6.58867 0)
(45.6806 -6.79736 0)
(43.248 -7.24272 0)
(40.508 -8.16437 0)
(-18.1441 -67.5946 0)
(-28.8332 -66.5678 0)
(-38.6899 -62.6063 0)
(-47.9953 -57.0496 0)
(-56.5682 -50.0503 0)
(-64.4761 -41.7466 0)
(-71.7795 -32.4228 0)
(-78.3993 -22.201 0)
(-84.2242 -11.123 0)
(-89.1012 0.755027 0)
(-92.864 13.3444 0)
(-95.374 26.5035 0)
(-96.5772 40.0566 0)
(-96.5033 53.7897 0)
(-95.1035 67.2718 0)
(-91.9162 79.5392 0)
(-85.1231 87.9856 0)
(-74.4009 91.3625 0)
(-60.4356 90.0468 0)
(-44.3976 84.552 0)
(-25.2283 76.2489 0)
(-11.7115 64.4093 0)
(5.24923 52.0218 0)
(29.5031 33.6815 0)
(49.3325 12.8753 0)
(68.9436 -6.06087 0)
(84.4259 -21.6031 0)
(94.5229 -31.7419 0)
(98.8241 -35.1277 0)
(97.5283 -32.3803 0)
(93.6666 -26.3341 0)
(87.9896 -19.0632 0)
(81.3006 -12.2266 0)
(74.2227 -7.21811 0)
(67.1616 -4.9569 0)
(60.3203 -5.68481 0)
(53.7086 -9.11113 0)
(47.1821 -14.6042 0)
(40.5212 -21.3609 0)
(33.5552 -28.5022 0)
(26.2566 -35.1245 0)
(18.6881 -40.5574 0)
(10.8631 -44.6173 0)
(2.77662 -47.2227 0)
(-5.40566 -48.2839 0)
(-13.5376 -47.7195 0)
(-21.537 -45.5911 0)
(-29.2932 -42.0303 0)
(-36.6737 -37.1751 0)
(-43.5591 -31.1574 0)
(-49.8459 -24.1371 0)
(-55.4355 -16.2808 0)
(-60.2274 -7.74659 0)
(-64.1367 1.32067 0)
(-67.123 10.7878 0)
(-69.2027 20.5015 0)
(-70.4292 30.2964 0)
(-70.8321 40.0099 0)
(-70.2756 49.3395 0)
(-68.0835 57.3061 0)
(-62.6489 61.8925 0)
(-54.5855 63.4272 0)
(-44.0412 61.8023 0)
(-32.0826 57.5634 0)
(-17.6621 52.0549 0)
(-6.03559 44.4387 0)
(10.4505 35.0624 0)
(26.7279 21.016 0)
(41.7215 8.06366 0)
(54.5964 -2.57316 0)
(63.8057 -10.5338 0)
(68.8537 -14.8698 0)
(69.4715 -15.5006 0)
(67.4295 -13.8688 0)
(63.8655 -11.3847 0)
(59.4554 -9.02645 0)
(54.7644 -7.48318 0)
(50.1133 -7.14923 0)
(45.6418 -8.14726 0)
(41.3386 -10.3662 0)
(37.0823 -13.5349 0)
(32.6955 -17.3141 0)
(28.0121 -21.3892 0)
(22.9379 -25.4771 0)
(17.4839 -29.2331 0)
(11.7094 -32.2496 0)
(5.69584 -34.36 0)
(-0.503475 -35.4689 0)
(-6.79835 -35.4617 0)
(-13.0838 -34.3323 0)
(-19.25 -32.1202 0)
(-25.178 -28.8914 0)
(-30.7422 -24.7388 0)
(-35.8253 -19.7601 0)
(-40.3523 -14.0471 0)
(-44.2906 -7.70751 0)
(-47.6224 -0.870738 0)
(-50.333 6.33433 0)
(-52.4161 13.7764 0)
(-53.8497 21.3175 0)
(-54.5201 28.7485 0)
(-54.0118 35.4955 0)
(-51.2413 40.3489 0)
(-46.1798 42.9921 0)
(-39.1486 43.5598 0)
(-30.4774 42.1451 0)
(-20.8427 39.2172 0)
(-10.8738 35.0918 0)
(-0.618185 30.1244 0)
(10.6719 23.799 0)
(21.6179 15.721 0)
(31.4051 8.39185 0)
(39.0529 2.3773 0)
(44.2077 -1.97682 0)
(46.962 -4.47552 0)
(47.3403 -5.29143 0)
(46.3003 -5.12262 0)
(44.5002 -4.69011 0)
(42.2452 -4.43232 0)
(39.7608 -4.60584 0)
(37.1631 -5.36509 0)
(-16.5362 -54.8258 0)
(-28.4103 -55.4926 0)
(-38.8623 -52.8348 0)
(-48.8101 -47.979 0)
(-57.8022 -41.5968 0)
(-66.0461 -33.9592 0)
(-73.6387 -25.2936 0)
(-80.4996 -15.7901 0)
(-86.4576 -5.61075 0)
(-91.2724 5.16232 0)
(-94.7902 16.5259 0)
(-97.065 28.4222 0)
(-98.3289 40.7095 0)
(-98.7593 53.1168 0)
(-97.824 64.8425 0)
(-93.3377 73.7796 0)
(-84.3203 78.4124 0)
(-71.1464 78.1932 0)
(-55.0745 73.8203 0)
(-37.4262 66.8082 0)
(-17.1411 58.6983 0)
(-1.85367 47.3499 0)
(24.6481 30.6235 0)
(47.4401 10.2472 0)
(67.7932 -7.44671 0)
(84.2358 -22.2892 0)
(94.6696 -32.5192 0)
(98.444 -36.3406 0)
(96.4124 -34.1147 0)
(91.7883 -28.2242 0)
(85.5551 -20.4136 0)
(78.6526 -12.2276 0)
(71.699 -5.08361 0)
(64.9924 -0.188535 0)
(58.6783 1.77252 0)
(52.7725 0.736057 0)
(47.1496 -2.87227 0)
(41.561 -8.32527 0)
(35.707 -14.8126 0)
(29.3764 -21.5979 0)
(22.552 -27.9367 0)
(15.3398 -33.0814 0)
(7.87211 -36.8483 0)
(0.121826 -39.2821 0)
(-7.706 -40.2925 0)
(-15.5182 -39.7111 0)
(-23.3084 -37.7281 0)
(-30.9314 -34.4916 0)
(-38.2123 -30.0669 0)
(-45.0457 -24.5738 0)
(-51.3327 -18.1654 0)
(-56.9504 -11.0298 0)
(-61.7502 -3.34272 0)
(-65.6162 4.8075 0)
(-68.5686 13.374 0)
(-70.7486 22.2397 0)
(-72.2381 31.2246 0)
(-72.7771 39.9958 0)
(-71.4828 47.6296 0)
(-66.7258 52.4003 0)
(-59.0488 54.2495 0)
(-48.4906 53.0514 0)
(-35.9021 49.5146 0)
(-22.3095 44.135 0)
(-8.61678 37.666 0)
(7.82148 29.8202 0)
(24.9713 17.3036 0)
(40.8848 5.15989 0)
(53.8504 -4.81195 0)
(62.8347 -11.9891 0)
(67.5252 -15.6194 0)
(67.4805 -15.5704 0)
(65.0599 -13.3109 0)
(61.2019 -10.1003 0)
(56.6746 -6.86915 0)
(52.0098 -4.29174 0)
(47.526 -2.84444 0)
(43.3716 -2.75576 0)
(39.5459 -4.00042 0)
(35.9311 -6.3569 0)
(32.3347 -9.48727 0)
(28.5408 -13.034 0)
(24.3698 -16.7252 0)
(19.7234 -20.389 0)
(14.6085 -23.7867 0)
(9.10791 -26.5087 0)
(3.36872 -28.3793 0)
(-2.5294 -29.3335 0)
(-8.56618 -29.2422 0)
(-14.6897 -28.1525 0)
(-20.7722 -26.1053 0)
(-26.6633 -23.156 0)
(-32.2171 -19.3998 0)
(-37.2945 -14.9232 0)
(-41.8137 -9.77285 0)
(-45.7701 -4.01886 0)
(-49.1819 2.2157 0)
(-52.0401 8.80862 0)
(-54.2687 15.631 0)
(-55.6129 22.4214 0)
(-55.5403 28.5683 0)
(-52.8129 32.9025 0)
(-47.8675 35.4151 0)
(-40.7488 36.0413 0)
(-31.901 34.8773 0)
(-22.1226 32.3401 0)
(-12.1832 28.8613 0)
(-1.87462 24.8928 0)
(9.55047 19.284 0)
(20.4063 12.1533 0)
(29.961 5.87878 0)
(37.2298 0.788225 0)
(41.9258 -2.76396 0)
(44.217 -4.56304 0)
(44.1736 -4.79974 0)
(43.0677 -4.18241 0)
(41.3287 -3.29437 0)
(39.2767 -2.50483 0)
(37.1172 -2.06906 0)
(34.9459 -2.17037 0)
(32.7808 -2.89263 0)
(-9.83634 -41.7928 0)
(-25.444 -43.1961 0)
(-36.5848 -41.9402 0)
(-47.5022 -38.2709 0)
(-57.3973 -32.7917 0)
(-66.2825 -25.9271 0)
(-74.3478 -18.0055 0)
(-81.5746 -9.38568 0)
(-87.7577 -0.395931 0)
(-92.6535 8.92223 0)
(-96.339 18.8735 0)
(-99.2545 29.7599 0)
(-101.724 41.6893 0)
(-103.058 53.5844 0)
(-99.7997 62.1231 0)
(-90.8512 66.2637 0)
(-77.3417 65.9506 0)
(-60.7967 61.2491 0)
(-40.1947 55.962 0)
(-22.7696 47.4019 0)
(0.288159 39.3161 0)
(25.9292 23.3506 0)
(49.9751 5.06954 0)
(70.4805 -11.0067 0)
(85.5282 -23.8082 0)
(94.0685 -32.4725 0)
(95.0996 -35.5639 0)
(91.1837 -33.7864 0)
(84.8518 -28.6688 0)
(77.3567 -21.4439 0)
(69.8162 -13.2807 0)
(62.9556 -5.34107 0)
(56.9579 1.3495 0)
(51.7407 5.7558 0)
(47.224 7.20654 0)
(43.205 5.78899 0)
(39.3554 2.05389 0)
(35.283 -3.18737 0)
(30.6213 -9.13829 0)
(25.1957 -15.283 0)
(19.0142 -21.1372 0)
(12.2514 -25.9724 0)
(5.03266 -29.2083 0)
(-2.50232 -31.5516 0)
(-9.99533 -32.7758 0)
(-17.457 -32.1061 0)
(-25.0102 -30.1326 0)
(-32.4079 -27.127 0)
(-39.4651 -23.0677 0)
(-46.1149 -18.0407 0)
(-52.282 -12.2178 0)
(-57.8531 -5.83753 0)
(-62.6465 0.894128 0)
(-66.5361 8.04412 0)
(-69.6371 15.836 0)
(-72.0892 24.1899 0)
(-73.5191 32.473 0)
(-72.4664 39.2046 0)
(-67.6052 43.3057 0)
(-59.5612 44.9495 0)
(-48.5678 43.7393 0)
(-35.6126 40.1181 0)
(-22.0445 35.2821 0)
(-7.8704 30.0363 0)
(9.04117 22.6705 0)
(25.9748 11.5072 0)
(41.4643 1.04745 0)
(53.4508 -7.70539 0)
(60.9454 -13.6855 0)
(63.713 -16.1009 0)
(62.3491 -15.3003 0)
(59.1595 -12.6539 0)
(54.9413 -9.13545 0)
(50.4193 -5.45258 0)
(46.0316 -2.19824 0)
(42.0082 0.107926 0)
(38.4541 1.13579 0)
(35.353 0.812524 0)
(32.575 -0.718849 0)
(29.9163 -3.16591 0)
(27.1436 -6.16545 0)
(24.0397 -9.37285 0)
(20.4478 -12.5643 0)
(16.294 -15.6721 0)
(11.5834 -18.6059 0)
(6.37566 -20.9738 0)
(0.933023 -22.7167 0)
(-4.59717 -23.6155 0)
(-10.3426 -23.3081 0)
(-16.2957 -22.1052 0)
(-22.2485 -20.1274 0)
(-28.0558 -17.4162 0)
(-33.5713 -14.0886 0)
(-38.6096 -10.1834 0)
(-43.0905 -5.61443 0)
(-47.0649 -0.36821 0)
(-50.5258 5.39555 0)
(-53.2917 11.4813 0)
(-54.9732 17.451 0)
(-54.6664 22.4535 0)
(-51.6722 25.9588 0)
(-46.4121 27.9277 0)
(-39.011 28.2485 0)
(-30.0223 27.0705 0)
(-20.3914 24.8354 0)
(-10.8341 22.1068 0)
(-0.649052 19.1343 0)
(10.2669 13.7652 0)
(20.3202 7.90421 0)
(28.7123 2.93464 0)
(34.6998 -0.967658 0)
(38.2039 -3.49487 0)
(39.3739 -4.50693 0)
(38.7947 -4.30575 0)
(37.4999 -3.46068 0)
(35.8166 -2.37657 0)
(34.0254 -1.31157 0)
(32.287 -0.492187 0)
(30.6603 -0.108933 0)
(29.1357 -0.273244 0)
(27.6462 -1.00473 0)
(-7.12189 -28.6427 0)
(-18.7194 -30.0131 0)
(-30.8126 -29.7408 0)
(-42.9464 -27.2567 0)
(-54.3347 -22.8878 0)
(-64.725 -17.0249 0)
(-74.1987 -10.0059 0)
(-82.8199 -2.28348 0)
(-90.3562 5.64671 0)
(-96.3716 13.9887 0)
(-100.785 23.7278 0)
(-103.625 34.6784 0)
(-104.158 44.9457 0)
(-99.6227 50.6392 0)
(-89.941 51.612 0)
(-74.5886 49.9699 0)
(-53.5335 49.1411 0)
(-36.05 41.843 0)
(-15.0941 35.6757 0)
(10.4076 25.3483 0)
(35.3726 11.942 0)
(58.5194 -2.3439 0)
(76.7099 -15.3263 0)
(87.9241 -25.2255 0)
(91.2973 -30.7627 0)
(87.8961 -31.9672 0)
(81.1454 -30.198 0)
(72.3117 -26.0585 0)
(62.8809 -20.1654 0)
(54.0711 -13.2538 0)
(46.7596 -5.92995 0)
(41.2954 0.856623 0)
(37.3934 6.16639 0)
(34.6254 9.42529 0)
(32.8271 10.2433 0)
(31.6731 8.62315 0)
(30.5345 5.05909 0)
(28.7116 0.379015 0)
(25.688 -4.75412 0)
(21.3929 -9.99233 0)
(16.048 -14.972 0)
(9.86156 -19.2253 0)
(1.87147 -22.3355 0)
(-2.25473 -24.2612 0)
(-12.0077 -25.1594 0)
(-19.1709 -24.5714 0)
(-26.3916 -22.8152 0)
(-33.5725 -20.0643 0)
(-40.3422 -16.3506 0)
(-46.7583 -11.7658 0)
(-52.884 -6.44118 0)
(-58.6881 -0.624988 0)
(-63.7956 5.39316 0)
(-67.6645 11.8977 0)
(-70.1437 19.1984 0)
(-71.0867 26.2607 0)
(-69.0285 31.2184 0)
(-63.6251 33.9291 0)
(-54.4424 34.6563 0)
(-42.1829 33.6054 0)
(-29.4422 30.1144 0)
(-15.8519 26.2516 0)
(-0.485242 22.0778 0)
(15.7733 13.2748 0)
(30.9714 4.43918 0)
(43.7382 -3.69076 0)
(52.3395 -10.0231 0)
(56.3385 -13.8947 0)
(55.5787 -14.8512 0)
(52.6936 -13.7174 0)
(48.5615 -11.2415 0)
(44.0388 -8.04586 0)
(39.7188 -4.58076 0)
(35.9301 -1.26242 0)
(32.7821 1.49455 0)
(30.2602 3.27068 0)
(28.2923 3.80546 0)
(26.7182 3.12823 0)
(25.2936 1.45279 0)
(23.7519 -0.905907 0)
(21.8626 -3.60467 0)
(19.4662 -6.35388 0)
(16.4761 -8.99481 0)
(12.8543 -11.4998 0)
(8.58551 -13.9808 0)
(3.64739 -16.0479 0)
(-0.405503 -17.3538 0)
(-7.11082 -17.849 0)
(-12.3468 -17.4639 0)
(-17.944 -16.2989 0)
(-23.7125 -14.4067 0)
(-29.4623 -11.8652 0)
(-35.0095 -8.85369 0)
(-39.9596 -5.38213 0)
(-44.092 -1.22146 0)
(-47.4944 3.5806 0)
(-50.0558 8.54558 0)
(-51.2477 13.1683 0)
(-49.9223 16.7289 0)
(-46.3381 19.1337 0)
(-40.4341 20.3622 0)
(-32.7672 20.2617 0)
(-24.0686 19.0416 0)
(-15.2442 17.2537 0)
(-6.52445 15.5088 0)
(3.22489 12.8589 0)
(12.5269 8.12564 0)
(20.601 3.85976 0)
(26.6975 0.448098 0)
(30.4967 -2.05989 0)
(32.1972 -3.50568 0)
(31.9724 -3.87766 0)
(30.9512 -3.52329 0)
(29.4869 -2.7395 0)
(27.9241 -1.74617 0)
(26.4776 -0.7014 0)
(25.2448 0.222053 0)
(24.2461 0.856769 0)
(23.4441 1.08412 0)
(22.7467 0.847912 0)
(22.0276 0.165476 0)
(-9.06592 -19.5317 0)
(-17.894 -19.4105 0)
(-28.4268 -17.5525 0)
(-40.0928 -14.6559 0)
(-51.7376 -10.8445 0)
(-62.7131 -5.84767 0)
(-72.9599 0.393967 0)
(-82.5812 7.34353 0)
(-91.1035 13.5523 0)
(-97.0129 18.7387 0)
(-98.9011 24.8663 0)
(-94.9895 31.5223 0)
(-85.3194 36.2187 0)
(-65.3334 40.7792 0)
(-50.2806 38.8634 0)
(-33.9752 31.4532 0)
(-13.4262 28.2675 0)
(10.9621 18.8769 0)
(33.9874 10.0982 0)
(54.3123 -0.647031 0)
(69.8739 -10.5551 0)
(79.4495 -18.2288 0)
(82.0451 -23.2317 0)
(78.4366 -25.1152 0)
(71.1373 -24.6369 0)
(61.3849 -22.7327 0)
(50.8669 -19.7297 0)
(40.9766 -15.5989 0)
(32.4113 -10.4188 0)
(25.6178 -5.10603 0)
(20.6954 -0.428955 0)
(17.6175 3.53347 0)
(15.8465 8.07425 0)
(15.9727 10.5925 0)
(17.3071 10.0836 0)
(19.0809 8.03347 0)
(20.7807 4.82335 0)
(21.4252 1.51008 0)
(20.1592 -1.60538 0)
(17.4466 -5.35532 0)
(13.5052 -9.34998 0)
(8.41689 -12.761 0)
(1.3723 -15.9013 0)
(-4.05292 -17.2324 0)
(-12.6022 -17.4225 0)
(-19.7694 -17.0157 0)
(-27.0836 -15.6828 0)
(-34.2195 -13.2873 0)
(-40.9269 -9.91371 0)
(-47.2642 -5.54945 0)
(-53.3419 -0.167557 0)
(-59.1649 5.48786 0)
(-63.7441 9.89721 0)
(-65.2986 13.9735 0)
(-63.1664 18.807 0)
(-58.3135 22.7299 0)
(-49.1545 25.7504 0)