/*--------------------------------*- C++ -*----------------------------------*\
| =========                 |                                                 |
| \\      /  F ield         | OpenFOAM: The Open Source CFD Toolbox           |
|  \\    /   O peration     | Version:  2206                                  |
|   \\  /    A nd           | Website:  www.openfoam.com                      |
|    \\/     M anipulation  |                                                 |
\*---------------------------------------------------------------------------*/
FoamFile
{
    version     2.0;
    format      ascii;
    arch        "LSB;label=32;scalar=64";
    class       surfaceScalarField;
    location    "18.9999";
    object      ddtCorrDdt0(phi);
}
// * * * * * * * * * * * * * * * * * * * * * * * * * * * * * * * * * * * * * //

dimensions      [0 3 -2 0 0 0 0];

oriented        oriented;

internalField   nonuniform List<scalar> 
9447
(
-6.78495e-05
0.000381406
-6.6024e-05
0.00040168
-0.000403505
-6.3565e-05
0.000414224
-0.000416683
-5.98031e-05
0.000416745
-0.000420507
-5.50867e-05
0.000411813
-0.000416529
-4.92427e-05
0.000400437
-0.000406281
-4.22401e-05
0.000383101
-0.000390103
-3.41413e-05
0.000360498
-0.000368597
-2.50872e-05
0.000333473
-0.000342527
-1.52876e-05
0.000302933
-0.000312733
-5.00975e-06
0.000269784
-0.000280062
5.45204e-06
0.000234891
-0.000245353
1.57803e-05
0.000199022
-0.000209351
2.56556e-05
0.000162827
-0.000172702
3.4766e-05
0.000126878
-0.000135988
4.29636e-05
9.155e-05
-9.97475e-05
5.08541e-05
5.65037e-05
-6.43942e-05
5.97697e-05
1.96543e-05
-2.85699e-05
6.67689e-05
-1.85657e-05
1.15665e-05
7.09664e-05
-5.55299e-05
5.13325e-05
7.21667e-05
-9.18615e-05
9.06612e-05
7.06203e-05
-0.000127447
0.000128994
6.66515e-05
-0.000162251
0.00016622
6.05263e-05
-0.00019614
0.000202265
5.25824e-05
-0.000228627
0.00023657
4.32588e-05
-0.000259001
0.000268324
3.30284e-05
-0.000286444
0.000296675
2.22849e-05
-0.000310142
0.000320886
1.14534e-05
-0.000329334
0.000340165
8.83983e-07
-0.000343378
0.000353948
-9.31044e-06
-0.000351601
0.000361796
-1.89452e-05
-0.000352527
0.000362162
-2.80622e-05
-0.000347943
0.00035706
-3.65791e-05
-0.000338571
0.000347088
-4.44397e-05
-0.000324638
0.000332499
-5.16155e-05
-0.000306477
0.000313652
-5.80818e-05
-0.000284499
0.000290966
-6.37927e-05
-0.000259162
0.000264873
-6.86999e-05
-0.000230943
0.00023585
-7.27923e-05
-0.000200382
0.000204475
-7.61026e-05
-0.000168081
0.000171392
-7.87116e-05
-0.000134587
0.000137196
-8.08529e-05
-0.000100233
0.000102375
-8.32162e-05
-6.44197e-05
6.67831e-05
-8.61875e-05
-2.39994e-05
2.69706e-05
-8.82599e-05
2.05165e-05
-1.84441e-05
-8.91811e-05
6.55655e-05
-6.46443e-05
-8.8946e-05
0.00011024
-0.000110476
-8.75896e-05
0.000153544
-0.0001549
-8.51453e-05
0.000194613
-0.000197057
-8.16381e-05
0.000232673
-0.000236181
-7.70984e-05
0.000266969
-0.000271509
-7.1565e-05
0.000296776
-0.00030231
-6.50714e-05
0.000321374
-0.000327868
-5.76003e-05
0.000339932
-0.000347404
-4.89672e-05
0.00035113
-0.000359763
-3.90175e-05
0.000352625
-0.000362575
-2.83515e-05
0.00034754
-0.000358206
-1.70069e-05
0.000336627
-0.000347972
-5.09902e-06
0.000320478
-0.000332386
7.20801e-06
0.000299787
-0.000312094
1.97042e-05
0.000275356
-0.000287852
3.213e-05
0.000248042
-0.000260468
4.41876e-05
0.000218684
-0.000230742
5.5583e-05
0.000188055
-0.00019945
6.6064e-05
0.000156812
-0.000167293
7.54664e-05
0.000125413
-0.000134815
8.383e-05
9.39536e-05
-0.000102317
9.16826e-05
6.16183e-05
-6.94709e-05
9.9238e-05
2.664e-05
-3.41953e-05
0.000104866
-9.57102e-06
3.943e-06
0.000108491
-4.53242e-05
4.16988e-05
0.000110117
-8.06586e-05
7.90331e-05
0.000109779
-0.000115268
0.000115605
0.000107625
-0.000148835
0.00015099
0.000103843
-0.000180986
0.000184768
9.86576e-05
-0.00021124
0.000216425
9.23226e-05
-0.000239059
0.000245394
8.50987e-05
-0.000263896
0.00027112
7.72377e-05
-0.000285228
0.000293089
6.89702e-05
-0.000302566
0.000310834
6.04927e-05
-0.000315473
0.000323951
5.19546e-05
-0.000323379
0.000331917
4.34911e-05
-0.000324909
0.000333373
3.52408e-05
-0.000321797
0.000330047
2.7264e-05
-0.000314421
0.000322398
1.96118e-05
-0.000302923
0.000310575
1.23642e-05
-0.000287459
0.000294706
5.60947e-06
-0.000268205
0.00027496
-6.19701e-07
-0.000245482
0.000251711
-6.31064e-06
-0.000219715
0.000225406
-1.137e-05
-0.000191374
0.000196434
-1.56007e-05
-0.000160973
0.000165204
-1.87927e-05
-0.00012921
0.000132402
-2.08205e-05
-9.70466e-05
9.90745e-05
-2.16283e-05
-6.56695e-05
6.64773e-05
-2.1744e-05
-3.60688e-05
3.61844e-05
-2.50883e-05
-4.41789e-06
7.76218e-06
-2.85629e-05
3.6513e-05
-3.30384e-05
-2.80477e-05
7.77359e-05
-7.82511e-05
-2.75453e-05
0.000115936
-0.000116438
-2.69646e-05
0.000151365
-0.000151946
-2.62757e-05
0.000184071
-0.000184759
-2.54005e-05
0.000213781
-0.000214656
-2.43062e-05
0.000240203
-0.000241298
-2.29998e-05
0.000263007
-0.000264313
-2.14998e-05
0.000281845
-0.000283345
-1.98124e-05
0.000296367
-0.000298055
-1.79098e-05
0.000306104
-0.000308007
-1.56221e-05
0.000309931
-0.000312219
-1.29803e-05
0.00030775
-0.000310392
-9.94125e-06
0.000301305
-0.000304344
-6.48363e-06
0.00029072
-0.000294177
-2.60388e-06
0.000276242
-0.000280121
1.69421e-06
0.000258218
-0.000262516
6.38129e-06
0.00023709
-0.000241777
1.13784e-05
0.000213365
-0.000218362
1.6572e-05
0.000187595
-0.000192789
2.1836e-05
0.000160365
-0.000165629
2.69934e-05
0.000132317
-0.000137474
3.1788e-05
0.000104124
-0.000108919
3.60112e-05
7.64594e-05
-8.06826e-05
3.97938e-05
4.99396e-05
-5.37222e-05
4.45579e-05
2.28261e-05
-2.75902e-05
4.92163e-05
-8.61269e-06
3.95423e-06
5.2533e-05
-3.87362e-05
3.54195e-05
5.44207e-05
-6.71028e-05
6.52151e-05
5.5031e-05
-9.34757e-05
9.28654e-05
5.439e-05
-0.000117769
0.00011841
5.25349e-05
-0.000139963
0.000141818
4.95275e-05
-0.000159906
0.000162914
4.55189e-05
-0.000177556
0.000181565
4.06823e-05
-0.000192497
0.000197334
3.5145e-05
-0.000205777
0.000211314
2.90526e-05
-0.000214968
0.000221061
2.27504e-05
-0.000219935
0.000226237
1.63411e-05
-0.000223485
0.000229894
-0.000218127
0.000224022
-7.76089e-05
0.000378315
-7.40022e-05
0.000398073
-6.9358e-05
0.00040958
-6.3343e-05
0.00041073
-5.6276e-05
0.000404746
-4.80612e-05
0.000392222
-3.87321e-05
0.000373772
-2.84204e-05
0.000350186
-1.73378e-05
0.00032239
-5.75099e-06
0.000291346
6.04059e-06
0.000257992
1.77365e-05
0.000223195
2.90486e-05
0.00018771
3.97098e-05
0.000152166
4.95791e-05
0.000117009
5.88617e-05
8.22673e-05
6.83975e-05
4.69679e-05
7.78218e-05
1.02301e-05
8.45874e-05
-2.53314e-05
8.87427e-05
-5.96852e-05
9.00705e-05
-9.31894e-05
8.85789e-05
-0.000125956
8.44307e-05
-0.000158103
7.78497e-05
-0.000189559
6.91741e-05
-0.000219951
5.88404e-05
-0.000248667
4.7326e-05
-0.00027493
3.50889e-05
-0.000297905
2.25591e-05
-0.000316804
1.00932e-05
-0.000330912
-2.04814e-06
-0.00033946
-1.35704e-05
-0.000341005
-2.45339e-05
-0.00033698
-3.48506e-05
-0.000328254
-4.44535e-05
-0.000315035
-5.32946e-05
-0.000297636
-6.13404e-05
-0.000276454
-6.85514e-05
-0.000251951
-7.48748e-05
-0.000224619
-8.02794e-05
-0.000194978
-8.48013e-05
-0.00016356
-8.85564e-05
-0.000130832
-9.18031e-05
-9.69866e-05
-9.514e-05
-6.10828e-05
-9.85117e-05
-2.06278e-05
-0.000100693
2.26982e-05
-0.000101551
6.64234e-05
-0.000101063
0.000109752
-9.92356e-05
0.000151716
-9.60989e-05
0.000191476
-9.16895e-05
0.000228264
-8.60566e-05
0.000261336
-7.92696e-05
0.000289989
-7.14037e-05
0.000313508
-6.24491e-05
0.000330978
-5.20764e-05
0.000340757
-4.05885e-05
0.000341137
-2.83647e-05
0.000335316
-1.55109e-05
0.000323774
-2.17712e-06
0.000307144
1.14365e-05
0.000286173
2.50886e-05
0.000261704
3.85078e-05
0.000234623
5.14043e-05
0.000205788
6.34904e-05
0.000175968
7.45376e-05
0.000145765
8.44581e-05
0.000115493
9.3431e-05
8.49807e-05
0.000101927
5.31224e-05
0.00010947
1.90971e-05
0.00011489
-1.49912e-05
0.000118265
-4.86997e-05
0.000119565
-8.19585e-05
0.000118828
-0.000114531
0.000116178
-0.000146185
0.000111781
-0.000176589
0.000105845
-0.000205304
9.86135e-05
-0.000231827
9.03467e-05
-0.000255629
8.13074e-05
-0.000276188
7.17507e-05
-0.00029301
6.19081e-05
-0.000305631
5.19728e-05
-0.000313444
4.21145e-05
-0.000315051
3.24869e-05
-0.00031217
2.31795e-05
-0.000305114
1.42489e-05
-0.000293993
5.7669e-06
-0.000278977
-2.161e-06
-0.000260277
-9.4535e-06
-0.000238189
-1.60487e-05
-0.000213119
-2.18476e-05
-0.000185575
-2.66814e-05
-0.00015614
-3.03869e-05
-0.000125505
-3.29299e-05
-9.45035e-05
-3.45421e-05
-6.40574e-05
-3.61996e-05
-3.44112e-05
-4.03136e-05
-3.03957e-07
-4.27674e-05
3.89669e-05
-4.31632e-05
7.81317e-05
-4.27282e-05
0.000115501
-4.18175e-05
0.000150454
-4.05206e-05
0.000182774
-3.88734e-05
0.000212133
-3.68863e-05
0.000238216
-3.45813e-05
0.000260702
-3.19941e-05
0.000279258
-2.9146e-05
0.000293519
-2.60034e-05
0.000302961
-2.23856e-05
0.000306313
-1.84004e-05
0.000303765
-1.40164e-05
0.000296921
-9.21791e-06
0.000285921
-4.01359e-06
0.000271037
1.56539e-06
0.000252639
7.47011e-06
0.000231185
1.36232e-05
0.000207212
1.99006e-05
0.000181318
2.61344e-05
0.000154131
3.21456e-05
0.000126305
3.77454e-05
9.85246e-05
4.27546e-05
7.14501e-05
4.74753e-05
4.5219e-05
5.33285e-05
1.69728e-05
5.83698e-05
-1.36539e-05
6.21611e-05
-4.25275e-05
6.46543e-05
-6.9596e-05
6.58326e-05
-9.46541e-05
6.56731e-05
-0.000117609
6.41778e-05
-0.000138468
6.13674e-05
-0.000157096
5.73643e-05
-0.000173553
5.23472e-05
-0.00018748
4.64654e-05
-0.000199895
3.97062e-05
-0.000208209
3.25922e-05
-0.000212821
2.52653e-05
-0.000216158
-0.000211176
-8.73984e-05
0.00037343
-8.173e-05
0.000392405
-7.45484e-05
0.000402398
-6.60766e-05
0.000402258
-5.64467e-05
0.000395116
-4.56789e-05
0.000381455
-3.38882e-05
0.000361981
-2.12879e-05
0.000337586
-8.16042e-06
0.000309263
5.17665e-06
0.000278009
1.83956e-05
0.000244774
3.11992e-05
0.000210392
4.33525e-05
0.000175557
5.47281e-05
0.00014079
6.54273e-05
0.000106309
7.59548e-05
7.17399e-05
8.65227e-05
3.64e-05
9.5514e-05
1.23877e-06
0.000102158
-3.19757e-05
0.000106292
-6.3819e-05
0.000107668
-9.45657e-05
0.000106207
-0.000124495
0.00010195
-0.000153846
9.50446e-05
-0.000182653
8.57795e-05
-0.000210686
7.45606e-05
-0.000237448
6.18672e-05
-0.000262236
4.81999e-05
-0.000284238
3.40301e-05
-0.000302634
1.97613e-05
-0.000316644
5.73424e-06
-0.000325433
-7.69038e-06
-0.00032758
-2.05055e-05
-0.000324164
-3.26221e-05
-0.000316137
-4.39644e-05
-0.000303693
-5.44657e-05
-0.000287134
-6.40769e-05
-0.000266842
-7.27585e-05
-0.000243269
-8.04648e-05
-0.000216913
-8.71593e-05
-0.000188283
-9.28628e-05
-0.000157856
-9.77053e-05
-0.000125989
-0.000101998
-9.26943e-05
-0.000106214
-5.68664e-05
-0.000109927
-1.69143e-05
-0.000112196
2.4967e-05
-0.00011298
6.7207e-05
-0.00011223
0.000109002
-0.000109937
0.000149424
-0.000106131
0.00018767
-0.000100859
0.000222992
-9.41945e-05
0.000254671
-8.62283e-05
0.000282023
-7.70448e-05
0.000304325
-6.66412e-05
0.000320574
-5.46226e-05
0.000328739
-4.16414e-05
0.000328156
-2.79116e-05
0.000321586
-1.36182e-05
0.00030948
1.04178e-06
0.000292484
1.58379e-05
0.000271377
3.05075e-05
0.000247034
4.47647e-05
0.000220365
5.83185e-05
0.000192234
7.09133e-05
0.000163374
8.2383e-05
0.000134295
9.27222e-05
0.000105153
0.000102185
7.55175e-05
0.000110982
4.4326e-05
0.000118271
1.18077e-05
0.000123488
-2.0208e-05
0.000126613
-5.18246e-05
0.0001276
-8.29456e-05
0.000126482
-0.000113413
0.000123357
-0.00014306
0.000118372
-0.000171604
0.000111725
-0.000198657
0.000103656
-0.000223758
9.4429e-05
-0.000246402
8.4319e-05
-0.000266078
7.35998e-05
-0.00028229
6.2527e-05
-0.000294558
5.13151e-05
-0.000302232
4.01713e-05
-0.000303907
2.92551e-05
-0.000301253
1.86812e-05
-0.00029454
8.54086e-06
-0.000283852
-1.08487e-06
-0.000269351
-1.00931e-05
-0.000251269
-1.83718e-05
-0.00022991
-2.58319e-05
-0.000205659
-3.23943e-05
-0.000179013
-3.79468e-05
-0.000150587
-4.23786e-05
-0.000121073
-4.56924e-05
-9.11898e-05
-4.81824e-05
-6.15673e-05
-5.10374e-05
-3.15563e-05
-5.49329e-05
3.5916e-06
-5.72996e-05
4.13336e-05
-5.80616e-05
7.88936e-05
-5.76865e-05
0.000115126
-5.65134e-05
0.000149281
-5.46961e-05
0.000180956
-5.23275e-05
0.000209765
-4.94618e-05
0.000235351
-4.61482e-05
0.000257388
-4.24436e-05
0.000275553
-3.83948e-05
0.00028947
-3.39707e-05
0.000298537
-2.89637e-05
0.000301306
-2.35797e-05
0.000298381
-1.77935e-05
0.000291135
-1.1612e-05
0.00027974
-5.0582e-06
0.000264484
1.82025e-06
0.000245761
8.94323e-06
0.000224062
1.6208e-05
0.000199947
2.34914e-05
0.000174034
3.0621e-05
0.000147002
3.73889e-05
0.000119538
4.36268e-05
9.22867e-05
4.93186e-05
6.57583e-05
5.50543e-05
3.94834e-05
6.15349e-05
1.04921e-05
6.68895e-05
-1.90085e-05
7.10774e-05
-4.67155e-05
7.40225e-05
-7.25411e-05
7.56484e-05
-9.62799e-05
7.58976e-05
-0.000117858
7.47356e-05
-0.000137306
7.21459e-05
-0.000154506
6.8225e-05
-0.000169632
6.31229e-05
-0.000182378
5.69474e-05
-0.00019372
4.96185e-05
-0.00020088
4.17919e-05
-0.000204994
3.36258e-05
-0.000207992
-0.000203231
-9.69658e-05
0.000366556
-8.89817e-05
0.000384421
-7.907e-05
0.000392486
-6.79149e-05
0.000391103
-5.55493e-05
0.00038275
-4.20882e-05
0.000367993
-2.77377e-05
0.00034763
-1.28023e-05
0.000322651
2.35779e-06
0.000294102
1.73755e-05
0.000262992
3.19108e-05
0.000230238
4.57018e-05
0.000196601
5.86049e-05
0.000162654
7.06679e-05
0.000128727
8.22138e-05
9.47635e-05
9.36502e-05
6.03034e-05
0.000104386
2.56646e-05
0.000112916
-7.29107e-06
0.000119295
-3.83555e-05
0.000123289
-6.78126e-05
0.000124643
-9.59195e-05
0.000123203
-0.000123055
0.0001189
-0.000149543
0.000111793
-0.000175546
0.000102091
-0.000200983
9.01472e-05
-0.000225505
7.64263e-05
-0.000248515
6.14475e-05
-0.000269259
4.57268e-05
-0.000286913
2.97291e-05
-0.000300646
1.38641e-05
-0.000309568
-1.44904e-06
-0.000312267
-1.6097e-05
-0.000309516
-2.99835e-05
-0.000302251
-4.30299e-05
-0.000290647
-5.51601e-05
-0.000275004
-6.63046e-05
-0.000255698
-7.64082e-05
-0.000233165
-8.54321e-05
-0.000207889
-9.33561e-05
-0.000180359
-0.000100204
-0.000151008
-0.000106104
-0.000120089
-0.000111369
-8.74296e-05
-0.000116316
-5.19199e-05
-0.000120312
-1.29181e-05
-0.000122668
2.73228e-05
-0.000123356
6.78957e-05
-0.000122329
0.000107975
-0.000119577
0.000146671
-0.000115128
0.000183221
-0.000109036
0.0002169
-0.000101381
0.000247017
-9.22699e-05
0.000272912
-8.17934e-05
0.000293848
-6.99298e-05
0.000308711
-5.63244e-05
0.000315133
-4.1861e-05
0.000313693
-2.6731e-05
0.000306456
-1.11545e-05
0.000293904
4.63076e-06
0.000276699
2.03653e-05
0.000255643
3.57784e-05
0.000231621
5.06017e-05
0.000205542
6.45833e-05
0.000178253
7.7519e-05
0.000150438
8.93029e-05
0.000122512
9.99785e-05
9.44777e-05
0.000109799
6.56974e-05
0.000118656
3.54682e-05
0.000125613
4.85155e-06
0.000130549
-2.51447e-05
0.000133389
-5.46647e-05
0.000134067
-8.36228e-05
0.0001326
-0.000111946
0.000129061
-0.000139521
0.000123571
-0.000166114
0.00011631
-0.000191396
0.000107506
-0.000214954
9.74239e-05
-0.00023632
8.63476e-05
-0.000255002
7.4568e-05
-0.000270511
6.2366e-05
-0.000282356
4.99835e-05
-0.000289849
3.76645e-05
-0.000291588
2.55721e-05
-0.000289161
1.38336e-05
-0.000282801
2.56611e-06
-0.000272585
-8.12762e-06
-0.000258657
-1.8148e-05
-0.000241249
-2.7385e-05
-0.000220673
-3.57276e-05
-0.000197317
-4.30812e-05
-0.000171659
-4.93658e-05
-0.000144302
-5.45221e-05
-0.000115917
-5.85964e-05
-8.71154e-05
-6.19714e-05
-5.81923e-05
-6.58011e-05
-2.77266e-05
-6.95903e-05
7.38076e-06
-7.19058e-05
4.36491e-05
-7.27383e-05
7.97261e-05
-7.23269e-05
0.000114714
-7.08992e-05
0.000147853
-6.86061e-05
0.000178663
-6.55587e-05
0.000206717
-6.18414e-05
0.000231633
-5.75295e-05
0.000253076
-5.27032e-05
0.000270727
-4.74296e-05
0.000284197
-4.16831e-05
0.000292791
-3.52382e-05
0.000294861
-2.84049e-05
0.000291548
-2.11696e-05
0.0002839
-1.35629e-05
0.000272133
-5.63743e-06
0.000256558
2.53522e-06
0.000237588
1.08593e-05
0.000215738
1.92054e-05
0.000191601
2.74171e-05
0.000165823
3.53266e-05
0.000139092
4.27682e-05
0.000112096
4.96012e-05
8.54537e-05
5.58991e-05
5.94604e-05
6.24859e-05
3.28966e-05
6.92688e-05
3.70919e-06
7.48607e-05
-2.46004e-05
7.93122e-05
-5.1167e-05
8.2548e-05
-7.57768e-05
8.44779e-05
-9.82099e-05
8.50198e-05
-0.0001184
8.41132e-05
-0.000136399
8.17152e-05
-0.000152108
7.79085e-05
-0.000165826
7.27829e-05
-0.000177252
6.62599e-05
-0.000187197
5.85345e-05
-0.000193155
5.01152e-05
-0.000196575
4.12216e-05
-0.000199098
-0.000194389
-0.000106064
0.000357542
-9.55367e-05
0.000373894
-8.27601e-05
0.00037971
-6.87316e-05
0.000377074
-5.3489e-05
0.000367507
-3.72359e-05
0.00035174
-2.02943e-05
0.000330689
-3.0719e-06
0.000305428
1.39995e-05
0.000277031
3.05292e-05
0.000246462
4.62108e-05
0.000214557
6.08636e-05
0.000181948
7.44866e-05
0.000149031
8.73038e-05
0.00011591
9.96793e-05
8.2388e-05
0.000111443
4.85397e-05
0.000121561
1.55463e-05
0.000129648
-1.53773e-05
0.000135687
-4.43953e-05
0.000139456
-7.15816e-05
0.000140732
-9.71953e-05
0.000139306
-0.000121629
0.00013502
-0.000145257
0.00012783
-0.000168356
0.000117849
-0.000191003
0.000105358
-0.000213014
9.07851e-05
-0.000233942
7.46504e-05
-0.000253125
5.75049e-05
-0.000269768
3.98753e-05
-0.000283016
2.22388e-05
-0.000291931
5.06739e-06
-0.000295096
-1.1388e-05
-0.000293061
-2.70114e-05
-0.000286627
-4.17102e-05
-0.000275948
-5.54052e-05
-0.000261309
-6.80204e-05
-0.000243083
-7.94868e-05
-0.000221699
-8.97567e-05
-0.000197619
-9.88219e-05
-0.000171294
-0.000106737
-0.000143093
-0.000113648
-0.000113178
-0.000119829
-8.12485e-05
-0.000125377
-4.63717e-05
-0.000129565
-8.73024e-06
-0.000131977
2.97348e-05
-0.000132575
6.84933e-05
-0.000131301
0.000106702
-0.000128139
0.000143509
-0.000123102
0.000178183
-0.000116224
0.000210023
-0.000107595
0.000238388
-9.73488e-05
0.000262665
-8.56032e-05
0.000282102
-7.23266e-05
0.000295434
-5.72642e-05
0.000300071
-4.14423e-05
0.000297871
-2.50398e-05
0.000290054
-8.30539e-06
0.000277169
8.49125e-06
0.000259902
2.50614e-05
0.000239073
4.11117e-05
0.000215571
5.63641e-05
0.00019029
7.05827e-05
0.000164034
8.36115e-05
0.000137409
9.542e-05
0.000110703
0.000106156
8.37421e-05
0.000116022
5.58308e-05
0.000124642
2.6848e-05
0.000131277
-1.78265e-06
0.000135931
-2.97993e-05
0.000138495
-5.72286e-05
0.000138897
-8.40247e-05
0.000137131
-0.00011018
0.000133239
-0.00013563
0.000127326
-0.000160202
0.000119551
-0.00018362
0.000110122
-0.000205525
9.92995e-05
-0.000225497
8.73725e-05
-0.000243075
7.46467e-05
-0.000257785
6.14254e-05
-0.000269135
4.79843e-05
-0.000276408
3.46026e-05
-0.000278206
2.14465e-05
-0.000276005
8.65202e-06
-0.000270007
-3.64932e-06
-0.000260283
-1.53371e-05
-0.000246969
-2.6303e-05
-0.000230283
-3.64408e-05
-0.000210536
-4.56344e-05
-0.000188123
-5.37693e-05
-0.000163525
-6.07686e-05
-0.000137303
-6.663e-05
-0.000110055
-7.1482e-05
-8.22634e-05
-7.57735e-05
-5.39008e-05
-8.02827e-05
-2.32174e-05
-8.39957e-05
1.10937e-05
-8.62488e-05
4.59023e-05
-8.70557e-05
8.0533e-05
-8.65237e-05
0.000114182
-8.48084e-05
0.000146138
-8.20417e-05
0.000175897
-7.83345e-05
0.00020301
-7.37869e-05
0.000227086
-6.84949e-05
0.000247784
-6.25519e-05
0.000264784
-5.60307e-05
0.000277676
-4.89126e-05
0.000285673
-4.10011e-05
0.00028695
-3.26869e-05
0.000283234
-2.39737e-05
0.000275187
-1.49187e-05
0.000263078
-5.60763e-06
0.000247247
3.84757e-06
0.000228133
1.33157e-05
0.00020627
2.26546e-05
0.000182262
3.17016e-05
0.000156776
4.02773e-05
0.000130516
4.82345e-05
0.000104139
5.55435e-05
7.81448e-05
6.2486e-05
5.25179e-05
6.97691e-05
2.56135e-05
7.65791e-05
-3.10089e-06
8.22882e-05
-3.03095e-05
8.68754e-05
-5.57542e-05
9.02498e-05
-7.91512e-05
9.23348e-05
-0.000100295
9.30372e-05
-0.000119103
9.2286e-05
-0.000135648
9.00199e-05
-0.000149842
8.63144e-05
-0.00016212
8.11298e-05
-0.000172068
7.42733e-05
-0.00018034
6.62529e-05
-0.000185134
5.73427e-05
-0.000187665
4.78393e-05
-0.000189595
-0.000184769
-0.000114208
0.0003462
-0.000100663
0.000360349
-8.49707e-05
0.000364018
-6.79747e-05
0.000360078
-4.98327e-05
0.000349365
-3.08796e-05
0.000332787
-1.15555e-05
0.000311365
7.66129e-06
0.000286212
2.63116e-05
0.000258381
4.40248e-05
0.000228749
6.05738e-05
0.000198008
7.59025e-05
0.000166619
9.01684e-05
0.000134765
0.000103688
0.00010239
0.000116561
6.95149e-05
0.000128168
3.69329e-05
0.000137696
6.01854e-06
0.000145334
-2.30151e-05
0.000150993
-5.00552e-05
0.000154508
-7.50957e-05
0.000155675
-9.83625e-05
0.00015426
-0.000120214
0.000150045
-0.000141042
0.000142885
-0.000161195
0.00013278
-0.000180897
0.000119919
-0.000200154
0.000104679
-0.000218702
8.75677e-05
-0.000236014
6.91576e-05
-0.000251358
5.00241e-05
-0.000263883
3.07093e-05
-0.000272617
1.17465e-05
-0.000276133
-6.45394e-06
-0.000274861
-2.37561e-05
-0.000269325
-4.00439e-05
-0.00025966
-5.52233e-05
-0.00024613
-6.92139e-05
-0.000229092
-8.19481e-05
-0.000208965
-9.33825e-05
-0.000186185
-0.000103513
-0.000161163
-0.000112408
-0.000134198
-0.000120248
-0.000105339
-0.000127291
-7.42055e-05
-0.000133339
-4.03239e-05
-0.000137666
-4.40295e-06
-0.000140163
3.22315e-05
-0.000140694
6.90241e-05
-0.000139148
0.000105156
-0.0001355
0.000139861
-0.000129775
0.000172458
-0.000122059
0.000202308
-0.000112497
0.000228826
-0.000101245
0.000251413
-8.83913e-05
0.000269248
-7.37024e-05
0.000280745
-5.74225e-05
0.000283791
-4.04098e-05
0.000280858
-2.29035e-05
0.000272547
-5.19104e-06
0.000259457
1.24232e-05
0.000242288
2.96304e-05
0.000221865
4.61305e-05
0.000199071
6.16545e-05
0.000174766
7.59958e-05
0.000149693
8.90455e-05
0.000124359
0.000100827
9.89213e-05
0.000111518
7.30518e-05
0.000121158
4.61908e-05
0.00012922
1.8786e-05
0.000135368
-7.93128e-06
0.000139579
-3.40102e-05
0.000141766
-5.94157e-05
0.000141872
-8.41301e-05
0.000139866
-0.000108174
0.000135742
-0.000131506
0.000129552
-0.000154012
0.000121415
-0.000175483
0.000111516
-0.000195626
0.000100098
-0.000214079
8.74555e-05
-0.000230432
7.39111e-05
-0.000244241
5.97892e-05
-0.000255013
4.53943e-05
-0.000262013
3.10479e-05
-0.00026386
1.69274e-05
-0.000261884
3.1779e-06
-0.000256257
-1.00624e-05
-0.000247043
-2.26607e-05
-0.000234371
-3.44957e-05
-0.000218448
-4.54562e-05
-0.000199575
-5.54292e-05
-0.00017815
-6.43034e-05
-0.00015465
-7.20042e-05
-0.000129602
-7.85523e-05
-0.000103507
-8.41413e-05
-7.66745e-05
-8.92665e-05
-4.87756e-05
-9.41818e-05
-1.8302e-05
-9.78242e-05
1.4736e-05
-0.000100028
4.81065e-05
-0.000100753
8.12578e-05
-0.000100048
0.000113477
-9.80261e-05
0.000144116
-9.4794e-05
0.000172664
-9.04473e-05
0.000198664
-8.50816e-05
0.00022172
-7.87984e-05
0.000241501
-7.17023e-05
0.000257688
-6.38745e-05
0.000269848
-5.52526e-05
0.000277051
-4.58582e-05
0.000277555
-3.60664e-05
0.000273442
-2.59021e-05
0.000265022
-1.54663e-05
0.000252642
-4.87293e-06
0.000236654
5.74978e-06
0.00021751
1.62566e-05
0.000195763
2.64829e-05
0.000172036
3.62567e-05
0.000147002
4.5418e-05
0.000121355
5.38548e-05
9.57019e-05
6.15928e-05
7.04069e-05
6.90949e-05
4.50157e-05
7.68202e-05
1.78882e-05
8.35783e-05
-9.85896e-06
8.92361e-05
-3.59673e-05
9.37556e-05
-6.02737e-05
9.70545e-05
-8.24502e-05
9.90773e-05
-0.000102318
9.97374e-05
-0.000119763
9.89881e-05
-0.000134899
9.67605e-05
-0.000147615
9.3128e-05
-0.000158488
8.78317e-05
-0.000166771
8.07623e-05
-0.000173271
7.24925e-05
-0.000176865
6.32252e-05
-0.000178398
5.32549e-05
-0.000179624
-0.000174517
-0.000120854
0.000332295
-0.000104172
0.000343667
-8.57438e-05
0.00034559
-6.59237e-05
0.000340258
-4.50641e-05
0.000328506
-2.36286e-05
0.000311352
-2.15751e-06
0.000289894
1.8821e-05
0.000265233
3.88514e-05
0.00023835
5.76075e-05
0.000209993
7.49617e-05
0.000180653
9.09909e-05
0.00015059
0.000105944
0.000119812
0.00012
8.83341e-05
0.000132723
5.67919e-05
0.000143475
2.61809e-05
0.000152332
-2.83797e-06
0.000159378
-3.0061e-05
0.00016458
-5.52574e-05
0.000167849
-7.83654e-05
0.000168992
-9.95047e-05
0.000167717
-0.000118939
0.000163718
-0.000137043
0.000156741
-0.000154219
0.000146675
-0.000170831
0.00013361
-0.000187089
0.000117876
-0.000202968
9.99708e-05
-0.000218108
8.0478e-05
-0.000231865
6.00008e-05
-0.000243406
3.91203e-05
-0.000251736
1.84855e-05
-0.000255498
-1.35729e-06
-0.000255018
-2.02405e-05
-0.000250442
-3.80239e-05
-0.000241876
-5.45973e-05
-0.000229556
-6.98716e-05
-0.000213818
-8.37781e-05
-0.000195058
-9.62825e-05
-0.000173681
-0.000107409
-0.000150037
-0.000117259
-0.000124348
-0.000126013
-9.65839e-05
-0.000133788
-6.64305e-05
-0.000140228
-3.38838e-05
-0.000144681
4.92116e-08
-0.000147091
3.46419e-05
-0.000147348
6.92816e-05
-0.000145385
0.000103193
-0.000141211
0.000135687
-0.000134871
0.000166118
-0.000126459
0.000193896
-0.000116114
0.000218482
-0.000103986
0.000239285
-9.0112e-05
0.000255374
-7.41016e-05
0.000264735
-5.68209e-05
0.00026651
-3.87966e-05
0.000262834
-2.03721e-05
0.000254123
-1.8809e-06
0.000240966
1.63391e-05
0.000224068
3.39625e-05
0.000204242
5.06913e-05
0.000182342
6.62763e-05
0.00015918
8.05485e-05
0.00013542
9.34489e-05
0.000111459
0.000105051
8.73194e-05
0.000115537
6.25652e-05
0.000124823
3.69053e-05
0.000132333
1.12758e-05
0.000138016
-1.36147e-05
0.000141806
-3.77996e-05
0.000143612
-6.12223e-05
0.00014338
-8.38978e-05
0.00014107
-0.000105863
0.000136672
-0.000127109
0.000130222
-0.000147561
0.000121806
-0.000167067
0.000111575
-0.000185394
9.97362e-05
-0.000202241
8.65579e-05
-0.000217254
7.23592e-05
-0.000230042
5.74819e-05
-0.000240136
4.22628e-05
-0.000246794
2.70655e-05
-0.000248662
1.20863e-05
-0.000246905
-2.51472e-06
-0.000241657
-1.6591e-05
-0.000232967
-3.00028e-05
-0.000220959
-4.26161e-05
-0.000205834
-5.43072e-05
-0.000187884
-6.49633e-05
-0.000167494
-7.44874e-05
-0.000145126
-8.28269e-05
-0.000121263
-9.00236e-05
-9.63105e-05
-9.62887e-05
-7.04093e-05
-0.000102046
-4.30183e-05
-0.000107248
-1.30998e-05
-0.000110974
1.84618e-05
-0.00011317
5.03028e-05
-0.000113828
8.19158e-05
-0.000112948
0.000112596
-0.000110587
0.000141756
-0.000106825
0.000168902
-0.000101747
0.000193586
-9.54553e-05
0.000215428
-8.808e-05
0.000234126
-7.97831e-05
0.000249391
-7.06718e-05
0.000260736
-6.05734e-05
0.000266952
-4.98049e-05
0.000266787
-3.86561e-05
0.000262293
-2.71399e-05
0.000253506
-1.54306e-05
0.000240933
-3.65842e-06
0.000224881
8.02515e-06
0.000205826
1.94597e-05
0.000184329
3.04721e-05
0.000161023
4.08854e-05
0.000136589
5.05463e-05
0.000111694
5.93909e-05
8.68573e-05
6.75848e-05
6.22129e-05
7.569e-05
3.69106e-05
8.36611e-05
9.91703e-06
9.03964e-05
-1.65942e-05
9.59782e-05
-4.15491e-05
0.000100369
-6.46649e-05
0.000103502
-8.55824e-05
0.000105331
-0.000104147
0.000105773
-0.000120205
0.000104828
-0.000133953
0.000102396
-0.000145183
9.8568e-05
-0.000154659
9.28544e-05
-0.000161058
8.54905e-05
-0.000165907
7.69835e-05
-0.000168358
6.74588e-05
-0.000168873
5.71721e-05
-0.000169338
-0.000163805
-0.000125747
0.000315767
-0.000106368
0.000324287
-8.53652e-05
0.000324587
-6.29495e-05
0.000317843
-3.96125e-05
0.000305169
-1.59663e-05
0.000287706
7.34724e-06
0.00026658
2.97673e-05
0.000242813
5.08866e-05
0.000217231
7.04826e-05
0.000190397
8.85533e-05
0.000162583
0.000105306
0.000133838
0.00012092
0.000104197
0.000135117
7.4138e-05
0.00014738
4.45285e-05
0.000157538
1.60232e-05
0.000165804
-1.11043e-05
0.000172256
-3.65135e-05
0.000176934
-5.99353e-05
0.000179809
-8.12396e-05
0.000180737
-0.000100433
0.000179467
-0.000117669
0.000175648
-0.000133224
0.000168909
-0.00014748
0.000159022
-0.000160944
0.00014593
-0.000173997
0.000129918
-0.000186956
0.000111449
-0.00019964
9.10876e-05
-0.000211503
6.94254e-05
-0.000221743
4.70883e-05
-0.000229399
2.49977e-05
-0.000233408
3.6891e-06
-0.000233709
-1.66107e-05
-0.000230142
-3.57366e-05
-0.000222751
-5.35601e-05
-0.000211733
-6.99846e-05
-0.000197393
-8.49503e-05
-0.000180093
-9.84395e-05
-0.000160191
-0.000110493
-0.000137984
-0.000121222
-0.000113619
-0.000130764
-8.7042e-05
-0.000139041
-5.81539e-05
-0.000145577
-2.73475e-05
-0.000150003
4.47527e-06
-0.000152276
3.6915e-05
-0.000152284
6.92896e-05
-0.000149977
0.000100886
-0.000145359
0.000131068
-0.000138483
0.000159242
-0.000129456
0.000184868
-0.000118422
0.000207448
-0.000105509
0.000226372
-9.06738e-05
0.000240539
-7.35935e-05
0.000247655
-5.54555e-05
0.000248372
-3.66342e-05
0.000244013
-1.75182e-05
0.000235007
1.51511e-06
0.000221932
2.0097e-05
0.000205486
3.7892e-05
0.000186447
5.46151e-05
0.000165619
7.00478e-05
0.000143748
8.4063e-05
0.000121405
9.66471e-05
9.88749e-05
0.000107918
7.6049e-05
0.00011803
5.24529e-05
0.000126787
2.81482e-05
0.000133757
4.3053e-06
0.000138983
-1.884e-05
0.000142389
-4.12061e-05
0.000143891
-6.27246e-05
0.000143418
-8.34244e-05
0.000140906
-0.000103351
0.000136321
-0.000122524
0.000129676
-0.000140916
0.000121037
-0.000158429
0.000110533
-0.00017489
9.83505e-05
-0.000190059
8.47433e-05
-0.000203647
7.00203e-05
-0.000215319
5.45281e-05
-0.000224643
3.86337e-05
-0.0002309
2.27317e-05
-0.00023276
7.02713e-06
-0.000231201
-8.3033e-06
-0.000226326
-2.30991e-05
-0.000218171
-3.72111e-05
-0.000206847
-5.04979e-05
-0.000192548
-6.28304e-05
-0.000175552
-7.40976e-05
-0.000156227
-8.42191e-05
-0.000135005
-9.31698e-05
-0.000112312
-0.000101017
-8.8463e-05
-0.000107969
-6.34579e-05
-0.000114275
-3.67118e-05
-0.000119602
-7.77338e-06
-0.000123302
2.21622e-05
-0.000125365
5.23658e-05
-0.000125754
8.23049e-05
-0.00012449
0.000111332
-0.000121639
0.000138904
-0.000117267
0.00016453
-0.000111458
0.000187777
-0.000104323
0.000208293
-9.60071e-05
0.00022581
-8.66661e-05
0.00024005
-7.63898e-05
0.00025046
-6.49737e-05
0.000255536
-5.2966e-05
0.000254779
-4.04713e-05
0.000249798
-2.77462e-05
0.000240781
-1.48837e-05
0.00022807
-2.05286e-06
0.000212051
1.05757e-05
0.000193198
2.28246e-05
0.00017208
3.45079e-05
0.00014934
4.54528e-05
0.000125644
5.55472e-05
0.0001016
6.47969e-05
7.76076e-05
7.34773e-05
5.35325e-05
8.20805e-05
2.83074e-05
9.00713e-05
1.92622e-06
9.67734e-05
-2.32964e-05
0.000102254
-4.70295e-05
0.00010647
-6.8881e-05
0.000109374
-8.84862e-05
0.000110931
-0.000105704
0.000111072
-0.000120346
0.00010985
-0.000132732
0.000107062
-0.000142394
0.000102657
-0.000150255
9.63609e-05
-0.000154761
8.86211e-05
-0.000158167
7.97913e-05
-0.000159528
6.99645e-05
-0.000159046
5.93927e-05
-0.000158766
-0.000152748
-0.000129032
0.000296497
-0.000107414
0.000302669
-8.40826e-05
0.000301256
-5.93502e-05
0.00029311
-3.38285e-05
0.000279647