/*--------------------------------*- C++ -*----------------------------------*\
| =========                 |                                                 |
| \\      /  F ield         | OpenFOAM: The Open Source CFD Toolbox           |
|  \\    /   O peration     | Version:  2206                                  |
|   \\  /    A nd           | Website:  www.openfoam.com                      |
|    \\/     M anipulation  |                                                 |
\*---------------------------------------------------------------------------*/
FoamFile
{
    version     2.0;
    format      ascii;
    arch        "LSB;label=32;scalar=64";
    class       volVectorField;
    location    "18.2001";
    object      ddt0(U);
}
// * * * * * * * * * * * * * * * * * * * * * * * * * * * * * * * * * * * * * //

dimensions      [0 1 -2 0 0 0 0];

internalField   nonuniform List<vector> 
1848
(
(-9.48367 42.5032 0)
(-43.4918 55.6754 0)
(-66.6481 53.941 0)
(-89.7965 43.3282 0)
(-100.778 21.9693 0)
(-108.749 -11.202 0)
(-112.5 -59.6246 0)
(-127.117 -141.965 0)
(-157.596 -249.024 0)
(-117.964 -290.44 0)
(-27.2753 -247.423 0)
(50.4753 -181.381 0)
(103.325 -112.762 0)
(145.491 -60.68 0)
(181.061 -1.5337 0)
(204.301 46.7617 0)
(221.027 78.8708 0)
(225.437 102.573 0)
(210.895 128.05 0)
(192.535 152.8 0)
(216.029 142.396 0)
(307.212 71.7053 0)
(404.974 -3.79756 0)
(381.86 8.04688 0)
(276.506 95.4332 0)
(132.714 191.044 0)
(36.5244 239.449 0)
(-74.5474 254.547 0)
(-117.025 244.782 0)
(-140.874 224.273 0)
(-151.426 195.835 0)
(-157.232 165.323 0)
(-162.039 136.591 0)
(-169.354 107.206 0)
(-184.37 70.5355 0)
(-207.786 21.0926 0)
(-241.235 -43.0369 0)
(-280.653 -123.401 0)
(-319.393 -214.78 0)
(-347.451 -302.669 0)
(-350.389 -366.919 0)
(-312.351 -382.395 0)
(-245.865 -359.201 0)
(-167.742 -308.378 0)
(-85.5302 -241.409 0)
(-19.3606 -168.8 0)
(40.6903 -104.587 0)
(106.041 -28.167 0)
(152.635 37.2027 0)
(188.091 87.0717 0)
(207.982 120.908 0)
(213.059 137.123 0)
(206.577 131.961 0)
(200.814 107.732 0)
(201.157 63.9221 0)
(205.536 5.70999 0)
(207.109 -47.2691 0)
(198.288 -72.2367 0)
(182.395 -64.5882 0)
(161.394 -32.7714 0)
(136.915 14.3432 0)
(105.345 71.2838 0)
(67.5439 122.913 0)
(31.983 161.95 0)
(-2.32095 183.965 0)
(-33.2565 189.073 0)
(-58.5469 178.734 0)
(-78.6093 158.911 0)
(-93.3098 132.608 0)
(-102.829 103.023 0)
(-108.164 72.6449 0)
(-110.87 42.8055 0)
(-112.274 14.0305 0)
(-112.147 -12.401 0)
(-112.709 -35.9088 0)
(-114.863 -57.7374 0)
(-119.013 -79.5379 0)
(-125.738 -103.035 0)
(-134.658 -128.531 0)
(-141.644 -152.173 0)
(-137.555 -164.767 0)
(-119.671 -161.13 0)
(-93.9678 -144.92 0)
(-61.972 -121.482 0)
(-27.224 -97.0549 0)
(-7.50403 -70.6313 0)
(53.1442 -38.6247 0)
(94.2176 -2.51769 0)
(131.112 22.7554 0)
(155.989 35.6299 0)
(163.198 35.0647 0)
(157.464 25.4947 0)
(144.018 13.7485 0)
(125.724 4.50103 0)
(106.122 0.575622 0)
(87.6865 3.20815 0)
(71.7753 12.6576 0)
(58.0193 28.6734 0)
(43.9236 47.186 0)
(31.4159 65.9779 0)
(18.9029 82.7116 0)
(5.88077 95.5698 0)
(-7.42225 102.941 0)
(-20.0762 103.036 0)
(-31.3298 96.8937 0)
(-41.0244 86.1703 0)
(-48.9298 71.8941 0)
(-55.1724 55.1754 0)
(-60.3669 36.8565 0)
(-64.7504 17.511 0)
(-67.183 -2.15668 0)
(-14.0163 70.4712 0)
(-39.7489 72.1879 0)
(-61.3584 66.3538 0)
(-76.5111 52.6151 0)
(-85.8774 28.3405 0)
(-89.0541 -10.4069 0)
(-79.353 -60.5603 0)
(-62.2849 -126.666 0)
(-62.5476 -227.717 0)
(-74.6236 -333.338 0)
(-26.374 -316.395 0)
(30.6315 -246.537 0)
(81.0095 -170.595 0)
(121.733 -102.13 0)
(158.18 -34.6663 0)
(190.017 13.923 0)
(211.011 64.3417 0)
(210.967 113.056 0)
(213.817 145.248 0)
(272.325 120.325 0)
(389.456 33.2273 0)
(458.114 -24.8802 0)
(391.815 29.4252 0)
(266.738 145.741 0)
(123.652 239.35 0)
(24.3565 298.894 0)
(-68.3595 319.626 0)
(-108.951 303.648 0)
(-131.229 269.268 0)
(-138.993 231.189 0)
(-134.682 194.028 0)
(-123.512 160.898 0)
(-109.585 133.446 0)
(-97.79 110.101 0)
(-94.3094 84.582 0)
(-105.123 45.9555 0)
(-130.089 -12.2591 0)
(-168.301 -85.9388 0)
(-208.777 -178.853 0)
(-245.439 -274.741 0)
(-273.484 -359.17 0)
(-279.385 -412.59 0)
(-250.582 -414.77 0)
(-199.27 -379.661 0)
(-137.441 -318.054 0)
(-73.7607 -240.888 0)
(-15.9543 -159.287 0)
(39.1795 -85.3342 0)
(91.5314 -9.91077 0)
(134.538 54.8134 0)
(166.509 100.4 0)
(185.377 128.823 0)
(194.396 131.186 0)
(199.763 105.743 0)
(207.61 59.8215 0)
(212.415 4.42254 0)
(207.36 -39.6547 0)
(192.844 -56.2495 0)
(172.592 -43.8669 0)
(149.756 -8.5458 0)
(123.316 45.7515 0)
(87.6919 105.758 0)
(53.1387 159.274 0)
(19.0638 197.345 0)
(-13.3665 216.909 0)
(-40.9182 216.389 0)
(-62.6991 200.804 0)
(-78.7205 175.059 0)
(-88.6355 142.892 0)
(-92.8566 108.188 0)
(-92.5797 74.1121 0)
(-90.4548 42.3855 0)
(-88.0801 12.9327 0)
(-84.5542 -13.7369 0)
(-81.8819 -35.9948 0)
(-82.2941 -55.5788 0)
(-85.6651 -74.8062 0)
(-91.6441 -95.9606 0)
(-99.7287 -120.28 0)
(-108.604 -146.546 0)
(-114.5 -169.68 0)
(-109.087 -177.043 0)
(-93.253 -169.413 0)
(-69.0737 -150.355 0)
(-39.0183 -126.681 0)
(-15.3742 -103.583 0)
(17.8046 -81.0584 0)
(53.9225 -45.5696 0)
(88.5079 -11.2431 0)
(118.617 13.4913 0)
(137.225 27.5167 0)
(141.316 30.5257 0)
(134.903 27.025 0)
(121.914 22.3821 0)
(105.146 19.8641 0)
(87.3951 21.6261 0)
(70.5201 29.6114 0)
(54.4917 44.1228 0)
(39.1799 61.189 0)
(26.0743 79.1236 0)
(13.6977 95.541 0)
(1.63087 108.384 0)
(-9.99251 115.487 0)
(-20.3884 114.059 0)
(-29.4947 106.582 0)
(-37.0782 94.1149 0)
(-42.7153 77.9988 0)
(-46.3203 59.7915 0)
(-48.8006 40.6248 0)
(-51.5836 20.5892 0)
(-53.2526 -0.309914 0)
(-9.90761 96.3601 0)
(-30.5127 96.8938 0)
(-48.3024 85.5773 0)
(-63.7701 65.3456 0)
(-72.8076 34.9683 0)
(-77.1216 -13.5121 0)
(-77.7554 -79.7375 0)
(-66.798 -155.78 0)
(-52.6438 -242.147 0)
(-38.7887 -327.161 0)
(-14.1222 -344.66 0)
(17.3545 -291.151 0)
(54.3751 -215.764 0)
(90.545 -131.991 0)
(121.623 -65.0381 0)
(146.508 -11.3589 0)
(175.763 57.8882 0)
(218.581 101.895 0)
(306.972 68.8464 0)
(426.97 -9.71831 0)
(456.823 -31.1431 0)
(379.91 48.5867 0)
(247.781 171.266 0)
(128.773 274.475 0)
(13.0902 355.019 0)
(-76.4174 385.506 0)
(-116.881 367.062 0)
(-136.711 325.72 0)
(-141.327 275.282 0)
(-133.229 224.511 0)
(-115.482 178.209 0)
(-91.5303 139.627 0)
(-64.7866 110.883 0)
(-39.5735 92.5147 0)
(-20.7021 78.6602 0)
(-14.7435 60.2255 0)
(-28.0717 24.6334 0)
(-61.9563 -48.8186 0)
(-105.759 -138.885 0)
(-147.171 -237.383 0)
(-185.176 -331.112 0)
(-213.629 -405.567 0)
(-218.836 -438.836 0)
(-197.541 -422.794 0)
(-159.483 -372.098 0)
(-111.822 -299.322 0)
(-60.8518 -217.106 0)
(-16.3933 -132.692 0)
(28.656 -58.4513 0)
(73.1392 8.95737 0)
(114.284 70.9434 0)
(146.106 107.99 0)
(167.839 116.586 0)
(182.993 94.567 0)
(195.167 52.5488 0)
(198.933 5.80976 0)
(191.072 -27.8561 0)
(174.066 -37.2738 0)
(152.373 -21.4352 0)
(129.41 18.8877 0)
(97.4513 77.4969 0)
(64.3526 139.812 0)
(32.2126 193.218 0)
(0.804972 230.005 0)
(-27.4573 246.17 0)
(-49.5551 239.363 0)
(-65.9997 218.016 0)
(-76.1501 185.762 0)
(-79.797 147.19 0)
(-77.6158 107.22 0)
(-71.6057 70.2621 0)
(-64.594 37.9971 0)
(-58.8631 7.1709 0)
(-51.6471 -18.6241 0)
(-46.2195 -37.9589 0)
(-45.7601 -53.9096 0)
(-49.708 -70.1643 0)
(-56.5267 -88.8524 0)
(-65.2876 -111.397 0)
(-75.0684 -137.37 0)
(-84.5004 -163.696 0)
(-89.3876 -183.257 0)
(-83.2721 -185.259 0)
(-68.3536 -174.502 0)
(-46.4381 -154.586 0)
(-20.9449 -131.177 0)
(3.17559 -105.181 0)
(27.5411 -77.1337 0)
(54.2997 -44.3888 0)
(78.4644 -11.7442 0)
(98.9253 12.383 0)
(111.104 27.1528 0)
(111.706 33.4415 0)
(104.381 34.9277 0)
(92.2306 35.4823 0)
(77.5998 38.5182 0)
(62.1208 46.9902 0)
(46.107 59.9848 0)
(31.8656 75.5723 0)
(19.4361 92.0802 0)
(8.04626 107.498 0)
(-2.54204 119.728 0)
(-11.9971 125.686 0)
(-19.8731 122.958 0)
(-26.5372 114.098 0)
(-31.7478 99.7941 0)
(-35.1198 81.6374 0)
(-36.3257 61.7171 0)
(-35.6578 41.9179 0)
(-35.9805 22.1858 0)
(-36.9127 0.114757 0)
(-6.95287 113.35 0)
(-22.4228 114.874 0)
(-36.4666 100.757 0)
(-48.5172 76.1358 0)
(-56.458 35.1895 0)
(-58.874 -12.9279 0)
(-57.067 -89.4019 0)
(-55.9326 -175.6 0)
(-52.1935 -260.608 0)
(-46.8787 -332.659 0)
(-30.9025 -354.375 0)
(-11.1564 -313.401 0)
(15.0932 -242.308 0)
(47.6699 -165.597 0)
(88.4703 -94.0302 0)
(139.519 -39.3442 0)
(207.68 -9.78211 0)
(317.877 -15.8199 0)
(402.397 -50.0131 0)
(403.439 -29.3447 0)
(337.657 56.8459 0)
(212.959 173.825 0)
(129.923 289.993 0)
(-13.7003 394.705 0)
(-95.5991 442.627 0)
(-135.402 430.74 0)
(-151.352 387.199 0)
(-151.532 328.429 0)
(-139.147 264.895 0)
(-117.094 203.917 0)
(-88.2079 150.276 0)
(-54.2103 107.867 0)
(-17.0367 78.23 0)
(16.9522 62.7922 0)
(42.9016 57.5577 0)
(57.9281 50.2308 0)
(62.1032 37.642 0)
(36.9117 8.37481 0)
(-3.71836 -99.2495 0)
(-52.4923 -193.939 0)
(-99.8641 -292.324 0)
(-140.926 -377.514 0)
(-169.214 -432.643 0)
(-174.236 -438.013 0)
(-159.606 -403.113 0)
(-131.993 -340.442 0)
(-95.7728 -260.742 0)
(-57.0759 -176.164 0)
(-20.1184 -97.8743 0)
(12.8694 -35.0067 0)
(56.9887 23.2984 0)
(97.6307 77.6341 0)
(129.598 92.2001 0)
(152.316 78.0183 0)
(166.069 44.4314 0)
(169.389 8.80915 0)
(160.746 -14.4642 0)
(143.656 -17.6832 0)
(122.958 2.42161 0)
(96.2388 48.4859 0)
(64.0685 109.272 0)
(33.6022 171.72 0)
(4.16422 223.976 0)
(-22.8547 258.319 0)
(-44.2317 268.825 0)
(-58.4476 256.153 0)
(-66.8961 228.208 0)
(-68.9456 189.245 0)
(-65.5579 144.881 0)
(-57.3933 100.455 0)
(-45.7583 60.5831 0)
(-34.2033 28.2793 0)
(-24.7742 1.48669 0)
(-12.9082 -27.8505 0)
(-6.83027 -42.6891 0)
(-6.17978 -51.9589 0)
(-12.788 -62.8637 0)
(-21.7036 -79.6482 0)
(-32.01 -101.459 0)
(-42.8402 -127.365 0)
(-53.4654 -154.854 0)
(-62.295 -178.889 0)
(-64.9475 -191.733 0)
(-58.362 -188.495 0)
(-45.2346 -175.054 0)
(-27.9464 -154.174 0)
(-9.74904 -127.446 0)
(7.38504 -96.1444 0)
(25.6164 -65.0822 0)
(45.675 -34.2198 0)
(60.0723 -5.00614 0)
(72.7146 17.4814 0)
(80.1172 33.6941 0)
(78.7099 42.2797 0)
(71.2072 46.9931 0)
(60.2716 52.9219 0)
(46.8953 62.0156 0)
(33.3193 73.993 0)
(21.1489 88.3094 0)
(10.2244 103.419 0)
(0.460119 117.712 0)
(-8.12661 128.937 0)
(-14.7853 133.169 0)
(-19.3816 129.085 0)
(-22.6684 118.851 0)
(-24.6678 102.914 0)
(-25.4023 82.8365 0)
(-24.6567 60.9156 0)
(-21.6226 39.9886 0)
(-19.0777 21.5001 0)
(-18.8918 1.85383 0)
(-44.0689 -83.1764 0)
(-42.3709 -189.129 0)
(-44.5905 -279.241 0)
(-40.5373 -345.682 0)
(-27.757 -367.611 0)
(-13.0419 -334.643 0)
(18.3792 -277.599 0)
(64.3967 -214.166 0)
(124.108 -159.18 0)
(191.12 -127.011 0)
(256.059 -112.301 0)
(302.769 -78.1164 0)
(308.515 -35.6565 0)
(257.181 44.762 0)
(180.344 148.725 0)
(79.1744 280.895 0)
(-50.959 408.918 0)
(-134.837 482.48 0)
(-172.506 486.552 0)
(-181.073 446.847 0)
(-171.391 385.099 0)
(-149.646 313.345 0)
(-120.319 240.098 0)
(-86.7133 172.011 0)
(-50.0994 114.06 0)
(-11.7801 64.9736 0)
(30.4668 36.4275 0)
(70.4473 35.3436 0)
(112.191 36.0711 0)
(132.705 42.3329 0)
(134.556 39.4611 0)
(124.053 20.4332 0)
(89.9305 -49.7399 0)
(36.3238 -141.853 0)
(-19.2914 -243.215 0)
(-69.7819 -335.934 0)
(-112.095 -403.6 0)
(-138.993 -431.383 0)
(-145.792 -412.515 0)
(-138.402 -362.947 0)
(-118.622 -291.76 0)
(-90.9703 -210.801 0)
(-59.1504 -131.122 0)
(-27.5482 -65.1454 0)
(1.86093 -20.7478 0)
(42.8281 35.915 0)
(82.0932 60.8909 0)
(109.92 56.9467 0)
(124.523 35.4523 0)
(127.51 11.6958 0)
(119.605 -2.30616 0)
(104.47 0.869227 0)
(83.0122 28.7052 0)
(52.9023 77.9031 0)
(23.5449 139.576 0)
(-4.55372 200.501 0)
(-30.1679 250.223 0)
(-50.554 280.169 0)
(-61.9603 282.204 0)
(-65.6628 263.3 0)
(-63.3814 229.115 0)
(-56.0691 184.588 0)
(-45.3401 135.313 0)
(-32.0494 86.6754 0)
(-16.4606 46.245 0)
(-1.08179 17.0405 0)
(17.0107 -14.5329 0)
(29.6558 -36.5854 0)
(32.9848 -43.3748 0)
(29.0672 -48.0214 0)
(23.3709 -55.7354 0)
(13.7081 -69.263 0)
(1.55652 -89.7882 0)
(-11.1193 -115.603 0)
(-23.4732 -143.99 0)
(-34.6956 -170.476 0)
(-42.8324 -189.943 0)
(-44.2081 -193.975 0)
(-39.7072 -185.784 0)
(-31.2391 -168.025 0)
(-20.3721 -142.948 0)
(-8.40159 -112.794 0)
(2.38069 -79.4333 0)
(12.5077 -47.4608 0)
(26.3973 -17.7599 0)
(37.5039 7.01663 0)
(45.1456 27.4266 0)
(46.9839 43.4745 0)
(44.0616 54.4632 0)
(36.8636 63.7965 0)
(27.2033 74.201 0)
(17.075 86.0956 0)
(7.43538 99.2998 0)
(-1.38666 113.098 0)
(-9.22599 126.07 0)
(-15.4908 135.639 0)
(-18.8549 136.93 0)
(-19.6727 131.317 0)
(-18.6522 119.63 0)
(-16.3636 102.703 0)
(-13.552 81.8497 0)
(-10.5583 58.42 0)
(-7.09691 34.9907 0)
(-2.78843 16.1014 0)
(-5.43598 0.0570046 0)
(-5.4483 0.000556957 0)
(-5.42645 -0.0581037 0)
(-5.2924 -0.113585 0)
(-5.09436 -0.157536 0)
(-4.84439 -0.18985 0)
(-4.54416 -0.215944 0)
(-4.19778 -0.240997 0)
(-3.80793 -0.27204 0)
(-3.35674 -0.328488 0)
(-2.82926 -0.403192 0)
(-2.18533 -0.50901 0)
(-1.35505 -0.681532 0)
(-0.256749 -0.917037 0)
(1.19974 -1.19365 0)
(3.03654 -1.48526 0)
(5.56243 -1.61163 0)
(7.95204 -1.40184 0)
(10.2404 -0.905233 0)
(-5.88071 0.0464876 0)
(-5.81149 -0.0356392 0)
(-5.68167 -0.129534 0)
(-5.49747 -0.226495 0)
(-5.27209 -0.313902 0)
(-5.01462 -0.388186 0)
(-4.72779 -0.452133 0)
(-4.41213 -0.512389 0)
(-4.0726 -0.581895 0)
(-3.68904 -0.678223 0)
(-3.2514 -0.823358 0)
(-2.76122 -1.03727 0)
(-2.17893 -1.33536 0)
(-1.40719 -1.73591 0)
(-0.494169 -2.2471 0)
(0.688269 -2.8641 0)
(2.11821 -3.54162 0)
(4.34269 -4.19965 0)
(7.42426 -4.8491 0)
(-6.42322 -0.0173738 0)
(-6.32344 -0.173853 0)
(-6.16528 -0.330453 0)
(-5.9549 -0.470533 0)
(-5.70959 -0.59202 0)
(-5.44422 -0.700429 0)
(-5.16478 -0.794884 0)
(-4.88021 -0.88 0)
(-4.59987 -0.965709 0)
(-4.32222 -1.14999 0)
(-4.04923 -1.25482 0)
(-3.76923 -1.44617 0)
(-3.47249 -1.93906 0)
(-3.14951 -2.43179 0)
(-2.77599 -3.06097 0)
(-2.30674 -3.84899 0)
(-1.67929 -4.80096 0)
(-0.807387 -5.95221 0)
(0.481769 -7.32829 0)
(-6.75051 -0.103961 0)
(-6.65354 -0.331301 0)
(-6.48057 -0.558474 0)
(-6.2484 -0.738989 0)
(-5.96645 -0.864488 0)
(-5.68301 -0.965388 0)
(-5.38831 -1.04634 0)
(-5.10381 -1.10551 0)
(-4.8532 -1.1655 0)
(-4.64947 -1.25991 0)
(-4.4907 -1.42161 0)
(-4.35095 -1.68253 0)
(-4.23738 -2.0591 0)
(-4.17382 -2.56878 0)
(-4.14695 -3.23944 0)
(-4.13818 -4.09576 0)
(-4.14206 -5.1529 0)
(-4.08791 -6.51159 0)
(-3.89187 -8.2789 0)
(-6.99822 -0.0953677 0)
(-6.98285 -0.419819 0)
(-6.85751 -0.738175 0)
(-6.6957 -0.994427 0)
(-6.30047 -1.1942 0)
(-5.96475 -1.33075 0)
(-5.65769 -1.40084 0)
(-5.36987 -1.43305 0)
(-5.13831 -1.46383 0)
(-4.99956 -1.51775 0)
(-4.9053 -1.61417 0)
(-4.92318 -1.78556 0)
(-5.02448 -2.08413 0)
(-5.17789 -2.51637 0)
(-5.41999 -3.10324 0)
(-5.73055 -3.89709 0)
(-6.14861 -4.9461 0)
(-6.37173 -6.36599 0)
(-6.83018 -8.21287 0)
(-7.27192 -0.0715875 0)
(-7.21751 -0.514178 0)
(-7.0145 -0.906324 0)
(-6.72477 -1.2332 0)
(-6.41971 -1.47577 0)
(-6.10348 -1.59557 0)
(-5.79954 -1.61379 0)
(-5.55399 -1.57377 0)
(-5.39322 -1.5081 0)
(-5.33236 -1.46329 0)
(-5.36949 -1.48004 0)
(-5.49858 -1.58967 0)
(-5.70886 -1.82659 0)
(-6.04108 -2.20402 0)
(-6.34169 -2.73149 0)
(-6.90521 -3.42154 0)
(-7.52541 -4.34393 0)
(-8.21971 -5.59707 0)
(-10.0756 -7.25705 0)
(-7.81005 0.000322303 0)
(-7.79874 -0.617766 0)
(-7.62124 -1.31512 0)
(-7.32902 -1.57217 0)
(-6.99669 -1.96318 0)
(-6.6685 -2.08531 0)
(-6.39043 -2.04286 0)
(-6.20373 -1.90911 0)
(-6.12732 -1.73608 0)
(-6.1629 -1.57135 0)
(-6.31521 -1.45877 0)
(-6.57915 -1.43927 0)
(-6.93996 -1.54647 0)
(-7.42551 -1.80801 0)
(-7.97887 -2.21181 0)
(-8.71016 -2.73934 0)
(-9.68272 -3.39474 0)
(-11.0273 -4.13873 0)
(-12.9217 -5.26217 0)
(-8.75149 0.17731 0)
(-8.90798 -0.613705 0)
(-8.97601 -1.26115 0)
(-8.91201 -1.72918 0)
(-8.77213 -2.00151 0)
(-8.62852 -2.07636 0)
(-8.50609 -1.98192 0)
(-8.4351 -1.77637 0)
(-8.44546 -1.531 0)
(-8.54936 -1.26514 0)
(-8.74973 -1.0589 0)
(-9.04664 -0.960822 0)
(-9.44243 -0.993936 0)
(-9.95487 -1.16544 0)
(-10.6253 -1.44791 0)
(-11.5101 -1.77036 0)
(-12.7419 -2.03827 0)
(-14.5961 -2.16595 0)
(-17.368 -2.21091 0)
(-6.2009 0.604911 0)
(-6.32101 -0.386565 0)
(-6.60954 -1.28986 0)
(-7.02946 -1.97162 0)
(-7.53217 -2.39981 0)
(-8.08364 -2.55157 0)
(-8.65525 -2.43854 0)
(-9.22399 -2.1359 0)
(-9.78435 -1.75067 0)
(-10.3248 -1.35481 0)
(-10.8387 -1.01028 0)
(-11.3391 -0.762527 0)
(-11.8563 -0.632433 0)
(-12.4294 -0.61817 0)
(-13.1029 -0.678222 0)
(-13.9247 -0.725191 0)
(-14.9985 -0.554988 0)
(-16.6338 0.0936755 0)
(-19.7206 1.93818 0)
(-2.45969 -0.530489 0)
(-2.51797 -0.740869 0)
(-3.18435 -0.846647 0)
(-4.34325 -0.845992 0)
(-5.78708 -0.775824 0)
(-7.45073 -0.652471 0)
(-9.0499 -0.475942 0)
(-10.3977 -0.27776 0)
(-11.5199 -0.10727 0)
(-12.3677 0.0113688 0)
(-12.948 0.0695048 0)
(-13.3273 0.0660612 0)
(-13.5966 0.00708237 0)
(-13.838 -0.0944594 0)
(-14.1166 -0.204445 0)
(-14.3867 -0.266516 0)
(-14.7744 -0.0943688 0)
(-13.9054 0.479981 0)
(-14.9881 3.25774 0)
(12.7015 -0.42213 0)
(15.1199 -0.0439809 0)
(17.2818 0.263746 0)
(19.2191 0.0601817 0)
(20.7928 -2.19242 0)
(24.9598 -8.49156 0)
(34.5754 -16.5521 0)
(51.0877 -20.4442 0)
(71.8227 -14.9283 0)
(93.3519 -5.6054 0)
(108.326 3.88319 0)
(110.529 16.3686 0)
(89.5048 24.8261 0)
(60.2744 25.4686 0)
(23.4743 23.6352 0)
(-12.9526 18.3145 0)
(-44.9653 15.7271 0)
(-68.4427 13.535 0)
(-85.7447 7.77006 0)
(-97.4796 1.83403 0)
(-97.1283 -3.0512 0)
(-96.4983 -6.21105 0)
(-91.1897 -7.73439 0)
(-82.8748 -7.82765 0)
(-71.8458 -7.43585 0)
(-58.2499 -7.81794 0)
(-42.2123 -8.65053 0)
(-25.1127 -9.26574 0)
(-8.65931 -10.069 0)
(6.48755 -8.58681 0)
(21.2736 -7.26675 0)
(33.8544 -5.89032 0)
(44.1857 -4.24652 0)
(50.7106 -1.58836 0)
(51.1099 1.30743 0)
(47.7291 3.15036 0)
(39.8981 5.19225 0)
(29.8856 7.11898 0)
(18.5741 6.86551 0)
(6.31198 5.504 0)
(-2.36353 3.42584 0)
(-7.1654 1.09651 0)
(-7.35449 -1.26629 0)
(-3.03886 -3.30619 0)
(4.89523 -4.65967 0)
(14.532 -5.42297 0)
(24.4437 -5.25279 0)
(33.65 -4.13833 0)
(39.1489 -0.747987 0)
(38.5575 1.705 0)
(33.6317 4.28919 0)
(23.2407 6.66386 0)
(8.7078 8.26233 0)
(-6.61869 8.19995 0)
(-19.646 6.47915 0)
(-29.155 3.39946 0)
(-33.1174 0.282029 0)
(-30.6654 -2.41045 0)
(-24.3138 -4.30702 0)
(-14.6166 -5.22911 0)
(-4.18455 -4.95905 0)
(4.52079 -3.9564 0)
(10.4813 -2.23837 0)
(13.196 -0.41938 0)
(12.5098 1.18355 0)
(8.90762 2.58605 0)
(2.76805 3.53092 0)
(-3.98831 4.03877 0)
(-10.8764 3.87534 0)
(-17.2329 2.41544 0)
(-21.1412 1.59568 0)
(-23.4861 0.592623 0)
(-23.8305 -0.403292 0)
(-22.1496 -1.35658 0)
(-18.5243 -2.21731 0)
(-13.2807 -2.86383 0)
(-7.29734 -3.16287 0)
(-1.35706 -3.27877 0)
(4.11217 -2.68066 0)
(8.79389 -1.97365 0)
(11.9999 -1.20678 0)
(13.5371 -0.412833 0)
(13.533 0.337956 0)
(12.2004 0.902535 0)
(10.0031 1.17344 0)
(7.51981 1.24921 0)
(5.25356 1.01916 0)
(3.49096 0.650765 0)
(2.56316 0.201968 0)
(2.60405 -0.275965 0)
(3.6046 -0.701956 0)
(5.24833 -1.00146 0)
(7.27891 -1.05757 0)
(9.32862 -0.94292 0)
(10.9871 -0.675591 0)
(11.9854 -0.30205 0)
(12.1583 0.127429 0)
(11.4394 0.562344 0)
(9.83437 0.962746 0)
(7.4104 1.32883 0)
(4.67352 1.74844 0)
(1.76612 1.77356 0)
(-1.5892 1.72583 0)
(-4.94729 1.61361 0)
(-8.0761 1.43119 0)
(-10.7974 1.18183 0)
(-12.9826 0.876676 0)
(-14.4855 0.543802 0)
(-15.2882 0.204063 0)
(-15.4342 -0.126835 0)
(-14.9062 -0.431533 0)
(11.6549 -5.50483 0)
(17.2564 -6.19991 0)
(24.4649 -6.89122 0)
(33.7589 -7.45284 0)
(45.0902 -7.86047 0)
(58.9731 -8.77771 0)
(69.9771 -12.2093 0)
(73.3651 -17.1739 0)
(72.9126 -19.3536 0)
(65.1493 -16.2796 0)
(50.6925 -6.04009 0)
(34.9652 9.9558 0)
(25.4977 28.9214 0)
(11.585 43.9408 0)
(-12.4618 52.026 0)
(-42.6244 52.5967 0)
(-63.0699 47.3279 0)
(-76.4837 32.6702 0)
(-82.9971 19.0154 0)
(-81.4915 9.2382 0)
(-76.8665 2.10048 0)
(-71.1014 -3.22017 0)
(-66.4019 -10.7251 0)
(-61.4665 -17.1504 0)
(-55.9841 -20.785 0)
(-48.46 -24.0478 0)
(-36.5577 -23.6965 0)
(-21.3103 -21.8117 0)
(-3.88506 -22.6899 0)
(11.6484 -21.7131 0)
(24.9357 -19.3876 0)
(35.9526 -15.2435 0)
(43.7908 -10.322 0)
(49.7524 -5.52673 0)
(51.0993 0.923812 0)
(46.9735 7.7759 0)
(39.6389 14.3344 0)
(28.5284 19.4248 0)
(16.665 18.7055 0)
(5.31514 15.6529 0)
(-3.46089 9.90466 0)
(-8.17272 3.3284 0)
(-8.02795 -3.48748 0)
(-3.31709 -9.55594 0)
(4.768 -13.4003 0)
(15.0433 -14.8489 0)
(25.4492 -13.6449 0)
(35.2736 -10.0984 0)
(40.4159 -4.69059 0)
(39.6338 2.31982 0)
(34.5798 10.7128 0)
(22.912 19.1978 0)
(5.83886 24.4731 0)
(-11.2157 24.2149 0)
(-23.5376 17.3645 0)
(-31.2428 8.58451 0)
(-33.6189 -0.00656273 0)
(-30.9943 -7.65056 0)
(-23.5535 -13.1667 0)
(-12.8824 -15.3142 0)
(-2.03213 -14.438 0)
(6.82735 -11.3807 0)
(12.2375 -6.18619 0)
(14.0737 -1.13646 0)
(12.7256 3.30642 0)
(8.38315 7.33756 0)
(1.76424 10.3427 0)
(-5.13998 11.9708 0)
(-12.7583 10.2244 0)
(-18.4084 7.56772 0)
(-21.1164 4.5307 0)
(-23.0121 1.51629 0)
(-22.9445 -1.2626 0)
(-21.0299 -4.0871 0)
(-17.2327 -6.89495 0)
(-11.9378 -8.6702 0)
(-6.00387 -9.28095 0)
(0.205786 -8.96158 0)
(5.8799 -7.51102 0)
(10.1316 -5.49825 0)
(12.9643 -3.22837 0)
(14.2749 -0.956742 0)
(14.0367 1.23009 0)
(12.4315 2.86425 0)
(10.0699 3.52821 0)
(7.50483 3.69146 0)
(5.04693 3.0844 0)
(3.21884 2.00916 0)
(2.22191 0.684979 0)
(2.19305 -0.769308 0)
(3.12863 -2.08441 0)
(4.75815 -2.98175 0)
(6.73884 -3.13964 0)
(8.64524 -2.72957 0)
(10.1637 -1.91105 0)
(11.0227 -0.791223 0)
(11.069 0.490645 0)
(10.2839 1.78364 0)
(8.72278 2.956 0)
(6.55532 3.95391 0)
(3.82528 4.8232 0)
(0.666513 5.08117 0)
(-2.57777 5.05979 0)
(-5.79315 4.78859 0)
(-8.79089 4.26957 0)
(-11.3776 3.52404 0)
(-13.4098 2.59638 0)
(-14.7893 1.56828 0)
(-15.4452 0.515658 0)
(-15.3801 -0.506966 0)
(-14.647 -1.43702 0)
(2.50108 -9.10613 0)
(5.25634 -10.9444 0)
(9.08459 -13.1744 0)
(14.1645 -16.666 0)
(20.4169 -20.0591 0)
(27.2353 -23.0196 0)
(35.5449 -23.7984 0)
(42.6668 -21.2662 0)
(46.0873 -14.7771 0)
(42.018 -4.41208 0)
(27.6072 10.7293 0)
(4.90735 29.538 0)
(-20.4957 48.4278 0)
(-47.3226 63.1109 0)
(-70.4829 67.2235 0)
(-81.4878 65.1831 0)
(-82.2098 50.5608 0)
(-85.9835 25.3931 0)
(-83.299 3.68739 0)
(-76.0697 -11.1673 0)
(-62.043 -20.4484 0)
(-45.0157 -24.2809 0)
(-24.4777 -20.3124 0)
(-11.0637 -11.5545 0)
(-6.19894 -6.49414 0)
(-7.48823 -17.3438 0)
(-13.3324 -34.2598 0)
(-15.0911 -43.3172 0)
(-10.3212 -41.8918 0)
(0.543442 -37.8708 0)
(11.523 -31.7323 0)
(20.5193 -24.0451 0)
(28.2619 -16.1368 0)
(34.8641 -7.75876 0)
(39.3772 1.36834 0)
(40.9571 12.3066 0)
(39.1297 22.4678 0)
(31.6366 29.2712 0)
(19.8852 30.1514 0)
(10.199 26.0087 0)
(0.890361 16.4383 0)
(-4.76817 4.86411 0)
(-6.36728 -6.01543 0)
(-3.01612 -16.4042 0)
(4.20162 -23.4443 0)
(13.6133 -25.5017 0)
(22.5086 -22.5502 0)
(29.6049 -15.3469 0)
(32.634 -6.31923 0)
(31.7227 5.87087 0)
(26.3723 20.0089 0)
(16.1342 33.4195 0)
(2.87672 41.2263 0)
(-11.6302 37.9826 0)
(-21.3891 25.9014 0)
(-24.969 12.1108 0)
(-25.0916 -0.36755 0)
(-22.242 -11.9592 0)
(-16.2773 -23.0318 0)
(-7.18584 -28.4462 0)
(1.72277 -25.9071 0)
(9.14913 -18.299 0)
(13.1514 -8.80241 0)
(13.3559 0.185409 0)
(11.0194 7.82301 0)
(7.49967 14.3195 0)
(2.51409 17.8759 0)
(-5.08201 18.4559 0)
(-12.7376 15.6351 0)
(-17.3875 11.9645 0)
(-20.0063 6.58641 0)
(-21.292 1.37801 0)
(-21.5386 -3.24581 0)
(-20.4924 -7.4948 0)
(-17.2394 -11.086 0)
(-11.8093 -13.6086 0)
(-5.72891 -14.7445 0)
(0.327755 -14.4312 0)
(5.64934 -12.6184 0)
(9.65389 -9.44208 0)
(12.5686 -5.64162 0)
(14.0644 -1.6539 0)
(14.0659 1.95964 0)
(12.3631 5.10011 0)
(9.95669 6.82641 0)
(7.38484 6.6788 0)
(4.59361 5.48284 0)
(2.39227 3.50644 0)
(0.927203 1.18426 0)
(0.470047 -1.2032 0)
(1.20666 -3.32572 0)
(3.00639 -4.72827 0)
(5.25013 -5.07435 0)
(7.34624 -4.44588 0)
(9.11632 -3.0378 0)
(10.2761 -1.09967 0)
(10.6345 0.950872 0)
(10.1382 3.00286 0)
(8.84556 4.83446 0)
(6.92811 6.30245 0)
(4.26719 7.34815 0)
(1.24329 7.98787 0)
(-1.86315 8.17517 0)
(-5.01922 7.85236 0)
(-8.03375 7.05433 0)
(-10.6913 5.8472 0)
(-12.8104 4.32119 0)
(-14.2569 2.60237 0)
(-14.9456 0.822881 0)
(-14.888 -0.914438 0)
(-14.145 -2.50618 0)
(-3.42213 -10.5303 0)
(-2.54713 -13.3739 0)
(-0.965195 -16.8661 0)
(1.50952 -20.8057 0)
(4.96868 -24.8386 0)
(9.41221 -28.3861 0)
(14.754 -29.8595 0)
(20.9829 -27.3091 0)
(28.1832 -19.0532 0)
(35.6048 -3.27073 0)
(41.9706 19.234 0)
(46.2232 44.8047 0)
(47.959 68.5087 0)
(47.2671 85.1137 0)
(45.2022 91.3534 0)
(41.4536 85.9883 0)
(30.7098 66.2931 0)
(18.7407 43.5698 0)
(4.31431 20.7367 0)
(-9.26214 -2.78822 0)
(-24.5968 -19.2024 0)
(-34.5454 -28.1652 0)
(-40.4479 -39.1338 0)
(-42.0636 -41.6588 0)
(-31.9357 -38.2665 0)
(-10.7392 -29.4901 0)
(7.69503 -23.6116 0)
(10.8189 -27.7619 0)
(3.75461 -33.1692 0)
(-4.3995 -37.5184 0)
(-7.50421 -37.753 0)
(-5.19279 -33.2389 0)
(0.719555 -25.652 0)
(8.47464 -16.6334 0)
(18.0247 -5.94105 0)
(27.5298 8.16398 0)
(35.0371 24.4493 0)
(38.5959 36.7946 0)
(32.948 41.4724 0)
(26.1611 35.2023 0)
(18.0289 23.6248 0)
(10.8203 11.087 0)
(4.01404 -6.1424 0)
(1.02778 -21.6462 0)
(3.65197 -28.9408 0)
(10.7244 -30.7343 0)
(15.9063 -28.1084 0)
(16.7964 -18.8876 0)
(14.4953 -5.83004 0)
(11.3533 6.65638 0)
(5.44051 21.4261 0)
(-3.74229 43.5221 0)
(-13.1582 55.2015 0)
(-20.4462 50.1061 0)
(-24.7312 31.896 0)
(-24.4693 12.2405 0)
(-21.6478 -4.40168 0)
(-15.1827 -19.7541 0)
(-4.47648 -30.6556 0)
(8.121 -32.7933 0)
(16.5678 -28.9129 0)
(18.3624 -20.4434 0)
(15.9022 -9.18858 0)
(11.378 0.555563 0)
(7.00788 6.82884 0)
(1.60265 13.7558 0)
(-3.9205 21.652 0)
(-8.0465 25.3994 0)
(-10.5564 22.4476 0)
(-12.0709 17.2457 0)
(-12.5232 10.8878 0)
(-13.4883 4.19209 0)
(-14.6383 -0.555076 0)
(-15.9767 -7.3572 0)
(-16.3171 -18.562 0)
(-14.213 -22.8524 0)
(-9.65692 -23.3832 0)
(-4.00762 -21.2664 0)
(2.19587 -17.3291 0)
(7.12487 -12.4997 0)
(10.7115 -7.1363 0)
(12.6779 -2.48226 0)
(13.9498 4.02058 0)
(13.9903 8.22028 0)
(11.5259 10.033 0)
(8.30345 9.82159 0)
(5.68313 8.29497 0)
(3.22208 5.74235 0)
(1.25551 2.82501 0)
(0.130058 -1.15045 0)
(-0.0888444 -5.11916 0)
(1.12118 -7.27671 0)
(3.26326 -7.82707 0)
(5.58074 -7.08698 0)
(7.66336 -5.3696 0)
(9.34602 -2.87074 0)
(10.1744 0.323215 0)
(10.1681 3.47867 0)
(9.31464 6.30881 0)
(7.66025 8.66272 0)
(5.24194 10.4325 0)
(2.3787 11.461 0)
(-0.90611 11.8417 0)
(-4.42054 11.4947 0)
(-7.89322 10.3973 0)
(-11.0622 8.63578 0)
(-13.6777 6.35897 0)
(-15.5217 3.77755 0)
(-16.4701 1.11911 0)
(-16.3883 -1.40481 0)
(-15.4434 -3.63528 0)
(-7.31402 -10.5645 0)
(-7.65702 -13.685 0)
(-7.88815 -18.0206 0)
(-6.79392 -23.2717 0)
(-4.74216 -28.1785 0)
(-1.16077 -32.5917 0)
(4.67196 -35.3744 0)
(12.9915 -34.6773 0)
(24.1625 -28.4416 0)
(37.8608 -14.2346 0)
(54.0545 7.02518 0)
(70.0551 32.7726 0)
(86.2283 57.3686 0)
(100.729 76.1461 0)
(110.578 84.7392 0)
(114.734 82.8121 0)
(112.276 71.82 0)
(98.5742 52.9139 0)
(82.6821 34.0264 0)
(62.2581 16.125 0)
(37.4721 -0.196588 0)
(14.3333 -12.9854 0)
(-6.18105 -20.369 0)
(-24.0151 -22.1763 0)
(-38.2409 -27.5705 0)
(-54.2881 -37.8886 0)
(-65.2155 -46.9722 0)
(-66.9555 -40.6227 0)
(-63.906 -36.8211 0)
(-57.4287 -39.5381 0)
(-50.2501 -42.2176 0)
(-43.9155 -36.0243 0)
(-41.272 -30.7534 0)
(-38.4453 -27.4375 0)
(-31.9816 -18.9725 0)
(-17.9269 -5.37323 0)
(3.95503 11.3737 0)
(32.3338 32.8939 0)
(59.4265 55.3952 0)
(72.1743 61.1409 0)
(79.2073 38.9169 0)
(70.0071 20.2232 0)
(57.1046 7.1356 0)
(43.6133 -21.26 0)
(23.8775 -41.43 0)
(9.94008 -44.9239 0)
(3.47349 -35.147 0)
(1.92917 -18.5908 0)
(-0.290343 -2.55931 0)
(-4.27236 10.0846 0)
(-10.0619 30.6927 0)
(-16.3867 51.2645 0)
(-19.6563 65.4071 0)
(-18.5529 56.6284 0)
(-20.4265 35.6079 0)
(-25.2853 13.1298 0)
(-29.1585 -4.20742 0)
(-27.902 -18.7748 0)
(-22.9472 -47.3456 0)
(-11.2673 -58.0057 0)
(3.35958 -46.1676 0)
(13.5754 -25.9543 0)
(18.2687 -5.7334 0)
(16.7841 8.6176 0)
(11.3981 17.461 0)
(2.08123 29.5438 0)
(-9.24964 32.5333 0)
(-16.6103 27.4931 0)
(-20.7932 20.4048 0)
(-21.1464 13.364 0)
(-17.1972 6.77205 0)
(-11.7628 2.05008 0)
(-6.31929 -0.575336 0)
(-0.571765 -3.32838 0)
(3.17705 -10.9994 0)
(4.23589 -18.1698 0)
(4.19347 -23.595 0)
(3.90455 -26.9335 0)
(4.17265 -25.5359 0)
(5.14318 -20.3336 0)
(6.71472 -13.3647 0)
(8.6206 -6.33773 0)
(10.2915 -1.58522 0)
(11.8773 7.81206 0)
(11.4492 11.8715 0)
(9.08587 12.7132 0)
(5.76702 11.4648 0)
(2.33008 8.47512 0)
(-0.131365 4.97051 0)
(-2.11687 0.836035 0)
(-2.11548 -4.39801 0)
(-0.248693 -8.44955 0)
(3.52136 -10.0038 0)
(8.10089 -9.34719 0)
(12.2386 -6.99157 0)
(15.3746 -3.32599 0)
(17.2705 0.130607 0)
(17.8295 4.34306 0)
(16.9322 7.92252 0)
(14.4705 10.5328 0)
(10.4301 12.5514 0)
(5.35055 14.2956 0)
(-0.383371 15.2728 0)
(-6.55571 15.1388 0)
(-12.494 14.1043 0)
(-17.6552 12.1191 0)
(-21.6292 9.28106 0)
(-24.169 5.86117 0)
(-25.2267 2.12806 0)
(-24.8287 -1.65763 0)
(-23.282 -5.18319 0)
(-11.3747 -9.55128 0)
(-13.2241 -12.6191 0)
(-14.3846 -17.2232 0)
(-15.7427 -23.6461 0)
(-14.8346 -31.1639 0)
(-8.40214 -39.0039 0)
(-2.15938 -43.552 0)
(6.76397 -45.4948 0)
(23.0931 -44.7858 0)
(42.8924 -30.8935 0)
(65.1831 -12.3623 0)
(86.82 11.3 0)
(108.468 35.6887 0)
(128.906 57.8336 0)
(144.843 73.1442 0)
(153.706 79.4474 0)
(155.634 78.4793 0)
(147.086 69.7743 0)
(129.015 55.3184 0)
(106.854 41.2965 0)
(81.8053 28.751 0)
(53.2245 16.4044 0)
(22.6507 3.51839 0)
(-4.38887 -6.02459 0)
(-24.6469 -10.3753 0)
(-44.4865 -15.387 0)
(-72.2993 -19.9438 0)
(-103.472 -24.6656 0)
(-124.48 -31.0783 0)
(-142.533 -41.7675 0)
(-159.901 -45.0013 0)
(-173.803 -39.6542 0)
(-176.834 -34.9503 0)
(-165.272 -33.0427 0)
(-150.056 -32.459 0)
(-129.675 -34.9871 0)
(-102.07 -28.4558 0)
(-65.7143 -19.1399 0)
(-13.1942 -6.10897 0)
(49.4704 1.20957 0)
(115.844 20.6071 0)
(168.831 28.9328 0)
(199.614 31.7116 0)
(191.727 24.2564 0)
(158.44 10.0018 0)
(116.59 2.24044 0)
(76.6798 -18.7859 0)
(42.0187 -13.8504 0)
(21.2579 1.29662 0)
(5.40742 11.6995 0)
(-7.27979 30.9004 0)
(-13.3897 47.7213 0)
(-11.279 59.7521 0)
(-4.02239 57.1787 0)
(-2.37972 39.689 0)
(-5.15724 16.2329 0)
(-3.68313 -4.64054 0)
(1.70223 -21.3069 0)
(11.691 -49.9341 0)
(16.8184 -58.3148 0)
(17.0893 -50.3864 0)
(16.4143 -32.3215 0)
(15.5153 -9.27666 0)
(10.8813 7.76443 0)
(-0.494198 17.0889 0)
(-14.7198 31.4959 0)
(-28.2336 36.9036 0)
(-42.8423 35.7915 0)
(-58.4273 28.9206 0)
(-72.2122 17.6253 0)
(-83.8797 2.94839 0)
(-90.4907 -4.7203 0)
(-82.0405 -11.1342 0)
(-61.9235 -18.6326 0)
(-38.5054 -24.2283 0)
(-8.5546 -27.846 0)
(17.097 -26.2721 0)
(33.5785 -21.8938 0)
(42.1239 -16.4674 0)
(45.8776 -11.3045 0)
(45.8083 -9.25313 0)
(43.4803 -5.92803 0)
(39.1711 -1.3495 0)
(34.1247 7.41484 0)
(28.152 13.1328 0)
(21.0334 15.8835 0)
(12.6318 15.7291 0)
(4.21702 12.8674 0)
(-2.93615 7.94964 0)
(-7.74616 1.76564 0)
(-9.22926 -6.94721 0)
(-5.86147 -13.4957 0)