/*--------------------------------*- C++ -*----------------------------------*\
| =========                 |                                                 |
| \\      /  F ield         | OpenFOAM: The Open Source CFD Toolbox           |
|  \\    /   O peration     | Version:  2206                                  |
|   \\  /    A nd           | Website:  www.openfoam.com                      |
|    \\/     M anipulation  |                                                 |
\*---------------------------------------------------------------------------*/
FoamFile
{
    version     2.0;
    format      ascii;
    arch        "LSB;label=32;scalar=64";
    class       volVectorField;
    location    "18.2001";
    object      U;
}
// * * * * * * * * * * * * * * * * * * * * * * * * * * * * * * * * * * * * * //

dimensions      [0 1 -1 0 0 0 0];

internalField   nonuniform List<vector> 
1848
(
(0.125885 -0.00269969 0)
(0.257545 -0.0795977 0)
(0.440222 -0.14614 0)
(0.648627 -0.206861 0)
(0.870488 -0.255978 0)
(1.09638 -0.277104 0)
(1.32723 -0.255679 0)
(1.56008 -0.176659 0)
(1.80277 -0.00934844 0)
(2.06239 0.261031 0)
(2.26984 0.555571 0)
(2.38647 0.797101 0)
(2.428 0.965958 0)
(2.41999 1.06459 0)
(2.37283 1.10999 0)
(2.29425 1.10004 0)
(2.19687 1.04542 0)
(2.08648 0.962312 0)
(1.97148 0.861034 0)
(1.86332 0.744875 0)
(1.76649 0.61633 0)
(1.65965 0.497139 0)
(1.50181 0.427204 0)
(1.28167 0.417089 0)
(1.06288 0.416522 0)
(0.907151 0.371844 0)
(0.840426 0.272515 0)
(0.841422 0.14521 0)
(0.905373 0.0085527 0)
(1.00291 -0.124583 0)
(1.11527 -0.247686 0)
(1.23264 -0.354299 0)
(1.35151 -0.442862 0)
(1.46965 -0.515321 0)
(1.58594 -0.572688 0)
(1.70209 -0.613344 0)
(1.82133 -0.632952 0)
(1.94715 -0.625708 0)
(2.0827 -0.585219 0)
(2.22851 -0.505834 0)
(2.38233 -0.385648 0)
(2.53793 -0.229638 0)
(2.68158 -0.0542644 0)
(2.79909 0.119769 0)
(2.88277 0.276232 0)
(2.9314 0.403695 0)
(2.9462 0.49608 0)
(2.93459 0.55543 0)
(2.89449 0.580219 0)
(2.83029 0.568472 0)
(2.74661 0.527533 0)
(2.64941 0.465142 0)
(2.54516 0.389889 0)
(2.43951 0.312728 0)
(2.33433 0.245228 0)
(2.22778 0.198483 0)
(2.1183 0.181615 0)
(2.00822 0.195422 0)
(1.90355 0.227948 0)
(1.80926 0.261784 0)
(1.72812 0.282917 0)
(1.66138 0.28272 0)
(1.6108 0.255618 0)
(1.57983 0.201968 0)
(1.56717 0.127001 0)
(1.57138 0.0387757 0)
(1.59083 -0.0543994 0)
(1.6227 -0.144435 0)
(1.66417 -0.225681 0)
(1.71264 -0.294459 0)
(1.7656 -0.348647 0)
(1.82089 -0.387461 0)
(1.87717 -0.410953 0)
(1.93379 -0.419493 0)
(1.99016 -0.413934 0)
(2.04619 -0.395748 0)
(2.1025 -0.366144 0)
(2.15981 -0.325805 0)
(2.21918 -0.274441 0)
(2.28157 -0.2116 0)
(2.34683 -0.137571 0)
(2.4112 -0.0559477 0)
(2.46757 0.0248826 0)
(2.5114 0.0989854 0)
(2.53992 0.160944 0)
(2.55001 0.21088 0)
(2.54831 0.247191 0)
(2.52525 0.269688 0)
(2.476 0.273548 0)
(2.40846 0.263366 0)
(2.32681 0.245131 0)
(2.23911 0.225341 0)
(2.1538 0.20956 0)
(2.07525 0.199718 0)
(2.00646 0.19499 0)
(1.94856 0.192903 0)
(1.90123 0.190191 0)
(1.86324 0.183408 0)
(1.83316 0.169127 0)
(1.81074 0.145411 0)
(1.79541 0.1121 0)
(1.78676 0.0700391 0)
(1.78492 0.0210968 0)
(1.78998 -0.0320323 0)
(1.8017 -0.0858619 0)
(1.8193 -0.1367 0)
(1.84193 -0.182058 0)
(1.86859 -0.219973 0)
(1.89833 -0.249108 0)
(1.93042 -0.268632 0)
(1.96446 -0.278061 0)
(0.0554924 -0.217493 0)
(0.156161 -0.307599 0)
(0.296914 -0.359769 0)
(0.449664 -0.41507 0)
(0.613885 -0.466374 0)
(0.794752 -0.492277 0)
(0.992073 -0.470235 0)
(1.19162 -0.385382 0)
(1.38149 -0.225297 0)
(1.57203 0.0338015 0)
(1.76193 0.374414 0)
(1.90263 0.685414 0)
(1.98778 0.9173 0)
(2.02594 1.07094 0)
(2.02691 1.15234 0)
(1.99594 1.16809 0)
(1.93703 1.13905 0)
(1.85671 1.06815 0)
(1.77062 0.96423 0)
(1.68357 0.838572 0)
(1.56935 0.724529 0)
(1.39189 0.665472 0)
(1.16515 0.659064 0)
(0.967503 0.641059 0)
(0.840729 0.56338 0)
(0.799938 0.429285 0)
(0.815273 0.263154 0)
(0.887138 0.0847217 0)
(0.986584 -0.0861743 0)
(1.09988 -0.237406 0)
(1.21808 -0.365824 0)
(1.33353 -0.471265 0)
(1.4421 -0.556005 0)
(1.54138 -0.623419 0)
(1.63085 -0.676457 0)
(1.71283 -0.716452 0)
(1.79256 -0.740332 0)
(1.87632 -0.740104 0)
(1.97019 -0.709342 0)
(2.07683 -0.640124 0)
(2.1952 -0.528032 0)
(2.32291 -0.375368 0)
(2.4543 -0.19104 0)
(2.57709 0.00540615 0)
(2.67874 0.191512 0)
(2.75364 0.354007 0)
(2.79872 0.480207 0)
(2.81601 0.568138 0)
(2.80896 0.617075 0)
(2.77553 0.630201 0)
(2.72013 0.607384 0)
(2.64628 0.558412 0)
(2.55965 0.491393 0)
(2.46511 0.418029 0)
(2.36592 0.353346 0)
(2.26199 0.309508 0)
(2.15497 0.293558 0)
(2.0502 0.303039 0)
(1.95373 0.325867 0)
(1.86916 0.346999 0)
(1.79813 0.354122 0)
(1.74112 0.337775 0)
(1.70154 0.292754 0)
(1.67981 0.220884 0)
(1.67476 0.128503 0)
(1.68535 0.024376 0)
(1.70954 -0.0823662 0)
(1.74425 -0.182935 0)
(1.78673 -0.271978 0)
(1.83409 -0.345738 0)
(1.88355 -0.402371 0)
(1.93281 -0.441712 0)
(1.9806 -0.464656 0)
(2.02684 -0.472335 0)
(2.07144 -0.46576 0)
(2.11415 -0.446912 0)
(2.15626 -0.4175 0)
(2.19907 -0.378356 0)
(2.24375 -0.329232 0)
(2.29119 -0.269207 0)
(2.34189 -0.197322 0)
(2.39508 -0.114365 0)
(2.44662 -0.026165 0)
(2.4909 0.0595723 0)
(2.52353 0.136249 0)
(2.54149 0.200816 0)
(2.54507 0.253347 0)
(2.53701 0.294049 0)
(2.50899 0.320137 0)
(2.46477 0.328298 0)
(2.40485 0.322608 0)
(2.33421 0.308329 0)
(2.25967 0.290905 0)
(2.18792 0.274517 0)
(2.12261 0.260349 0)
(2.06618 0.247679 0)
(2.01946 0.234569 0)
(1.98222 0.218187 0)
(1.95382 0.195149 0)
(1.93398 0.163612 0)
(1.92153 0.123075 0)
(1.91576 0.0741495 0)
(1.91638 0.018485 0)
(1.9231 -0.0412124 0)
(1.93531 -0.100825 0)
(1.95224 -0.156712 0)
(1.9731 -0.206172 0)
(1.99686 -0.247157 0)
(2.02245 -0.278474 0)
(2.04904 -0.299595 0)
(2.07652 -0.310249 0)
(0.0317794 -0.260834 0)
(0.0600705 -0.368262 0)
(0.103349 -0.439527 0)
(0.16919 -0.524282 0)
(0.261344 -0.603778 0)
(0.379069 -0.660652 0)
(0.522607 -0.662299 0)
(0.694917 -0.579923 0)
(0.876261 -0.403771 0)
(1.05268 -0.131188 0)
(1.22062 0.217949 0)
(1.3642 0.559955 0)
(1.47821 0.835485 0)
(1.55854 1.0281 0)
(1.60654 1.1383 0)
(1.62515 1.18549 0)
(1.62019 1.18583 0)
(1.58926 1.13143 0)
(1.53333 1.03446 0)
(1.43353 0.945199 0)
(1.26704 0.902344 0)
(1.06767 0.890923 0)
(0.903296 0.853754 0)
(0.805882 0.755597 0)
(0.783393 0.599934 0)
(0.811849 0.402507 0)
(0.898732 0.185591 0)
(1.00812 -0.0225873 0)
(1.12778 -0.206345 0)
(1.25005 -0.360779 0)
(1.36747 -0.485045 0)
(1.47481 -0.581292 0)
(1.56878 -0.65374 0)
(1.64717 -0.707211 0)
(1.71027 -0.747396 0)
(1.75993 -0.778366 0)
(1.80099 -0.800332 0)
(1.84144 -0.809024 0)
(1.89044 -0.790954 0)
(1.95473 -0.734783 0)
(2.03466 -0.635596 0)
(2.12887 -0.492999 0)
(2.23456 -0.313017 0)
(2.34499 -0.109241 0)
(2.44851 0.095607 0)
(2.53537 0.280481 0)
(2.60129 0.435567 0)
(2.64241 0.549075 0)
(2.66053 0.622988 0)
(2.65872 0.65771 0)
(2.63444 0.659736 0)
(2.58918 0.628033 0)
(2.52546 0.573847 0)
(2.44849 0.51018 0)
(2.36218 0.452306 0)
(2.26935 0.412823 0)
(2.17383 0.396638 0)
(2.08179 0.399946 0)
(1.99896 0.412043 0)
(1.92829 0.420341 0)
(1.87044 0.413231 0)
(1.82755 0.380549 0)
(1.8017 0.318675 0)
(1.79157 0.230181 0)
(1.7964 0.122133 0)
(1.81478 0.00385535 0)
(1.84409 -0.114108 0)
(1.88118 -0.223025 0)
(1.92329 -0.31743 0)
(1.96734 -0.393424 0)
(2.01045 -0.44961 0)
(2.05063 -0.486837 0)
(2.08689 -0.507173 0)
(2.11987 -0.512309 0)
(2.14966 -0.503077 0)
(2.17618 -0.482526 0)
(2.20157 -0.453041 0)
(2.22797 -0.415238 0)
(2.25687 -0.368558 0)
(2.28915 -0.311754 0)
(2.3253 -0.243371 0)
(2.36528 -0.163058 0)
(2.40768 -0.0729187 0)
(2.44807 0.0201649 0)
(2.48162 0.10851 0)
(2.50477 0.18701 0)
(2.51517 0.253245 0)
(2.51287 0.306543 0)
(2.49878 0.346248 0)
(2.47201 0.370835 0)
(2.43337 0.378671 0)
(2.38419 0.373058 0)
(2.328 0.358629 0)
(2.27002 0.339659 0)
(2.21537 0.31923 0)
(2.16678 0.298296 0)
(2.12589 0.276099 0)
(2.09334 0.250331 0)
(2.06935 0.218342 0)
(2.05342 0.178813 0)
(2.04439 0.131137 0)
(2.0415 0.0757599 0)
(2.04425 0.0141037 0)
(2.05202 -0.0510012 0)
(2.06397 -0.115235 0)
(2.07935 -0.175028 0)
(2.09737 -0.227411 0)
(2.11713 -0.270273 0)
(2.13762 -0.302484 0)
(2.15767 -0.323911 0)
(2.17718 -0.334968 0)
(-0.00354621 -0.258721 0)
(-0.0505336 -0.35489 0)
(-0.084777 -0.449415 0)
(-0.0935275 -0.563838 0)
(-0.0724622 -0.670822 0)
(-0.0262488 -0.753587 0)
(0.0421851 -0.788794 0)
(0.146616 -0.72823 0)
(0.294292 -0.557066 0)
(0.467532 -0.282756 0)
(0.645991 0.062863 0)
(0.809103 0.415131 0)
(0.955419 0.712858 0)
(1.08093 0.9336 0)
(1.17944 1.07742 0)
(1.24707 1.15091 0)
(1.28187 1.17199 0)
(1.27879 1.15295 0)
(1.21572 1.11773 0)
(1.09321 1.10032 0)
(0.952118 1.086 0)
(0.836823 1.03761 0)
(0.779467 0.932693 0)
(0.772444 0.771252 0)
(0.824753 0.556052 0)
(0.930528 0.310779 0)
(1.05618 0.0682106 0)
(1.18828 -0.149594 0)
(1.31882 -0.333939 0)
(1.44155 -0.482142 0)
(1.55119 -0.594857 0)
(1.64459 -0.675737 0)
(1.71898 -0.730331 0)
(1.77284 -0.765495 0)
(1.80713 -0.788112 0)
(1.82507 -0.804992 0)
(1.83176 -0.818494 0)
(1.8316 -0.826053 0)
(1.83664 -0.824878 0)
(1.85565 -0.786759 0)
(1.8942 -0.704061 0)
(1.9526 -0.577432 0)
(2.02868 -0.409643 0)
(2.11803 -0.211262 0)
(2.21251 -0.000948075 0)
(2.30122 0.197764 0)
(2.37788 0.370804 0)
(2.43736 0.506736 0)
(2.47754 0.601798 0)
(2.49865 0.656693 0)
(2.50352 0.676866 0)
(2.48844 0.67189 0)
(2.45197 0.634716 0)
(2.3975 0.584416 0)
(2.33024 0.536086 0)
(2.25525 0.501417 0)
(2.17794 0.484387 0)
(2.10429 0.480968 0)
(2.03949 0.482394 0)
(1.98606 0.478229 0)
(1.94503 0.456255 0)
(1.92008 0.407909 0)
(1.91021 0.330393 0)
(1.91426 0.227278 0)
(1.93112 0.105755 0)
(1.9583 -0.0236074 0)
(1.99257 -0.149598 0)
(2.03058 -0.263314 0)
(2.06975 -0.359606 0)
(2.10714 -0.434484 0)
(2.14076 -0.487431 0)
(2.16887 -0.520056 0)
(2.19071 -0.53496 0)
(2.20768 -0.536293 0)
(2.21943 -0.52302 0)
(2.22709 -0.499607 0)
(2.23369 -0.469766 0)
(2.24236 -0.434595 0)
(2.25503 -0.39182 0)
(2.27228 -0.339204 0)
(2.29429 -0.274999 0)
(2.32091 -0.198405 0)
(2.3515 -0.110441 0)
(2.38386 -0.0152596 0)
(2.41376 0.0793881 0)
(2.4375 0.167658 0)
(2.45268 0.245662 0)
(2.45842 0.310647 0)
(2.4552 0.360241 0)
(2.44337 0.393896 0)
(2.42192 0.412462 0)
(2.39276 0.416184 0)
(2.35761 0.407496 0)
(2.31814 0.389609 0)
(2.27811 0.365911 0)
(2.24154 0.339225 0)
(2.21038 0.309636 0)
(2.186 0.275673 0)
(2.16897 0.236029 0)
(2.15861 0.189474 0)
(2.15416 0.135596 0)
(2.15493 0.0747519 0)
(2.16026 0.00821095 0)
(2.1692 -0.0609467 0)
(2.18063 -0.128331 0)
(2.19373 -0.190539 0)
(2.20773 -0.244483 0)
(2.2221 -0.288039 0)
(2.23615 -0.319899 0)
(2.24877 -0.340109 0)
(2.25951 -0.350235 0)
(-0.354604 -0.835121 0)
(-0.318761 -0.818386 0)
(-0.234138 -0.671721 0)
(-0.104187 -0.419849 0)
(0.0687475 -0.0949296 0)
(0.258465 0.247109 0)
(0.44049 0.551295 0)
(0.605954 0.794706 0)
(0.740666 0.969365 0)
(0.837478 1.08213 0)
(0.890544 1.15192 0)
(0.898089 1.19643 0)
(0.862502 1.21647 0)
(0.805602 1.20998 0)
(0.756098 1.16816 0)
(0.743168 1.07604 0)
(0.765638 0.922535 0)
(0.851967 0.703376 0)
(0.984386 0.441746 0)
(1.13632 0.172255 0)
(1.2899 -0.0761979 0)
(1.43541 -0.290417 0)
(1.56682 -0.464772 0)
(1.68023 -0.598008 0)
(1.77364 -0.692385 0)
(1.84539 -0.752573 0)
(1.89516 -0.784027 0)
(1.92233 -0.796385 0)
(1.92735 -0.800604 0)
(1.90944 -0.803908 0)
(1.87617 -0.808331 0)
(1.83845 -0.814044 0)
(1.80282 -0.81427 0)
(1.77822 -0.793818 0)
(1.77532 -0.733018 0)
(1.79747 -0.627969 0)
(1.84267 -0.478872 0)
(1.90741 -0.29417 0)
(1.98598 -0.0895714 0)
(2.06937 0.113131 0)
(2.14965 0.296057 0)
(2.2209 0.447095 0)
(2.27861 0.559498 0)
(2.32022 0.631773 0)
(2.34559 0.668761 0)
(2.35535 0.679493 0)
(2.3484 0.667944 0)
(2.32056 0.634133 0)
(2.27708 0.597519 0)
(2.22473 0.568297 0)
(2.17013 0.550435 0)
(2.11896 0.541053 0)
(2.07523 0.533075 0)
(2.04164 0.516371 0)
(2.02205 0.480016 0)
(2.017 0.416855 0)
(2.02535 0.325533 0)
(2.04566 0.210102 0)
(2.07584 0.0782543 0)
(2.11194 -0.0578906 0)
(2.1499 -0.187204 0)
(2.18645 -0.301283 0)
(2.21937 -0.395265 0)
(2.24664 -0.465591 0)
(2.26743 -0.512191 0)
(2.28051 -0.537325 0)
(2.28602 -0.545643 0)
(2.28373 -0.541833 0)
(2.2741 -0.522286 0)
(2.26147 -0.496981 0)
(2.25004 -0.468893 0)
(2.24157 -0.436759 0)
(2.23739 -0.398575 0)
(2.23885 -0.351334 0)
(2.24637 -0.292493 0)
(2.25969 -0.22088 0)
(2.27829 -0.136839 0)
(2.30093 -0.0432666 0)
(2.32492 0.0537633 0)
(2.34694 0.147348 0)
(2.36475 0.232087 0)
(2.37704 0.305106 0)
(2.38317 0.362931 0)
(2.38332 0.404307 0)
(2.3786 0.429438 0)
(2.36741 0.438374 0)
(2.35088 0.435276 0)
(2.33002 0.421053 0)
(2.30755 0.397736 0)
(2.28599 0.3679 0)
(2.26761 0.332989 0)
(2.25398 0.292808 0)
(2.24558 0.246725 0)
(2.24223 0.194277 0)
(2.24344 0.135255 0)
(2.24868 0.0699432 0)
(2.25722 -0.000122618 0)
(2.26773 -0.0714891 0)
(2.27877 -0.14006 0)
(2.28927 -0.202553 0)
(2.29851 -0.256295 0)
(2.30618 -0.299329 0)
(2.31218 -0.329932 0)
(2.31647 -0.347928 0)
(1.58619 0.0288648 0)
(1.54434 0.028735 0)
(1.50214 0.0287651 0)
(1.45958 0.0289283 0)
(1.41663 0.0291972 0)
(1.37301 0.0295806 0)
(1.32848 0.0301095 0)
(1.2828 0.0308202 0)
(1.23568 0.0317447 0)
(1.18679 0.0329346 0)
(1.13573 0.0344346 0)
(1.08209 0.0362543 0)
(1.02537 0.038433 0)
(0.965007 0.0410455 0)
(0.900262 0.0441383 0)
(0.830533 0.0476308 0)
(0.754704 0.0509691 0)
(0.672948 0.0523665 0)
(0.59071 0.0501095 0)
(2.57973 0.0565869 0)
(2.55896 0.0568611 0)
(2.53789 0.057364 0)
(2.51641 0.0581075 0)
(2.49438 0.059095 0)
(2.47163 0.0603578 0)
(2.44802 0.0619461 0)
(2.42339 0.0639109 0)
(2.39758 0.066308 0)
(2.37038 0.0692049 0)
(2.34155 0.0726914 0)
(2.31084 0.0768715 0)
(2.27809 0.0818385 0)
(2.24263 0.0876678 0)
(2.20427 0.0944158 0)
(2.16262 0.102051 0)
(2.11723 0.110345 0)
(2.06706 0.118646 0)
(2.00866 0.126186 0)
(2.81582 0.0707089 0)
(2.80699 0.0711272 0)
(2.79819 0.0718497 0)
(2.78934 0.0729073 0)
(2.78034 0.0743183 0)
(2.77111 0.0761242 0)
(2.76156 0.0783835 0)
(2.75164 0.0811619 0)
(2.74129 0.0844911 0)
(2.73044 0.0885543 0)
(2.71903 0.0933189 0)
(2.707 0.0985865 0)
(2.69427 0.104997 0)
(2.68077 0.112646 0)
(2.6664 0.121427 0)
(2.65099 0.131313 0)
(2.63424 0.142217 0)
(2.61568 0.154046 0)
(2.59458 0.166793 0)
(2.86096 0.0750588 0)
(2.85598 0.0752767 0)
(2.85127 0.0759063 0)
(2.84675 0.0769796 0)
(2.84233 0.0784785 0)
(2.83796 0.0804049 0)
(2.83361 0.0828072 0)
(2.82928 0.085729 0)
(2.82495 0.0892162 0)
(2.82068 0.0933287 0)
(2.81652 0.098185 0)
(2.81248 0.10395 0)
(2.80852 0.110738 0)
(2.80467 0.118614 0)
(2.80104 0.127642 0)
(2.79765 0.137908 0)
(2.79441 0.149475 0)
(2.79116 0.162403 0)
(2.78759 0.176861 0)
(2.86855 0.081278 0)
(2.8647 0.0808978 0)
(2.86129 0.0810524 0)
(2.85822 0.0817576 0)
(2.85542 0.082986 0)
(2.85261 0.0847266 0)
(2.84992 0.0869737 0)
(2.84739 0.0897183 0)
(2.84502 0.0930247 0)
(2.84301 0.096921 0)
(2.84116 0.101476 0)
(2.83992 0.106766 0)
(2.83945 0.112922 0)
(2.83969 0.120095 0)
(2.84069 0.128374 0)
(2.84255 0.137874 0)
(2.8453 0.148723 0)
(2.8489 0.161111 0)
(2.85287 0.175387 0)
(2.8377 0.0835086 0)
(2.83556 0.0828375 0)
(2.8338 0.0827987 0)
(2.83229 0.0833687 0)
(2.83095 0.0845271 0)
(2.8298 0.0862255 0)
(2.82883 0.0883819 0)
(2.82806 0.0909654 0)
(2.82758 0.0939449 0)
(2.82748 0.0974111 0)
(2.8279 0.101435 0)
(2.82892 0.106073 0)
(2.83064 0.111465 0)
(2.8332 0.117794 0)
(2.83672 0.125201 0)
(2.84104 0.133799 0)
(2.84674 0.143699 0)
(2.853 0.155111 0)
(2.86105 0.168309 0)
(2.70589 0.0859194 0)
(2.70848 0.0844869 0)
(2.71135 0.0839551 0)
(2.71435 0.0842566 0)
(2.71742 0.0850889 0)
(2.72058 0.0865819 0)
(2.72386 0.0885289 0)
(2.72737 0.0908266 0)
(2.73125 0.0934481 0)
(2.73564 0.0964216 0)
(2.7407 0.0998076 0)
(2.74656 0.103695 0)
(2.75335 0.108219 0)
(2.76118 0.113544 0)
(2.7702 0.119853 0)
(2.78041 0.127264 0)
(2.79203 0.135925 0)
(2.8051 0.145933 0)
(2.81985 0.157238 0)
(2.27348 0.0797879 0)
(2.2883 0.0782464 0)
(2.30311 0.0776414 0)
(2.31789 0.0778249 0)
(2.33261 0.078643 0)
(2.34732 0.0799434 0)
(2.3621 0.0815756 0)
(2.37709 0.0834195 0)
(2.39246 0.0854457 0)
(2.40841 0.0876821 0)
(2.42513 0.0901714 0)
(2.4428 0.0930249 0)
(2.46161 0.0963864 0)
(2.48174 0.100424 0)
(2.5034 0.105318 0)
(2.5268 0.111216 0)
(2.55214 0.11821 0)
(2.57965 0.12638 0)
(2.60965 0.135458 0)
(1.35152 0.0547612 0)
(1.3846 0.0533479 0)
(1.41704 0.0529643 0)
(1.44906 0.0534832 0)
(1.48097 0.0546714 0)
(1.51296 0.0563136 0)
(1.54519 0.0581875 0)
(1.57781 0.0600636 0)
(1.61102 0.0618361 0)
(1.64503 0.0635217 0)
(1.67999 0.0651931 0)
(1.71608 0.0669565 0)
(1.75347 0.0689488 0)
(1.79241 0.0713234 0)
(1.83316 0.0742449 0)
(1.87602 0.077841 0)
(1.92125 0.082321 0)
(1.96911 0.0876105 0)
(2.01939 0.0944835 0)
(0.336106 0.0129256 0)
(0.368272 0.0135506 0)
(0.400213 0.0143138 0)
(0.432505 0.0151266 0)
(0.465551 0.015921 0)
(0.49962 0.0167222 0)
(0.535302 0.0174895 0)
(0.572097 0.0181081 0)
(0.609983 0.018581 0)
(0.648992 0.0189996 0)
(0.689038 0.0194513 0)
(0.730094 0.0200062 0)
(0.772277 0.0207325 0)
(0.81584 0.0216982 0)
(0.861099 0.0229525 0)
(0.908671 0.0245978 0)
(0.95848 0.026422 0)
(1.01383 0.0300385 0)
(1.06531 0.0282235 0)
(0.509241 0.0440797 0)
(0.428483 0.0357024 0)
(0.350344 0.0254854 0)
(0.277499 0.0121849 0)
(0.214796 -0.00527998 0)
(0.163507 -0.0222761 0)
(0.120264 -0.0278817 0)
(0.081033 -0.0177283 0)
(0.0340488 -0.000172589 0)
(-0.0274504 0.0142912 0)
(-0.10329 0.0275283 0)
(-0.195048 0.0433337 0)
(-0.297104 0.0577987 0)
(-0.404436 0.0698303 0)
(-0.510002 0.0696335 0)
(-0.594004 0.0540923 0)
(-0.637307 0.0187185 0)
(-0.63117 -0.0166423 0)
(-0.5834 -0.046345 0)
(-0.502653 -0.0646717 0)
(-0.402283 -0.0706231 0)
(-0.298197 -0.0667388 0)
(-0.196394 -0.0572986 0)
(-0.103665 -0.0465425 0)
(-0.0247442 -0.0363009 0)
(0.0377408 -0.0266376 0)
(0.0817293 -0.0166794 0)
(0.105665 -0.00730756 0)
(0.112022 0.00244331 0)
(0.10323 0.0107202 0)
(0.0818896 0.016588 0)
(0.0515078 0.0198875 0)
(0.0131883 0.0215405 0)
(-0.0277125 0.0214443 0)
(-0.0659849 0.0191448 0)
(-0.0980852 0.0148138 0)
(-0.121178 0.0092765 0)
(-0.132535 0.00273115 0)
(-0.131295 -0.00424887 0)
(-0.118009 -0.0102115 0)
(-0.0942825 -0.0141674 0)
(-0.0650703 -0.0156009 0)
(-0.0345038 -0.0146907 0)
(-0.0075499 -0.0111621 0)
(0.0111575 -0.00565365 0)
(0.0175398 0.00159201 0)
(0.00989438 0.00986324 0)
(-0.0126978 0.0181879 0)
(-0.0495839 0.0249551 0)
(-0.0963693 0.0280866 0)
(-0.145711 0.0275594 0)
(-0.190568 0.0230583 0)
(-0.223213 0.014959 0)
(-0.237764 0.00470344 0)
(-0.232741 -0.00587922 0)
(-0.210776 -0.014489 0)
(-0.176169 -0.0192987 0)
(-0.136178 -0.0201235 0)
(-0.0983607 -0.0178095 0)
(-0.0676856 -0.0127341 0)
(-0.0480657 -0.00643397 0)
(-0.0413878 -0.000345823 0)
(-0.0453563 0.00458739 0)
(-0.0571627 0.00768191 0)
(-0.0733227 0.00869154 0)
(-0.0895692 0.00788338 0)
(-0.102525 0.00554801 0)
(-0.109728 0.00220563 0)
(-0.110022 -0.00149381 0)
(-0.10362 -0.00505673 0)
(-0.0912224 -0.00759721 0)
(-0.0746618 -0.00918619 0)
(-0.0557127 -0.00978253 0)
(-0.0364668 -0.00952233 0)
(-0.0187339 -0.0083542 0)
(-0.00389114 -0.00654429 0)
(0.00693463 -0.0042163 0)
(0.0131838 -0.00188822 0)
(0.0150188 0.000389933 0)
(0.0132337 0.00215474 0)
(0.00859921 0.00329893 0)
(0.00227218 0.00381099 0)
(-0.00438272 0.00369438 0)
(-0.0101701 0.00302307 0)
(-0.0142466 0.00200219 0)
(-0.0160947 0.000897853 0)
(-0.0158289 -9.67618e-05 0)
(-0.0139175 -0.000766116 0)
(-0.0109813 -0.0010687 0)
(-0.00782958 -0.000976249 0)
(-0.00525797 -0.000510501 0)
(-0.00397212 0.000245426 0)
(-0.0043406 0.00117749 0)
(-0.00650709 0.00206002 0)
(-0.0103732 0.00278277 0)
(-0.0154743 0.0032674 0)
(-0.0212229 0.00344114 0)
(-0.027005 0.00330809 0)
(-0.0321637 0.00288681 0)
(-0.0361512 0.00222096 0)
(-0.0385517 0.00137434 0)
(-0.0392063 0.000388083 0)
(-0.0380943 -0.000651486 0)
(-0.0351217 -0.00161765 0)
(-0.0303263 -0.0024818 0)
(-0.0239045 -0.00322229 0)
(-0.0161173 -0.00381603 0)
(-0.0072384 -0.00424077 0)
(0.00237224 -0.00450875 0)
(0.0123439 -0.0046158 0)
(0.0223847 -0.00456805 0)
(1.94037 0.132838 0)
(1.86027 0.138532 0)
(1.76656 0.143259 0)
(1.65713 0.146727 0)
(1.52896 0.148476 0)
(1.37712 0.147333 0)
(1.19326 0.142846 0)
(0.988833 0.139525 0)
(0.774543 0.141273 0)
(0.562023 0.146844 0)
(0.362857 0.152506 0)
(0.194183 0.149525 0)
(0.0469537 0.135492 0)
(-0.08916 0.125251 0)
(-0.189377 0.104811 0)
(-0.245581 0.0628857 0)
(-0.256891 0.00292059 0)
(-0.242175 -0.0650089 0)
(-0.202448 -0.119758 0)
(-0.148935 -0.152377 0)
(-0.088926 -0.1671 0)
(-0.0276297 -0.167235 0)
(0.0318828 -0.154927 0)
(0.0894929 -0.132688 0)
(0.14003 -0.105748 0)
(0.181933 -0.075837 0)
(0.211696 -0.0448597 0)
(0.225647 -0.0176002 0)
(0.222755 0.00557158 0)
(0.203722 0.0255258 0)
(0.172322 0.0416756 0)
(0.133819 0.0524398 0)
(0.0898216 0.0573374 0)
(0.0452941 0.0573157 0)
(0.00379802 0.0520963 0)
(-0.0319808 0.0414615 0)
(-0.0579959 0.0259591 0)
(-0.0717564 0.0069204 0)
(-0.0720534 -0.0129816 0)
(-0.0602483 -0.0301851 0)
(-0.0386598 -0.0420724 0)
(-0.0108754 -0.0467093 0)
(0.0182526 -0.0443519 0)
(0.0436176 -0.0348985 0)
(0.0608824 -0.0191904 0)
(0.0667021 0.00099406 0)
(0.0581214 0.0232932 0)
(0.034297 0.0446487 0)
(-0.00385415 0.0619405 0)
(-0.050863 0.0721866 0)
(-0.100025 0.0725862 0)
(-0.143523 0.0605761 0)
(-0.171831 0.0363827 0)
(-0.178421 0.00529121 0)
(-0.164206 -0.0254535 0)
(-0.134355 -0.047698 0)
(-0.0942671 -0.0592837 0)
(-0.0508886 -0.0603403 0)
(-0.0103326 -0.0524724 0)
(0.0211602 -0.0375444 0)
(0.0402022 -0.0190992 0)
(0.046395 -0.000804169 0)
(0.0417997 0.0138493 0)
(0.0300718 0.0225254 0)
(0.0152458 0.025325 0)
(0.000975987 0.0226771 0)
(-0.00948211 0.0155799 0)
(-0.0136696 0.00547641 0)
(-0.0110796 -0.00591856 0)
(-0.00180192 -0.0157539 0)
(0.0130201 -0.0229904 0)
(0.0312147 -0.0273162 0)
(0.0513081 -0.0287824 0)
(0.0714442 -0.0277981 0)
(0.0901563 -0.0244207 0)
(0.105956 -0.0190008 0)
(0.117681 -0.01237 0)
(0.125038 -0.00560031 0)
(0.128051 0.000549697 0)
(0.127269 0.00532948 0)
(0.12385 0.00839952 0)
(0.119078 0.0095631 0)
(0.114194 0.00893288 0)
(0.110339 0.0067903 0)
(0.108357 0.00369961 0)
(0.108503 0.000424634 0)
(0.110665 -0.00244093 0)
(0.114448 -0.00438416 0)
(0.119108 -0.00518252 0)
(0.123888 -0.00483593 0)
(0.128044 -0.00340812 0)
(0.130935 -0.00110543 0)
(0.132171 0.00169085 0)
(0.131682 0.00434871 0)
(0.129682 0.00646542 0)
(0.126587 0.00779789 0)
(0.122989 0.00819754 0)
(0.119508 0.00763473 0)
(0.116734 0.00622986 0)
(0.115134 0.00413225 0)
(0.115062 0.00152952 0)
(0.116635 -0.00143038 0)
(0.120009 -0.00439859 0)
(0.125248 -0.00719649 0)
(0.132208 -0.00972757 0)
(0.140695 -0.0119007 0)
(0.150445 -0.0136332 0)
(0.161172 -0.0148652 0)
(0.17253 -0.0155952 0)
(0.184169 -0.0158267 0)
(0.195752 -0.0155774 0)
(2.56963 0.180372 0)
(2.53922 0.196077 0)
(2.50163 0.212492 0)
(2.45453 0.230959 0)
(2.3951 0.253118 0)
(2.3203 0.279952 0)
(2.22819 0.311642 0)
(2.11053 0.34422 0)
(1.96445 0.372534 0)
(1.79093 0.391208 0)
(1.59695 0.395694 0)
(1.39528 0.38099 0)
(1.20384 0.345262 0)
(1.02979 0.287567 0)
(0.902715 0.215701 0)
(0.827443 0.132312 0)
(0.778215 0.0324747 0)
(0.744328 -0.0564973 0)
(0.725129 -0.12024 0)
(0.71369 -0.155775 0)
(0.702977 -0.167186 0)
(0.686213 -0.160615 0)
(0.659742 -0.143979 0)
(0.623046 -0.126357 0)
(0.584514 -0.113665 0)
(0.548481 -0.100234 0)
(0.520941 -0.0704383 0)
(0.502117 -0.026962 0)
(0.484047 0.018437 0)
(0.461034 0.0555481 0)
(0.429382 0.083007 0)
(0.391642 0.100099 0)
(0.350688 0.106603 0)
(0.308893 0.104669 0)
(0.268209 0.0941779 0)
(0.230605 0.0753261 0)
(0.198667 0.0487434 0)
(0.175266 0.0171512 0)
(0.162689 -0.0158899 0)
(0.162197 -0.0445524 0)
(0.171513 -0.0646534 0)
(0.188231 -0.0728202 0)
(0.208047 -0.068765 0)
(0.226924 -0.0538557 0)
(0.240034 -0.0284397 0)
(0.244029 0.00539624 0)
(0.236308 0.0419564 0)
(0.217086 0.0760047 0)
(0.188761 0.102299 0)
(0.15569 0.116337 0)
(0.122577 0.113274 0)
(0.0965061 0.0895425 0)
(0.0842561 0.0461173 0)
(0.0884762 -0.0078511 0)
(0.11074 -0.0563915 0)
(0.144687 -0.0892046 0)
(0.183003 -0.105138 0)
(0.221959 -0.105817 0)
(0.258303 -0.0918957 0)
(0.288273 -0.0644878 0)
(0.307951 -0.0305999 0)
(0.316338 0.000448352 0)
(0.314228 0.0235051 0)
(0.305729 0.0363929 0)
(0.295149 0.039151 0)
(0.284529 0.0326389 0)
(0.275348 0.0192863 0)
(0.270612 0.00208855 0)
(0.273056 -0.0158519 0)
(0.282273 -0.031087 0)
(0.29597 -0.0423021 0)
(0.312483 -0.0486426 0)
(0.330528 -0.0502635 0)
(0.34892 -0.0478219 0)
(0.366649 -0.041957 0)
(0.382115 -0.0334625 0)
(0.393716 -0.0233637 0)
(0.401126 -0.0126948 0)
(0.404493 -0.00262291 0)
(0.404535 0.00573856 0)
(0.402195 0.0112061 0)
(0.398312 0.0134565 0)
(0.393994 0.0126129 0)
(0.390395 0.00926852 0)
(0.388528 0.0042093 0)
(0.388779 -0.00140721 0)
(0.391045 -0.00618375 0)
(0.395057 -0.00940056 0)
(0.400201 -0.0106563 0)
(0.405827 -0.00995102 0)
(0.411196 -0.00752584 0)
(0.415477 -0.00378005 0)
(0.417977 0.000611878 0)
(0.418568 0.00480258 0)
(0.417553 0.00814498 0)
(0.41528 0.0101651 0)
(0.412272 0.0106179 0)
(0.409168 0.00957288 0)
(0.406545 0.00718578 0)
(0.404877 0.00373903 0)
(0.404495 -0.000377494 0)
(0.405764 -0.00486386 0)
(0.408794 -0.00940954 0)
(0.413502 -0.0138222 0)
(0.419849 -0.0178857 0)
(0.427705 -0.0214052 0)
(0.436848 -0.0242352 0)
(0.446981 -0.0262776 0)
(0.457755 -0.0274865 0)
(0.468806 -0.0278571 0)
(0.479773 -0.0274166 0)
(2.78309 0.193161 0)
(2.77701 0.211795 0)
(2.76856 0.233575 0)
(2.7565 0.259593 0)
(2.73929 0.291002 0)
(2.71517 0.328837 0)
(2.68257 0.373558 0)
(2.64 0.423424 0)
(2.58544 0.473799 0)
(2.51608 0.517536 0)
(2.42997 0.545252 0)
(2.32729 0.547969 0)
(2.21111 0.520529 0)
(2.08626 0.460745 0)
(1.9582 0.371014 0)
(1.83002 0.258433 0)
(1.70572 0.136974 0)
(1.588 0.0266385 0)
(1.47727 -0.06192 0)
(1.38317 -0.122604 0)
(1.30787 -0.147555 0)
(1.25549 -0.146749 0)
(1.21821 -0.129274 0)
(1.19223 -0.0954165 0)
(1.17028 -0.0562986 0)
(1.13823 -0.0198395 0)
(1.0877 0.00920994 0)
(1.02519 0.0338135 0)
(0.964384 0.060081 0)
(0.913392 0.0869463 0)
(0.872801 0.111513 0)
(0.838156 0.129955 0)
(0.806192 0.139587 0)
(0.774875 0.139837 0)
(0.743404 0.130734 0)
(0.71088 0.111862 0)
(0.677794 0.0820052 0)
(0.644821 0.0418123 0)
(0.614307 -0.00280436 0)
(0.592676 -0.0430308 0)
(0.579041 -0.0710016 0)
(0.572878 -0.0835923 0)
(0.572191 -0.0824869 0)
(0.576119 -0.0648521 0)
(0.58217 -0.0328142 0)
(0.584704 0.007199 0)
(0.579484 0.0505591 0)
(0.570039 0.0913919 0)
(0.561167 0.121972 0)
(0.5553 0.136218 0)
(0.553012 0.134935 0)
(0.558369 0.108797 0)
(0.57342 0.0524837 0)
(0.596306 -0.0197565 0)
(0.624291 -0.0821059 0)
(0.654351 -0.121957 0)
(0.682685 -0.139439 0)
(0.708078 -0.137846 0)
(0.727611 -0.118144 0)
(0.738306 -0.0848563 0)
(0.738697 -0.0455097 0)
(0.7322 -0.00638545 0)
(0.723619 0.0232397 0)
(0.716004 0.0391793 0)
(0.710579 0.0450311 0)
(0.706288 0.0438152 0)
(0.703905 0.0325991 0)
(0.704151 0.0110368 0)
(0.706409 -0.0141887 0)
(0.710302 -0.0362913 0)
(0.715945 -0.0534287 0)
(0.722924 -0.0645937 0)
(0.731883 -0.0691148 0)
(0.742535 -0.0692078 0)
(0.755142 -0.0633635 0)
(0.76927 -0.0495207 0)
(0.782912 -0.0325949 0)
(0.793937 -0.0156411 0)
(0.80131 -0.000791262 0)
(0.804462 0.0103353 0)
(0.804235 0.0173878 0)
(0.801802 0.0200924 0)
(0.798125 0.0187461 0)
(0.793638 0.0131145 0)
(0.789027 0.00516335 0)
(0.785885 -0.00305118 0)
(0.784789 -0.0101052 0)
(0.785213 -0.0150752 0)
(0.786963 -0.0174575 0)
(0.789802 -0.0174923 0)
(0.793173 -0.0146256 0)
(0.796572 -0.0089837 0)
(0.799081 -0.00234039 0)
(0.800113 0.00416548 0)
(0.799597 0.0095777 0)
(0.79765 0.013329 0)
(0.794539 0.0150053 0)
(0.790839 0.0143066 0)
(0.787061 0.0114635 0)
(0.783735 0.00693551 0)
(0.781329 0.00121443 0)
(0.780179 -0.00517284 0)
(0.780505 -0.0118027 0)
(0.782551 -0.0183038 0)
(0.786472 -0.0243383 0)
(0.792282 -0.0295727 0)
(0.799833 -0.0337451 0)
(0.808831 -0.0366836 0)
(0.818854 -0.0383147 0)
(0.829397 -0.0386608 0)
(0.839898 -0.0378214 0)
(2.85737 0.191887 0)
(2.86232 0.21109 0)
(2.86765 0.233947 0)
(2.87331 0.262304 0)
(2.878 0.29761 0)
(2.88076 0.340252 0)
(2.88004 0.390515 0)
(2.87402 0.446823 0)
(2.86027 0.505818 0)
(2.83623 0.560384 0)
(2.79921 0.601214 0)
(2.74629 0.618885 0)
(2.67655 0.605793 0)
(2.58884 0.559227 0)
(2.48347 0.481654 0)
(2.36343 0.381831 0)
(2.23099 0.27085 0)
(2.09247 0.163324 0)
(1.95775 0.0724261 0)
(1.82969 0.00263205 0)
(1.71666 -0.0436067 0)
(1.62574 -0.0663842 0)
(1.55633 -0.0693964 0)
(1.50711 -0.0598028 0)
(1.47517 -0.0433527 0)
(1.45733 -0.0164371 0)
(1.45324 0.0239086 0)
(1.45642 0.0711245 0)
(1.45862 0.108024 0)
(1.45609 0.135792 0)
(1.44739 0.159311 0)
(1.435 0.17772 0)
(1.42013 0.182196 0)
(1.40818 0.179771 0)
(1.39937 0.171825 0)
(1.39215 0.154154 0)
(1.38144 0.127005 0)
(1.36156 0.0909017 0)
(1.327 0.0465889 0)
(1.27714 -0.00610345 0)
(1.22112 -0.0563624 0)
(1.1635 -0.0832056 0)
(1.11456 -0.0909939 0)
(1.07595 -0.0854452 0)
(1.04754 -0.0550984 0)
(1.03344 -0.00411077 0)
(1.02983 0.0496869 0)
(1.03185 0.0938178 0)
(1.03634 0.121462 0)
(1.04409 0.132255 0)
(1.05687 0.125686 0)
(1.07481 0.0929608 0)
(1.09583 0.0320959 0)
(1.11385 -0.0443189 0)
(1.12539 -0.108899 0)
(1.13541 -0.1486 0)
(1.14878 -0.164502 0)
(1.16576 -0.164444 0)
(1.18292 -0.145576 0)
(1.19842 -0.0982089 0)
(1.20768 -0.0384933 0)
(1.2073 0.0112235 0)
(1.19977 0.0425465 0)
(1.1886 0.0559181 0)
(1.17695 0.0568339 0)
(1.16834 0.047814 0)
(1.16576 0.0261115 0)
(1.16965 -0.000384642 0)
(1.17661 -0.0238602 0)
(1.185 -0.0427471 0)
(1.19303 -0.0566289 0)
(1.19825 -0.0649906 0)
(1.20029 -0.0686531 0)
(1.19962 -0.0697116 0)
(1.19676 -0.0687519 0)
(1.19353 -0.0626801 0)
(1.19214 -0.051227 0)
(1.19301 -0.0354667 0)
(1.19572 -0.0175767 0)
(1.19935 -0.00106386 0)
(1.20309 0.0116964 0)
(1.20592 0.0192362 0)
(1.20702 0.0218376 0)
(1.20608 0.0208794 0)
(1.20276 0.0143536 0)
(1.19805 0.00533719 0)
(1.19347 -0.00342689 0)
(1.19008 -0.0103335 0)
(1.18831 -0.0145726 0)
(1.18791 -0.0159485 0)
(1.18853 -0.0144718 0)
(1.18964 -0.0097879 0)
(1.19021 -0.00278757 0)
(1.18884 0.00487996 0)
(1.18481 0.0116778 0)
(1.17835 0.0164563 0)
(1.17001 0.0184874 0)
(1.16045 0.0179625 0)
(1.15035 0.014936 0)
(1.14048 0.00974454 0)
(1.13168 0.00333776 0)
(1.12479 -0.00384915 0)
(1.12038 -0.0116478 0)
(1.11886 -0.0197799 0)
(1.12058 -0.0277553 0)
(1.12556 -0.0350803 0)
(1.13351 -0.0413207 0)
(1.14389 -0.0460663 0)
(1.15598 -0.0490348 0)
(1.16899 -0.0500938 0)
(1.18213 -0.0492238 0)
(2.87129 0.183619 0)
(2.88335 0.201361 0)
(2.89817 0.222044 0)
(2.91561 0.248376 0)
(2.93646 0.283356 0)
(2.95618 0.328279 0)
(2.97283 0.38389 0)