/*--------------------------------*- C++ -*----------------------------------*\
| =========                 |                                                 |
| \\      /  F ield         | OpenFOAM: The Open Source CFD Toolbox           |
|  \\    /   O peration     | Version:  2206                                  |
|   \\  /    A nd           | Website:  www.openfoam.com                      |
|    \\/     M anipulation  |                                                 |
\*---------------------------------------------------------------------------*/
FoamFile
{
    version     2.0;
    format      ascii;
    arch        "LSB;label=32;scalar=64";
    class       volVectorField;
    location    "19.4001";
    object      U;
}
// * * * * * * * * * * * * * * * * * * * * * * * * * * * * * * * * * * * * * //

dimensions      [0 1 -1 0 0 0 0];

internalField   nonuniform List<vector> 
3025
(
(-0.300725 0.0485985 0)
(-0.375298 0.054882 0)
(-0.459343 0.0549847 0)
(-0.539764 0.0476568 0)
(-0.601928 0.0333159 0)
(-0.633263 0.0139054 0)
(-0.627274 -0.008427 0)
(-0.588392 -0.0268556 0)
(-0.521781 -0.0379383 0)
(-0.434944 -0.0413924 0)
(-0.345769 -0.0398272 0)
(-0.259984 -0.0345333 0)
(-0.184197 -0.0269181 0)
(-0.123654 -0.0179883 0)
(-0.0822195 -0.00911468 0)
(-0.0594454 -0.00136151 0)
(-0.0530672 0.00538651 0)
(-0.0594969 0.0103346 0)
(-0.0736437 0.0115476 0)
(-0.0879686 0.00906633 0)
(-0.09497 0.00371557 0)
(-0.0910631 -0.00412615 0)
(-0.0751889 -0.0119722 0)
(-0.0476529 -0.0186769 0)
(-0.00596111 -0.022561 0)
(0.0447861 -0.0242849 0)
(0.0995401 -0.0245616 0)
(0.158068 -0.024125 0)
(0.216901 -0.0230609 0)
(0.274442 -0.0210673 0)
(0.32839 -0.0181396 0)
(0.376925 -0.0146854 0)
(0.419155 -0.0111775 0)
(0.454337 -0.00795203 0)
(0.48238 -0.0052586 0)
(0.503658 -0.00325447 0)
(0.518939 -0.00198399 0)
(0.529321 -0.00138884 0)
(0.53621 -0.00136621 0)
(0.541233 -0.00185471 0)
(0.545831 -0.00290903 0)
(0.551053 -0.00439868 0)
(0.557831 -0.00623211 0)
(0.567051 -0.00821841 0)
(0.579747 -0.0101453 0)
(0.596801 -0.0120254 0)
(0.618655 -0.0139186 0)
(0.64547 -0.0158941 0)
(0.677466 -0.0180984 0)
(0.714887 -0.0208453 0)
(0.759399 -0.0247237 0)
(0.81059 -0.0307774 0)
(0.882203 -0.0453789 0)
(0.95012 -0.0572241 0)
(-0.159321 0.0844407 0)
(-0.207099 0.100603 0)
(-0.260201 0.102193 0)
(-0.303788 0.0857351 0)
(-0.325225 0.0518007 0)
(-0.317529 0.00266558 0)
(-0.281002 -0.0517127 0)
(-0.217402 -0.0965727 0)
(-0.137223 -0.124572 0)
(-0.0510843 -0.134718 0)
(0.0373064 -0.131553 0)
(0.123047 -0.119019 0)
(0.20061 -0.0987895 0)
(0.267517 -0.073503 0)
(0.321598 -0.046565 0)
(0.361947 -0.0214261 0)
(0.389402 -0.000830984 0)
(0.407484 0.012185 0)
(0.422659 0.0157777 0)
(0.438711 0.0116587 0)
(0.455482 -0.0023846 0)
(0.474647 -0.0216411 0)
(0.502537 -0.0424336 0)
(0.538806 -0.0625418 0)
(0.581683 -0.0791487 0)
(0.630426 -0.089933 0)
(0.683759 -0.0946414 0)
(0.739502 -0.0948051 0)
(0.794872 -0.0924002 0)
(0.848356 -0.0880446 0)
(0.899057 -0.0814218 0)
(0.946468 -0.072789 0)
(0.990213 -0.0628444 0)
(1.02989 -0.0522423 0)
(1.06525 -0.0415678 0)
(1.09619 -0.0313981 0)
(1.12274 -0.0223167 0)
(1.14514 -0.0149412 0)
(1.16399 -0.009915 0)
(1.18012 -0.00766351 0)
(1.19428 -0.00745749 0)
(1.20745 -0.00863883 0)
(1.22046 -0.0110079 0)
(1.23426 -0.0150367 0)
(1.24984 -0.0213408 0)
(1.26794 -0.0288399 0)
(1.28927 -0.0368185 0)
(1.31435 -0.0449612 0)
(1.34357 -0.0533066 0)
(1.37723 -0.0623162 0)
(1.41577 -0.0729172 0)
(1.45909 -0.0871337 0)
(1.50698 -0.108894 0)
(1.55221 -0.142028 0)
(0.301026 0.109459 0)
(0.318815 0.136763 0)
(0.336614 0.14147 0)
(0.360501 0.120713 0)
(0.398024 0.0627207 0)
(0.444586 -0.0198693 0)
(0.50192 -0.103946 0)
(0.569549 -0.169607 0)
(0.639155 -0.209739 0)
(0.706634 -0.224679 0)
(0.77091 -0.220301 0)
(0.830757 -0.203358 0)
(0.885521 -0.176693 0)
(0.934769 -0.143073 0)
(0.978716 -0.10611 0)
(1.01834 -0.0704797 0)
(1.05521 -0.0410872 0)
(1.09022 -0.0212037 0)
(1.12382 -0.0118207 0)
(1.15676 -0.0136771 0)
(1.18783 -0.0253486 0)
(1.21681 -0.0433715 0)
(1.2451 -0.0652218 0)
(1.27328 -0.0878586 0)
(1.30105 -0.10788 0)
(1.32892 -0.123491 0)
(1.35701 -0.133164 0)
(1.38518 -0.136324 0)
(1.41314 -0.134639 0)
(1.44093 -0.12931 0)
(1.46838 -0.120948 0)
(1.49489 -0.110439 0)
(1.52027 -0.0985875 0)
(1.54447 -0.0861291 0)
(1.56746 -0.0737363 0)
(1.58929 -0.0620154 0)
(1.61014 -0.0514808 0)
(1.63028 -0.0425926 0)
(1.64978 -0.0357602 0)
(1.66845 -0.0311905 0)
(1.68613 -0.0288456 0)
(1.70318 -0.0286748 0)
(1.72009 -0.0307324 0)
(1.73724 -0.0349632 0)
(1.75481 -0.0411142 0)
(1.77273 -0.0488062 0)
(1.79122 -0.0576771 0)
(1.81067 -0.0674854 0)
(1.83144 -0.0781984 0)
(1.85376 -0.0901059 0)
(1.87763 -0.103925 0)
(1.90244 -0.120905 0)
(1.92656 -0.143207 0)
(1.94642 -0.170262 0)
(1.00889 0.0525925 0)
(1.02803 0.0764651 0)
(1.06808 0.0786276 0)
(1.1227 0.05066 0)
(1.18954 -0.00627767 0)
(1.2584 -0.0846405 0)
(1.31743 -0.164252 0)
(1.36349 -0.226167 0)
(1.39919 -0.261339 0)
(1.43127 -0.271692 0)
(1.46236 -0.266161 0)
(1.49206 -0.249514 0)
(1.5211 -0.220229 0)
(1.55033 -0.184343 0)
(1.58076 -0.146121 0)
(1.61294 -0.109729 0)
(1.64638 -0.0797593 0)
(1.68 -0.059199 0)
(1.71289 -0.0492672 0)
(1.74402 -0.0494964 0)
(1.77171 -0.058073 0)
(1.79547 -0.0729446 0)
(1.81523 -0.0918278 0)
(1.83122 -0.111608 0)
(1.84396 -0.129304 0)
(1.85319 -0.142578 0)
(1.86023 -0.149102 0)
(1.86755 -0.149389 0)
(1.87472 -0.147787 0)
(1.88218 -0.143682 0)
(1.89018 -0.135791 0)
(1.89886 -0.125511 0)
(1.90826 -0.113742 0)
(1.91842 -0.101246 0)
(1.92939 -0.0886485 0)
(1.94112 -0.0766145 0)
(1.95347 -0.0658522 0)
(1.96637 -0.0568525 0)
(1.97969 -0.0499647 0)
(1.99321 -0.0454064 0)
(2.00679 -0.0432101 0)
(2.02047 -0.0433322 0)
(2.03416 -0.0456741 0)
(2.04786 -0.0501279 0)
(2.06146 -0.0565799 0)
(2.07487 -0.0647137 0)
(2.08809 -0.0741279 0)
(2.1012 -0.084542 0)
(2.11427 -0.095891 0)
(2.12726 -0.108354 0)
(2.1399 -0.122337 0)
(2.15151 -0.138361 0)
(2.16065 -0.157184 0)
(2.1654 -0.177507 0)
(1.8334 0.0703374 0)
(1.84853 0.0687522 0)
(1.87579 0.0507692 0)
(1.91257 0.0117133 0)
(1.9512 -0.0478605 0)
(1.98168 -0.121916 0)
(1.99563 -0.190912 0)
(1.99431 -0.244275 0)
(1.98656 -0.275085 0)
(1.97564 -0.280892 0)
(1.96737 -0.276649 0)
(1.96123 -0.259691 0)
(1.95868 -0.232609 0)
(1.96132 -0.200388 0)
(1.96989 -0.166711 0)
(1.98451 -0.134633 0)
(2.00414 -0.107874 0)
(2.02719 -0.0886167 0)
(2.0517 -0.0779064 0)
(2.07518 -0.0754387 0)
(2.09595 -0.0798702 0)
(2.11329 -0.090052 0)
(2.12619 -0.104185 0)
(2.13387 -0.11896 0)
(2.13663 -0.131549 0)
(2.13542 -0.141324 0)
(2.1319 -0.147712 0)
(2.12715 -0.149083 0)
(2.123 -0.147994 0)
(2.1192 -0.143876 0)
(2.11603 -0.136749 0)
(2.11413 -0.127621 0)
(2.11386 -0.11719 0)
(2.11524 -0.106165 0)
(2.1183 -0.0951524 0)
(2.12304 -0.0846848 0)
(2.12932 -0.0753787 0)
(2.13692 -0.0676271 0)
(2.14569 -0.0616381 0)
(2.15526 -0.0576155 0)
(2.16537 -0.055656 0)
(2.17577 -0.0558215 0)
(2.18625 -0.0580762 0)
(2.19658 -0.0623042 0)
(2.20645 -0.0683092 0)
(2.21566 -0.0758012 0)
(2.22408 -0.0844916 0)
(2.23167 -0.0941908 0)
(2.23841 -0.104836 0)
(2.24421 -0.116484 0)
(2.24882 -0.12925 0)
(2.25171 -0.143181 0)
(2.25184 -0.158233 0)
(2.24826 -0.173502 0)
(2.23153 0.047024 0)
(2.25615 0.0395608 0)
(2.28416 0.0166002 0)
(2.31283 -0.0223855 0)
(2.33425 -0.0748272 0)
(2.34046 -0.133748 0)
(2.33019 -0.184732 0)
(2.30774 -0.223586 0)
(2.27735 -0.248048 0)
(2.24717 -0.257136 0)
(2.22004 -0.253757 0)
(2.19628 -0.240243 0)
(2.17782 -0.219306 0)
(2.16624 -0.193995 0)
(2.16206 -0.167438 0)
(2.16482 -0.14229 0)
(2.1733 -0.121034 0)
(2.18578 -0.105395 0)
(2.20051 -0.0961093 0)
(2.21544 -0.0930891 0)
(2.22894 -0.0955657 0)
(2.23958 -0.102679 0)
(2.24574 -0.112385 0)
(2.24716 -0.122137 0)
(2.24465 -0.130887 0)
(2.23914 -0.13772 0)
(2.23167 -0.141665 0)
(2.22346 -0.142485 0)
(2.21551 -0.14065 0)
(2.20792 -0.136605 0)
(2.20102 -0.130617 0)
(2.19551 -0.123073 0)
(2.19171 -0.11442 0)
(2.18976 -0.105257 0)
(2.18962 -0.0961874 0)
(2.19127 -0.0875467 0)
(2.19466 -0.0797241 0)
(2.19942 -0.0733319 0)
(2.20551 -0.06853 0)
(2.21269 -0.0654003 0)
(2.22038 -0.0639779 0)
(2.22828 -0.064364 0)
(2.23611 -0.066559 0)
(2.2436 -0.0704363 0)
(2.25055 -0.0758239 0)
(2.25677 -0.0825369 0)
(2.26218 -0.0903892 0)
(2.26672 -0.0992334 0)
(2.27031 -0.108939 0)
(2.27286 -0.119459 0)
(2.27415 -0.130724 0)
(2.27376 -0.142524 0)
(2.27136 -0.1547 0)
(2.26678 -0.166479 0)
(2.38364 0.025584 0)
(2.40576 0.0139952 0)
(2.42681 -0.00771053 0)
(2.44246 -0.0399271 0)
(2.44903 -0.0801139 0)
(2.44423 -0.122777 0)
(2.42813 -0.162412 0)
(2.40473 -0.194485 0)
(2.37512 -0.216001 0)
(2.343 -0.225193 0)
(2.31314 -0.224418 0)
(2.2867 -0.215766 0)
(2.26526 -0.201156 0)
(2.25004 -0.183021 0)
(2.24119 -0.163584 0)
(2.23841 -0.144572 0)
(2.24084 -0.127993 0)
(2.24677 -0.115545 0)
(2.25501 -0.107687 0)
(2.26402 -0.104045 0)
(2.27156 -0.104297 0)
(2.27673 -0.107714 0)
(2.27875 -0.113009 0)
(2.27773 -0.118971 0)
(2.27403 -0.124705 0)
(2.26825 -0.129382 0)
(2.26118 -0.132305 0)
(2.25329 -0.133037 0)
(2.24525 -0.131769 0)
(2.23764 -0.128736 0)
(2.23075 -0.12402 0)
(2.22485 -0.117907 0)
(2.22037 -0.110987 0)
(2.21744 -0.103654 0)
(2.2161 -0.0962649 0)
(2.2163 -0.0893103 0)
(2.21791 -0.0832069 0)
(2.22112 -0.0780974 0)
(2.22505 -0.0742656 0)
(2.22947 -0.0718678 0)
(2.23488 -0.0709405 0)
(2.2406 -0.0715106 0)
(2.24639 -0.0735616 0)
(2.2521 -0.0770263 0)
(2.25751 -0.0818101 0)
(2.26243 -0.0877934 0)
(2.26671 -0.0948295 0)
(2.27027 -0.102754 0)
(2.27295 -0.111441 0)
(2.27488 -0.120772 0)
(2.27523 -0.130596 0)
(2.27419 -0.140727 0)
(2.27187 -0.1509 0)
(2.26722 -0.160432 0)
(2.41402 0.00637124 0)
(2.42957 -0.00590984 0)
(2.44455 -0.0244108 0)
(2.45895 -0.0493723 0)
(2.46091 -0.0795172 0)
(2.45799 -0.112215 0)
(2.44503 -0.143871 0)
(2.4233 -0.169912 0)
(2.39726 -0.187255 0)
(2.36967 -0.195973 0)
(2.34302 -0.19727 0)
(2.31907 -0.192431 0)
(2.29909 -0.182831 0)
(2.28389 -0.17012 0)
(2.27368 -0.156061 0)
(2.26816 -0.142108 0)
(2.26693 -0.129377 0)
(2.26905 -0.119356 0)
(2.27226 -0.112925 0)
(2.27599 -0.109486 0)
(2.28027 -0.108728 0)
(2.28328 -0.109924 0)
(2.28358 -0.112862 0)
(2.28285 -0.116758 0)
(2.27968 -0.120707 0)
(2.27461 -0.123978 0)
(2.26821 -0.125983 0)
(2.26106 -0.126314 0)
(2.25375 -0.124981 0)
(2.24671 -0.122191 0)
(2.24022 -0.118082 0)
(2.23464 -0.112945 0)
(2.23022 -0.107201 0)
(2.22705 -0.101184 0)
(2.22515 -0.0951772 0)
(2.22455 -0.0895151 0)
(2.22513 -0.0845681 0)
(2.22672 -0.0805269 0)
(2.22921 -0.077519 0)
(2.23253 -0.0756805 0)
(2.2364 -0.0751753 0)
(2.24053 -0.0759959 0)
(2.24479 -0.078107 0)
(2.24904 -0.0814714 0)
(2.2531 -0.0860089 0)
(2.25682 -0.0915995 0)
(2.26006 -0.0981058 0)
(2.26269 -0.105386 0)
(2.2646 -0.113297 0)
(2.26566 -0.121644 0)
(2.26577 -0.130263 0)
(2.26476 -0.139006 0)
(2.26245 -0.147568 0)
(2.2588 -0.155349 0)
(2.41183 -0.00574926 0)
(2.42297 -0.0176704 0)
(2.43284 -0.0343607 0)
(2.43963 -0.0551359 0)
(2.44182 -0.0788935 0)
(2.43782 -0.104369 0)
(2.42688 -0.12858 0)
(2.41012 -0.14853 0)
(2.38952 -0.162919 0)
(2.36731 -0.171311 0)
(2.34551 -0.174066 0)
(2.32556 -0.172005 0)
(2.30845 -0.166145 0)
(2.2948 -0.157626 0)
(2.28489 -0.147725 0)
(2.27865 -0.137777 0)
(2.2756 -0.128647 0)
(2.27517 -0.120724 0)
(2.27644 -0.114895 0)
(2.27811 -0.111784 0)
(2.27943 -0.110739 0)
(2.28039 -0.110965 0)
(2.28042 -0.11242 0)
(2.27897 -0.114666 0)
(2.27598 -0.116908 0)
(2.27171 -0.118593 0)
(2.26644 -0.1194 0)
(2.26051 -0.119126 0)
(2.25434 -0.117735 0)
(2.2483 -0.115311 0)
(2.24267 -0.111947 0)
(2.23776 -0.107838 0)
(2.23372 -0.103265 0)
(2.23065 -0.0984489 0)
(2.22859 -0.093649 0)
(2.22756 -0.0892043 0)
(2.22749 -0.0852495 0)
(2.2283 -0.0820567 0)
(2.22974 -0.0799127 0)
(2.2319 -0.0787488 0)
(2.23459 -0.0786987 0)
(2.23757 -0.0797847 0)
(2.24071 -0.0819937 0)
(2.24391 -0.085291 0)
(2.24701 -0.0896017 0)
(2.2499 -0.0948191 0)
(2.25244 -0.10082 0)
(2.25453 -0.10747 0)
(2.25605 -0.114624 0)
(2.25689 -0.122118 0)
(2.25696 -0.129799 0)
(2.25615 -0.137479 0)
(2.25439 -0.144881 0)
(2.25169 -0.151661 0)
(2.39872 -0.0151177 0)
(2.40654 -0.0266746 0)
(2.41318 -0.0412356 0)
(2.41733 -0.0584217 0)
(2.41789 -0.0774993 0)
(2.41403 -0.0972529 0)
(2.40539 -0.11601 0)
(2.39243 -0.132133 0)
(2.37656 -0.14434 0)
(2.35932 -0.152154 0)
(2.3421 -0.155704 0)
(2.32602 -0.155503 0)
(2.31184 -0.152237 0)
(2.30014 -0.146761 0)
(2.29122 -0.140052 0)
(2.28499 -0.132956 0)
(2.28112 -0.126153 0)
(2.27916 -0.120177 0)
(2.27863 -0.115457 0)
(2.27884 -0.112424 0)
(2.27904 -0.11113 0)
(2.27898 -0.11088 0)
(2.27824 -0.111336 0)
(2.27656 -0.112329 0)
(2.27384 -0.113397 0)
(2.27016 -0.114184 0)
(2.26572 -0.114421 0)
(2.26078 -0.113908 0)
(2.25565 -0.112552 0)
(2.2506 -0.110388 0)
(2.24582 -0.107491 0)
(2.24152 -0.103996 0)
(2.23787 -0.100153 0)
(2.23492 -0.0961418 0)
(2.23275 -0.0921483 0)
(2.23136 -0.0885217 0)
(2.23073 -0.0853582 0)
(2.23083 -0.0828019 0)
(2.23145 -0.0812839 0)
(2.2326 -0.0806162 0)
(2.23426 -0.0809119 0)
(2.23621 -0.0822284 0)
(2.23836 -0.0845522 0)
(2.24061 -0.0878496 0)
(2.24286 -0.0920528 0)
(2.245 -0.097061 0)
(2.24693 -0.102753 0)
(2.24854 -0.108992 0)
(2.24976 -0.115631 0)
(2.25047 -0.122513 0)
(2.25059 -0.129496 0)
(2.25005 -0.136369 0)
(2.2488 -0.142948 0)
(2.24687 -0.149024 0)
(2.38786 -0.0217206 0)
(2.39341 -0.0324622 0)
(2.39783 -0.045183 0)
(2.40024 -0.059658 0)
(2.3999 -0.0752861 0)
(2.39634 -0.0911838 0)
(2.38936 -0.106347 0)
(2.37933 -0.119554 0)
(2.36709 -0.129907 0)
(2.35366 -0.137035 0)
(2.34003 -0.14095 0)
(2.32704 -0.141942 0)
(2.31533 -0.140486 0)
(2.30538 -0.137206 0)
(2.29741 -0.132771 0)
(2.29139 -0.127804 0)
(2.28713 -0.122819 0)
(2.28434 -0.118267 0)
(2.28271 -0.114606 0)
(2.28184 -0.112143 0)
(2.28124 -0.110743 0)
(2.28036 -0.110026 0)
(2.27903 -0.109885 0)
(2.27711 -0.110103 0)
(2.2745 -0.110393 0)
(2.27122 -0.110482 0)
(2.26739 -0.110153 0)
(2.26319 -0.109265 0)
(2.25879 -0.107759 0)
(2.2544 -0.105668 0)
(2.25018 -0.103051 0)
(2.24626 -0.100001 0)
(2.24281 -0.0967416 0)
(2.23988 -0.0933971 0)
(2.2375 -0.0900976 0)
(2.23574 -0.0871779 0)
(2.23456 -0.0847276 0)
(2.23396 -0.0827136 0)
(2.2339 -0.0816962 0)
(2.23415 -0.0815604 0)
(2.23483 -0.0822249 0)
(2.23584 -0.0838258 0)
(2.23707 -0.0863422 0)
(2.23846 -0.0897376 0)
(2.23992 -0.0939423 0)
(2.24139 -0.0988536 0)
(2.24278 -0.10435 0)
(2.244 -0.110295 0)
(2.24496 -0.116542 0)
(2.24556 -0.122951 0)
(2.24574 -0.129376 0)
(2.2454 -0.135631 0)
(2.24451 -0.141599 0)
(2.24309 -0.147169 0)
(2.37925 -0.0265423 0)
(2.38325 -0.0365143 0)
(2.38619 -0.0477973 0)
(2.38751 -0.0601947 0)
(2.38671 -0.0732523 0)
(2.38351 -0.0863443 0)
(2.37782 -0.0987908 0)
(2.36989 -0.109761 0)
(2.36026 -0.118645 0)
(2.34962 -0.125125 0)
(2.33869 -0.129153 0)
(2.32809 -0.130895 0)
(2.31835 -0.130678 0)
(2.30983 -0.128935 0)
(2.3027 -0.12614 0)
(2.297 -0.122748 0)
(2.29264 -0.119174 0)
(2.28947 -0.115808 0)
(2.28728 -0.112997 0)
(2.28571 -0.110926 0)
(2.28432 -0.109518 0)
(2.2828 -0.108595 0)
(2.28105 -0.108047 0)
(2.27895 -0.107737 0)
(2.27638 -0.107471 0)
(2.27335 -0.107056 0)
(2.26991 -0.106341 0)
(2.26619 -0.105225 0)
(2.2623 -0.103658 0)
(2.25839 -0.101657 0)
(2.25457 -0.0992554 0)
(2.25093 -0.0965237 0)
(2.24765 -0.0936813 0)
(2.2447 -0.0907988 0)
(2.2421 -0.087967 0)
(2.24 -0.0855466 0)
(2.23834 -0.083629 0)
(2.23695 -0.0820805 0)
(2.23615 -0.0814948 0)
(2.23574 -0.0816402 0)
(2.23552 -0.082611 0)
(2.23561 -0.0844692 0)
(2.23595 -0.0871947 0)
(2.2365 -0.090746 0)
(2.23722 -0.09504 0)
(2.23806 -0.0999678 0)
(2.23894 -0.105404 0)
(2.23978 -0.111205 0)
(2.2405 -0.117215 0)
(2.24102 -0.12332 0)
(2.24124 -0.129329 0)
(2.24105 -0.135101 0)
(2.24037 -0.140569 0)
(2.23922 -0.145705 0)
(2.37164 -0.03032 0)
(2.37464 -0.0394546 0)
(2.37665 -0.0494443 0)
(2.37732 -0.0601303 0)
(2.37632 -0.0711811 0)
(2.37349 -0.0821571 0)
(2.3688 -0.0925927 0)
(2.36243 -0.101892 0)
(2.35476 -0.109615 0)
(2.34625 -0.115508 0)
(2.33742 -0.119506 0)
(2.32874 -0.1217 0)
(2.3206 -0.122308 0)
(2.3133 -0.121631 0)
(2.30699 -0.120013 0)
(2.30175 -0.117802 0)
(2.29753 -0.115338 0)
(2.29422 -0.112927 0)
(2.29165 -0.110816 0)
(2.28954 -0.109124 0)
(2.28764 -0.107822 0)
(2.28573 -0.106814 0)
(2.28372 -0.106043 0)
(2.28148 -0.105417 0)
(2.27895 -0.104796 0)
(2.27609 -0.104042 0)
(2.27295 -0.103049 0)
(2.26958 -0.10174 0)
(2.26606 -0.100078 0)
(2.2625 -0.0980772 0)
(2.25894 -0.0957573 0)
(2.25549 -0.093228 0)
(2.25225 -0.0906334 0)
(2.2491 -0.0879552 0)
(2.24623 -0.0854711 0)
(2.24373 -0.0834243 0)
(2.24134 -0.0816997 0)
(2.23925 -0.0806183 0)
(2.23768 -0.0803822 0)
(2.2363 -0.0808714 0)
(2.23511 -0.082122 0)
(2.23423 -0.0842308 0)
(2.23372 -0.0872135 0)
(2.23344 -0.0909949 0)
(2.2334 -0.095474 0)
(2.23357 -0.100536 0)
(2.2339 -0.106044 0)
(2.23431 -0.111833 0)
(2.23473 -0.117755 0)
(2.23506 -0.123669 0)
(2.23517 -0.12935 0)
(2.2349 -0.134696 0)
(2.23415 -0.139683 0)
(2.23287 -0.14436 0)
(2.36517 -0.0331742 0)
(2.36749 -0.0415112 0)
(2.36891 -0.0504159 0)
(2.3692 -0.0597575 0)
(2.36815 -0.0692859 0)
(2.36569 -0.0786948 0)
(2.36181 -0.0876397 0)
(2.35667 -0.0956696 0)
(2.35051 -0.102459 0)
(2.34366 -0.107832 0)
(2.33648 -0.111736 0)
(2.32934 -0.114213 0)
(2.32253 -0.115395 0)
(2.31629 -0.115486 0)
(2.31074 -0.114728 0)
(2.30594 -0.113382 0)
(2.30187 -0.111707 0)
(2.29847 -0.109948 0)
(2.29559 -0.108298 0)
(2.29306 -0.106859 0)
(2.29074 -0.105636 0)
(2.28848 -0.104591 0)
(2.28618 -0.103687 0)
(2.28377 -0.102853 0)
(2.28116 -0.101975 0)
(2.27832 -0.100956 0)
(2.27526 -0.0997276 0)
(2.27202 -0.0982389 0)
(2.26863 -0.096468 0)
(2.26514 -0.0944219 0)
(2.2616 -0.0921412 0)
(2.25807 -0.0897183 0)
(2.25454 -0.0872035 0)
(2.25105 -0.0847281 0)
(2.24777 -0.0825336 0)
(2.2445 -0.0806053 0)
(2.24138 -0.0791834 0)
(2.23868 -0.0784396 0)
(2.23587 -0.078397 0)
(2.23332 -0.079126 0)
(2.23118 -0.0806774 0)
(2.22928 -0.0831103 0)
(2.22763 -0.0864021 0)
(2.22625 -0.0904637 0)
(2.22517 -0.0952007 0)
(2.22438 -0.100492 0)
(2.22382 -0.106175 0)
(2.22345 -0.112057 0)
(2.22317 -0.118 0)
(2.22286 -0.123793 0)
(2.22233 -0.129189 0)
(2.22137 -0.134062 0)
(2.21981 -0.138477 0)
(2.2175 -0.14254 0)
(2.35981 -0.0356105 0)
(2.36167 -0.0431461 0)
(2.36271 -0.0510645 0)
(2.36276 -0.0592623 0)
(2.36173 -0.0675522 0)
(2.35958 -0.0756879 0)
(2.35631 -0.0834508 0)
(2.35206 -0.0905023 0)
(2.347 -0.0965287 0)
(2.34133 -0.101389 0)
(2.33531 -0.105074 0)
(2.32926 -0.107629 0)
(2.32341 -0.109139 0)
(2.31788 -0.109732 0)
(2.31281 -0.109577 0)
(2.3082 -0.108876 0)
(2.30407 -0.107818 0)
(2.3004 -0.106593 0)
(2.29713 -0.105375 0)
(2.29419 -0.104252 0)
(2.29144 -0.103221 0)
(2.28878 -0.102254 0)
(2.2861 -0.101319 0)
(2.28328 -0.100373 0)
(2.28035 -0.099345 0)
(2.27725 -0.0981639 0)
(2.27397 -0.0967718 0)
(2.27049 -0.0951296 0)
(2.26682 -0.0932225 0)
(2.26297 -0.0910655 0)
(2.25896 -0.0887025 0)
(2.25483 -0.0862042 0)
(2.25061 -0.0836686 0)
(2.24637 -0.0812227 0)
(2.24218 -0.0789995 0)
(2.23794 -0.0771382 0)
(2.23371 -0.075803 0)
(2.22953 -0.0751069 0)
(2.22536 -0.0751465 0)
(2.2213 -0.0760472 0)
(2.21734 -0.0778619 0)
(2.21354 -0.0805697 0)
(2.20996 -0.0841307 0)
(2.20663 -0.088482 0)
(2.20356 -0.0935256 0)
(2.20074 -0.0991107 0)
(2.19815 -0.105034 0)
(2.19573 -0.111117 0)
(2.19336 -0.117126 0)
(2.19089 -0.122738 0)
(2.18812 -0.127716 0)
(2.18473 -0.132054 0)
(2.18042 -0.135712 0)
(2.17492 -0.138782 0)
(2.35531 -0.0377543 0)
(2.35674 -0.0445447 0)
(2.35736 -0.0516133 0)
(2.35711 -0.0588665 0)
(2.35592 -0.0661672 0)
(2.35379 -0.0733383 0)
(2.35073 -0.0801403 0)
(2.34672 -0.086358 0)
(2.34196 -0.0917941 0)
(2.33691 -0.0963215 0)
(2.33156 -0.0998792 0)
(2.32598 -0.102467 0)
(2.32032 -0.104132 0)
(2.31471 -0.104972 0)
(2.30928 -0.105135 0)
(2.30414 -0.104785 0)
(2.29936 -0.104091 0)
(2.29504 -0.103208 0)
(2.29094 -0.102247 0)
(2.28701 -0.101273 0)
(2.28315 -0.100306 0)
(2.2793 -0.0993308 0)
(2.27539 -0.0983196 0)
(2.27135 -0.0972428 0)
(2.26713 -0.0960557 0)
(2.26267 -0.0946954 0)
(2.25796 -0.0931051 0)
(2.25299 -0.0912523 0)
(2.24777 -0.0891339 0)
(2.24229 -0.0867755 0)
(2.23657 -0.0842292 0)
(2.23063 -0.0815783 0)
(2.22447 -0.0789289 0)
(2.2181 -0.0764035 0)
(2.21152 -0.0741339 0)
(2.20473 -0.0722444 0)
(2.19777 -0.0708801 0)
(2.19064 -0.0701737 0)
(2.18338 -0.070238 0)
(2.17603 -0.0711784 0)
(2.16861 -0.0730438 0)
(2.16114 -0.0758354 0)
(2.15367 -0.0795296 0)
(2.14625 -0.0840606 0)
(2.13888 -0.0893037 0)
(2.13156 -0.0950797 0)
(2.12424 -0.101173 0)
(2.11684 -0.107302 0)
(2.10923 -0.113128 0)
(2.10118 -0.118545 0)
(2.09243 -0.122951 0)
(2.08266 -0.12628 0)
(2.07145 -0.128557 0)
(2.05841 -0.129958 0)
(2.34462 -0.0388772 0)
(2.345 -0.044877 0)
(2.34453 -0.0511051 0)
(2.34317 -0.0574815 0)
(2.3409 -0.0638837 0)
(2.3377 -0.0701582 0)
(2.33363 -0.0761214 0)
(2.32877 -0.081596 0)
(2.32317 -0.0864618 0)
(2.31695 -0.0906094 0)
(2.31025 -0.0939166 0)
(2.30321 -0.0963349 0)
(2.29596 -0.0979146 0)
(2.2886 -0.0987752 0)
(2.28119 -0.0990639 0)
(2.27376 -0.0989317 0)
(2.26634 -0.0985234 0)
(2.25891 -0.0979254 0)
(2.25146 -0.0971696 0)
(2.24397 -0.0962951 0)
(2.23637 -0.0953315 0)
(2.22862 -0.0942762 0)
(2.22065 -0.0931134 0)
(2.21242 -0.0918212 0)
(2.20387 -0.0903652 0)
(2.19497 -0.0887033 0)
(2.18569 -0.0867972 0)
(2.17602 -0.084626 0)
(2.16598 -0.0821921 0)
(2.15557 -0.0795213 0)
(2.14482 -0.0766632 0)
(2.13375 -0.0736957 0)
(2.12233 -0.0707199 0)
(2.11061 -0.0678561 0)
(2.09859 -0.0652395 0)
(2.08627 -0.063013 0)
(2.07365 -0.0613324 0)
(2.06072 -0.0603463 0)
(2.04746 -0.0601738 0)
(2.03384 -0.0609058 0)
(2.01986 -0.0625953 0)
(2.00548 -0.0652458 0)
(1.99068 -0.0688159 0)
(1.97543 -0.0732183 0)
(1.95967 -0.0783149 0)
(1.94332 -0.0839158 0)
(1.92631 -0.0897826 0)
(1.90855 -0.0956305 0)
(1.88994 -0.101107 0)
(1.87032 -0.10578 0)
(1.84941 -0.109239 0)
(1.82691 -0.111227 0)
(1.80244 -0.111715 0)
(1.77563 -0.11093 0)
(2.29407 -0.0397237 0)
(2.29162 -0.0448612 0)
(2.28803 -0.0501942 0)
(2.28323 -0.0556508 0)
(2.27721 -0.0611151 0)
(2.26996 -0.0664381 0)
(2.26151 -0.0717132 0)
(2.25191 -0.076224 0)
(2.24122 -0.0803186 0)
(2.22954 -0.0837814 0)
(2.21695 -0.086488 0)
(2.2036 -0.0884284 0)
(2.18959 -0.0896514 0)
(2.17503 -0.090243 0)
(2.16 -0.0903171 0)
(2.14458 -0.0899879 0)
(2.12881 -0.0893613 0)
(2.11272 -0.0885364 0)
(2.09631 -0.0875848 0)
(2.07956 -0.0865435 0)
(2.06235 -0.0854135 0)
(2.04466 -0.0841666 0)
(2.02649 -0.0827624 0)
(2.00779 -0.0811629 0)
(1.98855 -0.0793407 0)
(1.96879 -0.0772825 0)
(1.94854 -0.0749788 0)
(1.92786 -0.0724278 0)
(1.90684 -0.0696462 0)
(1.88556 -0.0666667 0)
(1.86414 -0.0635356 0)
(1.84263 -0.0603078 0)
(1.82111 -0.0570603 0)
(1.79962 -0.0539066 0)
(1.77819 -0.0509615 0)
(1.75671 -0.0483302 0)
(1.73511 -0.0461542 0)
(1.71329 -0.0445966 0)
(1.6911 -0.0437891 0)
(1.66839 -0.0438298 0)
(1.64498 -0.0447992 0)
(1.62065 -0.0467175 0)
(1.59511 -0.0495244 0)
(1.56812 -0.0531007 0)
(1.53943 -0.0572683 0)
(1.50882 -0.0617901 0)
(1.47615 -0.0663865 0)
(1.44136 -0.0707599 0)
(1.40454 -0.0745761 0)
(1.36589 -0.0774443 0)
(1.32567 -0.0789302 0)
(1.28405 -0.0787009 0)
(1.24105 -0.0767074 0)
(1.19659 -0.0732481 0)
(2.08122 -0.0338233 0)
(2.06977 -0.0374648 0)
(2.05641 -0.0412499 0)
(2.04105 -0.0451163 0)
(2.02365 -0.0489954 0)
(2.00423 -0.0527973 0)
(1.98279 -0.0564089 0)
(1.95943 -0.0597161 0)
(1.93431 -0.0626052 0)
(1.90757 -0.0649749 0)
(1.8794 -0.0667528 0)
(1.84988 -0.0679112 0)
(1.81924 -0.0684683 0)
(1.78775 -0.0684909 0)
(1.75561 -0.0680683 0)
(1.72293 -0.0673005 0)
(1.68994 -0.0661901 0)
(1.65607 -0.0647187 0)
(1.62112 -0.063003 0)
(1.58521 -0.061146 0)
(1.54848 -0.0592188 0)
(1.51103 -0.0572396 0)
(1.47298 -0.0551646 0)
(1.43445 -0.0529262 0)
(1.39562 -0.0504677 0)
(1.35665 -0.0477894 0)
(1.31777 -0.044903 0)
(1.27931 -0.0418418 0)
(1.24154 -0.0386529 0)
(1.20475 -0.0354012 0)
(1.16922 -0.0321619 0)
(1.13517 -0.0290116 0)
(1.10275 -0.0260347 0)
(1.07197 -0.0233182 0)
(1.04275 -0.0209233 0)
(1.01496 -0.0188837 0)
(0.988293 -0.0172235 0)
(0.962181 -0.0159686 0)
(0.936103 -0.0151432 0)
(0.909631 -0.0147405 0)
(0.882112 -0.0147103 0)
(0.853132 -0.0149996 0)
(0.822494 -0.0155926 0)
(0.78996 -0.0164996 0)
(0.755415 -0.0177309 0)
(0.718927 -0.019292 0)
(0.68072 -0.0211882 0)
(0.641142 -0.0234078 0)
(0.600581 -0.0258082 0)
(0.5597 -0.0279202 0)
(0.519648 -0.0290653 0)
(0.480783 -0.0287267 0)
(0.442985 -0.0264545 0)
(0.405821 -0.0220535 0)
(1.24724 -0.0201633 0)
(1.21911 -0.0216309 0)
(1.18846 -0.023159 0)
(1.15518 -0.0246862 0)
(1.1192 -0.0261568 0)
(1.08056 -0.0275099 0)
(1.03938 -0.0286882 0)
(0.995918 -0.0295753 0)
(0.950506 -0.0301156 0)
(0.903547 -0.0302822 0)
(0.855517 -0.0300448 0)
(0.806973 -0.0294152 0)
(0.758355 -0.0284808 0)
(0.710197 -0.0273806 0)
(0.662644 -0.0262216 0)
(0.616188 -0.0250875 0)
(0.570206 -0.0237579 0)
(0.526671 -0.0220147 0)
(0.485246 -0.0198324 0)
(0.446269 -0.0172628 0)
(0.409513 -0.0143958 0)
(0.374952 -0.0113609 0)
(0.342746 -0.0083213 0)
(0.312979 -0.00542995 0)
(0.285638 -0.00280905 0)
(0.260695 -0.000533632 0)
(0.238127 0.00138548 0)
(0.217854 0.00285749 0)
(0.199747 0.00389108 0)
(0.183658 0.00454331 0)
(0.169427 0.00489861 0)
(0.156888 0.00506254 0)
(0.145893 0.00514377 0)
(0.136311 0.00523801 0)
(0.128023 0.0054317 0)
(0.120947 0.00580288 0)
(0.11505 0.0063984 0)
(0.110309 0.0072074 0)
(0.106658 0.00819699 0)
(0.103971 0.00931156 0)
(0.102029 0.0103003 0)
(0.100522 0.0108545 0)
(0.0990805 0.01087 0)
(0.0973248 0.0103053 0)
(0.0948695 0.0091563 0)
(0.0913141 0.00752073 0)
(0.0862621 0.00556781 0)
(0.0793494 0.003535 0)
(0.0702843 0.00173123 0)
(0.0589069 0.000568325 0)
(0.0454377 0.000442908 0)
(0.030837 0.00148816 0)
(0.0170789 0.0035711 0)
(0.0061439 0.00594997 0)
(1.05234 -0.182224 0)
(1.049 -0.238862 0)
(1.01534 -0.284991 0)
(0.958744 -0.30268 0)
(0.88303 -0.284604 0)
(0.802164 -0.231739 0)
(0.744679 -0.146413 0)
(0.739612 -0.0328734 0)
(0.799218 0.0961471 0)
(0.912467 0.216576 0)
(1.06731 0.305627 0)
(1.25035 0.348722 0)
(1.44747 0.339144 0)
(1.64666 0.273914 0)
(1.84606 0.146338 0)
(2.0391 -0.0372333 0)
(2.18946 -0.23173 0)
(2.28455 -0.408096 0)
(2.32934 -0.553645 0)
(2.3332 -0.664476 0)
(2.3073 -0.742196 0)
(2.25887 -0.789508 0)
(2.19522 -0.808591 0)
(2.12458 -0.806629 0)
(2.05239 -0.791413 0)
(1.98298 -0.768437 0)
(1.91757 -0.74117 0)
(1.85593 -0.711808 0)
(1.79721 -0.681677 0)
(1.74074 -0.650996 0)
(1.68654 -0.618676 0)
(1.63414 -0.584153 0)
(1.58007 -0.550406 0)
(1.51772 -0.523134 0)
(1.44356 -0.503926 0)
(1.36502 -0.483072 0)
(1.29707 -0.443291 0)
(1.25387 -0.370904 0)
(1.2414 -0.265071 0)
(1.25387 -0.134121 0)
(1.29229 0.00904335 0)
(1.34185 0.148681 0)
(1.39755 0.275251 0)
(1.45517 0.384516 0)
(1.51119 0.47511 0)
(1.56317 0.547856 0)
(1.60965 0.605143 0)
(1.65015 0.65015 0)
(1.68502 0.685909 0)
(1.71523 0.714549 0)
(1.74183 0.736764 0)
(1.76664 0.751328 0)
(1.79294 0.753927 0)
(1.82297 0.738152 0)
(1.85795 0.696928 0)
(1.89723 0.626087 0)
(1.94017 0.525171 0)
(1.98567 0.397271 0)
(2.03149 0.24998 0)
(2.07358 0.0963051 0)
(2.10829 -0.051127 0)
(2.13389 -0.184627 0)
(2.14962 -0.299203 0)
(2.15552 -0.392548 0)
(2.15235 -0.464414 0)
(2.14137 -0.516111 0)
(2.12361 -0.549669 0)
(2.09893 -0.566885 0)
(2.06863 -0.569538 0)
(2.03395 -0.561575 0)
(1.99575 -0.546791 0)
(1.95469 -0.528654 0)
(1.91111 -0.510168 0)
(1.86542 -0.493296 0)
(1.81829 -0.478424 0)
(1.7708 -0.46413 0)
(1.72434 -0.44739 0)
(1.68053 -0.424362 0)
(1.58709 -0.214065 0)
(1.58235 -0.260575 0)
(1.55559 -0.275809 0)
(1.52235 -0.265592 0)
(1.4901 -0.228109 0)
(1.46395 -0.16635 0)
(1.44858 -0.0882568 0)
(1.44624 -0.00799062 0)
(1.46729 0.0641885 0)
(1.52498 0.125511 0)
(1.62115 0.168239 0)
(1.74909 0.182779 0)
(1.89854 0.159354 0)
(2.0623 0.0877806 0)
(2.2274 -0.0340711 0)
(2.35789 -0.178527 0)
(2.43854 -0.319233 0)
(2.47117 -0.445526 0)
(2.46416 -0.552139 0)
(2.43294 -0.634384 0)
(2.37887 -0.690712 0)
(2.3104 -0.722152 0)
(2.23522 -0.733839 0)
(2.15876 -0.731301 0)
(2.08493 -0.718936 0)
(2.01519 -0.700112 0)
(1.94985 -0.677139 0)
(1.8886 -0.651459 0)
(1.83061 -0.62404 0)
(1.77491 -0.595475 0)
(1.72107 -0.565448 0)
(1.66943 -0.532632 0)
(1.61961 -0.496683 0)
(1.56766 -0.460796 0)
(1.50683 -0.430581 0)
(1.43444 -0.407022 0)
(1.36008 -0.380059 0)
(1.29951 -0.333077 0)
(1.26587 -0.256645 0)
(1.26237 -0.152644 0)
(1.28477 -0.0297189 0)
(1.32612 0.0989518 0)
(1.37658 0.220186 0)
(1.43121 0.328211 0)
(1.48644 0.42062 0)
(1.53963 0.497247 0)
(1.58911 0.559494 0)
(1.63423 0.609626 0)
(1.67514 0.649939 0)
(1.71256 0.682009 0)
(1.74779 0.706003 0)
(1.78337 0.719967 0)
(1.82149 0.719569 0)
(1.86375 0.699376 0)
(1.91078 0.6537 0)
(1.96179 0.579239 0)
(2.01552 0.475956 0)
(2.07012 0.347773 0)
(2.1223 0.203608 0)
(2.16711 0.0573179 0)
(2.20149 -0.0806123 0)
(2.22418 -0.203494 0)
(2.23503 -0.307367 0)
(2.23475 -0.390714 0)
(2.22476 -0.45373 0)
(2.20654 -0.497834 0)
(2.18068 -0.52463 0)
(2.14796 -0.535443 0)
(2.11036 -0.533243 0)
(2.06894 -0.521709 0)
(2.02472 -0.504087 0)
(1.97826 -0.483559 0)
(1.92985 -0.463033 0)
(1.8798 -0.44463 0)
(1.82876 -0.429067 0)
(1.77769 -0.415247 0)
(1.72783 -0.400438 0)
(1.68064 -0.380907 0)
(1.95592 -0.209881 0)
(1.94603 -0.233792 0)
(1.92131 -0.242165 0)
(1.89323 -0.231772 0)
(1.86896 -0.203373 0)
(1.85351 -0.159698 0)
(1.85354 -0.104927 0)
(1.87438 -0.0440023 0)
(1.91747 0.0141341 0)
(1.98299 0.0576868 0)
(2.06728 0.0787011 0)
(2.16666 0.0716751 0)
(2.2803 0.0326663 0)
(2.3887 -0.0379347 0)
(2.47155 -0.13323 0)
(2.5217 -0.24175 0)
(2.53795 -0.345287 0)
(2.53536 -0.438445 0)
(2.5076 -0.519664 0)
(2.45726 -0.581367 0)
(2.39363 -0.622983 0)
(2.32208 -0.647211 0)
(2.248 -0.657497 0)
(2.17491 -0.656939 0)
(2.10474 -0.648223 0)
(2.0383 -0.633596 0)
(1.9757 -0.614723 0)
(1.91668 -0.592672 0)
(1.86077 -0.568106 0)
(1.80726 -0.54152 0)
(1.75545 -0.513194 0)
(1.70521 -0.482654 0)
(1.65727 -0.448598 0)
(1.61136 -0.410601 0)
(1.56357 -0.371601 0)
(1.50728 -0.337 0)
(1.43999 -0.308174 0)
(1.37128 -0.276503 0)
(1.31713 -0.227158 0)
(1.29026 -0.152615 0)
(1.29283 -0.0550159 0)
(1.32061 0.0568001 0)
(1.36376 0.170074 0)
(1.41402 0.274475 0)
(1.46715 0.366577 0)
(1.52031 0.445137 0)
(1.57172 0.510545 0)
(1.62059 0.564166 0)
(1.66693 0.607542 0)
(1.71144 0.641569 0)
(1.75568 0.665733 0)
(1.80192 0.677658 0)
(1.85143 0.673451 0)
(1.90546 0.648619 0)
(1.96399 0.598798 0)
(2.02589 0.521466 0)
(2.08942 0.417212 0)
(2.15192 0.29107 0)
(2.20878 0.15341 0)
(2.25472 0.0176892 0)
(2.28751 -0.107965 0)