/*--------------------------------*- C++ -*----------------------------------*\
| =========                 |                                                 |
| \\      /  F ield         | OpenFOAM: The Open Source CFD Toolbox           |
|  \\    /   O peration     | Version:  2206                                  |
|   \\  /    A nd           | Website:  www.openfoam.com                      |
|    \\/     M anipulation  |                                                 |
\*---------------------------------------------------------------------------*/
FoamFile
{
    version     2.0;
    format      ascii;
    arch        "LSB;label=32;scalar=64";
    class       volVectorField;
    location    "18.2001";
    object      U;
}
// * * * * * * * * * * * * * * * * * * * * * * * * * * * * * * * * * * * * * //

dimensions      [0 1 -1 0 0 0 0];

internalField   nonuniform List<vector> 
1839
(
(2.27093 0.0106886 0)
(2.30308 -0.0382969 0)
(2.32276 -0.0810318 0)
(2.3283 -0.115979 0)
(2.31669 -0.141374 0)
(2.28661 -0.154214 0)
(2.23984 -0.155113 0)
(2.18094 -0.1476 0)
(2.11675 -0.136639 0)
(2.05391 -0.126836 0)
(1.99553 -0.120636 0)
(1.9433 -0.118385 0)
(1.8978 -0.118971 0)
(1.85879 -0.12046 0)
(1.82561 -0.120636 0)
(1.79753 -0.117459 0)
(1.77404 -0.10928 0)
(1.7552 -0.0950464 0)
(1.74149 -0.0747104 0)
(1.73292 -0.0486451 0)
(1.72967 -0.0179165 0)
(1.73191 0.0158164 0)
(1.73963 0.0505439 0)
(1.75235 0.0839248 0)
(1.76942 0.114122 0)
(1.79019 0.13978 0)
(1.81402 0.159876 0)
(1.84037 0.173707 0)
(1.86866 0.180859 0)
(1.89821 0.181195 0)
(1.92859 0.174739 0)
(1.95937 0.161597 0)
(1.9901 0.142108 0)
(2.02016 0.116969 0)
(2.0483 0.0875124 0)
(2.07259 0.0558626 0)
(2.09142 0.023786 0)
(2.10347 -0.00708133 0)
(2.10799 -0.0353518 0)
(2.10435 -0.0600233 0)
(2.09204 -0.0799881 0)
(2.07188 -0.0942341 0)
(2.04545 -0.103573 0)
(2.01503 -0.109246 0)
(1.98304 -0.11239 0)
(1.95157 -0.113829 0)
(1.92166 -0.11388 0)
(1.89396 -0.11236 0)
(1.86887 -0.108834 0)
(1.84663 -0.10281 0)
(1.82743 -0.0938339 0)
(1.81152 -0.0815453 0)
(1.79922 -0.0658717 0)
(1.79069 -0.0470307 0)
(1.78598 -0.0254837 0)
(1.78512 -0.00207256 0)
(1.78808 0.022051 0)
(1.79455 0.0454551 0)
(1.80413 0.0669755 0)
(1.81634 0.0857055 0)
(1.83072 0.100945 0)
(1.84679 0.112211 0)
(1.86418 0.119229 0)
(1.88246 0.121904 0)
(1.90117 0.120281 0)
(1.92001 0.114468 0)
(1.93864 0.104649 0)
(1.95668 0.0911787 0)
(1.97361 0.074626 0)
(1.98867 0.0558652 0)
(2.00103 0.0359094 0)
(2.01004 0.0155832 0)
(2.01526 -0.00431491 0)
(2.01646 -0.0230573 0)
(2.01354 -0.0400431 0)
(2.00646 -0.0547578 0)
(1.99552 -0.0666914 0)
(1.98134 -0.0757189 0)
(1.96473 -0.0820461 0)
(1.94662 -0.0858868 0)
(1.92794 -0.0874035 0)
(1.90945 -0.086734 0)
(1.89167 -0.0839341 0)
(1.87507 -0.0789602 0)
(1.86003 -0.0717567 0)
(1.84693 -0.06229 0)
(1.83608 -0.0506 0)
(1.82776 -0.0368933 0)
(1.82215 -0.0214851 0)
(1.81936 -0.00487642 0)
(1.81946 0.0121762 0)
(1.82232 0.0287543 0)
(1.8277 0.0440905 0)
(1.83526 0.0575138 0)
(1.84462 0.0684916 0)
(1.8554 0.0766517 0)
(1.86724 0.0817883 0)
(1.87979 0.0838542 0)
(1.89268 0.0829166 0)
(1.90564 0.0790794 0)
(1.91839 0.0724967 0)
(1.93062 0.0634474 0)
(1.94198 0.0523348 0)
(1.95206 0.0396954 0)
(1.9604 0.0261626 0)
(1.96666 0.0122577 0)
(1.97062 -0.00149912 0)
(1.97217 -0.014623 0)
(1.97129 -0.0266901 0)
(1.96802 -0.0373481 0)
(1.96243 -0.0462924 0)
(1.95471 -0.0532448 0)
(1.94529 -0.0580742 0)
(1.93458 -0.0608694 0)
(1.92306 -0.0617482 0)
(1.91119 -0.0608047 0)
(1.89939 -0.0581339 0)
(1.88809 -0.0538468 0)
(1.87765 -0.0480452 0)
(1.86837 -0.0408282 0)
(1.8605 -0.0323044 0)
(1.85425 -0.0226293 0)
(2.18914 -0.0244876 0)
(2.20361 -0.0589076 0)
(2.2008 -0.0859203 0)
(2.17892 -0.101101 0)
(2.1406 -0.105954 0)
(2.0903 -0.101747 0)
(2.03393 -0.0925096 0)
(1.9778 -0.082321 0)
(1.92532 -0.0743688 0)
(1.87798 -0.0704674 0)
(1.83599 -0.0709582 0)
(1.7988 -0.0751187 0)
(1.7655 -0.0813892 0)
(1.73516 -0.0876679 0)
(1.70711 -0.0918291 0)
(1.68112 -0.0921849 0)
(1.65745 -0.0876452 0)
(1.63677 -0.0776238 0)
(1.62012 -0.0620385 0)
(1.60833 -0.0412718 0)
(1.60194 -0.0162183 0)
(1.60137 0.0117441 0)
(1.60683 0.040722 0)
(1.61814 0.0688484 0)
(1.63481 0.0944599 0)
(1.65625 0.116169 0)
(1.6818 0.132932 0)
(1.71081 0.144067 0)
(1.74271 0.149196 0)
(1.77693 0.148079 0)
(1.81285 0.140555 0)
(1.84956 0.126771 0)
(1.88559 0.107501 0)
(1.91874 0.0844229 0)
(1.94695 0.0593776 0)
(1.96849 0.0339972 0)
(1.98226 0.00962759 0)
(1.98784 -0.0127209 0)
(1.98488 -0.0323283 0)
(1.97356 -0.0479342 0)
(1.95516 -0.0592979 0)
(1.93152 -0.0674159 0)
(1.90474 -0.0732911 0)
(1.87663 -0.0777532 0)
(1.84852 -0.0813361 0)
(1.82108 -0.0841802 0)
(1.79468 -0.0860643 0)
(1.76955 -0.0865892 0)
(1.74589 -0.0852807 0)
(1.72393 -0.0816809 0)
(1.70404 -0.0754318 0)
(1.68664 -0.0662972 0)
(1.67222 -0.0541514 0)
(1.66131 -0.0390868 0)
(1.65429 -0.0215594 0)
(1.65134 -0.00222279 0)
(1.65256 0.0179164 0)
(1.65784 0.037695 0)
(1.66683 0.0560065 0)
(1.67914 0.0719901 0)
(1.69431 0.0849558 0)
(1.71184 0.094385 0)
(1.73123 0.099998 0)
(1.75205 0.101712 0)
(1.77385 0.0995128 0)
(1.79612 0.0934682 0)
(1.81823 0.0838591 0)
(1.83926 0.0712985 0)
(1.85816 0.0566789 0)
(1.87407 0.0408359 0)
(1.88626 0.0245174 0)
(1.89426 0.00836843 0)
(1.89786 -0.00705633 0)
(1.897 -0.0212991 0)
(1.8917 -0.0338469 0)
(1.88233 -0.0442389 0)
(1.8695 -0.0525517 0)
(1.85399 -0.0589709 0)
(1.83667 -0.0636509 0)
(1.81828 -0.0666993 0)
(1.79952 -0.0681511 0)
(1.78094 -0.0679734 0)
(1.76296 -0.0660896 0)
(1.74598 -0.0624039 0)
(1.73037 -0.0568506 0)
(1.71649 -0.0494104 0)
(1.70471 -0.0401187 0)
(1.69536 -0.0290627 0)
(1.68874 -0.0164881 0)
(1.68506 -0.00286011 0)
(1.6844 0.0111772 0)
(1.6867 0.0249162 0)
(1.6918 0.0376841 0)
(1.69946 0.0488805 0)
(1.70935 0.0579963 0)
(1.72106 0.0646481 0)
(1.73421 0.0686547 0)
(1.7484 0.0699835 0)
(1.76328 0.0686521 0)
(1.77846 0.0647256 0)
(1.79348 0.0583957 0)
(1.80779 0.0500412 0)
(1.82076 0.0401996 0)
(1.83188 0.0293733 0)
(1.84071 0.0180381 0)
(1.84696 0.00663349 0)
(1.85046 -0.0044357 0)
(1.85116 -0.014819 0)
(1.84905 -0.0242041 0)
(1.84418 -0.0322383 0)
(1.83684 -0.038663 0)
(1.82743 -0.0434951 0)
(1.81644 -0.0467914 0)
(1.80438 -0.0486034 0)
(1.79176 -0.0489837 0)
(1.77901 -0.0479989 0)
(1.76658 -0.0457214 0)
(1.75478 -0.0421946 0)
(1.74392 -0.0374624 0)
(1.73426 -0.031587 0)
(1.72604 -0.0246587 0)
(1.71949 -0.0167937 0)
(2.02665 -0.033934 0)
(2.00965 -0.0493056 0)
(1.97932 -0.0560635 0)
(1.94012 -0.0559858 0)
(1.89704 -0.0518198 0)
(1.85474 -0.0459987 0)
(1.81579 -0.0403443 0)
(1.78137 -0.0361704 0)
(1.75148 -0.0343931 0)
(1.72528 -0.0356453 0)
(1.7015 -0.0399994 0)
(1.67882 -0.0466681 0)
(1.65606 -0.0541903 0)
(1.63243 -0.0609701 0)
(1.60791 -0.0655284 0)
(1.58315 -0.0667319 0)
(1.55911 -0.0639291 0)
(1.53695 -0.056842 0)
(1.51794 -0.0453925 0)
(1.50332 -0.0297311 0)
(1.4943 -0.0105115 0)
(1.49155 0.0110939 0)
(1.4953 0.0336211 0)
(1.50565 0.0555228 0)
(1.52229 0.075374 0)
(1.54467 0.0919477 0)
(1.57205 0.10425 0)
(1.6036 0.111537 0)
(1.63834 0.113321 0)
(1.67513 0.109475 0)
(1.7125 0.100414 0)
(1.74827 0.0872141 0)
(1.78038 0.0712787 0)
(1.80696 0.0539924 0)
(1.82668 0.0365492 0)
(1.83899 0.0197819 0)
(1.8439 0.00417207 0)
(1.84158 -0.00974047 0)
(1.83274 -0.0210135 0)
(1.81874 -0.0298291 0)
(1.80106 -0.0368584 0)
(1.78116 -0.0425984 0)
(1.76005 -0.0474699 0)
(1.73832 -0.0517867 0)
(1.71626 -0.0556507 0)
(1.694 -0.058943 0)
(1.67167 -0.0613966 0)
(1.64945 -0.0626573 0)
(1.62761 -0.0623458 0)
(1.60654 -0.060127 0)
(1.58676 -0.0557434 0)
(1.56882 -0.0490347 0)
(1.55335 -0.0399627 0)
(1.54098 -0.0285894 0)
(1.53234 -0.0151369 0)
(1.52788 -0.000115408 0)
(1.52783 0.0155861 0)
(1.53221 0.0310325 0)
(1.54086 0.0453471 0)
(1.55341 0.0577557 0)
(1.56938 0.0676341 0)
(1.5882 0.0745296 0)
(1.60925 0.0781523 0)
(1.63183 0.0783711 0)
(1.65519 0.0752558 0)
(1.67844 0.0691411 0)
(1.70046 0.0606236 0)
(1.72028 0.0503672 0)
(1.73705 0.0390198 0)
(1.75013 0.0271739 0)
(1.75914 0.0153157 0)
(1.76399 0.0038013 0)
(1.76469 -0.00706058 0)
(1.76128 -0.0168427 0)
(1.75414 -0.0251443 0)
(1.74381 -0.0320653 0)
(1.73095 -0.0377237 0)
(1.71619 -0.04222 0)
(1.70009 -0.0456415 0)
(1.68316 -0.0480262 0)
(1.66581 -0.0493319 0)
(1.64848 -0.0494513 0)
(1.63154 -0.0482676 0)
(1.61535 -0.0456779 0)
(1.60029 -0.0416032 0)
(1.58674 -0.0360162 0)
(1.57507 -0.0289469 0)
(1.56567 -0.020506 0)
(1.55889 -0.0108616 0)
(1.55502 -0.000320701 0)
(1.55421 0.0106137 0)
(1.5565 0.0213045 0)
(1.5618 0.0311631 0)
(1.5699 0.0397013 0)
(1.58047 0.0465158 0)
(1.59309 0.0513091 0)
(1.60731 0.0538921 0)
(1.62263 0.0541845 0)
(1.63854 0.0522337 0)
(1.65444 0.0482392 0)
(1.66961 0.0425513 0)
(1.68343 0.0355656 0)
(1.69534 0.0276846 0)
(1.7049 0.0192945 0)
(1.71182 0.0107414 0)
(1.71598 0.00230688 0)
(1.71735 -0.00576413 0)
(1.7159 -0.0131989 0)
(1.71177 -0.0196276 0)
(1.70526 -0.0249462 0)
(1.69677 -0.0291902 0)
(1.68675 -0.0323824 0)
(1.67567 -0.0345444 0)
(1.66393 -0.0357039 0)
(1.65191 -0.0358854 0)
(1.63997 -0.0351085 0)
(1.6284 -0.0333779 0)
(1.61746 -0.0306878 0)
(1.60741 -0.0270576 0)
(1.59851 -0.0225293 0)
(1.59097 -0.0171701 0)
(1.58502 -0.0110774 0)
(1.76617 -0.00745541 0)
(1.74299 -0.0125959 0)
(1.71806 -0.0157541 0)
(1.69412 -0.0173966 0)
(1.67258 -0.0180252 0)
(1.65402 -0.0177752 0)
(1.63839 -0.0169754 0)
(1.62508 -0.0164032 0)
(1.61313 -0.0170939 0)
(1.60162 -0.0195927 0)
(1.58934 -0.0236974 0)
(1.57513 -0.0288188 0)
(1.55838 -0.0341154 0)
(1.53914 -0.0386944 0)
(1.51797 -0.0417513 0)
(1.49585 -0.0425946 0)
(1.47406 -0.0407318 0)
(1.45375 -0.0359113 0)
(1.43607 -0.0280973 0)
(1.42219 -0.0174305 0)
(1.41315 -0.004213 0)
(1.40975 0.0107594 0)
(1.41252 0.0262967 0)
(1.42156 0.0412565 0)
(1.4366 0.0545383 0)
(1.457 0.0651944 0)
(1.48184 0.0725118 0)
(1.5099 0.0760801 0)
(1.53977 0.0758523 0)
(1.56956 0.0722019 0)
(1.59747 0.0657895 0)
(1.62201 0.0573605 0)
(1.64208 0.0476393 0)
(1.65705 0.0372987 0)
(1.66682 0.0268345 0)
(1.67161 0.016589 0)
(1.67175 0.00688198 0)
(1.66777 -0.00175316 0)
(1.66044 -0.00921454 0)
(1.65058 -0.0156313 0)
(1.63884 -0.0210827 0)
(1.62567 -0.0257168 0)
(1.61132 -0.029713 0)
(1.59593 -0.0332062 0)
(1.57956 -0.0362459 0)
(1.5623 -0.0387821 0)
(1.5443 -0.0406665 0)
(1.52582 -0.041673 0)
(1.50725 -0.0415462 0)
(1.48905 -0.0400465 0)
(1.47174 -0.036989 0)
(1.45588 -0.0322542 0)
(1.44206 -0.0258134 0)
(1.43089 -0.0177477 0)
(1.42292 -0.00823589 0)
(1.41865 0.00238498 0)
(1.41845 0.0135361 0)
(1.42243 0.0244195 0)
(1.43046 0.0343917 0)
(1.44221 0.0428727 0)
(1.45715 0.0493894 0)
(1.47463 0.0536073 0)
(1.49387 0.0553607 0)
(1.51402 0.0546821 0)
(1.53402 0.0518105 0)
(1.5529 0.0471107 0)
(1.56983 0.0409864 0)
(1.58416 0.0338652 0)
(1.59543 0.0261722 0)
(1.60343 0.0182589 0)
(1.60811 0.0103749 0)
(1.60953 0.0027215 0)
(1.60772 -0.00438482 0)
(1.60299 -0.0106032 0)
(1.59573 -0.0159775 0)
(1.58644 -0.0205511 0)
(1.57554 -0.0243747 0)
(1.56341 -0.0275027 0)
(1.55037 -0.0299657 0)
(1.5367 -0.0317549 0)
(1.52267 -0.0328149 0)
(1.50857 -0.0330416 0)
(1.49468 -0.0323203 0)
(1.48131 -0.0305588 0)
(1.46881 -0.0276945 0)
(1.45753 -0.0237073 0)
(1.44783 -0.0186317 0)
(1.44007 -0.0125622 0)
(1.43456 -0.00564431 0)
(1.43161 0.00189491 0)
(1.43142 0.00967738 0)
(1.43409 0.0171794 0)
(1.43952 0.0239994 0)
(1.44747 0.0297845 0)
(1.4576 0.0342359 0)
(1.46946 0.0371388 0)
(1.48252 0.038384 0)
(1.4962 0.0379843 0)
(1.50979 0.0360831 0)
(1.52267 0.0329084 0)
(1.5343 0.0287082 0)
(1.54424 0.0237441 0)
(1.55217 0.0182859 0)
(1.5579 0.012568 0)
(1.56138 0.0067714 0)
(1.5626 0.00105241 0)
(1.56159 -0.00434864 0)
(1.55851 -0.00915606 0)
(1.55361 -0.0133372 0)
(1.54722 -0.0168833 0)
(1.53966 -0.019769 0)
(1.53123 -0.0219828 0)
(1.52219 -0.0235213 0)
(1.51279 -0.0243796 0)
(1.50327 -0.0245493 0)
(1.49385 -0.0240179 0)
(1.48474 -0.0227718 0)
(1.47614 -0.0208104 0)
(1.46829 -0.0181498 0)
(1.46137 -0.0148278 0)
(1.45561 -0.0109045 0)
(1.45119 -0.00646211 0)
(1.49892 0.0157075 0)
(1.49299 0.00732066 0)
(1.48679 0.000241923 0)
(1.48064 -0.00510757 0)
(1.47472 -0.0086152 0)
(1.46914 -0.0104777 0)
(1.46381 -0.0110611 0)
(1.45859 -0.0108638 0)
(1.45327 -0.0104992 0)
(1.4474 -0.0105272 0)
(1.44037 -0.0112795 0)
(1.43165 -0.0128133 0)
(1.42097 -0.0149933 0)
(1.40836 -0.0175073 0)
(1.39412 -0.01991 0)
(1.37877 -0.0216913 0)
(1.36296 -0.022326 0)
(1.34749 -0.0213537 0)
(1.33306 -0.0184686 0)
(1.32045 -0.0135797 0)
(1.31047 -0.00678954 0)
(1.30387 0.00153882 0)
(1.30135 0.0109838 0)
(1.30337 0.0207579 0)
(1.3099 0.0301263 0)
(1.32058 0.0384313 0)
(1.33474 0.0450953 0)
(1.35146 0.049707 0)
(1.36966 0.0520644 0)
(1.38809 0.0521936 0)
(1.40573 0.0502907 0)
(1.42172 0.0466125 0)
(1.43545 0.0414943 0)
(1.44651 0.0353445 0)
(1.45472 0.0285854 0)
(1.46007 0.0216141 0)
(1.46264 0.0147319 0)
(1.46251 0.00817171 0)
(1.45992 0.0022413 0)
(1.45523 -0.00291109 0)
(1.4488 -0.00730042 0)
(1.44097 -0.0110084 0)
(1.432 -0.0141562 0)
(1.42211 -0.0168651 0)
(1.41146 -0.0192318 0)
(1.40014 -0.0212989 0)
(1.38826 -0.0230397 0)
(1.37593 -0.0243607 0)
(1.36331 -0.0251176 0)
(1.35064 -0.0251288 0)
(1.33821 -0.0242094 0)
(1.32635 -0.0222112 0)
(1.31548 -0.0190514 0)
(1.30605 -0.0147248 0)
(1.29848 -0.00930427 0)
(1.2932 -0.00296019 0)
(1.29063 0.00406152 0)
(1.29109 0.0113334 0)
(1.29465 0.0183498 0)
(1.30114 0.0247267 0)
(1.31023 0.0300981 0)
(1.3214 0.0341683 0)
(1.33404 0.0367471 0)
(1.34741 0.0377711 0)
(1.36075 0.0373134 0)
(1.37341 0.0355367 0)
(1.38483 0.0326295 0)
(1.39459 0.0288191 0)
(1.40241 0.0243562 0)
(1.40812 0.0194808 0)
(1.4117 0.0143881 0)
(1.41316 0.00924746 0)
(1.41258 0.00427606 0)
(1.41012 -0.000303267 0)
(1.40602 -0.00446409 0)
(1.40058 -0.00817621 0)
(1.39405 -0.0114252 0)
(1.38664 -0.0142187 0)
(1.37854 -0.0165627 0)
(1.36988 -0.0184502 0)
(1.36082 -0.019856 0)
(1.35148 -0.0207339 0)
(1.34204 -0.0210101 0)
(1.33269 -0.0206011 0)
(1.32365 -0.0194422 0)
(1.31518 -0.0174995 0)
(1.30755 -0.0147687 0)
(1.30104 -0.0112824 0)
(1.29591 -0.007119 0)
(1.29242 -0.00240239 0)
(1.29079 0.00269263 0)
(1.29121 0.00787868 0)
(1.29368 0.0128229 0)
(1.29807 0.0172874 0)
(1.30416 0.0210482 0)
(1.31159 0.0239213 0)
(1.31998 0.0257858 0)
(1.32886 0.026595 0)
(1.33773 0.0263846 0)
(1.34621 0.0252438 0)
(1.35394 0.023275 0)
(1.36064 0.0206088 0)
(1.36611 0.0173974 0)
(1.37023 0.013793 0)
(1.37295 0.00993963 0)
(1.37427 0.00597851 0)
(1.37419 0.00206128 0)
(1.37279 -0.00164132 0)
(1.37021 -0.00504967 0)
(1.36662 -0.00809493 0)
(1.36219 -0.0107167 0)
(1.35707 -0.0128792 0)
(1.35141 -0.0145614 0)
(1.34536 -0.0157489 0)
(1.33906 -0.0164328 0)
(1.33267 -0.0166046 0)
(1.32632 -0.0162538 0)
(1.32017 -0.0153751 0)
(1.31438 -0.0139729 0)
(1.3091 -0.0120641 0)
(1.3045 -0.00968007 0)
(1.30073 -0.0068711 0)
(1.29793 -0.00370495 0)
(1.18207 0.0139719 0)
(1.18168 0.00717426 0)
(1.18032 0.00164925 0)
(1.17804 -0.00251485 0)
(1.1751 -0.00525117 0)
(1.17176 -0.00661944 0)
(1.16819 -0.00674068 0)
(1.16446 -0.00596007 0)
(1.16053 -0.00483041 0)
(1.15636 -0.0039336 0)
(1.1519 -0.00368426 0)
(1.14699 -0.00415744 0)
(1.1415 -0.00530318 0)
(1.13544 -0.00689456 0)
(1.12884 -0.00860395 0)
(1.12178 -0.0100259 0)
(1.11447 -0.0107069 0)
(1.10723 -0.0102365 0)
(1.10045 -0.008367 0)
(1.09461 -0.0050936 0)
(1.09018 -0.000577901 0)
(1.08767 0.00495295 0)
(1.08742 0.01111 0)
(1.08954 0.0174852 0)
(1.09397 0.0236655 0)
(1.1005 0.0292258 0)
(1.10873 0.0337898 0)
(1.11818 0.0370797 0)
(1.12828 0.0389352 0)
(1.13846 0.0393066 0)
(1.14825 0.0382498 0)
(1.15722 0.0359204 0)
(1.16502 0.0325605 0)
(1.17142 0.0284513 0)
(1.17629 0.0238784 0)
(1.17958 0.0191102 0)
(1.18133 0.0143757 0)
(1.18159 0.00984517 0)
(1.18051 0.00566273 0)
(1.1783 0.00193502 0)
(1.17515 -0.00133221 0)
(1.17122 -0.00419726 0)
(1.16666 -0.00671586 0)
(1.16157 -0.00893909 0)
(1.15601 -0.0109075 0)
(1.15003 -0.0126294 0)
(1.14368 -0.01407 0)
(1.137 -0.0151557 0)
(1.13007 -0.0157838 0)
(1.12302 -0.0158324 0)
(1.11604 -0.0151843 0)
(1.10936 -0.0137596 0)
(1.10325 -0.0115197 0)
(1.09798 -0.00846101 0)
(1.09384 -0.00467106 0)
(1.09112 -0.000295627 0)
(1.09006 0.00449126 0)
(1.0908 0.00939655 0)
(1.09329 0.0141571 0)
(1.09743 0.018527 0)
(1.10297 0.0222716 0)
(1.1096 0.0252028 0)
(1.11694 0.027196 0)
(1.1246 0.0281946 0)
(1.13219 0.0282011 0)
(1.13939 0.027269 0)
(1.14593 0.0254989 0)
(1.15159 0.0230275 0)
(1.15622 0.0200144 0)
(1.15973 0.0166285 0)
(1.16209 0.0130325 0)
(1.1633 0.00936283 0)
(1.16337 0.00573586 0)
(1.16239 0.00228526 0)
(1.16048 -0.000890121 0)
(1.15776 -0.0037565 0)
(1.15432 -0.00629344 0)
(1.15027 -0.00848753 0)
(1.14571 -0.0103302 0)
(1.14071 -0.0118092 0)
(1.13536 -0.0129032 0)
(1.12977 -0.0135795 0)
(1.12403 -0.013794 0)
(1.1183 -0.0134968 0)
(1.11273 -0.012651 0)
(1.10749 -0.0112373 0)
(1.10277 -0.00925862 0)
(1.09876 -0.00674653 0)
(1.09564 -0.00377644 0)
(1.09358 -0.00044651 0)
(1.0927 0.00311728 0)
(1.09309 0.00672148 0)
(1.09472 0.0101748 0)
(1.09749 0.0133195 0)
(1.10125 0.0160042 0)
(1.10579 0.0181028 0)
(1.11087 0.0195268 0)
(1.11623 0.0202313 0)
(1.12163 0.0202081 0)
(1.12684 0.0194867 0)
(1.13166 0.0181317 0)
(1.13592 0.0162348 0)
(1.1395 0.0139051 0)
(1.1423 0.0112614 0)
(1.14426 0.00842135 0)
(1.14535 0.00549496 0)
(1.14558 0.00258188 0)
(1.14495 -0.000213992 0)
(1.14356 -0.00278877 0)
(1.14148 -0.00508662 0)
(1.13879 -0.00706825 0)
(1.1356 -0.00870567 0)
(1.13201 -0.00997884 0)
(1.12811 -0.0108748 0)
(1.12402 -0.0113861 0)
(1.11983 -0.0115074 0)
(1.11566 -0.0112328 0)
(1.11161 -0.0105608 0)
(1.1078 -0.00949855 0)
(1.10435 -0.00806318 0)
(1.10136 -0.00628235 0)
(1.09893 -0.00419292 0)
(1.09716 -0.00185378 0)
(0.794781 0.0135294 0)
(0.796801 0.00758468 0)
(0.797595 0.00276276 0)
(0.797404 -0.00073578 0)
(0.796515 -0.00293104 0)
(0.795142 -0.00395198 0)
(0.793546 -0.00395207 0)
(0.79202 -0.0032529 0)
(0.79074 -0.00236933 0)
(0.789667 -0.00184827 0)
(0.788729 -0.00175307 0)
(0.787745 -0.0020764 0)
(0.78654 -0.00307545 0)
(0.784997 -0.00442973 0)
(0.783018 -0.00577226 0)
(0.780599 -0.0067779 0)
(0.777827 -0.00714717 0)
(0.774913 -0.00663679 0)
(0.772158 -0.00510522 0)
(0.76985 -0.00253937 0)
(0.768392 0.0009637 0)
(0.768088 0.00522739 0)
(0.769103 0.00997086 0)
(0.771543 0.0148794 0)
(0.775424 0.0196242 0)
(0.780659 0.0238898 0)
(0.787066 0.0273938 0)
(0.794386 0.0299222 0)
(0.802312 0.0313483 0)
(0.810511 0.0316305 0)
(0.818633 0.0308128 0)
(0.826363 0.0290224 0)
(0.833431 0.0264368 0)
(0.839624 0.0232653 0)
(0.844795 0.0197265 0)
(0.848868 0.0160332 0)
(0.851839 0.0123574 0)
(0.853736 0.00885062 0)
(0.854634 0.00561851 0)
(0.854674 0.00270805 0)
(0.853961 0.00012746 0)
(0.852589 -0.00212921 0)
(0.850694 -0.00409585 0)
(0.848353 -0.00582253 0)
(0.845613 -0.00733604 0)
(0.842509 -0.00863526 0)
(0.839079 -0.00969141 0)
(0.835364 -0.0104494 0)
(0.831433 -0.0108368 0)
(0.827396 -0.0107777 0)
(0.823375 -0.010197 0)
(0.819545 -0.00904197 0)
(0.816109 -0.00729321 0)
(0.813249 -0.00496656 0)
(0.811119 -0.00211613 0)
(0.809971 0.00116851 0)
(0.809957 0.00469632 0)
(0.811094 0.00830366 0)
(0.81338 0.011806 0)
(0.816752 0.0150184 0)
(0.821087 0.0177738 0)
(0.826209 0.0199366 0)
(0.831902 0.0214127 0)
(0.837932 0.0221526 0)
(0.844058 0.0221488 0)
(0.850042 0.0214413 0)
(0.85568 0.0201069 0)
(0.860795 0.0182485 0)
(0.865248 0.0159852 0)
(0.868944 0.0134411 0)
(0.871816 0.0107411 0)
(0.873839 0.00798754 0)
(0.875019 0.00527794 0)
(0.875404 0.00269034 0)
(0.875035 0.000285222 0)
(0.873985 -0.00188725 0)
(0.872349 -0.00380414 0)
(0.870201 -0.00545906 0)
(0.867612 -0.00684272 0)
(0.864653 -0.00794244 0)
(0.861398 -0.00873987 0)
(0.857932 -0.00921076 0)
(0.854344 -0.00932697 0)
(0.850733 -0.00905768 0)
(0.847237 -0.00838327 0)
(0.843983 -0.00729371 0)
(0.841111 -0.00579789 0)
(0.838741 -0.00392197 0)
(0.836993 -0.00171463 0)
(0.836017 0.000748222 0)
(0.835896 0.00334721 0)
(0.836648 0.00595661 0)
(0.838262 0.00845684 0)
(0.840682 0.0107275 0)
(0.843816 0.0126587 0)
(0.847535 0.0141596 0)
(0.851685 0.0151671 0)
(0.856095 0.0156486 0)
(0.860591 0.0155979 0)
(0.864993 0.0150395 0)
(0.869148 0.0140204 0)
(0.872918 0.0126054 0)
(0.876189 0.0108723 0)
(0.878876 0.00890701 0)
(0.880922 0.0067951 0)
(0.882303 0.00461739 0)
(0.883001 0.00245318 0)
(0.883032 0.000369308 0)
(0.88244 -0.00156385 0)
(0.881295 -0.00328752 0)
(0.879664 -0.00477562 0)
(0.877622 -0.00600579 0)
(0.87525 -0.0069609 0)
(0.872633 -0.00762905 0)
(0.869853 -0.00800311 0)
(0.866995 -0.00807965 0)
(0.864149 -0.00785716 0)
(0.861404 -0.00733666 0)
(0.858851 -0.00652514 0)
(0.856581 -0.00543724 0)
(0.854682 -0.00409733 0)
(0.85323 -0.00253211 0)
(0.852287 -0.000787254 0)
(0.428495 0.00888369 0)
(0.431584 0.00484058 0)
(0.433263 0.00155172 0)
(0.433833 -0.000839532 0)
(0.433688 -0.00230188 0)
(0.433209 -0.00294374 0)
(0.432665 -0.00294287 0)
(0.432305 -0.00255312 0)
(0.432227 -0.00207811 0)
(0.432397 -0.00173685 0)
(0.432678 -0.00168923 0)
(0.43292 -0.00199712 0)
(0.432932 -0.00264363 0)
(0.432579 -0.00344027 0)
(0.431766 -0.00419322 0)
(0.430559 -0.00469554 0)
(0.429072 -0.00474917 0)
(0.427535 -0.00418621 0)
(0.426239 -0.00294553 0)
(0.425461 -0.000993994 0)
(0.425516 0.00161359 0)
(0.426656 0.00464944 0)
(0.429074 0.00796682 0)
(0.432852 0.0113538 0)
(0.437994 0.0145845 0)
(0.444408 0.0174648 0)
(0.451916 0.0198041 0)
(0.460269 0.0214664 0)
(0.469171 0.0223737 0)
(0.478303 0.0225068 0)
(0.487346 0.0219036 0)
(0.496 0.0206555 0)
(0.504009 0.0188826 0)
(0.511189 0.0167132 0)
(0.517406 0.0142888 0)
(0.522574 0.0117545 0)
(0.526704 0.00921394 0)
(0.529834 0.00676362 0)
(0.532009 0.00448917 0)
(0.533335 0.00241643 0)
(0.533913 0.000532661 0)
(0.533828 -0.00115194 0)
(0.533177 -0.00263589 0)
(0.532028 -0.00393029 0)
(0.530435 -0.00504816 0)
(0.528457 -0.00598718 0)
(0.526143 -0.00672846 0)
(0.523561 -0.00723205 0)
(0.520799 -0.00745191 0)
(0.517981 -0.00735011 0)
(0.515226 -0.00687721 0)
(0.512698 -0.00599816 0)
(0.510565 -0.00471611 0)
(0.508993 -0.00305526 0)
(0.50815 -0.00102518 0)
(0.508183 0.00130296 0)
(0.509175 0.00375513 0)
(0.511207 0.00625383 0)
(0.514263 0.00867078 0)
(0.518284 0.0108783 0)
(0.523165 0.0127635 0)
(0.528754 0.0142364 0)
(0.53487 0.0152356 0)
(0.541298 0.0157325 0)
(0.547825 0.0157239 0)
(0.554236 0.0152323 0)
(0.560343 0.0143064 0)
(0.565974 0.0130185 0)
(0.570994 0.0114511 0)
(0.575319 0.00967881 0)
(0.578877 0.0077868 0)
(0.581641 0.00585739 0)
(0.583608 0.00396557 0)
(0.584826 0.00214319 0)
(0.585326 0.000436727 0)
(0.585166 -0.00112088 0)
(0.584429 -0.00249207 0)
(0.583192 -0.0036678 0)
(0.581527 -0.00464221 0)
(0.579512 -0.00540453 0)
(0.577226 -0.00594247 0)
(0.574756 -0.00624351 0)
(0.572197 -0.00629151 0)
(0.569647 -0.00606402 0)
(0.567228 -0.00554995 0)
(0.565054 -0.00475169 0)
(0.563243 -0.00368402 0)
(0.561913 -0.00236471 0)
(0.561163 -0.000806511 0)
(0.56109 0.000911601 0)
(0.56175 0.00269385 0)
(0.563176 0.00448484 0)
(0.565349 0.00619626 0)
(0.56822 0.00774333 0)
(0.571705 0.00905258 0)
(0.575692 0.0100647 0)
(0.580046 0.0107378 0)
(0.584616 0.0110487 0)
(0.589246 0.0109939 0)
(0.593778 0.0105882 0)
(0.598074 0.00986306 0)
(0.602009 0.0088649 0)
(0.605479 0.00764848 0)
(0.608406 0.0062725 0)
(0.610732 0.00479754 0)
(0.612438 0.00327213 0)
(0.613517 0.00175079 0)
(0.613978 0.000291676 0)
(0.613856 -0.00106697 0)
(0.613211 -0.00227846 0)
(0.612113 -0.00332089 0)
(0.610632 -0.00418089 0)
(0.608845 -0.00484667 0)
(0.606834 -0.00530942 0)
(0.604682 -0.00556191 0)
(0.602472 -0.00560029 0)
(0.600291 -0.00542531 0)
(0.598218 -0.00504101 0)
(0.596339 -0.00445556 0)
(0.594733 -0.0036816 0)
(0.593478 -0.00273564 0)
(0.59264 -0.00164031 0)
(0.592275 -0.000420653 0)
(0.15988 0.0048136 0)
(0.163051 0.00229304 0)
(0.164709 0.000195994 0)
(0.165228 -0.00139391 0)
(0.165024 -0.00240344 0)
(0.164398 -0.00288701 0)
(0.16367 -0.0029644 0)
(0.163049 -0.00277702 0)
(0.162626 -0.00250293 0)
(0.162392 -0.00232319 0)
(0.162237 -0.00228739 0)
(0.162046 -0.00244659 0)
(0.161668 -0.00279355 0)
(0.161011 -0.00324135 0)
(0.160025 -0.00366041 0)
(0.158797 -0.0039337 0)
(0.157424 -0.00394006 0)
(0.156166 -0.00360625 0)
(0.155272 -0.00284309 0)
(0.154999 -0.00163987 0)
(0.155537 -7.43518e-05 0)
(0.157169 0.00185182 0)
(0.160113 0.00386517 0)
(0.16441 0.00590988 0)
(0.170049 0.00782261 0)
(0.176918 0.00956347 0)
(0.184814 0.0109796 0)
(0.193504 0.0119958 0)
(0.2027 0.0125652 0)
(0.212091 0.0126727 0)
(0.22137 0.01234 0)
(0.230257 0.0116215 0)
(0.238508 0.0105911 0)
(0.245945 0.00932615 0)
(0.252437 0.00790935 0)
(0.25791 0.00641732 0)
(0.26234 0.00492065 0)
(0.265765 0.003467 0)
(0.268234 0.00210655 0)
(0.26983 0.000865856 0)
(0.270632 -0.000278999 0)
(0.270733 -0.00130379 0)
(0.270221 -0.00219905 0)
(0.26917 -0.00297764 0)
(0.267648 -0.00365486 0)
(0.265734 -0.00422864 0)
(0.263496 -0.00467635 0)
(0.261022 -0.00498008 0)
(0.258413 -0.00512225 0)
(0.255806 -0.00506942 0)
(0.253322 -0.00478507 0)
(0.251118 -0.00426471 0)
(0.24935 -0.00350623 0)
(0.248187 -0.00250745 0)
(0.247758 -0.00128787 0)
(0.248146 8.74176e-05 0)
(0.249481 0.00159698 0)
(0.251839 0.00310764 0)
(0.255167 0.00455089 0)
(0.259408 0.00586138 0)
(0.264458 0.00697758 0)
(0.270169 0.00785184 0)
(0.276364 0.00845332 0)
(0.282844 0.00876612 0)
(0.2894 0.0087859 0)
(0.295834 0.00852351 0)
(0.301966 0.00800799 0)
(0.307638 0.00727912 0)
(0.312718 0.00638057 0)
(0.317111 0.00535945 0)
(0.320763 0.00426802 0)
(0.323647 0.00315255 0)
(0.325749 0.00204538 0)
(0.327102 0.000972819 0)
(0.327754 -5.23744e-05 0)
(0.327757 -0.000992207 0)
(0.327182 -0.00181419 0)
(0.326106 -0.00251688 0)
(0.324607 -0.00310015 0)
(0.32277 -0.00356139 0)
(0.320683 -0.00389258 0)
(0.318441 -0.00408231 0)
(0.316147 -0.00411698 0)
(0.3139 -0.00398777 0)
(0.311808 -0.00369333 0)
(0.309987 -0.00323158 0)
(0.308547 -0.00260466 0)
(0.307597 -0.00182371 0)
(0.30721 -0.000905945 0)
(0.307454 0.000115517 0)
(0.308406 0.00120434 0)
(0.310089 0.00227933 0)
(0.312459 0.00329426 0)
(0.315469 0.00420777 0)
(0.319039 0.00498122 0)
(0.323061 0.00558202 0)
(0.327404 0.00598716 0)
(0.331929 0.00618442 0)
(0.336487 0.00617202 0)
(0.340934 0.0059572 0)
(0.345139 0.00555644 0)
(0.348985 0.0049946 0)
(0.352372 0.00430286 0)
(0.355225 0.00351578 0)
(0.357494 0.00266616 0)
(0.35915 0.00178578 0)
(0.360202 0.000899056 0)
(0.360663 2.48296e-05 0)
(0.360547 -0.000798326 0)
(0.359919 -0.00152534 0)
(0.358851 -0.00215316 0)
(0.357414 -0.00267271 0)
(0.355683 -0.00307661 0)
(0.353738 -0.00336147 0)
(0.351662 -0.00352592 0)
(0.349545 -0.00356819 0)
(0.347472 -0.00348529 0)
(0.345528 -0.00327678 0)
(0.343792 -0.00294747 0)
(0.34234 -0.00250603 0)
(0.341244 -0.00196391 0)
(0.340564 -0.00133176 0)
(0.340349 -0.000616129 0)
(0.0280068 0.00115665 0)
(0.030235 0.000299863 0)
(0.0309084 -0.000429007 0)
(0.0303604 -0.000971698 0)
(0.0289591 -0.00132889 0)
(0.0270146 -0.00151541 0)
(0.0248379 -0.00156795 0)
(0.0226604 -0.00153579 0)
(0.0206094 -0.00147288 0)
(0.0187055 -0.00142613 0)
(0.0168567 -0.00141871 0)
(0.0149399 -0.0014718 0)
(0.0128497 -0.00159029 0)
(0.010484 -0.00173231 0)
(0.00780244 -0.00186969 0)
(0.00484603 -0.00194972 0)
(0.00178956 -0.00196637 0)
(-0.00114001 -0.00183958 0)
(-0.00373294 -0.00157289 0)
(-0.00570255 -0.00116873 0)
(-0.00668831 -0.000669177 0)
(-0.00663283 5.47721e-05 0)
(-0.00539123 0.000721587 0)
(-0.00273577 0.00142518 0)
(0.00127 0.00205203 0)
(0.00655893 0.002644 0)
(0.0128804 0.0031196 0)
(0.0200716 0.00345852 0)
(0.0278474 0.0036537 0)
(0.0358974 0.0037049 0)
(0.0439277 0.00361769 0)
(0.0516603 0.00340766 0)
(0.0588576 0.00309102 0)
(0.0653304 0.00269475 0)
(0.0709426 0.00224693 0)
(0.0756086 0.00177045 0)
(0.0792887 0.00128627 0)
(0.0819991 0.000818632 0)
(0.0837704 0.000377734 0)
(0.0846548 -4.43277e-05 0)
(0.0847688 -0.000448862 0)
(0.0841979 -0.000794543 0)
(0.0829803 -0.00109573 0)
(0.0811847 -0.00136021 0)
(0.0788792 -0.0015898 0)
(0.0761324 -0.00178177 0)
(0.0730162 -0.00193493 0)
(0.069618 -0.00204305 0)
(0.0660398 -0.00209417 0)
(0.0624054 -0.00207793 0)
(0.058855 -0.00199183 0)
(0.0555471 -0.00182729 0)
(0.0526511 -0.00157735 0)
(0.0503424 -0.00124605 0)
(0.0487819 -0.000853309 0)
(0.0480932 -0.000394856 0)
(0.0482954 0.000147503 0)
(0.0494257 0.000656143 0)
(0.0515461 0.00113114 0)
(0.0546013 0.0015598 0)
(0.058491 0.00192697 0)
(0.0630754 0.0022167 0)
(0.0681847 0.00241765 0)
(0.0736356 0.0025244 0)
(0.0792342 0.00253941 0)
(0.0847883 0.00246794 0)
(0.0901177 0.00231432 0)
(0.0950612 0.0020887 0)
(0.0994903 0.00180514 0)
(0.103301 0.001488 0)
(0.106426 0.00114603 0)
(0.108822 0.000788987 0)
(0.110483 0.000426289 0)
(0.111413 7.86826e-05 0)
(0.111668 -0.000261733 0)
(0.111297 -0.000569513 0)
(0.110344 -0.000836381 0)
(0.108874 -0.00106735 0)
(0.106958 -0.00126004 0)
(0.104676 -0.0014121 0)
(0.10211 -0.00152152 0)
(0.0993488 -0.0015848 0)
(0.0964909 -0.00159947 0)
(0.0936425 -0.00156373 0)
(0.0909138 -0.00146982 0)
(0.0884221 -0.00131811 0)
(0.0862842 -0.00111133 0)
(0.084616 -0.000854921 0)
(0.0835211 -0.000561865 0)
(0.0830634 -0.000219127 0)
(0.0832585 0.000165406 0)
(0.0841321 0.000523296 0)
(0.0857055 0.000857609 0)
(0.0879344 0.00115618 0)
(0.0907438 0.0014084 0)
(0.0940335 0.0016058 0)
(0.0976837 0.00174251 0)
(0.101562 0.00181507 0)
(0.105531 0.0018215 0)
(0.109451 0.00176275 0)
(0.113189 0.00164356 0)
(0.11663 0.00147181 0)
(0.119676 0.00125747 0)
(0.122244 0.00101128 0)
(0.124278 0.000742565 0)
(0.125739 0.000462863 0)
(0.126609 0.000181508 0)
(0.126912 -0.000109154 0)
(0.12668 -0.000383125 0)
(0.125944 -0.000621796 0)
(0.124751 -0.000827491 0)
(0.123163 -0.000999075 0)
(0.121252 -0.0011354 0)
(0.119092 -0.00123468 0)
(0.116763 -0.00129613 0)
(0.114344 -0.00131875 0)
(0.111916 -0.00130023 0)
(0.109566 -0.00124041 0)
(0.107377 -0.00114098 0)
(0.10543 -0.00100439 0)
(0.103801 -0.000833406 0)
(0.102562 -0.000632667 0)
(0.101777 -0.000408059 0)
(2.2797 0.151282 0)
(2.28295 0.0908973 0)
(2.28972 0.025583 0)
(2.33906 0.147255 0)
(2.34791 0.0838493 0)
(2.35887 0.0162365 0)
(2.37056 -0.0523369 0)
(2.38133 -0.117984 0)
(2.38979 -0.177864 0)
(2.39498 -0.229786 0)
(2.39662 -0.272005 0)
(2.39502 -0.303041 0)
(2.39085 -0.322772 0)
(2.38555 -0.332388 0)
(2.37712 -0.333035 0)
(2.3655 -0.323651 0)
(2.35157 -0.304372 0)
(2.3376 -0.277455 0)
(2.32582 -0.244108 0)
(2.31598 -0.20524 0)
(2.30957 -0.16167 0)
(2.30627 -0.114123 0)
(2.30581 -0.0631214 0)
(2.30789 -0.00952767 0)
(2.31188 0.0443568 0)