/*--------------------------------*- C++ -*----------------------------------*\
| =========                 |                                                 |
| \\      /  F ield         | OpenFOAM: The Open Source CFD Toolbox           |
|  \\    /   O peration     | Version:  2206                                  |
|   \\  /    A nd           | Website:  www.openfoam.com                      |
|    \\/     M anipulation  |                                                 |
\*---------------------------------------------------------------------------*/
FoamFile
{
    version     2.0;
    format      ascii;
    arch        "LSB;label=32;scalar=64";
    class       volVectorField;
    location    "18.8001";
    object      U;
}
// * * * * * * * * * * * * * * * * * * * * * * * * * * * * * * * * * * * * * //

dimensions      [0 1 -1 0 0 0 0];

internalField   nonuniform List<vector> 
3088
(
(1.49331 0.404176 0)
(1.52272 0.434593 0)
(1.55314 0.458194 0)
(1.58389 0.475201 0)
(1.61439 0.486045 0)
(1.6441 0.49132 0)
(1.67263 0.491742 0)
(1.6997 0.488074 0)
(1.72523 0.481029 0)
(1.74931 0.471194 0)
(1.77215 0.459015 0)
(1.79401 0.444745 0)
(1.81525 0.428355 0)
(1.83618 0.409604 0)
(1.85706 0.388088 0)
(1.87809 0.363311 0)
(1.89939 0.33474 0)
(1.92099 0.301872 0)
(1.94278 0.264305 0)
(1.96456 0.221773 0)
(1.98603 0.174188 0)
(2.0068 0.12165 0)
(2.02646 0.0644515 0)
(2.04459 0.00315799 0)
(2.06065 -0.061115 0)
(2.07386 -0.126242 0)
(2.08361 -0.190155 0)
(2.08955 -0.251143 0)
(2.09145 -0.307564 0)
(2.08917 -0.357902 0)
(2.08265 -0.40085 0)
(2.07202 -0.435325 0)
(2.05736 -0.460461 0)
(2.03777 -0.47543 0)
(2.01315 -0.479276 0)
(1.98387 -0.472927 0)
(1.95053 -0.458435 0)
(1.91435 -0.438487 0)
(1.87686 -0.416176 0)
(1.83982 -0.394323 0)
(1.80416 -0.374453 0)
(1.77053 -0.35718 0)
(1.73932 -0.342521 0)
(1.71068 -0.330057 0)
(1.6846 -0.319063 0)
(1.66095 -0.308625 0)
(1.6396 -0.297723 0)
(1.62042 -0.285295 0)
(1.60338 -0.270373 0)
(1.58852 -0.252108 0)
(1.57583 -0.229699 0)
(1.56543 -0.202533 0)
(1.55742 -0.170231 0)
(1.55196 -0.132685 0)
(1.54914 -0.090085 0)
(1.54909 -0.042931 0)
(1.55189 0.00796777 0)
(1.55758 0.061479 0)
(1.56613 0.116081 0)
(1.57729 0.169855 0)
(1.59082 0.221334 0)
(1.60643 0.269242 0)
(1.62374 0.312447 0)
(1.64232 0.35005 0)
(1.66172 0.381455 0)
(1.6815 0.406399 0)
(1.7013 0.424894 0)
(1.72087 0.437111 0)
(1.74021 0.443162 0)
(1.75931 0.442943 0)
(1.77775 0.436582 0)
(1.79536 0.424688 0)
(1.81207 0.408102 0)
(1.82796 0.387702 0)
(1.84323 0.364264 0)
(1.85815 0.338375 0)
(1.87296 0.310419 0)
(1.88784 0.280609 0)
(1.90292 0.249028 0)
(1.91821 0.215696 0)
(1.93365 0.180603 0)
(1.94909 0.143754 0)
(1.96435 0.105192 0)
(1.97922 0.0649723 0)
(1.99351 0.0231598 0)
(2.007 -0.0200741 0)
(2.01933 -0.0642087 0)
(2.02997 -0.108228 0)
(2.03857 -0.151171 0)
(2.04476 -0.191922 0)
(2.04808 -0.229462 0)
(2.04816 -0.263225 0)
(2.04498 -0.292525 0)
(2.03848 -0.316493 0)
(2.02834 -0.334475 0)
(2.01357 -0.345734 0)
(1.99406 -0.349556 0)
(1.97002 -0.346678 0)
(1.94229 -0.338401 0)
(1.91218 -0.326483 0)
(1.88128 -0.312994 0)
(1.85125 -0.299772 0)
(1.82296 -0.28774 0)
(1.79707 -0.277246 0)
(1.77398 -0.268215 0)
(1.75384 -0.260256 0)
(1.73662 -0.252732 0)
(1.7222 -0.244791 0)
(1.71042 -0.235402 0)
(1.70119 -0.223708 0)
(1.6943 -0.209096 0)
(1.68949 -0.191039 0)
(1.68658 -0.169232 0)
(1.68542 -0.143583 0)
(1.68585 -0.11421 0)
(1.68773 -0.0814168 0)
(1.69096 -0.0456502 0)
(1.69543 -0.00747478 0)
(1.70108 0.0324264 0)
(1.70784 0.0731763 0)
(1.71563 0.113603 0)
(1.72438 0.152816 0)
(1.73407 0.190053 0)
(1.46734 0.375235 0)
(1.49739 0.404095 0)
(1.5288 0.426843 0)
(1.5609 0.443638 0)
(1.59308 0.454832 0)
(1.62484 0.460916 0)
(1.65578 0.462479 0)
(1.68565 0.460126 0)
(1.71435 0.454411 0)
(1.74193 0.445793 0)
(1.76849 0.434628 0)
(1.79423 0.421105 0)
(1.81942 0.405174 0)
(1.84431 0.386618 0)
(1.8691 0.36509 0)
(1.89393 0.340171 0)
(1.91887 0.311422 0)
(1.94385 0.278441 0)
(1.96874 0.240937 0)
(1.99327 0.198753 0)
(2.01709 0.151885 0)
(2.03979 0.100475 0)
(2.06097 0.0448286 0)
(2.0802 -0.0144261 0)
(2.09683 -0.0759547 0)
(2.11003 -0.137598 0)
(2.11926 -0.197614 0)
(2.12414 -0.254399 0)
(2.12441 -0.306434 0)
(2.11994 -0.35231 0)
(2.11074 -0.390774 0)
(2.0969 -0.420705 0)
(2.07788 -0.441101 0)
(2.05301 -0.450683 0)
(2.02263 -0.449305 0)
(1.98715 -0.438509 0)
(1.94773 -0.420685 0)
(1.90599 -0.398948 0)
(1.86399 -0.376625 0)
(1.82321 -0.356008 0)
(1.78448 -0.33815 0)
(1.74833 -0.323349 0)
(1.71501 -0.311363 0)
(1.6845 -0.301572 0)
(1.65664 -0.293119 0)
(1.63121 -0.285038 0)
(1.60798 -0.276331 0)
(1.58677 -0.266017 0)
(1.56752 -0.253171 0)
(1.55031 -0.237019 0)
(1.53517 -0.216819 0)
(1.52227 -0.192005 0)
(1.51183 -0.162217 0)
(1.50404 -0.127353 0)
(1.49913 -0.0875933 0)
(1.49727 -0.0434163 0)
(1.49861 0.00440229 0)
(1.50326 0.0547955 0)
(1.51123 0.106392 0)
(1.52232 0.157405 0)
(1.53625 0.206388 0)
(1.55273 0.252147 0)
(1.57136 0.293627 0)
(1.5917 0.32998 0)
(1.61325 0.360606 0)
(1.63555 0.385171 0)
(1.65822 0.403581 0)
(1.681 0.41588 0)
(1.70379 0.422105 0)
(1.72648 0.422251 0)
(1.74866 0.416528 0)
(1.77015 0.405456 0)
(1.79082 0.389729 0)
(1.81065 0.370094 0)
(1.82974 0.347237 0)
(1.84827 0.321717 0)
(1.86639 0.293942 0)
(1.88427 0.264178 0)
(1.90198 0.232585 0)
(1.91953 0.199257 0)
(1.93687 0.164266 0)
(1.95387 0.127682 0)
(1.97037 0.0895591 0)
(1.98625 0.0499455 0)
(2.00134 0.00892615 0)
(2.01535 -0.033201 0)
(2.02775 -0.0756536 0)
(2.03805 -0.117584 0)
(2.04588 -0.158029 0)
(2.05078 -0.195918 0)
(2.0523 -0.230469 0)
(2.05147 -0.261025 0)
(2.0462 -0.286747 0)
(2.03693 -0.306702 0)
(2.02255 -0.320143 0)
(2.00273 -0.326096 0)
(1.9777 -0.325027 0)
(1.9483 -0.318131 0)
(1.91585 -0.30711 0)
(1.88205 -0.294092 0)
(1.84875 -0.281176 0)
(1.81703 -0.269604 0)
(1.7876 -0.259926 0)
(1.76092 -0.25221 0)
(1.73721 -0.24615 0)
(1.71647 -0.241157 0)
(1.69857 -0.236461 0)
(1.6833 -0.231175 0)
(1.67043 -0.224309 0)
(1.65984 -0.21494 0)
(1.65145 -0.202468 0)
(1.64501 -0.18638 0)
(1.64044 -0.166396 0)
(1.63764 -0.142448 0)
(1.63655 -0.114667 0)
(1.6371 -0.0833678 0)
(1.63923 -0.0490152 0)
(1.64289 -0.0121946 0)
(1.64804 0.0263958 0)
(1.65465 0.0658997 0)
(1.66262 0.105165 0)
(1.67189 0.143263 0)
(1.6824 0.179446 0)
(1.44627 0.346097 0)
(1.47644 0.373087 0)
(1.50826 0.394648 0)
(1.54109 0.410883 0)
(1.57436 0.42207 0)
(1.60756 0.428593 0)
(1.64032 0.43091 0)
(1.67241 0.429487 0)
(1.7037 0.424751 0)
(1.73418 0.417065 0)
(1.76389 0.40671 0)
(1.79298 0.393799 0)
(1.82162 0.378267 0)
(1.84999 0.359916 0)
(1.87822 0.338452 0)
(1.9064 0.313531 0)
(1.93449 0.284807 0)
(1.9624 0.251987 0)
(1.9899 0.214878 0)
(2.01669 0.173418 0)
(2.04239 0.127665 0)
(2.0666 0.0777822 0)
(2.08892 0.0240846 0)
(2.10891 -0.0326985 0)
(2.1258 -0.090927 0)
(2.13883 -0.148645 0)
(2.14743 -0.204247 0)
(2.15111 -0.256282 0)
(2.14964 -0.303414 0)
(2.14296 -0.344284 0)
(2.13113 -0.377599 0)
(2.11376 -0.402282 0)
(2.08988 -0.416911 0)
(2.05964 -0.4203 0)
(2.02316 -0.413368 0)
(1.98149 -0.398071 0)
(1.93634 -0.377362 0)
(1.88989 -0.354779 0)
(1.8444 -0.333404 0)
(1.80092 -0.314796 0)
(1.7602 -0.299579 0)
(1.72259 -0.287715 0)
(1.68814 -0.278692 0)
(1.65665 -0.271697 0)
(1.62782 -0.265778 0)
(1.60131 -0.259957 0)
(1.57682 -0.253289 0)
(1.55415 -0.244886 0)
(1.53321 -0.233935 0)
(1.5141 -0.219743 0)
(1.49694 -0.201666 0)
(1.48195 -0.179187 0)
(1.46942 -0.151979 0)
(1.45962 -0.119942 0)
(1.45284 -0.0832455 0)
(1.44934 -0.0423359 0)
(1.44933 0.00205794 0)
(1.45295 0.0489432 0)
(1.46026 0.0970735 0)
(1.4711 0.144891 0)
(1.48518 0.190953 0)
(1.50219 0.23415 0)
(1.52174 0.273491 0)
(1.54338 0.308171 0)
(1.56663 0.337602 0)
(1.59104 0.361413 0)
(1.61619 0.379408 0)
(1.64178 0.39151 0)
(1.66762 0.397715 0)
(1.69348 0.398081 0)
(1.719 0.392861 0)
(1.74394 0.382509 0)
(1.76812 0.367604 0)
(1.79148 0.348782 0)
(1.81401 0.326648 0)
(1.83582 0.301723 0)
(1.85699 0.274414 0)
(1.87763 0.245023 0)
(1.89777 0.213765 0)
(1.91742 0.180803 0)
(1.93651 0.146264 0)
(1.95495 0.110244 0)
(1.97263 0.0728107 0)
(1.98946 0.034023 0)
(2.00527 -0.00594581 0)
(2.01965 -0.0465046 0)
(2.03205 -0.0869 0)
(2.04198 -0.126336 0)
(2.0491 -0.163914 0)
(2.05258 -0.198825 0)
(2.05293 -0.23014 0)
(2.04974 -0.256816 0)
(2.04114 -0.277959 0)
(2.02729 -0.292876 0)
(2.00749 -0.300435 0)
(1.98188 -0.300824 0)
(1.95129 -0.295099 0)
(1.91712 -0.284861 0)
(1.88107 -0.272211 0)
(1.84521 -0.259405 0)
(1.81077 -0.247946 0)
(1.77853 -0.2386 0)
(1.74898 -0.231623 0)
(1.72234 -0.226845 0)
(1.69864 -0.223754 0)
(1.67773 -0.221605 0)
(1.65941 -0.219533 0)
(1.64342 -0.216636 0)
(1.62952 -0.211998 0)
(1.61757 -0.204729 0)
(1.60759 -0.194222 0)
(1.59945 -0.180011 0)
(1.59311 -0.161842 0)
(1.58858 -0.13967 0)
(1.58586 -0.113637 0)
(1.58497 -0.084055 0)
(1.58591 -0.0513894 0)
(1.58867 -0.0162277 0)
(1.59325 0.0207295 0)
(1.59962 0.0586382 0)
(1.60771 0.0964099 0)
(1.61741 0.133081 0)
(1.62863 0.167926 0)
(1.42945 0.317163 0)
(1.45933 0.342047 0)
(1.49109 0.362142 0)
(1.52415 0.377504 0)
(1.55796 0.388335 0)
(1.59208 0.394922 0)
(1.62614 0.397601 0)
(1.65991 0.396725 0)
(1.69324 0.392626 0)
(1.72605 0.385595 0)
(1.75834 0.375825 0)
(1.79021 0.36337 0)
(1.82177 0.348153 0)
(1.8531 0.33 0)
(1.88426 0.308668 0)
(1.91527 0.283886 0)
(1.94602 0.255399 0)
(1.97634 0.223014 0)
(2.00595 0.186628 0)
(2.03452 0.146249 0)
(2.06165 0.101967 0)
(2.08697 0.0539468 0)
(2.11011 0.0025439 0)
(2.1305 -0.0513235 0)
(2.14733 -0.10584 0)
(2.15997 -0.159253 0)
(2.16775 -0.209925 0)
(2.17005 -0.256638 0)
(2.16666 -0.298344 0)
(2.15776 -0.333648 0)
(2.14308 -0.361279 0)
(2.12147 -0.379732 0)
(2.0925 -0.387211 0)
(2.05612 -0.38387 0)
(2.0132 -0.37117 0)
(1.96549 -0.351752 0)
(1.91536 -0.329171 0)
(1.86559 -0.307061 0)
(1.81778 -0.287617 0)
(1.77289 -0.271815 0)
(1.73146 -0.25984 0)
(1.69358 -0.251304 0)
(1.65907 -0.245437 0)
(1.62757 -0.241276 0)
(1.59861 -0.237805 0)
(1.57174 -0.23406 0)
(1.54662 -0.229187 0)
(1.52304 -0.222444 0)
(1.50094 -0.21316 0)
(1.48046 -0.200756 0)
(1.46177 -0.184684 0)
(1.44515 -0.164488 0)
(1.43093 -0.139875 0)
(1.41948 -0.110753 0)
(1.41113 -0.0772736 0)
(1.40621 -0.0398459 0)
(1.40497 0.000861676 0)
(1.4076 0.0439416 0)
(1.41418 0.0882781 0)
(1.42461 0.132538 0)
(1.4386 0.175325 0)
(1.45584 0.215602 0)
(1.47595 0.252443 0)
(1.4985 0.285083 0)
(1.52301 0.312934 0)
(1.54905 0.335591 0)
(1.57621 0.352803 0)
(1.60415 0.364431 0)
(1.63257 0.370423 0)
(1.66116 0.370866 0)
(1.68953 0.36603 0)
(1.71744 0.356306 0)
(1.74467 0.34218 0)
(1.77109 0.324196 0)
(1.79664 0.302888 0)
(1.82134 0.278731 0)
(1.84522 0.252124 0)
(1.86832 0.223389 0)
(1.89065 0.192783 0)
(1.91217 0.160513 0)
(1.93283 0.126739 0)
(1.95256 0.0915653 0)
(1.97132 0.0550504 0)
(1.98902 0.0172926 0)
(2.00537 -0.0212901 0)
(2.01989 -0.0599781 0)
(2.03209 -0.0980123 0)
(2.04151 -0.134548 0)
(2.04749 -0.16881 0)
(2.04947 -0.200004 0)
(2.04715 -0.22707 0)
(2.03971 -0.248905 0)
(2.02644 -0.264656 0)
(2.00687 -0.273234 0)
(1.98104 -0.27468 0)
(1.94971 -0.269872 0)
(1.91437 -0.260295 0)
(1.8768 -0.24799 0)
(1.83915 -0.235256 0)
(1.80285 -0.223782 0)
(1.76873 -0.214508 0)
(1.73727 -0.207844 0)
(1.70863 -0.203765 0)
(1.68281 -0.201889 0)
(1.65964 -0.201557 0)
(1.6389 -0.201939 0)
(1.62032 -0.202138 0)
(1.60368 -0.20127 0)
(1.58876 -0.198502 0)
(1.57545 -0.193048 0)
(1.56386 -0.184313 0)
(1.55398 -0.171875 0)
(1.54583 -0.155504 0)
(1.53952 -0.135169 0)
(1.53512 -0.111017 0)
(1.53271 -0.0833581 0)
(1.53234 -0.0526471 0)
(1.53407 -0.019462 0)
(1.53794 0.0155127 0)
(1.54396 0.0514738 0)
(1.55205 0.0874274 0)
(1.56207 0.122379 0)
(1.57388 0.155628 0)
(1.41617 0.288827 0)
(1.44543 0.31141 0)
(1.47676 0.329785 0)
(1.50965 0.343971 0)
(1.5436 0.354103 0)
(1.5782 0.360383 0)
(1.6131 0.363049 0)
(1.64805 0.362369 0)
(1.68287 0.358599 0)
(1.71745 0.351946 0)
(1.75179 0.342527 0)
(1.7859 0.330359 0)
(1.81982 0.315366 0)
(1.85357 0.297397 0)
(1.88713 0.276261 0)
(1.92043 0.251756 0)
(1.9533 0.223713 0)
(1.9855 0.192029 0)
(2.01671 0.156678 0)
(2.04656 0.117707 0)
(2.07473 0.0752024 0)
(2.1009 0.0293264 0)
(2.12464 -0.0194729 0)
(2.14507 -0.0699389 0)
(2.1614 -0.120393 0)
(2.17308 -0.16905 0)
(2.17938 -0.214222 0)
(2.18002 -0.25511 0)
(2.17529 -0.291057 0)
(2.164 -0.320422 0)
(2.14561 -0.341455 0)
(2.11886 -0.351967 0)
(2.0835 -0.351476 0)
(2.0402 -0.340998 0)
(1.99075 -0.322806 0)
(1.93766 -0.300331 0)
(1.88419 -0.277529 0)
(1.8326 -0.257206 0)
(1.78409 -0.240721 0)
(1.73938 -0.228495 0)
(1.6987 -0.220279 0)
(1.66187 -0.215352 0)
(1.62845 -0.212707 0)
(1.59786 -0.211252 0)
(1.56952 -0.209968 0)
(1.54294 -0.20799 0)
(1.51778 -0.204611 0)
(1.49386 -0.199249 0)
(1.47116 -0.191397 0)
(1.44983 -0.180585 0)
(1.43013 -0.166371 0)
(1.41236 -0.148366 0)
(1.39692 -0.126313 0)
(1.3842 -0.100131 0)
(1.37461 -0.0699504 0)
(1.36851 -0.036136 0)
(1.3662 0.000713375 0)
(1.36789 0.0397855 0)
(1.3737 0.0800918 0)
(1.38359 0.120496 0)
(1.3973 0.159736 0)
(1.4145 0.196799 0)
(1.43486 0.230832 0)
(1.45794 0.261103 0)
(1.48332 0.287032 0)
(1.51055 0.308189 0)
(1.53924 0.32428 0)
(1.569 0.335136 0)
(1.59948 0.340714 0)
(1.63029 0.341102 0)
(1.66101 0.336535 0)
(1.69138 0.327345 0)
(1.72115 0.313945 0)
(1.75013 0.296803 0)
(1.77823 0.276386 0)
(1.80539 0.25313 0)
(1.8316 0.227419 0)
(1.85681 0.199585 0)
(1.881 0.169909 0)
(1.90413 0.138617 0)
(1.92614 0.105868 0)
(1.94705 0.0717553 0)
(1.96681 0.0363534 0)
(1.98522 -4.69016e-05 0)
(2.00182 -0.036808 0)
(2.0161 -0.0732297 0)
(2.02748 -0.108476 0)
(2.03535 -0.141653 0)
(2.03909 -0.171899 0)
(2.03812 -0.198362 0)
(2.03188 -0.220151 0)
(2.01935 -0.236266 0)
(2.00007 -0.24534 0)
(1.97419 -0.247383 0)
(1.94248 -0.243209 0)
(1.90646 -0.234178 0)
(1.86802 -0.222244 0)
(1.8294 -0.209681 0)
(1.79217 -0.198257 0)
(1.75714 -0.188985 0)
(1.72473 -0.182363 0)
(1.69506 -0.1785 0)
(1.66807 -0.177171 0)
(1.64355 -0.177867 0)
(1.62123 -0.179864 0)
(1.60083 -0.182308 0)
(1.5821 -0.184318 0)
(1.56483 -0.185065 0)
(1.54891 -0.183807 0)
(1.53429 -0.179879 0)
(1.5211 -0.172725 0)
(1.5095 -0.161964 0)
(1.49959 -0.147375 0)
(1.49153 -0.128935 0)
(1.48547 -0.106786 0)
(1.48155 -0.081228 0)
(1.47987 -0.0527007 0)
(1.48052 -0.0217657 0)
(1.48357 0.0109141 0)
(1.48905 0.0445824 0)
(1.49693 0.0783595 0)
(1.50704 0.111291 0)
(1.51924 0.142679 0)
(1.40564 0.261245 0)
(1.43409 0.281411 0)
(1.46479 0.29788 0)
(1.49724 0.310634 0)
(1.531 0.319759 0)
(1.5657 0.325401 0)
(1.60099 0.327733 0)
(1.63664 0.326942 0)
(1.67246 0.323205 0)
(1.70834 0.316654 0)
(1.74421 0.307359 0)
(1.78004 0.295319 0)
(1.8158 0.280462 0)
(1.85143 0.262667 0)
(1.88685 0.24179 0)
(1.92189 0.217698 0)
(1.95633 0.190304 0)
(1.98986 0.15958 0)
(2.02215 0.125543 0)
(2.05289 0.0882099 0)
(2.08183 0.0476201 0)
(2.10869 0.00402627 0)
(2.13276 -0.0416456 0)
(2.15298 -0.0880216 0)
(2.16854 -0.133723 0)
(2.17892 -0.177184 0)
(2.18269 -0.217168 0)
(2.18259 -0.252397 0)
(2.17589 -0.282056 0)
(2.16069 -0.304182 0)
(2.13655 -0.316355 0)
(2.10259 -0.317566 0)
(2.05933 -0.308537 0)
(2.00868 -0.291195 0)
(1.95334 -0.268769 0)
(1.89687 -0.24532 0)
(1.84222 -0.224158 0)
(1.79086 -0.206977 0)
(1.74368 -0.194444 0)
(1.70103 -0.186465 0)
(1.6627 -0.18236 0)
(1.62821 -0.181079 0)
(1.59688 -0.181456 0)
(1.56802 -0.182382 0)
(1.54098 -0.18292 0)
(1.51528 -0.182347 0)
(1.49063 -0.180129 0)
(1.4669 -0.17586 0)
(1.44413 -0.169185 0)
(1.42249 -0.159759 0)
(1.40229 -0.147239 0)
(1.38389 -0.131303 0)
(1.36769 -0.111729 0)
(1.35413 -0.0884473 0)
(1.34366 -0.0615667 0)
(1.33667 -0.0314043 0)
(1.33348 0.00151313 0)
(1.33435 0.0364737 0)
(1.3394 0.0726131 0)
(1.34864 0.108951 0)
(1.3619 0.144433 0)
(1.37885 0.178043 0)
(1.39916 0.208994 0)
(1.42245 0.236602 0)
(1.44832 0.260298 0)
(1.47633 0.279641 0)
(1.50607 0.29432 0)
(1.53715 0.304156 0)
(1.56913 0.309118 0)
(1.60159 0.309305 0)
(1.63412 0.304896 0)
(1.66642 0.296145 0)
(1.69819 0.283408 0)
(1.72923 0.267091 0)
(1.75939 0.247607 0)
(1.78855 0.225352 0)
(1.81663 0.200696 0)
(1.84355 0.173971 0)
(1.86926 0.145456 0)
(1.89371 0.115362 0)
(1.91693 0.083815 0)
(1.93894 0.0508943 0)
(1.95955 0.0168553 0)
(1.97831 -0.0177293 0)
(1.99467 -0.0521779 0)
(2.00796 -0.08566 0)
(2.0175 -0.117299 0)
(2.02262 -0.146221 0)
(2.02283 -0.171571 0)
(2.01752 -0.192601 0)
(2.00558 -0.208345 0)
(1.98652 -0.217318 0)
(1.9605 -0.219485 0)
(1.92849 -0.215609 0)
(1.89211 -0.206984 0)
(1.85335 -0.195481 0)
(1.81459 -0.183313 0)
(1.77737 -0.172161 0)
(1.7424 -0.162998 0)
(1.71006 -0.156361 0)
(1.68041 -0.152463 0)
(1.65331 -0.151221 0)
(1.62848 -0.152285 0)
(1.6056 -0.155081 0)
(1.58435 -0.158869 0)
(1.56443 -0.162829 0)
(1.54561 -0.166146 0)
(1.52778 -0.168075 0)
(1.51091 -0.167972 0)
(1.49506 -0.165283 0)
(1.48037 -0.159522 0)
(1.46713 -0.15034 0)
(1.45554 -0.137522 0)
(1.44581 -0.121033 0)
(1.43816 -0.101003 0)
(1.43277 -0.0777098 0)
(1.4298 -0.0515672 0)
(1.42937 -0.0231096 0)
(1.43155 0.00703347 0)
(1.4364 0.038154 0)
(1.44389 0.069469 0)
(1.45388 0.100102 0)
(1.46619 0.129355 0)
(1.39724 0.234646 0)
(1.42476 0.252249 0)
(1.45463 0.266621 0)
(1.48642 0.277728 0)
(1.51973 0.285608 0)
(1.55421 0.290349 0)
(1.58956 0.292066 0)
(1.62553 0.290871 0)
(1.66195 0.286877 0)
(1.69869 0.280168 0)
(1.73564 0.27079 0)
(1.77271 0.258733 0)
(1.8098 0.243939 0)
(1.8468 0.226317 0)
(1.88354 0.205774 0)
(1.91979 0.182245 0)
(1.95524 0.155708 0)
(1.98958 0.126169 0)
(2.02251 0.0936187 0)
(2.05385 0.058013 0)
(2.08343 0.0193817 0)
(2.11073 -0.0216689 0)
(2.13475 -0.0638217 0)
(2.15454 -0.10574 0)
(2.16933 -0.146123 0)
(2.17825 -0.184009 0)
(2.18057 -0.218305 0)
(2.17763 -0.247254 0)
(2.16568 -0.269352 0)
(2.14294 -0.281581 0)
(2.1099 -0.283211 0)
(2.06658 -0.274706 0)
(2.01492 -0.257675 0)
(1.9579 -0.235147 0)
(1.89935 -0.211161 0)
(1.84271 -0.189305 0)
(1.78965 -0.171529 0)
(1.74121 -0.158726 0)
(1.69775 -0.150938 0)
(1.65905 -0.147542 0)
(1.62455 -0.147493 0)
(1.59352 -0.149564 0)
(1.56514 -0.152542 0)
(1.53865 -0.155373 0)
(1.51345 -0.157262 0)
(1.48912 -0.157669 0)
(1.46543 -0.156255 0)
(1.44236 -0.152781 0)
(1.41999 -0.147036 0)
(1.39854 -0.138791 0)
(1.37834 -0.127794 0)
(1.35978 -0.113787 0)
(1.34329 -0.0965835 0)
(1.32933 -0.0761189 0)
(1.31835 -0.0524831 0)
(1.31077 -0.0259433 0)
(1.30693 0.00304914 0)
(1.30711 0.033881 0)
(1.31147 0.0658069 0)
(1.32004 0.097981 0)
(1.33272 0.12951 0)
(1.34927 0.159522 0)
(1.36934 0.187207 0)
(1.39259 0.211922 0)
(1.41863 0.233129 0)
(1.44704 0.250402 0)
(1.47741 0.263438 0)
(1.50926 0.272065 0)
(1.54216 0.276253 0)
(1.5757 0.276075 0)
(1.60948 0.271671 0)
(1.64316 0.263254 0)
(1.67641 0.251108 0)
(1.70898 0.235584 0)
(1.74068 0.21705 0)
(1.77134 0.195874 0)
(1.80082 0.172403 0)
(1.82903 0.146947 0)
(1.85593 0.119743 0)
(1.88155 0.0909354 0)
(1.90591 0.0606292 0)
(1.92879 0.0291274 0)
(1.94973 -0.00303862 0)
(1.96809 -0.0351813 0)
(1.98313 -0.0664873 0)
(1.99408 -0.0961026 0)
(2.00028 -0.123171 0)
(2.00124 -0.146872 0)
(1.99631 -0.16657 0)
(1.98432 -0.18122 0)
(1.965 -0.189375 0)
(1.93857 -0.191157 0)
(1.90623 -0.187285 0)
(1.86979 -0.179013 0)
(1.83141 -0.168162 0)
(1.79347 -0.156769 0)
(1.75723 -0.146254 0)
(1.72337 -0.137478 0)
(1.69217 -0.130977 0)
(1.66361 -0.127021 0)
(1.63747 -0.125628 0)
(1.61341 -0.126587 0)
(1.59104 -0.12949 0)
(1.56997 -0.133762 0)
(1.54987 -0.138708 0)
(1.53048 -0.143589 0)
(1.51165 -0.147691 0)
(1.49336 -0.150374 0)
(1.47566 -0.151088 0)
(1.45871 -0.14937 0)
(1.4427 -0.144821 0)
(1.42797 -0.137115 0)
(1.41483 -0.126042 0)
(1.40355 -0.111543 0)
(1.3944 -0.0937259 0)
(1.38761 -0.072836 0)
(1.38337 -0.0492503 0)
(1.38183 -0.0234644 0)
(1.3831 0.00393421 0)
(1.38722 0.0322923 0)
(1.39418 0.0609041 0)
(1.40387 0.0890239 0)
(1.4161 0.115933 0)
(1.39017 0.208945 0)
(1.41674 0.223983 0)
(1.4457 0.236184 0)
(1.47671 0.245501 0)
(1.5094 0.251942 0)
(1.54345 0.255552 0)
(1.57859 0.256395 0)
(1.6146 0.254537 0)
(1.65128 0.250042 0)
(1.68851 0.242965 0)
(1.72613 0.233335 0)
(1.76402 0.221146 0)
(1.802 0.206356 0)
(1.8399 0.188912 0)
(1.87746 0.168784 0)
(1.91439 0.145976 0)
(1.95035 0.120493 0)
(1.98508 0.0922916 0)
(2.01846 0.0612577 0)
(2.05041 0.0272809 0)
(2.0805 -0.00928615 0)
(2.10764 -0.0472747 0)
(2.13079 -0.0854767 0)
(2.14902 -0.122592 0)
(2.16157 -0.157432 0)
(2.16764 -0.188886 0)
(2.16615 -0.215869 0)
(2.15519 -0.236651 0)
(2.13324 -0.247961 0)
(2.10002 -0.248789 0)
(2.05615 -0.23991 0)
(2.00363 -0.222749 0)
(1.94561 -0.200076 0)
(1.8863 -0.175862 0)
(1.82927 -0.153697 0)
(1.7763 -0.135654 0)
(1.7284 -0.122752 0)
(1.68583 -0.115145 0)
(1.64829 -0.112323 0)
(1.61519 -0.113308 0)
(1.58571 -0.116863 0)
(1.55896 -0.121688 0)
(1.5341 -0.126612 0)
(1.5104 -0.13072 0)
(1.48736 -0.133411 0)
(1.4647 -0.134354 0)
(1.44232 -0.133397 0)
(1.42027 -0.130447 0)
(1.39871 -0.125409 0)
(1.37788 -0.118154 0)
(1.35814 -0.108507 0)
(1.33988 -0.0962764 0)
(1.32357 -0.0813054 0)
(1.30965 -0.0635262 0)
(1.29858 -0.0430079 0)
(1.29077 -0.0199785 0)
(1.28658 0.00517812 0)
(1.28629 0.0319456 0)
(1.29009 0.0596928 0)
(1.29805 0.0876972 0)
(1.3101 0.115189 0)
(1.32609 0.141407 0)
(1.34573 0.165649 0)
(1.3687 0.187293 0)
(1.39459 0.205822 0)
(1.42301 0.22084 0)
(1.45351 0.232071 0)
(1.48565 0.239355 0)
(1.51898 0.242635 0)
(1.55309 0.241943 0)
(1.58759 0.237396 0)
(1.6221 0.229182 0)
(1.65629 0.217551 0)
(1.68987 0.202791 0)
(1.72258 0.185227 0)
(1.75422 0.165193 0)
(1.78466 0.14299 0)
(1.81386 0.118852 0)
(1.84184 0.0929229 0)
(1.86854 0.0653655 0)
(1.89365 0.0365621 0)
(1.91663 0.00704602 0)
(1.93671 -0.0224609 0)
(1.95305 -0.0511509 0)
(1.96487 -0.0782068 0)
(1.97153 -0.102822 0)
(1.97257 -0.124297 0)
(1.96722 -0.142064 0)
(1.95448 -0.154818 0)
(1.93428 -0.161539 0)
(1.90718 -0.162523 0)
(1.87465 -0.158508 0)
(1.8387 -0.15074 0)
(1.80161 -0.140918 0)
(1.76546 -0.130722 0)
(1.73123 -0.121245 0)
(1.69948 -0.113214 0)
(1.6704 -0.107121 0)
(1.6439 -0.103251 0)
(1.61969 -0.101675 0)
(1.59737 -0.102285 0)
(1.57649 -0.104817 0)
(1.55662 -0.10887 0)
(1.53736 -0.113929 0)
(1.5184 -0.119395 0)
(1.49958 -0.124637 0)
(1.48084 -0.129052 0)
(1.46224 -0.132104 0)
(1.44391 -0.133331 0)
(1.42608 -0.132345 0)
(1.40901 -0.128818 0)
(1.39303 -0.122464 0)
(1.37854 -0.113083 0)
(1.36587 -0.100589 0)
(1.35535 -0.0850435 0)
(1.34725 -0.0666561 0)
(1.34179 -0.0457621 0)
(1.33915 -0.0228023 0)
(1.33945 0.00168827 0)
(1.34275 0.0271118 0)
(1.34904 0.0528319 0)
(1.35826 0.0781986 0)
(1.37024 0.102583 0)
(1.38371 0.184254 0)
(1.40935 0.196687 0)
(1.43742 0.206619 0)
(1.46761 0.214005 0)
(1.4996 0.218833 0)
(1.5331 0.221115 0)
(1.56786 0.220873 0)
(1.60368 0.21813 0)
(1.64037 0.21291 0)
(1.67779 0.205255 0)
(1.71575 0.195209 0)
(1.75408 0.182796 0)
(1.79254 0.168003 0)
(1.83087 0.150815 0)
(1.86876 0.131241 0)
(1.90589 0.109313 0)
(1.94205 0.0849866 0)
(1.97722 0.0580489 0)
(2.01137 0.0282745 0)
(2.04393 -0.00404564 0)
(2.07358 -0.0378598 0)
(2.09911 -0.0720307 0)
(2.11936 -0.105369 0)
(2.13326 -0.136587 0)
(2.14003 -0.164455 0)
(2.13874 -0.188047 0)
(2.12719 -0.205934 0)
(2.10403 -0.214943 0)
(2.06896 -0.214289 0)
(2.02327 -0.204424 0)
(1.96954 -0.186839 0)
(1.91122 -0.164264 0)
(1.85285 -0.140548 0)
(1.79761 -0.118876 0)
(1.74708 -0.101181 0)
(1.70203 -0.0884924 0)
(1.66251 -0.0810972 0)
(1.62813 -0.0786554 0)
(1.59816 -0.0803389 0)
(1.57175 -0.0849867 0)
(1.54794 -0.0912814 0)
(1.52583 -0.0979589 0)
(1.50463 -0.103986 0)
(1.4838 -0.108654 0)
(1.46302 -0.111585 0)
(1.44217 -0.112652 0)
(1.4213 -0.111849 0)
(1.40053 -0.109193 0)
(1.38007 -0.104679 0)
(1.36022 -0.0982608 0)
(1.34132 -0.0898347 0)
(1.32378 -0.0792536 0)
(1.30804 -0.0663775 0)
(1.29456 -0.0511518 0)
(1.28377 -0.0336215 0)
(1.27609 -0.0139583 0)
(1.27186 0.00751348 0)
(1.27137 0.0303558 0)
(1.27482 0.0540403 0)
(1.28231 0.0779573 0)
(1.29382 0.101452 0)
(1.30923 0.123866 0)
(1.3283 0.144579 0)
(1.35075 0.163039 0)
(1.37621 0.178781 0)
(1.40427 0.191439 0)
(1.43453 0.200751 0)
(1.46653 0.206552 0)
(1.49986 0.208776 0)
(1.53409 0.20744 0)
(1.56881 0.202637 0)
(1.60364 0.194522 0)
(1.63822 0.183313 0)
(1.67225 0.169274 0)
(1.70546 0.152681 0)
(1.7377 0.13378 0)
(1.76892 0.112754 0)
(1.79907 0.0897501 0)
(1.82792 0.0650476 0)
(1.855 0.0391045 0)
(1.87958 0.0125145 0)
(1.90077 -0.0139557 0)
(1.91766 -0.0395127 0)
(1.92947 -0.0633989 0)
(1.9357 -0.0849189 0)
(1.93591 -0.10359 0)
(1.92915 -0.118781 0)
(1.91488 -0.128984 0)
(1.89337 -0.133829 0)
(1.86563 -0.133809 0)
(1.83344 -0.129721 0)
(1.79889 -0.12277 0)
(1.76415 -0.114386 0)
(1.73076 -0.105769 0)
(1.69948 -0.0977174 0)
(1.67074 -0.0908009 0)
(1.64461 -0.0854417 0)
(1.62093 -0.0818969 0)
(1.59939 -0.0802606 0)
(1.57953 -0.0804924 0)
(1.5609 -0.0824407 0)
(1.54303 -0.0858558 0)
(1.52551 -0.0903809 0)
(1.508 -0.0955705 0)
(1.49023 -0.100951 0)
(1.47208 -0.10604 0)
(1.45356 -0.110361 0)
(1.43486 -0.113464 0)
(1.41618 -0.114952 0)
(1.39779 -0.114492 0)
(1.37998 -0.111807 0)
(1.36311 -0.106667 0)
(1.34757 -0.0988779 0)
(1.33376 -0.0883426 0)
(1.32207 -0.0750882 0)
(1.31281 -0.0592587 0)
(1.30623 -0.0411329 0)
(1.30254 -0.0210998 0)
(1.30188 0.000364823 0)
(1.30431 0.0227247 0)
(1.30986 0.0454114 0)
(1.31847 0.0678443 0)
(1.33001 0.0894609 0)
(1.37695 0.160387 0)
(1.40181 0.170263 0)
(1.42909 0.177923 0)
(1.45851 0.183327 0)
(1.48981 0.186457 0)
(1.52272 0.1873 0)
(1.557 0.185843 0)
(1.59245 0.182071 0)
(1.62893 0.175992 0)
(1.66631 0.167648 0)
(1.70439 0.157108 0)
(1.74289 0.144419 0)
(1.78146 0.129603 0)
(1.81978 0.112702 0)
(1.85762 0.0937691 0)
(1.89497 0.0727314 0)
(1.93187 0.0492228 0)
(1.96818 0.0229494 0)
(2.00269 -0.00545804 0)
(2.03379 -0.0349798 0)
(2.06001 -0.0646167 0)
(2.08006 -0.093143 0)
(2.09306 -0.119519 0)
(2.09826 -0.142958 0)
(2.09394 -0.162794 0)
(2.07824 -0.176381 0)
(2.05056 -0.181684 0)
(2.01128 -0.178433 0)
(1.96249 -0.16714 0)
(1.90751 -0.14942 0)
(1.85048 -0.128077 0)
(1.79561 -0.106342 0)
(1.74493 -0.086484 0)
(1.69962 -0.0700819 0)
(1.66007 -0.0581466 0)
(1.62608 -0.0511299 0)
(1.59705 -0.0488939 0)
(1.57215 -0.0508231 0)
(1.55046 -0.0559623 0)
(1.53102 -0.0630981 0)
(1.51286 -0.0709375 0)
(1.49517 -0.0783613 0)
(1.47738 -0.0845726 0)
(1.45919 -0.0891104 0)
(1.44056 -0.0917983 0)
(1.42152 -0.092655 0)
(1.40223 -0.0917696 0)
(1.38287 -0.0892329 0)
(1.36371 -0.0851112 0)
(1.34509 -0.0794177 0)
(1.32734 -0.0720882 0)
(1.31086 -0.0630192 0)
(1.29607 -0.0521057 0)
(1.28338 -0.0392742 0)
(1.27323 -0.0245381 0)
(1.26601 -0.00806294 0)
(1.26205 0.00989189 0)
(1.26163 0.0289721 0)
(1.26496 0.0487385 0)
(1.27215 0.0686813 0)
(1.28322 0.0882524 0)
(1.29807 0.106899 0)
(1.31653 0.124091 0)
(1.33832 0.139348 0)
(1.36313 0.152255 0)
(1.39059 0.16248 0)
(1.42029 0.169777 0)
(1.45183 0.173989 0)
(1.48478 0.175047 0)
(1.5187 0.17296 0)
(1.55318 0.167808 0)
(1.58784 0.159729 0)
(1.62233 0.148906 0)
(1.65642 0.135531 0)
(1.68994 0.119756 0)
(1.72278 0.101708 0)
(1.7547 0.0815931 0)
(1.78518 0.0598332 0)
(1.81351 0.0369645 0)
(1.83876 0.0136688 0)
(1.8599 -0.00926163 0)
(1.87604 -0.0310851 0)
(1.8866 -0.0511639 0)
(1.89127 -0.06905 0)
(1.88948 -0.0844552 0)
(1.88041 -0.096297 0)
(1.86415 -0.103526 0)
(1.84142 -0.106388 0)
(1.81369 -0.105491 0)
(1.78288 -0.101654 0)
(1.75094 -0.0959043 0)
(1.71966 -0.0892794 0)
(1.69 -0.0825327 0)
(1.66255 -0.0762001 0)
(1.63756 -0.0707045 0)
(1.61501 -0.0663703 0)
(1.59471 -0.063403 0)
(1.57629 -0.0618955 0)
(1.55934 -0.0618512 0)
(1.5434 -0.0632019 0)
(1.52802 -0.0658154 0)
(1.51283 -0.0694675 0)
(1.49744 -0.0738615 0)
(1.48154 -0.0786517 0)
(1.46496 -0.0834784 0)
(1.44766 -0.0879949 0)
(1.42971 -0.0918619 0)
(1.41127 -0.0947341 0)
(1.39262 -0.0962665 0)
(1.37407 -0.0961559 0)
(1.35594 -0.0941587 0)
(1.3386 -0.0900796 0)
(1.32245 -0.083766 0)
(1.30788 -0.0751103 0)
(1.29531 -0.0640829 0)
(1.28513 -0.0508011 0)
(1.27763 -0.0354806 0)
(1.27301 -0.0184337 0)
(1.27146 -6.9608e-05 0)
(1.27306 0.0191358 0)
(1.27784 0.0386828 0)
(1.28577 0.0580603 0)
(1.29673 0.0767631 0)
(1.36897 0.137169 0)
(1.39326 0.144521 0)
(1.41993 0.149885 0)
(1.44874 0.153236 0)
(1.47946 0.15456 0)
(1.51183 0.153841 0)
(1.54561 0.151035 0)
(1.58062 0.146063 0)
(1.61674 0.138879 0)
(1.65384 0.12958 0)
(1.69167 0.118398 0)
(1.72988 0.105545 0)
(1.76818 0.0910555 0)
(1.80658 0.0746898 0)
(1.84525 0.0560309 0)
(1.88409 0.0349158 0)
(1.92189 0.0116821 0)
(1.95682 -0.012825 0)
(1.98716 -0.0375236 0)
(2.01132 -0.0614321 0)
(2.0283 -0.0840398 0)
(2.03728 -0.104905 0)
(2.03666 -0.123633 0)
(2.02461 -0.137325 0)
(2.00068 -0.144549 0)
(1.96526 -0.144946 0)
(1.92028 -0.138658 0)
(1.8691 -0.126725 0)
(1.8155 -0.110767 0)
(1.76344 -0.0929316 0)
(1.7151 -0.0750152 0)
(1.67188 -0.0584618 0)
(1.63444 -0.0444732 0)
(1.60284 -0.0340187 0)
(1.57661 -0.0276384 0)
(1.55493 -0.0254525 0)
(1.53686 -0.0271331 0)
(1.52143 -0.0320457 0)
(1.50767 -0.0392066 0)
(1.49459 -0.047387 0)
(1.48134 -0.055432 0)
(1.46739 -0.0624868 0)
(1.45249 -0.0680333 0)
(1.4366 -0.0718532 0)
(1.41986 -0.0739242 0)
(1.40248 -0.0743324 0)
(1.38469 -0.0732145 0)
(1.36678 -0.0707106 0)
(1.34906 -0.0669345 0)
(1.33185 -0.0619257 0)
(1.31548 -0.055641 0)
(1.30031 -0.0480014 0)
(1.28672 -0.0389278 0)
(1.27511 -0.0283593 0)
(1.26587 -0.0162837 0)
(1.25938 -0.00278702 0)
(1.25597 0.0118837 0)
(1.25588 0.0274385 0)
(1.25932 0.0435181 0)
(1.26642 0.0596965 0)
(1.27721 0.0755235 0)
(1.29163 0.0905441 0)
(1.30951 0.104313 0)
(1.33063 0.116418 0)
(1.35469 0.126495 0)
(1.38137 0.134252 0)
(1.41029 0.139473 0)
(1.44107 0.142025 0)
(1.47329 0.141857 0)
(1.50655 0.138992 0)
(1.54046 0.133478 0)
(1.57472 0.125374 0)
(1.60908 0.114737 0)
(1.64332 0.101649 0)
(1.67715 0.0862789 0)
(1.7099 0.0690035 0)
(1.74078 0.0503322 0)
(1.7688 0.030898 0)
(1.79289 0.0114219 0)
(1.81207 -0.00734587 0)
(1.8257 -0.0247943 0)
(1.83353 -0.0405667 0)
(1.83531 -0.0545424 0)
(1.83031 -0.0661992 0)
(1.81853 -0.0741965 0)
(1.80056 -0.0785512 0)
(1.77758 -0.0797821 0)
(1.7513 -0.0784921 0)
(1.72341 -0.0753764 0)
(1.69556 -0.0711743 0)
(1.66883 -0.066493 0)
(1.64383 -0.0617526 0)
(1.62093 -0.0572721 0)
(1.60023 -0.0533359 0)
(1.58167 -0.0501712 0)
(1.56501 -0.0479309 0)
(1.54992 -0.0467018 0)
(1.53603 -0.0465152 0)
(1.52293 -0.0473596 0)
(1.51024 -0.0491861 0)
(1.4976 -0.0518792 0)
(1.48466 -0.0552558 0)
(1.47112 -0.059082 0)
(1.45676 -0.0631119 0)
(1.44151 -0.0671057 0)
(1.42536 -0.0708224 0)
(1.40839 -0.0740143 0)
(1.39075 -0.0764256 0)
(1.3727 -0.0777905 0)
(1.35455 -0.0778446 0)
(1.33667 -0.0763681 0)
(1.3194 -0.07319 0)
(1.30316 -0.068178 0)