/*--------------------------------*- C++ -*----------------------------------*\
| =========                 |                                                 |
| \\      /  F ield         | OpenFOAM: The Open Source CFD Toolbox           |
|  \\    /   O peration     | Version:  2206                                  |
|   \\  /    A nd           | Website:  www.openfoam.com                      |
|    \\/     M anipulation  |                                                 |
\*---------------------------------------------------------------------------*/
FoamFile
{
    version     2.0;
    format      ascii;
    arch        "LSB;label=32;scalar=64";
    class       volScalarField;
    location    "18.3999";
    object      p;
}
// * * * * * * * * * * * * * * * * * * * * * * * * * * * * * * * * * * * * * //

dimensions      [0 2 -2 0 0 0 0];

internalField   nonuniform List<scalar> 
1814
(
0.00544092
0.00755552
0.00858144
0.00861152
0.00778814
0.00621693
0.00399619
0.00122333
-0.00202612
-0.00567322
-0.0096591
-0.0139791
-0.0185473
-0.0231964
-0.0277104
-0.0319063
-0.0356443
-0.0387626
-0.041095
-0.0424815
-0.0427699
-0.0418973
-0.0399088
-0.0368825
-0.0329849
-0.0284407
-0.023523
-0.0184783
-0.0133462
-0.00817708
-0.00329773
0.00104015
0.00474827
0.0077548
0.0100085
0.011462
0.0121119
0.0120193
0.0112889
0.00998605
0.00818783
0.00598883
0.00348153
0.000737641
-0.00220226
-0.00531499
-0.00848536
-0.0115841
-0.0145049
-0.0171422
-0.0194001
-0.0211927
-0.022442
-0.0230834
-0.0230578
-0.0223755
-0.0210582
-0.0191464
-0.0167312
-0.0139367
-0.0109109
-0.00780182
-0.00468769
-0.00158593
0.00138878
0.00405461
0.00631282
0.00812698
0.0094478
0.0102529
0.0105408
0.0103496
0.00973654
0.00876045
0.00748099
0.00596762
0.00429642
0.00251933
0.000660825
-0.00125847
-0.00315721
-0.00495141
-0.00656816
-0.00795158
-0.0090488
-0.009818
-0.010225
-0.0102345
-0.00985629
-0.00910111
-0.00799517
-0.00658894
-0.00495885
-0.00319654
-0.00132181
0.00066525
0.00267322
0.0045792
0.0063079
0.00781647
0.00905988
0.00999867
0.0106091
0.0108682
0.0107764
0.0103753
0.00969207
0.00876395
0.00764193
0.00638643
0.00505225
0.00368039
0.00230404
0.000990503
-0.000182238
-0.00114074
-0.0018311
-0.00212833
-0.00219883
-0.00157535
-0.00122617
6.09431e-05
0.00192051
0.00286521
0.00292772
0.00229864
0.00105321
-0.000744236
-0.00302629
-0.00572167
-0.00872951
-0.0119167
-0.0152897
-0.0190608
-0.023129
-0.0270344
-0.0306604
-0.0339256
-0.0366653
-0.0387193
-0.039938
-0.0401789
-0.039388
-0.0375911
-0.0348687
-0.0313842
-0.0273438
-0.0229906
-0.01865
-0.0143879
-0.00984073
-0.00554413
-0.00179014
0.00143291
0.00406293
0.00604983
0.00738328
0.00805785
0.00806808
0.00755151
0.00656092
0.00515034
0.00338959
0.00135652
-0.00085148
-0.00314282
-0.00556411
-0.00815349
-0.0107515
-0.013189
-0.0153893
-0.0172823
-0.0187887
-0.0198367
-0.020361
-0.0202894
-0.0196304
-0.0184168
-0.0166801
-0.0145048
-0.0120057
-0.00930941
-0.00657996
-0.00395394
-0.00132751
0.00131876
0.00364701
0.00558845
0.00714925
0.00829089
0.00899481
0.00924195
0.00905317
0.00850393
0.00764025
0.00650925
0.00516249
0.00366129
0.002085
0.000499427
-0.00114437
-0.00286407
-0.00452196
-0.0060128
-0.00731196
-0.00838161
-0.00917907
-0.00966443
-0.00980129
-0.00958462
-0.00903444
-0.00817052
-0.00703479
-0.00568619
-0.00422414
-0.00274107
-0.00113972
0.000594311
0.0022224
0.00368943
0.00498783
0.00607158
0.00690471
0.00746836
0.00775173
0.00773822
0.00746069
0.0069504
0.0062361
0.0053577
0.00436281
0.00330848
0.0022555
0.0012228
0.000208931
-0.000718405
-0.00146384
-0.00197319
-0.0021528
-0.00214127
-0.00149555
-0.00114866
-0.00696303
-0.00554592
-0.00478636
-0.00467648
-0.00504991
-0.00583836
-0.00700277
-0.00850932
-0.0103354
-0.0124404
-0.0146905
-0.0168859
-0.0193396
-0.0226527
-0.025629
-0.028354
-0.0308793
-0.0330201
-0.0346321
-0.0355858
-0.0357562
-0.0351232
-0.033653
-0.0314214
-0.0285841
-0.0253241
-0.0218156
-0.0184146
-0.0152738
-0.0116757
-0.00815812
-0.00525912
-0.00274838
-0.000673294
0.000911281
0.00201394
0.0026432
0.00276842
0.00250663
0.00191289
0.00102439
-0.000111944
-0.00144882
-0.0029306
-0.0044403
-0.00595159
-0.00771748
-0.00961402
-0.0113696
-0.0129395
-0.0142911
-0.0153565
-0.0160739
-0.0163877
-0.0162492
-0.0156455
-0.0145975
-0.0131277
-0.0113199
-0.00927835
-0.00709563
-0.00489342
-0.00290718
-0.00107381
0.00120913
0.00303237
0.00448253
0.00566341
0.00651559
0.00702295
0.00719092
0.00700009
0.00653316
0.00582535
0.00491174
0.00383481
0.00263315
0.0013558
0.000108767
-0.00109704
-0.00252551
-0.00396488
-0.00521284
-0.00632782
-0.00728022
-0.00802451
-0.00853497
-0.00878408
-0.0087446
-0.0084365
-0.00787505
-0.00709685
-0.0061459
-0.00508659
-0.00406239
-0.00304182
-0.00162639
-0.000381042
0.00069826
0.00168666
0.00252799
0.00318917
0.00365938
0.00392974
0.0039915
0.0038487
0.00353824
0.00308179
0.00251033
0.00186081
0.00117119
0.0004954
-0.000119364
-0.000725228
-0.00133256
-0.00181212
-0.00209291
-0.00211161
-0.00199255
-0.00134702
-0.00100919
-0.0153259
-0.0144843
-0.0139962
-0.0138253
-0.013886
-0.0141092
-0.0144737
-0.0150025
-0.015706
-0.0165958
-0.0176386
-0.0185439
-0.0195568
-0.0216973
-0.0234514
-0.0250647
-0.026651
-0.0280324
-0.0290921
-0.0297261
-0.0298379
-0.029416
-0.0284021
-0.0268622
-0.0249085
-0.0226754
-0.0202792
-0.0179158
-0.0157165
-0.0134495
-0.011169
-0.00924108
-0.00758277
-0.0062071
-0.00513262
-0.00433805
-0.00380202
-0.00354775
-0.00350972
-0.0036273
-0.00388692
-0.0042717
-0.00475479
-0.00533133
-0.0059325
-0.00637566
-0.00710768
-0.00811986
-0.0090165
-0.00980436
-0.0104902
-0.0110198
-0.0113444
-0.011419
-0.0112114
-0.0107188
-0.00991803
-0.00882882
-0.00751982
-0.00606656
-0.00453017
-0.00297999
-0.00168479
-0.000556184
0.000994255
0.00216481
0.00305061
0.00376351
0.00425519
0.0045198
0.00457027
0.00439654
0.00403735
0.00353667
0.00291251
0.00218153
0.00137205
0.000493925
-0.000324275
-0.00106237
-0.00207149
-0.00320711
-0.00412233
-0.00498504
-0.00577498
-0.00644445
-0.00697516
-0.00734881
-0.0075274
-0.0075197
-0.00732993
-0.00698273
-0.00650538
-0.00592988
-0.00541672
-0.00490516
-0.00402995
-0.00327891
-0.00263734
-0.00202239
-0.00147842
-0.00102988
-0.000682583
-0.000441968
-0.00031154
-0.000295196
-0.000368246
-0.000518598
-0.00072748
-0.000972919
-0.00123415
-0.00148081
-0.00165003
-0.00174751
-0.00194393
-0.00210981
-0.00212762
-0.00196718
-0.00173704
-0.00113083
-0.00078665
-0.024162
-0.0240547
-0.0239848
-0.0238661
-0.0236416
-0.0232417
-0.022679
-0.0220534
-0.0214977
-0.0210211
-0.0206072
-0.0202217
-0.0201206
-0.0204427
-0.0206992
-0.0210943
-0.0215843
-0.0220748
-0.0225025
-0.0227982
-0.0228841
-0.0227328
-0.0222961
-0.0215907
-0.0206757
-0.0195844
-0.0183759
-0.0171607
-0.0160298
-0.0151379
-0.0141514
-0.0132852
-0.0125778
-0.011999
-0.0115297
-0.0111448
-0.0108157
-0.010468
-0.0101426
-0.00976817
-0.00934126
-0.00888173
-0.00840541
-0.00793218
-0.00746321
-0.00693445
-0.00665336
-0.00655631
-0.00641382
-0.006285
-0.00617894
-0.0060598
-0.00589938
-0.0056692
-0.00534472
-0.00492963
-0.00439691
-0.00376676
-0.00306611
-0.00231573
-0.00153864
-0.00079008
-0.000161798
0.000401823
0.000829964
0.00126061
0.00156275
0.00173762
0.00179827
0.00176142
0.00164037
0.00144903
0.00119916
0.000907024
0.00058723
0.000243454
-0.000119529
-0.000486011
-0.000834192
-0.0012135
-0.00178076
-0.00239112
-0.00291009
-0.00345183
-0.00400315
-0.00453586
-0.00503448
-0.00547596
-0.00587607
-0.00619966
-0.00644014
-0.00659936
-0.0066817
-0.00669854
-0.00668977
-0.00659997
-0.00648399
-0.00631814
-0.00613257
-0.00593615
-0.00573609
-0.00553458
-0.00533369
-0.00514464
-0.00497077
-0.00480402
-0.00463278
-0.00445682
-0.00427296
-0.00407493
-0.00385585
-0.00360461
-0.00330682
-0.0029657
-0.00272705
-0.00251326
-0.00220799
-0.00184615
-0.00146578
-0.000998404
-0.000592611
0.00573085
0.00726585
0.00793871
0.00777276
0.00681079
0.00517003
0.00290107
9.77549e-05
-0.00312659
-0.00665525
-0.0103652
-0.0141288
-0.0178152
-0.0212927
-0.0244321
-0.0271116
-0.0292201
-0.0306577
-0.0313501
-0.0313788
-0.0306214
-0.0291064
-0.0268956
-0.024077
-0.0207616
-0.0170787
-0.0131688
-0.00917721
-0.0052471
-0.00151424
0.00189815
0.00488461
0.00736044
0.00926289
0.0105521
0.0112066
0.0112148
0.010703
0.00964111
0.00808682
0.00611272
0.00379862
0.0012296
-0.00150567
-0.00431666
-0.00711277
-0.00980451
-0.0123069
-0.0145424
-0.0164413
-0.0179448
-0.0190083
-0.0195994
-0.0196997
-0.0193044
-0.018478
-0.0172287
-0.0156126
-0.0136997
-0.0115682
-0.00930166
-0.00698496
-0.00470074
-0.00252679
-0.000533462
0.00121987
0.00268702
0.00383496
0.00464639
0.00511592
0.0052535
0.0050815
0.00463613
0.00395519
0.00308558
0.00207944
0.00098927
-0.000126494
-0.00121449
-0.00221808
-0.00307831
-0.00379987
-0.0043166
-0.00459392
-0.00460808
-0.00434518
-0.0038011
-0.00298225
-0.00190568
-0.000598667
0.000902592
0.00255394
0.00430564
0.00610338
0.00789083
0.00961207
0.011213
0.0126428
0.0138556
0.0148079
0.0154631
0.0158582
0.015953
0.0157445
0.0152463
0.0144821
0.0134836
0.0122897
0.0109452
0.00949857
0.00800093
0.00650451
0.00506097
0.00372062
0.00252898
0.00152621
0.00074542
0.000209893
-6.90665e-05
-0.000106557
0.00401885
0.00645644
0.00800309
0.00866308
0.00846801
0.00747849
0.00574665
0.00338836
0.000493494
-0.00283071
-0.0064663
-0.0102896
-0.0141711
-0.0179788
-0.0215774
-0.0248322
-0.0276164
-0.0298135
-0.0313252
-0.0321777
-0.0321569
-0.0313536
-0.0297822
-0.0274965
-0.0245844
-0.0211601
-0.0173574
-0.013321
-0.00920025
-0.00514516
-0.00129779
0.00221549
0.00528647
0.00782825
0.00977718
0.0110926
0.0117604
0.011816
0.0112325
0.0101064
0.00848745
0.00644387
0.00405598
0.00141004
-0.00140361
-0.00429367
-0.00716924
-0.00993815
-0.0125128
-0.0148141
-0.0167699
-0.0183195
-0.0194163
-0.0200267
-0.0201332
-0.0197442
-0.0188692
-0.0175674
-0.0158918
-0.0139121
-0.0117088
-0.00936779
-0.00697728
-0.00462208
-0.00238313
-0.000334374
0.00146398
0.00296413
0.0041325
0.00495095
0.00541582
0.00553646
0.00533608
0.00485741
0.00413453
0.00321781
0.00216136
0.00102166
-0.000145282
-0.00128534
-0.00234495
-0.00328939
-0.00403821
-0.00457701
-0.0048717
-0.00489713
-0.00463799
-0.0040892
-0.00325677
-0.00215811
-0.000821316
0.000716997
0.00241234
0.00421275
0.00606221
0.00790317
0.00967794
0.0113295
0.0128022
0.014052
0.0150484
0.0157749
0.0161726
0.0162611
0.0160407
0.0155238
0.0147339
0.0137035
0.0124728
0.0110878
0.00959891
0.00805878
0.00651994
0.00503315
0.00365362
0.00242751
0.00139787
0.000600074
5.7501e-05
-0.000192711
-0.000190196
0.00527153
0.00775818
0.00930587
0.00992448
0.00965272
0.00855342
0.00669364
0.00418458
0.00112834
-0.00237085
-0.00619354
-0.0102121
-0.0142935
-0.0183026
-0.0220991
-0.0255411
-0.0284947
-0.0308416
-0.032485
-0.033361
-0.0333809
-0.0325533
-0.0309045
-0.0284956
-0.0254213
-0.0218046
-0.0177897
-0.0135307
-0.00918661
-0.00491833
-0.000876886
0.00280487
0.00601343
0.00865705
0.010667
0.0120024
0.0126583
0.0126755
0.0120491
0.010842
0.00911919
0.00695709
0.00444051
0.0016593
-0.00129283
-0.00432302
-0.0073362
-0.0102352
-0.0129302
-0.0153388
-0.0173855
-0.0190063
-0.0201514
-0.0207828
-0.0208824
-0.0204632
-0.0195332
-0.0181461
-0.0163639
-0.0142624
-0.0119278
-0.0094518
-0.00692804
-0.00444581
-0.00209179
5.54709e-05
0.00193295
0.00349029
0.00469358
0.00552509
0.00598156
0.00607452
0.00583227
0.00528318
0.00448271
0.00348532
0.00234493
0.00111939
-0.000134367
-0.00135728
-0.0025
-0.0035112
-0.00433585
-0.00493771
-0.00528204
-0.00534272
-0.00510342
-0.00455777
-0.00371111
-0.0025817
-0.00119934
0.000397371
0.00216158
0.00403857
0.00596935
0.0078922
0.00974455
0.0114665
0.0130042
0.0143077
0.015354
0.0161
0.0165213
0.0166141
0.016381
0.0158364
0.0150056
0.0139233
0.0126319
0.0111799
0.00962036
0.00800856
0.00639934
0.00484859
0.00341351
0.00214516
0.00108761
0.000287142
-0.000230915
-0.000407862
-0.000321676
0.00680492
0.00933731
0.010869
0.0114169
0.0110302
0.00978393
0.00776928
0.00508303
0.0018299
-0.00188224
-0.00592977
-0.0101835
-0.0145076
-0.0187613
-0.0227987
-0.0264693
-0.0296334
-0.0321702
-0.0339851
-0.0349044
-0.0349474
-0.0340805
-0.0323325
-0.0297683
-0.0264903
-0.0226329
-0.0183527
-0.0138154
-0.00919309
-0.00466018
-0.000378412
0.00351049
0.00688572
0.00965011
0.0117346
0.013108
0.0137708
0.0137298
0.0130254
0.011712
0.00986042
0.00755308
0.0048798
0.00193512
-0.00118446
-0.00438391
-0.00756293
-0.0106191
-0.01346
-0.0159989
-0.0181557
-0.0198627
-0.0210652
-0.0217224
-0.0218147
-0.021351
-0.0203481
-0.0188517
-0.0169333
-0.0146763
-0.0121737
-0.00952477
-0.00683018
-0.00418558
-0.00168411
0.000589559
0.00256791
0.00419894
0.00544771
0.00629565
0.00673871
0.00678914
0.00647743
0.00584938
0.00495888
0.00385915
0.00260814
0.00126733
-0.000102142
-0.00144171
-0.00269517
-0.00380773
-0.00472726
-0.00541107
-0.00582363
-0.0059368
-0.00573142
-0.00519869
-0.00434222
-0.003182
-0.00174981
-8.67627e-05
0.00175702
0.00372401
0.00575007
0.00776993
0.00972006
0.0115375
0.0131643
0.0145505
0.0156423
0.0164225
0.0168638
0.0169567
0.0167056
0.0161266
0.0152466
0.0141028
0.0127405
0.0112117
0.00957294
0.00788221
0.00619714
0.00458064
0.00309045
0.00178591
0.000710881
-7.3385e-05
-0.000549085
-0.000629802
-0.000461718
0.00832152
0.0108701
0.0123546
0.012813
0.0123123
0.0109257
0.00874856
0.00588307
0.00243253
-0.00148727
-0.00575204
-0.0102338
-0.0147976
-0.0192968
-0.0235757
-0.0274793
-0.0308597
-0.0335786
-0.0355132
-0.0365483
-0.0366317
-0.0357327
-0.0338882
-0.0311664
-0.0276781
-0.0235708
-0.0190158
-0.014189
-0.00927648
-0.00446853
6.27638e-05
0.00416578
0.00771303
0.0106064
0.012779
0.0141937
0.0148496
0.014764
0.0139794
0.0125574
0.0105756
0.00812212
0.00529196
0.00218442
-0.00110378
-0.00447396
-0.00781974
-0.0110362
-0.0140269
-0.0167
-0.0189714
-0.0207694
-0.0220336
-0.0227191
-0.0228018
-0.0222826
-0.021192
-0.0195775
-0.0175095
-0.0150802
-0.0123918
-0.00955134
-0.00666564
-0.00383911
-0.00117379
0.00124033
0.00333157
0.00504526
0.00634439
0.00720811
0.00762998
0.00763047
0.00725418
0.00654227
0.00554843
0.0043312
0.00295429
0.00148334
-1.8126e-05
-0.00149057
-0.0028742
-0.00410962
-0.00514413
-0.00593244
-0.00643429
-0.00661915
-0.00646584
-0.0059636
-0.00511242
-0.00393567
-0.00246526
-0.000744964
0.00117142
0.00322266
0.00534225
0.00746182
0.00951178
0.0114234
0.0131341
0.0145904
0.0157459
0.0165692
0.0170358
0.0171353
0.0168721
0.0162642
0.0153412
0.0141426
0.0127171
0.01112
0.00941112
0.00765257
0.00590324
0.00423493
0.00270519
0.00138264
0.000310422
-0.000441318
-0.000860794
-0.000829927
-0.000589381
0.00962718
0.0121642
0.0136106
0.0139707
0.0133411
0.0118145
0.00948044
0.00644112
0.0028104
-0.00129232
-0.00574582
-0.0104318
-0.0152125
-0.0199318
-0.024432
-0.0285528
-0.0321355
-0.0350277
-0.0370898
-0.038211
-0.0383309
-0.0374063
-0.0354691
-0.0325938
-0.0288998
-0.0245484
-0.0197275
-0.0146222
-0.00943107
-0.00436436
0.000394114
0.0046877
0.00838449
0.0113907
0.0136481
0.0151072
0.0157492
0.015616
0.0147572
0.0132413
0.0111476
0.00856898
0.00560589
0.00236172
-0.00106962
-0.00458629
-0.0080749
-0.0114301
-0.0145511
-0.017342
-0.0197154
-0.0215934
-0.0229091
-0.0236123
-0.0236766
-0.0231025
-0.0219266
-0.0201958
-0.0179816
-0.0153847
-0.0125179
-0.00949231
-0.00642069
-0.00342013
-0.000598446
0.00195086
0.00415045
0.00594146
0.00728371
0.00815749
0.0085628
0.00852286
0.0080834
0.00728682
0.00618685
0.00484909
0.00334263
0.00173686
9.48937e-05
-0.0015219
-0.00304731
-0.00441896
-0.0055818
-0.00648685
-0.0070936
-0.00736609
-0.00728011
-0.00682591
-0.00599998
-0.00482523
-0.0033342
-0.00157253
0.000402505
0.00252503
0.00472413
0.00692764
0.00906436
0.011063
0.0128581
0.0143885
0.0156025
0.0164655
0.0169574
0.0170682
0.0168025
0.0161798
0.0152301
0.0139948
0.0125256
0.0108812
0.00912528
0.00732143
0.00553426
0.00383615
0.00228859
0.000969582
-8.47044e-05
-0.000789277
-0.00114219
-0.00100513
-0.000691247
0.0106052
0.0130769
0.0144755
0.0148089
0.0140783
0.012414
0.00993615
0.00675114
0.00297167
-0.00128017
-0.00588667
-0.010741
-0.0157058
-0.0206182
-0.0253179
-0.0296398
-0.0334162
-0.0364805
-0.0386749
-0.0398753
-0.0400307
-0.0391109
-0.0370993
-0.0340866
-0.0302065
-0.0256332
-0.0205695
-0.0152279
-0.00978975
-0.00446729
0.00051443
0.00499309
0.00882909
0.0119249
0.0142274
0.0157263
0.0164077
0.0162671
0.0153424
0.0137458
0.0115628
0.00888752
0.00582122
0.00247169
-0.00106874
-0.00470002
-0.00830311
-0.0117707
-0.0150003
-0.0178915
-0.0203514
-0.0222947
-0.0236474
-0.0243576
-0.0244081
-0.0238031
-0.0225489
-0.0207024
-0.0183483
-0.0155927
-0.0125557
-0.00935526
-0.00610529
-0.00293299
4.02932e-05
0.00271522
0.00501181
0.00686572
0.00823348
0.00910701
0.0095105
0.00945288
0.0089365
0.00804391
0.00683647
0.00538128
0.0037479
0.00200918
0.000227451
-0.00153419
-0.00320438
-0.00471906
-0.00602062
-0.00705554
-0.00777772
-0.00814801
-0.00813891
-0.00774946
-0.00698468
-0.00583526
-0.00434394
-0.00256294
-0.000552167
0.00162045
0.00388048
0.00615729
0.00837115
0.0104387
0.0122964
0.0138832
0.0151528
0.0160681
0.0165996
0.0167321
0.0164686
0.0158395
0.0148777
0.0136253
0.0121362
0.0104701
0.00869339
0.00687047
0.00506989
0.00337042
0.00182882
0.00053228
-0.000486095
-0.00113261
-0.00140905
-0.00118067
-0.000773738
0.0110566
0.0134434
0.0147016
0.0149499
0.0142052
0.0124932
0.00991883
0.00664564
0.00278249
-0.00155674
-0.00625302
-0.011212
-0.0163129
-0.0213798
-0.0262425
-0.0307334
-0.0346771
-0.0378979
-0.0402255
-0.0415225
-0.0417186
-0.0408054
-0.0387528
-0.0356276
-0.0315763
-0.0268012
-0.0215214
-0.0159597
-0.0103316
-0.00484975
0.000306842
0.00494662
0.00889529
0.0120658
0.0143978
0.0158803
0.0165373
0.0164031
0.0155193
0.0139183
0.0116959
0.00898078
0.00587111
0.00247178
-0.00111339
-0.00480093
-0.00848092
-0.0120247
-0.0153269
-0.0182881
-0.0208113
-0.0228035
-0.0241851
-0.0249002
-0.0249323
-0.0242983
-0.0229969
-0.0210618
-0.0185839
-0.0156899
-0.0125075
-0.00916651
-0.00579523
-0.00249794
0.000609664
0.00339816
0.00578062
0.00769173
0.00908773
0.00995355
0.010317
0.0102259
0.00969911
0.00875616
0.00745505
0.00589631
0.00415115
0.00229205
0.000387714
-0.00150721
-0.00332218
-0.00497893
-0.00641919
-0.00758898
-0.0084382
-0.00892162
-0.00900752
-0.00868993
-0.00799051
-0.00690838
-0.0054567
-0.00368282
-0.00166622
0.00052272
0.00281007
0.00511947
0.00736878
0.0094906
0.0114088
0.0130447
0.0143524
0.0152959
0.0158501
0.0160165
0.0157995
0.0152083
0.0142699
0.0130302
0.0115536
0.00990077
0.00813755
0.00633341
0.00455137
0.00286842
0.00135212
9.22468e-05
-0.000878503
-0.001456
-0.00166227
-0.00133729
-0.000891365
0.0106673
0.0129862
0.0141323
0.0142233
0.0133977
0.0117077
0.00918795
0.0059176
0.00204576
-0.00228744
-0.0069744
-0.0119222
-0.0170416
-0.0221694
-0.0271079
-0.0316827
-0.0357187
-0.0390345
-0.0414519
-0.042828
-0.0430766
-0.0421634
-0.0400924
-0.0369285
-0.0328218
-0.0279686
-0.0225976
-0.0169337
-0.011194
-0.00559224
-0.000340663
0.00436128
0.00838902
0.011628
0.0139836
0.0154619
0.0160774
0.0159015
0.0150208
0.0134815
0.0113432
0.00867915
0.00560277
0.00224163
-0.00130574
-0.00494763
-0.00859735
-0.0121475
-0.0154656
-0.018443
-0.020982
-0.0229889
-0.0243819
-0.0251009
-0.0251228
-0.0244514
-0.0231115
-0.0211363
-0.0186089
-0.0156421
-0.0123732
-0.00893789
-0.00547172
-0.00209765
0.00106123
0.00390856
0.00635358
0.00830156
0.00971317
0.0105756
0.0109046
0.0107445
0.0101564
0.00918268
0.00787372
0.0062716
0.00445317
0.00251399
0.000523595
-0.001456
-0.00336764
-0.00514779
-0.00671583
-0.008007
-0.00897553
-0.00957576
-0.0097722
-0.00955243
-0.00892453
-0.00791419
-0.00654189
-0.00484558
-0.00287865
-0.000717257
0.00155184
0.00385234
0.00610784
0.00823819
0.0101578
0.0118087
0.013146
0.014115
0.0146859
0.0148715
0.0146801
0.0141258
0.0132494
0.0120853
0.0106754
0.00908176
0.00737784
0.00563613
0.00392207
0.00230901
0.00085436
-0.000347633
-0.00126505
-0.00175862
-0.00191534
-0.00146745
-0.00106634
0.0089197
0.0111687
0.012242
0.0122654
0.0113652
0.00967267
0.00727848
0.00422581
0.000573876
-0.00357852
-0.00809849
-0.0128787
-0.0178341
-0.0228433
-0.0276991
-0.0321943
-0.0361649
-0.0394457
-0.0418759
-0.043307
-0.0436019
-0.0426978
-0.0406252
-0.0374664
-0.0333862
-0.0285999
-0.0233598
-0.017862
-0.0122439
-0.00671845
-0.00153735
0.00310126
0.00706773
0.0102498
0.0126021
0.0140972
0.0147182
0.0145544
0.0136932
0.012221
0.0102199
0.00775936
0.00490364
0.00172905
-0.00165047
-0.00513306
-0.00862609
-0.0120234
-0.0152224
-0.0181166
-0.020588
-0.0225413
-0.023896
-0.0245888
-0.0245973
-0.0239153
-0.0225586
-0.0205766
-0.0180633
-0.0151339
-0.0119325
-0.0085768
-0.00516607
-0.00182399
0.00132055
0.00414936
0.00655418
0.00848062
0.00989053
0.0107419
0.0110534
0.0108652
0.0102324
0.00922394
0.00791014
0.00634063
0.00456838
0.0026404
0.000634016
-0.00137407
-0.0033241
-0.00514629
-0.00677279
-0.00815138
-0.00922015
-0.0099217
-0.0102271
-0.0101224
-0.00960898
-0.00869999
-0.00743021
-0.0058558
-0.00403831
-0.00202867
0.00012621
0.00233543
0.00451574
0.00658438
0.00846168
0.0100905
0.011416
0.0123884
0.01299
0.0132098
0.0130555
0.0125583
0.0117556
0.010689
0.00940515
0.00795748
0.00639215
0.00477426
0.00318039
0.00168124
0.000339826
-0.000757979
-0.00158448
-0.0019862
-0.00210969
-0.00155015
-0.0011976
)
;

boundaryField
{
    inlet
    {
        type            zeroGradient;
    }
    outlet
    {
        type            fixedValue;
        value           uniform 0;
    }
    topWall
    {
        type            zeroGradient;
    }
    lowerWall
    {
        type            zeroGradient;
    }
    leadingEdge
    {
        type            zeroGradient;
    }
    trailingEdge
    {
        type            zeroGradient;
    }
    upperSurface
    {
        type            zeroGradient;
    }
    lowerSurface
    {
        type            zeroGradient;
    }
    frontAndBack
    {
        type            empty;
    }
    procBoundary3to2
    {
        type            processor;
        value           nonuniform List<scalar> 
16
(
0.00219704
-0.00272779
-0.0090884
-0.016593
-0.0244098
0.00333228
0.00333228
0.000717054
0.00186956
0.00329404
0.00472831
0.00600414
0.0069941
0.0074713
0.00711977
0.00544577
)
;
    }
    procBoundary3to7
    {
        type            processor;
        value           nonuniform List<scalar> 
121
(
-0.0331547
-0.0337329
-0.0340017
-0.0338231
-0.0332702
-0.0322211
-0.0307588
-0.0289876
-0.0270672
-0.0251418
-0.0232956
-0.0216394
-0.0202917
-0.0187983
-0.017683
-0.0169566
-0.016462
-0.0161866
-0.0160973
-0.0161424
-0.0162721
-0.0164376
-0.0165885
-0.0166858
-0.0167342
-0.0167385
-0.0167196
-0.0166502
-0.0165383
-0.0167588
-0.017109
-0.0173551
-0.0175912
-0.0177966
-0.0179146
-0.0178973
-0.0176547
-0.0172741
-0.0166457
-0.0157611
-0.0146347
-0.0133071
-0.0118451
-0.0103118
-0.00877273
-0.00725017
-0.00588525
-0.00476427
-0.00357862
-0.00255295
-0.00170414
-0.00100039
-0.000426412
3.37814e-05
0.000394313
0.000666252
0.000885537
0.00104565
0.00115644
0.0012245
0.00125123
0.00125249
0.00127947
0.00120807
0.000726997
0.000390427
9.11247e-05
-0.000253915
-0.000603529
-0.000925173
-0.00119874
-0.00139361
-0.00152296
-0.00157861
-0.00156342
-0.00148513
-0.00138425
-0.00128176
-0.00122839
-0.00125797
-0.00135587
-0.00138261
-0.00155979
-0.00183677
-0.00219877
-0.00264229
-0.00315723
-0.00374149
-0.00439409
-0.00507287
-0.00575363
-0.00641878
-0.0070489
-0.00761914
-0.00808361
-0.00851431
-0.00901093
-0.0094154
-0.0096983
-0.00991102
-0.010041
-0.0100738
-0.0100082
-0.00985481
-0.0096155
-0.00928266
-0.00885277
-0.00833312
-0.00773913
-0.00708348
-0.0063775
-0.00563338
-0.00487313
-0.0041158
-0.00340063
-0.00286064
-0.0022325
-0.00164811
-0.00113321
-0.000683212
-0.000287789
)
;
    }
}


// ************************************************************************* //
