/*--------------------------------*- C++ -*----------------------------------*\
| =========                 |                                                 |
| \\      /  F ield         | OpenFOAM: The Open Source CFD Toolbox           |
|  \\    /   O peration     | Version:  2206                                  |
|   \\  /    A nd           | Website:  www.openfoam.com                      |
|    \\/     M anipulation  |                                                 |
\*---------------------------------------------------------------------------*/
FoamFile
{
    version     2.0;
    format      ascii;
    arch        "LSB;label=32;scalar=64";
    class       volScalarField;
    location    "19.8";
    object      p;
}
// * * * * * * * * * * * * * * * * * * * * * * * * * * * * * * * * * * * * * //

dimensions      [0 2 -2 0 0 0 0];

internalField   nonuniform List<scalar> 
1826
(
2.28739
2.28705
2.28617
2.28481
2.2831
2.28112
2.27892
2.27651
2.27394
2.27122
2.26839
2.26546
2.26244
2.25935
2.25619
2.25297
2.24969
2.24636
2.24299
2.23958
2.23614
2.23266
2.22916
2.22563
2.22207
2.21851
2.21492
2.21133
2.20774
2.20414
2.20055
2.19697
2.1934
2.18985
2.18632
2.18282
2.17936
2.17594
2.17257
2.16924
2.16597
2.16276
2.15962
2.15654
2.15354
2.1506
2.14775
2.14498
2.14229
2.13968
2.13715
2.13471
2.13236
2.13009
2.12791
2.12582
2.12382
2.1219
2.12008
2.11835
2.11671
2.11518
2.11374
2.11242
2.1112
2.11011
2.10915
2.10833
2.10767
2.10718
2.10689
2.10682
2.10699
2.10744
2.10819
2.10929
2.11078
2.11272
2.11516
2.11817
2.12183
2.12622
2.13143
2.13757
2.14473
2.15304
2.1626
2.1735
2.18579
2.19948
2.21444
2.23037
2.24666
2.26215
2.27483
2.28095
2.27454
2.24139
2.16355
1.94797
1.53067
-0.0552038
2.28975
2.28935
2.28833
2.28676
2.28483
2.28264
2.28024
2.27766
2.27493
2.27208
2.26913
2.2661
2.263
2.25983
2.25661
2.25333
2.25001
2.24664
2.24323
2.23979
2.23631
2.2328
2.22927
2.22571
2.22213
2.21854
2.21493
2.21131
2.20769
2.20406
2.20044
2.19683
2.19323
2.18965
2.18609
2.18256
2.17907
2.17562
2.17222
2.16887
2.16558
2.16235
2.15918
2.15609
2.15307
2.15012
2.14726
2.14447
2.14177
2.13916
2.13663
2.13419
2.13184
2.12957
2.12738
2.12528
2.12327
2.12135
2.11951
2.11776
2.11611
2.11454
2.11307
2.11169
2.11042
2.10926
2.10821
2.10729
2.1065
2.10587
2.1054
2.10512
2.10504
2.10519
2.1056
2.10628
2.10728
2.10863
2.11037
2.11254
2.1152
2.11838
2.12214
2.12653
2.13156
2.13728
2.14366
2.15067
2.15816
2.1659
2.17345
2.18012
2.18474
2.18544
2.17921
2.16081
2.12207
2.0457
1.90896
1.64286
1.20887
0.459269
2.29267
2.29219
2.29095
2.28908
2.28685
2.28439
2.28176
2.27897
2.27605
2.27304
2.26995
2.2668
2.2636
2.26035
2.25705
2.25371
2.25033
2.24692
2.24347
2.23998
2.23647
2.23293
2.22936
2.22578
2.22217
2.21854
2.2149
2.21125
2.2076
2.20394
2.20029
2.19664
2.19301
2.18939
2.1858
2.18224
2.17871
2.17523
2.1718
2.16842
2.1651
2.16184
2.15865
2.15554
2.1525
2.14954
2.14666
2.14386
2.14115
2.13853
2.13601
2.13356
2.1312
2.12893
2.12674
2.12464
2.12262
2.12069
2.11884
2.11707
2.11539
2.11379
2.11228
2.11085
2.10951
2.10827
2.10713
2.10609
2.10517
2.10437
2.10371
2.10319
2.10284
2.10267
2.10269
2.10292
2.10338
2.10409
2.10508
2.10636
2.10795
2.10986
2.11209
2.11464
2.11747
2.12053
2.12369
2.12677
2.1295
2.13142
2.13184
2.12974
2.12362
2.11118
2.08893
2.05138
1.99045
1.89297
1.74228
1.51422
1.18658
0.808381
2.29629
2.29568
2.29409
2.29177
2.28913
2.28635
2.28344
2.2804
2.27727
2.27408
2.27085
2.26758
2.26428
2.26095
2.25759
2.25419
2.25075
2.24728
2.24379
2.24026
2.23671
2.23313
2.22953
2.2259
2.22226
2.21859
2.21491
2.21123
2.20753
2.20384
2.20015
2.19646
2.19278
2.18912
2.18548
2.18188
2.17831
2.17479
2.17132
2.16791
2.16455
2.16127
2.15805
2.15491
2.15185
2.14887
2.14598
2.14317
2.14045
2.13783
2.1353
2.13285
2.13049
2.12821
2.12602
2.12392
2.12189
2.11995
2.11809
2.1163
2.11459
2.11296
2.1114
2.10992
2.10851
2.10718
2.10594
2.10478
2.1037
2.10273
2.10185
2.10109
2.10044
2.09993
2.09955
2.0993
2.0992
2.09924
2.09944
2.0998
2.10029
2.1009
2.10159
2.10229
2.10293
2.10337
2.10341
2.10276
2.10101
2.09754
2.09148
2.08162
2.06628
2.04308
2.00859
1.95788
1.88432
1.7791
1.63112
1.42974
1.14976
0.807057
2.30077
2.29993
2.2978
2.29485
2.29168
2.2885
2.28524
2.28189
2.2785
2.27509
2.27169
2.26829
2.26488
2.26147
2.25803
2.25456
2.25107
2.24756
2.24402
2.24045
2.23687
2.23325
2.22962
2.22596
2.22228
2.21859
2.21487
2.21115
2.20742
2.20369
2.19995
2.19621
2.19249
2.18878
2.1851
2.18145
2.17784
2.17427
2.17076
2.1673
2.16391
2.16059
2.15735
2.15418
2.15109
2.14808
2.14516
2.14234
2.13961
2.137
2.13448
2.13203
2.12966
2.12738
2.12519
2.12308
2.12105
2.1191
2.11723
2.11542
2.11369
2.11202
2.11042
2.10889
2.10741
2.106
2.10464
2.10335
2.10213
2.10097
2.09987
2.09884
2.09789
2.09703
2.09624
2.09551
2.09483
2.0942
2.0936
2.09303
2.09244
2.09177
2.09094
2.08986
2.08839
2.08631
2.08339
2.07931
2.07354
2.06533
2.05369
2.03737
2.01469
1.98334
1.94017
1.88096
1.8004
1.6921
1.54789
1.36008
1.11476
0.821161
2.30647
2.30514
2.30202
2.29817
2.29444
2.29087
2.28725
2.28359
2.27995
2.27635
2.27278
2.26924
2.26573
2.26222
2.2587
2.25516
2.25161
2.24803
2.24444
2.24082
2.23718
2.23352
2.22983
2.22613
2.2224
2.21865
2.21488
2.21112
2.20736
2.20359
2.1998
2.19599
2.1922
2.18843
2.18469
2.18098
2.17732
2.17371
2.17015
2.16664
2.16319
2.15983
2.15655
2.15335
2.15024
2.14721
2.14427
2.14141
2.13865
2.13604
2.13354
2.13111
2.12875
2.12647
2.12428
2.12217
2.12014
2.11818
2.11629
2.11448
2.11272
2.11102
2.10938
2.10778
2.10624
2.10474
2.10328
2.10185
2.10046
2.09911
2.09779
2.09651
2.09527
2.09404
2.09283
2.09161
2.09036
2.08908
2.08771
2.08623
2.08458
2.08269
2.08046
2.07774
2.07442
2.07007
2.06442
2.05731
2.04813
2.03586
2.01941
1.99767
1.96932
1.93223
1.88338
1.81911
1.73522
1.62713
1.48931
1.31714
1.10617
0.862414
2.31405
2.31169
2.30673
2.30145
2.29694
2.29284
2.28877
2.28474
2.28081
2.27702
2.27333
2.26972
2.26618
2.26263
2.25904
2.25544
2.25186
2.24825
2.24463
2.24098
2.23731
2.23362
2.2299
2.22616
2.22239
2.21859
2.21475
2.21091
2.20713
2.20335
2.19951
2.19564
2.19179
2.18797
2.18417
2.18041
2.17669
2.17302
2.16942
2.16586
2.16236
2.15895
2.15563
2.1524
2.14926
2.14621
2.14326
2.14041
2.13767
2.13504
2.13251
2.13007
2.12771
2.12544
2.12326
2.12116
2.11913
2.11718
2.1153
2.11347
2.1117
2.10998
2.1083
2.10666
2.10505
2.10347
2.10191
2.10036
2.09882
2.09728
2.09575
2.09422
2.09268
2.09109
2.08947
2.08778
2.08598
2.08406
2.08196
2.07964
2.07701
2.07399
2.07047
2.06626
2.06117
2.0549
2.04713
2.03755
2.02576
2.01066
1.99074
1.96477
1.93208
1.89121
1.83908
1.77191
1.68695
1.58179
1.45231
1.29523
1.10914
0.897092
2.32429
2.31977
2.31232
2.3058
2.30062
2.29589
2.2912
2.28672
2.28248
2.27845
2.27452
2.27075
2.26717
2.26355
2.25986
2.25617
2.25248
2.2488
2.24511
2.24141
2.23768
2.23393
2.23015
2.22637
2.22257
2.21875
2.2149
2.21104
2.20716
2.20325
2.19931
2.19537
2.19145
2.18755
2.18368
2.17985
2.17606
2.17233
2.16866
2.16505
2.16152
2.15807
2.15471
2.15144
2.14827
2.1452
2.14223
2.13936
2.13661
2.13396
2.13141
2.12897
2.12662
2.12436
2.12219
2.1201
2.11809
2.11615
2.11426
2.11243
2.11065
2.10891
2.1072
2.10552
2.10385
2.10219
2.10053
2.09887
2.0972
2.09549
2.09376
2.092
2.09019
2.08832
2.08637
2.08427
2.082
2.07952
2.07679
2.07373
2.07027
2.0663
2.06168
2.05624
2.04975
2.04193
2.03246
2.02094
2.00686
1.98939
1.9673
1.93945
1.90483
1.86208
1.80948
1.74143
1.65583
1.55414
1.43247
1.28741
1.11827
0.927376
2.33941
2.32621
2.31362
2.30672
2.30175
2.29674
2.29176
2.2871
2.28283
2.27881
2.27494
2.27118
2.26751
2.26384
2.26014
2.25644
2.25275
2.24905
2.24535
2.24162
2.23788
2.23411
2.23032
2.22652
2.2227
2.21887
2.21501
2.21112
2.20714
2.20311
2.19907
2.19506
2.19107
2.1871
2.18316
2.17926
2.17541
2.17162
2.16789
2.16423
2.16066
2.15717
2.15377
2.15049
2.1473
2.14421
2.14122
2.13835
2.1356
2.13296
2.13043
2.128
2.12567
2.12344
2.12129
2.11923
2.11724
2.11531
2.11345
2.11163
2.10986
2.10811
2.10639
2.10469
2.10299
2.10128
2.09956
2.0978
2.09604
2.09425
2.09239
2.09046
2.08845
2.08634
2.08412
2.08173
2.07914
2.07629
2.07312
2.06957
2.06553
2.06091
2.05556
2.0493
2.0419
2.03307
2.02244
2.00958
1.99394
1.97476
1.9511
1.92189
1.88593
1.84183
1.78803
1.72104
1.63861
1.54052
1.42434
1.28773
1.13023
0.953622
2.37501
2.34148
2.31933
2.31001
2.30454
2.29899
2.29348
2.28846
2.28397
2.2798
2.2758
2.27192
2.26812
2.26437
2.26063
2.25689
2.25315
2.24942
2.24567
2.24191
2.23813
2.23432
2.2305
2.22666
2.22281
2.21895
2.21509
2.2112
2.20718
2.20304
2.19893
2.19487
2.19084
2.18682
2.18285
2.17891
2.17503
2.1712
2.16744
2.16376
2.16016
2.15665
2.15324
2.14993
2.14673
2.14364
2.14066
2.13779
2.13504
2.13241
2.12988
2.12746
2.12514
2.12292
2.12079
2.11874
2.11676
2.11485
2.11299
2.11119
2.10943
2.10769
2.10598
2.10428
2.10258
2.10087
2.09915
2.09739
2.09559
2.09376
2.09188
2.08993
2.0879
2.08576
2.08348
2.08103
2.07837
2.07544
2.07219
2.06854
2.0644
2.05966
2.05417
2.04774
2.04015
2.03111
2.02027
2.00716
1.99123
1.97177
1.94788
1.91843
1.88207
1.8374
1.78323
1.71734
1.63716
1.54108
1.42757
1.29514
1.14332
0.973459
-3.18347
-1.99765
-1.21034
-1.24772
-1.24866
-1.24441
-1.23676
-1.22609
-1.21032
-1.18675
-1.15749
-1.12488
-1.0909
-1.0568
-1.02403
-0.993752
-0.966929
-0.943668
-0.922779
-0.90284
-0.882547
-0.860676
-0.836107
-0.808028
-0.776243
-0.740849
-0.704029
-0.668122
-0.634825
-0.60502
-0.685873
-0.862256
-0.959549
-1.17184
-1.22877
-1.22701
-1.22304
-1.22357
-1.21539
-1.19159
-1.15993
-1.12711
-1.0937
-1.0588
-1.02476
-0.993493
-0.966682
-0.944729
-0.926292
-0.90833
-0.888811
-0.867093
-0.842562
-0.814238
-0.781556
-0.745286
-0.707955
-0.671791
-0.638233
-0.608124
0.0934311
-0.441317
-0.722868
-0.938683
-1.05999
-1.11391
-1.14584
-1.16716
-1.172
-1.16085
-1.14128
-1.11452
-1.08005
-1.04529
-1.01331
-0.983982
-0.958077
-0.936003
-0.916362
-0.897161
-0.877063
-0.855545
-0.831907
-0.804922
-0.7744
-0.740961
-0.706589
-0.673214
-0.641799
0.296935
-0.143177
-0.398155
-0.598407
-0.747506
-0.849079
-0.92879
-0.984204
-1.01548
-1.02854
-1.02962
-1.02004
-1.00459
-0.988589
-0.970188
-0.950379
-0.931077
-0.913283
-0.896272
-0.879123
-0.860908
-0.840914
-0.81861
-0.793655
-0.765989
-0.736179
-0.705465
-0.675347
-0.64712
0.469216
0.136349
-0.105344
-0.306918
-0.482744
-0.624218
-0.735493
-0.817952
-0.872847
-0.908363
-0.932477
-0.945417
-0.948861
-0.944724
-0.933989
-0.921576
-0.90805
-0.893645
-0.878548
-0.862566
-0.845193
-0.82595
-0.804757
-0.781606
-0.756334
-0.730027
-0.70293
-0.676112
-0.651036
0.591288
0.317717
0.079779
-0.123708
-0.304888
-0.455466
-0.576672
-0.672015
-0.745607
-0.800539
-0.840396
-0.866593
-0.880876
-0.885943
-0.8866
-0.883186
-0.876214
-0.866545
-0.854971
-0.841648
-0.82652
-0.80946
-0.790464
-0.769591
-0.747035
-0.723377
-0.699219
-0.675429
-0.652794
0.66533
0.427576
0.205201
0.00729187
-0.169588
-0.322836
-0.451724
-0.558329
-0.645064
-0.713117
-0.764597
-0.802024
-0.827296
-0.843354
-0.852306
-0.855374
-0.853435
-0.84763
-0.838744
-0.827397
-0.813871
-0.798233
-0.780645
-0.761308
-0.740526
-0.718696
-0.696633
-0.674914
-0.654044
0.720613
0.507686
0.301134
0.109409
-0.0658046
-0.222402
-0.358385
-0.473721
-0.569415
-0.646433
-0.706603
-0.752159
-0.785212
-0.80783
-0.822233
-0.829918
-0.831804
-0.829009
-0.822491
-0.813044
-0.801034
-0.786727
-0.770453
-0.752564
-0.73344
-0.713528
-0.693372
-0.673429
-0.654105
0.762728
0.564321
0.366504
0.177715
0.00285859
-0.15534
-0.294897
-0.414893
-0.516015
-0.599276
-0.665237
-0.716163
-0.754224
-0.781717
-0.8003
-0.81136
-0.816069
-0.815545
-0.810892
-0.802819
-0.791846
-0.778443
-0.763038
-0.746063
-0.727959
-0.709153
-0.690091
-0.671199
-0.652848
0.789634
0.597588
0.404045
0.216607
0.0411089
-0.118809
-0.260916
-0.38408
-0.488074
-0.573754
-0.643545
-0.698527
-0.74031
-0.770311
-0.790379
-0.802467
-0.808294
-0.808871
-0.805054
-0.797573
-0.787072
-0.774109
-0.759157
-0.742664
-0.725071
-0.706805
-0.688291
-0.66993
-0.652072
2.28198
2.28173
2.28111
2.28013
2.28198
2.28173
2.28111
2.28013
2.27885
2.27731
2.27553
2.27353
2.27133
2.26895
2.26641
2.26374
2.26095
2.25806
2.25507
2.252
2.24885
2.24565
2.24238
2.23907
2.23571
2.23231
2.22888
2.22543
2.22195
2.21845
2.21494
2.21141
2.20789
2.20436
2.20084
2.19733
2.19383
2.19035
2.1869
2.18347
2.18007
2.17672
2.17341
2.17014
2.16692
2.16376
2.16066
2.15763
2.15465
2.15175
2.14892
2.14617
2.14349
2.14089
2.13837
2.13594
2.13359
2.13132
2.12914
2.12706
2.12506
2.12316
2.12137
2.11967
2.11808
2.11661
2.11526
2.11404
2.11296
2.11204
2.11129
2.11072
2.11037
2.11026
2.11039
2.11084
2.11165
2.11285
2.11452
2.11671
2.11951
2.12303
2.12738
2.1327
2.13916
2.14696
2.15634
2.16759
2.18105
2.19716
2.21642
2.23944
2.26696
2.29989
2.33928
2.38641
2.44272
2.50982
2.58933
2.68266
2.79042
2.91148
3.04142
3.17048
3.28109
3.34987
2.28232
2.28207
2.28143
2.28043
2.27913
2.27757
2.27576
2.27373
2.27151
2.26911
2.26655
2.26386
2.26106
2.25815
2.25515
2.25207
2.24891
2.2457
2.24242
2.2391
2.23574
2.23234
2.2289
2.22544
2.22196
2.21845
2.21494
2.21141
2.20788
2.20435
2.20083
2.19731
2.19381
2.19032
2.18686
2.18343
2.18003
2.17667
2.17336
2.17009
2.16687
2.16371
2.1606
2.15757
2.15459
2.15169
2.14886
2.1461
2.14343
2.14083
2.13831
2.13588
2.13353
2.13127
2.12909
2.12701
2.12502
2.12312
2.12133
2.11963
2.11805
2.11657
2.11522
2.114
2.11292
2.112
2.11124
2.11067
2.11031
2.11017
2.11029
2.11072
2.1115
2.11267
2.11428
2.11642
2.11915
2.12258
2.12682
2.13201
2.13829
2.14588
2.15499
2.16591
2.17896
2.19453
2.21311
2.23527
2.2617
2.29321
2.3308
2.37559
2.4289
2.49215
2.56679
2.65402
2.75435
2.86674
2.98718
3.10682
3.20948
3.27292
2.28301
2.28275
2.28209
2.28104
2.27969
2.27807
2.27622
2.27414
2.27186
2.26942
2.26682
2.2641
2.26127
2.25833
2.2553
2.2522
2.24903
2.2458
2.24251
2.23918
2.2358
2.23239
2.22894
2.22547
2.22198
2.21846
2.21494
2.2114
2.20786
2.20432
2.20079
2.19726
2.19375
2.19026
2.18679
2.18335
2.17994
2.17658
2.17325
2.16997
2.16675
2.16358
2.16047
2.15743
2.15445
2.15155
2.14871
2.14596
2.14328
2.14068
2.13816
2.13573
2.13338
2.13112
2.12895
2.12686
2.12487
2.12297
2.12118
2.11948
2.11789
2.11641
2.11505
2.11382
2.11272
2.11178
2.111
2.1104
2.10999
2.1098
2.10987
2.11024
2.11094
2.11201
2.1135
2.11549
2.11805
2.12127
2.12525
2.13012
2.13602
2.14313
2.15165
2.16184
2.17399
2.18844
2.2056
2.22598
2.25015
2.27879
2.3127
2.35278
2.40004
2.45553
2.52024
2.59492
2.67964
2.77314
2.87176
2.96793
3.04726
3.09144
2.28407
2.28379
2.28308
2.28197
2.28053
2.27884
2.2769
2.27474
2.27239
2.26988
2.26723
2.26445
2.26157
2.25859
2.25553
2.2524
2.2492
2.24594
2.24264
2.23928
2.23589
2.23246
2.229
2.22551
2.222
2.21848
2.21494
2.21139
2.20783
2.20428
2.20073
2.19719
2.19366
2.19016
2.18667
2.18322
2.1798
2.17642
2.17308
2.16979
2.16656
2.16338
2.16026
2.15721
2.15423
2.15132
2.14848
2.14572
2.14304
2.14044
2.13792
2.13548
2.13314
2.13087
2.1287
2.12661
2.12462
2.12272
2.12092
2.11921
2.11761
2.11612
2.11474
2.11349
2.11237
2.11139
2.11056
2.1099
2.10943
2.10917
2.10916
2.10941
2.10998
2.11089
2.1122
2.11396
2.11625
2.11914
2.12272
2.1271
2.13242
2.13881
2.14646
2.15558
2.16639
2.17919
2.19429
2.21208
2.23299
2.25749
2.28613
2.31946
2.35805
2.40234
2.4526
2.50859
2.56924
2.63179
2.6909
2.73462
2.74391
2.6609
2.28551
2.28521
2.28443
2.28322
2.28167
2.27985
2.2778
2.27553
2.27309
2.27049
2.26775
2.26491
2.26196
2.25893
2.25583
2.25266
2.24942
2.24613
2.2428
2.23942
2.236
2.23255
2.22907
2.22557
2.22204
2.21849
2.21494
2.21137
2.2078
2.20422
2.20066
2.1971
2.19355
2.19003
2.18652
2.18305
2.17961
2.17621
2.17286
2.16956
2.1663
2.16311
2.15998
2.15692
2.15393
2.15101
2.14816
2.1454
2.14271
2.14011
2.13759
2.13515
2.1328
2.13053
2.12836
2.12627
2.12427
2.12237
2.12055
2.11884
2.11722
2.11571
2.11431
2.11302
2.11186
2.11083
2.10994
2.10921
2.10865
2.10829
2.10816
2.10827
2.10866
2.10936
2.11041
2.11188
2.1138
2.11626
2.11932
2.12308
2.12763
2.13311
2.13964
2.14738
2.1565
2.16721
2.17973
2.19429
2.21115
2.23055
2.25271
2.27778
2.30573
2.33627
2.36857
2.40085
2.42985
2.44891
2.44851
2.40055
2.30425
1.83617
)
;

boundaryField
{
    inlet
    {
        type            zeroGradient;
    }
    outlet
    {
        type            fixedValue;
        value           nonuniform List<scalar> 0();
    }
    topWall
    {
        type            zeroGradient;
    }
    lowerWall
    {
        type            zeroGradient;
    }
    leadingEdge
    {
        type            zeroGradient;
    }
    trailingEdge
    {
        type            zeroGradient;
    }
    upperSurface
    {
        type            zeroGradient;
    }
    lowerSurface
    {
        type            zeroGradient;
    }
    frontAndBack
    {
        type            empty;
    }
    procBoundary4to0
    {
        type            processor;
        value           nonuniform List<scalar> 
103
(
2.28232
2.28207
2.28143
2.28043
2.27885
2.27885
2.27731
2.27553
2.27353
2.27133
2.26895
2.26641
2.26374
2.26095
2.25806
2.25507
2.252
2.24885
2.24564
2.24238
2.23907
2.23571
2.23231
2.22888
2.22542
2.22194
2.21845
2.21493
2.21141
2.20788
2.20436
2.20084
2.19732
2.19383
2.19035
2.18689
2.18346
2.18007
2.17671
2.1734
2.17013
2.16691
2.16375
2.16065
2.15761
2.15464
2.15173
2.1489
2.14614
2.14346
2.14086
2.13834
2.1359
2.13355
2.13128
2.1291
2.127
2.12501
2.1231
2.1213
2.11959
2.118
2.11652
2.11516
2.11392
2.11284
2.1119
2.11114
2.11056
2.11019
2.11005
2.11016
2.11059
2.11138
2.11256
2.11419
2.11635
2.11912
2.12259
2.1269
2.13217
2.13857
2.14631
2.15562
2.16679
2.18017
2.19618
2.21533
2.23823
2.26561
2.29839
2.33761
2.38454
2.44062
2.50746
2.58669
2.67968
2.78705
2.90769
3.03715
3.16573
3.2759
3.34438
)
;
    }
    procBoundary4to5
    {
        type            processor;
        value           nonuniform List<scalar> 
11
(
-0.579164
-0.582009
-0.613314
-0.613314
-0.621399
-0.627902
-0.631632
-0.634398
-0.635739
-0.635344
-0.634999
)
;
    }
}


// ************************************************************************* //
