/*--------------------------------*- C++ -*----------------------------------*\
| =========                 |                                                 |
| \\      /  F ield         | OpenFOAM: The Open Source CFD Toolbox           |
|  \\    /   O peration     | Version:  2206                                  |
|   \\  /    A nd           | Website:  www.openfoam.com                      |
|    \\/     M anipulation  |                                                 |
\*---------------------------------------------------------------------------*/
FoamFile
{
    version     2.0;
    format      ascii;
    arch        "LSB;label=32;scalar=64";
    class       volScalarField;
    location    "19.7001";
    object      p;
}
// * * * * * * * * * * * * * * * * * * * * * * * * * * * * * * * * * * * * * //

dimensions      [0 2 -2 0 0 0 0];

internalField   nonuniform List<scalar> 
3080
(
0.791714
0.791612
0.791349
0.790934
0.790387
0.78972
0.788932
0.788029
0.787015
0.7859
0.784689
0.783389
0.782007
0.780549
0.779022
0.777431
0.775782
0.77408
0.772331
0.77054
0.768711
0.76685
0.76496
0.763046
0.761112
0.759162
0.757201
0.755233
0.753261
0.751291
0.749326
0.74737
0.745427
0.743502
0.741598
0.739719
0.73787
0.736056
0.734279
0.732545
0.730858
0.729221
0.72764
0.726118
0.72466
0.72327
0.721953
0.720713
0.719555
0.718484
0.717505
0.716623
0.715846
0.715177
0.714624
0.714194
0.713896
0.713737
0.713734
0.713897
0.714236
0.714764
0.715497
0.716453
0.717651
0.719114
0.720867
0.722938
0.725358
0.728164
0.731394
0.735096
0.739319
0.744121
0.749568
0.755733
0.762698
0.770557
0.779414
0.789387
0.800608
0.813222
0.827391
0.843292
0.861115
0.881058
0.903324
0.928102
0.955548
0.985744
1.01864
1.05393
1.09095
1.12828
1.16342
1.19162
1.2058
1.18708
1.13226
0.832913
0.791172
0.791073
0.790818
0.790414
0.789883
0.789233
0.788466
0.787584
0.786593
0.785501
0.784314
0.783039
0.78168
0.780245
0.77874
0.777171
0.775543
0.773861
0.772131
0.770358
0.768546
0.766701
0.764827
0.762928
0.761009
0.759074
0.757127
0.755172
0.753213
0.751255
0.749303
0.747359
0.745428
0.743513
0.74162
0.739752
0.737914
0.736109
0.734342
0.732617
0.730938
0.72931
0.727737
0.726223
0.724772
0.723389
0.722079
0.720847
0.719696
0.718633
0.717663
0.716792
0.716025
0.715369
0.714832
0.714418
0.714139
0.714002
0.714023
0.714216
0.714592
0.715162
0.715945
0.71696
0.718227
0.719771
0.721619
0.723801
0.726351
0.729309
0.732718
0.736629
0.741097
0.746189
0.751976
0.758542
0.765983
0.774406
0.783934
0.794708
0.806888
0.820658
0.836223
0.85382
0.873714
0.896201
0.921608
0.95029
0.982619
1.01897
1.05966
1.10494
1.15482
1.20893
1.26623
1.32439
1.37917
1.42174
1.43838
1.38834
0.790764
0.790667
0.790417
0.790022
0.789502
0.788865
0.788112
0.787246
0.786272
0.785197
0.784027
0.782769
0.781428
0.78001
0.778521
0.776968
0.775354
0.773687
0.771971
0.770211
0.768412
0.766579
0.764716
0.762828
0.76092
0.758994
0.757057
0.755111
0.753161
0.751212
0.749267
0.747331
0.745408
0.743501
0.741615
0.739753
0.737921
0.736122
0.73436
0.73264
0.730966
0.729342
0.727773
0.726262
0.724814
0.723434
0.722127
0.720897
0.719749
0.718689
0.717722
0.716854
0.716091
0.715441
0.714911
0.714507
0.714238
0.714111
0.714143
0.714352
0.714749
0.715346
0.71616
0.717211
0.718523
0.72012
0.72203
0.724287
0.726926
0.729989
0.733522
0.737581
0.742225
0.747524
0.753558
0.760418
0.768209
0.777051
0.787081
0.798459
0.811368
0.82602
0.842661
0.861574
0.883085
0.907573
0.935469
0.967265
1.00351
1.04482
1.09183
1.14516
1.20535
1.27267
1.34681
1.42644
1.50837
1.58657
1.65011
1.68528
0.790487
0.790392
0.790145
0.789755
0.789242
0.788613
0.787869
0.787013
0.78605
0.784986
0.783828
0.782581
0.781251
0.779844
0.778366
0.776822
0.775218
0.77356
0.771852
0.770101
0.768309
0.766484
0.764628
0.762746
0.760843
0.758924
0.756991
0.75505
0.753106
0.751161
0.74922
0.747288
0.745368
0.743464
0.741581
0.739722
0.737892
0.736094
0.734334
0.732615
0.730941
0.729317
0.727747
0.726236
0.724787
0.723405
0.722096
0.720864
0.719713
0.71865
0.71768
0.716809
0.716044
0.715391
0.714859
0.714455
0.714188
0.714065
0.714093
0.714302
0.714704
0.715309
0.716134
0.717199
0.718529
0.720149
0.722089
0.724382
0.727066
0.730184
0.733785
0.737925
0.742669
0.748088
0.754268
0.761304
0.769308
0.778408
0.788752
0.800512
0.813888
0.829112
0.846455
0.866236
0.888825
0.914656
0.944237
0.978155
1.01709
1.06181
1.11317
1.17204
1.23926
1.31541
1.40049
1.49328
1.59035
1.68478
1.76441
1.81276
0.790339
0.790244
0.789999
0.789612
0.789102
0.788477
0.787738
0.786886
0.785928
0.78487
0.783716
0.782474
0.781149
0.779747
0.778273
0.776734
0.775134
0.77348
0.771776
0.770027
0.768238
0.766415
0.764561
0.762682
0.760781
0.758862
0.756931
0.754991
0.753047
0.751102
0.749162
0.74723
0.745309
0.743404
0.74152
0.739659
0.737827
0.736027
0.734264
0.732542
0.730864
0.729236
0.727662
0.726145
0.72469
0.723303
0.721987
0.720747
0.719589
0.718517
0.717538
0.716658
0.715883
0.71522
0.714676
0.714262
0.713985
0.713854
0.713875
0.714068
0.714456
0.715051
0.715866
0.716921
0.718242
0.719855
0.721789
0.724078
0.726762
0.729883
0.733491
0.737645
0.742408
0.747856
0.754074
0.761162
0.769234
0.778421
0.788878
0.800782
0.81434
0.829796
0.847434
0.867588
0.890652
0.917088
0.947441
0.982348
1.02255
1.0689
1.12235
1.18389
1.2545
1.33488
1.42509
1.52387
1.6275
1.72846
1.81362
1.866
0.900293
0.866432
0.844299
0.835319
0.83018
0.825002
0.819917
0.815416
0.811518
0.807994
0.804692
0.801555
0.79854
0.795606
0.792732
0.789908
0.787122
0.784361
0.781613
0.778869
0.776125
0.773375
0.770617
0.767849
0.765071
0.762287
0.759463
0.75646
0.753309
0.750176
0.747074
0.743976
0.740882
0.737803
0.734749
0.731731
0.728758
0.725842
0.722997
0.720231
0.717557
0.71498
0.712508
0.710151
0.707914
0.7058
0.703809
0.701938
0.700183
0.698538
0.696995
0.695542
0.69417
0.692864
0.69161
0.690394
0.689199
0.688008
0.686808
0.685581
0.684325
0.683037
0.681694
0.680277
0.678768
0.677143
0.675382
0.673456
0.671346
0.669021
0.666449
0.663599
0.660434
0.656914
0.65299
0.648611
0.643717
0.638242
0.632111
0.625241
0.617538
0.6089
0.599213
0.588355
0.576192
0.562582
0.547368
0.530388
0.511473
0.490452
0.467158
0.441443
0.413194
0.38234
0.349011
0.313295
0.275076
0.234406
0.19153
0.146859
0.864859
0.85139
0.838772
0.832104
0.827388
0.822726
0.818149
0.813996
0.810292
0.806905
0.803739
0.800744
0.797826
0.79495
0.792124
0.78935
0.786612
0.783895
0.781188
0.778482
0.775776
0.773064
0.770346
0.767612
0.76486
0.762078
0.759245
0.756312
0.753289
0.750245
0.747208
0.744171
0.741136
0.73811
0.735107
0.732134
0.729206
0.726336
0.723533
0.720807
0.718179
0.715637
0.713175
0.710823
0.708595
0.706489
0.704502
0.702631
0.700871
0.699217
0.697661
0.696194
0.694808
0.693486
0.692214
0.690976
0.68976
0.688548
0.687336
0.686098
0.684856
0.683568
0.682206
0.680775
0.679249
0.677606
0.675831
0.673912
0.671807
0.669478
0.666902
0.664052
0.66089
0.657372
0.653453
0.649083
0.644199
0.638735
0.632613
0.62575
0.618051
0.609411
0.599715
0.58884
0.576654
0.56301
0.547749
0.530704
0.511697
0.490544
0.467067
0.441133
0.412653
0.381588
0.347961
0.311789
0.27306
0.231882
0.188464
0.143272
0.849547
0.844868
0.837394
0.830984
0.826083
0.821695
0.817446
0.81346
0.809784
0.806334
0.803132
0.800212
0.797341
0.794464
0.79163
0.788855
0.786126
0.783427
0.78074
0.778049
0.775357
0.772664
0.769961
0.767244
0.764512
0.761771
0.758998
0.756152
0.753239
0.7503
0.74736
0.744425
0.741497
0.738582
0.735687
0.732816
0.72998
0.727206
0.724499
0.721863
0.719306
0.716827
0.714432
0.712136
0.709951
0.70788
0.70592
0.704064
0.702309
0.700652
0.699088
0.69761
0.696208
0.69487
0.693584
0.692336
0.691113
0.689899
0.688686
0.687464
0.686221
0.684939
0.683606
0.682213
0.680737
0.679169
0.677477
0.675646
0.673617
0.671375
0.668904
0.666173
0.663142
0.659766
0.656
0.651788
0.647068
0.641769
0.635812
0.629109
0.621562
0.613069
0.603513
0.592767
0.580693
0.567137
0.551931
0.534904
0.515881
0.494581
0.470784
0.444368
0.415281
0.383575
0.3492
0.312074
0.272237
0.229868
0.185248
0.138782
0.839016
0.836602
0.831642
0.826468
0.822208
0.818456
0.814808
0.811258
0.807906
0.804748
0.80176
0.79891
0.796115
0.793345
0.790617
0.787935
0.785287
0.782657
0.780031
0.777405
0.774776
0.772139
0.769481
0.766803
0.764093
0.761414
0.758755
0.756014
0.753204
0.750369
0.747533
0.744702
0.74188
0.739073
0.736293
0.733541
0.730817
0.728135
0.725516
0.722966
0.720491
0.718093
0.715779
0.713553
0.711432
0.709426
0.707524
0.705706
0.703973
0.702331
0.700778
0.699308
0.697913
0.696583
0.695309
0.694076
0.69287
0.691678
0.690487
0.689293
0.688086
0.68686
0.685594
0.684284
0.682902
0.681414
0.679827
0.678106
0.676214
0.674131
0.671835
0.669293
0.666465
0.663309
0.659775
0.655809
0.651346
0.646312
0.640619
0.634174
0.62686
0.618596
0.609297
0.598793
0.586902
0.573465
0.558324
0.541314
0.52231
0.50081
0.476545
0.449384
0.419278
0.386618
0.351289
0.312987
0.271724
0.227739
0.181359
0.13299
0.83108
0.829738
0.826654
0.822938
0.819451
0.816207
0.813004
0.809821
0.806736
0.803773
0.800909
0.798121
0.795392
0.792701
0.790041
0.787408
0.784797
0.782195
0.7796
0.777009
0.77442
0.771825
0.769219
0.766601
0.763972
0.761345
0.758704
0.756017
0.753289
0.750545
0.747801
0.74506
0.742327
0.739611
0.736921
0.734267
0.731647
0.729062
0.726532
0.724064
0.721664
0.719338
0.717091
0.714918
0.712835
0.710889
0.709057
0.70729
0.705592
0.703974
0.702441
0.700986
0.699605
0.698297
0.697051
0.695843
0.694655
0.693488
0.692339
0.691201
0.690061
0.688907
0.687724
0.686503
0.685221
0.68386
0.682412
0.680849
0.679138
0.677257
0.675179
0.672874
0.670303
0.667424
0.664189
0.660542
0.656417
0.651743
0.646414
0.640347
0.633341
0.625354
0.616427
0.606303
0.594744
0.581575
0.566622
0.549675
0.53049
0.508744
0.484208
0.456744
0.426275
0.392796
0.35616
0.316234
0.273091
0.226982
0.178261
0.127388
0.824939
0.824123
0.82206
0.819263
0.816343
0.81349
0.810647
0.80779
0.804962
0.802195
0.79949
0.796838
0.794227
0.791645
0.789083
0.786537
0.784004
0.781478
0.778957
0.776436
0.773911
0.77138
0.768839
0.766285
0.763718
0.761138
0.758544
0.755927
0.753289
0.750638
0.747984
0.745334
0.742694
0.740071
0.737472
0.734905
0.732372
0.72988
0.727438
0.725058
0.722741
0.720494
0.71832
0.716229
0.714227
0.712328
0.710517
0.708779
0.707114
0.705531
0.704028
0.702597
0.701234
0.699952
0.698759
0.697608
0.696462
0.695337
0.694244
0.69317
0.692105
0.691035
0.689947
0.688837
0.687671
0.68644
0.68515
0.683767
0.682258
0.6806
0.678769
0.676733
0.674457
0.671898
0.669007
0.665728
0.661994
0.657728
0.652836
0.64722
0.640757
0.633363
0.624936
0.615269
0.604147
0.591375
0.576746
0.560018
0.540929
0.519196
0.494549
0.466758
0.435635
0.401039
0.362866
0.321072
0.275729
0.227068
0.175474
0.121481
0.81994
0.819366
0.817878
0.815739
0.813354
0.810916
0.808432
0.805896
0.803336
0.800787
0.798259
0.795753
0.793262
0.790783
0.788312
0.785846
0.783384
0.780923
0.77846
0.775992
0.773518
0.771036
0.768543
0.766039
0.763522
0.760995
0.758456
0.755904
0.753339
0.750763
0.748187
0.745616
0.743057
0.740516
0.737999
0.735512
0.733061
0.730651
0.728292
0.72599
0.72375
0.721576
0.719472
0.717445
0.715499
0.713638
0.711861
0.710163
0.708543
0.707001
0.705537
0.704147
0.702829
0.701586
0.700411
0.699283
0.698184
0.697121
0.696095
0.695097
0.694115
0.69314
0.692161
0.691169
0.690147
0.689086
0.687975
0.686788
0.685502
0.684095
0.682543
0.680815
0.678877
0.676687
0.674198
0.671354
0.66809
0.664329
0.659984
0.654953
0.649123
0.642367
0.634544
0.625477
0.614962
0.602772
0.588664
0.572368
0.553589
0.53201
0.507313
0.479199
0.447409
0.411731
0.372017
0.32819
0.280304
0.22859
0.173484
0.115623
0.815734
0.8153
0.814174
0.812503
0.810543
0.808448
0.806257
0.803982
0.80165
0.799291
0.796923
0.794552
0.792178
0.789802
0.787423
0.785041
0.782655
0.780265
0.777867
0.775462
0.773048
0.770625
0.76819
0.765745
0.763288
0.76082
0.758342
0.755854
0.753356
0.750853
0.748351
0.745856
0.743374
0.74091
0.73847
0.73606
0.733685
0.731352
0.729066
0.726834
0.724661
0.722551
0.720509
0.71854
0.716647
0.714835
0.713102
0.711449
0.709872
0.708372
0.706948
0.705598
0.704321
0.703114
0.701973
0.700889
0.699852
0.69886
0.697909
0.696993
0.696105
0.695236
0.694378
0.693522
0.692657
0.69177
0.690848
0.689876
0.688834
0.687699
0.68645
0.685057
0.683488
0.681705
0.679661
0.677303
0.674568
0.671382
0.667657
0.663292
0.65817
0.652157
0.645099
0.636816
0.62709
0.615673
0.602292
0.586641
0.568385
0.547161
0.522591
0.494301
0.461939
0.425194
0.383824
0.337692
0.286819
0.231444
0.17206
0.109426
0.812128
0.811784
0.810895
0.809546
0.807909
0.806098
0.80416
0.802118
0.799997
0.797823
0.795615
0.793382
0.791131
0.788863
0.786582
0.784287
0.781981
0.779662
0.777332
0.774989
0.772635
0.770268
0.767889
0.765498
0.763096
0.760683
0.758261
0.755831
0.753396
0.750958
0.748524
0.746098
0.743685
0.741291
0.73892
0.73658
0.734274
0.732009
0.72979
0.727623
0.725512
0.723463
0.72148
0.719566
0.717725
0.71596
0.714272
0.712661
0.711125
0.709666
0.708283
0.706975
0.705741
0.704578
0.703483
0.702452
0.701478
0.700555
0.699681
0.698852
0.698064
0.697308
0.696578
0.695867
0.695165
0.694463
0.693749
0.693011
0.69223
0.69139
0.690468
0.689439
0.688274
0.686938
0.685387
0.683572
0.681433
0.678897
0.675881
0.672284
0.667988
0.662856
0.656725
0.649402
0.640658
0.630228
0.617809
0.603059
0.585593
0.564986
0.540783
0.512511
0.479703
0.441924
0.398811
0.350124
0.295816
0.236104
0.171535
0.103021
0.808995
0.808713
0.807984
0.806864
0.805475
0.8039
0.802179
0.800338
0.798401
0.796393
0.794331
0.792228
0.790091
0.787926
0.785736
0.783524
0.781294
0.779045
0.77678
0.774499
0.772203
0.769893
0.767569
0.765232
0.762885
0.760527
0.758161
0.755789
0.753413
0.751038
0.748666
0.746304
0.743956
0.741627
0.739321
0.737045
0.734804
0.732602
0.730445
0.728339
0.726287
0.724294
0.722364
0.720502
0.71871
0.716991
0.715347
0.713779
0.712286
0.710869
0.709529
0.708265
0.707076
0.70596
0.704917
0.703942
0.703032
0.702182
0.701391
0.700656
0.699973
0.699337
0.698743
0.698185
0.697657
0.69715
0.696656
0.696165
0.695662
0.695133
0.69456
0.693921
0.69319
0.692336
0.691321
0.690099
0.688614
0.6868
0.684575
0.681843
0.678487
0.674368
0.669317
0.663136
0.655585
0.64638
0.635191
0.621634
0.605269
0.585596
0.562067
0.534091
0.501056
0.462364
0.417482
0.366007
0.307761
0.2429
0.172017
0.0962125
0.806247
0.806009
0.805395
0.804444
0.803245
0.80186
0.800321
0.798652
0.796876
0.795016
0.793089
0.791106
0.789079
0.787012
0.784912
0.782783
0.780628
0.77845
0.77625
0.774031
0.771793
0.769539
0.76727
0.764987
0.762692
0.760387
0.758075
0.755757
0.753437
0.751118
0.748805
0.746501
0.744212
0.741942
0.739696
0.737479
0.735296
0.733151
0.731051
0.728999
0.727001
0.72506
0.723181
0.721367
0.719621
0.717947
0.716345
0.714819
0.713368
0.711994
0.710697
0.709477
0.708334
0.707268
0.706278
0.705363
0.70452
0.703747
0.703042
0.702403
0.701829
0.701317
0.700863
0.700463
0.700114
0.69981
0.699545
0.699311
0.699098
0.698895
0.698689
0.698461
0.69819
0.69785
0.697409
0.696827
0.696053
0.695027
0.693675
0.691904
0.689602
0.686633
0.682828
0.677985
0.671855
0.66414
0.654481
0.642454
0.62756
0.609219
0.586771
0.559481
0.526558
0.487192
0.440607
0.386155
0.323437
0.25247
0.173856
0.08894
0.803824
0.803618
0.803088
0.802264
0.801213
0.799981
0.798594
0.797072
0.795436
0.793708
0.791902
0.790031
0.788105
0.786131
0.784117
0.782066
0.779983
0.777871
0.775734
0.773573
0.771392
0.769191
0.766974
0.764743
0.762498
0.760244
0.757982
0.755715
0.753447
0.751181
0.748921
0.746672
0.744437
0.742221
0.740029
0.737866
0.735737
0.733645
0.731597
0.729596
0.727647
0.725755
0.723922
0.722153
0.720451
0.718819
0.71726
0.715774
0.714364
0.713032
0.711778
0.710602
0.709507
0.708491
0.707557
0.706703
0.705928
0.705232
0.704614
0.704074
0.703612
0.703225
0.702914
0.702677
0.702511
0.702415
0.702384
0.702415
0.702501
0.702636
0.70281
0.70301
0.70322
0.703421
0.703586
0.703683
0.70367
0.703493
0.703087
0.702368
0.701231
0.699547
0.697153
0.693845
0.689373
0.683428
0.67563
0.665515
0.652527
0.636
0.615149
0.589071
0.556754
0.517111
0.469036
0.411525
0.34382
0.265658
0.177515
0.0810029
0.80168
0.801499
0.801033
0.800305
0.799371
0.798263
0.797001
0.795604
0.794091
0.792478
0.79078
0.78901
0.787177
0.78529
0.783355
0.781377
0.779363
0.777315
0.775238
0.773134
0.771007
0.768858
0.766691
0.764509
0.762313
0.760106
0.757892
0.755674
0.753454
0.751237
0.749026
0.746826
0.744641
0.742475
0.740333
0.738219
0.736138
0.734095
0.732093
0.730139
0.728235
0.726387
0.724597
0.72287
0.721209
0.719617
0.718097
0.71665
0.71528
0.713988
0.712776
0.711645
0.710596
0.709631
0.708752
0.707959
0.707253
0.706634
0.706104
0.705662
0.705311
0.705052
0.704884
0.70481
0.704829
0.704941
0.705148
0.705447
0.705838
0.706316
0.706879
0.707518
0.708224
0.708985
0.709782
0.71059
0.711377
0.712101
0.712706
0.713121
0.713253
0.712983
0.712158
0.710584
0.708014
0.704135
0.698555
0.690782
0.680205
0.666071
0.647467
0.623299
0.592291
0.552999
0.503872
0.443389
0.370232
0.283697
0.183886
0.0725892
0.799781
0.799619
0.799203
0.79855
0.797708
0.796701
0.795545
0.794254
0.792844
0.791332
0.78973
0.78805
0.786302
0.784494
0.782632
0.780724
0.778774
0.776786
0.774765
0.772715
0.770639
0.768539
0.76642
0.764283
0.762133
0.759971
0.757801
0.755627
0.753452
0.75128
0.749114
0.746959
0.744819
0.742698
0.7406
0.738531
0.736494
0.734494
0.732536
0.730624
0.728761
0.726953
0.725203
0.723514
0.721891
0.720336
0.718853
0.717444
0.716112
0.714859
0.713687
0.712598
0.711596
0.71068
0.709854
0.709122
0.708483
0.707941
0.707496
0.707152
0.706911
0.706776
0.706751
0.706838
0.70704
0.707361
0.707804
0.708371
0.709066
0.70989
0.710844
0.711928
0.713138
0.71447
0.715914
0.717456
0.719074
0.720739
0.722409
0.724027
0.725517
0.726776
0.727669
0.728018
0.72759
0.72608
0.723095
0.718128
0.710527
0.699467
0.683906
0.662549
0.633817
0.595836
0.546447
0.483373
0.40434
0.307964
0.193609
0.0637794
0.798101
0.797954
0.797577
0.796984
0.796215
0.795291
0.794222
0.79302
0.7917
0.790275
0.788758
0.787158
0.785486
0.783749
0.781955
0.78011
0.778219
0.776287
0.774319
0.772319
0.77029
0.768237
0.766161
0.764068
0.761959
0.759839
0.757711
0.755578
0.753443
0.751312
0.749187
0.747073
0.744974
0.742894
0.740837
0.738807
0.73681
0.734849
0.73293
0.731055
0.72923
0.727458
0.725743
0.72409
0.722501
0.720981
0.719532
0.718158
0.716861
0.715644
0.714511
0.713463
0.712504
0.711637
0.710863
0.710187
0.709614
0.709145
0.708783
0.708533
0.708399
0.708386
0.708499
0.708742
0.709123
0.709648
0.710322
0.711153
0.712148
0.713314
0.714657
0.716183
0.717897
0.719803
0.7219
0.724186
0.726653
0.729284
0.732056
0.734928
0.737847
0.740732
0.743472
0.745915
0.747853
0.749005
0.748994
0.747319
0.743312
0.736096
0.724521
0.707103
0.681944
0.646678
0.598406
0.533817
0.449027
0.341213
0.207069
0.0518328
0.796619
0.796485
0.796138
0.795593
0.794883
0.794026
0.79303
0.791904
0.79066
0.78931
0.787866
0.786338
0.784733
0.783061
0.781327
0.779539
0.777702
0.775822
0.773902
0.771948
0.769963
0.767952
0.765918
0.763864
0.761794
0.759712
0.757621
0.755525
0.753428
0.751333
0.749246
0.747168
0.745105
0.743061
0.74104
0.739047
0.737085
0.735159
0.733273
0.731432
0.72964
0.727901
0.726218
0.724596
0.723039
0.72155
0.720132
0.718789
0.717525
0.716343
0.715245
0.714235
0.713317
0.712494
0.71177
0.711148
0.710636
0.710236
0.709954
0.709793
0.709761
0.709863
0.710107
0.710501
0.711054
0.711774
0.712671
0.713757
0.715043
0.716541
0.718263
0.720222
0.722431
0.724903
0.727648
0.730676
0.733993
0.7376
0.74149
0.745647
0.750041
0.754621
0.759308
0.763985
0.768483
0.772562
0.775885
0.777983
0.778208
0.775671
0.769158
0.757027
0.737079
0.706422
0.661339
0.597293
0.508478
0.389813
0.230529
0.0376662
0.79532
0.795195
0.794873
0.794367
0.793705
0.792903
0.791966
0.790903
0.789724
0.788439
0.787058
0.785592
0.784047
0.782431
0.780752
0.779015
0.777227
0.775393
0.773517
0.771605
0.76966
0.767687
0.76569
0.763672
0.761637
0.75959
0.757533
0.75547
0.753406
0.751344
0.749289
0.747244
0.745214
0.743202
0.741212
0.73925
0.737319
0.735424
0.733569
0.731757
0.729994
0.728283
0.726629
0.725035
0.723505
0.722044
0.720654
0.71934
0.718105
0.716953
0.715887
0.714912
0.714032
0.71325
0.712571
0.712
0.711543
0.711208
0.710998
0.71092
0.710983
0.711193
0.711561
0.712096
0.712809
0.713714
0.714822
0.716149
0.717711
0.719525
0.721609
0.723984
0.726671
0.729691
0.733066
0.736819
0.740971
0.745542
0.750545
0.75599
0.761875
0.768184
0.774876
0.781882
0.789086
0.796307
0.803272
0.809582
0.814653
0.817645
0.817354
0.812059
0.799323
0.775703
0.736517
0.675508
0.584865
0.457294
0.274927
0.0486241
0.794189
0.794072
0.79377
0.793295
0.792672
0.791915
0.791028
0.790017
0.788892
0.787662
0.786336
0.784922
0.783429
0.781863
0.780231
0.77854
0.776795
0.775002
0.773166
0.771291
0.769382
0.767443
0.765479
0.763493
0.76149
0.759473
0.757446
0.755413
0.753378
0.751345
0.749319
0.747302
0.7453
0.743316
0.741354
0.739419
0.737515
0.735646
0.733816
0.73203
0.730292
0.728606
0.726976
0.725406
0.7239
0.722463
0.721097
0.719808
0.718598
0.717473
0.716436
0.715492
0.714645
0.713899
0.713261
0.712735
0.712328
0.71205
0.711906
0.711904
0.712052
0.712361
0.712841
0.713505
0.714367
0.71544
0.716743
0.718294
0.720112
0.722221
0.724644
0.727409
0.730545
0.734083
0.738058
0.742503
0.747458
0.752959
0.759044
0.765749
0.773105
0.781132
0.78984
0.799211
0.809196
0.819692
0.83052
0.841385
0.851825
0.861126
0.868207
0.871417
0.868278
0.854923
0.825713
0.771403
0.680582
0.536001
0.322313
0.0757162
0.793216
0.793106
0.79282
0.792369
0.791778
0.791057
0.790211
0.789244
0.788164
0.78698
0.7857
0.784331
0.782882
0.781359
0.779768
0.778117
0.776409
0.774652
0.77285
0.771008
0.76913
0.767222
0.765286
0.763329
0.761353
0.759362
0.757361
0.755354
0.753344
0.751336
0.749334
0.747342
0.745364
0.743403
0.741465
0.739553
0.737671
0.735824
0.734017
0.732252
0.730535
0.72887
0.72726
0.72571
0.724224
0.722807
0.721461
0.720193
0.719005
0.717903
0.71689
0.715972
0.715153
0.714439
0.713836
0.713349
0.712986
0.712756
0.71267
0.712734
0.712958
0.713353
0.713933
0.714712
0.715705
0.716931
0.718408
0.72016
0.72221
0.724586
0.727318
0.730439
0.733987
0.738003
0.74253
0.74762
0.753323
0.759699
0.766806
0.77471
0.783474
0.793163
0.803833
0.815532
0.828285
0.842085
0.856865
0.872476
0.888626
0.904817
0.920219
0.933475
0.942428
0.943366
0.930628
0.892288
0.813386
0.647425
0.369437
-0.107345
0.792394
0.792288
0.792015
0.791584
0.791018
0.790327
0.789513
0.788582
0.787539
0.786392
0.78515
0.78382
0.782408
0.780921
0.779365
0.777746
0.776071
0.774344
0.772571
0.770757
0.768906
0.767023
0.765113
0.763179
0.761226
0.759258
0.757279
0.755294
0.753305
0.751318
0.749337
0.747365
0.745406
0.743465
0.741546
0.739653
0.73779
0.735961
0.734171
0.732424
0.730723
0.729074
0.727481
0.725947
0.724477
0.723076
0.721747
0.720495
0.719324
0.71824
0.717247
0.71635
0.715554
0.714866
0.714291
0.713837
0.71351
0.713321
0.713282
0.713401
0.713689
0.714158
0.714823
0.715699
0.716806
0.718162
0.71979
0.721717
0.723969
0.726579
0.729582
0.733018
0.736931
0.741372
0.746395
0.752062
0.758443
0.765612
0.773653
0.782658
0.792726
0.803961
0.816476
0.830381
0.845785
0.862783
0.881441
0.901773
0.923705
0.947015
0.971239
0.995513
1.01835
1.03704
1.04733
1.03953
1.00151
0.872754
0.619047
-0.376053
0.101406
0.0556161
0.00937878
-0.0368356
-0.0825285
-0.127198
-0.170364
-0.211579
-0.250447
-0.286593
-0.319805
-0.34979
-0.376564
-0.400272
-0.420386
-0.436724
-0.449373
-0.458581
-0.464478
-0.467151
-0.466694
-0.463244
-0.456981
-0.448355
-0.437864
-0.42575
-0.412395
-0.398418
-0.384597
0.0973741
0.0511547
0.00447278
-0.0421648
-0.0882269
-0.133201
-0.176594
-0.217969
-0.256942
-0.293252
-0.326572
-0.356535
-0.383174
-0.40631
-0.425842
-0.44204
-0.454781
-0.464193
-0.47029
-0.473138
-0.472898
-0.469746
-0.463883
-0.45568
-0.445525
-0.433746
-0.420753
-0.407122
-0.393538
0.091468
0.0438126
-0.00420497
-0.0520449
-0.0991644
-0.145054
-0.189191
-0.231168
-0.270562
-0.307114
-0.340487
-0.370499
-0.396992
-0.420017
-0.439619
-0.455668
-0.468536
-0.478167
-0.484532
-0.487793
-0.488149
-0.48578
-0.480884
-0.473726
-0.464619
-0.453892
-0.441925
-0.429192
-0.416266
0.0837232
0.0341863
-0.0156062
-0.0650231
-0.11357
-0.160656
-0.205804
-0.248517
-0.288449
-0.32531
-0.358814
-0.388963
-0.415395
-0.438074
-0.45735
-0.473284
-0.485967
-0.495524
-0.501991
-0.50555
-0.506395
-0.504683
-0.500567
-0.494255
-0.486002
-0.476094
-0.464855
-0.452682
-0.440041
0.0755749
0.0235186
-0.0286932
-0.0803428
-0.130871
-0.179672
-0.226217
-0.270009
-0.310719
-0.34803
-0.381785
-0.41184
-0.438153
-0.460686
-0.47968
-0.495314
-0.507731
-0.51701
-0.523443
-0.527164
-0.528344
-0.527108
-0.523585
-0.517941
-0.510358
-0.501036
-0.490219
-0.478215
-0.465406
0.0664444
0.0111855
-0.0441063
-0.0985967
-0.151633
-0.202574
-0.25084
-0.295949
-0.337548
-0.375386
-0.409302
-0.439242
-0.465224
-0.487336
-0.505786
-0.520817
-0.532659
-0.541549
-0.547738
-0.551418
-0.552751
-0.551823
-0.548745
-0.543625
-0.536543
-0.527591
-0.516919
-0.504747
-0.491401
0.0565549
-0.00272234
-0.0618756
-0.119908
-0.176057
-0.229621
-0.279978
-0.326642
-0.369278
-0.407667
-0.441711
-0.471412
-0.496869
-0.518271
-0.535881
-0.550035
-0.561058
-0.569282
-0.574988
-0.578447
-0.579802
-0.579096
-0.576398
-0.571726
-0.565035
-0.55629
-0.545524
-0.532866
-0.518595
0.0453478
-0.0189324
-0.0828727
-0.145249
-0.205169
-0.261853
-0.314645
-0.363055
-0.406784
-0.445673
-0.479682
-0.508894
-0.533503
-0.553791
-0.570142
-0.583001
-0.592815
-0.600004
-0.604939
-0.607993
-0.609251
-0.608725
-0.606426
-0.602242
-0.595957
-0.587363
-0.576345
-0.562923
-0.547324
0.0327074
-0.037812
-0.107671
-0.175322
-0.239733
-0.300046
-0.355599
-0.405894
-0.450707
-0.489953
-0.523667
-0.552034
-0.575353
-0.594026
-0.608577
-0.619608
-0.627729
-0.63346
-0.637337
-0.639776
-0.640859
-0.640567
-0.63882
-0.635331
-0.629657
-0.621348
-0.610075
-0.595701
-0.578393
0.0180851
-0.0602754
-0.137484
-0.211508
-0.28118
-0.34561
-0.404186
-0.456405
-0.502182
-0.541523
-0.574554
-0.601556
-0.622976
-0.639352
-0.651373
-0.659881
-0.665673
-0.66941
-0.671816
-0.673447
-0.674366
-0.674511
-0.673671
-0.671306
-0.666635
-0.658877
-0.647437
-0.631941
-0.612442
0.000948786
-0.087325
-0.173664
-0.255345
-0.33114
-0.400166
-0.46193
-0.515948
-0.562439
-0.601444
-0.633254
-0.658198
-0.676897
-0.69006
-0.698573
-0.703589
-0.706222
-0.707306
-0.707707
-0.708208
-0.708986
-0.709928
-0.710668
-0.710333
-0.707596
-0.701082
-0.689833
-0.673193
-0.650887
-0.0197497
-0.120799
-0.218402
-0.309054
-0.391807
-0.465891
-0.530907
-0.586231
-0.632941
-0.670891
-0.700685
-0.722722
-0.737671
-0.746495
-0.750343
-0.750712
-0.749116
-0.74671
-0.744481
-0.743514
-0.744228
-0.746438
-0.749572
-0.752304
-0.752683
-0.748573
-0.73831
-0.720697
-0.695204
-0.045228
-0.163677
-0.275654
-0.37658
-0.466129
-0.545161
-0.612942
-0.668801
-0.715095
-0.751543
-0.778465
-0.796481
-0.806367
-0.809059
-0.806198
-0.800352
-0.793456
-0.786476
-0.780618
-0.777653
-0.778764
-0.78355
-0.791291
-0.799644
-0.804832
-0.804296
-0.796525
-0.777818
-0.746565
-0.076677
-0.219009
-0.350151
-0.462482
-0.558105
-0.642183
-0.711636
-0.768878
-0.813191
-0.846529
-0.869722
-0.882053
-0.885043
-0.879608
-0.867795
-0.852983
-0.838164
-0.825135
-0.81485
-0.808434
-0.808664
-0.816337
-0.830638
-0.848884
-0.864011
-0.869466
-0.867184
-0.851234
-0.813322
-0.11995
-0.291108
-0.442424
-0.566977
-0.673988
-0.761546
-0.831376
-0.889634
-0.930044
-0.956408
-0.97436
-0.980395
-0.973384
-0.955838
-0.931971
-0.90631
-0.881888
-0.861192
-0.845919
-0.837162
-0.836741
-0.849267
-0.872076
-0.899609
-0.927032
-0.946081
-0.949837
-0.932565
-0.888444
-0.19384
-0.411373
-0.575699
-0.707783
-0.829357
-0.916225
-0.975426
-1.02399
-1.05825
-1.07885
-1.0876
-1.08248
-1.06263
-1.02916
-0.988336
-0.947404
-0.910301
-0.880633
-0.858768
-0.846458
-0.849013
-0.87203
-0.910699
-0.956787
-1.00512
-1.04463
-1.06121
-1.04129
-0.981557
-0.293141
-0.605157
-0.796381
-0.915494
-1.01719
-1.08903
-1.13401
-1.16509
-1.18784
-1.20257
-1.20407
-1.18736
-1.15388
-1.10863
-1.05311
-0.997967
-0.950828
-0.909346
-0.873589
-0.845069
-0.836016
-0.859749
-0.906335
-0.97269
-1.04848
-1.11325
-1.15306
-1.14125
-1.07239
-0.396507
-0.80413
-1.03899
-1.15115
-1.19516
-1.21428
-1.223
-1.22727
-1.23265
-1.24255
-1.24818
-1.23197
-1.18635
-1.12507
-1.06098
-1.00309
-0.955355
-0.915014
-0.881036
-0.859528
-0.857244
-0.880288
-0.926879
-0.995148
-1.07681
-1.15528
-1.20063
-1.18876
-1.11373
-0.832136
-1.05074
-1.18143
-1.24464
-1.21996
-1.21573
-1.23128
-1.2398
-1.24271
-1.24251
-1.23722
-1.21982
-1.18364
-1.12891
-1.06841
-1.01191
-0.963537
-0.922998
-0.888955
-0.865672
-0.864714
-0.885828
-0.928798
-0.99177
-1.06809
-1.14157
-1.18356
-1.17397
-1.09765
-2.25845
-1.50356
-1.21442
-1.28788
-1.26472
-1.24804
-1.23897
-1.23625
-1.23555
-1.23257
-1.22145
-1.19639
-1.15954
-1.11334
-1.06261
-1.01329
-0.969015
-0.932537
-0.906137
-0.890656
-0.888147
-0.902995
-0.938053
-0.992044
-1.05592
-1.11305
-1.13859
-1.11508
-1.05102
)
;

boundaryField
{
    inlet
    {
        type            zeroGradient;
    }
    outlet
    {
        type            fixedValue;
        value           nonuniform List<scalar> 0();
    }
    topWall
    {
        type            zeroGradient;
    }
    lowerWall
    {
        type            zeroGradient;
    }
    leadingEdge
    {
        type            zeroGradient;
    }
    trailingEdge
    {
        type            zeroGradient;
    }
    upperSurface
    {
        type            zeroGradient;
    }
    lowerSurface
    {
        type            zeroGradient;
    }
    frontAndBack
    {
        type            empty;
    }
    procBoundary0to1
    {
        type            processor;
        value           nonuniform List<scalar> 
20
(
-0.371805
-0.380785
-0.403788
-0.427451
-0.452209
-0.47722
-0.503042
-0.529913
-0.558551
-0.589474
-0.623586
-0.66244
-0.705695
-0.759699
-0.821612
-0.892539
-0.962588
-0.992234
-0.976407
-0.942904
)
;
    }
    procBoundary0to4
    {
        type            processor;
        value           nonuniform List<scalar> 
100
(
0.790319
0.790224
0.789979
0.789592
0.789082
0.788456
0.787716
0.786864
0.785906
0.784846
0.783692
0.782449
0.781123
0.779719
0.778244
0.776704