/*--------------------------------*- C++ -*----------------------------------*\
| =========                 |                                                 |
| \\      /  F ield         | OpenFOAM: The Open Source CFD Toolbox           |
|  \\    /   O peration     | Version:  2206                                  |
|   \\  /    A nd           | Website:  www.openfoam.com                      |
|    \\/     M anipulation  |                                                 |
\*---------------------------------------------------------------------------*/
FoamFile
{
    version     2.0;
    format      ascii;
    arch        "LSB;label=32;scalar=64";
    class       volScalarField;
    location    "18.9999";
    object      p;
}
// * * * * * * * * * * * * * * * * * * * * * * * * * * * * * * * * * * * * * //

dimensions      [0 2 -2 0 0 0 0];

internalField   nonuniform List<scalar> 
4810
(
0.561066
0.561026
0.560922
0.560758
0.560541
0.560273
0.559955
0.559587
0.559169
0.558704
0.558194
0.55764
0.557044
0.556407
0.555733
0.555023
0.554279
0.553503
0.552698
0.551866
0.551009
0.550129
0.549228
0.54831
0.547376
0.546428
0.545468
0.5445
0.543526
0.542547
0.541566
0.540585
0.539608
0.538636
0.537672
0.536717
0.535776
0.534849
0.53394
0.533051
0.532185
0.531345
0.530532
0.529751
0.529003
0.528293
0.527622
0.526993
0.526411
0.525878
0.525397
0.524972
0.524606
0.524303
0.524068
0.523906
0.523821
0.523819
0.523903
0.524079
0.524352
0.52473
0.525217
0.525823
0.526553
0.527417
0.528424
0.529582
0.530903
0.532397
0.534078
0.535958
0.538052
0.540375
0.542945
0.54578
0.548901
0.552331
0.556092
0.560212
0.564719
0.569645
0.575024
0.580892
0.587291
0.594262
0.601854
0.610117
0.619105
0.628874
0.639486
0.651001
0.663483
0.676992
0.691584
0.707307
0.724188
0.742229
0.761387
0.781548
0.802497
0.823855
0.845004
0.864941
0.882081
0.893774
0.895924
0.87987
0.833982
0.707412
0.466034
-0.363076
0.561429
0.561388
0.561282
0.561113
0.56089
0.560615
0.560288
0.55991
0.559481
0.559004
0.558481
0.557913
0.557302
0.556651
0.555961
0.555234
0.554474
0.553681
0.552859
0.552009
0.551133
0.550235
0.549317
0.54838
0.547427
0.54646
0.545482
0.544494
0.5435
0.542502
0.541501
0.540501
0.539503
0.538511
0.537526
0.53655
0.535587
0.534638
0.533707
0.532796
0.531906
0.531042
0.530205
0.529399
0.528625
0.527887
0.527189
0.526531
0.525919
0.525354
0.52484
0.524381
0.523979
0.523638
0.523363
0.523159
0.523029
0.522979
0.523012
0.523132
0.523347
0.52366
0.524079
0.524611
0.525261
0.526038
0.52695
0.528006
0.529214
0.530587
0.532133
0.533867
0.535799
0.537946
0.540321
0.542941
0.545825
0.548991
0.55246
0.556255
0.5604
0.564921
0.569847
0.575206
0.581032
0.587357
0.594217
0.601649
0.60969
0.618378
0.627749
0.637837
0.648669
0.660266
0.672632
0.685751
0.699577
0.714015
0.728905
0.743989
0.758864
0.772919
0.785228
0.794379
0.79824
0.79334
0.774493
0.731575
0.651868
0.501087
0.263252
-0.0991015
0.561863
0.56182
0.56171
0.561536
0.561306
0.561022
0.560685
0.560295
0.559854
0.559362
0.558824
0.55824
0.557612
0.556942
0.556234
0.555488
0.554708
0.553895
0.553053
0.552182
0.551286
0.550367
0.549427
0.548468
0.547494
0.546505
0.545505
0.544496
0.543479
0.542458
0.541435
0.540412
0.539391
0.538375
0.537366
0.536366
0.535379
0.534405
0.533448
0.532511
0.531595
0.530703
0.529839
0.529004
0.528201
0.527433
0.526702
0.526012
0.525366
0.524765
0.524215
0.523716
0.523274
0.522891
0.522571
0.522319
0.522139
0.522034
0.522008
0.522067
0.522215
0.522457
0.522799
0.523247
0.523807
0.524486
0.525292
0.526232
0.527316
0.52855
0.529947
0.531516
0.533269
0.535217
0.537374
0.539754
0.542372
0.545245
0.548389
0.551823
0.555566
0.559639
0.564064
0.568864
0.57406
0.579677
0.585739
0.592268
0.599285
0.606807
0.614849
0.623416
0.632503
0.642091
0.652136
0.662569
0.673273
0.684074
0.694715
0.704823
0.713859
0.721056
0.725312
0.725044
0.717983
0.700785
0.668803
0.615076
0.531531
0.408622
0.237741
0.0495093
0.562368
0.562324
0.56221
0.562029
0.561791
0.561497
0.561148
0.560744
0.560288
0.55978
0.559223
0.55862
0.557973
0.557283
0.556553
0.555785
0.554982
0.554147
0.553281
0.552387
0.551467
0.550524
0.549559
0.548576
0.547577
0.546564
0.545539
0.544505
0.543463
0.542417
0.541368
0.540318
0.539272
0.538229
0.537193
0.536167
0.535151
0.53415
0.533164
0.532198
0.531252
0.53033
0.529434
0.528567
0.527731
0.526929
0.526164
0.525438
0.524753
0.524114
0.523522
0.52298
0.522493
0.522063
0.521693
0.521389
0.521152
0.520987
0.520898
0.520888
0.520963
0.521126
0.521383
0.521739
0.522201
0.522773
0.523462
0.524275
0.52522
0.526305
0.527537
0.528926
0.530481
0.532213
0.534132
0.53625
0.538579
0.541133
0.543924
0.546967
0.550276
0.553866
0.557753
0.561952
0.566476
0.57134
0.576555
0.58213
0.588071
0.594376
0.601038
0.608037
0.615338
0.622886
0.6306
0.638361
0.645999
0.65328
0.659876
0.665341
0.669062
0.670205
0.667636
0.659816
0.644683
0.619493
0.580736
0.524135
0.444516
0.338092
0.191823
0.0127251
0.562949
0.562903
0.562784
0.562596
0.562347
0.562042
0.561679
0.561259
0.560785
0.560258
0.559681
0.559056
0.558386
0.557672
0.556918
0.556125
0.555297
0.554435
0.553543
0.552622
0.551676
0.550706
0.549714
0.548704
0.547677
0.546637
0.545584
0.544522
0.543452
0.542377
0.5413
0.540222
0.539146
0.538074
0.537008
0.535951
0.534905
0.533873
0.532856
0.531857
0.530878
0.529923
0.528993
0.52809
0.527218
0.526379
0.525575
0.524809
0.524083
0.523401
0.522764
0.522176
0.521639
0.521158
0.520734
0.520373
0.520075
0.519845
0.519686
0.519602
0.519597
0.519675
0.519841
0.520098
0.520452
0.520908
0.521471
0.522148
0.522944
0.523866
0.524921
0.526117
0.52746
0.52896
0.530624
0.532462
0.534483
0.536697
0.539113
0.541741
0.544591
0.547672
0.550993
0.554561
0.558384
0.562464
0.566802
0.571395
0.576233
0.581299
0.586565
0.591989
0.597511
0.60305
0.608489
0.613675
0.618401
0.62239
0.625277
0.62658
0.625667
0.621712
0.613642
0.600078
0.579269
0.549042
0.506747
0.449363
0.373095
0.27507
0.148857
7.69159e-05
0.563608
0.56356
0.563435
0.563238
0.562978
0.562659
0.56228
0.561842
0.561348
0.560799
0.560199
0.559549
0.558853
0.558112
0.557331
0.55651
0.555653
0.554762
0.55384
0.55289
0.551914
0.550913
0.549892
0.548851
0.547794
0.546723
0.54564
0.544546
0.543446
0.54234
0.541231
0.540121
0.539013
0.537909
0.536811
0.535721
0.534641
0.533575
0.532523
0.531489
0.530475
0.529483
0.528515
0.527574
0.526663
0.525783
0.524937
0.524128
0.523357
0.522629
0.521944
0.521305
0.520716
0.520179
0.519698
0.519274
0.518911
0.518612
0.518379
0.518216
0.518126
0.518113
0.51818
0.518331
0.518571
0.518904
0.519333
0.519865
0.520503
0.521253
0.522121
0.523112
0.524232
0.525486
0.526883
0.528426
0.530124
0.531982
0.534006
0.536201
0.538574
0.541127
0.543864
0.546785
0.549888
0.553168
0.556617
0.560218
0.56395
0.56778
0.571664
0.575543
0.579337
0.582941
0.586217
0.588987
0.591021
0.592021
0.591609
0.589301
0.584485
0.576389
0.564054
0.546294
0.521675
0.488501
0.444807
0.388503
0.317327
0.230028
0.125645
0.00799246
0.564348
0.564297
0.564167
0.56396
0.563687
0.563352
0.562955
0.562496
0.561978
0.561405
0.560778
0.5601
0.559375
0.558604
0.557791
0.556939
0.55605
0.555127
0.554173
0.55319
0.55218
0.551147
0.550092
0.549018
0.547928
0.546823
0.545706
0.544579
0.543445
0.542305
0.541162
0.540018
0.538875
0.537735
0.536602
0.535476
0.53436
0.533256
0.532167
0.531095
0.530042
0.52901
0.528002
0.52702
0.526066
0.525143
0.524252
0.523396
0.522578
0.5218
0.521063
0.520371
0.519726
0.519131
0.518588
0.518099
0.517666
0.517293
0.516981
0.516735
0.516555
0.516446
0.51641
0.516451
0.516571
0.516773
0.517063
0.517442
0.517915
0.518485
0.519157
0.519935
0.520821
0.521821
0.522939
0.524177
0.525541
0.527031
0.528652
0.530404
0.532288
0.534303
0.536446
0.538712
0.54109
0.543569
0.54613
0.548748
0.551389
0.55401
0.556554
0.558946
0.561093
0.562873
0.564136
0.564689
0.564292
0.562644
0.559372
0.554015
0.546005
0.534654
0.519133
0.498461
0.471504
0.436992
0.393562
0.339903
0.274889
0.198084
0.109743
0.0116176
0.565174
0.565121
0.564983
0.564764
0.564477
0.564123
0.563705
0.563222
0.562679
0.562077
0.56142
0.560711
0.559952
0.559148
0.558301
0.557414
0.556489
0.555531
0.55454
0.553521
0.552475
0.551406
0.550315
0.549205
0.548079
0.546937
0.545784
0.544621
0.54345
0.542273
0.541093
0.539911
0.53873
0.537553
0.536381
0.535216
0.534061
0.532918
0.531788
0.530675
0.52958
0.528506
0.527455
0.526428
0.525429
0.524459
0.523521
0.522616
0.521748
0.520917
0.520126
0.519377
0.518673
0.518016
0.517407
0.516849
0.516344
0.515894
0.515501
0.515166
0.514894
0.514684
0.514541
0.514466
0.514461
0.51453
0.514673
0.514895
0.515197
0.515581
0.516051
0.516609
0.517256
0.517994
0.518826
0.519753
0.520774
0.521891
0.523103
0.524406
0.525797
0.527271
0.528819
0.53043
0.532089
0.533776
0.535465
0.537122
0.538707
0.540164
0.541428
0.542413
0.543018
0.543111
0.542534
0.541091
0.538543
0.534597
0.528901
0.521029
0.510474
0.496641
0.478836
0.456272
0.42808
0.393341
0.351139
0.300674
0.241375
0.173107
0.096304
0.0123608
0.566091
0.566034
0.565888
0.565656
0.565351
0.564977
0.564535
0.564025
0.563451
0.562817
0.562127
0.561382
0.560587
0.559746
0.55886
0.557934
0.556971
0.555973
0.554943
0.553885
0.5528
0.551691
0.550561
0.549412
0.548246
0.547066
0.545873
0.544671
0.54346
0.542244
0.541024
0.539802
0.538581
0.537363
0.536149
0.534943
0.533746
0.53256
0.531387
0.53023
0.529091
0.527972
0.526874
0.525801
0.524754
0.523735
0.522746
0.521789
0.520867
0.519981
0.519133
0.518326
0.51756
0.516838
0.516161
0.515532
0.514951
0.514421
0.513943
0.513518
0.513149
0.512836
0.512582
0.512388
0.512255
0.512186
0.51218
0.51224
0.512367
0.512561
0.512825
0.513158
0.513561
0.514035
0.514577
0.515188
0.515865
0.516606
0.517407
0.518261
0.519161
0.520097
0.521057
0.522024
0.522977
0.523892
0.524736
0.525468
0.526041
0.526394
0.526453
0.526129
0.52531
0.523866
0.521636
0.518427
0.514007
0.508104
0.500392
0.49049
0.477959
0.462292
0.442926
0.41924
0.390582
0.356296
0.315775
0.268535
0.21431
0.15318
0.0857032
0.0131141
0.567104
0.567044
0.566888
0.566641
0.566316
0.565918
0.565447
0.564907
0.564299
0.563629
0.5629
0.562116
0.561281
0.560397
0.55947
0.558501
0.557495
0.556454
0.555382
0.554281
0.553153
0.552002
0.550829
0.549638
0.54843
0.547208
0.545973
0.544729
0.543476
0.542217
0.540955
0.53969
0.538426
0.537165
0.535907
0.534657
0.533415
0.532183
0.530965
0.529761
0.528575
0.527407
0.526261
0.525138
0.524041
0.52297
0.521928
0.520917
0.519939
0.518996
0.518089
0.517219
0.51639
0.5156
0.514854
0.51415
0.513492
0.512879
0.512314
0.511797
0.511329
0.510911
0.510544
0.510228
0.509965
0.509755
0.509597
0.509493
0.509443
0.509445
0.509501
0.509608
0.509765
0.509972
0.510224
0.510519
0.510853
0.511219
0.511612
0.512021
0.512437
0.512846
0.51323
0.51357
0.51384
0.514011
0.514045
0.513898
0.513516
0.512834
0.511774
0.510244
0.508132
0.505306
0.501611
0.49686
0.490839
0.483295
0.473937
0.462431
0.448401
0.431429
0.411061
0.386817
0.358213
0.324789
0.28615
0.242026
0.192338
0.137286
0.077416
0.0136943
0.56822
0.568155
0.567988
0.567723
0.567375
0.566949
0.566447
0.565872
0.565226
0.564515
0.563743
0.562914
0.562033
0.561104
0.56013
0.559115
0.558062
0.556974
0.555856
0.554708
0.553535
0.552338
0.55112
0.549884
0.548631
0.547364
0.546085
0.544796
0.543498
0.542194
0.540887
0.539577
0.538267
0.536959
0.535655
0.534357
0.533068
0.531789
0.530522
0.529269
0.528033
0.526815
0.525617
0.524442
0.523291
0.522166
0.521069
0.520002
0.518966
0.517963
0.516994
0.516061
0.515165
0.514307
0.513488
0.51271
0.511972
0.511276
0.510622
0.51001
0.509442
0.508917
0.508436
0.507998
0.507603
0.50725
0.50694
0.506672
0.506443
0.506253
0.5061
0.505981
0.505894
0.505834
0.505798
0.505781
0.505775
0.505772
0.505764
0.505738
0.505681
0.505577
0.505404
0.50514
0.504756
0.504217
0.503484
0.502509
0.501235
0.499594
0.497507
0.494881
0.491606
0.487555
0.482577
0.4765
0.469126
0.460228
0.449549
0.436801
0.421668
0.403809
0.382864
0.358466
0.330262
0.297932
0.261232
0.220026
0.174339
0.124406
0.0707043
0.013985
0.569446
0.569376
0.569195
0.56891
0.568535
0.568078
0.567539
0.566923
0.566233
0.565476
0.564656
0.563778
0.562847
0.561866
0.560841
0.559775
0.558671
0.557533
0.556364
0.555167
0.553945
0.5527
0.551434
0.550149
0.548849
0.547534
0.546208
0.544871
0.543526
0.542175
0.540819
0.539461
0.538103
0.536746
0.535393
0.534046
0.532706
0.531376
0.530058
0.528754
0.527465
0.526194
0.524942
0.523713
0.522506
0.521325
0.520171
0.519045
0.517949
0.516884
0.515852
0.514854
0.51389
0.512962
0.512069
0.511214
0.510396
0.509615
0.508871
0.508165
0.507496
0.506864
0.506268
0.505707
0.50518
0.504686
0.504224
0.503791
0.503385
0.503003
0.502643
0.502301
0.501972
0.50165
0.501331
0.501006
0.500667
0.500304
0.499906
0.499458
0.498944
0.498345
0.497639
0.496798
0.495792
0.494585
0.493133
0.491386
0.489287
0.486767
0.483747
0.480136
0.475827
0.470699
0.464612
0.457408
0.448907
0.438907
0.427186
0.413499
0.397584
0.379165
0.357959
0.333689
0.3061
0.274977
0.240173
0.201636
0.159445
0.11383
0.0652049
0.0141657
0.570791
0.570715
0.570519
0.570209
0.569803
0.569308
0.568728
0.568065
0.567325
0.566515
0.565641
0.564708
0.563721
0.562684
0.561603
0.560481
0.559322
0.55813
0.556907
0.555657
0.554383
0.553085
0.551768
0.550433
0.549082
0.547718
0.546341
0.544954
0.54356
0.542158
0.540752
0.539344
0.537935
0.536527
0.535122
0.533722
0.53233
0.530947
0.529575
0.528216
0.526872
0.525546
0.524238
0.522951
0.521687
0.520447
0.519234
0.518047
0.516889
0.515762
0.514665
0.513599
0.512567
0.511567
0.510601
0.509668
0.508769
0.507903
0.507069
0.506269
0.505499
0.50476
0.504049
0.503366
0.502709
0.502075
0.501461
0.500866
0.500285
0.499716
0.499152
0.49859
0.498024
0.497446
0.49685
0.496226
0.495564
0.494853
0.494078
0.493224
0.492272
0.491202
0.489988
0.488602
0.487012
0.485179
0.483058
0.4806
0.477745
0.474426
0.470567
0.466078
0.460859
0.454796
0.44776
0.439608
0.43018
0.419298
0.406771
0.392395
0.375952
0.357222
0.335985
0.312034
0.285187
0.255302
0.222298
0.186175
0.147033
0.105092
0.0607002
0.0143376
0.572265
0.572182
0.571967
0.571629
0.571186
0.570648
0.570018
0.569302
0.568505
0.567636
0.5667
0.565705
0.564656
0.563558
0.562415
0.561233
0.560014
0.558764
0.557484
0.556177
0.554847
0.553495
0.552124
0.550736
0.549332
0.547915
0.546486
0.545047
0.543599
0.542146
0.540687
0.539225
0.537763
0.536301
0.534842
0.533387
0.53194
0.530501
0.529072
0.527656
0.526255
0.524871
0.523504
0.522159
0.520835
0.519534
0.518259
0.51701
0.515789
0.514597
0.513434
0.512301
0.511198
0.510127
0.509086
0.508076
0.507095
0.506145
0.505222
0.504327
0.503458
0.502613
0.50179
0.500987
0.500201
0.499429
0.498668
0.497913
0.497162
0.496408
0.495646
0.49487
0.494073
0.493247
0.492383
0.491471
0.490498
0.489452
0.488317
0.487075
0.485708
0.484191
0.482499
0.480603
0.478467
0.476054
0.473317
0.470208
0.466667
0.462629
0.45802
0.452757
0.446744
0.439877
0.432039
0.423099
0.412918
0.401341
0.388206
0.373341
0.356571
0.337718
0.316614
0.293106
0.267064
0.2384
0.207076
0.17312
0.136643
0.0978425
0.0570141
0.0145445
0.57388
0.573788
0.573552
0.573179
0.572693
0.572103
0.571416
0.570638
0.569775
0.568838
0.567834
0.56677
0.565652
0.564486
0.563277
0.562029
0.560747
0.559433
0.558092
0.556726
0.555337
0.553928
0.5525
0.551055
0.549596
0.548124
0.546641
0.545147
0.543645
0.542137
0.540623
0.539106
0.537587
0.536069
0.534553
0.533041
0.531536
0.530038
0.528551
0.527075
0.525614
0.524169
0.522742
0.521335
0.519949
0.518586
0.517248
0.515935
0.514649
0.513391
0.512161
0.510959
0.509787
0.508643
0.507528
0.50644
0.50538
0.504345
0.503335
0.502347
0.50138
0.500431
0.499498
0.498578
0.497666
0.49676
0.495855
0.494946
0.494029
0.493097
0.492143
0.491161
0.490142
0.489077
0.487956
0.486767
0.485498
0.484133
0.482656
0.481048
0.479288
0.477353
0.475215
0.472843
0.470203
0.467256
0.463957
0.460256
0.456097
0.451418
0.446147
0.440206
0.433508
0.425956
0.417444
0.407858
0.397074
0.384961
0.37138
0.356188
0.339244
0.320408
0.299551
0.276559
0.251345
0.223854
0.194079
0.162063
0.127917
0.0918168
0.0540119
0.0148184
0.575651
0.575549
0.575286
0.574872
0.574333
0.573682
0.572928
0.572077
0.571139
0.570125
0.569044
0.567903
0.566709
0.565468
0.564186
0.562868
0.561517
0.560137
0.558731
0.557302
0.555851
0.554382
0.552895
0.551392
0.549876
0.548346
0.546806
0.545256
0.543697
0.542131
0.54056
0.538986
0.537409
0.535832
0.534257
0.532685
0.531118
0.52956
0.528011
0.526473
0.52495
0.523442
0.521952
0.520481
0.519031
0.517604
0.5162
0.514822
0.513471
0.512146
0.510848
0.509578
0.508335
0.50712
0.50593
0.504767
0.503627
0.50251
0.501413
0.500335
0.499273
0.498224
0.497184
0.496149
0.495116
0.494081
0.493037
0.491979
0.490902
0.489799
0.488662
0.487482
0.486251
0.484958
0.483593
0.482142
0.480591
0.478925
0.477126
0.475174
0.473048
0.470723
0.468171
0.465361
0.462258
0.458824
0.455015
0.450782
0.446072
0.440824
0.434972
0.428444
0.421158
0.413028
0.403959
0.393849
0.382592
0.370073
0.356178
0.340788
0.323789
0.305071
0.284535
0.262099
0.237706
0.211325
0.182967
0.152684
0.120581
0.0868144
0.0515948
0.0151835
0.577595
0.57748
0.577185
0.57672
0.576117
0.575394
0.574559
0.573624
0.572599
0.571497
0.570328
0.569101
0.567823
0.566501
0.565141
0.563747
0.562323
0.560872
0.559398
0.557903
0.556388
0.554856
0.553308
0.551745
0.550169
0.54858
0.546981
0.545372
0.543755
0.54213
0.5405
0.538865
0.537227
0.535589
0.533952
0.532317
0.530688
0.529065
0.527452
0.52585
0.524261
0.522688
0.521132
0.519595
0.518079
0.516586
0.515116
0.513672
0.512253
0.51086
0.509495
0.508156
0.506843
0.505556
0.504294
0.503056
0.501839
0.500641
0.499461
0.498296
0.497142
0.495995
0.494852
0.493709
0.49256
0.4914
0.490224
0.489025
0.487796
0.486529
0.485217
0.48385
0.482418
0.48091
0.479314
0.477616
0.475801
0.473853
0.471754
0.469482
0.467016
0.464331
0.461398
0.458186
0.454663
0.450788
0.44652
0.441812
0.436613
0.430866
0.42451
0.417476
0.409693
0.40108
0.391555
0.381027
0.369404
0.35659
0.342487
0.326999
0.310033
0.291504
0.271336
0.249473
0.225875
0.200532
0.173463
0.144727
0.114418
0.0826768
0.0496814
0.0156502
0.579734
0.579604
0.579267
0.578739
0.578058
0.577246
0.576316
0.575281
0.574156
0.572953
0.571686
0.570363
0.568993
0.567582
0.566137
0.564662
0.563161
0.561636
0.560091
0.558527
0.556946
0.555349
0.553737
0.552113
0.550475
0.548826
0.547167
0.545498
0.54382
0.542134
0.540442
0.538745
0.537045
0.535343
0.533641
0.531941
0.530246
0.528557
0.526877
0.525207
0.523551
0.521909
0.520285
0.51868
0.517096
0.515535
0.513997
0.512485
0.510998
0.509538
0.508104
0.506696
0.505314
0.503957
0.502624
0.501312
0.50002
0.498745
0.497485
0.496235
0.494993
0.493754
0.492514
0.491267
0.490008
0.48873
0.487429
0.486095
0.484723
0.483303
0.481827
0.480284
0.478663
0.476954
0.475142
0.473213
0.471152
0.468942
0.466564
0.463997
0.461219
0.458203
0.454923
0.451347
0.447443
0.443173
0.438496
0.433367
0.427739
0.421558
0.414766
0.407303
0.399101
0.390091
0.380197
0.369341
0.357444
0.344424
0.3302
0.314691
0.297824
0.279532
0.25976
0.238466
0.215628
0.191246
0.165349
0.137991
0.109262
0.0792851
0.0482131
0.0162304
0.582096
0.581945
0.581556
0.580949
0.580169
0.579248
0.578204
0.577052
0.575809
0.574492
0.573114
0.571684
0.570213
0.568707
0.567171
0.56561
0.564028
0.562425
0.560806
0.559171
0.557521
0.555857
0.554181
0.552493
0.550793
0.549082
0.547361
0.545629
0.543889
0.542141
0.540386
0.538624
0.536858
0.53509
0.53332
0.531553
0.529789
0.52803
0.52628
0.524541
0.522814
0.521102
0.519407
0.517732
0.516078
0.514446
0.512839
0.511257
0.509702
0.508173
0.506672
0.505196
0.503746
0.50232
0.500917
0.499535
0.498171
0.496821
0.495484
0.494156
0.49283
0.491504
0.490172
0.488828
0.487465
0.486078
0.484659
0.483201
0.481694
0.480131
0.478502
0.476795
0.474999
0.473102
0.47109
0.468949
0.466661
0.46421
0.461577
0.45874
0.455676
0.452361
0.448766
0.444863
0.440618
0.435996
0.430957
0.42546
0.419457
0.412902
0.405739
0.397913
0.389365
0.38003
0.369844
0.358738
0.346644
0.333491
0.319212
0.303741
0.28702
0.268997
0.24963
0.228892
0.206771
0.183275
0.158435
0.132307
0.104971
0.0765351
0.0471328
0.0169208
0.584714
0.584537
0.58408
0.583369
0.582465
0.58141
0.580227
0.578936
0.577557
0.576108
0.574605
0.573059
0.571478
0.569869
0.568237
0.566585
0.564918
0.563235
0.56154
0.559832
0.558113
0.556382
0.554641
0.552889
0.551126
0.549352
0.547568
0.545774
0.543971
0.542159
0.540338
0.53851
0.536676
0.534839
0.533
0.531161
0.529325
0.527494
0.525671
0.523858
0.522057
0.520272
0.518504
0.516755
0.515028
0.513325
0.511647
0.509995
0.50837
0.506772
0.505203
0.50366
0.502143
0.50065
0.49918
0.49773
0.496296
0.494877
0.493468
0.492064
0.490662
0.489255
0.487837
0.486403
0.484945
0.483456
0.481928
0.480354
0.478724
0.477029
0.475258
0.473401
0.471444
0.469375
0.46718
0.464844
0.462349
0.459678
0.456812
0.45373
0.450408
0.446823
0.442948
0.438752
0.434205
0.429273
0.423917
0.418099
0.411775
0.404899
0.397424
0.389297
0.380465
0.370871
0.360459
0.349168
0.336939
0.323713
0.309434
0.294047
0.277505
0.259769
0.240808
0.220604
0.199153
0.176469
0.152585
0.127552
0.101445
0.0743586
0.0464099
0.0177337
0.587635
0.587423
0.586874
0.586026
0.58496
0.583736
0.582385
0.58093
0.579394
0.577796
0.576154
0.574478
0.572778
0.571059
0.569325
0.567579
0.565823
0.564058
0.562284
0.560502
0.558712
0.556913
0.555104
0.553287
0.55146
0.549623
0.547776
0.545918
0.544051
0.542173
0.540285
0.538389
0.536485
0.534576
0.532665
0.530752
0.528841
0.526935
0.525036
0.523146
0.521269
0.519407
0.517563
0.515739
0.513937
0.51216
0.510409
0.508686
0.506991
0.505325
0.503688
0.502079
0.500497
0.49894
0.497405
0.49589
0.494392
0.492907
0.49143
0.489958
0.488485
0.487004
0.485509
0.483992
0.482447
0.480864
0.479238
0.477559
0.475816
0.474001
0.472103
0.470108
0.468006
0.465782
0.463422
0.460909
0.458227
0.455358
0.452283
0.448981
0.445429
0.441604
0.437479
0.433026
0.428214
0.42301
0.41738
0.411286
0.404688
0.397543
0.389807
0.381432
0.372372
0.362576
0.351993
0.340571
0.32826
0.315009
0.30077
0.285499
0.269158
0.251717
0.233154
0.213458
0.19263
0.170687
0.147662
0.123604
0.0985814
0.0726782
0.0459968
0.0186547
0.590919
0.590658
0.589983
0.588947
0.587669
0.586232
0.584676
0.583027
0.581307
0.579541
0.577745
0.57593
0.574104
0.572271
0.570433
0.568592
0.566748
0.564901
0.56305
0.561195
0.559335
0.557468
0.555595
0.553713
0.551823
0.549923
0.548012
0.546091
0.544158
0.542213
0.540256
0.538288
0.536311
0.534327
0.532339
0.530349
0.528359
0.526373
0.524394
0.522424
0.520466
0.518523
0.516599
0.514696
0.512816
0.510962
0.509136
0.50734
0.505574
0.503839
0.502136
0.500463
0.498818
0.497198
0.495601
0.494025
0.492466
0.49092
0.489382
0.487847
0.48631
0.484763
0.4832
0.48161
0.479986
0.47832
0.476605
0.474831
0.472988
0.471065
0.469052
0.466935
0.464702
0.462339
0.45983
0.45716
0.454311
0.451265
0.448005
0.444508
0.440753
0.436717
0.432373
0.427695
0.422654
0.417218
0.411354
0.405026
0.398198
0.39083
0.382881
0.374309
0.365071
0.355121
0.344417
0.332913
0.320565
0.307329
0.293163
0.278032
0.261906
0.244761
0.226583
0.207364
0.187111
0.165842
0.143589
0.120398
0.0963319
0.0714655
0.0458895
0.0197072
0.594651
0.59432
0.593458
0.592158
0.590599
0.588898
0.587098
0.585218
0.583285
0.581326
0.579358
0.577391
0.575429
0.573473
0.571525
0.569583
0.567647
0.565716
0.563787
0.561859
0.559928
0.557995
0.556057
0.554112
0.55216
0.550199
0.548227
0.546243
0.544247
0.542237
0.540211
0.538171
0.536119
0.534058
0.531991
0.52992
0.527849
0.525781
0.523718
0.521665
0.519623
0.517597
0.515589
0.513604
0.511645
0.509712
0.507809
0.505937
0.504098
0.502295
0.500526
0.498792
0.497086
0.495408
0.493753
0.492121
0.490506
0.488904
0.487311
0.485722
0.484129
0.482525
0.480901
0.479246
0.477554
0.475816
0.474024
0.472169
0.470238
0.468222
0.466109
0.463886
0.461539
0.459055
0.456415
0.453606
0.45061
0.44741
0.443986
0.440319
0.436387
0.432166
0.427633
0.422762
0.417524
0.41189
0.405828
0.399306
0.392288
0.384738
0.376618
0.367889
0.358513
0.34845
0.337664
0.326116
0.313767
0.300577
0.28651
0.271537
0.255634
0.238783
0.220972
0.2022
0.182475
0.161817
0.140255
0.117834
0.0946091
0.0706496
0.046036
0.0208598
0.598958
0.59852
0.59737
0.595677
0.593735
0.591705
0.589617
0.587476
0.585309
0.583146
0.581004
0.578886
0.576793
0.574721
0.572668
0.570631
0.568608
0.566595
0.564591
0.562592
0.560593
0.558592
0.556588
0.554579
0.552563
0.550537
0.5485
0.546451
0.544389
0.54231
0.540212
0.538094
0.535961
0.533817
0.531666
0.529509
0.52735
0.525194
0.523042
0.520899
0.518768
0.516652
0.514557
0.512485
0.510442
0.508429
0.506446
0.504498
0.502587
0.500715
0.498883
0.497086
0.495321
0.493584
0.491876
0.490192
0.488526
0.486874
0.485231
0.483594
0.481961
0.480316
0.478643
0.476928
0.47517
0.473367
0.471509
0.469583
0.467576
0.465477
0.463277
0.460965
0.458525
0.455938
0.453188
0.45026
0.447138
0.443805
0.440242
0.436429
0.432346
0.42797
0.423278
0.418244
0.412843
0.407047
0.400825
0.394146
0.386977
0.379286
0.371035
0.36219
0.352717
0.342582
0.331752
0.320196
0.307874
0.294751
0.280799
0.265994
0.250315
0.233749
0.216288
0.197931
0.17869
0.158582
0.137639
0.115899
0.0934141
0.070247
0.0464699
0.022165
0.604026
0.603408
0.601801
0.599541
0.597091
0.594642
0.592186
0.589713
0.587261
0.58486
0.582519
0.580233
0.577998
0.575809
0.573653
0.571523
0.569416
0.56733
0.565259
0.563197
0.561139
0.559082
0.557024
0.554963
0.552896
0.550818
0.548727
0.546623
0.544502
0.542358
0.540187
0.537992
0.535779
0.533552
0.531314
0.529069
0.52682
0.524573
0.522331
0.520096
0.517868
0.515657
0.513468
0.511307
0.509172
0.507069
0.505002
0.502971
0.500983
0.499047
0.497166
0.495318
0.493495
0.491702
0.489942
0.48821
0.4865
0.484805
0.483112
0.481427
0.479759
0.478092
0.476396
0.474642
0.472834
0.470978
0.469068
0.467086
0.465022
0.462854
0.460573
0.458184
0.455665
0.452992
0.450149
0.447119
0.443889
0.440441
0.436758
0.432821
0.428608
0.4241
0.419273
0.414103
0.408566
0.402634
0.39628
0.389475
0.382187
0.374385
0.366033
0.357099
0.347548
0.33736
0.326527
0.31501
0.302756
0.289727
0.275906
0.261276
0.245822
0.229531
0.212397
0.194425
0.175622
0.15601
0.135615
0.114475
0.092638
0.0701594
0.0471056
0.0235507
0.61019
0.609167
0.606722
0.603646
0.600633
0.597777
0.594948
0.592134
0.589397
0.586772
0.584248
0.581806
0.579436
0.577127
0.574863
0.572634
0.570439
0.568272
0.566128
0.563992
0.561852
0.559721
0.557595
0.555467
0.553333
0.551188
0.549035
0.546879
0.544708
0.542494
0.540236
0.537949
0.535644
0.533323
0.53099
0.528647
0.526299
0.523954
0.521619
0.519288
0.516959
0.514644
0.512355
0.510095
0.507863
0.505667
0.503509
0.501393
0.499304
0.497282
0.495356
0.493472
0.491605
0.489765
0.487961
0.48619
0.484446
0.48272
0.481006
0.4793
0.477596
0.475878
0.474132
0.472341
0.470504
0.468615
0.466667
0.464645
0.462538
0.460332
0.458012
0.45557
0.452986
0.450243
0.447323
0.444213
0.440897
0.437359
0.43358
0.429544
0.425229
0.420616
0.415684
0.41041
0.40477
0.398739
0.39229
0.385397
0.378029
0.37016
0.361749
0.352771
0.343165
0.332908
0.322062
0.310599
0.298433
0.285521
0.271847
0.257402
0.242173
0.226149
0.209328
0.191712
0.173311
0.154145
0.134238
0.113627
0.0923538
0.0704713
0.0480393
0.025126
0.61811
0.616251
0.612152
0.607662
0.60381
0.600397
0.597091
0.593884
0.590843
0.587992
0.585295
0.582743
0.580312
0.577933
0.575587
0.573288
0.571043
0.568833
0.566672
0.56452
0.562331
0.560156
0.557997
0.55583
0.553646
0.551442
0.549207
0.547004
0.544819
0.54256
0.540227
0.53785
0.535451
0.533036
0.530608
0.528169
0.525725
0.52328
0.520841
0.518402
0.515964
0.513547
0.511159
0.508802
0.506482
0.504201
0.501962
0.49977
0.497628
0.495551
0.493541
0.49158
0.489658
0.487776
0.485939
0.484142
0.482376
0.480634
0.478907
0.477185
0.475458
0.473715
0.471946
0.470141
0.468289
0.466379
0.464404
0.462355
0.460221
0.457988
0.455633
0.453152
0.450524
0.44773
0.444751
0.441575
0.438191
0.434582
0.430729
0.426615
0.42222
0.417526
0.412511
0.407155
0.401435
0.395327
0.388807
0.381849
0.374425
0.366508
0.358068
0.349074
0.339497
0.329318
0.318533
0.307112
0.29501
0.2822
0.268664
0.254389
0.239363
0.223578
0.207032
0.189727
0.171675
0.152891
0.1334
0.113236
0.0924378
0.0710541
0.0491403
0.0267613
0.628597
0.624987
0.618659
0.612878
0.608276
0.604167
0.60021
0.596525
0.593132
0.58999
0.587005
0.584249
0.581757
0.5793
0.576843
0.574435
0.572092
0.569799
0.567545
0.56531
0.563078
0.560851
0.558634
0.556413
0.554182
0.551937
0.549678
0.547411
0.545121
0.542771
0.540352
0.537881
0.53538
0.532863
0.530332
0.527787
0.525232
0.522671
0.520104
0.517541
0.514998
0.51248
0.509992
0.507537
0.505121
0.502747
0.500415
0.498135
0.495917
0.493765
0.491681
0.48966
0.487696
0.485787
0.483928
0.482114
0.480338
0.47859
0.476858
0.475133
0.473404
0.47166
0.46989
0.468083
0.46623
0.464319
0.462334
0.460268
0.458118
0.455863
0.453492
0.450989
0.448338
0.445529
0.44252
0.439303
0.435873
0.432217
0.428315
0.424149
0.419701
0.414953
0.409885
0.404477
0.398707
0.392553
0.385992
0.378999
0.37155
0.363617
0.355176
0.346198
0.33666
0.326536
0.315805
0.304442
0.292425
0.279733
0.266349
0.252253
0.23743
0.221874
0.205583
0.188561
0.170815
0.152363
0.133227
0.113438
0.0930336
0.0720577
0.0505639
0.028612
0.643848
0.632134
0.620738
0.614354
0.609826
0.605397
0.601085
0.597177
0.593709
0.590565
0.587644
0.584912
0.582339
0.579841
0.577389
0.574993
0.572653
0.570353
0.568083
0.565833
0.563595
0.561359
0.559122
0.556883
0.554631
0.552362
0.550075
0.547762
0.545424
0.543029
0.540535
0.53796
0.535356
0.532741
0.530107
0.527455
0.524789
0.522116
0.519443
0.516779
0.514131
0.511506
0.508911
0.506355
0.503851
0.501401
0.498993
0.496639
0.494361
0.49216
0.490035
0.487982
0.485999
0.484079
0.482218
0.480408
0.478642
0.476911
0.475199
0.473495
0.471787
0.470064
0.468312
0.466518
0.464673
0.462787
0.460826
0.458769
0.456625
0.454374
0.451998
0.449484
0.446825
0.444002
0.440989
0.437762
0.434316
0.430637
0.426709
0.422513
0.418033
0.413252
0.408151
0.402711
0.396911
0.39073
0.384145
0.377134
0.369672
0.361735
0.353298
0.344336
0.334824
0.324737
0.314052
0.302746
0.290798
0.278188
0.2649
0.250916
0.236226
0.220824
0.204706
0.187876
0.170342
0.15212
0.133231
0.113706
0.0935793
0.0728902
0.0516921
0.0300448
0.680754
0.649156
0.627745
0.618503
0.613224
0.608133
0.603217
0.598882
0.595148
0.591832
0.588775
0.585907
0.583199
0.580611