/*--------------------------------*- C++ -*----------------------------------*\
| =========                 |                                                 |
| \\      /  F ield         | OpenFOAM: The Open Source CFD Toolbox           |
|  \\    /   O peration     | Version:  2206                                  |
|   \\  /    A nd           | Website:  www.openfoam.com                      |
|    \\/     M anipulation  |                                                 |
\*---------------------------------------------------------------------------*/
FoamFile
{
    version     2.0;
    format      ascii;
    arch        "LSB;label=32;scalar=64";
    class       volVectorField;
    location    "20.0001";
    object      U_0;
}
// * * * * * * * * * * * * * * * * * * * * * * * * * * * * * * * * * * * * * //

dimensions      [0 1 -1 0 0 0 0];

internalField   nonuniform List<vector> 
4830
(
(1.47761 -0.000130077 0)
(1.47764 -0.000388741 0)
(1.47771 -0.00064474 0)
(1.47782 -0.000896762 0)
(1.47796 -0.00114358 0)
(1.47814 -0.00138407 0)
(1.47835 -0.00161723 0)
(1.4786 -0.00184211 0)
(1.47888 -0.00205788 0)
(1.47919 -0.00226382 0)
(1.47953 -0.00245931 0)
(1.4799 -0.00264384 0)
(1.48029 -0.002817 0)
(1.48072 -0.00297848 0)
(1.48117 -0.00312811 0)
(1.48164 -0.00326578 0)
(1.48214 -0.00339149 0)
(1.48265 -0.00350533 0)
(1.48319 -0.00360746 0)
(1.48375 -0.00369811 0)
(1.48432 -0.00377757 0)
(1.4849 -0.0038462 0)
(1.4855 -0.00390439 0)
(1.48612 -0.00395255 0)
(1.48674 -0.00399114 0)
(1.48737 -0.00402063 0)
(1.48801 -0.00404149 0)
(1.48866 -0.00405418 0)
(1.4893 -0.00405917 0)
(1.48996 -0.0040569 0)
(1.49061 -0.00404772 0)
(1.49126 -0.00403202 0)
(1.49191 -0.00401009 0)
(1.49256 -0.00398221 0)
(1.4932 -0.00394854 0)
(1.49383 -0.00390926 0)
(1.49445 -0.00386438 0)
(1.49507 -0.00381393 0)
(1.49567 -0.00375778 0)
(1.49625 -0.00369578 0)
(1.49682 -0.00362768 0)
(1.49738 -0.00355313 0)
(1.49791 -0.00347175 0)
(1.49842 -0.00338301 0)
(1.49891 -0.0032863 0)
(1.49937 -0.00318105 0)
(1.4998 -0.00306633 0)
(1.5002 -0.00294149 0)
(1.50058 -0.00280534 0)
(1.50091 -0.00265716 0)
(1.50122 -0.00249547 0)
(1.50148 -0.00231952 0)
(1.5017 -0.00212804 0)
(1.50188 -0.00191967 0)
(1.50201 -0.00169519 0)
(1.5021 -0.00144949 0)
(1.50213 -0.00118234 0)
(1.5021 -0.000891883 0)
(1.50202 -0.00057609 0)
(1.50187 -0.000232985 0)
(1.50166 0.000139545 0)
(1.50138 0.000543833 0)
(1.50102 0.000982413 0)
(1.50058 0.00145802 0)
(1.50006 0.00197362 0)
(1.49944 0.00253247 0)
(1.49873 0.00313813 0)
(1.49792 0.00379453 0)
(1.497 0.00450601 0)
(1.49596 0.00527739 0)
(1.49479 0.00611404 0)
(1.49348 0.00702195 0)
(1.49203 0.00800783 0)
(1.49042 0.00907922 0)
(1.48864 0.0102446 0)
(1.48668 0.0115137 0)
(1.48451 0.0128973 0)
(1.48213 0.0144078 0)
(1.47952 0.0160594 0)
(1.47666 0.0178681 0)
(1.47352 0.0198524 0)
(1.47008 0.0220334 0)
(1.46631 0.0244356 0)
(1.46219 0.0270871 0)
(1.45767 0.0300206 0)
(1.45273 0.0332741 0)
(1.44733 0.0368918 0)
(1.44141 0.0409255 0)
(1.43492 0.0454363 0)
(1.42782 0.0504958 0)
(1.42004 0.0561894 0)
(1.4115 0.0626183 0)
(1.40214 0.0699038 0)
(1.39187 0.0781916 0)
(1.3806 0.0876576 0)
(1.36822 0.0985157 0)
(1.35462 0.111027 0)
(1.3397 0.125513 0)
(1.32332 0.142372 0)
(1.30535 0.162101 0)
(1.28568 0.185325 0)
(1.26418 0.212844 0)
(1.24079 0.245685 0)
(1.21545 0.285207 0)
(1.18827 0.333214 0)
(1.15925 0.392282 0)
(1.1298 0.465895 0)
(1.09798 0.560199 0)
(1.08031 0.681844 0)
(1.03939 0.853696 0)
(1.18058 1.06641 0)
(1.07084 1.52095 0)
(1.47761 -0.000150662 0)
(1.47764 -0.00045023 0)
(1.47771 -0.000746962 0)
(1.47782 -0.00103932 0)
(1.47797 -0.00132592 0)
(1.47815 -0.00160548 0)
(1.47837 -0.00187686 0)
(1.47862 -0.00213899 0)
(1.47891 -0.00239093 0)
(1.47922 -0.00263183 0)
(1.47957 -0.00286099 0)
(1.47995 -0.00307782 0)
(1.48036 -0.00328183 0)
(1.48079 -0.00347266 0)
(1.48125 -0.00365008 0)
(1.48173 -0.00381395 0)
(1.48224 -0.00396424 0)
(1.48277 -0.004101 0)
(1.48331 -0.00422438 0)
(1.48388 -0.00433459 0)
(1.48446 -0.00443191 0)
(1.48506 -0.00451668 0)
(1.48567 -0.00458927 0)
(1.4863 -0.0046501 0)
(1.48693 -0.00469962 0)
(1.48757 -0.00473827 0)
(1.48822 -0.00476653 0)
(1.48888 -0.00478486 0)
(1.48954 -0.00479369 0)
(1.4902 -0.00479345 0)
(1.49087 -0.00478452 0)
(1.49153 -0.00476722 0)
(1.4922 -0.00474185 0)
(1.49285 -0.00470866 0)
(1.49351 -0.00466782 0)
(1.49415 -0.00461943 0)
(1.49479 -0.00456356 0)
(1.49541 -0.00450013 0)
(1.49603 -0.00442907 0)
(1.49663 -0.00435013 0)
(1.49721 -0.00426309 0)
(1.49778 -0.00416752 0)
(1.49832 -0.00406303 0)
(1.49885 -0.00394903 0)
(1.49935 -0.00382494 0)
(1.49982 -0.00368995 0)
(1.50027 -0.00354339 0)
(1.50069 -0.00338417 0)
(1.50108 -0.00321145 0)
(1.50144 -0.0030241 0)
(1.50176 -0.00282086 0)
(1.50204 -0.00260095 0)
(1.50228 -0.00236242 0)
(1.50248 -0.00210515 0)
(1.50263 -0.0018271 0)
(1.50274 -0.00152533 0)
(1.50279 -0.00119867 0)
(1.50279 -0.000845005 0)
(1.50274 -0.000462202 0)
(1.50262 -4.80804e-05 0)
(1.50244 0.00039978 0)
(1.50219 0.000884047 0)
(1.50187 0.00140761 0)
(1.50147 0.0019736 0)
(1.50099 0.00258544 0)
(1.50043 0.00324685 0)
(1.49977 0.00396193 0)
(1.49902 0.00473522 0)
(1.49816 0.00557169 0)
(1.49719 0.0064769 0)
(1.49609 0.00745701 0)
(1.49487 0.0085189 0)
(1.49352 0.00967027 0)
(1.49201 0.0109198 0)
(1.49035 0.0122771 0)
(1.48851 0.0137532 0)
(1.48649 0.0153604 0)
(1.48427 0.0171128 0)
(1.48184 0.0190263 0)
(1.47917 0.021119 0)
(1.47626 0.0234115 0)
(1.47307 0.0259275 0)
(1.46958 0.0286942 0)
(1.46578 0.0317426 0)
(1.46163 0.0351089 0)
(1.4571 0.0388345 0)
(1.45216 0.0429679 0)
(1.44678 0.0475651 0)
(1.4409 0.0526919 0)
(1.43451 0.0584254 0)
(1.42754 0.064856 0)
(1.41994 0.0720909 0)
(1.41168 0.080257 0)
(1.40269 0.0895055 0)
(1.39292 0.100017 0)
(1.38232 0.11201 0)
(1.37083 0.125746 0)
(1.35842 0.141545 0)
(1.34505 0.159797 0)
(1.33073 0.180979 0)
(1.31549 0.205685 0)
(1.29944 0.234656 0)
(1.28279 0.268823 0)
(1.26592 0.309379 0)
(1.24959 0.357863 0)
(1.23471 0.416314 0)
(1.22445 0.487395 0)
(1.21953 0.574865 0)
(1.23659 0.682345 0)
(1.26179 0.817481 0)
(1.36128 0.957343 0)
(1.493 1.23386 0)
(1.47761 -0.000171804 0)
(1.47764 -0.000513428 0)
(1.47771 -0.000852016 0)
(1.47783 -0.00118581 0)
(1.47798 -0.00151323 0)
(1.47817 -0.00183287 0)
(1.47839 -0.00214341 0)
(1.47865 -0.00244367 0)
(1.47894 -0.00273257 0)
(1.47927 -0.00300916 0)
(1.47963 -0.00327265 0)
(1.48002 -0.00352235 0)
(1.48043 -0.00375773 0)
(1.48088 -0.00397837 0)
(1.48135 -0.00418398 0)
(1.48184 -0.0043744 0)
(1.48236 -0.00454956 0)
(1.4829 -0.0047095 0)
(1.48346 -0.00485435 0)
(1.48404 -0.00498431 0)
(1.48464 -0.00509965 0)
(1.48525 -0.0052007 0)
(1.48587 -0.00528784 0)
(1.48651 -0.00536147 0)
(1.48716 -0.00542202 0)
(1.48781 -0.00546996 0)
(1.48848 -0.00550574 0)
(1.48915 -0.0055298 0)
(1.48982 -0.00554259 0)
(1.4905 -0.00554452 0)
(1.49118 -0.00553595 0)
(1.49186 -0.00551719 0)
(1.49253 -0.00548851 0)
(1.49321 -0.00545015 0)
(1.49387 -0.00540228 0)
(1.49453 -0.00534496 0)
(1.49518 -0.00527825 0)
(1.49582 -0.00520205 0)
(1.49645 -0.00511627 0)
(1.49707 -0.00502063 0)
(1.49767 -0.00491487 0)
(1.49825 -0.00479858 0)
(1.49881 -0.00467128 0)
(1.49935 -0.00453239 0)
(1.49987 -0.00438127 0)
(1.50036 -0.00421712 0)
(1.50083 -0.00403912 0)
(1.50127 -0.00384629 0)
(1.50168 -0.00363767 0)
(1.50205 -0.00341198 0)
(1.50239 -0.00316827 0)
(1.50269 -0.00290513 0)
(1.50296 -0.00262108 0)
(1.50318 -0.00231576 0)
(1.50336 -0.00198558 0)
(1.50349 -0.00162923 0)
(1.50357 -0.00124485 0)
(1.5036 -0.000830127 0)
(1.50358 -0.000382774 0)
(1.5035 9.96645e-05 0)
(1.50335 0.000619886 0)
(1.50314 0.00118084 0)
(1.50287 0.0017857 0)
(1.50252 0.00243796 0)
(1.50209 0.00314141 0)
(1.50158 0.00390021 0)
(1.50098 0.00471894 0)
(1.50029 0.00560264 0)
(1.49951 0.00655687 0)
(1.49861 0.00758781 0)
(1.49761 0.00870233 0)
(1.49649 0.00990807 0)
(1.49524 0.0112136 0)
(1.49385 0.0126284 0)
(1.49232 0.0141632 0)
(1.49063 0.0158301 0)
(1.48877 0.0176427 0)
(1.48673 0.0196162 0)
(1.4845 0.0217681 0)
(1.48205 0.024118 0)
(1.47939 0.0266883 0)
(1.47648 0.0295045 0)
(1.47331 0.0325955 0)
(1.46986 0.0359948 0)
(1.46611 0.0397405 0)
(1.46203 0.0438767 0)
(1.4576 0.0484539 0)
(1.4528 0.0535309 0)
(1.4476 0.0591758 0)
(1.44196 0.0654677 0)
(1.43586 0.0724991 0)
(1.42928 0.0803782 0)
(1.42218 0.0892321 0)
(1.41454 0.0992105 0)
(1.40634 0.110491 0)
(1.39758 0.123282 0)
(1.38825 0.137835 0)
(1.37838 0.154447 0)
(1.36802 0.173476 0)
(1.35729 0.195348 0)
(1.34633 0.220579 0)
(1.33543 0.249788 0)
(1.325 0.283722 0)
(1.31568 0.323269 0)
(1.30851 0.36949 0)
(1.30486 0.423553 0)
(1.30743 0.486798 0)
(1.31876 0.560097 0)
(1.34514 0.643717 0)
(1.39162 0.73951 0)
(1.45436 0.817492 0)
(1.59652 0.95749 0)
(1.47761 -0.000193625 0)
(1.47764 -0.000578685 0)
(1.47772 -0.000960484 0)
(1.47784 -0.00133702 0)
(1.47799 -0.00170654 0)
(1.47819 -0.00206743 0)
(1.47842 -0.00241826 0)
(1.47869 -0.00275767 0)
(1.47899 -0.00308446 0)
(1.47933 -0.0033976 0)
(1.4797 -0.00369617 0)
(1.4801 -0.00397943 0)
(1.48052 -0.00424676 0)
(1.48098 -0.00449772 0)
(1.48147 -0.00473196 0)
(1.48197 -0.0049493 0)
(1.48251 -0.00514965 0)
(1.48306 -0.00533304 0)
(1.48364 -0.00549959 0)
(1.48423 -0.0056495 0)
(1.48484 -0.00578303 0)
(1.48547 -0.00590052 0)
(1.48611 -0.00600233 0)
(1.48676 -0.00608888 0)
(1.48742 -0.0061606 0)
(1.48809 -0.00621793 0)
(1.48877 -0.00626134 0)
(1.48946 -0.00629126 0)
(1.49015 -0.00630813 0)
(1.49084 -0.00631234 0)
(1.49154 -0.00630426 0)
(1.49223 -0.00628418 0)
(1.49292 -0.00625235 0)
(1.49361 -0.00620898 0)
(1.4943 -0.00615424 0)
(1.49497 -0.00608818 0)
(1.49564 -0.00601082 0)
(1.4963 -0.00592208 0)
(1.49695 -0.00582179 0)
(1.49758 -0.00570973 0)
(1.4982 -0.00558553 0)
(1.4988 -0.00544884 0)
(1.49938 -0.00529909 0)
(1.49994 -0.00513574 0)
(1.50047 -0.00495803 0)
(1.50099 -0.00476527 0)
(1.50147 -0.00455646 0)
(1.50193 -0.00433076 0)
(1.50236 -0.00408697 0)
(1.50276 -0.003824 0)
(1.50312 -0.00354072 0)
(1.50345 -0.00323546 0)
(1.50374 -0.00290741 0)
(1.50399 -0.00255457 0)
(1.50419 -0.00217441 0)
(1.50435 -0.00176545 0)
(1.50447 -0.00132542 0)
(1.50453 -0.000851959 0)
(1.50454 -0.000342654 0)
(1.5045 0.000205169 0)
(1.5044 0.000794446 0)
(1.50423 0.00142837 0)
(1.504 0.00211038 0)
(1.5037 0.00284428 0)
(1.50333 0.00363417 0)
(1.50289 0.0044846 0)
(1.50236 0.00540054 0)
(1.50174 0.00638747 0)
(1.50104 0.00745145 0)
(1.50023 0.00859918 0)
(1.49933 0.00983812 0)
(1.49831 0.0111765 0)
(1.49718 0.0126236 0)
(1.49592 0.0141897 0)
(1.49453 0.0158863 0)
(1.493 0.0177263 0)
(1.49132 0.0197243 0)
(1.48948 0.0218965 0)
(1.48747 0.0242613 0)
(1.48527 0.0268396 0)
(1.48287 0.0296548 0)
(1.48027 0.0327337 0)
(1.47744 0.0361065 0)
(1.47437 0.0398077 0)
(1.47104 0.0438768 0)
(1.46745 0.0483587 0)
(1.46357 0.0533052 0)
(1.45938 0.0587753 0)
(1.45488 0.0648374 0)
(1.45003 0.0715703 0)
(1.44485 0.0790648 0)
(1.4393 0.0874264 0)
(1.43339 0.0967777 0)
(1.42713 0.107261 0)
(1.42051 0.119042 0)
(1.41358 0.132314 0)
(1.40637 0.147303 0)
(1.39897 0.164273 0)
(1.39149 0.183531 0)
(1.38411 0.205433 0)
(1.37708 0.230394 0)
(1.37077 0.258883 0)
(1.36568 0.291433 0)
(1.36255 0.328615 0)
(1.36239 0.371025 0)
(1.36659 0.419158 0)
(1.37699 0.473357 0)
(1.39621 0.533467 0)
(1.42618 0.597692 0)
(1.47515 0.668465 0)
(1.53524 0.725296 0)
(1.63356 0.804049 0)
(1.47761 -0.000216256 0)
(1.47764 -0.000646388 0)
(1.47772 -0.001073 0)
(1.47785 -0.00149384 0)
(1.47801 -0.00190692 0)
(1.47821 -0.00231048 0)
(1.47845 -0.00270288 0)
(1.47873 -0.00308264 0)
(1.47904 -0.00344842 0)
(1.47939 -0.00379907 0)
(1.47977 -0.00413358 0)
(1.48019 -0.00445115 0)
(1.48063 -0.00475109 0)
(1.4811 -0.00503292 0)
(1.4816 -0.00529627 0)
(1.48213 -0.00554092 0)
(1.48268 -0.0057668 0)
(1.48325 -0.00597392 0)
(1.48384 -0.0061624 0)
(1.48445 -0.00633245 0)
(1.48508 -0.00648434 0)
(1.48572 -0.0066184 0)
(1.48638 -0.00673501 0)
(1.48705 -0.0068346 0)
(1.48773 -0.00691758 0)
(1.48842 -0.00698442 0)
(1.48911 -0.00703557 0)
(1.48982 -0.00707147 0)
(1.49053 -0.00709253 0)
(1.49124 -0.00709916 0)
(1.49195 -0.0070917 0)
(1.49266 -0.00707044 0)
(1.49337 -0.00703561 0)
(1.49408 -0.00698742 0)
(1.49478 -0.00692599 0)
(1.49548 -0.0068514 0)
(1.49616 -0.00676361 0)
(1.49684 -0.00666255 0)
(1.49751 -0.00654804 0)
(1.49816 -0.0064198 0)
(1.4988 -0.00627754 0)
(1.49942 -0.00612076 0)
(1.50002 -0.00594901 0)
(1.5006 -0.0057616 0)
(1.50116 -0.00555791 0)
(1.50169 -0.00533705 0)
(1.5022 -0.00509819 0)
(1.50268 -0.0048403 0)
(1.50314 -0.00456227 0)
(1.50356 -0.00426303 0)
(1.50395 -0.00394112 0)
(1.5043 -0.00359524 0)
(1.50462 -0.0032243 0)
(1.5049 -0.00282543 0)
(1.50513 -0.00239722 0)
(1.50533 -0.00193761 0)
(1.50548 -0.00144421 0)
(1.50558 -0.000914634 0)
(1.50563 -0.000346284 0)
(1.50563 0.00026369 0)
(1.50557 0.000918405 0)
(1.50545 0.00162125 0)
(1.50528 0.0023759 0)
(1.50504 0.00318638 0)
(1.50473 0.0040571 0)
(1.50435 0.00499289 0)
(1.50389 0.00599905 0)
(1.50336 0.00708143 0)
(1.50274 0.00824649 0)
(1.50204 0.00950136 0)
(1.50124 0.0108539 0)
(1.50034 0.012313 0)
(1.49933 0.0138882 0)
(1.49822 0.0155906 0)
(1.49698 0.0174321 0)
(1.49562 0.0194264 0)
(1.49413 0.0215886 0)
(1.4925 0.0239356 0)
(1.49072 0.0264866 0)
(1.48878 0.0292629 0)
(1.48667 0.0322888 0)
(1.48439 0.0355916 0)
(1.48192 0.0392019 0)
(1.47925 0.0431548 0)
(1.47637 0.0474899 0)
(1.47328 0.0522519 0)
(1.46996 0.0574921 0)
(1.46641 0.0632687 0)
(1.46262 0.0696481 0)
(1.4586 0.0767063 0)
(1.45433 0.0845301 0)
(1.44983 0.093219 0)
(1.44511 0.102887 0)
(1.44019 0.113664 0)
(1.43512 0.1257 0)
(1.42995 0.139167 0)
(1.42476 0.154258 0)
(1.41967 0.171195 0)
(1.41484 0.190229 0)
(1.41048 0.211638 0)
(1.4069 0.23573 0)
(1.40449 0.262833 0)
(1.40378 0.293283 0)
(1.40548 0.327397 0)
(1.41049 0.36543 0)
(1.42001 0.407497 0)
(1.43543 0.453425 0)
(1.45879 0.502836 0)
(1.49142 0.553737 0)
(1.53761 0.60679 0)
(1.59702 0.652566 0)
(1.66939 0.694963 0)
(1.47761 -0.00023984 0)
(1.47764 -0.000716963 0)
(1.47773 -0.00119027 0)
(1.47786 -0.00165723 0)
(1.47803 -0.00211561 0)
(1.47824 -0.00256344 0)
(1.47849 -0.00299892 0)
(1.47878 -0.0034204 0)
(1.47911 -0.00382639 0)
(1.47947 -0.00421564 0)
(1.47986 -0.00458706 0)
(1.48029 -0.00493975 0)
(1.48075 -0.00527302 0)
(1.48124 -0.00558631 0)
(1.48176 -0.00587926 0)
(1.4823 -0.00615164 0)
(1.48287 -0.00640338 0)
(1.48346 -0.0066345 0)
(1.48407 -0.00684513 0)
(1.4847 -0.00703549 0)
(1.48535 -0.00720588 0)
(1.48601 -0.00735664 0)
(1.48668 -0.00748816 0)
(1.48737 -0.00760088 0)
(1.48807 -0.00769523 0)
(1.48878 -0.00777167 0)
(1.4895 -0.00783066 0)
(1.49022 -0.00787264 0)
(1.49095 -0.00789802 0)
(1.49168 -0.00790719 0)
(1.49241 -0.0079005 0)
(1.49315 -0.00787822 0)
(1.49388 -0.00784056 0)
(1.49461 -0.00778772 0)
(1.49533 -0.00771982 0)
(1.49604 -0.00763689 0)
(1.49675 -0.00753892 0)
(1.49745 -0.0074258 0)
(1.49814 -0.00729733 0)
(1.49881 -0.00715327 0)
(1.49947 -0.00699323 0)
(1.50011 -0.00681681 0)
(1.50074 -0.00662343 0)
(1.50134 -0.00641254 0)
(1.50192 -0.00618334 0)
(1.50248 -0.00593509 0)
(1.50302 -0.00566685 0)
(1.50353 -0.00537761 0)
(1.504 -0.00506631 0)
(1.50445 -0.00473173 0)
(1.50487 -0.00437241 0)
(1.50525 -0.00398735 0)
(1.5056 -0.00357442 0)
(1.50591 -0.00313165 0)
(1.50618 -0.00265735 0)
(1.50641 -0.00214922 0)
(1.5066 -0.00160492 0)
(1.50674 -0.00102198 0)
(1.50683 -0.000397675 0)
(1.50688 0.000270992 0)
(1.50687 0.000987272 0)
(1.50681 0.00175471 0)
(1.50669 0.00257715 0)
(1.50651 0.00345884 0)
(1.50627 0.00440438 0)
(1.50596 0.00541885 0)
(1.50558 0.00650781 0)
(1.50514 0.00767739 0)
(1.50461 0.00893433 0)
(1.50401 0.0102861 0)
(1.50332 0.0117409 0)
(1.50255 0.013308 0)
(1.50168 0.0149973 0)
(1.50071 0.0168202 0)
(1.49964 0.0187891 0)
(1.49847 0.020918 0)
(1.49717 0.0232224 0)
(1.49576 0.0257196 0)
(1.49423 0.0284291 0)
(1.49256 0.0313724 0)
(1.49075 0.034574 0)
(1.4888 0.0380612 0)
(1.4867 0.0418646 0)
(1.48444 0.0460187 0)
(1.48202 0.0505624 0)
(1.47944 0.0555395 0)
(1.4767 0.0609995 0)
(1.47379 0.0669982 0)
(1.47073 0.0735986 0)
(1.46751 0.0808722 0)
(1.46415 0.0888994 0)
(1.46067 0.0977713 0)
(1.4571 0.107591 0)
(1.45349 0.118473 0)
(1.44989 0.130549 0)
(1.44638 0.143962 0)
(1.44306 0.158875 0)
(1.44007 0.175465 0)
(1.4376 0.193925 0)
(1.43588 0.214457 0)
(1.43522 0.237274 0)
(1.43601 0.262579 0)
(1.43876 0.290555 0)
(1.4441 0.321332 0)
(1.45281 0.354943 0)
(1.46585 0.391275 0)
(1.4843 0.42993 0)
(1.50952 0.470302 0)
(1.54261 0.510814 0)
(1.58495 0.550241 0)
(1.63754 0.584543 0)
(1.69759 0.610525 0)
(1.47761 -0.000264541 0)
(1.47765 -0.000790889 0)
(1.47773 -0.00131309 0)
(1.47787 -0.00182827 0)
(1.47805 -0.00233394 0)
(1.47827 -0.00282792 0)
(1.47853 -0.00330819 0)
(1.47884 -0.00377293 0)
(1.47918 -0.00422052 0)
(1.47956 -0.00464957 0)
(1.47997 -0.00505894 0)
(1.48042 -0.00544766 0)
(1.4809 -0.00581498 0)
(1.4814 -0.00616036 0)
(1.48194 -0.00648342 0)
(1.4825 -0.00678393 0)
(1.48309 -0.00706185 0)
(1.4837 -0.00731721 0)
(1.48433 -0.00755018 0)
(1.48498 -0.00776101 0)
(1.48565 -0.00795001 0)
(1.48633 -0.00811756 0)
(1.48703 -0.00826407 0)
(1.48774 -0.00839 0)
(1.48846 -0.00849579 0)
(1.48919 -0.00858192 0)
(1.48993 -0.00864884 0)
(1.49068 -0.008697 0)
(1.49143 -0.00872682 0)
(1.49218 -0.00873866 0)
(1.49294 -0.00873288 0)
(1.49369 -0.00870973 0)
(1.49444 -0.00866942 0)
(1.49519 -0.00861212 0)
(1.49594 -0.00853795 0)
(1.49668 -0.00844692 0)
(1.49741 -0.00833902 0)
(1.49813 -0.0082141 0)
(1.49884 -0.00807199 0)
(1.49954 -0.0079124 0)
(1.50022 -0.00773499 0)
(1.50089 -0.00753929 0)
(1.50154 -0.0073248 0)
(1.50217 -0.00709086 0)
(1.50278 -0.0068368 0)
(1.50336 -0.00656179 0)
(1.50392 -0.00626492 0)
(1.50446 -0.00594521 0)
(1.50497 -0.00560157 0)
(1.50544 -0.00523267 0)
(1.50589 -0.00483736 0)
(1.50631 -0.00441421 0)
(1.50669 -0.00396092 0)
(1.50703 -0.00347613 0)
(1.50734 -0.00295769 0)
(1.50761 -0.00240335 0)
(1.50783 -0.00181077 0)
(1.50802 -0.00117739 0)
(1.50816 -0.000500381 0)
(1.50825 0.000223327 0)
(1.50829 0.000997089 0)
(1.50829 0.00182456 0)
(1.50823 0.00270972 0)
(1.50811 0.00365695 0)
(1.50794 0.00467102 0)
(1.50771 0.00575717 0)
(1.50742 0.00692116 0)
(1.50706 0.0081693 0)
(1.50664 0.00950855 0)
(1.50614 0.0109466 0)
(1.50558 0.0124919 0)
(1.50493 0.0141537 0)
(1.5042 0.0159426 0)
(1.50339 0.0178698 0)
(1.5025 0.019948 0)
(1.50151 0.0221915 0)
(1.50042 0.0246157 0)
(1.49924 0.0272382 0)
(1.49795 0.0300782 0)
(1.49656 0.0331574 0)
(1.49506 0.0364997 0)
(1.49345 0.0401321 0)
(1.49173 0.0440844 0)
(1.48989 0.0483902 0)
(1.48793 0.0530869 0)
(1.48587 0.0582164 0)
(1.4837 0.0638253 0)
(1.48143 0.0699662 0)
(1.47907 0.0766974 0)
(1.47664 0.0840844 0)
(1.47417 0.0922 0)
(1.47167 0.101125 0)
(1.46921 0.11095 0)
(1.46682 0.121774 0)
(1.46458 0.133706 0)
(1.46259 0.146865 0)
(1.46096 0.161378 0)
(1.45984 0.17738 0)
(1.45942 0.195011 0)
(1.45994 0.214409 0)
(1.46169 0.235703 0)
(1.46504 0.258999 0)
(1.47045 0.284365 0)
(1.47844 0.311801 0)
(1.48965 0.341201 0)
(1.50482 0.372313 0)
(1.52473 0.404652 0)
(1.55022 0.437488 0)
(1.58202 0.469602 0)
(1.62054 0.499503 0)
(1.66611 0.525066 0)
(1.71776 0.544192 0)
(1.47761 -0.000290533 0)
(1.47765 -0.000868703 0)
(1.47774 -0.00144233 0)
(1.47788 -0.00200819 0)
(1.47807 -0.00256346 0)
(1.47831 -0.00310571 0)
(1.47858 -0.0036327 0)
(1.4789 -0.00414243 0)
(1.47926 -0.00463315 0)
(1.47966 -0.00510334 0)
(1.48009 -0.00555178 0)
(1.48056 -0.00597746 0)
(1.48106 -0.00637962 0)
(1.48159 -0.00675771 0)
(1.48215 -0.00711136 0)
(1.48273 -0.00744039 0)
(1.48334 -0.00774476 0)
(1.48398 -0.00802457 0)
(1.48463 -0.00828003 0)
(1.48531 -0.00851143 0)
(1.486 -0.00871912 0)
(1.4867 -0.00890352 0)
(1.48742 -0.00906507 0)
(1.48816 -0.00920425 0)
(1.4889 -0.00932153 0)
(1.48966 -0.0094174 0)
(1.49042 -0.00949232 0)
(1.49119 -0.00954675 0)
(1.49196 -0.0095811 0)
(1.49274 -0.00959574 0)
(1.49352 -0.00959101 0)
(1.4943 -0.00956716 0)
(1.49507 -0.00952437 0)
(1.49585 -0.00946282 0)
(1.49662 -0.00938259 0)
(1.49738 -0.00928371 0)
(1.49814 -0.00916612 0)
(1.49888 -0.0090297 0)
(1.49962 -0.00887425 0)
(1.50034 -0.0086995 0)
(1.50105 -0.00850506 0)
(1.50175 -0.00829054 0)
(1.50242 -0.00805536 0)
(1.50308 -0.00779895 0)
(1.50371 -0.00752059 0)
(1.50433 -0.00721949 0)
(1.50492 -0.00689476 0)
(1.50548 -0.00654544 0)
(1.50602 -0.00617037 0)
(1.50653 -0.00576836 0)
(1.50701 -0.00533828 0)
(1.50746 -0.00487816 0)
(1.50788 -0.00438647 0)
(1.50826 -0.00386145 0)
(1.5086 -0.00330095 0)
(1.50891 -0.0027028 0)
(1.50918 -0.00206462 0)
(1.50941 -0.00138379 0)
(1.5096 -0.000657461 0)
(1.50974 0.000117507 0)
(1.50984 0.000944521 0)
(1.50989 0.0018273 0)
(1.5099 0.00276993 0)
(1.50985 0.00377685 0)
(1.50975 0.00485295 0)
(1.5096 0.00600357 0)
(1.5094 0.00723457 0)
(1.50914 0.0085524 0)
(1.50882 0.00996413 0)
(1.50843 0.0114775 0)
(1.50799 0.0131012 0)
(1.50748 0.0148446 0)
(1.5069 0.0167181 0)
(1.50625 0.0187332 0)
(1.50552 0.0209026 0)
(1.50473 0.0232404 0)
(1.50386 0.0257621 0)
(1.5029 0.0284848 0)
(1.50188 0.0314277 0)
(1.50077 0.0346119 0)
(1.49958 0.0380607 0)
(1.49831 0.0418 0)
(1.49696 0.0458587 0)
(1.49553 0.0502686 0)
(1.49404 0.0550651 0)
(1.49249 0.0602875 0)
(1.49088 0.0659792 0)
(1.48923 0.0721882 0)
(1.48756 0.0789678 0)
(1.48589 0.0863763 0)
(1.48426 0.0944781 0)
(1.4827 0.103344 0)
(1.48126 0.113049 0)
(1.48 0.123678 0)
(1.47902 0.135318 0)
(1.47839 0.148063 0)
(1.47825 0.162008 0)
(1.47875 0.177251 0)
(1.48008 0.193885 0)
(1.48245 0.211993 0)
(1.48615 0.23164 0)
(1.49149 0.252861 0)
(1.49887 0.27564 0)
(1.50871 0.299895 0)
(1.52152 0.325444 0)
(1.53782 0.351972 0)
(1.55817 0.378989 0)
(1.58308 0.405801 0)
(1.61296 0.43146 0)
(1.64798 0.454806 0)
(1.68802 0.474457 0)
(1.73254 0.489049 0)
(1.47761 -0.000318019 0)
(1.47765 -0.000951044 0)
(1.47775 -0.00157907 0)
(1.4779 -0.0021984 0)
(1.4781 -0.0028059 0)
(1.47835 -0.00339882 0)
(1.47864 -0.00397471 0)
(1.47898 -0.00453137 0)
(1.47935 -0.00506689 0)
(1.47977 -0.00557966 0)
(1.48023 -0.00606837 0)
(1.48072 -0.006532 0)
(1.48124 -0.00696977 0)
(1.4818 -0.00738117 0)
(1.48238 -0.00776586 0)
(1.48299 -0.00812373 0)
(1.48363 -0.0084548 0)
(1.48429 -0.00875921 0)
(1.48497 -0.00903725 0)
(1.48567 -0.00928926 0)
(1.48638 -0.00951565 0)
(1.48712 -0.00971689 0)
(1.48786 -0.00989348 0)
(1.48862 -0.0100459 0)
(1.48939 -0.0101747 0)
(1.49017 -0.0102803 0)
(1.49096 -0.0103633 0)
(1.49175 -0.0104241 0)
(1.49255 -0.010463 0)
(1.49336 -0.0104806 0)
(1.49416 -0.0104771 0)
(1.49496 -0.0104527 0)
(1.49577 -0.0104076 0)
(1.49657 -0.010342 0)
(1.49737 -0.0102559 0)
(1.49816 -0.0101494 0)
(1.49894 -0.0100224 0)
(1.49971 -0.00987481 0)
(1.50048 -0.00970634 0)
(1.50123 -0.00951675 0)
(1.50196 -0.0093057 0)
(1.50269 -0.00907273 0)
(1.50339 -0.00881736 0)
(1.50408 -0.00853899 0)
(1.50474 -0.00823693 0)
(1.50539 -0.00791041 0)
(1.50601 -0.00755858 0)
(1.5066 -0.00718048 0)
(1.50718 -0.00677497 0)
(1.50772 -0.00634105 0)
(1.50823 -0.00587719 0)
(1.50872 -0.00538175 0)
(1.50917 -0.0048533 0)
(1.50959 -0.00428989 0)
(1.50997 -0.00368949 0)
(1.51032 -0.00304996 0)
(1.51064 -0.00236892 0)
(1.51091 -0.00164373 0)
(1.51115 -0.000871518 0)
(1.51135 -4.91592e-05 0)
(1.51151 0.000826775 0)
(1.51162 0.00176004 0)
(1.51169 0.00275475 0)
(1.51172 0.0038154 0)
(1.5117 0.00494689 0)
(1.51163 0.00615461 0)
(1.51151 0.00744449 0)
(1.51135 0.00882299 0)
(1.51113 0.0102972 0)
(1.51087 0.011875 0)
(1.51054 0.0135649 0)
(1.51017 0.0153763 0)
(1.50974 0.0173196 0)
(1.50925 0.0194062 0)
(1.50871 0.0216487 0)
(1.50811 0.0240608 0)
(1.50745 0.0266578 0)
(1.50673 0.0294564 0)
(1.50596 0.0324752 0)
(1.50513 0.0357343 0)
(1.50425 0.0392564 0)
(1.50332 0.043066 0)
(1.50235 0.0471904 0)
(1.50133 0.0516595 0)
(1.50029 0.0565061 0)
(1.49923 0.0617665 0)
(1.49816 0.0674801 0)
(1.49711 0.0736904 0)
(1.4961 0.0804444 0)
(1.49515 0.0877936 0)
(1.49431 0.0957933 0)
(1.49361 0.104503 0)
(1.49312 0.113986 0)
(1.4929 0.124309 0)
(1.49303 0.135542 0)
(1.49362 0.147753 0)
(1.49478 0.161012 0)
(1.49667 0.175382 0)
(1.49945 0.19092 0)
(1.50334 0.207665 0)
(1.50856 0.225635 0)
(1.51541 0.24481 0)
(1.5242 0.265128 0)
(1.53528 0.286455 0)
(1.54902 0.308577 0)
(1.5658 0.331171 0)
(1.586 0.353784 0)
(1.60993 0.375818 0)
(1.63778 0.396524 0)
(1.66958 0.415018 0)
(1.7051 0.4303 0)
(1.74377 0.441384 0)
(1.47761 -0.000347246 0)
(1.47765 -0.00103865 0)
(1.47776 -0.00172448 0)
(1.47792 -0.00240051 0)
(1.47813 -0.00306324 0)
(1.4784 -0.0037096 0)
(1.47871 -0.00433685 0)
(1.47906 -0.00494256 0)
(1.47946 -0.00552469 0)
(1.47991 -0.00608155 0)
(1.48039 -0.00661178 0)
(1.4809 -0.00711434 0)
(1.48145 -0.0075885 0)
(1.48204 -0.00803377 0)
(1.48265 -0.0084499 0)
(1.48329 -0.00883685 0)
(1.48395 -0.00919474 0)
(1.48464 -0.00952382 0)
(1.48535 -0.00982443 0)
(1.48607 -0.010097 0)
(1.48682 -0.0103421 0)
(1.48758 -0.0105601 0)
(1.48835 -0.0107516 0)
(1.48914 -0.0109173 0)
(1.48994 -0.0110575 0)
(1.49074 -0.0111729 0)
(1.49156 -0.011264 0)
(1.49238 -0.0113311 0)
(1.49321 -0.0113748 0)
(1.49404 -0.0113954 0)
(1.49487 -0.0113932 0)
(1.4957 -0.0113684 0)
(1.49653 -0.0113213 0)
(1.49736 -0.0112518 0)
(1.49819 -0.0111601 0)
(1.49901 -0.0110463 0)
(1.49982 -0.0109102 0)
(1.50062 -0.0107516 0)
(1.50141 -0.0105704 0)
(1.50219 -0.0103664 0)
(1.50296 -0.010139 0)
(1.50371 -0.00988806 0)
(1.50445 -0.00961295 0)
(1.50517 -0.00931311 0)
(1.50586 -0.00898792 0)
(1.50654 -0.00863663 0)
(1.50719 -0.00825843 0)
(1.50782 -0.00785235 0)
(1.50843 -0.00741745 0)
(1.50901 -0.00695259 0)
(1.50956 -0.00645616 0)
(1.51008 -0.00592697 0)
(1.51057 -0.00536334 0)
(1.51103 -0.00476342 0)
(1.51146 -0.00412528 0)
(1.51185 -0.00344681 0)
(1.51221 -0.00272563 0)
(1.51254 -0.00195916 0)
(1.51283 -0.00114455 0)
(1.51308 -0.000278704 0)
(1.51329 0.000641797 0)
(1.51347 0.00162069 0)
(1.51361 0.00266208 0)
(1.51371 0.00377042 0)
(1.51376 0.00495063 0)
(1.51378 0.00620808 0)
(1.51376 0.00754865 0)
(1.51369 0.0089788 0)
(1.51358 0.0105056 0)
(1.51343 0.0121367 0)
(1.51324 0.0138807 0)
(1.513 0.0157468 0)
(1.51272 0.0177453 0)
(1.5124 0.0198872 0)
(1.51203 0.022185 0)
(1.51163 0.0246518 0)
(1.51118 0.0273026 0)
(1.5107 0.0301534 0)
(1.51018 0.0332219 0)
(1.50963 0.0365275 0)
(1.50906 0.0400913 0)
(1.50846 0.0439366 0)
(1.50785 0.0480887 0)
(1.50723 0.0525752 0)
(1.50663 0.0574262 0)
(1.50604 0.0626745 0)
(1.5055 0.0683555 0)
(1.50501 0.0745074 0)
(1.50462 0.0811715 0)
(1.50435 0.0883918 0)
(1.50424 0.0962149 0)
(1.50434 0.10469 0)
(1.5047 0.113867 0)
(1.50541 0.123799 0)
(1.50653 0.134538 0)
(1.50817 0.146132 0)
(1.51045 0.158626 0)
(1.5135 0.172059 0)
(1.51748 0.186456 0)
(1.52257 0.201825 0)
(1.52897 0.218148 0)
(1.53693 0.235374 0)
(1.5467 0.253407 0)
(1.55855 0.272096 0)
(1.57275 0.291217 0)
(1.58959 0.310466 0)
(1.60928 0.32944 0)
(1.63203 0.34764 0)
(1.65789 0.364467 0)
(1.68681 0.379245 0)
(1.71852 0.391256 0)
(1.75255 0.399817 0)
(1.47761 -0.000378488 0)
(1.47766 -0.00113244 0)
(1.47777 -0.00187993 0)
(1.47794 -0.00261638 0)
(1.47817 -0.00333785 0)
(1.47845 -0.00404073 0)
(1.47878 -0.00472206 0)
(1.47916 -0.0053792 0)
(1.47959 -0.00600994 0)
(1.48006 -0.00661248 0)
(1.48057 -0.00718545 0)
(1.48111 -0.00772787 0)
(1.48169 -0.00823907 0)
(1.48231 -0.00871869 0)
(1.48295 -0.00916658 0)
(1.48362 -0.00958278 0)
(1.48431 -0.00996754 0)
(1.48503 -0.0103212 0)
(1.48577 -0.0106443 0)
(1.48653 -0.0109373 0)
(1.4873 -0.0112008 0)
(1.48809 -0.0114355 0)
(1.4889 -0.0116419 0)
(1.48971 -0.0118206 0)
(1.49054 -0.0119722 0)
(1.49138 -0.0120973 0)
(1.49222 -0.0121965 0)
(1.49307 -0.01227 0)
(1.49393 -0.0123185 0)
(1.49479 -0.0123422 0)
(1.49565 -0.0123415 0)
(1.49651 -0.0123165 0)
(1.49737 -0.0122674 0)
(1.49823 -0.0121944 0)
(1.49909 -0.0120974 0)
(1.49994 -0.0119764 0)
(1.50078 -0.0118314 0)
(1.50161 -0.0116622 0)
(1.50244 -0.0114686 0)
(1.50325 -0.0112504 0)
(1.50405 -0.0110072 0)
(1.50483 -0.0107386 0)
(1.5056 -0.0104442 0)
(1.50635 -0.0101234 0)
(1.50708 -0.00977561 0)
(1.50779 -0.00940017 0)
(1.50848 -0.00899628 0)
(1.50915 -0.00856307 0)
(1.50979 -0.00809969 0)
(1.5104 -0.00760477 0)
(1.51099 -0.0070772 0)
(1.51155 -0.00651561 0)
(1.51208 -0.00591838 0)
(1.51258 -0.00528382 0)
(1.51305 -0.00461007 0)
(1.51349 -0.00389505 0)
(1.5139 -0.00313647 0)
(1.51427 -0.0023318 0)
(1.51462 -0.00147827 0)
(1.51493 -0.000572823 0)
(1.5152 0.00038787 0)
(1.51544 0.00140753 0)
(1.51565 0.00249018 0)
(1.51582 0.00364022 0)
(1.51596 0.00486248 0)
(1.51606 0.00616229 0)
(1.51613 0.00754543 0)
(1.51616 0.00901825 0)
(1.51616 0.0105877 0)
(1.51613 0.0122614 0)
(1.51606 0.0140475 0)
(1.51596 0.0159553 0)
(1.51583 0.0179945 0)
(1.51567 0.0201761 0)
(1.51549 0.0225117 0)
(1.51527 0.0250145 0)
(1.51504 0.0276983 0)
(1.51479 0.0305787 0)
(1.51452 0.0336722 0)
(1.51424 0.0369971 0)
(1.51396 0.0405732 0)
(1.51369 0.0444219 0)
(1.51343 0.0485666 0)
(1.5132 0.0530324 0)
(1.513 0.0578464 0)
(1.51287 0.0630379 0)
(1.51282 0.068638 0)
(1.51287 0.0746799 0)
(1.51305 0.081199 0)
(1.5134 0.088232 0)
(1.51396 0.0958174 0)
(1.51478 0.103994 0)
(1.51592 0.112802 0)
(1.51745 0.12228 0)
(1.51944 0.132464 0)
(1.52199 0.143386 0)
(1.52521 0.155073 0)
(1.52921 0.16754 0)
(1.53416 0.180792 0)
(1.54019 0.194812 0)
(1.54748 0.20956 0)
(1.55624 0.224965 0)
(1.56665 0.240917 0)
(1.57893 0.257258 0)
(1.59327 0.273774 0)
(1.60987 0.290186 0)
(1.62887 0.30615 0)
(1.65037 0.321253 0)
(1.67436 0.335021 0)
(1.70074 0.346943 0)
(1.72927 0.3565 0)
(1.75956 0.363213 0)
(1.47761 -0.000412164 0)
(1.47766 -0.00123337 0)
(1.47778 -0.00204708 0)
(1.47797 -0.00284839 0)
(1.47822 -0.00363258 0)
(1.47852 -0.00439548 0)
(1.47887 -0.00513373 0)
(1.47928 -0.00584478 0)
(1.47974 -0.00652624 0)
(1.48024 -0.00717619 0)
(1.48078 -0.00779325 0)
(1.48135 -0.00837648 0)
(1.48197 -0.00892532 0)
(1.48262 -0.00943957 0)
(1.48329 -0.00991926 0)
(1.484 -0.0103646 0)
(1.48472 -0.0107761 0)
(1.48547 -0.0111542 0)
(1.48625 -0.0114996 0)
(1.48704 -0.0118127 0)
(1.48784 -0.0120945 0)
(1.48867 -0.0123455 0)
(1.4895 -0.0125665 0)
(1.49035 -0.0127581 0)
(1.49121 -0.012921 0)
(1.49208 -0.0130558 0)
(1.49295 -0.0131629 0)
(1.49383 -0.0132429 0)
(1.49472 -0.0132962 0)
(1.49561 -0.0133232 0)
(1.4965 -0.013324 0)
(1.4974 -0.013299 0)
(1.49829 -0.0132483 0)
(1.49918 -0.0131718 0)
(1.50007 -0.0130697 0)
(1.50095 -0.0129419 0)
(1.50183 -0.0127883 0)
(1.5027 -0.0126088 0)
(1.50355 -0.0124031 0)
(1.5044 -0.0121711 0)
(1.50523 -0.0119123 0)
(1.50605 -0.0116264 0)
(1.50685 -0.0113131 0)
(1.50764 -0.0109718 0)
(1.5084 -0.0106019 0)