/*--------------------------------*- C++ -*----------------------------------*\
| =========                 |                                                 |
| \\      /  F ield         | OpenFOAM: The Open Source CFD Toolbox           |
|  \\    /   O peration     | Version:  2206                                  |
|   \\  /    A nd           | Website:  www.openfoam.com                      |
|    \\/     M anipulation  |                                                 |
\*---------------------------------------------------------------------------*/
FoamFile
{
    version     2.0;
    format      ascii;
    arch        "LSB;label=32;scalar=64";
    class       surfaceScalarField;
    location    "18.9";
    object      phi;
}
// * * * * * * * * * * * * * * * * * * * * * * * * * * * * * * * * * * * * * //

dimensions      [0 3 -1 0 0 0 0];

oriented        oriented;

internalField   nonuniform List<scalar> 
3559
(
5.29726e-06
4.99776e-07
-5.90041e-07
5.39839e-06
5.63885e-07
-6.65015e-07
5.5077e-06
6.04577e-07
-7.13881e-07
5.62255e-06
6.20572e-07
-7.35424e-07
5.74063e-06
6.11284e-07
-7.29361e-07
5.86013e-06
5.76702e-07
-6.96201e-07
5.9797e-06
5.17665e-07
-6.37239e-07
6.09815e-06
4.36303e-07
-5.54754e-07
6.21246e-06
3.3729e-07
-4.51603e-07
6.3167e-06
2.27384e-07
-3.31624e-07
6.40331e-06
1.146e-07
-2.01209e-07
6.46584e-06
5.82453e-09
-6.83535e-08
6.49974e-06
-9.3221e-08
5.93215e-08
6.50161e-06
-1.77884e-07
1.76014e-07
6.46742e-06
-2.42932e-07
2.77125e-07
6.39654e-06
-2.86648e-07
3.57524e-07
6.29395e-06
-3.10927e-07
4.13524e-07
6.17006e-06
-3.21316e-07
4.45206e-07
6.0375e-06
-3.24516e-07
4.57073e-07
5.9071e-06
-3.2581e-07
4.56214e-07
5.78522e-06
-3.2763e-07
4.49506e-07
5.67478e-06
-3.30127e-07
4.40567e-07
5.57682e-06
-3.31623e-07
4.29581e-07
5.49129e-06
-3.29333e-07
4.14863e-07
5.41768e-06
-3.20221e-07
3.93836e-07
5.35573e-06
-3.01564e-07
3.6351e-07
5.30592e-06
-2.7132e-07
3.21129e-07
5.26871e-06
-2.28514e-07
2.65725e-07
5.24442e-06
-1.73275e-07
1.9757e-07
5.23326e-06
-1.06804e-07
1.17963e-07
5.23532e-06
-3.16613e-08
2.9602e-08
5.25044e-06
4.83521e-08
-6.34784e-08
5.27762e-06
1.28526e-07
-1.55704e-07
5.31548e-06
2.04042e-07
-2.41904e-07
5.3625e-06
2.71263e-07
-3.18278e-07
5.41702e-06
3.27339e-07
-3.81865e-07
5.47754e-06
3.70135e-07
-4.30648e-07
5.54265e-06
3.9829e-07
-4.63403e-07
5.61094e-06
4.11213e-07
-4.79505e-07
5.68103e-06
4.08674e-07
-4.78765e-07
5.75174e-06
3.90722e-07
-4.6143e-07
5.82188e-06
3.57869e-07
-4.28011e-07
5.89013e-06
3.11381e-07
-3.79632e-07
5.9544e-06
2.53815e-07
-3.18084e-07
6.01158e-06
1.88624e-07
-2.45803e-07
6.05813e-06
1.19723e-07
-1.66272e-07
6.09115e-06
5.03889e-08
-8.34064e-08
6.10872e-06
-1.64944e-08
-1.07172e-09
6.10981e-06
-7.84866e-08
7.73935e-08
6.094e-06
-1.33326e-07
1.49135e-07
6.06154e-06
-1.79157e-07
2.11616e-07
6.01424e-06
-2.15411e-07
2.62706e-07
5.95529e-06
-2.4269e-07
3.01643e-07
5.8887e-06
-2.62193e-07
3.28787e-07
5.81855e-06
-2.75083e-07
3.45226e-07
5.74827e-06
-2.82057e-07
3.52343e-07
5.68025e-06
-2.83285e-07
3.51305e-07
5.61617e-06
-2.78481e-07
3.42563e-07
5.55736e-06
-2.67075e-07
3.25879e-07
5.50502e-06
-2.48447e-07
3.00789e-07
5.46023e-06
-2.22102e-07
2.66891e-07
5.42396e-06
-1.87813e-07
2.24085e-07
5.39693e-06
-1.45756e-07
1.72784e-07
5.37961e-06
-9.66516e-08
1.13975e-07
5.37231e-06
-4.2022e-08
4.93229e-08
5.37509e-06
1.58675e-08
-1.86517e-08
5.38741e-06
7.39212e-08
-8.62393e-08
5.40834e-06
1.29089e-07
-1.50025e-07
5.43669e-06
1.78877e-07
-2.07225e-07
5.47107e-06
2.212e-07
-2.55574e-07
5.5101e-06
2.54465e-07
-2.93496e-07
5.55258e-06
2.7762e-07
-3.20099e-07
5.59739e-06
2.90221e-07
-3.35035e-07
5.64341e-06
2.92276e-07
-3.38295e-07
5.68959e-06
2.83971e-07
-3.3015e-07
5.73493e-06
2.65705e-07
-3.11048e-07
5.77842e-06
2.38274e-07
-2.81762e-07
5.81893e-06
2.03008e-07
-2.43518e-07
5.85502e-06
1.61723e-07
-1.97819e-07
5.88508e-06
1.16412e-07
-1.46469e-07
5.90762e-06
6.90836e-08
-9.16239e-08
5.92168e-06
2.15404e-08
-3.56016e-08
5.92674e-06
-2.45082e-08
1.94548e-08
5.92261e-06
-6.75445e-08
7.16734e-08
5.90937e-06
-1.06152e-07
1.19392e-07
5.88733e-06
-1.39114e-07
1.61152e-07
5.85741e-06
-1.65824e-07
1.95743e-07
5.82113e-06
-1.8605e-07
2.22325e-07
5.78033e-06
-1.99873e-07
2.40675e-07
5.7369e-06
-2.07547e-07
2.50983e-07
5.69261e-06
-2.09349e-07
2.53638e-07
5.64904e-06
-2.05525e-07
2.49095e-07
5.60757e-06
-1.96214e-07
2.37682e-07
5.56941e-06
-1.81475e-07
2.19634e-07
5.5356e-06
-1.61431e-07
1.95243e-07
5.50703e-06
-1.36306e-07
1.64877e-07
5.48442e-06
-1.06469e-07
1.29071e-07
5.46834e-06
-7.24901e-08
8.85738e-08
5.45921e-06
-3.5292e-08
4.44267e-08
5.45728e-06
3.70749e-09
-1.77697e-09
5.46238e-06
4.2687e-08
-4.7789e-08
5.47404e-06
7.98788e-08
-9.15404e-08
5.49153e-06
1.13638e-07
-1.31132e-07
5.51396e-06
1.42514e-07
-1.64941e-07
5.54039e-06
1.65332e-07
-1.9176e-07
5.5699e-06
1.81327e-07
-2.10839e-07
5.60156e-06
1.90192e-07
-2.21848e-07
5.63446e-06
1.91876e-07
-2.24783e-07
5.66782e-06
1.8649e-07
-2.19848e-07
5.70084e-06
1.74298e-07
-2.07312e-07
5.73269e-06
1.55834e-07
-1.87691e-07
5.76254e-06
1.32019e-07
-1.61866e-07
5.78936e-06
1.04094e-07
-1.30912e-07
5.81206e-06
7.34315e-08
-9.61345e-08
5.82973e-06
4.13584e-08
-5.90263e-08
5.84178e-06
9.10703e-09
-2.11609e-08
5.84792e-06
-2.2182e-08
1.60479e-08
5.84807e-06
-5.14963e-08
5.13435e-08
5.84236e-06
-7.78995e-08
8.3608e-08
5.83098e-06
-1.00506e-07
1.11889e-07
5.81425e-06
-1.18653e-07
1.35378e-07
5.79292e-06
-1.32086e-07
1.5342e-07
5.76795e-06
-1.40712e-07
1.6568e-07
1.72228e-07
4.92956e-06
4.06127e-07
5.0372e-06
4.56248e-07
5.15636e-06
4.85417e-07
5.28487e-06
4.9206e-07
5.42072e-06
4.75438e-07
5.56157e-06
4.35853e-07
5.70332e-06
3.75915e-07
5.83899e-06
3.00625e-07
5.95963e-06
2.16656e-07
6.05648e-06
1.30532e-07
6.1233e-06
4.77796e-08
6.15647e-06
-2.73427e-08
6.15343e-06
-9.01795e-08
6.11309e-06
-1.37547e-07
6.0391e-06
-1.68944e-07
5.93987e-06
-1.87418e-07
5.82657e-06
-1.97623e-07
5.70958e-06
-2.04325e-07
5.59593e-06
-2.10872e-07
5.48903e-06
-2.18907e-07
5.38999e-06
-2.28587e-07
5.29859e-06
-2.38731e-07
5.21415e-06
-2.47189e-07
5.13617e-06
-2.51346e-07
5.06462e-06
-2.48679e-07
5.00025e-06
-2.37193e-07
4.94454e-06
-2.15607e-07
4.89932e-06
-1.83296e-07
4.86635e-06
-1.40308e-07
4.84693e-06
-8.73789e-08
4.84179e-06
-2.6523e-08
4.85129e-06
3.88558e-08
4.87494e-06
1.04874e-07
4.91152e-06
1.67459e-07
4.95959e-06
2.23195e-07
5.01756e-06
2.69369e-07
5.08376e-06
3.03933e-07
5.15659e-06
3.25467e-07
5.2346e-06
3.33201e-07
5.31636e-06
3.26909e-07
5.40016e-06
3.06926e-07
5.48345e-06
2.74578e-07
5.5626e-06
2.32233e-07
5.63339e-06
1.8302e-07
5.69194e-06
1.30081e-07
5.73533e-06
7.63269e-08
5.76173e-06
2.39915e-08
5.77044e-06
-2.52033e-08
5.76151e-06
-6.95605e-08
5.73567e-06
-1.07485e-07
5.69496e-06
-1.38446e-07
5.64258e-06
-1.63032e-07
5.58209e-06
-1.82196e-07
5.51672e-06
-1.96828e-07
5.44915e-06
-2.07517e-07
5.38145e-06
-2.14349e-07
5.3151e-06
-2.16939e-07
5.25133e-06
-2.14714e-07
5.19133e-06
-2.07073e-07
5.13633e-06
-1.93448e-07
5.08765e-06
-1.73422e-07
5.04662e-06
-1.46784e-07
5.01448e-06
-1.13612e-07
4.9923e-06
-7.4475e-08
4.98072e-06
-3.04432e-08
4.97999e-06
1.66055e-08
4.98974e-06
6.41712e-08
5.00925e-06
1.09578e-07
5.03753e-06
1.50597e-07
5.07339e-06
1.85337e-07
5.1155e-06
2.1235e-07
5.16247e-06
2.30659e-07
5.21295e-06
2.39736e-07
5.26575e-06
2.39472e-07
5.31962e-06
2.30101e-07
5.3731e-06
2.12234e-07
5.42431e-06
1.87061e-07
5.47113e-06
1.56184e-07
5.5115e-06
1.21358e-07
5.54369e-06
8.42209e-08
5.56647e-06
4.6305e-08
5.57908e-06
8.92671e-09
5.58125e-06
-2.6681e-08
5.57297e-06
-5.9265e-08
5.55454e-06
-8.77214e-08
5.52696e-06
-1.11535e-07
5.49176e-06
-1.30623e-07
5.45083e-06
-1.45115e-07
5.40614e-06
-1.55184e-07
5.35954e-06
-1.6095e-07
5.31267e-06
-1.62474e-07
5.2669e-06
-1.59757e-07
5.22342e-06
-1.52739e-07
5.18332e-06
-1.41366e-07
5.14756e-06
-1.25677e-07
5.11708e-06
-1.05827e-07
5.09269e-06
-8.20803e-08
5.07508e-06
-5.48812e-08
5.06475e-06
-2.49627e-08
5.06193e-06
6.52876e-09
5.06651e-06
3.8115e-08
5.07818e-06
6.82002e-08
5.09646e-06
9.53666e-08
5.12057e-06
1.18399e-07
5.14959e-06
1.36308e-07
5.18252e-06
1.48397e-07
5.21839e-06
1.54322e-07
5.25626e-06
1.54012e-07
5.29514e-06
1.47609e-07
5.33393e-06
1.35512e-07
5.37126e-06
1.18501e-07
5.40564e-06
9.7635e-08
5.43568e-06
7.40609e-08
5.46023e-06
4.88829e-08
5.47845e-06
2.31331e-08
5.48984e-06
-2.28041e-09
5.4942e-06
-2.65479e-08
5.49153e-06
-4.88217e-08
5.48188e-06
-6.82547e-08
5.46573e-06
-8.4351e-08
5.44391e-06
-9.68359e-08
5.41754e-06
-1.05713e-07
-1.11074e-07
4.62813e-06
3.06989e-07
4.74475e-06
3.39631e-07
4.87578e-06
3.54379e-07
5.0177e-06
3.50146e-07
5.16548e-06
3.27659e-07
5.31156e-06
2.89772e-07
5.44646e-06
2.41011e-07
5.56073e-06
1.86353e-07
5.647e-06
1.30393e-07
5.70116e-06
7.63726e-08
5.72212e-06
2.68152e-08
5.71001e-06
-1.52303e-08
5.66784e-06
-4.80086e-08
5.60201e-06
-7.1716e-08
5.52145e-06
-8.83863e-08
5.43468e-06
-1.00648e-07
5.34792e-06
-1.10862e-07
5.26424e-06
-1.2065e-07
5.1844e-06
-1.31025e-07
5.10785e-06
-1.42356e-07
5.03347e-06
-1.54211e-07
4.96018e-06
-1.65444e-07
4.88742e-06
-1.7443e-07
4.81542e-06
-1.79339e-07
4.74521e-06
-1.78469e-07
4.6786e-06
-1.70583e-07
4.61792e-06
-1.54927e-07
4.56576e-06
-1.31137e-07
4.52478e-06
-9.93303e-08
4.49741e-06
-6.00137e-08
4.48536e-06
-1.44742e-08
4.48938e-06
3.48412e-08
4.50955e-06
8.47003e-08
4.54511e-06
1.31906e-07
4.59468e-06
1.7362e-07
4.65657e-06
2.07479e-07
4.72882e-06
2.31683e-07
4.80924e-06
2.45047e-07
4.8954e-06
2.47041e-07
4.98444e-06
2.37872e-07
5.07266e-06
2.18707e-07
5.15577e-06
1.9147e-07
5.2296e-06
1.58395e-07
5.29076e-06
1.21861e-07
5.33683e-06
8.40123e-08
5.36663e-06
4.65254e-08
5.38004e-06
1.05815e-08
5.37763e-06
-2.27869e-08
5.3604e-06
-5.2335e-08
5.33021e-06
-7.72927e-08
5.28969e-06
-9.79217e-08
5.24142e-06
-1.14762e-07
5.18757e-06
-1.28352e-07
5.12986e-06
-1.39112e-07
5.0696e-06
-1.47256e-07
5.00796e-06
-1.52713e-07
4.94614e-06
-1.55119e-07
4.88534e-06
-1.53914e-07
4.82682e-06
-1.48552e-07
4.77195e-06
-1.38575e-07
4.72217e-06
-1.23643e-07
4.679e-06
-1.03618e-07
4.64402e-06
-7.8627e-08
4.61863e-06
-4.90893e-08
4.60395e-06
-1.57604e-08
4.60058e-06
1.99761e-08
4.60855e-06
5.61975e-08
4.62745e-06
9.06757e-08
4.65643e-06
1.21619e-07
4.69429e-06
1.47475e-07
4.73961e-06
1.67029e-07
4.79081e-06
1.79462e-07
4.84618e-06
1.84364e-07
4.90393e-06
1.81727e-07
4.96199e-06
1.72036e-07
5.01798e-06
1.56244e-07
5.06946e-06
1.35581e-07
5.11428e-06
1.11365e-07
5.15071e-06
8.49317e-08
5.17751e-06
5.74214e-08
5.19401e-06
2.97999e-08
5.20002e-06
2.9224e-09
5.19553e-06
-2.21968e-08
5.18097e-06
-4.47024e-08
5.15737e-06
-6.41194e-08
5.12626e-06
-8.04314e-08
5.08936e-06
-9.37184e-08
5.04831e-06
-1.04069e-07
5.00466e-06
-1.11528e-07
4.95978e-06
-1.16075e-07
4.91492e-06
-1.17612e-07
4.87116e-06
-1.15992e-07
4.82949e-06
-1.11073e-07
4.79089e-06
-1.02764e-07
4.75629e-06
-9.10809e-08
4.72661e-06
-7.61455e-08
4.70274e-06
-5.82043e-08
4.68548e-06
-3.76214e-08
4.67549e-06
-1.49765e-08
4.67314e-06
8.87963e-09
4.67855e-06
3.27056e-08
4.69157e-06
5.51779e-08
4.71173e-06
7.52065e-08
4.73828e-06
9.1846e-08
4.77026e-06
1.04334e-07
4.80651e-06
1.12141e-07
4.84584e-06
1.14997e-07
4.88696e-06
1.12893e-07
4.92839e-06
1.06176e-07
4.96842e-06
9.54838e-08
5.00534e-06
8.15806e-08
5.03769e-06
6.52849e-08
5.06429e-06
4.74581e-08
5.08431e-06
2.88699e-08
5.09728e-06
1.01592e-08
5.10306e-06
-8.05865e-09
5.10165e-06
-2.51361e-08
5.09321e-06
-4.0385e-08
5.07832e-06
-5.33699e-08
5.05791e-06
-6.39387e-08
5.03313e-06
-7.2057e-08
5.00517e-06
-7.77514e-08
-8.10623e-08
4.42324e-06
2.12246e-07
4.53355e-06
2.29319e-07
4.65375e-06
2.34189e-07
4.77632e-06
2.27573e-07
4.89261e-06
2.1137e-07
4.99454e-06
1.8784e-07
5.07605e-06
1.59503e-07
5.13365e-06
1.28746e-07
5.16655e-06
9.7499e-08
5.17586e-06
6.70639e-08
5.16417e-06
3.85056e-08
5.13557e-06
1.33634e-08
5.09488e-06
-7.31862e-09
5.04781e-06
-2.46469e-08
4.99832e-06
-3.88931e-08
4.94851e-06
-5.08353e-08
4.89896e-06
-6.13161e-08
4.84943e-06
-7.11218e-08
4.79911e-06
-8.07044e-08
4.74688e-06
-9.01199e-08
4.69172e-06
-9.90506e-08
4.63315e-06
-1.06875e-07
4.57147e-06
-1.12748e-07
4.50783e-06
-1.157e-07
4.44412e-06
-1.14762e-07
4.38264e-06
-1.09103e-07
4.32586e-06
-9.81472e-08
4.27635e-06
-8.16276e-08
4.23665e-06
-5.96299e-08
4.20921e-06
-3.25696e-08
4.19591e-06
-1.17454e-09
4.19792e-06
3.28279e-08
4.2157e-06
6.69232e-08
4.24871e-06
9.88897e-08
4.29564e-06
1.26693e-07
4.35452e-06
1.48602e-07
4.42285e-06
1.63352e-07
4.49766e-06
1.70235e-07
4.57547e-06
1.69236e-07
4.65227e-06
1.61071e-07
4.72412e-06
1.46856e-07
4.78775e-06
1.27842e-07
4.84068e-06
1.05458e-07
4.88142e-06
8.11274e-08
4.90936e-06
5.60689e-08
4.92466e-06
3.12277e-08
4.92788e-06
7.36209e-09
4.91977e-06
-1.46835e-08
4.90149e-06
-3.40461e-08
4.87475e-06
-5.05543e-08
4.84122e-06
-6.43949e-08
4.80229e-06
-7.58273e-08
4.75906e-06
-8.51229e-08
4.71244e-06
-9.24928e-08
4.66321e-06
-9.8026e-08
4.61214e-06
-1.01647e-07
4.56013e-06
-1.0311e-07
4.50826e-06
-1.02042e-07
4.45774e-06
-9.80288e-08
4.40988e-06
-9.07166e-08
4.3661e-06
-7.98659e-08
4.32788e-06
-6.53961e-08
4.29669e-06
-4.74347e-08
4.27393e-06
-2.6333e-08
4.26083e-06
-2.65765e-09
4.25816e-06
2.26456e-08
4.2663e-06
4.8059e-08
4.28497e-06
7.20008e-08
4.31337e-06
9.32227e-08
4.35024e-06
1.10606e-07
4.39399e-06
1.23281e-07
4.44275e-06
1.30699e-07
4.49443e-06
1.32684e-07
4.54663e-06
1.29523e-07
4.59685e-06
1.21817e-07
4.64283e-06
1.10271e-07
4.68269e-06
9.57163e-08
4.71504e-06
7.90198e-08
4.73898e-06
6.09852e-08
4.75411e-06
4.22904e-08
4.76038e-06
2.35344e-08
4.75794e-06
5.36406e-09
4.74728e-06
-1.15407e-08
4.72937e-06
-2.67897e-08
4.7055e-06
-4.02474e-08
4.67693e-06
-5.1861e-08
4.6448e-06
-6.15936e-08
4.61014e-06
-6.94042e-08
4.57384e-06
-7.52341e-08
4.53676e-06
-7.8997e-08
4.49971e-06
-8.05555e-08
4.46347e-06
-7.97529e-08
4.42887e-06
-7.64758e-08
4.39678e-06
-7.06731e-08
4.36807e-06
-6.23715e-08
4.34362e-06
-5.16906e-08
4.32426e-06
-3.88456e-08
4.31078e-06
-2.4147e-08
4.30384e-06
-8.03006e-09
4.30387e-06
8.84169e-09
4.31112e-06
2.54608e-08
4.32538e-06
4.09217e-08
4.34609e-06
5.44902e-08
4.37243e-06
6.55079e-08
4.4033e-06
7.34595e-08
4.43743e-06
7.80195e-08
4.47333e-06
7.90951e-08
4.50935e-06
7.68699e-08
4.54383e-06
7.16934e-08
4.57534e-06
6.39775e-08
4.60269e-06
5.42267e-08
4.62499e-06
4.29835e-08
4.64168e-06
3.07764e-08
4.65247e-06
1.80727e-08
4.65734e-06
5.29442e-09
4.65638e-06
-7.10153e-09
4.64986e-06
-1.86149e-08
4.6383e-06
-2.8829e-08
4.62251e-06
-3.75799e-08
4.60334e-06
-4.47675e-08
4.58161e-06
-5.03273e-08
4.55809e-06
-5.42265e-08
-5.64585e-08
4.1178e-06
1.48746e-07
4.18811e-06
1.59016e-07
4.25964e-06
1.62656e-07
4.32733e-06
1.59879e-07
4.38733e-06
1.5137e-07
4.43708e-06
1.38095e-07
4.47534e-06
1.21239e-07
4.50199e-06
1.02098e-07
4.51762e-06
8.18687e-08
4.52315e-06
6.15296e-08
4.51971e-06
4.19531e-08
4.50881e-06
2.4262e-08
4.4925e-06
8.98951e-09
4.47186e-06
-4.00916e-09
4.44782e-06
-1.48546e-08
4.42102e-06
-2.40334e-08
4.39164e-06
-3.19358e-08
4.35959e-06
-3.90721e-08
4.3247e-06
-4.58111e-08
4.28685e-06
-5.22722e-08
4.24599e-06
-5.81887e-08
4.20225e-06
-6.3139e-08
4.15615e-06
-6.6649e-08
4.10864e-06
-6.81927e-08
4.0611e-06
-6.72174e-08
4.01517e-06
-6.31705e-08
3.97267e-06
-5.5651e-08
3.93552e-06
-4.44738e-08
3.90565e-06
-2.97576e-08
3.88506e-06
-1.19874e-08
3.87519e-06
8.69445e-09
3.87745e-06
3.05727e-08
3.89211e-06
5.22611e-08
3.91855e-06
7.24513e-08
3.95534e-06
8.99014e-08
4.00041e-06
1.03536e-07
4.05116e-06
1.12602e-07
4.10465e-06
1.16748e-07
4.15784e-06
1.16042e-07
4.20804e-06
1.10871e-07
4.25308e-06
1.0181e-07
4.29132e-06
8.9601e-08
4.32169e-06
7.50909e-08
4.34368e-06
5.91409e-08
4.35721e-06
4.25332e-08
4.36251e-06
2.59294e-08
4.35997e-06
9.90354e-09
4.35023e-06
-4.94405e-09
4.33437e-06
-1.81883e-08
4.31355e-06
-2.97306e-08
4.28874e-06
-3.95835e-08
4.26074e-06
-4.78316e-08
4.2302e-06
-5.45779e-08
4.1976e-06
-5.98967e-08
4.16337e-06
-6.37991e-08
4.12794e-06
-6.62114e-08
4.09181e-06
-6.69786e-08
4.05565e-06
-6.58801e-08
4.02028e-06
-6.26626e-08
3.98668e-06
-5.7115e-08
3.95593e-06
-4.91193e-08
3.92917e-06
-3.86337e-08
3.90755e-06
-2.5821e-08
3.89222e-06
-1.09934e-08
3.88416e-06
5.40228e-09
3.88415e-06
2.26461e-08
3.8925e-06
3.97089e-08
3.90883e-06
5.56784e-08
3.93227e-06
6.97791e-08
3.96157e-06
8.13066e-08
3.99512e-06
8.97271e-08
4.03109e-06
9.47355e-08
4.06749e-06
9.62796e-08
4.1025e-06
9.45156e-08
4.13458e-06
8.97404e-08
4.16249e-06
8.23601e-08
4.18535e-06
7.28549e-08
4.20263e-06
6.17384e-08
4.2141e-06
4.95157e-08
4.21974e-06
3.66461e-08
4.21973e-06
2.35504e-08
4.2144e-06
1.06905e-08
4.20434e-06
-1.4829e-09
4.19029e-06
-1.27333e-08
4.17292e-06
-2.28814e-08
4.15285e-06
-3.17901e-08
4.13061e-06
-3.93586e-08
4.10672e-06
-4.55057e-08
4.08164e-06
-5.0157e-08
4.05588e-06
-5.32371e-08
4.02998e-06
-5.46531e-08
4.00453e-06
-5.43021e-08
3.98017e-06
-5.21185e-08
3.95759e-06
-4.80925e-08
3.93749e-06
-4.22702e-08
3.92056e-06
-3.47605e-08
3.90745e-06
-2.57419e-08
3.89878e-06
-1.54726e-08
3.89506e-06
-4.30734e-09
3.89663e-06
7.26826e-09
3.90354e-06
1.85516e-08
3.91546e-06
2.89979e-08
3.93181e-06
3.81436e-08
3.95175e-06
4.55679e-08
3.97426e-06
5.09478e-08
3.99819e-06
5.40939e-08
4.02232e-06
5.49608e-08
4.04556e-06
5.36283e-08
4.06698e-06
5.02727e-08
4.08582e-06
4.51441e-08
4.10149e-06
3.85537e-08
4.11362e-06
3.08517e-08
4.12201e-06
2.23899e-08
4.12658e-06
1.35012e-08
4.12737e-06
4.50711e-09
4.12451e-06
-4.24264e-09
4.11828e-06
-1.23884e-08
4.10913e-06
-1.96757e-08
4.09751e-06
-2.59605e-08
4.08387e-06
-3.11331e-08
4.06867e-06
-3.51227e-08
4.05233e-06
-3.78917e-08
-3.9429e-08
3.45019e-06
1.1371e-07
3.48875e-06
1.2045e-07
3.52838e-06
1.2303e-07
3.56678e-06
1.21476e-07
3.60207e-06
1.16082e-07
3.63276e-06
1.07401e-07
3.65777e-06
9.62357e-08
3.6764e-06
8.34679e-08
3.68837e-06
6.98929e-08
3.69377e-06
5.61373e-08
3.693e-06
4.27199e-08
3.68709e-06
3.01667e-08
3.67728e-06
1.88053e-08
3.66463e-06
8.64434e-09
3.64998e-06
-2.07819e-10
3.63402e-06
-8.07978e-09
3.61706e-06
-1.49746e-08
3.59908e-06
-2.10913e-08
3.5799e-06
-2.66251e-08
3.55928e-06
-3.16583e-08
3.53709e-06
-3.59916e-08
3.5133e-06
-3.93577e-08
3.48816e-06
-4.15041e-08
3.46212e-06
-4.21541e-08
3.4359e-06
-4.09996e-08
3.41046e-06
-3.77309e-08
3.38692e-06
-3.21075e-08
3.36647e-06
-2.40254e-08
3.35036e-06
-1.36416e-08
3.33966e-06
-1.2887e-09
3.33564e-06
1.27067e-08
3.33877e-06
2.74492e-08
3.34899e-06
4.20403e-08
3.36576e-06
5.56757e-08
3.38811e-06
6.75544e-08
3.41466e-06
7.69833e-08
3.4438e-06
8.34663e-08
3.47381e-06
8.67349e-08
3.50313e-06
8.67257e-08
3.53042e-06
8.35832e-08
3.5546e-06
7.76307e-08
3.57488e-06
6.93225e-08
3.59076e-06
5.921e-08
3.60202e-06
4.78781e-08
3.60866e-06
3.58949e-08
3.61082e-06
2.37694e-08
3.6088e-06
1.19214e-08
3.60301e-06
8.45433e-10
3.59404e-06
-9.22031e-09
3.5824e-06
-1.80934e-08
3.56852e-06
-2.57026e-08
3.55276e-06
-3.2066e-08
3.5354e-06
-3.72179e-08
3.51669e-06
-4.11852e-08
3.49685e-06
-4.3965e-08
3.47615e-06
-4.55108e-08
3.45491e-06
-4.57352e-08
3.43355e-06
-4.45225e-08
3.41263e-06
-4.17444e-08
3.3928e-06
-3.72832e-08
3.37476e-06
-3.10795e-08
3.35928e-06
-2.31531e-08
3.3471e-06
-1.36429e-08
3.33898e-06
-2.87005e-09
3.3355e-06
8.88637e-09
3.33705e-06
2.10934e-08
3.34363e-06
3.31282e-08
3.35487e-06
4.44325e-08
3.37017e-06
5.44792e-08
3.38869e-06
6.27959e-08
3.40939e-06
6.90174e-08
3.43121e-06
7.29206e-08
3.45308e-06
7.44076e-08
3.47409e-06
7.35092e-08
3.49344e-06
7.03858e-08
3.51051e-06
6.52903e-08
3.52483e-06
5.854e-08
3.53607e-06
5.04941e-08
3.54406e-06
4.15264e-08
3.54871e-06
3.19982e-08
3.55001e-06
2.22445e-08
3.54812e-06
1.25852e-08
3.5433e-06
3.33603e-09
3.53583e-06
-5.25789e-09
3.52598e-06
-1.3037e-08
3.51408e-06
-1.98865e-08
3.50044e-06
-2.57198e-08
3.4854e-06
-3.04664e-08
3.46931e-06
-3.40659e-08
3.45253e-06
-3.64613e-08
3.43547e-06
-3.7595e-08
3.41858e-06
-3.74059e-08
3.40232e-06
-3.58625e-08
3.3872e-06
-3.2974e-08
3.37372e-06
-2.87861e-08
3.36235e-06
-2.33917e-08
3.35354e-06
-1.6929e-08
3.34767e-06
-9.60891e-09
3.34508e-06
-1.71681e-09
3.34593e-06
6.42267e-09
3.35013e-06
1.43464e-08
3.35743e-06
2.16978e-08
3.36742e-06
2.81582e-08
3.37955e-06
3.34345e-08
3.3932e-06
3.7298e-08
3.40769e-06
3.96066e-08
3.42234e-06
4.03073e-08
3.43655e-06
3.94251e-08
3.44975e-06
3.70657e-08
3.4615e-06
3.34028e-08
3.47139e-06
2.86567e-08
3.47917e-06
2.30791e-08
3.48463e-06
1.69295e-08
3.48769e-06
1.04385e-08
3.48828e-06
3.91604e-09
3.48648e-06
-2.44037e-09
3.48246e-06
-8.36729e-09
3.47645e-06
-1.36664e-08
3.46871e-06
-1.8228e-08
3.45955e-06
-2.19674e-08
3.44925e-06
-2.48275e-08
3.43814e-06
-2.67768e-08
-2.78044e-08
2.45494e-06
8.56604e-08
2.48488e-06
9.05048e-08
2.51527e-06
9.26442e-08
2.54471e-06
9.20291e-08
2.57203e-06
8.87711e-08
2.59625e-06
8.31751e-08
2.61678e-06
7.57098e-08
2.63333e-06
6.69126e-08
2.64594e-06
5.7284e-08
2.65483e-06
4.72474e-08
2.66036e-06
3.71923e-08
2.66301e-06
2.75116e-08
2.66332e-06
1.84968e-08
2.66166e-06
1.03075e-08
2.65844e-06
3.01537e-09
2.65362e-06
-3.26572e-09
2.64749e-06
-8.83824e-09
2.64006e-06
-1.36666e-08
2.63131e-06
-1.78724e-08
2.62115e-06
-2.15004e-08
2.60963e-06
-2.44727e-08
2.59694e-06
-2.66643e-08
2.58334e-06
-2.79073e-08
2.56921e-06
-2.80225e-08
2.55507e-06
-2.68553e-08
2.54152e-06
-2.4183e-08
2.52925e-06
-1.98444e-08
2.51891e-06
-1.36767e-08
2.51131e-06
-6.04935e-09
2.50729e-06
2.73149e-09
2.50728e-06
1.27187e-08
2.5115e-06
2.32279e-08
2.51989e-06
3.36556e-08
2.53215e-06
4.34092e-08
2.54778e-06
5.19258e-08
2.56605e-06
5.87186e-08
2.58609e-06
6.34273e-08
2.60698e-06
6.58381e-08
2.62783e-06
6.58784e-08
2.64779e-06
6.36256e-08
2.66612e-06
5.92936e-08
2.68225e-06
5.31941e-08
2.69575e-06
4.57118e-08
2.70636e-06
3.72743e-08
2.71395e-06
2.83042e-08
2.7185e-06
1.92134e-08
2.7201e-06
1.03213e-08
2.71896e-06
1.99128e-09
2.71536e-06
-5.62753e-09
2.70967e-06
-1.2402e-08
2.70217e-06
-1.82029e-08
2.69314e-06
-2.30341e-08
2.68283e-06
-2.6907e-08
2.67148e-06
-2.98314e-08
2.65931e-06
-3.18006e-08
2.64658e-06
-3.27833e-08
2.63358e-06
-3.27272e-08
2.62063e-06
-3.15729e-08
2.60813e-06
-2.9253e-08
2.59656e-06
-2.57051e-08
2.58638e-06
-2.09067e-08
2.5781e-06
-1.48673e-08
2.57211e-06
-7.65432e-09
2.56911e-06
1.31143e-10
2.5693e-06
8.69732e-09
2.57285e-06
1.75378e-08
2.57973e-06
2.62541e-08
2.58972e-06
3.44343e-08
2.6025e-06
4.17004e-08
2.61758e-06
4.77231e-08
2.63435e-06
5.22455e-08
2.65217e-06
5.51025e-08
2.67035e-06
5.62198e-08
2.68825e-06
5.56116e-08
2.70525e-06
5.33831e-08
2.72083e-06
4.97099e-08
2.73456e-06
4.48189e-08
2.74608e-06
3.8969e-08
2.75518e-06
3.24318e-08
2.7617e-06
2.54749e-08
2.76559e-06
1.83521e-08
2.76688e-06
1.12926e-08
2.76573e-06
4.49471e-09
2.76229e-06
-1.81982e-09
2.75682e-06
-7.56612e-09
2.74955e-06
-1.26243e-08
2.74077e-06
-1.69336e-08
2.73074e-06
-2.04387e-08
2.71977e-06
-2.30929e-08
2.70816e-06
-2.48517e-08
2.69624e-06
-2.56805e-08
2.68438e-06
-2.55441e-08
2.67294e-06
-2.44218e-08
2.66231e-06
-2.23414e-08
2.65286e-06
-1.9342e-08
2.64497e-06
-1.54933e-08
2.63894e-06
-1.09076e-08
2.63503e-06
-5.69247e-09
2.6335e-06
-1.87649e-10
2.63442e-06
5.4989e-09
2.63773e-06
1.10339e-08
2.64326e-06
1.6171e-08
2.65074e-06
2.06767e-08
2.65983e-06
2.43453e-08
2.67011e-06
2.7018e-08
2.68112e-06
2.85949e-08
2.69239e-06
2.90383e-08
2.70345e-06
2.83681e-08
2.71386e-06
2.66563e-08
2.72324e-06
2.40219e-08
2.73128e-06
2.06211e-08
2.73772e-06
1.66305e-08
2.74243e-06
1.2224e-08
2.74529e-06
7.57555e-09
2.74627e-06
2.93845e-09
2.74538e-06
-1.54938e-09
2.74277e-06
-5.75844e-09
2.73862e-06
-9.51561e-09
2.73314e-06
-1.27448e-08
2.72655e-06
-1.5382e-08
2.71911e-06
-1.73831e-08
2.71105e-06
-1.87228e-08
-1.93909e-08
1.38191e-06
5.61586e-08
1.41292e-06
5.94925e-08
1.44451e-06
6.10606e-08
1.47572e-06
6.08203e-08
1.50565e-06
5.88353e-08
1.53354e-06
5.5288e-08
1.55878e-06
5.04637e-08
1.58099e-06
4.47053e-08
1.59993e-06
3.83459e-08
1.6155e-06
3.16815e-08
1.62771e-06
2.49734e-08
1.63675e-06
1.84734e-08
1.64288e-06
1.23728e-08
1.64641e-06
6.77316e-09
1.6477e-06
1.72487e-09
1.64682e-06
-2.3892e-09
1.64429e-06
-6.29918e-09
1.64029e-06
-9.66622e-09
1.63498e-06
-1.25676e-08
1.6285e-06
-1.50191e-08
1.62101e-06
-1.69841e-08
1.61273e-06
-1.83848e-08
1.60394e-06
-1.91208e-08
1.59499e-06
-1.90636e-08
1.58626e-06
-1.81255e-08
1.57826e-06
-1.61902e-08
1.57157e-06
-1.31496e-08
1.56677e-06
-8.88328e-09
1.56432e-06
-3.59738e-09
1.56492e-06
2.13692e-09
1.5689e-06
8.7315e-09
1.57645e-06
1.56853e-08
1.58753e-06
2.25713e-08
1.60195e-06
2.89863e-08
1.61932e-06
3.45639e-08
1.63904e-06
3.89921e-08
1.66043e-06
4.20402e-08
1.6827e-06
4.35708e-08
1.70503e-06
4.35451e-08
1.72664e-06
4.20151e-08
1.74682e-06
3.91148e-08
1.76496e-06
3.50503e-08
1.7806e-06
3.00721e-08
1.79344e-06
2.44402e-08
1.80329e-06
1.84482e-08
1.81017e-06
1.23396e-08
1.81411e-06
6.38281e-09
1.81525e-06
8.46484e-10
1.81393e-06
-4.30228e-09
1.81043e-06
-8.9117e-09
1.80512e-06
-1.28843e-08
1.79828e-06
-1.62021e-08
1.79023e-06
-1.88577e-08
1.78125e-06
-2.08496e-08
1.77162e-06
-2.21706e-08
1.76164e-06
-2.27994e-08
1.75162e-06
-2.27058e-08
1.7419e-06
-2.18519e-08
1.73285e-06
-2.02013e-08
1.72487e-06
-1.77263e-08
1.71838e-06
-1.44231e-08
1.71383e-06
-1.03141e-08
1.71162e-06
-5.44263e-09
1.71198e-06
-2.32659e-10
1.71528e-06
5.39461e-09
1.72159e-06
1.12347e-08
1.73085e-06
1.69966e-08
1.74288e-06
2.23994e-08
1.75739e-06
2.71944e-08
1.77394e-06
3.11693e-08
1.79202e-06
3.41621e-08
1.81106e-06
3.60693e-08
1.83043e-06
3.68481e-08
1.84953e-06
3.65088e-08
1.8678e-06
3.5114e-08
1.88474e-06
3.27724e-08
1.89993e-06
2.96285e-08
1.91305e-06
2.58488e-08
1.92387e-06
2.16092e-08
1.93226e-06
1.70842e-08
1.93817e-06
1.24402e-08
1.94164e-06
7.82581e-09
1.94277e-06
3.3652e-09
1.9417e-06
-7.47318e-10
1.93866e-06
-4.53354e-09
1.93392e-06
-7.87614e-09
1.92772e-06
-1.07342e-08
1.92034e-06
-1.30654e-08
1.91209e-06
-1.48372e-08
1.90325e-06
-1.60153e-08
1.89415e-06
-1.65787e-08
1.88511e-06
-1.65092e-08
1.87648e-06
-1.57918e-08
1.86858e-06
-1.44396e-08
1.86174e-06
-1.25016e-08
1.85626e-06
-1.00082e-08
1.85239e-06
-7.04201e-09
1.85036e-06
-3.66015e-09
1.8503e-06
-1.26128e-10
1.85232e-06
3.48159e-09
1.85632e-06
7.03253e-09
1.86215e-06
1.03343e-08
1.8696e-06
1.32295e-08
1.87836e-06
1.55868e-08
1.88807e-06
1.73055e-08
1.89834e-06
1.8322e-08
1.90877e-06
1.86129e-08
1.91895e-06
1.81899e-08
1.92851e-06
1.70965e-08
1.93712e-06
1.54075e-08
1.94452e-06
1.32208e-08
1.9505e-06
1.0648e-08
1.95493e-06
7.80089e-09
1.95772e-06
4.77957e-09
1.95891e-06
1.74811e-09
1.95847e-06
-1.10611e-09
1.95656e-06
-3.84544e-09
1.95334e-06
-6.30181e-09
1.94902e-06
-8.42271e-09
1.9438e-06
-1.01625e-08
1.93791e-06
-1.14901e-08
1.93157e-06
-1.23868e-08
-1.28442e-08
5.27195e-07
2.53494e-08
5.59525e-07
2.71624e-08
5.92487e-07
2.80988e-08
6.25152e-07
2.81551e-08
6.56641e-07
2.73469e-08
6.86167e-07
2.57618e-08
7.13087e-07
2.35431e-08
7.36974e-07
2.08188e-08
7.57552e-07
1.77678e-08
7.74705e-07
1.45286e-08
7.8845e-07
1.12288e-08
7.98904e-07
8.01916e-09
8.06304e-07
4.9732e-09
8.10953e-07
2.12392e-09
8.13008e-07
-3.30349e-10
8.13111e-07
-2.49254e-09
8.11311e-07
-4.49898e-09
8.07908e-07
-6.26278e-09
8.03138e-07
-7.798e-09
7.97221e-07
-9.10251e-09
7.904e-07
-1.01626e-08
7.82953e-07
-1.09375e-08
7.75209e-07
-1.13773e-08
7.67554e-07
-1.14088e-08
7.6039e-07
-1.09612e-08
7.542e-07
-9.99962e-09
7.49508e-07
-8.45843e-09
7.46925e-07
-6.2998e-09
7.46867e-07
-3.53956e-09
7.49565e-07
-5.60642e-10
7.55806e-07
2.48995e-09
7.6547e-07
6.02107e-09
7.78525e-07
9.51677e-09
7.94734e-07
1.27769e-08
8.1367e-07
1.56285e-08
8.34738e-07
1.79234e-08
8.57231e-07
1.95477e-08
8.80371e-07
2.04305e-08
9.03368e-07
2.05482e-08
9.2546e-07
1.99228e-08
9.45962e-07
1.86127e-08
9.64299e-07
1.67135e-08
9.80028e-07
1.43437e-08
9.92835e-07
1.16325e-08
1.00257e-06
8.71218e-09
1.00921e-06
5.70148e-09
1.01291e-06
2.68045e-09
1.01374e-06
1.35307e-11
1.01196e-06
-2.52105e-09
1.00793e-06
-4.881e-09
1.002e-06
-6.95176e-09
9.94512e-07
-8.71395e-09
9.85818e-07
-1.01641e-08
9.76268e-07
-1.12992e-08
9.66205e-07
-1.21072e-08
9.55978e-07
-1.25723e-08
9.45943e-07
-1.2671e-08
9.36468e-07
-1.23768e-08
9.27932e-07
-1.16654e-08
9.20723e-07
-1.05174e-08
9.15225e-07
-8.92508e-09
9.11808e-07
-6.89726e-09
9.10828e-07
-4.46262e-09
9.12274e-07
-1.67836e-09
9.16826e-07
8.42509e-10
9.24321e-07
3.73906e-09
9.34676e-07
6.64197e-09
9.477e-07
9.37581e-09
9.63075e-07
1.18191e-08
9.80373e-07
1.38715e-08
9.99082e-07
1.54526e-08
1.01864e-06
1.65099e-08
1.03847e-06
1.70208e-08
1.05799e-06
1.69879e-08
1.07667e-06
1.64351e-08
1.09403e-06
1.54114e-08
1.10967e-06
1.39873e-08
1.12328e-06
1.22415e-08
1.13463e-06
1.02551e-08
1.14361e-06
8.10998e-09
1.15015e-06
5.89269e-09
1.15432e-06
3.66207e-09
1.15622e-06
1.46756e-09
1.15593e-06
-4.57523e-10
1.15371e-06
-2.31808e-09
1.14982e-06
-3.98554e-09
1.14451e-06
-5.42576e-09
1.13806e-06
-6.61526e-09
1.13076e-06
-7.53228e-09
1.1229e-06
-8.15869e-09
1.1148e-06
-8.48376e-09
1.1068e-06
-8.50348e-09
1.09922e-06
-8.20932e-09
1.09237e-06
-7.59516e-09
1.08655e-06
-6.67624e-09
1.08201e-06
-5.47099e-09
1.07898e-06
-4.00792e-09
1.07768e-06
-2.36735e-09
1.07811e-06
-5.50526e-10
1.08051e-06
1.07888e-09
1.08468e-06
2.86614e-09
1.09048e-06
4.53072e-09
1.09771e-06
5.99828e-09
1.10609e-06
7.20637e-09
1.11529e-06
8.10633e-09
1.12495e-06
8.66628e-09
1.13468e-06
8.87379e-09
1.14414e-06
8.72991e-09
1.15299e-06
8.25244e-09
1.16092e-06
7.47502e-09
1.1677e-06
6.44491e-09
1.17313e-06
5.21249e-09
1.1771e-06
3.83078e-09
1.17953e-06
2.34882e-09
1.18048e-06
8.01808e-10
1.17989e-06
-5.15425e-10
1.17794e-06
-1.90014e-09
1.17481e-06
-3.16525e-09
1.17066e-06
-4.27309e-09
1.16569e-06
-5.19964e-09
1.16013e-06
-5.92806e-09
1.15419e-06
-6.44753e-09
-6.7535e-09
7.83369e-09
3.49961e-08
6.30949e-08
9.125e-08
1.18597e-07
1.44359e-07
1.67902e-07
1.88721e-07
2.06488e-07
2.21017e-07
2.32246e-07
2.40265e-07
2.45238e-07
2.47362e-07
2.47032e-07
2.44539e-07
2.4004e-07
2.33777e-07
2.25979e-07
2.16877e-07
2.06714e-07
1.95777e-07
1.84399e-07
1.72991e-07
1.62029e-07
1.5203e-07
1.43571e-07
1.37272e-07
1.33732e-07
1.33171e-07
1.35661e-07
1.41682e-07
1.51199e-07
1.63976e-07
1.79604e-07
1.97528e-07
2.17076e-07
2.37506e-07
2.58054e-07
2.77977e-07
2.9659e-07
3.13303e-07
3.27647e-07
3.39279e-07
3.47992e-07
3.53693e-07
3.56374e-07
3.56387e-07
3.53866e-07
3.48985e-07
3.42033e-07
3.33319e-07
3.23155e-07
3.11856e-07
2.99749e-07
2.87176e-07
2.74505e-07
2.62129e-07
2.50463e-07
2.39946e-07
2.31021e-07
2.24123e-07
2.19661e-07