/*--------------------------------*- C++ -*----------------------------------*\
| =========                 |                                                 |
| \\      /  F ield         | OpenFOAM: The Open Source CFD Toolbox           |
|  \\    /   O peration     | Version:  2206                                  |
|   \\  /    A nd           | Website:  www.openfoam.com                      |
|    \\/     M anipulation  |                                                 |
\*---------------------------------------------------------------------------*/
FoamFile
{
    version     2.0;
    format      ascii;
    arch        "LSB;label=32;scalar=64";
    class       volVectorField;
    location    "19.8";
    object      ddtCorrDdt0(U);
}
// * * * * * * * * * * * * * * * * * * * * * * * * * * * * * * * * * * * * * //

dimensions      [0 1 -2 0 0 0 0];

internalField   nonuniform List<vector> 
4852
(
(8.97342 96.0929 0)
(4.11454 97.891 0)
(-0.921371 97.8364 0)
(-5.94827 96.3329 0)
(-10.8346 93.3914 0)
(-15.4349 89.104 0)
(-19.5919 83.6272 0)
(-23.1905 77.18 0)
(-26.1553 70.0219 0)
(-28.4475 62.4282 0)
(-30.0651 54.6709 0)
(-31.0352 47.001 0)
(-31.4069 39.6387 0)
(-31.242 32.7654 0)
(-30.6096 26.5246 0)
(-29.5826 21.0223 0)
(-28.2344 16.3289 0)
(-26.6413 12.4829 0)
(-24.8855 9.50274 0)
(-23.0415 7.34715 0)
(-21.1852 5.9581 0)
(-19.3678 5.26708 0)
(-17.606 5.20572 0)
(-15.8944 5.72817 0)
(-14.2359 6.82302 0)
(-12.6482 8.42352 0)
(-11.105 10.2507 0)
(-9.69243 12.058 0)
(-8.45512 13.5291 0)
(-7.38287 14.0951 0)
(-6.575 13.6607 0)
(-5.93442 12.2057 0)
(-5.32896 9.91528 0)
(-4.47315 7.17484 0)
(-3.58438 4.30786 0)
(-2.9877 0.700617 0)
(-2.01407 -7.55984 0)
(-1.05369 -14.4535 0)
(-0.236473 -21.8899 0)
(0.421454 -29.8456 0)
(0.929549 -38.2287 0)
(1.25935 -46.9457 0)
(1.38586 -55.8796 0)
(1.30085 -64.8808 0)
(1.01226 -73.7515 0)
(0.539298 -82.2416 0)
(-0.092178 -90.0529 0)
(-0.853261 -96.8567 0)
(-1.71609 -102.295 0)
(-2.62921 -105.925 0)
(-3.44874 -107.061 0)
(-4.09646 -105.861 0)
(-4.56635 -102.867 0)
(-4.80936 -98.2168 0)
(-4.81232 -92.1166 0)
(-4.59304 -84.8494 0)
(-4.18332 -76.7527 0)
(-3.61638 -68.1025 0)
(-2.94181 -59.2008 0)
(-2.19823 -50.3276 0)
(-1.41161 -41.6327 0)
(-0.614108 -33.3261 0)
(0.192831 -25.5619 0)
(0.990354 -18.3783 0)
(1.68653 -11.859 0)
(2.3803 -6.10169 0)
(3.86168 -1.31725 0)
(5.69762 3.89335 0)
(7.55393 8.06649 0)
(9.0596 10.7463 0)
(10.6591 12.3643 0)
(12.3881 13.0435 0)
(14.1488 12.948 0)
(15.8878 12.276 0)
(17.5439 11.2654 0)
(19.0539 10.1754 0)
(20.3695 9.25716 0)
(21.4666 8.72647 0)
(22.3469 8.74424 0)
(23.0315 9.39977 0)
(23.5539 10.7036 0)
(23.9522 12.5957 0)
(24.2599 14.968 0)
(24.4978 17.695 0)
(24.6682 20.6637 0)
(24.7509 23.7924 0)
(24.7094 27.0447 0)
(24.5039 30.4201 0)
(24.0851 33.9198 0)
(23.4086 37.5668 0)
(22.4325 41.3677 0)
(21.126 45.3016 0)
(19.4718 49.3133 0)
(17.4671 53.3147 0)
(15.125 57.1891 0)
(12.4742 60.8008 0)
(9.55822 64.0065 0)
(6.4332 66.6644 0)
(3.16583 68.6451 0)
(-0.162939 69.8395 0)
(-3.44578 70.0972 0)
(-6.58768 69.3857 0)
(-9.55057 67.9032 0)
(-12.2838 65.6661 0)
(-14.7389 62.7309 0)
(-16.8793 59.1814 0)
(-18.6803 55.1211 0)
(-20.127 50.6665 0)
(-21.2152 45.9408 0)
(-21.9504 41.0676 0)
(-22.346 36.1642 0)
(-22.4228 31.3386 0)
(-22.208 26.6863 0)
(-21.7333 22.2861 0)
(-21.0339 18.1988 0)
(-20.1471 14.4662 0)
(-19.1068 11.1108 0)
(-17.9464 8.1459 0)
(-16.6895 5.57265 0)
(-15.3632 3.36931 0)
(-14.0121 1.50755 0)
(-12.6813 -0.0657049 0)
(-11.4132 -1.4252 0)
(-10.2485 -2.66313 0)
(-9.2255 -3.86775 0)
(-8.35178 -5.08507 0)
(-7.63899 -6.35698 0)
(-7.11651 -7.78226 0)
(-6.75573 -9.42877 0)
(-6.55825 -11.3591 0)
(-6.52131 -13.6245 0)
(-6.63706 -16.2692 0)
(-6.89546 -19.3278 0)
(-7.28241 -22.8213 0)
(-7.77872 -26.7524 0)
(-8.35988 -31.102 0)
(-8.99647 -35.8251 0)
(-9.65507 -40.8498 0)
(9.46713 101.433 0)
(4.4322 103.579 0)
(-0.818373 103.609 0)
(-6.0466 102.023 0)
(-11.0922 98.8126 0)
(-15.7916 94.0772 0)
(-19.9881 88.0051 0)
(-23.5685 80.8563 0)
(-26.4605 72.9347 0)
(-28.6337 64.5596 0)
(-30.0968 56.0409 0)
(-30.8896 47.6589 0)
(-31.073 39.6522 0)
(-30.7204 32.2125 0)
(-29.9065 25.4858 0)
(-28.7039 19.5782 0)
(-27.1796 14.5633 0)
(-25.4009 10.4841 0)
(-23.4422 7.35012 0)
(-21.3915 5.14431 0)
(-19.3277 3.78184 0)
(-17.3213 3.15816 0)
(-15.3995 3.17305 0)
(-13.544 3.75251 0)
(-11.7357 4.88784 0)
(-9.98288 6.56557 0)
(-8.24605 8.49128 0)
(-6.6465 10.4032 0)
(-5.16815 12.0415 0)
(-3.85371 12.9182 0)
(-2.76343 12.7195 0)
(-1.87245 11.5018 0)
(-1.17199 9.26855 0)
(-0.586188 6.28682 0)
(0.22526 3.2865 0)
(1.66797 -0.769204 0)
(2.97585 -8.748 0)
(3.77611 -15.397 0)
(4.5252 -22.7001 0)
(5.22294 -30.5071 0)
(5.74297 -38.6918 0)
(6.03265 -47.1646 0)
(6.05755 -55.8269 0)
(5.79601 -64.5495 0)
(5.24613 -73.1523 0)
(4.42131 -81.397 0)
(3.34668 -88.9963 0)
(2.05735 -95.6264 0)
(0.593152 -100.939 0)
(-0.979304 -104.53 0)
(-2.51228 -105.813 0)
(-3.89647 -104.792 0)
(-5.09729 -102.037 0)
(-6.05447 -97.6679 0)
(-6.73828 -91.8537 0)
(-7.14315 -84.8555 0)
(-7.29216 -77.0031 0)
(-7.20589 -68.5495 0)
(-6.92084 -59.8077 0)
(-6.47983 -51.0474 0)
(-5.90743 -42.4373 0)
(-5.23005 -34.1736 0)
(-4.46867 -26.399 0)
(-3.61344 -19.1851 0)
(-2.63075 -12.6918 0)
(-1.51302 -7.11928 0)
(-0.272292 -2.81392 0)
(1.20626 0.725763 0)
(3.15804 6.33866 0)
(5.00622 8.90794 0)
(6.83127 10.4143 0)
(8.71199 11.0248 0)
(10.6041 10.922 0)
(12.4533 10.3127 0)
(14.205 9.43413 0)
(15.8019 8.53695 0)
(17.2015 7.84775 0)
(18.3912 7.55193 0)
(19.3844 7.78778 0)
(20.2063 8.63083 0)
(20.8869 10.085 0)
(21.4564 12.092 0)
(21.9392 14.5549 0)
(22.3463 17.3659 0)
(22.6684 20.4298 0)
(22.8803 23.6881 0)
(22.9544 27.1233 0)
(22.8433 30.7165 0)
(22.5056 34.4896 0)
(21.8956 38.4585 0)
(20.9749 42.6196 0)
(19.7173 46.9381 0)
(18.1102 51.3434 0)
(16.1557 55.7297 0)
(13.8711 59.9634 0)
(11.2888 63.892 0)
(8.4549 67.3564 0)
(5.42847 70.2026 0)
(2.27903 72.2902 0)
(-0.909475 73.4894 0)
(-4.0224 73.6129 0)
(-6.97422 72.7234 0)
(-9.7336 71.0009 0)
(-12.2481 68.4689 0)
(-14.4726 65.1943 0)
(-16.3766 61.2737 0)
(-17.9407 56.8223 0)
(-19.1551 51.9686 0)
(-20.0194 46.8464 0)
(-20.5421 41.589 0)
(-20.7385 36.3217 0)
(-20.6299 31.16 0)
(-20.2443 26.205 0)
(-19.6141 21.5397 0)
(-18.7746 17.2276 0)
(-17.7635 13.3114 0)
(-16.6158 9.81111 0)
(-15.3556 6.72552 0)
(-14.005 4.05117 0)
(-12.585 1.79619 0)
(-11.1177 -0.0674982 0)
(-9.651 -1.5957 0)
(-8.23525 -2.86238 0)
(-6.92366 -3.97186 0)
(-5.76954 -5.02273 0)
(-4.7809 -6.03145 0)
(-4.00961 -7.10737 0)
(-3.4075 -8.33376 0)
(-2.96442 -9.78951 0)
(-2.68546 -11.5351 0)
(-2.57036 -13.6213 0)
(-2.61647 -16.094 0)
(-2.81827 -18.991 0)
(-3.16627 -22.3386 0)
(-3.64667 -26.1456 0)
(-4.24078 -30.3984 0)
(-4.92468 -35.0573 0)
(-5.66986 -40.0543 0)
(9.69774 106.914 0)
(4.53611 109.463 0)
(-0.854526 109.581 0)
(-6.19812 107.874 0)
(-11.3202 104.338 0)
(-16.0426 99.0907 0)
(-20.2058 92.3582 0)
(-23.699 84.4455 0)
(-26.4551 75.7065 0)
(-28.4536 66.508 0)
(-29.7149 57.1999 0)
(-30.2926 48.0928 0)
(-30.2617 39.4437 0)
(-29.7089 31.4505 0)
(-28.7162 24.2551 0)
(-27.3605 17.9559 0)
(-25.7019 12.6179 0)
(-23.79 8.28972 0)
(-21.6833 4.99649 0)
(-19.4579 2.71657 0)
(-17.2072 1.38123 0)
(-15.0187 0.857097 0)
(-12.9459 0.982225 0)
(-10.9848 1.63063 0)
(-9.09372 2.78102 0)
(-7.23547 4.53714 0)
(-5.30453 6.57574 0)
(-3.56514 8.56857 0)
(-1.92911 10.32 0)
(-0.402885 11.4642 0)
(0.883443 11.4244 0)
(1.9407 10.4 0)
(2.74405 8.46088 0)
(3.48861 5.72529 0)
(4.59492 1.95432 0)
(5.94481 -3.19314 0)
(7.25259 -9.40986 0)
(8.085 -16.2528 0)
(8.88082 -23.5394 0)
(9.61026 -31.1943 0)
(10.1236 -39.1381 0)
(10.3645 -47.3053 0)
(10.2896 -55.6231 0)
(9.86693 -63.9836 0)
(9.08482 -72.2262 0)
(7.95005 -80.1298 0)
(6.48625 -87.4238 0)
(4.73222 -93.7959 0)
(2.73791 -98.9119 0)
(0.582372 -102.413 0)
(-1.58532 -103.783 0)
(-3.63254 -102.938 0)
(-5.49656 -100.431 0)
(-7.10747 -96.3602 0)
(-8.42487 -90.8777 0)
(-9.42184 -84.2136 0)
(-10.1049 -76.6707 0)
(-10.4883 -68.5081 0)
(-10.5938 -60.0131 0)
(-10.4596 -51.4542 0)
(-10.109 -43.0256 0)
(-9.55539 -34.9235 0)
(-8.81505 -27.3316 0)
(-7.86985 -20.3778 0)
(-6.7013 -14.1982 0)
(-5.32191 -8.88512 0)
(-3.93804 -4.28939 0)
(-2.98694 -0.140212 0)
(-1.13075 3.90417 0)
(0.987906 6.61811 0)
(3.02036 8.18435 0)
(5.0454 8.81354 0)
(7.05592 8.75344 0)
(8.99074 8.23643 0)
(10.8043 7.50544 0)
(12.452 6.81187 0)
(13.9049 6.35329 0)
(15.1701 6.27847 0)
(16.2699 6.70952 0)
(17.2216 7.71675 0)
(18.0433 9.30357 0)
(18.7567 11.4181 0)
(19.3782 13.9748 0)
(19.9089 16.8785 0)
(20.3376 20.0578 0)
(20.6517 23.4762 0)
(20.8084 27.0936 0)
(20.7723 30.9238 0)
(20.4979 34.985 0)
(19.9428 39.286 0)
(19.0742 43.8122 0)
(17.8714 48.5151 0)
(16.327 53.3081 0)
(14.4479 58.0688 0)
(12.2551 62.6465 0)
(9.78423 66.8738 0)
(7.08329 70.5772 0)
(4.21138 73.5877 0)
(1.24003 75.7563 0)
(-1.74403 76.9349 0)
(-4.61935 76.8854 0)
(-7.3149 75.8041 0)
(-9.80465 73.8263 0)
(-12.0385 70.9868 0)
(-13.9762 67.3666 0)
(-15.5952 63.0759 0)
(-16.8828 58.2413 0)
(-17.8346 53.0004 0)
(-18.455 47.498 0)
(-18.7551 41.8751 0)
(-18.7495 36.2627 0)
(-18.4586 30.784 0)
(-17.9093 25.5461 0)
(-17.1335 20.6362 0)
(-16.1681 16.1206 0)
(-15.0536 12.0417 0)
(-13.8275 8.41142 0)
(-12.5088 5.219 0)
(-11.0943 2.45252 0)
(-9.59039 0.119068 0)
(-8.03353 -1.77458 0)
(-6.46852 -3.27444 0)
(-4.95359 -4.47732 0)
(-3.5263 -5.46388 0)
(-2.19594 -6.26447 0)
(-1.2131 -7.02877 0)
(-0.370365 -7.92936 0)
(0.29805 -8.97689 0)
(0.804625 -10.2473 0)
(1.15263 -11.8039 0)
(1.33715 -13.7014 0)
(1.35678 -15.9902 0)
(1.2124 -18.7106 0)
(0.907938 -21.8917 0)
(0.451752 -25.5472 0)
(-0.143333 -29.6693 0)
(-0.859601 -34.2238 0)
(-1.67446 -39.1476 0)
(9.6247 112.476 0)
(4.42247 115.455 0)
(-1.01121 115.648 0)
(-6.36696 113.783 0)
(-11.4635 109.87 0)
(-16.1141 104.053 0)
(-20.1589 96.6021 0)
(-23.4904 87.872 0)
(-26.0474 78.2709 0)
(-27.8195 68.217 0)
(-28.837 58.1024 0)
(-29.1684 48.2698 0)
(-28.9023 38.9933 0)
(-28.1401 30.4746 0)
(-26.974 22.8461 0)
(-25.4847 16.1919 0)
(-23.7288 10.5544 0)
(-21.7334 5.97497 0)
(-19.5401 2.49786 0)
(-17.2191 0.127052 0)
(-14.8466 -1.20427 0)
(-12.506 -1.63245 0)
(-10.2816 -1.34481 0)
(-8.20045 -0.559291 0)
(-6.25168 0.548723 0)
(-4.44475 2.21837 0)
(-2.28196 4.4789 0)
(-0.495333 6.67313 0)
(1.24867 8.49561 0)
(2.93065 9.76836 0)
(4.41566 10.1184 0)
(5.5632 9.26239 0)
(6.55715 7.44361 0)
(7.66257 4.59774 0)
(8.67213 0.600335 0)
(9.85782 -4.43285 0)
(10.9985 -10.5963 0)
(11.9585 -17.3341 0)
(12.8103 -24.4528 0)
(13.5168 -31.8855 0)
(13.9915 -39.5411 0)
(14.1692 -47.3573 0)
(13.9944 -55.276 0)
(13.4257 -63.2088 0)
(12.442 -71.0161 0)
(11.0428 -78.4983 0)
(9.24914 -85.4047 0)
(7.10352 -91.4436 0)
(4.66354 -96.3035 0)
(2.01422 -99.6639 0)
(-0.697107 -101.069 0)
(-3.31801 -100.386 0)
(-5.76397 -98.1269 0)
(-7.95419 -94.3661 0)
(-9.83723 -89.243 0)
(-11.3719 -82.9618 0)
(-12.5457 -75.7923 0)
(-13.3617 -67.9939 0)
(-13.8304 -59.8362 0)
(-13.9764 -51.5834 0)
(-13.8195 -43.4506 0)
(-13.3725 -35.6363 0)
(-12.656 -28.3163 0)
(-11.6937 -21.6055 0)
(-10.5277 -15.5801 0)
(-9.22986 -10.2802 0)
(-7.89821 -5.71566 0)
(-6.5756 -1.81203 0)
(-4.98253 1.65895 0)
(-2.94309 4.3172 0)
(-0.712569 5.83862 0)
(1.46682 6.48366 0)
(3.56664 6.4932 0)
(5.53421 6.09914 0)
(7.36412 5.54724 0)
(9.03319 5.06466 0)
(10.5257 4.80763 0)
(11.8629 4.9015 0)
(13.0579 5.48622 0)
(14.1108 6.64211 0)
(15.0323 8.36625 0)
(15.8405 10.5995 0)
(16.5453 13.2601 0)
(17.154 16.2797 0)
(17.665 19.6013 0)
(18.0425 23.1695 0)
(18.26 26.9867 0)
(18.2753 31.0663 0)
(18.0455 35.4223 0)
(17.535 40.0567 0)
(16.7177 44.9431 0)
(15.5787 50.0188 0)
(14.1159 55.1818 0)
(12.341 60.2948 0)
(10.2787 65.1914 0)
(7.96609 69.6897 0)
(5.45149 73.6041 0)
(2.79334 76.7529 0)
(0.062503 78.97 0)
(-2.64823 80.098 0)
(-5.2139 79.8406 0)
(-7.58863 78.5536 0)
(-9.74406 76.3072 0)
(-11.6353 73.1527 0)
(-13.2305 69.1886 0)
(-14.5163 64.5385 0)
(-15.4884 59.3378 0)
(-16.1491 53.7339 0)
(-16.5083 47.8796 0)
(-16.5797 41.9195 0)
(-16.3768 35.988 0)
(-15.9161 30.216 0)
(-15.2171 24.7164 0)
(-14.3071 19.5835 0)
(-13.2277 14.8896 0)
(-12.0289 10.6776 0)
(-10.7547 6.95704 0)
(-9.41982 3.67628 0)
(-7.973 0.79403 0)
(-6.38484 -1.60605 0)
(-4.73065 -3.58748 0)
(-3.06057 -5.13759 0)
(-1.47108 -6.25052 0)
(-0.0509867 -7.0644 0)
(1.18894 -7.59592 0)
(2.31117 -8.06651 0)
(3.20028 -8.72599 0)
(3.94359 -9.61995 0)
(4.51422 -10.7423 0)
(4.92173 -12.138 0)
(5.1604 -13.8558 0)
(5.23092 -15.9543 0)
(5.13585 -18.4861 0)
(4.87382 -21.4848 0)
(4.44582 -24.9665 0)
(3.858 -28.9281 0)
(3.1215 -33.3413 0)
(2.25255 -38.1484 0)
(-6.51384 119.623 0)
(-11.4611 115.287 0)
(-15.9263 108.855 0)
(-19.7542 100.642 0)
(-22.844 91.0568 0)
(-25.1416 80.5645 0)
(-26.6432 69.6368 0)
(-27.3867 58.7098 0)
(-27.451 48.1618 0)
(-26.9371 38.2838 0)
(-25.9607 29.2799 0)
(-24.6315 21.2665 0)
(-23.0366 14.3025 0)
(-21.2245 8.39921 0)
(-19.1834 3.58264 0)
(-16.931 -0.0750139 0)
(-14.5556 -2.55029 0)
(-12.1525 -3.90957 0)
(-9.77601 -4.2859 0)
(-7.48119 -3.86482 0)
(-5.29296 -2.84023 0)
(-3.17189 -1.45695 0)
(-1.49932 0.119334 0)
(0.482094 2.22261 0)
(2.54957 4.456 0)
(4.39642 6.47866 0)
(6.14767 7.91825 0)
(7.75473 8.50666 0)
(9.10609 7.98052 0)
(10.2522 6.24332 0)
(11.3477 3.36196 0)
(12.3912 -0.633825 0)
(13.4695 -5.71617 0)
(14.5039 -11.7243 0)
(15.4304 -18.3291 0)
(16.2368 -25.3066 0)
(16.8841 -32.5195 0)
(17.2957 -39.8731 0)
(17.3963 -47.3129 0)
(17.1213 -54.7944 0)
(16.4206 -62.2501 0)
(15.2646 -69.5642 0)
(13.6478 -76.5627 0)
(11.5872 -83.0186 0)
(9.12312 -88.6654 0)
(6.32152 -93.2166 0)
(3.27442 -96.3892 0)
(0.122483 -97.7848 0)
(-2.97101 -97.2388 0)
(-5.90417 -95.2202 0)
(-8.58662 -91.7754 0)
(-10.9548 -87.0295 0)
(-12.9566 -81.1661 0)
(-14.5634 -74.4264 0)
(-15.7644 -67.0585 0)
(-16.5612 -59.3199 0)
(-16.9692 -51.4622 0)
(-17.0097 -43.7035 0)
(-16.7074 -36.2343 0)
(-16.1001 -29.2138 0)
(-15.2321 -22.7501 0)
(-14.1519 -16.9167 0)
(-12.9087 -11.7592 0)
(-11.5432 -7.28997 0)
(-10.0515 -3.4903 0)
(-8.33677 -0.355944 0)
(-6.34395 1.90701 0)
(-4.20727 3.29797 0)
(-2.07083 3.99202 0)
(0.0370353 4.20132 0)
(2.11991 3.98788 0)
(3.96148 3.55451 0)
(5.5587 3.26445 0)
(7.06189 3.18268 0)
(8.48643 3.43349 0)
(9.77086 4.19536 0)
(10.8865 5.51488 0)
(11.846 7.36832 0)
(12.6802 9.70921 0)
(13.4315 12.4899 0)
(14.0916 15.6296 0)
(14.6398 19.0719 0)
(15.0571 22.8058 0)
(15.3066 26.8334 0)
(15.3483 31.1665 0)
(15.1471 35.8164 0)
(14.6741 40.7756 0)
(13.9096 46.0061 0)
(12.8456 51.4317 0)
(11.4862 56.9365 0)
(9.84727 62.3687 0)
(7.95647 67.5491 0)
(5.85117 72.2832 0)
(3.57823 76.373 0)
(1.19395 79.6281 0)
(-1.23265 81.8659 0)
(-3.59713 82.8825 0)
(-5.78529 82.4108 0)
(-7.77703 80.8989 0)
(-9.53692 78.3734 0)
(-11.0276 74.9028 0)
(-12.2283 70.6037 0)
(-13.1366 65.6142 0)
(-13.7564 60.0765 0)
(-14.0987 54.1461 0)
(-14.1799 47.9813 0)
(-14.0194 41.7276 0)
(-13.6304 35.5154 0)
(-13.0239 29.4795 0)
(-12.2059 23.7376 0)
(-11.1878 18.3983 0)
(-9.99927 13.5534 0)
(-8.70369 9.2446 0)
(-7.41069 5.45995 0)
(-6.13906 2.14153 0)
(-4.70125 -0.9494 0)
(-2.9246 -3.59982 0)
(-1.05458 -5.51435 0)
(0.602291 -6.86552 0)
(2.08853 -7.77699 0)
(3.39508 -8.39713 0)
(4.54677 -8.90656 0)
(5.68915 -9.38062 0)
(6.71196 -9.82719 0)
(7.52537 -10.4448 0)
(8.14118 -11.3229 0)
(8.57044 -12.5051 0)
(8.83956 -14.0406 0)
(8.95614 -15.9673 0)
(8.89887 -18.3115 0)
(8.67039 -21.1165 0)
(8.26911 -24.4073 0)
(7.69269 -28.1842 0)
(6.94479 -32.4241 0)
(6.03495 -37.0753 0)
(12.9458 -0.482186 0)
(13.5255 -0.32438 0)
(13.8309 -0.152244 0)
(13.7684 -0.00344384 0)
(13.4705 0.142271 0)
(12.8614 0.333375 0)
(11.8841 0.553696 0)
(10.5416 0.778533 0)
(8.85128 0.996377 0)
(6.82082 1.19896 0)
(4.43822 1.36675 0)
(1.69472 1.48813 0)
(-1.22555 1.6013 0)
(-3.83449 1.58977 0)
(-6.38735 1.43982 0)
(-8.90367 1.2777 0)
(-11.1838 1.07094 0)
(-13.1037 0.840612 0)
(-14.5889 0.605718 0)
(-15.5864 0.384736 0)
(-16.1272 0.194289 0)
(-16.2491 0.0385892 0)
(-16.0258 -0.085278 0)
(-15.4725 -0.169601 0)
(-14.7178 -0.211144 0)
(-13.859 -0.23063 0)
(-12.9234 -0.247556 0)
(-11.9572 -0.269796 0)
(-10.9861 -0.30323 0)
(-10.0207 -0.354545 0)
(-9.06152 -0.420502 0)
(-8.10472 -0.495923 0)
(-7.13578 -0.583713 0)
(-6.11597 -0.677584 0)
(-4.96124 -0.734479 0)
(-3.58155 -0.77832 0)
(-1.91324 -0.88008 0)
(-0.179925 -1.31567 0)
(2.04088 -1.4625 0)
(4.66431 -1.58219 0)
(7.7028 -1.81796 0)
(11.0282 -1.96829 0)
(14.5199 -2.003 0)
(17.982 -1.87646 0)
(21.12 -1.57191 0)
(23.6005 -1.12374 0)
(25.1487 -0.599714 0)
(25.5703 -0.073334 0)
(24.8611 0.386549 0)
(23.4353 0.845123 0)
(21.0905 1.30272 0)
(18.0189 1.68197 0)
(14.3394 1.93794 0)
(10.2418 2.03044 0)
(5.94752 2.0076 0)
(2.11046 2.06733 0)
(-1.32881 1.75325 0)
(-4.60664 1.48724 0)
(-7.43058 1.19776 0)
(-9.69672 0.914875 0)
(-11.3624 0.647362 0)
(-12.443 0.41999 0)
(-13.01 0.237281 0)
(-13.1585 0.0881441 0)
(-12.9699 -0.0234514 0)
(-12.5014 -0.106552 0)
(-11.8597 -0.184798 0)
(-11.0424 -0.266835 0)
(-10.092 -0.341784 0)
(-9.05562 -0.400828 0)
(-7.97878 -0.439259 0)
(-6.89084 -0.464175 0)
(-5.80636 -0.473162 0)
(-4.71204 -0.445321 0)
(-3.58133 -0.42746 0)
(-2.48075 -0.536744 0)
(-1.37606 -0.662732 0)
(-0.371789 -0.583748 0)
(0.656017 -0.563242 0)
(1.66787 -0.571349 0)
(2.6238 -0.53692 0)
(3.47999 -0.491511 0)
(4.21728 -0.438201 0)
(4.8469 -0.389581 0)
(5.37883 -0.323979 0)
(5.79735 -0.247019 0)
(6.09334 -0.169861 0)
(6.26941 -0.0944774 0)
(6.31082 -0.0154872 0)
(6.20708 0.0705046 0)
(5.93735 0.157646 0)
(5.50968 0.234229 0)
(4.96097 0.300543 0)
(4.29291 0.355769 0)
(3.54127 0.395021 0)
(2.73763 0.417663 0)
(1.90601 0.42556 0)
(1.05031 0.420756 0)
(0.177117 0.427561 0)
(-0.634164 0.500553 0)
(-1.36752 0.450563 0)
(-2.10546 0.419642 0)
(-2.80291 0.381418 0)
(-3.44301 0.350017 0)
(-4.03013 0.323837 0)
(-4.55985 0.289126 0)
(-5.01122 0.24574 0)
(-5.36654 0.198155 0)
(-5.6194 0.151084 0)
(-5.77496 0.105401 0)
(-5.83508 0.062599 0)
(-5.82698 0.0246932 0)
(-5.76402 -0.0102534 0)
(-5.65844 -0.0443537 0)
(-5.51513 -0.0804148 0)
(-5.32877 -0.119981 0)
(-5.08874 -0.161996 0)
(-4.78522 -0.203993 0)
(-4.41819 -0.238345 0)
(-3.99311 -0.268775 0)
(-3.50544 -0.299997 0)
(-2.94018 -0.312766 0)
(-2.29846 -0.329287 0)
(-1.59556 -0.359983 0)
(-0.900849 -0.457335 0)
(-0.185237 -0.432327 0)
(0.592543 -0.406333 0)
(1.40419 -0.396565 0)
(2.18545 -0.383993 0)
(2.91834 -0.354144 0)
(3.57504 -0.312797 0)
(4.13303 -0.265882 0)
(4.59413 -0.226655 0)
(4.97114 -0.187238 0)
(5.26256 -0.143009 0)
(5.45643 -0.0972279 0)
(5.55298 -0.0510791 0)
(5.55067 -0.00318596 0)
(5.44932 0.046512 0)
(16.5947 -0.75433 0)
(16.4649 -0.347997 0)
(16.0236 0.182957 0)
(15.1933 0.781864 0)
(13.7304 1.36387 0)
(11.7973 1.92517 0)
(9.57563 2.45509 0)
(7.19521 2.92635 0)
(4.76413 3.32182 0)
(2.34594 3.66505 0)
(-0.0376678 4.03101 0)
(-2.40156 4.3295 0)
(-4.64783 4.55583 0)
(-7.40004 4.69119 0)
(-10.1857 4.5087 0)
(-12.7269 4.1059 0)
(-15.006 3.49274 0)
(-16.8781 2.71818 0)
(-18.2517 1.87176 0)
(-19.1385 1.03803 0)
(-19.5511 0.258529 0)
(-19.5126 -0.443838 0)
(-19.0762 -1.03696 0)
(-18.3616 -1.49513 0)
(-17.3999 -1.80609 0)
(-16.2327 -1.98834 0)
(-14.8988 -2.06883 0)
(-13.4255 -2.0637 0)
(-11.8257 -1.99531 0)
(-10.1093 -1.89616 0)
(-8.28393 -1.78988 0)
(-6.37308 -1.6878 0)
(-4.38072 -1.62052 0)
(-2.37076 -1.61983 0)
(-0.393644 -1.93753 0)
(1.89983 -2.38641 0)
(4.12554 -2.94113 0)
(6.41519 -3.74378 0)
(8.98591 -4.46743 0)
(11.6253 -5.2665 0)
(14.4293 -5.6828 0)
(17.4351 -5.90718 0)
(20.5512 -5.83901 0)
(23.6166 -5.33573 0)
(26.23 -4.29614 0)
(27.9879 -2.75871 0)
(28.5118 -0.927745 0)
(27.8769 0.914824 0)
(26.1681 2.62386 0)
(23.1089 4.10388 0)
(19.2625 5.26458 0)
(15.1271 6.06577 0)
(10.9593 6.56053 0)
(6.89068 6.8174 0)
(3.12302 6.69643 0)
(-0.985278 6.50256 0)
(-5.1201 5.91845 0)
(-8.74603 5.12235 0)
(-11.9406 4.19296 0)
(-14.6062 3.16807 0)
(-16.5947 2.10067 0)
(-17.9011 1.12941 0)
(-18.5553 0.329563 0)
(-18.6712 -0.34234 0)
(-18.3573 -0.869148 0)
(-17.6684 -1.26174 0)
(-16.6279 -1.56948 0)
(-15.2419 -1.80778 0)
(-13.5586 -1.94377 0)
(-11.6771 -1.98403 0)
(-9.70667 -1.96496 0)
(-7.73748 -1.91329 0)
(-5.84829 -1.8642 0)
(-4.11336 -1.91583 0)
(-2.33304 -2.00147 0)
(-0.600148 -1.85926 0)
(1.10671 -1.86303 0)
(2.67882 -1.84725 0)
(3.98058 -1.79602 0)
(5.10711 -1.70482 0)
(6.09218 -1.55137 0)
(6.88951 -1.31483 0)
(7.47904 -1.02868 0)
(7.90046 -0.851385 0)
(8.19283 -0.639472 0)
(8.30147 -0.399406 0)
(8.26951 -0.186236 0)
(8.11086 0.0184993 0)
(7.82839 0.238933 0)
(7.39761 0.481307 0)
(6.79187 0.735656 0)
(6.00207 0.962835 0)
(5.04644 1.14816 0)
(4.00597 1.28473 0)
(2.93405 1.36422 0)
(1.8745 1.39177 0)
(0.859768 1.38681 0)
(-0.094648 1.39399 0)
(-1.02208 1.38739 0)
(-1.99323 1.35824 0)
(-2.9663 1.30741 0)
(-3.8297 1.21064 0)
(-4.60124 1.09718 0)
(-5.29392 0.988561 0)
(-5.92916 0.87528 0)
(-6.51173 0.73285 0)
(-6.99559 0.559184 0)
(-7.34455 0.372747 0)
(-7.54916 0.19231 0)
(-7.59621 0.0300247 0)
(-7.51643 -0.103018 0)
(-7.32222 -0.198578 0)
(-7.03575 -0.257634 0)
(-6.67774 -0.288864 0)
(-6.2574 -0.318656 0)
(-5.771 -0.369477 0)
(-5.2108 -0.443463 0)
(-4.57108 -0.546761 0)
(-3.87205 -0.647221 0)
(-3.13816 -0.723262 0)
(-2.38111 -0.815719 0)
(-1.58469 -0.981372 0)
(-0.70516 -1.07616 0)
(0.146831 -1.18524 0)
(1.03246 -1.26955 0)
(1.9423 -1.27751 0)
(2.76206 -1.46022 0)
(3.54052 -1.40312 0)
(4.28843 -1.32787 0)
(4.96824 -1.21962 0)
(5.52608 -1.04641 0)
(5.93612 -0.825829 0)
(6.21424 -0.661458 0)
(6.398 -0.513787 0)
(6.49957 -0.340502 0)
(6.5016 -0.155167 0)
(6.404 0.0244135 0)
(6.20963 0.197265 0)
(5.91983 0.362778 0)
(15.7407 -0.87578 0)
(15.129 -0.0791581 0)
(14.2397 0.978079 0)
(13.0197 2.24528 0)
(11.5145 3.42498 0)
(9.82802 4.39867 0)
(8.01805 5.12378 0)
(6.12634 5.61302 0)
(4.19058 5.98107 0)
(2.19897 6.40212 0)
(0.0211303 6.87947 0)
(-2.24047 7.21921 0)
(-4.58888 7.44764 0)
(-6.97153 7.43965 0)
(-9.29486 7.27665 0)
(-11.3532 6.74451 0)
(-13.0314 5.81643 0)
(-14.2321 4.59403 0)
(-14.9257 3.25228 0)
(-15.178 1.9457 0)
(-15.001 0.747342 0)
(-14.5509 -0.284118 0)
(-13.892 -1.11995 0)
(-13.085 -1.7647 0)
(-12.1994 -2.25776 0)
(-11.2994 -2.65713 0)
(-10.4336 -3.02356 0)
(-9.61576 -3.40066 0)
(-8.78521 -3.80799 0)
(-7.85409 -4.24073 0)
(-6.82752 -4.66553 0)
(-5.68549 -5.02847 0)
(-4.4375 -5.28806 0)
(-2.9904 -5.54569 0)
(-1.25439 -5.91588 0)
(0.797718 -6.16633 0)
(3.36004 -6.25876 0)
(6.30079 -6.30885 0)
(9.15989 -6.51074 0)
(11.7613 -6.90277 0)
(14.0914 -7.45978 0)
(16.2677 -8.06178 0)
(18.4117 -8.42044 0)
(20.5369 -8.08575 0)
(22.4668 -6.6629 0)
(23.8542 -4.1435 0)
(24.4178 -1.02351 0)
(24.1301 2.01133 0)
(23.1489 4.96788 0)
(21.424 7.62736 0)
(19.0823 9.43965 0)
(16.2963 10.4967 0)
(13.1063 11.1478 0)
(9.52979 11.5734 0)
(5.89377 11.8128 0)
(2.08641 11.3861 0)
(-1.92583 10.5735 0)
(-5.6536 9.38229 0)
(-9.04018 7.92172 0)
(-12.0158 6.22147 0)
(-14.4498 4.37478 0)
(-16.256 2.60806 0)
(-17.5619 1.08251 0)
(-18.4958 -0.152485 0)
(-19.0644 -1.08493 0)
(-19.301 -1.91716 0)
(-19.2382 -2.7673 0)
(-18.7398 -3.64082 0)
(-17.756 -4.33463 0)
(-16.348 -4.75353 0)
(-14.5699 -4.91971 0)
(-12.4795 -4.85524 0)
(-10.1761 -4.6318 0)
(-7.82367 -4.41799 0)
(-5.5466 -4.37793 0)
(-3.28147 -4.44751 0)
(-0.967451 -4.18435 0)
(1.12097 -3.71554 0)
(2.96989 -3.09507 0)
(4.62494 -2.79888 0)
(6.08905 -2.30243 0)
(7.27657 -1.89227 0)
(8.01292 -1.53176 0)
(8.49014 -1.19216 0)
(8.96329 -0.830504 0)
(9.26854 -0.42599 0)
(9.31549 -0.0870118 0)
(9.19758 0.208245 0)
(8.95198 0.567123 0)
(8.54253 1.03418 0)
(7.93104 1.59183 0)
(7.12634 2.08449 0)
(6.18792 2.43764 0)
(5.17087 2.65649 0)
(4.10741 2.74687 0)
(3.03642 2.73005 0)
(1.99544 2.65683 0)
(1.01488 2.5959 0)
(0.10242 2.58849 0)
(-0.777157 2.55691 0)
(-1.59142 2.44848 0)
(-2.38295 2.28313 0)
(-3.13492 2.04698 0)
(-3.85173 1.8383 0)
(-4.50826 1.75879 0)
(-5.10013 1.58529 0)
(-5.62737 1.29737 0)
(-6.07565 0.938358 0)
(-6.43626 0.560704 0)
(-6.70548 0.203661 0)
(-6.89552 -0.114055 0)
(-7.0049 -0.391566 0)
(-7.02816 -0.637407 0)
(-7.03917 -0.873819 0)
(-7.04386 -1.11277 0)
(-7.00185 -1.35573 0)
(-6.85791 -1.60102 0)
(-6.53998 -1.80765 0)
(-6.03044 -1.91961 0)
(-5.37268 -1.97849 0)
(-4.53065 -2.17895 0)
(-3.64734 -2.21439 0)
(-2.66609 -2.29379 0)
(-1.50355 -2.44083 0)
(-0.214167 -2.39572 0)
(1.02879 -2.32576 0)
(2.19862 -2.17476 0)
(3.29836 -2.05182 0)
(4.33486 -1.9076 0)
(5.28194 -1.60615 0)
(6.06024 -1.27841 0)
(6.5342 -0.979388 0)
(6.74989 -0.716336 0)
(6.9449 -0.475587 0)
(7.08606 -0.240236 0)
(7.11867 -0.00377666 0)
(7.04648 0.231909 0)
(6.88165 0.470228 0)
(6.62375 0.712579 0)
(14.3386 0.859962 0)
(12.7201 1.71254 0)
(11.0533 2.72205 0)
(9.2154 3.82991 0)
(7.23933 4.97879 0)
(5.28686 6.01596 0)
(3.33062 6.86417 0)
(1.28898 7.58829 0)
(-0.923174 8.10346 0)
(-3.21923 8.4399 0)
(-5.46446 8.86028 0)
(-7.55419 9.38083 0)
(-9.7423 9.7539 0)
(-11.743 9.72219 0)
(-13.3113 9.28693 0)
(-14.4728 8.34729 0)
(-15.0349 6.79823 0)
(-15.0867 4.89445 0)
(-14.7586 2.94477 0)
(-14.0951 1.12529 0)
(-13.1656 -0.48821 0)
(-11.9901 -1.86204 0)
(-10.557 -2.96582 0)
(-8.86197 -3.76544 0)
(-6.92655 -4.24826 0)
(-4.8088 -4.44053 0)
(-2.61017 -4.40841 0)
(-0.466383 -4.26319 0)
(1.46183 -4.11947 0)
(3.05973 -4.01099 0)
(4.3699 -3.92598 0)
(5.34878 -3.83944 0)
(5.94788 -3.95918 0)
(6.20745 -4.49344 0)
(6.18074 -5.58634 0)
(5.72022 -7.19246 0)
(5.04708 -8.69879 0)
(4.58055 -9.96684 0)
(4.51221 -10.8394 0)
(5.07518 -11.3098 0)
(6.46525 -11.4666 0)
(8.54112 -11.4225 0)
(11.0337 -11.1761 0)
(13.6029 -10.3935 0)
(15.9634 -8.51865 0)
(17.7607 -5.3346 0)
(18.7479 -1.52011 0)
(19.3702 2.29457 0)
(20.2021 5.93699 0)
(20.5527 9.17521 0)
(19.9401 11.7605 0)
(18.3763 13.4124 0)
(16.2683 14.4655 0)
(13.783 15.1487 0)
(10.614 15.5038 0)
(7.14886 15.1889 0)
(4.11419 14.3486 0)
(1.14703 13.0891 0)
(-1.77722 11.524 0)
(-4.52821 9.6461 0)
(-7.08529 7.11821 0)
(-9.18654 4.79316 0)
(-10.7863 3.14346 0)
(-11.9903 1.33406 0)
(-13.0572 -0.146821 0)
(-14.2064 -1.22966 0)
(-15.3502 -2.36932 0)
(-16.1362 -3.5889 0)
(-16.4044 -4.66852 0)
(-16.3251 -5.57872 0)
(-15.9596 -6.29906 0)
(-15.286 -6.81788 0)
(-14.2313 -7.11261 0)
(-12.8054 -7.22208 0)
(-11.1099 -7.20593 0)
(-9.33046 -7.04592 0)
(-7.56114 -6.65605 0)
(-5.71997 -6.15243 0)
(-3.77183 -5.74098 0)
(-1.68992 -5.42234 0)
(0.350636 -4.87289 0)
(2.18106 -3.94645 0)
(3.85145 -2.14258 0)
(5.37967 -2.22493 0)
(6.67571 -1.58281 0)
(7.51437 -0.799837 0)
(7.83423 -0.0803126 0)
(7.88873 0.547035 0)
(7.8723 1.14279 0)
(7.71114 1.80244 0)
(7.26203 2.43656 0)
(6.53593 2.9886 0)
(5.68109 3.42784 0)
(4.75161 3.70738 0)
(3.77092 3.82892 0)
(2.76323 3.8129 0)
(1.77273 3.68877 0)
(0.869738 3.52204 0)
(0.0797109 3.37387 0)
(-0.709591 3.25352 0)
(-1.41541 3.09042 0)
(-2.00701 2.89215 0)
(-2.54108 2.67049 0)
(-3.04161 2.4504 0)
(-3.43646 2.22854 0)
(-3.63108 1.93925 0)
(-3.6823 1.59247 0)
(-3.65248 1.21536 0)
(-3.56192 0.826806 0)
(-3.42689 0.45469 0)
(-3.25862 0.12201 0)
(-3.08028 -0.158238 0)
(-2.92933 -0.316217 0)
(-2.8246 -0.289833 0)
(-2.75372 -0.284673 0)
(-2.7483 -0.454107 0)
(-2.78643 -0.724445 0)
(-2.86216 -1.30314 0)
(-2.97728 -1.86508 0)
(-3.07479 -2.21535 0)
(-3.17859 -2.61966 0)
(-3.26454 -3.07966 0)
(-3.26474 -3.54306 0)
(-3.2002 -3.87243 0)
(-3.02926 -3.99514 0)
(-2.70511 -3.98999 0)
(-2.16827 -3.92668 0)
(-1.40586 -3.82843 0)
(-0.472303 -3.68175 0)
(0.576507 -3.40762 0)
(1.68166 -2.82439 0)
(2.78479 -1.56825 0)
(3.85161 -1.22226 0)
(4.8536 -1.04612 0)
(5.74168 -0.63869 0)
(6.47781 -0.174695 0)
(7.04385 0.253589 0)
(7.43877 0.678653 0)
(7.65268 1.11721 0)
(6.36262 2.12561 0)
(5.82895 2.91764 0)
(4.91782 4.18852 0)
(3.6741 6.54656 0)
(2.18223 7.69452 0)
(0.478807 8.69285 0)
(-1.40071 9.57256 0)
(-3.40892 10.3102 0)
(-5.46076 10.8973 0)
(-7.58136 11.4313 0)
(-9.90821 11.9489 0)
(-11.9672 12.1143 0)
(-13.7664 11.9263 0)
(-15.2784 11.5264 0)
(-16.2176 10.5389 0)
(-16.6246 8.89605 0)
(-16.7225 6.8443 0)
(-16.6028 4.60101 0)
(-16.4109 2.40383 0)
(-16.2463 0.40449 0)
(-16.087 -1.37376 0)
(-15.8768 -2.96543 0)
(-15.537 -4.36862 0)
(-15.0438 -5.56483 0)
(-14.3071 -6.51862 0)
(-13.2823 -7.22 0)
(-11.8961 -7.64648 0)
(-10.1 -7.80179 0)
(-7.88625 -7.77634 0)
(-5.26329 -7.75051 0)
(-2.19486 -7.79755 0)
(1.35861 -7.6492 0)
(5.21642 -7.17338 0)
(9.06645 -6.61087 0)
(12.5434 -6.01832 0)
(15.5131 -5.53834 0)
(17.3473 -5.27132 0)
(17.639 -5.43627 0)
(16.9299 -6.40309 0)
(15.5645 -8.28041 0)
(13.8014 -10.472 0)
(11.8017 -12.3986 0)
(9.74588 -13.5364 0)
(8.00984 -13.4384 0)
(7.07925 -11.6257 0)
(6.70515 -8.13742 0)
(8.58139 -2.85074 0)
(10.0102 -0.50355 0)
(12.2157 2.53661 0)
(14.5574 7.79691 0)
(16.5542 11.4504 0)
(17.8815 14.1824 0)
(18.3984 16.3777 0)
(18.191 18.1046 0)
(17.1152 18.8112 0)
(15.3337 18.6842 0)
(13.0938 17.8059 0)
(10.7051 16.3891 0)
(8.31011 14.5454 0)
(5.98385 12.2492 0)
(3.60043 9.49614 0)
(1.05874 6.59014 0)
(-1.08689 4.16729 0)
(-3.24711 2.52522 0)
(-4.85353 1.71253 0)
(-6.37933 0.882023 0)
(-7.93948 -0.219003 0)
(-9.23623 -2.45644 0)
(-10.1837 -4.13684 0)
(-10.9349 -5.23744 0)
(-11.4957 -6.12504 0)
(-11.8441 -6.85238 0)
(-11.9744 -7.45781 0)
(-11.886 -7.95989 0)
(-11.5179 -8.27482 0)
(-10.9238 -8.40724 0)
(-10.1216 -8.32662 0)
(-9.12226 -8.07915 0)
(-7.90376 -7.74786 0)
(-6.60432 -7.2589 0)
(-5.35351 -6.49944 0)
(-4.15897 -5.59954 0)
(-2.74474 -4.89255 0)
(-1.23924 -4.26359 0)
(-0.118102 -3.35888 0)
(0.968687 -1.64692 0)
(1.74402 -0.606444 0)
(2.26838 -0.0268983 0)
(2.77891 0.590259 0)
(3.17889 1.31588 0)
(3.28488 2.8064 0)
(3.16192 3.75172 0)
(2.87256 4.3195 0)
(2.4579 4.73555 0)
(1.90444 4.946 0)
(1.26017 4.96523 0)
(0.546407 4.81755 0)
(-0.215142 4.58657 0)
(-1.01775 4.35953 0)
(-1.86794 4.15263 0)
(-2.72452 3.91542 0)
(-3.56525 3.63926 0)
(-4.37336 3.32599 0)
(-5.08565 2.95207 0)
(-5.62014 2.49654 0)
(-5.97336 1.9728 0)
(-6.18055 1.42823 0)
(-6.25652 0.896542 0)
(-6.21343 0.394782 0)
(-6.06111 -0.0557029 0)
(-5.80398 -0.429495 0)
(-5.44695 -0.710521 0)
(-4.98464 -0.898368 0)
(-4.39148 -1.02955 0)
(-3.66337 -1.18049 0)
(-2.85066 -1.38495 0)
(-1.91731 -1.62332 0)
(-0.879459 -1.77391 0)
(0.0941662 -1.88329 0)
(0.993843 -1.97563 0)
(1.80374 -2.07328 0)
(2.43845 -2.17887 0)
(2.83906 -2.33158 0)
(2.97652 -2.56919 0)
(2.93639 -2.85863 0)
(2.77896 -3.20367 0)
(2.53105 -3.60197 0)
(2.23208 -3.97357 0)
(1.91361 -4.11881 0)
(1.63821 -3.97356 0)
(1.47197 -3.61712 0)
(1.6152 -3.29508 0)
(2.05951 -3.03216 0)
(2.57739 -2.6362 0)
(3.1 -2.06776 0)
(3.66224 -1.43313 0)
(4.34085 -0.838741 0)