/*--------------------------------*- C++ -*----------------------------------*\
| =========                 |                                                 |
| \\      /  F ield         | OpenFOAM: The Open Source CFD Toolbox           |
|  \\    /   O peration     | Version:  2206                                  |
|   \\  /    A nd           | Website:  www.openfoam.com                      |
|    \\/     M anipulation  |                                                 |
\*---------------------------------------------------------------------------*/
FoamFile
{
    version     2.0;
    format      ascii;
    arch        "LSB;label=32;scalar=64";
    class       volVectorField;
    location    "19.1001";
    object      ddtCorrDdt0(U);
}
// * * * * * * * * * * * * * * * * * * * * * * * * * * * * * * * * * * * * * //

dimensions      [0 1 -2 0 0 0 0];

internalField   nonuniform List<vector> 
4824
(
(-6.69486e-06 -0.00327409 0)
(-5.27174e-05 -0.00938024 0)
(-0.000153877 -0.0153399 0)
(-0.000327288 -0.0210894 0)
(-0.000574896 -0.0265666 0)
(-0.000888176 -0.0317204 0)
(-0.00125464 -0.0365002 0)
(-0.00166739 -0.0408598 0)
(-0.00212207 -0.0447575 0)
(-0.00261486 -0.0481566 0)
(-0.00314077 -0.0510258 0)
(-0.00369493 -0.0533387 0)
(-0.00427268 -0.0550751 0)
(-0.00487011 -0.0562225 0)
(-0.00548052 -0.0567786 0)
(-0.00609709 -0.0567515 0)
(-0.00671388 -0.0561597 0)
(-0.00732737 -0.0550314 0)
(-0.00793133 -0.0534034 0)
(-0.00851989 -0.0513185 0)
(-0.00908837 -0.0488231 0)
(-0.009635 -0.0459661 0)
(-0.0101554 -0.0427998 0)
(-0.0106456 -0.0393768 0)
(-0.0111027 -0.0357489 0)
(-0.011528 -0.0319669 0)
(-0.0119191 -0.0280823 0)
(-0.0122739 -0.0241445 0)
(-0.0125899 -0.0202009 0)
(-0.0128747 -0.0162971 0)
(-0.0131123 -0.0124775 0)
(-0.0133454 -0.00878983 0)
(-0.0134999 -0.00526578 0)
(-0.013653 -0.00194922 0)
(-0.0137668 0.00111906 0)
(-0.0138588 0.00390329 0)
(-0.0139293 0.00636498 0)
(-0.0139668 0.00848459 0)
(-0.0140179 0.0102175 0)
(-0.0140244 0.0115599 0)
(-0.0140448 0.0124722 0)
(-0.0140708 0.0129512 0)
(-0.0140467 0.0130034 0)
(-0.014145 0.0125607 0)
(-0.0140852 0.0117431 0)
(-0.0142313 0.0103975 0)
(-0.0142625 0.00869119 0)
(-0.0143596 0.00655379 0)
(-0.0145592 0.00396227 0)
(-0.014669 0.00110094 0)
(-0.0149248 -0.0021973 0)
(-0.0151773 -0.00577935 0)
(-0.0154518 -0.00964001 0)
(-0.0158152 -0.0138562 0)
(-0.0161995 -0.0182387 0)
(-0.0166593 -0.0228174 0)
(-0.0171768 -0.0275553 0)
(-0.0177556 -0.032419 0)
(-0.0184013 -0.037381 0)
(-0.0191127 -0.0424099 0)
(-0.0198872 -0.0474725 0)
(-0.0207324 -0.0525402 0)
(-0.0216497 -0.0575929 0)
(-0.0226363 -0.0626119 0)
(-0.0236918 -0.0675762 0)
(-0.0248251 -0.072466 0)
(-0.0260373 -0.0772686 0)
(-0.0273269 -0.0819762 0)
(-0.0286946 -0.0865823 0)
(-0.0301511 -0.0910845 0)
(-0.031699 -0.0954884 0)
(-0.0333383 -0.0998043 0)
(-0.035072 -0.104042 0)
(-0.036915 -0.108214 0)
(-0.0388751 -0.112344 0)
(-0.040959 -0.116455 0)
(-0.0431765 -0.120577 0)
(-0.0455504 -0.124739 0)
(-0.0480989 -0.128983 0)
(-0.0508395 -0.133355 0)
(-0.053794 -0.137904 0)
(-0.0570006 -0.142682 0)
(-0.0604957 -0.147752 0)
(-0.0643163 -0.153184 0)
(-0.0685074 -0.159047 0)
(-0.0731349 -0.165422 0)
(-0.0782687 -0.172395 0)
(-0.0839866 -0.180065 0)
(-0.0903814 -0.188535 0)
(-0.0975775 -0.19792 0)
(-0.105716 -0.208348 0)
(-0.114957 -0.21996 0)
(-0.12549 -0.232911 0)
(-0.137555 -0.247373 0)
(-0.151439 -0.263545 0)
(-0.167485 -0.281655 0)
(-0.186105 -0.301956 0)
(-0.207816 -0.324749 0)
(-0.233251 -0.350387 0)
(-0.263188 -0.379312 0)
(-0.298594 -0.412076 0)
(-0.340702 -0.449404 0)
(-0.39113 -0.492293 0)
(-0.451923 -0.542177 0)
(-0.526129 -0.601219 0)
(-0.617146 -0.67288 0)
(-0.733752 -0.762626 0)
(-0.878781 -0.881601 0)
(-1.10275 -1.03966 0)
(-1.37088 -1.30634 0)
(-2.1344 -1.57159 0)
(-2.86302 -2.53975 0)
(-1.10339e-05 -0.00323388 0)
(-7.49283e-05 -0.00927191 0)
(-0.000209665 -0.0151595 0)
(-0.000416767 -0.0208352 0)
(-0.000698119 -0.026235 0)
(-0.00105255 -0.0313124 0)
(-0.00147517 -0.036024 0)
(-0.0019578 -0.0403259 0)
(-0.00249285 -0.0441742 0)
(-0.00307431 -0.0475306 0)
(-0.00369547 -0.0503623 0)
(-0.00434891 -0.0526431 0)
(-0.005029 -0.0543535 0)
(-0.00573182 -0.055482 0)
(-0.00645075 -0.0560262 0)
(-0.00717631 -0.0559941 0)
(-0.00790159 -0.0554041 0)
(-0.00862314 -0.0542849 0)
(-0.00933484 -0.0526721 0)
(-0.0100276 -0.0506077 0)
(-0.0106959 -0.0481376 0)
(-0.0113387 -0.0453112 0)
(-0.0119524 -0.0421793 0)
(-0.0125295 -0.0387934 0)
(-0.0130667 -0.0352047 0)
(-0.0135668 -0.0314649 0)
(-0.0140284 -0.0276238 0)
(-0.014446 -0.0237298 0)
(-0.0148173 -0.0198298 0)
(-0.0151509 -0.0159701 0)
(-0.0154356 -0.0121942 0)
(-0.0157002 -0.00854757 0)
(-0.015899 -0.0050645 0)
(-0.0160586 -0.00178365 0)
(-0.016209 0.0012478 0)
(-0.0163096 0.00400285 0)
(-0.0163859 0.00644004 0)
(-0.0164493 0.00853322 0)
(-0.0164721 0.0102577 0)
(-0.0165305 0.0115744 0)
(-0.0164957 0.0124997 0)
(-0.0165638 0.0129624 0)
(-0.0165348 0.0130245 0)
(-0.0165845 0.0126157 0)
(-0.0166371 0.0117654 0)
(-0.0166413 0.0105213 0)
(-0.0168066 0.00877565 0)
(-0.0168776 0.0066944 0)
(-0.0170298 0.00419848 0)
(-0.0172597 0.00129334 0)
(-0.0174852 -0.00189997 0)
(-0.0177632 -0.00541751 0)
(-0.0181335 -0.00931036 0)
(-0.0184977 -0.0133921 0)
(-0.0189581 -0.0177103 0)
(-0.0195 -0.0222232 0)
(-0.0201009 -0.0268856 0)
(-0.0207727 -0.0316697 0)
(-0.0215256 -0.0365509 0)
(-0.0223523 -0.0415007 0)
(-0.0232511 -0.0464868 0)
(-0.0242335 -0.0514795 0)
(-0.0253023 -0.056452 0)
(-0.0264482 -0.0613817 0)
(-0.0276721 -0.0662499 0)
(-0.028989 -0.0710434 0)
(-0.0304029 -0.0757507 0)
(-0.0319025 -0.0803625 0)
(-0.0334877 -0.0848715 0)
(-0.0351745 -0.0892756 0)
(-0.0369694 -0.0935761 0)
(-0.0388643 -0.097777 0)
(-0.0408632 -0.101887 0)
(-0.0429883 -0.105923 0)
(-0.0452519 -0.109904 0)
(-0.0476521 -0.113852 0)
(-0.0501997 -0.117794 0)
(-0.0529247 -0.121762 0)
(-0.0558497 -0.125793 0)
(-0.0589843 -0.129925 0)
(-0.062353 -0.1342 0)
(-0.0660023 -0.138668 0)
(-0.0699747 -0.143384 0)
(-0.074303 -0.148403 0)
(-0.0790369 -0.153788 0)
(-0.0842523 -0.159609 0)
(-0.0900288 -0.165941 0)
(-0.0964434 -0.172862 0)
(-0.103595 -0.180459 0)
(-0.111621 -0.188821 0)
(-0.120675 -0.198052 0)
(-0.130923 -0.208255 0)
(-0.14257 -0.219546 0)
(-0.155876 -0.232048 0)
(-0.171153 -0.245897 0)
(-0.188758 -0.261234 0)
(-0.209134 -0.278218 0)
(-0.232842 -0.297021 0)
(-0.260571 -0.317842 0)
(-0.293171 -0.340901 0)
(-0.331721 -0.366467 0)
(-0.377639 -0.394868 0)
(-0.432811 -0.426539 0)
(-0.499798 -0.462042 0)
(-0.582303 -0.502193 0)
(-0.685706 -0.548052 0)
(-0.819422 -0.601051 0)
(-0.995855 -0.662792 0)
(-1.24873 -0.729913 0)
(-1.58241 -0.806104 0)
(-2.17698 -0.797505 0)
(-2.74704 -0.902133 0)
(-1.41139e-05 -0.00318361 0)
(-8.95373e-05 -0.00914064 0)
(-0.000252279 -0.0149438 0)
(-0.000497328 -0.0205356 0)
(-0.000821646 -0.0258524 0)
(-0.0012241 -0.0308473 0)
(-0.0017018 -0.0354801 0)
(-0.00224968 -0.039711 0)
(-0.00286126 -0.0434984 0)
(-0.00352825 -0.0468031 0)
(-0.00424123 -0.0495909 0)
(-0.00499184 -0.051835 0)
(-0.00577401 -0.0535159 0)
(-0.00658158 -0.0546228 0)
(-0.00740602 -0.0551533 0)
(-0.00823841 -0.0551153 0)
(-0.00907214 -0.0545276 0)
(-0.00990107 -0.0534185 0)
(-0.0107169 -0.051823 0)
(-0.0115116 -0.049782 0)
(-0.0122803 -0.0473415 0)
(-0.0130193 -0.0445503 0)
(-0.0137226 -0.041458 0)
(-0.0143845 -0.0381151 0)
(-0.0150033 -0.0345729 0)
(-0.0155787 -0.0308822 0)
(-0.0161071 -0.0270917 0)
(-0.0165855 -0.0232487 0)
(-0.0170137 -0.0194 0)
(-0.0173982 -0.0155915 0)
(-0.0177232 -0.0118644 0)
(-0.018029 -0.00826817 0)
(-0.0182543 -0.00483413 0)
(-0.0184448 -0.00159762 0)
(-0.0186041 0.00139827 0)
(-0.0187324 0.00411525 0)
(-0.0188059 0.00652681 0)
(-0.0188896 0.00858987 0)
(-0.0189124 0.0102971 0)
(-0.0189562 0.0116041 0)
(-0.0189651 0.0125106 0)
(-0.0189706 0.0129957 0)
(-0.0190125 0.0130353 0)
(-0.0190101 0.0126638 0)
(-0.0190618 0.0118401 0)
(-0.0191513 0.0105771 0)
(-0.0191915 0.0089478 0)
(-0.0193886 0.00683121 0)
(-0.019512 0.00440877 0)
(-0.0197424 0.00158279 0)
(-0.0200146 -0.00157698 0)
(-0.0203353 -0.00505557 0)
(-0.0207287 -0.00886598 0)
(-0.0211565 -0.0128715 0)
(-0.0216855 -0.0171056 0)
(-0.0222965 -0.0215337 0)
(-0.0229803 -0.0261173 0)
(-0.0237454 -0.030823 0)
(-0.024594 -0.0356171 0)
(-0.0255249 -0.0404688 0)
(-0.0265448 -0.0453519 0)
(-0.0276618 -0.0502423 0)
(-0.028874 -0.0551148 0)
(-0.0301763 -0.0599463 0)
(-0.0315727 -0.0647184 0)
(-0.0330702 -0.0694156 0)
(-0.0346672 -0.0740215 0)
(-0.0363606 -0.0785234 0)
(-0.0381571 -0.0829159 0)
(-0.0400672 -0.0871988 0)
(-0.0420915 -0.0913724 0)
(-0.0442293 -0.0954402 0)
(-0.0464903 -0.0994127 0)
(-0.0488888 -0.103305 0)
(-0.051431 -0.10713 0)
(-0.0541224 -0.110906 0)
(-0.0569806 -0.114658 0)
(-0.0600296 -0.118416 0)
(-0.0632873 -0.122209 0)
(-0.0667722 -0.12607 0)
(-0.0705168 -0.130039 0)
(-0.0745627 -0.134163 0)
(-0.0789481 -0.138485 0)
(-0.0837143 -0.143052 0)
(-0.0889193 -0.147919 0)
(-0.094636 -0.153145 0)
(-0.10094 -0.158786 0)
(-0.107917 -0.164905 0)
(-0.115677 -0.171567 0)
(-0.124357 -0.178843 0)
(-0.134108 -0.186802 0)
(-0.145102 -0.195512 0)
(-0.157556 -0.205045 0)
(-0.171731 -0.215475 0)
(-0.187936 -0.226869 0)
(-0.206537 -0.239286 0)
(-0.227983 -0.252783 0)
(-0.252834 -0.267403 0)
(-0.281776 -0.283169 0)
(-0.315658 -0.300074 0)
(-0.355557 -0.318072 0)
(-0.402875 -0.337057 0)
(-0.459445 -0.356816 0)
(-0.527764 -0.376939 0)
(-0.611119 -0.396709 0)
(-0.71448 -0.414615 0)
(-0.844046 -0.428148 0)
(-1.00914 -0.430759 0)
(-1.22119 -0.413903 0)
(-1.48084 -0.336462 0)
(-1.82342 -0.213404 0)
(-2.20862 0.371677 0)
(-1.6346e-05 -0.00312577 0)
(-0.000100921 -0.00898588 0)
(-0.000288043 -0.0146927 0)
(-0.000569958 -0.0201908 0)
(-0.000939012 -0.0254169 0)
(-0.00139223 -0.0303225 0)
(-0.00192763 -0.0348684 0)
(-0.00254118 -0.0390186 0)
(-0.00322659 -0.042735 0)
(-0.00397545 -0.0459787 0)
(-0.00477775 -0.0487153 0)
(-0.00562374 -0.0509171 0)
(-0.00650534 -0.0525647 0)
(-0.00741502 -0.0536468 0)
(-0.0083439 -0.0541616 0)
(-0.00928235 -0.0541172 0)
(-0.0102221 -0.0535325 0)
(-0.0111557 -0.0524348 0)
(-0.0120748 -0.0508588 0)
(-0.0129709 -0.0488449 0)
(-0.0138375 -0.0464385 0)
(-0.0146698 -0.0436871 0)
(-0.0154621 -0.0406396 0)
(-0.0162087 -0.0373459 0)
(-0.0169066 -0.0338568 0)
(-0.0175544 -0.0302217 0)
(-0.0181496 -0.0264881 0)
(-0.0186894 -0.0227034 0)
(-0.0191722 -0.0189134 0)
(-0.0196034 -0.0151633 0)
(-0.0199744 -0.0114918 0)
(-0.0202945 -0.00794706 0)
(-0.0205839 -0.00457 0)
(-0.0207922 -0.0013872 0)
(-0.0209683 0.00156328 0)
(-0.0211064 0.00424154 0)
(-0.0212078 0.00661589 0)
(-0.0212664 0.00865797 0)
(-0.0213307 0.0103336 0)
(-0.0213362 0.011638 0)
(-0.0213761 0.012526 0)
(-0.0213721 0.0130132 0)
(-0.0213967 0.0130692 0)
(-0.0214257 0.0126981 0)
(-0.0214666 0.0119037 0)
(-0.0215239 0.0106939 0)
(-0.0216601 0.00904348 0)
(-0.0217576 0.00705109 0)
(-0.0219724 0.00462432 0)
(-0.0222099 0.00185858 0)
(-0.0224735 -0.00120329 0)
(-0.0228625 -0.00466014 0)
(-0.0232695 -0.00834265 0)
(-0.0237755 -0.0122861 0)
(-0.0243681 -0.0164458 0)
(-0.0250367 -0.0207778 0)
(-0.025792 -0.0252577 0)
(-0.0266438 -0.0298596 0)
(-0.0275931 -0.0345511 0)
(-0.0286365 -0.0393016 0)
(-0.0297764 -0.044084 0)
(-0.0310189 -0.0488712 0)
(-0.0323655 -0.0536363 0)
(-0.0338143 -0.0583559 0)
(-0.0353683 -0.0630119 0)
(-0.0370337 -0.0675882 0)
(-0.0388117 -0.0720705 0)
(-0.0406994 -0.0764488 0)
(-0.0426999 -0.0807183 0)
(-0.0448202 -0.0848749 0)
(-0.047064 -0.088916 0)
(-0.049432 -0.0928444 0)
(-0.0519322 -0.0966685 0)
(-0.0545776 -0.100399 0)
(-0.0573782 -0.104048 0)
(-0.0603413 -0.107634 0)
(-0.0634825 -0.111179 0)
(-0.0668236 -0.114708 0)
(-0.0703853 -0.118247 0)
(-0.0741883 -0.121825 0)
(-0.078263 -0.125478 0)
(-0.0826494 -0.129241 0)
(-0.0873889 -0.133151 0)
(-0.0925254 -0.137247 0)
(-0.0981158 -0.141574 0)
(-0.104231 -0.146177 0)
(-0.110951 -0.151099 0)
(-0.118361 -0.156384 0)
(-0.126572 -0.162081 0)
(-0.135716 -0.168235 0)
(-0.145943 -0.174884 0)
(-0.157425 -0.182065 0)
(-0.170372 -0.189809 0)
(-0.185035 -0.198137 0)
(-0.201712 -0.207052 0)
(-0.220751 -0.216537 0)
(-0.24258 -0.226552 0)
(-0.267718 -0.237016 0)
(-0.296799 -0.247791 0)
(-0.330595 -0.258662 0)
(-0.370063 -0.269307 0)
(-0.416416 -0.279239 0)
(-0.471169 -0.287719 0)
(-0.53627 -0.29361 0)
(-0.614093 -0.295143 0)
(-0.707723 -0.28953 0)
(-0.820563 -0.272288 0)
(-0.956045 -0.235868 0)
(-1.11961 -0.172659 0)
(-1.30462 -0.0414974 0)
(-1.52521 0.0994781 0)
(-1.7959 0.389663 0)
(-1.85616e-05 -0.0030624 0)
(-0.000111577 -0.00881136 0)
(-0.000320553 -0.0144094 0)
(-0.000636967 -0.0198021 0)
(-0.00105005 -0.0249273 0)
(-0.00155474 -0.0297354 0)
(-0.00214856 -0.0341872 0)
(-0.00282773 -0.038249 0)
(-0.00358608 -0.0418855 0)
(-0.00441492 -0.0450601 0)
(-0.00530385 -0.0477383 0)
(-0.00624243 -0.0498922 0)
(-0.00722121 -0.051502 0)
(-0.00823097 -0.0525565 0)
(-0.00926191 -0.0530539 0)
(-0.0103039 -0.0530025 0)
(-0.0113477 -0.0524209 0)
(-0.0123841 -0.051336 0)
(-0.0134043 -0.0497818 0)
(-0.0143994 -0.0477982 0)
(-0.0153622 -0.0454296 0)
(-0.0162864 -0.0427226 0)
(-0.0171659 -0.0397253 0)
(-0.0179954 -0.0364869 0)
(-0.0187711 -0.0330568 0)
(-0.0194906 -0.0294836 0)
(-0.0201511 -0.0258142 0)
(-0.0207505 -0.0220949 0)
(-0.0212882 -0.0183705 0)
(-0.0217644 -0.0146853 0)
(-0.0221834 -0.0110795 0)
(-0.0225262 -0.00759303 0)
(-0.0228545 -0.00427315 0)
(-0.02308 -0.00114514 0)
(-0.0232865 0.00174939 0)
(-0.0234346 0.00438224 0)
(-0.0235542 0.0067145 0)
(-0.0236234 0.00872444 0)
(-0.0236749 0.01038 0)
(-0.0237078 0.0116598 0)
(-0.0237141 0.0125514 0)
(-0.0237399 0.0130266 0)
(-0.0237426 0.0130982 0)
(-0.0237797 0.0127411 0)
(-0.0238138 0.0119753 0)
(-0.0239026 0.0107818 0)
(-0.0239883 0.0092118 0)
(-0.0241583 0.00722229 0)
(-0.0243553 0.00487663 0)
(-0.0245857 0.0022048 0)
(-0.0249471 -0.000870513 0)
(-0.025309 -0.0041894 0)
(-0.0257669 -0.00779639 0)
(-0.0263326 -0.0116465 0)
(-0.0269818 -0.0156985 0)
(-0.0277145 -0.019929 0)
(-0.0285454 -0.0243088 0)
(-0.0294804 -0.0288048 0)
(-0.0305194 -0.033385 0)
(-0.0316632 -0.0380201 0)
(-0.0329155 -0.0426828 0)
(-0.0342807 -0.0473472 0)
(-0.0357605 -0.051988 0)
(-0.0373545 -0.0565833 0)
(-0.0390642 -0.0611151 0)
(-0.0408921 -0.0655667 0)
(-0.042839 -0.0699227 0)
(-0.0449051 -0.0741712 0)
(-0.0470939 -0.0783051 0)
(-0.0494109 -0.0823199 0)
(-0.0518598 -0.0862136 0)
(-0.0544439 -0.0899885 0)
(-0.0571703 -0.0936514 0)
(-0.0600488 -0.0972115 0)
(-0.0630884 -0.100679 0)
(-0.0662991 -0.104069 0)
(-0.0696959 -0.1074 0)
(-0.0732982 -0.110692 0)
(-0.0771263 -0.113967 0)
(-0.0812037 -0.117251 0)
(-0.0855607 -0.120572 0)
(-0.0902344 -0.123961 0)
(-0.0952653 -0.127446 0)
(-0.1007 -0.13106 0)
(-0.106593 -0.134835 0)
(-0.113013 -0.138805 0)
(-0.120036 -0.143 0)
(-0.127748 -0.147448 0)
(-0.136255 -0.152177 0)
(-0.145681 -0.157209 0)
(-0.156167 -0.162559 0)
(-0.167881 -0.168229 0)
(-0.181016 -0.174214 0)
(-0.195805 -0.180487 0)
(-0.212517 -0.186998 0)
(-0.23147 -0.193663 0)
(-0.253043 -0.200356 0)
(-0.277687 -0.206893 0)
(-0.30594 -0.213011 0)
(-0.338442 -0.218332 0)
(-0.37596 -0.222332 0)
(-0.419415 -0.22427 0)
(-0.469896 -0.223091 0)
(-0.52868 -0.2173 0)
(-0.597187 -0.204736 0)
(-0.676941 -0.182357 0)
(-0.769447 -0.145804 0)
(-0.875454 -0.0885717 0)
(-0.996438 -0.00571669 0)
(-1.12738 0.124769 0)
(-1.25757 0.293692 0)
(-1.41509 0.527223 0)
(-2.05022e-05 -0.00299379 0)
(-0.000121753 -0.00861856 0)
(-0.000351372 -0.0140955 0)
(-0.000700295 -0.0193713 0)
(-0.00115571 -0.024385 0)
(-0.00171097 -0.0290866 0)
(-0.00236285 -0.0334366 0)
(-0.00310717 -0.0374024 0)
(-0.00393734 -0.0409515 0)
(-0.00484449 -0.0440493 0)
(-0.005818 -0.0466625 0)
(-0.00684673 -0.048763 0)
(-0.00791997 -0.0503308 0)
(-0.00902727 -0.0513546 0)
(-0.010158 -0.0518327 0)
(-0.0113011 -0.0517735 0)
(-0.0124462 -0.0511952 0)
(-0.0135833 -0.0501243 0)
(-0.0147024 -0.0485942 0)
(-0.0157944 -0.0466442 0)
(-0.016851 -0.0443173 0)
(-0.0178651 -0.0416593 0)
(-0.0188303 -0.0387174 0)
(-0.0197409 -0.0355399 0)
(-0.0205925 -0.032175 0)
(-0.0213821 -0.0286701 0)
(-0.0221069 -0.0250714 0)
(-0.0227649 -0.0214241 0)
(-0.0233558 -0.0177722 0)
(-0.023878 -0.014158 0)
(-0.0243388 -0.0106228 0)
(-0.0247179 -0.0072043 0)
(-0.0250779 -0.0039508 0)
(-0.0253264 -0.000882679 0)
(-0.025539 0.00196054 0)
(-0.0257197 0.00453994 0)
(-0.0258314 0.00683125 0)
(-0.025931 0.00879755 0)
(-0.0259723 0.0104281 0)
(-0.026013 0.0116871 0)
(-0.0260272 0.0125652 0)
(-0.0260326 0.013048 0)
(-0.0260581 0.0131173 0)
(-0.0260679 0.0127897 0)
(-0.0261302 0.0120371 0)
(-0.0261901 0.0108985 0)
(-0.0263123 0.00935183 0)
(-0.0264754 0.00742883 0)
(-0.0266609 0.00516993 0)
(-0.0269809 0.00249812 0)
(-0.0273037 -0.000437591 0)
(-0.0277177 -0.00367793 0)
(-0.0282267 -0.00719868 0)
(-0.0288213 -0.0109488 0)
(-0.0295168 -0.0148955 0)
(-0.0303182 -0.0190138 0)
(-0.0312235 -0.0232747 0)
(-0.0322374 -0.0276483 0)
(-0.0333652 -0.0321044 0)
(-0.0346085 -0.036614 0)
(-0.0359703 -0.0411495 0)
(-0.037453 -0.045685 0)
(-0.0390583 -0.0501953 0)
(-0.0407864 -0.0546583 0)
(-0.042639 -0.0590547 0)
(-0.0446183 -0.0633675 0)
(-0.0467263 -0.0675822 0)
(-0.0489636 -0.0716875 0)
(-0.0513326 -0.0756758 0)
(-0.0538365 -0.0795419 0)
(-0.0564789 -0.0832827 0)
(-0.0592632 -0.0868988 0)
(-0.0621959 -0.0903945 0)
(-0.0652855 -0.0937766 0)
(-0.0685415 -0.0970538 0)
(-0.0719746 -0.100239 0)
(-0.0755986 -0.103346 0)
(-0.0794311 -0.106394 0)
(-0.0834923 -0.109401 0)
(-0.087805 -0.112387 0)
(-0.0923981 -0.115374 0)
(-0.0973061 -0.118388 0)
(-0.102568 -0.121449 0)
(-0.10823 -0.124582 0)
(-0.114344 -0.127809 0)
(-0.120973 -0.131153 0)
(-0.128189 -0.13463 0)
(-0.136076 -0.138256 0)
(-0.144731 -0.142041 0)
(-0.154267 -0.145986 0)
(-0.164815 -0.150082 0)
(-0.176525 -0.154306 0)
(-0.189571 -0.158618 0)
(-0.204156 -0.162954 0)
(-0.220516 -0.167218 0)
(-0.238922 -0.171274 0)
(-0.259688 -0.174933 0)
(-0.283178 -0.177937 0)
(-0.309814 -0.179932 0)
(-0.340076 -0.180443 0)
(-0.374512 -0.178828 0)
(-0.413732 -0.174223 0)
(-0.458399 -0.165457 0)
(-0.509191 -0.150959 0)
(-0.56674 -0.128605 0)
(-0.631483 -0.0955601 0)
(-0.703568 -0.0481783 0)
(-0.782044 0.0188077 0)
(-0.86533 0.110144 0)
(-0.948558 0.236567 0)
(-1.01801 0.407446 0)
(-1.0752 0.618377 0)
(-2.26049e-05 -0.00291996 0)
(-0.000131952 -0.00840844 0)
(-0.000381012 -0.0137525 0)
(-0.000760762 -0.0189002 0)
(-0.00125691 -0.0237917 0)
(-0.00186139 -0.0283775 0)
(-0.00257011 -0.0326175 0)
(-0.00337827 -0.03648 0)
(-0.00427882 -0.0399344 0)
(-0.00526255 -0.0429484 0)
(-0.00631849 -0.0454902 0)
(-0.00743484 -0.0475321 0)
(-0.00859987 -0.0490537 0)
(-0.00980204 -0.0500439 0)
(-0.0110297 -0.0505009 0)
(-0.0122712 -0.0504331 0)
(-0.0135151 -0.0498583 0)
(-0.0147501 -0.0488026 0)
(-0.0159658 -0.0472988 0)
(-0.0171521 -0.0453851 0)
(-0.0183003 -0.0431036 0)
(-0.0194023 -0.040499 0)
(-0.0204511 -0.0376176 0)
(-0.0214408 -0.0345063 0)
(-0.0223666 -0.0312123 0)
(-0.0232248 -0.0277819 0)
(-0.0240126 -0.0242604 0)
(-0.0247279 -0.0206917 0)
(-0.0253702 -0.0171188 0)
(-0.0259382 -0.0135825 0)
(-0.0264382 -0.0101242 0)
(-0.0268548 -0.00677758 0)
(-0.027232 -0.00359183 0)
(-0.0275302 -0.000598797 0)
(-0.0277501 0.00218102 0)
(-0.0279332 0.00470938 0)
(-0.0280733 0.00695231 0)
(-0.0281592 0.00888518 0)
(-0.0282272 0.0104779 0)
(-0.0282559 0.0117185 0)
(-0.0282747 0.0125832 0)
(-0.0282911 0.0130586 0)
(-0.0282906 0.013147 0)
(-0.0283302 0.012823 0)
(-0.0283624 0.0121156 0)
(-0.0284459 0.0110032 0)
(-0.0285706 0.00950656 0)
(-0.0287067 0.00766979 0)
(-0.0289785 0.00541598 0)
(-0.0292518 0.00287775 0)
(-0.0296101 1.84418e-05 0)
(-0.0300658 -0.00313789 0)
(-0.0306118 -0.00654859 0)
(-0.0312533 -0.0101867 0)
(-0.031998 -0.0140273 0)
(-0.0328514 -0.0180295 0)
(-0.0338218 -0.0221628 0)
(-0.0349134 -0.0264052 0)
(-0.0361263 -0.0307281 0)
(-0.0374628 -0.0351013 0)
(-0.0389262 -0.0394975 0)
(-0.0405191 -0.0438911 0)
(-0.0422432 -0.0482581 0)
(-0.0440997 -0.0525766 0)
(-0.0460897 -0.0568275 0)
(-0.0482146 -0.0609939 0)
(-0.0504751 -0.065061 0)
(-0.0528721 -0.0690167 0)
(-0.0554074 -0.0728523 0)
(-0.0580838 -0.0765616 0)
(-0.0609045 -0.080141 0)
(-0.0638734 -0.08359 0)
(-0.0669958 -0.0869113 0)
(-0.070279 -0.0901101 0)
(-0.0737313 -0.0931934 0)
(-0.077363 -0.0961709 0)
(-0.0811867 -0.0990547 0)
(-0.0852187 -0.101858 0)
(-0.0894774 -0.104597 0)
(-0.0939852 -0.107286 0)
(-0.0987687 -0.109943 0)
(-0.10386 -0.112586 0)
(-0.109295 -0.115231 0)
(-0.115117 -0.117893 0)
(-0.121375 -0.120588 0)
(-0.128125 -0.123326 0)
(-0.135435 -0.126115 0)
(-0.14338 -0.128956 0)
(-0.152047 -0.131844 0)
(-0.161538 -0.134763 0)
(-0.171967 -0.137685 0)
(-0.183464 -0.140565 0)
(-0.19618 -0.143336 0)
(-0.210283 -0.145907 0)
(-0.225967 -0.148148 0)
(-0.243447 -0.149886 0)
(-0.262968 -0.150892 0)
(-0.284799 -0.150861 0)
(-0.309239 -0.149396 0)
(-0.336607 -0.145974 0)
(-0.367235 -0.139916 0)
(-0.401451 -0.13034 0)
(-0.439545 -0.116104 0)
(-0.481714 -0.0957302 0)
(-0.527978 -0.0673344 0)
(-0.578009 -0.0285069 0)
(-0.63099 0.0236757 0)
(-0.685066 0.0930309 0)
(-0.737152 0.18357 0)
(-0.78263 0.299911 0)
(-0.811985 0.447529 0)
(-0.814891 0.624465 0)
(-2.45095e-05 -0.00284078 0)
(-0.000141849 -0.00818185 0)
(-0.000409554 -0.0133819 0)
(-0.000818582 -0.0183904 0)
(-0.00135378 -0.0231493 0)
(-0.00200592 -0.0276097 0)
(-0.00276995 -0.0317315 0)
(-0.00364024 -0.0354832 0)
(-0.00460922 -0.038836 0)
(-0.00566738 -0.0417599 0)
(-0.00680342 -0.0442244 0)
(-0.00800485 -0.0462024 0)
(-0.00925897 -0.0476738 0)
(-0.0105532 -0.0486273 0)
(-0.0118751 -0.0490612 0)
(-0.013212 -0.0489839 0)
(-0.0145515 -0.0484128 0)
(-0.0158817 -0.0473735 0)
(-0.0171912 -0.045898 0)
(-0.0184692 -0.0440236 0)
(-0.0197063 -0.0417913 0)
(-0.0208937 -0.0392445 0)
(-0.022024 -0.0364285 0)
(-0.0230908 -0.0333889 0)
(-0.0240888 -0.0301716 0)
(-0.025014 -0.0268218 0)
(-0.0258634 -0.0233835 0)
(-0.0266348 -0.0198997 0)
(-0.0273274 -0.016412 0)
(-0.027941 -0.0129603 0)
(-0.0284763 -0.00958428 0)
(-0.0289389 -0.00631916 0)
(-0.0293123 -0.00320285 0)
(-0.0296621 -0.000284892 0)
(-0.0299015 0.0024252 0)
(-0.0300989 0.00489505 0)
(-0.0302486 0.00708712 0)
(-0.0303486 0.00897452 0)
(-0.0304112 0.0105353 0)
(-0.0304452 0.0117496 0)
(-0.0304698 0.0125983 0)
(-0.0304675 0.0130779 0)
(-0.0304962 0.0131594 0)
(-0.0305005 0.0128727 0)
(-0.0305552 0.0121829 0)
(-0.0306445 0.0111079 0)
(-0.0307306 0.00969474 0)
(-0.030952 0.00786531 0)
(-0.0311726 0.00573415 0)
(-0.0314708 0.00326814 0)
(-0.0318626 0.000489819 0)
(-0.032346 -0.00256437 0)
(-0.0329242 -0.0058638 0)
(-0.03361 -0.00938255 0)
(-0.034405 -0.0130865 0)
(-0.0353083 -0.0169549 0)
(-0.0363383 -0.0209609 0)
(-0.0375016 -0.0250686 0)
(-0.038794 -0.0292491 0)
(-0.0402177 -0.0334773 0)
(-0.0417777 -0.0377265 0)
(-0.0434761 -0.0419709 0)
(-0.0453138 -0.0461868 0)
(-0.0472914 -0.0503527 0)
(-0.0494099 -0.0544495 0)
(-0.0516702 -0.0584604 0)
(-0.0540731 -0.0623705 0)
(-0.0566193 -0.066168 0)
(-0.0593103 -0.0698434 0)
(-0.0621477 -0.0733898 0)
(-0.065134 -0.076803 0)
(-0.0682721 -0.0800812 0)
(-0.0715668 -0.0832254 0)
(-0.0750237 -0.0862387 0)
(-0.0786507 -0.0891264 0)
(-0.0824568 -0.0918957 0)
(-0.0864536 -0.0945558 0)
(-0.0906551 -0.0971173 0)
(-0.0950786 -0.0995915 0)
(-0.099744 -0.101991 0)
(-0.104676 -0.104327 0)
(-0.109902 -0.106613 0)
(-0.115456 -0.108858 0)
(-0.121376 -0.111073 0)
(-0.127707 -0.113262 0)
(-0.134499 -0.11543 0)
(-0.141811 -0.117573 0)
(-0.14971 -0.119682 0)
(-0.158271 -0.12174 0)
(-0.167582 -0.123717 0)
(-0.177738 -0.12557 0)
(-0.188848 -0.127238 0)
(-0.201034 -0.128636 0)
(-0.21443 -0.129652 0)
(-0.229183 -0.130138 0)
(-0.245454 -0.129898 0)
(-0.263415 -0.128683 0)
(-0.283243 -0.126173 0)
(-0.30512 -0.121956 0)
(-0.329217 -0.115515 0)
(-0.35568 -0.10619 0)
(-0.384599 -0.0931593 0)
(-0.415973 -0.0753908 0)
(-0.449641 -0.0516092 0)
(-0.485199 -0.02026 0)
(-0.521857 0.0205339 0)
(-0.558276 0.0729347 0)
(-0.59232 0.139403 0)
(-0.62068 0.222449 0)
(-0.63896 0.32416 0)
(-0.640631 0.44595 0)
(-0.616749 0.588256 0)
(-2.67804e-05 -0.00275604 0)
(-0.000151974 -0.00794038 0)
(-0.000436951 -0.0129846 0)
(-0.000873708 -0.0178429 0)
(-0.00144621 -0.0224596 0)
(-0.00214434 -0.0267857 0)
(-0.00296204 -0.030781 0)
(-0.00389264 -0.0344144 0)
(-0.00492793 -0.0376584 0)
(-0.00605806 -0.0404855 0)
(-0.00727134 -0.0428672 0)
(-0.00855476 -0.044777 0)
(-0.00989489 -0.0461948 0)
(-0.0112782 -0.047109 0)
(-0.0126913 -0.0475181 0)
(-0.0141206 -0.0474303 0)
(-0.0155527 -0.0468628 0)
(-0.0169751 -0.0458406 0)
(-0.0183754 -0.0443951 0)
(-0.0197423 -0.0425624 0)
(-0.0210656 -0.0403824 0)
(-0.022336 -0.0378974 0)
(-0.0235454 -0.0351511 0)
(-0.024687 -0.0321882 0)
(-0.0257552 -0.029053 0)
(-0.0267456 -0.0257896 0)
(-0.0276548 -0.0224406 0)
(-0.0284808 -0.019048 0)
(-0.0292223 -0.0156519 0)
(-0.0298799 -0.0122915 0)
(-0.0304531 -0.00900408 0)
(-0.0309497 -0.00582732 0)
(-0.0313563 -0.00279242 0)
(-0.0317128 5.65499e-05 0)
(-0.0319927 0.00269234 0)
(-0.0321969 0.00509398 0)
(-0.0323525 0.00722957 0)
(-0.0324666 0.00906958 0)
(-0.0325318 0.0105942 0)
(-0.0325738 0.0117809 0)
(-0.0325888 0.0126178 0)
(-0.0326047 0.0130856 0)
(-0.0326058 0.0131881 0)
(-0.0326437 0.0129003 0)
(-0.0326676 0.0122623 0)
(-0.0327489 0.0112446 0)
(-0.0329159 0.00983391 0)
(-0.0330767 0.00811332 0)
(-0.0333111 0.00605142 0)
(-0.0336329 0.00366569 0)
(-0.0340411 0.000989122 0)
(-0.0345437 -0.00195158 0)
(-0.035152 -0.00513258 0)
(-0.0358696 -0.00852768 0)
(-0.0367095 -0.0121025 0)
(-0.0376833 -0.0158352 0)
(-0.0387814 -0.019698 0)
(-0.0400057 -0.0236569 0)
(-0.0413691 -0.0276849 0)
(-0.0428758 -0.0317572 0)
(-0.044526 -0.035848 0)
(-0.0463216 -0.0399325 0)
(-0.0482642 -0.0439876 0)
(-0.0503546 -0.0479921 0)
(-0.0525933 -0.051927 0)
(-0.0549807 -0.0557753 0)
(-0.0575169 -0.0595223 0)
(-0.0602022 -0.0631556 0)
(-0.0630371 -0.0666654 0)
(-0.0660225 -0.0700443 0)
(-0.0691601 -0.073287 0)
(-0.0724523 -0.0763909 0)
(-0.0759026 -0.0793555 0)
(-0.0795157 -0.0821825 0)
(-0.0832976 -0.0848754 0)
(-0.0872562 -0.0874392 0)
(-0.0914012 -0.0898805 0)
(-0.0957447 -0.0922069 0)
(-0.100302 -0.0944265 0)
(-0.105089 -0.0965475 0)
(-0.110129 -0.0985781 0)
(-0.115447 -0.100526 0)
(-0.12107 -0.102395 0)
(-0.127033 -0.10419 0)
(-0.133375 -0.105911 0)
(-0.140139 -0.107552 0)
(-0.147375 -0.109103 0)
(-0.155139 -0.110548 0)
(-0.163496 -0.111857 0)
(-0.172514 -0.112994 0)
(-0.182273 -0.113903 0)
(-0.192858 -0.114512 0)
(-0.20436 -0.114726 0)
(-0.21688 -0.114423 0)
(-0.230521 -0.113443 0)
(-0.24539 -0.111587 0)
(-0.26159 -0.108602 0)
(-0.279219 -0.104173 0)
(-0.298356 -0.0979073 0)
(-0.319046 -0.0893199 0)
(-0.341286 -0.077817 0)
(-0.364987 -0.0626761 0)
(-0.389938 -0.0430291 0)
(-0.415745 -0.0178452 0)
(-0.441756 0.0140706 0)
(-0.466956 0.0540705 0)
(-0.489834 0.10361 0)
(-0.508255 0.16415 0)
(-0.519204 0.236989 0)
(-0.518846 0.322984 0)
(-0.501883 0.422002 0)
(-0.463694 0.532902 0)
(-2.99629e-05 -0.00266279 0)
(-0.000161895 -0.00768495 0)
(-0.000461473 -0.0125659 0)
(-0.000926432 -0.0172609 0)
(-0.00153513 -0.0217229 0)
(-0.00227643 -0.0259052 0)
(-0.00314494 -0.0297681 0)
(-0.00413325 -0.0332781 0)
(-0.00523272 -0.0364075 0)
(-0.00643314 -0.0391307 0)
(-0.00772168 -0.0414223 0)
(-0.00908431 -0.0432576 0)
(-0.0105071 -0.044617 0)
(-0.0119759 -0.045489 0)
(-0.0134765 -0.0458721 0)
(-0.0149943 -0.045774 0)
(-0.0165154 -0.045211 0)
(-0.0180263 -0.0442076 0)
(-0.0195142 -0.0427942 0)
(-0.020967 -0.0410062 0)
(-0.0223735 -0.038882 0)
(-0.0237241 -0.0364627 0)
(-0.0250102 -0.0337908 0)
(-0.0262244 -0.0309095 0)
(-0.0273608 -0.0278618 0)
(-0.0284146 -0.0246903 0)
(-0.0293824 -0.0214363 0)
(-0.0302619 -0.0181404 0)
(-0.0310519 -0.0148415 0)
(-0.0317524 -0.0115775 0)
(-0.0323646 -0.00838455 0)
(-0.0328899 -0.00529846 0)
(-0.0333361 -0.0023519 0)
(-0.0336888 0.00042392 0)
(-0.0340127 0.00298111 0)
(-0.0342217 0.00531083 0)
(-0.0343915 0.0073839 0)
(-0.0345123 0.00917475 0)
(-0.0345855 0.0106602 0)
(-0.0346334 0.0118165 0)
(-0.0346491 0.0126358 0)
(-0.0346553 0.0131031 0)
(-0.0346815 0.0131989 0)
(-0.0346722 0.0129558 0)
(-0.0347594 0.0123174 0)
(-0.0348312 0.0113506 0)
(-0.0349459 0.0100345 0)
(-0.0351298 0.00836522 0)
(-0.0353889 0.00636928 0)
(-0.0357256 0.00407622 0)
(-0.0361501 0.00150806 0)
(-0.0366751 -0.00131498 0)
(-0.0373114 -0.00437023 0)
(-0.0380672 -0.00763129 0)
(-0.0389507 -0.0110742 0)
(-0.0399664 -0.0146633 0)
(-0.041116 -0.0183678 0)
(-0.0424054 -0.0221665 0)
(-0.0438404 -0.0260345 0)
(-0.0454237 -0.0299437 0)
(-0.0471585 -0.0338685 0)
(-0.0490467 -0.0377851 0)
(-0.0510889 -0.0416713 0)
(-0.0532854 -0.0455061 0)
(-0.0556366 -0.0492709 0)
(-0.0581422 -0.0529492 0)
(-0.060802 -0.0565262 0)
(-0.0636157 -0.0599897 0)
(-0.0665834 -0.0633292 0)
(-0.069705 -0.0665368 0)
(-0.0729813 -0.0696066 0)
(-0.0764135 -0.072535 0)
(-0.0800039 -0.0753203 0)
(-0.0837557 -0.0779627 0)
(-0.0876735 -0.080464 0)
(-0.0917634 -0.0828274 0)
(-0.0960333 -0.0850571 0)
(-0.100493 -0.0871579 0)
(-0.105155 -0.0891352 0)
(-0.110034 -0.090994 0)
(-0.115147 -0.0927386 0)
(-0.120517 -0.0943723 0)
(-0.126166 -0.0958959 0)
(-0.132124 -0.0973078 0)
(-0.138422 -0.0986025 0)
(-0.145097 -0.0997699 0)
(-0.152189 -0.100794 0)
(-0.159745 -0.10165 0)
(-0.167815 -0.102305 0)
(-0.176453 -0.102712 0)
(-0.18572 -0.102813 0)
(-0.195676 -0.102529 0)
(-0.206389 -0.101759 0)
(-0.217922 -0.100379 0)
(-0.23034 -0.0982304 0)
(-0.2437 -0.0951183 0)
(-0.258049 -0.0908021 0)
(-0.273414 -0.0849883 0)
(-0.289791 -0.0773207 0)
(-0.30713 -0.0673719 0)
(-0.325314 -0.0546328 0)
(-0.344133 -0.0385061 0)
(-0.363244 -0.0183004 0)
(-0.382121 0.00676599 0)
(-0.399999 0.0375521 0)
(-0.415801 0.0749596 0)
(-0.42804 0.119872 0)
(-0.434754 0.173047 0)
(-0.433377 0.234968 0)
(-0.42081 0.305583 0)
(-0.393023 0.384097 0)
(-0.346891 0.468148 0)
(-3.58857e-05 -0.00256 0)
(-0.000177846 -0.00742542 0)
(-0.000487033 -0.0121084 0)
(-0.000971021 -0.0166514 0)
(-0.00161625 -0.0209531 0)
(-0.00240376 -0.024974 0)
(-0.00332358 -0.0286878 0)
(-0.0043658 -0.0320648 0)
(-0.00552361 -0.0350768 0)
(-0.00678882 -0.0376969 0)
(-0.00814852 -0.0398981 0)
(-0.00958749 -0.0416566 0)
(-0.0110907 -0.042954 0)
(-0.0126432 -0.0437797 0)
(-0.0142292 -0.0441328 0)
(-0.0158328 -0.0440211 0)
(-0.0174393 -0.0434609 0)
(-0.0190349 -0.042476 0)
(-0.0206064 -0.0410959 0)
(-0.0221411 -0.0393545 0)
(-0.0236275 -0.0372891 0)
(-0.0250552 -0.0349392 0)
(-0.0264151 -0.0323457 0)
(-0.0276994 -0.0295505 0)
(-0.0289017 -0.0265952 0)