/*--------------------------------*- C++ -*----------------------------------*\
| =========                 |                                                 |
| \\      /  F ield         | OpenFOAM: The Open Source CFD Toolbox           |
|  \\    /   O peration     | Version:  2206                                  |
|   \\  /    A nd           | Website:  www.openfoam.com                      |
|    \\/     M anipulation  |                                                 |
\*---------------------------------------------------------------------------*/
FoamFile
{
    version     2.0;
    format      ascii;
    arch        "LSB;label=32;scalar=64";
    class       volVectorField;
    location    "19.5999";
    object      ddt0(U);
}
// * * * * * * * * * * * * * * * * * * * * * * * * * * * * * * * * * * * * * //

dimensions      [0 1 -2 0 0 0 0];

internalField   nonuniform List<vector> 
4824
(
(-9.73948e-06 -0.00313443 0)
(-6.23823e-05 -0.00920983 0)
(-0.000176092 -0.0152436 0)
(-0.000350783 -0.0211509 0)
(-0.000586231 -0.0268936 0)
(-0.000885068 -0.0324384 0)
(-0.00124685 -0.0377495 0)
(-0.00166818 -0.0427858 0)
(-0.00214351 -0.0475037 0)
(-0.00266704 -0.0518604 0)
(-0.00323346 -0.0558149 0)
(-0.00383844 -0.0593288 0)
(-0.00447822 -0.0623682 0)
(-0.00514895 -0.0649067 0)
(-0.00584585 -0.0669273 0)
(-0.00656385 -0.0684237 0)
(-0.00729792 -0.0694003 0)
(-0.00804339 -0.0698716 0)
(-0.00879497 -0.0698603 0)
(-0.00954767 -0.0693958 0)
(-0.010297 -0.0685125 0)
(-0.0110394 -0.0672495 0)
(-0.0117709 -0.06565 0)
(-0.012488 -0.06376 0)
(-0.0131881 -0.0616281 0)
(-0.0138695 -0.059304 0)
(-0.0145302 -0.0568382 0)
(-0.0151688 -0.0542796 0)
(-0.0157837 -0.0516757 0)
(-0.0163783 -0.0490723 0)
(-0.0169407 -0.0465122 0)
(-0.0175047 -0.0440408 0)
(-0.0180132 -0.0416922 0)
(-0.0185234 -0.0395087 0)
(-0.0190111 -0.0375318 0)
(-0.0194768 -0.035794 0)
(-0.0199452 -0.0343395 0)
(-0.0203776 -0.0331884 0)
(-0.0208361 -0.0323893 0)
(-0.0212663 -0.0319525 0)
(-0.0217001 -0.0319136 0)
(-0.0221799 -0.0323038 0)
(-0.0225773 -0.0330993 0)
(-0.0231379 -0.0344018 0)
(-0.0235432 -0.0360949 0)
(-0.0241382 -0.0383284 0)
(-0.0246742 -0.0409949 0)
(-0.0252478 -0.0441235 0)
(-0.0259406 -0.0477752 0)
(-0.0265988 -0.0518224 0)
(-0.0273528 -0.0563511 0)
(-0.0281762 -0.0613299 0)
(-0.0290117 -0.06667 0)
(-0.0299893 -0.0725911 0)
(-0.0309295 -0.0787874 0)
(-0.031979 -0.0853545 0)
(-0.0331471 -0.0922745 0)
(-0.0344083 -0.0995077 0)
(-0.0357559 -0.107028 0)
(-0.0371967 -0.114812 0)
(-0.038737 -0.122834 0)
(-0.0403832 -0.131071 0)
(-0.0421395 -0.139499 0)
(-0.0440098 -0.148099 0)
(-0.0459982 -0.156853 0)
(-0.048111 -0.165743 0)
(-0.0503533 -0.174755 0)
(-0.0527299 -0.183878 0)
(-0.0552467 -0.193102 0)
(-0.0579123 -0.202427 0)
(-0.0607344 -0.211853 0)
(-0.0637207 -0.221388 0)
(-0.0668803 -0.231045 0)
(-0.0702264 -0.240841 0)
(-0.0737722 -0.250797 0)
(-0.0775324 -0.260942 0)
(-0.0815242 -0.271309 0)
(-0.0857704 -0.281938 0)
(-0.0902962 -0.292876 0)
(-0.0951298 -0.304178 0)
(-0.100304 -0.315903 0)
(-0.105858 -0.328121 0)
(-0.11184 -0.340911 0)
(-0.1183 -0.354356 0)
(-0.1253 -0.368553 0)
(-0.132912 -0.383606 0)
(-0.141218 -0.399625 0)
(-0.150323 -0.416745 0)
(-0.160336 -0.4351 0)
(-0.171394 -0.454844 0)
(-0.18366 -0.476145 0)
(-0.197322 -0.499193 0)
(-0.212602 -0.524196 0)
(-0.229765 -0.55139 0)
(-0.249128 -0.581039 0)
(-0.27107 -0.613443 0)
(-0.296041 -0.648949 0)
(-0.324585 -0.68796 0)
(-0.357365 -0.730954 0)
(-0.395185 -0.778515 0)
(-0.439034 -0.831374 0)
(-0.490136 -0.89048 0)
(-0.55006 -0.957108 0)
(-0.620769 -1.03307 0)
(-0.705091 -1.121 0)
(-0.806144 -1.22514 0)
(-0.931814 -1.3518 0)
(-1.08425 -1.51409 0)
(-1.31142 -1.72079 0)
(-1.56532 -2.05126 0)
(-2.36034 -2.39842 0)
(-2.88478 -3.4574 0)
(-1.28803e-05 -0.00309482 0)
(-7.74467e-05 -0.00910193 0)
(-0.000217294 -0.0150602 0)
(-0.000430334 -0.0208943 0)
(-0.000712539 -0.0265668 0)
(-0.00106262 -0.0320397 0)
(-0.00148138 -0.0372772 0)
(-0.00196861 -0.0422426 0)
(-0.00252141 -0.0468959 0)
(-0.00313429 -0.0511954 0)
(-0.00380034 -0.0550992 0)
(-0.0045129 -0.058568 0)
(-0.00526643 -0.0615676 0)
(-0.00605614 -0.0640717 0)
(-0.00687656 -0.0660636 0)
(-0.00772144 -0.0675371 0)
(-0.0085849 -0.0684971 0)
(-0.00946169 -0.0689581 0)
(-0.010346 -0.0689423 0)
(-0.0112314 -0.068479 0)
(-0.0121127 -0.0676021 0)
(-0.0129859 -0.0663504 0)
(-0.0138467 -0.0647661 0)
(-0.0146905 -0.062895 0)
(-0.0155139 -0.0607849 0)
(-0.0163154 -0.0584852 0)
(-0.0170929 -0.0560454 0)
(-0.0178443 -0.053514 0)
(-0.0185675 -0.050938 0)
(-0.0192659 -0.0483626 0)
(-0.0199309 -0.0458308 0)
(-0.0205846 -0.0433854 0)
(-0.0211987 -0.0410636 0)
(-0.0217839 -0.0389026 0)
(-0.0223643 -0.0369477 0)
(-0.022917 -0.0352286 0)
(-0.0234472 -0.0337845 0)
(-0.0239904 -0.0326506 0)
(-0.0244804 -0.0318453 0)
(-0.0250397 -0.0314239 0)
(-0.0255053 -0.0313661 0)
(-0.0260794 -0.0317525 0)
(-0.0265875 -0.032542 0)
(-0.0271415 -0.0337851 0)
(-0.0277658 -0.0355079 0)
(-0.0283085 -0.0376353 0)
(-0.0290362 -0.0403072 0)
(-0.0296882 -0.0433785 0)
(-0.0304463 -0.0469384 0)
(-0.0312603 -0.0509635 0)
(-0.0321298 -0.0554263 0)
(-0.0330444 -0.0602943 0)
(-0.0340344 -0.0655895 0)
(-0.0351442 -0.0714212 0)
(-0.0362792 -0.0775411 0)
(-0.037531 -0.0840141 0)
(-0.0388906 -0.0908203 0)
(-0.0403488 -0.0979332 0)
(-0.0419147 -0.105333 0)
(-0.0435963 -0.112996 0)
(-0.0453966 -0.120897 0)
(-0.0473202 -0.129008 0)
(-0.0493714 -0.137304 0)
(-0.0515531 -0.145763 0)
(-0.053871 -0.154368 0)
(-0.0563342 -0.163101 0)
(-0.05895 -0.17195 0)
(-0.061722 -0.180904 0)
(-0.0646555 -0.189955 0)
(-0.0677601 -0.199099 0)
(-0.0710451 -0.208337 0)
(-0.0745174 -0.217672 0)
(-0.078187 -0.227114 0)
(-0.0820699 -0.236677 0)
(-0.0861825 -0.246381 0)
(-0.0905398 -0.256252 0)
(-0.0951608 -0.266321 0)
(-0.100072 -0.276627 0)
(-0.105302 -0.287211 0)
(-0.11088 -0.298124 0)
(-0.116841 -0.309421 0)
(-0.123231 -0.321162 0)
(-0.1301 -0.333417 0)
(-0.137506 -0.34626 0)
(-0.145514 -0.359775 0)
(-0.154206 -0.374052 0)
(-0.163676 -0.389191 0)
(-0.174028 -0.405299 0)
(-0.185389 -0.422492 0)
(-0.197909 -0.4409 0)
(-0.211764 -0.46066 0)
(-0.22716 -0.481925 0)
(-0.244338 -0.504859 0)
(-0.263587 -0.529641 0)
(-0.285254 -0.55647 0)
(-0.309753 -0.585565 0)
(-0.337578 -0.617171 0)
(-0.369332 -0.651562 0)
(-0.405757 -0.689057 0)
(-0.447773 -0.730031 0)
(-0.496526 -0.774936 0)
(-0.553492 -0.824338 0)
(-0.620626 -0.878978 0)
(-0.700538 -0.939852 0)
(-0.797117 -1.00833 0)
(-0.915481 -1.08643 0)
(-1.06635 -1.17654 0)
(-1.25851 -1.28321 0)
(-1.53792 -1.40306 0)
(-1.87327 -1.54786 0)
(-2.53884 -1.63253 0)
(-3.05663 -1.8517 0)
(-1.5129e-05 -0.00304584 0)
(-8.86814e-05 -0.00896992 0)
(-0.000252029 -0.0148429 0)
(-0.000501312 -0.0205935 0)
(-0.000829856 -0.0261847 0)
(-0.00123467 -0.0315767 0)
(-0.00171513 -0.036733 0)
(-0.002271 -0.0416184 0)
(-0.00290067 -0.0461961 0)
(-0.00359979 -0.0504267 0)
(-0.00436148 -0.0542693 0)
(-0.00517821 -0.0576844 0)
(-0.00604322 -0.0606374 0)
(-0.00695004 -0.0631017 0)
(-0.00789182 -0.0650604 0)
(-0.0088616 -0.0665078 0)
(-0.00985298 -0.0674487 0)
(-0.0108595 -0.0678975 0)
(-0.0118741 -0.0678765 0)
(-0.0128902 -0.0674142 0)
(-0.0139021 -0.0665446 0)
(-0.0149047 -0.0653057 0)
(-0.0158925 -0.0637391 0)
(-0.0168609 -0.0618897 0)
(-0.0178067 -0.059805 0)
(-0.0187271 -0.0575337 0)
(-0.0196194 -0.0551244 0)
(-0.0204817 -0.0526247 0)
(-0.0213123 -0.0500814 0)
(-0.0221145 -0.0475387 0)
(-0.022877 -0.0450392 0)
(-0.0236302 -0.0426262 0)
(-0.0243289 -0.0403335 0)
(-0.025011 -0.0382016 0)
(-0.0256628 -0.0362679 0)
(-0.02631 -0.0345732 0)
(-0.0269084 -0.0331421 0)
(-0.0275315 -0.0320218 0)
(-0.0281099 -0.0312247 0)
(-0.0287083 -0.0307944 0)
(-0.0293085 -0.0307494 0)
(-0.0298885 -0.0310991 0)
(-0.0305347 -0.0318929 0)
(-0.0311491 -0.0331021 0)
(-0.0318135 -0.034768 0)
(-0.0325466 -0.036909 0)
(-0.0332416 -0.0394597 0)
(-0.0340815 -0.0425293 0)
(-0.0349124 -0.046011 0)
(-0.0358155 -0.0499423 0)
(-0.0368335 -0.0543644 0)
(-0.0378413 -0.0591142 0)
(-0.0390198 -0.0644231 0)
(-0.0402091 -0.0700502 0)
(-0.0415308 -0.0760659 0)
(-0.0429797 -0.0824399 0)
(-0.044533 -0.0891336 0)
(-0.0461951 -0.0961238 0)
(-0.0479781 -0.103391 0)
(-0.0498898 -0.110913 0)
(-0.0519369 -0.118665 0)
(-0.0541264 -0.126621 0)
(-0.0564631 -0.134759 0)
(-0.0589504 -0.143056 0)
(-0.0615941 -0.151494 0)
(-0.0644011 -0.160056 0)
(-0.0673769 -0.168726 0)
(-0.0705272 -0.177492 0)
(-0.07386 -0.186345 0)
(-0.0773855 -0.195279 0)
(-0.0811128 -0.204295 0)
(-0.0850508 -0.213396 0)
(-0.0892123 -0.22259 0)
(-0.0936127 -0.231891 0)
(-0.0982672 -0.241316 0)
(-0.103192 -0.250888 0)
(-0.108411 -0.260633 0)
(-0.113948 -0.270585 0)
(-0.119835 -0.28078 0)
(-0.126102 -0.291262 0)
(-0.132791 -0.302079 0)
(-0.139948 -0.313286 0)
(-0.147628 -0.324943 0)
(-0.155891 -0.337116 0)
(-0.164808 -0.349875 0)
(-0.174466 -0.363298 0)
(-0.184961 -0.377468 0)
(-0.196406 -0.392471 0)
(-0.208934 -0.408403 0)
(-0.222701 -0.425362 0)
(-0.237892 -0.443456 0)
(-0.25472 -0.462796 0)
(-0.273438 -0.483497 0)
(-0.294346 -0.505683 0)
(-0.317804 -0.529481 0)
(-0.344239 -0.555022 0)
(-0.374162 -0.58244 0)
(-0.4082 -0.611871 0)
(-0.447119 -0.643454 0)
(-0.491871 -0.677322 0)
(-0.543647 -0.713601 0)
(-0.60398 -0.752399 0)
(-0.674881 -0.793788 0)
(-0.759042 -0.837735 0)
(-0.860193 -0.884026 0)
(-0.983371 -0.931855 0)
(-1.1366 -0.979733 0)
(-1.32701 -1.02223 0)
(-1.57694 -1.05526 0)
(-1.86699 -1.02779 0)
(-2.28152 -0.977669 0)
(-2.74555 -0.544324 0)
(-1.71025e-05 -0.00299157 0)
(-9.88616e-05 -0.00881886 0)
(-0.000283546 -0.0145938 0)
(-0.000566847 -0.0202479 0)
(-0.000940208 -0.0257457 0)
(-0.00139933 -0.0310473 0)
(-0.00194262 -0.0361146 0)
(-0.00256881 -0.0409124 0)
(-0.00327592 -0.0454057 0)
(-0.00406015 -0.0495577 0)
(-0.00491527 -0.0533294 0)
(-0.00583355 -0.0566821 0)
(-0.00680711 -0.0595811 0)
(-0.00782824 -0.0619995 0)
(-0.00888912 -0.0639204 0)
(-0.00998187 -0.065338 0)
(-0.0110989 -0.0662573 0)
(-0.0122328 -0.0666924 0)
(-0.0133759 -0.0666655 0)
(-0.0145208 -0.0662047 0)
(-0.015661 -0.0653434 0)
(-0.0167905 -0.064119 0)
(-0.0179035 -0.0625724 0)
(-0.0189949 -0.060748 0)
(-0.0200606 -0.0586923 0)
(-0.0210976 -0.0564531 0)
(-0.0221029 -0.0540782 0)
(-0.0230747 -0.0516149 0)
(-0.0240106 -0.0491084 0)
(-0.0249147 -0.0466031 0)
(-0.0257735 -0.0441382 0)
(-0.0266237 -0.0417611 0)
(-0.0274132 -0.039505 0)
(-0.0281771 -0.0374064 0)
(-0.0289187 -0.0355005 0)
(-0.0296316 -0.033826 0)
(-0.0303337 -0.0324183 0)
(-0.0309977 -0.0313031 0)
(-0.0316856 -0.030523 0)
(-0.0323304 -0.0300857 0)
(-0.0330119 -0.0300368 0)
(-0.0336839 -0.0303804 0)
(-0.0343697 -0.0311369 0)
(-0.0350972 -0.0323324 0)
(-0.0358399 -0.0339601 0)
(-0.0366153 -0.0360291 0)
(-0.0374725 -0.0385712 0)
(-0.0383426 -0.0415353 0)
(-0.0392919 -0.0449565 0)
(-0.04034 -0.0488488 0)
(-0.0413845 -0.0530937 0)
(-0.0426207 -0.0578926 0)
(-0.043863 -0.0630097 0)
(-0.0452232 -0.0685284 0)
(-0.0467114 -0.0744304 0)
(-0.048322 -0.0806699 0)
(-0.0500533 -0.0872222 0)
(-0.0519144 -0.0940704 0)
(-0.053914 -0.101191 0)
(-0.0560569 -0.108559 0)
(-0.0583493 -0.11615 0)
(-0.0607982 -0.123938 0)
(-0.0634096 -0.131902 0)
(-0.0661884 -0.140018 0)
(-0.0691412 -0.148266 0)
(-0.0722753 -0.15663 0)
(-0.0755979 -0.165093 0)
(-0.0791155 -0.173644 0)
(-0.0828357 -0.182274 0)
(-0.0867676 -0.190978 0)
(-0.0909205 -0.199753 0)
(-0.0953043 -0.208601 0)
(-0.0999318 -0.217527 0)
(-0.104818 -0.226542 0)
(-0.109982 -0.235659 0)
(-0.11544 -0.244898 0)
(-0.121216 -0.254284 0)
(-0.127337 -0.263844 0)
(-0.133834 -0.273612 0)
(-0.14074 -0.283626 0)
(-0.148097 -0.293927 0)
(-0.155954 -0.304562 0)
(-0.164365 -0.315582 0)
(-0.173394 -0.32704 0)
(-0.183115 -0.338997 0)
(-0.193611 -0.351511 0)
(-0.204989 -0.364653 0)
(-0.217362 -0.378489 0)
(-0.230863 -0.393088 0)
(-0.245652 -0.408524 0)
(-0.261913 -0.42487 0)
(-0.279861 -0.442197 0)
(-0.299749 -0.460574 0)
(-0.321875 -0.480067 0)
(-0.346594 -0.500733 0)
(-0.374324 -0.522615 0)
(-0.405568 -0.545739 0)
(-0.44093 -0.570105 0)
(-0.481146 -0.595673 0)
(-0.527117 -0.622345 0)
(-0.579955 -0.649936 0)
(-0.641057 -0.678132 0)
(-0.712187 -0.706411 0)
(-0.795591 -0.733903 0)
(-0.894157 -0.759198 0)
(-1.01136 -0.779853 0)
(-1.15208 -0.792196 0)
(-1.31953 -0.788432 0)
(-1.52509 -0.764689 0)
(-1.75744 -0.672495 0)
(-2.04037 -0.571664 0)
(-2.40274 -0.354412 0)
(-1.90466e-05 -0.00293225 0)
(-0.000108908 -0.00864977 0)
(-0.000313859 -0.0143145 0)
(-0.000629415 -0.0198602 0)
(-0.00104566 -0.0252526 0)
(-0.00155747 -0.0304526 0)
(-0.00216263 -0.0354215 0)
(-0.00285892 -0.0401234 0)
(-0.00364348 -0.0445243 0)
(-0.00451222 -0.0485893 0)
(-0.00545918 -0.0522816 0)
(-0.00647665 -0.0555637 0)
(-0.00755615 -0.0584016 0)
(-0.00868895 -0.0607681 0)
(-0.00986624 -0.0626465 0)
(-0.0110792 -0.0640307 0)
(-0.0123193 -0.0649257 0)
(-0.0135781 -0.0653455 0)
(-0.0148471 -0.0653119 0)
(-0.0161183 -0.0648527 0)
(-0.0173843 -0.0640006 0)
(-0.0186384 -0.0627923 0)
(-0.0198742 -0.0612682 0)
(-0.0210862 -0.0594715 0)
(-0.0222698 -0.0574481 0)
(-0.0234213 -0.0552448 0)
(-0.0245376 -0.0529086 0)
(-0.0256166 -0.0504858 0)
(-0.0266567 -0.0480208 0)
(-0.0276573 -0.0455571 0)
(-0.0286207 -0.0431339 0)
(-0.0295336 -0.0407932 0)
(-0.0304439 -0.0385782 0)
(-0.0312803 -0.0365125 0)
(-0.0321113 -0.0346405 0)
(-0.0329012 -0.0329927 0)
(-0.0336783 -0.0316072 0)
(-0.0344283 -0.0305101 0)
(-0.0351675 -0.0297323 0)
(-0.0359098 -0.0293038 0)
(-0.0366401 -0.02924 0)
(-0.0373947 -0.0295721 0)
(-0.0381595 -0.0303085 0)
(-0.0389493 -0.0314642 0)
(-0.0397771 -0.0330536 0)
(-0.0406492 -0.0350817 0)
(-0.0415654 -0.0375449 0)
(-0.0425398 -0.0404484 0)
(-0.0436164 -0.043818 0)
(-0.0446883 -0.0475491 0)
(-0.0459585 -0.0518231 0)
(-0.0472302 -0.0564246 0)
(-0.0486156 -0.0614381 0)
(-0.0501352 -0.0668442 0)
(-0.0517821 -0.0726109 0)
(-0.0535519 -0.0787032 0)
(-0.0554592 -0.0851055 0)
(-0.0575132 -0.0917974 0)
(-0.0597184 -0.098753 0)
(-0.0620809 -0.105948 0)
(-0.0646077 -0.113357 0)
(-0.0673063 -0.120958 0)
(-0.0701835 -0.128726 0)
(-0.0732456 -0.136639 0)
(-0.0764991 -0.144679 0)
(-0.0799507 -0.152827 0)
(-0.0836068 -0.161068 0)
(-0.0874742 -0.169389 0)
(-0.0915611 -0.177779 0)
(-0.0958769 -0.186231 0)
(-0.100432 -0.194741 0)
(-0.105237 -0.203309 0)
(-0.110306 -0.211941 0)
(-0.115654 -0.220643 0)
(-0.121297 -0.229429 0)
(-0.127255 -0.238313 0)
(-0.133551 -0.247317 0)
(-0.140212 -0.256463 0)
(-0.147268 -0.26578 0)
(-0.154755 -0.275299 0)
(-0.162715 -0.285054 0)
(-0.171196 -0.295086 0)
(-0.180254 -0.305434 0)
(-0.189953 -0.316143 0)
(-0.200367 -0.32726 0)
(-0.211583 -0.338833 0)
(-0.223698 -0.35091 0)
(-0.236828 -0.36354 0)
(-0.251107 -0.376771 0)
(-0.266689 -0.390648 0)
(-0.283753 -0.405214 0)
(-0.302509 -0.420502 0)
(-0.323199 -0.436536 0)
(-0.346107 -0.453329 0)
(-0.371568 -0.470871 0)
(-0.399973 -0.489128 0)
(-0.431785 -0.508027 0)
(-0.467555 -0.527447 0)
(-0.50794 -0.547198 0)
(-0.553725 -0.566989 0)
(-0.605855 -0.586393 0)
(-0.665468 -0.604783 0)
(-0.733932 -0.621244 0)
(-0.812875 -0.634429 0)
(-0.904219 -0.642369 0)
(-1.01005 -0.642137 0)
(-1.13289 -0.629713 0)
(-1.27439 -0.598284 0)
(-1.43814 -0.543592 0)
(-1.62183 -0.443044 0)
(-1.81328 -0.298783 0)
(-2.04833 -0.096768 0)
(-2.09047e-05 -0.00286783 0)
(-0.000118771 -0.00846341 0)
(-0.000343251 -0.0140062 0)
(-0.000689712 -0.0194317 0)
(-0.00114719 -0.0247072 0)
(-0.00170996 -0.0297945 0)
(-0.00237542 -0.0346551 0)
(-0.00314056 -0.0392524 0)
(-0.0040015 -0.0435527 0)
(-0.00495357 -0.0475229 0)
(-0.00599074 -0.0511279 0)
(-0.00710526 -0.0543319 0)
(-0.00828818 -0.0571018 0)
(-0.00952995 -0.0594107 0)
(-0.0108209 -0.0612417 0)
(-0.0121512 -0.0625888 0)
(-0.0135115 -0.0634569 0)
(-0.0148922 -0.0638597 0)
(-0.0162844 -0.0638187 0)
(-0.0176791 -0.0633611 0)
(-0.0190682 -0.0625191 0)
(-0.0204442 -0.0613286 0)
(-0.0218003 -0.0598292 0)
(-0.0231303 -0.0580632 0)
(-0.0244292 -0.0560754 0)
(-0.0256929 -0.0539118 0)
(-0.026918 -0.0516183 0)
(-0.0281021 -0.0492401 0)
(-0.029244 -0.0468211 0)
(-0.0303418 -0.044403 0)
(-0.0314002 -0.0420265 0)
(-0.0324049 -0.0397297 0)
(-0.0333983 -0.0375539 0)
(-0.0343236 -0.0355267 0)
(-0.0352185 -0.0336864 0)
(-0.0361053 -0.0320721 0)
(-0.0369398 -0.0307074 0)
(-0.0377805 -0.0296328 0)
(-0.0385845 -0.0288642 0)
(-0.0393986 -0.0284373 0)
(-0.0402063 -0.0283695 0)
(-0.0410239 -0.0286821 0)
(-0.0418641 -0.029394 0)
(-0.0427284 -0.0305161 0)
(-0.0436299 -0.0320588 0)
(-0.0445832 -0.0340328 0)
(-0.0455734 -0.0364259 0)
(-0.0466715 -0.0392802 0)
(-0.0477664 -0.0425016 0)
(-0.0490347 -0.0462279 0)
(-0.0503534 -0.0503412 0)
(-0.0517467 -0.0548275 0)
(-0.0532836 -0.0597248 0)
(-0.054945 -0.0649993 0)
(-0.0567291 -0.0706249 0)
(-0.0586529 -0.0765527 0)
(-0.0607346 -0.082786 0)
(-0.0629736 -0.089304 0)
(-0.0653758 -0.0960784 0)
(-0.06795 -0.103084 0)
(-0.0707039 -0.110298 0)
(-0.0736441 -0.117694 0)
(-0.0767775 -0.125251 0)
(-0.0801102 -0.132946 0)
(-0.0836489 -0.14076 0)
(-0.0874007 -0.148674 0)
(-0.0913731 -0.156672 0)
(-0.0955736 -0.16474 0)
(-0.100011 -0.172868 0)
(-0.104693 -0.181048 0)
(-0.109632 -0.189274 0)
(-0.114836 -0.197547 0)
(-0.12032 -0.205866 0)
(-0.126097 -0.214239 0)
(-0.132186 -0.222674 0)
(-0.138606 -0.231183 0)
(-0.145379 -0.239783 0)
(-0.152533 -0.248493 0)
(-0.160097 -0.257337 0)
(-0.168108 -0.26634 0)
(-0.176607 -0.275529 0)
(-0.185639 -0.284937 0)
(-0.195261 -0.294596 0)
(-0.205535 -0.304539 0)
(-0.216533 -0.3148 0)
(-0.22834 -0.325414 0)
(-0.24105 -0.336415 0)
(-0.254775 -0.347832 0)
(-0.269642 -0.359691 0)
(-0.285797 -0.372015 0)
(-0.30341 -0.384815 0)
(-0.322676 -0.398091 0)
(-0.343819 -0.411829 0)
(-0.367099 -0.425992 0)
(-0.392819 -0.440517 0)
(-0.421327 -0.455302 0)
(-0.453028 -0.470196 0)
(-0.488394 -0.484983 0)
(-0.527971 -0.499358 0)
(-0.572395 -0.512896 0)
(-0.622398 -0.52501 0)
(-0.678821 -0.534895 0)
(-0.74261 -0.541439 0)
(-0.814804 -0.543118 0)
(-0.896498 -0.53785 0)
(-0.988709 -0.522773 0)
(-1.09234 -0.494181 0)
(-1.20749 -0.446566 0)
(-1.3335 -0.37447 0)
(-1.46789 -0.26714 0)
(-1.59748 -0.111325 0)
(-1.72382 0.0890607 0)
(-2.28064e-05 -0.00279821 0)
(-0.000128654 -0.0082604 0)
(-0.000371951 -0.0136701 0)
(-0.000748063 -0.018964 0)
(-0.0012453 -0.0241112 0)
(-0.00185733 -0.029075 0)
(-0.00258115 -0.0338171 0)
(-0.00341326 -0.0383009 0)
(-0.00434889 -0.0424927 0)
(-0.00538264 -0.0463603 0)
(-0.00650816 -0.0498704 0)
(-0.00771751 -0.0529892 0)
(-0.00900125 -0.0556844 0)
(-0.0103491 -0.0579301 0)
(-0.0117506 -0.0597092 0)
(-0.0131952 -0.0610158 0)
(-0.0146724 -0.0618543 0)
(-0.0161721 -0.0622385 0)
(-0.0176843 -0.0621892 0)
(-0.0191994 -0.0617334 0)
(-0.0207086 -0.0609022 0)
(-0.0222037 -0.059731 0)
(-0.0236771 -0.0582583 0)
(-0.0251224 -0.0565256 0)
(-0.026534 -0.0545766 0)
(-0.0279073 -0.0524561 0)
(-0.0292388 -0.0502091 0)
(-0.0305257 -0.0478797 0)
(-0.0317668 -0.0455107 0)
(-0.0329603 -0.0431427 0)
(-0.0341106 -0.0408158 0)
(-0.0352041 -0.0385644 0)
(-0.0362864 -0.0364343 0)
(-0.0372891 -0.0344539 0)
(-0.0382667 -0.0326536 0)
(-0.0392135 -0.0310668 0)
(-0.040142 -0.0297302 0)
(-0.0410327 -0.0286684 0)
(-0.0419268 -0.0279165 0)
(-0.0427992 -0.0274899 0)
(-0.0436819 -0.0274176 0)
(-0.0445722 -0.0277154 0)
(-0.0454781 -0.0283992 0)
(-0.0464159 -0.029484 0)
(-0.0473981 -0.030983 0)
(-0.0484064 -0.032885 0)
(-0.0495217 -0.0352382 0)
(-0.050632 -0.0379559 0)
(-0.0518953 -0.0411482 0)
(-0.0532369 -0.0447536 0)
(-0.0546299 -0.0487242 0)
(-0.0561666 -0.0531076 0)
(-0.0578327 -0.0578679 0)
(-0.059635 -0.0629785 0)
(-0.0615504 -0.0684143 0)
(-0.0636099 -0.0741938 0)
(-0.0658625 -0.0802647 0)
(-0.0682844 -0.0865989 0)
(-0.0708781 -0.0931785 0)
(-0.0736557 -0.0999808 0)
(-0.0766254 -0.106982 0)
(-0.0797947 -0.114159 0)
(-0.0831708 -0.121488 0)
(-0.086761 -0.128947 0)
(-0.0905723 -0.136517 0)
(-0.0946118 -0.14418 0)
(-0.0988867 -0.151918 0)
(-0.103404 -0.159719 0)
(-0.108172 -0.167569 0)
(-0.1132 -0.17546 0)
(-0.118497 -0.183387 0)
(-0.124074 -0.191345 0)
(-0.129944 -0.199335 0)
(-0.136122 -0.20736 0)
(-0.142624 -0.215427 0)
(-0.149469 -0.223546 0)
(-0.15668 -0.231728 0)
(-0.164281 -0.239989 0)
(-0.172303 -0.248348 0)
(-0.18078 -0.256822 0)
(-0.18975 -0.265436 0)
(-0.199261 -0.274211 0)
(-0.209364 -0.283171 0)
(-0.220119 -0.292342 0)
(-0.231596 -0.301746 0)
(-0.243873 -0.311405 0)
(-0.25704 -0.321337 0)
(-0.271202 -0.331556 0)
(-0.286476 -0.34207 0)
(-0.302998 -0.352878 0)
(-0.320922 -0.363967 0)
(-0.340424 -0.375308 0)
(-0.361704 -0.386854 0)
(-0.384991 -0.398529 0)
(-0.410546 -0.410226 0)
(-0.438663 -0.421793 0)
(-0.469679 -0.43302 0)
(-0.503972 -0.443627 0)
(-0.541967 -0.453236 0)
(-0.584135 -0.461344 0)
(-0.630993 -0.467286 0)
(-0.683089 -0.470186 0)
(-0.740986 -0.468889 0)
(-0.805212 -0.461884 0)
(-0.876195 -0.447209 0)
(-0.954115 -0.422306 0)
(-1.03874 -0.38398 0)
(-1.12901 -0.328033 0)
(-1.22252 -0.249594 0)
(-1.31569 -0.143225 0)
(-1.40002 -0.0015595 0)
(-1.46534 0.175485 0)
(-2.4733e-05 -0.00272327 0)
(-0.000138545 -0.00804151 0)
(-0.000399771 -0.0133067 0)
(-0.000804168 -0.0184582 0)
(-0.00133973 -0.0234669 0)
(-0.00199938 -0.0282967 0)
(-0.00277964 -0.0329101 0)
(-0.0036766 -0.0372709 0)
(-0.00468475 -0.041346 0)
(-0.00579796 -0.0451035 0)
(-0.00700951 -0.0485119 0)
(-0.00831123 -0.0515387 0)
(-0.00969313 -0.0541532 0)
(-0.0111442 -0.05633 0)
(-0.0126532 -0.0580525 0)
(-0.0142088 -0.0593148 0)
(-0.0157996 -0.0601211 0)
(-0.0174148 -0.0604849 0)
(-0.0190435 -0.0604266 0)
(-0.0206756 -0.0599725 0)
(-0.0223015 -0.0591531 0)
(-0.0239123 -0.0580028 0)
(-0.0255 -0.0565591 0)
(-0.0270576 -0.0548624 0)
(-0.0285789 -0.0529553 0)
(-0.0300591 -0.0508816 0)
(-0.0314943 -0.0486849 0)
(-0.0328817 -0.0464082 0)
(-0.0342195 -0.0440931 0)
(-0.0355068 -0.0417793 0)
(-0.0367438 -0.0395054 0)
(-0.0379332 -0.0373063 0)
(-0.0390644 -0.0352209 0)
(-0.0401849 -0.0332891 0)
(-0.0412324 -0.0315293 0)
(-0.0422571 -0.029979 0)
(-0.0432501 -0.0286699 0)
(-0.0442201 -0.0276317 0)
(-0.0451705 -0.0268888 0)
(-0.0461162 -0.026467 0)
(-0.0470656 -0.0263879 0)
(-0.0480205 -0.0266682 0)
(-0.0489986 -0.0273256 0)
(-0.0500114 -0.0283747 0)
(-0.0510435 -0.0298107 0)
(-0.052175 -0.0316803 0)
(-0.0532911 -0.0339041 0)
(-0.0545657 -0.0365945 0)
(-0.0558998 -0.039679 0)
(-0.0572868 -0.043136 0)
(-0.0588123 -0.0470095 0)
(-0.0604624 -0.051262 0)
(-0.0622347 -0.05587 0)
(-0.0641362 -0.0608187 0)
(-0.0662178 -0.0660844 0)
(-0.0684718 -0.0716831 0)
(-0.0708661 -0.0775632 0)
(-0.0734411 -0.0836967 0)
(-0.076211 -0.0900661 0)
(-0.07918 -0.0966495 0)
(-0.0823552 -0.103424 0)
(-0.0857439 -0.110365 0)
(-0.0893531 -0.117451 0)
(-0.0931895 -0.124659 0)
(-0.09726 -0.13197 0)
(-0.101571 -0.139365 0)
(-0.106131 -0.146828 0)
(-0.110947 -0.154345 0)
(-0.116026 -0.161902 0)
(-0.121378 -0.16949 0)
(-0.127011 -0.177101 0)
(-0.132937 -0.184731 0)
(-0.139166 -0.192379 0)
(-0.145714 -0.200045 0)
(-0.152595 -0.207733 0)
(-0.159829 -0.215449 0)
(-0.167435 -0.223203 0)
(-0.175438 -0.231006 0)
(-0.183866 -0.238871 0)
(-0.192752 -0.246812 0)
(-0.202133 -0.254846 0)
(-0.212051 -0.262988 0)
(-0.222556 -0.271255 0)
(-0.233703 -0.279661 0)
(-0.245557 -0.288221 0)
(-0.258191 -0.296944 0)
(-0.271687 -0.305837 0)
(-0.28614 -0.314898 0)
(-0.301657 -0.324118 0)
(-0.318358 -0.333478 0)
(-0.336379 -0.342945 0)
(-0.355875 -0.352467 0)
(-0.377017 -0.36197 0)
(-0.399998 -0.371351 0)
(-0.425032 -0.380471 0)
(-0.452358 -0.389142 0)
(-0.482235 -0.39712 0)
(-0.514948 -0.404088 0)
(-0.550798 -0.409632 0)
(-0.590102 -0.413222 0)
(-0.633174 -0.414181 0)
(-0.680307 -0.411643 0)
(-0.73174 -0.404513 0)
(-0.787596 -0.391415 0)
(-0.847808 -0.370635 0)
(-0.91198 -0.340063 0)
(-0.979217 -0.297175 0)
(-1.04789 -0.23902 0)
(-1.1152 -0.162322 0)
(-1.17718 -0.0640397 0)
(-1.22779 0.0586667 0)
(-1.25796 0.207671 0)
(-2.69822e-05 -0.00264176 0)
(-0.000148511 -0.00780975 0)
(-0.00042619 -0.0129192 0)
(-0.00085837 -0.0179148 0)
(-0.0014311 -0.0227739 0)
(-0.00213587 -0.027461 0)
(-0.0029701 -0.0319371 0)
(-0.00393011 -0.0361662 0)
(-0.00500903 -0.0401155 0)
(-0.00619944 -0.0437544 0)
(-0.00749421 -0.0470533 0)
(-0.00888496 -0.049982 0)
(-0.0103615 -0.0525105 0)
(-0.0119123 -0.0546141 0)
(-0.0135254 -0.0562763 0)
(-0.0151886 -0.0574911 0)
(-0.0168897 -0.0582628 0)
(-0.0186168 -0.0586043 0)
(-0.0203586 -0.0585359 0)
(-0.0221041 -0.058083 0)
(-0.0238431 -0.0572757 0)
(-0.0255662 -0.0561472 0)
(-0.0272649 -0.0547341 0)
(-0.0289314 -0.0530758 0)
(-0.0305594 -0.0512135 0)
(-0.0321436 -0.0491896 0)
(-0.0336796 -0.0470467 0)
(-0.0351646 -0.0448266 0)
(-0.0365965 -0.0425696 0)
(-0.0379749 -0.0403143 0)
(-0.0392988 -0.0380975 0)
(-0.0405741 -0.035956 0)
(-0.0417875 -0.0339212 0)
(-0.0429874 -0.0320351 0)
(-0.0441023 -0.0303202 0)
(-0.0452003 -0.028811 0)
(-0.0462626 -0.027533 0)
(-0.047306 -0.0265178 0)
(-0.0483217 -0.0257875 0)
(-0.0493406 -0.0253716 0)
(-0.0503464 -0.0252821 0)
(-0.051375 -0.0255482 0)
(-0.0524229 -0.0261789 0)
(-0.0534805 -0.0271746 0)
(-0.0546316 -0.0285837 0)
(-0.055756 -0.0303379 0)
(-0.0570517 -0.0325528 0)
(-0.0583512 -0.0351134 0)
(-0.0597408 -0.0380722 0)
(-0.0612485 -0.0414377 0)
(-0.0628747 -0.0451818 0)
(-0.0646243 -0.0492855 0)
(-0.0665106 -0.0537385 0)
(-0.0685478 -0.058528 0)
(-0.0707533 -0.0636422 0)
(-0.0731297 -0.0690291 0)
(-0.0756804 -0.0746898 0)
(-0.0784217 -0.0806058 0)
(-0.0813649 -0.0867504 0)
(-0.0845179 -0.0931004 0)
(-0.0878886 -0.0996326 0)
(-0.0914844 -0.106324 0)
(-0.0953126 -0.113152 0)
(-0.0993807 -0.120095 0)
(-0.103696 -0.127133 0)
(-0.108264 -0.134248 0)
(-0.113093 -0.141422 0)
(-0.118189 -0.148641 0)
(-0.12356 -0.155891 0)
(-0.129215 -0.163162 0)
(-0.135161 -0.170446 0)
(-0.14141 -0.177737 0)
(-0.147971 -0.185031 0)
(-0.154858 -0.192327 0)
(-0.162086 -0.199628 0)
(-0.169671 -0.206935 0)
(-0.177633 -0.214256 0)
(-0.185995 -0.221597 0)
(-0.194781 -0.228967 0)
(-0.204022 -0.236377 0)
(-0.213752 -0.243835 0)
(-0.22401 -0.251353 0)
(-0.234842 -0.258939 0)
(-0.246298 -0.266601 0)
(-0.258435 -0.274342 0)
(-0.271322 -0.282164 0)
(-0.28503 -0.29006 0)
(-0.299644 -0.298019 0)
(-0.315258 -0.306019 0)
(-0.331974 -0.314024 0)
(-0.349911 -0.321986 0)
(-0.369196 -0.329835 0)
(-0.389971 -0.33748 0)
(-0.412391 -0.344797 0)
(-0.436624 -0.351628 0)
(-0.462849 -0.357769 0)
(-0.491256 -0.362957 0)
(-0.522036 -0.366863 0)
(-0.555382 -0.369072 0)
(-0.59147 -0.369063 0)
(-0.630443 -0.366193 0)
(-0.672387 -0.359666 0)
(-0.717293 -0.34851 0)
(-0.764995 -0.331549 0)
(-0.815099 -0.307385 0)
(-0.866876 -0.274385 0)
(-0.919123 -0.230712 0)
(-0.970008 -0.174394 0)
(-1.01681 -0.10345 0)
(-1.05586 -0.0161603 0)
(-1.08202 0.088478 0)
(-1.08993 0.210618 0)
(-3.17482e-05 -0.00255146 0)
(-0.000161996 -0.00755682 0)
(-0.000447773 -0.0125074 0)
(-0.000906299 -0.0173425 0)
(-0.00151945 -0.0220398 0)
(-0.00226951 -0.0265684 0)
(-0.0031542 -0.0308958 0)
(-0.0041726 -0.0349875 0)
(-0.00531817 -0.0388073 0)
(-0.00658322 -0.0423222 0)
(-0.00795982 -0.045504 0)
(-0.009438 -0.0483256 0)
(-0.0110063 -0.05076 0)
(-0.0126531 -0.0527835 0)
(-0.0143662 -0.0543804 0)
(-0.0161328 -0.0555446 0)
(-0.0179399 -0.0562799 0)
(-0.0197747 -0.0565987 0)
(-0.0216253 -0.0565201 0)
(-0.0234801 -0.0560692 0)
(-0.0253284 -0.055275 0)
(-0.0271601 -0.0541699 0)
(-0.0289661 -0.0527896 0)
(-0.0307382 -0.051172 0)
(-0.0324697 -0.0493573 0)
(-0.0341547 -0.0473865 0)
(-0.0357889 -0.0453008 0)
(-0.037369 -0.0431407 0)
(-0.0388929 -0.0409451 0)
(-0.0403598 -0.0387516 0)
(-0.0417698 -0.0365957 0)
(-0.0431236 -0.0345124 0)
(-0.0444262 -0.0325336 0)
(-0.0456684 -0.0306928 0)
(-0.0468979 -0.0290311 0)
(-0.0480487 -0.0275617 0)
(-0.0491863 -0.0263185 0)
(-0.0502871 -0.0253239 0)
(-0.0513824 -0.0246121 0)
(-0.0524505 -0.0241962 0)
(-0.0535354 -0.0241079 0)
(-0.0546164 -0.024351 0)
(-0.0557225 -0.0249493 0)
(-0.0568846 -0.0259252 0)
(-0.058024 -0.0272338 0)
(-0.0593196 -0.0289733 0)
(-0.0606217 -0.0310596 0)
(-0.0620053 -0.033536 0)
(-0.0634927 -0.0364036 0)
(-0.0650888 -0.0396437 0)
(-0.0668028 -0.0432419 0)
(-0.0686493 -0.0471895 0)
(-0.0706432 -0.0514756 0)
(-0.0727975 -0.0560846 0)
(-0.0751241 -0.0609972 0)
(-0.077632 -0.0661874 0)
(-0.0803284 -0.0716391 0)
(-0.0832237 -0.0773322 0)
(-0.0863291 -0.0832407 0)
(-0.0896551 -0.0893451 0)
(-0.0932107 -0.0956232 0)
(-0.0970032 -0.102052 0)
(-0.10104 -0.108608 0)
(-0.105327 -0.115272 0)
(-0.109872 -0.122024 0)
(-0.114681 -0.128844 0)
(-0.119762 -0.135716 0)
(-0.12512 -0.142625 0)
(-0.130763 -0.149558 0)
(-0.136699 -0.156502 0)
(-0.142936 -0.163448 0)
(-0.149483 -0.17039 0)
(-0.156349 -0.177323 0)
(-0.163547 -0.184243 0)
(-0.171089 -0.19115 0)
(-0.178991 -0.198045 0)
(-0.187271 -0.204931 0)
(-0.195948 -0.211812 0)
(-0.205045 -0.218692 0)
(-0.21459 -0.225577 0)
(-0.224614 -0.232472 0)
(-0.23515 -0.239382 0)
(-0.24624 -0.246309 0)
(-0.257929 -0.253254 0)
(-0.270268 -0.260214 0)
(-0.283313 -0.26718 0)
(-0.29713 -0.274139 0)
(-0.31179 -0.281068 0)
(-0.327372 -0.287935 0)
(-0.343965 -0.294695 0)
(-0.361663 -0.301287 0)
(-0.38057 -0.307631 0)
(-0.400797 -0.313622 0)
(-0.422462 -0.319129 0)
(-0.445689 -0.323983 0)
(-0.470601 -0.327974 0)
(-0.497322 -0.330841 0)
(-0.525964 -0.332262 0)
(-0.556622 -0.331841 0)
(-0.589359 -0.329098 0)
(-0.624183 -0.323452 0)
(-0.661025 -0.31421 0)
(-0.699701 -0.300554 0)
(-0.73986 -0.281531 0)
(-0.780922 -0.256062 0)
(-0.822 -0.222952 0)
(-0.861799 -0.180943 0)
(-0.898516 -0.128796 0)
(-0.929701 -0.0654287 0)
(-0.952253 0.00985558 0)
(-0.962058 0.0970956 0)
(-0.955442 0.19507 0)
(-3.63584e-05 -0.00244022 0)
(-0.000175595 -0.00734414 0)
(-0.000484986 -0.0120548 0)
(-0.000960197 -0.0167174 0)
(-0.00159827 -0.0212655 0)
(-0.0023897 -0.0256353 0)
(-0.00333117 -0.0297976 0)
(-0.00441228 -0.0337308 0)
(-0.005621 -0.0374056 0)
(-0.0069523 -0.0407911 0)
(-0.00840269 -0.0438573 0)
(-0.0099628 -0.0465738 0)
(-0.0116193 -0.0489131 0)
(-0.0133592 -0.0508533 0)
(-0.01517 -0.0523799 0)
(-0.017038 -0.0534882 0)
(-0.0189485 -0.0541824 0)
(-0.0208877 -0.0544746 0)
(-0.0228431 -0.0543836 0)
(-0.0248029 -0.0539335 0)
(-0.026756 -0.0531522 0)
(-0.0286919 -0.0520714 0)
(-0.0306009 -0.0507251 0)
(-0.0324747 -0.0491503 0)
(-0.0343058 -0.0473856 0)
(-0.0360883 -0.0454708 0)
(-0.0378172 -0.0434457 0)
(-0.0394891 -0.0413492 0)
(-0.0411018 -0.0392192 0)
(-0.0426543 -0.0370917 0)
(-0.0441469 -0.0350013 0)
(-0.0455805 -0.032981 0)
(-0.0469579 -0.0310634 0)
(-0.0482834 -0.0292791 0)
(-0.0495544 -0.0276581 0)
(-0.0508042 -0.0262353 0)
(-0.0520009 -0.0250278 0)
(-0.0531679 -0.0240613 0)