/*--------------------------------*- C++ -*----------------------------------*\
| =========                 |                                                 |
| \\      /  F ield         | OpenFOAM: The Open Source CFD Toolbox           |
|  \\    /   O peration     | Version:  2206                                  |
|   \\  /    A nd           | Website:  www.openfoam.com                      |
|    \\/     M anipulation  |                                                 |
\*---------------------------------------------------------------------------*/
FoamFile
{
    version     2.0;
    format      ascii;
    arch        "LSB;label=32;scalar=64";
    class       volVectorField;
    location    "18.9";
    object      U_0;
}
// * * * * * * * * * * * * * * * * * * * * * * * * * * * * * * * * * * * * * //

dimensions      [0 1 -1 0 0 0 0];

internalField   nonuniform List<vector> 
4830
(
(1.36141 0.225479 0)
(1.35313 0.153694 0)
(1.34766 0.0780728 0)
(1.34503 0.000793603 0)
(1.34511 -0.0758112 0)
(1.3476 -0.150119 0)
(1.35214 -0.220713 0)
(1.35828 -0.286435 0)
(1.36551 -0.346431 0)
(1.37332 -0.400192 0)
(1.3812 -0.44753 0)
(1.38871 -0.488482 0)
(1.39547 -0.523249 0)
(1.4012 -0.552162 0)
(1.4057 -0.575607 0)
(1.40878 -0.593974 0)
(1.41049 -0.607599 0)
(1.4111 -0.616336 0)
(1.41078 -0.62019 0)
(1.40908 -0.619837 0)
(1.40585 -0.612443 0)
(1.40161 -0.598183 0)
(1.39696 -0.577109 0)
(1.39201 -0.548937 0)
(1.38689 -0.513541 0)
(1.38184 -0.470997 0)
(1.37709 -0.421606 0)
(1.3729 -0.365911 0)
(1.3695 -0.30472 0)
(1.3671 -0.239093 0)
(1.36585 -0.17037 0)
(1.36583 -0.100218 0)
(1.36702 -0.0305993 0)
(1.36926 0.0370419 0)
(1.37239 0.101402 0)
(1.37618 0.161324 0)
(1.3804 0.215892 0)
(1.38478 0.264379 0)
(1.38909 0.306413 0)
(1.39311 0.341812 0)
(1.39664 0.370634 0)
(1.39948 0.393137 0)
(1.40151 0.409754 0)
(1.40266 0.421063 0)
(1.40296 0.427488 0)
(1.40234 0.42991 0)
(1.40058 0.428427 0)
(1.39751 0.422874 0)
(1.39356 0.413658 0)
(1.38921 0.401073 0)
(1.38479 0.385169 0)
(1.38067 0.365825 0)
(1.37725 0.342885 0)
(1.37488 0.316244 0)
(1.37381 0.285919 0)
(1.37424 0.252084 0)
(1.37626 0.215083 0)
(1.3799 0.175405 0)
(1.38514 0.13366 0)
(1.39186 0.0905585 0)
(1.39993 0.0469127 0)
(1.40911 0.0036284 0)
(1.41921 -0.0386449 0)
(1.43005 -0.0793665 0)
(1.44144 -0.118061 0)
(1.45321 -0.154333 0)
(1.46519 -0.187873 0)
(1.47721 -0.218444 0)
(1.48916 -0.245879 0)
(1.50093 -0.270074 0)
(1.51243 -0.290969 0)
(1.52363 -0.308539 0)
(1.53449 -0.322776 0)
(1.54502 -0.333664 0)
(1.55523 -0.341159 0)
(1.56524 -0.345063 0)
(1.57522 -0.344823 0)
(1.58498 -0.339943 0)
(1.5946 -0.33016 0)
(1.60405 -0.31529 0)
(1.61326 -0.295234 0)
(1.62213 -0.269995 0)
(1.63058 -0.239701 0)
(1.63848 -0.204625 0)
(1.64569 -0.165203 0)
(1.65206 -0.122035 0)
(1.65743 -0.075905 0)
(1.66167 -0.0278372 0)
(1.6646 0.0207323 0)
(1.66607 0.0684514 0)
(1.66602 0.11438 0)
(1.6644 0.157712 0)
(1.6612 0.197806 0)
(1.65644 0.234195 0)
(1.65017 0.266587 0)
(1.64246 0.294852 0)
(1.63341 0.318985 0)
(1.62313 0.339073 0)
(1.61173 0.355245 0)
(1.59932 0.367634 0)
(1.58598 0.37634 0)
(1.57179 0.381416 0)
(1.55692 0.382932 0)
(1.54155 0.381016 0)
(1.52579 0.375749 0)
(1.50984 0.367162 0)
(1.49382 0.355251 0)
(1.47791 0.340001 0)
(1.46226 0.321398 0)
(1.44701 0.299455 0)
(1.43232 0.274225 0)
(1.41834 0.245824 0)
(1.4052 0.214439 0)
(1.39303 0.180338 0)
(1.38191 0.143873 0)
(1.37196 0.105475 0)
(1.36322 0.0656566 0)
(1.35575 0.0250182 0)
(1.34959 -0.0157274 0)
(1.34474 -0.0560209 0)
(1.34116 -0.0953464 0)
(1.33876 -0.133203 0)
(1.33748 -0.169146 0)
(1.33711 -0.202724 0)
(1.3374 -0.233494 0)
(1.33864 -0.261104 0)
(1.34065 -0.285363 0)
(1.34321 -0.306109 0)
(1.34626 -0.323215 0)
(1.34965 -0.33662 0)
(1.35327 -0.346352 0)
(1.35697 -0.35253 0)
(1.36091 -0.355219 0)
(1.36517 -0.353815 0)
(1.36956 -0.348082 0)
(1.37415 -0.338194 0)
(1.37888 -0.324359 0)
(1.38377 -0.306782 0)
(1.37694 0.236028 0)
(1.36903 0.161317 0)
(1.36371 0.0826352 0)
(1.36103 0.0023378 0)
(1.36083 -0.0770286 0)
(1.36284 -0.15374 0)
(1.36669 -0.22627 0)
(1.37192 -0.29338 0)
(1.37804 -0.35418 0)
(1.38452 -0.40816 0)
(1.39088 -0.455171 0)
(1.39667 -0.495362 0)
(1.40155 -0.529048 0)
(1.4053 -0.556659 0)
(1.40776 -0.578627 0)
(1.4089 -0.595381 0)
(1.40852 -0.607238 0)
(1.40682 -0.614587 0)
(1.40384 -0.617497 0)
(1.39927 -0.615064 0)
(1.39337 -0.606665 0)
(1.38662 -0.591807 0)
(1.37943 -0.570262 0)
(1.37198 -0.541842 0)
(1.36447 -0.506453 0)
(1.35715 -0.464194 0)
(1.35029 -0.415378 0)
(1.34415 -0.360548 0)
(1.33902 -0.300486 0)
(1.33512 -0.236208 0)
(1.33263 -0.168985 0)
(1.33165 -0.100377 0)
(1.33217 -0.0322175 0)
(1.33406 0.0341292 0)
(1.33715 0.0974212 0)
(1.34121 0.156547 0)
(1.34597 0.210606 0)
(1.35116 0.2589 0)
(1.35648 0.301023 0)
(1.36167 0.33678 0)
(1.36648 0.366219 0)
(1.37067 0.389556 0)
(1.37406 0.407122 0)
(1.37657 0.419398 0)
(1.37815 0.426891 0)
(1.37888 0.430233 0)
(1.3786 0.430453 0)
(1.37698 0.426116 0)
(1.37446 0.417454 0)
(1.37162 0.40511 0)
(1.36879 0.389039 0)
(1.36634 0.369101 0)
(1.36464 0.345171 0)
(1.36397 0.317215 0)
(1.36455 0.285345 0)
(1.36652 0.249841 0)
(1.36997 0.211119 0)
(1.37491 0.16972 0)
(1.38131 0.126324 0)
(1.38907 0.0817191 0)
(1.398 0.0367939 0)
(1.40786 -0.00752789 0)
(1.41848 -0.0506433 0)
(1.42968 -0.0920001 0)
(1.44126 -0.131119 0)
(1.45303 -0.167613 0)
(1.46483 -0.201195 0)
(1.47651 -0.231655 0)
(1.48793 -0.258848 0)
(1.499 -0.282698 0)
(1.50964 -0.30318 0)
(1.51982 -0.320303 0)
(1.52951 -0.33409 0)
(1.53874 -0.34456 0)
(1.54752 -0.351711 0)
(1.556 -0.355388 0)
(1.56441 -0.354986 0)
(1.57254 -0.349939 0)
(1.58053 -0.339966 0)
(1.58837 -0.324872 0)
(1.596 -0.304537 0)
(1.60341 -0.278935 0)
(1.61051 -0.248168 0)
(1.61722 -0.212487 0)
(1.62342 -0.172309 0)
(1.62898 -0.12823 0)
(1.63378 -0.0810352 0)
(1.63768 -0.0317414 0)
(1.64052 0.01826 0)
(1.64214 0.067518 0)
(1.64245 0.115065 0)
(1.6414 0.16006 0)
(1.63894 0.201827 0)
(1.63507 0.239864 0)
(1.6298 0.273852 0)
(1.62318 0.303631 0)
(1.61527 0.329181 0)
(1.60618 0.350576 0)
(1.59598 0.367941 0)
(1.58478 0.381413 0)
(1.57268 0.391099 0)
(1.55972 0.397046 0)
(1.54601 0.399276 0)
(1.53177 0.397883 0)
(1.51711 0.392962 0)
(1.50218 0.384546 0)
(1.48717 0.372632 0)
(1.47221 0.357207 0)
(1.45745 0.338257 0)
(1.44305 0.315797 0)
(1.42914 0.289889 0)
(1.41586 0.260658 0)
(1.40333 0.228306 0)
(1.39165 0.193118 0)
(1.38093 0.155462 0)
(1.37127 0.115789 0)
(1.36274 0.0746196 0)
(1.35541 0.032562 0)
(1.34935 -0.0096377 0)
(1.34455 -0.0513758 0)
(1.34096 -0.0920776 0)
(1.3385 -0.131179 0)
(1.33722 -0.168187 0)
(1.33686 -0.202665 0)
(1.33712 -0.234293 0)
(1.33832 -0.262778 0)
(1.34001 -0.287776 0)
(1.34214 -0.309069 0)
(1.34463 -0.326556 0)
(1.34735 -0.340206 0)
(1.35021 -0.350078 0)
(1.35311 -0.356339 0)
(1.35607 -0.359178 0)
(1.35936 -0.358052 0)
(1.36273 -0.352498 0)
(1.36622 -0.342741 0)
(1.36979 -0.329062 0)
(1.37348 -0.311686 0)
(1.39748 0.245901 0)
(1.39019 0.168538 0)
(1.38523 0.0870626 0)
(1.38262 0.00402637 0)
(1.38221 -0.0778383 0)
(1.38373 -0.15669 0)
(1.38681 -0.2309 0)
(1.39102 -0.299162 0)
(1.39587 -0.360551 0)
(1.40089 -0.414563 0)
(1.4056 -0.461093 0)
(1.40959 -0.500368 0)
(1.4125 -0.532841 0)
(1.41411 -0.559077 0)
(1.4143 -0.579619 0)
(1.41309 -0.594889 0)
(1.41059 -0.605217 0)
(1.40667 -0.610943 0)
(1.40098 -0.611905 0)
(1.39391 -0.607784 0)
(1.38565 -0.598222 0)
(1.37661 -0.582675 0)
(1.36713 -0.56075 0)
(1.35747 -0.532196 0)
(1.34788 -0.496941 0)
(1.33861 -0.455113 0)
(1.32994 -0.407043 0)
(1.32214 -0.353275 0)
(1.31551 -0.294571 0)
(1.3103 -0.231897 0)
(1.3067 -0.166447 0)
(1.30484 -0.0996727 0)
(1.30471 -0.0332734 0)
(1.30619 0.0314832 0)
(1.30912 0.0934106 0)
(1.31325 0.151453 0)
(1.31831 0.204752 0)
(1.32398 0.252625 0)
(1.32996 0.29465 0)
(1.33594 0.330612 0)
(1.34166 0.360551 0)
(1.34687 0.384632 0)
(1.35137 0.403099 0)
(1.35502 0.416368 0)
(1.35772 0.424922 0)
(1.35945 0.429338 0)
(1.36022 0.430447 0)
(1.36008 0.427735 0)
(1.359 0.419594 0)
(1.35765 0.407408 0)
(1.35642 0.39108 0)
(1.35566 0.370465 0)
(1.35565 0.345521 0)
(1.3566 0.316326 0)
(1.3587 0.283067 0)
(1.36208 0.246034 0)
(1.36684 0.205692 0)
(1.373 0.162695 0)
(1.38049 0.117803 0)
(1.38918 0.0718643 0)
(1.39887 0.0258699 0)
(1.40934 -0.0193184 0)
(1.42041 -0.0630895 0)
(1.43188 -0.104882 0)
(1.44355 -0.14422 0)
(1.45522 -0.180739 0)
(1.46673 -0.214166 0)
(1.47793 -0.244314 0)
(1.48872 -0.271073 0)
(1.49899 -0.294395 0)
(1.50867 -0.314284 0)
(1.51774 -0.33079 0)
(1.52618 -0.343965 0)
(1.53402 -0.353866 0)
(1.54128 -0.360546 0)
(1.54814 -0.363913 0)
(1.55489 -0.363308 0)
(1.56131 -0.358063 0)
(1.56758 -0.347895 0)
(1.5737 -0.332613 0)
(1.57967 -0.312078 0)
(1.58551 -0.286236 0)
(1.59117 -0.255157 0)
(1.59661 -0.219063 0)
(1.60172 -0.178352 0)
(1.6064 -0.133609 0)
(1.61056 -0.0856166 0)
(1.61407 -0.0353776 0)
(1.61677 0.0157768 0)
(1.6185 0.0663058 0)
(1.61917 0.115221 0)
(1.61868 0.161657 0)
(1.61698 0.204908 0)
(1.61403 0.244442 0)
(1.6098 0.279907 0)
(1.60433 0.311118 0)
(1.59765 0.338027 0)
(1.58982 0.360687 0)
(1.58093 0.379211 0)
(1.57107 0.393743 0)
(1.56034 0.404401 0)
(1.54877 0.411236 0)
(1.5364 0.414226 0)
(1.52347 0.413404 0)
(1.51007 0.408878 0)
(1.49638 0.400682 0)
(1.48254 0.388817 0)
(1.4687 0.373273 0)
(1.45501 0.354043 0)
(1.44158 0.331151 0)
(1.42856 0.304666 0)
(1.41606 0.274724 0)
(1.40419 0.241541 0)
(1.39308 0.205405 0)
(1.38286 0.166682 0)
(1.37362 0.125823 0)
(1.36548 0.0833693 0)
(1.3585 0.0399518 0)
(1.35273 -0.00362847 0)
(1.34815 -0.0467104 0)
(1.34469 -0.0887045 0)
(1.34229 -0.129048 0)
(1.34086 -0.167195 0)
(1.34033 -0.202648 0)
(1.34057 -0.235087 0)
(1.34143 -0.264187 0)
(1.34276 -0.289656 0)
(1.3445 -0.311329 0)
(1.34652 -0.329111 0)
(1.34872 -0.342961 0)
(1.351 -0.352968 0)
(1.35323 -0.359288 0)
(1.35528 -0.362199 0)
(1.35762 -0.36131 0)
(1.36002 -0.355838 0)
(1.36243 -0.346085 0)
(1.36487 -0.332462 0)
(1.36741 -0.315241 0)
(1.42329 0.254771 0)
(1.41688 0.175098 0)
(1.41244 0.0911733 0)
(1.40999 0.00576506 0)
(1.40938 -0.0782412 0)
(1.41034 -0.158884 0)
(1.41253 -0.234446 0)
(1.41555 -0.303565 0)
(1.41896 -0.365296 0)
(1.42234 -0.419138 0)
(1.42526 -0.465011 0)
(1.42736 -0.503195 0)
(1.4283 -0.534222 0)
(1.42784 -0.558785 0)
(1.42582 -0.577582 0)
(1.42225 -0.591176 0)
(1.41721 -0.599967 0)
(1.41052 -0.604104 0)
(1.40235 -0.603396 0)
(1.39292 -0.597888 0)
(1.38246 -0.587262 0)
(1.37133 -0.571044 0)
(1.35984 -0.548828 0)
(1.3483 -0.52031 0)
(1.33694 -0.485364 0)
(1.32603 -0.44412 0)
(1.31585 -0.396941 0)
(1.30667 -0.344386 0)
(1.29878 -0.287204 0)
(1.29245 -0.226315 0)
(1.28787 -0.162834 0)
(1.28517 -0.0981081 0)
(1.28437 -0.0337189 0)
(1.28538 0.0291952 0)
(1.28803 0.0895091 0)
(1.29208 0.146246 0)
(1.29722 0.198543 0)
(1.30317 0.245803 0)
(1.30961 0.287573 0)
(1.31619 0.323635 0)
(1.3226 0.35395 0)
(1.32859 0.37865 0)
(1.33395 0.397995 0)
(1.33846 0.412336 0)
(1.34197 0.422007 0)
(1.34441 0.427489 0)
(1.34602 0.429507 0)
(1.34712 0.427697 0)
(1.34758 0.420149 0)
(1.34783 0.407959 0)
(1.34823 0.391234 0)
(1.34908 0.369946 0)
(1.35056 0.344132 0)
(1.35297 0.313837 0)
(1.35645 0.279219 0)
(1.36117 0.240704 0)
(1.3672 0.198878 0)
(1.37448 0.154439 0)
(1.38295 0.108209 0)
(1.39249 0.0611128 0)
(1.40285 0.0142202 0)
(1.41384 -0.0316549 0)
(1.42527 -0.0758917 0)
(1.43691 -0.117912 0)
(1.44856 -0.157255 0)
(1.46002 -0.193581 0)
(1.47113 -0.226647 0)
(1.48175 -0.256288 0)
(1.49176 -0.28242 0)
(1.50109 -0.305037 0)
(1.50971 -0.324174 0)
(1.5176 -0.339907 0)
(1.52472 -0.352317 0)
(1.53111 -0.3615 0)
(1.53675 -0.367575 0)
(1.5419 -0.370541 0)
(1.54692 -0.36969 0)
(1.55159 -0.364216 0)
(1.55605 -0.353845 0)
(1.56036 -0.338412 0)
(1.5646 -0.317765 0)
(1.5688 -0.291813 0)
(1.57297 -0.260588 0)
(1.57707 -0.224279 0)
(1.58104 -0.18326 0)
(1.5848 -0.138103 0)
(1.58827 -0.0895762 0)
(1.59132 -0.0386631 0)
(1.59384 0.0133315 0)
(1.59564 0.0648592 0)
(1.59663 0.114883 0)
(1.59668 0.162524 0)
(1.59573 0.207051 0)
(1.5937 0.247909 0)
(1.59055 0.284715 0)
(1.58626 0.317248 0)
(1.58086 0.345431 0)
(1.57438 0.369294 0)
(1.56689 0.38894 0)
(1.55846 0.404499 0)
(1.5492 0.416096 0)
(1.53917 0.423805 0)
(1.52832 0.427589 0)
(1.51685 0.427389 0)
(1.50492 0.423302 0)
(1.49262 0.415378 0)
(1.48012 0.403623 0)
(1.46756 0.388036 0)
(1.45506 0.368619 0)
(1.44273 0.345403 0)
(1.43071 0.318463 0)
(1.41913 0.287937 0)
(1.40812 0.254022 0)
(1.39781 0.216997 0)
(1.38835 0.177245 0)
(1.37985 0.135238 0)
(1.3724 0.0915446 0)
(1.36605 0.0468324 0)
(1.36082 0.00196385 0)
(1.35666 -0.0423532 0)
(1.35351 -0.0854993 0)
(1.35128 -0.126903 0)
(1.34988 -0.166012 0)
(1.34921 -0.202333 0)
(1.34915 -0.2355 0)
(1.34957 -0.265177 0)
(1.35037 -0.29112 0)
(1.35146 -0.313135 0)
(1.35273 -0.331113 0)
(1.35412 -0.345048 0)
(1.35556 -0.35505 0)
(1.35695 -0.361231 0)
(1.35813 -0.363994 0)
(1.35955 -0.363429 0)
(1.36104 -0.358004 0)
(1.36259 -0.34826 0)
(1.36404 -0.334704 0)
(1.3655 -0.317575 0)
(1.45435 0.262331 0)
(1.44904 0.180779 0)
(1.44527 0.0948469 0)
(1.44304 0.00751907 0)
(1.44222 -0.0781837 0)
(1.44254 -0.160192 0)
(1.44369 -0.236715 0)
(1.44532 -0.306349 0)
(1.44703 -0.368139 0)
(1.44847 -0.421603 0)
(1.44928 -0.466697 0)
(1.44917 -0.503752 0)
(1.44788 -0.533363 0)
(1.44521 -0.556285 0)
(1.44103 -0.573308 0)
(1.43528 -0.585103 0)
(1.42781 -0.592099 0)
(1.41858 -0.594391 0)
(1.40797 -0.592185 0)
(1.3962 -0.585526 0)
(1.38361 -0.574078 0)
(1.37052 -0.557367 0)
(1.35724 -0.534948 0)
(1.34405 -0.506523 0)
(1.33121 -0.472003 0)
(1.31898 -0.431516 0)
(1.3076 -0.385392 0)
(1.29734 -0.334188 0)
(1.28846 -0.278654 0)
(1.28121 -0.219673 0)
(1.27581 -0.158284 0)
(1.27237 -0.0957459 0)
(1.27097 -0.0335118 0)
(1.27151 0.0273691 0)
(1.27381 0.0859094 0)
(1.27763 0.14118 0)
(1.28268 0.192338 0)
(1.28864 0.23879 0)
(1.29519 0.280113 0)
(1.30201 0.316116 0)
(1.30878 0.346711 0)
(1.31518 0.371957 0)
(1.321 0.392076 0)
(1.32609 0.407389 0)
(1.33033 0.418157 0)
(1.33368 0.424703 0)
(1.33629 0.427435 0)
(1.33872 0.425768 0)
(1.3407 0.418696 0)
(1.34249 0.406619 0)
(1.34441 0.389725 0)
(1.34662 0.367913 0)
(1.34947 0.341193 0)
(1.35327 0.309722 0)
(1.35814 0.273833 0)
(1.36416 0.233981 0)
(1.37135 0.190795 0)
(1.37967 0.145051 0)
(1.38904 0.0976373 0)
(1.39931 0.0495716 0)
(1.41025 0.00195938 0)
(1.42165 -0.0444205 0)
(1.43331 -0.088927 0)
(1.445 -0.130969 0)
(1.45651 -0.170106 0)
(1.46765 -0.206022 0)
(1.47824 -0.2385 0)
(1.48813 -0.267418 0)
(1.49723 -0.292746 0)
(1.5055 -0.314506 0)
(1.51292 -0.332755 0)
(1.5195 -0.347588 0)
(1.52524 -0.359083 0)
(1.53015 -0.367396 0)
(1.53418 -0.372742 0)
(1.53754 -0.375256 0)
(1.54074 -0.374107 0)
(1.54359 -0.368318 0)
(1.54618 -0.357724 0)
(1.54863 -0.34219 0)
(1.55107 -0.321528 0)
(1.5536 -0.295604 0)
(1.55623 -0.264406 0)
(1.55896 -0.228086 0)
(1.56176 -0.186993 0)
(1.56456 -0.141676 0)
(1.56729 -0.0928867 0)
(1.56988 -0.0415921 0)
(1.57218 0.0109545 0)
(1.57403 0.0632051 0)
(1.5753 0.114073 0)
(1.57587 0.162675 0)
(1.57563 0.208263 0)
(1.57451 0.250257 0)
(1.57242 0.288241 0)
(1.56934 0.321969 0)
(1.56524 0.351333 0)
(1.56016 0.376333 0)
(1.55412 0.397039 0)
(1.54721 0.413569 0)
(1.53952 0.426052 0)
(1.53112 0.434589 0)
(1.52197 0.439161 0)
(1.51214 0.439626 0)
(1.50182 0.436029 0)
(1.49108 0.428442 0)
(1.48006 0.416877 0)
(1.4689 0.401339 0)
(1.45772 0.381838 0)
(1.44664 0.358403 0)
(1.43581 0.331098 0)
(1.42536 0.300036 0)
(1.41543 0.265422 0)
(1.40616 0.227552 0)
(1.39767 0.186816 0)
(1.39005 0.143717 0)
(1.38338 0.0988623 0)
(1.3777 0.0529612 0)
(1.37301 0.00693638 0)
(1.36928 -0.0384807 0)
(1.36644 -0.0826495 0)
(1.36443 -0.124959 0)
(1.36313 -0.164859 0)
(1.36244 -0.201855 0)
(1.36224 -0.235552 0)
(1.36241 -0.265628 0)
(1.36282 -0.291857 0)
(1.36337 -0.314062 0)
(1.36398 -0.332169 0)
(1.36462 -0.346152 0)
(1.36519 -0.356086 0)
(1.36564 -0.362149 0)
(1.36596 -0.364723 0)
(1.36618 -0.364582 0)
(1.36632 -0.359121 0)
(1.36647 -0.349302 0)
(1.36672 -0.335736 0)
(1.36715 -0.318674 0)
(0.339968 0.00124533 0)
(0.333748 0.00186984 0)
(0.326274 0.00277259 0)
(0.317352 0.00390829 0)
(0.306821 0.0051818 0)
(0.294586 0.00647686 0)
(0.280622 0.0076824 0)
(0.264996 0.00870673 0)
(0.247882 0.00950125 0)
(0.229531 0.0100614 0)
(0.21026 0.0103922 0)
(0.190457 0.010502 0)
(0.170572 0.0104134 0)
(0.151067 0.0101543 0)
(0.132362 0.00975133 0)
(0.114862 0.00925056 0)
(0.098754 0.00862296 0)
(0.0843269 0.00781632 0)
(0.0718175 0.00686592 0)
(0.0614565 0.00583694 0)
(0.0533843 0.00478516 0)
(0.0476426 0.00375263 0)
(0.0441671 0.00275291 0)
(0.0428666 0.00179263 0)
(0.0433588 0.000845999 0)
(0.0452298 8.60994e-05 0)
(0.0483885 -0.000546069 0)
(0.0526898 -0.00108954 0)
(0.0579998 -0.00155634 0)
(0.0642038 -0.00195364 0)
(0.0712039 -0.00228947 0)
(0.0789175 -0.00256927 0)
(0.0872739 -0.00279478 0)
(0.0962093 -0.00296042 0)
(0.105633 -0.00305992 0)
(0.115449 -0.00309732 0)
(0.125561 -0.00308136 0)
(0.135872 -0.00301744 0)
(0.146276 -0.00290903 0)
(0.156663 -0.00276061 0)
(0.166924 -0.00257865 0)
(0.176945 -0.00237113 0)
(0.186607 -0.00214954 0)
(0.19584 -0.00192537 0)
(0.204565 -0.00170712 0)
(0.21272 -0.00150275 0)
(0.220257 -0.00132052 0)
(0.227143 -0.00116821 0)
(0.233364 -0.00105158 0)
(0.238915 -0.000973718 0)
(0.243803 -0.000935548 0)
(0.248041 -0.000936773 0)
(0.25165 -0.000975122 0)
(0.254657 -0.00104459 0)
(0.257108 -0.00113109 0)
(0.25909 -0.0012133 0)
(0.260692 -0.00128747 0)
(0.261955 -0.00136607 0)
(0.262876 -0.00147268 0)
(0.263459 -0.00160112 0)
(0.263728 -0.00175574 0)
(0.263732 -0.00190598 0)
(0.263538 -0.00199463 0)
(0.263232 -0.00203863 0)
(0.262832 -0.00205887 0)
(0.262321 -0.00206202 0)
(0.261688 -0.002043 0)
(0.260953 -0.00200782 0)
(0.260149 -0.00196157 0)
(0.259326 -0.00190325 0)
(0.25855 -0.00183504 0)
(0.257883 -0.0017616 0)
(0.257381 -0.00168421 0)
(0.257089 -0.0016023 0)
(0.257035 -0.00151069 0)
(0.257235 -0.00143942 0)
(0.257663 -0.00140605 0)
(0.258271 -0.00137008 0)
(0.259013 -0.00131802 0)
(0.259817 -0.00123974 0)
(0.260572 -0.00112595 0)
(0.261139 -0.000964687 0)
(0.261363 -0.000724239 0)
(0.261031 -0.000411949 0)
(0.259907 -6.87762e-05 0)
(0.257758 0.000357553 0)
(0.254442 0.000923347 0)
(0.249901 0.0016604 0)
(0.244054 0.00255206 0)
(0.236806 0.00355537 0)
(0.228093 0.00460105 0)
(0.217909 0.00560645 0)
(0.206332 0.00649584 0)
(0.193525 0.00721748 0)
(0.179726 0.00774873 0)
(0.165226 0.0080884 0)
(0.150348 0.00824449 0)
(0.135435 0.00823517 0)
(0.120833 0.00809 0)
(0.106795 0.00782275 0)
(0.0935601 0.00741665 0)
(0.0813996 0.00685078 0)
(0.0705828 0.00613252 0)
(0.0613591 0.00526905 0)
(0.0539658 0.00428097 0)
(0.0486527 0.00319164 0)
(0.0456401 0.00203394 0)
(0.0449914 0.000766899 0)
(0.0465363 -0.000485429 0)
(0.050246 -0.00161305 0)
(0.0560878 -0.0026353 0)
(0.0638891 -0.0035207 0)
(0.0733975 -0.00425208 0)
(0.0843035 -0.00482081 0)
(0.0962615 -0.00522687 0)
(0.108913 -0.00547975 0)
(0.121909 -0.00559784 0)
(0.134933 -0.00560272 0)
(0.147709 -0.00551158 0)
(0.159988 -0.00534509 0)
(0.171576 -0.00512979 0)
(0.182354 -0.00488569 0)
(0.192231 -0.00462427 0)
(0.201165 -0.0043518 0)
(0.209144 -0.00407246 0)
(0.216197 -0.00379033 0)
(0.22237 -0.00350296 0)
(0.227708 -0.00320936 0)
(0.232265 -0.00291525 0)
(0.236102 -0.00262795 0)
(0.239282 -0.00235504 0)
(0.241874 -0.00210954 0)
(0.243921 -0.00188427 0)
(0.245459 -0.00166503 0)
(0.246532 -0.00142583 0)
(0.24718 -0.00116765 0)
(0.247443 -0.00091926 0)
(0.247365 -0.000660853 0)
(0.653966 0.0129164 0)
(0.639524 0.0152576 0)
(0.623548 0.0177274 0)
(0.605952 0.0202724 0)
(0.58676 0.022793 0)
(0.566116 0.0252447 0)
(0.544246 0.0275866 0)
(0.521453 0.0297138 0)
(0.498116 0.0315536 0)
(0.474572 0.0330418 0)
(0.451178 0.0340314 0)
(0.428265 0.0343612 0)
(0.406234 0.0339371 0)
(0.385537 0.0327315 0)
(0.366608 0.0307597 0)
(0.349843 0.0281183 0)
(0.335789 0.0249571 0)
(0.32471 0.0213975 0)
(0.316628 0.0175537 0)
(0.311449 0.0135307 0)
(0.30899 0.00942943 0)
(0.309026 0.00539372 0)
(0.311256 0.00172456 0)
(0.315146 -0.00147397 0)
(0.320532 -0.00431344 0)
(0.327411 -0.00679081 0)
(0.335472 -0.00895419 0)
(0.344546 -0.0108488 0)
(0.354512 -0.0125154 0)
(0.365256 -0.0139895 0)
(0.376681 -0.0152993 0)
(0.388706 -0.0164673 0)
(0.401265 -0.0175072 0)
(0.414299 -0.0184137 0)
(0.42777 -0.0191717 0)
(0.441662 -0.0197722 0)
(0.455937 -0.0202113 0)
(0.470547 -0.0204799 0)
(0.485429 -0.0205653 0)
(0.500502 -0.0204562 0)
(0.515679 -0.0201443 0)
(0.530848 -0.0196315 0)
(0.545901 -0.0189372 0)
(0.560728 -0.0180863 0)
(0.575214 -0.0170961 0)
(0.589245 -0.0159822 0)
(0.602711 -0.0147658 0)
(0.615511 -0.0134725 0)
(0.627555 -0.0121254 0)
(0.638764 -0.0107418 0)
(0.649063 -0.00933327 0)
(0.65839 -0.00790941 0)
(0.666687 -0.00648334 0)
(0.673921 -0.00507701 0)
(0.680085 -0.00376585 0)
(0.685205 -0.00270833 0)
(0.689286 -0.0018457 0)
(0.692367 -0.000998552 0)
(0.694473 -0.000115023 0)
(0.695639 0.00071978 0)
(0.696008 0.00151209 0)
(0.695514 0.00229439 0)
(0.694165 0.00276391 0)
(0.692033 0.00306915 0)
(0.68917 0.00334949 0)
(0.685634 0.00367175 0)
(0.681453 0.00394332 0)
(0.676637 0.0041264 0)
(0.671258 0.00419056 0)
(0.665454 0.00409342 0)
(0.659347 0.00382204 0)
(0.653034 0.00339455 0)
(0.646604 0.00283343 0)
(0.640138 0.00217008 0)
(0.633693 0.00148337 0)
(0.627278 0.000866624 0)
(0.620928 0.000315698 0)
(0.614644 -0.00013947 0)
(0.608392 -0.000447641 0)
(0.602117 -0.000552763 0)
(0.595731 -0.000397143 0)
(0.589117 7.90004e-05 0)
(0.582126 0.000948845 0)
(0.574571 0.0023022 0)
(0.566266 0.00423025 0)
(0.557084 0.0066317 0)
(0.546924 0.00904121 0)
(0.535691 0.0114146 0)
(0.523287 0.0137884 0)
(0.509637 0.0161388 0)
(0.494731 0.0184026 0)
(0.478667 0.0204925 0)
(0.461657 0.0223153 0)
(0.444001 0.0237926 0)
(0.426014 0.0248556 0)
(0.408038 0.0254322 0)
(0.390411 0.0254707 0)
(0.373453 0.0249476 0)
(0.357499 0.0238754 0)
(0.342966 0.022304 0)
(0.330254 0.0202835 0)
(0.319597 0.0178787 0)
(0.311091 0.0151328 0)
(0.304819 0.0121069 0)
(0.300771 0.00880234 0)
(0.298983 0.00521907 0)
(0.299437 0.00142254 0)
(0.302158 -0.00252336 0)
(0.307433 -0.00651918 0)
(0.315272 -0.0103501 0)
(0.325516 -0.0138802 0)
(0.337993 -0.0169925 0)
(0.352449 -0.0195839 0)
(0.36855 -0.0215782 0)
(0.385916 -0.0229355 0)
(0.404145 -0.0236549 0)
(0.422837 -0.0237743 0)
(0.441604 -0.0233614 0)
(0.460093 -0.0224888 0)
(0.478025 -0.0212317 0)
(0.495137 -0.0196787 0)
(0.511195 -0.0179161 0)
(0.52598 -0.0160219 0)
(0.539333 -0.0140805 0)
(0.55115 -0.0121804 0)
(0.561381 -0.0103984 0)
(0.570009 -0.00875466 0)
(0.577038 -0.00723987 0)
(0.582501 -0.00586906 0)
(0.586459 -0.00465562 0)
(0.589021 -0.00359241 0)
(0.590346 -0.00265538 0)
(0.590573 -0.00172954 0)
(0.589667 -0.000865936 0)
(0.587709 -0.000160695 0)
(0.584747 0.000391629 0)
(0.580872 0.000888123 0)
(0.576248 0.00144781 0)
(0.900646 0.0300629 0)
(0.883849 0.03315 0)
(0.866709 0.0367835 0)
(0.849067 0.0410122 0)
(0.830791 0.0456037 0)
(0.811752 0.0501917 0)
(0.791734 0.0544376 0)
(0.770678 0.0578136 0)
(0.748816 0.0599799 0)
(0.726651 0.0609329 0)
(0.704854 0.0607448 0)
(0.683965 0.0593821 0)
(0.664552 0.0567335 0)
(0.647152 0.0528414 0)
(0.632268 0.0478669 0)
(0.620285 0.0420124 0)
(0.611384 0.03551 0)
(0.605534 0.0286074 0)
(0.602593 0.0215051 0)
(0.602412 0.0144507 0)
(0.604758 0.00781625 0)
(0.609231 0.00181879 0)
(0.615495 -0.00353996 0)
(0.623284 -0.0081921 0)
(0.632262 -0.0121052 0)
(0.642107 -0.0154695 0)
(0.652571 -0.0184232 0)
(0.663485 -0.0210414 0)
(0.674687 -0.0233771 0)
(0.686038 -0.0254593 0)
(0.697402 -0.0273112 0)
(0.70873 -0.0289776 0)
(0.72002 -0.0304972 0)
(0.731309 -0.0318826 0)
(0.742656 -0.0331251 0)
(0.754129 -0.0342125 0)
(0.765785 -0.0351316 0)
(0.777664 -0.035853 0)
(0.78978 -0.0363396 0)
(0.802127 -0.0365687 0)
(0.814677 -0.0365255 0)
(0.827388 -0.0362002 0)
(0.840202 -0.0355897 0)
(0.853045 -0.0346967 0)
(0.865813 -0.0335316 0)
(0.878416 -0.0321073 0)
(0.890746 -0.0304524 0)
(0.9027 -0.0286118 0)
(0.914184 -0.0266229 0)
(0.92511 -0.0245132 0)
(0.935395 -0.0223069 0)
(0.944964 -0.0200342 0)
(0.953768 -0.0177355 0)
(0.961785 -0.0154548 0)
(0.969002 -0.0132304 0)
(0.975368 -0.0110774 0)
(0.980821 -0.00898983 0)
(0.985367 -0.00696074 0)
(0.989056 -0.00501932 0)
(0.991931 -0.00320824 0)
(0.994028 -0.00150697 0)
(0.995435 0.000116261 0)
(0.996249 0.00165719 0)
(0.996465 0.00315789 0)
(0.996045 0.00458629 0)
(0.995023 0.00592324 0)
(0.993454 0.00728202 0)
(0.991368 0.00860917 0)
(0.988757 0.00974336 0)
(0.985587 0.0106383 0)
(0.981829 0.0113376 0)
(0.977456 0.0118649 0)
(0.972431 0.0122454 0)
(0.966696 0.0125236 0)
(0.960161 0.0127313 0)
(0.952746 0.0128802 0)
(0.944399 0.0130061 0)
(0.935063 0.0131595 0)
(0.924685 0.0133955 0)
(0.913226 0.0137731 0)
(0.900679 0.0143547 0)
(0.88708 0.0151978 0)
(0.872528 0.0163377 0)
(0.857206 0.0177629 0)
(0.841416 0.0194202 0)
(0.825567 0.0212704 0)
(0.80985 0.0234005 0)
(0.794208 0.0259613 0)
(0.778573 0.0290333 0)
(0.762786 0.0325613 0)
(0.746633 0.0363295 0)
(0.729914 0.0399734 0)
(0.712545 0.0430826 0)
(0.694597 0.0453451 0)
(0.676339 0.0465943 0)
(0.658174 0.0467892 0)
(0.640443 0.0459766 0)
(0.623485 0.0442045 0)
(0.607618 0.0414935 0)
(0.593155 0.037913 0)
(0.580301 0.0335807 0)
(0.56923 0.028669 0)
(0.560059 0.0233408 0)
(0.552868 0.0176837 0)
(0.547792 0.0117524 0)
(0.544989 0.00546604 0)
(0.544611 -0.00119565 0)
(0.546781 -0.00795889 0)
(0.551529 -0.0146942 0)
(0.558812 -0.0212992 0)
(0.568483 -0.0275494 0)
(0.580335 -0.0331992 0)
(0.594091 -0.0380426 0)
(0.609418 -0.041933 0)
(0.625945 -0.0447906 0)
(0.643295 -0.0465931 0)
(0.661113 -0.0473731 0)
(0.679085 -0.0472174 0)
(0.696912 -0.046242 0)
(0.714388 -0.0445603 0)
(0.731327 -0.042276 0)
(0.747579 -0.0394903 0)
(0.76305 -0.0363123 0)
(0.777662 -0.0328518 0)
(0.791377 -0.0291983 0)
(0.804206 -0.025426 0)
(0.81614 -0.0216039 0)
(0.827079 -0.0177847 0)
(0.836876 -0.0140148 0)
(0.845399 -0.0104028 0)
(0.852546 -0.007073 0)
(0.858255 -0.00416514 0)
(0.862372 -0.00136805 0)
(0.864962 0.00121982 0)
(0.866022 0.00381471 0)
(0.865384 0.0064473 0)
(0.863015 0.00880295 0)
(0.858956 0.0104997 0)
(1.14009 0.0509547 0)
(1.12771 0.0550509 0)
(1.11263 0.059444 0)
(1.09562 0.0635798 0)
(1.07766 0.0674292 0)
(1.05967 0.0711325 0)
(1.04176 0.0747974 0)
(1.0242 0.0780933 0)
(1.00752 0.0805864 0)
(0.991788 0.0818157 0)
(0.976775 0.0814021 0)
(0.962358 0.0792434 0)
(0.948725 0.0753658 0)
(0.936184 0.0696404 0)
(0.925042 0.0620342 0)
(0.91558 0.0529294 0)
(0.907979 0.0429113 0)
(0.902384 0.0325764 0)
(0.898858 0.0223046 0)
(0.897421 0.0122746 0)
(0.898117 0.00267596 0)
(0.900913 -0.00627308 0)
(0.905573 -0.0141615 0)
(0.911834 -0.020759 0)
(0.919389 -0.0259118 0)
(0.927975 -0.0300682 0)
(0.937272 -0.0334796 0)
(0.946986 -0.0361754 0)
(0.956868 -0.0382414 0)
(0.966685 -0.0397894 0)
(0.976326 -0.0409687 0)
(0.985701 -0.0419432 0)
(0.994771 -0.0428461 0)
(1.00355 -0.0437564 0)
(1.01212 -0.0446986 0)
(1.02056 -0.045656 0)
(1.02898 -0.0465905 0)
(1.03745 -0.0474479 0)
(1.04601 -0.0481566 0)
(1.05471 -0.0486358 0)
(1.0636 -0.0488114 0)
(1.07271 -0.0486374 0)
(1.08206 -0.0481108 0)
(1.09166 -0.0472356 0)
(1.10148 -0.0460253 0)
(1.11145 -0.0444905 0)
(1.12148 -0.0426159 0)
(1.13145 -0.0404366 0)
(1.1413 -0.0380004 0)
(1.15096 -0.0353329 0)
(1.16034 -0.0324528 0)
(1.16935 -0.0293998 0)
(1.17787 -0.026237 0)
(1.18585 -0.023021 0)
(1.19319 -0.0198028 0)
(1.19983 -0.0166402 0)
(1.20571 -0.0135711 0)
(1.2108 -0.0106031 0)
(1.2151 -0.00774424 0)
(1.2186 -0.00502344 0)
(1.22129 -0.002493 0)
(1.22319 -0.000213539 0)
(1.22435 0.00180196 0)
(1.22482 0.00367193 0)
(1.22461 0.00548539 0)
(1.22377 0.00719444 0)
(1.22237 0.0087776 0)
(1.2205 0.0102265 0)
(1.21823 0.0115359 0)
(1.21553 0.0127011 0)
(1.21235 0.0137283 0)
(1.20868 0.0146485 0)
(1.20451 0.0155189 0)
(1.19988 0.0164099 0)
(1.19476 0.0173871 0)
(1.18909 0.0185064 0)
(1.18285 0.0198095 0)
(1.17601 0.0213305 0)
(1.16851 0.0231016 0)
(1.1603 0.0251468 0)
(1.15133 0.0274762 0)
(1.14152 0.0300813 0)
(1.13081 0.0329252 0)
(1.11911 0.0359307 0)
(1.10631 0.0389887 0)
(1.09227 0.0420086 0)
(1.07688 0.0449677 0)
(1.0602 0.0479149 0)
(1.0424 0.0509089 0)
(1.02381 0.0539876 0)
(1.00484 0.0571243 0)
(0.985948 0.0601543 0)
(0.967392 0.0628093 0)
(0.949312 0.0647763 0)
(0.93182 0.0657695 0)
(0.914988 0.0656335 0)
(0.898858 0.0643494 0)
(0.883532 0.0618554 0)
(0.869175 0.0580503 0)
(0.856012 0.0530376 0)
(0.844279 0.0470384 0)
(0.834206 0.0402932 0)
(0.826 0.0330221 0)
(0.819832 0.0253297 0)
(0.815854 0.0171084 0)
(0.814175 0.00828735 0)
(0.81489 -0.00105154 0)
(0.818097 -0.0106966 0)
(0.823707 -0.0203132 0)
(0.831505 -0.0295936 0)
(0.841249 -0.0382396 0)
(0.852644 -0.0459549 0)
(0.865334 -0.0524659 0)
(0.878942 -0.0575692 0)
(0.893075 -0.0611682 0)
(0.907361 -0.0632851 0)
(0.921499 -0.0640381 0)
(0.935241 -0.0636018 0)
(0.948414 -0.0621566 0)
(0.960878 -0.0598859 0)
(0.972524 -0.0569698 0)
(0.983293 -0.0535556 0)
(0.993152 -0.0497735 0)
(1.0021 -0.0457725 0)
(1.0102 -0.0417522 0)
(1.01759 -0.0379518 0)
(1.02437 -0.0342165 0)
(1.03053 -0.0303008 0)
(1.03621 -0.0262911 0)
(1.04143 -0.0222042 0)
(1.04622 -0.0180328 0)
(1.0505 -0.0137525 0)
(1.05422 -0.00936462 0)
(1.05734 -0.00494586 0)
(1.05979 -0.00055152 0)
(1.06161 0.00373775 0)
(1.0628 0.00789168 0)
(1.06314 0.0120009 0)
(1.2931 0.0530068 0)
(1.29474 0.0617677 0)
(1.29451 0.06994 0)
(1.29261 0.0772289 0)
(1.2893 0.0832742 0)
(1.28461 0.0883254 0)
(1.27847 0.093463 0)
(1.27111 0.0964392 0)
(1.26367 0.0971856 0)
(1.25707 0.0967071 0)
(1.25132 0.0953336 0)
(1.24636 0.0925656 0)
(1.24225 0.0874168 0)
(1.23871 0.0803869 0)
(1.23565 0.0716938 0)
(1.23311 0.0616004 0)
(1.23114 0.0504754 0)
(1.22982 0.0386959 0)
(1.22931 0.0266346 0)
(1.22962 0.0147027 0)
(1.23056 0.00323956 0)
(1.23205 -0.00724235 0)
(1.2339 -0.0163726 0)
(1.23565 -0.02404 0)
(1.2372 -0.030364 0)
(1.23866 -0.0355115 0)
(1.24003 -0.0396106 0)
(1.24125 -0.0428212 0)
(1.24232 -0.0452967 0)
(1.2433 -0.0471538 0)
(1.24423 -0.0485285 0)
(1.24509 -0.0495774 0)
(1.24593 -0.0504475 0)
(1.24677 -0.0512599 0)
(1.24766 -0.0520863 0)
(1.24866 -0.0529647 0)
(1.24983 -0.0538882 0)
(1.25129 -0.054743 0)
(1.25315 -0.0554459 0)
(1.25552 -0.0560133 0)
(1.25842 -0.0564161 0)
(1.26188 -0.0566372 0)
(1.26589 -0.0566305 0)
(1.27043 -0.0563051 0)
(1.27552 -0.0555942 0)
(1.28115 -0.0543896 0)
(1.28726 -0.0527121 0)
(1.29374 -0.0506648 0)
(1.30053 -0.0483068 0)
(1.30762 -0.0456604 0)
(1.31492 -0.0427011 0)