/*--------------------------------*- C++ -*----------------------------------*\
| =========                 |                                                 |
| \\      /  F ield         | OpenFOAM: The Open Source CFD Toolbox           |
|  \\    /   O peration     | Version:  2206                                  |
|   \\  /    A nd           | Website:  www.openfoam.com                      |
|    \\/     M anipulation  |                                                 |
\*---------------------------------------------------------------------------*/
FoamFile
{
    version     2.0;
    format      ascii;
    arch        "LSB;label=32;scalar=64";
    class       volVectorField;
    location    "19.8999";
    object      ddt0(U);
}
// * * * * * * * * * * * * * * * * * * * * * * * * * * * * * * * * * * * * * //

dimensions      [0 1 -2 0 0 0 0];

internalField   nonuniform List<vector> 
3063
(
(24.7456 -10.4478 0)
(25.6235 -15.948 0)
(25.6512 -20.8977 0)
(24.9135 -25.4124 0)
(23.5361 -29.5828 0)
(21.6421 -33.4418 0)
(19.3319 -36.9544 0)
(16.6842 -40.0264 0)
(13.7582 -42.5053 0)
(10.5864 -44.1377 0)
(7.26446 -44.6459 0)
(3.97735 -44.2184 0)
(0.797903 -42.8385 0)
(-2.2049 -40.5325 0)
(-4.95797 -37.3686 0)
(-7.39752 -33.4592 0)
(-9.48291 -28.9525 0)
(-11.2005 -24.0086 0)
(-12.5676 -18.7599 0)
(-13.7597 -13.2383 0)
(-15.1361 -7.24348 0)
(-16.1934 -0.657015 0)
(-17.0596 6.10501 0)
(-17.6873 12.9539 0)
(-17.9682 19.6711 0)
(-17.9613 26.0488 0)
(-17.6991 31.9282 0)
(-17.1796 37.1356 0)
(-16.3793 41.4608 0)
(-15.2197 44.6138 0)
(-13.4703 46.0582 0)
(-11.1804 45.7002 0)
(-8.59775 44.0033 0)
(-5.71868 41.0876 0)
(-2.61731 37.3379 0)
(0.462636 33.0066 0)
(3.34203 28.0915 0)
(6.05549 22.787 0)
(8.68258 17.3375 0)
(11.4776 11.752 0)
(14.1926 5.91164 0)
(16.3459 0.376095 0)
(18.0701 -4.65648 0)
(19.1547 -9.27695 0)
(19.5967 -13.4804 0)
(19.4283 -17.2918 0)
(18.7121 -20.7507 0)
(17.5347 -23.8888 0)
(15.9773 -26.705 0)
(14.1108 -29.1593 0)
(11.9922 -31.1704 0)
(9.65565 -32.5962 0)
(7.15105 -33.2045 0)
(4.6387 -33.1264 0)
(2.18299 -32.355 0)
(-0.169454 -30.9035 0)
(-2.36619 -28.8109 0)
(-4.35901 -26.1483 0)
(-6.11431 -23.0119 0)
(-7.61722 -19.5099 0)
(-8.86709 -15.737 0)
(-9.93224 -11.738 0)
(-11.0653 -7.43078 0)
(-12.1494 -2.68758 0)
(-12.9728 2.26705 0)
(-13.6833 7.31956 0)
(-14.1321 12.3578 0)
(-14.328 17.2084 0)
(-14.2904 21.7321 0)
(-14.0144 25.797 0)
(-13.482 29.2513 0)
(-12.6453 31.8996 0)
(-11.3607 33.4296 0)
(-9.58813 33.6048 0)
(-7.56657 32.8197 0)
(-5.409 31.1827 0)
(-2.9678 28.88 0)
(-0.76136 26.007 0)
(1.03852 22.5989 0)
(3.85368 18.8121 0)
(5.73663 14.9578 0)
(7.75248 11.0239 0)
(9.92734 6.86773 0)
(11.663 2.62371 0)
(13.1349 -1.29153 0)
(14.1882 -4.96449 0)
(14.7702 -8.38292 0)
(14.8928 -11.518 0)
(14.5835 -14.3668 0)
(13.8946 -16.9364 0)
(12.8849 -19.2264 0)
(11.6093 -21.2172 0)
(10.1159 -22.8659 0)
(8.43561 -24.0947 0)
(6.58896 -24.7348 0)
(4.69735 -24.8511 0)
(2.8294 -24.4649 0)
(1.01607 -23.5814 0)
(-0.706125 -22.2209 0)
(-2.29971 -20.4246 0)
(-3.7346 -18.2527 0)
(-4.99206 -15.7784 0)
(-6.06483 -13.0759 0)
(-6.9644 -10.2003 0)
(-7.80839 -7.15015 0)
(-8.75495 -3.82425 0)
(-9.46058 -0.229144 0)
(-10.1102 3.43305 0)
(-10.5938 7.14364 0)
(-10.8645 10.7826 0)
(-10.9341 14.2297 0)
(-10.8041 17.3893 0)
(-10.4661 20.1623 0)
(-9.90398 22.4375 0)
(-9.06734 24.07 0)
(-7.86254 24.8175 0)
(-6.3717 24.717 0)
(-4.775 24.0562 0)
(-3.00141 22.7226 0)
(-1.26567 21.0473 0)
(0.680599 18.7157 0)
(2.05302 16.8021 0)
(4.66345 12.3047 0)
(28.4638 -11.5946 0)
(28.901 -16.1958 0)
(28.4622 -20.3233 0)
(27.2609 -24.1398 0)
(25.4426 -27.7438 0)
(23.1424 -31.1512 0)
(20.4656 -34.3008 0)
(17.4853 -37.073 0)
(14.2511 -39.304 0)
(10.7956 -40.7303 0)
(7.24322 -41.2213 0)
(3.73756 -40.8579 0)
(0.33985 -39.62 0)
(-2.8819 -37.5281 0)
(-5.85872 -34.6435 0)
(-8.53575 -31.0633 0)
(-10.8811 -26.906 0)
(-12.8878 -22.2852 0)
(-14.6014 -17.2715 0)
(-16.2297 -11.8411 0)
(-17.8373 -5.89682 0)
(-19.0117 0.420001 0)
(-20.0087 6.88617 0)
(-20.6731 13.4187 0)
(-20.9771 19.8151 0)
(-20.9468 25.8896 0)
(-20.5854 31.4704 0)
(-19.8754 36.3606 0)
(-18.7596 40.3065 0)
(-17.0735 42.9437 0)
(-14.5858 43.6405 0)
(-11.6777 42.9539 0)
(-8.5317 40.9476 0)
(-4.9644 37.8121 0)
(-1.61297 34.0791 0)
(1.55806 29.8919 0)
(5.2456 24.9823 0)
(8.353 19.8078 0)
(11.6866 14.437 0)
(14.937 8.81478 0)
(17.5559 3.38287 0)
(19.693 -1.4958 0)
(21.1425 -5.91844 0)
(21.8943 -9.88754 0)
(21.9823 -13.4471 0)
(21.4507 -16.6742 0)
(20.3791 -19.633 0)
(18.8619 -22.3576 0)
(16.9871 -24.8388 0)
(14.8278 -27.0232 0)
(12.4325 -28.8118 0)
(9.83096 -30.0275 0)
(7.13223 -30.5976 0)
(4.4442 -30.5424 0)
(1.81262 -29.8505 0)
(-0.713739 -28.5315 0)
(-3.08322 -26.6209 0)
(-5.2523 -24.1797 0)
(-7.19316 -21.2852 0)
(-8.89614 -18.0156 0)
(-10.382 -14.4259 0)
(-11.7706 -10.5188 0)
(-13.1861 -6.24083 0)
(-14.2825 -1.63792 0)
(-15.2543 3.08554 0)
(-15.9998 7.90699 0)
(-16.4649 12.6884 0)
(-16.6524 17.2774 0)
(-16.5562 21.5366 0)
(-16.1591 25.3196 0)
(-15.4222 28.449 0)
(-14.2404 30.6856 0)
(-12.4298 31.6122 0)
(-10.2132 31.491 0)
(-7.74577 30.486 0)
(-5.14283 28.724 0)
(-2.44881 26.3912 0)
(0.337342 23.5324 0)
(3.03736 20.1242 0)
(5.52127 16.4618 0)
(7.92465 12.748 0)
(10.4239 8.83842 0)
(12.5455 4.78061 0)
(14.3182 1.02976 0)
(15.6365 -2.45152 0)
(16.4484 -5.66783 0)
(16.7686 -8.60719 0)
(16.6152 -11.2861 0)
(16.0277 -13.7275 0)
(15.0658 -15.9494 0)
(13.794 -17.9516 0)
(12.2697 -19.7076 0)
(10.5338 -21.1619 0)
(8.61304 -22.2043 0)
(6.58552 -22.7749 0)
(4.54539 -22.8918 0)
(2.53216 -22.5452 0)
(0.579441 -21.7391 0)
(-1.27617 -20.4923 0)
(-3.00099 -18.8416 0)
(-4.56975 -16.8378 0)
(-5.96902 -14.5372 0)
(-7.2 -11.9886 0)
(-8.30881 -9.21527 0)
(-9.41224 -6.1947 0)
(-10.4266 -2.91202 0)
(-11.2342 0.506985 0)
(-11.9265 4.00392 0)
(-12.4116 7.52183 0)
(-12.6736 10.948 0)
(-12.7054 14.1776 0)
(-12.4928 17.1096 0)
(-12.0146 19.6347 0)
(-11.2301 21.6247 0)
(-10.0362 22.8773 0)
(-8.43565 23.2751 0)
(-6.59765 22.991 0)
(-4.65267 22.2005 0)
(-2.51398 20.77 0)
(-0.52839 19.0886 0)
(1.73664 16.8504 0)
(3.34354 14.8834 0)
(6.32631 10.5145 0)
(31.6302 -12.2768 0)
(31.5254 -15.9576 0)
(30.5481 -19.2687 0)
(28.8508 -22.4019 0)
(26.6001 -25.4685 0)
(23.9359 -28.4663 0)
(20.953 -31.2992 0)
(17.708 -33.8179 0)
(14.2381 -35.8371 0)
(10.5797 -37.1014 0)
(6.87915 -37.6034 0)
(3.22105 -37.3118 0)
(-0.333948 -36.2147 0)
(-3.71977 -34.3304 0)
(-6.87454 -31.7114 0)
(-9.75324 -28.4357 0)
(-12.3321 -24.5896 0)
(-14.6165 -20.244 0)
(-16.6898 -15.4292 0)
(-18.6787 -10.1293 0)
(-20.3491 -4.38694 0)
(-21.6957 1.58637 0)
(-22.76 7.73048 0)
(-23.4468 13.9122 0)
(-23.7493 19.9457 0)
(-23.661 25.6554 0)
(-23.1592 30.852 0)
(-22.1938 35.2987 0)
(-20.6387 38.6739 0)
(-18.2255 40.4448 0)
(-15.1063 40.6479 0)
(-11.63 39.591 0)
(-7.91946 37.3824 0)
(-3.36145 34.349 0)
(-1.12294 30.4817 0)
(3.87574 26.179 0)
(7.58293 21.3237 0)
(11.3329 16.3282 0)
(15.1425 10.9944 0)
(18.2895 5.7515 0)
(20.8684 1.06672 0)
(22.7046 -3.13633 0)
(23.7794 -6.85235 0)
(24.1344 -10.1246 0)
(23.8125 -13.0421 0)
(22.8834 -15.6962 0)
(21.4448 -18.1701 0)
(19.6004 -20.5027 0)
(17.436 -22.6735 0)
(15.021 -24.6103 0)
(12.3989 -26.1793 0)
(9.63648 -27.2758 0)
(6.81863 -27.8293 0)
(4.00798 -27.8055 0)
(1.25289 -27.1951 0)
(-1.39861 -26.0067 0)
(-3.90099 -24.2717 0)
(-6.21893 -22.0385 0)
(-8.33223 -19.3626 0)
(-10.2416 -16.2916 0)
(-11.9967 -12.8502 0)
(-13.6841 -9.03998 0)
(-15.1689 -4.88638 0)
(-16.3978 -0.537293 0)
(-17.4334 3.95668 0)
(-18.1926 8.51854 0)
(-18.6545 13.0112 0)
(-18.8019 17.2981 0)
(-18.6099 21.2346 0)
(-18.0378 24.6534 0)
(-16.99 27.3386 0)
(-15.2643 28.9184 0)
(-12.952 29.3736 0)
(-10.2986 28.9445 0)
(-7.39992 27.7305 0)
(-4.35462 25.8528 0)
(-1.24321 23.4381 0)
(1.84172 20.5768 0)
(4.80485 17.3457 0)
(7.68377 13.8728 0)
(10.558 10.2021 0)
(13.0335 6.38102 0)
(15.143 2.84679 0)
(16.7468 -0.413497 0)
(17.8001 -3.40017 0)
(18.3267 -6.10125 0)
(18.3485 -8.54846 0)
(17.8967 -10.779 0)
(17.0207 -12.8235 0)
(15.7856 -14.7077 0)
(14.2614 -16.4329 0)
(12.5084 -17.9611 0)
(10.565 -19.2105 0)
(8.49481 -20.135 0)
(6.35955 -20.675 0)
(4.21272 -20.799 0)
(2.09153 -20.4973 0)
(0.0314228 -19.7715 0)
(-1.93322 -18.6388 0)
(-3.77391 -17.1298 0)
(-5.47152 -15.2826 0)
(-7.01923 -13.1344 0)
(-8.43489 -10.7114 0)
(-9.7764 -8.02308 0)
(-11.041 -5.07724 0)
(-12.0743 -1.94614 0)
(-12.9736 1.28273 0)
(-13.676 4.59289 0)
(-14.15 7.8918 0)
(-14.377 11.0773 0)
(-14.3336 14.0479 0)
(-13.9904 16.6945 0)
(-13.2991 18.8966 0)
(-12.1679 20.4873 0)
(-10.5127 21.2383 0)
(-8.56693 21.3908 0)
(-6.39171 20.9246 0)
(-4.11632 20.0048 0)
(-1.68551 18.5195 0)
(0.523665 16.8971 0)
(3.08924 14.672 0)
(4.93591 12.6766 0)
(8.17035 8.54927 0)
(34.0262 -12.3745 0)
(33.1939 -15.0977 0)
(31.62 -17.6357 0)
(29.5106 -20.2017 0)
(26.9562 -22.8464 0)
(24.038 -25.5176 0)
(20.8288 -28.0832 0)
(17.3845 -30.3596 0)
(13.7505 -32.1676 0)
(9.99791 -33.3653 0)
(6.20951 -33.8658 0)
(2.45441 -33.6397 0)
(-1.20766 -32.6748 0)
(-4.71591 -30.9848 0)
(-8.01698 -28.6088 0)
(-11.0735 -25.6012 0)
(-13.871 -22.0177 0)
(-16.4362 -17.9024 0)
(-18.8336 -13.2844 0)
(-20.9745 -8.20235 0)
(-22.7177 -2.79841 0)
(-24.1816 2.82978 0)
(-25.2745 8.61855 0)
(-25.9649 14.4084 0)
(-26.2338 20.0279 0)
(-26.0521 25.2949 0)
(-25.366 29.9928 0)
(-24.0554 33.842 0)
(-21.8642 36.3893 0)
(-18.7439 37.3419 0)
(-15.0783 37.0432 0)
(-11.0689 35.6251 0)
(-6.57535 33.3657 0)
(-2.40923 30.3397 0)
(1.88288 26.474 0)
(6.34814 21.9517 0)
(10.6259 17.3176 0)
(14.8743 12.3532 0)
(18.5576 7.40622 0)
(21.61 2.9755 0)
(23.8329 -0.966454 0)
(25.2276 -4.40505 0)
(25.8313 -7.36586 0)
(25.694 -9.9283 0)
(24.8455 -12.1833 0)
(23.5055 -14.3002 0)
(21.7638 -16.3545 0)
(19.6845 -18.3561 0)
(17.3298 -20.2663 0)
(14.7525 -21.9953 0)
(12.0084 -23.4258 0)
(9.15957 -24.4436 0)
(6.26335 -24.9701 0)
(3.36977 -24.9739 0)
(0.526181 -24.4409 0)
(-2.22251 -23.3756 0)
(-4.83712 -21.7992 0)
(-7.28946 -19.7431 0)
(-9.56958 -17.243 0)
(-11.6953 -14.3323 0)
(-13.705 -11.0341 0)
(-15.5201 -7.37278 0)
(-17.062 -3.46288 0)
(-18.3981 0.629025 0)
(-19.4601 4.86509 0)
(-20.2206 9.13029 0)
(-20.6523 13.2983 0)
(-20.7207 17.2306 0)
(-20.3762 20.7677 0)
(-19.5178 23.7062 0)
(-17.9286 25.6955 0)
(-15.6109 26.6049 0)
(-12.8403 26.6639 0)
(-9.73339 25.9391 0)
(-6.41364 24.543 0)
(-2.99792 22.5902 0)
(0.405785 20.1784 0)
(3.73078 17.3876 0)
(7.03177 14.2956 0)
(10.2963 10.9031 0)
(13.1403 7.36586 0)
(15.5809 4.11351 0)
(17.4672 1.11904 0)
(18.7619 -1.60607 0)
(19.4918 -4.04599 0)
(19.6799 -6.22637 0)
(19.3586 -8.18462 0)
(18.5463 -9.95098 0)
(17.3818 -11.6114 0)
(15.9287 -13.1938 0)
(14.2335 -14.6797 0)
(12.3401 -16.0203 0)
(10.2942 -17.1489 0)
(8.14414 -17.9929 0)
(5.93752 -18.4947 0)
(3.71491 -18.622 0)
(1.51516 -18.3622 0)
(-0.628254 -17.7134 0)
(-2.68516 -16.6866 0)
(-4.63167 -15.3014 0)
(-6.45502 -13.5826 0)
(-8.15898 -11.557 0)
(-9.76706 -9.24502 0)
(-11.2678 -6.66279 0)
(-12.5498 -3.86362 0)
(-13.6789 -0.942826 0)
(-14.6109 2.09329 0)
(-15.3122 5.17898 0)
(-15.7544 8.22389 0)
(-15.9071 11.1298 0)
(-15.7331 13.7879 0)
(-15.1704 16.0781 0)
(-14.1122 17.8234 0)
(-12.4706 18.8287 0)
(-10.4604 19.2664 0)
(-8.17988 19.1622 0)
(-5.69633 18.5349 0)
(-3.14344 17.5174 0)
(-0.506786 16.0386 0)
(1.93832 14.4781 0)
(4.73381 12.2026 0)
(6.79808 10.2649 0)
(10.0827 6.51734 0)
(35.1786 -11.6381 0)
(33.7475 -13.5937 0)
(31.7519 -15.5913 0)
(29.3085 -17.7164 0)
(26.506 -19.9824 0)
(23.4087 -22.3412 0)
(20.0648 -24.6615 0)
(16.5236 -26.7572 0)
(12.8348 -28.4411 0)
(9.05092 -29.5669 0)
(5.22906 -30.0644 0)
(1.42731 -29.8956 0)
(-2.2977 -29.0445 0)
(-5.89297 -27.518 0)
(-9.3142 -25.3438 0)
(-12.5314 -22.5599 0)
(-15.5411 -19.2066 0)
(-18.3561 -15.3217 0)
(-20.8931 -10.9416 0)
(-23.0603 -6.18634 0)
(-24.9266 -1.15272 0)
(-26.4267 4.12199 0)
(-27.5277 9.51359 0)
(-28.199 14.8721 0)
(-28.4027 20.0294 0)
(-28.0789 24.7795 0)
(-27.0976 28.853 0)
(-25.1813 31.8174 0)
(-22.1728 33.3148 0)
(-18.4542 33.6624 0)
(-14.191 32.9055 0)
(-9.62232 31.2004 0)
(-4.88952 28.7738 0)
(-0.0343587 25.6565 0)
(4.80283 21.8304 0)
(9.69388 17.5438 0)
(14.3678 12.8543 0)
(18.4951 8.28349 0)
(21.9692 4.18448 0)
(24.5484 0.557766 0)
(26.224 -2.54807 0)
(27.0422 -5.14375 0)
(27.0069 -7.29465 0)
(26.2497 -9.14395 0)
(25.0256 -10.8871 0)
(23.4032 -12.6118 0)
(21.4527 -14.3406 0)
(19.2234 -16.0626 0)
(16.7541 -17.7385 0)
(14.0894 -19.287 0)
(11.2824 -20.591 0)
(8.38736 -21.5361 0)
(5.44849 -22.0425 0)
(2.50816 -22.0712 0)
(-0.392216 -21.6036 0)
(-3.21398 -20.6394 0)
(-5.92408 -19.1938 0)
(-8.50403 -17.2894 0)
(-10.956 -14.9524 0)
(-13.274 -12.2002 0)
(-15.3634 -9.05099 0)
(-17.2301 -5.6336 0)
(-18.8693 -1.99136 0)
(-20.2388 1.84357 0)
(-21.3077 5.78126 0)
(-22.0418 9.71128 0)
(-22.3986 13.5087 0)
(-22.3164 17.0189 0)
(-21.6755 20.0367 0)
(-20.2314 22.21 0)
(-17.9814 23.4144 0)
(-15.1831 23.8317 0)
(-11.9528 23.4972 0)
(-8.43926 22.5179 0)
(-4.78661 20.9961 0)
(-1.12578 19.0163 0)
(2.48679 16.6592 0)
(6.13786 13.9865 0)
(9.72491 10.9191 0)
(12.9066 7.72118 0)
(15.6447 4.79068 0)
(17.7786 2.10619 0)
(19.2864 -0.312203 0)
(20.1926 -2.44976 0)
(20.5238 -4.32079 0)
(20.2721 -5.94829 0)
(19.5557 -7.41612 0)
(18.5114 -8.82431 0)
(17.183 -10.2065 0)
(15.609 -11.5544 0)
(13.8236 -12.8395 0)
(11.861 -14.0153 0)
(9.76027 -15.0185 0)
(7.56346 -15.7826 0)
(5.31096 -16.2491 0)
(3.04015 -16.3804 0)
(0.785646 -16.1559 0)
(-1.42283 -15.5692 0)
(-3.55923 -14.6277 0)
(-5.60614 -13.3475 0)
(-7.56104 -11.748 0)
(-9.42023 -9.84269 0)
(-11.1288 -7.63838 0)
(-12.6548 -5.21243 0)
(-14.0147 -2.63024 0)
(-15.1701 0.0973006 0)
(-16.0962 2.9127 0)
(-16.762 5.73746 0)
(-17.1267 8.48542 0)
(-17.1398 11.0562 0)
(-16.7211 13.3184 0)
(-15.73 15.0682 0)
(-14.1374 16.197 0)
(-12.1282 16.8236 0)
(-9.78462 16.9529 0)
(-7.20733 16.6282 0)
(-4.48829 15.8837 0)
(-1.74838 14.8177 0)
(1.02045 13.3663 0)
(3.70645 11.8184 0)
(6.61894 9.57763 0)
(8.79482 7.76866 0)
(11.8637 4.55806 0)
(35.1463 -10.241 0)
(33.2184 -11.6391 0)
(30.8698 -13.1964 0)
(28.2036 -14.9697 0)
(25.2695 -16.9517 0)
(22.0987 -19.0724 0)
(18.7217 -21.1958 0)
(15.1759 -23.1343 0)
(11.5035 -24.7016 0)
(7.74232 -25.7593 0)
(3.93779 -26.2393 0)
(0.137539 -26.1047 0)
(-3.60964 -25.3421 0)
(-7.26337 -23.9558 0)
(-10.7908 -21.9627 0)
(-14.159 -19.3832 0)
(-17.3219 -16.2366 0)
(-20.1829 -12.5694 0)
(-22.76 -8.52622 0)
(-25.0122 -4.1413 0)
(-26.9064 0.546546 0)
(-28.4167 5.43277 0)
(-29.5047 10.3926 0)
(-30.1211 15.2797 0)
(-30.1883 19.9025 0)
(-29.548 23.9936 0)
(-27.8769 27.0973 0)
(-25.0364 28.9056 0)
(-21.3831 29.6573 0)
(-17.0642 29.3834 0)
(-12.2886 28.2102 0)
(-7.26703 26.2899 0)
(-2.14979 23.7234 0)
(3.04476 20.5946 0)
(8.44721 16.8958 0)
(13.5623 12.5282 0)
(18.1362 8.36777 0)
(21.9486 4.66755 0)
(24.8162 1.43148 0)
(26.7184 -1.28025 0)
(27.6969 -3.46017 0)
(27.7296 -5.17323 0)
(27.0711 -6.6067 0)
(25.9387 -7.95591 0)
(24.4285 -9.3199 0)
(22.6167 -10.7287 0)
(20.5445 -12.1815 0)
(18.2378 -13.662 0)
(15.7215 -15.1355 0)
(13.0308 -16.5301 0)
(10.2126 -17.7297 0)
(7.31449 -18.6103 0)
(4.37344 -19.0882 0)
(1.42489 -19.1242 0)
(-1.5035 -18.7066 0)
(-4.38531 -17.8346 0)
(-7.19204 -16.5101 0)
(-9.89146 -14.7338 0)
(-12.4205 -12.5012 0)
(-14.7786 -9.91401 0)
(-16.9375 -7.02639 0)
(-18.861 -3.86247 0)
(-20.5235 -0.470446 0)
(-21.8939 3.07112 0)
(-22.9294 6.66989 0)
(-23.5749 10.2181 0)
(-23.7545 13.5746 0)
(-23.3261 16.5141 0)
(-21.9977 18.6708 0)
(-19.8586 20.0139 0)
(-17.0924 20.6403 0)
(-13.8166 20.5775 0)
(-10.1942 19.921 0)
(-6.39241 18.7718 0)
(-2.56288 17.1986 0)
(1.23963 15.2663 0)
(5.13694 12.9981 0)
(8.94102 10.2495 0)
(12.3862 7.45625 0)
(15.3396 4.89046 0)
(17.6532 2.55357 0)
(19.3147 0.484511 0)
(20.3504 -1.30699 0)
(20.7918 -2.8341 0)
(20.6088 -4.1196 0)
(20.0181 -5.28641 0)
(19.1041 -6.42658 0)
(17.9156 -7.56713 0)
(16.4907 -8.70699 0)
(14.855 -9.83718 0)
(13.0317 -10.9362 0)
(11.0476 -11.9619 0)
(8.93497 -12.8535 0)
(6.73033 -13.5433 0)
(4.46828 -13.9695 0)
(2.18338 -14.0917 0)
(-0.0974708 -13.8887 0)
(-2.35521 -13.3591 0)
(-4.57165 -12.5031 0)
(-6.72078 -11.3169 0)
(-8.75201 -9.79128 0)
(-10.6537 -7.99427 0)
(-12.4078 -5.97616 0)
(-13.9818 -3.75736 0)
(-15.3509 -1.36739 0)
(-16.4899 1.13715 0)
(-17.3628 3.68893 0)
(-17.9213 6.21105 0)
(-18.1017 8.60605 0)
(-17.81 10.7275 0)
(-16.8608 12.3603 0)
(-15.3492 13.5071 0)
(-13.3798 14.2103 0)
(-11.0356 14.479 0)
(-8.41927 14.3469 0)
(-5.64292 13.8641 0)
(-2.81007 13.0566 0)
(0.0249515 11.9897 0)
(2.90261 10.5722 0)
(5.74436 8.9956 0)
(8.56458 6.94606 0)
(10.6462 5.37857 0)
(13.2378 2.84277 0)
(33.7415 -8.32654 0)
(31.4766 -9.32494 0)
(28.95 -10.5878 0)
(26.2107 -12.1182 0)
(23.2753 -13.8777 0)
(20.1487 -15.7945 0)
(16.8415 -17.7443 0)
(13.3794 -19.5443 0)
(9.79725 -21.0049 0)
(6.12224 -21.994 0)
(2.38336 -22.4543 0)
(-1.38812 -22.3479 0)
(-5.14309 -21.6521 0)
(-8.82477 -20.3482 0)
(-12.3866 -18.4611 0)
(-15.7904 -16.0429 0)
(-18.9845 -13.1511 0)
(-21.904 -9.83104 0)
(-24.5036 -6.11931 0)
(-26.7605 -2.06269 0)
(-28.6548 2.2535 0)
(-30.1443 6.72139 0)
(-31.1646 11.2132 0)
(-31.6143 15.5582 0)
(-31.2991 19.4665 0)
(-29.8176 22.4503 0)
(-27.1614 24.3528 0)
(-23.593 25.3103 0)
(-19.253 25.3489 0)
(-14.3603 24.559 0)
(-9.17753 23.0846 0)
(-3.901 21.0083 0)
(1.51224 18.4452 0)
(7.21112 15.2411 0)
(12.6392 11.3575 0)
(17.5413 7.70177 0)
(21.5738 4.44758 0)
(24.5983 1.66597 0)
(26.6165 -0.586552 0)
(27.6717 -2.30442 0)
(27.7296 -3.55677 0)
(27.1408 -4.55522 0)
(26.0943 -5.49996 0)
(24.6987 -6.49444 0)
(23.031 -7.5717 0)
(21.1354 -8.73431 0)
(19.0324 -9.96471 0)
(16.7316 -11.2372 0)
(14.2448 -12.5248 0)
(11.5978 -13.7738 0)
(8.83166 -14.8755 0)
(5.98717 -15.6975 0)
(3.08981 -16.1472 0)
(0.15151 -16.1957 0)
(-2.80501 -15.8074 0)
(-5.72013 -14.9638 0)
(-8.55685 -13.7073 0)
(-11.2827 -12.0559 0)
(-13.859 -10.0317 0)
(-16.2475 -7.66193 0)
(-18.42 -4.98605 0)
(-20.3461 -2.06081 0)
(-21.9865 1.04509 0)
(-23.2921 4.25173 0)
(-24.195 7.4653 0)
(-24.5921 10.5452 0)
(-24.325 13.2552 0)
(-23.0556 15.2441 0)
(-21.0349 16.588 0)
(-18.3259 17.2901 0)
(-15.0588 17.3763 0)
(-11.4076 16.9334 0)
(-7.56274 16.0691 0)
(-3.68847 14.8454 0)
(0.189247 13.3238 0)
(4.22328 11.4486 0)
(8.10573 9.0098 0)
(11.6677 6.64093 0)
(14.6944 4.4679 0)
(17.0699 2.5119 0)
(18.7871 0.820817 0)
(19.8744 -0.599675 0)
(20.3756 -1.76736 0)
(20.2657 -2.71507 0)
(19.7947 -3.5739 0)
(19.0184 -4.42909 0)
(17.987 -5.30864 0)
(16.7364 -6.21739 0)
(15.2877 -7.15081 0)
(13.6558 -8.09592 0)
(11.8559 -9.03019 0)
(9.9075 -9.91637 0)
(7.83622 -10.7001 0)
(5.67155 -11.3166 0)
(3.44221 -11.7021 0)
(1.17316 -11.8133 0)
(-1.12889 -11.6274 0)
(-3.4314 -11.1094 0)
(-5.68363 -10.275 0)
(-7.85765 -9.16451 0)
(-9.91957 -7.78819 0)
(-11.8379 -6.16249 0)
(-13.5873 -4.31423 0)
(-15.1401 -2.28348 0)
(-16.4603 -0.12148 0)
(-17.5033 2.11326 0)
(-18.2133 4.349 0)
(-18.5135 6.48154 0)
(-18.2817 8.35689 0)
(-17.3654 9.80886 0)
(-15.9342 10.881 0)
(-14.0256 11.57 0)
(-11.7252 11.8847 0)
(-9.13977 11.8646 0)
(-6.38704 11.5564 0)
(-3.57633 10.9944 0)
(-0.745926 10.1925 0)
(2.18223 9.1568 0)
(5.06003 7.68346 0)
(7.71629 6.18351 0)
(10.2231 4.55995 0)
(11.9854 3.33646 0)
(13.9211 1.50898 0)
(30.9331 -6.08297 0)
(28.5638 -6.85135 0)
(26.0542 -7.93632 0)
(23.4117 -9.30222 0)
(20.6198 -10.8911 0)
(17.6596 -12.6342 0)
(14.5249 -14.4259 0)
(11.2302 -16.0952 0)
(7.8017 -17.4478 0)
(4.25098 -18.3551 0)
(0.602999 -18.7319 0)
(-3.08713 -18.5841 0)
(-6.77927 -17.9113 0)
(-10.4282 -16.7082 0)
(-13.9794 -14.9804 0)
(-17.3817 -12.7602 0)
(-20.5779 -10.1087 0)
(-23.4954 -7.07479 0)
(-26.076 -3.68176 0)
(-28.2975 0.0206821 0)
(-30.1324 3.93904 0)
(-31.503 7.94961 0)
(-32.2604 11.8779 0)
(-32.1704 15.4092 0)
(-30.7485 18.0699 0)
(-28.2427 19.8808 0)
(-24.739 20.8495 0)
(-20.4013 21.0022 0)
(-15.4756 20.4329 0)
(-10.2631 19.2816 0)
(-4.97676 17.6563 0)
(0.542814 15.6323 0)
(6.36321 12.8122 0)
(11.8835 9.46166 0)
(16.8409 6.37696 0)
(20.8708 3.64026 0)
(23.8565 1.36111 0)
(25.8145 -0.387359 0)
(26.8091 -1.61148 0)
(26.812 -2.39968 0)
(26.2634 -2.9737 0)
(25.2993 -3.52694 0)
(24.0299 -4.1539 0)
(22.5314 -4.89369 0)
(20.846 -5.7587 0)
(18.9923 -6.73381 0)
(16.9707 -7.78446 0)
(14.7732 -8.87877 0)
(12.3992 -10.0009 0)
(9.865 -11.119 0)
(7.20394 -12.1286 0)
(4.4514 -12.8792 0)
(1.60624 -13.2729 0)
(-1.31933 -13.2316 0)
(-4.25908 -12.8311 0)
(-7.15527 -12.0661 0)
(-9.96594 -10.9238 0)
(-12.6632 -9.40841 0)
(-15.2152 -7.54101 0)
(-17.5821 -5.36295 0)
(-19.7183 -2.92576 0)
(-21.5722 -0.288881 0)
(-23.0808 2.47896 0)
(-24.1607 5.28878 0)
(-24.6898 7.97927 0)
(-24.4358 10.3017 0)
(-23.2258 12.0462 0)
(-21.2711 13.255 0)
(-18.6215 13.9146 0)
(-15.4044 14.0431 0)
(-11.8045 13.7246 0)
(-8.03074 13.0725 0)
(-4.25379 12.1456 0)
(-0.445264 10.9977 0)
(3.54358 9.43102 0)
(7.36708 7.37347 0)
(10.8414 5.42979 0)
(13.7488 3.66021 0)
(16.0125 2.1007 0)
(17.641 0.794383 0)
(18.6684 -0.258398 0)
(19.1519 -1.08033 0)
(19.0878 -1.71443 0)
(18.7206 -2.28019 0)
(18.0879 -2.85822 0)
(17.2338 -3.47804 0)
(16.1879 -4.14902 0)
(14.9657 -4.86969 0)
(13.5756 -5.62762 0)
(12.0232 -6.40686 0)
(10.3152 -7.18928 0)
(8.46349 -7.94336 0)
(6.48782 -8.61657 0)
(4.41119 -9.14417 0)
(2.25059 -9.46538 0)
(0.00534095 -9.52862 0)
(-2.28922 -9.28077 0)
(-4.57594 -8.79631 0)
(-6.80499 -8.06479 0)
(-8.94217 -7.07117 0)
(-10.9613 -5.81991 0)
(-12.8298 -4.34099 0)
(-14.5067 -2.67862 0)
(-15.9441 -0.880323 0)
(-17.0874 1.00079 0)
(-17.873 2.8967 0)
(-18.2181 4.69666 0)
(-17.9497 6.24705 0)
(-17.0789 7.47719 0)
(-15.7037 8.39779 0)
(-13.8676 9.00313 0)
(-11.652 9.30028 0)
(-9.16594 9.32839 0)
(-6.53224 9.13511 0)
(-3.86109 8.7537 0)
(-1.16028 8.20299 0)
(1.66655 7.3894 0)
(4.43432 6.19508 0)
(7.01233 4.98783 0)
(9.24108 3.83972 0)
(11.1739 2.64846 0)
(12.4649 1.80372 0)
(13.6729 0.62692 0)
(26.7809 -3.78579 0)
(24.5809 -4.45205 0)
(22.3177 -5.44281 0)
(19.9582 -6.69098 0)
(17.4585 -8.1264 0)
(14.7823 -9.69284 0)
(11.9112 -11.3105 0)
(8.85 -12.8229 0)
(5.60628 -14.0345 0)
(2.19177 -14.7944 0)
(-1.31249 -15.12 0)
(-4.86144 -14.9659 0)
(-8.44068 -14.2936 0)
(-12.0052 -13.1314 0)
(-15.4935 -11.4973 0)
(-18.86 -9.43422 0)
(-22.0338 -7.03015 0)
(-24.9019 -4.33927 0)
(-27.3825 -1.3309 0)
(-29.4492 1.9853 0)
(-31.0341 5.47125 0)
(-31.9476 8.8649 0)
(-31.8274 11.818 0)
(-30.3952 14.0492 0)
(-27.8975 15.5892 0)
(-24.3849 16.4093 0)
(-20.0491 16.5279 0)
(-15.178 16.062 0)
(-10.1098 15.1456 0)
(-4.9934 13.9476 0)
(0.4869 12.4011 0)
(6.14023 9.8156 0)
(11.4656 7.07253 0)
(16.1208 4.59714 0)
(19.8133 2.44306 0)
(22.4739 0.717227 0)
(24.1376 -0.505623 0)
(24.8601 -1.24231 0)
(24.7448 -1.60841 0)
(24.1919 -1.81187 0)
(23.3085 -2.02106 0)
(22.1929 -2.31592 0)
(20.9087 -2.74058 0)
(19.4867 -3.31703 0)
(17.9362 -4.03667 0)
(16.2508 -4.86364 0)
(14.4129 -5.75043 0)
(12.4042 -6.6626 0)
(10.2204 -7.5999 0)
(7.87503 -8.56135 0)
(5.38677 -9.45499 0)
(2.75118 -10.1091 0)
(-0.0327163 -10.365 0)
(-2.88754 -10.3183 0)
(-5.74802 -9.96587 0)
(-8.56666 -9.26904 0)
(-11.3068 -8.21629 0)
(-13.9301 -6.82004 0)
(-16.3913 -5.11653 0)
(-18.6337 -3.15642 0)
(-20.59 -0.993637 0)
(-22.1802 1.30731 0)
(-23.3015 3.64436 0)
(-23.8153 5.84935 0)
(-23.419 7.69599 0)
(-22.2102 9.11719 0)
(-20.2691 10.0989 0)
(-17.6723 10.628 0)
(-14.5562 10.7302 0)
(-11.1139 10.4805 0)
(-7.56306 9.98045 0)
(-4.06328 9.3116 0)
(-0.48492 8.50355 0)
(3.26873 7.17592 0)
(6.79248 5.52186 0)
(9.92832 4.01849 0)
(12.4902 2.66583 0)
(14.4406 1.50396 0)
(15.8099 0.568115 0)
(16.6463 -0.145564 0)
(17.0038 -0.662679 0)
(16.9378 -1.03385 0)
(16.6388 -1.35547 0)
(16.1419 -1.69665 0)
(15.4783 -2.08408 0)
(14.6664 -2.53107 0)
(13.7125 -3.04205 0)
(12.6149 -3.60828 0)
(11.3674 -4.21188 0)
(9.96597 -4.83497 0)
(8.41516 -5.46482 0)
(6.72856 -6.08363 0)
(4.92106 -6.64694 0)
(2.9955 -7.08588 0)
(0.928773 -7.3323 0)
(-1.26264 -7.28522 0)
(-3.49672 -7.04073 0)
(-5.69824 -6.58618 0)
(-7.81649 -5.90467 0)
(-9.81931 -5.00005 0)
(-11.6786 -3.88966 0)
(-13.3567 -2.60731 0)
(-14.7976 -1.19407 0)
(-15.933 0.303073 0)
(-16.6877 1.81003 0)
(-16.9686 3.21978 0)
(-16.6121 4.41053 0)
(-15.7686 5.37448 0)
(-14.4482 6.10418 0)
(-12.7103 6.58784 0)
(-10.6406 6.83209 0)
(-8.34671 6.87231 0)
(-5.95284 6.75459 0)
(-3.5584 6.51995 0)
(-1.11053 6.18352 0)
(1.46891 5.54583 0)
(3.95917 4.61227 0)
(6.23028 3.72642 0)
(8.19112 2.87129 0)
(9.7725 2.07697 0)
(11.0091 1.3322 0)
(11.7882 0.857543 0)
(12.3335 0.186085 0)
(21.4722 -1.74861 0)
(19.7305 -2.3926 0)
(17.9444 -3.32139 0)
(16.0468 -4.45354 0)
(13.9753 -5.71976 0)
(11.6861 -7.08119 0)
(9.15406 -8.48904 0)
(6.35888 -9.80614 0)
(3.28042 -10.8187 0)
(0.0555363 -11.4289 0)
(-3.19307 -11.6644 0)
(-6.61144 -11.4294 0)
(-10.0247 -10.7559 0)
(-13.4551 -9.66988 0)
(-16.8145 -8.15497 0)
(-20.0952 -6.24246 0)
(-23.2143 -4.07717 0)
(-25.9129 -1.72786 0)
(-27.9912 0.915792 0)
(-29.4351 3.74607 0)
(-30.1661 6.43788 0)
(-29.6942 8.66584 0)
(-28.1358 10.3531 0)
(-25.5114 11.4929 0)
(-21.9516 12.042 0)
(-17.695 12.0515 0)
(-13.0707 11.6319 0)
(-8.41836 10.9622 0)
(-3.68656 10.1914 0)
(1.52167 8.85368 0)
(6.63969 6.64462 0)
(11.3265 4.5588 0)
(15.2318 2.72652 0)
(18.1866 1.18551 0)
(20.1892 0.0322825 0)
(21.3092 -0.679391 0)
(21.578 -0.993189 0)
(21.3014 -1.03938 0)
(20.7071 -0.978354 0)
(19.901 -0.9328 0)
(18.9606 -0.968161 0)
(17.9291 -1.12955 0)
(16.8245 -1.44539 0)
(15.6458 -1.9172 0)
(14.3758 -2.521 0)
(12.9865 -3.21473 0)
(11.4446 -3.95089 0)
(9.72119 -4.70001 0)
(7.80949 -5.4737 0)
(5.71861 -6.28568 0)
(3.42262 -7.04023 0)
(0.87431 -7.49448 0)
(-1.80725 -7.62124 0)
(-4.52793 -7.51309 0)
(-7.23012 -7.13943 0)
(-9.86392 -6.48152 0)
(-12.3838 -5.53238 0)
(-14.7482 -4.3011 0)
(-16.9069 -2.82392 0)
(-18.7809 -1.15765 0)
(-20.2647 0.632092 0)
(-21.2353 2.42576 0)
(-21.4941 4.06165 0)
(-20.9 5.39942 0)
(-19.6245 6.42408 0)
(-17.6942 7.13103 0)
(-15.2087 7.49887 0)
(-12.3189 7.55075 0)
(-9.2174 7.3579 0)
(-6.11102 7.01101 0)
(-3.08179 6.60581 0)
(0.112387 6.07135 0)
(3.32752 4.90092 0)
(6.2811 3.71013 0)
(8.8061 2.65637 0)
(10.7884 1.71969 0)
(12.2373 0.933798 0)
(13.2022 0.327364 0)
(13.7443 -0.103826 0)
(13.9075 -0.386787 0)
(13.8097 -0.574137 0)
(13.5568 -0.732104 0)
(13.1791 -0.906894 0)
(12.6966 -1.11976 0)
(12.1159 -1.3852 0)
(11.4331 -1.71173 0)
(10.6389 -2.09613 0)
(9.72251 -2.52517 0)
(8.67713 -2.98357 0)
(7.49636 -3.46282 0)
(6.17334 -3.9579 0)
(4.71461 -4.44784 0)
(3.1365 -4.87046 0)
(1.41113 -5.14765 0)
(-0.497479 -5.18014 0)
(-2.4917 -5.04933 0)
(-4.49107 -4.83383 0)
(-6.44199 -4.49 0)
(-8.29949 -3.96875 0)
(-10.016 -3.23482 0)
(-11.5468 -2.29504 0)
(-12.8383 -1.22131 0)
(-13.8195 -0.0975127 0)
(-14.4175 1.00348 0)
(-14.5046 2.00023 0)
(-14.0923 2.84227 0)
(-13.2604 3.53116 0)
(-12.0345 4.06116 0)
(-10.4731 4.41411 0)
(-8.65894 4.59692 0)
(-6.69498 4.64386 0)
(-4.69277 4.59754 0)
(-2.7108 4.5003 0)
(-0.642883 4.32257 0)
(1.50252 3.78256 0)
(3.52421 3.14113 0)
(5.3333 2.54782 0)
(6.81998 1.98565 0)
(8.05099 1.46257 0)
(8.90575 1.02145 0)
(9.48591 0.64997 0)
(9.83865 0.438177 0)
(9.91844 0.08464 0)
(15.3898 -0.291799 0)
(14.2858 -0.922793 0)
(13.098 -1.76252 0)
(11.7463 -2.7313 0)
(10.1678 -3.77035 0)
(8.34195 -4.85711 0)
(6.2642 -5.94501 0)
(3.82525 -6.94987 0)
(0.943475 -7.67321 0)
(-2.07201 -8.30509 0)
(-5.09527 -8.55482 0)
(-8.18255 -8.19085 0)
(-11.3635 -7.41627 0)
(-14.5022 -6.34189 0)
(-17.485 -4.82935 0)
(-20.3488 -2.87069 0)
(-22.9787 -1.03774 0)
(-24.9175 0.344291 0)
(-25.9183 1.9828 0)
(-25.9573 4.01821 0)
(-25.11 5.73844 0)
(-23.2881 6.91386 0)
(-20.5054 7.66779 0)
(-17.0528 7.86948 0)
(-13.1709 7.78675 0)
(-9.1988 7.49349 0)
(-5.30064 7.16311 0)
(-1.08408 6.72965 0)
(3.2891 5.30535 0)
(7.35016 3.75048 0)
(10.8594 2.38565 0)
(13.5692 1.20729 0)
(15.4485 0.266772 0)
(16.5653 -0.355984 0)
(16.9666 -0.652142 0)
(16.8211 -0.683773 0)
(16.4007 -0.554363 0)
(15.8034 -0.365422 0)
(15.1158 -0.185742 0)
(14.3897 -0.0669822 0)
(13.6466 -0.0559004 0)
(12.8877 -0.185177 0)
(12.0972 -0.46296 0)
(11.2465 -0.873355 0)
(10.301 -1.3801 0)
(9.22838 -1.93469 0)
(8.00147 -2.48985 0)
(6.60797 -3.02172 0)
(5.06678 -3.5531 0)
(3.38145 -4.11702 0)
(1.39402 -4.6179 0)
(-0.88568 -4.82415 0)
(-3.26148 -4.93293 0)
(-5.66874 -4.89832 0)
(-8.04324 -4.65647 0)
(-10.3116 -4.16046 0)
(-12.4022 -3.38281 0)
(-14.2553 -2.3258 0)
(-15.8027 -1.08013 0)
(-16.935 0.207082 0)
(-17.5176 1.42985 0)
(-17.3366 2.48961 0)
(-16.5869 3.35554 0)
(-15.2774 4.01462 0)
(-13.4717 4.47082 0)
(-11.2915 4.70433 0)
(-8.88374 4.73633 0)
(-6.40022 4.63506 0)
(-3.9903 4.47449 0)
(-1.6032 4.31742 0)
(0.944646 3.82546 0)
(3.33381 2.99637 0)
(5.44563 2.26294 0)
(7.13974 1.62509 0)
(8.39128 1.05958 0)
(9.24449 0.593519 0)
(9.75429 0.24591 0)
(9.97003 0.00957648 0)
(9.95505 -0.136836 0)
(9.82675 -0.230081 0)
(9.61942 -0.306627 0)
(9.35933 -0.389332 0)
(9.05679 -0.493011 0)
(8.70917 -0.632373 0)
(8.30507 -0.817687 0)
(7.82837 -1.05133 0)
(7.26124 -1.32929 0)
(6.58954 -1.64346 0)
(5.80061 -1.97982 0)
(4.87902 -2.3191 0)
(3.8159 -2.65957 0)
(2.6124 -3.02222 0)
(1.25995 -3.36117 0)
(-0.211243 -3.50065 0)
(-1.63453 -3.48706 0)
(-3.01508 -3.35769 0)
(-4.43779 -3.10797 0)
(-5.92002 -2.73961 0)
(-7.41214 -2.26511 0)
(-8.80687 -1.69933 0)
(-9.93634 -1.04851 0)
(-10.6565 -0.345288 0)
(-11.0192 0.348989 0)
(-10.9248 0.97338 0)
(-10.4956 1.51427 0)
(-9.74698 1.9723 0)
(-8.72095 2.33423 0)
(-7.47171 2.5867 0)
(-6.06751 2.73562 0)
(-4.59164 2.81028 0)
(-3.12254 2.84515 0)
(-1.65869 2.86336 0)
(-0.0940164 2.74017 0)
(1.44744 2.36116 0)
(2.86352 1.9945 0)
(4.07418 1.65834 0)
(5.05172 1.33353 0)
(5.78951 1.03522 0)
(6.35548 0.784197 0)
(6.65874 0.602315 0)
(6.82964 0.446699 0)
(6.92494 0.365886 0)
(6.81231 0.168736 0)
(9.3035 0.457775 0)
(8.79689 -0.0967886 0)
(8.15208 -0.779041 0)
(7.29857 -1.52534 0)
(6.19745 -2.29696 0)
(4.85618 -3.12105 0)
(3.13841 -4.03639 0)
(1.26655 -4.63068 0)
(-0.683679 -5.04337 0)
(-2.91334 -5.28923 0)
(-6.33911 -5.31915 0)
(-9.47516 -5.05309 0)
(-11.9054 -4.44161 0)
(-14.3456 -3.53945 0)
(-16.4169 -2.41916 0)
(-17.9489 -1.12216 0)
(-17.4314 0.199244 0)
(-17.5194 1.39652 0)
(-18.916 2.39759 0)
(-17.8488 3.12014 0)
(-15.9208 3.72729 0)
(-13.4814 4.0435 0)
(-10.6652 3.96244 0)
(-7.60299 4.19528 0)
(-4.75039 4.11812 0)
(-1.82018 4.16695 0)
(1.34153 3.47578 0)
(4.27134 2.57091 0)
(6.83567 1.75916 0)
(8.82478 1.07701 0)
(10.197 0.474915 0)
(11.0082 0.0106889 0)
(11.3073 -0.25966 0)
(11.2009 -0.340916 0)
(10.8933 -0.279572 0)