/*--------------------------------*- C++ -*----------------------------------*\
| =========                 |                                                 |
| \\      /  F ield         | OpenFOAM: The Open Source CFD Toolbox           |
|  \\    /   O peration     | Version:  2206                                  |
|   \\  /    A nd           | Website:  www.openfoam.com                      |
|    \\/     M anipulation  |                                                 |
\*---------------------------------------------------------------------------*/
FoamFile
{
    version     2.0;
    format      ascii;
    arch        "LSB;label=32;scalar=64";
    class       surfaceScalarField;
    location    "18.2001";
    object      ddtCorrDdt0(phi);
}
// * * * * * * * * * * * * * * * * * * * * * * * * * * * * * * * * * * * * * //

dimensions      [0 3 -2 0 0 0 0];

oriented        oriented;

internalField   nonuniform List<scalar> 
3579
(
9.78942e-12
-1.72287e-10
1.63761e-10
3.64941e-11
-5.01916e-10
4.76224e-10
7.94247e-11
-8.23078e-10
7.81111e-10
1.37332e-10
-1.11007e-09
1.0532e-09
2.08769e-10
-1.35439e-09
1.28424e-09
2.9122e-10
-1.55689e-09
1.47514e-09
3.83328e-10
-1.71603e-09
1.62472e-09
4.82813e-10
-1.82852e-09
1.73014e-09
5.87218e-10
-1.89459e-09
1.79107e-09
6.93482e-10
-1.91807e-09
1.81116e-09
8.00865e-10
-1.90399e-09
1.79663e-09
9.07603e-10
-1.86224e-09
1.75505e-09
1.01336e-09
-1.80128e-09
1.69635e-09
1.11611e-09
-1.7335e-09
1.63047e-09
1.21667e-09
-1.6705e-09
1.56981e-09
1.31537e-09
-1.62414e-09
1.52584e-09
1.41436e-09
-1.60633e-09
1.5092e-09
1.51385e-09
-1.6298e-09
1.53011e-09
1.61848e-09
-1.70349e-09
1.59969e-09
1.72924e-09
-1.83771e-09
1.7261e-09
1.85161e-09
-2.03993e-09
1.91782e-09
1.98881e-09
-2.31798e-09
2.18102e-09
2.14647e-09
-2.6772e-09
2.52113e-09
2.32757e-09
-3.12341e-09
2.94148e-09
2.53994e-09
-3.65728e-09
3.44585e-09
2.78712e-09
-4.2809e-09
4.03434e-09
3.07604e-09
-4.99408e-09
4.70698e-09
3.40827e-09
-5.79634e-09
5.46363e-09
3.79935e-09
-6.69257e-09
6.30312e-09
4.24679e-09
-7.68025e-09
7.23232e-09
4.75773e-09
-8.75526e-09
8.24569e-09
5.34399e-09
-9.93017e-09
9.34535e-09
6.00317e-09
-1.11962e-08
1.05403e-08
6.74882e-09
-1.25744e-08
1.18282e-08
7.58126e-09
-1.40617e-08
1.3231e-08
8.51317e-09
-1.56787e-08
1.47457e-08
9.55184e-09
-1.74369e-08
1.6402e-08
1.07058e-08
-1.93538e-08
1.82039e-08
1.19859e-08
-2.14601e-08
2.01823e-08
1.33905e-08
-2.3766e-08
2.23609e-08
1.49552e-08
-2.6326e-08
2.47604e-08
1.66703e-08
-2.91455e-08
2.74342e-08
1.85809e-08
-3.2293e-08
3.03852e-08
2.06806e-08
-3.57885e-08
3.36934e-08
2.30073e-08
-3.96882e-08
3.73645e-08
2.55812e-08
-4.4057e-08
4.14825e-08
2.84231e-08
-4.89224e-08
4.6084e-08
3.15868e-08
-5.43939e-08
5.12311e-08
3.50734e-08
-6.04842e-08
5.70029e-08
3.89755e-08
-6.73321e-08
6.3439e-08
4.32639e-08
-7.49452e-08
7.06629e-08
4.80807e-08
-8.34899e-08
7.86812e-08
5.33934e-08
-9.29955e-08
8.76873e-08
5.93308e-08
-1.03611e-07
9.76718e-08
6.59526e-08
-1.15479e-07
1.08857e-07
7.32745e-08
-1.28632e-07
1.21308e-07
8.15256e-08
-1.43399e-07
1.35152e-07
9.05978e-08
-1.59726e-07
1.50657e-07
1.00799e-07
-1.77968e-07
1.67772e-07
1.12119e-07
-1.98279e-07
1.86957e-07
1.24688e-07
-2.20748e-07
2.08182e-07
1.38793e-07
-2.45961e-07
2.31853e-07
1.54382e-07
-2.73763e-07
2.58178e-07
1.71819e-07
-3.04835e-07
2.87401e-07
1.91341e-07
-3.39295e-07
3.19781e-07
2.12908e-07
-3.77534e-07
3.55966e-07
2.3681e-07
-4.19734e-07
3.95836e-07
2.635e-07
-4.66513e-07
4.39819e-07
2.92176e-07
-5.18844e-07
4.90169e-07
3.24346e-07
-5.77646e-07
5.45477e-07
3.60019e-07
-6.42257e-07
6.06589e-07
3.99401e-07
-7.14627e-07
6.7524e-07
4.43067e-07
-7.94597e-07
7.5093e-07
4.9146e-07
-8.83494e-07
8.35094e-07
5.45177e-07
-9.82404e-07
9.28685e-07
6.04859e-07
-1.09221e-06
1.03252e-06
6.71186e-07
-1.2138e-06
1.14748e-06
7.44929e-07
-1.34858e-06
1.27483e-06
8.26964e-07
-1.49811e-06
1.41608e-06
9.18266e-07
-1.66411e-06
1.57281e-06
1.01989e-06
-1.84845e-06
1.74684e-06
1.13298e-06
-2.05324e-06
1.94015e-06
1.25878e-06
-2.28082e-06
2.15503e-06
1.39863e-06
-2.53379e-06
2.39393e-06
1.55414e-06
-2.81495e-06
2.65944e-06
1.72724e-06
-3.12742e-06
2.95431e-06
1.92026e-06
-3.47464e-06
3.28162e-06
2.13594e-06
-3.8606e-06
3.64491e-06
2.37775e-06
-4.29002e-06
4.0482e-06
2.64949e-06
-4.76859e-06
4.49684e-06
2.95515e-06
-5.30287e-06
4.99719e-06
3.29926e-06
-5.90106e-06
5.55692e-06
3.68685e-06
-6.57324e-06
6.18563e-06
4.12291e-06
-7.33242e-06
6.89633e-06
4.61153e-06
-8.19622e-06
7.70759e-06
5.15116e-06
-9.18877e-06
8.64913e-06
5.7371e-06
-1.03454e-05
9.75945e-06
6.33978e-06
-1.17287e-05
1.11261e-05
6.91712e-06
-1.34328e-05
1.28554e-05
6.99702e-06
-1.56264e-05
1.55465e-05
6.19304e-06
-1.84442e-05
1.92482e-05
-2.30697e-05
2.92627e-05
9.07239e-12
-1.80634e-10
3.03794e-11
-5.2288e-10
6.43305e-11
-8.56008e-10
1.09468e-10
-1.15481e-09
1.659e-10
-1.41019e-09
2.31008e-10
-1.62238e-09
3.04838e-10
-1.78901e-09
3.83646e-10
-1.90715e-09
4.66511e-10
-1.97737e-09
5.50701e-10
-2.00234e-09
6.3537e-10
-1.98978e-09
7.20059e-10
-1.94641e-09
8.03039e-10
-1.88399e-09
8.84446e-10
-1.81375e-09
9.63971e-10
-1.74931e-09
1.04339e-09
-1.7008e-09
1.12103e-09
-1.6842e-09
1.19979e-09
-1.70779e-09
1.28079e-09
-1.78538e-09
1.36877e-09
-1.92433e-09
1.46561e-09
-2.13601e-09
1.57588e-09
-2.42516e-09
1.70019e-09
-2.80212e-09
1.84423e-09
-3.26665e-09
2.01212e-09
-3.8254e-09
2.20954e-09
-4.47596e-09
2.43811e-09
-5.22341e-09
2.70323e-09
-6.0603e-09
3.01185e-09
-7.00201e-09
3.36555e-09
-8.03191e-09
3.77333e-09
-9.16165e-09
4.23798e-09
-1.03904e-08
4.76039e-09
-1.17185e-08
5.35013e-09
-1.31629e-08
6.00666e-09
-1.47187e-08
6.74448e-09
-1.64163e-08
7.56716e-09
-1.82539e-08
8.48004e-09
-2.02641e-08
9.48821e-09
-2.24658e-08
1.06024e-08
-2.48806e-08
1.18339e-08
-2.75576e-08
1.3193e-08
-3.05043e-08
1.46997e-08
-3.37999e-08
1.63515e-08
-3.74409e-08
1.81952e-08
-4.15344e-08
2.02174e-08
-4.60766e-08
2.24781e-08
-5.11821e-08
2.49674e-08
-5.68791e-08
2.77385e-08
-6.32502e-08
3.08044e-08
-7.03973e-08
3.42115e-08
-7.8346e-08
3.80049e-08
-8.72825e-08
4.22036e-08
-9.71928e-08
4.69145e-08
-1.08324e-07
5.20987e-08
-1.2067e-07
5.79472e-08
-1.34478e-07
6.44016e-08
-1.49852e-07
7.16118e-08
-1.66928e-07
7.96671e-08
-1.86025e-07
8.85348e-08
-2.07143e-07
9.85491e-08
-2.30765e-07
1.09544e-07
-2.56951e-07
1.219e-07
-2.86116e-07
1.35606e-07
-3.1853e-07
1.51024e-07
-3.54714e-07
1.68048e-07
-3.94555e-07
1.87477e-07
-4.39167e-07
2.08791e-07
-4.87822e-07
2.3134e-07
-5.41391e-07
2.57031e-07
-6.03327e-07
2.8525e-07
-6.70481e-07
3.16353e-07
-7.45729e-07
3.50654e-07
-8.28905e-07
3.88368e-07
-9.21204e-07
4.30499e-07
-1.02454e-06
4.77482e-07
-1.13918e-06
5.29763e-07
-1.26608e-06
5.88003e-07
-1.40681e-06
6.52864e-07
-1.56296e-06
7.2507e-07
-1.73629e-06
8.0541e-07
-1.92879e-06
8.94796e-07
-2.14262e-06
9.9423e-07
-2.38025e-06
1.10484e-06
-2.64439e-06
1.22793e-06
-2.93804e-06
1.36506e-06
-3.26452e-06
1.51803e-06
-3.62762e-06
1.68905e-06
-4.03162e-06
1.88053e-06
-4.4815e-06
2.09494e-06
-4.98301e-06
2.33509e-06
-5.54303e-06
2.60364e-06
-6.16961e-06
2.90272e-06
-6.87231e-06
3.233e-06
-7.66269e-06
3.5921e-06
-8.55532e-06
3.96902e-06
-9.56567e-06
4.34312e-06
-1.07195e-05
4.65781e-06
-1.20434e-05
4.80141e-06
-1.35764e-05
4.50096e-06
-1.5326e-05
3.39645e-06
-1.73397e-05
-1.96733e-05
7.45018e-12
-1.87459e-10
2.35493e-11
-5.38585e-10
4.81268e-11
-8.79883e-10
8.05895e-11
-1.18713e-09
1.21521e-10
-1.45047e-09
1.68431e-10
-1.66957e-09
2.22087e-10
-1.84185e-09
2.7924e-10
-1.96431e-09
3.3967e-10
-2.03654e-09
4.00215e-10
-2.0637e-09
4.62069e-10
-2.05066e-09
5.23254e-10
-2.00708e-09
5.84145e-10
-1.94271e-09
6.42929e-10
-1.87198e-09
7.02535e-10
-1.80458e-09
7.59236e-10
-1.75747e-09
8.16374e-10
-1.73862e-09
8.71874e-10
-1.76475e-09
9.31113e-10
-1.84287e-09
9.93797e-10
-1.98708e-09
1.06574e-09
-2.20332e-09
1.1445e-09
-2.50443e-09
1.23583e-09
-2.8908e-09
1.33937e-09
-3.37213e-09
1.46297e-09
-3.94654e-09
1.60519e-09
-4.61929e-09
1.77217e-09
-5.3876e-09
1.96434e-09
-6.25446e-09
2.18914e-09
-7.22497e-09
2.4437e-09
-8.28669e-09
2.74306e-09
-9.45555e-09
3.07658e-09
-1.07242e-08
3.45758e-09
-1.20953e-08
3.88205e-09
-1.35896e-08
4.35778e-09
-1.51932e-08
4.89343e-09
-1.69521e-08
5.48676e-09
-1.88412e-08
6.14988e-09
-2.09271e-08
6.87757e-09
-2.31887e-08
7.68461e-09
-2.56901e-08
8.57504e-09
-2.84469e-08
9.55513e-09
-3.14862e-08
1.06451e-08
-3.48901e-08
1.18354e-08
-3.86352e-08
1.3172e-08
-4.28697e-08
1.463e-08
-4.75365e-08
1.62718e-08
-5.28188e-08
1.80621e-08
-5.86692e-08
2.0073e-08
-6.52578e-08
2.2282e-08
-7.26071e-08
2.47469e-08
-8.08066e-08
2.74901e-08
-9.00278e-08
3.0524e-08
-1.00222e-07
3.39234e-08
-1.11733e-07
3.76811e-08
-1.24426e-07
4.18945e-08
-1.38695e-07
4.65777e-08
-1.54526e-07
5.17756e-08
-1.72128e-07
5.75918e-08
-1.91832e-07
6.40005e-08
-2.13557e-07
7.12147e-08
-2.37974e-07
7.90901e-08
-2.64828e-07
8.80506e-08
-2.95062e-07
9.76974e-08
-3.28178e-07
1.08805e-07
-3.65811e-07
1.20745e-07
-4.06502e-07
1.35158e-07
-4.53573e-07
1.51275e-07
-5.03939e-07
1.68886e-07
-5.58985e-07
1.86967e-07
-6.21411e-07
2.0756e-07
-6.91064e-07
2.29656e-07
-7.67835e-07
2.54732e-07
-8.53976e-07
2.80717e-07
-9.47193e-07
3.1144e-07
-1.05524e-06
3.45299e-07
-1.17304e-06
3.82823e-07
-1.30359e-06
4.24643e-07
-1.44863e-06
4.71319e-07
-1.60962e-06
5.23347e-07
-1.78832e-06
5.81313e-07
-1.98673e-06
6.45838e-07
-2.20715e-06
7.17683e-07
-2.45209e-06
7.97665e-07
-2.72437e-06
8.86768e-07
-3.02711e-06
9.86076e-07
-3.36383e-06
1.0969e-06
-3.73843e-06
1.2207e-06
-4.15543e-06
1.35907e-06
-4.61987e-06
1.51368e-06
-5.13762e-06
1.68618e-06
-5.71549e-06
1.87777e-06
-6.36119e-06
2.08887e-06
-7.08337e-06
2.31793e-06
-7.89174e-06
2.55924e-06
-8.7966e-06
2.80258e-06
-9.809e-06
3.02376e-06
-1.09406e-05
3.17405e-06
-1.21937e-05
3.15797e-06
-1.35603e-05
2.82738e-06
-1.49954e-05
1.82053e-06
-1.63329e-05
-1.78527e-05
7.0355e-12
1.74542e-11
3.12316e-11
5.04994e-11
7.42097e-11
1.03734e-10
-1.69741e-09
1.35916e-10
-1.87408e-09
1.7211e-10
-1.99798e-09
2.08268e-10
-2.07313e-09
2.46464e-10
-2.09982e-09
2.83925e-10
-2.08782e-09
3.22488e-10
-2.04284e-09
3.58665e-10
-1.97911e-09
3.96684e-10
-1.90575e-09
4.31117e-10
-1.83981e-09
4.67627e-10
-1.78933e-09
5.00291e-10
-1.77328e-09
5.35354e-10
-1.79716e-09
5.69334e-10
-1.87842e-09
6.09904e-10
-2.0233e-09
6.51412e-10
-2.24687e-09
7.01939e-10
-2.55038e-09
7.55538e-10
-2.94763e-09
8.2086e-10
-3.43495e-09
8.93985e-10
-4.02193e-09
9.84287e-10
-4.7051e-09
1.08485e-09
-5.49162e-09
1.208e-09
-6.37529e-09
1.33492e-09
-7.35432e-09
1.48931e-09
-8.43669e-09
1.67664e-09
-9.64543e-09
1.87903e-09
-1.09206e-08
2.1086e-09
-1.23284e-08
2.36534e-09
-1.38433e-08
2.65394e-09
-1.5485e-08
2.98041e-09
-1.72738e-08
3.33681e-09
-1.92009e-08
3.7449e-09
-2.13272e-08
4.17979e-09
-2.36276e-08
4.67591e-09
-2.6182e-08
5.20945e-09
-2.89835e-08
5.80822e-09
-3.20824e-08
6.46543e-09
-3.55527e-08
7.18423e-09
-3.93526e-08
7.9979e-09
-4.36892e-08
8.87284e-09
-4.84066e-08
9.87281e-09
-5.38237e-08
1.09496e-08
-5.9741e-08
1.21694e-08
-6.64827e-08
1.35012e-08
-7.39347e-08
1.4997e-08
-8.23087e-08
1.66538e-08
-9.16747e-08
1.84921e-08
-1.0207e-07
2.05525e-08
-1.13787e-07
2.28169e-08
-1.26697e-07
2.53851e-08
-1.41253e-07
2.82017e-08
-1.57347e-07
3.13354e-08
-1.75247e-07
3.49128e-08
-1.95418e-07
3.86462e-08
-2.17284e-07
4.31944e-08
-2.42529e-07
4.77374e-08
-2.6936e-07
5.3272e-08
-3.00604e-07
5.8986e-08
-3.33877e-07
6.54718e-08
-3.72307e-07
7.2289e-08
-4.13311e-07
8.05613e-08
-4.61853e-07
8.7333e-08
-5.10696e-07
1.03281e-07
-5.74941e-07
1.15899e-07
-6.34012e-07
1.28913e-07
-7.04091e-07
1.42974e-07
-7.81888e-07
1.58969e-07
-8.6998e-07
1.6907e-07
-9.57279e-07
1.88614e-07
-1.0748e-06
2.08872e-07
-1.19328e-06
2.31408e-07
-1.32613e-06
2.56588e-07
-1.47379e-06
2.84636e-07
-1.63767e-06
3.15895e-07
-1.81955e-06
3.50716e-07
-2.02157e-06
3.89574e-07
-2.24599e-06
4.329e-07
-2.49542e-06
4.81234e-07
-2.77268e-06
5.35103e-07
-3.08099e-06
5.95185e-07
-3.42389e-06
6.62187e-07
-3.80545e-06
7.37011e-07
-4.23024e-06
8.2057e-07
-4.70344e-06
9.1384e-07
-5.23086e-06
1.0176e-06
-5.81926e-06
1.13237e-06
-6.47592e-06
1.25788e-06
-7.20888e-06
1.39262e-06
-8.02645e-06
1.53265e-06
-8.93663e-06
1.67074e-06
-9.94706e-06
1.79005e-06
-1.106e-05
1.86474e-06
-1.22684e-05
1.85166e-06
-1.35472e-05
1.69455e-06
-1.48383e-05
1.39464e-06
-1.6033e-05
-1.64581e-05
3.84996e-11
5.09942e-11
6.2667e-11
7.6248e-11
8.86155e-11
1.03509e-10
1.16556e-10
1.31542e-10
1.43114e-10
1.57808e-10
1.68268e-10
1.81678e-10
1.91519e-10
2.05689e-10
2.16818e-10
2.33931e-10
2.4841e-10
2.69658e-10
2.898e-10
3.19112e-10
3.47722e-10
3.85562e-10
4.27956e-10
4.82815e-10
5.51388e-10
5.82169e-10
6.4351e-10
7.34707e-10
8.02688e-10
9.29773e-10
1.00636e-09
1.16548e-09
1.27065e-09
1.44413e-09
1.60524e-09
1.77479e-09
2.0116e-09
2.17737e-09
2.49103e-09
2.6881e-09
3.04894e-09
3.34246e-09
3.70532e-09
4.16053e-09
4.50816e-09
5.15803e-09
5.52838e-09
6.34817e-09
6.84782e-09
7.76307e-09
8.5476e-09
9.46126e-09
1.06786e-08
1.15593e-08
1.32593e-08
1.42878e-08
1.62418e-08
1.79365e-08
1.96166e-08
2.25925e-08
2.38383e-08
2.73762e-08
2.96091e-08
3.32826e-08
3.80274e-08
4.20908e-08
4.64127e-08
4.9986e-08
6.19229e-08
6.68692e-08
7.36512e-08
8.0898e-08
8.85597e-08
9.69062e-08
1.06204e-07
1.16804e-07
1.28939e-07
1.42878e-07
1.58773e-07
1.76827e-07
1.97154e-07
2.20003e-07
2.45547e-07
2.74113e-07
3.05981e-07
3.41392e-07
3.80366e-07
4.22814e-07
4.68079e-07
5.15125e-07
5.60089e-07
5.97883e-07
6.19323e-07
6.10337e-07
5.43989e-07
4.34984e-07
2.72175e-11
-2.67359e-11
9.69525e-11
-6.91236e-11
2.08639e-10
-1.11286e-10
3.24164e-10
-1.14813e-10
4.76587e-10
-1.52083e-10
6.41755e-10
-1.64465e-10
8.20586e-10
-1.78508e-10
1.01086e-09
-1.89436e-10
1.19279e-09
-1.81739e-10
1.37025e-09
-1.76761e-10
1.52999e-09
-1.59679e-10
1.66186e-09
-1.31099e-10
1.77218e-09
-1.10309e-10
1.86744e-09
-9.45409e-11
1.94606e-09
-7.8757e-11
2.01211e-09
-6.52134e-11
2.07144e-09
-5.94541e-11
2.13432e-09
-6.2165e-11
2.20776e-09
-7.3749e-11
2.30446e-09
-9.58865e-11
2.43159e-09
-1.27487e-10
2.60042e-09
-1.68117e-10
2.8178e-09
-2.17796e-10
3.09441e-09
-2.7566e-10
3.42326e-09
-3.2925e-10
3.81327e-09
-3.89104e-10
4.2579e-09
-4.45005e-10
4.75444e-09
-4.95307e-10
5.291e-09
-5.36823e-10
5.875e-09
-5.82758e-10
6.51817e-09
-6.43505e-10
7.23261e-09
-7.12834e-10
8.0217e-09
-7.89298e-10
8.89701e-09
-8.73679e-10
9.8673e-09
-9.7061e-10
1.09546e-08
-1.08529e-09
1.2163e-08
-1.20847e-09
1.34873e-08
-1.32223e-09
1.50033e-08
-1.51612e-09
1.6773e-08
-1.76722e-09
1.88185e-08
-2.04551e-09
2.11619e-08
-2.34109e-09
2.38144e-08
-2.65277e-09
2.67652e-08
-2.94832e-09
3.00172e-08
-3.2524e-09
3.36138e-08
-3.59438e-09
3.76102e-08
-3.99689e-09
4.21315e-08
-4.51865e-09
4.71434e-08
-5.0124e-09
5.2864e-08
-5.71797e-09
5.93653e-08
-6.50195e-09
6.67977e-08
-7.4292e-09
7.52486e-08
-8.45124e-09
8.47702e-08
-9.5183e-09
9.54833e-08
-1.07137e-08
1.07387e-07
-1.19001e-08
1.2075e-07
-1.33635e-08
1.35585e-07
-1.48316e-08
1.5243e-07
-1.68461e-08
1.71168e-07
-1.87337e-08
1.91996e-07
-2.08289e-08
2.1523e-07
-2.32295e-08
2.41291e-07
-2.60622e-08
2.70271e-07
-2.89758e-08
3.02416e-07
-3.21451e-08
3.39463e-07
-3.70428e-08
3.80535e-07
-4.10729e-08
4.24865e-07
-4.43257e-08
4.81536e-07
-5.66712e-08
5.39561e-07
-5.80208e-08
5.96533e-07
-5.69737e-08
6.58522e-07
-6.19844e-08
7.31299e-07
-7.27783e-08
8.21778e-07
-9.04749e-08
9.26613e-07
-1.04837e-07
1.04232e-06
-1.15703e-07
1.17053e-06
-1.28208e-07
1.31432e-06
-1.43792e-07
1.474e-06
-1.59678e-07
1.65109e-06
-1.77082e-07
1.84579e-06
-1.94709e-07
2.06086e-06
-2.15064e-07
2.29941e-06
-2.38551e-07
2.56459e-06
-2.65176e-07
2.85945e-06
-2.9486e-07
3.18733e-06
-3.27878e-07
3.5515e-06
-3.64168e-07
3.95556e-06
-4.04061e-07
4.40408e-06
-4.48515e-07
4.89925e-06
-4.95169e-07
5.43569e-06
-5.36444e-07
6.00812e-06
-5.72428e-07
6.633e-06
-6.24882e-07
7.30854e-06
-6.75527e-07
7.99698e-06
-6.88444e-07
8.69605e-06
-6.99066e-07
9.41269e-06
-7.16646e-07
1.01326e-05
-7.19941e-07
1.08393e-05
-7.06678e-07
1.15022e-05
-6.62845e-07
1.20789e-05
-5.76712e-07
-4.46953e-07
1.25259e-05
1.19626e-11
-3.82754e-11
7.69469e-11
-1.33618e-10
1.94972e-10
-2.28849e-10
3.39099e-10
-2.58393e-10
4.91595e-10
-3.04101e-10
6.56228e-10
-3.28535e-10
8.32317e-10
-3.54132e-10
1.01407e-09
-3.70628e-10
1.20167e-09
-3.68942e-10
1.39788e-09
-3.72536e-10
1.57977e-09
-3.41312e-10
1.7399e-09
-2.90748e-10
1.90136e-09
-2.71493e-10
2.0577e-09
-2.50586e-10
2.20534e-09
-2.26247e-10
2.34278e-09
-2.02197e-10
2.47811e-09
-1.94562e-10
2.6164e-09
-2.00172e-10
2.76329e-09
-2.20592e-10
2.92478e-09
-2.57077e-10
3.10645e-09
-3.09088e-10
3.31483e-09
-3.76282e-10
3.55866e-09
-4.61603e-10
3.85891e-09
-5.75555e-10
4.19559e-09
-6.65805e-10
4.59135e-09
-7.84521e-10
5.05334e-09
-9.06882e-10
5.58932e-09
-1.0307e-09
6.19087e-09
-1.13809e-09
6.86481e-09
-1.25626e-09
7.63043e-09
-1.40889e-09
8.49738e-09
-1.579e-09
9.47039e-09
-1.76178e-09
1.05593e-08
-1.96191e-09
1.17705e-08
-2.18137e-09
1.31176e-08
-2.43129e-09
1.46362e-08
-2.72632e-09
1.62222e-08
-2.90721e-09
1.79703e-08
-3.26352e-09
1.99135e-08
-3.70901e-09
2.2096e-08
-4.22713e-09
2.45712e-08
-4.81507e-09
2.73151e-08
-5.39611e-09
3.03564e-08
-5.98857e-09
3.37387e-08
-6.63413e-09
3.75436e-08
-7.39831e-09
4.18017e-08
-8.25455e-09
4.65125e-08
-9.22823e-09
5.17896e-08
-1.02888e-08
5.75992e-08
-1.15266e-08
6.40752e-08
-1.29774e-08
7.12861e-08
-1.46384e-08
7.9425e-08
-1.65892e-08
8.85952e-08
-1.86871e-08
9.88736e-08
-2.09914e-08
1.10502e-07
-2.35269e-08
1.23322e-07
-2.61829e-08
1.37497e-07
-2.90044e-08
1.54509e-07
-3.38577e-08
1.73264e-07
-3.74869e-08
1.93948e-07
-4.15116e-08
2.17216e-07
-4.64957e-08
2.43505e-07
-5.23503e-08
2.70351e-07
-5.58202e-08
3.01017e-07
-6.28093e-08
3.34186e-07
-7.02101e-08
3.7309e-07
-7.99762e-08
4.16837e-07
-8.80705e-08
4.64278e-07
-1.04111e-07
5.21392e-07
-1.15132e-07
5.88035e-07
-1.23616e-07
6.6567e-07
-1.39618e-07
7.52663e-07
-1.59771e-07
8.41623e-07
-1.79433e-07
9.37273e-07
-2.00487e-07
1.04493e-06
-2.23354e-07
1.16531e-06
-2.48591e-07
1.29845e-06
-2.76934e-07
1.44711e-06
-3.08334e-07
1.61331e-06
-3.43281e-07
1.80069e-06
-3.82092e-07
2.01149e-06
-4.2586e-07
2.24781e-06
-4.74864e-07
2.51136e-06
-5.28732e-07
2.80463e-06
-5.88121e-07
3.1293e-06
-6.52554e-07
3.48554e-06
-7.20402e-07
3.87799e-06
-7.96509e-07
4.31777e-06
-8.88297e-07
4.80957e-06
-9.86964e-07
5.34197e-06
-1.06885e-06
5.9147e-06
-1.14516e-06
6.53501e-06
-1.24519e-06
7.21568e-06
-1.3562e-06
7.95977e-06
-1.43253e-06
8.75382e-06
-1.49311e-06
9.60239e-06
-1.56522e-06
1.04866e-05
-1.60417e-06
1.13582e-05
-1.57824e-06
1.21739e-05
-1.47858e-06
1.28932e-05
-1.29599e-06
-1.02898e-06
1.34752e-05
2.00682e-11
-5.7919e-11
7.88108e-11
-1.91902e-10
1.55865e-10
-3.05428e-10
2.74986e-10
-3.7701e-10
4.29829e-10
-4.58455e-10
6.07093e-10
-5.05284e-10
8.12163e-10
-5.58702e-10
9.92629e-10
-5.5061e-10
1.19126e-09
-5.67204e-10
1.39481e-09
-5.75742e-10
1.62182e-09
-5.67927e-10
1.88277e-09
-5.51369e-10
2.10951e-09
-4.98105e-10
2.30247e-09
-4.43335e-10
2.47659e-09
-4.00049e-10
2.6407e-09
-3.6597e-10
2.80041e-09
-3.54103e-10
2.96017e-09
-3.5975e-10
3.12551e-09
-3.85783e-10
3.30533e-09
-4.36728e-10
3.51242e-09
-5.16147e-10
3.75403e-09
-6.17765e-10
4.03837e-09
-7.45774e-10
4.3747e-09
-9.11643e-10
4.7716e-09
-1.06258e-09
5.23795e-09
-1.25067e-09
5.79399e-09
-1.46256e-09
6.42914e-09
-1.66548e-09
7.14355e-09
-1.85243e-09
7.97565e-09
-2.08808e-09
8.93033e-09
-2.36307e-09
1.0014e-08
-2.66201e-09
1.12314e-08
-2.97881e-09
1.25946e-08
-3.32451e-09
1.41109e-08
-3.69673e-09
1.57925e-08
-4.11192e-09
1.76499e-08
-4.58322e-09
1.97024e-08
-4.95881e-09
2.19829e-08
-5.543e-09
2.44147e-08
-6.13974e-09
2.70608e-08
-6.8724e-09
3.00724e-08
-7.82598e-09
3.34794e-08
-8.80241e-09
3.71699e-08
-9.67837e-09
4.1295e-08
-1.07587e-08
4.58514e-08
-1.19541e-08
5.09154e-08
-1.33178e-08
5.65657e-08
-1.48777e-08
6.28693e-08
-1.65921e-08
6.97713e-08
-1.84278e-08
7.73475e-08
-2.05522e-08
8.5797e-08
-2.30865e-08
9.5196e-08
-2.59875e-08
1.05721e-07
-2.92108e-08
1.17496e-07
-3.27659e-08
1.30681e-07
-3.67103e-08
1.45556e-07
-4.1057e-08
1.61947e-07
-4.53936e-08
1.80356e-07
-5.22654e-08
2.00882e-07
-5.80118e-08
2.23885e-07
-6.45146e-08
2.49328e-07
-7.19379e-08
2.77665e-07
-8.06856e-08
3.09123e-07
-8.72764e-08
3.43763e-07
-9.7448e-08
3.8295e-07
-1.09395e-07
4.25777e-07
-1.22802e-07
4.74269e-07
-1.36561e-07
5.28066e-07
-1.57908e-07
5.90302e-07
-1.77367e-07
6.62231e-07
-1.95545e-07
7.39492e-07
-2.16878e-07
8.14507e-07
-2.34784e-07
9.09775e-07
-2.747e-07
1.01322e-06
-3.03928e-07
1.128e-06
-3.38134e-07
1.25591e-06
-3.76505e-07
1.3985e-06
-4.19518e-07
1.55773e-06
-4.6757e-07
1.73538e-06
-5.20926e-07
1.93392e-06
-5.80634e-07
2.15589e-06
-6.47831e-07
2.40357e-06
-7.22541e-07
2.67827e-06
-8.03428e-07
2.98393e-06
-8.93782e-07
3.3184e-06
-9.87027e-07
3.68067e-06
-1.08267e-06
4.08286e-06
-1.19869e-06
4.53569e-06
-1.34113e-06
5.03381e-06
-1.48509e-06
5.57055e-06
-1.60558e-06
6.17651e-06
-1.75112e-06
6.86056e-06
-1.92924e-06
7.58772e-06
-2.08336e-06
8.39632e-06
-2.24113e-06
9.28797e-06
-2.38476e-06
1.01958e-05
-2.47301e-06
1.11093e-05
-2.51765e-06
1.20237e-05
-2.4927e-06
1.29107e-05
-2.36558e-06
1.37188e-05
-2.10405e-06
-1.69265e-06
1.43825e-05
2.09176e-11
-7.85157e-11
6.66841e-11
-2.37246e-10
1.53063e-10
-3.91337e-10
2.70251e-10
-4.93714e-10
4.18986e-10
-6.06709e-10
5.8716e-10
-6.72944e-10
7.72933e-10
-7.43985e-10
9.76948e-10
-7.54218e-10
1.18821e-09
-7.78138e-10
1.41356e-09
-8.00666e-10
1.6194e-09
-7.73436e-10
1.81434e-09
-7.46193e-10
2.02084e-09
-7.04507e-10
2.23312e-09
-6.55341e-10
2.44383e-09
-6.10433e-10
2.65191e-09
-5.73811e-10
2.85511e-09
-5.57162e-10
3.05707e-09
-5.61555e-10
3.2632e-09
-5.91737e-10
3.48154e-09
-6.55002e-10
3.71441e-09
-7.48954e-10
3.97492e-09
-8.781e-10
4.27051e-09
-1.04113e-09
4.59951e-09
-1.24049e-09
5.00129e-09
-1.46425e-09
5.46722e-09
-1.71627e-09
5.99019e-09
-1.98522e-09
6.63738e-09
-2.31264e-09
7.45693e-09
-2.67191e-09
8.40217e-09
-3.03293e-09
9.44163e-09
-3.40191e-09
1.06076e-08
-3.82748e-09
1.18761e-08
-4.24686e-09
1.33052e-08
-4.75271e-09
1.48643e-08
-5.25485e-09
1.66035e-08
-5.85047e-09
1.84982e-08
-6.47737e-09
2.06827e-08
-7.14242e-09
2.3089e-08
-7.94831e-09
2.5612e-08
-8.66202e-09
2.84901e-08
-9.74999e-09
3.15902e-08
-1.09255e-08
3.51844e-08
-1.23962e-08
3.90645e-08
-1.3558e-08
4.34855e-08
-1.51795e-08
4.84134e-08
-1.68814e-08
5.38725e-08
-1.87761e-08
6.01612e-08
-2.11662e-08
6.70243e-08
-2.34548e-08
7.43087e-08
-2.57108e-08
8.25115e-08
-2.87537e-08
9.17542e-08
-3.23283e-08
1.02084e-07
-3.63165e-08
1.13585e-07
-4.0711e-08
1.26393e-07
-4.55724e-08
1.40703e-07
-5.10182e-08
1.56781e-07
-5.71339e-08
1.74949e-07
-6.35607e-08
1.93852e-07
-7.11667e-08
2.15176e-07
-7.93354e-08
2.39037e-07
-8.83761e-08
2.65542e-07
-9.84417e-08
2.94406e-07
-1.09548e-07
3.28312e-07
-1.21181e-07
3.66086e-07
-1.35221e-07
4.08189e-07
-1.51496e-07
4.54868e-07
-1.69479e-07
5.07879e-07
-1.8957e-07
5.63e-07
-2.13028e-07
6.23602e-07
-2.37969e-07
6.92792e-07
-2.64734e-07
7.71721e-07
-2.95806e-07
8.58866e-07
-3.21929e-07
9.52476e-07
-3.68309e-07
1.05582e-06
-4.07274e-07
1.17072e-06
-4.53032e-07
1.2994e-06
-5.05186e-07
1.44388e-06
-5.63993e-07
1.60527e-06
-6.28955e-07
1.78501e-06
-7.0067e-07
1.98595e-06
-7.81573e-07
2.21059e-06
-8.72466e-07
2.4607e-06
-9.72646e-07
2.73806e-06
-1.08079e-06
3.05026e-06
-1.20598e-06
3.38063e-06
-1.3174e-06
3.74054e-06
-1.44258e-06
4.1559e-06
-1.61405e-06
4.59666e-06
-1.78189e-06
5.07205e-06
-1.96048e-06
5.65413e-06
-2.18765e-06
6.31805e-06
-2.41504e-06
7.00598e-06
-2.61716e-06
7.74833e-06
-2.82572e-06
8.54638e-06
-3.03917e-06
9.40373e-06
-3.2421e-06
1.03361e-05
-3.40538e-06
1.13259e-05
-3.50744e-06
1.23511e-05
-3.51794e-06
1.33798e-05
-3.39418e-06
1.43461e-05
-3.07038e-06
-2.51766e-06
1.51711e-05
2.00055e-11
-9.81021e-11
6.81827e-11
-2.84971e-10
1.47716e-10
-4.70391e-10
2.6464e-10
-6.10147e-10
3.99845e-10
-7.41412e-10
5.6514e-10
-8.37729e-10
7.36016e-10
-9.14409e-10
9.43279e-10
-9.6108e-10
1.15263e-09
-9.87071e-10
1.34863e-09
-9.96295e-10
1.55055e-09
-9.7517e-10
1.74987e-09
-9.454e-10
1.94777e-09
-9.02211e-10
2.1452e-09
-8.52472e-10
2.34077e-09
-8.05655e-10
2.53791e-09
-7.70693e-10
2.73552e-09
-7.54618e-10
2.93736e-09
-7.63196e-10
3.14729e-09
-8.01503e-10
3.36776e-09
-8.75306e-10
3.60662e-09
-9.87643e-10
3.8702e-09
-1.14142e-09
4.16603e-09
-1.33673e-09
4.50085e-09
-1.57511e-09
4.88613e-09
-1.84925e-09
5.34312e-09
-2.17296e-09
5.89057e-09
-2.53259e-09
6.51087e-09
-2.93287e-09
7.2285e-09
-3.38929e-09
8.06318e-09
-3.86707e-09
9.04614e-09
-4.38426e-09
1.01385e-08
-4.91923e-09
1.14071e-08
-5.51458e-09
1.28185e-08
-6.16317e-09
1.44036e-08
-6.83924e-09
1.61877e-08
-7.63395e-09
1.81308e-08
-8.41988e-09
2.03657e-08
-9.37656e-09
2.27585e-08
-1.03405e-08
2.55631e-08
-1.14661e-08
2.85821e-08
-1.27687e-08
3.18316e-08
-1.41751e-08
3.53342e-08
-1.58985e-08
3.92651e-08
-1.74888e-08
4.37336e-08
-1.96477e-08
4.85324e-08
-2.16796e-08
5.39797e-08
-2.42232e-08
5.96149e-08
-2.6801e-08
6.62119e-08
-3.00505e-08
7.45005e-08
-3.39983e-08
8.37533e-08
-3.80054e-08
9.35784e-08
-4.21524e-08
1.04261e-07
-4.6998e-08
1.15762e-07
-5.22105e-08
1.28317e-07
-5.81261e-08
1.42275e-07
-6.49738e-08
1.57803e-07
-7.26602e-08
1.75245e-07
-8.10018e-08
1.93553e-07
-8.94735e-08
2.14345e-07
-1.00128e-07
2.37596e-07
-1.11626e-07
2.63612e-07
-1.24457e-07
2.92677e-07
-1.38611e-07
3.25686e-07
-1.54189e-07
3.62187e-07
-1.7172e-07
4.02077e-07
-1.91385e-07
4.46441e-07
-2.1384e-07
4.96005e-07
-2.39134e-07
5.50567e-07
-2.6759e-07
6.11792e-07
-2.99192e-07
6.80724e-07
-3.33665e-07
7.58613e-07
-3.73694e-07
8.50281e-07
-4.13595e-07
9.38733e-07
-4.5676e-07
1.03952e-06
-5.08062e-07
1.15389e-06
-5.67398e-07
1.28213e-06
-6.33422e-07
1.42385e-06
-7.05712e-07
1.58127e-06
-7.86377e-07
1.75654e-06
-8.75934e-07
1.95224e-06
-9.77276e-07
2.1688e-06
-1.08902e-06
2.40316e-06
-1.20701e-06
2.65801e-06
-1.33564e-06
2.92287e-06
-1.47084e-06
3.25661e-06
-1.65114e-06
3.66492e-06
-1.85088e-06
4.08446e-06
-2.03359e-06
4.53916e-06
-2.23658e-06
5.04122e-06
-2.46255e-06
5.56985e-06
-2.71628e-06
6.14649e-06
-2.99169e-06
6.80321e-06
-3.27388e-06
7.54068e-06
-3.56318e-06
8.36189e-06
-3.86038e-06
9.27157e-06
-4.15178e-06
1.0279e-05
-4.41284e-06
1.13841e-05
-4.61252e-06
1.25739e-05
-4.70776e-06
1.38195e-05
-4.63971e-06
1.50355e-05
-4.28638e-06
-3.61883e-06
1.61366e-05
1.77405e-11
-1.15486e-10
6.48453e-11
-3.31623e-10
1.3894e-10
-5.43971e-10
2.469e-10
-7.17602e-10
3.76992e-10
-8.70966e-10
5.30447e-10
-9.90696e-10
7.00386e-10
-1.08384e-09
8.87922e-10
-1.14817e-09
1.07953e-09
-1.17824e-09
1.27201e-09
-1.18849e-09
1.46773e-09
-1.17067e-09
1.6598e-09
-1.13727e-09
1.84773e-09
-1.08985e-09
2.0322e-09
-1.0365e-09
2.2143e-09
-9.8736e-10
2.39516e-09
-9.51296e-10
2.5764e-09
-9.35595e-10
2.76084e-09
-9.47371e-10
2.95277e-09
-9.93099e-10
3.15684e-09
-1.07909e-09
3.37953e-09
-1.21002e-09
3.62749e-09
-1.38904e-09
3.90916e-09
-1.61805e-09
4.23297e-09
-1.89858e-09
4.61345e-09
-2.22944e-09
5.05379e-09
-2.61312e-09
5.57058e-09
-3.04918e-09
6.17515e-09
-3.53719e-09
6.86442e-09
-4.07809e-09
7.6562e-09
-4.65811e-09
8.56135e-09
-5.28859e-09
9.61161e-09
-5.96857e-09
1.08087e-08
-6.71078e-09
1.21556e-08
-7.50923e-09
1.36875e-08
-8.3704e-09
1.53776e-08
-9.32371e-09
1.7297e-08
-1.03388e-08
1.94028e-08
-1.14819e-08
2.17719e-08
-1.27091e-08
2.44011e-08
-1.40952e-08
2.72721e-08
-1.564e-08
3.0461e-08
-1.73636e-08
3.38782e-08
-1.93156e-08
3.78046e-08
-2.14155e-08
4.19851e-08
-2.3828e-08
4.67359e-08
-2.64301e-08
5.19399e-08
-2.94267e-08
5.78743e-08
-3.27341e-08
6.43373e-08
-3.65126e-08
7.12155e-08
-4.08749e-08
7.88848e-08
-4.56733e-08
8.76351e-08
-5.09027e-08
9.73628e-08
-5.67242e-08
1.08172e-07
-6.30178e-08
1.20409e-07
-7.03611e-08
1.33601e-07
-7.8163e-08
1.48323e-07
-8.7381e-08
1.65314e-07
-9.79917e-08
1.84257e-07
-1.08416e-07
2.04848e-07
-1.20718e-07
2.27648e-07
-1.34425e-07
2.52964e-07
-1.49771e-07
2.81077e-07
-1.66723e-07
3.12544e-07
-1.85655e-07
3.47637e-07
-2.06811e-07
3.86789e-07
-2.30534e-07
4.30174e-07
-2.57223e-07
4.78159e-07
-2.87118e-07
5.30999e-07
-3.20429e-07
5.89044e-07
-3.57235e-07
6.53097e-07
-3.97717e-07
7.19195e-07
-4.3979e-07
7.95692e-07
-4.9009e-07
8.90841e-07
-5.51908e-07
1.00011e-06
-6.17331e-07
1.11922e-06
-6.86509e-07
1.24794e-06
-7.62139e-07
1.38784e-06
-8.45601e-07
1.53949e-06
-9.38032e-07
1.70498e-06
-1.04141e-06
1.88111e-06
-1.15341e-06
2.06929e-06
-1.27719e-06
2.28159e-06
-1.4193e-06
2.52696e-06
-1.58101e-06
2.81552e-06
-1.7594e-06
3.12231e-06
-1.95793e-06
3.45115e-06
-2.17972e-06
3.83247e-06
-2.41491e-06
4.26186e-06
-2.66597e-06
4.74124e-06
-2.94193e-06
5.27182e-06
-3.24685e-06
5.8594e-06
-3.57927e-06
6.5185e-06
-3.93298e-06
7.26185e-06
-4.30653e-06
8.10078e-06
-4.69931e-06
9.04983e-06
-5.10082e-06
1.01284e-05
-5.49139e-06
1.13511e-05
-5.8352e-06
1.27322e-05
-6.08887e-06
1.42703e-05
-6.17785e-06
1.58763e-05
-5.89241e-06
-5.25835e-06
1.75159e-05
1.75257e-11
-1.32534e-10
5.8223e-11
-3.71796e-10
1.28208e-10
-6.13432e-10
2.27388e-10
-8.16231e-10
3.48849e-10
-9.91907e-10
4.90069e-10
-1.13138e-09
6.4859e-10
-1.24187e-09
8.20588e-10
-1.31968e-09
1.00207e-09
-1.3593e-09
1.18452e-09
-1.37075e-09
1.36717e-09
-1.35309e-09
1.54499e-09
-1.31478e-09
1.71954e-09
-1.26394e-09
1.89163e-09
-1.20817e-09
2.06085e-09
-1.15623e-09
2.22798e-09
-1.11803e-09
2.39508e-09
-1.10234e-09
2.56509e-09
-1.11695e-09
2.74191e-09
-1.16952e-09
2.9303e-09
-1.2671e-09
3.13608e-09
-1.41539e-09
3.3661e-09
-1.61859e-09
3.62823e-09
-1.87977e-09
3.93081e-09
-2.20077e-09
4.28387e-09
-2.58221e-09
4.6962e-09
-3.02518e-09
5.17707e-09
-3.52978e-09
5.73595e-09
-4.09558e-09
6.37806e-09
-4.71942e-09
7.12433e-09
-5.40357e-09
7.98307e-09
-6.14639e-09
8.96475e-09
-6.94924e-09
1.00787e-08
-7.82375e-09
1.13361e-08
-8.76589e-09
1.27552e-08
-9.78921e-09
1.43331e-08
-1.09011e-08
1.61058e-08
-1.21111e-08
1.80662e-08
-1.34419e-08
2.02548e-08
-1.48975e-08
2.26743e-08
-1.65152e-08
2.53428e-08
-1.8308e-08
2.82889e-08
-2.031e-08
3.15063e-08
-2.25349e-08
3.5097e-08
-2.50055e-08
3.90299e-08
-2.77607e-08
4.34354e-08
-3.08352e-08
4.83001e-08
-3.42904e-08
5.37209e-08
-3.81538e-08
5.97363e-08
-4.25258e-08
6.63045e-08
-4.74419e-08
7.35637e-08
-5.29345e-08
8.16448e-08
-5.89817e-08
9.061e-08
-6.56875e-08
1.00768e-07
-7.3174e-08
1.11943e-07
-8.15334e-08
1.24627e-07
-9.08448e-08
1.38571e-07
-1.01324e-07
1.53585e-07
-1.13005e-07
1.70954e-07
-1.25784e-07
1.9032e-07
-1.40084e-07
2.11923e-07
-1.56027e-07
2.35907e-07