/*--------------------------------*- C++ -*----------------------------------*\
| =========                 |                                                 |
| \\      /  F ield         | OpenFOAM: The Open Source CFD Toolbox           |
|  \\    /   O peration     | Version:  2206                                  |
|   \\  /    A nd           | Website:  www.openfoam.com                      |
|    \\/     M anipulation  |                                                 |
\*---------------------------------------------------------------------------*/
FoamFile
{
    version     2.0;
    format      ascii;
    arch        "LSB;label=32;scalar=64";
    class       volScalarField;
    location    "18.5001";
    object      p;
}
// * * * * * * * * * * * * * * * * * * * * * * * * * * * * * * * * * * * * * //

dimensions      [0 2 -2 0 0 0 0];

internalField   nonuniform List<scalar> 
4866
(
-0.0735826
-0.0672643
-0.0615691
-0.0566875
-0.0527629
-0.0499103
-0.0482375
-0.0478378
-0.0487883
-0.0511659
-0.0550558
-0.0606384
-0.0679731
-0.0768521
-0.0871943
-0.0990875
-0.112408
-0.126919
-0.142319
-0.158223
-0.174159
-0.189584
-0.203906
-0.216517
-0.226829
-0.234322
-0.238585
-0.239476
-0.236971
-0.231257
-0.22266
-0.211603
-0.198585
-0.184138
-0.168792
-0.153041
-0.137326
-0.122018
-0.107413
-0.0937127
-0.0809615
-0.0692223
-0.058999
-0.0504442
-0.0432942
-0.0374998
-0.0330515
-0.0299029
-0.0280014
-0.027293
-0.0277143
-0.0291863
-0.031611
-0.034868
-0.0388121
-0.0432752
-0.0480686
-0.052984
-0.0577936
-0.0622771
-0.0662312
-0.0694834
-0.0718877
-0.0733197
-0.0737598
-0.0732008
-0.071677
-0.0692798
-0.0661401
-0.0624196
-0.0582965
-0.0539538
-0.0495779
-0.0453462
-0.0414211
-0.0379613
-0.0351111
-0.0329829
-0.0316618
-0.0312159
-0.0317334
-0.0333767
-0.0361541
-0.0398378
-0.0444102
-0.0500329
-0.0566396
-0.0641251
-0.0723668
-0.0811981
-0.0904108
-0.0997596
-0.108967
-0.117731
-0.125741
-0.132693
-0.138304
-0.142326
-0.144572
-0.145032
-0.143652
-0.140521
-0.13578
-0.129623
-0.122282
-0.114019
-0.105102
-0.095798
-0.0863621
-0.0770241
-0.0679839
-0.0594029
-0.0513297
-0.0437316
-0.037009
-0.0314984
-0.0270134
-0.0234827
-0.0209272
-0.0193286
-0.0186566
-0.0188741
-0.0199323
-0.0217689
-0.0243062
-0.0274489
-0.0310828
-0.0350772
-0.0392856
-0.0435413
-0.0476734
-0.051528
-0.0549578
-0.0578258
-0.0600174
-0.0614478
-0.0620938
-0.0619256
-0.0609671
-0.0929287
-0.0850705
-0.0778621
-0.0715246
-0.0662294
-0.0620983
-0.0592222
-0.0576849
-0.0575523
-0.0588959
-0.0617822
-0.0664225
-0.0726808
-0.0803675
-0.0897522
-0.100669
-0.112993
-0.126517
-0.140954
-0.155935
-0.171011
-0.185661
-0.19932
-0.211403
-0.221345
-0.228646
-0.232912
-0.233946
-0.231778
-0.226538
-0.218524
-0.208131
-0.195832
-0.182136
-0.167554
-0.152566
-0.137605
-0.123039
-0.109166
-0.0962143
-0.0842964
-0.0733631
-0.0636302
-0.0555756
-0.0490664
-0.0439162
-0.0401205
-0.0376391
-0.036417
-0.0364081
-0.0375564
-0.0397849
-0.0429926
-0.0470516
-0.0518068
-0.0570767
-0.0626402
-0.0682565
-0.0736857
-0.0787008
-0.0830822
-0.0866274
-0.0891694
-0.0905865
-0.0908627
-0.0899799
-0.0879962
-0.0850228
-0.0812098
-0.076741
-0.0718141
-0.0666329
-0.0614036
-0.0563189
-0.0515519
-0.0472606
-0.0435817
-0.0406448
-0.0385565
-0.0373734
-0.0371703
-0.0381447
-0.0402538
-0.0432366
-0.0471833
-0.0521975
-0.0582131
-0.0651287
-0.0728247
-0.0811415
-0.0898788
-0.098799
-0.107633
-0.116087
-0.123858
-0.130646
-0.136175
-0.140202
-0.142537
-0.143157
-0.142001
-0.139148
-0.134729
-0.128925
-0.121961
-0.114087
-0.105565
-0.0966583
-0.0876173
-0.0786707
-0.070019
-0.0618372
-0.0542417
-0.0471884
-0.0407264
-0.0354026
-0.0312586
-0.0280862
-0.0258817
-0.0246321
-0.0243079
-0.0248766
-0.0262928
-0.0284978
-0.0314144
-0.0349443
-0.0389687
-0.0433483
-0.0479153
-0.0524933
-0.0569184
-0.0610263
-0.0646541
-0.0676566
-0.0699122
-0.071331
-0.0718935
-0.0715676
-0.0703849
-0.111602
-0.10207
-0.0932465
-0.085352
-0.0785572
-0.0729998
-0.0687789
-0.0659645
-0.0646103
-0.0647923
-0.0665693
-0.0699916
-0.074944
-0.081743
-0.0899822
-0.0997312
-0.110895
-0.123257
-0.136544
-0.15041
-0.16443
-0.178115
-0.19093
-0.202325
-0.211765
-0.218778
-0.222987
-0.224163
-0.22237
-0.217686
-0.210376
-0.200806
-0.189411
-0.176673
-0.163071
-0.149067
-0.135076
-0.121457
-0.108503
-0.096448
-0.0854612
-0.0755753
-0.066705
-0.0592043
-0.053391
-0.0490201
-0.046
-0.0442938
-0.0438486
-0.0446348
-0.0466086
-0.0496933
-0.0537833
-0.058743
-0.0643977
-0.0705244
-0.0768859
-0.0832433
-0.0893499
-0.0949422
-0.099768
-0.103605
-0.106271
-0.107639
-0.107704
-0.106446
-0.103943
-0.100326
-0.0957701
-0.0904802
-0.0846772
-0.0785895
-0.0724414
-0.0664409
-0.060778
-0.055615
-0.05109
-0.0473204
-0.0444156
-0.0424462
-0.0414926
-0.0417754
-0.043007
-0.0452757
-0.0485699
-0.0529033
-0.0582497
-0.0645247
-0.071605
-0.0793332
-0.0875171
-0.0959293
-0.10431
-0.112378
-0.119839
-0.126404
-0.131802
-0.135797
-0.138204
-0.138981
-0.138069
-0.13553
-0.131486
-0.126106
-0.1196
-0.112206
-0.104177
-0.0957672
-0.0872215
-0.0787635
-0.070591
-0.0628787
-0.0557756
-0.0493405
-0.0434418
-0.0383366
-0.0345056
-0.0317801
-0.0300047
-0.0291594
-0.0292308
-0.0301951
-0.0320137
-0.0346323
-0.0379724
-0.041931
-0.04638
-0.0511553
-0.0560832
-0.0609996
-0.0657307
-0.0700937
-0.0739162
-0.0770447
-0.0793507
-0.0807407
-0.0811968
-0.0806899
-0.0792589
-0.129081
-0.117763
-0.107228
-0.0977174
-0.0893986
-0.0823842
-0.0767668
-0.0725943
-0.0698649
-0.0686079
-0.0691241
-0.0712852
-0.0752612
-0.0809618
-0.0879031
-0.0963787
-0.106263
-0.117336
-0.12934
-0.141949
-0.154767
-0.16734
-0.179171
-0.189748
-0.198575
-0.205211
-0.209299
-0.210618
-0.209211
-0.205128
-0.198604
-0.189966
-0.179614
-0.167988
-0.155537
-0.142695
-0.129855
-0.117364
-0.105502
-0.094496
-0.0845238
-0.0757036
-0.0680265
-0.0613994
-0.0561964
-0.0526497
-0.0505306
-0.0496917
-0.0501004
-0.0517689
-0.0546629
-0.0587002
-0.0637622
-0.0696795
-0.076248
-0.083251
-0.0904654
-0.0976267
-0.104444
-0.110627
-0.115899
-0.120019
-0.122788
-0.124076
-0.123886
-0.122205
-0.119132
-0.114818
-0.109465
-0.103297
-0.0965651
-0.0895201
-0.0824028
-0.0754375
-0.068829
-0.0627448
-0.0573326
-0.0527059
-0.0489517
-0.0461406
-0.0443454
-0.0438517
-0.0441404
-0.0457125
-0.0483802
-0.0521066
-0.0567856
-0.0623722
-0.0687815
-0.0758659
-0.0834388
-0.0912817
-0.0991476
-0.106767
-0.11386
-0.120149
-0.125372
-0.129303
-0.131761
-0.132683
-0.132023
-0.129824
-0.126193
-0.121286
-0.115298
-0.108455
-0.100995
-0.0931613
-0.0851931
-0.0773047
-0.0696891
-0.0625181
-0.0559398
-0.0500812
-0.0449463
-0.040325
-0.036703
-0.0344591
-0.0332052
-0.0327985
-0.0332995
-0.0346965
-0.0369583
-0.0400347
-0.0438404
-0.0482571
-0.0531286
-0.0582943
-0.0635997
-0.0688685
-0.0739062
-0.0785205
-0.0825304
-0.0857737
-0.0881149
-0.089458
-0.0897887
-0.0890822
-0.0873829
-0.144789
-0.131613
-0.119286
-0.108072
-0.0981503
-0.08963
-0.0825957
-0.0770864
-0.0730679
-0.0705956
-0.0696821
-0.0705239
-0.0735019
-0.0778264
-0.0835783
-0.0907852
-0.0993243
-0.109033
-0.119673
-0.130938
-0.142461
-0.153825
-0.164577
-0.174246
-0.182379
-0.188568
-0.192486
-0.19392
-0.192893
-0.189431
-0.183737
-0.1761
-0.166877
-0.156469
-0.145287
-0.133732
-0.122171
-0.110931
-0.10028
-0.0904344
-0.0815624
-0.0737961
-0.0672349
-0.0618566
-0.0575497
-0.0546413
-0.0535425
-0.0536907
-0.0550023
-0.057648
-0.0615599
-0.0666083
-0.0726433
-0.0794992
-0.0870023
-0.0949441
-0.103055
-0.111036
-0.118569
-0.12534
-0.13105
-0.135435
-0.138283
-0.139456
-0.138974
-0.136835
-0.133155
-0.128112
-0.121929
-0.114859
-0.107176
-0.0991536
-0.0910487
-0.0831067
-0.0755365
-0.0685149
-0.0621928
-0.0566918
-0.0521031
-0.0484835
-0.045824
-0.044208
-0.0440308
-0.0448827
-0.0467524
-0.0497702
-0.0538163
-0.0587529
-0.0644767
-0.0708782
-0.0777992
-0.0850315
-0.0923383
-0.0994645
-0.106144
-0.112114
-0.117124
-0.12096
-0.123449
-0.124495
-0.124087
-0.122239
-0.119043
-0.114642
-0.109213
-0.102972
-0.0961366
-0.0889422
-0.0816162
-0.0743622
-0.0673684
-0.0608024
-0.054805
-0.0495009
-0.0449812
-0.0410834
-0.0379097
-0.0360149
-0.0354523
-0.0354749
-0.0364025
-0.0382631
-0.0410173
-0.0445952
-0.0488799
-0.053731
-0.0590121
-0.0645873
-0.0702823
-0.0759
-0.0812375
-0.0860938
-0.0902785
-0.0936223
-0.095983
-0.0972617
-0.0974524
-0.0965322
-0.0945509
-0.100564
0.174367
0.176922
0.178657
0.17956
0.179515
0.17844
0.176614
0.173919
0.170298
0.16573
0.160252
0.154032
0.147209
0.139915
0.132329
0.124675
0.117194
0.110116
0.103645
0.0979414
0.0931087
0.0892028
0.086194
0.0838649
0.0822379
0.0812175
0.0806776
0.0804653
0.0805013
0.0807364
0.081128
0.0816302
0.0822023
0.0828198
0.0834581
0.0840845
0.0846848
0.0852491
0.0857396
0.0861367
0.0864469
0.0866827
0.0868653
0.0870218
0.0871805
0.087356
0.0875393
0.0877248
0.0879165
0.0881298
0.0883823
0.0887151
0.0891589
0.0896947
0.0903485
0.0911471
0.0921117
0.0932551
0.0945812
0.0960787
0.0977086
0.0994392
0.101246
0.103102
0.104979
0.106851
0.108691
0.110476
0.112183
0.113793
0.11528
0.116634
0.117847
0.118903
0.11978
0.120448
0.120888
0.12108
0.121003
0.120634
0.119939
0.118885
0.117449
0.115608
0.113383
0.110817
0.107949
0.104818
0.10146
0.0979145
0.0942255
0.0904407
0.0866076
0.0827728
0.0789838
0.0752895
0.0717367
0.0683696
0.0652299
0.0623561
0.0597822
0.0575366
0.0556403
0.0541066
0.0529398
0.0521358
0.0516849
0.0515669
0.0517191
0.052131
0.0527575
0.0535505
0.0544612
0.0554432
0.0564542
0.057456
0.0584153
0.0593051
0.0601039
0.060797
0.0613783
0.0618512
0.0622289
0.0625293
0.062772
0.0629776
0.0631676
0.0633662
0.0636002
0.063896
0.0642744
0.0647523
0.0653417
0.0660509
0.0668851
0.0678461
0.068931
0.0701314
0.0714329
0.17458
0.177292
0.179203
0.180281
0.180584
0.179725
0.177982
0.175295
0.171618
0.166903
0.161169
0.154784
0.147816
0.140303
0.132452
0.124543
0.116836
0.109577
0.102979
0.0972178
0.0924094
0.0885936
0.0854237
0.083155
0.0815919
0.0806409
0.0801939
0.0800178
0.080101
0.0804105
0.0809042
0.0814877
0.08212
0.0827827
0.0834279
0.0840406
0.0847049
0.085329
0.0858528
0.0862671
0.0865883
0.086825
0.0869971
0.0871344
0.0872702
0.087416
0.0875678
0.0877151
0.0878693
0.0880702
0.0883082
0.088622
0.0890198
0.0895263
0.0901442
0.0909124
0.0918554
0.0929919
0.0943291
0.0958599
0.0975078
0.0992505
0.101078
0.102963
0.104879
0.1068
0.108695
0.110536
0.112297
0.113955
0.115465
0.116835
0.118065
0.119133
0.120018
0.120703
0.121156
0.121361
0.121301
0.120953
0.120278
0.119236
0.117817
0.115971
0.113727
0.111135
0.108239
0.105081
0.101693
0.0981102
0.0943781
0.0905478
0.086668
0.0827841
0.0789444
0.0752005
0.0716002
0.0681883
0.0650073
0.0620966
0.0594917
0.0572216
0.0553084
0.0537655
0.0525977
0.0518013
0.0513656
0.051258
0.0514596
0.0519157
0.0525868
0.0534249
0.054379
0.0554013
0.0564489
0.0574823
0.0584673
0.0593778
0.0601921
0.0608916
0.0614686
0.0619308
0.0622916
0.0625735
0.0627951
0.0629771
0.0631402
0.0633083
0.0635142
0.0637884
0.0641495
0.0646151
0.0651963
0.0659
0.0667319
0.0676948
0.0687867
0.0699998
0.0713193
0.174418
0.177046
0.178838
0.179757
0.179631
0.179093
0.177468
0.174916
0.171435
0.166971
0.161575
0.155374
0.148515
0.141139
0.133418
0.125537
0.117747
0.110285
0.103398
0.0973216
0.0921738
0.0879045
0.0847146
0.082339
0.0807415
0.0798185
0.0793999
0.0792454
0.0792901
0.0795362
0.0799563
0.0805091
0.081186
0.0818741
0.0825735
0.0833229
0.0841508
0.0849283
0.0855542
0.0860512
0.0864657
0.086784
0.0870004
0.0871884
0.0874148
0.0876447
0.0878726
0.0880881
0.0882888
0.0884629
0.0886487
0.0889149
0.0892656
0.0897209
0.0902658
0.0909777
0.0918704
0.0929524
0.0942329
0.0957034
0.0973282
0.099068
0.1009
0.102769
0.104675
0.106589
0.108476
0.110305
0.112045
0.113692
0.115238
0.116667
0.117971
0.119134
0.120124
0.120913
0.121465
0.121766
0.121818
0.121592
0.12103
0.120059
0.118636
0.116766
0.114475
0.111806
0.108824
0.105583
0.102108
0.0984252
0.0945882
0.0906616
0.086694
0.0827224
0.0787966
0.074972
0.0712956
0.0678108
0.0645623
0.0615919
0.0589377
0.0566316
0.0546974
0.0531497
0.0519937
0.0512245
0.0508274
0.0507692
0.0510324
0.0515584
0.0523044
0.0532205
0.0542498
0.0553414
0.0564517
0.0575391
0.0585697
0.059519
0.0603643
0.0610743
0.0616459
0.0620947
0.0624333
0.0626835
0.0628643
0.0630129
0.063138
0.0632619
0.0634246
0.0636639
0.0639971
0.0644395
0.065003
0.0656944
0.0665207
0.0674865
0.068591
0.0698273
0.0711812
0.172125
0.174968
0.177097
0.178467
0.179196
0.178525
0.177209
0.175032
0.171821
0.167543
0.162313
0.156066
0.149094
0.141642
0.134069
0.126252
0.118448
0.110949
0.104044
0.097982
0.0928595
0.0886255
0.0852626
0.0826742
0.0808152
0.0795604
0.0787822
0.0784102
0.0782634
0.0783228
0.0785764
0.0790577
0.0797795
0.0805461
0.0812724
0.0820451
0.0828414
0.0837349
0.0845417
0.0852464
0.0859469
0.086542
0.0870133
0.0873699
0.0877116
0.0880458
0.088353
0.0886286
0.0888638
0.0890221
0.0891971
0.0894495
0.0897722
0.0901676
0.0907011
0.0913372
0.0921216
0.0930938
0.0942691
0.0956305
0.0971878
0.0988746
0.100652
0.102503
0.104409
0.106337
0.108242
0.11009
0.111862
0.113574
0.115228
0.116777
0.118175
0.119407
0.120449
0.121264
0.121812
0.122114
0.122181
0.121978
0.121468
0.120519
0.119074
0.117195
0.114902
0.112231
0.109253
0.106042
0.102566
0.0988478
0.0949498
0.0909493
0.0868932
0.082802
0.0787434
0.0747947
0.0710023
0.0674114
0.0640712
0.0610239
0.0583075
0.0559555
0.0539923
0.0524349
0.0512937
0.0505534
0.0501797
0.0501746
0.0505164
0.0511316
0.0519721
0.0529839
0.054099
0.0552775
0.0564671
0.0576176
0.0586979
0.0596842
0.0605515
0.0612775
0.0618539
0.0622845
0.0625905
0.0628066
0.0629581
0.0630686
0.0631579
0.0632519
0.0633713
0.0635527
0.0638522
0.0642755
0.064827
0.0655044
0.0663177
0.0672761
0.0683787
0.0696178
0.0709787
0.168037
0.170802
0.172851
0.174148
0.174646
0.174752
0.173827
0.171994
0.169281
0.165663
0.161118
0.155638
0.149406
0.142855
0.136173
0.129153
0.121843
0.1145
0.107532
0.101219
0.0956312
0.0906791
0.0865976
0.0834301
0.0810961
0.0793987
0.0781948
0.0774989
0.0771545
0.0770358
0.0771301
0.0774286
0.0778834
0.0785151
0.0792731
0.0801073
0.0810126
0.0821481
0.0832584
0.0841218
0.0849681
0.0858023
0.0865591
0.0872296
0.0877946
0.0883629
0.08887
0.0892842
0.08964
0.0899563
0.0902472
0.0905224
0.0908277
0.0911883
0.0916264
0.0921755
0.0928713
0.0937393
0.094782
0.095981
0.0973258
0.0988057
0.100411
0.102142
0.103943
0.105769
0.107576
0.109346
0.111098
0.112827
0.114497
0.116077
0.117561
0.11893
0.120142
0.121151
0.121882
0.12228
0.122464
0.122533
0.122388
0.121604
0.120202
0.118314
0.115987
0.113181
0.110015
0.106767
0.103171
0.0992487
0.09518
0.0910744
0.0869375
0.0827415
0.0786004
0.0745917
0.0707246
0.0670403
0.0635997
0.0604508
0.0576449
0.0552262
0.0532212
0.0516459
0.0505119
0.0498143
0.0494992
0.0495623
0.0499422
0.0506056
0.051529
0.052662
0.0538585
0.0551251
0.0564081
0.0576341
0.0587749
0.0598096
0.0607125
0.061455
0.0620395
0.0624686
0.0627628
0.0629457
0.0630587
0.0631116
0.0631449
0.063192
0.0632794
0.0634354
0.0637026
0.0640854
0.0645982
0.065254
0.0660609
0.0670248
0.0681461
0.0694172
0.0708193
0.163304
0.166082
0.168279
0.169875
0.170841
0.171175
0.170702
0.169358
0.167116
0.163934
0.15977
0.154732
0.14907
0.143005
0.136642
0.130196
0.123372
0.116102
0.109014
0.103014
0.097912
0.0931486
0.088898
0.0854413
0.0828578
0.0806179
0.0788561
0.0776513
0.0767312
0.0760813
0.0757698
0.0757798
0.0760707
0.0766077
0.077349
0.0782517
0.0792685
0.0803708
0.0815678
0.0827133
0.0837719
0.0849575
0.0861265
0.0870455
0.0878015
0.0885378
0.0892139
0.0898354
0.0903671
0.0907925
0.0911507
0.0914838
0.0918333
0.0922124
0.092617
0.0931048
0.0937065
0.0944364
0.0953063
0.096315
0.0974642
0.0987625
0.100199
0.101769
0.103462
0.105224
0.10698
0.108724
0.11052
0.112316
0.114047
0.115686
0.117234
0.11865
0.119888
0.120895
0.121607
0.122071
0.122341
0.122479
0.122312
0.121524
0.120075
0.118109
0.11576
0.113197
0.110356
0.1072
0.103744
0.0999147
0.0957131
0.0915786
0.0874486
0.0830152
0.0786451
0.0744801
0.0704246
0.0666004
0.0630715
0.0598526
0.0569907
0.0545241
0.0524731
0.0508558
0.049694
0.0490029
0.0487386
0.0488563
0.0493407
0.0501283
0.051159
0.0523334
0.0536206
0.0549652
0.0563001
0.0575615
0.058742
0.0598716
0.0608919
0.0616373
0.0622016
0.0626164
0.0628916
0.0630515
0.0631317
0.0631569
0.0631539
0.0631529
0.0632133
0.0633625
0.0635881
0.0639297
0.0644073
0.0650437
0.0658429
0.0668032
0.067923
0.0691948
0.0706031
0.158886
0.161595
0.163768
0.165404
0.166464
0.166905
0.166657
0.165662
0.163888
0.161311
0.157912
0.15371
0.148745
0.143034
0.137696
0.132694
0.125827
0.117959
0.111128
0.105341
0.100077
0.0946782
0.0897754
0.0861071
0.083051
0.0803798
0.078246
0.0769585
0.0758441
0.0751091
0.0747645
0.0747106
0.0748401
0.0751877
0.0758228
0.0766862
0.0777177
0.0789286
0.080259
0.0816427
0.0829924
0.0843353
0.0856104
0.086767
0.0878191
0.0887484
0.089589
0.0904064
0.0911088
0.0916257
0.0920572
0.092462
0.0928521
0.0932211
0.0935694
0.0939733
0.0944889
0.0951077
0.0958453
0.0966817
0.0976068
0.0986699
0.0998979
0.101326
0.102989
0.104735
0.106311
0.107757
0.109419
0.111258
0.113042
0.114757
0.116393
0.117905
0.119248
0.120369
0.1212
0.121644
0.121752
0.122307
0.12294
0.122127
0.120011
0.117684
0.115349
0.112937
0.110121
0.106616
0.102806
0.0989231
0.0949797
0.0909547
0.0868204
0.0825132
0.0781697
0.0743198
0.0702348
0.0663174
0.0626654
0.0592761
0.0562971
0.0537799
0.0517147
0.0500974
0.0489514
0.0482711
0.0480429
0.0481977
0.0487514
0.0496273
0.0507161
0.0519666
0.053425
0.0549415
0.0563685
0.0576658
0.0588567
0.059966
0.0610139
0.0617939
0.0623637
0.0627644
0.0630079
0.0631222
0.063143
0.0631056
0.0630558
0.0630404
0.0630702
0.0631561
0.0633321
0.0636416
0.0640986
0.0647225
0.0655263
0.0665124
0.0676703
0.0689777
0.070409
0.154904
0.157452
0.159596
0.161295
0.162496
0.16314
0.163157
0.162481
0.161065
0.158878
0.155915
0.152207
0.147817
0.142776
0.137297
0.131614
0.125328
0.118717
0.112278
0.10616
0.100888
0.0955001
0.0902074
0.0860978
0.0820811
0.0790821
0.0769973
0.0753155
0.0740035
0.0731659
0.0727484
0.0727037
0.0729873
0.073593
0.0744866
0.0755091
0.076648
0.0779862
0.0794473
0.0809668
0.0824849
0.0839699
0.0854351
0.086833
0.0881305
0.0892757
0.0902755
0.0911168
0.0918677
0.0925052
0.0930331
0.0934772
0.0938483
0.0941587
0.0944592
0.0947824
0.0951664
0.0956228
0.0961647
0.0968351
0.0976223
0.0985254
0.0996052
0.100872
0.102279
0.103769
0.105319
0.106928
0.108637
0.110412
0.112183
0.113917
0.115579
0.117125
0.118508
0.119682
0.120606
0.121239
0.121565
0.12163
0.121352
0.120439
0.118937
0.117067
0.114856
0.11224
0.109204
0.105707
0.101885
0.0979691
0.0940012
0.0895301
0.0848844
0.0806979
0.076662
0.0726441
0.0686794
0.0649695
0.0616109
0.0584628
0.0556671
0.0532467
0.0511452
0.0494395
0.0482783
0.0476436
0.0474663
0.0477131
0.0483412
0.0493187
0.0505115
0.0518689
0.0533738
0.0549546
0.0564864
0.0579172
0.0592141
0.060322
0.0612682
0.0620759
0.0626294
0.0629857
0.0631796
0.0632409
0.0632063
0.0631137
0.0630036
0.0629208
0.0628922
0.0629404
0.0630895
0.0633629
0.063772
0.0643429
0.0650869
0.0660046
0.0670918
0.0683404
0.0697384
0.151317
0.153734
0.155826
0.157534
0.158791
0.15953
0.159685
0.159196
0.158016
0.15611
0.153464
0.150092
0.146039
0.141382
0.136253
0.130736
0.124764
0.118424
0.111991
0.105686
0.0997452
0.094193
0.0888539
0.0843471
0.080312
0.0767236
0.0740742
0.0719012
0.0706758
0.0699701
0.0696577
0.0698106
0.0703644
0.0712533
0.0724248
0.073817
0.0754178
0.0771166
0.0788201
0.0805697
0.0823361
0.0840604
0.0857131
0.0872631
0.0886846
0.0899564
0.0910782
0.0920564
0.0928662
0.0935455
0.0940917
0.0945175
0.0948423
0.0950918
0.0953013
0.0955051
0.0957352
0.0960182
0.0963767
0.0968349
0.0974161
0.0981497
0.099093
0.100237
0.101472
0.102817
0.104273
0.105823
0.107476
0.109213
0.110981
0.112733
0.114423
0.116
0.117415
0.118619
0.119567
0.120226
0.120588
0.120652
0.120329
0.119442
0.11795
0.115963
0.113556
0.110759
0.107574
0.10398
0.10006
0.0959471
0.0916513
0.0871184
0.0825995
0.0783727
0.0742177
0.0697636
0.0660549
0.0626792
0.0594239
0.0564589
0.0538893
0.0517271
0.0499752
0.0486825
0.0478631
0.0473807
0.0472471
0.0475757
0.0483004
0.0493434
0.0506281
0.0520832
0.0536377
0.0552437
0.0568384
0.0583384
0.0596991
0.0608518
0.0617046
0.062443
0.0629831
0.0632953
0.0634209
0.0634037
0.0632841
0.0631022
0.0628985
0.0627152
0.062591
0.0625595
0.0626457
0.0628497
0.0631886
0.0636997
0.0643954
0.0652779
0.0663453
0.0675874
0.0689864
0.147868
0.150135
0.152128
0.15379
0.155058
0.155857
0.156117
0.155773
0.154769
0.153064
0.150636
0.147489
0.143649
0.139163
0.134107
0.128598
0.122694
0.116453
0.110061
0.103727
0.0976144
0.0917895
0.0862495
0.0811707
0.0769003
0.0730676
0.0698814
0.0675101
0.0660349
0.0652853
0.0651739
0.0655527
0.0664018
0.0676939
0.069338
0.0712393
0.0733246
0.0755186
0.0777829
0.0800118
0.0821177
0.0841319
0.0860338
0.0877937
0.0893863
0.0907978
0.0920248
0.093069
0.0939318
0.0946282
0.0951658
0.0955554
0.0958133
0.0959624
0.0960354
0.0960713
0.0961093
0.0961845
0.0963322
0.0965881
0.0969861
0.0975748
0.0983864
0.0993408
0.100395
0.101617
0.102999
0.104517
0.106153
0.107874
0.109633
0.111384
0.113075
0.114656
0.116074
0.117278
0.118219
0.118855
0.119147
0.119057
0.118526
0.117489
0.115932
0.113892
0.111398
0.108483
0.105164
0.101456
0.0974288
0.0931644
0.0887094
0.0840911
0.0794583
0.0749394
0.070503
0.0662478
0.0624982
0.0590835
0.0560378
0.0535216
0.051298
0.0494774
0.0481066
0.0471716
0.0466639
0.0465587
0.0468802
0.0475554
0.048475
0.0496622
0.0510911
0.0526572
0.0542947
0.0559461
0.0575474
0.0590339
0.0603566
0.0614727
0.0623558
0.0630305
0.0634785
0.0637018
0.0637305
0.0636046
0.0633677
0.0630652
0.0627419
0.0624429
0.0622125
0.062089
0.0620881
0.0621992
0.0624515
0.0628845
0.06351
0.0643292
0.0653391
0.0665307
0.0678898
0.144319
0.146447
0.148368
0.15001
0.15129
0.152125
0.152439
0.15216
0.15123
0.149609
0.147271
0.144215
0.140456
0.136029
0.131021
0.125532
0.119609
0.113331
0.10685
0.100348
0.0939902
0.0878835
0.0821097
0.0768136
0.0721513
0.0680828
0.0646903
0.0620828
0.0603035
0.0593794
0.0593245
0.0599792
0.0611909
0.0628673
0.0649848
0.0674397
0.070121
0.0729273
0.0757672
0.0785598
0.0812653
0.0837597
0.0860066
0.0880628
0.0898993
0.0915001
0.0928664
0.0940052
0.0949246
0.0956346
0.0961453
0.0964691
0.0966253
0.0966401
0.096549
0.0963962
0.0962284
0.0960907
0.0960276
0.096087
0.0963226
0.0967747
0.097404
0.0981491
0.0990716
0.100197
0.101503
0.102963
0.10455
0.10623
0.107955
0.109675
0.111338
0.112888
0.11427
0.115432
0.116321
0.116893
0.117103
0.116909
0.116262
0.115113
0.11344
0.111253
0.108575
0.10545
0.101914
0.0979949
0.0937597
0.089293
0.0846572
0.0799183
0.0751895
0.0705648
0.0660814
0.0618393
0.0579558
0.0544719
0.051535
0.0492039
0.047392
0.0460165
0.0450793
0.0446375
0.0446512
0.0450641
0.045838
0.0469234
0.0482905
0.0498601
0.0515083
0.0532279
0.0549903
0.0567212
0.0583579
0.0598488
0.0611503
0.0622261
0.063055
0.0636395
0.0639846
0.0640997
0.0640107
0.0637574
0.0633862
0.0629461
0.0624858
0.0620542
0.0616989
0.0614568
0.0613381
0.0613369
0.061489
0.0618285
0.0623688
0.0631145
0.0640641
0.0652088
0.0665334
0.140685
0.142721
0.144577
0.146165
0.147398
0.148196
0.148481
0.148181
0.147235
0.145601
0.143251
0.140177
0.136387
0.131911
0.126825
0.121219
0.115159
0.108735
0.102086
0.0953756
0.0887668
0.0823945
0.0763823
0.070859
0.0659245
0.061642
0.0580998
0.0553858
0.0535323
0.0525384
0.0524132
0.0531728
0.0547131
0.0568293
0.0593994
0.0623846
0.0656687
0.0691209
0.0726245
0.0760729
0.0793793
0.0824694
0.0852716
0.087736
0.0898912
0.0917504
0.0933126
0.0945869
0.0955872
0.0963261
0.0968178
0.0970792
0.0971302
0.0970005
0.0967335
0.0963823
0.0960037
0.0956557
0.095397
0.0952887
0.0953798
0.0956623
0.0960767
0.0966642
0.0974785
0.0985084
0.099733
0.101127
0.102658
0.104285
0.10596
0.107632
0.109245
0.110742
0.112064
0.113156
0.113963
0.114431
0.114513
0.114163
0.113339
0.112006
0.110149
0.107772
0.104893
0.101543
0.0977627
0.0936112
0.0891444
0.0844403
0.0795803
0.0746557
0.0697671
0.0650062
0.0604558
0.0562121
0.0523608
0.0489614
0.0460893
0.0438144
0.0422425
0.0413139
0.0408855
0.0409132
0.0414417
0.0424134
0.0437541
0.0453913
0.0472507
0.049258
0.0513625
0.0534378
0.055405
0.0572808
0.0590113
0.0605449
0.061847
0.0628934
0.0636704
0.0641777
0.0644234
0.0644239
0.0642088
0.0638199
0.0633058
0.0627189
0.0621119
0.0615368
0.0610415
0.0606598
0.0604026
0.0602731
0.0603064
0.0605345
0.0609741
0.0616289
0.0624976
0.0635721
0.0648372
0.136875
0.138793
0.14053
0.141998
0.143112
0.143791
0.14396
0.14355
0.142501
0.140765
0.13831
0.135123
0.131209
0.126596
0.121335
0.115517
0.109237
0.102583
0.0956841
0.0886995
0.0817954
0.0751279
0.0688466
0.063094
0.0579739
0.0535593
0.0499369
0.0471846
0.0453443
0.0444298
0.044425
0.0453029
0.0470438
0.0495689
0.0526589
0.0561641
0.0600253
0.0641142
0.0682867
0.072416
0.0763893
0.0801114
0.0835146
0.0865343
0.0891252
0.0913147
0.0931382
0.0946042
0.0957273
0.0965267
0.0970224
0.0972324
0.0971825
0.0969134
0.0964795
0.0959443
0.0953761
0.0948446
0.0944199
0.0941624
0.0940919
0.0941674
0.0943985
0.0948639
0.0955687
0.0964981
0.0976339
0.0989483
0.100405
0.101961
0.103567
0.105169
0.106709
0.108127
0.109363
0.110357
0.111051
0.11139
0.111324
0.110806
0.109794
0.108258
0.106183
0.103569
0.100436
0.0968157
0.0927518
0.0882983
0.0835417
0.0785622
0.07344
0.0682814
0.0631956
0.0582806
0.0536345
0.0493544
0.0455232
0.0422168
0.0395018
0.0374176
0.0360204
0.0353756
0.0354344
0.036006
0.0370402
0.0385585
0.0404785
0.0427009
0.045133
0.0476801
0.0502539
0.0527721
0.0551504
0.0572926
0.0591895
0.0608352
0.062198
0.0632592
0.0640143
0.0644678
0.0646335
0.0645345
0.0642047
0.0636884
0.063037
0.0623055
0.0615499
0.0608244
0.0601765
0.0596387
0.0592263
0.0589533
0.0588492
0.0589481
0.0592686
0.0598164
0.0605903
0.0615832
0.0627802
0.132721
0.134483
0.136065
0.137383
0.13835
0.138883
0.138903
0.138338
0.137127
0.135218
0.132576
0.129185
0.125047
0.120189
0.11466
0.108535
0.101908
0.0949051
0.0876528
0.0802981
0.0730228
0.0660018
0.0594051
0.0533867
0.0480748
0.0435655
0.039941
0.0372603
0.0355613
0.034853
0.0351058
0.0362727
0.0383112
0.0411785
0.0447718
0.0488663
0.0533027
0.058007
0.0628367
0.0676407
0.0722892
0.0766699
0.080693
0.0842959
0.0874164
0.0900275
0.0921648
0.0938707
0.0951617
0.096061
0.0965902
0.0967737
0.0966489
0.0962678
0.0956956
0.0950072
0.0942822
0.0936001
0.0930333
0.0926264
0.0923718
0.0922519
0.0923439
0.0926902
0.0932824
0.0941078
0.0951468
0.0963699
0.0977394
0.0992103
0.100731
0.102246
0.103695
0.105016
0.106145
0.107019
0.107577
0.107761
0.107518
0.1068
0.105568
0.103792
0.101458
0.098568
0.0951402
0.0912089
0.0868238
0.0820481
0.0769594
0.0716541
0.0662365
0.0608048
0.0554813
0.0503792
0.0456029
0.0412596
0.0374409
0.0342282
0.0316837
0.0298181
0.0286823
0.0283289
0.0287606
0.029867
0.0314694
0.0335216
0.0360042
0.0388124
0.041832
0.0449536
0.0480698
0.0510814
0.0539067
0.0564638
0.0586641
0.060499
0.0619937
0.0631356
0.0639234
0.0643698
0.0644952
0.0643291
0.0639102
0.0632862
0.0625116
0.0616446
0.0607439
0.0598653
0.0590566
0.0583514
0.0577716
0.0573395
0.0570824
0.0570346
0.0572176
0.0576404
0.0583026
0.0591965
0.0603072
0.128123
0.129726
0.131141
0.132282
0.133063
0.1334
0.133213
0.13243
0.130986
0.128828
0.125919
0.122237
0.11778
0.112574
0.106667
0.100136
0.0930819
0.0856242
0.0779066
0.0701092
0.0624024
0.0549648
0.0480029
0.0416871
0.0361606
0.031549
0.0279491
0.0254035
0.0239483
0.0235805
0.0242437
0.0258652
0.0283769
0.031703
0.0357729
0.0404765
0.0455748
0.0508951
0.0563594
0.0618261
0.0671419
0.0721778
0.0768292
0.0810178
0.0846881
0.0877818
0.0902953
0.0922782
0.0937778
0.0948131
0.0954087
0.0956006
0.095437
0.0949808
0.0943086
0.0935059
0.0926611
0.0918574
0.0911599
0.0905956
0.090152
0.0898737
0.08984
0.0900632
0.0905378
0.0912521
0.0921852
0.0933066
0.0945774
0.0959508
0.0973737
0.0987877
0.100131
0.101337
0.102342
0.103078
0.103482
0.103495
0.103059
0.102126
0.100657
0.098621
0.0960049
0.0928097
0.0890545
0.0847756
0.0800274
0.0748812
0.0694242
0.063756
0.0579867
0.0522441
0.0466436
0.0413195
0.036392
0.0319655
0.0281309
0.0249706
0.0226219
0.0209915
0.0201196
0.0201371
0.0209819
0.0225234
0.024707
0.0273542
0.0303923
0.0337768
0.0373845
0.0410881
0.0447694
0.048316
0.0516298
0.0546319
0.0572377
0.0593839
0.0610814
0.0623699
0.0632537
0.0637485
0.0638823
0.0636903
0.0632166
0.0625124
0.0616358
0.0606478
0.0596098
0.0585795
0.0576062
0.0567268
0.0559705
0.0553662
0.0549424
0.0547302
0.0547607
0.0550442
0.0555807
0.0563638
0.0573796
0.122986
0.124414
0.125646
0.126591
0.127161
0.127273
0.126844
0.125801
0.124073
0.121607
0.118359
0.114306
0.109444
0.103794
0.0974047
0.0903535
0.0827485
0.0747255
0.0664475
0.0580907
0.0498469
0.0419391
0.0345559
0.0278982
0.0221477
0.0174483
0.0139131
0.0115012
0.0103167
0.0104053
0.0116158
0.0138278
0.0169734
0.0209498
0.0256435
0.0309595
0.0367629
0.0428099
0.0489304
0.055041
0.0610055
0.0666823
0.0719535
0.0767253
0.0809321
0.0845286
0.0874633
0.0897585
0.0914949
0.0926966
0.0933943
0.0936329
0.0934705
0.0929805
0.0922496
0.0913717
0.0904397
0.0895344
0.0887104
0.0879825
0.08737
0.0869614
0.0868025
0.0868996
0.0872521
0.087849
0.0886688
0.0896806
0.0908443
0.0921114
0.0934274
0.0947318
0.0959596
0.0970427
0.097912
0.0984987
0.0987362
0.0985619
0.0979181
0.0967546
0.0950299
0.0927148
0.0897943
0.0862703
0.0821623
0.0775093
0.0723692
0.0668195
0.0609551
0.054887
0.0487385
0.0426393
0.0367311
0.0311463
0.0260249
0.0214775
0.0175942
0.014467
0.0125444
0.0111768
0.0101745
0.0106407
0.0121231
0.014088
0.0167925
0.0200842
0.023736
0.0276916
0.0318796
0.0361628
0.0404105
0.0445028
0.0483297
0.0517996
0.054842
0.0573777
0.059375
0.0608696
0.0619071
0.0625066
0.0626991
0.0625258
0.0620351
0.061282
0.0603278
0.0592366
0.0580727
0.056896
0.0557583
0.0547021
0.0537636
0.0529774
0.0523722
0.0519841
0.0518504
0.0519829
0.0523833
0.0530468
0.0539593
0.117205
0.118452
0.119488
0.120224
0.120568
0.12043
0.119725
0.118377
0.116316
0.113482
0.10983
0.105334
0.0999872
0.0938089
0.0868477
0.0791836
0.0709298
0.0622328
0.0532704
0.0442466
0.0353835
0.0269083
0.0190517
0.0120185
0.00597294
0.00110603
-0.00219969
-0.00440015
-0.00536786
-0.00469846
-0.00282827
7.64156e-05
0.00398975
0.00876345
0.0142381
0.0202942
0.026821