/*--------------------------------*- C++ -*----------------------------------*\
| =========                 |                                                 |
| \\      /  F ield         | OpenFOAM: The Open Source CFD Toolbox           |
|  \\    /   O peration     | Version:  2206                                  |
|   \\  /    A nd           | Website:  www.openfoam.com                      |
|    \\/     M anipulation  |                                                 |
\*---------------------------------------------------------------------------*/
FoamFile
{
    version     2.0;
    format      ascii;
    arch        "LSB;label=32;scalar=64";
    class       volVectorField;
    location    "18.6999";
    object      ddt0(U);
}
// * * * * * * * * * * * * * * * * * * * * * * * * * * * * * * * * * * * * * //

dimensions      [0 1 -2 0 0 0 0];

internalField   nonuniform List<vector> 
1865
(
(-4.37986 18.8568 0)
(-6.51496 16.4539 0)
(-8.2027 13.5167 0)
(-9.45379 10.2395 0)
(-10.423 6.77129 0)
(-11.1995 3.21717 0)
(-11.5908 -0.312638 0)
(-11.7727 -3.81127 0)
(-11.6232 -7.17823 0)
(-11.1285 -10.215 0)
(-10.3674 -12.8411 0)
(-9.36594 -15.0287 0)
(-8.07206 -16.6865 0)
(-6.40612 -17.5818 0)
(-4.50226 -17.7743 0)
(-2.50295 -17.3442 0)
(-0.485396 -16.3381 0)
(1.46384 -14.8206 0)
(3.26672 -12.8751 0)
(4.88086 -10.6154 0)
(6.34847 -8.14123 0)
(7.72271 -5.49514 0)
(8.81759 -2.7648 0)
(9.62048 -0.158867 0)
(10.1636 2.34594 0)
(10.3428 4.76098 0)
(10.1222 6.98724 0)
(9.5316 8.96193 0)
(8.61591 10.6722 0)
(7.41563 12.1074 0)
(5.96285 13.2074 0)
(4.27602 13.8067 0)
(2.48322 13.9257 0)
(0.697703 13.5386 0)
(-1.00694 12.6636 0)
(-2.55809 11.3474 0)
(-3.88744 9.6684 0)
(-4.96099 7.73102 0)
(-5.82613 5.62818 0)
(-6.56762 3.42107 0)
(-7.09358 1.19378 0)
(-7.44345 -0.984727 0)
(-7.62527 -3.16362 0)
(-7.56225 -5.22185 0)
(-7.28051 -7.05743 0)
(-6.82499 -8.64703 0)
(-6.18841 -9.95538 0)
(-5.32599 -10.8907 0)
(-4.21354 -11.3139 0)
(-2.9845 -11.3274 0)
(-1.69763 -10.9426 0)
(-0.410509 -10.1938 0)
(0.817344 -9.12417 0)
(1.93173 -7.7976 0)
(2.91402 -6.29781 0)
(3.82187 -4.68758 0)
(4.69653 -2.96975 0)
(5.3599 -1.20831 0)
(5.907 0.459909 0)
(6.29024 2.08277 0)
(6.44962 3.62946 0)
(6.37281 5.0344 0)
(6.072 6.26507 0)
(5.55565 7.30273 0)
(4.83239 8.11466 0)
(3.89743 8.59708 0)
(2.84237 8.78736 0)
(1.73428 8.66379 0)
(0.636048 8.23681 0)
(-0.408271 7.53033 0)
(-1.34994 6.58381 0)
(-2.15215 5.45797 0)
(-2.82293 4.21583 0)
(-3.42334 2.89141 0)
(-3.92735 1.50969 0)
(-4.28582 0.156517 0)
(-4.56947 -1.16792 0)
(-4.72193 -2.47476 0)
(-4.72162 -3.68228 0)
(-4.59108 -4.75153 0)
(-4.34545 -5.67228 0)
(-3.96453 -6.40428 0)
(-3.40706 -6.85392 0)
(-2.71368 -7.01998 0)
(-1.95276 -6.93308 0)
(-1.15511 -6.60631 0)
(-0.361734 -6.06174 0)
(0.38556 -5.33016 0)
(1.05051 -4.46226 0)
(1.63462 -3.51577 0)
(2.20265 -2.5154 0)
(2.73775 -1.43828 0)
(3.15737 -0.366587 0)
(3.52352 0.654487 0)
(3.7836 1.6561 0)
(3.90703 2.59125 0)
(3.89636 3.42787 0)
(3.75485 4.15218 0)
(3.47484 4.74124 0)
(3.04271 5.14268 0)
(2.48489 5.33947 0)
(1.85487 5.35074 0)
(1.19693 5.17413 0)
(0.542059 4.8204 0)
(-0.0768391 4.30831 0)
(-0.627726 3.67057 0)
(-1.0955 2.95012 0)
(-1.50825 2.18032 0)
(-1.9034 1.36011 0)
(-2.20263 0.514975 0)
(-2.45792 -0.291006 0)
(-2.65372 -1.09016 0)
(-2.7616 -1.85884 0)
(-2.7804 -2.55736 0)
(-2.72226 -3.17632 0)
(-2.58466 -3.70386 0)
(-2.35016 -4.10886 0)
(-1.98911 -4.32209 0)
(-1.56054 -4.39682 0)
(-1.06611 -4.31082 0)
(-0.565212 -4.10002 0)
(-0.0179714 -3.73066 0)
(0.37963 -3.42247 0)
(1.10553 -2.57908 0)
(-4.30534 21.0908 0)
(-6.01947 18.2351 0)
(-7.22356 14.7946 0)
(-7.87911 11.0864 0)
(-8.17588 7.37683 0)
(-8.54482 3.68943 0)
(-8.79518 -0.00907974 0)
(-8.92077 -3.79806 0)
(-8.78952 -7.51623 0)
(-8.34333 -10.8417 0)
(-7.70586 -13.7022 0)
(-6.90613 -16.0922 0)
(-5.92631 -17.9721 0)
(-4.71129 -19.2479 0)
(-3.20845 -19.5808 0)
(-1.584 -19.1983 0)
(0.0562516 -18.1575 0)
(1.63015 -16.5253 0)
(3.0508 -14.3976 0)
(4.23219 -11.9107 0)
(5.1277 -9.22043 0)
(5.83682 -6.46389 0)
(6.58246 -3.65475 0)
(7.14636 -0.820496 0)
(7.57409 1.93986 0)
(7.78109 4.7197 0)
(7.63495 7.30304 0)
(7.19855 9.58293 0)
(6.53097 11.5635 0)
(5.66013 13.2386 0)
(4.60806 14.583 0)
(3.35134 15.4667 0)
(1.90352 15.6307 0)
(0.414867 15.2181 0)
(-1.02473 14.2305 0)
(-2.333 12.7161 0)
(-3.41904 10.7755 0)
(-4.20471 8.56145 0)
(-4.6801 6.24696 0)
(-5.03484 3.93525 0)
(-5.42394 1.60095 0)
(-5.66553 -0.696148 0)
(-5.83666 -3.11371 0)
(-5.75382 -5.41048 0)
(-5.47807 -7.43387 0)
(-5.08137 -9.17789 0)
(-4.5713 -10.6267 0)
(-3.93719 -11.748 0)
(-3.12618 -12.4174 0)
(-2.14801 -12.4983 0)
(-1.11331 -12.1332 0)
(-0.0775705 -11.3471 0)
(0.907229 -10.1899 0)
(1.78365 -8.73424 0)
(2.49443 -7.07694 0)
(3.01582 -5.32834 0)
(3.457 -3.56824 0)
(3.94981 -1.76166 0)
(4.29378 0.0345862 0)
(4.60287 1.81336 0)
(4.74264 3.57687 0)
(4.67933 5.18219 0)
(4.46126 6.58134 0)
(4.11113 7.7794 0)
(3.63592 8.76895 0)
(3.02076 9.49755 0)
(2.23836 9.79233 0)
(1.36894 9.69803 0)
(0.485578 9.25029 0)
(-0.373108 8.46842 0)
(-1.15298 7.39795 0)
(-1.79648 6.11813 0)
(-2.26043 4.72844 0)
(-2.57943 3.32029 0)
(-2.91142 1.90253 0)
(-3.18365 0.462358 0)
(-3.41534 -0.940573 0)
(-3.55883 -2.40585 0)
(-3.53521 -3.76429 0)
(-3.40254 -4.94803 0)
(-3.1935 -5.96413 0)
(-2.9083 -6.79883 0)
(-2.52972 -7.41612 0)
(-2.01828 -7.69562 0)
(-1.42248 -7.65214 0)
(-0.795218 -7.33503 0)
(-0.168061 -6.76372 0)
(0.425422 -5.97426 0)
(0.945522 -5.02073 0)
(1.35381 -3.9707 0)
(1.6492 -2.89742 0)
(1.94709 -1.82848 0)
(2.24945 -0.711413 0)
(2.4937 0.370562 0)
(2.70448 1.48699 0)
(2.78956 2.54908 0)
(2.77079 3.4895 0)
(2.67451 4.30416 0)
(2.50321 4.99367 0)
(2.24998 5.54198 0)
(1.89024 5.87759 0)
(1.42994 5.93779 0)
(0.93082 5.78107 0)
(0.420851 5.41207 0)
(-0.0741821 4.85219 0)
(-0.519821 4.13922 0)
(-0.880611 3.32667 0)
(-1.13498 2.47627 0)
(-1.33684 1.63473 0)
(-1.57119 0.774245 0)
(-1.74589 -0.0790178 0)
(-1.91559 -0.944634 0)
(-2.00157 -1.81011 0)
(-1.99856 -2.59509 0)
(-1.93747 -3.28125 0)
(-1.82656 -3.86759 0)
(-1.66487 -4.34773 0)
(-1.43373 -4.68879 0)
(-1.11389 -4.8146 0)
(-0.740762 -4.7628 0)
(-0.349515 -4.58012 0)
(0.0760759 -4.17492 0)
(0.389762 -3.8707 0)
(0.920572 -3.00953 0)
(-4.03109 22.7704 0)
(-5.01256 19.4463 0)
(-5.60078 15.4741 0)
(-5.71453 11.2873 0)
(-5.3274 7.36913 0)
(-5.0479 3.90992 0)
(-5.27094 0.148667 0)
(-5.6148 -3.88199 0)
(-5.70577 -7.80267 0)
(-5.44018 -11.2976 0)
(-5.08657 -14.3065 0)
(-4.64788 -16.8439 0)
(-4.0763 -18.8914 0)
(-3.34721 -20.3693 0)
(-2.37244 -20.9812 0)
(-1.19531 -20.6572 0)
(0.0598361 -19.6074 0)
(1.31493 -17.8718 0)
(2.47724 -15.5474 0)
(3.43292 -12.7929 0)
(4.07259 -9.81888 0)
(4.34602 -6.8693 0)
(4.55308 -4.10409 0)
(4.97064 -1.25514 0)
(5.31409 1.68828 0)
(5.5748 4.73657 0)
(5.4288 7.57345 0)
(5.0534 10.063 0)
(4.52924 12.2188 0)
(3.84532 14.0383 0)
(3.02032 15.5178 0)
(2.05052 16.5795 0)
(0.945629 16.9141 0)
(-0.172771 16.5228 0)
(-1.22146 15.4752 0)
(-2.14663 13.7983 0)
(-2.88163 11.6004 0)
(-3.34839 9.07561 0)
(-3.46377 6.48949 0)
(-3.28786 4.1209 0)
(-3.36906 1.91008 0)
(-3.55618 -0.544705 0)
(-3.86382 -3.12743 0)
(-3.8201 -5.57083 0)
(-3.61326 -7.7217 0)
(-3.37133 -9.56761 0)
(-3.06446 -11.107 0)
(-2.68403 -12.3319 0)
(-2.20095 -13.1695 0)
(-1.56243 -13.3692 0)
(-0.828655 -13.0418 0)
(-0.057226 -12.2462 0)
(0.709635 -11.0208 0)
(1.41023 -9.43527 0)
(1.96953 -7.60474 0)
(2.31489 -5.68327 0)
(2.43549 -3.83636 0)
(2.60379 -2.11459 0)
(2.87197 -0.259856 0)
(3.16893 1.6577 0)
(3.33721 3.56448 0)
(3.27247 5.30552 0)
(3.09703 6.82562 0)
(2.83877 8.12465 0)
(2.49182 9.19682 0)
(2.05982 10.018 0)
(1.5147 10.4716 0)
(0.872032 10.4358 0)
(0.212198 10.0135 0)
(-0.434264 9.20384 0)
(-1.02468 8.04473 0)
(-1.49841 6.61763 0)
(-1.79092 5.05309 0)
(-1.85422 3.51569 0)
(-1.8272 2.13705 0)
(-1.9947 0.72994 0)
(-2.19616 -0.799153 0)
(-2.39911 -2.37106 0)
(-2.36344 -3.82333 0)
(-2.24904 -5.08791 0)
(-2.11119 -6.16811 0)
(-1.9293 -7.06145 0)
(-1.70253 -7.75323 0)
(-1.39837 -8.16256 0)
(-1.00465 -8.1685 0)
(-0.566166 -7.87879 0)
(-0.10626 -7.30256 0)
(0.346919 -6.4675 0)
(0.751346 -5.4285 0)
(1.05986 -4.27166 0)
(1.22358 -3.09959 0)
(1.2696 -2.01323 0)
(1.42803 -0.967546 0)
(1.6121 0.182705 0)
(1.84102 1.37529 0)
(1.90757 2.51357 0)
(1.87741 3.52849 0)
(1.80697 4.40976 0)
(1.68824 5.15389 0)
(1.52127 5.7538 0)
(1.29611 6.17841 0)
(0.98834 6.31203 0)
(0.62929 6.19234 0)
(0.251498 5.84143 0)
(-0.126129 5.26788 0)
(-0.471212 4.50268 0)
(-0.745102 3.60619 0)
(-0.906257 2.66076 0)
(-0.929416 1.76445 0)
(-0.961459 0.969915 0)
(-1.09524 0.0881796 0)
(-1.26217 -0.847341 0)
(-1.34919 -1.76971 0)
(-1.3257 -2.60959 0)
(-1.26805 -3.34434 0)
(-1.1861 -3.97185 0)
(-1.07424 -4.49186 0)
(-0.930702 -4.88636 0)
(-0.733455 -5.10054 0)
(-0.48128 -5.08345 0)
(-0.198887 -4.9379 0)
(0.0969908 -4.49948 0)
(0.335403 -4.19164 0)
(0.727968 -3.31543 0)
(-1.84145 23.4464 0)
(-2.02249 19.8424 0)
(-2.16841 15.5202 0)
(-2.19691 10.9113 0)
(-1.87894 6.63145 0)
(-1.79312 3.11584 0)
(-1.81734 1.26056 0)
(-2.38744 -3.46362 0)
(-2.76393 -7.79839 0)
(-2.80317 -11.3898 0)
(-2.77518 -14.5139 0)
(-2.68607 -17.1513 0)
(-2.51156 -19.3131 0)
(-2.24665 -20.9616 0)
(-1.82329 -21.8514 0)
(-1.2106 -21.6853 0)
(-0.471484 -20.7469 0)
(0.343202 -19.0246 0)
(1.15369 -16.5731 0)
(1.8461 -13.5496 0)
(2.30018 -10.2291 0)
(2.36491 -6.97967 0)
(2.27862 -4.10358 0)
(2.39199 -1.73787 0)
(2.74001 1.18261 0)
(3.13137 4.76518 0)
(3.02867 7.80116 0)
(2.74254 10.4991 0)
(2.39223 12.8363 0)
(1.93757 14.8162 0)
(1.39762 16.4465 0)
(0.794738 17.6235 0)
(0.184644 17.938 0)
(-0.313331 17.4362 0)
(-0.711465 16.2525 0)
(-1.04057 14.4128 0)
(-1.30214 11.9913 0)
(-1.4681 9.16275 0)
(-1.47126 6.24941 0)
(-1.22657 3.67815 0)
(-1.26179 1.65198 0)
(-1.35912 0.424159 0)
(-1.735 -3.18759 0)
(-1.82957 -5.65026 0)
(-1.79354 -7.85265 0)
(-1.75311 -9.75727 0)
(-1.66731 -11.3492 0)
(-1.5311 -12.6369 0)
(-1.35193 -13.5694 0)
(-1.08312 -13.9315 0)
(-0.718092 -13.679 0)
(-0.29307 -12.9388 0)
(0.163267 -11.704 0)
(0.609161 -10.0217 0)
(0.985658 -8.00932 0)
(1.20815 -5.85825 0)
(1.16465 -3.82437 0)
(1.17366 -2.06012 0)
(1.26277 -0.742664 0)
(1.53765 1.33469 0)
(1.73567 3.54674 0)
(1.71249 5.4068 0)
(1.61872 7.0351 0)
(1.48231 8.42503 0)
(1.2835 9.58609 0)
(1.03111 10.5094 0)
(0.728715 11.0682 0)
(0.386665 11.0423 0)
(0.0612912 10.6002 0)
(-0.232371 9.74111 0)
(-0.489521 8.48041 0)
(-0.695527 6.88898 0)
(-0.822951 5.11397 0)
(-0.807241 3.36992 0)
(-0.710803 1.88777 0)
(-0.725069 0.844526 0)
(-0.865151 -0.302439 0)
(-1.08053 -2.41635 0)
(-1.0974 -3.89056 0)
(-1.06461 -5.19588 0)
(-1.03113 -6.30925 0)
(-0.970376 -7.22743 0)
(-0.887493 -7.95057 0)
(-0.77384 -8.43355 0)
(-0.607343 -8.50623 0)
(-0.394576 -8.26111 0)
(-0.153328 -7.70758 0)
(0.104179 -6.85636 0)
(0.34921 -5.7462 0)
(0.537406 -4.46237 0)
(0.6141 -3.14382 0)
(0.544384 -1.96807 0)
(0.625175 -0.988781 0)
(0.703508 -0.287848 0)
(0.893561 1.32781 0)
(0.952166 2.51829 0)
(0.935431 3.58308 0)
(0.905166 4.51421 0)
(0.847965 5.30425 0)
(0.759797 5.95314 0)
(0.638434 6.43658 0)
(0.466785 6.64772 0)
(0.269757 6.54516 0)
(0.0785281 6.19425 0)
(-0.104563 5.59381 0)
(-0.269429 4.7659 0)
(-0.400222 3.76604 0)
(-0.469423 2.68637 0)
(-0.428544 1.66305 0)
(-0.423886 0.818607 0)
(-0.425457 0.375434 0)
(-0.538327 -0.718607 0)
(-0.613189 -1.7908 0)
(-0.605561 -2.66466 0)
(-0.580802 -3.43057 0)
(-0.546064 -4.07848 0)
(-0.495034 -4.61468 0)
(-0.432563 -5.02998 0)
(-0.350984 -5.28857 0)
(-0.23527 -5.31535 0)
(-0.0905961 -5.1737 0)
(0.0481792 -4.73071 0)
(0.199865 -4.47906 0)
(0.430331 -3.51975 0)
(0.931471 23.2831 0)
(0.969547 19.8338 0)
(0.856282 15.6884 0)
(0.606189 11.1793 0)
(0.315766 6.85395 0)
(0.0928222 3.3595 0)
(-0.088393 1.49321 0)
(-0.384469 -3.12027 0)
(-0.745144 -7.55892 0)
(-1.00852 -11.1846 0)
(-1.18134 -14.388 0)
(-1.27252 -17.0852 0)
(-1.31542 -19.2958 0)
(-1.22092 -21.0074 0)
(-0.98703 -22.0459 0)
(-0.672063 -21.9891 0)
(-0.370298 -21.1513 0)
(-0.0878799 -19.4996 0)
(0.173397 -17.0561 0)
(0.386557 -13.9522 0)
(0.520648 -10.4542 0)
(0.521986 -6.92362 0)
(0.351566 -3.78957 0)
(0.170232 -1.6793 0)
(0.240056 0.384296 0)
(0.349469 4.79941 0)
(0.27088 7.85916 0)
(0.184311 10.6047 0)
(0.138985 12.9834 0)
(0.119487 14.979 0)
(0.142569 16.6049 0)
(0.235531 17.7527 0)
(0.399385 17.9918 0)
(0.52784 17.4489 0)
(0.607678 16.2583 0)
(0.625801 14.4458 0)
(0.578422 12.0729 0)
(0.467446 9.29603 0)
(0.306072 6.40039 0)
(0.146781 3.75581 0)
(0.0634587 1.75687 0)
(-0.0700296 0.619986 0)
(-0.256378 -3.00379 0)
(-0.449279 -5.51229 0)
(-0.591926 -7.73506 0)
(-0.696323 -9.68434 0)
(-0.75746 -11.312 0)
(-0.761521 -12.6218 0)
(-0.729915 -13.5862 0)
(-0.608953 -14.0225 0)
(-0.453422 -13.8205 0)
(-0.298791 -13.124 0)
(-0.153589 -11.9289 0)
(-0.0206366 -10.269 0)
(0.0921752 -8.22053 0)
(0.166949 -5.96092 0)
(0.165534 -3.78264 0)
(0.0825331 -1.97475 0)
(0.0560348 -0.850082 0)
(0.1259 1.12997 0)
(0.162802 3.45545 0)
(0.150661 5.35083 0)
(0.142028 7.01626 0)
(0.145787 8.43247 0)
(0.160985 9.61217 0)
(0.200712 10.5448 0)
(0.262083 11.1134 0)
(0.350407 11.0834 0)
(0.415891 10.6367 0)
(0.44637 9.78151 0)
(0.438042 8.54018 0)
(0.394179 6.97592 0)
(0.314342 5.21882 0)
(0.213429 3.46129 0)
(0.127523 1.92315 0)
(0.0748251 0.888521 0)
(-0.01513 -0.131212 0)
(-0.137244 -2.32759 0)
(-0.246702 -3.79921 0)
(-0.340252 -5.12101 0)
(-0.414076 -6.25559 0)
(-0.460335 -7.19293 0)
(-0.471799 -7.9367 0)
(-0.442059 -8.44315 0)
(-0.373737 -8.55085 0)
(-0.294266 -8.32686 0)
(-0.212283 -7.80467 0)
(-0.131835 -6.9782 0)
(-0.056956 -5.86763 0)
(0.00582409 -4.55639 0)
(0.0460933 -3.19289 0)
(0.041258 -1.95105 0)
(0.00631845 -0.996029 0)
(0.0271163 -0.370814 0)
(0.0779708 1.24304 0)
(0.0870208 2.45724 0)
(0.0847837 3.53333 0)
(0.0902676 4.47911 0)
(0.100402 5.28015 0)
(0.118014 5.94114 0)
(0.148117 6.44147 0)
(0.197321 6.66909 0)
(0.241045 6.56955 0)
(0.271334 6.22418 0)
(0.282234 5.63155 0)
(0.272318 4.81529 0)
(0.241742 3.82531 0)
(0.194442 2.74498 0)
(0.142542 1.71023 0)
(0.102254 0.870639 0)
(0.0655482 0.381989 0)
(0.0112124 -0.659259 0)
(-0.064649 -1.72977 0)
(-0.132608 -2.61147 0)
(-0.190448 -3.39034 0)
(-0.236244 -4.05048 0)
(-0.265304 -4.59773 0)
(-0.27285 -5.02521 0)
(-0.250051 -5.30122 0)
(-0.203977 -5.3534 0)
(-0.156632 -5.21528 0)
(-0.110013 -4.77728 0)
(-0.0544852 -4.59913 0)
(0.00727132 -3.58366 0)
(0.14818 -5.42093 0)
(0.166848 -5.27703 0)
(0.175931 -4.82813 0)
(0.171527 -4.62236 0)
(0.141795 -3.58465 0)
(-2.02883 0.317806 0)
(-2.65876 0.268173 0)
(-3.17977 0.211011 0)
(-3.57429 0.148345 0)
(-3.8315 0.0826811 0)
(-3.94625 0.0154166 0)
(-3.91741 -0.0507431 0)
(-3.75291 -0.112215 0)
(-3.46307 -0.167027 0)
(-3.06385 -0.213594 0)
(-2.5737 -0.251011 0)
(-2.0124 -0.278797 0)
(-1.39826 -0.296896 0)
(-0.746463 -0.309825 0)
(-0.139214 -0.351279 0)
(0.448769 -0.307017 0)
(1.03045 -0.270495 0)
(1.55975 -0.235752 0)
(2.02074 -0.19868 0)
(2.40452 -0.159128 0)
(2.70393 -0.117586 0)
(2.91392 -0.0747666 0)
(3.03193 -0.0308548 0)
(3.0548 0.0134753 0)
(2.98543 0.0567035 0)
(2.82573 0.0977222 0)
(2.58124 0.135739 0)
(2.25925 0.169682 0)
(1.86852 0.198695 0)
(1.4179 0.22184 0)
(0.914201 0.242194 0)
(0.42431 0.287869 0)
(-0.0664747 0.262397 0)
(-0.571032 0.239266 0)
(-1.04754 0.214929 0)
(-1.47505 0.185408 0)
(-1.84018 0.151627 0)
(-2.13184 0.11438 0)
(-2.34189 0.0748306 0)
(-2.46581 0.0340238 0)
(-2.50093 -0.00713379 0)
(-2.44977 -0.0468118 0)
(-2.31705 -0.083118 0)
(-2.11039 -0.115214 0)
(-1.83972 -0.142102 0)
(-1.51631 -0.163182 0)
(-1.15257 -0.178577 0)
(-0.760555 -0.188126 0)
(-0.351276 -0.194349 0)
(0.0285773 -0.215899 0)
(0.393158 -0.185442 0)
(0.749547 -0.161717 0)
(1.06801 -0.138676 0)
(1.33956 -0.114004 0)
(1.55868 -0.0877327 0)
(1.72104 -0.0602795 0)
(1.82434 -0.032115 0)
(1.86685 -0.00351661 0)
(1.84838 0.0246355 0)
(1.77167 0.051304 0)
(1.63976 0.0758885 0)
(1.45775 0.0977094 0)
(1.23166 0.116227 0)
(0.968504 0.1311 0)
(0.675698 0.140802 0)
(0.368473 0.147458 0)
(0.0588462 0.160499 0)
(-0.240988 0.147008 0)
(-0.533976 0.134434 0)
(-0.80192 0.117881 0)
(-1.03492 0.0985475 0)
(-1.22585 0.0769041 0)
(-1.36931 0.0535567 0)
(-1.46196 0.0292587 0)
(-1.50171 0.00438192 0)
(-1.48856 -0.0200659 0)
(-1.4251 -0.0428036 0)
(-1.31482 -0.0633273 0)
(-1.16314 -0.0811693 0)
(-0.976436 -0.0957587 0)
(-0.761777 -0.10661 0)
(-0.525986 -0.113265 0)
(-0.276986 -0.116957 0)
(-0.0358571 -0.129352 0)
(0.195246 -0.115867 0)
(0.420794 -0.103746 0)
(0.625862 -0.0905715 0)
(0.803633 -0.0758641 0)
(0.949798 -0.0598121 0)
(1.06117 -0.0428113 0)
(1.13573 -0.025302 0)
(1.17247 -0.00741656 0)
(1.17094 0.010305 0)
(1.13295 0.0270702 0)
(1.0603 0.0424457 0)
(0.95628 0.0561075 0)
(0.824763 0.0678078 0)
(0.670115 0.0771513 0)
(0.49643 0.0836395 0)
(0.308019 0.0887866 0)
(0.124615 0.102931 0)
(-0.0535363 0.0916847 0)
(-0.232778 0.083155 0)
(-0.397782 0.0730933 0)
(-0.542419 0.0615911 0)
(-0.662552 0.048772 0)
(-0.754776 0.0349379 0)
(-0.81677 0.0204603 0)
(-0.847284 0.00550709 0)
(-0.845411 -0.00942286 0)
(-0.812718 -0.0236266 0)
(-0.750582 -0.0366929 0)
(-0.6619 -0.0482836 0)
(-0.550152 -0.0580491 0)
(-0.419355 -0.0657011 0)
(-0.273638 -0.07119 0)
(-0.116803 -0.0747771 0)
(0.0324666 -0.0826649 0)
(0.178037 -0.0748369 0)
(0.31988 -0.0646962 0)
(0.446789 -0.054365 0)
(0.549853 -0.0403407 0)
(0.628546 -0.0249379 0)
(0.640353 0.000193433 0)
(-2.5008 1.00312 0)
(-3.12235 0.845222 0)
(-3.62006 0.659361 0)
(-3.9771 0.45395 0)
(-4.18468 0.238241 0)
(-4.23096 0.019741 0)
(-4.13045 -0.192701 0)
(-3.88608 -0.389495 0)
(-3.51301 -0.563626 0)
(-3.03094 -0.709942 0)
(-2.46211 -0.824815 0)
(-1.83044 -0.906502 0)
(-1.1631 -0.956498 0)
(-0.497055 -0.986551 0)
(0.206923 -1.00694 0)
(0.880774 -0.928127 0)
(1.46237 -0.837677 0)
(1.9824 -0.734256 0)
(2.42794 -0.617537 0)
(2.78648 -0.490164 0)
(3.0511 -0.355064 0)
(3.21865 -0.215344 0)
(3.28543 -0.0732976 0)
(3.25254 0.0685492 0)
(3.12502 0.206539 0)
(2.9052 0.336498 0)
(2.60072 0.455257 0)
(2.22079 0.560195 0)
(1.77692 0.648119 0)
(1.28549 0.719141 0)
(0.76829 0.78282 0)
(0.193399 0.822292 0)
(-0.376658 0.799238 0)
(-0.897127 0.748841 0)
(-1.37895 0.677979 0)
(-1.80712 0.587334 0)
(-2.16448 0.4791 0)
(-2.43916 0.357221 0)
(-2.62368 0.226794 0)
(-2.71352 0.0928304 0)
(-2.70543 -0.0405419 0)
(-2.60871 -0.168129 0)
(-2.42634 -0.284558 0)
(-2.16829 -0.386356 0)
(-1.84673 -0.471194 0)
(-1.47544 -0.53722 0)
(-1.06897 -0.582368 0)
(-0.644063 -0.606681 0)
(-0.223285 -0.618061 0)
(0.216245 -0.623139 0)
(0.631843 -0.567816 0)
(0.987424 -0.506406 0)
(1.3016 -0.436317 0)
(1.5651 -0.357468 0)
(1.77022 -0.272134 0)
(1.91285 -0.182599 0)
(1.99197 -0.0907724 0)
(2.00334 0.00175342 0)
(1.95282 0.0923398 0)
(1.8419 0.177481 0)
(1.675 0.2551 0)
(1.45838 0.323578 0)
(1.19964 0.381169 0)
(0.906681 0.426514 0)
(0.589937 0.46124 0)
(0.259745 0.485217 0)
(-0.0808676 0.485517 0)
(-0.410348 0.462161 0)
(-0.710607 0.423693 0)
(-0.979775 0.372747 0)
(-1.20914 0.310893 0)
(-1.39087 0.240452 0)
(-1.5197 0.164041 0)
(-1.5934 0.0843968 0)
(-1.60767 0.00371998 0)
(-1.5682 -0.0749525 0)
(-1.4758 -0.148299 0)
(-1.33582 -0.213925 0)
(-1.15474 -0.269691 0)
(-0.939884 -0.314367 0)
(-0.699559 -0.347003 0)
(-0.443858 -0.367514 0)
(-0.185198 -0.380954 0)
(0.0880344 -0.382896 0)
(0.344427 -0.357732 0)
(0.572447 -0.324836 0)
(0.775809 -0.284226 0)
(0.948319 -0.236929 0)
(1.08509 -0.184597 0)
(1.1832 -0.128976 0)
(1.24137 -0.0717327 0)
(1.25754 -0.0138508 0)
(1.23464 0.0429446 0)
(1.17354 0.0964809 0)
(1.0773 0.145562 0)
(0.949912 0.188672 0)
(0.796083 0.224701 0)
(0.621192 0.252979 0)
(0.432351 0.274207 0)
(0.236605 0.292184 0)
(0.0250105 0.297496 0)
(-0.178733 0.283574 0)
(-0.361404 0.260687 0)
(-0.52694 0.231011 0)
(-0.669833 0.194914 0)
(-0.784958 0.153417 0)
(-0.868872 0.108004 0)
(-0.919729 0.060335 0)
(-0.935454 0.0116127 0)
(-0.917609 -0.0365138 0)
(-0.867406 -0.0821268 0)
(-0.786955 -0.123782 0)
(-0.679727 -0.160344 0)
(-0.549928 -0.190803 0)
(-0.402437 -0.214285 0)
(-0.243058 -0.230067 0)
(-0.0801133 -0.239816 0)
(0.0921521 -0.246269 0)
(0.260028 -0.229138 0)
(0.406637 -0.204966 0)
(0.539772 -0.173277 0)
(0.639333 -0.132564 0)
(0.732285 -0.0835801 0)
(0.740751 0.00643366 0)
(-2.62351 1.72153 0)
(-3.31163 1.44668 0)
(-3.86699 1.11956 0)
(-4.26967 0.756518 0)
(-4.50994 0.374479 0)
(-4.57235 -0.010248 0)
(-4.4726 -0.381594 0)
(-4.21793 -0.724774 0)
(-3.82352 -1.02651 0)
(-3.31091 -1.27738 0)
(-2.7038 -1.47141 0)
(-2.02724 -1.60659 0)
(-1.30668 -1.68507 0)
(-0.569231 -1.70957 0)
(0.176537 -1.66404 0)
(0.885266 -1.55713 0)
(1.52532 -1.41843 0)
(2.09393 -1.24502 0)
(2.57865 -1.043 0)
(2.96917 -0.81968 0)
(3.2592 -0.582128 0)
(3.4461 -0.336804 0)
(3.52624 -0.0887116 0)
(3.49834 0.156916 0)
(3.37093 0.394338 0)
(3.14501 0.61759 0)
(2.82812 0.820724 0)
(2.42941 0.99868 0)
(1.95959 1.14842 0)
(1.43214 1.26863 0)
(0.862752 1.35444 0)
(0.25484 1.37504 0)
(-0.350731 1.3468 0)
(-0.926067 1.27927 0)
(-1.45713 1.16524 0)
(-1.92802 1.00956 0)
(-2.32218 0.819908 0)
(-2.62655 0.605266 0)
(-2.83267 0.375056 0)
(-2.93619 0.13787 0)
(-2.93026 -0.0968831 0)
(-2.82897 -0.319562 0)
(-2.63458 -0.521995 0)
(-2.3587 -0.6979 0)
(-2.0146 -0.842733 0)
(-1.61586 -0.952818 0)
(-1.1771 -1.02717 0)
(-0.714226 -1.06647 0)
(-0.245353 -1.07165 0)
(0.222567 -1.03396 0)
(0.66131 -0.959769 0)
(1.05515 -0.863795 0)
(1.40013 -0.745135 0)
(1.68774 -0.608427 0)
(1.9116 -0.458788 0)
(2.06778 -0.301195 0)
(2.15577 -0.139731 0)
(2.17013 0.0215261 0)
(2.11793 0.177841 0)
(2.00093 0.325054 0)
(1.82352 0.459515 0)
(1.59223 0.577539 0)
(1.31455 0.676157 0)
(0.998617 0.753447 0)
(0.654936 0.81132 0)
(0.291959 0.847112 0)
(-0.0765784 0.828106 0)
(-0.43445 0.788932 0)
(-0.766161 0.726769 0)
(-1.06289 0.639886 0)
(-1.3153 0.532033 0)
(-1.5152 0.407845 0)
(-1.65706 0.272695 0)
(-1.73868 0.131927 0)
(-1.75423 -0.00931066 0)
(-1.71203 -0.145485 0)
(-1.61216 -0.271712 0)
(-1.4603 -0.384317 0)
(-1.26366 -0.480624 0)
(-1.03019 -0.557396 0)
(-0.768422 -0.612957 0)
(-0.487398 -0.648208 0)
(-0.197859 -0.662381 0)
(0.0935116 -0.642549 0)
(0.369437 -0.606024 0)
(0.622277 -0.553424 0)
(0.846253 -0.4843 0)
(1.03525 -0.402052 0)
(1.18462 -0.310121 0)
(1.2915 -0.212087 0)
(1.35507 -0.111216 0)
(1.37185 -0.0100702 0)
(1.34704 0.0882401 0)
(1.28094 0.180507 0)
(1.17686 0.264447 0)
(1.03894 0.338466 0)
(0.871938 0.400485 0)
(0.681544 0.449101 0)
(0.474099 0.484677 0)
(0.25577 0.505824 0)
(0.02873 0.500172 0)
(-0.192128 0.479964 0)
(-0.396563 0.445615 0)
(-0.580436 0.395944 0)
(-0.738678 0.333372 0)
(-0.86624 0.260599 0)
(-0.959386 0.180661 0)
(-1.01625 0.0966662 0)
(-1.03402 0.011279 0)
(-1.01509 -0.0724348 0)
(-0.960953 -0.151513 0)
(-0.873881 -0.223462 0)
(-0.757777 -0.286241 0)
(-0.617145 -0.3381 0)
(-0.456466 -0.377597 0)
(-0.281085 -0.404667 0)
(-0.0967048 -0.418874 0)
(0.0917582 -0.412471 0)
(0.273656 -0.389672 0)
(0.439683 -0.354717 0)
(0.592863 -0.30401 0)
(0.712162 -0.234784 0)
(0.823127 -0.163262 0)
(0.8671 -0.0138234 0)
(-2.98228 2.54103 0)
(-3.78316 2.1394 0)
(-4.42843 1.65887 0)
(-4.89521 1.12441 0)
(-5.17313 0.560853 0)
(-5.24683 -0.00762398 0)
(-5.13063 -0.55343 0)
(-4.83858 -1.05516 0)
(-4.38738 -1.49635 0)
(-3.8019 -1.86396 0)
(-3.10914 -2.14993 0)
(-2.33593 -2.35171 0)
(-1.50816 -2.4732 0)
(-0.654585 -2.51124 0)
(0.190332 -2.44543 0)
(0.985568 -2.28877 0)
(1.71576 -2.08064 0)
(2.36315 -1.82352 0)
(2.913 -1.52621 0)
(3.35576 -1.19948 0)
(3.68521 -0.853667 0)
(3.89953 -0.49754 0)
(3.99461 -0.136477 0)
(3.96747 0.221364 0)
(3.82843 0.566981 0)
(3.57756 0.892698 0)
(3.22248 1.19155 0)
(2.77266 1.45588 0)
(2.2403 1.6794 0)
(1.64082 1.85714 0)
(0.98878 1.98201 0)
(0.292316 2.03523 0)
(-0.408495 1.99313 0)
(-1.07369 1.88347 0)
(-1.68652 1.71425 0)
(-2.22785 1.48591 0)
(-2.6788 1.20738 0)
(-3.02411 0.891576 0)
(-3.25495 0.552961 0)
(-3.36509 0.203205 0)
(-3.35026 -0.142737 0)
(-3.2247 -0.469001 0)
(-2.99364 -0.765873 0)
(-2.67 -1.02481 0)
(-2.2684 -1.23809 0)
(-1.8053 -1.40099 0)
(-1.29719 -1.5135 0)
(-0.758069 -1.57685 0)
(-0.208807 -1.58371 0)
(0.32436 -1.51965 0)
(0.820847 -1.41226 0)
(1.27182 -1.26852 0)
(1.66442 -1.09172 0)
(1.98908 -0.889212 0)
(2.23938 -0.66878 0)
(2.41204 -0.437854 0)
(2.50609 -0.20108 0)
(2.51492 0.0356587 0)
(2.44975 0.264104 0)
(2.31009 0.478638 0)
(2.10161 0.674848 0)
(1.83128 0.848249 0)
(1.50696 0.994515 0)
(1.13857 1.11075 0)
(0.740299 1.19497 0)
(0.311193 1.2418 0)
(-0.129063 1.22891 0)
(-0.546437 1.16627 0)
(-0.933908 1.07177 0)
(-1.28034 0.942399 0)
(-1.57399 0.782181 0)
(-1.80517 0.598088 0)
(-1.96759 0.398342 0)
(-2.05805 0.190197 0)
(-2.07128 -0.0186896 0)
(-2.01646 -0.219797 0)
(-1.89453 -0.406036 0)
(-1.71293 -0.5717 0)
(-1.48011 -0.712627 0)
(-1.20449 -0.825779 0)
(-0.89486 -0.910466 0)
(-0.559857 -0.966091 0)
(-0.213842 -0.983206 0)
(0.12594 -0.953043 0)
(0.448738 -0.897815 0)
(0.745488 -0.816749 0)
(1.00699 -0.712141 0)
(1.22653 -0.588742 0)
(1.39907 -0.45177 0)
(1.52164 -0.30657 0)
(1.59344 -0.157554 0)
(1.6103 -0.00849491 0)
(1.57945 0.135729 0)
(1.50061 0.271202 0)
(1.378 0.394642 0)
(1.2165 0.503189 0)
(1.02124 0.594263 0)
(0.798349 0.666426 0)
(0.554948 0.719021 0)
(0.297344 0.749643 0)
(0.0308772 0.750657 0)
(-0.230046 0.715514 0)
(-0.472584 0.660403 0)
(-0.690108 0.585766 0)
(-0.876966 0.492492 0)
(-1.02755 0.384092 0)
(-1.13745 0.265083 0)
(-1.20469 0.140108 0)
(-1.22566 0.0132779 0)
(-1.20368 -0.110586 0)
(-1.14078 -0.22726 0)
(-1.03974 -0.333359 0)
(-0.904913 -0.426036 0)
(-0.74095 -0.502786 0)
(-0.55314 -0.562232 0)
(-0.347373 -0.604096 0)
(-0.129039 -0.62514 0)
(0.0925081 -0.615171 0)
(0.306754 -0.584057 0)
(0.506086 -0.532839 0)
(0.690146 -0.461919 0)
(0.841217 -0.360923 0)
(0.977042 -0.268391 0)
(1.06408 -0.0653934 0)
(-4.1517 3.5145 0)
(-5.19921 2.95697 0)
(-6.01405 2.28918 0)
(-6.56899 1.54658 0)
(-6.85076 0.764031 0)
(-6.85952 -0.0245203 0)
(-6.63391 -0.781877 0)
(-6.18494 -1.47573 0)
(-5.54225 -2.08225 0)
(-4.7404 -2.58529 0)
(-3.81477 -2.97466 0)
(-2.79828 -3.2505 0)
(-1.72145 -3.41564 0)
(-0.622725 -3.45748 0)
(0.444051 -3.34699 0)
(1.43748 -3.13474 0)
(2.34189 -2.8406 0)
(3.13663 -2.4819 0)
(3.80479 -2.07163 0)
(4.33594 -1.62285 0)
(4.72453 -1.14992 0)
(4.97057 -0.664858 0)
(5.06439 -0.172966 0)
(5.0143 0.314363 0)
(4.82403 0.784575 0)
(4.49551 1.22895 0)
(4.03711 1.63838 0)
(3.4588 2.00304 0)
(2.77367 2.31357 0)
(1.99839 2.56075 0)
(1.15119 2.7324 0)
(0.249775 2.8088 0)
(-0.658664 2.75629 0)
(-1.52188 2.59942 0)
(-2.31362 2.35994 0)
(-3.00372 2.03982 0)
(-3.56597 1.64978 0)
(-3.9817 1.20773 0)
(-4.24269 0.734624 0)
(-4.33638 0.247306 0)
(-4.28133 -0.231487 0)
(-4.08367 -0.680463 0)
(-3.75521 -1.08544 0)
(-3.31386 -1.43734 0)
(-2.7789 -1.72691 0)
(-2.1702 -1.94982 0)
(-1.50523 -2.10643 0)
(-0.801488 -2.19194 0)
(-0.0967515 -2.18186 0)
(0.574617 -2.08839 0)
(1.19808 -1.93603 0)
(1.75903 -1.73204 0)
(2.24103 -1.48516 0)
(2.6333 -1.20374 0)
(2.92944 -0.898295 0)
(3.12781 -0.579631 0)
(3.22329 -0.253432 0)
(3.21821 0.0712545 0)
(3.1202 0.383629 0)
(2.93039 0.677319 0)
(2.65573 0.946226 0)
(2.30457 1.18374 0)
(1.88654 1.38406 0)
(1.41324 1.54368 0)
(0.896765 1.65809 0)
(0.346024 1.71708 0)
(-0.217785 1.70853 0)
(-0.757059 1.62078 0)
(-1.25587 1.4844 0)
(-1.69875 1.30113 0)
(-2.07006 1.07533 0)
(-2.35771 0.81604 0)
(-2.55483 0.53535 0)
(-2.65659 0.243757 0)
(-2.66111 -0.0470581 0)
(-2.57927 -0.324363 0)
(-2.41398 -0.579361 0)
(-2.17426 -0.80655 0)
(-1.87032 -0.999782 0)
(-1.51374 -1.15538 0)
(-1.11602 -1.27276 0)
(-0.68801 -1.34804 0)
(-0.244735 -1.36516 0)
(0.188982 -1.32406 0)
(0.598143 -1.24312 0)
(0.972019 -1.12633 0)
(1.29941 -0.979193 0)
(1.5717 -0.806968 0)
(1.78299 -0.615979 0)
(1.93049 -0.413961 0)
(2.01302 -0.206988 0)
(2.02733 -0.000881422 0)
(1.98251 0.197531 0)
(1.87905 0.383595 0)
(1.72169 0.553282 0)
(1.5162 0.702356 0)
(1.26926 0.82745 0)
(0.988369 0.926281 0)
(0.681528 0.997365 0)
(0.355886 1.03805 0)
(0.0199998 1.04202 0)
(-0.309187 0.999412 0)
(-0.614799 0.918292 0)
(-0.889417 0.812198 0)
(-1.12398 0.681492 0)
(-1.31116 0.529903 0)
(-1.44602 0.363812 0)
(-1.52672 0.189737 0)
(-1.54842 0.013534 0)
(-1.5174 -0.157179 0)
(-1.43572 -0.316865 0)
(-1.30732 -0.462148 0)
(-1.13754 -0.589588 0)
(-0.932251 -0.696455 0)
(-0.697467 -0.781385 0)
(-0.439081 -0.84141 0)
(-0.16592 -0.868493 0)
(0.109401 -0.85595 0)
(0.377078 -0.814791 0)
(0.627665 -0.745451 0)
(0.858635 -0.653272 0)
(1.0538 -0.520045 0)
(1.22149 -0.405861 0)
(1.35469 -0.14714 0)
(-6.30878 4.88846 0)
(-7.99514 4.05457 0)
(-9.3193 3.0646 0)
(-10.2196 1.97656 0)
(-10.6447 0.858238 0)
(-10.5892 -0.219387 0)
(-10.1453 -1.22903 0)
(-9.34305 -2.15423 0)
(-8.24428 -2.95686 0)
(-6.91995 -3.61634 0)
(-5.43746 -4.12895 0)
(-3.85391 -4.49736 0)
(-2.20907 -4.70965 0)
(-0.549915 -4.71966 0)
(1.04064 -4.52034 0)
(2.49625 -4.22862 0)
(3.77136 -3.82623 0)
(4.85436 -3.32632 0)
(5.74345 -2.75944 0)
(6.43253 -2.14777 0)
(6.91849 -1.50736 0)
(7.20429 -0.852544 0)
(7.27725 -0.193044 0)
(7.17043 0.458857 0)
(6.87386 1.08982 0)
(6.39198 1.68859 0)
(5.73312 2.24315 0)
(4.90995 2.7401 0)
(3.93871 3.16797 0)
(2.83716 3.51731 0)
(1.6223 3.77105 0)
(0.313137 3.88703 0)
(-1.02858 3.79694 0)
(-2.32542 3.57795 0)
(-3.52071 3.23207 0)
(-4.56179 2.77005 0)
(-5.40342 2.21222 0)
(-6.01002 1.58529 0)
(-6.36056 0.921296 0)
(-6.43137 0.2562 0)
(-6.28061 -0.386169 0)
(-5.91653 -0.993822 0)
(-5.36548 -1.54271 0)
(-4.65951 -2.015 0)
(-3.83214 -2.4028 0)
(-2.91491 -2.70534 0)
(-1.93367 -2.91751 0)
(-0.910504 -3.01954 0)
(0.116855 -2.9742 0)
(1.08823 -2.84259 0)
(1.96727 -2.63291 0)
(2.73508 -2.34178 0)
(3.38136 -1.99074 0)
(3.89688 -1.59773 0)
(4.27357 -1.17723 0)
(4.51079 -0.741636 0)
(4.59633 -0.299789 0)
(4.55659 0.135801 0)
(4.39033 0.555027 0)
(4.10217 0.948795 0)
(3.70058 1.30931 0)
(3.1965 1.62936 0)
(2.60263 1.90216 0)
(1.93304 2.12224 0)
(1.20035 2.28432 0)
(0.41513 2.37197 0)
(-0.393772 2.34763 0)
(-1.17404 2.22904 0)
(-1.89613 2.03785 0)
(-2.53246 1.77807 0)
(-3.05893 1.46041 0)
(-3.45572 1.09813 0)
(-3.71167 0.707754 0)
(-3.81317 0.307675 0)
(-3.77996 -0.0868065 0)
(-3.62396 -0.46581 0)
(-3.35452 -0.815526 0)
(-2.9864 -1.12476 0)
(-2.5358 -1.38671 0)
(-2.01965 -1.59898 0)
(-1.45402 -1.75917 0)
(-0.852138 -1.85794 0)
(-0.228728 -1.87325 0)
(0.380467 -1.81256 0)
(0.949036 -1.70499 0)
(1.45722 -1.54083 0)
(1.89472 -1.33006 0)
(2.25414 -1.08647 0)
(2.52737 -0.820758 0)
(2.71042 -0.542698 0)
(2.79854 -0.26009 0)