/*--------------------------------*- C++ -*----------------------------------*\
| =========                 |                                                 |
| \\      /  F ield         | OpenFOAM: The Open Source CFD Toolbox           |
|  \\    /   O peration     | Version:  2206                                  |
|   \\  /    A nd           | Website:  www.openfoam.com                      |
|    \\/     M anipulation  |                                                 |
\*---------------------------------------------------------------------------*/
FoamFile
{
    version     2.0;
    format      ascii;
    arch        "LSB;label=32;scalar=64";
    class       volVectorField;
    location    "18.6";
    object      U_0;
}
// * * * * * * * * * * * * * * * * * * * * * * * * * * * * * * * * * * * * * //

dimensions      [0 1 -1 0 0 0 0];

internalField   nonuniform List<vector> 
3050
(
(1.62252 -0.375334 0)
(1.64268 -0.426581 0)
(1.66356 -0.468439 0)
(1.68446 -0.501079 0)
(1.70478 -0.524879 0)
(1.72421 -0.540236 0)
(1.74315 -0.547055 0)
(1.76186 -0.544068 0)
(1.78 -0.53035 0)
(1.79779 -0.505575 0)
(1.81532 -0.469528 0)
(1.83269 -0.422135 0)
(1.84991 -0.363608 0)
(1.86691 -0.29458 0)
(1.88345 -0.216254 0)
(1.89925 -0.130606 0)
(1.91373 -0.0407659 0)
(1.92602 0.0487374 0)
(1.93548 0.134382 0)
(1.9417 0.213317 0)
(1.94431 0.283218 0)
(1.94309 0.342432 0)
(1.93802 0.390048 0)
(1.92925 0.42585 0)
(1.91702 0.450179 0)
(1.90062 0.463532 0)
(1.88017 0.466081 0)
(1.8564 0.459665 0)
(1.83003 0.446284 0)
(1.80219 0.427333 0)
(1.77398 0.403614 0)
(1.74637 0.375325 0)
(1.72016 0.342237 0)
(1.69597 0.303959 0)
(1.6743 0.260185 0)
(1.6556 0.210859 0)
(1.64029 0.156281 0)
(1.62872 0.0971628 0)
(1.62118 0.0346814 0)
(1.6178 -0.0293777 0)
(1.6185 -0.0927597 0)
(1.623 -0.15373 0)
(1.63091 -0.210644 0)
(1.64171 -0.262041 0)
(1.65477 -0.306754 0)
(1.66945 -0.344027 0)
(1.68512 -0.373513 0)
(1.70123 -0.395204 0)
(1.71735 -0.409267 0)
(1.73372 -0.415573 0)
(1.75032 -0.413268 0)
(1.76672 -0.402006 0)
(1.78288 -0.381951 0)
(1.79863 -0.353456 0)
(1.81391 -0.316954 0)
(1.82873 -0.272935 0)
(1.84303 -0.221991 0)
(1.85674 -0.164903 0)
(1.8697 -0.102791 0)
(1.88161 -0.0373752 0)
(1.89186 0.0284425 0)
(1.89993 0.0921101 0)
(1.90547 0.151576 0)
(1.90818 0.205063 0)
(1.90783 0.251204 0)
(1.90437 0.289139 0)
(1.89789 0.318503 0)
(1.88866 0.339342 0)
(1.87651 0.351932 0)
(1.86115 0.3562 0)
(1.84332 0.352782 0)
(1.82347 0.342959 0)
(1.80246 0.327708 0)
(1.78119 0.307788 0)
(1.76042 0.283691 0)
(1.74081 0.255633 0)
(1.72284 0.223672 0)
(1.7069 0.187844 0)
(1.69332 0.148283 0)
(1.68236 0.105304 0)
(1.67425 0.0594736 0)
(1.66917 0.0117088 0)
(1.66717 -0.0365356 0)
(1.66817 -0.0838054 0)
(1.67194 -0.128867 0)
(1.6782 -0.170541 0)
(1.68655 -0.207799 0)
(1.69655 -0.239836 0)
(1.70773 -0.266131 0)
(1.71963 -0.286465 0)
(1.73184 -0.300861 0)
(1.74423 -0.309374 0)
(1.75711 -0.311591 0)
(1.77013 -0.306873 0)
(1.78315 -0.295185 0)
(1.79597 -0.276738 0)
(1.80843 -0.251918 0)
(1.82045 -0.2212 0)
(1.83199 -0.185121 0)
(1.84301 -0.144301 0)
(1.85344 -0.0995196 0)
(1.86314 -0.0518735 0)
(1.87174 -0.00311532 0)
(1.87876 0.0446986 0)
(1.88391 0.0900964 0)
(1.88691 0.131762 0)
(1.88758 0.168627 0)
(1.88586 0.199922 0)
(1.88179 0.225215 0)
(1.87556 0.244418 0)
(1.86736 0.257648 0)
(1.85694 0.264948 0)
(1.84443 0.266189 0)
(1.83026 0.261976 0)
(1.81494 0.252982 0)
(1.79913 0.239744 0)
(1.78348 0.22273 0)
(1.76853 0.20229 0)
(1.7547 0.178655 0)
(1.74232 0.15201 0)
(1.73165 0.122561 0)
(1.72289 0.0905929 0)
(1.64529 -0.394108 0)
(1.66376 -0.446237 0)
(1.68239 -0.488158 0)
(1.70046 -0.520211 0)
(1.71737 -0.543019 0)
(1.73269 -0.55733 0)
(1.74692 -0.563435 0)
(1.76059 -0.559948 0)
(1.77325 -0.545633 0)
(1.78528 -0.520397 0)
(1.79697 -0.484133 0)
(1.80862 -0.43669 0)
(1.82042 -0.378151 0)
(1.83245 -0.309037 0)
(1.84466 -0.230444 0)
(1.85688 -0.144218 0)
(1.86877 -0.0531556 0)
(1.8796 0.038314 0)
(1.88871 0.126426 0)
(1.89563 0.208274 0)
(1.89992 0.281423 0)
(1.90125 0.344078 0)
(1.8994 0.395183 0)
(1.89436 0.434421 0)
(1.88634 0.462096 0)
(1.87529 0.478962 0)
(1.86036 0.485414 0)
(1.84224 0.482039 0)
(1.82134 0.4708 0)
(1.79859 0.45298 0)
(1.77507 0.429372 0)
(1.75173 0.400317 0)
(1.72934 0.365751 0)
(1.70855 0.325415 0)
(1.68988 0.279088 0)
(1.67382 0.226768 0)
(1.66078 0.168803 0)
(1.65114 0.105977 0)
(1.64514 0.0395763 0)
(1.6429 -0.0284256 0)
(1.6443 -0.0955472 0)
(1.64904 -0.159926 0)
(1.65672 -0.21979 0)
(1.66683 -0.273559 0)
(1.67874 -0.319996 0)
(1.69183 -0.35835 0)
(1.70548 -0.388329 0)
(1.71912 -0.410056 0)
(1.73228 -0.423959 0)
(1.74519 -0.430258 0)
(1.75816 -0.427961 0)
(1.77064 -0.416407 0)
(1.78267 -0.395892 0)
(1.79419 -0.366935 0)
(1.8053 -0.330017 0)
(1.81612 -0.285615 0)
(1.82671 -0.234273 0)
(1.83708 -0.176706 0)
(1.84717 -0.113941 0)
(1.85681 -0.0475576 0)
(1.86555 0.0198242 0)
(1.87289 0.0854287 0)
(1.87849 0.147186 0)
(1.88202 0.203249 0)
(1.88321 0.252139 0)
(1.8819 0.292861 0)
(1.87805 0.324924 0)
(1.87187 0.34831 0)
(1.86356 0.36338 0)
(1.85257 0.370465 0)
(1.83908 0.369414 0)
(1.82354 0.361251 0)
(1.80654 0.346889 0)
(1.78896 0.327055 0)
(1.77157 0.302337 0)
(1.75498 0.273084 0)
(1.7397 0.239466 0)
(1.72612 0.201611 0)
(1.71459 0.159718 0)
(1.70537 0.114154 0)
(1.69869 0.0655412 0)
(1.69469 0.0148731 0)
(1.69344 -0.0362576 0)
(1.69481 -0.0862533 0)
(1.69859 -0.133787 0)
(1.70448 -0.177588 0)
(1.71211 -0.216558 0)
(1.72104 -0.249846 0)
(1.73083 -0.27692 0)
(1.74102 -0.297619 0)
(1.75117 -0.312106 0)
(1.76109 -0.320689 0)
(1.77125 -0.323145 0)
(1.78144 -0.318521 0)
(1.79144 -0.306651 0)
(1.80115 -0.287864 0)
(1.81044 -0.262645 0)
(1.81937 -0.231513 0)
(1.82796 -0.195018 0)
(1.83626 -0.15377 0)
(1.84427 -0.108489 0)
(1.85193 -0.0601649 0)
(1.85899 -0.0103352 0)
(1.86508 0.0388954 0)
(1.86989 0.0859897 0)
(1.87317 0.12959 0)
(1.8747 0.168544 0)
(1.87435 0.201981 0)
(1.87206 0.229361 0)
(1.86795 0.250476 0)
(1.86224 0.26545 0)
(1.855 0.27458 0)
(1.84581 0.277783 0)
(1.83507 0.275024 0)
(1.82299 0.266956 0)
(1.81014 0.254036 0)
(1.7972 0.236765 0)
(1.78467 0.215587 0)
(1.77299 0.190826 0)
(1.76247 0.16275 0)
(1.7534 0.131631 0)
(1.74596 0.0978063 0)
(1.67249 -0.411322 0)
(1.68883 -0.463727 0)
(1.70475 -0.505176 0)
(1.71964 -0.53611 0)
(1.7329 -0.557321 0)
(1.744 -0.569979 0)
(1.75336 -0.574977 0)
(1.76174 -0.570458 0)
(1.76874 -0.555177 0)
(1.77479 -0.529325 0)
(1.78047 -0.492866 0)
(1.78628 -0.445572 0)
(1.79254 -0.387395 0)
(1.79946 -0.318727 0)
(1.80715 -0.240544 0)
(1.81558 -0.154539 0)
(1.82457 -0.0633484 0)
(1.8336 0.028961 0)
(1.84204 0.118434 0)
(1.84939 0.202157 0)
(1.85512 0.277625 0)
(1.85877 0.34293 0)
(1.86 0.396874 0)
(1.8586 0.439011 0)
(1.85457 0.469549 0)
(1.84816 0.489206 0)
(1.83889 0.498965 0)
(1.82633 0.498822 0)
(1.81103 0.489982 0)
(1.79354 0.47361 0)
(1.77497 0.450466 0)
(1.75625 0.421041 0)
(1.73812 0.38541 0)
(1.72118 0.34342 0)
(1.70599 0.294926 0)
(1.69303 0.239983 0)
(1.68273 0.179005 0)
(1.67541 0.112861 0)
(1.6713 0.0429782 0)
(1.67045 -0.028494 0)
(1.6727 -0.0988582 0)
(1.67772 -0.166129 0)
(1.68509 -0.228418 0)
(1.6943 -0.284064 0)
(1.70482 -0.331768 0)
(1.71607 -0.37078 0)
(1.72747 -0.400825 0)
(1.73843 -0.422141 0)
(1.7484 -0.435399 0)
(1.7576 -0.441286 0)
(1.76673 -0.438764 0)
(1.77512 -0.426662 0)
(1.78275 -0.405543 0)
(1.78978 -0.376107 0)
(1.79648 -0.338887 0)
(1.80312 -0.294331 0)
(1.80983 -0.242923 0)
(1.81671 -0.185311 0)
(1.82379 -0.122434 0)
(1.83099 -0.0557333 0)
(1.83801 0.012458 0)
(1.84441 0.0792156 0)
(1.84984 0.142473 0)
(1.85398 0.200358 0)
(1.85649 0.251334 0)
(1.85714 0.294274 0)
(1.85579 0.328551 0)
(1.85247 0.354058 0)
(1.84745 0.37113 0)
(1.84076 0.380416 0)
(1.83163 0.381891 0)
(1.82058 0.375618 0)
(1.80783 0.362334 0)
(1.79421 0.342769 0)
(1.78052 0.317671 0)
(1.76733 0.287507 0)
(1.75511 0.252538 0)
(1.74429 0.212969 0)
(1.73518 0.169063 0)
(1.72805 0.121245 0)
(1.72311 0.0701977 0)
(1.72048 0.0169964 0)
(1.72016 -0.0366185 0)
(1.72202 -0.0889258 0)
(1.72582 -0.138516 0)
(1.73126 -0.184043 0)
(1.73802 -0.224362 0)
(1.74573 -0.258569 0)
(1.75396 -0.286104 0)
(1.76229 -0.306836 0)
(1.77027 -0.321062 0)
(1.77757 -0.329357 0)
(1.78483 -0.331812 0)
(1.79206 -0.327157 0)
(1.7989 -0.314963 0)
(1.80525 -0.295752 0)
(1.81117 -0.270151 0)
(1.8168 -0.238725 0)
(1.82231 -0.202016 0)
(1.82779 -0.160598 0)
(1.83328 -0.11515 0)
(1.83878 -0.0665748 0)
(1.84416 -0.0162379 0)
(1.84914 0.0338295 0)
(1.85343 0.0820195 0)
(1.85679 0.126962 0)
(1.85898 0.167454 0)
(1.85981 0.202544 0)
(1.85919 0.231592 0)
(1.85709 0.254309 0)
(1.85365 0.270724 0)
(1.84918 0.281156 0)
(1.84339 0.286031 0)
(1.8361 0.284904 0)
(1.82745 0.277986 0)
(1.81777 0.265563 0)
(1.80776 0.248216 0)
(1.79794 0.226517 0)
(1.78869 0.200871 0)
(1.78034 0.171616 0)
(1.77315 0.13909 0)
(1.76732 0.10368 0)
(1.70437 -0.426479 0)
(1.71805 -0.478482 0)
(1.73068 -0.518929 0)
(1.74181 -0.548329 0)
(1.75103 -0.567504 0)
(1.75775 -0.57775 0)
(1.76248 -0.580465 0)
(1.76548 -0.575455 0)
(1.7664 -0.558542 0)
(1.76639 -0.532118 0)
(1.76609 -0.495645 0)
(1.76606 -0.448744 0)
(1.7668 -0.391295 0)
(1.76863 -0.323569 0)
(1.77177 -0.246427 0)
(1.77634 -0.161444 0)
(1.7823 -0.0710625 0)
(1.78929 0.0210263 0)
(1.79674 0.110761 0)
(1.80414 0.195295 0)
(1.81095 0.272112 0)
(1.81661 0.339231 0)
(1.82065 0.395334 0)
(1.82269 0.439818 0)
(1.82251 0.472743 0)
(1.82023 0.494689 0)
(1.81616 0.506709 0)
(1.80932 0.509866 0)
(1.79972 0.503644 0)
(1.78759 0.489 0)
(1.77416 0.466622 0)
(1.76037 0.437148 0)
(1.74683 0.400811 0)
(1.73413 0.357538 0)
(1.72283 0.307247 0)
(1.71339 0.250065 0)
(1.7062 0.186482 0)
(1.70155 0.117472 0)
(1.69961 0.0446088 0)
(1.70036 -0.0297658 0)
(1.70357 -0.102763 0)
(1.70887 -0.172279 0)
(1.71582 -0.236354 0)
(1.72393 -0.293287 0)
(1.73274 -0.341758 0)
(1.7418 -0.380999 0)
(1.75062 -0.410687 0)
(1.75871 -0.431192 0)
(1.76547 -0.443418 0)
(1.77082 -0.448449 0)
(1.7759 -0.44551 0)
(1.77998 -0.43238 0)
(1.7829 -0.410457 0)
(1.78526 -0.380667 0)
(1.78744 -0.343367 0)
(1.78977 -0.29895 0)
(1.79252 -0.247841 0)
(1.79584 -0.190621 0)
(1.79983 -0.128147 0)
(1.8045 -0.0617322 0)
(1.80967 0.00649381 0)
(1.81497 0.0736502 0)
(1.82007 0.137649 0)
(1.82463 0.196624 0)
(1.82828 0.248979 0)
(1.83071 0.293544 0)
(1.83172 0.329558 0)
(1.83121 0.356754 0)
(1.82928 0.375331 0)
(1.82634 0.385904 0)
(1.82194 0.389427 0)
(1.81526 0.385119 0)
(1.80664 0.373219 0)
(1.79707 0.354321 0)
(1.78733 0.329214 0)
(1.77784 0.29849 0)
(1.76903 0.262512 0)
(1.76129 0.221566 0)
(1.75493 0.175988 0)
(1.75019 0.126272 0)
(1.74726 0.0731723 0)
(1.74622 0.017863 0)
(1.74701 -0.0377527 0)
(1.74944 -0.091867 0)
(1.75326 -0.143003 0)
(1.75819 -0.189772 0)
(1.76392 -0.231012 0)
(1.77015 -0.265776 0)
(1.77657 -0.293471 0)
(1.78286 -0.313959 0)
(1.78864 -0.327629 0)
(1.79336 -0.335318 0)
(1.79752 -0.337619 0)
(1.80162 -0.332621 0)
(1.80512 -0.319814 0)
(1.80789 -0.300087 0)
(1.81031 -0.27421 0)
(1.81261 -0.242678 0)
(1.81498 -0.206001 0)
(1.81756 -0.164712 0)
(1.82046 -0.119445 0)
(1.82374 -0.0710295 0)
(1.82735 -0.0206772 0)
(1.8311 0.0296649 0)
(1.83473 0.0783591 0)
(1.83801 0.124055 0)
(1.8407 0.165528 0)
(1.84257 0.201772 0)
(1.84346 0.232067 0)
(1.84329 0.256013 0)
(1.84207 0.273533 0)
(1.84005 0.28485 0)
(1.83756 0.290568 0)
(1.83369 0.290992 0)
(1.82838 0.285319 0)
(1.82184 0.273654 0)
(1.81492 0.256557 0)
(1.80806 0.234652 0)
(1.80152 0.20843 0)
(1.7956 0.178305 0)
(1.79057 0.144675 0)
(1.78659 0.107983 0)
(1.74101 -0.439181 0)
(1.75164 -0.49004 0)
(1.76046 -0.528894 0)
(1.76719 -0.556359 0)
(1.77173 -0.573304 0)
(1.7741 -0.581253 0)
(1.77413 -0.582498 0)
(1.77111 -0.574808 0)
(1.76602 -0.556195 0)
(1.75998 -0.528935 0)
(1.75382 -0.492523 0)
(1.74817 -0.446297 0)
(1.74355 -0.389933 0)
(1.74041 -0.323623 0)
(1.73911 -0.24813 0)
(1.73987 -0.164893 0)
(1.74278 -0.0761957 0)
(1.74764 0.0146692 0)
(1.75396 0.103659 0)
(1.76123 0.187991 0)
(1.76887 0.265181 0)
(1.77625 0.333242 0)
(1.78279 0.390772 0)
(1.78803 0.43709 0)
(1.79161 0.472092 0)
(1.79343 0.496082 0)
(1.79378 0.509885 0)
(1.79237 0.514852 0)
(1.78831 0.512239 0)
(1.7815 0.499149 0)
(1.77324 0.477606 0)
(1.76451 0.448363 0)
(1.75579 0.411644 0)
(1.74763 0.367425 0)
(1.74054 0.315689 0)
(1.73496 0.256654 0)
(1.73119 0.190911 0)
(1.72947 0.119541 0)
(1.72992 0.0442493 0)
(1.73242 -0.0323851 0)
(1.73666 -0.107308 0)
(1.74224 -0.178325 0)
(1.7487 -0.243451 0)
(1.75557 -0.300984 0)
(1.76241 -0.349641 0)
(1.76884 -0.388661 0)
(1.77454 -0.417657 0)
(1.77929 -0.436924 0)
(1.78282 -0.44742 0)
(1.78497 -0.450913 0)
(1.78559 -0.448267 0)
(1.7848 -0.433712 0)
(1.78295 -0.41081 0)
(1.78056 -0.380585 0)
(1.77816 -0.343362 0)
(1.77618 -0.29938 0)
(1.77494 -0.248951 0)
(1.77469 -0.192569 0)
(1.77557 -0.131013 0)
(1.77768 -0.0654992 0)
(1.78093 0.00205264 0)
(1.78504 0.0688702 0)
(1.78968 0.132853 0)
(1.7945 0.192184 0)
(1.79912 0.245268 0)
(1.80319 0.290829 0)
(1.80643 0.328032 0)
(1.80868 0.356501 0)
(1.8099 0.376314 0)
(1.81027 0.387976 0)
(1.8098 0.39243 0)
(1.80751 0.39137 0)
(1.8032 0.380511 0)
(1.79783 0.361969 0)
(1.79219 0.33689 0)
(1.7866 0.305804 0)
(1.78141 0.269095 0)
(1.77699 0.22709 0)
(1.77362 0.180187 0)
(1.7715 0.128954 0)
(1.77078 0.0742281 0)
(1.77149 0.0172877 0)
(1.7735 -0.0397854 0)
(1.77658 -0.0951349 0)
(1.78047 -0.147236 0)
(1.78487 -0.194687 0)
(1.78947 -0.236314 0)
(1.79402 -0.27122 0)
(1.79831 -0.29879 0)
(1.80219 -0.31883 0)
(1.80547 -0.331625 0)
(1.80783 -0.338036 0)
(1.80924 -0.339579 0)
(1.81 -0.335113 0)
(1.80974 -0.321192 0)
(1.80894 -0.300947 0)
(1.80781 -0.27484 0)
(1.80665 -0.243351 0)
(1.80579 -0.206925 0)
(1.80543 -0.166048 0)
(1.80573 -0.121293 0)
(1.80679 -0.0734274 0)
(1.80861 -0.0235688 0)
(1.81108 0.0264997 0)
(1.81398 0.0751333 0)
(1.81709 0.121008 0)
(1.82016 0.162902 0)
(1.82295 0.199784 0)
(1.82527 0.230873 0)
(1.82699 0.255673 0)
(1.82804 0.274011 0)
(1.82849 0.28604 0)
(1.82853 0.292251 0)
(1.82787 0.2937 0)
(1.82582 0.290257 0)
(1.82253 0.278928 0)
(1.81882 0.261989 0)
(1.81501 0.239959 0)
(1.81133 0.213332 0)
(1.80804 0.18257 0)
(1.80535 0.148112 0)
(1.80342 0.110441 0)
(-0.0230294 0.00140899 0)
(-0.0240185 0.00126821 0)
(-0.0243918 0.000823608 0)
(-0.0238378 0.000168981 0)
(-0.0222065 -0.000522391 0)
(-0.019387 -0.00116508 0)
(-0.01545 -0.00167683 0)
(-0.010629 -0.00200435 0)
(-0.00529031 -0.00212537 0)
(0.000201875 -0.00203829 0)
(0.00538831 -0.00178442 0)
(0.00989469 -0.00137707 0)
(0.0135224 -0.000894825 0)
(0.0161153 -0.000387308 0)
(0.0176759 7.14496e-05 0)
(0.0182906 0.000469809 0)
(0.0181989 0.000786246 0)
(0.0176056 0.000974841 0)
(0.0168133 0.00102192 0)
(0.0161055 0.000912624 0)
(0.0157587 0.000665764 0)
(0.0159613 0.000287668 0)
(0.0168284 -0.000119063 0)
(0.0184571 -0.000512954 0)
(0.0208245 -0.000856814 0)
(0.0238244 -0.00111957 0)
(0.0272889 -0.00128243 0)
(0.0310125 -0.00133932 0)
(0.0347816 -0.00129712 0)
(0.0383982 -0.00117358 0)
(0.0417042 -0.000994191 0)
(0.0445945 -0.000789865 0)
(0.0470205 -0.000586819 0)
(0.048992 -0.000403227 0)
(0.0505664 -0.000253212 0)
(0.0518395 -0.000151691 0)
(0.0529314 -0.00011044 0)
(0.0539752 -0.000133048 0)
(0.0551012 -0.000214373 0)
(0.0564253 -0.000344759 0)
(0.0580426 -0.000512342 0)
(0.0600221 -0.000701693 0)
(0.0623994 -0.000894739 0)
(0.0651728 -0.00107329 0)
(0.0683033 -0.00122131 0)
(0.0717183 -0.00132633 0)
(0.0753176 -0.00137959 0)
(0.0789839 -0.0013755 0)
(0.0825886 -0.00131308 0)
(0.0860084 -0.00119823 0)
(0.0891375 -0.00104183 0)
(0.0918951 -0.000857237 0)
(0.0942309 -0.000658853 0)
(0.0961279 -0.000461356 0)
(0.0975994 -0.000278841 0)
(0.0986879 -0.000122948 0)
(0.0994586 -8.98614e-07 0)
(0.099991 8.2732e-05 0)
(0.10037 0.000126889 0)
(0.100678 0.000134395 0)
(0.100987 0.00011153 0)
(0.101353 6.79657e-05 0)
(0.101813 1.5623e-05 0)
(0.102377 -3.41368e-05 0)
(0.103033 -7.22595e-05 0)
(0.103753 -9.29033e-05 0)
(0.104495 -9.2178e-05 0)
(0.105211 -6.86026e-05 0)
(0.105851 -2.31551e-05 0)
(0.106371 4.0903e-05 0)
(0.106738 0.000116046 0)
(0.10694 0.000194694 0)
(0.106983 0.000261085 0)
(0.106884 0.000316016 0)
(0.106677 0.000348442 0)
(0.106411 0.000358053 0)
(0.106145 0.000340811 0)
(0.105941 0.000292982 0)
(0.105852 0.00021308 0)
(0.105922 0.000106832 0)
(0.10619 -8.15626e-06 0)
(0.106692 -0.000129264 0)
(0.107445 -0.000253038 0)
(0.108454 -0.000374239 0)
(0.109713 -0.000487703 0)
(0.111201 -0.000587824 0)
(0.112888 -0.000668863 0)
(0.114727 -0.000726233 0)
(0.116664 -0.00075787 0)
(0.118645 -0.000764561 0)
(0.120617 -0.000748985 0)
(0.122534 -0.000714655 0)
(0.124357 -0.000664882 0)
(0.126055 -0.000603099 0)
(0.127606 -0.000533272 0)
(0.128996 -0.000459636 0)
(0.130219 -0.000386148 0)
(0.13128 -0.000316001 0)
(0.132186 -0.000251348 0)
(0.132951 -0.000193408 0)
(0.13359 -0.000142796 0)
(0.134118 -9.90927e-05 0)
(0.134548 -6.11917e-05 0)
(0.134892 -2.68763e-05 0)
(0.135155 6.16591e-06 0)
(0.135341 4.01315e-05 0)
(0.135443 7.69354e-05 0)
(0.135461 0.000121408 0)
(0.135389 0.000167325 0)
(0.135219 0.00021134 0)
(0.134948 0.000255395 0)
(0.134577 0.000296454 0)
(0.134112 0.000333492 0)
(0.133568 0.000364165 0)
(0.132959 0.000385069 0)
(0.132307 0.000395041 0)
(0.131637 0.000392501 0)
(0.130982 0.000376778 0)
(0.130369 0.000346992 0)
(0.12983 0.000304234 0)
(0.129392 0.000250049 0)
(0.129083 0.000186713 0)
(0.0752273 0.000635148 0)
(0.0773992 0.000115147 0)
(0.0800488 -0.00105466 0)
(0.0835822 -0.00267418 0)
(0.0882956 -0.00446904 0)
(0.0941436 -0.00618656 0)
(0.100988 -0.00759414 0)
(0.108558 -0.00850711 0)
(0.116477 -0.00883631 0)
(0.124349 -0.00857513 0)
(0.131812 -0.00779239 0)
(0.138539 -0.00658261 0)
(0.144317 -0.00511005 0)
(0.149026 -0.0035517 0)
(0.152671 -0.0020891 0)
(0.155375 -0.000867917 0)
(0.157329 3.05903e-05 0)
(0.158836 0.000513097 0)
(0.160209 0.000560592 0)
(0.16173 0.000187129 0)
(0.163633 -0.000560242 0)
(0.166152 -0.0015985 0)
(0.169436 -0.00276776 0)
(0.173499 -0.00392942 0)
(0.178292 -0.00495454 0)
(0.183691 -0.00574047 0)
(0.189501 -0.00622557 0)
(0.195494 -0.00638813 0)
(0.201438 -0.0062423 0)
(0.207136 -0.00583634 0)
(0.212434 -0.00524172 0)
(0.21724 -0.00454471 0)
(0.221512 -0.00382777 0)
(0.225278 -0.00317253 0)
(0.228614 -0.00264654 0)
(0.231638 -0.00229167 0)
(0.234476 -0.00213362 0)
(0.237268 -0.00218059 0)
(0.240148 -0.00241565 0)
(0.243238 -0.00280762 0)
(0.246631 -0.00331741 0)
(0.250394 -0.00389616 0)
(0.254555 -0.00448833 0)
(0.259102 -0.00503758 0)
(0.263983 -0.00549294 0)
(0.269113 -0.00581284 0)
(0.274384 -0.00596609 0)
(0.279665 -0.00593348 0)
(0.28482 -0.00571219 0)
(0.289723 -0.00532057 0)
(0.294264 -0.00479397 0)
(0.298367 -0.00417547 0)
(0.301987 -0.00351131 0)
(0.305112 -0.00284859 0)
(0.307762 -0.00223286 0)
(0.309992 -0.00170282 0)
(0.311875 -0.00128513 0)
(0.313502 -0.000993569 0)
(0.314965 -0.000829478 0)
(0.316353 -0.000782451 0)
(0.317742 -0.000832292 0)
(0.319194 -0.000950608 0)
(0.320746 -0.00110059 0)
(0.322405 -0.00124496 0)
(0.324152 -0.00135293 0)
(0.32595 -0.00140676 0)
(0.327752 -0.00139451 0)
(0.329505 -0.00131028 0)
(0.331158 -0.00115435 0)
(0.332661 -0.000936055 0)
(0.33398 -0.000684513 0)
(0.335103 -0.000428063 0)
(0.336033 -0.000194373 0)
(0.336805 -6.26922e-06 0)
(0.337461 0.000115924 0)
(0.338053 0.000159841 0)
(0.33864 0.000116813 0)
(0.339285 -1.89819e-05 0)
(0.340054 -0.000244 0)
(0.341007 -0.000541639 0)
(0.342182 -0.000886204 0)
(0.343602 -0.00125881 0)
(0.34528 -0.0016425 0)
(0.347219 -0.00202106 0)
(0.349409 -0.00237744 0)
(0.351829 -0.00269272 0)
(0.354442 -0.00294716 0)
(0.357196 -0.00312396 0)
(0.360029 -0.00321476 0)
(0.362875 -0.00322219 0)
(0.365678 -0.00315627 0)
(0.368392 -0.00302849 0)
(0.370977 -0.002849 0)
(0.373401 -0.0026288 0)
(0.37564 -0.00238124 0)
(0.37768 -0.00212066 0)
(0.37952 -0.00186024 0)
(0.381163 -0.00161063 0)
(0.382622 -0.00137923 0)
(0.383913 -0.00117012 0)
(0.385053 -0.000984755 0)
(0.386061 -0.000822083 0)
(0.386952 -0.000678383 0)
(0.387739 -0.000548441 0)
(0.388431 -0.000426934 0)
(0.38903 -0.000307083 0)
(0.389532 -0.000179998 0)
(0.389928 -3.82315e-05 0)
(0.390211 0.000110553 0)
(0.390384 0.000262258 0)
(0.390447 0.000414441 0)
(0.390396 0.000561397 0)
(0.390236 0.000687966 0)
(0.389983 0.000791114 0)
(0.389659 0.000872067 0)
(0.389287 0.00091401 0)
(0.388899 0.000913142 0)
(0.388526 0.000866995 0)
(0.388203 0.00077599 0)
(0.387961 0.000641667 0)
(0.387829 0.000466957 0)
(0.387836 0.000260135 0)
(0.307297 -0.00223009 0)
(0.311442 -0.00326499 0)
(0.315854 -0.00530609 0)
(0.320905 -0.00789803 0)
(0.326812 -0.0107164 0)
(0.333618 -0.0134235 0)
(0.341238 -0.0156804 0)
(0.349436 -0.0171076 0)
(0.35788 -0.0174974 0)
(0.366226 -0.0169506 0)
(0.374166 -0.0155884 0)
(0.381388 -0.0135458 0)
(0.387669 -0.0110814 0)
(0.392909 -0.008478 0)
(0.397129 -0.00602627 0)
(0.400458 -0.0039846 0)
(0.403122 -0.00253004 0)
(0.405358 -0.00176031 0)
(0.407426 -0.00174067 0)
(0.409556 -0.00244961 0)
(0.412015 -0.00374319 0)
(0.415014 -0.00542226 0)
(0.418687 -0.00731044 0)
(0.423074 -0.00918733 0)
(0.428136 -0.0108359 0)
(0.433758 -0.0120835 0)
(0.439763 -0.0128106 0)
(0.445931 -0.0129736 0)
(0.452035 -0.012612 0)
(0.45789 -0.0118205 0)
(0.463344 -0.0107234 0)
(0.468317 -0.00947136 0)
(0.472771 -0.00822802 0)
(0.476738 -0.0071312 0)
(0.480292 -0.00628192 0)
(0.483551 -0.00573387 0)
(0.48664 -0.00551179 0)
(0.48968 -0.00562124 0)
(0.492789 -0.00602861 0)
(0.496085 -0.00668342 0)
(0.499656 -0.00752793 0)
(0.503569 -0.00848456 0)
(0.507855 -0.00945806 0)
(0.512508 -0.0103513 0)
(0.517483 -0.0110787 0)
(0.522711 -0.0115718 0)
(0.528094 -0.0117775 0)
(0.533504 -0.0116605 0)
(0.538799 -0.0112152 0)
(0.543844 -0.0104775 0)
(0.548522 -0.00951489 0)
(0.55275 -0.00840468 0)
(0.556475 -0.00722519 0)
(0.559676 -0.00605767 0)
(0.562369 -0.00498164 0)
(0.564607 -0.00406305 0)
(0.566469 -0.00334629 0)
(0.568049 -0.00285285 0)
(0.569445 -0.00258298 0)
(0.57075 -0.0025172 0)
(0.572043 -0.00261944 0)
(0.573394 -0.00284139 0)
(0.574859 -0.00311751 0)
(0.576454 -0.00337994 0)
(0.578161 -0.00357219 0)
(0.579945 -0.0036568 0)
(0.581761 -0.00361356 0)
(0.583559 -0.0034336 0)
(0.585281 -0.00312695 0)
(0.586865 -0.00272655 0)
(0.588263 -0.00227154 0)
(0.589462 -0.00181122 0)
(0.590471 -0.00139447 0)
(0.591316 -0.00106325 0)
(0.592043 -0.000849256 0)
(0.592704 -0.0007725 0)
(0.593353 -0.000853819 0)
(0.594058 -0.00109511 0)
(0.594893 -0.00147515 0)
(0.595914 -0.00196519 0)
(0.597164 -0.00253642 0)
(0.598668 -0.00315544 0)
(0.600437 -0.00379225 0)
(0.602477 -0.00441987 0)
(0.60478 -0.00501052 0)
(0.60733 -0.00553191 0)
(0.61009 -0.00594831 0)
(0.613005 -0.00622675 0)
(0.616001 -0.00634979 0)
(0.618999 -0.00632511 0)
(0.621937 -0.00617667 0)
(0.624769 -0.0059266 0)
(0.627453 -0.00559088 0)
(0.629953 -0.00518739 0)
(0.632242 -0.00473989 0)
(0.634304 -0.00427392 0)
(0.636137 -0.00381186 0)
(0.637751 -0.00337083 0)
(0.639162 -0.00296193 0)
(0.64039 -0.00259124 0)
(0.641459 -0.0022615 0)
(0.642391 -0.00197265 0)
(0.643207 -0.00171978 0)
(0.643925 -0.00149281 0)
(0.644555 -0.00127737 0)
(0.645098 -0.00106047 0)
(0.645555 -0.000828957 0)
(0.645918 -0.000577513 0)
(0.646184 -0.000317083 0)
(0.646346 -4.90274e-05 0)
(0.646397 0.000227059 0)
(0.646336 0.000497631 0)
(0.646168 0.000742138 0)
(0.645902 0.000942349 0)
(0.645559 0.00108653 0)
(0.645167 0.00116486 0)
(0.644758 0.0011666 0)
(0.644366 0.00108745 0)
(0.644026 0.000929374 0)
(0.643774 0.000694488 0)
(0.643643 0.000392129 0)
(0.64366 3.58645e-05 0)
(0.632481 -0.00716757 0)
(0.638666 -0.00820237 0)
(0.644667 -0.010553 0)
(0.650616 -0.0138447 0)
(0.656656 -0.0176157 0)
(0.662852 -0.0212369 0)
(0.669368 -0.0241857 0)
(0.676047 -0.0260639 0)
(0.682694 -0.0265937 0)
(0.689215 -0.0257397 0)
(0.695541 -0.0236489 0)
(0.701548 -0.0205684 0)
(0.706963 -0.0169086 0)
(0.711662 -0.0131092 0)
(0.715608 -0.00961893 0)
(0.718874 -0.0067967 0)
(0.721623 -0.0048324 0)
(0.724072 -0.00378288 0)
(0.726431 -0.00367873 0)
(0.728819 -0.00449941 0)
(0.73141 -0.00610288 0)
(0.734332 -0.00827801 0)
(0.737667 -0.0107951 0)
(0.74142 -0.0133741 0)
(0.745545 -0.0157053 0)
(0.749925 -0.0175268 0)
(0.754441 -0.0186552 0)
(0.758976 -0.0190002 0)
(0.763401 -0.0185998 0)
(0.767604 -0.0175922 0)
(0.771496 -0.0161435 0)
(0.77504 -0.0144754 0)
(0.778202 -0.0127074 0)
(0.781059 -0.0110635 0)
(0.783734 -0.00972668 0)
(0.786334 -0.00878393 0)
(0.788942 -0.00827943 0)
(0.791619 -0.00825066 0)
(0.794439 -0.00867698 0)
(0.797448 -0.00948551 0)
(0.800675 -0.0105932 0)
(0.804143 -0.0118978 0)
(0.807856 -0.0132692 0)
(0.811785 -0.0145679 0)
(0.815892 -0.0156674 0)
(0.820143 -0.0164616 0)
(0.8245 -0.0168589 0)
(0.828891 -0.0167877 0)
(0.833198 -0.0162234 0)
(0.837292 -0.0152205 0)
(0.841068 -0.0138839 0)
(0.844459 -0.0123172 0)
(0.847418 -0.0106176 0)
(0.849911 -0.00889957 0)
(0.851935 -0.00729432 0)
(0.853526 -0.00591082 0)
(0.854746 -0.00481557 0)
(0.855673 -0.0040439 0)
(0.856396 -0.00359472 0)
(0.857003 -0.00343254 0)
(0.857559 -0.00351779 0)
(0.858111 -0.00380683 0)
(0.858727 -0.00419988 0)
(0.859433 -0.004587 0)
(0.86022 -0.00487053 0)
(0.861064 -0.00503556 0)
(0.861936 -0.00504104 0)
(0.862798 -0.00488059 0)
(0.863592 -0.00455077 0)
(0.864264 -0.00399417 0)
(0.864789 -0.00336137 0)
(0.865164 -0.00271751 0)
(0.865397 -0.00212405 0)
(0.86552 -0.00164062 0)
(0.86558 -0.00131682 0)
(0.865625 -0.00118037 0)
(0.865713 -0.00125617 0)
(0.865901 -0.00156297 0)
(0.866264 -0.00207775 0)
(0.866852 -0.00276426 0)
(0.867692 -0.00357694 0)
(0.868796 -0.00446751 0)
(0.870164 -0.00539473 0)
(0.871796 -0.00632293 0)
(0.87369 -0.00721303 0)
(0.875839 -0.00801381 0)
(0.878218 -0.0086644 0)
(0.880773 -0.00910281 0)
(0.883414 -0.00929296 0)
(0.886043 -0.00925247 0)
(0.888595 -0.00902953 0)
(0.891031 -0.00865665 0)
(0.893315 -0.00814858 0)
(0.895404 -0.00752697 0)
(0.897264 -0.00682832 0)
(0.898877 -0.00609501 0)
(0.900241 -0.00536604 0)
(0.901366 -0.004675 0)
(0.902272 -0.00404369 0)
(0.902982 -0.00348264 0)
(0.903519 -0.00299539 0)
(0.903911 -0.00257874 0)
(0.904183 -0.00222113 0)
(0.904358 -0.00190327 0)
(0.904449 -0.00160275 0)
(0.904464 -0.00130204 0)
(0.904404 -0.000991509 0)
(0.904267 -0.000662995 0)
(0.904045 -0.00031493 0)
(0.903721 4.91332e-05 0)
(0.903284 0.000418889 0)
(0.902738 0.000780483 0)
(0.902095 0.00111468 0)
(0.901366 0.00139678 0)
(0.900575 0.00160369 0)
(0.899752 0.0017162 0)
(0.898931 0.00172074 0)
(0.898151 0.00161131 0)
(0.897448 0.00138603 0)
(0.896862 0.00104812 0)
(0.896426 0.000604991 0)
(0.896172 7.05362e-05 0)
(0.985191 -0.0152495 0)
(0.99255 -0.0152502 0)
(0.999505 -0.0164093 0)
(1.00606 -0.0185714 0)
(1.01179 -0.021347 0)
(1.01673 -0.0245115 0)
(1.02069 -0.0276069 0)
(1.02324 -0.0295331 0)
(1.02498 -0.0300269 0)
(1.02638 -0.0297124 0)
(1.02763 -0.0283208 0)
(1.02894 -0.0255863 0)
(1.03044 -0.022034 0)
(1.03215 -0.0180307 0)
(1.03411 -0.0140379 0)
(1.03632 -0.0105903 0)
(1.03887 -0.00798609 0)
(1.04178 -0.00643221 0)
(1.04502 -0.0060199 0)
(1.04854 -0.0067579 0)
(1.05238 -0.00849773 0)
(1.05648 -0.0109539 0)
(1.06081 -0.0137958 0)
(1.06521 -0.0166054 0)
(1.06952 -0.0190136 0)
(1.07354 -0.0207864 0)
(1.07713 -0.0217726 0)
(1.08023 -0.0219032 0)
(1.08278 -0.0212248 0)
(1.08476 -0.0198736 0)
(1.08614 -0.0180524 0)
(1.08692 -0.0160118 0)
(1.08721 -0.0140479 0)
(1.0872 -0.0124486 0)
(1.08714 -0.0113835 0)
(1.08724 -0.0108345 0)
(1.08767 -0.0107652 0)
(1.08849 -0.0111836 0)
(1.08982 -0.0119651 0)
(1.09169 -0.0130461 0)
(1.09405 -0.0143731 0)
(1.09681 -0.0158352 0)
(1.09988 -0.0172718 0)
(1.10311 -0.018548 0)
(1.1064 -0.019578 0)
(1.1097 -0.0203121 0)
(1.11299 -0.0206712 0)
(1.11623 -0.0205397 0)
(1.1193 -0.0198103 0)
(1.12203 -0.0185319 0)
(1.12438 -0.0168404 0)
(1.12635 -0.0148785 0)
(1.12797 -0.0127694 0)
(1.12922 -0.0106412 0)
(1.13011 -0.00864449 0)
(1.13068 -0.00690148 0)
(1.13101 -0.00549046 0)
(1.13116 -0.00446335 0)
(1.13121 -0.00383013 0)
(1.13121 -0.00356113 0)
(1.13123 -0.0035754 0)
(1.1313 -0.00386555 0)
(1.13142 -0.00431382 0)
(1.13159 -0.00477762 0)
(1.13179 -0.00513858 0)
(1.13198 -0.0053411 0)
(1.13212 -0.00536875 0)
(1.13214 -0.00514211 0)
(1.13191 -0.0046337 0)
(1.13143 -0.00395942 0)
(1.1307 -0.0031904 0)
(1.12973 -0.00241884 0)
(1.12857 -0.00173304 0)
(1.12731 -0.00122453 0)
(1.12601 -0.000949101 0)
(1.12477 -0.000875887 0)
(1.12365 -0.00108301 0)
(1.12275 -0.00161862 0)
(1.12217 -0.00242527 0)
(1.12197 -0.00342027 0)
(1.12218 -0.00452454 0)
(1.1228 -0.00567755 0)
(1.12378 -0.00683517 0)
(1.1251 -0.00797078 0)
(1.12675 -0.00906075 0)
(1.12873 -0.0100566 0)
(1.13099 -0.0108828 0)
(1.13347 -0.0114294 0)
(1.13601 -0.0116132 0)
(1.13846 -0.0114747 0)
(1.14075 -0.0111185 0)
(1.14287 -0.0105964 0)
(1.14477 -0.00990887 0)
(1.14642 -0.00907565 0)
(1.14775 -0.00815457 0)
(1.14877 -0.00720878 0)
(1.14948 -0.00628299 0)
(1.1499 -0.00541174 0)
(1.15008 -0.00460931 0)
(1.15005 -0.0038804 0)
(1.14985 -0.0032323 0)
(1.14952 -0.00267125 0)
(1.14908 -0.00219446 0)
(1.14857 -0.00178479 0)
(1.148 -0.00141295 0)
(1.14739 -0.00105064 0)
(1.14672 -0.000671794 0)
(1.14598 -0.000258139 0)
(1.14514 0.000195287 0)
(1.14417 0.000680207 0)
(1.14305 0.0011783 0)
(1.1418 0.00166226 0)
(1.14042 0.00209879 0)
(1.13894 0.00245492 0)
(1.1374 0.00270166 0)
(1.13583 0.00281508 0)
(1.13429 0.00277856 0)
(1.13282 0.00258315 0)
(1.13149 0.00222738 0)
(1.13033 0.0017188 0)
(1.1294 0.00107248 0)
(1.12873 0.000320486 0)
(1.31894 -0.020246 0)
(1.32292 -0.0215702 0)
(1.32705 -0.0235487 0)
(1.33106 -0.0261765 0)
(1.33449 -0.028906 0)
(1.33688 -0.0309321 0)
(1.33795 -0.0316384 0)
(1.33722 -0.0313913 0)
(1.33397 -0.0304386 0)
(1.32872 -0.0289679 0)
(1.32207 -0.0267422 0)
(1.3146 -0.0236675 0)
(1.30704 -0.0201761 0)
(1.30022 -0.0165001 0)
(1.29447 -0.0133391 0)
(1.29011 -0.0111609 0)
(1.28727 -0.0100488 0)
(1.2859 -0.00986864 0)
(1.28587 -0.0106362 0)
(1.28767 -0.012224 0)
(1.29115 -0.0144057 0)
(1.29602 -0.0169444 0)
(1.30193 -0.0196057 0)
(1.30847 -0.0220644 0)
(1.31498 -0.0239407 0)
(1.32105 -0.0250331 0)
(1.32649 -0.0252793 0)
(1.3311 -0.0246522 0)
(1.33465 -0.0232156 0)
(1.33706 -0.0211666 0)
(1.33835 -0.0186488 0)
(1.33859 -0.0159115 0)
(1.33808 -0.0133683 0)
(1.33715 -0.0113661 0)
(1.33612 -0.0100974 0)
(1.33523 -0.0095405 0)
(1.33468 -0.00954823 0)
(1.33459 -0.0102887 0)
(1.33524 -0.011711 0)
(1.33666 -0.0134634 0)
(1.33881 -0.0153889 0)
(1.34161 -0.0173487 0)
(1.34485 -0.0191709 0)
(1.34825 -0.0207021 0)