/*--------------------------------*- C++ -*----------------------------------*\
| =========                 |                                                 |
| \\      /  F ield         | OpenFOAM: The Open Source CFD Toolbox           |
|  \\    /   O peration     | Version:  2206                                  |
|   \\  /    A nd           | Website:  www.openfoam.com                      |
|    \\/     M anipulation  |                                                 |
\*---------------------------------------------------------------------------*/
FoamFile
{
    version     2.0;
    format      ascii;
    arch        "LSB;label=32;scalar=64";
    class       volVectorField;
    location    "18.5001";
    object      ddtCorrDdt0(U);
}
// * * * * * * * * * * * * * * * * * * * * * * * * * * * * * * * * * * * * * //

dimensions      [0 1 -2 0 0 0 0];

internalField   nonuniform List<vector> 
4810
(
(-1.3547e-05 0.00279453 0)
(-5.40851e-05 0.00889089 0)
(-0.000147324 0.0152548 0)
(-0.000293986 0.0217767 0)
(-0.00049216 0.0283513 0)
(-0.000739027 0.0348983 0)
(-0.00103661 0.0413593 0)
(-0.00138986 0.0476709 0)
(-0.00180133 0.0537599 0)
(-0.00226943 0.0595484 0)
(-0.00278927 0.0649608 0)
(-0.00335435 0.0699307 0)
(-0.00395862 0.0744024 0)
(-0.00459723 0.078333 0)
(-0.00526545 0.0816925 0)
(-0.00595871 0.0844626 0)
(-0.00667237 0.0866351 0)
(-0.00740164 0.0882107 0)
(-0.00814166 0.0891987 0)
(-0.00888765 0.0896178 0)
(-0.00963501 0.0894966 0)
(-0.0103794 0.0888749 0)
(-0.0111169 0.0878033 0)
(-0.011844 0.0863426 0)
(-0.0125577 0.0845623 0)
(-0.0132553 0.0825386 0)
(-0.0139353 0.0803526 0)
(-0.0145959 0.0780891 0)
(-0.0152385 0.0758339 0)
(-0.0158566 0.0736753 0)
(-0.0164715 0.0716955 0)
(-0.0170486 0.0699811 0)
(-0.0176269 0.0686146 0)
(-0.0181911 0.0676747 0)
(-0.0187474 0.0672324 0)
(-0.0193119 0.0673558 0)
(-0.0198628 0.0681015 0)
(-0.0204485 0.0695249 0)
(-0.0210231 0.0716654 0)
(-0.0216422 0.074561 0)
(-0.0222811 0.078236 0)
(-0.0229433 0.0827001 0)
(-0.0236896 0.0879735 0)
(-0.0244169 0.0940216 0)
(-0.0252947 0.100872 0)
(-0.0261471 0.108448 0)
(-0.0271378 0.116754 0)
(-0.0282222 0.12575 0)
(-0.0293007 0.135294 0)
(-0.0306629 0.14552 0)
(-0.0319376 0.156093 0)
(-0.0334476 0.167194 0)
(-0.0350341 0.17865 0)
(-0.036648 0.190358 0)
(-0.038389 0.202553 0)
(-0.0401708 0.214826 0)
(-0.0421188 0.227235 0)
(-0.0441993 0.239717 0)
(-0.0463852 0.252219 0)
(-0.0486794 0.2647 0)
(-0.0510891 0.277124 0)
(-0.0536179 0.289466 0)
(-0.0562688 0.301707 0)
(-0.059044 0.313844 0)
(-0.0619433 0.325879 0)
(-0.0649655 0.337827 0)
(-0.0681116 0.349709 0)
(-0.0713849 0.361559 0)
(-0.074791 0.37342 0)
(-0.0783378 0.385352 0)
(-0.0820347 0.397424 0)
(-0.0858921 0.40972 0)
(-0.0899218 0.422334 0)
(-0.0941371 0.435367 0)
(-0.0985533 0.448932 0)
(-0.103189 0.463143 0)
(-0.108065 0.478125 0)
(-0.113206 0.494005 0)
(-0.118643 0.510918 0)
(-0.124409 0.528999 0)
(-0.130543 0.54839 0)
(-0.137089 0.569236 0)
(-0.144098 0.591684 0)
(-0.151626 0.615885 0)
(-0.159738 0.641992 0)
(-0.168509 0.670162 0)
(-0.178023 0.700561 0)
(-0.188374 0.733351 0)
(-0.199672 0.768709 0)
(-0.212041 0.806819 0)
(-0.225627 0.847876 0)
(-0.2406 0.892091 0)
(-0.257152 0.939693 0)
(-0.275509 0.990939 0)
(-0.295933 1.04611 0)
(-0.318731 1.10554 0)
(-0.344254 1.1696 0)
(-0.372915 1.23874 0)
(-0.405185 1.3135 0)
(-0.441609 1.39455 0)
(-0.482798 1.48272 0)
(-0.52943 1.57911 0)
(-0.582217 1.68515 0)
(-0.641882 1.80287 0)
(-0.708909 1.93507 0)
(-0.783666 2.08608 0)
(-0.865206 2.2622 0)
(-0.949034 2.47125 0)
(-1.02939 2.73583 0)
(-1.09172 3.10264 0)
(-1.10241 3.62787 0)
(-0.257862 4.88409 0)
(-1.26596e-05 0.00283156 0)
(-4.41813e-05 0.00896411 0)
(-0.000103957 0.0153766 0)
(-0.000205581 0.021946 0)
(-0.000355894 0.0285654 0)
(-0.000550756 0.0351611 0)
(-0.000788709 0.0416785 0)
(-0.00107191 0.0480522 0)
(-0.00140029 0.0542021 0)
(-0.00177097 0.0600452 0)
(-0.00217911 0.065505 0)
(-0.00262033 0.0705155 0)
(-0.00309142 0.0750227 0)
(-0.00358908 0.0789847 0)
(-0.00411013 0.0823713 0)
(-0.00465103 0.0851641 0)
(-0.00520802 0.0873545 0)
(-0.00577717 0.088943 0)
(-0.00635454 0.0899391 0)
(-0.00693632 0.0903616 0)
(-0.00751898 0.0902396 0)
(-0.00809925 0.0896131 0)
(-0.00867415 0.088533 0)
(-0.00924093 0.0870607 0)
(-0.00979723 0.0852661 0)
(-0.0103412 0.0832258 0)
(-0.0108713 0.0810217 0)
(-0.0113864 0.0787392 0)
(-0.0118866 0.0764649 0)
(-0.0123717 0.0742879 0)
(-0.0128405 0.0722901 0)
(-0.0133126 0.0705612 0)
(-0.0137331 0.0691821 0)
(-0.014209 0.0682353 0)
(-0.0146028 0.0677887 0)
(-0.0150864 0.0679153 0)
(-0.0154734 0.0686668 0)
(-0.0159728 0.0701043 0)
(-0.016384 0.0722628 0)
(-0.016899 0.0751842 0)
(-0.0173743 0.078891 0)
(-0.0179025 0.0833934 0)
(-0.0184856 0.088715 0)
(-0.0190279 0.0948121 0)
(-0.0197571 0.101737 0)
(-0.0203341 0.10936 0)
(-0.0212199 0.11779 0)
(-0.0219047 0.126811 0)
(-0.0229072 0.136546 0)
(-0.0238272 0.146795 0)
(-0.0249181 0.157542 0)
(-0.0261181 0.168761 0)
(-0.0273925 0.180267 0)
(-0.0286994 0.192039 0)
(-0.0301578 0.204356 0)
(-0.0315005 0.216718 0)
(-0.0329899 0.229227 0)
(-0.0346108 0.241821 0)
(-0.03632 0.254434 0)
(-0.0381157 0.267026 0)
(-0.0400033 0.279574 0)
(-0.0419824 0.29205 0)
(-0.0440532 0.304426 0)
(-0.0462175 0.316688 0)
(-0.0484787 0.328838 0)
(-0.0508405 0.340894 0)
(-0.053305 0.352885 0)
(-0.0558742 0.364855 0)
(-0.0585505 0.376853 0)
(-0.0613368 0.38894 0)
(-0.0642381 0.401187 0)
(-0.0672608 0.413672 0)
(-0.0704143 0.426485 0)
(-0.073711 0.439727 0)
(-0.077165 0.453509 0)
(-0.0807932 0.46795 0)
(-0.0846146 0.483179 0)
(-0.0886509 0.499331 0)
(-0.0929264 0.516545 0)
(-0.0974679 0.534966 0)
(-0.102306 0.554742 0)
(-0.107477 0.576023 0)
(-0.113021 0.598965 0)
(-0.118984 0.623724 0)
(-0.125418 0.650463 0)
(-0.132384 0.679347 0)
(-0.13995 0.710547 0)
(-0.148191 0.744246 0)
(-0.157195 0.78063 0)
(-0.167065 0.819903 0)
(-0.177919 0.862281 0)
(-0.189889 0.907999 0)
(-0.203132 0.957315 0)
(-0.217826 1.01052 0)
(-0.23418 1.06793 0)
(-0.252433 1.12993 0)
(-0.272857 1.19693 0)
(-0.295764 1.26945 0)
(-0.321498 1.34806 0)
(-0.350433 1.43349 0)
(-0.382956 1.5266 0)
(-0.419428 1.62847 0)
(-0.460121 1.74043 0)
(-0.505086 1.8642 0)
(-0.553859 2.00201 0)
(-0.605442 2.157 0)
(-0.655495 2.33131 0)
(-0.701345 2.53385 0)
(-0.727519 2.77169 0)
(-0.72033 3.05038 0)
(-0.579372 3.37906 0)
(-0.273493 3.51396 0)
(-9.67474e-06 0.0028601 0)
(-3.0863e-05 0.00898848 0)
(-6.26823e-05 0.0154364 0)
(-0.000130892 0.0220603 0)
(-0.000241537 0.0287349 0)
(-0.000386878 0.0353809 0)
(-0.000563773 0.0419433 0)
(-0.000772133 0.048357 0)
(-0.00101044 0.0545432 0)
(-0.00127578 0.0604203 0)
(-0.00156584 0.0659123 0)
(-0.00187931 0.0709529 0)
(-0.00221497 0.0754876 0)
(-0.00257142 0.0794741 0)
(-0.00294615 0.082882 0)
(-0.00333595 0.0856924 0)
(-0.00373716 0.0878964 0)
(-0.00414617 0.0894948 0)
(-0.00455973 0.0904969 0)
(-0.00497524 0.0909219 0)
(-0.00539066 0.090799 0)
(-0.00580419 0.0901685 0)
(-0.00621411 0.0890817 0)
(-0.00661864 0.0876002 0)
(-0.00701619 0.0857943 0)
(-0.00740519 0.0837411 0)
(-0.0077844 0.0815231 0)
(-0.00815306 0.0792262 0)
(-0.00851033 0.0769374 0)
(-0.00886032 0.074747 0)
(-0.0091863 0.072736 0)
(-0.00954482 0.0709962 0)
(-0.00981444 0.069607 0)
(-0.0101927 0.0686564 0)
(-0.0104328 0.0682078 0)
(-0.0108215 0.068336 0)
(-0.0110622 0.0690938 0)
(-0.0114492 0.0705384 0)
(-0.011728 0.0727158 0)
(-0.0121013 0.0756491 0)
(-0.0124478 0.0793881 0)
(-0.0128163 0.0839104 0)
(-0.0132373 0.0892717 0)
(-0.0136288 0.0954074 0)
(-0.0141326 0.10237 0)
(-0.0145517 0.110056 0)
(-0.0151881 0.118535 0)
(-0.0156118 0.127616 0)
(-0.0164194 0.137463 0)
(-0.0169192 0.147741 0)
(-0.0178408 0.158683 0)
(-0.0185982 0.169934 0)
(-0.0196371 0.181602 0)
(-0.0206772 0.193464 0)
(-0.0217739 0.205548 0)
(-0.0227902 0.218105 0)
(-0.0238189 0.230701 0)
(-0.0249655 0.243417 0)
(-0.0261908 0.256145 0)
(-0.027476 0.268826 0)
(-0.0288269 0.281449 0)
(-0.0302519 0.294001 0)
(-0.0317498 0.306462 0)
(-0.0333149 0.318823 0)
(-0.0349432 0.331084 0)
(-0.0366337 0.343258 0)
(-0.0383874 0.355367 0)
(-0.0402089 0.367445 0)
(-0.0421056 0.379539 0)
(-0.044087 0.391712 0)
(-0.0461619 0.40404 0)
(-0.0483375 0.416614 0)
(-0.0506201 0.429531 0)
(-0.0530143 0.442901 0)
(-0.0555254 0.456838 0)
(-0.0581604 0.471464 0)
(-0.0609296 0.486906 0)
(-0.0638478 0.503297 0)
(-0.0669329 0.520778 0)
(-0.0702067 0.539492 0)
(-0.0736947 0.559588 0)
(-0.0774258 0.581223 0)
(-0.0814323 0.604556 0)
(-0.0857501 0.629751 0)
(-0.09042 0.656977 0)
(-0.0954879 0.686411 0)
(-0.101002 0.718226 0)
(-0.107022 0.752625 0)
(-0.11361 0.789803 0)
(-0.120839 0.829975 0)
(-0.128793 0.873373 0)
(-0.137571 0.92025 0)
(-0.147284 0.970887 0)
(-0.158061 1.0256 0)
(-0.170052 1.08473 0)
(-0.183426 1.14869 0)
(-0.198375 1.21793 0)
(-0.215112 1.29299 0)
(-0.233862 1.37446 0)
(-0.254857 1.46309 0)
(-0.278311 1.55968 0)
(-0.304374 1.66523 0)
(-0.333065 1.78087 0)
(-0.364119 1.90789 0)
(-0.396837 2.04777 0)
(-0.429416 2.2019 0)
(-0.459166 2.37242 0)
(-0.480279 2.56044 0)
(-0.482758 2.76619 0)
(-0.445918 2.98555 0)
(-0.344892 3.19665 0)
(-0.139243 3.76577 0)
(-7.8819e-06 0.00287528 0)
(-2.17423e-05 0.00901084 0)
(-4.02584e-05 0.0154971 0)
(-8.49722e-05 0.022153 0)
(-0.000155529 0.0288509 0)
(-0.000243038 0.0355223 0)
(-0.000347143 0.0421125 0)
(-0.000469793 0.0485536 0)
(-0.000610433 0.0547656 0)
(-0.000767599 0.0606661 0)
(-0.000940166 0.0661798 0)
(-0.00112737 0.0712417 0)
(-0.00132874 0.0757971 0)
(-0.00154336 0.0798027 0)
(-0.0017698 0.0832269 0)
(-0.00200608 0.0860495 0)
(-0.00224992 0.0882614 0)
(-0.00249888 0.0898638 0)
(-0.00275077 0.0908672 0)
(-0.00300364 0.0912919 0)
(-0.00325586 0.0911676 0)
(-0.00350601 0.090535 0)
(-0.00375286 0.089445 0)
(-0.00399547 0.0879589 0)
(-0.00423293 0.0861468 0)
(-0.00446453 0.0840859 0)
(-0.0046896 0.0818589 0)
(-0.00490848 0.0795525 0)
(-0.00511865 0.0772537 0)
(-0.00533293 0.0750549 0)
(-0.00550609 0.0730382 0)
(-0.00576715 0.0712891 0)
(-0.00585741 0.0698887 0)
(-0.00617096 0.0689344 0)
(-0.00621032 0.0684891 0)
(-0.00657384 0.0686175 0)
(-0.00658041 0.0693805 0)
(-0.00695629 0.0708311 0)
(-0.00700218 0.0730179 0)
(-0.00730671 0.0759606 0)
(-0.00751165 0.0797232 0)
(-0.00764135 0.0842445 0)
(-0.00809196 0.0896614 0)
(-0.00804505 0.0957731 0)
(-0.00866555 0.102822 0)
(-0.008623 0.110485 0)
(-0.00920164 0.119033 0)
(-0.0093546 0.128154 0)
(-0.00982377 0.138016 0)
(-0.0101108 0.148388 0)
(-0.0106368 0.159397 0)
(-0.0109877 0.170731 0)
(-0.0116614 0.182579 0)
(-0.0123868 0.194507 0)
(-0.01337 0.206744 0)
(-0.0141399 0.219205 0)
(-0.0146 0.231657 0)
(-0.0152151 0.244391 0)
(-0.0159896 0.25721 0)
(-0.0167972 0.26998 0)
(-0.0176037 0.282682 0)
(-0.0184371 0.295304 0)
(-0.0193145 0.307822 0)
(-0.0202377 0.320222 0)
(-0.0212089 0.332511 0)
(-0.0222341 0.34471 0)
(-0.023317 0.356857 0)
(-0.0244559 0.368999 0)
(-0.0256455 0.381189 0)
(-0.0268792 0.393488 0)
(-0.0281516 0.405962 0)
(-0.0294625 0.418685 0)
(-0.030816 0.431745 0)
(-0.0322215 0.445242 0)
(-0.033693 0.459289 0)
(-0.0352459 0.474014 0)
(-0.0368951 0.489556 0)
(-0.038653 0.506057 0)
(-0.0405313 0.523665 0)
(-0.042542 0.542533 0)
(-0.0446958 0.562817 0)
(-0.0470055 0.584676 0)
(-0.0494865 0.608273 0)
(-0.0521581 0.633774 0)
(-0.0550437 0.661349 0)
(-0.05817 0.691176 0)
(-0.0615689 0.723442 0)
(-0.0652768 0.758336 0)
(-0.0693344 0.796069 0)
(-0.0737886 0.836868 0)
(-0.0786931 0.880974 0)
(-0.0841086 0.928653 0)
(-0.0901047 0.980201 0)
(-0.0967605 1.03594 0)
(-0.104166 1.09625 0)
(-0.112421 1.16155 0)
(-0.121636 1.2323 0)
(-0.131931 1.30906 0)
(-0.14343 1.39243 0)
(-0.156253 1.48312 0)
(-0.170498 1.58193 0)
(-0.186208 1.68972 0)
(-0.203319 1.80744 0)
(-0.221565 1.93602 0)
(-0.240349 2.07637 0)
(-0.258339 2.22882 0)
(-0.273687 2.39381 0)
(-0.282653 2.57025 0)
(-0.279611 2.75423 0)
(-0.255313 2.93837 0)
(-0.218392 3.10788 0)
(-0.114298 3.00032 0)
(-0.000315906 0.0663154 0)
(-0.00037236 0.0713884 0)
(-0.000434459 0.0759538 0)
(-0.000503453 0.0799682 0)
(-0.00057911 0.0834002 0)
(-0.00066039 0.0862298 0)
(-0.000745948 0.088448 0)
(-0.000834464 0.0900552 0)
(-0.000924546 0.0910617 0)
(-0.0010149 0.091487 0)
(-0.00110425 0.091361 0)
(-0.00119153 0.0907246 0)
(-0.00127606 0.0896294 0)
(-0.0013575 0.0881374 0)
(-0.00143583 0.0863191 0)
(-0.00151127 0.0842522 0)
(-0.00158364 0.0820196 0)
(-0.00165483 0.0797075 0)
(-0.00171805 0.0774045 0)
(-0.00179927 0.0751981 0)
(-0.00181336 0.07318 0)
(-0.00194608 0.0714298 0)
(-0.00190746 0.0700402 0)
(-0.00216011 0.0690819 0)
(-0.00201827 0.0686337 0)
(-0.00226602 0.0687587 0)
(-0.00218076 0.0695283 0)
(-0.00235848 0.0709761 0)
(-0.00235008 0.0731755 0)
(-0.00247233 0.0761175 0)
(-0.00252213 0.079893 0)
(-0.00258719 0.084421 0)
(-0.00276187 0.0898501 0)
(-0.00262519 0.0959637 0)
(-0.00312967 0.103055 0)
(-0.00260149 0.110667 0)
(-0.00350333 0.119333 0)
(-0.00273508 0.128329 0)
(-0.00363459 0.138343 0)
(-0.00315234 0.148624 0)
(-0.0035635 0.159679 0)
(-0.00350881 0.17108 0)
(-0.00357057 0.182987 0)
(-0.00355927 0.195141 0)
(-0.00386527 0.206833 0)
(-0.00568319 0.219785 0)
(-0.00579207 0.23241 0)
(-0.0056175 0.245088 0)
(-0.00575208 0.257852 0)
(-0.00602589 0.270617 0)
(-0.00629874 0.283331 0)
(-0.00658907 0.295972 0)
(-0.00691308 0.308529 0)
(-0.00725279 0.320997 0)
(-0.00758962 0.333375 0)
(-0.00791771 0.345668 0)
(-0.00824083 0.357891 0)
(-0.00856844 0.370072 0)
(-0.00890987 0.382258 0)
(-0.00927305 0.394511 0)
(-0.00966293 0.406915 0)
(-0.0100813 0.419572 0)
(-0.0105307 0.432593 0)
(-0.0110149 0.446097 0)
(-0.011537 0.460203 0)
(-0.0121015 0.47503 0)
(-0.0127158 0.490704 0)
(-0.013388 0.507357 0)
(-0.0141202 0.525124 0)
(-0.01491 0.544147 0)
(-0.0157566 0.564578 0)
(-0.0166586 0.586579 0)
(-0.0176151 0.610315 0)
(-0.0186269 0.63596 0)
(-0.0196982 0.66369 0)
(-0.0208357 0.693693 0)
(-0.0220515 0.726157 0)
(-0.0233611 0.761285 0)
(-0.0247854 0.79929 0)
(-0.0263468 0.840397 0)
(-0.0280707 0.884856 0)
(-0.0299849 0.932937 0)
(-0.0321177 0.98494 0)
(-0.0344984 1.0412 0)
(-0.0371571 1.10209 0)
(-0.0401246 1.16803 0)
(-0.0434324 1.2395 0)
(-0.0471129 1.31704 0)
(-0.0511997 1.40126 0)
(-0.0557218 1.49284 0)
(-0.0606991 1.59255 0)
(-0.0661295 1.70117 0)
(-0.0719715 1.81952 0)
(-0.0781174 1.94834 0)
(-0.0843217 2.08813 0)
(-0.0901372 2.23904 0)
(-0.0948439 2.40093 0)
(-0.0969822 2.57101 0)
(-0.0937616 2.74446 0)
(-0.0813697 2.91237 0)
(-0.048873 3.06858 0)
(-0.00925734 3.04154 0)
(-9.38118e-05 8.73107e-05 0)
(-0.000402901 0.000242124 0)
(-0.00103609 0.000355743 0)
(-0.00201113 0.000503289 0)
(-0.00320297 0.000676949 0)
(-0.0046847 0.000846065 0)
(-0.00646384 0.0010386 0)
(-0.00854822 0.00121078 0)
(-0.0109571 0.00137734 0)
(-0.0136312 0.0015376 0)
(-0.016519 0.00167227 0)
(-0.0195717 0.00177294 0)
(-0.0227401 0.0018492 0)
(-0.026001 0.00192743 0)
(-0.0293543 0.00198448 0)
(-0.0327784 0.00199163 0)
(-0.0362148 0.00194014 0)
(-0.0396294 0.00188131 0)
(-0.0429736 0.00178167 0)
(-0.0461622 0.00163762 0)
(-0.0491234 0.00144626 0)
(-0.0518418 0.00123299 0)
(-0.0543203 0.00100061 0)
(-0.0565238 0.000733654 0)
(-0.058445 0.000505206 0)
(-0.0601182 0.00034047 0)
(-0.0615802 0.000234335 0)
(-0.0628976 0.000221055 0)
(-0.0640086 0.000255671 0)
(-0.0653689 0.000320506 0)
(-0.0662981 0.00045572 0)
(-0.0676985 0.000720325 0)
(-0.0693375 0.00109584 0)
(-0.0713132 0.00153978 0)
(-0.0737363 0.00201481 0)
(-0.0766631 0.00248253 0)
(-0.0800949 0.0029066 0)
(-0.0840401 0.00325619 0)
(-0.0884493 0.00350764 0)
(-0.0932787 0.00363012 0)
(-0.0984207 0.00361591 0)
(-0.103763 0.00348801 0)
(-0.109213 0.00327095 0)
(-0.114655 0.00298241 0)
(-0.120049 0.00269145 0)
(-0.125355 0.00239087 0)
(-0.130504 0.00213012 0)
(-0.135491 0.00198794 0)
(-0.140389 0.00198288 0)
(-0.145362 0.00212963 0)
(-0.150455 0.00242491 0)
(-0.155861 0.00285897 0)
(-0.161621 0.00340456 0)
(-0.167919 0.00402832 0)
(-0.174829 0.00464599 0)
(-0.182327 0.00525085 0)
(-0.19058 0.00575687 0)
(-0.199341 0.00587369 0)
(-0.208502 0.00631619 0)
(-0.218741 0.00674435 0)
(-0.228637 0.00700643 0)
(-0.240159 0.00691813 0)
(-0.250202 0.00695275 0)
(-0.261603 0.00644434 0)
(-0.273971 0.00710804 0)
(-0.284177 0.0070253 0)
(-0.296859 0.00786155 0)
(-0.308652 0.00601316 0)
(-0.320013 0.00558424 0)
(-0.331577 0.00584763 0)
(-0.343803 0.00622925 0)
(-0.356656 0.00724125 0)
(-0.370028 0.00862724 0)
(-0.384636 0.00950671 0)
(-0.400101 0.00962355 0)
(-0.416231 0.00999994 0)
(-0.432986 0.0103385 0)
(-0.450379 0.0106089 0)
(-0.46836 0.0107941 0)
(-0.486879 0.0110362 0)
(-0.505863 0.011138 0)
(-0.52528 0.0112615 0)
(-0.545136 0.0114406 0)
(-0.565462 0.0116738 0)
(-0.586298 0.0119494 0)
(-0.607683 0.0122623 0)
(-0.629637 0.0126034 0)
(-0.652174 0.0129602 0)
(-0.675307 0.0133182 0)
(-0.699034 0.0136739 0)
(-0.72333 0.0140178 0)
(-0.748171 0.0143478 0)
(-0.773537 0.014655 0)
(-0.79943 0.014972 0)
(-0.825866 0.0153102 0)
(-0.852867 0.0156553 0)
(-0.880413 0.0159464 0)
(-0.908389 0.0161313 0)
(-0.936654 0.0162453 0)
(-0.965122 0.0163406 0)
(-0.993769 0.0164153 0)
(-1.02258 0.016469 0)
(-1.05149 0.0165043 0)
(-1.08047 0.0165376 0)
(-1.10954 0.0165595 0)
(-1.13867 0.0166023 0)
(-1.16807 0.0166457 0)
(-1.1971 0.016732 0)
(-1.22691 0.0168223 0)
(-1.2563 0.0169039 0)
(-1.28603 0.0169979 0)
(-1.31606 0.0169932 0)
(2.81213e-05 0.000391169 0)
(-0.000364644 0.000662006 0)
(-0.000535861 0.00171346 0)
(-0.00199946 0.00198273 0)
(-0.00315879 0.00228599 0)
(-0.00459341 0.00293233 0)
(-0.00629976 0.00310841 0)
(-0.00823052 0.00385693 0)
(-0.0104142 0.00423689 0)
(-0.0128478 0.00460301 0)
(-0.0155064 0.00489533 0)
(-0.0182934 0.00506929 0)
(-0.0211963 0.00517595 0)
(-0.0242168 0.00536339 0)
(-0.0274126 0.00555107 0)
(-0.0307495 0.00565835 0)
(-0.0341241 0.00566414 0)
(-0.0375592 0.00558027 0)
(-0.0410724 0.00537614 0)
(-0.0445617 0.00511074 0)
(-0.047952 0.00485959 0)
(-0.0512526 0.0046252 0)
(-0.0544939 0.00427865 0)
(-0.0575787 0.00389552 0)
(-0.0604718 0.00349379 0)
(-0.0632381 0.00312048 0)
(-0.0658597 0.00276611 0)
(-0.0683864 0.00245433 0)
(-0.0707697 0.002302 0)
(-0.0729645 0.00229257 0)
(-0.075087 0.00237457 0)
(-0.077229 0.00258748 0)
(-0.0793853 0.00293451 0)
(-0.0815623 0.00340474 0)
(-0.0837912 0.00398077 0)
(-0.0861051 0.00463534 0)
(-0.0885336 0.00533585 0)
(-0.0911073 0.00605029 0)
(-0.0938702 0.00676587 0)
(-0.0968599 0.00742084 0)
(-0.100085 0.00795513 0)
(-0.103557 0.00837013 0)
(-0.107313 0.00867727 0)
(-0.111344 0.00888448 0)
(-0.115769 0.00900787 0)
(-0.120248 0.00908254 0)
(-0.125391 0.00913053 0)
(-0.130718 0.00903984 0)
(-0.136443 0.0091336 0)
(-0.142491 0.00932643 0)
(-0.14884 0.00961046 0)
(-0.155522 0.0100072 0)
(-0.16239 0.0105557 0)
(-0.169697 0.0112147 0)
(-0.177065 0.011998 0)
(-0.185115 0.0127787 0)
(-0.192895 0.0136607 0)
(-0.201681 0.0143821 0)
(-0.209866 0.015168 0)
(-0.219174 0.0157382 0)
(-0.228572 0.0163502 0)
(-0.238636 0.0168917 0)
(-0.248807 0.0174266 0)
(-0.258936 0.0180679 0)
(-0.269813 0.0183912 0)
(-0.279715 0.0187696 0)
(-0.290077 0.0191873 0)
(-0.301512 0.019466 0)
(-0.311714 0.020749 0)
(-0.326018 0.0223543 0)
(-0.339503 0.0226366 0)
(-0.352542 0.0232264 0)
(-0.366298 0.0223419 0)
(-0.379085 0.0248275 0)
(-0.39348 0.0261378 0)
(-0.408407 0.0272244 0)
(-0.42383 0.028311 0)
(-0.439851 0.0293866 0)
(-0.456487 0.0304017 0)
(-0.47373 0.0313338 0)
(-0.491577 0.0321979 0)
(-0.510058 0.0330363 0)
(-0.529191 0.0338855 0)
(-0.548987 0.0347709 0)
(-0.569455 0.0356918 0)
(-0.590593 0.036646 0)
(-0.61239 0.0376228 0)
(-0.634834 0.0386068 0)
(-0.657917 0.0395736 0)
(-0.681617 0.0405189 0)
(-0.70589 0.0414284 0)
(-0.73071 0.042299 0)
(-0.756028 0.0431358 0)
(-0.78183 0.0440078 0)
(-0.808129 0.044904 0)
(-0.835067 0.0457654 0)
(-0.862301 0.046497 0)
(-0.889912 0.0470561 0)
(-0.917838 0.0474952 0)
(-0.946072 0.0478671 0)
(-0.974624 0.0481594 0)
(-1.00345 0.0483906 0)
(-1.03248 0.048578 0)
(-1.06165 0.0487521 0)
(-1.09096 0.0489048 0)
(-1.12039 0.0490722 0)
(-1.1499 0.0492424 0)
(-1.17948 0.0494375 0)
(-1.2091 0.0496253 0)
(-1.23878 0.0497771 0)
(-1.26838 0.0499202 0)
(-1.29796 0.0499976 0)
(-4.47011e-05 0.000365984 0)
(-0.000198106 0.00127158 0)
(-0.000690541 0.00213449 0)
(-0.00125485 0.0028023 0)
(-0.00224052 0.00355713 0)
(-0.00349759 0.00439807 0)
(-0.00521386 0.00513898 0)
(-0.00704259 0.0059645 0)
(-0.00927015 0.00663819 0)
(-0.0114461 0.00738004 0)
(-0.014291 0.00796723 0)
(-0.0163946 0.00844272 0)
(-0.0199668 0.00881566 0)
(-0.023114 0.00911438 0)
(-0.0263335 0.00932584 0)
(-0.0296981 0.00945867 0)
(-0.0331132 0.00934765 0)
(-0.0365971 0.00997557 0)
(-0.040083 0.00976602 0)
(-0.0434638 0.00932675 0)
(-0.0467193 0.00880914 0)
(-0.0500571 0.00839858 0)
(-0.0535533 0.00806644 0)
(-0.0569911 0.00721688 0)
(-0.0603548 0.0069584 0)
(-0.0636838 0.00662477 0)
(-0.0669869 0.00611216 0)
(-0.0701342 0.00610562 0)
(-0.0730874 0.00519898 0)
(-0.0760103 0.0050247 0)
(-0.0789376 0.00520347 0)
(-0.0818061 0.0054738 0)
(-0.0845778 0.00584778 0)
(-0.0872559 0.00634032 0)
(-0.08986 0.00693553 0)
(-0.0924096 0.00761171 0)
(-0.0949259 0.00833991 0)
(-0.0974206 0.0090902 0)
(-0.0999748 0.00983013 0)
(-0.102692 0.0105527 0)
(-0.105569 0.0112307 0)
(-0.108609 0.0118269 0)
(-0.111883 0.0123416 0)
(-0.115457 0.012788 0)
(-0.119383 0.013188 0)
(-0.12369 0.0135774 0)
(-0.128394 0.0140051 0)
(-0.133514 0.0144717 0)
(-0.139081 0.0150373 0)
(-0.145086 0.0156917 0)
(-0.15148 0.0164354 0)
(-0.158215 0.0173269 0)
(-0.165292 0.0183958 0)
(-0.172735 0.0195982 0)
(-0.180538 0.0208792 0)
(-0.188696 0.0221687 0)
(-0.1972 0.0234222 0)
(-0.206077 0.0246074 0)
(-0.215293 0.0253137 0)
(-0.224928 0.0284152 0)
(-0.234893 0.0293239 0)
(-0.245226 0.0297958 0)
(-0.255964 0.0301944 0)
(-0.267167 0.0305402 0)
(-0.278485 0.031033 0)
(-0.290581 0.0311328 0)
(-0.302628 0.0316034 0)
(-0.315423 0.0313561 0)
(-0.326751 0.0322461 0)
(-0.341388 0.031173 0)
(-0.356803 0.0327646 0)
(-0.36994 0.0360002 0)
(-0.383457 0.0380534 0)
(-0.397956 0.03973 0)
(-0.412845 0.0414332 0)
(-0.427991 0.0431873 0)
(-0.443541 0.0449269 0)
(-0.459581 0.0466155 0)
(-0.476125 0.0482407 0)
(-0.493191 0.0498171 0)
(-0.510823 0.0513719 0)
(-0.529061 0.0529501 0)
(-0.547921 0.0545828 0)
(-0.5674 0.0562795 0)
(-0.587496 0.058024 0)
(-0.608197 0.0598001 0)
(-0.62951 0.0615863 0)
(-0.651422 0.063353 0)
(-0.673936 0.0650998 0)
(-0.697065 0.066775 0)
(-0.720715 0.0683879 0)
(-0.744965 0.0698256 0)
(-0.769519 0.0711966 0)
(-0.794528 0.0728181 0)
(-0.82012 0.0744883 0)
(-0.846531 0.0759202 0)
(-0.873092 0.0770801 0)
(-0.900595 0.0780843 0)
(-0.928554 0.0789899 0)
(-0.956846 0.0797879 0)
(-0.985435 0.0804498 0)
(-1.01424 0.0809765 0)
(-1.04317 0.0813768 0)
(-1.07214 0.0816807 0)
(-1.10111 0.0819212 0)
(-1.13005 0.0821402 0)
(-1.15892 0.0823424 0)
(-1.18769 0.0825216 0)
(-1.21633 0.0826604 0)
(-1.24484 0.0827501 0)
(-1.27321 0.0827806 0)
(-1.30142 0.0827532 0)
(-3.95819e-05 0.000515965 0)
(-0.000240907 0.00156645 0)
(-0.000602672 0.00278715 0)
(-0.00137622 0.00386256 0)
(-0.00231531 0.00500341 0)
(-0.0036201 0.00605296 0)
(-0.0050493 0.007154 0)
(-0.00686897 0.00812904 0)
(-0.00882198 0.00909803 0)
(-0.0110611 0.01017 0)
(-0.0133798 0.0102873 0)
(-0.0160561 0.0111168 0)
(-0.0190739 0.011877 0)
(-0.021978 0.0125687 0)
(-0.0250437 0.0130778 0)
(-0.0284122 0.0133455 0)
(-0.0315113 0.0135117 0)
(-0.0356983 0.0134596 0)
(-0.0375019 0.0132907 0)
(-0.0426677 0.0130688 0)
(-0.0463324 0.0124878 0)
(-0.0498992 0.0127788 0)
(-0.053564 0.012088 0)
(-0.0573505 0.0114427 0)
(-0.0608052 0.0108509 0)
(-0.0651104 0.0102477 0)
(-0.0670007 0.00984909 0)
(-0.0715255 0.00941765 0)
(-0.0753657 0.00913733 0)
(-0.078784 0.00892705 0)
(-0.082145 0.00881458 0)
(-0.085315 0.00883531 0)
(-0.0882507 0.00900763 0)
(-0.0910052 0.00933976 0)
(-0.0936245 0.00980807 0)
(-0.096108 0.0103812 0)
(-0.0985226 0.0110442 0)
(-0.100903 0.0117312 0)
(-0.103318 0.0128984 0)
(-0.105775 0.0138459 0)
(-0.108338 0.0145149 0)
(-0.111094 0.0153357 0)
(-0.114091 0.0161935 0)
(-0.117388 0.0170605 0)
(-0.121024 0.0179395 0)
(-0.12504 0.0188432 0)
(-0.129474 0.0198113 0)
(-0.134353 0.020829 0)
(-0.139733 0.0220192 0)
(-0.145638 0.0232395 0)
(-0.151862 0.0243068 0)
(-0.158366 0.0254939 0)
(-0.165299 0.0269166 0)
(-0.17273 0.0284845 0)
(-0.180617 0.0301202 0)
(-0.188921 0.0317715 0)
(-0.197643 0.033405 0)
(-0.206796 0.03498 0)
(-0.216492 0.0364763 0)
(-0.22656 0.037927 0)
(-0.236768 0.0393182 0)
(-0.247366 0.0407116 0)
(-0.258547 0.0420411 0)
(-0.270328 0.0432086 0)
(-0.282605 0.0442609 0)
(-0.295346 0.0452931 0)
(-0.308585 0.0463533 0)
(-0.322467 0.0473062 0)
(-0.337792 0.0480851 0)
(-0.351055 0.0480644 0)
(-0.363325 0.0503821 0)
(-0.378375 0.0531702 0)
(-0.394157 0.0554092 0)
(-0.409894 0.0574993 0)
(-0.425736 0.0596226 0)
(-0.441856 0.0617388 0)
(-0.458349 0.0638238 0)
(-0.475244 0.0659028 0)
(-0.492559 0.0680006 0)
(-0.510323 0.0701278 0)
(-0.528571 0.0722876 0)
(-0.54733 0.0744878 0)
(-0.566606 0.0767277 0)
(-0.58641 0.0790147 0)
(-0.606739 0.0813285 0)
(-0.627599 0.0836758 0)
(-0.649015 0.0860543 0)
(-0.670938 0.0883965 0)
(-0.693481 0.0907996 0)
(-0.716508 0.0930308 0)
(-0.740145 0.0953329 0)
(-0.764137 0.0970559 0)
(-0.788174 0.0983894 0)
(-0.813154 0.100705 0)
(-0.839178 0.103369 0)
(-0.865845 0.105631 0)
(-0.892786 0.107442 0)
(-0.919872 0.109019 0)
(-0.947123 0.110418 0)
(-0.974543 0.111591 0)
(-1.0021 0.112494 0)
(-1.02977 0.113132 0)
(-1.0575 0.113544 0)
(-1.08528 0.113795 0)
(-1.11309 0.113942 0)
(-1.14089 0.114029 0)
(-1.16861 0.114066 0)
(-1.19622 0.114045 0)
(-1.22369 0.11396 0)
(-1.25103 0.113823 0)
(-1.27827 0.113651 0)
(-1.30545 0.113454 0)
(-3.80758e-05 0.000615276 0)
(-0.000220674 0.00197523 0)
(-0.000650999 0.00341167 0)
(-0.00135561 0.00482391 0)
(-0.00239101 0.00615127 0)
(-0.00358286 0.00756684 0)
(-0.00514105 0.00887479 0)
(-0.00681507 0.0102358 0)
(-0.00887763 0.0114305 0)
(-0.0109927 0.0126281 0)
(-0.013437 0.0136633 0)
(-0.0161064 0.0146483 0)
(-0.0189534 0.0155034 0)
(-0.0219722 0.016129 0)
(-0.0250366 0.0166214 0)
(-0.0284103 0.0168981 0)
(-0.0316542 0.0171714 0)
(-0.0352773 0.0172054 0)
(-0.0386835 0.0172606 0)
(-0.0422195 0.0173285 0)
(-0.0457215 0.0171045 0)
(-0.0494136 0.0166977 0)
(-0.0530444 0.0162265 0)
(-0.0567277 0.0156981 0)
(-0.0603992 0.0151391 0)
(-0.0641122 0.0144782 0)
(-0.0678793 0.0138892 0)
(-0.0713552 0.0136276 0)
(-0.074694 0.0133178 0)
(-0.0780038 0.0129213 0)
(-0.0813171 0.0125912 0)
(-0.08455 0.0124059 0)
(-0.0876691 0.0123766 0)
(-0.0906965 0.0125085 0)
(-0.0934759 0.0127828 0)
(-0.0963501 0.0132381 0)
(-0.0989417 0.013809 0)
(-0.101668 0.0145416 0)
(-0.104202 0.0153429 0)
(-0.106786 0.0162666 0)
(-0.109374 0.017263 0)
(-0.112121 0.0183294 0)
(-0.115147 0.0194971 0)
(-0.118226 0.0206458 0)
(-0.12182 0.0219555 0)
(-0.125491 0.0232147 0)
(-0.129849 0.0247408 0)
(-0.13407 0.0260714 0)
(-0.139694 0.0278001 0)
(-0.14338 0.0294978 0)
(-0.150209 0.0312683 0)
(-0.157241 0.0331513 0)
(-0.164423 0.0351436 0)
(-0.172071 0.0372021 0)
(-0.180133 0.0392951 0)
(-0.188552 0.041415 0)
(-0.197346 0.0435393 0)
(-0.20654 0.0456457 0)
(-0.216157 0.0477195 0)
(-0.226119 0.0498238 0)
(-0.236341 0.0517636 0)
(-0.247097 0.0537789 0)
(-0.258571 0.0557912 0)
(-0.270656 0.057524 0)
(-0.283061 0.0589804 0)
(-0.295926 0.0604895 0)
(-0.309297 0.0619373 0)
(-0.323273 0.0634876 0)
(-0.337547 0.0650281 0)
(-0.351088 0.067265 0)
(-0.364967 0.0686634 0)
(-0.380406 0.0704774 0)
(-0.396465 0.0727224 0)
(-0.412601 0.0750991 0)
(-0.428912 0.0775442 0)
(-0.445552 0.0800497 0)
(-0.462578 0.0826029 0)
(-0.479996 0.0851908 0)
(-0.497815 0.0878037 0)
(-0.516051 0.0904411 0)
(-0.534721 0.0931146 0)
(-0.553843 0.0958416 0)
(-0.573394 0.0986342 0)
(-0.593466 0.101492 0)
(-0.613853 0.104402 0)
(-0.634983 0.107349 0)
(-0.656225 0.110312 0)
(-0.67821 0.113277 0)
(-0.701009 0.116229 0)
(-0.722682 0.119153 0)
(-0.749071 0.122026 0)
(-0.768088 0.124846 0)
(-0.801222 0.127627 0)
(-0.825985 0.130312 0)
(-0.850718 0.132782 0)
(-0.876315 0.134988 0)
(-0.902157 0.136955 0)
(-0.928122 0.138695 0)
(-0.95433 0.140181 0)
(-0.980807 0.141389 0)
(-1.00751 0.142333 0)
(-1.03441 0.143054 0)
(-1.0615 0.143593 0)
(-1.08878 0.143975 0)
(-1.11618 0.14421 0)
(-1.14365 0.144308 0)
(-1.1711 0.144281 0)
(-1.19846 0.144152 0)
(-1.22573 0.143962 0)
(-1.2529 0.143757 0)
(-1.28002 0.143581 0)
(-1.30712 0.143459 0)
(-4.00561e-05 0.000730431 0)
(-0.000222399 0.00235064 0)
(-0.000657545 0.00405198 0)
(-0.00136546 0.0057462 0)
(-0.00235137 0.00741217 0)
(-0.00356807 0.00908883 0)
(-0.00506311 0.0107125 0)
(-0.00677813 0.0123003 0)
(-0.00877254 0.0137691 0)
(-0.0109494 0.0151673 0)
(-0.0133804 0.0164018 0)
(-0.0160479 0.0175174 0)
(-0.0188587 0.0185298 0)
(-0.0218536 0.0193719 0)
(-0.0249221 0.0200889 0)
(-0.0281902 0.0206155 0)
(-0.0315214 0.0210121 0)
(-0.0350091 0.0212231 0)
(-0.0385283 0.0213063 0)
(-0.0421378 0.0212553 0)
(-0.0456964 0.0210266 0)
(-0.0493249 0.0206673 0)
(-0.0528753 0.0202157 0)
(-0.056509 0.0196587 0)
(-0.0600854 0.0190756 0)
(-0.0636384 0.0184722 0)
(-0.0671625 0.0179068 0)
(-0.0706092 0.017414 0)
(-0.0739403 0.0169289 0)
(-0.077168 0.016466 0)
(-0.0803245 0.0161007 0)
(-0.0834118 0.0158731 0)
(-0.0864166 0.0157908 0)
(-0.0893405 0.0158479 0)
(-0.0921894 0.0160605 0)
(-0.094974 0.0164329 0)
(-0.0977028 0.0169597 0)
(-0.100403 0.0176395 0)
(-0.103088 0.0184806 0)
(-0.105784 0.0194576 0)
(-0.108576 0.020543 0)
(-0.111393 0.0217131 0)
(-0.114553 0.0230741 0)
(-0.117738 0.0244813 0)
(-0.121288 0.0260717 0)
(-0.125089 0.0277336 0)
(-0.129231 0.0295016 0)
(-0.133752 0.0314065 0)
(-0.13876 0.0333551 0)
(-0.144197 0.0354815 0)
(-0.149995 0.0380107 0)
(-0.156068 0.0406452 0)
(-0.162578 0.0432226 0)
(-0.16956 0.0457018 0)
(-0.177198 0.0483367 0)
(-0.185252 0.0509352 0)
(-0.19377 0.0535213 0)
(-0.202777 0.0560921 0)
(-0.212323 0.058639 0)
(-0.222145 0.0611632 0)
(-0.232838 0.0636098 0)
(-0.245082 0.0659556 0)
(-0.253961 0.0682185 0)
(-0.26639 0.0704215 0)
(-0.277664 0.0725917 0)
(-0.292248 0.0747563 0)
(-0.302518 0.0769382 0)
(-0.320373 0.0791894 0)
(-0.329474 0.0814966 0)
(-0.35087 0.0839446 0)
(-0.366459 0.0860866 0)
(-0.382053 0.0883728 0)
(-0.398465 0.0909418 0)
(-0.415167 0.0936588 0)
(-0.431971 0.0964508 0)
(-0.448977 0.0993064 0)
(-0.466268 0.102222 0)
(-0.483865 0.105195 0)
(-0.501779 0.108225 0)
(-0.520036 0.111318 0)
(-0.538666 0.114475 0)
(-0.557697 0.117695 0)
(-0.57714 0.120978 0)
(-0.597011 0.124313 0)
(-0.617321 0.127711 0)
(-0.638087 0.131152 0)