/*--------------------------------*- C++ -*----------------------------------*\
| =========                 |                                                 |
| \\      /  F ield         | OpenFOAM: The Open Source CFD Toolbox           |
|  \\    /   O peration     | Version:  2206                                  |
|   \\  /    A nd           | Website:  www.openfoam.com                      |
|    \\/     M anipulation  |                                                 |
\*---------------------------------------------------------------------------*/
FoamFile
{
    version     2.0;
    format      ascii;
    arch        "LSB;label=32;scalar=64";
    class       volVectorField;
    location    "18.9999";
    object      ddt0(U);
}
// * * * * * * * * * * * * * * * * * * * * * * * * * * * * * * * * * * * * * //

dimensions      [0 1 -2 0 0 0 0];

internalField   nonuniform List<vector> 
3088
(
(-12.7031 -5.3422 0)
(1.67085 -18.9265 0)
(6.16298 -27.4075 0)
(16.4441 -32.5143 0)
(23.2024 -31.5653 0)
(24.364 -28.1918 0)
(23.5709 -24.9566 0)
(21.7365 -21.5482 0)
(19.4935 -18.7782 0)
(17.3255 -16.4779 0)
(15.4422 -14.6056 0)
(13.756 -13.0123 0)
(12.2976 -11.7298 0)
(11.0352 -10.6716 0)
(9.86878 -9.83306 0)
(8.66075 -9.10498 0)
(6.83814 -8.36304 0)
(3.42956 -7.28652 0)
(-3.09395 -5.40683 0)
(-11.5239 -1.72903 0)
(2.00356 9.54372 0)
(35.1665 1.74623 0)
(64.0561 -10.2002 0)
(89.5038 -21.6151 0)
(112.517 -28.8514 0)
(134.477 -31.7896 0)
(157.406 -31.3716 0)
(177.638 -30.93 0)
(197.334 -21.8677 0)
(217.45 -13.7903 0)
(238.664 -6.06049 0)
(261.388 0.939016 0)
(283.966 6.90416 0)
(298.338 10.5825 0)
(291.168 6.90625 0)
(255.17 -11.4665 0)
(196.365 -50.2857 0)
(129.9 -87.84 0)
(66.3711 -117.811 0)
(19.4368 -144.22 0)
(-19.9823 -160.828 0)
(-39.5307 -161.294 0)
(-38.1802 -151.686 0)
(-29.667 -139.983 0)
(-16.0345 -128.395 0)
(0.812103 -117.531 0)
(17.7584 -108.929 0)
(31.966 -103.318 0)
(41.4327 -98.1957 0)
(44.6059 -88.712 0)
(39.4071 -72.1008 0)
(20.3617 -44.1235 0)
(-13.5502 12.2162 0)
(-65.4259 91.8576 0)
(-119.936 184.497 0)
(-167.455 278.216 0)
(-204.67 353.165 0)
(-219.861 389.379 0)
(-204.817 375.344 0)
(-172.98 331 0)
(-132.825 270.225 0)
(-90.8407 204.991 0)
(-52.1298 143.524 0)
(-20.2119 90.4834 0)
(4.87507 49.5052 0)
(29.437 15.7804 0)
(43.7777 -11.3997 0)
(52.5774 -25.7587 0)
(56.2037 -32.9889 0)
(55.9668 -35.4877 0)
(54.4623 -35.1654 0)
(52.7812 -33.3873 0)
(51.2888 -30.9583 0)
(50.2707 -28.2851 0)
(49.881 -25.5054 0)
(50.1724 -22.5649 0)
(51.0771 -19.3909 0)
(52.4224 -16.1499 0)
(54.1352 -13.2441 0)
(56.143 -10.683 0)
(58.8586 -7.73642 0)
(63.0754 -3.18114 0)
(69.169 3.47256 0)
(76.2543 10.3734 0)
(82.0021 12.8691 0)
(82.5257 6.1753 0)
(79.1033 -11.165 0)
(70.0906 -38.4804 0)
(56.5439 -71.0731 0)
(41.6593 -102.415 0)
(26.6833 -127.243 0)
(12.3552 -142.963 0)
(-0.889359 -149.04 0)
(-12.9005 -146.866 0)
(-23.8135 -139.873 0)
(-33.3538 -129.044 0)
(-41.155 -115.45 0)
(-47.0737 -100.17 0)
(-51.1114 -84.2208 0)
(-53.3843 -68.4835 0)
(-54.0914 -53.6697 0)
(-53.4716 -40.3314 0)
(-51.7691 -28.9014 0)
(-49.242 -19.7503 0)
(-46.1474 -13.1056 0)
(-42.8048 -9.03351 0)
(-39.4952 -7.36863 0)
(-36.459 -7.74388 0)
(-33.9256 -9.64 0)
(-32.041 -12.2613 0)
(-30.7845 -14.4367 0)
(-30.0269 -15.089 0)
(-29.7656 -13.633 0)
(-30.1776 -9.62665 0)
(-30.935 -2.30992 0)
(-31.8253 9.08664 0)
(-32.2905 24.2883 0)
(-32.2181 42.2135 0)
(-31.8338 61.9406 0)
(-31.1712 82.5578 0)
(-30.1588 103.126 0)
(-28.7525 122.71 0)
(-26.9245 140.31 0)
(-24.6728 154.76 0)
(-21.7985 164.205 0)
(-17.7227 165.396 0)
(-12.9972 160.539 0)
(-7.82509 150.558 0)
(-2.27717 136.129 0)
(3.52099 118.117 0)
(9.43146 97.5628 0)
(15.1952 75.5535 0)
(20.2363 53.0749 0)
(25.9023 31.0064 0)
(34.5588 7.45521 0)
(42.0427 -14.5213 0)
(49.5145 -30.9516 0)
(55.2819 -41.4704 0)
(59.1223 -45.5315 0)
(60.6943 -43.7041 0)
(60.7537 -38.5649 0)
(59.7868 -32.3978 0)
(57.9905 -26.602 0)
(14.6134 -13.8268 0)
(35.9635 -17.7798 0)
(53.8357 -25.9432 0)
(63.5224 -34.0162 0)
(68.2223 -41.6826 0)
(73.2024 -48.7179 0)
(80.5215 -49.7377 0)
(86.5687 -45.952 0)
(97.2654 -43.9925 0)
(111.34 -39.9585 0)
(128.004 -33.8366 0)
(147.274 -29.6644 0)
(169.102 -26.6853 0)
(194.69 -21.7118 0)
(224.467 -13.2043 0)
(254.44 -2.3071 0)
(273.589 3.67105 0)
(248.36 -9.64447 0)
(188.961 -43.7681 0)
(115.839 -84.7489 0)
(48.5668 -117.769 0)
(7.71194 -143.261 0)
(-31.3468 -150.855 0)
(-35.0637 -145.437 0)
(-30.1829 -138.934 0)
(-21.4088 -130.7 0)
(-12.3939 -120.758 0)
(-6.47572 -109.765 0)
(-6.44599 -97.4416 0)
(-14.8584 -80.1863 0)
(-33.3308 -51.8413 0)
(-64.0006 -5.6795 0)
(-104.827 59.485 0)
(-152.181 139.523 0)
(-197.658 230.416 0)
(-234.698 314.511 0)
(-253.201 370.647 0)
(-236.427 374.482 0)
(-197.87 341.846 0)
(-148.775 287.392 0)
(-98.3522 224.186 0)
(-52.5319 162.214 0)
(-15.097 107.608 0)
(15.1555 63.8348 0)
(41.7964 26.3027 0)
(57.1457 -3.27271 0)
(65.4163 -19.8747 0)
(67.5278 -28.4786 0)
(65.7686 -32.2089 0)
(63.0192 -33.2662 0)
(59.9657 -32.7286 0)
(57.1936 -31.2632 0)
(55.063 -29.3462 0)
(53.6913 -27.3262 0)
(53.067 -25.2776 0)
(53.1627 -23.0395 0)
(53.8675 -20.4659 0)
(55.2513 -17.7363 0)
(57.0888 -15.1351 0)
(59.1094 -12.893 0)
(61.3782 -10.7751 0)
(64.532 -7.78033 0)
(69.3641 -2.74284 0)
(75.8053 3.97215 0)
(82.1814 8.9779 0)
(84.6889 6.86691 0)
(81.867 -5.24277 0)
(74.6236 -27.5122 0)
(61.0376 -56.7369 0)
(45.3117 -87.0501 0)
(29.4368 -112.223 0)
(14.477 -128.956 0)
(0.939005 -136.471 0)
(-11.023 -135.372 0)
(-21.7758 -129.623 0)
(-31.3022 -120.3 0)
(-39.2696 -108.42 0)
(-45.5245 -94.9437 0)
(-50.0464 -80.7627 0)
(-52.9118 -66.6592 0)
(-54.28 -53.2788 0)
(-54.3577 -41.1385 0)
(-53.3708 -30.6607 0)
(-51.5631 -22.2029 0)
(-49.1945 -15.9673 0)
(-46.5583 -12.017 0)
(-43.9292 -10.2085 0)
(-41.5483 -10.2204 0)
(-39.6343 -11.5713 0)
(-38.3387 -13.5358 0)
(-37.696 -15.0955 0)
(-37.6598 -15.2349 0)
(-38.1634 -13.2837 0)
(-39.0891 -8.786 0)
(-40.3665 -1.17715 0)
(-41.7118 10.037 0)
(-42.6834 24.7166 0)
(-43.0804 42.1517 0)
(-42.8544 61.4045 0)
(-41.957 81.4933 0)
(-40.3756 101.491 0)
(-38.0487 120.471 0)
(-34.9821 137.472 0)
(-31.2154 151.273 0)
(-26.4697 159.78 0)
(-20.379 159.975 0)
(-13.781 154.648 0)
(-6.78674 144.303 0)
(0.478235 129.648 0)
(7.85922 111.568 0)
(15.1627 91.1044 0)
(21.9379 69.2503 0)
(28.3237 46.8454 0)
(37.625 23.5407 0)
(46.1115 -1.55976 0)
(54.7158 -22.1731 0)
(61.9086 -37.2914 0)
(67.102 -45.9631 0)
(69.9849 -47.8169 0)
(70.1665 -43.9525 0)
(69.1144 -37.5342 0)
(66.9006 -30.4153 0)
(63.9286 -24.0215 0)
(13.7828 -27.5751 0)
(23.1153 -30.892 0)
(30.5692 -35.2728 0)
(34.5419 -37.7058 0)
(35.8103 -42.3825 0)
(36.3833 -46.0318 0)
(34.832 -48.5635 0)
(33.2886 -47.9727 0)
(32.9369 -46.2766 0)
(33.4076 -43.9578 0)
(35.6759 -42.0974 0)
(40.3969 -41.4749 0)
(47.1531 -42.0759 0)
(56.5474 -43.5152 0)
(70.8109 -45.5413 0)
(93.1051 -46.3468 0)
(126.701 -40.5323 0)
(168.458 -25.2054 0)
(203.418 -9.31057 0)
(197.423 -8.59233 0)
(146.735 -33.8043 0)
(85.2173 -77.2136 0)
(18.8169 -125.015 0)
(-24.1726 -140.87 0)
(-44.5366 -140.232 0)
(-57.6801 -132.052 0)
(-61.4253 -119.028 0)
(-68.1003 -105.333 0)
(-79.2576 -86.9368 0)
(-97.3813 -60.5451 0)
(-123.788 -22.1685 0)
(-156.506 30.9615 0)
(-194.469 99.0006 0)
(-233.529 179.98 0)
(-268.586 264.439 0)
(-288.106 332.199 0)
(-271.292 354.529 0)
(-225.121 334.688 0)
(-165.235 289.449 0)
(-104.755 232.518 0)
(-51.3457 173.879 0)
(-7.96237 120.616 0)
(27.3849 76.1017 0)
(55.5187 37.1263 0)
(71.0727 7.13427 0)
(78.5991 -10.6353 0)
(78.7987 -20.7912 0)
(75.7341 -26.1991 0)
(71.5777 -28.7089 0)
(67.2334 -29.5444 0)
(63.2217 -29.3201 0)
(59.886 -28.4882 0)
(57.4453 -27.4366 0)
(55.9562 -26.299 0)
(55.318 -24.9755 0)
(55.3076 -23.3589 0)
(56.0246 -21.496 0)
(57.44 -19.3739 0)
(59.3728 -17.107 0)
(61.5064 -14.9799 0)
(63.6193 -13.1569 0)
(65.9832 -11.1537 0)
(69.4244 -7.76881 0)
(74.6125 -2.17512 0)
(80.8497 4.07717 0)
(85.3006 6.04807 0)
(83.7501 -0.837834 0)
(77.7139 -17.3955 0)
(66.1445 -42.5024 0)
(49.61 -70.8201 0)
(32.761 -96.3331 0)
(16.8944 -114.385 0)
(2.75614 -123.54 0)
(-9.37773 -124.074 0)
(-19.9707 -119.486 0)
(-29.4086 -111.54 0)
(-37.4317 -101.214 0)
(-43.8884 -89.3827 0)
(-48.7594 -76.8346 0)
(-52.1003 -64.2605 0)
(-54.0384 -52.2407 0)
(-54.7476 -41.2565 0)
(-54.4325 -31.7261 0)
(-53.3078 -23.9442 0)
(-51.637 -18.1214 0)
(-49.6893 -14.3076 0)
(-47.7272 -12.3818 0)
(-45.9928 -12.0602 0)
(-44.7135 -12.8907 0)
(-44.026 -14.1967 0)
(-44.0001 -15.0778 0)
(-44.6535 -14.6464 0)
(-45.7967 -12.2384 0)
(-47.326 -7.38353 0)
(-49.1222 0.392666 0)
(-50.9016 11.4243 0)
(-52.2929 25.6124 0)
(-53.0093 42.3682 0)
(-52.8383 60.8024 0)
(-51.7393 80.0393 0)
(-49.6241 99.1407 0)
(-46.4615 117.206 0)
(-42.3105 133.335 0)
(-37.2284 146.247 0)
(-30.7988 153.356 0)
(-23.0123 152.813 0)
(-14.758 146.99 0)
(-6.11514 136.34 0)
(2.76514 121.564 0)
(11.6905 103.571 0)
(20.2923 83.3241 0)
(28.2211 61.6176 0)
(37.4724 38.7839 0)
(48.4156 13.2998 0)
(58.147 -10.6787 0)
(67.0686 -29.956 0)
(73.9036 -43.2646 0)
(78.3484 -49.5505 0)
(79.6314 -48.6632 0)
(78.6204 -42.9622 0)
(76.225 -35.2126 0)
(72.7042 -27.1884 0)
(68.5377 -20.3039 0)
(19.4332 -33.0245 0)
(21.2339 -34.0549 0)
(22.2248 -36.6982 0)
(22.1792 -39.2375 0)
(20.8983 -41.7833 0)
(18.6904 -44.8493 0)
(14.8925 -45.7235 0)
(11.3535 -44.9085 0)
(8.81385 -43.7271 0)
(7.09964 -42.418 0)
(6.36714 -41.2408 0)
(6.45404 -40.9298 0)
(6.76025 -41.9036 0)
(6.83955 -44.1573 0)
(6.42831 -47.6904 0)
(5.35374 -52.2651 0)
(4.65868 -56.6595 0)
(8.22604 -58.4263 0)
(20.4165 -55.0923 0)
(45.3584 -41.6934 0)
(78.7434 -28.4526 0)
(102.232 -34.7434 0)
(85.3471 -45.992 0)
(37.5663 -70.9307 0)
(-19.1035 -99.7936 0)
(-70.8873 -110.205 0)
(-106.039 -106.237 0)
(-132.731 -91.6002 0)
(-157.726 -67.9068 0)
(-184.292 -35.0033 0)
(-213.84 8.79369 0)
(-246.056 65.7076 0)
(-278.688 135.953 0)
(-307.496 214.418 0)
(-322.2 285.552 0)
(-301.063 318.346 0)
(-247.43 307.11 0)
(-176.55 269.731 0)
(-106.683 221.842 0)
(-44.3772 172.764 0)
(3.40813 126.742 0)
(41.4533 84.5712 0)
(69.4282 47.1284 0)
(84.4141 18.9057 0)
(90.0254 1.10852 0)
(88.8825 -10.1508 0)
(84.6842 -17.1457 0)
(79.2981 -21.3137 0)
(73.8027 -23.6889 0)
(68.7696 -24.9317 0)
(64.4633 -25.4208 0)
(61.0719 -25.4952 0)
(58.7099 -25.4338 0)
(57.3023 -25.2181 0)
(56.613 -24.6432 0)
(56.7169 -23.7631 0)
(57.5312 -22.5873 0)
(58.9744 -21.0722 0)
(60.9431 -19.1968 0)
(63.1846 -17.1409 0)
(65.3409 -15.2514 0)
(67.301 -13.5741 0)
(69.5865 -11.3498 0)
(73.1468 -7.31678 0)
(78.3581 -1.29931 0)
(83.7116 3.62938 0)
(84.5673 1.82102 0)
(79.7961 -9.18371 0)
(70.3323 -28.8291 0)
(54.959 -54.2817 0)
(36.9315 -79.3516 0)
(19.9647 -98.8684 0)
(4.88761 -110.035 0)
(-7.78741 -112.737 0)
(-18.3903 -109.431 0)
(-27.7169 -102.829 0)
(-35.7305 -93.9355 0)
(-42.2994 -83.6068 0)
(-47.4156 -72.5531 0)
(-51.1293 -61.3889 0)
(-53.5418 -50.6404 0)
(-54.8019 -40.7651 0)
(-55.0844 -32.1269 0)
(-54.5993 -25.0091 0)
(-53.5831 -19.5965 0)
(-52.287 -15.9327 0)
(-50.9627 -13.9105 0)
(-49.8588 -13.2682 0)
(-49.1984 -13.5827 0)
(-49.0685 -14.2243 0)
(-49.6524 -14.4304 0)
(-50.8886 -13.4253 0)
(-52.6172 -10.5922 0)
(-54.7013 -5.44548 0)
(-56.9588 2.41613 0)
(-59.1078 13.2108 0)
(-60.7915 26.8097 0)
(-61.6644 42.6918 0)
(-61.5112 60.1151 0)
(-60.1873 78.2326 0)
(-57.5933 96.1619 0)
(-53.7268 113.076 0)
(-48.7082 128.103 0)
(-42.5963 139.865 0)
(-34.82 145.414 0)
(-25.6885 144.106 0)
(-15.9881 137.755 0)
(-5.80551 126.809 0)
(4.64483 111.966 0)
(15.0484 94.0964 0)
(24.9163 74.0102 0)
(34.9649 52.2034 0)
(47.5117 27.837 0)
(59.0093 2.0343 0)
(69.9455 -20.3197 0)
(78.8928 -37.7384 0)
(85.1935 -48.5667 0)
(88.3605 -51.8261 0)
(87.7615 -48.0572 0)
(85.4864 -40.5906 0)
(81.6951 -31.5561 0)
(76.8989 -22.7147 0)
(71.6107 -15.481 0)
(21.1025 -32.5113 0)
(19.5433 -33.7302 0)
(17.9757 -35.4398 0)
(15.7979 -37.1933 0)
(13.0286 -39.0098 0)
(9.77358 -40.7735 0)
(5.44952 -41.4448 0)
(1.47794 -41.4932 0)
(-1.94586 -41.2071 0)
(-4.81519 -40.7982 0)
(-7.13712 -40.5786 0)
(-9.00804 -40.9557 0)
(-10.7324 -42.1033 0)
(-12.6669 -43.9488 0)
(-15.1121 -46.3187 0)
(-18.3307 -48.7952 0)
(-22.4069 -50.5974 0)
(-26.8995 -51.1956 0)
(-31.0554 -51.7299 0)
(-33.0397 -55.1063 0)
(-30.4455 -60.9919 0)
(-26.8819 -59.8579 0)
(-21.3604 -50.4761 0)
(-19.7247 -44.9202 0)
(-39.2066 -44.6218 0)
(-75.1671 -51.19 0)
(-122.112 -56.8969 0)
(-169.904 -50.5965 0)
(-214.002 -32.5935 0)
(-253.627 -2.28151 0)
(-288.78 40.5483 0)
(-318.36 95.1902 0)
(-336.902 157.534 0)
(-336.031 218.411 0)
(-301.147 253.964 0)
(-240.354 252.108 0)
(-162.528 225.35 0)
(-87.117 194.187 0)
(-24.9574 160.187 0)
(11.9386 124.913 0)
(58.4915 88.946 0)
(81.4072 56.4676 0)
(93.9786 31.9722 0)
(97.6855 14.9934 0)
(95.6333 3.11597 0)
(90.767 -5.31401 0)
(84.8153 -11.2281 0)
(78.7575 -15.3452 0)
(73.1568 -18.2205 0)
(68.2745 -20.2375 0)
(64.2275 -21.6369 0)
(61.1561 -22.7105 0)
(59.0838 -23.64 0)
(57.7572 -24.2282 0)
(57.2482 -24.4253 0)
(57.5159 -24.2735 0)
(58.4275 -23.756 0)
(59.8956 -22.7961 0)
(61.8397 -21.3134 0)
(64.0966 -19.3737 0)
(66.346 -17.2769 0)
(68.2261 -15.3974 0)
(69.8092 -13.6066 0)
(71.8692 -10.8925 0)
(75.3742 -6.13263 0)
(80.2435 -0.125724 0)
(83.4897 2.47455 0)
(80.6688 -3.12373 0)
(72.8994 -17.0574 0)
(60.404 -38.0997 0)
(42.3478 -61.5832 0)
(24.0521 -82.0939 0)
(7.7608 -95.5956 0)
(-5.9647 -100.997 0)
(-16.9829 -99.3399 0)
(-26.2482 -94.1539 0)
(-34.2242 -86.6346 0)
(-40.8544 -77.6832 0)
(-46.1351 -67.9941 0)
(-50.1305 -58.1313 0)
(-52.9296 -48.5773 0)
(-54.6545 -39.7341 0)
(-55.4656 -31.9388 0)
(-55.5527 -25.4559 0)
(-55.1322 -20.443 0)
(-54.4385 -16.933 0)
(-53.716 -14.8227 0)
(-53.2092 -13.8695 0)
(-53.1005 -13.6841 0)
(-53.5141 -13.6977 0)
(-54.6245 -13.2464 0)
(-56.3478 -11.672 0)
(-58.5593 -8.41792 0)
(-61.0912 -3.02968 0)
(-63.7175 4.82305 0)
(-66.1368 15.2765 0)
(-67.9893 28.1799 0)
(-68.9267 43.0759 0)
(-68.7002 59.3073 0)
(-67.1198 76.0915 0)
(-64.098 92.6388 0)
(-59.707 108.242 0)
(-54.1427 122.081 0)
(-47.345 132.528 0)
(-38.5618 136.263 0)
(-28.4548 134.14 0)
(-17.3888 127.096 0)
(-5.58574 115.77 0)
(6.45974 100.853 0)
(18.1894 83.0073 0)
(29.6583 62.859 0)
(43.3324 40.366 0)
(57.097 14.5433 0)
(70.1364 -9.77212 0)
(81.5618 -30.3075 0)
(90.1403 -45.1656 0)
(95.3251 -52.6983 0)
(96.1522 -52.203 0)
(94.0476 -45.968 0)
(90.2374 -36.787 0)
(85.0991 -26.5925 0)
(79.1749 -17.0962 0)
(72.9482 -9.70032 0)
(21.1806 -29.849 0)
(18.3746 -31.2274 0)
(15.6131 -32.6805 0)
(12.5846 -34.127 0)
(9.31127 -35.5805 0)
(5.63963 -36.8671 0)
(1.56523 -37.5553 0)
(-2.28548 -37.7938 0)
(-5.8665 -37.7707 0)
(-9.14519 -37.6862 0)
(-12.1285 -37.7227 0)
(-14.9344 -38.0983 0)
(-17.8257 -38.978 0)
(-21.1007 -40.3936 0)
(-25.0079 -42.2617 0)
(-29.7326 -44.3733 0)
(-35.2963 -46.3815 0)
(-41.4254 -47.9154 0)
(-47.5655 -48.8519 0)
(-53.1795 -49.1724 0)
(-59.9239 -49.8542 0)
(-69.1011 -50.6525 0)
(-78.6304 -48.505 0)
(-86.3941 -42.6658 0)
(-95.057 -35.6726 0)
(-108.92 -28.4795 0)
(-130.005 -19.233 0)
(-158.657 -6.93061 0)
(-190.497 9.44104 0)
(-220.721 33.4201 0)
(-244.714 66.4268 0)
(-257.079 107.663 0)
(-255.392 149.018 0)
(-232.559 174.919 0)
(-172.514 190.671 0)
(-102.2 182.556 0)
(-45.0315 161.909 0)
(-13.5105 139.578 0)
(32.8326 118.459 0)
(65.7601 88.9738 0)
(84.8266 63.3762 0)
(94.8782 44.2859 0)
(97.8132 29.5543 0)
(96.1628 17.5679 0)
(92.0181 8.00495 0)
(86.7582 0.552156 0)
(81.1909 -5.22458 0)
(75.8101 -9.70855 0)
(70.9306 -13.2362 0)
(66.6967 -16.0514 0)
(63.203 -18.3238 0)
(60.6079 -20.3111 0)
(58.7898 -22.0739 0)
(57.63 -23.4312 0)
(57.3 -24.39 0)
(57.7012 -24.9261 0)
(58.7144 -24.979 0)
(60.2202 -24.4884 0)
(62.1055 -23.3891 0)
(64.271 -21.6344 0)
(66.5155 -19.3726 0)
(68.4528 -17.0307 0)
(69.7881 -14.9879 0)
(70.8561 -12.8769 0)
(72.5967 -9.49389 0)
(75.9041 -4.10469 0)
(79.9155 1.07845 0)
(79.8417 0.672618 0)
(74.1888 -7.96657 0)
(63.7484 -23.3956 0)
(48.8241 -44.027 0)
(29.5424 -64.1289 0)
(11.7747 -79.6756 0)
(-3.30556 -87.9767 0)
(-15.4604 -89.1902 0)
(-24.9886 -85.4259 0)
(-32.9561 -79.3182 0)
(-39.6213 -71.6954 0)
(-45.0155 -63.2752 0)
(-49.2128 -54.606 0)
(-52.3117 -46.1354 0)
(-54.424 -38.2428 0)
(-55.6879 -31.2387 0)
(-56.2751 -25.3527 0)
(-56.3865 -20.7171 0)
(-56.2426 -17.3523 0)
(-56.076 -15.1591 0)
(-56.1107 -13.917 0)
(-56.4787 -13.2581 0)
(-57.3924 -12.6784 0)
(-58.931 -11.6 0)
(-61.0428 -9.47863 0)
(-63.6164 -5.83143 0)
(-66.4634 -0.264486 0)
(-69.3259 7.48586 0)
(-71.8843 17.498 0)
(-73.7833 29.6069 0)
(-74.6851 43.4031 0)
(-74.3187 58.2996 0)
(-72.4857 73.6144 0)
(-69.1554 88.7219 0)
(-64.5129 103.049 0)
(-58.7748 115.671 0)
(-51.5322 124.414 0)
(-42.0465 126.374 0)
(-31.0995 122.994 0)
(-18.5155 114.845 0)
(-4.8639 103.154 0)
(8.66297 88.2144 0)
(21.5727 69.9998 0)
(36.0577 49.5881 0)
(52.2979 25.4409 0)
(67.5692 0.224845 0)
(81.7999 -22.3063 0)
(93.0452 -40.1901 0)
(100.427 -51.4457 0)
(103.16 -54.7015 0)
(101.315 -50.567 0)
(97.5104 -42.201 0)
(92.1693 -31.5898 0)
(85.8799 -20.5049 0)
(79.1148 -10.569 0)
(72.2963 -3.17133 0)
(20.2244 -26.7329 0)
(17.0713 -28.1871 0)
(14.0053 -29.5652 0)
(10.8543 -30.8743 0)
(7.58149 -32.0767 0)
(4.09306 -33.0685 0)
(0.394691 -33.7011 0)
(-3.22752 -34.0713 0)
(-6.70034 -34.2966 0)
(-10.0573 -34.4422 0)
(-13.3046 -34.6422 0)
(-16.5438 -35.0383 0)
(-19.9487 -35.7195 0)
(-23.7133 -36.6784 0)
(-28.0126 -37.8258 0)
(-32.983 -39.0044 0)
(-38.6829 -39.9983 0)
(-45.0736 -40.6177 0)
(-52.0546 -40.8555 0)
(-59.5511 -41.0113 0)
(-68.0335 -41.4063 0)
(-77.9402 -40.6041 0)
(-88.7296 -37.6217 0)
(-99.3822 -32.5869 0)
(-109.578 -25.3996 0)
(-120.161 -15.8563 0)
(-131.825 -3.67148 0)
(-144.104 11.4315 0)
(-155.908 29.5475 0)
(-165.696 51.5505 0)
(-170.913 77.9999 0)
(-167.412 107.297 0)
(-147.199 130.864 0)
(-114.289 139.429 0)
(-77.47 134.254 0)
(-29.0187 132.092 0)
(2.91007 123.829 0)
(35.5105 110.761 0)
(63.1898 89.8242 0)
(77.4197 71.5702 0)
(86.3889 56.2926 0)
(90.1305 42.952 0)
(90.3069 31.1322 0)
(88.3757 20.9437 0)
(85.0867 12.4391 0)
(81.0418 5.44304 0)
(76.7048 -0.323177 0)
(72.4167 -5.10398 0)
(68.4341 -9.11583 0)
(64.895 -12.5512 0)
(61.9306 -15.5344 0)
(59.736 -18.2636 0)
(58.0861 -20.733 0)
(57.072 -22.8268 0)
(56.8473 -24.5125 0)
(57.3028 -25.6927 0)
(58.3546 -26.2734 0)
(59.8931 -26.1797 0)
(61.7589 -25.3565 0)
(63.8108 -23.7697 0)
(65.9205 -21.445 0)
(67.82 -18.6635 0)
(69.1352 -16.0085 0)
(69.7507 -13.7307 0)
(70.2538 -11.1239 0)
(71.6618 -7.00599 0)
(74.6726 -1.46054 0)
(76.7542 2.00273 0)
(73.6729 -1.37597 0)
(65.5912 -11.856 0)
(53.1883 -27.3321 0)
(36.7433 -46.169 0)
(17.3758 -62.3297 0)
(0.625065 -73.3508 0)
(-13.0818 -77.8218 0)
(-23.7462 -76.621 0)
(-31.9244 -71.9185 0)
(-38.6013 -65.6302 0)
(-44.0697 -58.4083 0)
(-48.4288 -50.8318 0)
(-51.7692 -43.3652 0)
(-54.1969 -36.3617 0)
(-55.8419 -30.0961 0)
(-56.8641 -24.767 0)
(-57.4489 -20.4826 0)
(-57.8017 -17.2528 0)
(-58.1355 -14.9867 0)
(-58.6335 -13.4804 0)
(-59.4399 -12.3835 0)
(-60.7627 -11.2477 0)
(-62.6336 -9.59266 0)
(-65.0258 -6.96898 0)
(-67.8296 -2.97546 0)
(-70.8444 2.70362 0)
(-73.7939 10.2659 0)
(-76.354 19.7519 0)
(-78.1871 30.9966 0)
(-78.9676 43.6205 0)
(-78.4221 57.1033 0)
(-76.3979 70.9111 0)
(-72.9878 84.6258 0)
(-68.4885 97.763 0)
(-62.9068 109.142 0)
(-55.1032 115.773 0)
(-44.8128 116.076 0)
(-32.8 110.74 0)
(-18.5217 100.575 0)
(-3.16577 88.4627 0)
(11.5972 73.8773 0)
(26.4729 55.7606 0)
(44.6636 33.5866 0)
(62.6988 8.27821 0)
(80.0327 -15.2268 0)
(94.2516 -35.0086 0)
(103.979 -48.9084 0)
(108.572 -55.316 0)
(107.002 -53.5695 0)
(102.915 -46.7557 0)
(97.1194 -36.7506 0)
(90.406 -25.1529 0)
(83.361 -13.5305 0)
(76.3449 -3.51823 0)
(69.5795 3.57294 0)
(18.6728 -23.4719 0)
(15.708 -25.0741 0)
(12.7966 -26.4771 0)
(9.83848 -27.7088 0)
(6.7754 -28.7708 0)
(3.57325 -29.6391 0)
(0.255561 -30.2694 0)
(-3.08693 -30.7064 0)
(-6.38972 -31.0113 0)
(-9.68131 -31.2128 0)
(-12.9775 -31.3836 0)
(-16.3567 -31.6137 0)
(-19.9484 -31.9707 0)
(-23.8969 -32.4661 0)
(-28.3306 -33.0477 0)
(-33.3498 -33.6164 0)
(-39.0099 -34.0426 0)
(-45.2983 -34.1979 0)
(-52.1492 -33.9822 0)
(-59.5425 -33.3297 0)
(-67.6972 -32.1847 0)
(-76.8678 -30.1173 0)
(-86.7813 -26.621 0)
(-96.8464 -21.4473 0)
(-106.579 -14.5366 0)
(-115.701 -5.71697 0)
(-123.78 5.36549 0)
(-130.03 18.7904 0)
(-133.657 34.4406 0)
(-133.927 52.4773 0)
(-128.422 71.5729 0)
(-114.143 88.6435 0)
(-91.6786 101.012 0)
(-64.0368 105.837 0)
(-36.5666 103.526 0)
(-10.3295 100.425 0)
(16.3306 96.4754 0)
(39.3244 86.4327 0)
(56.2768 74.2085 0)
(67.8541 62.5223 0)
(75.342 51.2446 0)
(79.8019 40.7699 0)
(81.209 31.1801 0)
(80.704 22.6692 0)
(78.8544 15.253 0)
(76.1267 8.8657 0)
(72.9292 3.35362 0)
(69.5871 -1.4512 0)
(66.3526 -5.72672 0)
(63.3311 -9.59992 0)
(60.6729 -13.1076 0)
(58.6679 -16.3816 0)
(57.0658 -19.4373 0)
(56.0517 -22.2018 0)
(55.8261 -24.6326 0)
(56.2687 -26.4978 0)
(57.3077 -27.628 0)
(58.8484 -27.9071 0)
(60.7201 -27.2877 0)
(62.7235 -25.7678 0)
(64.6806 -23.3516 0)
(66.4044 -20.2095 0)
(67.6994 -16.9093 0)
(68.0544 -14.0061 0)
(67.8179 -11.4691 0)
(67.9314 -8.32276 0)
(69.0635 -3.61058 0)
(71.3469 1.38862 0)
(70.9526 2.4834 0)
(65.61 -3.10961 0)
(55.6001 -14.0511 0)
(42.3059 -28.4406 0)
(25.2881 -44.6746 0)
(6.78282 -57.0492 0)
(-9.13594 -64.4975 0)
(-21.6546 -66.6121 0)
(-31.0223 -64.4839 0)
(-37.8168 -59.5007 0)
(-43.3066 -53.4502 0)
(-47.7905 -46.9176 0)
(-51.3491 -40.3772 0)
(-54.0542 -34.1788 0)
(-56.0293 -28.5783 0)
(-57.4289 -23.7491 0)
(-58.4309 -19.7799 0)
(-59.2267 -16.6745 0)
(-60.0043 -14.3507 0)
(-60.8975 -12.6046 0)
(-62.103 -11.114 0)
(-63.7318 -9.48498 0)
(-65.8289 -7.32513 0)
(-68.3803 -4.26543 0)
(-71.2821 0.0061219 0)
(-74.3277 5.71843 0)
(-77.2233 13.0115 0)
(-79.6396 21.9073 0)
(-81.2681 32.2424 0)
(-81.8456 43.655 0)
(-81.1853 55.7303 0)
(-79.2709 68.1668 0)
(-76.3398 80.7683 0)
(-72.5207 92.9107 0)
(-66.8274 102.467 0)
(-57.4016 105.846 0)
(-45.5296 103.883 0)
(-31.4397 96.5625 0)
(-13.6148 85.7461 0)
(-4.96769 72.6659 0)
(16.5623 58.4827 0)
(35.6198 38.0201 0)
(56.6549 13.0515 0)
(77.5795 -10.5679 0)
(94.7799 -31.0125 0)
(106.71 -46.2249 0)
(112.536 -54.3863 0)
(111.147 -54.5338 0)
(106.216 -49.3109 0)
(99.3787 -40.5952 0)
(91.711 -29.6888 0)
(84.1135 -17.8439 0)
(77.0788 -6.4343 0)
(70.6462 3.20605 0)
(64.736 9.82946 0)
(16.9007 -20.724 0)
(14.2878 -22.3318 0)
(11.6393 -23.6874 0)
(8.91537 -24.8303 0)
(6.09662 -25.7795 0)
(3.16256 -26.534 0)
(0.132987 -27.09 0)
(-2.96786 -27.4688 0)
(-6.10996 -27.7199 0)
(-9.30805 -27.8785 0)
(-12.5815 -27.9738 0)
(-15.9878 -28.0448 0)
(-19.622 -28.1322 0)
(-23.5863 -28.2471 0)
(-27.9759 -28.3413 0)
(-32.8708 -28.3364 0)
(-38.3125 -28.1637 0)
(-44.2901 -27.7235 0)
(-50.7756 -26.895 0)
(-57.7845 -25.62 0)
(-65.3787 -23.8007 0)
(-73.5773 -21.1661 0)
(-82.2159 -17.4171 0)
(-90.9191 -12.3746 0)
(-99.301 -5.99998 0)
(-106.921 1.76428 0)
(-113.162 10.9613 0)
(-117.203 21.4881 0)
(-118.362 33.2041 0)
(-115.763 45.8296 0)
(-107.126 58.0169 0)
(-93.3831 68.9375 0)
(-74.9186 77.8669 0)
(-53.357 82.4778 0)
(-31.4251 80.8113 0)
(-10.5403 77.3649 0)
(11.3866 74.7545 0)
(31.4608 68.8686 0)
(46.9005 61.2531 0)
(58.3453 52.9599 0)
(66.4881 44.7414 0)
(71.6591 37.0415 0)
(74.5069 30.0129 0)
(74.9633 23.2612 0)
(74.2191 17.02 0)
(72.542 11.346 0)
(70.238 6.19105 0)
(67.6174 1.48775 0)
(64.9018 -2.84483 0)
(62.1579 -6.95054 0)
(59.5477 -10.8551 0)
(57.5075 -14.5829 0)
(55.8166 -18.2013 0)
(54.5112 -21.6074 0)
(53.957 -24.6329 0)
(54.216 -27.1203 0)
(55.2454 -28.8694 0)
(56.8651 -29.634 0)
(58.8331 -29.2439 0)
(60.9048 -27.7119 0)
(62.8017 -25.106 0)
(64.3615 -21.5983 0)
(65.5804 -17.6512 0)
(65.7187 -13.8798 0)
(64.8845 -10.9178 0)
(63.8953 -8.25386 0)
(63.7338 -4.59629 0)
(64.5849 0.286632 0)
(65.5281 3.96156 0)
(62.8883 2.69415 0)
(56.3477 -4.2936 0)
(45.6655 -14.7303 0)
(32.1888 -26.696 0)
(15.6664 -39.9065 0)
(-1.99754 -48.9075 0)
(-17.1833 -54.3956 0)
(-28.799 -55.9171 0)
(-36.9714 -53.3301 0)
(-42.8662 -48.3794 0)
(-47.4801 -42.7554 0)
(-51.1893 -37.1039 0)
(-54.0939 -31.6904 0)
(-56.3279 -26.736 0)
(-58.0458 -22.3828 0)
(-59.4215 -18.7032 0)
(-60.6302 -15.7085 0)
(-61.8052 -13.3291 0)
(-63.1094 -11.3836 0)
(-64.639 -9.5652 0)
(-66.4804 -7.52976 0)
(-68.6914 -4.93799 0)
(-71.2752 -1.49297 0)
(-74.143 3.01038 0)
(-77.0739 8.68421 0)
(-79.7369 15.5969 0)
(-81.8131 23.7898 0)
(-83.1171 33.188 0)
(-83.5817 43.5401 0)
(-83.1809 54.5402 0)
(-82.018 66.061 0)
(-80.2614 77.831 0)
(-77.1297 88.4048 0)
(-69.7822 93.9654 0)
(-58.2804 94.3952 0)
(-44.4579 89.7057 0)
(-27.0801 81.9282 0)
(-10.3081 70.6899 0)
(0.198156 55.9764 0)
(30.972 38.2913 0)
(53.0472 13.777 0)
(76.397 -9.10989 0)
(96.1822 -29.1548 0)
(109.413 -44.2937 0)
(115.505 -52.6708 0)
(113.247 -53.3555 0)
(107.061 -49.2 0)
(98.6057 -41.7931 0)
(89.3182 -32.2477 0)
(80.4095 -21.5129 0)
(72.7538 -10.5114 0)
(66.598 -0.0612824 0)
(61.7007 8.78573 0)
(57.6345 14.8147 0)
(15.1506 -18.3171 0)
(12.8634 -19.8416 0)
(10.4747 -21.1101 0)
(7.97133 -22.1555 0)
(5.34776 -22.9993 0)
(2.60402 -23.6568 0)
(-0.256407 -24.1321 0)
(-3.21347 -24.4489 0)
(-6.26434 -24.6423 0)
(-9.41093 -24.7254 0)
(-12.6488 -24.7038 0)
(-16.021 -24.5842 0)
(-19.607 -24.3883 0)
(-23.4784 -24.1354 0)
(-27.707 -23.7858 0)
(-32.3845 -23.2919 0)
(-37.5796 -22.5841 0)
(-43.211 -21.6775 0)
(-49.2528 -20.4183 0)
(-55.7334 -18.6752 0)
(-62.6626 -16.3603 0)
(-69.9894 -13.316 0)
(-77.5612 -9.37372 0)
(-85.1469 -4.46877 0)
(-92.4204 1.38806 0)
(-99.0044 8.14465 0)
(-104.382 15.722 0)
(-107.831 23.8938 0)
(-108.659 32.3286 0)
(-106.252 40.7371 0)
(-98.9259 48.4452 0)
(-87.6652 55.0102 0)
(-72.0863 60.0237 0)
(-52.6595 62.7089 0)
(-31.5092 60.8474 0)
(-12.3853 56.4013 0)
(7.24414 55.1177 0)
(26.881 51.7658 0)
(41.7598 47.596 0)
(53.0431 42.8354 0)
(61.5364 37.8956 0)
(67.1614 32.8854 0)
(70.523 27.9283 0)
(71.9466 22.8632 0)
(71.8926 17.7588 0)
(70.9155 12.9057 0)
(69.1069 8.28532 0)
(66.814 3.91294 0)
(64.2911 -0.198781 0)
(61.4766 -4.29337 0)
(58.4888 -8.477 0)
(55.9837 -12.5498 0)
(53.9754 -16.5797 0)
(52.1461 -20.5339 0)
(51.0959 -24.4072 0)
(50.9384 -27.8021 0)
(51.7038 -30.2398 0)
(53.3506 -31.4449 0)
(55.5944 -31.2887 0)
(57.9937 -29.6909 0)
(60.0935 -26.7707 0)
(61.767 -22.8838 0)
(62.7209 -18.2504 0)
(62.7808 -13.4971 0)
(61.574 -9.62473 0)
(59.4068 -6.96704 0)
(57.6812 -4.2892 0)
(57.2334 -0.244343 0)
(57.739 4.25913 0)
(56.9805 5.9119 0)
(53.0865 2.60363 0)
(45.762 -4.73474 0)
(35.459 -13.7408 0)
(23.4349 -22.6726 0)
(7.37817 -32.9173 0)
(-5.26888 -39.3564 0)
(-22.3013 -44.2315 0)
(-33.3523 -45.7216 0)
(-41.2352 -43.0279 0)
(-47.1329 -38.5878 0)
(-51.4272 -33.7837 0)
(-54.6049 -29.0432 0)
(-57.0387 -24.6172 0)
(-58.9742 -20.6542 0)
(-60.6306 -17.2035 0)
(-62.1992 -14.2804 0)
(-63.7927 -11.8536 0)
(-65.4468 -9.76525 0)
(-67.192 -7.72913 0)
(-69.0908 -5.42049 0)
(-71.2149 -2.52853 0)
(-73.6198 1.18214 0)
(-76.2784 5.79663 0)
(-78.9726 11.298 0)
(-81.317 17.7372 0)
(-83.0226 25.3205 0)
(-84.1602 34.1231 0)
(-85.0745 43.858 0)
(-85.9527 54.128 0)
(-86.559 65.0412 0)
(-85.7373 75.9062 0)
(-80.093 82.5704 0)
(-69.2754 83.6082 0)
(-55.2 80.185 0)
(-38.4698 73.3632 0)
(-19.1259 64.2886 0)
(-1.65794 52.3571 0)
(26.5637 34.6786 0)
(53.3584 10.0676 0)
(78.0636 -11.3212 0)
(98.5991 -29.5387 0)
(111.789 -43.2184 0)
(116.272 -50.1982 0)
(112.147 -50.2647 0)
(104.15 -46.3674 0)
(93.7759 -39.8336 0)
(82.6447 -31.5721 0)
(72.1258 -22.4339 0)
(63.2259 -13.1333 0)
(56.5027 -4.04277 0)
(52.0461 4.58555 0)
(49.4502 12.1206 0)
(48.0589 17.4065 0)
(13.6002 -16.275 0)
(11.6002 -17.6618 0)
(9.45776 -18.7973 0)
(7.171 -19.703 0)
(4.74906 -20.4094 0)
(2.20504 -20.9426 0)
(-0.465112 -21.3031 0)
(-3.27039 -21.4977 0)
(-6.20329 -21.5671 0)
(-9.25084 -21.5398 0)
(-12.4209 -21.3923 0)
(-15.7494 -21.0918 0)
(-19.2767 -20.662 0)
(-23.037 -20.135 0)
(-27.0758 -19.4168 0)
(-31.4746 -18.4324 0)
(-36.358 -17.3502 0)
(-41.7269 -16.0718 0)
(-47.3793 -14.3896 0)
(-53.3446 -12.2453 0)
(-59.6754 -9.55086 0)
(-66.3087 -6.24071 0)
(-73.1174 -2.22293 0)
(-79.9205 2.51979 0)
(-86.481 7.89799 0)
(-92.4872 13.7616 0)
(-97.5241 19.9027 0)
(-100.907 25.948 0)
(-101.873 31.439 0)
(-100.532 36.2383 0)
(-94.7489 39.9184 0)
(-85.2486 42.1644 0)
(-71.2799 42.8967 0)
(-52.6777 42.5389 0)
(-30.183 40.3291 0)
(-9.19625 36.5105 0)
(5.96133 36.5979 0)
(25.7895 36.2757 0)
(40.7861 34.9637 0)
(52.1146 33.0644 0)
(60.8525 30.8148 0)
(66.7136 28.2023 0)
(70.2209 25.2098 0)
(71.9358 21.7799 0)
(71.9949 17.9536 0)
(71.2053 14.1366 0)
(69.4413 10.2456 0)
(66.9751 6.28175 0)
(64.3861 2.58984 0)
(61.3104 -1.11484 0)
(57.3465 -5.41087 0)
(53.6982 -9.86041 0)
(50.9835 -14.3784 0)
(48.1014 -18.8756 0)
(46.0552 -23.5212 0)
(45.3494 -27.9233 0)
(45.9825 -31.4701 0)
(47.7903 -33.5986 0)
(50.4787 -33.9094 0)
(53.4447 -32.1823 0)
(56.1277 -28.7557 0)
(58.1375 -24.1147 0)
(58.9116 -18.5654 0)
(58.8369 -12.7879 0)
(57.5028 -7.70422 0)
(54.6694 -4.28822 0)
(51.2779 -2.21859 0)
(48.9716 0.271585 0)
(48.2219 4.09296 0)
(48.3678 7.35009 0)
(46.5164 6.95102 0)
(41.9615 2.51552 0)
(34.5949 -4.56968 0)
(25.4173 -12.1486 0)
(14.9161 -18.4739 0)
(2.61506 -25.0946 0)
(-7.27207 -29.1149 0)
(-24.7334 -33.0678 0)
(-34.3042 -34.3709 0)
(-42.6722 -32.6754 0)
(-49.1896 -29.6614 0)
(-53.8577 -26.1322 0)
(-57.2682 -22.4429 0)
(-59.8599 -18.8312 0)
(-62.0226 -15.4858 0)
(-64.0708 -12.5521 0)
(-66.1242 -10.1216 0)
(-68.1174 -8.04904 0)
(-69.979 -5.971 0)
(-71.7756 -3.53144 0)
(-73.6719 -0.401906 0)
(-75.7599 3.65434 0)
(-78.2316 8.53011 0)
(-80.9176 13.8777 0)
(-83.3396 19.6172 0)
(-85.3296 26.3785 0)
(-87.5277 34.8686 0)
(-90.6511 45.238 0)
(-93.6058 56.3584 0)
(-93.1523 66.2602 0)
(-85.8873 71.7138 0)
(-74.8951 72.0026 0)
(-60.0507 68.0604 0)
(-39.9103 63.0432 0)
(-21.8626 53.7509 0)
(3.53884 44.0891 0)
(32.3159 25.7617 0)
(60.6735 4.03726 0)
(85.6652 -15.7185 0)
(103.909 -31.5978 0)
(113.739 -42.3061 0)
(113.415 -46.3442 0)
(106.437 -45.1353 0)
(95.7774 -40.7831 0)
(83.2914 -34.7595 0)
(70.6192 -27.7328 0)
(58.9536 -20.2618 0)
(49.1148 -12.9088 0)
(41.7373 -5.91737 0)
(37.1218 0.780484 0)
(34.9144 7.22592 0)
(34.5187 12.7488 0)
(36.326 16.659 0)
(12.2067 -14.4891 0)
(10.4756 -15.7106 0)
(8.5728 -16.6892 0)
(6.50553 -17.446 0)
(4.2963 -18.02 0)
(1.95182 -18.4264 0)
(-0.550446 -18.6445 0)
(-3.21505 -18.6944 0)
(-6.01317 -18.6422 0)
(-8.92593 -18.4989 0)
(-11.9681 -18.2078 0)
(-15.1769 -17.7278 0)
(-18.5858 -17.0883 0)
(-22.213 -16.3452 0)
(-26.0736 -15.377 0)
(-30.1806 -13.9478 0)