/*--------------------------------*- C++ -*----------------------------------*\
| =========                 |                                                 |
| \\      /  F ield         | OpenFOAM: The Open Source CFD Toolbox           |
|  \\    /   O peration     | Version:  2206                                  |
|   \\  /    A nd           | Website:  www.openfoam.com                      |
|    \\/     M anipulation  |                                                 |
\*---------------------------------------------------------------------------*/
FoamFile
{
    version     2.0;
    format      ascii;
    arch        "LSB;label=32;scalar=64";
    class       volVectorField;
    location    "19.4001";
    object      U;
}
// * * * * * * * * * * * * * * * * * * * * * * * * * * * * * * * * * * * * * //

dimensions      [0 1 -1 0 0 0 0];

internalField   nonuniform List<vector> 
1849
(
(0.321721 -0.0132066 0)
(0.35813 -0.0127676 0)
(0.392372 -0.0125835 0)
(0.424901 -0.0126772 0)
(0.456291 -0.0130375 0)
(0.487087 -0.0136504 0)
(0.518093 -0.0145081 0)
(0.549907 -0.0155673 0)
(0.582849 -0.0167244 0)
(0.617385 -0.0179188 0)
(0.653891 -0.0191613 0)
(0.692635 -0.0204964 0)
(0.733896 -0.0220029 0)
(0.778106 -0.0238105 0)
(0.825772 -0.0261588 0)
(0.878478 -0.0294641 0)
(0.935507 -0.0345079 0)
(1.00952 -0.0450529 0)
(1.07177 -0.0544088 0)
(1.32877 -0.0632925 0)
(1.36251 -0.0592381 0)
(1.39503 -0.0558158 0)
(1.42658 -0.0532189 0)
(1.45742 -0.051554 0)
(1.48795 -0.0508915 0)
(1.51852 -0.0511995 0)
(1.54933 -0.0523825 0)
(1.58069 -0.0543079 0)
(1.61292 -0.0568463 0)
(1.64633 -0.0599109 0)
(1.68126 -0.0634695 0)
(1.71803 -0.0675742 0)
(1.75703 -0.0723913 0)
(1.79869 -0.0782875 0)
(1.84352 -0.0858495 0)
(1.89178 -0.0964765 0)
(1.94363 -0.111865 0)
(1.99322 -0.135972 0)
(2.24862 -0.084387 0)
(2.26139 -0.0808057 0)
(2.27458 -0.0778068 0)
(2.28817 -0.0755864 0)
(2.3021 -0.0743267 0)
(2.31642 -0.074082 0)
(2.33112 -0.0747976 0)
(2.34621 -0.0764276 0)
(2.36177 -0.0788723 0)
(2.37792 -0.0820664 0)
(2.39481 -0.0859935 0)
(2.4126 -0.0906603 0)
(2.43148 -0.0961617 0)
(2.45163 -0.102708 0)
(2.47319 -0.110656 0)
(2.49617 -0.120573 0)
(2.52018 -0.133303 0)
(2.54428 -0.149864 0)
(2.56573 -0.17049 0)
(2.67897 -0.0893081 0)
(2.68033 -0.0861845 0)
(2.68252 -0.0836268 0)
(2.68541 -0.0818196 0)
(2.68889 -0.0808262 0)
(2.69286 -0.0811016 0)
(2.69718 -0.0820583 0)
(2.7018 -0.0840313 0)
(2.70671 -0.0869492 0)
(2.71196 -0.0907254 0)
(2.71758 -0.0953405 0)
(2.72367 -0.100826 0)
(2.73028 -0.107276 0)
(2.73748 -0.114862 0)
(2.74521 -0.123835 0)
(2.7533 -0.134517 0)
(2.7612 -0.147258 0)
(2.76804 -0.162225 0)
(2.7726 -0.178978 0)
(2.81051 -0.0850927 0)
(2.8076 -0.0833333 0)
(2.80548 -0.0819053 0)
(2.80414 -0.0811285 0)
(2.80346 -0.0810769 0)
(2.80318 -0.0817783 0)
(2.80323 -0.083318 0)
(2.80357 -0.0857181 0)
(2.80415 -0.088942 0)
(2.80493 -0.0930009 0)
(2.80591 -0.0979076 0)
(2.80709 -0.103709 0)
(2.8085 -0.110493 0)
(2.81013 -0.118382 0)
(2.81191 -0.127517 0)
(2.81364 -0.138024 0)
(2.81494 -0.149968 0)
(2.81541 -0.163259 0)
(2.81442 -0.177408 0)
(2.84164 -0.0823304 0)
(2.83712 -0.0811623 0)
(2.83339 -0.0803184 0)
(2.83035 -0.0800316 0)
(2.82787 -0.0803733 0)
(2.82587 -0.0812799 0)
(2.82417 -0.082988 0)
(2.82263 -0.0854855 0)
(2.82127 -0.088819 0)
(2.82 -0.0929963 0)
(2.81879 -0.0980477 0)
(2.81779 -0.104028 0)
(2.81697 -0.111 0)
(2.81626 -0.119033 0)
(2.81561 -0.128181 0)
(2.81485 -0.138456 0)
(2.81374 -0.149812 0)
(2.81195 -0.162057 0)
(2.80905 -0.174817 0)
(2.83376 -0.0753136 0)
(2.82852 -0.0749824 0)
(2.82382 -0.0749383 0)
(2.81959 -0.0752963 0)
(2.81569 -0.0761465 0)
(2.81203 -0.0775691 0)
(2.80852 -0.0796232 0)
(2.80507 -0.0823682 0)
(2.80163 -0.0858648 0)
(2.79813 -0.090173 0)
(2.79449 -0.095356 0)
(2.79068 -0.101471 0)
(2.78663 -0.108559 0)
(2.78229 -0.116647 0)
(2.77758 -0.125725 0)
(2.77236 -0.13573 0)
(2.76644 -0.14653 0)
(2.75956 -0.157893 0)
(2.75135 -0.16946 0)
(2.79875 -0.0709264 0)
(2.78959 -0.0709371 0)
(2.78068 -0.0710401 0)
(2.77201 -0.0713415 0)
(2.7635 -0.0719307 0)
(2.75502 -0.0728929 0)
(2.74645 -0.0743013 0)
(2.73767 -0.0762415 0)
(2.72858 -0.0787965 0)
(2.71904 -0.082039 0)
(2.70895 -0.0859653 0)
(2.69818 -0.0906013 0)
(2.6866 -0.0961455 0)
(2.67408 -0.102556 0)
(2.66051 -0.109958 0)
(2.64571 -0.118241 0)
(2.62948 -0.127233 0)
(2.61153 -0.136917 0)
(2.59155 -0.146631 0)
(2.5691 -0.156172 0)
(2.57597 -0.0563062 0)
(2.55535 -0.0564553 0)
(2.53463 -0.0566485 0)
(2.51377 -0.0569726 0)
(2.49268 -0.0574578 0)
(2.47121 -0.0581572 0)
(2.44917 -0.0591524 0)
(2.42639 -0.0605273 0)
(2.40266 -0.0623504 0)
(2.37778 -0.0646786 0)
(2.35151 -0.0675646 0)
(2.32362 -0.0710562 0)
(2.29382 -0.0751918 0)
(2.26188 -0.0799991 0)
(2.2273 -0.0854818 0)
(2.18978 -0.0916074 0)
(2.14916 -0.0982521 0)
(2.10491 -0.105146 0)
(2.05687 -0.111715 0)
(2.00232 -0.117191 0)
(1.60717 -0.0294194 0)
(1.56511 -0.0291396 0)
(1.52327 -0.0289194 0)
(1.48103 -0.0288063 0)
(1.43876 -0.0287809 0)
(1.3963 -0.0288555 0)
(1.35337 -0.0290757 0)
(1.30971 -0.0294866 0)
(1.26504 -0.0301207 0)
(1.21902 -0.0310009 0)
(1.17128 -0.0321464 0)
(1.12141 -0.0335669 0)
(1.06896 -0.0352896 0)
(1.01349 -0.0372984 0)
(0.954552 -0.0395611 0)
(0.891693 -0.0420694 0)
(0.824455 -0.0447225 0)
(0.752609 -0.0472657 0)
(0.675306 -0.0484937 0)
(0.597446 -0.0471231 0)
(1.17907 -0.136566 0)
(1.19222 -0.170824 0)
(1.19703 -0.190987 0)
(1.20288 -0.190838 0)
(1.2161 -0.168825 0)
(1.24898 -0.13001 0)
(1.31246 -0.080729 0)
(1.41648 -0.0307354 0)
(1.56712 0.00910943 0)
(1.75851 0.0191856 0)
(1.97665 -0.0070925 0)
(2.21082 -0.0755265 0)
(2.45725 -0.199817 0)
(2.69043 -0.373966 0)
(2.86309 -0.549675 0)
(2.96478 -0.691126 0)
(3.00672 -0.78937 0)
(3.00472 -0.854402 0)
(2.96645 -0.891186 0)
(2.89879 -0.890733 0)
(2.8062 -0.857949 0)
(2.69485 -0.80258 0)
(2.57204 -0.731285 0)
(2.44242 -0.648311 0)
(2.31126 -0.560769 0)
(2.18474 -0.476433 0)
(2.06845 -0.395729 0)
(1.96802 -0.31708 0)
(1.87856 -0.247468 0)
(1.77966 -0.20604 0)
(1.65322 -0.208207 0)
(1.49796 -0.241109 0)
(1.34231 -0.272099 0)
(1.2173 -0.273066 0)
(1.14018 -0.233115 0)
(1.11882 -0.15816 0)
(1.1368 -0.0599151 0)
(1.20373 0.0491168 0)
(1.29138 0.154855 0)
(1.3903 0.252617 0)
(1.49193 0.338783 0)
(1.59249 0.409111 0)
(1.69175 0.462309 0)
(1.79065 0.497295 0)
(1.8915 0.511958 0)
(1.99655 0.503485 0)
(2.10896 0.468879 0)
(2.23104 0.404421 0)
(2.36325 0.307585 0)
(2.50526 0.17729 0)
(2.64674 0.0268794 0)
(2.7701 -0.12053 0)
(2.86118 -0.246285 0)
(2.9144 -0.342052 0)
(2.93291 -0.403671 0)
(2.93249 -0.435185 0)
(2.88994 -0.439803 0)
(2.81402 -0.412367 0)
(2.71117 -0.359859 0)
(2.58966 -0.292744 0)
(2.46152 -0.222312 0)
(2.33605 -0.159093 0)
(2.21639 -0.111564 0)
(2.10398 -0.0867129 0)
(2.00012 -0.0876364 0)
(1.90663 -0.110299 0)
(1.82415 -0.14426 0)
(1.75195 -0.177701 0)
(1.68948 -0.201575 0)
(1.63664 -0.210002 0)
(1.59342 -0.198405 0)
(1.56202 -0.165438 0)
(1.5426 -0.114499 0)
(1.53508 -0.0511363 0)
(1.53989 0.0184497 0)
(1.55673 0.0885294 0)
(1.5843 0.154116 0)
(1.62101 0.211726 0)
(1.66531 0.258806 0)
(1.71574 0.293755 0)
(1.77097 0.315716 0)
(1.8295 0.324516 0)
(1.8901 0.3207 0)
(1.95203 0.305229 0)
(2.01494 0.27907 0)
(2.07896 0.242843 0)
(2.14463 0.196421 0)
(2.21169 0.140211 0)
(2.27687 0.0777489 0)
(2.33507 0.0143745 0)
(2.38166 -0.0457257 0)
(2.41268 -0.0985775 0)
(2.42912 -0.14147 0)
(2.42809 -0.175475 0)
(2.40336 -0.19424 0)
(2.35627 -0.196995 0)
(2.29083 -0.185011 0)
(2.21344 -0.165872 0)
(2.13225 -0.146974 0)
(2.05428 -0.133264 0)
(1.98316 -0.126642 0)
(1.92085 -0.126523 0)
(1.86763 -0.130566 0)
(1.82282 -0.135566 0)
(1.78521 -0.138215 0)
(1.75359 -0.135671 0)
(1.72719 -0.125801 0)
(1.70634 -0.107702 0)
(1.6913 -0.0816209 0)
(1.6823 -0.0484868 0)
(2.04141 -0.18143 0)
(2.0603 -0.205339 0)
(2.07302 -0.212194 0)
(2.0917 -0.203633 0)
(2.11834 -0.181694 0)
(2.15867 -0.152069 0)
(2.21779 -0.121704 0)
(2.29914 -0.0997107 0)
(2.40587 -0.0975375 0)
(2.53381 -0.121242 0)
(2.67554 -0.172354 0)
(2.82598 -0.253594 0)
(2.96456 -0.364577 0)
(3.06992 -0.498211 0)
(3.13237 -0.62401 0)
(3.15655 -0.718247 0)
(3.15175 -0.78086 0)
(3.12581 -0.818045 0)
(3.06718 -0.822433 0)
(2.98211 -0.794878 0)
(2.87393 -0.742686 0)
(2.74801 -0.673651 0)
(2.61044 -0.594071 0)
(2.46636 -0.508327 0)
(2.32612 -0.424923 0)
(2.19235 -0.34758 0)
(2.06849 -0.27806 0)
(1.96109 -0.217434 0)
(1.87713 -0.168172 0)
(1.81452 -0.133479 0)
(1.75854 -0.117113 0)
(1.69596 -0.119868 0)
(1.62013 -0.131705 0)
(1.52647 -0.142991 0)
(1.43561 -0.142302 0)
(1.36266 -0.122026 0)
(1.32103 -0.0781697 0)
(1.32168 -0.0125791 0)
(1.35878 0.0682153 0)
(1.41298 0.153308 0)
(1.49963 0.233279 0)
(1.59585 0.301454 0)
(1.69911 0.353937 0)
(1.80904 0.387083 0)
(1.92606 0.397565 0)
(2.05182 0.3823 0)
(2.18804 0.337871 0)
(2.33385 0.262422 0)
(2.48575 0.155019 0)
(2.63224 0.0242036 0)
(2.75699 -0.108576 0)
(2.85206 -0.223278 0)
(2.91309 -0.30938 0)
(2.93124 -0.370069 0)
(2.92306 -0.399259 0)
(2.87962 -0.398713 0)
(2.79477 -0.36183 0)
(2.67557 -0.301129 0)
(2.54345 -0.229074 0)
(2.40824 -0.155663 0)
(2.27899 -0.0884989 0)
(2.16034 -0.0335372 0)
(2.05419 0.00373734 0)
(1.95931 0.0182225 0)
(1.87392 0.00662291 0)
(1.79838 -0.026625 0)
(1.73149 -0.0700458 0)
(1.67095 -0.111897 0)
(1.61558 -0.143953 0)
(1.5657 -0.160996 0)
(1.52193 -0.159301 0)
(1.48681 -0.137322 0)
(1.46297 -0.0981348 0)
(1.45117 -0.0471686 0)
(1.45206 0.00942715 0)
(1.46555 0.0672008 0)
(1.49043 0.122324 0)
(1.52527 0.170757 0)
(1.56908 0.209929 0)
(1.6204 0.238365 0)
(1.67768 0.255278 0)
(1.7398 0.260519 0)
(1.80609 0.254291 0)
(1.87635 0.23691 0)
(1.9503 0.208609 0)
(2.02731 0.169556 0)
(2.10519 0.121163 0)
(2.17812 0.0674956 0)
(2.2403 0.01271 0)
(2.28705 -0.0383928 0)
(2.31605 -0.0816591 0)
(2.32595 -0.117113 0)
(2.31275 -0.140504 0)
(2.27586 -0.148277 0)
(2.21886 -0.141909 0)
(2.14815 -0.124472 0)
(2.07211 -0.102438 0)
(1.99915 -0.0824568 0)
(1.93244 -0.0687588 0)
(1.87354 -0.0633149 0)
(1.82259 -0.0659223 0)
(1.77865 -0.0746418 0)
(1.74019 -0.0863707 0)
(1.70563 -0.0975837 0)
(1.67381 -0.105157 0)
(1.64431 -0.106842 0)
(1.61749 -0.10136 0)
(1.59435 -0.0882803 0)
(1.57625 -0.067952 0)
(1.56407 -0.0411846 0)
(2.58273 -0.1976 0)
(2.58848 -0.214579 0)
(2.5897 -0.220063 0)
(2.59471 -0.218372 0)
(2.60725 -0.21071 0)
(2.63138 -0.2009 0)
(2.66903 -0.193568 0)
(2.72362 -0.193784 0)
(2.79198 -0.207085 0)
(2.86115 -0.238844 0)
(2.94277 -0.293286 0)
(3.02452 -0.368528 0)
(3.09623 -0.459825 0)
(3.15273 -0.558049 0)
(3.18509 -0.648042 0)
(3.19032 -0.714614 0)
(3.18309 -0.754457 0)
(3.14527 -0.766366 0)
(3.08261 -0.742795 0)
(2.99236 -0.690453 0)
(2.87547 -0.61781 0)
(2.73788 -0.533835 0)
(2.58615 -0.445121 0)
(2.43017 -0.358905 0)
(2.27983 -0.281409 0)
(2.14042 -0.21456 0)
(2.01701 -0.159887 0)
(1.91351 -0.119006 0)
(1.83251 -0.0927644 0)
(1.77434 -0.0805912 0)
(1.73459 -0.0805065 0)
(1.70618 -0.087975 0)
(1.68383 -0.0948576 0)
(1.6651 -0.0942854 0)
(1.65209 -0.0827149 0)
(1.64141 -0.0605846 0)
(1.63398 -0.0308963 0)
(1.6341 0.005396 0)
(1.6474 0.051046 0)
(1.68038 0.103331 0)
(1.73239 0.156144 0)
(1.80225 0.204895 0)
(1.8893 0.242288 0)
(1.9919 0.261319 0)
(2.10764 0.257738 0)
(2.23355 0.228265 0)
(2.36591 0.172394 0)
(2.49897 0.0939509 0)
(2.6223 0.00111689 0)
(2.72443 -0.098449 0)
(2.79033 -0.199928 0)
(2.81807 -0.279882 0)
(2.8175 -0.331722 0)
(2.77165 -0.348126 0)
(2.68253 -0.338645 0)
(2.57204 -0.298036 0)
(2.45163 -0.234595 0)
(2.32886 -0.161321 0)
(2.20921 -0.0893285 0)
(2.09687 -0.0243079 0)
(1.99678 0.0297162 0)
(1.91121 0.069469 0)
(1.83974 0.0926912 0)
(1.77925 0.0958332 0)
(1.72784 0.0746694 0)
(1.68584 0.0335889 0)
(1.64858 -0.0156127 0)
(1.61203 -0.0606062 0)
(1.57341 -0.0949931 0)
(1.53258 -0.115189 0)
(1.49081 -0.118876 0)
(1.45181 -0.105868 0)
(1.41961 -0.0784695 0)
(1.39925 -0.0401274 0)
(1.3929 0.0041067 0)
(1.39733 0.0495058 0)
(1.4172 0.0927724 0)
(1.45067 0.130741 0)
(1.49373 0.161042 0)
(1.54598 0.18241 0)
(1.60605 0.193657 0)
(1.67326 0.193574 0)
(1.74737 0.181329 0)
(1.82776 0.15752 0)
(1.91139 0.124529 0)
(1.99092 0.0849733 0)
(2.05917 0.0422216 0)
(2.11055 0.00147226 0)
(2.14266 -0.03354 0)
(2.15375 -0.0629701 0)
(2.14124 -0.0841103 0)
(2.10685 -0.0930481 0)
(2.05564 -0.0914303 0)
(1.9942 -0.08055 0)
(1.93012 -0.0646445 0)
(1.87017 -0.0478097 0)
(1.81781 -0.0330741 0)
(1.77427 -0.0228738 0)
(1.73863 -0.0188968 0)
(1.70909 -0.0217235 0)
(1.68378 -0.0306079 0)
(1.66056 -0.0432615 0)
(1.63699 -0.0567185 0)
(1.61161 -0.068314 0)
(1.58431 -0.075978 0)
(1.55599 -0.0783551 0)
(1.52816 -0.0748359 0)
(1.50257 -0.0653962 0)
(1.48105 -0.0502694 0)
(1.46525 -0.0299464 0)
(2.77303 -0.197339 0)
(2.76885 -0.211749 0)
(2.76376 -0.219126 0)
(2.76144 -0.221626 0)
(2.76549 -0.22118 0)
(2.77767 -0.220117 0)
(2.79514 -0.222561 0)
(2.82624 -0.233002 0)
(2.86675 -0.254617 0)
(2.91484 -0.291904 0)
(2.96695 -0.347143 0)
(3.01839 -0.417409 0)
(3.0642 -0.500035 0)
(3.10244 -0.589204 0)
(3.1289 -0.665648 0)
(3.13889 -0.713713 0)
(3.13008 -0.733951 0)
(3.09551 -0.719522 0)
(3.03325 -0.666234 0)
(2.93305 -0.582952 0)
(2.80291 -0.483701 0)
(2.64919 -0.380478 0)
(2.48148 -0.282293 0)
(2.31538 -0.198387 0)
(2.15957 -0.131817 0)
(2.01993 -0.0820253 0)
(1.90104 -0.048317 0)
(1.80567 -0.0300749 0)
(1.73403 -0.0258562 0)
(1.68424 -0.033064 0)
(1.65313 -0.0485463 0)
(1.63708 -0.0675836 0)
(1.63272 -0.0855484 0)
(1.63868 -0.0989559 0)
(1.65495 -0.102379 0)
(1.68306 -0.0923754 0)
(1.72179 -0.068365 0)
(1.76913 -0.0320485 0)
(1.82398 0.012141 0)
(1.88542 0.057519 0)
(1.95293 0.0991401 0)
(2.02639 0.134234 0)
(2.10658 0.158253 0)
(2.19246 0.166912 0)
(2.28321 0.157635 0)
(2.37079 0.129666 0)
(2.44895 0.0815684 0)
(2.50034 0.0127671 0)
(2.53577 -0.0665722 0)
(2.54349 -0.141156 0)
(2.50746 -0.202798 0)
(2.43297 -0.236972 0)
(2.33367 -0.249044 0)
(2.23173 -0.236414 0)
(2.13862 -0.208493 0)
(2.05235 -0.16713 0)
(1.97111 -0.112145 0)
(1.89295 -0.0494517 0)
(1.81923 0.0107449 0)
(1.75256 0.0623612 0)
(1.69589 0.102058 0)
(1.65266 0.128201 0)
(1.6216 0.138529 0)
(1.59868 0.13133 0)
(1.58506 0.10099 0)
(1.57884 0.055089 0)
(1.5747 0.00702335 0)
(1.56683 -0.0328916 0)
(1.55171 -0.0610775 0)
(1.52711 -0.0755154 0)
(1.49652 -0.075092 0)
(1.46316 -0.0626878 0)
(1.43077 -0.0425374 0)
(1.40458 -0.0176149 0)
(1.39039 0.0113307 0)
(1.38849 0.0412345 0)
(1.40217 0.0693639 0)
(1.43085 0.0940656 0)
(1.47198 0.113294 0)
(1.52443 0.124239 0)
(1.58555 0.124951 0)
(1.6527 0.114635 0)
(1.72236 0.0945457 0)
(1.78639 0.0684599 0)
(1.84014 0.0404996 0)
(1.88218 0.0170261 0)
(1.90601 -0.0016535 0)
(1.91233 -0.0178247 0)
(1.89987 -0.0297906 0)
(1.87201 -0.0357961 0)
(1.83365 -0.0361481 0)
(1.78954 -0.0325029 0)
(1.74484 -0.0267627 0)
(1.70354 -0.0201812 0)
(1.66822 -0.0137628 0)
(1.64038 -0.0079606 0)
(1.62003 -0.00350979 0)
(1.60593 -0.00115454 0)
(1.59619 -0.00145831 0)
(1.58848 -0.00665692 0)
(1.58062 -0.0158464 0)
(1.56991 -0.02613 0)
(1.55489 -0.035796 0)
(1.53531 -0.0434984 0)
(1.51191 -0.048328 0)
(1.48614 -0.0496515 0)
(1.45997 -0.0470948 0)
(1.43546 -0.0406104 0)
(1.41439 -0.0303491 0)
(1.39843 -0.0165878 0)
(2.81143 -0.192075 0)
(2.8064 -0.204707 0)
(2.80074 -0.2136 0)
(2.79683 -0.219857 0)
(2.79619 -0.225427 0)
(2.80101 -0.231637 0)
(2.81227 -0.241908 0)
(2.82928 -0.2608 0)
(2.85129 -0.290867 0)
(2.87713 -0.334346 0)
(2.90504 -0.392221 0)
(2.93204 -0.462297 0)
(2.95744 -0.542663 0)
(2.97776 -0.624506 0)
(2.98918 -0.686133 0)
(2.99056 -0.715569 0)
(2.9732 -0.714955 0)
(2.92934 -0.668351 0)
(2.85157 -0.578265 0)
(2.73769 -0.459608 0)
(2.59181 -0.331701 0)
(2.42232 -0.209747 0)
(2.24792 -0.107492 0)
(2.07998 -0.0307866 0)
(1.92731 0.0210474 0)
(1.79743 0.0504803 0)
(1.69462 0.0596986 0)
(1.61749 0.0519984 0)
(1.56214 0.0315126 0)
(1.52545 0.00329725 0)
(1.5061 -0.0298207 0)
(1.50415 -0.0652489 0)
(1.51594 -0.0977235 0)
(1.53711 -0.121906 0)
(1.56297 -0.134655 0)
(1.59084 -0.134408 0)
(1.62354 -0.121242 0)
(1.66311 -0.0984613 0)
(1.70995 -0.0659473 0)
(1.76443 -0.0276341 0)
(1.82549 0.0117374 0)
(1.88965 0.0460902 0)
(1.95317 0.0691158 0)
(2.011 0.0752252 0)
(2.05535 0.070598 0)
(2.08284 0.0549681 0)
(2.08867 0.0290619 0)
(2.06208 -0.0016169 0)
(1.99627 -0.0332039 0)
(1.89781 -0.0631347 0)
(1.80038 -0.0917305 0)
(1.7244 -0.116602 0)
(1.67122 -0.138639 0)
(1.63399 -0.152816 0)
(1.60404 -0.148933 0)
(1.5794 -0.11929 0)
(1.55211 -0.0678998 0)
(1.51544 -0.00427697 0)
(1.47499 0.0565237 0)
(1.4392 0.104001 0)
(1.413 0.134759 0)
(1.39806 0.147844 0)
(1.39313 0.149261 0)
(1.39764 0.13625 0)
(1.41509 0.0969746 0)
(1.44032 0.0448163 0)
(1.46284 -0.00310178 0)
(1.47747 -0.0376923 0)
(1.48294 -0.0567504 0)
(1.48065 -0.0635812 0)
(1.47079 -0.0593128 0)
(1.45554 -0.0441588 0)
(1.43587 -0.0228516 0)
(1.41484 -0.000770252 0)
(1.39779 0.0193069 0)
(1.38955 0.035611 0)
(1.3915 0.0485265 0)
(1.40441 0.057871 0)
(1.42795 0.0622085 0)
(1.45952 0.0632318 0)
(1.49504 0.0607704 0)
(1.5288 0.0547509 0)
(1.55534 0.0466268 0)
(1.57347 0.037612 0)
(1.58279 0.0287087 0)
(1.58413 0.0200445 0)
(1.57894 0.012864 0)
(1.56888 0.00772761 0)
(1.55487 0.00463289 0)
(1.53827 0.00189677 0)
(1.52064 -0.000456484 0)
(1.50343 -0.00194695 0)
(1.48783 -0.00223724 0)
(1.47489 -0.00145953 0)
(1.46526 -0.000273712 0)
(1.45918 0.00075798 0)
(1.45633 0.00130483 0)
(1.45574 0.000950761 0)
(1.45687 -0.00194217 0)
(1.45794 -0.00665022 0)
(1.45647 -0.012236 0)
(1.45089 -0.0176737 0)
(1.44069 -0.0221399 0)
(1.42614 -0.0251328 0)
(1.40814 -0.0264095 0)
(1.38801 -0.0258749 0)
(1.36743 -0.0234657 0)
(1.34807 -0.0191132 0)
(1.33123 -0.0127566 0)
(1.31816 -0.00449896 0)
(2.80467 -0.187616 0)
(2.79876 -0.199381 0)
(2.79223 -0.209111 0)
(2.78632 -0.217423 0)
(2.78179 -0.225627 0)
(2.77871 -0.235724 0)
(2.77709 -0.250481 0)
(2.77682 -0.272894 0)
(2.77727 -0.305355 0)
(2.77762 -0.349615 0)
(2.77666 -0.405907 0)
(2.77131 -0.473745 0)
(2.76103 -0.548902 0)
(2.74077 -0.625021 0)
(2.70841 -0.687491 0)
(2.65922 -0.702614 0)
(2.59471 -0.681117 0)
(2.51149 -0.6038 0)
(2.40606 -0.478814 0)
(2.27642 -0.32672 0)
(2.12508 -0.17239 0)
(1.96191 -0.0389756 0)
(1.79919 0.060516 0)
(1.65607 0.122284 0)
(1.54088 0.151777 0)
(1.44974 0.154462 0)
(1.38202 0.138105 0)
(1.33578 0.110707 0)
(1.30597 0.0733593 0)
(1.2902 0.0251008 0)
(1.28397 -0.0306745 0)
(1.28113 -0.0780861 0)
(1.27298 -0.116128 0)
(1.2604 -0.141362 0)
(1.2434 -0.148269 0)
(1.2279 -0.146733 0)
(1.21641 -0.136596 0)
(1.21243 -0.116678 0)
(1.21731 -0.0903866 0)
(1.23104 -0.0596278 0)
(1.2499 -0.0267245 0)
(1.27013 0.0041794 0)
(1.28565 0.0343069 0)
(1.28998 0.0631089 0)
(1.2792 0.086026 0)
(1.2548 0.0978899 0)
(1.221 0.0997659 0)
(1.18306 0.0960553 0)
(1.1471 0.0792797 0)
(1.12404 0.0282754 0)
(1.11716 -0.0427741 0)
(1.12122 -0.107931 0)
(1.1289 -0.149497 0)
(1.13495 -0.163692 0)
(1.13972 -0.157308 0)
(1.13865 -0.115692 0)
(1.12731 -0.0464876 0)
(1.10859 0.0263415 0)
(1.09244 0.0841338 0)
(1.08415 0.122288 0)
(1.08398 0.14201 0)
(1.09275 0.147262 0)
(1.11025 0.139488 0)
(1.13779 0.106294 0)
(1.17113 0.056259 0)
(1.19732 0.00871006 0)
(1.21116 -0.0274932 0)
(1.21418 -0.0504197 0)
(1.20981 -0.0604179 0)
(1.20111 -0.059576 0)
(1.19093 -0.0464682 0)
(1.17981 -0.0249344 0)
(1.16939 -0.00194857 0)
(1.16199 0.0174535 0)
(1.15759 0.032675 0)
(1.15526 0.0437486 0)
(1.15466 0.0513057 0)
(1.15593 0.0562211 0)
(1.15888 0.0588397 0)
(1.16322 0.0591451 0)
(1.16944 0.0574739 0)
(1.17796 0.0539317 0)
(1.18825 0.0470231 0)
(1.19939 0.0377245 0)
(1.21007 0.0275101 0)
(1.21904 0.0183975 0)
(1.22548 0.0112715 0)
(1.22905 0.00621285 0)
(1.22983 0.00310514 0)
(1.22751 0.00165262 0)
(1.22254 0.00159929 0)
(1.21611 0.00250073 0)
(1.20982 0.0031332 0)
(1.20429 0.00330268 0)
(1.19994 0.00305011 0)
(1.19704 0.0023741 0)
(1.19558 0.00115759 0)
(1.19548 -0.000667745 0)
(1.19563 -0.00287567 0)
(1.19471 -0.00538927 0)
(1.19206 -0.00776581 0)
(1.1874 -0.00941752 0)
(1.18074 -0.010195 0)
(1.17241 -0.0102981 0)
(1.1629 -0.00982688 0)
(1.15281 -0.00877972 0)
(1.14275 -0.00702035 0)
(1.13336 -0.00433777 0)
(1.1254 -0.000417954 0)
(1.11949 0.00460868 0)
(2.74143 -0.180767 0)
(2.7296 -0.191243 0)
(2.71598 -0.200482 0)
(2.70081 -0.20868 0)
(2.68412 -0.216744 0)
(2.66549 -0.226185 0)
(2.64389 -0.239463 0)
(2.61781 -0.259766 0)
(2.58574 -0.289619 0)
(2.54546 -0.330203 0)
(2.49363 -0.380114 0)
(2.42513 -0.43814 0)
(2.33476 -0.510693 0)
(2.20694 -0.558842 0)
(2.04715 -0.590392 0)
(1.88303 -0.596251 0)
(1.73672 -0.564443 0)
(1.61112 -0.481884 0)
(1.50354 -0.347525 0)
(1.39602 -0.178205 0)
(1.27996 -0.0130273 0)
(1.17683 0.116897 0)
(1.09725 0.202492 0)
(1.04045 0.231104 0)
(1.00755 0.23152 0)
(0.985764 0.213342 0)
(0.975726 0.172513 0)
(0.971727 0.123713 0)
(0.962674 0.0739316 0)
(0.94036 0.0284275 0)
(0.902451 -0.00916473 0)
(0.852532 -0.0416783 0)
(0.80043 -0.0696293 0)
(0.753906 -0.0909475 0)
(0.715689 -0.104468 0)
(0.685124 -0.109691 0)
(0.660411 -0.106779 0)
(0.640542 -0.0960406 0)
(0.625559 -0.0775501 0)
(0.614791 -0.0511754 0)
(0.605312 -0.0180085 0)
(0.5975 0.0194839 0)
(0.595003 0.0550785 0)
(0.596032 0.0840655 0)
(0.598989 0.10235 0)
(0.604187 0.109255 0)
(0.611444 0.105371 0)
(0.621626 0.082808 0)
(0.637002 0.0412378 0)
(0.652567 -0.0140868 0)
(0.659915 -0.0734272 0)
(0.658343 -0.124038 0)
(0.652139 -0.156828 0)
(0.643249 -0.166621 0)
(0.634944 -0.152665 0)
(0.628587 -0.102889 0)
(0.625341 -0.0348322 0)
(0.627616 0.0307605 0)
(0.63804 0.0812169 0)
(0.653612 0.113412 0)
(0.672323 0.128515 0)
(0.693698 0.126471 0)
(0.715726 0.10733 0)
(0.736191 0.0744877 0)
(0.750118 0.036517 0)
(0.755475 0.00277883 0)
(0.753742 -0.0233214 0)
(0.747639 -0.0403416 0)
(0.739323 -0.0483566 0)
(0.729395 -0.0470924 0)
(0.719961 -0.0366305 0)
(0.712472 -0.0195096 0)
(0.708078 8.27209e-05 0)
(0.707185 0.0182234 0)
(0.708861 0.0331134 0)
(0.712567 0.0442144 0)
(0.718376 0.0514968 0)
(0.726466 0.0545858 0)
(0.736551 0.0545653 0)
(0.74852 0.0505163 0)
(0.761962 0.0435807 0)
(0.776033 0.0350332 0)
(0.789415 0.0261516 0)
(0.800822 0.0180793 0)
(0.809556 0.0117144 0)
(0.815419 0.00754417 0)
(0.818705 0.00568683 0)
(0.819889 0.0053994 0)
(0.819605 0.00675747 0)
(0.818538 0.00852149 0)
(0.817448 0.00970945 0)
(0.81647 0.00958264 0)
(0.815945 0.00897568 0)
(0.815765 0.00792584 0)
(0.816088 0.00621986 0)
(0.816938 0.00398872 0)
(0.818088 0.001671 0)
(0.81922 -0.000531644 0)
(0.820052 -0.0026535 0)
(0.820281 -0.00451116 0)
(0.819638 -0.00601321 0)
(0.818097 -0.00688887 0)
(0.815836 -0.00705283 0)
(0.813051 -0.0066046 0)
(0.809927 -0.00566972 0)
(0.806667 -0.00433716 0)
(0.803534 -0.00260065 0)
(0.800811 -0.000302554 0)
(0.798871 0.00266186 0)
(0.79805 0.00627663 0)
(2.54368 -0.165286 0)
(2.51475 -0.173468 0)
(2.48176 -0.180467 0)
(2.44448 -0.186274 0)
(2.40203 -0.191029 0)
(2.35258 -0.195134 0)
(2.29311 -0.200426 0)
(2.22133 -0.211099 0)
(2.13427 -0.22977 0)
(2.02298 -0.254076 0)
(1.87723 -0.278858 0)
(1.68797 -0.294894 0)
(1.43885 -0.297317 0)
(1.15849 -0.309177 0)
(0.911672 -0.344994 0)
(0.728637 -0.384787 0)
(0.587833 -0.392762 0)
(0.479697 -0.339279 0)
(0.41356 -0.220601 0)
(0.372822 -0.0705518 0)
(0.349064 0.0647269 0)
(0.350259 0.157033 0)
(0.366149 0.203235 0)
(0.392476 0.219126 0)
(0.418538 0.216543 0)
(0.436518 0.194132 0)
(0.445585 0.162687 0)
(0.444987 0.132705 0)
(0.43741 0.104667 0)
(0.426583 0.0748509 0)
(0.413627 0.0396032 0)
(0.39838 0.00108805 0)
(0.377674 -0.0335413 0)
(0.350198 -0.0600841 0)
(0.317739 -0.0764014 0)
(0.283418 -0.0834074 0)
(0.250014 -0.0819981 0)
(0.219557 -0.0725311 0)
(0.193686 -0.0561039 0)
(0.174039 -0.0337301 0)
(0.161821 -0.00727516 0)
(0.158742 0.0212369 0)
(0.164309 0.0475378 0)
(0.177956 0.0693238 0)
(0.198914 0.0834073 0)
(0.224688 0.0877184 0)
(0.252485 0.0800475 0)
(0.279121 0.0602029 0)
(0.2994 0.0276644 0)
(0.308541 -0.0166203 0)
(0.302286 -0.0638192 0)
(0.280368 -0.103821 0)
(0.246285 -0.128988 0)
(0.207289 -0.134856 0)
(0.171549 -0.118248 0)
(0.145779 -0.0798505 0)
(0.135382 -0.0287693 0)
(0.141301 0.0220239 0)
(0.161094 0.0611293 0)
(0.189385 0.0856595 0)
(0.222339 0.0956004 0)
(0.256858 0.0923047 0)
(0.289642 0.0777415 0)
(0.316135 0.0538872 0)
(0.332946 0.0258449 0)
(0.339392 -6.9433e-05 0)
(0.336794 -0.0197756 0)
(0.327881 -0.031647 0)
(0.315622 -0.0354059 0)
(0.302824 -0.0319342 0)
(0.291871 -0.0226942 0)
(0.284901 -0.0098279 0)
(0.283031 0.00403912 0)
(0.286642 0.0165127 0)
(0.294507 0.0267048 0)
(0.30534 0.0336842 0)
(0.31835 0.0374324 0)
(0.332769 0.0382805 0)
(0.347781 0.0367966 0)
(0.362487 0.03363 0)
(0.376077 0.0292926 0)
(0.387953 0.0242619 0)
(0.397863 0.0189376 0)
(0.405598 0.0139085 0)
(0.41138 0.00967536 0)
(0.415534 0.00667143 0)
(0.418548 0.00492177 0)
(0.421138 0.00431612 0)
(0.42357 0.0046069 0)
(0.426088 0.00518047 0)
(0.428822 0.00555777 0)
(0.431632 0.0054905 0)
(0.434388 0.00487632 0)
(0.437014 0.00381674 0)
(0.439345 0.00247018 0)
(0.441292 0.000994785 0)
(0.442714 -0.000537071 0)
(0.443532 -0.00193115 0)
(0.443852 -0.00309805 0)
(0.443734 -0.00401595 0)
(0.443172 -0.00459916 0)
(0.442282 -0.00476157 0)
(0.441244 -0.00457043 0)
(0.440224 -0.00406572 0)
(0.439336 -0.00333017 0)
(0.438668 -0.00236271 0)
(0.438305 -0.00110051 0)
(0.438384 0.000544062 0)
(0.4391 0.00261922 0)
(0.440659 0.00512919 0)
(1.94052 -0.121306 0)
(1.87114 -0.123949 0)
(1.79411 -0.125068 0)
(1.70987 -0.124484 0)
(1.61863 -0.122555 0)
(1.52036 -0.118811 0)
(1.41266 -0.112439 0)
(1.28397 -0.10169 0)
(1.12491 -0.0839067 0)
(0.944247 -0.0604904 0)
(0.745971 -0.0363783 0)
(0.574073 -0.0288748 0)
(0.447312 -0.0505857 0)
(0.342071 -0.105094 0)
(0.220368 -0.191578 0)
(0.066748 -0.247254 0)
(-0.102547 -0.255609 0)
(-0.258262 -0.218486 0)
(-0.371271 -0.145398 0)
(-0.42612 -0.0511858 0)
(-0.427456 0.0432642 0)
(-0.387266 0.112664 0)
(-0.320754 0.153004 0)
(-0.241333 0.167807 0)
(-0.158677 0.166505 0)
(-0.0781445 0.154213 0)
(-0.00714736 0.133567 0)
(0.05226 0.108303 0)
(0.099323 0.0809045 0)
(0.132705 0.0534088 0)
(0.151238 0.0277232 0)
(0.155584 0.0059115 0)
(0.145799 -0.0131561 0)
(0.123686 -0.028404 0)
(0.0938852 -0.0386666 0)
(0.0596378 -0.0437752 0)
(0.0248273 -0.0444046 0)
(-0.00775815 -0.0404568 0)
(-0.0350351 -0.0316128 0)
(-0.0540383 -0.0186354 0)
(-0.062484 -0.00273385 0)
(-0.0600095 0.014365 0)
(-0.0470951 0.0303998 0)
(-0.0244194 0.0435989 0)
(0.00643917 0.0517659 0)
(0.0415593 0.0535273 0)
(0.0760754 0.0483569 0)
(0.105636 0.0352914 0)
(0.124697 0.0144804 0)
(0.128186 -0.0120587 0)
(0.111946 -0.0399625 0)
(0.0764691 -0.063787 0)
(0.0259582 -0.0799268 0)
(-0.0311157 -0.0853169 0)
(-0.0849975 -0.0774074 0)
(-0.126475 -0.0559723 0)
(-0.147818 -0.0258476 0)
(-0.147885 0.00549388 0)
(-0.13056 0.0313527 0)
(-0.100716 0.0481018 0)
(-0.0638354 0.0553175 0)
(-0.0253165 0.0538257 0)
(0.00970768 0.0449986 0)
(0.0364941 0.0308894 0)
(0.0525988 0.0148136 0)
(0.0580058 -8.94803e-05 0)
(0.0542531 -0.0119703 0)
(0.0441411 -0.0196126 0)
(0.0308392 -0.0228276 0)
(0.0172609 -0.0216964 0)
(0.00618443 -0.016788 0)
(-0.000186059 -0.00930886 0)
(-0.00139161 -0.000830867 0)
(0.00304277 0.00724696 0)
(0.0122581 0.0136365 0)
(0.0246425 0.0181306 0)
(0.0392503 0.0206559 0)
(0.0549905 0.0214937 0)
(0.0706875 0.0208018 0)
(0.0854925 0.0188091 0)
(0.0986337 0.0159834 0)
(0.109664 0.0125983 0)
(0.118496 0.00916911 0)
(0.12513 0.00607834 0)
(0.129974 0.00365759 0)
(0.13344 0.0021802 0)
(0.136102 0.00149768 0)
(0.138387 0.00147878 0)
(0.140698 0.00190741 0)
(0.143205 0.00241715 0)
(0.14597 0.00270009 0)
(0.148803 0.00266377 0)
(0.151481 0.00232597 0)
(0.153812 0.00171523 0)
(0.155663 0.000858582 0)
(0.156877 -0.000209333 0)
(0.157507 -0.00138734 0)
(0.157617 -0.0024839 0)
(0.157218 -0.00335571 0)
(0.156376 -0.00404808 0)
(0.155236 -0.00448232 0)
(0.153951 -0.00464566 0)
(0.152677 -0.0045623 0)
(0.151553 -0.00423008 0)
(0.15069 -0.00369412 0)
(0.150189 -0.00299105 0)
(0.150157 -0.00209796 0)
(0.150668 -0.000957848 0)
(0.151814 0.000435724 0)
(0.153911 0.00213254 0)
(0.520793 -0.0427919 0)
(0.44532 -0.0361383 0)
(0.372126 -0.0282025 0)
(0.302806 -0.0189152 0)
(0.239152 -0.00606592 0)
(0.184744 0.0150392 0)
(0.145372 0.0458865 0)
(0.126256 0.0780735 0)
(0.130285 0.094135 0)
(0.151951 0.0903264 0)
(0.177369 0.0644068 0)
(0.193203 0.0217734 0)
(0.185637 -0.0278074 0)
(0.138223 -0.0713269 0)
(0.0286898 -0.102645 0)
(-0.141431 -0.119747 0)
(-0.332777 -0.110501 0)
(-0.502279 -0.0873899 0)
(-0.633032 -0.0556014 0)
(-0.706539 -0.0195183 0)
(-0.7168 0.0154482 0)
(-0.674633 0.0441518 0)
(-0.595738 0.0611509 0)
(-0.494854 0.06738 0)
(-0.385467 0.0658307 0)
(-0.280492 0.058921 0)
(-0.184192 0.0492199 0)
(-0.101774 0.039278 0)
(-0.0361393 0.029478 0)
(0.0112289 0.0203907 0)
(0.040924 0.0116226 0)
(0.0546925 0.0037516 0)
(0.0541942 -0.00371107 0)
(0.0425123 -0.00948326 0)
(0.0221828 -0.0133562 0)
(-0.00545773 -0.0154799 0)
(-0.0363462 -0.0164708 0)
(-0.0657412 -0.014945 0)
(-0.0905245 -0.0118335 0)
(-0.108206 -0.00752329 0)
(-0.116062 -0.00219918 0)
(-0.113428 0.00383878 0)
(-0.100158 0.00969341 0)
(-0.0770342 0.0142887 0)
(-0.0458641 0.0171755 0)
(-0.0101272 0.0173563 0)
(0.0248927 0.015379 0)
(0.0533986 0.0107424 0)
(0.0701859 0.00347337 0)
(0.0719931 -0.00649926 0)
(0.0561638 -0.0168241 0)
(0.0209742 -0.025552 0)
(-0.0302696 -0.0322394 0)
(-0.0884316 -0.033102 0)
(-0.143431 -0.0289956 0)
(-0.188055 -0.0210573 0)
(-0.215731 -0.0107214 0)
(-0.22379 -2.33708e-05 0)
(-0.2134 0.00952946 0)
(-0.188247 0.0158661 0)
(-0.153681 0.0186796 0)
(-0.116941 0.0182884 0)
(-0.0831538 0.0154151 0)
(-0.0569282 0.010687 0)
(-0.041163 0.00518106 0)
(-0.0358967 -5.78247e-05 0)
(-0.0396567 -0.00431687 0)
(-0.0502375 -0.0070482 0)
(-0.0647345 -0.0081362 0)
(-0.0799095 -0.00768171 0)
(-0.093078 -0.00598514 0)
(-0.102035 -0.00352494 0)
(-0.105631 -0.000755614 0)
(-0.1039 0.00224076 0)
(-0.0974549 0.00440644 0)
(-0.0871495 0.00596417 0)
(-0.0743417 0.00677478 0)
(-0.0602715 0.00706892 0)
(-0.0461828 0.00676916 0)
(-0.0327631 0.00608614 0)
(-0.0210343 0.00514987 0)
(-0.0114371 0.00394882 0)
(-0.00412902 0.00275664 0)
(0.000848711 0.00163996 0)
(0.00395541 0.00076094 0)
(0.00568266 0.000159559 0)
(0.00654897 -0.000145023 0)
(0.00718434 -0.000243 0)
(0.00799081 -6.38234e-05 0)
(0.0090334 0.000177107 0)
(0.010411 0.000277411 0)
(0.0120047 0.00027908 0)
(0.013483 0.000179476 0)
(0.0146386 -1.77356e-05 0)
(0.0152428 -0.000299852 0)
(0.0151889 -0.000702601 0)
(0.0144336 -0.00108108 0)
(0.0129901 -0.00144183 0)