/*--------------------------------*- C++ -*----------------------------------*\
| =========                 |                                                 |
| \\      /  F ield         | OpenFOAM: The Open Source CFD Toolbox           |
|  \\    /   O peration     | Version:  2206                                  |
|   \\  /    A nd           | Website:  www.openfoam.com                      |
|    \\/     M anipulation  |                                                 |
\*---------------------------------------------------------------------------*/
FoamFile
{
    version     2.0;
    format      ascii;
    arch        "LSB;label=32;scalar=64";
    class       surfaceScalarField;
    location    "19.8999";
    object      phi;
}
// * * * * * * * * * * * * * * * * * * * * * * * * * * * * * * * * * * * * * //

dimensions      [0 3 -1 0 0 0 0];

oriented        oriented;

internalField   nonuniform List<scalar> 
9557
(
8.8108e-06
-1.04161e-06
9.71784e-07
8.89606e-06
-1.43002e-06
1.34476e-06
8.99372e-06
-1.79197e-06
1.69431e-06
9.10054e-06
-2.12365e-06
2.01683e-06
9.21329e-06
-2.42271e-06
2.30995e-06
9.32891e-06
-2.68827e-06
2.57265e-06
9.44462e-06
-2.92083e-06
2.80512e-06
9.55797e-06
-3.1219e-06
3.00855e-06
9.66695e-06
-3.29382e-06
3.18485e-06
9.76997e-06
-3.43934e-06
3.33632e-06
9.86601e-06
-3.56156e-06
3.46552e-06
9.95436e-06
-3.66317e-06
3.57481e-06
1.00347e-05
-3.74663e-06
3.66626e-06
1.0107e-05
-3.81382e-06
3.74152e-06
1.01714e-05
-3.86618e-06
3.8018e-06
1.02285e-05
-3.90477e-06
3.84769e-06
1.02796e-05
-3.92995e-06
3.87883e-06
1.03264e-05
-3.94001e-06
3.89319e-06
1.03693e-05
-3.92901e-06
3.8861e-06
1.04086e-05
-3.89271e-06
3.8534e-06
1.04454e-05
-3.82899e-06
3.79222e-06
1.04807e-05
-3.7348e-06
3.69951e-06
1.05154e-05
-3.60671e-06
3.57198e-06
1.05504e-05
-3.44149e-06
3.40657e-06
1.05861e-05
-3.2365e-06
3.20077e-06
1.06231e-05
-2.98995e-06
2.95296e-06
1.06616e-05
-2.70121e-06
2.66268e-06
1.07018e-05
-2.37108e-06
2.33092e-06
1.07435e-05
-2.00197e-06
1.96024e-06
1.07866e-05
-1.59804e-06
1.55496e-06
1.08306e-05
-1.16521e-06
1.12114e-06
1.08752e-05
-7.11343e-07
6.66821e-07
1.0919e-05
-2.46861e-07
2.03037e-07
1.09606e-05
2.14968e-07
-2.56629e-07
1.09988e-05
6.64491e-07
-7.02699e-07
1.10323e-05
1.09351e-06
-1.12693e-06
1.10597e-05
1.49497e-06
-1.52238e-06
1.108e-05
1.86333e-06
-1.88366e-06
1.10925e-05
2.19468e-06
-2.20718e-06
1.10967e-05
2.48681e-06
-2.491e-06
1.10924e-05
2.73907e-06
-2.73478e-06
1.10797e-05
2.95216e-06
-2.93945e-06
1.10588e-05
3.12785e-06
-3.10696e-06
1.10301e-05
3.26869e-06
-3.24e-06
1.0994e-05
3.37777e-06
-3.34165e-06
1.09507e-05
3.45841e-06
-3.41507e-06
1.09e-05
3.51373e-06
-3.46302e-06
1.08415e-05
3.54619e-06
-3.48769e-06
1.07753e-05
3.55792e-06
-3.49172e-06
1.0702e-05
3.55211e-06
-3.47888e-06
1.06223e-05
3.53191e-06
-3.45216e-06
1.05366e-05
3.49936e-06
-3.41367e-06
1.04457e-05
3.45541e-06
-3.36453e-06
1.03506e-05
3.40003e-06
-3.30491e-06
1.02523e-05
3.33236e-06
-3.23414e-06
1.01523e-05
3.25093e-06
-3.15085e-06
1.00517e-05
3.15379e-06
-3.0532e-06
9.95199e-06
3.03876e-06
-2.93909e-06
9.85472e-06
2.90366e-06
-2.80639e-06
9.76138e-06
2.7465e-06
-2.65317e-06
9.67351e-06
2.56571e-06
-2.47783e-06
9.59264e-06
2.36022e-06
-2.27934e-06
9.52033e-06
2.12962e-06
-2.05731e-06
9.45816e-06
1.87425e-06
-1.81208e-06
9.40755e-06
1.59537e-06
-1.54476e-06
9.3697e-06
1.29515e-06
-1.25731e-06
9.34547e-06
9.76696e-07
-9.52468e-07
9.33535e-06
6.43962e-07
-6.33834e-07
9.33945e-06
3.01687e-07
-3.05791e-07
9.3573e-06
-4.4542e-08
2.66929e-08
9.38785e-06
-3.88462e-07
3.5791e-07
9.42995e-06
-7.25312e-07
6.83212e-07
9.48221e-06
-1.05075e-06
9.98487e-07
9.54304e-06
-1.36086e-06
1.30003e-06
9.61068e-06
-1.65221e-06
1.58457e-06
9.68339e-06
-1.9222e-06
1.84948e-06
9.75946e-06
-2.16895e-06
2.09288e-06
9.83726e-06
-2.39128e-06
2.31349e-06
9.91533e-06
-2.58875e-06
2.51068e-06
9.99241e-06
-2.76146e-06
2.68438e-06
1.00674e-05
-2.90995e-06
2.83494e-06
1.01394e-05
-3.03518e-06
2.96316e-06
1.02077e-05
-3.13842e-06
3.0701e-06
1.02718e-05
-3.22104e-06
3.157e-06
1.03312e-05
-3.28451e-06
3.22506e-06
1.03862e-05
-3.33031e-06
3.27536e-06
1.04372e-05
-3.35962e-06
3.30864e-06
1.04851e-05
-3.3725e-06
3.32461e-06
1.05303e-05
-3.36643e-06
3.32122e-06
1.05731e-05
-3.33967e-06
3.29681e-06
1.06143e-05
-3.29171e-06
3.25051e-06
1.06547e-05
-3.22163e-06
3.18126e-06
1.0695e-05
-3.128e-06
3.0877e-06
1.07359e-05
-3.0092e-06
2.96833e-06
1.07778e-05
-2.86369e-06
2.82173e-06
1.08212e-05
-2.69021e-06
2.64684e-06
1.08662e-05
-2.48802e-06
2.44306e-06
1.09127e-05
-2.25704e-06
2.21048e-06
1.09607e-05
-1.99797e-06
1.94997e-06
1.10099e-05
-1.7124e-06
1.66324e-06
1.10598e-05
-1.40284e-06
1.35291e-06
1.11101e-05
-1.07269e-06
1.02247e-06
1.116e-05
-7.26311e-07
6.7637e-07
1.12089e-05
-3.69158e-07
3.20249e-07
1.12555e-05
-8.51703e-09
-3.80662e-08
1.12988e-05
3.47991e-07
-3.91355e-07
1.13381e-05
6.94958e-07
-7.34191e-07
1.13723e-05
1.02736e-06
-1.06158e-06
1.14007e-05
1.34079e-06
-1.36921e-06
1.14227e-05
1.63159e-06
-1.65353e-06
1.14376e-05
1.89694e-06
-1.91192e-06
1.14453e-05
2.13493e-06
-2.14264e-06
1.14457e-05
2.34447e-06
-2.34478e-06
1.14386e-05
2.52527e-06
-2.51822e-06
1.14244e-05
2.67771e-06
-2.66346e-06
1.14032e-05
2.80274e-06
-2.78155e-06
1.13753e-05
2.9018e-06
-2.87397e-06
1.13411e-05
2.97661e-06
-2.94238e-06
1.13004e-05
3.02902e-06
-2.98829e-06
1.12526e-05
3.06043e-06
-3.01266e-06
1.11975e-05
3.07161e-06
-3.01655e-06
1.11359e-05
3.06429e-06
-3.00263e-06
1.10682e-05
3.04122e-06
-2.97355e-06
1.09952e-05
3.00449e-06
-2.9315e-06
1.09178e-05
2.95561e-06
-2.87814e-06
1.08368e-05
2.89541e-06
-2.81448e-06
1.07536e-05
2.82405e-06
-2.74081e-06
1.06693e-05
2.74108e-06
-2.65679e-06
1.05853e-05
2.6455e-06
-2.56147e-06
1.05028e-05
2.53597e-06
-2.45349e-06
1.04231e-05
2.41098e-06
-2.33132e-06
1.03475e-05
2.26906e-06
-2.19343e-06
1.02771e-05
2.10897e-06
-2.03854e-06
1.02129e-05
1.92988e-06
-1.86574e-06
1.01561e-05
1.73146e-06
-1.67468e-06
1.01077e-05
1.51406e-06
-1.46557e-06
1.00682e-05
1.27873e-06
-1.23929e-06
1.00384e-05
1.02722e-06
-9.97424e-07
7.61911e-07
-7.42179e-07
8.88142e-06
-1.11282e-06
8.96693e-06
-1.51553e-06
9.06357e-06
-1.8886e-06
9.16802e-06
-2.2281e-06
9.27702e-06
-2.53171e-06
9.38749e-06
-2.79874e-06
9.49662e-06
-3.02997e-06
9.60204e-06
-3.22732e-06
9.70178e-06
-3.39356e-06
9.79438e-06
-3.53194e-06
9.8788e-06
-3.64598e-06
9.95445e-06
-3.73882e-06
1.00211e-05
-3.81329e-06
1.00788e-05
-3.87146e-06
1.01275e-05
-3.91497e-06
1.01679e-05
-3.94508e-06
1.02006e-05
-3.96273e-06
1.02283e-05
-3.96766e-06
1.02514e-05
-3.95212e-06
1.02698e-05
-3.91114e-06
1.02853e-05
-3.84441e-06
1.02989e-05
-3.74847e-06
1.03119e-05
-3.61972e-06
1.03253e-05
-3.45486e-06
1.03399e-05
-3.25114e-06
1.03567e-05
-3.00669e-06
1.03762e-05
-2.72077e-06
1.03992e-05
-2.394e-06
1.04258e-05
-2.02862e-06
1.04563e-05
-1.62857e-06
1.04907e-05
-1.19961e-06
1.05287e-05
-7.49332e-07
1.05694e-05
-2.87507e-07
1.06112e-05
1.73163e-07
1.06528e-05
6.22882e-07
1.06927e-05
1.0536e-06
1.07294e-05
1.45827e-06
1.07615e-05
1.83121e-06
1.07879e-05
2.1683e-06
1.08076e-05
2.46707e-06
1.08201e-05
2.72661e-06
1.08249e-05
2.94733e-06
1.0822e-05
3.13079e-06
1.08113e-05
3.27938e-06
1.0793e-05
3.39606e-06
1.07673e-05
3.48415e-06
1.0734e-05
3.54697e-06
1.06928e-05
3.58746e-06
1.06429e-05
3.60777e-06
1.05851e-05
3.60995e-06
1.05199e-05
3.59707e-06
1.04481e-05
3.57114e-06
1.03706e-05
3.53293e-06
1.02884e-05
3.4822e-06
1.02028e-05
3.41797e-06
1.0115e-05
3.33871e-06
1.00264e-05
3.24243e-06
9.93827e-06
3.12691e-06
9.85202e-06
2.9899e-06
9.76914e-06
2.82939e-06
9.69116e-06
2.64369e-06
9.61972e-06
2.43165e-06
9.55649e-06
2.19285e-06
9.503e-06
1.92774e-06
9.46062e-06
1.63775e-06
9.43045e-06
1.32532e-06
9.41326e-06
9.93888e-07
9.40947e-06
6.47749e-07
9.41907e-06
2.92092e-07
9.44141e-06
-6.68839e-08
9.47544e-06
-4.22492e-07
9.51993e-06
-7.69798e-07
9.57339e-06
-1.10421e-06
9.63417e-06
-1.42164e-06
9.70048e-06
-1.71852e-06
9.77061e-06
-1.99232e-06
9.84283e-06
-2.24117e-06
9.91554e-06
-2.46399e-06
9.98734e-06
-2.66055e-06
1.00571e-05
-2.83117e-06
1.01237e-05
-2.97657e-06
1.01864e-05
-3.09794e-06
1.02447e-05
-3.19671e-06
1.0298e-05
-3.27431e-06
1.03459e-05
-3.33238e-06
1.03883e-05
-3.37269e-06
1.04258e-05
-3.39712e-06
1.04596e-05
-3.40631e-06
1.04899e-05
-3.39676e-06
1.05171e-05
-3.36684e-06
1.0542e-05
-3.31668e-06
1.05658e-05
-3.24541e-06
1.05893e-05
-3.15152e-06
1.06134e-05
-3.03329e-06
1.06388e-05
-2.88903e-06
1.06659e-05
-2.71735e-06
1.06952e-05
-2.51734e-06
1.07269e-05
-2.28877e-06
1.07612e-05
-2.03221e-06
1.07979e-05
-1.7491e-06
1.08369e-05
-1.44182e-06
1.08778e-05
-1.11366e-06
1.09204e-05
-7.68873e-07
1.09639e-05
-4.12696e-07
1.10073e-05
-5.19033e-08
1.10496e-05
3.05721e-07
1.10898e-05
6.54745e-07
1.1127e-05
9.90167e-07
1.11602e-05
1.30753e-06
1.11888e-05
1.60308e-06
1.12118e-05
1.87389e-06
1.12289e-05
2.11786e-06
1.12396e-05
2.33376e-06
1.12437e-05
2.52112e-06
1.12413e-05
2.68019e-06
1.12322e-05
2.8118e-06
1.12167e-05
2.9173e-06
1.1195e-05
2.99833e-06
1.11671e-05
3.05686e-06
1.11328e-05
3.09477e-06
1.10912e-05
3.11322e-06
1.10426e-05
3.1129e-06
1.09877e-05
3.09611e-06
1.09272e-05
3.06498e-06
1.0862e-05
3.02078e-06
1.07933e-05
2.96417e-06
1.07221e-05
2.89522e-06
1.06498e-05
2.81343e-06
1.05775e-05
2.71779e-06
1.05064e-05
2.60698e-06
1.04379e-05
2.47954e-06
1.03729e-05
2.334e-06
1.03128e-05
2.16915e-06
1.02585e-05
1.98418e-06
1.0211e-05
1.77889e-06
1.01713e-05
1.55378e-06
1.014e-05
1.31006e-06
1.01176e-05
1.04962e-06
7.75026e-07
8.99187e-06
-1.18424e-06
9.07611e-06
-1.59976e-06
9.16993e-06
-1.98242e-06
9.27004e-06
-2.32822e-06
9.37326e-06
-2.63493e-06
9.47655e-06
-2.90203e-06
9.57719e-06
-3.13061e-06
9.6729e-06
-3.32303e-06
9.76178e-06
-3.48245e-06
9.84243e-06
-3.61258e-06
9.91384e-06
-3.71739e-06
9.97562e-06
-3.8006e-06
1.00276e-05
-3.86529e-06
1.00699e-05
-3.91373e-06
1.01027e-05
-3.94778e-06
1.01265e-05
-3.96889e-06
1.01421e-05
-3.97836e-06
1.01513e-05
-3.97677e-06
1.01538e-05
-3.95469e-06
1.01518e-05
-3.90908e-06
1.01466e-05
-3.83922e-06
1.01395e-05
-3.74138e-06
1.01317e-05
-3.61191e-06
1.01243e-05
-3.44752e-06
1.01187e-05
-3.24548e-06
1.01159e-05
-3.0039e-06
1.0117e-05
-2.72193e-06
1.01231e-05
-2.40008e-06
1.01349e-05
-2.04038e-06
1.01529e-05
-1.64657e-06
1.01774e-05
-1.22414e-06
1.02084e-05
-7.80342e-07
1.02452e-05
-3.24263e-07
1.02862e-05
1.32097e-07
1.03302e-05
5.78925e-07
1.03754e-05
1.00839e-06
1.04202e-05
1.41351e-06
1.04628e-05
1.78855e-06
1.05019e-05
2.12925e-06
1.0536e-05
2.43293e-06
1.05642e-05
2.69842e-06
1.05857e-05
2.92588e-06
1.05998e-05
3.11661e-06
1.06064e-05
3.2728e-06
1.06052e-05
3.39724e-06
1.05963e-05
3.49308e-06
1.05797e-05
3.56362e-06
1.05551e-05
3.61206e-06
1.05219e-05
3.64098e-06
1.04798e-05
3.65206e-06
1.04297e-05
3.64717e-06
1.03724e-05
3.62842e-06
1.03089e-05
3.59636e-06
1.02406e-05
3.5505e-06
1.01687e-05
3.48992e-06
1.00943e-05
3.41315e-06
1.00185e-05
3.31816e-06
9.94278e-06
3.20265e-06
9.8684e-06
3.06427e-06
9.79694e-06
2.90085e-06
9.73004e-06
2.71059e-06
9.66936e-06
2.49233e-06
9.61649e-06
2.24573e-06
9.57284e-06
1.97138e-06
9.53966e-06
1.67093e-06
9.51794e-06
1.34704e-06
9.50838e-06
1.00345e-06
9.51131e-06
6.44819e-07
9.52658e-06
2.76818e-07
9.55337e-06
-9.36729e-08
9.5906e-06
-4.59718e-07
9.63695e-06
-8.16154e-07
9.6909e-06
-1.15816e-06
9.75075e-06
-1.48149e-06
9.81476e-06
-1.78253e-06
9.88122e-06
-2.05879e-06
9.94845e-06
-2.3084e-06
1.00149e-05
-2.53046e-06
1.00793e-05
-2.72495e-06
1.01405e-05
-2.89238e-06
1.01977e-05
-3.0337e-06
1.02502e-05
-3.15044e-06
1.02975e-05
-3.24408e-06
1.03394e-05
-3.31619e-06
1.03754e-05
-3.36842e-06
1.04053e-05
-3.40259e-06
1.04294e-05
-3.42115e-06
1.04491e-05
-3.426e-06
1.04645e-05
-3.41223e-06
1.04759e-05
-3.37821e-06
1.04847e-05
-3.32543e-06
1.0492e-05
-3.25273e-06
1.04989e-05
-3.15846e-06
1.05064e-05
-3.04078e-06
1.05153e-05
-2.89792e-06
1.05263e-05
-2.72836e-06
1.05401e-05
-2.53107e-06
1.0557e-05
-2.30569e-06
1.05774e-05
-2.05262e-06
1.06015e-05
-1.77318e-06
1.06292e-05
-1.46959e-06
1.06606e-05
-1.14504e-06
1.06953e-05
-8.03603e-07
1.07329e-05
-4.50295e-07
1.07725e-05
-9.14546e-08
1.0813e-05
2.65254e-07
1.08534e-05
6.14306e-07
1.08928e-05
9.50773e-07
1.09301e-05
1.2702e-06
1.09644e-05
1.56877e-06
1.09949e-05
1.84346e-06
1.10206e-05
2.09207e-06
1.10412e-05
2.31319e-06
1.10561e-05
2.50621e-06
1.10651e-05
2.67123e-06
1.10679e-05
2.80897e-06
1.10646e-05
2.92063e-06
1.10552e-05
3.00773e-06
1.10399e-05
3.07217e-06
1.10186e-05
3.11605e-06
1.09907e-05
3.14111e-06
1.09555e-05
3.1481e-06
1.09137e-05
3.13798e-06
1.08659e-05
3.11271e-06
1.08134e-05
3.07327e-06
1.07574e-05
3.02024e-06
1.06989e-05
2.9537e-06
1.06391e-05
2.87316e-06
1.05793e-05
2.77766e-06
1.05204e-05
2.66589e-06
1.04636e-05
2.53633e-06
1.04101e-05
2.38752e-06
1.0361e-05
2.21825e-06
1.03173e-05
2.02783e-06
1.028e-05
1.81621e-06
1.02497e-05
1.58403e-06
1.02272e-05
1.33265e-06
1.02127e-05
1.0641e-06
7.81102e-07
9.14582e-06
-1.25432e-06
9.22689e-06
-1.68083e-06
9.31574e-06
-2.07127e-06
9.40918e-06
-2.42166e-06
9.50413e-06
-2.72988e-06
9.59773e-06
-2.99563e-06
9.68748e-06
-3.22036e-06
9.77128e-06
-3.40683e-06
9.84737e-06
-3.55854e-06
9.91443e-06
-3.67965e-06
9.97157e-06
-3.77453e-06
1.00184e-05
-3.84747e-06
1.0055e-05
-3.90183e-06
1.00813e-05
-3.94004e-06
1.00977e-05
-3.96421e-06
1.01054e-05
-3.97653e-06
1.01048e-05
-3.97784e-06
1.0095e-05
-3.96695e-06
1.00777e-05
-3.93737e-06
1.00562e-05
-3.88754e-06
1.00315e-05
-3.81452e-06
1.00048e-05
-3.71468e-06
9.97732e-06
-3.58446e-06
9.9505e-06
-3.4207e-06
9.92575e-06
-3.22073e-06
9.90454e-06
-2.98269e-06
9.88829e-06
-2.70568e-06
9.87831e-06
-2.39009e-06
9.87573e-06
-2.03779e-06
9.88143e-06
-1.65228e-06
9.89601e-06
-1.23872e-06
9.91959e-06
-8.03922e-07
9.95172e-06
-3.56391e-07
9.991e-06
9.28094e-08
1.0036e-05
5.33907e-07
1.00851e-05
9.59348e-07
1.01362e-05
1.36232e-06
1.01877e-05
1.73709e-06
1.02377e-05
2.07931e-06
1.02845e-05
2.38613e-06
1.03267e-05
2.65616e-06
1.03633e-05
2.8893e-06
1.03933e-05
3.08659e-06
1.04161e-05
3.24999e-06
1.04313e-05
3.38206e-06
1.04385e-05
3.48582e-06
1.04379e-05
3.56431e-06
1.04293e-05
3.62064e-06
1.04126e-05
3.65771e-06
1.03871e-05
3.67755e-06
1.03529e-05
3.68131e-06
1.0311e-05
3.67031e-06
1.02626e-05
3.64478e-06
1.02091e-05
3.60398e-06
1.01517e-05
3.54736e-06
1.00913e-05
3.47351e-06
1.00292e-05
3.38029e-06
9.96666e-06
3.2652e-06
9.90524e-06
3.1257e-06
9.84653e-06
2.95955e-06
9.79214e-06
2.76499e-06
9.74357e-06
2.54089e-06
9.70227e-06
2.28704e-06
9.66951e-06
2.00414e-06
9.64643e-06
1.69401e-06
9.6339e-06
1.35957e-06
9.6325e-06
1.00485e-06
9.64243e-06
6.34896e-07
9.66342e-06
2.55821e-07
9.69447e-06
-1.24721e-07
9.73446e-06
-4.99707e-07
9.78203e-06
-8.63722e-07
9.83562e-06
-1.21176e-06
9.89355e-06
-1.53941e-06
9.95414e-06
-1.84312e-06
1.00157e-05
-2.12036e-06
1.00767e-05
-2.36938e-06
1.01357e-05
-2.58945e-06
1.01915e-05
-2.78071e-06
1.0243e-05
-2.94388e-06
1.02894e-05
-3.08018e-06
1.03304e-05
-3.19141e-06
1.03655e-05
-3.27918e-06
1.03947e-05
-3.34537e-06
1.04179e-05
-3.39169e-06
1.04353e-05
-3.41997e-06
1.04468e-05
-3.43267e-06
1.04534e-05
-3.43257e-06
1.0454e-05
-3.4128e-06
1.04499e-05
-3.3741e-06
1.04427e-05
-3.3183e-06
1.04339e-05
-3.24391e-06
1.04246e-05
-3.14915e-06
1.04159e-05
-3.03206e-06
1.04087e-05
-2.89075e-06
1.0404e-05
-2.72362e-06
1.04025e-05
-2.52955e-06
1.04048e-05
-2.30803e-06
1.04115e-05
-2.05936e-06
1.04231e-05
-1.7847e-06
1.04396e-05
-1.48614e-06
1.04612e-05
-1.16667e-06
1.04879e-05
-8.30217e-07
1.05191e-05
-4.81571e-07
1.05543e-05
-1.26621e-07
1.05923e-05
2.27217e-07
1.06323e-05
5.74355e-07
1.06731e-05
9.09966e-07
1.07137e-05
1.22963e-06
1.07529e-05
1.52951e-06
1.07899e-05
1.80653e-06
1.08235e-05
2.05838e-06
1.08532e-05
2.28356e-06
1.08781e-05
2.48126e-06
1.08979e-05
2.65145e-06
1.09121e-05
2.79479e-06
1.09204e-05
2.91226e-06
1.09229e-05
3.00523e-06
1.09196e-05
3.07548e-06
1.09107e-05
3.12503e-06
1.08959e-05
3.15588e-06
1.08748e-05
3.16921e-06
1.08466e-05
3.16615e-06
1.08122e-05
3.14715e-06
1.0773e-05
3.11247e-06
1.07302e-05
3.06297e-06
1.06851e-05
2.99885e-06
1.06385e-05
2.91971e-06
1.05916e-05
2.82461e-06
1.05453e-05
2.71213e-06
1.0501e-05
2.58069e-06
1.04597e-05
2.42882e-06
1.04225e-05
2.25546e-06
1.03902e-05
2.06007e-06
1.03637e-05
1.84272e-06
1.03435e-05
1.60419e-06
1.03302e-05
1.34595e-06
1.03241e-05
1.07019e-06
7.79791e-07
9.34552e-06
9.42133e-06
9.50284e-06
9.58701e-06
9.67096e-06
9.75215e-06
9.82835e-06
9.89767e-06
9.95859e-06
1.00099e-05
1.00509e-05
1.00812e-05
1.0101e-05
1.01112e-05
1.01123e-05
1.01042e-05
1.00862e-05
1.00581e-05
1.00236e-05
9.98414e-06
9.94123e-06
9.89622e-06
9.85056e-06
9.80576e-06
9.76343e-06
9.72525e-06
9.69289e-06
9.66796e-06
9.65191e-06
9.6459e-06
9.65075e-06
9.66683e-06
9.69388e-06
9.73064e-06
9.77568e-06
9.82727e-06
9.88345e-06
9.94218e-06
1.00015e-05
1.00594e-05
1.01143e-05
1.01647e-05
1.02093e-05
1.02473e-05
1.02779e-05
1.03006e-05
1.0315e-05
1.03211e-05
1.03193e-05
1.03099e-05
1.02924e-05
1.02667e-05
1.02336e-05
1.01954e-05
1.01528e-05
1.0107e-05
1.00592e-05
1.00111e-05
9.96403e-06
9.91951e-06
9.87895e-06
9.84372e-06
9.8151e-06
9.79424e-06
9.78209e-06
9.77939e-06
9.78657e-06
9.80366e-06
9.83027e-06
9.86524e-06
9.90744e-06
9.95547e-06
1.00078e-05
1.00627e-05
1.01187e-05
1.01742e-05
1.02278e-05
1.02782e-05
1.03243e-05
1.03653e-05
1.04005e-05
1.04293e-05
1.04517e-05
1.04676e-05
1.04776e-05
1.04821e-05
1.04808e-05
1.04721e-05
1.04573e-05
1.04383e-05
1.0416e-05
1.03918e-05
1.03669e-05
1.03425e-05
1.03198e-05
1.02999e-05
1.02836e-05
1.02718e-05
1.02652e-05
1.02645e-05
1.02699e-05
1.02818e-05
1.03002e-05
1.03248e-05
1.03552e-05
1.03902e-05
1.0429e-05
1.04704e-05
1.05134e-05
1.05567e-05
1.05993e-05
1.064e-05
1.06779e-05
1.07122e-05
1.07422e-05
1.07672e-05
1.0787e-05
1.08011e-05
1.08096e-05
1.08127e-05
1.08106e-05
1.08034e-05
1.07896e-05
1.0768e-05
1.07422e-05
1.07131e-05
1.06816e-05
1.06485e-05
1.06149e-05
1.05819e-05
1.05508e-05
1.05224e-05
1.04978e-05
1.04776e-05
1.04625e-05
1.0453e-05
1.04494e-05
1.0452e-05
7.7083e-07
1.55672e-06
-5.48214e-08
1.60375e-06
-4.70224e-08
1.64281e-06
-3.90652e-08
1.67389e-06
-3.1077e-08
1.69703e-06
-2.31439e-08
1.71238e-06
-1.53459e-08
1.71962e-06
-7.24586e-09
1.71861e-06
1.01198e-09
1.71074e-06
7.87634e-09
1.69588e-06
1.48565e-08
1.67424e-06
2.16439e-08
1.64607e-06
2.81683e-08
1.61205e-06
3.40173e-08
1.5738e-06
3.82473e-08
1.53281e-06
4.09959e-08
1.49028e-06
4.25224e-08
1.44763e-06
4.26586e-08
1.40641e-06
4.12159e-08
1.36827e-06
3.81419e-08
1.33461e-06
3.36596e-08
1.30645e-06
2.81576e-08
1.28438e-06
2.20763e-08
1.26858e-06
1.58e-08
1.25895e-06
9.62606e-09
1.25524e-06
3.7062e-09
1.25618e-06
-9.35937e-10
1.26085e-06
-4.67534e-09
1.26833e-06
-7.47934e-09
1.27751e-06
-9.17686e-09
1.28734e-06
-9.82831e-09
1.29683e-06
-9.48932e-09
1.30524e-06
-8.40903e-09
1.31219e-06
-6.95114e-09
1.31754e-06
-5.34784e-09
1.32113e-06
-3.59429e-09
1.32269e-06
-1.5552e-09
1.32209e-06
5.96153e-10
1.31954e-06
2.55201e-09
1.31509e-06
4.45136e-09
1.3091e-06
5.98891e-09
1.30169e-06
7.40686e-09
1.29304e-06
8.65325e-09
1.28346e-06
9.57609e-09
1.27349e-06
9.96632e-09
1.26357e-06
9.9229e-09
1.25416e-06
9.41431e-09
1.24575e-06
8.41096e-09
1.23854e-06
7.2039e-09
1.23251e-06
6.03064e-09
1.22758e-06
4.93386e-09
1.22377e-06
3.81133e-09
1.22117e-06
2.59336e-09
1.21999e-06
1.18012e-09
1.2203e-06
-3.07613e-10
1.22196e-06
-1.65553e-09
1.225e-06
-3.04742e-09
1.22945e-06
-4.44663e-09
1.23532e-06
-5.87128e-09
1.24259e-06
-7.26974e-09
1.2512e-06
-8.61085e-09
1.26108e-06
-9.8729e-09
1.27202e-06
-1.09489e-08
1.28365e-06
-1.16309e-08
1.29567e-06
-1.20151e-08
1.30784e-06
-1.21678e-08
1.31993e-06
-1.20971e-08
1.33177e-06
-1.18367e-08
1.34321e-06
-1.14341e-08
1.35412e-06
-1.09136e-08
1.36444e-06
-1.03161e-08
1.37408e-06
-9.64237e-09
1.38297e-06
-8.89284e-09
1.39106e-06
-8.08711e-09
1.39833e-06
-7.27423e-09
1.4049e-06
-6.56581e-09
1.41088e-06
-5.98204e-09
1.41636e-06
-5.48097e-09
1.42138e-06
-5.01666e-09
1.42589e-06
-4.51732e-09
1.42982e-06
-3.92063e-09
1.43304e-06
-3.22735e-09
1.43553e-06
-2.48992e-09
1.43727e-06
-1.73524e-09
1.43815e-06
-8.83833e-10
1.438e-06
1.5077e-10
1.43672e-06
1.27943e-09
1.4342e-06
2.52463e-09
1.4303e-06
3.90007e-09
1.42497e-06
5.33167e-09
1.41832e-06
6.64826e-09
1.41049e-06
7.83186e-09
1.40159e-06
8.89929e-09
1.39172e-06
9.86617e-09
1.38097e-06
1.07484e-08
1.36943e-06
1.15385e-08
1.35722e-06
1.22123e-08
1.34447e-06
1.27543e-08
1.33131e-06
1.31593e-08
1.31789e-06
1.34215e-08
1.30436e-06
1.35241e-08
1.29091e-06
1.3452e-08
1.27771e-06
1.32042e-08
1.26493e-06
1.27761e-08
1.25276e-06
1.21712e-08
1.24136e-06
1.13949e-08
1.23091e-06
1.04556e-08
1.22153e-06
9.3789e-09
1.21334e-06
8.18467e-09
1.20644e-06
6.90027e-09
1.20087e-06
5.57044e-09
1.19666e-06
4.21364e-09
1.19379e-06
2.86745e-09
1.19221e-06
1.58669e-09
1.19182e-06
3.80583e-10
1.19244e-06
-6.20405e-10
1.19398e-06
-1.53272e-09
1.19625e-06
-2.27101e-09
1.19908e-06
-2.82877e-09
1.20228e-06
-3.20719e-09
1.2057e-06
-3.41596e-09
1.20917e-06
-3.47092e-09
1.21257e-06
-3.3945e-09
1.21578e-06
-3.21078e-09
1.21872e-06
-2.94172e-09
1.22133e-06
-2.61106e-09
1.22358e-06
-2.2479e-09
1.22546e-06
-1.88754e-09
1.22703e-06
-1.56214e-09
1.22832e-06
-1.29372e-09
1.22942e-06
-1.10206e-09
1.23042e-06
-9.93076e-10
1.23138e-06
-9.66802e-10
1.23242e-06
-1.03358e-09
1.23362e-06
-1.20221e-09
1.23509e-06
-1.47153e-09
1.23692e-06
-1.82703e-09
1.23917e-06
-2.25376e-09
1.24191e-06
-2.73503e-09
-3.25687e-09
4.04003e-06
-1.18667e-07
4.09385e-06
-1.00838e-07
4.13735e-06
-8.25663e-08
4.1704e-06
-6.41295e-08
4.19316e-06
-4.59073e-08
4.20594e-06
-2.81287e-08
4.20925e-06
-1.05503e-08
4.20202e-06
8.23753e-09
4.18405e-06
2.5846e-08
4.15671e-06
4.22048e-08
4.12123e-06
5.71231e-08
4.07846e-06
7.09333e-08
4.02933e-06
8.3146e-08
3.97742e-06
9.01596e-08
3.92501e-06
9.34114e-08
3.87292e-06
9.46068e-08
3.82226e-06
9.3318e-08
3.77473e-06
8.87475e-08
3.73238e-06
8.0495e-08
3.6968e-06
6.92377e-08
3.669e-06
5.59513e-08
3.64947e-06
4.16088e-08
3.63816e-06
2.7109e-08
3.63487e-06
1.29175e-08
3.63874e-06
-1.64426e-10
3.64907e-06
-1.12596e-08
3.66456e-06
-2.01714e-08
3.68364e-06
-2.65559e-08
3.70456e-06
-3.00951e-08
3.72566e-06
-3.09273e-08
3.7457e-06
-2.95378e-08
3.76384e-06
-2.654e-08
3.77935e-06
-2.24685e-08
3.79174e-06
-1.77387e-08
3.80036e-06
-1.22121e-08
3.80482e-06
-6.00877e-09
3.80556e-06
-1.47968e-10
3.80223e-06
5.87921e-09
3.79568e-06
1.10079e-08
3.78606e-06
1.56043e-08
3.7738e-06
1.96622e-08
3.75934e-06
2.31142e-08
3.74323e-06
2.56884e-08
3.72666e-06
2.65339e-08
3.7104e-06
2.61912e-08
3.69511e-06
2.47e-08
3.68133e-06
2.21893e-08
3.66932e-06
1.92154e-08
3.65921e-06
1.61435e-08
3.65107e-06
1.30715e-08
3.645e-06
9.87951e-09
3.64109e-06
6.50814e-09
3.63913e-06
3.13474e-09
3.63911e-06
-2.85133e-10
3.64136e-06
-3.90878e-09
3.64575e-06
-7.4341e-09
3.65216e-06
-1.08547e-08
3.66042e-06
-1.4134e-08
3.67048e-06
-1.73275e-08
3.68225e-06
-2.03871e-08
3.69568e-06
-2.32976e-08
3.71054e-06
-2.58087e-08
3.72599e-06
-2.70853e-08
3.7416e-06
-2.76207e-08
3.75705e-06
-2.76209e-08
3.77207e-06
-2.71172e-08
3.78642e-06
-2.6186e-08
3.79988e-06
-2.48978e-08
3.81228e-06
-2.33125e-08
3.82347e-06
-2.14985e-08
3.83329e-06
-1.94697e-08
3.84164e-06
-1.72388e-08
3.8484e-06
-1.48486e-08
3.85356e-06
-1.24334e-08
3.85738e-06
-1.03871e-08
3.86012e-06
-8.7203e-09
3.86196e-06
-7.31687e-09
3.86301e-06
-6.06752e-09
3.8633e-06
-4.81122e-09
3.86281e-06
-3.43496e-09
3.86148e-06
-1.89707e-09
3.85927e-06
-2.7216e-10
3.85629e-06
1.2399e-09
3.85252e-06
2.89089e-09
3.84794e-06
4.72852e-09
3.84244e-06
6.77757e-09
3.83589e-06
9.07943e-09
3.82805e-06
1.17356e-08
3.81896e-06
1.4426e-08
3.80876e-06
1.6843e-08
3.79762e-06
1.89761e-08
3.78566e-06
2.08535e-08
3.773e-06
2.25289e-08
3.75968e-06
2.40683e-08
3.74576e-06
2.54579e-08
3.73135e-06
2.66267e-08
3.71657e-06
2.75343e-08
3.70154e-06
2.81816e-08
3.68641e-06
2.85579e-08
3.67131e-06
2.86229e-08
3.65641e-06
2.83471e-08
3.64189e-06
2.77272e-08
3.62791e-06
2.67594e-08
3.61464e-06
2.5442e-08
3.60225e-06
2.37853e-08
3.59089e-06
2.18097e-08
3.58072e-06
1.95557e-08
3.57183e-06
1.70692e-08
3.56433e-06
1.44055e-08
3.55825e-06
1.16503e-08
3.55361e-06
8.85291e-09
3.55038e-06
6.09253e-09
3.54851e-06
3.46241e-09
3.54788e-06
1.01114e-09
3.5484e-06
-1.14081e-09
3.54984e-06
-2.97513e-09
3.55202e-06
-4.45453e-09
3.55476e-06
-5.56254e-09
3.55785e-06
-6.30523e-09
3.56114e-06
-6.70258e-09
3.56445e-06
-6.78428e-09
3.56766e-06
-6.59993e-09
3.57065e-06
-6.20477e-09
3.57335e-06
-5.63962e-09
3.57568e-06
-4.94095e-09
3.57761e-06
-4.17362e-09
3.57914e-06
-3.4218e-09
3.58033e-06
-2.74858e-09
3.58123e-06
-2.19417e-09
3.58193e-06
-1.80426e-09
3.58252e-06
-1.5864e-09
3.58307e-06
-1.51807e-09
3.58367e-06
-1.62964e-09
3.58442e-06
-1.95068e-09
3.58543e-06
-2.4825e-09
3.58678e-06
-3.17668e-09
3.58853e-06
-4.00418e-09
3.59072e-06
-4.92626e-09
-5.91778e-09
6.2701e-06
-1.67456e-07
6.31091e-06
-1.41651e-07
6.344e-06
-1.15656e-07
6.3698e-06
-8.9931e-08
6.38874e-06
-6.48482e-08
6.40101e-06
-4.04015e-08
6.40644e-06
-1.59789e-08
6.40777e-06
6.90727e-09
6.4051e-06
2.85192e-08
6.3983e-06
4.9009e-08
6.38659e-06
6.883e-08
6.36924e-06
8.82811e-08
6.34596e-06
1.06426e-07
6.31636e-06
1.19764e-07
6.28026e-06
1.29507e-07
6.23801e-06
1.36862e-07
6.19056e-06
1.40762e-07
6.13939e-06
1.39921e-07
6.0864e-06
1.33479e-07
6.03382e-06
1.21822e-07
5.98365e-06
1.06119e-07
5.93751e-06
8.77488e-08
5.89655e-06
6.80756e-08
5.86158e-06
4.78808e-08
5.83335e-06
2.80655e-08
5.81208e-06
1.00087e-08
5.79777e-06
-5.85546e-09
5.78994e-06
-1.87287e-08
5.78823e-06
-2.83848e-08
5.79221e-06
-3.49028e-08
5.80072e-06
-3.80558e-08
5.81235e-06
-3.81685e-08
5.8262e-06
-3.63138e-08
5.84161e-06
-3.31522e-08
5.85816e-06
-2.87632e-08
5.87524e-06
-2.30862e-08
5.89156e-06
-1.64656e-08
5.90666e-06
-9.22386e-09
5.92002e-06
-2.3466e-09
5.93152e-06
4.10283e-09
5.94118e-06
9.99682e-09
5.9484e-06
1.58962e-08
5.95278e-06
2.13101e-08
5.95437e-06
2.49387e-08
5.9534e-06
2.71654e-08
5.94992e-06
2.81834e-08
5.94428e-06
2.78276e-08
5.93715e-06
2.63418e-08
5.92915e-06
2.41422e-08
5.92072e-06
2.15067e-08
5.91213e-06
1.84698e-08
5.90366e-06
1.49743e-08
5.89559e-06
1.12109e-08
5.88833e-06
6.9721e-09
5.88248e-06
1.94352e-09
5.87814e-06
-3.0962e-09
5.87541e-06
-8.12228e-09
5.87429e-06
-1.30176e-08
5.8749e-06
-1.79377e-08
5.87734e-06
-2.28322e-08
5.88156e-06
-2.75097e-08
5.8874e-06
-3.1649e-08
5.89479e-06
-3.44829e-08
5.90367e-06
-3.64936e-08
5.91382e-06
-3.77689e-08
5.92476e-06
-3.806e-08
5.93623e-06
-3.76607e-08
5.94806e-06
-3.67238e-08
5.96011e-06
-3.53619e-08
5.9722e-06
-3.35887e-08
5.98407e-06
-3.13398e-08
5.99536e-06
-2.85348e-08
6.00577e-06
-2.52518e-08
6.01524e-06
-2.19075e-08
6.02383e-06
-1.89764e-08
6.03151e-06
-1.63954e-08
6.03821e-06
-1.40169e-08
6.04383e-06
-1.16887e-08
6.04815e-06
-9.13397e-09
6.05104e-06
-6.32132e-09
6.05237e-06
-3.22555e-09
6.05187e-06
2.25058e-10
6.04939e-06
3.71968e-09
6.04506e-06
7.21772e-09
6.03888e-06
1.09104e-08
6.03066e-06
1.49979e-08
6.02016e-06
1.95739e-08
6.00737e-06
2.45257e-08
5.99255e-06
2.92541e-08
5.97601e-06
3.33758e-08
5.95818e-06
3.68115e-08
5.93948e-06
3.95527e-08
5.92027e-06
4.17431e-08
5.9007e-06
4.36345e-08
5.88094e-06
4.52194e-08
5.86121e-06
4.63529e-08
5.84175e-06
4.69984e-08
5.82269e-06
4.72347e-08
5.80416e-06
4.7091e-08
5.78629e-06
4.64896e-08
5.76925e-06
4.53925e-08
5.75316e-06
4.38207e-08
5.73813e-06
4.17807e-08
5.72431e-06
3.92672e-08
5.7118e-06
3.62954e-08
5.70071e-06
3.28991e-08
5.69113e-06
2.91361e-08
5.68311e-06
2.50862e-08
5.67667e-06
2.08431e-08
5.67181e-06
1.65137e-08
5.66847e-06
1.21978e-08
5.66657e-06
7.98394e-09
5.66603e-06
4.00686e-09
5.66665e-06
3.91878e-10
5.66823e-06
-2.72301e-09
5.67051e-06
-5.2513e-09
5.67329e-06
-7.23201e-09
5.67634e-06
-8.61458e-09
5.67947e-06
-9.43507e-09
5.6825e-06
-9.7329e-09
5.68527e-06
-9.55327e-09
5.68765e-06
-8.98581e-09
5.68958e-06
-8.12962e-09
5.69098e-06
-7.03884e-09
5.69176e-06
-5.72696e-09
5.6919e-06
-4.31226e-09
5.69146e-06
-2.97966e-09
5.69054e-06
-1.83045e-09
5.68925e-06
-9.06138e-10
5.6877e-06
-2.53641e-10
5.68608e-06
3.52354e-11
5.68445e-06
1.16059e-10
5.68291e-06
-9.5649e-11
5.68159e-06
-6.30485e-10
5.68064e-06
-1.53101e-09
5.68015e-06
-2.6853e-09
5.6802e-06
-4.05291e-09
5.68084e-06
-5.56615e-09
-7.18218e-09
8.27021e-06
-2.13369e-07
8.31204e-06
-1.83478e-07
8.34865e-06
-1.52267e-07
8.37909e-06
-1.20372e-07
8.40273e-06
-8.84877e-08
8.41956e-06
-5.72362e-08
8.43074e-06
-2.71523e-08
8.43584e-06
1.80278e-09
8.43478e-06
2.9579e-08
8.4279e-06
5.58918e-08
8.41625e-06
8.04747e-08
8.40193e-06
1.02606e-07
8.38701e-06
1.21339e-07
8.37034e-06
1.36434e-07
8.35125e-06
1.48606e-07
8.32986e-06
1.58244e-07
8.30707e-06
1.63553e-07
8.28296e-06
1.64037e-07
8.2563e-06
1.60138e-07
8.2256e-06
1.52516e-07
8.18905e-06
1.42677e-07
8.14591e-06
1.30887e-07
8.0958e-06
1.18182e-07
8.0397e-06
1.03984e-07
7.97951e-06
8.82542e-08
7.9171e-06
7.2415e-08
7.85407e-06
5.71815e-08
7.79269e-06
4.26449e-08
7.73537e-06
2.89369e-08
7.68365e-06
1.68146e-08
7.63815e-06
7.44626e-09
7.59907e-06
9.1656e-10
7.56689e-06
-4.13881e-09
7.5417e-06
-7.96264e-09
7.5235e-06
-1.05615e-08
7.51233e-06
-1.1912e-08
7.50791e-06
-1.20516e-08
7.51e-06
-1.1317e-08
7.51802e-06
-1.03591e-08
7.53121e-06
-9.08939e-09
7.54887e-06
-7.66353e-09
7.57031e-06
-5.545e-09
7.59471e-06
-3.08633e-09
7.62037e-06
-7.20759e-10
7.64612e-06
1.41247e-09
7.67117e-06
3.1306e-09
7.69485e-06
4.14795e-09
7.71662e-06
4.57097e-09
7.73612e-06
4.64663e-09
7.75324e-06
4.38576e-09
7.76798e-06
3.73069e-09
7.78032e-06
2.62786e-09
7.79045e-06
1.08689e-09
7.79845e-06
-1.0284e-09
7.80475e-06
-4.35414e-09
7.80951e-06
-7.85962e-09
7.8131e-06
-1.17143e-08
7.81602e-06
-1.59336e-08
7.81863e-06
-2.05497e-08
7.82123e-06
-2.54332e-08
7.82398e-06
-3.02563e-08
7.82702e-06
-3.46877e-08
7.83102e-06
-3.84873e-08
7.83615e-06
-4.16241e-08
7.84233e-06
-4.39498e-08
7.84932e-06
-4.50491e-08
7.85679e-06
-4.51327e-08
7.86449e-06
-4.44183e-08
7.87216e-06
-4.30292e-08
7.87949e-06
-4.0927e-08
7.88617e-06
-3.80192e-08
7.89191e-06
-3.4273e-08
7.89683e-06
-3.01685e-08
7.90133e-06
-2.64114e-08
7.90548e-06
-2.31227e-08
7.90926e-06
-2.01744e-08
7.91256e-06
-1.73239e-08
7.91524e-06
-1.4362e-08
7.91713e-06
-1.10296e-08
7.91812e-06
-7.30717e-09
7.91798e-06
-3.08975e-09
7.91675e-06
1.46044e-09
7.91433e-06
6.13972e-09
7.91084e-06
1.07099e-08
7.90608e-06
1.56666e-08
7.89953e-06
2.15494e-08
7.89031e-06
2.87903e-08
7.87812e-06