/*--------------------------------*- C++ -*----------------------------------*\
| =========                 |                                                 |
| \\      /  F ield         | OpenFOAM: The Open Source CFD Toolbox           |
|  \\    /   O peration     | Version:  2206                                  |
|   \\  /    A nd           | Website:  www.openfoam.com                      |
|    \\/     M anipulation  |                                                 |
\*---------------------------------------------------------------------------*/
FoamFile
{
    version     2.0;
    format      ascii;
    arch        "LSB;label=32;scalar=64";
    class       volScalarField;
    location    "18.2001";
    object      p;
}
// * * * * * * * * * * * * * * * * * * * * * * * * * * * * * * * * * * * * * //

dimensions      [0 2 -2 0 0 0 0];

internalField   nonuniform List<scalar> 
3080
(
0.794387
0.794282
0.794009
0.793578
0.793012
0.792321
0.791508
0.790576
0.789533
0.788387
0.787145
0.785815
0.784403
0.782916
0.78136
0.779742
0.778067
0.77634
0.774568
0.772754
0.770903
0.769021
0.767111
0.765178
0.763225
0.761258
0.75928
0.757295
0.755307
0.75332
0.75134
0.749369
0.747411
0.745471
0.743553
0.741661
0.739799
0.737972
0.736183
0.734437
0.732739
0.731091
0.7295
0.727968
0.7265
0.725101
0.723774
0.722525
0.721357
0.720276
0.719286
0.718393
0.717602
0.716918
0.716348
0.715898
0.715576
0.715392
0.715359
0.715485
0.71578
0.716256
0.716929
0.717814
0.71893
0.720296
0.721936
0.723874
0.726139
0.728763
0.731782
0.735235
0.739167
0.743628
0.748674
0.754366
0.760774
0.767974
0.77605
0.785094
0.795204
0.806489
0.819058
0.833026
0.848502
0.865583
0.884336
0.90478
0.926843
0.950309
0.974721
0.999222
1.02234
1.04139
1.05215
1.04499
1.0079
0.880809
0.629842
-0.356473
0.795211
0.795101
0.794815
0.794364
0.793773
0.793053
0.792207
0.79124
0.79016
0.788976
0.787696
0.786328
0.784879
0.783356
0.781766
0.780114
0.778407
0.77665
0.774849
0.773007
0.77113
0.769222
0.767287
0.76533
0.763355
0.761365
0.759365
0.757358
0.755349
0.753343
0.751342
0.749351
0.747373
0.745414
0.743477
0.741567
0.739687
0.737842
0.736036
0.734273
0.732558
0.730894
0.729287
0.72774
0.726257
0.724842
0.7235
0.722235
0.72105
0.719952
0.718943
0.71803
0.717216
0.716507
0.715909
0.715428
0.715071
0.714848
0.714769
0.714841
0.715073
0.715477
0.716067
0.716856
0.71786
0.719097
0.720588
0.722354
0.724419
0.726812
0.729562
0.732704
0.736274
0.740313
0.744867
0.749986
0.755721
0.762132
0.76928
0.777228
0.786042
0.795786
0.806519
0.81829
0.831126
0.845019
0.859909
0.875646
0.891946
0.908314
0.92393
0.937445
0.94672
0.948069
0.935867
0.898276
0.820391
0.656171
0.380205
-0.0912062
0.796185
0.796068
0.795767
0.795291
0.794668
0.793911
0.793025
0.792014
0.790889
0.789659
0.788334
0.78692
0.785427
0.783862
0.78223
0.78054
0.778795
0.777002
0.775167
0.773292
0.771384
0.769446
0.767483
0.765498
0.763495
0.761479
0.759453
0.757421
0.755387
0.753356
0.75133
0.749315
0.747314
0.745332
0.743372
0.741438
0.739536
0.737669
0.735842
0.734058
0.732322
0.730639
0.729012
0.727445
0.725942
0.724508
0.723146
0.721861
0.720656
0.719535
0.718503
0.717564
0.716722
0.715983
0.715351
0.714832
0.714432
0.714161
0.714026
0.714033
0.714191
0.71451
0.715001
0.715677
0.716551
0.717639
0.718957
0.720524
0.72236
0.724488
0.726932
0.72972
0.732881
0.736446
0.74045
0.744929
0.749919
0.75546
0.76159
0.768345
0.775756
0.783847
0.792624
0.802075
0.812151
0.822752
0.8337
0.844705
0.855309
0.864805
0.872117
0.875609
0.872818
0.8599
0.831251
0.777689
0.687842
0.544685
0.332739
0.0887996
0.797317
0.797193
0.796871
0.796365
0.795703
0.794901
0.793965
0.792902
0.791722
0.790438
0.789058
0.787591
0.786047
0.784431
0.782753
0.781016
0.779229
0.777395
0.77552
0.773609
0.771665
0.769693
0.767696
0.765679
0.763646
0.761599
0.759543
0.757482
0.755419
0.753359
0.751305
0.749262
0.747233
0.745223
0.743235
0.741275
0.739347
0.737454
0.735601
0.733792
0.732032
0.730324
0.728673
0.727082
0.725556
0.724099
0.722713
0.721404
0.720174
0.719027
0.717967
0.716998
0.716124
0.715349
0.714677
0.714113
0.713665
0.713338
0.713138
0.713071
0.713144
0.713366
0.713746
0.714295
0.715023
0.715943
0.717068
0.718414
0.719995
0.721831
0.723939
0.726339
0.729053
0.732103
0.735512
0.739301
0.743494
0.748108
0.753161
0.75866
0.764606
0.770983
0.777752
0.784845
0.792147
0.79948
0.806575
0.813035
0.818281
0.821479
0.821433
0.816431
0.804053
0.780873
0.742236
0.681926
0.592157
0.465738
0.284821
0.0601806
0.798618
0.798484
0.798137
0.797593
0.796883
0.796026
0.79503
0.793904
0.79266
0.791311
0.789867
0.788339
0.786735
0.785063
0.78333
0.781542
0.779706
0.777826
0.775908
0.773954
0.771971
0.76996
0.767927
0.765874
0.763805
0.761724
0.759635
0.75754
0.755444
0.753352
0.751266
0.74919
0.747129
0.745087
0.743068
0.741077
0.739118
0.737194
0.735312
0.733474
0.731685
0.729949
0.72827
0.726652
0.725099
0.723614
0.722202
0.720864
0.719605
0.718429
0.717337
0.716334
0.715423
0.714608
0.713892
0.713279
0.712776
0.712386
0.712114
0.711965
0.711944
0.71206
0.712318
0.712727
0.713296
0.714033
0.714949
0.716055
0.717363
0.718884
0.720632
0.722619
0.724859
0.727363
0.730145
0.733213
0.736573
0.740227
0.744171
0.748387
0.752846
0.757499
0.762268
0.767037
0.77164
0.775838
0.779298
0.781553
0.78196
0.779635
0.773372
0.761538
0.741945
0.711717
0.667156
0.603749
0.515715
0.398016
0.239896
0.048354
0.800101
0.799954
0.799577
0.798985
0.798215
0.797291
0.796223
0.795022
0.793702
0.792277
0.79076
0.789161
0.787489
0.785753
0.78396
0.782115
0.780225
0.778294
0.776327
0.774327
0.7723
0.770247
0.768173
0.766081
0.763973
0.761855
0.759728
0.757596
0.755463
0.753334
0.751211
0.749099
0.747002
0.744924
0.74287
0.740843
0.738849
0.736891
0.734974
0.733103
0.731281
0.729513
0.727803
0.726154
0.72457
0.723055
0.721611
0.720243
0.718952
0.717742
0.716615
0.715575
0.714624
0.713765
0.713
0.712334
0.711771
0.711313
0.710963
0.710725
0.710605
0.710606
0.710733
0.710994
0.711392
0.711936
0.71263
0.713484
0.714502
0.715694
0.717064
0.71862
0.720367
0.722309
0.724445
0.726773
0.729286
0.731969
0.734797
0.737732
0.74072
0.743682
0.746509
0.749048
0.751095
0.752371
0.752501
0.750987
0.747166
0.740164
0.72884
0.711715
0.686901
0.652043
0.604258
0.540247
0.456142
0.349133
0.215915
0.061686
0.801782
0.80162
0.801204
0.800552
0.799709
0.798703
0.797547
0.796256
0.794847
0.793335
0.791734
0.790055
0.788307
0.786499
0.784638
0.782731
0.780781
0.778795
0.776775
0.774726
0.77265
0.770552
0.768434
0.766298
0.764149
0.761989
0.759821
0.757649
0.755475
0.753305
0.751142
0.748989
0.746851
0.744733
0.742638
0.740572
0.738538
0.736542
0.734587
0.732678
0.73082
0.729016
0.72727
0.725586
0.723968
0.722419
0.720942
0.719539
0.718214
0.716967
0.715803
0.714723
0.713729
0.712823
0.712006
0.711284
0.710657
0.710126
0.709694
0.709364
0.709137
0.709018
0.709009
0.709114
0.709335
0.709676
0.710141
0.710732
0.711452
0.712304
0.713288
0.714404
0.715649
0.717019
0.718504
0.720091
0.721758
0.723477
0.725207
0.72689
0.728452
0.729792
0.730775
0.731224
0.730908
0.729525
0.726683
0.721878
0.714464
0.703617
0.688301
0.667229
0.638827
0.601228
0.552284
0.489725
0.411284
0.315576
0.201958
0.0729002
0.803682
0.803501
0.803035
0.802308
0.801373
0.800266
0.799005
0.797608
0.796095
0.794482
0.792785
0.791015
0.789183
0.787296
0.785362
0.783386
0.781372
0.779325
0.777249
0.775146
0.77302
0.770873
0.768708
0.766526
0.764332
0.762127
0.759915
0.757698
0.755481
0.753266
0.751058
0.74886
0.746678
0.744514
0.742375
0.740264
0.738187
0.736147
0.73415
0.732199
0.7303
0.728456
0.726672
0.72495
0.723294
0.721708
0.720194
0.718755
0.717392
0.716108
0.714904
0.713781
0.712742
0.711787
0.710918
0.710136
0.709442
0.708836
0.708319
0.707893
0.707557
0.707314
0.707165
0.707109
0.707148
0.707283
0.707513
0.707837
0.708255
0.708763
0.709356
0.71003
0.710773
0.711574
0.712414
0.713269
0.714108
0.714888
0.715556
0.716039
0.716245
0.716058
0.715325
0.713853
0.711397
0.707647
0.702211
0.694601
0.684207
0.670282
0.651916
0.62802
0.597321
0.558384
0.509659
0.449631
0.376982
0.291003
0.191785
0.0810897
0.805827
0.805622
0.805092
0.804268
0.803217
0.801986
0.800598
0.799076
0.797442
0.795714
0.793908
0.792038
0.790112
0.788139
0.786126
0.784076
0.781994
0.779883
0.777747
0.775588
0.773407
0.771208
0.768993
0.766763
0.76452
0.762267
0.760008
0.757743
0.755477
0.753213
0.750956
0.748709
0.746477
0.744265
0.742076
0.739917
0.737791
0.735703
0.733659
0.731663
0.729719
0.727831
0.726004
0.724241
0.722545
0.720919
0.719366
0.717888
0.716486
0.715162
0.713916
0.71275
0.711665
0.71066
0.709736
0.708894
0.708133
0.70745
0.706847
0.706323
0.705877
0.705508
0.705216
0.704999
0.704854
0.704781
0.704775
0.704832
0.704947
0.705113
0.705319
0.705555
0.705804
0.706047
0.706258
0.706404
0.706444
0.706325
0.705983
0.705334
0.704275
0.702675
0.700374
0.69717
0.692813
0.686996
0.679341
0.669387
0.65658
0.640254
0.619631
0.59381
0.561783
0.522463
0.474751
0.417639
0.35037
0.272673
0.185011
0.0889739
0.808251
0.808013
0.807399
0.806448
0.80525
0.803865
0.802326
0.800657
0.798882
0.797023
0.795096
0.793114
0.791087
0.789022
0.786923
0.784795
0.782641
0.780463
0.778265
0.776047
0.773811
0.771558
0.76929
0.767009
0.764716
0.762413
0.760103
0.757788
0.75547
0.753154
0.750843
0.748542
0.746256
0.743989
0.741747
0.739533
0.737354
0.735214
0.733118
0.731072
0.729078
0.727143
0.725269
0.723461
0.721722
0.720055
0.718461
0.716942
0.715499
0.714134
0.712846
0.711636
0.710504
0.709449
0.708471
0.707569
0.706739
0.70598
0.705291
0.704669
0.704112
0.703619
0.703185
0.702806
0.70248
0.7022
0.701961
0.701754
0.701571
0.701401
0.701228
0.701038
0.700807
0.700511
0.700117
0.699585
0.698866
0.697901
0.696614
0.694914
0.692691
0.689807
0.686097
0.681358
0.675343
0.667755
0.658238
0.646368
0.631648
0.613502
0.591271
0.564222
0.531567
0.492496
0.446235
0.392134
0.329791
0.259216
0.180996
0.0964599
0.811
0.810718
0.809989
0.80887
0.807481
0.805906
0.804185
0.802345
0.800409
0.798401
0.79634
0.794237
0.792101
0.789936
0.787748
0.785537
0.783307
0.78106
0.778796
0.776517
0.774222
0.771913
0.769591
0.767257
0.764911
0.762555
0.760192
0.757822
0.755449
0.753076
0.750708
0.748349
0.746004
0.743678
0.741377
0.739104
0.736867
0.73467
0.732518
0.730416
0.728369
0.726382
0.724459
0.722603
0.720818
0.719107
0.71747
0.71591
0.714426
0.713018
0.711688
0.710435
0.709257
0.708153
0.707122
0.706161
0.705265
0.704431
0.703656
0.702938
0.702273
0.701657
0.701084
0.700548
0.700043
0.699562
0.699095
0.698632
0.698161
0.697665
0.697127
0.696527
0.695837
0.695028
0.694061
0.692892
0.691464
0.689711
0.687552
0.684893
0.681616
0.677583
0.672627
0.666549
0.659112
0.650033
0.638983
0.625579
0.609382
0.589896
0.566572
0.538821
0.506033
0.467611
0.423018
0.371852
0.31393
0.249401
0.178845
0.103349
0.814134
0.813791
0.812901
0.811552
0.809915
0.808105
0.806168
0.804126
0.802005
0.799832
0.797624
0.795393
0.793142
0.790875
0.788595
0.786301
0.783996
0.781678
0.779349
0.777008
0.774655
0.772291
0.769913
0.767524
0.765124
0.762714
0.760294
0.757867
0.755434
0.753
0.750568
0.748145
0.745736
0.743346
0.740979
0.738643
0.736341
0.734081
0.731867
0.729705
0.727601
0.725558
0.72358
0.721673
0.71984
0.718082
0.716403
0.7148
0.713274
0.711825
0.710452
0.709155
0.707932
0.706781
0.7057
0.704683
0.703724
0.702817
0.70196
0.70115
0.70038
0.699645
0.698937
0.698249
0.697572
0.696896
0.69621
0.695501
0.694752
0.693946
0.693061
0.692072
0.69095
0.689659
0.688158
0.686396
0.684314
0.681841
0.678892
0.675368
0.671152
0.666106
0.660069
0.652849
0.644218
0.633911
0.621627
0.607026
0.589722
0.569293
0.545283
0.517222
0.484642
0.447107
0.404254
0.35584
0.301814
0.242386
0.178093
0.109834
0.817741
0.817306
0.816181
0.81451
0.812551
0.810456
0.808265
0.805991
0.803659
0.801301
0.798934
0.796563
0.79419
0.791815
0.789437
0.787056
0.784672
0.782282
0.779886
0.777483
0.77507
0.772649
0.770216
0.767773
0.765318
0.762852
0.760377
0.757891
0.755397
0.752897
0.750398
0.747907
0.745429
0.742968
0.740532
0.738126
0.735756
0.733428
0.731148
0.728922
0.726755
0.724651
0.722616
0.720654
0.718769
0.716964
0.71524
0.713596
0.712029
0.710539
0.709125
0.707787
0.706522
0.705328
0.704201
0.703131
0.702111
0.701135
0.700201
0.699304
0.698436
0.697588
0.696753
0.695921
0.695082
0.694222
0.693329
0.692387
0.691378
0.690279
0.689067
0.687714
0.686189
0.684452
0.682459
0.680155
0.677479
0.674355
0.670699
0.666408
0.661365
0.655437
0.648472
0.640291
0.630675
0.619379
0.606129
0.590622
0.572522
0.551467
0.52708
0.498986
0.466834
0.430313
0.389177
0.343288
0.292663
0.237534
0.178385
0.115966
0.821948
0.821374
0.819886
0.817747
0.815362
0.812924
0.810441
0.807906
0.805346
0.802797
0.80027
0.797765
0.795275
0.792797
0.790327
0.787862
0.785402
0.782942
0.78048
0.778014
0.775542
0.773061
0.770571
0.768068
0.765554
0.763029
0.760493
0.757944
0.755382
0.75281
0.750236
0.747669
0.745114
0.742577
0.740065
0.737582
0.735136
0.732732
0.730378
0.728082
0.725848
0.723681
0.721584
0.719564
0.717626
0.715774
0.714006
0.712317
0.710707
0.709176
0.707722
0.706344
0.705039
0.70381
0.702649
0.701535
0.700454
0.699408
0.6984
0.697421
0.69646
0.695507
0.694552
0.693585
0.692591
0.691557
0.690472
0.689317
0.688066
0.686695
0.685181
0.683495
0.681601
0.679458
0.67702
0.674231
0.671026
0.667329
0.663052
0.658095
0.652344
0.645673
0.637941
0.628975
0.618568
0.606495
0.592515
0.576357
0.557727
0.53631
0.511787
0.483857
0.452261
0.416787
0.377284
0.333676
0.28601
0.234512
0.179611
0.121935
0.826948
0.826131
0.824068
0.821272
0.818352
0.815499
0.812656
0.8098
0.806972
0.804207
0.801502
0.798851
0.796241
0.79366
0.791099
0.788554
0.786022
0.783498
0.780978
0.778459
0.775935
0.773407
0.770868
0.768316
0.765751
0.763174
0.760583
0.75797
0.755335
0.752687
0.750036
0.74739
0.744754
0.742135
0.739541
0.736979
0.734451
0.731964
0.729528
0.727154
0.724843
0.722604
0.720437
0.718353
0.71636
0.71447
0.712669
0.710939
0.709285
0.707713
0.706222
0.704803
0.703453
0.702186
0.701006
0.699871
0.698742
0.697635
0.69656
0.695507
0.694462
0.693416
0.692351
0.691265
0.690135
0.688932
0.687663
0.686312
0.68484
0.683219
0.681426
0.679433
0.677201
0.67469
0.671851
0.668627
0.664952
0.66075
0.655928
0.650387
0.644002
0.636688
0.62835
0.618783
0.607769
0.595111
0.580605
0.56401
0.545065
0.523487
0.499004
0.471387
0.440445
0.406036
0.368056
0.32646
0.281315
0.232846
0.181434
0.127604
0.833089
0.831746
0.828663
0.824947
0.82146
0.818217
0.815015
0.811832
0.808747
0.805785
0.802921
0.800134
0.797407
0.794717
0.792058
0.789426
0.786816
0.784216
0.781622
0.779033
0.776446
0.773853
0.771249
0.768633
0.766007
0.763383
0.760745
0.75806
0.755337
0.752596
0.749855
0.747118
0.74439
0.741678
0.738993
0.736344
0.733729
0.731149
0.728625
0.726163
0.72377
0.721451
0.719212
0.717046
0.714973
0.713038
0.711215
0.709457
0.707769
0.706163
0.704642
0.703199
0.701832
0.700538
0.699307
0.698115
0.696945
0.695796
0.694667
0.693549
0.692429
0.691299
0.690141
0.688945
0.687694
0.686363
0.684943
0.683411
0.681737
0.679893
0.677854
0.675591
0.673065
0.670234
0.667051
0.663459
0.659393
0.654784
0.649522
0.643537
0.636614
0.628697
0.619855
0.60983
0.598376
0.585319
0.570484
0.553665
0.53462
0.513026
0.488647
0.461347
0.431046
0.397733
0.361275
0.321535
0.278575
0.23264
0.184083
0.133358
0.841025
0.838612
0.833651
0.828477
0.824218
0.820466
0.816819
0.813269
0.809918
0.806761
0.803774
0.800925
0.79813
0.795361
0.792634
0.789954
0.787307
0.784678
0.782054
0.77943
0.776803
0.774168
0.771512
0.768836
0.76613
0.763455
0.760798
0.75806
0.755253
0.752421
0.749589
0.746762
0.743945
0.741143
0.738368
0.73562
0.732901
0.730225
0.727613
0.725068
0.722601
0.72021
0.717904
0.715687
0.713574
0.711579
0.709686
0.707878
0.706156
0.704526
0.702985
0.701528
0.700147
0.698832
0.697573
0.696357
0.695169
0.693996
0.692825
0.691652
0.690466
0.689263
0.688021
0.686737
0.685384
0.683929
0.682372
0.680683
0.678827
0.676781
0.674525
0.672025
0.669243
0.666135
0.662652
0.658742
0.654338
0.649368
0.643744
0.637373
0.630137
0.621951
0.612739
0.602331
0.590542
0.577213
0.562186
0.545294
0.526424
0.505081
0.480964
0.45397
0.42403
0.391509
0.35634
0.318211
0.27712
0.233298
0.18707
0.138838
0.851557
0.846877
0.839404
0.832994
0.828093
0.823706
0.819457
0.815472
0.811796
0.808348
0.805147
0.802228
0.799357
0.796481
0.793648
0.790875
0.788146
0.785448
0.782763
0.780075
0.777385
0.774693
0.771993
0.769279
0.766549
0.763811
0.761042
0.758199
0.75529
0.752354
0.749418
0.746488
0.743564
0.740654
0.737764
0.734897
0.732068
0.729299
0.726598
0.723969
0.721419
0.718947
0.71656
0.714273
0.712098
0.710037
0.708087
0.706241
0.704498
0.702853
0.701301
0.699837
0.698448
0.697125
0.695855
0.694624
0.693418
0.692224
0.69103
0.68983
0.688609
0.687351
0.686043
0.684677
0.683231
0.681691
0.680031
0.678235
0.676243
0.674038
0.671607
0.668918
0.665932
0.662605
0.65889
0.654733
0.650072
0.644837
0.638948
0.632317
0.624847
0.616434
0.606966
0.596312
0.584337
0.570886
0.555793
0.538885
0.51999
0.498833
0.475181
0.448917
0.419984
0.388427
0.354208
0.317243
0.277567
0.235351
0.190874
0.144537
0.866869
0.853399
0.840782
0.834114
0.829399
0.824737
0.820161
0.816008
0.812305
0.808918
0.805753
0.802759
0.799842
0.796967
0.794142
0.79137
0.788633
0.785917
0.783212
0.780509
0.777805
0.775094
0.772379
0.769647
0.766898
0.764119
0.761289
0.75836
0.75534
0.752301
0.749268
0.746236
0.743205
0.740184
0.737185
0.734218
0.731296
0.728431
0.725634
0.722915
0.720294
0.71776
0.715306
0.712964
0.710745
0.708649
0.706672
0.704812
0.703064
0.701422
0.699878
0.698425
0.697053
0.695746
0.69449
0.693269
0.692071
0.690878
0.689685
0.688469
0.687247
0.685986
0.684648
0.683245
0.681748
0.680136
0.678393
0.676509
0.67444
0.672149
0.669613
0.666805
0.663688
0.660218
0.656351
0.652036
0.647211
0.641809
0.635755
0.628964
0.621341
0.612782
0.603172
0.592389
0.5803
0.56676
0.551611
0.534683
0.515802
0.494783
0.471447
0.445659
0.41733
0.386412
0.352934
0.316916
0.278342
0.237312
0.194033
0.148966
0.902303
0.868442
0.846309
0.837329
0.832191
0.827013
0.821928
0.817429
0.813531
0.810008
0.806707
0.80357
0.800556
0.797624
0.794751
0.791928
0.789143
0.786384
0.783637
0.780896
0.778153
0.775405
0.77265
0.769885
0.76711
0.764329
0.761508
0.758508
0.755361
0.752232
0.749134
0.746041
0.742952
0.739878
0.736829
0.733815
0.730848
0.727939
0.725099
0.72234
0.719673
0.717104
0.71464
0.712292
0.710064
0.70796
0.705979
0.70412
0.702376
0.700744
0.699213
0.697774
0.696416
0.695125
0.693888
0.692688
0.691511
0.690339
0.689159
0.687954
0.686721
0.685456
0.684138
0.682748
0.681268
0.679675
0.677947
0.676054
0.673981
0.671693
0.669161
0.666353
0.663233
0.659761
0.655889
0.651564
0.646729
0.641316
0.635252
0.628453
0.620827
0.612269
0.602668
0.591901
0.579836
0.566328
0.551225
0.534362
0.515571
0.494682
0.471528
0.445958
0.417861
0.387151
0.353962
0.318396
0.280331
0.23981
0.19707
0.152522
-2.22402
-1.4765
-1.19084
-1.26406
-1.24203
-1.22739
-1.22043
-1.22001
-1.22242
-1.2239
-1.21872
-1.20101
-1.16839
-1.12503
-1.07496
-1.02399
-0.976008
-0.934326
-0.901242
-0.879625
-0.869123
-0.874028
-0.897875
-0.941796
-1.00062
-1.06153
-1.10298
-1.10343
-1.06016
-0.809179
-1.02806
-1.1579
-1.22003
-1.19673
-1.19514
-1.21297
-1.22346
-1.22873
-1.23192
-1.23188
-1.22159
-1.19278
-1.14315
-1.08376
-1.02502
-0.972523
-0.92741
-0.889188
-0.85932
-0.844691
-0.853424
-0.88453
-0.936587
-1.00585
-1.08108
-1.14053
-1.1566
-1.11151
-0.379619
-0.785045
-1.01822
-1.12939
-1.17395
-1.19385
-1.20356
-1.2095
-1.21753
-1.23102
-1.24331
-1.23578
-1.19975
-1.14406
-1.08037
-1.01893
-0.96522
-0.919456
-0.880083
-0.848979
-0.835023
-0.846465
-0.880558
-0.936776
-1.01078
-1.08933
-1.15088
-1.16875
-1.12541
-0.279057
-0.589029
-0.779191
-0.897783
-0.999861
-1.07257
-1.11871
-1.15185
-1.1775
-1.19632
-1.20397
-1.19352
-1.16535
-1.12285
-1.06844
-1.01175
-0.958864
-0.912843
-0.873779
-0.84122
-0.820374
-0.826232
-0.859666
-0.914005
-0.984505
-1.0549
-1.10583
-1.11958
-1.07963
-0.181562
-0.397695
-0.561323
-0.693126
-0.814863
-0.902583
-0.963014
-1.01352
-1.05049
-1.07444
-1.0874
-1.08663
-1.07078
-1.03989
-0.999385
-0.956969
-0.919577
-0.884696
-0.85552
-0.83636
-0.831073
-0.84077
-0.870383
-0.910455
-0.955509
-0.998611
-1.02606
-1.02427
-0.985526
-0.109049
-0.279246
-0.430006
-0.554407
-0.661488
-0.749725
-0.820594
-0.880527
-0.923354
-0.951981
-0.972671
-0.982029
-0.977785
-0.96208
-0.938525
-0.911984
-0.886089
-0.862161
-0.842021
-0.8278
-0.820078
-0.822807
-0.840584
-0.865717
-0.890751
-0.912534
-0.923265
-0.916572
-0.887243
-0.0667969
-0.208453
-0.33917
-0.451431
-0.547165
-0.631776
-0.702109
-0.760515
-0.806583
-0.841726
-0.867424
-0.881985
-0.886383
-0.882104
-0.870439
-0.854816
-0.838218
-0.822563
-0.808841
-0.798038
-0.793625
-0.79644
-0.806433
-0.821207
-0.836863
-0.845758
-0.846205
-0.837999
-0.811619
-0.0361625
-0.154133
-0.265805
-0.366682
-0.456378
-0.535828
-0.604308
-0.661098
-0.708576
-0.746484
-0.775064
-0.794539
-0.805525
-0.808912
-0.806094
-0.799709
-0.791573
-0.782728
-0.774453
-0.768053
-0.765512
-0.767107
-0.77207
-0.778965
-0.784432
-0.785692
-0.781242
-0.768062
-0.743099
-0.0113487
-0.112048
-0.209436
-0.300055
-0.382947
-0.45736
-0.522935
-0.578984
-0.626622
-0.665646
-0.696557
-0.719637
-0.735357
-0.744612
-0.7485
-0.748426
-0.745782
-0.741893
-0.737755
-0.734343
-0.732706
-0.732818
-0.734232
-0.73603
-0.73656
-0.73392
-0.726264
-0.712108
-0.690572
0.00880349
-0.0792059
-0.165389
-0.247052
-0.322963
-0.392254
-0.454453
-0.509041
-0.556235
-0.596019
-0.62864
-0.654315
-0.673541
-0.687009
-0.695504
-0.70008
-0.701928
-0.701981
-0.700948
-0.699705
-0.698843
-0.698343
-0.697962
-0.697091
-0.694645
-0.689289
-0.679874
-0.665639
-0.646044
0.0254883
-0.0526667
-0.129758
-0.203774
-0.273539
-0.33818
-0.39709
-0.449749
-0.49605
-0.535969
-0.569587
-0.5971
-0.618894
-0.63547
-0.647443
-0.655611
-0.660834
-0.663797
-0.665113
-0.665489
-0.665293
-0.664493
-0.662962
-0.660325
-0.655926
-0.648994
-0.638857
-0.625043
-0.607346
0.0397367
-0.0306179
-0.100385
-0.16803
-0.232514
-0.292991
-0.348801
-0.399431
-0.444638
-0.484315
-0.518456
-0.547189
-0.570776
-0.589582
-0.604084
-0.614859
-0.622548
-0.627695
-0.630784
-0.632353
-0.632685
-0.63177
-0.629583
-0.625947
-0.620501
-0.612803
-0.602472
-0.589275
-0.573207
0.0520683
-0.0120756
-0.0759399
-0.138308
-0.198283
-0.255092
-0.30808
-0.356746
-0.400774
-0.439983
-0.474306
-0.503786
-0.52859
-0.548969
-0.565277
-0.577951
-0.58745
-0.594213
-0.598612
-0.601051
-0.601788
-0.600857
-0.598288
-0.59404
-0.587951
-0.579809
-0.569461
-0.556858
-0.542108
0.0630215
0.00386106
-0.0552258
-0.113246
-0.169434
-0.223092
-0.273598
-0.320457
-0.363318
-0.401951
-0.436228
-0.46613
-0.491733
-0.513202
-0.530784
-0.544811
-0.555614
-0.563535
-0.568873
-0.571923
-0.572922
-0.571956
-0.569103
-0.564416
-0.557883
-0.549466
-0.53917
-0.527078
-0.513385
0.0727036
0.0175484
-0.0376823
-0.0921561
-0.145216
-0.196226
-0.244604
-0.289863
-0.331634
-0.369658
-0.403754
-0.433848
-0.459944
-0.482113
-0.500554
-0.515504
-0.527196
-0.535889
-0.541835
-0.545256
-0.546357
-0.54527
-0.542112
-0.537005
-0.53005
-0.521336
-0.51099
-0.499201
-0.486237
0.0816681
0.029707
-0.0224468
-0.0740736
-0.124614
-0.173464
-0.220092
-0.264001
-0.304842
-0.342303
-0.376192
-0.406383
-0.43278
-0.455365
-0.474384
-0.489981
-0.502284
-0.511457
-0.517744
-0.521315
-0.52236
-0.521039
-0.517489
-0.51188
-0.5044
-0.495246
-0.484646
-0.472886
-0.460317
0.0896857
0.0402405
-0.00949614
-0.0588825
-0.107431
-0.154552
-0.199758
-0.242569
-0.282595
-0.319586
-0.353199
-0.383462
-0.409971
-0.432677
-0.452027
-0.467991
-0.480659
-0.490115
-0.4965
-0.49999
-0.500774
-0.499033
-0.494928
-0.488665
-0.480497
-0.470702
-0.459596
-0.447558
-0.435041
0.0973331
0.0497642
0.00180852
-0.0459978
-0.0931095
-0.139021
-0.183205
-0.225252
-0.264737
-0.30138
-0.334862
-0.364955
-0.391531
-0.414626
-0.434283
-0.450392
-0.463282
-0.47289
-0.479229
-0.48248
-0.482839
-0.480491
-0.475636
-0.468537
-0.459498
-0.44884
-0.436935
-0.424249
-0.411347
0.103175
0.0570417
0.0104231
-0.0361763
-0.0822249
-0.127211
-0.17064
-0.212071
-0.251122
-0.287517
-0.320933
-0.350975
-0.377702
-0.400927
-0.42054
-0.436786
-0.449576
-0.459036
-0.465166
-0.468049
-0.467858
-0.464768
-0.458982
-0.450856
-0.440761
-0.429017
-0.416028
-0.402364
-0.388709
0.107174
0.06147
0.0152966
-0.0308777
-0.0765547
-0.121233
-0.164429
-0.205696
-0.244631
-0.280858
-0.314158
-0.344248
-0.371112
-0.394893
-0.415079
-0.431479
-0.444184
-0.453453
-0.459412
-0.462147
-0.46176
-0.458386
-0.452215
-0.443684
-0.433254
-0.421166
-0.407799
-0.393768
-0.379842
0.792326
0.792231
0.791986
0.791599
0.791089
0.790464
0.789724
0.788873
0.787915
0.786856
0.785703
0.78446
0.783135
0.781733
0.780259
0.778719
0.777119
0.775465
0.77376
0.772011
0.770223
0.768399
0.766545
0.764665
0.762764
0.760845
0.758914
0.756973
0.755029
0.753084
0.751143
0.74921
0.747289
0.745384
0.743499
0.741638
0.739805
0.738005
0.736241
0.734518
0.73284
0.731212
0.729636
0.728119
0.726664
0.725276
0.723959
0.722719
0.72156
0.720488
0.719508
0.718627
0.717851
0.717188
0.716644
0.716229
0.715951
0.715822
0.715842
0.716034
0.716421
0.717016
0.71783
0.718885
0.720206
0.721819
0.723753
0.726043
0.728726
0.731848
0.735457
0.739611
0.744375
0.749825
0.756045
0.763135
0.771209
0.7804
0.79086
0.802768
0.816331
0.831793
0.849437
0.869599
0.892671
0.919117
0.949481
0.984402
1.02462
1.07099
1.12446
1.18603
1.25666
1.33707
1.42732
1.52615
1.62983
1.73085
1.81606
1.86849
0.792475
0.79238
0.792133
0.791744
0.79123
0.790601
0.789858
0.789001
0.788038
0.786975
0.785816
0.784569
0.783239
0.781832
0.780353
0.778809
0.777206
0.775547
0.77384
0.772088
0.770296
0.76847
0.766614
0.764733
0.76283
0.76091
0.758977
0.757036
0.755092
0.753146
0.751206
0.749274
0.747353
0.745449
0.743566
0.741707
0.739876
0.738079
0.736318
0.734599
0.732925
0.731301
0.729731
0.728219
0.72677
0.725389
0.724079
0.722847
0.721697
0.720634
0.719664
0.718793
0.718028
0.717376
0.716844
0.716441
0.716176
0.716055
0.716083
0.716291
0.716694
0.717301
0.718127
0.719194
0.720526
0.722148
0.72409
0.726386
0.729073
0.732194
0.735799
0.739943
0.744691
0.750116
0.756302
0.763345
0.771357
0.780466
0.79082
0.802591
0.81598
0.831219
0.84858
0.86838
0.890991
0.916848
0.946458
0.980411
1.01939
1.06415
1.11556
1.1745
1.2418
1.31805
1.40324
1.49616
1.59338
1.68799
1.76781
1.81637
0.792754
0.792657
0.792407
0.792012
0.791492
0.790854
0.790101
0.789235
0.788262
0.787187
0.786017
0.784759
0.783418
0.782
0.780511
0.778957
0.777344
0.775677
0.773961
0.772201
0.770402
0.768569
0.766706
0.764818
0.762909
0.760984
0.759046
0.7571
0.755151
0.753202
0.751257
0.749322
0.747398
0.745491
0.743605
0.741744
0.739912
0.738113
0.736352
0.734632
0.732958
0.731334
0.729765
0.728255
0.726808
0.725428
0.724122
0.722892
0.721745
0.720686
0.71972
0.718853
0.718092
0.717443
0.716914
0.716512
0.716246
0.716121
0.716154
0.716365
0.716765
0.717365
0.718182
0.719237
0.720552
0.722153
0.724068
0.72633
0.728974
0.732043
0.735584
0.73965
0.744302
0.749611
0.755655
0.762527
0.770331
0.779187
0.789234
0.80063
0.81356
0.828237
0.844905
0.863848
0.885396
0.909924
0.937868
0.969719
1.00603
1.04742
1.09451
1.14795
1.20827
1.27575
1.35008
1.42994
1.51216
1.59069
1.65459
1.69006
0.793163
0.793064
0.792809
0.792405
0.791874
0.791224
0.790457
0.789575
0.788585
0.787493
0.786306
0.78503
0.783672
0.782237
0.780732
0.779163
0.777534
0.775853
0.774123
0.77235
0.770539
0.768694
0.76682
0.764921
0.763002
0.761067
0.75912
0.757165
0.755207
0.753249
0.751297
0.749354
0.747423
0.745509
0.743616
0.741749
0.739911
0.738107
0.73634
0.734616
0.732938
0.731311
0.729738
0.728225
0.726775
0.725394
0.724085
0.722854
0.721705
0.720644
0.719675
0.718806
0.718041
0.717388
0.716853
0.716443
0.716167
0.716032
0.716056
0.716253
0.716633
0.717208
0.717996
0.719015
0.720289
0.721839
0.723693
0.725883
0.728441
0.731407
0.734826
0.738748
0.743229
0.748333
0.754135
0.760718
0.768176
0.776619
0.78617
0.79697
0.809179
0.822981
0.838583
0.856223
0.876165
0.898707
0.924179
0.952936
0.985353
1.0218
1.06262
1.10805
1.15811
1.21245
1.27003
1.32854
1.38377
1.42693
1.44437
1.39533
0.793706
0.793605
0.793342
0.792926
0.79238
0.791712
0.790925
0.790021
0.789008
0.787893
0.786682
0.785382
0.784
0.782543
0.781015
0.779424
0.777776
0.776074
0.774326
0.772535
0.770706
0.768845
0.766955
0.765041
0.763108
0.761158
0.759198
0.75723
0.755259
0.753289
0.751325
0.749369
0.747427
0.745502
0.743599
0.741721
0.739874
0.73806
0.736284
0.734551
0.732865
0.73123
0.72965
0.728129
0.726673
0.725285
0.723969
0.722731
0.721576
0.720507
0.719531
0.718652
0.717878
0.717212
0.716664
0.716237
0.715943
0.715789
0.71579
0.715958
0.716302
0.716836
0.717575
0.718538
0.719744
0.721216
0.722977
0.725058
0.727489
0.730306
0.733549
0.737264
0.741503
0.746322
0.751788
0.757973
0.764961
0.772846
0.781732
0.791737
0.802994
0.815649
0.829864
0.845818
0.863701
0.883714
0.906061
0.930933
0.95849
0.988816
1.02187
1.05736
1.0946
1.13222
1.16775
1.19644
1.21129
1.19358
1.14015
0.844339
)
;

boundaryField
{
    inlet
    {
        type            zeroGradient;
    }
    outlet
    {
        type            fixedValue;
        value           nonuniform List<scalar> 0();
    }
    topWall
    {
        type            zeroGradient;
    }
    lowerWall
    {
        type            zeroGradient;
    }
    leadingEdge
    {
        type            zeroGradient;
    }
    trailingEdge
    {
        type            zeroGradient;
    }
    upperSurface
    {
        type            zeroGradient;
    }
    lowerSurface
    {
        type            zeroGradient;
    }
    frontAndBack
    {
        type            empty;
    }
    procBoundary4to0
    {
        type            processor;
        value           nonuniform List<scalar> 
100
(
0.792305
0.79221
0.791965
0.791577
0.791067
0.790441
0.789701
0.788849
0.78789
0.786831
0.785677
0.784433
0.783107
0.781703
0.780228
0.778687
0.777086
0.775429
0.773723
0.771972
0.770181
0.768355
0.766499
0.764616
0.762712
0.76079
0.758855
0.756912
0.754963
0.753014
0.751069
0.749132
0.747206
0.745295
0.743405
0.741538
0.739699
0.737892
0.736121
0.73439
0.732704
0.731067
0.729482
0.727955
0.726489
0.725089
0.723761
0.722508
0.721335
0.720249
0.719253