/*--------------------------------*- C++ -*----------------------------------*\
| =========                 |                                                 |
| \\      /  F ield         | OpenFOAM: The Open Source CFD Toolbox           |
|  \\    /   O peration     | Version:  2206                                  |
|   \\  /    A nd           | Website:  www.openfoam.com                      |
|    \\/     M anipulation  |                                                 |
\*---------------------------------------------------------------------------*/
FoamFile
{
    version     2.0;
    format      ascii;
    arch        "LSB;label=32;scalar=64";
    class       volVectorField;
    location    "19.8999";
    object      ddtCorrDdt0(U);
}
// * * * * * * * * * * * * * * * * * * * * * * * * * * * * * * * * * * * * * //

dimensions      [0 1 -2 0 0 0 0];

internalField   nonuniform List<vector> 
1838
(
(-1.08636e-06 5.4057e-05 0)
(-4.40861e-06 0.00011186 0)
(-1.04458e-05 0.000195684 0)
(-2.31738e-05 0.000291646 0)
(-4.05101e-05 0.000387848 0)
(-6.23854e-05 0.000480619 0)
(-8.94166e-05 0.000569341 0)
(-0.000121105 0.00065161 0)
(-0.000157095 0.000726818 0)
(-0.000197022 0.000792885 0)
(-0.000240445 0.000848857 0)
(-0.000285275 0.000895874 0)
(-0.000332815 0.00093478 0)
(-0.000383589 0.000967363 0)
(-0.000436835 0.000996936 0)
(-0.000490809 0.00102486 0)
(-0.000545296 0.00105773 0)
(-0.00060196 0.00109701 0)
(-0.000662132 0.0011493 0)
(-0.000724495 0.00121594 0)
(-0.00078928 0.00130477 0)
(-0.000859391 0.00141514 0)
(-0.000936196 0.0015539 0)
(-0.00101958 0.00172016 0)
(-0.00111178 0.00192117 0)
(-0.00121489 0.00215459 0)
(-0.00133007 0.00242728 0)
(-0.00146289 0.00273545 0)
(-0.00160466 0.00308618 0)
(-0.00177734 0.00347659 0)
(-0.00195877 0.00391318 0)
(-0.00217175 0.00439201 0)
(-0.00240976 0.0049188 0)
(-0.00267522 0.00549409 0)
(-0.00298214 0.00612124 0)
(-0.0033021 0.00680679 0)
(-0.00368126 0.0075563 0)
(-0.0040822 0.00837391 0)
(-0.00455224 0.00926707 0)
(-0.00505204 0.0102452 0)
(-0.00560575 0.011319 0)
(-0.0062353 0.0125014 0)
(-0.00689947 0.0138 0)
(-0.00767196 0.0152367 0)
(-0.00846238 0.0168188 0)
(-0.00939487 0.0185782 0)
(-0.0103724 0.0205182 0)
(-0.0114869 0.0226776 0)
(-0.0127054 0.0250716 0)
(-0.0140184 0.0277237 0)
(-0.015533 0.0306785 0)
(-0.017094 0.0339338 0)
(-0.0189522 0.0375652 0)
(-0.0208658 0.0415641 0)
(-0.0231126 0.0460155 0)
(-0.0255042 0.0509283 0)
(-0.0281995 0.0563741 0)
(-0.0311972 0.0624078 0)
(-0.0344052 0.0690538 0)
(-0.0381919 0.0764754 0)
(-0.0420359 0.0845725 0)
(-0.0467383 0.0936835 0)
(-0.0515075 0.103588 0)
(-0.0571281 0.114659 0)
(-0.0632679 0.126861 0)
(-0.0699198 0.140153 0)
(-0.077684 0.155143 0)
(-0.0857134 0.171125 0)
(-0.0949557 0.18957 0)
(-0.104817 0.209727 0)
(-0.115915 0.231985 0)
(-0.128235 0.256547 0)
(-0.141815 0.283718 0)
(-0.156814 0.313805 0)
(-0.1734 0.347066 0)
(-0.191738 0.383825 0)
(-0.212043 0.42443 0)
(-0.234557 0.469307 0)
(-0.259554 0.518921 0)
(-0.287352 0.573811 0)
(-0.318282 0.634578 0)
(-0.352748 0.701891 0)
(-0.39117 0.776494 0)
(-0.433959 0.859249 0)
(-0.481614 0.951048 0)
(-0.534697 1.05289 0)
(-0.593843 1.16591 0)
(-0.659872 1.29142 0)
(-0.733688 1.43093 0)
(-0.816189 1.58634 0)
(-0.90844 1.7597 0)
(-1.0115 1.9536 0)
(-1.12647 2.17115 0)
(-1.2545 2.41654 0)
(-1.39591 2.69529 0)
(-1.55174 3.01606 0)
(-1.71548 3.3876 0)
(-1.88543 3.83159 0)
(-2.0437 4.38034 0)
(-2.17211 5.13884 0)
(-2.20463 6.15863 0)
(-0.470202 8.46635 0)
(-7.80694e-07 5.40327e-05 0)
(-2.78227e-06 0.000119101 0)
(-7.55521e-06 0.00020734 0)
(-1.76756e-05 0.000307305 0)
(-3.13397e-05 0.000407985 0)
(-4.86795e-05 0.000506014 0)
(-7.02161e-05 0.000599004 0)
(-9.55531e-05 0.000685631 0)
(-0.000123969 0.000764046 0)
(-0.00015615 0.000833067 0)
(-0.000190018 0.000891703 0)
(-0.000225181 0.000941519 0)
(-0.000262956 0.000981457 0)
(-0.000302649 0.00101627 0)
(-0.000344995 0.00104604 0)
(-0.000387157 0.00107702 0)
(-0.000430114 0.00111058 0)
(-0.000475041 0.0011528 0)
(-0.000522286 0.00120539 0)
(-0.000570266 0.00127737 0)
(-0.000621239 0.00136806 0)
(-0.000677193 0.00148455 0)
(-0.000738339 0.00162699 0)
(-0.000804155 0.0018023 0)
(-0.000876727 0.00200929 0)
(-0.000957458 0.00225549 0)
(-0.00104833 0.00253775 0)
(-0.00115218 0.00286246 0)
(-0.00126633 0.00322738 0)
(-0.00139657 0.00364085 0)
(-0.00154271 0.00409528 0)
(-0.00171328 0.00459982 0)
(-0.00189651 0.00514962 0)
(-0.0021176 0.00575453 0)
(-0.00234501 0.00641139 0)
(-0.00261033 0.0071344 0)
(-0.00289551 0.00791645 0)
(-0.00322607 0.0087738 0)
(-0.00358939 0.00970777 0)
(-0.00398 0.010733 0)
(-0.00442903 0.0118572 0)
(-0.00490175 0.0130911 0)
(-0.00545731 0.0144544 0)
(-0.00602873 0.0159532 0)
(-0.00668645 0.0176152 0)
(-0.00739583 0.0194491 0)
(-0.00818388 0.02148 0)
(-0.00906032 0.023738 0)
(-0.00999741 0.0262337 0)
(-0.011074 0.0290165 0)
(-0.0122057 0.0320892 0)
(-0.0135125 0.0355064 0)
(-0.0149008 0.0392854 0)
(-0.0164835 0.0434787 0)
(-0.0181932 0.048121 0)
(-0.0201195 0.053263 0)
(-0.0222392 0.0589619 0)
(-0.0245452 0.0652544 0)
(-0.0271997 0.0722501 0)
(-0.0299712 0.0799431 0)
(-0.0332445 0.0885084 0)
(-0.0367038 0.0979545 0)
(-0.0405805 0.108378 0)
(-0.0450006 0.120013 0)
(-0.0497045 0.132698 0)
(-0.0550955 0.146821 0)
(-0.0612525 0.162416 0)
(-0.0676063 0.179072 0)
(-0.0751691 0.198212 0)
(-0.0830547 0.219343 0)
(-0.0916737 0.24256 0)
(-0.101292 0.268372 0)
(-0.112001 0.296848 0)
(-0.12385 0.328274 0)
(-0.13693 0.363022 0)
(-0.151405 0.401471 0)
(-0.167457 0.443992 0)
(-0.185267 0.491046 0)
(-0.205051 0.543113 0)
(-0.227032 0.600757 0)
(-0.25148 0.664591 0)
(-0.278711 0.735297 0)
(-0.309028 0.813687 0)
(-0.342793 0.900652 0)
(-0.380431 0.997144 0)
(-0.422374 1.10427 0)
(-0.469146 1.22322 0)
(-0.521354 1.35537 0)
(-0.579629 1.50237 0)
(-0.644606 1.66606 0)
(-0.716961 1.84853 0)
(-0.797323 2.05233 0)
(-0.886161 2.28037 0)
(-0.983443 2.53632 0)
(-1.0887 2.82482 0)
(-1.19875 3.15103 0)
(-1.30833 3.52247 0)
(-1.40818 3.95087 0)
(-1.4677 4.45313 0)
(-1.4631 5.04026 0)
(-1.17761 5.71652 0)
(-0.538337 6.26743 0)
(-7.85354e-07 5.33181e-05 0)
(-2.11045e-06 0.000123081 0)
(-4.82281e-06 0.000214277 0)
(-1.22558e-05 0.000317478 0)
(-2.20122e-05 0.000421151 0)
(-3.45308e-05 0.000522764 0)
(-5.0046e-05 0.000619023 0)
(-6.82894e-05 0.000708893 0)
(-8.91177e-05 0.000790035 0)
(-0.000112473 0.000861315 0)
(-0.000136935 0.000922827 0)
(-0.000162574 0.000973277 0)
(-0.00018941 0.00101562 0)
(-0.000218541 0.00105083 0)
(-0.000249204 0.00108213 0)
(-0.000279473 0.00111418 0)
(-0.000310176 0.00114914 0)
(-0.000342931 0.00119252 0)
(-0.00037612 0.00124837 0)
(-0.000410478 0.00132163 0)
(-0.000447474 0.00141518 0)
(-0.000488015 0.00153483 0)
(-0.000532345 0.00168229 0)
(-0.000580205 0.00186321 0)
(-0.000631801 0.00207876 0)
(-0.000689614 0.00233268 0)
(-0.00075533 0.00262544 0)
(-0.000828755 0.00295983 0)
(-0.000915079 0.00333931 0)
(-0.000999869 0.003764 0)
(-0.0011166 0.00423501 0)
(-0.0012301 0.00475541 0)
(-0.00136845 0.00532454 0)
(-0.00152979 0.00594976 0)
(-0.00168371 0.00663293 0)
(-0.00189094 0.00737724 0)
(-0.00207574 0.00818827 0)
(-0.00233806 0.00907387 0)
(-0.00257603 0.0100426 0)
(-0.00287789 0.0111002 0)
(-0.00318959 0.0122658 0)
(-0.00352874 0.0135389 0)
(-0.00394935 0.0149485 0)
(-0.00432668 0.0164959 0)
(-0.0048476 0.0182136 0)
(-0.00530613 0.0201067 0)
(-0.0059238 0.0222083 0)
(-0.00651555 0.0245401 0)
(-0.00721082 0.0271173 0)
(-0.00799251 0.0299931 0)
(-0.00877448 0.0331569 0)
(-0.00978158 0.0366964 0)
(-0.0106959 0.0405861 0)
(-0.0119338 0.0449303 0)
(-0.0130753 0.049717 0)
(-0.0145381 0.0550329 0)
(-0.0160233 0.0609235 0)
(-0.0176886 0.0674171 0)
(-0.0196383 0.0746577 0)
(-0.0215445 0.0825831 0)
(-0.0240384 0.0914696 0)
(-0.0263133 0.101164 0)
(-0.0293388 0.112031 0)
(-0.0322213 0.123944 0)
(-0.035743 0.137192 0)
(-0.0395686 0.151855 0)
(-0.0437756 0.167879 0)
(-0.0489846 0.185796 0)
(-0.0543478 0.204647 0)
(-0.0602355 0.22657 0)
(-0.0662545 0.250546 0)
(-0.0732802 0.277258 0)
(-0.0811717 0.30676 0)
(-0.0897795 0.339296 0)
(-0.0991947 0.375255 0)
(-0.109604 0.415017 0)
(-0.121153 0.458997 0)
(-0.133976 0.50765 0)
(-0.148225 0.561494 0)
(-0.164065 0.621126 0)
(-0.181704 0.687189 0)
(-0.201346 0.760444 0)
(-0.223214 0.841717 0)
(-0.247592 0.931922 0)
(-0.274772 1.03205 0)
(-0.305076 1.14322 0)
(-0.338877 1.26666 0)
(-0.376558 1.40385 0)
(-0.418571 1.55642 0)
(-0.46529 1.726 0)
(-0.517209 1.91503 0)
(-0.5746 2.12565 0)
(-0.637461 2.3605 0)
(-0.705402 2.62258 0)
(-0.777157 2.91512 0)
(-0.848694 3.23948 0)
(-0.9168 3.60324 0)
(-0.969036 4.00718 0)
(-0.984996 4.45148 0)
(-0.920291 4.92751 0)
(-0.729034 5.38919 0)
(-0.300243 6.62962 0)
(-4.64133e-07 5.215e-05 0)
(-1.00048e-06 0.000124438 0)
(-2.11507e-06 0.000218906 0)
(-6.38413e-06 0.000323189 0)
(-1.2469e-05 0.000429814 0)
(-1.9907e-05 0.000533933 0)
(-2.94089e-05 0.00063293 0)
(-4.0606e-05 0.000724789 0)
(-5.35498e-05 0.000807794 0)
(-6.76762e-05 0.000880723 0)
(-8.29321e-05 0.000943125 0)
(-9.80518e-05 0.000995121 0)
(-0.000114108 0.00103799 0)
(-0.000131929 0.00107378 0)
(-0.000150057 0.0011064 0)
(-0.000168027 0.00113895 0)
(-0.000186711 0.00117544 0)
(-0.000205738 0.0012199 0)
(-0.000226053 0.0012774 0)
(-0.000246848 0.00135155 0)
(-0.000268702 0.00144728 0)
(-0.000293649 0.00156833 0)
(-0.000320732 0.00172013 0)
(-0.000348557 0.001905 0)
(-0.000379618 0.0021261 0)
(-0.000414434 0.0023847 0)
(-0.000455019 0.00268447 0)
(-0.000496101 0.00302604 0)
(-0.000558197 0.00341337 0)
(-0.000588788 0.00384492 0)
(-0.000681159 0.00432892 0)
(-0.000729117 0.00485935 0)
(-0.000832063 0.00544325 0)
(-0.000916612 0.00608333 0)
(-0.00100804 0.00678079 0)
(-0.0011506 0.0075432 0)
(-0.00122744 0.00837108 0)
(-0.00143138 0.00927709 0)
(-0.00152588 0.0102665 0)
(-0.00175425 0.0113492 0)
(-0.00190242 0.012539 0)
(-0.00213067 0.0138373 0)
(-0.00239007 0.0152824 0)
(-0.00257773 0.0168575 0)
(-0.00296214 0.0186206 0)
(-0.00314257 0.0205458 0)
(-0.00362411 0.022703 0)
(-0.00387699 0.0250739 0)
(-0.00437359 0.0277152 0)
(-0.00481482 0.0306425 0)
(-0.00525633 0.0338802 0)
(-0.00595955 0.0374898 0)
(-0.00635527 0.0414672 0)
(-0.00730073 0.045899 0)
(-0.0077675 0.0507932 0)
(-0.00886843 0.0562161 0)
(-0.00958013 0.0622428 0)
(-0.0106917 0.0688627 0)
(-0.011876 0.0762776 0)
(-0.0128552 0.0843387 0)
(-0.0146881 0.0934611 0)
(-0.0155925 0.103283 0)
(-0.017878 0.11446 0)
(-0.0191998 0.126531 0)
(-0.021426 0.140102 0)
(-0.0236188 0.155095 0)
(-0.0257897 0.171583 0)
(-0.0288501 0.190032 0)
(-0.0323451 0.209294 0)
(-0.0372161 0.232039 0)
(-0.0406337 0.256414 0)
(-0.0445781 0.283396 0)
(-0.0493465 0.313325 0)
(-0.0545963 0.346469 0)
(-0.0602919 0.383164 0)
(-0.0665878 0.423783 0)
(-0.073594 0.468773 0)
(-0.0813773 0.518592 0)
(-0.0899986 0.573778 0)
(-0.0995525 0.634895 0)
(-0.110139 0.702608 0)
(-0.121888 0.777624 0)
(-0.134945 0.860811 0)
(-0.14951 0.953172 0)
(-0.165821 1.05567 0)
(-0.184072 1.16946 0)
(-0.204445 1.29587 0)
(-0.227196 1.43636 0)
(-0.252577 1.59255 0)
(-0.280798 1.76628 0)
(-0.312069 1.95942 0)
(-0.346501 2.17422 0)
(-0.383995 2.41307 0)
(-0.424148 2.67818 0)
(-0.465716 2.97151 0)
(-0.507345 3.29574 0)
(-0.544886 3.65091 0)
(-0.570349 4.03442 0)
(-0.571694 4.43838 0)
(-0.524436 4.8483 0)
(-0.446494 5.24037 0)
(-0.222182 5.13574 0)
(1.02418e-06 0.000222583 0)
(-7.02919e-07 0.000326574 0)
(-1.91125e-06 0.000433373 0)
(-4.98492e-06 0.00053884 0)
(-8.65387e-06 0.000639156 0)
(-1.28768e-05 0.000732093 0)
(-1.75807e-05 0.000815805 0)
(-2.27945e-05 0.000889451 0)
(-2.76455e-05 0.000952356 0)
(-3.25628e-05 0.00100489 0)
(-3.76687e-05 0.00104807 0)
(-4.32822e-05 0.00108471 0)
(-4.91921e-05 0.00111777 0)
(-5.46062e-05 0.00115079 0)
(-6.01997e-05 0.00118739 0)
(-6.69067e-05 0.00123252 0)
(-7.35123e-05 0.00129022 0)
(-8.04221e-05 0.00136529 0)
(-8.81285e-05 0.0014617 0)
(-9.59191e-05 0.00158487 0)
(-0.000104222 0.00173804 0)
(-0.000113654 0.00192496 0)
(-0.000123838 0.00214732 0)
(-0.000135186 0.00240904 0)
(-0.00014841 0.00271124 0)
(-0.000161624 0.00305821 0)
(-0.000183839 0.00344791 0)
(-0.000190286 0.00388673 0)
(-0.00024595 0.00437276 0)
(-0.000206611 0.00490783 0)
(-0.000292552 0.00550256 0)
(-0.000284673 0.0061451 0)
(-0.000324776 0.00685592 0)
(-0.000395595 0.00762076 0)
(-0.000356683 0.00846283 0)
(-0.000528189 0.00937665 0)
(-0.000425642 0.0103779 0)
(-0.000644812 0.0114746 0)
(-0.000568054 0.0126711 0)
(-0.000725486 0.0139937 0)
(-0.000800899 0.0154436 0)
(-0.000783548 0.0170449 0)
(-0.00108855 0.0188193 0)
(-0.000878015 0.0207653 0)
(-0.00137361 0.022953 0)
(-0.00110369 0.0253296 0)
(-0.00157793 0.0280271 0)
(-0.00153069 0.0309473 0)
(-0.00168618 0.0342622 0)
(-0.00214571 0.0378655 0)
(-0.00179757 0.041925 0)
(-0.00281198 0.0463709 0)
(-0.00212974 0.0513406 0)
(-0.00333667 0.0568068 0)
(-0.00288339 0.0629077 0)
(-0.00363343 0.0695815 0)
(-0.00407863 0.0771025 0)
(-0.00384394 0.0851886 0)
(-0.00555089 0.0945074 0)
(-0.00423813 0.104252 0)
(-0.00701776 0.115805 0)
(-0.00522415 0.127588 0)
(-0.00797057 0.141779 0)
(-0.00731898 0.156276 0)
(-0.00779919 0.173465 0)
(-0.0103006 0.192006 0)
(-0.00575611 0.212199 0)
(-0.0121488 0.234046 0)
(-0.0147543 0.259506 0)
(-0.0162331 0.286839 0)
(-0.0177768 0.316905 0)
(-0.0194096 0.350393 0)
(-0.0211488 0.387544 0)
(-0.0230647 0.428627 0)
(-0.0252113 0.474047 0)
(-0.0276274 0.524301 0)
(-0.0303548 0.57993 0)
(-0.0334259 0.641568 0)
(-0.0368992 0.709922 0)
(-0.0407745 0.785798 0)
(-0.04499 0.870005 0)
(-0.0497472 0.963391 0)
(-0.0552106 1.06711 0)
(-0.06132 1.18234 0)
(-0.0681444 1.31033 0)
(-0.075761 1.45252 0)
(-0.0842409 1.6105 0)
(-0.0936682 1.78603 0)
(-0.104089 1.98102 0)
(-0.11556 2.19759 0)
(-0.128041 2.43781 0)
(-0.141374 2.70368 0)
(-0.155268 2.9969 0)
(-0.16912 3.31882 0)
(-0.181357 3.668 0)
(-0.189043 4.04004 0)
(-0.186572 4.42492 0)
(-0.162697 4.79933 0)
(-0.0889435 5.14788 0)
(-0.00338394 5.2104 0)
(-5.66426e-06 5.13799e-06 0)
(-1.77096e-05 8.58553e-06 0)
(-4.00773e-05 1.12884e-05 0)
(-7.6169e-05 1.66058e-05 0)
(-0.000119992 2.26482e-05 0)
(-0.000174984 2.91209e-05 0)
(-0.000240652 3.5924e-05 0)
(-0.000316992 4.14811e-05 0)
(-0.000402707 4.66771e-05 0)
(-0.000495743 5.2061e-05 0)
(-0.000595666 5.52138e-05 0)
(-0.000698551 5.37556e-05 0)
(-0.000799864 5.29459e-05 0)
(-0.000900674 5.30296e-05 0)
(-0.00100322 5.28094e-05 0)
(-0.00110781 5.07441e-05 0)
(-0.00121411 4.93903e-05 0)
(-0.00132389 4.93762e-05 0)
(-0.00143967 5.2097e-05 0)
(-0.00156483 5.79875e-05 0)
(-0.0017031 6.74702e-05 0)
(-0.00185855 7.90721e-05 0)
(-0.00203452 9.34303e-05 0)
(-0.00223766 0.000112875 0)
(-0.00247022 0.000132078 0)
(-0.00273478 0.000150889 0)
(-0.00303152 0.000173094 0)
(-0.00337931 0.000195374 0)
(-0.00375211 0.000213018 0)
(-0.0041637 0.000226812 0)
(-0.00461339 0.000244146 0)
(-0.00511332 0.000265017 0)
(-0.00566274 0.000291669 0)
(-0.00627924 0.000322314 0)
(-0.00695354 0.00035924 0)
(-0.00770555 0.000400847 0)
(-0.00854393 0.000449249 0)
(-0.00945153 0.000483181 0)
(-0.0104376 0.000523777 0)
(-0.0115371 0.00058707 0)
(-0.012775 0.000680984 0)
(-0.0141716 0.000793907 0)
(-0.0157408 0.00090507 0)
(-0.0174834 0.00100629 0)
(-0.0194286 0.00110136 0)
(-0.02154 0.00119716 0)
(-0.0238845 0.00130837 0)
(-0.0264734 0.00144935 0)
(-0.0293085 0.00161036 0)
(-0.0324467 0.0017832 0)
(-0.0359039 0.00196841 0)
(-0.0397789 0.00219231 0)
(-0.0440853 0.00245277 0)
(-0.0489149 0.00273029 0)
(-0.0542851 0.0030312 0)
(-0.0602344 0.00334003 0)
(-0.0668728 0.00369647 0)
(-0.0741368 0.00406523 0)
(-0.0822484 0.00441003 0)
(-0.0911276 0.00495659 0)
(-0.100995 0.005498 0)
(-0.111962 0.00610469 0)
(-0.123969 0.00669566 0)
(-0.137276 0.00744418 0)
(-0.152387 0.00823841 0)
(-0.168193 0.00922326 0)
(-0.186989 0.00997935 0)
(-0.208662 0.013502 0)
(-0.23042 0.0149794 0)
(-0.256079 0.015157 0)
(-0.283741 0.0169583 0)
(-0.313216 0.0147901 0)
(-0.345569 0.0160595 0)
(-0.381145 0.0199941 0)
(-0.421987 0.0243898 0)
(-0.467338 0.0249583 0)
(-0.517772 0.0291619 0)
(-0.573487 0.0325569 0)
(-0.634785 0.0355134 0)
(-0.702519 0.040143 0)
(-0.776829 0.0429594 0)
(-0.858113 0.046047 0)
(-0.946964 0.0497819 0)
(-1.04414 0.0541678 0)
(-1.15043 0.0591685 0)
(-1.2666 0.0647292 0)
(-1.39373 0.0711806 0)
(-1.53371 0.0788646 0)
(-1.68845 0.0867151 0)
(-1.85833 0.0935944 0)
(-2.04247 0.0998702 0)
(-2.24351 0.106392 0)
(-2.43884 0.117841 0)
(-2.70958 0.132802 0)
(-2.94541 0.134412 0)
(-3.19415 0.125107 0)
(-3.44928 0.120577 0)
(-3.70642 0.119352 0)
(-3.96517 0.115215 0)
(-4.2185 0.105914 0)
(-4.45399 0.0904502 0)
(-4.6564 0.0673669 0)
(-2.50393e-06 1.37043e-05 0)
(-1.5077e-05 2.10998e-05 0)
(-1.871e-05 6.17975e-05 0)
(-7.43912e-05 6.16078e-05 0)
(-0.000115123 7.93522e-05 0)
(-0.000167033 9.3085e-05 0)
(-0.000228055 0.000101821 0)
(-0.00029574 0.00012126 0)
(-0.000370637 0.000126805 0)
(-0.000455078 0.00014244 0)
(-0.000549207 0.000150177 0)
(-0.00064615 0.0001441 0)
(-0.000740762 0.00014407 0)
(-0.000839713 0.000149013 0)
(-0.000945615 0.000154915 0)
(-0.00105551 0.000160413 0)
(-0.00116776 0.000167777 0)
(-0.00128428 0.000176804 0)
(-0.00140707 0.000189105 0)
(-0.00153837 0.000205582 0)
(-0.00168074 0.000228012 0)
(-0.00183695 0.000254221 0)
(-0.00200672 0.000286262 0)
(-0.00219978 0.000323235 0)
(-0.00241903 0.000367268 0)
(-0.00266236 0.00041839 0)
(-0.00293429 0.000470074 0)
(-0.00324354 0.000523226 0)
(-0.00359245 0.000578763 0)
(-0.00397813 0.000641558 0)
(-0.00440595 0.000715517 0)
(-0.00488532 0.000795393 0)
(-0.00542308 0.00088325 0)
(-0.00602418 0.000977915 0)
(-0.00669565 0.00108352 0)
(-0.00744212 0.00119974 0)
(-0.00828524 0.00133455 0)
(-0.00921058 0.001473 0)
(-0.0102082 0.00163624 0)
(-0.0112963 0.00180813 0)
(-0.0125002 0.00199718 0)
(-0.013847 0.00221859 0)
(-0.0153619 0.00246938 0)
(-0.01704 0.00273353 0)
(-0.0188985 0.00301849 0)
(-0.0209335 0.00333361 0)
(-0.0232535 0.0036806 0)
(-0.0257981 0.00409174 0)
(-0.0285725 0.00443358 0)
(-0.0317408 0.00491993 0)
(-0.0350856 0.00549503 0)
(-0.0389431 0.00613068 0)
(-0.0430093 0.00686532 0)
(-0.0477185 0.00765831 0)
(-0.0528194 0.00853866 0)
(-0.0585325 0.00949868 0)
(-0.0650033 0.0105343 0)
(-0.0718561 0.0117046 0)
(-0.0800247 0.0129234 0)
(-0.0883961 0.0143511 0)
(-0.0983058 0.0158575 0)
(-0.108873 0.0175892 0)
(-0.120543 0.0194961 0)
(-0.133921 0.0216257 0)
(-0.148149 0.024061 0)
(-0.164324 0.0267524 0)
(-0.181548 0.0300785 0)
(-0.201276 0.0330526 0)
(-0.219487 0.036609 0)
(-0.243372 0.0401216 0)
(-0.272071 0.0432672 0)
(-0.29805 0.0500349 0)
(-0.33511 0.0570097 0)
(-0.377632 0.0580051 0)
(-0.415324 0.0662243 0)
(-0.460223 0.0735291 0)
(-0.510059 0.0810442 0)
(-0.564314 0.0891353 0)
(-0.623745 0.0980193 0)
(-0.689163 0.107758 0)
(-0.761005 0.118479 0)
(-0.84025 0.130228 0)
(-0.927792 0.142908 0)
(-1.0243 0.156524 0)
(-1.13041 0.171161 0)
(-1.24639 0.187204 0)
(-1.37408 0.205389 0)
(-1.51428 0.227275 0)
(-1.66968 0.250781 0)
(-1.83924 0.274154 0)
(-2.02519 0.294323 0)
(-2.21908 0.311851 0)
(-2.41978 0.336046 0)
(-2.65117 0.369494 0)
(-2.86655 0.388258 0)
(-3.13126 0.391104 0)
(-3.41142 0.400687 0)
(-3.71158 0.411937 0)
(-4.02371 0.412524 0)
(-4.33323 0.395753 0)
(-4.62729 0.357599 0)
(-4.89126 0.295389 0)
(-3.60715e-06 1.75195e-05 0)
(-1.09738e-05 4.14758e-05 0)
(-2.66886e-05 6.99927e-05 0)
(-4.67238e-05 9.38849e-05 0)
(-8.54056e-05 0.000119878 0)
(-0.000132292 0.000148045 0)
(-0.000196155 0.000173195 0)
(-0.00027023 0.000197135 0)
(-0.000330091 0.000215898 0)
(-0.000438536 0.000226325 0)
(-0.000457311 0.000255414 0)
(-0.000604661 0.000262767 0)
(-0.000729448 0.000268185 0)
(-0.000839654 0.000271917 0)
(-0.000953275 0.000276583 0)
(-0.00106799 0.000273533 0)
(-0.00118277 0.000281841 0)
(-0.00129978 0.000295116 0)
(-0.00141974 0.000313976 0)
(-0.00154881 0.000337837 0)
(-0.00167904 0.000369451 0)
(-0.0018231 0.000410282 0)
(-0.00198166 0.000452259 0)
(-0.00215867 0.000554666 0)
(-0.00235782 0.00058977 0)
(-0.00258249 0.000670136 0)
(-0.00283861 0.00076412 0)
(-0.00313169 0.000881008 0)
(-0.00345628 0.000954646 0)
(-0.00381541 0.00103515 0)
(-0.00422279 0.00115241 0)
(-0.00468663 0.0012894 0)
(-0.00520958 0.00144123 0)
(-0.00579492 0.00160803 0)
(-0.00644839 0.00179295 0)
(-0.00717524 0.00199069 0)
(-0.00798459 0.00225681 0)
(-0.00887657 0.00231641 0)
(-0.00987365 0.00254112 0)
(-0.010975 0.00287574 0)
(-0.0121612 0.00325936 0)
(-0.0134626 0.00365232 0)
(-0.0149277 0.00407484 0)
(-0.0165619 0.00453811 0)
(-0.0183616 0.00503685 0)
(-0.0203479 0.00558165 0)
(-0.0225467 0.00617845 0)
(-0.0249817 0.0068406 0)
(-0.0276887 0.00754807 0)
(-0.0306903 0.00830511 0)
(-0.033975 0.00916166 0)
(-0.0375754 0.0101571 0)
(-0.0415511 0.0112929 0)
(-0.0459585 0.012557 0)
(-0.0508468 0.0139444 0)
(-0.0562709 0.0154716 0)
(-0.0622996 0.0171421 0)
(-0.0689962 0.0189726 0)
(-0.0764262 0.0209797 0)
(-0.0846631 0.0232024 0)
(-0.0937902 0.0256704 0)
(-0.103901 0.0283782 0)
(-0.115101 0.03136 0)
(-0.127469 0.0346456 0)
(-0.141153 0.0382317 0)
(-0.156 0.0421223 0)
(-0.173292 0.0462552 0)
(-0.188903 0.0503189 0)
(-0.212352 0.0592731 0)
(-0.235226 0.0657717 0)
(-0.260772 0.0716378 0)
(-0.286767 0.0791997 0)
(-0.318881 0.0861785 0)
(-0.354947 0.0963994 0)
(-0.392517 0.107551 0)
(-0.433394 0.119097 0)
(-0.478637 0.131544 0)
(-0.5288 0.144994 0)
(-0.584492 0.159512 0)
(-0.646238 0.175491 0)
(-0.714622 0.193132 0)
(-0.79052 0.21256 0)
(-0.874787 0.233708 0)
(-0.968042 0.256722 0)
(-1.07109 0.28102 0)
(-1.18312 0.307149 0)
(-1.30521 0.336737 0)
(-1.44134 0.372067 0)
(-1.58173 0.409193 0)
(-1.74335 0.448711 0)
(-1.90841 0.482463 0)
(-2.09768 0.511272 0)
(-2.30483 0.553232 0)
(-2.56818 0.599733 0)
(-2.7449 0.641763 0)
(-3.10271 0.682279 0)
(-3.41047 0.717993 0)
(-3.7281 0.742817 0)
(-4.0629 0.747671 0)
(-4.40449 0.725374 0)
(-4.74089 0.667939 0)
(-5.05852 0.569626 0)
(-2.94272e-06 2.42886e-05 0)
(-1.37828e-05 4.74369e-05 0)
(-1.85475e-05 9.42031e-05 0)
(-5.10617e-05 0.000127404 0)
(-7.86485e-05 0.000170671 0)
(-0.000130537 0.000201721 0)
(-0.000183079 0.000240343 0)
(-0.000244207 0.000258023 0)
(-0.000324789 0.000265566 0)
(-0.00040657 0.000334236 0)
(-0.000500307 0.000340511 0)
(-0.00059245 0.000359676 0)
(-0.00068312 0.000375781 0)
(-0.000782513 0.000383043 0)
(-0.000889253 0.000387737 0)
(-0.00100562 0.00039444 0)
(-0.00112241 0.000404645 0)
(-0.00124539 0.000420647 0)
(-0.00137092 0.000439448 0)
(-0.00149978 0.000472255 0)
(-0.00164174 0.000514142 0)
(-0.00178265 0.000568446 0)
(-0.00194953 0.000632131 0)
(-0.00211143 0.000711184 0)
(-0.00230885 0.000803067 0)
(-0.00249314 0.000909792 0)
(-0.00277322 0.00102551 0)
(-0.00293912 0.00115569 0)
(-0.00328809 0.00129944 0)
(-0.00367512 0.00146115 0)
(-0.00409384 0.00163383 0)
(-0.004568 0.00182404 0)
(-0.00508863 0.00203073 0)
(-0.00566581 0.00225732 0)
(-0.00629879 0.00250929 0)
(-0.00699753 0.00278154 0)
(-0.00775977 0.00309166 0)
(-0.00858762 0.00341787 0)
(-0.00961649 0.00381027 0)
(-0.010636 0.0040575 0)
(-0.0117509 0.00444826 0)
(-0.0130052 0.0051095 0)
(-0.0143615 0.00572265 0)
(-0.0158879 0.0062715 0)
(-0.0175563 0.0069018 0)
(-0.01942 0.00763436 0)
(-0.0214992 0.00844426 0)
(-0.0238253 0.00939334 0)
(-0.026471 0.0104167 0)
(-0.0293178 0.0113891 0)
(-0.0323637 0.0124828 0)
(-0.0357329 0.0138087 0)
(-0.0395191 0.0153543 0)
(-0.0437456 0.0170932 0)
(-0.0484313 0.0190258 0)
(-0.0536168 0.0211597 0)
(-0.0593774 0.0235385 0)
(-0.0657643 0.0261207 0)
(-0.0728049 0.028942 0)
(-0.0805772 0.0320622 0)
(-0.0891779 0.0355142 0)
(-0.0986923 0.0393235 0)
(-0.109205 0.0435369 0)
(-0.120807 0.0481893 0)
(-0.13358 0.0532752 0)
(-0.147684 0.0589766 0)
(-0.163513 0.0652231 0)
(-0.181486 0.0721388 0)
(-0.201229 0.0798851 0)
(-0.22234 0.0884725 0)
(-0.245776 0.0976678 0)
(-0.273491 0.10745 0)
(-0.301309 0.117313 0)
(-0.330209 0.130297 0)
(-0.364803 0.145034 0)
(-0.403401 0.160882 0)
(-0.445842 0.178221 0)
(-0.492383 0.197109 0)
(-0.543801 0.217496 0)
(-0.600599 0.239871 0)
(-0.663556 0.264833 0)
(-0.733761 0.292553 0)
(-0.811851 0.322619 0)
(-0.899578 0.355682 0)
(-0.994601 0.389755 0)
(-1.10097 0.424946 0)
(-1.2161 0.46522 0)
(-1.35232 0.50954 0)
(-1.46977 0.55891 0)
(-1.64846 0.610512 0)
(-1.76064 0.666721 0)
(-2.03689 0.729366 0)
(-2.2556 0.797 0)
(-2.49139 0.859063 0)
(-2.75901 0.923894 0)
(-3.04568 0.995295 0)
(-3.3522 1.05307 0)
(-3.68794 1.09094 0)
(-4.05137 1.10621 0)
(-4.43435 1.0898 0)
(-4.82515 1.02368 0)
(-5.20549 0.897081 0)
(-2.60824e-06 3.08459e-05 0)
(-1.27808e-05 5.89435e-05 0)
(-2.04161e-05 0.000112192 0)
(-4.70059e-05 0.000157956 0)
(-8.04118e-05 0.000205715 0)
(-0.000122306 0.000252707 0)
(-0.000177483 0.000295293 0)
(-0.00023408 0.000337919 0)
(-0.000311695 0.000371906 0)
(-0.000394289 0.000402323 0)
(-0.000476505 0.000430576 0)
(-0.000562354 0.000456702 0)
(-0.000655124 0.000476047 0)
(-0.000752686 0.000489451 0)
(-0.000853857 0.000501282 0)
(-0.000959997 0.000513655 0)
(-0.00107058 0.000528984 0)
(-0.00118521 0.000549793 0)
(-0.001305 0.000576906 0)
(-0.00143098 0.000613502 0)
(-0.00156403 0.00066153 0)
(-0.00170542 0.000723155 0)
(-0.00185837 0.000800175 0)
(-0.0020238 0.000896217 0)
(-0.00220782 0.00100311 0)
(-0.00240003 0.00112824 0)
(-0.00263758 0.00126677 0)
(-0.002893 0.00142837 0)
(-0.00318515 0.00162228 0)
(-0.00351413 0.00183409 0)
(-0.00383388 0.00205646 0)
(-0.00431669 0.0022993 0)
(-0.00469624 0.00255584 0)
(-0.00532469 0.00284884 0)
(-0.00581403 0.00315334 0)
(-0.00654529 0.00350216 0)
(-0.00724136 0.00387563 0)
(-0.00801681 0.00427108 0)
(-0.00901431 0.00473318 0)
(-0.00984095 0.00518371 0)
(-0.0112114 0.00577955 0)
(-0.0122274 0.00632836 0)
(-0.0137855 0.00706527 0)
(-0.0150463 0.00776696 0)
(-0.0167019 0.00864434 0)
(-0.0185825 0.00961652 0)
(-0.0202367 0.0105899 0)
(-0.022843 0.0117906 0)
(-0.0241359 0.0130631 0)
(-0.0272034 0.0144639 0)
(-0.0306203 0.0160278 0)
(-0.0341625 0.0177663 0)
(-0.0380531 0.0196837 0)
(-0.0423068 0.0218068 0)
(-0.0469243 0.0241521 0)
(-0.0519116 0.0267571 0)
(-0.0574076 0.0296209 0)
(-0.0634938 0.0327676 0)
(-0.0700993 0.0362749 0)
(-0.077355 0.0401588 0)
(-0.085372 0.0444442 0)
(-0.0942345 0.049166 0)
(-0.104042 0.0543825 0)
(-0.114912 0.0601185 0)
(-0.126743 0.0664239 0)
(-0.140971 0.0734253 0)
(-0.155405 0.0812148 0)
(-0.171678 0.0899222 0)
(-0.189607 0.0998904 0)
(-0.209299 0.110857 0)
(-0.2313 0.122744 0)
(-0.25608 0.136426 0)
(-0.282453 0.152471 0)
(-0.31121 0.167092 0)
(-0.343681 0.183282 0)
(-0.379511 0.201939 0)
(-0.419432 0.22261 0)
(-0.46071 0.245387 0)
(-0.509473 0.270744 0)
(-0.563144 0.298637 0)
(-0.622602 0.330025 0)
(-0.688689 0.36541 0)
(-0.761151 0.403717 0)
(-0.842896 0.444711 0)
(-0.917611 0.48912 0)
(-1.0329 0.538316 0)
(-1.14619 0.592457 0)
(-1.27145 0.649304 0)
(-1.41374 0.709507 0)
(-1.57331 0.775572 0)
(-1.74814 0.855187 0)
(-1.93384 0.947679 0)
(-2.13734 1.03565 0)
(-2.37012 1.12043 0)
(-2.63462 1.20998 0)
(-2.92936 1.30263 0)
(-3.25555 1.38827 0)
(-3.61887 1.46046 0)
(-4.02 1.50817 0)
(-4.46103 1.51954 0)
(-4.92697 1.45808 0)
(-5.40276 1.3114 0)
(-2.56113e-06 3.63159e-05 0)
(-1.19152e-05 6.93549e-05 0)
(-2.01815e-05 0.000129693 0)
(-4.40369e-05 0.000185953 0)
(-7.47378e-05 0.000244578 0)
(-0.000115637 0.000300048 0)
(-0.000165461 0.00035279 0)
(-0.000223016 0.000401648 0)
(-0.00029352 0.000443413 0)
(-0.000366103 0.000484658 0)
(-0.00044594 0.000518385 0)
(-0.000529712 0.000545579 0)
(-0.000619038 0.000567418 0)
(-0.000711873 0.000585114 0)
(-0.000807518 0.000600613 0)
(-0.000907066 0.000616511 0)
(-0.00101021 0.000635712 0)
(-0.00111693 0.000660729 0)
(-0.00122797 0.000693869 0)
(-0.00134444 0.000738134 0)
(-0.00146764 0.000795822 0)
(-0.00159929 0.00086897 0)
(-0.00174175 0.000958994 0)
(-0.00189708 0.00106798 0)
(-0.00206859 0.00119494 0)
(-0.00226021 0.00134329 0)
(-0.00247536 0.00151423 0)
(-0.00271803 0.00171051 0)
(-0.00298947 0.00193399 0)
(-0.00329771 0.00217463 0)
(-0.00362648 0.00243994 0)
(-0.00402411 0.00272953 0)
(-0.00443987 0.00304751 0)
(-0.00495734 0.00339862 0)
(-0.00547072 0.00377467 0)
(-0.00611992 0.00419599 0)
(-0.00677166 0.00464246 0)
(-0.007554 0.00513959 0)
(-0.0083956 0.00567339 0)
(-0.00932945 0.00625592 0)
(-0.0104129 0.00691397 0)
(-0.0115346 0.00765258 0)
(-0.0128393 0.00849787 0)
(-0.0141902 0.00939011 0)
(-0.0157611 0.0103876 0)
(-0.0174247 0.0114513 0)
(-0.0192958 0.0126481 0)
(-0.0213819 0.0139219 0)
(-0.0237282 0.0153767 0)
(-0.0262509 0.0171693 0)
(-0.0289445 0.0191729 0)
(-0.0318437 0.021274 0)
(-0.0351793 0.0235582 0)
(-0.0388972 0.0260516 0)
(-0.042962 0.0288228 0)
(-0.0476084 0.0317233 0)
(-0.0523247 0.0357293 0)
(-0.0582252 0.0390135 0)
(-0.0642913 0.0430046 0)
(-0.0711732 0.0476141 0)
(-0.0786576 0.0526505 0)
(-0.0870095 0.0582703 0)
(-0.0962534 0.0644831 0)
(-0.106286 0.0712309 0)
(-0.117751 0.079074 0)
(-0.130046 0.0875073 0)
(-0.143699 0.0967558 0)
(-0.158962 0.107077 0)
(-0.175817 0.118617 0)
(-0.194329 0.13137 0)
(-0.214133 0.145396 0)
(-0.237928 0.16088 0)
(-0.255943 0.177968 0)
(-0.285762 0.196297 0)
(-0.317916 0.21663 0)
(-0.352983 0.239335 0)
(-0.392922 0.264253 0)
(-0.436503 0.291687 0)
(-0.485623 0.322157 0)
(-0.536658 0.355801 0)
(-0.599383 0.392765 0)
(-0.656292 0.432979 0)
(-0.722708 0.477088 0)
(-0.795465 0.52501 0)
(-0.883449 0.579708 0)
(-0.977513 0.642033 0)
(-1.08041 0.708608 0)
(-1.19632 0.779304 0)
(-1.32738 0.856992 0)
(-1.47449 0.943258 0)
(-1.63875 1.03965 0)
(-1.82157 1.14425 0)
(-2.02573 1.25322 0)
(-2.2563 1.36855 0)
(-2.51854 1.49225 0)
(-2.81633 1.62165 0)
(-3.15408 1.75032 0)
(-3.53993 1.86876 0)
(-3.97679 1.96212 0)
(-4.48692 2.0223 0)
(-5.03895 1.9893 0)
(-5.66472 1.87537 0)
(-2.34692e-06 4.15042e-05 0)
(-1.12243e-05 7.90752e-05 0)
(-1.94813e-05 0.000145886 0)
(-3.98368e-05 0.000213241 0)
(-6.96621e-05 0.000279528 0)
(-0.00010625 0.000344873 0)
(-0.000153234 0.000405679 0)
(-0.000205694 0.000464184 0)
(-0.000269419 0.000515491 0)
(-0.000337645 0.000561955 0)
(-0.000412571 0.000600487 0)
(-0.000492585 0.000631892 0)
(-0.000574803 0.000658226 0)
(-0.000660613 0.000679965 0)
(-0.00074988 0.000698827 0)
(-0.000842161 0.000718084 0)
(-0.000937447 0.000740229 0)
(-0.00103601 0.000769167 0)
(-0.00113844 0.000806563 0)
(-0.00124565 0.000856589 0)
(-0.00135896 0.000920795 0)
(-0.00148029 0.00100294 0)
(-0.00161171 0.00110366 0)
(-0.00175526 0.00122657 0)
(-0.00191367 0.00137134 0)
(-0.00209065 0.00154148 0)
(-0.00228906 0.00173641 0)
(-0.00251403 0.00195996 0)
(-0.00276233 0.0022105 0)