/*--------------------------------*- C++ -*----------------------------------*\
| =========                 |                                                 |
| \\      /  F ield         | OpenFOAM: The Open Source CFD Toolbox           |
|  \\    /   O peration     | Version:  2206                                  |
|   \\  /    A nd           | Website:  www.openfoam.com                      |
|    \\/     M anipulation  |                                                 |
\*---------------------------------------------------------------------------*/
FoamFile
{
    version     2.0;
    format      ascii;
    arch        "LSB;label=32;scalar=64";
    class       surfaceScalarField;
    location    "18.9999";
    object      phi_0;
}
// * * * * * * * * * * * * * * * * * * * * * * * * * * * * * * * * * * * * * //

dimensions      [0 3 -1 0 0 0 0];

oriented        oriented;

internalField   nonuniform List<scalar> 
3492
(
6.11187e-06
9.18965e-07
-1.06909e-06
6.2635e-06
9.10835e-07
-1.06247e-06
6.4149e-06
8.70854e-07
-1.02225e-06
6.56587e-06
8.01199e-07
-9.52169e-07
6.71785e-06
7.03732e-07
-8.55713e-07
6.87289e-06
5.80088e-07
-7.35128e-07
7.03239e-06
4.31391e-07
-5.90893e-07
7.19223e-06
2.64197e-07
-4.24034e-07
7.34334e-06
8.72552e-08
-2.3836e-07
7.47428e-06
-8.47649e-08
-4.61758e-08
7.57585e-06
-2.40157e-07
1.38587e-07
7.64039e-06
-3.70792e-07
3.06248e-07
7.66755e-06
-4.76413e-07
4.49259e-07
7.65677e-06
-5.54293e-07
5.65074e-07
7.59882e-06
-5.95819e-07
6.5376e-07
7.48471e-06
-5.96941e-07
7.1106e-07
7.31959e-06
-5.68291e-07
7.33406e-07
7.1186e-06
-5.25976e-07
7.26969e-07
6.89998e-06
-4.83209e-07
7.0183e-07
6.68119e-06
-4.50557e-07
6.6934e-07
6.47548e-06
-4.33061e-07
6.38773e-07
6.291e-06
-4.2957e-07
6.14054e-07
6.13172e-06
-4.3466e-07
5.93932e-07
5.99808e-06
-4.40745e-07
5.74387e-07
5.88828e-06
-4.40029e-07
5.49837e-07
5.79998e-06
-4.25687e-07
5.13985e-07
5.73179e-06
-3.92683e-07
4.60875e-07
5.68277e-06
-3.3898e-07
3.87997e-07
5.65247e-06
-2.65855e-07
2.96155e-07
5.64056e-06
-1.76306e-07
1.88215e-07
5.64665e-06
-7.53882e-08
6.92934e-08
5.66974e-06
3.0422e-08
-5.35041e-08
5.70785e-06
1.33877e-07
-1.71987e-07
5.75907e-06
2.28804e-07
-2.80025e-07
5.82133e-06
3.10566e-07
-3.72832e-07
5.89272e-06
3.75531e-07
-4.46921e-07
5.97156e-06
4.21082e-07
-4.99924e-07
6.05621e-06
4.45732e-07
-5.3038e-07
6.14486e-06
4.48907e-07
-5.37554e-07
6.23583e-06
4.30515e-07
-5.21484e-07
6.32769e-06
3.90867e-07
-4.82727e-07
6.41934e-06
3.31113e-07
-4.22766e-07
6.50988e-06
2.53384e-07
-3.43924e-07
6.59707e-06
1.61787e-07
-2.48977e-07
6.67648e-06
6.20723e-08
-1.41478e-07
6.7424e-06
-3.89933e-08
-2.69347e-08
6.79016e-06
-1.35922e-07
8.81688e-08
6.81618e-06
-2.24261e-07
1.98242e-07
6.81744e-06
-3.00016e-07
2.98753e-07
6.78985e-06
-3.58433e-07
3.86022e-07
6.73139e-06
-3.97613e-07
4.56069e-07
6.64407e-06
-4.17865e-07
5.05185e-07
6.53443e-06
-4.22905e-07
5.32551e-07
6.41212e-06
-4.18035e-07
5.40342e-07
6.28732e-06
-4.08394e-07
5.332e-07
6.16761e-06
-3.97055e-07
5.16761e-07
6.05711e-06
-3.85048e-07
4.95547e-07
5.95767e-06
-3.72246e-07
4.71689e-07
5.86986e-06
-3.57535e-07
4.45346e-07
5.79361e-06
-3.39232e-07
4.15474e-07
5.72877e-06
-3.15579e-07
3.80427e-07
5.67532e-06
-2.85154e-07
3.38603e-07
5.63353e-06
-2.47091e-07
2.88878e-07
5.60369e-06
-2.01289e-07
2.31127e-07
5.58583e-06
-1.48566e-07
1.6643e-07
5.57983e-06
-9.04724e-08
9.64734e-08
5.58515e-06
-2.95125e-08
2.41931e-08
5.6008e-06
3.10583e-08
-4.67149e-08
5.62567e-06
8.81329e-08
-1.12997e-07
5.65847e-06
1.39022e-07
-1.71829e-07
5.69797e-06
1.81474e-07
-2.20974e-07
5.74303e-06
2.13759e-07
-2.58814e-07
5.79251e-06
2.34827e-07
-2.84308e-07
5.8453e-06
2.44112e-07
-2.96907e-07
5.90042e-06
2.41338e-07
-2.96451e-07
5.95696e-06
2.26533e-07
-2.83077e-07
6.0139e-06
2.0018e-07
-2.57114e-07
6.06971e-06
1.63596e-07
-2.19409e-07
6.12202e-06
1.19086e-07
-1.71399e-07
6.16778e-06
6.94174e-08
-1.15177e-07
6.20391e-06
1.73714e-08
-5.34969e-08
6.22808e-06
-3.46828e-08
1.05082e-08
6.23878e-06
-8.45789e-08
7.38759e-08
6.23496e-06
-1.30175e-07
1.34002e-07
6.2158e-06
-1.69299e-07
1.8846e-07
6.18167e-06
-2.00808e-07
2.34936e-07
6.13431e-06
-2.24426e-07
2.71781e-07
6.07667e-06
-2.40784e-07
2.98428e-07
6.01235e-06
-2.50837e-07
3.15162e-07
5.94494e-06
-2.55595e-07
3.23006e-07
5.87755e-06
-2.55912e-07
3.23302e-07
5.81244e-06
-2.52254e-07
3.17359e-07
5.75117e-06
-2.44606e-07
3.05877e-07
5.69496e-06
-2.32703e-07
2.88914e-07
5.64477e-06
-2.16253e-07
2.66443e-07
5.60138e-06
-1.9509e-07
2.38472e-07
5.56555e-06
-1.69186e-07
2.05022e-07
5.53796e-06
-1.38714e-07
1.66303e-07
5.51915e-06
-1.04136e-07
1.22947e-07
5.50934e-06
-6.631e-08
7.61228e-08
5.50836e-06
-2.66515e-08
2.7632e-08
5.5156e-06
1.30444e-08
-2.02892e-08
5.53035e-06
5.08949e-08
-6.56432e-08
5.5517e-06
8.51219e-08
-1.06475e-07
5.57866e-06
1.14258e-07
-1.41213e-07
5.61016e-06
1.3719e-07
-1.68693e-07
5.64514e-06
1.53204e-07
-1.88186e-07
5.68259e-06
1.61946e-07
-1.99393e-07
5.72165e-06
1.63329e-07
-2.02391e-07
5.76159e-06
1.57485e-07
-1.97426e-07
5.80158e-06
1.44789e-07
-1.84779e-07
5.84049e-06
1.26072e-07
-1.64982e-07
5.87682e-06
1.02604e-07
-1.38934e-07
5.9089e-06
7.58973e-08
-1.07972e-07
5.93518e-06
4.73416e-08
-7.3624e-08
5.95451e-06
1.81711e-08
-3.75007e-08
5.96609e-06
-1.05147e-08
-1.06322e-09
5.96953e-06
-3.77747e-08
3.43355e-08
5.96457e-06
-6.24954e-08
6.74487e-08
5.95109e-06
-8.35844e-08
9.70687e-08
-1.00455e-07
1.2201e-07
5.80995e-06
7.48149e-07
5.98618e-06
7.34604e-07
6.16602e-06
6.91015e-07
6.3499e-06
6.17319e-07
6.53921e-06
5.14422e-07
6.73413e-06
3.85166e-07
6.92828e-06
2.37244e-07
7.10936e-06
8.31087e-08
7.26361e-06
-6.6987e-08
7.38008e-06
-2.01239e-07
7.45549e-06
-3.15562e-07
7.48742e-06
-4.0273e-07
7.46552e-06
-4.54508e-07
7.38268e-06
-4.71454e-07
7.24063e-06
-4.53769e-07
7.05253e-06
-4.08839e-07
6.83651e-06
-3.52271e-07
6.61153e-06
-3.00992e-07
6.3939e-06
-2.65586e-07
6.1937e-06
-2.50357e-07
6.01589e-06
-2.55246e-07
5.86153e-06
-2.75212e-07
5.72891e-06
-3.02036e-07
5.61508e-06
-3.26916e-07
5.51714e-06
-3.42094e-07
5.43336e-06
-3.41907e-07
5.36387e-06
-3.2319e-07
5.31008e-06
-2.85192e-07
5.27349e-06
-2.29264e-07
5.25532e-06
-1.5814e-07
5.25614e-06
-7.62038e-08
5.27574e-06
1.08239e-08
5.31286e-06
9.6749e-08
5.36583e-06
1.75842e-07
5.43273e-06
2.43662e-07
5.51151e-06
2.96747e-07
5.59999e-06
3.32601e-07
5.69624e-06
3.49482e-07
5.79877e-06
3.46385e-07
5.90627e-06
3.23014e-07
6.01728e-06
2.79852e-07
6.12892e-06
2.19476e-07
6.23582e-06
1.46481e-07
6.33081e-06
6.67997e-08
6.40683e-06
-1.39447e-08
6.45879e-06
-9.09563e-08
6.48362e-06
-1.60747e-07
6.47816e-06
-2.18809e-07
6.44041e-06
-2.62259e-07
6.37214e-06
-2.90171e-07
6.27917e-06
-3.04636e-07
6.17055e-06
-3.0925e-07
6.0558e-06
-3.08148e-07
5.94241e-06
-3.04647e-07
5.83464e-06
-3.00631e-07
5.73444e-06
-2.96854e-07
5.64246e-06
-2.9306e-07
5.5585e-06
-2.88293e-07
5.48215e-06
-2.81182e-07
5.41315e-06
-2.70228e-07
5.35166e-06
-2.54089e-07
5.29832e-06
-2.31815e-07
5.25416e-06
-2.02937e-07
5.22039e-06
-1.67515e-07
5.19798e-06
-1.2616e-07
5.18753e-06
-8.00143e-08
5.18912e-06
-3.11066e-08
5.20234e-06
1.78363e-08
5.22648e-06
6.39984e-08
5.26056e-06
1.04933e-07
5.30344e-06
1.38595e-07
5.35387e-06
1.63332e-07
5.41065e-06
1.78049e-07
5.47257e-06
1.82188e-07
5.53824e-06
1.75668e-07
5.60572e-06
1.5906e-07
5.67209e-06
1.33807e-07
5.73369e-06
1.01992e-07
5.78684e-06
6.59385e-08
5.8285e-06
2.77516e-08
5.85663e-06
-1.0756e-08
5.87003e-06
-4.80756e-08
5.86792e-06
-8.24689e-08
5.85007e-06
-1.12327e-07
5.81759e-06
-1.36821e-07
5.77283e-06
-1.56052e-07
5.71898e-06
-1.7057e-07
5.65927e-06
-1.81081e-07
5.59665e-06
-1.88213e-07
5.53347e-06
-1.92414e-07
5.47141e-06
-1.93852e-07
5.4116e-06
-1.92444e-07
5.35492e-06
-1.87928e-07
5.30218e-06
-1.7996e-07
5.25416e-06
-1.68238e-07
5.21167e-06
-1.52599e-07
5.17554e-06
-1.33058e-07
5.14664e-06
-1.09815e-07
5.12577e-06
-8.3262e-08
5.11356e-06
-5.40955e-08
5.11019e-06
-2.32868e-08
5.11558e-06
7.6535e-09
5.12942e-06
3.70598e-08
5.15107e-06
6.34682e-08
5.17968e-06
8.56487e-08
5.21422e-06
1.02649e-07
5.25358e-06
1.13847e-07
5.29658e-06
1.18945e-07
5.34198e-06
1.17929e-07
5.3883e-06
1.11161e-07
5.43368e-06
9.94095e-08
5.47605e-06
8.37091e-08
5.51346e-06
6.51874e-08
5.54435e-06
4.50068e-08
5.56752e-06
2.41718e-08
5.58225e-06
3.44273e-09
5.58826e-06
-1.6526e-08
5.58528e-06
-3.47949e-08
5.57335e-06
-5.05619e-08
5.55311e-06
-6.33432e-08
-7.31282e-08
5.53114e-06
5.58967e-07
5.73246e-06
5.33287e-07
5.94394e-06
4.79528e-07
6.16452e-06
3.9674e-07
6.38874e-06
2.90206e-07
6.60386e-06
1.70048e-07
6.79205e-06
4.90496e-08
6.94054e-06
-6.5386e-08
7.04154e-06
-1.67985e-07
7.08894e-06
-2.48639e-07
7.07624e-06
-3.02858e-07
7.00049e-06
-3.26978e-07
6.8684e-06
-3.22421e-07
6.69326e-06
-2.96311e-07
6.49429e-06
-2.54801e-07
6.29317e-06
-2.07723e-07
6.10568e-06
-1.64777e-07
5.93828e-06
-1.33597e-07
5.79184e-06
-1.19143e-07
5.66462e-06
-1.2314e-07
5.55367e-06
-1.44291e-07
5.45481e-06
-1.7635e-07
5.36325e-06
-2.10477e-07
5.27589e-06
-2.39555e-07
5.19187e-06
-2.58078e-07
5.11245e-06
-2.62489e-07
5.0406e-06
-2.51331e-07
4.98017e-06
-2.24764e-07
4.93486e-06
-1.83953e-07
4.90788e-06
-1.31159e-07
4.90076e-06
-6.9085e-08
4.91414e-06
-2.55931e-09
4.94766e-06
6.32317e-08
5.00005e-06
1.23446e-07
5.06971e-06
1.74005e-07
5.1548e-06
2.11658e-07
5.25339e-06
2.3401e-07
5.36335e-06
2.39523e-07
5.48207e-06
2.27666e-07
5.60558e-06
1.99504e-07
5.72756e-06
1.5787e-07
5.8398e-06
1.0724e-07
5.93413e-06
5.21473e-08
6.00444e-06
-3.50678e-09
6.04731e-06
-5.68171e-08
6.06098e-06
-1.04622e-07
6.04435e-06
-1.44125e-07
5.99943e-06
-1.73889e-07
5.93122e-06
-1.94044e-07
5.84737e-06
-2.06323e-07
5.75579e-06
-2.13052e-07
5.66304e-06
-2.16499e-07
5.57313e-06
-2.18246e-07
5.48779e-06
-2.19301e-07
5.40735e-06
-2.20199e-07
5.33141e-06
-2.20908e-07
5.25927e-06
-2.20917e-07
5.19035e-06
-2.19373e-07
5.12443e-06
-2.15262e-07
5.06182e-06
-2.07619e-07
5.0034e-06
-1.95674e-07
4.95051e-06
-1.78927e-07
4.90479e-06
-1.57209e-07
4.86799e-06
-1.30724e-07
4.84188e-06
-1.00042e-07
4.82786e-06
-6.60018e-08
4.82672e-06
-2.99599e-08
4.83861e-06
5.9464e-09
4.86319e-06
3.94195e-08
4.89956e-06
6.8556e-08
4.94641e-06
9.17497e-08
5.00198e-06
1.07759e-07
5.06423e-06
1.15802e-07
5.13074e-06
1.15676e-07
5.19842e-06
1.07986e-07
5.26354e-06
9.39433e-08
5.32236e-06
7.49896e-08
5.37172e-06
5.26266e-08
5.40937e-06
2.82849e-08
5.43402e-06
3.10152e-09
5.44518e-06
-2.19095e-08
5.44258e-06
-4.54817e-08
5.42671e-06
-6.65953e-08
5.39904e-06
-8.46543e-08
5.36193e-06
-9.97164e-08
5.31791e-06
-1.12026e-07
5.26923e-06
-1.21889e-07
5.21774e-06
-1.29592e-07
5.16488e-06
-1.35357e-07
5.11174e-06
-1.3927e-07
5.05913e-06
-1.41237e-07
5.00774e-06
-1.41059e-07
4.9583e-06
-1.38491e-07
4.91161e-06
-1.33264e-07
4.86853e-06
-1.2516e-07
4.82999e-06
-1.14064e-07
4.79696e-06
-1.0002e-07
4.77038e-06
-8.32395e-08
4.7512e-06
-6.40803e-08
4.74015e-06
-4.30508e-08
4.73773e-06
-2.08607e-08
4.74404e-06
1.34616e-09
4.7589e-06
2.21982e-08
4.78171e-06
4.06559e-08
4.81153e-06
5.58326e-08
4.84713e-06
6.70414e-08
4.8871e-06
7.38765e-08
4.92981e-06
7.62428e-08
4.97332e-06
7.4412e-08
5.01554e-06
6.89411e-08
5.05448e-06
6.04749e-08
5.08843e-06
4.97552e-08
5.11607e-06
3.75525e-08
5.13653e-06
2.45448e-08
5.14941e-06
1.12856e-08
5.15461e-06
-1.74859e-09
5.152e-06
-1.39207e-08
5.14181e-06
-2.46046e-08
5.12475e-06
-3.3501e-08
5.10197e-06
-4.05664e-08
-4.5852e-08
5.36326e-06
3.47427e-07
5.589e-06
3.07542e-07
5.81642e-06
2.52112e-07
6.03191e-06
1.81246e-07
6.2182e-06
1.03917e-07
6.36109e-06
2.71603e-08
6.45334e-06
-4.32014e-08
6.48836e-06
-1.00404e-07
6.46329e-06
-1.42916e-07
6.38279e-06
-1.68139e-07
6.258e-06
-1.78068e-07
6.10466e-06
-1.73642e-07
5.93999e-06
-1.57744e-07
5.77898e-06
-1.35308e-07
5.63427e-06
-1.10083e-07
5.51274e-06
-8.62011e-08
5.41595e-06
-6.79797e-08
5.34076e-06
-5.84111e-08
5.28087e-06
-5.92559e-08
5.2306e-06
-7.28712e-08
5.18282e-06
-9.65027e-08
5.13116e-06
-1.24692e-07
5.07176e-06
-1.51079e-07
5.00414e-06
-1.71936e-07
4.9307e-06
-1.84633e-07
4.85574e-06
-1.8753e-07
4.78435e-06
-1.79945e-07
4.72167e-06
-1.62085e-07
4.67256e-06
-1.34845e-07
4.64105e-06
-9.9646e-08
4.63016e-06
-5.81952e-08
4.64107e-06
-1.34706e-08
4.67386e-06
3.04427e-08
4.72748e-06
6.98297e-08
4.79995e-06
1.01533e-07
4.88857e-06
1.23042e-07
4.98982e-06
1.32759e-07
5.09881e-06
1.30525e-07
5.20867e-06
1.17806e-07
5.31155e-06
9.663e-08
5.4002e-06
6.9222e-08
5.46913e-06
3.83057e-08
5.51529e-06
5.98711e-09
5.53772e-06
-2.59352e-08
5.53648e-06
-5.55776e-08
5.5134e-06
-8.15435e-08
5.47212e-06
-1.02844e-07
5.41803e-06
-1.19799e-07
5.35693e-06
-1.3294e-07
5.29353e-06
-1.42932e-07
5.23078e-06
-1.50295e-07
5.16986e-06
-1.55581e-07
5.11097e-06
-1.59352e-07
5.05372e-06
-1.62052e-07
4.99746e-06
-1.63939e-07
4.94156e-06
-1.65013e-07
4.88565e-06
-1.65001e-07
4.82972e-06
-1.63451e-07
4.77431e-06
-1.59851e-07
4.72041e-06
-1.53714e-07
4.66937e-06
-1.44633e-07
4.62277e-06
-1.32333e-07
4.58231e-06
-1.16749e-07
4.54967e-06
-9.80815e-08
4.52641e-06
-7.67869e-08
4.51394e-06
-5.35262e-08
4.51318e-06
-2.92053e-08
4.5243e-06
-5.16802e-09
4.54677e-06
1.6952e-08
4.57948e-06
3.58407e-08
4.62069e-06
5.05465e-08
4.66806e-06
6.03856e-08
4.71878e-06
6.50805e-08
4.7696e-06
6.48519e-08
4.81736e-06
6.02333e-08
4.85944e-06
5.18576e-08
4.89392e-06
4.05139e-08
4.91955e-06
2.69965e-08
4.93579e-06
1.20434e-08
4.94246e-06
-3.564e-09
4.93957e-06
-1.9022e-08
4.92765e-06
-3.35626e-08
4.90782e-06
-4.67686e-08
4.88164e-06
-5.84677e-08
4.85055e-06
-6.86294e-08
4.81582e-06
-7.72938e-08
4.77848e-06
-8.4549e-08
4.73937e-06
-9.049e-08
4.69919e-06
-9.51751e-08
4.65851e-06
-9.85908e-08
4.61789e-06
-1.00617e-07
4.5779e-06
-1.01062e-07
4.53913e-06
-9.97255e-08
4.50229e-06
-9.64228e-08
4.46814e-06
-9.10107e-08
4.43751e-06
-8.34333e-08
4.41124e-06
-7.37525e-08
4.39015e-06
-6.21486e-08
4.37501e-06
-4.89341e-08
4.36648e-06
-3.45265e-08
4.36508e-06
-1.94618e-08
4.3709e-06
-4.47083e-09
4.38356e-06
9.53589e-09
4.40238e-06
2.184e-08
4.42628e-06
3.19345e-08
4.45393e-06
3.93889e-08
4.48375e-06
4.40551e-08
4.51398e-06
4.6008e-08
4.54304e-06
4.53614e-08
4.56956e-06
4.24213e-08
4.59244e-06
3.75942e-08
4.61086e-06
3.13305e-08
4.62434e-06
2.40771e-08
4.63264e-06
1.62363e-08
4.63571e-06
8.22083e-09
4.63353e-06
4.2685e-10
4.62631e-06
-6.69582e-09
4.6146e-06
-1.28986e-08
4.59916e-06
-1.80603e-08
4.58072e-06
-2.2126e-08
-2.50906e-08
5.21702e-06
1.86704e-07
5.37138e-06
1.53184e-07
5.5073e-06
1.16192e-07
5.60839e-06
8.01583e-08
5.66709e-06
4.52101e-08
5.68171e-06
1.25379e-08
5.65557e-06
-1.70528e-08
5.59564e-06
-4.04728e-08
5.51024e-06
-5.75174e-08
5.40981e-06
-6.77142e-08
5.3047e-06
-7.29583e-08
5.20377e-06
-7.27104e-08
5.11408e-06
-6.80557e-08
5.03972e-06
-6.09438e-08
4.98283e-06
-5.31997e-08
4.94337e-06
-4.67349e-08
4.91849e-06
-4.31003e-08
4.9037e-06
-4.36255e-08
4.894e-06
-4.9551e-08
4.88363e-06
-6.25016e-08
4.8657e-06
-7.85761e-08
4.83581e-06
-9.47995e-08
4.7933e-06
-1.08568e-07
4.73981e-06
-1.18451e-07
4.67883e-06
-1.23644e-07
4.61498e-06
-1.23681e-07
4.55331e-06
-1.18275e-07
4.49844e-06
-1.07222e-07
4.4544e-06
-9.0806e-08
4.42456e-06
-6.9799e-08
4.41172e-06
-4.5356e-08
4.41742e-06
-1.91758e-08
4.44122e-06
6.64883e-09
4.48154e-06
2.95053e-08
4.53536e-06
4.77194e-08
4.59827e-06
6.01245e-08
4.66482e-06
6.62103e-08
4.72927e-06
6.60791e-08
4.78671e-06
6.03676e-08
4.83363e-06
4.97068e-08
4.86791e-06
3.49377e-08
4.889e-06
1.72165e-08
4.89716e-06
-2.17163e-09
4.89323e-06
-2.20022e-08
4.87862e-06
-4.09735e-08
4.85538e-06
-5.8296e-08
4.82599e-06
-7.34602e-08
4.79249e-06
-8.62931e-08
4.75629e-06
-9.67432e-08
4.7183e-06
-1.04938e-07
4.67912e-06
-1.11114e-07
4.63911e-06
-1.15572e-07
4.59839e-06
-1.18638e-07
4.55694e-06
-1.206e-07
4.51465e-06
-1.21648e-07
4.47147e-06
-1.2183e-07
4.42753e-06
-1.21061e-07
4.38325e-06
-1.19178e-07
4.33934e-06
-1.15937e-07
4.29667e-06
-1.11048e-07
4.25628e-06
-1.0424e-07
4.21929e-06
-9.53434e-08
4.18688e-06
-8.43372e-08
4.16015e-06
-7.13546e-08
4.14008e-06
-5.67101e-08
4.12747e-06
-4.0915e-08
4.12293e-06
-2.46697e-08
4.12647e-06
-8.71033e-09
4.13732e-06
6.10738e-09
4.15437e-06
1.87881e-08
4.17604e-06
2.88743e-08
4.20045e-06
3.59779e-08
4.22559e-06
3.99401e-08
4.24967e-06
4.07727e-08
4.27114e-06
3.87629e-08
4.28889e-06
3.41037e-08
4.30209e-06
2.73123e-08
4.31014e-06
1.89514e-08
4.31267e-06
9.51378e-09
4.30957e-06
-4.67111e-10
4.30102e-06
-1.04732e-08
4.28761e-06
-2.01465e-08
4.27007e-06
-2.92281e-08
4.24915e-06
-3.75514e-08
4.22555e-06
-4.50303e-08
4.1999e-06
-5.16413e-08
4.17274e-06
-5.7389e-08
4.14453e-06
-6.22765e-08
4.11563e-06
-6.6284e-08
4.0864e-06
-6.93518e-08
4.05714e-06
-7.13605e-08
4.02822e-06
-7.21482e-08
4.00006e-06
-7.15646e-08
3.97313e-06
-6.94885e-08
3.94796e-06
-6.58393e-08
3.92513e-06
-6.06016e-08
3.9052e-06
-5.38277e-08
3.88872e-06
-4.56651e-08
3.87614e-06
-3.63611e-08
3.86786e-06
-2.62409e-08
3.86413e-06
-1.57276e-08
3.86495e-06
-5.29764e-09
3.86993e-06
4.55478e-09
3.87845e-06
1.33185e-08
3.88971e-06
2.06753e-08
3.90279e-06
2.63076e-08
3.91673e-06
3.01168e-08
3.93063e-06
3.21134e-08
3.9437e-06
3.22851e-08
3.95531e-06
3.08181e-08
3.96492e-06
2.7979e-08
3.97218e-06
2.40703e-08
3.97685e-06
1.94066e-08
3.97879e-06
1.42986e-08
3.97797e-06
9.04251e-09
3.97444e-06
3.95257e-09
3.96846e-06
-7.15129e-10
3.96037e-06
-4.80739e-09
3.95052e-06
-8.20482e-09
3.93923e-06
-1.0836e-08
-1.26913e-08
4.54835e-06
1.36369e-07
4.58647e-06
1.15063e-07
4.61181e-06
9.08562e-08
4.62557e-06
6.63973e-08
4.62809e-06
4.26955e-08
4.61984e-06
2.07825e-08
4.60147e-06
1.31633e-09
4.57518e-06
-1.41824e-08
4.54215e-06
-2.44886e-08
4.50501e-06
-3.05741e-08
4.46648e-06
-3.44207e-08
4.42971e-06
-3.59442e-08
4.39749e-06
-3.5835e-08
4.3715e-06
-3.49523e-08
4.35244e-06
-3.41406e-08
4.33986e-06
-3.41518e-08
4.3324e-06
-3.56481e-08
4.32813e-06
-3.93567e-08
4.32387e-06
-4.5282e-08
4.31448e-06
-5.31155e-08
4.29728e-06
-6.13816e-08
4.27126e-06
-6.87766e-08
4.23706e-06
-7.43636e-08
4.19632e-06
-7.7712e-08
4.15136e-06
-7.86898e-08
4.10488e-06
-7.72001e-08
4.05963e-06
-7.30221e-08
4.01826e-06
-6.58515e-08
3.98311e-06
-5.56544e-08
3.95612e-06
-4.28076e-08
3.93875e-06
-2.79879e-08
3.93184e-06
-1.22703e-08
3.9352e-06
3.29619e-09
3.94739e-06
1.73106e-08
3.96631e-06
2.88006e-08
3.98946e-06
3.69742e-08
4.01425e-06
4.14155e-08
4.0383e-06
4.20297e-08
4.05977e-06
3.89042e-08
4.0771e-06
3.23713e-08
4.0891e-06
2.29368e-08
4.09481e-06
1.15079e-08
4.09374e-06
-1.09933e-09
4.08573e-06
-1.39946e-08
4.07134e-06
-2.6582e-08
4.05142e-06
-3.83703e-08
4.02696e-06
-4.90053e-08
3.99896e-06
-5.82946e-08
3.96838e-06
-6.61576e-08
3.93604e-06
-7.25994e-08
3.90261e-06
-7.76871e-08
3.86858e-06
-8.15376e-08
3.83424e-06
-8.43005e-08
3.79976e-06
-8.61223e-08
3.76523e-06
-8.71156e-08
3.73073e-06
-8.7328e-08
3.69639e-06
-8.67255e-08
3.66243e-06
-8.52117e-08
3.62913e-06
-8.26451e-08
3.59694e-06
-7.88546e-08
3.56637e-06
-7.36674e-08
3.53802e-06
-6.69934e-08
3.51252e-06
-5.884e-08
3.49048e-06
-4.9311e-08
3.47241e-06
-3.86467e-08
3.45872e-06
-2.72179e-08
3.44953e-06
-1.54869e-08
3.44483e-06
-4.00551e-09
3.44424e-06
6.69263e-09
3.44697e-06
1.60571e-08
3.45217e-06
2.36741e-08
3.45888e-06
2.92742e-08
3.46611e-06
3.27081e-08
3.47299e-06
3.38898e-08
3.47874e-06
3.3018e-08
3.4827e-06
3.0137e-08
3.48438e-06
2.56399e-08
3.48339e-06
1.99396e-08
3.4796e-06
1.33056e-08
3.47298e-06
6.14585e-09
3.4637e-06
-1.1902e-09
3.45201e-06
-8.45796e-09
3.43821e-06
-1.54232e-08
3.42258e-06
-2.19279e-08
3.40543e-06
-2.78793e-08
3.38701e-06
-3.32223e-08
3.36755e-06
-3.79224e-08
3.34722e-06
-4.19504e-08
3.32621e-06
-4.52677e-08
3.30467e-06
-4.78148e-08
3.28281e-06
-4.95052e-08
3.26089e-06
-5.02303e-08
3.23922e-06
-4.98939e-08
3.21815e-06
-4.84179e-08
3.19806e-06
-4.57497e-08
3.17936e-06
-4.18934e-08
3.16244e-06
-3.69088e-08
3.14769e-06
-3.09199e-08
3.13544e-06
-2.41065e-08
3.12587e-06
-1.66763e-08
3.11917e-06
-9.0253e-09
3.11535e-06
-1.47549e-09
3.1142e-06
5.70119e-09
3.11537e-06
1.21498e-08
3.11845e-06
1.75935e-08
3.12297e-06
2.17912e-08
3.12845e-06
2.46399e-08
3.13443e-06
2.61321e-08
3.14042e-06
2.62919e-08
3.14601e-06
2.5228e-08
3.15085e-06
2.31412e-08
3.15468e-06
2.02395e-08
3.15731e-06
1.67723e-08
3.15864e-06
1.29734e-08
3.15861e-06
9.06673e-09
3.15729e-06
5.2778e-09
3.15476e-06
1.80994e-09
3.15119e-06
-1.23044e-09
3.14673e-06
-3.75214e-09
3.14159e-06
-5.68705e-09
-7.01956e-09
3.39256e-06
9.84477e-08
3.42937e-06
7.82515e-08
3.46203e-06
5.81931e-08
3.48842e-06
4.00088e-08
3.50643e-06
2.46809e-08
3.51481e-06
1.24104e-08
3.51295e-06
3.17105e-09
3.50146e-06
-2.68998e-09
3.48266e-06
-5.69202e-09
3.45983e-06
-7.7391e-09
3.43507e-06
-9.6655e-09
3.41077e-06
-1.16479e-08
3.38846e-06
-1.35236e-08
3.36885e-06
-1.53413e-08
3.35249e-06
-1.77809e-08
3.33922e-06
-2.0882e-08
3.32821e-06
-2.46344e-08
3.31795e-06
-2.90972e-08
3.30668e-06
-3.40152e-08
3.29261e-06
-3.90463e-08
3.27482e-06
-4.35898e-08
3.25316e-06
-4.71118e-08
3.2281e-06
-4.93088e-08
3.20048e-06
-5.0087e-08
3.17124e-06
-4.94508e-08
3.14145e-06
-4.74135e-08
3.11227e-06
-4.38363e-08
3.08496e-06
-3.85463e-08
3.0608e-06
-3.14898e-08
3.04091e-06
-2.29262e-08
3.02604e-06
-1.3118e-08
3.01681e-06
-3.03157e-09
3.01304e-06
7.06569e-09
3.01402e-06
1.63238e-08
3.01872e-06
2.41081e-08
3.02581e-06
2.98798e-08
3.0339e-06
3.33211e-08
3.04156e-06
3.43771e-08
3.04747e-06
3.29912e-08
3.05065e-06
2.9193e-08
3.0502e-06
2.3383e-08
3.04582e-06
1.58928e-08
3.03724e-06
7.47917e-09
3.02469e-06
-1.44061e-09
3.00874e-06
-1.06406e-08
2.98994e-06
-1.95689e-08
2.96881e-06
-2.78693e-08
2.94582e-06
-3.53096e-08
2.9214e-06
-4.17316e-08
2.89585e-06
-4.70565e-08
2.86945e-06
-5.12858e-08
2.8424e-06
-5.44869e-08
2.81487e-06
-5.6771e-08
2.787e-06
-5.82553e-08
2.75893e-06
-5.90405e-08
2.73079e-06
-5.91938e-08
2.70279e-06
-5.87171e-08
2.67512e-06
-5.75412e-08
2.64804e-06
-5.55644e-08
2.62186e-06
-5.26787e-08
2.59698e-06
-4.87841e-08
2.5738e-06
-4.38189e-08
2.55273e-06
-3.77692e-08
2.53413e-06
-3.07119e-08
2.51834e-06
-2.28563e-08
2.50559e-06
-1.44629e-08
2.49601e-06
-5.91167e-09
2.48957e-06
2.43098e-09
2.48597e-06
1.03015e-08
2.48475e-06
1.72684e-08
2.48548e-06
2.29513e-08
2.48761e-06
2.71437e-08
2.49058e-06
2.9733e-08
2.4938e-06
3.06756e-08
2.49672e-06
3.00917e-08
2.49881e-06
2.80505e-08
2.49962e-06
2.48291e-08
2.49892e-06
2.06444e-08
2.49641e-06
1.58147e-08
2.49212e-06
1.04358e-08
2.48589e-06
5.03358e-09
2.4778e-06
-3.67741e-10
2.46799e-06
-5.60585e-09
2.45661e-06
-1.05498e-08
2.44385e-06
-1.51178e-08
2.42988e-06
-1.9254e-08
2.41487e-06
-2.29163e-08
2.39899e-06
-2.6071e-08
2.3824e-06
-2.86794e-08
2.36528e-06
-3.06912e-08
2.34782e-06
-3.20451e-08
2.33025e-06
-3.26651e-08
2.31284e-06
-3.24817e-08
2.29588e-06
-3.14586e-08
2.2797e-06
-2.9565e-08
2.26461e-06
-2.68027e-08
2.25091e-06
-2.32139e-08
2.23894e-06
-1.89487e-08
2.22893e-06
-1.40969e-08
2.22107e-06
-8.81097e-09
2.21541e-06
-3.36967e-09
2.21212e-06
1.81667e-09
2.21096e-06
6.85641e-09
2.21179e-06
1.13256e-08
2.21433e-06
1.50473e-08
2.21826e-06
1.78613e-08
2.22321e-06
1.96907e-08
2.22881e-06
2.05385e-08
2.23468e-06
2.04193e-08
2.24047e-06
1.94369e-08
2.24589e-06
1.77169e-08
2.25072e-06
1.54152e-08
2.25479e-06
1.27044e-08
2.25799e-06
9.77386e-09
2.26027e-06
6.78601e-09
2.26164e-06
3.90123e-09
2.26219e-06
1.26666e-09
2.262e-06
-1.04508e-09
2.2612e-06
-2.95431e-09
2.25993e-06
-4.41009e-09
-5.39391e-09
2.13801e-06
6.06955e-08
2.1681e-06
4.81599e-08
2.19018e-06
3.61185e-08
2.20469e-06
2.54997e-08
2.21241e-06
1.69614e-08
2.21438e-06
1.04346e-08
2.21181e-06
5.74793e-09
2.20599e-06
3.13145e-09
2.19898e-06
1.31633e-09
2.19158e-06
-3.39242e-10
2.18404e-06
-2.13127e-09
2.17641e-06
-4.01772e-09
2.16871e-06
-5.82309e-09
2.16107e-06
-7.69701e-09
2.15337e-06
-1.00833e-08
2.14526e-06
-1.2769e-08
2.13618e-06
-1.55588e-08
2.12559e-06
-1.85049e-08
2.11308e-06
-2.15104e-08
2.09843e-06
-2.43901e-08
2.0817e-06
-2.68608e-08
2.06324e-06
-2.86557e-08
2.04359e-06
-2.96545e-08
2.02329e-06
-2.97835e-08
2.00287e-06
-2.90371e-08
1.98292e-06
-2.74637e-08
1.96391e-06
-2.48213e-08
1.94657e-06
-2.12096e-08
1.93144e-06
-1.63595e-08
1.91925e-06
-1.07378e-08
1.91029e-06
-4.15745e-09
1.90494e-06
2.3233e-09
1.90296e-06
9.04367e-09
1.90405e-06
1.52355e-08
1.90767e-06
2.04823e-08
1.91308e-06
2.44678e-08
1.91947e-06
2.69394e-08
1.92602e-06
2.78191e-08
1.93186e-06
2.71515e-08
1.93628e-06
2.47759e-08
1.93854e-06
2.1127e-08
1.93807e-06
1.63586e-08
1.9348e-06
1.07523e-08
1.92852e-06
4.8374e-09
1.91909e-06
-1.21352e-09
1.90667e-06
-7.15112e-09
1.89153e-06
-1.27251e-08
1.87401e-06
-1.77927e-08
1.85451e-06
-2.22246e-08
1.83341e-06
-2.59563e-08
1.8111e-06
-2.89772e-08
1.78794e-06
-3.13245e-08
1.76423e-06
-3.30632e-08
1.74023e-06
-3.42603e-08
1.71615e-06
-3.49611e-08
1.69216e-06
-3.52052e-08
1.66844e-06
-3.49954e-08
1.64519e-06
-3.42899e-08
1.62264e-06
-3.3008e-08
1.60104e-06
-3.10819e-08
1.58073e-06
-2.84716e-08
1.56205e-06
-2.51444e-08
1.54539e-06
-2.11036e-08
1.53108e-06
-1.64096e-08
1.51938e-06
-1.11572e-08
1.51039e-06
-5.4701e-09
1.50452e-06
-4.21894e-11
1.50147e-06
5.48447e-09
1.5011e-06
1.06668e-08
1.50313e-06
1.52458e-08
1.50709e-06
1.89884e-08
1.51249e-06
2.1744e-08
1.51876e-06
2.34607e-08
1.52534e-06
2.40923e-08
1.5317e-06
2.37313e-08
1.53734e-06
2.24119e-08
1.54184e-06
2.03353e-08
1.54489e-06
1.75876e-08
1.5463e-06
1.44111e-08
1.54584e-06
1.08883e-08
1.54364e-06
7.23679e-09
1.53966e-06
3.61068e-09
1.53396e-06
9.93614e-11
1.52666e-06
-3.24862e-09
1.51793e-06
-6.39109e-09
1.50795e-06
-9.27032e-09
1.49687e-06
-1.18377e-08
1.48486e-06
-1.40651e-08
1.47211e-06
-1.59311e-08
1.45881e-06
-1.73909e-08
1.44518e-06
-1.84082e-08
1.43145e-06
-1.89341e-08
1.41789e-06
-1.89245e-08
1.40477e-06
-1.83443e-08
1.39242e-06
-1.72082e-08
1.38111e-06
-1.54979e-08
1.37114e-06
-1.3242e-08
1.36277e-06
-1.05764e-08
1.35618e-06
-7.5081e-09
1.35149e-06
-4.12516e-09
1.34895e-06
-8.28451e-10
1.34833e-06
2.44399e-09
1.34962e-06
5.56477e-09
1.35263e-06
8.31446e-09
1.3571e-06
1.0574e-08
1.36272e-06
1.22439e-08
1.36913e-06
1.32768e-08
1.376e-06
1.36717e-08
1.38298e-06
1.34397e-08
1.38977e-06
1.26441e-08
1.3961e-06
1.13848e-08
1.4018e-06
9.71906e-09
1.40667e-06
7.83504e-09
1.41069e-06
5.75775e-09
1.41376e-06
3.71092e-09
1.41595e-06
1.71487e-09
1.41731e-06
-9.83385e-11
1.41798e-06
-1.70956e-09
1.41806e-06
-3.037e-09
1.4177e-06
-4.04803e-09
-4.72973e-09
1.01338e-06
2.77604e-08
1.03979e-06
2.17558e-08
1.05992e-06
1.59877e-08
1.07449e-06
1.09335e-08
1.0845e-06
6.94968e-09
1.09089e-06
4.04573e-09
1.09469e-06
1.93921e-09
1.09691e-06
9.19667e-10
1.09794e-06
2.8191e-10
1.09789e-06
-2.88283e-10
1.09669e-06
-9.27241e-10
1.09432e-06
-1.65222e-09
1.0909e-06
-2.40371e-09
1.08646e-06
-3.26029e-09
1.08069e-06
-4.31295e-09
1.0735e-06
-5.57791e-09
1.06499e-06
-7.04565e-09
1.05514e-06
-8.65431e-09
1.0439e-06
-1.02725e-08
1.03129e-06
-1.17761e-08
1.01749e-06
-1.30594e-08
1.00283e-06
-1.39999e-08
9.87667e-07
-1.44922e-08
9.72428e-07
-1.45443e-08
9.57502e-07
-1.41108e-08
9.43216e-07
-1.31777e-08
9.30154e-07
-1.17597e-08
9.1865e-07
-9.70596e-09
9.09451e-07
-7.16054e-09
9.02713e-07
-3.99954e-09
8.99293e-07
-7.37236e-10
8.9901e-07
2.60662e-09
9.01969e-07
6.08434e-09
9.07907e-07
9.29788e-09
9.16343e-07
1.2046e-08
9.26627e-07
1.41836e-08
9.37982e-07
1.5584e-08
9.49586e-07
1.62151e-08
9.60701e-07
1.60368e-08
9.70397e-07
1.50804e-08
9.78101e-07
1.34228e-08
9.83239e-07
1.12207e-08
9.85399e-07
8.59186e-09
9.8455e-07
5.68666e-09
9.8064e-07
2.69698e-09
9.73556e-07
-6.71694e-11
9.63587e-07
-2.75647e-09
9.51135e-07
-5.34072e-09
9.36559e-07
-7.6491e-09
9.2024e-07
-9.63643e-09
9.02557e-07
-1.12949e-08
8.83873e-07
-1.26399e-08
8.64513e-07
-1.37031e-08
8.4476e-07
-1.45081e-08
8.24866e-07
-1.50669e-08
8.05041e-07
-1.53796e-08
7.85503e-07
-1.54572e-08
7.66486e-07
-1.52729e-08
7.48268e-07
-1.47906e-08
7.31151e-07
-1.39649e-08
7.15437e-07
-1.27578e-08
7.01464e-07
-1.11715e-08
6.89562e-07
-9.20065e-09
6.80009e-07
-6.85711e-09
6.73067e-07
-4.21509e-09
6.68923e-07
-1.32614e-09
6.67689e-07
1.19161e-09
6.69234e-07
3.93949e-09
6.73378e-07
6.5228e-09
6.79816e-07
8.80788e-09
6.8811e-07
1.06941e-08
6.97755e-07
1.20994e-08
7.08228e-07
1.29874e-08
7.18965e-07
1.33553e-08
7.29482e-07
1.32143e-08
7.39273e-07
1.26212e-08
7.47986e-07
1.16223e-08
7.55261e-07
1.03127e-08
7.60925e-07
8.74677e-09
7.64801e-07
7.01293e-09
7.66839e-07
5.19809e-09
7.67099e-07
3.35083e-09
7.65638e-07
1.56018e-09
7.62449e-07
-5.94037e-11
7.57715e-07
-1.65681e-09
7.51611e-07
-3.16616e-09
7.443e-07
-4.52703e-09
7.35951e-07
-5.71574e-09
7.26748e-07
-6.7283e-09
7.1691e-07
-7.55312e-09
7.06657e-07
-8.15527e-09
6.96234e-07
-8.51106e-09
6.85906e-07
-8.59605e-09
6.7597e-07
-8.40853e-09
6.66682e-07
-7.92063e-09
6.58339e-07
-7.15426e-09
6.51214e-07
-6.11688e-09
6.4547e-07
-4.83316e-09
6.41347e-07
-3.38505e-09
6.38951e-07
-1.72901e-09
6.3832e-07
-1.97129e-10
6.39396e-07
1.36759e-09
6.42096e-07
2.86544e-09
6.46229e-07
4.18082e-09
6.5155e-07
5.25271e-09
6.57757e-07
6.03706e-09
6.6453e-07
6.50396e-09
6.71546e-07
6.65564e-09
6.78494e-07
6.49233e-09
6.85091e-07
6.04719e-09
6.91122e-07
5.35364e-09
6.9636e-07
4.48061e-09
7.00745e-07
3.44991e-09
7.04148e-07
2.35501e-09
7.06646e-07
1.21326e-09
7.08185e-07
1.75799e-10
7.0892e-07
-8.33662e-10
7.08964e-07
-1.75347e-09
7.08458e-07
-2.5314e-09
7.07557e-07
-3.14686e-09
-3.5922e-09
2.52512e-07
2.74268e-07
2.90256e-07
3.01189e-07
3.08139e-07
3.12185e-07
3.14124e-07
3.15044e-07
3.15326e-07
3.15037e-07
3.1411e-07
3.12458e-07
3.10054e-07
3.06794e-07
3.02481e-07
2.96903e-07
2.89857e-07
2.81203e-07
2.7093e-07
2.59154e-07
2.46095e-07
2.32095e-07
2.17603e-07
2.03059e-07
1.88948e-07
1.7577e-07
1.6401e-07
1.54304e-07
1.47144e-07
1.43144e-07
1.42407e-07
1.45014e-07
1.51098e-07
1.60396e-07
1.72442e-07
1.86626e-07
2.0221e-07
2.18425e-07
2.34462e-07
2.49542e-07
2.62965e-07
2.74185e-07
2.82777e-07
2.88464e-07
2.91161e-07
2.91094e-07
2.88337e-07
2.82997e-07
2.75347e-07
2.65711e-07
2.54416e-07
2.41776e-07
2.28073e-07
2.13565e-07
1.98498e-07
1.83119e-07
1.67661e-07
1.52388e-07
1.37598e-07
1.23633e-07
1.10875e-07
9.97037e-08
9.0503e-08
8.36459e-08
7.94308e-08
7.81047e-08
7.92963e-08
8.32358e-08
8.97586e-08
9.85665e-08
1.09261e-07
1.2136e-07
1.34347e-07
1.47703e-07
1.60917e-07
1.73538e-07
1.8516e-07
1.95473e-07
2.0422e-07
2.11233e-07
2.16431e-07
2.19782e-07
2.21342e-07
2.21282e-07
2.19626e-07
2.1646e-07
2.11932e-07
2.06217e-07
1.99488e-07
1.91935e-07
1.8378e-07
1.75269e-07
1.66673e-07
1.58264e-07