/*--------------------------------*- C++ -*----------------------------------*\
| =========                 |                                                 |
| \\      /  F ield         | OpenFOAM: The Open Source CFD Toolbox           |
|  \\    /   O peration     | Version:  2206                                  |
|   \\  /    A nd           | Website:  www.openfoam.com                      |
|    \\/     M anipulation  |                                                 |
\*---------------------------------------------------------------------------*/
FoamFile
{
    version     2.0;
    format      ascii;
    arch        "LSB;label=32;scalar=64";
    class       volVectorField;
    location    "18.0999";
    object      ddtCorrDdt0(U);
}
// * * * * * * * * * * * * * * * * * * * * * * * * * * * * * * * * * * * * * //

dimensions      [0 1 -2 0 0 0 0];

internalField   nonuniform List<vector> 
4830
(
(-13.6327 -26.9416 0)
(-11.4427 -19.4031 0)
(-9.0985 -12.1174 0)
(-8.87664 -2.17154 0)
(-7.7498 11.5915 0)
(-6.56223 26.4973 0)
(-5.63557 41.8826 0)
(-5.0292 58.1482 0)
(-4.58188 74.9202 0)
(-4.23839 91.6344 0)
(-4.00903 107.614 0)
(-3.89827 122.128 0)
(-3.91124 134.388 0)
(-4.03194 143.51 0)
(-4.12674 148.332 0)
(-3.99657 147.676 0)
(-3.56405 143.372 0)
(-2.80764 135.746 0)
(-1.71748 125.34 0)
(-0.322625 112.827 0)
(1.29569 98.917 0)
(3.04732 84.3021 0)
(4.85006 69.5992 0)
(6.63516 55.3158 0)
(8.32344 41.8571 0)
(9.82055 29.5207 0)
(11.502 18.3409 0)
(13.9607 7.56624 0)
(15.773 -2.24059 0)
(17.8258 -9.97447 0)
(19.6625 -16.0866 0)
(21.2127 -21.0188 0)
(22.3762 -25.3033 0)
(22.9584 -29.4956 0)
(22.7954 -34.0634 0)
(21.7969 -39.3006 0)
(19.9662 -45.2702 0)
(17.4006 -51.8022 0)
(14.2665 -58.5467 0)
(10.7643 -65.0646 0)
(7.093 -70.921 0)
(3.42063 -75.7543 0)
(-0.127505 -79.3018 0)
(-3.4484 -81.3729 0)
(-6.40676 -81.71 0)
(-9.00337 -80.6599 0)
(-11.2977 -78.5464 0)
(-13.2605 -75.4842 0)
(-14.8695 -71.6092 0)
(-16.1226 -67.0687 0)
(-17.0322 -62.0131 0)
(-17.6259 -56.5805 0)
(-17.9435 -50.8846 0)
(-18.032 -45.0118 0)
(-17.9444 -39.0231 0)
(-17.7422 -32.9524 0)
(-17.4766 -26.8 0)
(-17.1502 -20.5424 0)
(-16.884 -14.0517 0)
(-17.1356 -6.73291 0)
(-17.0769 1.87951 0)
(-17.1464 11.1198 0)
(-17.2626 20.8366 0)
(-17.2805 30.8835 0)
(-17.2231 41.0747 0)
(-17.048 51.179 0)
(-16.6958 60.9124 0)
(-16.1231 69.9502 0)
(-15.2962 77.9391 0)
(-14.1938 84.5048 0)
(-12.7885 89.1916 0)
(-10.953 91.2283 0)
(-8.69748 90.4333 0)
(-6.21149 87.7768 0)
(-3.52976 83.4939 0)
(-0.713752 77.8946 0)
(2.15432 71.3225 0)
(4.99899 64.1268 0)
(7.77223 56.6379 0)
(10.4226 49.1282 0)
(12.9096 41.7907 0)
(15.2082 34.734 0)
(17.306 27.9834 0)
(19.2054 21.4873 0)
(20.9601 15.1286 0)
(22.5779 8.76934 0)
(23.707 2.37391 0)
(24.5647 -4.06674 0)
(25.085 -10.7774 0)
(25.249 -17.8555 0)
(25.0956 -25.3157 0)
(24.6483 -33.0963 0)
(23.9309 -41.0572 0)
(22.9698 -49.0003 0)
(21.7873 -56.6934 0)
(20.3961 -63.8918 0)
(18.8118 -70.3755 0)
(17.0498 -75.9152 0)
(15.1317 -80.3176 0)
(13.0928 -83.4073 0)
(10.9746 -84.8903 0)
(8.85793 -84.6818 0)
(6.836 -83.2612 0)
(4.93882 -80.6567 0)
(3.17155 -76.9495 0)
(1.60369 -72.3998 0)
(0.369703 -67.1034 0)
(-0.53167 -61.0948 0)
(-1.45015 -54.5507 0)
(-1.9055 -47.6115 0)
(-2.25885 -40.4613 0)
(-2.45007 -33.1955 0)
(-2.47457 -26.1001 0)
(-2.24187 -19.2028 0)
(-1.9215 -12.6374 0)
(-1.11393 -6.77109 0)
(-1.39059 -0.998927 0)
(-0.9873 9.22434 0)
(-0.578122 16.5971 0)
(-0.346163 23.7122 0)
(-0.308116 30.7019 0)
(-0.424906 37.5692 0)
(-0.698471 44.282 0)
(-1.12936 50.7622 0)
(-1.70581 56.8981 0)
(-2.40737 62.5491 0)
(-3.20636 67.554 0)
(-4.06937 71.7416 0)
(-4.96097 74.9352 0)
(-5.83501 76.9282 0)
(-6.57945 77.3368 0)
(-7.15549 76.4119 0)
(-7.57169 74.3649 0)
(-7.7937 71.239 0)
(-7.79832 67.1126 0)
(-7.58096 62.1038 0)
(-7.15099 56.3763 0)
(-6.52749 50.1033 0)
(-19.5585 -29.0718 0)
(-17.6955 -21.3802 0)
(-16.3636 -13.297 0)
(-16.2986 -3.00497 0)
(-15.4404 10.5115 0)
(-14.5905 25.3459 0)
(-13.7187 41.006 0)
(-12.973 57.4237 0)
(-12.2666 74.2762 0)
(-11.5254 91.0315 0)
(-10.7314 107.043 0)
(-9.88371 121.594 0)
(-8.99822 133.899 0)
(-8.084 143.031 0)
(-7.02386 147.664 0)
(-5.66723 146.735 0)
(-4.02302 142.097 0)
(-2.10524 134.129 0)
(0.0588432 123.419 0)
(2.397 110.678 0)
(4.80168 96.6547 0)
(7.166 82.0334 0)
(9.39189 67.4046 0)
(11.4265 53.264 0)
(13.2064 39.958 0)
(14.7433 27.6831 0)
(16.6667 16.2621 0)
(18.7028 5.20678 0)
(20.2037 -4.30629 0)
(21.8526 -11.875 0)
(23.2869 -17.7931 0)
(24.5266 -22.4065 0)
(25.478 -26.1931 0)
(25.951 -29.6907 0)
(25.7639 -33.4052 0)
(24.7857 -37.7159 0)
(22.9734 -42.793 0)
(20.3851 -48.5652 0)
(17.1639 -54.7507 0)
(13.5053 -60.9366 0)
(9.61868 -66.6749 0)
(5.69404 -71.5661 0)
(1.88084 -75.3111 0)
(-1.70502 -77.6999 0)
(-4.92743 -78.4997 0)
(-7.75004 -77.7927 0)
(-10.2558 -76.0419 0)
(-12.4408 -73.3565 0)
(-14.2891 -69.8668 0)
(-15.801 -65.7065 0)
(-16.9894 -61.0096 0)
(-17.8794 -55.8993 0)
(-18.5073 -50.479 0)
(-18.9154 -44.8288 0)
(-19.1506 -39.0061 0)
(-19.2647 -33.0425 0)
(-19.2979 -26.9375 0)
(-19.254 -20.6557 0)
(-19.2759 -14.0404 0)
(-19.716 -6.55037 0)
(-19.7687 2.05649 0)
(-19.9487 11.241 0)
(-20.0754 20.8801 0)
(-20.0333 30.8141 0)
(-19.8355 40.8441 0)
(-19.4383 50.733 0)
(-18.7889 60.2007 0)
(-17.8492 68.9359 0)
(-16.593 76.6002 0)
(-15.0106 82.8154 0)
(-13.08 87.0967 0)
(-10.6854 88.605 0)
(-7.91753 87.5173 0)
(-4.97209 84.6301 0)
(-1.88823 80.1925 0)
(1.26919 74.5241 0)
(4.41972 67.9728 0)
(7.4889 60.8768 0)
(10.3997 53.5385 0)
(13.1265 46.218 0)
(15.6496 39.0953 0)
(17.9572 32.2635 0)
(20.0534 25.7333 0)
(21.955 19.4463 0)
(23.6894 13.3109 0)
(25.1593 7.26723 0)
(26.1872 1.29141 0)
(26.9423 -4.75917 0)
(27.3344 -11.0865 0)
(27.3739 -17.7887 0)
(27.0823 -24.8919 0)
(26.473 -32.3398 0)
(25.5658 -39.9962 0)
(24.3864 -47.6651 0)
(22.9631 -55.1141 0)
(21.3244 -62.0964 0)
(19.4946 -68.3724 0)
(17.4986 -73.7347 0)
(15.3671 -77.9976 0)
(13.1352 -80.9807 0)
(10.8366 -82.4143 0)
(8.5416 -82.2547 0)
(6.36367 -80.93 0)
(4.34062 -78.4778 0)
(2.15422 -75.0718 0)
(1.11003 -70.8306 0)
(-0.660903 -65.7435 0)
(-1.8168 -59.9028 0)
(-2.85507 -53.5942 0)
(-3.69743 -46.9766 0)
(-4.27842 -40.0793 0)
(-4.62161 -33.0875 0)
(-4.73307 -26.1795 0)
(-4.62609 -19.4988 0)
(-4.15707 -13.1965 0)
(-3.81628 -7.33062 0)
(-4.28595 0.125251 0)
(-4.16081 8.4282 0)
(-3.85931 16.1983 0)
(-3.66718 23.5779 0)
(-3.67056 30.7604 0)
(-3.81518 37.798 0)
(-4.08498 44.6677 0)
(-4.47194 51.2922 0)
(-4.95837 57.5535 0)
(-5.52233 63.3041 0)
(-6.13893 68.3765 0)
(-6.78028 72.5941 0)
(-7.41462 75.7737 0)
(-7.99314 77.6817 0)
(-8.39343 77.8818 0)
(-8.6157 76.7886 0)
(-8.6672 74.5298 0)
(-8.51524 71.1656 0)
(-8.14556 66.7948 0)
(-7.56533 61.5528 0)
(-6.78966 55.6053 0)
(-5.83681 49.1323 0)
(-25.4887 -30.6229 0)
(-24.3136 -22.712 0)
(-23.6378 -14.0864 0)
(-23.6902 -3.34626 0)
(-23.1113 9.80842 0)
(-22.5945 24.4555 0)
(-21.8808 40.1077 0)
(-21.0477 56.502 0)
(-20.0858 73.2601 0)
(-18.9267 89.8681 0)
(-17.5399 105.715 0)
(-15.9293 120.113 0)
(-14.1219 132.299 0)
(-12.1383 141.309 0)
(-9.86597 145.622 0)
(-7.22427 144.392 0)
(-4.29955 139.44 0)
(-1.1567 131.201 0)
(2.1193 120.322 0)
(5.41335 107.538 0)
(8.58933 93.598 0)
(11.5398 79.1877 0)
(14.1824 64.8579 0)
(16.4471 51.0225 0)
(18.3288 37.979 0)
(20.0287 25.8085 0)
(21.9941 14.2384 0)
(23.5442 3.31661 0)
(24.7524 -5.88893 0)
(25.9402 -13.3033 0)
(26.9384 -19.0834 0)
(27.8139 -23.4814 0)
(28.4974 -26.8946 0)
(28.82 -29.8138 0)
(28.5903 -32.7575 0)
(27.6413 -36.1755 0)
(25.8819 -40.343 0)
(23.3231 -45.2969 0)
(20.0725 -50.8425 0)
(16.3073 -56.6153 0)
(12.2385 -62.1734 0)
(8.07453 -67.0897 0)
(3.99138 -71.0175 0)
(0.123286 -73.712 0)
(-3.40253 -74.9967 0)
(-6.49182 -74.6667 0)
(-9.22165 -73.2847 0)
(-11.6361 -70.9676 0)
(-13.7267 -67.8457 0)
(-15.4947 -64.0448 0)
(-16.9557 -59.6862 0)
(-18.1335 -54.8812 0)
(-19.0606 -49.7251 0)
(-19.7744 -44.293 0)
(-20.3155 -38.6394 0)
(-20.7275 -32.7943 0)
(-21.0412 -26.7549 0)
(-21.2664 -20.4737 0)
(-21.5563 -13.7711 0)
(-22.1403 -6.19185 0)
(-22.3051 2.3396 0)
(-22.5603 11.4045 0)
(-22.6702 20.8872 0)
(-22.5499 30.6197 0)
(-22.2041 40.4008 0)
(-21.587 49.9951 0)
(-20.6464 59.1239 0)
(-19.3415 67.4801 0)
(-17.6453 74.7415 0)
(-15.5704 80.5498 0)
(-13.1199 84.4007 0)
(-10.1943 85.3906 0)
(-6.95804 84.079 0)
(-3.59241 81.0276 0)
(-0.150877 76.5068 0)
(3.29344 70.839 0)
(6.65962 64.3712 0)
(9.88148 57.437 0)
(12.9052 50.3215 0)
(15.6828 43.2463 0)
(18.2187 36.3786 0)
(20.5171 29.7948 0)
(22.5907 23.499 0)
(24.459 17.4479 0)
(26.1185 11.5938 0)
(27.4206 5.91271 0)
(28.3622 0.346267 0)
(28.9995 -5.31733 0)
(29.2734 -11.2569 0)
(29.1986 -17.5757 0)
(28.7842 -24.3068 0)
(28.0375 -31.3988 0)
(26.9735 -38.7221 0)
(25.6141 -46.0868 0)
(23.9862 -53.2643 0)
(22.1214 -60.0112 0)
(20.0559 -66.091 0)
(17.8273 -71.2886 0)
(15.4722 -75.4189 0)
(13.0387 -78.3182 0)
(10.5795 -79.7417 0)
(8.14909 -79.6516 0)
(5.83306 -78.48 0)
(3.62445 -76.2869 0)
(1.67577 -73.1332 0)
(0.0918422 -69.0095 0)
(-1.9405 -64.0536 0)
(-3.34501 -58.5045 0)
(-4.57968 -52.4749 0)
(-5.59081 -46.0825 0)
(-6.33854 -39.4598 0)
(-6.82485 -32.7462 0)
(-7.06429 -26.1002 0)
(-7.0644 -19.6476 0)
(-6.78226 -13.4675 0)
(-6.98363 -7.27904 0)
(-7.2956 0.266476 0)
(-7.30161 8.28673 0)
(-7.26737 16.0511 0)
(-7.21485 23.5422 0)
(-7.27012 30.8596 0)
(-7.4316 38.0276 0)
(-7.67966 45.0127 0)
(-7.99941 51.7328 0)
(-8.36982 58.0659 0)
(-8.76738 63.8623 0)
(-9.16899 68.9537 0)
(-9.55313 73.1584 0)
(-9.89311 76.2777 0)
(-10.1282 78.0534 0)
(-10.1346 78.0139 0)
(-9.96647 76.7347 0)
(-9.61261 74.2557 0)
(-9.0514 70.6586 0)
(-8.28277 66.0564 0)
(-7.31844 60.5947 0)
(-6.17784 54.4469 0)
(-4.88879 47.8031 0)
(-31.3452 -31.5653 0)
(-30.7856 -23.428 0)
(-30.6469 -14.3656 0)
(-30.9257 -3.41024 0)
(-30.684 9.47736 0)
(-30.4316 23.8189 0)
(-29.8421 39.246 0)
(-28.9483 55.396 0)
(-27.7619 71.8593 0)
(-26.2213 88.1376 0)
(-24.2768 103.64 0)
(-21.9118 117.7 0)
(-19.1306 129.559 0)
(-15.9854 138.264 0)
(-12.382 142.118 0)
(-8.37758 140.573 0)
(-4.15761 135.372 0)
(0.166723 126.997 0)
(4.4618 116.119 0)
(8.59015 103.489 0)
(12.4171 89.8324 0)
(15.8465 75.7966 0)
(18.8329 61.9097 0)
(21.3587 48.5297 0)
(23.4396 35.8503 0)
(25.3131 23.8681 0)
(27.1714 12.4146 0)
(28.3465 1.86787 0)
(29.2617 -7.01279 0)
(30.0181 -14.2444 0)
(30.5888 -19.9039 0)
(31.0746 -24.1616 0)
(31.4437 -27.3205 0)
(31.5645 -29.7964 0)
(31.2518 -32.0839 0)
(30.3167 -34.6792 0)
(28.6289 -37.9564 0)
(26.1474 -42.0621 0)
(22.9292 -46.8961 0)
(19.1207 -52.1642 0)
(14.9233 -57.4558 0)
(10.5532 -62.3323 0)
(6.20816 -66.4092 0)
(2.04755 -69.3981 0)
(-1.79959 -71.0985 0)
(-5.20361 -71.2904 0)
(-8.18539 -70.2637 0)
(-10.8426 -68.3103 0)
(-13.1823 -65.5456 0)
(-15.2066 -62.0893 0)
(-16.9345 -58.0539 0)
(-18.3895 -53.5418 0)
(-19.6001 -48.6415 0)
(-20.5997 -43.425 0)
(-21.4244 -37.9453 0)
(-22.1108 -32.2305 0)
(-22.6818 -26.2751 0)
(-23.1548 -20.0213 0)
(-23.6813 -13.2786 0)
(-24.3606 -5.68936 0)
(-24.6382 2.70109 0)
(-24.9312 11.5791 0)
(-25.011 20.8348 0)
(-24.8105 30.2982 0)
(-24.3166 39.7618 0)
(-23.4627 48.9756 0)
(-22.1922 57.6657 0)
(-20.4926 65.5579 0)
(-18.3752 72.3616 0)
(-15.8529 77.7305 0)
(-12.9171 81.1397 0)
(-9.50548 81.6524 0)
(-5.86219 80.1627 0)
(-2.12907 77.0122 0)
(1.62011 72.4858 0)
(5.30085 66.902 0)
(8.8335 60.596 0)
(12.1591 53.8862 0)
(15.2369 47.0436 0)
(18.0416 40.267 0)
(20.5588 33.6813 0)
(22.821 27.3639 0)
(24.8452 21.3213 0)
(26.6465 15.5366 0)
(28.1967 10.0041 0)
(29.3381 4.70096 0)
(30.1969 -0.476922 0)
(30.7205 -5.75881 0)
(30.8893 -11.3106 0)
(30.7113 -17.2419 0)
(30.1866 -23.5914 0)
(29.3198 -30.3131 0)
(28.1236 -37.2846 0)
(26.6172 -44.3232 0)
(24.8264 -51.2072 0)
(22.7834 -57.6998 0)
(20.5268 -63.5713 0)
(18.101 -68.6118 0)
(15.5541 -72.6401 0)
(12.941 -75.4979 0)
(10.3182 -76.9517 0)
(7.74291 -76.9346 0)
(5.27255 -75.8782 0)
(2.90833 -73.8325 0)
(0.59667 -70.8243 0)
(-1.53573 -66.8588 0)
(-3.39255 -62.1376 0)
(-5.01159 -56.8651 0)
(-6.41219 -51.1099 0)
(-7.56863 -45.0026 0)
(-8.46636 -38.6806 0)
(-9.10748 -32.2668 0)
(-9.51123 -25.8812 0)
(-9.67258 -19.612 0)
(-9.6702 -13.4631 0)
(-10.2004 -6.96455 0)
(-10.4697 0.616502 0)
(-10.6739 8.38207 0)
(-10.8319 16.0672 0)
(-10.9122 23.6064 0)
(-11.0348 31.0035 0)
(-11.2119 38.2504 0)
(-11.4252 45.2981 0)
(-11.6573 52.0579 0)
(-11.8857 58.4047 0)
(-12.0879 64.1888 0)
(-12.2441 69.2455 0)
(-12.337 73.3929 0)
(-12.3463 76.411 0)
(-12.1879 77.9565 0)
(-11.768 77.7072 0)
(-11.1739 76.2123 0)
(-10.3828 73.5085 0)
(-9.38386 69.6824 0)
(-8.18799 64.8599 0)
(-6.81395 59.201 0)
(-5.29141 52.8895 0)
(-3.66299 46.1266 0)
(-36.9149 -31.8364 0)
(-36.9393 -23.5061 0)
(-37.3143 -14.1569 0)
(-37.8434 -3.16639 0)
(-37.9178 9.42244 0)
(-37.8774 23.3842 0)
(-37.4118 38.4253 0)
(-36.5282 54.172 0)
(-35.2017 70.1847 0)
(-33.2793 85.9134 0)
(-30.6925 100.8 0)
(-27.4546 114.256 0)
(-23.6682 125.588 0)
(-19.3856 133.794 0)
(-14.5012 137.072 0)
(-9.20005 135.274 0)
(-3.76467 129.937 0)
(1.65762 121.589 0)
(6.90866 110.917 0)
(11.8206 98.6513 0)
(16.2536 85.4894 0)
(20.1167 72.017 0)
(23.3756 58.691 0)
(26.0622 45.8218 0)
(28.2802 33.5497 0)
(30.2412 21.8679 0)
(31.9553 10.7956 0)
(32.8737 0.781034 0)
(33.5273 -7.72127 0)
(33.905 -14.7358 0)
(34.0864 -20.2765 0)
(34.1937 -24.443 0)
(34.2354 -27.444 0)
(34.1245 -29.6047 0)
(33.6962 -31.3685 0)
(32.7598 -33.2417 0)
(31.1556 -35.6686 0)
(28.7934 -38.9083 0)
(25.6745 -42.976 0)
(21.8944 -47.6536 0)
(17.6309 -52.5792 0)
(13.1035 -57.3288 0)
(8.52517 -61.493 0)
(4.07728 -64.7398 0)
(-0.093956 -66.8348 0)
(-3.84645 -67.5779 0)
(-7.12785 -66.9434 0)
(-10.0431 -65.3665 0)
(-12.6402 -62.9584 0)
(-14.9241 -59.8402 0)
(-16.9128 -56.1206 0)
(-18.633 -51.8962 0)
(-20.1112 -47.2504 0)
(-21.3757 -42.2518 0)
(-22.4577 -36.9524 0)
(-23.3898 -31.3804 0)
(-24.19 -25.528 0)
(-24.8828 -19.3308 0)
(-25.6084 -12.602 0)
(-26.3551 -5.07948 0)
(-26.726 3.11514 0)
(-27.043 11.7567 0)
(-27.0798 20.7314 0)
(-26.7626 29.8434 0)
(-26.0571 38.8747 0)
(-24.9254 47.6051 0)
(-23.3442 55.7981 0)
(-21.3002 63.1984 0)
(-18.8048 69.5269 0)
(-15.8802 74.4266 0)
(-12.4987 77.3229 0)
(-8.67051 77.4734 0)
(-4.68273 75.8407 0)
(-0.646277 72.6527 0)
(3.34962 68.1926 0)
(7.21015 62.7682 0)
(10.8573 56.6955 0)
(14.2391 50.2691 0)
(17.3274 43.7383 0)
(20.1152 37.2862 0)
(22.606 31.021 0)
(24.8128 24.9911 0)
(26.7679 19.2258 0)
(28.4789 13.7381 0)
(29.8836 8.55042 0)
(30.9253 3.63089 0)
(31.6892 -1.17828 0)
(32.1128 -6.08392 0)
(32.1915 -11.2487 0)
(31.9222 -16.789 0)
(31.2989 -22.7489 0)
(30.3241 -29.0899 0)
(29.009 -35.6975 0)
(27.3721 -42.397 0)
(25.4396 -48.9744 0)
(23.2449 -55.2002 0)
(20.8275 -60.8515 0)
(18.2323 -65.7251 0)
(15.5092 -69.6438 0)
(12.7131 -72.4516 0)
(9.90129 -73.9331 0)
(7.12662 -73.9914 0)
(4.44145 -73.0361 0)
(1.8522 -71.098 0)
(-0.607704 -68.2348 0)
(-2.87616 -64.5273 0)
(-4.9201 -60.099 0)
(-6.72589 -55.0827 0)
(-8.28854 -49.5971 0)
(-9.60103 -43.7738 0)
(-10.6594 -37.7385 0)
(-11.4733 -31.6001 0)
(-12.0591 -25.4456 0)
(-12.4162 -19.3211 0)
(-12.7284 -13.1467 0)
(-13.4904 -6.42956 0)
(-13.8154 1.05718 0)
(-14.2199 8.65094 0)
(-14.5184 16.2546 0)
(-14.717 23.7818 0)
(-14.9055 31.1943 0)
(-15.089 38.4574 0)
(-15.2514 45.5052 0)
(-15.3747 52.2405 0)
(-15.4357 58.5385 0)
(-15.4138 64.2524 0)
(-15.2938 69.2182 0)
(-15.0663 73.2524 0)
(-14.7142 76.1221 0)
(-14.1231 77.3786 0)
(-13.2521 76.9071 0)
(-12.2029 75.1872 0)
(-10.9512 72.2565 0)
(-9.49443 68.2114 0)
(-7.85455 63.1888 0)
(-6.06272 57.3615 0)
(-4.15937 50.9286 0)
(-2.19504 44.098 0)
(-42.087 -31.4807 0)
(-42.6642 -23.0158 0)
(-43.4866 -13.5189 0)
(-44.2377 -2.62318 0)
(-44.6179 9.62489 0)
(-44.7759 23.1582 0)
(-44.4433 37.7192 0)
(-43.5384 52.8876 0)
(-41.8957 68.15 0)
(-39.4887 83.0508 0)
(-36.2859 97.1016 0)
(-32.2999 109.788 0)
(-27.6184 120.459 0)
(-22.3082 128.054 0)
(-16.2525 130.628 0)
(-9.78336 128.641 0)
(-3.24716 123.265 0)
(3.15482 115.081 0)
(9.24152 104.778 0)
(14.8312 93.0591 0)
(19.7867 80.5689 0)
(24.038 67.8325 0)
(27.5711 55.2247 0)
(30.4432 42.9821 0)
(32.7869 31.2083 0)
(34.7305 19.9506 0)
(36.2229 9.39617 0)
(36.927 -0.0447329 0)
(37.3578 -8.11937 0)
(37.4536 -14.8479 0)
(37.3206 -20.2366 0)
(37.096 -24.3278 0)
(36.8237 -27.2396 0)
(36.4599 -29.1948 0)
(35.8547 -30.5471 0)
(34.8988 -31.8371 0)
(33.4153 -33.5366 0)
(31.2103 -35.9319 0)
(28.2339 -39.1558 0)
(24.5621 -43.1533 0)
(20.3157 -47.6161 0)
(15.695 -52.1359 0)
(10.9279 -56.3006 0)
(6.21823 -59.7459 0)
(1.7316 -62.193 0)
(-2.39062 -63.4499 0)
(-6.02422 -63.3147 0)
(-9.21867 -62.1228 0)
(-12.0783 -60.0823 0)
(-14.6225 -57.3051 0)
(-16.8685 -53.898 0)
(-18.8431 -49.9573 0)
(-20.57 -45.5686 0)
(-22.0759 -40.7974 0)
(-23.3892 -35.6928 0)
(-24.5368 -30.2802 0)
(-25.535 -24.5517 0)
(-26.4222 -18.4408 0)
(-27.3186 -11.7746 0)
(-28.1152 -4.37889 0)
(-28.5521 3.5784 0)
(-28.8405 11.9137 0)
(-28.7599 20.4975 0)
(-28.2735 29.1579 0)
(-27.3645 37.7066 0)
(-25.9911 45.9279 0)
(-24.1296 53.5907 0)
(-21.7765 60.4594 0)
(-18.9475 66.2774 0)
(-15.6668 70.6865 0)
(-11.8982 73.0351 0)
(-7.73912 72.9294 0)
(-3.47261 71.1868 0)
(0.797264 68.0197 0)
(4.97257 63.6943 0)
(8.9545 58.4997 0)
(12.668 52.7265 0)
(16.0668 46.6401 0)
(19.1317 40.4614 0)
(21.8684 34.3542 0)
(24.2966 28.4201 0)
(26.4357 22.707 0)
(28.3063 17.2392 0)
(29.9156 12.0656 0)
(31.1786 7.22314 0)
(32.1476 2.66685 0)
(32.8251 -1.78576 0)
(33.1719 -6.31973 0)
(33.1811 -11.0978 0)
(32.8387 -16.2414 0)
(32.1337 -21.8015 0)
(31.0657 -27.7491 0)
(29.6444 -33.9794 0)
(27.8888 -40.3272 0)
(25.8264 -46.5867 0)
(23.4925 -52.536 0)
(20.9282 -57.9583 0)
(18.1788 -62.6559 0)
(15.2934 -66.4558 0)
(12.3274 -69.204 0)
(9.341 -70.7 0)
(6.38613 -70.8232 0)
(3.52086 -69.9708 0)
(0.761979 -68.1752 0)
(-1.85028 -65.4978 0)
(-4.27823 -62.0224 0)
(-6.49173 -57.851 0)
(-8.4699 -53.1016 0)
(-10.2015 -47.8957 0)
(-11.6804 -42.3549 0)
(-12.9108 -36.5959 0)
(-13.9086 -30.7139 0)
(-14.6884 -24.7696 0)
(-15.2763 -18.763 0)
(-15.9221 -12.535 0)
(-16.8051 -5.70008 0)
(-17.3116 1.6333 0)
(-17.8655 9.08371 0)
(-18.2789 16.5866 0)
(-18.5759 24.0496 0)
(-18.8123 31.4161 0)
(-18.9846 38.63 0)
(-19.0764 45.6109 0)
(-19.0682 52.2553 0)
(-18.938 58.4381 0)
(-18.6686 64.019 0)
(-18.2508 68.8431 0)
(-17.6827 72.7218 0)
(-16.9433 75.3778 0)
(-15.8859 76.287 0)
(-14.5476 75.5952 0)
(-13.0205 73.6403 0)
(-11.2844 70.4786 0)
(-9.34929 66.2195 0)
(-7.25174 61.0188 0)
(-5.03578 55.0632 0)
(-2.75844 48.5623 0)
(-0.484161 41.7337 0)
(-46.7393 -30.5398 0)
(-47.8203 -22.0082 0)
(-49.0295 -12.4911 0)
(-49.9623 -1.79384 0)
(-50.6229 10.0783 0)
(-50.9209 23.116 0)
(-50.5975 37.0123 0)
(-49.4903 51.3161 0)
(-47.5707 65.6606 0)
(-44.7506 79.6022 0)
(-40.9954 92.6937 0)
(-36.3476 104.472 0)
(-30.9085 114.329 0)
(-24.6948 121.157 0)
(-17.5909 122.936 0)
(-10.141 120.803 0)
(-2.67779 115.496 0)
(4.54716 107.63 0)
(11.3228 97.8666 0)
(17.4613 86.8639 0)
(22.8362 75.193 0)
(27.3975 63.3044 0)
(31.1637 51.5036 0)
(34.2119 39.9693 0)
(36.6635 28.8051 0)
(38.5817 18.1377 0)
(39.8875 8.23341 0)
(40.4567 -0.598987 0)
(40.6764 -8.24057 0)
(40.5369 -14.6781 0)
(40.1675 -19.8901 0)
(39.6879 -23.8915 0)
(39.1486 -26.7319 0)
(38.4961 -28.5297 0)
(37.7207 -29.631 0)
(36.7306 -30.4837 0)
(35.3221 -31.5173 0)
(33.3163 -33.1333 0)
(30.5909 -35.5735 0)
(27.0531 -38.7677 0)
(22.8986 -42.6351 0)
(18.2787 -46.8195 0)
(13.3912 -50.8828 0)
(8.46299 -54.441 0)
(3.68614 -57.1799 0)
(-0.7899 -58.872 0)
(-4.81913 -59.3425 0)
(-8.3393 -58.5565 0)
(-11.4742 -56.9003 0)
(-14.2829 -54.4764 0)
(-16.78 -51.3959 0)
(-18.9905 -47.7542 0)
(-20.9463 -43.6313 0)
(-22.6728 -39.0955 0)
(-24.1948 -34.1975 0)
(-25.5362 -28.9605 0)
(-26.7156 -23.3709 0)
(-27.7713 -17.3638 0)
(-28.7866 -10.8082 0)
(-29.5801 -3.62996 0)
(-30.0091 3.99154 0)
(-30.2105 11.9404 0)
(-30.008 20.0942 0)
(-29.3704 28.2792 0)
(-28.2707 36.3068 0)
(-26.6722 43.9741 0)
(-24.558 51.0717 0)
(-21.9331 57.3844 0)
(-18.8208 62.6662 0)
(-15.2448 66.5634 0)
(-11.1666 68.3967 0)
(-6.75452 68.0831 0)
(-2.28511 66.2846 0)
(2.14078 63.1962 0)
(6.42251 59.0636 0)
(10.4635 54.1549 0)
(14.1946 48.7331 0)
(17.5747 43.0318 0)
(20.5906 37.2415 0)
(23.2535 31.502 0)
(25.5909 25.9045 0)
(27.6376 20.5056 0)
(29.4228 15.3553 0)
(30.9287 10.5156 0)
(32.0891 6.01716 0)
(33.0033 1.79537 0)
(33.6168 -2.31627 0)
(33.9123 -6.48588 0)
(33.8738 -10.8771 0)
(33.4785 -15.6165 0)
(32.7106 -20.7644 0)
(31.5661 -26.3035 0)
(30.0534 -32.1414 0)
(28.1921 -38.1231 0)
(26.0116 -44.0528 0)
(23.5495 -49.7162 0)
(20.8489 -54.9018 0)
(17.957 -59.4161 0)
(14.9229 -63.09 0)
(11.8027 -65.7747 0)
(8.66073 -67.2869 0)
(5.5506 -67.4755 0)
(2.53054 -66.7289 0)
(-0.382047 -65.0804 0)
(-3.14695 -62.5874 0)
(-5.72953 -59.331 0)
(-8.10339 -55.4084 0)
(-10.2474 -50.9277 0)
(-12.1479 -46.0011 0)
(-13.7998 -40.7404 0)
(-15.2102 -35.2492 0)
(-16.3976 -29.6061 0)
(-17.3787 -23.8448 0)
(-18.2232 -17.9223 0)
(-19.1879 -11.6417 0)
(-20.1622 -4.7933 0)
(-20.8481 2.36308 0)
(-21.5307 9.66037 0)
(-22.04 17.0331 0)
(-22.4114 24.3846 0)
(-22.6721 31.6466 0)
(-22.8099 38.7461 0)
(-22.807 45.592 0)
(-22.6431 52.0771 0)
(-22.2987 58.0807 0)
(-21.7613 63.4703 0)
(-21.0289 68.0961 0)
(-20.1046 71.7657 0)
(-18.9416 74.1562 0)
(-17.3708 74.6459 0)
(-15.5474 73.7249 0)
(-13.5166 71.5303 0)
(-11.2853 68.1488 0)
(-8.88385 63.7066 0)
(-6.36071 58.3723 0)
(-3.76907 52.3456 0)
(-1.17 45.8431 0)
(1.36883 39.0859 0)
(-50.7885 -29.0647 0)
(-52.3111 -20.5424 0)
(-53.804 -11.1325 0)
(-54.9092 -0.731973 0)
(-55.7511 10.6984 0)
(-56.0653 23.0962 0)
(-55.6202 36.1265 0)
(-54.3525 49.4939 0)
(-52.1549 62.8077 0)
(-48.9448 75.6536 0)
(-44.7074 87.656 0)
(-39.5137 98.4393 0)
(-33.4627 107.38 0)
(-26.4611 113.184 0)
(-18.5198 114.266 0)
(-10.328 112.003 0)
(-2.15601 106.85 0)
(5.69957 99.4243 0)
(12.9985 90.3399 0)
(19.5501 80.1844 0)
(25.2455 69.4513 0)
(30.0507 58.5034 0)
(34.0056 47.5803 0)
(37.2032 36.8259 0)
(39.7298 26.3664 0)
(41.6135 16.4032 0)
(42.7895 7.21571 0)
(43.2899 -0.988598 0)
(43.3895 -8.16596 0)
(43.1152 -14.2817 0)
(42.5975 -19.2957 0)
(41.9457 -23.1822 0)
(41.1783 -25.9171 0)
(40.287 -27.6041 0)
(39.3507 -28.5772 0)
(38.264 -29.1572 0)
(36.887 -29.7007 0)
(35.0408 -30.5821 0)
(32.5488 -32.1536 0)
(29.3222 -34.6065 0)
(25.3306 -37.7897 0)
(20.7663 -41.4632 0)
(15.8596 -45.3093 0)
(10.7881 -48.8809 0)
(5.76634 -51.8283 0)
(0.974185 -53.8917 0)
(-3.4462 -54.8953 0)
(-7.35703 -54.6657 0)
(-10.7895 -53.4099 0)
(-13.8643 -51.3616 0)
(-16.6149 -48.6212 0)
(-19.0612 -45.2875 0)
(-21.2326 -41.4443 0)
(-23.1572 -37.161 0)
(-24.8626 -32.4852 0)
(-26.3719 -27.4389 0)
(-27.6968 -22.0158 0)
(-28.8639 -16.1714 0)
(-29.9206 -9.81952 0)
(-30.6714 -2.93374 0)
(-31.0808 4.3267 0)
(-31.1907 11.8655 0)
(-30.8643 19.5494 0)
(-30.0732 27.213 0)
(-28.7886 34.6804 0)
(-26.9822 41.7647 0)
(-24.647 48.277 0)
(-21.796 54.0246 0)
(-18.4576 58.7726 0)
(-14.6518 62.1491 0)
(-10.3427 63.4741 0)
(-5.76974 63.025 0)
(-1.17566 61.2259 0)
(3.32992 58.2696 0)
(7.64557 54.379 0)
(11.6825 49.7987 0)
(15.38 44.7642 0)
(18.7032 39.4778 0)
(21.6456 34.1009 0)
(24.2218 28.7513 0)
(26.4631 23.5077 0)
(28.4139 18.4277 0)
(30.1097 13.5796 0)
(31.5002 9.04829 0)
(32.6177 4.87716 0)
(33.4921 0.977032 0)
(34.0756 -2.7982 0)
(34.3517 -6.6066 0)
(34.2913 -10.6106 0)
(33.8648 -14.9383 0)
(33.0524 -19.6602 0)
(31.8475 -24.7741 0)
(30.2578 -30.2021 0)
(28.3043 -35.8024 0)
(26.0189 -41.3894 0)
(23.4412 -46.7564 0)
(20.6166 -51.6972 0)
(17.5941 -56.0214 0)
(14.4249 -59.5635 0)
(11.165 -62.1799 0)
(7.88142 -63.7079 0)
(4.63105 -63.9625 0)
(1.47142 -63.3204 0)
(-1.58259 -61.8171 0)
(-4.49179 -59.508 0)
(-7.22186 -56.4685 0)
(-9.74773 -52.7894 0)
(-12.0497 -48.5711 0)
(-14.1146 -43.9167 0)
(-15.9385 -38.9275 0)
(-17.5307 -33.6917 0)
(-18.9108 -28.2678 0)
(-20.1062 -22.6618 0)
(-21.2278 -16.7946 0)
(-22.4559 -10.4954 0)
(-23.4802 -3.73506 0)
(-24.3599 3.22796 0)
(-25.1365 10.3578 0)
(-25.719 17.5675 0)
(-26.135 24.7595 0)
(-26.388 31.8567 0)
(-26.4625 38.7739 0)
(-26.3408 45.415 0)
(-26.0036 51.6755 0)
(-25.4327 57.4406 0)
(-24.6179 62.5873 0)
(-23.5626 66.9726 0)
(-22.2634 70.3726 0)
(-20.6179 72.3376 0)
(-18.5479 72.4741 0)
(-16.2498 71.2995 0)
(-13.7424 68.8735 0)
(-11.0478 65.298 0)
(-8.21293 60.7125 0)
(-5.29418 55.2955 0)
(-2.3542 49.254 0)
(0.53641 42.8126 0)
(3.30417 36.1982 0)
(-54.1767 -27.1236 0)
(-56.0548 -18.712 0)
(-57.6821 -9.53571 0)
(-58.9658 0.463486 0)
(-59.8496 11.3424 0)
(-60.081 22.9623 0)
(-59.525 35.0899 0)
(-58.0659 47.4209 0)
(-55.5895 59.5892 0)
(-52.0301 71.2443 0)
(-47.3992 82.0972 0)
(-41.7886 91.8197 0)
(-35.2703 99.7428 0)
(-27.6193 104.337 0)
(-19.128 104.922 0)
(-10.436 102.509 0)
(-1.78303 97.5705 0)
(6.50435 90.6771 0)
(14.1557 82.3738 0)
(20.9836 73.161 0)
(26.8946 63.4391 0)
(31.8728 53.4884 0)
(35.9789 43.4891 0)
(39.2977 33.5717 0)
(41.8853 23.9046 0)
(43.7466 14.7318 0)
(44.8399 6.29009 0)
(45.3497 -1.29873 0)
(45.4173 -8.01387 0)
(45.1109 -13.7938 0)
(44.5487 -18.5796 0)
(43.8173 -22.3018 0)
(42.8748 -24.8842 0)
(41.8631 -26.4953 0)
(40.779 -27.3598 0)
(39.5737 -27.7355 0)
(38.1571 -27.9306 0)
(36.3922 -28.2806 0)
(34.1157 -29.1043 0)
(31.1799 -30.6708 0)
(27.5132 -33.1198 0)
(23.1355 -36.2427 0)
(18.2462 -39.6718 0)
(13.1339 -43.1347 0)
(7.95109 -46.1944 0)
(2.89701 -48.5441 0)
(-1.8641 -49.9848 0)
(-6.19475 -50.382 0)
(-9.98402 -49.5853 0)
(-13.3329 -47.9458 0)
(-16.3315 -45.5777 0)
(-19.0075 -42.5798 0)
(-21.3842 -39.0399 0)
(-23.4914 -35.0276 0)
(-25.3555 -30.5947 0)
(-26.9969 -25.7707 0)
(-28.4258 -20.5569 0)
(-29.6647 -14.9237 0)
(-30.7344 -8.82096 0)
(-31.433 -2.27033 0)
(-31.797 4.58734 0)
(-31.7992 11.6692 0)
(-31.3397 18.8438 0)
(-30.3937 25.9551 0)
(-28.9353 32.8405 0)
(-26.946 39.3315 0)
(-24.4287 45.2589 0)
(-21.4058 50.4434 0)
(-17.9094 54.6565 0)
(-13.9409 57.5274 0)
(-9.48527 58.3942 0)
(-4.84188 57.8423 0)
(-0.19496 56.0897 0)
(4.31783 53.3189 0)
(8.5926 49.7128 0)
(12.5631 45.4943 0)
(16.1781 40.872 0)
(19.4062 36.0158 0)
(22.247 31.0607 0)
(24.7214 26.1036 0)
(26.8704 21.2113 0)
(28.7493 16.4462 0)
(30.375 11.9013 0)
(31.6843 7.66926 0)
(32.7895 3.7888 0)
(33.6447 0.175111 0)
(34.2285 -3.28132 0)
(34.5136 -6.72943 0)
(34.4587 -10.332 0)
(34.0254 -14.2293 0)
(33.1882 -18.5059 0)
(31.9377 -23.175 0)
(30.2826 -28.1748 0)
(28.2471 -33.3777 0)
(25.8675 -38.6083 0)
(23.1867 -43.6676 0)
(20.252 -48.3546 0)
(17.1132 -52.4834 0)
(13.8227 -55.8902 0)
(10.4367 -58.4337 0)
(7.0221 -59.9787 0)
(3.64203 -60.2999 0)
(0.356631 -59.7605 0)
(-2.82645 -58.3996 0)
(-5.8696 -56.2707 0)
(-8.73797 -53.4431 0)
(-11.407 -50.0011 0)
(-13.8581 -46.0374 0)
(-16.0798 -41.6464 0)
(-18.0706 -36.9171 0)
(-19.8419 -31.9207 0)
(-21.4142 -26.6937 0)
(-22.8326 -21.2158 0)
(-24.2243 -15.3958 0)
(-25.6303 -9.14537 0)
(-26.7286 -2.55744 0)
(-27.7548 4.21207 0)
(-28.5938 11.1478 0)
(-29.2207 18.1511 0)
(-29.6497 25.1302 0)
(-29.8734 32.0056 0)
(-29.8751 38.6884 0)
(-29.6309 45.0761 0)
(-29.1127 51.0576 0)
(-28.2883 56.5189 0)
(-27.1613 61.3563 0)
(-25.7488 65.4306 0)
(-24.056 68.4858 0)
(-21.9203 69.954 0)
(-19.3888 69.7874 0)
(-16.6373 68.3508 0)
(-13.6827 65.7068 0)
(-10.5598 61.9637 0)
(-7.32932 57.2719 0)
(-4.05658 51.82 0)
(-0.81444 45.8242 0)
(2.31836 39.5143 0)
(5.26715 33.1153 0)
(-56.8679 -24.8166 0)
(-58.94 -16.6341 0)
(-60.6574 -7.81118 0)
(-62.0363 1.71118 0)
(-62.8806 11.9382 0)
(-63.0212 22.7246 0)
(-62.3284 33.8692 0)
(-60.6662 45.0819 0)
(-57.9319 56.0418 0)
(-54.0888 66.4685 0)
(-49.1869 76.1511 0)
(-43.3149 84.7993 0)
(-36.4124 91.6434 0)
(-28.2267 94.909 0)
(-19.5037 95.1064 0)
(-10.5516 92.5775 0)
(-1.63011 87.8912 0)
(6.89852 81.5921 0)
(14.7371 74.141 0)
(21.6987 65.9286 0)
(27.7119 57.2577 0)
(32.789 48.3247 0)
(37.0032 39.2666 0)
(40.4229 30.2256 0)
(43.0677 21.4184 0)
(44.9176 13.0792 0)
(46.0407 5.37213 0)
(46.6508 -1.63512 0)
(46.7904 -7.88998 0)
(46.5561 -13.3153 0)
(46.0471 -17.8349 0)
(45.2879 -21.326 0)
(44.2974 -23.7473 0)
(43.2028 -25.2534 0)
(41.999 -26.0087 0)
(40.6776 -26.2184 0)
(39.1875 -26.1425 0)
(37.4328 -26.0819 0)
(35.2861 -26.3361 0)
(32.6061 -27.1581 0)
(29.2721 -28.7365 0)
(25.2325 -31.1504 0)
(20.5424 -34.1588 0)
(15.4206 -37.3085 0)
(10.1809 -40.3584 0)
(4.95737 -42.9057 0)
(-0.0741392 -44.6933 0)
(-4.7618 -45.5695 0)
(-8.98369 -45.4479 0)
(-12.6501 -44.2262 0)
(-15.8968 -42.261 0)
(-18.7925 -39.6313 0)
(-21.3659 -36.4224 0)
(-23.641 -32.7112 0)
(-25.6433 -28.5537 0)
(-27.3925 -23.9836 0)
(-28.8995 -19.0144 0)
(-30.1818 -13.6396 0)
(-31.2357 -7.84768 0)
(-31.8702 -1.68314 0)
(-32.1655 4.738 0)
(-32.0515 11.334 0)
(-31.4599 17.9759 0)
(-30.37 24.5192 0)
(-28.7601 30.815 0)
(-26.6204 36.7129 0)
(-23.9625 42.0662 0)
(-20.8164 46.7115 0)
(-17.2174 50.4094 0)
(-13.1429 52.7157 0)
(-8.66622 53.2889 0)
(-4.02524 52.6212 0)
(0.62153 50.9667 0)
(5.06515 48.4496 0)
(9.21346 45.1428 0)
(13.0589 41.2991 0)
(16.5508 37.1028 0)
(19.6531 32.6815 0)
(22.3727 28.1446 0)
(24.7395 23.5679 0)
(26.8113 19.0065 0)
(28.6456 14.5351 0)
(30.201 10.2664 0)
(31.521 6.31831 0)
(32.6384 2.7005 0)
(33.5152 -0.633411 0)
(34.1314 -3.7748 0)
(34.4484 -6.86512 0)
(34.4187 -10.0642 0)
(33.9981 -13.5167 0)
(33.1538 -17.3238 0)
(31.8719 -21.5213 0)
(30.1616 -26.0699 0)
(28.0518 -30.8587 0)
(25.5841 -35.7227 0)
(22.8065 -40.4678 0)
(19.7702 -44.8955 0)
(16.5271 -48.8218 0)
(13.13 -52.0878 0)
(9.63201 -54.5533 0)
(6.09734 -56.0976 0)
(2.60073 -56.511 0)
(-0.79839 -56.0658 0)
(-4.09749 -54.8417 0)
(-7.26189 -52.887 0)
(-10.2567 -50.2655 0)
(-13.0578 -47.0541 0)
(-15.6476 -43.3372 0)
(-18.0166 -39.1994 0)
(-20.1663 -34.7159 0)
(-22.1093 -29.9402 0)
(-23.87 -24.887 0)
(-25.5139 -19.5186 0)
(-27.1427 -13.768 0)
(-28.6059 -7.64286 0)
(-29.8409 -1.28269 0)
(-30.9442 5.27614 0)
(-31.8253 11.9845 0)
(-32.4854 18.7507 0)
(-32.9195 25.4906 0)
(-33.1037 32.1105 0)
(-32.9937 38.4967 0)
(-32.5601 44.5437 0)
(-31.785 50.1549 0)
(-30.6774 55.2501 0)
(-29.248 59.7389 0)
(-27.5187 63.4765 0)
(-25.4449 66.1406 0)
(-22.8205 67.041 0)
(-19.8854 66.5976 0)
(-16.7214 64.9117 0)
(-13.361 62.0696 0)
(-9.85653 58.1905 0)
(-6.27914 53.4365 0)
(-2.70466 48.0056 0)
(0.784046 42.12 0)
(4.10379 36.0108 0)
(7.18202 29.8908 0)
(-58.7803 -22.2731 0)
(-60.9215 -14.4242 0)
(-62.7496 -6.03268 0)
(-64.127 2.94556 0)
(-64.9092 12.4511 0)
(-64.948 22.3554 0)
(-64.0959 32.4553 0)
(-62.228 42.4923 0)
(-59.289 52.211 0)
(-55.3077 61.4238 0)
(-50.327 69.9964 0)
(-44.2638 77.5299 0)
(-36.8296 82.8383 0)