/*--------------------------------*- C++ -*----------------------------------*\
| =========                 |                                                 |
| \\      /  F ield         | OpenFOAM: The Open Source CFD Toolbox           |
|  \\    /   O peration     | Version:  2206                                  |
|   \\  /    A nd           | Website:  www.openfoam.com                      |
|    \\/     M anipulation  |                                                 |
\*---------------------------------------------------------------------------*/
FoamFile
{
    version     2.0;
    format      ascii;
    arch        "LSB;label=32;scalar=64";
    class       volVectorField;
    location    "19.8999";
    object      ddtCorrDdt0(U);
}
// * * * * * * * * * * * * * * * * * * * * * * * * * * * * * * * * * * * * * //

dimensions      [0 1 -2 0 0 0 0];

internalField   nonuniform List<vector> 
4853
(
(-8.08516 113.933 0)
(-7.70771 98.5495 0)
(-7.01388 82.5908 0)
(-6.06043 66.6952 0)
(-4.92701 51.5503 0)
(-3.67633 37.5909 0)
(-2.4347 25.1102 0)
(-1.3904 14.3573 0)
(0.0395588 5.35491 0)
(2.3749 -1.08531 0)
(4.87417 -9.95894 0)
(6.63006 -14.3399 0)
(8.0271 -16.9898 0)
(9.39954 -18.231 0)
(10.7268 -18.387 0)
(11.9863 -17.7169 0)
(13.2463 -16.5606 0)
(14.5109 -15.084 0)
(15.8066 -13.3511 0)
(17.1637 -11.3725 0)
(18.598 -9.17994 0)
(20.1451 -6.86774 0)
(21.7704 -4.54321 0)
(23.4279 -2.38972 0)
(25.0408 -0.671215 0)
(26.508 0.291605 0)
(27.7267 0.173648 0)
(28.6156 -1.28382 0)
(29.1336 -4.20535 0)
(29.2873 -8.53921 0)
(29.1251 -14.056 0)
(28.7159 -20.3904 0)
(28.127 -27.1262 0)
(27.411 -33.8712 0)
(26.5809 -40.2942 0)
(25.6062 -46.2189 0)
(24.4166 -51.5822 0)
(22.9284 -56.3944 0)
(21.0686 -60.6899 0)
(18.7874 -64.4897 0)
(16.0667 -67.7726 0)
(12.9255 -70.4741 0)
(9.42011 -72.5063 0)
(5.59529 -73.6677 0)
(1.53643 -73.8994 0)
(-2.52652 -73.4384 0)
(-6.42986 -72.0577 0)
(-10.1895 -69.7194 0)
(-13.756 -66.6288 0)
(-16.9972 -62.8748 0)
(-19.8486 -58.5606 0)
(-22.2754 -53.8324 0)
(-24.252 -48.8419 0)
(-25.7713 -43.7397 0)
(-26.8403 -38.669 0)
(-27.4778 -33.7602 0)
(-27.7121 -29.1275 0)
(-27.5796 -24.8667 0)
(-27.1219 -21.0533 0)
(-26.3807 -17.7427 0)
(-25.4018 -14.9828 0)
(-24.2311 -12.7635 0)
(-22.9266 -11.0686 0)
(-21.5421 -9.85134 0)
(-20.1304 -9.03252 0)
(-18.7412 -8.5058 0)
(-17.4154 -8.14777 0)
(-16.1785 -7.83325 0)
(-15.0391 -7.44857 0)
(-14.0011 -6.90271 0)
(-13.0771 -6.12368 0)
(-12.2791 -5.03851 0)
(-11.6155 -3.53739 0)
(-11.1039 -1.45978 0)
(-10.603 1.2773 0)
(-10.0697 4.52241 0)
(-9.63572 8.21784 0)
(-9.26575 12.3472 0)
(-8.98146 16.9083 0)
(-8.79522 21.9013 0)
(-8.70672 27.3206 0)
(-8.71181 33.1467 0)
(-8.79902 39.3375 0)
(-8.94859 45.8207 0)
(-9.13398 52.4896 0)
(-9.32419 59.2019 0)
(-9.48657 65.7856 0)
(-9.59055 72.0464 0)
(-9.61125 77.7781 0)
(-9.53151 82.7677 0)
(-9.34245 86.7795 0)
(-9.01414 89.5084 0)
(-8.42384 90.4021 0)
(-7.56891 89.5097 0)
(-6.53516 87.2985 0)
(-5.31739 83.8642 0)
(-3.9361 79.3644 0)
(-2.42859 73.9881 0)
(-0.837896 67.9343 0)
(0.788221 61.412 0)
(2.40439 54.6124 0)
(3.9699 47.6958 0)
(5.4504 40.7992 0)
(6.82138 34.0415 0)
(8.07166 27.5043 0)
(9.17909 21.2464 0)
(10.1281 15.316 0)
(11.143 9.67696 0)
(12.5901 3.99328 0)
(13.7974 -1.44943 0)
(15.2154 -6.02844 0)
(16.628 -9.84058 0)
(17.9979 -12.7602 0)
(19.3481 -14.742 0)
(20.6608 -15.8587 0)
(21.8921 -16.2414 0)
(22.9955 -16.0701 0)
(23.9314 -15.5571 0)
(24.6779 -14.9215 0)
(25.2369 -14.3537 0)
(25.6296 -13.9934 0)
(25.8845 -13.9249 0)
(26.0314 -14.186 0)
(26.0934 -14.7821 0)
(26.0826 -15.7032 0)
(25.9977 -16.9396 0)
(25.8247 -18.4899 0)
(25.5394 -20.3639 0)
(25.1103 -22.5788 0)
(24.5001 -25.1501 0)
(23.6805 -28.0905 0)
(22.6232 -31.3732 0)
(21.3113 -34.9585 0)
(19.7338 -38.7804 0)
(17.8877 -42.7471 0)
(15.7805 -46.7455 0)
(13.4297 -50.6472 0)
(10.8625 -54.3157 0)
(-3.83342 113.303 0)
(-2.79506 97.63 0)
(-1.61669 81.4164 0)
(-0.344723 65.3639 0)
(0.971515 50.0855 0)
(2.28272 36.0582 0)
(3.40548 23.6261 0)
(4.26306 13.0834 0)
(6.27157 3.98942 0)
(8.09662 -4.81224 0)
(10.1045 -11.3612 0)
(11.4425 -15.8033 0)
(12.5575 -18.4044 0)
(13.6497 -19.5759 0)
(14.6816 -19.6793 0)
(15.6542 -18.9858 0)
(16.6548 -17.8391 0)
(17.6809 -16.3926 0)
(18.756 -14.718 0)
(19.9157 -12.8382 0)
(21.166 -10.7647 0)
(22.5517 -8.56814 0)
(24.0459 -6.3254 0)
(25.6052 -4.18258 0)
(27.153 -2.37032 0)
(28.58 -1.19154 0)
(29.7655 -0.978226 0)
(30.603 -2.02213 0)
(31.0246 -4.49975 0)
(31.0167 -8.41511 0)
(30.6206 -13.5829 0)
(29.9174 -19.6602 0)
(29 -26.215 0)
(27.9445 -32.8222 0)
(26.7969 -39.1274 0)
(25.5564 -44.8829 0)
(24.173 -49.9943 0)
(22.5639 -54.4653 0)
(20.6498 -58.3486 0)
(18.3712 -61.6939 0)
(15.6827 -64.5174 0)
(12.6121 -66.7912 0)
(9.24867 -68.4502 0)
(5.4219 -69.3358 0)
(1.58452 -69.4492 0)
(-1.8475 -69.0024 0)
(-6.37531 -67.73 0)
(-9.86976 -65.6023 0)
(-13.4292 -62.8118 0)
(-16.6849 -59.4347 0)
(-19.5587 -55.5596 0)
(-22.0432 -51.3096 0)
(-24.1052 -46.8169 0)
(-25.7328 -42.2147 0)
(-26.9305 -37.6312 0)
(-27.7143 -33.1842 0)
(-28.1104 -28.9773 0)
(-28.1525 -25.0987 0)
(-27.8787 -21.6217 0)
(-27.3293 -18.6095 0)
(-26.5476 -16.0791 0)
(-25.5888 -14.0359 0)
(-24.504 -12.459 0)
(-23.3451 -11.2989 0)
(-22.1634 -10.4804 0)
(-21.0037 -9.90679 0)
(-19.901 -9.4685 0)
(-18.8783 -9.05447 0)
(-17.9479 -8.56145 0)
(-17.1165 -7.89982 0)
(-16.3894 -6.99217 0)
(-15.7705 -5.76168 0)
(-15.2697 -4.11585 0)
(-14.9057 -1.9463 0)
(-14.581 0.808187 0)
(-14.2227 4.07971 0)
(-13.9408 7.83387 0)
(-13.7001 12.0437 0)
(-13.5204 16.6957 0)
(-13.411 21.7825 0)
(-13.3657 27.2904 0)
(-13.3724 33.191 0)
(-13.4125 39.4327 0)
(-13.4602 45.9354 0)
(-13.4851 52.5891 0)
(-13.4531 59.2518 0)
(-13.3278 65.7515 0)
(-13.0748 71.8979 0)
(-12.6671 77.4898 0)
(-12.0872 82.319 0)
(-11.3412 86.1592 0)
(-10.41 88.6695 0)
(-9.16985 89.2026 0)
(-7.68709 88.1065 0)
(-6.04335 85.6943 0)
(-4.24647 82.0869 0)
(-2.32669 77.4517 0)
(-0.331518 71.9869 0)
(1.68887 65.9025 0)
(3.68138 59.4024 0)
(5.59663 52.6736 0)
(7.39288 45.8721 0)
(9.03815 39.122 0)
(10.5152 32.5199 0)
(11.8236 26.14 0)
(12.9596 20.0178 0)
(13.9956 14.1363 0)
(15.2716 8.32505 0)
(16.5606 2.4603 0)
(17.7513 -2.87923 0)
(19.0545 -7.50122 0)
(20.338 -11.3261 0)
(21.6162 -14.2337 0)
(22.8764 -16.184 0)
(24.0829 -17.2257 0)
(25.1917 -17.4821 0)
(26.1543 -17.137 0)
(26.9296 -16.4181 0)
(27.5067 -15.5684 0)
(27.8905 -14.798 0)
(28.1199 -14.2687 0)
(28.2073 -14.0602 0)
(28.1893 -14.2141 0)
(28.093 -14.7285 0)
(27.9359 -15.5771 0)
(27.7214 -16.7327 0)
(27.4389 -18.1812 0)
(27.0654 -19.9226 0)
(26.5694 -21.9675 0)
(25.9138 -24.3306 0)
(25.0609 -27.0207 0)
(23.9812 -30.0319 0)
(22.6504 -33.3257 0)
(21.055 -36.8461 0)
(19.1888 -40.5121 0)
(17.0559 -44.2217 0)
(14.6702 -47.8579 0)
(12.0562 -51.2959 0)
(0.595313 111.851 0)
(2.22555 96.0993 0)
(3.81618 79.8507 0)
(5.34789 63.8132 0)
(6.78738 48.6028 0)
(8.09025 34.712 0)
(9.12208 22.4279 0)
(10.4262 11.7429 0)
(12.3813 1.63933 0)
(13.7152 -6.7246 0)
(15.1913 -12.932 0)
(16.2366 -17.102 0)
(17.0652 -19.5163 0)
(17.8253 -20.5865 0)
(18.5331 -20.6331 0)
(19.2096 -19.9392 0)
(19.9476 -18.8309 0)
(20.7311 -17.4395 0)
(21.5816 -15.845 0)
(22.5352 -14.0812 0)
(23.589 -12.1469 0)
(24.7944 -10.0928 0)
(26.136 -7.96655 0)
(27.5751 -5.87395 0)
(29.0412 -4.00542 0)
(30.4229 -2.63547 0)
(31.5853 -2.09205 0)
(32.3976 -2.69308 0)
(32.7614 -4.66747 0)
(32.6347 -8.08522 0)
(32.041 -12.822 0)
(31.0611 -18.5739 0)
(29.8087 -24.9174 0)
(28.3946 -31.3953 0)
(26.8976 -37.6122 0)
(25.3523 -43.2752 0)
(23.7398 -48.2258 0)
(21.9981 -52.4442 0)
(20.0363 -55.9862 0)
(17.7791 -58.9275 0)
(15.1677 -61.3239 0)
(12.2015 -63.1919 0)
(8.95 -64.5175 0)
(5.26986 -65.2403 0)
(1.4698 -65.3084 0)
(-1.54004 -64.6421 0)
(-6.21248 -63.35 0)
(-9.55608 -61.5126 0)
(-13.0417 -59.0385 0)
(-16.2585 -56.0071 0)
(-19.1205 -52.5367 0)
(-21.6271 -48.7301 0)
(-23.7435 -44.702 0)
(-25.4553 -40.5699 0)
(-26.7645 -36.4469 0)
(-27.6842 -32.4383 0)
(-28.2365 -28.6381 0)
(-28.451 -25.1284 0)
(-28.3625 -21.9812 0)
(-28.0109 -19.2432 0)
(-27.4449 -16.9347 0)
(-26.7125 -15.0579 0)
(-25.8625 -13.589 0)
(-24.9445 -12.4804 0)
(-24.0058 -11.662 0)
(-23.0868 -11.0463 0)
(-22.2192 -10.5351 0)
(-21.4245 -10.0281 0)
(-20.7157 -9.43055 0)
(-20.0999 -8.65722 0)
(-19.5807 -7.63155 0)
(-19.1602 -6.27789 0)
(-18.8453 -4.51357 0)
(-18.6469 -2.25666 0)
(-18.4806 0.530854 0)
(-18.3013 3.82332 0)
(-18.1726 7.61381 0)
(-18.0625 11.8751 0)
(-17.9839 16.5845 0)
(-17.9398 21.7252 0)
(-17.921 27.2739 0)
(-17.9135 33.1945 0)
(-17.8973 39.4319 0)
(-17.8428 45.9006 0)
(-17.7114 52.4802 0)
(-17.4469 59.0186 0)
(-17.0059 65.3469 0)
(-16.3582 71.2859 0)
(-15.4873 76.6543 0)
(-14.4025 81.2643 0)
(-13.1143 84.8792 0)
(-11.5897 87.1284 0)
(-9.71581 87.3038 0)
(-7.63845 86.025 0)
(-5.41154 83.4412 0)
(-3.06248 79.6991 0)
(-0.636406 74.9798 0)
(1.80936 69.489 0)
(4.21777 63.4398 0)
(6.53283 57.0348 0)
(8.70503 50.4532 0)
(10.6954 43.8387 0)
(12.4784 37.3015 0)
(14.0483 30.9188 0)
(15.4106 24.7302 0)
(16.5904 18.7312 0)
(17.7596 12.8408 0)
(19.1379 6.89927 0)
(20.2661 1.04979 0)
(21.4787 -4.24781 0)
(22.7088 -8.88957 0)
(23.9203 -12.7191 0)
(25.1268 -15.6096 0)
(26.2999 -17.5112 0)
(27.3978 -18.458 0)
(28.3745 -18.5675 0)
(29.1773 -18.0249 0)
(29.7463 -17.0664 0)
(30.1219 -15.9957 0)
(30.3235 -15.0403 0)
(30.367 -14.3475 0)
(30.2792 -14.0082 0)
(30.0897 -14.0609 0)
(29.8187 -14.4956 0)
(29.4899 -15.2805 0)
(29.1276 -16.3792 0)
(28.7189 -17.7522 0)
(28.2423 -19.3858 0)
(27.6662 -21.2839 0)
(26.9525 -23.4586 0)
(26.0608 -25.9196 0)
(24.9557 -28.667 0)
(23.6092 -31.6753 0)
(22.0037 -34.8966 0)
(20.1307 -38.2607 0)
(17.9908 -41.6768 0)
(15.5948 -45.039 0)
(12.9641 -48.2337 0)
(4.9688 109.66 0)
(7.15453 94.0355 0)
(9.13521 77.9264 0)
(10.9055 62.0555 0)
(12.4622 47.0197 0)
(13.7494 33.2795 0)
(14.892 21.0639 0)
(16.5547 10.0296 0)
(18.0498 -0.145486 0)
(19.1312 -8.16126 0)
(20.1606 -14.0174 0)
(20.8472 -17.9427 0)
(21.352 -20.2271 0)
(21.7888 -21.2251 0)
(22.1753 -21.2384 0)
(22.5831 -20.5888 0)
(23.0664 -19.5427 0)
(23.6166 -18.2283 0)
(24.2487 -16.7299 0)
(24.9912 -15.0901 0)
(25.8529 -13.3135 0)
(26.863 -11.4206 0)
(28.0335 -9.44146 0)
(29.3311 -7.44057 0)
(30.6962 -5.56232 0)
(32.0228 -4.04197 0)
(33.1692 -3.18971 0)
(33.9836 -3.33799 0)
(34.3364 -4.76344 0)
(34.1506 -7.60651 0)
(33.4196 -11.8182 0)
(32.2098 -17.1558 0)
(30.6438 -23.2247 0)
(28.864 -29.5572 0)
(26.9903 -35.7074 0)
(25.0944 -41.3364 0)
(23.1967 -46.2261 0)
(21.2631 -50.3057 0)
(19.218 -53.612 0)
(16.9767 -56.2346 0)
(14.4697 -58.2685 0)
(11.6536 -59.7682 0)
(8.52739 -60.7285 0)
(5.1351 -61.2239 0)
(1.5243 -61.1953 0)
(-2.15003 -60.4715 0)
(-5.72437 -59.2364 0)
(-9.20305 -57.582 0)
(-12.5805 -55.3527 0)
(-15.7176 -52.6285 0)
(-18.5537 -49.523 0)
(-21.0616 -46.1211 0)
(-23.2119 -42.5211 0)
(-24.99 -38.8249 0)
(-26.3956 -35.1314 0)
(-27.4385 -31.5343 0)
(-28.1375 -28.1186 0)
(-28.5188 -24.9594 0)
(-28.6154 -22.1208 0)
(-28.4692 -19.6395 0)
(-28.1243 -17.5376 0)
(-27.6255 -15.8142 0)
(-27.0189 -14.4451 0)
(-26.3499 -13.3844 0)
(-25.6612 -12.5671 0)
(-24.9895 -11.9136 0)
(-24.3638 -11.3354 0)
(-23.8044 -10.7424 0)
(-23.3241 -10.0478 0)
(-22.9297 -9.17175 0)
(-22.6242 -8.03942 0)
(-22.4088 -6.57627 0)
(-22.2885 -4.7082 0)
(-22.2638 -2.37683 0)
(-22.2441 0.439864 0)
(-22.2373 3.74647 0)
(-22.2504 7.55231 0)
(-22.2598 11.8316 0)
(-22.2716 16.5582 0)
(-22.2863 21.7102 0)
(-22.2961 27.2612 0)
(-22.2833 33.1669 0)
(-22.2082 39.3517 0)
(-22.0132 45.7115 0)
(-21.6571 52.1243 0)
(-21.108 58.4478 0)
(-20.3305 64.5246 0)
(-19.2959 70.1911 0)
(-17.9949 75.285 0)
(-16.4385 79.6371 0)
(-14.6407 82.9963 0)
(-12.5266 84.867 0)
(-10.0564 84.7619 0)
(-7.41889 83.2939 0)
(-4.64847 80.5664 0)
(-1.79057 76.7367 0)
(1.09306 71.9935 0)
(3.93701 66.5462 0)
(6.67951 60.6073 0)
(9.26393 54.3715 0)
(11.6434 48.0057 0)
(13.7858 41.6403 0)
(15.6765 35.3656 0)
(17.3202 29.2316 0)
(18.7319 23.2448 0)
(19.9846 17.359 0)
(21.2811 11.4521 0)
(22.6082 5.47084 0)
(23.7398 -0.293672 0)
(24.959 -5.57366 0)
(26.1532 -10.2224 0)
(27.3298 -14.0461 0)
(28.4849 -16.9042 0)
(29.5806 -18.7329 0)
(30.5718 -19.5544 0)
(31.4077 -19.4769 0)
(32.0018 -18.6806 0)
(32.3674 -17.485 0)
(32.5488 -16.2115 0)
(32.5452 -15.0696 0)
(32.3811 -14.2138 0)
(32.0868 -13.7419 0)
(31.6965 -13.6946 0)
(31.2429 -14.0638 0)
(30.7511 -14.8077 0)
(30.2174 -15.8606 0)
(29.6668 -17.1834 0)
(29.0764 -18.7393 0)
(28.4113 -20.5175 0)
(27.6325 -22.5274 0)
(26.6972 -24.7807 0)
(25.5658 -27.2797 0)
(24.2076 -30.0132 0)
(22.6007 -32.9434 0)
(20.7335 -36.01 0)
(18.6044 -39.1333 0)
(16.2204 -42.2193 0)
(13.5991 -45.1664 0)
(9.01712 106.775 0)
(11.7074 91.4517 0)
(14.0576 75.6609 0)
(16.0715 60.0963 0)
(17.7667 45.3433 0)
(19.1502 31.7977 0)
(20.4963 19.5779 0)
(22.1789 8.36772 0)
(23.3005 -1.54837 0)
(24.1666 -9.18817 0)
(24.8274 -14.73 0)
(25.1735 -18.4286 0)
(25.3621 -20.58 0)
(25.484 -21.5136 0)
(25.5613 -21.5194 0)
(25.7218 -20.946 0)
(25.9648 -19.9867 0)
(26.295 -18.7688 0)
(26.7213 -17.3807 0)
(27.2625 -15.8735 0)
(27.9333 -14.2596 0)
(28.7441 -12.5394 0)
(29.7301 -10.7308 0)
(30.867 -8.85999 0)
(32.1097 -7.02278 0)
(33.3657 -5.40635 0)
(34.4955 -4.28834 0)
(35.3342 -3.99958 0)
(35.724 -4.85303 0)
(35.5494 -7.05705 0)
(34.7613 -10.6453 0)
(33.3963 -15.4608 0)
(31.5717 -21.1651 0)
(29.45 -27.2986 0)
(27.1928 -33.3831 0)
(24.919 -39.0141 0)
(22.6874 -43.9262 0)
(20.5024 -47.9782 0)
(18.3124 -51.1728 0)
(16.0365 -53.5947 0)
(13.5924 -55.3526 0)
(10.8936 -56.515 0)
(7.92268 -57.1673 0)
(4.72919 -57.4105 0)
(1.36797 -57.2051 0)
(-2.06818 -56.515 0)
(-5.49164 -55.3689 0)
(-8.85037 -53.7873 0)
(-12.0902 -51.7542 0)
(-15.1311 -49.3145 0)
(-17.9131 -46.538 0)
(-20.3985 -43.5037 0)
(-22.5614 -40.2944 0)
(-24.3871 -36.9977 0)
(-25.8727 -33.7003 0)
(-27.0255 -30.4849 0)
(-27.8609 -27.4274 0)
(-28.403 -24.5944 0)
(-28.6836 -22.0386 0)
(-28.7415 -19.7956 0)
(-28.6168 -17.8835 0)
(-28.3519 -16.3003 0)
(-27.9893 -15.0222 0)
(-27.5704 -14.0057 0)
(-27.1334 -13.1902 0)
(-26.7109 -12.5033 0)
(-26.329 -11.8655 0)
(-26.0062 -11.1949 0)
(-25.7544 -10.4121 0)
(-25.5809 -9.44179 0)
(-25.4886 -8.21114 0)
(-25.4784 -6.64931 0)
(-25.5518 -4.69517 0)
(-25.6879 -2.31239 0)
(-25.8105 0.520861 0)
(-25.9573 3.83194 0)
(-26.0971 7.63146 0)
(-26.2172 11.8995 0)
(-26.3192 16.6151 0)
(-26.3969 21.7536 0)
(-26.424 27.2672 0)
(-26.346 33.0802 0)
(-26.1337 39.1174 0)
(-25.7618 45.2876 0)
(-25.1845 51.4707 0)
(-24.3615 57.5264 0)
(-23.2586 63.3026 0)
(-21.8539 68.6512 0)
(-20.1435 73.4305 0)
(-18.1431 77.4738 0)
(-15.8614 80.5129 0)
(-13.195 81.9615 0)
(-10.1858 81.6083 0)
(-7.03305 79.9634 0)
(-3.77453 77.1293 0)
(-0.469779 73.2637 0)
(2.80682 68.5597 0)
(5.98449 63.2259 0)
(8.99867 57.4672 0)
(11.7946 51.4686 0)
(14.3312 45.3815 0)
(16.5851 39.3167 0)
(18.5528 33.3403 0)
(20.2497 27.4753 0)
(21.7114 21.6937 0)
(23.0503 15.9097 0)
(24.4418 10.0099 0)
(25.7122 4.05096 0)
(26.9198 -1.64293 0)
(28.1664 -6.90889 0)
(29.3735 -11.5472 0)
(30.5499 -15.3417 0)
(31.6734 -18.1366 0)
(32.6999 -19.854 0)
(33.5829 -20.5046 0)
(34.2501 -20.1808 0)
(34.6139 -19.1012 0)
(34.7927 -17.68 0)
(34.7599 -16.1906 0)
(34.5354 -14.8535 0)
(34.1486 -13.8349 0)
(33.6341 -13.2397 0)
(33.0302 -13.1076 0)
(32.3722 -13.4227 0)
(31.6901 -14.1333 0)
(31.0018 -15.1726 0)
(30.2975 -16.467 0)
(29.5756 -17.9713 0)
(28.8138 -19.6633 0)
(27.9647 -21.5344 0)
(26.9852 -23.5997 0)
(25.8331 -25.8725 0)
(24.4711 -28.3475 0)
(22.8722 -30.9984 0)
(21.022 -33.777 0)
(18.9171 -36.6131 0)
(16.5636 -39.4229 0)
(13.9766 -42.1181 0)
(12.4941 103.27 0)
(15.649 88.3979 0)
(18.3572 73.0485 0)
(20.6366 57.8916 0)
(22.5242 43.4799 0)
(24.1016 30.156 0)
(25.647 17.9851 0)
(27.2187 6.8754 0)
(28.0914 -2.62122 0)
(28.7094 -9.87373 0)
(29.0632 -15.0843 0)
(29.1068 -18.5496 0)
(28.9966 -20.5771 0)
(28.8124 -21.4587 0)
(28.6432 -21.5163 0)
(28.5728 -21.0375 0)
(28.5998 -20.185 0)
(28.7315 -19.0799 0)
(28.9706 -17.8123 0)
(29.3257 -16.4397 0)
(29.8132 -14.9853 0)
(30.4289 -13.4418 0)
(31.2207 -11.818 0)
(32.1792 -10.1097 0)
(33.2761 -8.3647 0)
(34.4395 -6.71564 0)
(35.542 -5.39427 0)
(36.4155 -4.71212 0)
(36.8816 -5.00203 0)
(36.7888 -6.52977 0)
(36.0389 -9.40583 0)
(34.6211 -13.5756 0)
(32.6235 -18.7976 0)
(30.2188 -24.6465 0)
(27.5973 -30.6251 0)
(24.9287 -36.2788 0)
(22.3246 -41.2663 0)
(19.8279 -45.3952 0)
(17.4258 -48.5987 0)
(15.0542 -50.9379 0)
(12.6227 -52.5172 0)
(10.0196 -53.3952 0)
(7.22225 -53.8261 0)
(4.24288 -53.8671 0)
(1.11884 -53.5198 0)
(-2.09411 -52.7831 0)
(-5.32841 -51.6611 0)
(-8.52187 -50.162 0)
(-11.6133 -48.2957 0)
(-14.5377 -46.0941 0)
(-17.2397 -43.61 0)
(-19.6821 -40.9035 0)
(-21.8386 -38.0449 0)
(-23.694 -35.1091 0)
(-25.2438 -32.1713 0)
(-26.4927 -29.304 0)
(-27.454 -26.5738 0)
(-28.1488 -24.0386 0)
(-28.6067 -21.7414 0)
(-28.8616 -19.7158 0)
(-28.9511 -17.9765 0)
(-28.9143 -16.5201 0)
(-28.7904 -15.3237 0)
(-28.6168 -14.3466 0)
(-28.4268 -13.5331 0)
(-28.2493 -12.8173 0)
(-28.1067 -12.127 0)
(-28.0158 -11.3876 0)
(-27.9883 -10.5254 0)
(-28.031 -9.46864 0)
(-28.1468 -8.14871 0)
(-28.3347 -6.50391 0)
(-28.5856 -4.49089 0)
(-28.8486 -2.08114 0)
(-29.1218 0.757937 0)
(-29.3993 4.06291 0)
(-29.6554 7.84131 0)
(-29.8794 12.0816 0)
(-30.0574 16.7591 0)
(-30.1488 21.8189 0)
(-30.1147 27.1996 0)
(-29.9456 32.8528 0)
(-29.6039 38.6998 0)
(-29.0503 44.6378 0)
(-28.2442 50.5425 0)
(-27.1475 56.2772 0)
(-25.7293 61.7029 0)
(-23.9725 66.6872 0)
(-21.8805 71.1079 0)
(-19.474 74.8129 0)
(-16.743 77.485 0)
(-13.5658 78.4504 0)
(-10.0905 77.8916 0)
(-6.48991 76.1026 0)
(-2.81685 73.2046 0)
(0.857508 69.3585 0)
(4.45014 64.7567 0)
(7.88701 59.6029 0)
(11.1035 54.0911 0)
(14.0489 48.3907 0)
(16.6895 42.6331 0)
(19.0123 36.9069 0)
(21.0271 31.2534 0)
(22.7601 25.6629 0)
(24.2718 20.0736 0)
(25.7141 14.3762 0)
(27.1956 8.50473 0)
(28.4582 2.59919 0)
(29.7929 -3.05112 0)
(31.1082 -8.29736 0)
(32.3725 -12.9008 0)
(33.578 -16.6312 0)
(34.6847 -19.3186 0)
(35.6446 -20.8725 0)
(36.408 -21.2879 0)
(36.847 -20.6456 0)
(37.0251 -19.3023 0)
(36.9859 -17.6365 0)
(36.7243 -15.9205 0)
(36.2679 -14.3832 0)
(35.65 -13.2021 0)
(34.9088 -12.4875 0)
(34.0858 -12.28 0)
(33.219 -12.5582 0)
(32.3402 -13.2583 0)
(31.4705 -14.2967 0)
(30.6168 -15.5937 0)
(29.7626 -17.076 0)
(28.8856 -18.7029 0)
(27.9639 -20.4736 0)
(26.9429 -22.3873 0)
(25.7767 -24.4576 0)
(24.4226 -26.6903 0)
(22.8465 -29.0732 0)
(21.0267 -31.5727 0)
(18.9562 -34.1321 0)
(16.6445 -36.6775 0)
(14.1086 -39.1312 0)
(15.2036 99.2012 0)
(18.8015 84.8888 0)
(21.8801 70.0725 0)
(24.4668 55.3955 0)
(26.6164 41.375 0)
(28.4553 28.3178 0)
(30.1656 16.3225 0)
(31.6191 5.55052 0)
(32.3298 -3.41784 0)
(32.7138 -10.241 0)
(32.7713 -15.1308 0)
(32.5473 -18.3641 0)
(32.1847 -20.2573 0)
(31.7384 -21.1119 0)
(31.3715 -21.2595 0)
(31.0995 -20.8952 0)
(30.9387 -20.1666 0)
(30.8966 -19.188 0)
(30.9711 -18.048 0)
(31.1612 -16.8081 0)
(31.476 -15.5009 0)
(31.9117 -14.1279 0)
(32.5026 -12.688 0)
(33.2661 -11.1626 0)
(34.1914 -9.55687 0)
(35.2339 -7.94631 0)
(36.2882 -6.50311 0)
(37.193 -5.49838 0)
(37.7602 -5.26465 0)
(37.8089 -6.11226 0)
(37.1594 -8.21643 0)
(35.8548 -11.6403 0)
(33.8034 -16.2248 0)
(31.2073 -21.6561 0)
(28.2821 -27.4499 0)
(25.2299 -33.1002 0)
(22.2231 -38.1989 0)
(19.3609 -42.4787 0)
(16.67 -45.8132 0)
(14.1214 -48.1996 0)
(11.6351 -49.7188 0)
(9.09431 -50.4378 0)
(6.45155 -50.6936 0)
(3.67068 -50.5635 0)
(0.766231 -50.0868 0)
(-2.22449 -49.2833 0)
(-5.2509 -48.1615 0)
(-8.25571 -46.7292 0)
(-11.181 -44.9993 0)
(-13.9689 -42.9985 0)
(-16.5723 -40.7633 0)
(-18.9547 -38.3414 0)
(-21.0883 -35.7913 0)
(-22.957 -33.1759 0)
(-24.5548 -30.5595 0)
(-25.8847 -28.0046 0)
(-26.9583 -25.5692 0)
(-27.7944 -23.3025 0)
(-28.4183 -21.24 0)
(-28.8602 -19.4104 0)
(-29.1543 -17.8257 0)
(-29.3357 -16.4817 0)
(-29.4397 -15.3569 0)
(-29.5001 -14.4142 0)
(-29.5464 -13.6029 0)
(-29.6036 -12.8631 0)
(-29.6911 -12.128 0)
(-29.8238 -11.328 0)
(-30.0123 -10.3942 0)
(-30.2618 -9.26079 0)
(-30.5719 -7.86799 0)
(-30.9344 -6.16713 0)
(-31.3159 -4.12156 0)
(-31.7151 -1.69988 0)
(-32.1208 1.14029 0)
(-32.512 4.4284 0)
(-32.8687 8.17049 0)
(-33.1653 12.3498 0)
(-33.3537 16.9143 0)
(-33.4106 21.8251 0)
(-33.3201 27.0427 0)
(-33.0489 32.499 0)
(-32.5607 38.1061 0)
(-31.8168 43.7577 0)
(-30.7785 49.3323 0)
(-29.4111 54.7002 0)
(-27.6898 59.7349 0)
(-25.606 64.3262 0)
(-23.1712 68.3687 0)
(-20.4022 71.6932 0)
(-17.2526 73.9393 0)
(-13.6274 74.4399 0)
(-9.77916 73.6979 0)
(-5.81598 71.8013 0)
(-1.81345 68.8861 0)
(2.14209 65.1145 0)
(5.96464 60.6756 0)
(9.57963 55.7631 0)
(12.9245 50.5557 0)
(15.9542 45.2027 0)
(18.6452 39.8143 0)
(20.9966 34.4526 0)
(23.0296 29.1292 0)
(24.7869 23.8021 0)
(26.3702 18.3757 0)
(27.9523 12.7367 0)
(29.4841 6.89057 0)
(30.9041 1.05474 0)
(32.3802 -4.57602 0)
(33.8099 -9.78995 0)
(35.1686 -14.3235 0)
(36.4234 -17.9394 0)
(37.5202 -20.4574 0)
(38.4084 -21.7757 0)
(39.0122 -21.8698 0)
(39.2104 -20.876 0)
(39.1894 -19.2579 0)
(38.9143 -17.3348 0)
(38.4118 -15.3851 0)
(37.7156 -13.6482 0)
(36.8627 -12.3098 0)
(35.8947 -11.4842 0)
(34.8545 -11.211 0)
(33.7815 -11.4643 0)
(32.7081 -12.1709 0)
(31.6566 -13.2322 0)
(30.6381 -14.5451 0)
(29.651 -16.0358 0)
(28.6711 -17.6469 0)
(27.6617 -19.3472 0)
(26.5938 -21.1446 0)
(25.411 -23.0451 0)
(24.0688 -25.0598 0)
(22.5294 -27.1882 0)
(20.7636 -29.4122 0)
(18.7541 -31.6953 0)
(16.507 -33.9819 0)
(14.0348 -36.1988 0)
(17.0279 94.607 0)
(21.0716 80.9164 0)
(24.5566 66.6884 0)
(27.5088 52.5408 0)
(29.9948 38.9593 0)
(32.1364 26.2435 0)
(33.9863 14.5913 0)
(35.3482 4.35307 0)
(35.9502 -3.99419 0)
(36.1283 -10.328 0)
(35.9358 -14.8716 0)
(35.4653 -17.8935 0)
(34.8443 -19.6788 0)
(34.2424 -20.5612 0)
(33.7125 -20.7924 0)
(33.28 -20.5479 0)
(32.9651 -19.9563 0)
(32.7751 -19.1177 0)
(32.7072 -18.1114 0)
(32.7538 -16.9999 0)
(32.914 -15.8248 0)
(33.1859 -14.604 0)
(33.578 -13.3352 0)
(34.1311 -12.001 0)
(34.8529 -10.5727 0)
(35.7347 -9.06657 0)
(36.7071 -7.59121 0)
(37.6261 -6.36385 0)
(38.3013 -5.68097 0)
(38.5371 -5.87671 0)
(38.0778 -7.2026 0)
(36.9333 -9.79255 0)
(35.059 -13.6209 0)
(32.4272 -18.4554 0)
(29.2833 -23.9072 0)
(25.9061 -29.4818 0)
(22.4969 -34.6828 0)
(19.2243 -39.159 0)
(16.1726 -42.716 0)
(13.3538 -45.2824 0)
(10.7247 -46.8885 0)
(8.1772 -47.5756 0)
(5.63556 -47.7355 0)
(3.01781 -47.4852 0)
(0.315279 -46.9017 0)
(-2.45663 -46.0299 0)
(-5.26696 -44.8933 0)
(-8.06988 -43.5063 0)
(-10.8156 -41.8833 0)
(-13.4566 -40.0426 0)
(-15.9489 -38.0134 0)
(-18.2558 -35.8346 0)
(-20.3503 -33.5526 0)
(-22.2156 -31.2186 0)
(-23.8449 -28.8861 0)
(-25.2403 -26.6075 0)
(-26.4123 -24.4312 0)
(-27.3769 -22.3997 0)
(-28.1543 -20.5456 0)
(-28.7717 -18.889 0)
(-29.2581 -17.4429 0)
(-29.644 -16.2006 0)
(-29.96 -15.1409 0)
(-30.2363 -14.2293 0)
(-30.4989 -13.4194 0)
(-30.7699 -12.656 0)
(-31.0714 -11.8802 0)
(-31.4129 -11.0271 0)
(-31.8008 -10.0335 0)
(-32.2348 -8.84077 0)
(-32.7081 -7.39856 0)
(-33.2099 -5.66636 0)
(-33.7281 -3.60607 0)
(-34.2517 -1.17796 0)
(-34.7645 1.65184 0)
(-35.2453 4.90346 0)
(-35.6634 8.57457 0)
(-35.9688 12.6262 0)
(-36.1407 17.0383 0)
(-36.1581 21.7785 0)
(-35.9891 26.79 0)
(-35.5996 31.9993 0)
(-34.953 37.3164 0)
(-34.0122 42.6358 0)
(-32.7421 47.8399 0)
(-31.1138 52.8072 0)
(-29.1105 57.4279 0)
(-26.7324 61.6095 0)
(-23.9974 65.2533 0)
(-20.9148 68.1733 0)
(-17.3802 69.8784 0)
(-13.4176 70.0702 0)
(-9.28048 69.1383 0)
(-5.04828 67.1649 0)
(-0.811437 64.2788 0)
(3.33018 60.6353 0)
(7.291 56.414 0)
(10.9992 51.7959 0)
(14.3958 46.9401 0)
(17.4439 41.9731 0)
(20.1326 36.9781 0)
(22.4755 31.9885 0)
(24.5087 26.9822 0)
(26.3051 21.8798 0)
(28.0187 16.5617 0)
(29.7844 10.9521 0)
(31.3886 5.12242 0)
(33.0609 -0.673222 0)
(34.7209 -6.28311 0)
(36.3134 -11.4266 0)
(37.7934 -15.8396 0)
(39.1043 -19.2738 0)
(40.1812 -21.5416 0)
(40.9733 -22.5313 0)
(41.3358 -22.206 0)
(41.3328 -20.8692 0)
(41.07 -18.952 0)
(40.5427 -16.7605 0)
(39.789 -14.5752 0)
(38.8485 -12.6445 0)
(37.7619 -11.1589 0)
(36.5731 -10.2344 0)
(35.3248 -9.90828 0)
(34.0555 -10.1493 0)
(32.7965 -10.8745 0)
(31.5728 -11.9729 0)
(30.3992 -13.3361 0)
(29.2763 -14.8616 0)
(28.1888 -16.4778 0)
(27.1037 -18.1473 0)
(25.9727 -19.8556 0)
(24.764 -21.6222 0)
(23.4262 -23.4569 0)
(21.9206 -25.3651 0)
(20.2184 -27.3395 0)
(18.2999 -29.3588 0)
(16.1579 -31.3843 0)
(13.7936 -33.3599 0)
(17.9641 89.4951 0)
(22.481 76.4446 0)
(26.4263 62.8346 0)
(29.814 49.2584 0)
(32.7013 36.1774 0)
(35.1558 23.9172 0)
(37.1144 12.7976 0)
(38.3954 3.25688 0)
(38.9142 -4.39359 0)
(38.9143 -10.1904 0)
(38.5249 -14.3604 0)
(37.8355 -17.1567 0)
(37.0686 -18.8967 0)
(36.3228 -19.8397 0)
(35.6535 -20.1782 0)
(35.095 -20.0598 0)
(34.6621 -19.6016 0)
(34.3554 -18.8987 0)
(34.1683 -18.0249 0)
(34.0909 -17.0371 0)
(34.1154 -15.9794 0)
(34.2398 -14.8822 0)
(34.452 -13.7539 0)
(34.7926 -12.5915 0)
(35.2864 -11.3559 0)
(35.9521 -10.0245 0)
(36.7743 -8.62448 0)
(37.6606 -7.28334 0)
(38.4312 -6.25918 0)
(38.8721 -5.88068 0)
(38.717 -6.45882 0)
(37.8264 -8.2013 0)
(36.1785 -11.1474 0)
(33.7672 -15.2266 0)
(30.6185 -20.1498 0)
(26.9952 -25.4654 0)
(23.2393 -30.7016 0)
(19.5448 -35.3845 0)
(16.0723 -39.2202 0)
(12.8923 -42.0774 0)
(10.0095 -43.9179 0)
(7.3568 -44.7342 0)
(4.83878 -44.8931 0)
(2.32921 -44.5919 0)
(-0.210597 -43.9426 0)
(-2.78624 -43.0185 0)
(-5.38917 -41.8626 0)
(-7.99161 -40.5014 0)
(-10.556 -38.9533 0)
(-13.0414 -37.2372 0)
(-15.4085 -35.3765 0)
(-17.6239 -33.4012 0)
(-19.6624 -31.347 0)
(-21.5075 -29.254 0)
(-23.1527 -27.1642 0)
(-24.5999 -25.1212 0)
(-25.8579 -23.1692 0)
(-26.9388 -21.346 0)
(-27.8563 -19.6782 0)
(-28.6264 -18.176 0)
(-29.2752 -16.8495 0)
(-29.8388 -15.6963 0)
(-30.3419 -14.694 0)
(-30.8115 -13.8099 0)
(-31.2718 -13.0015 0)
(-31.742 -12.2186 0)
(-32.2363 -11.4066 0)
(-32.763 -10.5093 0)
(-33.3246 -9.47106 0)
(-33.9177 -8.23999 0)
(-34.5345 -6.77018 0)
(-35.1651 -5.02102 0)
(-35.7981 -2.95476 0)
(-36.4195 -0.5374 0)
(-37.0099 2.25701 0)
(-37.5401 5.43786 0)
(-37.9647 8.98371 0)
(-38.2594 12.8869 0)
(-38.3994 17.1252 0)
(-38.353 21.6547 0)
(-38.0861 26.4165 0)
(-37.5635 31.336 0)
(-36.7497 36.3234 0)
(-35.6106 41.2746 0)
(-34.116 46.0771 0)
(-32.2448 50.6221 0)
(-29.9892 54.8152 0)
(-27.3582 58.5799 0)
(-24.375 61.8252 0)
(-21.0185 64.3103 0)
(-17.1592 65.4515 0)
(-12.9797 65.3956 0)
(-8.64543 64.308 0)
(-4.23483 62.2962 0)
(0.141593 59.4884 0)
(4.37082 56.0254 0)
(8.37253 52.0714 0)
(12.0843 47.793 0)
(15.454 43.326 0)
(18.4556 38.7675 0)
(21.096 34.1711 0)
(23.4072 29.5361 0)
(25.4478 24.8013 0)
(27.3418 19.8511 0)
(29.2697 14.5673 0)
(31.1889 8.93648 0)
(33.0677 3.13586 0)
(35.0086 -2.66029 0)
(36.9021 -8.20993 0)
(38.6841 -13.2388 0)
(40.2918 -17.46 0)
(41.6438 -20.6231 0)
(42.6707 -22.5388 0)
(43.3066 -23.0865 0)
(43.3665 -22.2742 0)
(43.1451 -20.5869 0)
(42.6155 -18.3598 0)
(41.8222 -15.8973 0)
(40.8129 -13.4842 0)
(39.6306 -11.3734 0)
(38.3197 -9.75707 0)
(36.9242 -8.75007 0)
(35.4847 -8.38649 0)
(34.0367 -8.62743 0)
(32.6116 -9.38283 0)
(31.2343 -10.5398 0)
(29.9196 -11.9691 0)
(28.67 -13.5534 0)
(27.4743 -15.2027 0)
(26.3068 -16.8649 0)
(25.1291 -18.5245 0)
(23.8912 -20.1848 0)
(22.5521 -21.8663 0)
(21.0755 -23.5871 0)
(19.4281 -25.3482 0)
(17.5891 -27.1363 0)
(15.5468 -28.9239 0)
(13.299 -30.6673 0)
(18.1278 83.8426 0)
(23.1688 71.4161 0)
(27.6386 58.4384 0)
(31.5262 45.4794 0)
(34.852 32.9924 0)
(37.5916 21.3524 0)
(39.6052 10.9745 0)
(40.7902 2.26526 0)
(41.2186 -4.63431 0)
(41.0573 -9.86253 0)
(40.4946 -13.6549 0)
(39.7126 -16.2767 0)
(38.8544 -17.982 0)
(38.013 -18.9761 0)
(37.2467 -19.4193 0)
(36.5893 -19.4371 0)
(36.0556 -19.1263 0)
(35.6466 -18.5642 0)
(35.3536 -17.8171 0)
(35.1637 -16.9421 0)
(35.0646 -15.9854 0)
(35.049 -14.9831 0)
(35.1104 -13.9627 0)
(35.2514 -12.931 0)
(35.5156 -11.8698 0)
(35.9341 -10.7348 0)
(36.5291 -9.50609 0)
(37.2768 -8.22299 0)
(38.0667 -7.0245 0)
(38.6985 -6.18118 0)
(38.9148 -6.07215 0)
(38.3834 -6.96684 0)
(37.1033 -9.01585 0)
(34.9964 -12.1842 0)
(32.1113 -16.366 0)
(28.5241 -21.2378 0)
(24.4915 -26.2922 0)
(20.4247 -31.1133 0)
(16.5065 -35.2545 0)
(12.8872 -38.4673 0)
(9.63402 -40.6676 0)
(6.74802 -41.8007 0)
(4.13884 -42.0771 0)
(1.65866 -41.8166 0)
(-0.778148 -41.1612 0)
(-3.201 -40.2169 0)
(-5.62335 -39.0507 0)
(-8.03793 -37.7071 0)
(-10.4223 -36.2149 0)
(-12.746 -34.5957 0)
(-14.9777 -32.8698 0)
(-17.0888 -31.0601 0)
(-19.0569 -29.1932 0)
(-20.8674 -27.2988 0)
(-22.5162 -25.4123 0)
(-24.0051 -23.5734 0)
(-25.3284 -21.8126 0)
(-26.4888 -20.1613 0)
(-27.512 -18.653 0)
(-28.4116 -17.2936 0)
(-29.2097 -16.078 0)
(-29.9311 -15.0024 0)
(-30.6015 -14.0479 0)
(-31.2443 -13.1851 0)
(-31.8792 -12.3755 0)
(-32.5218 -11.5748 0)
(-33.1827 -10.7347 0)
(-33.8672 -9.80519 0)
(-34.5752 -8.73673 0)
(-35.302 -7.48236 0)
(-36.0389 -5.99919 0)
(-36.7747 -4.24877 0)
(-37.4957 -2.19705 0)
(-38.1843 0.184045 0)
(-38.8151 2.91091 0)
(-39.3508 5.97726 0)
(-39.763 9.3816 0)
(-40.0267 13.1142 0)
(-40.1094 17.1444 0)
(-39.9769 21.4275 0)
(-39.5944 25.9038 0)
(-38.9276 30.4988 0)
(-37.9433 35.1239 0)
(-36.6114 39.6792 0)
(-34.9085 44.0615 0)
(-32.822 48.175 0)
(-30.3537 51.9419 0)
(-27.5224 55.3009 0)
(-24.3398 58.1328 0)
(-20.7303 60.1025 0)
(-16.6708 60.8233 0)
(-12.3883 60.5441 0)
(-7.94932 59.3202 0)
(-3.43118 57.3002 0)
(1.00285 54.6331 0)
(5.21333 51.4046 0)
(9.14671 47.7555 0)
(12.7671 43.8495 0)
(16.0331 39.7922 0)
(18.935 35.6432 0)
(21.5016 31.421 0)
(23.7881 27.0854 0)
(25.8962 22.5338 0)
(28.0033 17.6321 0)
(30.2059 12.3061 0)
(32.3513 6.62631 0)
(34.6053 0.811269 0)
(36.8565 -4.94842 0)
(39.0124 -10.4001 0)
(40.9958 -15.2357 0)
(42.707 -19.1647 0)
(44.0513 -21.9409 0)
(44.9638 -23.3765 0)
(45.2888 -23.3385 0)
(45.0981 -22.0632 0)
(44.5872 -20.003 0)
(43.7665 -17.4624 0)
(42.6968 -14.7373 0)
(41.4326 -12.1148 0)
(40.0202 -9.84651 0)
(38.5043 -8.12267 0)
(36.9257 -7.05485 0)
(35.3212 -6.66966 0)
(33.7243 -6.92436 0)
(32.1627 -7.7277 0)
(30.6572 -8.9514 0)
(29.2209 -10.4581 0)
(27.8584 -12.118 0)
(26.5635 -13.825 0)
(25.3158 -15.5099 0)
(24.0823 -17.1445 0)
(22.8213 -18.7344 0)
(21.4882 -20.3004 0)
(20.0388 -21.8594 0)
(18.4448 -23.4271 0)
(16.6856 -25.0054 0)
(14.7435 -26.5744 0)
(12.6131 -28.1016 0)
(11.64 88.2954 0)
(17.7684 77.5872 0)
(23.4006 65.7604 0)
(28.4507 53.438 0)
(32.8661 41.1695 0)
(36.598 29.4165 0)
(39.5285 18.6121 0)
(41.5222 9.1851 0)
(42.5846 1.41046 0)
(42.8737 -4.71665 0)
(42.5982 -9.3899 0)
(41.9567 -12.8485 0)
(41.1186 -15.3162 0)