/*--------------------------------*- C++ -*----------------------------------*\
| =========                 |                                                 |
| \\      /  F ield         | OpenFOAM: The Open Source CFD Toolbox           |
|  \\    /   O peration     | Version:  2206                                  |
|   \\  /    A nd           | Website:  www.openfoam.com                      |
|    \\/     M anipulation  |                                                 |
\*---------------------------------------------------------------------------*/
FoamFile
{
    version     2.0;
    format      ascii;
    arch        "LSB;label=32;scalar=64";
    class       volScalarField;
    location    "18.9999";
    object      p;
}
// * * * * * * * * * * * * * * * * * * * * * * * * * * * * * * * * * * * * * //

dimensions      [0 2 -2 0 0 0 0];

internalField   nonuniform List<scalar> 
3037
(
0.900171
0.900069
0.899805
0.899388
0.89884
0.898169
0.897379
0.896471
0.895454
0.894333
0.893116
0.89181
0.890422
0.888956
0.88742
0.88582
0.884161
0.882449
0.880689
0.878885
0.877043
0.875167
0.873262
0.871331
0.86938
0.867411
0.86543
0.863441
0.861446
0.859452
0.857461
0.855478
0.853505
0.851549
0.849612
0.847698
0.845812
0.843957
0.842138
0.840359
0.838624
0.836937
0.835301
0.833722
0.832203
0.830748
0.829362
0.828048
0.826813
0.825659
0.824593
0.823619
0.822742
0.821968
0.821304
0.820756
0.820332
0.820041
0.819898
0.819911
0.820091
0.820449
0.821003
0.821768
0.822763
0.824011
0.825535
0.827362
0.829523
0.832053
0.834989
0.838376
0.842264
0.846708
0.851772
0.857526
0.86405
0.871435
0.879781
0.889201
0.899822
0.911784
0.92524
0.94036
0.957321
0.97631
0.997512
1.0211
1.0472
1.07586
1.10701
1.14028
1.17495
1.20954
1.24144
1.26578
1.27528
1.25084
1.18883
0.878445
0.899657
0.899558
0.899302
0.898897
0.898364
0.897712
0.896942
0.896058
0.895064
0.893968
0.892776
0.891496
0.890132
0.888691
0.887179
0.885603
0.883967
0.882276
0.880537
0.878755
0.876933
0.875076
0.87319
0.871278
0.869345
0.867395
0.865432
0.863461
0.861484
0.859508
0.857535
0.855569
0.853615
0.851677
0.849758
0.847863
0.845995
0.844159
0.842359
0.840599
0.838883
0.837215
0.8356
0.834041
0.832544
0.831111
0.829748
0.828458
0.827248
0.826122
0.825084
0.824141
0.823299
0.822562
0.821939
0.821435
0.82106
0.820821
0.820736
0.820816
0.82107
0.821512
0.822159
0.82303
0.824144
0.825526
0.827201
0.8292
0.831555
0.834306
0.837496
0.841172
0.845391
0.850217
0.855719
0.861981
0.869095
0.877167
0.886317
0.896683
0.90842
0.921706
0.936744
0.95376
0.97301
0.994781
1.01939
1.04716
1.07846
1.11363
1.15296
1.19665
1.24467
1.2966
1.35133
1.40646
1.45771
1.49624
1.50832
1.45395
0.899278
0.899181
0.89893
0.898534
0.898013
0.897374
0.896619
0.895751
0.894775
0.893697
0.892524
0.891262
0.889917
0.888495
0.887001
0.885442
0.883824
0.88215
0.880427
0.87866
0.876854
0.875012
0.873141
0.871244
0.869325
0.867389
0.86544
0.863482
0.86152
0.859557
0.857598
0.855646
0.853706
0.851782
0.849877
0.847996
0.846143
0.844322
0.842537
0.840792
0.839092
0.83744
0.83584
0.834298
0.832817
0.831402
0.830058
0.828788
0.827598
0.826493
0.82548
0.824562
0.823747
0.823041
0.822451
0.821984
0.821648
0.821451
0.821412
0.821544
0.821858
0.822368
0.82309
0.824044
0.825252
0.82674
0.828536
0.830671
0.833181
0.836107
0.839496
0.843401
0.847882
0.853009
0.858859
0.865522
0.873103
0.88172
0.891508
0.902624
0.91525
0.929593
0.945895
0.964434
0.985529
1.00955
1.03692
1.06811
1.10366
1.14415
1.1902
1.2424
1.30125
1.36696
1.4392
1.51659
1.59595
1.67132
1.73206
1.76532
0.899029
0.898934
0.898687
0.898297
0.897783
0.897153
0.896408
0.89555
0.894586
0.89352
0.89236
0.89111
0.889778
0.888368
0.886887
0.88534
0.883733
0.882071
0.880359
0.878603
0.876807
0.874976
0.873115
0.871227
0.869318
0.867392
0.865453
0.863505
0.861552
0.859599
0.85765
0.855708
0.853779
0.851864
0.84997
0.848099
0.846257
0.844446
0.842672
0.840938
0.839249
0.837609
0.836021
0.834491
0.833023
0.831621
0.830291
0.829036
0.827861
0.826773
0.825777
0.824878
0.824084
0.8234
0.822836
0.822397
0.822093
0.821929
0.821922
0.822091
0.822449
0.823008
0.823785
0.8248
0.826077
0.827643
0.829525
0.831758
0.834379
0.837431
0.840963
0.845031
0.849699
0.855039
0.861136
0.868085
0.875996
0.884998
0.895238
0.906886
0.92014
0.935232
0.95243
0.972048
0.994453
1.02007
1.0494
1.08303
1.12161
1.1659
1.21673
1.27495
1.34136
1.4165
1.50034
1.59162
1.68694
1.77946
1.85724
1.90406
0.898183
0.897673
0.897047
0.896307
0.895455
0.894497
0.893437
0.892283
0.89104
0.889714
0.888311
0.886836
0.885295
0.883694
0.882038
0.880333
0.878582
0.876792
0.874967
0.873111
0.871229
0.869326
0.867405
0.865472
0.863529
0.861582
0.859634
0.857691
0.855756
0.853832
0.851923
0.850035
0.848171
0.846335
0.844531
0.842764
0.841037
0.839355
0.837722
0.836143
0.834621
0.833161
0.831768
0.830447
0.829201
0.828038
0.82696
0.825976
0.82509
0.824308
0.82364
0.823091
0.822671
0.822387
0.822251
0.822262
0.822452
0.822838
0.823429
0.82424
0.825292
0.826611
0.828223
0.830158
0.832449
0.835135
0.838261
0.841877
0.846039
0.850814
0.856277
0.862514
0.869623
0.877721
0.886938
0.897428
0.90937
0.92297
0.938472
0.956159
0.976364
0.999479
1.02596
1.05635
1.09129
1.13149
1.17781
1.23117
1.29256
1.36291
1.4429
1.53256
1.63059
1.73327
1.83314
1.91725
1.96892
1.00842
0.974555
0.952418
0.943432
0.938286
0.933098
0.928002
0.923489
0.919575
0.916034
0.912712
0.909554
0.906515
0.903555
0.900653
0.897797
0.894976
0.892177
0.889387
0.886599
0.883806
0.881003
0.878189
0.875361
0.872517
0.869663
0.866765
0.863682
0.860448
0.857226
0.854029
0.850831
0.847631
0.844439
0.841264
0.838116
0.835005
0.831942
0.828937
0.826003
0.823147
0.820378
0.8177
0.815124
0.812656
0.810296
0.808043
0.805895
0.803846
0.801888
0.800011
0.798203
0.796451
0.794741
0.793057
0.791382
0.789698
0.787988
0.786233
0.784418
0.782531
0.780574
0.778516
0.776338
0.774024
0.771549
0.768886
0.766003
0.762872
0.759459
0.755727
0.751642
0.74716
0.742236
0.736818
0.730849
0.724263
0.716989
0.708946
0.700043
0.69018
0.679247
0.667121
0.653669
0.638749
0.622205
0.60387
0.583568
0.561118
0.536335
0.509039
0.479075
0.446311
0.410745
0.372473
0.331439
0.287551
0.240895
0.191719
0.14042
0.972985
0.959514
0.946892
0.940219
0.935496
0.930825
0.926237
0.922071
0.918351
0.914947
0.911762
0.908745
0.905804
0.902902
0.900047
0.897241
0.894469
0.891714
0.888965
0.886215
0.883461
0.880696
0.877922
0.875128
0.872311
0.869459
0.866552
0.863541
0.860434
0.857302
0.854171
0.851034
0.847893
0.844755
0.84163
0.838529
0.835464
0.832446
0.829485
0.82659
0.823782
0.821048
0.818381
0.815813
0.813354
0.811002
0.808756
0.806609
0.804556
0.80259
0.800702
0.798881
0.797117
0.795393
0.793691
0.791996
0.790293
0.788566
0.786801
0.784978
0.783112
0.781153
0.779079
0.776885
0.774555
0.772063
0.769396
0.766525
0.763399
0.759984
0.756253
0.752172
0.747697
0.74278
0.737372
0.731415
0.724844
0.717584
0.709554
0.700662
0.690806
0.679875
0.667744
0.65428
0.639338
0.622763
0.604385
0.584021
0.561478
0.536558
0.509077
0.4789
0.445934
0.410149
0.371535
0.330042
0.285658
0.238495
0.188791
0.137005
0.957677
0.952996
0.945519
0.939104
0.934195
0.929798
0.925538
0.921539
0.917848
0.914381
0.911159
0.908218
0.905324
0.902421
0.899558
0.896752
0.893988
0.891251
0.888523
0.885788
0.883048
0.880303
0.877545
0.874768
0.871972
0.869163
0.866317
0.863394
0.860398
0.857371
0.854338
0.851304
0.848271
0.845243
0.842229
0.839229
0.836258
0.833337
0.830473
0.827671
0.824936
0.822267
0.81967
0.817159
0.814746
0.812432
0.810214
0.808084
0.806039
0.804072
0.802179
0.800349
0.798573
0.796836
0.795125
0.793424
0.791718
0.789991
0.788231
0.786429
0.784565
0.782622
0.780586
0.778447
0.776174
0.773766
0.771184
0.768401
0.76536
0.762042
0.758424
0.754471
0.750137
0.745373
0.740129
0.734343
0.727947
0.720865
0.713011
0.70429
0.694599
0.68383
0.671853
0.658529
0.643711
0.627239
0.608933
0.588613
0.566062
0.54098
0.513182
0.482522
0.448966
0.412577
0.373213
0.330769
0.285302
0.236996
0.186127
0.13307
0.947151
0.944737
0.939773
0.934594
0.930327
0.926565
0.922906
0.919343
0.915977
0.912802
0.909794
0.906923
0.904105
0.901309
0.898552
0.895839
0.893156
0.890489
0.887824
0.885153
0.882477
0.87979
0.877077
0.874341
0.871567
0.868822
0.866092
0.863274
0.860382
0.857461
0.854533
0.851604
0.848678
0.84576
0.842862
0.839983
0.837124
0.834298
0.831525
0.828811
0.826161
0.823576
0.821064
0.818626
0.816279
0.814032
0.811877
0.80979
0.80777
0.805822
0.803944
0.802127
0.800362
0.79864
0.796947
0.795267
0.793584
0.791882
0.790153
0.788388
0.78657
0.784694
0.782737
0.780689
0.778526
0.776214
0.773743
0.771079
0.768188
0.765041
0.761612
0.757863
0.753749
0.749222
0.744229
0.738708
0.732588
0.725789
0.718217
0.709763
0.700326
0.68982
0.678122
0.665052
0.650434
0.634102
0.615883
0.595624
0.573104
0.547767
0.519517
0.488076
0.453507
0.416296
0.376011
0.332384
0.285501
0.235606
0.183007
0.128092
0.939223
0.93788
0.934792
0.931071
0.927577
0.924325
0.921111
0.917915
0.914815
0.911836
0.908952
0.906143
0.903391
0.900675
0.897987
0.895323
0.892678
0.89004
0.887405
0.884772
0.882136
0.879491
0.876831
0.874155
0.871466
0.868773
0.866062
0.863299
0.860492
0.857663
0.854829
0.851991
0.849156
0.846331
0.843524
0.840746
0.837993
0.835266
0.832585
0.829956
0.827385
0.824876
0.822434
0.820055
0.817748
0.815562
0.813483
0.811454
0.809474
0.807556
0.805704
0.803908
0.802165
0.800471
0.798814
0.797165
0.795508
0.793844
0.792168
0.790467
0.788727
0.786934
0.785073
0.783128
0.781083
0.778913
0.776596
0.774105
0.77141
0.768482
0.76529
0.761797
0.757961
0.753735
0.749064
0.743886
0.738131
0.731714
0.724537
0.71646
0.707347
0.697188
0.685897
0.673227
0.658962
0.642918
0.624903
0.604691
0.582004
0.556511
0.528018
0.496357
0.461469
0.42334
0.381729
0.336507
0.28778
0.235795
0.180897
0.123533
0.933092
0.932274
0.930208
0.927406
0.924479
0.921617
0.918763
0.915893
0.913051
0.910268
0.907545
0.904871
0.902238
0.899631
0.897041
0.894465
0.891899
0.889338
0.886777
0.884214
0.881644
0.879065
0.876472
0.873861
0.871234
0.868591
0.865928
0.863238
0.860522
0.857788
0.855046
0.852301
0.84956
0.84683
0.844118
0.841429
0.838766
0.836135
0.833546
0.831009
0.828524
0.826098
0.823734
0.821439
0.81922
0.81709
0.815038
0.813041
0.8111
0.809223
0.807407
0.805643
0.803924
0.802267
0.800676
0.799093
0.797485
0.795875
0.794266
0.792643
0.790993
0.789298
0.787546
0.785722
0.783808
0.781797
0.779659
0.777367
0.774893
0.772209
0.769286
0.766087
0.762571
0.758691
0.754392
0.749611
0.744276
0.738302
0.731589
0.724027
0.715506
0.705934
0.695166
0.682992
0.6692
0.653585
0.635923
0.615957
0.593409
0.567984
0.539409
0.50745
0.471908
0.432634
0.389502
0.342451
0.291554
0.237047
0.179313
0.118881
0.928103
0.927528
0.926036
0.923892
0.921501
0.919054
0.91656
0.914012
0.911438
0.908872
0.906327
0.9038
0.901287
0.898784
0.896285
0.89379
0.891296
0.8888
0.8863
0.883791
0.881273
0.878743
0.8762
0.873641
0.871066
0.868476
0.86587
0.863248
0.860606
0.85795
0.855287
0.852625
0.849968
0.847323
0.844694
0.842089
0.839511
0.836967
0.834464
0.832009
0.829606
0.827258
0.824968
0.822744
0.820587
0.818503
0.816489
0.814538
0.812649
0.810822
0.809052
0.807338
0.805676
0.804067
0.802501
0.800953
0.799409
0.797873
0.796345
0.794812
0.79326
0.791678
0.790053
0.788374
0.786625
0.784792
0.782853
0.780783
0.778558
0.776152
0.773535
0.770673
0.767525
0.764046
0.760183
0.755873
0.751045
0.745617
0.739492
0.732564
0.724712
0.715804
0.705683
0.69416
0.681018
0.666025
0.648923
0.629428
0.60723
0.582
0.55341
0.521155
0.484965
0.44462
0.399957
0.350887
0.297462
0.23992
0.178703
0.114454
0.92391
0.923474
0.922345
0.920669
0.918703
0.9166
0.914398
0.912111
0.909766
0.907392
0.905006
0.902615
0.900219
0.897819
0.895414
0.893004
0.890587
0.888163
0.885729
0.883284
0.880827
0.878358
0.875874
0.873376
0.870862
0.868334
0.865792
0.863235
0.860664
0.858082
0.855497
0.852913
0.850336
0.847771
0.845223
0.842697
0.8402
0.837736
0.835311
0.832931
0.8306
0.828321
0.8261
0.82394
0.821843
0.819814
0.817852
0.815954
0.814117
0.812339
0.81062
0.808956
0.807345
0.805782
0.804262
0.802773
0.801306
0.799856
0.798418
0.796984
0.795544
0.794087
0.792605
0.791084
0.789512
0.787873
0.786151
0.784325
0.782372
0.780268
0.777986
0.775492
0.772749
0.769713
0.766334
0.762551
0.758296
0.753487
0.74803
0.741817
0.734722
0.726603
0.717297
0.706608
0.694307
0.680136
0.663808
0.645006
0.623378
0.598547
0.570124
0.537725
0.500985
0.459584
0.413269
0.361896
0.30549
0.244297
0.178824
0.109847
0.920318
0.919973
0.91908
0.917726
0.916083
0.914264
0.912317
0.910263
0.908128
0.90594
0.903715
0.901463
0.899191
0.8969
0.894593
0.892271
0.889935
0.887583
0.885217
0.882837
0.880441
0.87803
0.875604
0.873162
0.870705
0.868234
0.86575
0.863254
0.860748
0.858235
0.85572
0.853208
0.850703
0.848211
0.845737
0.843285
0.840861
0.83847
0.836117
0.833807
0.831544
0.829333
0.827176
0.825078
0.823041
0.821068
0.819158
0.817311
0.815524
0.813798
0.81213
0.810519
0.808962
0.807456
0.805996
0.804576
0.803187
0.801823
0.80048
0.799152
0.797832
0.79651
0.795178
0.793826
0.792443
0.791015
0.789529
0.787966
0.786308
0.784531
0.782612
0.78052
0.778221
0.775675
0.772833
0.76964
0.766029
0.761922
0.757227
0.751837
0.745625
0.738445
0.730122
0.720453
0.709194
0.69607
0.680765
0.66292
0.642137
0.617974
0.589961
0.557615
0.520453
0.478029
0.429972
0.376039
0.316188
0.250649
0.179993
0.105164
0.9172
0.916917
0.916185
0.91506
0.913665
0.912082
0.910352
0.9085
0.906551
0.904528
0.90245
0.900329
0.898172
0.895984
0.89377
0.891532
0.889272
0.886992
0.884693
0.882376
0.88004
0.877687
0.875318
0.872933
0.870533
0.868119
0.865694
0.863258
0.860815
0.858366
0.855918
0.853473
0.851037
0.848614
0.846209
0.843826
0.841472
0.839149
0.836863
0.834619
0.832421
0.830273
0.828178
0.826139
0.824159
0.82224
0.820383
0.818588
0.816854
0.815182
0.813569
0.812014
0.810516
0.809071
0.807678
0.80633
0.805023
0.803751
0.80251
0.801296
0.800104
0.798926
0.797754
0.796582
0.7954
0.794197
0.792962
0.79168
0.790335
0.788908
0.787377
0.785717
0.783897
0.78188
0.779624
0.777076
0.774175
0.770847
0.767004
0.762541
0.757333
0.751231
0.744056
0.735597
0.725602
0.713773
0.699766
0.683181
0.663561
0.64039
0.613103
0.58109
0.543727
0.500402
0.450571
0.39383
0.330009
0.259286
0.182287
0.100169
0.914469
0.91423
0.913613
0.912657
0.911453
0.91006
0.908512
0.906833
0.905045
0.903171
0.901228
0.899229
0.897182
0.895094
0.892971
0.890817
0.888634
0.886426
0.884193
0.881939
0.879664
0.877369
0.875057
0.872727
0.870383
0.868025
0.865655
0.863277
0.860892
0.858504
0.856117
0.853735
0.851361
0.849002
0.846661
0.844342
0.842051
0.839791
0.837568
0.835385
0.833248
0.831158
0.829121
0.827139
0.825214
0.823349
0.821545
0.819803
0.818122
0.816504
0.814946
0.81345
0.812013
0.810633
0.80931
0.808039
0.806818
0.805642
0.804508
0.803414
0.802355
0.801326
0.800322
0.799337
0.798365
0.797397
0.796425
0.795437
0.794421
0.793361
0.792241
0.791038
0.789727
0.788277
0.786649
0.784799
0.78267
0.780194
0.777291
0.773859
0.769778
0.764901
0.759049
0.752007
0.743513
0.733254
0.720858
0.705881
0.687806
0.666034
0.639886
0.608606
0.571385
0.527394
0.475847
0.416092
0.347741
0.270839
0.186037
0.0947616
0.912064
0.911858
0.911325
0.910497
0.90944
0.908201
0.906805
0.905273
0.903627
0.901885
0.900064
0.898177
0.896232
0.894239
0.892202
0.890127
0.888018
0.885878
0.88371
0.881516
0.879299
0.87706
0.874802
0.872526
0.870235
0.86793
0.865614
0.86329
0.86096
0.858628
0.856299
0.853975
0.85166
0.84936
0.847078
0.844818
0.842586
0.840386
0.838221
0.836096
0.834015
0.831982
0.83
0.828071
0.8262
0.824387
0.822636
0.820946
0.819318
0.817754
0.816254
0.814816
0.813442
0.81213
0.810879
0.809689
0.808556
0.807479
0.806456
0.805484
0.804563
0.803687
0.802856
0.802064
0.801309
0.800583
0.799883
0.7992
0.798525
0.797848
0.797156
0.796432
0.795656
0.794802
0.793841
0.792734
0.791432
0.789876
0.787993
0.785691
0.782856
0.779348
0.774993
0.769575
0.762831
0.754435
0.743991
0.731017
0.714935
0.695057
0.670575
0.640562
0.603982
0.559723
0.506665
0.443795
0.370364
0.286144
0.19168
0.0886901
0.90994
0.909758
0.909289
0.908558
0.907618
0.906504
0.905235
0.903828
0.902304
0.900678
0.898966
0.897181
0.895331
0.893424
0.891469
0.889469
0.887429
0.885355
0.883249
0.881114
0.878953
0.876768
0.874562
0.872338
0.870098
0.867844
0.865579
0.863306
0.861029
0.85875
0.856474
0.854203
0.851943
0.849697
0.84747
0.845266
0.843088
0.840942
0.838831
0.83676
0.834732
0.832751
0.830821
0.828944
0.827124
0.825362
0.823661
0.822022
0.820448
0.818938
0.817494
0.816116
0.814806
0.813562
0.812385
0.811277
0.810234
0.809258
0.808346
0.8075
0.806717
0.805998
0.805341
0.804746
0.80421
0.803732
0.803309
0.802938
0.802612
0.802328
0.802075
0.801845
0.801623
0.801391
0.801126
0.800799
0.800371
0.799793
0.799003
0.797919
0.796442
0.794441
0.791752
0.788169
0.78343
0.777206
0.769086
0.758559
0.744989
0.7276
0.70545
0.677415
0.642187
0.598293
0.544155
0.478234
0.399219
0.306436
0.200082
0.0820852
0.908062
0.907899
0.907481
0.906825
0.905977
0.904964
0.903801
0.902501
0.901081
0.899557
0.897943
0.896248
0.894484
0.892658
0.890777
0.888847
0.886874
0.884861
0.882813
0.880734
0.878626
0.876493
0.874337
0.872162
0.86997
0.867764
0.865547
0.863322
0.861093
0.858863
0.856636
0.854415
0.852205
0.850009
0.847833
0.845679
0.843552
0.841456
0.839395
0.837374
0.835395
0.833464
0.831582
0.829754
0.827982
0.826269
0.824617
0.823029
0.821506
0.820049
0.818662
0.817343
0.816096
0.81492
0.813818
0.812791
0.811839
0.810963
0.810163
0.809442
0.808799
0.808236
0.807755
0.807356
0.807042
0.806812
0.806668
0.80661
0.806638
0.80675
0.806945
0.807217
0.807561
0.807966
0.808419
0.8089
0.809382
0.809829
0.810191
0.810404
0.810382
0.810013
0.80915
0.807602
0.80512
0.801384
0.795981
0.788381
0.777908
0.763706
0.744702
0.719565
0.686675
0.644116
0.589688
0.521082
0.436012
0.333112
0.211856
0.0749143
0.906404
0.906257
0.905877
0.905281
0.904507
0.903577
0.902502
0.901292
0.899963
0.898527
0.896997
0.895384
0.893697
0.891944
0.890132
0.888267
0.886354
0.8844
0.882406
0.880379
0.878321
0.876236
0.874128
0.871998
0.869851
0.86769
0.865518
0.863338
0.861153
0.858969
0.856787
0.854612
0.852448
0.850299
0.848168
0.846061
0.84398
0.841931
0.839916
0.837941
0.836008
0.834122
0.832286
0.830504
0.828778
0.827111
0.825506
0.823966
0.822493
0.821089
0.819756
0.818496
0.817311
0.816203
0.815174
0.814227
0.813364
0.812587
0.811898
0.811299
0.810794
0.810386
0.810078
0.809874
0.809778
0.809794
0.809927
0.810181
0.81056
0.811069
0.811711
0.812488
0.813402
0.814451
0.815633
0.816937
0.818352
0.819855
0.821413
0.822982
0.824496
0.825865
0.826967
0.827637
0.827651
0.826711
0.82442
0.820252
0.813513
0.803292
0.788404
0.767318
0.738087
0.698288
0.644965
0.574742
0.483703
0.368993
0.227439
0.0643755
0.904946
0.904811
0.904463
0.903915
0.9032
0.902338
0.901336
0.900202
0.898949
0.897589
0.896134
0.894594
0.892975
0.891288
0.889538
0.887732
0.885875
0.883973
0.882031
0.880052
0.87804
0.876
0.873935
0.871849
0.869744
0.867624
0.865493
0.863354
0.861211
0.859067
0.856927
0.854794
0.852672
0.850565
0.848476
0.846411
0.844373
0.842366
0.840394
0.83846
0.83657
0.834726
0.832933
0.831193
0.829509
0.827886
0.826326
0.824832
0.823407
0.822053
0.820772
0.819569
0.818444
0.817402
0.816444
0.815575
0.814798
0.814118
0.813536
0.813057
0.812686
0.812428
0.812289
0.812275
0.812392
0.812648
0.813052
0.813612
0.814336
0.815234
0.816316
0.817592
0.819071
0.820761
0.82267
0.824801
0.827156
0.82973
0.83251
0.835471
0.838575
0.841761
0.844939
0.847979
0.850696
0.852834
0.854032
0.853799
0.851455
0.846078
0.836411
0.820759
0.796864
0.761757
0.711639
0.641865
0.546567
0.42051
0.253173
0.0515236
0.903671
0.903546
0.903222
0.902713
0.902047
0.90124
0.900298
0.899228
0.898041
0.896747
0.895357
0.893879
0.892321
0.890692
0.888997
0.887244
0.885438
0.883585
0.881688
0.879754
0.877785
0.875786
0.873761
0.871713
0.869647
0.867565
0.865471
0.86337
0.861264
0.859158
0.857056
0.854961
0.852877
0.850808
0.848757
0.84673
0.84473
0.842762
0.840828
0.838933
0.837082
0.835277
0.833522
0.831821
0.830178
0.828595
0.827077
0.825626
0.824246
0.822939
0.821709
0.820559
0.819492
0.818512
0.817623
0.816828
0.816134
0.815546
0.815067
0.814703
0.81446
0.814346
0.814369
0.814536
0.814859
0.815346
0.81601
0.816864
0.817921
0.819196
0.820705
0.822465
0.824494
0.826811
0.829433
0.832379
0.835665
0.839304
0.843306
0.847671
0.85239
0.857435
0.862759
0.868276
0.873857
0.879301
0.884317
0.888478
0.891171
0.891519
0.888271
0.879647
0.863141
0.835212
0.791066
0.724274
0.626909
0.491239
0.299785
0.0632112
0.902566
0.902448
0.902145
0.901667
0.90104
0.900279
0.899387
0.89837
0.897238
0.896
0.894665
0.893241
0.891737
0.890159
0.888514
0.886808
0.885047
0.883237
0.881381
0.879487
0.877556
0.875594
0.873605
0.871593
0.869561
0.867514
0.865454
0.863386
0.861314
0.859242
0.857174
0.855113
0.853062
0.851027
0.849011
0.847019
0.845053
0.843119
0.84122
0.83936
0.837543
0.835773
0.834053
0.832389
0.830782
0.829237
0.827757
0.826346
0.825008
0.823745
0.822562
0.821463
0.82045
0.819529
0.818704
0.81798
0.817363
0.816861
0.816479
0.816223
0.816101
0.816123
0.816298
0.816637
0.817152
0.817857
0.818767
0.819899
0.821272
0.822904
0.824819
0.827041
0.829597
0.832514
0.835823
0.839555
0.843743
0.84842
0.853618
0.859366
0.865687
0.872592
0.880081
0.888123
0.896656
0.905559
0.914632
0.923555
0.931835
0.938721
0.943083
0.943211
0.936548
0.919115
0.885134
0.82511
0.727426
0.573922
0.349772
0.086929
0.901619
0.901508
0.901221
0.900768
0.900174
0.899449
0.898599
0.897626
0.89654
0.895349
0.894061
0.892684
0.891225
0.889691
0.888089
0.886424
0.884703
0.88293
0.881112
0.879252
0.877355
0.875427
0.87347
0.871489
0.869488
0.867471
0.865441
0.863404
0.861361
0.859319
0.857281
0.855249
0.853229
0.851224
0.849238
0.847276
0.845341
0.843437
0.841568
0.839739
0.837953
0.836215
0.834527
0.832895
0.831321
0.82981
0.828365
0.826991
0.825691
0.824469
0.823329
0.822276
0.821314
0.820448
0.819682
0.819023
0.818477
0.818054
0.817761
0.817605
0.817595
0.817742
0.818057
0.818555
0.819248
0.820155
0.821293
0.822683
0.824348
0.826313
0.828606
0.831258
0.834305
0.837785
0.841738
0.846212
0.851254
0.856918
0.863259
0.870334
0.878202
0.886918
0.896529
0.907071
0.918557
0.930961
0.9442
0.958097
0.972334
0.986374
0.999342
1.00982
1.01557
1.01278
0.995629
0.951922
0.866417
0.691341
0.402589
-0.0987784
0.900823
0.900717
0.900443
0.90001
0.899441
0.898747
0.89793
0.896994
0.895945
0.894793
0.893545
0.892207
0.890786
0.88929
0.887724
0.886094
0.884407
0.882667
0.88088
0.879051
0.877184
0.875284
0.873355
0.871401
0.869427
0.867436
0.865433
0.863422
0.861405
0.859389
0.857376
0.855371
0.853377
0.851398
0.849438
0.847502
0.845594
0.843716
0.841875
0.840073
0.838314
0.836603
0.834943
0.833339
0.831795
0.830314
0.828901
0.827559
0.826293
0.825108
0.824007
0.822996
0.822079
0.821262
0.82055
0.81995
0.819469
0.819117
0.818904
0.818838
0.818929
0.819189
0.819631
0.820271
0.821126
0.822214
0.823558
0.825181
0.82711
0.829376
0.832011
0.835055
0.838549
0.842542
0.847085
0.852237
0.858065
0.864639
0.872039
0.880351
0.889668
0.900088
0.911712
0.924644
0.938977
0.954794
0.97214
0.99101
1.0113
1.03276
1.05487
1.07672
1.09676
1.11217
1.11859
1.10609
1.06224
0.925514
0.661038
-0.358873
0.0874237
0.0330978
-0.0221458
-0.077814
-0.133383
-0.188344
-0.242223
-0.294586
-0.345046
-0.393279
-0.43899
-0.481999
-0.522164
-0.559381
-0.593631
-0.625052
-0.653251
-0.678079
-0.699692
-0.718181
-0.733775
-0.746566
-0.756593
-0.763975
-0.768893
-0.771494
-0.772045
0.0835789
0.0288119
-0.0268755
-0.0829487
-0.138859
-0.194087
-0.248155
-0.300627
-0.351131
-0.399351
-0.445092
-0.488123
-0.528333
-0.565352
-0.599385
-0.630233
-0.657829
-0.682618
-0.704228
-0.722796
-0.738491
-0.75125
-0.761152
-0.76837
-0.773144
-0.775646
-0.776125
0.0782359
0.0220718
-0.0349034
-0.0921105
-0.148993
-0.20502
-0.259717
-0.312647
-0.363471
-0.411868
-0.457673
-0.500617
-0.540678
-0.57759
-0.61155
-0.642335
-0.669971
-0.694279
-0.715691
-0.734371
-0.750003
-0.762547
-0.772242
-0.779251
-0.783746
-0.785922
-0.786085
0.0713449
0.0133013
-0.0453852
-0.104105
-0.162282
-0.219385
-0.274914
-0.328468
-0.379653
-0.428287
-0.474068
-0.516987
-0.556826
-0.593644
-0.627398
-0.658036
-0.685635
-0.709516
-0.730396
-0.748775
-0.764165
-0.776407
-0.78572
-0.792324
-0.796335
-0.797981
-0.797549
0.064267
0.0037396
-0.0573088
-0.118149
-0.178162
-0.236802
-0.293534
-0.347962
-0.399732
-0.448665
-0.494554
-0.5374
-0.577054
-0.613652
-0.647044
-0.677407
-0.70458
-0.728489
-0.749391
-0.767389
-0.78232
-0.794111
-0.802864
-0.808794
-0.812053
-0.812888
-0.811546
0.0564284
-0.00727364
-0.071331
-0.134876
-0.197222
-0.25777
-0.315978
-0.371442
-0.423868
-0.473103
-0.519044
-0.561697
-0.601077
-0.63725
-0.670281
-0.700199
-0.727034
-0.750777
-0.771398
-0.788928
-0.803342
-0.814578
-0.822652
-0.827697
-0.82992
-0.829597
-0.827103
0.0480014
-0.0196993
-0.0875338
-0.154452
-0.219684
-0.282562
-0.342525
-0.399188
-0.45232
-0.501831
-0.54772
-0.590072
-0.629002
-0.664659
-0.697172
-0.726622
-0.753062
-0.776468
-0.796776
-0.813936
-0.82786
-0.838452
-0.845671
-0.849604
-0.850468
-0.848619
-0.844525
0.0384056
-0.0342885
-0.10681
-0.177864
-0.246569
-0.312179
-0.374124
-0.432058
-0.485838
-0.535474
-0.581093
-0.622893
-0.661119
-0.696029
-0.727844
-0.756698
-0.782659
-0.805703
-0.82572
-0.842545
-0.85598
-0.865854
-0.872058
-0.87461
-0.873729
-0.869857
-0.863607
0.0274832
-0.0514529
-0.129776
-0.20585
-0.27865
-0.347367
-0.411461
-0.470638
-0.524894
-0.574381
-0.619389
-0.660274
-0.697435
-0.73129
-0.762182
-0.790304
-0.815747
-0.838473
-0.85829
-0.874895
-0.887946
-0.897141
-0.902239
-0.903144
-0.900066
-0.893568
-0.884474
0.0146355
-0.0721795
-0.15772
-0.239827
-0.317375
-0.389503
-0.455793
-0.516022
-0.570405
-0.619289
-0.663164
-0.702604
-0.738203
-0.770572
-0.800238
-0.827474
-0.852377
-0.874886
-0.894724
-0.911394
-0.924289
-0.932911
-0.936847
-0.935777
-0.929892
-0.919975
-0.907143
-0.000732854
-0.0975723
-0.192083
-0.281377
-0.364371
-0.440143
-0.508527
-0.569399
-0.623318
-0.670899
-0.712851
-0.750044
-0.783355
-0.813655
-0.841683
-0.867827
-0.892222
-0.914752
-0.934978
-0.952227
-0.965524
-0.973951
-0.976846
-0.973483
-0.964002
-0.949531
-0.931681
-0.0197629
-0.129603
-0.235214
-0.332853
-0.421859
-0.501381
-0.571453
-0.632142
-0.684578
-0.729788
-0.768687
-0.802506
-0.832543
-0.860082
-0.88608
-0.911037
-0.93504
-0.957978
-0.979316
-0.997987
-1.01229
-1.02121
-1.02342
-1.01735
-1.00331
-0.982911
-0.958378
-0.0437617
-0.17142
-0.291314
-0.398203
-0.493027
-0.575615
-0.646159
-0.705424
-0.755384
-0.797106
-0.832071
-0.861198
-0.886446
-0.909951
-0.933238
-0.956721
-0.980536
-1.00467
-1.02843
-1.0505
-1.06676
-1.07694
-1.0795
-1.06986
-1.04933
-1.0207
-0.987041
-0.0740914
-0.226527
-0.365056
-0.481555
-0.581957
-0.666928
-0.737012
-0.793058
-0.837852
-0.87469
-0.904358
-0.927216
-0.945689
-0.963375
-0.982378
-1.00322
-1.02656
-1.05247
-1.08009
-1.10672
-1.12884
-1.14317
-1.14629
-1.13381
-1.10542
-1.06534
-1.01864
-0.117038
-0.299579
-0.457122
-0.584803
-0.692054
-0.778367
-0.848607
-0.899342
-0.93408
-0.961332
-0.980473
-0.992951
-1.00276
-1.01394
-1.02825
-1.0463
-1.06924
-1.09749
-1.13105
-1.16569
-1.19657
-1.21737
-1.22315
-1.20663
-1.16813
-1.11409
-1.05116
-0.191557
-0.421036
-0.591575
-0.727256
-0.840642
-0.921413
-0.979481
-1.017
-1.03918
-1.05213
-1.05642
-1.05469
-1.05282
-1.05566
-1.06399
-1.07881
-1.10236
-1.13547
-1.17627
-1.2205
-1.26433
-1.2983
-1.3093
-1.28782
-1.23655
-1.16501
-1.0829
-0.292679
-0.618184
-0.815041
-0.931794
-1.02679
-1.08922
-1.12378
-1.13994
-1.14416
-1.13961
-1.12874
-1.11216
-1.09514
-1.08448
-1.08086
-1.08504
-1.10038
-1.13297
-1.18006
-1.23452
-1.29172
-1.34297
-1.36993
-1.35264
-1.29616
-1.21154
-1.11373
-0.40615
-0.829943
-1.06461
-1.16384
-1.20072
-1.21267
-1.21183
-1.20375
-1.18848
-1.1659
-1.13997
-1.11519
-1.09944
-1.0935
-1.09346
-1.09923
-1.11379
-1.1406
-1.18024
-1.23019
-1.28463
-1.33388
-1.36094
-1.35417
-1.30102
-1.21904
-1.12157
-0.861578
-1.09743
-1.22139
-1.26004
-1.22359
-1.21455
-1.22128
-1.21997
-1.20846
-1.19031
-1.16406
-1.13546
-1.11513
-1.1052
-1.10337
-1.10924
-1.1232
-1.14651
-1.17915
-1.21943
-1.26284
-1.30119
-1.32058
-1.30895
-1.26991
-1.20011
-1.11323
-2.28815
-1.51463
-1.25306
-1.30778
-1.27479
-1.24489
-1.22431
-1.20928
-1.1925
-1.17361
-1.15347
-1.13442
-1.12018
-1.11259
-1.11247
-1.11856
-1.13208
-1.15386
-1.1834
-1.21871
-1.25519
-1.28481
-1.29684
-1.28257
-1.24131
-1.1791
-1.10186
)
;

boundaryField
{
    inlet
    {
        type            zeroGradient;
    }
    outlet
    {
        type            fixedValue;
        value           nonuniform List<scalar> 0();
    }
    topWall
    {
        type            zeroGradient;
    }
    lowerWall
    {
        type            zeroGradient;
    }
    leadingEdge
    {
        type            zeroGradient;
    }
    trailingEdge
    {
        type            zeroGradient;
    }
    upperSurface
    {
        type            zeroGradient;
    }
    lowerSurface
    {
        type            zeroGradient;
    }
    frontAndBack
    {
        type            empty;
    }
    procBoundary0to1
    {
        type            processor;
        value           nonuniform List<scalar> 
20
(
-0.770893
-0.774834
-0.784471
-0.795361
-0.808473
-0.822915
-0.838732
-0.855678
-0.873719
-0.89264
-0.912198
-0.932199
-0.951869
-0.970544
-0.986779
-1.00086
-1.01762
-1.02211
-1.02197
-1.01927
)
;
    }
    procBoundary0to4
    {
        type            processor;
        value           nonuniform List<scalar> 
101
(
0.89891
0.898815
0.89857
0.89857
0.898192
0.897682
0.897057
0.896317
0.895465
0.894507
0.893448
0.892294
0.891052
0.889726
0.888323
0.886849
0.885309
0.883708
0.882053
0.880348
0.878599
0.876809
0.874985
0.87313
0.87125
0.869347
0.867428
0.865496
0.863554
0.861609
0.859663
0.857722
0.855788
0.853866
0.85196
0.850074
0.848212
0.846378
0.844577
0.842812
0.841089
0.83941
0.83778
0.836204
0.834686
0.833231
0.831842
0.830525
0.829285
0.828126
0.827055
0.826076
0.825196
0.824421
0.823759
0.823217
0.822805
0.82253
0.822409
0.82243
0.822627
0.823023
0.823626
0.82445
0.825516
0.826849
0.828477
0.830428
0.832737
0.835442
0.838589
0.842227
0.846413
0.851214
0.856704
0.862971