/*--------------------------------*- C++ -*----------------------------------*\
| =========                 |                                                 |
| \\      /  F ield         | OpenFOAM: The Open Source CFD Toolbox           |
|  \\    /   O peration     | Version:  2206                                  |
|   \\  /    A nd           | Website:  www.openfoam.com                      |
|    \\/     M anipulation  |                                                 |
\*---------------------------------------------------------------------------*/
FoamFile
{
    version     2.0;
    format      ascii;
    arch        "LSB;label=32;scalar=64";
    class       surfaceScalarField;
    location    "18.6";
    object      ddtCorrDdt0(phi);
}
// * * * * * * * * * * * * * * * * * * * * * * * * * * * * * * * * * * * * * //

dimensions      [0 3 -2 0 0 0 0];

oriented        oriented;

internalField   nonuniform List<scalar> 
9447
(
-7.87847e-06
-0.000464232
0.00045424
3.02016e-06
-0.000446194
0.000435295
1.46912e-05
-0.000421406
0.000409735
2.6914e-05
-0.000390916
0.000378693
3.93955e-05
-0.000355851
0.000343369
5.17956e-05
-0.000317335
0.000304935
6.37449e-05
-0.000276408
0.000264458
7.4859e-05
-0.000233956
0.000222841
8.47859e-05
-0.000190679
0.000180752
9.33347e-05
-0.000147139
0.00013859
0.000100664
-0.000103726
9.63961e-05
0.000107363
-5.95992e-05
5.29005e-05
0.000112615
-1.0842e-05
5.58996e-06
0.000115084
4.0503e-05
-4.29723e-05
0.00011503
9.173e-05
-9.16758e-05
0.000112714
0.000142557
-0.000140241
0.000108497
0.000192184
-0.000187967
0.000102755
0.000239734
-0.000233992
9.58192e-05
0.000284222
-0.000277285
8.79669e-05
0.000324607
-0.000316755
7.9418e-05
0.000359913
-0.000351364
7.03454e-05
0.000389298
-0.000380225
6.09052e-05
0.000412082
-0.000402642
5.12763e-05
0.000427598
-0.000417969
4.18057e-05
0.000434403
-0.000424932
3.2675e-05
0.000432519
-0.000423389
2.39494e-05
0.000424648
-0.000415923
1.56378e-05
0.000410991
-0.000402679
7.52607e-06
0.000391948
-0.000383837
-1.18111e-07
0.000367175
-0.000359531
-6.78164e-06
0.000336978
-0.000330314
-1.24268e-05
0.000302778
-0.000297133
-1.72049e-05
0.000265577
-0.000260799
-2.09055e-05
0.000225702
-0.000222001
-2.32498e-05
0.000183982
-0.000181638
-2.41728e-05
0.000141697
-0.000140774
-2.38152e-05
0.000100123
-0.000100481
-2.30937e-05
6.10104e-05
-6.17319e-05
-2.56279e-05
2.37187e-05
-2.11845e-05
-2.81755e-05
-2.69794e-05
2.95271e-05
-2.69726e-05
-8.1793e-05
8.05901e-05
-2.55359e-05
-0.000129835
0.000128398
-2.42269e-05
-0.000174061
0.000172752
-2.3049e-05
-0.000215009
0.000213831
-2.19773e-05
-0.000252495
0.000251423
-2.0983e-05
-0.000286203
0.000285208
-2.005e-05
-0.000315695
0.000314762
-1.91498e-05
-0.000340476
0.000339576
-1.82192e-05
-0.00036002
0.00035909
-1.71352e-05
-0.000373692
0.000372608
-1.55419e-05
-0.000380384
0.000378791
-1.34484e-05
-0.000379253
0.00037716
-1.07539e-05
-0.000372711
0.000370017
-7.39801e-06
-0.000360928
0.000357572
-3.36055e-06
-0.00034425
0.000340212
1.32942e-06
-0.000323168
0.000318478
6.5869e-06
-0.000298272
0.000293014
1.22627e-05
-0.000270186
0.00026451
1.81719e-05
-0.000239566
0.000233657
2.41225e-05
-0.000207061
0.00020111
2.98687e-05
-0.000173275
0.000167528
3.51556e-05
-0.000138822
0.000133535
3.98822e-05
-0.000104422
9.96958e-05
4.42881e-05
-7.07988e-05
6.63928e-05
4.9668e-05
-3.72166e-05
3.18368e-05
5.47569e-05
1.33792e-06
-6.42679e-06
5.82064e-05
3.96572e-05
-4.31067e-05
6.00088e-05
7.62803e-05
-7.80827e-05
6.02363e-05
0.000110933
-0.000111161
5.89836e-05
0.000143413
-0.00014216
5.63338e-05
0.000173648
-0.000170999
5.23967e-05
0.000201434
-0.000197497
4.729e-05
0.000226528
-0.000221421
4.11332e-05
0.000248659
-0.000242502
3.40843e-05
0.000267466
-0.000260417
2.63649e-05
0.000282539
-0.00027482
1.81914e-05
0.000293563
-0.00028539
9.68612e-06
0.000300239
-0.000291734
9.54439e-07
0.000301563
-0.000292831
-7.65998e-06
0.000298514
-0.0002899
-1.60392e-05
0.000291588
-0.000283209
-2.40795e-05
0.00028086
-0.00027282
-3.16764e-05
0.000266477
-0.00025888
-3.8731e-05
0.000248671
-0.000241616
-4.51786e-05
0.000227787
-0.00022134
-5.09831e-05
0.000204239
-0.000198434
-5.61034e-05
0.000178457
-0.000173337
-6.05141e-05
0.000150916
-0.000146505
-6.42594e-05
0.000122134
-0.000118389
-6.75057e-05
9.26018e-05
-8.93555e-05
-7.0664e-05
6.24529e-05
-5.92947e-05
-7.41728e-05
2.99429e-05
-2.64341e-05
-7.70826e-05
-6.67137e-06
9.58123e-06
-7.91395e-05
-4.33354e-05
4.53923e-05
-8.03821e-05
-7.91744e-05
8.0417e-05
-8.08465e-05
-0.000113556
0.00011402
-8.0591e-05
-0.000145893
0.000145637
-7.96633e-05
-0.000175752
0.000174824
-7.81013e-05
-0.000202719
0.000201157
-7.59369e-05
-0.000226407
0.000224243
-7.31872e-05
-0.000246457
0.000243707
-6.98415e-05
-0.000262521
0.000259175
-6.58249e-05
-0.000274195
0.000270179
-6.07708e-05
-0.000280816
0.000275762
-5.49449e-05
-0.000281373
0.000275547
-4.84672e-05
-0.000277847
0.00027137
-4.13574e-05
-0.000270569
0.000263459
-3.36655e-05
-0.000259806
0.000252114
-2.54904e-05
-0.000245888
0.000237713
-1.6977e-05
-0.000229209
0.000220696
-8.29766e-06
-0.000210205
0.000201526
3.42519e-07
-0.00018929
0.00018065
8.6939e-06
-0.000166833
0.000158481
1.64926e-05
-0.000143207
0.000135408
2.35032e-05
-0.000118799
0.000111789
2.95949e-05
-9.40037e-05
8.7912e-05
3.48919e-05
-6.9214e-05
6.3917e-05
4.01614e-05
-4.45171e-05
3.92475e-05
4.61745e-05
-1.81283e-05
1.21152e-05
5.06028e-05
1.18493e-05
-1.62775e-05
5.30833e-05
4.24013e-05
-4.48818e-05
5.35553e-05
7.30769e-05
-7.35489e-05
5.23081e-05
0.000103017
-0.00010177
4.95874e-05
0.000131994
-0.000129273
4.56315e-05
0.000159674
-0.000155718
4.07315e-05
0.000185512
-0.000180612
3.52032e-05
0.000208926
-0.000203398
2.93663e-05
0.000229366
-0.000223529
2.34781e-05
0.000246218
-0.00024033
1.77483e-05
0.000259339
-0.000253609
1.23985e-05
0.000267143
-0.000261794
7.77847e-06
0.000270295
-0.000265675
3.69952e-06
0.000265879
-0.0002618
-3.24352e-08
0.000263415
-0.000259683
-2.93919e-06
0.00024733
-0.000244423
-5.59449e-06
0.000236717
-0.000234062
0.000206599
-0.000204677
-1.02464e-05
-0.000471964
-1.49831e-06
-0.000454942
8.16918e-06
-0.000431074
1.85676e-05
-0.000401314
2.94336e-05
-0.000366717
4.04453e-05
-0.000328347
5.12215e-05
-0.000287184
6.13268e-05
-0.000244061
7.03646e-05
-0.000199717
7.81095e-05
-0.000154884
8.45982e-05
-0.000110214
9.06022e-05
-6.56032e-05
9.62114e-05
-1.64512e-05
9.92196e-05
3.74948e-05
9.98542e-05
9.10954e-05
9.84684e-05
0.000143942
9.54835e-05
0.000195169
9.12623e-05
0.000243955
8.60716e-05
0.000289412
8.00982e-05
0.00033058
7.34314e-05
0.00036658
6.61054e-05
0.000396624
5.81867e-05
0.00042
4.98102e-05
0.000435975
4.12567e-05
0.000442957
3.30223e-05
0.000440754
2.53371e-05
0.000432334
1.83278e-05
0.000418
1.27814e-05
0.000397495
8.35827e-06
0.000371599
3.85542e-06
0.000341481
-6.16088e-07
0.000307249
-4.54856e-06
0.00026951
-7.79598e-06
0.000228949
-9.84911e-06
0.000186035
-1.04452e-05
0.000142293
-9.5581e-06
9.92358e-05
-7.41754e-06
5.88698e-05
-7.92567e-06
2.42268e-05
-1.175e-05
-2.31551e-05
-9.03039e-06
-8.45126e-05
-7.52935e-06
-0.000131336
-6.58396e-06
-0.000175007
-6.04121e-06
-0.000215552
-5.78478e-06
-0.000252751
-5.76414e-06
-0.000286223
-5.95238e-06
-0.000315507
-6.30045e-06
-0.000340128
-6.74015e-06
-0.00035958
-7.14115e-06
-0.000373291
-7.14999e-06
-0.000380375
-6.69572e-06
-0.000379707
-5.67104e-06
-0.000373736
-4.00253e-06
-0.000362596
-1.6339e-06
-0.000346618
1.43094e-06
-0.000326233
5.11438e-06
-0.000301955
9.30968e-06
-0.000274381
1.3874e-05
-0.00024413
1.85914e-05
-0.000211778
2.31841e-05
-0.000177867
2.74232e-05
-0.000143061
3.11229e-05
-0.000108122
3.4167e-05
-7.38429e-05
3.77913e-05
-4.08409e-05
4.2658e-05
-3.5288e-06
4.56344e-05
3.66809e-05
4.68704e-05
7.50442e-05
4.67076e-05
0.000111096
4.52965e-05
0.000144824
4.2707e-05
0.000176238
3.90413e-05
0.000205099
3.43856e-05
0.000231184
2.87922e-05
0.000254252
2.23937e-05
0.000273864
1.5518e-05
0.000289415
8.50221e-06
0.000300579
1.34668e-06
0.000307395
-6.01889e-06
0.000308929
-1.32826e-05
0.000305778
-2.02649e-05
0.00029857
-2.68469e-05
0.000287442
-3.29647e-05
0.000272595
-3.85348e-05
0.000254241
-4.35274e-05
0.00023278
-4.79271e-05
0.000208638
-5.17007e-05
0.000182231
-5.48491e-05
0.000154064
-5.74479e-05
0.000124733
-5.96392e-05
9.47931e-05
-6.17706e-05
6.45843e-05
-6.45661e-05
3.27384e-05
-6.72216e-05
-4.01594e-06
-6.91537e-05
-4.14032e-05
-7.04177e-05
-7.79104e-05
-7.10812e-05
-0.000112892
-7.12059e-05
-0.000145768
-7.08298e-05
-0.000176128
-6.99731e-05
-0.000203576
-6.86438e-05
-0.000227736
-6.68408e-05
-0.00024826
-6.45427e-05
-0.000264819
-6.16712e-05
-0.000277067
-5.79649e-05
-0.000284523
-5.33801e-05
-0.000285958
-4.82104e-05
-0.000283017
-4.2421e-05
-0.000276358
-3.60407e-05
-0.000266187
-2.91588e-05
-0.00025277
-2.19096e-05
-0.000236458
-1.44389e-05
-0.000217676
-6.93454e-06
-0.000196794
3.67706e-07
-0.000174135
7.24379e-06
-0.000150083
1.34727e-05
-0.000125028
1.88031e-05
-9.93342e-05
2.3071e-05
-7.34819e-05
2.6744e-05
-4.819e-05
3.17795e-05
-2.31638e-05
3.68066e-05
6.82211e-06
3.92625e-05
3.99454e-05
3.95936e-05
7.27458e-05
3.83282e-05
0.000104282
3.57721e-05
0.00013455
3.23113e-05
0.000163135
2.83079e-05
0.000189516
2.40784e-05
0.000213155
1.98491e-05
0.000233595
1.57118e-05
0.000250355
1.16976e-05
0.000263353
8.00816e-06
0.000270833
4.74195e-06
0.000273561
1.93267e-06
0.000268689
-5.8466e-07
0.000265932
-2.61713e-06
0.000249363
-4.13124e-06
0.000238231
0.000207243
-1.21715e-05
-0.000477487
-5.53844e-06
-0.000461575
2.13882e-06
-0.000438751
1.06928e-05
-0.000409868
1.98837e-05
-0.000375908
2.93981e-05
-0.000337861
3.88296e-05
-0.000296615
4.77392e-05
-0.000252971
5.57418e-05
-0.000207719
6.252e-05
-0.000161662
6.79266e-05
-0.000115621
7.27427e-05
-7.04193e-05
7.85445e-05
-2.2253e-05
8.22368e-05
3.38025e-05
8.37764e-05
8.95558e-05
8.36043e-05
0.000144115
8.22002e-05
0.000196573
7.98197e-05
0.000246336
7.6557e-05
0.000292675
7.24411e-05
0.000334696
6.75468e-05
0.000371474
6.19661e-05
0.000402205
5.57735e-05
0.000426193
4.90436e-05
0.000442704
4.17984e-05
0.000450202
3.4261e-05
0.000448291
2.70964e-05
0.000439498
2.11896e-05
0.000423907
1.63294e-05
0.000402355
1.23092e-05
0.000375619
9.20027e-06
0.00034459
6.84396e-06
0.000309606
5.58019e-06
0.000270773
5.01473e-06
0.000229515
4.18556e-06
0.000186864
3.51506e-06
0.000142963
3.68613e-06
9.90648e-05
4.92063e-06
5.76353e-05
6.37256e-06
2.27749e-05
7.06723e-06
-2.38498e-05
8.79186e-06
-8.62372e-05
9.58294e-06
-0.000132127
9.97165e-06
-0.000175395
9.99327e-06
-0.000215573
9.61889e-06
-0.000252377
8.83463e-06
-0.000285439
7.6828e-06
-0.000314355
6.24956e-06
-0.000338695
4.63357e-06
-0.000357964
2.98838e-06
-0.000371646
1.59991e-06
-0.000378987
5.81594e-07
-0.000378689
5.62183e-08
-0.00037321
1.18891e-07
-0.000362659
8.33118e-07
-0.000347333
2.20544e-06
-0.000327605
4.20808e-06
-0.000303958
6.78216e-06
-0.000276956
9.75432e-06
-0.000247102
1.28978e-05
-0.000214921
1.60199e-05
-0.000180989
1.89023e-05
-0.000145943
2.12658e-05
-0.000110486
2.29549e-05
-7.5532e-05
2.48241e-05
-4.271e-05
2.96706e-05
-8.3753e-06
3.26837e-05
3.36677e-05
3.3864e-05
7.38639e-05
3.37641e-05
0.000111196
3.23693e-05
0.000146219
2.97447e-05
0.000178862
2.61138e-05
0.00020873
2.16896e-05
0.000235608
1.65168e-05
0.000259425
1.06968e-05
0.000279684
4.6657e-06
0.000295446
-1.06381e-06
0.000306309
-6.84947e-06
0.00031318
-1.28707e-05
0.00031495
-1.8667e-05
0.000311574
-2.42009e-05
0.000304104
-2.93549e-05
0.000292597
-3.3988e-05
0.000277228
-3.80945e-05
0.000258348
-4.16511e-05
0.000236337
-4.462e-05
0.000211607
-4.70013e-05
0.000184612
-4.8854e-05
0.000155917
-5.02619e-05
0.000126141
-5.13348e-05
9.58661e-05
-5.23875e-05
6.5637e-05
-5.43346e-05
3.46855e-05
-5.66461e-05
-1.70447e-06
-5.83744e-05
-3.96749e-05
-5.95783e-05
-7.67066e-05
-6.03865e-05
-0.000112084
-6.08688e-05
-0.000145286
-6.10378e-05
-0.000175959
-6.08918e-05
-0.000203722
-6.04191e-05
-0.000228209
-5.95904e-05
-0.000249089
-5.8358e-05
-0.000266051
-5.66403e-05
-0.000278784
-5.42765e-05
-0.000286886
-5.09801e-05
-0.000289254
-4.71489e-05
-0.000286848
-4.27348e-05
-0.000280772
-3.77474e-05
-0.000271174
-3.22476e-05
-0.00025827
-2.63527e-05
-0.000242353
-2.01861e-05
-0.000223843
-1.39036e-05
-0.000203077
-7.68163e-06
-0.000180357
-1.73664e-06
-0.000156028
3.61995e-06
-0.000130385
8.08086e-06
-0.000103795
1.14356e-05
-7.68366e-05
1.35398e-05
-5.02943e-05
1.60804e-05
-2.57044e-05
2.38308e-05
-9.28329e-07
2.55397e-05
3.82365e-05
2.49725e-05
7.33131e-05
2.34667e-05
0.000105788
2.13701e-05
0.000136647
1.91411e-05
0.000165364
1.68046e-05
0.000191852
1.42503e-05
0.00021571
1.15477e-05
0.000236298
8.96215e-06
0.000252941
6.57987e-06
0.000265736
4.48054e-06
0.000272932
2.24262e-06
0.000275799
3.59544e-07
0.000270572
-1.13002e-06
0.000267422
-2.39094e-06
0.000250624
-2.85576e-06
0.000238696
0.000206985
-1.33678e-05
-0.00048078
-8.92274e-06
-0.00046602
-3.3737e-06
-0.0004443
3.14997e-06
-0.000416392
1.04544e-05
-0.000383212
1.82346e-05
-0.000345641
2.60932e-05
-0.000304474
3.36474e-05
-0.000260525
4.05189e-05
-0.000214591
4.62743e-05
-0.000167417
5.05728e-05
-0.00011992
5.39472e-05
-7.37937e-05
5.96861e-05
-2.79919e-05
6.46953e-05
2.87933e-05
6.74784e-05
8.67727e-05
6.8615e-05
0.000142978
6.85269e-05
0.000196662
6.72412e-05
0.000247621
6.48802e-05
0.000295036
6.15979e-05
0.000337979
5.75415e-05
0.00037553
5.29437e-05
0.000406802
4.81028e-05
0.000431034
4.33607e-05
0.000447446
3.90435e-05
0.000454519
3.52711e-05
0.000452063
3.19009e-05
0.000442868
2.86121e-05
0.000427196
2.52545e-05
0.000405712
2.18727e-05
0.000379001
1.88134e-05
0.000347649
1.63446e-05
0.000312075
1.43968e-05
0.000272721
1.34384e-05
0.000230473
1.38959e-05
0.000186407
1.48085e-05
0.000142051
1.53735e-05
9.84998e-05
1.62585e-05
5.67503e-05
1.94554e-05
1.95779e-05
2.56876e-05
-3.0082e-05
2.5252e-05
-8.58016e-05
2.53442e-05
-0.000132219
2.53177e-05
-0.000175369
2.50108e-05
-0.000215266
2.41815e-05
-0.000251547
2.27257e-05
-0.000283983
2.06748e-05
-0.000312304
1.81425e-05
-0.000336163
1.52927e-05
-0.000355115
1.23464e-05
-0.0003687
9.5719e-06
-0.000376212
7.15407e-06
-0.000376271
5.18901e-06
-0.000371245
3.72824e-06
-0.000361198
2.81328e-06
-0.000346418
2.49286e-06
-0.000327285
2.81974e-06
-0.000304285
3.75805e-06
-0.000277894
5.14766e-06
-0.000248492
6.89147e-06
-0.000216665
8.85911e-06
-0.000182957
1.07155e-05
-0.0001478
1.22287e-05
-0.000111999
1.33576e-05
-7.66609e-05
1.43965e-05
-4.37489e-05
1.97519e-05
-1.37308e-05
2.28553e-05
3.05644e-05
2.25964e-05
7.41228e-05
2.11895e-05
0.000112603
1.86099e-05
0.000148798
1.51599e-05
0.000182312
1.13203e-05
0.00021257
7.45855e-06
0.00023947
3.69431e-06
0.000263189
1.00248e-07
0.000283278
-3.99071e-06
0.000299537
-9.47095e-06
0.000311789
-1.5099e-05
0.000318808
-1.97292e-05
0.00031958
-2.4056e-05
0.000315901
-2.80476e-05
0.000308096
-3.16433e-05
0.000296192
-3.48079e-05
0.000280393
-3.74699e-05
0.000261009
-3.95839e-05
0.000238451
-4.11198e-05
0.000213143
-4.2108e-05
0.0001856
-4.2624e-05
0.000156433
-4.27774e-05
0.000126294
-4.2728e-05
9.58167e-05
-4.2754e-05
6.56629e-05
-4.37492e-05
3.56807e-05
-4.56177e-05
1.64029e-07
-4.70267e-05
-3.82658e-05
-4.80131e-05
-7.57202e-05
-4.88307e-05
-0.000111266
-4.95848e-05
-0.000144532
-5.02475e-05
-0.000175296
-5.07941e-05
-0.000203175
-5.11902e-05
-0.000227813
-5.13661e-05
-0.000248913
-5.12363e-05
-0.000266181
-5.07143e-05
-0.000279306
-4.96447e-05
-0.000287956
-4.76941e-05
-0.000291205
-4.5223e-05
-0.000289319
-4.22017e-05
-0.000283793
-3.8623e-05
-0.000274753
-3.45369e-05
-0.000262356
-3.00396e-05
-0.00024685
-2.52344e-05
-0.000228648
-2.0255e-05
-0.000208056
-1.53206e-05
-0.000185291
-1.06509e-05
-0.000160697
-6.46856e-06
-0.000134567
-2.97677e-06
-0.000107287
-3.70853e-07
-7.94425e-05
1.25994e-06
-5.19251e-05
2.07302e-06
-2.65175e-05
7.74519e-06
-6.6005e-06
9.47934e-06
3.65024e-05
9.36982e-06
7.34226e-05
9.082e-06
0.000106076
8.51589e-06
0.000137213
7.49505e-06
0.000166385
6.06153e-06
0.000193286
4.46302e-06
0.000217308
2.78701e-06
0.000237974
1.09752e-06
0.00025463
-3.58763e-07
0.000267192
-1.39923e-06
0.000273973
-1.92609e-06
0.000276326
-1.86327e-06
0.000270509
-1.04855e-06
0.000266607
-7.32828e-07
0.000250308
-1.11913e-07
0.000238075
0.000205899
-1.43991e-05
-1.21335e-05
-8.68889e-06
-4.13171e-06
1.35234e-06
7.43509e-06
1.37418e-05
1.98984e-05
2.546e-05
2.99187e-05
3.28389e-05
3.47334e-05
3.9599e-05
4.77023e-05
5.12861e-05
5.30689e-05
5.35864e-05
5.3013e-05
5.1552e-05
4.94322e-05
4.68404e-05
4.3929e-05
4.08486e-05
3.77782e-05
3.50358e-05
3.27402e-05
3.09255e-05
2.9606e-05
2.88437e-05
2.86416e-05
2.89476e-05
2.95295e-05
2.99178e-05
2.96931e-05
2.87554e-05
2.79346e-05
2.7834e-05
2.77255e-05
3.15807e-05
3.75428e-05
3.83371e-05
3.90063e-05
3.92164e-05
3.88159e-05
3.7728e-05
3.58819e-05
3.32488e-05
2.98855e-05
2.59657e-05
2.17195e-05
1.74684e-05
1.35971e-05
1.0218e-05
7.35257e-06
4.99912e-06
3.24651e-06
2.20499e-06
1.85467e-06
2.07526e-06
2.70823e-06
3.49046e-06
4.1831e-06
4.73616e-06
5.1614e-06
5.15548e-06
7.51015e-06
8.31434e-06
6.02643e-06
3.49665e-06
1.33549e-06
-3.72448e-07
-1.8e-06
-3.50021e-06
-5.67475e-06
-8.4559e-06
-1.19272e-05
-1.59418e-05
-2.03017e-05
-2.43145e-05
-2.78631e-05
-3.09238e-05
-3.34652e-05
-3.54654e-05
-3.69141e-05
-3.7801e-05
-3.81378e-05
-3.79384e-05
-3.72306e-05
-3.60935e-05
-3.46715e-05
-3.32732e-05
-3.29302e-05
-3.42337e-05
-3.52064e-05
-3.59104e-05
-3.66895e-05
-3.75946e-05
-3.86502e-05
-3.9816e-05
-4.1035e-05
-4.22122e-05
-4.32079e-05
-4.39042e-05
-4.4166e-05
-4.36614e-05
-4.26557e-05
-4.11418e-05
-3.91182e-05
-3.66243e-05
-3.37277e-05
-3.0542e-05
-2.71889e-05
-2.38085e-05
-2.05686e-05
-1.75904e-05
-1.48921e-05
-1.25313e-05
-1.04863e-05
-8.19048e-06
-8.34222e-06
-6.02837e-06
-4.40088e-06
-3.47984e-06
0.000105155
-3.34123e-06
0.000137074
-3.98047e-06
0.000167024
-4.94338e-06
0.000194249
-5.93344e-06
0.000218298
-6.73735e-06
0.000238778
-7.25665e-06
0.00025515
-7.36198e-06
0.000267297
-7.08026e-06
0.000273691
-6.16988e-06
0.000275415
-4.74587e-06
0.000269085
-2.18811e-06
0.000264049
-4.24125e-07
0.000248544
1.65978e-06
0.000235991
0.000203571
-1.67306e-05
-1.66327e-05
-1.65789e-05
-1.6513e-05
-1.63068e-05
-1.58258e-05
-1.49837e-05
-1.36047e-05
-1.19028e-05
-9.45874e-06
-6.82027e-06
-3.05945e-06
-2.24304e-08
3.13618e-06
-3.60495e-06
-3.42235e-06
-6.10092e-07
-2.99487e-06
2.61972e-06
-3.22982e-06
5.44178e-06
-2.82207e-06
7.37755e-06
-1.93577e-06
8.3436e-06
-9.6605e-07
8.17495e-06
1.68653e-07
7.21253e-06
9.62415e-07
5.87865e-06
1.33389e-06
4.3752e-06
1.50344e-06
2.79736e-06
1.57784e-06
9.81059e-07
1.8163e-06
-1.12011e-06
2.10118e-06
-3.42845e-06
2.30833e-06
-5.05325e-06
1.6248e-06
-6.75336e-06
1.70011e-06
-8.19192e-06
1.43856e-06
-9.3877e-06
1.19578e-06
-1.03436e-05
9.55879e-07
-1.11322e-05
7.88581e-07
-1.18663e-05
7.34186e-07
-1.25953e-05
7.28971e-07
-1.33164e-05
7.21101e-07
-1.40504e-05
7.34007e-07
-1.47875e-05
7.37039e-07
-1.53369e-05
5.49394e-07
-1.5439e-05
1.02144e-07
-1.47582e-05
-6.80832e-07
-1.29642e-05
-1.79396e-06
-9.14516e-06
-3.81907e-06
-5.29354e-06
-3.85163e-06
7.37874e-07
-6.03142e-06
8.19769e-06
-7.45982e-06
1.71216e-05
-8.92395e-06
2.75113e-05
-1.03896e-05
3.91467e-05
-1.16355e-05
5.17594e-05
-1.26127e-05
6.49044e-05
-1.3145e-05
7.79762e-05
-1.30718e-05
9.03089e-05
-1.23327e-05
0.000101254
-1.0945e-05
0.000110282
-9.02834e-06
0.000116993
-6.71116e-06
0.000121142
-4.14893e-06
0.000122741
-1.59833e-06
0.000122239
5.02032e-07
0.000119789
2.44992e-06
0.000115084
4.70513e-06
0.000107863
7.22061e-06
9.80228e-05
9.84006e-06
8.55625e-05
1.24603e-05
7.04922e-05
1.50703e-05
5.31197e-05
1.73725e-05
3.39787e-05
1.9141e-05
1.38543e-05
2.01244e-05
-1.28284e-06
1.51371e-05
-1.92973e-05
1.80145e-05
-3.61064e-05
1.6809e-05
-5.10082e-05
1.49018e-05
-6.42434e-05
1.32351e-05
-7.52786e-05
1.10352e-05
-8.39315e-05
8.65285e-06
-9.01783e-05
6.2468e-06
-9.40981e-05
3.91979e-06
-9.58898e-05
1.79175e-06
-9.58168e-05
-7.30501e-08
-9.41408e-05
-1.67601e-06
-9.11365e-05
-3.00428e-06
-8.7083e-05
-4.05352e-06
-8.22328e-05
-4.85016e-06
-7.68614e-05
-5.37146e-06
-7.12015e-05
-5.6599e-06
-6.54019e-05
-5.79959e-06
-5.95841e-05
-5.81782e-06
-5.38487e-05
-5.73535e-06
-4.82663e-05
-5.58248e-06
-4.28831e-05
-5.38311e-06
-3.77222e-05
-5.161e-06
-3.2774e-05
-4.9482e-06
-2.79837e-05
-4.79027e-06
-2.32388e-05
-4.74487e-06
-1.83186e-05
-4.92028e-06
-1.36257e-05
-4.69286e-06
-8.80684e-06
-4.81888e-06
-3.67867e-06
-5.12817e-06
1.35664e-06
-5.03531e-06
7.08656e-06
-5.72993e-06
1.32161e-05
-6.12956e-06
1.93539e-05
-6.13782e-06
2.53801e-05
-6.0262e-06
3.10754e-05
-5.69525e-06
3.64955e-05
-5.42013e-06
4.17953e-05
-5.29977e-06
4.6805e-05
-5.00973e-06
5.12986e-05
-4.49358e-06
5.5141e-05
-3.8424e-06
5.83062e-05
-3.16523e-06
6.07299e-05
-2.42368e-06
6.22745e-05
-1.54462e-06
6.28055e-05
-5.31034e-07
6.22309e-05
5.74636e-07
6.05703e-05
1.66058e-06
5.79658e-05
2.60446e-06
5.44572e-05
3.50859e-06
5.00377e-05
4.41953e-06
4.47962e-05
5.24142e-06
3.88329e-05
5.96333e-06
3.22246e-05
6.60828e-06
2.49799e-05
7.24478e-06
1.71962e-05
7.78369e-06
8.94982e-06
8.24633e-06
2.27131e-06
6.67851e-06
-4.8754e-06
7.14671e-06
-1.17731e-05
6.89773e-06
-1.81849e-05
6.41178e-06
-2.39357e-05
5.75074e-06
-2.89179e-05
4.98219e-06
-3.30536e-05
4.13573e-06
-3.62964e-05
3.24278e-06
-3.86367e-05
2.3403e-06
-4.01045e-05
1.46784e-06
-4.07673e-05
6.62773e-07
-4.06945e-05
-7.27847e-08
-3.99582e-05
-7.36265e-07
-3.86785e-05
-1.27967e-06
-3.69822e-05
-1.69632e-06
-3.49727e-05
-2.00958e-06
-3.27379e-05
-2.2348e-06
-3.03632e-05
-2.37468e-06
-2.79186e-05
-2.44462e-06
-2.54641e-05
-2.45447e-06
-2.30503e-05
-2.41379e-06
-2.06933e-05
-2.357e-06
-1.84528e-05
-2.24053e-06
-1.63107e-05
-2.14201e-06
-1.43017e-05
-2.00901e-06
-2.24614e-06
-2.68923e-06
-1.32636e-05
6.88543e-06
-1.25695e-05
1.52603e-05
-1.16047e-05
2.18011e-05
-9.36279e-06
2.65841e-05
-6.71879e-06
2.9966e-05
-4.34797e-06
3.11021e-05
-9.67414e-07
3.08759e-05
1.18854e-06
3.0144e-05
2.06588e-06
2.92768e-05
2.37055e-06
2.82068e-05
2.64788e-06
2.67395e-05
3.28366e-06
2.49468e-05
3.89385e-06
2.33625e-05
3.89264e-06
2.16419e-05
3.3454e-06
2.05884e-05
2.75358e-06
1.9946e-05
2.08093e-06
1.96694e-05
1.47239e-06
1.96839e-05
9.41374e-07
1.98772e-05
5.9526e-07
2.0038e-05
5.73436e-07
2.01084e-05
6.58511e-07
2.0182e-05
6.47492e-07
2.02794e-05
6.36649e-07
2.03791e-05
6.3733e-07
2.05465e-05
3.81999e-07
2.10502e-05
-4.01517e-07
2.2293e-05
-1.92362e-06
2.4738e-05
-4.23897e-06
2.82812e-05
-7.36231e-06
3.49284e-05
-1.04988e-05
4.2591e-05
-1.3694e-05
5.13969e-05
-1.62658e-05
6.08605e-05
-1.83875e-05
7.07773e-05
-2.03065e-05
8.11605e-05
-2.20187e-05
9.18755e-05
-2.33276e-05
0.000102619
-2.38885e-05
0.000112835
-2.32879e-05
0.0001218
-2.12972e-05
0.000128881
-1.80262e-05
0.0001336
-1.37474e-05
0.000135631
-8.74245e-06
0.000134881
-3.39884e-06
0.000131257
2.026e-06
0.000124233
7.52612e-06
0.000113886
1.27961e-05
0.000101108
1.74835e-05
8.67253e-05
2.16033e-05
7.12976e-05
2.52678e-05
5.51923e-05
2.85656e-05
3.86881e-05
3.15744e-05
2.17462e-05
3.43144e-05
3.88347e-06
3.70037e-05
-9.98732e-06
3.39952e-05
-3.16075e-05
3.67572e-05
-4.99947e-05
3.64017e-05
-6.77413e-05
3.45557e-05
-8.43204e-05
3.14809e-05
-9.87372e-05
2.7652e-05
-0.000110833
2.31312e-05
-0.000120449
1.8269e-05
-0.000127489
1.32861e-05
-0.00013194
8.37139e-06
-0.000133923
3.77445e-06
-0.000133651
-3.45202e-07
-0.000131358
-3.96921e-06
-0.000127308
-7.05411e-06
-0.000121775
-9.58648e-06
-0.000114982
-1.16434e-05
-0.000107096
-1.32569e-05
-9.8302e-05
-1.4454e-05
-8.88148e-05
-1.52868e-05
-7.88406e-05
-1.5792e-05
-6.85752e-05
-1.60008e-05
-5.82149e-05
-1.59428e-05
-4.7948e-05
-1.565e-05
-3.79602e-05
-1.51488e-05
-2.84484e-05
-1.446e-05
-1.95587e-05
-1.36799e-05
-1.1099e-05
-1.32046e-05
-2.55419e-06
-1.34651e-05
5.263e-06
-1.25101e-05
1.34281e-05
-1.2984e-05
2.0826e-05
-1.25261e-05
2.80839e-05
-1.22932e-05
3.45893e-05
-1.22354e-05
4.12266e-05
-1.27668e-05
4.75198e-05
-1.24311e-05
5.33257e-05
-1.18321e-05
5.81764e-05
-1.0546e-05
6.22903e-05
-9.53405e-06
6.61521e-05
-9.16159e-06
6.94955e-05
-8.35312e-06
7.20934e-05
-7.09153e-06
7.37183e-05
-5.46729e-06
7.44902e-05
-3.93712e-06
7.4485e-05
-2.41846e-06
7.35621e-05
-6.21775e-07
7.15694e-05
1.46171e-06
6.83932e-05
3.75079e-06
6.39757e-05
6.07812e-06
5.82852e-05
8.2949e-06
5.15292e-05
1.02646e-05
4.40789e-05
1.18698e-05
3.62168e-05
1.31036e-05
2.81716e-05
1.40086e-05
2.00705e-05
1.47094e-05
1.18366e-05
1.54787e-05
3.38951e-06
1.62308e-05
-4.43061e-06
1.60665e-05
-1.34988e-05
1.57467e-05
-2.17958e-05
1.54437e-05
-2.96196e-05
1.47215e-05
-3.68233e-05
1.36155e-05
-4.3265e-05
1.21924e-05
-4.88018e-05
1.05189e-05
-5.3322e-05
8.65602e-06
-5.67468e-05
6.66757e-06
-5.90355e-05
4.62899e-06
-6.01833e-05
2.61568e-06
-6.02114e-05
6.90794e-07
-5.92286e-05
-1.05554e-06
-5.7386e-05
-2.57883e-06
-5.47692e-05
-3.89657e-06
-5.14689e-05
-4.99653e-06
-4.76079e-05
-5.87064e-06
-4.33102e-05
-6.53247e-06
-3.86858e-05
-6.99911e-06
-3.38541e-05
-7.27632e-06
-2.8907e-05
-7.4015e-06
-2.39211e-05
-7.39976e-06
-1.89922e-05
-7.28588e-06
-1.4061e-05
-7.17167e-06
-9.35939e-06
-6.84366e-06
-4.679e-06
-6.68941e-06
-6.82171e-06
-6.4873e-05
-2.52191e-05
-5.21062e-05
-2.53363e-05
-4.05254e-05
-2.31855e-05
-2.99198e-05
-1.99684e-05
-2.02185e-05
-1.64201e-05
-1.0533e-05
-1.40334e-05
-5.89659e-07
-1.09108e-05
7.32675e-06
-6.72787e-06
1.38845e-05
-4.49188e-06
2.02853e-05
-4.03025e-06
2.63265e-05
-3.39328e-06
3.22732e-05
-2.66309e-06
3.65547e-05
-3.8762e-07
3.99951e-05
4.5226e-07
4.31237e-05
2.16764e-07
4.63915e-05
-5.14228e-07
4.97176e-05
-1.24521e-06
5.28157e-05
-1.62566e-06
5.56573e-05
-1.90028e-06
5.82656e-05
-2.01304e-06
6.02568e-05
-1.41777e-06
6.16271e-05
-7.11743e-07
6.25154e-05
-2.40797e-07
6.28287e-05
3.23355e-07
6.2528e-05
9.38018e-07
6.17422e-05
1.16782e-06
6.06625e-05
6.78184e-07
5.95426e-05
-8.03714e-07
5.8695e-05
-3.39144e-06
5.82871e-05
-6.95436e-06
5.8921e-05
-1.11328e-05
6.06557e-05
-1.54287e-05
6.36852e-05
-1.92952e-05
6.8067e-05
-2.27693e-05
7.39793e-05
-2.62188e-05
8.15436e-05
-2.95831e-05
9.04596e-05
-3.22436e-05
9.98866e-05
-3.33156e-05
0.000108789
-3.21903e-05
0.000116224
-2.87323e-05
0.000121418
-2.32202e-05
0.000123973
-1.63027e-05
0.000123973
-8.74241e-06
0.000121686
-1.11162e-06
0.000117303
6.40858e-06
0.000111164
1.36655e-05
0.000103621
2.03394e-05
9.48425e-05
2.62618e-05
8.4869e-05
3.15768e-05
7.35951e-05
3.65417e-05
6.08678e-05
4.12929e-05
4.65162e-05
4.59261e-05
3.02465e-05
5.0584e-05
1.25889e-05
5.46613e-05
-6.6384e-06
5.32225e-05
-2.58405e-05
5.59593e-05
-4.45087e-05
5.50699e-05
-6.2308e-05
5.23549e-05
-7.86936e-05
4.78665e-05
-9.30472e-05
4.20055e-05
-0.000105078
3.51618e-05
-0.000114667
2.78586e-05
-0.000121797
2.04156e-05
-0.000126429
1.3003e-05
-0.00012873
6.07612e-06
-0.00012902
-5.59297e-08
-0.000127736
-5.25259e-06
-0.00012526
-9.52987e-06
-0.000121796
-1.30511e-05
-0.000117471
-1.59679e-05
-0.000112406
-1.83219e-05
-0.000106714
-2.01465e-05
-0.000100478
-2.15225e-05
-9.37467e-05
-2.25235e-05
-8.65251e-05
-2.32223e-05
-7.87636e-05
-2.37043e-05
-7.03755e-05
-2.40382e-05
-6.12947e-05
-2.42296e-05
-5.15326e-05
-2.42221e-05
-4.12198e-05
-2.39927e-05
-3.06941e-05
-2.37304e-05
-2.02542e-05
-2.3905e-05
-8.3068e-06
-2.44575e-05
3.68183e-06
-2.49726e-05
1.55817e-05
-2.44259e-05
2.67438e-05
-2.34553e-05
3.70646e-05
-2.25562e-05
4.66315e-05
-2.23337e-05
5.54606e-05
-2.12601e-05
6.32426e-05
-1.96141e-05
6.78043e-05
-1.51077e-05
7.00943e-05
-1.18241e-05
7.28382e-05
-1.19055e-05
7.49888e-05
-1.05038e-05
7.62639e-05
-8.36656e-06
7.63319e-05
-5.53527e-06
7.58572e-05
-3.46244e-06
7.48068e-05
-1.36813e-06
7.30623e-05
1.12276e-06
7.06e-05
3.92397e-06
6.72292e-05
7.1216e-06
6.29346e-05
1.03727e-05
5.78213e-05
1.34082e-05
5.20153e-05
1.60706e-05
4.56346e-05
1.82506e-05
3.88057e-05
1.99324e-05
3.16135e-05
2.12008e-05
2.40426e-05
2.22803e-05
1.61301e-05
2.33911e-05
7.75869e-06
2.46022e-05
-5.28357e-07
2.43535e-05
-9.04717e-06
2.42655e-05
-1.72272e-05
2.36237e-05
-2.49883e-05
2.24826e-05
-3.21955e-05
2.08228e-05
-3.87378e-05
1.87347e-05
-4.45245e-05
1.63056e-05
-4.94748e-05
1.36064e-05
-5.35194e-05
1.07122e-05
-5.66187e-05
7.72829e-06
-5.87784e-05
4.77542e-06
-6.00278e-05
1.94015e-06
-6.03605e-05
-7.22764e-07
-5.98192e-05
-3.12015e-06
-5.85279e-05
-5.1879e-06
-5.65907e-05
-6.93377e-06
-5.40731e-05
-8.38818e-06
-5.10271e-05
-9.57852e-06
-4.75013e-05
-1.05249e-05
-4.35374e-05
-1.12402e-05
-3.91846e-05
-1.17543e-05
-3.44193e-05
-1.2165e-05
-2.9378e-05
-1.23272e-05
-2.38787e-05
-1.26709e-05
-1.80123e-05
-1.27101e-05
-1.20185e-05
-1.26832e-05
-1.27886e-05
-9.31191e-05
-2.84235e-05
-9.01398e-05
-2.83157e-05
-8.58306e-05
-2.74947e-05
-8.01084e-05
-2.56906e-05
-7.30289e-05
-2.34996e-05
-6.51812e-05
-2.18811e-05
-5.61306e-05
-1.99613e-05
-4.6612e-05
-1.62466e-05
-3.71081e-05
-1.39957e-05
-2.81896e-05
-1.29488e-05
-1.95327e-05
-1.20502e-05
-1.03756e-05
-1.18202e-05
-1.79523e-06
-8.96799e-06
6.53357e-06
-7.87654e-06
1.41516e-05
-7.40122e-06
2.10258e-05
-7.38849e-06
2.72969e-05
-7.51629e-06
3.29012e-05
-7.22995e-06
3.8403e-05
-7.40204e-06
4.42125e-05
-7.82256e-06
4.85339e-05
-5.73918e-06
5.17855e-05
-3.96333e-06
5.56529e-05
-4.10818e-06
6.05462e-05
-4.57e-06
6.60876e-05
-4.60333e-06
7.21286e-05
-4.87317e-06
7.84412e-05
-5.63441e-06
8.45923e-05
-6.95482e-06
8.99637e-05
-8.76294e-06
9.38438e-05
-1.08344e-05
9.55806e-05
-1.28696e-05
9.51017e-05
-1.49499e-05
9.30914e-05
-1.72849e-05
9.02606e-05
-1.99384e-05
8.76086e-05
-2.35668e-05
8.58181e-05
-2.77926e-05
8.53704e-05
-3.17959e-05
8.66026e-05
-3.45477e-05
8.96144e-05
-3.52021e-05
9.38411e-05
-3.29591e-05
9.83311e-05
-2.77101e-05
0.000102353
-2.03245e-05
0.000105143
-1.15323e-05
0.000106155
-2.12417e-06
0.000105232
7.33199e-06
0.000102369
1.65281e-05
9.76136e-05
2.5095e-05
9.10045e-05
3.28709e-05
8.26042e-05
3.99771e-05
7.24247e-05
4.67212e-05
6.04584e-05
5.32592e-05
4.67366e-05
5.96479e-05
3.17273e-05
6.55934e-05
1.60921e-05
7.02964e-05
-3.09715e-06
7.24118e-05
-2.07732e-05
7.36354e-05
-3.80795e-05
7.23762e-05
-5.4297e-05
6.85725e-05
-6.89459e-05
6.25153e-05
-8.15875e-05
5.46472e-05
-9.21109e-05
4.56851e-05
-0.00010059
3.63376e-05
-0.00010699
2.68161e-05
-0.000110958
1.69704e-05
-0.000112866
7.98428e-06
-0.000112889
-3.29461e-08
-0.000111333
-6.80815e-06
-0.00010856
-1.23036e-05