/*--------------------------------*- C++ -*----------------------------------*\
| =========                 |                                                 |
| \\      /  F ield         | OpenFOAM: The Open Source CFD Toolbox           |
|  \\    /   O peration     | Version:  2206                                  |
|   \\  /    A nd           | Website:  www.openfoam.com                      |
|    \\/     M anipulation  |                                                 |
\*---------------------------------------------------------------------------*/
FoamFile
{
    version     2.0;
    format      ascii;
    arch        "LSB;label=32;scalar=64";
    class       volVectorField;
    location    "19.5";
    object      ddt0(U);
}
// * * * * * * * * * * * * * * * * * * * * * * * * * * * * * * * * * * * * * //

dimensions      [0 1 -2 0 0 0 0];

internalField   nonuniform List<vector> 
1849
(
(1.54683e-06 5.18348e-05 0)
(6.50195e-06 0.000144528 0)
(1.79862e-05 0.000230426 0)
(3.50783e-05 0.000304037 0)
(5.68871e-05 0.000363858 0)
(8.35204e-05 0.000408207 0)
(0.000113634 0.000436606 0)
(0.000145511 0.000449745 0)
(0.000177989 0.000448701 0)
(0.000210267 0.000435119 0)
(0.000241224 0.000411052 0)
(0.000270693 0.000379555 0)
(0.000298947 0.000343723 0)
(0.000325235 0.000307447 0)
(0.000349188 0.000274425 0)
(0.000370607 0.000248493 0)
(0.000390669 0.000233058 0)
(0.000410835 0.000231278 0)
(0.000431952 0.000245288 0)
(0.000455256 0.000277313 0)
(0.000482104 0.0003286 0)
(0.00051275 0.000400676 0)
(0.00054889 0.00049387 0)
(0.000593098 0.000608804 0)
(0.000646864 0.000744887 0)
(0.000711664 0.000901196 0)
(0.000789374 0.00107677 0)
(0.000882626 0.00127087 0)
(0.000987943 0.00148265 0)
(0.00111677 0.00171156 0)
(0.00126594 0.00195649 0)
(0.00142735 0.00221939 0)
(0.00162669 0.00250114 0)
(0.00183547 0.00280148 0)
(0.00208207 0.00312564 0)
(0.00235452 0.00347439 0)
(0.0026549 0.00385247 0)
(0.00299337 0.00426629 0)
(0.00335181 0.00472167 0)
(0.00377774 0.00522768 0)
(0.00421344 0.00578557 0)
(0.00472081 0.00641394 0)
(0.005263 0.00711362 0)
(0.00587231 0.00790309 0)
(0.00655511 0.00878996 0)
(0.00728655 0.00978501 0)
(0.00814592 0.010912 0)
(0.0090316 0.0121709 0)
(0.0100905 0.0136014 0)
(0.0112005 0.0151948 0)
(0.0124856 0.0169923 0)
(0.0138948 0.0189994 0)
(0.0154601 0.0212451 0)
(0.0172737 0.0237662 0)
(0.0191811 0.0265608 0)
(0.0214685 0.029718 0)
(0.0238472 0.0332012 0)
(0.0266458 0.0371272 0)
(0.0297111 0.0414768 0)
(0.0330875 0.0463163 0)
(0.0370322 0.0517594 0)
(0.0411542 0.0577286 0)
(0.0460821 0.0645198 0)
(0.0512502 0.071925 0)
(0.0572162 0.0803056 0)
(0.0637851 0.0895855 0)
(0.0710396 0.0999115 0)
(0.0789859 0.111321 0)
(0.0879649 0.124405 0)
(0.0977695 0.138797 0)
(0.108737 0.154844 0)
(0.120934 0.172678 0)
(0.134459 0.192517 0)
(0.149423 0.214619 0)
(0.165987 0.239223 0)
(0.184338 0.2665 0)
(0.204749 0.296732 0)
(0.227477 0.330262 0)
(0.252783 0.367518 0)
(0.280915 0.408942 0)
(0.312209 0.455027 0)
(0.347028 0.506306 0)
(0.385732 0.563402 0)
(0.428698 0.626932 0)
(0.476395 0.697558 0)
(0.529364 0.775932 0)
(0.588329 0.862819 0)
(0.654168 0.959095 0)
(0.727932 1.06589 0)
(0.810913 1.18453 0)
(0.90461 1.3167 0)
(1.01072 1.46433 0)
(1.13142 1.62988 0)
(1.26967 1.81667 0)
(1.42941 2.02961 0)
(1.61593 2.27631 0)
(1.83905 2.56825 0)
(2.10492 2.92864 0)
(2.4829 3.38062 0)
(2.8701 4.05974 0)
(4.30345 4.85468 0)
(4.60739 6.98048 0)
(1.70943e-06 4.82977e-05 0)
(7.31782e-06 0.000133062 0)
(1.96181e-05 0.000213741 0)
(3.87838e-05 0.00028172 0)
(6.42008e-05 0.000336309 0)
(9.52598e-05 0.000376906 0)
(0.0001303 0.00040279 0)
(0.00016743 0.00041463 0)
(0.000204979 0.000413272 0)
(0.000242244 0.000400199 0)
(0.000277938 0.00037729 0)
(0.000312459 0.000346964 0)
(0.000344572 0.000312641 0)
(0.000374506 0.000278321 0)
(0.000402138 0.000247752 0)
(0.000427974 0.000224158 0)
(0.000452793 0.000210046 0)
(0.000477189 0.000207857 0)
(0.000501632 0.000220246 0)
(0.000528372 0.000249372 0)
(0.000558434 0.00029683 0)
(0.000592785 0.000363521 0)
(0.00063396 0.00044984 0)
(0.00068415 0.00055546 0)
(0.000744657 0.000679766 0)
(0.000818025 0.000822583 0)
(0.000906605 0.000983076 0)
(0.00101293 0.00116025 0)
(0.00113525 0.00135279 0)
(0.00128324 0.00156067 0)
(0.00144927 0.00178419 0)
(0.00164342 0.00202243 0)
(0.00186326 0.00227674 0)
(0.00211343 0.00254999 0)
(0.00238998 0.00284254 0)
(0.00270912 0.00315908 0)
(0.00305133 0.00350313 0)
(0.00344055 0.00388066 0)
(0.00386614 0.00429461 0)
(0.00434032 0.00475445 0)
(0.00486 0.00526747 0)
(0.00543091 0.00583927 0)
(0.00606961 0.00648116 0)
(0.00676245 0.0072007 0)
(0.00754881 0.00801279 0)
(0.00840471 0.00892257 0)
(0.00936808 0.00995118 0)
(0.0104265 0.0111081 0)
(0.0116058 0.0124135 0)
(0.0129258 0.0138862 0)
(0.0143613 0.0155268 0)
(0.0160115 0.0173695 0)
(0.0178107 0.0194152 0)
(0.0198614 0.0217094 0)
(0.0221391 0.0242721 0)
(0.0246672 0.0271319 0)
(0.0275186 0.0303447 0)
(0.0306855 0.0339137 0)
(0.0342009 0.0378846 0)
(0.0381834 0.0423274 0)
(0.0425776 0.0472758 0)
(0.0474776 0.0527863 0)
(0.0530499 0.0589764 0)
(0.0590586 0.0657716 0)
(0.0659625 0.0734752 0)
(0.0734761 0.0819674 0)
(0.0818011 0.0914333 0)
(0.0911634 0.102191 0)
(0.101322 0.114014 0)
(0.1127 0.127243 0)
(0.125416 0.142011 0)
(0.139553 0.158452 0)
(0.155247 0.176762 0)
(0.172638 0.197192 0)
(0.191783 0.219935 0)
(0.212894 0.245114 0)
(0.236335 0.273022 0)
(0.262475 0.303964 0)
(0.291635 0.338316 0)
(0.324118 0.37643 0)
(0.360286 0.418797 0)
(0.400552 0.465902 0)
(0.4453 0.518402 0)
(0.494922 0.576902 0)
(0.54984 0.642003 0)
(0.61063 0.714255 0)
(0.678099 0.794307 0)
(0.753306 0.882579 0)
(0.837569 0.979883 0)
(0.932445 1.08756 0)
(1.03955 1.20715 0)
(1.16085 1.34002 0)
(1.29908 1.48777 0)
(1.45828 1.65262 0)
(1.64392 1.83779 0)
(1.8648 2.04756 0)
(2.13543 2.28822 0)
(2.47572 2.56847 0)
(2.95726 2.89846 0)
(3.55915 3.28307 0)
(4.68438 3.65579 0)
(6.01879 4.42976 0)
(2.03377e-06 4.68182e-05 0)
(8.8514e-06 0.000122465 0)
(2.00378e-05 0.000199804 0)
(4.24445e-05 0.000258366 0)
(7.13677e-05 0.000305856 0)
(0.000109434 0.000338769 0)
(0.00014832 0.00036237 0)
(0.000189218 0.000373904 0)
(0.000231155 0.000373001 0)
(0.000272626 0.000360937 0)
(0.000312771 0.000339715 0)
(0.000351082 0.000311361 0)
(0.000387231 0.000279583 0)
(0.000420725 0.000248022 0)
(0.000451545 0.000220029 0)
(0.00048044 0.000198103 0)
(0.000507924 0.000184637 0)
(0.000534646 0.000182212 0)
(0.000562106 0.00019352 0)
(0.000591607 0.000220215 0)
(0.000624456 0.000263768 0)
(0.000662634 0.000324524 0)
(0.000708483 0.000402692 0)
(0.000763952 0.000497588 0)
(0.000831379 0.000609236 0)
(0.000913346 0.000737264 0)
(0.00101191 0.000880721 0)
(0.00113049 0.00103858 0)
(0.00126577 0.00120927 0)
(0.00143014 0.00139337 0)
(0.00161845 0.00159051 0)
(0.00183308 0.00179963 0)
(0.00208267 0.00202416 0)
(0.00235796 0.00226385 0)
(0.00267637 0.00252211 0)
(0.00302284 0.0028009 0)
(0.00341577 0.00310588 0)
(0.00384727 0.00343943 0)
(0.00432744 0.00380636 0)
(0.00485859 0.00421601 0)
(0.00544031 0.00467265 0)
(0.00608827 0.00518355 0)
(0.00679062 0.00575615 0)
(0.00758116 0.00639932 0)
(0.00844523 0.00712176 0)
(0.00942061 0.00793583 0)
(0.0104887 0.00885142 0)
(0.0116893 0.00988696 0)
(0.0130114 0.0110563 0)
(0.0144751 0.0123731 0)
(0.016112 0.0138535 0)
(0.0178958 0.0154924 0)
(0.0199539 0.0173399 0)
(0.022209 0.0193832 0)
(0.0247766 0.021673 0)
(0.0276187 0.0242285 0)
(0.0308134 0.0271045 0)
(0.0343553 0.030323 0)
(0.0382906 0.0338494 0)
(0.0427607 0.0377955 0)
(0.0476649 0.0421811 0)
(0.0532841 0.0471596 0)
(0.0592957 0.0525951 0)
(0.0662872 0.0588349 0)
(0.0738326 0.0656653 0)
(0.0822747 0.0733498 0)
(0.0917814 0.0820716 0)
(0.102096 0.0916248 0)
(0.113596 0.10233 0)
(0.126424 0.114261 0)
(0.140716 0.127489 0)
(0.15662 0.142156 0)
(0.174335 0.158767 0)
(0.193941 0.177577 0)
(0.215433 0.198296 0)
(0.239095 0.22095 0)
(0.265393 0.245926 0)
(0.294697 0.273697 0)
(0.327318 0.304614 0)
(0.36363 0.339065 0)
(0.404091 0.377346 0)
(0.449224 0.420001 0)
(0.499501 0.467741 0)
(0.555236 0.521082 0)
(0.616826 0.580192 0)
(0.684858 0.645549 0)
(0.759905 0.717773 0)
(0.842979 0.79711 0)
(0.93609 0.883993 0)
(1.04125 0.9795 0)
(1.15985 1.08486 0)
(1.29357 1.201 0)
(1.44535 1.32839 0)
(1.61967 1.46782 0)
(1.82228 1.6203 0)
(2.06143 1.78612 0)
(2.3505 1.96449 0)
(2.70434 2.14863 0)
(3.16409 2.33018 0)
(3.71831 2.46732 0)
(4.47903 2.41251 0)
(5.36769 2.2725 0)
(2.46638e-06 4.04665e-05 0)
(9.3342e-06 0.000113056 0)
(2.40597e-05 0.000178885 0)
(4.97388e-05 0.000229679 0)
(8.24178e-05 0.000269911 0)
(0.000120725 0.000299801 0)
(0.000164037 0.000319385 0)
(0.000207893 0.000329613 0)
(0.000256817 0.000327571 0)
(0.000300683 0.000317209 0)
(0.000347235 0.000296908 0)
(0.000387153 0.000271762 0)
(0.000425372 0.000243193 0)
(0.000461387 0.000213936 0)
(0.00049507 0.000187502 0)
(0.000526612 0.000166827 0)
(0.000556643 0.000154227 0)
(0.000585876 0.000151838 0)
(0.000615549 0.000161559 0)
(0.000647316 0.000184992 0)
(0.000682902 0.000223219 0)
(0.000724311 0.000276702 0)
(0.000773872 0.000345234 0)
(0.000834075 0.000428484 0)
(0.000907365 0.0005259 0)
(0.00099641 0.000637379 0)
(0.00110385 0.000761628 0)
(0.00123209 0.000898302 0)
(0.00138292 0.00104621 0)
(0.00155363 0.00120361 0)
(0.0017675 0.00137158 0)
(0.0019924 0.00154936 0)
(0.00227381 0.00174288 0)
(0.00257002 0.00194628 0)
(0.00291759 0.00216675 0)
(0.00330489 0.00240604 0)
(0.00372269 0.00266443 0)
(0.00421337 0.0029533 0)
(0.00472131 0.00326526 0)
(0.00532481 0.00362276 0)
(0.00595195 0.00401646 0)
(0.00666834 0.00446246 0)
(0.0074447 0.00496056 0)
(0.00829365 0.00551283 0)
(0.00926171 0.00614818 0)
(0.0102993 0.00684971 0)
(0.0115034 0.00765841 0)
(0.0127885 0.00855494 0)
(0.0142647 0.00959032 0)
(0.0158758 0.0107554 0)
(0.0176322 0.0120266 0)
(0.0196448 0.013445 0)
(0.0218022 0.0150051 0)
(0.024366 0.0167983 0)
(0.0270872 0.0187627 0)
(0.0302239 0.020954 0)
(0.0338054 0.0234511 0)
(0.0375728 0.0262426 0)
(0.0419043 0.0294115 0)
(0.046654 0.0328129 0)
(0.0522651 0.0367031 0)
(0.0582239 0.0409004 0)
(0.0651289 0.0457407 0)
(0.0725968 0.0510108 0)
(0.0809742 0.0569732 0)
(0.0904004 0.0637739 0)
(0.100632 0.0712874 0)
(0.112002 0.0797612 0)
(0.12462 0.0892564 0)
(0.138612 0.0997513 0)
(0.154162 0.111393 0)
(0.171797 0.123875 0)
(0.1918 0.138204 0)
(0.213487 0.155433 0)
(0.236687 0.17451 0)
(0.262268 0.194876 0)
(0.291026 0.216969 0)
(0.323281 0.241259 0)
(0.359273 0.268174 0)
(0.399242 0.298181 0)
(0.443722 0.33119 0)
(0.493529 0.367728 0)
(0.549037 0.409333 0)
(0.610104 0.456771 0)
(0.677111 0.509972 0)
(0.751075 0.569355 0)
(0.832583 0.633967 0)
(0.922456 0.702562 0)
(1.02285 0.777384 0)
(1.136 0.860293 0)
(1.26336 0.951712 0)
(1.40611 1.05121 0)
(1.56677 1.15819 0)
(1.74965 1.2721 0)
(1.95979 1.39208 0)
(2.20282 1.5155 0)
(2.48709 1.63724 0)
(2.82082 1.74564 0)
(3.21843 1.82514 0)
(3.68741 1.83998 0)
(4.22435 1.74004 0)
(4.84245 1.52665 0)
(2.56074e-06 3.56909e-05 0)
(1.01208e-05 9.98325e-05 0)
(2.67282e-05 0.000157226 0)
(5.59705e-05 0.000198305 0)
(8.91829e-05 0.000233218 0)
(0.00013233 0.000256252 0)
(0.000176227 0.000273578 0)
(0.000225833 0.000279648 0)
(0.000276836 0.000277998 0)
(0.000323046 0.000269739 0)
(0.00037212 0.000251595 0)
(0.00041535 0.00022904 0)
(0.000458885 0.000203098 0)
(0.000495938 0.000177414 0)
(0.000532025 0.000154197 0)
(0.000566475 0.00013613 0)
(0.000599142 0.000125459 0)
(0.000630842 0.000123845 0)
(0.000663046 0.000132992 0)
(0.00069737 0.000154242 0)
(0.000735641 0.000188199 0)
(0.000779969 0.000234869 0)
(0.000832887 0.000294114 0)
(0.000896713 0.000365273 0)
(0.000974781 0.000447051 0)
(0.00106945 0.000540736 0)
(0.0011841 0.000644388 0)
(0.00132078 0.000757641 0)
(0.00148308 0.000881128 0)
(0.00166786 0.00100848 0)
(0.00188948 0.00114408 0)
(0.00213062 0.00128442 0)
(0.002425 0.00144067 0)
(0.00276085 0.00160534 0)
(0.00310641 0.00178153 0)
(0.00355602 0.00197983 0)
(0.00397303 0.00218336 0)
(0.00453287 0.00242449 0)
(0.00506161 0.00267152 0)
(0.00572112 0.00297041 0)
(0.00640783 0.00329731 0)
(0.00715994 0.00367632 0)
(0.00801671 0.00409933 0)
(0.00889498 0.00454707 0)
(0.00997031 0.00507548 0)
(0.0110479 0.00563151 0)
(0.0123521 0.00630789 0)
(0.0137338 0.00702408 0)
(0.0153249 0.00789614 0)
(0.0170146 0.0089507 0)
(0.0188867 0.0100834 0)
(0.0209496 0.0112564 0)
(0.0234173 0.0125779 0)
(0.0260244 0.0139883 0)
(0.0290829 0.0156771 0)
(0.0324235 0.0174092 0)
(0.0359446 0.0197016 0)
(0.0402167 0.0221938 0)
(0.0449385 0.0242538 0)
(0.0501852 0.0271931 0)
(0.055708 0.0303403 0)
(0.0622544 0.0340633 0)
(0.0692441 0.0380393 0)
(0.0771569 0.0425842 0)
(0.0861382 0.0477858 0)
(0.095985 0.0534687 0)
(0.106981 0.0599173 0)
(0.119187 0.0671688 0)
(0.132649 0.0752137 0)
(0.147571 0.0840697 0)
(0.163682 0.0938642 0)
(0.183482 0.104842 0)
(0.198224 0.116869 0)
(0.223938 0.130889 0)
(0.252343 0.146553 0)
(0.282616 0.163843 0)
(0.315753 0.182942 0)
(0.351831 0.204006 0)
(0.391047 0.227435 0)
(0.432836 0.253683 0)
(0.481372 0.28298 0)
(0.527902 0.315282 0)
(0.582377 0.351039 0)
(0.643626 0.390909 0)
(0.717195 0.433845 0)
(0.798244 0.48576 0)
(0.884231 0.545608 0)
(0.979144 0.604722 0)
(1.08813 0.665588 0)
(1.2114 0.732959 0)
(1.34792 0.80873 0)
(1.49816 0.890528 0)
(1.66473 0.976359 0)
(1.85155 1.06659 0)
(2.06229 1.15945 0)
(2.30033 1.25009 0)
(2.57007 1.3314 0)
(2.87576 1.39276 0)
(3.21963 1.42103 0)
(3.60454 1.39451 0)
(4.01047 1.279 0)
(4.43095 1.05568 0)
(2.80083e-06 3.12465e-05 0)
(1.15104e-05 8.44289e-05 0)
(2.81469e-05 0.000134304 0)
(6.21633e-05 0.000164636 0)
(9.54028e-05 0.000193322 0)
(0.000141208 0.000211005 0)
(0.000187421 0.000224426 0)
(0.000236669 0.000230743 0)
(0.000296013 0.000227052 0)
(0.000343981 0.000218859 0)
(0.000392432 0.000204611 0)
(0.000437015 0.000185846 0)
(0.000483503 0.000161489 0)
(0.000523632 0.000137305 0)
(0.000562974 0.000115954 0)
(0.000600847 9.89303e-05 0)
(0.000636977 8.8238e-05 0)
(0.000672254 8.55021e-05 0)
(0.000707942 9.18685e-05 0)
(0.000745534 0.000108881 0)
(0.000786375 0.000136601 0)
(0.000832976 0.000175459 0)
(0.000887789 0.000223928 0)
(0.000952245 0.000281783 0)
(0.00103325 0.000347413 0)
(0.00112021 0.000421944 0)
(0.00125271 0.000501681 0)
(0.00137936 0.000592256 0)
(0.00155498 0.00069279 0)
(0.00175156 0.000792802 0)
(0.00197358 0.000893869 0)
(0.00226106 0.00100081 0)
(0.00250702 0.00110915 0)
(0.00294507 0.00123882 0)
(0.00319401 0.00135788 0)
(0.00377215 0.00152056 0)
(0.00409724 0.00166108 0)
(0.0047379 0.0018523 0)
(0.00526791 0.00203956 0)
(0.00588452 0.00225904 0)
(0.00674857 0.0025516 0)
(0.00729223 0.00279842 0)
(0.0084404 0.00321616 0)
(0.00899932 0.00349675 0)
(0.0104 0.00402838 0)
(0.01131 0.00442362 0)
(0.0127289 0.00499021 0)
(0.0142856 0.00559353 0)
(0.0154853 0.00625785 0)
(0.017701 0.00700764 0)
(0.0199653 0.00785536 0)
(0.0223261 0.00880125 0)
(0.024927 0.00985644 0)
(0.0277274 0.0110397 0)
(0.0307794 0.0123553 0)
(0.0341284 0.0138441 0)
(0.03784 0.0154966 0)
(0.0420407 0.0173173 0)
(0.0466629 0.0194158 0)
(0.0517136 0.0217605 0)
(0.0573987 0.0243193 0)
(0.063809 0.02714 0)
(0.0710013 0.0303047 0)
(0.0790465 0.0337568 0)
(0.0883189 0.0376899 0)
(0.0981453 0.0423257 0)
(0.109248 0.0476747 0)
(0.121658 0.0537177 0)
(0.135476 0.0605844 0)
(0.150912 0.068072 0)
(0.16831 0.0760182 0)
(0.187864 0.085287 0)
(0.210498 0.0955234 0)
(0.234442 0.105863 0)
(0.259957 0.117469 0)
(0.288779 0.131136 0)
(0.321597 0.146858 0)
(0.358712 0.164624 0)
(0.398596 0.184557 0)
(0.444231 0.206732 0)
(0.494574 0.231645 0)
(0.550405 0.259609 0)
(0.611662 0.28985 0)
(0.677676 0.322445 0)
(0.755416 0.357884 0)
(0.812107 0.397687 0)
(0.942902 0.442751 0)
(1.04539 0.4924 0)
(1.15834 0.543613 0)
(1.28592 0.598408 0)
(1.42284 0.66385 0)
(1.56878 0.734202 0)
(1.73193 0.800762 0)
(1.91814 0.866216 0)
(2.12698 0.932093 0)
(2.3576 0.993745 0)
(2.61164 1.04425 0)
(2.89047 1.07611 0)
(3.19136 1.07792 0)
(3.50839 1.03391 0)
(3.82302 0.919072 0)
(4.11414 0.724163 0)
(3.34921e-06 2.33897e-05 0)
(1.07671e-05 6.98023e-05 0)
(2.96376e-05 0.000107912 0)
(6.68464e-05 0.000129673 0)
(9.62606e-05 0.000154733 0)
(0.000152513 0.000160636 0)
(0.000191013 0.000178086 0)
(0.000250602 0.000157805 0)
(0.000304802 0.000175522 0)
(0.000356811 0.000171834 0)
(0.000411453 0.000153387 0)
(0.000455127 0.000139408 0)
(0.000499412 0.000118114 0)
(0.000544202 9.43636e-05 0)
(0.000588119 7.44836e-05 0)
(0.000630241 5.98463e-05 0)
(0.000663188 5.27237e-05 0)
(0.000700345 5.14064e-05 0)
(0.000729905 5.95416e-05 0)
(0.000766497 7.57054e-05 0)
(0.000803802 0.000100563 0)
(0.00084611 0.000132958 0)
(0.000899254 0.000173457 0)
(0.000961195 0.00022006 0)
(0.00103963 0.000271501 0)
(0.00113928 0.000325559 0)
(0.00126336 0.000382479 0)
(0.00138374 0.000442853 0)
(0.00159192 0.000504785 0)
(0.00180837 0.000570719 0)
(0.00205079 0.000639761 0)
(0.00232512 0.000715848 0)
(0.00262421 0.000792037 0)
(0.00295443 0.000877534 0)
(0.00331574 0.000968611 0)
(0.00371787 0.00106867 0)
(0.00415573 0.00118185 0)
(0.00465238 0.00130327 0)
(0.00520457 0.00144084 0)
(0.00578827 0.00156001 0)
(0.00643732 0.00175131 0)
(0.00717238 0.00204017 0)
(0.00797485 0.00230672 0)
(0.0089031 0.00249314 0)
(0.00991294 0.00275787 0)
(0.0110791 0.0030928 0)
(0.0123661 0.00346235 0)
(0.0138258 0.00391841 0)
(0.0154618 0.00439701 0)
(0.0172234 0.00486746 0)
(0.0191505 0.00546322 0)
(0.0213283 0.00620741 0)
(0.0237935 0.00707155 0)
(0.0265506 0.00802498 0)
(0.0296212 0.00907946 0)
(0.0330487 0.0102411 0)
(0.0368866 0.011507 0)
(0.0412131 0.0128409 0)
(0.0459513 0.0144793 0)
(0.0510708 0.0161971 0)
(0.0568108 0.0181158 0)
(0.0632831 0.0202834 0)
(0.0704469 0.0227256 0)
(0.0785296 0.0254393 0)
(0.0878225 0.0285779 0)
(0.0982505 0.0320993 0)
(0.109748 0.0359825 0)
(0.122508 0.0401413 0)
(0.1364 0.0447181 0)
(0.151309 0.050036 0)
(0.168122 0.0562667 0)
(0.187585 0.0634951 0)
(0.209495 0.0720913 0)
(0.233204 0.0803005 0)
(0.259048 0.08946 0)
(0.287677 0.100065 0)
(0.319869 0.112003 0)
(0.356296 0.125381 0)
(0.39709 0.140323 0)
(0.442798 0.156957 0)
(0.493863 0.175867 0)
(0.551024 0.197274 0)
(0.61476 0.221008 0)
(0.685468 0.246928 0)
(0.764943 0.27696 0)
(0.849836 0.305605 0)
(0.943204 0.334492 0)
(1.0474 0.372819 0)
(1.16918 0.417668 0)
(1.28399 0.464403 0)
(1.41856 0.513637 0)
(1.60753 0.566062 0)
(1.77598 0.618794 0)
(1.9624 0.668043 0)
(2.16711 0.71651 0)
(2.38547 0.759809 0)
(2.61985 0.788348 0)
(2.87131 0.800531 0)
(3.13385 0.789147 0)
(3.39862 0.743462 0)
(3.65144 0.651436 0)
(3.87204 0.508627 0)
(3.87483e-06 2.08009e-05 0)
(1.1527e-05 5.37306e-05 0)
(3.62561e-05 7.827e-05 0)
(6.39238e-05 9.3537e-05 0)
(0.000106144 0.000105636 0)
(0.000149479 0.000115895 0)
(0.0002057 0.000121237 0)
(0.000250885 0.000123952 0)
(0.000305668 0.00011873 0)
(0.000352068 0.000111823 0)
(0.000396685 0.000102518 0)
(0.000477547 8.59851e-05 0)
(0.000521739 6.82391e-05 0)
(0.000557333 5.12892e-05 0)
(0.000588645 3.63099e-05 0)
(0.000613365 2.42202e-05 0)
(0.000634273 1.93397e-05 0)
(0.000653854 1.98606e-05 0)
(0.000674716 2.53929e-05 0)
(0.000694792 3.70105e-05 0)
(0.000724925 5.52006e-05 0)
(0.000763137 7.7361e-05 0)
(0.000811982 0.000108416 0)
(0.000873866 0.000140399 0)
(0.00095154 0.000167172 0)
(0.00104658 0.000201208 0)
(0.00116287 0.000238461 0)
(0.0013007 0.000265149 0)
(0.00145934 0.000289292 0)
(0.00164256 0.000318859 0)
(0.001856 0.0003625 0)
(0.00210025 0.00041124 0)
(0.00237492 0.000461034 0)
(0.00268085 0.000516111 0)
(0.00302001 0.00057296 0)
(0.00339465 0.000640931 0)
(0.00380645 0.000710962 0)
(0.0042588 0.000737804 0)
(0.00475796 0.000848569 0)
(0.00529849 0.000995464 0)
(0.00587878 0.00114669 0)
(0.00652245 0.00129062 0)
(0.00725873 0.00144015 0)
(0.00808062 0.00160044 0)
(0.00898507 0.00177253 0)
(0.00998739 0.00196559 0)
(0.0111061 0.00218728 0)
(0.0123538 0.00244699 0)
(0.0137493 0.00274212 0)
(0.0152937 0.00307701 0)
(0.0169831 0.0034801 0)
(0.0188567 0.00395453 0)
(0.0209542 0.00449116 0)
(0.0233125 0.00508022 0)
(0.0259613 0.00572411 0)
(0.0289455 0.00643843 0)
(0.032308 0.00721126 0)
(0.0360711 0.00803137 0)
(0.0402942 0.00975231 0)
(0.0450148 0.0106525 0)
(0.0503075 0.011701 0)
(0.056199 0.0130296 0)
(0.0627515 0.0147131 0)
(0.0700057 0.0150061 0)
(0.0780841 0.0171034 0)
(0.0871295 0.0198251 0)
(0.097238 0.0230322 0)
(0.108419 0.0263078 0)
(0.121453 0.03247 0)
(0.135247 0.036222 0)
(0.153241 0.0379402 0)
(0.171508 0.0427206 0)
(0.190133 0.049078 0)
(0.211989 0.0550191 0)
(0.236996 0.0610426 0)
(0.264727 0.0678595 0)
(0.295528 0.0757276 0)
(0.329981 0.0848762 0)
(0.368546 0.0952803 0)
(0.411726 0.10695 0)
(0.460144 0.120009 0)
(0.514495 0.134781 0)
(0.575428 0.151382 0)
(0.64329 0.169813 0)
(0.718706 0.190393 0)
(0.802968 0.211782 0)
(0.893222 0.234606 0)
(0.993319 0.261879 0)
(1.10809 0.294674 0)
(1.23391 0.328776 0)
(1.3708 0.356595 0)
(1.52756 0.385395 0)
(1.70446 0.422913 0)
(1.89678 0.461144 0)
(2.09142 0.495732 0)
(2.33389 0.524746 0)
(2.5624 0.544736 0)
(2.79838 0.551449 0)
(3.03617 0.538632 0)
(3.26677 0.500445 0)
(3.47987 0.432712 0)
(3.66078 0.335477 0)
(5.13565e-06 9.95294e-06 0)
(8.68317e-06 3.47777e-05 0)
(3.71573e-05 5.72678e-05 0)
(8.43475e-05 5.44061e-05 0)
(0.000120545 6.68854e-05 0)
(0.000162898 6.42635e-05 0)
(0.000207729 6.92049e-05 0)
(0.000252897 6.99925e-05 0)
(0.000298605 6.4355e-05 0)
(0.000344247 6.02351e-05 0)
(0.000386304 4.72921e-05 0)
(0.000420975 3.29668e-05 0)
(0.000449933 2.54124e-05 0)
(0.000477139 1.98573e-05 0)
(0.00050084 1.42492e-05 0)
(0.000519827 9.92738e-06 0)
(0.000535123 7.98325e-06 0)
(0.000549564 8.88891e-06 0)
(0.000564963 1.32881e-05 0)
(0.000583004 2.08953e-05 0)
(0.000605178 3.11346e-05 0)
(0.000632893 4.39465e-05 0)
(0.000668703 5.90544e-05 0)
(0.000715719 7.57518e-05 0)
(0.000774132 9.30106e-05 0)
(0.000843636 0.000109937 0)
(0.000927336 0.000124987 0)
(0.00102673 0.000138088 0)
(0.00114085 0.00015113 0)
(0.00126948 0.000166817 0)
(0.00141494 0.00018386 0)
(0.001581 0.000201095 0)
(0.0017681 0.00021902 0)
(0.00197731 0.000239043 0)
(0.00220817 0.000261832 0)
(0.00246442 0.000290136 0)
(0.00274768 0.000321406 0)
(0.00305222 0.000359726 0)
(0.00337624 0.000408132 0)
(0.00373448 0.000460177 0)
(0.00414098 0.000521424 0)
(0.00460085 0.000598033 0)
(0.00513456 0.000683636 0)
(0.00568163 0.000767111 0)
(0.00635797 0.000856105 0)
(0.00702439 0.000969836 0)
(0.00791325 0.00110313 0)
(0.00876271 0.00127172 0)
(0.00981516 0.00144514 0)
(0.0109543 0.00169307 0)
(0.0121807 0.00197841 0)
(0.013676 0.00228863 0)
(0.0151543 0.00265123 0)
(0.017145 0.00301301 0)
(0.0190449 0.00343549 0)
(0.0215467 0.00385495 0)
(0.0241536 0.0043266 0)
(0.0269936 0.00483826 0)
(0.0306438 0.00539651 0)
(0.0343668 0.00610529 0)
(0.0390114 0.00688488 0)
(0.0434669 0.00785277 0)
(0.0495088 0.00884634 0)
(0.0546914 0.0101236 0)
(0.0613757 0.0112925 0)
(0.0688557 0.0125541 0)
(0.0752821 0.0142614 0)
(0.0881233 0.01513 0)
(0.09562 0.0172205 0)
(0.109384 0.0184189 0)
(0.124573 0.0206629 0)
(0.140735 0.0251417 0)
(0.163441 0.0270901 0)
(0.183041 0.0324658 0)
(0.203721 0.0373419 0)
(0.228045 0.0419124 0)
(0.255117 0.0467434 0)
(0.2853 0.0520312 0)
(0.319176 0.0580375 0)
(0.357396 0.0648867 0)
(0.400742 0.0726892 0)
(0.45008 0.0815281 0)
(0.505972 0.0914669 0)
(0.568886 0.102528 0)
(0.639254 0.114796 0)
(0.718345 0.128295 0)
(0.805117 0.142979 0)
(0.900693 0.159142 0)
(1.00755 0.17764 0)
(1.12857 0.196687 0)
(1.2624 0.212346 0)
(1.40615 0.227005 0)
(1.56498 0.247237 0)
(1.73981 0.268472 0)
(1.92514 0.281132 0)
(2.14432 0.291016 0)
(2.35039 0.302908 0)
(2.58762 0.309026 0)
(2.82297 0.303015 0)
(3.04253 0.281833 0)
(3.23868 0.2438 0)
(3.40241 0.189942 0)
(4.79024e-06 8.18496e-06 0)
(1.91166e-05 7.51147e-06 0)
(4.58138e-05 1.22421e-05 0)
(8.05554e-05 1.66054e-05 0)
(0.000119565 2.01129e-05 0)
(0.000163566 2.34186e-05 0)
(0.000210509 2.56276e-05 0)
(0.000259179 2.61142e-05 0)
(0.000306999 2.58083e-05 0)
(0.000351055 2.36723e-05 0)
(0.000389225 1.8549e-05 0)
(0.000418367 1.21873e-05 0)
(0.000438519 7.33925e-06 0)
(0.000451961 2.59586e-06 0)
(0.000460213 -2.45162e-06 0)
(0.000463405 -7.06189e-06 0)
(0.00046325 -9.36758e-06 0)
(0.000462317 -9.24346e-06 0)
(0.000463677 -6.13609e-06 0)
(0.00046993 -9.62987e-07 0)
(0.000483925 6.05119e-06 0)
(0.000507489 1.37215e-05 0)
(0.000543021 2.27988e-05 0)
(0.000591052 3.13092e-05 0)
(0.000652146 3.73912e-05 0)
(0.000723276 4.14329e-05 0)
(0.000809174 4.38411e-05 0)
(0.000894774 4.15148e-05 0)
(0.000991746 3.52315e-05 0)
(0.00108938 2.90187e-05 0)
(0.00119607 2.64551e-05 0)
(0.00131162 2.71892e-05 0)
(0.00143743 3.13543e-05 0)
(0.0015816 3.76204e-05 0)
(0.00173008 4.62445e-05 0)
(0.00191098 5.71286e-05 0)
(0.00210349 6.69123e-05 0)
(0.00231616 7.57609e-05 0)
(0.00256732 0.000100055 0)
(0.00286905 0.000143165 0)
(0.00322539 0.000193158 0)
(0.00364063 0.000231892 0)
(0.00411086 0.000252598 0)
(0.00463633 0.000253028 0)
(0.00521833 0.000251145 0)
(0.00582985 0.00025736 0)
(0.0065572 0.000281933 0)
(0.00733542 0.000325524 0)
(0.00825247 0.000374233 0)
(0.00930879 0.000436286 0)
(0.0105303 0.000510346 0)
(0.0119818 0.000609737 0)
(0.0136268 0.000701675 0)
(0.0155471 0.000791315 0)
(0.0176708 0.000876727 0)
(0.0200886 0.000964677 0)
(0.0227925 0.0010938 0)
(0.0257827 0.00119983 0)
(0.0292258 0.00144787 0)
(0.0330197 0.00159995 0)
(0.0373325 0.00175149 0)
(0.0421373 0.00195079 0)
(0.0475486 0.00232407 0)
(0.0537317 0.002689 0)
(0.0608267 0.0031677 0)
(0.0682697 0.00398715 0)
(0.0779284 0.004488 0)
(0.0875714 0.00551496 0)
(0.0993271 0.00754068 0)
(0.112695 0.00668673 0)
(0.124394 0.00261383 0)
(0.137429 0.00363027 0)
(0.153101 0.00795105 0)
(0.173595 0.0120286 0)
(0.197561 0.0136198 0)
(0.224348 0.0142697 0)
(0.25435 0.0161543 0)
(0.287698 0.0188699 0)
(0.325057 0.0209307 0)
(0.366562 0.0227454 0)
(0.412393 0.0240504 0)
(0.463179 0.0263729 0)
(0.519823 0.0297158 0)
(0.583313 0.0337923 0)
(0.65449 0.038417 0)
(0.734334 0.0435626 0)
(0.823776 0.049296 0)
(0.923646 0.0554965 0)
(1.0351 0.0618859 0)
(1.15855 0.0676175 0)
(1.29378 0.0721795 0)
(1.43722 0.0764737 0)
(1.58808 0.0835736 0)
(1.77032 0.0881702 0)
(1.93509 0.0845517 0)
(2.11959 0.0826375 0)
(2.30472 0.085474 0)
(2.49439 0.0859258 0)
(2.68427 0.0828624 0)
(2.86583 0.076393 0)
(3.02933 0.0655748 0)
(3.16434 0.0499504 0)
(6.94028 4.73319 0)
(7.30666 2.53148 0)
(4.52687 2.27558 0)
(3.84625 1.30417 0)
(8.7179 -2.73924 0)
(8.0383 -3.61194 0)
(11.5462 -3.60467 0)
(15.0913 -2.01487 0)
(17.2687 0.792267 0)
(16.4499 3.50636 0)
(12.6772 4.73051 0)
(8.76095 5.02103 0)
(4.80684 4.4312 0)
(0.514729 3.60778 0)
(-3.01345 1.72485 0)
(-5.10285 -0.530108 0)
(-5.13623 -2.43482 0)
(-3.39988 -3.5452 0)
(-0.353216 -3.70853 0)
(3.22522 -2.93612 0)
(6.86722 -1.8682 0)
(9.9977 -0.83989 0)
(12.2536 0.0603147 0)
(13.3464 0.832526 0)
(13.605 1.37268 0)
(11.888 1.47816 0)
(9.35328 1.28568 0)
(6.63503 0.850422 0)
(4.10194 0.322855 0)
(2.2414 -0.11742 0)
(1.234 -0.436552 0)
(1.01761 -0.655473 0)
(7.24601 1.96647 0)
(7.34501 -0.54191 0)
(9.1143 -1.47959 0)
(9.11997 -1.30218 0)
(12.3293 -0.814211 0)
(13.8731 -1.04638 0)
(13.0402 -1.76256 0)
(11.6354 -1.88788 0)
(6.5837 -1.26956 0)
(3.89273 1.18816 0)
(5.94969 3.90532 0)
(4.85586 5.55051 0)
(2.12265 6.22418 0)
(0.559645 6.64215 0)
(1.49669 4.08051 0)
(2.50191 0.882046 0)
(3.58569 -1.17365 0)
(5.0465 -2.79601 0)
(6.24928 -3.98698 0)
(6.89913 -4.64801 0)
(7.32629 -4.54431 0)
(8.08645 -3.97105 0)
(8.44412 -2.80169 0)
(8.47261 -0.965138 0)
(8.0935 1.22112 0)
(7.46006 3.28931 0)
(6.68837 4.48039 0)
(5.96157 4.61416 0)
(5.46206 3.7719 0)
(5.08235 2.32249 0)
(4.82242 0.956111 0)
(4.78899 -0.103671 0)
(6.55977 1.27234 0)
(6.69922 -0.540919 0)
(6.59758 -1.69277 0)
(6.29203 -2.57535 0)
(6.07786 -3.19128 0)
(5.70776 -3.1925 0)
(5.09153 -2.43552 0)
(4.32456 -0.60636 0)
(3.03039 1.51094 0)
(2.23878 3.90045 0)
(1.29536 5.23429 0)
(-0.189569 5.0928 0)
(0.720264 5.93501 0)
(1.08405 4.63636 0)
(1.82658 2.55265 0)
(2.23191 0.0975767 0)
(2.32645 -2.40922 0)
(2.11617 -3.94211 0)
(1.97632 -4.84919 0)
(1.93447 -5.33693 0)
(1.98391 -4.90469 0)
(2.12773 -3.90408 0)
(2.26332 -2.48981 0)
(2.48867 -0.837739 0)
(2.7217 0.800772 0)
(3.33676 2.38573 0)
(4.49946 3.19128 0)
(5.49089 2.93762 0)
(6.4885 2.41299 0)
(7.16358 1.50965 0)
(7.48725 0.636287 0)
(7.65995 -0.20413 0)
(5.51176 0.937795 0)
(5.83194 -0.215639 0)
(5.44975 -1.07627 0)
(4.90196 -1.81588 0)
(3.98708 -2.27964 0)
(3.26137 -2.02191 0)
(2.56059 -1.16016 0)
(2.08213 0.475869 0)
(1.97801 2.53198 0)
(2.26844 4.29663 0)
(3.07848 5.59497 0)
(4.27056 6.43229 0)
(5.24738 6.05234 0)
(6.07674 4.82983 0)
(6.84905 2.76825 0)
(7.10231 0.391721 0)
(6.77278 -1.53793 0)
(5.99824 -2.90782 0)
(4.98648 -3.85222 0)
(3.95469 -4.35887 0)
(3.24022 -4.04299 0)
(2.51012 -3.19158 0)
(2.03044 -2.19885 0)
(1.91368 -1.0229 0)
(2.19191 0.316973 0)
(2.88481 1.37661 0)
(3.90997 1.82215 0)
(4.96214 2.57516 0)
(5.73432 1.58178 0)
(6.30182 0.984464 0)
(6.479 0.541389 0)
(6.49318 -0.260608 0)
(4.76678 0.629218 0)
(4.91416 -0.048655 0)
(4.66446 -0.690924 0)
(4.13289 -1.04517 0)
(3.54072 -1.24587 0)
(2.75848 -0.931881 0)
(2.21057 -0.373044 0)
(1.72167 0.588058 0)
(1.66199 1.97671 0)
(2.5866 3.00505 0)
(3.65449 3.88236 0)
(4.79527 4.00575 0)
(5.93435 3.42357 0)
(6.99564 2.61185 0)
(7.70335 1.31254 0)
(7.92881 -0.184307 0)
(7.61915 -1.4573 0)
(6.89592 -2.43925 0)
(6.0068 -3.05262 0)
(5.03217 -3.32042 0)
(4.02799 -3.33701 0)
(3.21644 -2.86693 0)
(2.75435 -1.97304 0)
(2.64898 -0.903998 0)
(2.84934 -0.048026 0)
(3.32057 0.71227 0)
(3.95713 1.18804 0)
(4.66666 1.3868 0)
(5.29489 1.19168 0)
(5.63825 0.777312 0)
(5.77687 0.281502 0)
(5.80165 -0.212582 0)
(4.32907 0.429653 0)
(4.40417 0.0352096 0)
(4.28278 -0.350924 0)
(3.88946 -0.548855 0)
(3.49615 -0.631873 0)
(2.93798 -0.405624 0)
(2.59461 -0.0323884 0)
(2.31523 0.744814 0)
(2.48643 1.51952 0)
(2.93957 2.31949 0)
(3.7768 2.78997 0)
(4.84156 3.04364 0)
(5.59478 2.8809 0)
(7.29521 2.41772 0)
(7.56124 1.51662 0)
(7.74564 0.377059 0)
(7.65387 -0.610221 0)
(7.22904 -1.39399 0)
(6.57635 -1.94366 0)
(5.81 -2.22137 0)
(5.01438 -2.19009 0)
(4.30402 -1.92729 0)
(3.7953 -1.46389 0)
(3.54127 -1.00872 0)
(3.52096 -0.165981 0)
(3.70354 0.291477 0)
(3.99791 0.498079 0)
(4.5713 0.799332 0)
(5.07512 0.738372 0)
(5.31885 0.464171 0)
(5.46555 0.157371 0)
(5.49777 -0.166994 0)
(4.02894 0.315398 0)
(4.09402 0.0787696 0)