/*--------------------------------*- C++ -*----------------------------------*\
| =========                 |                                                 |
| \\      /  F ield         | OpenFOAM: The Open Source CFD Toolbox           |
|  \\    /   O peration     | Version:  2206                                  |
|   \\  /    A nd           | Website:  www.openfoam.com                      |
|    \\/     M anipulation  |                                                 |
\*---------------------------------------------------------------------------*/
FoamFile
{
    version     2.0;
    format      ascii;
    arch        "LSB;label=32;scalar=64";
    class       volVectorField;
    location    "20.0001";
    object      ddt0(U);
}
// * * * * * * * * * * * * * * * * * * * * * * * * * * * * * * * * * * * * * //

dimensions      [0 1 -2 0 0 0 0];

internalField   nonuniform List<vector> 
3063
(
(-25.2118 -2.44453 0)
(-17.9079 -3.57228 0)
(-8.48824 -4.18336 0)
(1.49409 -3.98867 0)
(10.7413 -3.74733 0)
(17.6204 -2.97519 0)
(21.12 -0.676189 0)
(20.8014 0.69719 0)
(17.5949 2.2779 0)
(11.4586 3.23151 0)
(4.96366 3.3603 0)
(-2.53397 2.99185 0)
(-9.84969 1.64566 0)
(-14.2868 0.715335 0)
(-18.4932 0.433353 0)
(-21.4906 0.278469 0)
(-22.9865 -0.175913 0)
(-22.8571 -0.59184 0)
(-22.7051 -0.583031 0)
(-22.6584 -0.396131 0)
(-21.8955 0.0193364 0)
(-23.2483 0.078258 0)
(-15.8805 -9.27505 0)
(-10.7232 -12.8475 0)
(-4.19966 -14.619 0)
(3.18639 -13.7769 0)
(9.02232 -11.1826 0)
(12.2967 -7.45512 0)
(15.009 -1.99583 0)
(15.6661 4.84892 0)
(13.8287 8.95308 0)
(10.4482 11.2071 0)
(5.81154 12.2557 0)
(0.737076 12.2495 0)
(-3.55727 10.0564 0)
(-7.55292 6.90198 0)
(-11.0759 4.26703 0)
(-13.3647 2.53255 0)
(-14.5896 1.22329 0)
(-15.7966 0.210981 0)
(-16.8882 -0.229998 0)
(-17.9021 -0.161538 0)
(-19.4128 0.348117 0)
(-21.6033 1.23853 0)
(3.63843 -11.0585 0)
(6.12213 -14.7952 0)
(6.93269 -17.2137 0)
(6.43271 -17.4735 0)
(5.6304 -15.0203 0)
(4.85592 -10.3438 0)
(3.98591 -4.64296 0)
(3.23967 1.28788 0)
(2.92362 6.75672 0)
(2.93977 10.7729 0)
(2.14071 13.1522 0)
(1.27541 14.1409 0)
(0.993102 12.571 0)
(0.208474 9.94052 0)
(-0.874115 7.12726 0)
(-2.19667 4.79157 0)
(-3.71531 3.0998 0)
(-5.25454 1.98616 0)
(-6.8368 1.54056 0)
(-8.53513 1.77194 0)
(-10.4258 2.66509 0)
(-12.5552 4.2989 0)
(-2.14418 -13.5057 0)
(-1.18358 -16.7362 0)
(-1.19822 -17.4965 0)
(-1.91784 -16.2155 0)
(-2.92062 -13.1998 0)
(-3.83599 -8.535 0)
(-4.26412 -3.10361 0)
(-4.1383 2.52544 0)
(-3.52079 7.58847 0)
(-2.4433 11.209 0)
(-1.30392 13.0175 0)
(0.731707 13.8296 0)
(1.97731 10.9508 0)
(2.74351 8.92379 0)
(2.60075 6.9848 0)
(2.10392 5.52934 0)
(1.03978 4.29776 0)
(-0.26742 3.45293 0)
(-1.63208 3.17359 0)
(-3.11154 3.49755 0)
(-4.6546 4.47721 0)
(-6.14952 6.25097 0)
(3.88599 -12.4 0)
(1.38008 -14.3449 0)
(-1.61999 -15.5083 0)
(-4.86628 -14.0504 0)
(-7.72615 -11.3695 0)
(-9.78603 -7.78229 0)
(-10.8309 -3.31122 0)
(-10.9495 1.42136 0)
(-9.68571 5.41029 0)
(-7.41066 8.58308 0)
(-4.48626 10.0975 0)
(-1.90291 10.2268 0)
(0.289648 10.2715 0)
(1.57138 8.68181 0)
(1.93745 6.85413 0)
(1.83989 6.3585 0)
(1.52897 5.52166 0)
(0.93566 4.37005 0)
(0.193281 4.22282 0)
(-0.719649 4.71217 0)
(-1.43451 5.63877 0)
(-2.18065 7.21311 0)
(5.09873 -10.3163 0)
(1.74352 -11.9566 0)
(-1.70612 -11.5835 0)
(-4.23518 -10.9709 0)
(-7.06705 -8.84102 0)
(-9.02903 -5.68706 0)
(-9.93259 -2.10601 0)
(-9.69301 1.39213 0)
(-8.39043 4.29664 0)
(-6.47339 6.3745 0)
(-4.33912 7.85512 0)
(-2.30872 8.68469 0)
(-0.79154 8.3167 0)
(0.657495 7.69238 0)
(1.38247 6.69161 0)
(1.52695 5.87917 0)
(1.91205 5.08953 0)
(1.51403 4.77699 0)
(1.2872 4.83467 0)
(0.821847 5.22637 0)
(0.682107 6.02333 0)
(0.359026 7.28387 0)
(4.72513 -7.23791 0)
(2.35282 -8.23339 0)
(-0.477371 -8.64495 0)
(-3.05557 -8.14808 0)
(-5.23071 -6.49926 0)
(-6.83661 -4.40242 0)
(-7.54346 -2.11926 0)
(-7.40162 0.342712 0)
(-6.86063 2.65942 0)
(-6.11226 4.58702 0)
(-5.00967 5.93651 0)
(-2.58798 6.74056 0)
(-1.25684 6.77773 0)
(-0.0503122 6.50943 0)
(0.900811 6.01998 0)
(1.36437 5.55997 0)
(1.79944 5.27623 0)
(1.81536 5.04159 0)
(1.76813 5.03512 0)
(1.81394 5.42661 0)
(1.75267 6.11059 0)
(1.84816 7.17354 0)
(4.37108 -5.46894 0)
(2.34005 -6.31478 0)
(0.118403 -6.5082 0)
(-1.98928 -6.20016 0)
(-3.54164 -5.08234 0)
(-4.83829 -3.35359 0)
(-5.7996 -1.47934 0)
(-6.06763 0.410241 0)
(-5.67178 2.28689 0)
(-4.7224 3.89692 0)
(-3.47383 4.93277 0)
(-2.32139 5.36947 0)
(-1.15587 5.60938 0)
(-0.085036 5.58272 0)
(0.784775 5.35364 0)
(1.34997 5.06896 0)
(1.78631 4.8695 0)
(2.05112 4.76885 0)
(2.25339 4.83595 0)
(2.51284 5.20419 0)
(2.83621 5.78582 0)
(3.30685 6.54352 0)
(3.23866 -3.69893 0)
(1.77771 -4.2987 0)
(0.178347 -4.45533 0)
(-1.4067 -4.34025 0)
(-2.6972 -3.66156 0)
(-3.6647 -2.42352 0)
(-4.27546 -1.06411 0)
(-4.40337 0.346977 0)
(-4.15096 1.69276 0)
(-3.57915 2.81337 0)
(-2.74583 3.63863 0)
(-1.76937 4.23502 0)
(-0.855359 4.55355 0)
(-0.0170653 4.66226 0)
(0.710373 4.62763 0)
(1.26606 4.53183 0)
(1.73864 4.48583 0)
(2.10569 4.489 0)
(2.45426 4.61069 0)
(2.83164 4.89601 0)
(3.29004 5.32691 0)
(3.92539 5.90796 0)
(2.48725 -2.62538 0)
(1.44402 -3.13018 0)
(0.310509 -3.29573 0)
(-0.818755 -3.23261 0)
(-1.79297 -2.75845 0)
(-2.52878 -1.8217 0)
(-3.02757 -0.766183 0)
(-3.18438 0.306873 0)
(-3.0457 1.33294 0)
(-2.65611 2.24254 0)
(-2.04778 3.00186 0)
(-1.36101 3.52206 0)
(-0.660233 3.84297 0)
(0.0222761 4.01526 0)
(0.648092 4.0714 0)
(1.18796 4.0616 0)
(1.68095 4.0653 0)
(2.11782 4.08238 0)
(2.579 4.18626 0)
(3.07711 4.37778 0)
(3.67727 4.67542 0)
(4.43476 5.06411 0)
(1.8865 -1.83145 0)
(1.16209 -2.20539 0)
(0.361391 -2.32412 0)
(-0.456225 -2.27249 0)
(-1.19958 -1.94784 0)
(-1.77181 -1.28028 0)
(-2.13412 -0.462356 0)
(-2.27137 0.3503 0)
(-2.18618 1.13778 0)
(-1.91012 1.86018 0)
(-1.49013 2.45392 0)
(-0.973768 2.89819 0)
(-0.415717 3.19985 0)
(0.152948 3.38872 0)
(0.700396 3.48403 0)
(1.21559 3.52366 0)
(1.71392 3.55005 0)
(2.19567 3.57621 0)
(2.7157 3.65313 0)
(3.28525 3.77755 0)
(3.95032 3.95858 0)
(4.75233 4.18851 0)
(1.44712 -1.28351 0)
(0.93823 -1.57551 0)
(0.370301 -1.67438 0)
(-0.212332 -1.63163 0)
(-0.758148 -1.39561 0)
(-1.19586 -0.916504 0)
(-1.46606 -0.287653 0)
(-1.56665 0.359969 0)
(-1.51162 0.981036 0)
(-1.31893 1.55006 0)
(-1.00885 2.03737 0)
(-0.607681 2.42741 0)
(-0.161822 2.70637 0)
(0.310074 2.89396 0)
(0.782925 3.00061 0)
(1.2567 3.05493 0)
(1.73253 3.07748 0)
(2.21996 3.08551 0)
(2.75647 3.11101 0)
(3.35543 3.15092 0)
(4.05213 3.21372 0)
(4.87662 3.29547 0)
(1.12656 -0.922016 0)
(0.780073 -1.13854 0)
(0.386786 -1.20655 0)
(-0.0200264 -1.1568 0)
(-0.408374 -0.964719 0)
(-0.734172 -0.604985 0)
(-0.945315 -0.127454 0)
(-1.02423 0.38522 0)
(-0.984807 0.883436 0)
(-0.842039 1.34455 0)
(-0.608889 1.74554 0)
(-0.30322 2.06763 0)
(0.0517526 2.30316 0)
(0.441814 2.46314 0)
(0.851033 2.5541 0)
(1.28231 2.59493 0)
(1.72944 2.59096 0)
(2.21569 2.56675 0)
(2.75229 2.52539 0)
(3.36455 2.47839 0)
(4.07805 2.43071 0)
(4.91353 2.38052 0)
(0.89483 -0.675613 0)
(0.669452 -0.83561 0)
(0.40666 -0.883801 0)
(0.129781 -0.83302 0)
(-0.138322 -0.669264 0)
(-0.368758 -0.384821 0)
(-0.523779 -0.0101595 0)
(-0.585571 0.399332 0)
(-0.559753 0.802174 0)
(-0.455109 1.17693 0)
(-0.280881 1.50175 0)
(-0.0418412 1.76753 0)
(0.243574 1.96062 0)
(0.570651 2.0897 0)
(0.928018 2.15619 0)
(1.31443 2.16942 0)
(1.73807 2.13659 0)
(2.20746 2.06096 0)
(2.73843 1.95041 0)
(3.35021 1.81244 0)
(4.06275 1.65279 0)
(4.89348 1.4742 0)
(0.723679 -0.533714 0)
(0.588754 -0.648246 0)
(0.425077 -0.671043 0)
(0.246278 -0.61168 0)
(0.0683729 -0.464568 0)
(-0.0888509 -0.22754 0)
(-0.200315 0.079179 0)
(-0.251008 0.416447 0)
(-0.239935 0.749255 0)
(-0.166402 1.05963 0)
(-0.0363306 1.32546 0)
(0.150747 1.53934 0)
(0.384606 1.68975 0)
(0.6626 1.78122 0)
(0.977014 1.81364 0)
(1.33673 1.78848 0)
(1.73415 1.7079 0)
(2.17708 1.57539 0)
(2.67989 1.39316 0)
(3.25624 1.16411 0)
(3.92615 0.896498 0)
(4.70556 0.597978 0)
(0.604976 -0.452315 0)
(0.534962 -0.5341 0)
(0.434882 -0.542115 0)
(0.318584 -0.474253 0)
(0.199596 -0.332041 0)
(0.0916017 -0.120857 0)
(0.0134938 0.141994 0)
(-0.0236261 0.42891 0)
(-0.0167051 0.711943 0)
(0.0368106 0.969147 0)
(0.139376 1.18456 0)
(0.292929 1.3485 0)
(0.495188 1.45597 0)
(0.740849 1.5057 0)
(1.02555 1.49658 0)
(1.34493 1.42872 0)
(1.69785 1.30457 0)
(2.08579 1.1226 0)
(2.52305 0.878606 0)
(3.00257 0.571183 0)
(3.57392 0.205584 0)
(4.23932 -0.2049 0)
(0.502684 -0.427068 0)
(0.471309 -0.478371 0)
(0.420028 -0.464814 0)
(0.356322 -0.384745 0)
(0.287046 -0.241279 0)
(0.220696 -0.0430781 0)
(0.165991 0.19389 0)
(0.131666 0.446932 0)
(0.126276 0.690733 0)
(0.158992 0.902981 0)
(0.239687 1.06833 0)
(0.37538 1.1814 0)
(0.566418 1.24224 0)
(0.805144 1.25207 0)
(1.08541 1.21118 0)
(1.38473 1.11912 0)
(1.70556 0.971867 0)
(2.03474 0.760561 0)
(2.36793 0.475088 0)
(2.71061 0.104683 0)
(3.06331 -0.339107 0)
(3.42944 -0.846754 0)
(0.448686 -0.431134 0)
(0.419567 -0.460084 0)
(0.371999 -0.431635 0)
(0.313483 -0.342414 0)
(0.251148 -0.194905 0)
(0.191999 0.00235259 0)
(0.143964 0.232756 0)
(0.116644 0.470005 0)
(0.121942 0.6845 0)
(0.175782 0.852978 0)
(0.293075 0.963533 0)
(0.487783 1.01819 0)
(0.755435 1.02583 0)
(1.07748 0.994351 0)
(1.42852 0.930086 0)
(1.77804 0.835458 0)
(2.0934 0.705739 0)
(2.33445 0.526463 0)
(2.48603 0.275399 0)
(2.4974 -0.0645525 0)
(2.30949 -0.429261 0)
(1.91025 -0.880217 0)
(0.307077 -0.37431 0)
(0.189801 -0.393499 0)
(0.0628653 -0.36669 0)
(-0.0566072 -0.289286 0)
(-0.156314 -0.161325 0)
(-0.219119 0.0108171 0)
(-0.232795 0.213539 0)
(-0.189243 0.424313 0)
(-0.0876625 0.605471 0)
(0.13563 0.721306 0)
(0.486875 0.756073 0)
(0.953445 0.720087 0)
(1.49876 0.635333 0)
(2.0686 0.52537 0)
(2.61077 0.416503 0)
(3.07618 0.316654 0)
(3.40562 0.250324 0)
(3.53208 0.233073 0)
(3.36372 0.288996 0)
(2.93669 0.332947 0)
(2.04716 0.601077 0)
(0.965965 0.49614 0)
(-0.26374 -0.22469 0)
(-0.576993 -0.203952 0)
(-0.876029 -0.15172 0)
(-1.11937 -0.067905 0)
(-1.26473 0.0432071 0)
(-1.27192 0.16969 0)
(-1.11822 0.294789 0)
(-0.77126 0.388697 0)
(-0.275077 0.393343 0)
(0.228474 0.282836 0)
(0.686558 0.111154 0)
(1.08398 -0.016509 0)
(1.40268 -0.0555771 0)
(1.64941 -0.0225741 0)
(1.85916 0.0665895 0)
(2.0754 0.229862 0)
(2.34978 0.448315 0)
(2.73972 0.688845 0)
(3.22927 0.857188 0)
(4.58892 0.695887 0)
(5.21522 0.537758 0)
(5.53368 -0.0497747 0)
(-25.0977 2.02543 0)
(-34.9946 3.73675 0)
(-48.9079 8.85187 0)
(-66.1557 22.2131 0)
(-75.6028 42.7134 0)
(-74.4938 68.8442 0)
(-60.5438 94.9445 0)
(-23.0224 100.315 0)
(17.3242 87.9003 0)
(48.8011 65.3727 0)
(68.4426 41.9656 0)
(82.3304 20.8367 0)
(90.7054 -1.62796 0)
(94.7937 -21.7206 0)
(95.5449 -38.3965 0)
(94.401 -52.83 0)
(92.7897 -64.7627 0)
(88.9906 -75.3476 0)
(79.44 -88.8485 0)
(69.67 -104.674 0)
(81.1712 -108.212 0)
(129.327 -85.0796 0)
(183.587 -54.3771 0)
(170.235 -57.8446 0)
(112.192 -110.884 0)
(33.0581 -169.295 0)
(-22.8274 -197.759 0)
(-55.1064 -191.019 0)
(-60.25 -171.587 0)
(-57.4134 -150.536 0)
(-53.8707 -126.895 0)
(-55.2351 -100.297 0)
(-66.9021 -64.7196 0)
(-91.6007 -11.4034 0)
(-126.99 60.0713 0)
(-169.657 147.163 0)
(-208.802 238.529 0)
(-231.972 310.179 0)
(-221.671 334.848 0)
(-184.523 317.63 0)
(-134.874 276.366 0)
(-83.7025 223.88 0)
(-37.9185 169.794 0)
(-0.48388 120.667 0)
(29.6473 79.3611 0)
(54.2621 43.7031 0)
(68.3983 15.3697 0)
(76.0182 -2.2644 0)
(78.4465 -13.1314 0)
(77.9039 -19.5524 0)
(76.8276 -23.2218 0)
(75.9802 -25.2657 0)
(75.481 -26.3587 0)
(75.2796 -27.0565 0)
(75.7417 -27.2721 0)
(77.8224 -26.0463 0)
(82.5612 -22.2712 0)
(89.8153 -16.2192 0)
(97.1747 -11.2536 0)
(100.409 -12.6428 0)
(96.3006 -23.7252 0)
(84.9762 -45.3487 0)
(65.7164 -73.7621 0)
(43.0261 -103.673 0)
(19.5528 -128.088 0)
(-0.646434 -143.458 0)
(-18.5018 -148.893 0)
(-31.3074 -144.935 0)
(-40.6081 -135.619 0)
(-47.0071 -122.795 0)
(-50.7389 -108.277 0)
(-52.2628 -93.484 0)
(-52.1212 -79.3111 0)
(-50.9521 -66.1791 0)
(-49.359 -53.9564 0)
(-47.8854 -42.0453 0)
(-47.3681 -29.361 0)
(-48.8694 -14.1472 0)
(-50.78 4.96945 0)
(-53.7969 27.7616 0)
(-56.9231 53.7065 0)
(-59.5478 81.3908 0)
(-61.292 108.961 0)
(-61.682 134.215 0)
(-60.2258 154.498 0)
(-55.9951 166.377 0)
(-48.3531 166.668 0)
(-38.9705 159.235 0)
(-28.3412 145.474 0)
(-16.9978 127.138 0)
(-5.54817 106.136 0)
(5.36098 84.1885 0)
(15.2562 62.4684 0)
(25.5575 41.4378 0)
(36.5813 20.1156 0)
(45.8815 1.54914 0)
(54.3096 -11.96 0)
(61.1325 -20.4476 0)
(66.4414 -24.256 0)
(70.2005 -24.6108 0)
(72.088 -23.2796 0)
(71.8884 -22.3263 0)
(69.9039 -23.7194 0)
(66.1088 -28.5438 0)
(60.5188 -36.9795 0)
(-25.3207 2.28772 0)
(-30.7608 6.44312 0)
(-36.7761 15.006 0)
(-40.6963 28.2474 0)
(-40.3766 44.5346 0)
(-33.8086 62.3255 0)
(-13.5635 72.4592 0)
(13.6451 70.3436 0)
(38.1794 61.0236 0)
(57.0731 46.6694 0)
(70.7864 29.3211 0)
(79.3938 10.8323 0)
(83.8307 -6.41348 0)
(85.1178 -21.7626 0)
(83.4201 -35.6949 0)
(79.5085 -48.6138 0)
(74.3293 -60.8019 0)
(68.9869 -71.9189 0)
(63.4221 -81.6465 0)
(54.9627 -91.5188 0)
(42.2694 -103.48 0)
(34.6256 -113.781 0)
(50.8117 -110.546 0)
(92.5094 -91.3078 0)
(121.248 -73.0941 0)
(99.224 -84.1188 0)
(43.9767 -125.156 0)
(-20.4675 -153.786 0)
(-49.8743 -160.105 0)
(-81.5822 -147.07 0)
(-96.6031 -120.086 0)
(-114.222 -86.3589 0)
(-139.512 -40.0386 0)
(-170.595 22.2632 0)
(-207.487 99.4233 0)
(-242.781 185.179 0)
(-264.204 262.059 0)
(-253.87 302.711 0)
(-212.117 297.898 0)
(-154.133 264.97 0)
(-94.3406 220.598 0)
(-41.1112 173.515 0)
(1.37447 128.69 0)
(34.7524 89.0863 0)
(60.1556 54.4185 0)
(75.0922 26.8226 0)
(82.0612 8.32601 0)
(83.3965 -4.02305 0)
(82.0683 -12.2665 0)
(79.8918 -17.8209 0)
(77.9234 -21.7309 0)
(76.5901 -24.3608 0)
(75.9262 -25.9496 0)
(75.8629 -27.0412 0)
(76.1867 -28.0008 0)
(77.1876 -28.4923 0)
(79.8684 -27.3583 0)
(85.2066 -23.5308 0)
(92.7005 -17.838 0)
(99.3108 -14.3131 0)
(99.6049 -18.073 0)
(92.2495 -31.4091 0)
(77.3917 -53.7442 0)
(55.5787 -80.275 0)
(29.7764 -105.528 0)
(9.2905 -123.161 0)
(-11.4827 -132.237 0)
(-27.1943 -133.144 0)
(-37.997 -126.967 0)
(-45.8586 -116.921 0)
(-51.2122 -104.832 0)
(-54.3725 -91.9839 0)
(-55.8718 -79.1842 0)
(-56.3476 -66.7783 0)
(-56.4063 -54.6238 0)
(-56.6349 -42.15 0)
(-57.8199 -28.3446 0)
(-60.3344 -11.871 0)
(-63.0356 7.91538 0)
(-66.4267 30.884 0)
(-69.5335 56.4756 0)
(-71.7758 83.2779 0)
(-72.6946 109.473 0)
(-71.7837 132.842 0)
(-68.4384 150.583 0)
(-61.4757 158.926 0)
(-51.2962 157.05 0)
(-39.5499 148.109 0)
(-26.7936 133.482 0)
(-13.62 114.922 0)
(-0.777914 94.2726 0)
(11.0562 73.0137 0)
(22.2977 51.9331 0)
(34.7143 30.5345 0)
(45.218 9.46459 0)
(54.7492 -7.22833 0)
(62.5275 -19.2409 0)
(68.6144 -26.2247 0)
(73.2151 -28.4598 0)
(76.258 -27.057 0)
(77.2441 -23.7564 0)
(76.5914 -21.0103 0)
(74.1339 -20.6275 0)
(69.9024 -23.6177 0)
(64.0221 -30.292 0)
(-15.2578 7.08816 0)
(-18.1283 11.8948 0)
(-20.2094 18.9213 0)
(-19.6306 28.4021 0)
(-16.9574 38.7615 0)
(-3.79568 45.9194 0)
(12.7847 49.5508 0)
(28.0806 49.6768 0)
(41.7878 44.2924 0)
(55.2001 33.4093 0)
(64.969 19.4621 0)
(70.9002 5.3861 0)
(73.698 -8.07673 0)
(73.7343 -20.9919 0)
(71.5453 -33.086 0)
(67.691 -44.2444 0)
(62.3359 -54.6723 0)
(55.6294 -64.827 0)
(47.8015 -74.8185 0)
(39.3253 -84.0957 0)
(29.6285 -91.6833 0)
(17.5736 -99.8811 0)
(4.91228 -110.777 0)
(-0.153004 -112.576 0)
(7.81469 -102.61 0)
(24.7125 -91.7403 0)
(26.401 -85.9692 0)
(-1.86506 -95.5325 0)
(-50.3753 -108.041 0)
(-97.8115 -106.691 0)
(-139.239 -89.5443 0)
(-177.197 -56.0476 0)
(-213.97 -6.34731 0)
(-249.091 58.1003 0)
(-278.246 132.174 0)
(-291.449 202.952 0)
(-272.119 248.673 0)
(-223.779 256.337 0)
(-160.283 233.048 0)
(-95.0051 198.392 0)
(-37.4066 164.012 0)
(4.57175 129.318 0)
(39.4765 94.9993 0)
(64.2858 63.4327 0)
(78.4408 38.5097 0)
(84.5144 20.4475 0)
(85.513 7.36737 0)
(83.8722 -2.35905 0)
(81.223 -9.67125 0)
(78.6076 -15.3648 0)
(76.5745 -19.9177 0)
(75.1851 -23.3168 0)
(74.6775 -25.6796 0)
(74.955 -27.3185 0)
(75.6373 -28.6018 0)
(76.4585 -29.722 0)
(77.7563 -30.229 0)
(80.6252 -28.9596 0)
(85.9984 -25.0547 0)
(93.0983 -19.7389 0)
(98.4892 -17.3591 0)
(95.9156 -22.4612 0)
(85.8959 -36.499 0)
(68.4686 -57.9669 0)
(44.7334 -81.3835 0)
(16.9855 -100.98 0)
(-0.554749 -112.964 0)
(-21.7418 -118.598 0)
(-34.9749 -116.823 0)
(-44.312 -109.489 0)
(-51.3764 -99.7764 0)
(-56.2436 -88.8599 0)
(-59.4683 -77.3836 0)
(-61.6861 -65.6596 0)
(-63.4777 -53.5696 0)
(-65.3946 -40.6183 0)
(-68.0867 -25.9817 0)
(-71.3859 -8.76252 0)
(-74.7235 11.2939 0)
(-78.2995 34.12 0)
(-81.2358 58.9905 0)
(-82.9701 84.502 0)
(-82.9631 108.861 0)
(-80.6238 129.804 0)
(-75.159 144.474 0)
(-65.2945 148.8 0)
(-52.9047 145.074 0)
(-38.9531 134.812 0)
(-24.1968 119.614 0)
(-9.42485 101.197 0)
(4.4738 81.1895 0)
(17.3068 60.7906 0)
(30.8335 40.0943 0)
(43.3468 18.2543 0)
(54.1034 -0.644112 0)
(63.0305 -15.4659 0)
(69.8605 -25.7868 0)
(74.9966 -31.1698 0)
(78.6626 -31.8251 0)
(80.6575 -28.6525 0)
(81.0726 -23.6546 0)
(79.9767 -19.2038 0)
(77.1462 -17.1047 0)
(72.6019 -18.4222 0)
(66.4451 -23.4143 0)
(-7.46296 8.98829 0)
(-7.94157 12.7931 0)
(-7.20993 17.7951 0)
(-4.6655 24.3247 0)
(1.3483 30.4164 0)
(11.3463 34.5386 0)
(16.1056 37.6618 0)
(28.5938 38.3455 0)
(41.0133 33.6913 0)
(51.0054 24.3193 0)
(58.1011 13.2661 0)
(62.3131 2.11433 0)
(63.9249 -8.93511 0)
(63.3581 -19.6838 0)
(60.9853 -29.9272 0)
(57.0898 -39.643 0)
(51.929 -48.9184 0)
(45.562 -57.7346 0)
(37.8737 -66.0705 0)
(28.7217 -74.066 0)
(18.2979 -81.6027 0)
(6.83183 -88.171 0)
(-6.89415 -93.8373 0)
(-23.1168 -99.72 0)
(-38.4869 -104.095 0)
(-47.8982 -98.0496 0)
(-53.4258 -87.3568 0)
(-61.3392 -77.2445 0)
(-82.3964 -69.8427 0)
(-115.485 -58.9489 0)
(-155.785 -41.5494 0)
(-196.563 -12.7483 0)
(-231.634 29.3319 0)
(-255.36 82.056 0)
(-262.145 136.415 0)
(-243.696 175.445 0)
(-200.232 190.01 0)
(-133.061 191.614 0)
(-68.7398 173.191 0)
(-26.5529 146.861 0)
(2.41698 122.274 0)
(44.9238 95.6043 0)
(63.7034 69.8181 0)
(76.1995 49.1731 0)
(81.9598 32.9051 0)
(83.0851 19.7928 0)
(81.8775 9.02077 0)
(79.6259 0.219193 0)
(77.1738 -7.02052 0)
(75.1001 -13.1684 0)
(73.5099 -18.3625 0)
(72.4965 -22.5164 0)
(72.3122 -25.7133 0)
(72.8694 -28.0031 0)
(73.9233 -29.5306 0)
(75.0508 -30.6233 0)
(75.955 -31.4971 0)
(77.0412 -31.7243 0)
(79.5213 -30.2042 0)
(84.3274 -26.2398 0)
(90.5434 -21.3421 0)
(94.1619 -19.7796 0)
(89.8024 -25.3214 0)
(77.9833 -38.2189 0)
(59.3424 -57.0204 0)
(31.81 -76.9758 0)
(8.92153 -91.5173 0)
(-10.3215 -100.361 0)
(-31.8479 -103.966 0)
(-42.6203 -100.413 0)
(-51.4596 -92.9272 0)
(-58.1695 -83.8668 0)
(-63.1574 -73.7619 0)
(-67.1617 -62.7584 0)
(-70.6686 -50.8185 0)
(-74.1521 -37.6067 0)
(-78.039 -22.5367 0)
(-81.8576 -5.05057 0)
(-85.662 14.9431 0)
(-89.2422 37.3002 0)
(-91.8941 61.1128 0)
(-93.0113 84.9505 0)
(-91.9468 107.006 0)
(-87.9894 124.938 0)
(-79.8485 135.385 0)
(-67.5732 136.628 0)
(-52.9984 130.854 0)
(-36.8588 119.442 0)
(-20.2258 104.07 0)
(-4.21586 86.21 0)
(10.5035 67.0715 0)
(25.1369 47.4025 0)
(39.8665 26.2882 0)
(52.1554 6.38398 0)
(62.5724 -10.07 0)
(70.4337 -22.8329 0)
(76.0648 -31.2555 0)
(79.9135 -35.0078 0)
(82.2326 -34.1212 0)
(83.0452 -29.4412 0)
(82.9797 -23.0709 0)
(81.5978 -17.0699 0)
(78.626 -13.3164 0)
(73.9892 -13.0181 0)
(67.7628 -16.4688 0)
(-2.14159 9.38967 0)
(-1.84928 12.3501 0)
(-0.663106 16.0876 0)
(0.449293 20.05 0)
(7.81512 23.5483 0)
(12.7016 27.6099 0)
(18.6789 30.2536 0)
(29.8591 28.4042 0)
(38.6266 23.0899 0)
(45.4228 16.2185 0)
(50.5745 8.33141 0)
(53.4953 -0.29418 0)
(54.3998 -9.23994 0)
(53.6514 -18.1667 0)
(51.4202 -26.8741 0)
(47.8374 -35.2543 0)
(43.006 -43.2561 0)
(36.9615 -50.8566 0)
(29.6999 -58.0163 0)
(21.1641 -64.6259 0)
(11.2369 -70.5096 0)
(-0.150432 -75.6293 0)
(-13.0521 -79.8513 0)
(-27.7902 -82.46 0)
(-45.0158 -83.7304 0)
(-63.0748 -82.397 0)
(-79.0688 -76.6891 0)
(-92.8955 -66.0358 0)
(-108.36 -52.2674 0)
(-126.153 -34.4712 0)
(-145.963 -12.2909 0)
(-165.616 15.373 0)
(-180.697 49.2473 0)
(-186.06 87.3937 0)
(-174.685 121.68 0)
(-144.102 140.449 0)
(-105.291 142.029 0)
(-64.0773 134.702 0)
(-15.0678 128.181 0)
(3.91655 113.563 0)
(42.1933 95.644 0)
(57.2019 75.2301 0)
(67.2107 59.1774 0)
(73.3323 44.8981 0)
(75.7664 31.9801 0)
(76.007 20.6427 0)
(75.0623 10.7834 0)
(73.553 2.25829 0)
(72.0098 -5.15479 0)
(70.7804 -11.7261 0)
(69.7136 -17.4079 0)
(69.2128 -22.1762 0)
(69.3084 -26.0323 0)
(69.9644 -28.9163 0)
(71.1156 -30.7846 0)
(72.5031 -31.7679 0)
(73.6414 -32.2248 0)
(74.1712 -32.4848 0)
(74.5177 -32.2871 0)
(75.9695 -30.5595 0)
(79.5754 -26.6502 0)
(84.5142 -22.2319 0)
(86.3431 -21.1241 0)
(80.7717 -26.008 0)
(68.3215 -36.3897 0)
(49.4954 -51.6648 0)
(20.6467 -68.1444 0)
(2.99628 -78.5929 0)
(-22.6795 -85.9728 0)
(-38.9703 -88.4651 0)
(-50.856 -84.6137 0)
(-60.1615 -77.2628 0)
(-67.1997 -68.3542 0)
(-72.922 -58.1119 0)
(-77.967 -46.5149 0)
(-82.71 -33.3735 0)
(-87.4128 -18.3197 0)
(-91.6281 -0.969391 0)
(-95.7241 18.6991 0)
(-99.2677 40.3079 0)
(-101.643 62.7406 0)
(-102.088 84.4679 0)
(-99.7718 103.704 0)
(-93.6214 117.943 0)
(-82.2911 123.676 0)
(-67.8153 122.232 0)
(-50.8856 114.484 0)
(-32.5592 102.105 0)
(-14.3007 86.9808 0)
(2.32319 69.8861 0)
(18.1862 51.8343 0)
(34.6791 32.4151 0)
(48.7919 12.486 0)
(60.9717 -4.64127 0)
(70.3165 -18.6529 0)
(76.8112 -28.9827 0)
(80.8495 -35.2818 0)
(82.9196 -37.3117 0)
(83.1959 -34.9626 0)
(82.9674 -29.4406 0)
(82.2996 -22.1403 0)
(80.8133 -14.8505 0)
(78.0424 -9.53748 0)
(73.7046 -7.64068 0)
(67.7715 -9.60508 0)
(0.602466 9.06909 0)
(1.13619 11.2612 0)
(2.14414 14.1891 0)
(5.80819 16.7584 0)
(8.56695 19.1095 0)
(13.5682 21.4963 0)
(20.2092 21.9742 0)
(27.062 19.9416 0)
(33.3915 16.4636 0)
(38.7103 11.623 0)
(42.6322 5.35533 0)
(44.9725 -1.77457 0)
(45.7966 -9.22996 0)
(45.2118 -16.7439 0)
(43.2971 -24.1423 0)
(40.1336 -31.2915 0)
(35.7856 -38.102 0)
(30.2734 -44.4968 0)
(23.5742 -50.3919 0)
(15.6399 -55.6979 0)
(6.41366 -60.274 0)
(-4.17326 -63.9525 0)
(-16.1905 -66.572 0)
(-29.6286 -67.833 0)
(-44.3926 -67.251 0)
(-60.5153 -64.0787 0)
(-77.1908 -58.2438 0)
(-93.0552 -49.2728 0)
(-107.654 -36.7177 0)
(-120.767 -20.1085 0)
(-131.641 0.601305 0)
(-138.924 25.0959 0)
(-140.486 52.1264 0)
(-132.639 77.9393 0)
(-113.29 97.4846 0)
(-86.3738 107.958 0)
(-57.5619 108.452 0)
(-30.8793 103.875 0)
(-4.77674 98.9173 0)
(18.9859 90.1191 0)
(36.8168 77.0622 0)
(49.1257 64.5552 0)
(57.8662 52.7224 0)
(63.6663 41.1158 0)
(66.8385 30.2578 0)
(68.1395 20.3794 0)
(68.2819 11.3953 0)
(67.7404 3.24007 0)
(67.0348 -4.14416 0)
(66.4448 -10.8704 0)
(65.8482 -16.8905 0)
(65.6507 -22.158 0)
(65.8779 -26.5253 0)
(66.5073 -29.8718 0)
(67.5232 -32.0893 0)
(68.8375 -33.1423 0)
(70.1099 -33.1473 0)
(70.7653 -32.5512 0)
(70.482 -31.964 0)
(69.6426 -31.2952 0)
(69.6523 -29.6671 0)
(71.4646 -26.2149 0)
(74.5816 -22.2532 0)
(74.2611 -20.7368 0)
(68.1536 -24.0604 0)
(55.7014 -31.7092 0)
(37.6853 -43.6128 0)
(13.3374 -56.4791 0)
(-4.89701 -64.8039 0)
(-31.6781 -70.2338 0)
(-46.8366 -71.3603 0)
(-60.1255 -67.9275 0)
(-70.4605 -61.0439 0)
(-78.5224 -51.9763 0)
(-85.0819 -41.0114 0)
(-90.9542 -28.2764 0)
(-96.3143 -13.5487 0)
(-101.186 3.41854 0)
(-105.733 22.5783 0)
(-109.514 43.2136 0)
(-111.715 63.94 0)
(-111.088 83.0556 0)
(-106.333 98.586 0)
(-95.8732 107.427 0)
(-81.4772 109.628 0)
(-64.1607 105.154 0)
(-44.8274 95.2663 0)
(-24.8972 82.4804 0)
(-6.80132 68.976 0)
(10.6648 53.7878 0)
(28.2595 36.1161 0)
(44.3452 16.5416 0)
(58.5258 -0.524001 0)
(69.5711 -14.8375 0)
(77.265 -25.8912 0)
(81.8574 -33.4068 0)
(83.7156 -37.3127 0)
(83.046 -37.378 0)
(81.3779 -34.2233 0)
(79.6972 -28.4683 0)
(78.2649 -20.8718 0)
(76.7836 -12.8276 0)
(74.5767 -6.2515 0)
(71.0521 -2.80453 0)
(65.9531 -3.20639 0)
(2.79746 8.55483 0)
(3.62439 10.3083 0)
(5.30599 12.0701 0)
(7.71528 13.7557 0)
(10.884 15.2943 0)
(14.8946 16.2723 0)
(19.7029 16.1758 0)
(24.8279 14.6384 0)
(29.5579 11.7013 0)
(33.5099 7.53337 0)
(36.5152 2.40047 0)
(38.3901 -3.34733 0)
(39.0404 -9.42595 0)
(38.4844 -15.6321 0)
(36.7696 -21.7937 0)
(33.9392 -27.7669 0)
(30.0243 -33.4351 0)
(25.03 -38.6913 0)
(18.9382 -43.4316 0)
(11.739 -47.5478 0)
(3.40188 -50.8596 0)
(-6.16277 -53.1906 0)
(-17.0022 -54.4426 0)
(-29.0354 -54.4377 0)
(-42.0333 -52.7988 0)
(-55.6904 -49.1062 0)
(-69.7451 -43.1657 0)
(-83.4857 -34.7652 0)
(-96.1232 -23.7628 0)
(-106.697 -9.94321 0)
(-114.018 6.50324 0)
(-116.913 24.9678 0)
(-113.637 43.991 0)
(-103.106 61.2124 0)
(-87.1249 75.1798 0)
(-67.4913 83.9142 0)
(-46.6742 85.5156 0)
(-26.3811 81.8342 0)
(-6.39192 77.5379 0)
(12.7296 72.2216 0)
(28.4056 63.9895 0)
(40.2325 54.4 0)
(49.2011 44.9641 0)
(55.744 36.0305 0)
(59.9645 27.4993 0)
(62.1322 19.1639 0)
(63.1492 11.1303 0)
(63.2766 3.44359 0)
(62.9741 -3.7887 0)
(62.6589 -10.5232 0)
(62.0924 -16.6385 0)
(61.7492 -22.102 0)
(61.8475 -26.8068 0)
(62.4024 -30.56 0)
(63.3073 -33.1709 0)
(64.4434 -34.4097 0)
(65.5719 -34.1922 0)
(66.3088 -32.8543 0)
(66.2288 -31.1339 0)
(64.5681 -29.4672 0)
(61.9833 -28.2359 0)
(59.6444 -26.7368 0)
(58.7441 -23.9567 0)
(58.6232 -20.4721 0)
(56.5617 -18.8189 0)
(49.951 -20.6845 0)
(37.9569 -25.421 0)
(22.1579 -33.3499 0)
(1.5947 -42.8623 0)
(-18.7243 -49.4666 0)
(-37.02 -53.6903 0)
(-55.7089 -53.7554 0)
(-70.0884 -50.0913 0)
(-81.9226 -43.3913 0)
(-91.5038 -34.0288 0)
(-99.4696 -22.2153 0)
(-106.442 -8.05063 0)
(-112.706 8.47998 0)
(-118.087 27.0459 0)
(-121.796 46.4135 0)
(-122.323 64.4554 0)
(-117.702 78.8704 0)
(-107.278 88.3974 0)
(-92.4732 92.968 0)
(-74.0551 91.7553 0)
(-53.987 85.4449 0)
(-32.6648 75.8923 0)
(-13.9947 63.8664 0)
(0.271125 51.2112 0)
(24.3056 36.098 0)
(40.7303 17.6805 0)
(56.673 1.33665 0)
(69.1947 -12.4346 0)
(77.6909 -23.3325 0)
(82.676 -31.0054 0)
(84.4373 -35.4053 0)
(83.019 -36.4868 0)
(79.9299 -35.0483 0)
(76.2824 -31.5934 0)
(72.8523 -26.2385 0)
(70.2785 -19.1604 0)
(68.6103 -11.1722 0)
(67.144 -3.87714 0)
(64.9446 0.890783 0)
(61.3632 2.05644 0)
(4.02939 7.5476 0)
(5.15586 8.76555 0)
(6.79438 9.98993 0)
(8.97019 11.1062 0)
(11.6955 11.9603 0)
(14.9712 12.3235 0)
(18.7018 11.9081 0)
(22.5851 10.4375 0)
(26.2151 7.91159 0)
(29.2965 4.50339 0)
(31.6337 0.364925 0)
(33.0642 -4.32282 0)
(33.4995 -9.34029 0)
(32.926 -14.4898 0)
(31.3556 -19.6087 0)
(28.8047 -24.5571 0)
(25.2858 -29.2062 0)
(20.7907 -33.4314 0)
(15.2976 -37.1264 0)
(8.83926 -40.2012 0)
(1.4061 -42.4009 0)
(-7.10074 -43.535 0)
(-16.7539 -43.7164 0)
(-27.4396 -42.7811 0)
(-38.8271 -40.4224 0)
(-50.6348 -36.44 0)
(-62.4805 -30.5908 0)
(-73.9658 -22.9148 0)
(-84.4461 -13.3919 0)
(-93.1011 -2.10203 0)
(-98.9493 10.6211 0)
(-101.06 24.1485 0)
(-98.402 37.6727 0)
(-90.363 50.0434 0)
(-78.301 60.2535 0)
(-62.7669 66.6696 0)
(-44.9848 67.3741 0)
(-26.8772 63.135 0)
(-9.44824 59.1174 0)
(8.06117 56.0339 0)
(23.0471 50.2856 0)
(34.9175 43.7735 0)
(44.2904 37.1049 0)
(51.1921 30.4727 0)
(56.0999 23.9563 0)
(58.8932 17.181 0)
(60.2548 10.2837 0)
(60.458 3.33198 0)
(59.9176 -3.51878 0)
(59.3282 -10.0336 0)
(58.5733 -16.1928 0)
(57.7282 -21.9867 0)
(57.2833 -27.1704 0)
(57.335 -31.2691 0)
(57.9565 -34.0373 0)
(59.0771 -35.3544 0)
(60.232 -34.9488 0)
(61.0303 -33.0818 0)
(61.2369 -30.4038 0)
(59.7759 -27.2956 0)
(56.4887 -24.6143 0)
(51.532 -22.5082 0)
(45.8351 -20.5131 0)
(40.4348 -18.1052 0)
(35.3305 -15.6273 0)
(29.2515 -14.3299 0)
(20.9491 -15.4075 0)
(11.1335 -18.9034 0)
(-0.615178 -25.6138 0)
(-17.0946 -30.6776 0)
(-34.5438 -34.081 0)
(-52.0856 -35.4847 0)
(-68.5524 -34.4593 0)
(-83.1171 -30.4263 0)
(-95.6066 -23.2693 0)
(-106.361 -13.0115 0)
(-115.55 0.0805794 0)
(-122.897 15.4204 0)
(-127.492 31.8253 0)
(-127.739 47.2318 0)
(-122.311 59.5267 0)
(-111.587 68.0325 0)
(-96.0716 73.2955 0)
(-77.3914 74.2957 0)
(-57.7518 70.5959 0)
(-36.8066 64.8058 0)
(-16.338 56.5231 0)
(-2.46498 45.605 0)
(20.3305 32.3576 0)
(42.0735 15.2725 0)
(57.1524 1.12975 0)
(69.8055 -11.1601 0)
(78.3865 -21.2675 0)
(82.8292 -28.4556 0)
(83.7478 -32.597 0)
(81.3131 -33.7495 0)
(77.3723 -32.9356 0)
(72.5788 -30.6552 0)
(67.461 -27.1391 0)
(62.5775 -22.4201 0)
(58.5807 -16.5138 0)
(56.0108 -9.6343 0)
(54.7003 -2.62217 0)
(53.7765 2.95227 0)
(52.2003 5.58734 0)
(4.80074 6.62296 0)
(5.99201 7.42453 0)
(7.56824 8.20509 0)
(9.54844 8.84662 0)
(11.9185 9.22093 0)
(14.6399 9.17516 0)
(17.6144 8.53068 0)
(20.6449 7.14011 0)
(23.468 4.98407 0)
(25.8521 2.14266 0)
(27.6315 -1.27553 0)
(28.6826 -5.12572 0)
(28.9238 -9.23934 0)
(28.3196 -13.4618 0)
(26.8643 -17.6573 0)
(24.5615 -21.6919 0)
(21.405 -25.4204 0)
(17.3626 -28.702 0)
(12.4217 -31.4581 0)
(6.68233 -33.6976 0)
(0.0954034 -34.9739 0)
(-7.36985 -35.0205 0)
(-15.8288 -34.0743 0)
(-25.3452 -32.3748 0)
(-35.5101 -29.6207 0)
(-45.8144 -25.3989 0)
(-56.1117 -19.7879 0)
(-65.9928 -12.825 0)
(-74.9606 -4.61812 0)
(-82.423 4.58892 0)
(-87.5124 14.362 0)
(-89.4488 24.0816 0)
(-88.0678 33.2947 0)
(-82.2013 41.2815 0)
(-72.7524 47.5672 0)
(-59.212 51.0138 0)
(-42.2519 50.4056 0)
(-24.593 45.9339 0)
(-9.24754 42.166 0)
(7.1167 40.7907 0)
(21.9245 37.0607 0)
(33.7342 33.0477 0)
(43.2923 28.7865 0)
(50.466 24.4131 0)
(55.4728 19.8723 0)
(58.5267 14.9714 0)
(59.5933 9.65613 0)
(59.0387 3.77401 0)
(57.314 -2.68427 0)
(55.4841 -9.04519 0)
(53.9157 -15.1497 0)
(52.0161 -21.0205 0)
(50.713 -26.6229 0)
(50.3504 -31.4548 0)
(50.9096 -35.0332 0)
(52.1958 -36.7644 0)
(53.6691 -36.1709 0)
(54.9878 -33.6926 0)
(55.3532 -29.6903 0)
(53.965 -24.8001 0)
(50.8498 -20.2664 0)
(45.4701 -16.3762 0)
(37.721 -12.8438 0)
(28.3229 -9.58953 0)
(18.4776 -7.15189 0)
(9.0714 -6.57442 0)
(0.596313 -8.28523 0)
(-6.42724 -10.3325 0)
(-17.9605 -13.6288 0)
(-31.4183 -16.1893 0)
(-44.1732 -18.3414 0)
(-57.729 -19.6147 0)
(-71.0445 -19.2234 0)
(-83.5184 -16.4975 0)
(-94.9302 -10.9381 0)
(-105.035 -2.47618 0)
(-113.257 8.10899 0)
(-117.994 19.6717 0)
(-117.395 31.3159 0)
(-111.752 41.6251 0)
(-101.635 48.8495 0)
(-87.9292 51.996 0)
(-71.2971 52.9604 0)
(-50.1681 54.5815 0)
(-29.7354 51.7146 0)
(-15.123 45.6756 0)
(7.07907 38.6711 0)
(27.2427 26.1312 0)
(44.7927 11.4302 0)
(59.2329 -1.1266 0)
(70.1265 -11.1305 0)
(77.3866 -19.4838 0)
(80.5228 -25.4584 0)
(79.3625 -28.6324 0)
(75.5934 -29.6564 0)
(70.6694 -29.2761 0)
(65.2655 -27.7971 0)
(59.7087 -25.2262 0)
(54.1162 -21.6596 0)
(48.7682 -17.348 0)
(44.0686 -12.4885 0)
(40.5414 -7.17654 0)
(38.603 -1.70484 0)
(37.9474 3.23664 0)
(37.6035 6.51254 0)
(5.3918 5.5218 0)
(6.5954 6.01059 0)
(8.0828 6.45701 0)
(9.8617 6.768 0)