/*--------------------------------*- C++ -*----------------------------------*\
| =========                 |                                                 |
| \\      /  F ield         | OpenFOAM: The Open Source CFD Toolbox           |
|  \\    /   O peration     | Version:  2206                                  |
|   \\  /    A nd           | Website:  www.openfoam.com                      |
|    \\/     M anipulation  |                                                 |
\*---------------------------------------------------------------------------*/
FoamFile
{
    version     2.0;
    format      ascii;
    arch        "LSB;label=32;scalar=64";
    class       surfaceScalarField;
    location    "18.6";
    object      phi;
}
// * * * * * * * * * * * * * * * * * * * * * * * * * * * * * * * * * * * * * //

dimensions      [0 3 -1 0 0 0 0];

oriented        oriented;

internalField   nonuniform List<scalar> 
3600
(
4.43327e-06
-2.29234e-09
1.82258e-09
4.43468e-06
-6.89324e-09
5.47932e-09
4.43698e-06
-1.12855e-08
8.99397e-09
4.44003e-06
-1.53145e-08
1.22599e-08
4.44372e-06
-1.89097e-08
1.52177e-08
4.44794e-06
-2.20778e-08
1.78571e-08
4.45261e-06
-2.48576e-08
2.01934e-08
4.45764e-06
-2.72836e-08
2.22482e-08
4.46299e-06
-2.93888e-08
2.40444e-08
4.46859e-06
-3.12099e-08
2.56076e-08
4.47441e-06
-3.27852e-08
2.69658e-08
4.48041e-06
-3.41505e-08
2.81463e-08
4.48658e-06
-3.53372e-08
2.91738e-08
4.49288e-06
-3.63722e-08
3.00698e-08
4.4993e-06
-3.72772e-08
3.08526e-08
4.50584e-06
-3.80699e-08
3.1537e-08
4.51246e-06
-3.87641e-08
3.21356e-08
4.51918e-06
-3.93717e-08
3.26583e-08
4.52597e-06
-3.99022e-08
3.31136e-08
4.53282e-06
-4.03631e-08
3.35082e-08
4.53973e-06
-4.07602e-08
3.38471e-08
4.5467e-06
-4.10979e-08
3.41345e-08
4.5537e-06
-4.13793e-08
3.43732e-08
4.56075e-06
-4.16068e-08
3.45653e-08
4.56781e-06
-4.17817e-08
3.47124e-08
4.5749e-06
-4.19044e-08
3.48149e-08
4.58201e-06
-4.19749e-08
3.48732e-08
4.58911e-06
-4.1993e-08
3.48872e-08
4.59621e-06
-4.19582e-08
3.48566e-08
4.6033e-06
-4.187e-08
3.47809e-08
4.61037e-06
-4.17272e-08
3.46593e-08
4.61741e-06
-4.1528e-08
3.44909e-08
4.6244e-06
-4.12707e-08
3.42745e-08
4.63135e-06
-4.09549e-08
3.401e-08
4.63823e-06
-4.05806e-08
3.36972e-08
4.64504e-06
-4.01484e-08
3.33367e-08
4.65177e-06
-3.96592e-08
3.29293e-08
4.65841e-06
-3.91146e-08
3.24761e-08
4.66495e-06
-3.85164e-08
3.19786e-08
4.67138e-06
-3.78667e-08
3.14385e-08
4.67769e-06
-3.71681e-08
3.08579e-08
4.68387e-06
-3.64235e-08
3.0239e-08
4.68992e-06
-3.56364e-08
2.95847e-08
4.69584e-06
-3.48103e-08
2.88973e-08
4.70161e-06
-3.39482e-08
2.81796e-08
4.70723e-06
-3.30531e-08
2.74339e-08
4.71269e-06
-3.21282e-08
2.66629e-08
4.718e-06
-3.11769e-08
2.5869e-08
4.72315e-06
-3.02026e-08
2.50548e-08
4.72813e-06
-2.92088e-08
2.42227e-08
4.73296e-06
-2.81987e-08
2.33743e-08
4.73762e-06
-2.71735e-08
2.2511e-08
4.74212e-06
-2.61328e-08
2.1632e-08
4.74646e-06
-2.50752e-08
2.07362e-08
4.75064e-06
-2.39986e-08
1.98217e-08
4.75465e-06
-2.29002e-08
1.88854e-08
4.7585e-06
-2.17758e-08
1.79238e-08
4.76219e-06
-2.06199e-08
1.69314e-08
4.76571e-06
-1.94252e-08
1.59022e-08
4.76907e-06
-1.8183e-08
1.48274e-08
4.77225e-06
-1.68821e-08
1.36984e-08
4.77526e-06
-1.55099e-08
1.25022e-08
4.77808e-06
-1.40498e-08
1.12262e-08
4.78072e-06
-1.24849e-08
9.8528e-09
4.78315e-06
-1.07928e-08
8.36368e-09
4.78536e-06
-8.94928e-09
6.73788e-09
4.78734e-06
-6.92714e-09
4.94864e-09
4.78906e-06
-4.6918e-09
2.97127e-09
4.79049e-06
-2.20333e-09
7.66521e-10
4.79162e-06
5.82192e-10
-1.70488e-09
4.79239e-06
3.71905e-09
-4.4907e-09
4.79277e-06
7.2665e-09
-7.64447e-09
4.7927e-06
1.12962e-08
-1.1231e-08
4.79213e-06
1.58912e-08
-1.5325e-08
4.791e-06
2.11493e-08
-2.00146e-08
4.78922e-06
2.71852e-08
-2.54044e-08
4.7867e-06
3.41349e-08
-3.16188e-08
4.78335e-06
4.21619e-08
-3.88072e-08
4.77903e-06
5.1463e-08
-4.71494e-08
4.77362e-06
6.22736e-08
-5.68628e-08
4.76696e-06
7.48776e-08
-6.82106e-08
4.75885e-06
8.9619e-08
-8.15136e-08
4.7491e-06
1.06919e-07
-9.71653e-08
4.73746e-06
1.27292e-07
-1.1565e-07
4.72365e-06
1.51369e-07
-1.37566e-07
4.70739e-06
1.79923e-07
-1.63658e-07
4.68833e-06
2.13916e-07
-1.94856e-07
4.66611e-06
2.54553e-07
-2.32336e-07
4.64036e-06
3.03348e-07
-2.77594e-07
4.61068e-06
3.62223e-07
-3.32545e-07
4.57671e-06
4.33631e-07
-3.99664e-07
4.53816e-06
5.20732e-07
-4.82179e-07
4.49487e-06
6.27621e-07
-5.84338e-07
4.44703e-06
7.59712e-07
-7.11866e-07
4.39525e-06
9.24206e-07
-8.72433e-07
4.34131e-06
1.13132e-06
-1.07738e-06
4.28784e-06
1.39477e-06
-1.3413e-06
4.24383e-06
1.73778e-06
-1.69378e-06
4.22344e-06
2.18224e-06
-2.16185e-06
4.33444e-06
2.78925e-06
-2.90025e-06
4.80708e-06
3.42383e-06
-3.89647e-06
4.64623e-06
6.8479e-06
-6.68706e-06
4.43335e-06
-2.84135e-09
4.435e-06
-8.54675e-09
4.43765e-06
-1.39334e-08
4.44112e-06
-1.87813e-08
4.44523e-06
-2.30236e-08
4.44986e-06
-2.6702e-08
4.4549e-06
-2.98972e-08
4.46027e-06
-3.26599e-08
4.46592e-06
-3.50358e-08
4.47178e-06
-3.70765e-08
4.47783e-06
-3.8833e-08
4.48403e-06
-4.03509e-08
4.49037e-06
-4.16692e-08
4.49681e-06
-4.28203e-08
4.50337e-06
-4.38294e-08
4.51001e-06
-4.47153e-08
4.51674e-06
-4.54932e-08
4.52354e-06
-4.6176e-08
4.53042e-06
-4.67742e-08
4.53735e-06
-4.72957e-08
4.54434e-06
-4.77466e-08
4.55137e-06
-4.81315e-08
4.55844e-06
-4.84536e-08
4.56555e-06
-4.87152e-08
4.57269e-06
-4.89177e-08
4.57984e-06
-4.90607e-08
4.58701e-06
-4.91437e-08
4.59419e-06
-4.91664e-08
4.60136e-06
-4.91287e-08
4.60852e-06
-4.90298e-08
4.61566e-06
-4.88675e-08
4.62277e-06
-4.86387e-08
4.62984e-06
-4.8341e-08
4.63686e-06
-4.79738e-08
4.64381e-06
-4.75373e-08
4.6507e-06
-4.70322e-08
4.6575e-06
-4.64598e-08
4.6642e-06
-4.5822e-08
4.67081e-06
-4.51207e-08
4.6773e-06
-4.43586e-08
4.68367e-06
-4.35386e-08
4.68991e-06
-4.26647e-08
4.69602e-06
-4.17414e-08
4.70198e-06
-4.07732e-08
4.7078e-06
-3.97632e-08
4.71346e-06
-3.87149e-08
4.71896e-06
-3.76324e-08
4.7243e-06
-3.65197e-08
4.72948e-06
-3.53813e-08
4.7345e-06
-3.42225e-08
4.73935e-06
-3.30491e-08
4.74404e-06
-3.18629e-08
4.74857e-06
-3.06618e-08
4.75293e-06
-2.94442e-08
4.75714e-06
-2.82084e-08
4.7612e-06
-2.69518e-08
4.76509e-06
-2.56702e-08
4.76883e-06
-2.43577e-08
4.77241e-06
-2.30068e-08
4.77583e-06
-2.16078e-08
4.7791e-06
-2.01492e-08
4.78221e-06
-1.86161e-08
4.78515e-06
-1.69925e-08
4.78792e-06
-1.52575e-08
4.79052e-06
-1.33886e-08
4.79293e-06
-1.13587e-08
4.79514e-06
-9.13602e-09
4.79713e-06
-6.68345e-09
4.79888e-06
-3.95842e-09
4.80038e-06
-9.12384e-10
4.80159e-06
2.51167e-09
4.80247e-06
6.37942e-09
4.803e-06
1.07653e-08
4.80314e-06
1.57596e-08
4.80282e-06
2.14665e-08
4.802e-06
2.80066e-08
4.80061e-06
3.55211e-08
4.79859e-06
4.41818e-08
4.79586e-06
5.41949e-08
4.79233e-06
6.58049e-08
4.7879e-06
7.93036e-08
4.78248e-06
9.50417e-08
4.77595e-06
1.13449e-07
4.76819e-06
1.35048e-07
4.75909e-06
1.60469e-07
4.74855e-06
1.90471e-07
4.73647e-06
2.25988e-07
4.72285e-06
2.68178e-07
4.70773e-06
3.18469e-07
4.6913e-06
3.78654e-07
4.67395e-06
4.5098e-07
4.65641e-06
5.38267e-07
4.63998e-06
6.44055e-07
4.62692e-06
7.72773e-07
4.62105e-06
9.30074e-07
4.62951e-06
1.12287e-06
4.66435e-06
1.35993e-06
4.75262e-06
1.64951e-06
4.9371e-06
1.99776e-06
5.31203e-06
2.41432e-06
5.95891e-06
2.77695e-06
3.6397e-06
6.96544e-06
4.43346e-06
-3.50527e-09
4.43549e-06
-1.05694e-08
4.43866e-06
-1.7104e-08
4.44269e-06
-2.28163e-08
4.44735e-06
-2.76806e-08
4.45248e-06
-3.18319e-08
4.45798e-06
-3.54007e-08
4.46377e-06
-3.8451e-08
4.46978e-06
-4.10459e-08
4.47597e-06
-4.32583e-08
4.48228e-06
-4.5152e-08
4.48872e-06
-4.67831e-08
4.49525e-06
-4.82e-08
4.50187e-06
-4.94412e-08
4.50857e-06
-5.05333e-08
4.51535e-06
-5.14948e-08
4.5222e-06
-5.2342e-08
4.52911e-06
-5.30888e-08
4.53609e-06
-5.37459e-08
4.54311e-06
-5.43213e-08
4.55018e-06
-5.48208e-08
4.5573e-06
-5.52491e-08
4.56446e-06
-5.56092e-08
4.57165e-06
-5.59039e-08
4.57886e-06
-5.61336e-08
4.5861e-06
-5.62967e-08
4.59335e-06
-5.63922e-08
4.6006e-06
-5.64192e-08
4.60785e-06
-5.63791e-08
4.61509e-06
-5.62724e-08
4.62232e-06
-5.60945e-08
4.62952e-06
-5.58389e-08
4.63668e-06
-5.55014e-08
4.64379e-06
-5.5083e-08
4.65084e-06
-5.45833e-08
4.65781e-06
-5.40042e-08
4.66469e-06
-5.33465e-08
4.67149e-06
-5.26135e-08
4.67817e-06
-5.18064e-08
4.68474e-06
-5.09291e-08
4.69119e-06
-4.99833e-08
4.6975e-06
-4.89754e-08
4.70367e-06
-4.79112e-08
4.70969e-06
-4.67979e-08
4.71557e-06
-4.56361e-08
4.72128e-06
-4.44311e-08
4.72684e-06
-4.31863e-08
4.73222e-06
-4.19082e-08
4.73744e-06
-4.05999e-08
4.74249e-06
-3.92704e-08
4.74737e-06
-3.79305e-08
4.75209e-06
-3.65833e-08
4.75665e-06
-3.52224e-08
4.76106e-06
-3.38472e-08
4.7653e-06
-3.24552e-08
4.7694e-06
-3.10447e-08
4.77334e-06
-2.96117e-08
4.77713e-06
-2.81501e-08
4.78077e-06
-2.66524e-08
4.78428e-06
-2.51086e-08
4.78763e-06
-2.35061e-08
4.79085e-06
-2.18302e-08
4.79392e-06
-2.00623e-08
4.79684e-06
-1.81819e-08
4.79962e-06
-1.61641e-08
4.80224e-06
-1.39795e-08
4.8047e-06
-1.15943e-08
4.80698e-06
-8.96856e-09
4.80908e-06
-6.0567e-09
4.81097e-06
-2.80751e-09
4.81265e-06
8.35742e-10
4.81408e-06
4.94566e-09
4.81525e-06
9.59636e-09
4.81613e-06
1.48827e-08
4.81668e-06
2.09121e-08
4.81688e-06
2.78057e-08
4.8167e-06
3.57062e-08
4.81609e-06
4.47889e-08
4.81503e-06
5.52609e-08
4.81347e-06
6.73656e-08
4.81138e-06
8.13894e-08
4.80875e-06
9.76758e-08
4.80555e-06
1.16649e-07
4.80178e-06
1.38818e-07
4.79747e-06
1.64778e-07
4.7927e-06
1.95236e-07
4.78763e-06
2.3106e-07
4.78252e-06
2.73291e-07
4.7778e-06
3.23183e-07
4.77416e-06
3.82295e-07
4.77259e-06
4.5255e-07
4.77459e-06
5.36272e-07
4.78245e-06
6.36193e-07
4.79975e-06
7.55471e-07
4.83202e-06
8.97804e-07
4.88796e-06
1.06692e-06
4.98116e-06
1.26673e-06
5.13239e-06
1.49827e-06
5.37086e-06
1.75929e-06
5.72911e-06
2.05607e-06
6.2086e-06
2.29746e-06
2.7366e-06
7.1117e-06
4.43364e-06
-4.35025e-09
4.43626e-06
-1.31859e-08
4.44021e-06
-2.10574e-08
4.44503e-06
-2.76301e-08
4.45039e-06
-3.30407e-08
4.45615e-06
-3.75902e-08
4.4622e-06
-4.14534e-08
4.46846e-06
-4.47156e-08
4.47488e-06
-4.74587e-08
4.4814e-06
-4.97785e-08
4.488e-06
-5.17533e-08
4.49467e-06
-5.34522e-08
4.5014e-06
-5.49328e-08
4.5082e-06
-5.62396e-08
4.51506e-06
-5.73957e-08
4.52198e-06
-5.84168e-08
4.52896e-06
-5.932e-08
4.53599e-06
-6.01208e-08
4.54308e-06
-6.08294e-08
4.55021e-06
-6.14532e-08
4.55739e-06
-6.19976e-08
4.5646e-06
-6.24665e-08
4.57186e-06
-6.28629e-08
4.57915e-06
-6.31921e-08
4.58646e-06
-6.34512e-08
4.5938e-06
-6.36364e-08
4.60116e-06
-6.37462e-08
4.60851e-06
-6.37776e-08
4.61587e-06
-6.37349e-08
4.62322e-06
-6.36233e-08
4.63056e-06
-6.34351e-08
4.63788e-06
-6.31555e-08
4.64516e-06
-6.27801e-08
4.65239e-06
-6.23116e-08
4.65955e-06
-6.17479e-08
4.66664e-06
-6.10939e-08
4.67364e-06
-6.0348e-08
4.68055e-06
-5.95177e-08
4.68734e-06
-5.86013e-08
4.69402e-06
-5.76073e-08
4.70057e-06
-5.65302e-08
4.70697e-06
-5.53837e-08
4.71323e-06
-5.41718e-08
4.71935e-06
-5.2911e-08
4.7253e-06
-5.15902e-08
4.7311e-06
-5.02252e-08
4.73672e-06
-4.88098e-08
4.74217e-06
-4.73607e-08
4.74744e-06
-4.58722e-08
4.75254e-06
-4.43665e-08
4.75747e-06
-4.28583e-08
4.76223e-06
-4.13489e-08
4.76684e-06
-3.98255e-08
4.77128e-06
-3.82914e-08
4.77557e-06
-3.6744e-08
4.77971e-06
-3.51819e-08
4.7837e-06
-3.36014e-08
4.78754e-06
-3.1997e-08
4.79125e-06
-3.03612e-08
4.79483e-06
-2.86833e-08
4.79827e-06
-2.69509e-08
4.80159e-06
-2.51481e-08
4.80478e-06
-2.32565e-08
4.80786e-06
-2.12542e-08
4.81081e-06
-1.9115e-08
4.81364e-06
-1.68085e-08
4.81634e-06
-1.42983e-08
4.81891e-06
-1.15425e-08
4.82135e-06
-8.49395e-09
4.82364e-06
-5.10025e-09
4.82578e-06
-1.30389e-09
4.82777e-06
2.96319e-09
4.82958e-06
7.78526e-09
4.8312e-06
1.32574e-08
4.83263e-06
1.94866e-08
4.83386e-06
2.65779e-08
4.83489e-06
3.46766e-08
4.83571e-06
4.39636e-08
4.83633e-06
5.46397e-08
4.83676e-06
6.69413e-08
4.83703e-06
8.11174e-08
4.83721e-06
9.74961e-08
4.83735e-06
1.16508e-07
4.83753e-06
1.38638e-07
4.8379e-06
1.64402e-07
4.83873e-06
1.94409e-07
4.84035e-06
2.29441e-07
4.84328e-06
2.70366e-07
4.84824e-06
3.18215e-07
4.8563e-06
3.7424e-07
4.86885e-06
4.4e-07
4.88782e-06
5.17302e-07
4.91598e-06
6.0803e-07
4.95734e-06
7.14109e-07
5.01758e-06
8.3757e-07
5.10438e-06
9.80121e-07
5.22841e-06
1.1427e-06
5.4022e-06
1.32448e-06
5.64284e-06
1.51865e-06
5.9715e-06
1.72741e-06
6.38121e-06
1.88776e-06
2.0626e-06
7.0552e-06
4.43399e-06
-5.53922e-09
4.43757e-06
-1.67641e-08
4.44263e-06
-2.61248e-08
4.44847e-06
-3.34665e-08
4.45474e-06
-3.93138e-08
4.46132e-06
-4.41656e-08
4.46808e-06
-4.82144e-08
4.47494e-06
-5.15785e-08
4.48186e-06
-5.43772e-08
4.4888e-06
-5.67212e-08
4.49575e-06
-5.86975e-08
4.50269e-06
-6.03952e-08
4.50965e-06
-6.18923e-08
4.51665e-06
-6.3239e-08
4.52369e-06
-6.44396e-08
4.53078e-06
-6.55037e-08
4.53791e-06
-6.64501e-08
4.54509e-06
-6.72953e-08
4.5523e-06
-6.80475e-08
4.55957e-06
-6.87144e-08
4.56687e-06
-6.93004e-08
4.57421e-06
-6.98083e-08
4.58158e-06
-7.02371e-08
4.589e-06
-7.06037e-08
4.59644e-06
-7.08947e-08
4.60391e-06
-7.11056e-08
4.61139e-06
-7.12321e-08
4.61889e-06
-7.12692e-08
4.62638e-06
-7.12325e-08
4.63389e-06
-7.11272e-08
4.64138e-06
-7.09326e-08
4.64886e-06
-7.06295e-08
4.65629e-06
-7.02162e-08
4.66368e-06
-6.96966e-08
4.671e-06
-6.9066e-08
4.67824e-06
-6.83343e-08
4.68539e-06
-6.74957e-08
4.69243e-06
-6.65645e-08
4.69936e-06
-6.55311e-08
4.70617e-06
-6.44118e-08
4.71282e-06
-6.31866e-08
4.71933e-06
-6.1892e-08
4.72567e-06
-6.05139e-08
4.73185e-06
-5.90872e-08
4.73784e-06
-5.75788e-08
4.74365e-06
-5.604e-08
4.74927e-06
-5.44302e-08
4.7547e-06
-5.2789e-08
4.75991e-06
-5.10777e-08
4.76492e-06
-4.93818e-08
4.76978e-06
-4.77125e-08
4.77447e-06
-4.60389e-08
4.77899e-06
-4.43475e-08
4.78334e-06
-4.26443e-08
4.78753e-06
-4.09325e-08
4.79156e-06
-3.92117e-08
4.79544e-06
-3.74797e-08
4.79917e-06
-3.5731e-08
4.80277e-06
-3.39596e-08
4.80624e-06
-3.21544e-08
4.80959e-06
-3.03029e-08
4.81284e-06
-2.83889e-08
4.81597e-06
-2.63929e-08
4.81901e-06
-2.42942e-08
4.82196e-06
-2.20655e-08
4.82483e-06
-1.96758e-08
4.82762e-06
-1.70848e-08
4.83032e-06
-1.42495e-08
4.83295e-06
-1.11224e-08
4.8355e-06
-7.65074e-09
4.83798e-06
-3.778e-09
4.84039e-06
5.45223e-10
4.84275e-06
5.43435e-09
4.84507e-06
1.09314e-08
4.8474e-06
1.71614e-08
4.84971e-06
2.4263e-08
4.85201e-06
3.23736e-08
4.85433e-06
4.16483e-08
4.85669e-06
5.22815e-08
4.85914e-06
6.44873e-08
4.86172e-06
7.85398e-08
4.86449e-06
9.47236e-08
4.86769e-06
1.13315e-07
4.87163e-06
1.34696e-07
4.87666e-06
1.59367e-07
4.88301e-06
1.88057e-07
4.8911e-06
2.21357e-07
4.90169e-06
2.59776e-07
4.91572e-06
3.04184e-07
4.93445e-06
3.55507e-07
4.95946e-06
4.14997e-07
4.99278e-06
4.83974e-07
5.03732e-06
5.63491e-07
5.09696e-06
6.54469e-07
5.1768e-06
7.57735e-07
5.28313e-06
8.73791e-07
5.42372e-06
1.00211e-06
5.60764e-06
1.14056e-06
5.84503e-06
1.28127e-06
6.15254e-06
1.41989e-06
6.51465e-06
1.52565e-06
1.60112e-06
6.97613e-06
4.43481e-06
-7.55283e-09
4.44013e-06
-2.20842e-08
4.44679e-06
-3.27784e-08
4.45385e-06
-4.05296e-08
4.46114e-06
-4.65992e-08
4.46859e-06
-5.16228e-08
4.47608e-06
-5.57033e-08
4.48355e-06
-5.9046e-08
4.49098e-06
-6.18046e-08
4.49837e-06
-6.41134e-08
4.50568e-06
-6.60131e-08
4.51294e-06
-6.76458e-08
4.52017e-06
-6.91315e-08
4.52744e-06
-7.05009e-08
4.53472e-06
-7.17239e-08
4.54203e-06
-7.28179e-08
4.54938e-06
-7.37998e-08
4.55677e-06
-7.46856e-08
4.5642e-06
-7.54763e-08
4.57167e-06
-7.61842e-08
4.57918e-06
-7.68079e-08
4.58672e-06
-7.73522e-08
4.5943e-06
-7.78083e-08
4.60189e-06
-7.8193e-08
4.60948e-06
-7.84866e-08
4.61707e-06
-7.87032e-08
4.62464e-06
-7.87941e-08
4.63214e-06
-7.87761e-08
4.63966e-06
-7.87439e-08
4.64718e-06
-7.86571e-08
4.65469e-06
-7.84353e-08
4.66213e-06
-7.80767e-08
4.6695e-06
-7.75853e-08
4.67678e-06
-7.69735e-08
4.68395e-06
-7.62362e-08
4.691e-06
-7.53836e-08
4.69791e-06
-7.44101e-08
4.70469e-06
-7.33381e-08
4.71132e-06
-7.21587e-08
4.71778e-06
-7.08741e-08
4.72405e-06
-6.94538e-08
4.73011e-06
-6.79549e-08
4.73598e-06
-6.63901e-08
4.74168e-06
-6.47819e-08
4.74718e-06
-6.30756e-08
4.75247e-06
-6.13374e-08
4.75758e-06
-5.95358e-08
4.76252e-06
-5.77349e-08
4.76738e-06
-5.59311e-08
4.77206e-06
-5.40683e-08
4.7765e-06
-5.21476e-08
4.78068e-06
-5.02166e-08
4.78462e-06
-4.82931e-08
4.78836e-06
-4.63781e-08
4.7919e-06
-4.44711e-08
4.79525e-06
-4.25714e-08
4.79845e-06
-4.06759e-08
4.8015e-06
-3.8779e-08
4.80441e-06
-3.6873e-08
4.80721e-06
-3.49471e-08
4.80989e-06
-3.29882e-08
4.81248e-06
-3.09799e-08
4.81499e-06
-2.89029e-08
4.81743e-06
-2.67343e-08
4.81981e-06
-2.44462e-08
4.82214e-06
-2.20073e-08
4.82445e-06
-1.93866e-08
4.82674e-06
-1.65428e-08
4.82903e-06
-1.3411e-08
4.83133e-06
-9.95255e-09
4.83366e-06
-6.11213e-09
4.83604e-06
-1.83092e-09
4.83849e-06
2.9853e-09
4.841e-06
8.42148e-09
4.84361e-06
1.45494e-08
4.84638e-06
2.14921e-08
4.84936e-06
2.93969e-08
4.8526e-06
3.84092e-08
4.85619e-06
4.8692e-08
4.86023e-06
6.04437e-08
4.86488e-06
7.38944e-08
4.87029e-06
8.93064e-08
4.87663e-06
1.06977e-07
4.88411e-06
1.27219e-07
4.89305e-06
1.50429e-07
4.90417e-06
1.7693e-07
4.9183e-06
2.07232e-07
4.9361e-06
2.41979e-07
4.95881e-06
2.81471e-07
4.98801e-06
3.26305e-07
5.02499e-06
3.78022e-07
5.07143e-06
4.37532e-07
5.13026e-06
5.04655e-07
5.20513e-06
5.79602e-07
5.30034e-06
6.62524e-07
5.42078e-06
7.53348e-07
5.57184e-06
8.5106e-07
5.75992e-06
9.52475e-07
5.99012e-06
1.05107e-06
6.26927e-06
1.14074e-06
6.58709e-06
1.20783e-06
1.24389e-06
6.94432e-06
4.43657e-06
-1.13195e-08
4.44509e-06
-3.06042e-08
4.45425e-06
-4.19433e-08
4.46325e-06
-4.95268e-08
4.47206e-06
-5.54092e-08
4.48072e-06
-6.02877e-08
4.48913e-06
-6.41101e-08
4.49735e-06
-6.72672e-08
4.50538e-06
-6.9834e-08
4.51325e-06
-7.19822e-08
4.52087e-06
-7.36359e-08
4.52831e-06
-7.50781e-08
4.53573e-06
-7.65602e-08
4.54313e-06
-7.78948e-08
4.55046e-06
-7.90531e-08
4.55771e-06
-8.0073e-08
4.5649e-06
-8.09891e-08
4.57203e-06
-8.18109e-08
4.5791e-06
-8.25501e-08
4.58613e-06
-8.32163e-08
4.59312e-06
-8.37914e-08
4.60004e-06
-8.42746e-08
4.6069e-06
-8.46656e-08
4.61373e-06
-8.50302e-08
4.62053e-06
-8.52865e-08
4.6273e-06
-8.54654e-08
4.63413e-06
-8.56248e-08
4.64107e-06
-8.57193e-08
4.64793e-06
-8.5604e-08
4.65461e-06
-8.53393e-08
4.66109e-06
-8.49111e-08
4.66736e-06
-8.43476e-08
4.67342e-06
-8.36516e-08
4.67927e-06
-8.28227e-08
4.6849e-06
-8.18625e-08
4.69029e-06
-8.07746e-08
4.69544e-06
-7.95619e-08
4.70033e-06
-7.8221e-08
4.70492e-06
-7.67568e-08
4.70924e-06
-7.51918e-08
4.71331e-06
-7.35251e-08
4.71713e-06
-7.17712e-08
4.7207e-06
-6.99602e-08
4.72401e-06
-6.80892e-08
4.72707e-06
-6.61383e-08
4.72987e-06
-6.41375e-08
4.73243e-06
-6.20932e-08
4.73472e-06
-6.00254e-08
4.73673e-06
-5.79423e-08
4.7385e-06
-5.58408e-08
4.74007e-06
-5.37182e-08
4.74144e-06
-5.15874e-08
4.74262e-06
-4.94667e-08
4.7436e-06
-4.73645e-08
4.74442e-06
-4.52843e-08
4.74507e-06
-4.32256e-08
4.74558e-06
-4.11877e-08
4.74597e-06
-3.91652e-08
4.74625e-06
-3.71524e-08
4.74644e-06
-3.51383e-08
4.74656e-06
-3.3111e-08
4.74663e-06
-3.10538e-08
4.74668e-06
-2.89497e-08
4.74672e-06
-2.67756e-08
4.74679e-06
-2.45082e-08
4.74689e-06
-2.21167e-08
4.74708e-06
-1.95768e-08
4.7474e-06
-1.68576e-08
4.74783e-06
-1.38437e-08
4.74843e-06
-1.05524e-08
4.74923e-06
-6.90864e-09
4.7503e-06
-2.89852e-09
4.75168e-06
1.59931e-09
4.75339e-06
6.70955e-09
4.75554e-06
1.24023e-08
4.7582e-06
1.88352e-08
4.76147e-06
2.61223e-08
4.76549e-06
3.43896e-08
4.7704e-06
4.37833e-08
4.77637e-06
5.44724e-08
4.78362e-06
6.6651e-08
4.79239e-06
8.05359e-08
4.803e-06
9.63675e-08
4.81581e-06
1.14401e-07
4.83132e-06
1.34919e-07
4.85001e-06
1.58239e-07
4.87254e-06
1.84702e-07
4.89976e-06
2.14762e-07
4.93225e-06
2.4898e-07
4.97085e-06
2.87711e-07
5.01829e-06
3.30576e-07
5.07788e-06
3.77948e-07
5.15172e-06
4.30817e-07
5.2423e-06
4.89021e-07
5.35381e-06
5.51008e-07
5.48879e-06
6.1837e-07
5.64975e-06
6.90101e-07
5.84152e-06
7.60703e-07
6.06653e-06
8.26057e-07
6.32583e-06
8.81439e-07
6.61419e-06
9.19475e-07
9.33039e-07
6.92504e-06
4.4409e-06
-1.94194e-08
4.45342e-06
-4.31262e-08
4.46495e-06
-5.347e-08
4.47611e-06
-6.06901e-08
4.48659e-06
-6.58896e-08
4.49643e-06
-7.01233e-08
4.50542e-06
-7.30974e-08
4.51375e-06
-7.55992e-08
4.52146e-06
-7.75445e-08
4.52866e-06
-7.91874e-08
4.53569e-06
-8.06663e-08
4.54251e-06
-8.18982e-08
4.54873e-06
-8.27752e-08
4.55439e-06
-8.35515e-08
4.55961e-06
-8.42743e-08
4.56445e-06
-8.49192e-08
4.56895e-06
-8.54848e-08
4.57309e-06
-8.59568e-08
4.57688e-06
-8.63353e-08
4.58029e-06
-8.66226e-08
4.58333e-06
-8.68319e-08
4.58603e-06
-8.69746e-08
4.58838e-06
-8.70238e-08
4.5904e-06
-8.70419e-08
4.59206e-06
-8.69458e-08
4.59337e-06
-8.67837e-08
4.59432e-06
-8.65736e-08
4.5949e-06
-8.62974e-08
4.59516e-06
-8.58677e-08
4.59509e-06
-8.5269e-08
4.59465e-06
-8.44676e-08
4.59382e-06
-8.35196e-08
4.59261e-06
-8.24368e-08
4.591e-06
-8.12192e-08
4.58901e-06
-7.98712e-08
4.58664e-06
-7.83986e-08
4.58388e-06
-7.68077e-08
4.58076e-06
-7.51002e-08
4.57729e-06
-7.32809e-08
4.57346e-06
-7.13617e-08
4.56929e-06
-6.93567e-08
4.5648e-06
-6.72819e-08
4.55999e-06
-6.51531e-08
4.55489e-06
-6.29847e-08
4.54951e-06
-6.07655e-08
4.54387e-06
-5.8497e-08
4.53799e-06
-5.62102e-08
4.53188e-06
-5.39172e-08
4.52557e-06
-5.16317e-08
4.51908e-06
-4.93458e-08
4.51243e-06
-4.7073e-08
4.50566e-06
-4.48173e-08
4.49879e-06
-4.25961e-08
4.49184e-06
-4.04154e-08
4.48484e-06
-3.82839e-08
4.47781e-06
-3.61964e-08
4.47078e-06
-3.41577e-08
4.46377e-06
-3.21572e-08
4.45682e-06
-3.01984e-08
4.44994e-06
-2.82626e-08
4.44318e-06
-2.63473e-08
4.43656e-06
-2.44299e-08
4.43011e-06
-2.25043e-08
4.42388e-06
-2.0542e-08
4.4179e-06
-1.85324e-08
4.41222e-06
-1.64366e-08
4.40689e-06
-1.42444e-08
4.40194e-06
-1.19124e-08
4.39749e-06
-9.38692e-09
4.39358e-06
-6.64457e-09
4.3903e-06
-3.62982e-09
4.38775e-06
-3.44632e-10
4.38591e-06
3.43248e-09
4.38499e-06
7.62847e-09
4.38519e-06
1.22037e-08
4.38665e-06
1.7379e-08
4.38958e-06
2.31944e-08
4.39421e-06
2.97556e-08
4.40082e-06
3.71748e-08
4.40971e-06
4.5581e-08
4.42125e-06
5.5115e-08
4.43585e-06
6.59316e-08
4.45402e-06
7.82031e-08
4.4763e-06
9.2116e-08
4.50335e-06
1.07874e-07
4.53587e-06
1.25711e-07
4.57467e-06
1.45909e-07
4.62061e-06
1.68818e-07
4.67475e-06
1.94842e-07
4.73814e-06
2.24313e-07
4.8117e-06
2.5702e-07
4.89699e-06
2.92658e-07
4.99631e-06
3.31501e-07
5.1114e-06
3.73926e-07
5.24272e-06
4.19691e-07
5.39573e-06
4.65364e-07
5.5762e-06
5.09623e-07
5.78398e-06
5.52932e-07
6.01812e-06
5.91916e-07
6.27722e-06
6.22338e-07
6.55703e-06
6.39661e-07
6.39829e-07
6.85024e-06
4.45657e-06
-4.31911e-08
4.47444e-06
-6.09957e-08
4.48639e-06
-6.54182e-08
4.49368e-06
-6.79812e-08
4.49803e-06
-7.02424e-08
4.50003e-06
-7.21216e-08
4.49995e-06
-7.3018e-08
4.49804e-06
-7.36825e-08
4.4945e-06
-7.40068e-08
4.48946e-06
-7.41541e-08
4.48298e-06
-7.41832e-08
4.47518e-06
-7.40935e-08
4.46626e-06
-7.38613e-08
4.45625e-06
-7.3536e-08
4.44514e-06
-7.31676e-08
4.43298e-06
-7.27588e-08
4.4198e-06
-7.23035e-08
4.40564e-06
-7.17972e-08
4.39054e-06
-7.12393e-08
4.37455e-06
-7.06301e-08
4.35769e-06
-6.99742e-08
4.33999e-06
-6.92758e-08
4.3215e-06
-6.85319e-08
4.30221e-06
-6.77539e-08
4.28219e-06
-6.69249e-08
4.26148e-06
-6.60679e-08
4.24012e-06
-6.52136e-08
4.21823e-06
-6.44083e-08
4.19584e-06
-6.34788e-08
4.17289e-06
-6.23234e-08
4.14946e-06
-6.10354e-08
4.1256e-06
-5.96549e-08
4.10135e-06
-5.81877e-08
4.07677e-06
-5.66387e-08
4.05191e-06
-5.50142e-08
4.02683e-06
-5.33196e-08
4.00158e-06
-5.15598e-08
3.97622e-06
-4.9739e-08
3.9508e-06
-4.78623e-08
3.92538e-06
-4.59395e-08
3.90001e-06
-4.39821e-08
3.87472e-06
-4.19985e-08
3.84957e-06
-3.9996e-08
3.82453e-06
-3.79482e-08
3.79966e-06
-3.58974e-08
3.77506e-06
-3.38992e-08
3.75079e-06
-3.19321e-08
3.72686e-06
-2.99941e-08
3.70333e-06
-2.80976e-08
3.68022e-06
-2.62343e-08
3.65756e-06
-2.44174e-08
3.6354e-06
-2.26506e-08
3.61374e-06
-2.09437e-08
3.59263e-06
-1.93004e-08
3.57207e-06
-1.77248e-08
3.55209e-06
-1.62142e-08
3.5327e-06
-1.4769e-08
3.51392e-06
-1.33807e-08
3.49578e-06
-1.20565e-08
3.4783e-06
-1.07801e-08
3.4615e-06
-9.54901e-09
3.44541e-06
-8.34542e-09
3.43008e-06
-7.16973e-09
3.41553e-06
-5.99581e-09
3.40183e-06
-4.82672e-09
3.38902e-06
-3.62836e-09
3.37718e-06
-2.40459e-09
3.36634e-06
-1.06816e-09
3.3566e-06
3.47557e-10
3.34807e-06
1.88953e-09
3.34082e-06
3.62037e-09
3.33501e-06
5.46691e-09
3.33098e-06
7.45495e-09
3.32892e-06
9.69569e-09
3.32901e-06
1.21104e-08
3.3315e-06
1.48874e-08
3.33677e-06
1.79268e-08
3.34517e-06
2.1353e-08
3.35713e-06
2.52158e-08
3.3731e-06
2.96067e-08
3.39362e-06
3.46019e-08
3.41927e-06
4.02774e-08
3.45074e-06
4.6731e-08
3.48879e-06
5.40658e-08
3.53428e-06
6.23913e-08
3.58818e-06
7.1812e-08
3.65163e-06
8.24497e-08
3.72597e-06
9.44787e-08
3.81272e-06
1.08098e-07
3.91353e-06
1.23497e-07
4.0298e-06
1.40758e-07
4.16262e-06
1.59832e-07
4.31296e-06
1.81161e-07
4.48205e-06
2.04837e-07
4.67127e-06
2.30471e-07
4.88081e-06
2.55826e-07
5.11147e-06
2.7896e-07
5.36416e-06
3.00244e-07
5.63747e-06
3.18609e-07
5.92816e-06
3.3164e-07
6.23081e-06
3.37015e-07
3.32815e-07
6.53782e-06
4.38961e-06
4.32861e-06
4.26319e-06
4.19521e-06
4.12497e-06
4.05285e-06
3.97983e-06
3.90615e-06
3.83214e-06
3.75799e-06
3.68381e-06
3.60971e-06
3.53585e-06
3.46231e-06
3.38915e-06
3.31639e-06
3.24408e-06
3.17229e-06
3.10105e-06
3.03042e-06
2.96044e-06
2.89117e-06
2.82264e-06
2.75488e-06
2.68796e-06
2.62189e-06
2.55668e-06
2.49227e-06
2.42879e-06
2.36647e-06
2.30543e-06
2.24577e-06
2.18759e-06
2.13095e-06
2.07593e-06
2.02261e-06
1.97105e-06
1.92132e-06
1.87345e-06
1.82751e-06
1.78353e-06
1.74153e-06
1.70154e-06
1.66359e-06
1.62769e-06
1.59379e-06
1.56186e-06
1.53187e-06
1.50377e-06
1.47753e-06
1.45312e-06
1.43047e-06
1.40952e-06
1.39022e-06
1.3725e-06
1.35628e-06
1.34151e-06
1.32813e-06
1.31608e-06
1.3053e-06
1.29575e-06
1.2874e-06
1.28023e-06
1.27424e-06
1.26941e-06
1.26578e-06
1.26338e-06
1.26231e-06
1.26266e-06
1.26455e-06
1.26817e-06
1.27363e-06
1.28109e-06
1.29078e-06
1.30289e-06
1.31778e-06
1.33571e-06
1.35706e-06
1.38228e-06
1.41188e-06
1.44649e-06
1.48676e-06
1.53349e-06
1.58756e-06
1.64995e-06
1.72176e-06
1.80421e-06
1.89869e-06
2.00679e-06
2.13029e-06
2.27105e-06
2.43088e-06
2.61204e-06
2.81688e-06
3.04735e-06
3.30317e-06
3.58213e-06
3.88238e-06
4.20099e-06
4.53263e-06
4.86964e-06
5.20246e-06
3.88046e-06
2.96745e-06
1.87233e-06
2.00812e-06
6.93126e-07
1.17921e-06
9.17284e-08
6.01398e-07
-2.53179e-07
3.44908e-07
-4.19447e-07
1.66267e-07
-4.72767e-07
5.33202e-08
-4.60249e-07
-1.25176e-08
-3.9884e-07
-6.14096e-08
-3.2545e-07
-7.33891e-08
-2.69439e-07
-5.60111e-08
-2.43599e-07
-2.58402e-08
-2.49471e-07
5.87146e-09
-2.90809e-07
4.13388e-08
-3.60398e-07
6.95882e-08
-4.31423e-07
7.10255e-08
-4.58635e-07
2.72123e-08
-4.33278e-07
-2.53572e-08
-3.53587e-07
-7.96914e-08
-2.27036e-07
-1.26551e-07
-6.3269e-08
-1.63767e-07
1.23883e-07
-1.87152e-07
3.21977e-07
-1.98094e-07
5.229e-07
-2.00923e-07
7.23102e-07
-2.00202e-07
9.21653e-07
-1.98551e-07
1.11952e-06
-1.97867e-07
1.31877e-06
-1.99246e-07
1.52148e-06
-2.0271e-07
1.7271e-06
-2.05622e-07
-2.01239e-07
1.92834e-06
6.74177e-06
3.19112e-06
6.27042e-06
2.47948e-06
5.56437e-06
1.88526e-06
4.77204e-06
1.39373e-06
4.11151e-06
1.00543e-06
3.56548e-06
7.12306e-07
3.12877e-06
4.9003e-07
2.7881e-06
3.28152e-07
2.51986e-06
2.06828e-07
2.31673e-06
1.29743e-07
2.17791e-06
8.28032e-08
2.09732e-06
5.47476e-08
2.06295e-06
4.02462e-08
2.07475e-06
2.95401e-08
2.13681e-06
7.52763e-09
2.24659e-06
-3.87576e-08
2.37746e-06
-1.03652e-07
2.5276e-06
-1.75502e-07
2.69646e-06
-2.48554e-07
2.8774e-06
-3.07491e-07
3.0639e-06
-3.50264e-07
3.25626e-06
-3.79516e-07
3.45147e-06
-3.93304e-07
3.6485e-06
-3.97952e-07
3.84636e-06
-3.98059e-07
4.04512e-06
-3.97307e-07
4.24573e-06
-3.98485e-07
4.44982e-06
-4.03331e-07
4.66004e-06
-4.12931e-07
4.88207e-06
-4.27654e-07
-4.48194e-07
5.12903e-06
7.67778e-06
2.62503e-06
7.93273e-06
2.22454e-06
7.93831e-06
1.87967e-06
7.7959e-06
1.53613e-06
7.59723e-06
1.2041e-06
7.38956e-06
9.19981e-07
7.18465e-06
6.94939e-07
6.996e-06
5.16798e-07
6.82617e-06
3.76656e-07
6.6839e-06
2.72014e-07
6.57028e-06
1.96423e-07
6.48387e-06
1.41162e-07
6.42689e-06
9.72195e-08
6.4005e-06
5.59308e-08
6.3976e-06
1.04254e-08
6.41488e-06
-5.60327e-08
6.44179e-06
-1.3056e-07
6.47693e-06
-2.10644e-07
6.51439e-06
-2.86017e-07
6.55488e-06
-3.4798e-07
6.59916e-06
-3.9454e-07
6.64887e-06
-4.29227e-07
6.70569e-06
-4.50126e-07
6.76983e-06
-4.62093e-07
6.84098e-06
-4.69205e-07
6.91916e-06
-4.75487e-07
7.00447e-06
-4.83801e-07
7.09734e-06
-4.96201e-07
7.19911e-06
-5.14697e-07
7.31259e-06
-5.41141e-07
-5.77694e-07
7.44209e-06
7.64093e-06
2.0393e-06
8.01967e-06
1.8458e-06
8.26544e-06
1.6339e-06
8.40971e-06
1.39186e-06
8.47457e-06
1.13925e-06
8.48153e-06
9.13017e-07
8.46195e-06
7.14525e-07
8.42754e-06
5.51204e-07
8.38845e-06
4.15751e-07
8.3523e-06
3.0816e-07
8.3242e-06
2.24524e-07
8.30599e-06
1.59373e-07
8.29821e-06
1.04995e-07
8.30154e-06
5.26083e-08
8.31524e-06
-3.27356e-09
8.32552e-06
-6.63197e-08
8.32991e-06
-1.34946e-07
8.32369e-06
-2.04428e-07
8.30715e-06
-2.69477e-07
8.28501e-06
-3.25842e-07
8.2615e-06
-3.71026e-07
8.23779e-06
-4.05519e-07
8.21823e-06
-4.30568e-07
8.2048e-06
-4.48663e-07
8.19794e-06
-4.62336e-07
8.19754e-06
-4.75089e-07
8.2038e-06
-4.90058e-07
8.21688e-06
-5.09286e-07
8.23694e-06
-5.34754e-07
8.26427e-06
-5.68476e-07
-6.12527e-07
8.29911e-06
7.43575e-06
1.57968e-06
7.8117e-06
1.46985e-06
8.12847e-06
1.31714e-06
8.36614e-06
1.15419e-06
8.53376e-06
9.71627e-07
8.64809e-06
7.98689e-07
8.72413e-06
6.38481e-07
8.77437e-06
5.00965e-07
8.80557e-06
3.84552e-07
8.82486e-06
2.88866e-07
8.83912e-06
2.10271e-07
8.85265e-06
1.45837e-07
8.86779e-06
8.98608e-08
8.88261e-06
3.77828e-08
8.8935e-06
-1.4158e-08
8.89637e-06
-6.91956e-08
8.88838e-06
-1.26954e-07
8.86805e-06
-1.84094e-07
8.83736e-06
-2.38793e-07
8.79926e-06
-2.87736e-07
8.75695e-06
-3.28715e-07
8.71323e-06
-3.61808e-07
8.67079e-06
-3.88128e-07
8.6314e-06
-4.09266e-07
8.59644e-06
-4.27376e-07
8.56637e-06
-4.45019e-07
8.54103e-06
-4.64723e-07
8.52028e-06
-4.88538e-07
8.504e-06
-5.18466e-07
8.49229e-06
-5.56772e-07
-6.06093e-07
8.48586e-06
7.30715e-06
1.21685e-06
7.63362e-06
1.14339e-06
7.92074e-06
1.03002e-06
8.16822e-06
9.0671e-07
8.36613e-06
7.73715e-07
8.52138e-06
6.43439e-07
8.6378e-06
5.2206e-07
8.72436e-06
4.14407e-07
8.78892e-06
3.19987e-07
8.8381e-06
2.39694e-07
8.87599e-06
1.72374e-07
8.90715e-06
1.14678e-07
8.93327e-06
6.37441e-08
8.95429e-06
1.67677e-08
8.96994e-06
-2.98154e-08
8.97614e-06