/*--------------------------------*- C++ -*----------------------------------*\
| =========                 |                                                 |
| \\      /  F ield         | OpenFOAM: The Open Source CFD Toolbox           |
|  \\    /   O peration     | Version:  2206                                  |
|   \\  /    A nd           | Website:  www.openfoam.com                      |
|    \\/     M anipulation  |                                                 |
\*---------------------------------------------------------------------------*/
FoamFile
{
    version     2.0;
    format      ascii;
    arch        "LSB;label=32;scalar=64";
    class       volVectorField;
    location    "18.8001";
    object      ddt0(U);
}
// * * * * * * * * * * * * * * * * * * * * * * * * * * * * * * * * * * * * * //

dimensions      [0 1 -2 0 0 0 0];

internalField   nonuniform List<vector> 
4796
(
(50.6461 -38.3466 0)
(42.7501 -57.0202 0)
(32.7981 -77.62 0)
(22.0842 -97.5791 0)
(9.97813 -114.363 0)
(1.58028 -126.847 0)
(-8.93781 -134.194 0)
(-16.1418 -134.796 0)
(-21.9092 -130.733 0)
(-26.3782 -123.606 0)
(-29.3336 -114.2 0)
(-30.8701 -103.392 0)
(-31.1256 -92.0054 0)
(-30.2805 -80.7666 0)
(-28.5808 -70.1815 0)
(-26.315 -60.484 0)
(-23.8047 -51.6623 0)
(-21.3326 -43.4807 0)
(-19.0812 -35.6549 0)
(-17.0523 -27.9612 0)
(-15.0138 -20.3001 0)
(-13.7032 -12.2644 0)
(-14.2961 -0.568335 0)
(-14.6972 15.1342 0)
(-15.3913 32.7161 0)
(-16.2701 51.5797 0)
(-17.3881 71.2076 0)
(-18.4986 90.6921 0)
(-19.4067 108.914 0)
(-20.0068 124.675 0)
(-20.1954 136.715 0)
(-19.7482 143.638 0)
(-18.3385 143.535 0)
(-16.2366 138.917 0)
(-13.5376 130.421 0)
(-10.3321 118.882 0)
(-6.74481 105.233 0)
(-2.95923 90.4194 0)
(0.856798 75.3289 0)
(4.58911 60.7131 0)
(8.12844 47.1358 0)
(11.4597 34.9112 0)
(14.8713 24.0204 0)
(18.6031 14.2315 0)
(21.6873 5.98706 0)
(24.6833 -0.000569305 0)
(27.253 -4.33814 0)
(29.3281 -7.67576 0)
(30.8466 -10.7668 0)
(31.6639 -14.3793 0)
(31.6469 -19.1418 0)
(30.7165 -25.4354 0)
(28.8715 -33.3235 0)
(26.1906 -42.5478 0)
(22.8222 -52.5917 0)
(18.9632 -62.784 0)
(14.7825 -72.424 0)
(10.5036 -80.8919 0)
(6.36245 -87.7261 0)
(1.67343 -92.57 0)
(-0.47911 -95.0539 0)
(-5.05894 -94.8402 0)
(-7.52349 -92.9309 0)
(-9.84661 -89.5293 0)
(-11.7463 -84.8351 0)
(-13.1249 -79.0917 0)
(-14.0587 -72.5242 0)
(-14.6039 -65.3036 0)
(-14.8106 -57.5906 0)
(-14.7335 -49.5504 0)
(-14.4252 -41.317 0)
(-13.936 -33.0108 0)
(-13.2485 -24.7712 0)
(-12.329 -16.7712 0)
(-12.2417 -8.60072 0)
(-12.34 2.10734 0)
(-12.1044 14.1488 0)
(-11.9109 26.333 0)
(-11.6541 38.3827 0)
(-11.4434 50.1382 0)
(-11.24 61.3185 0)
(-10.987 71.5847 0)
(-10.6532 80.5685 0)
(-10.212 87.8947 0)
(-9.63374 93.1465 0)
(-8.82913 95.7141 0)
(-7.7395 95.1685 0)
(-6.43941 92.5841 0)
(-4.93417 88.1688 0)
(-3.23469 82.2106 0)
(-1.36808 75.053 0)
(0.626161 67.0708 0)
(2.70519 58.634 0)
(4.82136 50.0775 0)
(6.9264 41.6792 0)
(8.97387 33.6313 0)
(10.9061 26.0186 0)
(12.7303 18.8079 0)
(14.6392 11.805 0)
(16.3831 4.84087 0)
(17.5902 -1.81329 0)
(18.4591 -8.26055 0)
(18.7653 -14.7739 0)
(18.5192 -21.4912 0)
(17.7542 -28.4644 0)
(16.5157 -35.6356 0)
(14.8781 -42.843 0)
(12.9325 -49.8506 0)
(10.7749 -56.3841 0)
(8.49797 -62.1747 0)
(6.18994 -66.9851 0)
(3.92095 -70.6417 0)
(1.70463 -73.0259 0)
(-0.354324 -73.6415 0)
(-2.15311 -72.7941 0)
(-3.75481 -70.9635 0)
(-5.21709 -68.1093 0)
(-6.50204 -64.3015 0)
(-7.58722 -59.6532 0)
(-8.47383 -54.2748 0)
(-9.16163 -48.2918 0)
(-9.65421 -41.8391 0)
(-9.96277 -35.0494 0)
(-10.104 -28.0661 0)
(-10.0655 -21.0619 0)
(-9.78275 -14.1992 0)
(-9.97058 -7.21528 0)
(-10.1797 1.48947 0)
(-10.0315 10.7898 0)
(-9.92145 20.0093 0)
(-9.60398 28.9104 0)
(-9.19766 37.3415 0)
(-8.74387 45.1591 0)
(-8.23264 52.215 0)
(-7.66553 58.3565 0)
(-7.0412 63.4329 0)
(-6.35583 67.2837 0)
(54.0985 -31.5071 0)
(47.1238 -47.2514 0)
(37.7066 -65.8192 0)
(26.7637 -84.9738 0)
(14.0349 -102.366 0)
(5.48173 -115.73 0)
(-5.89849 -124.067 0)
(-14.4433 -126.961 0)
(-20.5012 -124.642 0)
(-25.4385 -119.18 0)
(-28.8936 -111.377 0)
(-30.9489 -102.064 0)
(-31.7839 -92.0124 0)
(-31.5651 -81.8502 0)
(-30.5412 -72.017 0)
(-28.9984 -62.7475 0)
(-27.2039 -54.0613 0)
(-25.3647 -45.8185 0)
(-23.6197 -37.8343 0)
(-22.0114 -29.8904 0)
(-20.5411 -21.7115 0)
(-20.2266 -12.4591 0)
(-20.8917 0.142145 0)
(-21.4852 15.8353 0)
(-22.3621 33.5696 0)
(-23.1649 52.5827 0)
(-23.9209 72.1812 0)
(-24.4771 91.452 0)
(-24.6742 109.302 0)
(-24.4163 124.574 0)
(-23.6048 135.998 0)
(-21.9639 141.887 0)
(-19.3444 140.97 0)
(-16.1146 135.643 0)
(-12.3682 126.561 0)
(-8.24665 114.594 0)
(-3.91053 100.703 0)
(0.460962 85.8542 0)
(4.71127 70.8976 0)
(8.68363 56.5178 0)
(12.3097 43.1904 0)
(15.7066 31.1182 0)
(19.263 20.1851 0)
(22.6399 10.4238 0)
(25.4331 2.70125 0)
(28.048 -2.86669 0)
(30.2458 -6.7723 0)
(32.0555 -9.58443 0)
(33.4073 -12.015 0)
(34.1501 -14.807 0)
(34.1307 -18.6126 0)
(33.2303 -23.88 0)
(31.4021 -30.7653 0)
(28.6912 -39.1026 0)
(25.2247 -48.446 0)
(21.1892 -58.1595 0)
(16.7995 -67.5439 0)
(12.2695 -75.9556 0)
(7.77528 -82.8985 0)
(3.36632 -88.1029 0)
(-0.753368 -90.963 0)
(-4.28728 -91.2279 0)
(-7.27462 -89.8646 0)
(-9.90329 -87.0176 0)
(-12.0885 -82.8472 0)
(-13.7997 -77.5991 0)
(-15.0829 -71.4856 0)
(-15.9786 -64.6763 0)
(-16.5256 -57.3305 0)
(-16.768 -49.6027 0)
(-16.7616 -41.6266 0)
(-16.5669 -33.5091 0)
(-16.1757 -25.3628 0)
(-15.6204 -17.2693 0)
(-15.8376 -8.63061 0)
(-15.901 2.21199 0)
(-15.7674 13.9928 0)
(-15.6679 26.0492 0)
(-15.3739 38.0677 0)
(-14.9966 49.7811 0)
(-14.5342 60.8853 0)
(-13.9436 71.0419 0)
(-13.2061 79.8884 0)
(-12.3086 87.0463 0)
(-11.2293 92.0969 0)
(-9.87965 94.3367 0)
(-8.24223 93.5477 0)
(-6.41446 90.7347 0)
(-4.41323 86.1127 0)
(-2.26486 79.9809 0)
(-0.0121808 72.6934 0)
(2.29611 64.6295 0)
(4.6132 56.1619 0)
(6.89573 47.6274 0)
(9.10757 39.296 0)
(11.2132 31.3455 0)
(13.1912 23.8409 0)
(15.1395 16.7082 0)
(17.1501 9.77932 0)
(18.7393 3.1366 0)
(19.9941 -2.98368 0)
(20.819 -8.87641 0)
(21.0913 -14.7902 0)
(20.8141 -20.8998 0)
(19.9948 -27.2984 0)
(18.6689 -33.9603 0)
(16.9058 -40.7484 0)
(14.7944 -47.4412 0)
(12.434 -53.7707 0)
(9.92507 -59.4625 0)
(7.3597 -64.2689 0)
(4.81025 -67.9877 0)
(2.33547 -70.4475 0)
(0.0333337 -71.3435 0)
(-2.0392 -70.7417 0)
(-3.92108 -69.0909 0)
(-5.62832 -66.4313 0)
(-7.14421 -62.8432 0)
(-8.45537 -58.423 0)
(-9.55829 -53.2765 0)
(-10.4515 -47.5225 0)
(-11.1387 -41.2909 0)
(-11.6327 -34.7105 0)
(-11.9478 -27.9145 0)
(-12.0583 -21.0525 0)
(-11.9648 -14.2313 0)
(-12.3347 -7.04695 0)
(-12.4939 1.62336 0)
(-12.3944 10.6884 0)
(-12.2829 19.7126 0)
(-11.9342 28.4763 0)
(-11.4454 36.7991 0)
(-10.8562 44.524 0)
(-10.1642 51.4951 0)
(-9.37783 57.5554 0)
(-8.50356 62.5473 0)
(-7.54257 66.3092 0)
(56.2183 -26.2079 0)
(50.7072 -38.5899 0)
(42.2608 -54.5372 0)
(31.7046 -72.2014 0)
(19.7956 -89.5213 0)
(8.07535 -103.642 0)
(-2.43676 -113.172 0)
(-11.9309 -118.203 0)
(-18.8526 -118.065 0)
(-24.2315 -114.258 0)
(-28.1932 -108.015 0)
(-30.8052 -100.134 0)
(-32.2291 -91.3319 0)
(-32.6609 -82.1719 0)
(-32.3311 -73.0614 0)
(-31.4871 -64.2307 0)
(-30.3599 -55.7449 0)
(-29.1388 -47.5231 0)
(-27.977 -39.3943 0)
(-26.9463 -31.1333 0)
(-26.189 -22.3876 0)
(-26.5488 -12.1928 0)
(-27.2884 1.06998 0)
(-28.0851 16.8142 0)
(-29.0566 34.4559 0)
(-29.7539 53.3262 0)
(-30.1629 72.6456 0)
(-30.1774 91.4879 0)
(-29.657 108.797 0)
(-28.5111 123.408 0)
(-26.6297 134.015 0)
(-23.7427 138.758 0)
(-19.9085 137.077 0)
(-15.5587 131.141 0)
(-10.8107 121.626 0)
(-5.84157 109.419 0)
(-0.84198 95.4892 0)
(4.00646 80.7785 0)
(8.56122 66.1166 0)
(12.7256 52.1261 0)
(16.4656 39.1593 0)
(19.9902 27.2911 0)
(23.5388 16.4392 0)
(26.4162 7.04217 0)
(28.9188 -0.133228 0)
(31.0917 -5.30531 0)
(32.9022 -8.83827 0)
(34.4182 -11.2267 0)
(35.576 -13.1114 0)
(36.2327 -15.1868 0)
(36.2183 -18.1074 0)
(35.3772 -22.3736 0)
(33.6161 -28.2319 0)
(30.9355 -35.6208 0)
(27.4342 -44.1824 0)
(23.2877 -53.3388 0)
(18.7136 -62.4099 0)
(13.9352 -70.7334 0)
(9.14432 -77.7617 0)
(4.47944 -83.1033 0)
(0.10312 -86.4388 0)
(-3.75355 -87.5047 0)
(-7.05406 -86.5452 0)
(-9.94795 -84.1569 0)
(-12.4275 -80.4853 0)
(-14.4656 -75.7276 0)
(-16.0847 -70.0719 0)
(-17.3163 -63.6801 0)
(-18.1971 -56.707 0)
(-18.7689 -49.2971 0)
(-19.0869 -41.5785 0)
(-19.2063 -33.6499 0)
(-19.1142 -25.5992 0)
(-18.9103 -17.4287 0)
(-19.3665 -8.46294 0)
(-19.4694 2.35424 0)
(-19.4414 13.9065 0)
(-19.3642 25.7727 0)
(-19.0133 37.6369 0)
(-18.4754 49.1915 0)
(-17.7552 60.1189 0)
(-16.824 70.0793 0)
(-15.6749 78.7177 0)
(-14.3107 85.6551 0)
(-12.7195 90.4444 0)
(-10.811 92.3344 0)
(-8.61411 91.314 0)
(-6.25224 88.3006 0)
(-3.75164 83.5196 0)
(-1.15532 77.2825 0)
(1.47722 69.9486 0)
(4.08459 61.8926 0)
(6.61582 53.4809 0)
(9.03985 45.0408 0)
(11.3301 36.8282 0)
(13.4691 29.0041 0)
(15.4953 21.6037 0)
(17.537 14.5317 0)
(19.5034 7.75032 0)
(21.0002 1.51741 0)
(22.2511 -4.11519 0)
(23.0294 -9.46231 0)
(23.2796 -14.7739 0)
(22.9817 -20.2624 0)
(22.1227 -26.0581 0)
(20.7273 -32.1719 0)
(18.8563 -38.4978 0)
(16.5964 -44.835 0)
(14.0498 -50.9227 0)
(11.3219 -56.4819 0)
(8.51103 -61.2546 0)
(5.70146 -65.0267 0)
(2.96715 -67.6102 0)
(0.403639 -68.7567 0)
(-1.93506 -68.372 0)
(-4.07588 -66.9284 0)
(-6.0295 -64.487 0)
(-7.78031 -61.1295 0)
(-9.31724 -56.9454 0)
(-10.6372 -52.0379 0)
(-11.7389 -46.522 0)
(-12.6251 -40.5221 0)
(-13.3071 -34.1635 0)
(-13.7955 -27.5674 0)
(-14.0614 -20.8596 0)
(-14.1704 -14.0849 0)
(-14.6771 -6.77882 0)
(-14.8249 1.76417 0)
(-14.777 10.5942 0)
(-14.6496 19.399 0)
(-14.2586 27.9741 0)
(-13.6847 36.1334 0)
(-12.9604 43.7124 0)
(-12.0883 50.5498 0)
(-11.0806 56.4874 0)
(-9.95061 61.3651 0)
(-8.70643 65.0065 0)
(56.8575 -22.8033 0)
(53.2151 -31.6009 0)
(46.2668 -44.3955 0)
(36.5227 -59.8791 0)
(24.9535 -76.0637 0)
(12.7786 -90.5771 0)
(1.30954 -101.634 0)
(-8.70562 -108.534 0)
(-16.7627 -110.846 0)
(-22.7744 -108.68 0)
(-27.273 -104.01 0)
(-30.4742 -97.5403 0)
(-32.5173 -89.9345 0)
(-33.6009 -81.7399 0)
(-33.9477 -73.3407 0)
(-33.7757 -64.9647 0)
(-33.3034 -56.7066 0)
(-32.7258 -48.5224 0)
(-32.1914 -40.2542 0)
(-31.7668 -31.6769 0)
(-31.6527 -22.4044 0)
(-32.5288 -11.4582 0)
(-33.3869 2.18707 0)
(-34.3773 17.8875 0)
(-35.3465 35.2978 0)
(-35.8971 53.8098 0)
(-35.977 72.6338 0)
(-35.4552 90.835 0)
(-34.1558 107.359 0)
(-32.0339 121.104 0)
(-29.0699 130.739 0)
(-24.9815 134.24 0)
(-20.0193 131.905 0)
(-14.629 125.478 0)
(-8.97584 115.69 0)
(-3.25516 103.44 0)
(2.31854 89.6787 0)
(7.5651 75.3126 0)
(12.3608 61.1018 0)
(16.6403 47.5857 0)
(20.4824 35.0365 0)
(24.1273 23.4557 0)
(27.4441 12.9439 0)
(29.8876 4.16086 0)
(32.0284 -2.49285 0)
(33.7445 -7.29036 0)
(35.1595 -10.5153 0)
(36.3626 -12.5856 0)
(37.3127 -14.0474 0)
(37.8841 -15.525 0)
(37.896 -17.6513 0)
(37.1571 -20.9611 0)
(35.5223 -25.7845 0)
(32.9402 -32.1713 0)
(29.4714 -39.8699 0)
(25.2728 -48.3796 0)
(20.562 -57.0552 0)
(15.5765 -65.2294 0)
(10.5346 -72.3222 0)
(5.61535 -77.8962 0)
(0.977733 -81.6437 0)
(-3.20359 -83.3524 0)
(-6.82591 -82.8737 0)
(-9.99657 -80.9665 0)
(-12.7654 -77.7803 0)
(-15.1148 -73.4959 0)
(-17.0564 -68.2877 0)
(-18.6168 -62.3084 0)
(-19.8287 -55.7049 0)
(-20.7322 -48.6154 0)
(-21.3771 -41.1615 0)
(-21.8075 -33.4333 0)
(-22.0145 -25.4919 0)
(-22.1509 -17.2744 0)
(-22.805 -8.11948 0)
(-22.9683 2.56569 0)
(-23.0293 13.8659 0)
(-22.9391 25.4709 0)
(-22.5087 37.0752 0)
(-21.8033 48.3632 0)
(-20.8253 59.0139 0)
(-19.5576 68.6911 0)
(-18.0003 77.0502 0)
(-16.1641 83.7152 0)
(-14.0489 88.2054 0)
(-11.5685 89.6925 0)
(-8.81769 88.4717 0)
(-5.93405 85.2926 0)
(-2.96135 80.4046 0)
(0.0450686 74.1276 0)
(3.01803 66.8234 0)
(5.89813 58.8658 0)
(8.63508 50.6053 0)
(11.1868 42.3423 0)
(13.5363 34.3079 0)
(15.699 26.6347 0)
(17.7626 19.3344 0)
(19.8377 12.3451 0)
(21.6523 5.78799 0)
(23.1244 -0.0212139 0)
(24.3176 -5.20172 0)
(25.0531 -10.0219 0)
(25.2925 -14.7404 0)
(24.9905 -19.601 0)
(24.1163 -24.7693 0)
(22.6796 -30.297 0)
(20.7292 -36.1158 0)
(18.3462 -42.0512 0)
(15.6332 -47.855 0)
(12.7013 -53.2492 0)
(9.65809 -57.9666 0)
(6.5974 -61.7743 0)
(3.60131 -64.476 0)
(0.765593 -65.8754 0)
(-1.83894 -65.7104 0)
(-4.22706 -64.4876 0)
(-6.42158 -62.2742 0)
(-8.40689 -59.1552 0)
(-10.1702 -55.2172 0)
(-11.7075 -50.5592 0)
(-13.0171 -45.2927 0)
(-14.1011 -39.5374 0)
(-14.9695 -33.4133 0)
(-15.6296 -27.0286 0)
(-16.0587 -20.4812 0)
(-16.3673 -13.7625 0)
(-16.9811 -6.41552 0)
(-17.14 1.93433 0)
(-17.1421 10.5028 0)
(-16.9919 19.0553 0)
(-16.5504 27.3969 0)
(-15.8865 35.3423 0)
(-15.0247 42.7243 0)
(-13.9711 49.3796 0)
(-12.7415 55.1498 0)
(-11.3537 59.8758 0)
(-9.82272 63.3711 0)
(55.659 -21.4994 0)
(54.1671 -26.7405 0)
(49.356 -35.8703 0)
(41.212 -48.3955 0)
(30.473 -62.8247 0)
(18.3758 -77.0568 0)
(6.30356 -89.1337 0)
(-4.71288 -97.7966 0)
(-13.9833 -102.349 0)
(-21.0535 -102.467 0)
(-26.2027 -99.3377 0)
(-30.0106 -94.2613 0)
(-32.6852 -87.8298 0)
(-34.4095 -80.5736 0)
(-35.4074 -72.8739 0)
(-35.8919 -64.9598 0)
(-36.0638 -56.937 0)
(-36.119 -48.7969 0)
(-36.1945 -40.4095 0)
(-36.3511 -31.5532 0)
(-36.8225 -21.8261 0)
(-38.097 -10.3522 0)
(-39.0647 3.44017 0)
(-40.192 18.9977 0)
(-41.1 36.0537 0)
(-41.4613 54.0241 0)
(-41.1502 72.1117 0)
(-39.9732 89.389 0)
(-37.8929 104.919 0)
(-34.8925 117.656 0)
(-30.9158 126.229 0)
(-25.6998 128.461 0)
(-19.7369 125.575 0)
(-13.4279 118.787 0)
(-6.99086 108.89 0)
(-0.640676 96.7749 0)
(5.40105 83.3708 0)
(10.9657 69.5208 0)
(15.9437 55.9007 0)
(20.3287 42.9552 0)
(24.2582 30.865 0)
(27.8783 19.6912 0)
(30.8193 9.79221 0)
(32.9654 1.76351 0)
(34.6837 -4.36664 0)
(35.9537 -8.80573 0)
(36.9718 -11.7836 0)
(37.8483 -13.6401 0)
(38.5763 -14.8168 0)
(39.0579 -15.8411 0)
(39.1148 -17.292 0)
(38.528 -19.711 0)
(37.0979 -23.5027 0)
(34.7104 -28.8375 0)
(31.3716 -35.5871 0)
(27.2053 -43.3486 0)
(22.4209 -51.5341 0)
(17.2677 -59.4879 0)
(11.9925 -66.5971 0)
(6.8063 -72.3798 0)
(1.8775 -76.5126 0)
(-2.64185 -78.7837 0)
(-6.59869 -78.9254 0)
(-10.045 -77.4667 0)
(-13.0963 -74.7447 0)
(-15.7458 -70.9156 0)
(-17.9979 -66.1422 0)
(-19.8776 -60.5695 0)
(-21.4119 -54.3337 0)
(-22.6372 -47.5682 0)
(-23.5978 -40.3877 0)
(-24.3285 -32.8729 0)
(-24.8295 -25.0577 0)
(-25.2796 -16.8306 0)
(-26.0901 -7.61423 0)
(-26.3156 2.85108 0)
(-26.4462 13.8417 0)
(-26.3212 25.1112 0)
(-25.8014 36.3657 0)
(-24.9366 47.2967 0)
(-23.7181 57.5876 0)
(-22.1263 66.8998 0)
(-20.1527 74.8881 0)
(-17.8271 81.1975 0)
(-15.1688 85.3336 0)
(-12.1167 86.4149 0)
(-8.83317 85.0297 0)
(-5.4499 81.7422 0)
(-2.03379 76.82 0)
(1.34507 70.5847 0)
(4.61047 63.3935 0)
(7.70177 55.6059 0)
(10.5764 47.5576 0)
(13.2163 39.5335 0)
(15.6211 31.7317 0)
(17.817 24.245 0)
(19.9154 17.0696 0)
(21.9611 10.2162 0)
(23.5978 3.94298 0)
(25.0363 -1.48054 0)
(26.152 -6.23911 0)
(26.85 -10.5597 0)
(27.0875 -14.7063 0)
(26.7991 -18.9425 0)
(25.9378 -23.4667 0)
(24.4943 -28.3738 0)
(22.5011 -33.6383 0)
(20.0295 -39.12 0)
(17.1801 -44.5917 0)
(14.068 -49.7806 0)
(10.8084 -54.4101 0)
(7.5057 -58.233 0)
(4.2523 -61.0489 0)
(1.14032 -62.666 0)
(-1.73567 -62.781 0)
(-4.36846 -61.7747 0)
(-6.80096 -59.7963 0)
(-9.01838 -56.9236 0)
(-11.0059 -53.2417 0)
(-12.7575 -48.8439 0)
(-14.2709 -43.838 0)
(-15.5483 -38.3391 0)
(-16.5991 -32.4601 0)
(-17.4287 -26.2968 0)
(-18.0255 -19.9171 0)
(-18.5231 -13.2739 0)
(-19.2221 -5.96656 0)
(-19.4025 2.13478 0)
(-19.4458 10.4105 0)
(-19.2656 18.6748 0)
(-18.7663 26.7379 0)
(-18.0075 34.4188 0)
(-17.007 41.5536 0)
(-15.7731 47.9807 0)
(-14.3238 53.5431 0)
(-12.6786 58.0821 0)
(-10.8558 61.3994 0)
(52.2721 -22.3669 0)
(52.8898 -24.5392 0)
(50.6724 -29.8978 0)
(45.0182 -38.7677 0)
(36.0449 -50.4573 0)
(24.7307 -63.4354 0)
(12.4578 -75.7524 0)
(0.560694 -85.7619 0)
(-9.99567 -92.379 0)
(-18.5361 -95.1227 0)
(-24.7803 -93.8789 0)
(-29.327 -90.248 0)
(-32.6834 -85.0126 0)
(-35.0749 -78.6908 0)
(-36.7191 -71.6824 0)
(-37.8415 -64.2336 0)
(-38.6389 -56.4618 0)
(-39.2892 -48.3849 0)
(-39.9291 -39.912 0)
(-40.6232 -30.8348 0)
(-41.6014 -20.7542 0)
(-43.135 -8.96017 0)
(-44.2218 4.80539 0)
(-45.3971 20.1011 0)
(-46.1687 36.6486 0)
(-46.2284 53.8532 0)
(-45.4116 70.9451 0)
(-43.651 87.1604 0)
(-40.8803 101.608 0)
(-37.0794 113.212 0)
(-32.1513 120.563 0)
(-25.9244 121.572 0)
(-19.1311 118.224 0)
(-12.0586 111.213 0)
(-4.9809 101.365 0)
(1.86715 89.5598 0)
(8.26618 76.6724 0)
(14.0623 63.4761 0)
(19.1842 50.5537 0)
(23.6661 38.2509 0)
(27.6561 26.7204 0)
(31.1224 16.156 0)
(33.6369 7.05304 0)
(35.496 -0.202911 0)
(36.803 -5.78303 0)
(37.6681 -9.86463 0)
(38.3058 -12.6472 0)
(38.8514 -14.3848 0)
(39.347 -15.4002 0)
(39.7272 -16.1218 0)
(39.8272 -17.0566 0)
(39.4193 -18.7031 0)
(38.26 -21.5028 0)
(36.168 -25.7463 0)
(33.0811 -31.4554 0)
(29.0672 -38.346 0)
(24.3061 -45.912 0)
(19.0508 -53.5343 0)
(13.5719 -60.5891 0)
(8.1164 -66.5459 0)
(2.87949 -71.0274 0)
(-1.98814 -73.8033 0)
(-6.31606 -74.639 0)
(-10.0713 -73.6423 0)
(-13.4046 -71.3826 0)
(-16.3461 -67.9993 0)
(-18.8978 -63.6508 0)
(-21.0825 -58.4781 0)
(-22.924 -52.6097 0)
(-24.4532 -46.1715 0)
(-25.7101 -39.2727 0)
(-26.7229 -31.9841 0)
(-27.5036 -24.3172 0)
(-28.2293 -16.1311 0)
(-29.1579 -6.97661 0)
(-29.4401 3.18896 0)
(-29.6255 13.8151 0)
(-29.4643 24.6894 0)
(-28.8596 35.5284 0)
(-27.8291 46.0183 0)
(-26.3334 55.8347 0)
(-24.371 64.669 0)
(-21.9832 72.2111 0)
(-19.2034 78.1057 0)
(-16.0473 81.8566 0)
(-12.471 82.5417 0)
(-8.70916 81.0258 0)
(-4.87851 77.6797 0)
(-1.06705 72.7917 0)
(2.64274 66.6842 0)
(6.16745 59.6991 0)
(9.44328 52.1744 0)
(12.4325 44.4171 0)
(15.1247 36.6759 0)
(17.5355 29.1226 0)
(19.7372 21.8337 0)
(21.8503 14.8107 0)
(23.7863 8.16764 0)
(25.3274 2.23495 0)
(26.6958 -2.84284 0)
(27.7312 -7.21726 0)
(28.396 -11.078 0)
(28.6381 -14.6848 0)
(28.38 -18.3114 0)
(27.5585 -22.1847 0)
(26.143 -26.4429 0)
(24.1461 -31.1084 0)
(21.6259 -36.0837 0)
(18.6774 -41.1691 0)
(15.4163 -46.1025 0)
(11.9641 -50.6057 0)
(8.43573 -54.4215 0)
(4.93197 -57.3285 0)
(1.54788 -59.1337 0)
(-1.60289 -59.5694 0)
(-4.48684 -58.7875 0)
(-7.15598 -57.0552 0)
(-9.60151 -54.4384 0)
(-11.808 -51.0222 0)
(-13.7691 -46.8964 0)
(-15.4805 -42.163 0)
(-16.9452 -36.932 0)
(-18.1725 -31.3083 0)
(-19.1679 -25.3749 0)
(-19.9327 -19.1744 0)
(-20.6023 -12.6327 0)
(-21.3607 -5.44524 0)
(-21.5655 2.35861 0)
(-21.6397 10.3082 0)
(-21.4272 18.2457 0)
(-20.8741 25.9901 0)
(-20.0282 33.367 0)
(-18.8981 40.2127 0)
(-17.4857 46.365 0)
(-15.8086 51.669 0)
(-13.8964 55.97 0)
(-11.773 59.0704 0)
(47.2046 -24.5007 0)
(48.9893 -24.9641 0)
(49.2785 -27.0671 0)
(46.6132 -32.0121 0)
(40.5543 -40.1356 0)
(31.1712 -50.601 0)
(19.6366 -62.018 0)
(7.35946 -72.6057 0)
(-4.34924 -80.8572 0)
(-14.4632 -85.84 0)
(-22.4622 -87.3456 0)
(-28.1644 -85.3054 0)
(-32.359 -81.3713 0)
(-35.4957 -76.0582 0)
(-37.83 -69.7732 0)
(-39.5921 -62.8101 0)
(-40.9915 -55.3208 0)
(-42.2007 -47.346 0)
(-43.3445 -38.8313 0)
(-44.5109 -29.602 0)
(-45.8992 -19.2924 0)
(-47.5679 -7.36856 0)
(-48.7517 6.21254 0)
(-49.8567 21.0898 0)
(-50.38 36.9377 0)
(-50.0453 53.1767 0)
(-48.7827 69.2005 0)
(-46.4825 84.2605 0)
(-43.0931 97.4956 0)
(-38.6 107.868 0)
(-32.7919 113.724 0)
(-25.7676 113.853 0)
(-18.301 110.06 0)
(-10.638 102.94 0)
(-3.07214 93.2851 0)
(4.14314 81.9316 0)
(10.7965 69.6931 0)
(16.7557 57.253 0)
(21.9779 45.0964 0)
(26.5375 33.5031 0)
(30.506 22.6551 0)
(33.6937 12.9143 0)
(35.8582 4.74181 0)
(37.4068 -1.75081 0)
(38.3433 -6.77597 0)
(38.8608 -10.5022 0)
(39.1622 -13.1148 0)
(39.3935 -14.8068 0)
(39.6384 -15.7966 0)
(39.8865 -16.3777 0)
(40.0174 -16.9429 0)
(39.7712 -17.9493 0)
(38.9238 -19.8626 0)
(37.2466 -23.0419 0)
(34.5233 -27.6195 0)
(30.7966 -33.5054 0)
(26.1905 -40.3044 0)
(20.9325 -47.4499 0)
(15.3111 -54.3314 0)
(9.60744 -60.3865 0)
(4.05593 -65.1763 0)
(-1.16822 -68.4159 0)
(-5.90839 -69.9311 0)
(-10.0293 -69.4826 0)
(-13.6524 -67.6906 0)
(-16.8824 -64.7544 0)
(-19.7267 -60.8274 0)
(-22.201 -56.052 0)
(-24.3317 -50.5535 0)
(-26.1435 -44.4489 0)
(-27.6719 -37.8416 0)
(-28.9425 -30.7945 0)
(-29.9785 -23.3034 0)
(-30.94 -15.2206 0)
(-31.9332 -6.23106 0)
(-32.311 3.5747 0)
(-32.5209 13.7928 0)
(-32.3042 24.211 0)
(-31.5582 34.5258 0)
(-30.2955 44.4485 0)
(-28.5245 53.707 0)
(-26.2472 62.0151 0)
(-23.4954 69.0752 0)
(-20.3117 74.5223 0)
(-16.6935 77.8133 0)
(-12.6464 78.1505 0)
(-8.47187 76.5288 0)
(-4.26112 73.178 0)
(-0.118465 68.3902 0)
(3.85999 62.4789 0)
(7.58926 55.7728 0)
(11.0099 48.5844 0)
(14.0894 41.1851 0)
(16.8238 33.7883 0)
(19.2465 26.5294 0)
(21.4475 19.4611 0)
(23.5243 12.6226 0)
(25.2959 6.22548 0)
(26.7663 0.624159 0)
(28.0421 -4.13145 0)
(29.0126 -8.14191 0)
(29.656 -11.5789 0)
(29.9132 -14.6877 0)
(29.7036 -17.7328 0)
(28.9497 -20.9597 0)
(27.5982 -24.548 0)
(25.6388 -28.5732 0)
(23.1136 -32.987 0)
(20.1086 -37.6269 0)
(16.7374 -42.2504 0)
(13.1251 -46.5801 0)
(9.39435 -50.3466 0)
(5.65543 -53.3202 0)
(2.01011 -55.3023 0)
(-1.41914 -56.0565 0)
(-4.56284 -55.5256 0)
(-7.46622 -54.0543 0)
(-10.1358 -51.7058 0)
(-12.5557 -48.5658 0)
(-14.7193 -44.724 0)
(-16.6225 -40.2757 0)
(-18.2664 -35.3236 0)
(-19.662 -29.9648 0)
(-20.8154 -24.2701 0)
(-21.7406 -18.2637 0)
(-22.5603 -11.863 0)
(-23.3494 -4.86833 0)
(-23.6078 2.5992 0)
(-23.7039 10.1998 0)
(-23.4667 17.786 0)
(-22.858 25.1752 0)
(-21.9043 32.1937 0)
(-20.6141 38.6862 0)
(-19.004 44.5057 0)
(-17.1029 49.5111 0)
(-14.9424 53.546 0)
(-12.5465 56.3938 0)
(41.6375 -26.4835 0)
(43.1842 -26.8401 0)
(44.7011 -27.2951 0)
(44.8395 -28.9996 0)
(42.1548 -33.1096 0)
(36.1585 -40.0699 0)
(26.814 -49.0345 0)
(15.3643 -58.8503 0)
(3.21125 -67.8865 0)
(-8.29023 -74.703 0)
(-18.1332 -78.5345 0)
(-25.8718 -79.2301 0)
(-31.3663 -76.7189 0)
(-35.4537 -72.5352 0)
(-38.5773 -67.0946 0)
(-41.0337 -60.6921 0)
(-43.0451 -53.5407 0)
(-44.7899 -45.7294 0)
(-46.3942 -37.2408 0)
(-47.957 -27.9469 0)
(-49.6492 -17.551 0)
(-51.3678 -5.68808 0)
(-52.551 7.54832 0)
(-53.478 21.84 0)
(-53.6727 36.8314 0)
(-52.9697 52.059 0)
(-51.2719 66.9264 0)
(-48.4898 80.7483 0)
(-44.5857 92.7142 0)
(-39.5075 101.717 0)
(-32.9722 106.034 0)
(-25.3652 105.431 0)
(-17.387 101.273 0)
(-9.2934 94.1509 0)
(-1.37859 84.8008 0)
(6.09447 74.0118 0)
(12.9251 62.518 0)
(18.995 50.9073 0)
(24.2917 39.5783 0)
(28.8749 28.7766 0)
(32.7021 18.7777 0)
(35.5116 10.0184 0)
(37.4156 2.81792 0)
(38.638 -2.93171 0)
(39.2657 -7.41111 0)
(39.5051 -10.7918 0)
(39.5354 -13.2469 0)
(39.503 -14.9219 0)
(39.513 -15.9571 0)
(39.597 -16.5376 0)
(39.6917 -16.9318 0)
(39.5865 -17.4874 0)
(39.0383 -18.6428 0)
(37.7809 -20.8096 0)
(35.6111 -24.2629 0)
(32.3083 -28.9962 0)
(28.0077 -34.8406 0)
(22.8952 -41.3367 0)
(17.2341 -47.8876 0)
(11.3369 -53.9186 0)
(5.48563 -58.9414 0)
(-0.103544 -62.6016 0)
(-5.26773 -64.6863 0)
(-9.83324 -64.9929 0)
(-13.787 -63.6647 0)
(-17.3089 -61.1844 0)
(-20.4405 -57.6849 0)
(-23.1932 -53.3104 0)
(-25.5931 -48.1875 0)
(-27.6663 -42.4277 0)
(-29.4406 -36.1246 0)
(-30.9419 -29.3363 0)
(-32.2063 -22.0511 0)
(-33.3654 -14.135 0)
(-34.3981 -5.39368 0)
(-34.8482 4.0016 0)
(-35.0267 13.7323 0)
(-34.6789 23.5756 0)
(-33.7719 33.2888 0)
(-32.3164 42.6112 0)
(-30.303 51.2755 0)
(-27.7424 59.0088 0)
(-24.6728 65.5336 0)
(-21.1372 70.4899 0)
(-17.1048 73.2374 0)
(-12.6758 73.3365 0)
(-8.15464 71.6225 0)
(-3.63596 68.3156 0)
(0.760796 63.6899 0)
(4.93564 58.0453 0)
(8.80676 51.6842 0)
(12.3187 44.8863 0)
(15.4507 37.8905 0)
(18.2107 30.871 0)
(20.6437 23.9296 0)
(22.8581 17.1155 0)
(24.899 10.5248 0)
(26.5149 4.43229 0)
(27.9231 -0.852879 0)
(29.0858 -5.32626 0)
(29.9766 -9.03028 0)
(30.5932 -12.0951 0)
(30.8775 -14.7396 0)
(30.7379 -17.2305 0)
(30.0793 -19.8237 0)
(28.8263 -22.7284 0)
(26.9459 -26.0777 0)
(24.4633 -29.8829 0)
(21.4521 -34.0203 0)
(18.0183 -38.2705 0)
(14.287 -42.3688 0)
(10.3871 -46.0434 0)
(6.43927 -49.0464 0)
(2.55121 -51.17 0)
(-1.15978 -52.2356 0)
(-4.57328 -51.9885 0)
(-7.70615 -50.7921 0)
(-10.5944 -48.7278 0)
(-13.2224 -45.8784 0)
(-15.5798 -42.3331 0)
(-17.6658 -38.1844 0)
(-19.481 -33.525 0)
(-21.0343 -28.4422 0)
(-22.3381 -22.998 0)
(-23.4183 -17.2034 0)
(-24.3751 -10.9828 0)
(-25.185 -4.2311 0)
(-25.5039 2.87822 0)
(-25.591 10.0917 0)
(-25.2902 17.2674 0)
(-24.5869 24.2374 0)
(-23.5148 30.8502 0)
(-22.081 36.9593 0)
(-20.3024 42.4222 0)
(-18.2072 47.1028 0)
(-15.8281 50.8477 0)
(-13.1834 53.4187 0)
(36.818 -27.1554 0)
(37.0768 -28.3555 0)
(38.0857 -28.8885 0)
(39.2792 -29.2528 0)
(39.4403 -30.3974 0)
(37.1294 -33.3615 0)
(31.7279 -38.8361 0)
(22.9826 -46.1457 0)
(12.0074 -54.2988 0)
(0.155595 -61.8808 0)
(-11.1837 -67.4987 0)
(-20.9852 -70.4773 0)
(-28.7827 -70.6839 0)
(-34.4339 -67.9577 0)
(-38.6522 -63.4815 0)
(-41.9462 -57.7967 0)
(-44.6414 -51.1144 0)
(-46.9461 -43.5708 0)
(-48.9928 -35.2069 0)
(-50.8917 -25.9617 0)
(-52.7832 -15.6362 0)
(-54.4794 -4.01876 0)
(-55.5641 8.72198 0)
(-56.22 22.2817 0)
(-56.0775 36.3447 0)
(-55.0162 50.4841 0)
(-52.952 64.1613 0)
(-49.809 76.7327 0)
(-45.5354 87.3747 0)
(-40.0048 94.9704 0)
(-32.8751 97.6832 0)
(-24.904 96.4721 0)
(-16.553 92.034 0)
(-8.13215 84.9887 0)
(0.043765 76.03 0)
(7.7065 65.8857 0)
(14.6622 55.2056 0)
(20.8066 44.4848 0)
(26.1325 34.05 0)
(30.6358 24.1634 0)
(34.1915 15.1944 0)
(36.5992 7.51116 0)
(38.239 1.2413 0)
(39.1666 -3.79783 0)
(39.5587 -7.75867 0)
(39.5988 -10.8113 0)
(39.436 -13.1142 0)
(39.2051 -14.783 0)
(39.0171 -15.9023 0)
(38.9319 -16.5668 0)
(38.9337 -16.93 0)
(38.8837 -17.2382 0)
(38.5811 -17.8495 0)
(37.7388 -19.1476 0)
(36.0877 -21.4742 0)
(33.4504 -25.0362 0)
(29.6512 -29.7517 0)
(24.8456 -35.3483 0)
(19.3152 -41.3693 0)
(13.3385 -47.21 0)
(7.23971 -52.3411 0)
(1.29752 -56.348 0)
(-4.28707 -58.9594 0)
(-9.34405 -59.9981 0)
(-13.7242 -59.2748 0)
(-17.5593 -57.2766 0)
(-20.9781 -54.2284 0)
(-24.0044 -50.2708 0)
(-26.6597 -45.536 0)
(-28.9744 -40.1345 0)
(-30.9748 -34.1526 0)
(-32.6838 -27.6415 0)
(-34.1453 -20.5931 0)
(-35.4544 -12.9081 0)
(-36.4896 -4.50594 0)
(-36.9426 4.38679 0)
(-37.0318 13.5438 0)
(-36.5677 22.7876 0)
(-35.5167 31.8714 0)
(-33.8794 40.546 0)
(-31.6489 48.5664 0)
(-28.8434 55.6894 0)
(-25.5054 61.6453 0)
(-21.6738 66.0597 0)
(-17.3014 68.2625 0)
(-12.5779 68.1593 0)
(-7.79991 66.3976 0)
(-3.06821 63.1854 0)
(1.49735 58.7809 0)
(5.79287 53.4598 0)
(9.74116 47.4951 0)
(13.298 41.1321 0)
(16.4507 34.568 0)
(19.2177 27.9409 0)
(21.6693 21.3284 0)
(23.9108 14.7861 0)
(25.8767 8.48713 0)
(27.4306 2.74876 0)
(28.7815 -2.22785 0)
(29.8561 -6.42027 0)
(30.6765 -9.83911 0)
(31.2471 -12.5872 0)
(31.5273 -14.8457 0)
(31.4464 -16.8429 0)
(30.9004 -18.825 0)
(29.779 -21.04 0)
(28.0197 -23.6792 0)
(25.6336 -26.8187 0)
(22.6774 -30.395 0)
(19.2407 -34.2165 0)
(15.4406 -38.0218 0)
(11.4124 -41.5437 0)
(7.28794 -44.5309 0)
(3.18412 -46.7627 0)
(-0.786429 -48.0585 0)
(-4.4773 -48.205 0)
(-7.84095 -47.2842 0)
(-10.9402 -45.5185 0)
(-13.7699 -42.9741 0)
(-16.3158 -39.7382 0)
(-18.5781 -35.8995 0)
(-20.5598 -31.5447 0)
(-22.2701 -26.7471 0)
(-23.7221 -21.5576 0)
(-24.9484 -15.9866 0)
(-26.0093 -9.9921 0)
(-26.8101 -3.55749 0)
(-27.1398 3.13314 0)
(-27.1854 9.91357 0)
(-26.819 16.6515 0)
(-26.0381 23.188 0)
(-24.8627 29.3749 0)
(-23.3014 35.0736 0)
(-21.3744 40.1538 0)
(-19.1118 44.4837 0)
(-16.5441 47.901 0)
(-13.6719 50.1601 0)
(33.368 -26.2384 0)
(32.2158 -28.2411 0)
(31.6559 -29.7093 0)
(31.8656 -30.4688 0)
(32.534 -30.793 0)
(32.7124 -31.3942 0)
(31.0498 -33.142 0)
(26.7511 -36.8738 0)
(19.2719 -42.3152 0)
(9.34487 -48.7126 0)
(-1.80578 -54.8203 0)
(-12.8831 -59.3757 0)
(-22.8181 -61.6175 0)
(-30.9861 -61.4324 0)
(-37.1836 -58.7249 0)
(-41.7594 -53.9463 0)
(-45.3897 -47.9149 0)
(-48.3736 -40.8262 0)
(-50.9019 -32.7638 0)
(-53.1177 -23.7323 0)
(-55.1461 -13.6591 0)
(-56.7801 -2.48979 0)
(-57.7218 9.58275 0)
(-58.1337 22.3353 0)
(-57.746 35.4677 0)
(-56.4552 48.5488 0)
(-54.1849 61.0704 0)
(-50.8545 72.3941 0)
(-46.3772 81.6899 0)
(-40.3912 87.5919 0)
(-32.8528 89.0357 0)
(-24.5778 87.1708 0)
(-15.8619 82.4571 0)
(-7.10154 75.5317 0)
(1.31399 67.0332 0)
(9.12015 57.6033 0)
(16.1471 47.8068 0)
(22.2974 38.0508 0)
(27.5333 28.6159 0)
(31.7881 19.8066 0)
(34.8894 11.9886 0)
(36.9953 5.40679 0)
(38.3263 -0.0158006 0)
(39.0133 -4.40857 0)
(39.2459 -7.90412 0)
(39.1708 -10.6569 0)
(38.9053 -12.8064 0)
(38.5588 -14.4545 0)
(38.2303 -15.6546 0)
(37.9776 -16.4355 0)
(37.8305 -16.8663 0)
(37.7403 -17.0963 0)
(37.5602 -17.3786 0)
(37.0501 -18.0362 0)
(35.9222 -19.3988 0)
(33.9125 -21.7511 0)
(30.865 -25.2512 0)
(26.6513 -29.7743 0)
(21.4262 -34.9504 0)
(15.5702 -40.3712 0)
(9.36255 -45.4388 0)
(3.13246 -49.6706 0)
(-2.84999 -52.7317 0)
(-8.39103 -54.3872 0)
(-13.3203 -54.5001 0)
(-17.5423 -53.0112 0)
(-21.2661 -50.4497 0)
(-24.5698 -46.9347 0)
(-27.4775 -42.6082 0)
(-30.0201 -37.5846 0)
(-32.2289 -31.9461 0)
(-34.1254 -25.7401 0)
(-35.7422 -18.9716 0)
(-37.1295 -11.6059 0)
(-38.1192 -3.65959 0)
(-38.5474 4.68486 0)
(-38.5534 13.257 0)
(-37.9718 21.8637 0)
(-36.7799 30.2751 0)
(-34.9746 38.2672 0)
(-32.5555 45.6185 0)
(-29.5489 52.1046 0)
(-26.0041 57.4757 0)
(-21.9418 61.3324 0)
(-17.3059 62.9667 0)
(-12.4071 62.7225 0)
(-7.47632 60.9585 0)
(-2.6307 57.8908 0)
(2.01106 53.756 0)
(6.34847 48.802 0)
(10.3148 43.2681 0)
(13.8764 37.3599 0)
(17.0297 31.2349 0)
(19.81 24.9984 0)
(22.3116 18.7093 0)
(24.5939 12.4645 0)
(26.4748 6.50093 0)
(28.0387 1.13378 0)
(29.3388 -3.53701 0)
(30.3553 -7.45005 0)
(31.1274 -10.595 0)
(31.6599 -13.0499 0)
(31.9255 -14.9632 0)
(31.8673 -16.5264 0)
(31.3598 -17.9445 0)
(30.3502 -19.4962 0)
(28.7856 -21.4416 0)
(26.6001 -23.9123 0)
(23.7568 -26.8481 0)
(20.3699 -30.1389 0)
(16.5705 -33.5868 0)
(12.472 -36.9008 0)
(8.21445 -39.8172 0)
(3.93087 -42.111 0)
(-0.262241 -43.6005 0)
(-4.23368 -44.1303 0)
(-7.85243 -43.5152 0)
(-11.1574 -42.0691 0)
(-14.1796 -39.8489 0)
(-16.9081 -36.9383 0)
(-19.338 -33.4231 0)
(-21.4779 -29.3817 0)
(-23.3355 -24.8811 0)
(-24.9185 -19.9691 0)
(-26.2486 -14.6673 0)
(-27.3657 -8.96792 0)
(-28.1452 -2.90734 0)
(-28.4811 3.35244 0)
(-28.486 9.68873 0)
(-28.0576 15.9686 0)
(-27.2006 22.0428 0)
(-25.9293 27.7764 0)
(-24.2552 33.0424 0)
(-22.2011 37.7175 0)
(-19.8003 41.6762 0)
(-17.0784 44.7472 0)
(-13.9943 46.609 0)
(30.9612 -24.3301 0)
(29.0385 -26.4281 0)
(27.0843 -28.4814 0)
(25.4672 -30.1911 0)
(24.5233 -31.2999 0)
(24.2872 -31.8187 0)
(24.1626 -32.0838 0)
(23.0785 -32.8244 0)
(20.0437 -34.865 0)
(14.4071 -38.2821 0)
(6.31921 -42.6047 0)
(-3.42765 -46.952 0)
(-13.7167 -50.3158 0)
(-23.4879 -51.8823 0)
(-32.0015 -51.3024 0)
(-38.9589 -48.5919 0)