/*--------------------------------*- C++ -*----------------------------------*\
| =========                 |                                                 |
| \\      /  F ield         | OpenFOAM: The Open Source CFD Toolbox           |
|  \\    /   O peration     | Version:  2206                                  |
|   \\  /    A nd           | Website:  www.openfoam.com                      |
|    \\/     M anipulation  |                                                 |
\*---------------------------------------------------------------------------*/
FoamFile
{
    version     2.0;
    format      ascii;
    arch        "LSB;label=32;scalar=64";
    class       surfaceScalarField;
    location    "19.8999";
    object      ddtCorrDdt0(phi);
}
// * * * * * * * * * * * * * * * * * * * * * * * * * * * * * * * * * * * * * //

dimensions      [0 3 -2 0 0 0 0];

oriented        oriented;

internalField   nonuniform List<scalar> 
5918
(
-0.000156029
0.000224446
-6.84175e-05
-0.00028644
0.000221252
-9.08406e-05
-0.000381795
0.000152473
-5.71176e-05
-0.000443676
3.0205e-05
3.16753e-05
-0.000483221
-0.000129243
0.000168789
-0.000537331
-0.000316777
0.000370887
-0.00061564
-0.000599109
0.000677418
-0.000567352
-0.00105931
0.00101102
-0.000273352
-0.00133458
0.00104058
2.73667e-05
-0.00116844
0.000867721
0.00025928
-0.000867609
0.000635696
0.000419667
-0.000568481
0.000408094
0.000529561
-0.000317272
0.000207379
0.000600493
-0.000102526
3.15933e-05
0.000626235
7.38709e-05
-9.96125e-05
0.000632268
0.000184817
-0.00019085
0.000628226
0.000257452
-0.000253411
0.000609753
0.000318908
-0.000300435
0.00058942
0.000378949
-0.000358615
0.000640188
0.000371943
-0.000422711
0.000817323
0.000248079
-0.000425214
0.000996035
0.000142669
-0.000321381
0.000955724
0.000271484
-0.000231173
0.000660378
0.000638789
-0.000343443
0.000271296
0.00104698
-0.000657897
-9.6259e-05
0.00136546
-0.00099791
-0.00034781
0.00148967
-0.00123812
-0.000454059
0.00140443
-0.00129818
-0.000487568
0.00122947
-0.00119596
-0.000473595
0.00102383
-0.00103781
-0.000425405
0.000819767
-0.000867957
-0.000354964
0.000639393
-0.000709834
-0.0002725
0.000496702
-0.000579165
-0.000188022
0.000400611
-0.000485089
-0.000114517
0.000351643
-0.000425148
-6.39395e-05
0.000328696
-0.000379273
-4.07966e-05
0.000293117
-0.00031626
-5.3617e-05
0.000214201
-0.000201381
-0.000133404
6.86867e-05
1.11e-05
-0.000262669
-0.000219854
0.000349119
-0.000375988
-0.000676428
0.000789747
-0.000490225
-0.00112386
0.0012381
-0.00057734
-0.00153452
0.00162164
-0.000602124
-0.00182311
0.00184789
-0.000552622
-0.00189624
0.00184674
-0.000460266
-0.00178633
0.00169398
-0.000340441
-0.00156678
0.00144695
-0.00021141
-0.0012854
0.00115636
-8.81871e-05
-0.00098747
0.000864248
1.98097e-05
-0.000706645
0.000598648
0.000112544
-0.000463518
0.000370783
0.000196614
-0.000260971
0.000176901
0.000265635
-9.09473e-05
2.19264e-05
0.00030964
3.39989e-05
-7.80036e-05
0.000338257
0.000108615
-0.000137231
0.000359145
0.000147056
-0.000167945
0.000378867
0.000157418
-0.00017714
0.000402176
0.000144219
-0.000167528
0.000429856
0.000112994
-0.000140673
0.000457671
7.51203e-05
-0.000102936
0.000477545
4.95482e-05
-6.94227e-05
0.000480816
5.83065e-05
-6.15774e-05
0.000461088
0.000117618
-9.78904e-05
0.000417568
0.000230883
-0.000187363
0.000354441
0.000385966
-0.000322839
0.000277926
0.000559376
-0.000482861
0.000193932
0.000724614
-0.000640619
0.000107928
0.000858811
-0.000772806
2.47028e-05
0.000946634
-0.000863409
-4.97038e-05
0.000978679
-0.000904272
-0.000114048
0.000959546
-0.000895202
-0.00016664
0.000907294
-0.000854701
-0.000206074
0.000829281
-0.000789847
-0.00023201
0.000734724
-0.000708788
-0.000245215
0.000632385
-0.00061918
-0.000247481
0.000529894
-0.000527628
-0.000241131
0.000432986
-0.000439336
-0.000228421
0.000345191
-0.000357901
-0.000211661
0.000268118
-0.000284878
-0.000193698
0.000201593
-0.000219556
-0.000178599
0.000143281
-0.00015838
-0.000171375
8.61206e-05
-9.33447e-05
-0.000171102
1.09706e-05
-1.12437e-05
-0.000171602
-8.91728e-05
8.96727e-05
-0.000174922
-0.000202828
0.000206148
-0.000180523
-0.000329528
0.000335129
-0.000466398
0.000472336
-0.000140551
0.000364998
-0.000271078
0.000351779
-0.000375944
0.000257339
-0.00044887
0.000103131
-0.000460674
-0.000117439
-0.000401593
-0.000375859
-0.000342967
-0.000657735
-0.000365185
-0.00103709
-0.000252189
-0.00144758
-4.74283e-05
-0.0013732
0.000155413
-0.00107045
0.000312755
-0.000725822
0.000430516
-0.000435033
0.000526609
-0.00019862
0.000599428
1.0522e-06
0.000642245
0.000142001
0.000644857
0.00025484
0.000635905
0.00032786
0.000695573
0.000319281
0.000886002
0.000181514
0.00108432
4.97581e-05
0.001062
0.000164988
0.00077386
0.000559629
0.000379608
0.00103304
-2.28353e-05
0.00144942
-0.000327273
0.0016699
-0.000469681
0.00163208
-0.000522009
0.00145675
-0.000516184
0.00122365
-0.000468364
0.000976012
-0.000393646
0.00074505
-0.00030419
0.000549936
-0.000207986
0.000400498
-0.000109762
0.000302387
-1.921e-05
0.000261091
4.78252e-05
0.000261661
8.44496e-05
0.000256493
8.85004e-05
0.00021015
4.89374e-05
0.00010825
-6.10048e-05
-0.000109911
-0.000177083
-0.00056035
-0.000309184
-0.000991763
-0.00042715
-0.00141656
-0.000505568
-0.00174469
-0.000511998
-0.00188981
-0.000468905
-0.00182943
-0.000388627
-0.00164706
-0.000287134
-0.00138689
-0.00017921
-0.00109539
-7.70187e-05
-0.000808836
1.2741e-05
-0.000553278
9.31322e-05
-0.000341362
0.000170117
-0.000167932
0.000230351
-2.62343e-05
0.00027265
6.63156e-05
0.000304855
0.000114851
0.000334128
0.000128145
0.000364857
0.00011349
0.000396818
8.10324e-05
0.000425109
4.68294e-05
0.00044223
3.24269e-05
0.000441237
5.93003e-05
0.000418411
0.000140444
0.000374568
0.000274726
0.000313656
0.000446877
0.000240571
0.000632461
0.000160536
0.000804649
7.87261e-05
0.000940621
-2.49025e-07
0.00102561
-6.94312e-05
0.00104786
-0.000128609
0.00101872
-0.000175289
0.000953974
-0.000208058
0.00086205
-0.000226702
0.000753368
-0.000232218
0.000637901
-0.000226689
0.000524364
-0.000212975
0.000419272
-0.000193855
0.000326072
-0.000171341
0.000245604
-0.000147069
0.00017732
-0.000124006
0.000120218
-0.000107937
7.00519e-05
-0.00010619
9.22335e-06
-0.000101256
-9.41071e-05
-0.000102966
-0.000201118
-0.000109354
-0.000323139
-0.00045767
-0.000128624
0.000493621
-0.000260915
0.00048407
-0.00037637
0.000372793
-0.000466845
0.000193607
-0.000523263
-6.10214e-05
-0.000484709
-0.000414413
-0.000369847
-0.000772597
-0.000267726
-0.00113921
-0.000210624
-0.00150468
-9.44229e-05
-0.0014894
5.40113e-05
-0.00121888
0.000203482
-0.000875293
0.000329839
-0.000561391
0.000422089
-0.00029087
0.000525561
-0.000102419
0.000604503
6.30587e-05
0.000623949
0.000235393
0.000702211
0.000249598
0.000910016
0.000111476
0.00113241
-4.08813e-05
0.00114008
4.20926e-05
0.000874632
0.000430433
0.000487247
0.000947013
6.41761e-05
0.00145611
-0.000291831
0.00180543
-0.000486
0.00186407
-0.000563466
0.00170955
-0.000567103
0.00146039
-0.000517528
0.00117407
-0.000435136
0.00089362
-0.000336083
0.000645996
-0.000231612
0.000445465
-0.000129351
0.000298237
-2.73056e-05
0.000200341
7.11666e-05
0.000162619
0.000149177
0.00018365
0.000199674
0.000205996
0.000212694
0.000197131
0.000195893
0.00012505
0.000133849
-4.78674e-05
6.09673e-06
-0.000432597
-0.000135936
-0.000849729
-0.000274745
-0.00127775
-0.000388599
-0.00163084
-0.000446518
-0.00183189
-0.000449806
-0.00182614
-0.000411755
-0.00168511
-0.000342666
-0.00145598
-0.000255995
-0.00118207
-0.00016423
-0.000900601
-7.70561e-05
-0.000640452
-2.71972e-07
-0.000418146
7.18888e-05
-0.000240093
0.000139658
-9.40036e-05
0.000197769
8.2049e-06
0.000242724
6.98954e-05
0.000282101
8.87682e-05
0.000319808
7.57837e-05
0.000354894
4.59459e-05
0.000382573
1.91505e-05
0.000396806
1.81943e-05
0.000392769
6.33376e-05
0.000368625
0.000164587
0.000325738
0.000317614
0.000267291
0.000505324
0.000197784
0.000701968
0.000122376
0.000880056
4.54692e-05
0.00101753
-2.81957e-05
0.00109927
-9.0423e-05
0.00111009
-0.000142644
0.00107095
-0.000181678
0.000993009
-0.000206434
0.000886805
-0.000216968
0.000763902
-0.000214519
0.000635452
-0.000201138
0.000510983
-0.000179952
0.000398087
-0.000154352
0.000300472
-0.000126744
0.000217995
-9.83359e-05
0.000148913
-7.05252e-05
9.24077e-05
-4.84979e-05
4.80246e-05
-3.69333e-05
-2.34126e-06
-2.90102e-05
-0.00010203
-3.06911e-05
-0.000199437
-3.83711e-05
-0.000315459
-0.000446232
-0.000125761
0.000619382
-0.000243457
0.000601766
-0.000351885
0.000481221
-0.000429058
0.000270779
-0.00048877
-1.31003e-06
-0.000508879
-0.000394303
-0.000433707
-0.000847769
-0.000331279
-0.00124164
-0.000276169
-0.00155979
-0.00019456
-0.00157101
-7.50251e-05
-0.00133842
6.51695e-05
-0.00101549
0.000193556
-0.000689777
0.000303215
-0.000400529
0.000399704
-0.000198908
0.000501734
-3.89722e-05
0.0006456
9.15277e-05
0.000884236
1.0962e-05
0.0011232
-0.000127489
0.00115485
-7.25271e-05
0.00092162
0.000275319
0.000568021
0.000784032
0.000151416
0.00136362
-0.000257383
0.00186491
-0.000515939
0.00206398
-0.000621454
0.00196959
-0.000633826
0.00172192
-0.000580013
0.00140658
-0.000484858
0.00107892
-0.000369785
0.000778548
-0.000252651
0.000528863
-0.000142486
0.0003353
-4.24953e-05
0.000198247
5.00133e-05
0.000107833
0.000148877
6.3755e-05
0.000241715
9.08123e-05
0.000308324
0.000139386
0.000335809
0.000169646
0.000325449
0.00013541
0.000286697
-9.11509e-06
0.000166878
-0.000312779
2.46363e-05
-0.000707487
-0.000125684
-0.00112743
-0.000263471
-0.00149305
-0.000363932
-0.00173143
-0.000407435
-0.00178264
-0.000409525
-0.00168302
-0.000375144
-0.00149036
-0.000314608
-0.0012426
-0.000238691
-0.000976519
-0.000158931
-0.000720211
-8.35732e-05
-0.000493504
-1.6156e-05
-0.00030751
5.06529e-05
-0.000160813
0.000115598
-5.67403e-05
0.000173956
1.15374e-05
0.000222731
3.99936e-05
0.000266406
3.21083e-05
0.000303332
9.01977e-06
0.000329712
-7.22949e-06
0.000341633
6.27292e-06
0.000335959
6.90121e-05
0.000311558
0.000188988
0.000269693
0.000359478
0.000213768
0.00056125
0.000148691
0.000767045
7.85666e-05
0.000950181
7.79106e-06
0.0010883
-5.80447e-05
0.00116511
-0.000112692
0.00116474
-0.000155313
0.00111357
-0.000184594
0.00102229
-0.000199732
0.000901943
-0.000201251
0.000765422
-0.000190613
0.000624814
-0.000169736
0.000490106
-0.000141467
0.000369818
-0.000109394
0.0002684
-7.6827e-05
0.000185427
-4.69634e-05
0.000119049
-1.91415e-05
6.45857e-05
7.27675e-06
2.16064e-05
3.47142e-05
-2.97787e-05
4.15921e-05
-0.000108908
3.92412e-05
-0.000197087
3.03478e-05
-0.000306566
-0.000432358
-0.000109755
-0.000196958
-0.000279743
-0.000347623
-0.000374721
-0.000427658
-0.000409552
-0.000368981
-0.000358002
-0.000326589
-0.000238153
-0.000117015
1.68322e-05
0.00016758
0.000317688
0.000504692
0.000784201
0.00101383
0.00106595
0.000886553
0.000598873
0.000210183
-0.000239921
-0.0005638
-0.000704141
-0.000720882
-0.000658188
-0.000546085
-0.000411015
-0.000272532
-0.000141952
-3.54896e-05
5.02929e-05
0.000140194
0.000228477
0.000314827
0.000385499
0.000428777
0.0004373
0.000404603
0.000308218
0.00017021
1.3271e-05
-0.00014142
-0.000271533
-0.00035031
-0.000387217
-0.000385233
-0.000351871
-0.00029681
-0.000230168
-0.000160237
-9.35146e-05
-2.85472e-05
3.44095e-05
0.000100116
0.000157226
0.000205937
0.000243477
0.000268083
0.000278496
0.000271577
0.000246241
0.000205093
0.000152554
9.25476e-05
2.86604e-05
-3.47779e-05
-9.05744e-05
-0.000134513
-0.00016589
-0.00018365
-0.000187906
-0.00017979
-0.000161108
-0.000133948
-0.000100491
-6.35443e-05
-2.71052e-05
8.71697e-06
4.3764e-05
7.43217e-05
9.95259e-05
0.000106873
0.000105319
9.54673e-05
-0.000296714
-0.000416137
0.00015565
-3.11777e-06
9.50602e-07
-4.90655e-06
1.78878e-06
-7.49374e-06
2.58719e-06
-1.07182e-05
3.22445e-06
-1.43207e-05
3.60249e-06
-1.79832e-05
3.66251e-06
-2.13255e-05
3.34236e-06
-2.39409e-05
2.61531e-06
-2.54558e-05
1.5149e-06
-2.56023e-05
1.46521e-07
-2.42281e-05
-1.37418e-06
-2.12731e-05
-2.95498e-06
-1.68494e-05
-4.42371e-06
-1.12853e-05
-5.5641e-06
-5.55469e-06
-5.73062e-06
-7.91396e-07
-4.7633e-06
2.32745e-06
-3.11885e-06
3.78775e-06
-1.46029e-06
3.8707e-06
-8.29558e-08
2.91025e-06
9.60449e-07
1.22731e-06
1.68295e-06
-8.69643e-07
2.09695e-06
-3.00207e-06
2.13242e-06
-4.90294e-06
1.90087e-06
-6.51105e-06
1.60811e-06
-7.74498e-06
1.23393e-06
-8.60296e-06
8.57981e-07
-9.16162e-06
5.58662e-07
-9.40163e-06
2.40003e-07
-9.15269e-06
-2.48933e-07
-8.34213e-06
-8.10567e-07
-6.96853e-06
-1.37359e-06
-4.88249e-06
-2.08604e-06
-1.82977e-06
-3.05273e-06
2.49832e-06
-4.32809e-06
8.4251e-06
-5.92678e-06
1.62843e-05
-7.85917e-06
2.62781e-05
-9.99385e-06
3.80699e-05
-1.17917e-05
5.01373e-05
-1.20674e-05
6.01225e-05
-9.98525e-06
6.75819e-05
-7.45938e-06
-2.961e-06
7.05429e-05
-4.47661e-06
8.1467e-07
-4.77713e-06
2.0893e-06
-5.57685e-06
3.38691e-06
-6.84064e-06
4.48823e-06
-8.44803e-06
5.20988e-06
-1.02749e-05
5.48937e-06
-1.21752e-05
5.24265e-06
-1.39701e-05
4.41028e-06
-1.54884e-05
3.03317e-06
-1.66048e-05
1.26295e-06
-1.72684e-05
-7.10656e-07
-1.7485e-05
-2.73833e-06
-1.72067e-05
-4.70198e-06
-1.64236e-05
-6.34721e-06
-1.49871e-05
-7.16718e-06
-1.27271e-05
-7.02324e-06
-9.77941e-06
-6.06656e-06
-6.58668e-06
-4.65303e-06
-3.62597e-06
-3.04366e-06
-1.27573e-06
-1.38979e-06
2.41464e-07
1.65751e-07
8.67916e-07
1.4705e-06
4.90967e-07
2.50937e-06
-8.05871e-07
3.19771e-06
-2.65794e-06
3.46018e-06
-4.73061e-06
3.3066e-06
-6.61104e-06
2.7384e-06
-7.76595e-06
1.71358e-06
-7.7613e-06
2.3535e-07
-6.46612e-06
-1.54411e-06
-3.75701e-06
-3.51967e-06
5.01302e-07
-5.63191e-06
6.16237e-06
-7.74711e-06
1.28573e-05
-9.74764e-06
2.00758e-05
-1.15466e-05
2.71854e-05
-1.30364e-05
3.34837e-05
-1.41575e-05
3.83581e-05
-1.48682e-05
4.13699e-05
-1.48036e-05
4.27255e-05
-1.3423e-05
4.3404e-05
-1.06638e-05
4.33515e-05
-7.4068e-06
-3.60404e-06
4.39945e-05
-5.54338e-06
6.698e-08
-5.13894e-06
1.68486e-06
-5.08068e-06
3.32865e-06
-5.3913e-06
4.79885e-06
-6.05454e-06
5.87311e-06
-7.01574e-06
6.45057e-06
-8.19232e-06
6.41922e-06
-9.48588e-06
5.70385e-06
-1.07872e-05
4.33447e-06
-1.20654e-05
2.54119e-06
-1.33213e-05
5.45209e-07
-1.44794e-05
-1.58018e-06
-1.54447e-05
-3.73669e-06
-1.6125e-05
-5.66695e-06
-1.63778e-05
-6.91435e-06
-1.60555e-05
-7.3456e-06
-1.5094e-05
-7.02799e-06
-1.36027e-05
-6.14438e-06
-1.17498e-05
-4.89651e-06
-9.70988e-06
-3.42974e-06
-7.66064e-06
-1.88349e-06
-5.7767e-06
-4.13446e-07
-4.12338e-06
8.56048e-07
-2.74681e-06
1.82115e-06
-1.66219e-06
2.37556e-06
-8.03231e-07
2.44764e-06
-5.9907e-08
1.99508e-06
6.72345e-07
9.81324e-07
1.48178e-06
-5.74082e-07
2.50785e-06
-2.57018e-06
3.87415e-06
-4.88598e-06
5.67291e-06
-7.43066e-06
8.00269e-06
-1.00769e-05
1.09143e-05
-1.26593e-05
1.43822e-05
-1.50145e-05
1.82835e-05
-1.69377e-05
2.23251e-05
-1.81991e-05
2.59985e-05
-1.85416e-05
2.88161e-05
-1.76211e-05
3.0541e-05
-1.51478e-05
3.11152e-05
-1.12381e-05
3.01496e-05
-6.44118e-06
-1.2385e-06
2.7784e-05
-5.05904e-06
-9.42706e-07
-4.50623e-06
1.13206e-06
-4.30623e-06
3.12865e-06
-4.52587e-06
5.01848e-06
-5.16396e-06
6.51121e-06
-6.17537e-06
7.46198e-06
-7.42861e-06
7.67246e-06
-8.77438e-06
7.04962e-06
-1.00842e-05
5.64433e-06
-1.14367e-05
3.89364e-06
-1.28475e-05
1.95601e-06
-1.40907e-05
-3.36944e-07
-1.50917e-05
-2.7357e-06
-1.58868e-05
-4.87182e-06
-1.63571e-05
-6.44414e-06
-1.63644e-05
-7.33825e-06
-1.585e-05
-7.54239e-06
-1.48591e-05
-7.13526e-06
-1.35047e-05
-6.25092e-06
-1.18981e-05
-5.03631e-06
-1.01446e-05
-3.63706e-06
-8.34751e-06
-2.21052e-06
-6.58614e-06
-9.05317e-07
-4.9242e-06
1.59205e-07
-3.40004e-06
8.514e-07
-2.0073e-06
1.0549e-06
-7.30163e-07
7.17944e-07
4.37455e-07
-1.86293e-07
1.50716e-06
-1.64379e-06
2.49825e-06
-3.56127e-06
3.4543e-06
-5.84203e-06
4.42924e-06
-8.4056e-06
5.44618e-06
-1.10938e-05
6.54376e-06
-1.37569e-05
7.77354e-06
-1.62443e-05
9.14899e-06
-1.83132e-05
1.06564e-05
-1.97065e-05
1.22945e-05
-2.01796e-05
1.4167e-05
-1.94936e-05
1.64982e-05
-1.74791e-05
1.9455e-05
-1.41949e-05
2.29717e-05
-9.95789e-06
-5.16401e-06
2.68972e-05
-3.46298e-06
-2.23694e-06
-2.74493e-06
4.14009e-07
-2.72506e-06
3.10878e-06
-3.11795e-06
5.41138e-06
-3.89498e-06
7.28823e-06
-4.95881e-06
8.52582e-06
-6.17299e-06
8.88664e-06
-7.74138e-06
8.618e-06
-9.91667e-06
7.81962e-06
-1.23077e-05
6.28466e-06
-1.42588e-05
3.90708e-06
-1.57179e-05
1.1222e-06
-1.67326e-05
-1.72101e-06
-1.73159e-05
-4.28857e-06
-1.74233e-05
-6.33673e-06
-1.70081e-05
-7.75342e-06
-1.61438e-05
-8.40667e-06
-1.49118e-05
-8.36726e-06
-1.34267e-05
-7.73602e-06
-1.17999e-05
-6.66314e-06
-1.01255e-05
-5.3114e-06
-8.48092e-06
-3.85511e-06
-6.90852e-06
-2.47772e-06
-5.48322e-06
-1.26609e-06
-4.22756e-06
-4.0426e-07
-3.11308e-06
-5.95851e-08
-2.12423e-06
-2.70906e-07
-1.25333e-06
-1.0572e-06
-5.0209e-07
-2.39503e-06
1.23257e-07
-4.18662e-06
6.54291e-07
-6.37306e-06
1.1272e-06
-8.87851e-06
1.57181e-06
-1.15384e-05
1.99542e-06
-1.41805e-05
2.45206e-06
-1.67009e-05
3.06305e-06
-1.89241e-05
3.92967e-06
-2.05732e-05
5.19856e-06
-2.14485e-05
7.09516e-06
-2.13902e-05
9.9071e-06
-2.0291e-05
1.38862e-05
-1.8174e-05
1.91483e-05
-1.52199e-05
-1.16969e-05
2.56812e-05
-1.14274e-06
-3.72683e-06
-4.07887e-07
-3.20846e-07
-4.58335e-07
3.15923e-06
-1.33388e-06
6.28692e-06
-2.87281e-06
8.82716e-06
-4.88978e-06
1.05428e-05
-7.23409e-06
1.12309e-05
-9.55423e-06
1.09381e-05
-1.16715e-05
9.93685e-06
-1.37123e-05
8.32548e-06
-1.55836e-05
5.7784e-06
-1.69346e-05
2.4732e-06
-1.77413e-05
-9.14315e-07
-1.80439e-05
-3.98597e-06
-1.78349e-05
-6.54572e-06
-1.71019e-05
-8.48643e-06
-1.59506e-05
-9.558e-06
-1.44935e-05
-9.82437e-06
-1.28596e-05
-9.36991e-06
-1.11701e-05
-8.35257e-06
-9.52864e-06
-6.9529e-06
-8.02145e-06
-5.3623e-06
-6.73657e-06
-3.76259e-06
-5.61823e-06
-2.38443e-06
-4.62057e-06
-1.40193e-06
-3.81482e-06
-8.65337e-07
-3.23651e-06
-8.49209e-07
-2.88011e-06
-1.4136e-06
-2.57306e-06
-2.70208e-06
-2.3675e-06
-4.39217e-06
-2.16873e-06
-6.57184e-06
-1.95882e-06
-9.08843e-06
-1.78391e-06
-1.17134e-05
-1.50561e-06
-1.44588e-05
-1.05022e-06
-1.71563e-05
-4.17821e-07
-1.95565e-05
5.27822e-07
-2.15188e-05
1.98409e-06
-2.29048e-05
4.18243e-06
-2.35886e-05
7.38674e-06
-2.34953e-05
1.18508e-05
-2.2638e-05
1.77531e-05
-2.11223e-05
-1.91124e-05
2.51686e-05
2.12477e-06
-5.62235e-06
2.88758e-06
-1.08366e-06
2.50432e-06
3.54249e-06
1.03912e-06
7.75213e-06
-1.30574e-06
1.1172e-05
-4.27264e-06
1.35097e-05
-7.57941e-06
1.45377e-05
-1.08597e-05
1.42185e-05
-1.38257e-05
1.29028e-05
-1.64054e-05
1.09052e-05
-1.842e-05
7.79303e-06
-1.97023e-05
3.75544e-06
-2.02536e-05
-3.62947e-07
-2.0054e-05
-4.18565e-06
-1.91705e-05
-7.42916e-06
-1.77554e-05
-9.90159e-06
-1.59696e-05
-1.13438e-05
-1.40016e-05
-1.17924e-05
-1.20173e-05
-1.13542e-05
-1.01567e-05
-1.02132e-05
-8.52463e-06
-8.58492e-06
-7.16962e-06
-6.71731e-06
-6.05456e-06
-4.87765e-06
-5.27689e-06
-3.1621e-06
-4.83364e-06
-1.84518e-06
-4.6172e-06
-1.08177e-06
-4.60711e-06
-8.59305e-07
-4.80041e-06
-1.2203e-06
-4.96563e-06
-2.53687e-06
-5.00303e-06
-4.35477e-06
-5.22008e-06
-6.35478e-06
-5.46779e-06
-8.84072e-06
-5.39606e-06
-1.17851e-05
-5.05479e-06
-1.48e-05
-4.46877e-06
-1.77423e-05
-3.56833e-06
-2.0457e-05
-2.23149e-06
-2.28556e-05
-3.01998e-07
-2.48343e-05
2.40565e-06
-2.62962e-05
6.10521e-06
-2.71949e-05
1.10098e-05
-2.75426e-05
1.72915e-05
-2.7404e-05
-2.68763e-05
2.50554e-05
6.45819e-06
-8.05472e-06
7.2956e-06
-1.92106e-06
6.53521e-06
4.30287e-06
4.31219e-06
9.97515e-06
8.9081e-07
1.45934e-05
-3.37689e-06
1.77774e-05
-8.04223e-06
1.92031e-05
-1.25529e-05
1.87291e-05
-1.6461e-05
1.68109e-05
-1.97015e-05
1.41457e-05
-2.21275e-05
1.0219e-05
-2.35827e-05
5.21071e-06
-2.39273e-05
-1.83829e-08
-2.32007e-05
-4.91226e-06
-2.15564e-05
-9.07349e-06
-1.92048e-05
-1.22532e-05
-1.64024e-05
-1.41461e-05
-1.35236e-05
-1.46712e-05
-1.08477e-05
-1.40301e-05
-8.51788e-06
-1.2543e-05
-6.62277e-06
-1.048e-05
-5.25749e-06
-8.08259e-06
-4.4124e-06
-5.72274e-06
-4.05389e-06
-3.52062e-06
-4.21563e-06
-1.68344e-06
-4.58177e-06
-7.15634e-07
-5.06615e-06
-3.74929e-07
-5.96464e-06
-3.21804e-07
-6.95905e-06
-1.54246e-06
-7.46966e-06
-3.84416e-06
-7.95359e-06
-5.87086e-06
-8.30073e-06
-8.49357e-06
-8.40128e-06
-1.16845e-05
-8.11357e-06
-1.50877e-05
-7.47494e-06
-1.83809e-05
-6.37403e-06
-2.15579e-05
-4.70544e-06
-2.45242e-05
-2.36752e-06
-2.71722e-05
7.75498e-07
-2.94392e-05
4.88759e-06
-3.1307e-05
1.01394e-05
-3.27945e-05
1.66845e-05
-3.3949e-05
-3.4832e-05
2.46402e-05
1.23147e-05
-1.12717e-05
1.32832e-05
-2.88956e-06
1.20153e-05
5.57077e-06
8.75971e-06
1.32308e-05
3.94652e-06
1.94066e-05
-1.95819e-06
2.36821e-05
-8.43641e-06
2.56813e-05
-1.4709e-05
2.50017e-05
-1.99187e-05
2.20207e-05
-2.39748e-05
1.82018e-05
-2.70565e-05
1.33007e-05
-2.87017e-05
6.85591e-06
-2.87256e-05
5.5649e-09
-2.73167e-05
-6.32119e-06
-2.46668e-05
-1.17234e-05
-2.10754e-05
-1.58446e-05
-1.70151e-05
-1.82064e-05
-1.29996e-05
-1.86867e-05
-9.40146e-06
-1.76282e-05
-6.40941e-06
-1.55351e-05
-4.17475e-06
-1.27147e-05
-2.8146e-06
-9.44274e-06
-2.25395e-06
-6.28339e-06
-2.25284e-06
-3.52174e-06
-2.94925e-06
-9.87021e-07
-4.20094e-06
5.36053e-07
-5.35759e-06
7.81724e-07
-6.67675e-06
9.9735e-07
-8.55291e-06
3.33697e-07
-9.87515e-06
-2.52192e-06
-1.08182e-05
-4.92783e-06
-1.13324e-05
-7.97938e-06
-1.15556e-05
-1.14613e-05
-1.14095e-05
-1.52338e-05
-1.07063e-05
-1.90842e-05
-9.40261e-06
-2.28616e-05
-7.45839e-06
-2.64684e-05
-4.80179e-06
-2.98288e-05
-1.33312e-06
-3.29079e-05
3.07369e-06
-3.57138e-05
8.56221e-06
-3.8283e-05
1.52738e-05
-4.06607e-05
-4.28978e-05
2.33396e-05
2.02281e-05
-1.55344e-05
2.13293e-05
-3.99078e-06
1.93553e-05
7.54475e-06
1.47588e-05
1.78273e-05
8.21392e-06
2.59515e-05
2.74886e-07
3.16211e-05
-8.61584e-06
3.4572e-05
-1.76005e-05
3.39863e-05
-2.49177e-05
2.93378e-05
-2.96806e-05
2.29647e-05
-3.34128e-05
1.70329e-05
-3.52221e-05
8.66519e-06
-3.485e-05
-3.66449e-07
-3.25987e-05
-8.57254e-06
-2.86214e-05
-1.57007e-05
-2.33645e-05
-2.11015e-05
-1.76755e-05
-2.38955e-05
-1.22549e-05
-2.41073e-05
-7.4669e-06
-2.24162e-05
-3.67614e-06
-1.93258e-05
-1.07475e-06
-1.53161e-05
3.67839e-07
-1.08853e-05
6.25609e-07
-6.54116e-06
-6.73567e-09
-2.88939e-06
-1.30379e-06
3.10034e-07
-3.33387e-06
2.56613e-06
-5.6027e-06
3.05056e-06
-7.83452e-06
3.22917e-06
-1.01619e-05
2.66108e-06
-1.21308e-05
-5.53065e-07
-1.36372e-05
-3.42143e-06
-1.46416e-05
-6.97494e-06
-1.51258e-05
-1.0977e-05
-1.50503e-05
-1.53093e-05
-1.43167e-05
-1.98178e-05
-1.28804e-05
-2.4298e-05
-1.07329e-05
-2.8616e-05
-7.84375e-06
-3.27179e-05
-4.15123e-06
-3.66004e-05
4.41244e-07
-4.03063e-05
6.06483e-06
-4.39066e-05
1.28631e-05
-4.74589e-05
-5.10269e-05
2.09922e-05
3.15634e-05
-2.1266e-05
3.27348e-05
-5.16215e-06
2.95632e-05
1.07163e-05
2.28744e-05
2.4516e-05
1.38094e-05
3.50165e-05
3.26334e-06
4.21672e-05
-8.1309e-06
4.59663e-05
-1.99715e-05
4.58269e-05
-3.07573e-05
4.01236e-05
-3.7904e-05
3.01114e-05
-4.24302e-05
2.15591e-05
-4.41335e-05
1.03684e-05
-4.3253e-05
-1.24691e-06
-3.98439e-05
-1.19816e-05
-3.39363e-05
-2.16083e-05
-2.62083e-05
-2.88295e-05
-1.80655e-05
-3.20382e-05
-1.0659e-05
-3.15139e-05
-4.54058e-06
-2.85346e-05
2.70198e-08
-2.38934e-05
2.9557e-06
-1.82448e-05
4.32343e-06
-1.22531e-05
4.22261e-06
-6.44034e-06
2.82592e-06
-1.49271e-06
5.273e-07
2.60866e-06
-2.33853e-06
5.43196e-06
-5.6707e-06
6.38273e-06
-9.18395e-06
6.74241e-06
-1.20962e-05
5.57333e-06
-1.47359e-05
2.0866e-06
-1.69768e-05
-1.1805e-06
-1.85542e-05
-5.39757e-06
-1.93922e-05
-1.0139e-05
-1.94371e-05
-1.52645e-05
-1.86592e-05
-2.05957e-05
-1.70758e-05
-2.58814e-05
-1.47262e-05
-3.09655e-05
-1.16275e-05
-3.58167e-05
-7.76199e-06
-4.04659e-05
-3.0557e-06
-4.50125e-05
2.60754e-06
-4.95698e-05
9.35884e-06
-5.42103e-05
-5.9078e-05
1.741e-05
4.58896e-05
-2.91674e-05
4.72063e-05
-6.47888e-06
4.24215e-05
1.55012e-05
3.29286e-05
3.40089e-05
2.04117e-05
4.75334e-05
5.88196e-06
5.66969e-05
-9.33043e-06
6.11786e-05
-2.4704e-05
6.12005e-05
-3.7322e-05
5.27416e-05
-4.69627e-05
3.97521e-05
-5.36366e-05
2.82331e-05
-5.58841e-05
1.26159e-05
-5.44418e-05
-2.68914e-06
-4.97456e-05
-1.66779e-05
-4.10066e-05
-3.03473e-05
-3.01856e-05
-3.96504e-05
-1.89511e-05
-4.32728e-05
-8.53121e-06
-4.19337e-05
-2.00217e-07
-3.68656e-05
5.61342e-06
-2.97071e-05
8.92748e-06
-2.15588e-05
1.01121e-05
-1.34376e-05
9.37166e-06
-5.69995e-06
6.9308e-06
9.48154e-07
3.34169e-06
6.19776e-06
-8.91439e-07
9.6651e-06
-5.62404e-06
1.11153e-05
-1.03285e-05
1.14469e-05
-1.43996e-05
9.64438e-06
-1.81983e-05
5.88532e-06
-2.11858e-05
1.80696e-06
-2.32776e-05
-3.30571e-06
-2.44603e-05
-8.95625e-06
-2.46561e-05
-1.50687e-05
-2.38354e-05
-2.14164e-05
-2.20898e-05
-2.7627e-05
-1.95381e-05
-3.35173e-05
-1.62531e-05
-3.91016e-05
-1.22917e-05
-4.44274e-05
-7.57916e-06
-4.97251e-05
-1.93774e-06
-5.52113e-05
4.72234e-06
-6.08703e-05
-6.69189e-05
1.25632e-05
6.29138e-05
-3.88928e-05
6.35595e-05
-7.12458e-06
5.63397e-05
2.2721e-05
4.33064e-05
4.70422e-05
2.66219e-05
6.4218e-05
8.37684e-06
7.49419e-05
-1.13225e-05
8.0878e-05
-3.10044e-05
8.08824e-05
-4.60554e-05
6.77926e-05
-5.8462e-05
5.21586e-05
-6.68507e-05
3.66218e-05
-7.09926e-05
1.67578e-05
-6.86345e-05
-5.04727e-06
-5.96711e-05
-2.56413e-05
-4.81483e-05
-4.187e-05
-3.39091e-05
-5.38897e-05
-1.80553e-05
-5.91266e-05
-5.2013e-06
-5.47877e-05
4.83141e-06
-4.68983e-05
1.18128e-05
-3.66885e-05
1.55496e-05
-2.52956e-05
1.66816e-05
-1.45696e-05
1.53568e-05
-4.37516e-06
1.17422e-05
4.56272e-06
6.76902e-06
1.11709e-05
9.82096e-07
1.5452e-05
-5.35504e-06
1.74525e-05
-1.14542e-05
1.7546e-05
-1.69259e-05
1.51161e-05
-2.19618e-05
1.09213e-05
-2.56845e-05
5.5296e-06
-2.83848e-05
-6.05403e-07
-2.99936e-05
-7.34737e-06
-3.03647e-05
-1.46976e-05
-2.9496e-05
-2.22851e-05
-2.75558e-05
-2.95672e-05
-2.47695e-05
-3.63036e-05
-2.12952e-05
-4.25759e-05
-1.72623e-05
-4.84603e-05
-1.26372e-05
-5.43501e-05
-7.36641e-06
-6.04821e-05
-1.40667e-06
-6.68301e-05
-7.38998e-05
5.5742e-06
7.65982e-05
-4.87543e-05
7.58759e-05
-6.40237e-06
6.61114e-05
3.24855e-05
5.21707e-05
6.09829e-05
3.24719e-05
8.39168e-05
9.00211e-06
9.84117e-05
-1.6032e-05
0.000105912
-3.83683e-05
0.000103219
-6.04905e-05
8.99148e-05
-7.95843e-05
7.12524e-05
-8.86117e-05
4.56492e-05
-8.75063e-05
1.56524e-05
-7.93079e-05
-1.32457e-05
-6.60873e-05
-3.88619e-05
-4.76068e-05
-6.03505e-05
-3.19485e-05
-6.9548e-05
-1.76684e-05
-7.34067e-05
-4.96178e-07
-7.19599e-05
1.39821e-05
-6.13766e-05
2.03669e-05
-4.30732e-05
2.3637e-05
-2.85658e-05
2.38645e-05
-1.47971e-05
2.0882e-05
-1.39267e-06
1.55592e-05
9.88551e-06
8.83573e-06
1.78944e-05
1.37138e-06
2.29164e-05
-6.75162e-06
2.55755e-05
-1.46702e-05
2.54646e-05
-2.11364e-05
2.15823e-05
-2.67046e-05
1.64895e-05
-3.15816e-05
1.04066e-05
-3.52246e-05
3.03759e-06
-3.72898e-05
-5.28221e-06
-3.76294e-05
-1.4358e-05
-3.63697e-05
-2.35449e-05
-3.41239e-05
-3.18129e-05
-3.11593e-05
-3.92682e-05
-2.76749e-05
-4.60603e-05
-2.39014e-05
-5.22338e-05
-2.00854e-05
-5.81661e-05
-1.60986e-05
-6.44688e-05
-1.12009e-05
-7.17278e-05
-8.02502e-05
-4.85046e-06
8.05163e-05
-6.70404e-05
8.14787e-05
-7.36477e-06
6.60986e-05
4.78656e-05
5.35912e-05
7.34904e-05
3.41169e-05
0.000103391
9.43022e-06
0.000123098
-1.68252e-05
0.000132168
-4.25276e-05
0.000128921
-6.7606e-05
0.000114993
-8.70711e-05
9.07175e-05
-9.9348e-05
5.79261e-05
-0.000102774
1.90781e-05
-9.61341e-05
-1.98853e-05
-8.01859e-05
-5.48101e-05
-5.46918e-05
-8.58445e-05
-2.77567e-05
-9.64831e-05
-5.14775e-06
-9.60157e-05
1.35624e-05
-9.06701e-05
2.73255e-05
-7.51397e-05
2.96293e-05
-4.5377e-05
3.34316e-05
-3.23681e-05
3.32457e-05
-1.46112e-05
2.81591e-05
3.69387e-06
2.05803e-05
1.74644e-05
1.14666e-05
2.70081e-05
1.57776e-06
3.28052e-05
-8.6862e-06
3.58394e-05
-1.81036e-05
3.4882e-05
-2.69692e-05
3.04479e-05
-3.48742e-05
2.43945e-05
-4.07126e-05
1.62451e-05
-4.40443e-05
6.36926e-06
-4.47636e-05
-4.56291e-06
-4.41187e-05
-1.50029e-05
-4.2941e-05
-2.47226e-05
-4.04882e-05
-3.42657e-05
-3.68466e-05
-4.29098e-05
-3.25953e-05
-5.03116e-05
-2.8051e-05
-5.67781e-05
-2.37341e-05
-6.2483e-05
-2.00019e-05
-6.8201e-05
-1.68706e-05
-7.48592e-05
-8.32956e-05
-1.38252e-05
2.4019e-05
-8.96607e-05
3.1971e-05
-1.53168e-05
3.17609e-05
4.80757e-05
2.58674e-05
7.93839e-05
1.55701e-05
0.000113688
6.22487e-07
0.000138046
-1.7731e-05
0.000150521
-4.09674e-05
0.000152157
-6.30396e-05
0.000137065
-7.86308e-05
0.000106309
-8.77197e-05
6.7015e-05
-8.89296e-05
2.0288e-05
-8.20865e-05
-2.67283e-05
-6.93427e-05
-6.7554e-05
-4.96116e-05
-0.000105576
-2.11893e-05
-0.000124905
5.99568e-06
-0.000123201
2.65617e-05
-0.000111236
3.88498e-05
-8.74278e-05
4.0748e-05
-4.72752e-05
3.9633e-05
-3.12531e-05
3.82627e-05
-1.32408e-05
3.19728e-05
9.98373e-06
2.36142e-05
2.5823e-05
1.36992e-05
3.69232e-05
2.69021e-06
4.38141e-05
-8.43561e-06
4.69653e-05
-1.88317e-05
4.52781e-05
-2.86371e-05
4.02532e-05
-3.7021e-05
3.27784e-05
-4.36663e-05
2.28904e-05
-4.86109e-05
1.13138e-05
-5.17402e-05
-1.43363e-06
-5.23416e-05
-1.44015e-05
-5.05957e-05
-2.64685e-05
-4.75847e-05
-3.72766e-05
-4.39273e-05
-4.65673e-05
-4.01799e-05
-5.4059e-05
-3.68345e-05
-6.01235e-05
-3.40892e-05
-6.52283e-05
-3.21839e-05
-7.01063e-05
-3.06047e-05
-7.64383e-05
-8.4832e-05
-2.90684e-05
-0.000101115
-0.00012336
-7.50024e-05
-4.14294e-05
-5.26233e-05
2.56965e-05
-3.89247e-05
6.56853e-05
-2.34945e-05
9.82581e-05
-9.24223e-06
0.000123794
1.48377e-06
0.000139795
7.21291e-06
0.000146428
9.65933e-06
0.000134619
7.37276e-06
0.000108595
4.92117e-06
6.94666e-05
6.24867e-06
1.89605e-05
9.84579e-06
-3.03255e-05
1.26927e-05
-7.04009e-05
1.24989e-05
-0.000105382
1.69251e-05
-0.000129332
2.624e-05
-0.000132516
3.41005e-05
-0.000119097
3.29311e-05
-8.62585e-05
3.13547e-05
-4.56988e-05
2.47201e-05
-2.46186e-05
1.78555e-05
-6.37621e-06
1.10729e-05
1.67663e-05
3.94226e-06
3.29537e-05
-3.61091e-06
4.44764e-05
-1.15417e-05
5.17449e-05
-1.90602e-05
5.44837e-05
-2.6322e-05
5.25399e-05
-3.33009e-05
4.72322e-05
-3.94841e-05
3.89615e-05
-4.46331e-05
2.80395e-05
-4.85808e-05
1.52615e-05
-5.15263e-05
1.51184e-06
-5.34599e-05
-1.2468e-05
-5.43202e-05
-2.56082e-05
-5.43899e-05
-3.72069e-05
-5.40692e-05
-4.6888e-05
-5.38538e-05
-5.42744e-05
-5.43735e-05
-5.96037e-05
-5.60245e-05
-6.35774e-05
-5.91348e-05
-6.6996e-05
-6.42493e-05
-7.13238e-05
-7.86445e-05
-7.04368e-05
-0.000113776
-0.000123359
-9.00053e-05
-6.52004e-05
-5.43134e-05
-9.99529e-06