/*--------------------------------*- C++ -*----------------------------------*\
| =========                 |                                                 |
| \\      /  F ield         | OpenFOAM: The Open Source CFD Toolbox           |
|  \\    /   O peration     | Version:  2206                                  |
|   \\  /    A nd           | Website:  www.openfoam.com                      |
|    \\/     M anipulation  |                                                 |
\*---------------------------------------------------------------------------*/
FoamFile
{
    version     2.0;
    format      ascii;
    arch        "LSB;label=32;scalar=64";
    class       surfaceScalarField;
    location    "18.8001";
    object      phi;
}
// * * * * * * * * * * * * * * * * * * * * * * * * * * * * * * * * * * * * * //

dimensions      [0 3 -1 0 0 0 0];

oriented        oriented;

internalField   nonuniform List<scalar> 
9559
(
1.15381e-05
9.71907e-07
-1.00346e-06
1.15643e-05
1.25913e-06
-1.28536e-06
1.15847e-05
1.52701e-06
-1.54738e-06
1.15988e-05
1.77291e-06
-1.787e-06
1.16063e-05
1.99484e-06
-2.00239e-06
1.16072e-05
2.1915e-06
-2.1924e-06
1.16015e-05
2.36223e-06
-2.35648e-06
1.15892e-05
2.50695e-06
-2.49464e-06
1.15705e-05
2.62613e-06
-2.60746e-06
1.15457e-05
2.72076e-06
-2.69596e-06
1.1515e-05
2.79218e-06
-2.76143e-06
1.14781e-05
2.84194e-06
-2.80511e-06
1.14345e-05
2.87122e-06
-2.82762e-06
1.13837e-05
2.88043e-06
-2.82962e-06
1.13264e-05
2.87103e-06
-2.81367e-06
1.12631e-05
2.84575e-06
-2.78246e-06
1.11946e-05
2.80679e-06
-2.73833e-06
1.11219e-05
2.75587e-06
-2.68316e-06
1.1046e-05
2.69414e-06
-2.61825e-06
1.09681e-05
2.62208e-06
-2.54418e-06
1.08894e-05
2.53955e-06
-2.46087e-06
1.08112e-05
2.44586e-06
-2.36765e-06
1.07347e-05
2.33997e-06
-2.26343e-06
1.06609e-05
2.22061e-06
-2.14687e-06
1.05911e-05
2.08651e-06
-2.01663e-06
1.0526e-05
1.93655e-06
-1.87152e-06
1.04668e-05
1.76994e-06
-1.71072e-06
1.04142e-05
1.58639e-06
-1.53381e-06
1.03691e-05
1.38612e-06
-1.34094e-06
1.03319e-05
1.17e-06
-1.13283e-06
1.03032e-05
9.39475e-07
-9.10806e-07
1.02834e-05
6.9652e-07
-6.76703e-07
1.02727e-05
4.43603e-07
-4.32853e-07
1.0271e-05
1.83658e-07
-1.82012e-07
1.02782e-05
-7.98114e-08
7.25736e-08
1.02939e-05
-3.42549e-07
3.26889e-07
1.03174e-05
-6.01236e-07
5.77695e-07
1.03482e-05
-8.52895e-07
8.2215e-07
1.03854e-05
-1.09474e-06
1.05756e-06
1.04281e-05
-1.32417e-06
1.2814e-06
1.04756e-05
-1.53888e-06
1.49145e-06
1.05267e-05
-1.73696e-06
1.68581e-06
1.05807e-05
-1.91691e-06
1.86298e-06
1.06364e-05
-2.07765e-06
2.02188e-06
1.06931e-05
-2.2185e-06
2.16183e-06
1.07497e-05
-2.33923e-06
2.28257e-06
1.08056e-05
-2.44013e-06
2.38426e-06
1.086e-05
-2.52179e-06
2.46742e-06
1.09123e-05
-2.58517e-06
2.53282e-06
1.09624e-05
-2.63142e-06
2.58134e-06
1.10103e-05
-2.66169e-06
2.61382e-06
1.10563e-05
-2.6765e-06
2.63048e-06
1.11006e-05
-2.67468e-06
2.63042e-06
1.1143e-05
-2.65541e-06
2.61297e-06
1.11838e-05
-2.61906e-06
2.57832e-06
1.12232e-05
-2.5661e-06
2.52669e-06
1.12617e-05
-2.49671e-06
2.45817e-06
1.12999e-05
-2.41081e-06
2.37265e-06
1.13381e-05
-2.30808e-06
2.26988e-06
1.13766e-05
-2.18815e-06
2.14958e-06
1.14158e-05
-2.0507e-06
2.01154e-06
1.14556e-05
-1.89554e-06
1.85569e-06
1.14962e-05
-1.72276e-06
1.68223e-06
1.15372e-05
-1.53276e-06
1.49169e-06
1.15786e-05
-1.32635e-06
1.28496e-06
1.162e-05
-1.10472e-06
1.06331e-06
1.16611e-05
-8.69502e-07
8.28425e-07
1.17015e-05
-6.22731e-07
5.82381e-07
1.17406e-05
-3.66901e-07
3.27731e-07
1.1778e-05
-1.05128e-07
6.77151e-08
1.18129e-05
1.58288e-07
-1.93127e-07
1.18446e-05
4.1909e-07
-4.50846e-07
1.18728e-05
6.74047e-07
-7.02226e-07
1.1897e-05
9.20037e-07
-9.44181e-07
1.19167e-05
1.15414e-06
-1.17384e-06
1.19316e-05
1.37371e-06
-1.3886e-06
1.19413e-05
1.57642e-06
-1.5862e-06
1.19458e-05
1.76032e-06
-1.76475e-06
1.19447e-05
1.92391e-06
-1.92282e-06
1.1938e-05
2.06614e-06
-2.05943e-06
1.19256e-05
2.18645e-06
-2.17411e-06
1.19077e-05
2.28481e-06
-2.26693e-06
1.18844e-05
2.36169e-06
-2.33839e-06
1.18558e-05
2.41802e-06
-2.38935e-06
1.18213e-05
2.45488e-06
-2.42039e-06
1.178e-05
2.4727e-06
-2.43141e-06
1.1732e-05
2.47146e-06
-2.42348e-06
1.1678e-05
2.4532e-06
-2.39923e-06
1.16189e-05
2.42031e-06
-2.36113e-06
1.15555e-05
2.37488e-06
-2.31151e-06
1.14891e-05
2.31872e-06
-2.25228e-06
1.14207e-05
2.25318e-06
-2.18483e-06
1.13516e-05
2.17901e-06
-2.10992e-06
1.12829e-05
2.09642e-06
-2.02771e-06
1.12156e-05
2.00519e-06
-1.93788e-06
1.11506e-05
1.90472e-06
-1.83972e-06
1.10887e-05
1.7942e-06
-1.73233e-06
1.10307e-05
1.67281e-06
-1.61476e-06
1.09771e-05
1.53977e-06
-1.48618e-06
1.09285e-05
1.39458e-06
-1.346e-06
1.08854e-05
1.23701e-06
-1.19394e-06
1.08483e-05
1.06725e-06
-1.03009e-06
1.08174e-05
8.85849e-07
-8.54961e-07
1.07931e-05
6.93787e-07
-6.6945e-07
1.07755e-05
4.92407e-07
-4.74832e-07
1.07648e-05
2.83417e-07
-2.72738e-07
1.07611e-05
6.8889e-08
-6.51491e-08
1.07642e-05
-1.48631e-07
1.45547e-07
1.07738e-05
-3.65878e-07
3.56251e-07
1.07896e-05
-5.80226e-07
5.6439e-07
1.08112e-05
-7.89287e-07
7.67683e-07
1.08381e-05
-9.90797e-07
9.6392e-07
1.08697e-05
-1.18256e-06
1.15099e-06
1.09053e-05
-1.36253e-06
1.32692e-06
1.09443e-05
-1.52894e-06
1.48997e-06
1.09858e-05
-1.68031e-06
1.63871e-06
1.10293e-05
-1.81546e-06
1.77201e-06
1.10738e-05
-1.93357e-06
1.88907e-06
1.11186e-05
-2.03423e-06
1.98948e-06
1.11628e-05
-2.11752e-06
2.07324e-06
1.1206e-05
-2.18385e-06
2.14068e-06
1.12476e-05
-2.23393e-06
2.19236e-06
1.12873e-05
-2.26873e-06
2.22899e-06
1.13254e-05
-2.28924e-06
2.25118e-06
1.1362e-05
-2.29531e-06
2.2587e-06
1.13969e-05
-2.28544e-06
2.25054e-06
1.14298e-05
-2.25966e-06
2.22677e-06
1.14606e-05
-2.2188e-06
2.18794e-06
1.14896e-05
-2.16367e-06
2.13466e-06
1.15171e-05
-2.09488e-06
2.06746e-06
1.15432e-05
-2.01284e-06
1.98673e-06
1.15682e-05
-1.91782e-06
1.89279e-06
1.15923e-05
-1.80989e-06
1.78578e-06
1.16156e-05
-1.68951e-06
1.66624e-06
1.1638e-05
-1.55535e-06
1.53297e-06
1.16593e-05
-1.41444e-06
1.39308e-06
1.16794e-05
-1.23867e-06
1.21858e-06
1.16983e-05
-1.10468e-06
1.08578e-06
-8.08915e-07
7.93524e-07
1.13223e-05
9.384e-07
1.13521e-05
1.22929e-06
1.13776e-05
1.50151e-06
1.13982e-05
1.75229e-06
1.14135e-05
1.97955e-06
1.14232e-05
2.18186e-06
1.1427e-05
2.35843e-06
1.14248e-05
2.50908e-06
1.14168e-05
2.63417e-06
1.14029e-05
2.73462e-06
1.13834e-05
2.81171e-06
1.13583e-05
2.86703e-06
1.13273e-05
2.90228e-06
1.12892e-05
2.91843e-06
1.12445e-05
2.91582e-06
1.11936e-05
2.89663e-06
1.11373e-05
2.86302e-06
1.10767e-05
2.81648e-06
1.10129e-05
2.75804e-06
1.09468e-05
2.68811e-06
1.08799e-05
2.6065e-06
1.08132e-05
2.51258e-06
1.07478e-05
2.40533e-06
1.06849e-05
2.28355e-06
1.06254e-05
2.146e-06
1.05703e-05
1.99161e-06
1.05206e-05
1.81968e-06
1.0477e-05
1.62998e-06
1.04402e-05
1.42291e-06
1.04107e-05
1.19944e-06
1.03891e-05
9.61124e-07
1.03755e-05
7.10083e-07
1.03702e-05
4.4893e-07
1.03731e-05
1.80764e-07
1.03839e-05
-9.06547e-08
1.04022e-05
-3.60826e-07
1.04274e-05
-6.26381e-07
1.04587e-05
-8.84219e-07
1.04954e-05
-1.13148e-06
1.05367e-05
-1.36545e-06
1.05816e-05
-1.5838e-06
1.06293e-05
-1.78464e-06
1.06788e-05
-1.96645e-06
1.07294e-05
-2.12818e-06
1.07801e-05
-2.26917e-06
1.083e-05
-2.38922e-06
1.08786e-05
-2.48868e-06
1.0925e-05
-2.5682e-06
1.09687e-05
-2.62888e-06
1.10095e-05
-2.67219e-06
1.10474e-05
-2.69965e-06
1.10831e-05
-2.71215e-06
1.11165e-05
-2.70806e-06
1.11473e-05
-2.68629e-06
1.1176e-05
-2.64769e-06
1.12029e-05
-2.59306e-06
1.12289e-05
-2.52265e-06
1.12544e-05
-2.43631e-06
1.128e-05
-2.33369e-06
1.13061e-05
-2.21431e-06
1.13332e-05
-2.07774e-06
1.13613e-05
-1.92369e-06
1.13907e-05
-1.75211e-06
1.14212e-05
-1.56331e-06
1.14528e-05
-1.35798e-06
1.14853e-05
-1.13724e-06
1.15185e-05
-9.0266e-07
1.1552e-05
-6.56221e-07
1.15855e-05
-4.00369e-07
1.16185e-05
-1.38127e-07
1.16502e-05
1.26504e-07
1.16803e-05
3.89026e-07
1.17081e-05
6.46206e-07
1.17333e-05
8.94913e-07
1.17552e-05
1.13221e-06
1.17735e-05
1.35541e-06
1.17878e-05
1.56212e-06
1.17978e-05
1.75035e-06
1.18031e-05
1.91855e-06
1.18037e-05
2.06559e-06
1.17993e-05
2.19082e-06
1.179e-05
2.29412e-06
1.17758e-05
2.37588e-06
1.17569e-05
2.43698e-06
1.17331e-05
2.47868e-06
1.17036e-05
2.50214e-06
1.16676e-05
2.50749e-06
1.16255e-05
2.49527e-06
1.15782e-05
2.46767e-06
1.15265e-05
2.42651e-06
1.14717e-05
2.37354e-06
1.14148e-05
2.3101e-06
1.13569e-05
2.23693e-06
1.1299e-05
2.15429e-06
1.12421e-05
2.06204e-06
1.11872e-05
1.95967e-06
1.11349e-05
1.84648e-06
1.1086e-05
1.72172e-06
1.10411e-05
1.5847e-06
1.10007e-05
1.43498e-06
1.09652e-05
1.27245e-06
1.09352e-05
1.09733e-06
1.09107e-05
9.10277e-07
1.08922e-05
7.12326e-07
1.08797e-05
5.04895e-07
1.08733e-05
2.89766e-07
1.08731e-05
6.90941e-08
1.08789e-05
-1.54405e-07
1.08904e-05
-3.77317e-07
1.09071e-05
-5.96979e-07
1.09287e-05
-8.10901e-07
1.09547e-05
-1.01679e-06
1.09845e-05
-1.21234e-06
1.10174e-05
-1.39548e-06
1.10529e-05
-1.56441e-06
1.10902e-05
-1.71764e-06
1.11287e-05
-1.85394e-06
1.11676e-05
-1.97244e-06
1.12061e-05
-2.07276e-06
1.12436e-05
-2.15502e-06
1.12794e-05
-2.21966e-06
1.1313e-05
-2.26751e-06
1.13441e-05
-2.29987e-06
1.13731e-05
-2.31821e-06
1.14004e-05
-2.32255e-06
1.14254e-05
-2.31052e-06
1.1448e-05
-2.2822e-06
1.1468e-05
-2.23887e-06
1.1486e-05
-2.18162e-06
1.15023e-05
-2.1112e-06
1.15174e-05
-2.02791e-06
1.15315e-05
-1.93196e-06
1.1545e-05
-1.82333e-06
1.15579e-05
-1.7024e-06
1.15702e-05
-1.5677e-06
1.1582e-05
-1.42618e-06
1.15929e-05
-1.24965e-06
1.16031e-05
-1.11486e-06
-8.16622e-07
1.11142e-05
9.03512e-07
1.1147e-05
1.19642e-06
1.11771e-05
1.47142e-06
1.12037e-05
1.72566e-06
1.12263e-05
1.95699e-06
1.12443e-05
2.16386e-06
1.12574e-05
2.34538e-06
1.12652e-05
2.50125e-06
1.12676e-05
2.63173e-06
1.12646e-05
2.73764e-06
1.12562e-05
2.82013e-06
1.12425e-05
2.88072e-06
1.12235e-05
2.92124e-06
1.11986e-05
2.94341e-06
1.11666e-05
2.94777e-06
1.11282e-05
2.935e-06
1.10844e-05
2.90687e-06
1.10361e-05
2.86473e-06
1.09846e-05
2.80955e-06
1.0931e-05
2.74176e-06
1.08763e-05
2.66119e-06
1.08216e-05
2.56724e-06
1.0768e-05
2.45894e-06
1.07165e-05
2.33508e-06
1.0668e-05
2.19444e-06
1.06236e-05
2.03601e-06
1.05841e-05
1.8592e-06
1.05502e-05
1.66391e-06
1.05224e-05
1.45067e-06
1.05013e-05
1.22056e-06
1.04872e-05
9.75254e-07
1.04803e-05
7.1698e-07
1.04807e-05
4.4851e-07
1.04883e-05
1.73107e-07
1.05029e-05
-1.05211e-07
1.05238e-05
-3.81716e-07
1.05504e-05
-6.53028e-07
1.05821e-05
-9.15931e-07
1.06181e-05
-1.16748e-06
1.06576e-05
-1.40488e-06
1.06995e-05
-1.62578e-06
1.07432e-05
-1.82833e-06
1.07878e-05
-2.01103e-06
1.08325e-05
-2.17284e-06
1.08765e-05
-2.31317e-06
1.09191e-05
-2.43188e-06
1.09598e-05
-2.52937e-06
1.09978e-05
-2.60619e-06
1.10325e-05
-2.66356e-06
1.10636e-05
-2.70326e-06
1.10912e-05
-2.72725e-06
1.11161e-05
-2.73712e-06
1.11385e-05
-2.73043e-06
1.11576e-05
-2.70539e-06
1.11739e-05
-2.66392e-06
1.11881e-05
-2.60727e-06
1.12011e-05
-2.53572e-06
1.12138e-05
-2.44896e-06
1.12267e-05
-2.34654e-06
1.12402e-05
-2.2279e-06
1.1255e-05
-2.09251e-06
1.12713e-05
-1.93996e-06
1.12893e-05
-1.7701e-06
1.13091e-05
-1.58312e-06
1.13307e-05
-1.37962e-06
1.13541e-05
-1.16064e-06
1.13791e-05
-9.27651e-07
1.14055e-05
-6.82598e-07
1.1433e-05
-4.27868e-07
1.14612e-05
-1.66374e-07
1.14896e-05
9.81191e-08
1.15176e-05
3.6104e-07
1.15447e-05
6.19101e-07
1.15704e-05
8.6919e-07
1.15943e-05
1.10837e-06
1.16158e-05
1.33395e-06
1.16344e-05
1.5435e-06
1.16497e-05
1.73499e-06
1.16615e-05
1.90681e-06
1.16693e-05
2.05779e-06
1.16729e-05
2.18722e-06
1.16721e-05
2.29487e-06
1.1667e-05
2.38104e-06
1.16574e-05
2.4465e-06
1.16437e-05
2.4924e-06
1.16256e-05
2.52027e-06
1.16018e-05
2.53132e-06
1.15717e-05
2.52532e-06
1.15362e-05
2.50319e-06
1.14964e-05
2.46629e-06
1.14534e-05
2.41654e-06
1.14082e-05
2.35532e-06
1.13618e-05
2.28333e-06
1.13152e-05
2.20089e-06
1.12693e-05
2.10795e-06
1.12249e-05
2.00408e-06
1.11827e-05
1.88863e-06
1.11435e-05
1.76092e-06
1.11079e-05
1.62038e-06
1.10762e-05
1.46663e-06
1.1049e-05
1.29966e-06
1.10265e-05
1.1198e-06
1.1009e-05
9.2775e-07
1.09967e-05
7.24624e-07
1.09897e-05
5.11906e-07
1.0988e-05
2.91456e-07
1.09916e-05
6.5505e-08
1.10003e-05
-1.63057e-07
1.10137e-05
-3.90682e-07
1.10314e-05
-6.14693e-07
1.1053e-05
-8.3251e-07
1.1078e-05
-1.0418e-06
1.11058e-05
-1.24016e-06
1.11358e-05
-1.42552e-06
1.11675e-05
-1.59608e-06
1.12002e-05
-1.7503e-06
1.12332e-05
-1.88696e-06
1.12659e-05
-2.00518e-06
1.12978e-05
-2.10461e-06
1.13281e-05
-2.18533e-06
1.13562e-05
-2.24779e-06
1.13816e-05
-2.29286e-06
1.14039e-05
-2.32216e-06
1.14233e-05
-2.33769e-06
1.1441e-05
-2.3402e-06
1.14561e-05
-2.3256e-06
1.14679e-05
-2.29402e-06
1.14768e-05
-2.2478e-06
1.14835e-05
-2.18827e-06
1.14885e-05
-2.11621e-06
1.14923e-05
-2.03178e-06
1.14955e-05
-1.93508e-06
1.14981e-05
-1.82601e-06
1.15006e-05
-1.70483e-06
1.15029e-05
-1.56999e-06
1.1505e-05
-1.42828e-06
1.15069e-05
-1.25154e-06
1.15084e-05
-1.11639e-06
-8.16782e-07
1.09164e-05
8.67825e-07
1.09517e-05
1.16114e-06
1.09857e-05
1.43738e-06
1.10177e-05
1.69367e-06
1.10469e-05
1.92778e-06
1.10726e-05
2.1381e-06
1.10944e-05
2.32362e-06
1.11117e-05
2.48394e-06
1.11243e-05
2.61918e-06
1.11317e-05
2.73017e-06
1.1134e-05
2.81783e-06
1.11313e-05
2.88345e-06
1.11237e-05
2.92884e-06
1.11111e-05
2.95598e-06
1.10927e-05
2.96617e-06
1.10673e-05
2.96043e-06
1.10362e-05
2.93797e-06
1.10008e-05
2.90012e-06
1.09622e-05
2.84818e-06
1.09214e-05
2.78254e-06
1.08795e-05
2.70314e-06
1.08373e-05
2.6094e-06
1.07959e-05
2.50032e-06
1.07564e-05
2.37464e-06
1.07196e-05
2.23118e-06
1.06866e-05
2.06908e-06
1.06579e-05
1.88787e-06
1.06342e-05
1.68759e-06
1.0616e-05
1.46887e-06
1.06037e-05
1.23289e-06
1.05975e-05
9.81445e-07
1.05976e-05
7.1688e-07
1.0604e-05
4.42097e-07
1.06166e-05
1.60535e-07
1.06349e-05
-1.235e-07
1.06583e-05
-4.05141e-07
1.06863e-05
-6.81009e-07
1.07181e-05
-9.47776e-07
1.07531e-05
-1.20239e-06
1.07902e-05
-1.44204e-06
1.08288e-05
-1.66438e-06
1.0868e-05
-1.86756e-06
1.09071e-05
-2.05009e-06
1.09452e-05
-2.21097e-06
1.09819e-05
-2.3498e-06
1.10165e-05
-2.4665e-06
1.10486e-05
-2.56144e-06
1.10776e-05
-2.6352e-06
1.1103e-05
-2.68898e-06
1.11243e-05
-2.72454e-06
1.11413e-05
-2.74426e-06
1.11551e-05
-2.75091e-06
1.11663e-05
-2.74168e-06
1.11733e-05
-2.71238e-06
1.1177e-05
-2.66764e-06
1.11785e-05
-2.60872e-06
1.11786e-05
-2.5359e-06
1.11784e-05
-2.44871e-06
1.11784e-05
-2.34658e-06
1.11794e-05
-2.22888e-06
1.11819e-05
-2.09496e-06
1.11862e-05
-1.94432e-06
1.11928e-05
-1.77668e-06
1.12018e-05
-1.59215e-06
1.12134e-05
-1.3912e-06
1.12276e-05
-1.1748e-06
1.12443e-05
-9.44345e-07
1.12634e-05
-7.01709e-07
1.12847e-05
-4.49209e-07
1.1308e-05
-1.89657e-07
1.13327e-05
7.33772e-08
1.13584e-05
3.35391e-07
1.13845e-05
5.93015e-07
1.14105e-05
8.43175e-07
1.14359e-05
1.08295e-06
1.14602e-05
1.30968e-06
1.14828e-05
1.52087e-06
1.15033e-05
1.71452e-06
1.15211e-05
1.88897e-06
1.15359e-05
2.043e-06
1.15473e-05
2.17586e-06
1.15549e-05
2.28723e-06
1.15586e-05
2.37734e-06
1.15584e-05
2.44675e-06
1.15544e-05
2.49631e-06
1.1547e-05
2.52774e-06
1.15354e-05
2.54286e-06
1.15178e-05
2.54296e-06
1.14937e-05
2.52726e-06
1.14658e-05
2.49419e-06
1.14348e-05
2.44754e-06
1.14016e-05
2.38854e-06
1.13671e-05
2.31787e-06
1.13321e-05
2.23588e-06
1.12975e-05
2.14257e-06
1.1264e-05
2.03754e-06
1.12324e-05
1.9202e-06
1.12034e-05
1.78995e-06
1.11775e-05
1.64631e-06
1.11551e-05
1.48904e-06
1.11365e-05
1.3182e-06
1.11221e-05
1.13421e-06
1.1112e-05
9.37862e-07
1.11063e-05
7.30319e-07
1.11051e-05
5.13131e-07
1.11083e-05
2.88228e-07
1.11159e-05
5.79293e-08
1.11276e-05
-1.74711e-07
1.11429e-05
-4.06038e-07
1.11616e-05
-6.33371e-07
1.11831e-05
-8.54068e-07
1.12071e-05
-1.06571e-06
1.12328e-05
-1.26587e-06
1.12597e-05
-1.45246e-06
1.12873e-05
-1.62367e-06
1.13149e-05
-1.77794e-06
1.1342e-05
-1.91405e-06
1.13681e-05
-2.03125e-06
1.13927e-05
-2.1292e-06
1.14153e-05
-2.20791e-06
1.14353e-05
-2.26782e-06
1.14523e-05
-2.30986e-06
1.14659e-05
-2.33571e-06
1.14759e-05
-2.34776e-06
1.14839e-05
-2.34815e-06
1.14882e-05
-2.32988e-06
1.14888e-05
-2.29464e-06
1.14865e-05
-2.24556e-06
1.14821e-05
-2.18379e-06
1.14758e-05
-2.10993e-06
1.14683e-05
-2.02435e-06
1.14603e-05
-1.92704e-06
1.14521e-05
-1.8178e-06
1.1444e-05
-1.69675e-06
1.14363e-05
-1.56222e-06
1.14288e-05
-1.42081e-06
1.14217e-05
-1.24448e-06
1.14148e-05
-1.10942e-06
-8.09598e-07
1.07311e-05
1.07682e-05
1.08056e-05
1.08423e-05
1.08776e-05
1.09105e-05
1.09405e-05
1.09669e-05
1.09892e-05
1.10069e-05
1.10199e-05
1.10281e-05
1.10317e-05
1.10311e-05
1.10259e-05
1.10138e-05
1.0995e-05
1.09723e-05
1.09467e-05
1.09191e-05
1.08901e-05
1.08607e-05
1.0832e-05
1.0805e-05
1.07806e-05
1.07594e-05
1.07422e-05
1.07292e-05
1.07211e-05
1.0718e-05
1.072e-05
1.07274e-05
1.07399e-05
1.07575e-05
1.07795e-05
1.08053e-05
1.08344e-05
1.0866e-05
1.08995e-05
1.0934e-05
1.09687e-05
1.1003e-05
1.1036e-05
1.10672e-05
1.10959e-05
1.11217e-05
1.11443e-05
1.11634e-05
1.11789e-05
1.11904e-05
1.11974e-05
1.12003e-05
1.11986e-05
1.1193e-05
1.11844e-05
1.11736e-05
1.11611e-05
1.1148e-05
1.11354e-05
1.11238e-05
1.11141e-05
1.11066e-05
1.11019e-05
1.11002e-05
1.11017e-05
1.11067e-05
1.11151e-05
1.11269e-05
1.1142e-05
1.11602e-05
1.11811e-05
1.12042e-05
1.12291e-05
1.12552e-05
1.12819e-05
1.13087e-05
1.13351e-05
1.13604e-05
1.1384e-05
1.14055e-05
1.14244e-05
1.14403e-05
1.14529e-05
1.1462e-05
1.14678e-05
1.14705e-05
1.147e-05
1.14647e-05
1.14523e-05
1.1436e-05
1.1417e-05
1.13958e-05
1.13733e-05
1.13501e-05
1.1327e-05
1.13047e-05
1.12841e-05
1.12656e-05
1.12499e-05
1.12371e-05
1.12276e-05
1.12216e-05
1.12192e-05
1.12204e-05
1.12252e-05
1.12335e-05
1.12452e-05
1.12599e-05
1.12773e-05
1.12969e-05
1.13183e-05
1.1341e-05
1.13644e-05
1.13881e-05
1.14114e-05
1.14338e-05
1.14547e-05
1.14737e-05
1.14904e-05
1.15045e-05
1.15158e-05
1.15241e-05
1.15295e-05
1.15311e-05
1.15282e-05
1.15205e-05
1.15095e-05
1.14959e-05
1.14802e-05
1.14628e-05
1.14444e-05
1.14255e-05
1.14067e-05
1.13883e-05
1.13707e-05
1.13538e-05
1.1338e-05
1.13228e-05
-1.09421e-06
-7.95367e-07
1.12328e-05
1.19875e-06
8.27838e-09
1.19181e-06
6.94185e-09
1.18625e-06
5.55955e-09
1.18208e-06
4.17331e-09
1.17926e-06
2.8206e-09
1.17772e-06
1.53425e-09
1.17739e-06
3.30122e-10
1.17801e-06
-6.11028e-10
1.17948e-06
-1.47861e-09
1.18164e-06
-2.15287e-09
1.18427e-06
-2.63329e-09
1.1872e-06
-2.93265e-09
1.19027e-06
-3.06326e-09
1.19331e-06
-3.03967e-09
1.19619e-06
-2.8825e-09
1.1988e-06
-2.61322e-09
1.20106e-06
-2.25717e-09
1.20291e-06
-1.84811e-09
1.20432e-06
-1.41723e-09
1.20532e-06
-9.93094e-10
1.20592e-06
-6.02237e-10
1.20619e-06
-2.65785e-10
1.2062e-06
-1.49171e-11
1.20605e-06
1.52938e-10
1.20582e-06
2.28139e-10
1.20562e-06
2.01831e-10
1.20555e-06
6.6115e-11
1.20567e-06
-1.23403e-10
1.20609e-06
-4.19489e-10
1.2069e-06
-8.04659e-10
1.20815e-06
-1.25528e-09
1.20991e-06
-1.76049e-09
1.21222e-06
-2.30465e-09
1.21509e-06
-2.86996e-09
1.21853e-06
-3.43973e-09
1.22254e-06
-4.00998e-09
1.22709e-06
-4.55138e-09
1.23214e-06
-5.05254e-09
1.23764e-06
-5.49833e-09
1.24352e-06
-5.8761e-09
1.24969e-06
-6.1732e-09
1.25607e-06
-6.37506e-09
1.26254e-06
-6.47067e-09
1.26899e-06
-6.45119e-09
1.2753e-06
-6.31145e-09
1.28135e-06
-6.04689e-09
1.287e-06
-5.65751e-09
1.29215e-06
-5.1453e-09
1.29666e-06
-4.51248e-09
1.30042e-06
-3.76309e-09
1.30333e-06
-2.90534e-09
1.3053e-06
-1.9736e-09
1.30626e-06
-9.60252e-10
1.30626e-06
7.21854e-12
1.3053e-06
9.55294e-10
1.30334e-06
1.96206e-09
1.30039e-06
2.94409e-09
1.29652e-06
3.87259e-09
1.29179e-06
4.73163e-09
1.28628e-06
5.50772e-09
1.28009e-06
6.18995e-09
1.27332e-06
6.76922e-09
1.26609e-06
7.23725e-09
1.2585e-06
7.58744e-09
1.25068e-06
7.81617e-09
1.24276e-06
7.92177e-09
1.23486e-06
7.90422e-09
1.22709e-06
7.76805e-09
1.21957e-06
7.52115e-09
1.21239e-06
7.17356e-09
1.20566e-06
6.73752e-09
1.19943e-06
6.2273e-09
1.19377e-06
5.65851e-09
1.18872e-06
5.04907e-09
1.1843e-06
4.41789e-09
1.18052e-06
3.78399e-09
1.17735e-06
3.16565e-09
1.17477e-06
2.58041e-09
1.17273e-06
2.04365e-09
1.17116e-06
1.56773e-09
1.17e-06
1.16184e-09
1.16917e-06
8.32168e-10
1.16859e-06
5.80826e-10
1.16818e-06
4.0574e-10
1.16788e-06
3.00727e-10
1.16762e-06
2.58177e-10
1.16735e-06
2.6879e-10
1.16703e-06
3.21225e-10
1.16663e-06
4.01399e-10
1.16614e-06
4.93795e-10
1.16556e-06
5.82542e-10
1.1649e-06
6.53445e-10
1.16421e-06
6.95639e-10
1.16351e-06
7.00851e-10
1.16284e-06
6.60759e-10
1.16228e-06
5.64123e-10
1.16188e-06
3.95725e-10
1.16175e-06
1.30812e-10
1.1619e-06
-1.43585e-10
1.16239e-06
-4.91878e-10
1.16331e-06
-9.2014e-10
1.16472e-06
-1.40942e-09
1.16667e-06
-1.94734e-09
1.16919e-06
-2.52335e-09
1.17232e-06
-3.12758e-09
1.17607e-06
-3.75042e-09
1.18045e-06
-4.38254e-09
1.18547e-06
-5.0152e-09
1.19111e-06
-5.64107e-09
1.19736e-06
-6.25374e-09
1.20421e-06
-6.84584e-09
1.21161e-06
-7.40755e-09
1.21954e-06
-7.92542e-09
1.22792e-06
-8.38338e-09
1.23669e-06
-8.7631e-09
1.24573e-06
-9.04727e-09
1.25496e-06
-9.22479e-09
1.26425e-06
-9.29375e-09
1.27351e-06
-9.26268e-09
1.28266e-06
-9.14679e-09
1.29162e-06
-8.96075e-09
1.30034e-06
-8.71411e-09
1.30875e-06
-8.4105e-09
1.3168e-06
-8.05622e-09
1.32446e-06
-7.65762e-09
1.33168e-06
-7.22426e-09
1.33845e-06
-6.7666e-09
1.34475e-06
-6.30052e-09
1.35059e-06
-5.84016e-09
1.35599e-06
-5.39354e-09
1.36095e-06
-4.96703e-09
1.36552e-06
-4.56878e-09
1.36973e-06
-4.20727e-09
1.3736e-06
-3.87672e-09
1.3772e-06
-3.59588e-09
1.38048e-06
-3.27621e-09
1.38361e-06
-3.13507e-09
1.38646e-06
-2.84996e-09
-3.51924e-09
3.50661e-06
1.75142e-08
3.49896e-06
1.45872e-08
3.49293e-06
1.15917e-08
3.48849e-06
8.6149e-09
3.48558e-06
5.73262e-09
3.48409e-06
3.02161e-09
3.48387e-06
5.5427e-10
3.48483e-06
-1.57669e-09
3.48669e-06
-3.33652e-09
3.48921e-06
-4.67532e-09
3.49217e-06
-5.59347e-09
3.49538e-06
-6.13569e-09
3.49864e-06
-6.32169e-09
3.50178e-06
-6.18442e-09
3.50467e-06
-5.77193e-09
3.50719e-06
-5.1288e-09
3.50923e-06
-4.30364e-09
3.51076e-06
-3.37524e-09
3.51175e-06
-2.41122e-09
3.51222e-06
-1.46089e-09
3.51221e-06
-5.89245e-10
3.51178e-06
1.65531e-10
3.51101e-06
7.47903e-10
3.51003e-06
1.13439e-09
3.50894e-06
1.32042e-09
3.50784e-06
1.30301e-09
3.50683e-06
1.07302e-09
3.50605e-06
6.55809e-10
3.50559e-06
4.03102e-11
3.50554e-06
-7.47094e-10
3.50594e-06
-1.65934e-09
3.50686e-06
-2.68338e-09
3.50834e-06
-3.78069e-09
3.51038e-06
-4.91192e-09
3.51299e-06
-6.04585e-09
3.51614e-06
-7.16242e-09
3.5198e-06
-8.21487e-09
3.52392e-06
-9.17418e-09
3.52843e-06
-1.00075e-08
3.53325e-06
-1.06909e-08
3.53828e-06
-1.12031e-08
3.54342e-06
-1.15133e-08
3.54854e-06
-1.15975e-08
3.55353e-06
-1.14408e-08
3.55826e-06
-1.10351e-08
3.56259e-06
-1.03781e-08
3.56639e-06
-9.46254e-09
3.56955e-06
-8.30135e-09
3.57194e-06
-6.89993e-09
3.57344e-06
-5.26783e-09
3.57398e-06
-3.44199e-09
3.57345e-06
-1.44676e-09
3.57185e-06
6.36953e-10
3.56912e-06
2.74236e-09
3.56523e-06
4.84651e-09
3.56026e-06
6.92659e-09
3.55429e-06
8.919e-09
3.54737e-06
1.07849e-08
3.53961e-06
1.24949e-08
3.5311e-06
1.4019e-08
3.52196e-06
1.53347e-08
3.5123e-06
1.6426e-08
3.50226e-06
1.72776e-08
3.49197e-06
1.78764e-08
3.48157e-06
1.82161e-08
3.4712e-06
1.8296e-08
3.46098e-06
1.81207e-08
3.45105e-06
1.77018e-08
3.44151e-06
1.70567e-08
3.43248e-06
1.62073e-08
3.42403e-06
1.51801e-08
3.41625e-06
1.40058e-08
3.40919e-06
1.27185e-08
3.40289e-06
1.13559e-08
3.39735e-06
9.95778e-09
3.39257e-06
8.56404e-09
3.38852e-06
7.21278e-09
3.38516e-06
5.93951e-09
3.38243e-06
4.77538e-09
3.38025e-06
3.746e-09
3.37854e-06
2.87055e-09
3.37721e-06
2.16049e-09
3.37618e-06
1.61789e-09
3.37535e-06
1.23659e-09
3.37465e-06
1.00149e-09
3.37401e-06
8.95003e-10
3.37338e-06
8.97979e-10
3.37271e-06
9.86798e-10
3.37199e-06
1.13076e-09
3.37118e-06
1.29628e-09
3.37032e-06
1.44955e-09
3.36941e-06
1.55974e-09
3.3685e-06
1.60459e-09
3.36763e-06
1.57035e-09
3.36685e-06
1.44399e-09
3.3662e-06
1.20906e-09
3.36577e-06
8.3323e-10
3.36558e-06
3.17534e-10
3.36583e-06
-3.90914e-10
3.36652e-06
-1.19034e-09
3.36773e-06
-2.12747e-09
3.3695e-06
-3.17887e-09
3.37188e-06
-4.3278e-09
3.37491e-06
-5.55127e-09
3.37861e-06
-6.82691e-09
3.38299e-06
-8.13479e-09
3.38807e-06
-9.4557e-09
3.39382e-06
-1.07707e-08
3.40025e-06
-1.2065e-08
3.40732e-06
-1.3327e-08
3.41502e-06
-1.45443e-08
3.42331e-06
-1.56988e-08
3.43215e-06
-1.67642e-08
3.44147e-06
-1.77074e-08
3.4512e-06
-1.84903e-08
3.46123e-06
-1.90748e-08
3.47144e-06
-1.94344e-08
3.48171e-06
-1.95657e-08
3.49194e-06
-1.9491e-08
3.50204e-06
-1.92514e-08
3.51196e-06
-1.88845e-08
3.52166e-06
-1.84098e-08
3.53108e-06
-1.78342e-08
3.54019e-06
-1.71645e-08
3.54895e-06
-1.64151e-08
3.55733e-06
-1.56078e-08
3.56534e-06
-1.47694e-08
3.57296e-06
-1.39264e-08
3.58023e-06
-1.31069e-08
3.58717e-06
-1.2334e-08
3.59383e-06
-1.16232e-08
3.60025e-06
-1.09897e-08
3.60648e-06
-1.04426e-08
3.61259e-06
-9.98612e-09
3.61862e-06
-9.62143e-09
3.62464e-06
-9.29474e-09
3.63065e-06
-9.14934e-09
3.6367e-06
-8.89935e-09
-9.25858e-09
5.58879e-06
2.8673e-08
5.57941e-06
2.39703e-08
5.57184e-06
1.91597e-08
5.56608e-06
1.43734e-08
5.56208e-06
9.73736e-09
5.55973e-06
5.37306e-09
5.55887e-06
1.415e-09
5.5593e-06
-2.01327e-09
5.56078e-06
-4.81151e-09
5.56301e-06
-6.91134e-09
5.5657e-06
-8.28327e-09
5.56866e-06
-9.08865e-09
5.57166e-06
-9.32572e-09
5.57452e-06
-9.04527e-09
5.57708e-06
-8.3318e-09
5.5792e-06
-7.24696e-09
5.58074e-06
-5.84155e-09
5.58164e-06
-4.28248e-09
5.58189e-06
-2.65518e-09
5.58147e-06
-1.04124e-09
5.58045e-06
4.34383e-10
5.57891e-06
1.70396e-09
5.57695e-06
2.70765e-09
5.57468e-06
3.4059e-09
5.57222e-06
3.77159e-09
5.56973e-06
3.79524e-09
5.5673e-06
3.5002e-09
5.56507e-06
2.89529e-09
5.56313e-06
1.97699e-09
5.56162e-06
7.62652e-10
5.56057e-06
-6.07948e-10
5.56007e-06
-2.18253e-09
5.56016e-06
-3.8707e-09
5.56086e-06
-5.61539e-09
5.56218e-06
-7.36594e-09
5.5641e-06
-9.07847e-09
5.56658e-06
-1.07008e-08
5.56959e-06
-1.21827e-08
5.57305e-06
-1.34632e-08
5.57687e-06
-1.45122e-08
5.58098e-06
-1.53151e-08
5.58527e-06
-1.58001e-08
5.5896e-06
-1.59301e-08
5.59384e-06
-1.56817e-08
5.59786e-06
-1.50536e-08
5.60152e-06
-1.404e-08
5.60468e-06
-1.26255e-08
5.6072e-06
-1.08199e-08
5.60894e-06
-8.6421e-09
5.60977e-06
-6.09859e-09
5.60951e-06
-3.17286e-09
5.60815e-06
-9.23367e-11
5.60563e-06
3.16071e-09
5.60192e-06
6.44496e-09
5.59702e-06
9.75153e-09
5.59093e-06
1.30142e-08
5.58373e-06
1.61169e-08
5.5755e-06
1.90186e-08
5.56632e-06
2.1677e-08
5.5563e-06
2.40367e-08
5.54557e-06
2.60626e-08
5.53426e-06
2.77348e-08
5.52251e-06
2.9029e-08
5.51047e-06
2.99215e-08
5.49828e-06
3.04014e-08
5.48611e-06
3.0467e-08
5.4741e-06
3.01281e-08
5.4624e-06
2.9406e-08
5.45113e-06
2.83283e-08
5.44041e-06
2.69291e-08
5.43034e-06
2.52501e-08
5.421e-06
2.33403e-08
5.41247e-06
2.1254e-08
5.40477e-06
1.90512e-08
5.39793e-06
1.67952e-08
5.39195e-06
1.45501e-08
5.38678e-06
1.23772e-08
5.38239e-06
1.03332e-08
5.3787e-06
8.4679e-09
5.37562e-06
6.82363e-09
5.37306e-06
5.43387e-09
5.3709e-06
4.31538e-09
5.36905e-06
3.4683e-09
5.3674e-06
2.88432e-09
5.36587e-06
2.53319e-09
5.36438e-06
2.38222e-09
5.36288e-06
2.40717e-09
5.36129e-06
2.57562e-09
5.35958e-06
2.83278e-09
5.35776e-06
3.12495e-09
5.35581e-06
3.39694e-09
5.35377e-06
3.59439e-09
5.3517e-06
3.67887e-09
5.34963e-06
3.63813e-09
5.34762e-06
3.45718e-09
5.34572e-06
3.10684e-09
5.34402e-06
2.53843e-09
5.34262e-06
1.71492e-09
5.34159e-06
6.40758e-10
5.34099e-06
-5.98646e-10
5.34094e-06
-2.07409e-09
5.3415e-06
-3.73458e-09
5.34272e-06
-5.54894e-09
5.34464e-06
-7.47271e-09
5.34728e-06
-9.46998e-09
5.35066e-06
-1.15138e-08
5.35478e-06
-1.3576e-08
5.35964e-06
-1.56243e-08
5.36521e-06
-1.76353e-08
5.37147e-06
-1.95962e-08
5.37842e-06
-2.14943e-08
5.38603e-06
-2.33049e-08
5.39425e-06
-2.49879e-08
5.40304e-06
-2.64901e-08
5.41229e-06
-2.77465e-08
5.4219e-06
-2.86846e-08
5.43172e-06
-2.92477e-08
5.44157e-06
-2.94225e-08
5.45134e-06
-2.92573e-08
5.46093e-06
-2.88411e-08
5.47029e-06
-2.82481e-08
5.47939e-06
-2.75089e-08
5.48818e-06
-2.66237e-08
5.49661e-06
-2.55891e-08
5.50462e-06
-2.44269e-08
5.51219e-06
-2.31788e-08
5.51931e-06
-2.18865e-08
5.52598e-06
-2.0597e-08
5.53223e-06
-1.93625e-08
5.53812e-06
-1.82214e-08
5.54369e-06
-1.71915e-08
5.54899e-06
-1.62935e-08
5.55408e-06
-1.55329e-08
5.55904e-06
-1.49429e-08
5.56392e-06
-1.45031e-08
5.56881e-06
-1.41803e-08
5.57369e-06
-1.40375e-08
5.57867e-06
-1.38778e-08
-1.39978e-08
7.32024e-06
4.01547e-08
7.31104e-06
3.31744e-08
7.30415e-06
2.6045e-08
7.29958e-06
1.89471e-08
7.29726e-06
1.20579e-08
7.29708e-06
5.55587e-09
7.29876e-06
-2.70558e-10
7.30196e-06
-5.21559e-09
7.30632e-06
-9.16343e-09
7.31146e-06
-1.20542e-08
7.31704e-06
-1.38626e-08
7.32272e-06
-1.4767e-08
7.32821e-06
-1.48177e-08
7.33331e-06
-1.41439e-08
7.33783e-06
-1.28551e-08
7.34158e-06
-1.09981e-08
7.3444e-06
-8.66527e-09
7.34626e-06
-6.14195e-09
7.34719e-06
-3.57856e-09
7.34714e-06
-9.8928e-10
7.34617e-06
1.39958e-09
7.34444e-06
3.43037e-09
7.34212e-06
5.03594e-09
7.33935e-06
6.17509e-09
7.33631e-06
6.80446e-09
7.3332e-06
6.91354e-09
7.33009e-06
6.60757e-09
7.32713e-06
5.8535e-09
7.32451e-06
4.59489e-09
7.32234e-06
2.93714e-09
7.32072e-06
1.01016e-09
7.31968e-06
-1.14708e-09
7.31925e-06
-3.43643e-09
7.31943e-06
-5.79904e-09
7.32024e-06
-8.16924e-09
7.32165e-06
-1.04913e-08
7.32364e-06
-1.26944e-08
7.32616e-06
-1.47014e-08
7.32913e-06
-1.64312e-08
7.33245e-06
-1.78315e-08
7.33603e-06
-1.88956e-08
7.33979e-06
-1.95621e-08
7.3436e-06
-1.97365e-08
7.34728e-06
-1.93601e-08
7.35068e-06
-1.84614e-08
7.35369e-06
-1.70431e-08
7.35614e-06
-1.50737e-08
7.35787e-06
-1.25579e-08
7.35877e-06
-9.53441e-09
7.35868e-06
-6.00832e-09
7.35747e-06
-1.96553e-09
7.35485e-06
2.52191e-09
7.35089e-06
7.12403e-09
7.34568e-06
1.16588e-08
7.33912e-06
1.63066e-08
7.33117e-06
2.09615e-08
7.32201e-06
2.52852e-08
7.31174e-06
2.9288e-08
7.30048e-06
3.29366e-08
7.28837e-06
3.61452e-08
7.27556e-06
3.88736e-08
7.26218e-06
4.11153e-08
7.24837e-06
4.28329e-08
7.23431e-06
4.39806e-08
7.22017e-06
4.4541e-08
7.20613e-06
4.45148e-08
7.19234e-06
4.3916e-08
7.17897e-06
4.27733e-08
7.16618e-06
4.11246e-08
7.15409e-06
3.90175e-08
7.14282e-06
3.65121e-08
7.13249e-06
3.36796e-08
7.12314e-06
3.06004e-08
7.11483e-06
2.73614e-08
7.10757e-06
2.4056e-08
7.10134e-06
2.07798e-08
7.09609e-06
1.76238e-08
7.09175e-06
1.46726e-08
7.08822e-06
1.19979e-08
7.08539e-06
9.65824e-09
7.08311e-06
7.71041e-09
7.08124e-06
6.18204e-09
7.07964e-06
5.0711e-09
7.07815e-06
4.37991e-09
7.07666e-06
4.01983e-09
7.07512e-06
3.92262e-09
7.07344e-06
4.08903e-09
7.07151e-06