/*--------------------------------*- C++ -*----------------------------------*\
| =========                 |                                                 |
| \\      /  F ield         | OpenFOAM: The Open Source CFD Toolbox           |
|  \\    /   O peration     | Version:  2206                                  |
|   \\  /    A nd           | Website:  www.openfoam.com                      |
|    \\/     M anipulation  |                                                 |
\*---------------------------------------------------------------------------*/
FoamFile
{
    version     2.0;
    format      ascii;
    arch        "LSB;label=32;scalar=64";
    class       volScalarField;
    location    "18.0999";
    object      p;
}
// * * * * * * * * * * * * * * * * * * * * * * * * * * * * * * * * * * * * * //

dimensions      [0 2 -2 0 0 0 0];

internalField   nonuniform List<scalar> 
4830
(
-0.0149486
-0.0158361
-0.0167418
-0.0176942
-0.0187197
-0.0198568
-0.0212522
-0.0230354
-0.0248209
-0.0265129
-0.0283309
-0.0302533
-0.0322115
-0.0341544
-0.0360215
-0.0377447
-0.0392553
-0.0404866
-0.0413784
-0.0418789
-0.0419414
-0.041587
-0.0407822
-0.0395633
-0.0379694
-0.0360464
-0.0338509
-0.0314546
-0.0289268
-0.0263412
-0.0237717
-0.0212884
-0.0189566
-0.0168459
-0.0150311
-0.0133623
-0.0117472
-0.0108682
-0.0108183
-0.0106998
-0.0109233
-0.0115092
-0.0123757
-0.0134725
-0.0147304
-0.0160673
-0.0174087
-0.0186898
-0.0198475
-0.0208274
-0.0215931
-0.0221478
-0.0224776
-0.0225969
-0.022546
-0.0223777
-0.0221507
-0.0219382
-0.0218147
-0.0218581
-0.0221514
-0.0227452
-0.0237213
-0.0251544
-0.0270546
-0.0291693
-0.0316188
-0.0353853
-0.0392355
-0.0434042
-0.0479869
-0.0528452
-0.0578749
-0.0629703
-0.0680086
-0.0728617
-0.0774
-0.0814969
-0.0850339
-0.0879047
-0.0900251
-0.0913516
-0.0918502
-0.091515
-0.0903642
-0.0884387
-0.0858021
-0.0825328
-0.078723
-0.0744744
-0.0698954
-0.0650905
-0.0601663
-0.055243
-0.0503075
-0.0451258
-0.0403519
-0.0361027
-0.0321188
-0.028475
-0.025236
-0.022406
-0.0199821
-0.017951
-0.016287
-0.0149564
-0.0139196
-0.0131328
-0.0125509
-0.0121285
-0.0118114
-0.0115705
-0.0113762
-0.0111992
-0.0110182
-0.0108202
-0.0105979
-0.0103503
-0.0100829
-0.00980552
-0.00953071
-0.00927338
-0.00907069
-0.00901993
-0.00911794
-0.00912812
-0.00903735
-0.00897762
-0.00892687
-0.00884143
-0.0086882
-0.00842436
-0.00800881
-0.00737708
-0.00651256
-0.00511378
-0.00354611
-0.00084801
-0.0225658
-0.0228993
-0.0232005
-0.023505
-0.0238468
-0.0242603
-0.0248722
-0.0259074
-0.0270144
-0.028002
-0.0291109
-0.0303657
-0.0317029
-0.0330796
-0.0344445
-0.0357358
-0.0368894
-0.037842
-0.0385347
-0.0389162
-0.038945
-0.0386042
-0.0378899
-0.0368122
-0.0354012
-0.0336955
-0.0317435
-0.0296078
-0.027349
-0.0250344
-0.0227358
-0.0205186
-0.0184421
-0.0165631
-0.0149378
-0.0135907
-0.0124021
-0.0115967
-0.0118405
-0.0119091
-0.0122875
-0.0130493
-0.0140898
-0.0153391
-0.0167225
-0.0181662
-0.0196024
-0.0209591
-0.0221694
-0.0231782
-0.0239488
-0.0244848
-0.024772
-0.0248265
-0.0246888
-0.0244101
-0.0240535
-0.0236907
-0.0233943
-0.023245
-0.0233296
-0.0236986
-0.0244092
-0.0255651
-0.0271952
-0.0289845
-0.0310695
-0.0344391
-0.0379434
-0.0417883
-0.04603
-0.0505477
-0.0552449
-0.0600217
-0.0647623
-0.0693454
-0.0736481
-0.0775505
-0.0809402
-0.0837163
-0.0858004
-0.0871475
-0.087725
-0.0875247
-0.0865617
-0.0848742
-0.0825214
-0.0795714
-0.0761141
-0.0722449
-0.0680632
-0.0636689
-0.0591587
-0.054643
-0.0501871
-0.045513
-0.0411053
-0.0373141
-0.0336806
-0.0303635
-0.0274366
-0.0248911
-0.0227222
-0.0209143
-0.01944
-0.0182644
-0.017347
-0.0166433
-0.0161071
-0.0156934
-0.015356
-0.0150566
-0.0147701
-0.0144699
-0.0141372
-0.0137624
-0.0133416
-0.0128786
-0.0123823
-0.0118654
-0.0113438
-0.0108337
-0.0103657
-0.01004
-0.00992088
-0.00974514
-0.00944631
-0.0091934
-0.00898021
-0.00875988
-0.00850086
-0.00816255
-0.00770372
-0.00706023
-0.00621857
-0.00486995
-0.00339888
-0.000779908
-0.0306725
-0.0303795
-0.0299989
-0.029573
-0.0291449
-0.0287563
-0.0285171
-0.0286948
-0.0290494
-0.0293064
-0.029659
-0.0302005
-0.030873
-0.0316403
-0.0324615
-0.0332815
-0.0340422
-0.034684
-0.0351493
-0.0353871
-0.0353546
-0.0350112
-0.0343777
-0.0334338
-0.0322021
-0.0307129
-0.0290103
-0.0271429
-0.0251656
-0.0231404
-0.0211313
-0.019199
-0.0174035
-0.0158015
-0.0144376
-0.0133678
-0.0126248
-0.012326
-0.0122903
-0.0126237
-0.0132796
-0.0142516
-0.0154687
-0.0168607
-0.0183713
-0.0199322
-0.0214652
-0.0228951
-0.0241544
-0.025187
-0.0259564
-0.0264652
-0.0266998
-0.026679
-0.0264434
-0.0260452
-0.0255467
-0.0250212
-0.0245462
-0.0241981
-0.0240542
-0.0241796
-0.0246302
-0.0254736
-0.0266769
-0.0280166
-0.0299788
-0.0328001
-0.0359815
-0.0394904
-0.0433527
-0.047495
-0.0518275
-0.0562543
-0.0606681
-0.0649554
-0.0690009
-0.0726918
-0.0759224
-0.0785982
-0.080646
-0.0820213
-0.0826904
-0.0826456
-0.0818988
-0.0804827
-0.0784516
-0.0758698
-0.0728185
-0.0693852
-0.0656605
-0.0617406
-0.0577127
-0.0536713
-0.0497003
-0.0456248
-0.0416408
-0.0384845
-0.0352352
-0.0322969
-0.0297429
-0.0275378
-0.0256752
-0.0241369
-0.0228918
-0.0219028
-0.0211285
-0.020524
-0.0200434
-0.0196428
-0.0192764
-0.0189109
-0.018523
-0.0180865
-0.0175858
-0.0170138
-0.0163712
-0.0156656
-0.0149095
-0.0141194
-0.0133161
-0.0125196
-0.0117581
-0.0111305
-0.0107574
-0.010369
-0.00984526
-0.00937664
-0.00897892
-0.00860478
-0.00822469
-0.00780067
-0.00729223
-0.00663629
-0.00582252
-0.00454249
-0.00318942
-0.000697903
-0.0391455
-0.0381868
-0.0370812
-0.035882
-0.0346427
-0.0334096
-0.0322744
-0.0315213
-0.0310355
-0.0304846
-0.0300084
-0.0297788
-0.0297521
-0.0298873
-0.0301474
-0.0304769
-0.0308233
-0.0311323
-0.0313481
-0.0314197
-0.0313022
-0.030952
-0.0303821
-0.0295573
-0.0284964
-0.02722
-0.0257621
-0.0241638
-0.0224735
-0.0207436
-0.0190307
-0.0173981
-0.0159054
-0.0146012
-0.0135322
-0.0127316
-0.0123149
-0.0125079
-0.0124562
-0.0129941
-0.0139099
-0.0150671
-0.0164388
-0.0179844
-0.0196353
-0.0213137
-0.0229409
-0.0244411
-0.0257458
-0.0267973
-0.0275596
-0.0280356
-0.0282123
-0.0281101
-0.0277701
-0.0272452
-0.026599
-0.0259045
-0.0252382
-0.0246771
-0.0242964
-0.0241618
-0.0243339
-0.0248504
-0.0256282
-0.0266297
-0.028301
-0.0306764
-0.0334594
-0.0365925
-0.04006
-0.043801
-0.0477431
-0.0517976
-0.0558641
-0.0598369
-0.0636089
-0.0670752
-0.0701371
-0.0727073
-0.0747179
-0.0761242
-0.0768952
-0.0770197
-0.0765079
-0.0753876
-0.0737071
-0.0715309
-0.0689248
-0.0659682
-0.0627526
-0.0593616
-0.0558701
-0.0523564
-0.0489016
-0.0454988
-0.0421644
-0.0394153
-0.0366653
-0.0342054
-0.0320846
-0.0302752
-0.0287661
-0.027536
-0.0265528
-0.0257788
-0.0251725
-0.0246846
-0.0242651
-0.0238735
-0.0234706
-0.0230355
-0.0225358
-0.0219475
-0.0212604
-0.0204727
-0.0195902
-0.0186242
-0.0175911
-0.0165118
-0.01541
-0.0143073
-0.0132307
-0.0122753
-0.0116007
-0.0109645
-0.0102076
-0.00950948
-0.00891426
-0.00837455
-0.00786326
-0.00734598
-0.00678429
-0.00611678
-0.00533517
-0.00414022
-0.00292337
-0.000604538
-0.0477297
-0.0460372
-0.0441509
-0.0421368
-0.0400626
-0.0379817
-0.0359698
-0.0342991
-0.0329607
-0.0315948
-0.0302778
-0.0292423
-0.0284678
-0.0279231
-0.0275832
-0.0274053
-0.0273306
-0.027301
-0.0272574
-0.0271494
-0.0269316
-0.0265621
-0.0260334
-0.0253132
-0.0244087
-0.0233334
-0.0221094
-0.0207689
-0.0193547
-0.0179148
-0.0165007
-0.0151657
-0.013964
-0.012946
-0.0121537
-0.0115997
-0.0114319
-0.0118483
-0.0123838
-0.0131063
-0.0141446
-0.0154604
-0.0169982
-0.0186946
-0.0204758
-0.0222632
-0.0239768
-0.0255397
-0.0268824
-0.0279461
-0.0286955
-0.0291344
-0.02925
-0.0290648
-0.0286201
-0.0279692
-0.0271764
-0.0263132
-0.0254562
-0.0246819
-0.0240621
-0.0236616
-0.0235392
-0.0237085
-0.0240919
-0.0247968
-0.0261501
-0.0281001
-0.0304521
-0.0331786
-0.0362464
-0.0395874
-0.0431291
-0.0467968
-0.050503
-0.0541499
-0.0576383
-0.0608715
-0.0637582
-0.0662178
-0.0681893
-0.069628
-0.0705049
-0.0708059
-0.0705406
-0.0697324
-0.0684214
-0.066669
-0.0645362
-0.0620914
-0.0594166
-0.0565844
-0.0536691
-0.0507494
-0.0478835
-0.045135
-0.0426977
-0.0401264
-0.0379556
-0.0360532
-0.0344112
-0.0330405
-0.0319275
-0.0310469
-0.0303562
-0.0298096
-0.0293652
-0.0289794
-0.0286213
-0.0282526
-0.0278248
-0.0273123
-0.0266851
-0.0259272
-0.0250342
-0.0240107
-0.0228673
-0.021621
-0.0202949
-0.0189152
-0.0175101
-0.0161038
-0.0147192
-0.0134384
-0.0124479
-0.0115414
-0.010528
-0.00957969
-0.00877309
-0.00806303
-0.00741927
-0.00680761
-0.00619256
-0.00551613
-0.00477176
-0.00367624
-0.00260978
-0.000503375
0.0706713
0.0746231
0.0775668
0.0795616
0.0806771
0.0809861
0.0804492
0.0790768
0.077103
0.074502
0.0712992
0.0675707
0.0634247
0.0589167
0.054069
0.0489689
0.0437317
0.0384768
0.0333062
0.0283109
0.0235802
0.0192038
0.0152798
0.0118991
0.00912271
0.00698219
0.00549139
0.00466377
0.00448884
0.00476953
0.00556055
0.00678571
0.00835404
0.0101943
0.0122292
0.014385
0.016596
0.0188057
0.0209681
0.0230464
0.0250147
0.0268569
0.0285657
0.0301415
0.0315912
0.0329248
0.0341591
0.0353143
0.0364104
0.0374684
0.0385073
0.0395397
0.04057
0.0415915
0.0425996
0.0435864
0.0445353
0.0454297
0.0462459
0.0469605
0.0475552
0.0480008
0.0482557
0.0482797
0.0480443
0.0475167
0.0467196
0.0456314
0.0442256
0.0424945
0.0404369
0.0380571
0.035365
0.0323731
0.0290967
0.0255549
0.0217697
0.0177657
0.0135705
0.00921398
0.00472795
0.000145617
-0.00449908
-0.00917241
-0.0138423
-0.0184798
-0.0230606
-0.0275656
-0.0319813
-0.0362974
-0.040505
-0.0445938
-0.0485481
-0.052345
-0.055956
-0.0593444
-0.0624651
-0.06527
-0.0677119
-0.0697487
-0.0713462
-0.0724795
-0.0731307
-0.0732835
-0.0729214
-0.072046
-0.0706253
-0.06878
-0.0664648
-0.0636981
-0.0605108
-0.0569446
-0.0530505
-0.0488874
-0.0445186
-0.040008
-0.0354207
-0.0308267
-0.0262958
-0.021893
-0.0176783
-0.0137022
-0.0100073
-0.00663184
-0.00360448
-0.000945919
0.00132823
0.003207
0.00468435
0.00575775
0.006431
0.00671079
0.00661334
0.00614749
0.00533681
0.00419458
0.00274137
0.00103289
0.0713432
0.075362
0.078349
0.0803459
0.0814126
0.0817212
0.0811724
0.0799033
0.0778958
0.0752287
0.0719141
0.0680489
0.0638383
0.059303
0.0543584
0.0491436
0.0437912
0.0384402
0.0331905
0.028127
0.0233287
0.0188779
0.0148814
0.0114495
0.0086338
0.00646526
0.00497028
0.0041464
0.00382648
0.00421293
0.00509525
0.00639637
0.00801015
0.00990471
0.0119916
0.0141944
0.0164491
0.0186982
0.0208931
0.0229966
0.0249843
0.0268417
0.0285614
0.0301444
0.0315987
0.0329357
0.0341713
0.035324
0.0364139
0.0374661
0.0385034
0.039538
0.0405679
0.0415992
0.0426296
0.0436388
0.0446027
0.0455189
0.0463542
0.0470836
0.04771
0.0482025
0.0484995
0.0485512
0.0483503
0.047888
0.0471158
0.0460304
0.044626
0.0428934
0.0408308
0.0384425
0.0357381
0.0327304
0.0294354
0.0258724
0.0220639
0.018035
0.0138133
0.00942905
0.00491485
0.000304518
-0.00436711
-0.00906507
-0.0137562
-0.0184108
-0.0230049
-0.0275208
-0.0319463
-0.0362723
-0.0404921
-0.0445989
-0.0485777
-0.0524042
-0.0560465
-0.0594698
-0.0626334
-0.0654871
-0.0679796
-0.0700649
-0.0717074
-0.0728827
-0.0735681
-0.0737416
-0.0733991
-0.0725536
-0.0712204
-0.069341
-0.0670047
-0.0642188
-0.0610096
-0.0574176
-0.0534929
-0.0492955
-0.0448911
-0.0403424
-0.0357111
-0.0310701
-0.0264934
-0.0220449
-0.0177847
-0.0137671
-0.0100355
-0.00662633
-0.00356687
-0.000877382
0.00142655
0.00333323
0.00483692
0.00593263
0.00662476
0.00691714
0.00683129
0.00636895
0.00556171
0.00440689
0.00292175
0.00113707
0.0715274
0.0755069
0.0784684
0.0804738
0.0815499
0.0818253
0.0813789
0.0801352
0.0780965
0.0753792
0.072105
0.0683287
0.064105
0.0594926
0.0545175
0.0492558
0.0438375
0.0384544
0.0331298
0.0279727
0.0230715
0.0184926
0.0143682
0.0108915
0.00806766
0.00590526
0.00441702
0.00355994
0.00340932
0.00382193
0.00473878
0.00608274
0.00776877
0.00972028
0.0118606
0.0141112
0.016403
0.0186722
0.0208789
0.0229872
0.0249695
0.0268125
0.0285088
0.0300617
0.0314824
0.0327866
0.0339909
0.0351145
0.0361776
0.0372125
0.0382426
0.0392857
0.0403468
0.0414264
0.0425078
0.0435646
0.0445853
0.0455609
0.0464719
0.047289
0.0479886
0.048536
0.0488834
0.0489896
0.0488303
0.0483882
0.0476403
0.046573
0.0451747
0.0434375
0.0413603
0.0389489
0.0362127
0.0331643
0.0298196
0.0261994
0.0223269
0.0182279
0.013931
0.00946831
0.00487432
0.000183336
-0.00456877
-0.00934388
-0.014106
-0.0188226
-0.0234672
-0.0280205
-0.032471
-0.0368124
-0.041041
-0.0451511
-0.0491311
-0.0529604
-0.0566085
-0.0600363
-0.0631978
-0.0660416
-0.0685161
-0.0705742
-0.0721797
-0.0733082
-0.0739429
-0.0740733
-0.0736857
-0.0728413
-0.0714753
-0.0696072
-0.0672669
-0.0644727
-0.0612524
-0.057645
-0.0536999
-0.0494787
-0.0450513
-0.0404788
-0.0358189
-0.0311458
-0.0265281
-0.0220388
-0.0177463
-0.013697
-0.00993405
-0.00649646
-0.00341062
-0.000696863
0.00162858
0.0035532
0.00507223
0.00617781
0.00687371
0.00716679
0.00707702
0.00660636
0.00577495
0.00459048
0.00302219
0.00123081
0.071065
0.075065
0.0780437
0.0800721
0.0812144
0.0814139
0.0809014
0.0796329
0.0776081
0.0749232
0.0716946
0.0679444
0.0636465
0.058953
0.0540046
0.0487459
0.0433694
0.0380524
0.0328316
0.0278005
0.0229933
0.0184791
0.0144799
0.0110447
0.00822597
0.00606461
0.00457334
0.00374261
0.00354745
0.00393136
0.00482869
0.00615476
0.00782981
0.00972471
0.011804
0.0140089
0.0162678
0.0184937
0.0206637
0.02274
0.0246937
0.0265086
0.0281761
0.0297029
0.031104
0.032397
0.0336003
0.0347196
0.0357552
0.0367987
0.037863
0.0389438
0.0400442
0.0411618
0.0422846
0.0433899
0.0444619
0.0454901
0.0464645
0.0473538
0.0481071
0.0486956
0.0490961
0.0492663
0.0491572
0.0487561
0.0480483
0.0470119
0.0456292
0.0438881
0.0417853
0.0393289
0.0365337
0.0334148
0.0299892
0.0262824
0.0223208
0.0181306
0.0137432
0.00919318
0.00451622
-0.000250683
-0.00506953
-0.0099034
-0.0147144
-0.0194693
-0.0241445
-0.0287217
-0.0331879
-0.0375349
-0.0417564
-0.0458455
-0.0497898
-0.0535674
-0.0571476
-0.0604944
-0.0635669
-0.0663171
-0.0686962
-0.0706616
-0.0721814
-0.0732335
-0.073811
-0.0739178
-0.0735569
-0.0726321
-0.0712367
-0.0693588
-0.067012
-0.0642218
-0.0610133
-0.057424
-0.0535038
-0.049318
-0.0449346
-0.0403961
-0.0357651
-0.0311468
-0.0265769
-0.0221216
-0.0178595
-0.0138342
-0.0100944
-0.00667364
-0.00359219
-0.000870131
0.00147123
0.00342082
0.00497746
0.00612208
0.00683976
0.00716342
0.00709786
0.00666568
0.00583466
0.00468034
0.00308575
0.00138708
0.0694736
0.0734573
0.076453
0.0785087
0.0796615
0.0799524
0.0794721
0.0782308
0.0762637
0.0736508
0.0704669
0.0667675
0.0626017
0.0580575
0.0532139
0.0481225
0.0429368
0.0377372
0.0327034
0.0278763
0.023239
0.018948
0.0151344
0.0117824
0.00903822
0.00695115
0.00550798
0.00470051
0.00450895
0.00486028
0.00569014
0.00691631
0.00846173
0.0102442
0.0121988
0.0142653
0.0163741
0.0184605
0.0204703
0.0224159
0.0242803
0.0259967
0.0275526
0.0289819
0.0303082
0.03154
0.0326908
0.0337877
0.0348413
0.0358859
0.0369602
0.0380729
0.0392255
0.0404177
0.0416366
0.042858
0.0440309
0.0451217
0.0461766
0.0472001
0.0481212
0.0488172
0.0492831
0.0495116
0.0494514
0.0490641
0.0483428
0.047275
0.0458461
0.0440513
0.0418933
0.0393862
0.0365373
0.0333551
0.0298524
0.0260621
0.022012
0.0177259
0.0132397
0.00859296
0.00382415
-0.0010284
-0.00592416
-0.0108219
-0.0156857
-0.0204841
-0.0251906
-0.0297828
-0.0342424
-0.0385543
-0.0427083
-0.0466983
-0.0505152
-0.0541398
-0.0575398
-0.0606806
-0.0635335
-0.0660633
-0.0682343
-0.0700117
-0.0713617
-0.0722609
-0.0727053
-0.072694
-0.0722121
-0.0712395
-0.0697996
-0.0679043
-0.0655705
-0.0628202
-0.0596771
-0.0561733
-0.0523524
-0.0482824
-0.0440395
-0.0396478
-0.0351766
-0.0306971
-0.0262569
-0.0219513
-0.0178355
-0.0139074
-0.0102552
-0.00691502
-0.00390256
-0.00123906
0.00105607
0.00297084
0.00449636
0.00562476
0.00635206
0.00669391
0.00665066
0.00625625
0.00545415
0.00438643
0.00280434
0.00136715
0.0664079
0.0703473
0.0733431
0.0754335
0.0766611
0.0770826
0.0767455
0.0756691
0.0738771
0.0714179
0.0683851
0.0648525
0.060871
0.0565231
0.0518878
0.0470357
0.042065
0.0370999
0.0323004
0.0277004
0.0233487
0.0193305
0.0157166
0.0126439
0.0101347
0.00821104
0.00687364
0.00610786
0.00589421
0.00618587
0.00691902
0.00801806
0.00941795
0.0110424
0.0128202
0.0146922
0.0166228
0.0185513
0.0203463
0.022087
0.0237703
0.0253406
0.026767
0.0280796
0.0293197
0.0304832
0.0315881
0.0326872
0.0337714
0.0348129
0.0358818
0.0370151
0.0382034
0.0394332
0.0406895
0.0419554
0.0432141
0.044436
0.0456062
0.0466789
0.0476276
0.048418
0.0489634
0.0491938
0.049125
0.0488376
0.0482138
0.0472304
0.0458743
0.0441064
0.0418961
0.0392994
0.0363482
0.033063
0.029437
0.0255387
0.0213935
0.0169992
0.0124159
0.0076884
0.00285056
-0.00205801
-0.00700161
-0.0119406
-0.0168316
-0.0216391
-0.0263338
-0.0308904
-0.0352889
-0.0395118
-0.0435448
-0.0473758
-0.0509877
-0.0543546
-0.0574562
-0.0602987
-0.062853
-0.0650813
-0.0669566
-0.0684535
-0.0695476
-0.0702248
-0.0704803
-0.070314
-0.0697102
-0.0686683
-0.0671976
-0.0653114
-0.0630259
-0.0603581
-0.0573311
-0.053976
-0.0503377
-0.0464681
-0.0424238
-0.0382658
-0.0340493
-0.0297948
-0.02556
-0.021446
-0.0175345
-0.0138308
-0.0103622
-0.00717618
-0.0043044
-0.00176529
0.000427215
0.00226117
0.00372331
0.00481957
0.00556371
0.00593171
0.00594456
0.00560377
0.00490923
0.00394633
0.00250124
0.00119558
0.0620739
0.0659326
0.0689143
0.0710328
0.0723236
0.0728484
0.0726438
0.0717444
0.0701934
0.0680368
0.0653246
0.0620941
0.058397
0.0543369
0.0499837
0.0453967
0.0407011
0.0360305
0.0314924
0.0271725
0.0231749
0.0195255
0.0162427
0.0134111
0.011113
0.00935651
0.00814182
0.007456
0.00727685
0.00755991
0.00824125
0.00925231
0.0105201
0.0119822
0.013597
0.0152934
0.0170069
0.0187243
0.0203967
0.0219509
0.0233876
0.0247354
0.0259813
0.0271395
0.0282576
0.0293268
0.030344
0.0313669
0.0323947
0.0334414
0.0345431
0.0357129
0.0369469
0.0382379
0.0395734
0.0409333
0.0422968
0.0436192
0.0448245
0.045878
0.0467837
0.0476072
0.0482394
0.0485471
0.0485074
0.0481999
0.0475628
0.0464917
0.0449927
0.0431423
0.0409938
0.0385013
0.0356381
0.0323744
0.0287112
0.0247415
0.0205905
0.0161265
0.0114595
0.00663511
0.00171365
-0.00324832
-0.00822389
-0.0131728
-0.0180547
-0.0228419
-0.0275008
-0.0319938
-0.0362914
-0.0403723
-0.0442177
-0.0478104
-0.0511395
-0.0542088
-0.0570182
-0.0595358
-0.0617249
-0.0635821
-0.065095
-0.0662488
-0.0670319
-0.0674352
-0.0674565
-0.0670931
-0.0663366
-0.0651897
-0.0636734
-0.061796
-0.0595691
-0.0570091
-0.054135
-0.050975
-0.0475685
-0.0439627
-0.0402032
-0.0363212
-0.0323751
-0.0284606
-0.0245818
-0.0207505
-0.0170813
-0.0136467
-0.0104134
-0.00741953
-0.00471029
-0.0023065
-0.000220801
0.00153396
0.00294737
0.00400221
0.00471738
0.00508382
0.00513816
0.0048459
0.00428102
0.00340492
0.00221097
0.000773979
0.0570151
0.060704
0.0635815
0.0656701
0.0670192
0.0676621
0.067607
0.0668875
0.0655531
0.0636381
0.0611825
0.0582785
0.0549887
0.0513484
0.0474118
0.043235
0.0389643
0.0347048
0.0305462
0.0265713
0.0228533
0.0195063
0.0165224
0.0139438
0.0118736
0.0103162
0.00926302
0.00869082
0.00857222
0.00886588
0.00951399
0.0104557
0.0116284
0.0129726
0.014433
0.0159568
0.0174848
0.0189882
0.0204678
0.0218251
0.0230609
0.0242036
0.0252764
0.0262787
0.0272143
0.0281449
0.0291286
0.0301062
0.0310785
0.0320934
0.0331771
0.034337
0.0355734
0.0368781
0.0382341
0.0396183
0.0410029
0.0423535
0.0436297
0.0447952
0.0458157
0.0466593
0.047252
0.0475333
0.0475135
0.0471573
0.0464701
0.0453501
0.0438044
0.0419014
0.0396788
0.0370224
0.0339297
0.0305657
0.0270202
0.0231902
0.0190453
0.0145928
0.00998052
0.00524737
0.000383829
-0.00453572
-0.00952281
-0.0144856
-0.019344
-0.0240757
-0.0286489
-0.0330263
-0.037184
-0.0410967
-0.0447367
-0.0480796
-0.0511119
-0.0538466
-0.056304
-0.0584599
-0.0602878
-0.0617706
-0.0629041
-0.0636894
-0.0641333
-0.0642416
-0.0640155
-0.0634511
-0.0625424
-0.0612966
-0.0597376
-0.0578745
-0.0557167
-0.0532784
-0.0505767
-0.0476366
-0.0444898
-0.0411677
-0.0377082
-0.0341529
-0.0305313
-0.0269001
-0.0233665
-0.0199356
-0.01658
-0.013382
-0.0103816
-0.00760546
-0.0050845
-0.0028393
-0.000883541
0.000771108
0.00211731
0.0031492
0.00387258
0.00427948
0.00440198
0.00419297
0.00375983
0.00293151
0.00205001
0.000310106
0.0520532
0.0554608
0.0581539
0.0601521
0.0614788
0.0621331
0.0621447
0.0615656
0.0604149
0.0587068
0.0565023
0.0538743
0.0508794
0.0475517
0.0440255
0.0403761
0.036615
0.0327979
0.0290571
0.0255055
0.0222113
0.0192378
0.0166146
0.0143785
0.012557
0.0111891
0.0102998
0.00985343
0.00981447
0.010142
0.0107826
0.0116803
0.0127745
0.0140057
0.0153258
0.0166899
0.018046
0.0193576
0.0206035
0.0217529
0.0228023
0.0237628
0.0246478
0.0254693
0.0262501
0.027048
0.0279235
0.0288085
0.0296974
0.0306456
0.0316873
0.032824
0.0340525
0.0353627
0.0367355
0.0381453
0.0395595
0.0409385
0.0422378
0.0434153
0.0444349
0.0452609
0.045844
0.0461355
0.0461078
0.0457168
0.0449308
0.0437554
0.0421855
0.0402004
0.0378233
0.0350345
0.0318685
0.0284473
0.0247771
0.0207682
0.0164975
0.0122303
0.00780365
0.00315998
-0.0016199
-0.00638973
-0.0111975
-0.0159549
-0.0206525
-0.0252897
-0.0297684
-0.0340038
-0.0379822
-0.0416833
-0.0450851
-0.0481719
-0.0509241
-0.0533422
-0.055441
-0.0572231
-0.0586777
-0.0597961
-0.0605891
-0.0610594
-0.0612064
-0.061037
-0.0605632
-0.0597956
-0.0587433
-0.0574106
-0.0558053
-0.0539438
-0.0518425
-0.0495127
-0.0469686
-0.0442333
-0.0413319
-0.0382897
-0.0351344
-0.0319003
-0.0286268
-0.0253532
-0.0221434
-0.0190331
-0.0160058
-0.0130995
-0.010361
-0.00782167
-0.00550124
-0.00341875
-0.00159055
-2.94766e-05
0.00125711
0.00226479
0.00299695
0.00345419
0.00366386
0.00358326
0.00333475
0.00253227
0.00198057
-7.5445e-05
0.0475674
0.050646
0.0530887
0.0549052
0.0561092
0.0567156
0.0567499
0.0562277
0.0551618
0.0536172
0.0516242
0.0492164
0.0464598
0.0434233
0.0402086
0.0368948
0.0335285
0.0302523
0.0270828
0.023994
0.0211169
0.0185429
0.0163057
0.0144288
0.0129446
0.0118846
0.0112151
0.0108995
0.0109486
0.0113298
0.0119803
0.0128465
0.0138746
0.0150126
0.0162111
0.0174238
0.0186089
0.0197346
0.0207812
0.0217334
0.0225869
0.0233511
0.0240438
0.024686
0.0253089
0.0259702
0.0267151
0.0274926
0.0282841
0.0291523
0.0301325
0.0312226
0.0324172
0.0337045
0.0350633
0.0364651
0.037875
0.0392529
0.0405548
0.0417356
0.0427506
0.0435541
0.0440978
0.0443381
0.0442423
0.0437815
0.042934
0.0416857
0.0400036
0.0379224
0.0354629
0.0325928
0.0293431
0.025785
0.0219438
0.0178336
0.0135701
0.00923615
0.00472845
0.000216753
-0.00422493
-0.00876815
-0.0133938
-0.017943
-0.0223947
-0.0267173
-0.0308557
-0.0348115
-0.0385807
-0.0420684
-0.0452178
-0.0480373
-0.050498
-0.052603
-0.0543655
-0.0557921
-0.0568868
-0.0576587
-0.0581226
-0.0582888
-0.0581618
-0.0577554
-0.0570855
-0.0561625
-0.0549958
-0.053597
-0.0519751
-0.05014
-0.0481052
-0.0458853
-0.0434962
-0.0409575
-0.0382865
-0.0355019
-0.0326339
-0.0297157
-0.0267751
-0.0238367
-0.020941
-0.0181275
-0.015402
-0.0127796
-0.0103017
-0.00799606
-0.00588093
-0.00397596
-0.00229008
-0.000831818
0.000392097
0.00137666
0.00212101
0.00262021
0.00289834
0.00293085
0.00286596
0.00216023
0.00188654
-0.000304463
0.0436861
0.0463955
0.0485382
0.0501233
0.051156
0.0516432
0.0516012
0.0510525
0.0500261
0.0485512
0.0466702
0.0444393
0.0418999
0.0391154
0.0361614
0.0331067
0.0300339
0.0270698
0.0242788
0.0217215
0.0193832
0.0172368
0.0154155
0.0139479
0.0128336
0.0120784
0.0116734
0.0116121
0.0118484
0.0123169
0.0130038
0.0138745
0.0148688
0.0159343
0.0170265
0.0181061
0.0191383
0.0200951
0.0209586
0.02172
0.0223809
0.0229545
0.0234611
0.0239267
0.0243901
0.0249065
0.0255065
0.0261501
0.026826
0.0275966
0.0284957
0.0295201
0.0306624
0.0319084
0.0332344
0.0346093
0.0359951
0.0373489
0.0386237
0.0397713
0.0407435
0.0414928
0.0419725
0.0421395
0.0419575
0.0413965
0.0404348
0.0390602
0.0372669
0.0350658
0.0324611
0.0294808
0.0261519
0.0225095
0.0185876
0.0144307
0.0101145
0.00568548
0.00117471
-0.00328623
-0.00767792
-0.0120086
-0.0161731
-0.0203257
-0.0244666
-0.0284491
-0.0322383
-0.0358251
-0.0391708
-0.0422222
-0.0450229
-0.0475376
-0.0496711
-0.0514548
-0.0528976
-0.0540065
-0.0547878
-0.0552547
-0.0554263
-0.0553206
-0.0549535
-0.0543446
-0.0535119
-0.0524671
-0.0512208
-0.0497845
-0.0481694
-0.0463851
-0.0444433
-0.0423555
-0.0401337
-0.0377933
-0.035352
-0.0328211
-0.030223
-0.0275889
-0.024942
-0.0223051
-0.019709
-0.017181
-0.0147339
-0.0123856
-0.0101643
-0.00809148
-0.00618464
-0.004454
-0.00291094
-0.00156942
-0.000430848
0.000502562
0.0012389
0.00177702
0.00213988
0.00226279
0.00233535
0.00177974
0.00170457
-0.000352931
0.040407
0.0427154
0.0445218
0.0458291
0.0466379
0.0469522
0.0467842
0.0461521
0.0450816
0.0436074
0.0417729
0.0396238
0.0372176
0.0346228
0.0318929
0.0290954
0.0263035
0.023594
0.0210474
0.0187849
0.0168622
0.0152357
0.013848
0.012773
0.0120457
0.0116502
0.0115641
0.0117623
0.0122103
0.0128797
0.0137006
0.0146133
0.0156073
0.0166377
0.0176606
0.0186395
0.0195453
0.0203557
0.0210575
0.0216473
0.0221317
0.022527
0.0228575
0.0231549
0.0234626
0.0238299
0.0242771
0.0247759
0.0253258
0.0259878
0.0267923
0.0277346
0.0288058
0.0299895
0.0312597
0.0325827
0.0339182
0.0352209
0.0364416
0.0375294
0.0384334
0.0391033
0.0394913
0.0395542
0.0392554
0.0385657
0.037465
0.0359419
0.0339946
0.031633
0.0288733
0.0257415
0.0222808
0.018531
0.0145283
0.0103267
0.00599011
0.0015691
-0.00288273
-0.00729666
-0.0116393
-0.0158372
-0.0197911
-0.02352
-0.0270618
-0.0305556
-0.0338854
-0.0369677
-0.0398113
-0.0424101
-0.044743
-0.0467546
-0.0484784
-0.0499148
-0.0510044
-0.0517787
-0.0522524
-0.052442
-0.0523656
-0.0520416
-0.0514886
-0.050726
-0.0497744
-0.0486494
-0.047361
-0.0459214
-0.0443408
-0.0426283
-0.0407932
-0.0388453
-0.0367964
-0.034661
-0.0324577
-0.0301945
-0.0278685
-0.0255005
-0.0231297
-0.0207767
-0.0184607
-0.0162028
-0.0140198
-0.0119286
-0.00994855
-0.00809647
-0.00638554
-0.00482599
-0.00343111
-0.00220475
-0.00115445
-0.000280697
0.000428331
0.000967617
0.00138176
0.00157273
0.00175416
0.00139511
0.00143154
-0.000318965
0.0376601
0.039543
0.040982
0.0419721
0.0425092
0.0425949
0.0422391
0.0414597
0.0402827
0.0387429
0.0368823
0.0347527
0.0324167
0.0299389
0.0273671
0.0247697
0.022215
0.0197686
0.0175013
0.0154776
0.0137693
0.0124919
0.0115733
0.0109208
0.0105521
0.0105096
0.0107596
0.0112596
0.0119695
0.0128447
0.0138375
0.0149074
0.015976
0.0170105
0.0180064
0.018928
0.019747
0.020447
0.02102
0.0214673
0.0218
0.0220383
0.0222106
0.0223532
0.0225114
0.0227286
0.0230195
0.0233673
0.023782
0.0243259
0.0250232
0.0258685
0.0268519
0.0279549
0.0291492
0.0303986
0.0316605
0.0328872
0.0340271
0.0350271
0.0358338
0.0363955
0.0366636
0.0365942
0.0361505
0.0353037
0.0340346
0.032334
0.0302041
0.0276571
0.0247146
0.0214072
0.0177817
0.0138922
0.00978724
0.00552101
0.00115808
-0.00324362
-0.00762407
-0.0119188
-0.0160826
-0.0200697
-0.0238243
-0.0273377
-0.0304941
-0.0333345
-0.0359771
-0.0384842
-0.0407333
-0.0427309
-0.0444764
-0.0459568
-0.0471733
-0.048095
-0.0487679
-0.0491983
-0.0493501
-0.0492597
-0.0489488
-0.0484325
-0.0477283
-0.0468537
-0.0458266
-0.0446643
-0.0433776
-0.0419744
-0.0404628
-0.0388506
-0.037145
-0.0353532
-0.0334832
-0.0315456
-0.0295559
-0.0275345
-0.0254933
-0.0234182
-0.0213151
-0.0192302
-0.0171832
-0.0151879
-0.0132597
-0.0114133
-0.00966367
-0.00802421
-0.00650593
-0.00511732
-0.00386477
-0.00275378
-0.00178942
-0.000973647
-0.000295908
0.000229672
0.000662446
0.000910065
0.00115817
0.00100342
0.00113183
-0.000273168
0.035387
0.0368094
0.0378356
0.0384553
0.0386623
0.038458
0.0378522
0.0368631
0.0355177
0.0338519
0.0319083
0.0297378
0.0274159
0.0249906
0.0225239
0.0200774
0.0177191
0.0155023
0.0134905
0.0117581
0.0102843
0.00919885
0.00860873
0.00837574
0.00838386
0.00866993
0.00924607
0.0100562
0.011048
0.0121714
0.0133733
0.0146053
0.0158225
0.0169572
0.0179754
0.0188837
0.0196624
0.0202953
0.0207789
0.0211193
0.0213315
0.02144
0.0214772
0.0214832
0.0215034
0.0215756
0.0217125
0.0219061
0.0221833
0.0226051
0.0231871
0.0239245
0.0248068
0.0258134
0.0269136
0.0280692
0.0292355
0.0303623
0.0313963
0.0322821
0.0329652
0.0333924
0.033514
0.0332855
0.0326698
0.0316388
0.0301744
0.0282696
0.0259292
0.0231696
0.0200184
0.0165133
0.0127019
0.00864574
0.00440813
5.36121e-05
-0.00435248
-0.00874263
-0.0130518
-0.0172272
-0.0212406
-0.0250084
-0.0283564
-0.0314643
-0.0344139
-0.0369068
-0.0388214
-0.0404656
-0.0420726
-0.0434347
-0.0445095
-0.0453408
-0.0459443
-0.0463238
-0.0464947
-0.0464551
-0.0462417
-0.0458479
-0.0452892
-0.0445805
-0.0437363
-0.0427701
-0.041694
-0.0405199
-0.0392591
-0.0379188
-0.0365025
-0.0350147
-0.0334602
-0.0318428
-0.0301673
-0.0284391
-0.0266683
-0.0248695
-0.0230673
-0.0212801
-0.0194781
-0.0176594
-0.0158724
-0.014135
-0.0124563
-0.010849
-0.00932554
-0.00789629
-0.00656962
-0.00535179
-0.00424701
-0.00325727
-0.002382
-0.00162442
-0.000980127
-0.000458961
-6.40345e-06
0.000296905
0.00059294
0.000595166
0.000828755
-0.00025837
0.0334877
0.0344296
0.0350101
0.0352188
0.0350483
0.0345011
0.033588
0.0323292
0.0307541
0.028901
0.0268157
0.0245515
0.0221768
0.0197498
0.0173338
0.0149882
0.0127712
0.0107144
0.00891522
0.00759631
0.00634392
0.00539109
0.00512773
0.00520651
0.00557596
0.00621015
0.00708959
0.00819757
0.00947479
0.0108598
0.0122953
0.0137262
0.0151029
0.0163816
0.0175091
0.0184584
0.0192399
0.0198508
0.0202881
0.0205609
0.0206886
0.0206988
0.0206279
0.0205186
0.020415
0.0203515
0.0203385
0.0203766
0.0205209
0.0208194
0.0212803
0.0219013
0.0226715
0.0235685
0.0245587
0.0256029
0.0266546
0.0276619
0.0285688
0.0293178
0.0298529
0.0301204
0.0300704
0.0296583
0.0288465
0.0276071
0.0259232
0.0237897
0.0212144
0.0182182
0.0148342
0.011107
0.00709166
0.00285119
-0.0015385
-0.00600374
-0.0104686
-0.0148625
-0.0191101
-0.0231469
-0.0269213
-0.0304001
-0.0335522
-0.0361733
-0.0384265
-0.040859
-0.0424824
-0.0430734
-0.0438045
-0.0445145
-0.0449086
-0.0450495
-0.0449931
-0.0447563
-0.0443631
-0.0438325
-0.0431698
-0.0424159
-0.0415809
-0.0406566
-0.039658
-0.0385944
-0.0374726
-0.0362978
-0.0350742
-0.0338065
-0.0324952
-0.0311411
-0.0297471
-0.0283138
-0.0268418
-0.0253326
-0.0237908
-0.0222242
-0.0206466
-0.0190949
-0.0175847
-0.0160629
-0.0145336
-0.0130472
-0.0116157
-0.0102452
-0.00894546
-0.00772452
-0.00658826