/*--------------------------------*- C++ -*----------------------------------*\
| =========                 |                                                 |
| \\      /  F ield         | OpenFOAM: The Open Source CFD Toolbox           |
|  \\    /   O peration     | Version:  2206                                  |
|   \\  /    A nd           | Website:  www.openfoam.com                      |
|    \\/     M anipulation  |                                                 |
\*---------------------------------------------------------------------------*/
FoamFile
{
    version     2.0;
    format      ascii;
    arch        "LSB;label=32;scalar=64";
    class       volScalarField;
    location    "18.0999";
    object      p;
}
// * * * * * * * * * * * * * * * * * * * * * * * * * * * * * * * * * * * * * //

dimensions      [0 2 -2 0 0 0 0];

internalField   nonuniform List<scalar> 
4830
(
-0.604848
-0.63403
-0.684
-0.751888
-0.830281
-0.907136
-0.967654
-0.998416
-0.991904
-0.955921
-0.888303
-0.795866
-0.687066
-0.570725
-0.458127
-0.358511
-0.275775
-0.213634
-0.168079
-0.141669
-0.132081
-0.137561
-0.157726
-0.19294
-0.244062
-0.315708
-0.579468
-0.615323
-0.673994
-0.752278
-0.843404
-0.933283
-1.00472
-1.0445
-1.04729
-1.00922
-0.936535
-0.835684
-0.717822
-0.594485
-0.477649
-0.374182
-0.288057
-0.221282
-0.173261
-0.143637
-0.130842
-0.133222
-0.149295
-0.177463
-0.21382
-0.251325
-0.554798
-0.596799
-0.664941
-0.754325
-0.855838
-0.953995
-1.03115
-1.07325
-1.07575
-1.03988
-0.9685
-0.867162
-0.746901
-0.621791
-0.503782
-0.39894
-0.310706
-0.241218
-0.190521
-0.157583
-0.140572
-0.137482
-0.145677
-0.162523
-0.183674
-0.201062
-0.539469
-0.588124
-0.65926
-0.748651
-0.847126
-0.940618
-1.01398
-1.05255
-1.05671
-1.02473
-0.958991
-0.86489
-0.752025
-0.634207
-0.523957
-0.424813
-0.339239
-0.270874
-0.219762
-0.184581
-0.163399
-0.154106
-0.153952
-0.160019
-0.167922
-0.172336
-0.560388
-0.594521
-0.651635
-0.72764
-0.811447
-0.890167
-0.950992
-0.988054
-0.992223
-0.964113
-0.90661
-0.824889
-0.727323
-0.624428
-0.526315
-0.438143
-0.362102
-0.299549
-0.250802
-0.215166
-0.191012
-0.176387
-0.168957
-0.16612
-0.164618
-0.160938
-0.584304
-0.616492
-0.664886
-0.722687
-0.783118
-0.83817
-0.879995
-0.902307
-0.900004
-0.873639
-0.824889
-0.757984
-0.679558
-0.596273
-0.514587
-0.440932
-0.377041
-0.3224
-0.277775
-0.243169
-0.217513
-0.199203
-0.186597
-0.177718
-0.170189
-0.161694
-0.60687
-0.627824
-0.658422
-0.694981
-0.732867
-0.767082
-0.79256
-0.804573
-0.800863
-0.780965
-0.744028
-0.692792
-0.632109
-0.566863
-0.501585
-0.440727
-0.386273
-0.338542
-0.298186
-0.265255
-0.23914
-0.218817
-0.203022
-0.190321
-0.179093
-0.16778
-0.611153
-0.622605
-0.642106
-0.66728
-0.692268
-0.714238
-0.729978
-0.734113
-0.727919
-0.710567
-0.678804
-0.637082
-0.589075
-0.537443
-0.485167
-0.43506
-0.38893
-0.347627
-0.311645
-0.281093
-0.255658
-0.234679
-0.217276
-0.202474
-0.18922
-0.176487
-0.607492
-0.614806
-0.626842
-0.641561
-0.65606
-0.667871
-0.674699
-0.674377
-0.666056
-0.648903
-0.62287
-0.589897
-0.551811
-0.510607
-0.468369
-0.427033
-0.388056
-0.352313
-0.320296
-0.292198
-0.267912
-0.247057
-0.229073
-0.213323
-0.199111
-0.185759
-0.597369
-0.600886
-0.607141
-0.614866
-0.622423
-0.627988
-0.629927
-0.626735
-0.617512
-0.602027
-0.580353
-0.553108
-0.521737
-0.487806
-0.452785
-0.41804
-0.384692
-0.353511
-0.324965
-0.29928
-0.276471
-0.256332
-0.238505
-0.22259
-0.20816
-0.194765
-0.582806
-0.583795
-0.586448
-0.589884
-0.592961
-0.594367
-0.592908
-0.587604
-0.577853
-0.563435
-0.544384
-0.521258
-0.495063
-0.466779
-0.437432
-0.408014
-0.379373
-0.352145
-0.326752
-0.30343
-0.282262
-0.263168
-0.245934
-0.230334
-0.216123
-0.203008
-0.565682
-0.565021
-0.565284
-0.565824
-0.565835
-0.564433
-0.560807
-0.554298
-0.544466
-0.53113
-0.51436
-0.494561
-0.47232
-0.448318
-0.423321
-0.398065
-0.373202
-0.349247
-0.32657
-0.305402
-0.285865
-0.267956
-0.251562
-0.236561
-0.222839
-0.210208
-0.546899
-0.545232
-0.543983
-0.542691
-0.540793
-0.537686
-0.532803
-0.52568
-0.516003
-0.503648
-0.488668
-0.471356
-0.452109
-0.431424
-0.409856
-0.387954
-0.366214
-0.345048
-0.324772
-0.305596
-0.287662
-0.27101
-0.255594
-0.241363
-0.22828
-0.21624
-0.527369
-0.525173
-0.523039
-0.520641
-0.517586
-0.513457
-0.507863
-0.500487
-0.491117
-0.479667
-0.466187
-0.4509
-0.434069
-0.416048
-0.397244
-0.378077
-0.35892
-0.340112
-0.321917
-0.304525
-0.288084
-0.27266
-0.258254
-0.244858
-0.232486
-0.221083
-0.507655
-0.505236
-0.502629
-0.499611
-0.49591
-0.491243
-0.485344
-0.477998
-0.469061
-0.458474
-0.446293
-0.432667
-0.417783
-0.401905
-0.385343
-0.368411
-0.351407
-0.334598
-0.318207
-0.302412
-0.287342
-0.273086
-0.259681
-0.247135
-0.235502
-0.224759
-0.488155
-0.485721
-0.482928
-0.47963
-0.47564
-0.470767
-0.464832
-0.457692
-0.44925
-0.439473
-0.42842
-0.416184
-0.40291
-0.388802
-0.374094
-0.359027
-0.343834
-0.328733
-0.313912
-0.299526
-0.2857
-0.272521
-0.260057
-0.248336
-0.237409
-0.227316
-0.469137
-0.466823
-0.464032
-0.460674
-0.456629
-0.451768
-0.445973
-0.439151
-0.431241
-0.422239
-0.412183
-0.401139
-0.389226
-0.376602
-0.363444
-0.349941
-0.336281
-0.322641
-0.309179
-0.296033
-0.283317
-0.271124
-0.259521
-0.248569
-0.238307
-0.228795
-0.450769
-0.448659
-0.445992
-0.442721
-0.438774
-0.434068
-0.428527
-0.422094
-0.41474
-0.406468
-0.397297
-0.387291
-0.376544
-0.365178
-0.353333
-0.341158
-0.328804
-0.316418
-0.304136
-0.292078
-0.28035
-0.269042
-0.258228
-0.24797
-0.238321
-0.229339
-0.433176
-0.431305
-0.428837
-0.425745
-0.42199
-0.417526
-0.412309
-0.406309
-0.39951
-0.391913
-0.383544
-0.374456
-0.364723
-0.354441
-0.34372
-0.332681
-0.321447
-0.310141
-0.29888
-0.287771
-0.276911
-0.266388
-0.256276
-0.246639
-0.237535
-0.229023
-0.416422
-0.414797
-0.41256
-0.409697
-0.406193
-0.402024
-0.397172
-0.391619
-0.385359
-0.378399
-0.370765
-0.362498
-0.353657
-0.344318
-0.334569
-0.324508
-0.314238
-0.303863
-0.293483
-0.283196
-0.273089
-0.263249
-0.253748
-0.244649
-0.236013
-0.227897
-0.400547
-0.399165
-0.397165
-0.39455
-0.391321
-0.387473
-0.382997
-0.37789
-0.372154
-0.365796
-0.358839
-0.351315
-0.343269
-0.33476
-0.325859
-0.316647
-0.307208
-0.297633
-0.28801
-0.278426
-0.268963
-0.259703
-0.25072
-0.242077
-0.233833
-0.226047
-0.385546
-0.384387
-0.382615
-0.380248
-0.377299
-0.373773
-0.369676
-0.365011
-0.359781
-0.353995
-0.347669
-0.340827
-0.333499
-0.325732
-0.31758
-0.309111
-0.300394
-0.291509
-0.282531
-0.273543
-0.264621
-0.255837
-0.247269
-0.238982
-0.231038
-0.22351
-0.371425
-0.370454
-0.368885
-0.366749
-0.364067
-0.360857
-0.357131
-0.352895
-0.348154
-0.342914
-0.337182
-0.33097
-0.324294
-0.317189
-0.309695
-0.301868
-0.293767
-0.285461
-0.277018
-0.268515
-0.260028
-0.251631
-0.243425
-0.235452
-0.227744
-0.220384
-0.358145
-0.35732
-0.35592
-0.353984
-0.351547
-0.348632
-0.345263
-0.341442
-0.337177
-0.332466
-0.327309
-0.321698
-0.315632
-0.30913
-0.302229
-0.294966
-0.287401
-0.279593
-0.2716
-0.263507
-0.25536
-0.247218
-0.239276
-0.231595
-0.224076
-0.216794
-0.345691
-0.344954
-0.343673
-0.341898
-0.339673
-0.337033
-0.333999
-0.330581
-0.326778
-0.322589
-0.318
-0.312979
-0.307511
-0.301597
-0.295254
-0.288514
-0.28143
-0.274053
-0.266444
-0.258675
-0.250801
-0.242908
-0.235099
-0.227419
-0.219902
-0.21265
-0.334051
-0.333342
-0.332121
-0.330452
-0.32841
-0.326042
-0.32335
-0.320343
-0.317023
-0.313385
-0.309386
-0.304967
-0.300084
-0.29471
-0.288856
-0.282562
-0.275877
-0.268849
-0.261536
-0.254007
-0.24633
-0.238574
-0.230805
-0.223096
-0.21555
-0.208263
-0.323152
-0.322393
-0.321153
-0.319487
-0.317546
-0.315417
-0.313087
-0.310539
-0.307759
-0.304742
-0.301418
-0.297674
-0.293403
-0.288549
-0.283123
-0.277194
-0.270824
-0.264055
-0.256944
-0.249565
-0.24199
-0.234289
-0.226529
-0.218783
-0.211128
-0.203678
-0.313665
-0.312812
-0.31152
-0.309888
-0.308013
-0.306004
-0.303939
-0.30183
-0.299645
-0.297312
-0.294736
-0.291762
-0.288202
-0.283967
-0.279081
-0.273613
-0.267625
-0.261177
-0.254338
-0.247184
-0.239789
-0.232221
-0.224543
-0.216825
-0.209104
-0.201469
-0.305651
-0.304653
-0.30326
-0.301612
-0.299786
-0.297908
-0.296134
-0.29455
-0.293115
-0.291603
-0.289791
-0.287461
-0.284381
-0.28049
-0.275853
-0.270556
-0.264681
-0.258314
-0.251555
-0.244503
-0.237234
-0.229809
-0.22228
-0.214686
-0.20716
-0.199865
-0.303201
-0.302192
-0.300797
-0.29914
-0.297349
-0.29557
-0.29395
-0.292615
-0.291658
-0.291011
-0.29016
-0.288463
-0.28571
-0.282021
-0.277546
-0.272382
-0.266613
-0.260329
-0.253624
-0.24659
-0.239312
-0.231873
-0.224351
-0.216822
-0.209383
-0.202148
-0.387809
-0.309413
-0.226025
-0.160557
-0.0968427
-0.0354063
0.017879
0.0562755
0.0759941
0.0744801
0.0493243
-0.000294798
-0.0729217
-0.165252
-0.271849
-0.386164
-0.499461
-0.600953
-0.681152
-0.732158
-0.747134
-0.730035
-0.688617
-0.631464
-0.565556
-0.497248
-0.434187
-0.379316
-0.331337
-0.290447
-0.256382
-0.228183
-0.205154
-0.186635
-0.172013
-0.160781
-0.152526
-0.146885
-0.143496
-0.142067
-0.142568
-0.145196
-0.150224
-0.157447
-0.165974
-0.174326
-0.180931
-0.185019
-0.186501
-0.185317
-0.181796
-0.176651
-0.170665
-0.164534
-0.158851
-0.154084
-0.150568
-0.148512
-0.148095
-0.149493
-0.152799
-0.157931
-0.164967
-0.17457
-0.188065
-0.204528
-0.221462
-0.24224
-0.264507
-0.286124
-0.305309
-0.319977
-0.328274
-0.329967
-0.324556
-0.31291
-0.296324
-0.276231
-0.254078
-0.231153
-0.20842
-0.186306
-0.165213
-0.14662
-0.130885
-0.11729
-0.105685
-0.0960099
-0.0881502
-0.0820264
-0.077598
-0.0748564
-0.0738147
-0.0744839
-0.0768347
-0.0807531
-0.0860084
-0.092238
-0.09894
-0.105566
-0.111575
-0.116467
-0.119842
-0.121447
-0.121255
-0.119425
-0.116131
-0.111732
-0.106655
-0.101345
-0.0962494
-0.0917829
-0.0882818
-0.0860205
-0.0852356
-0.0861459
-0.276388
-0.244847
-0.172938
-0.0921777
-0.0184673
0.0419007
0.0883687
0.112442
0.119695
0.107271
0.0731854
0.0172583
-0.059066
-0.152237
-0.256259
-0.363519
-0.465808
-0.555002
-0.620183
-0.656371
-0.661948
-0.641723
-0.602298
-0.551027
-0.494471
-0.439184
-0.388457
-0.342376
-0.301518
-0.266015
-0.235602
-0.209825
-0.188212
-0.170279
-0.155568
-0.143682
-0.134328
-0.127226
-0.122052
-0.118515
-0.116464
-0.115934
-0.117165
-0.120414
-0.125423
-0.131256
-0.13682
-0.140922
-0.142999
-0.143175
-0.141846
-0.139137
-0.135694
-0.132151
-0.129
-0.126638
-0.125346
-0.125336
-0.126784
-0.129838
-0.134586
-0.141071
-0.149514
-0.160691
-0.175295
-0.192273
-0.21142
-0.233223
-0.256088
-0.27817
-0.2975
-0.311961
-0.319793
-0.320884
-0.314926
-0.302817
-0.285905
-0.26564
-0.243441
-0.220502
-0.197572
-0.175122
-0.154458
-0.136615
-0.121075
-0.10749
-0.0958276
-0.0859809
-0.0778419
-0.071343
-0.0664405
-0.0631187
-0.0613838
-0.0612435
-0.0626726
-0.0655709
-0.0697327
-0.0748374
-0.080455
-0.0860761
-0.0912078
-0.0954198
-0.0983604
-0.0997913
-0.0996699
-0.0982152
-0.0955195
-0.091899
-0.0877437
-0.083466
-0.0794701
-0.0761036
-0.0736743
-0.0724668
-0.0727379
-0.0747258
-0.205734
-0.181237
-0.127916
-0.0671568
-0.0123508
0.0359537
0.0763881
0.108953
0.117082
0.0997597
0.0594916
-0.000107878
-0.0756395
-0.163611
-0.258997
-0.354603
-0.437465
-0.499618
-0.54303
-0.564948
-0.563023
-0.54467
-0.513394
-0.47154
-0.428338
-0.385951
-0.345378
-0.307614
-0.27332
-0.242759
-0.215914
-0.192587
-0.172498
-0.155342
-0.140814
-0.128619
-0.118528
-0.110342
-0.10381
-0.0986878
-0.094793
-0.0920298
-0.0904773
-0.0903922
-0.0920567
-0.0952074
-0.0990194
-0.102631
-0.105073
-0.106149
-0.106138
-0.105285
-0.103741
-0.102098
-0.100822
-0.100237
-0.100592
-0.102089
-0.104894
-0.109145
-0.114945
-0.122413
-0.131927
-0.144319
-0.159582
-0.177183
-0.197253
-0.219423
-0.242411
-0.264424
-0.283412
-0.297295
-0.304801
-0.305357
-0.299122
-0.287009
-0.270317
-0.250451
-0.228733
-0.206178
-0.183472
-0.161652
-0.142172
-0.125098
-0.10991
-0.0965655
-0.0850108
-0.0751215
-0.0668022
-0.0600137
-0.0547205
-0.0508945
-0.0485389
-0.0476625
-0.0482468
-0.0502079
-0.0533672
-0.0574416
-0.0620523
-0.0667508
-0.0710784
-0.0746552
-0.0771825
-0.0783969
-0.078291
-0.07713
-0.0749147
-0.0719289
-0.068542
-0.065117
-0.0619979
-0.0595087
-0.057957
-0.0576238
-0.0587658
-0.0616128
-0.167429
-0.146436
-0.109713
-0.064991
-0.0209226
0.0180077
0.0478257
0.0630853
0.0615147
0.0430812
0.00855288
-0.0408155
-0.103624
-0.17632
-0.250992
-0.317198
-0.373163
-0.417979
-0.450513
-0.47227
-0.473735
-0.456955
-0.433393
-0.404315
-0.372383
-0.339676
-0.307427
-0.276633
-0.247955
-0.22175
-0.198145
-0.177112
-0.158537
-0.142254
-0.128077
-0.11581
-0.105283
-0.096343
-0.0888027
-0.0824843
-0.077244
-0.0729487
-0.0695369
-0.0670981
-0.0658706
-0.0661481
-0.0677854
-0.0701414
-0.0724774
-0.0740938
-0.0748949
-0.0751275
-0.0750242
-0.0747836
-0.0748043
-0.075421
-0.0768789
-0.0793657
-0.0830381
-0.0880352
-0.0944917
-0.102618
-0.112929
-0.126006
-0.141495
-0.159295
-0.179544
-0.201625
-0.224272
-0.245742
-0.264
-0.277041
-0.284253
-0.284534
-0.278365
-0.266685
-0.250703
-0.231713
-0.210876
-0.189088
-0.167333
-0.147029
-0.128891
-0.11259
-0.0979521
-0.0850093
-0.0736788
-0.0638338
-0.0554058
-0.0483804
-0.0427538
-0.0384909
-0.0355824
-0.0340422
-0.0338638
-0.0349724
-0.0372168
-0.0403568
-0.0440563
-0.047914
-0.0515125
-0.0545287
-0.0567426
-0.0576615
-0.0574665
-0.0565846
-0.0547333
-0.0522328
-0.049447
-0.0466715
-0.0442212
-0.0424113
-0.0415363
-0.0418694
-0.0436637
-0.0471483
-0.151512
-0.133715
-0.106676
-0.0742321
-0.0423643
-0.0154545
0.00395229
0.0145266
0.0124941
-0.00381809
-0.0311165
-0.0660733
-0.11305
-0.169313
-0.224846
-0.27512
-0.319583
-0.353557
-0.380707
-0.396535
-0.394591
-0.384908
-0.369854
-0.349702
-0.326103
-0.30088
-0.275251
-0.250094
-0.226043
-0.203507
-0.182711
-0.163745
-0.146604
-0.131224
-0.117508
-0.105338
-0.0946037
-0.0851849
-0.0769406
-0.0697423
-0.0634912
-0.0580863
-0.0534333
-0.0494981
-0.0463687
-0.0442626
-0.0434631
-0.0438676
-0.0450854
-0.046612
-0.0479509
-0.0488352
-0.0495067
-0.0502268
-0.0511569
-0.0525309
-0.0546219
-0.0576357
-0.0617404
-0.0670875
-0.0738482
-0.0823276
-0.0930737
-0.106251
-0.121591
-0.139306
-0.159332
-0.180922
-0.20284
-0.223396
-0.240665
-0.253011
-0.259719
-0.259984
-0.254228
-0.243348
-0.228449
-0.21067
-0.19103
-0.170552
-0.150525
-0.132036
-0.115182
-0.0997528
-0.0858011
-0.0733164
-0.0622218
-0.0524635
-0.0439896
-0.0367762
-0.0308486
-0.0261967
-0.0227913
-0.0206447
-0.0197813
-0.0201238
-0.0215301
-0.0238273
-0.0267122
-0.0298167
-0.03275
-0.0352596
-0.0374689
-0.0378075
-0.0372491
-0.0368997
-0.0353371
-0.0331399
-0.0307753
-0.0284662
-0.0264997
-0.0251766
-0.0247781
-0.025571
-0.0278039
-0.0317036
-0.150099
-0.133951
-0.112942
-0.0891496
-0.0659291
-0.0461736
-0.0319022
-0.0248658
-0.0270688
-0.0390254
-0.0598587
-0.0886314
-0.124745
-0.165328
-0.205995
-0.243938
-0.27695
-0.303239
-0.323146
-0.335033
-0.337461
-0.332517
-0.322095
-0.307311
-0.289379
-0.269571
-0.248881
-0.228064
-0.207692
-0.188172
-0.169765
-0.152622
-0.136806
-0.122323
-0.109136
-0.0971871
-0.086411
-0.0767238
-0.0680217
-0.0602137
-0.0532283
-0.0470011
-0.041465
-0.0365537
-0.0322426
-0.0286068
-0.0258516
-0.0242502
-0.0237109
-0.0240729
-0.0250425
-0.0258773
-0.0270131
-0.0286243
-0.0299205
-0.0316844
-0.0340945
-0.0373108
-0.0415016
-0.0468683
-0.0536447
-0.0622149
-0.0730295
-0.0859371
-0.100938
-0.118339
-0.137833
-0.15864
-0.179567
-0.199008
-0.215128
-0.226935
-0.233161
-0.233599
-0.228482
-0.218627
-0.205027
-0.188673
-0.170593
-0.152012
-0.134085
-0.117311
-0.101666
-0.087179
-0.0739091
-0.0618526
-0.0510011
-0.0413346
-0.0328244
-0.0254514
-0.0192434
-0.0142212
-0.0103611
-0.00766359
-0.00617215
-0.00583848
-0.00649447
-0.00801591
-0.0101748
-0.0126153
-0.0149694
-0.0169908
-0.0188919
-0.0191601
-0.0185445
-0.0181281
-0.0167498
-0.014813
-0.0127432
-0.0107557
-0.00911566
-0.00810808
-0.00800408
-0.00906337
-0.0115302
-0.0156293
-0.155089
-0.140224
-0.123133
-0.104921
-0.0875071
-0.0728948
-0.0627099
-0.0582074
-0.0603749
-0.0695996
-0.0853955
-0.106787
-0.132853
-0.162162
-0.192276
-0.22084
-0.24618
-0.267043
-0.282778
-0.292304
-0.295195
-0.292378
-0.285037
-0.274024
-0.260183
-0.244412
-0.227501
-0.210089
-0.192681
-0.175657
-0.159286
-0.143748
-0.129145
-0.115529
-0.102908
-0.0912661
-0.0805699
-0.0707689
-0.0617967
-0.0535922
-0.0461007
-0.0392756
-0.0330781
-0.0274707
-0.0224134
-0.0178821
-0.0139365
-0.0107211
-0.00840364
-0.00704868
-0.00653878
-0.0068244
-0.00786858
-0.00915432
-0.0109006
-0.0129822
-0.0153566
-0.0185918
-0.0226926
-0.0279184
-0.0345691
-0.0430543
-0.0535958
-0.0660686
-0.0806941
-0.0976057
-0.116396
-0.13628
-0.156103
-0.174324
-0.189427
-0.200467
-0.20644
-0.207164
-0.202796
-0.194069
-0.181878
-0.167155
-0.151046
-0.134681
-0.118756
-0.103496
-0.0889945
-0.0753627
-0.0626788
-0.0509944
-0.0403387
-0.0307246
-0.0221517
-0.0146138
-0.00812876
-0.00274062
0.00154767
0.00475183
0.00683396
0.00777266
0.00776184
0.00696261
0.00547107
0.00361011
0.0017214
6.47415e-05
-0.00116393
-0.0015627
-0.00125108
-0.000472523
0.000837004
0.00257036
0.00445432
0.00624835
0.00769899
0.00853938
0.00850748
0.00734974
0.00482578
0.000712667
-0.163433
-0.149637
-0.135139
-0.120565
-0.107059
-0.0959066
-0.0882133
-0.0848375
-0.086401
-0.0931502
-0.104839
-0.120877
-0.140475
-0.162413
-0.184981
-0.206529
-0.225777
-0.241727
-0.253714
-0.261224
-0.264039
-0.262432
-0.257051
-0.24854
-0.237533
-0.224688
-0.210621
-0.195855
-0.180818
-0.165851
-0.151208
-0.137073
-0.123569
-0.110772
-0.0987257
-0.0874417
-0.0769095
-0.0671072
-0.0580016
-0.0495556
-0.0417329
-0.0344987
-0.0278236
-0.0216843
-0.0160635
-0.0109416
-0.00630358
-0.00223551
0.0012232
0.00409832
0.00629999
0.00762311
0.00787875
0.00699999
0.00564486
0.00403257
0.00132079
-0.00193905
-0.00572058
-0.0107261
-0.0172239
-0.0255026
-0.0356349
-0.0477096
-0.0619802
-0.0783645
-0.0964085
-0.115319
-0.133931
-0.150934
-0.165155
-0.1753
-0.180999
-0.182119
-0.178541
-0.170884
-0.160251
-0.14749
-0.133593
-0.119346
-0.10513
-0.0911597
-0.0776235
-0.0646797
-0.0524497
-0.0410237
-0.0304678
-0.020829
-0.0121346
-0.00439693
0.00236925
0.00812019
0.012827
0.0165042
0.0191432
0.0206687
0.0211965
0.0210134
0.020187
0.0188594
0.0173982
0.0160912
0.0151688
0.014846
0.0151471
0.0159861
0.0172883
0.0189154
0.0206988
0.0223997
0.0237726
0.0245655
0.0245253
0.0234047
0.0209675
0.0169915
-0.17277
-0.159899
-0.14718
-0.134987
-0.124023
-0.115113
-0.109012
-0.106312
-0.107405
-0.11242
-0.121169
-0.133176
-0.147741
-0.163951
-0.180696
-0.19685
-0.211436
-0.223657
-0.232926
-0.238826
-0.241157
-0.240044
-0.23587
-0.229072
-0.220104
-0.209453
-0.197586
-0.184921
-0.171814
-0.158559
-0.14539
-0.132486
-0.119975
-0.107949
-0.0964666
-0.0855613
-0.0752476
-0.0655248
-0.0563818
-0.0478015
-0.0397646
-0.0322511
-0.0252424
-0.0187213
-0.0126738
-0.00708904
-0.00195284
0.00272409
0.00678044
0.0102785
0.0132671
0.0158658
0.01791
0.0189664
0.0188922
0.0176322
0.0153694
0.012497
0.00872146
0.00376115
-0.00257842
-0.0105389
-0.0203385
-0.0321775
-0.0461115
-0.0619308
-0.079153
-0.0969963
-0.114343
-0.130111
-0.143193
-0.15239
-0.157515
-0.159567
-0.157111
-0.150383
-0.14146
-0.130849
-0.119026
-0.106522
-0.093656
-0.080696
-0.0678893
-0.0554345
-0.0434852
-0.0321684
-0.0215853
-0.0118139
-0.00291105
0.0050878
0.0121615
0.0182849
0.023416
0.0275474
0.0306955
0.0327902
0.0338528
0.0341501
0.0339047
0.0331459
0.032085
0.0310841
0.0303825
0.0301556
0.0304754
0.0313221
0.0326358
0.0342183
0.0359507
0.0376243
0.0389977
0.0398291
0.039874
0.0388913
0.0366474
0.03292
-0.182102
-0.170048
-0.158625
-0.148065
-0.138813
-0.131395
-0.126295
-0.123895
-0.124437
-0.127978
-0.134357
-0.143214
-0.154019
-0.166099
-0.178649
-0.19083
-0.201879
-0.211168
-0.218216
-0.222699
-0.224462
-0.223543
-0.220142
-0.214542
-0.207071
-0.198082
-0.187932
-0.176946
-0.165418
-0.153598
-0.141691
-0.129865
-0.118248
-0.106935
-0.095997
-0.0854809
-0.0754169
-0.0658215
-0.0567014
-0.0480566
-0.0398828
-0.0321705
-0.0249112
-0.0180961
-0.011719
-0.00577593
-0.000265941
0.00481624
0.00948006
0.0135902
0.0170194
0.0198708
0.022228
0.0242288
0.0256614
0.0260515
0.0251608
0.0229955
0.0196317
0.0149547
0.00878858
0.000943369
-0.00875368
-0.0204103
-0.0340066
-0.0492686
-0.0655734
-0.0820123
-0.097759
-0.112096
-0.124186
-0.132248
-0.137098
-0.140622
-0.13923
-0.133542
-0.126566
-0.117855
-0.10769
-0.0965124
-0.0846349
-0.0723721
-0.0600202
-0.047815
-0.0359352
-0.0245478
-0.0137882
-0.00375957
0.00545389
0.0137937
0.0212271
0.0277352
0.0332951
0.0378817
0.041502
0.0441271
0.0457367
0.0464868
0.0466712
0.0464477
0.0458348
0.0451036
0.0445835
0.0444495
0.0447952
0.0456382
0.0469246
0.0485087
0.0502162
0.0518966
0.0533172
0.0542405
0.0544296
0.0536482
0.0516649
0.0482549
-0.190809
-0.179481
-0.169045
-0.159633
-0.151529
-0.145068
-0.140558
-0.138244
-0.13827
-0.140644
-0.145225
-0.151725
-0.15973
-0.168715
-0.178081
-0.187209
-0.195526
-0.202541
-0.207868
-0.211233
-0.212487
-0.211615
-0.208723
-0.203991
-0.19765
-0.189956
-0.181174
-0.17156
-0.161349
-0.150751
-0.139944
-0.129076
-0.118269
-0.107619
-0.0971997
-0.0870675
-0.077264
-0.0678189
-0.0587527
-0.0500799
-0.0418113
-0.0339438
-0.0264765
-0.0194127
-0.0127521
-0.00648987
-0.000624155
0.00482593
0.00983192
0.0143767
0.0184764
0.0219577
0.0247111
0.026771
0.0281268
0.0287372
0.0285346
0.0273397
0.0248806
0.0208942
0.0152356
0.00780443
-0.00145936
-0.0125301
-0.025257
-0.0393761
-0.0542964
-0.0692673
-0.0836035
-0.0966938
-0.107882
-0.11579
-0.12166
-0.125301
-0.124936
-0.121493
-0.116011
-0.108692
-0.0997262
-0.0894386
-0.0781981
-0.0663406
-0.0541673
-0.0419427
-0.0298925
-0.0182279
-0.00712236
0.00330144
0.0129394
0.0217128
0.0295743
0.0365016
0.0424859
0.0475222
0.0516054
0.0547169
0.056851
0.0580862
0.058629
0.0587852
0.0586589
0.0582592
0.0578939
0.0578375
0.0582019
0.0590267
0.0602683
0.0618253
0.0635399
0.0652378
0.0667192
0.0677566
0.0681169
0.0675662
0.0658711
0.0628023
-0.19855
-0.187883
-0.178231
-0.169662
-0.162355
-0.156527
-0.152372
-0.150034
-0.149589
-0.151017
-0.154188
-0.158872
-0.164742
-0.171398
-0.178386
-0.185239
-0.191512
-0.196812
-0.200821
-0.203309
-0.204139
-0.20327
-0.200749
-0.196686
-0.191238
-0.184587
-0.17693
-0.168465
-0.159379
-0.149841
-0.140004
-0.129998
-0.119932
-0.109897
-0.0999688
-0.0902066
-0.0806598
-0.0713672
-0.0623604
-0.0536682
-0.0453103
-0.0372962
-0.0296283
-0.0223173
-0.0153746
-0.00880744
-0.00261431
0.00320544
0.0086261
0.0135978
0.0180733
0.0220096
0.0253766
0.0280264
0.0298938
0.0309082
0.0309751
0.029978
0.027731
0.0241035
0.0189705
0.0122055
0.00373147
-0.00642983
-0.018119
-0.030962
-0.0444697
-0.0581906
-0.0715987
-0.084036
-0.0948815
-0.103685
-0.110516
-0.114694
-0.115642
-0.113691
-0.109475
-0.103221
-0.0950531
-0.0853208
-0.0744018
-0.0626378
-0.0503551
-0.0378574
-0.025416
-0.0132659
-0.0016107
0.00937367
0.019562
0.0288717
0.0372416
0.0446413
0.0510685
0.0565345
0.0610518
0.0646227
0.0672494
0.0689763
0.0699258
0.0703433
0.070546
0.0705749
0.0704293
0.0704335
0.0708067
0.0716057
0.0727822
0.0742694
0.0759727
0.0776886
0.0792304
0.0803755
0.0809006
0.0805715
0.0791562
0.0764412
-0.205159
-0.195096
-0.186094
-0.178169
-0.171435
-0.166034
-0.162085
-0.15967
-0.158819
-0.159497
-0.161587
-0.1649
-0.169177
-0.174102
-0.179325
-0.184482
-0.189221
-0.193231
-0.196252
-0.198086
-0.198606
-0.197757
-0.195548
-0.192039
-0.187335
-0.181562
-0.174866
-0.167395
-0.159295
-0.150702
-0.141742
-0.132524
-0.123145
-0.113688
-0.104223
-0.0948111
-0.0855056
-0.076351
-0.0673866
-0.0586612
-0.0501969
-0.0420092
-0.0341125
-0.0265277
-0.0192742
-0.0123666
-0.00580901
0.00039739
0.00623427
0.0116519
0.0165792
0.0209762
0.0248194
0.0280213
0.0304941
0.0321357
0.0328243
0.0324226
0.0307793
0.0277594
0.0232436
0.0171379
0.0093928
1.85055e-05
-0.0108619
-0.0228742
-0.0356919
-0.0489783
-0.0622516
-0.0748748
-0.0861757
-0.0957556
-0.103459
-0.108704
-0.110837
-0.110045
-0.106854
-0.101336
-0.0936596
-0.0841837
-0.0732786
-0.0613069
-0.048631
-0.0355942
-0.0225092
-0.00965204
0.00274467
0.014469
0.0253564
0.0353168
0.0442859
0.0522235
0.0591281
0.0650256
0.0699531
0.0739418
0.0770109
0.0791962
0.0805832
0.0813259
0.0816945
0.0819992
0.0822218
0.0823361
0.0827005
0.0835329
0.0846072
0.0859324
0.0875965
0.089319
0.0908848
0.09211
0.0927744
0.0926488
0.0915097
0.0891288
-0.210583
-0.20107
-0.19262
-0.185216
-0.178916
-0.173819
-0.17
-0.1675
-0.166321
-0.166418
-0.167687
-0.169971
-0.17306
-0.176704
-0.180625
-0.184537
-0.188159
-0.191238
-0.193555
-0.19494
-0.195275
-0.194497
-0.192589
-0.189582
-0.185538
-0.180544
-0.174703
-0.168125
-0.160921
-0.153196
-0.14505
-0.136572
-0.127843
-0.118934
-0.109909
-0.100826
-0.0917395
-0.0826961
-0.0737437
-0.064945
-0.0563328
-0.0479235
-0.0397461
-0.0318287
-0.0241989
-0.0168842
-0.00990201
-0.00325233
0.00305851
0.00897914
0.0144239
0.0193253
0.0236642
0.0273918
0.0304108
0.0326157
0.0338909
0.0341021
0.0330981
0.0307275
0.0268552
0.0213734
0.014214
0.00535799
-0.00505959
-0.0167546
-0.0294286
-0.0427552
-0.0562462
-0.0692996
-0.0812632
-0.0916503
-0.100284
-0.106745
-0.110147
-0.110369
-0.107956
-0.102964
-0.0955479
-0.0860562
-0.0748764
-0.0624037
-0.0490404
-0.0351781
-0.0211802
-0.00736949
0.00598223
0.0186315
0.0303796
0.0411205
0.0507937
0.0593475
0.0667771
0.0731245
0.0784468
0.0828065
0.0862571
0.0888457
0.0906411
0.0917568
0.0923643
0.0927359
0.0931706
0.0935866
0.0939506
0.0948947
0.0959235
0.0969362
0.0985067
0.100189
0.101746
0.103018
0.103791
0.103832
0.102906
0.100773
-0.214839
-0.205822
-0.197843
-0.190877
-0.18493
-0.180068
-0.176344
-0.173775
-0.172346
-0.172008
-0.172672
-0.174202
-0.176429
-0.17915
-0.182141
-0.18517
-0.188009
-0.190446
-0.192297
-0.193413
-0.193686
-0.193046
-0.191464
-0.188945
-0.185524
-0.181257
-0.176212
-0.17047
-0.164109
-0.157209
-0.149844
-0.142081
-0.133983
-0.125607
-0.117007
-0.108234
-0.0993397
-0.0903718
-0.0813884
-0.0724613
-0.0636334
-0.0549273
-0.0463864
-0.0380506
-0.0299559
-0.0221411
-0.0146403
-0.00746338
-0.000604752
0.00589805
0.0119435
0.0174319
0.0223256
0.0266123
0.0301982
0.032971
0.0348095
0.0355749
0.0351156
0.0332776
0.0299149
0.0249026
0.018153
0.00962305
-0.000606713
-0.0122304
-0.0249767
-0.0385726
-0.0525752
-0.0664227
-0.0794216
-0.0909019
-0.100553
-0.108258
-0.11321
-0.114546
-0.112798
-0.108195
-0.100849
-0.0910863
-0.0793367
-0.0660497
-0.0516813
-0.0366821
-0.021475
-0.00643633
0.00811741
0.0218991
0.0346828
0.0463583
0.0568561
0.0661177
0.0741419
0.0809704
0.0866816
0.091379
0.0951471
0.0980588
0.100199
0.101663
0.102572
0.1031
0.10352
0.104121
0.104799
0.105521
0.106446
0.107535
0.108904
0.110459
0.111943
0.113187
0.113983
0.114099
0.113297
0.11133
-0.217989
-0.209433
-0.201842
-0.195246
-0.189603
-0.18494
-0.181299
-0.17869
-0.177089
-0.176445
-0.17668
-0.17768
-0.179304
-0.181385
-0.18374
-0.186177
-0.188505
-0.190543
-0.192134
-0.193147
-0.193479
-0.193059
-0.191847
-0.189833
-0.18703
-0.183472
-0.179203
-0.174274
-0.16874
-0.162654
-0.156064
-0.149017
-0.141553
-0.133712
-0.125533
-0.117056
-0.108329
-0.0993955
-0.0903222
-0.0811951
-0.0720635
-0.0629608
-0.0539473
-0.045079
-0.0364029
-0.0279686
-0.0198275
-0.0120096
-0.00451296
0.00265699
0.00940803
0.0155861
0.0211209
0.0260355
0.0302423
0.0336221
0.0360519
0.0373903
0.0374795
0.0361555
0.0332583
0.0286448
0.0222065
0.0138777
0.00366534
-0.00816475
-0.0213438
-0.0356517
-0.0506491
-0.0657426
-0.0802301
-0.0933392
-0.104441
-0.113417
-0.119797
-0.12258
-0.121552
-0.117201
-0.109743
-0.0994659
-0.086845
-0.0724027
-0.05667
-0.0401761
-0.0234162
-0.00682946
0.00921083
0.0243583
0.0383755
0.0511508
0.0626018
0.072673
0.0813614
0.08872
0.0948383
0.0998449
0.103867
0.107021
0.109412
0.111137
0.112309
0.113072
0.113579
0.114065
0.114841
0.115775
0.116619
0.11758
0.118786
0.120148
0.12149
0.122645
0.123411
0.123552
0.122813
0.120934
-0.220032
-0.211971
-0.20471
-0.198416
-0.193039
-0.188557
-0.185005
-0.182393
-0.18069
-0.179852
-0.179807
-0.180461
-0.181693
-0.183366
-0.185327
-0.187414
-0.189458
-0.191304
-0.192815
-0.193874
-0.194381
-0.194266
-0.193483
-0.192009
-0.189846
-0.187008
-0.183521
-0.179416
-0.174723
-0.16947
-0.163684
-0.157382
-0.150583
-0.143301
-0.135556
-0.127374
-0.11879
-0.109846
-0.100612
-0.0911904
-0.081642
-0.0720137
-0.0623872
-0.0528404
-0.0434377
-0.0342411
-0.0253152
-0.0167163
-0.00846768
-0.000546628
0.00701087
0.014012
0.0202986
0.0259202
0.0308213
0.0348746
0.0379526
0.0399096
0.0405782
0.0397813
0.0373407
0.0330882
0.0268834
0.018622
0.00825131
-0.00404964
-0.0180219
-0.0334657
-0.0499619
-0.0668503
-0.0833544
-0.0986417
-0.111841
-0.12235
-0.130255
-0.13484
-0.134726
-0.130564
-0.122762
-0.111661
-0.0978155
-0.0818217
-0.0642938
-0.0458667
-0.027133
-0.00860915
0.00925297
0.026055
0.0415541
0.0556312
0.0681846
0.079172
0.088606
0.0965485
0.103106
0.108421
0.112655
0.115969
0.118504
0.120382
0.121722
0.122654
0.123302
0.123801
0.124392
0.125341
0.126347
0.127217
0.128228
0.129371
0.130501
0.131469
0.132092
0.13214
0.131355
0.129469
-0.221048
-0.213405
-0.206486
-0.200483
-0.195336
-0.191022
-0.187573
-0.184992
-0.183253
-0.182316
-0.182118
-0.182577
-0.18359
-0.185045
-0.186817
-0.188759
-0.190715
-0.192544
-0.194131
-0.195369
-0.196164
-0.196441
-0.19615
-0.195264
-0.193776
-0.191689
-0.189016
-0.185769
-0.18196
-0.177594
-0.172671
-0.167182
-0.161111
-0.154446
-0.147178
-0.139308
-0.130858
-0.121862
-0.11239
-0.102565
-0.0924643
-0.0821505
-0.071734
-0.061323
-0.0510085
-0.0408703
-0.0309855
-0.0214379
-0.0122901
-0.00352743
0.00489942
0.0128603
0.020058
0.0264645
0.0321379
0.0369466
0.0407495
0.043393
0.0446976
0.0444696
0.0425076
0.0386124
0.0326012
0.0243198
0.0136568
0.000639225
-0.014496
-0.0315128
-0.0499839
-0.0692146
-0.0883533
-0.106445
-0.122521
-0.135926
-0.14614
-0.152
-0.152786
-0.148901
-0.140552
-0.128236
-0.112689
-0.0946369
-0.0747926
-0.0538989
-0.0326757
-0.0117507
0.00831262
0.0270991
0.0443756
0.0599724
0.0737878
0.0858013
0.096052
0.104626
0.111652
0.117292
0.121727
0.125146
0.127729
0.129637
0.131018
0.132005
0.132721
0.133273
0.133793
0.134528
0.135523
0.136391
0.137256
0.138206
0.139121
0.139865
0.140276
0.140141
0.139214
0.137216
-0.221116
-0.213814
-0.207255