/*--------------------------------*- C++ -*----------------------------------*\
| =========                 |                                                 |
| \\      /  F ield         | OpenFOAM: The Open Source CFD Toolbox           |
|  \\    /   O peration     | Version:  2206                                  |
|   \\  /    A nd           | Website:  www.openfoam.com                      |
|    \\/     M anipulation  |                                                 |
\*---------------------------------------------------------------------------*/
FoamFile
{
    version     2.0;
    format      ascii;
    arch        "LSB;label=32;scalar=64";
    class       volVectorField;
    location    "18.6999";
    object      U;
}
// * * * * * * * * * * * * * * * * * * * * * * * * * * * * * * * * * * * * * //

dimensions      [0 1 -1 0 0 0 0];

internalField   nonuniform List<vector> 
3038
(
(1.47762 -0.000252141 0)
(1.4777 -0.000755355 0)
(1.47789 -0.00125327 0)
(1.47818 -0.00174127 0)
(1.47856 -0.00221547 0)
(1.47903 -0.00267273 0)
(1.47958 -0.00311047 0)
(1.48021 -0.00352662 0)
(1.48091 -0.00391966 0)
(1.48169 -0.00428862 0)
(1.48253 -0.00463302 0)
(1.48343 -0.00495277 0)
(1.48438 -0.00524809 0)
(1.48538 -0.0055195 0)
(1.48643 -0.00576765 0)
(1.48753 -0.00599338 0)
(1.48866 -0.00619758 0)
(1.48982 -0.00638117 0)
(1.49102 -0.00654511 0)
(1.49224 -0.0066903 0)
(1.49349 -0.00681763 0)
(1.49476 -0.00692789 0)
(1.49604 -0.00702183 0)
(1.49734 -0.00710012 0)
(1.49866 -0.00716332 0)
(1.49998 -0.00721193 0)
(1.50131 -0.00724636 0)
(1.50265 -0.00726694 0)
(1.50398 -0.00727393 0)
(1.50532 -0.00726752 0)
(1.50665 -0.00724781 0)
(1.50798 -0.00721488 0)
(1.50929 -0.00716875 0)
(1.51059 -0.00710943 0)
(1.51188 -0.00703688 0)
(1.51315 -0.00695103 0)
(1.51441 -0.00685184 0)
(1.51564 -0.00673916 0)
(1.51684 -0.00661294 0)
(1.51801 -0.00647297 0)
(1.51916 -0.0063192 0)
(1.52027 -0.00615132 0)
(1.52134 -0.00596931 0)
(1.52238 -0.00577263 0)
(1.52337 -0.00556134 0)
(1.52432 -0.00533461 0)
(1.52523 -0.00509247 0)
(1.52608 -0.00483375 0)
(1.52689 -0.00455836 0)
(1.52763 -0.00426473 0)
(1.52832 -0.00395253 0)
(1.52895 -0.00361954 0)
(1.52951 -0.0032655 0)
(1.53001 -0.00288691 0)
(1.53043 -0.0024844 0)
(1.53078 -0.00205243 0)
(1.53104 -0.00159344 0)
(1.53122 -0.00109895 0)
(1.53131 -0.000565861 0)
(1.5313 1.01221e-05 0)
(1.53117 0.00063451 0)
(1.53094 0.00131348 0)
(1.53058 0.00205408 0)
(1.53008 0.00286448 0)
(1.52944 0.00375414 0)
(1.52864 0.00473396 0)
(1.52766 0.00581655 0)
(1.52649 0.00701642 0)
(1.52511 0.00835039 0)
(1.5235 0.00983791 0)
(1.52163 0.0115016 0)
(1.51947 0.0133677 0)
(1.51699 0.0154669 0)
(1.51417 0.017835 0)
(1.51095 0.0205141 0)
(1.5073 0.0235539 0)
(1.50315 0.027013 0)
(1.49845 0.030961 0)
(1.49315 0.0354811 0)
(1.48715 0.040673 0)
(1.48037 0.0466568 0)
(1.47272 0.0535781 0)
(1.46409 0.0616146 0)
(1.45435 0.0709839 0)
(1.44338 0.0819549 0)
(1.43101 0.0948619 0)
(1.41708 0.110124 0)
(1.40141 0.12827 0)
(1.38382 0.149974 0)
(1.36412 0.176107 0)
(1.34214 0.207802 0)
(1.31774 0.246569 0)
(1.29093 0.294427 0)
(1.26154 0.354292 0)
(1.23111 0.430051 0)
(1.19668 0.528818 0)
(1.17746 0.658046 0)
(1.12601 0.845978 0)
(1.28368 1.07989 0)
(1.14261 1.61819 0)
(1.47762 -0.000301799 0)
(1.4777 -0.000903906 0)
(1.4779 -0.00149923 0)
(1.4782 -0.00208202 0)
(1.4786 -0.0026475 0)
(1.47909 -0.00319186 0)
(1.47966 -0.00371205 0)
(1.48032 -0.0042057 0)
(1.48105 -0.00467111 0)
(1.48185 -0.0051073 0)
(1.48271 -0.00551384 0)
(1.48364 -0.0058908 0)
(1.48462 -0.0062386 0)
(1.48565 -0.00655796 0)
(1.48672 -0.00684979 0)
(1.48784 -0.00711514 0)
(1.48899 -0.00735514 0)
(1.49018 -0.00757091 0)
(1.49139 -0.00776361 0)
(1.49264 -0.00793429 0)
(1.4939 -0.008084 0)
(1.49519 -0.00821364 0)
(1.49649 -0.00832407 0)
(1.49781 -0.00841602 0)
(1.49914 -0.00849013 0)
(1.50049 -0.00854692 0)
(1.50183 -0.00858684 0)
(1.50318 -0.00861022 0)
(1.50454 -0.00861735 0)
(1.50589 -0.00860838 0)
(1.50724 -0.00858343 0)
(1.50858 -0.00854254 0)
(1.50991 -0.00848575 0)
(1.51123 -0.00841306 0)
(1.51253 -0.00832443 0)
(1.51382 -0.0082198 0)
(1.51509 -0.00809912 0)
(1.51633 -0.00796226 0)
(1.51755 -0.00780921 0)
(1.51874 -0.00763973 0)
(1.5199 -0.00745384 0)
(1.52103 -0.00725122 0)
(1.52212 -0.00703184 0)
(1.52317 -0.00679527 0)
(1.52418 -0.00654137 0)
(1.52515 -0.00626961 0)
(1.52607 -0.00597954 0)
(1.52694 -0.00567053 0)
(1.52776 -0.00534172 0)
(1.52853 -0.0049922 0)
(1.52924 -0.00462071 0)
(1.52989 -0.00422584 0)
(1.53048 -0.00380595 0)
(1.531 -0.00335895 0)
(1.53145 -0.00288298 0)
(1.53183 -0.00237487 0)
(1.53213 -0.00183314 0)
(1.53235 -0.00125043 0)
(1.53248 -0.000623671 0)
(1.53251 5.26613e-05 0)
(1.53245 0.000784885 0)
(1.53227 0.00158001 0)
(1.53198 0.00244609 0)
(1.53157 0.0033925 0)
(1.53102 0.00443002 0)
(1.53032 0.00557106 0)
(1.52946 0.00682988 0)
(1.52843 0.00822293 0)
(1.5272 0.00976915 0)
(1.52577 0.0114904 0)
(1.5241 0.0134121 0)
(1.52218 0.0155636 0)
(1.51997 0.017979 0)
(1.51746 0.020698 0)
(1.5146 0.0237672 0)
(1.51135 0.0272411 0)
(1.50769 0.031184 0)
(1.50356 0.0356717 0)
(1.49891 0.040794 0)
(1.49368 0.0466584 0)
(1.48781 0.0533929 0)
(1.48124 0.0611518 0)
(1.47389 0.0701216 0)
(1.46568 0.0805285 0)
(1.45655 0.092649 0)
(1.4464 0.106823 0)
(1.43517 0.12347 0)
(1.42281 0.143113 0)
(1.4093 0.166408 0)
(1.39467 0.194183 0)
(1.37907 0.227497 0)
(1.36276 0.267721 0)
(1.34646 0.316647 0)
(1.33089 0.376692 0)
(1.31947 0.451075 0)
(1.31215 0.544533 0)
(1.32908 0.662004 0)
(1.35143 0.815122 0)
(1.46981 0.977442 0)
(1.62112 1.31726 0)
(1.47762 -0.000354047 0)
(1.47771 -0.00106014 0)
(1.47792 -0.00175768 0)
(1.47824 -0.00243958 0)
(1.47866 -0.00309998 0)
(1.47917 -0.00373438 0)
(1.47977 -0.00433924 0)
(1.48045 -0.0049119 0)
(1.48121 -0.00545061 0)
(1.48205 -0.00595441 0)
(1.48294 -0.00642307 0)
(1.4839 -0.00685687 0)
(1.48491 -0.00725653 0)
(1.48597 -0.00762305 0)
(1.48707 -0.00795767 0)
(1.48821 -0.0082617 0)
(1.48939 -0.00853655 0)
(1.4906 -0.0087836 0)
(1.49184 -0.00900419 0)
(1.49311 -0.00919959 0)
(1.4944 -0.00937098 0)
(1.49571 -0.0095194 0)
(1.49703 -0.0096458 0)
(1.49837 -0.00975098 0)
(1.49973 -0.00983565 0)
(1.50109 -0.00990035 0)
(1.50245 -0.00994554 0)
(1.50382 -0.00997157 0)
(1.5052 -0.00997869 0)
(1.50657 -0.00996707 0)
(1.50794 -0.00993679 0)
(1.5093 -0.00988788 0)
(1.51065 -0.00982037 0)
(1.51199 -0.00973424 0)
(1.51331 -0.00962945 0)
(1.51462 -0.00950595 0)
(1.5159 -0.00936369 0)
(1.51716 -0.00920259 0)
(1.5184 -0.00902258 0)
(1.51961 -0.0088236 0)
(1.52079 -0.00860548 0)
(1.52193 -0.00836821 0)
(1.52304 -0.00811145 0)
(1.52411 -0.00783522 0)
(1.52514 -0.00753892 0)
(1.52613 -0.00722254 0)
(1.52707 -0.00688513 0)
(1.52796 -0.00652652 0)
(1.5288 -0.00614532 0)
(1.52959 -0.00574112 0)
(1.53032 -0.00531189 0)
(1.531 -0.00485703 0)
(1.53161 -0.00437351 0)
(1.53216 -0.00386067 0)
(1.53265 -0.00331428 0)
(1.53306 -0.00273347 0)
(1.5334 -0.00211244 0)
(1.53367 -0.0014468 0)
(1.53385 -0.000731835 0)
(1.53394 3.86157e-05 0)
(1.53393 0.000871433 0)
(1.53383 0.00177437 0)
(1.53362 0.00275639 0)
(1.5333 0.00382787 0)
(1.53286 0.00500072 0)
(1.53228 0.00628857 0)
(1.53155 0.00770709 0)
(1.53067 0.00927426 0)
(1.52962 0.0110108 0)
(1.52838 0.0129404 0)
(1.52694 0.0150906 0)
(1.52527 0.0174931 0)
(1.52337 0.0201847 0)
(1.52119 0.0232079 0)
(1.51873 0.0266123 0)
(1.51594 0.0304557 0)
(1.51281 0.034806 0)
(1.50929 0.0397425 0)
(1.50535 0.0453589 0)
(1.50095 0.051766 0)
(1.49606 0.0590952 0)
(1.49064 0.0675028 0)
(1.48465 0.0771761 0)
(1.47805 0.0883395 0)
(1.47083 0.101264 0)
(1.46297 0.116276 0)
(1.4545 0.133774 0)
(1.44546 0.154243 0)
(1.43598 0.178275 0)
(1.42627 0.206599 0)
(1.41671 0.240111 0)
(1.40788 0.279908 0)
(1.40083 0.327346 0)
(1.39696 0.383997 0)
(1.39933 0.451822 0)
(1.41067 0.532365 0)
(1.43974 0.627146 0)
(1.49112 0.737731 0)
(1.56753 0.831867 0)
(1.74105 1.00952 0)
(1.47762 -0.000409537 0)
(1.47772 -0.00122599 0)
(1.47794 -0.00203172 0)
(1.47828 -0.00281799 0)
(1.47872 -0.00357774 0)
(1.47927 -0.00430563 0)
(1.4799 -0.00499766 0)
(1.48062 -0.00565099 0)
(1.48142 -0.00626387 0)
(1.48229 -0.00683555 0)
(1.48322 -0.00736606 0)
(1.48421 -0.00785607 0)
(1.48526 -0.00830667 0)
(1.48635 -0.00871929 0)
(1.48749 -0.00909551 0)
(1.48866 -0.00943703 0)
(1.48987 -0.00974556 0)
(1.49111 -0.0100228 0)
(1.49238 -0.0102702 0)
(1.49367 -0.0104894 0)
(1.49499 -0.0106816 0)
(1.49632 -0.0108481 0)
(1.49767 -0.0109899 0)
(1.49903 -0.0111078 0)
(1.50041 -0.0112027 0)
(1.50179 -0.011275 0)
(1.50318 -0.0113252 0)
(1.50457 -0.0113538 0)
(1.50597 -0.0113608 0)
(1.50736 -0.0113464 0)
(1.50875 -0.0113107 0)
(1.51013 -0.0112537 0)
(1.51151 -0.0111754 0)
(1.51287 -0.0110758 0)
(1.51421 -0.0109547 0)
(1.51554 -0.0108123 0)
(1.51685 -0.0106483 0)
(1.51813 -0.0104628 0)
(1.51939 -0.0102557 0)
(1.52062 -0.0100271 0)
(1.52182 -0.0097767 0)
(1.52299 -0.00950464 0)
(1.52412 -0.00921064 0)
(1.52521 -0.00889467 0)
(1.52626 -0.0085564 0)
(1.52727 -0.00819551 0)
(1.52823 -0.00781156 0)
(1.52914 -0.0074038 0)
(1.53001 -0.00697155 0)
(1.53082 -0.00651359 0)
(1.53158 -0.0060287 0)
(1.53228 -0.00551521 0)
(1.53293 -0.00497118 0)
(1.53351 -0.0043944 0)
(1.53403 -0.00378175 0)
(1.53449 -0.00313097 0)
(1.53487 -0.00243568 0)
(1.53518 -0.00169228 0)
(1.53542 -0.00089506 0)
(1.53557 -3.74274e-05 0)
(1.53564 0.000887921 0)
(1.53561 0.00188946 0)
(1.53549 0.00297693 0)
(1.53527 0.00416149 0)
(1.53494 0.00545592 0)
(1.53449 0.00687484 0)
(1.53391 0.00843498 0)
(1.53319 0.0101555 0)
(1.53233 0.0120584 0)
(1.53131 0.0141689 0)
(1.53011 0.0165158 0)
(1.52873 0.0191326 0)
(1.52714 0.0220576 0)
(1.52534 0.0253351 0)
(1.52329 0.0290165 0)
(1.521 0.0331614 0)
(1.51842 0.0378389 0)
(1.51555 0.0431299 0)
(1.51236 0.0491287 0)
(1.50884 0.0559459 0)
(1.50496 0.0637115 0)
(1.50073 0.0725785 0)
(1.49612 0.0827278 0)
(1.49115 0.0943732 0)
(1.48585 0.107768 0)
(1.48026 0.123215 0)
(1.47447 0.14107 0)
(1.46862 0.161759 0)
(1.46294 0.185785 0)
(1.45776 0.21374 0)
(1.45359 0.246317 0)
(1.45118 0.284299 0)
(1.45163 0.328564 0)
(1.4565 0.379946 0)
(1.46808 0.439244 0)
(1.48954 0.506612 0)
(1.52399 0.580651 0)
(1.58125 0.663628 0)
(1.65251 0.729795 0)
(1.77496 0.827858 0)
(1.47762 -0.000469069 0)
(1.47773 -0.00140381 0)
(1.47796 -0.00232509 0)
(1.47833 -0.00322218 0)
(1.47881 -0.00408651 0)
(1.47939 -0.00491186 0)
(1.48006 -0.00569381 0)
(1.48082 -0.00642947 0)
(1.48167 -0.0071173 0)
(1.48258 -0.00775686 0)
(1.48356 -0.00834866 0)
(1.48459 -0.00889387 0)
(1.48568 -0.00939414 0)
(1.48681 -0.00985139 0)
(1.48798 -0.0102677 0)
(1.48919 -0.0106452 0)
(1.49043 -0.0109859 0)
(1.49171 -0.0112919 0)
(1.49301 -0.0115649 0)
(1.49433 -0.0118068 0)
(1.49567 -0.0120189 0)
(1.49703 -0.0122026 0)
(1.49841 -0.0123591 0)
(1.4998 -0.0124893 0)
(1.5012 -0.0125939 0)
(1.50261 -0.0126735 0)
(1.50402 -0.0127286 0)
(1.50544 -0.0127595 0)
(1.50686 -0.0127663 0)
(1.50828 -0.0127492 0)
(1.50969 -0.0127081 0)
(1.5111 -0.012643 0)
(1.5125 -0.0125538 0)
(1.51388 -0.0124406 0)
(1.51525 -0.0123033 0)
(1.51661 -0.0121418 0)
(1.51794 -0.0119561 0)
(1.51925 -0.0117461 0)
(1.52053 -0.0115119 0)
(1.52178 -0.0112534 0)
(1.52301 -0.0109708 0)
(1.5242 -0.0106638 0)
(1.52535 -0.0103327 0)
(1.52647 -0.00997708 0)
(1.52754 -0.0095971 0)
(1.52857 -0.00919215 0)
(1.52956 -0.00876219 0)
(1.5305 -0.00830624 0)
(1.53139 -0.0078239 0)
(1.53223 -0.00731368 0)
(1.53302 -0.00677482 0)
(1.53375 -0.00620487 0)
(1.53443 -0.00560287 0)
(1.53505 -0.00496506 0)
(1.53561 -0.00429006 0)
(1.5361 -0.0035726 0)
(1.53654 -0.00280855 0)
(1.5369 -0.00199314 0)
(1.53719 -0.00112027 0)
(1.53741 -0.00018307 0)
(1.53756 0.000826181 0)
(1.53762 0.00191648 0)
(1.53759 0.00309813 0)
(1.53748 0.0043829 0)
(1.53726 0.00578419 0)
(1.53695 0.00731735 0)
(1.53653 0.00899987 0)
(1.53599 0.0108517 0)
(1.53533 0.0128957 0)
(1.53453 0.015158 0)
(1.5336 0.0176683 0)
(1.53251 0.0204608 0)
(1.53126 0.0235747 0)
(1.52984 0.0270551 0)
(1.52824 0.0309538 0)
(1.52645 0.0353306 0)
(1.52445 0.0402543 0)
(1.52225 0.0458048 0)
(1.51983 0.0520747 0)
(1.51719 0.059171 0)
(1.51434 0.0672187 0)
(1.51129 0.0763627 0)
(1.50806 0.086772 0)
(1.5047 0.0986431 0)
(1.50126 0.112205 0)
(1.49784 0.127723 0)
(1.49459 0.145505 0)
(1.4917 0.165904 0)
(1.48946 0.189323 0)
(1.48827 0.216211 0)
(1.48869 0.247058 0)
(1.49151 0.282368 0)
(1.49777 0.322621 0)
(1.50889 0.368168 0)
(1.52667 0.419077 0)
(1.55373 0.475105 0)
(1.592 0.534076 0)
(1.64746 0.596904 0)
(1.7192 0.650469 0)
(1.80987 0.702981 0)
(1.47763 -0.000533655 0)
(1.47774 -0.00159655 0)
(1.478 -0.00264248 0)
(1.47839 -0.00365816 0)
(1.47891 -0.00463327 0)
(1.47954 -0.00556053 0)
(1.48026 -0.00643525 0)
(1.48107 -0.00725474 0)
(1.48197 -0.00801792 0)
(1.48293 -0.00872494 0)
(1.48396 -0.00937698 0)
(1.48504 -0.00997591 0)
(1.48617 -0.0105241 0)
(1.48735 -0.0110241 0)
(1.48856 -0.0114786 0)
(1.48981 -0.0118901 0)
(1.4911 -0.0122613 0)
(1.4924 -0.0125944 0)
(1.49374 -0.0128916 0)
(1.49509 -0.0131548 0)
(1.49647 -0.0133858 0)
(1.49786 -0.0135858 0)
(1.49926 -0.0137563 0)
(1.50068 -0.0138981 0)
(1.50211 -0.014012 0)
(1.50355 -0.0140986 0)
(1.50499 -0.0141584 0)
(1.50644 -0.0141914 0)
(1.50788 -0.014198 0)
(1.50933 -0.014178 0)
(1.51077 -0.0141315 0)
(1.51221 -0.0140582 0)
(1.51363 -0.0139582 0)
(1.51504 -0.0138313 0)
(1.51644 -0.0136775 0)
(1.51782 -0.0134967 0)
(1.51918 -0.013289 0)
(1.52052 -0.0130543 0)
(1.52183 -0.0127926 0)
(1.52311 -0.0125041 0)
(1.52436 -0.0121889 0)
(1.52557 -0.0118469 0)
(1.52675 -0.0114783 0)
(1.52789 -0.0110832 0)
(1.529 -0.0106614 0)
(1.53005 -0.0102128 0)
(1.53107 -0.00973707 0)
(1.53203 -0.00923384 0)
(1.53295 -0.00870218 0)
(1.53382 -0.00814131 0)
(1.53464 -0.00754976 0)
(1.53541 -0.00692601 0)
(1.53612 -0.00626794 0)
(1.53678 -0.00557293 0)
(1.53738 -0.00483847 0)
(1.53792 -0.00405916 0)
(1.5384 -0.00323145 0)
(1.53882 -0.00234991 0)
(1.53918 -0.00140828 0)
(1.53947 -0.000399486 0)
(1.53969 0.000684617 0)
(1.53984 0.00185333 0)
(1.53991 0.00311732 0)
(1.53991 0.00448875 0)
(1.53983 0.0059815 0)
(1.53966 0.00761134 0)
(1.5394 0.00939622 0)
(1.53904 0.0113566 0)
(1.53859 0.0135156 0)
(1.53803 0.0158997 0)
(1.53737 0.0185391 0)
(1.53658 0.0214682 0)
(1.53568 0.024726 0)
(1.53466 0.0283573 0)
(1.53351 0.0324133 0)
(1.53223 0.0369527 0)
(1.53082 0.0420425 0)
(1.52929 0.0477597 0)
(1.52764 0.0541926 0)
(1.52588 0.0614427 0)
(1.52405 0.0696265 0)
(1.52216 0.0788774 0)
(1.52026 0.0893485 0)
(1.51843 0.101215 0)
(1.51676 0.114675 0)
(1.51537 0.129956 0)
(1.51443 0.147309 0)
(1.5142 0.167015 0)
(1.51498 0.189377 0)
(1.51719 0.214713 0)
(1.5214 0.243338 0)
(1.52834 0.275532 0)
(1.53896 0.311491 0)
(1.55445 0.351251 0)
(1.57625 0.394514 0)
(1.60624 0.440711 0)
(1.646 0.48796 0)
(1.69793 0.53498 0)
(1.7633 0.575794 0)
(1.83925 0.607072 0)
(1.47763 -0.000604553 0)
(1.47775 -0.00180797 0)
(1.47804 -0.00298985 0)
(1.47847 -0.00413357 0)
(1.47904 -0.00522655 0)
(1.47972 -0.00626064 0)
(1.4805 -0.00723106 0)
(1.48138 -0.00813562 0)
(1.48233 -0.00897405 0)
(1.48335 -0.00974744 0)
(1.48444 -0.0104579 0)
(1.48558 -0.0111083 0)
(1.48676 -0.011702 0)
(1.48799 -0.0122422 0)
(1.48925 -0.0127324 0)
(1.49054 -0.0131757 0)
(1.49187 -0.0135752 0)
(1.49321 -0.0139335 0)
(1.49458 -0.0142531 0)
(1.49597 -0.0145362 0)
(1.49738 -0.0147847 0)
(1.49881 -0.0150001 0)
(1.50025 -0.0151838 0)
(1.5017 -0.0153366 0)
(1.50316 -0.0154595 0)
(1.50462 -0.0155529 0)
(1.5061 -0.0156173 0)
(1.50757 -0.0156527 0)
(1.50905 -0.0156591 0)
(1.51053 -0.0156365 0)
(1.512 -0.0155846 0)
(1.51346 -0.0155034 0)
(1.51492 -0.0153927 0)
(1.51636 -0.0152523 0)
(1.51779 -0.0150821 0)
(1.5192 -0.0148822 0)
(1.52059 -0.0146524 0)
(1.52196 -0.0143929 0)
(1.5233 -0.0141037 0)
(1.52461 -0.013785 0)
(1.52589 -0.013437 0)
(1.52713 -0.0130599 0)
(1.52834 -0.0126538 0)
(1.52951 -0.0122191 0)
(1.53064 -0.0117556 0)
(1.53172 -0.0112636 0)
(1.53277 -0.0107427 0)
(1.53376 -0.0101928 0)
(1.53471 -0.00961293 0)
(1.53561 -0.00900268 0)
(1.53646 -0.00836023 0)
(1.53726 -0.0076848 0)
(1.53801 -0.00697333 0)
(1.53871 -0.00622451 0)
(1.53935 -0.00543391 0)
(1.53994 -0.00459777 0)
(1.54048 -0.00371179 0)
(1.54096 -0.0027704 0)
(1.54138 -0.00176724 0)
(1.54174 -0.000695086 0)
(1.54204 0.000454371 0)
(1.54228 0.00169073 0)
(1.54246 0.00302482 0)
(1.54258 0.00446901 0)
(1.54262 0.00603739 0)
(1.5426 0.00774592 0)
(1.54251 0.00961271 0)
(1.54234 0.0116583 0)
(1.5421 0.0139059 0)
(1.54179 0.0163819 0)
(1.5414 0.0191161 0)
(1.54093 0.0221425 0)
(1.54038 0.0254995 0)
(1.53975 0.0292306 0)
(1.53905 0.0333856 0)
(1.53829 0.0380205 0)
(1.53746 0.0431994 0)
(1.53659 0.0489948 0)
(1.5357 0.0554895 0)
(1.5348 0.0627768 0)
(1.53394 0.0709629 0)
(1.53316 0.0801674 0)
(1.53253 0.0905253 0)
(1.53214 0.102187 0)
(1.53209 0.115321 0)
(1.53255 0.130111 0)
(1.53369 0.146757 0)
(1.53578 0.16547 0)
(1.53913 0.186463 0)
(1.54417 0.209943 0)
(1.55141 0.236085 0)
(1.56152 0.265003 0)
(1.57528 0.2967 0)
(1.59367 0.331005 0)
(1.61778 0.367451 0)
(1.64886 0.405247 0)
(1.68802 0.442867 0)
(1.73616 0.478449 0)
(1.79387 0.508755 0)
(1.85987 0.53092 0)
(1.47763 -0.000683693 0)
(1.47777 -0.00204298 0)
(1.47809 -0.00337472 0)
(1.47857 -0.00465738 0)
(1.4792 -0.00587721 0)
(1.47995 -0.00702261 0)
(1.48081 -0.00809114 0)
(1.48175 -0.00908152 0)
(1.48277 -0.00999449 0)
(1.48387 -0.0108324 0)
(1.48502 -0.0115988 0)
(1.48622 -0.0122978 0)
(1.48746 -0.0129337 0)
(1.48874 -0.013511 0)
(1.49005 -0.0140339 0)
(1.4914 -0.0145062 0)
(1.49276 -0.0149313 0)
(1.49415 -0.0153126 0)
(1.49556 -0.0156527 0)
(1.49699 -0.0159541 0)
(1.49844 -0.0162187 0)
(1.4999 -0.0164483 0)
(1.50137 -0.0166441 0)
(1.50285 -0.0168073 0)
(1.50435 -0.0169386 0)
(1.50585 -0.0170384 0)
(1.50735 -0.0171069 0)
(1.50886 -0.0171444 0)
(1.51037 -0.0171505 0)
(1.51188 -0.0171251 0)
(1.51339 -0.0170678 0)
(1.51489 -0.0169784 0)
(1.51638 -0.0168567 0)
(1.51785 -0.0167025 0)
(1.51932 -0.0165156 0)
(1.52076 -0.0162961 0)
(1.52218 -0.0160438 0)
(1.52358 -0.015759 0)
(1.52496 -0.0154417 0)
(1.5263 -0.0150924 0)
(1.52761 -0.0147111 0)
(1.52889 -0.0142984 0)
(1.53013 -0.0138544 0)
(1.53133 -0.0133797 0)
(1.53249 -0.0128745 0)
(1.5336 -0.0123389 0)
(1.53468 -0.0117732 0)
(1.5357 -0.011177 0)
(1.53668 -0.01055 0)
(1.53762 -0.00989137 0)
(1.5385 -0.00920003 0)
(1.53934 -0.00847457 0)
(1.54012 -0.00771273 0)
(1.54086 -0.00691294 0)
(1.54155 -0.00607033 0)
(1.54219 -0.00518194 0)
(1.54277 -0.0042431 0)
(1.54331 -0.00324821 0)
(1.5438 -0.00219087 0)
(1.54424 -0.00106376 0)
(1.54462 0.000141563 0)
(1.54496 0.00143458 0)
(1.54524 0.00282631 0)
(1.54547 0.00432918 0)
(1.54565 0.00595722 0)
(1.54578 0.00772636 0)
(1.54586 0.00965456 0)
(1.54588 0.0117621 0)
(1.54586 0.014072 0)
(1.54579 0.0166099 0)
(1.54567 0.0194051 0)
(1.54551 0.0224904 0)
(1.54531 0.0259029 0)
(1.54508 0.0296842 0)
(1.54483 0.0338816 0)
(1.54456 0.0385481 0)
(1.54431 0.0437432 0)
(1.54408 0.0495344 0)
(1.54391 0.0559969 0)
(1.54384 0.0632153 0)
(1.5439 0.0712838 0)
(1.54417 0.0803072 0)
(1.54471 0.0904009 0)
(1.54564 0.101691 0)
(1.54707 0.114315 0)
(1.54916 0.128417 0)
(1.55213 0.144148 0)
(1.5562 0.161658 0)
(1.56171 0.181085 0)
(1.56904 0.202547 0)
(1.57864 0.226114 0)
(1.59109 0.251784 0)
(1.60704 0.279436 0)
(1.62722 0.308787 0)
(1.65244 0.33931 0)
(1.6835 0.370187 0)
(1.7211 0.40018 0)
(1.76562 0.427717 0)
(1.81703 0.450727 0)
(1.87459 0.467217 0)
(1.47764 -0.000773061 0)
(1.47779 -0.00230838 0)
(1.47815 -0.00380734 0)
(1.47871 -0.00524438 0)
(1.47941 -0.00659875 0)
(1.48024 -0.00786082 0)
(1.48118 -0.00902877 0)
(1.48221 -0.0101042 0)
(1.48332 -0.0110893 0)
(1.48449 -0.0119885 0)
(1.48571 -0.0128067 0)
(1.48698 -0.01355 0)
(1.48829 -0.0142242 0)
(1.48963 -0.0148347 0)
(1.491 -0.0153866 0)
(1.49239 -0.0158845 0)
(1.49381 -0.0163325 0)
(1.49524 -0.0167341 0)
(1.4967 -0.0170926 0)
(1.49817 -0.0174105 0)
(1.49965 -0.0176901 0)
(1.50115 -0.017933 0)
(1.50266 -0.0181407 0)
(1.50418 -0.0183141 0)
(1.50571 -0.018454 0)
(1.50724 -0.0185606 0)
(1.50878 -0.0186341 0)
(1.51033 -0.0186744 0)
(1.51188 -0.0186811 0)
(1.51342 -0.0186538 0)
(1.51496 -0.0185918 0)
(1.5165 -0.018495 0)
(1.51803 -0.0183629 0)
(1.51954 -0.0181953 0)
(1.52104 -0.017992 0)
(1.52252 -0.017753 0)
(1.52398 -0.0174782 0)
(1.52542 -0.017168 0)
(1.52683 -0.0168224 0)
(1.52821 -0.016442 0)
(1.52955 -0.016027 0)
(1.53087 -0.0155781 0)
(1.53214 -0.0150959 0)
(1.53337 -0.0145806 0)
(1.53456 -0.0140334 0)
(1.53571 -0.013454 0)
(1.53682 -0.0128436 0)
(1.53788 -0.0122014 0)
(1.53889 -0.0115279 0)
(1.53986 -0.0108218 0)
(1.54078 -0.010083 0)
(1.54165 -0.0093094 0)
(1.54247 -0.00849985 0)
(1.54325 -0.00765175 0)
(1.54398 -0.00676134 0)
(1.54467 -0.00582536 0)
(1.54531 -0.00483914 0)
(1.54591 -0.00379714 0)
(1.54646 -0.00269296 0)
(1.54698 -0.00151931 0)
(1.54745 -0.000267821 0)
(1.54787 0.00107094 0)
(1.54826 0.00250791 0)
(1.54861 0.00405537 0)
(1.54893 0.00572719 0)
(1.5492 0.00753902 0)
(1.54945 0.00950845 0)
(1.54967 0.0116553 0)
(1.54986 0.0140018 0)
(1.55002 0.0165729 0)
(1.55017 0.0193966 0)
(1.55032 0.0225042 0)
(1.55046 0.0259309 0)
(1.55061 0.029716 0)
(1.55079 0.0339035 0)
(1.55102 0.0385423 0)
(1.55131 0.0436873 0)
(1.5517 0.0493994 0)
(1.55222 0.0557461 0)
(1.55291 0.0628021 0)
(1.55384 0.0706494 0)
(1.55507 0.0793772 0)
(1.55669 0.0890818 0)
(1.5588 0.0998659 0)
(1.56154 0.111837 0)
(1.56507 0.125104 0)
(1.56959 0.139774 0)
(1.57534 0.155947 0)
(1.58261 0.173703 0)
(1.59174 0.193089 0)
(1.60315 0.214103 0)
(1.61728 0.236666 0)
(1.63467 0.260592 0)
(1.65587 0.285552 0)
(1.68144 0.311026 0)
(1.71189 0.336274 0)
(1.74762 0.360293 0)
(1.78876 0.381853 0)
(1.83504 0.399484 0)
(1.88571 0.411702 0)
(1.47764 -0.000875824 0)
(1.47782 -0.00261383 0)
(1.47824 -0.00430333 0)
(1.47888 -0.00590958 0)
(1.47968 -0.00740807 0)
(1.48062 -0.00879023 0)
(1.48166 -0.0100581 0)
(1.48279 -0.0112165 0)
(1.48399 -0.0122702 0)
(1.48525 -0.0132258 0)
(1.48656 -0.0140907 0)
(1.48791 -0.0148731 0)
(1.48928 -0.0155803 0)
(1.49069 -0.0162193 0)
(1.49212 -0.0167957 0)
(1.49356 -0.0173152 0)
(1.49503 -0.0177824 0)
(1.49651 -0.0182012 0)
(1.49801 -0.0185749 0)
(1.49953 -0.0189066 0)
(1.50105 -0.0191985 0)
(1.50259 -0.0194525 0)
(1.50414 -0.01967 0)
(1.50569 -0.019852 0)
(1.50726 -0.0199989 0)
(1.50883 -0.0201112 0)
(1.51041 -0.0201887 0)
(1.51199 -0.0202312 0)
(1.51358 -0.0202379 0)
(1.51517 -0.0202083 0)
(1.51675 -0.0201414 0)
(1.51832 -0.0200367 0)
(1.51989 -0.0198939 0)
(1.52145 -0.0197126 0)
(1.52299 -0.0194926 0)
(1.52451 -0.0192338 0)
(1.52601 -0.0189362 0)
(1.52749 -0.0186 0)
(1.52894 -0.0182257 0)
(1.53036 -0.0178135 0)
(1.53174 -0.0173644 0)
(1.53309 -0.0168787 0)
(1.5344 -0.0163576 0)
(1.53567 -0.0158015 0)
(1.5369 -0.0152118 0)
(1.53808 -0.0145887 0)
(1.53922 -0.0139334 0)
(1.54031 -0.0132458 0)
(1.54136 -0.0125263 0)
(1.54236 -0.0117739 0)
(1.54331 -0.0109889 0)
(1.54422 -0.0101692 0)
(1.54509 -0.00931423 0)
(1.54591 -0.00842107 0)
(1.54668 -0.00748672 0)
(1.54742 -0.00650792 0)
(1.54811 -0.00548003 0)
(1.54877 -0.00439745 0)
(1.54939 -0.00325381 0)
(1.54998 -0.00204197 0)
(1.55053 -0.000753837 0)
(1.55105 0.000619979 0)
(1.55154 0.00209001 0)
(1.55201 0.00366825 0)
(1.55245 0.00536822 0)
(1.55288 0.0072051 0)
(1.55329 0.00919592 0)
(1.55369 0.0113597 0)
(1.55409 0.0137177 0)
(1.55449 0.0162937 0)
(1.55491 0.0191141 0)
(1.55535 0.0222087 0)
(1.55582 0.0256102 0)
(1.55634 0.0293549 0)
(1.55694 0.0334831 0)
(1.55762 0.0380395 0)
(1.55843 0.0430734 0)
(1.55939 0.0486389 0)
(1.56055 0.0547955 0)
(1.56196 0.0616077 0)
(1.56368 0.0691451 0)
(1.56578 0.077482 0)
(1.56836 0.0866963 0)
(1.57153 0.0968685 0)
(1.57541 0.10808 0)
(1.58017 0.120408 0)
(1.58601 0.133926 0)
(1.59313 0.14869 0)
(1.60181 0.164736 0)
(1.61234 0.182063 0)
(1.62508 0.200619 0)
(1.64038 0.220285 0)
(1.65866 0.240843 0)
(1.68033 0.261961 0)
(1.70577 0.28316 0)
(1.7353 0.303801 0)
(1.7691 0.323074 0)
(1.80716 0.340023 0)
(1.84915 0.353584 0)
(1.89437 0.362721 0)
(1.47765 -0.000996733 0)
(1.47786 -0.00297288 0)
(1.47836 -0.00488164 0)
(1.47911 -0.00667606 0)
(1.48004 -0.0083277 0)
(1.4811 -0.00983217 0)
(1.48227 -0.0111979 0)
(1.48351 -0.012434 0)
(1.48483 -0.0135492 0)
(1.48619 -0.0145532 0)
(1.48759 -0.0154569 0)
(1.48902 -0.0162708 0)
(1.49047 -0.0170046 0)
(1.49195 -0.0176665 0)
(1.49344 -0.0182633 0)
(1.49495 -0.0188013 0)
(1.49647 -0.0192854 0)
(1.498 -0.0197199 0)
(1.49955 -0.0201085 0)
(1.50111 -0.0204541 0)
(1.50267 -0.0207591 0)
(1.50425 -0.0210254 0)
(1.50584 -0.0212542 0)
(1.50744 -0.0214464 0)
(1.50905 -0.0216025 0)
(1.51066 -0.0217224 0)
(1.51228 -0.021806 0)
(1.5139 -0.0218525 0)
(1.51553 -0.0218611 0)
(1.51716 -0.0218305 0)
(1.51879 -0.0217597 0)
(1.52041 -0.021648 0)
(1.52202 -0.0214949 0)
(1.52362 -0.0213 0)
(1.52521 -0.021063 0)
(1.52677 -0.020784 0)
(1.52832 -0.0204629 0)
(1.52984 -0.0200999 0)
(1.53133 -0.0196956 0)
(1.53279 -0.0192506 0)
(1.53422 -0.0187657 0)
(1.53561 -0.0182419 0)
(1.53696 -0.0176802 0)
(1.53827 -0.0170816 0)
(1.53953 -0.0164477 0)
(1.54075 -0.0157796 0)
(1.54193 -0.0150786 0)
(1.54305 -0.0143452 0)
(1.54413 -0.0135798 0)
(1.54517 -0.0127816 0)
(1.54616 -0.0119511 0)
(1.54711 -0.0110865 0)
(1.54801 -0.0101877 0)
(1.54887 -0.00925198 0)
(1.54969 -0.00827685 0)
(1.55047 -0.00725937 0)
(1.55122 -0.00619499 0)
(1.55194 -0.00507803 0)
(1.55262 -0.00390214 0)
(1.55328 -0.00266036 0)
(1.55391 -0.00134482 0)
(1.55452 5.35296e-05 0)
(1.55512 0.00154487 0)
(1.5557 0.00314079 0)
(1.55627 0.00485424 0)
(1.55684 0.00669977 0)
(1.55741 0.00869375 0)
(1.55799 0.0108543 0)
(1.55859 0.0132012 0)
(1.55922 0.0157569 0)
(1.55989 0.018546 0)
(1.5606 0.021596 0)
(1.56139 0.024937 0)
(1.56226 0.0286022 0)
(1.56325 0.0326279 0)
(1.56437 0.0370539 0)
(1.56565 0.0419237 0)
(1.56715 0.0472846 0)
(1.5689 0.0531878 0)
(1.57095 0.059688 0)
(1.57339 0.066843 0)
(1.57627 0.0747128 0)
(1.57969 0.0833582 0)
(1.58377 0.0928391 0)
(1.58864 0.103214 0)
(1.59444 0.114535 0)
(1.60136 0.126845 0)
(1.60959 0.140171 0)
(1.61938 0.154513 0)
(1.63097 0.16984 0)
(1.64466 0.186072 0)
(1.66073 0.203066 0)
(1.67951 0.220603 0)
(1.70128 0.238366 0)
(1.7263 0.255934 0)
(1.75475 0.272768 0)
(1.7867 0.288221 0)
(1.82204 0.301563 0)
(1.86045 0.312023 0)
(1.90132 0.318882 0)
(1.47766 -0.00114296 0)
(1.47792 -0.00340646 0)
(1.47853 -0.00557155 0)
(1.47943 -0.00757346 0)
(1.48052 -0.00938379 0)
(1.48174 -0.0110096 0)
(1.48305 -0.0124689 0)
(1.48444 -0.0137765 0)
(1.48588 -0.0149447 0)
(1.48736 -0.0159873 0)
(1.48886 -0.0169195 0)
(1.49038 -0.0177548 0)
(1.49191 -0.018505 0)
(1.49346 -0.0191799 0)
(1.49502 -0.0197873 0)
(1.49659 -0.0203343 0)
(1.49816 -0.0208264 0)
(1.49975 -0.0212686 0)
(1.50134 -0.0216645 0)
(1.50295 -0.0220173 0)
(1.50456 -0.0223295 0)
(1.50618 -0.0226029 0)
(1.50781 -0.0228389 0)
(1.50945 -0.0230381 0)
(1.5111 -0.0232007 0)
(1.51276 -0.0233269 0)
(1.51442 -0.023416 0)
(1.51609 -0.0234671 0)
(1.51776 -0.0234784 0)
(1.51944 -0.0234481 0)
(1.52111 -0.0233747 0)
(1.52278 -0.0232572 0)
(1.52445 -0.023095 0)
(1.5261 -0.0228877 0)
(1.52773 -0.0226348 0)
(1.52935 -0.0223365 0)
(1.53095 -0.0219926 0)
(1.53252 -0.0216036 0)
(1.53406 -0.0211698 0)
(1.53557 -0.0206923 0)
(1.53704 -0.0201721 0)
(1.53847 -0.0196102 0)
(1.53987 -0.0190078 0)
(1.54122 -0.0183665 0)
(1.54252 -0.0176879 0)
(1.54378 -0.0169739 0)
(1.54499 -0.0162269 0)
(1.54615 -0.0154476 0)
(1.54727 -0.0146366 0)
(1.54834 -0.0137934 0)
(1.54937 -0.0129189 0)
(1.55035 -0.0120114 0)
(1.5513 -0.0110712 0)
(1.5522 -0.0100963 0)
(1.55306 -0.00908466 0)
(1.55389 -0.00803338 0)
(1.55469 -0.00693763 0)
(1.55546 -0.0057919 0)
(1.55621 -0.00459042 0)
(1.55693 -0.00332671 0)
(1.55765 -0.00199314 0)
(1.55835 -0.000580958 0)
(1.55904 0.000919583 0)
(1.55973 0.00251949 0)
(1.56042 0.00423108 0)
(1.56113 0.00606805 0)
(1.56186 0.00804589 0)
(1.56261 0.0101816 0)
(1.5634 0.0124938 0)
(1.56424 0.0150033 0)
(1.56514 0.0177331 0)
(1.56613 0.020708 0)
(1.56721 0.0239554 0)
(1.56841 0.0275047 0)
(1.56975 0.0313882 0)
(1.57127 0.0356407 0)
(1.57299 0.0403 0)
(1.57497 0.0454064 0)
(1.57725 0.051003 0)
(1.57989 0.0571354 0)
(1.58295 0.0638506 0)
(1.58652 0.0711961 0)
(1.59068 0.0792173 0)
(1.59554 0.0879559 0)
(1.60122 0.0974492 0)
(1.60788 0.107729 0)
(1.61567 0.118815 0)
(1.62477 0.13071 0)
(1.6354 0.143393 0)
(1.64776 0.156813 0)
(1.6621 0.170876 0)
(1.67864 0.185436 0)
(1.69762 0.200283 0)
(1.71924 0.21513 0)
(1.74367 0.229612 0)
(1.77101 0.243285 0)
(1.80124 0.25564 0)
(1.83421 0.266123 0)
(1.86963 0.274171 0)
(1.907 0.279271 0)
(1.47767 -0.00132559 0)
(1.47801 -0.00394753 0)
(1.47878 -0.00641805 0)
(1.47988 -0.00864623 0)
(1.48119 -0.0106125 0)
(1.4826 -0.0123477 0)
(1.48409 -0.0138865 0)
(1.48563 -0.0152512 0)
(1.48722 -0.0164592 0)
(1.48882 -0.0175301 0)
(1.49044 -0.0184834 0)
(1.49206 -0.0193365 0)
(1.49368 -0.0201026 0)
(1.49531 -0.0207924 0)
(1.49694 -0.0214141 0)
(1.49857 -0.0219745 0)
(1.50021 -0.0224795 0)
(1.50185 -0.0229342 0)
(1.50349 -0.0233423 0)
(1.50515 -0.023707 0)
(1.50681 -0.0240305 0)
(1.50848 -0.0243146 0)
(1.51015 -0.0245605 0)
(1.51184 -0.0247685 0)
(1.51353 -0.0249388 0)
(1.51523 -0.0250712 0)
(1.51694 -0.0251655 0)
(1.51866 -0.0252205 0)
(1.52038 -0.0252336 0)
(1.52211 -0.0252023 0)
(1.52384 -0.0251247 0)
(1.52556 -0.0249995 0)
(1.52728 -0.0248259 0)
(1.52899 -0.0246038 0)
(1.53068 -0.0243323 0)
(1.53235 -0.024012 0)
(1.534 -0.0236423 0)
(1.53563 -0.0232238 0)
(1.53722 -0.0227566 0)
(1.53878 -0.0222429 0)
(1.54031 -0.0216834 0)
(1.54179 -0.0210804 0)
(1.54324 -0.020434 0)
(1.54463 -0.0197473 0)
(1.54598 -0.0190213 0)
(1.54728 -0.0182601 0)
(1.54853 -0.0174653 0)
(1.54973 -0.0166387 0)
(1.55089 -0.0157797 0)
(1.552 -0.01489 0)
(1.55307 -0.0139691 0)
(1.55409 -0.0130181 0)
(1.55507 -0.0120347 0)
(1.556 -0.0110214 0)
(1.55691 -0.00997683 0)
(1.55778 -0.00889774 0)
(1.55863 -0.00777663 0)
(1.55946 -0.00660731 0)
(1.56027 -0.00538522 0)
(1.56106 -0.00410516 0)
(1.56185 -0.00275998 0)
(1.56263 -0.00134145 0)
(1.56342 0.000159599 0)
(1.56421 0.00175376 0)
(1.56502 0.00345235 0)
(1.56586 0.0052688 0)
(1.56672 0.00721767 0)
(1.56764 0.00931324 0)
(1.56861 0.0115723 0)
(1.56965 0.0140145 0)
(1.57077 0.0166614 0)
(1.572 0.0195354 0)
(1.57335 0.0226604 0)
(1.57485 0.0260625 0)
(1.57652 0.0297694 0)
(1.5784 0.0338111 0)
(1.58052 0.0382193 0)
(1.58293 0.0430276 0)
(1.58568 0.0482717 0)
(1.58883 0.0539884 0)
(1.59244 0.0602148 0)
(1.5966 0.0669866 0)
(1.60138 0.0743347 0)
(1.60689 0.0822855 0)