/*--------------------------------*- C++ -*----------------------------------*\
| =========                 |                                                 |
| \\      /  F ield         | OpenFOAM: The Open Source CFD Toolbox           |
|  \\    /   O peration     | Version:  2206                                  |
|   \\  /    A nd           | Website:  www.openfoam.com                      |
|    \\/     M anipulation  |                                                 |
\*---------------------------------------------------------------------------*/
FoamFile
{
    version     2.0;
    format      ascii;
    arch        "LSB;label=32;scalar=64";
    class       surfaceScalarField;
    location    "19.2";
    object      phi_0;
}
// * * * * * * * * * * * * * * * * * * * * * * * * * * * * * * * * * * * * * //

dimensions      [0 3 -1 0 0 0 0];

oriented        oriented;

internalField   nonuniform List<scalar> 
6027
(
9.82339e-06
1.25108e-06
-1.3602e-06
9.92966e-06
9.72001e-07
-1.07827e-06
1.0031e-05
6.60775e-07
-7.62142e-07
1.01253e-05
3.20564e-07
-4.14859e-07
1.021e-05
-4.29598e-08
-4.17302e-08
1.02812e-05
-4.18805e-07
3.47642e-07
1.03354e-05
-7.9189e-07
7.37654e-07
1.03708e-05
-1.15091e-06
1.1155e-06
1.03861e-05
-1.48583e-06
1.47056e-06
1.03805e-05
-1.78775e-06
1.79328e-06
1.03541e-05
-2.0491e-06
2.0755e-06
1.03073e-05
-2.26386e-06
2.31074e-06
1.02402e-05
-2.42738e-06
2.49439e-06
1.01518e-05
-2.53498e-06
2.62341e-06
1.00385e-05
-2.58121e-06
2.69449e-06
9.90025e-06
-2.56609e-06
2.70438e-06
9.74055e-06
-2.49931e-06
2.65901e-06
9.56438e-06
-2.39515e-06
2.57132e-06
9.3785e-06
-2.27079e-06
2.45668e-06
9.19086e-06
-2.14387e-06
2.33151e-06
9.00739e-06
-2.02663e-06
2.2101e-06
8.83171e-06
-1.92408e-06
2.09976e-06
8.66613e-06
-1.83722e-06
2.00281e-06
8.5117e-06
-1.76418e-06
1.91861e-06
8.3685e-06
-1.70133e-06
1.84452e-06
8.23597e-06
-1.64407e-06
1.7766e-06
8.1133e-06
-1.58753e-06
1.7102e-06
7.99983e-06
-1.52695e-06
1.64042e-06
7.89519e-06
-1.45787e-06
1.56251e-06
7.79938e-06
-1.37638e-06
1.4722e-06
7.71293e-06
-1.27867e-06
1.36512e-06
7.63678e-06
-1.1611e-06
1.23725e-06
7.57218e-06
-1.02065e-06
1.08524e-06
7.52058e-06
-8.5516e-07
9.06757e-07
7.48348e-06
-6.63682e-07
7.0079e-07
7.46227e-06
-4.46728e-07
4.67931e-07
7.45821e-06
-2.06471e-07
2.1054e-07
7.4722e-06
5.31757e-08
-6.71699e-08
7.5047e-06
3.26567e-07
-3.59069e-07
7.55523e-06
6.06257e-07
-6.56791e-07
7.62231e-06
8.82639e-07
-9.49718e-07
7.70425e-06
1.14761e-06
-1.22954e-06
7.7988e-06
1.3944e-06
-1.48895e-06
7.90334e-06
1.61704e-06
-1.72158e-06
8.015e-06
1.81083e-06
-1.92249e-06
8.1309e-06
1.97262e-06
-2.08851e-06
8.24848e-06
2.10073e-06
-2.21831e-06
8.36588e-06
2.19479e-06
-2.31219e-06
8.48202e-06
2.25525e-06
-2.3714e-06
8.59611e-06
2.28274e-06
-2.39682e-06
8.70674e-06
2.27785e-06
-2.38848e-06
8.81242e-06
2.24268e-06
-2.34836e-06
8.91247e-06
2.181e-06
-2.28105e-06
9.0072e-06
2.09727e-06
-2.192e-06
9.09766e-06
1.9958e-06
-2.08625e-06
9.18528e-06
1.88012e-06
-1.96775e-06
9.27157e-06
1.75277e-06
-1.83907e-06
9.35782e-06
1.61522e-06
-1.70147e-06
9.44493e-06
1.46804e-06
-1.55515e-06
9.53332e-06
1.31118e-06
-1.39958e-06
9.62294e-06
1.14425e-06
-1.23387e-06
9.71323e-06
9.66838e-07
-1.05712e-06
9.80322e-06
7.78699e-07
-8.68689e-07
9.89165e-06
5.79832e-07
-6.6827e-07
9.97719e-06
3.70384e-07
-4.55923e-07
1.00585e-05
1.50672e-07
-2.32013e-07
1.01342e-05
-7.83228e-08
2.69032e-09
1.02019e-05
-3.13598e-07
2.45902e-07
1.02589e-05
-5.49471e-07
4.92404e-07
1.03032e-05
-7.79977e-07
7.35738e-07
1.03322e-05
-9.99208e-07
9.70192e-07
1.03441e-05
-1.20223e-06
1.19031e-06
1.03381e-05
-1.38488e-06
1.3909e-06
1.03137e-05
-1.54254e-06
1.56695e-06
1.02703e-05
-1.67092e-06
1.71429e-06
1.02067e-05
-1.76618e-06
1.82976e-06
1.01201e-05
-1.82346e-06
1.91004e-06
1.0009e-05
-1.84009e-06
1.95127e-06
9.87522e-06
-1.81927e-06
1.95301e-06
9.72339e-06
-1.7683e-06
1.92013e-06
9.56008e-06
-1.69751e-06
1.86081e-06
9.39359e-06
-1.61902e-06
1.78552e-06
9.23132e-06
-1.54337e-06
1.70563e-06
9.07809e-06
-1.47634e-06
1.62958e-06
8.93706e-06
-1.42023e-06
1.56126e-06
8.8101e-06
-1.37481e-06
1.50177e-06
8.69797e-06
-1.33794e-06
1.45008e-06
8.60054e-06
-1.30605e-06
1.40348e-06
8.51723e-06
-1.27469e-06
1.358e-06
8.44745e-06
-1.23874e-06
1.30852e-06
8.3906e-06
-1.19273e-06
1.24958e-06
8.34573e-06
-1.13233e-06
1.1772e-06
8.31208e-06
-1.05417e-06
1.08782e-06
8.28895e-06
-9.5571e-07
9.78838e-07
8.27576e-06
-8.35636e-07
8.48826e-07
8.27199e-06
-6.93749e-07
6.97525e-07
8.27714e-06
-5.3098e-07
5.25833e-07
8.29075e-06
-3.49273e-07
3.35662e-07
8.31242e-06
-1.51444e-07
1.29774e-07
8.3418e-06
5.8899e-08
-8.82792e-08
8.37851e-06
2.77233e-07
-3.13949e-07
8.42187e-06
4.9754e-07
-5.40896e-07
8.47139e-06
7.1319e-07
-7.62715e-07
8.52663e-06
9.19537e-07
-9.74771e-07
8.587e-06
1.11222e-06
-1.17259e-06
8.65173e-06
1.28728e-06
-1.35202e-06
8.71978e-06
1.44138e-06
-1.50943e-06
8.78984e-06
1.57206e-06
-1.64212e-06
8.86047e-06
1.67798e-06
-1.74862e-06
8.93044e-06
1.75891e-06
-1.82888e-06
8.99904e-06
1.81542e-06
-1.88402e-06
9.06638e-06
1.84811e-06
-1.91544e-06
9.13261e-06
1.85647e-06
-1.92271e-06
9.19699e-06
1.83956e-06
-1.90393e-06
9.25851e-06
1.79804e-06
-1.85956e-06
9.31671e-06
1.73382e-06
-1.79202e-06
9.37173e-06
1.64955e-06
-1.70457e-06
9.4241e-06
1.54812e-06
-1.60048e-06
9.47454e-06
1.43225e-06
-1.48269e-06
9.52374e-06
1.30435e-06
-1.35355e-06
9.57226e-06
1.16636e-06
-1.21488e-06
9.6204e-06
1.01986e-06
-1.068e-06
8.66081e-07
-9.13877e-07
1.00324e-05
1.1235e-06
1.01548e-05
8.49644e-07
1.02695e-05
5.46043e-07
1.03742e-05
2.15896e-07
1.04658e-05
-1.34555e-07
1.05397e-05
-4.92723e-07
1.05929e-05
-8.45087e-07
1.06234e-05
-1.1814e-06
1.063e-05
-1.49243e-06
1.06123e-05
-1.77002e-06
1.05703e-05
-2.00717e-06
1.05045e-05
-2.19802e-06
1.04141e-05
-2.33702e-06
1.02966e-05
-2.4174e-06
1.01497e-05
-2.4344e-06
9.97656e-06
-2.39291e-06
9.78174e-06
-2.30449e-06
9.57218e-06
-2.18559e-06
9.35691e-06
-2.05552e-06
9.14435e-06
-1.93132e-06
8.93981e-06
-1.82209e-06
8.74669e-06
-1.73096e-06
8.56674e-06
-1.65727e-06
8.40034e-06
-1.59779e-06
8.24684e-06
-1.54783e-06
8.10501e-06
-1.50224e-06
7.9735e-06
-1.45602e-06
7.85121e-06
-1.40465e-06
7.73748e-06
-1.34414e-06
7.63215e-06
-1.27105e-06
7.53577e-06
-1.18229e-06
7.44941e-06
-1.07474e-06
7.37454e-06
-9.45774e-07
7.31288e-06
-7.93497e-07
7.26624e-06
-6.17046e-07
7.23639e-06
-4.16879e-07
7.22489e-06
-1.94967e-07
7.23293e-06
4.51272e-08
7.26121e-06
2.98294e-07
7.30953e-06
5.5794e-07
7.37648e-06
8.15689e-07
7.46039e-06
1.06369e-06
7.55907e-06
1.29573e-06
7.66987e-06
1.50623e-06
7.78998e-06
1.69073e-06
7.91655e-06
1.84604e-06
8.04703e-06
1.97025e-06
8.17931e-06
2.06252e-06
8.31183e-06
2.12272e-06
8.44334e-06
2.15123e-06
8.57229e-06
2.1489e-06
8.69715e-06
2.11782e-06
8.81702e-06
2.06113e-06
8.93178e-06
1.98251e-06
9.04199e-06
1.88559e-06
9.14861e-06
1.77351e-06
9.25273e-06
1.64865e-06
9.35536e-06
1.51259e-06
9.45721e-06
1.36618e-06
9.55863e-06
1.20977e-06
9.65947e-06
1.04341e-06
9.75917e-06
8.67138e-07
9.85682e-06
6.81042e-07
9.95136e-06
4.85293e-07
1.00417e-05
2.80062e-07
1.01266e-05
6.57537e-08
1.02043e-05
-1.55992e-07
1.02718e-05
-3.81168e-07
1.03269e-05
-6.04552e-07
1.03674e-05
-8.20468e-07
1.03909e-05
-1.02268e-06
1.0395e-05
-1.20632e-06
1.03793e-05
-1.36924e-06
1.03437e-05
-1.50692e-06
1.02861e-05
-1.61328e-06
1.02029e-05
-1.68296e-06
1.00913e-05
-1.71192e-06
9.95287e-06
-1.70164e-06
9.79196e-06
-1.65835e-06
9.61552e-06
-1.59186e-06
9.43245e-06
-1.51444e-06
9.25151e-06
-1.43809e-06
9.07867e-06
-1.37053e-06
8.9176e-06
-1.31528e-06
8.77054e-06
-1.27316e-06
8.63847e-06
-1.24274e-06
8.52142e-06
-1.2209e-06
8.41872e-06
-1.20335e-06
8.32934e-06
-1.1853e-06
8.25231e-06
-1.16171e-06
8.18703e-06
-1.12745e-06
8.13282e-06
-1.07813e-06
8.08924e-06
-1.01058e-06
8.05597e-06
-9.22437e-07
8.03282e-06
-8.1249e-07
8.0197e-06
-6.80628e-07
8.01652e-06
-5.27799e-07
8.02318e-06
-3.55932e-07
8.03956e-06
-1.67821e-07
8.0655e-06
3.29498e-08
8.10079e-06
2.41948e-07
8.1448e-06
4.53533e-07
8.19688e-06
6.61109e-07
8.25645e-06
8.59962e-07
8.32277e-06
1.04591e-06
8.39484e-06
1.21521e-06
8.47147e-06
1.36475e-06
8.55124e-06
1.49229e-06
8.63275e-06
1.59647e-06
8.71483e-06
1.67684e-06
8.79677e-06
1.73347e-06
8.87842e-06
1.76646e-06
8.95955e-06
1.77534e-06
9.03932e-06
1.75979e-06
9.11677e-06
1.72059e-06
9.19124e-06
1.65935e-06
9.26247e-06
1.57831e-06
9.33058e-06
1.48001e-06
9.39587e-06
1.36696e-06
9.45876e-06
1.24146e-06
9.51958e-06
1.10554e-06
9.57853e-06
9.60914e-07
8.08983e-07
1.02108e-05
9.80298e-07
1.03465e-05
7.13898e-07
1.04722e-05
4.20304e-07
1.05854e-05
1.0275e-07
1.06822e-05
-2.31368e-07
1.0758e-05
-5.68497e-07
1.08098e-05
-8.96908e-07
1.08354e-05
-1.20705e-06
1.08338e-05
-1.49075e-06
1.08044e-05
-1.74068e-06
1.07475e-05
-1.95024e-06
1.06627e-05
-2.11321e-06
1.05477e-05
-2.22201e-06
1.03994e-05
-2.26916e-06
1.02193e-05
-2.25422e-06
1.00113e-05
-2.18498e-06
9.78247e-06
-2.07564e-06
9.54234e-06
-1.94546e-06
9.30175e-06
-1.81494e-06
9.06864e-06
-1.69821e-06
8.84787e-06
-1.60131e-06
8.64225e-06
-1.52534e-06
8.45281e-06
-1.46783e-06
8.27907e-06
-1.42405e-06
8.1196e-06
-1.38836e-06
7.97252e-06
-1.35516e-06
7.83596e-06
-1.31946e-06
7.70838e-06
-1.27707e-06
7.58887e-06
-1.22463e-06
7.47723e-06
-1.15942e-06
7.37402e-06
-1.07908e-06
7.2804e-06
-9.81117e-07
7.19799e-06
-8.63369e-07
7.12873e-06
-7.24233e-07
7.07467e-06
-5.62988e-07
7.03785e-06
-3.80052e-07
7.02007e-06
-1.77187e-07
7.02277e-06
4.24219e-08
7.04684e-06
2.7423e-07
7.09233e-06
5.12444e-07
7.15806e-06
7.49957e-07
7.24238e-06
9.79374e-07
7.34321e-06
1.1949e-06
7.45803e-06
1.39141e-06
7.58411e-06
1.56465e-06
7.71869e-06
1.71146e-06
7.85922e-06
1.82972e-06
8.00346e-06
1.91828e-06
8.14949e-06
1.97669e-06
8.29562e-06
2.0051e-06
8.44012e-06
2.00441e-06
8.58137e-06
1.97656e-06
8.71829e-06
1.92422e-06
8.85043e-06
1.85036e-06
8.97795e-06
1.75807e-06
9.10137e-06
1.65009e-06
9.22141e-06
1.52861e-06
9.33876e-06
1.39525e-06
9.4539e-06
1.25105e-06
9.56699e-06
1.09667e-06
9.67782e-06
9.32581e-07
9.78582e-06
7.59137e-07
9.8902e-06
5.76665e-07
9.99012e-06
3.85368e-07
1.00848e-05
1.8543e-07
1.01727e-05
-2.22203e-08
1.02513e-05
-2.34594e-07
1.03174e-05
-4.47262e-07
1.03684e-05
-6.55575e-07
1.04024e-05
-8.54414e-07
1.04179e-05
-1.03824e-06
1.04147e-05
-1.20307e-06
1.03906e-05
-1.34511e-06
1.03414e-05
-1.45779e-06
1.02637e-05
-1.53559e-06
1.01543e-05
-1.5735e-06
1.00138e-05
-1.57145e-06
9.84669e-06
-1.53453e-06
9.66019e-06
-1.47185e-06
9.46378e-06
-1.39545e-06
9.26748e-06
-1.31813e-06
9.07851e-06
-1.24912e-06
8.90103e-06
-1.19305e-06
8.73753e-06
-1.15178e-06
8.58912e-06
-1.12475e-06
8.45582e-06
-1.10944e-06
8.33689e-06
-1.10196e-06
8.23115e-06
-1.09761e-06
8.1373e-06
-1.09145e-06
8.05424e-06
-1.07865e-06
7.9814e-06
-1.05462e-06
7.9185e-06
-1.01522e-06
7.86544e-06
-9.57522e-07
7.82232e-06
-8.79318e-07
7.78936e-06
-7.79532e-07
7.76685e-06
-6.58125e-07
7.7551e-06
-5.16043e-07
7.75437e-06
-3.55205e-07
7.76489e-06
-1.78344e-07
7.78682e-06
1.10232e-08
7.82011e-06
2.08658e-07
7.86425e-06
4.09396e-07
7.91835e-06
6.07003e-07
7.98163e-06
7.96684e-07
8.05311e-06
9.7443e-07
8.13164e-06
1.13667e-06
8.21592e-06
1.28048e-06
8.30451e-06
1.4037e-06
8.39603e-06
1.50494e-06
8.48936e-06
1.58351e-06
8.58373e-06
1.6391e-06
8.67871e-06
1.67147e-06
8.77376e-06
1.6803e-06
8.86789e-06
1.66565e-06
8.96012e-06
1.62837e-06
9.04963e-06
1.56984e-06
9.13592e-06
1.49203e-06
9.21876e-06
1.39717e-06
9.29815e-06
1.28756e-06
9.3742e-06
1.16541e-06
9.44702e-06
1.03272e-06
9.51667e-06
8.91266e-07
7.42529e-07
1.03544e-05
8.24555e-07
1.05008e-05
5.67504e-07
1.06353e-05
2.85805e-07
1.07551e-05
-1.70598e-08
1.08556e-05
-3.31918e-07
1.09328e-05
-6.45641e-07
1.09831e-05
-9.47215e-07
1.10039e-05
-1.22782e-06
1.09939e-05
-1.48084e-06
1.09531e-05
-1.69988e-06
1.08811e-05
-1.87823e-06
1.0776e-05
-2.00806e-06
1.0634e-05
-2.08004e-06
1.04542e-05
-2.08938e-06
1.02399e-05
-2.03984e-06
9.99733e-06
-1.94245e-06
9.73659e-06
-1.8149e-06
9.47039e-06
-1.67926e-06
9.20983e-06
-1.55438e-06
8.96182e-06
-1.4502e-06
8.73066e-06
-1.37015e-06
8.51832e-06
-1.313e-06
8.32482e-06
-1.27433e-06
8.14877e-06
-1.248e-06
7.98793e-06
-1.22751e-06
7.83974e-06
-1.20697e-06
7.70184e-06
-1.18156e-06
7.57242e-06
-1.14765e-06
7.45046e-06
-1.10267e-06
7.33575e-06
-1.04471e-06
7.22886e-06
-9.72186e-07
7.13101e-06
-8.8327e-07
7.04392e-06
-7.76285e-07
6.96966e-06
-6.49974e-07
6.91045e-06
-5.03777e-07
6.8685e-06
-3.38095e-07
6.8458e-06
-1.54485e-07
6.84397e-06
4.42509e-08
6.86406e-06
2.54139e-07
6.90635e-06
4.70151e-07
6.97001e-06
6.86299e-07
7.05341e-06
8.95973e-07
7.15466e-06
1.09365e-06
7.27143e-06
1.27464e-06
7.40112e-06
1.43496e-06
7.54108e-06
1.57149e-06
7.6888e-06
1.682e-06
7.84195e-06
1.76513e-06
7.99841e-06
1.82023e-06
8.15615e-06
1.84736e-06
8.31321e-06
1.84735e-06
8.46787e-06
1.82191e-06
8.61889e-06
1.77319e-06
8.76558e-06
1.70367e-06
8.90775e-06
1.6159e-06
9.04555e-06
1.51229e-06
9.17932e-06
1.39484e-06
9.30943e-06
1.26513e-06
9.4361e-06
1.12438e-06
9.55929e-06
9.73483e-07
9.67868e-06
8.13195e-07
9.79371e-06
6.44102e-07
9.9038e-06
4.6658e-07
1.00084e-05
2.80765e-07
1.01067e-05
8.70895e-08
1.01968e-05
-1.12251e-07
1.02755e-05
-3.13288e-07
1.03399e-05
-5.11647e-07
1.03871e-05
-7.02833e-07
1.04149e-05
-8.82182e-07
1.04229e-05
-1.0463e-06
1.04094e-05
-1.18948e-06
1.03689e-05
-1.30469e-06
1.02971e-05
-1.38593e-06
1.01904e-05
-1.42894e-06
1.00493e-05
-1.43235e-06
9.87792e-06
-1.40009e-06
9.68392e-06
-1.34053e-06
9.47736e-06
-1.26529e-06
9.26929e-06
-1.18738e-06
9.0681e-06
-1.11695e-06
8.87853e-06
-1.05954e-06
8.70328e-06
-1.0178e-06
8.54339e-06
-9.91889e-07
8.39864e-06
-9.79998e-07
8.268e-06
-9.78806e-07
8.15004e-06
-9.84008e-07
8.04326e-06
-9.90826e-07
7.94629e-06
-9.94485e-07
7.85819e-06
-9.90545e-07
7.77856e-06
-9.7499e-07
7.70754e-06
-9.44201e-07
7.64548e-06
-8.95462e-07
7.59296e-06
-8.26794e-07
7.55061e-06
-7.37188e-07
7.51912e-06
-6.26634e-07
7.49913e-06
-4.96049e-07
7.49119e-06
-3.47265e-07
7.49577e-06
-1.8293e-07
7.51323e-06
-6.43626e-09
7.54371e-06
1.78184e-07
7.58688e-06
3.66218e-07
7.64186e-06
5.52031e-07
7.70774e-06
7.308e-07
7.7834e-06
8.98773e-07
7.86747e-06
1.05259e-06
7.95849e-06
1.18946e-06
8.05496e-06
1.30723e-06
8.15553e-06
1.40437e-06
8.25909e-06
1.47995e-06
8.3648e-06
1.53339e-06
8.47197e-06
1.5643e-06
8.57977e-06
1.57251e-06
8.68708e-06
1.55833e-06
8.79284e-06
1.52261e-06
8.89611e-06
1.46657e-06
8.99619e-06
1.39195e-06
9.09261e-06
1.30075e-06
9.1851e-06
1.19508e-06
9.2735e-06
1.07702e-06
9.35771e-06
9.48513e-07
9.43766e-06
8.11313e-07
6.66865e-07
1.04613e-05
6.59176e-07
1.0616e-05
4.12853e-07
1.07574e-05
1.44395e-07
1.0882e-05
-1.41695e-07
1.0985e-05
-4.34961e-07
1.10629e-05
-7.23469e-07
1.11113e-05
-9.95607e-07
1.11265e-05
-1.24301e-06
1.11075e-05
-1.46187e-06
1.10547e-05
-1.64712e-06
1.09664e-05
-1.78989e-06
1.08379e-05
-1.87957e-06
1.06659e-05
-1.90809e-06
1.04521e-05
-1.87557e-06
1.02021e-05
-1.78986e-06
9.92612e-06
-1.66643e-06
9.63809e-06
-1.52687e-06
9.35237e-06
-1.39354e-06
9.07867e-06
-1.28068e-06
8.82296e-06
-1.19449e-06
8.58842e-06
-1.13562e-06
8.3759e-06
-1.10048e-06
8.18428e-06
-1.08271e-06
8.01113e-06
-1.07485e-06
7.85337e-06
-1.06975e-06
7.70791e-06
-1.06151e-06
7.57212e-06
-1.04577e-06
7.44412e-06
-1.01965e-06
7.32287e-06
-9.81413e-07
7.20818e-06
-9.30018e-07
7.10064e-06
-8.64644e-07
7.0015e-06
-7.84137e-07
6.91255e-06
-6.87331e-07
6.8359e-06
-5.73324e-07
6.77386e-06
-4.41733e-07
6.72871e-06
-2.92951e-07
6.70257e-06
-1.28348e-07
6.69718e-06
4.96451e-08
6.71372e-06
2.37603e-07
6.75266e-06
4.31205e-07
6.81357e-06
6.2539e-07
6.89499e-06
8.1455e-07
6.99519e-06
9.93447e-07
7.11207e-06
1.15777e-06
7.24322e-06
1.30381e-06
7.38614e-06
1.42857e-06
7.53836e-06
1.52979e-06
7.69751e-06
1.60598e-06
7.86134e-06
1.6564e-06
8.02762e-06
1.68108e-06
8.19415e-06
1.68082e-06
8.35913e-06
1.65693e-06
8.52123e-06
1.61109e-06
8.67955e-06
1.54535e-06
8.83358e-06
1.46187e-06
8.98314e-06
1.36272e-06
9.12826e-06
1.24973e-06
9.26895e-06
1.12444e-06
9.40516e-06
9.88167e-07
9.53664e-06
8.42002e-07
9.66298e-06
6.86853e-07
9.78374e-06
5.23342e-07
9.8986e-06
3.51721e-07
1.00072e-05
1.72202e-07
1.0108e-05
-1.37488e-08
1.01986e-05
-2.02811e-07
1.02761e-05
-3.90825e-07
1.03375e-05
-5.73093e-07
1.03795e-05
-7.44818e-07
1.03997e-05
-9.02307e-07
1.03947e-05
-1.04134e-06
1.03608e-05
-1.15563e-06
1.0294e-05
-1.2378e-06
1.01903e-05
-1.28225e-06
1.00493e-05
-1.28794e-06
9.8753e-06
-1.25837e-06
9.67629e-06
-1.20108e-06
9.46294e-06
-1.12718e-06
9.24722e-06
-1.04957e-06
9.03848e-06
-9.78639e-07
8.84191e-06
-9.20374e-07
8.6602e-06
-8.77838e-07
8.49415e-06
-8.51748e-07
8.3432e-06
-8.40944e-07
8.20601e-06
-8.42801e-07
8.08081e-06
-8.53607e-07
7.9658e-06
-8.69004e-07
7.85941e-06
-8.84432e-07
7.76045e-06
-8.95526e-07
7.66826e-06
-8.98358e-07
7.58278e-06
-8.89508e-07
7.50455e-06
-8.65972e-07
7.43439e-06
-8.25296e-07
7.37329e-06
-7.65698e-07
7.32231e-06
-6.86211e-07
7.28249e-06
-5.86808e-07
7.25477e-06
-4.68333e-07
7.23999e-06
-3.32487e-07
7.23883e-06
-1.81768e-07
7.25177e-06
-1.93759e-08
7.27904e-06
1.50913e-07
7.32048e-06
3.24786e-07
7.37518e-06
4.97329e-07
7.44218e-06
6.63796e-07
7.52035e-06
8.206e-07
7.60835e-06
9.64595e-07
7.7047e-06
1.09311e-06
7.80789e-06
1.20404e-06
7.91649e-06
1.29578e-06
8.02926e-06
1.36719e-06
8.14518e-06
1.41747e-06
8.2633e-06
1.44618e-06
8.38254e-06
1.45327e-06
8.50168e-06
1.4392e-06
8.61958e-06
1.4047e-06
8.73522e-06
1.35093e-06
8.84773e-06
1.27944e-06
8.95643e-06
1.19204e-06
9.06083e-06
1.09068e-06
9.16054e-06
9.77299e-07
9.25533e-06
8.53732e-07
9.34505e-06
7.21585e-07
5.82132e-07
1.05311e-05
4.86818e-07
1.06921e-05
2.51789e-07
1.08394e-05
-2.89158e-09
1.09677e-05
-2.70026e-07
1.10719e-05
-5.39082e-07
1.11479e-05
-7.99481e-07
1.11922e-05
-1.03992e-06
1.12003e-05
-1.25111e-06
1.11712e-05
-1.4328e-06
1.11055e-05
-1.58138e-06
1.09968e-05
-1.68118e-06
1.08388e-05
-1.72164e-06
1.06314e-05
-1.70067e-06
1.03796e-05
-1.62372e-06
1.00936e-05
-1.50385e-06
9.78838e-06
-1.36125e-06
9.48119e-06
-1.21968e-06
9.18489e-06
-1.09724e-06
8.90716e-06
-1.00295e-06
8.65253e-06
-9.39855e-07
8.42277e-06
-9.05856e-07
8.21724e-06
-8.94949e-07
8.03352e-06
-8.98984e-07
7.86815e-06
-9.09483e-07
7.71748e-06
-9.19077e-07
7.57818e-06
-9.22203e-07
7.4476e-06
-9.15191e-07
7.32393e-06
-8.95982e-07
7.20621e-06
-8.63696e-07
7.09433e-06
-8.18137e-07
6.9889e-06
-7.59218e-07
6.8912e-06
-6.86434e-07
6.803e-06
-5.99129e-07
6.72643e-06
-4.96754e-07
6.6638e-06
-3.79106e-07
6.61743e-06
-2.46584e-07
6.58948e-06
-1.00399e-07
6.58174e-06
5.73927e-08
6.59547e-06
2.23871e-07
6.63131e-06
3.95362e-07
6.68914e-06
5.67564e-07
6.76788e-06
7.35807e-07
6.86591e-06
8.95421e-07
6.98133e-06
1.04235e-06
7.11203e-06
1.17311e-06
7.25568e-06
1.28492e-06
7.4099e-06
1.37556e-06
7.57233e-06
1.44355e-06
7.74056e-06
1.48817e-06
7.91219e-06
1.50945e-06
8.08505e-06
1.50796e-06
8.2573e-06
1.48468e-06
8.42746e-06
1.44093e-06
8.59443e-06
1.37838e-06
8.75747e-06
1.29883e-06
8.91611e-06
1.20408e-06
9.07003e-06
1.09581e-06
9.21894e-06
9.75533e-07
9.3625e-06
8.44611e-07
9.50029e-06
7.04213e-07
9.63194e-06
5.55199e-07
9.7573e-06
3.97984e-07
9.87627e-06
2.32751e-07
9.98785e-06
6.06193e-08
1.00896e-05
-1.15529e-07
1.01786e-05
-2.91756e-07
1.02513e-05
-4.63567e-07
1.03044e-05
-6.26168e-07
1.03345e-05
-7.74959e-07
1.03382e-05
-9.05966e-07
1.03113e-05
-1.01448e-06
1.02489e-05
-1.0932e-06
1.01471e-05
-1.13595e-06
1.00059e-05
-1.14108e-06
9.83e-06
-1.11206e-06
9.62784e-06
-1.05621e-06
9.41083e-06
-9.8408e-07
9.19178e-06
-9.08126e-07
8.98053e-06
-8.38328e-07
8.78236e-06
-7.80465e-07
8.59971e-06
-7.37724e-07
8.43306e-06
-7.11185e-07
8.28153e-06
-7.00219e-07
8.14341e-06
-7.0283e-07
8.01659e-06
-7.15981e-07
7.8989e-06
-7.35914e-07
7.78842e-06
-7.58521e-07
7.6837e-06
-7.79715e-07
7.5839e-06
-7.95722e-07
7.48876e-06
-8.03224e-07
7.39864e-06
-7.99381e-07
7.31441e-06
-7.81742e-07
7.2373e-06
-7.48188e-07
7.16872e-06
-6.97115e-07
7.11007e-06
-6.27571e-07
7.06273e-06
-5.39465e-07
7.02793e-06
-4.3353e-07
7.00673e-06
-3.11292e-07
7e-06
-1.75037e-07
7.00834e-06
-2.77169e-08
7.03207e-06
1.27185e-07
7.0711e-06
2.85757e-07
7.12469e-06
4.43738e-07
7.19175e-06
5.96739e-07
7.27116e-06
7.4119e-07
7.36161e-06
8.74144e-07
7.46167e-06
9.93052e-07
7.56989e-06
1.09581e-06
7.6849e-06
1.18077e-06
7.8054e-06
1.24668e-06
7.93016e-06
1.29271e-06
8.05789e-06
1.31845e-06
8.18718e-06
1.32398e-06
8.31671e-06
1.30966e-06
8.44529e-06
1.27613e-06
8.5718e-06
1.22442e-06
8.69525e-06
1.15599e-06
8.8148e-06
1.07249e-06
8.92977e-06
9.75713e-07
9.03964e-06
8.67422e-07
9.14415e-06
7.49228e-07
9.24326e-06
6.22471e-07
4.88267e-07
1.05651e-05
3.0917e-07
1.07322e-05
8.46912e-08
1.08849e-05
-1.55583e-07
1.10164e-05
-4.01568e-07
1.11198e-05
-6.42471e-07
1.11893e-05
-8.68949e-07
1.12231e-05
-1.07377e-06
1.12227e-05
-1.25068e-06
1.1185e-05
-1.39514e-06
1.10998e-05
-1.49611e-06
1.09583e-05
-1.53975e-06
1.07596e-05
-1.52291e-06
1.05086e-05
-1.44966e-06
1.02162e-05
-1.33129e-06
9.89849e-06
-1.18617e-06
9.57496e-06
-1.03772e-06
9.26124e-06
-9.05959e-07
8.96651e-06
-8.02511e-07
8.69639e-06
-7.32821e-07
8.45336e-06
-6.96832e-07
8.23728e-06
-6.89771e-07
8.04588e-06
-7.03547e-07
7.87557e-06
-7.28682e-07
7.72229e-06
-7.56194e-07
7.58211e-06
-7.78903e-07
7.4518e-06
-7.91892e-07
7.32893e-06
-7.92325e-07
7.21196e-06
-7.79004e-07
7.10012e-06
-7.51855e-07
6.99341e-06
-7.11434e-07
6.89249e-06
-6.58301e-07
6.79861e-06
-5.92554e-07
6.71351e-06
-5.1403e-07
6.63928e-06
-4.22516e-07
6.57816e-06
-3.17992e-07
6.53241e-06
-2.00829e-07
6.50418e-06
-7.21731e-08
6.49527e-06
6.63057e-08
6.50701e-06
2.12132e-07
6.54016e-06
3.62213e-07
6.59482e-06
5.12903e-07
6.67038e-06
6.60247e-07
6.76552e-06
8.00283e-07
6.87851e-06
9.29349e-07
7.00742e-06
1.04421e-06
7.15008e-06
1.14225e-06
7.30419e-06
1.22146e-06
7.4673e-06
1.28044e-06
7.63701e-06
1.31846e-06
7.81103e-06
1.33542e-06
7.98728e-06
1.33171e-06
8.16387e-06
1.30809e-06
8.33919e-06
1.26561e-06
8.51197e-06
1.2056e-06
8.68123e-06
1.12957e-06
8.84623e-06
1.03909e-06
9.00633e-06
9.35707e-07
9.16095e-06
8.20915e-07
9.30953e-06
6.96025e-07
9.45172e-06
5.62029e-07
9.58747e-06
4.19448e-07
9.71692e-06
2.68534e-07
9.83926e-06
1.10412e-07
9.95203e-06
-5.21522e-08
1.00517e-05
-2.15235e-07
1.01344e-05
-3.74453e-07
1.01961e-05
-5.25207e-07
1.0233e-05
-6.63052e-07
1.02419e-05
-7.83916e-07
1.02191e-05
-8.83122e-07
1.01585e-05
-9.53946e-07
1.00563e-05
-9.90956e-07
9.91305e-06
-9.92716e-07
9.73452e-06
-9.62551e-07
9.53012e-06
-9.07653e-07
9.31236e-06
-8.3845e-07
9.09456e-06
-7.66279e-07
8.8863e-06
-6.99873e-07
8.69229e-06
-6.44311e-07
8.51452e-06
-6.02695e-07
8.35309e-06
-5.76297e-07
8.20676e-06
-5.64858e-07
8.07346e-06
-5.66914e-07
7.95069e-06
-5.80067e-07
7.83595e-06
-6.01235e-07
7.72696e-06
-6.26927e-07
7.62199e-06
-6.53553e-07
7.51995e-06
-6.77678e-07
7.42043e-06
-6.962e-07
7.32362e-06
-7.06415e-07
7.23025e-06
-7.06006e-07
7.14148e-06
-6.92974e-07
7.05887e-06
-6.65578e-07
6.98413e-06
-6.22376e-07
6.919e-06
-5.62443e-07
6.86513e-06
-4.8559e-07
6.824e-06
-3.92398e-07
6.79689e-06
-2.84185e-07
6.78483e-06
-1.62975e-07
6.78853e-06
-3.1422e-08
6.80839e-06
1.07324e-07
6.8444e-06
2.49747e-07
6.89604e-06
3.92104e-07
6.96222e-06
5.30559e-07
7.04177e-06
6.61637e-07
7.13348e-06
7.82435e-07
7.23599e-06
8.90545e-07
7.34789e-06
9.83912e-07
7.46779e-06
1.06087e-06
7.59431e-06
1.12017e-06
7.726e-06
1.16102e-06
7.86134e-06
1.18311e-06
7.99886e-06
1.18646e-06
8.13717e-06
1.17136e-06
8.27489e-06
1.1384e-06
8.41074e-06
1.08858e-06
8.54358e-06
1.02315e-06
8.67246e-06
9.43611e-07
8.79664e-06
8.51535e-07
8.91566e-06
7.48397e-07
9.0294e-06
6.35491e-07
9.13785e-06
5.14015e-07
3.8562e-07
1.05673e-05
1.26175e-07
1.07408e-05
-8.88379e-08
1.08982e-05
-3.12971e-07
1.10314e-05
-5.34717e-07
1.11326e-05
-7.43713e-07
1.11955e-05
-9.31887e-07
1.12192e-05
-1.09743e-06
1.1204e-05
-1.23545e-06
1.11382e-05
-1.32931e-06
1.1008e-05
-1.366e-06
1.08134e-05
-1.34507e-06
1.05609e-05
-1.27047e-06
1.02628e-05
-1.15156e-06
9.93655e-06
-1.00501e-06
9.60318e-06
-8.52798e-07
9.28002e-06
-7.14552e-07
8.97705e-06
-6.02988e-07
8.70002e-06
-5.25482e-07
8.45147e-06
-4.84269e-07
8.23133e-06
-4.76702e-07
8.03759e-06
-4.96022e-07
7.86674e-06
-5.32701e-07
7.71452e-06
-5.76467e-07
7.57665e-06
-6.18321e-07
7.44943e-06
-6.51679e-07
7.33004e-06
-6.72505e-07
7.21659e-06
-6.78873e-07
7.10797e-06
-6.70385e-07
7.00375e-06
-6.47633e-07
6.90406e-06
-6.11743e-07
6.80956e-06
-5.63805e-07
6.72147e-06
-5.0446e-07
6.64144e-06
-4.34005e-07
6.57148e-06
-3.52549e-07
6.51373e-06
-2.60242e-07
6.47041e-06
-1.57511e-07
6.44352e-06
-4.52827e-08
6.43485e-06
7.49762e-08
6.44574e-06
2.01242e-07
6.47703e-06
3.30919e-07
6.529e-06
4.60935e-07
6.6013e-06
5.87951e-07
6.69298e-06
7.086e-07
6.80264e-06
8.19694e-07
6.92846e-06
9.18382e-07
7.06843e-06
1.00229e-06
7.22032e-06
1.06956e-06
7.38183e-06
1.11892e-06
7.55066e-06
1.14963e-06
7.7246e-06
1.16148e-06
7.90162e-06
1.1547e-06
8.07984e-06
1.12987e-06
8.25759e-06
1.08786e-06
8.43344e-06
1.02976e-06
8.60618e-06
9.56824e-07
8.7748e-06
8.70466e-07
8.93839e-06
7.72121e-07
9.0962e-06
6.63104e-07
9.24786e-06
5.44368e-07
9.39346e-06
4.16429e-07
9.53317e-06
2.79733e-07
9.66592e-06
1.3579e-07
9.78879e-06
-1.24547e-08
9.89765e-06
-1.61019e-07
9.98793e-06
-3.05509e-07
1.00551e-05
-4.41603e-07
1.00953e-05
-5.65405e-07
1.01054e-05
-6.732e-07
1.00812e-05
-7.59689e-07
1.00168e-05
-8.18761e-07
9.90924e-06
-8.46355e-07
9.76055e-06
-8.42266e-07
9.57807e-06
-8.10231e-07
9.37288e-06
-7.57361e-07
9.15867e-06
-6.93449e-07
8.94813e-06
-6.27904e-07
8.74926e-06
-5.67408e-07
8.56577e-06
-5.16383e-07
8.3991e-06
-4.77648e-07
8.2489e-06
-4.52487e-07
8.1135e-06
-4.409e-07
7.9905e-06
-4.41858e-07
7.87713e-06
-4.53545e-07
7.7706e-06
-4.73539e-07
7.66838e-06
-4.99016e-07
7.56846e-06
-5.27001e-07
7.46952e-06
-5.54614e-07
7.37097e-06
-5.79133e-07
7.27287e-06
-5.98101e-07
7.17581e-06
-6.09355e-07
7.08083e-06
-6.11017e-07
6.98929e-06
-6.01442e-07
6.90293e-06
-5.79211e-07
6.82367e-06
-5.43121e-07
6.75352e-06
-4.92285e-07
6.69433e-06
-4.26405e-07
6.64782e-06
-3.45889e-07
6.61546e-06
-2.51825e-07
6.59843e-06
-1.45945e-07
6.59758e-06
-3.05686e-08
6.61338e-06
9.1519e-08
6.64593e-06
2.17204e-07
6.69486e-06
3.43172e-07
6.75934e-06
4.66077e-07
6.83821e-06
5.82765e-07
6.93023e-06
6.90413e-07
7.03411e-06
7.8667e-07
7.14845e-06
8.69565e-07
7.2718e-06
9.37528e-07
7.40256e-06
9.89401e-07
7.53916e-06
1.02442e-06
7.68004e-06
1.04223e-06
7.82371e-06
1.04279e-06
7.9687e-06
1.02637e-06
8.11355e-06
9.93557e-07
8.25687e-06
9.45251e-07
8.39744e-06
8.82579e-07
8.53428e-06
8.06773e-07
8.66677e-06
7.19048e-07
8.7946e-06
6.20568e-07
8.91745e-06
5.12633e-07
9.03426e-06
3.97207e-07
2.76883e-07
1.05457e-05
-6.41392e-08
1.07241e-05
-2.67277e-07
1.08808e-05
-4.69612e-07
1.10066e-05
-6.60589e-07
1.10945e-05
-8.31601e-07
1.11401e-05
-9.7749e-07
1.11381e-05
-1.09537e-06
1.1076e-05
-1.17338e-06
1.0946e-05
-1.19937e-06
1.0749e-05
-1.16895e-06
1.04917e-05
-1.08784e-06
1.01883e-05
-9.67007e-07
9.85851e-06
-8.21783e-07
9.52477e-06
-6.71269e-07
9.20445e-06
-5.3248e-07
8.90692e-06
-4.17023e-07
8.63687e-06
-3.32937e-07
8.39573e-06
-2.84342e-07
8.18276e-06
-2.71302e-07
7.99587e-06
-2.89811e-07
7.83183e-06
-3.31976e-07
7.68649e-06
-3.87364e-07
7.55546e-06
-4.45439e-07
7.43484e-06
-4.97703e-07
7.32168e-06
-5.38517e-07
7.21402e-06
-5.64845e-07
7.11075e-06
-5.756e-07
7.01137e-06
-5.71003e-07
6.91582e-06
-5.52082e-07
6.82437e-06
-5.203e-07
6.73769e-06
-4.77126e-07
6.6569e-06
-4.23662e-07
6.58352e-06
-3.60628e-07
6.51941e-06
-2.88443e-07
6.46659e-06
-2.07423e-07
6.42711e-06
-1.18023e-07
6.40287e-06
-2.10468e-08
6.39559e-06
8.22549e-08
6.40661e-06
1.90222e-07
6.43684e-06
3.00688e-07
6.4867e-06
4.11082e-07
6.55603e-06
5.18621e-07
6.64414e-06
6.20486e-07
6.74987e-06
7.13966e-07
6.87165e-06
7.96599e-07
7.00765e-06
8.66293e-07
7.15582e-06
9.21391e-07
7.31404e-06
9.60707e-07
7.48014e-06
9.8353e-07
7.65202e-06
9.89599e-07
7.82767e-06
9.79049e-07
8.0052e-06
9.52332e-07
8.18292e-06
9.10143e-07
8.35927e-06
8.53404e-07
8.53285e-06
7.83243e-07
8.70244e-06
7.00878e-07
8.86716e-06
6.07399e-07
9.02668e-06
5.03587e-07
9.18119e-06
3.89862e-07
9.33043e-06
2.67183e-07
9.47246e-06
1.3771e-07
9.60333e-06
4.91996e-09
9.71808e-06
-1.27206e-07
9.81148e-06
-2.54418e-07
9.87886e-06
-3.7289e-07
9.91667e-06
-4.79416e-07
9.92188e-06
-5.70613e-07
9.88904e-06
-6.40357e-07
9.8138e-06
-6.84446e-07
9.69542e-06
-7.00383e-07
9.53879e-06
-6.89724e-07
9.35346e-06
-6.56939e-07
9.15209e-06
-6.08863e-07
8.94808e-06
-5.53348e-07
8.75179e-06
-4.97158e-07
8.56895e-06
-4.45069e-07
8.40231e-06
-4.00768e-07
8.2526e-06
-3.66668e-07
8.11894e-06
-3.43987e-07
7.99935e-06
-3.32901e-07
7.8912e-06
-3.32749e-07
7.79157e-06
-3.42223e-07
7.69753e-06
-3.59513e-07
7.60647e-06
-3.82474e-07
7.51624e-06
-4.08789e-07
7.42529e-06
-4.36049e-07
7.33272e-06
-4.62045e-07
7.23841e-06
-4.84823e-07
7.14289e-06
-5.0258e-07
7.04711e-06
-5.13576e-07
6.95231e-06
-5.16219e-07
6.86001e-06
-5.09144e-07
6.77198e-06
-4.91179e-07
6.6902e-06
-4.61342e-07
6.61682e-06
-4.18904e-07
6.55393e-06
-3.63513e-07
6.50338e-06
-2.95335e-07
6.46679e-06
-2.15244e-07
6.44551e-06
-1.24662e-07
6.4405e-06
-2.5561e-08
6.45237e-06
7.96536e-08
6.48129e-06
1.88282e-07
6.52704e-06
2.97421e-07
6.589e-06
4.04116e-07
6.66623e-06
5.05539e-07
6.75752e-06
5.99128e-07
6.86152e-06
6.82663e-07
6.97681e-06
7.5428e-07
7.10184e-06
8.12498e-07
7.23502e-06
8.5622e-07
7.37472e-06
8.84717e-07
7.51934e-06
8.97612e-07
7.66728e-06
8.94848e-07
7.81699e-06
8.76661e-07
7.96697e-06
8.43568e-07
8.11592e-06
7.96306e-07
8.26275e-06
7.35747e-07
8.4067e-06
6.62823e-07
8.54718e-06
5.78567e-07
8.6832e-06
4.8455e-07
8.81285e-06
3.82983e-07
8.93339e-06
2.76669e-07
1.68685e-07
1.05055e-05
-2.57498e-07
1.06765e-05
-4.38274e-07
1.08149e-05
-6.07978e-07
1.09117e-05
-7.57425e-07
1.09622e-05
-8.82093e-07
1.09584e-05
-9.73687e-07
1.0889e-05
-1.02594e-06
1.07465e-05
-1.03087e-06
1.05334e-05
-9.86318e-07
1.02625e-05
-8.98047e-07
9.95207e-06
-7.774e-07
9.62471e-06
-6.39655e-07
9.3025e-06
-4.99574e-07
9.00034e-06
-3.69105e-07
8.72521e-06
-2.57352e-07
8.47973e-06
-1.71535e-07
8.26321e-06
-1.1642e-07
8.07315e-06
-9.42823e-08
7.90648e-06
-1.04631e-07
7.76003e-06
-1.43367e-07
7.63016e-06
-2.02102e-07
7.51268e-06
-2.69885e-07
7.40368e-06
-3.36442e-07
7.3003e-06
-3.94321e-07
7.20084e-06
-4.3906e-07
7.10455e-06
-4.68553e-07
7.01128e-06
-4.82324e-07
6.9212e-06
-4.80923e-07
6.83464e-06