/*--------------------------------*- C++ -*----------------------------------*\
| =========                 |                                                 |
| \\      /  F ield         | OpenFOAM: The Open Source CFD Toolbox           |
|  \\    /   O peration     | Version:  2206                                  |
|   \\  /    A nd           | Website:  www.openfoam.com                      |
|    \\/     M anipulation  |                                                 |
\*---------------------------------------------------------------------------*/
FoamFile
{
    version     2.0;
    format      ascii;
    arch        "LSB;label=32;scalar=64";
    class       surfaceScalarField;
    location    "19.5999";
    object      phi_0;
}
// * * * * * * * * * * * * * * * * * * * * * * * * * * * * * * * * * * * * * //

dimensions      [0 3 -1 0 0 0 0];

oriented        oriented;

internalField   nonuniform List<scalar> 
5920
(
-1.5839e-06
2.86089e-07
-1.95773e-06
3.73826e-07
-2.36976e-06
4.12028e-07
-2.75989e-06
3.9013e-07
-3.05574e-06
2.95853e-07
-3.16514e-06
1.09401e-07
-3.08447e-06
-8.06674e-08
-2.82685e-06
-2.57625e-07
-2.42293e-06
-4.03916e-07
-1.93482e-06
-4.88118e-07
-1.43561e-06
-4.99208e-07
-9.59405e-07
-4.76203e-07
-5.35863e-07
-4.23542e-07
-1.86232e-07
-3.49631e-07
7.8322e-08
-2.64554e-07
2.57326e-07
-1.79004e-07
3.59505e-07
-1.02179e-07
4.04995e-07
-4.54898e-08
4.19632e-07
-1.46375e-08
4.27791e-07
-8.15814e-09
4.47375e-07
-1.95848e-08
4.93321e-07
-4.5945e-08
5.80415e-07
-8.70943e-08
7.11896e-07
-1.31481e-07
8.86141e-07
-1.74246e-07
1.09869e-06
-2.1255e-07
1.34372e-06
-2.45026e-07
1.61363e-06
-2.69913e-07
1.89726e-06
-2.83626e-07
2.18276e-06
-2.85501e-07
2.4619e-06
-2.79143e-07
2.72984e-06
-2.67937e-07
2.98396e-06
-2.54128e-07
3.22361e-06
-2.39642e-07
3.45004e-06
-2.26438e-07
3.66634e-06
-2.16294e-07
3.87785e-06
-2.11507e-07
4.09283e-06
-2.14988e-07
4.32323e-06
-2.30392e-07
4.5873e-06
-2.64072e-07
4.91637e-06
-3.29076e-07
5.38063e-06
-4.64256e-07
-6.71439e-07
6.05207e-06
-6.00955e-07
4.15599e-07
-7.84455e-07
5.57326e-07
-9.82556e-07
6.10129e-07
-1.15624e-06
5.6381e-07
-1.23407e-06
3.73682e-07
-1.16915e-06
4.44848e-08
-9.43889e-07
-3.05927e-07
-5.68401e-07
-6.33113e-07
-1.06822e-07
-8.65494e-07
3.79183e-07
-9.74123e-07
8.7458e-07
-9.94605e-07
1.34959e-06
-9.51214e-07
1.78583e-06
-8.59783e-07
2.16921e-06
-7.33007e-07
2.49176e-06
-5.87108e-07
2.75176e-06
-4.39002e-07
2.95628e-06
-3.067e-07
3.11592e-06
-2.05127e-07
3.24292e-06
-1.41637e-07
3.34954e-06
-1.14779e-07
3.45069e-06
-1.20741e-07
3.56317e-06
-1.58417e-07
3.69771e-06
-2.21635e-07
3.86042e-06
-2.94195e-07
4.05189e-06
-3.65718e-07
4.26907e-06
-4.29724e-07
4.50609e-06
-4.82045e-07
4.75404e-06
-5.17866e-07
5.00592e-06
-5.35507e-07
5.25874e-06
-5.38317e-07
5.51017e-06
-5.30579e-07
5.75825e-06
-5.16013e-07
6.00186e-06
-4.9774e-07
6.24097e-06
-4.78756e-07
6.47638e-06
-4.61847e-07
6.70999e-06
-4.49897e-07
6.94471e-06
-4.46234e-07
7.18453e-06
-4.54806e-07
7.43502e-06
-4.80877e-07
7.70327e-06
-5.32323e-07
7.99501e-06
-6.20816e-07
8.2961e-06
-7.65345e-07
-9.72191e-07
8.59685e-06
2.05776e-06
2.48811e-07
2.19778e-06
4.17313e-07
2.32513e-06
4.82778e-07
2.46574e-06
4.23202e-07
2.6386e-06
2.00813e-07
2.84575e-06
-1.62662e-07
3.12719e-06
-5.87363e-07
3.45695e-06
-9.62879e-07
3.80836e-06
-1.2169e-06
4.16455e-06
-1.33031e-06
4.5072e-06
-1.33726e-06
4.8386e-06
-1.28262e-06
5.1515e-06
-1.17268e-06
5.4401e-06
-1.02161e-06
5.7045e-06
-8.51506e-07
5.94559e-06
-6.80091e-07
6.1652e-06
-5.26311e-07
6.36407e-06
-4.03996e-07
6.5438e-06
-3.21373e-07
6.70923e-06
-2.80199e-07
6.86583e-06
-2.77343e-07
7.01448e-06
-3.07069e-07
7.15384e-06
-3.60998e-07
7.28771e-06
-4.28064e-07
7.41984e-06
-4.97847e-07
7.55244e-06
-5.62327e-07
7.68669e-06
-6.16295e-07
7.82195e-06
-6.53128e-07
7.95756e-06
-6.71114e-07
8.0947e-06
-6.75456e-07
8.23408e-06
-6.69956e-07
8.37605e-06
-6.5799e-07
8.52062e-06
-6.4231e-07
8.66802e-06
-6.26152e-07
8.81863e-06
-6.12452e-07
8.97312e-06
-6.04396e-07
9.13259e-06
-6.05699e-07
9.29831e-06
-6.20525e-07
9.47116e-06
-6.5373e-07
9.6502e-06
-7.11358e-07
9.82981e-06
-8.00431e-07
9.99428e-06
-9.29813e-07
-1.10112e-06
1.01232e-05
5.62305e-06
2.26203e-07
5.75029e-06
2.90074e-07
5.95418e-06
2.78887e-07
6.22127e-06
1.56113e-07
6.51816e-06
-9.60729e-08
6.81017e-06
-4.54677e-07
7.06684e-06
-8.44028e-07
7.27226e-06
-1.16831e-06
7.44166e-06
-1.3863e-06
7.59355e-06
-1.48219e-06
7.73769e-06
-1.4814e-06
7.88386e-06
-1.42879e-06
8.03028e-06
-1.31909e-06
8.1799e-06
-1.17123e-06
8.33573e-06
-1.00734e-06
8.4979e-06
-8.42267e-07
8.66438e-06
-6.92788e-07
8.83162e-06
-5.71241e-07
8.9949e-06
-4.84646e-07
9.14972e-06
-4.35019e-07
9.29215e-06
-4.19781e-07
9.41861e-06
-4.3353e-07
9.52767e-06
-4.70051e-07
9.62105e-06
-5.21444e-07
9.70072e-06
-5.77514e-07
9.76773e-06
-6.29346e-07
9.82487e-06
-6.73431e-07
9.87713e-06
-7.05388e-07
9.92761e-06
-7.21595e-07
9.9787e-06
-7.2654e-07
1.00331e-05
-7.24383e-07
1.00929e-05
-7.17803e-07
1.01583e-05
-7.07696e-07
1.02295e-05
-6.97353e-07
1.0307e-05
-6.89903e-07
1.03907e-05
-6.88119e-07
1.04805e-05
-6.95499e-07
1.05755e-05
-7.15562e-07
1.06738e-05
-7.51962e-07
1.07708e-05
-8.08423e-07
1.08591e-05
-8.88648e-07
1.09242e-05
-9.94942e-07
-1.12418e-06
1.09472e-05
9.4215e-06
1.671e-07
9.53176e-06
1.79807e-07
9.68614e-06
1.2451e-07
9.86746e-06
-2.52118e-08
1.00391e-05
-2.67685e-07
1.01638e-05
-5.79442e-07
1.02126e-05
-8.92746e-07
1.01957e-05
-1.15141e-06
1.01455e-05
-1.33612e-06
1.00876e-05
-1.42432e-06
1.00367e-05
-1.43053e-06
9.99848e-06
-1.39053e-06
9.97933e-06
-1.29995e-06
9.98479e-06
-1.17668e-06
1.00164e-05
-1.03895e-06
1.00744e-05
-9.00286e-07
1.01546e-05
-7.72992e-07
1.02503e-05
-6.6694e-07
1.03539e-05
-5.88204e-07
1.04577e-05
-5.38857e-07
1.05554e-05
-5.17446e-07
1.0642e-05
-5.20094e-07
1.07142e-05
-5.42317e-07
1.07705e-05
-5.77678e-07
1.08103e-05
-6.17323e-07
1.08353e-05
-6.54376e-07
1.08481e-05
-6.86234e-07
1.08534e-05
-7.1073e-07
1.08572e-05
-7.25402e-07
1.08628e-05
-7.32123e-07
1.08722e-05
-7.33759e-07
1.08863e-05
-7.31941e-07
1.09062e-05
-7.27599e-07
1.09322e-05
-7.23333e-07
1.09646e-05
-7.22238e-07
1.1003e-05
-7.26526e-07
1.10464e-05
-7.38897e-07
1.10927e-05
-7.61871e-07
1.11384e-05
-7.97674e-07
1.11782e-05
-8.48282e-07
1.12051e-05
-9.15479e-07
1.12092e-05
-9.99074e-07
-1.09684e-06
1.11819e-05
1.11908e-05
6.05669e-08
1.13249e-05
4.57163e-08
1.14762e-05
-2.67055e-08
1.16177e-05
-1.66766e-07
1.17149e-05
-3.64847e-07
1.17371e-05
-6.01647e-07
1.1679e-05
-8.34695e-07
1.1565e-05
-1.03734e-06
1.14197e-05
-1.19092e-06
1.12699e-05
-1.27452e-06
1.11342e-05
-1.29475e-06
1.10119e-05
-1.26829e-06
1.09152e-05
-1.20321e-06
1.085e-05
-1.11145e-06
1.08172e-05
-1.00621e-06
1.08156e-05
-8.98703e-07
1.08405e-05
-7.97864e-07
1.08847e-05
-7.11116e-07
1.0941e-05
-6.44473e-07
1.10024e-05
-6.00313e-07
1.10623e-05
-5.77376e-07
1.11154e-05
-5.73141e-07
1.11568e-05
-5.83701e-07
1.11834e-05
-6.04345e-07
1.11957e-05
-6.29609e-07
1.11965e-05
-6.55127e-07
1.1189e-05
-6.78738e-07
1.11767e-05
-6.98413e-07
1.11638e-05
-7.12574e-07
1.11531e-05
-7.21383e-07
1.11455e-05
-7.26181e-07
1.11418e-05
-7.282e-07
1.11432e-05
-7.2899e-07
1.11499e-05
-7.30101e-07
1.11619e-05
-7.34241e-07
1.11787e-05
-7.43237e-07
1.11984e-05
-7.58661e-07
1.12189e-05
-7.82396e-07
1.12376e-05
-8.16324e-07
1.12511e-05
-8.61835e-07
1.12544e-05
-9.18695e-07
1.12414e-05
-9.86109e-07
-1.0611e-06
1.12057e-05
1.1863e-05
-3.75313e-08
1.19741e-05
-6.53842e-08
1.20801e-05
-1.32745e-07
1.21561e-05
-2.42763e-07
1.21862e-05
-3.9493e-07
1.21602e-05
-5.75631e-07
1.20859e-05
-7.60452e-07
1.19738e-05
-9.25177e-07
1.18299e-05
-1.04703e-06
1.16746e-05
-1.11926e-06
1.15261e-05
-1.14618e-06
1.13925e-05
-1.13472e-06
1.1282e-05
-1.09274e-06
1.11993e-05
-1.02876e-06
1.11453e-05
-9.52212e-07
1.11185e-05
-8.71817e-07
1.11154e-05
-7.94818e-07
1.11308e-05
-7.26549e-07
1.11584e-05
-6.71993e-07
1.11922e-05
-6.34203e-07
1.12264e-05
-6.11575e-07
1.12555e-05
-6.02239e-07
1.12762e-05
-6.04341e-07
1.1287e-05
-6.1518e-07
1.12888e-05
-6.31376e-07
1.12834e-05
-6.49737e-07
1.12731e-05
-6.68394e-07
1.12597e-05
-6.85043e-07
1.12451e-05
-6.97984e-07
1.12308e-05
-7.07137e-07
1.12184e-05
-7.13724e-07
1.12091e-05
-7.1891e-07
1.12037e-05
-7.23579e-07
1.12025e-05
-7.28909e-07
1.12046e-05
-7.36377e-07
1.12094e-05
-7.48023e-07
1.12163e-05
-7.65569e-07
1.12239e-05
-7.89961e-07
1.12295e-05
-8.21975e-07
1.12298e-05
-8.6214e-07
1.12213e-05
-9.10114e-07
1.11996e-05
-9.64405e-07
-1.02206e-06
1.11605e-05
1.1987e-05
-1.02764e-07
1.2062e-05
-1.40399e-07
1.2136e-05
-2.06699e-07
1.21947e-05
-3.01503e-07
1.22181e-05
-4.1829e-07
1.21968e-05
-5.54344e-07
1.21323e-05
-6.95984e-07
1.20303e-05
-8.2317e-07
1.19046e-05
-9.2129e-07
1.17701e-05
-9.84759e-07
1.16383e-05
-1.01439e-06
1.15179e-05
-1.01436e-06
1.14153e-05
-9.90094e-07
1.13342e-05
-9.47742e-07
1.1276e-05
-8.93974e-07
1.12394e-05
-8.3523e-07
1.12222e-05
-7.77577e-07
1.12212e-05
-7.25583e-07
1.12312e-05
-6.81965e-07
1.12458e-05
-6.48863e-07
1.12621e-05
-6.27804e-07
1.12783e-05
-6.1842e-07
1.12912e-05
-6.17262e-07
1.12977e-05
-6.21713e-07
1.12981e-05
-6.31774e-07
1.12935e-05
-6.45146e-07
1.1284e-05
-6.58843e-07
1.12707e-05
-6.7175e-07
1.12558e-05
-6.83126e-07
1.12412e-05
-6.92488e-07
1.12277e-05
-7.0027e-07
1.12161e-05
-7.07269e-07
1.12068e-05
-7.14303e-07
1.12004e-05
-7.22517e-07
1.11968e-05
-7.32801e-07
1.11952e-05
-7.46421e-07
1.11942e-05
-7.64554e-07
1.11925e-05
-7.88217e-07
1.11884e-05
-8.17875e-07
1.11798e-05
-8.53531e-07
1.11642e-05
-8.94508e-07
1.1139e-05
-9.39262e-07
-9.85197e-07
1.11022e-05
1.1972e-05
-1.49458e-07
1.20228e-05
-1.91266e-07
1.2068e-05
-2.51898e-07
1.20986e-05
-3.32059e-07
1.2108e-05
-4.27673e-07
1.20874e-05
-5.33752e-07
1.2034e-05
-6.42585e-07
1.19529e-05
-7.42125e-07
1.18532e-05
-8.21597e-07
1.17451e-05
-8.76632e-07
1.16376e-05
-9.0691e-07
1.15377e-05
-9.14445e-07
1.14504e-05
-9.02738e-07
1.13787e-05
-8.76101e-07
1.13241e-05
-8.39329e-07
1.12862e-05
-7.97374e-07
1.12635e-05
-7.54885e-07
1.12535e-05
-7.15533e-07
1.12531e-05
-6.81584e-07
1.12586e-05
-6.54358e-07
1.12659e-05
-6.35154e-07
1.12725e-05
-6.24997e-07
1.12776e-05
-6.22318e-07
1.12802e-05
-6.243e-07
1.12789e-05
-6.30535e-07
1.12734e-05
-6.39663e-07
1.12646e-05
-6.49976e-07
1.12531e-05
-6.60301e-07
1.12401e-05
-6.70071e-07
1.12266e-05
-6.7903e-07
1.12137e-05
-6.87341e-07
1.12019e-05
-6.955e-07
1.11916e-05
-7.04047e-07
1.1183e-05
-7.13842e-07
1.11758e-05
-7.25674e-07
1.11698e-05
-7.40394e-07
1.1164e-05
-7.58761e-07
1.11572e-05
-7.81423e-07
1.11481e-05
-8.08731e-07
1.11351e-05
-8.40548e-07
1.11167e-05
-8.76143e-07
1.10916e-05
-9.14116e-07
-9.52245e-07
1.10586e-05
1.19103e-05
-1.81773e-07
1.19439e-05
-2.24876e-07
1.19728e-05
-2.80791e-07
1.19904e-05
-3.49636e-07
1.19915e-05
-4.28764e-07
1.19718e-05
-5.14031e-07
1.1929e-05
-5.99769e-07
1.18658e-05
-6.78942e-07
1.17886e-05
-7.4441e-07
1.17043e-05
-7.92361e-07
1.16193e-05
-8.21878e-07
1.15387e-05
-8.33874e-07
1.14665e-05
-8.30569e-07
1.14054e-05
-8.1499e-07
1.13568e-05
-7.90653e-07
1.13207e-05
-7.61265e-07
1.12961e-05
-7.30293e-07
1.12811e-05
-7.00539e-07
1.12735e-05
-6.73974e-07
1.1271e-05
-6.51943e-07
1.12716e-05
-6.35695e-07
1.12729e-05
-6.26299e-07
1.12736e-05
-6.23027e-07
1.12727e-05
-6.2344e-07
1.12694e-05
-6.27233e-07
1.12633e-05
-6.33519e-07
1.12546e-05
-6.41281e-07
1.1244e-05
-6.49661e-07
1.1232e-05
-6.58164e-07
1.12196e-05
-6.66581e-07
1.12073e-05
-6.75013e-07
1.11954e-05
-6.83638e-07
1.11843e-05
-6.92952e-07
1.1174e-05
-7.03501e-07
1.11642e-05
-7.1591e-07
1.11547e-05
-7.30865e-07
1.11448e-05
-7.48933e-07
1.11339e-05
-7.70511e-07
1.1121e-05
-7.95776e-07
1.1105e-05
-8.24544e-07
1.1085e-05
-8.56176e-07
1.10604e-05
-8.89496e-07
-9.2273e-07
1.10309e-05
1.1863e-05
-2.04155e-07
1.1885e-05
-2.4688e-07
1.19025e-05
-2.98248e-07
1.1911e-05
-3.58123e-07
1.19069e-05
-4.24713e-07
1.18877e-05
-4.94849e-07
1.18525e-05
-5.64486e-07
1.18028e-05
-6.29278e-07
1.17425e-05
-6.84149e-07
1.16763e-05
-7.26106e-07
1.16085e-05
-7.54123e-07
1.15432e-05
-7.68561e-07
1.14834e-05
-7.70805e-07
1.14314e-05
-7.62958e-07
1.13883e-05
-7.47581e-07
1.13545e-05
-7.27421e-07
1.13293e-05
-7.05076e-07
1.13115e-05
-6.82715e-07
1.12995e-05
-6.62045e-07
1.12921e-05
-6.44502e-07
1.12878e-05
-6.31423e-07
1.1285e-05
-6.23508e-07
1.12818e-05
-6.19797e-07
1.12775e-05
-6.19104e-07
1.12715e-05
-6.21319e-07
1.12638e-05
-6.2582e-07
1.12545e-05
-6.31894e-07
1.12437e-05
-6.38898e-07
1.12319e-05
-6.46414e-07
1.12196e-05
-6.54227e-07
1.1207e-05
-6.62436e-07
1.11945e-05
-6.71103e-07
1.11821e-05
-6.80575e-07
1.11699e-05
-6.91283e-07
1.11577e-05
-7.03689e-07
1.11451e-05
-7.18311e-07
1.11318e-05
-7.35623e-07
1.11172e-05
-7.55953e-07
1.11009e-05
-7.79424e-07
1.10822e-05
-8.05871e-07
1.10608e-05
-8.34765e-07
1.10365e-05
-8.65158e-07
-8.95683e-07
1.10094e-05
1.18249e-05
-2.19478e-07
1.18388e-05
-2.60733e-07
1.18484e-05
-3.07867e-07
1.18509e-05
-3.60651e-07
1.18439e-05
-4.17762e-07
1.18259e-05
-4.76842e-07
1.17965e-05
-5.34998e-07
1.17565e-05
-5.89282e-07
1.17084e-05
-6.36086e-07
1.16555e-05
-6.73169e-07
1.16009e-05
-6.9953e-07
1.15475e-05
-7.15216e-07
1.14978e-05
-7.2108e-07
1.14534e-05
-7.18574e-07
1.14154e-05
-7.09546e-07
1.1384e-05
-6.96042e-07
1.1359e-05
-6.80044e-07
1.13396e-05
-6.63338e-07
1.1325e-05
-6.47491e-07
1.13144e-05
-6.33835e-07
1.13064e-05
-6.23435e-07
1.12995e-05
-6.16668e-07
1.12927e-05
-6.12976e-07
1.12855e-05
-6.11857e-07
1.12773e-05
-6.13166e-07
1.1268e-05
-6.16532e-07
1.12576e-05
-6.21454e-07
1.12461e-05
-6.2744e-07
1.12339e-05
-6.34153e-07
1.12211e-05
-6.41406e-07
1.12078e-05
-6.49193e-07
1.11943e-05
-6.57602e-07
1.11806e-05
-6.66834e-07
1.11665e-05
-6.77192e-07
1.11519e-05
-6.89078e-07
1.11365e-05
-7.02928e-07
1.112e-05
-7.1916e-07
1.11022e-05
-7.381e-07
1.10827e-05
-7.59913e-07
1.10613e-05
-7.84535e-07
1.10381e-05
-8.11591e-07
1.10133e-05
-8.40351e-07
-8.69759e-07
1.09874e-05
1.17902e-05
-2.29992e-07
1.17987e-05
-2.69215e-07
1.18033e-05
-3.12491e-07
1.18022e-05
-3.5955e-07
1.17938e-05
-4.09374e-07
1.17772e-05
-4.60193e-07
1.17522e-05
-5.09965e-07
1.17195e-05
-5.56573e-07
1.16807e-05
-5.97375e-07
1.16382e-05
-6.30643e-07
1.15941e-05
-6.55442e-07
1.15506e-05
-6.71646e-07
1.15093e-05
-6.79772e-07
1.14715e-05
-6.80841e-07
1.14382e-05
-6.76204e-07
1.14095e-05
-6.67402e-07
1.13855e-05
-6.55982e-07
1.13656e-05
-6.43499e-07
1.13495e-05
-6.31346e-07
1.13363e-05
-6.20632e-07
1.13251e-05
-6.12222e-07
1.13149e-05
-6.06457e-07
1.1305e-05
-6.03093e-07
1.12949e-05
-6.01819e-07
1.12844e-05
-6.0258e-07
1.12731e-05
-6.05232e-07
1.1261e-05
-6.09392e-07
1.12482e-05
-6.14647e-07
1.12348e-05
-6.20708e-07
1.12208e-05
-6.27404e-07
1.12062e-05
-6.34677e-07
1.11912e-05
-6.42579e-07
1.11756e-05
-6.51194e-07
1.11591e-05
-6.60739e-07
1.11416e-05
-6.71604e-07
1.11229e-05
-6.84226e-07
1.11028e-05
-6.99039e-07
1.10811e-05
-7.164e-07
1.10578e-05
-7.36565e-07
1.10329e-05
-7.59638e-07
1.10067e-05
-7.85424e-07
1.09797e-05
-8.13388e-07
-8.42691e-07
1.09527e-05
1.17603e-05
-2.37177e-07
1.17651e-05
-2.74038e-07
1.17664e-05
-3.13786e-07
1.1763e-05
-3.56153e-07
1.1754e-05
-4.00336e-07
1.17388e-05
-4.44983e-07
1.17174e-05
-4.88622e-07
1.16905e-05
-5.29614e-07
1.16591e-05
-5.65988e-07
1.16248e-05
-5.96345e-07
1.15891e-05
-6.19782e-07
1.15535e-05
-6.36053e-07
1.15192e-05
-6.45453e-07
1.14871e-05
-6.48716e-07
1.14577e-05
-6.46859e-07
1.14314e-05
-6.41053e-07
1.1408e-05
-6.32588e-07
1.13874e-05
-6.22919e-07
1.13693e-05
-6.1321e-07
1.13531e-05
-6.0446e-07
1.13385e-05
-5.97611e-07
1.13249e-05
-5.92838e-07
1.13116e-05
-5.89832e-07
1.12982e-05
-5.88447e-07
1.12846e-05
-5.88931e-07
1.12706e-05
-5.91244e-07
1.12561e-05
-5.94936e-07
1.12411e-05
-5.99638e-07
1.12255e-05
-6.051e-07
1.12093e-05
-6.1115e-07
1.11923e-05
-6.17677e-07
1.11744e-05
-6.24676e-07
1.11555e-05
-6.32282e-07
1.11354e-05
-6.40678e-07
1.11139e-05
-6.50101e-07
1.10906e-05
-6.60938e-07
1.10652e-05
-6.73652e-07
1.10376e-05
-6.88785e-07
1.10079e-05
-7.06846e-07
1.09764e-05
-7.28127e-07
1.09435e-05
-7.52564e-07
1.09099e-05
-7.79755e-07
-8.0903e-07
1.08762e-05
1.17349e-05
-2.41882e-07
1.1737e-05
-2.76183e-07
1.17359e-05
-3.12683e-07
1.17309e-05
-3.51126e-07
1.17214e-05
-3.90855e-07
1.17072e-05
-4.30837e-07
1.16886e-05
-4.69957e-07
1.16657e-05
-5.0677e-07
1.16395e-05
-5.3979e-07
1.1611e-05
-5.67794e-07
1.15811e-05
-5.8986e-07
1.15507e-05
-6.05725e-07
1.15209e-05
-6.15645e-07
1.14923e-05
-6.20043e-07
1.14649e-05
-6.19547e-07
1.14391e-05
-6.15212e-07
1.14149e-05
-6.08411e-07
1.13925e-05
-6.00443e-07
1.13716e-05
-5.92315e-07
1.13521e-05
-5.84958e-07
1.13332e-05
-5.78789e-07
1.13144e-05
-5.74033e-07
1.12958e-05
-5.71167e-07
1.12776e-05
-5.70259e-07
1.12596e-05
-5.70948e-07
1.12412e-05
-5.72879e-07
1.12222e-05
-5.75916e-07
1.12024e-05
-5.79837e-07
1.11817e-05
-5.84417e-07
1.116e-05
-5.89467e-07
1.11372e-05
-5.94843e-07
1.1113e-05
-6.00464e-07
1.10871e-05
-6.06339e-07
1.10589e-05
-6.12575e-07
1.10283e-05
-6.19439e-07
1.09947e-05
-6.27303e-07
1.09577e-05
-6.36685e-07
1.09172e-05
-6.48313e-07
1.08733e-05
-6.6292e-07
1.08262e-05
-6.81024e-07
1.07764e-05
-7.0281e-07
1.07247e-05
-7.28017e-07
-7.55984e-07
1.06716e-05
1.17093e-05
-2.14241e-07
1.17114e-05
-2.43973e-07
1.17107e-05
-2.7549e-07
1.17069e-05
-3.08846e-07
1.16996e-05
-3.43803e-07
1.16885e-05
-3.79798e-07
1.16737e-05
-4.15983e-07
1.16551e-05
-4.51358e-07
1.16328e-05
-4.84518e-07
1.16076e-05
-5.14555e-07
1.15802e-05
-5.40433e-07
1.15517e-05
-5.61369e-07
1.15228e-05
-5.76813e-07
1.14936e-05
-5.86466e-07
1.14642e-05
-5.90631e-07
1.14349e-05
-5.9018e-07
1.14058e-05
-5.86179e-07
1.13772e-05
-5.79746e-07
1.13488e-05
-5.72049e-07
1.13206e-05
-5.64123e-07
1.12924e-05
-5.56795e-07
1.12642e-05
-5.50555e-07
1.12358e-05
-5.45654e-07
1.1207e-05
-5.42324e-07
1.11773e-05
-5.40626e-07
1.11467e-05
-5.40348e-07
1.11151e-05
-5.41214e-07
1.10821e-05
-5.4296e-07
1.10476e-05
-5.45342e-07
1.10114e-05
-5.48185e-07
1.09732e-05
-5.51294e-07
1.09328e-05
-5.54471e-07
1.08899e-05
-5.57544e-07
1.0844e-05
-5.60398e-07
1.07944e-05
-5.63005e-07
1.07404e-05
-5.65462e-07
1.06813e-05
-5.68169e-07
1.06165e-05
-5.7189e-07
1.05458e-05
-5.77577e-07
1.04691e-05
-5.86279e-07
1.0387e-05
-5.9886e-07
1.02997e-05
-6.15595e-07
1.02078e-05
-6.36112e-07
-6.59604e-07
1.01115e-05
1.16525e-05
-2.13606e-07
1.16487e-05
-2.40128e-07
1.16415e-05
-2.68286e-07
1.16307e-05
-2.98082e-07
1.16162e-05
-3.29307e-07
1.15979e-05
-3.61456e-07
1.15757e-05
-3.93764e-07
1.15501e-05
-4.25773e-07
1.15209e-05
-4.55394e-07
1.14888e-05
-4.8243e-07
1.14541e-05
-5.05723e-07
1.14171e-05
-5.24372e-07
1.1378e-05
-5.37739e-07
1.13371e-05
-5.45481e-07
1.12942e-05
-5.47756e-07
1.12493e-05
-5.45295e-07
1.12023e-05
-5.39209e-07
1.11534e-05
-5.30825e-07
1.11028e-05
-5.21405e-07
1.10506e-05
-5.1194e-07
1.09969e-05
-5.03157e-07
1.09419e-05
-4.95492e-07
1.08853e-05
-4.8912e-07
1.08271e-05
-4.84108e-07
1.07669e-05
-4.80425e-07
1.07044e-05
-4.77853e-07
1.06393e-05
-4.76053e-07
1.05711e-05
-4.74801e-07
1.04998e-05
-4.73985e-07
1.0425e-05
-4.73423e-07
1.03466e-05
-4.72901e-07
1.02643e-05
-4.72165e-07
1.01778e-05
-4.7101e-07
1.00866e-05
-4.69205e-07
9.99003e-06
-4.66472e-07
9.8873e-06
-4.62728e-07
9.77741e-06
-4.58278e-07
9.65943e-06
-4.53915e-07
9.53268e-06
-4.50822e-07
9.39677e-06
-4.50369e-07
9.25168e-06
-4.53775e-07
9.09739e-06
-4.61301e-07
8.93355e-06
-4.72272e-07
-4.85612e-07
8.75955e-06
1.13842e-05
-1.98871e-07
1.13644e-05
-2.20287e-07
1.13392e-05
-2.43129e-07
1.13085e-05
-2.67376e-07
1.12721e-05
-2.92855e-07
1.12297e-05
-3.19125e-07
1.11815e-05
-3.45516e-07
1.11274e-05
-3.71679e-07
1.10676e-05
-3.95606e-07
1.10024e-05
-4.17247e-07
1.09322e-05
-4.35474e-07
1.08571e-05
-4.49247e-07
1.07772e-05
-4.57868e-07
1.06926e-05
-4.60931e-07
1.06035e-05
-4.58594e-07
1.05098e-05
-4.51649e-07
1.04117e-05
-4.41109e-07
1.03093e-05
-4.28393e-07
1.02029e-05
-4.14971e-07
1.00929e-05
-4.01995e-07
9.97981e-06
-3.90041e-07
9.8636e-06
-3.7929e-07
9.74423e-06
-3.69747e-07
9.62143e-06
-3.61306e-07
9.49484e-06
-3.5384e-07
9.36408e-06
-3.47094e-07
9.22886e-06
-3.40827e-07
9.08892e-06
-3.34862e-07
8.94407e-06
-3.29135e-07
8.79426e-06
-3.23615e-07
8.63952e-06
-3.18165e-07
8.4799e-06
-3.12538e-07
8.31505e-06
-3.06166e-07
8.14429e-06
-2.98438e-07
7.96709e-06
-2.89279e-07
7.78302e-06
-2.78657e-07
7.59126e-06
-2.66517e-07
7.39069e-06
-2.53346e-07
7.18011e-06
-2.40236e-07
6.95855e-06
-2.2881e-07
6.72538e-06
-2.20603e-07
6.47935e-06
-2.15271e-07
6.2186e-06
-2.11523e-07
-2.07711e-07
5.9407e-06
1.02739e-05
-1.39944e-07
1.02059e-05
-1.52246e-07
1.01282e-05
-1.65407e-07
1.00403e-05
-1.79457e-07
9.94171e-06
-1.943e-07
9.83223e-06
-2.09648e-07
9.71178e-06
-2.25064e-07
9.58012e-06
-2.40018e-07
9.43806e-06
-2.5355e-07
9.2858e-06
-2.64983e-07
9.12389e-06
-2.73568e-07
8.95353e-06
-2.78884e-07
8.77607e-06
-2.80414e-07
8.59273e-06
-2.77583e-07
8.40262e-06
-2.68492e-07
8.20406e-06
-2.53083e-07
7.99737e-06
-2.34417e-07
7.78447e-06
-2.15499e-07
7.56744e-06
-1.97943e-07
7.34765e-06
-1.82206e-07
7.12579e-06
-1.68176e-07
6.90205e-06
-1.5555e-07
6.67633e-06
-1.44024e-07
6.44837e-06
-1.3335e-07
6.21786e-06
-1.23324e-07
5.98447e-06
-1.13711e-07
5.74815e-06
-1.04506e-07
5.509e-06
-9.57072e-08
5.2673e-06
-8.7439e-08
5.02362e-06
-7.99291e-08
4.77889e-06
-7.34371e-08
4.53445e-06
-6.81014e-08
4.2923e-06
-6.40155e-08
4.05512e-06
-6.12562e-08
3.82481e-06
-5.89746e-08
3.6019e-06
-5.57476e-08
3.38555e-06
-5.01591e-08
3.17278e-06
-4.05809e-08
2.95915e-06
-2.66048e-08
2.74101e-06
-1.06715e-08
2.51783e-06
2.58257e-09
2.29075e-06
1.18096e-08
2.0627e-06
1.65265e-08
1.6275e-08
1.83871e-06
6.04536e-06
5.89312e-06
5.72771e-06
5.54825e-06
5.35395e-06
5.14431e-06
4.91924e-06
4.67922e-06
4.42567e-06
4.16069e-06
3.88712e-06
3.60824e-06
3.32782e-06
3.05024e-06
2.78175e-06
2.52867e-06
2.29425e-06
2.07875e-06
1.88081e-06
1.6986e-06
1.53043e-06
1.37488e-06
1.23085e-06
1.0975e-06
9.74178e-07
8.60467e-07
7.5596e-07
6.60253e-07
5.72814e-07
4.92885e-07
4.19448e-07
3.51347e-07
2.87331e-07
2.26075e-07
1.671e-07
1.11353e-07
6.11938e-08
2.06129e-08
-5.9919e-09
-1.66634e-08
-1.40808e-08
-2.27123e-09
1.42552e-08
3.05302e-08
6.1258e-06
-1.25576e-06
1.18202e-06
6.31567e-06
-1.70488e-06
1.51501e-06
6.23855e-06
-2.05955e-06
2.13666e-06
5.97455e-06
-2.3015e-06
2.56551e-06
5.56654e-06
-2.36941e-06
2.77742e-06
5.0309e-06
-2.23759e-06
2.77323e-06
4.39603e-06
-1.92859e-06
2.56346e-06
3.7352e-06
-1.49106e-06
2.1519e-06
3.18566e-06
-9.81433e-07
1.53097e-06
2.91078e-06
-4.45745e-07
7.2063e-07
2.97992e-06
1.55026e-07
-2.24174e-07
3.37866e-06
7.93655e-07
-1.19239e-06
4.02732e-06
1.41482e-06
-2.06349e-06
4.86135e-06
1.92024e-06
-2.75426e-06
5.83096e-06
2.23101e-06
-3.20063e-06
6.88711e-06
2.29021e-06
-3.34635e-06
7.9821e-06
2.04629e-06
-3.14129e-06
9.07542e-06
1.45578e-06
-2.5491e-06
1.00904e-05
5.68924e-07
-1.58393e-06
1.09047e-05
-4.10639e-07
-4.03655e-07
1.1458e-05
-1.31204e-06
7.58761e-07
1.17624e-05
-2.07335e-06
1.76899e-06
1.18614e-05
-2.67308e-06
2.57401e-06
1.18035e-05
-3.10908e-06
3.167e-06
1.16299e-05
-3.39489e-06
3.56848e-06
1.13745e-05
-3.55017e-06
3.80557e-06
1.10704e-05
-3.60037e-06
3.90447e-06
1.07496e-05
-3.57689e-06
3.89776e-06
1.04326e-05
-3.50691e-06
3.82381e-06
1.01288e-05
-3.40952e-06
3.71332e-06
9.83926e-06
-3.29653e-06
3.58612e-06
9.56114e-06
-3.17576e-06
3.45387e-06
9.29107e-06
-3.05259e-06
3.32266e-06
9.02742e-06
-2.9292e-06
3.19285e-06
8.76885e-06
-2.8036e-06
3.06217e-06
8.50826e-06
-2.67351e-06
2.93411e-06
8.2293e-06
-2.54399e-06
2.82294e-06
7.91441e-06
-2.43035e-06
2.74524e-06
7.56528e-06
-2.34575e-06
2.69488e-06
7.21462e-06
-2.2759e-06
2.62656e-06
6.9132e-06
-2.17157e-06
2.47299e-06
6.70733e-06
-1.97232e-06
2.17819e-06
6.61927e-06
-1.63608e-06
1.72415e-06
6.64093e-06
-1.16465e-06
1.143e-06
6.75756e-06
-5.97314e-07
4.80682e-07
6.94514e-06
1.65465e-08
-2.0413e-07
7.173e-06
6.23202e-07
-8.5106e-07
7.42171e-06
1.18221e-06
-1.43092e-06
7.67533e-06
1.67526e-06
-1.92888e-06
7.92109e-06
2.09502e-06
-2.34078e-06
8.14985e-06
2.44252e-06
-2.67127e-06
8.35618e-06
2.72496e-06
-2.93128e-06
8.53836e-06
2.95266e-06
-3.13485e-06
8.69795e-06
3.13635e-06
-3.29593e-06
8.83881e-06
3.28436e-06
-3.42522e-06
8.96619e-06
3.40021e-06
-3.52759e-06
9.08738e-06
3.4803e-06
-3.60149e-06
9.21309e-06
3.51121e-06
-3.63692e-06
9.35266e-06
3.47024e-06
-3.60981e-06
9.50772e-06
3.33304e-06
-3.4881e-06
9.67674e-06
3.07984e-06
-3.24886e-06
9.85751e-06
2.70221e-06
-2.88298e-06
1.00457e-05
2.20337e-06
-2.39156e-06
1.02345e-05
1.60063e-06
-1.78945e-06
1.04134e-05
9.29455e-07
-1.10829e-06
1.05675e-05
2.46038e-07
-4.00188e-07
1.06885e-05
-4.03381e-07
2.82386e-07
1.0771e-05
-9.88925e-07
9.06411e-07
1.08131e-05
-1.49171e-06
1.44964e-06
1.08157e-05
-1.9028e-06
1.90023e-06
1.0782e-05
-2.22122e-06
2.25493e-06
1.0716e-05
-2.45172e-06
2.51772e-06
1.06203e-05
-2.60036e-06
2.69603e-06
1.04952e-05
-2.67217e-06
2.79723e-06
1.03431e-05
-2.67572e-06
2.82783e-06
1.01693e-05
-2.62793e-06
2.80179e-06
9.97718e-06
-2.5464e-06
2.73849e-06
9.76972e-06
-2.44855e-06
2.656e-06
9.55002e-06
-2.34964e-06
2.56934e-06
9.32218e-06
-2.25969e-06
2.48753e-06
9.09158e-06
-2.18081e-06
2.41141e-06
8.86447e-06
-2.10632e-06
2.33343e-06
8.64776e-06
-2.02259e-06
2.23929e-06
8.44815e-06
-1.91268e-06
2.11229e-06
8.27094e-06
-1.76118e-06
1.93839e-06
8.11991e-06
-1.55871e-06
1.70974e-06
-1.30343e-06
1.42569e-06
8.65469e-06
-1.3136e-06
8.59708e-06
-1.64727e-06
8.42309e-06
-1.88556e-06
8.14568e-06
-2.02409e-06
7.80817e-06
-2.03191e-06
7.46086e-06
-1.89028e-06
7.14094e-06
-1.60867e-06
6.86323e-06
-1.21336e-06
6.6198e-06
-7.37994e-07
6.41757e-06
-2.43521e-07
6.31609e-06
2.56507e-07
6.40953e-06
7.00211e-07
6.75191e-06
1.07244e-06
7.33218e-06
1.33997e-06
8.09958e-06
1.46361e-06
8.99347e-06
1.39632e-06
9.95072e-06
1.08905e-06
1.0879e-05
5.27545e-07
1.165e-05
-2.02104e-07
1.21719e-05
-9.32593e-07
1.24401e-05
-1.58017e-06
1.24989e-05
-2.13219e-06
1.24059e-05
-2.58006e-06
1.22e-05
-2.90319e-06
1.19157e-05
-3.11056e-06
1.15865e-05
-3.22105e-06
1.12432e-05
-3.257e-06
1.09055e-05
-3.23925e-06
1.05825e-05
-3.18392e-06
1.02761e-05
-3.10311e-06
9.98509e-06
-3.00549e-06
9.70636e-06
-2.89703e-06
9.43603e-06
-2.78225e-06
9.17113e-06
-2.6643e-06
8.91108e-06
-2.54355e-06
8.65463e-06
-2.41706e-06
8.39339e-06
-2.28275e-06
8.11008e-06
-2.14703e-06
7.79044e-06
-2.02612e-06
7.44468e-06
-1.93014e-06
7.11295e-06
-1.83983e-06
6.84688e-06
-1.70625e-06
6.68694e-06
-1.47615e-06
6.64595e-06
-1.12367e-06
6.71412e-06
-6.65478e-07
6.86777e-06
-1.37107e-07
7.07496e-06
4.16018e-07
7.31181e-06
9.45356e-07
7.56168e-06
1.42539e-06
7.81128e-06
1.84542e-06
8.05088e-06
2.20292e-06
8.27453e-06
2.5013e-06
8.47993e-06
2.74726e-06
8.66795e-06
2.94833e-06
8.84211e-06
3.1102e-06
9.00824e-06
3.23407e-06
9.17449e-06
3.31406e-06
9.3497e-06
3.33599e-06
9.53929e-06
3.28066e-06
9.74435e-06
3.12798e-06
9.96217e-06
2.86202e-06
1.0188e-05
2.47636e-06
1.04152e-05
1.97615e-06
1.06343e-05
1.38158e-06
1.08309e-05
7.32818e-07
1.09907e-05
8.62896e-08
1.11062e-05
-5.18903e-07
1.11739e-05
-1.05662e-06
1.1194e-05
-1.51186e-06
1.11699e-05
-1.87866e-06
1.11064e-05
-2.15769e-06
1.1008e-05
-2.35332e-06
1.08768e-05
-2.46913e-06
1.07148e-05
-2.51025e-06
1.05285e-05
-2.48938e-06
1.03229e-05
-2.42232e-06
1.01017e-05
-2.32519e-06
9.86777e-06
-2.21466e-06
9.62431e-06
-2.10618e-06
9.37535e-06
-2.01073e-06
9.12572e-06
-1.93119e-06
8.88098e-06
-1.86157e-06
8.64748e-06
-1.78909e-06
8.43213e-06
-1.69733e-06
8.24098e-06
-1.57003e-06
8.07815e-06
-1.39588e-06
-1.17138e-06
1.01318e-05
-1.32223e-06
1.0026e-05
-1.54144e-06
9.8398e-06
-1.69935e-06
9.58954e-06
-1.77383e-06
9.30626e-06
-1.74863e-06
9.03081e-06
-1.61483e-06
8.80016e-06
-1.37802e-06
8.64463e-06
-1.05783e-06
8.58874e-06
-6.82097e-07
8.62912e-06
-2.83906e-07
8.77407e-06
1.11557e-07
9.01862e-06
4.5566e-07
9.37377e-06
7.173e-07
9.84786e-06
8.6588e-07
1.0436e-05
8.75509e-07
1.1107e-05
7.25258e-07
1.17851e-05
4.10921e-07
1.23443e-05
-3.16254e-08
1.26982e-05
-5.55973e-07
1.28642e-05
-1.09857e-06
1.28859e-05
-1.60195e-06
1.27912e-05
-2.03748e-06
1.25896e-05
-2.37841e-06
1.23117e-05
-2.62526e-06
1.19913e-05
-2.79023e-06
1.16552e-05
-2.88487e-06
1.13209e-05
-2.9227e-06
1.09975e-05
-2.91591e-06
1.06884e-05
-2.87483e-06
1.03936e-05
-2.80826e-06
1.01113e-05
-2.72322e-06
9.83927e-06
-2.62499e-06
9.57453e-06
-2.51751e-06
9.31411e-06
-2.40389e-06
9.05667e-06
-2.28611e-06
8.80312e-06
-2.16351e-06
8.55296e-06
-2.03259e-06
8.29766e-06
-1.89174e-06
8.0198e-06
-1.74825e-06
7.70721e-06
-1.61755e-06
7.37517e-06
-1.50779e-06
7.0684e-06
-1.39948e-06
6.84034e-06
-1.24808e-06
6.72649e-06
-1.00983e-06
6.72978e-06
-6.68768e-07
6.8346e-06
-2.41923e-07
7.01327e-06
2.37348e-07
7.23341e-06
7.25218e-07
7.47497e-06
1.18382e-06
7.72406e-06
1.59632e-06
7.97049e-06
1.95649e-06
8.20783e-06
2.26396e-06
8.43327e-06
2.52182e-06
8.64737e-06
2.73424e-06
8.85355e-06
2.90402e-06
9.05764e-06
3.02998e-06
9.26706e-06
3.10464e-06
9.48855e-06
3.11451e-06
9.72546e-06
3.04375e-06
9.97729e-06
2.87615e-06
1.02398e-05
2.59954e-06
1.05062e-05
2.20996e-06
1.07673e-05
1.71497e-06
1.10113e-05
1.1376e-06
1.12203e-05
5.23879e-07
1.13813e-05
-7.47416e-08
1.14881e-05
-6.25734e-07
1.15391e-05
-1.10762e-06
1.15368e-05
-1.50956e-06
1.14865e-05
-1.82833e-06
1.1394e-05
-2.06517e-06
1.12633e-05
-2.22264e-06
1.10971e-05
-2.30296e-06
1.09015e-05
-2.31468e-06
1.06838e-05
-2.27164e-06
1.04492e-05
-2.18776e-06
1.02019e-05
-2.07784e-06
9.94489e-06
-1.95767e-06
9.68153e-06
-1.84282e-06
9.41529e-06
-1.74448e-06
9.1502e-06
-1.6661e-06
8.89143e-06
-1.6028e-06
8.64496e-06
-1.54262e-06
8.41731e-06
-1.46968e-06
8.21495e-06
-1.36767e-06
8.04265e-06
-1.22357e-06
-1.03173e-06
1.08955e-05
-1.27046e-06
1.07678e-05
-1.41374e-06
1.05858e-05
-1.51743e-06
1.03684e-05
-1.55634e-06
1.01411e-05
-1.52133e-06
9.93468e-06
-1.40846e-06
9.77803e-06
-1.22138e-06
9.69363e-06
-9.73428e-07
9.6967e-06
-6.8516e-07
9.79437e-06
-3.81577e-07
9.99453e-06
-8.86084e-08
1.02872e-05
1.62987e-07
1.06598e-05
3.44716e-07
1.10933e-05
4.32369e-07
1.15622e-05
4.06616e-07
1.20299e-05
2.5757e-07
1.2449e-05
-8.17667e-09
1.2769e-05
-3.51602e-07
1.29467e-05
-7.33753e-07
1.29909e-05
-1.14276e-06
1.29254e-05
-1.53645e-06
1.27623e-05
-1.87432e-06
1.2527e-05
-2.14315e-06
1.22497e-05
-2.34802e-06
1.1952e-05
-2.49245e-06
1.16485e-05
-2.58138e-06
1.13479e-05
-2.62212e-06
1.10545e-05
-2.62253e-06
1.077e-05
-2.59029e-06
1.04942e-05
-2.53248e-06
1.02262e-05
-2.45517e-06
9.96453e-06