/*--------------------------------*- C++ -*----------------------------------*\
| =========                 |                                                 |
| \\      /  F ield         | OpenFOAM: The Open Source CFD Toolbox           |
|  \\    /   O peration     | Version:  2206                                  |
|   \\  /    A nd           | Website:  www.openfoam.com                      |
|    \\/     M anipulation  |                                                 |
\*---------------------------------------------------------------------------*/
FoamFile
{
    version     2.0;
    format      ascii;
    arch        "LSB;label=32;scalar=64";
    class       volVectorField;
    location    "18.0999";
    object      U_0;
}
// * * * * * * * * * * * * * * * * * * * * * * * * * * * * * * * * * * * * * //

dimensions      [0 1 -1 0 0 0 0];

internalField   nonuniform List<vector> 
3063
(
(1.47762 -0.000246868 0)
(1.4777 -0.000738736 0)
(1.47789 -0.00122489 0)
(1.47818 -0.00170115 0)
(1.47856 -0.00216402 0)
(1.47903 -0.00261074 0)
(1.47958 -0.00303909 0)
(1.48021 -0.00344729 0)
(1.48092 -0.0038341 0)
(1.4817 -0.00419875 0)
(1.48254 -0.00454087 0)
(1.48344 -0.00486046 0)
(1.4844 -0.00515774 0)
(1.4854 -0.00543314 0)
(1.48646 -0.00568721 0)
(1.48755 -0.00592058 0)
(1.48868 -0.0061339 0)
(1.48985 -0.00632784 0)
(1.49105 -0.00650301 0)
(1.49227 -0.00665999 0)
(1.49352 -0.00679931 0)
(1.49479 -0.00692142 0)
(1.49608 -0.00702671 0)
(1.49738 -0.0071155 0)
(1.49869 -0.00718805 0)
(1.50002 -0.00724457 0)
(1.50135 -0.00728522 0)
(1.50268 -0.00731016 0)
(1.50402 -0.00731942 0)
(1.50536 -0.00731317 0)
(1.50669 -0.00729144 0)
(1.50801 -0.00725429 0)
(1.50933 -0.00720182 0)
(1.51064 -0.0071341 0)
(1.51193 -0.00705129 0)
(1.5132 -0.00695346 0)
(1.51445 -0.00684079 0)
(1.51569 -0.00671334 0)
(1.51689 -0.00657134 0)
(1.51807 -0.0064148 0)
(1.51922 -0.00624392 0)
(1.52034 -0.00605863 0)
(1.52142 -0.00585907 0)
(1.52246 -0.00564505 0)
(1.52346 -0.0054165 0)
(1.52442 -0.00517309 0)
(1.52533 -0.00491444 0)
(1.5262 -0.00463998 0)
(1.52701 -0.00434897 0)
(1.52777 -0.00404041 0)
(1.52847 -0.00371318 0)
(1.52911 -0.0033656 0)
(1.52968 -0.00299639 0)
(1.53019 -0.00260269 0)
(1.53063 -0.00218373 0)
(1.53099 -0.00173479 0)
(1.53127 -0.00125683 0)
(1.53147 -0.000741548 0)
(1.53157 -0.000185585 0)
(1.53157 0.00041588 0)
(1.53147 0.00106879 0)
(1.53126 0.00177969 0)
(1.53092 0.00255602 0)
(1.53045 0.0034063 0)
(1.52983 0.00434035 0)
(1.52905 0.00536943 0)
(1.52811 0.00650645 0)
(1.52697 0.00776624 0)
(1.52562 0.00916588 0)
(1.52405 0.0107251 0)
(1.52222 0.0124667 0)
(1.5201 0.0144173 0)
(1.51768 0.0166078 0)
(1.51491 0.0190742 0)
(1.51175 0.0218589 0)
(1.50816 0.0250118 0)
(1.50409 0.028592 0)
(1.49947 0.0326696 0)
(1.49425 0.0373282 0)
(1.48835 0.0426681 0)
(1.48169 0.0488103 0)
(1.47417 0.0559015 0)
(1.46568 0.0641204 0)
(1.45611 0.0736863 0)
(1.44532 0.0848699 0)
(1.43316 0.098008 0)
(1.41948 0.113522 0)
(1.4041 0.131946 0)
(1.38685 0.153959 0)
(1.36755 0.180438 0)
(1.34604 0.212525 0)
(1.3222 0.251745 0)
(1.29608 0.300137 0)
(1.26754 0.360648 0)
(1.23818 0.437212 0)
(1.20514 0.537074 0)
(1.1879 0.667663 0)
(1.13962 0.858242 0)
(1.30385 1.09363 0)
(1.17497 1.64378 0)
(1.47762 -0.000296661 0)
(1.4777 -0.000887707 0)
(1.4779 -0.00147157 0)
(1.4782 -0.00204293 0)
(1.4786 -0.00259737 0)
(1.47909 -0.00313147 0)
(1.47967 -0.00364252 0)
(1.48033 -0.00412844 0)
(1.48106 -0.00458781 0)
(1.48186 -0.00501982 0)
(1.48273 -0.00542419 0)
(1.48366 -0.00580104 0)
(1.48464 -0.0061508 0)
(1.48567 -0.0064741 0)
(1.48675 -0.00677175 0)
(1.48787 -0.00704461 0)
(1.48902 -0.00729356 0)
(1.49021 -0.00751947 0)
(1.49143 -0.00772318 0)
(1.49267 -0.00790543 0)
(1.49394 -0.00806689 0)
(1.49523 -0.00820816 0)
(1.49653 -0.00832972 0)
(1.49786 -0.00843199 0)
(1.49919 -0.00851529 0)
(1.50053 -0.00857988 0)
(1.50188 -0.00862596 0)
(1.50323 -0.00865368 0)
(1.50458 -0.00866315 0)
(1.50593 -0.00865446 0)
(1.50728 -0.00862766 0)
(1.50862 -0.0085828 0)
(1.50996 -0.00851998 0)
(1.51128 -0.00843927 0)
(1.51258 -0.00834082 0)
(1.51387 -0.00822468 0)
(1.51514 -0.00809107 0)
(1.51639 -0.00794004 0)
(1.51762 -0.00777181 0)
(1.51881 -0.00758642 0)
(1.51998 -0.00738408 0)
(1.52111 -0.00716473 0)
(1.52221 -0.00692853 0)
(1.52327 -0.00667524 0)
(1.52429 -0.0064049 0)
(1.52526 -0.00611698 0)
(1.52619 -0.00581135 0)
(1.52708 -0.00548696 0)
(1.52791 -0.0051436 0)
(1.52869 -0.00477939 0)
(1.52941 -0.00439405 0)
(1.53007 -0.00398468 0)
(1.53067 -0.00355096 0)
(1.53121 -0.00308882 0)
(1.53168 -0.00259784 0)
(1.53207 -0.00207294 0)
(1.53239 -0.00151321 0)
(1.53263 -0.000910836 0)
(1.53278 -0.000262228 0)
(1.53283 0.000438471 0)
(1.53279 0.00119793 0)
(1.53264 0.00202354 0)
(1.53237 0.00292373 0)
(1.53199 0.00390823 0)
(1.53147 0.00498816 0)
(1.5308 0.00617626 0)
(1.52997 0.00748708 0)
(1.52898 0.00893732 0)
(1.52779 0.0105462 0)
(1.52639 0.0123358 0)
(1.52477 0.0143317 0)
(1.5229 0.0165634 0)
(1.52075 0.0190652 0)
(1.51829 0.0218771 0)
(1.5155 0.0250459 0)
(1.51233 0.0286261 0)
(1.50875 0.0326823 0)
(1.5047 0.0372906 0)
(1.50015 0.0425412 0)
(1.49503 0.0485418 0)
(1.48929 0.0554211 0)
(1.48285 0.0633338 0)
(1.47566 0.0724672 0)
(1.46763 0.0830484 0)
(1.4587 0.095355 0)
(1.44878 0.109728 0)
(1.43782 0.126589 0)
(1.42578 0.146463 0)
(1.41263 0.170009 0)
(1.39843 0.198058 0)
(1.38334 0.231674 0)
(1.36765 0.272234 0)
(1.35211 0.32154 0)
(1.3375 0.382024 0)
(1.32732 0.456912 0)
(1.32151 0.551004 0)
(1.34107 0.669103 0)
(1.36478 0.82325 0)
(1.4946 0.986091 0)
(1.63222 1.31969 0)
(1.47762 -0.000349065 0)
(1.47771 -0.00104443 0)
(1.47792 -0.00173086 0)
(1.47824 -0.00240165 0)
(1.47866 -0.00305137 0)
(1.47917 -0.00367583 0)
(1.47978 -0.00427184 0)
(1.48046 -0.00483704 0)
(1.48123 -0.00536992 0)
(1.48206 -0.00586971 0)
(1.48296 -0.0063363 0)
(1.48392 -0.00677005 0)
(1.48493 -0.00717166 0)
(1.48599 -0.00754207 0)
(1.4871 -0.00788239 0)
(1.48825 -0.00819378 0)
(1.48943 -0.00847739 0)
(1.49064 -0.00873434 0)
(1.49189 -0.00896569 0)
(1.49315 -0.00917239 0)
(1.49444 -0.00935526 0)
(1.49575 -0.00951504 0)
(1.49708 -0.00965232 0)
(1.49842 -0.0097676 0)
(1.49977 -0.00986128 0)
(1.50114 -0.00993365 0)
(1.5025 -0.00998493 0)
(1.50387 -0.0100153 0)
(1.50525 -0.0100248 0)
(1.50662 -0.0100136 0)
(1.50799 -0.00998167 0)
(1.50935 -0.00992907 0)
(1.5107 -0.00985587 0)
(1.51204 -0.00976217 0)
(1.51337 -0.00964804 0)
(1.51467 -0.00951362 0)
(1.51596 -0.00935903 0)
(1.51723 -0.00918443 0)
(1.51847 -0.00898995 0)
(1.51969 -0.00877579 0)
(1.52087 -0.00854201 0)
(1.52202 -0.00828875 0)
(1.52314 -0.00801603 0)
(1.52422 -0.0077238 0)
(1.52526 -0.00741194 0)
(1.52625 -0.00708011 0)
(1.52721 -0.00672796 0)
(1.52811 -0.00635474 0)
(1.52896 -0.00595972 0)
(1.52977 -0.00554166 0)
(1.53051 -0.00509925 0)
(1.5312 -0.00463075 0)
(1.53183 -0.00413402 0)
(1.5324 -0.003607 0)
(1.5329 -0.00304619 0)
(1.53334 -0.00244963 0)
(1.5337 -0.00181157 0)
(1.53398 -0.00112726 0)
(1.53418 -0.000391583 0)
(1.5343 0.000401914 0)
(1.53432 0.0012605 0)
(1.53424 0.00219235 0)
(1.53406 0.00320677 0)
(1.53377 0.00431445 0)
(1.53335 0.00552758 0)
(1.53281 0.00686012 0)
(1.53212 0.00832798 0)
(1.53128 0.00994939 0)
(1.53027 0.0117452 0)
(1.52908 0.0137395 0)
(1.52769 0.0159598 0)
(1.52608 0.0184379 0)
(1.52423 0.0212108 0)
(1.52212 0.0243211 0)
(1.51973 0.0278185 0)
(1.51702 0.0317609 0)
(1.51397 0.0362162 0)
(1.51055 0.0412639 0)
(1.50672 0.0469977 0)
(1.50244 0.0535285 0)
(1.49768 0.0609879 0)
(1.49241 0.0695325 0)
(1.48658 0.0793496 0)
(1.48017 0.0906639 0)
(1.47316 0.103746 0)
(1.46555 0.118924 0)
(1.45735 0.136596 0)
(1.44864 0.157246 0)
(1.43954 0.181469 0)
(1.43028 0.209991 0)
(1.42125 0.243708 0)
(1.41306 0.283716 0)
(1.40679 0.331367 0)
(1.40389 0.388226 0)
(1.40751 0.456238 0)
(1.42033 0.5369 0)
(1.45178 0.631717 0)
(1.50498 0.74169 0)
(1.58785 0.835763 0)
(1.76294 1.01018 0)
(1.47762 -0.000404731 0)
(1.47772 -0.00121083 0)
(1.47794 -0.00200583 0)
(1.47828 -0.0027814 0)
(1.47873 -0.00353083 0)
(1.47927 -0.00424915 0)
(1.47991 -0.00493266 0)
(1.48063 -0.00557882 0)
(1.48143 -0.00618612 0)
(1.4823 -0.00675397 0)
(1.48324 -0.00728255 0)
(1.48424 -0.00777256 0)
(1.48529 -0.00822512 0)
(1.48638 -0.00864156 0)
(1.48752 -0.00902336 0)
(1.4887 -0.00937205 0)
(1.48991 -0.00968911 0)
(1.49115 -0.00997596 0)
(1.49243 -0.0102339 0)
(1.49372 -0.010464 0)
(1.49504 -0.0106675 0)
(1.49637 -0.010845 0)
(1.49772 -0.0109974 0)
(1.49909 -0.0111252 0)
(1.50046 -0.0112288 0)
(1.50185 -0.0113086 0)
(1.50324 -0.0113649 0)
(1.50463 -0.0113977 0)
(1.50602 -0.0114072 0)
(1.50742 -0.0113934 0)
(1.50881 -0.0113563 0)
(1.51019 -0.0112959 0)
(1.51156 -0.0112123 0)
(1.51293 -0.0111056 0)
(1.51427 -0.0109758 0)
(1.51561 -0.010823 0)
(1.51692 -0.0106474 0)
(1.51821 -0.0104492 0)
(1.51947 -0.0102284 0)
(1.52071 -0.00998541 0)
(1.52191 -0.00972022 0)
(1.52309 -0.00943307 0)
(1.52422 -0.00912394 0)
(1.52533 -0.00879297 0)
(1.52639 -0.00843985 0)
(1.52741 -0.00806464 0)
(1.52838 -0.00766652 0)
(1.52931 -0.00724538 0)
(1.53019 -0.00679973 0)
(1.53102 -0.00632922 0)
(1.53179 -0.00583142 0)
(1.53251 -0.00530579 0)
(1.53317 -0.00474868 0)
(1.53378 -0.00415926 0)
(1.53432 -0.00353263 0)
(1.53479 -0.0028672 0)
(1.5352 -0.00215605 0)
(1.53553 -0.00139516 0)
(1.53579 -0.000578533 0)
(1.53597 0.000300769 0)
(1.53606 0.00125043 0)
(1.53607 0.00227921 0)
(1.53598 0.0033972 0)
(1.53579 0.0046159 0)
(1.53549 0.00594833 0)
(1.53508 0.00740938 0)
(1.53454 0.00901603 0)
(1.53386 0.0107876 0)
(1.53305 0.0127463 0)
(1.53208 0.0149175 0)
(1.53093 0.0173302 0)
(1.52961 0.0200177 0)
(1.52809 0.0230186 0)
(1.52635 0.0263773 0)
(1.52439 0.0301449 0)
(1.52217 0.0343811 0)
(1.51969 0.0391551 0)
(1.51692 0.0445474 0)
(1.51384 0.0506524 0)
(1.51044 0.0575805 0)
(1.50671 0.0654615 0)
(1.50262 0.0744483 0)
(1.49819 0.0847212 0)
(1.49342 0.0964938 0)
(1.48833 0.110019 0)
(1.48299 0.125598 0)
(1.47749 0.143586 0)
(1.47197 0.164408 0)
(1.46667 0.188563 0)
(1.46193 0.216641 0)
(1.45829 0.249329 0)
(1.4565 0.287402 0)
(1.4577 0.331724 0)
(1.46348 0.383106 0)
(1.4762 0.442316 0)
(1.499 0.509412 0)
(1.53529 0.583033 0)
(1.59434 0.664598 0)
(1.66834 0.729645 0)
(1.79468 0.825046 0)
(1.47762 -0.000464458 0)
(1.47773 -0.00138925 0)
(1.47796 -0.00230024 0)
(1.47833 -0.00318705 0)
(1.47881 -0.00404149 0)
(1.47939 -0.00485766 0)
(1.48007 -0.00563147 0)
(1.48084 -0.0063603 0)
(1.48168 -0.0070428 0)
(1.4826 -0.00767874 0)
(1.48358 -0.00826874 0)
(1.48462 -0.00881403 0)
(1.48571 -0.00931625 0)
(1.48684 -0.00977725 0)
(1.48802 -0.010199 0)
(1.48923 -0.0105835 0)
(1.49048 -0.0109325 0)
(1.49176 -0.0112478 0)
(1.49306 -0.011531 0)
(1.49438 -0.0117835 0)
(1.49573 -0.0120065 0)
(1.49709 -0.0122009 0)
(1.49847 -0.0123677 0)
(1.49986 -0.0125074 0)
(1.50126 -0.0126206 0)
(1.50267 -0.0127075 0)
(1.50408 -0.0127685 0)
(1.5055 -0.0128037 0)
(1.50692 -0.012813 0)
(1.50834 -0.0127966 0)
(1.50975 -0.0127543 0)
(1.51116 -0.0126862 0)
(1.51256 -0.0125922 0)
(1.51395 -0.0124725 0)
(1.51532 -0.012327 0)
(1.51668 -0.0121559 0)
(1.51801 -0.0119593 0)
(1.51933 -0.0117374 0)
(1.52061 -0.0114904 0)
(1.52188 -0.0112185 0)
(1.52311 -0.0109219 0)
(1.5243 -0.0106009 0)
(1.52547 -0.0102556 0)
(1.52659 -0.009886 0)
(1.52768 -0.00949212 0)
(1.52872 -0.00907381 0)
(1.52972 -0.00863067 0)
(1.53068 -0.00816221 0)
(1.53158 -0.0076675 0)
(1.53244 -0.00714555 0)
(1.53325 -0.00659479 0)
(1.534 -0.00601349 0)
(1.53469 -0.00539952 0)
(1.53533 -0.00474982 0)
(1.53592 -0.00406201 0)
(1.53643 -0.00333098 0)
(1.53689 -0.00255218 0)
(1.53728 -0.00172051 0)
(1.5376 -0.000829586 0)
(1.53785 0.000127821 0)
(1.53802 0.00115975 0)
(1.53811 0.00227548 0)
(1.53812 0.00348567 0)
(1.53804 0.00480235 0)
(1.53786 0.00623921 0)
(1.53759 0.00781181 0)
(1.53721 0.00953785 0)
(1.53672 0.0114375 0)
(1.53611 0.0135336 0)
(1.53537 0.0158525 0)
(1.53449 0.018424 0)
(1.53346 0.0212823 0)
(1.53228 0.0244666 0)
(1.53094 0.0280218 0)
(1.52942 0.0319998 0)
(1.52771 0.0364601 0)
(1.52581 0.0414715 0)
(1.52371 0.0471135 0)
(1.52141 0.0534782 0)
(1.5189 0.0606727 0)
(1.51619 0.0688211 0)
(1.5133 0.0780678 0)
(1.51025 0.0885809 0)
(1.50708 0.100556 0)
(1.50386 0.114221 0)
(1.50069 0.129839 0)
(1.49772 0.147715 0)
(1.49515 0.168201 0)
(1.49328 0.191693 0)
(1.49252 0.218635 0)
(1.49345 0.249509 0)
(1.49684 0.284805 0)
(1.50379 0.324985 0)
(1.51572 0.370369 0)
(1.53446 0.420988 0)
(1.56263 0.47651 0)
(1.60224 0.534747 0)
(1.65916 0.596232 0)
(1.7322 0.647926 0)
(1.82506 0.698247 0)
(1.47763 -0.000529259 0)
(1.47774 -0.00158265 0)
(1.478 -0.00261875 0)
(1.4784 -0.00362464 0)
(1.47892 -0.00459029 0)
(1.47954 -0.00550879 0)
(1.48027 -0.00637577 0)
(1.48109 -0.0071888 0)
(1.48198 -0.00794698 0)
(1.48295 -0.00865062 0)
(1.48398 -0.00930101 0)
(1.48507 -0.0099001 0)
(1.48621 -0.0104502 0)
(1.48739 -0.0109539 0)
(1.48861 -0.0114137 0)
(1.48986 -0.011832 0)
(1.49114 -0.0122111 0)
(1.49246 -0.0125533 0)
(1.49379 -0.0128603 0)
(1.49515 -0.0131338 0)
(1.49653 -0.0133752 0)
(1.49792 -0.0135856 0)
(1.49933 -0.013766 0)
(1.50075 -0.013917 0)
(1.50218 -0.0140392 0)
(1.50361 -0.014133 0)
(1.50506 -0.0141985 0)
(1.5065 -0.0142359 0)
(1.50795 -0.014245 0)
(1.5094 -0.0142259 0)
(1.51084 -0.0141784 0)
(1.51227 -0.0141025 0)
(1.5137 -0.0139981 0)
(1.51511 -0.0138653 0)
(1.51651 -0.013704 0)
(1.5179 -0.0135144 0)
(1.51926 -0.0132966 0)
(1.5206 -0.0130509 0)
(1.52192 -0.0127774 0)
(1.52321 -0.0124765 0)
(1.52446 -0.0121484 0)
(1.52569 -0.0117933 0)
(1.52688 -0.0114117 0)
(1.52803 -0.0110035 0)
(1.52914 -0.0105691 0)
(1.53022 -0.010108 0)
(1.53124 -0.00962037 0)
(1.53223 -0.00910535 0)
(1.53316 -0.00856268 0)
(1.53405 -0.00799066 0)
(1.53489 -0.00738873 0)
(1.53567 -0.00675402 0)
(1.53641 -0.00608561 0)
(1.53709 -0.00537931 0)
(1.53771 -0.0046333 0)
(1.53828 -0.00384166 0)
(1.53878 -0.00300045 0)
(1.53923 -0.00210402 0)
(1.53962 -0.00114579 0)
(1.53994 -0.000118381 0)
(1.54019 0.000986639 0)
(1.54037 0.00217894 0)
(1.54048 0.00346944 0)
(1.54052 0.00487054 0)
(1.54047 0.00639635 0)
(1.54035 0.00806284 0)
(1.54013 0.00988813 0)
(1.53983 0.0118928 0)
(1.53943 0.0141001 0)
(1.53893 0.0165367 0)
(1.53832 0.0192327 0)
(1.53761 0.0222223 0)
(1.53678 0.0255448 0)
(1.53583 0.0292447 0)
(1.53476 0.0333731 0)
(1.53358 0.0379882 0)
(1.53227 0.0431569 0)
(1.53084 0.0489558 0)
(1.52931 0.0554727 0)
(1.52769 0.0628084 0)
(1.52599 0.0710785 0)
(1.52426 0.0804158 0)
(1.52254 0.0909719 0)
(1.52091 0.10292 0)
(1.51945 0.116458 0)
(1.5183 0.131809 0)
(1.51764 0.149222 0)
(1.51772 0.168973 0)
(1.51884 0.191359 0)
(1.52146 0.21669 0)
(1.52612 0.245271 0)
(1.53359 0.277368 0)
(1.5448 0.313155 0)
(1.56098 0.352639 0)
(1.58356 0.395486 0)
(1.61441 0.441059 0)
(1.65512 0.487427 0)
(1.70806 0.533181 0)
(1.77422 0.572175 0)
(1.85097 0.601334 0)
(1.47763 -0.000600395 0)
(1.47775 -0.00179479 0)
(1.47804 -0.00296731 0)
(1.47848 -0.00410174 0)
(1.47905 -0.00518581 0)
(1.47973 -0.00621161 0)
(1.48051 -0.00717469 0)
(1.48139 -0.00807314 0)
(1.48235 -0.00890688 0)
(1.48338 -0.00967715 0)
(1.48447 -0.0103862 0)
(1.48561 -0.0110368 0)
(1.4868 -0.0116324 0)
(1.48803 -0.0121763 0)
(1.48929 -0.0126716 0)
(1.49059 -0.0131214 0)
(1.49192 -0.0135286 0)
(1.49327 -0.0138956 0)
(1.49464 -0.0142246 0)
(1.49604 -0.0145176 0)
(1.49745 -0.0147761 0)
(1.49887 -0.0150015 0)
(1.50031 -0.0151947 0)
(1.50176 -0.0153564 0)
(1.50322 -0.0154873 0)
(1.50469 -0.0155877 0)
(1.50616 -0.0156576 0)
(1.50764 -0.0156972 0)
(1.50912 -0.0157063 0)
(1.5106 -0.0156847 0)
(1.51207 -0.0156323 0)
(1.51353 -0.0155488 0)
(1.51499 -0.0154342 0)
(1.51644 -0.0152885 0)
(1.51787 -0.0151115 0)
(1.51928 -0.0149036 0)
(1.52068 -0.0146647 0)
(1.52205 -0.0143951 0)
(1.52339 -0.0140951 0)
(1.52471 -0.0137651 0)
(1.526 -0.0134054 0)
(1.52726 -0.0130164 0)
(1.52847 -0.0125984 0)
(1.52966 -0.0121518 0)
(1.5308 -0.0116768 0)
(1.5319 -0.0111735 0)
(1.53296 -0.0106417 0)
(1.53397 -0.0100812 0)
(1.53494 -0.00949133 0)
(1.53586 -0.00887109 0)
(1.53673 -0.00821925 0)
(1.53755 -0.00753405 0)
(1.53832 -0.00681318 0)
(1.53904 -0.00605434 0)
(1.53971 -0.00525336 0)
(1.54032 -0.0044061 0)
(1.54089 -0.00350794 0)
(1.54139 -0.00255307 0)
(1.54185 -0.00153484 0)
(1.54224 -0.000445719 0)
(1.54258 0.0007229 0)
(1.54285 0.00198086 0)
(1.54307 0.00333929 0)
(1.54322 0.00481078 0)
(1.54331 0.00640961 0)
(1.54334 0.00815191 0)
(1.54329 0.0100559 0)
(1.54318 0.0121423 0)
(1.543 0.0144344 0)
(1.54274 0.0169585 0)
(1.54241 0.0197446 0)
(1.54201 0.0228265 0)
(1.54153 0.0262424 0)
(1.54099 0.0300358 0)
(1.54038 0.0342561 0)
(1.53971 0.0389591 0)
(1.53898 0.0442084 0)
(1.53823 0.0500761 0)
(1.53745 0.0566441 0)
(1.53668 0.0640051 0)
(1.53597 0.0722641 0)
(1.53535 0.0815398 0)
(1.53489 0.0919652 0)
(1.53469 0.10369 0)
(1.53485 0.116878 0)
(1.53554 0.131712 0)
(1.53694 0.148387 0)
(1.53932 0.167109 0)
(1.54299 0.188085 0)
(1.54839 0.211513 0)
(1.55604 0.237558 0)
(1.5666 0.266318 0)
(1.58086 0.297775 0)
(1.59981 0.331735 0)
(1.62453 0.367697 0)
(1.65625 0.404825 0)
(1.69606 0.441543 0)
(1.74481 0.475938 0)
(1.80296 0.504679 0)
(1.86912 0.524951 0)
(1.47763 -0.000679783 0)
(1.47777 -0.00203052 0)
(1.47809 -0.00335349 0)
(1.47858 -0.00462757 0)
(1.47921 -0.00583852 0)
(1.47996 -0.00697638 0)
(1.48082 -0.00803824 0)
(1.48177 -0.00902292 0)
(1.48279 -0.0099315 0)
(1.48389 -0.0107665 0)
(1.48505 -0.0115316 0)
(1.48625 -0.0122309 0)
(1.4875 -0.0128687 0)
(1.48878 -0.0134496 0)
(1.4901 -0.0139774 0)
(1.49145 -0.014456 0)
(1.49282 -0.0148886 0)
(1.49421 -0.0152782 0)
(1.49563 -0.0156273 0)
(1.49706 -0.0159381 0)
(1.49851 -0.0162123 0)
(1.49997 -0.0164513 0)
(1.50144 -0.0166563 0)
(1.50293 -0.016828 0)
(1.50442 -0.016967 0)
(1.50592 -0.0170734 0)
(1.50743 -0.0171475 0)
(1.50894 -0.0171891 0)
(1.51045 -0.017198 0)
(1.51196 -0.0171737 0)
(1.51346 -0.0171161 0)
(1.51496 -0.0170249 0)
(1.51645 -0.0168999 0)
(1.51793 -0.016741 0)
(1.5194 -0.0165481 0)
(1.52085 -0.0163214 0)
(1.52227 -0.016061 0)
(1.52368 -0.0157672 0)
(1.52506 -0.0154403 0)
(1.52641 -0.0150808 0)
(1.52773 -0.014689 0)
(1.52902 -0.0142656 0)
(1.53027 -0.0138109 0)
(1.53148 -0.0133257 0)
(1.53265 -0.01281 0)
(1.53379 -0.0122645 0)
(1.53488 -0.011689 0)
(1.53592 -0.0110836 0)
(1.53692 -0.0104474 0)
(1.53787 -0.00978034 0)
(1.53878 -0.00908027 0)
(1.53964 -0.00834672 0)
(1.54045 -0.00757623 0)
(1.54121 -0.00676782 0)
(1.54193 -0.00591616 0)
(1.54259 -0.00501797 0)
(1.54321 -0.00406837 0)
(1.54378 -0.0030615 0)
(1.5443 -0.00199067 0)
(1.54477 -0.000848302 0)
(1.54519 0.000374323 0)
(1.54556 0.00168697 0)
(1.54588 0.00310081 0)
(1.54616 0.00462853 0)
(1.54638 0.00628435 0)
(1.54656 0.0080843 0)
(1.54669 0.0100465 0)
(1.54677 0.0121913 0)
(1.5468 0.0145416 0)
(1.54679 0.0171234 0)
(1.54674 0.0199657 0)
(1.54665 0.0231013 0)
(1.54653 0.0265671 0)
(1.54638 0.0304046 0)
(1.54621 0.0346606 0)
(1.54605 0.0393877 0)
(1.5459 0.0446452 0)
(1.54578 0.0504995 0)
(1.54573 0.0570254 0)
(1.54579 0.0643064 0)
(1.546 0.0724356 0)
(1.54642 0.0815162 0)
(1.54713 0.091662 0)
(1.54824 0.102997 0)
(1.54987 0.115656 0)
(1.55218 0.129779 0)
(1.55539 0.145514 0)
(1.55973 0.163004 0)
(1.56553 0.182383 0)
(1.57317 0.203758 0)
(1.58313 0.227189 0)
(1.59595 0.25266 0)
(1.61231 0.280034 0)
(1.63293 0.309005 0)
(1.65861 0.339021 0)
(1.69011 0.369234 0)
(1.72812 0.398371 0)
(1.77296 0.424834 0)
(1.82454 0.446516 0)
(1.88196 0.461447 0)
(1.47764 -0.00076953 0)
(1.47779 -0.0022967 0)
(1.47816 -0.00378741 0)
(1.47871 -0.00521616 0)
(1.47942 -0.00656278 0)
(1.48025 -0.00781756 0)
(1.48119 -0.0089794 0)
(1.48223 -0.0100494 0)
(1.48334 -0.0110307 0)
(1.48451 -0.0119272 0)
(1.48574 -0.0127444 0)
(1.48702 -0.0134881 0)
(1.48833 -0.0141642 0)
(1.48968 -0.0147781 0)
(1.49105 -0.0153348 0)
(1.49245 -0.0158387 0)
(1.49387 -0.0162937 0)
(1.49531 -0.0167033 0)
(1.49676 -0.0170703 0)
(1.49824 -0.0173972 0)
(1.49972 -0.0176858 0)
(1.50122 -0.0179378 0)
(1.50273 -0.0181541 0)
(1.50425 -0.0183357 0)
(1.50578 -0.0184829 0)
(1.50732 -0.0185959 0)
(1.50886 -0.0186747 0)
(1.51041 -0.0187191 0)
(1.51195 -0.0187286 0)
(1.5135 -0.0187026 0)
(1.51504 -0.0186407 0)
(1.51658 -0.0185425 0)
(1.51811 -0.0184076 0)
(1.51962 -0.0182361 0)
(1.52113 -0.0180276 0)
(1.52261 -0.0177824 0)
(1.52408 -0.0175006 0)
(1.52552 -0.0171825 0)
(1.52693 -0.0168284 0)
(1.52832 -0.016439 0)
(1.52968 -0.0160149 0)
(1.531 -0.0155566 0)
(1.53229 -0.0150649 0)
(1.53353 -0.0145406 0)
(1.53474 -0.013984 0)
(1.5359 -0.0133962 0)
(1.53703 -0.012777 0)
(1.5381 -0.0121271 0)
(1.53914 -0.0114454 0)
(1.54013 -0.0107323 0)
(1.54107 -0.00998581 0)
(1.54196 -0.00920545 0)
(1.54281 -0.00838849 0)
(1.54362 -0.00753303 0)
(1.54438 -0.00663489 0)
(1.5451 -0.00569053 0)
(1.54577 -0.00469503 0)
(1.5464 -0.00364258 0)
(1.54699 -0.00252656 0)
(1.54753 -0.00133943 0)
(1.54804 -7.2576e-05 0)
(1.54851 0.00128372 0)
(1.54894 0.00274055 0)
(1.54933 0.00431041 0)
(1.54969 0.00600733 0)
(1.55002 0.00784702 0)
(1.55032 0.00984717 0)
(1.55059 0.0120276 0)
(1.55084 0.0144107 0)
(1.55107 0.0170212 0)
(1.55129 0.0198873 0)
(1.55151 0.0230401 0)
(1.55173 0.0265146 0)
(1.55197 0.0303498 0)
(1.55224 0.0345893 0)
(1.55256 0.0392818 0)
(1.55296 0.0444814 0)
(1.55346 0.0502483 0)
(1.5541 0.0566492 0)
(1.55492 0.0637578 0)
(1.55599 0.0716547 0)
(1.55737 0.0804276 0)
(1.55915 0.0901709 0)
(1.56143 0.100985 0)
(1.56436 0.112974 0)
(1.5681 0.126244 0)
(1.57284 0.140899 0)
(1.57883 0.157031 0)
(1.58635 0.174715 0)
(1.59576 0.19399 0)
(1.60746 0.214844 0)
(1.6219 0.237186 0)
(1.63962 0.260816 0)
(1.66114 0.285388 0)
(1.68703 0.310364 0)
(1.71777 0.334983 0)
(1.75373 0.358223 0)
(1.79498 0.37884 0)
(1.84124 0.395359 0)
(1.8916 0.406319 0)
(1.47764 -0.00087252 0)
(1.47782 -0.00260307 0)
(1.47824 -0.00428478 0)
(1.47888 -0.00588353 0)
(1.47969 -0.00737473 0)
(1.48063 -0.00875027 0)
(1.48167 -0.0100125 0)
(1.4828 -0.011166 0)
(1.48401 -0.0122162 0)
(1.48528 -0.0131694 0)
(1.48659 -0.0140335 0)
(1.48794 -0.0148164 0)
(1.48932 -0.0155256 0)
(1.49073 -0.0161677 0)
(1.49217 -0.0167487 0)
(1.49362 -0.0172739 0)
(1.49509 -0.0177477 0)
(1.49658 -0.018174 0)
(1.49808 -0.0185558 0)
(1.4996 -0.018896 0)
(1.50113 -0.0191965 0)
(1.50266 -0.019459 0)
(1.50421 -0.0196847 0)
(1.50577 -0.0198744 0)
(1.50734 -0.0200283 0)
(1.50891 -0.0201468 0)
(1.51049 -0.0202294 0)
(1.51207 -0.0202759 0)
(1.51366 -0.0202855 0)
(1.51525 -0.0202574 0)
(1.51683 -0.0201908 0)
(1.51841 -0.0200853 0)
(1.51997 -0.0199404 0)
(1.52153 -0.0197558 0)
(1.52308 -0.0195315 0)
(1.5246 -0.0192675 0)
(1.52611 -0.0189639 0)
(1.52759 -0.0186211 0)
(1.52905 -0.0182396 0)
(1.53047 -0.0178199 0)
(1.53187 -0.0173628 0)
(1.53323 -0.0168693 0)
(1.53455 -0.01634 0)
(1.53584 -0.0157763 0)
(1.53708 -0.0151786 0)
(1.53828 -0.0145483 0)
(1.53944 -0.0138856 0)
(1.54055 -0.0131915 0)
(1.54162 -0.0124653 0)
(1.54264 -0.0117071 0)
(1.54362 -0.0109157 0)
(1.54455 -0.0100904 0)
(1.54544 -0.00922941 0)
(1.54629 -0.00833029 0)
(1.5471 -0.00738971 0)
(1.54786 -0.00640406 0)
(1.54859 -0.00536842 0)
(1.54928 -0.00427697 0)
(1.54994 -0.00312318 0)
(1.55056 -0.00189972 0)
(1.55115 -0.000598234 0)
(1.55171 0.000790906 0)
(1.55225 0.0022785 0)
(1.55276 0.00387666 0)
(1.55326 0.005599 0)
(1.55373 0.00746075 0)
(1.5542 0.00947895 0)
(1.55466 0.0116727 0)
(1.55512 0.0140632 0)
(1.55559 0.0166745 0)
(1.55607 0.0195328 0)
(1.55659 0.0226675 0)
(1.55714 0.0261114 0)
(1.55775 0.0299003 0)
(1.55843 0.0340744 0)
(1.55922 0.0386777 0)
(1.56013 0.043759 0)
(1.5612 0.0493716 0)
(1.56248 0.0555741 0)
(1.56402 0.06243 0)
(1.56587 0.0700074 0)
(1.56812 0.078379 0)
(1.57085 0.0876209 0)
(1.57418 0.0978111 0)
(1.57824 0.109028 0)
(1.58319 0.121346 0)
(1.58923 0.134834 0)
(1.59656 0.149543 0)
(1.60546 0.165502 0)
(1.61623 0.182704 0)
(1.6292 0.201088 0)
(1.64475 0.220525 0)
(1.66328 0.240786 0)
(1.68517 0.261527 0)
(1.71082 0.282257 0)
(1.74051 0.302323 0)
(1.77441 0.320905 0)
(1.81245 0.337044 0)
(1.85428 0.349686 0)
(1.89912 0.357813 0)
(1.47765 -0.00099374 0)
(1.47787 -0.00296297 0)
(1.47836 -0.00486462 0)
(1.47911 -0.0066521 0)
(1.48005 -0.00829712 0)
(1.48111 -0.00979558 0)
(1.48228 -0.0111561 0)
(1.48353 -0.0123879 0)
(1.48485 -0.0135 0)
(1.48622 -0.014502 0)
(1.48762 -0.015405 0)
(1.48906 -0.0162195 0)
(1.49052 -0.0169553 0)
(1.492 -0.0176202 0)
(1.49349 -0.0182214 0)
(1.49501 -0.0187647 0)
(1.49653 -0.0192551 0)
(1.49807 -0.0196966 0)
(1.49962 -0.0200928 0)
(1.50118 -0.0204463 0)
(1.50275 -0.0207594 0)
(1.50433 -0.0210336 0)
(1.50592 -0.0212701 0)
(1.50752 -0.0214696 0)
(1.50913 -0.0216323 0)
(1.51074 -0.021758 0)
(1.51236 -0.0218465 0)
(1.51399 -0.021897 0)
(1.51561 -0.0219085 0)
(1.51724 -0.0218796 0)
(1.51887 -0.0218095 0)
(1.52049 -0.0216974 0)
(1.5221 -0.0215428 0)
(1.52371 -0.0213455 0)
(1.5253 -0.0211052 0)
(1.52687 -0.020822 0)
(1.52842 -0.020496 0)
(1.52995 -0.0201277 0)
(1.53145 -0.0197176 0)
(1.53291 -0.0192664 0)
(1.53435 -0.0187751 0)
(1.53575 -0.0182448 0)
(1.53712 -0.0176764 0)
(1.53844 -0.0170715 0)
(1.53972 -0.0164312 0)
(1.54096 -0.0157572 0)
(1.54215 -0.0150503 0)
(1.5433 -0.0143118 0)
(1.5444 -0.013541 0)
(1.54546 -0.0127383 0)
(1.54648 -0.0119027 0)
(1.54745 -0.0110339 0)
(1.54838 -0.0101304 0)
(1.54927 -0.0091901 0)
(1.55012 -0.00821027 0)
(1.55093 -0.00718756 0)
(1.55172 -0.00611706 0)
(1.55247 -0.00499288 0)
(1.55319 -0.00380857 0)
(1.55389 -0.00255702 0)
(1.55456 -0.0012301 0)
(1.55521 0.000181474 0)
(1.55585 0.0016881 0)
(1.55648 0.00330146 0)
(1.55711 0.00503463 0)
(1.55773 0.00690213 0)
(1.55835 0.00892015 0)
(1.559 0.0111068 0)
(1.55966 0.0134823 0)
(1.56035 0.0160688 0)
(1.56109 0.0188912 0)
(1.56189 0.0219765 0)
(1.56276 0.0253548 0)
(1.56372 0.0290589 0)
(1.56479 0.0331246 0)
(1.56601 0.0375914 0)
(1.5674 0.0425022 0)
(1.56901 0.0479034 0)
(1.57087 0.0538452 0)
(1.57305 0.0603813 0)
(1.57562 0.0675682 0)
(1.57864 0.0754643 0)
(1.58221 0.0841284 0)
(1.58645 0.0936183 0)
(1.59147 0.103989 0)
(1.59744 0.11529 0)
(1.60454 0.127561 0)
(1.61296 0.140823 0)
(1.62293 0.155071 0)
(1.63471 0.170268 0)
(1.64859 0.186325 0)
(1.66486 0.203094 0)
(1.68381 0.220346 0)
(1.70573 0.237756 0)
(1.73087 0.254894 0)
(1.75939 0.271215 0)
(1.79133 0.286069 0)
(1.82656 0.298725 0)
(1.86472 0.308429 0)
(1.90519 0.31448 0)
(1.47766 -0.00114025 0)
(1.47792 -0.00339747 0)
(1.47853 -0.00555609 0)
(1.47943 -0.00755173 0)
(1.48053 -0.00935612 0)
(1.48175 -0.0109765 0)
(1.48307 -0.0124312 0)
(1.48446 -0.0137351 0)
(1.4859 -0.0149004 0)
(1.48738 -0.0159414 0)
(1.48889 -0.0168731 0)
(1.49042 -0.0177091 0)
(1.49196 -0.0184612 0)
(1.49351 -0.019139 0)
(1.49507 -0.0197506 0)
(1.49665 -0.0203025 0)
(1.49823 -0.0208006 0)
(1.49982 -0.0212492 0)
(1.50142 -0.0216522 0)
(1.50302 -0.0220124 0)
(1.50464 -0.0223322 0)
(1.50626 -0.022613 0)
(1.5079 -0.0228561 0)
(1.50954 -0.0230621 0)
(1.51119 -0.023231 0)
(1.51284 -0.0233626 0)
(1.51451 -0.0234565 0)
(1.51618 -0.0235115 0)
(1.51785 -0.0235257 0)
(1.51952 -0.0234974 0)
(1.5212 -0.023425 0)
(1.52287 -0.0233076 0)
(1.52453 -0.0231446 0)
(1.52618 -0.0229357 0)
(1.52782 -0.0226804 0)
(1.52945 -0.0223791 0)
(1.53105 -0.0220316 0)
(1.53262 -0.0216386 0)
(1.53417 -0.0212003 0)
(1.53569 -0.0207182 0)
(1.53717 -0.0201929 0)
(1.53862 -0.0196262 0)
(1.54003 -0.0190186 0)
(1.54139 -0.0183725 0)
(1.54271 -0.0176888 0)
(1.54399 -0.0169706 0)
(1.54522 -0.0162189 0)
(1.5464 -0.015436 0)
(1.54755 -0.0146209 0)
(1.54864 -0.0137748 0)
(1.5497 -0.0128965 0)
(1.55071 -0.0119863 0)
(1.55168 -0.0110428 0)
(1.55261 -0.0100651 0)
(1.5535 -0.00905042 0)
(1.55436 -0.00799544 0)
(1.5552 -0.00689512 0)
(1.55601 -0.00574395 0)
(1.55679 -0.00453609 0)
(1.55756 -0.00326477 0)
(1.55832 -0.00192204 0)
(1.55906 -0.000498923 0)
(1.5598 0.00101453 0)
(1.56054 0.00262945 0)
(1.56129 0.00435818 0)
(1.56205 0.00621428 0)
(1.56283 0.00821293 0)
(1.56364 0.0103712 0)
(1.5645 0.0127081 0)
(1.56541 0.0152443 0)
(1.56639 0.0180027 0)
(1.56745 0.021008 0)
(1.56861 0.0242873 0)
(1.5699 0.0278699 0)
(1.57134 0.0317878 0)
(1.57295 0.0360753 0)
(1.57478 0.0407695 0)
(1.57687 0.0459101 0)
(1.57927 0.0515392 0)
(1.58203 0.0577011 0)
(1.58522 0.0644415 0)
(1.58891 0.0718063 0)
(1.59321 0.0798394 0)
(1.59822 0.0885803 0)
(1.60405 0.0980639 0)
(1.61086 0.108319 0)
(1.6188 0.119361 0)
(1.62807 0.13119 0)
(1.63885 0.143779 0)
(1.65137 0.15707 0)
(1.66585 0.170965 0)
(1.68253 0.185313 0)
(1.70162 0.199895 0)
(1.72333 0.214421 0)
(1.74781 0.228521 0)
(1.77514 0.241747 0)
(1.80529 0.253589 0)
(1.83809 0.263498 0)
(1.87322 0.270925 0)
(1.91016 0.275377 0)
(1.47767 -0.00132318 0)
(1.47801 -0.00393949 0)
(1.47878 -0.00640421 0)
(1.47989 -0.00862681 0)
(1.48119 -0.0105879 0)
(1.48261 -0.0123183 0)
(1.4841 -0.013853 0)
(1.48565 -0.0152145 0)
(1.48724 -0.0164201 0)
(1.48885 -0.0174896 0)
(1.49047 -0.0184427 0)
(1.4921 -0.0192965 0)
(1.49373 -0.0200644 0)
(1.49536 -0.0207572 0)
(1.49699 -0.0213826 0)
(1.49863 -0.0219477 0)
(1.50027 -0.0224582 0)
(1.50192 -0.0229189 0)
(1.50357 -0.0233335 0)
(1.50523 -0.023705 0)
(1.50689 -0.0240354 0)
(1.50856 -0.0243264 0)
(1.51024 -0.0245789 0)
(1.51192 -0.0247932 0)
(1.51362 -0.0249693 0)
(1.51532 -0.0251069 0)
(1.51703 -0.0252057 0)
(1.51874 -0.0252644 0)
(1.52047 -0.0252805 0)
(1.5222 -0.0252513 0)
(1.52392 -0.025175 0)
(1.52565 -0.0250504 0)
(1.52737 -0.0248767 0)
(1.52907 -0.0246538 0)
(1.53077 -0.0243809 0)
(1.53245 -0.0240588 0)
(1.5341 -0.0236867 0)
(1.53573 -0.0232656 0)
(1.53734 -0.0227953 0)
(1.53891 -0.0222785 0)
(1.54044 -0.0217156 0)
(1.54194 -0.0211095 0)
(1.5434 -0.0204595 0)
(1.54481 -0.0197697 0)
(1.54618 -0.0190401 0)
(1.5475 -0.0182762 0)
(1.54877 -0.0174783 0)
(1.54999 -0.0166496 0)
(1.55117 -0.0157877 0)
(1.55231 -0.0148964 0)
(1.5534 -0.0139732 0)
(1.55445 -0.0130206 0)
(1.55546 -0.0120353 0)
(1.55643 -0.0110214 0)
(1.55736 -0.00997636 0)
(1.55827 -0.0088952 0)
(1.55916 -0.00777047 0)
(1.56002 -0.00659691 0)
(1.56087 -0.00537019 0)
(1.56171 -0.0040846 0)
(1.56254 -0.00273253 0)
(1.56337 -0.00130539 0)
(1.5642 0.000206241 0)
(1.56505 0.00181318 0)
(1.56591 0.00352688 0)
(1.5668 0.00535948 0)
(1.56773 0.00732483 0)
(1.56871 0.00943872 0)
(1.56974 0.0117187 0)
(1.57085 0.0141842 0)
(1.57205 0.0168559 0)
(1.57336 0.0197561 0)
(1.57479 0.0229088 0)
(1.57638 0.0263396 0)
(1.57815 0.0300761 0)
(1.58012 0.0341477 0)
(1.58235 0.0385857 0)
(1.58487 0.0434229 0)
(1.58773 0.0486942 0)
(1.591 0.0544352 0)
(1.59473 0.0606818 0)
(1.59901 0.0674684 0)
(1.60393 0.0748242 0)
(1.60957 0.0827733 0)