/*--------------------------------*- C++ -*----------------------------------*\
| =========                 |                                                 |
| \\      /  F ield         | OpenFOAM: The Open Source CFD Toolbox           |
|  \\    /   O peration     | Version:  2206                                  |
|   \\  /    A nd           | Website:  www.openfoam.com                      |
|    \\/     M anipulation  |                                                 |
\*---------------------------------------------------------------------------*/
FoamFile
{
    version     2.0;
    format      ascii;
    arch        "LSB;label=32;scalar=64";
    class       surfaceScalarField;
    location    "18.2001";
    object      phi;
}
// * * * * * * * * * * * * * * * * * * * * * * * * * * * * * * * * * * * * * //

dimensions      [0 3 -1 0 0 0 0];

oriented        oriented;

internalField   nonuniform List<scalar> 
3505
(
4.43322e-06
1.4076e-09
-1.82359e-09
4.43447e-06
4.23058e-09
-5.48229e-09
4.43651e-06
6.95645e-09
-8.99887e-09
4.43927e-06
9.51162e-09
-1.22667e-08
4.44264e-06
1.18502e-08
-1.52262e-08
4.44655e-06
1.3957e-08
-1.78671e-08
4.45092e-06
1.58357e-08
-2.02047e-08
4.45568e-06
1.74985e-08
-2.22606e-08
4.46078e-06
1.89603e-08
-2.40575e-08
4.46616e-06
2.02388e-08
-2.56213e-08
4.47179e-06
2.13538e-08
-2.69798e-08
4.47762e-06
2.23252e-08
-2.81605e-08
4.48364e-06
2.3172e-08
-2.9188e-08
4.48981e-06
2.39106e-08
-3.00839e-08
4.49612e-06
2.45556e-08
-3.08666e-08
4.50256e-06
2.51191e-08
-3.1551e-08
4.50909e-06
2.56114e-08
-3.21497e-08
4.51573e-06
2.60409e-08
-3.26727e-08
4.52244e-06
2.64146e-08
-3.31286e-08
4.52923e-06
2.67381e-08
-3.3524e-08
4.53607e-06
2.70159e-08
-3.38642e-08
4.54298e-06
2.72515e-08
-3.41533e-08
4.54992e-06
2.74475e-08
-3.43943e-08
4.55691e-06
2.76058e-08
-3.45893e-08
4.56392e-06
2.77277e-08
-3.47397e-08
4.57095e-06
2.78139e-08
-3.48462e-08
4.57799e-06
2.78648e-08
-3.49091e-08
4.58504e-06
2.78805e-08
-3.49283e-08
4.59209e-06
2.78608e-08
-3.49037e-08
4.59911e-06
2.78053e-08
-3.48346e-08
4.60612e-06
2.77136e-08
-3.47204e-08
4.6131e-06
2.75852e-08
-3.456e-08
4.62003e-06
2.74197e-08
-3.43526e-08
4.62691e-06
2.72166e-08
-3.40977e-08
4.63373e-06
2.69762e-08
-3.37955e-08
4.64048e-06
2.6699e-08
-3.34466e-08
4.64714e-06
2.63856e-08
-3.30519e-08
4.65372e-06
2.60369e-08
-3.26126e-08
4.66019e-06
2.56545e-08
-3.21304e-08
4.66656e-06
2.52396e-08
-3.16071e-08
4.67281e-06
2.47942e-08
-3.10451e-08
4.67894e-06
2.43201e-08
-3.04468e-08
4.68494e-06
2.38198e-08
-2.98151e-08
4.69079e-06
2.32952e-08
-2.9153e-08
4.69651e-06
2.27489e-08
-2.84634e-08
4.70207e-06
2.21828e-08
-2.77489e-08
4.70749e-06
2.15997e-08
-2.70126e-08
4.71274e-06
2.10015e-08
-2.62575e-08
4.71784e-06
2.03907e-08
-2.54866e-08
4.72277e-06
1.97692e-08
-2.47026e-08
4.72754e-06
1.91389e-08
-2.39082e-08
4.73215e-06
1.85005e-08
-2.31046e-08
4.73658e-06
1.78549e-08
-2.22923e-08
4.74085e-06
1.72011e-08
-2.14708e-08
4.74495e-06
1.65389e-08
-2.06388e-08
4.74888e-06
1.58657e-08
-1.97946e-08
4.75264e-06
1.51804e-08
-1.89351e-08
4.75621e-06
1.44783e-08
-1.80567e-08
4.75961e-06
1.37568e-08
-1.71536e-08
4.76282e-06
1.30085e-08
-1.622e-08
4.76584e-06
1.22286e-08
-1.52468e-08
4.76866e-06
1.14072e-08
-1.42248e-08
4.77126e-06
1.05358e-08
-1.3141e-08
4.77364e-06
9.60094e-09
-1.19819e-08
4.77578e-06
8.59061e-09
-1.073e-08
4.77767e-06
7.48498e-09
-9.3667e-09
4.77926e-06
6.27145e-09
-7.86874e-09
4.78056e-06
4.92126e-09
-6.21478e-09
4.7815e-06
3.42752e-09
-4.37226e-09
4.78206e-06
1.74321e-09
-2.30155e-09
4.78219e-06
-1.63673e-10
3.69793e-11
4.78182e-06
-2.33571e-09
2.69786e-09
4.78091e-06
-4.822e-09
5.73642e-09
4.77937e-06
-7.68097e-09
9.22249e-09
4.77711e-06
-1.09813e-08
1.32376e-08
4.77404e-06
-1.48055e-08
1.78798e-08
4.77002e-06
-1.92536e-08
2.32664e-08
4.76493e-06
-2.44461e-08
2.95388e-08
4.75859e-06
-3.05288e-08
3.68672e-08
4.75082e-06
-3.76794e-08
4.54575e-08
4.74137e-06
-4.6115e-08
5.55607e-08
4.72999e-06
-5.61026e-08
6.74836e-08
4.71636e-06
-6.79725e-08
8.1604e-08
4.7001e-06
-8.21352e-08
9.83885e-08
4.68079e-06
-9.91039e-08
1.18417e-07
4.6579e-06
-1.19523e-07
1.42413e-07
4.63082e-06
-1.4421e-07
1.71287e-07
4.59884e-06
-1.74202e-07
2.06188e-07
4.56109e-06
-2.10831e-07
2.48581e-07
4.51656e-06
-2.55818e-07
3.00343e-07
4.46406e-06
-3.11401e-07
3.63907e-07
4.40212e-06
-3.80515e-07
4.42449e-07
4.32901e-06
-4.67035e-07
5.40147e-07
4.24252e-06
-5.76144e-07
6.62636e-07
4.13984e-06
-7.14776e-07
8.17454e-07
4.01669e-06
-8.92574e-07
1.01573e-06
3.86706e-06
-1.12218e-06
1.2718e-06
3.67568e-06
-1.42323e-06
1.61461e-06
3.42096e-06
-1.81585e-06
2.07057e-06
2.98065e-06
-2.34955e-06
2.78987e-06
2.21537e-06
-2.99515e-06
3.76044e-06
-4.26486e-06
6.48023e-06
4.43318e-06
1.02818e-09
4.43432e-06
3.08969e-09
4.43619e-06
5.08647e-09
4.43873e-06
6.96903e-09
4.44188e-06
8.70456e-09
4.44556e-06
1.0279e-08
4.4497e-06
1.16913e-08
4.45425e-06
1.29473e-08
4.45916e-06
1.40564e-08
4.46436e-06
1.50301e-08
4.46984e-06
1.58819e-08
4.47554e-06
1.66256e-08
4.48143e-06
1.72746e-08
4.4875e-06
1.78411e-08
4.49372e-06
1.83357e-08
4.50007e-06
1.87676e-08
4.50654e-06
1.91446e-08
4.51311e-06
1.94732e-08
4.51976e-06
1.97588e-08
4.5265e-06
2.00058e-08
4.5333e-06
2.02176e-08
4.54015e-06
2.0397e-08
4.54705e-06
2.05461e-08
4.55399e-06
2.06664e-08
4.56096e-06
2.0759e-08
4.56795e-06
2.08245e-08
4.57495e-06
2.08633e-08
4.58196e-06
2.08756e-08
4.58895e-06
2.0861e-08
4.59594e-06
2.08196e-08
4.6029e-06
2.07512e-08
4.60983e-06
2.06554e-08
4.61672e-06
2.05318e-08
4.62356e-06
2.03805e-08
4.63033e-06
2.02014e-08
4.63704e-06
1.9995e-08
4.64366e-06
1.97618e-08
4.65019e-06
1.95025e-08
4.65663e-06
1.92181e-08
4.66296e-06
1.89098e-08
4.66918e-06
1.85789e-08
4.67527e-06
1.82268e-08
4.68123e-06
1.78553e-08
4.68706e-06
1.74658e-08
4.69275e-06
1.70603e-08
4.69829e-06
1.66403e-08
4.70369e-06
1.62077e-08
4.70892e-06
1.57641e-08
4.714e-06
1.53111e-08
4.71892e-06
1.48503e-08
4.72368e-06
1.43828e-08
4.72827e-06
1.39093e-08
4.73269e-06
1.34302e-08
4.73695e-06
1.29453e-08
4.74103e-06
1.24539e-08
4.74495e-06
1.19546e-08
4.74868e-06
1.14461e-08
4.75223e-06
1.09253e-08
4.7556e-06
1.03898e-08
4.75877e-06
9.83434e-09
4.76175e-06
9.25555e-09
4.76451e-06
8.645e-09
4.76705e-06
7.99792e-09
4.76935e-06
7.3021e-09
4.77139e-06
6.55028e-09
4.77315e-06
5.72477e-09
4.7746e-06
4.81686e-09
4.77572e-06
3.80106e-09
4.77647e-06
2.67857e-09
4.77679e-06
1.42215e-09
4.77664e-06
-1.03592e-11
4.77595e-06
-1.64337e-09
4.77464e-06
-3.51631e-09
4.77263e-06
-5.67559e-09
4.76983e-06
-8.17402e-09
4.7661e-06
-1.10757e-08
4.7613e-06
-1.44587e-08
4.75527e-06
-1.84179e-08
4.74781e-06
-2.30684e-08
4.73868e-06
-2.85505e-08
4.72761e-06
-3.5037e-08
4.71425e-06
-4.27408e-08
4.6982e-06
-5.19267e-08
4.67899e-06
-6.29251e-08
4.65604e-06
-7.61509e-08
4.62864e-06
-9.21283e-08
4.59595e-06
-1.11524e-07
4.55694e-06
-1.35189e-07
4.51033e-06
-1.64221e-07
4.45456e-06
-2.00043e-07
4.38766e-06
-2.44506e-07
4.30718e-06
-3.00036e-07
4.20996e-06
-3.69816e-07
4.09186e-06
-4.5804e-07
3.94729e-06
-5.70204e-07
3.7682e-06
-7.13483e-07
3.54293e-06
-8.96912e-07
3.25167e-06
-1.13196e-06
2.86715e-06
-1.43133e-06
2.32558e-06
-1.80798e-06
1.60467e-06
-2.27424e-06
-2.66019e-06
4.43316e-06
6.73184e-10
4.43422e-06
2.02269e-09
4.43598e-06
3.33241e-09
4.43837e-06
4.57177e-09
4.44136e-06
5.71974e-09
4.44487e-06
6.76611e-09
4.44885e-06
7.70861e-09
4.45325e-06
8.5497e-09
4.45801e-06
9.29461e-09
4.46309e-06
9.95039e-09
4.46845e-06
1.05253e-08
4.47405e-06
1.1028e-08
4.47985e-06
1.14672e-08
4.48584e-06
1.18506e-08
4.492e-06
1.21855e-08
4.49828e-06
1.24778e-08
4.5047e-06
1.27329e-08
4.51121e-06
1.29551e-08
4.51783e-06
1.31481e-08
4.52452e-06
1.33149e-08
4.53128e-06
1.34579e-08
4.53809e-06
1.3579e-08
4.54496e-06
1.36796e-08
4.55187e-06
1.37608e-08
4.5588e-06
1.38233e-08
4.56576e-06
1.38677e-08
4.57273e-06
1.38942e-08
4.5797e-06
1.39031e-08
4.58667e-06
1.38937e-08
4.59362e-06
1.38667e-08
4.60055e-06
1.38217e-08
4.60745e-06
1.37586e-08
4.6143e-06
1.3677e-08
4.6211e-06
1.35772e-08
4.62785e-06
1.3459e-08
4.63452e-06
1.33229e-08
4.64111e-06
1.31689e-08
4.64762e-06
1.29981e-08
4.65402e-06
1.28105e-08
4.66033e-06
1.26074e-08
4.66652e-06
1.23893e-08
4.67259e-06
1.21576e-08
4.67853e-06
1.19129e-08
4.68434e-06
1.16569e-08
4.69001e-06
1.13902e-08
4.69553e-06
1.11145e-08
4.70091e-06
1.08305e-08
4.70613e-06
1.05399e-08
4.7112e-06
1.02431e-08
4.71611e-06
9.94178e-09
4.72086e-06
9.63598e-09
4.72544e-06
9.32725e-09
4.72986e-06
9.01459e-09
4.7341e-06
8.69939e-09
4.73818e-06
8.37965e-09
4.74207e-06
8.05634e-09
4.74579e-06
7.72664e-09
4.74933e-06
7.3906e-09
4.75267e-06
7.04476e-09
4.75582e-06
6.68759e-09
4.75876e-06
6.31517e-09
4.76148e-06
5.92379e-09
4.76397e-06
5.50862e-09
4.76621e-06
5.06378e-09
4.76818e-06
4.58205e-09
4.76985e-06
4.05527e-09
4.77119e-06
3.47095e-09
4.77218e-06
2.81803e-09
4.77278e-06
2.07721e-09
4.77292e-06
1.28042e-09
4.77255e-06
3.56179e-10
4.77161e-06
-6.97597e-10
4.77e-06
-1.91037e-09
4.76764e-06
-3.31391e-09
4.76441e-06
-4.94278e-09
4.76017e-06
-6.83991e-09
4.75477e-06
-9.05856e-09
4.74802e-06
-1.16636e-08
4.73968e-06
-1.47337e-08
4.7295e-06
-1.83655e-08
4.71714e-06
-2.26778e-08
4.70222e-06
-2.78183e-08
4.68426e-06
-3.39707e-08
4.6627e-06
-4.13653e-08
4.63684e-06
-5.02925e-08
4.60583e-06
-6.11205e-08
4.56863e-06
-7.43189e-08
4.52393e-06
-9.04903e-08
4.47012e-06
-1.10412e-07
4.40517e-06
-1.35094e-07
4.32652e-06
-1.6585e-07
4.23087e-06
-2.04393e-07
4.11402e-06
-2.52959e-07
3.97042e-06
-3.14444e-07
3.79277e-06
-3.92549e-07
3.57115e-06
-4.9187e-07
3.29206e-06
-6.17813e-07
2.93613e-06
-7.76035e-07
2.4754e-06
-9.70598e-07
1.86581e-06
-1.1984e-06
1.03759e-06
-1.44602e-06
-1.6226e-06
4.43314e-06
4.43416e-06
4.43584e-06
4.43815e-06
4.44103e-06
2.8367e-09
4.44444e-06
3.35897e-09
4.44832e-06
3.83051e-09
4.45262e-06
4.25214e-09
4.45728e-06
4.6262e-09
4.46228e-06
4.95598e-09
4.46756e-06
5.24543e-09
4.47309e-06
5.49875e-09
4.47884e-06
5.72015e-09
4.48477e-06
5.91352e-09
4.49088e-06
6.08236e-09
4.49712e-06
6.22976e-09
4.5035e-06
6.35835e-09
4.50998e-06
6.47036e-09
4.51656e-06
6.56766e-09
4.52323e-06
6.65178e-09
4.52996e-06
6.72393e-09
4.53675e-06
6.78511e-09
4.5436e-06
6.83604e-09
4.55048e-06
6.87728e-09
4.5574e-06
6.90923e-09
4.56433e-06
6.93217e-09
4.57128e-06
6.94616e-09
4.57823e-06
6.95162e-09
4.58518e-06
6.94754e-09
4.59211e-06
6.93522e-09
4.59902e-06
6.91356e-09
4.60589e-06
6.8833e-09
4.61273e-06
6.84378e-09
4.61951e-06
6.79537e-09
4.62623e-06
6.73773e-09
4.63288e-06
6.67152e-09
4.63945e-06
6.59631e-09
4.64594e-06
6.51316e-09
4.65233e-06
6.4215e-09
4.65861e-06
6.32278e-09
4.66478e-06
6.21638e-09
4.67084e-06
6.10399e-09
4.67676e-06
5.98502e-09
4.68256e-06
5.86123e-09
4.68822e-06
5.73217e-09
4.69373e-06
5.59951e-09
4.6991e-06
5.46291e-09
4.70432e-06
5.32402e-09
4.70938e-06
5.18233e-09
4.71428e-06
5.03974e-09
4.71902e-06
4.89504e-09
4.7236e-06
4.75076e-09
4.72801e-06
4.60443e-09
4.73225e-06
4.45938e-09
4.73632e-06
4.31184e-09
4.74021e-06
4.16561e-09
4.74392e-06
4.01614e-09
4.74744e-06
3.86687e-09
4.75077e-06
3.71327e-09
4.7539e-06
3.55737e-09
4.75682e-06
3.39548e-09
4.75952e-06
3.22727e-09
4.76198e-06
3.05008e-09
4.76418e-06
2.86159e-09
4.7661e-06
2.65804e-09
4.76772e-06
2.43856e-09
4.769e-06
2.19149e-09
4.76989e-06
1.9258e-09
4.77038e-06
1.59152e-09
4.7704e-06
1.25296e-09
4.7699e-06
8.62542e-10
4.76879e-06
4.15241e-10
4.76698e-06
-1.06241e-10
4.76438e-06
-7.15777e-10
4.76087e-06
-1.42883e-09
4.75629e-06
-2.26569e-09
4.75049e-06
-3.25226e-09
4.74325e-06
-4.42024e-09
4.73432e-06
-5.80836e-09
4.72342e-06
-7.46421e-09
4.71019e-06
-9.44681e-09
4.6942e-06
-1.18296e-08
4.67493e-06
-1.47047e-08
4.65176e-06
-1.8188e-08
4.62389e-06
-2.24262e-08
4.59037e-06
-2.76062e-08
4.55002e-06
-3.39674e-08
4.50135e-06
-4.18176e-08
4.44249e-06
-5.15556e-08
4.3711e-06
-6.36994e-08
4.28417e-06
-7.89236e-08
4.17789e-06
-9.81069e-08
4.04732e-06
-1.22389e-07
3.8861e-06
-1.53232e-07
3.68603e-06
-1.92473e-07
3.43649e-06
-2.42329e-07
3.12395e-06
-3.05278e-07
2.73154e-06
-3.83624e-07
2.23935e-06
-4.78406e-07
1.62765e-06
-5.86701e-07
8.80284e-07
-6.98656e-07
-7.42319e-07
4.44088e-06
4.44423e-06
4.44806e-06
4.45231e-06
4.45693e-06
4.46188e-06
4.46712e-06
4.47262e-06
4.47834e-06
4.48425e-06
4.49033e-06
4.49655e-06
4.50291e-06
4.50938e-06
4.51594e-06
4.52259e-06
4.52931e-06
4.53609e-06
4.54293e-06
4.5498e-06
4.5567e-06
4.56363e-06
4.57056e-06
4.5775e-06
4.58444e-06
4.59136e-06
4.59826e-06
4.60512e-06
4.61195e-06
4.61872e-06
4.62543e-06
4.63207e-06
4.63863e-06
4.64511e-06
4.65149e-06
4.65776e-06
4.66393e-06
4.66997e-06
4.6759e-06
4.68169e-06
4.68734e-06
4.69285e-06
4.69821e-06
4.70342e-06
4.70848e-06
4.71338e-06
4.71812e-06
4.7227e-06
4.7271e-06
4.73134e-06
4.73541e-06
4.7393e-06
4.74301e-06
4.74653e-06
4.74985e-06
4.75298e-06
4.75589e-06
4.75858e-06
4.76102e-06
4.76321e-06
4.76512e-06
4.76672e-06
4.76798e-06
4.76887e-06
4.76929e-06
4.76924e-06
4.76865e-06
4.76746e-06
4.76557e-06
4.76287e-06
4.75922e-06
4.75449e-06
4.7485e-06
4.74102e-06
4.73181e-06
4.72057e-06
4.70692e-06
4.69041e-06
4.6705e-06
4.64653e-06
4.61766e-06
4.5829e-06
4.54097e-06
4.4903e-06
4.4289e-06
4.35424e-06
4.26312e-06
4.15144e-06
4.01394e-06
3.84388e-06
3.63268e-06
3.36952e-06
3.0411e-06
2.63184e-06
2.12519e-06
1.50766e-06
7.75774e-07
4.38961e-06
4.31913e-08
4.32861e-06
6.09962e-08
4.26319e-06
6.5419e-08
4.19521e-06
6.7982e-08
4.12497e-06
7.02435e-08
4.05285e-06
7.21228e-08
3.97983e-06
7.30193e-08
3.90614e-06
7.3684e-08
3.83213e-06
7.40082e-08
3.75798e-06
7.41556e-08
3.68379e-06
7.41847e-08
3.6097e-06
7.40949e-08
3.53584e-06
7.38626e-08
3.4623e-06
7.35371e-08
3.38913e-06
7.31687e-08
3.31637e-06
7.27598e-08
3.24407e-06
7.23045e-08
3.17227e-06
7.17982e-08
3.10103e-06
7.12404e-08
3.0304e-06
7.06313e-08
2.96042e-06
6.99756e-08
2.89114e-06
6.92774e-08
2.82261e-06
6.85339e-08
2.75485e-06
6.77563e-08
2.68793e-06
6.69276e-08
2.62185e-06
6.60711e-08
2.55664e-06
6.52173e-08
2.49222e-06
6.44124e-08
2.42874e-06
6.34833e-08
2.36641e-06
6.23283e-08
2.30537e-06
6.10408e-08
2.24571e-06
5.9661e-08
2.18752e-06
5.81944e-08
2.13087e-06
5.66461e-08
2.07585e-06
5.50224e-08
2.02252e-06
5.33287e-08
1.97095e-06
5.15699e-08
1.9212e-06
4.97499e-08
1.87332e-06
4.78746e-08
1.82737e-06
4.59536e-08
1.78337e-06
4.39984e-08
1.74136e-06
4.20171e-08
1.70134e-06
4.00171e-08
1.66337e-06
3.79718e-08
1.62744e-06
3.59234e-08
1.59352e-06
3.39281e-08
1.56155e-06
3.19643e-08
1.53152e-06
3.00303e-08
1.50338e-06
2.81377e-08
1.4771e-06
2.62796e-08
1.45263e-06
2.44688e-08
1.42993e-06
2.2709e-08
1.40892e-06
2.10102e-08
1.38954e-06
1.93753e-08
1.37173e-06
1.78094e-08
1.35542e-06
1.63085e-08
1.34055e-06
1.48748e-08
1.32705e-06
1.34985e-08
1.31486e-06
1.2188e-08
1.30393e-06
1.09274e-08
1.29422e-06
9.71293e-09
1.28569e-06
8.52786e-09
1.27832e-06
7.3723e-09
1.2721e-06
6.22427e-09
1.26701e-06
5.08314e-09
1.2631e-06
3.91572e-09
1.26036e-06
2.73315e-09
1.25892e-06
1.44424e-09
1.25889e-06
3.04887e-11
1.26033e-06
-1.43771e-09
1.26346e-06
-3.13441e-09
1.26842e-06
-4.95471e-09
1.2753e-06
-6.88434e-09
1.28433e-06
-9.02917e-09
1.29565e-06
-1.13249e-08
1.30968e-06
-1.40206e-08
1.32663e-06
-1.6958e-08
1.3469e-06
-2.02714e-08
1.37092e-06
-2.40162e-08
1.3992e-06
-2.8275e-08
1.43234e-06
-3.31393e-08
1.471e-06
-3.86682e-08
1.51596e-06
-4.49571e-08
1.56807e-06
-5.21075e-08
1.6283e-06
-6.02293e-08
1.69772e-06
-6.94236e-08
1.77752e-06
-7.9803e-08
1.86906e-06
-9.15386e-08
1.97392e-06
-1.04853e-07
2.09387e-06
-1.19956e-07
2.23081e-06
-1.36936e-07
2.38656e-06
-1.55748e-07
2.56325e-06
-1.76697e-07
2.76324e-06
-1.99986e-07
2.98879e-06
-2.25552e-07
3.23972e-06
-2.50933e-07
3.51376e-06
-2.74034e-07
3.80913e-06
-2.95368e-07
4.12305e-06
-3.13923e-07
4.45044e-06
-3.27389e-07
4.78397e-06
-3.33528e-07
-3.30484e-07
5.11445e-06
4.45657e-06
1.94197e-08
4.47444e-06
4.3127e-08
4.48639e-06
5.34716e-08
4.49368e-06
6.06919e-08
4.49803e-06
6.58917e-08
4.50003e-06
7.01256e-08
4.49995e-06
7.31e-08
4.49803e-06
7.5602e-08
4.49449e-06
7.75474e-08
4.48945e-06
7.91905e-08
4.48297e-06
8.06694e-08
4.47516e-06
8.19009e-08
4.46625e-06
8.27779e-08
4.45623e-06
8.35541e-08
4.44512e-06
8.42769e-08
4.43296e-06
8.49215e-08
4.41978e-06
8.54872e-08
4.40562e-06
8.59592e-08
4.39052e-06
8.63378e-08
4.37453e-06
8.66253e-08
4.35767e-06
8.68349e-08
4.33997e-06
8.69781e-08
4.32147e-06
8.70279e-08
4.30218e-06
8.70468e-08
4.28216e-06
8.69513e-08
4.26144e-06
8.679e-08
4.24008e-06
8.65809e-08
4.21818e-06
8.63057e-08
4.19579e-06
8.58769e-08
4.17284e-06
8.52791e-08
4.1494e-06
8.4479e-08
4.12553e-06
8.35323e-08
4.10127e-06
8.24511e-08
4.07668e-06
8.12351e-08
4.05182e-06
7.98888e-08
4.02673e-06
7.84182e-08
4.00147e-06
7.68299e-08
3.97609e-06
7.51237e-08
3.95066e-06
7.3307e-08
3.92522e-06
7.13913e-08
3.89983e-06
6.93902e-08
3.87453e-06
6.73201e-08
3.84935e-06
6.5196e-08
3.82429e-06
6.30323e-08
3.79939e-06
6.08186e-08
3.77477e-06
5.85561e-08
3.75045e-06
5.62762e-08
3.72649e-06
5.39909e-08
3.70292e-06
5.17138e-08
3.67976e-06
4.94375e-08
3.65705e-06
4.71759e-08
3.63483e-06
4.49329e-08
3.61311e-06
4.27269e-08
3.59192e-06
4.05627e-08
3.57128e-06
3.84496e-08
3.55121e-06
3.63823e-08
3.53172e-06
3.43657e-08
3.51283e-06
3.23895e-08
3.49456e-06
3.04573e-08
3.47693e-06
2.85548e-08
3.45997e-06
2.66742e-08
3.44371e-06
2.47915e-08
3.42817e-06
2.29065e-08
3.41341e-06
2.09908e-08
3.39945e-06
1.90358e-08
3.38637e-06
1.69968e-08
3.37423e-06
1.48711e-08
3.36308e-06
1.25971e-08
3.35295e-06
1.01642e-08
3.34398e-06
7.53017e-09
3.33624e-06
4.60781e-09
3.32986e-06
1.42026e-09
3.32515e-06
-2.17501e-09
3.3224e-06
-6.27164e-09
3.32175e-06
-1.06794e-08
3.3234e-06
-1.56753e-08
3.32774e-06
-2.12974e-08
3.33512e-06
-2.76482e-08
3.34594e-06
-3.48373e-08
3.36066e-06
-4.29894e-08
3.37976e-06
-5.22436e-08
3.40384e-06
-6.27477e-08
3.43356e-06
-7.46725e-08
3.46965e-06
-8.82044e-08
3.51297e-06
-1.03551e-07
3.56449e-06
-1.20941e-07
3.62532e-06
-1.40636e-07
3.69674e-06
-1.62954e-07
3.78025e-06
-1.88359e-07
3.87751e-06
-2.17215e-07
3.98995e-06
-2.49377e-07
4.1187e-06
-2.84507e-07
4.26467e-06
-3.22667e-07
4.42898e-06
-3.64291e-07
4.61301e-06
-4.09582e-07
4.81702e-06
-4.54942e-07
5.04174e-06
-4.98757e-07
5.28824e-06
-5.41872e-07
5.55547e-06
-5.81144e-07
5.84049e-06
-6.12412e-07
6.13818e-06
-6.31225e-07
-6.33614e-07
6.44131e-06
4.4409e-06
1.13198e-08
4.45342e-06
3.06054e-08
4.46495e-06
4.19453e-08
4.47611e-06
4.95293e-08
4.48659e-06
5.54123e-08
4.49642e-06
6.02912e-08
4.50541e-06
6.41141e-08
4.51374e-06
6.72713e-08
4.52145e-06
6.98383e-08
4.52865e-06
7.19868e-08
4.53568e-06
7.36406e-08
4.5425e-06
7.50829e-08
4.54871e-06
7.65648e-08
4.55437e-06
7.78991e-08
4.55959e-06
7.90573e-08
4.56443e-06
8.00769e-08
4.56893e-06
8.0993e-08
4.57307e-06
8.18149e-08
4.57685e-06
8.25543e-08
4.58026e-06
8.32207e-08
4.5833e-06
8.37963e-08
4.586e-06
8.42802e-08
4.58835e-06
8.4672e-08
4.59036e-06
8.50378e-08
4.59202e-06
8.52951e-08
4.59333e-06
8.54754e-08
4.59428e-06
8.56363e-08
4.59485e-06
8.57324e-08
4.59511e-06
8.56185e-08
4.59503e-06
8.53556e-08
4.59458e-06
8.49295e-08
4.59375e-06
8.43683e-08
4.59252e-06
8.36749e-08
4.59091e-06
8.28487e-08
4.5889e-06
8.18915e-08
4.58652e-06
8.08069e-08
4.58375e-06
7.9598e-08
4.58061e-06
7.826e-08
4.57712e-06
7.68005e-08
4.57327e-06
7.524e-08
4.56908e-06
7.3579e-08
4.56457e-06
7.18326e-08
4.55973e-06
7.00293e-08
4.5546e-06
6.81654e-08
4.5492e-06
6.62231e-08
4.54352e-06
6.42318e-08
4.5376e-06
6.21983e-08
4.53145e-06
6.01426e-08
4.52509e-06
5.8073e-08
4.51854e-06
5.59857e-08
4.51184e-06
5.38795e-08
4.505e-06
5.1768e-08
4.49806e-06
4.96697e-08
4.49103e-06
4.75924e-08
4.48394e-06
4.55399e-08
4.47681e-06
4.35118e-08
4.46967e-06
4.15079e-08
4.46253e-06
3.95227e-08
4.45544e-06
3.7551e-08
4.44841e-06
3.55859e-08
4.44147e-06
3.3611e-08
4.43466e-06
3.16085e-08
4.428e-06
2.95657e-08
4.42152e-06
2.74626e-08
4.41529e-06
2.52738e-08
4.40931e-06
2.29687e-08
4.40367e-06
2.05206e-08
4.39835e-06
1.791e-08
4.39347e-06
1.50452e-08
4.38911e-06
1.1892e-08
4.38533e-06
8.38849e-09
4.38222e-06
4.53145e-09
4.37973e-06
3.07682e-10
4.37812e-06
-4.6543e-09
4.37754e-06
-1.01067e-08
4.37815e-06
-1.62854e-08
4.38014e-06
-2.32877e-08
4.38373e-06
-3.12356e-08
4.38917e-06
-4.02776e-08
4.39676e-06
-5.05782e-08
4.40684e-06
-6.23242e-08
4.41982e-06
-7.57273e-08
4.43618e-06
-9.10276e-08
4.45645e-06
-1.0848e-07
4.48129e-06
-1.28393e-07
4.51142e-06
-1.51064e-07
4.54756e-06
-1.76775e-07
4.59057e-06
-2.05964e-07
4.64149e-06
-2.39285e-07
4.70135e-06
-2.7707e-07
4.77108e-06
-3.19114e-07
4.85211e-06
-3.65534e-07
4.94657e-06
-4.17129e-07
5.05656e-06
-4.74281e-07
5.18216e-06
-5.35177e-07
5.32874e-06
-6.01528e-07
5.50269e-06
-6.72704e-07
5.70389e-06
-7.4307e-07
5.93143e-06
-8.08686e-07
6.1841e-06
-8.65083e-07
6.45802e-06
-9.05141e-07
-9.21939e-07
6.74634e-06
4.43657e-06
7.55333e-09
4.44509e-06
2.20856e-08
4.45425e-06
3.27809e-08
4.46325e-06
4.05329e-08
4.47206e-06
4.66032e-08
4.48072e-06
5.16275e-08
4.48913e-06
5.57086e-08
4.49735e-06
5.90515e-08
4.50537e-06
6.18104e-08
4.51324e-06
6.41197e-08
4.52086e-06
6.60194e-08
4.52829e-06
6.76521e-08
4.53572e-06
6.91377e-08
4.54311e-06
7.05069e-08
4.55044e-06
7.17298e-08
4.55769e-06
7.28236e-08
4.56488e-06
7.38055e-08
4.572e-06
7.46914e-08
4.57908e-06
7.54823e-08
4.58611e-06
7.61906e-08
4.59309e-06
7.68149e-08
4.60001e-06
7.736e-08
4.60686e-06
7.78172e-08
4.6137e-06
7.82033e-08
4.62049e-06
7.84984e-08
4.62725e-06
7.87168e-08
4.63408e-06
7.88095e-08
4.64102e-06
7.87939e-08
4.64787e-06
7.87644e-08
4.65455e-06
7.86803e-08
4.66101e-06
7.84614e-08
4.66728e-06
7.8106e-08
4.67333e-06
7.7618e-08
4.67917e-06
7.701e-08
4.68479e-06
7.62768e-08
4.69017e-06
7.54288e-08
4.6953e-06
7.44604e-08
4.70017e-06
7.33935e-08
4.70475e-06
7.22206e-08
4.70905e-06
7.09415e-08
4.7131e-06
6.95294e-08
4.71689e-06
6.80398e-08
4.72043e-06
6.64862e-08
4.72371e-06
6.48875e-08
4.72674e-06
6.31936e-08
4.7295e-06
6.14688e-08
4.73202e-06
5.96819e-08
4.73426e-06
5.78995e-08
4.73622e-06
5.61138e-08
4.73794e-06
5.42681e-08
4.73945e-06
5.23702e-08
4.74075e-06
5.04664e-08
4.74185e-06
4.85733e-08
4.74275e-06
4.66918e-08
4.74347e-06
4.48222e-08
4.74401e-06
4.29637e-08
4.74441e-06
4.11148e-08
4.74466e-06
3.92678e-08
4.7448e-06
3.74172e-08
4.74483e-06
3.55545e-08
4.74477e-06
3.36649e-08
4.74465e-06
3.17325e-08
4.74448e-06
2.97397e-08
4.74427e-06
2.76656e-08
4.74406e-06
2.54819e-08
4.74387e-06
2.31617e-08
4.74372e-06
2.06747e-08
4.74365e-06
1.79798e-08
4.74367e-06
1.50198e-08
4.74382e-06
1.17463e-08
4.7441e-06
8.10683e-09
4.74458e-06
4.05178e-09
4.74538e-06
-4.92468e-10
4.74639e-06
-5.66588e-09
4.74778e-06
-1.14944e-08
4.7496e-06
-1.81015e-08
4.75193e-06
-2.56266e-08
4.75492e-06
-3.42179e-08
4.75868e-06
-4.40371e-08
4.76337e-06
-5.52687e-08
4.76918e-06
-6.81369e-08
4.77635e-06
-8.28984e-08
4.78517e-06
-9.9849e-08
4.796e-06
-1.19308e-07
4.80934e-06
-1.41738e-07
4.82565e-06
-1.6737e-07
4.84551e-06
-1.96637e-07
4.86988e-06
-2.30328e-07
4.89926e-06
-2.68664e-07
4.93443e-06
-3.12246e-07
4.97771e-06
-3.62393e-07
5.03245e-06
-4.20272e-07
5.10133e-06
-4.86014e-07
5.18658e-06
-5.5953e-07
5.29238e-06
-6.40974e-07
5.42123e-06
-7.30376e-07
5.57547e-06
-8.26951e-07
5.76008e-06
-9.27678e-07
5.97764e-06
-1.02624e-06
6.2294e-06
-1.11685e-06
6.51059e-06
-1.18633e-06
-1.22653e-06
6.81518e-06
4.43481e-06
5.53983e-09
4.44013e-06
1.67658e-08
4.44679e-06
2.61278e-08
4.45385e-06
3.34705e-08
4.46113e-06
3.93187e-08
4.46859e-06
4.41714e-08
4.47608e-06
4.82208e-08
4.48354e-06
5.15855e-08
4.49097e-06
5.43846e-08
4.49836e-06
5.67289e-08
4.50567e-06
5.87053e-08
4.51292e-06
6.04031e-08
4.52016e-06
6.19001e-08
4.52742e-06
6.32467e-08
4.5347e-06
6.44472e-08
4.54202e-06
6.55111e-08
4.54936e-06
6.64575e-08
4.55675e-06
6.73029e-08
4.56418e-06
6.80553e-08
4.57165e-06
6.87227e-08
4.57915e-06
6.93095e-08
4.58669e-06
6.98184e-08
4.59426e-06
7.02485e-08
4.60185e-06
7.06166e-08
4.60944e-06
7.09096e-08
4.61703e-06
7.11227e-08
4.62459e-06
7.12516e-08
4.63209e-06
7.12916e-08
4.6396e-06
7.12583e-08
4.64712e-06
7.11565e-08
4.65462e-06
7.09658e-08
4.66206e-06
7.06668e-08
4.66942e-06
7.02581e-08
4.67668e-06
6.97434e-08
4.68384e-06
6.91181e-08
4.69088e-06
6.83925e-08
4.69778e-06
6.75602e-08
4.70454e-06
6.66364e-08
4.71115e-06
6.56107e-08
4.71759e-06
6.44999e-08
4.72383e-06
6.3285e-08
4.72987e-06
6.20011e-08
4.73572e-06
6.06364e-08
4.74139e-06
5.92222e-08
4.74685e-06
5.77303e-08
4.75211e-06
5.62072e-08
4.75718e-06
5.4617e-08
4.76208e-06
5.29949e-08
4.76689e-06
5.13089e-08
4.77151e-06
4.96422e-08
4.77588e-06
4.80047e-08
4.77998e-06
4.63627e-08
4.78385e-06
4.47078e-08
4.78749e-06
4.3045e-08
4.79094e-06
4.13783e-08
4.79419e-06
3.9707e-08
4.79727e-06
3.80355e-08
4.80019e-06
3.63463e-08
4.80297e-06
3.46431e-08
4.80561e-06
3.29165e-08
4.80812e-06
3.11512e-08
4.81052e-06
2.93332e-08
4.81282e-06
2.74434e-08
4.81502e-06
2.54629e-08
4.81713e-06
2.33687e-08
4.81917e-06
2.11262e-08
4.82114e-06
1.86974e-08
4.82308e-06
1.60459e-08
4.82497e-06
1.31267e-08
4.82683e-06
9.88724e-09
4.82867e-06
6.27139e-09
4.83049e-06
2.22467e-09
4.83233e-06
-2.32966e-09
4.83416e-06
-7.49429e-09
4.83603e-06
-1.33701e-08
4.83799e-06
-2.00621e-08
4.84007e-06
-2.77069e-08
4.84232e-06
-3.64587e-08
4.84478e-06
-4.65044e-08
4.84758e-06
-5.80675e-08
4.85085e-06
-7.14055e-08
4.85474e-06
-8.67878e-08
4.85941e-06
-1.04515e-07
4.86509e-06
-1.24989e-07
4.87193e-06
-1.48583e-07
4.88063e-06
-1.7607e-07
4.89214e-06
-2.08145e-07
4.90704e-06
-2.45226e-07
4.92653e-06
-2.88159e-07
4.95214e-06
-3.37852e-07
4.98528e-06
-3.95536e-07
5.02756e-06
-4.62554e-07
5.08163e-06
-5.40083e-07
5.15115e-06
-6.29052e-07
5.24043e-06
-7.30254e-07
5.35433e-06
-8.44268e-07
5.49812e-06
-9.70744e-07
5.67821e-06
-1.10777e-06
5.89976e-06
-1.24779e-06
6.16976e-06
-1.38685e-06
6.4785e-06
-1.49507e-06
-1.57536e-06
6.82733e-06
4.43399e-06
4.35095e-09
4.43757e-06
1.3188e-08
4.44263e-06
2.10609e-08
4.44847e-06
2.76348e-08
4.45474e-06
3.30465e-08
4.46132e-06
3.7597e-08
4.46808e-06
4.14609e-08
4.47494e-06
4.47239e-08
4.48185e-06
4.74675e-08
4.4888e-06
4.97876e-08
4.49574e-06
5.17626e-08
4.50268e-06
5.34616e-08
4.50964e-06
5.49421e-08
4.51664e-06
5.62488e-08
4.52368e-06
5.74048e-08
4.53076e-06
5.84258e-08
4.53789e-06
5.93291e-08
4.54506e-06
6.013e-08
4.55228e-06
6.08389e-08
4.55954e-06
6.14633e-08
4.56684e-06
6.20086e-08
4.57418e-06
6.24787e-08
4.58155e-06
6.28766e-08
4.58896e-06
6.32077e-08
4.5964e-06
6.3469e-08
4.60387e-06
6.36568e-08
4.61135e-06
6.37697e-08
4.61884e-06
6.38046e-08
4.62633e-06
6.37657e-08
4.63383e-06
6.36583e-08
4.64132e-06
6.34748e-08
4.64879e-06
6.32003e-08
4.65621e-06
6.28305e-08
4.66359e-06
6.23681e-08
4.6709e-06
6.18111e-08
4.67812e-06
6.11644e-08
4.68526e-06
6.04265e-08
4.69229e-06
5.9605e-08
4.6992e-06
5.86982e-08
4.70599e-06
5.77149e-08
4.71262e-06
5.66499e-08
4.71911e-06
5.55166e-08
4.72542e-06
5.43199e-08
4.73157e-06
5.30753e-08
4.73753e-06
5.1773e-08
4.74331e-06
5.04279e-08
4.74889e-06
4.90354e-08
4.75427e-06
4.76112e-08
4.75943e-06
4.61519e-08
4.76439e-06
4.46781e-08
4.76919e-06
4.32077e-08
4.77382e-06
4.17366e-08
4.77827e-06
4.02581e-08
4.78254e-06
3.8772e-08
4.78664e-06
3.72787e-08
4.79057e-06
3.57751e-08
4.79434e-06
3.42673e-08
4.79795e-06
3.27351e-08
4.80141e-06
3.11809e-08
4.80473e-06
2.95954e-08
4.80792e-06
2.79654e-08
4.81097e-06
2.62771e-08
4.81391e-06
2.45122e-08
4.81672e-06
2.26512e-08
4.81942e-06
2.06697e-08
4.822e-06
1.85389e-08
4.82448e-06
1.62236e-08
4.82684e-06
1.36852e-08
4.82908e-06
1.08799e-08
4.83122e-06
7.75553e-09
4.83323e-06
4.2546e-09
4.83515e-06
3.12235e-10
4.83697e-06
-4.154e-09
4.83868e-06
-9.20593e-09
4.84027e-06
-1.49573e-08
4.84174e-06
-2.15312e-08
4.8431e-06
-2.90724e-08
4.84439e-06
-3.77488e-08
4.84564e-06
-4.77526e-08
4.84688e-06
-5.93091e-08
4.84815e-06
-7.26736e-08
4.84954e-06
-8.81726e-08
4.85121e-06
-1.06193e-07
4.85341e-06
-1.27186e-07
4.8565e-06
-1.51671e-07
4.86071e-06
-1.8028e-07
4.86637e-06
-2.13804e-07
4.87424e-06
-2.53095e-07
4.88523e-06
-2.99147e-07
4.90056e-06
-3.53189e-07
4.9218e-06
-4.16771e-07
4.95095e-06
-4.91703e-07
4.99078e-06
-5.79919e-07
5.0451e-06
-6.83363e-07
5.1189e-06
-8.04054e-07
5.21839e-06
-9.43762e-07
5.3512e-06
-1.10356e-06
5.52629e-06
-1.28285e-06
5.75365e-06
-1.47515e-06
6.0499e-06
-1.68309e-06
6.40006e-06
-1.84523e-06
-2.02452e-06
6.84922e-06
4.43364e-06
3.50608e-09
4.43626e-06
1.05717e-08
4.44021e-06
1.71079e-08
4.44503e-06
2.28216e-08
4.45039e-06
2.76871e-08
4.45614e-06
3.18396e-08
4.4622e-06
3.54094e-08
4.46846e-06
3.84605e-08
4.47487e-06
4.10559e-08
4.48139e-06
4.32687e-08
4.48799e-06
4.51627e-08
4.49466e-06
4.67938e-08
4.50139e-06
4.82107e-08
4.50819e-06
4.94519e-08
4.51505e-06
5.05438e-08
4.52197e-06
5.15053e-08
4.52894e-06
5.23525e-08
4.53597e-06
5.30995e-08
4.54306e-06
5.3757e-08
4.55019e-06
5.43331e-08
4.55736e-06
5.48336e-08
4.56458e-06
5.52632e-08
4.57183e-06
5.56251e-08
4.57911e-06
5.59219e-08
4.58643e-06
5.61541e-08
4.59377e-06
5.63203e-08
4.60112e-06
5.64193e-08
4.60847e-06
5.64502e-08
4.61582e-06
5.64146e-08
4.62317e-06
5.63128e-08
4.6305e-06
5.61404e-08
4.63781e-06
5.58907e-08
4.64508e-06
5.55599e-08
4.6523e-06
5.51485e-08
4.65946e-06
5.46567e-08
4.66653e-06
5.40862e-08
4.67352e-06
5.34379e-08
4.68041e-06
5.27151e-08
4.68719e-06
5.19194e-08
4.69385e-06
5.10546e-08
4.70038e-06
5.01227e-08
4.70676e-06
4.91302e-08
4.713e-06
4.80833e-08
4.71909e-06
4.69889e-08
4.72501e-06
4.58483e-08
4.73077e-06
4.46667e-08
4.73636e-06
4.34482e-08
4.74177e-06
4.21993e-08
4.747e-06
4.0924e-08
4.75205e-06
3.96315e-08
4.75692e-06
3.83333e-08
4.76163e-06
3.70312e-08
4.76616e-06
3.57212e-08
4.77053e-06
3.44018e-08
4.77474e-06
3.30723e-08
4.77878e-06
3.17314e-08
4.78267e-06
3.03766e-08
4.78641e-06
2.90007e-08
4.78999e-06
2.75984e-08
4.79343e-06
2.6161e-08
4.79671e-06
2.46769e-08
4.79986e-06
2.31323e-08
4.80286e-06
2.15106e-08
4.80572e-06
1.97927e-08
4.80843e-06
1.7955e-08
4.811e-06
1.59719e-08
4.81341e-06
1.38103e-08
4.81567e-06
1.14332e-08
4.81775e-06
8.79843e-09
4.81965e-06
5.8569e-09
4.82135e-06
2.55286e-09
4.82284e-06
-1.17847e-09
4.8241e-06
-5.41293e-09
4.82512e-06
-1.02302e-08
4.8259e-06
-1.57327e-08
4.82641e-06
-2.20428e-08
4.82664e-06
-2.93041e-08
4.82658e-06
-3.76857e-08
4.82621e-06
-4.73853e-08
4.82554e-06
-5.86378e-08
4.82459e-06
-7.17221e-08
4.82339e-06
-8.69729e-08
4.82199e-06
-1.04796e-07
4.82048e-06
-1.25677e-07
4.81901e-06
-1.50198e-07
4.81779e-06
-1.79062e-07
4.81713e-06
-2.13143e-07
4.8175e-06
-2.53466e-07
4.81961e-06
-3.01257e-07