/*--------------------------------*- C++ -*----------------------------------*\
| =========                 |                                                 |
| \\      /  F ield         | OpenFOAM: The Open Source CFD Toolbox           |
|  \\    /   O peration     | Version:  2206                                  |
|   \\  /    A nd           | Website:  www.openfoam.com                      |
|    \\/     M anipulation  |                                                 |
\*---------------------------------------------------------------------------*/
FoamFile
{
    version     2.0;
    format      ascii;
    arch        "LSB;label=32;scalar=64";
    class       surfaceScalarField;
    location    "18.8001";
    object      ddtCorrDdt0(phi);
}
// * * * * * * * * * * * * * * * * * * * * * * * * * * * * * * * * * * * * * //

dimensions      [0 3 -2 0 0 0 0];

oriented        oriented;

internalField   nonuniform List<scalar> 
5978
(
0.000109893
0.000251488
-0.000297543
0.000158779
0.000155141
-0.000204027
0.000207686
6.16461e-05
-0.000110553
0.000249544
-1.42927e-05
-2.75648e-05
0.000283631
-6.84702e-05
3.43836e-05
0.000308777
-0.000100592
7.54455e-05
0.0003241
-0.000114381
9.90574e-05
0.000328894
-0.000116634
0.00011184
0.000324046
-0.000116819
0.000121667
0.000311065
-0.000123827
0.000136807
0.000290498
-0.000142385
0.000162953
0.000263211
-0.000174194
0.000201481
0.000231274
-0.000217269
0.000249206
0.000196234
-0.000266213
0.000301253
0.000159044
-0.000315153
0.000352343
0.000120401
-0.000359219
0.000397862
8.10203e-05
-0.000394773
0.000434153
4.18773e-05
-0.000419032
0.000458175
4.6335e-06
-0.000429448
0.000466692
-3.0233e-05
-0.000425878
0.000460745
-6.19953e-05
-0.000411764
0.000443526
-9.00135e-05
-0.000387972
0.00041599
-0.000113843
-0.000355817
0.000379647
-0.000133315
-0.000316906
0.000336378
-0.000148547
-0.000272937
0.000288169
-0.000160079
-0.000225392
0.000236925
-0.000168885
-0.0001752
0.000184006
-0.000176414
-0.000122332
0.000129861
-0.00018379
-6.53738e-05
7.27498e-05
-0.000189836
-3.46897e-06
9.51516e-06
-0.000193451
6.1082e-05
-5.74675e-05
-0.000194767
0.000127408
-0.000126092
-0.00019388
0.000193819
-0.000194706
-0.000190828
0.000258583
-0.000261634
-0.000185528
0.000320082
-0.000325383
-0.000177768
0.000376389
-0.000384149
-0.000167073
0.00042491
-0.000435606
-0.00015238
0.000461819
-0.000476513
-0.000131503
0.000480916
-0.000501792
-0.000105985
0.000479097
-0.000504615
-7.7293e-05
0.00046174
-0.000490432
-4.62701e-05
0.000430255
-0.000461278
-1.38354e-05
0.000386927
-0.000419362
1.90616e-05
0.000334563
-0.00036746
5.16172e-05
0.000276212
-0.000308768
8.37159e-05
0.000214275
-0.000246374
0.000116381
0.000149837
-0.000182502
0.0001488
8.5411e-05
-0.00011783
0.000176711
2.70084e-05
-5.49193e-05
0.00019811
-2.14319e-05
3.26725e-08
0.000212409
-6.02612e-05
4.59623e-05
0.000219182
-9.11742e-05
8.44009e-05
0.000218585
-0.00011713
0.000117727
0.000211406
-0.000141586
0.000148765
0.000198964
-0.000167374
0.000179817
0.000182559
-0.000195548
0.000211953
0.000163194
-0.000225562
0.000244927
0.000141472
-0.000255796
0.000277518
0.000117769
-0.000284326
0.000308029
9.24064e-05
-0.000309172
0.000334534
6.581e-05
-0.000328259
0.000354855
3.87103e-05
-0.000338912
0.000366011
1.22916e-05
-0.000339619
0.000366037
-1.28164e-05
-0.00033226
0.000357368
-3.59905e-05
-0.000317037
0.000340211
-5.66581e-05
-0.000294542
0.00031521
-7.43718e-05
-0.000265752
0.000283466
-8.89211e-05
-0.000231944
0.000246493
-0.000100443
-0.000194482
0.000206004
-0.000109486
-0.000154481
0.000163524
-0.000117127
-0.000112266
0.000119907
-0.000124572
-6.68316e-05
7.42766e-05
-0.000131055
-1.72329e-05
2.37165e-05
-0.000135219
3.41866e-05
-3.0023e-05
-0.000137199
8.64012e-05
-8.44213e-05
-0.000137185
0.000137967
-0.000137981
-0.000135449
0.000187498
-0.000189234
-0.000132163
0.000233986
-0.000237272
-0.000127364
0.000276421
-0.00028122
-0.000120905
0.000313523
-0.000319983
-0.000112241
0.000343242
-0.000351906
-9.98691e-05
0.000361746
-0.000374118
-8.319e-05
0.000364544
-0.000381223
-6.39805e-05
0.000355187
-0.000374397
-4.26044e-05
0.00033529
-0.000356666
-1.9739e-05
0.000306264
-0.000329129
3.81361e-06
0.000269983
-0.000293536
2.72199e-05
0.000228716
-0.000252122
4.98193e-05
0.000184687
-0.000207286
7.15598e-05
0.000139359
-0.000161099
9.3398e-05
9.27424e-05
-0.000114581
0.000114718
4.60462e-05
-6.7366e-05
0.000132168
3.33731e-06
-2.07874e-05
0.000144868
-3.40154e-05
2.13153e-05
0.000152439
-6.6435e-05
5.88642e-05
0.000154719
-9.47989e-05
9.25186e-05
0.000152105
-0.000120372
0.000122987
0.000145359
-0.000144308
0.000151054
0.000135285
-0.000167305
0.00017738
0.00012256
-0.00018948
0.000202205
0.000107697
-0.000210405
0.000225267
9.10685e-05
-0.000229286
0.000245915
7.29675e-05
-0.000245052
0.000263153
5.36575e-05
-0.000256202
0.000275512
3.38218e-05
-0.000260617
0.000280453
1.43896e-05
-0.000259183
0.000278615
-4.19361e-06
-0.000251948
0.000270531
-2.14688e-05
-0.000239055
0.00025633
-3.70156e-05
-0.000220917
0.000236464
-5.04974e-05
-0.000198231
0.000211713
-6.17321e-05
-0.000171897
0.000183131
-7.08008e-05
-0.000142858
0.000151926
-7.81826e-05
-0.000111831
0.000119213
-8.48309e-05
-7.88896e-05
8.55379e-05
-9.15792e-05
-4.30185e-05
4.97668e-05
-9.735e-05
-3.95865e-06
9.72942e-06
-0.000101376
3.61656e-05
-3.21399e-05
-0.000103606
7.67589e-05
-7.45286e-05
-0.000104142
0.000116535
-0.000115999
-0.000103195
0.000154359
-0.000155306
-0.000100907
0.000189368
-0.000191656
0.000220636
-0.00022424
0.000146628
0.000197586
0.000202021
9.97472e-05
0.000251031
1.26369e-05
0.000292088
-5.53504e-05
0.000324059
-0.000100441
0.000345832
-0.000122365
0.000356401
-0.00012495
0.00035631
-0.000116543
0.00034758
-0.000108089
0.000331268
-0.000107514
0.000308002
-0.000119119
0.000278262
-0.000144453
0.000243417
-0.000182424
0.000205491
-0.000228287
0.000165799
-0.000275461
0.000125099
-0.000318519
8.39953e-05
-0.000353669
4.32779e-05
-0.000378315
4.44829e-06
-0.000390619
-3.20207e-05
-0.000389409
-6.564e-05
-0.000378144
-9.58392e-05
-0.000357773
-0.00012219
-0.000329467
-0.000144507
-0.000294589
-0.000162902
-0.000254542
-0.000177921
-0.000210374
-0.000190491
-0.000162629
-0.000201715
-0.000111109
-0.000211756
-5.5332e-05
-0.00021942
4.19457e-06
-0.000224382
6.60444e-05
-0.000226496
0.000129522
-0.000225654
0.000192977
-0.00022183
0.000254759
-0.000214956
0.000313208
-0.000204795
0.000366228
-0.00019063
0.000410745
-0.000170805
0.000441994
-0.000143421
0.000453532
-0.000111792
0.000447468
-7.69135e-05
0.000426861
-3.99769e-05
0.000393319
-2.08208e-06
0.000349032
3.57773e-05
0.000296704
7.32059e-05
0.000238784
0.000110954
0.000176527
0.000148907
0.000111884
0.000183333
5.09848e-05
0.000210781
-4.39816e-07
0.000230476
-4.11267e-05
0.000241917
-7.17025e-05
0.000245154
-9.44104e-05
0.000240723
-0.0001127
0.000229888
-0.000130751
0.00021408
-0.000151566
0.00019467
-0.000176138
0.000172732
-0.000203624
0.000148724
-0.000231788
0.000122958
-0.000258561
9.57253e-05
-0.000281939
6.73894e-05
-0.000299923
3.87083e-05
-0.00031023
1.07325e-05
-0.000311643
-1.59472e-05
-0.00030558
-4.07456e-05
-0.000292239
-6.31348e-05
-0.000272153
-8.27236e-05
-0.000246163
-9.93603e-05
-0.000215307
-0.000113227
-0.000180615
-0.000124914
-0.000142794
-0.000135331
-0.00010185
-0.000144825
-5.73371e-05
-0.000152318
-9.74011e-06
-0.000157404
3.92728e-05
-0.000160055
8.90516e-05
-0.000160303
0.000138216
-0.000158311
0.000185506
-0.000154202
0.000229877
-0.000147988
0.000270206
-0.000139411
0.000304946
-0.000127587
0.000331418
-0.00011048
0.00034464
-8.93444e-05
0.000343408
-6.53246e-05
0.000331168
-3.92425e-05
0.000309208
-1.20561e-05
0.000279078
1.53047e-05
0.000242622
4.20354e-05
0.000201985
6.7865e-05
0.000158857
9.35774e-05
0.000113646
0.000118767
6.75529e-05
0.000140496
2.43171e-05
0.000157096
-1.32626e-05
0.000168111
-4.50301e-05
0.000173315
-7.1639e-05
0.000172909
-9.43935e-05
0.000167543
-0.000115006
0.000158126
-0.000134891
0.000145579
-0.000154759
0.000130642
-0.000174543
0.000113813
-0.000193576
9.54015e-05
-0.000210874
7.56578e-05
-0.000225309
5.47635e-05
-0.000235307
3.36285e-05
-0.000239482
1.28839e-05
-0.000238438
-7.01351e-06
-0.00023205
-2.56208e-05
-0.000220448
-4.25398e-05
-0.000203998
-5.74792e-05
-0.000183292
-7.03284e-05
-0.000159047
-8.12471e-05
-0.000131939
-9.07417e-05
-0.000102337
-9.95626e-05
-7.00687e-05
-0.000107715
-3.48658e-05
-0.000114088
2.41369e-06
-0.000118637
4.07151e-05
-0.000121218
7.93394e-05
-0.000121829
0.000117146
-0.000120595
0.000153125
-0.000117586
0.000186359
0.000215784
0.000188125
0.000135667
0.000245076
4.27963e-05
0.000293461
-3.57479e-05
0.000332294
-9.4183e-05
0.00036056
-0.000128707
0.00037737
-0.000139175
0.00038245
-0.00013003
0.00037782
-0.000111913
0.000365222
-9.54913e-05
0.000345575
-8.78674e-05
0.000319664
-9.3208e-05
0.000287946
-0.000112736
0.000250988
-0.000145466
0.000210702
-0.000188
0.000168817
-0.000233576
0.000126374
-0.000276077
8.39274e-05
-0.000311222
4.20586e-05
-0.000336446
1.94958e-06
-0.00035051
-3.55441e-05
-0.000351916
-7.05082e-05
-0.00034318
-0.000102406
-0.000325875
-0.000130837
-0.000301036
-0.000155607
-0.000269818
-0.000176896
-0.000233253
-0.000195199
-0.000192071
-0.000211258
-0.000146569
-0.000225581
-9.6786e-05
-0.000237698
-4.32148e-05
-0.000246737
1.32337e-05
-0.000252702
7.20088e-05
-0.000255244
0.000132064
-0.000254182
0.000191915
-0.000249483
0.00025006
-0.000241077
0.000304803
-0.000228593
0.000353744
-0.00021079
0.000392942
-0.000184862
0.000416066
-0.000151618
0.000420288
-0.000113913
0.000409763
-7.30552e-05
0.000386003
-3.05693e-05
0.000350833
1.23893e-05
0.000306074
5.51592e-05
0.000253934
9.82278e-05
0.000195715
0.000142078
0.000132677
0.000183412
7.05506e-05
0.000217947
1.64494e-05
0.000244131
-2.6624e-05
0.000260999
-5.79944e-05
0.000268213
-7.89168e-05
0.000266257
-9.24539e-05
0.000257132
-0.000103575
0.000242875
-0.000116493
0.00022446
-0.000133152
0.00020263
-0.000154308
0.000178246
-0.000179241
0.000152169
-0.000205711
0.000124676
-0.000231068
9.59494e-05
-0.000253212
6.63036e-05
-0.000270277
3.65146e-05
-0.000280441
7.45957e-06
-0.000282588
-2.03366e-05
-0.000277784
-4.63458e-05
-0.000266229
-7.01043e-05
-0.000248395
-9.12882e-05
-0.000224979
-0.000109806
-0.000196789
-0.000125873
-0.000164548
-0.000140032
-0.000128635
-0.000152773
-8.91086e-05
-0.000163758
-4.63525e-05
-0.000172101
-1.39687e-06
-0.000177891
4.50628e-05
-0.000180956
9.21168e-05
-0.00018126
0.000138519
-0.000178893
0.00018314
-0.00017392
0.000224904
-0.000166255
0.000262542
-0.000155384
0.000294075
-0.000139619
0.000315653
-0.000117931
0.000322952
-9.23155e-05
0.000317792
-6.34637e-05
0.000302316
-3.27495e-05
0.000278494
-1.61965e-06
0.000247948
2.90757e-05
0.000211927
5.89956e-05
0.000172065
8.87106e-05
0.000129142
0.000118169
8.41881e-05
0.000144633
4.10888e-05
0.000165582
3.36789e-06
0.000180372
-2.80527e-05
0.000188726
-5.3384e-05
0.000190861
-7.37735e-05
0.000187237
-9.07697e-05
0.000178804
-0.000106573
0.000166684
-0.000122772
0.000151861
-0.000139936
0.000135049
-0.00015773
0.000116628
-0.000175156
9.67936e-05
-0.000191039
7.57499e-05
-0.000204265
5.37147e-05
-0.000213272
3.16541e-05
-0.000217421
9.97828e-06
-0.000216762
-1.08764e-05
-0.000211196
-3.04975e-05
-0.000200827
-4.8528e-05
-0.000185967
-6.47318e-05
-0.000167088
-7.90663e-05
-0.000144713
-9.17521e-05
-0.000119253
-0.000103236
-9.08529e-05
-0.000113744
-5.95607e-05
-0.000122764
-2.58458e-05
-0.000129718
9.36747e-06
-0.000134643
4.56402e-05
-0.000137386
8.20822e-05
-0.00013792
0.00011768
-0.000136281
0.000151487
-0.000132425
0.000182502
0.000209425
0.000231824
6.99448e-05
0.000288252
-1.36311e-05
0.000334152
-8.16484e-05
0.000368591
-0.000128621
0.000391006
-0.000151122
0.000400774
-0.000148944
0.000399997
-0.000129253
0.00039122
-0.000103136
0.000375227
-7.94982e-05
0.000352833
-6.5473e-05
0.000324853
-6.52285e-05
0.000291792
-7.96747e-05
0.000253804
-0.000107477
0.000211852
-0.000146049
0.0001684
-0.000190124
0.000124548
-0.000232225
8.10483e-05
-0.000267723
3.83715e-05
-0.000293769
-2.71336e-06
-0.000309425
-4.08931e-05
-0.000313736
-7.67038e-05
-0.00030737
-0.000109816
-0.000292763
-0.000139888
-0.000270965
-0.000166778
-0.000242928
-0.00019066
-0.00020937
-0.000211953
-0.000170779
-0.000231005
-0.000127517
-0.000247533
-8.02578e-05
-0.00026099
-2.97582e-05
-0.000271179
2.34224e-05
-0.000277782
7.86117e-05
-0.000280413
0.000134695
-0.00027893
0.000190432
-0.000273329
0.000244459
-0.000263459
0.000294933
-0.000248486
0.00033877
-0.000225865
0.000370322
-0.00019395
0.00038415
-0.000155451
0.00038179
-0.000111653
0.000365965
-6.49188e-05
0.000339269
-1.73389e-05
0.000303253
3.02365e-05
0.000258498
7.83326e-05
0.000205838
0.000127992
0.000146056
0.000176361
8.43071e-05
0.000218579
2.83328e-05
0.000252175
-1.7146e-05
0.000275479
-4.99289e-05
0.000287687
-7.02016e-05
0.00028892
-8.01506e-05
0.000281559
-8.50923e-05
0.00026836
-9.03763e-05
0.000250676
-9.88092e-05
0.000229461
-0.000111937
0.000205381
-0.000130228
0.000179112
-0.000152971
0.000151434
-0.000178034
0.000122704
-0.000202337
9.29814e-05
-0.00022349
6.25408e-05
-0.000239836
3.21245e-05
-0.000250025
2.46181e-06
-0.000252925
-2.60195e-05
-0.000249303
-5.28591e-05
-0.00023939
-7.76649e-05
-0.000223589
-0.000100191
-0.000202454
-0.000120406
-0.000176574
-0.000138525
-0.000146429
-0.000154852
-0.000112308
-0.000169188
-7.4773e-05
-0.000180999
-3.45412e-05
-0.000190092
7.6959e-06
-0.000196355
5.13259e-05
-0.000199592
9.53532e-05
-0.000199768
0.000138696
-0.000196931
0.000180303
-0.000191046
0.000219019
-0.000181745
0.00025324
-0.000167881
0.000280211
-0.000147283
0.000295055
-0.000121356
0.000297025
-9.13076e-05
0.000287743
-5.78034e-05
0.000268812
-2.25441e-05
0.000243234
1.17898e-05
0.000213614
4.52264e-05
0.00017849
7.90029e-05
0.000138289
0.00011308
9.50653e-05
0.000144521
5.2747e-05
0.000170327
1.52827e-05
0.000189345
-1.56508e-05
0.000201097
-3.98042e-05
0.000205666
-5.79533e-05
0.000203469
-7.15761e-05
0.000195923
-8.32236e-05
0.000184656
-9.53055e-05
0.000170565
-0.000108681
0.000154193
-0.000123564
0.000135956
-0.000139493
0.000116223
-0.000155423
9.52744e-05
-0.000170091
7.32637e-05
-0.000182254
5.06102e-05
-0.000190619
2.79729e-05
-0.000194784
5.71354e-06
-0.000194503
-1.57804e-05
-0.000189702
-3.61398e-05
-0.000180467
-5.50639e-05
-0.000167043
-7.23818e-05
-0.00014977
-8.81118e-05
-0.000128983
-0.000102463
-0.000104902
-0.00011557
-7.77462e-05
-0.00012711
-4.80203e-05
-0.000136588
-1.63683e-05
-0.000143995
1.67754e-05
-0.000149152
5.07966e-05
-0.00015191
8.48408e-05
-0.000152223
0.000117992
-0.00015002
0.000149284
-0.000145044
0.000177527
0.000200944
0.000277441
4.15428e-06
0.000331345
-6.75352e-05
0.000371969
-0.000122272
0.000398795
-0.000155448
0.000411524
-0.000163851
0.000412793
-0.000150212
0.000406489
-0.000122949
0.000393756
-9.04027e-05
0.000375113
-6.08553e-05
0.000351091
-4.14517e-05
0.000322288
-3.64253e-05
0.000289099
-4.64856e-05
0.000251499
-6.98772e-05
0.000209559
-0.000104109
0.000165173
-0.000145738
0.000120424
-0.000187476
7.60679e-05
-0.000223367
3.27067e-05
-0.000250408
-9.04244e-06
-0.000267676
-4.79803e-05
-0.000274798
-8.41573e-05
-0.000271193
-0.00011806
-0.00025886
-0.00014941
-0.000239615
-0.000178118
-0.00021422
-0.000204291
-0.000183197
-0.000228038
-0.000147033
-0.000249009
-0.000106545
-0.000266841
-6.24265e-05
-0.000281364
-1.52347e-05
-0.000292293
3.43511e-05
-0.000299161
8.54796e-05
-0.000301649
0.000137183
-0.000299685
0.000188468
-0.000293264
0.000238038
-0.000281821
0.00028349
-0.000263045
0.000319995
-0.000234338
0.000341614
-0.000197273
0.000347086
-0.000153474
0.00033799
-0.000103857
0.000316348
-5.11743e-05
0.000286587
5.14256e-07
0.000251564
5.23842e-05
0.000206628
0.000107241
0.000150981
0.000162565
9.07318e-05
0.000212726
3.41462e-05
0.000254273
-1.32144e-05
0.00028475
-4.76224e-05
0.00030278
-6.79591e-05
0.000307896
-7.53174e-05
0.000302547
-7.48017e-05
0.000290273
-7.28186e-05
0.000272974
-7.30769e-05
0.000252042
-7.78778e-05
0.000228401
-8.82952e-05
0.000202608
-0.000104435
0.000175102
-0.000125465
0.000146445
-0.000149377
0.000117096
-0.000172988
8.69268e-05
-0.000193321
5.62216e-05
-0.000209131
2.55908e-05
-0.000219394
-4.22124e-06
-0.000223113
-3.29893e-05
-0.000220535
-6.03318e-05
-0.000212047
-8.59342e-05
-0.000197986
-0.000109609
-0.000178779
-0.000131324
-0.000154858
-0.000151148
-0.000126605
-0.000168857
-9.4599e-05
-0.000184027
-5.96033e-05
-0.000196456
-2.2112e-05
-0.000206034
1.72735e-05
-0.000212514
5.7806e-05
-0.000215746
9.8585e-05
-0.000215696
0.000138646
-0.000212329
0.000176935
-0.000205365
0.000212056
-0.00019375
0.000241625
-0.000174889
0.00026135
-0.000149039
0.000269205
-0.000118638
0.000266624
-8.47607e-05
0.000253867
-4.79097e-05
0.000231961
-9.99417e-06
0.000205319
2.67251e-05
0.000176894
6.5042e-05
0.000140174
0.000103897
9.9434e-05
0.000140493
5.84691e-05
0.000171399
2.18413e-05
0.000194912
-8.2311e-06
0.000210246
-3.09842e-05
0.000217279
-4.68374e-05
0.000216511
-5.71856e-05
0.000209811
-6.48758e-05
0.000199227
-7.264e-05
0.000185665
-8.17427e-05
0.00016979
-9.28069e-05
0.000152066
-0.000105839
0.000132811
-0.000120238
0.000112298
-0.00013491
9.07423e-05
-0.000148535
6.83248e-05
-0.000159837
4.54974e-05
-0.000167791
2.26366e-05
-0.000171923
9.92754e-08
-0.000171965
-2.17659e-05
-0.000167836
-4.26389e-05
-0.000159594
-6.22812e-05
-0.000147401
-8.0592e-05
-0.000131459
-9.75939e-05
-0.000111981
-0.000113273
-8.92231e-05
-0.000127252
-6.37667e-05
-0.00013924
-3.60328e-05
-0.000149139
-6.46914e-06
-0.000156789
2.44256e-05
-0.000161994
5.60008e-05
-0.000164615
8.7462e-05
-0.000164534
0.000117911
-0.000161501
0.000146251
-0.000154851
0.000170876
0.000189077
0.00032645
-5.94557e-05
0.000374125
-0.00011521
0.000404807
-0.000152954
0.000418157
-0.000168797
0.000417816
-0.00016351
0.000409945
-0.000142341
0.000397513
-0.000110518
0.000381303
-7.41922e-05
0.000361367
-4.09194e-05
0.000337665
-1.77503e-05
0.000310171
-8.93156e-06
0.000278838
-1.51522e-05
0.000243454
-3.4493e-05
0.000203598
-6.42537e-05
0.000159853
-0.000101992
0.000115063
-0.000142686
7.02431e-05
-0.000178547
2.61524e-05
-0.000206318
-1.63626e-05
-0.000225161
-5.59962e-05
-0.000235165
-9.25547e-05
-0.000234634
-0.000127018
-0.000224396
-0.000159438
-0.000207195
-0.000189665
-0.000183993
-0.000217461
-0.000155401
-0.000242428
-0.000122065
-0.000264383
-8.45904e-05
-0.000283112
-4.36976e-05
-0.000298297
-4.95326e-08
-0.000309551
4.56045e-05
-0.000316509
9.24383e-05
-0.000318955
0.000139629
-0.000316761
0.000186273
-0.000309469
0.000230746
-0.000294995
0.000269017
-0.000269845
0.000294845
-0.000234425
0.000306194
-0.000191582
0.000304243
-0.000142985
0.000289393
-8.94461e-05
0.000262809
-3.34062e-05
0.000230547
2.1689e-05
0.000196469
8.19784e-05
0.000146339
0.000144134
8.88256e-05
0.00020211
3.27555e-05
0.000251539
-1.52829e-05
0.000289203
-5.08787e-05
0.000313096
-7.15154e-05
0.000322196
-7.70585e-05
0.000318897
-7.20189e-05
0.000307415
-6.33197e-05
0.000290233
-5.5636e-05
0.000269213
-5.20569e-05
0.000245675
-5.43403e-05
0.000220445
-6.30652e-05
0.000193887
-7.78767e-05
0.000166116
-9.76939e-05
0.000137349
-0.000120609
0.000107963
-0.000143602
7.80227e-05
-0.000163381
4.75792e-05
-0.000178688
1.71321e-05
-0.000188947
-1.25719e-05
-0.000193409
-4.12835e-05
-0.000191823
-6.88152e-05
-0.000184516
-9.49853e-05
-0.000171816
-0.000119617
-0.000154147
-0.000142465
-0.000132011
-0.000163128
-0.000105943
-0.000181378
-7.6348e-05
-0.000197053
-4.39292e-05
-0.0002099
-9.26443e-06
-0.000219675
2.7048e-05
-0.000226176
6.43075e-05
-0.000229297
0.000101706
-0.000228956
0.000138305
-0.000224888
0.000172867
-0.000216125
0.000203292
-0.000199901
0.000225402
-0.000175362
0.000236811
-0.000144727
0.00023857
-0.000109189
0.000231086
-7.05403e-05
0.000215218
-3.2524e-05
0.000193944
5.4301e-06
0.000167365
4.67888e-05
0.000135536
9.13636e-05
9.55988e-05
0.000133562
5.72356e-05
0.000169604
2.24273e-05
0.000197521
-6.0754e-06
0.000216223
-2.69339e-05
0.000225483
-4.02435e-05
0.000225933
-4.7288e-05
0.00021984
-5.10923e-05
0.000209568
-5.46037e-05
0.000196278
-5.93502e-05
0.000180814
-6.62789e-05
0.000163738
-7.57301e-05
0.000145341
-8.74422e-05
0.00012574
-0.000100637
0.000105046
-0.000114216
8.34374e-05
-0.000126927
6.11135e-05
-0.000137513
3.84276e-05
-0.000145105
1.56676e-05
-0.000149163
-6.862e-06
-0.000149436
-2.88592e-05
-0.000145839
-5.00571e-05
-0.000138396
-7.02805e-05
-0.000127178
-8.94533e-05
-0.000112287
-0.000107316
-9.41182e-05
-0.000123493
-7.30467e-05
-0.000137835
-4.94239e-05
-0.000150145
-2.3723e-05
-0.000160237
3.62233e-06
-0.000167926
3.21148e-05
-0.000173034
6.11092e-05
-0.000175382
8.98093e-05
-0.000174675
0.000117204
-0.000170236
0.000141813
-0.000160431
0.000161071
0.000172874
0.000378827
-0.000113596
0.000412448
-0.000148831
0.000424459
-0.000164965
0.000419308
-0.000163646
0.00040511
-0.000149312
0.000387307
-0.000124538
0.000368433
-9.16444e-05
0.000349392
-5.51511e-05
0.000329804
-2.13317e-05
0.000308767
3.28687e-06
0.000285236
1.45994e-05
0.000258364
1.17197e-05
0.000227543
-3.67135e-06
0.000192299
-2.90098e-05
0.000152291
-6.19848e-05
0.000109147
-9.95419e-05
6.53056e-05
-0.000134705
2.09242e-05
-0.000161936
-2.2543e-05
-0.000181693
-6.27822e-05
-0.000194925
-0.000100418
-0.000196998
-0.000136071
-0.000188744
-0.000169446
-0.00017382
-0.000200437
-0.000153002
-0.000228914
-0.000126924
-0.000254582
-9.63969e-05
-0.000277108
-6.20643e-05
-0.000296244
-2.45617e-05
-0.0003117
1.54059e-05
-0.000323161
5.70656e-05
-0.000330405
9.96826e-05
-0.000333177
0.000142401
-0.000330708
0.000183805
-0.000321013
0.000221051
-0.00030069
0.000248694
-0.000268495
0.000262649
-0.000226052
0.000263752
-0.000175634
0.000253825
-0.000119585
0.000233344
-6.4704e-05
0.000207928
-9.83184e-06
0.000175675
5.45573e-05
0.00013208
0.000124796
7.60997e-05
0.000190642
2.29798e-05
0.000247035
-2.36376e-05
0.000290624
-5.88717e-05
0.000319002
-7.92565e-05
0.000330836
-8.33496e-05
0.000328707
-7.49291e-05
0.000317459
-6.07717e-05
0.000300114
-4.59744e-05
0.000278832
-3.43535e-05
0.000255251
-2.84766e-05
0.000230471
-2.956e-05
0.000205025
-3.7619e-05
0.000178951
-5.18031e-05
0.000152019
-7.07619e-05
0.000124104
-9.26947e-05
9.55009e-05
-0.000114998
6.64498e-05
-0.00013433
3.68223e-05
-0.00014906
7.0889e-06
-0.000159214
-2.21847e-05
-0.000164136
-5.07293e-05
-0.000163278
-7.83634e-05
-0.000156882
-0.000104759
-0.00014542
-0.000129621
-0.000129285
-0.000152682
-0.00010895
-0.000173681
-8.49434e-05
-0.000192258
-5.77713e-05
-0.000208167
-2.80205e-05
-0.000221143
3.71219e-06
-0.000230924
3.68288e-05
-0.000237357
7.07407e-05
-0.000240375
0.000104724
-0.000239702
0.000137632
-0.000234252
0.000167417
-0.00022118
0.00019022
-0.000199289
0.000203511
-0.000170035
0.000207557
-0.00013452
0.000203055
-9.46402e-05
0.000191206
-5.32665e-05
0.000173844
-1.22097e-05
0.000152888
3.18353e-05
0.00012332
8.11026e-05
8.62685e-05
0.000127178
4.95237e-05
0.000167036
1.73769e-05
0.000198205
-8.74125e-06
0.000219286
-2.71561e-05
0.000229867
-3.75151e-05
0.000230809
-4.11856e-05
0.00022479
-4.12687e-05
0.00021443
-4.0733e-05
0.000201135
-4.13082e-05
0.000185959
-4.41745e-05
0.000169578
-4.98975e-05
0.000152287
-5.84392e-05
0.000134109
-6.9264e-05
0.000114948
-8.14771e-05
9.4757e-05
-9.40246e-05
7.36363e-05
-0.000105806
5.18325e-05
-0.000115709
2.96217e-05
-0.000122894
7.25516e-06
-0.000126797
-1.50398e-05
-0.000127141
-3.70162e-05
-0.000123863
-5.84087e-05
-0.000117004
-7.89287e-05
-0.000106658
-9.83099e-05
-9.29055e-05
-0.000116335
-7.60931e-05
-0.000132741
-5.66407e-05
-0.000147256
-3.49088e-05
-0.000159668
-1.13113e-05
-0.00016977
1.37241e-05
-0.000177365
3.97106e-05
-0.000182248
6.59922e-05
-0.000184047
9.16075e-05
-0.000181932
0.00011509
-0.000174017
0.000133898
-0.000159234
0.000146288
0.000152084
0.00041944
-0.000145709
0.000427607
-0.000156998
0.000416457
-0.000153815
0.00039462
-0.000141809
0.00036734
-0.000122032
0.00033962
-9.68171e-05
0.000314385
-6.64094e-05
0.000292959
-3.37254e-05
0.000274854
-3.22678e-06
0.000258672
1.94684e-05
0.000242133
3.11385e-05
0.000223388
3.04649e-05
0.000200939
1.87773e-05
0.000173723
-1.79346e-06
0.000140983
-2.92449e-05
0.000102613
-6.11717e-05
6.08531e-05
-9.29452e-05
1.92205e-05
-0.000120304
-2.26603e-05
-0.000139813
-6.54007e-05
-0.000152185
-0.000105779
-0.00015662
-0.000143113
-0.00015141
-0.000177569
-0.000139364
-0.000209245
-0.000121326
-0.000238063
-9.81065e-05
-0.000263845
-7.06141e-05
-0.00028635
-3.95595e-05
-0.000305406
-5.50629e-06
-0.000320948
3.09485e-05
-0.000333026
6.91435e-05
-0.000341635
0.000108292
-0.0003458
0.000146566
-0.00034185
0.000179854
-0.000325832
0.000205033
-0.000296903
0.000219765
-0.000255768
0.000221514
-0.000203938
0.000211922
-0.000146935
0.000196822
-8.62752e-05
0.000172683
-2.87309e-05
0.000150384
3.87402e-05
0.000108203
0.000115881
5.4939e-05
0.000187036
4.94475e-06
0.000247156
-3.71405e-05
0.000293043
-6.95242e-05
0.000322017
-8.7846e-05
0.000332817
-9.00559e-05
0.000329018
-7.95512e-05
0.000316237
-6.21476e-05
0.000297741
-4.22758e-05
0.000275906
-2.41396e-05
0.000252497
-1.09445e-05
0.000228644
-4.62369e-06
0.000204884
-5.79974e-06
0.000181259
-1.39947e-05
0.000157454
-2.79978e-05
0.000132884
-4.61922e-05
0.000107087
-6.68971e-05
8.02429e-05
-8.81544e-05
5.26621e-05
-0.000106749
2.42124e-05
-0.000120611
-4.38457e-06
-0.000130617
-3.25368e-05
-0.000135983
-6.04428e-05
-0.000135372
-8.78065e-05
-0.000129518
-0.00011406
-0.000119167
-0.000138827
-0.000104518
-0.00016181
-8.59674e-05
-0.000182731
-6.40227e-05
-0.000201301
-3.92007e-05
-0.000217231
-1.20911e-05
-0.000230185
1.66661e-05
-0.00023989
4.65341e-05
-0.000246247
7.70979e-05
-0.000249008
0.000107485
-0.000246976
0.0001356
-0.000236935
0.000157376
-0.000217459
0.000170744
-0.000189881
0.000175933
-0.000154962
0.000172638
-0.000114167
0.000162261
-6.9804e-05
0.000146842
-2.49673e-05
0.000129008
2.36607e-05
0.00010426
7.48238e-05
7.21568e-05
0.000123295
3.77974e-05
0.000165048
7.77098e-06
0.000197524
-1.50999e-05
0.000219118
-3.03345e-05
0.000229307
-3.73457e-05
0.000229433
-3.76405e-05
0.000222695
-3.44483e-05
0.00021185
-3.04237e-05
0.000198445
-2.73273e-05
0.00018362
-2.64834e-05
0.000168073
-2.86279e-05
0.00015211
-3.39345e-05
0.000135737
-4.20657e-05
0.000118745
-5.22719e-05
0.000100846
-6.35781e-05
8.18395e-05
-7.50183e-05
6.1756e-05
-8.57226e-05
4.08907e-05
-9.48438e-05
1.94536e-05
-0.000101457
-2.26792e-06
-0.000105075
-2.40295e-05
-0.000105379
-4.56807e-05
-0.000102212
-6.68811e-05
-9.58033e-05
-8.73127e-05
-8.6226e-05
-0.000106643
-7.35752e-05
-0.000124598
-5.81382e-05
-0.000140963
-4.02754e-05
-0.000155481
-2.03914e-05
-0.000167847
1.05529e-06
-0.000177773
2.36497e-05
-0.000185016
4.6954e-05
-0.000189137
7.01135e-05
-0.00018908
9.15504e-05
-0.000182649
0.000108659
-0.000168954
0.000120203
-0.000148873
0.000126207
0.00012664
0.000413902
-0.000147134
0.000397072
-0.000140168
0.000368896
-0.000125639
0.000333871
-0.000106784
0.000297167
-8.53282e-05
0.000262211
-6.18612e-05
0.000233036
-3.72339e-05
0.000210308
-1.09979e-05
0.000194287
1.27939e-05
0.000183945
2.98108e-05
0.000175612
3.94718e-05
0.000167439
3.86372e-05
0.000157007
2.92098e-05
0.000142231
1.29827e-05
0.000121909
-8.92294e-06
9.44455e-05
-3.37085e-05
5.98668e-05
-5.83665e-05
2.09997e-05
-8.14365e-05
-1.87712e-05
-0.000100042
-6.14104e-05
-0.000109546
-0.000104773
-0.000113257
-0.000144063
-0.000112121
-0.000180256
-0.000103171
-0.000213537
-8.80449e-05
-0.000243624
-6.80198e-05
-0.000270305
-4.3933e-05
-0.000293586
-1.6279e-05
-0.000313776
1.46837e-05
-0.000331267
4.84397e-05
-0.000345987
8.38638e-05
-0.000356437
0.000118741
-0.000356486
0.000146615
-0.000340895
0.000164263
-0.000310325
0.000174463
-0.00026922
0.00017866
-0.000217465
0.000169759
-0.000152219
0.000146677
-9.20294e-05
0.000136632
-2.45347e-05
0.000105188
5.14662e-05
7.4383e-05
0.000130153
2.95167e-05
0.000199958
-1.48665e-05
0.000257396
-5.24934e-05
0.000298847
-7.85907e-05
0.000320575
-9.12527e-05
0.000323497
-9.07682e-05
0.000313477
-8.00359e-05
0.000296509
-6.25832e-05
0.000275479
-4.11175e-05
0.000252701
-1.94979e-05
0.000229896
-1.33443e-06
0.000208048
1.09038e-05
0.000187467
1.59576e-05
0.000167916
1.37509e-05
0.000148848
5.07328e-06
0.000129616
-8.76548e-06
0.000109443
-2.60189e-05
8.74716e-05
-4.49262e-05
6.35254e-05
-6.42082e-05
3.83323e-05
-8.15556e-05
1.12106e-05
-9.34889e-05
-1.60613e-05
-0.000103345
-4.26665e-05
-0.000109378
-6.99079e-05
-0.000108131
-9.66547e-05
-0.000102771
-0.000122318
-9.35033e-05
-0.000146598
-8.02379e-05
-0.000169193
-6.33726e-05
-0.000189842
-4.33736e-05
-0.000208306
-2.07366e-05
-0.000224331
3.93409e-06
-0.00023752
2.98545e-05
-0.000247302
5.63169e-05
-0.00025304
8.28354e-05
-0.000253137
0.000107582
-0.000244627
0.000127089
-0.000226047
0.000138797
-0.000198385
0.000143082
-0.000163033
0.000140581
-0.000121195
0.0001308
-7.6651e-05
0.000117717
-3.11341e-05
0.000101326
1.98874e-05
7.7986e-05
7.34301e-05
5.07169e-05
0.00012389
2.16974e-05
0.000165615
-3.92803e-06
0.000196393
-2.30074e-05
0.000215369
-3.4076e-05
0.000222287
-3.72524e-05
0.000219598
-3.46566e-05
0.000211151
-2.91937e-05
0.00019945
-2.27467e-05
0.000186012
-1.69859e-05
0.000171867
-1.31828e-05
0.000157609
-1.22252e-05
0.000143506
-1.45249e-05
0.000129497
-1.99247e-05
0.000115272
-2.7841e-05
0.000100405
-3.74047e-05
8.44872e-05
-4.76608e-05
6.72191e-05
-5.77502e-05
4.85784e-05
-6.70819e-05
2.8901e-05
-7.51664e-05
8.35664e-06
-8.0913e-05
-1.23064e-05
-8.44123e-05
-3.31543e-05
-8.45313e-05
-5.43024e-05
-8.10636e-05
-7.50439e-05
-7.50618e-05
-9.5041e-05
-6.62289e-05
-0.000114027
-5.45897e-05
-0.00013176
-4.0405e-05
-0.000148002
-2.40333e-05
-0.000162419
-5.97443e-06
-0.000174534
1.31708e-05
-0.000183797
3.29126e-05
-0.000189595
5.27519e-05
-0.000190572
7.10907e-05
-0.000184734
8.57121e-05
-0.000171247
9.51713e-05
-0.000151286
0.000100242
-0.00012569
0.00010061
9.6834e-05
0.000348883
-0.000122271
0.000315604
-0.000106889
0.000277087
-8.71223e-05
0.00023738
-6.7077e-05
0.000199295
-4.72435e-05
0.000164519
-2.70855e-05
0.000137837
-1.05516e-05
0.000115328
1.15107e-05
9.97889e-05
2.83334e-05
9.00635e-05
3.95363e-05
8.62272e-05
4.3308e-05
8.70433e-05
3.78212e-05