/*--------------------------------*- C++ -*----------------------------------*\
| =========                 |                                                 |
| \\      /  F ield         | OpenFOAM: The Open Source CFD Toolbox           |
|  \\    /   O peration     | Version:  2206                                  |
|   \\  /    A nd           | Website:  www.openfoam.com                      |
|    \\/     M anipulation  |                                                 |
\*---------------------------------------------------------------------------*/
FoamFile
{
    version     2.0;
    format      ascii;
    arch        "LSB;label=32;scalar=64";
    class       surfaceScalarField;
    location    "18.9999";
    object      ddtCorrDdt0(phi);
}
// * * * * * * * * * * * * * * * * * * * * * * * * * * * * * * * * * * * * * //

dimensions      [0 3 -2 0 0 0 0];

oriented        oriented;

internalField   nonuniform List<scalar> 
9557
(
-0.000168424
-0.000172078
0.000340502
-0.000272448
-0.000261506
0.000365531
-0.000384671
-0.000355424
0.000467647
-0.000486493
-0.000474801
0.000576624
-0.000543019
-0.000622803
0.000679328
-0.000485163
-0.000750149
0.000692293
-0.000325813
-0.000788696
0.000629346
-0.000144167
-0.000705018
0.000523372
2.00743e-05
-0.000558727
0.000394486
0.000151765
-0.000401725
0.000270034
0.00024878
-0.000261631
0.000164617
0.000318286
-0.000149831
8.03243e-05
0.000375132
-6.44565e-05
7.61055e-06
0.000424152
8.83265e-06
-5.78528e-05
0.000457277
7.59649e-05
-0.000109089
0.000476323
0.00012838
-0.000147427
0.000487931
0.000165659
-0.000177267
0.00049944
0.000190026
-0.000201536
0.000511239
0.000209232
-0.000221031
0.000513302
0.000240286
-0.000242349
0.000512541
0.00028051
-0.000279748
0.000563573
0.000272907
-0.000323939
0.000718307
0.000161438
-0.000316172
0.000903699
2.40784e-05
-0.000209471
0.000931838
6.18289e-05
-8.99682e-05
0.000732456
0.000340988
-0.000141606
0.000414622
0.000726208
-0.000408374
7.84733e-05
0.00109152
-0.000755374
-0.000211407
0.00135649
-0.00106661
-0.000410297
0.00146514
-0.00126625
-0.00051692
0.00142349
-0.00131687
-0.000568054
0.00129878
-0.00124764
-0.000577998
0.00113151
-0.00112157
-0.000554898
0.000944348
-0.000967448
-0.000508619
0.000756339
-0.000802618
-0.00044828
0.000580613
-0.000640952
-0.000381861
0.000425997
-0.000492416
-0.000314978
0.000297496
-0.000364379
-0.000251476
0.000197025
-0.000260527
-0.000194057
0.000124764
-0.000182183
-0.00014476
7.93287e-05
-0.000128625
-0.000104831
5.73112e-05
-9.72403e-05
-7.34438e-05
5.35083e-05
-8.48954e-05
-4.59518e-05
6.43492e-05
-9.18412e-05
-1.81084e-05
9.50456e-05
-0.000122889
9.4765e-06
0.000146584
-0.000174169
3.15838e-05
0.000213837
-0.000235944
3.83503e-05
0.000275199
-0.000281965
2.72017e-05
0.00028601
-0.000274861
1.54593e-05
0.000235151
-0.000223408
7.70289e-06
0.000148228
-0.000140472
-2.78251e-05
3.34215e-05
2.10649e-06
-6.90031e-05
-0.000232621
0.000273799
-0.000101649
-0.000597238
0.000629884
-0.000139519
-0.000948986
0.000986856
-0.000178008
-0.00129366
0.00133214
-0.000215673
-0.00159864
0.0016363
-0.000248672
-0.00182809
0.00186108
-0.000264845
-0.00193529
0.00195146
-0.000264139
-0.00189519
0.00189448
-0.000246643
-0.0017633
0.0017458
-0.000214732
-0.00156048
0.00152857
-0.000172518
-0.00131316
0.00127095
-0.00012475
-0.00104862
0.00100085
-7.57537e-05
-0.000790809
0.000741813
-2.92349e-05
-0.000557137
0.000510618
1.17096e-05
-0.000357217
0.000316273
5.03599e-05
-0.000195467
0.000156817
9.24779e-05
-6.3551e-05
2.1433e-05
0.000129197
3.72523e-05
-7.39716e-05
0.000152059
0.000106785
-0.000129646
0.000167557
0.000139903
-0.000155401
0.00017872
0.000148695
-0.000159858
0.00018841
0.000142409
-0.000152099
0.000198203
0.000128952
-0.000138745
0.000208731
0.000111963
-0.000122491
0.000220856
9.25377e-05
-0.000104662
0.000235593
7.07375e-05
-8.54747e-05
0.000253616
4.68259e-05
-6.48492e-05
0.000274822
2.1807e-05
-4.30127e-05
0.000297724
-7.5991e-07
-2.21427e-05
0.000319483
-1.42174e-05
-7.54158e-06
0.000336558
-9.84159e-06
-7.23324e-06
0.000345807
2.0555e-05
-2.98034e-05
0.000345457
8.14528e-05
-8.11031e-05
0.000335439
0.000171502
-0.000161484
0.00031688
0.000283665
-0.000265106
0.000291245
0.000407385
-0.00038175
0.000259881
0.000531431
-0.000500067
0.00022338
0.000646739
-0.000610238
0.000181622
0.000747505
-0.000705747
0.000134367
0.000830497
-0.000783242
8.20219e-05
0.000893377
-0.000841032
2.45532e-05
0.000933834
-0.000876366
-3.26176e-05
0.000949468
-0.000892297
-8.62526e-05
0.000940203
-0.000886568
-0.00013704
0.000909883
-0.000859096
-0.00018146
0.000860852
-0.000816432
-0.000217861
0.000796483
-0.000760081
-0.000245485
0.000720791
-0.000693167
-0.000264134
0.000638397
-0.000619749
-0.000274212
0.000553884
-0.000543805
-0.000276592
0.00047137
-0.000468989
-0.000272343
0.000394213
-0.000398462
-0.000262619
0.000324967
-0.000334691
-0.000248616
0.000265311
-0.000279313
-0.000231358
0.000216115
-0.000233373
-0.000211586
0.000177729
-0.000197501
-0.000190042
0.000150254
-0.000171798
-0.000167932
0.000133252
-0.000155362
-0.000147113
0.000124635
-0.000145455
-0.000129266
0.000119663
-0.000137509
-0.000114707
0.00011235
-0.00012691
-0.000101986
9.8684e-05
-0.000111405
-8.91411e-05
7.8638e-05
-9.14827e-05
-7.67486e-05
5.54007e-05
-6.77932e-05
-6.99585e-05
2.80034e-05
-3.47935e-05
-6.58997e-05
-2.49331e-05
2.08743e-05
-5.7611e-05
-0.000102485
9.41957e-05
-5.24074e-05
-0.00018049
0.000175287
-4.9079e-05
-0.000268287
0.000264959
-4.72421e-05
-0.00036453
0.000362693
-4.66846e-05
-0.000466859
0.000466301
-4.72355e-05
-0.000572149
0.0005727
-4.86765e-05
-0.000676606
0.000678048
-5.07644e-05
-0.000775777
0.000777865
-5.32849e-05
-0.000864627
0.000867147
-5.59545e-05
-0.000937677
0.000940347
-5.80506e-05
-0.000988668
0.000990764
-5.76273e-05
-0.00100796
0.00100754
-5.46118e-05
-0.000993998
0.000990983
-4.86552e-05
-0.00095686
0.000950903
-3.98048e-05
-0.000899116
0.000890265
-2.84585e-05
-0.000824788
0.000813442
-1.52454e-05
-0.000738674
0.000725461
-8.79661e-07
-0.000645737
0.000631372
-0.000550611
0.000535778
-5.68759e-05
-0.000115202
-9.11687e-05
-0.000227214
-0.000129708
-0.000316885
-0.000188592
-0.000415917
-0.000278756
-0.000532639
-0.00036554
-0.000663365
-0.00035773
-0.000796505
-0.000233328
-0.00082942
-8.09025e-05
-0.000711152
5.97128e-05
-0.00054234
0.000174146
-0.000376064
0.000261323
-0.000237007
0.00032712
-0.000130254
0.000385096
-4.91434e-05
0.000438872
2.2188e-05
0.000479096
8.81567e-05
0.000511473
0.000133282
0.000536619
0.000164881
0.000547371
0.00019848
0.000551549
0.000236108
0.000603136
0.000228923
0.000760325
0.000115717
0.000962435
-4.06712e-05
0.00101586
-2.93479e-05
0.000835038
0.000242652
0.000517304
0.000658723
0.000175214
0.0010683
-0.000139319
0.00140605
-0.000380773
0.00159794
-0.000522503
0.00160687
-0.000595452
0.00149644
-0.000619019
0.00132234
-0.00060098
0.00111347
-0.000552501
0.000895869
-0.000485315
0.000689153
-0.000409797
0.000505095
-0.000333625
0.000349826
-0.00026089
0.000224761
-0.000194112
0.000130248
-0.00013523
6.58821e-05
-8.58785e-05
2.99772e-05
-4.65108e-05
1.79435e-05
-1.65418e-05
2.35394e-05
8.13783e-06
3.96695e-05
3.44992e-05
6.86842e-05
6.31719e-05
0.000117912
9.42578e-05
0.000182751
0.000118536
0.000250921
0.000119343
0.000285203
0.000105754
0.000248739
9.15482e-05
0.000162434
7.87956e-05
4.61741e-05
5.12516e-05
-0.000205077
9.02283e-06
-0.000555009
-3.90455e-05
-0.000900918
-9.04423e-05
-0.00124226
-0.00014468
-0.0015444
-0.000198778
-0.00177399
-0.000240413
-0.00189365
-0.000265682
-0.00186992
-0.000272489
-0.00175649
-0.000261023
-0.00157194
-0.000234304
-0.00133988
-0.000196848
-0.00108607
-0.000153326
-0.000834331
-0.000108743
-0.000601719
-6.76616e-05
-0.000398299
-3.19619e-05
-0.000231167
7.65498e-06
-0.000103168
5.58014e-05
-1.08942e-05
8.87388e-05
7.38472e-05
0.000111178
0.000117463
0.00012883
0.000131043
0.000143939
0.0001273
0.000158428
0.000114463
0.000173113
9.72788e-05
0.000189109
7.65413e-05
0.00020734
5.25063e-05
0.000228422
2.57446e-05
0.000251949
-1.72063e-06
0.000276181
-2.49915e-05
0.000298308
-3.63447e-05
0.000315265
-2.67988e-05
0.00032471
1.11101e-05
0.000325584
8.0579e-05
0.000317991
0.000179096
0.000302725
0.000298931
0.000280952
0.000429158
0.000253334
0.000559049
0.000219625
0.000680448
0.000179195
0.000787935
0.000131854
0.000877838
7.8337e-05
0.000946895
2.0488e-05
0.000991683
-3.73313e-05
0.00100729
-9.20937e-05
0.000994966
-0.000142106
0.000959896
-0.000185218
0.000903964
-0.000219792
0.000831057
-0.000245059
0.000746058
-0.000260928
0.000654267
-0.000267934
0.00056089
-0.000267076
0.000470511
-0.000259614
0.000386751
-0.000246867
0.00031222
-0.000230094
0.000248538
-0.000210357
0.000196378
-0.000188433
0.000155805
-0.000164773
0.000126595
-0.000140017
0.000108497
-0.000115685
0.000100303
-9.38803e-05
9.78583e-05
-7.5919e-05
9.43891e-05
-6.16187e-05
8.43837e-05
-4.91485e-05
6.61679e-05
-3.57478e-05
4.19999e-05
-2.57299e-05
1.79856e-05
-1.43472e-05
-3.63159e-05
-6.77663e-06
-0.000110055
-1.97527e-06
-0.000185292
9.95122e-07
-0.000271257
2.04814e-06
-0.000365583
9.32247e-07
-0.000465743
-2.45591e-06
-0.000568761
-8.01872e-06
-0.000671044
-1.55154e-05
-0.00076828
-2.45946e-05
-0.000855547
-3.47386e-05
-0.000927533
-4.50398e-05
-0.000978367
-5.33372e-05
-0.000999662
-5.89004e-05
-0.000988435
-6.11352e-05
-0.000954625
-5.98122e-05
-0.000900439
-5.50688e-05
-0.000829531
-4.73313e-05
-0.000746411
-3.71943e-05
-0.000655874
-0.000562493
-3.70668e-05
-7.8135e-05
-7.02062e-05
-0.000194074
-0.000100606
-0.000286486
-0.000117161
-0.000399361
-0.000137287
-0.000512513
-0.000180303
-0.000620349
-0.00023552
-0.000741289
-0.000221221
-0.000843719
-0.000121378
-0.000810996
-2.34643e-06
-0.000661371
0.000111019
-0.00048943
0.00020756
-0.000333548
0.000286411
-0.000209104
0.000351759
-0.000114491
0.000418268
-4.43208e-05
0.000481492
2.49323e-05
0.000531922
8.28524e-05
0.000555613
0.000141189
0.000567941
0.000186152
0.000623562
0.000180487
0.00078485
6.7636e-05
0.00100216
-0.000101593
0.00108026
-0.000118776
0.000922852
0.000128064
0.000612627
0.000552877
0.00028164
0.00098971
-5.0787e-05
0.00140072
-0.000339712
0.00169498
-0.000522688
0.00178092
-0.00062167
0.00170585
-0.000662191
0.00153696
-0.000652281
0.00131243
-0.000603417
0.00106461
-0.000528965
0.000821416
-0.000442188
0.000602376
-0.000354452
0.000417359
-0.000271956
0.00026733
-0.000196568
0.000149373
-0.000128691
6.23704e-05
-7.04063e-05
7.59772e-06
-2.40506e-05
-1.63786e-05
1.15975e-05
-1.77046e-05
4.00139e-05
-4.877e-06
6.31489e-05
1.65345e-05
8.6646e-05
4.51871e-05
0.000114527
9.00306e-05
0.000148467
0.000148811
0.000183852
0.000215536
0.000203843
0.000265212
0.000200271
0.000252312
0.000183548
0.000179157
0.000178913
5.08094e-05
0.000157216
-0.00018338
0.000108296
-0.000506089
5.37248e-05
-0.000846347
-7.71045e-06
-0.00118082
-7.56535e-05
-0.00147646
-0.000146966
-0.00170267
-0.000210444
-0.00183018
-0.000257561
-0.0018228
-0.000286067
-0.00172798
-0.000294537
-0.00156347
-0.000284495
-0.00134992
-0.00025962
-0.00111095
-0.000224972
-0.000868979
-0.00018549
-0.000641201
-0.000144875
-0.000438915
-0.000105201
-0.000270841
-6.51263e-05
-0.000143242
-2.05291e-05
-5.54913e-05
2.41058e-05
2.92122e-05
5.33324e-05
8.82368e-05
7.70088e-05
0.000107367
9.73262e-05
0.000106982
0.000116285
9.55049e-05
0.000134909
7.86547e-05
0.000154433
5.70171e-05
0.000175705
3.12339e-05
0.000199209
2.24135e-06
0.00022434
-2.68518e-05
0.000249278
-4.99302e-05
0.000271436
-5.85026e-05
0.000288336
-4.36983e-05
0.00029838
1.06541e-06
0.000300908
7.80514e-05
0.000295904
0.0001841
0.000284153
0.000310681
0.000266336
0.000446975
0.000242253
0.000583132
0.00021112
0.000711581
0.000172202
0.000826853
0.000125526
0.000924513
7.22548e-05
0.00100017
1.47917e-05
0.00104915
-4.25948e-05
0.00106467
-9.67595e-05
0.00104913
-0.000145279
0.00100842
-0.000186145
0.00094483
-0.000217979
0.000862891
-0.000240191
0.00076827
-0.000252872
0.000666948
-0.000256696
0.000564715
-0.000252722
0.000466536
-0.000242211
0.00037624
-0.000226557
0.000296565
-0.00020712
0.000229101
-0.000185133
0.000174391
-0.000161456
0.000132128
-0.000136453
0.000101591
-0.000110415
8.24586e-05
-8.4269e-05
7.4157e-05
-5.95054e-05
7.30948e-05
-3.79141e-05
7.27977e-05
-2.04317e-05
6.69013e-05
-7.54579e-06
5.32819e-05
4.29877e-06
3.01554e-05
1.97114e-05
2.57298e-06
3.42725e-05
-5.0877e-05
4.01e-05
-0.000115882
4.49467e-05
-0.000190138
4.78854e-05
-0.000274196
4.8303e-05
-0.000366001
4.56609e-05
-0.000463101
3.96875e-05
-0.000562788
3.03861e-05
-0.000661742
1.7999e-05
-0.000755893
2.99589e-06
-0.000840544
-1.39276e-05
-0.00091061
-3.16664e-05
-0.000960628
-4.78282e-05
-0.0009835
-6.12757e-05
-0.000974988
-7.11461e-05
-0.000944755
-7.69648e-05
-0.00089462
-7.86149e-05
-0.000827881
-7.63095e-05
-0.000748717
-7.05006e-05
-0.000661683
-0.000571192
-2.46641e-05
-5.34709e-05
-5.88386e-05
-0.0001599
-9.43436e-05
-0.000250981
-0.000114686
-0.000379019
-0.000123449
-0.00050375
-0.000120164
-0.000623634
-0.000139165
-0.000722288
-0.000154357
-0.000828527
-0.000113029
-0.000852324
-3.13653e-05
-0.000743035
6.64742e-05
-0.000587269
0.000163536
-0.00043061
0.000252576
-0.000298144
0.000334827
-0.000196743
0.000399702
-0.000109195
0.000464074
-3.94392e-05
0.000522221
2.47052e-05
0.000552956
0.000110454
0.000625224
0.000113884
0.00079738
8.33039e-06
0.00102191
-0.000156889
0.00111293
-0.000192617
0.000975776
1.83781e-05
0.000686285
0.000417556
0.000380988
0.000858174
4.02669e-05
0.00133043
-0.00029408
0.00173507
-0.000520099
0.001921
-0.000648913
0.00190973
-0.000706668
0.00176361
-0.000706256
0.00153655
-0.000658969
0.00126515
-0.000578418
0.000984057
-0.000479662
0.00072266
-0.000377148
0.000499862
-0.000281052
0.000321264
-0.000197349
0.000183627
-0.000122823
7.48468e-05
-5.56723e-05
-4.78062e-06
2.04556e-07
-4.82791e-05
4.2142e-05
-5.8316e-05
7.13715e-05
-4.69341e-05
9.29774e-05
-2.64829e-05
0.000113607
-4.09531e-06
0.000136657
2.21379e-05
0.000164884
6.18029e-05
0.000198999
0.000114696
0.000237708
0.000176828
0.000271688
0.000231231
0.000283985
0.000240015
0.000279404
0.000183737
0.000269481
6.07325e-05
0.000245457
-0.000159356
0.000196596
-0.000457228
0.0001371
-0.00078685
6.73901e-05
-0.00111111
-1.15475e-05
-0.00139752
-9.618e-05
-0.00161804
-0.000178014
-0.00174834
-0.000242952
-0.00175786
-0.00029018
-0.00168076
-0.000316768
-0.00153689
-0.000323065
-0.00134363
-0.000311786
-0.00112223
-0.000287146
-0.000893619
-0.000252972
-0.000675375
-0.000212059
-0.000479828
-0.00016717
-0.00031573
-0.000123837
-0.000186575
-8.73046e-05
-9.20235e-05
-4.44585e-05
-1.36338e-05
-6.70596e-06
5.04843e-05
2.33872e-05
7.72737e-05
4.91987e-05
8.11707e-05
7.26285e-05
7.20751e-05
9.489e-05
5.63933e-05
0.000117325
3.45818e-05
0.00014089
7.66889e-06
0.000166062
-2.29303e-05
0.000192115
-5.29051e-05
0.000217255
-7.50704e-05
0.00023913
-8.03771e-05
0.000255787
-6.03559e-05
0.000266337
-9.48417e-06
0.000270358
7.40303e-05
0.000268059
0.000186399
0.000259916
0.000318825
0.000245873
0.000461018
0.000225182
0.000603823
0.00019679
0.000739973
0.000159989
0.000863655
0.000114958
0.000969545
6.30728e-05
0.00105205
7.08896e-06
0.00110513
-4.83448e-05
0.00112011
-0.000100104
0.00110089
-0.000145637
0.00105395
-0.000183028
0.000982221
-0.000211139
0.000891001
-0.00022961
0.000786742
-0.000238722
0.00067606
-0.000239284
0.000565276
-0.000232397
0.00045965
-0.000219302
0.000363145
-0.00020134
0.000278603
-0.000179802
0.000207564
-0.000155874
0.000150463
-0.000130711
0.000106964
-0.000104969
7.58494e-05
-7.82196e-05
5.57096e-05
-5.19878e-05
4.79252e-05
-2.64087e-05
4.75157e-05
-2.1735e-06
4.85626e-05
1.84454e-05
4.62824e-05
3.50371e-05
3.66903e-05
4.80344e-05
1.71581e-05
6.45593e-05
-1.3952e-05
7.53275e-05
-6.16452e-05
8.26386e-05
-0.000123194
8.80641e-05
-0.000195564
9.08985e-05
-0.000277031
9.05003e-05
-0.000365602
8.63296e-05
-0.00045893
7.80147e-05
-0.000554473
6.54472e-05
-0.000649175
4.88402e-05
-0.000739286
2.87228e-05
-0.000820427
5.9301e-06
-0.000887817
-1.82096e-05
-0.000936489
-4.12109e-05
-0.000960499
-6.16433e-05
-0.000954555
-7.83827e-05
-0.000928015
-9.07396e-05
-0.000882263
-9.83861e-05
-0.000820235
-0.000101338
-0.000745765
-9.98819e-05
-0.000663139
-0.000576523
-2.15096e-05
-4.7274e-05
-6.5315e-05
-9.06022e-05
-0.00010767
-0.000110927
-9.62092e-05
-0.000103791
-9.41612e-05
-4.5887e-05
2.96392e-05
0.000117605
0.000207503
0.000290626
0.000359284
0.000422008
0.000496413
0.000615882
0.000807549
0.0010184
0.00109928
0.000977532
0.000722295
0.000447642
0.000105427
-0.000263077
-0.000523638
-0.000685618
-0.000758271
-0.000764509
-0.000716734
-0.000630065
-0.000520439
-0.000402779
-0.000290793
-0.000192831
-0.000111064
-3.89537e-05
2.43006e-05
7.18342e-05
0.000103002
0.000126167
0.000146388
0.000165179
0.00018453
0.000210205
0.000244159
0.00028503
0.000326285
0.000352221
0.000359114
0.000351157
0.000322867
0.000273174
0.000208489
0.000131695
4.43738e-05
-5.00064e-05
-0.000143963
-0.000223158
-0.000285937
-0.000328213
-0.00034909
-0.000350164
-0.000334464
-0.000305627
-0.000267497
-0.000224393
-0.000180815
-0.000142462
-0.000105141
-6.38341e-05
-2.81049e-05
2.23159e-06
2.93205e-05
5.42325e-05
7.83842e-05
0.000103285
0.000129369
0.000155714
0.000180673
0.000201699
0.000217177
0.000227679
0.000233229
0.000233642
0.000228781
0.000218224
0.000200873
0.000175556
0.000141631
9.9384e-05
5.03498e-05
-2.48295e-06
-5.40919e-05
-0.000101552
-0.000142382
-0.000174882
-0.000198199
-0.000212215
-0.000217393
-0.000214649
-0.000205093
-0.000189888
-0.000170248
-0.000147358
-0.000122316
-9.6031e-05
-7.01787e-05
-4.46327e-05
-1.929e-05
6.91296e-06
3.30205e-05
5.54666e-05
7.38752e-05
8.92336e-05
0.000103243
0.00011414
0.000121951
0.000127058
0.00012917
0.000127692
0.00012201
0.000111623
9.63071e-05
7.62071e-05
5.18497e-05
-0.000796069
2.41541e-05
-0.000860122
-5.2054e-06
-0.000907129
-3.41057e-05
-0.000931599
-6.04786e-05
-0.000928182
-8.32247e-05
-0.000905269
-0.000101416
-0.000864072
-0.000114527
-0.000807124
-0.000122409
-0.000737883
-0.000125219
-0.000660329
-0.000578414
7.20149e-05
4.06672e-05
6.87026e-06
-2.67026e-05
-5.78563e-05
-8.56034e-05
-0.000108795
-0.000126698
-0.000138991
-0.000145707
7.52949e-06
1.45437e-06
1.38743e-06
6.14205e-06
1.85101e-05
2.07864e-06
2.7321e-06
1.71654e-05
2.78115e-05
1.02772e-06
2.04016e-06
2.85034e-05
3.39727e-05
-1.00934e-06
1.46653e-07
3.58662e-05
3.7705e-05
-3.70094e-06
-2.51062e-06
4.03623e-05
3.97159e-05
-6.7836e-06
-5.61312e-06
4.28184e-05
4.11101e-05
-1.01966e-05
-9.06162e-06
4.45586e-05
4.25808e-05
-1.40282e-05
-1.29384e-05
4.64576e-05
4.40068e-05
-1.83568e-05
-1.73225e-05
4.83908e-05
4.5313e-05
-2.32607e-05
-2.22925e-05
5.0283e-05
4.6536e-05
-2.8845e-05
-2.79556e-05
5.21991e-05
4.76706e-05
-3.52405e-05
-3.44448e-05
5.41598e-05
4.86992e-05
-4.26067e-05
-4.19206e-05
5.61751e-05
4.96005e-05
-5.11388e-05
-5.05779e-05
5.82579e-05
5.03599e-05
-6.10758e-05
-6.06498e-05
6.04318e-05
5.09768e-05
-7.27218e-05
-7.24245e-05
6.27514e-05
5.14506e-05
-8.64501e-05
-8.62499e-05
6.5276e-05
5.18629e-05
-0.000102731
-0.000102522
6.81354e-05
5.22631e-05
-0.000122185
-0.00012187
7.16103e-05
5.29651e-05
-0.000145627
-0.000145079
7.61748e-05
5.4542e-05
-0.000174544
-0.000172847
8.23093e-05
5.63407e-05
-0.000209906
-0.000206285
8.97791e-05
5.94795e-05
-0.000252779
-0.000246676
9.98701e-05
6.74567e-05
-0.000299445
-0.000289721
0.000110502
8.00316e-05
-0.0003385
-0.000321782
0.000112092
7.46791e-05
-0.000367241
-0.000350972
0.000103869
-5.54082e-05
-0.00037668
-0.000366925
-3.94547e-05
-0.000204968
-0.000312919
-0.000326418
-0.000245475
-0.00041183
-0.00015858
-0.000192885
-0.000545363
-0.000419554
-0.00061244
4.92599e-06
1.21607e-06
3.96356e-06
9.62419e-07
3.2966e-06
6.66944e-07
2.93114e-06
3.65453e-07
2.82303e-06
1.08129e-07
2.89514e-06
-7.21114e-08
3.09743e-06
-2.02297e-07
3.33329e-06
-2.35867e-07
3.44061e-06
-1.07288e-07
3.27803e-06
1.6257e-07
2.7356e-06
5.42422e-07
1.83415e-06
9.01446e-07
5.25345e-07
1.30882e-06
-2.01175e-06
2.53709e-06
-6.23214e-06
4.22038e-06
-1.24608e-05
6.22869e-06
-2.13457e-05
8.88489e-06
-3.37671e-05
1.24214e-05
-5.00341e-05
1.62671e-05
-5.99132e-05
9.87902e-06
-6.94846e-05
9.57148e-06
-7.55377e-05
6.0531e-06
-7.74903e-05
1.95262e-06
-7.63865e-05
-1.10386e-06
-7.32869e-05
-3.09953e-06
-6.90963e-05
-4.19059e-06
-6.46023e-05
-4.49409e-06
-6.062e-05
-3.98221e-06
-5.77322e-05
-2.8878e-06
-5.62789e-05
-1.4533e-06
-5.6465e-05
1.8609e-07
-5.62121e-05
-2.52909e-07
-5.34739e-05
-2.73821e-06
-4.69975e-05
-6.47639e-06
-3.43828e-05
-1.26146e-05
-1.15003e-05
-2.28826e-05
1.72765e-05
-2.87768e-05
4.86337e-05
-3.13572e-05
7.94152e-05
-3.07815e-05
0.000106045
-2.66294e-05
0.000122965
-1.69209e-05
0.000130871
-7.90592e-06
0.000126819
4.05219e-06
0.000110579
1.62401e-05
8.27171e-05
2.7862e-05
4.68362e-05
3.58809e-05
4.5012e-06
4.2335e-05
-2.46407e-05
2.91419e-05
-5.22693e-05
2.76285e-05
-7.46707e-05
2.24014e-05
-9.01515e-05
1.54808e-05
-9.86042e-05
8.45265e-06
-0.000101448
2.84367e-06
-9.96586e-05
-1.78921e-06
-9.51671e-05
-4.49155e-06
-8.77024e-05
-7.46467e-06
-7.73884e-05
-1.0314e-05
-6.35475e-05
-1.38409e-05
-4.43459e-05
-1.92016e-05
-2.09572e-05
-2.33888e-05
6.34902e-06
-2.73062e-05
4.09672e-05
-3.46182e-05
7.62688e-05
-3.53016e-05
0.000119097
-4.28278e-05
0.000164228
-4.51317e-05
0.000205624
-4.13955e-05
0.000233691
-2.80676e-05
0.0002392
-5.50908e-06
0.000228288
1.09122e-05
0.000191925
3.63628e-05
0.000134917
5.70088e-05
6.13642e-05
7.35524e-05
1.00501e-05
5.13141e-05
-4.43827e-05
5.44329e-05
-8.97637e-05
4.53809e-05
-0.000123613
3.3849e-05
-0.000144463
2.08506e-05
-0.000152427
7.96352e-06
-0.000152246
-1.80519e-07
-0.000147744
-4.50257e-06
-0.000139348
-8.3961e-06
-0.00012703
-1.2318e-05
-0.000111725
-1.5305e-05
-9.50351e-05
-1.66894e-05
-7.82857e-05
-1.67494e-05
-6.21729e-05
-1.61128e-05
-4.69701e-05
-1.52029e-05
-3.26302e-05
-1.43399e-05
-1.85009e-05
-1.41292e-05
-3.26869e-06
-1.52322e-05
9.37321e-06
-1.26419e-05
2.27756e-05
-1.34024e-05
3.51997e-05
-1.24241e-05
4.66429e-05
-1.14432e-05
5.71402e-05
-1.04973e-05
6.62213e-05
-9.08107e-06
7.30284e-05
-6.80706e-06
7.7242e-05
-4.21363e-06
7.87969e-05
-1.55493e-06
7.72514e-05
1.54551e-06
7.25647e-05
4.68672e-06
6.49081e-05
7.65651e-06
5.43298e-05
1.05783e-05
4.12475e-05
1.30823e-05
2.60717e-05
1.51758e-05
8.22648e-06
1.78452e-05
-4.68171e-06
1.29082e-05
-1.99516e-05
1.52699e-05
-3.43955e-05
1.44439e-05
-4.72285e-05
1.2833e-05
-5.76133e-05
1.03847e-05
-6.51144e-05
7.50117e-06
-6.95363e-05
4.4219e-06
-7.09749e-05
1.43855e-06
-6.98565e-05
-1.11832e-06
-6.65873e-05
-3.26926e-06
-6.15011e-05
-5.0862e-06
-5.49055e-05
-6.59555e-06
-4.66514e-05
-8.25417e-06
-3.63884e-05
-1.02629e-05
-2.49246e-05
-1.14638e-05
-1.281e-05
-1.21146e-05
1.4652e-07
-1.29565e-05
1.38134e-05
-1.36669e-05
2.58262e-05
-1.20127e-05
3.87282e-05
-1.2902e-05
5.19726e-05
-1.32444e-05
6.47656e-05
-1.2793e-05
7.60333e-05
-1.12677e-05
8.54025e-05
-9.36924e-06
9.26429e-05
-7.24042e-06
9.66055e-05
-3.96259e-06
9.70331e-05
-4.27622e-07
9.38241e-05
3.20904e-06
8.65701e-05
7.25399e-06
7.50734e-05
1.14966e-05
1.52357e-05
1.50099e-05
3.37154e-06
1.20214e-05
3.95094e-06
8.17575e-06
4.51258e-06
3.4652e-06
5.07601e-06
-2.09099e-06
5.66432e-06
-8.44692e-06
6.28381e-06
-1.56222e-05
6.97299e-06
-2.35599e-05
7.70183e-06
-3.21066e-05
8.43943e-06
-4.10705e-05
9.12642e-06
-5.02292e-05
9.70117e-06
-5.95637e-05
1.02359e-05
-6.90541e-05
1.07992e-05
-7.78539e-05
1.1337e-05
-8.55829e-05
1.19494e-05
-9.22599e-05
1.29057e-05
-9.70831e-05
1.37081e-05
-9.782e-05
1.31582e-05
-9.24718e-05
1.09189e-05
-8.94132e-05
6.82041e-06
-8.26508e-05
2.80901e-06
-7.47705e-05
-1.82721e-06
-6.6695e-05
-6.12282e-06
-5.83883e-05
-9.41062e-06
-5.00718e-05
-1.1416e-05
-4.21347e-05
-1.21276e-05
-3.50296e-05
-1.15992e-05
-2.91544e-05
-9.85741e-06
-2.50195e-05
-7.02273e-06
-2.28782e-05
-3.59463e-06
-2.12904e-05
-1.40169e-06
-1.94549e-05
-2.08836e-06
-1.64187e-05
-5.77442e-06
-1.28797e-05
-1.00154e-05
-7.5634e-06
-1.7931e-05
4.89117e-06
-3.53371e-05
2.55955e-05
-4.94811e-05
4.94674e-05
-5.52291e-05
6.9958e-05
-5.12721e-05
8.26782e-05
-3.93496e-05
8.96055e-05
-2.38481e-05
8.85711e-05
-6.87152e-06
7.98727e-05
1.27505e-05
6.29387e-05
3.31741e-05
3.86372e-05
5.21635e-05
1.03591e-05
6.4159e-05
-1.84339e-05
7.11279e-05
-4.16581e-05
5.23662e-05
-5.97254e-05
4.56958e-05
-7.2805e-05
3.54811e-05
-7.88781e-05
2.15539e-05
-7.78432e-05
7.41767e-06
-7.27725e-05
-2.22702e-06
-6.61115e-05
-8.45016e-06
-5.74098e-05
-1.31933e-05
-4.52804e-05
-1.95941e-05
-3.2059e-05
-2.35354e-05
-1.7437e-05
-2.84629e-05
-1.32457e-06
-3.5314e-05
1.56956e-05
-4.04089e-05
3.31776e-05
-4.47883e-05
5.3585e-05
-5.50255e-05
8.26139e-05
-6.43305e-05
0.000123683
-8.38973e-05
0.000166199
-8.76469e-05
0.000189853
-6.50496e-05
0.000191225
-2.94401e-05
0.00018262
3.09618e-06
0.000160842
3.26898e-05
0.000120173
7.70319e-05
7.0106e-05
0.000107076
2.15816e-05
0.000122077
-3.93835e-05
0.000112279
-8.54458e-05
0.000100495
-0.000121693
8.16279e-05
-0.00014745
5.96061e-05
-0.000162487
3.58882e-05
-0.000167041
1.25169e-05
-0.00016443
-2.79159e-06
-0.000156572
-1.23601e-05
-0.000144378
-2.05903e-05
-0.000128002
-2.86937e-05
-0.000108764
-3.4543e-05
-8.78846e-05
-3.75692e-05
-6.65509e-05
-3.80831e-05
-4.59798e-05
-3.66839e-05
-2.70168e-05
-3.41659e-05
-9.98888e-06
-3.13678e-05
5.63812e-06
-2.97562e-05
2.14479e-05
-3.10421e-05
3.56474e-05
-2.68414e-05
4.80618e-05
-2.58167e-05
5.94872e-05
-2.38495e-05
6.98601e-05
-2.18161e-05
7.92121e-05
-1.98493e-05
8.70994e-05
-1.69684e-05
9.21264e-05
-1.18341e-05
9.36534e-05
-5.74056e-06
9.18073e-05
2.91174e-07
8.64199e-05
6.93287e-06
7.74235e-05
1.36831e-05
6.48744e-05
2.02057e-05
4.98629e-05
2.55898e-05
3.39764e-05
2.89688e-05
1.82312e-05
3.0921e-05
3.2088e-06
3.28676e-05
-1.49239e-05
3.10409e-05
-3.08079e-05
3.11539e-05
-4.56707e-05
2.93067e-05
-5.85747e-05
2.5737e-05
-6.89452e-05
2.07552e-05
-7.64026e-05
1.49586e-05
-8.08092e-05
8.82847e-06
-8.21493e-05
2.77864e-06
-8.08389e-05
-2.42872e-06
-7.71678e-05
-6.94031e-06
-7.13591e-05
-1.08949e-05
-6.41842e-05
-1.37704e-05
-5.4748e-05
-1.76904e-05
-4.0521e-05
-2.44899e-05
-2.41779e-05
-2.7807e-05
-7.17835e-06
-2.91142e-05
9.67151e-06
-2.98064e-05
2.77554e-05
-3.17509e-05
4.57083e-05
-2.99656e-05
6.20227e-05
-2.92165e-05
7.65562e-05
-2.77778e-05
8.92881e-05
-2.55249e-05
9.83854e-05
-2.0365e-05
0.000104389
-1.53724e-05
0.000108818
-1.16698e-05
0.000108939
-4.08376e-06
0.000105187
3.32417e-06
9.73428e-05
1.10536e-05
8.47388e-05
1.98579e-05
6.83158e-05
2.79197e-05
3.38715e-05
2.87224e-05
3.1525e-06
2.83589e-05
4.31448e-06
2.73269e-05
5.54457e-06
2.55567e-05
6.84621e-06
2.2997e-05
8.224e-06
1.96102e-05
9.6706e-06
1.54136e-05
1.11697e-05
1.04273e-05
1.26881e-05
4.71025e-06
1.41564e-05
-1.72103e-06
1.55577e-05
-8.83828e-06
1.68184e-05
-1.65008e-05
1.78984e-05
-2.44949e-05
1.87933e-05
-3.27041e-05
1.95462e-05
-4.07205e-05
1.99657e-05
-4.76898e-05
1.98749e-05
-5.31325e-05
1.91508e-05
-5.7424e-05
1.74497e-05
-6.09536e-05
1.44486e-05
-6.40342e-05
9.90102e-06
-6.57375e-05
4.51227e-06
-6.66596e-05
-9.05066e-07
-6.68053e-05
-5.97717e-06
-6.58697e-05
-1.03462e-05
-6.3528e-05
-1.37577e-05
-5.96416e-05
-1.6014e-05
-5.41661e-05
-1.70748e-05
-4.67438e-05
-1.72796e-05
-3.65439e-05
-1.72226e-05
-2.27602e-05
-1.73784e-05
-5.34419e-06
-1.88177e-05
1.60279e-05
-2.34605e-05
3.87156e-05
-2.84621e-05
5.96806e-05
-3.09804e-05
7.81359e-05
-3.63862e-05
8.5142e-05
-4.23433e-05
7.98281e-05
-4.41672e-05
6.47487e-05
-4.01497e-05
4.51151e-05
-3.16385e-05
2.63959e-05
-2.06304e-05
1.1762e-05
-9.21417e-06
-2.06439e-07
5.0969e-06
-1.14953e-05
2.40394e-05
-2.32776e-05
4.49564e-05
-3.36686e-05
6.25545e-05
-4.22538e-05
7.27442e-05
-4.71734e-05
7.60476e-05
-5.32253e-05
5.84181e-05
-5.17244e-05
4.41949e-05
-4.76745e-05
3.14312e-05
-4.22786e-05
1.61581e-05
-2.9763e-05
-5.09792e-06
-1.50826e-05
-1.69075e-05
3.02397e-07
-2.38351e-05
1.63827e-05
-2.92736e-05
3.3647e-05
-3.68584e-05
5.20364e-05
-4.19248e-05
7.07954e-05
-4.72218e-05
8.5539e-05
-5.00576e-05
9.5159e-05
-5.00289e-05
9.8681e-05
-4.83102e-05
9.58853e-05
-5.22299e-05
9.27477e-05
-6.1193e-05
9.03223e-05
-8.14719e-05
8.9878e-05
-8.72026e-05
8.43588e-05
-5.95304e-05
7.37854e-05
-1.88667e-05
6.49978e-05
1.18838e-05
5.18246e-05
4.5863e-05
3.49385e-05
9.39179e-05
1.62446e-05
0.00012577
-5.49788e-06
0.000143819
-3.70486e-05
0.00014383
-6.51435e-05
0.00012859
-9.00027e-05
0.000106487
-0.00011082
8.04237e-05
-0.000125521
5.05888e-05
-0.000130956
1.79519e-05
-0.000134508
7.60552e-07
-0.000136798
-1.00702e-05
-0.000136368
-2.10208e-05
-0.000129222
-3.58392e-05
-0.000117943
-4.58222e-05
-0.000103225
-5.22867e-05
-8.51223e-05
-5.61861e-05
-6.44079e-05
-5.73984e-05
-4.21588e-05
-5.6415e-05
-1.92611e-05
-5.42655e-05
2.78912e-06
-5.18064e-05
2.21183e-05
-5.03713e-05
4.19383e-05
-4.66613e-05
5.67159e-05
-4.05944e-05
6.55911e-05
-3.27247e-05
6.884e-05
-2.50651e-05
6.89601e-05
-1.99694e-05
6.76561e-05
-1.56644e-05
6.36862e-05
-7.86419e-06
5.92115e-05
-1.26587e-06
5.62705e-05
3.2322e-06
5.25298e-05
1.06736e-05
4.79284e-05
1.82845e-05
4.2099e-05
2.60351e-05
3.49178e-05
3.27709e-05
2.66755e-05
3.72111e-05
1.78374e-05
3.97591e-05
8.65466e-06
4.20504e-05
-2.20981e-06
4.19054e-05
-1.18072e-05
4.07513e-05
-1.9937e-05
3.74364e-05
-2.68262e-05
3.26262e-05
-3.23001e-05
2.62291e-05
-3.577e-05
1.84285e-05
-3.70303e-05
1.00888e-05
-3.6723e-05
2.47135e-06
-3.59225e-05
-3.22921e-06
-3.50012e-05
-7.86161e-06
-3.33451e-05
-1.2551e-05
-3.11776e-05
-1.5938e-05
-2.85482e-05
-2.03197e-05
-2.47906e-05
-2.82475e-05
-1.9118e-05
-3.34796e-05
-1.16963e-05
-3.65359e-05
-3.08319e-06
-3.84195e-05
4.9411e-06
-3.97752e-05
1.55103e-05
-4.05348e-05
2.86057e-05
-4.23119e-05
4.39312e-05
-4.31033e-05
6.03082e-05
-4.19019e-05
7.61561e-05
-3.6213e-05
8.88566e-05
-2.80729e-05
9.63628e-05
-1.9176e-05
9.66649e-05
-4.38591e-06
9.43806e-05
5.60854e-06
9.029e-05
1.51442e-05
8.14756e-05
2.86723e-05
6.82643e-05
4.1131e-05
4.93214e-05
3.75431e-05
1.47564e-06
3.89006e-05
2.95696e-06
3.98604e-05
4.58471e-06
4.03509e-05
6.35575e-06
4.03154e-05
8.25952e-06
3.97116e-05
1.02743e-05
3.85137e-05
1.23676e-05
3.67068e-05
1.4495e-05
3.42705e-05
1.65927e-05
3.12331e-05
1.85951e-05
2.76161e-05
2.04354e-05
2.34679e-05
2.20466e-05
1.88742e-05
2.3387e-05
1.39853e-05