/*--------------------------------*- C++ -*----------------------------------*\
| =========                 |                                                 |
| \\      /  F ield         | OpenFOAM: The Open Source CFD Toolbox           |
|  \\    /   O peration     | Version:  2206                                  |
|   \\  /    A nd           | Website:  www.openfoam.com                      |
|    \\/     M anipulation  |                                                 |
\*---------------------------------------------------------------------------*/
FoamFile
{
    version     2.0;
    format      ascii;
    arch        "LSB;label=32;scalar=64";
    class       volVectorField;
    location    "18.9999";
    object      U;
}
// * * * * * * * * * * * * * * * * * * * * * * * * * * * * * * * * * * * * * //

dimensions      [0 1 -1 0 0 0 0];

internalField   nonuniform List<vector> 
4866
(
(0.0576212 -0.352141 0)
(0.137179 -0.350519 0)
(0.295094 -0.291719 0)
(0.478052 -0.188632 0)
(0.676567 -0.0399623 0)
(0.885565 0.14483 0)
(1.08417 0.346065 0)
(1.24463 0.536478 0)
(1.35758 0.699637 0)
(1.42541 0.826391 0)
(1.4572 0.91645 0)
(1.46295 0.974813 0)
(1.45133 1.0078 0)
(1.42442 1.02097 0)
(1.38602 1.01346 0)
(1.33989 0.990607 0)
(1.28989 0.957828 0)
(1.23912 0.919005 0)
(1.18893 0.87719 0)
(1.13937 0.834671 0)
(1.09096 0.791536 0)
(1.04514 0.745629 0)
(1.00016 0.698532 0)
(0.945938 0.661181 0)
(0.871013 0.644718 0)
(0.782351 0.639661 0)
(0.707223 0.6143 0)
(0.664955 0.545161 0)
(0.660837 0.431536 0)
(0.690456 0.28118 0)
(0.747941 0.111564 0)
(0.818652 -0.0582731 0)
(0.895536 -0.215377 0)
(0.973853 -0.353957 0)
(1.04963 -0.470891 0)
(1.11999 -0.565397 0)
(1.18315 -0.638404 0)
(1.23827 -0.692103 0)
(1.28525 -0.729454 0)
(1.32447 -0.753766 0)
(1.35663 -0.768408 0)
(1.38262 -0.77658 0)
(1.40348 -0.781093 0)
(1.42029 -0.784191 0)
(1.43393 -0.787741 0)
(1.44493 -0.793974 0)
(1.45306 -0.805114 0)
(1.45861 -0.822647 0)
(1.46245 -0.845842 0)
(1.46627 -0.869911 0)
(1.4712 -0.889246 0)
(1.4765 -0.900738 0)
(1.48331 -0.901516 0)
(1.49262 -0.881283 0)
(1.50483 -0.825852 0)
(1.51894 -0.738416 0)
(1.53505 -0.619952 0)
(1.55324 -0.474025 0)
(1.57327 -0.307277 0)
(1.59446 -0.130162 0)
(1.61526 0.0436385 0)
(1.6344 0.205034 0)
(1.65088 0.347549 0)
(1.66387 0.467191 0)
(1.67289 0.562413 0)
(1.67778 0.633843 0)
(1.6787 0.68371 0)
(1.67617 0.715145 0)
(1.67092 0.73179 0)
(1.66237 0.736871 0)
(1.65105 0.732019 0)
(1.63753 0.721096 0)
(1.62255 0.707061 0)
(1.60672 0.692098 0)
(1.59029 0.677624 0)
(1.57329 0.664331 0)
(1.55566 0.65254 0)
(1.53729 0.64244 0)
(1.51803 0.634208 0)
(1.49763 0.628022 0)
(1.47579 0.624015 0)
(1.45226 0.622085 0)
(1.42697 0.621596 0)
(1.40015 0.621139 0)
(1.3723 0.618499 0)
(1.34418 0.610933 0)
(1.31662 0.595695 0)
(1.29039 0.570622 0)
(1.2661 0.534535 0)
(1.24424 0.487315 0)
(1.22519 0.429771 0)
(1.20928 0.363332 0)
(1.19689 0.289708 0)
(1.18842 0.210733 0)
(1.18431 0.128407 0)
(1.18472 0.0446989 0)
(1.18966 -0.0383038 0)
(1.19875 -0.118748 0)
(1.21166 -0.195027 0)
(1.22784 -0.26586 0)
(1.24661 -0.330268 0)
(1.26725 -0.387632 0)
(1.28905 -0.437714 0)
(1.31134 -0.480627 0)
(1.33354 -0.516781 0)
(1.35515 -0.546823 0)
(1.37577 -0.571567 0)
(1.3951 -0.591889 0)
(1.4129 -0.608724 0)
(1.42898 -0.623016 0)
(1.44323 -0.635662 0)
(1.45565 -0.647342 0)
(1.46641 -0.658359 0)
(1.47577 -0.668495 0)
(1.48402 -0.677245 0)
(1.49124 -0.684145 0)
(1.49729 -0.688926 0)
(1.50252 -0.690974 0)
(1.50738 -0.688174 0)
(1.51171 -0.678791 0)
(1.51548 -0.662152 0)
(1.51886 -0.637578 0)
(1.52206 -0.604386 0)
(1.52519 -0.562063 0)
(1.52837 -0.510354 0)
(1.53168 -0.449336 0)
(1.53521 -0.379471 0)
(1.539 -0.301658 0)
(1.54309 -0.217266 0)
(1.54747 -0.128176 0)
(1.55205 -0.0370366 0)
(1.55659 0.052936 0)
(1.56085 0.139548 0)
(1.56462 0.220909 0)
(1.56765 0.295493 0)
(1.56975 0.362216 0)
(1.57079 0.420443 0)
(0.0447001 -0.401121 0)
(0.124959 -0.45322 0)
(0.242684 -0.423248 0)
(0.368754 -0.342193 0)
(0.502409 -0.222973 0)
(0.650139 -0.064998 0)
(0.816629 0.134868 0)
(0.989116 0.364975 0)
(1.12856 0.578657 0)
(1.2246 0.752288 0)
(1.28266 0.880203 0)
(1.31114 0.966569 0)
(1.31822 1.01928 0)
(1.31081 1.04574 0)
(1.28973 1.05268 0)
(1.25787 1.03894 0)
(1.2185 1.01043 0)
(1.17474 0.973191 0)
(1.12866 0.931925 0)
(1.08195 0.888924 0)
(1.03676 0.843454 0)
(0.992251 0.796918 0)
(0.939219 0.759687 0)
(0.865653 0.744196 0)
(0.775664 0.743713 0)
(0.695989 0.726489 0)
(0.646187 0.664783 0)
(0.635866 0.5545 0)
(0.657658 0.401305 0)
(0.712317 0.220325 0)
(0.783752 0.0320829 0)
(0.863875 -0.146131 0)
(0.947005 -0.3058 0)
(1.02835 -0.44205 0)
(1.1042 -0.552981 0)
(1.1722 -0.639128 0)
(1.23116 -0.702631 0)
(1.28093 -0.746637 0)
(1.32193 -0.774706 0)
(1.35491 -0.790528 0)
(1.3808 -0.797706 0)
(1.40063 -0.799567 0)
(1.41559 -0.798982 0)
(1.4267 -0.798171 0)
(1.43492 -0.798575 0)
(1.44094 -0.801869 0)
(1.44426 -0.809979 0)
(1.44484 -0.82459 0)
(1.44268 -0.846009 0)
(1.4389 -0.870695 0)
(1.43569 -0.891439 0)
(1.43403 -0.903519 0)
(1.43319 -0.905651 0)
(1.43334 -0.888424 0)
(1.43574 -0.835205 0)
(1.44133 -0.750625 0)
(1.45017 -0.6351 0)
(1.46233 -0.492049 0)
(1.47791 -0.327975 0)
(1.49658 -0.152592 0)
(1.51701 0.0209394 0)
(1.53788 0.183474 0)
(1.55795 0.328485 0)
(1.57597 0.451567 0)
(1.59106 0.55083 0)
(1.60265 0.626619 0)
(1.61048 0.680846 0)
(1.61478 0.716145 0)
(1.6161 0.736203 0)
(1.61479 0.743882 0)
(1.6102 0.74276 0)
(1.60249 0.734145 0)
(1.59248 0.721695 0)
(1.58109 0.707892 0)
(1.5686 0.694345 0)
(1.55512 0.681953 0)
(1.54064 0.671118 0)
(1.52509 0.662112 0)
(1.50835 0.655204 0)
(1.49019 0.650625 0)
(1.47034 0.648493 0)
(1.44864 0.648564 0)
(1.42512 0.649942 0)
(1.40006 0.650906 0)
(1.37399 0.648978 0)
(1.34761 0.641282 0)
(1.32165 0.625088 0)
(1.29676 0.598348 0)
(1.27351 0.55998 0)
(1.25234 0.509999 0)
(1.23366 0.449267 0)
(1.21793 0.379168 0)
(1.20566 0.301369 0)
(1.19735 0.217735 0)
(1.19346 0.130325 0)
(1.19421 0.0414453 0)
(1.19949 -0.046415 0)
(1.20896 -0.131337 0)
(1.22219 -0.211556 0)
(1.23856 -0.285615 0)
(1.25736 -0.352443 0)
(1.27783 -0.411392 0)
(1.29922 -0.462262 0)
(1.32085 -0.505253 0)
(1.34214 -0.540882 0)
(1.36258 -0.569901 0)
(1.3818 -0.593221 0)
(1.39952 -0.611839 0)
(1.41552 -0.626747 0)
(1.42965 -0.638944 0)
(1.44179 -0.649408 0)
(1.45187 -0.658974 0)
(1.46001 -0.668115 0)
(1.46643 -0.676716 0)
(1.4715 -0.684184 0)
(1.47552 -0.689771 0)
(1.47846 -0.693027 0)
(1.48045 -0.693984 0)
(1.4816 -0.691411 0)
(1.48189 -0.681114 0)
(1.4817 -0.663913 0)
(1.48122 -0.639052 0)
(1.48059 -0.605756 0)
(1.48 -0.563494 0)
(1.47963 -0.512009 0)
(1.47966 -0.451363 0)
(1.48029 -0.381997 0)
(1.48165 -0.304781 0)
(1.48386 -0.221036 0)
(1.48699 -0.132596 0)
(1.49098 -0.0419674 0)
(1.49563 0.04777 0)
(1.50068 0.134421 0)
(1.50586 0.21612 0)
(1.51086 0.291328 0)
(1.51542 0.358916 0)
(1.5193 0.418198 0)
(0.0419081 -0.487012 0)
(0.105453 -0.57133 0)
(0.18776 -0.547121 0)
(0.280712 -0.471378 0)
(0.384187 -0.359214 0)
(0.497103 -0.212294 0)
(0.619748 -0.0297333 0)
(0.757182 0.192988 0)
(0.897373 0.438482 0)
(1.00782 0.652454 0)
(1.08529 0.817423 0)
(1.13481 0.933636 0)
(1.1619 1.00881 0)
(1.17221 1.05244 0)
(1.16998 1.07087 0)
(1.15548 1.06983 0)
(1.1303 1.0505 0)
(1.09669 1.01919 0)
(1.0582 0.980877 0)
(1.0189 0.937538 0)
(0.979051 0.892058 0)
(0.930716 0.85474 0)
(0.861816 0.839424 0)
(0.773768 0.842932 0)
(0.69234 0.834649 0)
(0.637363 0.783669 0)
(0.622558 0.681799 0)
(0.635777 0.53218 0)
(0.686165 0.344994 0)
(0.757647 0.140893 0)
(0.840754 -0.0590659 0)
(0.928572 -0.24184 0)
(1.01562 -0.400233 0)
(1.09738 -0.530557 0)
(1.17071 -0.632436 0)
(1.23389 -0.707909 0)
(1.28653 -0.760402 0)
(1.32924 -0.793913 0)
(1.36297 -0.8124 0)
(1.38876 -0.819727 0)
(1.40761 -0.819633 0)
(1.42078 -0.81556 0)
(1.42962 -0.810285 0)
(1.43517 -0.805837 0)
(1.43789 -0.803381 0)
(1.43878 -0.803918 0)
(1.43733 -0.809315 0)
(1.4332 -0.820764 0)
(1.42596 -0.838998 0)
(1.41572 -0.862259 0)
(1.40467 -0.884189 0)
(1.39511 -0.898853 0)
(1.38608 -0.901484 0)
(1.3777 -0.884179 0)
(1.37158 -0.834834 0)
(1.36945 -0.754344 0)
(1.37149 -0.642976 0)
(1.37789 -0.504291 0)
(1.38903 -0.344692 0)
(1.4049 -0.173169 0)
(1.42441 -0.00211947 0)
(1.44616 0.159398 0)
(1.46883 0.305013 0)
(1.49096 0.430093 0)
(1.5113 0.532441 0)
(1.52899 0.611975 0)
(1.54348 0.670036 0)
(1.55459 0.708906 0)
(1.56248 0.73201 0)
(1.56732 0.742984 0)
(1.56902 0.745632 0)
(1.56743 0.741322 0)
(1.56269 0.730995 0)
(1.55594 0.718891 0)
(1.54761 0.706786 0)
(1.53787 0.695727 0)
(1.52677 0.686227 0)
(1.51429 0.678662 0)
(1.50033 0.673383 0)
(1.48469 0.670673 0)
(1.46719 0.67061 0)
(1.44774 0.672786 0)
(1.42643 0.676055 0)
(1.40359 0.678435 0)
(1.37974 0.677257 0)
(1.35549 0.669571 0)
(1.33147 0.652676 0)
(1.30827 0.624566 0)
(1.28637 0.584301 0)
(1.26621 0.531942 0)
(1.24827 0.468302 0)
(1.23308 0.39469 0)
(1.22125 0.312751 0)
(1.21337 0.224418 0)
(1.20988 0.131921 0)
(1.211 0.0378714 0)
(1.2166 -0.0548867 0)
(1.22634 -0.144256 0)
(1.23968 -0.22828 0)
(1.25597 -0.305365 0)
(1.27445 -0.374369 0)
(1.29435 -0.434633 0)
(1.31491 -0.486013 0)
(1.33547 -0.528799 0)
(1.35544 -0.563616 0)
(1.37433 -0.591346 0)
(1.39178 -0.613016 0)
(1.40753 -0.629705 0)
(1.4214 -0.642507 0)
(1.43327 -0.65246 0)
(1.44307 -0.660563 0)
(1.45074 -0.667768 0)
(1.45629 -0.674726 0)
(1.45988 -0.681482 0)
(1.46182 -0.687545 0)
(1.4625 -0.692145 0)
(1.46231 -0.694472 0)
(1.46104 -0.694492 0)
(1.45851 -0.689889 0)
(1.45505 -0.678933 0)
(1.45122 -0.661406 0)
(1.44714 -0.636336 0)
(1.44295 -0.603012 0)
(1.43887 -0.560955 0)
(1.43516 -0.509933 0)
(1.43212 -0.450007 0)
(1.43 -0.381594 0)
(1.42904 -0.305522 0)
(1.42942 -0.223062 0)
(1.43128 -0.13597 0)
(1.43463 -0.0465884 0)
(1.43925 0.0421786 0)
(1.44489 0.128165 0)
(1.45125 0.20955 0)
(1.45797 0.284801 0)
(1.46473 0.352768 0)
(1.47119 0.412713 0)
(0.0306723 -0.550786 0)
(0.062471 -0.636977 0)
(0.104673 -0.620691 0)
(0.164964 -0.563946 0)
(0.244091 -0.470394 0)
(0.340802 -0.335758 0)
(0.446781 -0.160338 0)
(0.558956 0.0539569 0)
(0.678364 0.302835 0)
(0.787571 0.54204 0)
(0.874823 0.735874 0)
(0.94066 0.878846 0)
(0.986635 0.976226 0)
(1.01566 1.03736 0)
(1.03041 1.07126 0)
(1.03311 1.08243 0)
(1.02538 1.07688 0)
(1.00665 1.054 0)
(0.981248 1.01884 0)
(0.951878 0.977625 0)
(0.912587 0.942091 0)
(0.851922 0.927665 0)
(0.770608 0.934139 0)
(0.692818 0.933371 0)
(0.638292 0.894508 0)
(0.620407 0.805835 0)
(0.626156 0.667087 0)
(0.672092 0.481098 0)
(0.743216 0.266536 0)
(0.829263 0.0465519 0)
(0.921771 -0.159881 0)
(1.01443 -0.342628 0)
(1.10211 -0.495445 0)
(1.18097 -0.616215 0)
(1.24866 -0.706192 0)
(1.30432 -0.769034 0)
(1.3485 -0.809551 0)
(1.38248 -0.83232 0)
(1.40778 -0.841468 0)
(1.42551 -0.840595 0)
(1.43675 -0.833508 0)
(1.44269 -0.823927 0)
(1.44493 -0.814817 0)
(1.44476 -0.807674 0)
(1.44275 -0.803001 0)
(1.43877 -0.801171 0)
(1.43259 -0.803625 0)
(1.42381 -0.811771 0)
(1.41192 -0.826419 0)
(1.39651 -0.846613 0)
(1.37883 -0.867727 0)
(1.36144 -0.883299 0)
(1.34419 -0.887359 0)
(1.3281 -0.870896 0)
(1.31486 -0.826191 0)
(1.30583 -0.750348 0)
(1.30162 -0.644056 0)
(1.30271 -0.510975 0)
(1.30964 -0.357342 0)
(1.32265 -0.191535 0)
(1.34087 -0.0248532 0)
(1.36291 0.133845 0)
(1.38734 0.278283 0)
(1.41266 0.403917 0)
(1.43736 0.508134 0)
(1.46031 0.590449 0)
(1.48073 0.651956 0)
(1.49797 0.694636 0)
(1.51177 0.721738 0)
(1.52196 0.736601 0)
(1.52877 0.742311 0)
(1.53298 0.741493 0)
(1.53381 0.734511 0)
(1.5319 0.7248 0)
(1.52788 0.714657 0)
(1.52203 0.705376 0)
(1.51445 0.697603 0)
(1.50521 0.691815 0)
(1.49425 0.688443 0)
(1.48144 0.687813 0)
(1.46664 0.689946 0)
(1.44983 0.694276 0)
(1.43116 0.699434 0)
(1.41098 0.703224 0)
(1.38978 0.70286 0)
(1.3681 0.695359 0)
(1.34647 0.677995 0)
(1.32538 0.648867 0)
(1.30527 0.607091 0)
(1.28657 0.552693 0)
(1.26981 0.486402 0)
(1.2556 0.409454 0)
(1.24459 0.323485 0)
(1.23741 0.230523 0)
(1.23451 0.133003 0)
(1.23609 0.0338932 0)
(1.24199 -0.0636393 0)
(1.2518 -0.15727 0)
(1.26497 -0.244849 0)
(1.28079 -0.324674 0)
(1.2985 -0.395549 0)
(1.31733 -0.456826 0)
(1.33655 -0.508436 0)
(1.35552 -0.550753 0)
(1.37368 -0.584508 0)
(1.39057 -0.610709 0)
(1.40586 -0.63051 0)
(1.41928 -0.645109 0)
(1.43069 -0.655681 0)
(1.44002 -0.663314 0)
(1.44724 -0.669017 0)
(1.45233 -0.673715 0)
(1.4553 -0.678158 0)
(1.45617 -0.682786 0)
(1.45525 -0.687068 0)
(1.45279 -0.690319 0)
(1.44912 -0.691674 0)
(1.44438 -0.69008 0)
(1.4385 -0.684342 0)
(1.43183 -0.673001 0)
(1.42472 -0.655065 0)
(1.41734 -0.629763 0)
(1.40987 -0.596467 0)
(1.40262 -0.554749 0)
(1.39589 -0.504409 0)
(1.39004 -0.445511 0)
(1.3854 -0.378451 0)
(1.38228 -0.304009 0)
(1.38094 -0.22339 0)
(1.38156 -0.138255 0)
(1.38418 -0.0507659 0)
(1.38864 0.0363727 0)
(1.39465 0.121047 0)
(1.40192 0.201506 0)
(1.41005 0.276245 0)
(1.41867 0.344109 0)
(1.42737 0.404337 0)
(0.0146937 -0.580202 0)
(0.010486 -0.655802 0)
(0.0145339 -0.650715 0)
(0.0399953 -0.621324 0)
(0.0862317 -0.55271 0)
(0.157677 -0.439052 0)
(0.249104 -0.273814 0)
(0.352492 -0.0647149 0)
(0.461057 0.181303 0)
(0.566013 0.431261 0)
(0.658352 0.643193 0)
(0.736854 0.806558 0)
(0.799676 0.9233 0)
(0.847231 1.00268 0)
(0.880119 1.05234 0)
(0.900361 1.07373 0)
(0.909939 1.079 0)
(0.90984 1.06915 0)
(0.898786 1.04149 0)
(0.873196 1.01408 0)
(0.825541 1.00383 0)
(0.757821 1.01237 0)
(0.691298 1.01652 0)
(0.643741 0.989596 0)
(0.625996 0.917943 0)
(0.62831 0.796879 0)
(0.670806 0.620671 0)
(0.742362 0.403658 0)
(0.831646 0.169173 0)
(0.929528 -0.0593234 0)
(1.028 -0.266857 0)
(1.12147 -0.444426 0)
(1.20562 -0.587321 0)
(1.27763 -0.695117 0)
(1.33627 -0.770875 0)
(1.3818 -0.819937 0)
(1.4156 -0.8481 0)
(1.43945 -0.860692 0)
(1.45529 -0.860881 0)
(1.46442 -0.852197 0)
(1.4672 -0.838646 0)
(1.4661 -0.824756 0)
(1.46255 -0.812705 0)
(1.45702 -0.803201 0)
(1.44976 -0.796407 0)
(1.44088 -0.792579 0)
(1.43023 -0.792588 0)
(1.41716 -0.797611 0)
(1.40097 -0.808623 0)
(1.38114 -0.825317 0)
(1.35803 -0.844483 0)
(1.3339 -0.859858 0)
(1.30955 -0.864826 0)
(1.28655 -0.850754 0)
(1.2669 -0.810094 0)
(1.25178 -0.739417 0)
(1.24213 -0.639102 0)
(1.23861 -0.512703 0)
(1.24182 -0.366252 0)
(1.25206 -0.207581 0)
(1.2687 -0.0467913 0)
(1.29045 0.107482 0)
(1.31588 0.249253 0)
(1.34343 0.374001 0)
(1.37146 0.478945 0)
(1.3986 0.563279 0)
(1.42374 0.627766 0)
(1.44601 0.674153 0)
(1.46491 0.705238 0)
(1.48021 0.724069 0)
(1.49202 0.733539 0)
(1.50096 0.735771 0)
(1.50703 0.732289 0)
(1.50984 0.725549 0)
(1.51006 0.717903 0)
(1.50807 0.710836 0)
(1.50406 0.705107 0)
(1.49816 0.70134 0)
(1.4904 0.700066 0)
(1.48067 0.701652 0)
(1.46889 0.706061 0)
(1.45507 0.712572 0)
(1.4394 0.719604 0)
(1.4223 0.724784 0)
(1.40425 0.725284 0)
(1.38566 0.718092 0)
(1.36693 0.700527 0)
(1.34846 0.670727 0)
(1.33066 0.627792 0)
(1.31397 0.57168 0)
(1.29894 0.503021 0)
(1.28621 0.422976 0)
(1.27645 0.333185 0)
(1.2703 0.235782 0)
(1.2682 0.133439 0)
(1.2703 0.0295121 0)
(1.2764 -0.0725097 0)
(1.28605 -0.170067 0)
(1.29867 -0.260832 0)
(1.31356 -0.343021 0)
(1.32996 -0.415396 0)
(1.34713 -0.477346 0)
(1.36441 -0.528883 0)
(1.38119 -0.570464 0)
(1.39696 -0.602931 0)
(1.41132 -0.627417 0)
(1.42397 -0.645174 0)
(1.43467 -0.657501 0)
(1.44328 -0.665704 0)
(1.44977 -0.67097 0)
(1.45415 -0.674243 0)
(1.45654 -0.676758 0)
(1.45692 -0.679156 0)
(1.45516 -0.681401 0)
(1.45137 -0.683558 0)
(1.44593 -0.6851 0)
(1.43915 -0.685091 0)
(1.43123 -0.682403 0)
(1.42232 -0.675662 0)
(1.41267 -0.66357 0)
(1.40254 -0.64517 0)
(1.39218 -0.619682 0)
(1.38182 -0.58651 0)
(1.37178 -0.545273 0)
(1.3624 -0.49581 0)
(1.35408 -0.438202 0)
(1.34722 -0.37283 0)
(1.34217 -0.30043 0)
(1.33925 -0.222133 0)
(1.33869 -0.139472 0)
(1.34056 -0.0544173 0)
(1.34474 0.0305219 0)
(1.35095 0.113323 0)
(1.35887 0.192313 0)
(1.36812 0.266037 0)
(1.37826 0.333343 0)
(1.38886 0.39347 0)
(1.31581 -0.365043 0)
(1.30909 -0.295008 0)
(1.30477 -0.219402 0)
(1.30311 -0.139628 0)
(1.30423 -0.0574626 0)
(1.30802 0.0247941 0)
(1.31424 0.105232 0)
(1.32257 0.182274 0)
(1.33261 0.254526 0)
(1.3439 0.320856 0)
(1.35599 0.380495 0)
(0.388596 0.0216728 0)
(0.352 0.0187332 0)
(1.26505 0.0661601 0)
(1.22981 0.0659469 0)
(1.69469 0.0950189 0)
(1.67529 0.097164 0)
(1.8624 0.109297 0)
(1.85181 0.112852 0)
(1.91938 0.117857 0)
(1.91246 0.122366 0)
(1.93701 0.124292 0)
(1.93115 0.129575 0)
(1.94374 0.130393 0)
(1.93784 0.136351 0)
(1.9489 0.137016 0)
(1.94254 0.14369 0)
(1.95468 0.144145 0)
(1.94769 0.151578 0)
(1.96173 0.152017 0)
(1.95409 0.160295 0)
(1.97014 0.160571 0)
(1.96184 0.169793 0)
(1.97992 0.16984 0)
(1.97093 0.180111 0)
(1.99116 0.179836 0)
(1.98145 0.191281 0)
(2.00398 0.190602 0)
(1.9935 0.203361 0)
(2.01853 0.202172 0)
(2.00724 0.216414 0)
(2.03501 0.214598 0)
(2.02283 0.230522 0)
(2.05367 0.227956 0)
(2.04051 0.245788 0)
(2.07478 0.242351 0)
(2.0605 0.262387 0)
(2.09873 0.257855 0)
(2.08315 0.280387 0)
(2.12587 0.274973 0)
(2.1087 0.300406 0)
(2.15768 0.293336 0)
(2.13825 0.322221 0)
(2.19597 0.315089 0)
(2.17362 0.347654 0)
(2.23967 0.339401 0)
(2.21457 0.376904 0)
(2.26724 0.36514 0)
(2.24156 0.407848 0)
(2.23681 0.390124 0)
(2.21495 0.437541 0)
(2.08294 0.406429 0)
(2.08496 0.457694 0)
(1.67701 0.375422 0)
(1.7272 0.431368 0)
(1.07165 0.297813 0)
(1.16191 0.348893 0)
(0.312358 0.197964 0)
(0.432538 0.237199 0)
(-0.347835 0.0847896 0)
(-0.251819 0.0643783 0)
(0.316766 0.0156828 0)
(0.283219 0.0128421 0)
(0.251711 0.0103153 0)
(0.222216 0.00812153 0)
(0.194658 0.00625258 0)
(0.168957 0.00467287 0)
(0.145016 0.00337339 0)
(0.12271 0.00235824 0)
(0.101902 0.00158466 0)
(0.0824686 0.000984692 0)
(0.0643175 0.000447646 0)
(0.0473604 -6.34035e-05 0)
(0.0314662 -0.000457 0)
(0.0164997 -0.000551815 0)
(0.00205489 -0.000392042 0)
(-0.0121469 -0.000603858 0)
(-0.0252601 -0.00180429 0)
(-0.0359814 -0.00483744 0)
(-0.0427288 -0.00963701 0)
(-0.0437677 -0.0143654 0)
(-0.0402541 -0.0173775 0)
(-0.0334055 -0.018479 0)
(-0.0239029 -0.018362 0)
(-0.013135 -0.0171978 0)
(-0.00230742 -0.0151299 0)
(0.00766378 -0.0124521 0)
(0.0163308 -0.00956529 0)
(0.0235556 -0.0068423 0)
(0.0294873 -0.0046091 0)
(0.0345305 -0.00303281 0)
(0.0393444 -0.0020325 0)
(0.0445806 -0.00145449 0)
(0.0506094 -0.00108423 0)
(0.0572318 -0.000761574 0)
(0.0637527 -0.000332105 0)
(0.0688491 0.000440835 0)
(0.0707177 0.00184561 0)
(0.0677794 0.00416889 0)
(0.0590451 0.0070188 0)
(0.044566 0.00993934 0)
(0.0245656 0.0121737 0)
(-6.02738e-05 0.0135173 0)
(-0.0263601 0.0138967 0)
(-0.0522798 0.0130538 0)
(-0.0755922 0.0109755 0)
(-0.0940577 0.00784636 0)
(-0.105697 0.00402841 0)
(-0.109771 1.34942e-05 0)
(-0.1064 -0.00429169 0)
(-0.0971147 -0.00799324 0)
(-0.082373 -0.0109361 0)
(-0.063254 -0.0130396 0)
(-0.0409862 -0.0143717 0)
(-0.0166383 -0.0150281 0)
(0.00905796 -0.0150764 0)
(0.0348442 -0.0147585 0)
(0.0602728 -0.013874 0)
(0.0846934 -0.0123424 0)
(0.107207 -0.0102421 0)
(0.126446 -0.00786228 0)
(0.141354 -0.00524597 0)
(0.150671 -0.00230962 0)
(0.153479 0.00146595 0)
(0.148351 0.00647512 0)
(0.134048 0.0121306 0)
(0.110098 0.0176943 0)
(0.0770682 0.0222664 0)
(0.0362029 0.0251741 0)
(-0.00829228 0.0257197 0)
(-0.050598 0.0236637 0)
(-0.0856575 0.0187848 0)
(-0.109174 0.0120835 0)
(-0.119628 0.00464189 0)
(-0.116506 -0.00325127 0)
(-0.103246 -0.00953868 0)
(-0.081003 -0.0138989 0)
(-0.0518977 -0.0165308 0)
(-0.0182639 -0.0176187 0)
(0.0170704 -0.017637 0)
(0.0519131 -0.0170941 0)
(0.0858897 -0.0161858 0)
(0.117896 -0.0148757 0)
(0.147248 -0.0131819 0)
(0.1732 -0.0112415 0)
(0.195501 -0.00918337 0)
(0.214134 -0.00710079 0)
(0.229163 -0.00506784 0)
(0.240781 -0.0031542 0)
(0.249168 -0.00144602 0)
(0.254407 -8.9894e-06 0)
(0.256543 0.00109826 0)
(0.255852 0.00222523 0)
(0.252339 0.00322112 0)
(0.246306 0.00412252 0)
(0.237958 0.00499087 0)
(0.227526 0.00585443 0)
(0.215324 0.00666069 0)
(0.201798 0.0073201 0)
(0.187475 0.00777382 0)
(0.1729 0.00796212 0)
(0.158664 0.00785098 0)
(0.145355 0.00745715 0)
(0.133421 0.00676595 0)
(0.123357 0.00578382 0)
(0.115575 0.00458245 0)
(0.110393 0.00327283 0)
(0.108079 0.00190382 0)
(0.108491 0.000262785 0)
(0.111387 -0.00122806 0)
(0.116741 -0.00252223 0)
(0.12436 -0.00363794 0)
(0.133885 -0.00452256 0)
(0.144872 -0.00517195 0)
(0.156834 -0.00559324 0)
(0.169285 -0.00581413 0)
(0.181748 -0.00588057 0)
(0.193867 -0.00583048 0)
(0.205333 -0.00569109 0)
(0.215893 -0.00546078 0)
(0.225298 -0.00506412 0)
(0.233275 -0.00441747 0)
(0.239586 -0.00358158 0)
(0.244071 -0.00264701 0)
(0.246588 -0.00165586 0)
(0.247159 -0.000388956 0)
(0.245733 0.0010217 0)
(0.242369 0.00235708 0)
(0.236969 0.00367679 0)
(0.229536 0.00484325 0)
(0.220222 0.00577655 0)
(0.20928 0.00649192 0)
(0.19703 0.00699864 0)
(0.183908 0.00723192 0)
(0.17046 0.00717837 0)
(0.15731 0.0068414 0)
(0.144999 0.00620116 0)
(0.134189 0.00525734 0)
(1.19199 0.0650405 0)
(1.15187 0.0636082 0)
(1.11006 0.0617795 0)
(1.06694 0.059655 0)
(1.0229 0.0573158 0)
(0.978355 0.0548227 0)
(0.933592 0.0522141 0)
(0.889042 0.0495292 0)
(0.845121 0.0467955 0)
(0.802181 0.0440189 0)
(0.760646 0.0412202 0)
(0.720783 0.0384252 0)
(0.682955 0.0356394 0)
(0.647461 0.0328614 0)
(0.615128 0.0301354 0)
(0.586405 0.0273532 0)
(0.560987 0.0241976 0)
(0.539597 0.0204231 0)
(0.521349 0.0156581 0)
(0.502431 0.00986092 0)
(0.483275 0.00392133 0)
(0.465136 -0.000766906 0)
(0.44685 -0.00382008 0)
(0.428588 -0.00540717 0)
(0.410751 -0.00598003 0)
(0.39347 -0.00596653 0)
(0.376888 -0.0057177 0)
(0.361233 -0.00562998 0)
(0.346557 -0.00599885 0)
(0.333198 -0.00719236 0)
(0.32156 -0.00946955 0)
(0.311603 -0.0125831 0)
(0.303177 -0.0155544 0)
(0.295989 -0.0171318 0)
(0.289615 -0.0162951 0)
(0.283464 -0.0110857 0)
(0.276655 -0.000875917 0)
(0.267625 0.0107748 0)
(0.254989 0.0220257 0)
(0.238627 0.031723 0)
(0.219915 0.0387722 0)
(0.199972 0.0425715 0)
(0.180181 0.0429747 0)
(0.1622 0.0398177 0)
(0.147617 0.0332164 0)
(0.137961 0.0234404 0)
(0.134262 0.0116469 0)
(0.135872 -0.00113991 0)
(0.142779 -0.0132412 0)
(0.154808 -0.0235223 0)
(0.170672 -0.0317553 0)
(0.18917 -0.0377206 0)
(0.209067 -0.0415885 0)
(0.229395 -0.043746 0)
(0.24973 -0.0444055 0)
(0.269522 -0.0441528 0)
(0.288088 -0.0429157 0)
(0.304869 -0.0405364 0)
(0.319496 -0.0365554 0)
(0.331604 -0.0298571 0)
(0.340812 -0.021087 0)
(0.346858 -0.0103186 0)
(0.349338 0.0028178 0)
(0.346214 0.0183823 0)
(0.33469 0.0352948 0)
(0.313518 0.0510995 0)
(0.284965 0.0624849 0)
(0.254597 0.0674965 0)
(0.225131 0.0655697 0)
(0.199559 0.0568484 0)
(0.181464 0.041399 0)
(0.173119 0.0213458 0)
(0.174121 -0.000290986 0)
(0.184603 -0.0211209 0)
(0.205352 -0.0382842 0)
(0.233416 -0.0508771 0)
(0.266525 -0.0587807 0)
(0.302682 -0.0621845 0)
(0.340051 -0.0619392 0)
(0.376988 -0.0596872 0)
(0.412388 -0.0563091 0)
(0.445408 -0.0518894 0)
(0.47535 -0.0464423 0)
(0.501674 -0.0403577 0)
(0.524034 -0.0341477 0)
(0.542276 -0.0281703 0)
(0.556436 -0.0225732 0)
(0.56671 -0.017382 0)
(0.573364 -0.0125234 0)
(0.576703 -0.00760717 0)
(0.576927 -0.00220499 0)
(0.574045 0.00326748 0)
(0.568336 0.00844286 0)
(0.560036 0.0131941 0)
(0.549331 0.0174603 0)
(0.536468 0.0211253 0)
(0.521791 0.0238841 0)
(0.505868 0.0253708 0)
(0.489416 0.0256245 0)
(0.473245 0.0248272 0)
(0.457981 0.0229982 0)
(0.44427 0.0202754 0)
(0.432844 0.0168678 0)
(0.424159 0.0129569 0)
(0.418396 0.00872099 0)
(0.415518 0.00425097 0)
(0.415317 -0.000434762 0)
(0.417929 -0.0051596 0)
(0.423511 -0.00968057 0)
(0.431747 -0.013756 0)
(0.442272 -0.0171859 0)
(0.454687 -0.019825 0)
(0.468524 -0.0215921 0)
(0.48328 -0.0224777 0)
(0.498465 -0.0225216 0)
(0.513566 -0.021807 0)
(0.528171 -0.0204349 0)
(0.541945 -0.0184958 0)
(0.554638 -0.0160678 0)
(0.565958 -0.0132671 0)
(0.575349 -0.0102766 0)
(0.582291 -0.00722737 0)
(0.58664 -0.0041871 0)
(0.588442 -0.00101587 0)
(0.587549 0.00235066 0)
(0.583819 0.00572496 0)
(0.577497 0.00901029 0)
(0.568863 0.0121394 0)
(0.558193 0.0150678 0)
(0.545922 0.0177098 0)
(0.532508 0.0199023 0)
(0.518304 0.0214277 0)
(0.503764 0.0221176 0)
(0.489544 0.0219489 0)
(0.476214 0.0208286 0)
(0.464518 0.0186113 0)
(0.455091 0.0153347 0)
(1.6542 0.0987181 0)
(1.63138 0.0997285 0)
(1.60702 0.100228 0)
(1.58124 0.100243 0)
(1.55419 0.0997897 0)
(1.52605 0.0988774 0)
(1.497 0.0975077 0)
(1.46727 0.095669 0)
(1.43709 0.093348 0)
(1.40669 0.090535 0)
(1.37627 0.0872208 0)
(1.34618 0.083427 0)
(1.31665 0.0791673 0)
(1.28804 0.074425 0)
(1.26042 0.0690954 0)
(1.23406 0.0631073 0)
(1.20892 0.0563321 0)
(1.18479 0.0487284 0)
(1.16137 0.0407537 0)
(1.13862 0.0334129 0)
(1.11674 0.0275598 0)
(1.09566 0.02329 0)
(1.07527 0.0206314 0)
(1.05563 0.0195062 0)
(1.03672 0.0196432 0)
(1.01836 0.0206331 0)
(1.00032 0.0220174 0)
(0.982353 0.0233366 0)
(0.964202 0.024218 0)
(0.945455 0.0244159 0)
(0.925489 0.0238378 0)
(0.903452 0.0225258 0)
(0.878398 0.0207966 0)
(0.849893 0.019262 0)
(0.818256 0.0187383 0)
(0.783993 0.0201722 0)
(0.748783 0.0242908 0)
(0.715578 0.0308913 0)
(0.686475 0.0387796 0)
(0.662759 0.0461861 0)
(0.644496 0.0514522 0)
(0.630901 0.0537197 0)
(0.621318 0.0526208 0)
(0.615257 0.0469851 0)
(0.61334 0.0365329 0)
(0.615057 0.022065 0)
(0.619676 0.00544611 0)
(0.626564 -0.0114643 0)
(0.636094 -0.0266723 0)
(0.647279 -0.0393378 0)
(0.658553 -0.0489848 0)
(0.669843 -0.0546482 0)
(0.679986 -0.0570974 0)
(0.688158 -0.0573254 0)
(0.69398 -0.0564109 0)
(0.697529 -0.0540614 0)
(0.698274 -0.0495704 0)
(0.695732 -0.0435884 0)
(0.689819 -0.0362374 0)
(0.681019 -0.02792 0)
(0.670478 -0.019178 0)
(0.659499 -0.00984353 0)
(0.649115 0.00204504 0)
(0.639531 0.0191432 0)
(0.630764 0.0420947 0)
(0.622653 0.0654975 0)
(0.615833 0.0818936 0)
(0.610151 0.0884338 0)
(0.605449 0.087701 0)
(0.602599 0.0776566 0)
(0.602139 0.055501 0)
(0.603768 0.026142 0)
(0.607827 -0.00611868 0)
(0.615725 -0.0357142 0)
(0.628321 -0.0606317 0)
(0.644973 -0.0801029 0)
(0.665002 -0.0937786 0)
(0.687598 -0.101322 0)
(0.711451 -0.102713 0)
(0.735607 -0.0999967 0)
(0.759956 -0.0948199 0)
(0.784271 -0.0875555 0)
(0.807599 -0.0784852 0)
(0.829116 -0.0680302 0)
(0.848254 -0.0567257 0)
(0.864496 -0.0451397 0)
(0.877396 -0.0337551 0)
(0.886639 -0.0229488 0)
(0.892099 -0.012967 0)
(0.893932 -0.00374001 0)
(0.892392 0.00488911 0)
(0.887514 0.0126722 0)
(0.879777 0.0195148 0)
(0.870146 0.0254177 0)
(0.859537 0.0304541 0)
(0.848428 0.0347807 0)
(0.837082 0.0383153 0)
(0.825971 0.0406936 0)
(0.815347 0.0415915 0)
(0.805094 0.0408586 0)
(0.795282 0.0385127 0)
(0.786186 0.0345606 0)
(0.778111 0.0289335 0)
(0.771464 0.0220559 0)
(0.766496 0.0145964 0)
(0.763341 0.00697864 0)
(0.762148 -0.000786334 0)
(0.763194 -0.00846901 0)
(0.766379 -0.015828 0)
(0.771416 -0.0225916 0)
(0.778071 -0.0284454 0)
(0.7861 -0.0331658 0)
(0.795121 -0.0365932 0)
(0.804677 -0.0386469 0)
(0.814401 -0.0393717 0)
(0.824106 -0.0389653 0)
(0.833692 -0.0376344 0)
(0.843024 -0.0356468 0)
(0.851963 -0.0333052 0)
(0.860362 -0.0300263 0)
(0.868104 -0.0246143 0)
(0.874937 -0.0180775 0)
(0.880553 -0.0110622 0)
(0.884753 -0.00381088 0)
(0.887554 0.00338204 0)
(0.888847 0.0104159 0)
(0.888233 0.0173188 0)
(0.885357 0.0238934 0)
(0.880039 0.0298316 0)
(0.872253 0.034192 0)
(0.862208 0.0372423 0)
(0.850652 0.039465 0)
(0.838581 0.0399159 0)
(0.826654 0.0385397 0)
(0.815111 0.0353608 0)
(0.804417 0.0304441 0)
(0.795194 0.0240478 0)
(1.84007 0.115811 0)
(1.82712 0.118182 0)
(1.81305 0.119962 0)
(1.7979 0.12116 0)
(1.78175 0.121774 0)
(1.76468 0.121795 0)
(1.74678 0.121211 0)
(1.72817 0.120002 0)
(1.70897 0.118149 0)
(1.6893 0.115641 0)
(1.6693 0.112469 0)
(1.64911 0.108624 0)
(1.62886 0.104106 0)
(1.60869 0.0989127 0)
(1.58869 0.0930291 0)
(1.56893 0.0864726 0)
(1.54938 0.0793166 0)
(1.52998 0.0717743 0)
(1.51069 0.0642458 0)
(1.49148 0.0571763 0)
(1.47243 0.0509456 0)
(1.45385 0.0458118 0)
(1.43605 0.0419258 0)
(1.4193 0.0392806 0)
(1.40375 0.0377323 0)
(1.3895 0.0370525 0)
(1.37653 0.0369596 0)
(1.3647 0.0371766 0)
(1.35368 0.0375062 0)
(1.34296 0.0378402 0)
(1.3322 0.0382057 0)
(1.32117 0.039084 0)
(1.30976 0.0415687 0)
(1.29797 0.0454228 0)
(1.2857 0.050017 0)
(1.27279 0.0560894 0)
(1.2592 0.0633611 0)
(1.24512 0.0701113 0)
(1.23111 0.0744794 0)
(1.219 0.075965 0)
(1.20965 0.0752009 0)
(1.20273 0.072873 0)
(1.19815 0.0666665 0)
(1.19632 0.0562676 0)
(1.19652 0.0420992 0)
(1.19783 0.0246444 0)
(1.19946 0.00469103 0)
(1.20069 -0.0140988 0)
(1.20124 -0.0298371 0)
(1.20078 -0.0426058 0)
(1.19896 -0.0527532 0)
(1.19597 -0.0590753 0)
(1.19124 -0.0599699 0)
(1.18553 -0.0587298 0)
(1.17835 -0.0554724 0)
(1.16895 -0.0502612 0)
(1.15732 -0.0434126 0)
(1.14381 -0.0346995 0)
(1.12875 -0.0245312 0)
(1.11267 -0.0134383 0)
(1.09579 -0.00168235 0)
(1.07758 0.0104478 0)
(1.05839 0.0226296 0)
(1.0391 0.036165 0)
(1.02143 0.053228 0)
(1.00972 0.0701667 0)
(1.00511 0.0807463 0)
(1.00463 0.0836975 0)
(1.00692 0.0810699 0)
(1.01191 0.0696643 0)
(1.01745 0.0491577 0)
(1.02148 0.0217312 0)
(1.02366 -0.00955313 0)
(1.02465 -0.040558 0)
(1.02573 -0.0679307 0)
(1.0275 -0.0899938 0)
(1.03009 -0.105503 0)
(1.03372 -0.113983 0)
(1.03978 -0.115648 0)
(1.04724 -0.114607 0)
(1.05577 -0.111703 0)
(1.06532 -0.10661 0)
(1.07547 -0.0979098 0)
(1.08583 -0.0870865 0)
(1.0962 -0.0749568 0)
(1.10643 -0.0619915 0)
(1.11624 -0.0487073 0)
(1.12536 -0.035469 0)
(1.13358 -0.0223929 0)
(1.1406 -0.00957632 0)
(1.14629 0.0028249 0)
(1.15078 0.014538 0)
(1.15386 0.0249499 0)
(1.15546 0.0334393 0)
(1.15567 0.0402248 0)
(1.15445 0.045921 0)
(1.15229 0.0502226 0)
(1.14912 0.0515807 0)
(1.14549 0.0513582 0)
(1.14203 0.0502998 0)
(1.13909 0.0471211 0)
(1.13683 0.0420859 0)
(1.13529 0.0354722 0)
(1.13462 0.027591 0)
(1.13488 0.0188688 0)
(1.13621 0.00961614 0)
(1.13894 3.73379e-05 0)
(1.14311 -0.00960198 0)
(1.1484 -0.0186866 0)
(1.15445 -0.0268012 0)
(1.16094 -0.0337257 0)
(1.16742 -0.0390827 0)
(1.17346 -0.0425865 0)
(1.1788 -0.0442422 0)
(1.1833 -0.0443688 0)
(1.18682 -0.043447 0)
(1.18926 -0.0415252 0)
(1.1903 -0.0385776 0)
(1.18955 -0.0347604 0)
(1.18676 -0.0302286 0)
(1.18223 -0.0251485 0)
(1.17674 -0.0196454 0)
(1.17083 -0.0138442 0)
(1.16493 -0.00780293 0)
(1.15937 -0.00139266 0)
(1.15427 0.00551138 0)
(1.14973 0.0129866 0)
(1.14586 0.0208609 0)
(1.1426 0.0288044 0)
(1.13955 0.0363845 0)
(1.13641 0.042855 0)
(1.13324 0.0471617 0)
(1.12951 0.0484722 0)
(1.12531 0.0481825 0)
(1.12044 0.0464528 0)
(1.11493 0.0421521 0)
(1.109 0.0351571 0)
(1.90472 0.126326 0)
(1.89613 0.129718 0)
(1.88674 0.13251 0)
(1.87657 0.134689 0)