/*--------------------------------*- C++ -*----------------------------------*\
| =========                 |                                                 |
| \\      /  F ield         | OpenFOAM: The Open Source CFD Toolbox           |
|  \\    /   O peration     | Version:  2206                                  |
|   \\  /    A nd           | Website:  www.openfoam.com                      |
|    \\/     M anipulation  |                                                 |
\*---------------------------------------------------------------------------*/
FoamFile
{
    version     2.0;
    format      ascii;
    arch        "LSB;label=32;scalar=64";
    class       volScalarField;
    location    "19.8999";
    object      p;
}
// * * * * * * * * * * * * * * * * * * * * * * * * * * * * * * * * * * * * * //

dimensions      [0 2 -2 0 0 0 0];

internalField   nonuniform List<scalar> 
3050
(
0.879761
0.879659
0.879396
0.878979
0.878432
0.877762
0.876973
0.876067
0.875051
0.873932
0.872718
0.871415
0.870028
0.868566
0.867034
0.865437
0.863782
0.862074
0.860318
0.858519
0.856683
0.854812
0.852913
0.850989
0.849044
0.847084
0.84511
0.843129
0.841143
0.839158
0.837177
0.835205
0.833244
0.831299
0.829374
0.827474
0.825601
0.823762
0.821959
0.820196
0.818479
0.81681
0.815195
0.813636
0.81214
0.810708
0.809347
0.808061
0.806854
0.80573
0.804696
0.803755
0.802915
0.80218
0.801557
0.801051
0.800673
0.800428
0.800335
0.800402
0.80064
0.80106
0.801679
0.802514
0.803584
0.804912
0.806522
0.808441
0.810701
0.813336
0.816387
0.819898
0.823919
0.828508
0.833729
0.839655
0.846368
0.853959
0.862533
0.872205
0.883107
0.895381
0.909189
0.924704
0.942114
0.961615
0.983405
1.00767
1.03456
1.06416
1.09641
1.13102
1.1673
1.20389
1.23833
1.26597
1.2799
1.26186
1.20866
0.920196
0.879236
0.879137
0.878881
0.878476
0.877944
0.877293
0.876524
0.87564
0.874648
0.873553
0.872364
0.871085
0.869723
0.868285
0.866776
0.865202
0.863569
0.861882
0.860147
0.858368
0.85655
0.854698
0.852817
0.85091
0.848983
0.847039
0.845082
0.843117
0.841147
0.839178
0.837213
0.835256
0.833311
0.831381
0.829472
0.827587
0.825731
0.823907
0.822119
0.820372
0.81867
0.817017
0.815417
0.813875
0.812395
0.81098
0.809637
0.808368
0.80718
0.806077
0.805064
0.804148
0.803333
0.802627
0.802036
0.801567
0.801227
0.801024
0.800976
0.801097
0.801397
0.801887
0.802585
0.803509
0.804681
0.806124
0.807866
0.809936
0.812368
0.8152
0.818478
0.822249
0.826572
0.831508
0.837133
0.843528
0.850787
0.859019
0.868346
0.878907
0.890862
0.904391
0.919702
0.937027
0.956629
0.978801
1.00387
1.03218
1.0641
1.1
1.1402
1.18493
1.23422
1.28768
1.34432
1.40183
1.4561
1.49848
1.51567
1.46758
0.878844
0.878747
0.878497
0.878101
0.87758
0.876942
0.876188
0.875321
0.874345
0.873269
0.872097
0.870837
0.869493
0.868073
0.866581
0.865024
0.863408
0.861737
0.860017
0.858252
0.856449
0.854611
0.852743
0.850849
0.848935
0.847003
0.845058
0.843105
0.841148
0.83919
0.837237
0.835292
0.833358
0.831441
0.829543
0.82767
0.825825
0.824012
0.822236
0.8205
0.81881
0.817169
0.81558
0.81405
0.812582
0.81118
0.809849
0.808594
0.80742
0.806332
0.805336
0.804437
0.803641
0.802956
0.80239
0.801948
0.80164
0.80147
0.801454
0.801614
0.80196
0.802503
0.803261
0.804253
0.805502
0.807034
0.808876
0.81106
0.813623
0.816606
0.820057
0.824028
0.828581
0.833785
0.83972
0.846476
0.854159
0.862887
0.872798
0.884051
0.89683
0.911344
0.927838
0.946594
0.967937
0.992241
1.01994
1.05151
1.0875
1.12852
1.1752
1.22814
1.28789
1.35468
1.42823
1.50722
1.5885
1.66611
1.72921
1.76435
0.878584
0.878488
0.878241
0.877851
0.877338
0.876708
0.875964
0.875107
0.874143
0.873078
0.871918
0.87067
0.869338
0.86793
0.86645
0.864904
0.863298
0.861638
0.859928
0.858173
0.856379
0.854551
0.852691
0.850807
0.8489
0.846977
0.84504
0.843095
0.841146
0.839196
0.83725
0.835313
0.833387
0.831477
0.829587
0.827721
0.825883
0.824078
0.822309
0.820581
0.818898
0.817264
0.815684
0.814161
0.812701
0.811307
0.809984
0.808738
0.807573
0.806495
0.805509
0.804621
0.803838
0.803167
0.802615
0.802191
0.801903
0.801761
0.801767
0.801949
0.802324
0.802903
0.803701
0.804738
0.806038
0.807628
0.809536
0.811797
0.814447
0.817531
0.821098
0.825203
0.82991
0.835294
0.841438
0.848438
0.856406
0.86547
0.875779
0.887503
0.900843
0.91603
0.933337
0.953078
0.975623
1.0014
1.03093
1.06477
1.10362
1.14822
1.19941
1.25807
1.32501
1.4008
1.48542
1.57764
1.67405
1.76779
1.84682
1.89498
0.871827
0.870585
0.869259
0.867856
0.866382
0.864841
0.863241
0.861586
0.859881
0.858131
0.856342
0.854517
0.852663
0.850782
0.84888
0.84696
0.845027
0.843086
0.841141
0.839194
0.837253
0.835318
0.833396
0.831489
0.829603
0.82774
0.825906
0.824104
0.822339
0.820615
0.818935
0.817304
0.815727
0.814208
0.812751
0.811361
0.810042
0.8088
0.807639
0.806565
0.805583
0.8047
0.803923
0.803258
0.802712
0.802296
0.802016
0.801889
0.801906
0.802097
0.802485
0.803081
0.803898
0.804956
0.80628
0.807898
0.809838
0.812135
0.814828
0.81796
0.821583
0.825752
0.830535
0.836006
0.842252
0.849371
0.857479
0.866708
0.877212
0.889168
0.902786
0.918307
0.936017
0.956249
0.979395
1.00592
1.03636
1.07135
1.11163
1.15804
1.21151
1.27304
1.34357
1.42378
1.51371
1.61207
1.71514
1.81544
1.89995
1.95186
0.988153
0.954292
0.932156
0.923174
0.91803
0.912847
0.907756
0.903248
0.899342
0.895809
0.892495
0.889346
0.886317
0.883368
0.880477
0.877634
0.874827
0.872043
0.86927
0.866501
0.863728
0.860947
0.858157
0.855354
0.852539
0.849715
0.846848
0.843798
0.8406
0.837416
0.834258
0.831102
0.827945
0.824799
0.821672
0.818574
0.815516
0.81251
0.809567
0.806698
0.803912
0.801216
0.798617
0.796125
0.793745
0.791478
0.789323
0.787278
0.785337
0.783493
0.781737
0.780057
0.778441
0.776875
0.775343
0.77383
0.772319
0.77079
0.76923
0.767617
0.765946
0.764215
0.7624
0.760483
0.758446
0.756262
0.753904
0.751339
0.748545
0.745489
0.742136
0.738452
0.734398
0.72993
0.724999
0.719548
0.713515
0.706829
0.69941
0.691172
0.682014
0.671829
0.660497
0.647889
0.633865
0.618273
0.600952
0.581728
0.560425
0.536861
0.510856
0.482249
0.450912
0.41676
0.379902
0.340401
0.298126
0.253095
0.205533
0.15583
0.952721
0.93925
0.92663
0.919959
0.91524
0.910573
0.90599
0.901829
0.898116
0.89472
0.891543
0.888536
0.885604
0.882711
0.879869
0.877076
0.874317
0.871577
0.868846
0.866115
0.86338
0.860638
0.857887
0.855119
0.852329
0.849507
0.846632
0.843653
0.840582
0.837488
0.834396
0.831301
0.828202
0.825109
0.822032
0.818981
0.815969
0.813008
0.810108
0.807278
0.804539
0.801879
0.799291
0.796806
0.794435
0.792177
0.790028
0.787984
0.786038
0.784186
0.782418
0.780724
0.779095
0.777514
0.775966
0.774433
0.772902
0.771353
0.76978
0.768159
0.766497
0.764779
0.762945
0.761017
0.758965
0.756764
0.754394
0.751839
0.749056
0.746
0.742646
0.738967
0.73492
0.730459
0.725538
0.7201
0.714082
0.707411
0.700007
0.691781
0.682633
0.672452
0.661117
0.648498
0.634456
0.618838
0.601477
0.582197
0.56081
0.537121
0.510941
0.482123
0.450566
0.416215
0.379074
0.339131
0.296358
0.250823
0.202739
0.152554
0.937411
0.93273
0.925255
0.918842
0.913936
0.909543
0.905288
0.901294
0.89761
0.894152
0.890939
0.888007
0.885121
0.882227
0.879376
0.876583
0.873832
0.87111
0.868399
0.865683
0.862964
0.86024
0.857505
0.854754
0.851985
0.849206
0.846391
0.843498
0.840537
0.837546
0.834552
0.831559
0.828568
0.825585
0.822618
0.819667
0.816748
0.813884
0.811082
0.808343
0.805677
0.80308
0.80056
0.798131
0.795805
0.793583
0.791461
0.789433
0.787493
0.785639
0.783865
0.782162
0.780519
0.778925
0.777365
0.775824
0.774288
0.772741
0.771172
0.769569
0.767918
0.766203
0.764407
0.762524
0.760527
0.7584
0.756112
0.753654
0.750954
0.747992
0.74475
0.741198
0.737291
0.732984
0.728225
0.722957
0.717115
0.710623
0.703398
0.695344
0.686362
0.67634
0.665161
0.652687
0.638774
0.623264
0.60598
0.586743
0.565365
0.541558
0.515088
0.485812
0.453678
0.418729
0.380879
0.340022
0.296183
0.249516
0.200279
0.148832
0.926882
0.924468
0.919505
0.914328
0.910064
0.906307
0.902653
0.899095
0.895735
0.892567
0.889569
0.886706
0.883896
0.881111
0.878366
0.875666
0.872998
0.870346
0.867696
0.865044
0.862388
0.85972
0.857031
0.854317
0.851571
0.848859
0.846157
0.843369
0.840509
0.837623
0.834733
0.831843
0.828959
0.826085
0.823233
0.820404
0.817596
0.814826
0.812112
0.80946
0.806878
0.804363
0.801926
0.799569
0.797308
0.795154
0.793091
0.791101
0.789185
0.787347
0.785587
0.783894
0.782262
0.780679
0.779134
0.777612
0.776098
0.774579
0.77304
0.771471
0.76986
0.768204
0.766483
0.764684
0.762787
0.760758
0.758587
0.75624
0.753682
0.750889
0.747834
0.744484
0.740794
0.736721
0.73221
0.727205
0.721637
0.71543
0.708488
0.700717
0.69199
0.682211
0.671307
0.659103
0.645407
0.630046
0.612856
0.593669
0.572346
0.548377
0.521485
0.491493
0.458384
0.422555
0.383806
0.341826
0.296622
0.248404
0.197469
0.144189
0.91895
0.917607
0.914521
0.910802
0.90731
0.904062
0.900853
0.897662
0.894568
0.891596
0.88872
0.88592
0.883178
0.880472
0.877796
0.875145
0.872513
0.869891
0.867271
0.864655
0.862038
0.859413
0.856776
0.854124
0.851461
0.848796
0.846113
0.84338
0.840605
0.837811
0.835013
0.832214
0.829419
0.826637
0.823876
0.821146
0.818445
0.815772
0.813148
0.81058
0.808074
0.805634
0.803265
0.800961
0.798741
0.796654
0.794664
0.792725
0.790846
0.789036
0.787298
0.785624
0.78401
0.782453
0.780941
0.779447
0.777956
0.776467
0.774975
0.773467
0.771932
0.770358
0.76873
0.767032
0.765248
0.763352
0.761325
0.759144
0.75678
0.754204
0.751384
0.748286
0.744871
0.741094
0.736902
0.732237
0.727027
0.721205
0.714648
0.707293
0.698917
0.689428
0.678915
0.667125
0.653797
0.638742
0.62178
0.602697
0.58124
0.557074
0.529957
0.499735
0.466333
0.42973
0.389744
0.346223
0.299224
0.248968
0.19578
0.140084
0.912814
0.911997
0.909932
0.907132
0.904208
0.90135
0.8985
0.895636
0.892799
0.890023
0.887308
0.884643
0.882019
0.879423
0.876844
0.87428
0.871727
0.869181
0.866636
0.86409
0.861538
0.858979
0.856407
0.85382
0.851218
0.8486
0.845965
0.843305
0.840621
0.837919
0.835212
0.832505
0.829804
0.827116
0.824448
0.821806
0.819193
0.816614
0.814081
0.811604
0.809182
0.806824
0.80453
0.802312
0.800176
0.798134
0.796168
0.794262
0.79242
0.790649
0.788945
0.787299
0.785708
0.784187
0.782734
0.781301
0.779855
0.778415
0.776986
0.775552
0.774103
0.772622
0.7711
0.769523
0.767871
0.766122
0.764259
0.762268
0.760121
0.757786
0.75523
0.752421
0.749321
0.745885
0.742061
0.737789
0.732998
0.72761
0.721524
0.714639
0.706822
0.697975
0.688009
0.676717
0.663868
0.649256
0.632667
0.613855
0.592549
0.568455
0.541293
0.510822
0.476842
0.439196
0.397762
0.35247
0.303372
0.25067
0.194718
0.136015
0.907821
0.907246
0.905755
0.903613
0.901225
0.898781
0.896292
0.893749
0.891181
0.888621
0.886083
0.883565
0.881061
0.878568
0.87608
0.873597
0.871116
0.868635
0.866149
0.863657
0.861157
0.858646
0.856124
0.853587
0.851036
0.848471
0.845893
0.843299
0.840688
0.838064
0.835435
0.832808
0.83019
0.827585
0.825
0.82244
0.81991
0.817418
0.814969
0.812571
0.810229
0.807946
0.805726
0.803575
0.801497
0.799496
0.797568
0.795708
0.793915
0.79219
0.79053
0.788931
0.787391
0.785912
0.784482
0.783081
0.781693
0.780323
0.778969
0.777621
0.776265
0.774892
0.77349
0.772047
0.770546
0.768972
0.767308
0.765536
0.763631
0.761564
0.759307
0.756828
0.75409
0.751049
0.747653
0.743844
0.739554
0.734702
0.729195
0.722928
0.715782
0.707626
0.698313
0.687665
0.675468
0.661489
0.645479
0.62716
0.606228
0.58236
0.555226
0.524515
0.489956
0.451324
0.408451
0.36124
0.30972
0.254095
0.194767
0.132334
0.903622
0.903186
0.902059
0.900384
0.898421
0.896321
0.894124
0.891842
0.889502
0.887134
0.884756
0.882372
0.879986
0.877595
0.875201
0.872802
0.870398
0.867987
0.865568
0.863139
0.8607
0.858249
0.855786
0.853309
0.850818
0.848314
0.845798
0.843268
0.840726
0.838176
0.835623
0.833074
0.830534
0.828008
0.825501
0.82302
0.820569
0.818155
0.815782
0.813458
0.811186
0.80897
0.806815
0.804726
0.802705
0.800755
0.798877
0.797066
0.795322
0.793644
0.79203
0.790478
0.788985
0.787547
0.78616
0.784813
0.783497
0.782206
0.780937
0.779682
0.778432
0.777178
0.77591
0.774617
0.773286
0.771903
0.770452
0.768915
0.767272
0.765498
0.763566
0.761447
0.759105
0.756498
0.753578
0.750288
0.746561
0.742319
0.737471
0.731911
0.725519
0.718152
0.709654
0.699841
0.688489
0.675344
0.660125
0.642521
0.622187
0.598754
0.571832
0.541039
0.506011
0.466422
0.422015
0.372631
0.318268
0.259137
0.195695
0.128663
0.900023
0.899679
0.898787
0.897435
0.895794
0.893979
0.892035
0.889986
0.887857
0.885675
0.883456
0.881213
0.878949
0.876668
0.874371
0.87206
0.869735
0.867397
0.865046
0.862681
0.860301
0.857908
0.855501
0.85308
0.850645
0.848198
0.845738
0.843268
0.84079
0.838307
0.835823
0.833345
0.830876
0.828421
0.825987
0.823577
0.821198
0.818855
0.816552
0.814295
0.812089
0.809938
0.807845
0.805815
0.80385
0.801953
0.800123
0.798361
0.796664
0.795033
0.793467
0.791964
0.790521
0.789135
0.787803
0.786519
0.785275
0.784065
0.782885
0.781729
0.780592
0.779466
0.778341
0.777209
0.776059
0.774879
0.773655
0.772373
0.771014
0.769558
0.76798
0.766253
0.764345
0.762217
0.759824
0.757112
0.754018
0.750468
0.746372
0.741625
0.736107
0.729675
0.72216
0.713367
0.70306
0.690969
0.676785
0.660158
0.640698
0.617971
0.591513
0.560844
0.525485
0.484988
0.438975
0.387188
0.329557
0.266271
0.197843
0.125142
0.896898
0.896615
0.895885
0.894762
0.893369
0.89179
0.890063
0.888216
0.886272
0.884255
0.882183
0.880069
0.87792
0.875742
0.873537
0.87131
0.869062
0.866795
0.864509
0.862206
0.859887
0.857551
0.8552
0.852835
0.850455
0.848064
0.845662
0.843252
0.840835
0.838415
0.835997
0.833584
0.831182
0.828795
0.826428
0.824086
0.821773
0.819496
0.817259
0.815066
0.812922
0.810831
0.808797
0.806823
0.804912
0.803066
0.801286
0.799572
0.797924
0.796343
0.794827
0.793375
0.791986
0.790657
0.789386
0.788169
0.787
0.785875
0.784791
0.783743
0.782726
0.781735
0.780763
0.779802
0.778844
0.77788
0.776898
0.775887
0.774831
0.773713
0.772513
0.771206
0.769764
0.768153
0.766333
0.764254
0.761857
0.759072
0.755815
0.751984
0.747459
0.742097
0.735725
0.728138
0.719093
0.708301
0.695426
0.680077
0.661807
0.640113
0.614437
0.584179
0.54872
0.507451
0.459824
0.405421
0.344044
0.275823
0.201317
0.121584
0.89416
0.893921
0.893305
0.892352
0.89115
0.88976
0.888215
0.88654
0.884757
0.882889
0.880952
0.87896
0.87692
0.874841
0.872728
0.870583
0.868412
0.866215
0.863996
0.861756
0.859496
0.857218
0.854922
0.852611
0.850287
0.84795
0.845603
0.843248
0.840889
0.838528
0.836169
0.833817
0.831477
0.829151
0.826846
0.824566
0.822315
0.820099
0.817921
0.815787
0.813701
0.811667
0.809687
0.807767
0.805907
0.804111
0.80238
0.800716
0.799117
0.797586
0.796121
0.794722
0.793389
0.792119
0.790913
0.789766
0.788677
0.787641
0.786656
0.78572
0.784829
0.783979
0.783164
0.782381
0.781624
0.780884
0.780156
0.779427
0.778689
0.777926
0.777123
0.776261
0.775315
0.774256
0.77305
0.771653
0.770012
0.768065
0.765731
0.762917
0.759505
0.755355
0.750295
0.744117
0.736569
0.727347
0.716087
0.70236
0.685661
0.665404
0.640924
0.611478
0.576271
0.53448
0.485322
0.428136
0.362506
0.288427
0.206468
0.117936
0.891747
0.891541
0.891009
0.890183
0.889128
0.887892
0.8865
0.884972
0.88333
0.881593
0.879778
0.877897
0.87596
0.873975
0.871947
0.869881
0.867783
0.865654
0.863499
0.861318
0.859115
0.856892
0.85465
0.852392
0.850119
0.847834
0.845539
0.843238
0.840932
0.838626
0.836323
0.834028
0.831744
0.829476
0.827228
0.825005
0.822811
0.820651
0.81853
0.816451
0.814419
0.812437
0.81051
0.80864
0.80683
0.805082
0.8034
0.801783
0.800234
0.798752
0.797339
0.795994
0.794718
0.79351
0.79237
0.791297
0.79029
0.789346
0.788463
0.787642
0.786879
0.786173
0.785522
0.784922
0.78437
0.783862
0.783394
0.782958
0.782548
0.782155
0.781766
0.781367
0.78094
0.780462
0.779906
0.779234
0.778403
0.777357
0.776026
0.774322
0.772139
0.769341
0.765763
0.761196
0.755387
0.748021
0.738713
0.726996
0.712309
0.693979
0.67122
0.643122
0.608669
0.566768
0.516309
0.456278
0.385908
0.304919
0.213762
0.114014
0.889614
0.889432
0.888965
0.888235
0.887297
0.886186
0.88492
0.883517
0.881997
0.880376
0.87867
0.87689
0.875047
0.873149
0.871201
0.86921
0.867181
0.865117
0.863023
0.8609
0.858752
0.856582
0.854392
0.852184
0.849961
0.847726
0.845481
0.84323
0.840974
0.838719
0.836469
0.834225
0.831994
0.829778
0.827583
0.825412
0.823271
0.821163
0.819093
0.817065
0.815083
0.813151
0.811272
0.80945
0.807687
0.805986
0.80435
0.802781
0.801279
0.799847
0.798486
0.797195
0.795977
0.794831
0.793758
0.79276
0.791835
0.790983
0.790204
0.789499
0.788866
0.788307
0.78782
0.787405
0.787062
0.78679
0.786586
0.786448
0.786374
0.786357
0.786393
0.786471
0.786581
0.786707
0.786827
0.786916
0.786939
0.786849
0.786589
0.786083
0.785235
0.783923
0.78199
0.779238
0.775416
0.770208
0.763216
0.753945
0.741779
0.725964
0.705582
0.679537
0.64655
0.605179
0.55387
0.491102
0.415557
0.326521
0.224092
0.110021
0.887727
0.887565
0.887147
0.886493
0.885647
0.884636
0.883476
0.88218
0.880764
0.879245
0.877635
0.875947
0.874189
0.87237
0.870496
0.868575
0.866611
0.864608
0.862571
0.860504
0.858408
0.856288
0.854147
0.851987
0.849811
0.847623
0.845424
0.843219
0.841011
0.838803
0.8366
0.834404
0.832221
0.830053
0.827906
0.825784
0.823691
0.821631
0.819608
0.817627
0.815691
0.813805
0.811971
0.810193
0.808475
0.806819
0.805228
0.803704
0.802249
0.800866
0.799555
0.798318
0.797157
0.796073
0.795067
0.794143
0.7933
0.792541
0.791865
0.791275
0.790772
0.790359
0.790036
0.789807
0.789672
0.789635
0.789697
0.789858
0.790121
0.790486
0.790951
0.791514
0.792171
0.792914
0.793731
0.794606
0.795515
0.796425
0.797292
0.798057
0.798638
0.798931
0.798797
0.798053
0.796464
0.793721
0.789427
0.783071
0.774
0.761383
0.74418
0.721095
0.690551
0.650676
0.599321
0.534218
0.453105
0.354598
0.238095
0.106024
0.88606
0.885913
0.885534
0.884939
0.884167
0.88324
0.882167
0.88096
0.879634
0.878203
0.876678
0.875071
0.873389
0.871643
0.869838
0.86798
0.866077
0.864131
0.862148
0.860131
0.858085
0.856013
0.853917
0.851802
0.84967
0.847525
0.84537
0.843208
0.841043
0.838879
0.836719
0.834567
0.832428
0.830304
0.828202
0.826123
0.824074
0.822057
0.820078
0.81814
0.816247
0.814402
0.812611
0.810875
0.809199
0.807585
0.806036
0.804555
0.803145
0.801808
0.800546
0.799361
0.798256
0.797233
0.796294
0.795441
0.794679
0.79401
0.793436
0.792959
0.792584
0.792314
0.792153
0.792106
0.792177
0.792372
0.792695
0.793154
0.793752
0.794495
0.795388
0.796437
0.797643
0.799007
0.800529
0.802204
0.804019
0.805958
0.807993
0.810083
0.812168
0.814167
0.815964
0.817405
0.818277
0.818297
0.817084
0.814135
0.808778
0.800136
0.78706
0.768066
0.741264
0.704298
0.654285
0.58794
0.50141
0.391909
0.256195
0.0993333
0.884591
0.884457
0.884109
0.883562
0.88285
0.88199
0.88099
0.879859
0.878609
0.877254
0.875803
0.874267
0.872654
0.870973
0.869229
0.86743
0.865582
0.863688
0.861755
0.859786
0.857785
0.855756
0.853703
0.85163
0.849538
0.847433
0.845318
0.843196
0.84107
0.838945
0.836825
0.834714
0.832614
0.830531
0.828467
0.826429
0.824419
0.822442
0.820502
0.818603
0.816748
0.814943
0.81319
0.811493
0.809855
0.80828
0.806771
0.805332
0.803964
0.802671
0.801456
0.800321
0.79927
0.798305
0.797429
0.796647
0.795962
0.79538
0.794904
0.794536
0.794284
0.794153
0.794148
0.794278
0.794548
0.794969
0.795548
0.796295
0.79722
0.798334
0.799648
0.801174
0.802922
0.804904
0.807127
0.809601
0.812328
0.815308
0.818531
0.821979
0.825618
0.829395
0.833227
0.836996
0.840528
0.843581
0.845814
0.846755
0.845756
0.841927
0.834056
0.820505
0.799087
0.766926
0.720326
0.654804
0.564592
0.444766
0.28461
0.0908917
0.883306
0.883181
0.882858
0.88235
0.881686
0.880881
0.879941
0.878874
0.877689
0.876399
0.875012
0.873539
0.871986
0.870362
0.868674
0.866928
0.865129
0.863283
0.861395
0.859469
0.85751
0.855521
0.853507
0.851471
0.849417
0.847348
0.845269
0.843183
0.841093
0.839004
0.83692
0.834844
0.83278
0.830732
0.828705
0.826702
0.824728
0.822786
0.820882
0.819018
0.817198
0.815428
0.81371
0.812048
0.810445
0.808907
0.807435
0.806033
0.804705
0.803453
0.802282
0.801195
0.800194
0.799284
0.798469
0.797753
0.797142
0.796642
0.796258
0.795995
0.79586
0.79586
0.796005
0.796302
0.796763
0.797399
0.798222
0.799245
0.800485
0.801956
0.803676
0.805663
0.807937
0.810519
0.813429
0.816687
0.820313
0.824324
0.828733
0.833546
0.838758
0.84435
0.850281
0.856476
0.862818
0.869121
0.875111
0.880386
0.884362
0.886198
0.884694
0.878136
0.864103
0.839179
0.798709
0.736524
0.644807
0.516606
0.334024
0.10748
0.88219
0.882072
0.88177
0.881293
0.880668
0.879908
0.879018
0.878004
0.876874
0.875639
0.874308
0.872888
0.871388
0.869815
0.868175
0.866475
0.86472
0.862917
0.861069
0.859182
0.85726
0.855308
0.853329
0.851327
0.849306
0.84727
0.845223
0.843169
0.841111
0.839054
0.837002
0.834958
0.832926
0.83091
0.828914
0.826943
0.825
0.82309
0.821217
0.819384
0.817596
0.815857
0.81417
0.81254
0.810969
0.809463
0.808025
0.806658
0.805366
0.804152
0.803022
0.801978
0.801024
0.800166
0.799407
0.798753
0.798209
0.797785
0.797488
0.797322
0.797296
0.797419
0.797702
0.798157
0.798796
0.799633
0.800685
0.801969
0.803504
0.805311
0.807415
0.80984
0.812614
0.815769
0.819335
0.823347
0.827841
0.832853
0.838418
0.844571
0.851338
0.85874
0.866781
0.875443
0.884672
0.894365
0.904337
0.914292
0.923767
0.93205
0.938061
0.940161
0.935892
0.92143
0.891178
0.836055
0.744605
0.600208
0.386844
0.140947
0.881232
0.881121
0.880835
0.880383
0.879789
0.879067
0.878218
0.877247
0.876163
0.874975
0.87369
0.872317
0.870862
0.869332
0.867734
0.866075
0.864359
0.862592
0.86078
0.858928
0.857039
0.855118
0.85317
0.851198
0.849207
0.8472
0.845181
0.843155
0.841126
0.839097
0.837072
0.835056
0.833051
0.831063
0.829095
0.827152
0.825236
0.823354
0.821508
0.819702
0.817942
0.81623
0.814571
0.812968
0.811427
0.809949
0.808541
0.807205
0.805945
0.804766
0.803672
0.802668
0.801757
0.800945
0.800237
0.79964
0.799158
0.798803
0.798583
0.798505
0.798579
0.798815
0.799224
0.799823
0.800624
0.801646
0.802908
0.80443
0.806237
0.808355
0.810812
0.813643
0.816881
0.820569
0.824748
0.829467
0.834778
0.840737
0.847401
0.854834
0.863098
0.872253
0.882356
0.89345
0.905559
0.918671
0.932719
0.947548
0.962867
0.978176
0.992651
1.00494
1.01292
1.01291
0.99933
0.960514
0.881541
0.71737
0.441009
-0.0263088
0.880425
0.880319
0.880045
0.879613
0.879046
0.878353
0.877537
0.876602
0.875556
0.874406
0.87316
0.871825
0.870408
0.868915
0.867353
0.865728
0.864046
0.862311
0.86053
0.858706
0.856846
0.854953
0.853031
0.851085
0.849119
0.847137
0.845144
0.843142
0.841136
0.839131
0.837131
0.835138
0.833157
0.831193
0.829248
0.827328
0.825437
0.823578
0.821755
0.819973
0.818236
0.816548
0.814913
0.813334
0.811817
0.810365
0.808982
0.807673
0.806441
0.805293
0.804231
0.803261
0.802388
0.801618
0.800956
0.800407
0.799981
0.799686
0.799534
0.799535
0.799697
0.800032
0.800555
0.80128
0.802227
0.803413
0.804862
0.806597
0.808647
0.811043
0.813818
0.817013
0.820671
0.82484
0.829575
0.834938
0.840995
0.847821
0.855498
0.864116
0.873773
0.884571
0.89662
0.910028
0.924902
0.941333
0.959384
0.979067
1.0003
1.02287
1.04631
1.06976
1.09174
1.1096
1.11915
1.1109
1.07307
0.946791
0.69967
-0.266161
0.104413
0.0516384
-0.00208894
-0.0562746
-0.110387
-0.1639
-0.216317
-0.267173
-0.316044
-0.36256
-0.406387
-0.447356
-0.485173
-0.519928
-0.551779
-0.580205
-0.605059
-0.626592
-0.64499
-0.660378
-0.672935
-0.682763
-0.689974
-0.69471
-0.697104
-0.697377
-0.695856
-0.692752
0.100707
0.0474853
-0.00669873
-0.0613088
-0.115791
-0.169602
-0.222245
-0.273248
-0.3222
-0.368765
-0.412683
-0.453675
-0.491445
-0.526003
-0.557176
-0.584932
-0.609555
-0.630983
-0.649306
-0.66471
-0.677246
-0.68703
-0.694237
-0.699055
-0.70163
-0.702145
-0.700843
-0.697926
0.0955769
0.0409432
-0.014561
-0.0703537
-0.12588
-0.180568
-0.233937
-0.285498
-0.334856
-0.381668
-0.425636
-0.46654
-0.504153
-0.538464
-0.569312
-0.596803
-0.620948
-0.641983
-0.660093
-0.675352
-0.687746
-0.697484
-0.704818
-0.709924
-0.712953
-0.714059
-0.713414
-0.711187
0.0890277
0.0325004
-0.024748
-0.0821483
-0.139042
-0.194921
-0.249265
-0.301554
-0.351451
-0.398537
-0.442629
-0.483449
-0.520921
-0.554959
-0.585563
-0.612554
-0.635876
-0.65618
-0.67374
-0.688523
-0.700562
-0.710111
-0.717427
-0.722684
-0.726053
-0.727643
-0.727575
-0.725967
0.0824176
0.0233948
-0.0362672
-0.0958612
-0.154721
-0.212283
-0.267998
-0.321381
-0.372024
-0.419617
-0.463918
-0.50473
-0.541985
-0.575573
-0.605587
-0.631887
-0.654695
-0.674399
-0.691199
-0.705221
-0.716677
-0.725822
-0.732904
-0.738151
-0.741717
-0.743674
-0.744109
-0.743075
0.0751963
0.0130043
-0.0497195
-0.112114
-0.173449
-0.233117
-0.290546
-0.345236
-0.396812
-0.444969
-0.489505
-0.530264
-0.567172
-0.600211
-0.629433
-0.654935
-0.676915
-0.695616
-0.711326
-0.724342
-0.734947
-0.74342
-0.750051
-0.755127
-0.758758
-0.761009
-0.761928
-0.761478
0.0675762
0.00140444
-0.0651425
-0.131024
-0.195423
-0.257672
-0.317171
-0.373431
-0.426095
-0.474908
-0.519692
-0.560346
-0.596827
-0.629161
-0.657452
-0.681873
-0.702631
-0.720012
-0.734377
-0.746103
-0.755556
-0.763061
-0.769011
-0.773749
-0.777368
-0.779915
-0.781381
-0.781612
0.0590115
-0.0121099
-0.0833803
-0.153525
-0.221613
-0.286913
-0.348812
-0.406835
-0.460682
-0.510156
-0.555128
-0.595554
-0.631431
-0.662823
-0.689893
-0.712869
-0.732028
-0.747705
-0.760307
-0.770328
-0.778225
-0.784404
-0.789381
-0.793591
-0.797136
-0.80004
-0.802216
-0.803355
0.049403
-0.0278854
-0.10498
-0.180276
-0.252721
-0.321534
-0.386125
-0.446047
-0.501105
-0.551189
-0.596226
-0.636246
-0.671282
-0.701443
-0.726944
-0.748089
-0.765217
-0.778699
-0.789025
-0.796823
-0.802681
-0.807113
-0.810748
-0.814206
-0.81766
-0.821102
-0.82433
-0.826825
0.0382151
-0.0468161
-0.13112
-0.212599
-0.29009
-0.362824
-0.430313
-0.492155
-0.548347
-0.59889
-0.643787
-0.683156
-0.717033
-0.745569
-0.769056
-0.787892
-0.802466
-0.81318
-0.820599
-0.825507
-0.828736
-0.830911
-0.83273
-0.835104
-0.838437
-0.842672
-0.847463
-0.852035
0.0249283
-0.0698784
-0.163097
-0.251942
-0.335214
-0.412219
-0.482699
-0.546311
-0.603436
-0.654151
-0.698577
-0.736955
-0.769297
-0.795707
-0.816632
-0.832548
-0.843877
-0.851098
-0.854853
-0.856015
-0.855752
-0.855013
-0.854496
-0.855384
-0.85868
-0.864222
-0.871384
-0.87908
0.00850932
-0.0988751
-0.20305
-0.300458
-0.390144
-0.471636
-0.54498
-0.60975
-0.667315
-0.717704
-0.761254
-0.798149
-0.828591
-0.852418
-0.870331
-0.882906
-0.89026
-0.892965
-0.89202
-0.888459
-0.883528
-0.878843
-0.875108
-0.873657
-0.876607
-0.884215
-0.895188
-0.907981
-0.0121967
-0.136722
-0.254888
-0.361871
-0.45767
-0.543161
-0.618501
-0.683468
-0.740988
-0.790796
-0.833324
-0.868791
-0.896325
-0.916583
-0.93049
-0.939104
-0.942112
-0.939185
-0.932016
-0.922466
-0.911481
-0.901384
-0.893913
-0.889877
-0.891985
-0.90185
-0.917943
-0.938211
-0.0383158
-0.186564
-0.323092
-0.439994
-0.541373
-0.630659
-0.707031
-0.772333
-0.827882
-0.875446
-0.917195
-0.951503
-0.975098
-0.990299
-1.00003
-1.0032
-0.99978
-0.990082
-0.975315
-0.957519
-0.937934
-0.919506
-0.905469
-0.897973
-0.900945
-0.914632
-0.938549
-0.970359
-0.0756818
-0.252655
-0.408007
-0.535706
-0.645146
-0.737195
-0.814748
-0.879494
-0.929602
-0.971376
-1.00965
-1.04004
-1.06043
-1.07112
-1.07411
-1.07059
-1.06119
-1.04552
-1.02333
-0.995925
-0.965742
-0.936708
-0.913183
-0.898508
-0.896364
-0.913162
-0.950353
-1.0012
-0.142375
-0.364321
-0.532141
-0.667548
-0.784993
-0.872723
-0.939883
-0.992648
-1.03555
-1.07319
-1.10595
-1.13128
-1.14681
-1.15114
-1.14644
-1.13461
-1.11754
-1.09533
-1.06612
-1.02858
-0.986361
-0.944651
-0.909598
-0.888648
-0.890706
-0.910719
-0.959079
-1.02763
-0.233345
-0.547892
-0.740801
-0.85751
-0.956629
-1.02611
-1.07041
-1.10314
-1.13155
-1.15961
-1.18617
-1.20591
-1.2154
-1.21398
-1.20504
-1.19196
-1.17287
-1.14513
-1.11005
-1.06543
-1.01279
-0.956927
-0.904782
-0.865323
-0.851454
-0.877951
-0.938848
-1.02657
-0.329611
-0.74351
-0.97096
-1.06804
-1.11089
-1.128
-1.13326
-1.13773
-1.14843
-1.16886
-1.19528
-1.21706
-1.22318
-1.21459
-1.20135
-1.19007
-1.17549
-1.15287
-1.11956
-1.0755
-1.0233
-0.968462
-0.918644
-0.883407
-0.874858
-0.89922
-0.953274
-1.03817
-0.746435
-0.989068
-1.10989
-1.145
-1.1233
-1.13189
-1.15139
-1.16208
-1.16927
-1.17844
-1.19159
-1.20388
-1.20922
-1.2042
-1.1924
-1.17599
-1.15727
-1.13388
-1.10381
-1.0652
-1.01996
-0.973067
-0.930643
-0.900178
-0.893524
-0.916085
-0.965371
-1.04078
-2.10147
-1.37681
-1.14094
-1.19679
-1.17371
-1.1587
-1.15365
-1.15752
-1.16594
-1.1774
-1.18923
-1.19764
-1.19963
-1.19565
-1.18693
-1.17384
-1.15547
-1.13108
-1.09881
-1.06073
-1.01897
-0.978163
-0.944786
-0.926121
-0.921961
-0.938658
-0.980063
-1.04529
)
;

boundaryField
{
    inlet
    {
        type            zeroGradient;
    }
    outlet
    {
        type            fixedValue;
        value           nonuniform List<scalar> 0();
    }
    topWall
    {
        type            zeroGradient;
    }
    lowerWall
    {
        type            zeroGradient;
    }
    leadingEdge
    {
        type            zeroGradient;
    }
    trailingEdge
    {
        type            zeroGradient;
    }
    upperSurface
    {
        type            zeroGradient;
    }
    lowerSurface
    {
        type            zeroGradient;
    }
    frontAndBack
    {
        type            empty;
    }
    procBoundary0to1
    {
        type            processor;
        value           nonuniform List<scalar> 
20
(
-0.688189
-0.693565
-0.707532
-0.722919
-0.740586
-0.759554
-0.780349
-0.802997
-0.82785
-0.855264
-0.885686
-0.920088
-0.959508
-1.0037
-1.05408
-1.10636
-1.13287
-1.14449
-1.13506
-1.1259
)
;
    }
    procBoundary0to4
    {
        type            processor;
        value           nonuniform List<scalar> 
101
(
0.878452
0.878357
0.878113
0.877725
0.877215
0.87659
0.87585
0.874998
0.87404
0.872981
0.872981
0.871823
0.870581
0.869255
0.867852
0.866377
0.864837
0.863237
0.861581
0.859876
0.858126
0.856336
0.854512
0.852657
0.850776
0.848873
0.846953
0.84502
0.843078
0.841133
0.839186
0.837244
0.835309
0.833386
0.831479
0.829592
0.827729
0.825894
0.824092
0.822326
0.8206
0.81892
0.817289
0.815711
0.814191
0.812733
0.811342
0.810022
0.808779
0.807617
0.806541
0.805559
0.804675
0.803896
0.803229
0.802682
0.802265
0.801984
0.801849