/*--------------------------------*- C++ -*----------------------------------*\
| =========                 |                                                 |
| \\      /  F ield         | OpenFOAM: The Open Source CFD Toolbox           |
|  \\    /   O peration     | Version:  2206                                  |
|   \\  /    A nd           | Website:  www.openfoam.com                      |
|    \\/     M anipulation  |                                                 |
\*---------------------------------------------------------------------------*/
FoamFile
{
    version     2.0;
    format      ascii;
    arch        "LSB;label=32;scalar=64";
    class       surfaceScalarField;
    location    "19.8999";
    object      phi_0;
}
// * * * * * * * * * * * * * * * * * * * * * * * * * * * * * * * * * * * * * //

dimensions      [0 3 -1 0 0 0 0];

oriented        oriented;

internalField   nonuniform List<scalar> 
5947
(
7.38823e-06
8.91239e-10
-1.12444e-09
7.38893e-06
2.68223e-09
-3.38253e-09
7.39009e-06
4.46294e-09
-5.62415e-09
7.39171e-06
6.21707e-09
-7.82854e-09
7.39375e-06
7.93075e-09
-9.97808e-09
7.39622e-06
9.59252e-09
-1.20584e-08
7.39908e-06
1.11926e-08
-1.40574e-08
7.40233e-06
1.27226e-08
-1.59652e-08
7.40592e-06
1.41762e-08
-1.77741e-08
7.40985e-06
1.55485e-08
-1.94789e-08
7.41409e-06
1.68364e-08
-2.10762e-08
7.41862e-06
1.80381e-08
-2.25647e-08
7.42341e-06
1.91531e-08
-2.39441e-08
7.42845e-06
2.01816e-08
-2.52157e-08
7.4337e-06
2.1125e-08
-2.63814e-08
7.43916e-06
2.19851e-08
-2.74439e-08
7.4448e-06
2.27643e-08
-2.84065e-08
7.45061e-06
2.3465e-08
-2.92726e-08
7.45657e-06
2.40904e-08
-3.0046e-08
7.46265e-06
2.46432e-08
-3.07303e-08
7.46886e-06
2.51267e-08
-3.13292e-08
7.47516e-06
2.55437e-08
-3.18464e-08
7.48155e-06
2.58972e-08
-3.22852e-08
7.48801e-06
2.619e-08
-3.26488e-08
7.49452e-06
2.64248e-08
-3.29402e-08
7.50108e-06
2.6604e-08
-3.31621e-08
7.50767e-06
2.67298e-08
-3.33169e-08
7.51427e-06
2.68045e-08
-3.34069e-08
7.52087e-06
2.68295e-08
-3.34337e-08
7.52747e-06
2.68069e-08
-3.33994e-08
7.53403e-06
2.6738e-08
-3.33051e-08
7.54056e-06
2.66239e-08
-3.3152e-08
7.54704e-06
2.64654e-08
-3.29411e-08
7.55345e-06
2.62637e-08
-3.26733e-08
7.55978e-06
2.6019e-08
-3.23491e-08
7.56601e-06
2.57322e-08
-3.1969e-08
7.57214e-06
2.54028e-08
-3.1533e-08
7.57815e-06
2.50318e-08
-3.10415e-08
7.58403e-06
2.46179e-08
-3.04941e-08
7.58976e-06
2.41619e-08
-2.98906e-08
7.59533e-06
2.36622e-08
-2.92304e-08
7.60072e-06
2.31189e-08
-2.85126e-08
7.60593e-06
2.25302e-08
-2.77366e-08
7.61093e-06
2.18958e-08
-2.69003e-08
7.61572e-06
2.12131e-08
-2.60031e-08
7.62028e-06
2.04811e-08
-2.50417e-08
7.6246e-06
1.96969e-08
-2.40148e-08
7.62866e-06
1.88584e-08
-2.2918e-08
7.63245e-06
1.79618e-08
-2.17487e-08
7.63594e-06
1.70041e-08
-2.05012e-08
7.63914e-06
1.59794e-08
-1.91713e-08
7.642e-06
1.48848e-08
-1.7751e-08
7.64453e-06
1.37098e-08
-1.62348e-08
7.64668e-06
1.24533e-08
-1.46116e-08
7.64846e-06
1.10972e-08
-1.28753e-08
7.64983e-06
9.64862e-09
-1.10132e-08
7.65077e-06
8.08082e-09
-9.02021e-09
7.65123e-06
6.41945e-09
-6.88058e-09
7.65119e-06
4.6036e-09
-4.56165e-09
7.6506e-06
2.63259e-09
-2.04907e-09
7.64943e-06
4.87458e-10
6.81592e-10
7.64763e-06
-1.85578e-09
3.65862e-09
7.64514e-06
-4.42228e-09
6.91326e-09
7.6419e-06
-7.24152e-09
1.04823e-08
7.63784e-06
-1.03479e-08
1.44083e-08
7.63288e-06
-1.37821e-08
1.87407e-08
7.62693e-06
-1.75907e-08
2.35367e-08
7.6199e-06
-2.18279e-08
2.88623e-08
7.61166e-06
-2.65566e-08
3.47939e-08
7.60209e-06
-3.18499e-08
4.14203e-08
7.59104e-06
-3.77933e-08
4.8845e-08
7.57834e-06
-4.44869e-08
5.71885e-08
7.5638e-06
-5.2048e-08
6.65917e-08
7.54719e-06
-6.06151e-08
7.72204e-08
7.52827e-06
-7.03514e-08
8.92692e-08
7.50676e-06
-8.1451e-08
1.02969e-07
7.48231e-06
-9.41445e-08
1.18592e-07
7.45455e-06
-1.08708e-07
1.36465e-07
7.42305e-06
-1.25475e-07
1.56976e-07
7.3873e-06
-1.44846e-07
1.80596e-07
7.34672e-06
-1.6731e-07
2.07891e-07
7.30063e-06
-1.93466e-07
2.39552e-07
7.24826e-06
-2.2405e-07
2.76423e-07
7.18869e-06
-2.59977e-07
3.19545e-07
7.12087e-06
-3.02389e-07
3.70209e-07
7.04357e-06
-3.52724e-07
4.30029e-07
6.95534e-06
-4.12808e-07
5.01035e-07
6.85451e-06
-4.84977e-07
5.8581e-07
6.7391e-06
-5.72248e-07
6.87663e-07
6.60676e-06
-6.78552e-07
8.10887e-07
6.45471e-06
-8.09055e-07
9.61104e-07
6.27949e-06
-9.70639e-07
1.14586e-06
6.07675e-06
-1.1725e-06
1.37524e-06
5.84007e-06
-1.42728e-06
1.66396e-06
5.56069e-06
-1.75176e-06
2.03114e-06
5.21728e-06
-2.17112e-06
2.51452e-06
4.77938e-06
-2.71163e-06
3.14954e-06
4.0923e-06
-3.43444e-06
4.12152e-06
2.97532e-06
-4.30954e-06
5.42652e-06
-5.93281e-06
8.90813e-06
7.38823e-06
6.64896e-10
7.38891e-06
2.00249e-09
7.39003e-06
3.3353e-09
7.3916e-06
4.65099e-09
7.39359e-06
5.93914e-09
7.39599e-06
7.19096e-09
7.39879e-06
8.39883e-09
7.40195e-06
9.5562e-09
7.40547e-06
1.06578e-08
7.40932e-06
1.16995e-08
7.41348e-06
1.26786e-08
7.41792e-06
1.35932e-08
7.42263e-06
1.44424e-08
7.42759e-06
1.52262e-08
7.43277e-06
1.59451e-08
7.43815e-06
1.66003e-08
7.44372e-06
1.71934e-08
7.44946e-06
1.77263e-08
7.45535e-06
1.82011e-08
7.46138e-06
1.86203e-08
7.46752e-06
1.89861e-08
7.47376e-06
1.93011e-08
7.48009e-06
1.95678e-08
7.48649e-06
1.97884e-08
7.49295e-06
1.99654e-08
7.49945e-06
2.0101e-08
7.50598e-06
2.01971e-08
7.51253e-06
2.0256e-08
7.51908e-06
2.02786e-08
7.52562e-06
2.02675e-08
7.53214e-06
2.02235e-08
7.53861e-06
2.0148e-08
7.54504e-06
2.00416e-08
7.5514e-06
1.99057e-08
7.55767e-06
1.97402e-08
7.56386e-06
1.95463e-08
7.56994e-06
1.93232e-08
7.5759e-06
1.90721e-08
7.58173e-06
1.87916e-08
7.58741e-06
1.84827e-08
7.59292e-06
1.81432e-08
7.59827e-06
1.77743e-08
7.60343e-06
1.73731e-08
7.60838e-06
1.69405e-08
7.61312e-06
1.6473e-08
7.61763e-06
1.59715e-08
7.6219e-06
1.54313e-08
7.6259e-06
1.48533e-08
7.62963e-06
1.42317e-08
7.63307e-06
1.35676e-08
7.63619e-06
1.28524e-08
7.63899e-06
1.2089e-08
7.64144e-06
1.1263e-08
7.64351e-06
1.03821e-08
7.64519e-06
9.41885e-09
7.64644e-06
8.39588e-09
7.64726e-06
7.26219e-09
7.64758e-06
6.09344e-09
7.64739e-06
4.79879e-09
7.64663e-06
3.38974e-09
7.64527e-06
1.85301e-09
7.64324e-06
1.70135e-10
7.6405e-06
-1.67776e-09
7.63697e-06
-3.71139e-09
7.63257e-06
-5.95696e-09
7.62724e-06
-8.445e-09
7.62086e-06
-1.1211e-08
7.61333e-06
-1.42958e-08
7.60452e-06
-1.77472e-08
7.59429e-06
-2.16207e-08
7.58248e-06
-2.59818e-08
7.5689e-06
-3.09069e-08
7.55333e-06
-3.64866e-08
7.53555e-06
-4.28274e-08
7.51525e-06
-5.00559e-08
7.49212e-06
-5.83226e-08
7.46579e-06
-6.78075e-08
7.4358e-06
-7.87267e-08
7.40167e-06
-9.13412e-08
7.36279e-06
-1.05968e-07
7.31848e-06
-1.22994e-07
7.26791e-06
-1.42897e-07
7.21012e-06
-1.66264e-07
7.14398e-06
-1.93832e-07
7.06811e-06
-2.26523e-07
6.9809e-06
-2.65507e-07
6.88036e-06
-3.12274e-07
6.76412e-06
-3.6874e-07
6.62926e-06
-4.37384e-07
6.47215e-06
-5.21437e-07
6.28822e-06
-6.25124e-07
6.07157e-06
-7.53993e-07
5.81437e-06
-9.15297e-07
5.50557e-06
-1.11847e-06
5.12922e-06
-1.37541e-06
4.65887e-06
-1.70077e-06
4.05821e-06
-2.11097e-06
3.24577e-06
-2.62201e-06
2.18652e-06
-3.25029e-06
-3.74629e-06
7.38822e-06
4.43404e-10
7.38889e-06
1.33759e-09
7.38999e-06
2.23192e-09
7.39152e-06
3.11775e-09
7.39347e-06
3.98786e-09
7.39583e-06
4.83603e-09
7.39857e-06
5.65676e-09
7.40168e-06
6.44522e-09
7.40514e-06
7.19739e-09
7.40893e-06
7.91007e-09
7.41303e-06
8.58089e-09
7.41741e-06
9.20817e-09
7.42207e-06
9.79088e-09
7.42696e-06
1.03286e-08
7.43209e-06
1.08215e-08
7.43742e-06
1.12701e-08
7.44294e-06
1.16753e-08
7.44862e-06
1.20384e-08
7.45446e-06
1.2361e-08
7.46044e-06
1.26448e-08
7.46653e-06
1.28915e-08
7.47273e-06
1.31031e-08
7.47902e-06
1.32817e-08
7.48538e-06
1.34291e-08
7.4918e-06
1.35475e-08
7.49826e-06
1.36387e-08
7.50475e-06
1.37046e-08
7.51126e-06
1.37471e-08
7.51777e-06
1.37671e-08
7.52427e-06
1.3767e-08
7.53075e-06
1.37477e-08
7.53718e-06
1.37104e-08
7.54357e-06
1.3656e-08
7.54989e-06
1.35854e-08
7.55613e-06
1.34989e-08
7.56228e-06
1.33974e-08
7.56832e-06
1.32803e-08
7.57425e-06
1.31487e-08
7.58004e-06
1.30012e-08
7.58568e-06
1.28389e-08
7.59116e-06
1.26597e-08
7.59647e-06
1.24647e-08
7.6016e-06
1.22511e-08
7.60652e-06
1.20202e-08
7.61122e-06
1.17686e-08
7.61569e-06
1.14975e-08
7.61992e-06
1.12028e-08
7.62389e-06
1.0886e-08
7.62758e-06
1.05418e-08
7.63097e-06
1.01726e-08
7.63406e-06
9.77073e-09
7.6368e-06
9.34072e-09
7.6392e-06
8.87015e-09
7.64121e-06
8.36895e-09
7.64282e-06
7.81178e-09
7.64399e-06
7.22581e-09
7.64471e-06
6.54243e-09
7.64494e-06
5.86383e-09
7.64463e-06
5.10379e-09
7.64375e-06
4.27257e-09
7.64224e-06
3.36269e-09
7.64005e-06
2.36038e-09
7.63712e-06
1.25481e-09
7.63337e-06
3.37724e-11
7.62873e-06
-1.31992e-09
7.62311e-06
-2.82583e-09
7.61641e-06
-4.5074e-09
7.60851e-06
-6.39133e-09
7.59927e-06
-8.50876e-09
7.58854e-06
-1.08965e-08
7.57616e-06
-1.35976e-08
7.56192e-06
-1.66632e-08
7.54558e-06
-2.01537e-08
7.5269e-06
-2.41407e-08
7.50555e-06
-2.87094e-08
7.48119e-06
-3.39617e-08
7.4534e-06
-4.00196e-08
7.4217e-06
-4.70304e-08
7.38554e-06
-5.51723e-08
7.34423e-06
-6.46627e-08
7.297e-06
-7.57682e-08
7.24292e-06
-8.88178e-08
7.18088e-06
-1.0422e-07
7.10954e-06
-1.22488e-07
7.02728e-06
-1.44266e-07
6.93215e-06
-1.70374e-07
6.82173e-06
-2.01863e-07
6.69308e-06
-2.40083e-07
6.54248e-06
-2.86786e-07
6.36529e-06
-3.44247e-07
6.15559e-06
-4.15422e-07
5.90573e-06
-5.04139e-07
5.60571e-06
-6.15278e-07
5.24215e-06
-7.5491e-07
4.79683e-06
-9.30091e-07
4.24422e-06
-1.14817e-06
3.54777e-06
-1.41451e-06
2.65054e-06
-1.72478e-06
1.46272e-06
-2.06246e-06
-2.28358e-06
7.38822e-06
7.38887e-06
7.38996e-06
7.39147e-06
7.3934e-06
7.39572e-06
7.39843e-06
7.40151e-06
7.40493e-06
7.40868e-06
7.41274e-06
4.52222e-09
7.41709e-06
4.86206e-09
7.4217e-06
5.17775e-09
7.42656e-06
5.46862e-09
7.43165e-06
5.73441e-09
7.43694e-06
5.97519e-09
7.44242e-06
6.19134e-09
7.44808e-06
6.38353e-09
7.45389e-06
6.55267e-09
7.45983e-06
6.69989e-09
7.4659e-06
6.82645e-09
7.47207e-06
6.93381e-09
7.47832e-06
7.02348e-09
7.48466e-06
7.09708e-09
7.49105e-06
7.15624e-09
7.49748e-06
7.20262e-09
7.50395e-06
7.2378e-09
7.51043e-06
7.26345e-09
7.51692e-06
7.28081e-09
7.5234e-06
7.29153e-09
7.52985e-06
7.29637e-09
7.53626e-06
7.29723e-09
7.54262e-06
7.29452e-09
7.54892e-06
7.28896e-09
7.55514e-06
7.28123e-09
7.56126e-06
7.27164e-09
7.56728e-06
7.26049e-09
7.57318e-06
7.2477e-09
7.57895e-06
7.2332e-09
7.58457e-06
7.21669e-09
7.59003e-06
7.19771e-09
7.59532e-06
7.1758e-09
7.60042e-06
7.15015e-09
7.60532e-06
7.12026e-09
7.61001e-06
7.08502e-09
7.61446e-06
7.044e-09
7.61867e-06
6.99574e-09
7.62261e-06
6.94001e-09
7.62628e-06
6.87496e-09
7.62965e-06
6.80076e-09
7.63271e-06
6.71477e-09
7.63543e-06
6.61816e-09
7.6378e-06
6.50692e-09
7.63978e-06
6.38345e-09
7.64135e-06
6.24161e-09
7.64249e-06
6.08849e-09
7.64313e-06
5.89712e-09
7.64329e-06
5.70841e-09
7.64291e-06
5.4791e-09
7.64195e-06
5.23482e-09
7.64035e-06
4.96042e-09
7.63806e-06
4.65071e-09
7.63501e-06
4.30311e-09
7.63114e-06
3.91292e-09
7.62634e-06
3.47246e-09
7.62054e-06
2.97274e-09
7.61363e-06
2.4033e-09
7.60549e-06
1.75244e-09
7.59597e-06
1.00631e-09
7.58493e-06
1.4852e-10
7.57217e-06
-8.4107e-10
7.5575e-06
-1.98613e-09
7.54066e-06
-3.31523e-09
7.52138e-06
-4.86248e-09
7.49934e-06
-6.66894e-09
7.47416e-06
-8.78372e-09
7.44541e-06
-1.12663e-08
7.41256e-06
-1.41886e-08
7.37503e-06
-1.76384e-08
7.33209e-06
-2.17226e-08
7.2829e-06
-2.65738e-08
7.22643e-06
-3.23555e-08
7.16149e-06
-3.92724e-08
7.08658e-06
-4.75816e-08
6.99992e-06
-5.7609e-08
6.89932e-06
-6.97701e-08
6.78205e-06
-8.45985e-08
6.64475e-06
-1.02783e-07
6.48318e-06
-1.25218e-07
6.292e-06
-1.53063e-07
6.0644e-06
-1.87822e-07
5.79169e-06
-2.31424e-07
5.4627e-06
-2.86293e-07
5.06315e-06
-3.55356e-07
4.5749e-06
-4.41844e-07
3.97553e-06
-5.48806e-07
3.23864e-06
-6.77621e-07
2.33819e-06
-8.24333e-07
1.25221e-06
-9.76479e-07
-1.03137e-06
7.4126e-06
7.41693e-06
7.42152e-06
7.42637e-06
7.43144e-06
7.43671e-06
7.44218e-06
7.44782e-06
7.45362e-06
7.45955e-06
7.4656e-06
7.47176e-06
7.478e-06
7.48432e-06
7.4907e-06
7.49713e-06
7.50358e-06
7.51005e-06
7.51653e-06
7.52299e-06
7.52943e-06
7.53584e-06
7.54219e-06
7.54847e-06
7.55468e-06
7.5608e-06
7.56681e-06
7.5727e-06
7.57846e-06
7.58408e-06
7.58953e-06
7.59481e-06
7.59991e-06
7.6048e-06
7.60948e-06
7.61393e-06
7.61813e-06
7.62207e-06
7.62573e-06
7.6291e-06
7.63215e-06
7.63486e-06
7.63722e-06
7.6392e-06
7.64076e-06
7.64191e-06
7.64254e-06
7.64267e-06
7.64226e-06
7.64126e-06
7.63963e-06
7.6373e-06
7.6342e-06
7.63027e-06
7.62541e-06
7.61954e-06
7.61254e-06
7.6043e-06
7.59467e-06
7.58349e-06
7.57057e-06
7.5557e-06
7.53864e-06
7.51909e-06
7.49674e-06
7.47118e-06
7.44198e-06
7.4086e-06
7.37042e-06
7.3267e-06
7.27656e-06
7.21895e-06
7.15259e-06
7.07594e-06
6.98712e-06
6.88381e-06
6.76313e-06
6.62151e-06
6.45444e-06
6.25622e-06
6.01964e-06
5.73551e-06
5.39219e-06
4.97511e-06
4.46646e-06
3.84545e-06
3.09005e-06
2.18262e-06
1.11842e-06
7.31324e-06
7.47608e-08
7.20831e-06
1.04925e-07
7.09549e-06
1.12822e-07
6.97858e-06
1.16911e-07
6.85745e-06
1.2113e-07
6.733e-06
1.24448e-07
6.60664e-06
1.26366e-07
6.4789e-06
1.27739e-07
6.35034e-06
1.28556e-07
6.22124e-06
1.29103e-07
6.0918e-06
1.29441e-07
5.96229e-06
1.29511e-07
5.8329e-06
1.29384e-07
5.70374e-06
1.29161e-07
5.57488e-06
1.28857e-07
5.44643e-06
1.28458e-07
5.31846e-06
1.27963e-07
5.19109e-06
1.27373e-07
5.0644e-06
1.26688e-07
4.93849e-06
1.25914e-07
4.81344e-06
1.2505e-07
4.68934e-06
1.24101e-07
4.56629e-06
1.23048e-07
4.44437e-06
1.2192e-07
4.32364e-06
1.20733e-07
4.20406e-06
1.19571e-07
4.08562e-06
1.18445e-07
3.96863e-06
1.16994e-07
3.85354e-06
1.15082e-07
3.74062e-06
1.12919e-07
3.63008e-06
1.10549e-07
3.52212e-06
1.07958e-07
3.41697e-06
1.05151e-07
3.31483e-06
1.02135e-07
3.21591e-06
9.89189e-08
3.1204e-06
9.55104e-08
3.02848e-06
9.19221e-08
2.94031e-06
8.81645e-08
2.85607e-06
8.42442e-08
2.77589e-06
8.01805e-08
2.69996e-06
7.59262e-08
2.62842e-06
7.15432e-08
2.56123e-06
6.71944e-08
2.49841e-06
6.28198e-08
2.43998e-06
5.84303e-08
2.38593e-06
5.40462e-08
2.33624e-06
4.9695e-08
2.29084e-06
4.53938e-08
2.24966e-06
4.11768e-08
2.2126e-06
3.70599e-08
2.17954e-06
3.3063e-08
2.15036e-06
2.91838e-08
2.1249e-06
2.54549e-08
2.10303e-06
2.1875e-08
2.0846e-06
1.84298e-08
2.06948e-06
1.51134e-08
2.05756e-06
1.19245e-08
2.04873e-06
8.82685e-09
2.04289e-06
5.84069e-09
2.04011e-06
2.78082e-09
2.04036e-06
-2.53012e-10
2.04358e-06
-3.21698e-09
2.04998e-06
-6.394e-09
2.05943e-06
-9.45334e-09
2.07187e-06
-1.24378e-08
2.08722e-06
-1.535e-08
2.1056e-06
-1.83836e-08
2.12692e-06
-2.13195e-08
2.15146e-06
-2.45403e-08
2.17931e-06
-2.78465e-08
2.21061e-06
-3.12992e-08
2.24555e-06
-3.49418e-08
2.28436e-06
-3.88079e-08
2.3273e-06
-4.29434e-08
2.37465e-06
-4.73508e-08
2.4267e-06
-5.20531e-08
2.48377e-06
-5.70697e-08
2.54619e-06
-6.24151e-08
2.61429e-06
-6.80984e-08
2.68841e-06
-7.41213e-08
2.76889e-06
-8.04783e-08
2.85604e-06
-8.71524e-08
2.95016e-06
-9.41262e-08
3.05155e-06
-1.01384e-07
3.16046e-06
-1.08914e-07
3.27716e-06
-1.167e-07
3.40186e-06
-1.24697e-07
3.53469e-06
-1.32832e-07
3.67572e-06
-1.41033e-07
3.82492e-06
-1.49195e-07
3.98201e-06
-1.57087e-07
4.1465e-06
-1.64489e-07
4.31771e-06
-1.71211e-07
4.49495e-06
-1.7724e-07
4.67725e-06
-1.82305e-07
4.86314e-06
-1.8589e-07
5.05097e-06
-1.87829e-07
5.23901e-06
-1.88034e-07
5.4254e-06
-1.86397e-07
-1.83071e-07
5.60847e-06
7.42843e-06
3.43353e-08
7.45809e-06
7.5263e-08
7.47706e-06
9.38447e-08
7.48775e-06
1.0622e-07
7.49325e-06
1.15635e-07
7.49457e-06
1.23128e-07
7.49206e-06
1.28871e-07
7.4862e-06
1.33608e-07
7.47726e-06
1.3749e-07
7.46544e-06
1.40929e-07
7.4509e-06
1.43981e-07
7.43403e-06
1.4638e-07
7.41491e-06
1.48503e-07
7.39356e-06
1.50507e-07
7.37006e-06
1.52357e-07
7.3445e-06
1.54023e-07
7.31694e-06
1.5552e-07
7.28746e-06
1.56852e-07
7.25613e-06
1.58016e-07
7.22301e-06
1.59036e-07
7.18816e-06
1.59898e-07
7.15163e-06
1.60635e-07
7.1135e-06
1.61173e-07
7.07383e-06
1.61593e-07
7.0327e-06
1.61866e-07
6.9902e-06
1.62068e-07
6.94658e-06
1.62063e-07
6.9019e-06
1.61678e-07
6.85608e-06
1.60899e-07
6.80924e-06
1.5976e-07
6.7615e-06
1.58292e-07
6.71296e-06
1.56494e-07
6.66375e-06
1.54359e-07
6.614e-06
1.51885e-07
6.56385e-06
1.49077e-07
6.5134e-06
1.45958e-07
6.46279e-06
1.42532e-07
6.41216e-06
1.3879e-07
6.36165e-06
1.34754e-07
6.31139e-06
1.30443e-07
6.2614e-06
1.25917e-07
6.21179e-06
1.21156e-07
6.16281e-06
1.16168e-07
6.11465e-06
1.10982e-07
6.06743e-06
1.05657e-07
6.02126e-06
1.00216e-07
5.97627e-06
9.4681e-08
5.93258e-06
8.90824e-08
5.89029e-06
8.34644e-08
5.8495e-06
7.78576e-08
5.81027e-06
7.22857e-08
5.77269e-06
6.67618e-08
5.73684e-06
6.13082e-08
5.7028e-06
5.59207e-08
5.67062e-06
5.06031e-08
5.6404e-06
4.53347e-08
5.61219e-06
4.01311e-08
5.58606e-06
3.49572e-08
5.5621e-06
2.98032e-08
5.54033e-06
2.4553e-08
5.5208e-06
1.92769e-08
5.50358e-06
1.40044e-08
5.48863e-06
8.54955e-09
5.47614e-06
3.04399e-09
5.46638e-06
-2.68563e-09
5.45968e-06
-8.64333e-09
5.45614e-06
-1.48427e-08
5.45587e-06
-2.10568e-08
5.45899e-06
-2.76592e-08
5.46576e-06
-3.46109e-08
5.47641e-06
-4.19472e-08
5.49117e-06
-4.97073e-08
5.5103e-06
-5.79344e-08
5.53403e-06
-6.66737e-08
5.56264e-06
-7.59595e-08
5.59641e-06
-8.58271e-08
5.63565e-06
-9.63075e-08
5.68066e-06
-1.07425e-07
5.73175e-06
-1.19194e-07
5.78925e-06
-1.31614e-07
5.85345e-06
-1.44678e-07
5.92464e-06
-1.58348e-07
6.00312e-06
-1.72608e-07
6.08922e-06
-1.87481e-07
6.18326e-06
-2.02953e-07
6.2855e-06
-2.18944e-07
6.39615e-06
-2.35345e-07
6.51535e-06
-2.52033e-07
6.64328e-06
-2.68959e-07
6.77994e-06
-2.85851e-07
6.92505e-06
-3.02198e-07
7.07808e-06
-3.17518e-07
7.2382e-06
-3.31335e-07
7.40447e-06
-3.43515e-07
7.57615e-06
-3.53976e-07
7.75254e-06
-3.62281e-07
7.93268e-06
-3.67974e-07
8.11545e-06
-3.70799e-07
8.29969e-06
-3.70646e-07
-3.67151e-07
8.48377e-06
7.40207e-06
2.02677e-08
7.42299e-06
5.43416e-08
7.44207e-06
7.47608e-08
7.46004e-06
8.82533e-08
7.47654e-06
9.91351e-08
7.49151e-06
1.08158e-07
7.5048e-06
1.15582e-07
7.5168e-06
1.21609e-07
7.52762e-06
1.26672e-07
7.53766e-06
1.30883e-07
7.54703e-06
1.34615e-07
7.55517e-06
1.38237e-07
7.56211e-06
1.41562e-07
7.5681e-06
1.44522e-07
7.57327e-06
1.47189e-07
7.57768e-06
1.49608e-07
7.58136e-06
1.5184e-07
7.5843e-06
1.5391e-07
7.58652e-06
1.55794e-07
7.58805e-06
1.57511e-07
7.58888e-06
1.59066e-07
7.58902e-06
1.60494e-07
7.58846e-06
1.61736e-07
7.58718e-06
1.62874e-07
7.58513e-06
1.63913e-07
7.58241e-06
1.6479e-07
7.57913e-06
1.65346e-07
7.57523e-06
1.65573e-07
7.57063e-06
1.65501e-07
7.56528e-06
1.65105e-07
7.5592e-06
1.64376e-07
7.55238e-06
1.63315e-07
7.54483e-06
1.6191e-07
7.53656e-06
1.60152e-07
7.52763e-06
1.58008e-07
7.51802e-06
1.5557e-07
7.50771e-06
1.52842e-07
7.49675e-06
1.49744e-07
7.48519e-06
1.46319e-07
7.47305e-06
1.42585e-07
7.46041e-06
1.38557e-07
7.4473e-06
1.34263e-07
7.43376e-06
1.29709e-07
7.41982e-06
1.24924e-07
7.40554e-06
1.19938e-07
7.39099e-06
1.14762e-07
7.37626e-06
1.09409e-07
7.36143e-06
1.03919e-07
7.34655e-06
9.83402e-08
7.33171e-06
9.26996e-08
7.31698e-06
8.70175e-08
7.30243e-06
8.13089e-08
7.28815e-06
7.55862e-08
7.27422e-06
6.98504e-08
7.26073e-06
6.4094e-08
7.24776e-06
5.83053e-08
7.23541e-06
5.24846e-08
7.22373e-06
4.66308e-08
7.21284e-06
4.06946e-08
7.20275e-06
3.46467e-08
7.19361e-06
2.84127e-08
7.18555e-06
2.20641e-08
7.17861e-06
1.54885e-08
7.17294e-06
8.71891e-09
7.16852e-06
1.73466e-09
7.16554e-06
-5.66434e-09
7.16405e-06
-1.33541e-08
7.1644e-06
-2.14035e-08
7.16666e-06
-2.99181e-08
7.171e-06
-3.89503e-08
7.1776e-06
-4.85478e-08
7.18665e-06
-5.87632e-08
7.19837e-06
-6.96534e-08
7.21297e-06
-8.1277e-08
7.2307e-06
-9.3688e-08
7.25181e-06
-1.06939e-07
7.27658e-06
-1.21073e-07
7.30529e-06
-1.36138e-07
7.33825e-06
-1.52149e-07
7.37576e-06
-1.69124e-07
7.41812e-06
-1.87041e-07
7.46559e-06
-2.05818e-07
7.51849e-06
-2.25504e-07
7.57717e-06
-2.46165e-07
7.64193e-06
-2.67714e-07
7.71301e-06
-2.90018e-07
7.79064e-06
-3.12975e-07
7.87507e-06
-3.36468e-07
7.96662e-06
-3.60509e-07
8.06511e-06
-3.84341e-07
8.17036e-06
-4.0745e-07
8.2821e-06
-4.29259e-07
8.40009e-06
-4.49326e-07
8.52472e-06
-4.68136e-07
8.65598e-06
-4.85241e-07
8.79343e-06
-4.99728e-07
8.93633e-06
-5.10873e-07
9.0837e-06
-5.18172e-07
9.23429e-06
-5.2123e-07
-5.197e-07
9.38683e-06
7.3945e-06
1.377e-08
7.40873e-06
4.01075e-08
7.42381e-06
5.96788e-08
7.43813e-06
7.39381e-08
7.45193e-06
8.5339e-08
7.46515e-06
9.49289e-08
7.4778e-06
1.02939e-07
7.48984e-06
1.09569e-07
7.50133e-06
1.15181e-07
7.51216e-06
1.20055e-07
7.52245e-06
1.24317e-07
7.53253e-06
1.28161e-07
7.54238e-06
1.31713e-07
7.55195e-06
1.34952e-07
7.56125e-06
1.37892e-07
7.57028e-06
1.40572e-07
7.57908e-06
1.43045e-07
7.58767e-06
1.45315e-07
7.5961e-06
1.47368e-07
7.60436e-06
1.49247e-07
7.61247e-06
1.50958e-07
7.62048e-06
1.52488e-07
7.62838e-06
1.53834e-07
7.63627e-06
1.54985e-07
7.64429e-06
1.55894e-07
7.65238e-06
1.56696e-07
7.66029e-06
1.57434e-07
7.66794e-06
1.57925e-07
7.67533e-06
1.58109e-07
7.68246e-06
1.5798e-07
7.68931e-06
1.57529e-07
7.69585e-06
1.56766e-07
7.70208e-06
1.55683e-07
7.70795e-06
1.5428e-07
7.71344e-06
1.52524e-07
7.7185e-06
1.50509e-07
7.72316e-06
1.48183e-07
7.72741e-06
1.45487e-07
7.73127e-06
1.42458e-07
7.73471e-06
1.39153e-07
7.73773e-06
1.35533e-07
7.74031e-06
1.31677e-07
7.74249e-06
1.27537e-07
7.74419e-06
1.23226e-07
7.74541e-06
1.18714e-07
7.74624e-06
1.13931e-07
7.74673e-06
1.08917e-07
7.74689e-06
1.03764e-07
7.74673e-06
9.85017e-08
7.74628e-06
9.31482e-08
7.74558e-06
8.77113e-08
7.74468e-06
8.22082e-08
7.74363e-06
7.66421e-08
7.74247e-06
7.10071e-08
7.74128e-06
6.52849e-08
7.74012e-06
5.94657e-08
7.73905e-06
5.35553e-08
7.73813e-06
4.75451e-08
7.73743e-06
4.13965e-08
7.73701e-06
3.50744e-08
7.73688e-06
2.85424e-08
7.73715e-06
2.17921e-08
7.73786e-06
1.47764e-08
7.73911e-06
7.46599e-09
7.74102e-06
-1.74929e-10
7.74359e-06
-8.22879e-09
7.74693e-06
-1.66988e-08
7.75118e-06
-2.56512e-08
7.75642e-06
-3.51557e-08
7.76276e-06
-4.52897e-08
7.77033e-06
-5.61195e-08
7.77927e-06
-6.77098e-08
7.78975e-06
-8.01291e-08
7.80192e-06
-9.34493e-08
7.81597e-06
-1.0774e-07
7.83211e-06
-1.23075e-07
7.85054e-06
-1.39507e-07
7.87154e-06
-1.57137e-07
7.89534e-06
-1.75949e-07
7.92231e-06
-1.96088e-07
7.95261e-06
-2.17349e-07
7.98648e-06
-2.39689e-07
8.02453e-06
-2.63546e-07
8.06721e-06
-2.88848e-07
8.11495e-06
-3.1545e-07
8.16815e-06
-3.43224e-07
8.22718e-06
-3.71999e-07
8.29224e-06
-4.01526e-07
8.36297e-06
-4.31239e-07
8.43984e-06
-4.6122e-07
8.52369e-06
-4.91293e-07
8.61571e-06
-5.21277e-07
8.71718e-06
-5.50803e-07
8.82744e-06
-5.78397e-07
8.94543e-06
-6.03228e-07
9.07047e-06
-6.24762e-07
9.20191e-06
-6.4232e-07
9.33892e-06
-6.55178e-07
9.48037e-06
-6.62685e-07
-6.64305e-07
9.62498e-06
7.39141e-06
1.03573e-08
7.40023e-06
3.12917e-08
7.41102e-06
4.88912e-08
7.42213e-06
6.28218e-08
7.43335e-06
7.41241e-08
7.44458e-06
8.36972e-08
7.45565e-06
9.18701e-08
7.4664e-06
9.88164e-08
7.47682e-06
1.04757e-07
7.48695e-06
1.09925e-07
7.49681e-06
1.14463e-07
7.50645e-06
1.18514e-07
7.51598e-06
1.22191e-07
7.5254e-06
1.25533e-07
7.53473e-06
1.28555e-07
7.54401e-06
1.31299e-07
7.55325e-06
1.33798e-07
7.56249e-06
1.36077e-07
7.57171e-06
1.38143e-07
7.58094e-06
1.40019e-07
7.5902e-06
1.41706e-07
7.59946e-06
1.43227e-07
7.60872e-06
1.44572e-07
7.61797e-06
1.45736e-07
7.62715e-06
1.46709e-07
7.63635e-06
1.47498e-07
7.64565e-06
1.48132e-07
7.65501e-06
1.4857e-07
7.66436e-06
1.48758e-07
7.67367e-06
1.48666e-07
7.68291e-06
1.48291e-07
7.69205e-06
1.4763e-07
7.70106e-06
1.46667e-07
7.70994e-06
1.45409e-07
7.71862e-06
1.43843e-07
7.72712e-06
1.42005e-07
7.73544e-06
1.39863e-07
7.74351e-06
1.37416e-07
7.75132e-06
1.34652e-07
7.75885e-06
1.31621e-07
7.7661e-06
1.28285e-07
7.77305e-06
1.24723e-07
7.77972e-06
1.20874e-07
7.78615e-06
1.16793e-07
7.79241e-06
1.12448e-07
7.79836e-06
1.07988e-07
7.80386e-06
1.03413e-07
7.80894e-06
9.86858e-08
7.81365e-06
9.37874e-08
7.81803e-06
8.87673e-08
7.82213e-06
8.36113e-08
7.82596e-06
7.83772e-08
7.82956e-06
7.30512e-08
7.83296e-06
6.75984e-08
7.83628e-06
6.19715e-08
7.83954e-06
5.62012e-08
7.84276e-06
5.03338e-08
7.84598e-06
4.43302e-08
7.84923e-06
3.81456e-08
7.85256e-06
3.17477e-08
7.856e-06
2.50989e-08
7.85962e-06
1.81763e-08
7.86346e-06
1.09358e-08
7.86758e-06
3.34203e-09
7.87205e-06
-4.641e-09
7.87688e-06
-1.30635e-08
7.88216e-06
-2.19733e-08
7.88796e-06
-3.14523e-08
7.89438e-06
-4.15754e-08
7.90151e-06
-5.24189e-08
7.90945e-06
-6.40589e-08
7.91831e-06
-7.6573e-08
7.92822e-06
-9.00429e-08
7.93933e-06
-1.04553e-07
7.95178e-06
-1.2019e-07
7.96573e-06
-1.37034e-07
7.98141e-06
-1.55185e-07
7.99896e-06
-1.74689e-07
8.01872e-06
-1.95701e-07
8.04083e-06
-2.18202e-07
8.06599e-06
-2.42509e-07
8.09508e-06
-2.68777e-07
8.12817e-06
-2.96642e-07
8.16549e-06
-3.26166e-07
8.20744e-06
-3.57402e-07
8.25452e-06
-3.90298e-07
8.30723e-06
-4.24716e-07
8.36617e-06
-4.6046e-07
8.43216e-06
-4.97231e-07
8.50569e-06
-5.34745e-07
8.58712e-06
-5.72723e-07
8.67655e-06
-6.10714e-07
8.77386e-06
-6.48105e-07
8.87941e-06
-6.83955e-07
8.99336e-06
-7.17171e-07
9.11536e-06
-7.46768e-07
9.24482e-06
-7.71777e-07
9.38084e-06
-7.912e-07
9.52225e-06
-8.04095e-07
-8.09675e-07
9.66762e-06
7.38995e-06
8.40461e-09
7.39576e-06
2.54867e-08
7.40382e-06
4.0824e-08
7.41288e-06
5.37678e-08
7.42238e-06
6.46261e-08
7.43212e-06
7.3958e-08
7.44192e-06
8.20707e-08
7.45163e-06
8.91033e-08
7.46119e-06
9.51981e-08
7.47058e-06
1.00528e-07
7.47981e-06
1.05235e-07
7.48889e-06
1.09433e-07
7.49788e-06
1.13209e-07
7.50679e-06
1.16619e-07
7.51565e-06
1.19698e-07
7.52446e-06
1.22483e-07
7.53326e-06
1.25006e-07
7.54204e-06
1.27293e-07
7.55082e-06
1.29359e-07
7.55962e-06
1.31219e-07
7.56845e-06
1.32883e-07
7.57731e-06
1.34364e-07
7.58622e-06
1.3566e-07
7.59519e-06
1.36771e-07
7.6042e-06
1.37693e-07
7.61327e-06
1.38426e-07
7.62243e-06
1.38979e-07
7.63166e-06
1.39338e-07
7.64095e-06
1.39469e-07
7.65027e-06
1.39346e-07
7.6596e-06
1.38962e-07
7.66892e-06
1.38312e-07
7.67819e-06
1.37391e-07
7.6874e-06
1.36196e-07
7.69652e-06
1.34725e-07
7.70554e-06
1.32987e-07
7.71443e-06
1.30973e-07
7.72316e-06
1.28686e-07
7.7317e-06
1.26117e-07
7.74002e-06
1.23294e-07
7.74809e-06
1.20222e-07
7.7559e-06
1.16911e-07
7.76342e-06
1.1335e-07
7.77064e-06
1.09575e-07
7.77751e-06
1.05576e-07
7.7841e-06
1.01405e-07
7.79042e-06
9.70894e-08
7.79647e-06
9.2632e-08
7.80225e-06
8.80106e-08
7.80776e-06
8.32572e-08
7.81302e-06
7.83481e-08
7.81809e-06
7.33098e-08
7.82303e-06
6.81138e-08
7.82783e-06
6.28003e-08
7.83239e-06
5.74119e-08
7.8367e-06
5.18914e-08
7.84086e-06
4.61643e-08
7.84497e-06
4.02281e-08
7.84904e-06
3.40728e-08
7.85312e-06
2.76689e-08
7.85723e-06
2.09871e-08
7.86142e-06
1.39832e-08
7.86573e-06
6.62758e-09
7.8702e-06
-1.12713e-09
7.87489e-06
-9.33114e-09
7.87987e-06
-1.80421e-08
7.88523e-06
-2.73362e-08
7.89104e-06
-3.72642e-08
7.89737e-06
-4.78995e-08
7.90428e-06
-5.93314e-08
7.91187e-06
-7.16518e-08
7.92025e-06
-8.49534e-08
7.92954e-06
-9.93327e-08
7.93988e-06
-1.14891e-07
7.95143e-06
-1.31737e-07
7.96437e-06
-1.49978e-07
7.97892e-06
-1.69732e-07
7.99535e-06
-1.91113e-07
8.0139e-06
-2.14252e-07
8.03497e-06
-2.39275e-07
8.05877e-06
-2.66314e-07
8.08552e-06
-2.95525e-07
8.11581e-06
-3.26927e-07
8.15015e-06
-3.60509e-07
8.18906e-06
-3.96312e-07
8.2331e-06
-4.34333e-07
8.28287e-06
-4.74491e-07
8.33904e-06
-5.16627e-07
8.4023e-06
-5.60492e-07
8.47331e-06
-6.0576e-07
8.55263e-06
-6.52041e-07
8.6407e-06
-6.98786e-07
8.73783e-06
-7.45236e-07
8.84425e-06
-7.90377e-07
8.96004e-06
-8.32959e-07
9.08496e-06
-8.71686e-07
9.21842e-06
-9.05238e-07
9.35948e-06
-9.32264e-07
9.50685e-06
-9.51461e-07
-9.61704e-07
9.65888e-06
7.38933e-06
7.07042e-09
7.39346e-06
2.13608e-08
7.3996e-06
3.46799e-08
7.40691e-06
4.64657e-08
7.41484e-06
5.66906e-08
7.42317e-06
6.56258e-08
7.43175e-06
7.34959e-08
7.44043e-06
8.0421e-08
7.44913e-06
8.65021e-08
7.45779e-06
9.18634e-08
7.46641e-06
9.66208e-08
7.47497e-06
1.00869e-07
7.4835e-06
1.04681e-07
7.492e-06
1.08115e-07
7.50049e-06
1.11213e-07
7.50896e-06
1.14009e-07
7.51743e-06
1.16534e-07
7.52591e-06
1.18812e-07
7.53441e-06
1.20862e-07
7.54293e-06
1.22699e-07
7.55148e-06
1.24333e-07
7.56007e-06
1.25775e-07
7.5687e-06
1.27028e-07
7.57738e-06
1.28095e-07
7.5861e-06
1.28973e-07
7.59486e-06
1.29664e-07
7.60367e-06
1.30166e-07
7.61254e-06
1.30471e-07
7.62145e-06
1.30561e-07
7.63037e-06
1.30417e-07
7.6393e-06
1.30033e-07
7.64821e-06
1.29402e-07
7.65708e-06
1.28521e-07
7.66589e-06
1.27387e-07
7.67462e-06
1.25999e-07
7.68325e-06
1.24358e-07
7.69176e-06
1.22463e-07
7.70013e-06
1.20316e-07
7.70833e-06
1.17917e-07
7.71634e-06
1.15278e-07
7.72416e-06
1.12405e-07
7.73176e-06
1.09307e-07
7.73913e-06
1.05985e-07
7.74625e-06
1.02457e-07
7.7531e-06
9.87269e-08
7.75968e-06
9.48202e-08
7.76601e-06
9.07585e-08
7.7721e-06
8.65465e-08
7.77793e-06
8.21766e-08
7.78353e-06
7.76578e-08
7.78889e-06
7.29853e-08
7.79404e-06
6.81693e-08
7.79895e-06
6.31982e-08
7.80367e-06
5.80789e-08
7.80826e-06
5.28218e-08
7.81275e-06
4.74058e-08
7.81712e-06
4.17948e-08
7.82139e-06
3.59569e-08
7.82559e-06
2.98707e-08
7.82975e-06
2.35082e-08
7.8339e-06
1.68351e-08
7.83808e-06
9.81094e-09
7.84231e-06
2.39277e-09
7.84665e-06
-5.46731e-09
7.85115e-06
-1.38258e-08
7.85585e-06
-2.27433e-08
7.8608e-06
-3.22896e-08
7.86608e-06
-4.25399e-08
7.87175e-06
-5.35742e-08
7.8779e-06
-6.54834e-08
7.88462e-06
-7.8368e-08
7.892e-06
-9.23342e-08
7.90016e-06
-1.07494e-07
7.90924e-06
-1.23968e-07
7.91939e-06
-1.41884e-07
7.93078e-06
-1.61377e-07
7.94364e-06
-1.82592e-07
7.95821e-06
-2.05678e-07
7.97475e-06
-2.30795e-07
7.99358e-06
-2.58106e-07
8.01504e-06
-2.87776e-07
8.0395e-06
-3.19979e-07
8.06741e-06
-3.54835e-07
8.09931e-06
-3.92409e-07
8.13577e-06
-4.3278e-07
8.17744e-06
-4.75998e-07
8.225e-06
-5.22047e-07
8.27919e-06
-5.70822e-07
8.34082e-06
-6.22118e-07
8.41068e-06
-6.75619e-07
8.48951e-06
-7.3087e-07
8.57795e-06
-7.87225e-07
8.6765e-06
-8.43791e-07
8.78553e-06
-8.99403e-07
8.9052e-06
-9.52635e-07
9.03539e-06
-1.00188e-06
9.17554e-06
-1.04538e-06
9.32461e-06
-1.08133e-06
9.4811e-06
-1.10795e-06
-1.12366e-06
9.64305e-06
7.389e-06
6.06566e-09
7.39208e-06
1.82807e-08
7.39686e-06
2.99041e-08
7.40281e-06
4.05188e-08
7.40951e-06
4.9984e-08
7.41674e-06
5.83979e-08
7.42434e-06
6.59017e-08
7.43217e-06
7.25896e-08
7.44013e-06
7.85347e-08
7.44818e-06
8.38225e-08
7.45626e-06
8.85409e-08
7.46436e-06
9.27672e-08
7.47247e-06
9.65647e-08
7.4806e-06
9.9985e-08
7.48875e-06
1.03068e-07