/*--------------------------------*- C++ -*----------------------------------*\
| =========                 |                                                 |
| \\      /  F ield         | OpenFOAM: The Open Source CFD Toolbox           |
|  \\    /   O peration     | Version:  2206                                  |
|   \\  /    A nd           | Website:  www.openfoam.com                      |
|    \\/     M anipulation  |                                                 |
\*---------------------------------------------------------------------------*/
FoamFile
{
    version     2.0;
    format      ascii;
    arch        "LSB;label=32;scalar=64";
    class       volVectorField;
    location    "18.3";
    object      ddtCorrDdt0(U);
}
// * * * * * * * * * * * * * * * * * * * * * * * * * * * * * * * * * * * * * //

dimensions      [0 1 -2 0 0 0 0];

internalField   nonuniform List<vector> 
1827
(
(-17.5952 -2.78747 0)
(-18.341 1.57769 0)
(-18.621 5.8901 0)
(-18.3752 9.93748 0)
(-17.6527 13.5476 0)
(-16.4788 16.6317 0)
(-14.7866 19.0435 0)
(-12.4112 20.4483 0)
(-9.55723 20.9969 0)
(-6.3729 20.6988 0)
(-2.99681 19.6321 0)
(0.411804 17.9085 0)
(3.72822 15.6591 0)
(6.8999 13.0135 0)
(9.87135 10.0352 0)
(12.3644 6.80667 0)
(14.2075 3.6846 0)
(15.4721 0.842789 0)
(16.1063 -1.83268 0)
(16.1234 -4.38649 0)
(15.5501 -6.78486 0)
(14.4504 -8.98666 0)
(12.9171 -10.9792 0)
(11.0227 -12.7522 0)
(8.81375 -14.2657 0)
(6.30611 -15.3711 0)
(3.59413 -15.9521 0)
(0.844754 -15.9191 0)
(-1.80176 -15.2469 0)
(-4.23795 -13.9611 0)
(-6.37633 -12.1368 0)
(-8.17684 -9.88516 0)
(-9.6691 -7.32936 0)
(-10.8845 -4.58903 0)
(-11.7364 -1.79575 0)
(-12.2586 0.956854 0)
(-12.4491 3.66032 0)
(-12.2356 6.20736 0)
(-11.6226 8.47004 0)
(-10.6341 10.3803 0)
(-9.28698 11.8856 0)
(-7.57082 12.8563 0)
(-5.58475 13.3092 0)
(-3.44368 13.2339 0)
(-1.23863 12.6679 0)
(0.972353 11.6755 0)
(3.161 10.3184 0)
(5.27112 8.64544 0)
(7.19485 6.70152 0)
(8.78169 4.57961 0)
(10.0195 2.48079 0)
(10.8889 0.482292 0)
(11.3447 -1.41447 0)
(11.3602 -3.17783 0)
(10.8929 -4.7401 0)
(10.053 -6.11035 0)
(8.89326 -7.3152 0)
(7.47142 -8.35794 0)
(5.84404 -9.1894 0)
(4.07324 -9.73047 0)
(2.21667 -9.91042 0)
(0.371312 -9.71418 0)
(-1.39308 -9.15156 0)
(-3.04572 -8.24831 0)
(-4.53834 -7.04494 0)
(-5.8309 -5.59633 0)
(-6.89475 -3.97458 0)
(-7.70165 -2.27697 0)
(-8.30792 -0.588837 0)
(-8.71958 1.09476 0)
(-8.91906 2.75368 0)
(-8.86189 4.29347 0)
(-8.48407 5.59801 0)
(-7.74385 6.58846 0)
(-6.72928 7.30579 0)
(-5.48536 7.75274 0)
(-4.09158 7.91223 0)
(-2.62723 7.77535 0)
(-1.14891 7.3709 0)
(0.321384 6.73958 0)
(1.79252 5.89956 0)
(3.21571 4.83543 0)
(4.46976 3.58367 0)
(5.55162 2.30729 0)
(6.42484 1.05101 0)
(7.06508 -0.185915 0)
(7.45959 -1.38446 0)
(7.59124 -2.50178 0)
(7.42025 -3.48487 0)
(6.94809 -4.29621 0)
(6.245 -4.94831 0)
(5.33999 -5.44632 0)
(4.28463 -5.7888 0)
(3.13853 -5.94911 0)
(1.96507 -5.90342 0)
(0.82033 -5.64767 0)
(-0.269503 -5.19973 0)
(-1.30095 -4.58374 0)
(-2.27287 -3.80978 0)
(-3.13871 -2.87797 0)
(-3.85559 -1.8646 0)
(-4.45407 -0.863547 0)
(-4.92406 0.126784 0)
(-5.26596 1.10951 0)
(-5.47098 2.06916 0)
(-5.51151 2.95819 0)
(-5.36187 3.71566 0)
(-4.9633 4.26269 0)
(-4.38434 4.62762 0)
(-3.65192 4.80593 0)
(-2.81831 4.78877 0)
(-1.92929 4.58463 0)
(-1.03985 4.22188 0)
(-0.182707 3.74133 0)
(0.665404 3.17439 0)
(1.52197 2.49 0)
(2.28286 1.66537 0)
(2.95133 0.84946 0)
(3.52129 0.0673003 0)
(3.9326 -0.753171 0)
(4.26838 -1.41525 0)
(4.24021 -2.36909 0)
(-20.4148 -1.51304 0)
(-21.5454 2.32481 0)
(-22.0385 6.09748 0)
(-21.8281 9.61799 0)
(-20.8696 12.665 0)
(-19.0057 14.9695 0)
(-16.3816 16.5274 0)
(-13.1339 17.3564 0)
(-9.43278 17.4461 0)
(-5.48157 16.8471 0)
(-1.4482 15.6827 0)
(2.53947 14.0526 0)
(6.38396 12.0037 0)
(9.83344 9.55203 0)
(12.6321 6.96051 0)
(14.7717 4.52772 0)
(16.187 2.24831 0)
(16.924 0.0892405 0)
(17.0791 -1.95798 0)
(16.7091 -3.91079 0)
(15.8836 -5.77728 0)
(14.661 -7.5377 0)
(13.0745 -9.1543 0)
(11.15 -10.5815 0)
(8.904 -11.7646 0)
(6.37219 -12.6342 0)
(3.63191 -13.0957 0)
(0.80641 -13.0699 0)
(-2.00267 -12.5249 0)
(-4.70888 -11.4695 0)
(-7.22795 -9.93831 0)
(-9.47683 -7.98696 0)
(-11.345 -5.71015 0)
(-12.8382 -3.31481 0)
(-13.9344 -0.905268 0)
(-14.5867 1.48127 0)
(-14.7431 3.76966 0)
(-14.35 5.8519 0)
(-13.3664 7.60785 0)
(-11.9153 9.02267 0)
(-10.0348 10.0591 0)
(-7.80504 10.6956 0)
(-5.32661 10.916 0)
(-2.67451 10.7199 0)
(0.0973429 10.1295 0)
(2.87167 9.13684 0)
(5.44793 7.76396 0)
(7.73927 6.22875 0)
(9.65031 4.62562 0)
(11.1051 3.01624 0)
(12.0679 1.44334 0)
(12.5056 -0.0562987 0)
(12.4548 -1.44705 0)
(12.0099 -2.71448 0)
(11.2091 -3.86429 0)
(10.1075 -4.90529 0)
(8.75904 -5.84468 0)
(7.2125 -6.67795 0)
(5.50975 -7.35853 0)
(3.69153 -7.81329 0)
(1.77591 -7.9965 0)
(-0.188999 -7.83118 0)
(-2.11405 -7.31755 0)
(-3.93925 -6.52727 0)
(-5.60879 -5.49343 0)
(-7.07743 -4.26512 0)
(-8.31615 -2.898 0)
(-9.30697 -1.43786 0)
(-10.0329 0.0646873 0)
(-10.4625 1.53602 0)
(-10.5022 2.88354 0)
(-10.0907 4.01471 0)
(-9.29865 4.90185 0)
(-8.16197 5.55517 0)
(-6.75695 5.99879 0)
(-5.17692 6.23368 0)
(-3.5075 6.2602 0)
(-1.78119 6.0915 0)
(0.0252611 5.71287 0)
(1.84135 5.03117 0)
(3.53689 4.14147 0)
(5.06125 3.19524 0)
(6.33848 2.22317 0)
(7.3244 1.23518 0)
(8.01228 0.253458 0)
(8.40094 -0.683035 0)
(8.44506 -1.537 0)
(8.18054 -2.29353 0)
(7.66578 -2.95419 0)
(6.92801 -3.51705 0)
(6.00297 -3.97407 0)
(4.93027 -4.31812 0)
(3.75801 -4.55547 0)
(2.53811 -4.67694 0)
(1.31559 -4.65095 0)
(0.0872136 -4.46051 0)
(-1.14792 -4.07609 0)
(-2.31482 -3.46842 0)
(-3.38712 -2.74953 0)
(-4.33416 -1.96538 0)
(-5.12628 -1.13283 0)
(-5.75149 -0.263615 0)
(-6.20488 0.612253 0)
(-6.46559 1.45271 0)
(-6.49318 2.21334 0)
(-6.22072 2.83267 0)
(-5.72034 3.30828 0)
(-5.01024 3.63654 0)
(-4.13511 3.81991 0)
(-3.15281 3.85728 0)
(-2.12558 3.7564 0)
(-1.08589 3.54231 0)
(-0.0225013 3.23215 0)
(1.05832 2.76884 0)
(2.04847 2.12936 0)
(2.93538 1.46694 0)
(3.67747 0.820866 0)
(4.23882 0.179163 0)
(4.64308 -0.447015 0)
(4.79262 -1.05873 0)
(4.8992 -1.52145 0)
(4.46882 -2.19087 0)
(-21.6885 0.129772 0)
(-22.5446 3.28446 0)
(-22.5488 6.22435 0)
(-21.5083 8.71724 0)
(-19.5343 10.6759 0)
(-16.7998 12.1035 0)
(-13.4595 12.992 0)
(-9.70676 13.3271 0)
(-5.74377 13.1441 0)
(-1.74972 12.5086 0)
(2.12884 11.4527 0)
(5.70144 9.99813 0)
(8.741 8.27142 0)
(11.2141 6.56349 0)
(13.052 4.87974 0)
(14.2696 3.19898 0)
(14.9518 1.54329 0)
(15.1795 -0.0677649 0)
(15.0375 -1.64237 0)
(14.5617 -3.19485 0)
(13.7535 -4.70413 0)
(12.6108 -6.12074 0)
(11.1359 -7.39813 0)
(9.33618 -8.49675 0)
(7.2251 -9.37367 0)
(4.83515 -9.97931 0)
(2.22441 -10.2619 0)
(-0.524511 -10.1639 0)
(-3.3112 -9.6275 0)
(-6.00083 -8.63565 0)
(-8.48994 -7.28629 0)
(-10.6705 -5.65136 0)
(-12.4459 -3.8221 0)
(-13.7415 -1.90573 0)
(-14.5028 -0.00892497 0)
(-14.6316 1.77881 0)
(-14.1504 3.3952 0)
(-13.1237 4.81284 0)
(-11.6158 6.01111 0)
(-9.71282 6.9619 0)
(-7.49323 7.63722 0)
(-5.00628 8.02069 0)
(-2.30065 8.07552 0)
(0.480555 7.70479 0)
(3.13693 7.04132 0)
(5.54652 6.23339 0)
(7.59553 5.3145 0)
(9.21361 4.30443 0)
(10.3905 3.2398 0)
(11.1113 2.15414 0)
(11.382 1.08215 0)
(11.3107 0.0508659 0)
(10.9237 -0.948323 0)
(10.2569 -1.90455 0)
(9.3448 -2.79305 0)
(8.22124 -3.60789 0)
(6.91829 -4.35876 0)
(5.46133 -5.03887 0)
(3.8617 -5.59153 0)
(2.10961 -5.93368 0)
(0.254859 -5.97137 0)
(-1.62911 -5.74229 0)
(-3.49325 -5.29843 0)
(-5.23551 -4.64358 0)
(-6.79 -3.79525 0)
(-8.10558 -2.78933 0)
(-9.13534 -1.67821 0)
(-9.83814 -0.535414 0)
(-10.1294 0.562256 0)
(-9.985 1.54856 0)
(-9.46659 2.39131 0)
(-8.59265 3.07783 0)
(-7.41841 3.60114 0)
(-6.02556 3.97644 0)
(-4.50965 4.24483 0)
(-2.93675 4.41267 0)
(-1.28711 4.43927 0)
(0.437033 4.18187 0)
(2.09977 3.70077 0)
(3.63103 3.15875 0)
(4.94941 2.57467 0)
(6.00904 1.94717 0)
(6.799 1.2849 0)
(7.32045 0.614042 0)
(7.56151 -0.0338443 0)
(7.51433 -0.635175 0)
(7.25246 -1.19527 0)
(6.78767 -1.72047 0)
(6.14361 -2.19395 0)
(5.34622 -2.59329 0)
(4.42204 -2.91058 0)
(3.40191 -3.15301 0)
(2.31812 -3.33529 0)
(1.19128 -3.44129 0)
(0.0162456 -3.40602 0)
(-1.17375 -3.13569 0)
(-2.32564 -2.74217 0)
(-3.38423 -2.26366 0)
(-4.29632 -1.70656 0)
(-5.0343 -1.08511 0)
(-5.57958 -0.42572 0)
(-5.91603 0.231884 0)
(-6.00862 0.844085 0)
(-5.83709 1.37727 0)
(-5.45595 1.82536 0)
(-4.88161 2.18732 0)
(-4.14891 2.45859 0)
(-3.30065 2.6322 0)
(-2.38284 2.71985 0)
(-1.43677 2.7357 0)
(-0.473004 2.66199 0)
(0.50011 2.43834 0)
(1.4137 2.0606 0)
(2.24249 1.65026 0)
(2.94195 1.23018 0)
(3.48028 0.794488 0)
(3.8553 0.344279 0)
(4.077 -0.111254 0)
(4.15213 -0.536749 0)
(3.99702 -0.934756 0)
(3.91566 -1.25785 0)
(3.28991 -1.75784 0)
(-18.568 1.00145 0)
(-18.3703 3.13581 0)
(-17.2963 4.98641 0)
(-15.5436 6.54195 0)
(-13.2256 7.78685 0)
(-10.4994 8.69081 0)
(-7.52689 9.24913 0)
(-4.46511 9.46159 0)
(-1.4719 9.32797 0)
(1.30835 8.87778 0)
(3.77933 8.17555 0)
(5.87057 7.29547 0)
(7.55886 6.28635 0)
(8.84848 5.13852 0)
(9.79996 3.89993 0)
(10.4518 2.61434 0)
(10.838 1.3086 0)
(10.9764 -0.00552226 0)
(10.8655 -1.31117 0)
(10.4941 -2.57958 0)
(9.83727 -3.77226 0)
(8.89397 -4.8583 0)
(7.66547 -5.80762 0)
(6.1651 -6.59055 0)
(4.41538 -7.17567 0)
(2.4525 -7.53037 0)
(0.321123 -7.62697 0)
(-1.91709 -7.4271 0)
(-4.1416 -6.91405 0)
(-6.23792 -6.139 0)
(-8.0841 -5.12546 0)
(-9.57439 -3.92832 0)
(-10.626 -2.62084 0)
(-11.1333 -1.28633 0)
(-11.1478 -0.0240678 0)
(-10.6905 1.14518 0)
(-9.81715 2.23211 0)
(-8.59848 3.22749 0)
(-7.10118 4.09564 0)
(-5.36476 4.79746 0)
(-3.41907 5.27165 0)
(-1.36221 5.40995 0)
(0.65927 5.36326 0)
(2.54475 5.19452 0)
(4.21195 4.92111 0)
(5.59783 4.53224 0)
(6.68349 4.02032 0)
(7.47932 3.40735 0)
(7.9616 2.71144 0)
(8.20656 1.98062 0)
(8.2211 1.21557 0)
(8.02231 0.430038 0)
(7.62598 -0.346605 0)
(7.04574 -1.08891 0)
(6.29615 -1.78094 0)
(5.39397 -2.42007 0)
(4.35358 -3.01288 0)
(3.17688 -3.5483 0)
(1.85458 -3.9536 0)
(0.41453 -4.11488 0)
(-1.05346 -4.10528 0)
(-2.48774 -3.95678 0)
(-3.84383 -3.64199 0)
(-5.05763 -3.17551 0)
(-6.0721 -2.58493 0)
(-6.84141 -1.9018 0)
(-7.32549 -1.17053 0)
(-7.4696 -0.441846 0)
(-7.33733 0.244517 0)
(-6.93437 0.881901 0)
(-6.29286 1.44893 0)
(-5.45399 1.91805 0)
(-4.4663 2.28524 0)
(-3.38816 2.57997 0)
(-2.2626 2.8298 0)
(-1.06398 2.9699 0)
(0.182281 2.8569 0)
(1.38946 2.65518 0)
(2.4886 2.40443 0)
(3.42793 2.0904 0)
(4.19331 1.71915 0)
(4.77733 1.31278 0)
(5.17614 0.887091 0)
(5.38232 0.457093 0)
(5.3932 0.0363051 0)
(5.25539 -0.374603 0)
(4.97101 -0.773928 0)
(4.55262 -1.14656 0)
(4.01549 -1.47883 0)
(3.37732 -1.76017 0)
(2.65849 -1.98449 0)
(1.87923 -2.15886 0)
(1.0533 -2.2892 0)
(0.177912 -2.34955 0)
(-0.721746 -2.25025 0)
(-1.57749 -2.05503 0)
(-2.35417 -1.79533 0)
(-3.0161 -1.46714 0)
(-3.5394 -1.08656 0)
(-3.90804 -0.673727 0)
(-4.11221 -0.248212 0)
(-4.13 0.166228 0)
(-3.99814 0.553014 0)
(-3.73275 0.909656 0)
(-3.34927 1.22787 0)
(-2.8695 1.49127 0)
(-2.31742 1.69374 0)
(-1.71647 1.83569 0)
(-1.08222 1.91821 0)
(-0.431936 1.92266 0)
(0.212047 1.82313 0)
(0.818162 1.63972 0)
(1.36527 1.42339 0)
(1.82539 1.16549 0)
(2.19041 0.865791 0)
(2.45735 0.542688 0)
(2.62495 0.213038 0)
(2.69483 -0.116991 0)
(2.66273 -0.41826 0)
(2.49293 -0.714936 0)
(2.39681 -0.972662 0)
(1.86526 -1.33812 0)
(-11.5898 0.599836 0)
(-11.0572 2.01031 0)
(-10.1285 3.33444 0)
(-8.87395 4.52649 0)
(-7.38927 5.53573 0)
(-5.76727 6.32874 0)
(-4.08737 6.89768 0)
(-2.41224 7.23168 0)
(-0.800056 7.30921 0)
(0.713417 7.13167 0)
(2.10732 6.71211 0)
(3.36757 6.07136 0)
(4.48117 5.24582 0)
(5.43281 4.28819 0)
(6.20631 3.24377 0)
(6.79552 2.15053 0)
(7.17857 1.03484 0)
(7.35067 -0.0664537 0)
(7.30618 -1.1287 0)
(7.03362 -2.13144 0)
(6.53053 -3.05624 0)
(5.80349 -3.88462 0)
(4.86617 -4.59383 0)
(3.74504 -5.16266 0)
(2.4767 -5.56852 0)
(1.10187 -5.78422 0)
(-0.342291 -5.7959 0)
(-1.80653 -5.60309 0)
(-3.20775 -5.21249 0)
(-4.46189 -4.64007 0)
(-5.49469 -3.92163 0)
(-6.24792 -3.10277 0)
(-6.68929 -2.23139 0)
(-6.81361 -1.34258 0)
(-6.64277 -0.460166 0)
(-6.2199 0.398855 0)
(-5.58945 1.23024 0)
(-4.7753 2.0206 0)
(-3.78278 2.70589 0)
(-2.65806 3.20952 0)
(-1.49497 3.58771 0)
(-0.351404 3.8606 0)
(0.719614 4.01773 0)
(1.69597 4.03932 0)
(2.56617 3.93584 0)
(3.33801 3.72575 0)
(3.99003 3.41047 0)
(4.49518 2.9875 0)
(4.86529 2.47935 0)
(5.09684 1.90671 0)
(5.1844 1.29468 0)
(5.12648 0.66883 0)
(4.92387 0.0499367 0)
(4.5818 -0.545942 0)
(4.10881 -1.10557 0)
(3.51443 -1.62034 0)
(2.80555 -2.08705 0)
(1.98089 -2.49459 0)
(1.04045 -2.78869 0)
(0.0438594 -2.93456 0)
(-0.948266 -2.96669 0)
(-1.90385 -2.88053 0)
(-2.77323 -2.67402 0)
(-3.53191 -2.3616 0)
(-4.14563 -1.96438 0)
(-4.58799 -1.50622 0)
(-4.82425 -1.00889 0)
(-4.87724 -0.503074 0)
(-4.75022 -0.00599696 0)
(-4.45487 0.457578 0)
(-4.01251 0.866884 0)
(-3.44821 1.20809 0)
(-2.79159 1.47897 0)
(-2.07856 1.69876 0)
(-1.31268 1.88644 0)
(-0.466244 1.93578 0)
(0.359969 1.88352 0)
(1.11991 1.78287 0)
(1.79683 1.62825 0)
(2.37742 1.43121 0)
(2.84887 1.20248 0)
(3.20145 0.949086 0)
(3.43668 0.677924 0)
(3.55124 0.395171 0)
(3.55643 0.104717 0)
(3.46575 -0.187831 0)
(3.27885 -0.473581 0)
(3.00275 -0.742798 0)
(2.64758 -0.990724 0)
(2.22517 -1.20712 0)
(1.745 -1.38187 0)
(1.22107 -1.50929 0)
(0.676622 -1.59542 0)
(0.105517 -1.63985 0)
(-0.486543 -1.59509 0)
(-1.03817 -1.46212 0)
(-1.53058 -1.28102 0)
(-1.95125 -1.05389 0)
(-2.28687 -0.788357 0)
(-2.52793 -0.495054 0)
(-2.67102 -0.187057 0)
(-2.71561 0.123711 0)
(-2.65734 0.42225 0)
(-2.51558 0.695805 0)
(-2.29447 0.934009 0)
(-2.00482 1.12906 0)
(-1.65947 1.27557 0)
(-1.27121 1.37077 0)
(-0.858615 1.4206 0)
(-0.429164 1.41745 0)
(0.007066 1.35442 0)
(0.415921 1.217 0)
(0.785038 1.03628 0)
(1.10338 0.826117 0)
(1.36117 0.596319 0)
(1.55103 0.355022 0)
(1.66936 0.11053 0)
(1.71493 -0.132124 0)
(1.69656 -0.355917 0)
(1.58042 -0.578134 0)
(1.50531 -0.771994 0)
(1.11624 -1.02908 0)
(-7.74311 0.488309 0)
(-7.62798 1.65726 0)
(-7.2541 2.76488 0)
(-6.64138 3.76913 0)
(-5.82069 4.63107 0)
(-4.82007 5.30114 0)
(-3.69296 5.76848 0)
(-2.48046 6.01525 0)
(-1.21946 6.03867 0)
(0.0532541 5.84897 0)
(1.27883 5.45824 0)
(2.41805 4.89563 0)
(3.43748 4.19744 0)
(4.30439 3.3999 0)
(4.99904 2.53929 0)
(5.50507 1.64411 0)
(5.82045 0.746447 0)
(5.94989 -0.135208 0)
(5.89166 -0.984921 0)
(5.64765 -1.78341 0)
(5.22587 -2.51449 0)
(4.63829 -3.1616 0)
(3.90219 -3.7129 0)
(3.04335 -4.16398 0)
(2.09525 -4.48306 0)
(1.0986 -4.64718 0)
(0.0829824 -4.64524 0)
(-0.908694 -4.49351 0)
(-1.83445 -4.20622 0)
(-2.66037 -3.79812 0)
(-3.35204 -3.28752 0)
(-3.88196 -2.69499 0)
(-4.23863 -2.04364 0)
(-4.42511 -1.35434 0)
(-4.45417 -0.646137 0)
(-4.33966 0.0649118 0)
(-4.08668 0.756234 0)
(-3.69672 1.39874 0)
(-3.17677 1.96694 0)
(-2.57042 2.4577 0)
(-1.90979 2.85489 0)
(-1.21154 3.12983 0)
(-0.493465 3.28161 0)
(0.224283 3.31703 0)
(0.916796 3.24599 0)
(1.56106 3.08215 0)
(2.157 2.83489 0)
(2.66669 2.50744 0)
(3.07503 2.1081 0)
(3.37075 1.6592 0)
(3.54468 1.18284 0)
(3.59389 0.695889 0)
(3.52048 0.213092 0)
(3.33019 -0.252341 0)
(3.03103 -0.688859 0)
(2.63166 -1.08682 0)
(2.14005 -1.43933 0)
(1.56149 -1.73956 0)
(0.904393 -1.96459 0)
(0.211331 -2.08456 0)
(-0.470541 -2.12802 0)
(-1.12333 -2.0915 0)
(-1.72072 -1.97355 0)
(-2.22589 -1.77938 0)
(-2.62827 -1.52259 0)
(-2.91268 -1.21841 0)
(-3.06908 -0.882354 0)
(-3.10376 -0.533725 0)
(-3.01522 -0.189514 0)
(-2.8132 0.13458 0)
(-2.51337 0.427879 0)
(-2.13512 0.682208 0)
(-1.69988 0.890767 0)
(-1.22862 1.06293 0)
(-0.694125 1.19977 0)
(-0.134703 1.23882 0)
(0.385133 1.24181 0)
(0.862305 1.2037 0)
(1.28755 1.12685 0)
(1.65238 1.01642 0)
(1.95254 0.876936 0)
(2.18585 0.7129 0)
(2.3497 0.530043 0)
(2.43804 0.331506 0)
(2.45747 0.120674 0)
(2.40683 -0.0965968 0)
(2.2833 -0.308549 0)
(2.08825 -0.507848 0)
(1.83027 -0.687771 0)
(1.52512 -0.842292 0)
(1.17899 -0.980134 0)
(0.805932 -1.07364 0)
(0.399789 -1.14241 0)
(-0.0443294 -1.15006 0)
(-0.482996 -1.08883 0)
(-0.893942 -0.994331 0)
(-1.264 -0.862862 0)
(-1.58334 -0.696115 0)
(-1.84168 -0.500862 0)
(-2.03028 -0.287355 0)
(-2.14404 -0.0671078 0)
(-2.17542 0.149716 0)
(-2.12966 0.357202 0)
(-2.01581 0.549416 0)
(-1.83696 0.716844 0)
(-1.60296 0.853218 0)
(-1.32606 0.954473 0)
(-1.01627 1.01953 0)
(-0.689296 1.04456 0)
(-0.348409 1.03529 0)
(0.00410882 0.975995 0)
(0.332374 0.862626 0)
(0.623556 0.728212 0)
(0.870899 0.574032 0)
(1.06934 0.403676 0)
(1.21433 0.223587 0)
(1.30505 0.0400692 0)
(1.33767 -0.14065 0)
(1.32201 -0.308058 0)
(1.23277 -0.469945 0)
(1.16965 -0.620187 0)
(0.858849 -0.797773 0)
(-7.37062 0.635307 0)
(-7.223 1.51029 0)
(-6.8306 2.33004 0)
(-6.19881 3.0623 0)
(-5.35487 3.68332 0)
(-4.33477 4.17853 0)
(-3.19232 4.54006 0)
(-1.97853 4.74739 0)
(-0.718261 4.77312 0)
(0.545861 4.62681 0)
(1.75483 4.31905 0)
(2.86431 3.86203 0)
(3.83785 3.29654 0)
(4.65649 2.66049 0)
(5.3029 1.97526 0)
(5.76924 1.26301 0)
(6.05314 0.541857 0)
(6.15683 -0.167695 0)
(6.07019 -0.842478 0)
(5.80909 -1.47085 0)
(5.38726 -2.04154 0)
(4.81853 -2.54536 0)
(4.11637 -2.97208 0)
(3.30514 -3.31452 0)
(2.41243 -3.57057 0)
(1.48593 -3.71648 0)
(0.512792 -3.73804 0)
(-0.453681 -3.63333 0)
(-1.36066 -3.40744 0)
(-2.18646 -3.07296 0)
(-2.91461 -2.66175 0)
(-3.52471 -2.18767 0)
(-4.00277 -1.66438 0)
(-4.34011 -1.10613 0)
(-4.53336 -0.529976 0)
(-4.58366 0.0430963 0)
(-4.48183 0.588946 0)
(-4.24454 1.09182 0)
(-3.87921 1.54103 0)
(-3.40377 1.92358 0)
(-2.83615 2.2259 0)
(-2.19811 2.43795 0)
(-1.51529 2.56235 0)
(-0.815242 2.60461 0)
(-0.125926 2.56998 0)
(0.526301 2.46536 0)
(1.13509 2.29302 0)
(1.681 2.04994 0)
(2.13796 1.75223 0)
(2.50454 1.41546 0)
(2.76766 1.05354 0)
(2.92313 0.679199 0)
(2.97298 0.303659 0)
(2.9217 -0.0624773 0)
(2.77571 -0.408962 0)
(2.54158 -0.725825 0)
(2.22708 -1.0054 0)
(1.84208 -1.23909 0)
(1.40164 -1.41906 0)
(0.927948 -1.54138 0)
(0.441672 -1.60357 0)
(-0.039588 -1.60273 0)
(-0.493665 -1.54055 0)
(-0.897078 -1.42011 0)
(-1.23115 -1.24754 0)
(-1.49377 -1.03644 0)
(-1.67594 -0.799015 0)
(-1.77217 -0.547964 0)
(-1.78376 -0.29554 0)
(-1.71689 -0.0517376 0)
(-1.57965 0.175484 0)
(-1.38214 0.377883 0)
(-1.13567 0.546636 0)
(-0.851842 0.653418 0)
(-0.542457 0.7781 0)
(-0.218285 0.838942 0)
(0.104056 0.863617 0)
(0.409543 0.853475 0)
(0.689076 0.815097 0)
(0.935619 0.748096 0)
(1.14357 0.656128 0)
(1.30897 0.546191 0)
(1.42712 0.421455 0)
(1.49307 0.283377 0)
(1.50915 0.133261 0)
(1.47206 -0.0217295 0)
(1.38092 -0.162389 0)
(1.24036 -0.291824 0)
(1.05938 -0.422349 0)
(0.837832 -0.548336 0)
(0.563023 -0.635768 0)
(0.272567 -0.702085 0)
(-0.0361872 -0.738148 0)
(-0.35139 -0.742782 0)
(-0.655429 -0.715753 0)
(-0.934743 -0.656296 0)
(-1.1815 -0.568371 0)
(-1.38641 -0.456062 0)
(-1.54101 -0.324609 0)
(-1.63649 -0.180958 0)
(-1.67259 -0.0325999 0)
(-1.65222 0.115538 0)
(-1.57567 0.258852 0)
(-1.44584 0.391156 0)
(-1.26807 0.505734 0)
(-1.05189 0.598984 0)
(-0.806442 0.670306 0)
(-0.539082 0.720027 0)
(-0.252164 0.731703 0)
(0.0349648 0.700269 0)
(0.309948 0.648708 0)
(0.561832 0.574485 0)
(0.778933 0.478967 0)
(0.956396 0.366877 0)
(1.09299 0.243567 0)
(1.18138 0.114716 0)
(1.221 -0.0154228 0)
(1.21499 -0.141301 0)
(1.1684 -0.260435 0)
(1.0715 -0.378177 0)
(0.980349 -0.489527 0)
(0.66953 -0.585547 0)
(-7.78636 0.562103 0)
(-7.49003 1.18293 0)
(-6.94145 1.76571 0)
(-6.16028 2.28108 0)
(-5.17938 2.71553 0)
(-4.02918 3.04984 0)
(-2.76121 3.28877 0)
(-1.42583 3.43185 0)
(-0.0381978 3.41695 0)
(1.33605 3.26586 0)
(2.6144 3.02943 0)
(3.76842 2.70974 0)
(4.76583 2.31315 0)
(5.58221 1.85799 0)
(6.20445 1.36346 0)
(6.62525 0.845975 0)
(6.84101 0.322914 0)
(6.84715 -0.187792 0)
(6.67409 -0.672861 0)
(6.32372 -1.12459 0)
(5.80842 -1.53036 0)
(5.14603 -1.88385 0)
(4.35451 -2.17666 0)
(3.45636 -2.40884 0)
(2.47226 -2.58304 0)
(1.44382 -2.68381 0)
(0.362245 -2.66097 0)
(-0.693848 -2.56229 0)
(-1.69781 -2.4063 0)
(-2.61708 -2.1757 0)
(-3.42966 -1.88216 0)
(-4.11643 -1.54141 0)
(-4.66192 -1.16558 0)
(-5.0538 -0.765746 0)
(-5.28499 -0.353741 0)
(-5.34947 0.0555203 0)
(-5.24522 0.447544 0)
(-4.99476 0.811186 0)
(-4.6048 1.13388 0)
(-4.09185 1.40644 0)
(-3.47504 1.61836 0)
(-2.78247 1.76477 0)
(-2.04175 1.84817 0)
(-1.27889 1.87392 0)
(-0.517206 1.84831 0)
(0.218718 1.77992 0)
(0.909189 1.6711 0)
(1.55085 1.47956 0)
(2.10764 1.24377 0)
(2.56646 1.00096 0)
(2.91905 0.744081 0)
(3.16024 0.477339 0)
(3.28932 0.208706 0)
(3.3094 -0.0537741 0)
(3.22229 -0.301792 0)
(3.0367 -0.527241 0)
(2.76784 -0.725973 0)
(2.4243 -0.891963 0)
(2.02163 -1.01732 0)
(1.57799 -1.09782 0)
(1.11152 -1.13585 0)
(0.639142 -1.13366 0)
(0.178473 -1.09518 0)
(-0.252437 -1.02408 0)
(-0.643686 -0.91533 0)
(-0.976269 -0.759517 0)
(-1.23796 -0.593029 0)
(-1.42648 -0.417574 0)
(-1.54179 -0.239143 0)
(-1.58513 -0.0664593 0)
(-1.55911 0.0938689 0)
(-1.47064 0.237298 0)
(-1.32734 0.360601 0)
(-1.14622 0.461324 0)
(-0.932365 0.535463 0)
(-0.693028 0.580902 0)
(-0.444 0.603896 0)
(-0.194516 0.606709 0)
(0.0469795 0.58804 0)
(0.272493 0.54804 0)
(0.474308 0.488993 0)
(0.647082 0.416752 0)
(0.786113 0.332963 0)
(0.887276 0.238577 0)
(0.946969 0.137266 0)
(0.963484 0.0343721 0)
(0.937095 -0.0685637 0)
(0.869429 -0.169003 0)
(0.7638 -0.263046 0)
(0.621209 -0.339269 0)
(0.448801 -0.407504 0)
(0.254848 -0.463098 0)
(0.0443029 -0.495599 0)
(-0.173416 -0.507557 0)
(-0.387047 -0.495176 0)
(-0.586574 -0.457026 0)
(-0.763641 -0.398825 0)
(-0.910607 -0.326609 0)
(-1.02144 -0.241454 0)
(-1.09037 -0.146904 0)
(-1.11782 -0.0472537 0)
(-1.10126 0.0528145 0)
(-1.04223 0.149543 0)
(-0.943196 0.239469 0)
(-0.808284 0.317681 0)
(-0.643982 0.382154 0)
(-0.456035 0.431741 0)
(-0.251449 0.460424 0)
(-0.0399735 0.467427 0)
(0.169494 0.459501 0)
(0.367228 0.43188 0)
(0.545487 0.377598 0)
(0.69793 0.322961 0)
(0.818744 0.248116 0)
(0.903477 0.167083 0)
(0.952737 0.087467 0)
(0.960931 -0.00510638 0)
(0.935115 -0.0920788 0)
(0.875301 -0.17384 0)
(0.762233 -0.252894 0)
(0.657705 -0.306852 0)
(0.387743 -0.348615 0)
(-7.84312 0.260801 0)
(-7.43542 0.611481 0)
(-6.78734 0.938937 0)
(-5.9216 1.23251 0)
(-4.87242 1.4827 0)
(-3.67653 1.68056 0)
(-2.38621 1.83307 0)
(-1.06905 1.97481 0)
(0.379036 2.05661 0)
(1.79544 1.976 0)
(3.04329 1.8331 0)
(4.17022 1.6442 0)
(5.15154 1.41526 0)
(5.95463 1.1547 0)
(6.55991 0.871625 0)
(6.95894 0.575646 0)
(7.13955 0.276174 0)
(7.11296 -0.0182615 0)
(6.87372 -0.301794 0)
(6.43872 -0.568311 0)
(5.83632 -0.812712 0)
(5.08992 -1.0287 0)
(4.22557 -1.21047 0)
(3.27076 -1.35694 0)
(2.26231 -1.4702 0)
(1.21821 -1.56118 0)
(0.115061 -1.5978 0)
(-0.986355 -1.55023 0)
(-1.98739 -1.43691 0)
(-2.89403 -1.28745 0)
(-3.69448 -1.1099 0)
(-4.36396 -0.909125 0)
(-4.88537 -0.690752 0)
(-5.24649 -0.461139 0)
(-5.44275 -0.227686 0)
(-5.4654 0.00214912 0)
(-5.33047 0.223269 0)
(-5.04483 0.429338 0)
(-4.6216 0.610332 0)
(-4.08001 0.761019 0)
(-3.44294 0.879985 0)
(-2.73582 0.965605 0)
(-1.98459 1.01629 0)
(-1.2136 1.03196 0)
(-0.447103 1.0157 0)
(0.285599 0.98165 0)
(0.973918 0.939149 0)
(1.6168 0.837083 0)
(2.17042 0.713646 0)
(2.61397 0.577908 0)
(2.95497 0.433628 0)
(3.18896 0.284644 0)
(3.31365 0.135139 0)
(3.33156 -0.0105152 0)
(3.24341 -0.148809 0)
(3.06186 -0.276772 0)
(2.79548 -0.390444 0)
(2.45556 -0.485275 0)
(2.05733 -0.558258 0)
(1.61736 -0.607167 0)
(1.15298 -0.631103 0)
(0.682973 -0.629076 0)
(0.225082 -0.60423 0)
(-0.203763 -0.567479 0)
(-0.602115 -0.507908 0)
(-0.945492 -0.426094 0)
(-1.22326 -0.331269 0)
(-1.42675 -0.229132 0)
(-1.55821 -0.126539 0)
(-1.61854 -0.0283685 0)
(-1.61148 0.0622609 0)
(-1.54345 0.143274 0)
(-1.42106 0.213098 0)
(-1.25365 0.269351 0)
(-1.05202 0.313514 0)
(-0.824828 0.339568 0)
(-0.58375 0.350502 0)
(-0.337875 0.348797 0)
(-0.0955801 0.335009 0)
(0.134453 0.309408 0)
(0.343966 0.273346 0)
(0.526603 0.228956 0)
(0.677452 0.17799 0)
(0.792268 0.121556 0)
(0.867831 0.0610568 0)
(0.902896 -0.00151705 0)
(0.895693 -0.0647505 0)
(0.846284 -0.125523 0)
(0.756145 -0.182681 0)
(0.632609 -0.226941 0)
(0.482691 -0.260744 0)
(0.309965 -0.285854 0)
(0.120353 -0.300193 0)
(-0.0773298 -0.301867 0)
(-0.27391 -0.290811 0)
(-0.459871 -0.267975 0)
(-0.626319 -0.234291 0)
(-0.766392 -0.191116 0)
(-0.874862 -0.140382 0)
(-0.94724 -0.0841 0)
(-0.979937 -0.0248623 0)
(-0.973285 0.0346373 0)
(-0.927301 0.0920941 0)
(-0.844683 0.145227 0)
(-0.729276 0.191915 0)
(-0.586714 0.230671 0)
(-0.424797 0.260931 0)
(-0.242715 0.284047 0)
(-0.0533334 0.288008 0)
(0.128577 0.27942 0)
(0.30237 0.261439 0)
(0.458951 0.233811 0)
(0.592973 0.197816 0)
(0.700214 0.15526 0)
(0.774514 0.108084 0)
(0.817668 0.0584511 0)
(0.824873 0.00898879 0)
(0.799362 -0.0425486 0)
(0.73986 -0.0899816 0)
(0.645863 -0.135044 0)
(0.542131 -0.176554 0)
(0.335415 -0.17872 0)
(-7.62857 0.0404596 0)
(-7.40629 0.153878 0)
(-6.95565 0.261812 0)
(-6.28913 0.361252 0)
(-5.4301 0.446809 0)
(-4.40567 0.517929 0)
(-3.23939 0.571678 0)
(-1.94606 0.615305 0)
(-0.723838 0.755226 0)
(0.483306 0.683216 0)
(1.7169 0.621739 0)
(2.87831 0.554379 0)
(3.91734 0.479198 0)
(4.8081 0.396584 0)
(5.52936 0.308278 0)
(6.0668 0.217535 0)
(6.41247 0.126033 0)
(6.55867 0.0362534 0)
(6.52454 -0.0507615 0)
(6.30877 -0.136882 0)
(5.91555 -0.219501 0)
(5.3599 -0.294965 0)
(4.65749 -0.36163 0)
(3.82704 -0.415142 0)
(2.88951 -0.453324 0)
(1.85439 -0.488482 0)
(0.861493 -0.569512 0)
(-0.0828102 -0.530113 0)
(-1.03612 -0.472384 0)
(-1.93723 -0.42389 0)
(-2.74475 -0.364515 0)
(-3.43709 -0.300655 0)
(-3.99879 -0.232884 0)
(-4.41838 -0.162565 0)
(-4.68926 -0.0917629 0)
(-4.80893 -0.0215619 0)
(-4.77938 0.0471934 0)
(-4.606 0.111797 0)
(-4.29927 0.168938 0)
(-3.8829 0.217675 0)
(-3.37208 0.256766 0)
(-2.78868 0.285492 0)
(-2.15463 0.304128 0)
(-1.4913 0.312836 0)
(-0.81889 0.310079 0)
(-0.153422 0.294603 0)
(0.4694 0.279205 0)
(1.04292 0.277417 0)
(1.53877 0.22812 0)
(1.97222 0.18579 0)
(2.32104 0.139634 0)
(2.57643 0.093254 0)
(2.7355 0.0473366 0)
(2.79823 0.00291638 0)
(2.76768 -0.0394092 0)
(2.64708 -0.0787903 0)
(2.44647 -0.11383 0)
(2.17529 -0.143469 0)
(1.84666 -0.166333 0)
(1.47556 -0.181359 0)
(1.07851 -0.189079 0)
(0.669711 -0.189965 0)
(0.264688 -0.182722 0)
(-0.123909 -0.166568 0)
(-0.474766 -0.149353 0)
(-0.779252 -0.133925 0)
(-1.02377 -0.0979397 0)
(-1.21208 -0.0685775 0)
(-1.33629 -0.0363267 0)
(-1.39532 -0.00566713 0)
(-1.39247 0.022451 0)
(-1.33313 0.0471319 0)
(-1.22438 0.0678571 0)
(-1.07282 0.0843729 0)
(-0.888262 0.0968922 0)
(-0.679677 0.104594 0)
(-0.45737 0.108029 0)
(-0.230443 0.107366 0)
(-0.00710501 0.102759 0)
(0.204662 0.0944866 0)
(0.397441 0.0830639 0)
(0.56489 0.0691661 0)
(0.701838 0.0531147 0)
(0.803902 0.0351871 0)
(0.867537 0.0157767 0)
(0.890724 -0.00569167 0)
(0.875927 -0.0293756 0)
(0.82437 -0.0512724 0)
(0.739151 -0.071343 0)
(0.619491 -0.0809772 0)
(0.466528 -0.0885118 0)
(0.28988 -0.0949985 0)
(0.097656 -0.0984507 0)
(-0.102186 -0.0986422 0)
(-0.301044 -0.0950499 0)
(-0.490297 -0.0875351 0)
(-0.661664 -0.0766272 0)
(-0.808181 -0.0629756 0)
(-0.924132 -0.0469553 0)
(-1.00493 -0.0291416 0)
(-1.04743 -0.0102668 0)
(-1.0505 0.00888645 0)
(-1.014 0.027444 0)
(-0.939906 0.0445582 0)
(-0.831542 0.0599776 0)
(-0.693053 0.0728482 0)
(-0.530982 0.0847529 0)
(-0.356452 0.097473 0)
(-0.175337 0.094969 0)
(0.0128796 0.0916792 0)
(0.19511 0.0858593 0)
(0.363392 0.0771058 0)
(0.511759 0.0666251 0)
(0.635153 0.0537593 0)
(0.729385 0.0391674 0)
(0.791297 0.023667 0)
(0.819611 0.00708297 0)
(0.813666 -0.00825171 0)
(0.771443 -0.0212979 0)
(0.701669 -0.0358419 0)
(0.609818 -0.0540746 0)
(0.501543 -0.0371041 0)
(0.827609 -4.53105 0)
(0.67099 -9.77689e-05 0)
(0.0573775 5.5622 0)
(-0.702665 10.8044 0)
(-1.34052 15.5894 0)
(-1.74488 19.8042 0)
(-1.93644 23.3636 0)
(-1.98808 26.2443 0)
(-1.80743 28.3783 0)
(-1.39606 29.314 0)
(-0.928871 28.7314 0)
(-0.495755 27.0404 0)
(-0.157295 24.2248 0)
(0.0611529 20.3784 0)
(0.160932 15.785 0)
(0.159339 10.9584 0)
(0.060013 6.53158 0)
(0.0215587 3.1209 0)
(-0.258217 1.19049 0)
(-0.651566 -4.75828 0)
(-0.857925 -9.12511 0)
(-0.983116 -12.9186 0)
(-1.06659 -16.2703 0)
(-1.0667 -19.1643 0)
(-0.959381 -21.5977 0)
(-0.746701 -23.3771 0)
(-0.326094 -23.9046 0)
(0.108198 -23.241 0)
(0.495494 -21.6386 0)
(0.811554 -19.1653 0)
(1.03626 -15.9954 0)
(1.13368 -12.399 0)
(1.06166 -8.72106 0)
(0.755504 -5.37695 0)
(0.500102 -2.68744 0)
(0.488669 0.756036 0)
(0.520498 4.3278 0)
(0.272567 7.66972 0)
(-0.0130429 10.6997 0)
(-0.237882 13.3319 0)
(-0.392284 15.5374 0)
(-0.425399 17.3169 0)
(-0.359819 18.6076 0)
(-0.170149 19.0495 0)
(0.0643852 18.6167 0)
(0.314571 17.4729 0)
(0.551406 15.6237 0)
(0.745011 13.1528 0)
(0.865254 10.2394 0)
(0.869977 7.18381 0)
(0.701844 4.35153 0)
(0.443394 2.17526 0)
(0.418258 0.0940473 0)
(0.372796 -3.4647 0)
(0.216396 -6.26062 0)
(0.0463933 -8.7761 0)
(-0.0966243 -10.9709 0)
(-0.215308 -12.8193 0)
(-0.286823 -14.3308 0)
(-0.297922 -15.413 0)
(-0.228095 -15.7306 0)
(-0.171421 -15.2822 0)
(-0.153721 -14.217 0)
(-0.18052 -12.5802 0)
(-0.25197 -10.4674 0)
(-0.350579 -8.02595 0)
(-0.424918 -5.49842 0)
(-0.394198 -3.2149 0)
(-0.293546 -1.50641 0)
(-0.538215 0.266297 0)
(-0.747736 2.95037 0)
(-0.844337 5.10656 0)
(-0.888241 7.03405 0)
(-0.915885 8.68973 0)
(-0.904959 10.0635 0)
(-0.844038 11.1472 0)
(-0.728534 11.8855 0)
(-0.555942 12.0627 0)
(-0.37893 11.7268 0)
(-0.172207 10.9471 0)
(0.0294611 9.7519 0)
(0.21214 8.1904 0)
(0.362663 6.35923 0)
(0.448991 4.45963 0)
(0.44476 2.70399 0)
(0.350192 1.2361 0)
(0.442364 -0.175414 0)
(0.501 -2.03804 0)
(0.51816 -3.77498 0)
(0.50562 -5.30936 0)
(0.491156 -6.63068 0)
(0.477101 -7.74195 0)
(0.470107 -8.64425 0)
(0.476034 -9.2724 0)
(0.505911 -9.41983 0)
(0.542516 -9.13042 0)
(0.555094 -8.48346 0)
(0.538936 -7.51607 0)
(0.488735 -6.28542 0)
(0.401428 -4.85539 0)
(0.281672 -3.35525 0)
(0.162009 -1.96847 0)
(0.0506976 -0.901361 0)
(-0.00791371 -0.127199 0)
(-0.120507 1.75537 0)
(-0.24668 3.01613 0)
(-0.363435 4.14354 0)
(-0.457926 5.11085 0)
(-0.524421 5.90758 0)
(-0.555956 6.52479 0)
(-0.540004 6.91069 0)
(-0.486284 6.91897 0)
(-0.421589 6.64648 0)
(-0.351034 6.0984 0)
(-0.280007 5.29703 0)
(-0.213458 4.30605 0)
(-0.155196 3.22217 0)
(-0.111525 2.15846 0)
(-0.1017 1.17113 0)
(-1.17869 -3.54421 0)
(-1.46335 -1.16248 0)
(-2.00744 6.45964 0)
(-2.53706 11.635 0)
(-2.91719 16.2153 0)
(-3.11712 20.2215 0)
(-3.11107 23.5964 0)
(-2.9107 26.3244 0)
(-2.48894 28.2607 0)
(-1.77681 28.8715 0)
(-0.819539 28.1703 0)
(0.248094 26.4204 0)
(1.30714 23.6483 0)