/*--------------------------------*- C++ -*----------------------------------*\
| =========                 |                                                 |
| \\      /  F ield         | OpenFOAM: The Open Source CFD Toolbox           |
|  \\    /   O peration     | Version:  2206                                  |
|   \\  /    A nd           | Website:  www.openfoam.com                      |
|    \\/     M anipulation  |                                                 |
\*---------------------------------------------------------------------------*/
FoamFile
{
    version     2.0;
    format      ascii;
    arch        "LSB;label=32;scalar=64";
    class       surfaceScalarField;
    location    "18.3999";
    object      phi_0;
}
// * * * * * * * * * * * * * * * * * * * * * * * * * * * * * * * * * * * * * //

dimensions      [0 3 -1 0 0 0 0];

oriented        oriented;

internalField   nonuniform List<scalar> 
3613
(
1.92443e-06
-8.95612e-08
-3.51428e-07
2.34316e-06
4.16053e-07
-8.34782e-07
2.67479e-06
1.03031e-06
-1.36193e-06
2.88703e-06
1.60434e-06
-1.81658e-06
2.96593e-06
2.05422e-06
-2.13312e-06
2.90774e-06
2.37014e-06
-2.31195e-06
2.70693e-06
2.56132e-06
-2.36051e-06
2.36354e-06
2.60654e-06
-2.26316e-06
1.89506e-06
2.52101e-06
-2.05253e-06
1.37394e-06
2.29662e-06
-1.77549e-06
9.18333e-07
1.91615e-06
-1.46054e-06
6.44975e-07
1.37978e-06
-1.10642e-06
5.99557e-07
7.37273e-07
-6.91855e-07
7.6976e-07
5.45499e-08
-2.24753e-07
1.08952e-06
-6.08662e-07
2.88907e-07
1.51889e-06
-1.18971e-06
7.60342e-07
2.02655e-06
-1.66264e-06
1.15499e-06
2.59929e-06
-2.01816e-06
1.44541e-06
3.23331e-06
-2.24647e-06
1.61245e-06
3.92494e-06
-2.33061e-06
1.63897e-06
4.66771e-06
-2.24966e-06
1.50689e-06
5.4549e-06
-1.9823e-06
1.19512e-06
6.26768e-06
-1.51797e-06
7.05186e-07
7.04431e-06
-8.85257e-07
1.08625e-07
7.70479e-06
-1.85744e-07
-4.74735e-07
8.19968e-06
4.61246e-07
-9.5614e-07
8.51505e-06
9.94561e-07
-1.30993e-06
8.67157e-06
1.40752e-06
-1.56403e-06
8.70143e-06
1.71757e-06
-1.74744e-06
8.61984e-06
1.94117e-06
-1.85958e-06
8.44447e-06
2.07352e-06
-1.89815e-06
8.19497e-06
2.12295e-06
-1.87345e-06
7.894e-06
2.09632e-06
-1.79535e-06
7.56097e-06
2.00754e-06
-1.6745e-06
7.21296e-06
1.86791e-06
-1.5199e-06
6.86579e-06
1.6861e-06
-1.33894e-06
6.52806e-06
1.47996e-06
-1.14223e-06
6.19422e-06
1.28722e-06
-9.53377e-07
5.85038e-06
1.15621e-06
-8.12374e-07
5.48779e-06
1.12552e-06
-7.62925e-07
5.1152e-06
1.19451e-06
-8.21927e-07
4.75718e-06
1.31564e-06
-9.57616e-07
4.43742e-06
1.42479e-06
-1.10503e-06
4.16984e-06
1.47233e-06
-1.20475e-06
3.96782e-06
1.42097e-06
-1.21895e-06
3.84317e-06
1.24865e-06
-1.124e-06
3.79666e-06
9.63971e-07
-9.17454e-07
3.82369e-06
5.95608e-07
-6.22639e-07
3.91347e-06
1.81268e-07
-2.71056e-07
4.05e-06
-2.38639e-07
1.02118e-07
4.22122e-06
-6.29505e-07
4.58283e-07
4.41647e-06
-9.70219e-07
7.74966e-07
4.62498e-06
-1.24807e-06
1.03956e-06
4.83737e-06
-1.45861e-06
1.24622e-06
5.04674e-06
-1.60421e-06
1.39484e-06
5.24947e-06
-1.6914e-06
1.48867e-06
5.44535e-06
-1.72779e-06
1.53191e-06
5.63662e-06
-1.72131e-06
1.53004e-06
5.82739e-06
-1.68033e-06
1.48956e-06
6.02326e-06
-1.61057e-06
1.4147e-06
6.22872e-06
-1.51134e-06
1.30588e-06
6.44593e-06
-1.37759e-06
1.16038e-06
6.67541e-06
-1.20189e-06
9.72419e-07
6.917e-06
-9.75422e-07
7.3383e-07
7.16623e-06
-6.91392e-07
4.42159e-07
7.4056e-06
-3.53802e-07
1.14435e-07
7.61006e-06
1.04702e-08
-2.1493e-07
7.76125e-06
3.59662e-07
-5.10853e-07
7.84832e-06
6.65506e-07
-7.52578e-07
7.87098e-06
9.15816e-07
-9.38473e-07
7.83076e-06
1.10886e-06
-1.06865e-06
7.72415e-06
1.2436e-06
-1.13699e-06
7.54516e-06
1.30419e-06
-1.1252e-06
7.30337e-06
1.28997e-06
-1.04817e-06
7.01777e-06
1.21808e-06
-9.32487e-07
6.71379e-06
1.11562e-06
-8.11647e-07
6.41433e-06
1.01369e-06
-7.14223e-07
6.13419e-06
9.34597e-07
-6.5446e-07
5.88239e-06
8.85647e-07
-6.33847e-07
5.66314e-06
8.62987e-07
-6.43737e-07
5.47629e-06
8.55097e-07
-6.68249e-07
5.31865e-06
8.46513e-07
-6.88868e-07
5.18647e-06
8.20774e-07
-6.88591e-07
5.07758e-06
7.62543e-07
-6.53654e-07
4.99142e-06
6.63444e-07
-5.77283e-07
4.92932e-06
5.21738e-07
-4.59641e-07
4.8934e-06
3.41191e-07
-3.05268e-07
4.88606e-06
1.29609e-07
-1.22272e-07
4.90846e-06
-1.008e-07
7.83974e-08
4.95919e-06
-3.3436e-07
2.83628e-07
5.03477e-06
-5.549e-07
4.79328e-07
5.13055e-06
-7.50981e-07
6.55201e-07
5.24133e-06
-9.14097e-07
8.03315e-07
5.36235e-06
-1.03919e-06
9.18169e-07
5.49006e-06
-1.12417e-06
9.96457e-07
5.62208e-06
-1.16881e-06
1.03679e-06
5.75562e-06
-1.17291e-06
1.03938e-06
5.88748e-06
-1.13772e-06
1.00586e-06
6.01543e-06
-1.06713e-06
9.39183e-07
6.1385e-06
-9.66403e-07
8.43329e-07
6.25704e-06
-8.40567e-07
7.22035e-07
6.37256e-06
-6.93306e-07
5.77785e-07
6.48682e-06
-5.26553e-07
4.12287e-07
6.59907e-06
-3.41404e-07
2.29159e-07
6.70235e-06
-1.41546e-07
3.82634e-08
6.78801e-06
6.32626e-08
-1.48922e-07
6.84844e-06
2.59937e-07
-3.20367e-07
6.87762e-06
4.38397e-07
-4.67575e-07
6.86825e-06
5.93756e-07
-5.84388e-07
6.81077e-06
7.19556e-07
-6.6207e-07
6.70271e-06
8.04701e-07
-6.96648e-07
6.5511e-06
8.43893e-07
-6.92281e-07
6.37201e-06
8.4204e-07
-6.62945e-07
6.18533e-06
8.12576e-07
-6.25904e-07
6.00843e-06
7.69243e-07
-5.92341e-07
5.85102e-06
7.23048e-07
-5.65639e-07
5.71712e-06
6.78618e-07
-5.4472e-07
5.60713e-06
6.35537e-07
-5.25547e-07
5.51946e-06
5.90273e-07
-5.026e-07
5.45221e-06
5.36978e-07
-4.69728e-07
5.40382e-06
4.69892e-07
-4.21499e-07
5.37254e-06
3.87037e-07
-3.55759e-07
5.35673e-06
2.87465e-07
-2.7165e-07
5.35516e-06
1.71708e-07
-1.7014e-07
4.21342e-08
-5.42568e-08
4.5815e-07
-2.25312e-07
6.16305e-07
2.57898e-07
7.65137e-07
8.81475e-07
8.4539e-07
1.52409e-06
8.02687e-07
2.09692e-06
6.17708e-07
2.55512e-06
3.15245e-07
2.86378e-06
-7.10785e-08
2.99287e-06
-4.29675e-07
2.8796e-06
-6.63624e-07
2.53057e-06
-7.15862e-07
1.96838e-06
-5.71002e-07
1.23492e-06
-2.57294e-07
4.23566e-07
1.40941e-07
-3.43685e-07
5.91122e-07
-1.05884e-06
1.05903e-06
-1.65762e-06
1.53314e-06
-2.13676e-06
2.01674e-06
-2.50176e-06
2.52455e-06
-2.75428e-06
3.07516e-06
-2.88122e-06
3.68103e-06
-2.85553e-06
4.34345e-06
-2.64472e-06
5.0523e-06
-2.22683e-06
5.78186e-06
-1.61481e-06
6.47184e-06
-8.75728e-07
7.05539e-06
-1.22301e-07
7.4962e-06
5.53748e-07
7.78766e-06
1.11605e-06
7.94513e-06
1.56011e-06
7.99329e-06
1.89301e-06
7.94704e-06
2.11976e-06
7.8182e-06
2.25179e-06
7.6216e-06
2.29292e-06
7.37576e-06
2.25338e-06
7.09757e-06
2.14611e-06
6.80081e-06
1.98286e-06
6.48938e-06
1.79139e-06
6.15864e-06
1.61796e-06
5.80396e-06
1.51088e-06
5.43298e-06
1.4965e-06
5.06821e-06
1.55928e-06
4.73489e-06
1.64895e-06
4.44951e-06
1.71017e-06
4.22476e-06
1.69708e-06
4.07396e-06
1.57177e-06
4.00112e-06
1.32148e-06
4.00145e-06
9.63647e-07
4.06654e-06
5.30521e-07
4.18474e-06
6.30633e-08
4.34276e-06
-3.96664e-07
4.52868e-06
-8.15421e-07
4.7302e-06
-1.17174e-06
4.93551e-06
-1.45338e-06
5.13483e-06
-1.65793e-06
5.32154e-06
-1.79092e-06
5.49237e-06
-1.86223e-06
5.64668e-06
-1.8821e-06
5.78779e-06
-1.86242e-06
5.92285e-06
-1.81539e-06
6.06126e-06
-1.74898e-06
6.21139e-06
-1.66146e-06
6.37773e-06
-1.54393e-06
6.5606e-06
-1.38476e-06
6.75795e-06
-1.17277e-06
6.96653e-06
-8.99964e-07
7.17928e-06
-5.66561e-07
7.37837e-06
-1.88615e-07
7.54255e-06
1.95485e-07
7.65639e-06
5.51661e-07
7.71155e-06
8.60656e-07
7.70804e-06
1.11238e-06
7.65046e-06
1.30118e-06
7.53492e-06
1.41973e-06
7.36243e-06
1.46246e-06
7.14376e-06
1.43675e-06
6.89494e-06
1.36444e-06
6.63624e-06
1.27239e-06
6.38535e-06
1.18548e-06
6.15387e-06
1.11713e-06
5.94872e-06
1.06814e-06
5.7725e-06
1.03131e-06
5.62465e-06
9.94371e-07
5.50369e-06
9.41735e-07
5.40814e-06
8.58086e-07
5.3371e-06
7.34488e-07
5.29053e-06
5.68307e-07
5.26933e-06
3.62392e-07
5.27457e-06
1.24366e-07
5.30652e-06
-1.32743e-07
5.36218e-06
-3.90024e-07
5.43761e-06
-6.30328e-07
5.52779e-06
-8.41165e-07
5.62754e-06
-1.01385e-06
5.73216e-06
-1.1438e-06
5.83827e-06
-1.23029e-06
5.9449e-06
-1.27543e-06
6.05105e-06
-1.27907e-06
6.15381e-06
-1.24048e-06
6.25164e-06
-1.16497e-06
6.34472e-06
-1.05948e-06
6.43408e-06
-9.29929e-07
6.52119e-06
-7.80416e-07
6.60764e-06
-6.13004e-07
6.69439e-06
-4.28151e-07
6.77989e-06
-2.27042e-07
6.85827e-06
-1.51201e-08
6.92199e-06
1.9621e-07
6.9638e-06
3.96594e-07
6.98139e-06
5.76165e-07
6.97429e-06
7.26655e-07
6.93359e-06
8.45399e-07
6.85038e-06
9.27102e-07
6.72735e-06
9.65069e-07
6.57711e-06
9.62821e-07
6.41652e-06
9.2983e-07
6.2615e-06
8.78075e-07
6.12277e-06
8.17342e-07
6.00547e-06
7.52841e-07
5.91138e-06
6.84365e-07
5.84025e-06
6.08099e-07
5.7905e-06
5.19644e-07
5.75986e-06
4.17678e-07
5.74589e-06
3.01436e-07
5.74643e-06
1.71166e-07
2.85347e-08
-4.66906e-07
-8.36074e-08
-6.25791e-07
4.16783e-07
-7.71112e-07
1.0268e-06
-9.22956e-07
1.67593e-06
-1.1033e-06
2.27726e-06
-1.29847e-06
2.7503e-06
-1.46755e-06
3.03286e-06
-1.57529e-06
3.10061e-06
-1.57607e-06
2.88038e-06
-1.44105e-06
2.39555e-06
-1.15434e-06
1.68167e-06
-7.44169e-07
8.2475e-07
-2.66452e-07
-5.41518e-08
2.54364e-07
-8.64501e-07
7.5374e-07
-1.55822e-06
1.21488e-06
-2.11876e-06
1.62861e-06
-2.55049e-06
1.99554e-06
-2.86868e-06
2.33313e-06
-3.09188e-06
2.67687e-06
-3.22495e-06
3.06843e-06
-3.24709e-06
3.53423e-06
-3.11052e-06
4.0756e-06
-2.7682e-06
4.67901e-06
-2.21822e-06
5.30453e-06
-1.50124e-06
5.89121e-06
-7.0898e-07
6.38888e-06
5.60813e-08
6.77293e-06
7.32003e-07
7.03983e-06
1.2932e-06
7.20029e-06
1.73256e-06
7.26848e-06
2.05157e-06
7.26075e-06
2.25951e-06
7.1825e-06
2.37117e-06
7.04483e-06
2.39106e-06
6.85502e-06
2.33592e-06
6.62801e-06
2.20987e-06
6.36617e-06
2.05323e-06
6.06902e-06
1.91511e-06
5.74309e-06
1.83681e-06
5.40694e-06
1.83265e-06
5.08575e-06
1.88048e-06
4.80058e-06
1.93412e-06
4.56601e-06
1.94475e-06
4.39677e-06
1.86632e-06
4.30087e-06
1.66767e-06
4.27574e-06
1.34661e-06
4.31473e-06
9.24662e-07
4.40953e-06
4.35719e-07
4.54991e-06
-7.73133e-08
4.7219e-06
-5.68658e-07
4.91305e-06
-1.00657e-06
5.10968e-06
-1.36837e-06
5.29945e-06
-1.64315e-06
5.47278e-06
-1.83126e-06
5.62422e-06
-1.94236e-06
5.75228e-06
-1.99029e-06
5.85584e-06
-1.98566e-06
5.93785e-06
-1.94443e-06
6.00887e-06
-1.88641e-06
6.08194e-06
-1.82205e-06
6.16886e-06
-1.74838e-06
6.27655e-06
-1.65162e-06
6.40674e-06
-1.51495e-06
6.557e-06
-1.32304e-06
6.72319e-06
-1.06615e-06
6.8997e-06
-7.43073e-07
7.07601e-06
-3.64921e-07
7.23303e-06
3.84612e-08
7.35565e-06
4.2905e-07
7.43393e-06
7.82377e-07
7.46494e-06
1.08136e-06
7.45099e-06
1.31513e-06
7.39188e-06
1.47884e-06
7.28483e-06
1.5695e-06
7.13336e-06
1.58822e-06
6.94939e-06
1.54841e-06
6.74694e-06
1.47484e-06
6.54262e-06
1.3898e-06
6.34936e-06
1.31039e-06
6.17543e-06
1.24207e-06
6.02532e-06
1.18142e-06
5.90083e-06
1.11887e-06
5.8026e-06
1.03996e-06
5.72953e-06
9.3115e-07
5.68045e-06
7.83569e-07
5.65454e-06
5.94217e-07
5.65166e-06
3.65275e-07
5.67154e-06
1.04488e-07
5.71245e-06
-1.73656e-07
5.77062e-06
-4.48196e-07
5.84223e-06
-7.01935e-07
5.92277e-06
-9.21706e-07
6.00751e-06
-1.09859e-06
6.09163e-06
-1.22793e-06
6.17158e-06
-1.31024e-06
6.24714e-06
-1.35099e-06
6.32032e-06
-1.35225e-06
6.38776e-06
-1.30792e-06
6.44946e-06
-1.22667e-06
6.50754e-06
-1.11756e-06
6.56446e-06
-9.86849e-07
6.62206e-06
-8.38015e-07
6.68164e-06
-6.72585e-07
6.74418e-06
-4.90691e-07
6.80945e-06
-2.92311e-07
6.87349e-06
-7.91631e-08
6.92883e-06
1.40873e-07
6.97098e-06
3.54439e-07
6.99749e-06
5.49657e-07
7.0071e-06
7.17048e-07
6.99935e-06
8.53153e-07
6.96869e-06
9.57757e-07
6.90747e-06
1.02629e-06
6.81634e-06
1.05394e-06
6.70313e-06
1.04304e-06
6.57958e-06
1.00163e-06
6.45943e-06
9.37494e-07
6.35253e-06
8.59737e-07
6.26396e-06
7.72935e-07
6.19579e-06
6.76269e-07
6.14766e-06
5.67778e-07
6.118e-06
4.47333e-07
6.10457e-06
3.14869e-07
6.10507e-06
1.70663e-07
1.59149e-08
-9.73739e-07
1.83158e-07
-1.23049e-06
6.7353e-07
-1.45611e-06
1.25242e-06
-1.6372e-06
1.85703e-06
-1.76586e-06
2.40592e-06
-1.84093e-06
2.82537e-06
-1.87638e-06
3.06831e-06
-1.84281e-06
3.06704e-06
-1.68451e-06
2.72208e-06
-1.36694e-06
2.07798e-06
-9.1066e-07
1.22539e-06
-3.56878e-07
2.70968e-07
2.14225e-07
-6.25255e-07
7.66794e-07
-1.41707e-06
1.26777e-06
-2.05919e-06
1.69849e-06
-2.54948e-06
2.05111e-06
-2.90311e-06
2.32517e-06
-3.14274e-06
2.52917e-06
-3.29587e-06
2.69048e-06
-3.38627e-06
2.85336e-06
-3.40997e-06
3.07639e-06
-3.33355e-06
3.39734e-06
-3.08915e-06
3.82068e-06
-2.64156e-06
4.31606e-06
-1.99663e-06
4.83457e-06
-1.22749e-06
5.32268e-06
-4.32032e-07
5.74541e-06
3.09283e-07
6.08431e-06
9.543e-07
6.33514e-06
1.48173e-06
6.50178e-06
1.88493e-06
6.59421e-06
2.16709e-06
6.62537e-06
2.34e-06
6.60005e-06
2.41637e-06
6.51375e-06
2.42222e-06
6.36882e-06
2.3548e-06
6.1775e-06
2.24455e-06
5.94433e-06
2.14828e-06
5.68186e-06
2.09928e-06
5.41207e-06
2.10244e-06
5.15857e-06
2.13398e-06
4.93878e-06
2.15392e-06
4.77012e-06
2.1134e-06
4.66543e-06
1.97101e-06
4.62635e-06
1.70675e-06
4.64795e-06
1.32501e-06
4.72382e-06
8.48792e-07
4.84707e-06
3.12475e-07
5.00467e-06
-2.34918e-07
5.18334e-06
-7.47324e-07
5.36968e-06
-1.19291e-06
5.55005e-06
-1.54873e-06
5.71184e-06
-1.80494e-06
5.84649e-06
-1.96591e-06
5.94981e-06
-2.04568e-06
6.02518e-06
-2.06566e-06
6.06788e-06
-2.02836e-06
6.08305e-06
-1.9596e-06
6.08462e-06
-1.88798e-06
6.08854e-06
-1.82597e-06
6.10841e-06
-1.76826e-06
6.15267e-06
-1.69588e-06
6.22422e-06
-1.5865e-06
6.32154e-06
-1.42036e-06
6.44032e-06
-1.18493e-06
6.57523e-06
-8.77987e-07
6.71931e-06
-5.09e-07
6.85859e-06
-1.00815e-07
6.97905e-06
3.08581e-07
7.0713e-06
6.9013e-07
7.1298e-06
1.02286e-06
7.15357e-06
1.29135e-06
7.14297e-06
1.48945e-06
7.09718e-06
1.61529e-06
7.01391e-06
1.67149e-06
6.89685e-06
1.66547e-06
6.75643e-06
1.61526e-06
6.60849e-06
1.53774e-06
6.46479e-06
1.45409e-06
6.33356e-06
1.3733e-06
6.22063e-06
1.29434e-06
6.13007e-06
1.20943e-06
6.06352e-06
1.10652e-06
6.02041e-06
9.74262e-07
5.99926e-06
8.04716e-07
5.99861e-06
5.94863e-07
6.01734e-06
3.4655e-07
6.0537e-06
6.81236e-08
6.10402e-06
-2.23974e-07
6.16367e-06
-5.07847e-07
6.22857e-06
-7.6683e-07
6.29501e-06
-9.88153e-07
6.35976e-06
-1.16333e-06
6.41866e-06
-1.28683e-06
6.46838e-06
-1.35995e-06
6.50863e-06
-1.39124e-06
6.5438e-06
-1.38742e-06
6.57008e-06
-1.3342e-06
6.59056e-06
-1.24714e-06
6.61008e-06
-1.13708e-06
6.63273e-06
-1.0095e-06
6.6611e-06
-8.6639e-07
6.69556e-06
-7.0704e-07
6.73585e-06
-5.30985e-07
6.78182e-06
-3.38274e-07
6.83187e-06
-1.29221e-07
6.88092e-06
9.18229e-08
6.92376e-06
3.11606e-07
6.95593e-06
5.17487e-07
6.97369e-06
6.99285e-07
6.97641e-06
8.50429e-07
6.96731e-06
9.66859e-07
6.94643e-06
1.04718e-06
6.90823e-06
1.09214e-06
6.85057e-06
1.1007e-06
6.77423e-06
1.07797e-06
6.68984e-06
1.02188e-06
6.60792e-06
9.41658e-07
6.53658e-06
8.44279e-07
6.48031e-06
7.32531e-07
6.4401e-06
6.07988e-07
6.41532e-06
4.72119e-07
6.40456e-06
3.2563e-07
6.40592e-06
1.69294e-07
4.24917e-09
-1.12819e-06
-1.37035e-06
-1.5525e-06
-1.66748e-06
-1.73039e-06
-1.74285e-06
-1.69039e-06
-1.48696e-06
-1.12553e-06
-6.40444e-07
-6.66902e-08
5.09897e-07
1.08244e-06
1.61032e-06
2.07063e-06
2.43987e-06
2.71003e-06
2.8813e-06
2.95702e-06
2.96251e-06
2.94553e-06
2.95472e-06
3.03852e-06
3.24279e-06
3.56622e-06
3.96397e-06
4.38717e-06
4.7951e-06
5.16208e-06
5.47242e-06
5.71895e-06
5.90132e-06
6.0241e-06
6.09079e-06
6.10935e-06
6.06743e-06
5.96341e-06
5.80998e-06
5.62807e-06
5.44208e-06
5.27161e-06
5.13059e-06
5.04064e-06
5.00773e-06
5.02958e-06
5.10126e-06
5.21686e-06
5.36727e-06
5.53795e-06
5.71513e-06
5.88531e-06
6.03665e-06
6.15795e-06
6.24364e-06
6.29309e-06
6.3035e-06
6.27183e-06
6.21357e-06
6.14641e-06
6.08334e-06
6.03526e-06
6.0135e-06
6.02333e-06
6.06383e-06
6.13122e-06
6.22081e-06
6.32735e-06
6.44225e-06
6.55297e-06
6.6512e-06
6.73022e-06
6.78597e-06
6.81655e-06
6.82322e-06
6.80536e-06
6.75747e-06
6.68086e-06
6.59193e-06
6.50296e-06
6.42138e-06
6.35333e-06
6.30394e-06
6.27504e-06
6.26645e-06
6.2768e-06
6.30432e-06
6.3471e-06
6.40202e-06
6.46254e-06
6.5231e-06
6.57889e-06
6.6267e-06
6.66505e-06
6.6929e-06
6.70946e-06
6.71297e-06
6.70142e-06
6.68198e-06
6.66186e-06
6.64648e-06
6.63847e-06
6.63848e-06
6.64751e-06
6.66597e-06
6.69301e-06
6.72756e-06
6.76717e-06
6.80712e-06
6.84308e-06
6.87084e-06
6.88795e-06
6.89401e-06
6.89113e-06
6.88281e-06
6.86645e-06
6.83553e-06
6.79535e-06
6.75157e-06
6.7105e-06
6.67606e-06
6.6505e-06
6.6353e-06
6.62986e-06
6.63291e-06
1.66242e-07
-5.9563e-09
6.76361e-06
2.51221e-06
4.02597e-07
2.08973e-06
4.22481e-07
1.66815e-06
4.2158e-07
1.27134e-06
3.96806e-07
9.11776e-07
3.59563e-07
5.93882e-07
3.17895e-07
3.16374e-07
2.77508e-07
6.97722e-08
2.46601e-07
-1.52114e-07
2.21887e-07
-3.29856e-07
1.77742e-07
-3.95733e-07
6.58761e-08
-3.3653e-07
-5.92025e-08
-1.73078e-07
-1.63452e-07
5.6975e-08
-2.30053e-07
3.05615e-07
-2.4864e-07
5.30374e-07
-2.2476e-07
7.11565e-07
-1.81191e-07
8.49574e-07
-1.38008e-07
9.12916e-07
-6.33421e-08
8.39622e-07
7.32942e-08
6.18937e-07
2.20685e-07
2.75514e-07
3.43423e-07
-1.41794e-07
4.17308e-07
-5.76286e-07
4.34492e-07
-9.61496e-07
3.8521e-07
-1.24992e-06
2.88427e-07
-1.41135e-06
1.61425e-07
-1.43523e-06
2.38797e-08
-1.35522e-06
-8.00077e-08
-1.18042e-06
-1.74802e-07
-9.48181e-07
-2.32236e-07
-6.94238e-07
-2.53943e-07
-4.45981e-07
-2.48257e-07
-2.21262e-07
-2.24719e-07
-3.06274e-08
-1.90635e-07
1.2054e-07
-1.51168e-07
2.30521e-07
-1.0998e-07
3.00106e-07
-6.95858e-08
3.29537e-07
-2.94311e-08
3.23651e-07
5.88585e-09
2.84936e-07
3.87157e-08
2.17493e-07
6.74428e-08
1.29111e-07
8.83813e-08
2.9584e-08
9.95274e-08
-7.02184e-08
9.98024e-08
-1.63007e-07
9.27882e-08
-2.39589e-07
7.65826e-08
-2.91251e-07
5.16617e-08
-3.10941e-07
1.96904e-08
-2.99825e-07
-1.11162e-08
-2.56225e-07
-4.36001e-08
-1.8141e-07
-7.48151e-08
-8.33612e-08
-9.80487e-08
2.71203e-08
-1.10481e-07
1.4076e-07
-1.1364e-07
2.45921e-07
-1.05161e-07
3.31455e-07
-8.55342e-08
3.87929e-07
-5.6474e-08
4.08879e-07
-2.095e-08
3.96413e-07
1.24665e-08
3.51834e-07
4.45788e-08
2.83276e-07
6.85579e-08
2.02711e-07
8.05653e-08
1.23352e-07
7.93589e-08
5.81011e-08
6.52506e-08
1.61135e-08
4.19875e-08
2.80945e-09
1.33039e-08
1.23557e-08
-9.54626e-09
3.79947e-08
-2.56389e-08
7.36855e-08
-3.56908e-08
1.11677e-07
-3.79913e-08
1.46192e-07
-3.4515e-08
1.73143e-07
-2.69511e-08
1.89757e-07
-1.66135e-08
1.94172e-07
-4.41591e-09
1.88257e-07
5.91493e-09
1.71976e-07
1.62819e-08
1.47829e-07
2.41466e-08
1.1958e-07
2.82488e-08
9.11707e-08
2.84097e-08
6.6405e-08
2.47658e-08
4.79236e-08
1.84813e-08
3.69689e-08
1.09547e-08
3.29945e-08
3.97444e-09
3.44018e-08
-1.40721e-09
4.06882e-08
-6.28631e-09
5.13453e-08
-1.06572e-08
6.5747e-08
-1.44016e-08
8.34699e-08
-1.77229e-08
1.04193e-07
-2.07234e-08
1.27583e-07
-2.33896e-08
1.53314e-07
-2.57315e-08
1.80979e-07
-2.76644e-08
2.10103e-07
-2.91243e-08
2.40092e-07
-2.99889e-08
2.70291e-07
-3.01999e-08
3.00039e-07
-2.97475e-08
3.2871e-07
-2.8671e-08
3.55668e-07
-2.6958e-08
3.80266e-07
-2.45983e-08
4.01899e-07
-2.16323e-08
4.20012e-07
-1.81135e-08
4.34198e-07
-1.41862e-08
4.4421e-07
-1.00119e-08
4.49897e-07
-5.68703e-09
4.51133e-07
-1.2357e-09
4.48712e-07
2.42075e-09
4.42527e-07
6.18525e-09
4.33066e-07
9.46137e-09
4.20929e-07
1.21371e-08
4.06742e-07
1.41871e-08
3.91089e-07
1.56524e-08
3.74462e-07
1.66273e-08
3.57224e-07
1.72377e-08
3.39636e-07
1.75886e-08
3.21893e-07
1.77429e-08
3.04179e-07
1.77138e-08
2.86724e-07
1.74546e-08
2.69864e-07
1.68602e-08
2.54073e-07
1.5791e-08
2.39976e-07
1.40975e-08
2.28297e-07
1.16794e-08
2.19885e-07
8.41196e-09
2.15642e-07
4.24226e-09
1.28354e-11
6.15718e-06
6.63745e-07
5.87307e-06
7.06586e-07
5.55912e-06
7.35532e-07
5.21124e-06
7.44689e-07
4.83995e-06
7.30849e-07
4.46101e-06
6.96836e-07
4.09277e-06
6.45751e-07
3.76055e-06
5.78821e-07
3.48802e-06
4.94417e-07
3.28476e-06
3.80994e-07
3.09579e-06
2.54851e-07
2.89728e-06
1.39308e-07
2.66448e-06
6.93431e-08
2.38755e-06
4.68802e-08
2.09596e-06
4.29554e-08
1.84791e-06
2.32842e-08
1.68788e-06
-2.11575e-08
1.61298e-06
-6.31155e-08
1.57515e-06
-2.55101e-08
1.5067e-06
1.41745e-07
1.2964e-06
4.30987e-07
9.4875e-07
6.91073e-07
5.30908e-07
8.35149e-07
1.19659e-07
8.45742e-07
-2.44299e-07
7.49168e-07
-5.19336e-07
5.63465e-07
-6.72892e-07
3.1498e-07
-6.95893e-07
4.68811e-08
-6.10956e-07
-1.64945e-07
-4.42538e-07
-3.4322e-07
-2.22594e-07
-4.5218e-07
1.61293e-08
-4.92666e-07
2.45157e-07
-4.77285e-07
4.43416e-07
-4.22978e-07
6.02547e-07
-3.49766e-07
7.2094e-07
-2.6956e-07
7.994e-07
-1.8844e-07
8.38956e-07
-1.09143e-07
8.41687e-07
-3.21616e-08
8.10284e-07
3.72883e-08
7.4648e-07
1.0252e-07
6.58766e-07
1.55157e-07
5.56716e-07
1.90431e-07
4.49589e-07
2.06654e-07
3.44882e-07
2.0451e-07
2.52942e-07
1.84728e-07
1.81038e-07
1.48487e-07
1.34552e-07
9.81474e-08
1.19101e-07
3.51419e-08
1.35755e-07
-2.77707e-08
1.86068e-07
-9.39125e-08
2.64321e-07
-1.53068e-07
3.63741e-07
-1.97469e-07
4.76291e-07
-2.23031e-07
5.91568e-07
-2.28917e-07
7.0061e-07
-2.14203e-07
7.92913e-07
-1.77837e-07
8.5811e-07
-1.21671e-07
8.89282e-07
-5.21227e-08
8.84141e-07
1.76074e-08
8.45262e-07
8.34582e-08
7.82598e-07
1.31222e-07
7.09098e-07
1.54065e-07
6.3925e-07
1.49207e-07
5.84398e-07
1.20102e-07
5.54195e-07
7.21907e-08
5.4972e-07
1.77791e-08
5.66586e-07
-2.64121e-08
6.00494e-07
-5.9547e-08
6.41649e-07
-7.68461e-08
6.83065e-07
-7.94073e-08
7.1955e-07
-7.09995e-08
7.47761e-07
-5.51625e-08
7.65431e-07
-3.42837e-08
7.7201e-07
-1.09948e-08
7.67233e-07
1.06923e-08
7.5356e-07
2.99549e-08
7.34121e-07
4.35851e-08
7.12439e-07
4.9931e-08
6.92262e-07
4.85867e-08
6.76648e-07
4.03801e-08
6.67767e-07
2.73625e-08
6.66163e-07
1.25585e-08
6.70607e-07
-4.70029e-10
6.80444e-07
-1.12438e-08
6.94753e-07
-2.05949e-08
7.12664e-07
-2.85681e-08
7.33872e-07
-3.56096e-08
7.58192e-07
-4.20431e-08
7.85303e-07
-4.78345e-08
8.14831e-07
-5.29177e-08
8.46345e-07
-5.72457e-08
8.79442e-07
-6.07615e-08
9.13656e-07
-6.3338e-08
9.48373e-07
-6.47062e-08
9.82853e-07
-6.46794e-08
1.01638e-06
-6.32726e-08
1.04832e-06
-6.06123e-08
1.07809e-06
-5.67335e-08
1.10514e-06
-5.16399e-08
1.12886e-06
-4.53563e-08
1.14869e-06
-3.7946e-08
1.16426e-06
-2.97486e-08
1.17538e-06
-2.11322e-08
1.18201e-06
-1.23207e-08
1.18416e-06
-3.38855e-09
1.18215e-06
4.43765e-09
1.17633e-06
1.19993e-08
1.16736e-06
1.84289e-08
1.15596e-06
2.35448e-08
1.14282e-06
2.73189e-08
1.12862e-06
2.98583e-08
1.11387e-06
3.13733e-08
1.09899e-06
3.21242e-08
1.08421e-06
3.23606e-08
1.06971e-06
3.22517e-08
1.05558e-06
3.18367e-08
1.04201e-06
3.10227e-08
1.02927e-06
2.96038e-08
1.01772e-06
2.73414e-08
1.00787e-06
2.39524e-08
1.0004e-06
1.91481e-08
9.96057e-07
1.27515e-08
9.95634e-07
4.66545e-09
-3.9483e-09
7.44832e-06
8.19889e-07
7.27415e-06
8.80764e-07
7.08277e-06
9.26912e-07
6.87623e-06
9.51225e-07
6.6586e-06
9.48477e-07
6.43751e-06
9.17926e-07
6.22198e-06
8.61284e-07
6.02072e-06
7.80083e-07
5.83794e-06
6.77191e-07
5.66275e-06
5.56186e-07
5.49269e-06
4.24915e-07
5.33445e-06
2.9755e-07
5.19453e-06
2.09254e-07
5.07492e-06
1.66491e-07
4.95357e-06
1.64304e-07
4.78069e-06
1.96173e-07
4.49376e-06
2.65771e-07
4.0609e-06
3.69744e-07
3.55323e-06
4.82161e-07
3.08992e-06
6.05053e-07
2.73192e-06
7.88989e-07
2.41265e-06
1.01034e-06
2.07654e-06
1.17126e-06
1.71958e-06
1.2027e-06
1.36813e-06
1.10062e-06
1.0628e-06
8.68795e-07
8.45868e-07
5.3191e-07
7.51094e-07
1.41655e-07
7.55245e-07
-1.69096e-07
8.44893e-07
-4.32868e-07
9.91146e-07
-5.98433e-07
1.16566e-06
-6.67183e-07
1.34754e-06
-6.59162e-07
1.51236e-06
-5.87801e-07
1.64171e-06
-4.79107e-07
1.72308e-06
-3.50934e-07
1.75453e-06
-2.19893e-07
1.74561e-06
-1.00219e-07
1.70738e-06
6.06648e-09
1.64424e-06
1.00426e-07
1.56381e-06
1.82954e-07
1.47075e-06
2.48219e-07
1.37121e-06
2.89968e-07
1.27171e-06
3.06151e-07
1.17832e-06
2.97907e-07
1.09931e-06
2.63735e-07
1.04048e-06
2.07319e-07
1.00624e-06
1.32386e-07
1.00345e-06
3.79334e-08
1.02697e-06
-5.12898e-08
1.07668e-06
-1.43624e-07
1.14452e-06
-2.20907e-07
1.22313e-06
-2.76083e-07
1.30714e-06
-3.07038e-07
1.39355e-06
-3.15331e-07
1.48231e-06
-3.02963e-07
1.57077e-06
-2.66292e-07
1.65147e-06
-2.02377e-07
1.71597e-06
-1.16618e-07
1.7509e-06
-1.7322e-08
1.75552e-06
7.88355e-08
1.73359e-06
1.53149e-07
1.69318e-06
1.94475e-07
1.6428e-06
1.99593e-07
1.58847e-06
1.74432e-07
1.54697e-06
1.13685e-07
1.52636e-06
3.83925e-08
1.52613e-06
-2.61825e-08
1.54243e-06
-7.58463e-08
1.57031e-06
-1.04723e-07
1.60408e-06
-1.13177e-07
1.63959e-06
-1.06511e-07
1.6723e-06
-8.78719e-08
1.69644e-06
-5.84278e-08
1.70977e-06
-2.4319e-08
1.71276e-06
7.69452e-09
1.70619e-06
3.65315e-08
1.69204e-06
5.77308e-08
1.6734e-06
6.85695e-08
1.65359e-06
6.8402e-08
1.63588e-06
5.80838e-08
1.62344e-06
3.98026e-08
1.61708e-06
1.8922e-08
1.61614e-06
4.73408e-10
1.6195e-06
-1.46092e-08
1.62662e-06
-2.77097e-08
1.63748e-06
-3.9429e-08
1.65272e-06
-5.08482e-08
1.67302e-06
-6.23457e-08
1.6984e-06
-7.3214e-08
1.72821e-06
-8.27302e-08
1.76137e-06
-9.04064e-08
1.79668e-06
-9.60669e-08
1.83294e-06
-9.96006e-08
1.86885e-06
-1.00612e-07
1.9032e-06
-9.90292e-08
1.93513e-06
-9.52087e-08
1.96431e-06
-8.97918e-08
1.9906e-06
-8.30213e-08
2.01381e-06
-7.48521e-08
2.03372e-06
-6.52634e-08
2.05006e-06
-5.42837e-08
2.06268e-06
-4.23694e-08
2.07165e-06
-3.01095e-08
2.07721e-06
-1.7876e-08
2.07933e-06
-5.51149e-09
2.0776e-06
6.16977e-09
2.07224e-06
1.73604e-08
2.06369e-06
2.69824e-08
2.05254e-06
3.46884e-08
2.03946e-06
4.04006e-08
2.02507e-06
4.42453e-08
2.00992e-06
4.65282e-08
1.9944e-06
4.76465e-08
1.97877e-06
4.79845e-08
1.96321e-06
4.78167e-08
1.94781e-06
4.72363e-08
1.93271e-06
4.61201e-08
1.91815e-06
4.41664e-08
1.90451e-06
4.09792e-08
1.89244e-06
3.60266e-08
1.88269e-06
2.88953e-08
1.8761e-06
1.9336e-08
1.87359e-06
7.184e-09
-6.26532e-09
7.86077e-06
9.3586e-07
7.72758e-06
1.01395e-06
7.57819e-06
1.07631e-06
7.4149e-06
1.11451e-06
7.24083e-06
1.12255e-06
7.06279e-06
1.09596e-06
6.89036e-06
1.03371e-06
6.73145e-06
9.39e-07
6.59031e-06
8.18325e-07
6.46554e-06
6.80953e-07
6.35566e-06
5.34796e-07
6.26002e-06
3.93195e-07
6.18418e-06
2.8509e-07
6.12723e-06
2.23442e-07
6.08571e-06
2.05826e-07
6.05042e-06
2.31463e-07
6.00852e-06
3.07669e-07
5.92962e-06
4.4865e-07
5.75555e-06
6.56226e-07
5.44919e-06
9.11409e-07
5.05468e-06
1.18351e-06
4.66208e-06
1.40293e-06
4.31118e-06
1.52216e-06
3.98917e-06
1.52471e-06
3.66092e-06
1.42887e-06
3.3402e-06
1.18952e-06
3.0452e-06
8.26907e-07
2.79052e-06
3.96338e-07
2.6308e-06
-9.38183e-09
2.53044e-06
-3.32509e-07
2.48084e-06
-5.48826e-07
2.47403e-06
-6.6038e-07
2.50575e-06
-6.90881e-07
2.57205e-06
-6.54096e-07
2.66339e-06
-5.70448e-07
2.75979e-06
-4.47336e-07
2.84326e-06
-3.03366e-07
2.89653e-06
-1.5349e-07
2.90191e-06
6.93917e-10
2.85195e-06
1.50381e-07
2.76141e-06
2.735e-07
2.65487e-06
3.5475e-07
2.55202e-06
3.92824e-07
2.46173e-06
3.96444e-07
2.3866e-06
3.73031e-07
2.33897e-06
3.11367e-07
2.32544e-06
2.20844e-07
2.34748e-06
1.10348e-07
2.40216e-06
-1.67427e-08
2.48416e-06
-1.33292e-07
2.56839e-06
-2.2786e-07
2.63988e-06
-2.92391e-07
2.69102e-06
-3.27221e-07
2.72101e-06
-3.37034e-07
2.73554e-06
-3.29861e-07
2.74159e-06
-3.09009e-07
2.74932e-06
-2.7402e-07
2.76973e-06
-2.22789e-07
2.8101e-06
-1.56991e-07
2.86205e-06
-6.92686e-08
2.91096e-06
2.99253e-08
2.94333e-06
1.20778e-07
2.95479e-06
1.8302e-07
2.94161e-06
2.12772e-07
2.90194e-06
2.14093e-07
2.84306e-06
1.72566e-07
2.77804e-06
1.0342e-07
2.72336e-06
2.84928e-08
2.68485e-06
-3.73346e-08
2.66407e-06
-8.39446e-08
2.66278e-06
-1.11889e-07
2.67993e-06
-1.23654e-07
2.71308e-06
-1.21026e-07
2.75608e-06
-1.01433e-07
2.79903e-06
-6.72638e-08
2.8296e-06
-2.2881e-08
2.8454e-06
2.07398e-08
2.84877e-06
5.43554e-08
2.84225e-06
7.50942e-08
2.82806e-06
8.25837e-08
2.80835e-06
7.7797e-08
2.78683e-06
6.13248e-08
2.76567e-06
4.00826e-08
2.74625e-06
1.98892e-08
2.72903e-06
2.61479e-09
2.71418e-06
-1.28627e-08
2.70316e-06
-2.84047e-08
2.69827e-06
-4.59644e-08
2.70187e-06
-6.59377e-08
2.71525e-06
-8.65947e-08
2.73859e-06
-1.06073e-07
2.77087e-06
-1.22689e-07
2.81033e-06
-1.35522e-07
2.85468e-06
-1.43954e-07
2.90062e-06
-1.46555e-07
2.94481e-06
-1.43217e-07
2.98463e-06
-1.35028e-07
3.0186e-06
-1.23757e-07
3.04568e-06
-1.10103e-07
3.06526e-06
-9.44312e-08
3.07757e-06
-7.75804e-08
3.08319e-06
-5.98972e-08
3.08326e-06
-4.2441e-08
3.07918e-06
-2.60294e-08
3.07245e-06
-1.1151e-08
3.06417e-06
2.77028e-09
3.05454e-06
1.57985e-08
3.04408e-06
2.78277e-08
3.03263e-06
3.84336e-08
3.01986e-06
4.74574e-08
3.00544e-06
5.48174e-08
2.98916e-06
6.05206e-08
2.97097e-06
6.47255e-08
2.95093e-06
6.76883e-08
2.92922e-06
6.96878e-08
2.90612e-06
7.09239e-08
2.88193e-06
7.14252e-08
2.85707e-06
7.09791e-08
2.83208e-06
6.91577e-08
2.80772e-06
6.53334e-08
2.78504e-06
5.87051e-08
2.76533e-06
4.86047e-08
2.74995e-06
3.47169e-08
2.74002e-06
1.71157e-08
-3.59307e-09
8.05124e-06
1.04116e-06
7.92297e-06
1.14222e-06
7.77334e-06
1.22594e-06
7.60686e-06
1.28099e-06
7.42986e-06
1.29955e-06
7.24944e-06
1.27638e-06
7.07328e-06
1.20987e-06
6.90979e-06
1.10249e-06
6.76751e-06
9.60607e-07
6.65212e-06
7.96343e-07
6.56527e-06
6.21645e-07
6.50664e-06
4.51821e-07
6.47901e-06
3.12726e-07
6.48132e-06
2.21128e-07
6.51564e-06
1.7151e-07
6.58025e-06
1.66852e-07
6.66562e-06
2.223e-07
6.76653e-06
3.47737e-07
6.88138e-06
5.41376e-07
6.98751e-06
8.05278e-07
7.04233e-06
1.12869e-06
7.02611e-06
1.41916e-06
6.95177e-06
1.5965e-06
6.83199e-06
1.64449e-06
6.65409e-06
1.60677e-06
6.4075e-06
1.4361e-06
6.09876e-06
1.13565e-06
5.72541e-06
7.69686e-07
5.32222e-06
3.93807e-07
4.93131e-06
5.84063e-08
4.58488e-06
-2.024e-07
4.29331e-06
-3.68811e-07
4.05708e-06
-4.54648e-07
3.87731e-06
-4.74325e-07
3.75309e-06
-4.46235e-07
3.68309e-06
-3.77336e-07
3.66498e-06
-2.8525e-07
3.69094e-06
-1.7945e-07
3.74551e-06
-5.38744e-08
3.8048e-06
9.10858e-08
3.84654e-06
2.31763e-07
3.86412e-06
3.37166e-07
3.86228e-06
3.94662e-07
3.84747e-06
4.11259e-07
3.8275e-06
3.92997e-07
3.81572e-06
3.23154e-07
3.82121e-06
2.15355e-07
3.8489e-06
8.26557e-08
3.89452e-06
-6.23616e-08
3.94474e-06
-1.83512e-07
3.99377e-06
-2.76892e-07
4.04557e-06
-3.44189e-07
4.10663e-06
-3.88282e-07
4.17742e-06
-4.07821e-07
4.25053e-06
-4.02979e-07
4.30938e-06
-3.6786e-07
4.33856e-06
-3.03195e-07
4.33484e-06
-2.19067e-07
4.30848e-06
-1.30631e-07
4.27516e-06
-3.59492e-08
4.24595e-06
5.91294e-08
4.23409e-06
1.3264e-07
4.2289e-06
1.8821e-07
4.21356e-06
2.28114e-07
4.17911e-06
2.4854e-07
4.11163e-06
2.40049e-07
4.01235e-06
2.02693e-07
3.89349e-06
1.47355e-07
3.77267e-06
8.34923e-08
3.66749e-06
2.12344e-08
3.59011e-06
-3.45164e-08
3.54641e-06
-7.99467e-08
3.53768e-06
-1.12299e-07
3.56409e-06
-1.27839e-07
3.62063e-06