/*--------------------------------*- C++ -*----------------------------------*\
| =========                 |                                                 |
| \\      /  F ield         | OpenFOAM: The Open Source CFD Toolbox           |
|  \\    /   O peration     | Version:  2206                                  |
|   \\  /    A nd           | Website:  www.openfoam.com                      |
|    \\/     M anipulation  |                                                 |
\*---------------------------------------------------------------------------*/
FoamFile
{
    version     2.0;
    format      ascii;
    arch        "LSB;label=32;scalar=64";
    class       volVectorField;
    location    "18.0999";
    object      ddtCorrDdt0(U);
}
// * * * * * * * * * * * * * * * * * * * * * * * * * * * * * * * * * * * * * //

dimensions      [0 1 -2 0 0 0 0];

internalField   nonuniform List<vector> 
3080
(
(-15.7342 135.559 0)
(-9.35998 124.046 0)
(-2.61421 109.221 0)
(4.25099 92.1792 0)
(10.9642 74.0361 0)
(17.2188 55.7282 0)
(23.5482 37.8754 0)
(31.3959 20.2218 0)
(37.963 3.61201 0)
(43.9676 -8.99261 0)
(48.48 -18.1376 0)
(51.2514 -24.6356 0)
(52.2998 -29.6878 0)
(51.7074 -34.6167 0)
(49.7389 -40.3806 0)
(46.7272 -47.3648 0)
(42.9198 -55.426 0)
(38.4408 -64.1278 0)
(33.3314 -72.9154 0)
(27.6092 -81.1915 0)
(21.3254 -88.3527 0)
(14.5905 -93.8062 0)
(7.60768 -96.9199 0)
(0.681678 -96.8887 0)
(-5.88143 -94.5034 0)
(-11.8948 -89.8249 0)
(-17.1716 -83.0661 0)
(-21.5643 -74.5816 0)
(-25.0011 -64.8265 0)
(-27.4956 -54.2847 0)
(-29.1422 -43.3903 0)
(-30.064 -32.408 0)
(-30.7049 -21.3013 0)
(-31.698 -9.47232 0)
(-31.9882 3.3029 0)
(-32.0593 16.2257 0)
(-31.9048 29.1068 0)
(-31.4859 41.7419 0)
(-30.9287 53.9996 0)
(-30.2219 65.7562 0)
(-29.299 76.8196 0)
(-28.0928 86.8929 0)
(-26.5256 95.4858 0)
(-24.4027 101.714 0)
(-21.1893 103.879 0)
(-16.9686 101.964 0)
(-12.1696 96.9213 0)
(-6.86985 89.0464 0)
(-1.22218 78.8597 0)
(4.55769 67.0421 0)
(10.2112 54.3002 0)
(15.5018 41.222 0)
(21.014 28.2003 0)
(27.2196 14.9425 0)
(32.2415 2.47814 0)
(36.5589 -7.65288 0)
(39.5406 -15.782 0)
(41.0799 -22.2351 0)
(41.2502 -27.5662 0)
(40.1992 -32.4344 0)
(38.1772 -37.3668 0)
(35.431 -42.6323 0)
(32.1262 -48.2437 0)
(28.3487 -54.045 0)
(24.1404 -59.7648 0)
(19.531 -65.0466 0)
(14.5764 -69.4819 0)
(9.36616 -72.5895 0)
(4.05613 -73.6682 0)
(-1.10935 -72.7258 0)
(-5.95985 -70.0493 0)
(-10.365 -65.7016 0)
(-14.1949 -59.8688 0)
(-17.3554 -52.8389 0)
(-19.8143 -44.9582 0)
(-21.595 -36.5657 0)
(-22.7766 -27.9275 0)
(-23.6476 -19.1079 0)
(-24.7405 -9.75826 0)
(-25.4339 0.367709 0)
(-25.7486 10.6337 0)
(-25.8345 20.832 0)
(-25.5677 30.713 0)
(-25.0847 40.1112 0)
(-24.4469 48.9373 0)
(-23.6572 57.0974 0)
(-22.7062 64.4541 0)
(-21.5537 70.7489 0)
(-20.0558 75.4488 0)
(-17.7574 77.4193 0)
(-14.6059 76.3779 0)
(-10.9158 73.1141 0)
(-6.75606 67.819 0)
(-2.26945 60.8203 0)
(2.35603 52.5507 0)
(6.91323 43.5024 0)
(11.2272 34.1502 0)
(15.4585 24.8013 0)
(20.2195 15.274 0)
(24.2913 5.70683 0)
(27.7942 -2.47203 0)
(30.3354 -9.36406 0)
(31.731 -15.1212 0)
(32.0307 -19.9855 0)
(31.3297 -24.3205 0)
(29.8053 -28.4657 0)
(27.6618 -32.6382 0)
(25.0599 -36.8945 0)
(22.1014 -41.1748 0)
(18.8464 -45.3376 0)
(15.3324 -49.1754 0)
(11.5923 -52.4274 0)
(7.68523 -54.769 0)
(3.71132 -55.6849 0)
(-0.165996 -55.11 0)
(-3.82615 -53.2768 0)
(-7.18209 -50.2159 0)
(-10.1389 -46.0381 0)
(-12.6227 -40.9271 0)
(-14.6053 -35.1206 0)
(-16.0977 -28.8675 0)
(-17.1398 -22.3723 0)
(-17.9096 -15.7124 0)
(-18.8151 -8.68105 0)
(-15.6844 128.672 0)
(-7.79999 116.761 0)
(0.284311 101.806 0)
(8.27508 84.8827 0)
(15.8231 66.9846 0)
(22.9372 48.8488 0)
(31.1338 30.6808 0)
(39.3364 12.3508 0)
(46.3481 -2.85021 0)
(52.1728 -13.9987 0)
(56.1353 -21.5061 0)
(58.2209 -26.2407 0)
(58.4716 -29.5789 0)
(57.0715 -32.9712 0)
(54.3317 -37.5018 0)
(50.6155 -43.5862 0)
(46.1835 -50.976 0)
(41.1551 -59.0765 0)
(35.5642 -67.2738 0)
(29.4245 -74.9844 0)
(22.7732 -81.6537 0)
(15.6996 -86.7534 0)
(8.38283 -89.7494 0)
(1.10715 -89.9356 0)
(-5.82928 -87.9747 0)
(-12.2584 -83.9211 0)
(-18.0014 -77.9538 0)
(-22.9136 -70.3689 0)
(-26.9245 -61.5443 0)
(-30.0448 -51.8776 0)
(-32.357 -41.7122 0)
(-34.0097 -31.2137 0)
(-35.4371 -20.2853 0)
(-36.9339 -8.57264 0)
(-37.5976 3.79089 0)
(-38.0853 16.3277 0)
(-38.1816 28.9016 0)
(-37.8909 41.2837 0)
(-37.2912 53.2993 0)
(-36.3627 64.7813 0)
(-35.0594 75.512 0)
(-33.3418 85.1795 0)
(-31.1286 93.2368 0)
(-28.079 98.6256 0)
(-23.6138 99.4469 0)
(-18.2428 96.8853 0)
(-12.2433 91.2731 0)
(-5.77333 83.0102 0)
(0.943148 72.6544 0)
(7.63113 60.8779 0)
(14.0027 48.2944 0)
(20.2719 35.3821 0)
(27.3377 22.1997 0)
(33.5121 8.89038 0)
(38.8593 -2.24321 0)
(42.8971 -11.0886 0)
(45.3393 -17.8088 0)
(46.251 -22.8326 0)
(45.7411 -26.8576 0)
(44.0338 -30.624 0)
(41.4274 -34.7104 0)
(38.1927 -39.3617 0)
(34.4798 -44.5 0)
(30.3423 -49.8744 0)
(25.8007 -55.1871 0)
(20.8781 -60.0993 0)
(15.6214 -64.2307 0)
(10.1094 -67.1453 0)
(4.4903 -68.2435 0)
(-0.998007 -67.5223 0)
(-6.19059 -65.2111 0)
(-10.9617 -61.3655 0)
(-15.1863 -56.1443 0)
(-18.7774 -49.7887 0)
(-21.7067 -42.5807 0)
(-23.9994 -34.7827 0)
(-25.7454 -26.5683 0)
(-27.2515 -17.9403 0)
(-28.7954 -8.69406 0)
(-29.6741 1.08426 0)
(-30.2982 10.9519 0)
(-30.5481 20.7924 0)
(-30.3876 30.3733 0)
(-29.9134 39.524 0)
(-29.1685 48.1328 0)
(-28.1676 56.0834 0)
(-26.9104 63.2072 0)
(-25.3382 69.1678 0)
(-23.1787 73.2564 0)
(-19.9197 74.1364 0)
(-15.8617 72.5065 0)
(-11.1858 68.6928 0)
(-6.03888 63.0239 0)
(-0.678254 55.855 0)
(4.65737 47.5823 0)
(9.80378 38.7088 0)
(14.7611 29.5557 0)
(20.1203 20.1315 0)
(25.2466 10.4226 0)
(29.5351 1.82552 0)
(32.8794 -5.32439 0)
(34.9708 -11.1266 0)
(35.8502 -15.7494 0)
(35.5984 -19.5593 0)
(34.3609 -22.9871 0)
(32.3585 -26.4171 0)
(29.8199 -30.0693 0)
(26.8951 -33.95 0)
(23.6552 -37.9261 0)
(20.137 -41.8168 0)
(16.3648 -45.4116 0)
(12.3771 -48.4665 0)
(8.22406 -50.6803 0)
(3.99831 -51.6095 0)
(-0.138117 -51.1864 0)
(-4.06839 -49.603 0)
(-7.70853 -46.8892 0)
(-10.9695 -43.143 0)
(-13.7825 -38.5183 0)
(-16.1113 -33.203 0)
(-17.9643 -27.3887 0)
(-19.4099 -21.2212 0)
(-20.6474 -14.7222 0)
(-21.9069 -7.76029 0)
(-15.249 120.263 0)
(-5.97744 108.117 0)
(3.31804 93.2188 0)
(12.2816 76.5717 0)
(20.6393 58.9846 0)
(29.2964 40.8769 0)
(39.0119 22.0028 0)
(47.2655 4.37146 0)
(54.5881 -9.20676 0)
(59.9997 -18.6334 0)
(63.2966 -24.2205 0)
(64.5042 -27.0043 0)
(63.538 -28.4693 0)
(61.3007 -30.4745 0)
(57.9439 -33.974 0)
(53.6723 -39.2683 0)
(48.548 -45.9405 0)
(42.9839 -53.507 0)
(36.9653 -61.2067 0)
(30.4671 -68.4181 0)
(23.5268 -74.6427 0)
(16.2138 -79.4171 0)
(8.67518 -82.2928 0)
(1.17463 -82.6947 0)
(-6.01017 -81.1174 0)
(-12.7356 -77.6371 0)
(-18.8373 -72.4005 0)
(-24.1789 -65.6505 0)
(-28.6916 -57.6926 0)
(-32.3818 -48.8436 0)
(-35.3167 -39.3526 0)
(-37.68 -29.3111 0)
(-39.8313 -18.6272 0)
(-41.6818 -7.2162 0)
(-42.8007 4.63582 0)
(-43.6085 16.7217 0)
(-43.8996 28.8761 0)
(-43.695 40.8541 0)
(-43.0259 52.4602 0)
(-41.8704 63.5072 0)
(-40.2087 73.7728 0)
(-38.0238 82.9111 0)
(-35.1747 90.2184 0)
(-31.0557 94.2292 0)
(-25.4377 93.9882 0)
(-18.9377 90.6411 0)
(-11.7632 84.4645 0)
(-4.17627 75.8993 0)
(3.51904 65.4994 0)
(10.9885 53.8399 0)
(18.1818 41.416 0)
(25.9542 28.5391 0)
(33.5606 15.0033 0)
(40.0392 2.93247 0)
(45.298 -6.76121 0)
(48.7858 -14.0656 0)
(50.504 -19.1695 0)
(50.5734 -22.6597 0)
(49.0914 -25.3094 0)
(46.7572 -28.129 0)
(43.7128 -31.5625 0)
(40.0929 -35.7128 0)
(35.9745 -40.3785 0)
(31.5344 -45.3708 0)
(26.7296 -50.3154 0)
(21.5726 -54.8817 0)
(16.0991 -58.7204 0)
(10.381 -61.4445 0)
(4.55925 -62.5609 0)
(-1.14271 -62.0433 0)
(-6.57373 -60.073 0)
(-11.6168 -56.697 0)
(-16.156 -52.0465 0)
(-20.1131 -46.3167 0)
(-23.4634 -39.7274 0)
(-26.2331 -32.4697 0)
(-28.5338 -24.6485 0)
(-30.6161 -16.255 0)
(-32.4363 -7.28308 0)
(-33.6085 2.02479 0)
(-34.4613 11.4603 0)
(-34.84 20.8857 0)
(-34.7602 30.0814 0)
(-34.2825 38.888 0)
(-33.4397 47.1828 0)
(-32.2514 54.8273 0)
(-30.7047 61.5941 0)
(-28.6661 67.0135 0)
(-25.6446 70.0652 0)
(-21.4555 70.047 0)
(-16.5094 67.702 0)
(-10.8475 63.2781 0)
(-4.72196 57.3111 0)
(1.39711 50.1416 0)
(7.28215 41.9986 0)
(12.9844 33.2668 0)
(19.0737 24.1303 0)
(25.2195 14.4688 0)
(30.405 5.52392 0)
(34.6505 -1.88574 0)
(37.5091 -7.82 0)
(38.9874 -12.3531 0)
(39.1857 -15.767 0)
(38.1802 -18.4776 0)
(36.3915 -21.0802 0)
(34.0424 -23.9501 0)
(31.2382 -27.2049 0)
(28.0262 -30.7248 0)
(24.5592 -34.4139 0)
(20.8465 -38.0574 0)
(16.8973 -41.4281 0)
(12.7367 -44.2924 0)
(8.4115 -46.3797 0)
(4.01361 -47.3225 0)
(-0.301813 -47.0428 0)
(-4.42588 -45.6964 0)
(-8.27952 -43.3085 0)
(-11.7798 -39.9625 0)
(-14.8664 -35.7867 0)
(-17.5132 -30.9302 0)
(-19.7298 -25.5278 0)
(-21.581 -19.662 0)
(-23.2471 -13.3456 0)
(-24.7455 -6.58169 0)
(-14.4462 110.499 0)
(-3.9177 98.266 0)
(6.45049 83.5799 0)
(16.2287 67.2518 0)
(25.7318 49.89 0)
(36.5955 31.4722 0)
(46.3875 12.3122 0)
(55.3316 -3.60486 0)
(62.4884 -15.3759 0)
(67.3173 -22.6959 0)
(69.7498 -25.999 0)
(69.5135 -26.5269 0)
(67.6841 -26.4604 0)
(64.5741 -27.286 0)
(60.4519 -29.782 0)
(55.5526 -34.2353 0)
(50.0296 -40.4181 0)
(43.8832 -47.4631 0)
(37.4863 -54.7546 0)
(30.7275 -61.5681 0)
(23.5899 -67.4151 0)
(16.1353 -71.9042 0)
(8.48179 -74.6682 0)
(0.86979 -75.2794 0)
(-6.45327 -74.0436 0)
(-13.3695 -71.0784 0)
(-19.7317 -66.5011 0)
(-25.4134 -60.507 0)
(-30.3505 -53.3365 0)
(-34.5467 -45.2339 0)
(-38.0644 -36.3524 0)
(-41.1 -26.752 0)
(-43.8516 -16.4261 0)
(-45.9462 -5.48463 0)
(-47.4824 5.79948 0)
(-48.5297 17.3578 0)
(-48.9636 28.9757 0)
(-48.7965 40.4103 0)
(-48.0292 51.4641 0)
(-46.6521 61.9496 0)
(-44.6694 71.6375 0)
(-42.0506 80.1011 0)
(-38.4859 86.3972 0)
(-33.1916 88.685 0)
(-26.5503 87.4193 0)
(-18.9149 83.2211 0)
(-10.568 76.5329 0)
(-1.95318 67.7886 0)
(6.51424 57.4069 0)
(14.6944 45.9091 0)
(23.2627 33.7067 0)
(32.1676 20.4081 0)
(39.9181 7.63115 0)
(46.5641 -2.86256 0)
(51.3017 -10.8698 0)
(54.0002 -16.3211 0)
(54.7005 -19.5809 0)
(53.5156 -21.4344 0)
(51.3659 -23.0907 0)
(48.4409 -25.1784 0)
(44.934 -28.0045 0)
(40.9732 -31.6656 0)
(36.6273 -36.0128 0)
(31.8838 -40.61 0)
(26.9042 -45.2276 0)
(21.6136 -49.4841 0)
(16.0166 -53.0467 0)
(10.1871 -55.5863 0)
(4.26391 -56.7234 0)
(-1.55398 -56.3869 0)
(-7.13105 -54.7245 0)
(-12.3621 -51.7744 0)
(-17.1433 -47.6415 0)
(-21.4066 -42.4766 0)
(-25.1305 -36.4407 0)
(-28.3464 -29.6641 0)
(-31.1699 -22.2181 0)
(-33.7158 -14.1557 0)
(-35.6878 -5.61015 0)
(-37.1581 3.17829 0)
(-38.1771 12.135 0)
(-38.662 21.0804 0)
(-38.6415 29.8169 0)
(-38.1536 38.1987 0)
(-37.2278 46.0956 0)
(-35.872 53.3343 0)
(-34.0072 59.5917 0)
(-31.3023 64.2177 0)
(-27.143 65.8864 0)
(-22.0434 65.0837 0)
(-16.2712 61.9393 0)
(-9.76116 56.7707 0)
(-2.87826 50.7699 0)
(3.78833 43.9591 0)
(10.1972 35.8311 0)
(17.0205 27.0841 0)
(24.2101 17.6337 0)
(30.4084 8.51284 0)
(35.6188 0.898471 0)
(39.3164 -5.17227 0)
(41.4451 -9.67727 0)
(42.1044 -12.8041 0)
(41.2864 -14.9325 0)
(39.6981 -16.8012 0)
(37.5026 -18.8272 0)
(34.843 -21.2234 0)
(31.8105 -24.069 0)
(28.4678 -27.3215 0)
(24.8332 -30.7486 0)
(20.9918 -34.1486 0)
(16.9478 -37.3092 0)
(12.6906 -39.9867 0)
(8.26636 -41.9493 0)
(3.76833 -42.9001 0)
(-0.655521 -42.7472 0)
(-4.90704 -41.6166 0)
(-8.91589 -39.5285 0)
(-12.607 -36.5499 0)
(-15.9279 -32.7802 0)
(-18.8575 -28.3285 0)
(-21.4114 -23.2878 0)
(-23.6633 -17.7162 0)
(-25.6885 -11.6572 0)
(-27.2964 -5.21162 0)
(-13.1986 99.5023 0)
(-1.54695 87.3111 0)
(9.68641 72.9251 0)
(20.3451 56.9009 0)
(31.8487 39.4892 0)
(43.6264 20.3181 0)
(54.1456 2.57183 0)
(63.2275 -11.5201 0)
(69.8733 -21.0992 0)
(73.8478 -25.858 0)
(74.806 -26.4841 0)
(73.4503 -24.995 0)
(70.6308 -23.5065 0)
(66.6313 -23.2704 0)
(61.7836 -24.9494 0)
(56.3045 -28.7203 0)
(50.3247 -34.3294 0)
(43.9184 -41.0964 0)
(37.1351 -48.0112 0)
(30.2075 -54.5216 0)
(22.9829 -60.068 0)
(15.4825 -64.3117 0)
(7.81463 -66.98 0)
(0.191992 -67.7932 0)
(-7.17398 -66.8567 0)
(-14.1861 -64.345 0)
(-20.7207 -60.3497 0)
(-26.6614 -55.0243 0)
(-31.9507 -48.5522 0)
(-36.5871 -41.0992 0)
(-40.6454 -32.7677 0)
(-44.2641 -23.6327 0)
(-47.3655 -13.8 0)
(-49.7209 -3.47114 0)
(-51.5679 7.21862 0)
(-52.7753 18.1679 0)
(-53.2938 29.1408 0)
(-53.1132 39.9162 0)
(-52.2264 50.3065 0)
(-50.6428 60.1304 0)
(-48.3716 69.1223 0)
(-45.2915 76.6895 0)
(-40.7362 81.4334 0)
(-34.3643 82.194 0)
(-26.7724 79.7945 0)
(-18.0284 74.6546 0)
(-8.50881 67.5402 0)
(0.934646 58.8055 0)
(9.95843 48.5393 0)
(19.2127 37.2475 0)
(29.289 24.5785 0)
(38.4773 11.5067 0)
(46.6308 0.393984 0)
(52.7874 -8.28093 0)
(56.63 -14.1913 0)
(58.1594 -17.453 0)
(57.3114 -18.7194 0)
(55.3153 -19.3691 0)
(52.4298 -20.2128 0)
(48.942 -21.7136 0)
(45.032 -24.0868 0)
(40.7819 -27.3432 0)
(36.2411 -31.3332 0)
(31.4293 -35.724 0)
(26.3267 -40.0266 0)
(21.0021 -43.9955 0)
(15.392 -47.3033 0)
(9.54866 -49.6721 0)
(3.6133 -50.8255 0)
(-2.23588 -50.6471 0)
(-7.87919 -49.256 0)
(-13.2275 -46.6805 0)
(-18.1895 -42.9994 0)
(-22.7056 -38.3203 0)
(-26.7608 -32.7559 0)
(-30.3909 -26.4063 0)
(-33.6563 -19.3651 0)
(-36.4261 -11.7479 0)
(-38.5809 -3.75046 0)
(-40.2724 4.51187 0)
(-41.4088 12.9414 0)
(-41.9786 21.3499 0)
(-42.0019 29.5718 0)
(-41.5076 37.4695 0)
(-40.5155 44.8911 0)
(-38.9811 51.5845 0)
(-36.6469 57.039 0)
(-32.8268 60.1596 0)
(-27.5784 60.7417 0)
(-21.4929 59.1298 0)
(-14.8962 55.3544 0)
(-6.5102 50.1149 0)
(-2.03769 43.77 0)
(6.67187 36.955 0)
(14.3314 28.6604 0)
(22.3331 19.628 0)
(29.6575 10.5483 0)
(35.8651 2.87805 0)
(40.3961 -3.24942 0)
(43.182 -7.70506 0)
(44.301 -10.5774 0)
(43.7041 -12.215 0)
(42.2645 -13.4175 0)
(40.1687 -14.6689 0)
(37.6065 -16.2333 0)
(34.7075 -18.2576 0)
(31.5392 -20.7897 0)
(28.1263 -23.7601 0)
(24.4802 -26.9908 0)
(20.5906 -30.1761 0)
(16.5182 -33.1228 0)
(12.2471 -35.6197 0)
(7.80086 -37.4499 0)
(3.27579 -38.4064 0)
(-1.19718 -38.3678 0)
(-5.52332 -37.4301 0)
(-9.64196 -35.6071 0)
(-13.4873 -32.9487 0)
(-17.013 -29.5272 0)
(-20.2019 -25.4216 0)
(-23.0701 -20.7033 0)
(-25.6523 -15.4429 0)
(-27.8576 -9.72997 0)
(-29.5935 -3.70584 0)
(-11.3287 87.4104 0)
(1.27679 75.4295 0)
(13.1091 61.2191 0)
(25.3452 45.3664 0)
(38.7333 27.293 0)
(50.9123 8.57864 0)
(62.0258 -7.3173 0)
(70.7127 -19.1564 0)
(76.4744 -25.964 0)
(78.9932 -27.6746 0)
(78.2865 -25.6301 0)
(75.8833 -22.3729 0)
(72.0559 -19.6169 0)
(67.2387 -18.4699 0)
(61.7664 -19.4987 0)
(55.8373 -22.7627 0)
(49.5462 -27.9291 0)
(42.9375 -34.366 0)
(36.0275 -41.1353 0)
(28.9412 -47.378 0)
(21.7278 -52.6954 0)
(14.2863 -56.7446 0)
(6.70127 -59.337 0)
(-0.852998 -60.3312 0)
(-8.18426 -59.6415 0)
(-15.2059 -57.5143 0)
(-21.8345 -54.0165 0)
(-27.9669 -49.2635 0)
(-33.545 -43.3902 0)
(-38.5658 -36.5014 0)
(-43.0808 -28.7063 0)
(-47.0584 -20.1176 0)
(-50.2914 -10.8966 0)
(-52.957 -1.22757 0)
(-54.9737 8.82556 0)
(-56.2722 19.0765 0)
(-56.814 29.3101 0)
(-56.5814 39.335 0)
(-55.5894 48.9835 0)
(-53.8691 58.0746 0)
(-51.3506 66.2429 0)
(-47.5673 72.6035 0)
(-41.5667 75.2956 0)
(-34.1415 74.8168 0)
(-25.615 71.138 0)
(-16.0117 64.7606 0)
(-5.7612 57.4786 0)
(4.30531 49.2665 0)
(14.0066 39.1355 0)
(25.1067 27.286 0)
(35.8336 14.1964 0)
(45.5819 2.71727 0)
(53.2521 -6.48363 0)
(58.3528 -12.8351 0)
(60.8008 -16.1983 0)
(60.3806 -17.045 0)
(58.5104 -16.8117 0)
(55.6088 -16.5055 0)
(52.046 -16.7239 0)
(48.092 -17.7964 0)
(43.8987 -19.8584 0)
(39.5212 -22.8678 0)
(34.9401 -26.6081 0)
(30.1316 -30.7446 0)
(25.0777 -34.8492 0)
(19.7828 -38.5337 0)
(14.2579 -41.5967 0)
(8.49608 -43.7945 0)
(2.62254 -44.9517 0)
(-3.19195 -44.8895 0)
(-8.83373 -43.7179 0)
(-14.2397 -41.4527 0)
(-19.3332 -38.1465 0)
(-24.0613 -33.8775 0)
(-28.412 -28.7363 0)
(-32.3791 -22.8189 0)
(-35.837 -16.2324 0)
(-38.7185 -9.16346 0)
(-41.0964 -1.73521 0)
(-42.9078 5.98334 0)
(-44.1318 13.8387 0)
(-44.7677 21.6715 0)
(-44.8324 29.342 0)
(-44.351 36.7073 0)
(-43.3029 43.5557 0)
(-41.4893 49.4661 0)
(-38.2686 53.5036 0)
(-33.3342 55.0508 0)
(-27.186 54.5428 0)
(-20.1968 52.1402 0)
(-12.2508 48.221 0)
(-4.21491 43.0286 0)
(1.21491 36.4453 0)
(12.0756 28.8403 0)
(20.3022 20.2452 0)
(28.3688 11.5051 0)
(35.5312 3.97891 0)
(40.8189 -2.07905 0)
(44.1755 -6.41773 0)
(45.6943 -9.0345 0)
(45.2894 -10.2339 0)
(43.946 -10.8303 0)
(41.9009 -11.3605 0)
(39.3971 -12.1416 0)
(36.6136 -13.3799 0)
(33.6332 -15.1691 0)
(30.4718 -17.4884 0)
(27.1091 -20.231 0)
(23.5219 -23.2225 0)
(19.7085 -26.2301 0)
(15.6681 -28.9598 0)
(11.4537 -31.2679 0)
(7.05865 -32.9645 0)
(2.55738 -33.9069 0)
(-1.92384 -33.9511 0)
(-6.28616 -33.1581 0)
(-10.4801 -31.5501 0)
(-14.4543 -29.1623 0)
(-18.1666 -26.0476 0)
(-21.592 -22.2661 0)
(-24.708 -17.8795 0)
(-27.4194 -12.9604 0)
(-29.7223 -7.66603 0)
(-31.643 -2.07262 0)
(-8.7592 73.9749 0)
(4.62568 62.5778 0)
(17.2906 48.7814 0)
(31.7622 32.3728 0)
(45.8758 13.5957 0)
(59.0981 -3.33983 0)
(69.9051 -17.0032 0)
(77.5289 -25.9268 0)
(81.6933 -29.3539 0)
(81.8244 -27.7089 0)
(79.865 -23.4738 0)
(76.3014 -18.6985 0)
(71.5833 -14.8791 0)
(66.1237 -13.0141 0)
(60.2294 -13.574 0)
(54.0793 -16.513 0)
(47.7089 -21.3851 0)
(41.0784 -27.5277 0)
(34.1839 -34.1335 0)
(27.0578 -40.241 0)
(19.8979 -45.3829 0)
(12.6031 -49.2889 0)
(5.18524 -51.8154 0)
(-2.22172 -52.9104 0)
(-9.47896 -52.5182 0)
(-16.4665 -50.669 0)
(-23.1324 -47.5697 0)
(-29.395 -43.2977 0)
(-35.1947 -37.9402 0)
(-40.4974 -31.5924 0)
(-45.2026 -24.34 0)
(-49.2678 -16.3719 0)
(-52.7327 -7.8381 0)
(-55.5416 1.18393 0)
(-57.6398 10.5308 0)
(-58.9698 20.0106 0)
(-59.4935 29.448 0)
(-59.2208 38.6903 0)
(-58.1979 47.5877 0)
(-56.4061 55.8718 0)
(-53.4554 62.8348 0)
(-48.2396 66.8736 0)
(-41.032 67.9363 0)
(-32.3441 66.1409 0)
(-22.7131 61.5697 0)
(-10.8296 55.1077 0)
(-3.9257 47.1456 0)
(7.89278 39.0586 0)
(20.4438 28.1309 0)
(32.3051 15.27 0)
(43.7781 3.70377 0)
(52.9647 -5.71834 0)
(59.2427 -12.3364 0)
(62.538 -15.7603 0)
(62.5503 -16.2677 0)
(60.7409 -15.261 0)
(57.7678 -13.9019 0)
(54.0629 -12.9036 0)
(49.9904 -12.7113 0)
(45.7856 -13.5791 0)
(41.5327 -15.524 0)
(37.2119 -18.3915 0)
(32.7509 -21.9369 0)
(28.0815 -25.8439 0)
(23.1795 -29.7295 0)
(18.0329 -33.1879 0)
(12.6657 -36.0029 0)
(7.07042 -38.0245 0)
(1.33462 -39.1264 0)
(-4.40436 -39.2074 0)
(-10.0195 -38.1954 0)
(-15.4487 -36.1693 0)
(-20.6333 -33.1713 0)
(-25.519 -29.2542 0)
(-30.0207 -24.476 0)
(-34.0665 -18.987 0)
(-37.6394 -12.9601 0)
(-40.6829 -6.46265 0)
(-43.1615 0.416673 0)
(-45.051 7.55011 0)
(-46.3424 14.8043 0)
(-47.0451 22.0498 0)
(-47.1764 29.1517 0)
(-46.7148 35.9276 0)
(-45.4778 42.0141 0)
(-42.8615 46.5803 0)
(-38.3705 48.8275 0)
(-32.4694 49.0897 0)
(-25.3531 47.4543 0)
(-17.5182 44.2934 0)
(-8.74932 40.1807 0)
(-0.776225 34.7537 0)
(8.71708 28.0069 0)
(18.2731 19.6771 0)
(26.949 11.2945 0)
(34.7182 4.15916 0)
(40.6331 -1.66384 0)
(44.4244 -5.77861 0)
(46.1953 -8.0837 0)
(45.8687 -8.85531 0)
(44.5518 -8.90262 0)
(42.5096 -8.78411 0)
(40.0483 -8.86942 0)
(37.369 -9.39361 0)
(34.5668 -10.4724 0)
(31.6678 -12.1209 0)
(28.6467 -14.2754 0)
(25.4507 -16.8144 0)
(22.028 -19.5717 0)
(18.3566 -22.3442 0)
(14.4515 -24.8977 0)
(10.3382 -26.9976 0)
(6.0531 -28.5396 0)
(1.63648 -29.4096 0)
(-2.81207 -29.5284 0)
(-7.20189 -28.8707 0)
(-11.4671 -27.437 0)
(-15.5528 -25.2728 0)
(-19.3872 -22.4029 0)
(-22.9202 -18.9014 0)
(-26.1154 -14.8641 0)
(-28.9408 -10.3744 0)
(-31.376 -5.4946 0)
(-33.4075 -0.30047 0)
(-7.0084 60.0933 0)
(7.32612 49.3497 0)
(23.8888 34.8365 0)
(39.4993 16.5885 0)
(55.11 -0.630097 0)
(68.097 -15.2064 0)
(77.403 -25.6948 0)
(82.819 -30.8407 0)
(83.8058 -30.3249 0)
(82.0023 -25.9921 0)
(78.6139 -20.0356 0)
(74.0568 -14.0894 0)
(68.7448 -9.4757 0)
(63.0059 -7.15314 0)
(57.0608 -7.48767 0)
(51.0117 -10.2668 0)
(44.8337 -14.9272 0)
(38.4224 -20.7855 0)
(31.6984 -27.1439 0)
(24.6955 -33.1914 0)
(17.5911 -38.2023 0)
(10.4753 -42.0094 0)
(3.27587 -44.5065 0)
(-3.91007 -45.6471 0)
(-11.007 -45.3978 0)
(-17.9377 -43.8473 0)
(-24.6024 -41.0898 0)
(-30.9113 -37.2089 0)
(-36.7783 -32.3051 0)
(-42.126 -26.4888 0)
(-46.8944 -19.8699 0)
(-51.0505 -12.55 0)
(-54.5691 -4.64533 0)
(-57.4115 3.68304 0)
(-59.5196 12.2588 0)
(-60.8372 20.9228 0)
(-61.3534 29.5503 0)
(-61.1168 38.0303 0)
(-60.1464 46.1498 0)
(-58.1527 53.3213 0)
(-54.0553 58.1349 0)
(-47.6374 60.1033 0)
(-39.2048 59.4001 0)
(-29.415 56.2291 0)
(-18.5361 51.268 0)
(-6.77656 44.9338 0)
(0.401439 36.7561 0)
(16.7098 27.1706 0)
(29.7221 14.4083 0)
(41.9042 3.24547 0)
(52.3112 -6.03887 0)
(59.4706 -12.6655 0)
(63.2834 -16.0059 0)
(63.4813 -16.1689 0)
(61.6223 -14.5115 0)
(58.5036 -12.2336 0)
(54.6193 -10.1205 0)
(50.4201 -8.74447 0)
(46.1878 -8.45792 0)
(42.0431 -9.34583 0)
(37.9853 -11.298 0)
(33.9278 -14.0949 0)
(29.7526 -17.4786 0)
(25.3601 -21.1659 0)
(20.7067 -24.8156 0)
(15.7982 -28.0555 0)
(10.6447 -30.6197 0)
(5.27358 -32.455 0)
(-0.253912 -33.4613 0)
(-5.83768 -33.544 0)
(-11.3766 -32.6703 0)
(-16.7786 -30.8395 0)
(-21.965 -28.0868 0)
(-26.8637 -24.4887 0)
(-31.4009 -20.1437 0)
(-35.5101 -15.1563 0)
(-39.1402 -9.62663 0)
(-42.2444 -3.66332 0)
(-44.7784 2.63063 0)
(-46.7209 9.16212 0)
(-48.0832 15.8283 0)
(-48.8813 22.5007 0)
(-49.0681 29.0027 0)
(-48.4176 35.008 0)
(-46.289 39.7064 0)
(-42.1556 42.3334 0)
(-36.4259 43.1203 0)
(-29.246 42.056 0)
(-21.1175 39.4717 0)
(-12.5015 35.7183 0)
(-3.61124 31.0985 0)
(6.0692 25.6177 0)
(16.3548 18.15 0)
(25.7879 10.1816 0)
(33.8989 3.43234 0)
(40.0303 -1.95099 0)
(43.9649 -5.67127 0)
(45.6984 -7.57016 0)
(45.2877 -7.91261 0)
(43.8843 -7.47499 0)
(41.8013 -6.82215 0)
(39.3696 -6.32663 0)
(36.7936 -6.22548 0)
(34.1787 -6.66285 0)
(31.5553 -7.68527 0)
(28.8983 -9.25547 0)
(26.1449 -11.2762 0)
(23.218 -13.6156 0)
(20.049 -16.1251 0)
(16.6011 -18.639 0)
(12.8838 -20.9623 0)
(8.93306 -22.8789 0)
(4.79187 -24.253 0)
(0.51495 -25.0344 0)
(-3.83664 -25.127 0)
(-8.19254 -24.5092 0)
(-12.4792 -23.2013 0)
(-16.6151 -21.2367 0)
(-20.5204 -18.6582 0)
(-24.1252 -15.5114 0)
(-27.3868 -11.8454 0)
(-30.2879 -7.72061 0)
(-32.8145 -3.21708 0)
(-34.9448 1.5743 0)
(-3.93929 46.2392 0)
(17.0882 34.4482 0)
(35.2028 16.6428 0)
(51.8418 0.0333785 0)
(66.5812 -14.4301 0)
(77.0335 -25.486 0)
(82.9274 -31.6973 0)
(83.9562 -32.3256 0)
(81.7656 -28.627 0)
(78.0821 -22.5223 0)
(73.4778 -15.4861 0)
(68.3867 -8.8496 0)
(63.0603 -3.85783 0)
(57.6185 -1.35734 0)
(52.1375 -1.61099 0)
(46.6244 -4.31695 0)
(40.9951 -8.81591 0)
(35.096 -14.3688 0)
(28.7852 -20.3686 0)
(22.0431 -26.2539 0)
(15.008 -31.1792 0)
(8.03146 -34.9202 0)
(1.0472 -37.4334 0)
(-5.88258 -38.6314 0)
(-12.7409 -38.4717 0)
(-19.5077 -37.0809 0)
(-26.0827 -34.592 0)
(-32.3404 -31.0997 0)
(-38.1676 -26.6951 0)
(-43.4676 -21.454 0)
(-48.1797 -15.4384 0)
(-52.2783 -8.73572 0)
(-55.7466 -1.48567 0)
(-58.551 6.13992 0)
(-60.6418 13.9668 0)
(-61.9768 21.8556 0)
(-62.5616 29.7371 0)
(-62.4177 37.4901 0)
(-61.3063 44.6163 0)
(-58.1595 49.7905 0)
(-52.4945 52.2688 0)
(-44.6197 52.1017 0)
(-34.9735 49.5329 0)
(-24.1337 45.3343 0)
(-12.0388 40.1032 0)
(-0.976215 33.543 0)
(13.7268 24.5852 0)
(27.6745 12.1391 0)
(40.5749 1.35061 0)
(51.2702 -7.31324 0)
(58.7478 -13.5915 0)
(62.6219 -16.6585 0)
(62.5305 -16.4115 0)
(60.4622 -14.2471 0)
(57.1186 -11.2598 0)
(53.0915 -8.24667 0)
(48.8586 -5.84656 0)
(44.6944 -4.48463 0)
(40.7404 -4.34597 0)
(37.0123 -5.39168 0)
(33.4256 -7.42208 0)
(29.8385 -10.1655 0)
(26.1037 -13.3641 0)
(22.1091 -16.7894 0)
(17.8033 -20.1689 0)
(13.1973 -23.1598 0)
(8.30367 -25.4694 0)
(3.19629 -27.1249 0)
(-2.08207 -28.0249 0)
(-7.45558 -28.0745 0)
(-12.8408 -27.254 0)
(-18.1303 -25.5739 0)
(-23.2272 -23.0683 0)
(-28.0548 -19.7969 0)
(-32.5477 -15.8341 0)
(-36.6483 -11.273 0)
(-40.3004 -6.2289 0)
(-43.4392 -0.811168 0)
(-46.0098 4.90422 0)
(-48.0055 10.8606 0)
(-49.4461 16.9668 0)
(-50.2655 23.052 0)
(-50.1394 28.7022 0)
(-48.2628 33.1063 0)
(-44.3201 35.7574 0)
(-38.6321 36.7228 0)
(-31.3606 35.9555 0)
(-23.027 33.7986 0)
(-14.1826 30.54 0)
(-5.18326 26.5547 0)
(4.74408 21.9195 0)
(15.1465 15.0877 0)
(24.8834 8.06721 0)
(33.0685 1.98978 0)
(39.0332 -2.79221 0)
(42.6685 -5.91145 0)
(43.952 -7.25629 0)
(43.2664 -7.17345 0)
(41.6621 -6.35508 0)
(39.5023 -5.31645 0)
(37.1008 -4.38212 0)
(34.6585 -3.78414 0)
(32.2765 -3.68605 0)
(29.9816 -4.1613 0)
(27.7417 -5.19693 0)
(25.4841 -6.71561 0)
(23.1166 -8.6016 0)
(20.547 -10.7249 0)
(17.7 -12.9594 0)
(14.5329 -15.1823 0)
(11.0475 -17.2383 0)
(7.28476 -18.9306 0)
(3.30975 -20.1155 0)
(-0.784012 -20.7748 0)
(-4.96973 -20.806 0)
(-9.22616 -20.2102 0)
(-13.4847 -19.0094 0)
(-17.6388 -17.2261 0)
(-21.5818 -14.8942 0)
(-25.2265 -12.0436 0)
(-28.5269 -8.70428 0)
(-31.4747 -4.93346 0)
(-34.062 -0.820873 0)
(-36.255 3.54392 0)
(13.0313 31.1933 0)
(33.0341 13.9624 0)
(50.9056 -1.81931 0)
(66.0435 -15.0193 0)
(76.6181 -25.4063 0)
(81.9469 -31.576 0)
(81.6964 -32.6532 0)
(78.4529 -29.8728 0)
(73.7662 -24.5196 0)
(68.5341 -17.6773 0)
(63.412 -10.3752 0)
(58.6373 -3.71815 0)
(54.1286 1.23823 0)
(49.7422 3.71602 0)
(45.3793 3.47695 0)
(40.9389 0.866887 0)
(36.2791 -3.40505 0)
(31.2227 -8.55113 0)
(25.6116 -13.9934 0)
(19.37 -19.4658 0)
(12.5325 -24.3224 0)
(5.57022 -27.9533 0)
(-1.27292 -30.58 0)
(-7.94061 -31.9012 0)
(-14.5126 -31.7443 0)
(-21.0787 -30.4763 0)
(-27.5044 -28.2406 0)
(-33.6394 -25.1098 0)
(-39.3471 -21.1725 0)
(-44.4928 -16.475 0)
(-49.0042 -11.0402 0)
(-52.8869 -4.94147 0)
(-56.1805 1.66555 0)
(-58.9138 8.59747 0)
(-61.0758 15.6738 0)
(-62.5824 22.7852 0)
(-63.2875 29.9408 0)
(-62.8727 36.7583 0)
(-60.2088 41.8792 0)
(-54.7972 44.5019 0)
(-46.8611 44.7006 0)
(-36.9169 42.6014 0)
(-25.7583 38.5208 0)
(-14.3101 33.3484 0)
(-1.96618 27.813 0)
(12.8069 19.866 0)
(27.4098 8.9857 0)
(40.5901 -0.981164 0)
(50.7989 -9.14914 0)
(57.4274 -14.7675 0)
(60.2301 -17.189 0)
(59.2309 -16.5103 0)
(56.5587 -14.0314 0)
(52.8453 -10.6709 0)
(48.7348 -7.12842 0)
(44.6299 -3.98723 0)
(40.7474 -1.7253 0)
(37.1984 -0.635104 0)
(33.9938 -0.782337 0)
(31.0469 -2.03555 0)
(28.2 -4.13455 0)
(25.2696 -6.78608 0)
(22.0959 -9.75212 0)
(18.573 -12.8617 0)
(14.6562 -15.9141 0)
(10.366 -18.5951 0)
(5.74419 -20.6021 0)
(0.924155 -22.0581 0)
(-4.05211 -22.8149 0)
(-9.16983 -22.7607 0)
(-14.3439 -21.9708 0)
(-19.4346 -20.4348 0)
(-24.3502 -18.1526 0)
(-29.0277 -15.1656 0)
(-33.4138 -11.5444 0)
(-37.4647 -7.38649 0)
(-41.1291 -2.82157 0)
(-44.3235 2.03328 0)
(-46.9532 7.157 0)
(-48.9541 12.5787 0)
(-50.2036 18.1273 0)
(-50.3337 23.2167 0)
(-48.2915 26.9033 0)
(-44.2687 29.2352 0)
(-38.3589 30.0903 0)
(-30.8694 29.4211 0)
(-22.4146 27.4844 0)
(-13.666 24.6707 0)
(-4.70497 21.4358 0)
(5.41184 17.2569 0)
(15.5465 11.0474 0)
(24.8362 5.14093 0)
(32.3272 0.0830908 0)
(37.4643 -3.80753 0)
(40.2106 -6.13261 0)
(40.5107 -6.82059 0)
(39.392 -6.37399 0)
(37.5197 -5.33794 0)
(35.2799 -4.09799 0)
(32.9545 -2.90993 0)
(30.7166 -1.99113 0)
(28.6506 -1.50931 0)
(26.77 -1.553 0)
(25.0302 -2.13227 0)
(23.3444 -3.19217 0)
(21.6051 -4.63517 0)
(19.7038 -6.34468 0)
(17.5483 -8.20224 0)
(15.071 -10.1027 0)
(12.2368 -11.9679 0)
(9.04545 -13.6967 0)
(5.50566 -15.1146 0)
(1.71566 -16.1797 0)
(-2.16421 -16.8166 0)
(-6.16536 -16.7154 0)
(-10.3258 -15.9842 0)
(-14.5402 -14.7665 0)
(-18.678 -13.1123 0)
(-22.6176 -11.0556 0)
(-26.2485 -8.57579 0)
(-29.5255 -5.61897 0)
(-32.4545 -2.20282 0)
(-35.0016 1.55817 0)
(-37.0466 5.51963 0)
(36.1565 9.27771 0)
(54.4656 -4.94577 0)
(68.356 -16.7373 0)
(76.7617 -25.4113 0)
(79.2627 -30.0079 0)
(76.4568 -30.5444 0)
(71.3721 -28.4756 0)
(65.0596 -24.312 0)
(58.5544 -18.5997 0)
(52.7015 -12.1254 0)
(48.0003 -5.56572 0)
(44.4715 0.392117 0)
(41.7248 4.99931 0)
(39.2991 7.36659 0)
(36.8437 7.14183 0)
(34.1081 4.7148 0)
(30.8968 0.804381 0)
(27.0046 -3.79098 0)
(22.3098 -8.45229 0)
(16.8484 -13.0795 0)
(10.5291 -17.5401 0)
(3.43567 -21.0035 0)
(-2.56131 -23.8752 0)
(-9.78353 -25.4594 0)
(-16.0273 -25.316 0)
(-22.4641 -24.0853 0)
(-28.7422 -22.0138 0)
(-34.6937 -19.2245 0)
(-40.1852 -15.8347 0)
(-45.0514 -11.8324 0)
(-49.2503 -7.11048 0)
(-52.8999 -1.63124 0)
(-56.1607 4.46909 0)
(-59.1004 10.9981 0)
(-61.559 17.7308 0)
(-62.9519 24.2684 0)
(-62.4491 30.1126 0)
(-59.1056 34.3873 0)
(-53.3768 36.6031 0)
(-45.0158 36.4571 0)
(-34.6107 34.2994 0)
(-23.3571 30.8579 0)
(-11.6326 26.6445 0)
(1.85912 21.9446 0)
(16.2361 13.4246 0)
(30.0804 4.25241 0)
(41.9542 -4.0916 0)
(50.313 -10.9239 0)
(54.7329 -15.2877 0)
(54.899 -16.5975 0)
(52.5838 -15.5891 0)
(48.9667 -13.141 0)
(44.8052 -9.92237 0)
(40.6802 -6.42551 0)
(36.9175 -3.07881 0)
(33.6382 -0.286119 0)
(30.8484 1.56425 0)
(28.4994 2.24886 0)
(26.4765 1.78905 0)
(24.6051 0.388053 0)
(22.6823 -1.65987 0)
(20.5238 -4.07025 0)
(17.9972 -6.65316 0)
(15.0244 -9.3146 0)
(11.5628 -11.9426 0)
(7.60008 -14.2742 0)
(3.21287 -16.038 0)
(-1.08123 -17.3132 0)
(-6.14898 -17.9039 0)
(-10.9132 -17.7834 0)
(-15.8138 -17.022 0)
(-20.6481 -15.5967 0)
(-25.3319 -13.4974 0)
(-29.8202 -10.7521 0)
(-34.0787 -7.41751 0)
(-38.0971 -3.57561 0)
(-41.8185 0.640463 0)
(-45.0107 5.06721 0)
(-47.303 9.64611 0)
(-48.4052 14.2039 0)
(-47.8672 18.2315 0)
(-45.3751 21.0654 0)
(-40.913 22.7081 0)
(-34.5184 23.1869 0)
(-26.8419 22.377 0)
(-18.6232 20.6762 0)
(-10.3234 18.526 0)
(-1.35576 16.1698 0)
(8.39189 11.7297 0)
(17.501 6.60169 0)
(25.3561 2.02863 0)
(31.1382 -1.73965 0)
(34.5917 -4.41438 0)
(35.6809 -5.75465 0)
(34.9098 -5.88938 0)
(33.2829 -5.26526 0)
(31.1843 -4.23258 0)
(28.953 -3.01096 0)
(26.816 -1.78995 0)
(24.8985 -0.761234 0)
(23.2536 -0.0791038 0)
(21.8769 0.16352 0)
(20.7103 -0.0640947 0)
(19.6575 -0.733607 0)
(18.6007 -1.76947 0)
(17.4173 -3.07244 0)
(16.0028 -4.54522 0)
(14.281 -6.10286 0)
(12.1955 -7.65881 0)
(9.71711 -9.16245 0)
(6.84646 -10.5669 0)
(3.48944 -11.7157 0)
(0.584096 -12.4338 0)
(-3.77913 -12.7527 0)
(-7.60659 -12.5668 0)
(-11.4979 -11.8629 0)
(-15.6317 -10.7081 0)
(-19.7662 -9.1816 0)
(-23.6831 -7.32802 0)
(-27.1552 -5.10483 0)
(-30.0968 -2.43239 0)
(-32.5601 0.616576 0)
(-34.4972 3.82281 0)
(61.383 -9.44446 0)
(71.1994 -18.0107 0)
(74.5729 -23.5339 0)
(72.0708 -25.7536 0)
(66.6321 -25.6456 0)
(59.319 -24.0763 0)
(51.5944 -21.2296 0)
(44.1639 -17.1019 0)
(37.3376 -12.2534 0)
(31.8426 -7.17138 0)
(28.3151 -2.09094 0)
(26.5591 2.61564 0)
(25.8 6.38316 0)
(25.8791 8.55567 0)
(26.008 8.70275 0)
(25.5996 6.89598 0)
(24.4416 3.7589 0)
(22.2259 0.0252237 0)
(18.8744 -3.77202 0)
(14.5478 -7.41263 0)
(8.91275 -11.4359 0)
(2.38633 -14.8679 0)
(-2.33835 -17.2951 0)
(-10.7493 -18.5542 0)
(-16.6177 -18.7392 0)
(-22.9534 -17.8488 0)