/*--------------------------------*- C++ -*----------------------------------*\
| =========                 |                                                 |
| \\      /  F ield         | OpenFOAM: The Open Source CFD Toolbox           |
|  \\    /   O peration     | Version:  2206                                  |
|   \\  /    A nd           | Website:  www.openfoam.com                      |
|    \\/     M anipulation  |                                                 |
\*---------------------------------------------------------------------------*/
FoamFile
{
    version     2.0;
    format      ascii;
    arch        "LSB;label=32;scalar=64";
    class       surfaceScalarField;
    location    "19.5999";
    object      ddtCorrDdt0(phi);
}
// * * * * * * * * * * * * * * * * * * * * * * * * * * * * * * * * * * * * * //

dimensions      [0 3 -2 0 0 0 0];

oriented        oriented;

internalField   nonuniform List<scalar> 
3547
(
-1.00222e-11
4.82858e-11
-4.49643e-11
-2.24455e-11
1.83788e-10
-1.75721e-10
-4.59051e-11
4.28568e-10
-4.10757e-10
-8.10547e-11
6.97515e-10
-6.65672e-10
-1.33086e-10
9.87697e-10
-9.40972e-10
-2.0023e-10
1.30345e-09
-1.23922e-09
-2.86261e-10
1.63059e-09
-1.54938e-09
-3.87823e-10
1.95963e-09
-1.86019e-09
-5.07686e-10
2.2857e-09
-2.16987e-09
-6.44532e-10
2.60496e-09
-2.47278e-09
-8.01406e-10
2.90586e-09
-2.76218e-09
-9.66672e-10
3.18747e-09
-3.02638e-09
-1.14662e-09
3.43892e-09
-3.2649e-09
-1.33554e-09
3.6641e-09
-3.47549e-09
-1.54189e-09
3.86539e-09
-3.66794e-09
-1.75657e-09
4.04979e-09
-3.84236e-09
-1.9832e-09
4.22989e-09
-4.01233e-09
-2.21522e-09
4.41326e-09
-4.18487e-09
-2.46352e-09
4.61351e-09
-4.37879e-09
-2.71575e-09
4.84252e-09
-4.59817e-09
-2.98158e-09
5.11983e-09
-4.86305e-09
-3.25873e-09
5.4551e-09
-5.18165e-09
-3.55895e-09
5.86595e-09
-5.57361e-09
-3.87568e-09
6.35858e-09
-6.04315e-09
-4.22345e-09
6.94995e-09
-6.60851e-09
-4.59588e-09
7.64657e-09
-7.27289e-09
-5.01033e-09
8.46593e-09
-8.05568e-09
-5.46054e-09
9.41192e-09
-8.95923e-09
-5.97553e-09
1.04985e-08
-9.99993e-09
-6.5434e-09
1.1736e-08
-1.11788e-08
-7.17604e-09
1.31332e-08
-1.25131e-08
-7.88254e-09
1.46999e-08
-1.39976e-08
-8.6753e-09
1.64408e-08
-1.5658e-08
-9.56632e-09
1.83656e-08
-1.74885e-08
-1.05776e-08
2.04733e-08
-1.95045e-08
-1.16834e-08
2.27924e-08
-2.16991e-08
-1.29196e-08
2.5327e-08
-2.41064e-08
-1.42731e-08
2.80999e-08
-2.67395e-08
-1.58052e-08
3.11209e-08
-2.96166e-08
-1.74717e-08
3.4422e-08
-3.27581e-08
-1.93105e-08
3.80313e-08
-3.61827e-08
-2.13457e-08
4.19696e-08
-3.99521e-08
-2.35912e-08
4.62905e-08
-4.40644e-08
-2.6083e-08
5.10234e-08
-4.85844e-08
-2.87944e-08
5.62186e-08
-5.35328e-08
-3.17826e-08
6.1953e-08
-5.89668e-08
-3.50417e-08
6.8216e-08
-6.4974e-08
-3.86325e-08
7.51557e-08
-7.15602e-08
-4.25493e-08
8.27711e-08
-7.88733e-08
-4.68816e-08
9.11779e-08
-8.69136e-08
-5.16059e-08
1.00495e-07
-9.58094e-08
-5.67927e-08
1.10745e-07
-1.05614e-07
-6.2495e-08
1.22097e-07
-1.16427e-07
-6.87029e-08
1.34599e-07
-1.28373e-07
-7.55844e-08
1.48433e-07
-1.41545e-07
-8.30997e-08
1.63674e-07
-1.5614e-07
-9.1474e-08
1.8053e-07
-1.72189e-07
-1.00614e-07
1.99088e-07
-1.89971e-07
-1.10753e-07
2.19549e-07
-2.09459e-07
-1.21927e-07
2.42224e-07
-2.31033e-07
-1.34169e-07
2.67025e-07
-2.54794e-07
-1.47894e-07
2.94722e-07
-2.80963e-07
-1.62866e-07
3.24888e-07
-3.0992e-07
-1.79636e-07
3.58364e-07
-3.41595e-07
-1.9829e-07
3.95264e-07
-3.76653e-07
-2.18657e-07
4.35275e-07
-4.14886e-07
-2.41787e-07
4.80064e-07
-4.5695e-07
-2.66465e-07
5.28091e-07
-5.03375e-07
-2.93145e-07
5.81463e-07
-5.54786e-07
-3.23161e-07
6.41156e-07
-6.11139e-07
-3.56342e-07
7.06936e-07
-6.73801e-07
-3.93029e-07
7.79259e-07
-7.42534e-07
-4.33518e-07
8.5915e-07
-8.18667e-07
-4.78111e-07
9.47106e-07
-9.02464e-07
-5.27296e-07
1.04401e-06
-9.94841e-07
-5.81593e-07
1.15091e-06
-1.09658e-06
-6.41749e-07
1.26868e-06
-1.20855e-06
-7.08435e-07
1.39854e-06
-1.33182e-06
-7.82524e-07
1.54174e-06
-1.46769e-06
-8.64903e-07
1.69986e-06
-1.61752e-06
-9.56646e-07
1.87455e-06
-1.7829e-06
-1.05883e-06
2.06779e-06
-1.9656e-06
-1.17282e-06
2.28165e-06
-2.16771e-06
-1.29978e-06
2.51863e-06
-2.39162e-06
-1.44119e-06
2.78127e-06
-2.63988e-06
-1.59864e-06
3.07252e-06
-2.91507e-06
-1.77408e-06
3.39551e-06
-3.22012e-06
-1.96961e-06
3.75404e-06
-3.55844e-06
-2.18773e-06
4.15232e-06
-3.93417e-06
-2.4307e-06
4.59548e-06
-4.35241e-06
-2.70087e-06
5.08906e-06
-4.81884e-06
-3.00039e-06
5.6399e-06
-5.34026e-06
-3.33101e-06
6.25575e-06
-5.92506e-06
-3.69288e-06
6.94637e-06
-6.58437e-06
-4.08422e-06
7.72403e-06
-7.33265e-06
-4.49245e-06
8.60407e-06
-8.19577e-06
-4.90343e-06
9.6058e-06
-9.19485e-06
-5.26851e-06
1.0767e-05
-1.04018e-05
-5.57528e-06
1.21495e-05
-1.18428e-05
-5.32996e-06
1.38447e-05
-1.40899e-05
-4.45544e-06
1.58936e-05
-1.6768e-05
1.94867e-05
-2.3942e-05
-1.02452e-11
5.43138e-11
-2.17537e-11
1.91779e-10
-4.09401e-11
4.42554e-10
-6.87219e-11
7.2166e-10
-1.10526e-10
1.02302e-09
-1.63753e-10
1.35325e-09
-2.32805e-10
1.69323e-09
-3.14197e-10
2.03801e-09
-4.09592e-10
2.37752e-09
-5.22585e-10
2.70876e-09
-6.47175e-10
3.02345e-09
-7.79928e-10
3.31605e-09
-9.21307e-10
3.57826e-09
-1.0685e-09
3.81546e-09
-1.23405e-09
4.02235e-09
-1.40208e-09
4.21646e-09
-1.58328e-09
4.39864e-09
-1.76705e-09
4.59163e-09
-1.9675e-09
4.79476e-09
-2.16443e-09
5.03877e-09
-2.37615e-09
5.32119e-09
-2.59067e-09
5.67271e-09
-2.82928e-09
6.0909e-09
-3.07646e-09
6.60437e-09
-3.35353e-09
7.20928e-09
-3.64432e-09
7.93649e-09
-3.97535e-09
8.77948e-09
-4.33299e-09
9.76497e-09
-4.74917e-09
1.08889e-08
-5.19401e-09
1.21826e-08
-5.69536e-09
1.36244e-08
-6.24984e-09
1.52587e-08
-6.87258e-09
1.70583e-08
-7.59284e-09
1.90556e-08
-8.39012e-09
2.12461e-08
-9.27252e-09
2.36566e-08
-1.02345e-08
2.62922e-08
-1.13183e-08
2.91669e-08
-1.25222e-08
3.23123e-08
-1.38405e-08
3.57337e-08
-1.52896e-08
3.94832e-08
-1.68838e-08
4.35709e-08
-1.86762e-08
4.80538e-08
-2.06237e-08
5.29592e-08
-2.27677e-08
5.83541e-08
-2.5117e-08
6.42709e-08
-2.7694e-08
7.07807e-08
-3.05232e-08
7.79557e-08
-3.36289e-08
8.583e-08
-3.70295e-08
9.4576e-08
-4.07631e-08
1.04179e-07
-4.48568e-08
1.1483e-07
-4.93343e-08
1.26569e-07
-5.42414e-08
1.39525e-07
-5.96194e-08
1.53865e-07
-6.55739e-08
1.69614e-07
-7.21456e-08
1.87095e-07
-7.93559e-08
2.06237e-07
-8.73535e-08
2.27559e-07
-9.60145e-08
2.50868e-07
-1.05737e-07
2.7678e-07
-1.16312e-07
3.05266e-07
-1.28088e-07
3.36656e-07
-1.41283e-07
3.71485e-07
-1.55624e-07
4.09623e-07
-1.72267e-07
4.51902e-07
-1.90237e-07
4.98071e-07
-2.10568e-07
5.48388e-07
-2.31622e-07
6.02509e-07
-2.55843e-07
6.65293e-07
-2.82109e-07
7.33234e-07
-3.10874e-07
8.08016e-07
-3.42628e-07
8.90961e-07
-3.77771e-07
9.82213e-07
-4.16569e-07
1.08283e-06
-4.59503e-07
1.19377e-06
-5.07025e-07
1.3162e-06
-5.59798e-07
1.45122e-06
-6.18421e-07
1.60032e-06
-6.83678e-07
1.76498e-06
-7.56234e-07
1.94711e-06
-8.37034e-07
2.14854e-06
-9.2698e-07
2.37164e-06
-1.02718e-06
2.61877e-06
-1.13871e-06
2.89279e-06
-1.26293e-06
3.19661e-06
-1.40114e-06
3.53377e-06
-1.55502e-06
3.90793e-06
-1.72623e-06
4.32363e-06
-1.91625e-06
4.78549e-06
-2.1263e-06
5.29916e-06
-2.35716e-06
5.87071e-06
-2.60855e-06
6.50717e-06
-2.87835e-06
7.21609e-06
-3.16145e-06
8.00713e-06
-3.44303e-06
8.88554e-06
-3.70275e-06
9.86556e-06
-3.89204e-06
1.09562e-05
-3.91661e-06
1.21742e-05
-3.55977e-06
1.34879e-05
-2.51697e-06
1.48508e-05
1.69697e-05
-9.01678e-12
5.94255e-11
-2.03584e-11
1.978e-10
-3.44972e-11
4.52304e-10
-5.69453e-11
7.36262e-10
-8.64177e-11
1.04747e-09
-1.27149e-10
1.38524e-09
-1.76682e-10
1.73824e-09
-2.37564e-10
2.09268e-09
-3.08058e-10
2.44442e-09
-3.92957e-10
2.78435e-09
-4.8418e-10
3.11049e-09
-5.83242e-10
3.4087e-09
-6.82994e-10
3.68267e-09
-7.93509e-10
3.92251e-09
-9.11027e-10
4.1373e-09
-1.03625e-09
4.3327e-09
-1.16536e-09
4.52217e-09
-1.30636e-09
4.71375e-09
-1.44736e-09
4.93024e-09
-1.59522e-09
5.17471e-09
-1.74208e-09
5.4706e-09
-1.90152e-09
5.82445e-09
-2.0694e-09
6.25491e-09
-2.25405e-09
6.77112e-09
-2.44878e-09
7.39688e-09
-2.66659e-09
8.1356e-09
-2.90225e-09
9.00829e-09
-3.174e-09
1.00104e-08
-3.46886e-09
1.11798e-08
-3.79783e-09
1.24947e-08
-4.15592e-09
1.3989e-08
-4.55824e-09
1.56587e-08
-5.00935e-09
1.75045e-08
-5.5391e-09
1.95526e-08
-6.11395e-09
2.18056e-08
-6.75849e-09
2.42793e-08
-7.45215e-09
2.69884e-08
-8.24411e-09
2.99373e-08
-9.11219e-09
3.31711e-08
-1.00696e-08
3.66714e-08
-1.11104e-08
4.05432e-08
-1.22628e-08
4.47182e-08
-1.35631e-08
4.93342e-08
-1.49589e-08
5.4348e-08
-1.65262e-08
5.98798e-08
-1.82101e-08
6.59508e-08
-2.00974e-08
7.26037e-08
-2.21358e-08
7.99791e-08
-2.43837e-08
8.80397e-08
-2.68336e-08
9.70222e-08
-2.95342e-08
1.06838e-07
-3.24819e-08
1.17795e-07
-3.57274e-08
1.29779e-07
-3.9235e-08
1.43105e-07
-4.31445e-08
1.57763e-07
-4.73993e-08
1.73892e-07
-5.22026e-08
1.91829e-07
-5.73244e-08
2.11373e-07
-6.31463e-08
2.33317e-07
-6.92879e-08
2.57057e-07
-7.62985e-08
2.83753e-07
-8.37723e-08
3.12756e-07
-9.22434e-08
3.45017e-07
-1.01348e-07
3.80606e-07
-1.11571e-07
4.19777e-07
-1.23087e-07
4.63474e-07
-1.3623e-07
5.11171e-07
-1.52189e-07
5.64362e-07
-1.68591e-07
6.18782e-07
-1.85416e-07
6.82143e-07
-2.04061e-07
7.51808e-07
-2.25037e-07
8.29074e-07
-2.483e-07
9.14184e-07
-2.73858e-07
1.0078e-06
-3.02057e-07
1.11091e-06
-3.33078e-07
1.2248e-06
-3.67444e-07
1.35043e-06
-4.05462e-07
1.48924e-06
-4.47788e-07
1.64247e-06
-4.94752e-07
1.81196e-06
-5.47081e-07
1.99932e-06
-6.05247e-07
2.20678e-06
-6.70137e-07
2.43645e-06
-7.42357e-07
2.69101e-06
-8.2288e-07
2.97312e-06
-9.12367e-07
3.28614e-06
-1.01195e-06
3.63327e-06
-1.12249e-06
4.01861e-06
-1.24527e-06
4.44638e-06
-1.38094e-06
4.92123e-06
-1.5303e-06
5.44839e-06
-1.69317e-06
6.0336e-06
-1.8687e-06
6.68253e-06
-2.05381e-06
7.4012e-06
-2.24146e-06
8.19456e-06
-2.42188e-06
9.06597e-06
-2.57597e-06
1.00195e-05
-2.66847e-06
1.10488e-05
-2.62838e-06
1.21341e-05
-2.37149e-06
1.32311e-05
-1.69323e-06
1.41726e-05
1.52765e-05
-9.80151e-12
-1.95175e-11
-3.03153e-11
4.55899e-10
-4.24504e-11
7.4364e-10
-6.23549e-11
1.05984e-09
-8.75013e-11
1.40605e-09
-1.20642e-10
1.76526e-09
-1.58357e-10
2.1286e-09
-2.05637e-10
2.48629e-09
-2.57807e-10
2.83421e-09
-3.18148e-10
3.1619e-09
-3.76976e-10
3.46827e-09
-4.40777e-10
3.74291e-09
-5.08347e-10
3.98778e-09
-5.8291e-10
4.20527e-09
-6.59429e-10
4.40444e-09
-7.43496e-10
4.59472e-09
-8.2741e-10
4.7942e-09
-9.19161e-10
5.00938e-09
-1.0056e-09
5.26302e-09
-1.09779e-09
5.55991e-09
-1.19223e-09
5.91812e-09
-1.29785e-09
6.35042e-09
-1.40705e-09
6.87873e-09
-1.53117e-09
7.50973e-09
-1.66142e-09
8.26383e-09
-1.81347e-09
9.14449e-09
-1.9797e-09
1.01736e-08
-2.16399e-09
1.13444e-08
-2.35303e-09
1.26868e-08
-2.58173e-09
1.42153e-08
-2.82108e-09
1.59004e-08
-3.10691e-09
1.77747e-08
-3.42153e-09
1.9861e-08
-3.78554e-09
2.21386e-08
-4.17265e-09
2.46664e-08
-4.60125e-09
2.74028e-08
-5.07676e-09
3.04058e-08
-5.6166e-09
3.36789e-08
-6.18787e-09
3.72505e-08
-6.81642e-09
4.11776e-08
-7.52005e-09
4.54001e-08
-8.308e-09
5.01214e-08
-9.16673e-09
5.51617e-08
-1.01079e-08
6.08393e-08
-1.11537e-08
6.69232e-08
-1.22858e-08
7.37521e-08
-1.3548e-08
8.11761e-08
-1.48872e-08
8.94037e-08
-1.64039e-08
9.84927e-08
-1.79928e-08
1.08474e-07
-1.98271e-08
1.1955e-07
-2.17489e-08
1.31774e-07
-2.38854e-08
1.45196e-07
-2.62558e-08
1.60181e-07
-2.88207e-08
1.76381e-07
-3.17334e-08
1.94772e-07
-3.48151e-08
2.14346e-07
-3.83558e-08
2.36923e-07
-4.1949e-08
2.60596e-07
-4.63012e-08
2.88162e-07
-5.05767e-08
3.16932e-07
-5.57645e-08
3.50258e-07
-6.09931e-08
3.85719e-07
-6.66948e-08
4.25556e-07
-7.28522e-08
4.69569e-07
-7.94662e-08
5.17846e-07
-8.80512e-08
5.72827e-07
-1.03428e-07
6.34223e-07
-1.1358e-07
6.92158e-07
-1.247e-07
7.63027e-07
-1.37548e-07
8.41857e-07
-1.51589e-07
9.28308e-07
-1.67153e-07
1.02325e-06
-1.84149e-07
1.12799e-06
-2.02979e-07
1.2435e-06
-2.23676e-07
1.37121e-06
-2.46806e-07
1.51221e-06
-2.7236e-07
1.66809e-06
-3.00919e-07
1.84032e-06
-3.32455e-07
2.03096e-06
-3.67571e-07
2.2418e-06
-4.06431e-07
2.4754e-06
-4.49761e-07
2.73417e-06
-4.97809e-07
3.02127e-06
-5.51431e-07
3.33957e-06
-6.10907e-07
3.6929e-06
-6.77192e-07
4.08484e-06
-7.50543e-07
4.51988e-06
-8.31728e-07
5.00227e-06
-9.20589e-07
5.53738e-06
-1.01715e-06
6.12998e-06
-1.12008e-06
6.78557e-06
-1.22766e-06
7.50855e-06
-1.33537e-06
8.30233e-06
-1.43887e-06
9.16926e-06
-1.52577e-06
1.01065e-05
-1.57794e-06
1.1101e-05
-1.5664e-06
1.21227e-05
-1.45065e-06
1.31153e-05
-1.31995e-06
1.40419e-05
1.39566e-05
-2.48603e-11
-3.02055e-11
-3.75699e-11
-4.78765e-11
-6.0944e-11
-7.81419e-11
-9.81425e-11
-1.22333e-10
-1.45838e-10
-1.70239e-10
-1.93159e-10
-2.20189e-10
-2.4927e-10
-2.80102e-10
-3.11236e-10
-3.45628e-10
-3.76694e-10
-4.0999e-10
-4.4106e-10
-4.75752e-10
-5.1184e-10
-5.53251e-10
-5.95398e-10
-6.45879e-10
-6.994e-10
-7.67377e-10
-8.36106e-10
-9.22684e-10
-9.85765e-10
-1.05564e-09
-1.1727e-09
-1.27078e-09
-1.41956e-09
-1.54096e-09
-1.6992e-09
-1.87478e-09
-2.03779e-09
-2.26381e-09
-2.43455e-09
-2.72321e-09
-2.9619e-09
-3.2854e-09
-3.61869e-09
-3.94927e-09
-4.42746e-09
-4.7437e-09
-5.3648e-09
-5.68855e-09
-6.4253e-09
-6.87893e-09
-7.63521e-09
-8.34088e-09
-9.06355e-09
-1.01065e-08
-1.0858e-08
-1.21586e-08
-1.30726e-08
-1.44786e-08
-1.58397e-08
-1.71224e-08
-1.93536e-08
-2.01515e-08
-2.33515e-08
-2.3473e-08
-2.6487e-08
-2.42705e-08
-2.468e-08
-3.36264e-08
-4.29171e-08
-4.98281e-08
-5.54835e-08
-6.07501e-08
-6.63442e-08
-7.21707e-08
-7.86295e-08
-8.58063e-08
-9.38573e-08
-1.02744e-07
-1.12871e-07
-1.24094e-07
-1.36851e-07
-1.51011e-07
-1.6702e-07
-1.84736e-07
-2.047e-07
-2.26747e-07
-2.51367e-07
-2.78443e-07
-3.08182e-07
-3.40043e-07
-3.73951e-07
-4.08745e-07
-4.43888e-07
-4.76441e-07
-5.04051e-07
-5.2043e-07
-5.12836e-07
-4.43154e-07
-2.18437e-07
-1.54341e-11
1.27587e-11
-4.63644e-11
2.77208e-11
-1.34702e-10
8.58685e-11
-2.25877e-10
8.7604e-11
-3.56253e-10
1.2782e-10
-5.33372e-10
1.72904e-10
-7.37601e-10
2.0112e-10
-9.98001e-10
2.54635e-10
-1.28941e-09
2.87139e-10
-1.62526e-09
3.28847e-10
-2.00083e-09
3.71131e-10
-2.38799e-09
3.79477e-10
-2.7816e-09
3.88873e-10
-3.19626e-09
4.06841e-10
-3.62396e-09
4.24722e-10
-4.06501e-09
4.3385e-10
-4.51628e-09
4.47845e-10
-4.99017e-09
4.64718e-10
-5.48181e-09
4.87669e-10
-6.01078e-09
5.19282e-10
-6.58e-09
5.65637e-10
-7.21409e-09
6.23611e-10
-7.91428e-09
6.95925e-10
-8.72898e-09
8.04176e-10
-9.6316e-09
9.00724e-10
-1.06709e-08
1.03109e-09
-1.18507e-08
1.18188e-09
-1.32032e-08
1.34621e-09
-1.46863e-08
1.48506e-09
-1.63201e-08
1.62437e-09
-1.81196e-08
1.80015e-09
-2.01283e-08
1.99771e-09
-2.23474e-08
2.21854e-09
-2.48193e-08
2.45697e-09
-2.75442e-08
2.7237e-09
-3.05722e-08
3.01336e-09
-3.39217e-08
3.34895e-09
-3.75189e-08
3.58017e-09
-4.14345e-08
3.91525e-09
-4.5819e-08
4.3676e-09
-5.07284e-08
4.91001e-09
-5.6267e-08
5.51862e-09
-6.24418e-08
6.17444e-09
-6.934e-08
6.87845e-09
-7.69524e-08
7.61366e-09
-8.53398e-08
8.36437e-09
-9.45237e-08
9.18361e-09
-1.0472e-07
1.0173e-08
-1.15739e-07
1.10217e-08
-1.27876e-07
1.21101e-08
-1.4123e-07
1.33572e-08
-1.56022e-07
1.47685e-08
-1.72471e-07
1.64546e-08
-1.90764e-07
1.82676e-08
-2.11065e-07
2.03098e-08
-2.3353e-07
2.24424e-08
-2.58336e-07
2.4817e-08
-2.85815e-07
2.74539e-08
-3.15894e-07
3.00903e-08
-3.49886e-07
3.3971e-08
-3.87059e-07
3.71893e-08
-4.27502e-07
4.04208e-08
-4.71168e-07
4.36843e-08
-5.19844e-07
4.86584e-08
-5.73871e-07
5.40474e-08
-6.33919e-07
6.00252e-08
-7.00666e-07
6.67689e-08
-7.79058e-07
7.8373e-08
-8.63385e-07
8.43506e-08
-9.57925e-07
9.45146e-08
-1.05948e-06
1.01573e-07
-1.16406e-06
1.04561e-07
-1.27546e-06
1.11419e-07
-1.39634e-06
1.20847e-07
-1.54026e-06
1.43937e-07
-1.69728e-06
1.56988e-07
-1.86856e-06
1.71305e-07
-2.05923e-06
1.90632e-07
-2.26823e-06
2.09019e-07
-2.49882e-06
2.30555e-07
-2.74933e-06
2.50533e-07
-3.02127e-06
2.719e-07
-3.31621e-06
2.94953e-07
-3.63589e-06
3.19643e-07
-3.98199e-06
3.4613e-07
-4.35615e-06
3.7411e-07
-4.76189e-06
4.05767e-07
-5.2075e-06
4.45566e-07
-5.69868e-06
4.91219e-07
-6.23512e-06
5.36392e-07
-6.81601e-06
5.80921e-07
-7.43771e-06
6.21659e-07
-8.11726e-06
6.79588e-07
-8.87637e-06
7.59066e-07
-9.66063e-06
7.8429e-07
-1.04184e-05
7.57766e-07
-1.11777e-05
7.59299e-07
-1.19602e-05
7.82499e-07
-1.27447e-05
7.84542e-07
-1.35005e-05
7.55707e-07
-1.41895e-05
6.89054e-07
5.7208e-07
-1.47616e-05
-3.77545e-12
1.37262e-11
-2.8695e-11
4.96507e-11
-1.00498e-10
1.5482e-10
-2.18687e-10
2.02651e-10
-3.58037e-10
2.64121e-10
-5.27223e-10
3.3848e-10
-7.24815e-10
3.94998e-10
-9.58885e-10
4.83879e-10
-1.21837e-09
5.41623e-10
-1.54258e-09
6.47425e-10
-1.91058e-09
7.33863e-10
-2.26066e-09
7.23296e-10
-2.64223e-09
7.64954e-10
-3.06028e-09
8.19324e-10
-3.50543e-09
8.65484e-10
-3.96525e-09
8.88354e-10
-4.4482e-09
9.25843e-10
-4.95863e-09
9.68258e-10
-5.4952e-09
1.01804e-09
-6.07057e-09
1.08769e-09
-6.68907e-09
1.1782e-09
-7.3601e-09
1.28638e-09
-8.066e-09
1.39556e-09
-8.90707e-09
1.63868e-09
-9.7845e-09
1.77439e-09
-1.07704e-08
2.01293e-09
-1.18574e-08
2.26778e-09
-1.31069e-08
2.59302e-09
-1.44774e-08
2.85397e-09
-1.59909e-08
3.13252e-09
-1.76834e-08
3.4887e-09
-1.95819e-08
3.88995e-09
-2.17044e-08
4.3358e-09
-2.40811e-08
4.82467e-09
-2.67362e-08
5.3722e-09
-2.96946e-08
5.96308e-09
-3.30866e-08
6.73534e-09
-3.66735e-08
7.15722e-09
-4.06082e-08
7.84374e-09
-4.49196e-08
8.67085e-09
-4.97003e-08
9.68527e-09
-5.5072e-08
1.08786e-08
-6.10516e-08
1.21464e-08
-6.76465e-08
1.34636e-08
-7.49345e-08
1.48958e-08
-8.30386e-08
1.64551e-08
-9.20376e-08
1.81746e-08
-1.01954e-07
2.00789e-08
-1.12925e-07
2.19863e-08
-1.25003e-07
2.41748e-08
-1.38227e-07
2.65751e-08
-1.52782e-07
2.93128e-08
-1.6881e-07
3.24778e-08
-1.866e-07
3.60463e-08
-2.06216e-07
3.99217e-08
-2.2803e-07
4.42493e-08
-2.52062e-07
4.88482e-08
-2.78528e-07
5.39078e-08
-3.07572e-07
5.9131e-08
-3.4137e-07
6.77638e-08
-3.7894e-07
7.4762e-08
-4.19354e-07
8.08294e-08
-4.61525e-07
8.58585e-08
-5.09381e-07
9.6512e-08
-5.63139e-07
1.0781e-07
-6.21924e-07
1.18805e-07
-6.86525e-07
1.31374e-07
-7.49068e-07
1.40914e-07
-8.25646e-07
1.60935e-07
-9.10477e-07
1.79338e-07
-1.00487e-06
1.95969e-07
-1.11214e-06
2.1183e-07
-1.23458e-06
2.33855e-07
-1.37234e-06
2.58595e-07
-1.51379e-06
2.85388e-07
-1.67194e-06
3.15128e-07
-1.84754e-06
3.469e-07
-2.03788e-06
3.80959e-07
-2.24562e-06
4.16761e-07
-2.4701e-06
4.5503e-07
-2.71527e-06
4.957e-07
-2.98338e-06
5.39994e-07
-3.27637e-06
5.87943e-07
-3.59605e-06
6.39306e-07
-3.94399e-06
6.9407e-07
-4.32291e-06
7.53015e-07
-4.7365e-06
8.19359e-07
-5.19304e-06
9.02097e-07
-5.69242e-06
9.90604e-07
-6.23403e-06
1.07799e-06
-6.8065e-06
1.15339e-06
-7.39628e-06
1.21142e-06
-8.0075e-06
1.29082e-06
-8.66626e-06
1.41781e-06
-9.36476e-06
1.4828e-06
-1.013e-05
1.523e-06
-1.09915e-05
1.6208e-06
-1.19051e-05
1.69612e-06
-1.2845e-05
1.72442e-06
-1.3783e-05
1.69372e-06
-1.46795e-05
1.58555e-06
1.38041e-06
-1.54878e-05
1.78609e-12
9.01651e-12
-3.30999e-11
8.15593e-11
-6.69685e-11
1.85819e-10
-1.34128e-10
2.66804e-10
-2.47608e-10
3.7449e-10
-3.95227e-10
4.82746e-10
-6.03191e-10
5.9934e-10
-8.27958e-10
7.04183e-10
-1.04175e-09
7.50662e-10
-1.30051e-09
9.00946e-10
-1.58257e-09
1.01056e-09
-2.00577e-09
1.14088e-09
-2.46721e-09
1.22113e-09
-2.92294e-09
1.27017e-09
-3.38037e-09
1.31868e-09
-3.84989e-09
1.35306e-09
-4.33319e-09
1.40337e-09
-4.83541e-09
1.46405e-09
-5.35447e-09
1.53127e-09
-5.89371e-09
1.62023e-09
-6.45341e-09
1.73011e-09
-7.05253e-09
1.87808e-09
-7.69789e-09
2.0351e-09
-8.40288e-09
2.33864e-09
-9.1815e-09
2.54891e-09
-1.00353e-08
2.86399e-09
-1.10106e-08
3.24205e-09
-1.20938e-08
3.67427e-09
-1.32526e-08
4.00912e-09
-1.45654e-08
4.44063e-09
-1.60556e-08
4.97459e-09
-1.7738e-08
5.56612e-09
-1.96296e-08
6.21952e-09
-2.17498e-08
6.9364e-09
-2.41202e-08
7.73524e-09
-2.67623e-08
8.59758e-09
-2.97022e-08
9.66679e-09
-3.295e-08
1.03973e-08
-3.66553e-08
1.15442e-08
-4.06131e-08
1.26224e-08
-4.48892e-08
1.39523e-08
-4.97355e-08
1.57157e-08
-5.51239e-08
1.75282e-08
-6.104e-08
1.93723e-08
-6.75737e-08
2.14193e-08
-7.4816e-08
2.36878e-08
-8.2789e-08
2.61415e-08
-9.16085e-08
2.88907e-08
-1.01469e-07
3.1839e-08
-1.12243e-07
3.49406e-08
-1.24e-07
3.83247e-08
-1.36948e-07
4.22526e-08
-1.51222e-07
4.67444e-08
-1.66942e-07
5.17576e-08
-1.84333e-07
5.731e-08
-2.0352e-07
6.34307e-08
-2.24833e-07
7.01506e-08
-2.48392e-07
7.74585e-08
-2.7445e-07
8.51859e-08
-3.03196e-07
9.65072e-08
-3.35007e-07
1.06572e-07
-3.70313e-07
1.16135e-07
-4.09176e-07
1.24724e-07
-4.51902e-07
1.39238e-07
-4.98748e-07
1.54654e-07
-5.50528e-07
1.70584e-07
-6.06561e-07
1.8741e-07
-6.68968e-07
2.03321e-07
-7.40373e-07
2.32337e-07
-8.18741e-07
2.57702e-07
-9.0615e-07
2.83383e-07
-1.01197e-06
3.17646e-07
-1.07928e-06
3.01158e-07
-1.20816e-06
3.87468e-07
-1.33836e-06
4.15583e-07
-1.47665e-06
4.53411e-07
-1.62581e-06
4.96048e-07
-1.7897e-06
5.44848e-07
-1.97086e-06
5.97914e-07
-2.17025e-06
6.54414e-07
-2.39043e-06
7.15876e-07
-2.63415e-06
7.837e-07
-2.90326e-06
8.57052e-07
-3.19968e-06
9.35719e-07
-3.52301e-06
1.01739e-06
-3.87313e-06
1.10312e-06
-4.25221e-06
1.19845e-06
-4.66113e-06
1.31101e-06
-5.09646e-06
1.42593e-06
-5.57175e-06
1.55326e-06
-6.07161e-06
1.65325e-06
-6.62058e-06
1.76038e-06
-7.27031e-06
1.94055e-06
-7.936e-06
2.08348e-06
-8.71247e-06
2.25928e-06
-9.65129e-06
2.46182e-06
-1.06248e-05
2.59429e-06
-1.16297e-05
2.70098e-06
-1.26744e-05
2.76922e-06
-1.37505e-05
2.76974e-06
-1.48248e-05
2.65995e-06
2.40494e-06
-1.58493e-05
-6.75571e-12
1.29524e-11
-2.29097e-11
9.48914e-11
-6.22662e-11
2.2238e-10
-1.34878e-10
3.36504e-10
-2.35659e-10
4.72314e-10
-3.71806e-10
6.15945e-10
-5.36299e-10
7.60429e-10
-7.46344e-10
9.1031e-10
-9.91121e-10
9.90838e-10
-1.30307e-09
1.20792e-09
-1.62222e-09
1.32461e-09
-1.93467e-09
1.44804e-09
-2.28063e-09
1.5622e-09
-2.66607e-09
1.65147e-09
-3.08059e-09
1.72926e-09
-3.53276e-09
1.80013e-09
-4.00698e-09
1.8719e-09
-4.50334e-09
1.9551e-09
-5.01657e-09
2.03868e-09
-5.55768e-09
2.15367e-09
-6.12746e-09
2.2921e-09
-6.72507e-09
2.46913e-09
-7.37652e-09
2.6815e-09
-8.00874e-09
2.96601e-09
-8.72829e-09
3.26496e-09
-9.50281e-09
3.63683e-09
-1.02909e-08
4.02917e-09
-1.11494e-08
4.52986e-09
-1.2291e-08
5.14665e-09
-1.36497e-08
5.79509e-09
-1.51327e-08
6.45229e-09
-1.67842e-08
7.20967e-09
-1.86057e-08
8.03173e-09
-2.06178e-08
8.93936e-09
-2.28424e-08
9.95193e-09
-2.52745e-08
1.10202e-08
-2.78912e-08
1.22753e-08
-3.09804e-08
1.34813e-08
-3.4446e-08
1.50053e-08
-3.80218e-08
1.61904e-08
-4.19487e-08
1.78702e-08
-4.62295e-08
1.99894e-08
-5.09636e-08
2.2257e-08
-5.62164e-08
2.46158e-08
-6.18895e-08
2.70834e-08
-6.83514e-08
3.01437e-08
-7.53782e-08
3.31637e-08
-8.35195e-08
3.70264e-08
-9.25219e-08
4.08339e-08
-1.01831e-07
4.42416e-08
-1.12067e-07
4.85538e-08
-1.23542e-07
5.37203e-08
-1.36291e-07
5.9484e-08
-1.50393e-07
6.58553e-08
-1.65993e-07
7.29048e-08
-1.83247e-07
8.06718e-08
-2.02506e-07
8.93984e-08
-2.23852e-07
9.87962e-08
-2.47618e-07
1.08949e-07
-2.72059e-07
1.20946e-07
-2.99004e-07
1.33516e-07
-3.29445e-07
1.46576e-07
-3.65383e-07
1.60665e-07
-4.03545e-07
1.77399e-07
-4.44531e-07
1.95637e-07
-4.89769e-07
2.15821e-07
-5.40861e-07
2.38503e-07
-6.00542e-07
2.62999e-07
-6.60312e-07
2.92104e-07
-7.25515e-07
3.22909e-07
-7.98059e-07
3.55928e-07
-8.7173e-07
3.91306e-07
-9.91085e-07
4.205e-07
-1.07591e-06
4.72284e-07
-1.17761e-06
5.17276e-07
-1.29231e-06
5.68105e-07
-1.4215e-06
6.25225e-07
-1.56457e-06
6.87907e-07
-1.72123e-06
7.54572e-07
-1.89326e-06
8.26428e-07
-2.0841e-06
9.06705e-07
-2.29671e-06
9.96301e-07
-2.53371e-06
1.09405e-06
-2.79787e-06
1.19987e-06
-3.08588e-06
1.3054e-06
-3.40077e-06
1.41802e-06
-3.75216e-06
1.54983e-06
-4.12243e-06
1.68127e-06
-4.52703e-06
1.83051e-06
-4.96137e-06
1.9876e-06
-5.50876e-06
2.20064e-06
-6.18913e-06
2.44073e-06
-6.88716e-06
2.63857e-06
-7.65036e-06
2.84668e-06
-8.46543e-06
3.07436e-06
-9.32573e-06
3.32211e-06
-1.02906e-05
3.55916e-06
-1.13507e-05
3.76107e-06
-1.24927e-05
3.91126e-06
-1.37111e-05
3.98811e-06
-1.49653e-05
3.91416e-06
3.65577e-06
-1.6216e-05
-1.47265e-12
1.16295e-11
-2.4939e-11
1.1557e-10
-6.34216e-11
2.58092e-10
-1.35586e-10
4.0592e-10
-2.31804e-10
5.65998e-10
-3.60238e-10
7.41541e-10
-5.18096e-10
9.15282e-10
-7.0852e-10
1.09691e-09
-9.85815e-10
1.26364e-09
-1.23762e-09
1.45485e-09
-1.53178e-09
1.61367e-09
-1.84971e-09
1.7611e-09
-2.19148e-09
1.89978e-09
-2.56079e-09
2.0171e-09
-2.9543e-09
2.11869e-09
-3.37189e-09
2.21305e-09
-3.81175e-09
2.30732e-09
-4.27079e-09
2.40898e-09
-4.76e-09
2.52132e-09
-5.27162e-09
2.6579e-09
-5.81144e-09
2.82486e-09
-6.3786e-09
3.03024e-09
-6.98527e-09
3.28303e-09
-7.61696e-09
3.59357e-09
-8.3058e-09
3.95107e-09
-9.04816e-09
4.37767e-09
-9.89686e-09
4.87597e-09
-1.08212e-08
5.45102e-09
-1.18034e-08
6.12483e-09
-1.2883e-08
6.86937e-09
-1.41414e-08
7.70346e-09
-1.55528e-08
8.61155e-09
-1.71302e-08
9.59821e-09
-1.89188e-08
1.07177e-08
-2.0877e-08
1.18997e-08
-2.31047e-08
1.32389e-08
-2.55063e-08
1.46703e-08
-2.82433e-08
1.62137e-08
-3.11894e-08
1.79458e-08
-3.46777e-08
1.96713e-08
-3.86261e-08
2.18107e-08
-4.2709e-08
2.40672e-08
-4.71839e-08
2.67243e-08
-5.1992e-08
2.9416e-08
-5.74276e-08
3.25122e-08
-6.3215e-08
3.59261e-08
-6.94844e-08
3.94303e-08
-7.57414e-08
4.32778e-08
-8.2697e-08
4.77797e-08
-9.20112e-08
5.35493e-08
-1.02928e-07
5.9464e-08
-1.14834e-07
6.56176e-08
-1.27699e-07
7.23442e-08
-1.41673e-07
7.98215e-08
-1.56838e-07
8.80568e-08
-1.73129e-07
9.69472e-08
-1.91438e-07
1.07693e-07
-2.11432e-07
1.18782e-07
-2.32589e-07
1.30103e-07
-2.55519e-07
1.43874e-07
-2.80862e-07
1.58858e-07
-3.09077e-07
1.74792e-07
-3.40801e-07
1.92389e-07
-3.75161e-07
2.11755e-07
-4.13708e-07
2.3418e-07
-4.56229e-07
2.5834e-07
-5.02034e-07
2.84303e-07
-5.52335e-07
3.13295e-07
-6.0614e-07
3.4591e-07
-6.65513e-07
3.82284e-07
-7.31129e-07
4.21537e-07
-8.03773e-07
4.63937e-07
-8.9205e-07
5.08761e-07
-9.78275e-07
5.58496e-07
-1.07408e-06
6.13068e-07
-1.17982e-06
6.7384e-07
-1.29578e-06
7.41165e-07
-1.42158e-06
8.13696e-07
-1.56201e-06
8.94992e-07
-1.71976e-06
9.84152e-07
-1.89627e-06
1.08321e-06
-2.09245e-06
1.19246e-06
-2.30547e-06
1.30706e-06
-2.53184e-06
1.42622e-06
-2.79202e-06
1.56558e-06
-3.09892e-06
1.72492e-06
-3.44003e-06
1.89094e-06
-3.82832e-06
2.06954e-06
-4.26107e-06
2.26324e-06
-4.75198e-06
2.4785e-06
-5.27106e-06
2.7197e-06
-5.82142e-06
2.99108e-06
-6.45861e-06
3.27575e-06
-7.18123e-06
3.5693e-06
-7.99101e-06
3.88412e-06
-8.89231e-06
4.22341e-06
-9.90279e-06
4.56964e-06
-1.10417e-05
4.90001e-06
-1.23108e-05
5.18037e-06
-1.37263e-05
5.40364e-06
-1.52197e-05
5.40761e-06
5.22933e-06
-1.67933e-05
-2.06227e-12
1.10713e-11
-2.46861e-11
1.35462e-10
-6.37427e-11
2.94424e-10
-1.2783e-10
4.67608e-10
-2.19725e-10
6.55284e-10
-3.39188e-10
8.58557e-10
-4.92313e-10
1.06517e-09
-6.81369e-10
1.28197e-09
-9.11291e-10
1.48897e-09
-1.15599e-09
1.69465e-09
-1.43584e-09
1.88865e-09
-1.74334e-09
2.06424e-09
-2.07269e-09
2.22528e-09
-2.4246e-09
2.3656e-09
-2.79791e-09
2.48824e-09
-3.19068e-09
2.60236e-09
-3.60293e-09
2.71514e-09
-4.03411e-09
2.83495e-09
-4.48776e-09
2.96845e-09
-4.96293e-09
3.12623e-09
-5.46218e-09
3.31722e-09
-5.9892e-09
3.55175e-09
-6.5483e-09
3.83722e-09
-7.14214e-09
4.18363e-09
-7.78842e-09
4.59437e-09
-8.49127e-09
5.07879e-09
-9.26323e-09
5.64542e-09
-1.01179e-08
6.30231e-09
-1.1057e-08
7.05835e-09
-1.20932e-08
7.89911e-09
-1.32447e-08
8.84573e-09
-1.45413e-08
9.89621e-09
-1.60038e-08
1.10484e-08
-1.76289e-08
1.23306e-08
-1.94572e-08
1.37173e-08
-2.14857e-08
1.52586e-08
-2.37432e-08
1.69213e-08
-2.62752e-08
1.87405e-08
-2.90659e-08
2.07311e-08
-3.22744e-08
2.28722e-08
-3.57544e-08
2.52854e-08
-3.96064e-08
2.79108e-08
-4.37747e-08
3.08868e-08
-4.84455e-08
3.40824e-08
-5.35341e-08
3.75946e-08
-5.90629e-08
4.14517e-08
-6.5281e-08
4.56438e-08
-7.23279e-08
5.03151e-08
-8.00541e-08
5.54979e-08
-8.79742e-08
6.14595e-08
-9.65982e-08
6.80802e-08
-1.06222e-07
7.52416e-08
-1.16937e-07
8.30505e-08
-1.28767e-07
9.16381e-08
-1.41843e-07
1.01116e-07
-1.56083e-07
1.11167e-07
-1.71885e-07
1.2348e-07
-1.89665e-07
1.36553e-07
-2.09239e-07
1.49674e-07
-2.30389e-07
1.65023e-07
-2.53512e-07
1.81979e-07
-2.79295e-07
2.00573e-07
-3.07783e-07
2.20874e-07
-3.39378e-07
2.43343e-07
-3.73557e-07
2.68353e-07
-4.11158e-07
2.95934e-07
-4.52973e-07
3.26111e-07
-4.99004e-07
3.59323e-07
-5.49287e-07
3.9619e-07
-6.0354e-07
4.36532e-07
-6.62187e-07
4.80173e-07
-7.25916e-07
5.27649e-07
-7.94958e-07
5.77784e-07
-8.78038e-07
6.41563e-07
-9.74848e-07
7.09866e-07
-1.08288e-06
7.81854e-07
-1.20175e-06
8.60015e-07
-1.33327e-06
9.45191e-07
-1.47629e-06
1.03799e-06
-1.63314e-06
1.14098e-06
-1.80039e-06
1.25044e-06
-1.97542e-06
1.36747e-06
-2.16872e-06
1.50035e-06
-2.39385e-06
1.65134e-06
-2.64805e-06
1.81978e-06
-2.92718e-06
2.00404e-06
-3.2405e-06
2.20425e-06
-3.59184e-06
2.42086e-06
-3.98638e-06
2.65775e-06
-4.42849e-06
2.9206e-06
-4.92212e-06
3.21332e-06
-5.47101e-06
3.53994e-06
-6.0905e-06
3.89524e-06
-6.79677e-06
4.27555e-06
-7.60141e-06
4.68877e-06
-8.5148e-06
5.13679e-06
-9.55845e-06
5.6133e-06
-1.07571e-05
6.09865e-06
-1.21421e-05
6.56543e-06
-1.37671e-05
7.02862e-06
-1.55409e-05
7.18147e-06
7.36677e-06
-1.76783e-05
-4.77753e-12
1.3208e-11
-2.27888e-11
1.50741e-10
-6.12561e-11
3.30417e-10
-1.20222e-10
5.24104e-10
-2.07104e-10
7.39936e-10
-3.17139e-10
9.65885e-10
-4.5932e-10
1.20379e-09
-6.30019e-10
1.44881e-09
-8.35323e-10
1.68978e-09
-1.06956e-09
1.92427e-09
-1.33304e-09
2.14788e-09
-1.62217e-09
2.34948e-09
-1.92883e-09
2.52891e-09
-2.25508e-09
2.68832e-09
-2.60095e-09
2.83099e-09
-2.96549e-09
2.96363e-09
-3.34735e-09
3.09294e-09
-3.7467e-09
3.22916e-09
-4.16454e-09
3.37981e-09
-4.60236e-09
3.55766e-09
-5.06169e-09
3.77082e-09
-5.54644e-09
4.03141e-09
-6.06071e-09
4.34651e-09
-6.60967e-09
4.72888e-09
-7.20201e-09
5.1841e-09
-7.84851e-09
5.72305e-09
-8.55812e-09
6.35164e-09
-9.34162e-09
7.08143e-09
-1.02046e-08
7.91533e-09
-1.11727e-08
8.85936e-09
-1.22543e-08
9.91534e-09
-1.34609e-08
1.10914e-08
-1.4819e-08
1.23935e-08
-1.63313e-08
1.38312e-08
-1.80321e-08
1.54077e-08
-1.9919e-08
1.71378e-08
-2.20243e-08
1.90211e-08
-2.43718e-08
2.10834e-08
-2.69754e-08
2.33284e-08
-2.98928e-08
2.57856e-08
-3.30996e-08
2.84836e-08
-3.66511e-08
3.14582e-08
-4.05115e-08
3.47532e-08
-4.47683e-08
3.83319e-08
-4.94445e-08
4.22711e-08
-5.45789e-08
4.65838e-08
-6.02798e-08
5.13373e-08
-6.65565e-08
5.65834e-08
-7.34757e-08
6.24035e-08
-8.0962e-08
6.894e-08
-8.90809e-08
7.6215e-08
-9.80045e-08
8.4154e-08