/*--------------------------------*- C++ -*----------------------------------*\
| =========                 |                                                 |
| \\      /  F ield         | OpenFOAM: The Open Source CFD Toolbox           |
|  \\    /   O peration     | Version:  2206                                  |
|   \\  /    A nd           | Website:  www.openfoam.com                      |
|    \\/     M anipulation  |                                                 |
\*---------------------------------------------------------------------------*/
FoamFile
{
    version     2.0;
    format      ascii;
    arch        "LSB;label=32;scalar=64";
    class       surfaceScalarField;
    location    "18.5001";
    object      ddtCorrDdt0(phi);
}
// * * * * * * * * * * * * * * * * * * * * * * * * * * * * * * * * * * * * * //

dimensions      [0 3 -2 0 0 0 0];

oriented        oriented;

internalField   nonuniform List<scalar> 
9474
(
3.48558e-05
-0.000197673
0.000185675
4.65771e-05
-0.000174091
0.000162369
5.78194e-05
-0.000150849
0.000139607
6.8419e-05
-0.000128017
0.000117417
7.82546e-05
-0.000105582
9.57463e-05
8.72151e-05
-8.34305e-05
7.44699e-05
9.51634e-05
-6.13421e-05
5.33938e-05
0.000101931
-3.89986e-05
3.22313e-05
0.00010734
-1.5996e-05
1.05864e-05
0.000111288
7.97785e-06
-1.19259e-05
0.000113939
3.29526e-05
-3.56031e-05
0.000115323
5.91509e-05
-6.05354e-05
0.000115443
8.64474e-05
-8.65668e-05
0.00011433
0.000114546
-0.000113434
0.000111993
0.000143112
-0.000140775
0.000108415
0.00017174
-0.000168162
0.000103539
0.000200005
-0.000195128
9.73e-05
0.000227466
-0.000221228
8.96532e-05
0.000253668
-0.000246021
8.05927e-05
0.00027813
-0.000269069
7.01712e-05
0.000300356
-0.000289934
5.85067e-05
0.000319847
-0.000308183
4.57844e-05
0.000336103
-0.00032338
3.22647e-05
0.000348644
-0.000335124
1.82589e-05
0.000357018
-0.000343013
4.23401e-06
0.000360484
-0.000346459
-9.41714e-06
0.000358627
-0.000344976
-2.24128e-05
0.000352837
-0.000339841
-3.44804e-05
0.00034315
-0.000331082
-4.53798e-05
0.00032976
-0.000318861
-5.4922e-05
0.000313002
-0.00030346
-6.29625e-05
0.000293278
-0.000285237
-6.93986e-05
0.00027104
-0.000264604
-7.41907e-05
0.000246821
-0.000242029
-7.73483e-05
0.000221148
-0.00021799
-7.89174e-05
0.000194513
-0.000192944
-7.90019e-05
0.000167415
-0.000167331
-7.77828e-05
0.000140335
-0.000141554
-7.55001e-05
0.000113638
-0.00011592
-7.24704e-05
8.76388e-05
-9.06685e-05
-6.91427e-05
6.25455e-05
-6.58733e-05
-6.60175e-05
3.82659e-05
-4.13911e-05
-6.30666e-05
1.31813e-05
-1.61322e-05
-5.95314e-05
-1.47377e-05
1.12025e-05
-5.56011e-05
-4.25741e-05
3.86437e-05
-5.17481e-05
-6.93945e-05
6.55415e-05
-4.82045e-05
-9.5464e-05
9.19203e-05
-4.5008e-05
-0.000121085
0.000117888
-4.21268e-05
-0.000146369
0.000143488
-3.95468e-05
-0.000171252
0.000168672
-3.72298e-05
-0.000195629
0.000193312
-3.51371e-05
-0.000219287
0.000217195
-3.32346e-05
-0.000241944
0.000240041
-3.14906e-05
-0.000263268
0.000261524
-2.9875e-05
-0.000282892
0.000281277
-2.83528e-05
-0.000300429
0.000298907
-2.68827e-05
-0.000315486
0.000314016
-2.54216e-05
-0.000327654
0.000326193
-2.38992e-05
-0.000336476
0.000334953
-2.21419e-05
-0.000341329
0.000339572
-2.0114e-05
-0.000340906
0.000338878
-1.78113e-05
-0.000336872
0.000334569
-1.51889e-05
-0.000329332
0.000326709
-1.22337e-05
-0.000318373
0.000315418
-8.94159e-06
-0.000304186
0.000300894
-5.3162e-06
-0.000287023
0.000283397
-1.37772e-06
-0.000267164
0.000263225
2.83674e-06
-0.000244948
0.000240734
7.29008e-06
-0.000220775
0.000216322
1.19289e-05
-0.000195023
0.000190385
1.66527e-05
-0.000168096
0.000163372
2.13386e-05
-0.000140419
0.000135733
2.58521e-05
-0.000112468
0.000107955
3.00203e-05
-8.47265e-05
8.05583e-05
3.38347e-05
-5.77899e-05
5.39756e-05
3.82553e-05
-3.21136e-05
2.76929e-05
4.45808e-05
-5.24869e-06
-1.07674e-06
4.97384e-05
2.47594e-05
-2.99171e-05
5.30445e-05
5.4406e-05
-5.77122e-05
5.49777e-05
8.22028e-05
-8.4136e-05
5.56941e-05
0.000108291
-0.000109007
5.5208e-05
0.000133008
-0.000132522
5.35593e-05
0.000156319
-0.00015467
5.08134e-05
0.000178081
-0.000175335
4.70922e-05
0.000198044
-0.000194323
4.25796e-05
0.000215885
-0.000211372
3.74393e-05
0.000231335
-0.000226194
3.18773e-05
0.000244064
-0.000238502
2.60126e-05
0.000253868
-0.000248003
1.97499e-05
0.000260608
-0.000254345
1.36123e-05
0.000263211
-0.000257074
7.56972e-06
0.000261994
-0.000255951
1.28898e-06
0.000258428
-0.000252147
-4.63649e-06
0.00025205
-0.000246124
-1.01974e-05
0.000242828
-0.000237267
-1.54548e-05
0.000231193
-0.000225935
-2.03129e-05
0.000217402
-0.000212544
-2.47287e-05
0.000201699
-0.000197283
-2.87011e-05
0.00018436
-0.000180388
-3.22368e-05
0.00016567
-0.000162135
-3.53456e-05
0.00014591
-0.000142801
-3.80503e-05
0.000125365
-0.000122661
-4.04017e-05
0.000104318
-0.000101966
-4.25324e-05
8.3006e-05
-8.08754e-05
-4.47873e-05
6.15759e-05
-5.93209e-05
-4.77761e-05
3.94868e-05
-3.6498e-05
-5.13089e-05
1.4822e-05
-1.12892e-05
-5.44368e-05
-1.15879e-05
1.47159e-05
-5.71683e-05
-3.80917e-05
4.08232e-05
-5.94923e-05
-6.43687e-05
6.66928e-05
-6.14322e-05
-8.99653e-05
9.19052e-05
-6.30011e-05
-0.000114596
0.000116165
-6.41862e-05
-0.000138003
0.000139188
-6.49592e-05
-0.000159912
0.000160685
-6.52788e-05
-0.00018004
0.000180359
-6.5093e-05
-0.000198092
0.000197907
-6.43366e-05
-0.000213759
0.000213002
-6.29103e-05
-0.000226703
0.000225277
-6.06176e-05
-0.000236519
0.000234226
-5.70082e-05
-0.000242543
0.000238933
-5.22851e-05
-0.000243877
0.000239154
-4.66919e-05
-0.000241703
0.00023611
-4.02394e-05
-0.000236428
0.000229976
-3.29882e-05
-0.000228283
0.000221031
-2.50453e-05
-0.000217567
0.000209624
-1.65559e-05
-0.000204661
0.000196171
-7.68569e-06
-0.000189986
0.000181115
1.40136e-06
-0.000173967
0.00016488
1.0553e-05
-0.000157023
0.000147872
1.96505e-05
-0.000139482
0.000130384
2.86404e-05
-0.000121703
0.000112713
3.75599e-05
-0.000103717
9.47976e-05
4.65763e-05
-8.6029e-05
7.70126e-05
5.58859e-05
-6.75013e-05
5.81917e-05
6.5367e-05
-5.01652e-05
4.06841e-05
7.39193e-05
-2.94853e-05
2.0933e-05
8.17652e-05
-1.50586e-05
7.21269e-06
1.07716e-05
-1.68881e-05
2.42268e-05
-0.00020878
3.50937e-05
-0.000184957
4.5511e-05
-0.000161266
5.53453e-05
-0.000137851
6.45318e-05
-0.000114768
7.30109e-05
-9.19095e-05
8.07216e-05
-6.90528e-05
8.76042e-05
-4.58812e-05
9.34643e-05
-2.18562e-05
9.79895e-05
3.4527e-06
0.000101267
2.96748e-05
0.000103317
5.71007e-05
0.000104156
8.56085e-05
0.000103811
0.000114892
0.000102285
0.000144638
9.95223e-05
0.000174503
9.54447e-05
0.000204083
8.99817e-05
0.00023293
8.30889e-05
0.00026056
7.47698e-05
0.000286449
6.5089e-05
0.000310037
5.41763e-05
0.00033076
4.22296e-05
0.000348049
2.95196e-05
0.000361354
1.63713e-05
0.000370167
3.27021e-06
0.000373585
-9.4099e-06
0.000371307
-2.13868e-05
0.000364814
-3.23847e-05
0.000354148
-4.21783e-05
0.000339554
-5.05955e-05
0.000321419
-5.7495e-05
0.000300177
-6.27905e-05
0.000276336
-6.64722e-05
0.000250503
-6.85568e-05
0.000223232
-6.90856e-05
0.000195042
-6.81678e-05
0.000166497
-6.59623e-05
0.00013813
-6.2647e-05
0.000110322
-5.85224e-05
8.35141e-05
-5.4093e-05
5.81161e-05
-5.00456e-05
3.42186e-05
-4.65294e-05
9.66504e-06
-4.22379e-05
-1.90291e-05
-3.74755e-05
-4.73365e-05
-3.29877e-05
-7.38823e-05
-2.91209e-05
-9.93307e-05
-2.59842e-05
-0.000124222
-2.33388e-05
-0.000149014
-2.11037e-05
-0.000173487
-1.92342e-05
-0.000197498
-1.77088e-05
-0.000220813
-1.64971e-05
-0.000243156
-1.55694e-05
-0.000264196
-1.48962e-05
-0.000283565
-1.44422e-05
-0.000300883
-1.41646e-05
-0.000315764
-1.40172e-05
-0.000327801
-1.39223e-05
-0.000336571
-1.37454e-05
-0.000341506
-1.33633e-05
-0.000341288
-1.27465e-05
-0.000337489
-1.1821e-05
-0.000330257
-1.0557e-05
-0.000319637
-8.91621e-06
-0.000305827
-6.8689e-06
-0.00028907
-4.43735e-06
-0.000269595
-1.63642e-06
-0.000247749
1.53354e-06
-0.000223945
4.98931e-06
-0.000198479
8.63468e-06
-0.000171741
1.23905e-05
-0.000144175
1.60314e-05
-0.000116109
1.93149e-05
-8.801e-05
2.21181e-05
-6.05931e-05
2.4759e-05
-3.47545e-05
3.00123e-05
-1.0502e-05
3.62752e-05
1.84966e-05
3.86768e-05
5.20044e-05
4.02907e-05
8.05889e-05
4.09311e-05
0.00010765
4.0554e-05
0.000133385
3.91509e-05
0.000157722
3.67784e-05
0.000180453
3.36601e-05
0.000201162
3.01688e-05
0.000219376
2.632e-05
0.000235183
2.19607e-05
0.000248424
1.72252e-05
0.000258603
1.23547e-05
0.000265479
7.23106e-06
0.000268335
1.9683e-06
0.000267257
-2.96657e-06
0.000263362
-7.54881e-06
0.000256632
-1.18877e-05
0.000247166
-1.59045e-05
0.000235209
-1.95433e-05
0.000221041
-2.27833e-05
0.000204939
-2.56149e-05
0.000187192
-2.80278e-05
0.000168083
-3.0044e-05
0.000147926
-3.17094e-05
0.000127031
-3.30763e-05
0.000105685
-3.42706e-05
8.42003e-05
-3.55349e-05
6.28403e-05
-3.74991e-05
4.14509e-05
-4.06115e-05
1.79344e-05
-4.35154e-05
-8.68404e-06
-4.60494e-05
-3.55577e-05
-4.82586e-05
-6.21595e-05
-5.02273e-05
-8.79966e-05
-5.19856e-05
-0.000112837
-5.3527e-05
-0.000136462
-5.48161e-05
-0.000158623
-5.57978e-05
-0.000179058
-5.64098e-05
-0.00019748
-5.65774e-05
-0.000213591
-5.62023e-05
-0.000227078
-5.51301e-05
-0.000237591
-5.30486e-05
-0.000244624
-4.97086e-05
-0.000247217
-4.55626e-05
-0.000245849
-4.05734e-05
-0.000241417
-3.47719e-05
-0.000234084
-2.82276e-05
-0.000224112
-2.10494e-05
-0.000211839
-1.3375e-05
-0.00019766
-5.3602e-06
-0.000181982
2.83432e-06
-0.000165218
1.10764e-05
-0.000147724
1.92472e-05
-0.000129873
2.73175e-05
-0.000111787
3.52768e-05
-9.39883e-05
4.34267e-05
-7.56512e-05
5.1992e-05
-5.87305e-05
6.02264e-05
-3.77197e-05
6.78745e-05
-2.27066e-05
4.72231e-06
1.37142e-05
-0.000218853
2.36034e-05
-0.000194847
3.31162e-05
-0.000170779
4.22102e-05
-0.000146945
5.08081e-05
-0.000123366
5.87769e-05
-9.98783e-05
6.60549e-05
-7.63307e-05
7.26846e-05
-5.25109e-05
7.87367e-05
-2.79082e-05
8.38133e-05
-1.6239e-06
8.76362e-05
2.5852e-05
9.02731e-05
5.44637e-05
9.17146e-05
8.4167e-05
9.20237e-05
0.000114583
9.11851e-05
0.000145476
8.91248e-05
0.000176563
8.57651e-05
0.000207442
8.10393e-05
0.000237655
7.49108e-05
0.000266689
6.73928e-05
0.000293967
5.85581e-05
0.000318871
4.85446e-05
0.000340773
3.75556e-05
0.000359038
2.58572e-05
0.000373053
1.38062e-05
0.000382218
1.87073e-06
0.000385521
-9.59388e-06
0.000382771
-2.03063e-05
0.000375526
-2.99979e-05
0.000363839
-3.84728e-05
0.000348029
-4.55685e-05
0.000328515
-5.11455e-05
0.000305754
-5.51531e-05
0.000280343
-5.76006e-05
0.00025295
-5.85123e-05
0.000224144
-5.79542e-05
0.000194484
-5.6052e-05
0.000164595
-5.29271e-05
0.000135005
-4.87156e-05
0.000106111
-4.36457e-05
7.84442e-05
-3.81886e-05
5.2659e-05
-3.32244e-05
2.92544e-05
-2.97462e-05
6.18679e-06
-2.48355e-05
-2.39398e-05
-1.92156e-05
-5.29564e-05
-1.41093e-05
-7.89886e-05
-9.98459e-06
-0.000103455
-6.87159e-06
-0.000127335
-4.52183e-06
-0.000151364
-2.73135e-06
-0.000175277
-1.40958e-06
-0.00019882
-5.21484e-07
-0.000221701
-4.68732e-08
-0.00024363
3.4384e-08
-0.000264277
-2.47963e-07
-0.000283283
-8.58329e-07
-0.000300273
-1.75219e-06
-0.00031487
-2.87588e-06
-0.000326677
-4.15236e-06
-0.000335294
-5.46182e-06
-0.000340197
-6.64166e-06
-0.000340108
-7.62614e-06
-0.000336504
-8.31649e-06
-0.000329567
-8.66045e-06
-0.000319293
-8.60704e-06
-0.000305881
-8.11201e-06
-0.000289565
-7.16433e-06
-0.000270543
-5.78034e-06
-0.000249133
-3.97646e-06
-0.000225749
-1.80028e-06
-0.000200655
6.48972e-07
-0.00017419
3.23759e-06
-0.000146763
5.84048e-06
-0.000118712
8.29943e-06
-9.04689e-05
1.04319e-05
-6.27256e-05
1.23952e-05
-3.67178e-05
1.58861e-05
-1.39929e-05
2.33078e-05
1.10748e-05
2.47483e-05
5.05639e-05
2.57951e-05
7.95421e-05
2.60421e-05
0.000107403
2.54979e-05
0.00013393
2.41994e-05
0.000159021
2.24084e-05
0.000182244
2.04527e-05
0.000203118
1.80361e-05
0.000221793
1.51418e-05
0.000238078
1.18677e-05
0.000251698
8.13961e-06
0.000262332
4.21104e-06
0.000269407
2.58396e-07
0.000272287
-3.5638e-06
0.000271079
-7.12855e-06
0.000266927
-1.04039e-05
0.000259907
-1.3399e-05
0.000250162
-1.60907e-05
0.000237901
-1.8471e-05
0.000223421
-2.05395e-05
0.000207007
-2.22756e-05
0.000188928
-2.36819e-05
0.000169489
-2.47762e-05
0.00014902
-2.55421e-05
0.000127797
-2.59934e-05
0.000106136
-2.62299e-05
8.44369e-05
-2.64537e-05
6.30641e-05
-2.72842e-05
4.22814e-05
-2.98625e-05
2.05128e-05
-3.25698e-05
-5.97682e-06
-3.48061e-05
-3.33213e-05
-3.6778e-05
-6.01876e-05
-3.86966e-05
-8.6078e-05
-4.0594e-05
-0.00011094
-4.24597e-05
-0.000134596
-4.42411e-05
-0.000156841
-4.58627e-05
-0.000177436
-4.72506e-05
-0.000196092
-4.83241e-05
-0.000212518
-4.89753e-05
-0.000226427
-4.90655e-05
-0.0002375
-4.83748e-05
-0.000245315
-4.64621e-05
-0.00024913
-4.37231e-05
-0.000248589
-4.0159e-05
-0.000244982
-3.57857e-05
-0.000238458
-3.06427e-05
-0.000229255
-2.48089e-05
-0.000217673
-1.84e-05
-0.000204069
-1.15498e-05
-0.000188832
-4.4035e-06
-0.000172364
2.90378e-06
-0.000155031
1.02123e-05
-0.000137182
1.74667e-05
-0.000119042
2.45268e-05
-0.000101048
3.16548e-05
-8.27791e-05
3.87301e-05
-6.58058e-05
4.64473e-05
-4.54369e-05
5.37255e-05
-2.99849e-05
-1.16788e-06
3.14989e-06
-0.000227628
1.18822e-05
-0.000203579
2.05806e-05
-0.000179478
2.9212e-05
-0.000155576
3.73411e-05
-0.000131495
4.4683e-05
-0.00010722
5.11961e-05
-8.28438e-05
5.71066e-05
-5.84213e-05
6.28735e-05
-3.36752e-05
6.85059e-05
-7.25623e-06
7.2926e-05
2.14319e-05
7.61106e-05
5.12791e-05
7.80311e-05
8.22465e-05
7.88397e-05
0.000113774
7.85474e-05
0.000145769
7.70822e-05
0.000178029
7.43757e-05
0.000210149
7.03693e-05
0.000241662
6.50372e-05
0.000272021
5.84021e-05
0.000300602
5.05383e-05
0.000326735
4.15897e-05
0.000349722
3.17558e-05
0.000368872
2.12729e-05
0.000383535
1.06054e-05
0.000392885
8.5588e-08
0.000396041
-9.91356e-06
0.000392771
-1.91073e-05
0.00038472
-2.72581e-05
0.00037199
-3.42122e-05
0.000354983
-3.97915e-05
0.000334094
-4.38692e-05
0.000309832
-4.64601e-05
0.000282934
-4.75619e-05
0.000254052
-4.7182e-05
0.000223764
-4.54859e-05
0.000192788
-4.2633e-05
0.000161742
-3.86626e-05
0.000131034
-3.37017e-05
0.00010115
-2.79189e-05
7.26614e-05
-2.14533e-05
4.61935e-05
-1.50423e-05
2.28434e-05
-1.16786e-05
2.82304e-06
-5.33211e-06
-3.02862e-05
-1.10811e-07
-5.81777e-05
4.02688e-06
-8.31263e-05
7.95522e-06
-0.000107384
1.15222e-05
-0.000130902
1.39157e-05
-0.000153757
1.54017e-05
-0.000176763
1.61691e-05
-0.000199587
1.63353e-05
-0.000221867
1.5995e-05
-0.00024329
1.51848e-05
-0.000263467
1.39279e-05
-0.000282026
1.22568e-05
-0.000298602
1.02166e-05
-0.000312829
7.86257e-06
-0.000324323
5.27403e-06
-0.000332706
2.55621e-06
-0.000337479
-1.13115e-07
-0.000337439
-2.61632e-06
-0.000334001
-4.84551e-06
-0.000327337
-6.72892e-06
-0.00031741
-8.20141e-06
-0.000304408
-9.21173e-06
-0.000288555
-9.72993e-06
-0.000270025
-9.76599e-06
-0.000249097
-9.35254e-06
-0.000226162
-8.51929e-06
-0.000201489
-7.37009e-06
-0.00017534
-5.97149e-06
-0.000148162
-4.31669e-06
-0.000120367
-2.44494e-06
-9.23407e-05
-3.05822e-07
-6.48647e-05
2.23004e-06
-3.92537e-05
4.99098e-06
-1.67538e-05
7.76123e-06
8.30455e-06
9.43233e-06
4.88928e-05
1.02244e-05
7.875e-05
1.03248e-05
0.000107303
9.89122e-06
0.000134363
9.46725e-06
0.000159445
9.12213e-06
0.000182589
8.11989e-06
0.00020412
6.24988e-06
0.000223663
3.83956e-06
0.000240488
1.19732e-06
0.00025434
-1.50578e-06
0.000265035
-4.2191e-06
0.000272121
-6.81096e-06
0.000274879
-9.21125e-06
0.000273479
-1.13521e-05
0.000269068
-1.32225e-05
0.000261778
-1.48048e-05
0.000251744
-1.60964e-05
0.000239193
-1.71348e-05
0.00022446
-1.79315e-05
0.000207804
-1.84934e-05
0.00018949
-1.88708e-05
0.000169867
-1.90718e-05
0.000149221
-1.90586e-05
0.000127784
-1.88461e-05
0.000105924
-1.84322e-05
8.4023e-05
-1.78565e-05
6.24884e-05
-1.75452e-05
4.19702e-05
-1.9136e-05
2.21035e-05
-2.18781e-05
-3.23472e-06
-2.35011e-05
-3.16983e-05
-2.50611e-05
-5.86277e-05
-2.68286e-05
-8.43105e-05
-2.8824e-05
-0.000108944
-3.10218e-05
-0.000132398
-3.32998e-05
-0.000154563
-3.55401e-05
-0.000175196
-3.76736e-05
-0.000193959
-3.96234e-05
-0.000210568
-4.12699e-05
-0.000224781
-4.24764e-05
-0.000236294
-4.30546e-05
-0.000244737
-4.2615e-05
-0.000249569
-4.12449e-05
-0.000249959
-3.91038e-05
-0.000247123
-3.61607e-05
-0.000241401
-3.24257e-05
-0.00023299
-2.7952e-05
-0.000222147
-2.28299e-05
-0.000209191
-1.71696e-05
-0.000194492
-1.1114e-05
-0.00017842
-4.80184e-06
-0.000161343
1.58012e-06
-0.000143564
7.97894e-06
-0.000125441
1.416e-05
-0.000107229
2.03092e-05
-8.89284e-05
2.59882e-05
-7.14848e-05
3.29604e-05
-5.24091e-05
3.95578e-05
-3.65823e-05
-6.80691e-06
-7.25972e-06
6.60987e-07
8.76295e-06
1.64978e-05
2.36818e-05
3.02103e-05
3.60086e-05
4.11194e-05
4.59945e-05
5.17585e-05
5.71685e-05
6.0797e-05
6.30298e-05
6.41939e-05
6.43105e-05
6.33396e-05
6.12331e-05
5.79433e-05
5.3455e-05
4.77967e-05
4.10468e-05
3.33463e-05
2.48892e-05
1.59185e-05
6.75014e-06
-2.05121e-06
-1.0301e-05
-1.77141e-05
-2.41038e-05
-2.93237e-05
-3.32022e-05
-3.56733e-05
-3.67575e-05
-3.64255e-05
-3.47239e-05
-3.18843e-05
-2.80463e-05
-2.33093e-05
-1.80114e-05
-1.23714e-05
-6.45754e-06
2.36298e-07
8.83556e-06
1.60104e-05
2.09004e-05
2.46569e-05
2.75073e-05
2.99056e-05
3.19808e-05
3.31186e-05
3.33005e-05
3.27446e-05
3.15412e-05
2.97768e-05
2.75068e-05
2.47647e-05
2.15913e-05
1.80441e-05
1.4201e-05
1.01593e-05
6.09525e-06
2.17682e-06
-1.50098e-06
-4.84379e-06
-7.7804e-06
-1.0258e-05
-1.22496e-05
-1.37402e-05
-1.47494e-05
-1.53079e-05
-1.54355e-05
-1.51034e-05
-1.42749e-05
-1.28437e-05
-1.06655e-05
-7.97503e-06
-6.41768e-06
-8.89573e-06
-6.49484e-06
-5.02638e-06
-3.94906e-06
-3.20755e-06
-3.14855e-06
-3.93699e-06
-5.15125e-06
-6.45941e-06
-7.93055e-06
-9.531e-06
-1.11231e-05
-1.2615e-05
-1.38364e-05
-1.48302e-05
-1.55546e-05
-1.59995e-05
-1.61419e-05
-1.60139e-05
-1.56696e-05
-1.51284e-05
-1.44455e-05
-1.37183e-05
-1.29466e-05
-1.21271e-05
-1.13052e-05
-1.03696e-05
-9.17989e-06
-7.92365e-06
-7.94288e-06
-1.26409e-05
-1.24091e-05
-1.31375e-05
-1.46016e-05
-1.66776e-05
-1.92577e-05
-2.20828e-05
-2.49568e-05
-2.78128e-05
-3.06045e-05
-3.31957e-05
-3.5446e-05
-3.71915e-05
-3.81578e-05
-3.81019e-05
-3.73424e-05
-3.58113e-05
-3.34967e-05
-3.04242e-05
-2.66535e-05
-2.22673e-05
-1.73921e-05
-1.2142e-05
-6.70555e-06
-1.14488e-06
4.24666e-06
9.56174e-06
-9.42435e-05
1.41923e-05
-7.61154e-05
1.99077e-05
-5.81244e-05
2.52352e-05
-4.19098e-05
-1.221e-05
-1.19962e-06
2.81476e-06
7.56625e-06
1.09601e-05
-5.74106e-05
-1.03992e-05
-4.77716e-05
-9.63897e-06
-3.85863e-05
-9.1853e-06
-2.90536e-05
-9.53271e-06
-1.99796e-05
-9.07403e-06
-1.0872e-05
-9.10762e-06
-4.65071e-06
-6.22126e-06
1.4535e-06
-6.10422e-06
6.97548e-06
-5.52198e-06
1.13214e-05
-4.34596e-06
1.4147e-05
-2.82556e-06
1.52907e-05
-1.14376e-06
1.56218e-05
-3.31081e-07
1.53847e-05
2.37088e-07
1.44204e-05
9.64351e-07
1.28991e-05
1.52123e-06
1.12952e-05
1.60388e-06
9.78911e-06
1.50612e-06
8.53756e-06
1.25155e-06
7.7216e-06
8.15956e-07
7.46034e-06
2.61269e-07
7.81504e-06
-3.54703e-07
8.83861e-06
-1.02358e-06
1.05009e-05
-1.66229e-06
1.25492e-05
-2.04826e-06
1.44607e-05
-1.91155e-06
1.61183e-05
-1.65756e-06
1.76356e-05
-1.51734e-06
1.92282e-05
-1.59259e-06
2.11428e-05
-1.91465e-06
2.36086e-05
-2.46582e-06
2.67782e-05
-3.16963e-06
3.06473e-05
-3.86903e-06
3.50156e-05
-4.36828e-06
3.95363e-05
-4.52076e-06
4.3821e-05
-4.28471e-06
4.75209e-05
-3.69991e-06
5.03329e-05
-2.81193e-06
5.20487e-05
-1.71585e-06
5.26243e-05
-5.75595e-07
5.20821e-05
5.4219e-07
5.03748e-05
1.70727e-06
4.75073e-05
2.86755e-06
4.35712e-05
3.93605e-06
3.86607e-05
4.91054e-06
3.28264e-05
5.83425e-06
2.60373e-05
6.78913e-06
1.8408e-05
7.62925e-06
9.90198e-06
8.50603e-06
3.04094e-06
6.86104e-06
-4.52626e-06
7.56719e-06
-1.19157e-05
7.38941e-06
-1.87912e-05
6.87551e-06
-2.4881e-05
6.08984e-06
-3.00388e-05
5.15779e-06
-3.41681e-05
4.12937e-06
-3.71925e-05
3.02438e-06
-3.90844e-05
1.89187e-06
-3.99289e-05
8.44464e-07
-3.99302e-05
1.37711e-09
-3.92991e-05
-6.31098e-07
-3.81938e-05
-1.10528e-06
-3.67297e-05
-1.46415e-06
-3.50015e-05
-1.7282e-06
-3.3092e-05
-1.9095e-06
-3.10888e-05
-2.00318e-06
-2.90965e-05
-1.99226e-06
-2.71902e-05
-1.90639e-06
-2.54024e-05
-1.78771e-06
-2.37433e-05
-1.65912e-06
-2.22137e-05
-1.5296e-06
-2.08102e-05
-1.40358e-06
-1.95323e-05
-1.2779e-06
-1.83887e-05
-1.1436e-06
-1.73898e-05
-9.98822e-07
-1.65657e-05
-8.24169e-07
-1.57895e-05
-7.76136e-07
-1.50326e-05
-7.56978e-07
-1.45383e-05
-4.9427e-07
-1.4106e-05
-4.32349e-07
-1.36511e-05
-4.5482e-07
-1.32989e-05
-3.52206e-07
-1.30119e-05
-2.87053e-07
-1.27941e-05
-2.17803e-07
-1.26711e-05
-1.22963e-07
-1.26503e-05
-2.0824e-08
-1.27347e-05
8.4411e-08
-1.2923e-05
1.88305e-07
-1.31912e-05
2.68205e-07
-1.35118e-05
3.20548e-07
-1.38307e-05
3.18923e-07
-1.4058e-05
2.27217e-07
-1.41112e-05
5.32588e-08
-1.3909e-05
-2.02239e-07
-1.33606e-05
-5.4836e-07
-1.23804e-05
-9.80264e-07
-1.08966e-05
-1.48376e-06
-8.81075e-06
-2.08583e-06
-5.68281e-06
-3.12792e-06
-2.72053e-06
-2.96229e-06
1.25714e-06
-3.97767e-06
6.14591e-06
-4.88878e-06
1.1995e-05
-5.84911e-06
1.88005e-05
-6.80551e-06
2.64093e-05
-7.60882e-06
3.45849e-05
-8.17554e-06
4.30584e-05
-8.47356e-06
5.15097e-05
-8.4513e-06
5.95512e-05
-8.04146e-06
6.67809e-05
-7.22982e-06
7.2856e-05
-6.07508e-06
7.75022e-05
-4.64626e-06
8.05266e-05
-3.02437e-06
8.18653e-05
-1.33863e-06
8.15979e-05
2.67371e-07
7.99267e-05
1.67115e-06
7.72497e-05
2.67707e-06
7.36872e-05
3.56243e-06
6.90365e-05
4.65067e-06
6.31771e-05
5.85945e-06
5.60444e-05
7.13273e-06
4.76109e-05
8.43346e-06
3.78851e-05
9.72587e-06
2.693e-05
1.09551e-05
1.49016e-05
1.20283e-05
2.27804e-06
1.26235e-05
-1.15813e-05
1.38594e-05
-2.30528e-05
1.14715e-05
-3.56165e-05
1.25637e-05
-4.804e-05
1.24235e-05
-5.99794e-05
1.19394e-05
-7.11749e-05
1.11955e-05
-8.14349e-05
1.02601e-05
-9.05534e-05
9.11847e-06
-9.80535e-05
7.50013e-06
-0.000103894
5.84001e-06
2.36842e-06
-0.000105243
-3.12825e-05
-8.41366e-05
-3.07456e-05
-6.34758e-05
-2.98461e-05
-4.39574e-05
-2.90511e-05
-2.61422e-05
-2.68892e-05
-1.03846e-05
-2.48652e-05
5.99592e-06
-2.26018e-05
1.92149e-05
-1.93232e-05
3.00223e-05
-1.63294e-05
3.87737e-05
-1.30973e-05
4.46871e-05
-8.73898e-06
4.67209e-05
-3.1776e-06
4.76566e-05
-1.26671e-06
4.7924e-05
-3.03419e-08
4.70523e-05
1.83602e-06
4.52204e-05
3.35317e-06
4.3383e-05
3.44123e-06
4.17041e-05
3.18508e-06
4.03707e-05
2.58488e-06
3.95443e-05
1.64235e-06
3.92503e-05
5.55339e-07
3.94878e-05
-5.92192e-07
4.03136e-05
-1.84946e-06
4.16304e-05
-2.97902e-06
4.30651e-05
-3.48298e-06
4.41807e-05
-3.02715e-06
4.4777e-05
-2.25383e-06
4.49469e-05
-1.68724e-06
4.49872e-05
-1.6329e-06
4.52461e-05
-2.1736e-06
4.60388e-05
-3.25848e-06
4.75891e-05
-4.71998e-06
4.99218e-05
-6.20171e-06
5.27447e-05
-7.1912e-06
5.55426e-05
-7.31867e-06
5.78063e-05
-6.54843e-06
5.91496e-05
-5.04321e-06
5.93726e-05
-3.03493e-06
5.83691e-05
-7.12333e-07
5.59572e-05
1.83634e-06
5.19492e-05
4.55015e-06
4.65121e-05
7.14434e-06
4.01115e-05
9.26815e-06
3.3159e-05
1.08886e-05
2.59278e-05
1.21417e-05
1.85093e-05
1.32527e-05
1.0761e-05
1.45374e-05
2.60863e-06
1.57817e-05
-4.95246e-06
1.60671e-05
-1.43299e-05
1.62385e-05
-2.313e-05
1.63673e-05
-3.16066e-05
1.5866e-05
-3.94549e-05
1.47238e-05
-4.64168e-05
1.30517e-05
-5.23062e-05
1.10472e-05
-5.70212e-05
8.84438e-06
-6.04289e-05
6.43205e-06
-6.2354e-05
3.81701e-06
-6.28128e-05
1.30326e-06
-6.21818e-05
-6.29574e-07
-6.07623e-05
-2.05058e-06
-5.87029e-05
-3.16476e-06
-5.61155e-05
-4.05151e-06
-5.30535e-05
-4.79021e-06
-4.95702e-05
-5.39284e-06
-4.57897e-05
-5.78362e-06
-4.1892e-05
-5.88997e-06
-3.80085e-05
-5.78991e-06
-3.41953e-05
-5.60089e-06
-3.04822e-05
-5.37229e-06
-2.6897e-05
-5.11474e-06
-2.34624e-05
-4.83823e-06
-2.0204e-05
-4.53623e-06
-1.71622e-05
-4.18545e-06
-1.4387e-05
-3.77398e-06
-1.19008e-05
-3.31035e-06
-9.59401e-06
-3.08297e-06
-7.21625e-06
-3.13475e-06
-5.07601e-06
-2.63452e-06
-3.16982e-06
-2.33853e-06
-1.22019e-06
-2.40445e-06
3.71816e-07
-1.94422e-06
1.86694e-06
-1.78218e-06
3.27558e-06
-1.62643e-06
4.54243e-06
-1.38982e-06
5.65077e-06
-1.12917e-06
6.60321e-06
-8.68033e-07
7.42344e-06
-6.31919e-07
8.14746e-06
-4.5582e-07
8.82513e-06
-3.57145e-07
9.52136e-06
-3.7731e-07
1.03185e-05
-5.69964e-07
1.13291e-05
-9.57303e-07
1.26641e-05
-1.53727e-06
1.44579e-05
-2.3421e-06
1.68057e-05
-3.32808e-06
1.9735e-05
-4.4131e-06
2.32133e-05
-5.56409e-06
2.68904e-05
-6.80508e-06
3.17861e-05
-7.85798e-06
3.6979e-05
-9.1705e-06
4.2701e-05
-1.06108e-05
4.90094e-05
-1.21576e-05
5.58455e-05
-1.36415e-05
6.30338e-05
-1.47972e-05
7.02954e-05
-1.54372e-05
7.73153e-05
-1.54935e-05
8.37896e-05
-1.49255e-05
8.94486e-05
-1.37004e-05
9.39753e-05
-1.17566e-05
9.70068e-05
-9.10655e-06
9.82428e-05
-5.88226e-06
9.76159e-05
-2.39749e-06
9.52419e-05
1.03542e-06
9.12371e-05
4.27211e-06
8.56802e-05
7.22807e-06
7.83832e-05
9.97406e-06
6.94815e-05
1.24641e-05
5.95127e-05
1.46195e-05
4.8839e-05
1.65332e-05
3.768e-05
1.82918e-05
2.61577e-05
1.99557e-05
1.43087e-05
2.15749e-05
2.17629e-06
2.30875e-05
-1.0169e-05
2.43736e-05
-2.18004e-05
2.4255e-05
-3.36219e-05
2.56809e-05
-4.80015e-05
2.5851e-05
-6.15111e-05
2.60733e-05
-7.479e-05
2.57024e-05
-8.76516e-05
2.4801e-05
-9.9862e-05
2.34059e-05
-0.000111159
2.15571e-05
-0.000121388
1.93477e-05
-0.000130026
1.61375e-05
-0.00013745
1.32641e-05
6.86711e-06
-0.000180321
-4.72063e-05
-0.000161824
-4.92428e-05
-0.000141365
-5.03042e-05
-0.0001201
-5.03166e-05
-9.81727e-05
-4.88165e-05
-7.72291e-05
-4.58088e-05
-5.72006e-05
-4.26304e-05
-3.91475e-05
-3.73763e-05
-2.27018e-05
-3.27752e-05
-7.1622e-06
-2.86369e-05
7.14864e-06
-2.30498e-05
1.93674e-05
-1.53964e-05
2.96365e-05
-1.15358e-05
3.90093e-05
-9.40314e-06
4.67622e-05
-5.91692e-06
5.18712e-05
-1.75579e-06
5.67587e-05
-1.44626e-06
6.06963e-05
-7.526e-07
6.37491e-05
-4.67881e-07
6.62231e-05
-8.31645e-07
6.82233e-05
-1.44489e-06
6.96738e-05
-2.04268e-06
7.06417e-05
-2.81737e-06
7.09478e-05
-3.28514e-06
7.02253e-05
-2.76042e-06
6.85404e-05
-1.34224e-06
6.60852e-05
2.01325e-07
6.31678e-05
1.23018e-06
6.00929e-05
1.44201e-06
5.71321e-05
7.87164e-07
5.46339e-05
-7.60272e-07
5.29431e-05
-3.02922e-06
5.21945e-05
-5.45312e-06
5.22197e-05
-7.2164e-06
5.26757e-05
-7.77468e-06
5.31744e-05
-7.04711e-06
5.33573e-05
-5.22606e-06
5.29224e-05
-2.60011e-06
5.168e-05
5.30113e-07
4.9612e-05
3.90435e-06
4.65915e-05
7.57059e-06
4.26771e-05
1.10587e-05
3.81391e-05
1.38062e-05
3.31576e-05
1.58701e-05
2.77893e-05
1.75099e-05
2.19331e-05
1.91089e-05
1.54746e-05
2.09959e-05
8.02778e-06
2.32285e-05
5.42892e-07
2.3552e-05
-7.82987e-06
2.46112e-05
-1.63091e-05
2.48466e-05
-2.46394e-05
2.41963e-05
-3.24837e-05
2.25681e-05
-3.96116e-05
2.01796e-05
-4.59266e-05
1.73623e-05
-5.14025e-05
1.43202e-05
-5.59038e-05
1.09334e-05
-5.90957e-05
7.00892e-06
-6.06749e-05
2.88243e-06
-6.11495e-05
-1.54958e-07
-6.08615e-05
-2.33851e-06
-6.00447e-05
-3.9816e-06
-5.87586e-05
-5.33754e-06
-5.69117e-05
-6.63717e-06
-5.4446e-05
-7.85854e-06
-5.14958e-05
-8.7338e-06
-4.83322e-05
-9.05354e-06
-4.5049e-05
-9.07316e-06
-4.16398e-05
-9.01002e-06
-3.80985e-05
-8.91367e-06
-3.44223e-05
-8.79093e-06
-3.05913e-05
-8.66924e-06
-2.66097e-05
-8.51786e-06
-2.25547e-05
-8.24041e-06
-1.85835e-05
-7.74522e-06
-1.47347e-05
-7.15908e-06
-1.08004e-05
-7.01726e-06
-6.50396e-06
-7.43123e-06
-2.42394e-06
-6.71453e-06
2.02382e-06
-6.78629e-06
6.17613e-06
-6.55675e-06
1.04824e-05
-6.25045e-06
1.46255e-05
-5.92532e-06
1.85036e-05
-5.50452e-06
2.2095e-05
-4.98121e-06
2.53745e-05
-4.40872e-06
2.83161e-05
-3.80964e-06
3.08953e-05
-3.21107e-06
3.3131e-05
-2.69152e-06
3.50277e-05
-2.25383e-06
3.65999e-05
-1.94958e-06
3.789e-05
-1.86008e-06
3.8977e-05
-2.0443e-06
3.99842e-05
-2.54448e-06
4.10148e-05
-3.37263e-06
4.21328e-05
-4.44614e-06
4.33558e-05
-5.63608e-06
4.46753e-05
-6.88361e-06
4.60566e-05
-8.18639e-06
4.77979e-05
-9.5992e-06
4.99553e-05
-1.1328e-05
5.28157e-05
-1.34712e-05
5.66679e-05
-1.60098e-05
6.1613e-05
-1.85866e-05
6.74169e-05
-2.06011e-05
7.36431e-05
-2.16634e-05
7.98567e-05
-2.1707e-05
8.56185e-05
-2.06874e-05
9.03575e-05
-1.84394e-05
9.3534e-05
-1.49332e-05
9.48228e-05
-1.03953e-05
9.42398e-05
-5.29928e-06
9.19664e-05
-1.24071e-07
8.81436e-05
4.85823e-06
8.29939e-05
9.4218e-06
7.67896e-05
1.34324e-05
6.98537e-05
1.691e-05
6.23849e-05
1.99329e-05
5.44493e-05
2.2555e-05
4.60632e-05
2.49192e-05
3.71499e-05
2.72052e-05
2.75413e-05
2.95643e-05
1.70615e-05
3.20547e-05
5.32458e-06
3.48244e-05
-7.88931e-06
3.75875e-05
-1.80616e-05
3.44273e-05
-3.18684e-05
3.94876e-05
-4.55876e-05
3.95703e-05
-5.89966e-05
3.94822e-05
-7.20862e-05
3.8792e-05
-8.47314e-05
3.74463e-05
-9.67567e-05
3.54312e-05
-0.000108015
3.28154e-05
-0.000118324
2.96565e-05
-0.000127267
2.50802e-05
-0.00013525
2.12473e-05
1.30522e-05
-0.000197819
-5.32947e-05
-0.000189989
-5.70733e-05
-0.000180451
-5.98425e-05
-0.000169171
-6.15965e-05
-0.000155845
-6.21424e-05
-0.000140241
-6.1413e-05
-0.000123352
-5.95188e-05
-0.000104653
-5.60752e-05
-8.56242e-05
-5.18044e-05
-6.71576e-05
-4.71035e-05
-4.94374e-05
-4.07701e-05
-3.17813e-05
-3.30525e-05
-1.64594e-05
-2.68577e-05
-2.53194e-06
-2.33306e-05
1.03092e-05
-1.8758e-05
2.12084e-05
-1.2655e-05
2.98966e-05
-1.01345e-05
3.68978e-05
-7.75378e-06
4.21919e-05
-5.76201e-06
4.63915e-05
-5.0312e-06
4.90023e-05
-4.05574e-06
4.91642e-05
-2.20458e-06
4.80402e-05
-1.69332e-06
4.70723e-05
-2.31728e-06
4.6804e-05
-2.49215e-06
4.7293e-05
-1.83123e-06
4.86219e-05
-1.12759e-06
5.05674e-05
-7.15245e-07
5.26917e-05
-6.82369e-07
5.45401e-05
-1.06125e-06
5.599e-05
-2.21015e-06
5.6971e-05
-4.01023e-06
5.70281e-05
-5.51021e-06
5.59628e-05
-6.15107e-06
5.41684e-05
-5.98031e-06
5.20335e-05
-4.91216e-06
4.97844e-05
-2.97698e-06
4.75928e-05
-4.08545e-07
4.55757e-05
2.54719e-06
4.39942e-05
5.48591e-06
4.19743e-05
9.59047e-06
3.91832e-05
1.38499e-05
3.61731e-05
1.68163e-05
3.29955e-05
1.90476e-05
2.95342e-05
2.09712e-05
2.56654e-05
2.29778e-05
2.14128e-05
2.52485e-05
1.70778e-05
2.75635e-05
1.14372e-05
2.91926e-05
5.62148e-06
3.04269e-05
-4.0358e-07
3.08717e-05
-6.46714e-06
3.02599e-05
-1.23788e-05
2.84798e-05
-1.80083e-05
2.58091e-05
-2.34744e-05
2.28284e-05
-2.89449e-05
1.97907e-05
-3.41977e-05
1.61862e-05
-3.84186e-05
1.12298e-05
-4.06704e-05
5.13432e-06
-4.27508e-05
1.92537e-06
-4.458e-05
-5.09247e-07
-4.62104e-05
-2.35125e-06
-4.75612e-05
-3.98677e-06
-4.82195e-05
-5.97883e-06
-4.78047e-05
-8.27335e-06
-4.63805e-05
-1.0158e-05
-4.46617e-05
-1.07723e-05