/*--------------------------------*- C++ -*----------------------------------*\
| =========                 |                                                 |
| \\      /  F ield         | OpenFOAM: The Open Source CFD Toolbox           |
|  \\    /   O peration     | Version:  2206                                  |
|   \\  /    A nd           | Website:  www.openfoam.com                      |
|    \\/     M anipulation  |                                                 |
\*---------------------------------------------------------------------------*/
FoamFile
{
    version     2.0;
    format      ascii;
    arch        "LSB;label=32;scalar=64";
    class       surfaceScalarField;
    location    "18.9999";
    object      phi;
}
// * * * * * * * * * * * * * * * * * * * * * * * * * * * * * * * * * * * * * //

dimensions      [0 3 -1 0 0 0 0];

oriented        oriented;

internalField   nonuniform List<scalar> 
3598
(
4.43322e-06
1.40714e-09
-1.82316e-09
4.43447e-06
4.22935e-09
-5.48112e-09
4.43651e-06
6.95477e-09
-8.99728e-09
4.43927e-06
9.50981e-09
-1.2265e-08
4.44264e-06
1.18486e-08
-1.52247e-08
4.44655e-06
1.39559e-08
-1.78661e-08
4.45092e-06
1.58354e-08
-2.02045e-08
4.45568e-06
1.74993e-08
-2.22613e-08
4.46078e-06
1.89624e-08
-2.40595e-08
4.46616e-06
2.02423e-08
-2.56247e-08
4.47179e-06
2.13589e-08
-2.69847e-08
4.47762e-06
2.23321e-08
-2.8167e-08
4.48364e-06
2.31805e-08
-2.91961e-08
4.48981e-06
2.39208e-08
-3.00937e-08
4.49612e-06
2.45674e-08
-3.08779e-08
4.50255e-06
2.51324e-08
-3.15638e-08
4.50909e-06
2.56261e-08
-3.21637e-08
4.51572e-06
2.60568e-08
-3.26879e-08
4.52244e-06
2.64315e-08
-3.31447e-08
4.52922e-06
2.67559e-08
-3.3541e-08
4.53607e-06
2.70345e-08
-3.3882e-08
4.54297e-06
2.72707e-08
-3.41716e-08
4.54991e-06
2.74672e-08
-3.44131e-08
4.5569e-06
2.7626e-08
-3.46086e-08
4.56391e-06
2.77484e-08
-3.47595e-08
4.57094e-06
2.78351e-08
-3.48666e-08
4.57798e-06
2.78867e-08
-3.49302e-08
4.58503e-06
2.79032e-08
-3.49503e-08
4.59207e-06
2.78846e-08
-3.49268e-08
4.5991e-06
2.78304e-08
-3.48591e-08
4.60611e-06
2.77405e-08
-3.47466e-08
4.61308e-06
2.76143e-08
-3.45883e-08
4.62001e-06
2.74512e-08
-3.43833e-08
4.62689e-06
2.72511e-08
-3.41314e-08
4.63371e-06
2.70142e-08
-3.38326e-08
4.64046e-06
2.67408e-08
-3.34876e-08
4.64712e-06
2.64318e-08
-3.30971e-08
4.6537e-06
2.6088e-08
-3.26626e-08
4.66017e-06
2.57109e-08
-3.21856e-08
4.66654e-06
2.53019e-08
-3.1668e-08
4.67279e-06
2.48627e-08
-3.1112e-08
4.67891e-06
2.43954e-08
-3.05203e-08
4.68491e-06
2.39021e-08
-2.98956e-08
4.69076e-06
2.3385e-08
-2.92408e-08
4.69648e-06
2.28465e-08
-2.85589e-08
4.70204e-06
2.22888e-08
-2.78525e-08
4.70745e-06
2.17142e-08
-2.71248e-08
4.7127e-06
2.1125e-08
-2.63785e-08
4.7178e-06
2.05236e-08
-2.5617e-08
4.72273e-06
1.99117e-08
-2.48427e-08
4.72749e-06
1.92916e-08
-2.40584e-08
4.7321e-06
1.86636e-08
-2.32655e-08
4.73653e-06
1.8029e-08
-2.24641e-08
4.7408e-06
1.73864e-08
-2.16542e-08
4.7449e-06
1.67358e-08
-2.0834e-08
4.74883e-06
1.6075e-08
-2.00024e-08
4.75258e-06
1.54019e-08
-1.91558e-08
4.75616e-06
1.47132e-08
-1.82908e-08
4.75955e-06
1.40045e-08
-1.74019e-08
4.76277e-06
1.32703e-08
-1.64823e-08
4.76579e-06
1.25042e-08
-1.55242e-08
4.76861e-06
1.16971e-08
-1.45169e-08
4.77121e-06
1.08404e-08
-1.34488e-08
4.7736e-06
9.9198e-09
-1.23048e-08
4.77574e-06
8.92435e-09
-1.10689e-08
4.77763e-06
7.83257e-09
-9.71937e-09
4.77924e-06
6.63263e-09
-8.23731e-09
4.78054e-06
5.29394e-09
-6.59436e-09
4.78149e-06
3.8101e-09
-4.76488e-09
4.78206e-06
2.13548e-09
-2.70522e-09
4.7822e-06
2.35247e-10
-3.75314e-10
4.78186e-06
-1.9311e-09
2.27655e-09
4.78096e-06
-4.41512e-09
5.30996e-09
4.77944e-06
-7.27434e-09
8.79348e-09
4.77721e-06
-1.05784e-08
1.2809e-08
4.77417e-06
-1.44103e-08
1.74547e-08
4.77019e-06
-1.88707e-08
2.28491e-08
4.76513e-06
-2.40808e-08
2.91347e-08
4.75884e-06
-3.01878e-08
3.64824e-08
4.75111e-06
-3.73699e-08
4.50993e-08
4.74172e-06
-4.58451e-08
5.52369e-08
4.7304e-06
-5.58811e-08
6.7203e-08
4.71683e-06
-6.7809e-08
8.13756e-08
4.70065e-06
-8.20397e-08
9.82217e-08
4.68141e-06
-9.90869e-08
1.18321e-07
4.65861e-06
-1.19596e-07
1.42397e-07
4.63164e-06
-1.44384e-07
1.71359e-07
4.59977e-06
-1.74491e-07
2.06359e-07
4.56216e-06
-2.11252e-07
2.48861e-07
4.5178e-06
-2.5639e-07
3.00746e-07
4.46551e-06
-3.12146e-07
3.64446e-07
4.40383e-06
-3.81464e-07
4.43139e-07
4.33105e-06
-4.68228e-07
5.4101e-07
4.24499e-06
-5.7764e-07
6.63704e-07
4.14287e-06
-7.16663e-07
8.18781e-07
4.02047e-06
-8.94991e-07
1.01739e-06
3.87185e-06
-1.12534e-06
1.27397e-06
3.68181e-06
-1.42751e-06
1.61755e-06
3.42867e-06
-1.8218e-06
2.07494e-06
2.99012e-06
-2.35818e-06
2.79673e-06
2.22521e-06
-3.00787e-06
3.77278e-06
-4.28404e-06
6.50925e-06
4.43318e-06
1.02771e-09
4.43432e-06
3.0884e-09
4.43619e-06
5.0847e-09
4.43873e-06
6.96714e-09
4.44188e-06
8.70286e-09
4.44556e-06
1.02778e-08
4.4497e-06
1.1691e-08
4.45425e-06
1.29481e-08
4.45916e-06
1.40585e-08
4.46436e-06
1.50338e-08
4.46984e-06
1.58872e-08
4.47554e-06
1.66326e-08
4.48143e-06
1.72834e-08
4.4875e-06
1.78517e-08
4.49372e-06
1.83479e-08
4.50007e-06
1.87814e-08
4.50654e-06
1.91598e-08
4.51311e-06
1.94897e-08
4.51976e-06
1.97764e-08
4.52649e-06
2.00242e-08
4.53329e-06
2.02368e-08
4.54014e-06
2.04168e-08
4.54705e-06
2.05665e-08
4.55398e-06
2.06873e-08
4.56095e-06
2.07803e-08
4.56794e-06
2.08464e-08
4.57494e-06
2.08858e-08
4.58195e-06
2.08989e-08
4.58895e-06
2.08854e-08
4.59593e-06
2.08454e-08
4.60289e-06
2.07787e-08
4.60982e-06
2.0685e-08
4.61671e-06
2.05639e-08
4.62354e-06
2.04156e-08
4.63032e-06
2.024e-08
4.63702e-06
2.00376e-08
4.64364e-06
1.98088e-08
4.65018e-06
1.95545e-08
4.65661e-06
1.92756e-08
4.66294e-06
1.89732e-08
4.66916e-06
1.86486e-08
4.67525e-06
1.83034e-08
4.68121e-06
1.7939e-08
4.68704e-06
1.75572e-08
4.69273e-06
1.71595e-08
4.69827e-06
1.6748e-08
4.70366e-06
1.6324e-08
4.70889e-06
1.58895e-08
4.71397e-06
1.54458e-08
4.71889e-06
1.49947e-08
4.72364e-06
1.45373e-08
4.72823e-06
1.40741e-08
4.73265e-06
1.3606e-08
4.73691e-06
1.31319e-08
4.74099e-06
1.26522e-08
4.7449e-06
1.21646e-08
4.74864e-06
1.16684e-08
4.75219e-06
1.11601e-08
4.75556e-06
1.06373e-08
4.75873e-06
1.00952e-08
4.76171e-06
9.52935e-09
4.76447e-06
8.93285e-09
4.76701e-06
8.29889e-09
4.76931e-06
7.61738e-09
4.77136e-06
6.87855e-09
4.77312e-06
6.06802e-09
4.77459e-06
5.1712e-09
4.77571e-06
4.1699e-09
4.77647e-06
3.05172e-09
4.7768e-06
1.80498e-09
4.77666e-06
3.77856e-10
4.77598e-06
-1.2502e-09
4.77468e-06
-3.12392e-09
4.7727e-06
-5.28609e-09
4.76991e-06
-7.79158e-09
4.7662e-06
-1.07045e-08
4.76144e-06
-1.41036e-08
4.75544e-06
-1.80845e-08
4.74802e-06
-2.27634e-08
4.73893e-06
-2.82813e-08
4.72789e-06
-3.48117e-08
4.71458e-06
-4.25688e-08
4.69859e-06
-5.18179e-08
4.67944e-06
-6.28903e-08
4.65656e-06
-7.6202e-08
4.62924e-06
-9.22783e-08
4.59664e-06
-1.11787e-07
4.55773e-06
-1.35583e-07
4.51125e-06
-1.64767e-07
4.45562e-06
-2.00765e-07
4.38891e-06
-2.45435e-07
4.30866e-06
-3.01212e-07
4.21173e-06
-3.71294e-07
4.09398e-06
-4.59895e-07
3.94986e-06
-5.7254e-07
3.77132e-06
-7.16454e-07
3.54672e-06
-9.00739e-07
3.25618e-06
-1.13697e-06
2.87236e-06
-1.43798e-06
2.33113e-06
-1.81696e-06
1.61005e-06
-2.28679e-06
-2.67398e-06
4.43316e-06
6.72693e-10
4.43422e-06
2.02136e-09
4.43598e-06
3.33059e-09
4.43837e-06
4.56981e-09
4.44136e-06
5.71798e-09
4.44487e-06
6.76489e-09
4.44885e-06
7.70824e-09
4.45325e-06
8.55047e-09
4.45801e-06
9.29676e-09
4.46309e-06
9.9541e-09
4.46845e-06
1.05307e-08
4.47405e-06
1.10352e-08
4.47985e-06
1.14762e-08
4.48584e-06
1.18615e-08
4.49199e-06
1.2198e-08
4.49828e-06
1.2492e-08
4.5047e-06
1.27485e-08
4.51121e-06
1.2972e-08
4.51782e-06
1.31661e-08
4.52451e-06
1.33338e-08
4.53127e-06
1.34776e-08
4.53809e-06
1.35993e-08
4.54496e-06
1.37004e-08
4.55186e-06
1.37821e-08
4.5588e-06
1.38451e-08
4.56575e-06
1.389e-08
4.57272e-06
1.39171e-08
4.57969e-06
1.39268e-08
4.58666e-06
1.39185e-08
4.59361e-06
1.38929e-08
4.60054e-06
1.38496e-08
4.60744e-06
1.37886e-08
4.61429e-06
1.37096e-08
4.6211e-06
1.36128e-08
4.62784e-06
1.34981e-08
4.63451e-06
1.33659e-08
4.6411e-06
1.32166e-08
4.64761e-06
1.30506e-08
4.65401e-06
1.28686e-08
4.66031e-06
1.26715e-08
4.6665e-06
1.24599e-08
4.67257e-06
1.2235e-08
4.67851e-06
1.19977e-08
4.68432e-06
1.17494e-08
4.68999e-06
1.14906e-08
4.69551e-06
1.12235e-08
4.70089e-06
1.0948e-08
4.70611e-06
1.06667e-08
4.71118e-06
1.0379e-08
4.71609e-06
1.00876e-08
4.72083e-06
9.79171e-09
4.72541e-06
9.49329e-09
4.72983e-06
9.19147e-09
4.73407e-06
8.88688e-09
4.73815e-06
8.57893e-09
4.74204e-06
8.26664e-09
4.74576e-06
7.94941e-09
4.7493e-06
7.62509e-09
4.75264e-06
7.292e-09
4.75579e-06
6.94738e-09
4.75873e-06
6.58764e-09
4.76146e-06
6.20951e-09
4.76395e-06
5.80657e-09
4.76619e-06
5.37564e-09
4.76816e-06
4.90481e-09
4.76984e-06
4.39378e-09
4.77119e-06
3.81732e-09
4.77218e-06
3.18443e-09
4.77278e-06
2.44656e-09
4.77293e-06
1.65657e-09
4.77257e-06
7.36499e-10
4.77164e-06
-3.13895e-10
4.77004e-06
-1.52821e-09
4.76769e-06
-2.93661e-09
4.76447e-06
-4.57453e-09
4.76025e-06
-6.48558e-09
4.75487e-06
-8.72346e-09
4.74814e-06
-1.13537e-08
4.73984e-06
-1.44558e-08
4.72968e-06
-1.8127e-08
4.71736e-06
-2.24874e-08
4.70247e-06
-2.76853e-08
4.68456e-06
-3.39055e-08
4.66305e-06
-4.13797e-08
4.63725e-06
-5.03993e-08
4.6063e-06
-6.13343e-08
4.56917e-06
-7.46566e-08
4.52456e-06
-9.09717e-08
4.47086e-06
-1.11061e-07
4.40603e-06
-1.3594e-07
4.32752e-06
-1.66929e-07
4.23207e-06
-2.05753e-07
4.11543e-06
-2.54662e-07
3.97211e-06
-3.16572e-07
3.79478e-06
-3.95211e-07
3.57354e-06
-4.95216e-07
3.29484e-06
-6.22038e-07
2.93926e-06
-7.81388e-07
2.47866e-06
-9.77392e-07
1.86867e-06
-1.20696e-06
1.03863e-06
-1.45675e-06
-1.63535e-06
4.43314e-06
4.43416e-06
4.43584e-06
4.43815e-06
4.44103e-06
4.44444e-06
4.44832e-06
4.45262e-06
4.45728e-06
4.62836e-09
4.46228e-06
4.95974e-09
4.46756e-06
5.25092e-09
4.47309e-06
5.50607e-09
4.47884e-06
5.72932e-09
4.48477e-06
5.92451e-09
4.49088e-06
6.0951e-09
4.49712e-06
6.24412e-09
4.5035e-06
6.37418e-09
4.50998e-06
6.48749e-09
4.51656e-06
6.5859e-09
4.52322e-06
6.67095e-09
4.52996e-06
6.74388e-09
4.53675e-06
6.80567e-09
4.5436e-06
6.85713e-09
4.55048e-06
6.89884e-09
4.55739e-06
6.93125e-09
4.56433e-06
6.95471e-09
4.57128e-06
6.96934e-09
4.57823e-06
6.97559e-09
4.58517e-06
6.97264e-09
4.5921e-06
6.96163e-09
4.59901e-06
6.94169e-09
4.60589e-06
6.91359e-09
4.61272e-06
6.87659e-09
4.6195e-06
6.83123e-09
4.62622e-06
6.77712e-09
4.63287e-06
6.71491e-09
4.63945e-06
6.64432e-09
4.64593e-06
6.5661e-09
4.65232e-06
6.48015e-09
4.6586e-06
6.38729e-09
4.66478e-06
6.28756e-09
4.67083e-06
6.18195e-09
4.67676e-06
6.07041e-09
4.68255e-06
5.95433e-09
4.68821e-06
5.83328e-09
4.69372e-06
5.70922e-09
4.69909e-06
5.58114e-09
4.7043e-06
5.45161e-09
4.70936e-06
5.31903e-09
4.71427e-06
5.18634e-09
4.71901e-06
5.05153e-09
4.72358e-06
4.91743e-09
4.72799e-06
4.78203e-09
4.73223e-06
4.64722e-09
4.7363e-06
4.51176e-09
4.74019e-06
4.37582e-09
4.7439e-06
4.23937e-09
4.74742e-06
4.10082e-09
4.75075e-06
3.96035e-09
4.75389e-06
3.8164e-09
4.75681e-06
3.66661e-09
4.7595e-06
3.5119e-09
4.76197e-06
3.34549e-09
4.76417e-06
3.17076e-09
4.7661e-06
2.97769e-09
4.76772e-06
2.77008e-09
4.769e-06
2.53308e-09
4.76991e-06
2.27977e-09
4.7704e-06
1.95654e-09
4.77043e-06
1.62635e-09
4.76992e-06
1.24268e-09
4.76881e-06
7.96786e-10
4.76701e-06
2.71834e-10
4.76442e-06
-3.4448e-10
4.76091e-06
-1.06848e-09
4.75635e-06
-1.92151e-09
4.75056e-06
-2.92997e-09
4.74333e-06
-4.12596e-09
4.73442e-06
-5.54877e-09
4.72354e-06
-7.24703e-09
4.71034e-06
-9.2806e-09
4.69437e-06
-1.17241e-08
4.67514e-06
-1.46709e-08
4.652e-06
-1.82381e-08
4.62417e-06
-2.2574e-08
4.59071e-06
-2.78676e-08
4.55041e-06
-3.43605e-08
4.5018e-06
-4.23642e-08
4.44302e-06
-5.22817e-08
4.37172e-06
-6.46373e-08
4.28491e-06
-8.01136e-08
4.17875e-06
-9.96e-08
4.04834e-06
-1.2425e-07
3.88732e-06
-1.55546e-07
3.68745e-06
-1.95348e-07
3.43813e-06
-2.45898e-07
3.1258e-06
-3.09707e-07
2.73352e-06
-3.89105e-07
2.24128e-06
-4.8515e-07
1.62925e-06
-5.94932e-07
8.80922e-07
-7.08421e-07
-7.54431e-07
4.45693e-06
4.46188e-06
4.46712e-06
4.47262e-06
4.47834e-06
4.48425e-06
4.49033e-06
4.49655e-06
4.50291e-06
4.50938e-06
4.51594e-06
4.52259e-06
4.52931e-06
4.53609e-06
4.54292e-06
4.5498e-06
4.5567e-06
4.56362e-06
4.57056e-06
4.5775e-06
4.58444e-06
4.59136e-06
4.59826e-06
4.60512e-06
4.61194e-06
4.61871e-06
4.62543e-06
4.63207e-06
4.63863e-06
4.6451e-06
4.65148e-06
4.65776e-06
4.66393e-06
4.66997e-06
4.67589e-06
4.68168e-06
4.68733e-06
4.69284e-06
4.69821e-06
4.70342e-06
4.70848e-06
4.71338e-06
4.71812e-06
4.72269e-06
4.7271e-06
4.73134e-06
4.7354e-06
4.73929e-06
4.743e-06
4.74652e-06
4.74985e-06
4.75297e-06
4.75588e-06
4.75858e-06
4.76102e-06
4.76321e-06
4.76512e-06
4.76672e-06
4.76798e-06
4.76887e-06
4.7693e-06
4.76926e-06
4.76868e-06
4.76749e-06
4.7656e-06
4.7629e-06
4.75926e-06
4.75453e-06
4.74854e-06
4.74107e-06
4.73187e-06
4.72064e-06
4.70699e-06
4.6905e-06
4.67061e-06
4.64666e-06
4.61782e-06
4.58309e-06
4.54119e-06
4.49056e-06
4.4292e-06
4.3546e-06
4.26354e-06
4.15193e-06
4.01452e-06
3.84455e-06
3.63345e-06
3.37039e-06
3.04205e-06
2.63284e-06
2.12618e-06
1.50862e-06
7.76977e-07
3.94707e-07
-3.92288e-07
-2.41922e-09
6.47486e-07
-1.2015e-07
-1.32629e-07
1.76352e-07
-4.13497e-07
-1.25701e-07
-2.66587e-07
-1.92594e-07
-5.32559e-08
2.11263e-07
-2.61297e-07
-5.28971e-09
-4.64621e-07
1.50068e-07
4.11658e-07
-2.91491e-07
2.86202e-07
-5.70371e-07
4.28947e-07
6.91282e-07
-2.57605e-07
-5.43039e-07
4.38961e-06
4.31913e-08
4.32861e-06
6.0996e-08
4.26319e-06
6.54189e-08
4.19521e-06
6.79819e-08
4.12497e-06
7.02434e-08
4.05285e-06
7.21229e-08
3.97983e-06
7.30195e-08
3.90614e-06
7.36844e-08
3.83213e-06
7.40088e-08
3.75798e-06
7.41564e-08
3.68379e-06
7.41859e-08
3.60969e-06
7.40962e-08
3.53583e-06
7.38642e-08
3.46229e-06
7.35389e-08
3.38912e-06
7.31707e-08
3.31636e-06
7.2762e-08
3.24405e-06
7.23068e-08
3.17225e-06
7.18007e-08
3.10101e-06
7.12429e-08
3.03037e-06
7.0634e-08
2.9604e-06
6.99784e-08
2.89112e-06
6.92803e-08
2.82258e-06
6.85369e-08
2.75482e-06
6.77596e-08
2.68789e-06
6.69312e-08
2.62181e-06
6.60751e-08
2.55659e-06
6.52218e-08
2.49217e-06
6.44176e-08
2.42868e-06
6.34891e-08
2.36635e-06
6.23347e-08
2.3053e-06
6.10479e-08
2.24563e-06
5.9669e-08
2.18743e-06
5.82033e-08
2.13077e-06
5.6656e-08
2.07574e-06
5.50334e-08
2.0224e-06
5.33408e-08
1.97082e-06
5.15833e-08
1.92105e-06
4.97641e-08
1.87316e-06
4.78897e-08
1.82719e-06
4.59699e-08
1.78318e-06
4.40162e-08
1.74114e-06
4.20368e-08
1.7011e-06
4.00388e-08
1.6631e-06
3.79958e-08
1.62715e-06
3.59501e-08
1.5932e-06
3.39573e-08
1.5612e-06
3.1996e-08
1.53114e-06
3.00649e-08
1.50296e-06
2.81745e-08
1.47664e-06
2.63187e-08
1.45213e-06
2.45106e-08
1.42938e-06
2.27537e-08
1.40832e-06
2.10585e-08
1.38889e-06
1.94279e-08
1.37103e-06
1.78664e-08
1.35465e-06
1.6371e-08
1.33971e-06
1.49425e-08
1.32614e-06
1.35736e-08
1.31387e-06
1.22699e-08
1.30285e-06
1.10173e-08
1.29304e-06
9.80903e-09
1.28441e-06
8.63194e-09
1.27693e-06
7.48152e-09
1.27059e-06
6.33892e-09
1.26538e-06
5.20568e-09
1.26134e-06
4.04467e-09
1.25847e-06
2.87243e-09
1.25686e-06
1.6094e-09
1.25663e-06
2.23874e-10
1.25786e-06
-1.22154e-09
1.26072e-06
-2.8674e-09
1.26543e-06
-4.71115e-09
1.27209e-06
-6.65548e-09
1.28092e-06
-8.83549e-09
1.29202e-06
-1.10957e-08
1.30579e-06
-1.37705e-08
1.3225e-06
-1.67081e-08
1.3425e-06
-1.99995e-08
1.36622e-06
-2.37239e-08
1.39418e-06
-2.79529e-08
1.42697e-06
-3.27978e-08
1.46529e-06
-3.83159e-08
1.50989e-06
-4.46019e-08
1.56165e-06
-5.1757e-08
1.62154e-06
-5.98897e-08
1.69064e-06
-6.91061e-08
1.77016e-06
-7.95125e-08
1.86142e-06
-9.12601e-08
1.96598e-06
-1.04563e-07
2.08561e-06
-1.19628e-07
2.22216e-06
-1.3655e-07
2.37748e-06
-1.55323e-07
2.55369e-06
-1.76213e-07
2.75303e-06
-1.99334e-07
2.97781e-06
-2.24782e-07
3.22807e-06
-2.50263e-07
3.50148e-06
-2.73409e-07
3.79609e-06
-2.94611e-07
4.10909e-06
-3.13003e-07
4.43534e-06
-3.26247e-07
4.76745e-06
-3.32104e-07
-3.28755e-07
5.0962e-06
4.45657e-06
1.94196e-08
4.47444e-06
4.31267e-08
4.48639e-06
5.34713e-08
4.49368e-06
6.06917e-08
4.49803e-06
6.58915e-08
4.50003e-06
7.01257e-08
4.49995e-06
7.31003e-08
4.49803e-06
7.56026e-08
4.49449e-06
7.75483e-08
4.48945e-06
7.9192e-08
4.48297e-06
8.06715e-08
4.47516e-06
8.19033e-08
4.46624e-06
8.27806e-08
4.45623e-06
8.35574e-08
4.44512e-06
8.42805e-08
4.43295e-06
8.49255e-08
4.41977e-06
8.54915e-08
4.4056e-06
8.59638e-08
4.39051e-06
8.63427e-08
4.37451e-06
8.66304e-08
4.35765e-06
8.68403e-08
4.33994e-06
8.69838e-08
4.32145e-06
8.70337e-08
4.30215e-06
8.70534e-08
4.28213e-06
8.69582e-08
4.2614e-06
8.67976e-08
4.24004e-06
8.65892e-08
4.21814e-06
8.63152e-08
4.19574e-06
8.58873e-08
4.17278e-06
8.52905e-08
4.14934e-06
8.44917e-08
4.12546e-06
8.35465e-08
4.1012e-06
8.24669e-08
4.0766e-06
8.12527e-08
4.05173e-06
7.99085e-08
4.02663e-06
7.844e-08
4.00136e-06
7.68544e-08
3.97597e-06
7.51498e-08
3.95053e-06
7.33353e-08
3.92507e-06
7.14219e-08
3.89967e-06
6.94238e-08
3.87435e-06
6.73573e-08
3.84915e-06
6.52372e-08
3.82407e-06
6.30779e-08
3.79915e-06
6.08687e-08
3.77449e-06
5.86111e-08
3.75015e-06
5.63364e-08
3.72616e-06
5.40566e-08
3.70255e-06
5.17845e-08
3.67936e-06
4.9514e-08
3.65661e-06
4.72578e-08
3.63434e-06
4.50214e-08
3.61258e-06
4.28222e-08
3.59134e-06
4.06665e-08
3.57064e-06
3.8562e-08
3.55051e-06
3.65048e-08
3.53095e-06
3.44983e-08
3.51199e-06
3.25325e-08
3.49365e-06
3.06177e-08
3.47593e-06
2.87298e-08
3.45888e-06
2.68649e-08
3.44251e-06
2.49993e-08
3.42686e-06
2.31297e-08
3.41198e-06
2.12263e-08
3.3979e-06
1.92855e-08
3.38467e-06
1.72661e-08
3.37239e-06
1.51578e-08
3.36109e-06
1.29076e-08
3.35081e-06
1.05085e-08
3.34168e-06
7.90101e-09
3.33379e-06
5.02131e-09
3.32726e-06
1.82208e-09
3.32232e-06
-1.71172e-09
3.31928e-06
-5.79685e-09
3.31836e-06
-1.0172e-08
3.31972e-06
-1.51393e-08
3.32375e-06
-2.0733e-08
3.3308e-06
-2.70499e-08
3.34128e-06
-3.42047e-08
3.35565e-06
-4.23254e-08
3.37441e-06
-5.15573e-08
3.39814e-06
-6.20485e-08
3.42751e-06
-7.39685e-08
3.46326e-06
-8.75045e-08
3.50623e-06
-1.02864e-07
3.5574e-06
-1.20269e-07
3.61786e-06
-1.39979e-07
3.68891e-06
-1.6231e-07
3.77205e-06
-1.87706e-07
3.86894e-06
-2.16508e-07
3.98104e-06
-2.4865e-07
4.10957e-06
-2.83855e-07
4.25544e-06
-3.22084e-07
4.4197e-06
-3.63597e-07
4.60377e-06
-4.08852e-07
4.80774e-06
-4.54231e-07
5.03222e-06
-4.97893e-07
5.27832e-06
-5.40702e-07
5.54479e-06
-5.79482e-07
5.82867e-06
-6.10127e-07
6.12482e-06
-6.28254e-07
-6.29935e-07
6.426e-06
4.4409e-06
1.13197e-08
4.45342e-06
3.0605e-08
4.46495e-06
4.19448e-08
4.47611e-06
4.95289e-08
4.48659e-06
5.5412e-08
4.49642e-06
6.02912e-08
4.50541e-06
6.41144e-08
4.51374e-06
6.72722e-08
4.52145e-06
6.98393e-08
4.52865e-06
7.19886e-08
4.53568e-06
7.3643e-08
4.5425e-06
7.50861e-08
4.54871e-06
7.65687e-08
4.55437e-06
7.79037e-08
4.55958e-06
7.90624e-08
4.56443e-06
8.00826e-08
4.56892e-06
8.09991e-08
4.57306e-06
8.18214e-08
4.57684e-06
8.25611e-08
4.58025e-06
8.32279e-08
4.58328e-06
8.38038e-08
4.58598e-06
8.4288e-08
4.58833e-06
8.468e-08
4.59034e-06
8.50467e-08
4.59199e-06
8.53043e-08
4.5933e-06
8.54854e-08
4.59425e-06
8.56472e-08
4.59482e-06
8.57446e-08
4.59507e-06
8.56316e-08
4.59499e-06
8.53699e-08
4.59454e-06
8.49454e-08
4.5937e-06
8.4386e-08
4.59247e-06
8.36946e-08
4.59085e-06
8.28707e-08
4.58885e-06
8.19161e-08
4.58645e-06
8.08342e-08
4.58368e-06
7.96288e-08
4.58053e-06
7.82931e-08
4.57703e-06
7.68369e-08
4.57318e-06
7.52795e-08
4.56898e-06
7.36221e-08
4.56445e-06
7.18805e-08
4.55961e-06
7.00822e-08
4.55446e-06
6.82241e-08
4.54904e-06
6.62875e-08
4.54335e-06
6.43026e-08
4.53741e-06
6.22755e-08
4.53124e-06
6.0227e-08
4.52486e-06
5.81647e-08
4.51829e-06
5.60848e-08
4.51156e-06
5.3986e-08
4.5047e-06
5.18829e-08
4.49773e-06
4.97937e-08
4.49067e-06
4.77268e-08
4.48355e-06
4.56856e-08
4.47638e-06
4.36698e-08
4.4692e-06
4.16792e-08
4.46203e-06
3.97065e-08
4.45489e-06
3.77561e-08
4.44781e-06
3.58093e-08
4.44082e-06
3.38539e-08
4.43395e-06
3.18733e-08
4.42722e-06
2.98505e-08
4.42069e-06
2.77651e-08
4.41438e-06
2.55959e-08
4.40833e-06
2.33134e-08
4.4026e-06
2.08901e-08
4.39721e-06
1.82978e-08
4.39223e-06
1.54807e-08
4.38778e-06
1.23544e-08
4.3839e-06
8.89964e-09
4.38066e-06
5.06498e-09
4.37813e-06
8.22339e-10
4.37637e-06
-4.04534e-09
4.37568e-06
-9.47436e-09
4.37615e-06
-1.56159e-08
4.378e-06
-2.2582e-08
4.38145e-06
-3.04954e-08
4.38675e-06
-3.9504e-08
4.3942e-06
-4.97754e-08
4.40414e-06
-6.14991e-08
4.41698e-06
-7.4888e-08
4.43319e-06
-9.01793e-08
4.45332e-06
-1.07635e-07
4.47801e-06
-1.27557e-07
4.50798e-06
-1.5024e-07
4.54401e-06
-1.76004e-07
4.58696e-06
-2.05261e-07
4.63786e-06
-2.38607e-07
4.69773e-06
-2.76381e-07
4.76764e-06
-3.18558e-07
4.84892e-06
-3.6513e-07
4.94351e-06
-4.16675e-07
5.05372e-06
-4.73814e-07
5.17945e-06
-5.34576e-07
5.32576e-06
-6.0054e-07
5.49914e-06
-6.71279e-07
5.69955e-06
-7.41107e-07
5.92607e-06
-8.06001e-07
6.17737e-06
-8.61432e-07
6.44945e-06
-9.0033e-07
-9.15831e-07
6.73535e-06
4.43657e-06
7.55317e-09
4.44509e-06
2.2085e-08
4.45425e-06
3.27802e-08
4.46325e-06
4.05322e-08
4.47206e-06
4.66027e-08
4.48072e-06
5.16273e-08
4.48913e-06
5.57088e-08
4.49735e-06
5.90524e-08
4.50537e-06
6.18115e-08
4.51324e-06
6.41218e-08
4.52086e-06
6.60223e-08
4.52829e-06
6.76558e-08
4.53572e-06
6.91423e-08
4.54311e-06
7.05124e-08
4.55044e-06
7.1736e-08
4.55769e-06
7.28305e-08
4.56487e-06
7.38131e-08
4.572e-06
7.46995e-08
4.57907e-06
7.54908e-08
4.58609e-06
7.61996e-08
4.59307e-06
7.68243e-08
4.59999e-06
7.73698e-08
4.60684e-06
7.78273e-08
4.61368e-06
7.8214e-08
4.62047e-06
7.85096e-08
4.62723e-06
7.87288e-08
4.63405e-06
7.88222e-08
4.64099e-06
7.88076e-08
4.64784e-06
7.87796e-08
4.65452e-06
7.86972e-08
4.66098e-06
7.84799e-08
4.66724e-06
7.81265e-08
4.67329e-06
7.76408e-08
4.67913e-06
7.70352e-08
4.68474e-06
7.63051e-08
4.69012e-06
7.54599e-08
4.69525e-06
7.44952e-08
4.70011e-06
7.34317e-08
4.70468e-06
7.22629e-08
4.70898e-06
7.09869e-08
4.71302e-06
6.95784e-08
4.71681e-06
6.80945e-08
4.72034e-06
6.65457e-08
4.72361e-06
6.49541e-08
4.72664e-06
6.32654e-08
4.72939e-06
6.15484e-08
4.7319e-06
5.97684e-08
4.73413e-06
5.79946e-08
4.73608e-06
5.62177e-08
4.73778e-06
5.4379e-08
4.73928e-06
5.24888e-08
4.74057e-06
5.05945e-08
4.74165e-06
4.87116e-08
4.74253e-06
4.68417e-08
4.74324e-06
4.49843e-08
4.74377e-06
4.31397e-08
4.74414e-06
4.13057e-08
4.74437e-06
3.94744e-08
4.74448e-06
3.76434e-08
4.74449e-06
3.57998e-08
4.74442e-06
3.39303e-08
4.74427e-06
3.20186e-08
4.74408e-06
3.00468e-08
4.74385e-06
2.79926e-08
4.74361e-06
2.58304e-08
4.74339e-06
2.3535e-08
4.74321e-06
2.10751e-08
4.7431e-06
1.84083e-08
4.74309e-06
1.54837e-08
4.74321e-06
1.22424e-08
4.74347e-06
8.63553e-09
4.74393e-06
4.60434e-09
4.74467e-06
8.53363e-11
4.74566e-06
-5.03887e-09
4.74702e-06
-1.08358e-08
4.74882e-06
-1.74182e-08
4.75116e-06
-2.49184e-08
4.75415e-06
-3.34838e-08
4.75793e-06
-4.32812e-08
4.76265e-06
-5.44974e-08
4.7685e-06
-6.73543e-08
4.77573e-06
-8.21104e-08
4.7846e-06
-9.90559e-08
4.79549e-06
-1.18526e-07
4.80888e-06
-1.40945e-07
4.82526e-06
-1.6662e-07
4.84525e-06
-1.95988e-07
4.86971e-06
-2.29731e-07
4.89925e-06
-2.68147e-07
4.93473e-06
-3.1186e-07
4.97816e-06
-3.61982e-07
5.03278e-06
-4.19748e-07
5.10155e-06
-4.85452e-07
5.18662e-06
-5.58883e-07
5.29219e-06
-6.40142e-07
5.42084e-06
-7.29189e-07
5.57476e-06
-8.25203e-07
5.75883e-06
-9.25169e-07
5.97554e-06
-1.02272e-06
6.22604e-06
-1.11193e-06
6.50539e-06
-1.17968e-06
-1.21777e-06
6.80733e-06
4.43481e-06
5.53961e-09
4.44013e-06
1.67651e-08
4.44679e-06
2.61268e-08
4.45385e-06
3.34696e-08
4.46113e-06
3.9318e-08
4.46859e-06
4.41711e-08
4.47608e-06
4.8221e-08
4.48354e-06
5.15863e-08
4.49097e-06
5.4386e-08
4.49836e-06
5.67313e-08
4.50567e-06
5.87086e-08
4.51292e-06
6.04074e-08
4.52016e-06
6.19054e-08
4.52742e-06
6.3253e-08
4.5347e-06
6.44544e-08
4.54201e-06
6.55192e-08
4.54936e-06
6.64663e-08
4.55675e-06
6.73124e-08
4.56417e-06
6.80655e-08
4.57164e-06
6.87334e-08
4.57914e-06
6.93206e-08
4.58668e-06
6.983e-08
4.59425e-06
7.02605e-08
4.60183e-06
7.06292e-08
4.60942e-06
7.09227e-08
4.61701e-06
7.11365e-08
4.62457e-06
7.12663e-08
4.63207e-06
7.13072e-08
4.63957e-06
7.12752e-08
4.64709e-06
7.11749e-08
4.65459e-06
7.0986e-08
4.66203e-06
7.06891e-08
4.66938e-06
7.02827e-08
4.67665e-06
6.97708e-08
4.6838e-06
6.91484e-08
4.69084e-06
6.84261e-08
4.69774e-06
6.75974e-08
4.70449e-06
6.66773e-08
4.7111e-06
6.5656e-08
4.71754e-06
6.45491e-08
4.72377e-06
6.3339e-08
4.72981e-06
6.20605e-08
4.73565e-06
6.07013e-08
4.74131e-06
5.92937e-08
4.74677e-06
5.78075e-08
4.75203e-06
5.62925e-08
4.75709e-06
5.47085e-08
4.76199e-06
5.30939e-08
4.76679e-06
5.14154e-08
4.77141e-06
4.97596e-08
4.77577e-06
4.81325e-08
4.77986e-06
4.65027e-08
4.78371e-06
4.48575e-08
4.78734e-06
4.32093e-08
4.79077e-06
4.15537e-08
4.79402e-06
3.98982e-08
4.79708e-06
3.82411e-08
4.79999e-06
3.65686e-08
4.80275e-06
3.48839e-08
4.80537e-06
3.31751e-08
4.80787e-06
3.14297e-08
4.81026e-06
2.96308e-08
4.81254e-06
2.7763e-08
4.81473e-06
2.58037e-08
4.81683e-06
2.37318e-08
4.81885e-06
2.15118e-08
4.82082e-06
1.91065e-08
4.82275e-06
1.648e-08
4.82465e-06
1.35877e-08
4.82651e-06
1.03768e-08
4.82836e-06
6.78873e-09
4.8302e-06
2.76608e-09
4.83204e-06
-1.75567e-09
4.83389e-06
-6.8908e-09
4.8358e-06
-1.27458e-08
4.8378e-06
-1.94226e-08
4.83994e-06
-2.70528e-08
4.84225e-06
-3.57931e-08
4.84479e-06
-4.58277e-08
4.84768e-06
-5.73798e-08
4.85104e-06
-7.07136e-08
4.85502e-06
-8.60968e-08
4.85981e-06
-1.03839e-07
4.86561e-06
-1.24332e-07
4.87266e-06
-1.47994e-07
4.88156e-06
-1.75518e-07
4.89315e-06
-2.07581e-07
4.90813e-06
-2.44712e-07
4.92769e-06
-2.87704e-07
4.95329e-06
-3.37458e-07
4.98648e-06
-3.9517e-07
5.02887e-06
-4.62146e-07
5.08301e-06
-5.39591e-07
5.15257e-06
-6.28438e-07
5.24185e-06
-7.29422e-07
5.3557e-06
-8.4304e-07
5.49938e-06
-9.68882e-07
5.67918e-06
-1.10498e-06
5.90019e-06
-1.24373e-06
6.16914e-06
-1.38088e-06
6.47624e-06
-1.48677e-06
-1.56378e-06
6.82225e-06
4.43399e-06
4.35068e-09
4.43757e-06
1.31871e-08
4.44263e-06
2.10598e-08
4.44847e-06
2.76337e-08
4.45474e-06
3.30456e-08
4.46132e-06
3.75965e-08
4.46808e-06
4.1461e-08
4.47494e-06
4.47246e-08
4.48186e-06
4.74691e-08
4.4888e-06
4.97903e-08
4.49574e-06
5.17664e-08
4.50268e-06
5.34664e-08
4.50964e-06
5.49481e-08
4.51663e-06
5.62559e-08
4.52368e-06
5.7413e-08
4.53076e-06
5.8435e-08
4.53789e-06
5.93392e-08
4.54506e-06
6.01409e-08
4.55227e-06
6.08505e-08
4.55953e-06
6.14755e-08
4.56683e-06
6.20213e-08
4.57417e-06
6.2492e-08
4.58154e-06
6.28903e-08
4.58895e-06
6.32219e-08
4.59638e-06
6.34838e-08
4.60385e-06
6.36723e-08
4.61133e-06
6.3786e-08
4.61881e-06
6.38218e-08
4.62631e-06
6.37842e-08
4.6338e-06
6.36783e-08
4.64129e-06
6.34966e-08
4.64876e-06
6.32241e-08
4.65618e-06
6.28567e-08
4.66356e-06
6.2397e-08
4.67086e-06
6.1843e-08
4.67809e-06
6.11997e-08
4.68522e-06
6.04655e-08
4.69225e-06
5.96482e-08
4.69916e-06
5.87457e-08
4.70594e-06
5.77671e-08
4.71257e-06
5.67071e-08
4.71905e-06
5.55795e-08
4.72537e-06
5.43888e-08
4.73151e-06
5.31509e-08
4.73746e-06
5.18552e-08
4.74324e-06
5.05177e-08
4.74881e-06
4.91325e-08
4.75419e-06
4.77164e-08
4.75934e-06
4.62656e-08
4.7643e-06
4.48014e-08
4.76909e-06
4.33415e-08
4.77371e-06
4.18818e-08
4.77815e-06
4.04142e-08
4.78242e-06
3.89422e-08
4.78651e-06
3.74595e-08
4.79044e-06
3.59733e-08
4.7942e-06
3.44777e-08
4.79781e-06
3.29626e-08
4.80127e-06
3.14263e-08
4.80458e-06
2.98585e-08
4.80777e-06
2.82471e-08
4.81082e-06
2.65777e-08
4.81375e-06
2.48329e-08
4.81656e-06
2.29916e-08
4.81926e-06
2.10306e-08
4.82185e-06
1.89207e-08
4.82433e-06
1.6627e-08
4.8267e-06
1.41108e-08
4.82896e-06
1.13287e-08
4.83111e-06
8.22887e-09
4.83314e-06
4.75305e-09
4.83508e-06
8.31494e-10
4.83694e-06
-3.61741e-09
4.83871e-06
-8.65994e-09
4.84035e-06
-1.43884e-08
4.84187e-06
-2.09373e-08
4.84327e-06
-2.84572e-08
4.8446e-06
-3.71174e-08
4.84588e-06
-4.71128e-08
4.84717e-06
-5.86692e-08
4.8485e-06
-7.20429e-08
4.84997e-06
-8.75641e-08
4.85175e-06
-1.05621e-07
4.85407e-06
-1.26655e-07
4.85727e-06
-1.51188e-07
4.8616e-06
-1.7985e-07
4.86743e-06
-2.13413e-07
4.87546e-06
-2.5274e-07
4.8866e-06
-2.98842e-07
4.90208e-06
-3.52938e-07
4.92345e-06
-4.16546e-07
4.95276e-06
-4.91449e-07
4.99275e-06
-5.79586e-07
5.04722e-06
-6.82903e-07
5.12116e-06
-8.03368e-07
5.22081e-06
-9.42684e-07
5.35376e-06
-1.10184e-06
5.52894e-06
-1.28015e-06
5.75625e-06
-1.47103e-06
6.05199e-06
-1.67662e-06
6.40127e-06
-1.83606e-06
-2.00998e-06
6.84747e-06
4.43364e-06
3.50575e-09
4.43626e-06
1.05708e-08
4.44021e-06
1.71066e-08
4.44503e-06
2.28203e-08
4.45039e-06
2.76861e-08
4.45614e-06
3.18389e-08
4.4622e-06
3.54094e-08
4.46846e-06
3.84613e-08
4.47487e-06
4.10577e-08
4.48139e-06
4.32716e-08
4.48799e-06
4.51668e-08
4.49466e-06
4.67992e-08
4.50139e-06
4.82174e-08
4.50818e-06
4.94598e-08
4.51504e-06
5.05529e-08
4.52196e-06
5.15155e-08
4.52894e-06
5.23637e-08
4.53597e-06
5.31116e-08
4.54305e-06
5.377e-08
4.55018e-06
5.43467e-08
4.55735e-06
5.48478e-08
4.56456e-06
5.52779e-08
4.57181e-06
5.56403e-08
4.5791e-06
5.59377e-08
4.58641e-06
5.61704e-08
4.59375e-06
5.63373e-08
4.6011e-06
5.6437e-08
4.60845e-06
5.64689e-08
4.6158e-06
5.64345e-08
4.62314e-06
5.63342e-08
4.63048e-06
5.61635e-08
4.63778e-06
5.59159e-08
4.64505e-06
5.55874e-08
4.65227e-06
5.51789e-08
4.65942e-06
5.46902e-08
4.6665e-06
5.41232e-08
4.67349e-06
5.34788e-08
4.68038e-06
5.27603e-08
4.68715e-06
5.19692e-08
4.69381e-06
5.11095e-08
4.70033e-06
5.01829e-08
4.70672e-06
4.91963e-08
4.71295e-06
4.81557e-08
4.71903e-06
4.70682e-08
4.72495e-06
4.59346e-08
4.73071e-06
4.47606e-08
4.73629e-06
4.35499e-08
4.7417e-06
4.23094e-08
4.74692e-06
4.1043e-08
4.75196e-06
3.976e-08
4.75683e-06
3.84722e-08
4.76153e-06
3.71813e-08
4.76607e-06
3.58827e-08
4.77043e-06
3.45757e-08
4.77463e-06
3.32586e-08
4.77867e-06
3.19321e-08
4.78256e-06
3.05913e-08
4.78629e-06
2.92307e-08
4.78987e-06
2.78446e-08
4.79331e-06
2.6424e-08
4.7966e-06
2.49575e-08
4.79975e-06
2.3431e-08
4.80275e-06
2.18279e-08
4.80561e-06
2.01285e-08
4.80833e-06
1.831e-08
4.81091e-06
1.63461e-08
4.81333e-06
1.42038e-08
4.8156e-06
1.18462e-08
4.81769e-06
9.23113e-09
4.81961e-06
6.30927e-09
4.82134e-06
3.02398e-09
4.82286e-06
-6.85556e-10
4.82415e-06
-4.90745e-09
4.8252e-06
-9.71347e-09
4.82602e-06
-1.52036e-08
4.82658e-06
-2.14992e-08
4.82687e-06
-2.87483e-08
4.82688e-06
-3.71224e-08
4.82658e-06
-4.68214e-08
4.826e-06
-5.80812e-08
4.82513e-06
-7.1181e-08