/*--------------------------------*- C++ -*----------------------------------*\
| =========                 |                                                 |
| \\      /  F ield         | OpenFOAM: The Open Source CFD Toolbox           |
|  \\    /   O peration     | Version:  2206                                  |
|   \\  /    A nd           | Website:  www.openfoam.com                      |
|    \\/     M anipulation  |                                                 |
\*---------------------------------------------------------------------------*/
FoamFile
{
    version     2.0;
    format      ascii;
    arch        "LSB;label=32;scalar=64";
    class       surfaceScalarField;
    location    "20.0001";
    object      phi;
}
// * * * * * * * * * * * * * * * * * * * * * * * * * * * * * * * * * * * * * //

dimensions      [0 3 -1 0 0 0 0];

oriented        oriented;

internalField   nonuniform List<scalar> 
6021
(
7.38824e-06
-1.41085e-09
1.16973e-09
7.38897e-06
-4.2469e-09
3.52259e-09
7.39017e-06
-7.06539e-09
5.86518e-09
7.39183e-06
-9.83923e-09
8.17552e-09
7.39394e-06
-1.25462e-08
1.04356e-08
7.39648e-06
-1.51685e-08
1.26309e-08
7.39942e-06
-1.76915e-08
1.47489e-08
7.40274e-06
-2.01035e-08
1.67796e-08
7.40642e-06
-2.23958e-08
1.87153e-08
7.41044e-06
-2.45627e-08
2.05504e-08
7.41476e-06
-2.6601e-08
2.22817e-08
7.41936e-06
-2.85097e-08
2.39075e-08
7.42422e-06
-3.02893e-08
2.54275e-08
7.42932e-06
-3.19417e-08
2.68427e-08
7.43463e-06
-3.34698e-08
2.81548e-08
7.44014e-06
-3.48769e-08
2.93661e-08
7.44583e-06
-3.61668e-08
3.04793e-08
7.45168e-06
-3.73435e-08
3.14975e-08
7.45767e-06
-3.84111e-08
3.24237e-08
7.46378e-06
-3.93734e-08
3.3261e-08
7.47e-06
-4.02343e-08
3.40125e-08
7.47632e-06
-4.09973e-08
3.46812e-08
7.48271e-06
-4.16659e-08
3.527e-08
7.48917e-06
-4.22432e-08
3.57815e-08
7.49569e-06
-4.27322e-08
3.62186e-08
7.50224e-06
-4.31356e-08
3.65837e-08
7.50882e-06
-4.34562e-08
3.68794e-08
7.5154e-06
-4.36966e-08
3.71081e-08
7.52199e-06
-4.38588e-08
3.72721e-08
7.52856e-06
-4.39459e-08
3.73742e-08
7.53511e-06
-4.396e-08
3.74169e-08
7.54161e-06
-4.39033e-08
3.74021e-08
7.54805e-06
-4.37784e-08
3.73326e-08
7.55443e-06
-4.35879e-08
3.72112e-08
7.56072e-06
-4.33343e-08
3.70403e-08
7.56692e-06
-4.30205e-08
3.68229e-08
7.57301e-06
-4.26492e-08
3.65616e-08
7.57897e-06
-4.22231e-08
3.62595e-08
7.5848e-06
-4.17452e-08
3.59192e-08
7.59047e-06
-4.12182e-08
3.55436e-08
7.59598e-06
-4.06449e-08
3.51355e-08
7.60131e-06
-4.00278e-08
3.46975e-08
7.60645e-06
-3.93695e-08
3.42321e-08
7.61138e-06
-3.8672e-08
3.37415e-08
7.61609e-06
-3.79371e-08
3.32276e-08
7.62056e-06
-3.71663e-08
3.2692e-08
7.62479e-06
-3.63603e-08
3.21359e-08
7.62875e-06
-3.55191e-08
3.15596e-08
7.63243e-06
-3.4642e-08
3.09628e-08
7.63581e-06
-3.37273e-08
3.0345e-08
7.63888e-06
-3.2772e-08
2.97033e-08
7.64161e-06
-3.17721e-08
2.90364e-08
7.644e-06
-3.07207e-08
2.83363e-08
7.64601e-06
-2.96128e-08
2.76037e-08
7.64762e-06
-2.84323e-08
2.68165e-08
7.64882e-06
-2.71831e-08
2.59893e-08
7.64958e-06
-2.58319e-08
2.50656e-08
7.64987e-06
-2.44176e-08
2.41309e-08
7.64965e-06
-2.28605e-08
2.30822e-08
7.64888e-06
-2.11601e-08
2.19269e-08
7.64753e-06
-1.9291e-08
2.06429e-08
7.64555e-06
-1.72233e-08
1.9206e-08
7.64288e-06
-1.49246e-08
1.75904e-08
7.63947e-06
-1.2357e-08
1.57647e-08
7.63526e-06
-9.47542e-09
1.3691e-08
7.63016e-06
-6.22792e-09
1.13252e-08
7.6241e-06
-2.55441e-09
8.61633e-09
7.61698e-06
1.61464e-09
5.50562e-09
7.60869e-06
6.35968e-09
1.92513e-09
7.59913e-06
1.17742e-08
-2.20567e-09
7.58814e-06
1.79671e-08
-6.97942e-09
7.57558e-06
2.50653e-08
-1.25055e-08
7.56127e-06
3.32176e-08
-1.89129e-08
7.54503e-06
4.25982e-08
-2.63522e-08
7.52662e-06
5.34126e-08
-3.50026e-08
7.50579e-06
6.59032e-08
-4.50768e-08
7.48226e-06
8.03578e-08
-5.68286e-08
7.4557e-06
9.71188e-08
-7.05616e-08
7.42575e-06
1.16596e-07
-8.66411e-08
7.39198e-06
1.3928e-07
-1.05509e-07
7.35392e-06
1.65765e-07
-1.27703e-07
7.31103e-06
1.96769e-07
-1.5388e-07
7.2627e-06
2.33171e-07
-1.84847e-07
7.20826e-06
2.76043e-07
-2.21604e-07
7.14695e-06
3.26708e-07
-2.65393e-07
7.07792e-06
3.86808e-07
-3.17776e-07
7.00025e-06
4.58391e-07
-3.80724e-07
6.91297e-06
5.44033e-07
-4.56748e-07
6.81504e-06
6.46999e-07
-5.49077e-07
6.70548e-06
7.71467e-07
-6.61906e-07
6.58338e-06
9.22839e-07
-8.00737e-07
6.4481e-06
1.10824e-06
-9.72959e-07
6.29945e-06
1.33711e-06
-1.18845e-06
6.13833e-06
1.62274e-06
-1.46162e-06
5.96631e-06
1.98319e-06
-1.81117e-06
5.79256e-06
2.44775e-06
-2.274e-06
5.62721e-06
3.05035e-06
-2.885e-06
5.58955e-06
3.86038e-06
-3.82273e-06
5.89992e-06
4.77529e-06
-5.08566e-06
6.3884e-06
7.98267e-06
-8.47115e-06
7.38825e-06
-1.66326e-09
7.38901e-06
-5.0051e-09
7.39027e-06
-8.32074e-09
7.392e-06
-1.15771e-08
7.3942e-06
-1.47472e-08
7.39685e-06
-1.78096e-08
7.3999e-06
-2.07474e-08
7.40335e-06
-2.35474e-08
7.40715e-06
-2.62002e-08
7.41129e-06
-2.87004e-08
7.41573e-06
-3.10452e-08
7.42046e-06
-3.32347e-08
7.42544e-06
-3.52707e-08
7.43065e-06
-3.71563e-08
7.43608e-06
-3.88957e-08
7.4417e-06
-4.04937e-08
7.44748e-06
-4.19554e-08
7.45343e-06
-4.32859e-08
7.45951e-06
-4.44902e-08
7.46571e-06
-4.55732e-08
7.47201e-06
-4.65396e-08
7.47841e-06
-4.73935e-08
7.48488e-06
-4.81388e-08
7.49142e-06
-4.87792e-08
7.498e-06
-4.93179e-08
7.50462e-06
-4.97578e-08
7.51127e-06
-5.01017e-08
7.51793e-06
-5.03523e-08
7.52458e-06
-5.05118e-08
7.53122e-06
-5.05828e-08
7.53782e-06
-5.05675e-08
7.54439e-06
-5.0468e-08
7.5509e-06
-5.02868e-08
7.55733e-06
-5.00263e-08
7.56369e-06
-4.96892e-08
7.56995e-06
-4.92779e-08
7.57609e-06
-4.87955e-08
7.58211e-06
-4.82444e-08
7.588e-06
-4.76277e-08
7.59373e-06
-4.69481e-08
7.59929e-06
-4.62083e-08
7.60467e-06
-4.54112e-08
7.60986e-06
-4.45589e-08
7.61484e-06
-4.36538e-08
7.6196e-06
-4.26975e-08
7.62413e-06
-4.16913e-08
7.6284e-06
-4.06358e-08
7.63242e-06
-3.95308e-08
7.63615e-06
-3.8375e-08
7.63959e-06
-3.71661e-08
7.64272e-06
-3.59008e-08
7.64552e-06
-3.45731e-08
7.64798e-06
-3.31776e-08
7.65007e-06
-3.17038e-08
7.65178e-06
-3.01439e-08
7.65308e-06
-2.84865e-08
7.65397e-06
-2.67191e-08
7.65439e-06
-2.48391e-08
7.65432e-06
-2.27949e-08
7.65374e-06
-2.05736e-08
7.65259e-06
-1.81459e-08
7.65085e-06
-1.54783e-08
7.64846e-06
-1.25331e-08
7.64537e-06
-9.26667e-09
7.64152e-06
-5.62779e-09
7.63685e-06
-1.5576e-09
7.63128e-06
3.01278e-09
7.62473e-06
8.16089e-09
7.61712e-06
1.39777e-08
7.60832e-06
2.05679e-08
7.59824e-06
2.80532e-08
7.58673e-06
3.65749e-08
7.57365e-06
4.62976e-08
7.55883e-06
5.74135e-08
7.5421e-06
7.01477e-08
7.52324e-06
8.47647e-08
7.50202e-06
1.01576e-07
7.47818e-06
1.20951e-07
7.45145e-06
1.43328e-07
7.42151e-06
1.69227e-07
7.388e-06
1.99273e-07
7.35055e-06
2.34215e-07
7.30876e-06
2.74958e-07
7.26221e-06
3.22597e-07
7.21046e-06
3.78464e-07
7.15308e-06
4.44187e-07
7.0897e-06
5.21769e-07
7.02006e-06
6.13677e-07
6.94408e-06
7.22979e-07
6.86205e-06
8.53495e-07
6.77486e-06
1.01003e-06
6.68448e-06
1.19861e-06
6.59463e-06
1.42696e-06
6.51281e-06
1.70456e-06
6.45228e-06
2.04373e-06
6.4432e-06
2.45683e-06
6.53768e-06
2.95587e-06
6.83741e-06
3.56066e-06
7.50059e-06
4.11211e-06
5.40971e-06
8.47928e-06
7.38827e-06
-1.92994e-09
7.38907e-06
-5.80589e-09
7.39039e-06
-9.64536e-09
7.39222e-06
-1.3408e-08
7.39454e-06
-1.7061e-08
7.39731e-06
-2.05792e-08
7.4005e-06
-2.39432e-08
7.40409e-06
-2.71386e-08
7.40805e-06
-3.0156e-08
7.41234e-06
-3.29905e-08
7.41693e-06
-3.56406e-08
7.42181e-06
-3.81077e-08
7.42693e-06
-4.03956e-08
7.43229e-06
-4.2509e-08
7.43784e-06
-4.44539e-08
7.44359e-06
-4.62368e-08
7.4495e-06
-4.78641e-08
7.45555e-06
-4.93425e-08
7.46174e-06
-5.06782e-08
7.46804e-06
-5.1877e-08
7.47445e-06
-5.29443e-08
7.48094e-06
-5.3885e-08
7.4875e-06
-5.47037e-08
7.49413e-06
-5.54042e-08
7.5008e-06
-5.59901e-08
7.50751e-06
-5.64644e-08
7.51424e-06
-5.68301e-08
7.52097e-06
-5.70895e-08
7.52771e-06
-5.72451e-08
7.53442e-06
-5.72991e-08
7.54111e-06
-5.72536e-08
7.54775e-06
-5.71105e-08
7.55434e-06
-5.68721e-08
7.56085e-06
-5.65409e-08
7.56728e-06
-5.61192e-08
7.57361e-06
-5.56097e-08
7.57983e-06
-5.50149e-08
7.58593e-06
-5.43377e-08
7.59188e-06
-5.35809e-08
7.59768e-06
-5.27474e-08
7.60331e-06
-5.184e-08
7.60876e-06
-5.08615e-08
7.61402e-06
-4.98144e-08
7.61906e-06
-4.87008e-08
7.62389e-06
-4.75227e-08
7.62848e-06
-4.62813e-08
7.63282e-06
-4.4977e-08
7.6369e-06
-4.36095e-08
7.6407e-06
-4.21775e-08
7.64421e-06
-4.0678e-08
7.64742e-06
-3.91073e-08
7.65031e-06
-3.7459e-08
7.65286e-06
-3.57273e-08
7.65505e-06
-3.38998e-08
7.65688e-06
-3.19722e-08
7.65832e-06
-2.99224e-08
7.65935e-06
-2.77516e-08
7.65994e-06
-2.54268e-08
7.66006e-06
-2.29182e-08
7.65969e-06
-2.02028e-08
7.65879e-06
-1.72482e-08
7.65733e-06
-1.40174e-08
7.65526e-06
-1.04686e-08
7.65255e-06
-6.55308e-09
7.64914e-06
-2.21454e-09
7.64497e-06
2.61257e-09
7.63998e-06
8.00219e-09
7.6341e-06
1.40399e-08
7.62725e-06
2.08244e-08
7.61935e-06
2.84695e-08
7.6103e-06
3.71064e-08
7.59999e-06
4.68871e-08
7.5883e-06
5.79878e-08
7.5751e-06
7.0613e-08
7.56024e-06
8.5001e-08
7.54358e-06
1.0143e-07
7.52493e-06
1.20227e-07
7.5041e-06
1.41774e-07
7.48091e-06
1.66523e-07
7.45513e-06
1.95005e-07
7.42655e-06
2.27852e-07
7.39495e-06
2.65816e-07
7.36012e-06
3.09788e-07
7.32188e-06
3.6084e-07
7.28009e-06
4.2025e-07
7.23472e-06
4.89558e-07
7.18587e-06
5.70616e-07
7.13389e-06
6.65656e-07
7.0795e-06
7.77371e-07
7.024e-06
9.08998e-07
6.9696e-06
1.06443e-06
6.91999e-06
1.24822e-06
6.88118e-06
1.46576e-06
6.86305e-06
1.72269e-06
6.88168e-06
2.02509e-06
6.96177e-06
2.37675e-06
7.14247e-06
2.77517e-06
7.4588e-06
3.24433e-06
7.93303e-06
3.63788e-06
4.38716e-06
8.95558e-06
7.38828e-06
-2.21443e-09
7.38914e-06
-6.65983e-09
7.39055e-06
-1.10563e-08
7.3925e-06
-1.53543e-08
7.39495e-06
-1.95142e-08
7.39788e-06
-2.35064e-08
7.40124e-06
-2.73093e-08
7.40501e-06
-3.0908e-08
7.40915e-06
-3.42935e-08
7.41362e-06
-3.74624e-08
7.4184e-06
-4.04151e-08
7.42344e-06
-4.31552e-08
7.42874e-06
-4.56888e-08
7.43425e-06
-4.8023e-08
7.43996e-06
-5.0166e-08
7.44585e-06
-5.21262e-08
7.4519e-06
-5.3912e-08
7.45809e-06
-5.55314e-08
7.4644e-06
-5.6992e-08
7.47083e-06
-5.83007e-08
7.47735e-06
-5.94638e-08
7.48395e-06
-6.04869e-08
7.49062e-06
-6.13751e-08
7.49735e-06
-6.21326e-08
7.50412e-06
-6.2763e-08
7.51093e-06
-6.32697e-08
7.51775e-06
-6.36554e-08
7.52458e-06
-6.39224e-08
7.53141e-06
-6.40732e-08
7.53822e-06
-6.41093e-08
7.545e-06
-6.40327e-08
7.55174e-06
-6.38453e-08
7.55841e-06
-6.35491e-08
7.56502e-06
-6.31464e-08
7.57154e-06
-6.26392e-08
7.57796e-06
-6.20302e-08
7.58427e-06
-6.1322e-08
7.59045e-06
-6.05174e-08
7.59648e-06
-5.96192e-08
7.60237e-06
-5.86304e-08
7.60808e-06
-5.7554e-08
7.61361e-06
-5.63928e-08
7.61895e-06
-5.51497e-08
7.62407e-06
-5.38269e-08
7.62898e-06
-5.24265e-08
7.63365e-06
-5.09499e-08
7.63807e-06
-4.93977e-08
7.64223e-06
-4.77696e-08
7.64611e-06
-4.6064e-08
7.64971e-06
-4.42781e-08
7.65301e-06
-4.24077e-08
7.656e-06
-4.04467e-08
7.65866e-06
-3.83877e-08
7.66098e-06
-3.62197e-08
7.66294e-06
-3.39354e-08
7.66454e-06
-3.15127e-08
7.66573e-06
-2.8951e-08
7.66651e-06
-2.62067e-08
7.66686e-06
-2.32597e-08
7.66673e-06
-2.00807e-08
7.66612e-06
-1.66346e-08
7.66498e-06
-1.28818e-08
7.66329e-06
-8.77681e-09
7.66101e-06
-4.26698e-09
7.65808e-06
7.08277e-10
7.65448e-06
6.219e-09
7.65014e-06
1.23435e-08
7.645e-06
1.91733e-08
7.63901e-06
2.68129e-08
7.6321e-06
3.53822e-08
7.62419e-06
4.50193e-08
7.61519e-06
5.58831e-08
7.60502e-06
6.81568e-08
7.59358e-06
8.20523e-08
7.58077e-06
9.78147e-08
7.56647e-06
1.15729e-07
7.55057e-06
1.36125e-07
7.53296e-06
1.59389e-07
7.51351e-06
1.85972e-07
7.49212e-06
2.164e-07
7.46868e-06
2.51291e-07
7.44312e-06
2.9137e-07
7.41542e-06
3.3749e-07
7.3856e-06
3.90656e-07
7.35381e-06
4.52048e-07
7.3203e-06
5.2306e-07
7.2856e-06
6.05325e-07
7.25049e-06
7.00758e-07
7.21627e-06
8.11588e-07
7.1849e-06
9.40376e-07
7.1593e-06
1.09002e-06
7.14386e-06
1.26367e-06
7.14503e-06
1.4646e-06
7.17199e-06
1.69573e-06
7.23804e-06
1.95905e-06
7.35939e-06
2.25539e-06
7.55911e-06
2.57545e-06
7.86794e-06
2.9355e-06
8.27418e-06
3.23163e-06
3.58853e-06
9.07281e-06
7.38831e-06
-2.52099e-09
7.38923e-06
-7.58006e-09
7.39075e-06
-1.25746e-08
7.39283e-06
-1.74433e-08
7.39546e-06
-2.21384e-08
7.39858e-06
-2.66255e-08
7.40215e-06
-3.08811e-08
7.40613e-06
-3.48906e-08
7.41049e-06
-3.86468e-08
7.41517e-06
-4.21485e-08
7.42016e-06
-4.53991e-08
7.42541e-06
-4.84053e-08
7.43089e-06
-5.11763e-08
7.43659e-06
-5.37222e-08
7.44248e-06
-5.6054e-08
7.44854e-06
-5.81824e-08
7.45474e-06
-6.01178e-08
7.46108e-06
-6.187e-08
7.46754e-06
-6.34481e-08
7.4741e-06
-6.486e-08
7.48075e-06
-6.61132e-08
7.48747e-06
-6.72138e-08
7.49426e-06
-6.81672e-08
7.50111e-06
-6.89782e-08
7.508e-06
-6.96506e-08
7.51492e-06
-7.01876e-08
7.52185e-06
-7.05917e-08
7.52879e-06
-7.08652e-08
7.53573e-06
-7.10102e-08
7.54265e-06
-7.10278e-08
7.54954e-06
-7.09196e-08
7.55638e-06
-7.06874e-08
7.56316e-06
-7.03327e-08
7.56987e-06
-6.98576e-08
7.5765e-06
-6.92641e-08
7.58302e-06
-6.85547e-08
7.58943e-06
-6.77318e-08
7.59571e-06
-6.67984e-08
7.60185e-06
-6.57572e-08
7.60783e-06
-6.46115e-08
7.61364e-06
-6.33644e-08
7.61927e-06
-6.20191e-08
7.6247e-06
-6.05785e-08
7.62992e-06
-5.90454e-08
7.63491e-06
-5.74222e-08
7.63967e-06
-5.57104e-08
7.64419e-06
-5.39111e-08
7.64844e-06
-5.20241e-08
7.65243e-06
-5.00481e-08
7.65613e-06
-4.79803e-08
7.65954e-06
-4.58163e-08
7.66264e-06
-4.35507e-08
7.66543e-06
-4.11742e-08
7.66789e-06
-3.8679e-08
7.67e-06
-3.60506e-08
7.67176e-06
-3.32753e-08
7.67315e-06
-3.03379e-08
7.67414e-06
-2.72013e-08
7.67473e-06
-2.38444e-08
7.67488e-06
-2.02351e-08
7.67459e-06
-1.63362e-08
7.67381e-06
-1.21057e-08
7.67253e-06
-7.49559e-09
7.67071e-06
-2.45069e-09
7.66833e-06
3.09393e-09
7.66534e-06
9.20969e-09
7.6617e-06
1.59794e-08
7.65737e-06
2.34981e-08
7.65231e-06
3.18738e-08
7.64647e-06
4.12303e-08
7.63978e-06
5.17093e-08
7.63219e-06
6.34733e-08
7.62363e-06
7.67083e-08
7.61406e-06
9.16285e-08
7.60339e-06
1.0848e-07
7.59158e-06
1.27546e-07
7.57855e-06
1.49154e-07
7.56425e-06
1.73683e-07
7.54865e-06
2.0157e-07
7.53173e-06
2.33321e-07
7.5135e-06
2.69523e-07
7.49401e-06
3.10857e-07
7.47339e-06
3.58111e-07
7.45185e-06
4.12197e-07
7.42973e-06
4.74167e-07
7.40756e-06
5.4523e-07
7.38612e-06
6.26769e-07
7.36653e-06
7.20349e-07
7.3504e-06
8.27714e-07
7.34001e-06
9.50766e-07
7.33854e-06
1.0915e-06
7.35034e-06
1.25187e-06
7.38137e-06
1.43356e-06
7.43944e-06
1.63766e-06
7.53476e-06
1.86372e-06
7.67983e-06
2.11033e-06
7.88795e-06
2.36732e-06
8.18909e-06
2.63436e-06
8.55683e-06
2.86389e-06
3.06419e-06
9.08117e-06
7.38833e-06
-2.85512e-09
7.38934e-06
-8.58322e-09
7.39099e-06
-1.42266e-08
7.39326e-06
-1.97091e-08
7.39609e-06
-2.49728e-08
7.39944e-06
-2.99777e-08
7.40326e-06
-3.46998e-08
7.4075e-06
-3.91266e-08
7.4121e-06
-4.32539e-08
7.41704e-06
-4.70842e-08
7.42227e-06
-5.06251e-08
7.42775e-06
-5.38877e-08
7.43346e-06
-5.6885e-08
7.43937e-06
-5.96312e-08
7.44545e-06
-6.21402e-08
7.45169e-06
-6.44256e-08
7.45808e-06
-6.65002e-08
7.46458e-06
-6.83757e-08
7.4712e-06
-7.00626e-08
7.47791e-06
-7.15702e-08
7.4847e-06
-7.29069e-08
7.49157e-06
-7.40795e-08
7.49849e-06
-7.50938e-08
7.50547e-06
-7.59548e-08
7.51249e-06
-7.66664e-08
7.51953e-06
-7.72316e-08
7.52659e-06
-7.76528e-08
7.53366e-06
-7.7932e-08
7.54072e-06
-7.80704e-08
7.54776e-06
-7.80691e-08
7.55477e-06
-7.79291e-08
7.56173e-06
-7.76516e-08
7.56864e-06
-7.7238e-08
7.57547e-06
-7.66899e-08
7.58222e-06
-7.60093e-08
7.58886e-06
-7.51983e-08
7.59539e-06
-7.42594e-08
7.60178e-06
-7.31955e-08
7.60804e-06
-7.20097e-08
7.61413e-06
-7.07052e-08
7.62005e-06
-6.92855e-08
7.62579e-06
-6.7754e-08
7.63132e-06
-6.61143e-08
7.63665e-06
-6.43695e-08
7.64175e-06
-6.25224e-08
7.64661e-06
-6.05752e-08
7.65123e-06
-5.85295e-08
7.65559e-06
-5.63853e-08
7.65968e-06
-5.41419e-08
7.6635e-06
-5.17967e-08
7.66703e-06
-4.93457e-08
7.67026e-06
-4.67832e-08
7.67319e-06
-4.41004e-08
7.6758e-06
-4.12898e-08
7.67808e-06
-3.83331e-08
7.68003e-06
-3.52234e-08
7.68162e-06
-3.19307e-08
7.68285e-06
-2.84291e-08
7.6837e-06
-2.4693e-08
7.68415e-06
-2.06887e-08
7.68419e-06
-1.63778e-08
7.68381e-06
-1.17167e-08
7.68297e-06
-6.65543e-09
7.68165e-06
-1.13757e-09
7.67984e-06
4.90557e-09
7.6775e-06
1.15451e-08
7.67462e-06
1.88667e-08
7.67115e-06
2.69672e-08
7.66707e-06
3.59563e-08
7.66234e-06
4.59593e-08
7.65693e-06
5.71187e-08
7.6508e-06
6.95972e-08
7.64393e-06
8.358e-08
7.63628e-06
9.92787e-08
7.62783e-06
1.16935e-07
7.61855e-06
1.36826e-07
7.60843e-06
1.59266e-07
7.5975e-06
1.8462e-07
7.58577e-06
2.13301e-07
7.5733e-06
2.45785e-07
7.56021e-06
2.82615e-07
7.54665e-06
3.24412e-07
7.53288e-06
3.71883e-07
7.51925e-06
4.25831e-07
7.50625e-06
4.87161e-07
7.4946e-06
5.56888e-07
7.48523e-06
6.36134e-07
7.47946e-06
7.26119e-07
7.47904e-06
8.28136e-07
7.48631e-06
9.43498e-07
7.50436e-06
1.07345e-06
7.53721e-06
1.21901e-06
7.59002e-06
1.38075e-06
7.66923e-06
1.55845e-06
7.78257e-06
1.75038e-06
7.93946e-06
1.95344e-06
8.1473e-06
2.15948e-06
8.42055e-06
2.36112e-06
8.7457e-06
2.53873e-06
2.67825e-06
9.13164e-06
7.38837e-06
-3.22401e-09
7.38948e-06
-9.6908e-09
7.3913e-06
-1.60463e-08
7.39378e-06
-2.21944e-08
7.39687e-06
-2.8066e-08
7.40051e-06
-3.36133e-08
7.40462e-06
-3.88143e-08
7.40916e-06
-4.36622e-08
7.41406e-06
-4.81577e-08
7.41929e-06
-5.23087e-08
7.42479e-06
-5.61284e-08
7.43054e-06
-5.96337e-08
7.4365e-06
-6.28429e-08
7.44264e-06
-6.57745e-08
7.44895e-06
-6.84465e-08
7.4554e-06
-7.08756e-08
7.46197e-06
-7.30771e-08
7.46866e-06
-7.50648e-08
7.47545e-06
-7.68508e-08
7.48233e-06
-7.84457e-08
7.48928e-06
-7.98588e-08
7.4963e-06
-8.10974e-08
7.50337e-06
-8.2168e-08
7.51049e-06
-8.30754e-08
7.51765e-06
-8.38236e-08
7.52483e-06
-8.44153e-08
7.53203e-06
-8.48526e-08
7.53924e-06
-8.51369e-08
7.54643e-06
-8.52687e-08
7.55361e-06
-8.52484e-08
7.56076e-06
-8.50766e-08
7.56786e-06
-8.47537e-08
7.57491e-06
-8.42809e-08
7.58187e-06
-8.36593e-08
7.58876e-06
-8.28907e-08
7.59554e-06
-8.19769e-08
7.6022e-06
-8.09207e-08
7.60873e-06
-7.97246e-08
7.61511e-06
-7.8392e-08
7.62133e-06
-7.69264e-08
7.62738e-06
-7.53317e-08
7.63323e-06
-7.36117e-08
7.63889e-06
-7.17706e-08
7.64433e-06
-6.9812e-08
7.64955e-06
-6.77396e-08
7.65453e-06
-6.55562e-08
7.65926e-06
-6.32641e-08
7.66374e-06
-6.08642e-08
7.66796e-06
-5.83561e-08
7.6719e-06
-5.57378e-08
7.67556e-06
-5.30059e-08
7.67893e-06
-5.01544e-08
7.68201e-06
-4.71764e-08
7.68478e-06
-4.4062e-08
7.68724e-06
-4.07949e-08
7.68938e-06
-3.7367e-08
7.6912e-06
-3.37439e-08
7.69267e-06
-2.99049e-08
7.6938e-06
-2.58213e-08
7.69457e-06
-2.14587e-08
7.69497e-06
-1.67781e-08
7.69499e-06
-1.17349e-08
7.69461e-06
-6.27801e-09
7.69383e-06
-3.52406e-10
7.69262e-06
6.11739e-09
7.69096e-06
1.31971e-08
7.68885e-06
2.09756e-08
7.68627e-06
2.95493e-08
7.6832e-06
3.9028e-08
7.67962e-06
4.95361e-08
7.67553e-06
6.12146e-08
7.6709e-06
7.42231e-08
7.66574e-06
8.87427e-08
7.66004e-06
1.04979e-07
7.65381e-06
1.23164e-07
7.64707e-06
1.43562e-07
7.63987e-06
1.66473e-07
7.63225e-06
1.92236e-07
7.62432e-06
2.21236e-07
7.61619e-06
2.53908e-07
7.60806e-06
2.90744e-07
7.60018e-06
3.32295e-07
7.59288e-06
3.79179e-07
7.58663e-06
4.32082e-07
7.58203e-06
4.9176e-07
7.57989e-06
5.59033e-07
7.58125e-06
6.34774e-07
7.58748e-06
7.19891e-07
7.60033e-06
8.15281e-07
7.62206e-06
9.21771e-07
7.65549e-06
1.04002e-06
7.70414e-06
1.17036e-06
7.77228e-06
1.31261e-06
7.86495e-06
1.46578e-06
7.98774e-06
1.6276e-06
8.14677e-06
1.79441e-06
8.34632e-06
1.95993e-06
8.59109e-06
2.11636e-06
8.87762e-06
2.2522e-06
2.35523e-06
9.20065e-06
7.38841e-06
-3.63722e-09
7.38965e-06
-1.09315e-08
7.39169e-06
-1.80778e-08
7.39445e-06
-2.4957e-08
7.39786e-06
-3.14793e-08
7.40184e-06
-3.75921e-08
7.40631e-06
-4.3282e-08
7.4112e-06
-4.85509e-08
7.41645e-06
-5.34068e-08
7.422e-06
-5.78651e-08
7.42782e-06
-6.19467e-08
7.43386e-06
-6.56763e-08
7.4401e-06
-6.90784e-08
7.4465e-06
-7.21771e-08
7.45305e-06
-7.49948e-08
7.45973e-06
-7.75517e-08
7.46651e-06
-7.98658e-08
7.4734e-06
-8.19529e-08
7.48038e-06
-8.3827e-08
7.48743e-06
-8.55e-08
7.49456e-06
-8.69816e-08
7.50174e-06
-8.82801e-08
7.50897e-06
-8.9402e-08
7.51625e-06
-9.03523e-08
7.52356e-06
-9.11347e-08
7.5309e-06
-9.17516e-08
7.53825e-06
-9.22044e-08
7.54561e-06
-9.24938e-08
7.55296e-06
-9.26194e-08
7.56029e-06
-9.25808e-08
7.56759e-06
-9.23776e-08
7.57485e-06
-9.20098e-08
7.58204e-06
-9.14777e-08
7.58917e-06
-9.07823e-08
7.5962e-06
-8.99249e-08
7.60313e-06
-8.89073e-08
7.60994e-06
-8.7732e-08
7.61662e-06
-8.64017e-08
7.62315e-06
-8.492e-08
7.62951e-06
-8.32906e-08
7.6357e-06
-8.1518e-08
7.64169e-06
-7.96065e-08
7.64748e-06
-7.75609e-08
7.65306e-06
-7.53858e-08
7.6584e-06
-7.30857e-08
7.66351e-06
-7.06647e-08
7.66837e-06
-6.81258e-08
7.67298e-06
-6.54709e-08
7.67732e-06
-6.27002e-08
7.6814e-06
-5.98126e-08
7.6852e-06
-5.68054e-08
7.68872e-06
-5.36726e-08
7.69195e-06
-5.04099e-08
7.69489e-06
-4.70037e-08
7.69754e-06
-4.34442e-08
7.69989e-06
-3.97152e-08
7.70193e-06
-3.5787e-08
7.70366e-06
-3.16385e-08
7.70508e-06
-2.72401e-08
7.70618e-06
-2.2557e-08
7.70695e-06
-1.75501e-08
7.70739e-06
-1.21744e-08
7.70749e-06
-6.37851e-09
7.70725e-06
-1.08747e-10
7.70665e-06
6.7134e-09
7.7057e-06
1.41498e-08
7.70439e-06
2.22898e-08
7.70271e-06
3.12286e-08
7.70066e-06
4.1074e-08
7.69825e-06
5.19476e-08
7.69548e-06
6.39867e-08
7.69236e-06
7.73454e-08
7.6889e-06
9.21978e-08
7.68514e-06
1.0874e-07
7.68111e-06
1.27191e-07
7.67688e-06
1.47798e-07
7.67251e-06
1.7084e-07
7.66812e-06
1.96628e-07
7.66384e-06
2.25513e-07
7.65987e-06
2.57883e-07
7.65644e-06
2.94172e-07
7.65387e-06
3.34861e-07
7.65258e-06
3.80475e-07
7.65308e-06
4.31583e-07
7.65604e-06
4.88796e-07
7.66232e-06
5.52751e-07
7.673e-06
6.241e-07
7.68941e-06
7.03477e-07
7.71323e-06
7.91457e-07
7.74652e-06
8.88483e-07
7.79176e-06
9.94782e-07
7.85189e-06
1.11023e-06
7.93031e-06
1.23418e-06
8.03082e-06
1.36527e-06
8.15728e-06
1.50113e-06
8.31348e-06
1.63821e-06
8.502e-06
1.77141e-06
8.72414e-06
1.89422e-06
8.97787e-06
1.99846e-06
2.07574e-06
9.25736e-06
7.38847e-06
-4.10722e-09
7.38988e-06
-1.23455e-08
7.39219e-06
-2.03855e-08
7.39531e-06
-2.80721e-08
7.39912e-06
-3.52895e-08
7.40351e-06
-4.19892e-08
7.4084e-06
-4.81724e-08
7.41371e-06
-5.38546e-08
7.41936e-06
-5.90551e-08
7.42529e-06
-6.37992e-08
7.43146e-06
-6.81185e-08
7.43783e-06
-7.20475e-08
7.44437e-06
-7.56187e-08
7.45106e-06
-7.88625e-08
7.45787e-06
-8.18057e-08
7.46479e-06
-8.44721e-08
7.47181e-06
-8.68824e-08
7.47891e-06
-8.90547e-08
7.48609e-06
-9.10049e-08
7.49333e-06
-9.27458e-08
7.50064e-06
-9.4288e-08
7.508e-06
-9.564e-08
7.51541e-06
-9.68085e-08
7.52285e-06
-9.77984e-08
7.53033e-06
-9.8613e-08
7.53783e-06
-9.92541e-08
7.54535e-06
-9.97226e-08
7.55287e-06
-1.00018e-07
7.56039e-06
-1.00139e-07
7.5679e-06
-1.00083e-07
7.57537e-06
-9.98494e-08
7.5828e-06
-9.94372e-08
7.59016e-06
-9.88463e-08
7.59746e-06
-9.80768e-08
7.60466e-06
-9.713e-08
7.61176e-06
-9.60073e-08
7.61874e-06
-9.47111e-08
7.62559e-06
-9.32443e-08
7.63228e-06
-9.16107e-08
7.6388e-06
-8.98141e-08
7.64514e-06
-8.78599e-08
7.65129e-06
-8.5753e-08
7.65723e-06
-8.3499e-08
7.66294e-06
-8.11036e-08
7.66843e-06
-7.85725e-08
7.67368e-06
-7.59111e-08
7.67868e-06
-7.3124e-08
7.68342e-06
-7.02139e-08
7.6879e-06
-6.71819e-08
7.69212e-06
-6.40281e-08
7.69606e-06
-6.07504e-08
7.69973e-06
-5.73435e-08
7.70313e-06
-5.38055e-08
7.70624e-06
-5.01203e-08
7.70908e-06
-4.62843e-08
7.71164e-06
-4.22737e-08
7.71392e-06
-3.80652e-08
7.71592e-06
-3.36356e-08
7.71763e-06
-2.89552e-08
7.71907e-06
-2.39896e-08
7.72021e-06
-1.86999e-08
7.72108e-06
-1.30415e-08
7.72167e-06
-6.96374e-09
7.72197e-06
-4.10921e-10
7.722e-06
6.68737e-09
7.72175e-06
1.43984e-08
7.72123e-06
2.28063e-08
7.72045e-06
3.20042e-08
7.71943e-06
4.20964e-08
7.71818e-06
5.32003e-08
7.71672e-06
6.54472e-08
7.71508e-06
7.8984e-08
7.7133e-06
9.39754e-08
7.71144e-06
1.10605e-07
7.70955e-06
1.29076e-07
7.70773e-06
1.49616e-07
7.7061e-06
1.72479e-07
7.70478e-06
1.97945e-07
7.70397e-06
2.26325e-07
7.70389e-06
2.57962e-07
7.70483e-06
2.9323e-07
7.70716e-06
3.32536e-07
7.71132e-06
3.76315e-07
7.71787e-06
4.25026e-07
7.72753e-06
4.79145e-07
7.74113e-06
5.39147e-07
7.75974e-06
6.05491e-07
7.78463e-06
6.78588e-07
7.81733e-06
7.58756e-07
7.85966e-06
8.46156e-07
7.91372e-06
9.40716e-07
7.98193e-06
1.04202e-06
8.06692e-06
1.1492e-06
8.17145e-06
1.26074e-06
8.29819e-06
1.37439e-06
8.44945e-06
1.48696e-06
8.62658e-06
1.59427e-06
8.82957e-06
1.69123e-06
9.05605e-06
1.77199e-06
1.83069e-06
9.30109e-06
7.38854e-06
-4.65217e-09
7.39019e-06
-1.39906e-08
7.39286e-06
-2.30561e-08
7.39643e-06
-3.16371e-08
7.40073e-06
-3.95946e-08
7.40564e-06
-4.6895e-08
7.41103e-06
-5.35667e-08
7.41682e-06
-5.96453e-08
7.42293e-06
-6.51642e-08
7.42929e-06
-7.01629e-08
7.43586e-06
-7.46868e-08
7.4426e-06
-7.8783e-08
7.44947e-06
-8.24931e-08
7.45646e-06
-8.58538e-08
7.46356e-06
-8.88977e-08
7.47074e-06
-9.16519e-08
7.47799e-06
-9.41398e-08
7.48532e-06
-9.63823e-08
7.49271e-06
-9.83959e-08
7.50016e-06
-1.00194e-07
7.50766e-06
-1.01788e-07
7.51521e-06
-1.03187e-07
7.52279e-06
-1.04397e-07
7.53042e-06
-1.05424e-07
7.53808e-06
-1.06269e-07
7.54576e-06
-1.06935e-07
7.55345e-06
-1.0742e-07
7.56116e-06
-1.07723e-07
7.56886e-06
-1.07842e-07
7.57655e-06
-1.07771e-07
7.58421e-06
-1.07509e-07
7.59183e-06
-1.07054e-07
7.59939e-06
-1.06405e-07
7.60687e-06
-1.05562e-07
7.61427e-06
-1.04525e-07
7.62156e-06
-1.03296e-07
7.62872e-06
-1.01877e-07
7.63575e-06
-1.00271e-07
7.64262e-06
-9.84822e-08
7.64932e-06
-9.65145e-08
7.65584e-06
-9.43744e-08
7.66215e-06
-9.20672e-08
7.66825e-06
-8.95998e-08
7.67413e-06
-8.69789e-08
7.67977e-06
-8.4212e-08
7.68516e-06
-8.13061e-08
7.6903e-06
-7.82682e-08
7.69519e-06
-7.51018e-08
7.69982e-06
-7.18087e-08
7.70418e-06
-6.83907e-08
7.70828e-06
-6.48461e-08
7.71211e-06
-6.11713e-08
7.71567e-06
-5.73662e-08
7.71896e-06
-5.34142e-08
7.72199e-06
-4.93168e-08
7.72476e-06
-4.50454e-08
7.72728e-06
-4.05806e-08
7.72954e-06
-3.58982e-08
7.73156e-06
-3.09684e-08
7.73332e-06
-2.57578e-08
7.73485e-06
-2.02283e-08
7.73615e-06
-1.43361e-08
7.73722e-06
-8.03165e-09
7.73806e-06
-1.26024e-09
7.73871e-06
6.04428e-09
7.73916e-06
1.39489e-08
7.73943e-06
2.2534e-08
7.73955e-06
3.18884e-08
7.73953e-06
4.21122e-08
7.73941e-06
5.33171e-08
7.73923e-06
6.56272e-08
7.73904e-06
7.91798e-08
7.73888e-06
9.41286e-08
7.73884e-06
1.10644e-07
7.73901e-06
1.2891e-07
7.73949e-06
1.49133e-07
7.74043e-06
1.71539e-07
7.742e-06
1.96375e-07
7.74442e-06
2.23913e-07
7.74793e-06
2.54446e-07
7.75287e-06
2.88291e-07
7.75962e-06
3.25785e-07
7.76866e-06
3.67278e-07
7.78055e-06
4.13129e-07
7.79601e-06
4.63692e-07
7.81585e-06
5.193e-07
7.84109e-06
5.80255e-07
7.87289e-06
6.46788e-07
7.91262e-06
7.19024e-07
7.96185e-06
7.96927e-07
8.02233e-06
8.80231e-07
8.09599e-06
9.68364e-07
8.18484e-06
1.06035e-06
8.29085e-06
1.15472e-06
8.41584e-06
1.2494e-06
8.56112e-06
1.34167e-06
8.72725e-06
1.42815e-06
8.91358e-06
1.5049e-06
9.11787e-06
1.56769e-06
1.61236e-06
9.3362e-06
7.38865e-06
-5.2988e-09
7.39061e-06
-1.59504e-08
7.39376e-06
-2.62122e-08
7.39791e-06
-3.57874e-08
7.40284e-06
-4.45211e-08
7.40837e-06
-5.24205e-08
7.41436e-06
-5.95606e-08
7.42072e-06
-6.6003e-08
7.42735e-06
-7.17998e-08
7.4342e-06
-7.70084e-08
7.4412e-06
-8.16935e-08
7.44834e-06
-8.59163e-08
7.45557e-06
-8.97287e-08
7.46289e-06
-9.31749e-08
7.47029e-06
-9.62917e-08
7.47775e-06
-9.91096e-08
7.48526e-06
-1.01655e-07
7.49283e-06
-1.0395e-07
7.50045e-06
-1.06012e-07
7.50811e-06
-1.07857e-07
7.51581e-06
-1.09494e-07
7.52356e-06
-1.10934e-07
7.53135e-06
-1.12182e-07
7.53916e-06
-1.13243e-07
7.54701e-06
-1.14118e-07
7.55489e-06
-1.14808e-07
7.56278e-06
-1.15313e-07
7.57068e-06
-1.15627e-07
7.57859e-06
-1.15747e-07
7.58648e-06
-1.15665e-07
7.59435e-06
-1.15378e-07
7.60218e-06
-1.14882e-07
7.60995e-06
-1.14175e-07
7.61764e-06
-1.13258e-07
7.62525e-06
-1.12131e-07
7.63275e-06
-1.10794e-07
7.64012e-06
-1.09251e-07
7.64735e-06
-1.07503e-07
7.65443e-06
-1.05554e-07
7.66132e-06
-1.03411e-07
7.66803e-06
-1.01079e-07
7.67453e-06
-9.85657e-08
7.6808e-06
-9.58783e-08
7.68685e-06
-9.30249e-08
7.69265e-06
-9.00157e-08
7.69821e-06
-8.68595e-08
7.70351e-06
-8.35671e-08
7.70855e-06
-8.0142e-08
7.71332e-06
-7.65867e-08
7.71784e-06
-7.29046e-08
7.72209e-06
-6.90957e-08
7.72607e-06
-6.51575e-08
7.7298e-06
-6.10921e-08
7.73327e-06
-5.68839e-08
7.73649e-06
-5.25395e-08
7.73947e-06
-4.80281e-08
7.74223e-06
-4.33316e-08
7.74475e-06
-3.84241e-08
7.74706e-06
-3.32768e-08
7.74916e-06
-2.78578e-08
7.75106e-06
-2.21303e-08
7.75278e-06
-1.60519e-08
7.75432e-06
-9.57452e-09
7.75571e-06
-2.64486e-09
7.75695e-06
4.79757e-09
7.75808e-06
1.28189e-08
7.75912e-06
2.14942e-08
7.7601e-06
3.09075e-08
7.76106e-06
4.11537e-08
7.76204e-06
5.23383e-08
7.76309e-06
6.45765e-08
7.76428e-06
7.79951e-08
7.76567e-06
9.27362e-08
7.76736e-06
1.08953e-07
7.76946e-06
1.26812e-07
7.77209e-06
1.46495e-07
7.77543e-06
1.68199e-07
7.77967e-06
1.92139e-07
7.78504e-06
2.18545e-07
7.79182e-06
2.47665e-07
7.80035e-06
2.79759e-07
7.81104e-06
3.15099e-07
7.82436e-06
3.53959e-07
7.84088e-06
3.96608e-07
7.86128e-06
4.43291e-07
7.88635e-06
4.94225e-07
7.91703e-06
5.49581e-07
7.95436e-06
6.09458e-07
7.99954e-06
6.73839e-07
8.05392e-06
7.42555e-07
8.11892e-06
8.1523e-07
8.19606e-06
8.91225e-07
8.28684e-06
9.69569e-07
8.39267e-06
1.04889e-06
8.51471e-06
1.12737e-06
8.65367e-06
1.20271e-06
8.8096e-06
1.27222e-06
8.98163e-06
1.33287e-06
9.1678e-06
1.38152e-06
1.41519e-06
9.36497e-06
7.38879e-06
-6.08872e-09
7.39119e-06
-1.83554e-08
7.39502e-06
-3.0034e-08
7.39993e-06
-4.07051e-08
7.40564e-06
-5.02294e-08
7.41193e-06
-5.87036e-08
7.41864e-06
-6.62704e-08
7.42566e-06
-7.30225e-08
7.43289e-06
-7.90342e-08
7.44027e-06
-8.43898e-08
7.44776e-06
-8.9178e-08
7.45531e-06
-9.34754e-08
7.46293e-06
-9.73456e-08
7.4706e-06
-1.0084e-07
7.4783e-06
-1.03998e-07
7.48605e-06
-1.06853e-07
7.49383e-06
-1.09434e-07
7.50164e-06
-1.11764e-07
7.50949e-06
-1.13861e-07
7.51737e-06
-1.1574e-07
7.52529e-06
-1.17413e-07
7.53324e-06
-1.18888e-07
7.54123e-06
-1.2017e-07
7.54925e-06
-1.21264e-07
7.55731e-06
-1.2217e-07
7.56539e-06
-1.22888e-07
7.57349e-06
-1.23416e-07
7.58161e-06
-1.23749e-07
7.58974e-06
-1.23876e-07
7.59786e-06
-1.23788e-07
7.60596e-06
-1.23478e-07
7.61402e-06
-1.22943e-07
7.62203e-06
-1.22182e-07
7.62996e-06
-1.21192e-07
7.63781e-06
-1.19974e-07
7.64554e-06
-1.18528e-07
7.65315e-06
-1.16858e-07
7.66061e-06
-1.14964e-07
7.66791e-06
-1.12852e-07
7.67502e-06
-1.10526e-07