/*--------------------------------*- C++ -*----------------------------------*\
| =========                 |                                                 |
| \\      /  F ield         | OpenFOAM: The Open Source CFD Toolbox           |
|  \\    /   O peration     | Version:  2206                                  |
|   \\  /    A nd           | Website:  www.openfoam.com                      |
|    \\/     M anipulation  |                                                 |
\*---------------------------------------------------------------------------*/
FoamFile
{
    version     2.0;
    format      ascii;
    arch        "LSB;label=32;scalar=64";
    class       surfaceScalarField;
    location    "18.9999";
    object      phi_0;
}
// * * * * * * * * * * * * * * * * * * * * * * * * * * * * * * * * * * * * * //

dimensions      [0 3 -1 0 0 0 0];

oriented        oriented;

internalField   nonuniform List<scalar> 
3579
(
4.43322e-06
1.4078e-09
-1.82378e-09
4.43447e-06
4.23119e-09
-5.48286e-09
4.43651e-06
6.95746e-09
-8.99983e-09
4.43926e-06
9.51303e-09
-1.2268e-08
4.44264e-06
1.1852e-08
-1.52279e-08
4.44655e-06
1.39592e-08
-1.78692e-08
4.45092e-06
1.58383e-08
-2.02071e-08
4.45568e-06
1.75014e-08
-2.22633e-08
4.46078e-06
1.89635e-08
-2.40606e-08
4.46616e-06
2.02423e-08
-2.56246e-08
4.47179e-06
2.13575e-08
-2.69834e-08
4.47762e-06
2.23293e-08
-2.81643e-08
4.48364e-06
2.31762e-08
-2.9192e-08
4.48981e-06
2.39151e-08
-3.00882e-08
4.49612e-06
2.45603e-08
-3.08711e-08
4.50255e-06
2.5124e-08
-3.15557e-08
4.50909e-06
2.56166e-08
-3.21546e-08
4.51572e-06
2.60463e-08
-3.26779e-08
4.52244e-06
2.64203e-08
-3.3134e-08
4.52922e-06
2.67442e-08
-3.35298e-08
4.53607e-06
2.70225e-08
-3.38705e-08
4.54297e-06
2.72587e-08
-3.41602e-08
4.54992e-06
2.74554e-08
-3.44018e-08
4.5569e-06
2.76145e-08
-3.45975e-08
4.56391e-06
2.77373e-08
-3.47488e-08
4.57094e-06
2.78246e-08
-3.48564e-08
4.57799e-06
2.78768e-08
-3.49205e-08
4.58504e-06
2.78939e-08
-3.49411e-08
4.59208e-06
2.78758e-08
-3.4918e-08
4.59911e-06
2.78221e-08
-3.48507e-08
4.60611e-06
2.77325e-08
-3.47384e-08
4.61309e-06
2.76064e-08
-3.45802e-08
4.62002e-06
2.74433e-08
-3.43751e-08
4.6269e-06
2.7243e-08
-3.41228e-08
4.63372e-06
2.70056e-08
-3.38235e-08
4.64046e-06
2.67316e-08
-3.34777e-08
4.64713e-06
2.64217e-08
-3.30864e-08
4.6537e-06
2.60769e-08
-3.26508e-08
4.66017e-06
2.56987e-08
-3.21725e-08
4.66654e-06
2.52884e-08
-3.16536e-08
4.67279e-06
2.4848e-08
-3.10963e-08
4.67891e-06
2.43793e-08
-3.05032e-08
4.6849e-06
2.38849e-08
-2.98771e-08
4.69076e-06
2.33667e-08
-2.92212e-08
4.69647e-06
2.28275e-08
-2.85383e-08
4.70203e-06
2.22692e-08
-2.78313e-08
4.70744e-06
2.16946e-08
-2.71031e-08
4.71269e-06
2.11059e-08
-2.6357e-08
4.71778e-06
2.05055e-08
-2.5596e-08
4.72271e-06
1.98954e-08
-2.4823e-08
4.72747e-06
1.92777e-08
-2.40406e-08
4.73207e-06
1.86534e-08
-2.32503e-08
4.7365e-06
1.80232e-08
-2.24528e-08
4.74076e-06
1.73865e-08
-2.16475e-08
4.74485e-06
1.67432e-08
-2.08335e-08
4.74877e-06
1.60909e-08
-2.00092e-08
4.75251e-06
1.54288e-08
-1.91717e-08
4.75608e-06
1.47522e-08
-1.83177e-08
4.75946e-06
1.40589e-08
-1.74415e-08
4.76265e-06
1.33419e-08
-1.65376e-08
4.76565e-06
1.25965e-08
-1.55972e-08
4.76845e-06
1.18134e-08
-1.46115e-08
4.77104e-06
1.0984e-08
-1.35678e-08
4.77339e-06
1.0096e-08
-1.24529e-08
4.77551e-06
9.13691e-09
-1.12497e-08
4.77736e-06
8.08802e-09
-9.94015e-09
4.77892e-06
6.93674e-09
-8.50117e-09
4.78018e-06
5.65494e-09
-6.91215e-09
4.78109e-06
4.237e-09
-5.14295e-09
4.7816e-06
2.63759e-09
-3.15222e-09
4.78168e-06
8.23683e-10
-9.02086e-10
4.78126e-06
-1.24522e-09
1.66067e-09
4.78029e-06
-3.61755e-09
4.5911e-09
4.77868e-06
-6.35067e-09
7.95772e-09
4.77635e-06
-9.51204e-09
1.18409e-08
4.7732e-06
-1.31827e-08
1.63372e-08
4.7691e-06
-1.74612e-08
2.15629e-08
4.76391e-06
-2.24662e-08
2.76578e-08
4.75746e-06
-2.83418e-08
3.479e-08
4.74956e-06
-3.5263e-08
4.31634e-08
4.73998e-06
-4.34446e-08
5.30266e-08
4.72844e-06
-5.31508e-08
6.46837e-08
4.71464e-06
-6.47086e-08
7.85094e-08
4.6982e-06
-7.8525e-08
9.49669e-08
4.67868e-06
-9.51093e-08
1.14632e-07
4.65555e-06
-1.15102e-07
1.38226e-07
4.62822e-06
-1.39314e-07
1.66652e-07
4.59594e-06
-1.6878e-07
2.01058e-07
4.55786e-06
-2.04824e-07
2.42899e-07
4.51297e-06
-2.49159e-07
2.94049e-07
4.46006e-06
-3.04015e-07
3.56929e-07
4.39767e-06
-3.72316e-07
4.34706e-07
4.32405e-06
-4.57924e-07
5.31546e-07
4.23699e-06
-5.66007e-07
6.53066e-07
4.13368e-06
-7.03478e-07
8.06783e-07
4.00985e-06
-8.79953e-07
1.00378e-06
3.85951e-06
-1.10803e-06
1.25837e-06
3.66742e-06
-1.40728e-06
1.59937e-06
3.41205e-06
-1.79772e-06
2.05309e-06
2.97179e-06
-2.32865e-06
2.76891e-06
2.20772e-06
-2.97078e-06
3.73485e-06
-4.23445e-06
6.44217e-06
4.43318e-06
1.0284e-09
4.43432e-06
3.09032e-09
4.43619e-06
5.08751e-09
4.43873e-06
6.9705e-09
4.44188e-06
8.70644e-09
4.44556e-06
1.02813e-08
4.4497e-06
1.1694e-08
4.45425e-06
1.29504e-08
4.45916e-06
1.40597e-08
4.46436e-06
1.50338e-08
4.46984e-06
1.58858e-08
4.47554e-06
1.66298e-08
4.48143e-06
1.72791e-08
4.4875e-06
1.78458e-08
4.49372e-06
1.83406e-08
4.50007e-06
1.87727e-08
4.50654e-06
1.915e-08
4.51311e-06
1.94789e-08
4.51976e-06
1.97648e-08
4.52649e-06
2.00122e-08
4.53329e-06
2.02245e-08
4.54015e-06
2.04045e-08
4.54705e-06
2.05543e-08
4.55399e-06
2.06754e-08
4.56096e-06
2.0769e-08
4.56794e-06
2.08356e-08
4.57495e-06
2.08757e-08
4.58195e-06
2.08895e-08
4.58895e-06
2.08766e-08
4.59593e-06
2.08371e-08
4.6029e-06
2.07708e-08
4.60982e-06
2.06773e-08
4.61671e-06
2.05563e-08
4.62355e-06
2.04078e-08
4.63032e-06
2.02318e-08
4.63702e-06
2.00288e-08
4.64365e-06
1.97993e-08
4.65018e-06
1.9544e-08
4.65661e-06
1.9264e-08
4.66294e-06
1.89604e-08
4.66915e-06
1.86347e-08
4.67525e-06
1.82882e-08
4.68121e-06
1.79228e-08
4.68703e-06
1.754e-08
4.69272e-06
1.71418e-08
4.69826e-06
1.67299e-08
4.70365e-06
1.63061e-08
4.70888e-06
1.58723e-08
4.71396e-06
1.54301e-08
4.71887e-06
1.49812e-08
4.72362e-06
1.45267e-08
4.72821e-06
1.40678e-08
4.73263e-06
1.36047e-08
4.73688e-06
1.31375e-08
4.74095e-06
1.26657e-08
4.74486e-06
1.21882e-08
4.74858e-06
1.17036e-08
4.75212e-06
1.12093e-08
4.75548e-06
1.07032e-08
4.75864e-06
1.01801e-08
4.7616e-06
9.63724e-09
4.76435e-06
9.06637e-09
4.76687e-06
8.46306e-09
4.76915e-06
7.81589e-09
4.77117e-06
7.1175e-09
4.7729e-06
6.35141e-09
4.77433e-06
5.50838e-09
4.77542e-06
4.56407e-09
4.77614e-06
3.5185e-09
4.77643e-06
2.35135e-09
4.77624e-06
1.01508e-09
4.7755e-06
-5.10667e-10
4.77415e-06
-2.26526e-09
4.77209e-06
-4.29378e-09
4.76923e-06
-6.64773e-09
4.76544e-06
-9.38963e-09
4.76057e-06
-1.25961e-08
4.75446e-06
-1.636e-08
4.74692e-06
-2.07945e-08
4.73769e-06
-2.60374e-08
4.72651e-06
-3.22589e-08
4.71302e-06
-3.96691e-08
4.69684e-06
-4.85292e-08
4.67749e-06
-5.91661e-08
4.65437e-06
-7.19905e-08
4.62679e-06
-8.75221e-08
4.59389e-06
-1.06422e-07
4.55465e-06
-1.29537e-07
4.50778e-06
-1.57957e-07
4.45172e-06
-1.93097e-07
4.38451e-06
-2.368e-07
4.30367e-06
-2.91481e-07
4.20606e-06
-3.60314e-07
4.08753e-06
-4.47476e-07
3.9425e-06
-5.58448e-07
3.76294e-06
-7.00389e-07
3.53721e-06
-8.82305e-07
3.24558e-06
-1.11564e-06
2.86091e-06
-1.41305e-06
2.31978e-06
-1.78751e-06
1.60033e-06
-2.25133e-06
-2.63413e-06
4.43315e-06
6.73406e-10
4.43422e-06
2.02333e-09
4.43598e-06
3.33348e-09
4.43837e-06
4.57327e-09
4.44136e-06
5.72166e-09
4.44487e-06
6.76845e-09
4.44885e-06
7.71134e-09
4.45325e-06
8.5528e-09
4.45801e-06
9.29805e-09
4.46309e-06
9.95414e-09
4.46845e-06
1.05293e-08
4.47405e-06
1.10323e-08
4.47985e-06
1.14717e-08
4.48584e-06
1.18554e-08
4.49199e-06
1.21905e-08
4.49828e-06
1.24831e-08
4.5047e-06
1.27384e-08
4.51121e-06
1.2961e-08
4.51782e-06
1.31543e-08
4.52451e-06
1.33215e-08
4.53127e-06
1.3465e-08
4.53809e-06
1.35867e-08
4.54496e-06
1.3688e-08
4.55186e-06
1.377e-08
4.5588e-06
1.38335e-08
4.56576e-06
1.38791e-08
4.57272e-06
1.39069e-08
4.5797e-06
1.39173e-08
4.58666e-06
1.39097e-08
4.59362e-06
1.38846e-08
4.60054e-06
1.38418e-08
4.60744e-06
1.37811e-08
4.6143e-06
1.37021e-08
4.6211e-06
1.36053e-08
4.62784e-06
1.34902e-08
4.63451e-06
1.33576e-08
4.6411e-06
1.32074e-08
4.64761e-06
1.30406e-08
4.65401e-06
1.28575e-08
4.66031e-06
1.26593e-08
4.6665e-06
1.24465e-08
4.67257e-06
1.22205e-08
4.67851e-06
1.19822e-08
4.68432e-06
1.1733e-08
4.68999e-06
1.14739e-08
4.69551e-06
1.12064e-08
4.70088e-06
1.09315e-08
4.7061e-06
1.06509e-08
4.71117e-06
1.0365e-08
4.71607e-06
1.0076e-08
4.72082e-06
9.78358e-09
4.7254e-06
9.48981e-09
4.72981e-06
9.19349e-09
4.73405e-06
8.89658e-09
4.73812e-06
8.59687e-09
4.74201e-06
8.29586e-09
4.74572e-06
7.99079e-09
4.74925e-06
7.68187e-09
4.75259e-06
7.36633e-09
4.75572e-06
7.04221e-09
4.75865e-06
6.70686e-09
4.76137e-06
6.35595e-09
4.76384e-06
5.98594e-09
4.76607e-06
5.59071e-09
4.76802e-06
5.16422e-09
4.76967e-06
4.6983e-09
4.771e-06
4.18174e-09
4.77196e-06
3.60336e-09
4.77254e-06
2.94112e-09
4.77266e-06
2.23401e-09
4.77226e-06
1.40897e-09
4.77129e-06
4.65539e-10
4.76965e-06
-6.25728e-10
4.76725e-06
-1.89498e-09
4.76397e-06
-3.37531e-09
4.75969e-06
-5.10827e-09
4.75424e-06
-7.14531e-09
4.74743e-06
-9.54947e-09
4.73904e-06
-1.23973e-08
4.72878e-06
-1.57828e-08
4.71634e-06
-1.98222e-08
4.70133e-06
-2.46601e-08
4.68328e-06
-3.04768e-08
4.66161e-06
-3.74988e-08
4.63564e-06
-4.60123e-08
4.6045e-06
-5.63808e-08
4.56714e-06
-6.90685e-08
4.52228e-06
-8.46723e-08
4.46828e-06
-1.03963e-07
4.40313e-06
-1.27942e-07
4.32424e-06
-1.57915e-07
4.22835e-06
-1.95586e-07
4.11121e-06
-2.43181e-07
3.96732e-06
-3.03584e-07
3.78936e-06
-3.80486e-07
3.56744e-06
-4.78471e-07
3.28807e-06
-6.02934e-07
2.93196e-06
-7.59535e-07
2.47126e-06
-9.52353e-07
1.8621e-06
-1.17834e-06
1.03509e-06
-1.42433e-06
-1.59903e-06
4.43314e-06
4.43416e-06
4.43584e-06
4.43815e-06
4.44103e-06
4.44444e-06
3.36134e-09
4.44832e-06
3.83328e-09
4.45262e-06
4.25529e-09
4.45728e-06
4.62969e-09
4.46228e-06
4.9598e-09
4.46756e-06
5.24954e-09
4.47309e-06
5.50314e-09
4.47883e-06
5.72479e-09
4.48477e-06
5.9184e-09
4.49087e-06
6.08748e-09
4.49712e-06
6.23511e-09
4.5035e-06
6.36396e-09
4.50998e-06
6.47628e-09
4.51656e-06
6.57392e-09
4.52323e-06
6.65845e-09
4.52996e-06
6.73111e-09
4.53675e-06
6.79289e-09
4.5436e-06
6.84454e-09
4.55048e-06
6.88664e-09
4.55739e-06
6.9196e-09
4.56433e-06
6.94372e-09
4.57128e-06
6.95907e-09
4.57823e-06
6.96607e-09
4.58517e-06
6.96375e-09
4.59211e-06
6.95339e-09
4.59901e-06
6.93397e-09
4.60589e-06
6.90614e-09
4.61272e-06
6.86929e-09
4.6195e-06
6.82385e-09
4.62622e-06
6.76941e-09
4.63287e-06
6.70674e-09
4.63945e-06
6.63535e-09
4.64593e-06
6.55637e-09
4.65232e-06
6.46924e-09
4.6586e-06
6.37544e-09
4.66477e-06
6.27444e-09
4.67083e-06
6.16784e-09
4.67675e-06
6.05532e-09
4.68255e-06
5.93843e-09
4.68821e-06
5.81709e-09
4.69372e-06
5.69275e-09
4.69909e-06
5.56542e-09
4.7043e-06
5.43668e-09
4.70936e-06
5.30615e-09
4.71426e-06
5.17599e-09
4.719e-06
5.04487e-09
4.72357e-06
4.91575e-09
4.72798e-06
4.78607e-09
4.73222e-06
4.65947e-09
4.73628e-06
4.53241e-09
4.74017e-06
4.40864e-09
4.74387e-06
4.28437e-09
4.74739e-06
4.16246e-09
4.75072e-06
4.03983e-09
4.75384e-06
3.91719e-09
4.75676e-06
3.79336e-09
4.75945e-06
3.66566e-09
4.7619e-06
3.5349e-09
4.76409e-06
3.39617e-09
4.76601e-06
3.24886e-09
4.76762e-06
3.09055e-09
4.76889e-06
2.91267e-09
4.76977e-06
2.72155e-09
4.77023e-06
2.47766e-09
4.77024e-06
2.2222e-09
4.76972e-06
1.9322e-09
4.76859e-06
1.59616e-09
4.76677e-06
1.19807e-09
4.76415e-06
7.2533e-10
4.76061e-06
1.63409e-10
4.756e-06
-5.06678e-10
4.75017e-06
-1.30863e-09
4.74289e-06
-2.27234e-09
4.73393e-06
-3.43424e-09
4.72298e-06
-4.83954e-09
4.70971e-06
-6.54446e-09
4.69367e-06
-8.61935e-09
4.67434e-06
-1.11528e-08
4.6511e-06
-1.42569e-08
4.62316e-06
-1.8074e-08
4.58957e-06
-2.27862e-08
4.54913e-06
-2.86274e-08
4.50035e-06
-3.58995e-08
4.44139e-06
-4.49944e-08
4.36987e-06
-5.64229e-08
4.2828e-06
-7.08512e-08
4.17637e-06
-8.91491e-08
4.04563e-06
-1.12447e-07
3.88425e-06
-1.42198e-07
3.68399e-06
-1.80231e-07
3.43427e-06
-2.28755e-07
3.12159e-06
-2.90248e-07
2.72908e-06
-3.67028e-07
2.2369e-06
-4.60172e-07
1.62539e-06
-5.66837e-07
8.78374e-07
-6.77312e-07
-7.20658e-07
4.44423e-06
4.44806e-06
4.45231e-06
4.45693e-06
4.46188e-06
4.46712e-06
4.47262e-06
4.47834e-06
4.48425e-06
4.49033e-06
4.49655e-06
4.50291e-06
4.50938e-06
4.51594e-06
4.52259e-06
4.52931e-06
4.53609e-06
4.54293e-06
4.5498e-06
4.5567e-06
4.56363e-06
4.57056e-06
4.5775e-06
4.58444e-06
4.59136e-06
4.59826e-06
4.60512e-06
4.61194e-06
4.61872e-06
4.62543e-06
4.63207e-06
4.63863e-06
4.6451e-06
4.65148e-06
4.65776e-06
4.66393e-06
4.66997e-06
4.67589e-06
4.68168e-06
4.68733e-06
4.69284e-06
4.69821e-06
4.70342e-06
4.70848e-06
4.71338e-06
4.71811e-06
4.72269e-06
4.72709e-06
4.73133e-06
4.7354e-06
4.73929e-06
4.74299e-06
4.74651e-06
4.74984e-06
4.75296e-06
4.75587e-06
4.75855e-06
4.761e-06
4.76319e-06
4.76509e-06
4.76669e-06
4.76794e-06
4.76883e-06
4.76924e-06
4.76919e-06
4.76859e-06
4.7674e-06
4.7655e-06
4.76278e-06
4.75913e-06
4.75439e-06
4.74839e-06
4.7409e-06
4.73168e-06
4.72042e-06
4.70676e-06
4.69023e-06
4.67031e-06
4.64631e-06
4.61742e-06
4.58263e-06
4.54067e-06
4.48997e-06
4.42853e-06
4.35383e-06
4.26266e-06
4.15093e-06
4.01337e-06
3.84326e-06
3.63199e-06
3.36877e-06
3.0403e-06
2.63101e-06
2.12437e-06
1.50695e-06
7.75271e-07
4.38961e-06
4.31913e-08
4.32861e-06
6.09963e-08
4.26319e-06
6.54191e-08
4.19521e-06
6.79821e-08
4.12497e-06
7.02437e-08
4.05284e-06
7.21231e-08
3.97982e-06
7.30196e-08
3.90614e-06
7.36843e-08
3.83213e-06
7.40086e-08
3.75798e-06
7.4156e-08
3.68379e-06
7.41852e-08
3.6097e-06
7.40953e-08
3.53583e-06
7.3863e-08
3.46229e-06
7.35376e-08
3.38913e-06
7.31692e-08
3.31637e-06
7.27603e-08
3.24406e-06
7.2305e-08
3.17226e-06
7.17988e-08
3.10102e-06
7.1241e-08
3.03039e-06
7.0632e-08
2.96041e-06
6.99764e-08
2.89113e-06
6.92784e-08
2.8226e-06
6.8535e-08
2.75484e-06
6.77576e-08
2.68791e-06
6.69291e-08
2.62184e-06
6.60727e-08
2.55662e-06
6.52192e-08
2.49221e-06
6.44145e-08
2.42872e-06
6.34857e-08
2.36639e-06
6.23309e-08
2.30535e-06
6.10437e-08
2.24568e-06
5.96642e-08
2.18748e-06
5.8198e-08
2.13083e-06
5.66501e-08
2.07581e-06
5.50268e-08
2.02247e-06
5.33335e-08
1.9709e-06
5.15753e-08
1.92114e-06
4.97556e-08
1.87326e-06
4.78809e-08
1.8273e-06
4.59606e-08
1.78329e-06
4.40061e-08
1.74127e-06
4.20258e-08
1.70124e-06
4.00267e-08
1.66326e-06
3.79823e-08
1.62732e-06
3.59349e-08
1.59338e-06
3.39407e-08
1.56141e-06
3.1978e-08
1.53136e-06
3.00454e-08
1.50321e-06
2.81539e-08
1.47691e-06
2.62973e-08
1.45242e-06
2.44882e-08
1.42969e-06
2.27303e-08
1.40866e-06
2.10336e-08
1.38926e-06
1.9401e-08
1.37142e-06
1.78377e-08
1.35508e-06
1.63395e-08
1.34017e-06
1.49087e-08
1.32663e-06
1.35357e-08
1.31441e-06
1.22292e-08
1.30343e-06
1.09728e-08
1.29367e-06
9.76211e-09
1.28509e-06
8.58215e-09
1.27766e-06
7.43038e-09
1.27137e-06
6.28808e-09
1.26622e-06
5.15321e-09
1.26222e-06
3.99356e-09
1.2594e-06
2.8182e-09
1.25787e-06
1.53674e-09
1.25771e-06
1.55206e-10
1.25904e-06
-1.32329e-09
1.26204e-06
-3.00777e-09
1.26687e-06
-4.82119e-09
1.2736e-06
-6.7395e-09
1.28247e-06
-8.86669e-09
1.29361e-06
-1.11357e-08
1.30742e-06
-1.38124e-08
1.32415e-06
-1.67317e-08
1.34417e-06
-2.00194e-08
1.36791e-06
-2.3739e-08
1.39588e-06
-2.79696e-08
1.42869e-06
-3.28075e-08
1.46699e-06
-3.83075e-08
1.51156e-06
-4.45642e-08
1.56324e-06
-5.16789e-08
1.623e-06
-5.97615e-08
1.69191e-06
-6.89138e-08
1.77116e-06
-7.92461e-08
1.86208e-06
-9.09246e-08
1.96626e-06
-1.04173e-07
2.08546e-06
-1.19208e-07
2.22159e-06
-1.36127e-07
2.37647e-06
-1.54883e-07
2.55222e-06
-1.75748e-07
2.75116e-06
-1.98936e-07
2.97563e-06
-2.24469e-07
3.22549e-06
-2.49859e-07
3.49842e-06
-2.72933e-07
3.79264e-06
-2.94226e-07
4.10541e-06
-3.12765e-07
4.43166e-06
-3.26254e-07
4.76413e-06
-3.32461e-07
-3.29548e-07
5.09367e-06
4.45657e-06
1.94197e-08
4.47444e-06
4.31272e-08
4.48639e-06
5.34719e-08
4.49368e-06
6.06922e-08
4.49803e-06
6.58921e-08
4.50003e-06
7.01261e-08
4.49995e-06
7.31006e-08
4.49803e-06
7.56027e-08
4.49449e-06
7.75481e-08
4.48945e-06
7.91913e-08
4.48297e-06
8.06703e-08
4.47516e-06
8.19018e-08
4.46624e-06
8.27788e-08
4.45623e-06
8.35551e-08
4.44512e-06
8.42779e-08
4.43296e-06
8.49226e-08
4.41977e-06
8.54883e-08
4.40561e-06
8.59605e-08
4.39051e-06
8.63392e-08
4.37452e-06
8.66268e-08
4.35766e-06
8.68366e-08
4.33996e-06
8.698e-08
4.32146e-06
8.70299e-08
4.30217e-06
8.70492e-08
4.28215e-06
8.6954e-08
4.26142e-06
8.67931e-08
4.24006e-06
8.65844e-08
4.21816e-06
8.63097e-08
4.19577e-06
8.58813e-08
4.17282e-06
8.5284e-08
4.14937e-06
8.44845e-08
4.1255e-06
8.35384e-08
4.10124e-06
8.24579e-08
4.07665e-06
8.12426e-08
4.05178e-06
7.98972e-08
4.02668e-06
7.84275e-08
4.00142e-06
7.68403e-08
3.97604e-06
7.51348e-08
3.9506e-06
7.33192e-08
3.92516e-06
7.14047e-08
3.89976e-06
6.94051e-08
3.87445e-06
6.73367e-08
3.84926e-06
6.52143e-08
3.82419e-06
6.30526e-08
3.79928e-06
6.08407e-08
3.77464e-06
5.85804e-08
3.75032e-06
5.63029e-08
3.72634e-06
5.40201e-08
3.70275e-06
5.17456e-08
3.67958e-06
4.94722e-08
3.65685e-06
4.72138e-08
3.63461e-06
4.49746e-08
3.61287e-06
4.27727e-08
3.59166e-06
4.06133e-08
3.57099e-06
3.8505e-08
3.55089e-06
3.64433e-08
3.53136e-06
3.44323e-08
3.51244e-06
3.24624e-08
3.49412e-06
3.05396e-08
3.47645e-06
2.86448e-08
3.45944e-06
2.67729e-08
3.44312e-06
2.4901e-08
3.42753e-06
2.30232e-08
3.4127e-06
2.11169e-08
3.39868e-06
1.91757e-08
3.38552e-06
1.71519e-08
3.3733e-06
1.50427e-08
3.36205e-06
1.27824e-08
3.35183e-06
1.03786e-08
3.34274e-06
7.76121e-09
3.33488e-06
4.85968e-09
3.32836e-06
1.69501e-09
3.32349e-06
-1.86624e-09
3.32055e-06
-5.93116e-09
3.31972e-06
-1.03043e-08
3.32117e-06
-1.5264e-08
3.32528e-06
-2.08455e-08
3.33242e-06
-2.71505e-08
3.34297e-06
-3.42908e-08
3.35739e-06
-4.23907e-08
3.37617e-06
-5.15894e-08
3.3999e-06
-6.20324e-08
3.42922e-06
-7.38899e-08
3.46489e-06
-8.73484e-08
3.50774e-06
-1.02615e-07
3.55875e-06
-1.19921e-07
3.61903e-06
-1.39523e-07
3.68983e-06
-1.61729e-07
3.77266e-06
-1.87e-07
3.86917e-06
-2.15719e-07
3.98082e-06
-2.47775e-07
4.10875e-06
-2.82812e-07
4.25384e-06
-3.20839e-07
4.41719e-06
-3.62284e-07
4.60019e-06
-4.07469e-07
4.80308e-06
-4.52747e-07
5.02656e-06
-4.96421e-07
5.27177e-06
-5.39431e-07
5.53767e-06
-5.78664e-07
5.82138e-06
-6.0997e-07
6.11783e-06
-6.28906e-07
-6.3154e-07
6.41982e-06
4.4409e-06
1.13199e-08
4.45342e-06
3.06056e-08
4.46495e-06
4.19457e-08
4.47611e-06
4.95299e-08
4.48659e-06
5.54129e-08
4.49642e-06
6.0292e-08
4.50541e-06
6.4115e-08
4.51374e-06
6.72723e-08
4.52145e-06
6.98394e-08
4.52865e-06
7.1988e-08
4.53568e-06
7.36419e-08
4.5425e-06
7.50843e-08
4.54871e-06
7.65663e-08
4.55436e-06
7.79007e-08
4.55958e-06
7.90588e-08
4.56443e-06
8.00786e-08
4.56892e-06
8.09947e-08
4.57306e-06
8.18167e-08
4.57685e-06
8.25562e-08
4.58025e-06
8.32229e-08
4.58329e-06
8.37987e-08
4.58599e-06
8.42828e-08
4.58834e-06
8.46749e-08
4.59035e-06
8.50412e-08
4.592e-06
8.52988e-08
4.59332e-06
8.54797e-08
4.59426e-06
8.56412e-08
4.59483e-06
8.57379e-08
4.59509e-06
8.56245e-08
4.59501e-06
8.53623e-08
4.59456e-06
8.49371e-08
4.59372e-06
8.43768e-08
4.59249e-06
8.36844e-08
4.59088e-06
8.28593e-08
4.58887e-06
8.19033e-08
4.58648e-06
8.082e-08
4.58371e-06
7.96126e-08
4.58057e-06
7.82757e-08
4.57707e-06
7.68178e-08
4.57321e-06
7.5259e-08
4.56902e-06
7.35999e-08
4.5645e-06
7.1856e-08
4.55966e-06
7.00552e-08
4.55452e-06
6.81938e-08
4.5491e-06
6.62543e-08
4.54342e-06
6.42661e-08
4.53748e-06
6.22359e-08
4.53132e-06
6.0184e-08
4.52495e-06
5.81183e-08
4.51838e-06
5.60352e-08
4.51167e-06
5.39335e-08
4.50481e-06
5.18273e-08
4.49785e-06
4.9735e-08
4.4908e-06
4.76643e-08
4.48368e-06
4.56191e-08
4.47653e-06
4.3599e-08
4.46936e-06
4.16036e-08
4.46219e-06
3.96274e-08
4.45506e-06
3.76688e-08
4.44799e-06
3.57149e-08
4.44101e-06
3.37529e-08
4.43415e-06
3.17656e-08
4.42744e-06
2.97351e-08
4.42091e-06
2.76466e-08
4.41461e-06
2.54772e-08
4.40856e-06
2.3194e-08
4.40284e-06
2.07692e-08
4.39744e-06
1.81805e-08
4.39246e-06
1.53529e-08
4.388e-06
1.22301e-08
4.3841e-06
8.7603e-09
4.38085e-06
4.94212e-09
4.37825e-06
7.27781e-10
4.37647e-06
-4.15165e-09
4.37573e-06
-9.5622e-09
4.37616e-06
-1.56871e-08
4.37794e-06
-2.26301e-08
4.3813e-06
-3.05126e-08
4.38649e-06
-3.94826e-08
4.39381e-06
-4.97053e-08
4.40359e-06
-6.13664e-08
4.41623e-06
-7.46754e-08
4.43221e-06
-8.98724e-08
4.45208e-06
-1.07213e-07
4.47646e-06
-1.27004e-07
4.5061e-06
-1.49554e-07
4.54171e-06
-1.75137e-07
4.58414e-06
-2.0416e-07
4.63443e-06
-2.37286e-07
4.69359e-06
-2.74881e-07
4.7626e-06
-3.16783e-07
4.84281e-06
-3.63024e-07
4.93633e-06
-4.14358e-07
5.04534e-06
-4.71297e-07
5.16982e-06
-5.31947e-07
5.31511e-06
-5.98033e-07
5.48772e-06
-6.69031e-07
5.68754e-06
-7.39258e-07
5.91367e-06
-8.04793e-07
6.16491e-06
-8.61207e-07
6.43742e-06
-9.01416e-07
-9.18546e-07
6.72443e-06
4.43657e-06
7.55343e-09
4.44509e-06
2.20859e-08
4.45425e-06
3.27814e-08
4.46325e-06
4.05335e-08
4.47206e-06
4.66041e-08
4.48072e-06
5.16285e-08
4.48912e-06
5.57097e-08
4.49734e-06
5.90528e-08
4.50537e-06
6.18118e-08
4.51324e-06
6.41213e-08
4.52086e-06
6.60211e-08
4.52829e-06
6.76539e-08
4.53572e-06
6.91396e-08
4.54311e-06
7.0509e-08
4.55043e-06
7.17319e-08
4.55769e-06
7.28258e-08
4.56487e-06
7.38078e-08
4.572e-06
7.46938e-08
4.57907e-06
7.54849e-08
4.5861e-06
7.61934e-08
4.59308e-06
7.68179e-08
4.6e-06
7.73634e-08
4.60685e-06
7.78209e-08
4.61369e-06
7.82075e-08
4.62048e-06
7.85031e-08
4.62724e-06
7.87221e-08
4.63407e-06
7.88155e-08
4.641e-06
7.88006e-08
4.64785e-06
7.8772e-08
4.65453e-06
7.8689e-08
4.66099e-06
7.8471e-08
4.66725e-06
7.81168e-08
4.67331e-06
7.76299e-08
4.67914e-06
7.70233e-08
4.68476e-06
7.62916e-08
4.69013e-06
7.54452e-08
4.69527e-06
7.44785e-08
4.70013e-06
7.34134e-08
4.7047e-06
7.22426e-08
4.709e-06
7.09653e-08
4.71304e-06
6.95556e-08
4.71683e-06
6.8069e-08
4.72036e-06
6.65186e-08
4.72363e-06
6.49231e-08
4.72666e-06
6.32326e-08
4.72941e-06
6.15119e-08
4.73192e-06
5.97292e-08
4.73415e-06
5.79519e-08
4.7361e-06
5.61712e-08
4.7378e-06
5.43301e-08
4.7393e-06
5.24382e-08
4.74058e-06
5.05414e-08
4.74166e-06
4.8656e-08
4.74254e-06
4.6783e-08
4.74324e-06
4.49227e-08
4.74376e-06
4.30744e-08
4.74413e-06
4.12369e-08
4.74436e-06
3.94022e-08
4.74446e-06
3.75659e-08
4.74446e-06
3.5718e-08
4.74436e-06
3.38448e-08
4.7442e-06
3.19304e-08
4.74398e-06
2.99564e-08
4.74372e-06
2.79032e-08
4.74346e-06
2.57436e-08
4.7432e-06
2.34506e-08
4.74297e-06
2.0994e-08
4.74282e-06
1.83319e-08
4.74277e-06
1.54102e-08
4.74282e-06
1.21767e-08
4.743e-06
8.5797e-09
4.74337e-06
4.56967e-09
4.74402e-06
8.16386e-11
4.7449e-06
-5.03367e-09
4.74614e-06
-1.07994e-08
4.74779e-06
-1.73386e-08
4.74994e-06
-2.47864e-08
4.75272e-06
-3.32909e-08
4.75626e-06
-4.30163e-08
4.7607e-06
-5.41465e-08
4.76623e-06
-6.69015e-08
4.77309e-06
-8.15369e-08
4.78157e-06
-9.83484e-08
4.79201e-06
-1.17657e-07
4.80493e-06
-1.39918e-07
4.82078e-06
-1.65405e-07
4.84014e-06
-1.94499e-07
4.86394e-06
-2.27955e-07
4.89273e-06
-2.66075e-07
4.92728e-06
-3.0943e-07
4.96975e-06
-3.59255e-07
5.02352e-06
-4.16801e-07
5.09143e-06
-4.8226e-07
5.17561e-06
-5.55478e-07
5.28026e-06
-6.36601e-07
5.4079e-06
-7.25667e-07
5.5608e-06
-8.21934e-07
5.74395e-06
-9.22411e-07
5.95996e-06
-1.0208e-06
6.21012e-06
-1.11137e-06
6.48971e-06
-1.181e-06
-1.22162e-06
6.79278e-06
4.43481e-06
5.53996e-09
4.44013e-06
1.67662e-08
4.44679e-06
2.61283e-08
4.45385e-06
3.34713e-08
4.46113e-06
3.93197e-08
4.46859e-06
4.41726e-08
4.47608e-06
4.82222e-08
4.48354e-06
5.15871e-08
4.49097e-06
5.43863e-08
4.49836e-06
5.67309e-08
4.50567e-06
5.87074e-08
4.51292e-06
6.04053e-08
4.52016e-06
6.19024e-08
4.52742e-06
6.32491e-08
4.5347e-06
6.44497e-08
4.54201e-06
6.55138e-08
4.54936e-06
6.64603e-08
4.55675e-06
6.73059e-08
4.56417e-06
6.80585e-08
4.57164e-06
6.87261e-08
4.57915e-06
6.93132e-08
4.58669e-06
6.98225e-08
4.59425e-06
7.0253e-08
4.60184e-06
7.06217e-08
4.60943e-06
7.09152e-08
4.61702e-06
7.1129e-08
4.62458e-06
7.12587e-08
4.63208e-06
7.12996e-08
4.63958e-06
7.12673e-08
4.64711e-06
7.11666e-08
4.6546e-06
7.09771e-08
4.66204e-06
7.06795e-08
4.66939e-06
7.02722e-08
4.67666e-06
6.97592e-08
4.68381e-06
6.91356e-08
4.69085e-06
6.84119e-08
4.69774e-06
6.75816e-08
4.7045e-06
6.66601e-08
4.7111e-06
6.56368e-08
4.71754e-06
6.45285e-08
4.72378e-06
6.33165e-08
4.72981e-06
6.20359e-08
4.73566e-06
6.06748e-08
4.74132e-06
5.92643e-08
4.74677e-06
5.77767e-08
4.75203e-06
5.62582e-08
4.75708e-06
5.46729e-08
4.76198e-06
5.3056e-08
4.76677e-06
5.13761e-08
4.77139e-06
4.97172e-08
4.77574e-06
4.80874e-08
4.77982e-06
4.64535e-08
4.78367e-06
4.48075e-08
4.7873e-06
4.31546e-08
4.79072e-06
4.14989e-08
4.79396e-06
3.98395e-08
4.79701e-06
3.81819e-08
4.79991e-06
3.65078e-08
4.80265e-06
3.482e-08
4.80526e-06
3.31114e-08
4.80774e-06
3.13659e-08
4.8101e-06
2.95696e-08
4.81235e-06
2.77036e-08
4.81451e-06
2.57487e-08
4.81657e-06
2.36841e-08
4.81854e-06
2.14742e-08
4.82046e-06
1.90809e-08
4.82232e-06
1.64689e-08
4.82414e-06
1.35938e-08
4.82591e-06
1.04032e-08
4.82765e-06
6.84063e-09
4.82937e-06
2.85268e-09
4.83109e-06
-1.63709e-09
4.83279e-06
-6.7376e-09
4.83453e-06
-1.25365e-08
4.83633e-06
-1.91427e-08
4.83824e-06
-2.66931e-08
4.84029e-06
-3.53425e-08
4.84255e-06
-4.5274e-08
4.84511e-06
-5.67104e-08
4.84812e-06
-6.9907e-08
4.85171e-06
-8.51341e-08
4.85606e-06
-1.02698e-07
4.8614e-06
-1.22998e-07
4.86789e-06
-1.46406e-07
4.87613e-06
-1.73641e-07
4.88707e-06
-2.05446e-07
4.90141e-06
-2.42292e-07
4.92029e-06
-2.84952e-07
4.94519e-06
-3.34334e-07
4.9776e-06
-3.9166e-07
5.01908e-06
-4.58284e-07
5.07223e-06
-5.35409e-07
5.14071e-06
-6.23962e-07
5.22884e-06
-7.24725e-07
5.34145e-06
-8.38282e-07
5.48383e-06
-9.64308e-07
5.66234e-06
-1.10093e-06
5.88217e-06
-1.24063e-06
6.15033e-06
-1.37953e-06
6.45717e-06
-1.48784e-06
-1.56862e-06
6.80418e-06
4.43399e-06
4.3511e-09
4.43757e-06
1.31883e-08
4.44263e-06
2.10616e-08
4.44847e-06
2.76357e-08
4.45474e-06
3.30477e-08
4.46132e-06
3.75984e-08
4.46808e-06
4.14626e-08
4.47494e-06
4.47257e-08
4.48185e-06
4.74696e-08
4.48879e-06
4.97899e-08
4.49574e-06
5.17651e-08
4.50268e-06
5.34642e-08
4.50964e-06
5.49449e-08
4.51663e-06
5.62517e-08
4.52367e-06
5.74079e-08
4.53076e-06
5.8429e-08
4.53789e-06
5.93324e-08
4.54506e-06
6.01335e-08
4.55228e-06
6.08427e-08
4.55953e-06
6.14673e-08
4.56683e-06
6.20129e-08
4.57417e-06
6.24835e-08
4.58154e-06
6.28819e-08
4.58895e-06
6.32135e-08
4.59639e-06
6.34755e-08
4.60386e-06
6.36641e-08
4.61134e-06
6.37779e-08
4.61882e-06
6.38137e-08
4.62632e-06
6.3776e-08
4.63381e-06
6.36699e-08
4.6413e-06
6.34878e-08
4.64877e-06
6.32148e-08
4.65619e-06
6.28467e-08
4.66356e-06
6.23861e-08
4.67087e-06
6.18311e-08
4.67809e-06
6.11866e-08
4.68523e-06
6.0451e-08
4.69225e-06
5.96321e-08
4.69916e-06
5.87281e-08
4.70594e-06
5.77478e-08
4.71257e-06
5.66862e-08
4.71905e-06
5.55566e-08
4.72536e-06
5.4364e-08
4.7315e-06
5.31237e-08
4.73745e-06
5.18262e-08
4.74323e-06
5.04865e-08
4.7488e-06
4.90996e-08
4.75417e-06
4.76817e-08
4.75932e-06
4.62295e-08
4.76427e-06
4.47638e-08
4.76906e-06
4.33022e-08
4.77367e-06
4.18406e-08
4.77811e-06
4.03725e-08
4.78236e-06
3.88978e-08
4.78644e-06
3.74172e-08
4.79036e-06
3.59271e-08
4.7941e-06
3.44355e-08
4.79769e-06
3.29213e-08
4.80113e-06
3.13849e-08
4.80442e-06
2.98198e-08
4.80757e-06
2.82127e-08
4.81059e-06
2.65495e-08
4.81348e-06
2.48122e-08
4.81625e-06
2.29817e-08
4.8189e-06
2.1034e-08
4.82143e-06
1.89409e-08
4.82385e-06
1.66671e-08
4.82614e-06
1.41744e-08
4.82831e-06
1.14197e-08
4.83037e-06
8.35128e-09
4.8323e-06
4.91142e-09
4.83412e-06
1.03082e-09
4.83584e-06
-3.3574e-09
4.83742e-06
-8.32379e-09
4.83887e-06
-1.39809e-08
4.84018e-06
-2.04536e-08
4.84137e-06
-2.78849e-08
4.84247e-06
-3.64412e-08
4.84351e-06
-4.63136e-08
4.84452e-06
-5.77246e-08
4.84555e-06
-7.09325e-08
4.84668e-06
-8.62609e-08
4.84807e-06
-1.04088e-07
4.84993e-06
-1.24862e-07
4.85263e-06
-1.49105e-07
4.85643e-06
-1.77441e-07
4.86164e-06
-2.10663e-07
4.86899e-06
-2.4964e-07
4.87939e-06
-2.95354e-07
4.89408e-06
-3.49016e-07
4.91459e-06
-4.12171e-07
4.94294e-06
-4.86633e-07
4.98187e-06
-5.74344e-07
5.03516e-06
-6.77252e-07
5.1078e-06
-7.97368e-07
5.20599e-06
-9.36467e-07
5.33732e-06
-1.09564e-06
5.51072e-06
-1.27433e-06
5.73618e-06
-1.46608e-06
6.03026e-06
-1.67361e-06
6.3781e-06
-1.83568e-06
-2.01538e-06
6.82485e-06
4.43364e-06
3.50625e-09
4.43626e-06
1.05722e-08
4.44021e-06
1.71086e-08
4.44503e-06
2.28227e-08
4.45039e-06
2.76885e-08
4.45614e-06
3.18412e-08
4.46219e-06
3.54113e-08
4.46846e-06
3.84626e-08
4.47487e-06
4.10583e-08
4.48139e-06
4.32713e-08
4.48799e-06
4.51655e-08
4.49465e-06
4.67968e-08
4.50139e-06
4.82138e-08
4.50818e-06
4.94551e-08
4.51504e-06
5.05472e-08
4.52196e-06
5.15089e-08
4.52894e-06
5.23563e-08
4.53597e-06
5.31035e-08
4.54305e-06
5.37613e-08
4.55018e-06
5.43376e-08
4.55735e-06
5.48385e-08
4.56457e-06
5.52686e-08
4.57182e-06
5.5631e-08
4.57911e-06
5.59284e-08
4.58642e-06
5.61614e-08
4.59376e-06
5.63285e-08
4.6011e-06
5.64284e-08
4.60846e-06
5.64605e-08
4.61581e-06
5.64261e-08
4.62315e-06
5.63257e-08
4.63048e-06
5.61549e-08
4.63779e-06
5.59069e-08
4.64506e-06
5.55779e-08
4.65228e-06
5.51686e-08
4.65943e-06
5.46791e-08
4.66651e-06
5.4111e-08
4.67349e-06
5.34654e-08
4.68038e-06
5.27455e-08
4.68715e-06
5.19529e-08
4.69381e-06
5.10916e-08
4.70033e-06
5.01634e-08
4.70671e-06
4.9175e-08
4.71295e-06
4.81326e-08
4.71903e-06
4.70432e-08
4.72494e-06
4.59079e-08
4.7307e-06
4.47322e-08
4.73628e-06
4.35201e-08
4.74168e-06
4.22784e-08
4.7469e-06
4.1011e-08
4.75194e-06
3.97272e-08
4.7568e-06
3.84389e-08
4.76149e-06
3.71474e-08
4.76602e-06
3.5849e-08
4.77037e-06
3.45425e-08
4.77456e-06
3.32272e-08
4.77859e-06
3.1902e-08
4.78246e-06
3.05648e-08
4.78617e-06
2.92082e-08
4.78973e-06
2.78269e-08
4.79314e-06
2.64127e-08
4.79639e-06
2.49544e-08
4.79951e-06
2.34382e-08
4.80247e-06
2.18477e-08
4.80529e-06
2.01643e-08
4.80796e-06
1.83648e-08
4.81047e-06
1.64239e-08
4.81283e-06
1.43089e-08
4.81502e-06
1.19833e-08
4.81704e-06
9.40548e-09
4.81886e-06
6.52668e-09
4.82048e-06
3.29149e-09
4.82188e-06
-3.63919e-10
4.82303e-06
-4.51357e-09
4.82395e-06
-9.23671e-09
4.8246e-06
-1.46347e-08
4.82498e-06
-2.08303e-08
4.82506e-06
-2.79667e-08
4.82483e-06
-3.62113e-08
4.82428e-06
-4.57606e-08
4.8234e-06
-5.68476e-08
4.82222e-06
-6.97497e-08
4.82076e-06
-8.48001e-08
4.81907e-06
-1.024e-07
4.81724e-06
-1.23033e-07
4.81541e-06
-1.47277e-07
4.8138e-06
-1.75833e-07
4.81271e-06
-2.09574e-07
4.8126e-06
-2.49528e-07
4.81416e-06
-2.96917e-07
4.81841e-06
-3.53261e-07
4.8267e-06
-4.20465e-07