# Force and moment coefficients
# dragDir     : (1.000000e+00 0.000000e+00 0.000000e+00)
# sideDir     : (0.000000e+00 0.000000e+00 -1.000000e+00)
# liftDir     : (0.000000e+00 1.000000e+00 0.000000e+00)
# rollAxis    : (1.000000e+00 0.000000e+00 0.000000e+00)
# pitchAxis   : (0.000000e+00 0.000000e+00 -1.000000e+00)
# yawAxis     : (0.000000e+00 1.000000e+00 0.000000e+00)
# magUInf     : 1.477700e+00
# lRef        : 1.000000e+00
# Aref        : 1.000000e+00
# CofR        : (0.000000e+00 0.000000e+00 0.000000e+00)
#
# Time        	Cd            	Cd(f)         	Cd(r)         	Cl            	Cl(f)         	Cl(r)         	CmPitch       	CmRoll        	CmYaw         	Cs            	Cs(f)         	Cs(r)         
0.1           	1.586623e-02	7.933115e-03	7.933115e-03	-1.564156e-06	7.937262e-03	-7.938826e-03	7.938044e-03	0.000000e+00	0.000000e+00	0.000000e+00	0.000000e+00	0.000000e+00
0.2           	1.266473e-02	6.332363e-03	6.332363e-03	-8.627309e-07	6.334647e-03	-6.335510e-03	6.335079e-03	0.000000e+00	0.000000e+00	0.000000e+00	0.000000e+00	0.000000e+00
