# Force and moment coefficients
# dragDir     : (1.000000e+00 0.000000e+00 0.000000e+00)
# sideDir     : (0.000000e+00 0.000000e+00 -1.000000e+00)
# liftDir     : (0.000000e+00 1.000000e+00 0.000000e+00)
# rollAxis    : (1.000000e+00 0.000000e+00 0.000000e+00)
# pitchAxis   : (0.000000e+00 0.000000e+00 -1.000000e+00)
# yawAxis     : (0.000000e+00 1.000000e+00 0.000000e+00)
# magUInf     : 1.477700e+00
# lRef        : 1.000000e+00
# Aref        : 1.000000e+00
# CofR        : (0.000000e+00 0.000000e+00 0.000000e+00)
#
# Time        	Cd            	Cd(f)         	Cd(r)         	Cl            	Cl(f)         	Cl(r)         	CmPitch       	CmRoll        	CmYaw         	Cs            	Cs(f)         	Cs(r)         
0.1           	1.586672e-02	7.933359e-03	7.933359e-03	-1.984091e-06	7.938576e-03	-7.940560e-03	7.939568e-03	0.000000e+00	0.000000e+00	0.000000e+00	0.000000e+00	0.000000e+00
0.2           	1.266481e-02	6.332405e-03	6.332405e-03	-1.070694e-06	6.335240e-03	-6.336310e-03	6.335775e-03	0.000000e+00	0.000000e+00	0.000000e+00	0.000000e+00	0.000000e+00
