/*--------------------------------*- C++ -*----------------------------------*\
| =========                 |                                                 |
| \\      /  F ield         | OpenFOAM: The Open Source CFD Toolbox           |
|  \\    /   O peration     | Version:  2206                                  |
|   \\  /    A nd           | Website:  www.openfoam.com                      |
|    \\/     M anipulation  |                                                 |
\*---------------------------------------------------------------------------*/
FoamFile
{
    version     2.0;
    format      ascii;
    arch        "LSB;label=32;scalar=64";
    class       volVectorField;
    location    "19.8";
    object      ddtCorrDdt0(U);
}
// * * * * * * * * * * * * * * * * * * * * * * * * * * * * * * * * * * * * * //

dimensions      [0 1 -2 0 0 0 0];

internalField   nonuniform List<vector> 
4830
(
(-15.9292 99.6219 0)
(-17.7253 89.2057 0)
(-18.5153 78.5637 0)
(-18.402 68.1188 0)
(-17.5257 58.1185 0)
(-16.0796 48.6565 0)
(-14.2419 39.6782 0)
(-12.1603 31.1417 0)
(-9.90124 23.0446 0)
(-7.38004 15.4566 0)
(-5.52529 8.53026 0)
(-4.26775 -0.739674 0)
(-2.8434 -15.2779 0)
(-2.27403 -27.591 0)
(-2.3038 -40.7438 0)
(-2.80059 -54.5238 0)
(-3.70478 -68.4468 0)
(-4.97487 -81.9609 0)
(-6.56706 -94.4822 0)
(-8.42652 -105.429 0)
(-10.4729 -114.233 0)
(-12.5844 -120.304 0)
(-14.4971 -122.782 0)
(-15.9968 -121.53 0)
(-17.0612 -117.647 0)
(-17.6218 -111.346 0)
(-17.6167 -103.003 0)
(-17.0409 -93.0977 0)
(-15.931 -82.1665 0)
(-14.3521 -70.7456 0)
(-12.3772 -59.3239 0)
(-10.0904 -48.3341 0)
(-7.58706 -38.0963 0)
(-4.94446 -28.824 0)
(-2.26095 -20.688 0)
(0.248041 -13.7259 0)
(2.73741 -7.9922 0)
(5.96808 -2.04993 0)
(8.83302 3.24927 0)
(11.4042 7.81628 0)
(13.3295 12.295 0)
(14.5374 17.0427 0)
(15.0035 22.383 0)
(14.7195 28.5198 0)
(13.7019 35.4851 0)
(12.0137 43.1591 0)
(9.78616 51.3019 0)
(7.2272 59.5661 0)
(4.05378 67.476 0)
(1.79613 74.6151 0)
(-1.79159 80.9987 0)
(-5.35883 86.1685 0)
(-8.41865 89.5833 0)
(-11.2918 91.0545 0)
(-13.5991 90.3488 0)
(-15.4542 88.1962 0)
(-16.8868 84.7365 0)
(-17.8733 80.1603 0)
(-18.4302 74.6693 0)
(-18.6087 68.481 0)
(-18.468 61.7787 0)
(-18.086 54.7435 0)
(-17.5178 47.5206 0)
(-16.795 40.2359 0)
(-15.9416 33.0082 0)
(-14.9896 25.959 0)
(-13.9309 19.1792 0)
(-12.8966 12.6222 0)
(-12.743 5.39927 0)
(-12.0386 -3.72889 0)
(-11.3564 -13.6522 0)
(-10.6162 -23.8534 0)
(-9.78459 -34.2159 0)
(-8.92319 -44.6368 0)
(-7.99554 -54.9397 0)
(-6.95415 -64.8918 0)
(-5.77224 -74.2098 0)
(-4.43934 -82.5792 0)
(-2.96198 -89.6727 0)
(-1.35871 -95.1259 0)
(0.361377 -98.4096 0)
(2.2051 -98.5543 0)
(4.15177 -96.4894 0)
(6.15282 -92.5553 0)
(8.19056 -86.9947 0)
(10.2381 -80.1169 0)
(12.2615 -72.2708 0)
(14.2328 -63.8159 0)
(16.1182 -55.0898 0)
(17.8896 -46.3816 0)
(19.5254 -37.9047 0)
(21.0001 -29.7734 0)
(22.3123 -21.9887 0)
(23.5827 -14.4089 0)
(24.7875 -6.8668 0)
(25.5075 0.395103 0)
(26.1255 7.15972 0)
(26.4527 13.5377 0)
(26.4904 19.6034 0)
(26.2779 25.4089 0)
(25.8226 30.9778 0)
(25.1337 36.3017 0)
(24.2212 41.3508 0)
(23.0906 46.0822 0)
(21.7448 50.4446 0)
(20.1878 54.3796 0)
(18.4286 57.8218 0)
(16.4837 60.6994 0)
(14.3789 62.9343 0)
(12.1486 64.4163 0)
(9.81684 64.9268 0)
(7.4712 64.6709 0)
(5.14582 63.6581 0)
(2.88828 61.862 0)
(0.7466 59.2934 0)
(-1.24919 55.997 0)
(-3.08404 52.0347 0)
(-4.75204 47.4766 0)
(-6.24549 42.4023 0)
(-7.56282 36.9021 0)
(-8.71086 31.0784 0)
(-9.69996 25.0403 0)
(-10.4938 18.8915 0)
(-11.1327 12.6735 0)
(-12.1433 5.97985 0)
(-12.7566 -1.57608 0)
(-13.4199 -9.06116 0)
(-14.0729 -16.3678 0)
(-14.6194 -23.425 0)
(-15.1279 -30.1547 0)
(-15.6129 -36.4913 0)
(-16.0715 -42.3597 0)
(-16.5025 -47.6777 0)
(-16.8978 -52.3598 0)
(-17.2407 -56.3166 0)
(-17.5078 -59.4544 0)
(-17.6683 -61.6634 0)
(-17.6406 -62.7555 0)
(-15.8086 102.139 0)
(-17.3978 90.5882 0)
(-17.9438 78.8745 0)
(-17.5226 67.4657 0)
(-16.2703 56.678 0)
(-14.3959 46.6293 0)
(-12.1691 37.2697 0)
(-9.79718 28.4444 0)
(-7.35772 20.1079 0)
(-4.80017 12.5673 0)
(-2.45719 6.69443 0)
(-0.316027 -2.87189 0)
(1.54852 -16.2352 0)
(1.96963 -27.8174 0)
(1.86203 -40.4359 0)
(1.31428 -53.7002 0)
(0.276807 -67.1414 0)
(-1.19666 -80.2265 0)
(-3.05581 -92.3801 0)
(-5.24461 -103.036 0)
(-7.67327 -111.663 0)
(-10.2147 -117.741 0)
(-12.6303 -120.57 0)
(-14.6735 -119.73 0)
(-16.3136 -116.377 0)
(-17.4566 -110.685 0)
(-18.0218 -102.994 0)
(-17.9865 -93.7438 0)
(-17.3611 -83.4147 0)
(-16.1893 -72.5224 0)
(-14.5421 -61.5632 0)
(-12.4894 -50.9267 0)
(-10.1283 -40.9284 0)
(-7.54883 -31.7992 0)
(-4.81436 -23.7031 0)
(-2.08504 -16.6874 0)
(0.257577 -10.6272 0)
(3.06404 -5.63226 0)
(5.82902 0.0702088 0)
(8.52349 5.24643 0)
(10.5061 10.5716 0)
(11.5921 16.1833 0)
(11.9004 22.3587 0)
(11.5077 29.3147 0)
(10.4933 37.036 0)
(8.99266 45.3352 0)
(7.12432 53.9185 0)
(4.81242 62.3533 0)
(2.25111 70.4074 0)
(-0.679057 78.0004 0)
(-3.90988 84.6632 0)
(-6.89691 89.7003 0)
(-9.74655 92.7972 0)
(-12.2005 93.6934 0)
(-14.1207 92.5017 0)
(-15.6182 89.8444 0)
(-16.6598 85.8712 0)
(-17.2327 80.797 0)
(-17.3685 74.8515 0)
(-17.1254 68.2688 0)
(-16.5945 61.2814 0)
(-15.8491 54.0315 0)
(-14.9681 46.6449 0)
(-13.9969 39.2214 0)
(-12.9457 31.8613 0)
(-11.8109 24.7205 0)
(-10.5314 17.974 0)
(-9.14697 11.6858 0)
(-8.93343 4.88198 0)
(-8.20148 -4.41384 0)
(-7.40705 -14.5424 0)
(-6.56272 -24.7772 0)
(-5.77816 -35.1208 0)
(-5.05328 -45.5579 0)
(-4.31838 -55.9285 0)
(-3.52451 -65.9921 0)
(-2.64295 -75.4462 0)
(-1.66143 -83.9564 0)
(-0.582758 -91.1786 0)
(0.579031 -96.7375 0)
(1.82183 -100.119 0)
(3.16481 -100.401 0)
(4.61253 -98.4165 0)
(6.13548 -94.5539 0)
(7.73287 -89.0449 0)
(9.39305 -82.1919 0)
(11.0914 -74.3398 0)
(12.7984 -65.8445 0)
(14.4821 -57.0431 0)
(16.111 -48.2274 0)
(17.6533 -39.6158 0)
(19.0694 -31.3352 0)
(20.3325 -23.4135 0)
(21.5635 -15.7314 0)
(22.8713 -8.02802 0)
(23.6433 -0.455244 0)
(24.3421 6.60871 0)
(24.7784 13.2825 0)
(24.9239 19.6383 0)
(24.8263 25.7216 0)
(24.4934 31.556 0)
(23.9283 37.1356 0)
(23.1344 42.4348 0)
(22.1104 47.4144 0)
(20.8542 52.0233 0)
(19.3677 56.1986 0)
(17.6612 59.8667 0)
(15.7546 62.946 0)
(13.6813 65.3443 0)
(11.486 66.9431 0)
(9.19935 67.5225 0)
(6.90004 67.2556 0)
(4.6227 66.1928 0)
(2.42327 64.2813 0)
(0.381543 61.546 0)
(-1.48525 58.0712 0)
(-3.1873 53.9191 0)
(-4.70819 49.1622 0)
(-6.04287 43.8888 0)
(-7.19299 38.1936 0)
(-8.17144 32.1859 0)
(-9.00059 25.9829 0)
(-9.65894 19.6943 0)
(-10.1247 13.3961 0)
(-10.9122 6.78605 0)
(-11.5356 -0.792319 0)
(-12.0522 -8.37446 0)
(-12.6635 -15.7435 0)
(-13.1866 -22.8409 0)
(-13.6882 -29.5949 0)
(-14.1929 -35.9461 0)
(-14.6965 -41.8272 0)
(-15.1978 -47.1644 0)
(-15.6893 -51.8804 0)
(-16.1558 -55.8937 0)
(-16.5733 -59.1171 0)
(-16.9109 -61.4619 0)
(-17.1176 -62.8043 0)
(-15.4139 104.315 0)
(-16.7389 91.5455 0)
(-17.0167 78.6634 0)
(-16.3202 66.2202 0)
(-14.7645 54.6202 0)
(-12.5325 44.0844 0)
(-9.89926 34.5676 0)
(-7.20628 25.8217 0)
(-4.73174 17.6739 0)
(-2.8206 9.99783 0)
(-0.0316502 4.11475 0)
(3.25294 -6.75187 0)
(5.10966 -16.9021 0)
(5.67927 -27.9327 0)
(5.69444 -40.0364 0)
(5.11962 -52.7653 0)
(3.95504 -65.6737 0)
(2.30026 -78.253 0)
(0.203076 -89.9718 0)
(-2.27374 -100.287 0)
(-5.02228 -108.692 0)
(-7.90392 -114.726 0)
(-10.6977 -117.819 0)
(-13.1601 -117.353 0)
(-15.2673 -114.5 0)
(-16.9139 -109.424 0)
(-17.9786 -102.397 0)
(-18.4195 -93.8258 0)
(-18.2436 -84.1699 0)
(-17.4676 -73.8961 0)
(-16.146 -63.4695 0)
(-14.3551 -53.2706 0)
(-12.186 -43.6097 0)
(-9.73391 -34.7448 0)
(-7.07609 -26.7991 0)
(-4.3482 -19.7246 0)
(-1.81543 -13.478 0)
(0.314783 -8.0203 0)
(2.8358 -3.29373 0)
(5.55779 2.74675 0)
(7.61909 8.89036 0)
(8.41417 15.4218 0)
(8.58611 22.4472 0)
(8.34339 30.1077 0)
(7.64999 38.3459 0)
(6.44287 46.9739 0)
(4.57143 55.9645 0)
(2.61337 65.018 0)
(-0.144247 73.6023 0)
(-2.95434 81.402 0)
(-5.7702 87.9526 0)
(-8.47987 92.7779 0)
(-10.9675 95.5791 0)
(-12.9825 95.8738 0)
(-14.5069 94.2199 0)
(-15.6031 91.0463 0)
(-16.2271 86.5416 0)
(-16.3754 80.9556 0)
(-16.0909 74.557 0)
(-15.4401 67.6072 0)
(-14.5057 60.339 0)
(-13.3887 52.9248 0)
(-12.1622 45.4474 0)
(-10.9128 37.9732 0)
(-9.69361 30.5485 0)
(-8.50055 23.3037 0)
(-7.19243 16.5194 0)
(-5.50814 10.4321 0)
(-5.01738 4.26099 0)
(-4.26388 -5.25619 0)
(-3.31226 -15.6003 0)
(-2.41841 -25.6829 0)
(-1.74159 -35.9008 0)
(-1.19173 -46.279 0)
(-0.666329 -56.6599 0)
(-0.12695 -66.7788 0)
(0.450202 -76.31 0)
(1.07607 -84.9043 0)
(1.75028 -92.2056 0)
(2.46479 -97.8317 0)
(3.22882 -101.284 0)
(4.0756 -101.689 0)
(5.03484 -99.7971 0)
(6.09259 -96.0385 0)
(7.25937 -90.6311 0)
(8.53355 -83.8642 0)
(9.89878 -76.0721 0)
(11.3316 -67.6049 0)
(12.802 -58.7955 0)
(14.2715 -49.9293 0)
(15.6979 -41.2249 0)
(17.0371 -32.8286 0)
(18.2443 -24.798 0)
(19.4002 -17.0453 0)
(20.7252 -9.24978 0)
(21.6201 -1.40342 0)
(22.3607 5.95323 0)
(22.9089 12.9097 0)
(23.1688 19.5415 0)
(23.1911 25.8902 0)
(22.9835 31.9837 0)
(22.5388 37.8224 0)
(21.8527 43.3855 0)
(20.9187 48.6354 0)
(19.7337 53.5166 0)
(18.3029 57.9565 0)
(16.6415 61.8697 0)
(14.7761 65.1591 0)
(12.7462 67.7186 0)
(10.6017 69.4266 0)
(8.38475 70.0583 0)
(6.18022 69.7714 0)
(3.98197 68.6806 0)
(1.8294 66.6168 0)
(-0.122262 63.6254 0)
(-1.82819 59.9571 0)
(-3.36023 55.6386 0)
(-4.76748 50.6701 0)
(-5.93438 45.1747 0)
(-6.91305 39.276 0)
(-7.71505 33.0922 0)
(-8.36553 26.7327 0)
(-8.86142 20.3128 0)
(-9.15658 13.9399 0)
(-9.70648 7.42652 0)
(-10.3176 -0.0894379 0)
(-10.6704 -7.74365 0)
(-11.2188 -15.1535 0)
(-11.7014 -22.269 0)
(-12.1824 -29.026 0)
(-12.6957 -35.3702 0)
(-13.2352 -41.2407 0)
(-13.7971 -46.5707 0)
(-14.3713 -51.2907 0)
(-14.9419 -55.3292 0)
(-15.4874 -58.6126 0)
(-15.9778 -61.0609 0)
(-16.3716 -62.569 0)
(-14.7279 106.303 0)
(-15.7816 92.3699 0)
(-15.8224 78.3672 0)
(-14.925 64.8821 0)
(-13.1939 52.3671 0)
(-10.7639 41.1422 0)
(-7.81933 31.332 0)
(-4.68627 22.7092 0)
(-1.99163 14.8796 0)
(0.913417 7.89356 0)
(3.73603 -0.209333 0)
(6.53691 -9.08322 0)
(8.22933 -18.5802 0)
(9.02074 -28.7333 0)
(9.08193 -39.7355 0)
(8.4542 -51.6306 0)
(7.22401 -63.9513 0)
(5.48658 -76.0567 0)
(3.24883 -87.2805 0)
(0.496539 -97.179 0)
(-2.52966 -105.369 0)
(-5.68467 -111.41 0)
(-8.76462 -114.707 0)
(-11.576 -114.556 0)
(-14.0632 -112.153 0)
(-16.0935 -107.656 0)
(-17.5815 -101.302 0)
(-18.4488 -93.4373 0)
(-18.674 -84.4835 0)
(-18.2644 -74.8782 0)
(-17.2625 -65.0522 0)
(-15.7393 -55.3714 0)
(-13.7771 -46.1271 0)
(-11.4769 -37.5492 0)
(-8.97702 -29.7233 0)
(-6.43749 -22.5982 0)
(-4.00296 -16.1499 0)
(-1.8196 -10.3903 0)
(-0.0847529 -5.54657 0)
(2.32837 -1.04143 0)
(4.31371 8.04144 0)
(5.24902 15.038 0)
(5.66778 22.4531 0)
(5.57783 30.4141 0)
(4.88872 39.19 0)
(3.68578 48.6377 0)
(1.90136 58.2484 0)
(-0.182263 67.6755 0)
(-2.57068 76.5356 0)
(-5.0709 84.3916 0)
(-7.56877 90.8391 0)
(-9.94003 95.4779 0)
(-12.0274 97.9224 0)
(-13.5823 97.5805 0)
(-14.6932 95.4679 0)
(-15.3543 91.7727 0)
(-15.5357 86.7351 0)
(-15.2519 80.6461 0)
(-14.555 73.8093 0)
(-13.5181 66.5092 0)
(-12.2239 58.9851 0)
(-10.7495 51.399 0)
(-9.19319 43.8713 0)
(-7.63863 36.4482 0)
(-6.16474 29.119 0)
(-4.8518 21.8696 0)
(-3.7613 14.8307 0)
(-2.47426 8.53771 0)
(-1.18288 3.84694 0)
(-0.147556 -5.97377 0)
(1.05866 -16.8099 0)
(1.73146 -26.4706 0)
(2.19723 -36.4887 0)
(2.57121 -46.7754 0)
(2.88594 -57.1294 0)
(3.17179 -67.254 0)
(3.44621 -76.8063 0)
(3.71886 -85.4265 0)
(3.99364 -92.7504 0)
(4.26973 -98.3976 0)
(4.56766 -101.896 0)
(4.93392 -102.432 0)
(5.42033 -100.657 0)
(6.02782 -97.0359 0)
(6.77533 -91.7716 0)
(7.67023 -85.1407 0)
(8.7045 -77.4676 0)
(9.85913 -69.0912 0)
(11.1016 -60.33 0)
(12.3898 -51.4625 0)
(13.682 -42.7128 0)
(14.9341 -34.2386 0)
(16.075 -26.115 0)
(17.1227 -18.3056 0)
(18.4048 -10.5005 0)
(19.4481 -2.45252 0)
(20.2103 5.19136 0)
(20.8674 12.4181 0)
(21.2324 19.3155 0)
(21.3537 25.9281 0)
(21.2421 32.2893 0)
(20.8849 38.4038 0)
(20.2755 44.2509 0)
(19.41 49.7886 0)
(18.2911 54.9524 0)
(16.9301 59.659 0)
(15.346 63.8127 0)
(13.5663 67.307 0)
(11.6203 70.0258 0)
(9.55191 71.8336 0)
(7.43125 72.5053 0)
(5.34201 72.2165 0)
(2.97744 71.0646 0)
(1.50462 68.852 0)
(-0.445874 65.6772 0)
(-2.23991 61.7664 0)
(-3.63112 57.2391 0)
(-4.90845 52.0414 0)
(-5.93922 46.3032 0)
(-6.73776 40.1736 0)
(-7.34643 33.7751 0)
(-7.79853 27.2371 0)
(-8.10918 20.6809 0)
(-8.22266 14.2321 0)
(-8.52269 7.80546 0)
(-9.08299 0.40012 0)
(-9.26752 -7.28652 0)
(-9.73817 -14.6732 0)
(-10.1581 -21.7444 0)
(-10.599 -28.4553 0)
(-11.1077 -34.7537 0)
(-11.6718 -40.5864 0)
(-12.2846 -45.8922 0)
(-12.9336 -50.6023 0)
(-13.5992 -54.6476 0)
(-14.2598 -57.9615 0)
(-14.8875 -60.481 0)
(-15.4453 -62.1284 0)
(-13.5151 107.855 0)
(-14.222 92.7994 0)
(-13.9989 77.7516 0)
(-12.927 63.3338 0)
(-11.1109 50.0048 0)
(-8.65634 38.1084 0)
(-5.69269 27.7868 0)
(-2.57999 18.9782 0)
(0.454612 11.5453 0)
(4.44949 4.19975 0)
(7.68893 -3.39686 0)
(10.3205 -11.1297 0)
(11.8114 -19.5999 0)
(12.3666 -29.0424 0)
(12.2032 -39.5232 0)
(11.3995 -50.7849 0)
(9.99788 -62.3487 0)
(8.07944 -73.7245 0)
(5.73701 -84.4313 0)
(3.09521 -93.8696 0)
(-0.0322084 -101.626 0)
(-3.5952 -107.715 0)
(-6.84728 -111.314 0)
(-9.88891 -111.448 0)
(-12.6949 -109.415 0)
(-15.061 -105.466 0)
(-16.887 -99.76 0)
(-18.1039 -92.5994 0)
(-18.6793 -84.3714 0)
(-18.6088 -75.4744 0)
(-17.9181 -66.2907 0)
(-16.6724 -57.1565 0)
(-14.9761 -48.3577 0)
(-12.9588 -40.0869 0)
(-10.7494 -32.3883 0)
(-8.47588 -25.2532 0)
(-6.22851 -18.655 0)
(-4.06051 -12.6263 0)
(-2.15226 -7.35737 0)
(-0.783547 -3.26083 0)
(0.916727 6.19305 0)
(2.40355 14.0011 0)
(2.77599 21.9799 0)
(2.65802 30.8953 0)
(1.89833 40.4103 0)
(0.675843 50.3258 0)
(-0.933272 60.3257 0)
(-2.83358 70.0495 0)
(-4.9313 79.087 0)
(-7.11378 87.0013 0)
(-9.2665 93.3753 0)
(-11.2665 97.7805 0)
(-12.8912 99.6778 0)
(-13.9727 98.8471 0)
(-14.6316 96.2237 0)
(-14.8279 91.9935 0)
(-14.5479 86.4306 0)
(-13.8242 79.8612 0)
(-12.7144 72.6181 0)
(-11.2928 64.9989 0)
(-9.65123 57.2475 0)
(-7.88755 49.5301 0)
(-6.09605 41.9471 0)
(-4.35443 34.5578 0)
(-2.70953 27.4185 0)
(-1.19747 20.5815 0)
(-0.0375125 13.9194 0)
(0.794317 7.39733 0)
(2.36424 2.33003 0)
(4.28642 -8.27634 0)
(5.30077 -17.6258 0)
(5.65474 -26.9909 0)
(5.9542 -36.8589 0)
(6.17918 -47.0559 0)
(6.29062 -57.344 0)
(6.3258 -67.4194 0)
(6.30038 -76.9386 0)
(6.2254 -85.5386 0)
(6.11108 -92.8491 0)
(5.96641 -98.4886 0)
(5.82326 -102.008 0)
(5.73588 -102.651 0)
(5.77244 -101.002 0)
(5.94465 -97.5412 0)
(6.28086 -92.4572 0)
(6.80066 -86.0119 0)
(7.50368 -78.5132 0)
(8.37248 -70.2816 0)
(9.376 -61.6234 0)
(10.4747 -52.8116 0)
(11.624 -44.0674 0)
(12.7723 -35.5475 0)
(13.8395 -27.3459 0)
(14.7756 -19.489 0)
(15.9431 -11.7472 0)
(17.1431 -3.59992 0)
(17.8896 4.33597 0)
(18.6286 11.8287 0)
(19.0685 18.9926 0)
(19.2563 25.8738 0)
(19.2192 32.5069 0)
(18.9478 38.8995 0)
(18.441 45.0294 0)
(17.7021 50.8498 0)
(16.7364 56.2874 0)
(15.551 61.2492 0)
(14.1476 65.6303 0)
(12.5316 69.3185 0)
(10.7174 72.1922 0)
(8.7304 74.1172 0)
(6.65212 74.8626 0)
(4.33425 74.479 0)
(2.33532 73.0664 0)
(0.822743 70.7646 0)
(-0.999204 67.6303 0)
(-3.07844 63.5703 0)
(-4.23911 58.7042 0)
(-5.30478 53.2167 0)
(-6.14429 47.2297 0)
(-6.73844 40.8777 0)
(-7.1428 34.2951 0)
(-7.39597 27.6093 0)
(-7.52264 20.9455 0)
(-7.4593 14.4439 0)
(-7.49401 8.1056 0)
(-7.95245 0.856553 0)
(-7.89793 -6.87753 0)
(-8.20305 -14.3081 0)
(-8.51253 -21.3555 0)
(-8.89417 -27.9897 0)
(-9.39757 -34.1927 0)
(-9.9944 -39.923 0)
(-10.6552 -45.1449 0)
(-11.3674 -49.809 0)
(-12.1185 -53.8385 0)
(-12.8854 -57.1693 0)
(-13.6394 -59.7419 0)
(-14.3455 -61.489 0)
(-7.02204 -0.399416 0)
(-5.98125 -0.220232 0)
(-5.02526 -0.0311248 0)
(-4.14258 0.15643 0)
(-3.34292 0.324064 0)
(-2.69864 0.422152 0)
(-2.27389 0.400455 0)
(-1.92499 0.365496 0)
(-1.54913 0.278431 0)
(-1.0026 0.202799 0)
(-0.446609 0.117774 0)
(-0.0259946 -0.0416691 0)
(0.305597 -0.175317 0)
(0.688716 -0.280038 0)
(1.0245 -0.354944 0)
(1.21617 -0.385509 0)
(1.31559 -0.376646 0)
(1.36543 -0.335717 0)
(1.43968 -0.276366 0)
(1.60046 -0.221363 0)
(1.8722 -0.190964 0)
(2.29321 -0.19725 0)
(2.91525 -0.256549 0)
(3.76386 -0.400163 0)
(4.84538 -0.659282 0)
(6.2057 -1.01933 0)
(7.95331 -1.44898 0)
(10.169 -1.88933 0)
(12.8573 -2.17442 0)
(15.962 -2.29103 0)
(19.379 -2.25464 0)
(22.9134 -2.0797 0)
(26.2693 -1.76579 0)
(29.0923 -1.32462 0)
(31.0662 -0.81718 0)
(31.9064 -0.358104 0)
(31.6232 0.0884386 0)
(30.6838 0.864179 0)
(27.9431 1.8344 0)
(23.2522 2.56901 0)
(17.8865 3.02672 0)
(11.6374 3.32151 0)
(4.8912 3.50948 0)
(-1.50261 3.69171 0)
(-6.74916 3.00554 0)
(-11.8317 2.38721 0)
(-16.1384 1.75815 0)
(-19.5182 1.17172 0)
(-21.9386 0.617956 0)
(-23.0464 0.193283 0)
(-23.5609 -0.151712 0)
(-23.3664 -0.430473 0)
(-22.5557 -0.643442 0)
(-21.2966 -0.784835 0)
(-19.7346 -0.856894 0)
(-17.8579 -0.844944 0)
(-16.0015 -0.769252 0)
(-14.1424 -0.658424 0)
(-12.3655 -0.527717 0)
(-10.7132 -0.388269 0)
(-9.20805 -0.251154 0)
(-7.85798 -0.126988 0)
(-6.65931 -0.0271137 0)
(-5.62207 0.0312638 0)
(-4.78267 0.0333575 0)
(-4.13412 0.0215404 0)
(-3.57725 0.025269 0)
(-3.05492 0.0221842 0)
(-2.57217 0.00811967 0)
(-2.14371 0.00892817 0)
(-1.81629 -0.00342855 0)
(-1.57447 -0.0548472 0)
(-1.36968 -0.117605 0)
(-1.16765 -0.206395 0)
(-1.0346 -0.232799 0)
(-1.0078 -0.181414 0)
(-1.06215 -0.128865 0)
(-1.13668 -0.108921 0)
(-1.16342 -0.118496 0)
(-1.12385 -0.120707 0)
(-1.0168 -0.126412 0)
(-0.829959 -0.151492 0)
(-0.565222 -0.220904 0)
(-0.122048 -0.277032 0)
(0.545255 -0.325396 0)
(1.49791 -0.453942 0)
(2.69742 -0.653557 0)
(4.07149 -0.905934 0)
(5.62659 -1.11669 0)
(7.34787 -1.24879 0)
(9.16945 -1.27379 0)
(10.9904 -1.18732 0)
(12.6904 -1.01281 0)
(14.1511 -0.788764 0)
(15.276 -0.551192 0)
(15.9982 -0.314382 0)
(16.2663 -0.0869927 0)
(16.072 0.119912 0)
(15.4216 0.292627 0)
(14.4668 0.453147 0)
(13.1945 0.629256 0)
(11.6217 0.806754 0)
(9.76548 0.961351 0)
(7.67494 1.07885 0)
(5.38856 1.15387 0)
(2.94446 1.17509 0)
(0.434065 1.17554 0)
(-1.81399 1.16694 0)
(-3.87704 1.01807 0)
(-5.86672 0.901025 0)
(-7.65229 0.765143 0)
(-9.1807 0.622933 0)
(-10.4193 0.480516 0)
(-11.3464 0.340682 0)
(-11.9519 0.209005 0)
(-12.2427 0.092695 0)
(-12.2443 -0.00167592 0)
(-11.9956 -0.0757928 0)
(-11.5462 -0.130266 0)
(-10.9077 -0.160338 0)
(-10.182 -0.174779 0)
(-9.37156 -0.184524 0)
(-8.50974 -0.194341 0)
(-7.61855 -0.207175 0)
(-6.71597 -0.224179 0)
(-5.81838 -0.248816 0)
(-4.94903 -0.283192 0)
(-4.12672 -0.312864 0)
(-3.35991 -0.321015 0)
(-2.65229 -0.287574 0)
(-2.01164 -0.235384 0)
(-1.41253 -0.234377 0)
(-0.854828 -0.232795 0)
(-0.34941 -0.260535 0)
(0.0701424 -0.326948 0)
(0.45512 -0.318781 0)
(0.757568 -0.227041 0)
(1.03493 -0.195196 0)
(-9.64995 -1.82382 0)
(-8.921 -1.83733 0)
(-8.17563 -1.91703 0)
(-7.35923 -2.04161 0)
(-6.46875 -2.12395 0)
(-5.51724 -1.93179 0)
(-4.50486 -1.13802 0)
(-3.20402 -1.30659 0)
(-1.78483 -1.51081 0)
(-0.365974 -1.71625 0)
(1.43954 -1.60271 0)
(3.33277 -0.756511 0)
(5.28026 -0.844313 0)
(7.13106 -0.639557 0)
(8.76071 -0.233037 0)
(10.0754 0.134076 0)
(11.0749 0.354118 0)
(11.8293 0.378019 0)
(12.4256 0.175615 0)
(12.9516 -0.172997 0)
(13.4937 -0.592995 0)
(14.0988 -1.09453 0)
(14.7742 -1.6695 0)
(15.5244 -2.18232 0)
(16.4177 -2.53558 0)
(17.5958 -2.9525 0)
(19.2027 -3.4638 0)
(21.2398 -3.99848 0)
(23.562 -4.52469 0)
(25.9979 -5.04901 0)
(28.5087 -5.45008 0)
(31.0515 -5.44887 0)
(33.2788 -4.83374 0)
(34.7959 -3.53922 0)
(35.2191 -1.65714 0)
(34.2695 0.550336 0)
(31.6153 2.7727 0)
(26.808 4.95376 0)
(21.6406 7.0602 0)
(16.1877 8.65652 0)
(10.3683 9.6886 0)
(4.39082 10.3376 0)
(-1.38205 10.6375 0)
(-7.09473 10.5159 0)
(-13.0398 9.4075 0)
(-17.953 7.89541 0)
(-22.0368 6.22171 0)
(-25.2837 4.50673 0)
(-27.6518 2.82195 0)
(-29.1245 1.35241 0)
(-29.764 0.0769112 0)
(-29.6452 -0.976384 0)
(-28.9629 -1.81063 0)
(-27.8936 -2.45468 0)
(-26.5103 -2.93392 0)
(-24.9061 -3.22438 0)
(-23.174 -3.33254 0)
(-21.3744 -3.32153 0)
(-19.5581 -3.23743 0)
(-17.7562 -3.10618 0)
(-15.982 -2.94457 0)
(-14.2389 -2.76453 0)
(-12.5258 -2.5714 0)
(-10.8573 -2.29496 0)
(-9.25307 -1.76439 0)
(-7.64134 -1.3829 0)
(-6.07756 -1.29067 0)
(-4.54677 -1.1656 0)
(-3.07738 -1.00243 0)
(-1.85913 -0.838537 0)
(-0.498382 -0.611119 0)
(0.774101 -0.331837 0)
(1.85211 -0.354437 0)
(2.85474 -0.122147 0)
(3.85133 0.0942278 0)
(4.64926 0.247255 0)
(5.10266 0.314801 0)
(5.35976 0.280565 0)
(5.65169 0.183284 0)
(6.00663 0.0257266 0)
(6.36918 -0.161314 0)
(6.7176 -0.367497 0)
(7.10473 -0.697939 0)
(7.60628 -1.13119 0)
(8.25978 -1.71115 0)
(9.08266 -2.36677 0)
(10.1087 -2.57478 0)
(11.3747 -2.70415 0)
(12.854 -2.80956 0)
(14.4634 -2.84676 0)
(16.0616 -2.7726 0)
(17.4802 -2.57317 0)
(18.5722 -2.24755 0)
(19.278 -1.7885 0)
(19.5771 -1.20159 0)
(19.4434 -0.499494 0)
(18.9045 0.284152 0)
(17.9179 1.07659 0)
(16.5017 1.79587 0)
(14.5614 2.39587 0)
(12.198 2.88529 0)
(9.65831 3.26515 0)
(7.06258 3.54178 0)
(4.49786 3.73947 0)
(2.00656 3.90906 0)
(-0.479888 4.00694 0)
(-2.82596 3.93871 0)
(-5.37337 3.88948 0)
(-7.90274 3.6302 0)
(-10.2088 3.26103 0)
(-12.3213 2.82077 0)
(-14.189 2.3269 0)
(-15.7702 1.79149 0)
(-17.032 1.2279 0)
(-17.9477 0.658464 0)
(-18.5073 0.112573 0)
(-18.7254 -0.382283 0)
(-18.5901 -0.806325 0)
(-18.1984 -1.15814 0)
(-17.5215 -1.43706 0)
(-16.6177 -1.63791 0)
(-15.5137 -1.77376 0)
(-14.2341 -1.85534 0)
(-12.8034 -1.88732 0)
(-11.2493 -1.87077 0)
(-9.60316 -1.80397 0)
(-7.90723 -1.64491 0)
(-6.19311 -1.45557 0)
(-4.50967 -1.2757 0)
(-2.94021 -1.14543 0)
(-1.60021 -1.07031 0)
(-0.458431 -1.01773 0)
(0.771713 -0.871855 0)
(1.84061 -0.721237 0)
(2.81816 -0.598372 0)
(3.77688 -0.510487 0)
(4.50227 -0.437359 0)
(4.95236 -0.441565 0)
(-6.65283 -2.42559 0)
(-5.40528 -2.13722 0)
(-4.26476 -1.93555 0)
(-3.26633 -1.76989 0)
(-2.56409 -1.5106 0)
(-2.10294 -1.38258 0)
(-1.45977 -1.85948 0)
(-0.811413 -2.21929 0)
(-0.166013 -2.48146 0)
(0.467126 -2.9103 0)
(1.08531 -3.41014 0)
(1.86006 -3.86806 0)
(2.98751 -4.20676 0)
(4.31092 -4.22097 0)
(5.94851 -3.89231 0)
(8.00932 -3.39348 0)
(10.44 -2.88852 0)
(13.1444 -2.44929 0)
(15.9845 -2.09705 0)
(18.7804 -1.82946 0)
(21.343 -1.6052 0)
(23.4581 -1.37936 0)
(24.8889 -1.17734 0)
(25.497 -1.20804 0)
(25.5133 -1.77976 0)
(25.32 -3.01058 0)
(25.1286 -4.69422 0)
(25.1827 -6.30927 0)
(25.6156 -7.37681 0)
(26.5095 -7.88174 0)
(27.8239 -7.93021 0)
(29.2085 -7.32995 0)
(30.2417 -5.80148 0)
(30.3095 -3.33676 0)
(29.3182 -0.269632 0)
(27.3942 3.11012 0)
(24.6889 6.61114 0)
(21.4409 9.85461 0)
(17.7455 12.4845 0)
(13.5651 14.5061 0)
(8.91656 15.9836 0)
(3.82231 16.9031 0)
(-1.49479 17.0779 0)
(-7.24696 16.3282 0)
(-12.5426 14.8331 0)
(-16.9738 12.7503 0)
(-20.557 10.2289 0)
(-23.3457 7.55053 0)
(-25.3578 4.91867 0)
(-26.5721 2.46597 0)
(-26.9832 0.295196 0)
(-26.6224 -1.43321 0)
(-25.8242 -2.73832 0)
(-24.698 -3.72431 0)
(-23.2971 -4.40101 0)
(-21.7087 -4.77318 0)
(-20.0078 -4.89059 0)
(-18.2776 -4.82323 0)
(-16.5896 -4.63524 0)
(-15.0037 -4.38001 0)
(-13.5652 -4.09972 0)
(-12.3054 -3.8246 0)
(-11.2481 -3.57717 0)
(-10.3751 -3.37488 0)
(-9.59224 -3.24938 0)
(-8.84292 -3.21033 0)
(-8.1623 -3.212 0)
(-7.53736 -3.18736 0)
(-6.87352 -3.1071 0)
(-6.1032 -3.01654 0)
(-5.20929 -2.86947 0)
(-4.1884 -2.60734 0)
(-3.13748 -2.4037 0)
(-2.00057 -2.52844 0)
(-0.528009 -2.56221 0)
(1.09207 -1.77442 0)
(2.87244 -1.04554 0)
(4.74237 -0.952257 0)
(6.65048 -1.1793 0)
(8.64763 -1.16613 0)
(10.6888 -1.10115 0)
(12.4914 -1.0499 0)
(13.9381 -1.04384 0)
(15.1042 -1.1354 0)
(15.8849 -1.34546 0)
(16.1376 -1.72697 0)
(16.0543 -2.39057 0)
(15.999 -3.26847 0)
(16.0435 -4.09342 0)
(16.2798 -4.69992 0)
(16.7626 -4.84801 0)
(17.4606 -4.40638 0)
(18.2565 -3.48073 0)
(18.9413 -2.2521 0)
(19.2829 -0.953135 0)
(19.1656 0.299577 0)
(18.6622 1.50562 0)
(17.7158 2.69218 0)
(16.3537 3.82061 0)
(14.6653 4.82994 0)
(12.7574 5.63346 0)
(10.6922 6.16921 0)
(8.52204 6.48661 0)
(6.2583 6.66331 0)
(3.90113 6.80104 0)
(1.4409 6.95174 0)
(-1.10998 6.95093 0)
(-3.58266 6.69114 0)
(-5.98739 6.38351 0)
(-8.20938 5.90475 0)
(-10.2084 5.26961 0)
(-11.9694 4.52623 0)
(-13.4825 3.69361 0)
(-14.7312 2.78678 0)
(-15.6938 1.84259 0)
(-16.3634 0.914484 0)
(-16.7617 0.0498656 0)
(-16.9317 -0.719891 0)
(-16.9063 -1.38304 0)
(-16.7785 -1.93211 0)
(-16.5734 -2.38502 0)
(-16.2903 -2.7752 0)
(-15.92 -3.11759 0)
(-15.4499 -3.40741 0)
(-14.8649 -3.64358 0)
(-14.145 -3.83261 0)
(-13.2579 -3.97614 0)
(-12.1681 -4.05287 0)
(-10.8599 -4.00829 0)
(-9.34808 -3.73689 0)
(-7.82637 -2.96683 0)
(-5.96307 -3.09415 0)
(-4.19884 -2.79321 0)
(-2.5802 -2.51727 0)
(-0.919158 -2.5652 0)
(0.901732 -2.35641 0)
(2.54797 -1.62453 0)
(4.06309 -1.04726 0)
(-12.924 -4.57567 0)
(-11.7769 -4.37759 0)
(-10.5119 -4.22947 0)
(-9.08575 -4.04969 0)
(-7.40398 -3.76926 0)
(-5.43203 -3.43421 0)
(-3.35581 -3.15756 0)
(-1.31031 -3.15844 0)
(0.760626 -3.39767 0)
(2.75027 -3.52876 0)
(4.66356 -3.59683 0)
(6.50894 -3.5753 0)
(8.16603 -3.60299 0)
(9.53535 -3.78141 0)
(10.6838 -4.00773 0)
(11.7503 -4.27512 0)
(12.7692 -4.63907 0)
(13.757 -5.0087 0)
(14.7968 -5.33786 0)
(15.9849 -5.55598 0)
(17.4037 -5.57709 0)
(19.1426 -5.33728 0)
(21.2917 -4.82861 0)
(23.8699 -4.16985 0)
(26.5888 -3.62113 0)
(28.9431 -3.42913 0)
(30.4818 -3.65221 0)
(30.5668 -4.21236 0)
(29.3527 -5.17029 0)
(27.8164 -6.5618 0)
(26.1659 -7.7985 0)
(24.5765 -7.92151 0)
(23.0671 -6.3917 0)
(21.6906 -3.35106 0)
(20.3806 0.624676 0)
(18.9742 4.94616 0)
(17.2004 9.27818 0)
(14.8646 13.2628 0)
(11.9181 16.6263 0)
(8.33421 19.245 0)
(4.31847 21.1357 0)
(0.167882 22.3703 0)
(-3.92211 22.9129 0)
(-8.25137 22.1428 0)
(-12.1759 19.9657 0)
(-15.3865 17.0442 0)
(-18.0443 13.7036 0)
(-20.2011 10.2288 0)
(-21.8541 6.74845 0)
(-22.9232 3.29533 0)
(-23.3717 0.153848 0)
(-23.3212 -2.15149 0)
(-22.9852 -3.79649 0)
(-22.3571 -5.18438 0)
(-21.3518 -6.26611 0)
(-20.0536 -6.91985 0)
(-18.5519 -7.19489 0)
(-16.9045 -7.19032 0)
(-15.1655 -6.97252 0)
(-13.3873 -6.59128 0)
(-11.6163 -6.09855 0)
(-9.89301 -5.53981 0)
(-8.25197 -4.95795 0)
(-6.71964 -4.38028 0)
(-5.32296 -3.82745 0)
(-4.10535 -3.35261 0)
(-3.12154 -2.99631 0)
(-2.39645 -2.75024 0)
(-1.90661 -2.60551 0)
(-1.59672 -2.56696 0)
(-1.40123 -2.60393 0)
(-1.23701 -2.69516 0)
(-0.976256 -2.88327 0)
(-0.690522 -3.0838 0)
(-0.546271 -3.21551 0)
(-0.365579 -3.31263 0)
(0.194514 -3.41623 0)
(1.07089 -3.56479 0)
(2.0313 -3.81604 0)
(3.08881 -4.20876 0)
(4.34911 -4.36282 0)
(5.86093 -3.72477 0)
(7.61353 -3.7678 0)
(9.56136 -3.73719 0)
(11.6627 -3.58373 0)
(13.8331 -3.39398 0)
(15.991 -3.24912 0)
(17.9584 -3.23477 0)
(19.2921 -3.3361 0)
(19.4886 -3.43342 0)
(18.9547 -3.52946 0)
(18.214 -3.61456 0)
(17.4367 -3.431 0)
(16.7735 -2.68282 0)
(16.2843 -1.52198 0)
(15.9551 -0.0774342 0)
(15.6024 1.61379 0)
(15.0412 3.48482 0)
(14.172 5.20603 0)
(13.0039 6.60953 0)
(11.543 7.63735 0)
(9.82485 8.31288 0)
(7.91603 8.73297 0)
(5.88895 9.00642 0)
(3.83789 9.24679 0)
(1.83075 9.47916 0)
(-0.293216 9.58323 0)
(-2.33921 9.31659 0)
(-4.15876 8.77581 0)
(-5.72806 7.99795 0)
(-7.02689 7.05876 0)
(-8.06653 6.03877 0)
(-8.85668 4.95522 0)
(-9.38916 3.79417 0)
(-9.66605 2.58751 0)
(-9.72509 1.41876 0)
(-9.62926 0.370401 0)
(-9.41861 -0.502457 0)
(-9.15114 -1.18669 0)
(-8.88496 -1.71137 0)
(-8.67645 -2.12771 0)
(-8.54444 -2.48686 0)
(-8.47427 -2.82594 0)
(-8.44666 -3.16217 0)
(-8.40114 -3.49036 0)
(-8.36013 -3.79621 0)
(-8.34213 -4.0731 0)
(-8.3495 -4.32057 0)
(-8.36287 -4.51379 0)
(-8.3166 -4.63498 0)
(-8.08059 -4.75591 0)
(-7.72045 -4.85066 0)
(-7.27346 -4.77731 0)
(-6.5963 -4.62565 0)
(-5.79767 -4.46877 0)
(-4.95303 -4.18598 0)
(-3.94697 -3.75015 0)
(-2.72871 -3.42886 0)
(-17.813 -4.9285 0)
(-18.0123 -4.89222 0)
(-18.1024 -4.96709 0)
(-18.0396 -5.15844 0)
(-17.7199 -5.4181 0)
(-17.0303 -5.72997 0)
(-15.8903 -6.12523 0)
(-14.2657 -6.53813 0)
(-12.1813 -6.82898 0)
(-9.73983 -6.97547 0)
(-7.01838 -7.17795 0)
(-3.79536 -7.57612 0)
(-0.113058 -7.74503 0)
(3.72089 -7.4488 0)
(7.57291 -6.91142 0)
(11.3712 -6.2403 0)
(14.9105 -5.62519 0)
(17.9012 -5.20913 0)
(20.1743 -5.02991 0)
(21.692 -5.04709 0)
(22.5069 -5.18808 0)
(22.7861 -5.42296 0)
(22.7826 -5.7248 0)
(22.7479 -6.04308 0)
(22.8729 -6.32761 0)
(23.2761 -6.51418 0)
(23.978 -6.40499 0)
(24.843 -5.87431 0)
(25.6224 -5.26203 0)
(25.7642 -5.01136 0)
(24.6485 -4.88381 0)
(22.5576 -4.31404 0)
(19.6574 -2.74399 0)
(16.4387 -0.251671 0)
(13.6931 2.82041 0)
(11.5761 6.68962 0)
(9.30517 10.9974 0)
(7.30206 15.3322 0)
(5.30152 19.2578 0)
(3.13867 22.4468 0)
(0.872831 24.7696 0)
(-1.47844 26.3829 0)
(-4.07858 27.1526 0)
(-6.52 25.7505 0)
(-8.69805 23.1713 0)
(-10.6963 19.7521 0)
(-12.4779 15.9203 0)
(-14.0577 12.105 0)
(-15.4635 8.43846 0)
(-16.5471 4.79041 0)
(-17.1665 0.975471 0)
(-17.3468 -1.98072 0)
(-17.7242 -4.00732 0)
(-18.2123 -5.65492 0)
(-18.2928 -6.98094 0)
(-18.0285 -7.91602 0)
(-17.5693 -8.45661 0)
(-16.9469 -8.64363 0)
(-16.2223 -8.58648 0)
(-15.395 -8.354 0)
(-14.4533 -7.99438 0)
(-13.3873 -7.55613 0)
(-12.1985 -7.0767 0)
(-10.8822 -6.56887 0)
(-9.42845 -6.04652 0)
(-7.84053 -5.52154 0)
(-6.15761 -4.99373 0)
(-4.44067 -4.47628 0)
(-2.74341 -4.03227 0)
(-1.08873 -3.7353 0)
(0.510719 -3.54088 0)
(1.98304 -3.3073 0)
(3.29918 -3.00884 0)
(4.43609 -2.83925 0)
(5.31138 -2.80535 0)
(5.93779 -2.82971 0)
(6.3687 -2.93123 0)
(6.59202 -3.17494 0)
(6.59796 -3.55074 0)
(6.39336 -3.96479 0)
(6.02281 -4.33891 0)
(5.77559 -4.69692 0)
(5.78207 -5.04059 0)
(5.89726 -5.34063 0)
(6.13759 -5.56111 0)
(6.62113 -5.79856 0)
(7.44042 -6.27291 0)
(8.5552 -6.69052 0)
(9.81266 -5.59045 0)
(11.0776 -4.75528 0)
(12.226 -4.20299 0)
(13.3394 -3.40591 0)
(14.2311 -2.45051 0)
(13.8796 -1.29943 0)
(13.0258 -0.116567 0)
(12.3229 1.16071 0)
(11.7958 2.67554 0)
(11.0852 4.35242 0)
(10.126 6.06171 0)
(9.08184 7.67377 0)
(7.96235 9.10247 0)
(6.59909 10.1516 0)
(5.03482 10.8385 0)
(3.32975 11.2592 0)
(1.53638 11.534 0)
(-0.22233 11.6199 0)
(-1.88911 11.4693 0)
(-3.37971 11.0185 0)
(-4.61789 10.2257 0)
(-5.59299 9.16022 0)
(-6.32425 7.94421 0)
(-6.82208 6.63709 0)
(-7.04887 5.22748 0)
(-6.96619 3.72596 0)
(-6.59355 2.22257 0)
(-6.00285 0.848834 0)
(-5.2674 -0.339827 0)
(-4.41103 -1.33872 0)
(-3.44068 -2.10926 0)
(-2.3721 -2.58865 0)
(-1.24514 -2.85066 0)
(-0.104237 -3.04746 0)
(1.00298 -3.24557 0)
(2.01803 -3.43728 0)
(2.82695 -3.58906 0)
(3.3854 -3.68612 0)
(3.67785 -3.74271 0)
(3.69357 -3.78969 0)
(3.44263 -3.84349 0)
(2.97463 -3.8758 0)
(2.36583 -3.88808 0)
(1.62434 -3.97215 0)
(0.76513 -4.06222 0)