/*--------------------------------*- C++ -*----------------------------------*\
| =========                 |                                                 |
| \\      /  F ield         | OpenFOAM: The Open Source CFD Toolbox           |
|  \\    /   O peration     | Version:  2206                                  |
|   \\  /    A nd           | Website:  www.openfoam.com                      |
|    \\/     M anipulation  |                                                 |
\*---------------------------------------------------------------------------*/
FoamFile
{
    version     2.0;
    format      ascii;
    arch        "LSB;label=32;scalar=64";
    class       volScalarField;
    location    "19.8";
    object      p;
}
// * * * * * * * * * * * * * * * * * * * * * * * * * * * * * * * * * * * * * //

dimensions      [0 2 -2 0 0 0 0];

internalField   nonuniform List<scalar> 
3063
(
-0.993514
-0.977474
-0.97266
-0.980853
-0.995851
-1.00855
-1.01005
-0.996348
-0.964392
-0.916249
-0.858057
-0.797134
-0.736373
-0.686958
-0.652503
-0.63242
-0.623784
-0.626688
-0.641598
-0.66744
-0.702714
-0.747747
-0.981926
-0.961817
-0.961177
-0.975341
-0.998062
-1.01693
-1.0229
-1.01096
-0.980233
-0.932641
-0.873783
-0.810378
-0.749872
-0.700179
-0.664706
-0.642995
-0.633656
-0.636319
-0.650648
-0.675716
-0.71041
-0.754218
-0.972591
-0.953051
-0.952715
-0.967927
-0.991031
-1.01105
-1.01938
-1.01025
-0.981923
-0.937239
-0.88179
-0.822296
-0.767023
-0.720624
-0.685888
-0.663806
-0.653765
-0.655011
-0.666799
-0.688195
-0.718178
-0.756326
-0.974044
-0.954514
-0.951086
-0.960538
-0.976352
-0.990013
-0.994055
-0.983708
-0.957842
-0.918952
-0.871898
-0.822201
-0.775265
-0.735659
-0.7048
-0.684372
-0.67426
-0.673586
-0.681756
-0.697795
-0.720731
-0.74947
-0.974145
-0.956023
-0.949529
-0.951889
-0.958181
-0.962647
-0.960217
-0.947676
-0.924168
-0.891544
-0.85346
-0.813553
-0.774368
-0.741091
-0.71559
-0.697899
-0.688221
-0.685594
-0.689862
-0.700295
-0.715979
-0.735842
-0.967536
-0.949649
-0.939405
-0.935058
-0.933204
-0.93034
-0.923522
-0.910748
-0.890885
-0.864337
-0.833537
-0.801879
-0.771105
-0.743485
-0.721998
-0.706039
-0.696025
-0.691748
-0.692472
-0.69803
-0.707812
-0.721169
-0.952466
-0.936093
-0.924166
-0.915968
-0.909474
-0.902619
-0.893766
-0.881282
-0.86341
-0.840089
-0.814152
-0.788203
-0.7632
-0.7404
-0.721573
-0.707029
-0.696999
-0.69171
-0.690069
-0.692097
-0.697334
-0.704614
-0.933916
-0.918626
-0.906003
-0.895901
-0.887089
-0.877923
-0.867114
-0.853529
-0.836538
-0.816801
-0.795627
-0.77415
-0.753333
-0.734164
-0.717746
-0.704522
-0.694693
-0.688164
-0.684393
-0.683385
-0.684694
-0.687323
-0.912207
-0.898144
-0.885648
-0.874734
-0.864628
-0.854181
-0.842605
-0.829379
-0.814235
-0.797327
-0.77919
-0.760755
-0.742839
-0.726157
-0.711404
-0.698966
-0.689007
-0.681468
-0.676103
-0.672823
-0.671148
-0.670268
-0.889561
-0.876788
-0.864806
-0.8537
-0.84301
-0.832055
-0.820359
-0.80759
-0.793525
-0.77827
-0.762319
-0.746236
-0.730559
-0.715785
-0.702393
-0.690659
-0.680741
-0.672588
-0.666061
-0.661025
-0.657033
-0.653461
-0.866394
-0.854735
-0.843371
-0.832422
-0.821645
-0.81065
-0.799143
-0.786933
-0.773919
-0.760238
-0.746144
-0.731929
-0.717966
-0.704623
-0.692236
-0.681009
-0.671083
-0.66241
-0.654927
-0.648485
-0.642705
-0.637109
-0.84337
-0.832705
-0.821996
-0.811392
-0.800797
-0.790012
-0.778891
-0.76734
-0.755322
-0.742912
-0.730203
-0.717398
-0.704743
-0.692492
-0.680873
-0.670047
-0.660121
-0.65107
-0.642874
-0.635377
-0.628278
-0.621212
-0.820823
-0.810954
-0.800815
-0.790585
-0.780275
-0.769821
-0.759176
-0.748315
-0.737227
-0.725921
-0.714422
-0.702831
-0.691274
-0.679915
-0.668909
-0.658395
-0.64845
-0.639101
-0.630339
-0.622027
-0.613941
-0.605804
-0.798989
-0.789707
-0.780016
-0.770115
-0.760097
-0.750004
-0.739867
-0.729708
-0.719505
-0.709211
-0.698792
-0.688241
-0.67759
-0.66693
-0.656402
-0.646124
-0.636169
-0.626593
-0.617389
-0.608473
-0.599696
-0.590842
-0.777896
-0.768969
-0.759534
-0.749825
-0.740023
-0.730265
-0.720648
-0.711212
-0.701907
-0.692642
-0.683298
-0.673763
-0.663973
-0.653956
-0.643846
-0.633791
-0.623859
-0.614106
-0.604572
-0.595242
-0.586044
-0.576796
-0.757869
-0.749029
-0.739616
-0.729915
-0.7202
-0.7107
-0.701569
-0.692877
-0.684564
-0.67646
-0.668309
-0.659846
-0.650903
-0.641472
-0.63167
-0.621663
-0.611606
-0.601623
-0.591812
-0.582217
-0.572872
-0.563636
-0.738731
-0.729721
-0.7201
-0.710222
-0.700441
-0.691088
-0.682403
-0.674506
-0.667337
-0.660655
-0.653996
-0.646799
-0.638727
-0.629789
-0.620148
-0.610037
-0.599741
-0.589478
-0.579409
-0.569696
-0.560484
-0.551609
-0.721562
-0.712084
-0.701946
-0.691568
-0.681449
-0.672091
-0.663851
-0.656903
-0.651091
-0.646109
-0.641335
-0.635775
-0.628865
-0.620688
-0.611556
-0.601754
-0.591576
-0.581334
-0.571354
-0.561863
-0.552984
-0.544532
-0.705947
-0.695841
-0.685035
-0.673963
-0.663285
-0.653794
-0.646082
-0.640586
-0.636956
-0.634294
-0.631477
-0.627154
-0.620831
-0.612799
-0.603501
-0.593358
-0.582744
-0.572047
-0.561871
-0.553196
-0.546133
-0.539638
-0.699744
-0.689441
-0.67844
-0.667263
-0.65655
-0.647049
-0.639565
-0.634852
-0.633653
-0.634229
-0.633295
-0.629673
-0.623756
-0.616142
-0.60723
-0.597362
-0.586911
-0.576269
-0.565793
-0.556172
-0.547862
-0.54018
-0.798484
-0.860841
-0.962691
-1.08914
-1.20626
-1.28282
-1.29799
-1.24592
-1.13777
-0.993449
-0.831317
-0.669415
-0.51481
-0.372375
-0.246452
-0.139441
-0.0518677
0.0174324
0.0699343
0.106766
0.122586
0.115641
0.0967848
0.0764317
0.0487139
0.0106687
-0.0315215
-0.0844357
-0.151589
-0.231589
-0.323382
-0.420534
-0.51146
-0.584616
-0.633022
-0.654496
-0.651796
-0.630898
-0.598342
-0.558917
-0.518672
-0.483343
-0.452771
-0.426254
-0.404035
-0.385783
-0.37114
-0.359718
-0.351127
-0.344957
-0.340845
-0.338458
-0.337679
-0.338647
-0.341644
-0.347123
-0.35452
-0.362785
-0.371457
-0.379274
-0.382845
-0.382053
-0.378713
-0.372095
-0.362926
-0.352425
-0.341624
-0.331453
-0.322664
-0.315847
-0.311553
-0.310543
-0.31339
-0.319354
-0.328343
-0.340704
-0.355644
-0.371749
-0.387319
-0.40042
-0.409152
-0.412896
-0.410574
-0.402493
-0.38944
-0.372475
-0.352809
-0.331231
-0.307992
-0.285548
-0.266006
-0.248812
-0.233916
-0.221586
-0.211887
-0.204863
-0.200543
-0.198758
-0.199086
-0.201096
-0.204494
-0.208794
-0.213168
-0.216927
-0.21951
-0.810966
-0.88053
-0.960041
-1.04427
-1.11552
-1.15401
-1.14749
-1.09294
-0.99706
-0.875
-0.74187
-0.605933
-0.4731
-0.34909
-0.237557
-0.140072
-0.0569224
0.0119782
0.0659378
0.105175
0.133109
0.149535
0.155039
0.143044
0.114499
0.0737277
0.0239148
-0.0375838
-0.112725
-0.200936
-0.298304
-0.395437
-0.480068
-0.543912
-0.583208
-0.599006
-0.595001
-0.575276
-0.546385
-0.514195
-0.4835
-0.455472
-0.430097
-0.407819
-0.388849
-0.373096
-0.36032
-0.350239
-0.342585
-0.336972
-0.332961
-0.330195
-0.328471
-0.327787
-0.328348
-0.330503
-0.334786
-0.340298
-0.346063
-0.352628
-0.35599
-0.354772
-0.3521
-0.347032
-0.339029
-0.329664
-0.319966
-0.31078
-0.302889
-0.296936
-0.293548
-0.293473
-0.296885
-0.303296
-0.312857
-0.325595
-0.340614
-0.356529
-0.371652
-0.384073
-0.392321
-0.39544
-0.392791
-0.384696
-0.371954
-0.355621
-0.336645
-0.315343
-0.293108
-0.272932
-0.254988
-0.238882
-0.224949
-0.213337
-0.204077
-0.197264
-0.192932
-0.190965
-0.191094
-0.192831
-0.195668
-0.199344
-0.203326
-0.206766
-0.209096
-0.802312
-0.85336
-0.907017
-0.959939
-1.00169
-1.02066
-1.00819
-0.958707
-0.877707
-0.778635
-0.669347
-0.555559
-0.443081
-0.336542
-0.238836
-0.151666
-0.0759175
-0.0117967
0.0410569
0.0824662
0.1119
0.13104
0.138253
0.135338
0.120631
0.0891031
0.0407634
-0.0230988
-0.100937
-0.189201
-0.280881
-0.365793
-0.437065
-0.488484
-0.518782
-0.533349
-0.533308
-0.519352
-0.497414
-0.474974
-0.452113
-0.429742
-0.408975
-0.390486
-0.374596
-0.361352
-0.350598
-0.342143
-0.33578
-0.331095
-0.3276
-0.324927
-0.322791
-0.321044
-0.319758
-0.319215
-0.319955
-0.322465
-0.325569
-0.32863
-0.332152
-0.330936
-0.32668
-0.322846
-0.315943
-0.307298
-0.298333
-0.289833
-0.282587
-0.277308
-0.274676
-0.275297
-0.279109
-0.28596
-0.296019
-0.308959
-0.323836
-0.339306
-0.353704
-0.36518
-0.372797
-0.375251
-0.37234
-0.364389
-0.352206
-0.336757
-0.31852
-0.29813
-0.278483
-0.260821
-0.244563
-0.229988
-0.217342
-0.206659
-0.197993
-0.191404
-0.186953
-0.184649
-0.184373
-0.185737
-0.188139
-0.191076
-0.194335
-0.197364
-0.199393
-0.782402
-0.817663
-0.853022
-0.886284
-0.911938
-0.918116
-0.896731
-0.850308
-0.78377
-0.702456
-0.611748
-0.516753
-0.42191
-0.330709
-0.245681
-0.168515
-0.100215
-0.0413415
0.00778296
0.0471311
0.0771259
0.0969004
0.104162
0.100023
0.0842495
0.0561151
0.0151626
-0.038896
-0.105053
-0.179559
-0.255242
-0.325348
-0.384433
-0.425967
-0.45671
-0.47649
-0.478033
-0.4708
-0.458407
-0.442666
-0.425002
-0.407043
-0.390022
-0.374702
-0.361538
-0.350682
-0.342048
-0.33552
-0.330855
-0.327555
-0.325077
-0.322997
-0.320958
-0.318711
-0.316187
-0.313548
-0.311167
-0.309784
-0.309952
-0.310471
-0.31042
-0.30949
-0.305026
-0.299302
-0.293615
-0.285493
-0.276991
-0.269044
-0.262357
-0.25771
-0.255784
-0.256992
-0.261279
-0.268683
-0.279168
-0.292172
-0.306724
-0.321491
-0.334868
-0.345421
-0.351908
-0.353628
-0.350449
-0.34271
-0.331203
-0.316615
-0.299295
-0.281387
-0.26491
-0.249589
-0.235472
-0.222846
-0.211765
-0.202221
-0.194225
-0.187823
-0.183113
-0.180291
-0.179366
-0.180071
-0.181901
-0.184219
-0.186583
-0.188845
-0.190489
-0.758707
-0.782757
-0.805226
-0.824956
-0.835619
-0.829284
-0.80547
-0.765456
-0.710241
-0.642743
-0.567245
-0.487721
-0.407482
-0.329325
-0.255475
-0.187537
-0.126587
-0.0732948
-0.0280528
0.00884325
0.0371294
0.0564611
0.0658029
0.0643444
0.0520496
0.0287335
-0.00607006
-0.0518086
-0.106731
-0.167405
-0.229351
-0.287856
-0.339131
-0.380244
-0.412039
-0.431631
-0.438976
-0.437215
-0.429328
-0.417265
-0.402864
-0.387811
-0.373395
-0.360468
-0.349596
-0.340998
-0.334591
-0.330265
-0.327747
-0.326408
-0.325578
-0.324691
-0.323275
-0.321
-0.317715
-0.313486
-0.308644
-0.303697
-0.299499
-0.296766
-0.294372
-0.290726
-0.285617
-0.278583
-0.271551
-0.264761
-0.256682
-0.248996
-0.242875
-0.238966
-0.237828
-0.239741
-0.244778
-0.252925
-0.263845
-0.276838
-0.290892
-0.304682
-0.316822
-0.326001
-0.331062
-0.331783
-0.328319
-0.320803
-0.309657
-0.295647
-0.28044
-0.266037
-0.252582
-0.239966
-0.228437
-0.218053
-0.208761
-0.200523
-0.193262
-0.186954
-0.181852
-0.178285
-0.176416
-0.176127
-0.177052
-0.178633
-0.180225
-0.181487
-0.182398
-0.736391
-0.750726
-0.762829
-0.771067
-0.771396
-0.760706
-0.737642
-0.70175
-0.654076
-0.596999
-0.533456
-0.466271
-0.397993
-0.33088
-0.266798
-0.207177
-0.153052
-0.105162
-0.0640325
-0.0300548
-0.00353608
0.0151573
0.0254437
0.0266551
0.0185336
0.000734498
-0.0270246
-0.064328
-0.109445
-0.159946
-0.213027
-0.264811
-0.311459
-0.350938
-0.382342
-0.403029
-0.412414
-0.413129
-0.407697
-0.39775
-0.385012
-0.371382
-0.358431
-0.347154
-0.33818
-0.331794
-0.327885
-0.326178
-0.326339
-0.32765
-0.329214
-0.330241
-0.330066
-0.32824
-0.324551
-0.319037
-0.312042
-0.304043
-0.295621
-0.288022
-0.281933
-0.276152
-0.269007
-0.260613
-0.251419
-0.243906
-0.237211
-0.230118
-0.224773
-0.221893
-0.221877
-0.224979
-0.231201
-0.240285
-0.251707
-0.264586
-0.277972
-0.29052
-0.301031
-0.30831
-0.311427
-0.310279
-0.306396
-0.298852
-0.287452
-0.275148
-0.263482
-0.252522
-0.242169
-0.23264
-0.223947
-0.215979
-0.208653
-0.201813
-0.195289
-0.189097
-0.183492
-0.178932
-0.175798
-0.174151
-0.173771
-0.174257
-0.175031
-0.175445
-0.175346
-0.712506
-0.719546
-0.724459
-0.72558
-0.720577
-0.707221
-0.684222
-0.651541
-0.610115
-0.561481
-0.507568
-0.450448
-0.392119
-0.334383
-0.27878
-0.226554
-0.178667
-0.135839
-0.0986031
-0.0673721
-0.0425219
-0.0244584
-0.013654
-0.0105788
-0.0156211
-0.0290705
-0.0511412
-0.0816865
-0.119482
-0.162635
-0.208822
-0.254772
-0.297274
-0.334497
-0.365272
-0.386633
-0.396853
-0.398573
-0.393726
-0.383869
-0.371079
-0.357357
-0.344528
-0.333987
-0.326391
-0.322037
-0.320871
-0.322358
-0.325938
-0.330898
-0.335957
-0.339861
-0.341692
-0.340849
-0.336989
-0.330147
-0.320939
-0.310048
-0.298012
-0.285663
-0.274168
-0.264122
-0.254892
-0.244553
-0.233848
-0.225687
-0.218816
-0.212884
-0.209027
-0.207754
-0.20952
-0.214423
-0.222257
-0.232571
-0.244664
-0.257302
-0.269304
-0.280087
-0.288435
-0.293166
-0.292763
-0.288882
-0.286529
-0.278642
-0.266481
-0.25731
-0.24906
-0.241233
-0.234231
-0.22798
-0.222219
-0.216797
-0.21146
-0.205949
-0.200179
-0.194163
-0.188058
-0.18234
-0.177647
-0.174295
-0.172229
-0.17119
-0.170782
-0.170389
-0.169434
-0.690193
-0.69215
-0.69196
-0.68826
-0.67951
-0.664314
-0.641921
-0.612316
-0.576045
-0.534129
-0.487958
-0.43909
-0.389068
-0.339312
-0.291073
-0.2454
-0.203132
-0.164925
-0.131282
-0.102603
-0.0792826
-0.0617169
-0.0503233
-0.0455332
-0.0477564
-0.0573997
-0.0747678
-0.0998943
-0.132044
-0.169535
-0.210518
-0.252567
-0.292623
-0.328336
-0.358548
-0.380511
-0.391135
-0.392325
-0.386298
-0.374912
-0.360444
-0.345185
-0.331281
-0.320493
-0.313664
-0.311091
-0.312786
-0.318012
-0.32573
-0.335283
-0.345155
-0.35334
-0.358356
-0.359283
-0.355605
-0.347298
-0.335238
-0.320515
-0.304239
-0.287464
-0.271221
-0.256251
-0.242804
-0.230364
-0.218672
-0.209366
-0.202849
-0.198442
-0.196653
-0.197944
-0.202441
-0.20995
-0.219998
-0.231861
-0.244274
-0.255848
-0.265806
-0.273918
-0.279147
-0.279817
-0.276016
-0.272107
-0.268717
-0.258754
-0.248349
-0.242025
-0.236697
-0.232239
-0.228747
-0.225875
-0.223202
-0.220264
-0.216798
-0.212594
-0.207538
-0.201632
-0.195041
-0.188203
-0.181835
-0.176464
-0.172364
-0.169505
-0.167539
-0.166058
-0.164526
-0.669304
-0.66733
-0.663367
-0.656395
-0.645383
-0.629447
-0.608066
-0.581177
-0.549158
-0.512764
-0.473017
-0.431072
-0.388101
-0.345214
-0.303416
-0.263563
-0.226357
-0.192351
-0.161954
-0.135493
-0.113389
-0.0960596
-0.0838789
-0.0772945
-0.0768039
-0.0829106
-0.0960742
-0.116577
-0.144303
-0.178057
-0.215967
-0.256148
-0.295564
-0.33111
-0.361235
-0.383673
-0.394655
-0.394248
-0.385598
-0.371094
-0.353275
-0.334842
-0.31844
-0.306213
-0.299255
-0.29814
-0.30298
-0.312714
-0.325494
-0.340597
-0.356537
-0.370465
-0.38013
-0.383921
-0.380807
-0.370857
-0.355241
-0.335425
-0.31328
-0.290583
-0.268774
-0.248933
-0.231409
-0.215296
-0.202815
-0.194476
-0.189122
-0.186983
-0.188442
-0.193408
-0.201586
-0.212387
-0.224674
-0.237333
-0.24948
-0.259793
-0.267456
-0.272355
-0.272349
-0.268924
-0.264652
-0.257253
-0.248837
-0.240941
-0.234005
-0.229398
-0.226697
-0.225513
-0.225516
-0.225981
-0.226116
-0.225565
-0.224016
-0.221141
-0.216751
-0.210885
-0.20372
-0.1957
-0.187547
-0.180081
-0.173736
-0.168705
-0.164995
-0.162269
-0.1601
-0.64963
-0.644818
-0.638265
-0.62921
-0.616929
-0.600828
-0.580561
-0.556104
-0.527751
-0.496058
-0.46177
-0.425742
-0.38886
-0.351971
-0.315846
-0.28116
-0.248493
-0.218289
-0.190751
-0.166121
-0.144835
-0.127349
-0.114083
-0.105478
-0.102131
-0.104725
-0.113978
-0.130532
-0.154766
-0.186226
-0.223138
-0.263773
-0.305002
-0.342556
-0.373464
-0.396705
-0.408008
-0.405116
-0.392311
-0.372801
-0.349673
-0.326184
-0.305633
-0.290422
-0.281894
-0.281369
-0.289422
-0.304721
-0.324186
-0.346392
-0.370234
-0.391793
-0.407767
-0.415959
-0.414297
-0.402344
-0.38176
-0.354978
-0.325034
-0.294765
-0.265843
-0.239265
-0.215876
-0.197098
-0.184006
-0.175942
-0.172818
-0.174665
-0.181119
-0.191519
-0.20511
-0.220266
-0.235113
-0.249569
-0.262196
-0.27011
-0.273738
-0.274743
-0.271228
-0.263931
-0.254427
-0.244333
-0.234854
-0.22689
-0.220982
-0.218048
-0.218094
-0.220106
-0.223206
-0.22671
-0.229555
-0.23155
-0.232157
-0.230798
-0.227167
-0.22128
-0.213318
-0.203927
-0.193925
-0.184201
-0.175646
-0.168537
-0.162906
-0.158712
-0.155551
-0.631174
-0.624334
-0.616006
-0.605625
-0.592692
-0.57682
-0.557803
-0.535645
-0.51056
-0.48295
-0.453372
-0.422472
-0.390918
-0.359355
-0.328348
-0.29835
-0.269791
-0.242959
-0.217934
-0.194963
-0.174255
-0.156182
-0.141343
-0.130318
-0.123806
-0.122674
-0.128014
-0.140951
-0.162485
-0.192814
-0.230683
-0.273933
-0.318774
-0.361067
-0.397859
-0.423255
-0.432665
-0.426406
-0.407889
-0.381059
-0.350144
-0.319321
-0.292652
-0.272781
-0.261081
-0.259516
-0.269866
-0.291223
-0.319408
-0.351109
-0.384857
-0.41672
-0.441782
-0.456036
-0.45662
-0.443069
-0.416172
-0.379984
-0.339685
-0.299355
-0.260975
-0.226097
-0.196743
-0.174873
-0.16055
-0.15366
-0.154288
-0.161753
-0.17517
-0.193524
-0.214182
-0.235335
-0.252905
-0.268668
-0.281313
-0.286944
-0.288455
-0.285556
-0.275845
-0.263252
-0.249563
-0.23603
-0.223824
-0.214599
-0.209306
-0.20771
-0.209527
-0.214221
-0.220483
-0.227081
-0.232826
-0.237572
-0.240745
-0.241308
-0.238612
-0.232607
-0.223594
-0.212422
-0.200162
-0.187782
-0.176915
-0.167637
-0.159963
-0.154575
-0.15055
-0.613768
-0.605503
-0.595975
-0.584781
-0.57159
-0.55617
-0.538408
-0.518327
-0.496091
-0.471989
-0.446443
-0.419945
-0.392989
-0.366059
-0.339593
-0.31397
-0.289492
-0.265985
-0.243346
-0.221855
-0.201523
-0.182571
-0.165576
-0.151535
-0.141391
-0.135984
-0.136986
-0.14619
-0.165301
-0.19513
-0.236252
-0.285739
-0.338182
-0.389174
-0.43327
-0.461632
-0.470349
-0.459793
-0.433628
-0.397231
-0.356133
-0.315566
-0.280163
-0.253187
-0.236752
-0.232958
-0.244412
-0.271071
-0.308367
-0.352321
-0.398814
-0.443404
-0.480642
-0.504245
-0.508871
-0.493278
-0.457541
-0.409104
-0.355516
-0.302081
-0.25226
-0.208532
-0.173352
-0.148067
-0.132823
-0.127656
-0.13411
-0.150161
-0.173018
-0.200984
-0.228795
-0.255474
-0.278974
-0.297309
-0.30856
-0.311538
-0.307808
-0.298261
-0.283406
-0.265569
-0.246952
-0.229843
-0.215596
-0.205382
-0.199861
-0.198782
-0.201776
-0.20778
-0.215775
-0.225004
-0.234705
-0.243069
-0.249079
-0.251731
-0.250264
-0.244307
-0.234128
-0.220871
-0.20586
-0.190826
-0.177428
-0.165605
-0.155921
-0.148896
-0.144159
-0.597285
-0.588032
-0.577709
-0.566041
-0.552836
-0.537985
-0.521459
-0.503303
-0.483651
-0.462737
-0.4409
-0.418526
-0.395961
-0.373491
-0.351231
-0.329478
-0.308982
-0.289061
-0.268399
-0.247251
-0.226391
-0.206013
-0.186352
-0.168582
-0.154011
-0.143413
-0.139282
-0.144385
-0.161271
-0.191032
-0.236609
-0.295261
-0.358781
-0.422602
-0.477281
-0.512161
-0.521048
-0.504277
-0.468072
-0.419898
-0.367359
-0.316212
-0.270998
-0.235525
-0.212125
-0.203216
-0.214584
-0.246356
-0.292264
-0.347978
-0.408923
-0.467996
-0.519808
-0.556016
-0.567485
-0.550334
-0.504853
-0.442392
-0.3729
-0.303917
-0.242014
-0.187837
-0.144742
-0.115524
-0.101816
-0.100591
-0.113151
-0.136858
-0.169276
-0.206093
-0.242181
-0.275649
-0.303688
-0.323303
-0.333421
-0.333915
-0.326238
-0.311809
-0.292339
-0.26988
-0.24701
-0.226192
-0.208867
-0.195983
-0.188609
-0.187442
-0.192315
-0.201261
-0.212315
-0.224852
-0.237709
-0.249055
-0.258073
-0.262929
-0.26298
-0.256835
-0.244865
-0.22876
-0.21099
-0.193731
-0.177041
-0.161906
-0.149942
-0.141509
-0.136455
-0.581636
-0.571781
-0.56102
-0.549189
-0.536229
-0.522144
-0.506974
-0.490768
-0.473593
-0.455594
-0.437102
-0.418439
-0.399788
-0.381333
-0.363196
-0.34544
-0.327782
-0.309671
-0.290734
-0.270748
-0.249777
-0.228046
-0.205794
-0.183776
-0.163465
-0.146745
-0.136326
-0.135844
-0.149188
-0.181101
-0.231752
-0.297448
-0.373685
-0.452527
-0.520759
-0.564691
-0.575534
-0.552377
-0.505698
-0.445821
-0.381429
-0.319138
-0.264172
-0.22108
-0.193729
-0.179109
-0.1881
-0.220637
-0.272539
-0.336659
-0.408918
-0.482306
-0.547917
-0.596785
-0.615948
-0.598997
-0.545389
-0.470524
-0.388419
-0.307163
-0.232852
-0.168939
-0.119606
-0.0869399
-0.0705539
-0.0729744
-0.092876
-0.127027
-0.168807
-0.212497
-0.255711
-0.294966
-0.325129
-0.343882
-0.350967
-0.347574
-0.335658
-0.317161
-0.293745
-0.268428
-0.24403
-0.220875
-0.201601
-0.188537
-0.182024
-0.181885
-0.187184
-0.196955
-0.209871
-0.224401
-0.239428
-0.253715
-0.265304
-0.272653
-0.273509
-0.267239
-0.254023
-0.235886
-0.215817
-0.196013
-0.176601
-0.158938
-0.144823
-0.134859
-0.129169
-0.567227
-0.557052
-0.546062
-0.534202
-0.521562
-0.508275
-0.494416
-0.480001
-0.465046
-0.449635
-0.433947
-0.418211
-0.402675
-0.387587
-0.373054
-0.35892
-0.344663
-0.329468
-0.312546
-0.293483
-0.272143
-0.248623
-0.22322
-0.196813
-0.171189
-0.149425
-0.132986
-0.124933
-0.129553
-0.156811
-0.210395
-0.285768
-0.374839
-0.465974
-0.545213
-0.595628
-0.607004
-0.582727
-0.532261
-0.467943
-0.398215
-0.330203
-0.269225
-0.218287
-0.18039
-0.163654
-0.174568
-0.208244
-0.261514
-0.327447
-0.401595
-0.481077
-0.555999
-0.613365
-0.639892
-0.62269
-0.566907
-0.487336
-0.399536
-0.31217
-0.228903
-0.157252
-0.103814
-0.0720846
-0.0607806
-0.069515
-0.0937868
-0.130097
-0.173169
-0.218343
-0.263134
-0.302359
-0.331464
-0.348695
-0.354417
-0.349325
-0.335589
-0.315312
-0.290753
-0.26521
-0.240448
-0.217192
-0.198108
-0.185251
-0.178918
-0.17927
-0.185302
-0.195807
-0.209441
-0.224243
-0.239703
-0.254801
-0.266925
-0.27444
-0.275771
-0.26963
-0.25655
-0.238399
-0.217803
-0.196769
-0.176483
-0.158269
-0.143568
-0.133295
-0.12754
-0.554114
-0.543931
-0.532891
-0.521043
-0.50867
-0.496135
-0.483578
-0.470858
-0.457765
-0.444385
-0.430985
-0.417746
-0.404848
-0.39257
-0.381157
-0.370478
-0.359619
-0.347226
-0.331988
-0.313421
-0.291982
-0.268467
-0.242606
-0.213427
-0.1812
-0.152277
-0.130235
-0.121945
-0.13112
-0.160014
-0.211704
-0.283415
-0.368415
-0.457718
-0.536891
-0.58836
-0.600858
-0.57759
-0.53
-0.46863
-0.401295
-0.336031
-0.278416
-0.231983
-0.200537
-0.188791
-0.192727
-0.219205
-0.264564
-0.323829
-0.391723
-0.465351
-0.537293
-0.592461
-0.618236
-0.605937
-0.556079
-0.482177
-0.398121
-0.313781
-0.234211
-0.16688
-0.116972
-0.0856959
-0.0718298
-0.0808075
-0.103972
-0.138276
-0.178912
-0.221615
-0.263921
-0.30006
-0.326363
-0.341304
-0.345379
-0.34006
-0.326799
-0.307705
-0.28514
-0.261376
-0.237822
-0.216514
-0.19971
-0.188555
-0.183271
-0.183629
-0.188918
-0.198271
-0.210472
-0.224155
-0.238389
-0.251824
-0.262641
-0.269201
-0.270128
-0.264446
-0.252573
-0.236053
-0.216924
-0.197002
-0.177659
-0.16017
-0.145802
-0.135415
-0.129251
-0.542545
-0.532757
-0.522028
-0.510521
-0.498683
-0.487083
-0.476018
-0.465233
-0.453946
-0.441851
-0.429407
-0.416974
-0.404792
-0.39319
-0.382472
-0.372893
-0.363588
-0.353266
-0.340252
-0.322259
-0.298954
-0.273294
-0.248005
-0.223918
-0.201566
-0.179944
-0.163065
-0.15389
-0.158428
-0.180759
-0.223564
-0.283835
-0.356144
-0.432646
-0.501005
-0.546834
-0.562155
-0.546942
-0.508945
-0.457909
-0.399828
-0.343903
-0.293683
-0.253047
-0.225828
-0.214648
-0.219094
-0.240399
-0.276585
-0.325882
-0.382935
-0.443909
-0.502247
-0.546962
-0.567348
-0.557265
-0.517882
-0.457078
-0.385447
-0.311868
-0.242279
-0.182891
-0.138595
-0.111434
-0.10255
-0.105477
-0.122861
-0.150783
-0.185199
-0.222262
-0.258353
-0.289607
-0.312856
-0.326484
-0.330821
-0.326622
-0.315299
-0.298873
-0.279298
-0.258532
-0.238315
-0.220194
-0.205634
-0.195617
-0.19056
-0.190358
-0.194532
-0.202231
-0.212471
-0.224157
-0.236229
-0.247405
-0.256222
-0.261266
-0.261513
-0.256184
-0.245768
-0.231344
-0.214426
-0.196553
-0.179076
-0.163203
-0.149996
-0.140189
-0.13402
-0.535862
-0.526179
-0.515204
-0.503392
-0.491562
-0.480077
-0.469271
-0.459222
-0.449199
-0.43845
-0.426651
-0.41432
-0.402173
-0.390892
-0.380712
-0.371805
-0.363184
-0.352805
-0.340063
-0.323721
-0.303833
-0.279887
-0.254854
-0.231264
-0.210007
-0.19182
-0.179025
-0.174661
-0.183149
-0.204151
-0.240821
-0.289774
-0.347763
-0.408012
-0.461255
-0.497681
-0.511096
-0.502618
-0.476567
-0.437623
-0.392164
-0.346741
-0.305777
-0.273202
-0.251738
-0.243033
-0.246752
-0.263056
-0.291342
-0.329821
-0.375011
-0.423102
-0.467772
-0.500284
-0.513241
-0.502877
-0.472876
-0.42551
-0.367734
-0.30674
-0.249028
-0.199828
-0.162533
-0.138511
-0.127978
-0.12906
-0.141271
-0.162459
-0.189824
-0.220216
-0.250343
-0.276962
-0.297432
-0.310172
-0.315023
-0.312633
-0.303915
-0.290592
-0.274382
-0.256978
-0.239924
-0.224579
-0.212115
-0.203344
-0.198647
-0.197969
-0.200852
-0.206753
-0.214861
-0.224253
-0.233915
-0.242698
-0.249401
-0.252866
-0.252263
-0.24752
-0.238545
-0.226159
-0.211559
-0.196012
-0.180703
-0.166687
-0.154831
-0.145747
-0.13973
-0.532767
-0.524359
-0.513648
-0.501131
-0.488772
-0.478706
-0.470051
-0.461559
-0.452328
-0.441928
-0.430448
-0.418218
-0.405748
-0.393517
-0.381931
-0.371079
-0.360071
-0.347642
-0.33269
-0.315829
-0.296894
-0.276396
-0.255292
-0.234871
-0.216812
-0.202692
-0.194633
-0.195122
-0.203434
-0.222876
-0.254057
-0.294774
-0.34214
-0.390883
-0.433796
-0.463842
-0.476393
-0.471026
-0.450866
-0.420049
-0.383608
-0.346749
-0.313604
-0.287349
-0.270206
-0.263437
-0.267076
-0.280837
-0.303972
-0.334939
-0.371233
-0.40936
-0.443987
-0.468814
-0.477315
-0.467609
-0.441742
-0.401837
-0.353652
-0.302839
-0.254602
-0.213013
-0.18075
-0.159085
-0.148159
-0.147447
-0.155879
-0.172018
-0.193818
-0.218775
-0.24407
-0.266909
-0.285139
-0.297077
-0.302495
-0.301416
-0.294798
-0.284003
-0.270504
-0.255792
-0.241259
-0.228102
-0.217291
-0.209507
-0.205108
-0.204084
-0.206033
-0.210533
-0.21694
-0.224459
-0.232169
-0.23905
-0.244146
-0.246403
-0.245208
-0.240853
-0.232864
-0.221989
-0.20919
-0.195503
-0.181949
-0.16944
-0.158693
-0.150247
-0.144419
-0.532386
-0.523767
-0.513774
-0.502623
-0.491469
-0.480586
-0.470567
-0.460881
-0.450777
-0.439858
-0.428177
-0.416222
-0.404284
-0.392651
-0.381478
-0.370621
-0.35937
-0.346741
-0.331816
-0.314648
-0.295503
-0.275262
-0.255093
-0.23616
-0.219978
-0.207933
-0.202115
-0.203912
-0.21353
-0.232529
-0.262138
-0.298854
-0.341039
-0.38406
-0.421697
-0.448077
-0.459365
-0.455081
-0.437469
-0.410355
-0.37834
-0.345926
-0.316758
-0.293783
-0.279094
-0.273685
-0.277788
-0.290822
-0.31182
-0.33931
-0.371287
-0.404417
-0.43378
-0.453883
-0.459963
-0.450156
-0.425677
-0.389184
-0.345555
-0.299882
-0.256463
-0.218849
-0.189517
-0.16961
-0.159583
-0.157758
-0.16439
-0.178086
-0.197078
-0.219192
-0.241868
-0.26256
-0.279196
-0.29025
-0.295011
-0.294718
-0.289295
-0.279921
-0.267957
-0.254782
-0.241679
-0.229753
-0.219882
-0.212683
-0.208495
-0.207336
-0.208843
-0.212674
-0.218252
-0.224827
-0.231521
-0.237417
-0.241599
-0.243225
-0.241753
-0.237154
-0.229593
-0.219487
-0.207637
-0.194961
-0.18238
-0.17072
-0.160642
-0.152621
-0.146913
-0.854596
-0.876906
-0.919623
-0.982643
-1.05731
-1.12964
-1.17919
-1.19463
-1.15645
-1.07303
-0.963641
-0.847088
-0.737903
-0.656422
-0.609315
-0.580699
-0.578364
-0.586107
-0.585159
-0.568636
-0.536832
-0.495569
-0.451484
-0.410472
-0.376946
-0.352809
-0.338248
-0.335293
-0.344495
-0.36307
-0.392485
-0.437036
-0.486005
-0.542692
-0.598847
-0.642127
-0.666641
-0.673242
-0.661187
-0.635097
-0.600585
-0.562766
-0.525595
-0.491414
-0.462565
-0.438686
-0.420572
-0.408515
-0.40113
-0.398304
-0.399863
-0.405879
-0.416709
-0.432155
-0.451721
-0.474264
-0.496938
-0.51682
-0.531311
-0.538262
-0.537709
-0.529398
-0.514653
-0.495316
-0.473361
-0.450582
-0.428495
-0.408293
-0.390676
-0.375864
-0.363992
-0.355788
-0.351395
-0.350986
-0.356482
-0.364297
-0.37492
-0.387822
-0.401443
-0.414043
-0.423855
-0.429334
-0.429819
-0.424958
-0.415048
-0.400928
-0.383672
-0.364495
-0.34457
-0.324951
-0.306279
-0.288444
-0.272663
-0.260426
-0.251338
-0.24522
-0.242064
-0.241601
-0.243626
-0.24779
-0.253457
-0.259778
-0.265851
-0.888895
-0.919325
-0.980262
-1.07108
-1.18161
-1.29382
-1.38798
-1.39247
-1.33212
-1.21342
-1.06094
-0.897258
-0.73793
-0.604304
-0.514804
-0.462537
-0.431662
-0.415456
-0.410898
-0.40635
-0.394387
-0.375158
-0.352185
-0.330317
-0.313248
-0.302936
-0.301529
-0.311531
-0.330646
-0.358101
-0.398698
-0.453498
-0.515287
-0.583761
-0.642819
-0.684091
-0.70509
-0.704053
-0.683548
-0.649867
-0.609276
-0.566955
-0.526253
-0.488929
-0.457273
-0.43245
-0.414333
-0.401204
-0.392671
-0.38837
-0.388021
-0.391632
-0.3995
-0.411611
-0.427456
-0.446342
-0.466379
-0.484662
-0.498662
-0.506466
-0.507407
-0.501776
-0.49013
-0.474082
-0.455395
-0.435709
-0.416457
-0.398758
-0.383345
-0.370652
-0.360799
-0.354038
-0.351103
-0.352582
-0.358746
-0.367751
-0.37966
-0.393693
-0.408187
-0.421338
-0.4313
-0.436458
-0.436411
-0.430591
-0.419516
-0.404129
-0.385577
-0.365139
-0.344055
-0.323297
-0.302962
-0.283694
-0.267819
-0.255298
-0.245627
-0.238954
-0.235239
-0.234274
-0.235793
-0.239402
-0.244509
-0.250359
-0.256077
-0.260838
-0.263952
-0.902892
-0.937205
-1.01381
-1.12573
-1.26094
-1.39142
-1.47954
-1.48092
-1.3962
-1.24866
-1.0708
-0.884101
-0.701431
-0.535092
-0.399761
-0.315215
-0.27298
-0.25368
-0.244361
-0.241605
-0.243362
-0.244393
-0.240345
-0.23637
-0.235578
-0.240381
-0.252932
-0.27404
-0.302816
-0.344143
-0.399713
-0.462039
-0.536945
-0.610735
-0.670603
-0.709538
-0.724832
-0.715643
-0.687913
-0.648813
-0.604645
-0.559932
-0.516346
-0.478067
-0.447084
-0.423494
-0.405285
-0.391818
-0.382607
-0.377205
-0.375297
-0.376794
-0.381848
-0.390781
-0.403229
-0.418425
-0.435334
-0.451727
-0.465061
-0.473287
-0.475315
-0.47193
-0.46305
-0.450009
-0.434368
-0.417612
-0.40104
-0.385675
-0.372288
-0.361388
-0.353228
-0.348154
-0.347279
-0.35114
-0.356726
-0.366771
-0.380067
-0.395038
-0.410203
-0.423728
-0.433682
-0.43846
-0.437789
-0.431135
-0.419117
-0.402741
-0.383226
-0.361906
-0.34001
-0.3181
-0.296182
-0.276825
-0.261131
-0.248238
-0.238223
-0.23121
-0.227124
-0.225783
-0.226899
-0.230061
-0.2347
-0.240105
-0.245477
-0.250011
-0.253042
-0.886783
-0.92112
-1.00704
-1.13188
-1.27495
-1.40585
-1.48425
-1.47006
-1.36556
-1.20488
-1.01752
-0.821185
-0.635413
-0.468172
-0.325529
-0.210956
-0.132268
-0.0962517
-0.0901054
-0.090094
-0.0974585
-0.112835
-0.122666
-0.133816
-0.147147
-0.165135
-0.188839
-0.219666
-0.260601
-0.316862
-0.385467
-0.458423
-0.542379
-0.620221
-0.679141
-0.714051
-0.721899
-0.706018
-0.673702
-0.632102
-0.586675
-0.54023
-0.497482
-0.462507
-0.43447
-0.411899
-0.394326
-0.381154
-0.371717
-0.36564
-0.362596
-0.362371
-0.36506
-0.370921
-0.380109
-0.391945
-0.405523
-0.419493
-0.431936
-0.440281
-0.443118
-0.441275
-0.434762
-0.424311
-0.411306
-0.397082
-0.382819
-0.369514
-0.357956
-0.348676
-0.342049
-0.338581
-0.339448
-0.344233
-0.351035
-0.361972
-0.37609
-0.391698
-0.407276
-0.420916
-0.430665
-0.435082
-0.433775
-0.426428
-0.413727
-0.396728
-0.376699
-0.354966