/*--------------------------------*- C++ -*----------------------------------*\
| =========                 |                                                 |
| \\      /  F ield         | OpenFOAM: The Open Source CFD Toolbox           |
|  \\    /   O peration     | Version:  2206                                  |
|   \\  /    A nd           | Website:  www.openfoam.com                      |
|    \\/     M anipulation  |                                                 |
\*---------------------------------------------------------------------------*/
FoamFile
{
    version     2.0;
    format      ascii;
    arch        "LSB;label=32;scalar=64";
    class       volVectorField;
    location    "19.2999";
    object      ddt0(U);
}
// * * * * * * * * * * * * * * * * * * * * * * * * * * * * * * * * * * * * * //

dimensions      [0 1 -2 0 0 0 0];

internalField   nonuniform List<vector> 
1849
(
(-12.0258 -14.6614 0)
(-10.8044 -17.3923 0)
(-9.26896 -19.5104 0)
(-7.32877 -20.7942 0)
(-5.06047 -21.1294 0)
(-2.6765 -20.7033 0)
(-0.271647 -19.5703 0)
(2.05301 -17.8074 0)
(4.20884 -15.5117 0)
(6.14353 -12.8168 0)
(7.88793 -9.84666 0)
(9.48792 -6.67649 0)
(10.758 -3.42223 0)
(11.6242 -0.305332 0)
(12.1571 2.68075 0)
(12.2325 5.55567 0)
(11.815 8.20918 0)
(10.9503 10.5693 0)
(9.70689 12.6278 0)
(8.1451 14.3748 0)
(6.30678 15.7421 0)
(4.20731 16.5166 0)
(1.98646 16.6358 0)
(-0.193047 16.1097 0)
(-2.238 14.9601 0)
(-4.05282 13.2539 0)
(-5.55716 11.1044 0)
(-6.73054 8.65233 0)
(-7.66378 6.01352 0)
(-8.43591 3.27324 0)
(-8.89571 0.537141 0)
(-9.1731 -2.15732 0)
(-9.20377 -4.8052 0)
(-8.94106 -7.24075 0)
(-8.44033 -9.37363 0)
(-7.73386 -11.1765 0)
(-6.78193 -12.5702 0)
(-5.51307 -13.3685 0)
(-4.03169 -13.6012 0)
(-2.46288 -13.3308 0)
(-0.870411 -12.5922 0)
(0.667791 -11.4364 0)
(2.08231 -9.93489 0)
(3.33419 -8.1854 0)
(4.46583 -6.27379 0)
(5.5442 -4.22388 0)
(6.41167 -2.08817 0)
(7.07652 -0.0428226 0)
(7.55365 1.9326 0)
(7.76193 3.83378 0)
(7.67405 5.58009 0)
(7.30652 7.12379 0)
(6.67828 8.44549 0)
(5.80374 9.51458 0)
(4.6839 10.2297 0)
(3.3908 10.5615 0)
(2.02381 10.5073 0)
(0.669571 10.0679 0)
(-0.617529 9.26656 0)
(-1.77714 8.14974 0)
(-2.75871 6.79147 0)
(-3.5552 5.2769 0)
(-4.23751 3.66165 0)
(-4.82854 1.97072 0)
(-5.22159 0.29022 0)
(-5.51429 -1.35444 0)
(-5.64271 -2.97583 0)
(-5.57811 -4.47023 0)
(-5.35036 -5.78705 0)
(-4.98129 -6.91295 0)
(-4.45119 -7.8017 0)
(-3.71837 -8.34155 0)
(-2.83015 -8.51323 0)
(-1.87676 -8.36825 0)
(-0.899094 -7.92415 0)
(0.0537282 -7.21205 0)
(0.935486 -6.27677 0)
(1.7129 -5.18285 0)
(2.4061 -3.99202 0)
(3.08203 -2.72301 0)
(3.66608 -1.38077 0)
(4.11932 -0.0765908 0)
(4.47923 1.1799 0)
(4.68796 2.39269 0)
(4.72367 3.50811 0)
(4.59158 4.49393 0)
(4.29266 5.33074 0)
(3.82345 5.98676 0)
(3.17016 6.37753 0)
(2.40617 6.53695 0)
(1.5847 6.45429 0)
(0.759062 6.1384 0)
(-0.0342001 5.60906 0)
(-0.755864 4.89914 0)
(-1.37609 4.0579 0)
(-1.90471 3.13337 0)
(-2.39391 2.14561 0)
(-2.80231 1.1097 0)
(-3.11246 0.105702 0)
(-3.36521 -0.874328 0)
(-3.51882 -1.83648 0)
(-3.55875 -2.72094 0)
(-3.49896 -3.50207 0)
(-3.34533 -4.16996 0)
(-3.07844 -4.68596 0)
(-2.6614 -4.96467 0)
(-2.15113 -5.04547 0)
(-1.58762 -4.93241 0)
(-0.996823 -4.63692 0)
(-0.413086 -4.17881 0)
(0.128397 -3.58824 0)
(0.598278 -2.91042 0)
(1.00727 -2.18988 0)
(1.41737 -1.4321 0)
(1.78002 -0.613617 0)
(2.07645 0.180015 0)
(2.32414 0.945551 0)
(2.48461 1.68772 0)
(2.54142 2.38329 0)
(2.5148 3.00343 0)
(2.31822 3.53021 0)
(2.13478 3.92244 0)
(1.48659 4.16271 0)
(-8.82805 -15.7238 0)
(-7.85374 -18.7044 0)
(-6.66504 -21.0632 0)
(-5.21327 -22.7087 0)
(-3.43435 -23.296 0)
(-1.48279 -22.9135 0)
(0.480279 -21.7298 0)
(2.35052 -19.8237 0)
(4.03125 -17.3102 0)
(5.42366 -14.3467 0)
(6.4738 -11.1203 0)
(7.28969 -7.80093 0)
(8.12047 -4.42595 0)
(8.75328 -1.02201 0)
(9.15636 2.31163 0)
(9.28061 5.63855 0)
(8.9741 8.73018 0)
(8.30859 11.4688 0)
(7.35964 13.8567 0)
(6.16574 15.8842 0)
(4.75604 17.5167 0)
(3.11026 18.5924 0)
(1.26454 18.7431 0)
(-0.59232 18.1485 0)
(-2.33312 16.813 0)
(-3.84446 14.8144 0)
(-5.01627 12.3078 0)
(-5.77278 9.51111 0)
(-6.18198 6.64355 0)
(-6.55738 3.78152 0)
(-6.89141 0.890207 0)
(-7.05758 -1.99931 0)
(-7.07601 -4.9456 0)
(-6.79986 -7.64704 0)
(-6.33397 -9.98406 0)
(-5.73602 -11.958 0)
(-4.99779 -13.5403 0)
(-4.07366 -14.6511 0)
(-2.90818 -15.0291 0)
(-1.62969 -14.8023 0)
(-0.329882 -14.0374 0)
(0.922249 -12.7886 0)
(2.05662 -11.1367 0)
(2.99638 -9.19373 0)
(3.69681 -7.09516 0)
(4.24709 -4.95605 0)
(4.83817 -2.77259 0)
(5.27071 -0.561463 0)
(5.62284 1.59345 0)
(5.80568 3.75993 0)
(5.72821 5.76725 0)
(5.44191 7.52967 0)
(4.98805 9.04905 0)
(4.38124 10.3195 0)
(3.616 11.2992 0)
(2.65716 11.8109 0)
(1.56909 11.7905 0)
(0.46523 11.3255 0)
(-0.604732 10.4295 0)
(-1.57516 9.15421 0)
(-2.37221 7.59581 0)
(-2.93724 5.88343 0)
(-3.29624 4.14518 0)
(-3.6516 2.40788 0)
(-3.96677 0.62394 0)
(-4.19197 -1.13109 0)
(-4.31113 -2.94873 0)
(-4.22642 -4.63061 0)
(-4.00846 -6.09323 0)
(-3.6946 -7.34078 0)
(-3.28461 -8.35387 0)
(-2.75914 -9.08586 0)
(-2.08073 -9.37831 0)
(-1.31604 -9.26618 0)
(-0.529872 -8.81375 0)
(0.237224 -8.05154 0)
(0.942339 -7.02954 0)
(1.5387 -5.82074 0)
(1.99187 -4.51079 0)
(2.33914 -3.17887 0)
(2.71919 -1.82582 0)
(3.02703 -0.430789 0)
(3.27974 0.92385 0)
(3.44353 2.28984 0)
(3.45412 3.55622 0)
(3.34474 4.66534 0)
(3.13845 5.6189 0)
(2.83748 6.41257 0)
(2.42553 7.00685 0)
(1.87377 7.26771 0)
(1.24155 7.21804 0)
(0.590573 6.89613 0)
(-0.0516664 6.31941 0)
(-0.645088 5.52329 0)
(-1.14265 4.56875 0)
(-1.50876 3.5346 0)
(-1.77273 2.49202 0)
(-2.05846 1.43968 0)
(-2.28416 0.367704 0)
(-2.49488 -0.66933 0)
(-2.63624 -1.7501 0)
(-2.6523 -2.74946 0)
(-2.58615 -3.61693 0)
(-2.46133 -4.35729 0)
(-2.27659 -4.96066 0)
(-2.01209 -5.39238 0)
(-1.63512 -5.54086 0)
(-1.20237 -5.46217 0)
(-0.743308 -5.1735 0)
(-0.283884 -4.6938 0)
(0.147051 -4.05447 0)
(0.515027 -3.30345 0)
(0.790462 -2.49995 0)
(0.991375 -1.69938 0)
(1.21984 -0.895542 0)
(1.41037 -0.0498376 0)
(1.58671 0.762749 0)
(1.71727 1.60083 0)
(1.74651 2.38658 0)
(1.71793 3.07748 0)
(1.5983 3.71126 0)
(1.49485 4.19475 0)
(1.05294 4.54926 0)
(-5.70918 -16.4428 0)
(-5.21467 -19.604 0)
(-4.54462 -22.1677 0)
(-3.66879 -24.0686 0)
(-2.49411 -24.9727 0)
(-1.05329 -24.6634 0)
(0.488588 -23.4645 0)
(2.00991 -21.4247 0)
(3.39745 -18.6636 0)
(4.51842 -15.3686 0)
(5.24666 -11.7976 0)
(5.545 -8.2471 0)
(5.76675 -4.896 0)
(6.21921 -1.45089 0)
(6.5209 2.11448 0)
(6.68353 5.78379 0)
(6.37539 9.18917 0)
(5.77717 12.1826 0)
(4.98385 14.783 0)
(3.99374 16.9905 0)
(2.82801 18.8004 0)
(1.49506 20.086 0)
(0.0677262 20.4062 0)
(-1.29447 19.7778 0)
(-2.50924 18.2864 0)
(-3.50749 16.0015 0)
(-4.2095 13.1104 0)
(-4.52731 9.91188 0)
(-4.4044 6.78044 0)
(-4.15308 3.98803 0)
(-4.31928 1.13715 0)
(-4.51284 -1.96711 0)
(-4.69692 -5.11761 0)
(-4.50493 -7.98082 0)
(-4.19541 -10.4457 0)
(-3.84408 -12.5305 0)
(-3.40365 -14.2293 0)
(-2.85475 -15.4973 0)
(-2.1264 -16.1104 0)
(-1.23041 -15.9384 0)
(-0.258933 -15.1805 0)
(0.721926 -13.8611 0)
(1.64169 -12.0588 0)
(2.40901 -9.9083 0)
(2.92536 -7.58616 0)
(3.13982 -5.29232 0)
(3.30775 -3.15108 0)
(3.64415 -0.913733 0)
(3.93818 1.39501 0)
(4.17197 3.75262 0)
(4.09867 5.94005 0)
(3.85577 7.85501 0)
(3.50677 9.50219 0)
(3.04492 10.8775 0)
(2.47784 11.9627 0)
(1.779 12.6567 0)
(0.959918 12.7124 0)
(0.129025 12.2776 0)
(-0.674293 11.3454 0)
(-1.39949 9.9554 0)
(-1.97621 8.20715 0)
(-2.32976 6.27044 0)
(-2.39984 4.35872 0)
(-2.32196 2.65032 0)
(-2.50281 0.914314 0)
(-2.69831 -1.02683 0)
(-2.89513 -2.96628 0)
(-2.81829 -4.75302 0)
(-2.64843 -6.3149 0)
(-2.44872 -7.64176 0)
(-2.19442 -8.72946 0)
(-1.8802 -9.55563 0)
(-1.46411 -9.99574 0)
(-0.946427 -9.9326 0)
(-0.384526 -9.49768 0)
(0.189787 -8.70598 0)
(0.737535 -7.60799 0)
(1.2063 -6.28413 0)
(1.53513 -4.84111 0)
(1.67972 -3.41003 0)
(1.77896 -2.08186 0)
(2.01323 -0.695832 0)
(2.2178 0.763685 0)
(2.41141 2.23133 0)
(2.41726 3.59652 0)
(2.32489 4.79686 0)
(2.17673 5.828 0)
(1.96592 6.68478 0)
(1.69194 7.35044 0)
(1.32433 7.73903 0)
(0.866162 7.74106 0)
(0.381502 7.44887 0)
(-0.109557 6.86511 0)
(-0.573993 6.01664 0)
(-0.961444 4.96431 0)
(-1.21608 3.80599 0)
(-1.29268 2.6653 0)
(-1.2992 1.64681 0)
(-1.45139 0.601126 0)
(-1.62752 -0.527301 0)
(-1.80458 -1.68578 0)
(-1.7999 -2.75547 0)
(-1.73251 -3.68401 0)
(-1.64594 -4.47389 0)
(-1.52615 -5.12295 0)
(-1.37126 -5.61623 0)
(-1.15125 -5.87359 0)
(-0.865081 -5.83276 0)
(-0.547482 -5.56672 0)
(-0.213154 -5.08124 0)
(0.11449 -4.40411 0)
(0.399326 -3.58722 0)
(0.600412 -2.70175 0)
(0.683338 -1.8302 0)
(0.714379 -1.03755 0)
(0.839816 -0.231364 0)
(0.976779 0.640566 0)
(1.12973 1.53608 0)
(1.14775 2.37738 0)
(1.11383 3.11782 0)
(1.03396 3.8073 0)
(0.973045 4.33968 0)
(0.680259 4.77672 0)
(-3.06735 -16.6195 0)
(-3.02544 -19.9236 0)
(-2.856 -22.655 0)
(-2.54738 -24.783 0)
(-2.0247 -26.0628 0)
(-1.24446 -25.9565 0)
(-0.299209 -24.8697 0)
(0.726716 -22.8194 0)
(1.73266 -19.8813 0)
(2.57554 -16.2443 0)
(3.1022 -12.2507 0)
(3.14068 -8.35757 0)
(2.98548 -4.90974 0)
(3.10664 -1.99067 0)
(3.44339 1.75036 0)
(3.76147 5.93664 0)
(3.49198 9.62902 0)
(2.99788 12.894 0)
(2.41845 15.7227 0)
(1.71859 18.1238 0)
(0.936436 20.1015 0)
(0.13008 21.4613 0)
(-0.576551 21.6052 0)
(-1.08591 20.778 0)
(-1.45865 19.0704 0)
(-1.74063 16.5419 0)
(-1.93369 13.3343 0)
(-2.00022 9.75608 0)
(-1.81552 6.28194 0)
(-1.57684 3.38252 0)
(-1.55252 1.38734 0)
(-1.84327 -1.3283 0)
(-2.23168 -5.18352 0)
(-2.25107 -8.09398 0)
(-2.18997 -10.6394 0)
(-2.11843 -12.7907 0)
(-1.98266 -14.5638 0)
(-1.79397 -15.9403 0)
(-1.50055 -16.7564 0)
(-1.0701 -16.7094 0)
(-0.54542 -16.0425 0)
(0.047324 -14.7497 0)
(0.655861 -12.8662 0)
(1.18654 -10.5037 0)
(1.53719 -7.89261 0)
(1.59323 -5.34976 0)
(1.56537 -3.12354 0)
(1.66456 -1.32861 0)
(1.94121 0.942158 0)
(2.25461 3.71942 0)
(2.23452 6.06771 0)
(2.08542 8.13313 0)
(1.88789 9.90747 0)
(1.61137 11.3981 0)
(1.26707 12.6077 0)
(0.857499 13.4192 0)
(0.408675 13.4871 0)
(0.0140176 13.0106 0)
(-0.326555 12.0004 0)
(-0.615007 10.4808 0)
(-0.842153 8.53284 0)
(-0.991067 6.33508 0)
(-0.999693 4.15657 0)
(-0.8941 2.30574 0)
(-0.932448 1.01568 0)
(-1.03046 -0.421476 0)
(-1.2179 -3.0473 0)
(-1.24344 -4.85423 0)
(-1.21364 -6.45911 0)
(-1.1701 -7.82523 0)
(-1.09297 -8.94836 0)
(-0.985748 -9.82408 0)
(-0.830961 -10.3679 0)
(-0.611453 -10.3677 0)
(-0.337757 -9.98373 0)
(-0.0270952 -9.21036 0)
(0.292943 -8.06942 0)
(0.577729 -6.6295 0)
(0.7737 -5.02096 0)
(0.822438 -3.43562 0)
(0.765371 -2.06392 0)
(0.868056 -0.91378 0)
(1.0006 0.383412 0)
(1.18798 2.1969 0)
(1.21424 3.6363 0)
(1.1712 4.91107 0)
(1.1036 6.00758 0)
(0.996139 6.92833 0)
(0.848903 7.66897 0)
(0.647688 8.15508 0)
(0.392812 8.18905 0)
(0.142696 7.90616 0)
(-0.0978396 7.30309 0)
(-0.320352 6.38868 0)
(-0.503817 5.2128 0)
(-0.622032 3.88852 0)
(-0.622125 2.58373 0)
(-0.561362 1.47675 0)
(-0.569944 0.709284 0)
(-0.677583 -0.1521 0)
(-0.841064 -1.71241 0)
(-0.853041 -2.80831 0)
(-0.825167 -3.77053 0)
(-0.798098 -4.58493 0)
(-0.753778 -5.251 0)
(-0.695889 -5.76558 0)
(-0.614225 -6.08075 0)
(-0.495081 -6.07736 0)
(-0.344941 -5.8456 0)
(-0.17167 -5.379 0)
(0.0090074 -4.68195 0)
(0.169397 -3.79358 0)
(0.283977 -2.8027 0)
(0.320001 -1.831 0)
(0.267633 -0.992688 0)
(0.325084 -0.291585 0)
(0.391944 0.32247 0)
(0.519667 1.52987 0)
(0.534334 2.405 0)
(0.511884 3.17865 0)
(0.471742 3.91044 0)
(0.441099 4.48002 0)
(0.284211 4.9767 0)
(-1.31157 -16.3635 0)
(-1.46661 -19.782 0)
(-1.53361 -22.6018 0)
(-1.425 -24.8269 0)
(-1.14518 -26.2798 0)
(-0.751314 -26.3716 0)
(-0.362991 -25.4253 0)
(0.027137 -23.4642 0)
(0.38706 -20.5215 0)
(0.672153 -16.7514 0)
(0.827547 -12.4936 0)
(0.779609 -8.21826 0)
(0.502487 -4.44144 0)
(0.248375 -1.87371 0)
(0.300417 0.814692 0)
(0.362773 6.10327 0)
(0.203283 9.81442 0)
(0.0481873 13.1361 0)
(-0.0430962 15.9989 0)
(-0.0833402 18.3965 0)
(-0.049836 20.333 0)
(0.0824724 21.6 0)
(0.299838 21.5953 0)
(0.478624 20.7191 0)
(0.585849 19.0173 0)
(0.603687 16.5434 0)
(0.532434 13.4199 0)
(0.377388 9.91 0)
(0.184096 6.41927 0)
(0.0495272 3.41427 0)
(-0.026344 1.53165 0)
(-0.268853 -0.917937 0)
(-0.585461 -5.05508 0)
(-0.778181 -7.93987 0)
(-0.91832 -10.5261 0)
(-1.01519 -12.7244 0)
(-1.04686 -14.5252 0)
(-1.03672 -15.9337 0)
(-0.909865 -16.8386 0)
(-0.698082 -16.8772 0)
(-0.483878 -16.2931 0)
(-0.275192 -15.066 0)
(-0.0811996 -13.2021 0)
(0.0884677 -10.8015 0)
(0.213025 -8.09293 0)
(0.251448 -5.37656 0)
(0.166772 -2.97104 0)
(0.0652057 -1.31461 0)
(0.149426 0.46709 0)
(0.26593 3.67003 0)
(0.238124 6.03228 0)
(0.203745 8.13269 0)
(0.200705 9.94098 0)
(0.212758 11.4555 0)
(0.250536 12.6748 0)
(0.325799 13.4823 0)
(0.452261 13.5244 0)
(0.543101 13.0261 0)
(0.59778 12.008 0)
(0.611762 10.5073 0)
(0.577802 8.61028 0)
(0.489355 6.48305 0)
(0.353525 4.34701 0)
(0.208777 2.44404 0)
(0.101397 1.06773 0)
(0.0483697 -0.4739 0)
(-0.0430425 -2.90105 0)
(-0.185678 -4.72626 0)
(-0.312857 -6.35761 0)
(-0.405538 -7.75021 0)
(-0.465467 -8.8953 0)
(-0.484183 -9.79471 0)
(-0.448072 -10.3766 0)
(-0.364254 -10.4203 0)
(-0.27214 -10.078 0)
(-0.1752 -9.33895 0)
(-0.079753 -8.21888 0)
(0.00547029 -6.77669 0)
(0.0721773 -5.13026 0)
(0.104972 -3.46335 0)
(0.074813 -1.97989 0)
(0.0256965 -0.937084 0)
(0.0546747 0.231742 0)
(0.106543 2.12571 0)
(0.105821 3.57548 0)
(0.099211 4.86672 0)
(0.104392 5.97974 0)
(0.116965 6.91394 0)
(0.142338 7.66904 0)
(0.189091 8.17339 0)
(0.251059 8.22326 0)
(0.294128 7.94162 0)
(0.314894 7.34604 0)
(0.308721 6.44613 0)
(0.27587 5.2864 0)
(0.217683 3.97006 0)
(0.146233 2.65081 0)
(0.0902838 1.50006 0)
(0.0525129 0.731802 0)
(-0.0258876 -0.0241476 0)
(-0.133329 -1.63931 0)
(-0.219134 -2.73478 0)
(-0.294286 -3.70888 0)
(-0.358936 -4.53753 0)
(-0.403817 -5.21634 0)
(-0.422357 -5.746 0)
(-0.404822 -6.08111 0)
(-0.3575 -6.09823 0)
(-0.304462 -5.88747 0)
(-0.24667 -5.43727 0)
(-0.189956 -4.74921 0)
(-0.138169 -3.86775 0)
(-0.0928156 -2.87418 0)
(-0.0600456 -1.86545 0)
(-0.0603201 -0.968806 0)
(-0.0777962 -0.313892 0)
(-0.0537053 0.255901 0)
(-0.0169889 1.48412 0)
(-0.0131932 2.36227 0)
(-0.0130381 3.14378 0)
(-0.00757383 3.8867 0)
(0.00208997 4.46331 0)
(0.0218316 4.98368 0)
(-0.172772 3.19051 0)
(-0.218355 3.92362 0)
(-0.250783 4.47342 0)
(-0.254267 4.96055 0)
(-3.58122 -0.294362 0)
(-2.91597 -0.332473 0)
(-2.18054 -0.358066 0)
(-1.39913 -0.371558 0)
(-0.591368 -0.376882 0)
(0.142866 -0.399331 0)
(0.839644 -0.354046 0)
(1.51466 -0.306281 0)
(2.11455 -0.260139 0)
(2.6215 -0.211678 0)
(3.02688 -0.160748 0)
(3.32366 -0.108115 0)
(3.50745 -0.0546292 0)
(3.57565 -0.000258453 0)
(3.52718 0.0538802 0)
(3.3669 0.105802 0)
(3.09945 0.153934 0)
(2.73406 0.19646 0)
(2.28242 0.23299 0)
(1.75762 0.261882 0)
(1.17334 0.281181 0)
(0.579038 0.298413 0)
(-0.0178597 0.305891 0)
(-0.608547 0.278959 0)
(-1.16855 0.250432 0)
(-1.6673 0.213674 0)
(-2.08577 0.170943 0)
(-2.40996 0.123629 0)
(-2.63055 0.0732857 0)
(-2.74232 0.0215798 0)
(-2.74302 -0.0297251 0)
(-2.63841 -0.0781364 0)
(-2.43496 -0.121631 0)
(-2.14433 -0.15907 0)
(-1.78015 -0.189393 0)
(-1.35782 -0.211405 0)
(-0.893241 -0.226128 0)
(-0.416132 -0.238901 0)
(0.0616553 -0.243659 0)
(0.520805 -0.222467 0)
(0.957377 -0.200633 0)
(1.35125 -0.174879 0)
(1.69039 -0.145679 0)
(1.96622 -0.113844 0)
(2.17271 -0.0801529 0)
(2.30635 -0.0451274 0)
(2.36422 -0.00925536 0)
(2.3467 0.0263297 0)
(2.25539 0.0604367 0)
(2.09377 0.0923056 0)
(1.86714 0.121176 0)
(1.58229 0.146228 0)
(1.24472 0.166444 0)
(0.862103 0.186162 0)
(0.488639 0.233024 0)
(0.108085 0.210235 0)
(-0.298639 0.19569 0)
(-0.687859 0.179195 0)
(-1.04456 0.158479 0)
(-1.35807 0.134157 0)
(-1.61861 0.106616 0)
(-1.81903 0.0766879 0)
(-1.95415 0.0454661 0)
(-2.02118 0.0133989 0)
(-2.01893 -0.0184566 0)
(-1.95091 -0.0485004 0)
(-1.82105 -0.0757871 0)
(-1.63631 -0.0995018 0)
(-1.40491 -0.118968 0)
(-1.13623 -0.133733 0)
(-0.840409 -0.143514 0)
(-0.52717 -0.148354 0)
(-0.204812 -0.150411 0)
(0.088848 -0.161091 0)
(0.366975 -0.137524 0)
(0.633157 -0.117572 0)
(0.864424 -0.0978198 0)
(1.05449 -0.0768154 0)
(1.19959 -0.0548228 0)
(1.29713 -0.0322649 0)
(1.34613 -0.00947509 0)
(1.34578 0.0131089 0)
(1.29869 0.0346833 0)
(1.20714 0.0545659 0)
(1.07545 0.0719756 0)
(0.908726 0.0867375 0)
(0.712598 0.0982961 0)
(0.492893 0.106084 0)
(0.266611 0.113532 0)
(0.0379278 0.118647 0)
(-0.188623 0.10933 0)
(-0.40726 0.0995616 0)
(-0.605889 0.0870105 0)
(-0.777507 0.0722738 0)
(-0.916793 0.0558022 0)
(-1.01978 0.0381619 0)
(-1.08421 0.0197254 0)
(-1.10828 0.000948401 0)
(-1.09325 -0.0173176 0)
(-1.04053 -0.0342537 0)
(-0.953363 -0.0493532 0)
(-0.835988 -0.0622124 0)
(-0.693308 -0.0724535 0)
(-0.530194 -0.0796173 0)
(-0.352576 -0.0847158 0)
(-0.176134 -0.0955565 0)
(-0.00417961 -0.0872799 0)
(0.166189 -0.079234 0)
(0.323133 -0.0699495 0)
(0.460695 -0.0591184 0)
(0.574768 -0.0469691 0)
(0.662202 -0.0338594 0)
(0.720993 -0.0202019 0)
(0.750125 -0.00620968 0)
(0.748915 0.00765217 0)
(0.719013 0.0206697 0)
(0.662052 0.0322846 0)
(0.581242 0.0421484 0)
(0.481079 0.0495068 0)
(0.366171 0.0534071 0)
(0.24392 0.0523075 0)
(0.123503 0.0483926 0)
(0.029941 0.0251848 0)
(-3.52333 -0.97846 0)
(-2.76299 -1.09447 0)
(-1.9435 -1.16746 0)
(-1.09651 -1.1991 0)
(-0.2611 -1.20439 0)
(0.564382 -1.217 0)
(1.34336 -1.0912 0)
(2.0243 -0.957758 0)
(2.61426 -0.816359 0)
(3.10293 -0.662539 0)
(3.48007 -0.49906 0)
(3.73844 -0.328466 0)
(3.87694 -0.153701 0)
(3.89098 0.0219135 0)
(3.78617 0.193945 0)
(3.56672 0.357673 0)
(3.2388 0.509468 0)
(2.81428 0.6443 0)
(2.30685 0.757301 0)
(1.73256 0.846443 0)
(1.11389 0.915517 0)
(0.469362 0.969826 0)
(-0.182774 0.943029 0)
(-0.809867 0.88206 0)
(-1.37943 0.793141 0)
(-1.87764 0.678152 0)
(-2.28639 0.540995 0)
(-2.59159 0.387476 0)
(-2.78393 0.224128 0)
(-2.85833 0.0565049 0)
(-2.81591 -0.108127 0)
(-2.66471 -0.262218 0)
(-2.41313 -0.399938 0)
(-2.07488 -0.516971 0)
(-1.66625 -0.610432 0)
(-1.20598 -0.677936 0)
(-0.715667 -0.720347 0)
(-0.211588 -0.746005 0)
(0.306122 -0.736977 0)
(0.786726 -0.685698 0)
(1.21978 -0.620605 0)
(1.6018 -0.53979 0)
(1.92136 -0.445942 0)
(2.17029 -0.342475 0)
(2.34368 -0.232787 0)
(2.43793 -0.119723 0)
(2.45199 -0.0054081 0)
(2.3898 0.107194 0)
(2.25205 0.214479 0)
(2.04417 0.313701 0)
(1.77306 0.402394 0)
(1.44734 0.479144 0)
(1.07935 0.547158 0)
(0.684415 0.597768 0)
(0.248119 0.644128 0)
(-0.202447 0.636683 0)
(-0.616944 0.60631 0)
(-1.00951 0.560124 0)
(-1.3667 0.497862 0)
(-1.67438 0.420704 0)
(-1.92199 0.331367 0)
(-2.10203 0.233393 0)
(-2.21065 0.130585 0)
(-2.24282 0.0259176 0)
(-2.20422 -0.0767356 0)
(-2.09606 -0.173116 0)
(-1.92419 -0.260058 0)
(-1.69677 -0.33511 0)
(-1.42354 -0.396143 0)
(-1.11546 -0.441384 0)
(-0.784496 -0.469664 0)
(-0.443799 -0.48119 0)
(-0.109907 -0.480753 0)
(0.224231 -0.480165 0)
(0.53995 -0.428372 0)
(0.807296 -0.371204 0)
(1.03629 -0.3098 0)
(1.22108 -0.242576 0)
(1.35629 -0.171123 0)
(1.44002 -0.0971891 0)
(1.4714 -0.0227899 0)
(1.44996 0.0497838 0)
(1.38093 0.118405 0)
(1.26623 0.18117 0)
(1.11136 0.236362 0)
(0.922682 0.282212 0)
(0.707073 0.317978 0)
(0.473739 0.344927 0)
(0.229092 0.364926 0)
(-0.021702 0.361732 0)
(-0.263778 0.343231 0)
(-0.48603 0.313735 0)
(-0.684219 0.274766 0)
(-0.851714 0.227588 0)
(-0.982894 0.173966 0)
(-1.07438 0.115972 0)
(-1.12392 0.0556578 0)
(-1.13035 -0.00474056 0)
(-1.09652 -0.0628185 0)
(-1.02384 -0.116518 0)
(-0.91663 -0.16409 0)
(-0.780058 -0.204002 0)
(-0.619989 -0.235099 0)
(-0.443629 -0.257412 0)
(-0.259865 -0.274377 0)
(-0.0613064 -0.281487 0)
(0.128228 -0.267682 0)
(0.299557 -0.246481 0)
(0.453983 -0.218161 0)
(0.58606 -0.183524 0)
(0.691237 -0.143914 0)
(0.766529 -0.100867 0)
(0.810457 -0.055969 0)
(0.821167 -0.0104274 0)
(0.800764 0.0342327 0)
(0.750045 0.0762509 0)
(0.671622 0.114016 0)
(0.568918 0.145687 0)
(0.44755 0.169676 0)
(0.310893 0.183339 0)
(0.170049 0.192171 0)
(0.019519 0.181986 0)
(-0.134248 0.117474 0)
(-3.70894 -1.74129 0)
(-2.90694 -1.93333 0)
(-2.04232 -2.04976 0)
(-1.14968 -2.09446 0)
(-0.268883 -2.07772 0)
(0.620341 -2.00095 0)
(1.45401 -1.82685 0)
(2.16731 -1.61742 0)
(2.78942 -1.38011 0)
(3.30515 -1.11595 0)
(3.70302 -0.832102 0)
(3.97636 -0.536311 0)
(4.12588 -0.234348 0)
(4.14175 0.0689738 0)
(4.03313 0.365097 0)
(3.80354 0.645275 0)
(3.46036 0.902387 0)
(3.01388 1.13251 0)
(2.47624 1.32727 0)
(1.86548 1.48061 0)
(1.20466 1.59149 0)
(0.493278 1.6499 0)
(-0.221826 1.59876 0)
(-0.893852 1.50478 0)
(-1.51232 1.3581 0)
(-2.05521 1.16017 0)
(-2.50073 0.920714 0)
(-2.83372 0.651347 0)
(-3.04392 0.365408 0)
(-3.12503 0.0735904 0)
(-3.07891 -0.211644 0)
(-2.91533 -0.477296 0)
(-2.64336 -0.713272 0)
(-2.27796 -0.911837 0)
(-1.83807 -1.06781 0)
(-1.34142 -1.1806 0)
(-0.807217 -1.24858 0)
(-0.255402 -1.27139 0)
(0.297624 -1.23715 0)
(0.817126 -1.156 0)
(1.29097 -1.04606 0)
(1.70742 -0.906119 0)
(2.05539 -0.742299 0)
(2.32697 -0.56122 0)
(2.51751 -0.369435 0)
(2.62405 -0.173204 0)
(2.64398 0.0231395 0)
(2.5841 0.215783 0)
(2.44383 0.399157 0)
(2.22858 0.568149 0)
(1.94508 0.719059 0)
(1.60138 0.850504 0)
(1.20681 0.96362 0)
(0.777704 1.0472 0)
(0.320398 1.059 0)
(-0.155027 1.06327 0)
(-0.613565 1.0299 0)
(-1.04442 0.956984 0)
(-1.43556 0.850935 0)
(-1.77352 0.716576 0)
(-2.04688 0.559618 0)
(-2.24738 0.386883 0)
(-2.37059 0.205622 0)
(-2.41003 0.0225201 0)
(-2.37191 -0.155979 0)
(-2.25893 -0.32359 0)
(-2.07681 -0.474145 0)
(-1.83454 -0.602994 0)
(-1.54261 -0.706677 0)
(-1.21253 -0.782534 0)
(-0.856642 -0.828207 0)
(-0.488639 -0.843973 0)
(-0.123515 -0.833614 0)
(0.238137 -0.797303 0)
(0.576143 -0.72769 0)
(0.867073 -0.635888 0)
(1.11595 -0.531005 0)
(1.316 -0.414025 0)
(1.46225 -0.28893 0)
(1.55322 -0.159717 0)
(1.58722 -0.0296524 0)
(1.56377 0.0967379 0)
(1.48925 0.215135 0)
(1.36621 0.32255 0)
(1.2001 0.416941 0)
(0.996807 0.495911 0)
(0.763642 0.557792 0)
(0.508759 0.602793 0)
(0.240529 0.628351 0)
(-0.0308065 0.614076 0)
(-0.294192 0.584238 0)
(-0.538055 0.535626 0)
(-0.755013 0.468672 0)
(-0.93789 0.386366 0)
(-1.08097 0.292389 0)
(-1.18077 0.190973 0)
(-1.23383 0.0860024 0)
(-1.23968 -0.0189174 0)
(-1.20186 -0.119645 0)
(-1.12187 -0.212137 0)
(-1.00443 -0.293388 0)
(-0.854967 -0.361229 0)
(-0.679555 -0.414288 0)
(-0.484951 -0.452695 0)
(-0.278376 -0.475294 0)
(-0.0642196 -0.470709 0)
(0.142422 -0.451247 0)
(0.334128 -0.417567 0)
(0.506146 -0.369253 0)
(0.652957 -0.30881 0)
(0.77003 -0.239056 0)
(0.85418 -0.162969 0)
(0.903977 -0.0836086 0)
(0.917107 -0.00387749 0)
(0.896357 0.0737109 0)
(0.842597 0.146641 0)
(0.758348 0.212063 0)
(0.645819 0.267224 0)
(0.512454 0.310868 0)
(0.358855 0.337482 0)
(0.193205 0.356586 0)
(0.0281629 0.347723 0)
(-0.199673 0.264084 0)
(-4.10349 -2.53296 0)
(-3.20566 -2.814 0)
(-2.23495 -2.98732 0)
(-1.2251 -3.05827 0)
(-0.217075 -3.02448 0)
(0.76088 -2.87108 0)
(1.66169 -2.63572 0)
(2.46252 -2.34212 0)
(3.15464 -1.9965 0)
(3.72354 -1.61176 0)
(4.15995 -1.19975 0)
(4.45913 -0.771312 0)
(4.62099 -0.33283 0)
(4.63034 0.107524 0)
(4.50593 0.536161 0)
(4.244 0.943201 0)
(3.85317 1.31961 0)
(3.34431 1.65589 0)
(2.72984 1.94207 0)
(2.02683 2.17033 0)
(1.25708 2.33019 0)
(0.427924 2.3996 0)
(-0.406295 2.34946 0)
(-1.19051 2.21067 0)
(-1.91135 1.99485 0)
(-2.54305 1.70419 0)
(-3.06015 1.35138 0)
(-3.44351 0.954181 0)
(-3.68401 0.531893 0)
(-3.76903 0.101522 0)
(-3.70771 -0.317586 0)
(-3.50925 -0.707494 0)
(-3.18503 -1.05428 0)
(-2.75338 -1.34681 0)
(-2.23578 -1.5778 0)
(-1.65344 -1.74462 0)
(-1.024 -1.8491 0)
(-0.369429 -1.88158 0)
(0.277567 -1.82332 0)
(0.886361 -1.70458 0)
(1.44353 -1.539 0)
(1.93284 -1.33077 0)
(2.34249 -1.08859 0)
(2.66417 -0.822231 0)
(2.89289 -0.541184 0)
(3.02794 -0.254279 0)
(3.06175 0.0319446 0)
(3.00604 0.312051 0)
(2.85965 0.579117 0)
(2.62767 0.826068 0)
(2.31769 1.04746 0)
(1.94066 1.2395 0)
(1.51194 1.39898 0)
(1.02493 1.52056 0)
(0.496487 1.58014 0)
(-0.0386981 1.57307 0)
(-0.563308 1.51374 0)
(-1.05803 1.40681 0)
(-1.50669 1.25244 0)
(-1.8957 1.0558 0)
(-2.21189 0.825369 0)
(-2.44529 0.571399 0)
(-2.59081 0.304293 0)
(-2.64199 0.0339352 0)
(-2.60188 -0.228725 0)
(-2.47832 -0.474354 0)
(-2.27682 -0.695107 0)
(-2.00757 -0.884192 0)
(-1.68165 -1.036 0)
(-1.31141 -1.14686 0)
(-0.909572 -1.21648 0)
(-0.490392 -1.24451 0)
(-0.0717974 -1.23016 0)
(0.332148 -1.1672 0)
(0.702189 -1.06252 0)
(1.03003 -0.930853 0)
(1.30839 -0.775674 0)
(1.52939 -0.602857 0)
(1.68865 -0.418786 0)
(1.78482 -0.228616 0)
(1.81347 -0.0371875 0)
(1.78032 0.14774 0)
(1.6881 0.320709 0)
(1.54077 0.477821 0)
(1.34466 0.616102 0)
(1.10632 0.732237 0)
(0.833748 0.824235 0)
(0.535871 0.890711 0)
(0.216531 0.926949 0)
(-0.107453 0.909848 0)
(-0.415852 0.862436 0)
(-0.701403 0.789087 0)
(-0.955591 0.689185 0)
(-1.16973 0.566546 0)
(-1.33676 0.426614 0)
(-1.45232 0.2756 0)
(-1.51259 0.119658 0)
(-1.51748 -0.0352185 0)
(-1.47145 -0.183453 0)
(-1.37613 -0.319686 0)
(-1.23696 -0.439586 0)
(-1.0602 -0.540065 0)
(-0.85277 -0.619627 0)
(-0.621922 -0.677718 0)
(-0.37477 -0.710279 0)
(-0.120207 -0.705078 0)
(0.126619 -0.673634 0)
(0.356895 -0.62112 0)
(0.563849 -0.547989 0)
(0.741277 -0.457307 0)
(0.883996 -0.353201 0)
(0.988336 -0.240112 0)
(1.05267 -0.12245 0)
(1.07536 -0.00440504 0)
(1.05676 0.110424 0)
(1.00033 0.218676 0)
(0.908811 0.316504 0)
(0.783179 0.399627 0)
(0.631963 0.467019 0)
(0.455295 0.511354 0)
(0.260157 0.547151 0)
(0.0734838 0.551267 0)
(-0.231381 0.464533 0)
(-4.86888 -3.46596 0)
(-3.725 -3.84648 0)
(-2.49588 -4.08707 0)
(-1.22067 -4.18716 0)
(0.0355327 -4.12171 0)
(1.22024 -3.88955 0)
(2.30851 -3.56449 0)
(3.27825 -3.15703 0)
(4.1058 -2.68264 0)
(4.777 -2.15752 0)
(5.28322 -1.59839 0)
(5.62374 -1.01989 0)
(5.78952 -0.426699 0)
(5.77827 0.168731 0)
(5.60065 0.748349 0)
(5.25497 1.30103 0)
(4.74904 1.81521 0)
(4.09354 2.27624 0)
(3.30343 2.67157 0)
(2.39704 2.98967 0)
(1.39564 3.2138 0)
(0.318682 3.31398 0)
(-0.767481 3.25281 0)
(-1.79477 3.06053 0)
(-2.73516 2.75923 0)
(-3.55069 2.35376 0)
(-4.20743 1.86023 0)
(-4.68179 1.30406 0)
(-4.96487 0.713146 0)
(-5.0391 0.11196 0)
(-4.93275 -0.469666 0)
(-4.65152 -1.0071 0)
(-4.21303 -1.48223 0)
(-3.64174 -1.88179 0)
(-2.96377 -2.19762 0)
(-2.20642 -2.42646 0)
(-1.39324 -2.56947 0)
(-0.55166 -2.61514 0)
(0.27728 -2.52666 0)
(1.0578 -2.35721 0)
(1.76673 -2.12195 0)
(2.38584 -1.83221 0)
(2.9017 -1.49865 0)
(3.3051 -1.13287 0)
(3.59122 -0.747997 0)
(3.76116 -0.356181 0)
(3.80715 0.0346244 0)
(3.74065 0.416704 0)
(3.56431 0.781078 0)
(3.28309 1.11901 0)
(2.90581 1.42248 0)
(2.4438 1.68426 0)
(1.91092 1.89608 0)
(1.31925 2.0467 0)
(0.681035 2.14021 0)
(0.0192441 2.15883 0)
(-0.637974 2.08148 0)
(-1.25152 1.92852 0)
(-1.80374 1.71567 0)
(-2.2768 1.44612 0)
(-2.65473 1.12962 0)
(-2.92662 0.780588 0)
(-3.08828 0.413138 0)
(-3.13131 0.0408154 0)
(-3.06711 -0.318602 0)
(-2.90103 -0.652062 0)
(-2.64159 -0.951095 0)
(-2.30133 -1.20753 0)
(-1.89351 -1.41508 0)
(-1.43214 -1.56944 0)
(-0.931397 -1.66974 0)
(-0.409905 -1.70935 0)
(0.102293 -1.67347 0)
(0.587137 -1.57879 0)
(1.03236 -1.4396 0)
(1.42495 -1.25921 0)
(1.75262 -1.04526 0)
(2.00741 -0.806894 0)
(2.18577 -0.553794 0)
(2.2843 -0.292209 0)
(2.30154 -0.0304863 0)
(2.24558 0.221131 0)
(2.11738 0.456537 0)
(1.92296 0.670905 0)
(1.6694 0.859282 0)
(1.36473 1.01712 0)
(1.01862 1.14175 0)
(0.641514 1.22995 0)
(0.234845 1.27414 0)
(-0.180782 1.26172 0)
(-0.573387 1.19387 0)
(-0.936211 1.08992 0)
(-1.25843 0.950334 0)
(-1.5286 0.779202 0)
(-1.73796 0.583892 0)
(-1.88164 0.373595 0)
(-1.95627 0.15679 0)
(-1.95929 -0.0575787 0)
(-1.89922 -0.261374 0)
(-1.77812 -0.448187 0)
(-1.60275 -0.612904 0)
(-1.38104 -0.751397 0)
(-1.12171 -0.861628 0)
(-0.833733 -0.94203 0)
(-0.525526 -0.987188 0)
(-0.207123 -0.985236 0)
(0.103116 -0.94014 0)
(0.393055 -0.865499 0)
(0.653472 -0.76356 0)
(0.876363 -0.638549 0)
(1.05549 -0.494968 0)
(1.18666 -0.338576 0)
(1.26817 -0.175899 0)
(1.29922 -0.0124554 0)
(1.27849 0.146313 0)
(1.21227 0.295612 0)
(1.10309 0.431608 0)
(0.952744 0.548825 0)
(0.768413 0.645523 0)
(0.556826 0.711724 0)
(0.309246 0.76767 0)
(0.0888683 0.788639 0)
(-0.305274 0.710445 0)
(-6.73586 -4.73365 0)
(-4.93275 -5.23742 0)
(-3.05024 -5.54814 0)
(-1.13868 -5.63943 0)
(0.704205 -5.47553 0)
(2.39945 -5.18341 0)
(3.8993 -4.74881 0)
(5.19046 -4.18764 0)
(6.2667 -3.53791 0)
(7.11994 -2.82723 0)
(7.74435 -2.07546 0)
(8.14374 -1.29963 0)
(8.29472 -0.506684 0)
(8.23161 0.28524 0)
(7.9431 1.05846 0)
(7.42953 1.79907 0)
(6.69901 2.49221 0)
(5.76391 3.11926 0)
(4.64157 3.66394 0)
(3.35181 4.11313 0)
(1.91343 4.44293 0)
(0.352416 4.59287 0)
(-1.24934 4.4931 0)
(-2.79553 4.2251 0)
(-4.21742 3.79347 0)
(-5.44873 3.21406 0)
(-6.43166 2.51442 0)
(-7.12363 1.7315 0)
(-7.49821 0.908391 0)
(-7.53792 0.0906371 0)
(-7.30919 -0.694259 0)
(-6.82413 -1.42504 0)
(-6.11895 -2.07136 0)
(-5.23501 -2.61282 0)
(-4.21558 -3.03987 0)
(-3.10244 -3.35131 0)
(-1.92945 -3.54368 0)
(-0.715326 -3.59553 0)
(0.480627 -3.46014 0)
(1.59169 -3.22988 0)
(2.58128 -2.90538 0)
(3.43131 -2.49838 0)
(4.13203 -2.03447 0)
(4.6729 -1.53345 0)
(5.04747 -1.0109 0)
(5.25927 -0.481394 0)
(5.29398 0.0434693 0)
(5.18415 0.554087 0)
(4.92561 1.04034 0)
(4.52607 1.492 0)
(3.99682 1.9003 0)
(3.35154 2.25417 0)
(2.60668 2.5434 0)
(1.77871 2.75943 0)
(0.881972 2.89391 0)
(-0.0619924 2.92293 0)
(-0.99973 2.81006 0)
(-1.8788 2.60144 0)
(-2.66521 2.30516 0)
(-3.32725 1.93147 0)
(-3.83928 1.49636 0)
(-4.18476 1.01998 0)
(-4.35041 0.523797 0)
(-4.34657 0.0276578 0)
(-4.1952 -0.452846 0)
(-3.90525 -0.900896 0)
(-3.49398 -1.3023 0)
(-2.97976 -1.64542 0)
(-2.3826 -1.92332 0)
(-1.72059 -2.13246 0)
(-1.01041 -2.26341 0)
(-0.279335 -2.29548 0)
(0.428715 -2.24347 0)
(1.08712 -2.12239 0)
(1.67778 -1.92613 0)
(2.1878 -1.67146 0)
(2.60566 -1.37444 0)
(2.92138 -1.04826 0)
(3.13108 -0.70469 0)
(3.22557 -0.352012 0)
(3.22055 -0.00261877 0)
(3.11789 0.333039 0)
(2.92165 0.646726 0)
(2.63922 0.932339 0)
(2.2795 1.18366 0)
(1.85359 1.39517 0)
(1.37305 1.56307 0)
(0.848005 1.68337 0)
(0.28703 1.74454 0)
(-0.286995 1.72805 0)
(-0.83643 1.6385 0)
(-1.34185 1.49379 0)
(-1.78547 1.29858 0)
(-2.15176 1.06118 0)
(-2.42813 0.791847 0)
(-2.60769 0.502711 0)
(-2.68432 0.205738 0)
(-2.66631 -0.0874057 0)
(-2.56379 -0.366681 0)
(-2.3818 -0.621902 0)
(-2.12974 -0.845555 0)
(-1.81865 -1.03259 0)
(-1.46066 -1.18098 0)
(-1.06749 -1.28819 0)
(-0.649549 -1.34797 0)
(-0.218698 -1.3474 0)
(0.200526 -1.28854 0)
(0.589074 -1.18917 0)
(0.933481 -1.04662 0)