/*--------------------------------*- C++ -*----------------------------------*\
| =========                 |                                                 |
| \\      /  F ield         | OpenFOAM: The Open Source CFD Toolbox           |
|  \\    /   O peration     | Version:  2206                                  |
|   \\  /    A nd           | Website:  www.openfoam.com                      |
|    \\/     M anipulation  |                                                 |
\*---------------------------------------------------------------------------*/
FoamFile
{
    version     2.0;
    format      ascii;
    arch        "LSB;label=32;scalar=64";
    class       volScalarField;
    location    "18.3";
    object      p;
}
// * * * * * * * * * * * * * * * * * * * * * * * * * * * * * * * * * * * * * //

dimensions      [0 2 -2 0 0 0 0];

internalField   nonuniform List<scalar> 
1848
(
2.13531
2.13501
2.13423
2.13301
2.13146
2.12965
2.12759
2.12533
2.12288
2.12028
2.11755
2.1147
2.11176
2.10873
2.10562
2.10245
2.09921
2.09593
2.09259
2.08921
2.08579
2.08234
2.07886
2.07535
2.07183
2.06828
2.06472
2.06115
2.05758
2.05401
2.05044
2.04688
2.04334
2.03981
2.03631
2.03283
2.02939
2.026
2.02264
2.01934
2.01609
2.0129
2.00977
2.00671
2.00371
2.00079
1.99795
1.99519
1.9925
1.9899
1.98738
1.98495
1.9826
1.98034
1.97817
1.97609
1.97409
1.97219
1.97039
1.96868
1.96708
1.96557
1.96418
1.96291
1.96176
1.96075
1.95988
1.95917
1.95864
1.9583
1.95819
1.95833
1.95876
1.95949
1.96059
1.9621
1.96408
1.96659
1.96972
1.97355
1.97818
1.98375
1.99037
1.99822
2.00746
2.01831
2.03098
2.04571
2.06276
2.08238
2.10478
2.13012
2.1584
2.1893
2.22203
2.25483
2.28444
2.30425
2.3048
2.25815
2.16352
1.69962
2.13386
2.13359
2.13287
2.13176
2.13033
2.12863
2.12669
2.12453
2.12218
2.11967
2.11702
2.11425
2.11136
2.10838
2.10532
2.10219
2.09899
2.09573
2.09243
2.08907
2.08568
2.08225
2.07879
2.0753
2.07179
2.06826
2.06472
2.06117
2.05762
2.05406
2.05051
2.04697
2.04345
2.03994
2.03646
2.033
2.02958
2.0262
2.02286
2.01957
2.01634
2.01316
2.01004
2.00699
2.00401
2.0011
1.99826
1.9955
1.99282
1.99022
1.98771
1.98527
1.98293
1.98067
1.9785
1.97642
1.97443
1.97253
1.97073
1.96904
1.96744
1.96596
1.96459
1.96335
1.96224
1.96127
1.96046
1.95981
1.95936
1.95912
1.95912
1.95941
1.96
1.96094
1.96228
1.96408
1.96641
1.96934
1.97298
1.97742
1.9828
1.98926
1.99699
2.00619
2.0171
2.03
2.04522
2.06315
2.0842
2.10888
2.13772
2.17127
2.21011
2.25469
2.30528
2.36166
2.42277
2.48586
2.54561
2.59009
2.60035
2.51855
2.13281
2.13255
2.13188
2.13083
2.12948
2.12787
2.12601
2.12393
2.12166
2.11921
2.11662
2.11389
2.11106
2.10812
2.1051
2.10199
2.09882
2.09559
2.0923
2.08897
2.08559
2.08218
2.07873
2.07526
2.07176
2.06825
2.06472
2.06119
2.05765
2.05411
2.05057
2.04705
2.04353
2.04004
2.03657
2.03313
2.02972
2.02635
2.02303
2.01975
2.01653
2.01336
2.01025
2.00721
2.00423
2.00132
1.99849
1.99573
1.99306
1.99046
1.98794
1.98551
1.98316
1.9809
1.97873
1.97665
1.97466
1.97277
1.97097
1.96928
1.96769
1.96622
1.96487
1.96364
1.96256
1.96162
1.96085
1.96026
1.95986
1.95969
1.95977
1.96016
1.96088
1.96197
1.96349
1.96551
1.96809
1.97134
1.97536
1.98027
1.98621
1.99338
2.00196
2.01221
2.02443
2.03895
2.05621
2.07668
2.10096
2.12973
2.16378
2.20403
2.25147
2.30717
2.37212
2.44707
2.5321
2.62595
2.72496
2.82155
2.90131
2.94579
2.13211
2.13187
2.13123
2.13022
2.12892
2.12736
2.12555
2.12353
2.1213
2.1189
2.11635
2.11366
2.11085
2.10794
2.10494
2.10186
2.0987
2.09549
2.09221
2.08889
2.08553
2.08213
2.07869
2.07523
2.07174
2.06824
2.06472
2.06119
2.05766
2.05413
2.05061
2.04709
2.04359
2.0401
2.03664
2.03321
2.02981
2.02645
2.02313
2.01986
2.01664
2.01348
2.01038
2.00734
2.00436
2.00146
1.99863
1.99588
1.9932
1.9906
1.98808
1.98565
1.9833
1.98104
1.97886
1.97678
1.97479
1.9729
1.9711
1.96941
1.96783
1.96636
1.96501
1.96379
1.96272
1.96179
1.96104
1.96048
1.96013
1.96
1.96012
1.96056
1.96135
1.96254
1.96417
1.96632
1.96907
1.97252
1.97678
1.98199
1.98831
1.99592
2.00507
2.01603
2.02912
2.04474
2.06337
2.08559
2.11209
2.14368
2.18135
2.22625
2.27967
2.34305
2.41783
2.50523
2.60573
2.71832
2.83896
2.95881
3.06167
3.12528
2.1309
2.12992
2.12864
2.12711
2.12533
2.12332
2.12112
2.11874
2.11621
2.11354
2.11075
2.10785
2.10486
2.10179
2.09864
2.09544
2.09217
2.08886
2.0855
2.0821
2.07867
2.07521
2.07173
2.06823
2.06472
2.0612
2.05767
2.05414
2.05062
2.04711
2.04361
2.04013
2.03667
2.03324
2.02985
2.02649
2.02318
2.01991
2.01669
2.01353
2.01043
2.00739
2.00442
2.00152
1.99869
1.99593
1.99325
1.99065
1.98813
1.9857
1.98334
1.98108
1.9789
1.97681
1.97482
1.97292
1.97112
1.96942
1.96784
1.96636
1.96501
1.96379
1.96272
1.96179
1.96104
1.96048
1.96013
1.96003
1.96015
1.9606
1.96142
1.96263
1.9643
1.96649
1.9693
1.97283
1.97719
1.98251
1.98898
1.99679
2.00618
2.01745
2.03093
2.04705
2.06633
2.08937
2.11692
2.14988
2.18931
2.23647
2.29283
2.35997
2.43954
2.53292
2.64073
2.76185
2.89184
3.02096
3.1316
3.20041
2.2248
2.19127
2.16912
2.15981
2.15433
2.14878
2.14328
2.13826
2.13377
2.1296
2.1256
2.12171
2.11791
2.11416
2.11042
2.10668
2.10295
2.09921
2.09546
2.0917
2.08792
2.08411
2.08029
2.07645
2.0726
2.06874
2.06488
2.06099
2.05697
2.05283
2.04872
2.04466
2.04063
2.03662
2.03264
2.0287
2.02482
2.021
2.01724
2.01356
2.00996
2.00645
2.00304
1.99974
1.99654
1.99345
1.99048
1.98762
1.98487
1.98224
1.97973
1.97732
1.97501
1.9728
1.97067
1.96864
1.96667
1.96478
1.96294
1.96116
1.95942
1.95771
1.95603
1.95436
1.9527
1.95103
1.94934
1.94763
1.94589
1.94412
1.9423
1.94043
1.93847
1.93642
1.93424
1.9319
1.92935
1.92655
1.92344
1.91995
1.91598
1.91143
1.90614
1.89995
1.89262
1.88386
1.87332
1.86056
1.845
1.82596
1.80253
1.7736
1.7378
1.69376
1.64026
1.57514
1.49581
1.40065
1.28814
1.15677
1.00605
0.837323
2.1892
2.176
2.16342
2.15651
2.15154
2.14654
2.14155
2.1369
2.13263
2.12861
2.12473
2.12098
2.11731
2.11363
2.10994
2.10624
2.10254
2.09885
2.09514
2.09142
2.08767
2.0839
2.08011
2.07631
2.07249
2.06866
2.0648
2.06091
2.05693
2.0529
2.04886
2.04485
2.04086
2.03689
2.03295
2.02906
2.02521
2.02141
2.01769
2.01403
2.01046
2.00697
2.00358
2.0003
1.99711
1.99402
1.99104
1.98818
1.98543
1.9828
1.98027
1.97785
1.97554
1.97331
1.97118
1.96913
1.96715
1.96524
1.96339
1.9616
1.95985
1.95813
1.95644
1.95476
1.9531
1.95143
1.94975
1.94804
1.94633
1.9446
1.9428
1.94094
1.93901
1.93699
1.93486
1.93258
1.9301
1.92738
1.92435
1.92095
1.91709
1.91266
1.90751
1.90148
1.89434
1.88578
1.87546
1.86295
1.84767
1.82891
1.80571
1.77702
1.74163
1.69814
1.64503
1.5788
1.49723
1.40008
1.28491
1.14937
0.993
0.817556
2.17408
2.16957
2.16211
2.15559
2.15042
2.14568
2.14099
2.13652
2.13227
2.12824
2.12431
2.12054
2.11697
2.11334
2.10965
2.10596
2.10227
2.09859
2.0949
2.0912
2.08747
2.08372
2.07994
2.07616
2.07236
2.06854
2.06469
2.06083
2.05695
2.05304
2.0491
2.04516
2.04124
2.03734
2.03347
2.02964
2.02585
2.02212
2.01845
2.01484
2.01132
2.00787
2.00451
2.00125
1.99808
1.99501
1.99204
1.98919
1.98644
1.98379
1.98126
1.97882
1.97648
1.97423
1.97208
1.97
1.968
1.96607
1.96421
1.9624
1.96064
1.95892
1.95724
1.95558
1.95395
1.95233
1.95071
1.9491
1.94747
1.94583
1.94416
1.94247
1.94074
1.93895
1.93709
1.93509
1.93293
1.93058
1.92798
1.92508
1.92178
1.918
1.91359
1.90837
1.90213
1.89458
1.88541
1.87422
1.86052
1.84345
1.82183
1.79449
1.76043
1.7183
1.66639
1.59911
1.51437
1.41364
1.29299
1.14904
0.981081
0.791417
2.16384
2.16149
2.15652
2.15125
2.14673
2.14264
2.13857
2.13453
2.1306
2.12681
2.12312
2.11952
2.11598
2.11242
2.10883
2.10524
2.10165
2.09805
2.09442
2.09078
2.0871
2.08341
2.07969
2.07595
2.07218
2.06838
2.06454
2.0607
2.05692
2.05313
2.0493
2.04543
2.04158
2.03776
2.03396
2.0302
2.02648
2.02282
2.01921
2.01565
2.01216
2.00875
2.00543
2.00221
1.99907
1.99603
1.99308
1.99023
1.98749
1.98487
1.98235
1.97992
1.97757
1.97531
1.97313
1.97105
1.96904
1.9671
1.96523
1.96343
1.96168
1.95998
1.95832
1.95671
1.95514
1.95359
1.95207
1.95057
1.94908
1.94759
1.94612
1.94466
1.94319
1.94169
1.94015
1.93856
1.93687
1.93507
1.9331
1.93092
1.92846
1.92562
1.92229
1.9183
1.91346
1.90745
1.89998
1.89072
1.87928
1.86459
1.84513
1.81966
1.78751
1.74726
1.69584
1.62945
1.54536
1.44117
1.31277
1.15685
0.971992
0.761244
2.15627
2.15493
2.15181
2.14797
2.14424
2.14066
2.13705
2.13339
2.12975
2.12614
2.12257
2.11903
2.11552
2.11202
2.10849
2.10495
2.1014
2.09783
2.09423
2.09061
2.08697
2.08331
2.07962
2.07592
2.07219
2.06844
2.06467
2.0609
2.05715
2.05338
2.04958
2.04578
2.04199
2.03822
2.03448
2.03078
2.02711
2.0235
2.01994
2.01643
2.01299
2.00963
2.00635
2.00316
2.00004
1.99702
1.99408
1.99123
1.98847
1.98587
1.98337
1.98095
1.9786
1.97633
1.97415
1.97205
1.97003
1.96809
1.96622
1.96442
1.96268
1.96101
1.95939
1.95782
1.95631
1.95485
1.95342
1.95204
1.95069
1.94939
1.94813
1.94692
1.94574
1.94459
1.94346
1.94234
1.94119
1.94002
1.93878
1.93744
1.93595
1.93422
1.93218
1.92967
1.92657
1.9225
1.91713
1.91032
1.90148
1.8896
1.8736
1.85235
1.82454
1.78807
1.73992
1.67643
1.59343
1.48634
1.34965
1.17871
0.96907
0.726713
2.15056
2.14973
2.14759
2.14464
2.14148
2.13829
2.13503
2.13168
2.12829
2.12489
2.12148
2.11808
2.11468
2.11126
2.10782
2.10436
2.10087
2.09735
2.09381
2.09025
2.08666
2.08304
2.07941
2.07575
2.07207
2.06837
2.06466
2.06094
2.05721
2.05348
2.04974
2.046
2.04228
2.03857
2.03489
2.03124
2.02763
2.02407
2.02055
2.0171
2.01371
2.01039
2.00714
2.00398
2.00089
1.99789
1.99498
1.99216
1.98943
1.98682
1.98431
1.98187
1.97951
1.97724
1.97505
1.97296
1.97094
1.969
1.96714
1.96536
1.96364
1.962
1.96042
1.95891
1.95746
1.95608
1.95476
1.95351
1.95233
1.95121
1.95017
1.9492
1.94832
1.94753
1.94682
1.94617
1.94559
1.94507
1.94459
1.94414
1.9437
1.94319
1.94254
1.94166
1.94041
1.93857
1.93591
1.93213
1.92669
1.91885
1.90764
1.89179
1.86964
1.83889
1.7964
1.73798
1.65832
1.55106
1.40802
1.22156
0.97774
0.685784
2.14608
2.14547
2.14388
2.14157
2.13893
2.13614
2.13323
2.1302
2.12707
2.12387
2.12064
2.11738
2.11408
2.11075
2.10738
2.10398
2.10054
2.09708
2.09358
2.09005
2.0865
2.08292
2.07932
2.07569
2.07205
2.06838
2.0647
2.06101
2.05732
2.05363
2.04994
2.04625
2.04257
2.03891
2.03527
2.03167
2.0281
2.02458
2.02111
2.0177
2.01435
2.01106
2.00785
2.00471
2.00165
1.99868
1.99578
1.99298
1.99027
1.98765
1.98512
1.98268
1.98033
1.97806
1.97588
1.97378
1.97177
1.96984
1.96799
1.96622
1.96453
1.96291
1.96138
1.95992
1.95854
1.95724
1.95602
1.9549
1.95387
1.95294
1.95211
1.9514
1.95082
1.95037
1.95006
1.94989
1.94988
1.95003
1.95034
1.95081
1.95144
1.95219
1.95305
1.95394
1.95478
1.95544
1.95573
1.95536
1.95392
1.9508
1.94514
1.93572
1.92089
1.89827
1.86445
1.81452
1.74187
1.63771
1.49096
1.29102
1.01269
0.672039
2.14247
2.14199
2.14074
2.13888
2.13664
2.13419
2.13155
2.12876
2.12584
2.12283
2.11974
2.11659
2.11339
2.11014
2.10684
2.10351
2.10013
2.09671
2.09326
2.08978
2.08626
2.08272
2.07915
2.07556
2.07196
2.06833
2.06469
2.06104
2.05739
2.05373
2.05008
2.04643
2.04279
2.03918
2.03558
2.03202
2.0285
2.02502
2.02159
2.01821
2.01489
2.01163
2.00845
2.00533
2.0023
1.99934
1.99646
1.99367
1.99096
1.98835
1.98582
1.98339
1.98104
1.97877
1.97659
1.9745
1.97249
1.97057
1.96873
1.96698
1.96531
1.96373
1.96223
1.96083
1.95951
1.9583
1.95718
1.95618
1.95529
1.95454
1.95392
1.95345
1.95315
1.95304
1.95313
1.95343
1.95398
1.95478
1.95586
1.95725
1.95896
1.96101
1.96339
1.96611
1.96912
1.97238
1.97577
1.97912
1.98213
1.98437
1.98516
1.98348
1.97783
1.96594
1.94433
1.90753
1.8475
1.75113
1.60179
1.37535
1.04952
0.673153
2.13954
2.13915
2.13812
2.13656
2.13462
2.13243
2.13003
2.12746
2.12473
2.12187
2.11892
2.11589
2.11279
2.10962
2.1064
2.10312
2.0998
2.09643
2.09302
2.08958
2.0861
2.08259
2.07906
2.0755
2.07192
2.06833
2.06472
2.0611
2.05747
2.05385
2.05023
2.04662
2.04301
2.03943
2.03588
2.03235
2.02886
2.02541
2.02201
2.01866
2.01537
2.01214
2.00897
2.00588
2.00286
1.99992
1.99705
1.99427
1.99158
1.98897
1.98645
1.98401
1.98166
1.97939
1.97722
1.97513
1.97313
1.97121
1.96939
1.96765
1.966
1.96445
1.963
1.96164
1.96039
1.95925
1.95823
1.95733
1.95658
1.95599
1.95556
1.95532
1.95529
1.95549
1.95595
1.9567
1.95777
1.9592
1.96103
1.9633
1.96607
1.96937
1.97327
1.9778
1.983
1.9889
1.9955
2.00273
2.01048
2.01851
2.0264
2.03343
2.03849
2.03969
2.03405
2.01636
1.97848
1.90321
1.76793
1.50393
1.07293
0.326623
2.13718
2.13684
2.13596
2.13461
2.13289
2.13092
2.12871
2.12631
2.12373
2.12102
2.11819
2.11525
2.11224
2.10914
2.10598
2.10276
2.09948
2.09615
2.09278
2.08937
2.08593
2.08245
2.07894
2.07541
2.07186
2.06829
2.06471
2.06112
2.05752
2.05393
2.05034
2.04675
2.04318
2.03963
2.03611
2.03261
2.02915
2.02573
2.02235
2.01903
2.01576
2.01255
2.00941
2.00633
2.00333
2.0004
1.99754
1.99477
1.99208
1.98948
1.98696
1.98452
1.98217
1.97991
1.97774
1.97565
1.97366
1.97175
1.96994
1.96822
1.96659
1.96507
1.96365
1.96234
1.96114
1.96007
1.95913
1.95834
1.9577
1.95725
1.95699
1.95696
1.95717
1.95766
1.95846
1.95962
1.96117
1.96318
1.96569
1.96879
1.97254
1.97704
1.98237
1.98863
1.99594
2.00442
2.01415
2.02525
2.03777
2.05171
2.06696
2.08322
2.09989
2.11582
2.12902
2.13576
2.13011
2.09793
2.02139
1.80797
1.39431
-0.180031
0.654011
0.46167
0.267678
0.0798974
-0.0956005
-0.255107
-0.396366
-0.518249
-0.620425
-0.704025
-0.771262
-0.823501
-0.862329
-0.889165
-0.90606
-0.915374
-0.918594
-0.916721
-0.910623
-0.901028
-0.888499
-0.873484
-0.856376
-0.83755
-0.817413
-0.796375
-0.774848
-0.753232
-0.731878
-0.711065
-0.690981
-0.671725
0.627139
0.428331
0.230049
0.0409558
-0.133851
-0.291625
-0.430327
-0.549031
-0.648484
-0.729485
-0.792897
-0.840892
-0.875805
-0.900194
-0.915789
-0.923941
-0.92592
-0.923001
-0.916207
-0.906173
-0.893328
-0.878033
-0.86063
-0.841431
-0.82087
-0.799347
-0.777314
-0.755225
-0.733473
-0.712353
-0.692067
-0.672732
0.585061
0.371575
0.164517
-0.0274473
-0.202569
-0.358756
-0.493897
-0.607969
-0.701914
-0.77665
-0.834111
-0.87659
-0.906247
-0.925605
-0.93702
-0.941648
-0.940778
-0.935628
-0.92723
-0.91617
-0.902635
-0.88677
-0.868787
-0.84897
-0.827643
-0.8052
-0.782171
-0.759125
-0.736563
-0.714855
-0.694213
-0.674715
0.529831
0.291382
0.0685186
-0.129576
-0.306321
-0.45922
-0.587266
-0.692686
-0.777686
-0.843414
-0.892023
-0.92608
-0.9477
-0.960285
-0.965936
-0.96575
-0.96105
-0.952993
-0.942585
-0.930188
-0.915726
-0.899035
-0.880079
-0.85906
-0.83621
-0.812015
-0.787199
-0.762467
-0.738456
-0.715675
-0.694428
-0.674765
0.455817
0.181415
-0.0568822
-0.260438
-0.44154
-0.591808
-0.712319
-0.806559
-0.878456
-0.931166
-0.96798
-0.99056
-1.00003
-1.00145
-0.998637
-0.991663
-0.981706
-0.970035
-0.957406
-0.94371
-0.928469
-0.911205
-0.891601
-0.869517
-0.844975
-0.81866
-0.791709
-0.765041
-0.739495
-0.715486
-0.693227
-0.672949
0.333906
-4.09603e-05
-0.241758
-0.44338
-0.619271
-0.760465
-0.871598
-0.952948
-1.00594
-1.03933
-1.06042
-1.06928
-1.06785
-1.05807
-1.04359
-1.02738
-1.0107
-0.994452
-0.979023
-0.963699
-0.947312
-0.928843
-0.907702
-0.883698
-0.85658
-0.827543
-0.797744
-0.767729
-0.739619
-0.713873
-0.690374
-0.669482
0.162049
-0.278787
-0.533635
-0.733968
-0.882979
-0.98466
-1.0649
-1.12
-1.14975
-1.16036
-1.1573
-1.14262
-1.12228
-1.10162
-1.07714
-1.05235
-1.0298
-1.01065
-0.994295
-0.979212
-0.963644
-0.945887
-0.924699
-0.899226
-0.86948
-0.836861
-0.802433
-0.768645
-0.737401
-0.709208
-0.684371
-0.663112
-0.042059
-0.575927
-0.856786
-1.07168
-1.19226
-1.24745
-1.28183
-1.30432
-1.30811
-1.29474
-1.27104
-1.23788
-1.19673
-1.15536
-1.11645
-1.08135
-1.05172
-1.02869
-1.01102
-0.995884
-0.980149
-0.962281
-0.940944
-0.91403
-0.881303
-0.844323
-0.805522
-0.768127
-0.73343
-0.702402
-0.675841
-0.653869
-0.81847
-0.992197
-1.0899
-1.30045
-1.35476
-1.35553
-1.35636
-1.36073
-1.3531
-1.32663
-1.29135
-1.25338
-1.21265
-1.1692
-1.12725
-1.08944
-1.05798
-1.03449
-1.01856
-1.0065
-0.993139
-0.976157
-0.954213
-0.925776
-0.890428
-0.849663
-0.807617
-0.767083
-0.729937
-0.69718
-0.669469
-0.646968
-3.29258
-2.10354
-1.32892
-1.37313
-1.37412
-1.37274
-1.36799
-1.35934
-1.3437
-1.31894
-1.28655
-1.24898
-1.20884
-1.16739
-1.12761
-1.09132
-1.06037
-1.036
-1.0173
-1.00142
-0.985784
-0.968199
-0.946303
-0.918485
-0.884639
-0.844591
-0.803319
-0.763171
-0.726378
-0.693998
-0.666544
-0.644236
)
;

boundaryField
{
    inlet
    {
        type            zeroGradient;
    }
    outlet
    {
        type            fixedValue;
        value           nonuniform List<scalar> 0();
    }
    topWall
    {
        type            zeroGradient;
    }
    lowerWall
    {
        type            zeroGradient;
    }
    leadingEdge
    {
        type            zeroGradient;
    }
    trailingEdge
    {
        type            zeroGradient;
    }
    upperSurface
    {
        type            zeroGradient;
    }
    lowerSurface
    {
        type            zeroGradient;
    }
    frontAndBack
    {
        type            empty;
    }
    procBoundary0to1
    {
        type            processor;
        value           nonuniform List<scalar> 10(-0.653334 -0.654406 -0.656416 -0.65661 -0.654833 -0.65143 -0.645402 -0.636302 -0.629473 -0.626891);
    }
    procBoundary0to4
    {
        type            processor;
        value           nonuniform List<scalar> 
103
(
2.13177
2.13153
2.13153
2.1309
2.12992
2.12864
2.1271
2.12533
2.12332
2.12112
2.11874
2.11621
2.11354
2.11075
2.10785
2.10486
2.10179
2.09864
2.09543
2.09217
2.08885
2.08549
2.0821
2.07867
2.07521
2.07173
2.06823
2.06472
2.06119
2.05767
2.05414
2.05062
2.0471
2.0436
2.04012
2.03666
2.03323
2.02984
2.02648
2.02316
2.0199
2.01668
2.01352
2.01041
2.00737
2.0044
2.00149
1.99866
1.9959
1.99322
1.99061
1.98809
1.98565
1.98329
1.98102
1.97884
1.97675
1.97474
1.97284
1.97103
1.96932
1.96773
1.96624
1.96488
1.96364
1.96255
1.96161
1.96084
1.96027
1.95989
1.95975
1.95986
1.96028
1.96106
1.96224
1.96386
1.96602
1.96878
1.97225
1.97654
1.98181
1.9882
1.99593
2.00523
2.01639
2.02976
2.04575
2.06489
2.08777
2.11514
2.14789
2.18709
2.234
2.29005
2.35686
2.43604
2.52899
2.6363
2.75686
2.88624
3.01473
3.12481
3.19324
)
;
    }
}


// ************************************************************************* //
