/*--------------------------------*- C++ -*----------------------------------*\
| =========                 |                                                 |
| \\      /  F ield         | OpenFOAM: The Open Source CFD Toolbox           |
|  \\    /   O peration     | Version:  2206                                  |
|   \\  /    A nd           | Website:  www.openfoam.com                      |
|    \\/     M anipulation  |                                                 |
\*---------------------------------------------------------------------------*/
FoamFile
{
    version     2.0;
    format      ascii;
    arch        "LSB;label=32;scalar=64";
    class       volScalarField;
    location    "19.5999";
    object      p;
}
// * * * * * * * * * * * * * * * * * * * * * * * * * * * * * * * * * * * * * //

dimensions      [0 2 -2 0 0 0 0];

internalField   nonuniform List<scalar> 
4810
(
0.047604
0.0457375
0.0435811
0.0411251
0.0383574
0.0352642
0.031832
0.0280516
0.0239223
0.0194585
0.0146071
0.00914007
0.00337338
-0.00229817
-0.00796335
-0.013661
-0.0192431
-0.0245797
-0.0295481
-0.0340197
-0.0378715
-0.0409922
-0.0432864
-0.0446777
-0.0451153
-0.0446176
-0.0431919
-0.0408922
-0.0377919
-0.0339819
-0.0295715
-0.0246809
-0.0194352
-0.0139606
-0.00838153
-0.00281668
0.00262615
0.00796469
0.0133246
0.018136
0.0222573
0.0259464
0.0292066
0.0319926
0.034318
0.0362149
0.0377202
0.0388763
0.0397313
0.0403369
0.0407328
0.0409531
0.0410311
0.0409938
0.0408466
0.0405891
0.0402105
0.0396915
0.0390084
0.0381353
0.0370435
0.0357052
0.0340982
0.0321604
0.029734
0.0269296
0.0240619
0.0210895
0.0178959
0.014565
0.0111842
0.00783497
0.00460908
0.00159965
-0.00110497
-0.00342285
-0.00528008
-0.00666901
-0.0075374
-0.00789364
-0.00775469
-0.007149
-0.00611855
-0.00471631
-0.00300223
-0.00103959
0.00110702
0.00338039
0.00578246
0.00834508
0.0107959
0.0129265
0.0148393
0.0165685
0.0180768
0.0193517
0.0203944
0.0212126
0.0218216
0.0222417
0.0224956
0.0226065
0.0225958
0.0224795
0.0222725
0.0219739
0.0215975
0.0211362
0.0205767
0.0199047
0.0190986
0.0181323
0.0169806
0.0156256
0.0140529
0.0122525
0.0102297
0.00782419
0.00494411
0.00243872
-0.000377789
-0.00337618
-0.00636848
-0.00930881
-0.0121194
-0.0147071
-0.0169828
-0.0188595
-0.0202525
-0.0210854
-0.0212862
-0.020833
-0.0196725
-0.017784
-0.0151912
-0.0117688
-0.00762363
-0.00283675
0.0557896
0.0537145
0.0512786
0.0484731
0.0452877
0.0417115
0.0377356
0.0333566
0.02858
0.023419
0.0178066
0.0115756
0.00509834
-0.00128888
-0.00769192
-0.0140977
-0.0203457
-0.0262963
-0.0318131
-0.0367559
-0.0409915
-0.0443998
-0.0468797
-0.048352
-0.0487662
-0.0481485
-0.0465152
-0.0439295
-0.0404749
-0.036255
-0.0313914
-0.0260155
-0.0202645
-0.0142729
-0.00817143
-0.00208486
0.00390856
0.00987138
0.0156662
0.0208229
0.0253769
0.0294782
0.0330952
0.0362058
0.038822
0.04097
0.0426848
0.0440091
0.0449897
0.0456751
0.0461084
0.0463273
0.0463617
0.046239
0.0459702
0.0455572
0.0449933
0.0442635
0.0433464
0.0422189
0.0408556
0.039232
0.0373225
0.0350539
0.0323036
0.0292507
0.0261332
0.0228715
0.0194043
0.0158198
0.0122033
0.00863886
0.00521972
0.00203976
-0.000811568
-0.00325097
-0.00520428
-0.00666596
-0.00758796
-0.00797786
-0.00785188
-0.00723885
-0.0061818
-0.00473284
-0.00295031
-0.000895266
0.00136975
0.00380113
0.00641613
0.0091507
0.0116907
0.0139779
0.0161122
0.018065
0.0198008
0.0213068
0.0225793
0.0236213
0.0244436
0.0250613
0.0254926
0.0257565
0.0258701
0.0258456
0.0256959
0.0254183
0.0250256
0.024511
0.023862
0.0230627
0.0220954
0.0209388
0.0195709
0.0179745
0.016139
0.0140726
0.0117597
0.00892204
0.00582077
0.00285456
-0.000270534
-0.00354188
-0.00681977
-0.0100264
-0.0130764
-0.0158733
-0.0183226
-0.0203324
-0.0218147
-0.0226882
-0.0228792
-0.0223601
-0.0211007
-0.0190393
-0.0162587
-0.012584
-0.00812165
-0.00302538
0.0630973
0.0608495
0.0581848
0.0550933
0.0515651
0.0475918
0.0431676
0.0382923
0.0329753
0.0272253
0.0209711
0.0141159
0.00706032
7.73219e-05
-0.0069424
-0.0139377
-0.0207383
-0.0271953
-0.0331602
-0.0384825
-0.0430202
-0.0466455
-0.0492514
-0.0507576
-0.0511287
-0.0503771
-0.0485386
-0.0456849
-0.0419092
-0.0373261
-0.0320684
-0.0262772
-0.0200973
-0.0136714
-0.00713433
-0.000601927
0.00588361
0.0123263
0.0183904
0.0238176
0.0287167
0.0331295
0.0370186
0.040374
0.0432067
0.0455399
0.0474079
0.0488528
0.0499211
0.0506598
0.0511131
0.0513196
0.0513103
0.0511119
0.0507394
0.0501969
0.0494796
0.0485757
0.0474672
0.046132
0.0445466
0.042689
0.040529
0.0379876
0.034988
0.0317533
0.0284424
0.0249506
0.0212683
0.0174848
0.0136822
0.00994657
0.00637174
0.00305175
7.59679e-05
-0.00247199
-0.00452283
-0.00606312
-0.00705564
-0.00750411
-0.00742358
-0.00684271
-0.00580398
-0.00435767
-0.00255982
-0.000470063
0.00185509
0.00439433
0.00715013
0.00993008
0.0125058
0.0149244
0.0172169
0.0193337
0.0212445
0.0229338
0.0243933
0.0256225
0.0266277
0.0274196
0.028012
0.0284194
0.0286556
0.0287278
0.0286488
0.028414
0.0280331
0.0275003
0.026803
0.0259258
0.0248516
0.023562
0.0220379
0.0202641
0.0182332
0.0159527
0.0133499
0.0101948
0.00691939
0.0037044
0.000325706
-0.00317751
-0.00668213
-0.0101015
-0.0133452
-0.016314
-0.0189096
-0.0210367
-0.0226045
-0.0235294
-0.0237375
-0.0231932
-0.0218895
-0.0197316
-0.0168452
-0.0130379
-0.00838761
-0.00312775
0.0694823
0.0670946
0.064248
0.060932
0.0571352
0.0528498
0.048072
0.0428033
0.0370544
0.0308294
0.0240635
0.0167311
0.00923241
0.00178028
-0.00572446
-0.0131793
-0.0204071
-0.0272509
-0.0335522
-0.0391518
-0.0439005
-0.0476657
-0.0503357
-0.0518266
-0.0521305
-0.0512369
-0.049201
-0.0461043
-0.0420484
-0.037158
-0.0315735
-0.0254448
-0.0189223
-0.0121519
-0.00526752
0.00162877
0.0085024
0.0152374
0.0214601
0.0270906
0.0322332
0.036858
0.0409321
0.044451
0.0474247
0.0498763
0.0518397
0.053357
0.0544743
0.0552386
0.0556941
0.0558801
0.0558295
0.0555655
0.0551069
0.05446
0.0536215
0.0525811
0.0513229
0.0498264
0.0480696
0.0460301
0.0436747
0.040926
0.0377556
0.0344043
0.0309545
0.0272935
0.0234558
0.019528
0.0155895
0.011727
0.0080337
0.00460275
0.00152432
-0.00111673
-0.00327699
-0.00490528
-0.00598677
-0.00652252
-0.00652504
-0.00602163
-0.00505192
-0.00366328
-0.00190788
0.00015934
0.00249427
0.00508931
0.00788424
0.0106122
0.0131884
0.0156889
0.0180762
0.0203015
0.0223371
0.0241637
0.0257696
0.0271509
0.0283099
0.0292536
0.0299917
0.0305347
0.0308927
0.0310692
0.0310755
0.0309064
0.0305683
0.0300544
0.0293525
0.0284484
0.0273249
0.025964
0.0243491
0.0224666
0.0203109
0.0178728
0.0150326
0.0117249
0.00835416
0.0049645
0.00139979
-0.00226784
-0.00593189
-0.00950454
-0.0128908
-0.0159898
-0.0187014
-0.0209277
-0.0225758
-0.023559
-0.0238188
-0.0232914
-0.0220021
-0.0198287
-0.0169259
-0.0131086
-0.00840718
-0.00314113
0.0749378
0.0724395
0.0694535
0.0659688
0.0619725
0.0574554
0.052414
0.0468512
0.0407768
0.0341912
0.027049
0.0193891
0.0115802
0.00378433
-0.00406919
-0.0118483
-0.0193727
-0.0264781
-0.032998
-0.038767
-0.0436311
-0.0474543
-0.0501239
-0.0515568
-0.0517615
-0.0507229
-0.0485046
-0.0451959
-0.0409062
-0.0357682
-0.0299298
-0.0235452
-0.0167677
-0.00974422
-0.00260482
0.00456294
0.0116899
0.018533
0.0248274
0.0305974
0.0358766
0.0406156
0.044789
0.0483927
0.0514363
0.0539429
0.0559468
0.0574904
0.0586202
0.0593832
0.0598238
0.0599812
0.0598913
0.059572
0.059045
0.0583183
0.0573899
0.0562501
0.054884
0.0532726
0.0513943
0.0492259
0.0467283
0.0438365
0.0405854
0.0371781
0.0336298
0.0298607
0.0259271
0.0219089
0.0178826
0.0139341
0.0101553
0.0066384
0.00347274
0.000747123
-0.00152148
-0.00325521
-0.00444991
-0.00510535
-0.0052311
-0.00485149
-0.00400147
-0.00272322
-0.0010648
0.00092415
0.00321597
0.00579566
0.00849802
0.0111177
0.0136825
0.0162057
0.0186282
0.0209089
0.0230194
0.0249384
0.0266519
0.0281526
0.0294393
0.030515
0.0313859
0.032059
0.0325408
0.0328313
0.0329407
0.0328627
0.0326008
0.0321467
0.0314879
0.0306102
0.0294967
0.0281299
0.0264929
0.0245722
0.0223618
0.0198274
0.0168394
0.0135049
0.0101176
0.00662633
0.00295762
-0.000801012
-0.00455693
-0.00822148
-0.0116974
-0.0148837
-0.0176794
-0.0199861
-0.02171
-0.0227605
-0.0231018
-0.0226394
-0.0214256
-0.0193224
-0.0164959
-0.0127909
-0.00817758
-0.00306675
0.0794912
0.0769051
0.0738161
0.0702108
0.0660756
0.0613994
0.0561771
0.0504117
0.0441119
0.0372774
0.0298906
0.0220445
0.01405
0.00602995
-0.00203826
-0.0100072
-0.0176962
-0.0249356
-0.0315538
-0.0373823
-0.042265
-0.0460657
-0.048672
-0.0500059
-0.0500826
-0.0488947
-0.0465088
-0.0430207
-0.0385475
-0.0332276
-0.0272125
-0.0206573
-0.0137163
-0.00653468
0.000764796
0.00809127
0.0153099
0.0221362
0.0284423
0.0342728
0.0395971
0.0443659
0.0485585
0.0521717
0.0552162
0.0577169
0.0597096
0.0612372
0.0623464
0.0630841
0.0634948
0.0636172
0.0634907
0.0631262
0.0625479
0.0617651
0.0607761
0.059572
0.0581381
0.0564554
0.0545028
0.052256
0.0496717
0.046705
0.043447
0.0400363
0.0364368
0.032616
0.028638
0.0245754
0.0205041
0.0165082
0.0126757
0.00909465
0.00585297
0.00303602
0.00066524
-0.00119291
-0.00252929
-0.00334018
-0.00363225
-0.003425
-0.00274703
-0.00163438
-0.000129894
0.00172796
0.00392553
0.00639791
0.00891558
0.0114032
0.0139128
0.0163981
0.0188044
0.021095
0.0232399
0.0252149
0.0270031
0.0285949
0.0299862
0.0311773
0.0321711
0.0329718
0.0335827
0.0340001
0.0342328
0.0342741
0.0341235
0.0337716
0.0332049
0.0324082
0.0313645
0.0300554
0.0284636
0.0265755
0.024378
0.0218095
0.0187881
0.0155359
0.0122006
0.00868469
0.00499502
0.00121863
-0.00256105
-0.00625531
-0.00976761
-0.0129983
-0.0158476
-0.0182174
-0.0200148
-0.0211469
-0.0215906
-0.0212436
-0.0201651
-0.0182199
-0.01556
-0.0120898
-0.00770271
-0.00290593
0.0832039
0.0805467
0.0773829
0.0736957
0.06947
0.0646938
0.0593605
0.0534719
0.0470369
0.0400594
0.0325511
0.0246376
0.0165699
0.00844517
0.000287716
-0.00774645
-0.0154792
-0.0227361
-0.0293408
-0.0351242
-0.0399311
-0.0436274
-0.0461063
-0.0473093
-0.0472345
-0.0458946
-0.0433589
-0.039727
-0.0351205
-0.0296812
-0.0235608
-0.016914
-0.00989318
-0.0026395
0.00472736
0.0120908
0.0192551
0.0259898
0.0322543
0.038056
0.0433376
0.0480579
0.0521988
0.0557577
0.0587466
0.0611919
0.0631307
0.0646067
0.0656677
0.066361
0.0667306
0.0668145
0.066653
0.0662524
0.0656382
0.0648209
0.0637984
0.0625617
0.0610961
0.0593826
0.0574
0.05512
0.0524993
0.0495267
0.0463228
0.0429439
0.0393358
0.0355142
0.0315398
0.0274763
0.0233964
0.0193816
0.0155168
0.0118883
0.00858414
0.00566005
0.00318019
0.00117821
-0.000328794
-0.00133184
-0.0018334
-0.00184596
-0.00139009
-0.000495109
0.000803548
0.00248441
0.00452625
0.00677224
0.00905609
0.0114023
0.0138062
0.0162065
0.0185564
0.0208187
0.0229614
0.0249592
0.0267943
0.0284548
0.0299343
0.0312301
0.0323419
0.0332703
0.0340158
0.0345831
0.034961
0.0351508
0.0351479
0.0349407
0.0345147
0.0338532
0.0329377
0.0317487
0.0302677
0.0284796
0.0263581
0.0238317
0.0209125
0.0178255
0.0145916
0.0111325
0.0075014
0.00377685
3.65643e-05
-0.00363125
-0.00713147
-0.0103669
-0.0132402
-0.0156557
-0.0175228
-0.0187536
-0.0193239
-0.0191408
-0.0182576
-0.0165549
-0.0141547
-0.0110332
-0.00700241
-0.00266662
0.0861612
0.0834358
0.0802132
0.0764723
0.0721946
0.0673659
0.0619783
0.0560327
0.0495385
0.0425098
0.0349814
0.0270908
0.0190387
0.010911
0.00277276
-0.00521279
-0.0128705
-0.0200283
-0.0265119
-0.0321535
-0.0368013
-0.040325
-0.0426233
-0.0436682
-0.0434211
-0.0419231
-0.0392497
-0.0355025
-0.0308056
-0.0253005
-0.0191378
-0.0124697
-0.00544553
0.001797
0.00913204
0.0164119
0.0234178
0.0300093
0.0361751
0.0418742
0.0470478
0.0516598
0.0556929
0.0591449
0.0620294
0.0643755
0.0662229
0.0676173
0.0686068
0.0692389
0.0695584
0.0696064
0.0694115
0.0689839
0.0683485
0.0675152
0.066482
0.0652399
0.0637736
0.0620639
0.0600877
0.0578129
0.0552069
0.0523027
0.0491938
0.0458684
0.0422964
0.0385157
0.0345796
0.0305473
0.026488
0.0224779
0.0185969
0.0149282
0.0115637
0.00853076
0.00591885
0.00374909
0.00204125
0.000808176
5.34153e-05
-0.000225851
-4.04775e-05
0.000587621
0.00163515
0.00309443
0.00489252
0.00683362
0.00887382
0.0110454
0.013297
0.0155732
0.0178316
0.020034
0.0221477
0.0241465
0.0260106
0.027726
0.0292839
0.0306794
0.0319096
0.0329724
0.0338652
0.0346014
0.0351531
0.0355239
0.0357066
0.0356875
0.0354504
0.0349765
0.0342455
0.033236
0.0319286
0.0303038
0.0283188
0.0259221
0.0232259
0.0203614
0.0172731
0.013946
0.0104449
0.00683859
0.00320163
-0.00038254
-0.003824
-0.00702883
-0.00990298
-0.0123528
-0.0142886
-0.0156426
-0.0163673
-0.0163929
-0.0157614
-0.0143773
-0.0123278
-0.00965325
-0.00609665
-0.00235634
0.088478
0.0856782
0.0823969
0.0786104
0.0742977
0.0694422
0.0640354
0.0580787
0.0515848
0.0445796
0.0371135
0.0293158
0.0213516
0.0133101
0.0052849
-0.00256112
-0.0100558
-0.0170265
-0.0233012
-0.0287177
-0.0331313
-0.0364201
-0.0384914
-0.039331
-0.0388937
-0.0372334
-0.0344303
-0.030588
-0.0258319
-0.0203021
-0.0141463
-0.00751339
-0.000549476
0.00660812
0.0138222
0.0209189
0.0277098
0.0341251
0.0401348
0.0456718
0.0506832
0.0551361
0.0590137
0.0623148
0.0650536
0.0672661
0.0689995
0.0702985
0.0712097
0.071779
0.0720488
0.0720594
0.0718322
0.0713848
0.0707387
0.0699032
0.0688769
0.06765
0.0662072
0.0645287
0.0625887
0.0603545
0.0578161
0.055036
0.052038
0.048785
0.0452866
0.0415803
0.0377112
0.0337341
0.0297135
0.0257207
0.0218314
0.0181266
0.0146743
0.0115371
0.00877179
0.00640747
0.00446737
0.00296632
0.00191546
0.00132455
0.00119396
0.00151114
0.00227058
0.0034555
0.00491062
0.00651695
0.00830894
0.0102662
0.0123299
0.0144532
0.0165941
0.0187141
0.0207801
0.0227647
0.0246467
0.0264102
0.0280446
0.0295425
0.0308982
0.0321089
0.0331783
0.0340979
0.0348518
0.0354367
0.0358421
0.0360523
0.0360491
0.0358115
0.0353167
0.0345416
0.0334651
0.0320586
0.0302729
0.0281177
0.0257312
0.0231247
0.0202415
0.0171165
0.0138069
0.0103734
0.00688736
0.00342839
8.16635e-05
-0.00306411
-0.00592015
-0.00839669
-0.010404
-0.0118933
-0.0128037
-0.0130819
-0.0127562
-0.0117583
-0.0101441
-0.00799998
-0.00501854
-0.0019878
0.0902731
0.0873991
0.0840507
0.0802143
0.0758692
0.0709961
0.0655858
0.0596422
0.0531834
0.0462443
0.0388839
0.0312165
0.0233842
0.0154899
0.0076447
8.50467e-06
-0.00724997
-0.0139604
-0.0199549
-0.0250779
-0.0291948
-0.0321951
-0.0340143
-0.0346012
-0.0339498
-0.0321139
-0.0291777
-0.0252473
-0.0204482
-0.0149187
-0.00880263
-0.00224597
0.00460785
0.0116206
0.0186425
0.0254903
0.0320447
0.0382594
0.0440667
0.0493997
0.054211
0.0584697
0.06216
0.065282
0.0678551
0.0699124
0.071507
0.0726924
0.0735149
0.0740205
0.0742482
0.0742268
0.0739771
0.07352
0.0728739
0.0720486
0.0710438
0.0698502
0.0684517
0.0668259
0.0649442
0.0627855
0.0603765
0.0577387
0.0548448
0.0516869
0.0482865
0.044673
0.0408863
0.0369767
0.0330029
0.0290305
0.0251311
0.0213854
0.0178361
0.0145705
0.0116274
0.00904177
0.00683845
0.00503302
0.00364468
0.00269918
0.0022107
0.00218072
0.00261872
0.00344987
0.00450472
0.00578019
0.00729835
0.00900782
0.0108583
0.012807
0.0148124
0.016836
0.0188444
0.0208093
0.0227076
0.0245219
0.0262393
0.0278502
0.0293454
0.0307302
0.0319983
0.0331299
0.0341174
0.0349514
0.0356175
0.0360976
0.0363708
0.0364137
0.0362015
0.0357101
0.0349139
0.0337732
0.032261
0.0304582
0.0284192
0.0260916
0.0234743
0.0206089
0.0175418
0.0143291
0.0110369
0.0077392
0.00451538
0.00144845
-0.00137786
-0.0038773
-0.00597576
-0.00760995
-0.00873627
-0.00930696
-0.00933573
-0.0087831
-0.00767423
-0.00613132
-0.00380655
-0.00157401
0.0916744
0.0887022
0.0852759
0.0813813
0.0769932
0.0720924
0.0666727
0.060743
0.0543266
0.0474638
0.0402188
0.0326902
0.0250076
0.0172924
0.00966635
0.00228303
-0.00469287
-0.0110936
-0.0167553
-0.0215303
-0.0253031
-0.0279847
-0.029505
-0.0298055
-0.0289069
-0.0268691
-0.0237818
-0.0197541
-0.0149108
-0.00938831
-0.00332687
0.00313063
0.00984426
0.0166712
0.0234461
0.0300322
0.0363552
0.0423424
0.0479171
0.0530196
0.0576062
0.061649
0.0651338
0.0680576
0.0704474
0.0723509
0.0738113
0.0748757
0.0755962
0.0760249
0.0762054
0.0761633
0.0759102
0.0754583
0.0748233
0.0740189
0.0730471
0.0718987
0.0705548
0.0689918
0.0671937
0.0651643
0.0629046
0.0603874
0.0576027
0.0545582
0.0512683
0.047757
0.0440595
0.0402205
0.0362926
0.0323359
0.0284208
0.0246048
0.0209555
0.0175328
0.0143846
0.0115495
0.00905258
0.00690898
0.00514218
0.0037976
0.00291247
0.00250745
0.00258347
0.00298313
0.00362578
0.00456764
0.00578359
0.00722232
0.00884243
0.0106028
0.0124627
0.0143844
0.016334
0.0182822
0.0202043
0.02208
0.023893
0.0256383
0.027307
0.0288917
0.0303807
0.0317585
0.0330148
0.034135
0.0351007
0.0358906
0.0364811
0.0368463
0.0369604
0.0367973
0.0363216
0.0354983
0.0343618
0.0329674
0.0312785
0.0292705
0.0269683
0.0244034
0.0216156
0.0186563
0.0155858
0.0124718
0.00938739
0.00640914
0.00361561
0.0010936
-0.00111095
-0.00291192
-0.00428285
-0.00518048
-0.00560452
-0.00554455
-0.00499585
-0.00410997
-0.00250223
-0.00113162
0.0928351
0.0897265
0.0861952
0.0822094
0.0777445
0.072785
0.0673281
0.0613879
0.0549893
0.0481767
0.041023
0.0336214
0.0260849
0.0185487
0.0111508
0.00403435
-0.00263981
-0.0087025
-0.0139952
-0.0183891
-0.0217853
-0.0241095
-0.0252778
-0.0252529
-0.0240664
-0.0217894
-0.0185193
-0.0143684
-0.00946188
-0.00393346
0.00207854
0.0084357
0.0149956
0.0216048
0.0281308
0.0344824
0.0405726
0.0463166
0.0516454
0.0565048
0.0608556
0.0646731
0.0679364
0.0706554
0.0728687
0.0746203
0.0759484
0.0768991
0.0775242
0.0778778
0.0780109
0.0779554
0.0777151
0.0772832
0.0766676
0.0758867
0.0749481
0.0738483
0.0725693
0.0711001
0.0694278
0.0675306
0.0653865
0.062984
0.0603189
0.0573925
0.0542145
0.0508048
0.047193
0.0434178
0.0395258
0.0355733
0.0316237
0.0277252
0.0239438
0.0203365
0.0169567
0.0138436
0.0110253
0.00852248
0.00634543
0.00455125
0.00323425
0.00243171
0.00207839
0.00200443
0.00224393
0.00282947
0.00371806
0.00486945
0.00624717
0.00781165
0.00952362
0.011346
0.0132447
0.0151888
0.0171507
0.0191081
0.0210491
0.0229582
0.0248316
0.0266469
0.0283914
0.0300536
0.0316176
0.0330633
0.0343676
0.0355054
0.0364499
0.0371747
0.0376527
0.0378502
0.0377313
0.0373082
0.0366162
0.0356257
0.0343015
0.0326536
0.0306993
0.0284626
0.0259791
0.0232943
0.0204621
0.0175435
0.0146051
0.0117169
0.00895254
0.00639138
0.00407518
0.00208192
0.00044055
-0.000815047
-0.0016696
-0.00213768
-0.00218785
-0.00199583
-0.00114456
-0.00068148
0.0939121
0.0906202
0.0869201
0.0827864
0.078196
0.0731329
0.0675932
0.0615871
0.0551398
0.0483104
0.0411883
0.0338679
0.0264565
0.019087
0.0119027
0.00504716
-0.00133058
-0.00705989
-0.0119683
-0.0159471
-0.018939
-0.0208605
-0.0216325
-0.0212353
-0.0197134
-0.0171445
-0.0136379
-0.00931691
-0.00430784
0.00125721
0.00724279
0.0135078
0.0199101
0.0263265
0.0326532
0.038789
0.0446437
0.0501417
0.0552211
0.0598344
0.063949
0.0675343
0.0705766
0.0731012
0.0751542
0.0767672
0.0779781
0.0788312
0.0793745
0.0796604
0.0797451
0.0796753
0.0794591
0.079063
0.0784712
0.0777094
0.0768151
0.0757838
0.0745944
0.0732277
0.0716576
0.0698643
0.0678315
0.0655454
0.0629967
0.0601828
0.05711
0.0537929
0.050255
0.0465284
0.0426546
0.038692
0.0346815
0.0306787
0.0267365
0.0229143
0.0192675
0.0158368
0.0126642
0.00979886
0.00717807
0.00484891
0.00308564
0.00188421
0.00103732
0.000483858
0.000315637
0.00052262
0.00106724
0.00191998
0.00304779
0.00441386
0.00598114
0.00771347
0.00957622
0.0115368
0.0135655
0.0156398
0.0177409
0.0198575
0.0219667
0.02405
0.026094
0.0280832
0.0299975
0.0318111
0.033494
0.0350159
0.0363495
0.0374673
0.0383356
0.0389212
0.0392306
0.0392762
0.0390221
0.0384313
0.0375018
0.036238
0.0346492
0.0327558
0.030588
0.0281852
0.0255948
0.0228714
0.0200746
0.0172687
0.0145262
0.0119017
0.00946175
0.00725263
0.00531559
0.00367682
0.00236631
0.00135025
0.000680313
0.00016001
0.00024004
-0.000227835
0.0950312
0.0915058
0.0875808
0.0832337
0.0784421
0.0731912
0.0674789
0.0613201
0.054747
0.0478148
0.0406341
0.0333203
0.0259675
0.0187088
0.0116949
0.00507426
-0.00101064
-0.0064035
-0.0109318
-0.0144816
-0.017024
-0.0184975
-0.0188135
-0.0179815
-0.0160701
-0.0131537
-0.00934059
-0.00479309
0.000362747
0.00600529
0.0119978
0.0182072
0.0245109
0.0307951
0.0369537
0.0428923
0.0485291
0.0537958
0.0586371
0.0630134
0.0668972
0.070251
0.0730826
0.075438
0.0773464
0.0788379
0.0799507
0.080727
0.0812101
0.081446
0.0814884
0.0813997
0.081209
0.0808641
0.0803041
0.0795746
0.0787384
0.0777746
0.0766577
0.0753701
0.0738899
0.0721952
0.0702657
0.0680846
0.0656397
0.0629255
0.0599435
0.0567028
0.0532203
0.0495206
0.0456488
0.0416469
0.0375555
0.0334165
0.0292854
0.0252202
0.0212783
0.0175031
0.013929
0.0107085
0.00766285
0.00468146
0.00239748
0.000822733
-0.000570044
-0.00161306
-0.00221435
-0.00240951
-0.0022229
-0.00167592
-0.000798401
0.000375965
0.00181212
0.0034745
0.00532765
0.00733642
0.00946859
0.0117004
0.0140111
0.0163749
0.018767
0.0211674
0.0235581
0.0259203
0.0282298
0.0304546
0.0325557
0.034497
0.0362499
0.0377814
0.039064
0.0401078
0.0409041
0.0414053
0.0415762
0.0414058
0.0408865
0.040015
0.0387977
0.0372505
0.0353977
0.0332728
0.0309168
0.0283779
0.0257093
0.0229712
0.0202279
0.0175278
0.0149354
0.012487
0.0102289
0.00818335
0.00639381
0.00481546
0.00353237
0.00227887
0.00156652
0.000173344
0.0963076
0.0924918
0.0882719
0.0836293
0.0785441
0.0730048
0.0670139
0.0605923
0.0537797
0.0466355
0.039287
0.0318704
0.0244812
0.0172491
0.0103353
0.00389678
-0.00192478
-0.00698258
-0.0111101
-0.0141987
-0.0162567
-0.0172528
-0.0170432
-0.0156827
-0.0133688
-0.00998958
-0.0057707
-0.000946528
0.00443297
0.010241
0.0163262
0.0225634
0.028835
0.035031
0.0410546
0.0468204
0.0522559
0.0573024
0.0619161
0.0660657
0.0697136
0.072851
0.0755073
0.0777165
0.0795023
0.0808956
0.081933
0.0826538
0.0830981
0.0833055
0.0833203
0.0832067
0.0830277
0.0827457
0.0822306
0.081539
0.080747
0.0798361
0.0787813
0.0775637
0.0761604
0.0745478
0.0727041
0.0706104
0.0682519
0.065619
0.0627084
0.0595236
0.0560738
0.052378
0.0484853
0.0444222
0.0402173
0.0359154
0.0315704
0.0272363
0.0229718
0.018834
0.0148658
0.0111179
0.00757688
0.00419625
0.00139543
-0.000775691
-0.0027227
-0.00426309
-0.00533044
-0.00595265
-0.00614255
-0.00591449
-0.00529277
-0.00430664
-0.00298871
-0.00137388
0.000500268
0.00259395
0.00487618
0.00731716
0.00988692
0.0125515
0.0152819
0.0180534
0.0208437
0.0236294
0.0263817
0.0290632
0.0316233
0.0340155
0.0362071
0.0381794
0.0399495
0.0414963
0.0427594
0.0437055
0.0443162
0.0445736
0.0444639
0.0439817
0.0431296
0.0419185
0.0403678
0.0385049
0.0363651
0.0339898
0.031426
0.0287374
0.0259647
0.0231705
0.0203984
0.0176922
0.0150964
0.012628
0.0103464
0.00822353
0.00639351
0.00447713
0.00287584
0.000493865
0.0978572
0.0936856
0.0890895
0.0840556
0.0785686
0.0726216
0.0662242
0.0594057
0.052215
0.0447201
0.037067
0.0294161
0.0218668
0.014552
0.00764875
0.00132383
-0.00427869
-0.00901559
-0.0127306
-0.0153218
-0.0168682
-0.0174078
-0.0163227
-0.0143348
-0.0118975
-0.00788777
-0.002996
0.00219252
0.00789015
0.0139545
0.0202076
0.026535
0.0328257
0.0389762
0.0448979
0.050517
0.0557732
0.0606201
0.0650269
0.0689587
0.0723935
0.0753528
0.0778691
0.079961
0.081653
0.0829758
0.0839636
0.0846533
0.0850825
0.0852852
0.0852933
0.0851541
0.0849599
0.0847348
0.0842837
0.0836283
0.0828721
0.0820044
0.0809966
0.0798304
0.0784837
0.0769325
0.0751537
0.0731264
0.070833
0.0682599
0.0653992
0.0622485
0.0588095
0.0551006
0.0511604
0.047013
0.0426734
0.0381854
0.0335984
0.0289643
0.0243425
0.0197971
0.0153849
0.0111479
0.00707731
0.00317929
-0.00011936
-0.00295676
-0.00545315
-0.00750451
-0.00906513
-0.0101365
-0.0107186
-0.0108178
-0.0104514
-0.00964337
-0.00842394
-0.00682836
-0.00489928
-0.00267348
-0.000189982
0.00251565
0.00540168
0.00842842
0.0115598
0.0147639
0.0180131
0.0212792
0.0245255
0.027703
0.0307526
0.0336206
0.0362819
0.0387689
0.0410621
0.04309
0.0448163
0.0462176
0.0472682
0.0479461
0.0482363
0.0481304
0.0476272
0.0467333
0.045463
0.0438386
0.0418896
0.0396511
0.0371666
0.0344892
0.0316665
0.0287411
0.0257608
0.0227725
0.0198174
0.0169123
0.0141147
0.0113982
0.00903301
0.00657006
0.00391406
0.000609465
0.0997503
0.0951552
0.0900968
0.0845677
0.0785583
0.0720686
0.0651174
0.0577466
0.0500176
0.0420121
0.0339025
0.0258689
0.0180119
0.010486
0.00348851
-0.00281173
-0.00825065
-0.012671
-0.0159497
-0.018008
-0.0189314
-0.0188136
-0.017082
-0.0146359
-0.0113445
-0.00648895
-0.00113629
0.00456703
0.0107179
0.0171269
0.0236292
0.0301149
0.0364775
0.0426232
0.0484764
0.053976
0.059077
0.0637495
0.067964
0.071694
0.0749585
0.0777881
0.0801973
0.0822069
0.0838411
0.085126
0.0860919
0.0867724
0.0872023
0.0874148
0.087437
0.0872948
0.0870669
0.0868583
0.0864822
0.0858529
0.0851162
0.0842779
0.0833018
0.0821701
0.0808621
0.0793533
0.0776198
0.0756387
0.0733899
0.0708571
0.0680281
0.064894
0.0614495
0.0577069
0.0537007
0.0494455
0.0449486
0.0402501
0.0353925
0.0304263
0.0254143
0.0204251
0.015515
0.0107391
0.00613326
0.00174367
-0.00217482
-0.00571641
-0.00881354
-0.0114246
-0.0135105
-0.0150496
-0.0160311
-0.0164541
-0.0163283
-0.0156735
-0.0145189
-0.0129052
-0.0108693
-0.00845816
-0.00571399
-0.00268387
0.000582636
0.00403652
0.00763232
0.0113304
0.0150978
0.0189074
0.0227154
0.0264404
0.0300099
0.0333851
0.0365898
0.0396288
0.0424254
0.0449338
0.0471279
0.0489774
0.0504542
0.0515361
0.0522061
0.0524529
0.0522722
0.0516666
0.0506463
0.0492286
0.0474369
0.0453014
0.0428697
0.0401748
0.0372659
0.0341773
0.0309601
0.0276606
0.0243148
0.0209564
0.0177305
0.0145009
0.0113349
0.00815422
0.00528161
0.00108797
0.102085
0.0969872
0.0913713
0.085233
0.0785682
0.0713848
0.0637135
0.0556121
0.047161
0.0384623
0.0297139
0.0211159
0.0127846
0.00490486
-0.00231228
-0.00870574
-0.0140697
-0.0181985
-0.0210044
-0.0224394
-0.0225941
-0.0217189
-0.0195496
-0.0160954
-0.0115656
-0.00615026
-0.000171749
0.00623634
0.0129439
0.0197809
0.0266068
0.0333091
0.0397888
0.0459655
0.0517802
0.0571912
0.0621786
0.066701
0.0707423
0.0743377
0.0775016
0.0802443
0.0825838
0.0845419
0.0861425
0.0874098
0.0883716
0.0890585
0.0895026
0.0897342
0.089776
0.0896351
0.0893484
0.0891286
0.0888163
0.0882149
0.0874898
0.0866662
0.0857066
0.0845923
0.0833044
0.0818188
0.0801113
0.0781584
0.0759375
0.0734282
0.070613
0.0674787
0.0640151
0.0602288
0.0561363
0.0517492
0.047071
0.0421364
0.0369839
0.0316594
0.0262322
0.020768
0.0153196
0.00996442
0.00481588
-5.37437e-05
-0.00480496
-0.00903151
-0.0127603
-0.0159768
-0.0186195
-0.0206479
-0.0220402
-0.0227866
-0.0228902
-0.0223665
-0.0212488
-0.0195726
-0.0173851
-0.0147333
-0.0116683
-0.00824741
-0.00453062
-0.000577662
0.00355434
0.00781402
0.0121574
0.0165514
0.0209583
0.0253013
0.0294632
0.0333976
0.0371778
0.040751
0.0440487
0.0470405
0.0496948
0.0519788
0.0538646
0.055329
0.0563531
0.0569236
0.0570338
0.0566833
0.0558787
0.0546328
0.0529642
0.0509047
0.0484859
0.0457467
0.0427171
0.0394419
0.0359721
0.0323566
0.0286419
0.024865
0.0210955
0.017284
0.0136576
0.00982988
0.00655353
0.00122966
0.104899
0.0992237
0.0929581
0.0860937
0.0786325
0.0705925
0.0620202
0.052997
0.0436267
0.0340365
0.0244396
0.0150599
0.00606372
-0.00232711
-0.00988131
-0.0164245
-0.0217375
-0.0255714
-0.0279949
-0.0288756
-0.0280961
-0.0262588
-0.0232627
-0.0187299
-0.0130995
-0.00679794
3.96559e-05
0.00722891
0.0145761
0.0219244
0.0291407
0.0361141
0.0427602
0.0490176
0.0548556
0.0602318
0.0651099
0.069516
0.0734751
0.0769963
0.0800929
0.0827801
0.085078
0.0870087
0.0885936
0.0898538
0.0908151
0.0915033
0.0919437
0.0921604
0.0921982
0.0921497
0.0920223
0.0917216
0.0912636
0.0906782
0.0899742
0.0891515
0.088194
0.0870844
0.0858033
0.0843283
0.0826344
0.0806956
0.0784876
0.0759886
0.0731765
0.0700321
0.0665346
0.0626918
0.0585031
0.0539632
0.0490903
0.0439097
0.0384486
0.0327529
0.0269097
0.020978
0.0149371
0.00901626
0.00328379
-0.00243363
-0.00789272
-0.0128034
-0.017221
-0.0210837
-0.0243102
-0.0268478
-0.0286616
-0.0297325
-0.0300564
-0.0296449
-0.0285402
-0.0267732
-0.0243944
-0.0214534
-0.0180113
-0.0141361
-0.00990044
-0.00537634
-0.000632428
0.00426746
0.00926523
0.0143148
0.0193725
0.0243505
0.0290993
0.0336419
0.0380154
0.042133
0.0459457
0.049423
0.05253
0.0552347
0.0575096
0.0593312
0.0606802
0.0615427
0.0619105
0.0617804
0.0611558
0.0600455
0.0584677
0.0564449
0.0540047
0.0511749
0.0479941
0.0445056
0.0407553
0.0367973
0.0326802
0.0284488
0.0242099
0.0199583
0.0159023
0.0113304
0.00759324
0.00120529
0.108191
0.10187
0.0948593
0.0871471
0.0787398
0.069661
0.0599799
0.0498105
0.0392685
0.0285295
0.0178696
0.00749687
-0.0023939
-0.0114418
-0.0194972
-0.0264455
-0.0318235
-0.035255
-0.0368088
-0.036994
-0.0359093
-0.0329952
-0.0283713
-0.022541
-0.0157956
-0.00837373
-0.000504186
0.00757966
0.0156758
0.0236255
0.0313054
0.0386164
0.0455024
0.0518968
0.0577606
0.0631246
0.0680017
0.0723932
0.0763192
0.0798023
0.0828637
0.0855176
0.0877892
0.0896966
0.0912579
0.0924866
0.0934249
0.094111
0.0945784
0.0948482
0.0949411
0.0948725
0.094675
0.0943106
0.0938371
0.093253
0.092545
0.0917135
0.0907479
0.0896311
0.0883451
0.0868699
0.0851806
0.0832489
0.0810481
0.0785556
0.075734
0.0725683
0.0690461
0.0651395
0.0608459
0.0561674
0.0511138
0.045701
0.0399386
0.0338608
0.027583
0.0211309
0.0145241
0.00795418
0.00143724
-0.00511984
-0.011234
-0.0168951
-0.0220545
-0.0265996
-0.0304413
-0.0335142
-0.0357698
-0.0371797
-0.0377327
-0.0374348
-0.0363331
-0.0344618
-0.0318596
-0.0285877
-0.0247182
-0.0203304
-0.0155106
-0.0103449
-0.004916
0.000696565
0.00641657
0.0121816
0.0179428
0.0235916
0.0289824
0.0341919
0.0391746
0.0438507
0.0481835
0.0521398
0.055685
0.0587893
0.0614265
0.0635742
0.0652135
0.0663294
0.0669137
0.066963
0.0664819
0.0654663
0.0639388
0.0619145
0.0594035
0.0564437
0.0530814
0.0493515
0.0452951
0.0409925
0.0365198
0.0318894
0.0272303
0.0224984
0.0178267
0.0125558
0.00835273
0.00115551
0.111948
0.104909
0.0970443
0.0883453
0.0788178
0.0684721
0.0574144
0.0458003
0.0338004
0.0216584
0.00961502
-0.00209913
-0.0131557
-0.0230123
-0.0313774
-0.0384776
-0.0439496
-0.0473405
-0.0486255
-0.0479094
-0.0453717
-0.0409203
-0.0348766
-0.0276763
-0.0195631
-0.010843
-0.00181443
0.00727742
0.016224
0.0248739
0.033123
0.0408397
0.0479723
0.0545559
0.0605847
0.0660646
0.0710099
0.0754263
0.0793641
0.0828447
0.0858918
0.0884906
0.0907118
0.0925888
0.0941542
0.0954043