/*--------------------------------*- C++ -*----------------------------------*\
| =========                 |                                                 |
| \\      /  F ield         | OpenFOAM: The Open Source CFD Toolbox           |
|  \\    /   O peration     | Version:  2206                                  |
|   \\  /    A nd           | Website:  www.openfoam.com                      |
|    \\/     M anipulation  |                                                 |
\*---------------------------------------------------------------------------*/
FoamFile
{
    version     2.0;
    format      ascii;
    arch        "LSB;label=32;scalar=64";
    class       volScalarField;
    location    "18.8001";
    object      p;
}
// * * * * * * * * * * * * * * * * * * * * * * * * * * * * * * * * * * * * * //

dimensions      [0 2 -2 0 0 0 0];

internalField   nonuniform List<scalar> 
4824
(
0.492651
0.492611
0.492508
0.492346
0.492131
0.491866
0.491551
0.491186
0.490773
0.490313
0.489808
0.489259
0.48867
0.488041
0.487374
0.486672
0.485937
0.485171
0.484376
0.483555
0.482709
0.481842
0.480954
0.48005
0.47913
0.478197
0.477254
0.476303
0.475346
0.474386
0.473425
0.472466
0.471511
0.470561
0.469621
0.468692
0.467776
0.466877
0.465996
0.465138
0.464303
0.463495
0.462717
0.461972
0.461262
0.46059
0.45996
0.459374
0.458836
0.458349
0.457917
0.457543
0.45723
0.456982
0.456804
0.4567
0.456678
0.456741
0.456893
0.45714
0.457487
0.457942
0.458511
0.459201
0.46002
0.460977
0.46208
0.46334
0.464767
0.466373
0.468171
0.470173
0.472396
0.474855
0.477568
0.480555
0.483835
0.487431
0.49137
0.495677
0.500383
0.505519
0.511121
0.517227
0.523878
0.531119
0.539
0.547572
0.556892
0.567019
0.578017
0.589951
0.602887
0.616892
0.632028
0.648346
0.665886
0.684657
0.704629
0.725705
0.747687
0.770223
0.792728
0.814245
0.833254
0.847202
0.852141
0.839689
0.798634
0.679745
0.449762
-0.348836
0.493076
0.493035
0.49293
0.492763
0.492542
0.49227
0.491947
0.491573
0.49115
0.490679
0.490162
0.489601
0.488998
0.488355
0.487674
0.486957
0.486207
0.485425
0.484615
0.483778
0.482917
0.482033
0.48113
0.480209
0.479273
0.478325
0.477365
0.476398
0.475425
0.474449
0.473472
0.472496
0.471525
0.470559
0.469602
0.468656
0.467724
0.466808
0.46591
0.465034
0.464182
0.463356
0.46256
0.461796
0.461066
0.460375
0.459724
0.459117
0.458557
0.458047
0.457591
0.457191
0.456851
0.456575
0.456367
0.456233
0.456177
0.456204
0.456316
0.456521
0.456823
0.457228
0.457742
0.458373
0.459128
0.460014
0.461041
0.462216
0.46355
0.465054
0.466739
0.468617
0.470702
0.473008
0.475552
0.47835
0.48142
0.484783
0.488461
0.492476
0.496854
0.501622
0.50681
0.512448
0.51857
0.525212
0.53241
0.540204
0.548634
0.557739
0.567561
0.578137
0.589499
0.601672
0.614667
0.628478
0.643065
0.658347
0.674176
0.690312
0.706375
0.721781
0.735645
0.746608
0.752611
0.750302
0.734657
0.695893
0.621627
0.478879
0.25147
-0.0932714
0.49357
0.493528
0.493419
0.493247
0.49302
0.49274
0.492407
0.492022
0.491586
0.491102
0.49057
0.489994
0.489375
0.488716
0.488018
0.487283
0.486515
0.485716
0.484887
0.484031
0.483151
0.482248
0.481326
0.480386
0.479432
0.478464
0.477486
0.4765
0.475508
0.474512
0.473516
0.472521
0.47153
0.470545
0.469569
0.468603
0.467651
0.466715
0.465797
0.4649
0.464027
0.46318
0.462362
0.461575
0.460823
0.460108
0.459433
0.458801
0.458215
0.457677
0.457192
0.456762
0.456391
0.456082
0.45584
0.455669
0.455574
0.455557
0.455624
0.455779
0.456027
0.456374
0.456826
0.457389
0.458069
0.458874
0.459811
0.460889
0.462116
0.463502
0.465057
0.466792
0.46872
0.470852
0.473202
0.475785
0.478618
0.481716
0.485099
0.488785
0.492795
0.497151
0.501876
0.506993
0.512528
0.518506
0.524953
0.531894
0.539353
0.54735
0.555903
0.565023
0.574709
0.584947
0.595703
0.606913
0.618472
0.630217
0.641908
0.653187
0.663543
0.672235
0.678205
0.67992
0.675187
0.660768
0.632153
0.58262
0.504273
0.388192
0.225594
0.0476803
0.494136
0.494092
0.49398
0.493801
0.493566
0.493276
0.492932
0.492534
0.492084
0.491583
0.491035
0.490441
0.489803
0.489124
0.488406
0.487651
0.486862
0.486042
0.485191
0.484314
0.483412
0.482488
0.481544
0.480582
0.479605
0.478615
0.477615
0.476607
0.475593
0.474575
0.473557
0.47254
0.471527
0.470519
0.46952
0.468532
0.467557
0.466597
0.465656
0.464735
0.463838
0.462966
0.462123
0.461311
0.460532
0.45979
0.459087
0.458426
0.457809
0.457241
0.456723
0.456259
0.455852
0.455506
0.455224
0.455011
0.45487
0.454805
0.454819
0.454918
0.455106
0.455388
0.455769
0.456254
0.456851
0.457564
0.458401
0.45937
0.460477
0.461732
0.463142
0.464719
0.46647
0.468409
0.470545
0.472892
0.475462
0.478269
0.481328
0.484654
0.488262
0.492169
0.496391
0.500946
0.505849
0.511116
0.516761
0.522795
0.529228
0.536061
0.543291
0.550902
0.558865
0.567133
0.575629
0.584245
0.59282
0.601133
0.608872
0.615609
0.620755
0.623504
0.622761
0.617037
0.60433
0.581984
0.546584
0.494007
0.419185
0.318694
0.179459
0.00869846
0.494775
0.49473
0.494613
0.494427
0.494183
0.493881
0.493524
0.493111
0.492644
0.492125
0.491557
0.490942
0.490283
0.489582
0.48884
0.488062
0.487249
0.486404
0.485529
0.484627
0.4837
0.482751
0.481782
0.480795
0.479794
0.478779
0.477754
0.476721
0.475682
0.474639
0.473596
0.472553
0.471515
0.470482
0.469457
0.468443
0.467442
0.466456
0.465488
0.46454
0.463615
0.462716
0.461844
0.461003
0.460194
0.459421
0.458687
0.457993
0.457343
0.456739
0.456185
0.455683
0.455236
0.454848
0.454522
0.454262
0.45407
0.453951
0.453908
0.453944
0.454065
0.454275
0.454578
0.454978
0.455483
0.456096
0.456823
0.457672
0.458648
0.459759
0.461012
0.462415
0.463976
0.465705
0.46761
0.469701
0.471988
0.474482
0.477194
0.480134
0.483314
0.486744
0.490435
0.494395
0.498634
0.503157
0.507967
0.513064
0.51844
0.524083
0.529968
0.53606
0.542303
0.54862
0.554906
0.561015
0.566748
0.571844
0.575951
0.578605
0.579197
0.576927
0.570757
0.559348
0.541002
0.513609
0.474594
0.421037
0.349237
0.256492
0.136371
-0.00549379
0.495492
0.495445
0.495322
0.495128
0.494872
0.494558
0.494185
0.493754
0.493268
0.492728
0.492138
0.491499
0.490815
0.490088
0.489321
0.488515
0.487675
0.486803
0.4859
0.48497
0.484016
0.483039
0.482042
0.481027
0.479997
0.478955
0.477902
0.476841
0.475774
0.474703
0.473632
0.472561
0.471494
0.470433
0.469379
0.468336
0.467306
0.466291
0.465293
0.464315
0.46336
0.462429
0.461526
0.460652
0.459811
0.459004
0.458234
0.457505
0.456817
0.456175
0.45558
0.455036
0.454545
0.454111
0.453737
0.453425
0.453178
0.453
0.452894
0.452863
0.452912
0.453043
0.453261
0.45357
0.453975
0.454479
0.455089
0.455809
0.456645
0.457602
0.458686
0.459904
0.461262
0.462767
0.464426
0.466246
0.468234
0.470398
0.472745
0.475281
0.478013
0.480946
0.484084
0.487431
0.490986
0.494747
0.498706
0.502852
0.507165
0.511617
0.516168
0.520764
0.525329
0.529766
0.533945
0.537695
0.540795
0.542963
0.543831
0.542934
0.539679
0.53332
0.522924
0.507341
0.485177
0.454784
0.414253
0.361557
0.294491
0.211857
0.112688
0.000708139
0.496289
0.496239
0.496111
0.495907
0.495638
0.495309
0.494918
0.494467
0.493958
0.493394
0.492778
0.492113
0.4914
0.490644
0.489847
0.489012
0.488142
0.487238
0.486305
0.485344
0.484358
0.48335
0.482322
0.481277
0.480216
0.479143
0.478059
0.476967
0.475869
0.474768
0.473665
0.472564
0.471465
0.470372
0.469287
0.468213
0.46715
0.466103
0.465072
0.464061
0.463072
0.462107
0.461169
0.46026
0.459382
0.458538
0.457731
0.456962
0.456234
0.455549
0.454911
0.454322
0.453783
0.4533
0.452873
0.452505
0.452199
0.451958
0.451784
0.451681
0.451652
0.4517
0.451827
0.452039
0.452338
0.452727
0.453212
0.453796
0.454483
0.455277
0.456184
0.457207
0.458352
0.459623
0.461024
0.462562
0.464239
0.46606
0.468029
0.470148
0.47242
0.474844
0.477419
0.480142
0.483005
0.485999
0.489107
0.492307
0.495569
0.498853
0.502105
0.505258
0.508221
0.510882
0.513094
0.514675
0.515394
0.51496
0.513015
0.509111
0.502698
0.49311
0.47954
0.461036
0.436494
0.404678
0.364263
0.313972
0.252707
0.180041
0.096216
0.00290982
0.497171
0.497118
0.496982
0.496767
0.496484
0.496137
0.495725
0.495251
0.494716
0.494125
0.49348
0.492784
0.49204
0.491252
0.490422
0.489553
0.488648
0.487711
0.486743
0.485748
0.484728
0.483686
0.482624
0.481544
0.48045
0.479342
0.478225
0.477099
0.475967
0.474832
0.473696
0.47256
0.471428
0.470301
0.469181
0.468072
0.466974
0.465891
0.464825
0.463778
0.462752
0.46175
0.460774
0.459827
0.45891
0.458025
0.457177
0.456365
0.455594
0.454864
0.454179
0.453541
0.452953
0.452416
0.451933
0.451505
0.451136
0.450828
0.450583
0.450404
0.450293
0.450253
0.450286
0.450395
0.450582
0.450852
0.451206
0.451647
0.452179
0.452804
0.453526
0.454348
0.455271
0.456301
0.457437
0.458684
0.460042
0.461513
0.463096
0.464792
0.466596
0.468506
0.470515
0.472614
0.474788
0.477022
0.479291
0.481565
0.483805
0.485961
0.487972
0.489756
0.491216
0.492229
0.492641
0.492266
0.490871
0.488176
0.483838
0.477446
0.468508
0.456444
0.440582
0.420154
0.394314
0.362166
0.322819
0.275489
0.219616
0.155062
0.0822392
0.00248601
0.498141
0.498086
0.497942
0.497714
0.497413
0.497046
0.496611
0.49611
0.495546
0.494924
0.494245
0.493515
0.492736
0.491911
0.491044
0.490138
0.489195
0.48822
0.487215
0.486182
0.485125
0.484045
0.482946
0.481829
0.480698
0.479554
0.4784
0.477237
0.476069
0.474897
0.473724
0.472552
0.471383
0.470218
0.469061
0.467914
0.466779
0.465658
0.464553
0.463467
0.462401
0.461359
0.460342
0.459353
0.458394
0.457467
0.456574
0.455717
0.454899
0.454122
0.453387
0.452698
0.452056
0.451462
0.45092
0.45043
0.449996
0.449617
0.449298
0.449039
0.448843
0.448711
0.448645
0.448647
0.44872
0.448865
0.449084
0.449378
0.44975
0.450202
0.450734
0.451349
0.452047
0.452829
0.453696
0.454647
0.455682
0.456799
0.457994
0.459264
0.460602
0.462
0.463447
0.464929
0.466426
0.467917
0.46937
0.47075
0.472011
0.473096
0.473934
0.474442
0.474513
0.474021
0.472813
0.470701
0.467465
0.462837
0.456504
0.448096
0.437185
0.423281
0.405832
0.384236
0.357855
0.326048
0.288222
0.243901
0.192821
0.135052
0.0711235
0.00222646
0.499207
0.499147
0.498994
0.498751
0.498431
0.49804
0.497577
0.497046
0.496449
0.495791
0.495076
0.494307
0.493488
0.492623
0.491714
0.490767
0.489783
0.488767
0.48772
0.486646
0.485548
0.484428
0.483289
0.482132
0.480961
0.479777
0.478584
0.477382
0.476174
0.474963
0.47375
0.472538
0.471329
0.470125
0.468928
0.46774
0.466564
0.465402
0.464255
0.463127
0.462019
0.460934
0.459874
0.458841
0.457836
0.456863
0.455924
0.455019
0.454152
0.453324
0.452538
0.451794
0.451095
0.450443
0.449839
0.449284
0.448781
0.44833
0.447934
0.447592
0.447308
0.447082
0.446915
0.446808
0.446763
0.44678
0.446861
0.447005
0.447215
0.447489
0.447829
0.448234
0.448704
0.449237
0.449832
0.450487
0.451198
0.451961
0.45277
0.453617
0.454494
0.455388
0.456284
0.457163
0.458004
0.458777
0.459448
0.459976
0.46031
0.460388
0.460136
0.459466
0.458272
0.456426
0.453777
0.450149
0.44533
0.439078
0.43111
0.421101
0.408686
0.393456
0.374971
0.35276
0.326352
0.295294
0.259198
0.217797
0.171008
0.119017
0.0623432
0.00191763
0.500373
0.500309
0.500145
0.499884
0.499542
0.499123
0.49863
0.498064
0.497429
0.496731
0.495974
0.495161
0.494298
0.493387
0.492434
0.491441
0.490412
0.48935
0.488259
0.48714
0.485998
0.484834
0.483652
0.482452
0.481238
0.480012
0.478776
0.477532
0.476282
0.475029
0.473774
0.47252
0.471268
0.470021
0.468781
0.46755
0.46633
0.465124
0.463933
0.46276
0.461607
0.460476
0.45937
0.458289
0.457238
0.456216
0.455227
0.454272
0.453353
0.452473
0.451632
0.450832
0.450074
0.449361
0.448693
0.448071
0.447498
0.446972
0.446496
0.446071
0.445697
0.445374
0.445104
0.444886
0.444721
0.444609
0.44455
0.444544
0.444589
0.444686
0.444832
0.445027
0.445268
0.445552
0.445877
0.446237
0.446627
0.44704
0.447468
0.447901
0.448326
0.448728
0.44909
0.449388
0.449597
0.449685
0.449614
0.449339
0.448805
0.447949
0.446695
0.444953
0.442618
0.439568
0.435657
0.430719
0.424561
0.416964
0.407677
0.396421
0.382888
0.366746
0.347641
0.325215
0.299122
0.269048
0.23475
0.19609
0.153088
0.105962
0.0551665
0.0014238
0.501648
0.501579
0.501402
0.501121
0.500752
0.500302
0.499772
0.499166
0.498488
0.497745
0.49694
0.496079
0.495166
0.494205
0.493202
0.492159
0.491081
0.48997
0.48883
0.487664
0.486474
0.485263
0.484034
0.482789
0.481529
0.480258
0.478977
0.477688
0.476393
0.475095
0.473795
0.472496
0.471199
0.469906
0.46862
0.467343
0.466077
0.464824
0.463586
0.462366
0.461165
0.459986
0.45883
0.4577
0.456598
0.455526
0.454485
0.453477
0.452505
0.451569
0.450672
0.449813
0.448995
0.448219
0.447486
0.446796
0.44615
0.445549
0.444992
0.444482
0.444017
0.443597
0.443222
0.442893
0.442608
0.442366
0.442167
0.442009
0.44189
0.441809
0.441763
0.441749
0.441763
0.441802
0.441859
0.441928
0.442003
0.442074
0.442131
0.44216
0.442148
0.442077
0.441925
0.441668
0.441276
0.440717
0.439948
0.438923
0.437586
0.435871
0.433705
0.430997
0.427647
0.423537
0.418532
0.412477
0.4052
0.396504
0.386171
0.373966
0.35963
0.342894
0.323482
0.301122
0.275562
0.246589
0.214057
0.177909
0.138215
0.095192
0.0492318
0.000906454
0.50304
0.502965
0.502772
0.502467
0.502067
0.50158
0.501009
0.500357
0.49963
0.498835
0.497976
0.497061
0.496093
0.495077
0.494019
0.492922
0.491789
0.490625
0.489433
0.488216
0.486975
0.485714
0.484436
0.483142
0.481834
0.480515
0.479186
0.477849
0.476507
0.475162
0.473814
0.472467
0.471122
0.469781
0.468447
0.467121
0.465806
0.464503
0.463215
0.461945
0.460693
0.459463
0.458256
0.457074
0.455919
0.454794
0.453699
0.452637
0.451608
0.450616
0.449659
0.448741
0.447861
0.447021
0.446221
0.445461
0.444742
0.444064
0.443427
0.442831
0.442274
0.441757
0.441279
0.440838
0.440433
0.440062
0.439724
0.439416
0.439135
0.438878
0.438642
0.438423
0.438214
0.438011
0.437807
0.437593
0.437361
0.4371
0.436797
0.436438
0.436006
0.435482
0.434841
0.434058
0.433101
0.431935
0.430516
0.428798
0.426724
0.42423
0.42124
0.417671
0.413426
0.408393
0.402449
0.395453
0.387251
0.37767
0.366524
0.353613
0.338724
0.321642
0.302151
0.280047
0.25515
0.227317
0.196467
0.162592
0.125784
0.0862499
0.0443205
0.000452832
0.504559
0.504477
0.504266
0.503932
0.503496
0.502966
0.502346
0.501641
0.500858
0.500003
0.499085
0.498108
0.497079
0.496003
0.494884
0.493727
0.492537
0.491316
0.490067
0.488795
0.4875
0.486187
0.484856
0.48351
0.482151
0.480782
0.479403
0.478016
0.476624
0.475228
0.473831
0.472433
0.471038
0.469646
0.468261
0.466883
0.465516
0.464161
0.462821
0.461497
0.460192
0.458908
0.457647
0.456411
0.455201
0.45402
0.452869
0.45175
0.450664
0.449613
0.448597
0.447617
0.446674
0.445769
0.444901
0.444071
0.443279
0.442525
0.441807
0.441125
0.440478
0.439864
0.439283
0.438731
0.438208
0.43771
0.437235
0.436779
0.436339
0.435911
0.435489
0.435069
0.434644
0.434206
0.433748
0.43326
0.432733
0.432152
0.431505
0.430775
0.429943
0.428989
0.427887
0.42661
0.425125
0.423395
0.421378
0.419025
0.41628
0.413082
0.409358
0.405027
0.399998
0.39417
0.387429
0.379649
0.370692
0.360411
0.348644
0.335225
0.319981
0.30274
0.283334
0.261611
0.237444
0.210742
0.181463
0.149632
0.115347
0.0787953
0.0402565
9.8089e-05
0.506217
0.506127
0.505894
0.505526
0.505046
0.504466
0.503789
0.503022
0.502174
0.501252
0.500266
0.499221
0.498124
0.49698
0.495796
0.494575
0.493322
0.492039
0.490731
0.4894
0.488049
0.486679
0.485293
0.483894
0.482481
0.481059
0.479627
0.478188
0.476744
0.475295
0.473845
0.472395
0.470946
0.469501
0.468062
0.46663
0.465208
0.463798
0.462403
0.461023
0.459662
0.458322
0.457004
0.455711
0.454444
0.453205
0.451996
0.450819
0.449673
0.448562
0.447484
0.446442
0.445436
0.444465
0.44353
0.44263
0.441765
0.440934
0.440136
0.439369
0.438633
0.437924
0.437241
0.436582
0.435943
0.435321
0.434712
0.434113
0.433518
0.432923
0.432321
0.431707
0.431072
0.430408
0.429707
0.428956
0.428146
0.42726
0.426286
0.425204
0.423995
0.422637
0.421104
0.419367
0.417392
0.415144
0.412578
0.409648
0.4063
0.402472
0.398097
0.393098
0.387392
0.380884
0.373473
0.365046
0.355483
0.344655
0.332428
0.318661
0.303215
0.285953
0.266746
0.245483
0.222073
0.196461
0.168635
0.138633
0.106555
0.0725674
0.0369051
-0.000132446
0.508029
0.507928
0.507669
0.50726
0.506728
0.506087
0.505343
0.504504
0.503581
0.502583
0.50152
0.500398
0.499226
0.49801
0.496754
0.495463
0.494142
0.492795
0.491423
0.49003
0.488619
0.48719
0.485747
0.484291
0.482823
0.481345
0.479858
0.478365
0.476866
0.475363
0.473858
0.472352
0.470848
0.469346
0.46785
0.466362
0.464883
0.463415
0.461961
0.460523
0.459104
0.457704
0.456327
0.454975
0.453648
0.45235
0.451081
0.449843
0.448637
0.447464
0.446325
0.44522
0.444149
0.443112
0.44211
0.44114
0.440203
0.439296
0.43842
0.43757
0.436747
0.435946
0.435165
0.4344
0.433649
0.432907
0.432169
0.431431
0.430687
0.429931
0.429157
0.428356
0.427521
0.426641
0.425707
0.424707
0.423628
0.422454
0.421171
0.419759
0.418197
0.416462
0.414528
0.412366
0.409942
0.40722
0.404157
0.400706
0.396817
0.392431
0.387484
0.381906
0.375617
0.368535
0.360567
0.351613
0.341569
0.330325
0.317768
0.30378
0.28825
0.271069
0.252139
0.231377
0.208723
0.184146
0.157651
0.129284
0.0991417
0.0673701
0.0341675
-0.000219439
0.510012
0.509899
0.509606
0.509147
0.508551
0.507837
0.507014
0.506091
0.505082
0.503996
0.502846
0.50164
0.500385
0.499087
0.497754
0.496389
0.494996
0.493579
0.49214
0.490683
0.489209
0.487719
0.486216
0.484701
0.483175
0.48164
0.480096
0.478546
0.47699
0.47543
0.473868
0.472304
0.470742
0.469182
0.467627
0.466078
0.464539
0.46301
0.461496
0.459997
0.458516
0.457055
0.455616
0.454201
0.452813
0.451453
0.450122
0.448822
0.447554
0.446319
0.445117
0.443948
0.442813
0.441711
0.440642
0.439603
0.438595
0.437616
0.436662
0.435733
0.434824
0.433934
0.433058
0.432193
0.431334
0.430476
0.429615
0.428745
0.427858
0.42695
0.426011
0.425033
0.424007
0.422923
0.42177
0.420534
0.419202
0.417759
0.416186
0.414466
0.412576
0.410494
0.408191
0.40564
0.402806
0.399654
0.396143
0.392227
0.387859
0.382982
0.377537
0.371458
0.364675
0.357111
0.348685
0.339308
0.328891
0.317339
0.304556
0.290448
0.274923
0.257895
0.239291
0.21905
0.197133
0.173525
0.148243
0.121337
0.0928953
0.0630474
0.0319617
-0.000156781
0.512187
0.512058
0.511725
0.511203
0.510529
0.509727
0.508809
0.507787
0.506677
0.505492
0.504244
0.502942
0.501596
0.500211
0.498794
0.497348
0.495879
0.494389
0.49288
0.491355
0.489816
0.488263
0.486698
0.485123
0.483537
0.481943
0.480341
0.478733
0.477118
0.475499
0.473877
0.472254
0.470631
0.46901
0.467392
0.465781
0.464179
0.462587
0.461008
0.459445
0.4579
0.456374
0.454871
0.453393
0.45194
0.450516
0.449122
0.447758
0.446427
0.445129
0.443863
0.442631
0.441432
0.440265
0.43913
0.438025
0.436947
0.435896
0.434869
0.433862
0.432873
0.431897
0.430931
0.42997
0.429008
0.428042
0.427063
0.426067
0.425047
0.423993
0.422899
0.421755
0.42055
0.419274
0.417915
0.416459
0.414892
0.413197
0.411357
0.409352
0.407161
0.404759
0.402119
0.399214
0.39601
0.392472
0.38856
0.384233
0.379442
0.374137
0.368261
0.361756
0.354557
0.346594
0.337796
0.328086
0.317385
0.305614
0.292692
0.278541
0.263087
0.246264
0.228014
0.208296
0.187086
0.164379
0.140199
0.114596
0.0876532
0.0594826
0.0302287
6.38523e-05
0.514583
0.514434
0.514048
0.513447
0.512675
0.511764
0.510731
0.509593
0.508366
0.507067
0.505709
0.504302
0.502855
0.501375
0.499868
0.498338
0.496788
0.495221
0.49364
0.492045
0.490438
0.48882
0.487192
0.485554
0.483907
0.482253
0.480591
0.478922
0.477247
0.475567
0.473884
0.472198
0.470511
0.468826
0.467144
0.465467
0.463799
0.46214
0.460495
0.458864
0.457252
0.455659
0.454089
0.452543
0.451025
0.449535
0.448075
0.446647
0.445251
0.443889
0.44256
0.441265
0.440003
0.438772
0.437572
0.436402
0.435258
0.434138
0.43304
0.43196
0.430894
0.429838
0.428787
0.427736
0.426678
0.425609
0.424521
0.423407
0.422261
0.421072
0.419833
0.418534
0.417163
0.415709
0.414159
0.4125
0.410715
0.408789
0.406703
0.404437
0.40197
0.399278
0.396334
0.393109
0.389573
0.385691
0.381425
0.376735
0.371576
0.365901
0.359658
0.352793
0.345247
0.336959
0.327864
0.317896
0.306987
0.29507
0.282076
0.267941
0.252607
0.236021
0.21814
0.198935
0.178393
0.156518
0.133336
0.108898
0.0832763
0.0565724
0.0289101
0.000436002
0.517233
0.517057
0.516604
0.515899
0.515003
0.513958
0.512787
0.51151
0.510148
0.508718
0.507235
0.505711
0.504155
0.502573
0.500971
0.499351
0.497718
0.496072
0.494415
0.492749
0.491074
0.48939
0.487698
0.485997
0.484289
0.482573
0.48085
0.47912
0.477384
0.475642
0.473895
0.472144
0.470392
0.46864
0.46689
0.465145
0.463407
0.461679
0.459963
0.458262
0.456578
0.454915
0.453275
0.45166
0.450072
0.448514
0.446986
0.445492
0.444031
0.442604
0.441212
0.439854
0.438529
0.437236
0.435974
0.43474
0.433533
0.432348
0.431183
0.430034
0.428897
0.427766
0.426636
0.425501
0.424354
0.42319
0.422
0.420778
0.419515
0.418203
0.41683
0.415388
0.413864
0.412246
0.410521
0.408675
0.406692
0.404554
0.402244
0.399742
0.397025
0.394071
0.390853
0.387344
0.383513
0.379328
0.374751
0.369746
0.36427
0.358278
0.351725
0.344559
0.336728
0.328178
0.318851
0.30869
0.297637
0.285633
0.272622
0.258551
0.243371
0.227043
0.209535
0.190826
0.170911
0.1498
0.127521
0.104121
0.0796674
0.0542494
0.0279746
0.000968967
0.520182
0.519972
0.519428
0.518585
0.517528
0.516314
0.514976
0.513536
0.512016
0.510437
0.508816
0.507164
0.505489
0.503798
0.502094
0.500381
0.49866
0.496932
0.495198
0.493459
0.491713
0.489962
0.488204
0.48644
0.484669
0.482891
0.481106
0.479314
0.477515
0.475709
0.473897
0.47208
0.470259
0.468438
0.466617
0.4648
0.46299
0.461188
0.459399
0.457624
0.455867
0.454131
0.452417
0.45073
0.449071
0.447442
0.445846
0.444283
0.442756
0.441265
0.439809
0.438389
0.437003
0.43565
0.434328
0.433034
0.431766
0.430521
0.429294
0.428081
0.426878
0.425679
0.424477
0.423265
0.422037
0.420786
0.419504
0.418183
0.416815
0.415389
0.413895
0.412323
0.41066
0.408894
0.407011
0.404996
0.402833
0.400505
0.397993
0.395279
0.392339
0.389152
0.385691
0.381931
0.377841
0.37339
0.368544
0.363267
0.35752
0.351261
0.344448
0.337035
0.328974
0.320217
0.310714
0.300414
0.289268
0.277226
0.264239
0.250265
0.235263
0.219204
0.202063
0.183828
0.164498
0.144086
0.12262
0.100146
0.0767255
0.0524362
0.027373
0.00164541
0.523493
0.523234
0.522563
0.521533
0.520263
0.518837
0.517294
0.51566
0.513957
0.51221
0.510436
0.508645
0.506846
0.505041
0.503235
0.501427
0.499618
0.497809
0.495999
0.494188
0.492374
0.490556
0.488734
0.486907
0.485074
0.483234
0.481387
0.479532
0.477669
0.475798
0.473918
0.472031
0.470139
0.468244
0.466348
0.464456
0.462569
0.46069
0.458822
0.456969
0.455134
0.45332
0.451529
0.449766
0.448032
0.44633
0.444662
0.44303
0.441435
0.439879
0.438361
0.43688
0.435435
0.434023
0.432643
0.431292
0.429967
0.428665
0.427381
0.426111
0.424849
0.423588
0.422323
0.421043
0.419742
0.418413
0.417048
0.415638
0.414175
0.412647
0.411045
0.409356
0.407568
0.405669
0.403645
0.401479
0.399156
0.396658
0.393967
0.391064
0.387927
0.384534
0.380861
0.376881
0.372566
0.367887
0.362811
0.357304
0.351329
0.34485
0.337824
0.330212
0.321971
0.313056
0.303425
0.293035
0.281841
0.269802
0.256874
0.243021
0.228214
0.212427
0.195643
0.177856
0.159067
0.139292
0.118559
0.0969107
0.0744022
0.051104
0.0270999
0.00248574
0.527249
0.526919
0.526062
0.524768
0.523218
0.521527
0.51974
0.517876
0.515961
0.514021
0.512076
0.510133
0.508198
0.506272
0.504355
0.502448
0.500549
0.498656
0.496769
0.494885
0.493002
0.491118
0.489232
0.487344
0.48545
0.48355
0.481642
0.479727
0.477802
0.475866
0.473919
0.47196
0.469995
0.468024
0.466052
0.464081
0.462114
0.460155
0.458206
0.456272
0.454356
0.45246
0.450589
0.448747
0.446935
0.445158
0.443415
0.441711
0.440048
0.438426
0.436847
0.435308
0.433805
0.432337
0.430903
0.429499
0.428123
0.426769
0.425434
0.424113
0.4228
0.421487
0.420165
0.418825
0.41746
0.416063
0.414627
0.413141
0.411595
0.409979
0.408282
0.406492
0.404596
0.402582
0.400433
0.398134
0.395669
0.393021
0.390173
0.387104
0.383795
0.380223
0.376365
0.372196
0.367689
0.362815
0.357544
0.351844
0.345682
0.33902
0.331824
0.324054
0.315673
0.306641
0.29692
0.286475
0.27527
0.263265
0.250424
0.236713
0.222111
0.206596
0.190157
0.17279
0.1545
0.135304
0.115229
0.0943144
0.0726107
0.0501817
0.0271017
0.00345604
0.531577
0.531141
0.529995
0.528309
0.526376
0.524356
0.522282
0.520157
0.518008
0.515865
0.513746
0.511653
0.509587
0.507545
0.505525
0.503522
0.501536
0.499564
0.497603
0.495649
0.493698
0.491747
0.489797
0.487844
0.485888
0.483924
0.481953
0.479973
0.477983
0.47598
0.47396
0.471926
0.469881
0.467828
0.465773
0.463717
0.461665
0.459619
0.457584
0.455562
0.453558
0.451575
0.449619
0.447693
0.445802
0.443945
0.442127
0.440349
0.438616
0.43693
0.43529
0.433691
0.432131
0.430608
0.429123
0.427671
0.426246
0.424846
0.423464
0.422101
0.42075
0.419398
0.418031
0.416636
0.415211
0.413753
0.412254
0.410702
0.409086
0.407393
0.405612
0.403733
0.401746
0.399636
0.397383
0.394971
0.392384
0.389608
0.386625
0.383416
0.37996
0.376236
0.372223
0.367895
0.363228
0.358194
0.352764
0.346909
0.340597
0.333795
0.326468
0.318581
0.310099
0.300989
0.291218
0.280756
0.26957
0.257623
0.244882
0.231324
0.216929
0.201681
0.185571
0.168596
0.150765
0.132094
0.112609
0.0923457
0.0713517
0.049684
0.0274098
0.00460528
0.536663
0.536047
0.534444
0.532191
0.529751
0.527313
0.52487
0.522413
0.519979
0.517599
0.515281
0.513021
0.510815
0.508656
0.506533
0.504438
0.50237
0.500324
0.498296
0.496281
0.494272
0.492266
0.490263
0.488259
0.486252
0.484237
0.482213
0.480178
0.47813
0.476062
0.473971
0.471861
0.469737
0.467602
0.465463
0.463321
0.461179
0.459044
0.45692
0.454807
0.452708
0.450633
0.448586
0.446572
0.444592
0.442648
0.440747
0.438891
0.437086
0.435343
0.433654
0.432002
0.430385
0.428809
0.427275
0.425779
0.424313
0.422871
0.421444
0.420038
0.418657
0.417282
0.415893
0.414465
0.412993
0.411485
0.409936
0.408334
0.406662
0.404911
0.40306
0.401099
0.399031
0.396839
0.394498
0.391989
0.389299
0.386413
0.383313
0.379982
0.376401
0.372548
0.368402
0.36394
0.359138
0.353971
0.348411
0.34243
0.335999
0.329086
0.321659
0.313682
0.305125
0.295952
0.28615
0.27572
0.264603
0.252746
0.240126
0.22673
0.212545
0.197556
0.181756
0.165146
0.147734
0.129535
0.110575
0.0908882
0.0705166
0.0495127
0.0279374
0.00585954
0.542843
0.541822
0.539381
0.536311
0.533308
0.530463
0.527649
0.524851
0.522132
0.519528
0.517028
0.514612
0.512271
0.509993
0.507763
0.50557
0.503414
0.501289
0.49919
0.4971
0.495009
0.49293
0.49086
0.48879
0.486716
0.484635
0.482551
0.480468
0.478369
0.476229
0.474052
0.471849
0.469634
0.467406
0.465174
0.462937
0.460695
0.458465
0.45625
0.454043
0.451842
0.449666
0.447521
0.445411
0.443335
0.441302
0.439312
0.437365
0.435464
0.433651
0.431924
0.430232
0.428569
0.426947
0.425371
0.423837
0.422339
0.420869
0.419423
0.417997
0.416582
0.415164
0.413728
0.412263
0.410764
0.409227
0.407643
0.406002
0.40429
0.402496
0.400605
0.398602
0.39648
0.394221
0.391806
0.389219
0.386445
0.383471
0.380279
0.376852
0.37317
0.369215
0.364966
0.360401
0.355497
0.35023
0.344576
0.338506
0.331997
0.32501
0.317532
0.309503
0.300919
0.291695
0.281824
0.271422
0.260392
0.248648
0.236168
0.222946
0.208974
0.19424
0.178738
0.162468
0.145441
0.12767
0.10918
0.0900024
0.070176
0.0497492
0.0287774
0.00732369
0.550775
0.548918
0.544824
0.54034
0.536498
0.533097
0.529806
0.526615
0.523593
0.520764
0.518091
0.515567
0.513165
0.510815
0.508503
0.506241
0.504036
0.501867
0.499756
0.497652
0.495508
0.493385
0.491282
0.489173
0.487052
0.48491
0.482748
0.480627
0.478512
0.476325
0.474071
0.47178
0.469471
0.467151
0.464822
0.462488
0.460153
0.457823
0.455503
0.453189
0.450885
0.448609
0.446367
0.444163
0.442001
0.439885
0.437817
0.435802
0.43385
0.43197
0.430158
0.428397
0.426684
0.425023
0.423416
0.421857
0.420339
0.418855
0.417397
0.415957
0.414524
0.413087
0.411631
0.41015
0.408636
0.40708
0.405472
0.403806
0.402066
0.400243
0.398319
0.396283
0.394123
0.391817
0.389343
0.386692
0.383852
0.380809
0.377545
0.374042
0.370282
0.366247
0.361916
0.35727
0.352288
0.346945
0.341219
0.335084
0.328515
0.321483
0.313963
0.305922
0.297332
0.288164
0.278404
0.268056
0.257075
0.245418
0.233066
0.220005
0.206225
0.191718
0.176478
0.160507
0.143813
0.126411
0.108322
0.0895767
0.0702106
0.0502686
0.0298019
0.00887203
0.561273
0.557664
0.551341
0.545567
0.540974
0.536878
0.532936
0.529268
0.525895
0.522774
0.519815
0.517088
0.514625
0.512198
0.509773
0.507402
0.505099
0.502849
0.500641
0.498455
0.496271
0.494097
0.491935
0.489775
0.487609
0.48543
0.483241
0.481049
0.478832
0.476557
0.474219
0.471834
0.469424
0.467002
0.46457
0.46213
0.459684
0.457236
0.45479
0.452357
0.449952
0.447577
0.445236
0.442935
0.440681
0.438473
0.436314
0.434214
0.432184
0.430227
0.428343
0.426528
0.424777
0.423089
0.421461
0.419886
0.418358
0.416869
0.415407
0.413964
0.412528
0.411088
0.409634
0.408155
0.406642
0.405087
0.403474
0.401791
0.400041
0.398209
0.396251
0.394197
0.392014
0.389693
0.387196
0.384506
0.381622
0.378533
0.375221
0.371668
0.367855
0.363767
0.359384
0.354686
0.349653
0.344264
0.338495
0.332325
0.325727
0.318678
0.311152
0.303121
0.294561
0.285447
0.275755
0.265466
0.254555
0.243003
0.230794
0.217905
0.204321
0.190034
0.175041
0.159342
0.142946
0.125866
0.108122
0.089741
0.0707582
0.0512142
0.0311582
0.0106466
0.57653
0.564818
0.553428
0.547052
0.542533
0.538116
0.533818
0.529927
0.526479
0.523358
0.520462
0.517759
0.515215
0.512748
0.51033
0.507972
0.505671
0.503414
0.501191
0.49899
0.496803
0.494621
0.492442
0.490264
0.488075
0.485873
0.483656
0.481414
0.479151
0.476834
0.47442
0.47193
0.469417
0.466896
0.464362
0.461813
0.459257
0.456701
0.454151
0.451617
0.449106
0.446624
0.44418
0.441781
0.439441
0.43716
0.434928
0.432756
0.430667
0.428661
0.426736
0.424891
0.423121
0.421423
0.419792
0.418221
0.416703
0.41523
0.413789
0.412366
0.41095
0.409531
0.408097
0.406635
0.405131
0.403593
0.402014
0.400337
0.398591
0.396754
0.394815
0.392753
0.390557
0.388219
0.385717
0.383021
0.380122
0.377011
0.373674
0.370093
0.366249
0.362129
0.357713
0.352983
0.34792
0.342502
0.336709
0.330519
0.323907
0.316852
0.309327
0.301309
0.292772
0.283693
0.274048
0.263814
0.25297
0.241497
0.229379
0.216597
0.20314
0.189
0.174173
0.15866
0.142469
0.125611
0.108107
0.0899827
0.0712717
0.0520091
0.032243
0.0120304
0.61344
0.581845
0.560438
0.551204
0.545935
0.540856
0.535955
0.531637