/*--------------------------------*- C++ -*----------------------------------*\
| =========                 |                                                 |
| \\      /  F ield         | OpenFOAM: The Open Source CFD Toolbox           |
|  \\    /   O peration     | Version:  2206                                  |
|   \\  /    A nd           | Website:  www.openfoam.com                      |
|    \\/     M anipulation  |                                                 |
\*---------------------------------------------------------------------------*/
FoamFile
{
    version     2.0;
    format      ascii;
    arch        "LSB;label=32;scalar=64";
    class       surfaceScalarField;
    location    "18.8001";
    object      phi_0;
}
// * * * * * * * * * * * * * * * * * * * * * * * * * * * * * * * * * * * * * //

dimensions      [0 3 -1 0 0 0 0];

oriented        oriented;

internalField   nonuniform List<scalar> 
9559
(
9.96788e-06
7.76916e-07
-8.10681e-07
1.00098e-05
1.02888e-06
-1.07083e-06
1.00589e-05
1.26932e-06
-1.31843e-06
1.01141e-05
1.49588e-06
-1.55101e-06
1.01741e-05
1.70653e-06
-1.76652e-06
1.02378e-05
1.89971e-06
-1.96339e-06
1.0304e-05
2.07429e-06
-2.14054e-06
1.03717e-05
2.22959e-06
-2.29733e-06
1.044e-05
2.36532e-06
-2.43355e-06
1.05078e-05
2.48159e-06
-2.5494e-06
1.05744e-05
2.57884e-06
-2.64547e-06
1.06393e-05
2.65774e-06
-2.72263e-06
1.07021e-05
2.71906e-06
-2.78185e-06
1.07627e-05
2.76347e-06
-2.82411e-06
1.08215e-05
2.79131e-06
-2.85007e-06
1.08787e-05
2.80211e-06
-2.85935e-06
1.09345e-05
2.79474e-06
-2.85058e-06
1.09891e-05
2.76877e-06
-2.82334e-06
1.10427e-05
2.724e-06
-2.77759e-06
1.10957e-05
2.66011e-06
-2.71313e-06
1.11486e-05
2.57666e-06
-2.62953e-06
1.12016e-05
2.47312e-06
-2.52618e-06
1.12552e-05
2.34897e-06
-2.40249e-06
1.13093e-05
2.20383e-06
-2.25792e-06
1.13639e-05
2.03759e-06
-2.09223e-06
1.14189e-05
1.85045e-06
-1.90549e-06
1.14741e-05
1.64306e-06
-1.69822e-06
1.1529e-05
1.41654e-06
-1.47143e-06
1.15831e-05
1.17251e-06
-1.22666e-06
1.16361e-05
9.13058e-07
-9.65963e-07
1.16872e-05
6.40826e-07
-6.91928e-07
1.17358e-05
3.59064e-07
-4.0775e-07
1.17812e-05
7.20801e-08
-1.17484e-07
1.18224e-05
-2.14481e-07
1.73288e-07
1.18588e-05
-4.96341e-07
4.5997e-07
1.18898e-05
-7.69755e-07
7.38773e-07
1.19149e-05
-1.03125e-06
1.00615e-06
1.19337e-05
-1.2777e-06
1.2589e-06
1.19459e-05
-1.50643e-06
1.49423e-06
1.19513e-05
-1.71525e-06
1.70985e-06
1.19498e-05
-1.90246e-06
1.90395e-06
1.19414e-05
-2.06689e-06
2.07526e-06
1.19263e-05
-2.20791e-06
2.22305e-06
1.19046e-05
-2.32537e-06
2.34708e-06
1.18766e-05
-2.41961e-06
2.44761e-06
1.18425e-05
-2.49132e-06
2.52541e-06
1.18022e-05
-2.54129e-06
2.58153e-06
1.17552e-05
-2.56981e-06
2.61684e-06
1.17008e-05
-2.57706e-06
2.63149e-06
1.16395e-05
-2.5651e-06
2.62638e-06
1.1572e-05
-2.53673e-06
2.60423e-06
1.14991e-05
-2.49469e-06
2.56764e-06
1.14216e-05
-2.44149e-06
2.51895e-06
1.13407e-05
-2.37917e-06
2.46007e-06
1.12575e-05
-2.30915e-06
2.39231e-06
1.11734e-05
-2.23214e-06
2.31632e-06
1.10894e-05
-2.14816e-06
2.23211e-06
1.10069e-05
-2.05661e-06
2.13916e-06
1.09268e-05
-1.95648e-06
2.03653e-06
1.08503e-05
-1.84656e-06
1.92311e-06
1.07781e-05
-1.72562e-06
1.79777e-06
1.07112e-05
-1.59259e-06
1.65952e-06
1.06502e-05
-1.44671e-06
1.50768e-06
1.05959e-05
-1.28763e-06
1.34197e-06
1.05488e-05
-1.11544e-06
1.16254e-06
1.05094e-05
-9.30711e-07
9.70073e-07
1.04782e-05
-7.34513e-07
7.65721e-07
1.04554e-05
-5.28334e-07
5.51077e-07
1.04414e-05
-3.14054e-07
3.28129e-07
1.0436e-05
-9.3932e-08
9.92655e-08
1.04393e-05
1.29358e-07
-1.32639e-07
1.04509e-05
3.52483e-07
-3.64047e-07
1.04703e-05
5.7273e-07
-5.92168e-07
1.04971e-05
7.87685e-07
-8.14474e-07
1.05306e-05
9.95002e-07
-1.02851e-06
1.05702e-05
1.19248e-06
-1.23201e-06
1.06149e-05
1.37812e-06
-1.42289e-06
1.06641e-05
1.55021e-06
-1.59938e-06
1.07168e-05
1.70732e-06
-1.76002e-06
1.07721e-05
1.84838e-06
-1.90371e-06
1.08292e-05
1.97269e-06
-2.02976e-06
1.08871e-05
2.07993e-06
-2.13788e-06
1.09452e-05
2.17009e-06
-2.22816e-06
1.10027e-05
2.24351e-06
-2.30104e-06
1.10593e-05
2.30068e-06
-2.35723e-06
1.11147e-05
2.34214e-06
-2.3975e-06
1.11689e-05
2.36824e-06
-2.42246e-06
1.12221e-05
2.3787e-06
-2.43194e-06
1.12743e-05
2.37282e-06
-2.42497e-06
1.13252e-05
2.35058e-06
-2.40151e-06
1.13749e-05
2.31225e-06
-2.36197e-06
1.14236e-05
2.25811e-06
-2.30679e-06
1.14715e-05
2.18839e-06
-2.23629e-06
1.15189e-05
2.10322e-06
-2.15061e-06
1.1566e-05
2.00266e-06
-2.04978e-06
1.1613e-05
1.88676e-06
-1.93379e-06
1.166e-05
1.75561e-06
-1.80263e-06
1.1707e-05
1.6094e-06
-1.6564e-06
1.17539e-05
1.44852e-06
-1.49538e-06
1.18004e-05
1.27355e-06
-1.32006e-06
1.18463e-05
1.08536e-06
-1.13124e-06
1.18912e-05
8.8507e-07
-9.29964e-07
1.19347e-05
6.74091e-07
-7.17606e-07
1.19764e-05
4.54128e-07
-4.95842e-07
1.20158e-05
2.27281e-07
-2.66726e-07
1.20524e-05
-3.69038e-09
-3.28692e-08
1.20853e-05
-2.34926e-07
2.01983e-07
1.21142e-05
-4.63247e-07
4.34365e-07
1.21386e-05
-6.85868e-07
6.61482e-07
1.21581e-05
-9.00065e-07
8.80582e-07
1.21723e-05
-1.10322e-06
1.08902e-06
1.21809e-05
-1.29292e-06
1.28432e-06
1.21836e-05
-1.46697e-06
1.46428e-06
1.21801e-05
-1.62357e-06
1.627e-06
1.21705e-05
-1.76129e-06
1.77098e-06
1.21545e-05
-1.87915e-06
1.89515e-06
1.21322e-05
-1.97672e-06
1.99898e-06
1.21038e-05
-2.05405e-06
2.08246e-06
1.20693e-05
-2.11148e-06
2.14601e-06
1.20282e-05
-2.14921e-06
2.19025e-06
1.19799e-05
-2.16695e-06
2.21532e-06
1.19242e-05
-2.16529e-06
2.22102e-06
1.18618e-05
-2.14654e-06
2.20889e-06
1.17936e-05
-2.11317e-06
2.18132e-06
1.17207e-05
-2.06767e-06
2.14062e-06
1.16441e-05
-2.01231e-06
2.08891e-06
1.1565e-05
-1.94893e-06
2.02798e-06
1.14847e-05
-1.87879e-06
1.95909e-06
1.14043e-05
-1.80253e-06
1.88294e-06
1.13249e-05
-1.72023e-06
1.7997e-06
1.12472e-05
-1.63143e-06
1.70909e-06
1.11721e-05
-1.53541e-06
1.61052e-06
1.11002e-05
-1.43116e-06
1.5031e-06
1.10319e-05
-1.31801e-06
1.3863e-06
1.09677e-05
-1.19383e-06
1.258e-06
1.09078e-05
-1.06377e-06
1.12363e-06
1.08532e-05
-9.02487e-07
9.5713e-07
1.08026e-05
-7.77869e-07
8.28497e-07
-5.02887e-07
5.45074e-07
9.89557e-06
7.44616e-07
9.93694e-06
9.87508e-07
9.98636e-06
1.21991e-06
1.00427e-05
1.43952e-06
1.01048e-05
1.6444e-06
1.01716e-05
1.83297e-06
1.02418e-05
2.0041e-06
1.03143e-05
2.15703e-06
1.03882e-05
2.29143e-06
1.04625e-05
2.40728e-06
1.05365e-05
2.5049e-06
1.06095e-05
2.58474e-06
1.06812e-05
2.64732e-06
1.07516e-05
2.69307e-06
1.08209e-05
2.72207e-06
1.08892e-05
2.73373e-06
1.09568e-05
2.72714e-06
1.10237e-05
2.70188e-06
1.10901e-05
2.65762e-06
1.11562e-05
2.59399e-06
1.12224e-05
2.51054e-06
1.12887e-05
2.4068e-06
1.13553e-05
2.28235e-06
1.14222e-05
2.13696e-06
1.14891e-05
1.97063e-06
1.15558e-05
1.78372e-06
1.16219e-05
1.577e-06
1.16868e-05
1.35167e-06
1.17499e-05
1.10942e-06
1.18105e-05
8.52391e-07
1.18681e-05
5.8324e-07
1.19219e-05
3.05304e-07
1.19708e-05
2.31708e-08
1.20139e-05
-2.57652e-07
1.20508e-05
-5.33185e-07
1.20808e-05
-7.99746e-07
1.21035e-05
-1.05395e-06
1.21186e-05
-1.2928e-06
1.21259e-05
-1.51373e-06
1.21253e-05
-1.71466e-06
1.21169e-05
-1.89404e-06
1.21008e-05
-2.05078e-06
1.20772e-05
-2.18436e-06
1.20465e-05
-2.29469e-06
1.2009e-05
-2.38211e-06
1.19649e-05
-2.44716e-06
1.19138e-05
-2.49018e-06
1.18551e-05
-2.5111e-06
1.17888e-05
-2.51083e-06
1.17158e-05
-2.49202e-06
1.16365e-05
-2.45751e-06
1.1552e-05
-2.41015e-06
1.14631e-05
-2.35263e-06
1.13711e-05
-2.28711e-06
1.12771e-05
-2.21514e-06
1.11824e-05
-2.13745e-06
1.10883e-05
-2.05407e-06
1.0996e-05
-1.96434e-06
1.09067e-05
-1.86716e-06
1.08213e-05
-1.7612e-06
1.07408e-05
-1.64512e-06
1.0666e-05
-1.51779e-06
1.05977e-05
-1.37836e-06
1.05365e-05
-1.22642e-06
1.0483e-05
-1.06198e-06
1.04378e-05
-8.8554e-07
1.04014e-05
-6.98072e-07
1.0374e-05
-5.00967e-07
1.0356e-05
-2.95996e-07
1.03473e-05
-8.52845e-08
1.0348e-05
1.28684e-07
1.03577e-05
3.42787e-07
1.0376e-05
5.54404e-07
1.04025e-05
7.61238e-07
1.04364e-05
9.61055e-07
1.04772e-05
1.15175e-06
1.05239e-05
1.3314e-06
1.05758e-05
1.49835e-06
1.06319e-05
1.65122e-06
1.06913e-05
1.78896e-06
1.07531e-05
1.91086e-06
1.08165e-05
2.01654e-06
1.08807e-05
2.10593e-06
1.0945e-05
2.1792e-06
1.1009e-05
2.23668e-06
1.10724e-05
2.27869e-06
1.11353e-05
2.30535e-06
1.11977e-05
2.31632e-06
1.12594e-05
2.31108e-06
1.13204e-05
2.28962e-06
1.13805e-05
2.25211e-06
1.14399e-05
2.19873e-06
1.14986e-05
2.12964e-06
1.15569e-05
2.04495e-06
1.16148e-05
1.94475e-06
1.16725e-05
1.82915e-06
1.17298e-05
1.69831e-06
1.17866e-05
1.55254e-06
1.18428e-05
1.3923e-06
1.18981e-05
1.21829e-06
1.1952e-05
1.03142e-06
1.20042e-05
8.32887e-07
1.20542e-05
6.2412e-07
1.21015e-05
4.06858e-07
1.21455e-05
1.83261e-07
1.21855e-05
-4.37196e-08
1.22208e-05
-2.70253e-07
1.2251e-05
-4.93412e-07
1.22756e-05
-7.10434e-07
1.22941e-05
-9.18632e-07
1.23063e-05
-1.11543e-06
1.23119e-05
-1.29846e-06
1.23105e-05
-1.46562e-06
1.23021e-05
-1.61516e-06
1.22866e-05
-1.74575e-06
1.2264e-05
-1.85653e-06
1.22344e-05
-1.94713e-06
1.21979e-05
-2.0176e-06
1.21545e-05
-2.06802e-06
1.21033e-05
-2.09808e-06
1.20441e-05
-2.10768e-06
1.19773e-05
-2.09851e-06
1.19038e-05
-2.07305e-06
1.18246e-05
-2.03396e-06
1.17408e-05
-1.98388e-06
1.16537e-05
-1.92519e-06
1.15645e-05
-1.85978e-06
1.14746e-05
-1.78889e-06
1.13852e-05
-1.7131e-06
1.12973e-05
-1.63231e-06
1.12117e-05
-1.54592e-06
1.11294e-05
-1.45302e-06
1.10507e-05
-1.3525e-06
1.09763e-05
-1.24357e-06
1.09065e-05
-1.12408e-06
1.08416e-05
-9.98891e-07
1.07827e-05
-8.43508e-07
1.07282e-05
-7.23441e-07
-4.58043e-07
9.8383e-06
7.13852e-07
9.8789e-06
9.46917e-07
9.92833e-06
1.17048e-06
9.98552e-06
1.38233e-06
1.00493e-05
1.58057e-06
1.01186e-05
1.76368e-06
1.01922e-05
1.93049e-06
1.02691e-05
2.08021e-06
1.03481e-05
2.21243e-06
1.04283e-05
2.32704e-06
1.05091e-05
2.42416e-06
1.05897e-05
2.50407e-06
1.067e-05
2.56707e-06
1.07497e-05
2.61333e-06
1.08291e-05
2.64272e-06
1.09082e-05
2.6546e-06
1.09871e-05
2.64818e-06
1.10659e-05
2.62309e-06
1.11446e-05
2.57893e-06
1.12233e-05
2.51526e-06
1.13022e-05
2.43167e-06
1.13813e-05
2.32775e-06
1.14604e-05
2.2032e-06
1.15395e-05
2.05789e-06
1.16181e-05
1.89198e-06
1.16959e-05
1.70595e-06
1.17722e-05
1.50068e-06
1.18464e-05
1.27748e-06
1.19178e-05
1.03806e-06
1.19855e-05
7.84618e-07
1.2049e-05
5.19818e-07
1.21072e-05
2.47095e-07
1.2159e-05
-2.86249e-08
1.22036e-05
-3.02261e-07
1.22404e-05
-5.70022e-07
1.2269e-05
-8.28328e-07
1.2289e-05
-1.07392e-06
1.23001e-05
-1.30392e-06
1.23022e-05
-1.5159e-06
1.22955e-05
-1.70795e-06
1.22801e-05
-1.8786e-06
1.22562e-05
-2.02692e-06
1.22243e-05
-2.15243e-06
1.21847e-05
-2.25509e-06
1.21377e-05
-2.33514e-06
1.20834e-05
-2.39285e-06
1.20213e-05
-2.42807e-06
1.19511e-05
-2.44087e-06
1.18733e-05
-2.43309e-06
1.17887e-05
-2.40743e-06
1.16981e-05
-2.36685e-06
1.16023e-05
-2.31437e-06
1.15025e-05
-2.25278e-06
1.13998e-05
-2.1844e-06
1.12955e-05
-2.11084e-06
1.11909e-05
-2.03291e-06
1.10874e-05
-1.95059e-06
1.09862e-05
-1.86316e-06
1.08885e-05
-1.7694e-06
1.07952e-05
-1.66787e-06
1.07072e-05
-1.55713e-06
1.06253e-05
-1.43597e-06
1.05504e-05
-1.30347e-06
1.04832e-05
-1.15913e-06
1.04241e-05
-1.00293e-06
1.03738e-05
-8.35273e-07
1.03328e-05
-6.57052e-07
1.03014e-05
-4.69555e-07
1.02799e-05
-2.74449e-07
1.02683e-05
-7.37229e-08
1.02667e-05
1.30312e-07
1.02747e-05
3.34762e-07
1.0292e-05
5.371e-07
1.03181e-05
7.35152e-07
1.03523e-05
9.26796e-07
1.03941e-05
1.11003e-06
1.04424e-05
1.28301e-06
1.04966e-05
1.44416e-06
1.05557e-05
1.59213e-06
1.06188e-05
1.7259e-06
1.06849e-05
1.84473e-06
1.07533e-05
1.94819e-06
1.08231e-05
2.03613e-06
1.08937e-05
2.10859e-06
1.09647e-05
2.1657e-06
1.10357e-05
2.2076e-06
1.11069e-05
2.23424e-06
1.1178e-05
2.24522e-06
1.12489e-05
2.24016e-06
1.13194e-05
2.21908e-06
1.13895e-05
2.18204e-06
1.1459e-05
2.12916e-06
1.15281e-05
2.06054e-06
1.15968e-05
1.9763e-06
1.1665e-05
1.87654e-06
1.17327e-05
1.76144e-06
1.17998e-05
1.63124e-06
1.1866e-05
1.48633e-06
1.1931e-05
1.32725e-06
1.19945e-05
1.15479e-06
1.2056e-05
9.69937e-07
1.2115e-05
7.73905e-07
1.21709e-05
5.68168e-07
1.22233e-05
3.54482e-07
1.22715e-05
1.35086e-07
1.23146e-05
-8.68002e-08
1.23519e-05
-3.07598e-07
1.2383e-05
-5.24542e-07
1.24075e-05
-7.34904e-07
1.24249e-05
-9.36044e-07
1.24349e-05
-1.12545e-06
1.24373e-05
-1.3008e-06
1.24317e-05
-1.46009e-06
1.24182e-05
-1.60165e-06
1.23968e-05
-1.7243e-06
1.23675e-05
-1.82723e-06
1.23305e-05
-1.91013e-06
1.22858e-05
-1.97289e-06
1.22329e-05
-2.01518e-06
1.21713e-05
-2.03648e-06
1.21012e-05
-2.03756e-06
1.20234e-05
-2.02071e-06
1.19389e-05
-1.98854e-06
1.18489e-05
-1.9439e-06
1.17546e-05
-1.88958e-06
1.16574e-05
-1.82801e-06
1.15587e-05
-1.76111e-06
1.14599e-05
-1.69009e-06
1.13622e-05
-1.61541e-06
1.12667e-05
-1.53679e-06
1.11742e-05
-1.45343e-06
1.10854e-05
-1.36425e-06
1.10009e-05
-1.26802e-06
1.09212e-05
-1.16386e-06
1.08468e-05
-1.0496e-06
1.07777e-05
-9.29843e-07
1.07152e-05
-7.80998e-07
1.06578e-05
-6.65993e-07
-4.11245e-07
9.79503e-06
6.84631e-07
9.83472e-06
9.07221e-07
9.88397e-06
1.12123e-06
9.94172e-06
1.32457e-06
1.00069e-05
1.51541e-06
1.00783e-05
1.69225e-06
1.01549e-05
1.85392e-06
1.02355e-05
1.99961e-06
1.03191e-05
2.12883e-06
1.04048e-05
2.24134e-06
1.04918e-05
2.3371e-06
1.05797e-05
2.41622e-06
1.0668e-05
2.47877e-06
1.07566e-05
2.52472e-06
1.08456e-05
2.55374e-06
1.0935e-05
2.56517e-06
1.10248e-05
2.55836e-06
1.1115e-05
2.53295e-06
1.12054e-05
2.48849e-06
1.12962e-05
2.42453e-06
1.13871e-05
2.3407e-06
1.14782e-05
2.23666e-06
1.15692e-05
2.11221e-06
1.16597e-05
1.96737e-06
1.17493e-05
1.8024e-06
1.18374e-05
1.61792e-06
1.19231e-05
1.41491e-06
1.20059e-05
1.19475e-06
1.20847e-05
9.59209e-07
1.21588e-05
7.10486e-07
1.22274e-05
4.51283e-07
1.22893e-05
1.85179e-07
1.23433e-05
-8.26583e-08
1.23888e-05
-3.47728e-07
1.24251e-05
-6.06353e-07
1.24519e-05
-8.55091e-07
1.24688e-05
-1.09082e-06
1.24757e-05
-1.31083e-06
1.24726e-05
-1.51283e-06
1.24598e-05
-1.69507e-06
1.24374e-05
-1.85621e-06
1.24059e-05
-1.99541e-06
1.23657e-05
-2.11227e-06
1.23173e-05
-2.2067e-06
1.22609e-05
-2.27876e-06
1.21964e-05
-2.32829e-06
1.21232e-05
-2.35493e-06
1.20418e-05
-2.35941e-06
1.19527e-05
-2.34405e-06
1.18569e-05
-2.31158e-06
1.17551e-05
-2.26509e-06
1.16485e-05
-2.20774e-06
1.15381e-05
-2.14244e-06
1.14253e-05
-2.0716e-06
1.13114e-05
-1.99694e-06
1.11978e-05
-1.91928e-06
1.10858e-05
-1.83857e-06
1.09766e-05
-1.75396e-06
1.08713e-05
-1.66413e-06
1.0771e-05
-1.56751e-06
1.06764e-05
-1.46257e-06
1.05885e-05
-1.34802e-06
1.05079e-05
-1.22289e-06
1.04353e-05
-1.08661e-06
1.03715e-05
-9.39079e-07
1.03169e-05
-7.80658e-07
1.0272e-05
-6.12136e-07
1.02371e-05
-4.34712e-07
1.02126e-05
-2.49942e-07
1.01986e-05
-5.96823e-08
1.0195e-05
1.33907e-07
1.02016e-05
3.28178e-07
1.0218e-05
5.20696e-07
1.02437e-05
7.0941e-07
1.02782e-05
8.92309e-07
1.03207e-05
1.0675e-06
1.03705e-05
1.23323e-06
1.04267e-05
1.38796e-06
1.04884e-05
1.53043e-06
1.05547e-05
1.6596e-06
1.06247e-05
1.77472e-06
1.06976e-05
1.87532e-06
1.07726e-05
1.96114e-06
1.08491e-05
2.0321e-06
1.09266e-05
2.08819e-06
1.10048e-05
2.12935e-06
1.10837e-05
2.15537e-06
1.11631e-05
2.16587e-06
1.12426e-05
2.16057e-06
1.13223e-05
2.13948e-06
1.14017e-05
2.10259e-06
1.14809e-05
2.04996e-06
1.15598e-05
1.98169e-06
1.16382e-05
1.89787e-06
1.17161e-05
1.79865e-06
1.17933e-05
1.68426e-06
1.18695e-05
1.55501e-06
1.19445e-05
1.41137e-06
1.20177e-05
1.25398e-06
1.20889e-05
1.08367e-06
1.21573e-05
9.0149e-07
1.22225e-05
7.08693e-07
1.22839e-05
5.06767e-07
1.23409e-05
2.97499e-07
1.23927e-05
8.32622e-08
1.24384e-05
-1.3248e-07
1.24774e-05
-3.46566e-07
1.25091e-05
-5.56293e-07
1.25332e-05
-7.58983e-07
1.25492e-05
-9.52049e-07
1.25568e-05
-1.13305e-06
1.25558e-05
-1.29975e-06
1.25459e-05
-1.45023e-06
1.25272e-05
-1.58296e-06
1.24997e-05
-1.69684e-06
1.24637e-05
-1.79116e-06
1.24191e-05
-1.86552e-06
1.23657e-05
-1.91953e-06
1.2303e-05
-1.95248e-06
1.22308e-05
-1.96425e-06
1.21498e-05
-1.95661e-06
1.20611e-05
-1.93198e-06
1.19658e-05
-1.89321e-06
1.18652e-05
-1.84333e-06
1.17608e-05
-1.78523e-06
1.16542e-05
-1.72137e-06
1.15467e-05
-1.65365e-06
1.14399e-05
-1.58323e-06
1.13349e-05
-1.51039e-06
1.12327e-05
-1.43464e-06
1.11342e-05
-1.35493e-06
1.104e-05
-1.27005e-06
1.09506e-05
-1.17866e-06
1.08666e-05
-1.0798e-06
1.07883e-05
-9.713e-07
1.07159e-05
-8.57491e-07
1.06507e-05
-7.15787e-07
1.05911e-05
-6.06323e-07
-3.63201e-07
9.76465e-06
6.5689e-07
9.80342e-06
8.68457e-07
9.85236e-06
1.07229e-06
9.91048e-06
1.26645e-06
9.97671e-06
1.44918e-06
1.005e-05
1.61901e-06
1.01291e-05
1.77479e-06
1.0213e-05
1.91568e-06
1.03008e-05
2.04109e-06
1.03915e-05
2.15065e-06
1.04844e-05
2.2442e-06
1.05789e-05
2.32165e-06
1.06748e-05
2.3829e-06
1.07718e-05
2.42772e-06
1.08699e-05
2.45562e-06
1.09691e-05
2.46598e-06
1.10692e-05
2.45826e-06
1.11701e-05
2.43208e-06
1.12716e-05
2.38697e-06
1.13736e-05
2.32253e-06
1.14759e-05
2.23839e-06
1.15782e-05
2.13433e-06
1.16802e-05
2.01024e-06
1.17813e-05
1.86626e-06
1.18809e-05
1.70278e-06
1.19783e-05
1.52053e-06
1.20727e-05
1.32058e-06
1.2163e-05
1.10439e-06
1.22485e-05
8.73748e-07
1.23281e-05
6.30855e-07
1.24009e-05
3.78452e-07
1.24658e-05
1.20361e-07
1.25214e-05
-1.38268e-07
1.25671e-05
-3.93474e-07
1.26025e-05
-6.41702e-07
1.2627e-05
-8.79664e-07
1.26406e-05
-1.1044e-06
1.26432e-05
-1.31337e-06
1.26348e-05
-1.50446e-06
1.26158e-05
-1.67606e-06
1.25866e-05
-1.82697e-06
1.25476e-05
-1.95643e-06
1.24994e-05
-2.06406e-06
1.24423e-05
-2.14966e-06
1.23765e-05
-2.21296e-06
1.23017e-05
-2.25343e-06
1.22177e-05
-2.27094e-06
1.21253e-05
-2.26699e-06
1.20252e-05
-2.24398e-06
1.19184e-05
-2.20477e-06
1.18059e-05
-2.15258e-06
1.16888e-05
-2.0907e-06
1.15685e-05
-2.02215e-06
1.14464e-05
-1.94941e-06
1.13237e-05
-1.87425e-06
1.12019e-05
-1.7975e-06
1.10823e-05
-1.71899e-06
1.09661e-05
-1.63777e-06
1.08543e-05
-1.55237e-06
1.07479e-05
-1.46111e-06
1.06478e-05
-1.36241e-06
1.05547e-05
-1.2549e-06
1.04693e-05
-1.13755e-06
1.03924e-05
-1.00972e-06
1.03246e-05
-8.71266e-07
1.02664e-05
-7.22464e-07
1.02183e-05
-5.64029e-07
1.01807e-05
-3.97066e-07
1.01538e-05
-2.23021e-07
1.01377e-05
-4.36254e-08
1.01325e-05
1.39106e-07
1.01379e-05
3.22773e-07
1.01536e-05
5.05033e-07
1.0179e-05
6.8395e-07
1.02137e-05
8.57629e-07
1.02569e-05
1.02427e-06
1.03079e-05
1.18223e-06
1.03659e-05
1.33003e-06
1.04299e-05
1.46642e-06
1.04991e-05
1.59041e-06
1.05726e-05
1.70122e-06
1.06496e-05
1.79833e-06
1.07293e-05
1.8814e-06
1.08112e-05
1.95021e-06
1.08948e-05
2.0046e-06
1.09798e-05
2.04438e-06
1.10659e-05
2.06923e-06
1.1153e-05
2.07878e-06
1.12407e-05
2.07283e-06
1.13288e-05
2.05136e-06
1.14171e-05
2.01433e-06
1.15053e-05
1.96175e-06
1.15933e-05
1.89371e-06
1.16808e-05
1.81031e-06
1.17677e-05
1.71175e-06
1.18537e-05
1.59829e-06
1.19384e-05
1.47031e-06
1.20214e-05
1.32837e-06
1.21022e-05
1.17317e-06
1.21803e-05
1.0056e-06
1.22551e-05
8.2674e-07
1.23259e-05
6.37876e-07
1.23921e-05
4.40501e-07
1.24532e-05
2.36466e-07
1.25081e-05
2.83699e-08
1.25559e-05
-1.80297e-07
1.25961e-05
-3.86736e-07
1.26281e-05
-5.88294e-07
1.26514e-05
-7.82351e-07
1.26657e-05
-9.6637e-07
1.26707e-05
-1.138e-06
1.26661e-05
-1.29511e-06
1.26517e-05
-1.43589e-06
1.26277e-05
-1.55893e-06
1.25941e-05
-1.66323e-06
1.2551e-05
-1.74812e-06
1.24985e-05
-1.81297e-06
1.24359e-05
-1.85698e-06
1.23629e-05
-1.87949e-06
1.22801e-05
-1.88139e-06
1.21883e-05
-1.86481e-06
1.20887e-05
-1.83242e-06
1.19828e-05
-1.78732e-06
1.18721e-05
-1.73266e-06
1.17583e-05
-1.67139e-06
1.16429e-05
-1.606e-06
1.15276e-05
-1.53836e-06
1.14138e-05
-1.46943e-06
1.13026e-05
-1.39919e-06
1.11949e-05
-1.32691e-06
1.10914e-05
-1.25145e-06
1.09928e-05
-1.17144e-06
1.08996e-05
-1.08541e-06
1.08121e-05
-9.92353e-07
1.07309e-05
-8.90108e-07
1.06562e-05
-7.82737e-07
1.05891e-05
-6.48731e-07
1.05281e-05
-5.45237e-07
-3.14603e-07
9.74583e-06
6.30547e-07
9.78376e-06
8.30532e-07
9.83241e-06
1.02364e-06
9.89083e-06
1.20804e-06
9.95796e-06
1.38204e-06
1.00327e-05
1.54422e-06
1.01141e-05
1.69344e-06
1.0201e-05
1.82878e-06
1.02925e-05
1.94959e-06
1.03877e-05
2.05541e-06
1.0486e-05
2.14591e-06
1.05868e-05
2.22085e-06
1.06898e-05
2.27996e-06
1.07947e-05
2.32283e-06
1.09014e-05
2.34892e-06
1.10097e-05
2.35763e-06
1.11194e-05
2.34853e-06
1.12303e-05
2.3212e-06
1.13421e-05
2.27518e-06
1.14545e-05
2.21009e-06
1.15673e-05
2.12565e-06
1.16799e-05
2.0217e-06
1.17919e-05
1.89826e-06
1.19026e-05
1.75557e-06
1.20112e-05
1.59414e-06
1.21169e-05
1.41481e-06
1.22188e-05
1.21874e-06
1.23157e-05
1.00742e-06
1.24068e-05
7.82672e-07
1.2491e-05
5.46648e-07
1.25673e-05
3.02176e-07
1.26342e-05
5.3461e-08
1.26907e-05
-1.94774e-07
1.27362e-05
-4.38936e-07
1.27701e-05
-6.75625e-07
1.27921e-05
-9.01723e-07
1.28022e-05
-1.11446e-06
1.28003e-05
-1.31146e-06
1.27866e-05
-1.49081e-06
1.27616e-05
-1.65104e-06
1.27257e-05
-1.79108e-06
1.26795e-05
-1.91021e-06
1.26234e-05
-2.00801e-06
1.25578e-05
-2.08406e-06
1.24826e-05
-2.13769e-06
1.23974e-05
-2.16829e-06
1.23029e-05
-2.17638e-06
1.21997e-05
-2.16384e-06
1.20889e-05
-2.13314e-06
1.19714e-05
-2.0873e-06
1.18485e-05
-2.02971e-06
1.17216e-05
-1.96375e-06
1.1592e-05
-1.89253e-06
1.14612e-05
-1.81861e-06
1.13307e-05
-1.74379e-06
1.12019e-05
-1.66873e-06
1.1076e-05
-1.59304e-06
1.09539e-05
-1.51568e-06
1.08367e-05
-1.43515e-06
1.07253e-05
-1.34972e-06
1.06206e-05
-1.25769e-06
1.05233e-05
-1.15762e-06
1.04341e-05
-1.04841e-06
1.03538e-05
-9.2939e-07
1.02829e-05
-8.00342e-07
1.02219e-05
-6.61485e-07
1.01713e-05
-5.13453e-07
1.01315e-05
-3.57259e-07
1.01028e-05
-1.94244e-07
1.00852e-05
-2.60262e-08
1.00787e-05
1.45528e-07
1.00832e-05
3.18261e-07
1.00984e-05
4.89916e-07
1.01236e-05
6.58673e-07
1.01585e-05
8.22744e-07
1.02024e-05
9.80431e-07
1.02544e-05
1.13017e-06
1.03139e-05
1.27055e-06
1.038e-05
1.40037e-06
1.04517e-05
1.51864e-06
1.05284e-05
1.62458e-06
1.06091e-05
1.71761e-06
1.06932e-05
1.79729e-06
1.07801e-05
1.86332e-06
1.08693e-05
1.91539e-06
1.09605e-05
1.95318e-06
1.10534e-05
1.97631e-06
1.11477e-05
1.98447e-06
1.12431e-05
1.9775e-06
1.13391e-05
1.95534e-06
1.14355e-05
1.91791e-06
1.15321e-05
1.86521e-06
1.16284e-05
1.79732e-06
1.17244e-05
1.71437e-06
1.18196e-05
1.61658e-06
1.19136e-05
1.50428e-06
1.2006e-05
1.37792e-06
1.20962e-05
1.23809e-06
1.21838e-05
1.08558e-06
1.22681e-05
9.21315e-07
1.23485e-05
7.46401e-07
1.24242e-05
5.62126e-07
1.24947e-05
3.70008e-07
1.25592e-05
1.7199e-07
1.26165e-05
-2.89952e-08
1.2666e-05
-2.29744e-07
1.27069e-05
-4.27663e-07
1.27388e-05
-6.20148e-07
1.27611e-05
-8.04646e-07
1.27734e-05
-9.78689e-07
1.27754e-05
-1.14001e-06
1.27669e-05
-1.28662e-06
1.27478e-05
-1.41683e-06
1.27183e-05
-1.52935e-06
1.26783e-05
-1.62324e-06
1.26279e-05
-1.69774e-06
1.25668e-05
-1.75189e-06
1.24945e-05
-1.78464e-06
1.2411e-05
-1.79605e-06
1.23174e-05
-1.78777e-06
1.22148e-05
-1.76219e-06
1.21046e-05
-1.72224e-06
1.19885e-05
-1.67123e-06
1.18683e-05
-1.61243e-06
1.17457e-05
-1.54883e-06
1.16227e-05
-1.48295e-06
1.15008e-05
-1.41645e-06
1.13812e-05
-1.34988e-06
1.1265e-05
-1.28294e-06
1.11528e-05
-1.21478e-06
1.10455e-05
-1.14412e-06
1.09436e-05
-1.06951e-06
1.08475e-05
-9.89351e-07
1.07577e-05
-9.02561e-07
1.06746e-05
-8.07005e-07
1.05984e-05
-7.0652e-07
1.05304e-05
-5.80695e-07
1.04687e-05
-4.83541e-07
-2.6613e-07
9.7374e-06
6.05233e-07
9.77476e-06
7.93169e-07
9.82321e-06
9.75188e-07
9.88187e-06
1.14938e-06
9.94975e-06
1.31416e-06
1.00258e-05
1.46813e-06
1.01091e-05
1.61014e-06
1.01987e-05
1.73925e-06
1.02936e-05
1.85472e-06
1.0393e-05
1.956e-06
1.04962e-05
2.04265e-06
1.06028e-05
2.11427e-06
1.07123e-05
2.17044e-06
1.08245e-05
2.21063e-06
1.09392e-05
2.23426e-06
1.1056e-05
2.24083e-06
1.11746e-05
2.22994e-06
1.12946e-05
2.20113e-06
1.14158e-05
2.15397e-06
1.15378e-05
2.08816e-06
1.16599e-05
2.00347e-06
1.17818e-05
1.89983e-06
1.19027e-05
1.77736e-06
1.20219e-05
1.63642e-06
1.21384e-05
1.47763e-06
1.22513e-05
1.30192e-06
1.23595e-05
1.11053e-06
1.2462e-05
9.04963e-07
1.25576e-05
6.86995e-07
1.26455e-05
4.58789e-07
1.27243e-05
2.23393e-07
1.27924e-05
-1.47154e-08
1.28492e-05
-2.51507e-07
1.28938e-05
-4.83577e-07
1.29259e-05
-7.07711e-07
1.29452e-05
-9.20983e-07
1.29515e-05
-1.12082e-06
1.29451e-05
-1.30505e-06
1.29262e-05
-1.47193e-06
1.28953e-05
-1.62014e-06
1.2853e-05
-1.74872e-06
1.27997e-05
-1.85695e-06
1.27359e-05
-1.94423e-06
1.26618e-05
-2.00986e-06
1.25769e-05
-2.05288e-06
1.24817e-05
-2.07302e-06
1.23768e-05
-2.07146e-06
1.22631e-05
-2.05017e-06
1.21417e-05
-2.01179e-06
1.2014e-05
-1.95955e-06
1.18812e-05
-1.89695e-06
1.1745e-05
-1.82749e-06
1.16068e-05
-1.75437e-06
1.14685e-05
-1.68026e-06
1.13314e-05
-1.60671e-06
1.11967e-05
-1.53407e-06
1.10655e-05
-1.46183e-06
1.09387e-05
-1.38889e-06
1.08173e-05
-1.31371e-06
1.07021e-05
-1.23452e-06
1.05939e-05
-1.14955e-06
1.04936e-05
-1.05726e-06
1.04017e-05
-9.56503e-07
1.03188e-05
-8.46575e-07
1.02457e-05
-7.272e-07
1.01828e-05
-5.98536e-07
1.01304e-05
-4.6114e-07
1.00891e-05
-3.15941e-07
1.00591e-05
-1.64181e-07
1.00404e-05
-7.36669e-09
1.00331e-05
1.52783e-07
1.00371e-05
3.14327e-07
1.00519e-05
4.75128e-07
1.00771e-05
6.33447e-07
1.01122e-05
7.87602e-07
1.01567e-05
9.35992e-07
1.02097e-05
1.07713e-06
1.02706e-05
1.20968e-06
1.03385e-05
1.33249e-06
1.04125e-05
1.44455e-06
1.0492e-05
1.54509e-06
1.05762e-05
1.63348e-06
1.06642e-05
1.7092e-06
1.07557e-05
1.77183e-06
1.08501e-05
1.82097e-06
1.09471e-05
1.85621e-06
1.10463e-05
1.87715e-06
1.11472e-05
1.88352e-06
1.12495e-05
1.8752e-06
1.13528e-05
1.85206e-06
1.14567e-05
1.81401e-06
1.15609e-05
1.76105e-06
1.16649e-05
1.69326e-06
1.17685e-05
1.61081e-06
1.18711e-05
1.51395e-06
1.19723e-05
1.40306e-06
1.20716e-05
1.27865e-06
1.21683e-05
1.14137e-06
1.22619e-05
9.92038e-07
1.23515e-05
8.31621e-07
1.24367e-05
6.6123e-07
1.25167e-05
4.82157e-07
1.25907e-05
2.95946e-07
1.2658e-05
1.04771e-07
1.27172e-05
-8.82312e-08
1.27677e-05
-2.80291e-07
1.2809e-05
-4.68867e-07
1.28402e-05
-6.51415e-07
1.2861e-05
-8.25454e-07
1.28709e-05
-9.88608e-07
1.28697e-05
-1.13872e-06
1.2857e-05
-1.27393e-06
1.28329e-05
-1.39272e-06
1.27974e-05
-1.49389e-06
1.27506e-05
-1.57647e-06
1.26923e-05
-1.63944e-06
1.2622e-05
-1.68152e-06
1.25393e-05
-1.702e-06
1.24452e-05
-1.70195e-06
1.23408e-05
-1.68333e-06
1.22274e-05
-1.64885e-06
1.2107e-05
-1.60176e-06
1.19812e-05
-1.5455e-06
1.18523e-05
-1.48346e-06
1.17221e-05
-1.41868e-06
1.15927e-05
-1.35353e-06
1.14654e-05
-1.28917e-06
1.13413e-05
-1.22579e-06
1.12213e-05
-1.16289e-06
1.1106e-05
-1.09948e-06
1.0996e-05
-1.03419e-06
1.0892e-05
-9.65465e-07
1.07943e-05
-8.91625e-07
1.07032e-05
-8.11522e-07
1.06192e-05
-7.23012e-07
1.05425e-05
-6.29796e-07
1.04743e-05
-5.12537e-07
1.04128e-05
-4.22019e-07
-2.18431e-07
9.73952e-06
5.80939e-07
9.77608e-06
7.56608e-07
9.82416e-06
9.27109e-07
9.88287e-06
1.09067e-06
9.9513e-06
1.24573e-06
1.00285e-05
1.39095e-06
1.01135e-05
1.52515e-06
1.02053e-05
1.64737e-06
1.03033e-05
1.7568e-06
1.04064e-05
1.85282e-06
1.05142e-05
1.93485e-06
1.06261e-05
2.00239e-06
1.07417e-05
2.05487e-06
1.08606e-05
2.09171e-06
1.09825e-05
2.11235e-06
1.1107e-05
2.11636e-06
1.12336e-05
2.10331e-06
1.1362e-05
2.07276e-06
1.14916e-05
2.02434e-06
1.1622e-05
1.95778e-06
1.17525e-05
1.87294e-06
1.18825e-05
1.76985e-06
1.20111e-05
1.64872e-06
1.21376e-05
1.51001e-06
1.22607e-05
1.35446e-06
1.23795e-05
1.18309e-06
1.24929e-05
9.97146e-07
1.25998e-05
7.98118e-07
1.2699e-05
5.87733e-07
1.27896e-05
3.68251e-07
1.28699e-05
1.43098e-07
1.29386e-05
-8.34194e-08
1.29949e-05
-3.07824e-07
1.30382e-05
-5.26882e-07
1.30681e-05
-7.37578e-07
1.30843e-05
-9.37189e-07
1.30868e-05
-1.12336e-06
1.30759e-05
-1.29412e-06
1.30519e-05
-1.44791e-06
1.30152e-05
-1.58353e-06
1.29666e-05
-1.70007e-06
1.29064e-05
-1.79677e-06
1.28349e-05
-1.87275e-06
1.2752e-05
-1.92692e-06
1.26576e-05
-1.95847e-06
1.25524e-05
-1.96779e-06
1.24372e-05
-1.95631e-06
1.23132e-05
-1.92616e-06
1.21816e-05
-1.88023e-06
1.2044e-05
-1.82191e-06
1.19019e-05
-1.75487e-06
1.17571e-05
-1.68271e-06
1.16115e-05
-1.60878e-06
1.14668e-05
-1.53555e-06
1.13243e-05
-1.46414e-06
1.11849e-05
-1.3947e-06
1.10497e-05
-1.32662e-06
1.09195e-05
-1.25871e-06
1.07952e-05
-1.18937e-06
1.06774e-05
-1.11681e-06
1.05671e-05
-1.03921e-06
1.04648e-05
-9.54989e-07
1.03713e-05
-8.62933e-07
1.0287e-05
-7.62297e-07
1.02126e-05
-6.52767e-07
1.01485e-05
-5.34448e-07
1.00952e-05
-4.07831e-07
1.0053e-05
-2.73765e-07
1.00222e-05
-1.33397e-07
1.0003e-05
1.18747e-08
9.99528e-06
1.60469e-07
9.99896e-06
3.10644e-07
1.00137e-05
4.60425e-07
1.0039e-05
6.08109e-07
1.00745e-05
7.52118e-07
1.01195e-05
8.90944e-07
1.01735e-05
1.02318e-06
1.02356e-05
1.14756e-06
1.03052e-05
1.26294e-06
1.03813e-05
1.36837e-06
1.04634e-05
1.46304e-06
1.05506e-05
1.54626e-06
1.06423e-05
1.61747e-06
1.0738e-05
1.67614e-06
1.08372e-05
1.72179e-06
1.09395e-05
1.75396e-06
1.10443e-05
1.77228e-06
1.11513e-05
1.77655e-06
1.126e-05
1.76657e-06
1.13698e-05
1.7422e-06
1.14805e-05
1.70336e-06
1.15915e-05
1.65004e-06
1.17024e-05
1.58236e-06
1.18127e-05
1.50049e-06
1.19219e-05
1.40473e-06
1.20295e-05
1.29552e-06
1.21347e-05
1.1734e-06
1.2237e-05
1.03908e-06
1.23356e-05
8.93402e-07
1.24299e-05
7.3734e-07
1.25191e-05
5.72006e-07
1.26026e-05
3.98702e-07
1.26795e-05
2.19031e-07
1.27487e-05
3.55623e-08
1.28092e-05
-1.48743e-07
1.28603e-05
-3.31376e-07
1.29013e-05
-5.09817e-07
1.29314e-05
-6.81577e-07
1.29502e-05
-8.44263e-07
1.29573e-05
-9.95619e-07
1.29522e-05
-1.13363e-06
1.29348e-05
-1.25659e-06
1.29052e-05
-1.36309e-06
1.28634e-05
-1.45204e-06
1.28091e-05
-1.52226e-06
1.2742e-05
-1.57231e-06
1.26615e-05
-1.60103e-06
1.25682e-05
-1.60872e-06
1.24632e-05
-1.59693e-06
1.23479e-05
-1.568e-06
1.22241e-05
-1.52502e-06
1.20938e-05
-1.47148e-06
1.19593e-05
-1.41096e-06
1.18227e-05
-1.34694e-06
1.16864e-05
-1.28239e-06
1.15521e-05
-1.21917e-06
1.14208e-05
-1.15791e-06
1.12936e-05
-1.09856e-06
1.11711e-05
-1.04044e-06
1.10541e-05
-9.82412e-07
1.09429e-05
-9.22998e-07
1.0838e-05
-8.60586e-07
1.07398e-05
-7.93444e-07
1.06487e-05
-7.20365e-07
1.05648e-05
-6.39164e-07
1.04885e-05
-5.53494e-07
1.04211e-05
-4.45096e-07
1.03605e-05
-3.61431e-07
-1.72119e-07
9.75026e-06
5.57361e-07
9.78626e-06
7.2061e-07
9.83403e-06
8.79343e-07
9.89277e-06
1.03192e-06
9.96165e-06
1.17686e-06
1.00398e-05
1.31283e-06
1.01262e-05
1.43867e-06
1.02202e-05
1.5534e-06
1.03209e-05
1.65616e-06
1.04275e-05
1.74622e-06
1.05394e-05
1.82294e-06
1.06561e-05
1.88568e-06
1.07771e-05
1.93381e-06
1.09021e-05
1.96672e-06
1.10305e-05
1.98394e-06
1.11619e-05