/*--------------------------------*- C++ -*----------------------------------*\
| =========                 |                                                 |
| \\      /  F ield         | OpenFOAM: The Open Source CFD Toolbox           |
|  \\    /   O peration     | Version:  2206                                  |
|   \\  /    A nd           | Website:  www.openfoam.com                      |
|    \\/     M anipulation  |                                                 |
\*---------------------------------------------------------------------------*/
FoamFile
{
    version     2.0;
    format      ascii;
    arch        "LSB;label=32;scalar=64";
    class       volScalarField;
    location    "20.0001";
    object      p;
}
// * * * * * * * * * * * * * * * * * * * * * * * * * * * * * * * * * * * * * //

dimensions      [0 2 -2 0 0 0 0];

internalField   nonuniform List<scalar> 
1878
(
-0.457256
-0.404907
-0.381755
-0.388394
-0.437168
-0.537069
-0.685287
-0.880633
-1.09769
-1.31074
-1.48066
-1.57158
-1.57417
-1.49533
-1.35117
-1.16407
-0.966137
-0.775984
-0.599106
-0.443411
-0.31373
-0.212051
-0.137437
-0.0851109
-0.047438
-0.024706
-0.0220029
-0.0403002
-0.0741719
-0.107321
-0.120546
-0.107898
-0.085165
-0.0489792
-0.00415374
0.0419137
0.0837316
0.116609
0.137402
0.143931
0.134643
0.108631
0.0656534
0.00735674
-0.0626542
-0.137684
-0.209733
-0.268025
-0.305334
-0.319695
-0.316784
-0.298229
-0.259792
-0.218134
-0.186394
-0.157851
-0.131182
-0.106384
-0.0823256
-0.0576605
-0.0336461
-0.0165177
-0.0125153
-0.0232641
-0.0471703
-0.0807566
-0.119173
-0.158198
-0.194469
-0.222012
-0.236357
-0.236039
-0.221471
-0.194414
-0.157607
-0.114601
-0.0690739
-0.0242805
0.0174164
0.0541475
0.0841539
0.106441
0.120909
0.127824
0.127554
0.120882
0.109178
0.0938593
0.0768773
0.0622942
0.0511815
0.0394415
0.0359154
0.0374583
0.0398794
0.0430649
0.044769
0.0436909
0.0394017
0.0311644
0.0187817
0.00262918
-0.0163278
-0.0367665
-0.0577649
-0.0784964
-0.0968665
-0.110629
-0.118268
-0.118702
-0.111219
-0.0964236
-0.0752197
-0.0491453
-0.0200628
0.0101266
0.0399451
0.0683084
0.0937931
0.115101
0.131679
0.143436
0.150646
0.153518
0.152768
-0.455104
-0.411452
-0.391265
-0.402195
-0.453589
-0.547653
-0.684635
-0.843984
-1.01658
-1.17307
-1.28558
-1.34572
-1.35476
-1.30583
-1.20018
-1.06332
-0.915232
-0.760936
-0.609178
-0.469419
-0.34806
-0.248049
-0.170965
-0.115163
-0.074484
-0.0438995
-0.0248347
-0.0174509
-0.0200203
-0.0299742
-0.0334623
-0.0214914
0.00623342
0.0406066
0.0755391
0.113054
0.149756
0.177688
0.194619
0.198705
0.18749
0.15947
0.1156
0.0590492
-0.00623871
-0.0714874
-0.131884
-0.176689
-0.196429
-0.209875
-0.220318
-0.205391
-0.179116
-0.168469
-0.160366
-0.15107
-0.14001
-0.124785
-0.104802
-0.0796964
-0.0510723
-0.0270125
-0.0147006
-0.0165526
-0.0323909
-0.059475
-0.0927549
-0.126652
-0.157454
-0.181967
-0.195252
-0.195356
-0.182629
-0.158575
-0.125268
-0.0857051
-0.0430566
-0.00014067
0.0406342
0.0769671
0.107095
0.130304
0.146214
0.154663
0.155419
0.14906
0.137343
0.121872
0.104976
0.0882477
0.0750886
0.0658039
0.0569806
0.0517062
0.049303
0.0485298
0.048617
0.047459
0.0434234
0.0354961
0.0234449
0.00777178
-0.0105287
-0.0303018
-0.0504708
-0.0699491
-0.0870461
-0.0997403
-0.106601
-0.106585
-0.0991276
-0.0845567
-0.0638189
-0.0382924
-0.00967071
0.020356
0.0503174
0.0787315
0.10418
0.125619
0.14249
0.154371
0.161607
0.164575
0.163654
-0.453452
-0.420818
-0.409811
-0.425746
-0.471601
-0.546982
-0.646081
-0.75672
-0.87367
-0.986363
-1.07621
-1.14044
-1.17317
-1.14918
-1.08309
-0.999642
-0.895662
-0.774501
-0.645917
-0.519329
-0.403941
-0.304292
-0.222308
-0.158129
-0.108611
-0.0702939
-0.0414864
-0.0208912
-0.0108727
-0.00443718
0.00962743
0.0308217
0.0638552
0.0984438
0.13223
0.163845
0.191809
0.212316
0.223868
0.224927
0.211768
0.181356
0.136318
0.0836688
0.0279487
-0.0203603
-0.0654408
-0.0881824
-0.100065
-0.121344
-0.132148
-0.125925
-0.122778
-0.133543
-0.1474
-0.156414
-0.157717
-0.150821
-0.134852
-0.109687
-0.0773673
-0.0467116
-0.0260385
-0.0181165
-0.0246946
-0.0439334
-0.0707544
-0.0995648
-0.125266
-0.145578
-0.157752
-0.158473
-0.147834
-0.126927
-0.0973258
-0.06154
-0.0220884
0.0185259
0.0579519
0.093848
0.123977
0.14773
0.164152
0.173072
0.175107
0.168419
0.156758
0.141438
0.124779
0.110225
0.0942359
0.0799434
0.0665519
0.0572544
0.0527794
0.0512018
0.0505718
0.0490855
0.0450344
0.0372424
0.025695
0.0110446
-0.00589226
-0.0242142
-0.04281
-0.060398
-0.0755614
-0.0866523
-0.0924055
-0.0917486
-0.0843251
-0.0702833
-0.0505039
-0.0261714
0.00125618
0.0302075
0.0591428
0.0865949
0.111281
0.132052
0.148431
0.160216
0.16713
0.169817
0.169133
-0.449477
-0.424636
-0.416634
-0.426909
-0.456552
-0.511851
-0.586189
-0.667282
-0.754997
-0.839861
-0.908016
-0.96767
-1.00962
-1.01583
-0.99991
-0.96739
-0.907229
-0.819841
-0.712804
-0.596496
-0.482255
-0.377984
-0.287166
-0.210799
-0.148239
-0.0982727
-0.0588785
-0.0266832
-0.00159899
0.016091
0.0343628
0.0570833
0.0839245
0.117424
0.148859
0.174963
0.196717
0.211819
0.217628
0.214472
0.198668
0.167346
0.126937
0.0858696
0.0563712
0.0290826
-0.00266705
-0.0200984
-0.0219288
-0.0226608
-0.034031
-0.0530084
-0.0814929
-0.114592
-0.143413
-0.16368
-0.175159
-0.176249
-0.164832
-0.140721
-0.1061
-0.0695564
-0.0412941
-0.025081
-0.0225106
-0.0332641
-0.053586
-0.0772194
-0.0990504
-0.116121
-0.12638
-0.126887
-0.118599
-0.101181
-0.0747349
-0.0422272
-0.00577315
0.032323
0.070072
0.105104
0.13336
0.156338
0.173238
0.183606
0.186069
0.179416
0.168913
0.156135
0.139065
0.119919
0.100488
0.0836561
0.0705194
0.0613931
0.0562303
0.0535872
0.0521213
0.0500795
0.0455085
0.037738
0.0269015
0.0133593
-0.00220906
-0.0189588
-0.0358148
-0.0514594
-0.0645509
-0.0737824
-0.0780853
-0.0769031
-0.0695127
-0.0561215
-0.0374249
-0.0144696
0.0114058
0.0387225
0.0659876
0.0916993
0.114818
0.134552
0.150083
0.161229
0.168077
0.171071
0.171244
-0.433425
-0.409903
-0.400138
-0.406494
-0.428579
-0.46729
-0.518083
-0.574392
-0.634265
-0.695305
-0.755425
-0.817997
-0.877909
-0.925893
-0.961831
-0.978966
-0.963126
-0.908458
-0.818731
-0.706039
-0.585072
-0.467837
-0.360519
-0.266835
-0.187718
-0.122419
-0.0690996
-0.0249773
0.0112406
0.0395819
0.0654948
0.0889773
0.112108
0.134935
0.153019
0.163976
0.17048
0.172157
0.170386
0.171016
0.161829
0.128979
0.0909983
0.0618514
0.0367413
0.0165806
0.0107598
0.0177511
0.0268454
0.0256746
0.00708767
-0.0200038
-0.0546811
-0.0940049
-0.131413
-0.162096
-0.185353
-0.197306
-0.191684
-0.168061
-0.131632
-0.0903006
-0.0542859
-0.0317926
-0.0213491
-0.0245173
-0.0386638
-0.0583685
-0.0782926
-0.0939147
-0.103103
-0.105354
-0.0990186
-0.0842058
-0.0616268
-0.03307
-0.000228054
0.0346538
0.071436
0.107947
0.136204
0.158097
0.176695
0.187496
0.190911
0.18718
0.176127
0.159003
0.139418
0.119703
0.101585
0.0857523
0.0730319
0.0639666
0.0582674
0.0550871
0.05317
0.050539
0.0457833
0.0383033
0.0279635
0.0151088
0.000448854
-0.015125
-0.0305807
-0.0447216
-0.0562805
-0.064033
-0.0670422
-0.0650436
-0.0575727
-0.0447234
-0.0270998
-0.00565596
0.0183902
0.0436771
0.068999
0.0932161
0.115119
0.133798
0.148724
0.159674
0.166697
0.170195
0.17064
-0.407622
-0.385046
-0.372281
-0.37114
-0.383826
-0.409704
-0.443188
-0.481226
-0.52252
-0.567507
-0.620398
-0.688283
-0.770225
-0.862075
-0.956745
-1.03326
-1.06722
-1.04392
-0.96392
-0.843485
-0.703975
-0.563419
-0.434147
-0.319855
-0.222802
-0.141437
-0.0729172
-0.0163255
0.0294574
0.0655395
0.0926396
0.113703
0.131765
0.144665
0.149761
0.151264
0.149312
0.142417
0.133708
0.124333
0.108165
0.081878
0.0520993
0.0280001
0.0157749
0.0137016
0.0200538
0.0236893
0.0247123
0.0257037
0.018186
-0.00458017
-0.0384296
-0.0783232
-0.121445
-0.162357
-0.195664
-0.21627
-0.215507
-0.191104
-0.15153
-0.10709
-0.0654624
-0.033357
-0.0155317
-0.0139267
-0.0254433
-0.0437206
-0.0635053
-0.0803644
-0.0916196
-0.095753
-0.0910133
-0.0792421
-0.0598835
-0.0342681
-0.00300719
0.0316645
0.0675285
0.102426
0.132899
0.156729
0.175896
0.18719
0.188513
0.183303
0.171814
0.155809
0.137636
0.119069
0.101645
0.085953
0.0737466
0.0653883
0.0597437
0.0564409
0.0544171
0.0513577
0.0465257
0.0390282
0.0287289
0.0160799
0.00184295
-0.0130226
-0.0274744
-0.0404357
-0.0508151
-0.0575806
-0.0599241
-0.0574367
-0.0499911
-0.0376711
-0.0210004
-0.000828594
0.0217659
0.045649
0.0696546
0.0925702
0.113343
0.131208
0.145679
0.15652
0.163724
0.16747
0.16809
-0.373469
-0.347749
-0.331067
-0.325526
-0.331674
-0.347826
-0.369565
-0.393678
-0.417323
-0.445016
-0.488009
-0.559416
-0.665406
-0.808337
-0.970129
-1.11305
-1.19834
-1.20149
-1.12206
-0.982454
-0.816558
-0.649021
-0.493702
-0.359333
-0.244419
-0.14659
-0.0668244
-0.00356517
0.0449991
0.0811429
0.11233
0.135941
0.153192
0.161437
0.158203
0.149636
0.137483
0.122741
0.109007
0.0960283
0.0796161
0.057951
0.0333638
0.0117069
0.0011297
0.00262118
0.0136646
0.0246752
0.0331297
0.0375746
0.0335668
0.011571
-0.021776
-0.0632657
-0.109021
-0.155314
-0.197052
-0.225001
-0.228872
-0.204692
-0.163656
-0.11748
-0.0734259
-0.0351223
-0.0114663
-0.00474313
-0.0115559
-0.0278129
-0.047243
-0.0656095
-0.080199
-0.0882587
-0.0889175
-0.0792326
-0.0614557
-0.0366193
-0.00603202
0.0279581
0.0628456
0.0967427
0.126902
0.151251
0.169311
0.180078
0.182969
0.179033
0.16879
0.15397
0.136718
0.118726
0.101432
0.0865826
0.0750222
0.0667584
0.0611864
0.0576647
0.0551412
0.0519752
0.0468592
0.0392634
0.0290835
0.0167035
0.00288672
-0.0114045
-0.025117
-0.0371915
-0.0466652
-0.0528357
-0.0544666
-0.0516209
-0.044126
-0.0321417
-0.0161664
0.0030237
0.0244485
0.0470243
0.0696654
0.0913298
0.111079
0.128183
0.142156
0.152755
0.15995
0.163887
0.16485
-0.333828
-0.303787
-0.28282
-0.273261
-0.275478
-0.287985
-0.305566
-0.319372
-0.327188
-0.335878
-0.361391
-0.42252
-0.532797
-0.705181
-0.919109
-1.11641
-1.24694
-1.27566
-1.20526
-1.06185
-0.884159
-0.700898
-0.531528
-0.383894
-0.257618
-0.150788
-0.0634857
0.00743007
0.0633541
0.104214
0.130511
0.147337
0.155832
0.157582
0.152957
0.142863
0.12935
0.114133
0.0989675
0.0840185
0.0677623
0.0494401
0.0313414
0.0183911
0.0107283
0.0115981
0.018265
0.0264057
0.0330962
0.033864
0.025704
0.00706777
-0.0220857
-0.0592912
-0.100988
-0.144176
-0.184215
-0.210901
-0.216969
-0.196953
-0.161405
-0.118856
-0.0763108
-0.0402184
-0.0169445
-0.00880089
-0.0133582
-0.0258958
-0.0418816
-0.0576028
-0.0704684
-0.078052
-0.0784333
-0.0705091
-0.0548482
-0.0321715
-0.00403516
0.0275292
0.0602428
0.0919611
0.120768
0.144942
0.162739
0.173323
0.176309
0.17266
0.163474
0.15017
0.134347
0.11777
0.101578
0.0877717
0.076955
0.0689142
0.063146
0.0589239
0.0553346
0.0515223
0.0458974
0.0381267
0.0281869
0.0164101
0.00347032
-0.00976568
-0.0223418
-0.0332874
-0.0416867
-0.0468479
-0.0481087
-0.045091
-0.0377433
-0.0262692
-0.0111456
0.00691368
0.0270198
0.0481845
0.0694272
0.0897929
0.108418
0.124643
0.13802
0.148313
0.15548
0.159621
0.160947
-0.289888
-0.254465
-0.228688
-0.21763
-0.223317
-0.242492
-0.266549
-0.281239
-0.278857
-0.267585
-0.280816
-0.347362
-0.471484
-0.646492
-0.852193
-1.04462
-1.17785
-1.21884
-1.16758
-1.04217
-0.880297
-0.702384
-0.538433
-0.389848
-0.261101
-0.153293
-0.0656598
0.00312195
0.0549192
0.0928893
0.120489
0.139813
0.150755
0.153721
0.149798
0.140382
0.127384
0.112321
0.0964602
0.0804713
0.0643178
0.0478401
0.0324384
0.021747
0.0163528
0.0164744
0.0204774
0.0255323
0.0286853
0.026984
0.0183628
0.000547189
-0.0254274
-0.0580078
-0.0948071
-0.13263
-0.166689
-0.189104
-0.192659
-0.179726
-0.151523
-0.115941
-0.0798944
-0.0490817
-0.0279365
-0.0182759
-0.0191585
-0.0276423
-0.0398787
-0.0526156
-0.0632962
-0.0698117
-0.0696937
-0.0622909
-0.0472319
-0.0257527
0.000508674
0.029863
0.0603415
0.0898783
0.116492
0.138588
0.154985
0.164978
0.168386
0.165727
0.158056
0.146499
0.132512
0.117624
0.103128
0.0902557
0.0796458
0.0713625
0.0649817
0.0599353
0.0554269
0.0505562
0.0443137
0.0364153
0.0267642
0.0156313
0.0035878
-0.00860986
-0.0200953
-0.0299666
-0.0373607
-0.0414995
-0.0424929
-0.0392715
-0.0320689
-0.0210785
-0.00673687
0.0103014
0.029223
0.0491306
0.0691197
0.0883211
0.105966
0.121449
0.134341
0.144399
0.151551
0.155862
0.157503
-0.270032
-0.232881
-0.206071
-0.194955
-0.207182
-0.237689
-0.26875
-0.2913
-0.306388
-0.321365
-0.347744
-0.399024
-0.490361
-0.631908
-0.801012
-0.968551
-1.08958
-1.12778
-1.07966
-0.982653
-0.84604
-0.688834
-0.532346
-0.388244
-0.262408
-0.156486
-0.0698986
-0.00129879
0.0506195
0.0886547
0.115826
0.13334
0.143421
0.14717
0.14471
0.136866
0.125079
0.111017
0.0959618
0.0804485
0.0654638
0.0503218
0.0374092
0.0269772
0.0212508
0.0202398
0.02233
0.0249458
0.0254762
0.0214128
0.0105082
-0.00650784
-0.0304444
-0.0600661
-0.0933722
-0.126788
-0.155717
-0.174392
-0.177622
-0.166426
-0.143172
-0.112591
-0.0809849
-0.0537857
-0.034776
-0.0253784
-0.0250285
-0.0310857
-0.0406011
-0.0509415
-0.059472
-0.0641667
-0.0630837
-0.0551491
-0.0414627
-0.020787
0.00403516
0.0318257
0.0606467
0.0885237
0.113657
0.134607
0.15028
0.16
0.163603
0.161526
0.154728
0.144246
0.131395
0.117545
0.10395
0.0916386
0.0811871
0.0727188
0.065945
0.0603251
0.0551417
0.0495666
0.04305
0.0351132
0.0256687
0.0149765
0.00355152
-0.00791628
-0.0186346
-0.0277822
-0.0345756
-0.0383312
-0.0386844
-0.0355555
-0.0285671
-0.0179193
-0.00405871
0.012377
0.0306093
0.0497851
0.0690418
0.0875649
0.104643
0.119693
0.132288
0.142184
0.149289
0.153648
0.155387
-0.978325
-0.987265
-0.999966
-1.01321
-1.03023
-1.06045
-1.12253
-1.23178
-1.38274
-1.54723
-1.68165
-1.75191
-1.72928
-1.61497
-1.42972
-1.20531
-0.971681
-0.754676
-0.568394
-0.413781
-0.310014
-0.255041
-0.244068
-0.278541
-0.346459
-0.446052
-0.567912
-0.680755
-0.758413
-0.791812
-0.778406
-0.721879
-0.633716
-0.528061
-0.419079
-0.318467
-0.231187
-0.160192
-0.115783
-0.0921464
-0.0868606
-0.104289
-0.145036
-0.210273
-0.289263
-0.381
-0.476533
-0.563061
-0.628016
-0.661129
-0.660622
-0.625947
-0.564065
-0.484911
-0.397944
-0.312225
-0.233019
-0.169462
-0.123379
-0.0900887
-0.0725382
-0.0699673
-0.0797845
-0.100899
-0.133443
-0.176656
-0.225972
-0.275497
-0.318798
-0.349356
-0.362213
-0.356754
-0.33298
-0.294373
-0.246331
-0.194222
-0.143006
-0.0988541
-0.0630281
-0.0383809
-0.0217208
-0.0150301
-0.0173182
-0.0269916
-0.0425513
-0.0625529
-0.0849536
-0.107117
-0.126093
-0.139008
-0.144636
-0.141556
-0.13015
-0.111671
-0.0886241
-0.0639952
-0.0382209
-0.0155125
-0.00203303
0.0041001
0.0061358
0.00302875
-0.00419039
-0.0146667
-0.0272649
-0.0405808
-0.0529937
-0.0629672
-0.069103
-0.0705261
-0.0670958
-0.0587972
-0.0464968
-0.0314972
-0.0155722
-0.000527948
0.0127042
0.0246133
0.0320213
0.0351203
0.0352879
0.0337053
0.0300922
0.0257467
-0.828083
-0.811643
-0.799233
-0.7973
-0.818823
-0.879201
-0.996633
-1.18249
-1.41724
-1.6559
-1.84684
-1.95498
-1.9412
-1.81662
-1.61101
-1.36011
-1.09651
-0.84785
-0.631954
-0.453168
-0.32761
-0.246454
-0.208878
-0.217799
-0.265238
-0.339363
-0.43555
-0.536813
-0.616044
-0.655926
-0.654743
-0.614564
-0.543939
-0.455376
-0.361534
-0.272959
-0.196704
-0.136719
-0.0961318
-0.0760313
-0.075006
-0.0966916
-0.140535
-0.20231
-0.282174
-0.375071
-0.470112
-0.555085
-0.617275
-0.647425
-0.643306
-0.606227
-0.54277
-0.464082
-0.378617
-0.289916
-0.212017
-0.154314
-0.10878
-0.0779243
-0.0622017
-0.0599619
-0.0707612
-0.0940395
-0.127532
-0.170637
-0.221244
-0.272212
-0.316731
-0.348523
-0.362655
-0.358253
-0.335354
-0.29734
-0.249385
-0.196972
-0.145577
-0.10005
-0.06206
-0.0315973
-0.0112001
-7.61675e-05
0.00246727
-0.00323079
-0.0151128
-0.0314439
-0.0504831
-0.0699068
-0.0869555
-0.0992502
-0.105733
-0.104683
-0.0968384
-0.0829554
-0.0640344
-0.0417374
-0.0202046
-0.00438027
0.00267599
0.00405301
0.000635613
-0.00703948
-0.0177874
-0.0313457
-0.0471832
-0.0632455
-0.0777273
-0.089074
-0.0957651
-0.0965936
-0.0915236
-0.0805466
-0.0647305
-0.045667
-0.0251639
-0.00516688
0.0118615
0.0268928
0.0407615
0.050089
0.0559354
0.0585763
0.0586267
0.0561057
0.0522479
0.0488262
-0.701909
-0.669053
-0.642559
-0.630642
-0.657686
-0.737929
-0.88818
-1.11117
-1.3817
-1.64703
-1.85852
-1.97735
-1.98727
-1.87146
-1.66664
-1.41174
-1.13969
-0.87778
-0.644568
-0.460283
-0.320317
-0.222942
-0.166401
-0.148348
-0.171273
-0.226982
-0.301053
-0.383584
-0.457809
-0.503795
-0.512576
-0.486652
-0.43249
-0.360573
-0.281897
-0.206169
-0.140385
-0.0887605
-0.0554301
-0.0414728
-0.0463685
-0.0709902
-0.113978
-0.171317
-0.250252
-0.341543
-0.433658
-0.51478
-0.572387
-0.600317
-0.59408
-0.557162
-0.497252
-0.422721
-0.33871
-0.255172
-0.186876
-0.132708
-0.0910985
-0.0629322
-0.0474715
-0.0442202
-0.0543394
-0.0777993
-0.11202
-0.154243
-0.203594
-0.254464
-0.29894
-0.33104
-0.346183
-0.34287
-0.321734
-0.28578
-0.239563
-0.188103
-0.136554
-0.0896399
-0.0497714
-0.0166219
0.00753188
0.0223829
0.0284246
0.0270176
0.0192164
0.00629474
-0.0100083
-0.0273135
-0.042997
-0.0558615
-0.0633925
-0.0644951
-0.0602914
-0.0501814
-0.0327002
-0.0144839
-0.000700389
0.00784768
0.0109379
0.00833518
0.000749159
-0.0106237
-0.0247499
-0.0408635
-0.0591188
-0.0777864
-0.0943111
-0.107011
-0.114348
-0.11499
-0.108737
-0.0957626
-0.0772642
-0.0549438
-0.0306462
-0.00646949
0.0152099
0.0349672
0.0538451
0.0678638
0.0773436
0.0830461
0.0856515
0.0854315
0.0830683
0.0797679
-0.596043
-0.555261
-0.522014
-0.512332
-0.545115
-0.636243
-0.796946
-1.02316
-1.28695
-1.54528
-1.75728
-1.88597
-1.90508
-1.80735
-1.61863
-1.3783
-1.11536
-0.857952
-0.631746
-0.4524
-0.308199
-0.203132
-0.133785
-0.0951632
-0.0889882
-0.120693
-0.178735
-0.243495
-0.305532
-0.351133
-0.367157
-0.352684
-0.312354
-0.254713
-0.189644
-0.125703
-0.0695004
-0.0257733
0.00240981
0.013357
0.00642357
-0.0180585
-0.059698
-0.119532
-0.196941
-0.284308
-0.371597
-0.446894
-0.49951
-0.5248
-0.518769
-0.485244
-0.432482
-0.362299
-0.284689
-0.216876
-0.159877
-0.113209
-0.0774437
-0.0513662
-0.0343358
-0.0282798
-0.0358193
-0.057348
-0.090502
-0.131235
-0.177551
-0.226353
-0.269515
-0.300912
-0.316502
-0.314239
-0.295317
-0.262039
-0.218466
-0.169242
-0.118954
-0.0717557
-0.0302055
0.00462804
0.031549
0.0496551
0.0592202
0.0611791
0.0564713
0.0462918
0.0322721
0.0166141
0.0011264
-0.0122497
-0.0203528
-0.0223462
-0.0246345
-0.018615
-0.00233874
0.00947129
0.0172883
0.0222286
0.0218122
0.0157902
0.00537864
-0.00877355
-0.0256883
-0.0441443
-0.0639996
-0.084379
-0.102416
-0.116102
-0.123922
-0.124534
-0.117522
-0.103311
-0.0830656
-0.0584788
-0.0314514
-0.00413234
0.021568
0.0456661
0.0675388
0.0851209
0.098025
0.106661
0.11144
0.112858
0.111686
0.108805
-0.513852
-0.471115
-0.43657
-0.430922
-0.469753
-0.564579
-0.720052
-0.930508
-1.17004
-1.40598
-1.60838
-1.73735
-1.7609
-1.67324
-1.50407
-1.28554
-1.04497
-0.81327
-0.610775
-0.440117
-0.301885
-0.197646
-0.123801
-0.0740929
-0.0463137
-0.0453168
-0.076164
-0.126479
-0.175823
-0.215752
-0.231744
-0.222806
-0.195102
-0.148377
-0.0943078
-0.0402417
0.00804964
0.0459258
0.0703623
0.0792073
0.0712665
0.0464546
0.00377149
-0.0561751
-0.130344
-0.212382
-0.292622
-0.360002
-0.407308
-0.428868
-0.425629
-0.399351
-0.350852
-0.287707
-0.229241
-0.180822
-0.138471
-0.102764
-0.0731163
-0.0483324
-0.0283604
-0.0175786
-0.020456
-0.0378005
-0.0674918
-0.105636
-0.148203
-0.19259
-0.233157
-0.262968
-0.278114
-0.277025
-0.260392
-0.230136
-0.189738
-0.143323
-0.0950823
-0.0487242
-0.00675853
0.0293595
0.0582127
0.0787705
0.091101
0.0958057
0.0936105
0.0855271
0.0731314
0.0581586
0.0420182
0.027663
0.0187119
0.0119585
0.00594727
0.0112653
0.0234419
0.0299269
0.0340909
0.0354114
0.0320448
0.0243377
0.0123771
-0.00341311
-0.0220198
-0.0420682
-0.0629457
-0.0840217
-0.102751
-0.116875
-0.124891
-0.125416
-0.117982
-0.103201
-0.0820677
-0.0562326
-0.0276264
0.00166271
0.0300068
0.0568878
0.0811545
0.10121
0.116501
0.127145
0.133484
0.136039
0.135365
0.132018
)
;

boundaryField
{
    inlet
    {
        type            zeroGradient;
    }
    outlet
    {
        type            fixedValue;
        value           nonuniform List<scalar> 0();
    }
    topWall
    {
        type            zeroGradient;
    }
    lowerWall
    {
        type            zeroGradient;
    }
    leadingEdge
    {
        type            zeroGradient;
    }
    trailingEdge
    {
        type            zeroGradient;
    }
    upperSurface
    {
        type            zeroGradient;
    }
    lowerSurface
    {
        type            zeroGradient;
    }
    frontAndBack
    {
        type            empty;
    }
    procBoundary5to0
    {
        type            processor;
        value           uniform -1.1508;
    }
    procBoundary5to1
    {
        type            processor;
        value           nonuniform List<scalar> 
126
(
-1.18876
-1.23261
-1.26516
-1.28123
-1.28344
-1.27703
-1.27465
-1.30261
-1.35248
-1.40452
-1.42206
-1.38365
-1.28478
-1.13441
-0.953003
-0.765137
-0.590685
-0.441455
-0.327869
-0.259025
-0.233598
-0.250961
-0.312844
-0.403204
-0.533499
-0.677266
-0.793716
-0.869018
-0.894495
-0.867112
-0.794546
-0.690199
-0.569158
-0.446622
-0.333787
-0.236718
-0.162371
-0.112955
-0.0850783
-0.0791194
-0.094729
-0.133389
-0.194642
-0.270962
-0.359771
-0.453701
-0.539567
-0.605466
-0.641689
-0.644718
-0.614975
-0.558421
-0.483606
-0.400064
-0.317934
-0.241715
-0.175339
-0.128403
-0.0942896
-0.0743783
-0.0691441
-0.0764599
-0.0960025
-0.127504
-0.168395
-0.214864
-0.261787
-0.3027
-0.331232
-0.343257
-0.337235
-0.313785
-0.276485
-0.230489
-0.181129
-0.130926
-0.0869648
-0.0555304
-0.0357024
-0.0242779
-0.0227782
-0.0292268
-0.0422573
-0.0617697
-0.0857467
-0.111581
-0.13652
-0.157515
-0.171499
-0.176373
-0.171686
-0.157273
-0.134846
-0.107293
-0.0776252
-0.048437
-0.0239644
-0.00453034
0.00905076
0.0170479
0.0183747
0.0145569
0.00783786
-0.00085867
-0.0113598
-0.0217451
-0.0303618
-0.036075
-0.0385661
-0.0371742
-0.0320781
-0.0241235
-0.0140968
-0.0025272
0.00940177
0.0181376
0.0222056
0.0228622
0.0219577
0.0175149
0.0118116
0.00583671
-0.00141176
0.0212978
0.0212978
0.017273
)
;
    }
    procBoundary5to4
    {
        type            processor;
        value           nonuniform List<scalar> 
15
(
-0.52328
-0.510258
-0.497554
-0.484007
-0.464522
-0.437706
-0.406036
-0.370415
-0.331438
-0.313387
-0.972065
-0.844327
-0.732949
-0.633669
-0.565079
)
;
    }
    procBoundary5to6
    {
        type            processor;
        value           nonuniform List<scalar> 
15
(
0.149096
0.149096
0.160007
0.166353
0.169173
0.168227
0.16611
0.163271
0.159802
0.156763
0.154658
0.0459203
0.0765519
0.104551
0.126979
)
;
    }
}


// ************************************************************************* //
