/*--------------------------------*- C++ -*----------------------------------*\
| =========                 |                                                 |
| \\      /  F ield         | OpenFOAM: The Open Source CFD Toolbox           |
|  \\    /   O peration     | Version:  2206                                  |
|   \\  /    A nd           | Website:  www.openfoam.com                      |
|    \\/     M anipulation  |                                                 |
\*---------------------------------------------------------------------------*/
FoamFile
{
    version     2.0;
    format      ascii;
    arch        "LSB;label=32;scalar=64";
    class       volScalarField;
    location    "19.5";
    object      p;
}
// * * * * * * * * * * * * * * * * * * * * * * * * * * * * * * * * * * * * * //

dimensions      [0 2 -2 0 0 0 0];

internalField   nonuniform List<scalar> 
3080
(
-0.00961511
-0.00835745
-0.00635385
-0.00373127
-0.000650703
0.00270583
0.00615613
0.00952926
0.0125803
0.0149997
0.0170457
0.018902
0.0202451
0.0209039
0.020972
0.0205334
0.0196819
0.0185429
0.0172524
0.0159522
0.0147832
0.0137426
0.0130116
0.0125915
0.0124136
0.0124824
0.0128055
0.0131773
0.0135084
0.0138573
0.0142012
0.0139667
0.0130262
0.0116853
0.0100026
0.00802774
0.00583031
0.00349262
0.00112033
-0.00117314
-0.00327188
-0.0050627
-0.00644271
-0.00732634
-0.00766049
-0.00744607
-0.00668468
-0.00542294
-0.00373886
-0.00172945
0.00049282
0.00281316
0.00512534
0.00728121
0.00905777
0.0105748
0.012042
0.0132681
0.014063
0.0144685
0.014528
0.0142847
0.0138015
0.0131515
0.0124123
0.0116609
0.0108801
0.0101966
0.00973571
0.00931413
0.00873087
0.00841809
0.00826618
0.00791837
0.00752267
0.00716157
0.00665331
0.00566604
0.00432583
0.00279462
0.00111945
-0.000658269
-0.00248924
-0.00430589
-0.0060361
-0.00760705
-0.00894762
-0.00999414
-0.0106947
-0.0110159
-0.0109634
-0.0105371
-0.00976586
-0.00869795
-0.0073937
-0.00592262
-0.00435722
-0.00276438
-0.00123014
9.27661e-05
0.0012093
0.0023381
0.00340519
0.00421394
0.00476743
0.00509786
0.00522289
0.00517224
0.0049852
0.00470495
0.00437434
0.00400677
0.0036606
0.00335742
0.0030499
0.00275477
0.00256922
0.00243021
0.00222557
0.00210318
0.00175306
0.00172618
-0.000445656
-0.0103878
-0.00921094
-0.0072949
-0.00476946
-0.00179899
0.00142976
0.00472922
0.00793758
0.0108428
0.013051
0.014769
0.0163586
0.017481
0.0178917
0.0177224
0.0170706
0.016031
0.0147338
0.0133231
0.0119487
0.0107571
0.00976528
0.00910939
0.00880275
0.00881357
0.00911249
0.00962793
0.0102441
0.0108525
0.0113726
0.0119113
0.012282
0.0118232
0.0107262
0.00929307
0.00758493
0.00562546
0.0034864
0.00127678
-0.000892472
-0.00290575
-0.00464746
-0.00601194
-0.0069105
-0.00728635
-0.00713577
-0.00645861
-0.00530008
-0.0037367
-0.00186523
0.000200959
0.00234561
0.00446912
0.00644982
0.00802563
0.00923062
0.0104242
0.0114407
0.0120137
0.0122028
0.012068
0.0116589
0.0110402
0.0102885
0.00948468
0.00870879
0.00797927
0.0073671
0.00697555
0.00669746
0.00634556
0.00618456
0.00619905
0.0060917
0.00587014
0.00560794
0.00542392
0.00490383
0.00382024
0.00246881
0.00101005
-0.000556691
-0.00220662
-0.00386886
-0.00547421
-0.00695104
-0.00822752
-0.00923982
-0.00993505
-0.010276
-0.0102679
-0.00990911
-0.00922645
-0.00826634
-0.00708747
-0.00575827
-0.0043507
-0.00292819
-0.00155671
-0.000398172
0.000457742
0.00134178
0.00223668
0.00286523
0.00323469
0.00340179
0.00338612
0.00321966
0.00294624
0.00261017
0.00224546
0.00187196
0.00159512
0.00148435
0.00125445
0.000889073
0.000864573
0.00099365
0.00097963
0.000921805
0.00087811
0.00108327
-0.000410798
-0.0103619
-0.00928555
-0.00748674
-0.00509581
-0.00227856
0.000774915
0.00387134
0.00685276
0.00955893
0.0115474
0.0128931
0.0142572
0.0150655
0.0151548
0.0146997
0.013794
0.0125342
0.0110576
0.00952314
0.00807694
0.00685066
0.00591921
0.00533845
0.0051611
0.00536323
0.00589579
0.00666954
0.00756265
0.00845442
0.00924061
0.00990494
0.0106787
0.0108995
0.0101193
0.00892599
0.00754619
0.00587079
0.00396844
0.00195868
-5.54389e-05
-0.0019582
-0.00363116
-0.00496695
-0.0058749
-0.00629636
-0.00622227
-0.00565034
-0.00462392
-0.00321623
-0.00152235
0.000345339
0.00227008
0.00415464
0.005912
0.00728208
0.00813473
0.00904802
0.00979159
0.0100867
0.0100163
0.00964686
0.00903597
0.00825312
0.00737932
0.00650278
0.00570191
0.00502601
0.00448558
0.0041401
0.00395779
0.00389407
0.0039791
0.00416042
0.0043218
0.00439342
0.00431871
0.00424559
0.00421161
0.00353389
0.00233484
0.00115676
-0.000144115
-0.00157586
-0.00304794
-0.00449961
-0.00586034
-0.00705662
-0.00802499
-0.00871139
-0.00907827
-0.00912619
-0.00885329
-0.00828346
-0.00745996
-0.00643874
-0.00528596
-0.00407198
-0.00285875
-0.00169158
-0.000709291
-0.000137903
0.000469884
0.00116949
0.00156465
0.00170962
0.00168136
0.0014972
0.00118555
0.000799084
0.000394674
-5.08837e-06
-0.000363736
-0.000556512
-0.000608452
-0.000745185
-0.000934795
-0.000820471
-0.000544007
-0.00034873
-0.000228508
-7.1827e-05
0.000258736
-0.00031471
-0.0095019
-0.00854755
-0.00689856
-0.0046815
-0.00205948
0.000777263
0.00362901
0.00632276
0.00872875
0.0104553
0.0112595
0.0127273
0.0131209
0.0128275
0.0120368
0.0108168
0.00931503
0.00766447
0.00600358
0.00447215
0.00320887
0.00232322
0.00182623
0.00178722
0.00218231
0.00295026
0.00399665
0.00519965
0.00643082
0.0075554
0.00846022
0.00928868
0.0101891
0.0099033
0.00882878
0.00787147
0.00654065
0.00491297
0.00314336
0.00131974
-0.000444219
-0.00202696
-0.00331968
-0.00422987
-0.00470325
-0.00471825
-0.00427267
-0.00340517
-0.00218673
-0.000708017
0.000923613
0.00259003
0.00418569
0.00564263
0.00676173
0.00719743
0.00796215
0.00839438
0.00834845
0.00798432
0.00733095
0.00648304
0.00553081
0.00454445
0.00359637
0.00276241
0.00210678
0.00163979
0.00140141
0.00137377
0.00153056
0.00184269
0.00224343
0.00265937
0.00303813
0.00327318
0.00336941
0.00366753
0.00356209
0.00232352
0.00152626
0.000551342
-0.000632706
-0.00188532
-0.00316095
-0.00438371
-0.0054819
-0.00639459
-0.00706716
-0.00746264
-0.00757631
-0.00740473
-0.00696919
-0.00630796
-0.00547266
-0.00452592
-0.00353664
-0.00256824
-0.00165713
-0.000887055
-0.000605852
-0.000304494
0.000278234
0.000357139
0.000224157
-1.27573e-05
-0.000397309
-0.000892342
-0.00139939
-0.00183493
-0.00226212
-0.00263378
-0.00283144
-0.00289829
-0.00288705
-0.00277
-0.0024796
-0.00207452
-0.0017276
-0.00134716
-0.000950495
-0.000490589
-0.000258815
-0.00782185
-0.00700591
-0.00553486
-0.00352965
-0.00114889
0.0014233
0.00399436
0.00638701
0.00846905
0.0100384
0.0107888
0.0116569
0.0115763
0.0108436
0.00972384
0.00828892
0.00656574
0.00470167
0.00288703
0.00126203
-3.63702e-05
-0.00089647
-0.00130439
-0.0012027
-0.000616596
0.000386436
0.00170765
0.00322164
0.00479616
0.0062985
0.00759493
0.00862613
0.00961439
0.00988566
0.00918509
0.00863749
0.00766442
0.00634498
0.00483156
0.00320492
0.0015906
0.000110623
-0.00112928
-0.0020359
-0.00256472
-0.00267685
-0.00237251
-0.00168722
-0.000687594
0.000544343
0.00190773
0.00328828
0.00457897
0.00570545
0.00649926
0.00675872
0.00729999
0.0073411
0.00687717
0.00612707
0.00521201
0.00416635
0.00303452
0.00189982
0.000854568
-2.13738e-05
-0.000664375
-0.00106237
-0.00118757
-0.00105226
-0.000685985
-0.000134088
0.000534483
0.00124117
0.00191128
0.00247611
0.00292392
0.00332982
0.00336064
0.00261796
0.00224457
0.00153094
0.000619494
-0.000371137
-0.00146701
-0.00254546
-0.0035403
-0.00439483
-0.0050529
-0.00548131
-0.00566878
-0.00561209
-0.00532875
-0.00485217
-0.00422755
-0.00351171
-0.00277038
-0.0020656
-0.00143594
-0.000945146
-0.000856823
-0.000765453
-0.000436579
-0.000703677
-0.00119685
-0.00164176
-0.00219441
-0.00287376
-0.00350573
-0.00406524
-0.00454336
-0.00488791
-0.00506012
-0.00507142
-0.00493604
-0.00464209
-0.00419837
-0.00363671
-0.0030374
-0.00235891
-0.00167943
-0.000968011
-0.00034214
-0.00422302
-0.00331564
-0.00236978
-0.00135903
-0.000426928
0.0265129
0.0274461
0.0285929
0.029909
0.0313461
0.0328557
0.0343905
0.0359039
0.0373496
0.0386835
0.0398664
0.0408653
0.041656
0.0422232
0.0425611
0.0426723
0.0425651
0.0422488
0.0417768
0.0411483
0.0403834
0.0395027
0.0385237
0.0374606
0.0363245
0.0351231
0.0338621
0.0325458
0.0311782
0.0297644
0.0283112
0.026828
0.0253278
0.0238264
0.0223436
0.0209022
0.0195282
0.0182489
0.0170923
0.0160858
0.0152548
0.014622
0.0142072
0.0140166
0.0140364
0.0142767
0.0147263
0.0153669
0.016174
0.017118
0.0181646
0.0192764
0.0204148
0.0215409
0.0226176
0.0236115
0.0244946
0.0252441
0.0258433
0.0262809
0.0265516
0.0266549
0.0265949
0.0263758
0.0260211
0.0255428
0.0249461
0.0242417
0.0234398
0.0225493
0.0215775
0.0205305
0.0194142
0.0182347
0.0169986
0.0157146
0.0143929
0.0130466
0.0116911
0.0103441
0.00902596
0.00775897
0.00656613
0.00547037
0.00449359
0.00365558
0.00297312
0.00245965
0.00212598
0.00197774
0.00199401
0.00218065
0.00252586
0.00301263
0.00362028
0.00432508
0.00510096
0.00592049
0.00675585
0.00757966
0.00836564
0.00908985
0.00973187
0.0102748
0.0107056
0.0110149
0.011197
0.01125
0.0111749
0.0109754
0.0106553
0.0102234
0.00969578
0.00907239
0.00836054
0.00756829
0.00670365
0.00577479
0.00479054
0.0037605
0.00269774
0.00161366
0.000525663
0.0262831
0.0272452
0.0284264
0.0297801
0.0312557
0.0328039
0.0343778
0.03593
0.0374132
0.0387819
0.0399944
0.0410166
0.0418233
0.0423993
0.042739
0.0428464
0.042733
0.0424258
0.0419268
0.0412771
0.0404952
0.0396004
0.03861
0.0375383
0.0363958
0.0351898
0.033925
0.0326049
0.0312328
0.0298128
0.0283513
0.0268572
0.0253432
0.0238249
0.0223221
0.0208585
0.0194604
0.0181563
0.0169753
0.0159458
0.0150946
0.0144452
0.0140151
0.0138047
0.0138335
0.0140863
0.0145518
0.0152121
0.0160429
0.0170141
0.0180904
0.0192334
0.0204037
0.0215611
0.0226661
0.0236847
0.0245884
0.0253544
0.0259654
0.0264105
0.026684
0.0267854
0.0267211
0.0265076
0.0261487
0.0256581
0.0250508
0.0243378
0.0235289
0.0226325
0.0216555
0.0206037
0.0194824
0.0182969
0.0170538
0.0157608
0.0144284
0.0130692
0.0116986
0.0103342
0.00899701
0.00771004
0.00649699
0.00538163
0.00438678
0.00353281
0.00283723
0.00231401
0.0019718
0.00180994
0.00183732
0.00203681
0.00239661
0.00290017
0.0035268
0.00425237
0.0050502
0.00589215
0.00675014
0.00759601
0.00840227
0.00914449
0.00980189
0.0103574
0.0107977
0.0111136
0.0112994
0.0113532
0.0112761
0.0110736
0.0107542
0.0103252
0.0097886
0.00915714
0.00843813
0.007639
0.00676751
0.00583121
0.00483881
0.00379906
0.00272366
0.001632
0.000523414
0.0259129
0.0269211
0.0281602
0.0295785
0.0311206
0.0327352
0.0343756
0.0359945
0.0375424
0.0389698
0.0402317
0.0412914
0.0421226
0.0427094
0.0430465
0.0431386
0.0430015
0.0426639
0.042144
0.0414681
0.0406604
0.0397426
0.0387334
0.037647
0.0364938
0.0352801
0.0340093
0.0326833
0.0313039
0.0298738
0.0283984
0.026886
0.0253489
0.0238027
0.0222673
0.0207672
0.0193304
0.0179871
0.0167678
0.015703
0.0148218
0.0141497
0.013704
0.0134934
0.0135254
0.0137922
0.0142805
0.0149722
0.0158425
0.0168598
0.017987
0.0191833
0.0204078
0.0216169
0.0227682
0.0238265
0.0247628
0.0255535
0.0261811
0.0266345
0.0269076
0.0270011
0.0269256
0.0266981
0.0263249
0.0258208
0.0251998
0.024474
0.023654
0.0227482
0.021763
0.0207036
0.0195743
0.0183797
0.0171251
0.0158179
0.0144677
0.0130874
0.0116922
0.0102999
0.00893222
0.00761339
0.00636856
0.00522297
0.00420073
0.00332352
0.0026102
0.00207573
0.00172963
0.00157283
0.00160478
0.00181876
0.00219966
0.00272992
0.003388
0.00414857
0.00498368
0.00586386
0.0067601
0.00764266
0.00848227
0.00925366
0.00993543
0.0105102
0.0109647
0.0112894
0.0114786
0.0115301
0.0114488
0.0112407
0.0109141
0.0104754
0.00993179
0.0092922
0.00856452
0.00775635
0.00687515
0.00592854
0.00492357
0.00387235
0.0027773
0.00167382
0.000521403
0.0254637
0.0265302
0.0278416
0.0293389
0.0309597
0.03265
0.0343658
0.0360625
0.0376885
0.0391885
0.0405111
0.041617
0.0424781
0.0430775
0.04341
0.0434847
0.0433241
0.0429577
0.0424069
0.041698
0.0408588
0.0399133
0.0388813
0.0377775
0.0366118
0.0353893
0.0341117
0.0327791
0.0313912
0.029949
0.0284566
0.0269214
0.0253555
0.0237745
0.0221982
0.0206522
0.019167
0.0177743
0.0165068
0.0153972
0.0144778
0.013777
0.0133126
0.0131004
0.0131384
0.0134237
0.0139403
0.0146706
0.0155898
0.0166644
0.0178549
0.0191182
0.0204106
0.0216848
0.0228939
0.0240017
0.0249784
0.0257995
0.026447
0.0269097
0.0271832
0.0272709
0.0271861
0.0269386
0.0265453
0.0260213
0.0253815
0.0246391
0.0238049
0.0228873
0.0218921
0.0208235
0.0196847
0.018479
0.0172106
0.015886
0.0145143
0.0131081
0.0116826
0.0102558
0.00885008
0.0074916
0.00620721
0.00502355
0.00396623
0.00305899
0.00232253
0.0017735
0.00142271
0.0012708
0.00131437
0.00154805
0.00195665
0.00252144
0.00321962
0.00402447
0.00490644
0.00583463
0.00677885
0.00770728
0.00858851
0.00939623
0.0101083
0.010707
0.0111786
0.0115136
0.0117072
0.0117588
0.0116742
0.0114604
0.0111249
0.0106762
0.0101226
0.00947306
0.00873563
0.00791772
0.00702611
0.00606858
0.00504922
0.00398464
0.00286044
0.00174003
0.000518831
0.0249602
0.0260789
0.0274608
0.0290383
0.0307429
0.0325202
0.0343276
0.0361203
0.0378406
0.0394238
0.0408131
0.0419684
0.0428607
0.0434714
0.0437957
0.0438519
0.0436671
0.0432657
0.0426785
0.0419331
0.0410603
0.0400859
0.0390307
0.03791
0.0367327
0.0355026
0.0342195
0.0328808
0.0314841
0.0300289
0.0285177
0.0269572
0.0253592
0.0237399
0.0221188
0.0205225
0.018984
0.0175367
0.0162158
0.0150573
0.0140957
0.0133624
0.0128831
0.0126716
0.012722
0.0130261
0.0135723
0.0143454
0.0153192
0.016457
0.0177164
0.0190526
0.0204193
0.0217629
0.0230322
0.0241907
0.0252086
0.0260602
0.0267269
0.0271982
0.0274721
0.0275535
0.0274526
0.0271861
0.0267715
0.0262261
0.0255663
0.0248063
0.0239575
0.0230278
0.0220226
0.0209449
0.0197966
0.0185797
0.0172972
0.0159544
0.01456
0.0131262
0.0116691
0.0102058
0.00875948
0.00735856
0.00603156
0.00480705
0.00371296
0.00277512
0.00201588
0.00145301
0.00109818
0.000953697
0.00101281
0.00126638
0.00170319
0.00230413
0.00304483
0.00389691
0.00482897
0.00580887
0.00680508
0.00778317
0.00870921
0.00955578
0.0103
0.0109235
0.0114124
0.0117584
0.0119586
0.0120126
0.0119238
0.011703
0.0113593
0.0109017
0.0103396
0.00968197
0.00893688
0.00811154
0.00721183
0.00624566
0.0052121
0.00413409
0.00297177
0.00183064
0.000512591
0.0245026
0.0256827
0.0271465
0.0288045
0.0305754
0.0324054
0.034267
0.0361357
0.0379492
0.039619
0.0410731
0.0422764
0.0431963
0.0438124
0.0441237
0.0441681
0.0439667
0.0435361
0.0429238
0.0421441
0.04124
0.0402398
0.0391646
0.0380303
0.0368451
0.0356109
0.0343254
0.0329833
0.0315799
0.0301129
0.0285834
0.026997
0.0253656
0.0237063
0.0220383
0.0203902
0.0187974
0.0172953
0.0159214
0.0147136
0.0137081
0.0129432
0.0124568
0.0122582
0.0123215
0.012637
0.013205
0.0140146
0.0150389
0.016237
0.0175626
0.0189713
0.0204142
0.0218269
0.0231544
0.0243645
0.0254257
0.0263092
0.0269958
0.0274756
0.0277479
0.0278187
0.0277055
0.0274212
0.0269852
0.0264186
0.0257395
0.0249631
0.0241011
0.0231613
0.0221479
0.0210629
0.0199067
0.01868
0.0173845
0.0160245
0.0146081
0.0131473
0.0116585
0.0101589
0.00867166
0.00722751
0.00585726
0.00459106
0.00345846
0.00248686
0.0017002
0.00111957
0.000762512
0.000628724
0.000702051
0.000975554
0.00144309
0.00208331
0.0028697
0.00377141
0.00475493
0.00578819
0.00683808
0.00786664
0.0088379
0.00972343
0.0104996
0.0111478
0.0116541
0.0120107
0.012217
0.0122752
0.0121838
0.0119578
0.0116076
0.0111434
0.0105756
0.00991318
0.00916408
0.0083351
0.00743078
0.00645897
0.00541237
0.00432203
0.00311091
0.00194668
0.000496185
0.0239599
0.0251686
0.0266906
0.0284088
0.0302627
0.0322253
0.0342243
0.0362199
0.0381357
0.0398768
0.041381
0.0426186
0.0435397
0.0441588
0.0444914
0.0445093
0.0442622
0.0437877
0.0431321
0.0423237
0.0413933
0.0403688
0.0392771
0.0381346
0.0369456
0.0357116
0.0344284
0.0330863
0.0316773
0.030199
0.0286512
0.0270386
0.025373
0.0236718
0.0219545
0.0202509
0.0185995
0.0170382
0.0156069
0.0143464
0.0132958
0.0125046
0.0120137
0.0118173
0.0118984
0.0122327
0.012825
0.0136817
0.0147693
0.0160332
0.0174227
0.0189098
0.0204411
0.0219181
0.0232891
0.0245407
0.0256383
0.0265476
0.027248
0.0277305
0.0279998
0.028061
0.0279315
0.0276291
0.0271745
0.0265886
0.0258922
0.0251019
0.0242293
0.0232815
0.0222619
0.021171
0.0200085
0.0187732
0.0174656
0.0160889
0.0146505
0.0131628
0.0116424
0.0101066
0.00857924
0.00709281
0.00567969
0.00437164
0.00320012
0.00219617
0.00138938
0.000805068
0.000455573
0.00032517
0.000406068
0.000701208
0.00119719
0.0018734
0.00270324
0.00365236
0.00468425
0.00577038
0.00687428
0.00795125
0.00896617
0.00988924
0.010696
0.0113678
0.0118909
0.0122572
0.0124668
0.0125264
0.0124346
0.0122064
0.0118532
0.011386
0.0108163
0.0101536
0.00940544
0.00857805
0.00767427
0.0067016
0.00564475
0.00454654
0.00327619
0.0020906
0.000463076
0.0234774
0.0247639
0.0264607
0.0282449
0.0300239
0.031912
0.0338951
0.0360296
0.0381409
0.0400167
0.0416118
0.0428739
0.0438304
0.0444209
0.044714
0.0447723
0.044578
0.0440524
0.0433366
0.0424958
0.0415491
0.0405034
0.0393897
0.0382388
0.0370502
0.0358203
0.0345398
0.0331993
0.0317893
0.0303023
0.0287356
0.0270929
0.0253858
0.0236328
0.0218579
0.0200928
0.0183753
0.0167465
0.0152504
0.0139344
0.0128434
0.0120337
0.0115252
0.0113356
0.0114581
0.0118046
0.0124017
0.0132953
0.0144431
0.015783
0.0172379
0.0187965
0.0204276
0.0219686
0.0233856
0.0247014
0.0258454
0.0267822
0.0274902
0.027957
0.0282094
0.02829
0.028163
0.0278318
0.0273515
0.0267484
0.026037
0.0252342
0.0243535
0.0234011
0.022378
0.0212835
0.0201159
0.0188724
0.0175522
0.016158
0.0146971
0.0131824
0.0116279
0.0100512
0.00848091
0.00695002
0.00549135
0.00413866
0.00292696
0.00189249
0.00106905
0.000474338
0.000108586
-3.12077e-05
6.34469e-05
0.000385474
0.000917675
0.00163987
0.00252147
0.0035232
0.00460875
0.00575209
0.00691259
0.00804009
0.00909959
0.0100606
0.0108975
0.0115914
0.0121283
0.012499
0.0127054
0.0127675
0.0126864
0.0124548
0.0120988
0.0116321
0.011064
0.010405
0.00966254
0.00884213
0.00794438
0.00697789
0.00591055
0.00481025
0.00346948
0.00227071
0.00039935
0.022281
0.0235985
0.0252784
0.0271989
0.0292993
0.0315291
0.0337946
0.036013
0.038139
0.0401091
0.0417907
0.0430952
0.0440607
0.0446688
0.0449107
0.0448529
0.0445719
0.0441577
0.043504
0.0426207
0.0416456
0.0406113
0.0395215
0.0383687
0.0371716
0.0359481
0.0346777
0.0333445
0.031934
0.0304366
0.028848
0.0271701
0.0254134
0.0235968
0.0217469
0.019898
0.018091
0.0163711
0.0147892
0.0134079
0.0122648
0.0113543
0.0107746
0.0106886
0.0109271
0.0111817
0.0117204
0.0127431
0.0139996
0.015422
0.0169548
0.0186063
0.0204251
0.0220128
0.0233919
0.0247955
0.0259997
0.026972
0.0277028
0.0281745
0.0283926
0.0284141
0.0282983
0.0280187
0.0275179
0.0268931
0.0261735
0.0253662
0.024482
0.0235292
0.0225044
0.0214062
0.0202354
0.0189859
0.0176534
0.016239
0.0147492
0.0131962
0.0115966
0.00997215
0.00835141
0.00676777
0.00525662
0.00385392
0.00259689
0.00152454
0.000675287
6.53744e-05
-0.000308928
-0.000441307
-0.000327129
1.47428e-05
0.000570266
0.00133527
0.00227699
0.00334326
0.00449049
0.00568705
0.00690526
0.00809544
0.00920841
0.010212
0.0110832
0.0118029
0.012357
0.0127338
0.0129301
0.0129737
0.0129086
0.0127011
0.0123427
0.0118767
0.0113154
0.0106649
0.00993271
0.00912477
0.00823867
0.00728737
0.00620833
0.00511373
0.00369014
0.00249422
0.000292804
0.0207059
0.0221164
0.0239294
0.0260009
0.0282639
0.0306498
0.0330853
0.0354887
0.0377627
0.039787
0.0415512
0.0430196
0.0440575
0.0447004
0.0449579
0.0448497
0.0444419
0.0438828
0.0432392
0.0425216
0.0415647
0.0405311
0.0394747
0.0383866
0.0372522
0.0360496
0.0347847
0.0334609
0.0320524
0.0305415
0.028922
0.0271959
0.0253739
0.023476
0.0215318
0.019579
0.0176627
0.0158329
0.0141464
0.0126702
0.0114641
0.0105371
0.00992364
0.00968231
0.00977475
0.0101559
0.0108712
0.0119366
0.0132673
0.0148048
0.0164859
0.0182555
0.0200586
0.0217558
0.0233339
0.0248114
0.0260733
0.0270873
0.0278422
0.0283303
0.0285504
0.0285228
0.028315
0.0280078
0.0275899
0.0269837
0.0262528
0.0254495
0.0245759
0.0236326
0.0226214
0.0215336
0.0203604
0.0191004
0.0177516
0.0163129
0.0147894
0.0131935
0.011543
0.00986069
0.0081759
0.00652307
0.00493958
0.00346456
0.0021394
0.00101029
0.000122129
-0.000511329
-0.000913179
-0.00106889
-0.000953935
-0.000575542
4.45025e-05
0.000880475
0.00189517
0.00304386
0.004281
0.00555901
0.00682972
0.0080781
0.00926311
0.0103219
0.0112335
0.0119837
0.0125593
0.0129499
0.0131494
0.0131706
0.0130677
0.0128814
0.0125682
0.012108
0.0115546
0.0109202
0.0102057
0.00941709
0.00854957
0.00762232
0.00653548
0.00545457
0.00393639
0.00275423
0.000155562
0.0186547
0.0200732
0.0219303
0.024126
0.0265761
0.0291885
0.0318629
0.0344936
0.0369736
0.039198
0.0410861
0.0425934
0.0437162
0.0444195
0.0447076
0.044608
0.0441689
0.0434608
0.0426379
0.0418639
0.0410913
0.0401785
0.0391541
0.0381234
0.0370687
0.0359664
0.034776
0.0334731
0.0320691
0.0305511
0.0289046
0.0271287
0.0252349
0.0232449
0.0211906
0.0191135
0.0170635
0.0150972
0.0132785
0.011677
0.0103554
0.00935055
0.00867903
0.00835047
0.00839193
0.00879929
0.00957177
0.0107009
0.0121308
0.0137919
0.0156166
0.0175391
0.0194819
0.0213419
0.0230548
0.0245898
0.0259322
0.0270315
0.027837
0.0283505
0.0285842
0.028555
0.0282916
0.0278676
0.027405
0.0268782
0.0262111
0.0254107
0.0245529
0.0236342
0.0226438
0.0215772
0.0204249
0.0191662
0.017796
0.0163256
0.0147598
0.0131096
0.0113937
0.0096375
0.00787201
0.00613381
0.00446328
0.00290364
0.00150195
0.000309972
-0.000628089
-0.00130357
-0.00173945
-0.00191506
-0.00179634
-0.00139178
-0.000725304
0.000175004
0.00127058
0.00251402
0.00385493
0.00524192
0.00662221
0.00794766
0.00919239
0.010327
0.011302
0.0120953
0.0126989
0.0131083
0.0133208
0.0133427
0.0132027
0.0129681
0.0126806
0.0122835
0.0117466
0.0111286
0.0104397
0.00967825
0.00883647
0.00793867
0.00685648
0.00579848
0.00418043
0.00301793
6.7626e-06
0.0161374
0.0175671
0.0194869
0.0218005
0.0244069
0.0272001
0.0300693
0.0329014
0.0355832
0.0380096
0.0400941
0.0417655
0.042957
0.0437199
0.0440702
0.0439847
0.0435398
0.0428065
0.0418691
0.0408668
0.040014
0.0392627
0.0384456
0.0374867
0.0365174
0.0355179
0.0344407
0.0332517
0.0318994
0.0303797
0.0287126
0.0268934
0.0249298
0.0228461
0.0206775
0.0184697
0.0162779
0.014165
0.0122016
0.010462
0.00901147
0.00789055
0.00711585
0.00669927
0.00669535
0.0071113
0.00792881
0.00912176
0.0106394
0.012415
0.014375
0.0164416
0.0185304
0.0205532
0.022438
0.024126
0.0255595
0.0267238
0.0276091
0.0281733
0.0284311
0.028409
0.0281391
0.0276643
0.0270695
0.026479
0.0258877
0.0251872
0.0243489
0.0234565
0.0225041
0.0214695
0.0203423
0.0191107
0.0177454
0.0162461
0.0146386
0.0129338
0.0111494
0.00931261
0.0074567
0.00562094
0.00384933
0.00219006
0.000696023
-0.000578034
-0.00159126
-0.00233506
-0.0028184
-0.00301773
-0.00289564
-0.00246325
-0.00174641
-0.00077679
0.000403647
0.00174505
0.00319378
0.00469478
0.00619325
0.00763689
0.00897785
0.0101768
0.011224
0.0120875
0.0127369
0.0131731
0.0134028
0.0134354
0.0132911
0.0130113
0.0126694
0.0123058
0.0118452
0.0112526
0.0105871
0.00985966
0.00905045
0.00818561
0.00712893
0.00610255
0.00438919
0.00325043
-0.000132835
0.0132025
0.0146487
0.016623
0.0190361
0.0217821
0.0247443
0.0278001
0.0308278
0.0337068
0.0363256
0.0385874
0.0404165
0.0417624
0.0426142
0.0429888
0.0429399
0.0424935
0.0417413
0.0407727
0.039687
0.0386176
0.0377398
0.0370776
0.0363837
0.0355186
0.0346225
0.0336708
0.0325998
0.0313735
0.0299236
0.0282478
0.026397
0.0243783
0.0222115
0.0199358
0.0176018
0.0152701
0.0130103
0.0108993
0.00901514
0.00742399
0.00616895
0.00527479
0.00477666
0.00473467
0.00515246
0.00600537
0.00726055
0.0088651
0.0107491
0.0128337
0.0150351
0.0172671
0.0194423
0.0214819
0.0233186
0.0248939
0.0261646
0.0271023
0.0277283
0.028032
0.0280288
0.0277585
0.0272713
0.0266264
0.0259122
0.0252391
0.0246159
0.0239026
0.0230438
0.0221257
0.0211385
0.020051
0.0188489
0.0175137
0.016015
0.0143667
0.0126066
0.0107537
0.0088348
0.00688626
0.00495098
0.00307734
0.0013186
-0.000268309
-0.00162914
-0.0027267
-0.0035479
-0.00408505
-0.00430244
-0.00417393
-0.00371449
-0.00294989
-0.00191454
-0.00065356
0.000780347
0.00233069
0.00394013
0.00555072
0.00710746
0.00855971
0.00986219
0.0109769
0.0118986
0.0126151
0.0130952
0.0133507
0.0133994
0.0132628
0.0129749
0.0125868
0.0121685
0.0117504
0.0112448
0.010611
0.00991375
0.00914379
0.00831694
0.00730892
0.00632662
0.00454125
0.00343799
-0.000244664
0.00998939
0.0114428
0.0134619
0.0159581
0.0188205
0.0219244
0.0251396
0.0283404
0.0313931
0.0341809
0.0366042
0.03858
0.0400527
0.0410053
0.0414509
0.0414208
0.0409925
0.0402263
0.0392327
0.0381134
0.0369742
0.0359247
0.0351084
0.0345729
0.0340154
0.0332542
0.0324206
0.0314868
0.0303803
0.0290612
0.0274648
0.0256037
0.0235502
0.0213263
0.0189667
0.0165267
0.0140731
0.0116815
0.00943371
0.00740995
0.00567674
0.00427888
0.00325829
0.00268569
0.00260875
0.00302615
0.00390448
0.005209
0.006885
0.00886076
0.0110538
0.013376
0.0157398
0.0180502
0.0202256
0.0221945
0.0238943
0.0252777
0.0263153
0.0269905
0.0273358
0.0273706
0.0271074
0.0266133
0.0259509
0.0251899
0.0244075
0.0236923
0.0230597
0.0223481
0.021479
0.0205319
0.0194965
0.0183368
0.0170357
0.0155647
0.0139081
0.0121039
0.0101939
0.0082051
0.00617528
0.00415115
0.00218502
0.000333916
-0.00134322
-0.00279344
-0.00398143
-0.00488775
-0.00547683
-0.00570681
-0.00556909
-0.00508506
-0.00427857
-0.00318554
-0.00185301
-0.000335783
0.00130721
0.00301695
0.00472903
0.00638688
0.00793916
0.00933876
0.010547
0.0115383
0.0122965
0.0128295
0.0131232
0.0131953
0.0130719
0.0127892
0.0123906
0.0119286
0.0114593
0.0110038
0.0104667
0.00981272
0.00907722
0.00829207
0.00734961
0.00642462
0.00460286
0.00354804
-0.000336241
0.00659391
0.00804752
0.0101116
0.0126899
0.0156606
0.0188824
0.0222062
0.0255243
0.0287273
0.0316662
0.0342272
0.0363253
0.0379021
0.0389333
0.0394301
0.0394369
0.0390184
0.0382543
0.0372362
0.0360898
0.0349198
0.0338197
0.0328725
0.032182
0.0317903
0.0313702
0.0307122
0.0299061
0.0289406
0.0277477
0.0262847
0.0245065
0.0224491
0.020195
0.0177848
0.0152712
0.0127246
0.010226
0.00786095
0.00571087
0.00383776
0.00229273
0.00116313
0.00052868
0.000419657
0.000825314
0.00172279
0.00307573
0.00482205
0.00688195
0.00916182
0.0115637
0.0140157
0.0164393
0.0187308
0.0208103
0.0226131
0.0240872
0.0252006
0.0259442
0.0263342
0.02639
0.0261487
0.0256531
0.0249813
0.0242005
0.0233772
0.0225708
0.0218478
0.0212209
0.0205183
0.0196471
0.0186577
0.0175528
0.0162965
0.0148699
0.0132443
0.0114275
0.00947853
0.00744077
0.00535076
0.00325751
0.00121703
-0.000710277
-0.00246521
-0.00400023
-0.00528293
-0.00626315
-0.00688623
-0.00712328
-0.00698282
-0.00647774
-0.00563131
-0.00448426
-0.00308904
-0.00150747
0.000195594
0.00197169
0.00376666
0.0055104
0.00714587
0.00862552
0.00990859
0.0109667
0.0117842
0.0123487
0.0126802
0.0127875
0.01268
0.0124069
0.0120124
0.0115412
0.0110351
0.0105353
0.0100527
0.00950524
0.0088344
0.0080886
0.00721094
0.00636048
0.00455753
0.00357227
-0.000405448
0.00314899
0.00459247
0.00669127
0.00934141
0.0124132
0.0157549
0.0191948
0.0225741
0.0258206
0.0288576
0.0315294
0.0337187
0.0353676
0.0364508
0.0369785
0.0369945
0.0365752
0.0358185
0.0347893
0.0336156
0.032426
0.0313126
0.0303481
0.029563
0.0290291
0.0287862
0.0285047
0.0279189
0.0270907
0.0260467
0.0247221
0.023081
0.0211092
0.0188672
0.0164422
0.0138938
0.0112918
0.00872134
0.00626914
0.00400709
0.00199325
0.000327954
-0.00088098
-0.00157329
-0.00171798
-0.00133517
-0.000429325
0.000959878
0.00276413
0.00489849
0.00726293
0.00974431
0.0122373
0.0146899
0.0170508
0.0192137
0.0210897
0.0226273
0.0237935
0.0245777
0.0249939
0.0250743
0.024851
0.0243662
0.0236879
0.0228979
0.022061
0.0212279
0.0204367
0.0197297
0.0191108
0.018426
0.017555
0.0165073
0.015312
0.0139401
0.0123733
0.0105971
0.00864371
0.00658232
0.0044609
0.00232765
0.000240614
-0.00173885
-0.00356352
-0.00518784
-0.0065478
-0.00757344
-0.00822178
-0.00846969
-0.00833382
-0.00781395
-0.00693551
-0.00574324
-0.00429291
-0.00265033
-0.000889858
0.000917343
0.00273092
0.00451974
0.00621715
0.00775378
0.00908808
0.0101904
0.0110438
0.0116453
0.012008
0.0121365
0.012055
0.0117941
0.0114096
0.0109439
0.0104345
0.0099101
0.00939481
0.00890091
0.00834928
0.00770838
0.00687703
0.00611268
0.00439699
0.00350663
-0.000454785
-0.000184626
0.00124267
0.00335867
0.00605405
0.00919286
0.0126195
0.0161592
0.0196182
0.0228539
0.0258777
0.0286065
0.0308542
0.0325358
0.0336335
0.0341606
0.0341627
0.0337169
0.0329295
0.0319133
0.0307162
0.0295109
0.0283947
0.0274548
0.026693
0.026081
0.0257379
0.0256709
0.0254871
0.024913
0.0240259
0.022866
0.0213783
0.0195553
0.0174066
0.0150091
0.0124736
0.00986477
0.00726507
0.00474418
0.0023726
0.000255319
-0.00148254
-0.00275699
-0.00350445
-0.00368585
-0.00332303
-0.00241648
-0.00100907
0.000827534
0.0030052
0.00542213
0.00796332
0.0105019
0.0129388
0.015275
0.0174677
0.0193851
0.020949
0.0221326
0.0229278
0.0233467
0.0234217
0.0232038
0.022737
0.0220572
0.0212624
0.0204261
0.0195948
0.018798
0.0180516
0.0173779
0.0167733
0.0161133
0.0152378
0.014121
0.0128242
0.0113307
0.00962898
0.00773365
0.00569039
0.0035706
0.00143318
-0.000670703
-0.00269432
-0.00458349
-0.00626366
-0.00765816
-0.00871231
-0.00938244
-0.00964336
-0.00951138
-0.00898392
-0.00808902
-0.00687337
-0.00539418
-0.003718
-0.0019195
-8.19439e-05
0.00172189
0.0034818
0.00518904
0.00675629
0.00811257
0.0092313
0.0100978
0.0107093
0.0110777
0.0112245
0.0111655
0.0109241
0.0105494
0.0100968
0.00960047
0.00908532
0.0085657
0.00806172
0.00755828
0.0070684
0.00634577
0.00568684
0.00411976
0.00334749
-0.000483698
-0.00326517
-0.00186249
0.000255647
0.00297457
0.0061512
0.00962325
0.0132167
0.016731
0.0199602
0.0228842
0.0255663
0.0278288
0.0295007
0.0305674
0.0310534
0.0310084
0.0305129
0.0296731
0.0286188
0.0274389
0.0262019
0.0250773
0.0242308
0.0236079
0.0229041
0.022512
0.0225016
0.0225379
0.0223856
0.0217947
0.0208161
0.019514
0.0178578
0.0158599
0.0135854
0.0111099
0.0085281
0.00591576
0.00334379
0.000917776
-0.00124036
-0.00302664
-0.00435259
-0.00514549
-0.00536424
-0.00502621
-0.00413164
-0.00272528
-0.000881429
0.00130846
0.00374012
0.00630031
0.00885702
0.0112711
0.0135129
0.0156448
0.0175573
0.0191085
0.020268