/*--------------------------------*- C++ -*----------------------------------*\
| =========                 |                                                 |
| \\      /  F ield         | OpenFOAM: The Open Source CFD Toolbox           |
|  \\    /   O peration     | Version:  2206                                  |
|   \\  /    A nd           | Website:  www.openfoam.com                      |
|    \\/     M anipulation  |                                                 |
\*---------------------------------------------------------------------------*/
FoamFile
{
    version     2.0;
    format      ascii;
    arch        "LSB;label=32;scalar=64";
    class       volVectorField;
    location    "19.5";
    object      U;
}
// * * * * * * * * * * * * * * * * * * * * * * * * * * * * * * * * * * * * * //

dimensions      [0 1 -1 0 0 0 0];

internalField   nonuniform List<vector> 
3080
(
(1.6834 -0.0432156 0)
(1.6854 -0.0748043 0)
(1.68911 -0.104669 0)
(1.69434 -0.132129 0)
(1.70083 -0.1566 0)
(1.70833 -0.177638 0)
(1.71654 -0.19496 0)
(1.7252 -0.208443 0)
(1.73406 -0.218083 0)
(1.74306 -0.223889 0)
(1.75237 -0.22562 0)
(1.76179 -0.222922 0)
(1.77123 -0.215754 0)
(1.78056 -0.204218 0)
(1.78964 -0.18854 0)
(1.79841 -0.169014 0)
(1.80682 -0.145974 0)
(1.81485 -0.119795 0)
(1.82246 -0.0909054 0)
(1.8296 -0.0598373 0)
(1.83614 -0.0273261 0)
(1.84181 0.00546295 0)
(1.84636 0.0374613 0)
(1.84961 0.0678048 0)
(1.85135 0.0957425 0)
(1.85148 0.120764 0)
(1.85002 0.142456 0)
(1.84707 0.160498 0)
(1.8427 0.174762 0)
(1.83703 0.185231 0)
(1.82996 0.191922 0)
(1.8214 0.194758 0)
(1.81169 0.193902 0)
(1.80109 0.189758 0)
(1.78999 0.182628 0)
(1.77882 0.17279 0)
(1.76797 0.160494 0)
(1.75774 0.145931 0)
(1.74838 0.12925 0)
(1.74009 0.11059 0)
(1.73299 0.0901069 0)
(1.7272 0.0680001 0)
(1.7228 0.0445339 0)
(1.71983 0.02007 0)
(1.71834 -0.00485447 0)
(1.71829 -0.0295486 0)
(1.71961 -0.0534867 0)
(1.72221 -0.0761509 0)
(1.72595 -0.0970573 0)
(1.73066 -0.115785 0)
(1.73617 -0.131999 0)
(1.74227 -0.145472 0)
(1.74876 -0.156088 0)
(1.75546 -0.163831 0)
(1.76229 -0.168713 0)
(1.76938 -0.170596 0)
(1.77662 -0.169202 0)
(1.7839 -0.164463 0)
(1.79115 -0.156422 0)
(1.79822 -0.145222 0)
(1.80503 -0.13108 0)
(1.81151 -0.114257 0)
(1.81762 -0.0950503 0)
(1.82331 -0.0738057 0)
(1.82852 -0.050934 0)
(1.83314 -0.0269633 0)
(1.83699 -0.00266399 0)
(1.83993 0.0212059 0)
(1.84191 0.0440924 0)
(1.84274 0.0655197 0)
(1.84278 0.0850306 0)
(1.84169 0.10223 0)
(1.83934 0.116848 0)
(1.83601 0.128778 0)
(1.83171 0.137959 0)
(1.8265 0.144377 0)
(1.82031 0.147996 0)
(1.81329 0.148782 0)
(1.80565 0.14692 0)
(1.79762 0.142582 0)
(1.78949 0.135919 0)
(1.78155 0.127106 0)
(1.77403 0.116318 0)
(1.7671 0.103716 0)
(1.76092 0.0894595 0)
(1.75559 0.0737256 0)
(1.75121 0.0567137 0)
(1.74783 0.0386615 0)
(1.7455 0.0198683 0)
(1.74425 0.000754403 0)
(1.74405 -0.0181731 0)
(1.74487 -0.0365308 0)
(1.74664 -0.0539433 0)
(1.74927 -0.0700589 0)
(1.75264 -0.0845686 0)
(1.75664 -0.0972234 0)
(1.76112 -0.107848 0)
(1.76594 -0.116348 0)
(1.77096 -0.122697 0)
(1.77612 -0.1269 0)
(1.78145 -0.128888 0)
(1.78695 -0.128463 0)
(1.79251 -0.125546 0)
(1.79807 -0.120149 0)
(1.80352 -0.112357 0)
(1.80876 -0.102317 0)
(1.81373 -0.0902218 0)
(1.81836 -0.0762964 0)
(1.8226 -0.0608011 0)
(1.82639 -0.04403 0)
(1.82969 -0.0263358 0)
(1.83239 -0.00820575 0)
(1.83441 0.00977201 0)
(1.83568 0.0272489 0)
(1.83613 0.0438845 0)
(1.83566 0.0592668 0)
(1.83431 0.0730429 0)
(1.83219 0.0850137 0)
(1.82916 0.0951647 0)
(1.82585 0.103192 0)
(1.82089 0.109321 0)
(1.81745 0.113668 0)
(1.80838 0.113881 0)
(1.70775 -0.0443243 0)
(1.70977 -0.077595 0)
(1.71327 -0.108968 0)
(1.71804 -0.137718 0)
(1.72386 -0.163222 0)
(1.73046 -0.185012 0)
(1.73757 -0.202807 0)
(1.74492 -0.216521 0)
(1.75226 -0.226233 0)
(1.75946 -0.232098 0)
(1.76682 -0.233988 0)
(1.77422 -0.231373 0)
(1.78154 -0.224111 0)
(1.78868 -0.212354 0)
(1.79553 -0.196388 0)
(1.80209 -0.176547 0)
(1.80838 -0.153182 0)
(1.8144 -0.126673 0)
(1.82018 -0.097431 0)
(1.82571 -0.0659503 0)
(1.83093 -0.0328964 0)
(1.83565 0.000708443 0)
(1.83963 0.0337006 0)
(1.8427 0.0652365 0)
(1.84469 0.0945523 0)
(1.84546 0.121017 0)
(1.84497 0.144115 0)
(1.84323 0.16348 0)
(1.84029 0.178964 0)
(1.83629 0.190595 0)
(1.83138 0.198463 0)
(1.82532 0.202596 0)
(1.8181 0.20283 0)
(1.80994 0.199432 0)
(1.8011 0.192678 0)
(1.79199 0.182824 0)
(1.78301 0.170173 0)
(1.77445 0.154976 0)
(1.76656 0.13744 0)
(1.75952 0.117754 0)
(1.75349 0.0961185 0)
(1.74858 0.0727627 0)
(1.74485 0.047976 0)
(1.74238 0.0221447 0)
(1.74119 -0.00415345 0)
(1.74126 -0.0301708 0)
(1.74251 -0.0553506 0)
(1.74484 -0.0791433 0)
(1.74815 -0.101034 0)
(1.75228 -0.120576 0)
(1.75705 -0.13741 0)
(1.76228 -0.151302 0)
(1.76775 -0.162153 0)
(1.77329 -0.170003 0)
(1.77877 -0.174966 0)
(1.78437 -0.177 0)
(1.7901 -0.175725 0)
(1.79581 -0.17097 0)
(1.80146 -0.162792 0)
(1.8069 -0.151367 0)
(1.81207 -0.136941 0)
(1.81697 -0.119795 0)
(1.82158 -0.10024 0)
(1.82589 -0.0786154 0)
(1.82988 -0.0553047 0)
(1.83351 -0.0307871 0)
(1.83665 -0.00575927 0)
(1.83916 0.0189295 0)
(1.84094 0.0426877 0)
(1.84189 0.0649536 0)
(1.84207 0.0853146 0)
(1.84155 0.103471 0)
(1.84007 0.119094 0)
(1.83782 0.131949 0)
(1.83485 0.141963 0)
(1.83124 0.149158 0)
(1.82698 0.153588 0)
(1.82189 0.155171 0)
(1.81617 0.153859 0)
(1.80994 0.149824 0)
(1.80345 0.143188 0)
(1.79699 0.134157 0)
(1.79079 0.122948 0)
(1.78502 0.109758 0)
(1.77983 0.0947863 0)
(1.77533 0.0782374 0)
(1.77161 0.0603355 0)
(1.76873 0.0413375 0)
(1.76673 0.0215606 0)
(1.76565 0.00144964 0)
(1.76548 -0.0184444 0)
(1.76617 -0.0377178 0)
(1.76767 -0.0559727 0)
(1.7699 -0.0728368 0)
(1.77276 -0.0879805 0)
(1.77614 -0.101138 0)
(1.77991 -0.112127 0)
(1.78393 -0.120857 0)
(1.78806 -0.12733 0)
(1.7922 -0.131614 0)
(1.79639 -0.133724 0)
(1.80075 -0.133424 0)
(1.80513 -0.130541 0)
(1.8095 -0.125072 0)
(1.81376 -0.117117 0)
(1.81781 -0.106846 0)
(1.82162 -0.09446 0)
(1.82514 -0.0801932 0)
(1.82834 -0.064314 0)
(1.83121 -0.0471234 0)
(1.8337 -0.0289719 0)
(1.83575 -0.0103113 0)
(1.83731 0.00829317 0)
(1.83818 0.0264661 0)
(1.83847 0.0438186 0)
(1.83838 0.0599482 0)
(1.83769 0.0744719 0)
(1.83619 0.0871998 0)
(1.83405 0.0979632 0)
(1.83157 0.106665 0)
(1.828 0.113273 0)
(1.82553 0.118245 0)
(1.81866 0.119212 0)
(1.73147 -0.0456306 0)
(1.73357 -0.0803062 0)
(1.73684 -0.112922 0)
(1.74111 -0.142712 0)
(1.74616 -0.16902 0)
(1.75176 -0.191351 0)
(1.75766 -0.209414 0)
(1.7636 -0.223144 0)
(1.76933 -0.232696 0)
(1.77464 -0.238384 0)
(1.77992 -0.240278 0)
(1.78521 -0.237689 0)
(1.79032 -0.230253 0)
(1.79513 -0.218216 0)
(1.79961 -0.201963 0)
(1.80384 -0.181872 0)
(1.80791 -0.158296 0)
(1.81188 -0.131606 0)
(1.8158 -0.102209 0)
(1.81966 -0.0705648 0)
(1.82348 -0.0372658 0)
(1.82712 -0.00321281 0)
(1.83041 0.0304028 0)
(1.83318 0.0627292 0)
(1.83528 0.0929887 0)
(1.83656 0.120498 0)
(1.83694 0.144696 0)
(1.83636 0.165172 0)
(1.83482 0.18169 0)
(1.83241 0.194204 0)
(1.8293 0.202863 0)
(1.8256 0.207923 0)
(1.82089 0.209309 0)
(1.8153 0.206812 0)
(1.80886 0.200608 0)
(1.80197 0.190897 0)
(1.79504 0.178054 0)
(1.78835 0.162401 0)
(1.78213 0.144192 0)
(1.77656 0.123667 0)
(1.77179 0.101067 0)
(1.76793 0.0766544 0)
(1.76505 0.0507434 0)
(1.76322 0.0237479 0)
(1.76244 -0.00371457 0)
(1.7627 -0.0308451 0)
(1.76391 -0.0570623 0)
(1.766 -0.0817899 0)
(1.76885 -0.104488 0)
(1.77233 -0.124683 0)
(1.77629 -0.14199 0)
(1.78056 -0.156157 0)
(1.78495 -0.167098 0)
(1.78927 -0.174894 0)
(1.79335 -0.179765 0)
(1.79739 -0.181837 0)
(1.80154 -0.18066 0)
(1.80564 -0.175859 0)
(1.8096 -0.167507 0)
(1.81332 -0.155844 0)
(1.81679 -0.141161 0)
(1.82004 -0.123771 0)
(1.82309 -0.103978 0)
(1.826 -0.0821125 0)
(1.82876 -0.0585505 0)
(1.83136 -0.0337402 0)
(1.83372 -0.00830357 0)
(1.83576 0.0169276 0)
(1.83737 0.0413193 0)
(1.83847 0.0642961 0)
(1.83897 0.0853925 0)
(1.83881 0.104248 0)
(1.83804 0.120523 0)
(1.8367 0.133992 0)
(1.83484 0.144585 0)
(1.83257 0.152307 0)
(1.83002 0.157246 0)
(1.82693 0.159528 0)
(1.82318 0.1589 0)
(1.81883 0.155337 0)
(1.81408 0.148877 0)
(1.80925 0.139774 0)
(1.80452 0.128301 0)
(1.80007 0.114687 0)
(1.79603 0.0991638 0)
(1.7925 0.081964 0)
(1.78956 0.0633361 0)
(1.7873 0.0435576 0)
(1.78574 0.022963 0)
(1.78491 0.00202104 0)
(1.78481 -0.0186779 0)
(1.78541 -0.0387111 0)
(1.78664 -0.0576638 0)
(1.78846 -0.0751452 0)
(1.79077 -0.0908083 0)
(1.79348 -0.104369 0)
(1.79649 -0.115628 0)
(1.79966 -0.124494 0)
(1.80287 -0.130987 0)
(1.80597 -0.135233 0)
(1.80899 -0.137371 0)
(1.81215 -0.137184 0)
(1.81533 -0.13434 0)
(1.81849 -0.128783 0)
(1.8215 -0.12066 0)
(1.82431 -0.110177 0)
(1.82692 -0.0975483 0)
(1.82931 -0.083027 0)
(1.83148 -0.0668833 0)
(1.83344 -0.0493977 0)
(1.83515 -0.0308846 0)
(1.83655 -0.0117612 0)
(1.83757 0.00736656 0)
(1.8381 0.0259936 0)
(1.83832 0.0436859 0)
(1.83827 0.0601928 0)
(1.8379 0.0752187 0)
(1.83696 0.088585 0)
(1.83565 0.0998448 0)
(1.83403 0.109113 0)
(1.83178 0.115943 0)
(1.8302 0.121389 0)
(1.82558 0.123098 0)
(1.75418 -0.0471971 0)
(1.75642 -0.0829511 0)
(1.75947 -0.116489 0)
(1.76317 -0.147021 0)
(1.76733 -0.173868 0)
(1.77178 -0.196512 0)
(1.77632 -0.214647 0)
(1.78075 -0.228215 0)
(1.78483 -0.237426 0)
(1.78825 -0.242746 0)
(1.79129 -0.244555 0)
(1.79438 -0.241817 0)
(1.79721 -0.234022 0)
(1.79953 -0.221609 0)
(1.80155 -0.205099 0)
(1.80345 -0.184862 0)
(1.8053 -0.161229 0)
(1.80719 -0.13455 0)
(1.8092 -0.105202 0)
(1.81137 -0.0736192 0)
(1.81373 -0.0403535 0)
(1.81624 -0.00621341 0)
(1.81876 0.0276551 0)
(1.82113 0.0603767 0)
(1.82324 0.0911781 0)
(1.82492 0.119356 0)
(1.82605 0.144316 0)
(1.82655 0.165602 0)
(1.82637 0.182922 0)
(1.82552 0.196157 0)
(1.82411 0.205372 0)
(1.82237 0.210849 0)
(1.8202 0.213061 0)
(1.8171 0.211532 0)
(1.81305 0.20598 0)
(1.80843 0.196594 0)
(1.80369 0.183774 0)
(1.79905 0.167885 0)
(1.79469 0.149233 0)
(1.79078 0.128102 0)
(1.78745 0.104765 0)
(1.78482 0.0795186 0)
(1.78295 0.0527068 0)
(1.7819 0.0247745 0)
(1.78166 -0.00361696 0)
(1.7822 -0.0316224 0)
(1.78344 -0.0586389 0)
(1.78528 -0.0840677 0)
(1.78764 -0.107357 0)
(1.79041 -0.128017 0)
(1.79345 -0.145639 0)
(1.79666 -0.159956 0)
(1.79989 -0.170875 0)
(1.80297 -0.178504 0)
(1.80567 -0.183149 0)
(1.80806 -0.18516 0)
(1.81057 -0.184013 0)
(1.81304 -0.179063 0)
(1.81521 -0.170468 0)
(1.81709 -0.158559 0)
(1.81883 -0.143672 0)
(1.82046 -0.126117 0)
(1.82203 -0.106212 0)
(1.82354 -0.0842725 0)
(1.82505 -0.0606436 0)
(1.82657 -0.0357445 0)
(1.82808 -0.0101543 0)
(1.82953 0.0153073 0)
(1.83083 0.0400075 0)
(1.83191 0.0634013 0)
(1.83267 0.0850002 0)
(1.83307 0.104382 0)
(1.83307 0.12118 0)
(1.83267 0.135121 0)
(1.83189 0.14607 0)
(1.8308 0.154056 0)
(1.82959 0.159261 0)
(1.8283 0.16192 0)
(1.82651 0.162028 0)
(1.82404 0.158943 0)
(1.82102 0.152731 0)
(1.81787 0.143699 0)
(1.81474 0.132115 0)
(1.81173 0.118245 0)
(1.80897 0.102356 0)
(1.80654 0.0846975 0)
(1.80454 0.0655381 0)
(1.80302 0.0451732 0)
(1.80202 0.0239548 0)
(1.80155 0.00237732 0)
(1.80161 -0.0189342 0)
(1.80216 -0.0395409 0)
(1.80316 -0.0590152 0)
(1.80454 -0.0769559 0)
(1.80626 -0.0930037 0)
(1.80825 -0.106859 0)
(1.81043 -0.118307 0)
(1.8127 -0.12724 0)
(1.81496 -0.133682 0)
(1.81705 -0.137797 0)
(1.81886 -0.139867 0)
(1.8208 -0.139775 0)
(1.82279 -0.13692 0)
(1.8247 -0.131234 0)
(1.8264 -0.122939 0)
(1.82792 -0.112284 0)
(1.82933 -0.0994789 0)
(1.83063 -0.0847633 0)
(1.83181 -0.068436 0)
(1.83283 -0.0507773 0)
(1.83372 -0.0320802 0)
(1.83455 -0.0127252 0)
(1.83522 0.00668875 0)
(1.83574 0.0256123 0)
(1.83604 0.0436164 0)
(1.83604 0.0604609 0)
(1.83575 0.0757746 0)
(1.83523 0.0894392 0)
(1.83449 0.100878 0)
(1.83365 0.110472 0)
(1.83238 0.117566 0)
(1.83149 0.12333 0)
(1.8291 0.125346 0)
(1.77549 -0.0491239 0)
(1.77793 -0.0855812 0)
(1.78079 -0.11966 0)
(1.7839 -0.150566 0)
(1.78709 -0.177628 0)
(1.79022 -0.200331 0)
(1.79316 -0.218356 0)
(1.79583 -0.231601 0)
(1.79809 -0.24024 0)
(1.79977 -0.244766 0)
(1.80089 -0.245982 0)
(1.80163 -0.243853 0)
(1.8018 -0.235384 0)
(1.80165 -0.222593 0)
(1.80128 -0.205891 0)
(1.80073 -0.185584 0)
(1.80023 -0.162002 0)
(1.79998 -0.135477 0)
(1.80005 -0.106369 0)
(1.80054 -0.0750833 0)
(1.80149 -0.0421274 0)
(1.80288 -0.00822711 0)
(1.80462 0.0255275 0)
(1.80658 0.0582602 0)
(1.80864 0.0892139 0)
(1.81066 0.117685 0)
(1.81248 0.14306 0)
(1.81401 0.164852 0)
(1.81516 0.182715 0)
(1.8159 0.196481 0)
(1.81626 0.206159 0)
(1.81633 0.21194 0)
(1.81617 0.214244 0)
(1.81536 0.214111 0)
(1.81367 0.209373 0)
(1.81142 0.2002 0)
(1.80897 0.187458 0)
(1.80647 0.17144 0)
(1.80408 0.152478 0)
(1.80196 0.130906 0)
(1.80021 0.107028 0)
(1.79894 0.0811605 0)
(1.79821 0.0536743 0)
(1.79806 0.0250479 0)
(1.79847 -0.00400454 0)
(1.79938 -0.0326074 0)
(1.80071 -0.0601386 0)
(1.80236 -0.0859934 0)
(1.80423 -0.109606 0)
(1.80621 -0.130489 0)
(1.80824 -0.14824 0)
(1.81023 -0.162579 0)
(1.81213 -0.173379 0)
(1.81385 -0.180716 0)
(1.81523 -0.1849 0)
(1.81623 -0.186461 0)
(1.81706 -0.185705 0)
(1.81766 -0.180446 0)
(1.81798 -0.171549 0)
(1.81812 -0.159484 0)
(1.81813 -0.144519 0)
(1.81806 -0.126936 0)
(1.81803 -0.107031 0)
(1.8181 -0.085127 0)
(1.81835 -0.0615717 0)
(1.8188 -0.0367701 0)
(1.81947 -0.0112582 0)
(1.82033 0.0141817 0)
(1.82131 0.0389252 0)
(1.82234 0.0624414 0)
(1.82335 0.0842343 0)
(1.82426 0.103861 0)
(1.82503 0.120945 0)
(1.8256 0.135201 0)
(1.82597 0.146453 0)
(1.82615 0.154646 0)
(1.82617 0.159882 0)
(1.82612 0.162451 0)
(1.82592 0.162993 0)
(1.82537 0.161017 0)
(1.82421 0.154982 0)
(1.82292 0.146057 0)
(1.8215 0.134473 0)
(1.82001 0.120485 0)
(1.81861 0.104372 0)
(1.81737 0.0864056 0)
(1.81637 0.066876 0)
(1.81567 0.0460992 0)
(1.8153 0.0244461 0)
(1.81527 0.00243517 0)
(1.81555 -0.0192793 0)
(1.81611 -0.0402493 0)
(1.81691 -0.0600381 0)
(1.81787 -0.0782452 0)
(1.81898 -0.0945105 0)
(1.82017 -0.10853 0)
(1.82141 -0.120077 0)
(1.82267 -0.129021 0)
(1.82389 -0.135357 0)
(1.82498 -0.139236 0)
(1.8258 -0.140997 0)
(1.82656 -0.141051 0)
(1.82728 -0.138279 0)
(1.82784 -0.132334 0)
(1.82834 -0.12387 0)
(1.82866 -0.113113 0)
(1.82882 -0.100239 0)
(1.82897 -0.0854747 0)
(1.82909 -0.0690806 0)
(1.82921 -0.0513476 0)
(1.82936 -0.0326055 0)
(1.82956 -0.0132323 0)
(1.8298 0.00621439 0)
(1.83008 0.0252291 0)
(1.83034 0.0434125 0)
(1.83054 0.0604599 0)
(1.83066 0.0759825 0)
(1.8307 0.0898034 0)
(1.83063 0.101469 0)
(1.83042 0.111161 0)
(1.83005 0.118407 0)
(1.82971 0.124145 0)
(1.82908 0.126188 0)
(1.82367 0.101201 0)
(1.8244 0.110974 0)
(1.82509 0.118321 0)
(1.82572 0.124096 0)
(1.82625 0.126244 0)
(0.147818 -0.000275827 0)
(0.148487 -0.000338567 0)
(0.149282 -0.000390557 0)
(0.15018 -0.000430546 0)
(0.151153 -0.000458156 0)
(0.152175 -0.000473746 0)
(0.15322 -0.00047771 0)
(0.154263 -0.000470279 0)
(0.155278 -0.000451714 0)
(0.156243 -0.000422621 0)
(0.157134 -0.000384205 0)
(0.157931 -0.000338124 0)
(0.158621 -0.000286423 0)
(0.159192 -0.000231461 0)
(0.159641 -0.000175313 0)
(0.159966 -0.0001199 0)
(0.160173 -6.80603e-05 0)
(0.160267 -2.00044e-05 0)
(0.160265 2.96917e-05 0)
(0.160179 7.10294e-05 0)
(0.160016 0.000105925 0)
(0.159788 0.000135587 0)
(0.159503 0.000161017 0)
(0.159171 0.000183192 0)
(0.158796 0.00020301 0)
(0.158382 0.000221247 0)
(0.157932 0.000238481 0)
(0.157447 0.000254921 0)
(0.156928 0.000270409 0)
(0.156377 0.000284625 0)
(0.155796 0.000297174 0)
(0.155189 0.000307331 0)
(0.154561 0.00031439 0)
(0.153919 0.00031746 0)
(0.153275 0.00031532 0)
(0.152639 0.000306839 0)
(0.152024 0.000291539 0)
(0.151447 0.000269229 0)
(0.150924 0.000239714 0)
(0.150469 0.000202908 0)
(0.1501 0.000159217 0)
(0.149831 0.000109169 0)
(0.149675 5.39497e-05 0)
(0.149634 -1.00061e-05 0)
(0.149711 -7.43277e-05 0)
(0.149909 -0.000134231 0)
(0.150226 -0.00018969 0)
(0.150654 -0.000239591 0)
(0.151183 -0.000282763 0)
(0.151797 -0.000318138 0)
(0.15248 -0.000344808 0)
(0.153211 -0.000362098 0)
(0.153971 -0.000369671 0)
(0.154737 -0.0003675 0)
(0.155488 -0.000356087 0)
(0.156205 -0.000336464 0)
(0.156872 -0.000309872 0)
(0.157475 -0.000277574 0)
(0.158003 -0.000241193 0)
(0.158448 -0.000202109 0)
(0.158806 -0.000161656 0)
(0.159075 -0.000121217 0)
(0.159256 -8.22234e-05 0)
(0.159351 -4.4456e-05 0)
(0.159369 -3.71817e-06 0)
(0.159318 3.34703e-05 0)
(0.1592 6.63538e-05 0)
(0.15902 9.6255e-05 0)
(0.158783 0.000123568 0)
(0.158492 0.000148899 0)
(0.158152 0.000172638 0)
(0.157765 0.000194983 0)
(0.157333 0.000215985 0)
(0.156859 0.000235535 0)
(0.156345 0.000253328 0)
(0.155795 0.000268906 0)
(0.155213 0.000281621 0)
(0.154607 0.000290744 0)
(0.153984 0.000295748 0)
(0.153353 0.000295942 0)
(0.152727 0.00029061 0)
(0.152117 0.000279297 0)
(0.151537 0.000261828 0)
(0.151 0.000237912 0)
(0.15052 0.000208042 0)
(0.150109 0.000172694 0)
(0.149779 0.000132748 0)
(0.149539 8.90398e-05 0)
(0.149397 4.22968e-05 0)
(0.149354 -9.9041e-06 0)
(0.149408 -6.23434e-05 0)
(0.149559 -0.000110199 0)
(0.149805 -0.000153672 0)
(0.150138 -0.000192264 0)
(0.150549 -0.000225312 0)
(0.151024 -0.000252233 0)
(0.151552 -0.000272578 0)
(0.152118 -0.000286081 0)
(0.152705 -0.000292654 0)
(0.1533 -0.000292304 0)
(0.153888 -0.000285275 0)
(0.154455 -0.000272275 0)
(0.154989 -0.000254193 0)
(0.15548 -0.000231885 0)
(0.15592 -0.000206471 0)
(0.156303 -0.000178855 0)
(0.156624 -0.000149855 0)
(0.156883 -0.000120089 0)
(0.15708 -9.09604e-05 0)
(0.157215 -6.32264e-05 0)
(0.157291 -3.61757e-05 0)
(0.157314 -8.02708e-06 0)
(0.15729 1.80491e-05 0)
(0.157222 4.04742e-05 0)
(0.157113 6.00665e-05 0)
(0.156968 7.69769e-05 0)
(0.156792 9.08806e-05 0)
(0.15659 0.000102724 0)
(0.15637 0.000110474 0)
(0.156128 0.000115158 0)
(0.155904 0.000113874 0)
(0.155628 9.23846e-05 0)
(0.15551 3.80845e-05 0)
(0.436224 -0.000979579 0)
(0.437114 -0.00117696 0)
(0.43812 -0.00134081 0)
(0.439214 -0.00146568 0)
(0.440365 -0.00154992 0)
(0.441546 -0.00159476 0)
(0.442727 -0.00160176 0)
(0.443885 -0.00157161 0)
(0.444994 -0.00150485 0)
(0.446031 -0.00140306 0)
(0.446971 -0.00127013 0)
(0.447798 -0.00111207 0)
(0.448496 -0.000936082 0)
(0.449058 -0.000749953 0)
(0.449481 -0.000561916 0)
(0.449767 -0.000379476 0)
(0.449925 -0.000206997 0)
(0.449969 -4.62263e-05 0)
(0.449905 9.99366e-05 0)
(0.449749 0.000225544 0)
(0.44952 0.00033229 0)
(0.449229 0.000422557 0)
(0.448886 0.000499172 0)
(0.448502 0.000565199 0)
(0.448081 0.000623635 0)
(0.447628 0.000677083 0)
(0.447145 0.000727351 0)
(0.446634 0.000775344 0)
(0.446095 0.000821145 0)
(0.44553 0.000863872 0)
(0.44494 0.000901729 0)
(0.44433 0.000932334 0)
(0.443705 0.00095274 0)
(0.443072 0.000959923 0)
(0.442442 0.000951059 0)
(0.441825 0.000923346 0)
(0.441237 0.000874272 0)
(0.440692 0.000802001 0)
(0.440208 0.000706289 0)
(0.439798 0.000588078 0)
(0.43948 0.000449136 0)
(0.439265 0.000291209 0)
(0.439163 0.000117466 0)
(0.439186 -6.95953e-05 0)
(0.439338 -0.00025804 0)
(0.439615 -0.000439855 0)
(0.440008 -0.000610114 0)
(0.440509 -0.00076444 0)
(0.441105 -0.00089826 0)
(0.44178 -0.0010072 0)
(0.442514 -0.00108764 0)
(0.443287 -0.00113721 0)
(0.444075 -0.00115479 0)
(0.444855 -0.00114056 0)
(0.445605 -0.00109644 0)
(0.446306 -0.00102592 0)
(0.44694 -0.000933257 0)
(0.447495 -0.000822862 0)
(0.447959 -0.000699506 0)
(0.448327 -0.000568258 0)
(0.448596 -0.000433947 0)
(0.448765 -0.000300989 0)
(0.448839 -0.000171925 0)
(0.448822 -4.78182e-05 0)
(0.448721 6.97187e-05 0)
(0.448541 0.000178227 0)
(0.448292 0.000276542 0)
(0.447982 0.000365807 0)
(0.447618 0.000447541 0)
(0.447203 0.000523159 0)
(0.446741 0.000593759 0)
(0.446237 0.000660063 0)
(0.445692 0.000722347 0)
(0.44511 0.000780294 0)
(0.444493 0.000832956 0)
(0.443846 0.000878738 0)
(0.443174 0.000915704 0)
(0.442483 0.000941629 0)
(0.441783 0.000954236 0)
(0.441085 0.000951139 0)
(0.440398 0.000930263 0)
(0.439737 0.000890096 0)
(0.439114 0.000829909 0)
(0.438545 0.000750358 0)
(0.438042 0.000652225 0)
(0.437618 0.000537223 0)
(0.437283 0.000408156 0)
(0.437045 0.000268187 0)
(0.436908 0.00011976 0)
(0.436877 -3.55459e-05 0)
(0.436957 -0.000189193 0)
(0.437139 -0.000334793 0)
(0.437416 -0.000468989 0)
(0.437778 -0.000588809 0)
(0.438215 -0.000691427 0)
(0.438712 -0.000774394 0)
(0.439256 -0.000835884 0)
(0.43983 -0.000874905 0)
(0.440418 -0.000891227 0)
(0.441003 -0.000885313 0)
(0.44157 -0.000858534 0)
(0.442105 -0.000813087 0)
(0.442596 -0.000751561 0)
(0.443033 -0.000677105 0)
(0.443409 -0.000592639 0)
(0.443718 -0.000501528 0)
(0.443959 -0.000407286 0)
(0.44413 -0.000313101 0)
(0.444233 -0.000220782 0)
(0.444272 -0.000132505 0)
(0.444253 -4.89763e-05 0)
(0.444178 2.91093e-05 0)
(0.444055 0.000100206 0)
(0.443889 0.000162722 0)
(0.443689 0.000216663 0)
(0.44346 0.00026241 0)
(0.44321 0.00029972 0)
(0.442938 0.000328515 0)
(0.442668 0.000349057 0)
(0.442371 0.000354696 0)
(0.442113 0.000350706 0)
(0.441838 0.000335642 0)
(0.441547 0.000215092 0)
(0.706641 -0.00188229 0)
(0.707543 -0.0022077 0)
(0.708581 -0.0024704 0)
(0.709722 -0.00266019 0)
(0.71093 -0.00277557 0)
(0.71217 -0.00282164 0)
(0.713413 -0.00280457 0)
(0.714632 -0.00272741 0)
(0.715801 -0.00259066 0)
(0.716891 -0.00239605 0)
(0.717874 -0.00214989 0)
(0.718729 -0.00186289 0)
(0.719438 -0.00154828 0)
(0.71999 -0.0012198 0)
(0.720385 -0.000890414 0)
(0.720624 -0.000573166 0)
(0.720719 -0.000276126 0)
(0.72068 -6.0337e-06 0)
(0.720526 0.000226864 0)
(0.720275 0.000426199 0)
(0.719946 0.000594618 0)
(0.719553 0.000735226 0)
(0.71911 0.000852706 0)
(0.718627 0.000952512 0)
(0.718112 0.0010401 0)
(0.717568 0.00112022 0)
(0.716998 0.00119634 0)
(0.716402 0.00127032 0)
(0.715779 0.00134229 0)
(0.71513 0.00141068 0)
(0.714456 0.00147238 0)
(0.71376 0.00152321 0)
(0.713047 0.00155815 0)
(0.712323 0.00157178 0)
(0.7116 0.00155863 0)
(0.710888 0.00151329 0)
(0.710205 0.00143208 0)
(0.709566 0.00131195 0)
(0.708988 0.00115134 0)
(0.70849 0.000951419 0)
(0.708088 0.000715745 0)
(0.707799 0.000450037 0)
(0.707634 0.000157915 0)
(0.707603 -0.000148324 0)
(0.707711 -0.000454829 0)
(0.707955 -0.000754146 0)
(0.708326 -0.00103687 0)
(0.708814 -0.00129403 0)
(0.709405 -0.00151685 0)
(0.710082 -0.00169706 0)
(0.710823 -0.00182804 0)
(0.711605 -0.00190534 0)
(0.7124 -0.00192669 0)
(0.713184 -0.00189247 0)
(0.713931 -0.00180641 0)
(0.714621 -0.00167493 0)
(0.715233 -0.00150561 0)
(0.715755 -0.0013069 0)
(0.716177 -0.0010867 0)
(0.716491 -0.00085347 0)
(0.716694 -0.000615432 0)
(0.716788 -0.000379 0)
(0.716775 -0.000150806 0)
(0.716665 6.11144e-05 0)
(0.716466 0.000253954 0)
(0.716188 0.000429471 0)
(0.715841 0.000588841 0)
(0.715432 0.000733383 0)
(0.714969 0.000865218 0)
(0.714457 0.00098677 0)
(0.7139 0.0011002 0)
(0.713302 0.00120702 0)
(0.712664 0.00130783 0)
(0.711989 0.0014021 0)
(0.711277 0.00148814 0)
(0.710534 0.00156321 0)
(0.709763 0.00162372 0)
(0.708971 0.00166562 0)
(0.708167 0.00168481 0)
(0.707362 0.00167741 0)
(0.706567 0.00163977 0)
(0.705796 0.00156935 0)
(0.705066 0.00146471 0)
(0.70439 0.00132594 0)
(0.703784 0.00115458 0)
(0.703261 0.000954227 0)
(0.702832 0.000729692 0)
(0.702508 0.000486909 0)
(0.702295 0.000232269 0)
(0.702195 -2.87012e-05 0)
(0.70221 -0.000286659 0)
(0.702335 -0.000531401 0)
(0.702564 -0.000757975 0)
(0.702885 -0.000960557 0)
(0.703286 -0.00113358 0)
(0.703753 -0.00127244 0)
(0.704269 -0.0013738 0)
(0.704816 -0.00143582 0)
(0.705378 -0.00145798 0)
(0.705934 -0.00144106 0)
(0.706469 -0.00138753 0)
(0.706967 -0.00130148 0)
(0.707416 -0.00118806 0)
(0.707805 -0.00105285 0)
(0.708125 -0.000901882 0)
(0.708373 -0.000740594 0)
(0.708545 -0.000574148 0)
(0.70864 -0.000407962 0)
(0.708661 -0.000246251 0)
(0.708611 -9.32836e-05 0)
(0.708499 4.70274e-05 0)
(0.708331 0.000173067 0)
(0.708111 0.000285068 0)
(0.707848 0.000383381 0)
(0.707549 0.000467817 0)
(0.707219 0.000538178 0)
(0.706867 0.000594848 0)
(0.706493 0.000635793 0)
(0.706114 0.00066367 0)
(0.705725 0.000670419 0)
(0.705319 0.000657975 0)
(0.704982 0.000643328 0)
(0.704424 0.000524929 0)
(0.957778 -0.00258949 0)
(0.958572 -0.0030884 0)
(0.959539 -0.00349871 0)
(0.960639 -0.00380242 0)
(0.961823 -0.00399658 0)
(0.963051 -0.00408911 0)
(0.964293 -0.00408767 0)
(0.965522 -0.00399331 0)
(0.966712 -0.0038032 0)
(0.967828 -0.00351883 0)
(0.968835 -0.0031505 0)
(0.969701 -0.00271525 0)
(0.970404 -0.00223356 0)
(0.970928 -0.00172746 0)
(0.971266 -0.00121822 0)
(0.971418 -0.000724458 0)
(0.971392 -0.000262445 0)
(0.971204 0.000151034 0)
(0.970876 0.000507501 0)
(0.970428 0.000809233 0)
(0.969881 0.00105944 0)
(0.969254 0.00126399 0)
(0.968565 0.00143096 0)
(0.967828 0.00156956 0)
(0.967052 0.00168898 0)
(0.966245 0.00179722 0)
(0.965409 0.00190018 0)
(0.964545 0.00200111 0)
(0.963651 0.00210038 0)
(0.962729 0.00219564 0)
(0.961778 0.00228228 0)
(0.960801 0.00235387 0)
(0.959803 0.00240278 0)
(0.958792 0.00242092 0)
(0.95778 0.00240026 0)
(0.956783 0.00233284 0)
(0.955818 0.00221221 0)
(0.954904 0.00203364 0)
(0.954064 0.00179563 0)
(0.95332 0.00149899 0)
(0.952695 0.00114773 0)
(0.952208 0.000748653 0)
(0.951875 0.000311161 0)
(0.95171 -0.000149106 0)
(0.951719 -0.000612441 0)
(0.951899 -0.00105772 0)
(0.952239 -0.00147504 0)
(0.952725 -0.0018535 0)
(0.953343 -0.00217997 0)
(0.95407 -0.00244179 0)
(0.954881 -0.00262903 0)
(0.955744 -0.00273502 0)
(0.956627 -0.00275621 0)
(0.957495 -0.00269334 0)
(0.958317 -0.00255293 0)
(0.959065 -0.00234572 0)
(0.959717 -0.00208378 0)
(0.960257 -0.00177953 0)
(0.960672 -0.00144527 0)
(0.960955 -0.00109294 0)
(0.961099 -0.000733058 0)
(0.961106 -0.000376787 0)
(0.960982 -3.92491e-05 0)
(0.96074 0.000272848 0)
(0.960392 0.000556544 0)
(0.959951 0.000811702 0)
(0.95943 0.00103994 0)
(0.958842 0.00124423 0)
(0.958194 0.00142858 0)
(0.957495 0.00159728 0)
(0.95675 0.00175419 0)
(0.955961 0.00190205 0)
(0.95513 0.00204214 0)
(0.954258 0.00217391 0)
(0.953347 0.00229501 0)
(0.9524 0.00240131 0)
(0.95142 0.00248734 0)
(0.950417 0.00254693 0)
(0.949397 0.00257382 0)
(0.948376 0.00256213 0)
(0.947366 0.00250617 0)
(0.946385 0.00240146 0)
(0.94545 0.00224574 0)
(0.94458 0.00203921 0)
(0.943793 0.00178499 0)
(0.943106 0.00148854 0)
(0.942532 0.00115705 0)
(0.942084 0.000799224 0)
(0.941767 0.00042473 0)
(0.941586 4.26392e-05 0)
(0.941545 -0.000334531 0)
(0.941636 -0.000692887 0)
(0.941848 -0.00102153 0)
(0.94217 -0.00131431 0)
(0.942587 -0.00156372 0)
(0.94308 -0.0017629 0)
(0.94363 -0.00190678 0)
(0.944215 -0.00199245 0)
(0.944814 -0.00201891 0)
(0.945404 -0.00198754 0)
(0.945965 -0.00190247 0)
(0.946478 -0.00176998 0)
(0.946929 -0.00159767 0)
(0.947305 -0.00139371 0)
(0.947597 -0.00116681 0)
(0.947799 -0.000925156 0)
(0.947908 -0.000675908 0)
(0.947921 -0.000426558 0)
(0.947845 -0.000187724 0)
(0.947685 3.61751e-05 0)
(0.947449 0.000241624 0)
(0.947145 0.000426093 0)
(0.946782 0.000588901 0)
(0.946367 0.000730118 0)
(0.94591 0.00085023 0)
(0.945417 0.000949523 0)
(0.944895 0.00102901 0)
(0.944352 0.00108684 0)
(0.943783 0.00112536 0)
(0.943227 0.00114161 0)
(0.942588 0.00113382 0)
(0.94212 0.00112389 0)
(0.941213 0.00103041 0)
(1.17763 -0.00330631 0)
(1.17844 -0.00402101 0)
(1.17949 -0.00459868 0)
(1.18073 -0.0050021 0)
(1.18208 -0.00522948 0)
(1.18349 -0.00531019 0)
(1.18492 -0.00527698 0)
(1.18635 -0.0051407 0)
(1.18774 -0.0048896 0)
(1.18903 -0.00451197 0)
(1.19019 -0.00401541 0)
(1.19116 -0.00342438 0)
(1.19192 -0.00276687 0)
(1.19245 -0.00207286 0)
(1.19273 -0.00137182 0)
(1.19277 -0.000691109 0)
(1.19258 -5.78286e-05 0)
(1.19219 0.000507173 0)
(1.19162 0.000999509 0)
(1.1909 0.00141928 0)
(1.19006 0.00176704 0)
(1.18913 0.00204921 0)
(1.18813 0.00227674 0)
(1.18707 0.00246248 0)
(1.18596 0.00261959 0)
(1.18482 0.00275989 0)
(1.18364 0.00289251 0)
(1.18242 0.00302295 0)
(1.18116 0.00315255 0)
(1.17986 0.00327868 0)
(1.17851 0.00339539 0)
(1.17713 0.00349388 0)
(1.17572 0.00356333 0)
(1.17428 0.00359186 0)
(1.17284 0.00356734 0)
(1.17141 0.00347809 0)
(1.17001 0.00331418 0)
(1.16868 0.00306902 0)
(1.16743 0.00273946 0)
(1.16631 0.00232637 0)
(1.16533 0.00183393 0)
(1.16453 0.00127238 0)
(1.16394 0.000659167 0)
(1.16358 1.66432e-05 0)
(1.16344 -0.000631689 0)
(1.16354 -0.00126098 0)
(1.16386 -0.00184809 0)
(1.16439 -0.00238219 0)
(1.1651 -0.00284627 0)
(1.16597 -0.00322092 0)
(1.16697 -0.00349052 0)
(1.16805 -0.00364421 0)
(1.16917 -0.00367487 0)
(1.17027 -0.00358291 0)
(1.17132 -0.00337986 0)
(1.17228 -0.00308277 0)
(1.17311 -0.00270834 0)
(1.1738 -0.00227352 0)
(1.17432 -0.00179598 0)
(1.17467 -0.00129218 0)
(1.17483 -0.000777478 0)
(1.17481 -0.000270541 0)
(1.17461 0.000205336 0)
(1.17426 0.000640857 0)
(1.17377 0.00103349 0)
(1.17315 0.00138256 0)
(1.17243 0.00169044 0)
(1.17163 0.00196211 0)
(1.17076 0.00220413 0)
(1.16982 0.00242365 0)
(1.16883 0.00262718 0)
(1.16778 0.00281954 0)
(1.16668 0.00300311 0)
(1.16553 0.00317757 0)
(1.16433 0.00333978 0)
(1.16309 0.00348402 0)
(1.1618 0.00360248 0)
(1.16048 0.00368603 0)
(1.15913 0.00372507 0)
(1.15778 0.0037107 0)
(1.15643 0.00363511 0)
(1.15512 0.00349199 0)
(1.15387 0.00327854 0)
(1.15271 0.00299541 0)
(1.15165 0.00264599 0)
(1.15072 0.00223653 0)
(1.14994 0.00177591 0)
(1.14934 0.00127548 0)
(1.1489 0.000749284 0)
(1.14865 0.000215035 0)
(1.14858 -0.000312966 0)
(1.14868 -0.00081717 0)
(1.14894 -0.00127924 0)
(1.14934 -0.00168962 0)
(1.14987 -0.00203764 0)
(1.15049 -0.00231344 0)
(1.1512 -0.00250994 0)
(1.15194 -0.00262338 0)
(1.15271 -0.00265248 0)
(1.15346 -0.00259951 0)
(1.15417 -0.00247088 0)
(1.15481 -0.00227589 0)
(1.15537 -0.00202561 0)
(1.15583 -0.00173203 0)
(1.15617 -0.00140698 0)
(1.1564 -0.00106154 0)
(1.1565 -0.000706232 0)
(1.15647 -0.000353556 0)
(1.15631 -1.77132e-05 0)
(1.15605 0.000294018 0)
(1.15568 0.000577969 0)
(1.15522 0.000832005 0)
(1.15469 0.00105537 0)
(1.15409 0.00124854 0)
(1.15343 0.00141274 0)
(1.15272 0.00154914 0)
(1.15197 0.00165924 0)
(1.1512 0.00174241 0)
(1.15037 0.00180072 0)
(1.14958 0.00183206 0)
(1.14864 0.00183981 0)
(1.14798 0.00184008 0)
(1.14663 0.00177404 0)
(1.34911 -0.0038028 0)
(1.35055 -0.00482579 0)
(1.35235 -0.00567501 0)
(1.35439 -0.00629975 0)
(1.3565 -0.00670587 0)
(1.35858 -0.00692996 0)
(1.36059 -0.00698615 0)
(1.36253 -0.00686551 0)
(1.36438 -0.00654906 0)
(1.36607 -0.00603391 0)
(1.36753 -0.00534146 0)
(1.36873 -0.00451186 0)
(1.36962 -0.00358385 0)
(1.37018 -0.00260034 0)
(1.37039 -0.00159501 0)
(1.37027 -0.000611355 0)
(1.36986 0.00029614 0)
(1.36919 0.00109816 0)
(1.36831 0.00178414 0)
(1.36726 0.00235598 0)