/*--------------------------------*- C++ -*----------------------------------*\
| =========                 |                                                 |
| \\      /  F ield         | OpenFOAM: The Open Source CFD Toolbox           |
|  \\    /   O peration     | Version:  2206                                  |
|   \\  /    A nd           | Website:  www.openfoam.com                      |
|    \\/     M anipulation  |                                                 |
\*---------------------------------------------------------------------------*/
FoamFile
{
    version     2.0;
    format      ascii;
    arch        "LSB;label=32;scalar=64";
    class       volVectorField;
    location    "19.7001";
    object      ddt0(U);
}
// * * * * * * * * * * * * * * * * * * * * * * * * * * * * * * * * * * * * * //

dimensions      [0 1 -2 0 0 0 0];

internalField   nonuniform List<vector> 
1814
(
(-11.3547 -24.8034 0)
(-8.50901 -25.4013 0)
(-5.37051 -25.1086 0)
(-2.06865 -23.9852 0)
(1.24532 -22.1029 0)
(4.46993 -19.5656 0)
(7.58222 -16.5089 0)
(10.5516 -13.0159 0)
(13.1604 -9.16793 0)
(15.0907 -5.27077 0)
(16.4717 -1.64568 0)
(17.2424 1.84687 0)
(17.3046 5.30169 0)
(16.5893 8.568 0)
(15.1655 11.5857 0)
(13.1836 14.3798 0)
(10.7793 16.9312 0)
(8.06041 19.164 0)
(5.08761 20.916 0)
(1.95382 21.8305 0)
(-1.09642 21.659 0)
(-3.86375 20.5224 0)
(-6.23124 18.4915 0)
(-8.09472 15.7305 0)
(-9.40617 12.4792 0)
(-10.2826 8.98272 0)
(-10.9762 5.39099 0)
(-11.4415 1.77276 0)
(-11.5712 -1.88251 0)
(-11.4272 -5.47332 0)
(-10.9173 -8.76554 0)
(-10.1162 -11.6361 0)
(-9.08247 -14.0506 0)
(-7.8192 -15.98 0)
(-6.28889 -17.3486 0)
(-4.46301 -17.9323 0)
(-2.48109 -17.8333 0)
(-0.462043 -17.1366 0)
(1.51854 -15.8903 0)
(3.39879 -14.1603 0)
(5.12926 -12.0424 0)
(6.70619 -9.63476 0)
(8.14638 -7.01709 0)
(9.38582 -4.27244 0)
(10.2408 -1.54826 0)
(10.8034 1.04592 0)
(11.0056 3.5404 0)
(10.7947 5.88294 0)
(10.1686 7.99833 0)
(9.1571 9.8617 0)
(7.8086 11.4688 0)
(6.17734 12.7933 0)
(4.30573 13.7232 0)
(2.27966 14.1226 0)
(0.248545 13.9803 0)
(-1.65882 13.29 0)
(-3.37137 12.0913 0)
(-4.82668 10.4594 0)
(-5.97953 8.50429 0)
(-6.83757 6.34237 0)
(-7.47136 4.07196 0)
(-7.9421 1.78398 0)
(-8.18443 -0.44251 0)
(-8.23033 -2.59233 0)
(-8.08569 -4.65578 0)
(-7.7026 -6.51495 0)
(-7.09279 -8.08484 0)
(-6.24605 -9.30366 0)
(-5.12665 -10.0685 0)
(-3.82008 -10.4082 0)
(-2.43426 -10.3529 0)
(-1.05321 -9.92664 0)
(0.270558 -9.16456 0)
(1.4874 -8.1166 0)
(2.58326 -6.85243 0)
(3.58499 -5.42951 0)
(4.49639 -3.87917 0)
(5.23311 -2.25102 0)
(5.77337 -0.66141 0)
(6.15771 0.873276 0)
(6.33263 2.38046 0)
(6.26159 3.79248 0)
(5.93941 5.04867 0)
(5.37799 6.12614 0)
(4.5705 6.97386 0)
(3.55742 7.57677 0)
(2.40264 7.91178 0)
(1.19765 7.92984 0)
(0.0298027 7.62239 0)
(-1.0458 7.01069 0)
(-1.98114 6.14379 0)
(-2.76893 5.09314 0)
(-3.47706 3.90761 0)
(-4.08101 2.60262 0)
(-4.53007 1.25947 0)
(-4.88101 -0.119264 0)
(-5.06799 -1.50851 0)
(-5.07645 -2.8195 0)
(-4.93237 -4.00208 0)
(-4.6587 -5.03415 0)
(-4.25879 -5.89512 0)
(-3.71369 -6.53675 0)
(-2.99002 -6.8417 0)
(-2.16411 -6.87344 0)
(-1.29437 -6.64676 0)
(-0.422591 -6.179 0)
(0.411533 -5.49858 0)
(1.18435 -4.64892 0)
(1.91361 -3.66864 0)
(2.61084 -2.57194 0)
(3.18682 -1.38884 0)
(3.66068 -0.218605 0)
(4.02599 0.927845 0)
(4.25602 2.04021 0)
(4.34185 3.09656 0)
(4.26938 4.05964 0)
(4.05305 4.95126 0)
(3.62844 5.61342 0)
(2.95858 6.13975 0)
(2.4211 6.52902 0)
(1.073 6.61513 0)
(-7.91275 -27.0881 0)
(-5.76579 -28.048 0)
(-3.3685 -27.9192 0)
(-0.900896 -26.8638 0)
(1.53494 -24.9544 0)
(3.82729 -22.2735 0)
(5.84537 -18.9497 0)
(7.51911 -15.1849 0)
(8.93743 -11.1785 0)
(10.2946 -7.01155 0)
(11.3532 -2.82388 0)
(12.0849 1.18786 0)
(12.3775 5.39109 0)
(11.9441 9.40718 0)
(10.9069 13.0556 0)
(9.40616 16.3691 0)
(7.5213 19.3232 0)
(5.33868 21.8598 0)
(2.92363 23.832 0)
(0.391465 24.793 0)
(-2.02174 24.4144 0)
(-4.15121 22.9298 0)
(-5.88584 20.4114 0)
(-7.11399 17.0746 0)
(-7.74784 13.2739 0)
(-7.84159 9.42887 0)
(-7.86175 5.75885 0)
(-8.11329 1.99954 0)
(-8.14063 -1.9148 0)
(-7.98517 -5.85208 0)
(-7.49888 -9.45463 0)
(-6.80798 -12.5774 0)
(-5.95057 -15.2056 0)
(-4.92063 -17.3093 0)
(-3.71822 -18.8598 0)
(-2.30284 -19.7149 0)
(-0.720417 -19.6513 0)
(0.883755 -18.9218 0)
(2.41869 -17.5762 0)
(3.81462 -15.6922 0)
(4.99621 -13.3728 0)
(5.91004 -10.7494 0)
(6.57963 -7.96674 0)
(7.16004 -5.11644 0)
(7.72478 -2.20663 0)
(7.97684 0.703783 0)
(8.0339 3.53756 0)
(7.79807 6.24121 0)
(7.24456 8.70879 0)
(6.41542 10.8965 0)
(5.34965 12.7891 0)
(4.08355 14.3637 0)
(2.63733 15.5426 0)
(1.03358 16.0834 0)
(-0.607087 15.858 0)
(-2.13507 15.0066 0)
(-3.48553 13.564 0)
(-4.59072 11.6292 0)
(-5.3899 9.34879 0)
(-5.85408 6.89637 0)
(-6.05375 4.43668 0)
(-6.21716 2.03213 0)
(-6.3512 -0.337096 0)
(-6.31366 -2.67329 0)
(-6.14201 -4.99467 0)
(-5.7273 -7.06844 0)
(-5.14579 -8.8027 0)
(-4.43048 -10.2 0)
(-3.54894 -11.2143 0)
(-2.47493 -11.7189 0)
(-1.29488 -11.6657 0)
(-0.13297 -11.189 0)
(0.958089 -10.3315 0)
(1.9244 -9.15264 0)
(2.72521 -7.72856 0)
(3.34486 -6.14122 0)
(3.81883 -4.47104 0)
(4.23863 -2.75668 0)
(4.57948 -1.02605 0)
(4.76319 0.665442 0)
(4.82237 2.39009 0)
(4.663 4.01295 0)
(4.31901 5.45127 0)
(3.83384 6.71195 0)
(3.20922 7.78567 0)
(2.4303 8.61659 0)
(1.49292 9.04449 0)
(0.49259 9.0587 0)
(-0.477721 8.68361 0)
(-1.36498 7.94832 0)
(-2.11116 6.92131 0)
(-2.66428 5.70561 0)
(-3.05829 4.4103 0)
(-3.46063 3.05619 0)
(-3.77667 1.61998 0)
(-4.03079 0.124141 0)
(-4.15598 -1.44068 0)
(-4.1078 -2.92065 0)
(-3.93547 -4.24905 0)
(-3.6581 -5.41028 0)
(-3.2825 -6.38122 0)
(-2.81654 -7.14055 0)
(-2.22235 -7.61753 0)
(-1.51137 -7.7014 0)
(-0.753431 -7.48824 0)
(0.00551699 -6.9963 0)
(0.727293 -6.26083 0)
(1.3705 -5.32847 0)
(1.90926 -4.25333 0)
(2.36861 -3.08273 0)
(2.79602 -1.83963 0)
(3.12439 -0.562757 0)
(3.35712 0.690142 0)
(3.50206 1.9286 0)
(3.52289 3.12028 0)
(3.41618 4.20786 0)
(3.20263 5.20481 0)
(2.90417 6.05902 0)
(2.3851 6.75386 0)
(1.96404 7.2605 0)
(0.873595 7.45965 0)
(-5.13437 -28.7093 0)
(-3.61318 -30.0789 0)
(-1.81371 -30.0418 0)
(0.0442672 -28.9887 0)
(1.848 -26.9594 0)
(3.49394 -24.0372 0)
(4.83419 -20.3628 0)
(5.7049 -16.1823 0)
(5.99974 -11.8413 0)
(5.98806 -7.70973 0)
(6.41899 -3.64135 0)
(6.85076 0.780963 0)
(7.20705 5.48361 0)
(6.77671 10.0029 0)
(5.90073 14.1129 0)
(4.77843 17.8092 0)
(3.40155 21.0623 0)
(1.83046 23.8344 0)
(0.15282 25.9746 0)
(-1.42468 26.9182 0)
(-2.71914 26.313 0)
(-3.75398 24.4942 0)
(-4.53141 21.5355 0)
(-5.00672 17.6702 0)
(-5.09944 13.332 0)
(-4.68297 9.12588 0)
(-4.1866 5.49035 0)
(-4.15271 2.3399 0)
(-4.30485 -2.09751 0)
(-4.46259 -6.18907 0)
(-4.23185 -9.92499 0)
(-3.86962 -13.2052 0)
(-3.42549 -15.9827 0)
(-2.83313 -18.2424 0)
(-2.07707 -19.9672 0)
(-1.11343 -21.0344 0)
(0.0481165 -21.0578 0)
(1.29544 -20.3264 0)
(2.51676 -18.887 0)
(3.62187 -16.816 0)
(4.51168 -14.2314 0)
(5.09726 -11.3115 0)
(5.33628 -8.28478 0)
(5.37202 -5.34337 0)
(5.56503 -2.4183 0)
(5.63816 0.659706 0)
(5.51682 3.72941 0)
(5.18846 6.67928 0)
(4.61165 9.37643 0)
(3.85744 11.7636 0)
(2.96613 13.8187 0)
(1.96483 15.5248 0)
(0.874338 16.8159 0)
(-0.278495 17.45 0)
(-1.41063 17.188 0)
(-2.42602 16.2326 0)
(-3.29668 14.6098 0)
(-3.97786 12.4209 0)
(-4.41844 9.83382 0)
(-4.55981 7.07792 0)
(-4.36314 4.43147 0)
(-4.08451 2.09036 0)
(-4.13541 -0.273214 0)
(-4.17908 -2.79424 0)
(-4.19088 -5.29116 0)
(-3.8903 -7.51292 0)
(-3.47398 -9.38052 0)
(-2.99605 -10.9049 0)
(-2.40423 -12.0502 0)
(-1.6654 -12.7312 0)
(-0.786363 -12.7169 0)
(0.130235 -12.2126 0)
(1.01015 -11.2625 0)
(1.7932 -9.93734 0)
(2.42444 -8.33534 0)
(2.8587 -6.57112 0)
(3.08954 -4.76404 0)
(3.21719 -2.99791 0)
(3.42219 -1.22972 0)
(3.55662 0.596563 0)
(3.64624 2.49861 0)
(3.46186 4.28294 0)
(3.10704 5.85463 0)
(2.65812 7.22111 0)
(2.11163 8.3797 0)
(1.47094 9.30836 0)
(0.730193 9.88135 0)
(-0.0652785 9.91898 0)
(-0.827425 9.51489 0)
(-1.50791 8.68481 0)
(-2.05307 7.50542 0)
(-2.39402 6.10824 0)
(-2.4743 4.67751 0)
(-2.47698 3.36016 0)
(-2.69642 1.89509 0)
(-2.89818 0.245912 0)
(-3.03292 -1.43232 0)
(-2.96401 -3.02071 0)
(-2.81651 -4.45046 0)
(-2.62081 -5.69612 0)
(-2.36375 -6.74539 0)
(-2.05281 -7.59253 0)
(-1.66099 -8.18609 0)
(-1.16317 -8.36091 0)
(-0.590683 -8.18094 0)
(0.0121346 -7.6842 0)
(0.607916 -6.89943 0)
(1.14775 -5.8799 0)
(1.57928 -4.70227 0)
(1.88325 -3.44836 0)
(2.13983 -2.15813 0)
(2.42109 -0.809267 0)
(2.60502 0.54387 0)
(2.75782 1.87556 0)
(2.80205 3.17536 0)
(2.72454 4.37793 0)
(2.54592 5.46022 0)
(2.31512 6.40235 0)
(1.93934 7.21502 0)
(1.63512 7.80742 0)
(0.807141 8.08748 0)
(-3.14174 -29.7918 0)
(-2.17274 -31.5525 0)
(-0.982872 -31.6457 0)
(0.251984 -30.5977 0)
(1.43636 -28.4764 0)
(2.49522 -25.3258 0)
(3.25963 -21.2293 0)
(3.60927 -16.4799 0)
(3.38792 -11.5825 0)
(2.54596 -7.20524 0)
(2.35374 -3.51386 0)
(2.35427 -0.391405 0)
(2.48212 6.00099 0)
(1.96485 10.7062 0)
(1.2265 15.0474 0)
(0.494715 18.9499 0)
(-0.259463 22.3366 0)
(-0.976406 25.1592 0)
(-1.55768 27.1765 0)
(-1.80783 27.6699 0)
(-1.74044 26.8018 0)
(-1.55566 24.8068 0)
(-1.38568 21.7279 0)
(-1.29155 17.6806 0)
(-1.26389 13.0433 0)
(-1.1897 8.45288 0)
(-0.996169 4.69447 0)
(-0.967954 2.56443 0)
(-1.17477 -1.29795 0)
(-1.53876 -6.19948 0)
(-1.70285 -10.0018 0)
(-1.75185 -13.3897 0)
(-1.71853 -16.2926 0)
(-1.55606 -18.7048 0)
(-1.25935 -20.628 0)
(-0.801032 -21.9286 0)
(-0.151011 -22.1389 0)
(0.640382 -21.4493 0)
(1.46914 -19.96 0)
(2.25576 -17.7238 0)
(2.91447 -14.8684 0)
(3.34931 -11.6192 0)
(3.45125 -8.30059 0)
(3.18487 -5.27721 0)
(3.06677 -2.55375 0)
(3.12639 0.672145 0)
(3.00457 4.04007 0)
(2.72092 7.20889 0)
(2.22885 10.078 0)
(1.64483 12.6025 0)
(1.01599 14.7527 0)
(0.365132 16.5284 0)
(-0.277074 17.8665 0)
(-0.867447 18.4605 0)
(-1.36715 18.0678 0)
(-1.71954 16.9526 0)
(-1.96482 15.1541 0)
(-2.14635 12.7686 0)
(-2.26719 9.92933 0)
(-2.28493 6.86756 0)
(-2.09814 3.95289 0)
(-1.88538 1.53527 0)
(-1.81545 -0.135913 0)
(-1.96631 -2.41747 0)
(-2.15876 -5.47363 0)
(-2.06158 -7.7658 0)
(-1.90513 -9.71676 0)
(-1.73587 -11.3194 0)
(-1.49169 -12.5781 0)
(-1.14831 -13.4026 0)
(-0.680131 -13.5217 0)
(-0.132641 -13.0374 0)
(0.428437 -12.0452 0)
(0.952317 -10.6021 0)
(1.38677 -8.81744 0)
(1.67035 -6.83935 0)
(1.76586 -4.85731 0)
(1.66839 -3.04967 0)
(1.80138 -1.32388 0)
(1.91348 0.230641 0)
(2.0803 2.64076 0)
(1.94399 4.57822 0)
(1.67073 6.283 0)
(1.35415 7.76734 0)
(0.97339 9.02905 0)
(0.538294 10.045 0)
(0.0706441 10.666 0)
(-0.369841 10.6619 0)
(-0.738358 10.1676 0)
(-1.03224 9.19792 0)
(-1.23968 7.81582 0)
(-1.3331 6.15865 0)
(-1.27465 4.49072 0)
(-1.2135 3.08886 0)
(-1.21824 2.20133 0)
(-1.3161 0.533053 0)
(-1.43059 -1.4785 0)
(-1.42708 -3.11778 0)
(-1.38448 -4.60079 0)
(-1.32517 -5.88448 0)
(-1.24079 -6.96711 0)
(-1.13785 -7.86142 0)
(-0.994603 -8.53217 0)
(-0.780087 -8.81907 0)
(-0.491725 -8.69638 0)
(-0.150425 -8.23066 0)
(0.222713 -7.42241 0)
(0.591172 -6.31894 0)
(0.902475 -5.01839 0)
(1.09439 -3.65447 0)
(1.15416 -2.35617 0)
(1.27383 -1.10867 0)
(1.4506 0.297936 0)
(1.61194 1.75535 0)
(1.72087 3.16776 0)
(1.72303 4.47517 0)
(1.64544 5.63856 0)
(1.5288 6.651 0)
(1.32212 7.55654 0)
(1.15128 8.23347 0)
(0.651195 8.6116 0)
(-1.46914 -30.3163 0)
(-0.896763 -32.2425 0)
(-0.21691 -32.4632 0)
(0.483334 -31.4561 0)
(1.13687 -29.2716 0)
(1.63037 -25.9158 0)
(1.81479 -21.488 0)
(1.65003 -16.3376 0)
(1.21939 -10.9971 0)
(0.58764 -6.24882 0)
(-0.0105414 -3.03602 0)
(-0.407025 -0.590952 0)
(-0.763137 6.46237 0)
(-1.13537 11.1589 0)
(-1.40896 15.4597 0)
(-1.52593 19.2681 0)
(-1.46671 22.5021 0)
(-1.2088 25.118 0)
(-0.754411 26.8775 0)
(-0.185896 27.0865 0)
(0.335557 26.1493 0)
(0.73456 24.2003 0)
(1.00511 21.3018 0)
(1.12852 17.5445 0)
(1.06552 13.2469 0)
(0.817218 8.94146 0)
(0.439366 5.19174 0)
(0.221515 2.432 0)
(0.0306015 -1.3512 0)
(-0.297713 -5.78665 0)
(-0.613721 -9.65592 0)
(-0.841516 -13.1426 0)
(-0.958029 -16.1482 0)
(-0.957664 -18.6563 0)
(-0.834715 -20.671 0)
(-0.568567 -22.1004 0)
(-0.195927 -22.5244 0)
(0.230144 -21.954 0)
(0.659379 -20.536 0)
(1.04402 -18.3078 0)
(1.33689 -15.3618 0)
(1.48754 -11.8806 0)
(1.45247 -8.20557 0)
(1.20375 -4.79405 0)
(0.777646 -2.08744 0)
(0.714522 0.364067 0)
(0.531941 4.12997 0)
(0.301272 7.45766 0)
(0.0673036 10.3861 0)
(-0.120265 12.928 0)
(-0.257223 15.0583 0)
(-0.334922 16.781 0)
(-0.336296 18.0291 0)
(-0.248067 18.4929 0)
(-0.0611905 18.0184 0)
(0.0757597 16.8616 0)
(0.159078 15.0886 0)
(0.168493 12.7753 0)
(0.099907 10.0136 0)
(-0.0409982 7.01556 0)
(-0.215626 4.0901 0)
(-0.342987 1.57197 0)
(-0.423395 -0.0502458 0)
(-0.629206 -2.17665 0)
(-0.869233 -5.42597 0)
(-0.999124 -7.68024 0)
(-1.07672 -9.65731 0)
(-1.10118 -11.3055 0)
(-1.04885 -12.6137 0)
(-0.914164 -13.5172 0)
(-0.693306 -13.7545 0)
(-0.432604 -13.31 0)
(-0.194523 -12.3553 0)
(0.0212125 -10.9052 0)
(0.1999 -9.0727 0)
(0.32376 -7.00893 0)
(0.371823 -4.86943 0)
(0.306772 -2.88388 0)
(0.185434 -1.2833 0)
(0.211793 -0.171421 0)
(0.259688 2.69095 0)
(0.173675 4.63154 0)
(0.0789145 6.36848 0)
(0.0185435 7.88402 0)
(-0.015519 9.16307 0)
(-0.0130817 10.1794 0)
(0.0436973 10.7666 0)
(0.123326 10.7231 0)
(0.184275 10.2002 0)
(0.222598 9.21606 0)
(0.231712 7.83631 0)
(0.202204 6.20576 0)
(0.132715 4.57341 0)
(0.0654266 3.17458 0)
(0.0178817 2.13175 0)
(-0.0131029 0.55438 0)
(-0.0996639 -1.38348 0)
(-0.211432 -3.03719 0)
(-0.311645 -4.53527 0)
(-0.383432 -5.83303 0)
(-0.415438 -6.92623 0)
(-0.398776 -7.82886 0)
(-0.359331 -8.52375 0)
(-0.284299 -8.87517 0)
(-0.184349 -8.80707 0)
(-0.0683545 -8.40618 0)
(0.0602062 -7.65674 0)
(0.194528 -6.57802 0)
(0.319043 -5.23473 0)
(0.407716 -3.74491 0)
(0.425651 -2.27348 0)
(0.359286 -0.992924 0)
(0.396624 0.0811112 0)
(0.458922 1.58122 0)
(0.496744 3.06332 0)
(0.488733 4.42928 0)
(0.464177 5.63912 0)
(0.427062 6.68875 0)
(0.363348 7.63366 0)
(0.300944 8.32926 0)
(0.235603 8.74368 0)
(0.344992 -0.440019 0)
(1.1766 -0.406839 0)
(1.94682 -0.365933 0)
(2.63492 -0.319975 0)
(3.22891 -0.270687 0)
(3.71885 -0.218384 0)
(4.09668 -0.163172 0)
(4.35755 -0.105289 0)
(4.49746 -0.045316 0)
(4.51355 0.0161187 0)
(4.4037 0.0782786 0)
(4.16714 0.139793 0)
(3.80542 0.199324 0)
(3.31851 0.252676 0)
(2.71549 0.299662 0)
(2.00007 0.361529 0)
(1.25804 0.453203 0)
(0.493634 0.439749 0)
(-0.349572 0.431535 0)
(-1.19597 0.412687 0)
(-2.00872 0.381414 0)
(-2.75757 0.339341 0)
(-3.41509 0.287081 0)
(-3.95783 0.226411 0)
(-4.36771 0.159847 0)
(-4.63217 0.0897483 0)
(-4.74428 0.0178229 0)
(-4.70525 -0.0527827 0)
(-4.5169 -0.118268 0)
(-4.19935 -0.176885 0)
(-3.76464 -0.227039 0)
(-3.23214 -0.267911 0)
(-2.62343 -0.298651 0)
(-1.96152 -0.317637 0)
(-1.26839 -0.324725 0)
(-0.560717 -0.319598 0)
(0.125032 -0.312625 0)
(0.76872 -0.323035 0)
(1.3488 -0.277601 0)
(1.88429 -0.242129 0)
(2.34639 -0.198622 0)
(2.72225 -0.153154 0)
(3.005 -0.106312 0)
(3.19022 -0.0588105 0)
(3.27616 -0.0116421 0)
(3.26359 0.0343005 0)
(3.15391 0.0778345 0)
(2.95457 0.117289 0)
(2.67598 0.15234 0)
(2.32573 0.182404 0)
(1.91687 0.205966 0)
(1.46419 0.221934 0)
(0.984499 0.229683 0)
(0.495956 0.228531 0)
(0.0169658 0.21804 0)
(-0.435116 0.19721 0)
(-0.839403 0.165729 0)
(-1.18158 0.146192 0)
(-1.45526 0.105311 0)
(-1.65696 0.0689282 0)
(-1.78073 0.0304737 0)
(-1.82598 -0.00628185 0)
(-1.79677 -0.0400123 0)
(-1.70029 -0.069812 0)
(-1.54529 -0.0944677 0)
(-1.34227 -0.114106 0)
(-1.10319 -0.127782 0)
(-0.841126 -0.135265 0)
(-0.568831 -0.136452 0)
(-0.29788 -0.132245 0)
(-0.0389396 -0.12307 0)
(0.198792 -0.109685 0)
(0.40782 -0.0930658 0)
(0.582391 -0.0737787 0)
(0.718162 -0.0522328 0)
(0.812448 -0.0291223 0)
(0.862842 -0.00487146 0)
(0.868108 0.0192777 0)
(0.828033 0.0425369 0)
(0.743568 0.0638269 0)
(0.617228 0.0826996 0)
(0.452939 0.0985643 0)
(0.256142 0.11103 0)
(0.0337473 0.119819 0)
(-0.206179 0.124511 0)
(-0.45421 0.124631 0)
(-0.699977 0.120084 0)
(-0.932997 0.111033 0)
(-1.14285 0.0975935 0)
(-1.32082 0.0798621 0)
(-1.45813 0.058863 0)
(-1.54982 0.0351949 0)
(-1.59039 0.00939617 0)
(-1.57735 -0.0169757 0)
(-1.50981 -0.0419559 0)
(-1.38763 -0.0646077 0)
(-1.2128 -0.0875313 0)
(-1.01372 -0.131051 0)
(-0.782444 -0.145621 0)
(-0.524623 -0.146348 0)
(-0.244649 -0.150429 0)
(0.0406133 -0.146696 0)
(0.319646 -0.138963 0)
(0.582682 -0.127366 0)
(0.820753 -0.112122 0)
(1.02607 -0.0939269 0)
(1.19242 -0.0735754 0)
(1.31509 -0.0521493 0)
(1.39281 -0.03006 0)
(1.42358 -0.00723731 0)
(1.40581 0.0155495 0)
(1.34049 0.0370304 0)
(1.23058 0.0568552 0)
(1.07996 0.0740967 0)
(0.895256 0.0883931 0)
(0.680304 0.0984031 0)
(0.451357 0.103607 0)
(0.20653 0.104502 0)
(-0.0247293 0.0928369 0)
(-0.253922 0.0704854 0)
(-0.0229668 -1.35587 0)
(0.840133 -1.29135 0)
(1.6479 -1.19271 0)
(2.3817 -1.07 0)
(3.01651 -0.925145 0)
(3.53718 -0.764516 0)
(3.93782 -0.594165 0)
(4.21623 -0.417761 0)
(4.36814 -0.238224 0)
(4.40241 -0.0562795 0)
(4.31623 0.126968 0)
(4.11148 0.309913 0)
(3.79065 0.491089 0)
(3.35862 0.66595 0)
(2.82135 0.83817 0)
(2.17936 0.981086 0)
(1.48743 1.12054 0)
(0.672747 1.26261 0)
(-0.209594 1.30711 0)
(-1.06871 1.30295 0)
(-1.91738 1.25682 0)
(-2.72444 1.16752 0)
(-3.4554 1.03684 0)
(-4.0809 0.869215 0)
(-4.57586 0.671961 0)
(-4.92317 0.453773 0)
(-5.10922 0.223296 0)
(-5.12961 -0.0100206 0)
(-4.99324 -0.236218 0)
(-4.70529 -0.445619 0)
(-4.2797 -0.631302 0)
(-3.73614 -0.78933 0)
(-3.0963 -0.914588 0)
(-2.38516 -1.00328 0)
(-1.62919 -1.05323 0)
(-0.855893 -1.06492 0)
(-0.0930421 -1.06093 0)
(0.653072 -1.03891 0)
(1.3587 -0.971815 0)
(1.99895 -0.871242 0)
(2.54582 -0.750887 0)
(3.00288 -0.617303 0)
(3.36211 -0.473676 0)
(3.61662 -0.323224 0)
(3.76275 -0.169551 0)
(3.80051 -0.0163123 0)
(3.7295 0.133376 0)
(3.55526 0.274948 0)
(3.28858 0.403743 0)
(2.93442 0.517208 0)
(2.50851 0.612316 0)
(2.02597 0.6858 0)
(1.50389 0.734446 0)
(0.960621 0.75554 0)
(0.41527 0.747829 0)
(-0.1132 0.711389 0)
(-0.60595 0.652819 0)
(-1.03832 0.588391 0)
(-1.41334 0.476882 0)
(-1.71416 0.358354 0)
(-1.92791 0.236254 0)
(-2.05577 0.114184 0)
(-2.09973 -0.00323127 0)
(-2.06451 -0.11087 0)
(-1.95816 -0.206359 0)
(-1.78958 -0.286995 0)
(-1.57044 -0.349458 0)
(-1.31652 -0.392267 0)
(-1.03962 -0.416057 0)
(-0.753203 -0.421748 0)
(-0.469516 -0.409926 0)
(-0.199297 -0.382379 0)
(0.0481194 -0.342045 0)
(0.264929 -0.291313 0)
(0.445673 -0.233077 0)
(0.58672 -0.170155 0)
(0.685551 -0.102692 0)
(0.740157 -0.032513 0)
(0.749518 0.0374342 0)
(0.714422 0.106421 0)
(0.634695 0.170691 0)
(0.514561 0.228816 0)
(0.358412 0.279197 0)
(0.172179 0.31992 0)
(-0.0368917 0.349049 0)
(-0.261229 0.364939 0)
(-0.490592 0.366156 0)
(-0.715241 0.351582 0)
(-0.923271 0.322122 0)
(-1.10486 0.278479 0)
(-1.25246 0.222498 0)
(-1.35823 0.156163 0)
(-1.41606 0.0823191 0)
(-1.42177 0.00505594 0)
(-1.37357 -0.0726402 0)
(-1.27444 -0.15092 0)
(-1.12462 -0.232262 0)
(-0.934172 -0.297161 0)
(-0.705268 -0.363723 0)
(-0.430187 -0.411028 0)
(-0.147637 -0.43334 0)
(0.136767 -0.439378 0)
(0.418541 -0.430739 0)
(0.686666 -0.407356 0)
(0.930485 -0.370131 0)
(1.14089 -0.320555 0)
(1.31037 -0.260874 0)
(1.43284 -0.193637 0)
(1.50459 -0.121832 0)
(1.52054 -0.0470667 0)
(1.478 0.0288073 0)
(1.3836 0.102873 0)
(1.23887 0.172554 0)
(1.04716 0.236108 0)
(0.816702 0.291394 0)
(0.549435 0.336889 0)
(0.261062 0.369781 0)
(-0.0495129 0.385581 0)
(-0.360772 0.388184 0)
(-0.658705 0.357773 0)
(-1.00509 0.284645 0)
(-0.47822 -2.22026 0)
(0.383266 -2.14923 0)
(1.21759 -1.99994 0)
(1.97319 -1.77556 0)
(2.6226 -1.5167 0)
(3.16444 -1.23733 0)
(3.59362 -0.941853 0)
(3.90854 -0.637934 0)
(4.10949 -0.331652 0)
(4.19124 -0.0273454 0)
(4.16391 0.275569 0)
(4.02342 0.577372 0)
(3.76566 0.876535 0)
(3.3867 1.17309 0)
(2.8869 1.4537 0)
(2.29318 1.70127 0)
(1.61352 1.90875 0)
(0.833947 2.04232 0)
(-0.0124044 2.14633 0)
(-0.879348 2.17374 0)
(-1.74116 2.11463 0)
(-2.56436 1.97193 0)
(-3.314 1.75135 0)
(-3.95853 1.46261 0)
(-4.47054 1.11955 0)
(-4.83087 0.738711 0)
(-5.02411 0.335338 0)
(-5.04595 -0.0707123 0)
(-4.90686 -0.461604 0)
(-4.61183 -0.824306 0)
(-4.17574 -1.14548 0)
(-3.62005 -1.41678 0)
(-2.96542 -1.62953 0)
(-2.23801 -1.77553 0)
(-1.46534 -1.86156 0)
(-0.671001 -1.90001 0)
(0.115525 -1.88621 0)
(0.87002 -1.79034 0)
(1.57156 -1.64193 0)
(2.20566 -1.47278 0)
(2.75242 -1.27185 0)
(3.20286 -1.04312 0)
(3.54944 -0.794827 0)
(3.78689 -0.533794 0)
(3.9119 -0.266148 0)
(3.92354 0.00229666 0)
(3.81784 0.263341 0)
(3.61386 0.508027 0)
(3.314 0.731443 0)
(2.92863 0.928171 0)
(2.4705 1.09207 0)
(1.95441 1.21787 0)
(1.39699 1.29968 0)
(0.817672 1.33314 0)
(0.237275 1.31735 0)
(-0.323462 1.25831 0)
(-0.845869 1.16515 0)
(-1.32049 1.02898 0)
(-1.71349 0.836182 0)
(-2.01317 0.634694 0)
(-2.22318 0.424751 0)
(-2.341 0.213085 0)
(-2.36785 0.00892553 0)
(-2.30906 -0.179759 0)
(-2.1729 -0.346664 0)
(-1.97079 -0.486424 0)
(-1.72005 -0.594749 0)
(-1.4317 -0.669421 0)
(-1.11966 -0.710488 0)
(-0.798756 -0.718929 0)
(-0.482598 -0.697918 0)
(-0.182825 -0.651887 0)
(0.0912647 -0.585387 0)
(0.332224 -0.501845 0)
(0.534055 -0.405358 0)
(0.694241 -0.302753 0)
(0.811431 -0.196244 0)
(0.880744 -0.0834946 0)
(0.902608 0.0320222 0)
(0.877917 0.146014 0)
(0.806432 0.255384 0)
(0.690523 0.356837 0)
(0.53522 0.444266 0)
(0.345745 0.513902 0)
(0.129195 0.565843 0)
(-0.106082 0.595445 0)
(-0.350122 0.599419 0)
(-0.590912 0.574305 0)
(-0.816295 0.522714 0)
(-1.01389 0.447713 0)
(-1.17776 0.352261 0)
(-1.29894 0.240229 0)
(-1.37094 0.115818 0)
(-1.38957 -0.017458 0)
(-1.35162 -0.158051 0)
(-1.25083 -0.291837 0)
(-1.1012 -0.413613 0)
(-0.908226 -0.523607 0)
(-0.674624 -0.602023 0)
(-0.408636 -0.663106 0)
(-0.124267 -0.704563 0)
(0.166659 -0.718351 0)
(0.453247 -0.703718 0)
(0.72376 -0.662235 0)
(0.967519 -0.596231 0)
(1.17508 -0.508805 0)
(1.33872 -0.403704 0)
(1.45208 -0.285216 0)
(1.51214 -0.157889 0)
(1.51371 -0.0254438 0)
(1.4623 0.107082 0)
(1.35741 0.23526 0)
(1.20171 0.355618 0)
(0.998004 0.465143 0)
(0.754026 0.560462 0)
(0.471419 0.638017 0)
(0.164795 0.695624 0)
(-0.167993 0.722406 0)
(-0.50737 0.735959 0)
(-0.827781 0.719921 0)
(-1.29482 0.590931 0)
(-0.863847 -3.13793 0)
(0.0873126 -3.03668 0)
(0.966519 -2.82537 0)
(1.76298 -2.52725 0)
(2.45187 -2.16089 0)
(3.03228 -1.769 0)
(3.49987 -1.36178 0)
(3.85327 -0.945632 0)
(4.09389 -0.526353 0)
(4.22318 -0.107813 0)
(4.2379 0.309869 0)
(4.13797 0.730155 0)
(3.92085 1.15199 0)
(3.58602 1.56915 0)
(3.13294 1.97202 0)
(2.54706 2.33768 0)
(1.84029 2.64286 0)
(1.04512 2.8736 0)
(0.176748 3.02614 0)
(-0.733738 3.07216 0)
(-1.64821 2.99465 0)
(-2.5267 2.7969 0)
(-3.32923 2.48569 0)
(-4.01827 2.07375 0)
(-4.56249 1.58141 0)
(-4.94183 1.03364 0)
(-5.13302 0.454967 0)
(-5.14548 -0.125252 0)
(-4.98001 -0.681923 0)
(-4.64706 -1.1963 0)
(-4.16486 -1.6516 0)
(-3.55464 -2.03466 0)
(-2.83963 -2.33748 0)
(-2.04548 -2.55843 0)
(-1.20309 -2.69142 0)
(-0.350753 -2.71704 0)
(0.458899 -2.65709 0)
(1.24149 -2.52857 0)
(1.97139 -2.32923 0)
(2.61505 -2.07522 0)
(3.16142 -1.77607 0)
(3.60116 -1.44192 0)
(3.92712 -1.08256 0)
(4.1349 -0.70585 0)
(4.2166 -0.31863 0)
(4.17324 0.0672669 0)
(4.01877 0.437859 0)
(3.7545 0.784833 0)
(3.38883 1.10181 0)
(2.93315 1.38087 0)
(2.40079 1.61351 0)
(1.80732 1.7914 0)
(1.17048 1.90745 0)
(0.509591 1.95478 0)
(-0.152473 1.93244 0)
(-0.790327 1.84491 0)
(-1.37274 1.68811 0)
(-1.86854 1.45521 0)
(-2.27039 1.18727 0)
(-2.56901 0.893891 0)
(-2.7588 0.584111 0)
(-2.83871 0.271078 0)
(-2.80887 -0.0315208 0)
(-2.6848 -0.307874 0)
(-2.47801 -0.549301 0)
(-2.20276 -0.749894 0)
(-1.8746 -0.905506 0)
(-1.50834 -1.01228 0)
(-1.11895 -1.06804 0)
(-0.723504 -1.07157 0)
(-0.340329 -1.03504 0)
(0.0155593 -0.965896 0)
(0.334481 -0.866683 0)
(0.611011 -0.744879 0)
(0.837688 -0.606973 0)
(1.01805 -0.455563 0)
(1.15005 -0.292058 0)
(1.22491 -0.12248 0)
(1.24348 0.033613 0)
(1.20617 0.205195 0)
(1.11539 0.359893 0)
(0.974156 0.504119 0)
(0.786538 0.630828 0)
(0.558073 0.735524 0)
(0.296274 0.81246 0)
(0.010758 0.856405 0)
(-0.288826 0.863958 0)
(-0.586308 0.830445 0)
(-0.864585 0.758737 0)
(-1.11278 0.652611 0)
(-1.32031 0.516518 0)
(-1.47592 0.356209 0)
(-1.57411 0.175047 0)
(-1.6083 -0.020835 0)
(-1.57485 -0.218924 0)
(-1.47991 -0.41053 0)
(-1.32838 -0.589429 0)
(-1.11245 -0.745509 0)
(-0.846224 -0.870723 0)
(-0.54708 -0.961656 0)
(-0.225173 -1.01532 0)
(0.105373 -1.02912 0)
(0.430947 -1.00305 0)
(0.738912 -0.93829 0)
(1.01731 -0.837941 0)
(1.25565 -0.706949 0)
(1.44538 -0.551075 0)
(1.57979 -0.376622 0)
(1.65582 -0.190388 0)
(1.66642 0.000141163 0)
(1.61924 0.188774 0)
(1.51359 0.371885 0)
(1.3521 0.544 0)
(1.13784 0.700433 0)
(0.87865 0.836909 0)
(0.577776 0.949362 0)
(0.245387 1.03485 0)
(-0.115502 1.07883 0)
(-0.500587 1.10018 0)
(-0.837851 1.10529 0)
(-1.39877 0.963388 0)
(-1.30358 -4.16777 0)
(-0.0102149 -4.04316 0)
(1.19248 -3.74951 0)
(2.24308 -3.32529 0)
(3.15063 -2.84815 0)
(3.90959 -2.33959 0)
(4.51632 -1.81183 0)
(4.97499 -1.27531 0)
(5.29171 -0.737388 0)
(5.47275 -0.201546 0)
(5.518 0.334832 0)
(5.42576 0.87874 0)
(5.19176 1.43227 0)
(4.80376 1.98335 0)
(4.25977 2.51304 0)
(3.55714 2.99887 0)
(2.68771 3.42738 0)
(1.68552 3.77043 0)
(0.566772 3.98475 0)
(-0.620386 4.05905 0)
(-1.81101 3.97769 0)
(-2.94079 3.72686 0)
(-3.95881 3.31656 0)
(-4.81565 2.76542 0)
(-5.47037 2.10185 0)
(-5.90026 1.36262 0)
(-6.08738 0.582838 0)
(-6.05667 -0.200142 0)
(-5.81057 -0.951483 0)
(-5.36783 -1.64221 0)
(-4.75183 -2.25194 0)
(-3.98731 -2.76736 0)
(-3.10068 -3.17907 0)
(-2.12787 -3.46627 0)
(-1.12606 -3.60768 0)
(-0.142263 -3.62532 0)
(0.820729 -3.53576 0)
(1.73241 -3.33917 0)
(2.55963 -3.05995 0)
(3.28365 -2.70824 0)
(3.88981 -2.2972 0)
(4.36763 -1.84248 0)
(4.71119 -1.35532 0)
(4.91021 -0.842557 0)
(4.95857 -0.319253 0)
(4.87324 0.193861 0)
(4.65224 0.685947 0)
(4.30165 1.14762 0)
(3.83097 1.56839 0)
(3.25298 1.93743 0)
(2.58268 2.24372 0)
(1.83688 2.47624 0)
(1.03381 2.62626 0)
(0.194704 2.68895 0)
(-0.646982 2.65727 0)
(-1.44476 2.51994 0)
(-2.15085 2.26725 0)
(-2.73949 1.93412 0)
(-3.20563 1.55292 0)
(-3.53214 1.13955 0)
(-3.70729 0.704334 0)
(-3.7366 0.269719 0)
(-3.63315 -0.140789 0)
(-3.40854 -0.513001 0)
(-3.07981 -0.836307 0)
(-2.66715 -1.10136 0)
(-2.19324 -1.30169 0)
(-1.67911 -1.43388 0)
(-1.14136 -1.50324 0)
(-0.59837 -1.5207 0)
(-0.0680778 -1.46835 0)
(0.409044 -1.35076 0)
(0.828628 -1.20328 0)
(1.18367 -1.0256 0)
(1.46782 -0.805933 0)
(1.67735 -0.634118 0)
(1.81589 -0.416314 0)
(1.88581 -0.185421 0)
(1.88184 0.0466646 0)
(1.81108 0.27304 0)
(1.67473 0.489182 0)
(1.47579 0.688554 0)
(1.2194 0.866415 0)
(0.91195 1.01581 0)
(0.56343 1.12759 0)
(0.182708 1.19902 0)
(-0.228845 1.22317 0)
(-0.644247 1.16983 0)
(-1.0303 1.06854 0)
(-1.3775 0.921711 0)
(-1.67269 0.731854 0)
(-1.90257 0.506226 0)
(-2.0572 0.254441 0)
(-2.13226 -0.0126826 0)
(-2.1266 -0.283318 0)
(-2.0397 -0.545529 0)
(-1.87332 -0.788118 0)
(-1.63063 -1.00017 0)
(-1.32373 -1.17619 0)
(-0.967132 -1.30486 0)
(-0.576068 -1.3784 0)
(-0.16799 -1.39416 0)
(0.240248 -1.35509 0)
(0.632199 -1.26478 0)
(0.99164 -1.12822 0)
(1.30493 -0.951512 0)
(1.56153 -0.741223 0)
(1.7535 -0.505606 0)
(1.87613 -0.253824 0)
(1.92689 0.00334001 0)
(1.8998 0.256339 0)
(1.80729 0.500955 0)
(1.64896 0.731709 0)
(1.4301 0.942365 0)
(1.15515 1.12639 0)
(0.835236 1.27958 0)
(0.470602 1.40091 0)
(0.0830608 1.47608 0)
(-0.363582 1.50512 0)
(-0.722514 1.53102 0)
(-1.37135 1.40126 0)
(-2.09901 -5.77535 0)
(-0.0445293 -5.58253 0)
(1.86507 -5.11461 0)
(3.55094 -4.54285 0)
(4.98483 -3.88315 0)
(6.16774 -3.17897 0)
(7.11164 -2.46455 0)
(7.8268 -1.75147 0)
(8.32521 -1.04573 0)
(8.62152 -0.349285 0)
(8.71285 0.342998 0)
(8.6007 1.04847 0)
(8.28515 1.77693 0)
(7.74265 2.51269 0)
(6.96284 3.23375 0)
(5.9401 3.9146 0)
(4.67682 4.52363 0)
(3.16784 5.02907 0)
(1.4523 5.38733 0)
(-0.441245 5.51435 0)
(-2.37893 5.36524 0)
(-4.23106 5.00106 0)
(-5.89597 4.41379 0)
(-7.28581 3.62994 0)
(-8.32412 2.69614 0)
(-8.96474 1.67332 0)
(-9.15147 0.630457 0)
(-8.97471 -0.385303 0)
(-8.45549 -1.3588 0)
(-7.64342 -2.25651 0)
(-6.59446 -3.05163 0)
(-5.36046 -3.72384 0)
(-3.98881 -4.24479 0)
(-2.52636 -4.56446 0)
(-1.04307 -4.68834 0)
(0.385368 -4.6977 0)
(1.71226 -4.57768 0)
(2.89525 -4.3117 0)
(3.92646 -3.92491 0)
(4.79666 -3.44544 0)
(5.49571 -2.89587 0)
(6.01998 -2.29444 0)
(6.36239 -1.65144 0)
(6.522 -0.978911 0)
(6.51773 -0.300926 0)
(6.34264 0.364252 0)
(5.99827 1.00428 0)
(5.4911 1.60729 0)
(4.83179 2.15882 0)
(4.03464 2.6438 0)
(3.1159 3.04843 0)
(2.0919 3.36306 0)
(0.978672 3.58194 0)
(-0.19841 3.68658 0)
(-1.37046 3.62504 0)
(-2.44971 3.38599 0)
(-3.39443 3.02327 0)
(-4.19146 2.55648 0)
(-4.80144 2.01565 0)
(-5.19832 1.42763 0)
(-5.36417 0.815026 0)
(-5.33146 0.213144 0)
(-5.10792 -0.355987 0)
(-4.7139 -0.867624 0)
(-4.17669 -1.30423 0)
(-3.52691 -1.655 0)
(-2.79765 -1.91324 0)
(-2.01927 -2.08794 0)
(-1.1895 -2.19767 0)
(-0.327236 -2.1727 0)
(0.46191 -2.06405 0)
(1.16572 -1.89032 0)
(1.77801 -1.66436 0)
(2.29028 -1.40289 0)
(2.69472 -1.11692 0)
(2.97949 -0.814993 0)
(3.14415 -0.50781 0)
(3.1869 -0.198062 0)
(3.1323 0.110412 0)
(2.97537 0.412636 0)
(2.72113 0.700998 0)
(2.37659 0.968822 0)
(1.95261 1.20651 0)
(1.46353 1.4049 0)
(0.921637 1.55606 0)
(0.34277 1.65755 0)
(-0.27886 1.71031 0)
(-0.917784 1.64888 0)
(-1.50351 1.51203 0)
(-2.02168 1.31398 0)
(-2.4534 1.05866 0)
(-2.78172 0.757231 0)
(-2.99643 0.421214 0)
(-3.09562 0.0628227 0)
(-3.08337 -0.307328 0)
(-2.96497 -0.673137 0)
(-2.74534 -1.01223 0)
(-2.43439 -1.308 0)
(-2.03686 -1.54582 0)
(-1.56851 -1.71819 0)
(-1.05154 -1.82525 0)
(-0.513514 -1.86527 0)
(0.021571 -1.83196 0)
(0.53567 -1.72054 0)
(1.01184 -1.53821 0)
(1.43517 -1.30008 0)
(1.79194 -1.01868 0)
(2.07009 -0.705903 0)
(2.26168 -0.372688 0)
(2.36533 -0.0311778 0)
(2.37535 0.304979 0)
(2.29389 0.627612 0)
(2.13208 0.929017 0)
(1.8958 1.20559 0)
(1.58248 1.44528 0)
(1.2199 1.65073 0)
(0.785855 1.81205 0)
(0.342398 1.92165 0)
(-0.197061 1.97348 0)
(-0.620483 2.01241 0)
(-1.40137 1.89044 0)
(-4.66399 -8.4117 0)
(-1.30348 -8.15555 0)
(1.96567 -7.4472 0)
(4.92343 -6.46993 0)
(7.48483 -5.50397 0)
(9.57347 -4.50305 0)
(11.2183 -3.494 0)
(12.4618 -2.50535 0)
(13.3327 -1.53985 0)
(13.8615 -0.58968 0)
(14.0579 0.354735 0)
(13.9221 1.31499 0)
(13.4853 2.31437 0)
(12.7148 3.33938 0)
(11.5991 4.36067 0)
(10.1333 5.34478 0)
(8.32046 6.25427 0)
(6.17229 7.04338 0)
(3.70618 7.65994 0)
(0.952183 7.99884 0)
(-1.99322 7.86296 0)
(-4.92227 7.32777 0)
(-7.67406 6.45817 0)
(-10.1033 5.26935 0)