/*--------------------------------*- C++ -*----------------------------------*\
| =========                 |                                                 |
| \\      /  F ield         | OpenFOAM: The Open Source CFD Toolbox           |
|  \\    /   O peration     | Version:  2206                                  |
|   \\  /    A nd           | Website:  www.openfoam.com                      |
|    \\/     M anipulation  |                                                 |
\*---------------------------------------------------------------------------*/
FoamFile
{
    version     2.0;
    format      ascii;
    arch        "LSB;label=32;scalar=64";
    class       volScalarField;
    location    "18.2001";
    object      p;
}
// * * * * * * * * * * * * * * * * * * * * * * * * * * * * * * * * * * * * * //

dimensions      [0 2 -2 0 0 0 0];

internalField   nonuniform List<scalar> 
3037
(
-0.0132943
-0.0139826
-0.0140646
-0.013581
-0.0125652
-0.0111603
-0.00961897
-0.00806222
-0.00641042
-0.00520076
-0.00522218
-0.0061667
-0.00776083
-0.0099415
-0.0125931
-0.0155812
-0.0187331
-0.02185
-0.0247247
-0.0271527
-0.0289457
-0.0299473
-0.0300523
-0.0292633
-0.0275938
-0.0251345
-0.0220337
-0.0184747
-0.0146586
-0.0107777
-0.00703933
-0.00379261
-0.00118842
0.00123997
0.00340908
0.00488166
0.00566534
0.00586116
0.00555382
0.00485732
0.00390843
0.00285312
0.00182782
0.000827446
8.1549e-05
-0.000216014
-0.000652828
-0.00100441
-0.000791778
-0.000678994
-0.000704087
-0.000657097
-0.000711011
-0.00145829
-0.00282319
-0.00452556
-0.00647901
-0.00861167
-0.0108422
-0.0130589
-0.0151364
-0.0169519
-0.0183877
-0.0193389
-0.0197289
-0.0195179
-0.0187131
-0.0173431
-0.0154795
-0.0132214
-0.010686
-0.00799828
-0.00527551
-0.00265737
-0.000394993
0.00149376
0.00333643
0.00501527
0.00623657
0.00700924
0.00738391
0.00739523
0.00709904
0.00656526
0.00587096
0.0050868
0.00421561
0.00338207
0.00260231
0.00179874
0.000982002
0.000251427
-0.000492328
-0.00135997
-0.00224519
-0.00308605
-0.00428616
-0.00594379
-0.00779379
-0.00970376
-0.0116359
-0.0135435
-0.0153475
-0.0169703
-0.0183372
-0.0193765
-0.0200296
-0.0202607
-0.0200624
-0.0194429
-0.0184324
-0.0170851
-0.0154716
-0.0136656
-0.0117529
-0.00979831
-0.00787853
-0.00628875
-0.00444473
-0.00303425
-0.00010823
-0.0194922
-0.0200776
-0.0199672
-0.0191976
-0.0178613
-0.0161356
-0.0142359
-0.012358
-0.0105365
-0.00864052
-0.00772539
-0.00818916
-0.00942884
-0.0112027
-0.0134629
-0.016125
-0.0190147
-0.0219332
-0.0246745
-0.02703
-0.0288052
-0.0298366
-0.0300118
-0.0293255
-0.0277866
-0.0254833
-0.0225628
-0.0192099
-0.0156292
-0.0120123
-0.00853542
-0.00554007
-0.00336844
-0.00137319
0.000488979
0.00164738
0.00211153
0.00202089
0.00147247
0.000584159
-0.000502886
-0.00163644
-0.00266539
-0.00358103
-0.00420251
-0.00447669
-0.0045438
-0.004537
-0.00417837
-0.00367976
-0.0033949
-0.00319499
-0.00287061
-0.0028989
-0.00380256
-0.00522217
-0.00684804
-0.00865056
-0.0105994
-0.01258
-0.0144673
-0.0161429
-0.0174895
-0.0184006
-0.018797
-0.0186315
-0.0179117
-0.0166627
-0.0149519
-0.0128756
-0.0105493
-0.00809817
-0.00563548
-0.0032708
-0.00125544
0.000244098
0.00171139
0.00311956
0.00406585
0.00456543
0.00470314
0.00451694
0.00406759
0.00343088
0.00268611
0.00190313
0.00106618
0.000360367
-0.000120218
-0.000770906
-0.00161664
-0.00204757
-0.00236821
-0.00298969
-0.00370058
-0.00429295
-0.00495405
-0.00620491
-0.00784779
-0.00947726
-0.0111288
-0.0127964
-0.0143923
-0.0158444
-0.0170795
-0.0180234
-0.018618
-0.0188266
-0.0186352
-0.0180525
-0.017106
-0.0158458
-0.0143382
-0.0126511
-0.0108712
-0.00904905
-0.00727542
-0.00572742
-0.00418948
-0.0030085
-0.000278974
-0.0254035
-0.025877
-0.0255674
-0.0245152
-0.0228377
-0.0207193
-0.0183898
-0.0160958
-0.0139945
-0.0118843
-0.00994923
-0.00956238
-0.0105313
-0.0118322
-0.0136148
-0.0158881
-0.0184552
-0.0211206
-0.0236821
-0.0259275
-0.0276578
-0.0287051
-0.0289568
-0.0283934
-0.0270203
-0.0249212
-0.0222402
-0.0191611
-0.0158887
-0.012617
-0.00949419
-0.00680198
-0.00511029
-0.00359273
-0.00209804
-0.00136257
-0.00129482
-0.00174341
-0.00259702
-0.00372876
-0.00499034
-0.006219
-0.00727221
-0.00809484
-0.00859934
-0.00875106
-0.0085945
-0.00817124
-0.00748678
-0.00667895
-0.0059353
-0.00537165
-0.00486962
-0.00423794
-0.00445937
-0.00561
-0.00681018
-0.00818475
-0.00978973
-0.0114773
-0.0131246
-0.0146219
-0.015852
-0.0167066
-0.0171038
-0.0169928
-0.0163795
-0.0152848
-0.0137692
-0.0119244
-0.00986204
-0.00770534
-0.00556703
-0.00352862
-0.00179562
-0.000727394
0.000315352
0.00140464
0.00199084
0.0021502
0.00199617
0.00156548
0.000915639
0.000138808
-0.000676498
-0.00146741
-0.0022335
-0.00276066
-0.00309591
-0.00353795
-0.00407757
-0.00427205
-0.00431352
-0.00460088
-0.00499176
-0.00540743
-0.00560338
-0.00625621
-0.00776836
-0.00901701
-0.0103151
-0.0116911
-0.0130208
-0.0142574
-0.0153287
-0.0161545
-0.0166779
-0.0168623
-0.0166881
-0.016162
-0.0153074
-0.0141685
-0.0128044
-0.0112787
-0.00967272
-0.00803729
-0.00645273
-0.00498976
-0.00381968
-0.00303525
-0.000296012
-0.0308394
-0.031187
-0.030672
-0.0293386
-0.0273108
-0.0247774
-0.0219746
-0.0191585
-0.0165981
-0.0143748
-0.0118743
-0.0102094
-0.0112345
-0.0119046
-0.0130727
-0.0148846
-0.017062
-0.0194121
-0.0217437
-0.0238409
-0.0255001
-0.0265493
-0.0268847
-0.0264661
-0.0252952
-0.0234497
-0.0210674
-0.0183263
-0.0154277
-0.0125709
-0.0099053
-0.00762146
-0.00644286
-0.00545404
-0.00421788
-0.00403518
-0.00443007
-0.00531739
-0.00654151
-0.0079353
-0.0093659
-0.010699
-0.0117967
-0.0125492
-0.0129332
-0.0128932
-0.0124569
-0.0116772
-0.010637
-0.00947083
-0.00830288
-0.00725264
-0.0064141
-0.00535217
-0.00462883
-0.00578662
-0.00643908
-0.00727371
-0.00848246
-0.00982404
-0.0111772
-0.012451
-0.013532
-0.01431
-0.0146986
-0.0146505
-0.0141633
-0.0132517
-0.0119695
-0.0104019
-0.00865404
-0.00684368
-0.0050857
-0.00345362
-0.00207369
-0.00145402
-0.000871869
-2.22512e-05
8.29199e-05
-0.00017687
-0.00064508
-0.00137978
-0.00228298
-0.00320461
-0.00406569
-0.00486529
-0.00556133
-0.0060258
-0.00630573
-0.00647572
-0.00652337
-0.00638362
-0.00618393
-0.00613987
-0.00613442
-0.00619091
-0.0061001
-0.00621625
-0.00753522
-0.00828254
-0.00917107
-0.0102218
-0.0112625
-0.0122738
-0.0131628
-0.0138511
-0.0142913
-0.0144506
-0.0142987
-0.0138441
-0.0131047
-0.0121164
-0.0109296
-0.00960172
-0.00819926
-0.00679161
-0.00542345
-0.00414396
-0.00325199
-0.00270643
-0.000268459
-0.0355903
-0.0358109
-0.0350923
-0.0334791
-0.0311019
-0.028155
-0.0248796
-0.0215352
-0.0183892
-0.0156505
-0.0130724
-0.0108823
-0.0110479
-0.0111385
-0.0117478
-0.0130655
-0.0148331
-0.0168463
-0.018927
-0.0208504
-0.0224166
-0.0234548
-0.0238758
-0.0236138
-0.0226708
-0.0211208
-0.0190904
-0.0167467
-0.0142819
-0.0118896
-0.00972384
-0.0079436
-0.00707633
-0.00639993
-0.00588302
-0.00627748
-0.00725084
-0.00858479
-0.0101239
-0.011789
-0.0134425
-0.0149167
-0.0160655
-0.0167766
-0.0170337
-0.0167912
-0.0160756
-0.0149532
-0.0135231
-0.0119189
-0.0102802
-0.00874144
-0.00738484
-0.0060489
-0.00508938
-0.00548721
-0.00548533
-0.00586019
-0.00664677
-0.00761006
-0.00865246
-0.00969277
-0.0106146
-0.0113065
-0.0116801
-0.0116976
-0.0113471
-0.0106396
-0.00962277
-0.00836881
-0.00697375
-0.00555191
-0.00421095
-0.00302591
-0.00210089
-0.00181243
-0.0015621
-0.00112596
-0.0015957
-0.00239306
-0.00314824
-0.00415244
-0.00532448
-0.00641411
-0.00739693
-0.00822946
-0.00884589
-0.00920629
-0.00932881
-0.00924693
-0.00897648
-0.00854922
-0.0080465
-0.00753931
-0.00705863
-0.00665435
-0.00639344
-0.00644705
-0.00687871
-0.00726964
-0.00792494
-0.00851863
-0.00914075
-0.00992067
-0.0106238
-0.0111636
-0.0115133
-0.0116438
-0.0115339
-0.0111691
-0.0105638
-0.009749
-0.00876772
-0.00767298
-0.00651735
-0.00536881
-0.00425221
-0.00317763
-0.002331
-0.00160126
-0.00029937
-0.00826788
-0.00781163
-0.00719185
-0.00644382
-0.00559253
-0.00467682
-0.00373711
-0.00285176
-0.00204142
-0.00120807
-0.000242575
-0.000547076
0.0208861
0.0190673
0.0174579
0.0160996
0.0150109
0.0142041
0.0136207
0.0132514
0.0130643
0.0130177
0.0130671
0.013172
0.0133005
0.013432
0.0135557
0.0136727
0.0137946
0.013941
0.0141383
0.0144142
0.0147923
0.0152877
0.0159052
0.0166396
0.0174766
0.0183936
0.0193598
0.0203371
0.0212791
0.0221312
0.0228378
0.0233971
0.0237545
0.0238775
0.0237507
0.0233713
0.0227489
0.0219046
0.0208697
0.019684
0.0183927
0.0170424
0.0156789
0.0143427
0.0130678
0.0118816
0.0108095
0.00986396
0.0090509
0.0083778
0.00781313
0.00735518
0.00699219
0.00671026
0.00649507
0.0063355
0.00622703
0.00617081
0.00617288
0.0062436
0.00639628
0.00664506
0.00700312
0.00748098
0.00808414
0.00881077
0.00965165
0.0105915
0.0116097
0.0126807
0.0137749
0.014859
0.0158978
0.0168546
0.0176926
0.0183754
0.0188767
0.0191608
0.0192521
0.0191208
0.0187617
0.0181806
0.0173898
0.016407
0.015254
0.0139557
0.0125391
0.0110322
0.00946178
0.00785336
0.00622998
0.00461227
0.00301861
0.00146536
-3.28146e-05
-0.00146239
-0.00281048
-0.00406389
-0.00520888
-0.00623494
-0.00712479
-0.00789057
-0.00851024
-0.00897298
-0.00927247
-0.0094049
-0.00936939
-0.00916915
-0.00881182
-0.00831045
-0.00768265
-0.00695007
-0.00613773
-0.00527316
-0.00438584
-0.00350535
-0.00266146
-0.00188082
-0.00119094
-0.000608059
-0.000165847
0.0208226
0.0189542
0.0173134
0.0159316
0.0148259
0.0139863
0.013416
0.0130683
0.0129066
0.0128851
0.0129567
0.013078
0.0132164
0.0133512
0.0134704
0.0135751
0.0136793
0.0138042
0.0139801
0.0142393
0.0146089
0.0151055
0.0157337
0.0164874
0.0173515
0.018303
0.0193102
0.0203314
0.0213205
0.0222274
0.023015
0.0236101
0.0239918
0.0241304
0.0240086
0.023624
0.0229869
0.0221196
0.0210547
0.0198339
0.0185048
0.0171161
0.0157154
0.0143454
0.0130417
0.0118346
0.0107451
0.00978682
0.00896558
0.00827347
0.00770829
0.00725357
0.00689495
0.00661634
0.00640191
0.00623957
0.0061252
0.00605991
0.00605059
0.00610866
0.00624867
0.00648625
0.00683583
0.00730981
0.00791528
0.00865097
0.00950694
0.0104672
0.0115106
0.0126111
0.0137381
0.0148576
0.0159327
0.0169242
0.0177937
0.0185053
0.0190393
0.0193757
0.019475
0.019344
0.0189811
0.0183918
0.0175884
0.0165895
0.0154178
0.0140987
0.0126601
0.0111314
0.00954013
0.00791157
0.00626902
0.00463324
0.00302248
0.00145283
-6.12408e-05
-0.00150614
-0.00286799
-0.00413524
-0.00529524
-0.00634209
-0.00726407
-0.00803975
-0.00866684
-0.00913607
-0.0094404
-0.0095752
-0.00953869
-0.00933387
-0.0089674
-0.00845306
-0.0078088
-0.00705631
-0.00622136
-0.00533222
-0.00441961
-0.00351291
-0.00264543
-0.00184189
-0.00113698
-0.000551611
-0.000130742
0.0208139
0.0188962
0.0172173
0.0158143
0.0147002
0.0138727
0.0133127
0.0129848
0.0128453
0.0128446
0.0129299
0.0130538
0.0131833
0.0132973
0.0133805
0.0134377
0.0134906
0.0135588
0.0136791
0.0138922
0.0142313
0.0147156
0.0153489
0.0161235
0.0170232
0.0180246
0.0190946
0.0201903
0.0212606
0.0222487
0.023116
0.023793
0.0242422
0.0244313
0.0243417
0.0239723
0.0233332
0.0224482
0.0213545
0.0200941
0.0187197
0.0172844
0.0158401
0.0144328
0.0131007
0.011872
0.0107622
0.00978748
0.00895782
0.00826342
0.00769476
0.00723779
0.00687481
0.00659136
0.0063645
0.0061792
0.00603735
0.00593966
0.00589282
0.00591122
0.00601307
0.00621754
0.0065407
0.00699799
0.00759931
0.00834361
0.00921868
0.0102073
0.0112879
0.0124335
0.0136125
0.0147887
0.0159228
0.016973
0.017899
0.0186668
0.0192494
0.0196169
0.0197471
0.0196352
0.0192812
0.0186912
0.0178788
0.0168636
0.0156695
0.0143244
0.0128575
0.0112997
0.00968072
0.00802588
0.00635852
0.00469926
0.00306583
0.0014739
-6.24189e-05
-0.00152977
-0.00291498
-0.00420547
-0.00538853
-0.00646554
-0.00741325
-0.0082194
-0.00887418
-0.00936635
-0.00968912
-0.0098375
-0.00980756
-0.00960343
-0.00922721
-0.0086953
-0.00802706
-0.00724463
-0.00637465
-0.00544702
-0.00449529
-0.00354938
-0.00264674
-0.00181367
-0.00109253
-0.000508951
-8.18293e-05
0.0210219
0.0190542
0.0173373
0.0159119
0.014794
0.0139666
0.0134093
0.0130826
0.0129376
0.0129235
0.0129812
0.0130626
0.0131352
0.0131843
0.013185
0.0131463
0.0130931
0.0130604
0.0130918
0.0132346
0.0135331
0.0140042
0.0146501
0.0154588
0.0164133
0.0174909
0.0186569
0.0198648
0.0210587
0.0221835
0.0231629
0.0239521
0.0244998
0.0247725
0.0247501
0.0244278
0.0238142
0.0229295
0.0218255
0.0205401
0.019133
0.0176559
0.0161685
0.0147204
0.0133529
0.0120936
0.0109584
0.00996402
0.00911327
0.00839968
0.00781152
0.0073315
0.0069396
0.0066181
0.00634963
0.00611798
0.00591855
0.00575714
0.00564058
0.00558825
0.00562484
0.00577267
0.00604727
0.00647138
0.0070613
0.00781473
0.00871246
0.00973786
0.0108691
0.0120778
0.0133296
0.0145856
0.0158035
0.0169381
0.0179481
0.0188007
0.0194443
0.0198653
0.0200441
0.01997
0.0196404
0.0190614
0.0182489
0.0172266
0.0160188
0.0146551
0.013167
0.0115868
0.00994334
0.00826232
0.00656844
0.00488267
0.00322165
0.00160017
3.2077e-05
-0.00146999
-0.0028939
-0.00422768
-0.0054651
-0.00657686
-0.0075659
-0.00841336
-0.00910838
-0.00964138
-0.0100012
-0.0101785
-0.0101682
-0.00996828
-0.00958695
-0.00903988
-0.00834733
-0.00753272
-0.00662421
-0.0056537
-0.00465622
-0.00366418
-0.00271789
-0.00185352
-0.00110034
-0.000514935
-3.52485e-05
0.0216028
0.0196182
0.0178903
0.0164509
0.0153113
0.0144647
0.0138805
0.0135137
0.0133145
0.0132313
0.0131964
0.0131697
0.0131237
0.0130282
0.012874
0.0126786
0.0124692
0.0122926
0.0121971
0.0122403
0.0124751
0.0129217
0.0135798
0.0144185
0.0154309
0.0165981
0.0178796
0.019226
0.020577
0.0218664
0.0230224
0.0239753
0.0246688
0.0250692
0.0251538
0.0249127
0.0243621
0.0235335
0.0224601
0.0211899
0.0197866
0.0182795
0.0167677
0.0152988
0.0139082
0.0126247
0.0114681
0.01045
0.00957013
0.00882155
0.00818964
0.00765694
0.00720455
0.00681057
0.00646064
0.00613859
0.00583484
0.00556196
0.00533337
0.00516752
0.00510159
0.00515907
0.00535979
0.00572932
0.00628861
0.00704631
0.00796335
0.00902337
0.0102048
0.0114781
0.0128087
0.0141556
0.0154725
0.0167135
0.017832
0.018783
0.0195249
0.0200288
0.0202772
0.0202587
0.0199739
0.0194351
0.0186553
0.0176513
0.0164468
0.0150788
0.0135827
0.0119919
0.0103358
0.00864092
0.00693098
0.00522495
0.00353813
0.0018862
0.000283602
-0.00125843
-0.00272846
-0.00411415
-0.00540382
-0.00658017
-0.00763315
-0.00854774
-0.00930903
-0.00990404
-0.0103182
-0.01054
-0.0105656
-0.0103905
-0.0100203
-0.00946825
-0.00876008
-0.00791967
-0.00697645
-0.00596454
-0.00492086
-0.00388374
-0.00289199
-0.00198858
-0.00118421
-0.000578854
-1.26017e-05
0.0225277
0.0205805
0.018879
0.0174528
0.0163174
0.0154453
0.0147955
0.0143296
0.0140006
0.0137621
0.013565
0.0133595
0.0131101
0.0127855
0.0124087
0.0120008
0.0115983
0.0112481
0.0110009
0.0109237
0.0110748
0.0114972
0.0122089
0.0130905
0.014165
0.0154315
0.0168397
0.0183402
0.0198663
0.0213431
0.0226923
0.0238353
0.0247099
0.0252738
0.0255025
0.0253876
0.024945
0.0242082
0.0231913
0.0219644
0.020602
0.0191326
0.0176388
0.0161724
0.0147761
0.0134814
0.0123061
0.0112614
0.0103488
0.00954677
0.00884092
0.00821735
0.00765907
0.00715048
0.00667317
0.00620927
0.00575744
0.00533014
0.00495185
0.0046466
0.00444607
0.00437909
0.00448206
0.00478968
0.00532032
0.00607229
0.0069958
0.00808801
0.00932335
0.0106693
0.0120897
0.0135395
0.0149678
0.0163234
0.0175545
0.0186182
0.0194711
0.0200753
0.0204091
0.0204639
0.0202426
0.0197556
0.0190172
0.018053
0.0168916
0.0155541
0.0140761
0.0124998
0.0108539
0.00916348
0.00745075
0.00573427
0.00402982
0.00235204
0.000712804
-0.000877853
-0.00240562
-0.00385601
-0.00521778
-0.00647497
-0.00761071
-0.00860828
-0.0094527
-0.0101263
-0.0106116
-0.0108947
-0.0109675
-0.0108274
-0.0104751
-0.00993191
-0.00921933
-0.00836186
-0.0073914
-0.00634453
-0.00526068
-0.00418161
-0.00314475
-0.00219977
-0.00133494
-0.000691877
-9.62622e-06
0.0236699
0.0217782
0.0201315
0.0187414
0.0176043
0.0166971
0.0159822
0.0154111
0.014931
0.0144924
0.0140646
0.0136063
0.0130815
0.0124794
0.0118303
0.0111669
0.0105309
0.00997345
0.00954813
0.0093298
0.00944501
0.00991312
0.0105897
0.0115026
0.0126815
0.0140759
0.015637
0.0173164
0.0190313
0.0207091
0.0222792
0.0236261
0.0246791
0.0254162
0.0258081
0.0258417
0.0255303
0.0249044
0.0239943
0.0228231
0.021464
0.0200655
0.0186503
0.0172221
0.0158503
0.0145706
0.0133962
0.012333
0.0113762
0.0105134
0.00972857
0.00900577
0.00832209
0.00766141
0.0070111
0.00635982
0.0057155
0.00509855
0.0045361
0.00405823
0.00369673
0.00348409
0.00346514
0.00370752
0.00423249
0.00497098
0.00589782
0.00701944
0.00830169
0.00971185
0.0112168
0.0127683
0.0143081
0.015781
0.0171376
0.0183252
0.0192912
0.0200027
0.0204367
0.0205798
0.020435
0.0200146
0.0193354
0.0184206
0.0173
0.0160079
0.0145788
0.0130415
0.0114277
0.00976257
0.00806647
0.00635644
0.0046468
0.00295042
0.00127922
-0.000354376
-0.0019357
-0.0034554
-0.00490012
-0.00624983
-0.00748492
-0.00858378
-0.0095249
-0.0102912
-0.0108644
-0.0112247
-0.0113551
-0.0112506
-0.0109232
-0.010405
-0.00969878
-0.00883245
-0.00784195
-0.00676711
-0.00565011
-0.00453791
-0.00345265
-0.00246706
-0.0015336
-0.000852204
1.26568e-05
0.0248264
0.0230382
0.0214658
0.0201266
0.0190071
0.0180731
0.0172815
0.0165874
0.0159365
0.0152851
0.0146028
0.0138657
0.0130503
0.0121475
0.0111952
0.0102469
0.00935218
0.00856147
0.0079202
0.00757736
0.00769582
0.00818111
0.00885728
0.00984709
0.0111316
0.0126063
0.0142686
0.0161293
0.0180747
0.019993
0.0218295
0.023381
0.0246025
0.0255339
0.0261049
0.0262936
0.0261135
0.0255881
0.0247517
0.0236667
0.0224028
0.0210814
0.01971
0.0183342
0.0170062
0.0157539
0.01459
0.0135165
0.0125255
0.011601
0.0107231
0.00987369
0.00903707
0.00820463
0.00737399
0.00652772
0.00567026
0.00484012
0.0040724
0.00340142
0.00286116
0.00249382
0.0023783
0.0025759
0.00305069
0.00373294
0.0046548
0.00580942
0.00715539
0.00865408
0.0102696
0.0119402
0.0136032
0.0152111
0.0166989
0.0180024
0.0190765
0.0198872
0.0204126
0.0206422
0.0205759
0.0202251
0.0196075
0.0187438
0.0176627
0.0164297
0.0150643
0.0135819
0.0120166
0.0103926
0.00872803
0.00703777
0.00533437
0.00362888
0.001932
0.000255326
-0.0013869
-0.00297876
-0.00450944
-0.00596357
-0.00731115
-0.00852381
-0.00957792
-0.0104496
-0.0111152
-0.0115516
-0.0117342
-0.0116657
-0.0113787
-0.0108866
-0.0101856
-0.00930951
-0.00829728
-0.00719323
-0.0060425
-0.00489988
-0.00376106
-0.00274753
-0.00173453
-0.00103334
9.71948e-05
0.0259553
0.0242548
0.0227288
0.0214334
0.0203352
0.0193912
0.0185491
0.0177561
0.0169494
0.0160847
0.0151484
0.0141244
0.0129897
0.0117597
0.0104899
0.00923629
0.00805926
0.0070373
0.00624249
0.0057066
0.0056874
0.00621692
0.00685749
0.00777421
0.00919371
0.0109005
0.0128322
0.0149263
0.0170596
0.0191515
0.0213447
0.0231498
0.0244543
0.0256007
0.0263604
0.0267071
0.0266567
0.0262067
0.0253941
0.0244236
0.023353
0.0220844
0.0207329
0.0194147
0.0181382
0.0169196
0.0157739
0.0146983
0.0136797
0.012699
0.0117348
0.0107679
0.009785
0.00877915
0.00774782
0.00667961
0.00559364
0.00453766
0.00355127
0.00268019
0.00197596
0.00146063
0.00118912
0.00125875
0.00169571
0.0024214
0.0033899
0.00457494
0.00594606
0.00748237
0.00919783
0.0110191
0.0128199
0.014568
0.0162033
0.0176406
0.0188338
0.0197516
0.0203713
0.0206829
0.0206868
0.0203886
0.0198123
0.0190134
0.0180156
0.0168406
0.0155276
0.0141008
0.012587
0.0110084
0.00938054
0.00771566
0.00602372
0.00431379
0.00259518
0.000878447
-0.000822685
-0.00248989
-0.00411105
-0.00567265
-0.00713946
-0.00847444
-0.00965004
-0.0106374
-0.0114038
-0.0119116
-0.0121401
-0.0121177
-0.0118815
-0.0114104
-0.01071
-0.00981917
-0.0087789
-0.0076386
-0.00644685
-0.00527066
-0.00407534
-0.00304561
-0.001926
-0.0012333
0.000267313
0.0267366
0.0251853
0.0238284
0.0226111
0.0215258
0.0205802
0.0196939
0.0188004
0.0178435
0.0167797
0.0155845
0.0142521
0.0127878
0.0112203
0.00960617
0.00801591
0.00652846
0.00523752
0.00425303
0.00364816
0.0034625
0.00372339
0.00434902
0.0054132
0.00692974
0.008801
0.0109549
0.0133098
0.0157532
0.0181725
0.020476
0.0225106
0.0242117
0.0255845
0.026529
0.0270271
0.027101
0.0267575
0.026008
0.025003
0.0239863
0.0229196
0.0216571
0.0203844
0.0191621
0.0179888
0.0168691
0.0157987
0.0147601
0.0137295
0.01268
0.0115916
0.010456
0.00926434
0.00801414
0.00671938
0.00540851
0.00412072
0.00290229
0.00180613
0.000889852
0.000212658
-0.000171175
-0.000183386
0.000145593
0.000758503
0.00169068
0.00293631
0.00444726
0.00617228
0.00805863
0.010029
0.0119927
0.0138759
0.0156447
0.0172386
0.018569
0.0196007
0.0203185
0.0207129
0.0207831
0.0205308
0.0199744
0.0192027
0.0183074
0.0172193
0.0159542
0.0145829
0.0131252
0.0115951
0.010007
0.00836996
0.00669078
0.00497623
0.00323367
0.00147192
-0.000295387
-0.00205016
-0.00378246
-0.00546728
-0.00706088
-0.00852781
-0.0098339
-0.0109424
-0.011811
-0.0123944
-0.0126795
-0.0127133
-0.0125143
-0.0120498
-0.0113345
-0.0104103
-0.00932262
-0.00812601
-0.00687322
-0.00564573
-0.00439899
-0.00335946
-0.00209675
-0.00146052
0.000522159
0.0269957
0.0255784
0.0243751
0.0233423
0.0224085
0.0214917
0.0205597
0.0195799
0.0184844
0.017225
0.0157811
0.014155
0.0123671
0.0104586
0.00849359
0.00655364
0.00473301
0.00313844
0.00188814
0.00108108
0.000740856
0.000825285
0.00139509
0.00249153
0.00409529
0.00613956
0.00852957
0.0111605
0.0139119
0.016662
0.0192876
0.0216459
0.0236148
0.0252107
0.0264023
0.0270976
0.0273168
0.027093
0.0264574
0.025482
0.024355
0.0233144
0.0222826
0.021106
0.0199306
0.0188173
0.0177444
0.0166949
0.0156504
0.0145834
0.0134553
0.0122446
0.0109492
0.00956599
0.00810142
0.00657466
0.00501846
0.00347884
0.00201081
0.000675133
-0.000461972
-0.00132457
-0.00183093
-0.00193891
-0.00171434
-0.001165
-0.000230619
0.00106523
0.00266871
0.00452501
0.00657008
0.00872294
0.0108922
0.0129901
0.0149359
0.0166766
0.0181731
0.0193564
0.0201933
0.0206794
0.0208217
0.020626
0.0201069
0.0193338
0.0184467
0.0174685
0.0162982
0.0149771
0.0135741
0.0120962
0.0105487
0.00893884
0.00727003
0.00554602
0.00377295
0.0019573
0.000106949
-0.00176005
-0.0036152
-0.00542547
-0.00715381
-0.00876
-0.0102019
-0.0114343
-0.0124067
-0.0130752
-0.0134375
-0.0135356
-0.0133678
-0.0129028
-0.0121612
-0.0111866
-0.0100285
-0.00874828
-0.00740368
-0.00608494
-0.00477713
-0.0037088
-0.00226687
-0.00170715
0.000802821
0.0262063
0.0251817
0.024147
0.0232914
0.0225479
0.0218186
0.0209631
0.0199238
0.0187178
0.0172969
0.0156339
0.0137369
0.0116387
0.00939406
0.00707874
0.00478697
0.002629
0.000728318
-0.000791017
-0.00184151
-0.00240446
-0.00248109
-0.0019793
-0.000870304
0.000806772
0.00298417
0.00556889
0.00844765
0.0114908
0.0145613
0.0175201
0.0202297
0.0225714
0.0244645
0.0258608
0.0267764
0.0271827
0.0270999
0.0265763
0.0256893
0.0245472
0.0233465
0.022338
0.0213911
0.0203407
0.0192778
0.0182659
0.0172647
0.0162383
0.0151612
0.0139839
0.0126676
0.0112207
0.00965496
0.00797929
0.00621883
0.0044142
0.00261857
0.000894538
-0.000687768
-0.00204988
-0.00310433
-0.00377414
-0.00403904
-0.00393502
-0.0034415
-0.00250759
-0.00116115
0.000543515
0.00254384
0.00476255
0.00711006
0.00949111
0.0118123
0.0139864
0.0159329
0.0175809
0.0189228
0.0199189
0.0205219
0.0207472
0.0206156
0.0201506
0.0194012
0.0184745
0.0175024
0.0164566
0.0152323
0.0138768
0.0124504
0.0109489
0.00936885
0.00771116
0.00597889
0.00417738
0.00229828
0.000350421
-0.00162968
-0.0036104
-0.00555914
-0.00743461
-0.00918983
-0.0107747
-0.0121356
-0.0132176
-0.013983
-0.0144332
-0.0145917
-0.0144472
-0.0139746
-0.013199
-0.0121659
-0.0109277
-0.00954953
-0.00809493
-0.00665601
-0.00525653
-0.00412376
-0.00248925
-0.00196177
0.00102615
0.0242538
0.0235722
0.022994
0.0223333
0.0217775
0.0212348
0.0205678
0.0196345
0.0183747
0.0168282
0.0149916
0.0128687
0.0104999
0.00795253
0.00531467
0.00269308
0.00021136
-0.00199639
-0.00380512
-0.00512974
-0.00593052
-0.006161
-0.00572536
-0.00461221
-0.00286698
-0.00056037
0.0022086
0.00531545
0.00862034
0.0119788
0.0152453
0.0182794
0.0209573
0.0231812
0.0248772
0.0259883
0.0265794
0.0266722
0.0262688
0.0254711
0.0243876
0.0231508
0.0219578
0.0210182
0.0201886
0.0192707
0.0183094
0.0173668
0.0163861
0.015318
0.0141283
0.0127472
0.0111646
0.00942886
0.0075558
0.00557373
0.00353014
0.00148629
-0.000485546
-0.00230462
-0.00388238
-0.00512866
-0.0059757
-0.00640182
-0.00640383
-0.00594909
-0.00500662
-0.00360868
-0.00181167
0.000317294
0.00269222
0.00521786
0.00779677
0.0103304
0.0127244
0.0148918
0.0167564
0.0182612
0.0193938
0.0201437
0.020478
0.0204235
0.0200192
0.0193161
0.0183924
0.0173604
0.0163285
0.0152364
0.013977
0.0125937
0.0111384
0.00959685
0.00795932
0.00622742
0.00440276
0.00246296
0.000420646
-0.00167162
-0.00378083
-0.00587016
-0.00789316
-0.00979696
-0.0115244
-0.0130156
-0.0142156
-0.0150904
-0.0156326
-0.0158429
-0.0157099
-0.0152186
-0.0143972
-0.0132925
-0.0119621
-0.010477
-0.00890627
-0.00734368
-0.00581446
-0.00457952
-0.002778
-0.00221834
0.00113614
0.0216622
0.0208005
0.0205526
0.0203856
0.0200448
0.0196945
0.0192212
0.0184778
0.017333
0.0157457
0.0137908
0.0115073
0.00892989
0.00613413
0.00322079
0.000309671
-0.00246397
-0.00495908
-0.00705017
-0.00864892
-0.00968922
-0.0100641
-0.00969017
-0.00858325
-0.00679002
-0.00438181
-0.00146298
0.0018377
0.00537366
0.00899452
0.0125419
0.0158668
0.0188404
0.0213544
0.0233264
0.0247063
0.0254935
0.0257276
0.0254645
0.0247592
0.0237385
0.0225306
0.0212828
0.0201615
0.0193222
0.0186219
0.0178245
0.0169305
0.0160025
0.0149744
0.01379
0.0123917
0.0107356
0.00885908
0.00681805
0.00464554
0.00239357
0.00013167
-0.00205987
-0.00409273
-0.0058728
-0.00731095
-0.0083415
-0.008928
-0.00902581
-0.00860145
-0.00765061
-0.00620624
-0.004328
-0.00208853
0.000426339
0.00311628
0.00587978
0.00860767
0.0112002
0.0135682
0.0156325
0.0173303
0.0186216
0.0194872
0.0199446
0.0199838
0.0196491
0.0189985
0.0181056
0.0170608
0.0159619
0.0148881
0.0137635
0.0124797
0.0110614
0.00955786
0.0079506
0.00622445
0.00438028
0.00239481
0.000274937
-0.00192081
-0.00414748
-0.00636438
-0.0085208
-0.0105587
-0.0124151
-0.0140271
-0.0153411
-0.0163246
-0.0169517
-0.0171982
-0.017061
-0.0165424
-0.0156732
-0.0145017
-0.0130847
-0.011494
-0.00980177
-0.0081077
-0.00643263
-0.00506715
-0.00310729
-0.00245079
0.00113395
0.0185095
0.0174467
0.0169856
0.017147
0.0173544
0.0172474
0.0169677
0.0164224
0.0154756
0.0140117
0.0120348
0.00965257
0.0069396
0.00396939
0.000847475
-0.00229521
-0.00531434
-0.00806416
-0.0104236
-0.0123007
-0.0135554
-0.014054
-0.0137437
-0.0126542
-0.0108167
-0.00830703
-0.00524377
-0.00177311
0.00193782
0.00574177
0.00951126
0.0130887
0.0163158
0.0190769
0.0212827
0.022879
0.0238576
0.0242484
0.0241042
0.023503
0.0225444
0.0213771
0.0201364
0.0189502
0.0179423
0.0172208
0.0166448
0.015945
0.0150698
0.0140885
0.0129397
0.011564
0.00989876
0.00794361
0.00577748
0.0034608
0.00104661
-0.00139057
-0.00376322
-0.00597573
-0.00793271
-0.00955276
-0.0107637
-0.0114867
-0.0116567
-0.0112575
-0.0102976
-0.0088057
-0.00684435
-0.00449941
-0.00186986
0.00093211
0.00381709
0.0067001
0.00946479
0.0120045
0.0142378
0.0160976
0.0175388
0.0185407
0.0190937
0.0192333
0.0189783
0.0183828
0.0175307
0.016504
0.0153837
0.014244
0.0131376
0.0119914
0.0106892
0.00921987
0.0076434
0.00594119
0.00409473
0.00209125
-7.23478e-05
-0.00234524
-0.00466321
-0.00698183
-0.00924628
-0.0113924
-0.013354
-0.0150752
-0.016504
-0.0175873
-0.0182771
-0.018544
-0.0183966
-0.0178441
-0.0169168
-0.0156677
-0.0141611
-0.0124783
-0.0106924
-0.00889803
-0.00706861
-0.00556093
-0.00346316
-0.00265571
0.00104009
0.0146068
0.0135907
0.0129128
0.0128198
0.0134382
0.013953
0.0139279
0.0135822
0.0128496
0.0115981
0.00975302
0.00737527
0.00460685
0.00154085
-0.00171362
-0.00501678
-0.0082193
-0.0111852
-0.0138079
-0.0159197
-0.0173349
-0.0179494
-0.0177153
-0.0166557
-0.0147906
-0.0122018
-0.0090153
-0.00538711
-0.00150119
0.00244687
0.00631873
0.0100413
0.0134686
0.0164238
0.0188103
0.0205724
0.021695
0.0222061
0.0221722
0.0216692
0.0207808
0.0196519
0.0184332
0.0172463
0.0161811
0.0153135
0.0147083
0.0142419
0.0136093
0.0126995
0.0116041
0.0102767
0.00866128
0.0067188
0.00449164
0.00208334
-0.00043511
-0.00298976
-0.0054885
-0.00783577
-0.00995592
-0.0117486
-0.0131028
-0.0139213
-0.0141508
-0.0137826
-0.0128212
-0.011295
-0.00926882
-0.00683175
-0.00409158
-0.00117514
0.00178928
0.00472674
0.0075891
0.0102621
0.0126239
0.0146043
0.0161565
0.0172569
0.0179068
0.0181312
0.0179542
0.0174179
0.016607
0.0156118
0.0145059
0.0133478
0.0121852
0.0110498
0.00989011
0.00856878
0.00704501
0.00537261
0.00355113
0.00156299
-0.000603667
-0.00291123
-0.00528475
-0.00766509
-0.00999483
-0.0122156
-0.0142707
-0.0160942
-0.017611
-0.0187549
-0.019479
-0.0197579
-0.019602
-0.0190187
-0.0180389
-0.0167168
-0.0151203
-0.0133368
-0.0114455
-0.00958949
-0.00765893
-0.00601722
-0.00381361
-0.00282771
0.000886963
0.00989784
0.00920766
0.00852243
0.00797612
0.00855282
0.00960757
0.0102011
0.010127
0.0096254
0.00861267
0.00700009
0.00477781
0.00204613
-0.00102731
-0.0043238
-0.00770528
-0.0110408
-0.0142116
-0.0170392
-0.0193029
-0.0208511
-0.0215738
-0.0214143
-0.0203856
-0.0185103
-0.0158744
-0.0126097
-0.00887679
-0.00486057
-0.000775256
0.00316956
0.00690133
0.0104072
0.0134962
0.015998
0.0178604
0.0190717
0.0196564
0.0196792
0.0192424
0.0184373
0.0173397
0.0161471
0.0149822
0.0139286
0.0130283
0.012312
0.0118196
0.0114484
0.0108439
0.00986313
0.0086151
0.00707929
0.00521669
0.00303748
0.000612725
-0.00194714
-0.00455385
-0.00712791
-0.00959363
-0.0118453
-0.0137449
-0.0151816
-0.0160701
-0.0163507
-0.0160105
-0.0150533
-0.0135094
-0.0114476
-0.0089603
-0.00615654
-0.00316163
-0.000120907
0.00283279
0.00567776
0.00839646
0.01084
0.0128908
0.0145059
0.0156644
0.0163668
0.0166398
0.0165303
0.0160633
0.0152877
0.0143301
0.0132565
0.0121204
0.0109567
0.00979007
0.00863684
0.00746083
0.0061267
0.00456087
0.00278706
0.000840442
-0.00128198
-0.00355433
-0.00592544
-0.00832847
-0.0106991
-0.0129781
-0.015094
-0.016966
-0.0185198
-0.0196932
-0.0204356
-0.0207179
-0.0205507
-0.0199401
-0.0189188
-0.0175433
-0.0158828
-0.0140243
-0.0120424
-0.0101028
-0.00811423
-0.00639851
-0.00413251
-0.00296699
0.000701356
0.00466561
0.00406679
0.00370383
0.00286132
0.00323117
0.00455715
0.00563459
0.00620912
0.0060224
0.00526988
0.00392449
0.00194518
-0.000595774
-0.00358067
-0.00684767
-0.0102571
-0.0136937
-0.0169846
-0.0199085