/*--------------------------------*- C++ -*----------------------------------*\
| =========                 |                                                 |
| \\      /  F ield         | OpenFOAM: The Open Source CFD Toolbox           |
|  \\    /   O peration     | Version:  2206                                  |
|   \\  /    A nd           | Website:  www.openfoam.com                      |
|    \\/     M anipulation  |                                                 |
\*---------------------------------------------------------------------------*/
FoamFile
{
    version     2.0;
    format      ascii;
    arch        "LSB;label=32;scalar=64";
    class       volVectorField;
    location    "18.8001";
    object      ddtCorrDdt0(U);
}
// * * * * * * * * * * * * * * * * * * * * * * * * * * * * * * * * * * * * * //

dimensions      [0 1 -2 0 0 0 0];

internalField   nonuniform List<vector> 
3062
(
(12.6559 45.6766 0)
(9.58548 48.5266 0)
(6.34058 50.361 0)
(3.0437 50.6526 0)
(-0.118055 49.7605 0)
(-3.06122 47.7071 0)
(-5.70831 44.5509 0)
(-7.98447 40.4114 0)
(-9.83855 35.4677 0)
(-11.248 29.9482 0)
(-12.2249 24.0991 0)
(-12.7951 18.1265 0)
(-13.1667 12.0953 0)
(-13.8817 5.62966 0)
(-14.2388 -1.63072 0)
(-14.388 -9.03179 0)
(-14.3075 -16.3469 0)
(-13.9324 -23.3344 0)
(-13.3833 -29.8256 0)
(-12.7072 -35.694 0)
(-11.9136 -40.8023 0)
(-11.0009 -44.9849 0)
(-9.92495 -47.989 0)
(-8.502 -49.2849 0)
(-6.727 -48.7715 0)
(-4.75449 -46.9892 0)
(-2.60549 -44.0474 0)
(-0.335481 -40.1105 0)
(1.97646 -35.3839 0)
(4.24938 -30.1051 0)
(6.38946 -24.5087 0)
(8.31894 -18.8044 0)
(10.1768 -13.0861 0)
(12.3686 -7.15842 0)
(14.0539 -1.0872 0)
(15.515 4.53687 0)
(16.4521 9.85042 0)
(16.7473 14.7951 0)
(16.4488 19.32 0)
(15.6298 23.454 0)
(14.3623 27.2187 0)
(12.7198 30.5949 0)
(10.7759 33.5261 0)
(8.59828 35.913 0)
(6.25046 37.5877 0)
(3.80031 38.2205 0)
(1.38604 37.8599 0)
(-0.89271 36.6564 0)
(-2.9876 34.6378 0)
(-4.84688 31.8723 0)
(-6.42232 28.4663 0)
(-7.68262 24.5626 0)
(-8.62215 20.33 0)
(-9.2534 15.9313 0)
(-9.63634 11.4712 0)
(-10.0954 6.85594 0)
(-10.6567 1.71271 0)
(-10.849 -3.74558 0)
(-10.9656 -9.22175 0)
(-10.8248 -14.55 0)
(-10.4868 -19.5646 0)
(-10.0171 -24.1586 0)
(-9.42979 -28.2314 0)
(-8.73178 -31.6717 0)
(-7.91426 -34.3426 0)
(-6.91662 -36.0227 0)
(-5.63292 -36.2899 0)
(-4.18235 -35.5453 0)
(-2.59342 -33.8894 0)
(-0.869733 -31.4833 0)
(0.867057 -28.505 0)
(2.51532 -24.9899 0)
(4.07829 -21.099 0)
(5.51716 -17.037 0)
(6.77362 -12.889 0)
(8.0746 -8.6747 0)
(9.58491 -4.22253 0)
(10.7167 0.279845 0)
(11.6604 4.55145 0)
(12.1972 8.64753 0)
(12.2771 12.4722 0)
(11.947 15.9693 0)
(11.2575 19.1376 0)
(10.2551 21.9641 0)
(8.99132 24.4184 0)
(7.51719 26.4495 0)
(5.87987 27.9684 0)
(4.11741 28.7908 0)
(2.31477 28.7849 0)
(0.57808 28.155 0)
(-1.05631 26.9152 0)
(-2.54974 25.1023 0)
(-3.86092 22.7791 0)
(-4.95734 20.0374 0)
(-5.82436 16.9929 0)
(-6.46469 13.7666 0)
(-6.8852 10.4607 0)
(-7.18852 7.11331 0)
(-7.67159 3.54695 0)
(-7.98665 -0.429346 0)
(-8.16986 -4.48285 0)
(-8.21651 -8.51414 0)
(-8.06125 -12.3801 0)
(-7.76682 -15.9698 0)
(-7.36204 -19.2095 0)
(-6.84726 -22.0218 0)
(-6.21873 -24.3198 0)
(-5.45825 -25.9888 0)
(-4.50499 -26.8223 0)
(-3.3978 -26.704 0)
(-2.27487 -25.9125 0)
(-0.892756 -24.5112 0)
(-0.253145 -22.64 0)
(1.2674 -20.411 0)
(2.37759 -17.7578 0)
(3.39857 -14.8634 0)
(4.36538 -11.8411 0)
(5.20661 -8.74441 0)
(6.2451 -5.69936 0)
(7.0725 -1.96669 0)
(7.91809 0.924362 0)
(8.46842 5.80157 0)
(10.4602 48.4304 0)
(7.76712 51.4991 0)
(4.91352 53.4492 0)
(2.02981 53.6924 0)
(-0.711839 52.6248 0)
(-3.2324 50.3136 0)
(-5.46372 46.824 0)
(-7.34017 42.2909 0)
(-8.80824 36.9124 0)
(-9.83699 30.9476 0)
(-10.4341 24.6957 0)
(-10.6156 18.4347 0)
(-10.5077 12.3313 0)
(-10.8507 6.03762 0)
(-11.1088 -1.35401 0)
(-11.0358 -9.09512 0)
(-10.807 -16.6678 0)
(-10.3337 -23.8186 0)
(-9.77909 -30.4205 0)
(-9.19221 -36.3686 0)
(-8.57624 -41.5509 0)
(-7.93709 -45.8348 0)
(-7.2233 -48.9998 0)
(-6.30646 -50.6276 0)
(-5.10989 -50.331 0)
(-3.74151 -48.7412 0)
(-2.20961 -45.9516 0)
(-0.54082 -42.1108 0)
(1.20909 -37.4093 0)
(2.9708 -32.0744 0)
(4.66877 -26.3525 0)
(6.20055 -20.478 0)
(7.49692 -14.6621 0)
(8.98561 -8.92596 0)
(10.7221 -2.74983 0)
(12.0325 3.3478 0)
(13.1153 9.17957 0)
(13.5722 14.6891 0)
(13.4471 19.7406 0)
(12.8573 24.3445 0)
(11.8598 28.5149 0)
(10.5088 32.2268 0)
(8.86994 35.4263 0)
(7.00567 38.0171 0)
(4.97759 39.8281 0)
(2.85719 40.5057 0)
(0.772586 40.0524 0)
(-1.18032 38.6973 0)
(-2.95611 36.4711 0)
(-4.50556 33.4479 0)
(-5.7815 29.7427 0)
(-6.74969 25.5178 0)
(-7.4025 20.9753 0)
(-7.75191 16.3206 0)
(-7.81225 11.7181 0)
(-7.88451 7.15996 0)
(-8.33056 2.0765 0)
(-8.36636 -3.60512 0)
(-8.36728 -9.32303 0)
(-8.13091 -14.8307 0)
(-7.7409 -19.9733 0)
(-7.29272 -24.6622 0)
(-6.79319 -28.8131 0)
(-6.25337 -32.3374 0)
(-5.67216 -35.1161 0)
(-4.99655 -36.953 0)
(-4.1293 -37.461 0)
(-3.10341 -36.8257 0)
(-1.9739 -35.3035 0)
(-0.745481 -32.9871 0)
(0.533356 -29.9947 0)
(1.80563 -26.4306 0)
(3.03141 -22.4457 0)
(4.16084 -18.228 0)
(5.1208 -13.9595 0)
(5.89383 -9.75197 0)
(6.96533 -5.48812 0)
(8.06637 -0.793174 0)
(8.98556 3.80468 0)
(9.64817 8.29369 0)
(9.84639 12.5144 0)
(9.65972 16.3723 0)
(9.16097 19.8649 0)
(8.37898 22.9715 0)
(7.35383 25.6578 0)
(6.13089 27.8743 0)
(4.75267 29.534 0)
(3.25648 30.4551 0)
(1.71723 30.4257 0)
(0.237598 29.7237 0)
(-1.14685 28.3671 0)
(-2.39936 26.3952 0)
(-3.48012 23.8766 0)
(-4.35678 20.9145 0)
(-5.01138 17.6411 0)
(-5.44452 14.2015 0)
(-5.65427 10.732 0)
(-5.68269 7.33013 0)
(-5.92299 3.86069 0)
(-6.19826 -0.163604 0)
(-6.26532 -4.41112 0)
(-6.24214 -8.62341 0)
(-6.0218 -12.6245 0)
(-5.70365 -16.3161 0)
(-5.33216 -19.6398 0)
(-4.90049 -22.5309 0)
(-4.41772 -24.9143 0)
(-3.88608 -26.6946 0)
(-3.25629 -27.6998 0)
(-2.50475 -27.6613 0)
(-1.70699 -26.9235 0)
(-0.825196 -25.5314 0)
(0.127255 -23.6814 0)
(1.03033 -21.4115 0)
(1.84956 -18.6912 0)
(2.62722 -15.7232 0)
(3.30751 -12.615 0)
(3.83836 -9.47573 0)
(4.34136 -6.42667 0)
(5.12687 -2.88276 0)
(5.83033 0.259539 0)
(6.44637 5.45005 0)
(7.87239 50.805 0)
(5.59061 54.0688 0)
(3.18186 56.1081 0)
(0.786852 56.2733 0)
(-1.44959 55.0283 0)
(-3.4682 52.4675 0)
(-5.21316 48.6643 0)
(-6.6317 43.7618 0)
(-7.6774 37.9665 0)
(-8.31287 31.5598 0)
(-8.53295 24.893 0)
(-8.34294 18.3214 0)
(-7.76749 12.1281 0)
(-7.669 6.12919 0)
(-7.90412 -1.18373 0)
(-7.60409 -9.32529 0)
(-7.12987 -17.1341 0)
(-6.53469 -24.3539 0)
(-5.98947 -30.9656 0)
(-5.54117 -36.9047 0)
(-5.14422 -42.0702 0)
(-4.7822 -46.3566 0)
(-4.42912 -49.593 0)
(-3.98995 -51.4407 0)
(-3.36046 -51.31 0)
(-2.58607 -49.8857 0)
(-1.66434 -47.2467 0)
(-0.600931 -43.5217 0)
(0.573353 -38.8841 0)
(1.80905 -33.55 0)
(3.04425 -27.7616 0)
(4.19845 -21.7598 0)
(5.12071 -15.7799 0)
(5.83145 -10.0812 0)
(7.29437 -4.37773 0)
(8.47201 1.99621 0)
(9.62093 8.39489 0)
(10.1961 14.4937 0)
(10.2047 20.0259 0)
(9.81792 25.0396 0)
(9.06865 29.5688 0)
(7.99529 33.5825 0)
(6.65991 37.0266 0)
(5.11962 39.8032 0)
(3.43588 41.7339 0)
(1.68882 42.4373 0)
(-0.00742146 41.8921 0)
(-1.57495 40.3911 0)
(-2.97345 37.967 0)
(-4.1624 34.701 0)
(-5.1025 30.7131 0)
(-5.75924 26.1772 0)
(-6.11706 21.3221 0)
(-6.18537 16.3981 0)
(-5.94987 11.6339 0)
(-5.60648 7.14993 0)
(-5.9325 2.29447 0)
(-5.85081 -3.55247 0)
(-5.69345 -9.53742 0)
(-5.31222 -15.1929 0)
(-4.86001 -20.39 0)
(-4.44686 -25.1085 0)
(-4.07887 -29.2778 0)
(-3.71684 -32.8058 0)
(-3.35746 -35.61 0)
(-2.9779 -37.5368 0)
(-2.49888 -38.2183 0)
(-1.90707 -37.6734 0)
(-1.23594 -36.2471 0)
(-0.481509 -34.007 0)
(0.339218 -31.0501 0)
(1.19367 -27.4844 0)
(2.04375 -23.4515 0)
(2.84319 -19.1253 0)
(3.52871 -14.6994 0)
(4.00673 -10.3761 0)
(4.45146 -6.30712 0)
(5.47349 -1.93271 0)
(6.26503 2.91071 0)
(7.00225 7.86159 0)
(7.27 12.4736 0)
(7.19562 16.6452 0)
(6.86694 20.4189 0)
(6.28747 23.7712 0)
(5.49113 26.6646 0)
(4.51901 29.0493 0)
(3.40834 30.8356 0)
(2.19867 31.845 0)
(0.95986 31.7933 0)
(-0.221027 31.0221 0)
(-1.31278 29.5558 0)
(-2.28449 27.4377 0)
(-3.10251 24.7389 0)
(-3.73749 21.5685 0)
(-4.16882 18.0717 0)
(-4.39275 14.4153 0)
(-4.40536 10.768 0)
(-4.18493 7.29036 0)
(-4.12178 3.9781 0)
(-4.39823 0.0564607 0)
(-4.36661 -4.40554 0)
(-4.22888 -8.81215 0)
(-3.90915 -12.9153 0)
(-3.55461 -16.6512 0)
(-3.22952 -20.012 0)
(-2.91761 -22.94 0)
(-2.58469 -25.3472 0)
(-2.2339 -27.1505 0)
(-1.85849 -28.2279 0)
(-1.42146 -28.2671 0)
(-0.935408 -27.5991 0)
(-0.391042 -26.3068 0)
(0.195144 -24.4671 0)
(0.774966 -22.1364 0)
(1.32643 -19.3633 0)
(1.84614 -16.3075 0)
(2.3055 -13.0702 0)
(2.6769 -9.86696 0)
(2.84254 -6.77336 0)
(3.12954 -3.61652 0)
(3.77804 -0.16487 0)
(4.41424 4.82432 0)
(4.938 52.7602 0)
(3.09563 56.1835 0)
(1.17798 58.2659 0)
(-0.66221 58.3146 0)
(-2.31561 56.8862 0)
(-3.74647 54.0825 0)
(-4.91414 49.9915 0)
(-5.78961 44.7626 0)
(-6.35724 38.6023 0)
(-6.60175 31.8016 0)
(-6.50976 24.7483 0)
(-6.0503 17.8714 0)
(-5.0878 11.5696 0)
(-4.26957 5.95785 0)
(-4.59946 -1.35759 0)
(-4.14891 -9.88007 0)
(-3.25542 -17.7737 0)
(-2.61562 -24.8881 0)
(-2.16701 -31.3956 0)
(-1.83829 -37.2383 0)
(-1.64318 -42.3206 0)
(-1.57653 -46.552 0)
(-1.59267 -49.7826 0)
(-1.6184 -51.7114 0)
(-1.5508 -51.7316 0)
(-1.36374 -50.433 0)
(-1.04407 -47.9343 0)
(-0.578999 -44.3436 0)
(0.0225306 -39.8158 0)
(0.725379 -34.5364 0)
(1.4753 -28.716 0)
(2.20823 -22.6118 0)
(2.81101 -16.5085 0)
(3.05495 -10.6902 0)
(3.64268 -5.4458 0)
(5.02312 0.826777 0)
(6.31481 7.5907 0)
(6.82721 14.1044 0)
(6.79786 20.0716 0)
(6.54499 25.4746 0)
(6.01566 30.3351 0)
(5.2042 34.6274 0)
(4.16885 38.2953 0)
(2.96047 41.2355 0)
(1.64244 43.258 0)
(0.309929 43.9544 0)
(-0.938824 43.3116 0)
(-2.05611 41.6655 0)
(-3.01039 39.0613 0)
(-3.77372 35.5819 0)
(-4.32613 31.3454 0)
(-4.65199 26.5349 0)
(-4.73905 21.4002 0)
(-4.5769 16.2226 0)
(-4.11087 11.2909 0)
(-3.31512 6.86327 0)
(-3.40327 2.41683 0)
(-3.29393 -3.76147 0)
(-2.95306 -9.98615 0)
(-2.38033 -15.6805 0)
(-1.96179 -20.8014 0)
(-1.62209 -25.44 0)
(-1.33251 -29.563 0)
(-1.12117 -33.0616 0)
(-0.989102 -35.8524 0)
(-0.903085 -37.7974 0)
(-0.803715 -38.5536 0)
(-0.650383 -38.0759 0)
(-0.433847 -36.7305 0)
(-0.143309 -34.5637 0)
(0.22059 -31.6613 0)
(0.645498 -28.1281 0)
(1.10523 -24.0948 0)
(1.56114 -19.7242 0)
(1.96968 -15.2096 0)
(2.24067 -10.7542 0)
(2.2008 -6.59451 0)
(2.8003 -2.77151 0)
(3.70705 2.22219 0)
(4.51407 7.39861 0)
(4.65828 12.2822 0)
(4.5932 16.7408 0)
(4.3986 20.7718 0)
(4.00037 24.3448 0)
(3.42108 27.4208 0)
(2.69645 29.9532 0)
(1.85916 31.8475 0)
(0.955005 32.9154 0)
(0.0522836 32.835 0)
(-0.788064 31.9984 0)
(-1.53909 30.4336 0)
(-2.17771 28.186 0)
(-2.68639 25.3309 0)
(-3.05332 21.9839 0)
(-3.26311 18.2955 0)
(-3.30229 14.4437 0)
(-3.15614 10.6231 0)
(-2.74285 7.04585 0)
(-2.2342 3.8965 0)
(-2.5709 0.171937 0)
(-2.5082 -4.57758 0)
(-2.16332 -9.15074 0)
(-1.76674 -13.2782 0)
(-1.46782 -16.9714 0)
(-1.18929 -20.2853 0)
(-0.873441 -23.1914 0)
(-0.715111 -25.5905 0)
(-0.531326 -27.4077 0)
(-0.391196 -28.5053 0)
(-0.248444 -28.5834 0)
(-0.0859551 -27.9428 0)
(0.105022 -26.6863 0)
(0.324737 -24.8617 0)
(0.562845 -22.5314 0)
(0.810866 -19.7651 0)
(1.05936 -16.706 0)
(1.28428 -13.4092 0)
(1.45974 -10.106 0)
(1.4841 -6.84033 0)
(1.44233 -3.73011 0)
(1.7546 -0.828468 0)
(2.55569 4.30524 0)
(1.75116 54.2984 0)
(0.362224 57.8225 0)
(-1.03152 59.8856 0)
(-2.27029 59.749 0)
(-3.29674 58.1245 0)
(-4.07826 55.0761 0)
(-4.58207 50.7118 0)
(-4.80863 45.2051 0)
(-4.79347 38.7752 0)
(-4.57334 31.691 0)
(-4.16345 24.3 0)
(-3.54383 17.0294 0)
(-2.60289 10.3722 0)
(-1.40146 4.87421 0)
(-1.1895 -0.0565341 0)
(-0.159549 -11.2391 0)
(0.545386 -18.6144 0)
(1.34824 -25.4973 0)
(1.88172 -31.7888 0)
(1.96712 -37.4136 0)
(1.87943 -42.3168 0)
(1.59925 -46.4097 0)
(1.17573 -49.5515 0)
(0.680822 -51.4678 0)
(0.20512 -51.5781 0)
(-0.178738 -50.3862 0)
(-0.439474 -48.0286 0)
(-0.557604 -44.5859 0)
(-0.531376 -40.1865 0)
(-0.379593 -34.9998 0)
(-0.137428 -29.2355 0)
(0.150415 -23.1093 0)
(0.426857 -16.8601 0)
(0.599761 -10.8518 0)
(0.802464 -5.55742 0)
(1.68548 -1.72993 0)
(2.82541 7.03633 0)
(3.28635 14.0928 0)
(3.2555 20.2065 0)
(3.13341 25.8307 0)
(2.79484 30.9171 0)
(2.22659 35.4244 0)
(1.48075 39.2678 0)
(0.604082 42.3269 0)
(-0.336463 44.3924 0)
(-1.22744 45.0145 0)
(-1.99195 44.2618 0)
(-2.61196 42.4698 0)
(-3.05636 39.6871 0)
(-3.31461 36.0168 0)
(-3.40136 31.5917 0)
(-3.33596 26.5849 0)
(-3.1287 21.2213 0)
(-2.77681 15.7772 0)
(-2.23315 10.5831 0)
(-1.46203 5.98731 0)
(-1.03079 2.21829 0)
(-0.546972 -3.57727 0)
(0.0553181 -10.5859 0)
(0.454978 -16.1166 0)
(0.962623 -21.2093 0)
(1.43703 -25.7675 0)
(1.51827 -29.76 0)
(1.50585 -33.1367 0)
(1.36145 -35.831 0)
(1.11709 -37.7162 0)
(0.829044 -38.4759 0)
(0.55166 -38.0405 0)
(0.325019 -36.7521 0)
(0.166272 -34.6596 0)
(0.0851175 -31.8392 0)
(0.08006 -28.369 0)
(0.134108 -24.364 0)
(0.221276 -19.9764 0)
(0.318829 -15.3904 0)
(0.404278 -10.834 0)
(0.413201 -6.58132 0)
(0.599437 -2.99652 0)
(1.27528 0.201266 0)
(1.91277 7.52869 0)
(1.97403 12.301 0)
(1.91304 16.85 0)
(1.81648 21.0177 0)
(1.60021 24.7448 0)
(1.21449 27.9665 0)
(0.728351 30.6124 0)
(0.163255 32.5771 0)
(-0.426674 33.6604 0)
(-0.970963 33.533 0)
(-1.43894 32.617 0)
(-1.80623 30.9482 0)
(-2.05959 28.587 0)
(-2.20215 25.6177 0)
(-2.24475 22.1464 0)
(-2.1917 18.3133 0)
(-2.04136 14.2909 0)
(-1.79047 10.2696 0)
(-1.38165 6.4802 0)
(-0.836018 3.25932 0)
(-0.721524 0.81091 0)
(-0.413462 -4.89408 0)
(0.0106065 -9.53161 0)
(0.272905 -13.5812 0)
(0.67263 -17.2936 0)
(1.04971 -20.5883 0)
(1.15125 -23.4034 0)
(1.2061 -25.7088 0)
(1.16535 -27.4628 0)
(1.04446 -28.5155 0)
(0.879612 -28.5751 0)
(0.710807 -27.948 0)
(0.559686 -26.7181 0)
(0.43345 -24.9218 0)
(0.335558 -22.6143 0)
(0.266901 -19.863 0)
(0.221593 -16.7849 0)
(0.196203 -13.475 0)
(0.193302 -10.1323 0)
(0.185662 -6.79237 0)
(0.159563 -3.73152 0)
(0.348718 -1.33943 0)
(0.639958 3.85622 0)
(1.31298 -27.6257 0)
(0.842462 -26.4117 0)
(0.393251 -24.6392 0)
(-0.0218445 -22.3628 0)
(-0.386888 -19.647 0)
(-0.68891 -16.6174 0)
(-0.913599 -13.365 0)
(-1.05742 -10.0851 0)
(-1.04633 -6.83411 0)
(-0.848142 -3.8393 0)
(-1.00046 -1.3089 0)
(-1.18607 3.83644 0)
(0.223923 0.0871244 0)
(0.0482459 0.0924358 0)
(-0.137586 0.093818 0)
(-0.325836 0.0917518 0)
(-0.509405 0.0866094 0)
(-0.681709 0.0785865 0)
(-0.836312 0.0677267 0)
(-0.966752 0.0540892 0)
(-1.0668 0.0379232 0)
(-1.13117 0.0199089 0)
(-1.15626 0.000926782 0)
(-1.14056 -0.0180916 0)
(-1.08566 -0.0354135 0)
(-0.99655 -0.0492642 0)
(-0.881418 -0.0592442 0)
(-0.748394 -0.0657401 0)
(-0.604471 -0.0690786 0)
(-0.456382 -0.0695401 0)
(-0.31002 -0.0675379 0)
(-0.170311 -0.0635429 0)
(-0.0410827 -0.0580865 0)
(0.0751081 -0.0517801 0)
(0.177077 -0.0452493 0)
(0.264925 -0.0390576 0)
(0.339778 -0.0336345 0)
(0.403521 -0.0292946 0)
(0.458621 -0.0262396 0)
(0.507703 -0.0241715 0)
(0.553247 -0.0230895 0)
(0.597132 -0.022626 0)
(0.64 -0.0221199 0)
(0.681362 -0.021831 0)
(0.721058 -0.0189736 0)
(0.755117 -0.0159951 0)
(0.781347 -0.0116939 0)
(0.796082 -0.00527929 0)
(0.795061 0.00304745 0)
(0.774012 0.0129586 0)
(0.729176 0.0244216 0)
(0.656633 0.0390734 0)
(0.570319 0.0629155 0)
(0.46769 0.0682312 0)
(0.338845 0.0719872 0)
(0.195205 0.074917 0)
(0.0439967 0.0758242 0)
(-0.108485 0.0736275 0)
(-0.256249 0.0689777 0)
(-0.394177 0.0623919 0)
(-0.518136 0.0542825 0)
(-0.624866 0.0450636 0)
(-0.712102 0.0350304 0)
(-0.777902 0.0243971 0)
(-0.820896 0.0133409 0)
(-0.839847 0.0019517 0)
(-0.834092 -0.00935654 0)
(-0.804552 -0.020054 0)
(-0.752657 -0.0297382 0)
(-0.68113 -0.0379685 0)
(-0.593455 -0.0444502 0)
(-0.493705 -0.0490197 0)
(-0.386206 -0.0516622 0)
(-0.275116 -0.0524887 0)
(-0.164071 -0.0517378 0)
(-0.0559867 -0.049696 0)
(0.0469809 -0.0469632 0)
(0.143731 -0.0442236 0)
(0.233265 -0.0413349 0)
(0.312457 -0.0425491 0)
(0.382806 -0.0356771 0)
(0.448536 -0.0318742 0)
(0.508215 -0.0292175 0)
(0.562027 -0.0256672 0)
(0.609713 -0.0225749 0)
(0.650832 -0.0195351 0)
(0.684394 -0.0162164 0)
(0.709536 -0.011819 0)
(0.725451 -0.00640421 0)
(0.729756 -0.000529916 0)
(0.720139 0.00529829 0)
(0.695918 0.011894 0)
(0.657149 0.018668 0)
(0.602122 0.0262396 0)
(0.530606 0.0343676 0)
(0.441925 0.0419889 0)
(0.338729 0.0515135 0)
(0.226464 0.063646 0)
(0.111302 0.0630202 0)
(-0.0142696 0.0635365 0)
(-0.142419 0.0627614 0)
(-0.26856 0.0601894 0)
(-0.38898 0.0559583 0)
(-0.500408 0.050538 0)
(-0.599976 0.0440307 0)
(-0.685118 0.0365617 0)
(-0.753678 0.0283469 0)
(-0.804166 0.0197417 0)
(-0.835982 0.0111608 0)
(-0.84934 0.00289178 0)
(-0.845071 -0.00491469 0)
(-0.824223 -0.0119038 0)
(-0.789243 -0.0177876 0)
(-0.742323 -0.0225602 0)
(-0.685912 -0.026236 0)
(-0.622367 -0.0288799 0)
(-0.553829 -0.0306015 0)
(-0.482197 -0.0315178 0)
(-0.409093 -0.0317712 0)
(-0.335827 -0.0315261 0)
(-0.263319 -0.030965 0)
(-0.19214 -0.0302384 0)
(-0.122522 -0.0294661 0)
(-0.0545558 -0.0286834 0)
(0.0117762 -0.0278796 0)
(0.0763253 -0.0269941 0)
(0.138825 -0.0258884 0)
(0.19864 -0.0244876 0)
(0.254876 -0.0225151 0)
(0.306334 -0.0199975 0)
(0.350815 -0.0165546 0)
(0.388801 -0.0125172 0)
(0.412086 -0.00847922 0)
(0.432907 -0.0051643 0)
(0.0984425 0.261251 0)
(-0.0890458 0.278313 0)
(-0.283357 0.283342 0)
(-0.476233 0.277392 0)
(-0.660586 0.261821 0)
(-0.830244 0.237206 0)
(-0.979152 0.203544 0)
(-1.10096 0.16088 0)
(-1.18928 0.109829 0)
(-1.23868 0.0524793 0)
(-1.24481 -0.00809461 0)
(-1.20615 -0.0687817 0)
(-1.12629 -0.123961 0)
(-1.01095 -0.16755 0)
(-0.869952 -0.198364 0)
(-0.712282 -0.21783 0)
(-0.545684 -0.226996 0)
(-0.377249 -0.226787 0)
(-0.213248 -0.218653 0)
(-0.0588619 -0.20416 0)
(0.0819032 -0.185033 0)
(0.20639 -0.163385 0)
(0.313452 -0.141244 0)
(0.403408 -0.120147 0)
(0.47771 -0.101318 0)
(0.538631 -0.0857884 0)
(0.589044 -0.074176 0)
(0.631865 -0.0665399 0)
(0.669853 -0.0622318 0)
(0.705279 -0.0600001 0)
(0.739266 -0.0582578 0)
(0.771589 -0.0553129 0)
(0.80022 -0.0493402 0)
(0.823216 -0.0396143 0)
(0.838089 -0.0251637 0)
(0.841152 -0.00569049 0)
(0.828693 0.0200047 0)
(0.795606 0.0513369 0)
(0.739789 0.0868657 0)
(0.664179 0.124454 0)
(0.556376 0.167419 0)
(0.422327 0.196345 0)
(0.278124 0.216482 0)
(0.122218 0.22859 0)
(-0.0396719 0.231731 0)
(-0.200244 0.225936 0)
(-0.352982 0.212093 0)
(-0.492387 0.19159 0)
(-0.614282 0.166002 0)
(-0.715743 0.136812 0)
(-0.79478 0.105032 0)
(-0.849994 0.0711452 0)
(-0.879911 0.0357587 0)
(-0.883386 -0.000566218 0)
(-0.861624 -0.0367412 0)
(-0.814424 -0.0710669 0)
(-0.743942 -0.101991 0)
(-0.65336 -0.128084 0)
(-0.546803 -0.148282 0)
(-0.429054 -0.161907 0)
(-0.304977 -0.168819 0)
(-0.179238 -0.169718 0)
(-0.0559836 -0.165739 0)
(0.0613647 -0.157994 0)
(0.170445 -0.147293 0)
(0.269047 -0.134747 0)
(0.355401 -0.122573 0)
(0.434251 -0.113229 0)
(0.502765 -0.101397 0)
(0.559551 -0.0896672 0)
(0.607651 -0.0792619 0)
(0.649335 -0.0703237 0)
(0.683911 -0.0593755 0)
(0.709822 -0.0479584 0)
(0.727548 -0.0337103 0)
(0.735699 -0.0216028 0)
(0.732049 -0.00776277 0)
(0.716546 0.0101329 0)
(0.688691 0.0347587 0)
(0.642242 0.0546055 0)
(0.582346 0.0744252 0)
(0.506457 0.100127 0)
(0.413606 0.120728 0)
(0.307088 0.142564 0)
(0.189495 0.170697 0)
(0.054394 0.187544 0)
(-0.0879762 0.19577 0)
(-0.229089 0.19808 0)
(-0.369315 0.195041 0)
(-0.504905 0.186818 0)
(-0.631939 0.173776 0)
(-0.746978 0.156415 0)
(-0.847054 0.135217 0)
(-0.92958 0.110616 0)
(-0.992324 0.0833377 0)
(-1.03373 0.054626 0)
(-1.05346 0.0259314 0)
(-1.05182 -0.00182704 0)
(-1.02952 -0.0278464 0)
(-0.989829 -0.0510219 0)
(-0.934347 -0.070707 0)
(-0.865865 -0.0866636 0)
(-0.787228 -0.0988658 0)
(-0.701134 -0.107573 0)
(-0.609992 -0.113216 0)
(-0.515968 -0.116208 0)
(-0.420861 -0.116966 0)
(-0.326228 -0.115993 0)
(-0.233057 -0.113864 0)
(-0.142098 -0.111121 0)
(-0.0533974 -0.108148 0)
(0.0327054 -0.105176 0)
(0.11661 -0.102135 0)
(0.197847 -0.0988459 0)
(0.27636 -0.0949155 0)
(0.351764 -0.0898151 0)
(0.422101 -0.0833284 0)
(0.488509 -0.0745252 0)
(0.544828 -0.0639901 0)
(0.59713 -0.0500807 0)
(0.633831 -0.0349434 0)
(0.660232 -0.0115736 0)
(0.110748 0.433105 0)
(-0.080514 0.46404 0)
(-0.278173 0.473803 0)
(-0.473231 0.464504 0)
(-0.659219 0.439364 0)
(-0.831159 0.399427 0)
(-0.983685 0.344227 0)
(-1.11038 0.273247 0)
(-1.20379 0.186598 0)
(-1.25699 0.0873963 0)
(-1.26425 -0.0181963 0)
(-1.22151 -0.125062 0)
(-1.13263 -0.222222 0)
(-1.00469 -0.296936 0)
(-0.851577 -0.349193 0)
(-0.683663 -0.382502 0)
(-0.508495 -0.398143 0)
(-0.333345 -0.397459 0)
(-0.164749 -0.383008 0)
(-0.00809718 -0.357233 0)
(0.132323 -0.322701 0)
(0.253856 -0.282743 0)
(0.355746 -0.241113 0)
(0.438761 -0.201579 0)
(0.504615 -0.167108 0)
(0.555895 -0.13916 0)
(0.595985 -0.118186 0)
(0.62884 -0.104267 0)
(0.658461 -0.0966343 0)
(0.687986 -0.0931872 0)
(0.719084 -0.0907696 0)
(0.751286 -0.0853399 0)
(0.782101 -0.074373 0)
(0.809335 -0.0584779 0)
(0.830953 -0.0355399 0)
(0.842821 -0.000940118 0)
(0.840398 0.0445768 0)
(0.818466 0.0978628 0)
(0.770625 0.157085 0)
(0.69704 0.217324 0)
(0.594743 0.270126 0)
(0.466354 0.321553 0)
(0.318676 0.362282 0)
(0.156756 0.387515 0)
(-0.0120276 0.395737 0)
(-0.17942 0.387129 0)
(-0.338032 0.363701 0)
(-0.482065 0.328272 0)
(-0.607427 0.283757 0)
(-0.7116 0.232876 0)
(-0.793311 0.177598 0)
(-0.851519 0.118306 0)
(-0.884859 0.0560425 0)
(-0.890412 -0.00766781 0)
(-0.870548 -0.0710748 0)
(-0.823995 -0.13145 0)
(-0.752611 -0.185584 0)
(-0.659847 -0.230693 0)
(-0.550638 -0.265136 0)
(-0.430321 -0.288171 0)
(-0.304103 -0.299691 0)
(-0.176963 -0.300453 0)
(-0.0534801 -0.292012 0)
(0.062632 -0.276332 0)
(0.168731 -0.255443 0)
(0.262959 -0.231424 0)
(0.34496 -0.205755 0)
(0.415842 -0.179501 0)
(0.476639 -0.157651 0)
(0.528532 -0.138516 0)
(0.572173 -0.120764 0)
(0.608573 -0.103525 0)
(0.639114 -0.0861207 0)
(0.663727 -0.0675604 0)
(0.681418 -0.0472625 0)
(0.689085 -0.0235166 0)
(0.688968 0.0058209 0)
(0.675895 0.0379693 0)
(0.648458 0.073936 0)
(0.604379 0.113887 0)
(0.54919 0.158351 0)
(0.479223 0.196713 0)
(0.385492 0.234831 0)
(0.275919 0.26979 0)
(0.155193 0.298328 0)
(0.0217061 0.318259 0)
(-0.121399 0.333664 0)
(-0.267642 0.339704 0)
(-0.413138 0.335369 0)
(-0.553655 0.32099 0)
(-0.685009 0.297462 0)
(-0.803675 0.266201 0)
(-0.90683 0.228309 0)
(-0.99182 0.184358 0)
(-1.05585 0.135416 0)
(-1.09677 0.0838061 0)
(-1.11427 0.0322439 0)
(-1.10765 -0.017448 0)
(-1.08006 -0.063436 0)
(-1.03378 -0.10409 0)
(-0.970863 -0.138594 0)
(-0.894419 -0.166431 0)
(-0.807712 -0.187675 0)
(-0.713876 -0.20287 0)
(-0.615553 -0.212695 0)
(-0.514901 -0.217708 0)
(-0.413748 -0.218621 0)
(-0.313793 -0.21645 0)
(-0.215957 -0.212313 0)
(-0.121065 -0.207261 0)
(-0.0288469 -0.201996 0)
(0.0606506 -0.196772 0)
(0.147837 -0.191624 0)
(0.233192 -0.185763 0)
(0.315772 -0.1793 0)
(0.396474 -0.170385 0)
(0.472523 -0.159465 0)
(0.544777 -0.143931 0)
(0.609195 -0.125063 0)
(0.666143 -0.100437 0)
(0.713585 -0.0744096 0)
(0.74613 -0.0311717 0)
(0.142349 0.636048 0)
(-0.0658626 0.676639 0)
(-0.280765 0.685019 0)
(-0.490558 0.66814 0)
(-0.688702 0.630852 0)
(-0.87247 0.572828 0)
(-1.03785 0.492602 0)
(-1.17848 0.388928 0)
(-1.28512 0.260455 0)
(-1.3472 0.112589 0)
(-1.35628 -0.0409224 0)
(-1.30546 -0.201946 0)
(-1.1957 -0.355367 0)
(-1.0398 -0.465231 0)
(-0.860785 -0.534823 0)
(-0.669287 -0.576996 0)
(-0.472016 -0.592675 0)
(-0.277667 -0.582394 0)
(-0.093482 -0.5519 0)
(0.0754841 -0.505585 0)
(0.223397 -0.447732 0)
(0.346045 -0.385828 0)
(0.442681 -0.325625 0)
(0.514489 -0.269217 0)
(0.564434 -0.218441 0)
(0.597209 -0.176277 0)
(0.61818 -0.145117 0)
(0.632618 -0.125985 0)
(0.645855 -0.117758 0)
(0.662826 -0.116345 0)
(0.686813 -0.116948 0)
(0.717334 -0.114785 0)
(0.749153 -0.105864 0)
(0.77899 -0.0862393 0)
(0.808629 -0.0546525 0)
(0.833616 -0.0123074 0)
(0.851021 0.0480959 0)
(0.838848 0.130104 0)
(0.801115 0.217335 0)
(0.732876 0.306172 0)
(0.632871 0.391061 0)
(0.503402 0.466742 0)
(0.348702 0.525513 0)
(0.175806 0.561449 0)
(-0.00580461 0.571049 0)
(-0.185731 0.554707 0)
(-0.354805 0.51623 0)
(-0.506513 0.460571 0)
(-0.636752 0.393075 0)
(-0.743644 0.31877 0)
(-0.827658 0.241463 0)
(-0.888796 0.159073 0)
(-0.925233 0.0726817 0)
(-0.93231 -0.0157274 0)
(-0.911341 -0.104472 0)
(-0.860895 -0.190659 0)
(-0.78237 -0.268925 0)
(-0.680544 -0.333697 0)
(-0.561727 -0.381997 0)
(-0.432185 -0.41272 0)
(-0.297913 -0.425935 0)
(-0.164626 -0.423143 0)
(-0.0373569 -0.407248 0)
(0.0800039 -0.38166 0)
(0.184819 -0.349605 0)
(0.275555 -0.313888 0)
(0.352049 -0.277015 0)
(0.415584 -0.241396 0)
(0.468018 -0.209472 0)
(0.511415 -0.182008 0)
(0.549353 -0.158579 0)
(0.58325 -0.136792 0)
(0.613087 -0.114425 0)
(0.638849 -0.0896891 0)
(0.659742 -0.0610962 0)
(0.674214 -0.0273663 0)
(0.678752 0.00652997 0)
(0.67253 0.0525875 0)
(0.653889 0.103 0)
(0.622552 0.158036 0)
(0.567996 0.21854 0)
(0.493458 0.273761 0)
(0.406374 0.328327 0)
(0.300574 0.380497 0)
(0.177395 0.425353 0)
(0.0395901 0.458412 0)
(-0.108699 0.479407 0)
(-0.26188 0.486561 0)
(-0.414959 0.4794 0)
(-0.562987 0.458059 0)
(-0.700973 0.423659 0)
(-0.825088 0.378637 0)
(-0.933 0.324718 0)
(-1.02214 0.261789 0)
(-1.08859 0.190556 0)
(-1.12894 0.1147 0)
(-1.14247 0.0387099 0)
(-1.12853 -0.0338532 0)
(-1.09372 -0.100214 0)
(-1.03884 -0.159112 0)
(-0.966945 -0.209506 0)
(-0.881519 -0.250119 0)
(-0.786256 -0.280311 0)
(-0.684712 -0.300872 0)
(-0.579775 -0.313609 0)
(-0.473876 -0.319704 0)
(-0.369254 -0.320001 0)
(-0.267894 -0.315754 0)
(-0.170921 -0.308537 0)
(-0.0786779 -0.29993 0)
(0.00934719 -0.291224 0)
(0.0940353 -0.282919 0)
(0.176181 -0.275193 0)
(0.256463 -0.267323 0)
(0.33516 -0.258365 0)
(0.411706 -0.246686 0)
(0.48585 -0.232295 0)
(0.555419 -0.211353 0)
(0.620321 -0.188329 0)
(0.674903 -0.154837 0)
(0.724555 -0.124992 0)
(0.75707 -0.0543239 0)
(0.316968 0.826292 0)
(0.0616441 0.885097 0)
(-0.202837 0.894868 0)
(-0.460662 0.861385 0)
(-0.707694 0.806779 0)
(-0.945164 0.73343 0)
(-1.16776 0.636178 0)
(-1.36709 0.512091 0)
(-1.52754 0.357401 0)
(-1.62787 0.168068 0)
(-1.66718 -0.0555558 0)
(-1.63182 -0.289727 0)
(-1.49514 -0.480061 0)
(-1.28719 -0.611511 0)
(-1.05827 -0.694601 0)
(-0.818918 -0.746236 0)
(-0.571457 -0.76527 0)
(-0.328998 -0.753518 0)
(-0.100879 -0.722098 0)
(0.108466 -0.670149 0)
(0.291476 -0.595644 0)
(0.441702 -0.507095 0)
(0.556412 -0.415631 0)
(0.635718 -0.328628 0)
(0.681752 -0.253435 0)
(0.701232 -0.195414 0)
(0.704096 -0.15543 0)
(0.69967 -0.133753 0)
(0.695514 -0.129663 0)
(0.698484 -0.13895 0)
(0.714599 -0.154807 0)
(0.742919 -0.158562 0)
(0.782066 -0.137364 0)
(0.830519 -0.11877 0)
(0.88181 -0.100462 0)
(0.927113 -0.0503097 0)
(0.953949 0.0333093 0)
(0.953812 0.136565 0)
(0.921048 0.253973 0)
(0.850645 0.377313 0)
(0.742937 0.490862 0)
(0.593654 0.597339 0)
(0.405596 0.683491 0)
(0.18998 0.737822 0)
(-0.0373757 0.754819 0)
(-0.260102 0.73472 0)
(-0.464337 0.686156 0)
(-0.641158 0.617136 0)
(-0.785976 0.532343 0)
(-0.898364 0.436329 0)
(-0.984679 0.339996 0)
(-1.04873 0.231507 0)
(-1.08764 0.112599 0)
(-1.09759 -0.0117946 0)
(-1.07414 -0.136916 0)
(-1.01327 -0.256719 0)
(-0.914602 -0.362915 0)
(-0.785856 -0.447129 0)
(-0.637624 -0.50862 0)
(-0.479104 -0.547646 0)
(-0.318014 -0.565403 0)
(-0.16153 -0.562417 0)
(-0.0156643 -0.540171 0)
(0.115664 -0.503039 0)
(0.229676 -0.455818 0)
(0.324435 -0.403189 0)
(0.400192 -0.349966 0)
(0.459667 -0.300154 0)
(0.506143 -0.257682 0)
(0.546835 -0.223246 0)
(0.584339 -0.195071 0)
(0.618685 -0.170219 0)
(0.651192 -0.145288 0)
(0.681933 -0.117597 0)
(0.709737 -0.0849953 0)
(0.733204 -0.0455116 0)
(0.748013 0.00223945 0)
(0.752001 0.0585196 0)
(0.743231 0.122815 0)
(0.717818 0.193628 0)
(0.670975 0.267201 0)
(0.600342 0.347294 0)
(0.50914 0.425206 0)
(0.395991 0.497673 0)
(0.261593 0.560358 0)
(0.108976 0.608252 0)
(-0.0572806 0.638862 0)
(-0.230784 0.65065 0)
(-0.404958 0.642496 0)
(-0.573489 0.613707 0)
(-0.729471 0.56599 0)
(-0.868067 0.504303 0)
(-0.988243 0.431772 0)
(-1.08831 0.346119 0)
(-1.16188 0.246796 0)
(-1.20256 0.139824 0)
(-1.20676 0.0338368 0)
(-1.18304 -0.0643396 0)
(-1.13467 -0.152806 0)
(-1.06401 -0.230728 0)
(-0.974195 -0.296573 0)
(-0.868953 -0.348753 0)
(-0.753127 -0.386519 0)
(-0.632201 -0.410657 0)
(-0.510448 -0.424095 0)
(-0.390978 -0.428089 0)
(-0.276682 -0.423812 0)
(-0.169747 -0.413564 0)
(-0.0710915 -0.400332 0)
(0.0194993 -0.386654 0)
(0.103403 -0.374129 0)
(0.182494 -0.363538 0)
(0.258742 -0.354376 0)
(0.333414 -0.345681 0)
(0.407884 -0.335848 0)
(0.481204 -0.322942 0)
(0.55404 -0.305478 0)
(0.619844 -0.279806 0)
(0.684022 -0.248372 0)
(0.730793 -0.200304 0)
(0.775206 -0.161321 0)
(0.790118 -0.073637 0)
(0.506494 1.118 0)
(0.164821 1.2001 0)
(-0.16208 1.21448 0)
(-0.45429 1.19137 0)
(-0.725758 1.15023 0)
(-0.986135 1.07576 0)
(-1.23195 0.957262 0)
(-1.45964 0.795759 0)
(-1.66009 0.572134 0)
(-1.82384 0.26269 0)
(-1.91324 -0.00328561 0)
(-1.86793 -0.333315 0)
(-1.6691 -0.742775 0)
(-1.39324 -0.914907 0)
(-1.12365 -1.01649 0)
(-0.845097 -1.10267 0)
(-0.557842 -1.13336 0)
(-0.289869 -1.10488 0)
(-0.0501371 -1.03292 0)
(0.172789 -0.9228 0)
(0.368755 -0.795636 0)
(0.518552 -0.66131 0)
(0.622946 -0.519491 0)
(0.689686 -0.384833 0)
(0.716771 -0.27428 0)
(0.708762 -0.194283 0)
(0.678889 -0.142801 0)
(0.6425 -0.117975 0)
(0.614738 -0.116191 0)
(0.605217 -0.130126 0)
(0.623909 -0.150956 0)
(0.678682 -0.173462 0)
(0.765858 -0.186238 0)
(0.880612 -0.181632 0)
(1.00583 -0.152604 0)
(1.12143 -0.0894801 0)
(1.21122 0.017138 0)
(1.25966 0.158929 0)
(1.25073 0.319374 0)
(1.17793 0.487763 0)
(1.04281 0.659291 0)
(0.848816 0.819883 0)
(0.60068 0.945819 0)
(0.307459 1.01993 0)
(-0.0111951 1.03595 0)
(-0.328289 0.996144 0)
(-0.619837 0.907019 0)
(-0.868585 0.781583 0)
(-1.06519 0.641802 0)
(-1.20785 0.505712 0)
(-1.31492 0.371805 0)
(-1.40111 0.24045 0)
(-1.45271 0.110143 0)
(-1.46341 -0.0285168 0)
(-1.42974 -0.180799 0)
(-1.34505 -0.344872 0)
(-1.20476 -0.498376 0)
(-1.02389 -0.611862 0)
(-0.817878 -0.69606 0)
(-0.600337 -0.742035 0)
(-0.383438 -0.749898 0)
(-0.176121 -0.725818 0)
(0.0119576 -0.681961 0)
(0.172154 -0.625114 0)
(0.301506 -0.557084 0)
(0.401177 -0.482777 0)
(0.475975 -0.409951 0)
(0.535582 -0.347462 0)
(0.585894 -0.297976 0)
(0.629352 -0.259482 0)
(0.66997 -0.228662 0)
(0.711194 -0.202063 0)
(0.754762 -0.17625 0)
(0.800581 -0.147183 0)
(0.846944 -0.111189 0)
(0.891068 -0.0658132 0)
(0.928954 -0.00948389 0)
(0.955858 0.0594715 0)
(0.966842 0.140605 0)
(0.95482 0.231839 0)