/*--------------------------------*- C++ -*----------------------------------*\
| =========                 |                                                 |
| \\      /  F ield         | OpenFOAM: The Open Source CFD Toolbox           |
|  \\    /   O peration     | Version:  2206                                  |
|   \\  /    A nd           | Website:  www.openfoam.com                      |
|    \\/     M anipulation  |                                                 |
\*---------------------------------------------------------------------------*/
FoamFile
{
    version     2.0;
    format      ascii;
    arch        "LSB;label=32;scalar=64";
    class       surfaceScalarField;
    location    "19.7001";
    object      phi_0;
}
// * * * * * * * * * * * * * * * * * * * * * * * * * * * * * * * * * * * * * //

dimensions      [0 3 -1 0 0 0 0];

oriented        oriented;

internalField   nonuniform List<scalar> 
3561
(
5.53221e-06
-5.7495e-08
7.16525e-08
5.52307e-06
-3.10207e-08
4.01574e-08
5.51917e-06
-3.38033e-09
7.28945e-09
5.52041e-06
2.43209e-08
-2.55615e-08
5.52653e-06
5.09429e-08
-5.70638e-08
5.53709e-06
7.53871e-08
-8.59473e-08
5.55153e-06
9.66445e-08
-1.11087e-07
5.56925e-06
1.1386e-07
-1.31583e-07
5.58961e-06
1.26459e-07
-1.46815e-07
5.6119e-06
1.34147e-07
-1.56441e-07
5.63547e-06
1.36817e-07
-1.60389e-07
5.65974e-06
1.34496e-07
-1.5876e-07
5.68411e-06
1.27316e-07
-1.51688e-07
5.70796e-06
1.15567e-07
-1.39415e-07
5.73062e-06
9.98017e-08
-1.22464e-07
5.75133e-06
8.08376e-08
-1.01553e-07
5.76929e-06
5.95788e-08
-7.75376e-08
5.78379e-06
3.69429e-08
-5.14392e-08
5.79432e-06
1.38452e-08
-2.43789e-08
5.80064e-06
-8.90285e-09
2.58968e-09
5.80265e-06
-3.05138e-08
2.84982e-08
5.80044e-06
-5.02736e-08
5.24818e-08
5.79415e-06
-6.75031e-08
7.37981e-08
5.78392e-06
-8.16012e-08
9.18252e-08
5.77016e-06
-9.22832e-08
1.06051e-07
5.75345e-06
-9.93948e-08
1.16104e-07
5.73448e-06
-1.02956e-07
1.21924e-07
5.71399e-06
-1.03109e-07
1.23603e-07
5.69271e-06
-1.00039e-07
1.21313e-07
5.67143e-06
-9.39722e-08
1.15256e-07
5.65093e-06
-8.51867e-08
1.05686e-07
5.63196e-06
-7.39893e-08
9.29533e-08
5.61517e-06
-6.07044e-08
7.75018e-08
5.60104e-06
-4.56481e-08
5.97721e-08
5.59e-06
-2.91865e-08
4.02284e-08
5.58231e-06
-1.17671e-08
1.94548e-08
5.57808e-06
6.04861e-09
-1.81113e-09
5.57723e-06
2.36313e-08
-2.27857e-08
5.57959e-06
4.03151e-08
-4.26794e-08
5.58489e-06
5.54573e-08
-6.07517e-08
5.59278e-06
6.84667e-08
-7.63591e-08
5.60293e-06
7.88475e-08
-8.89984e-08
5.61495e-06
8.62915e-08
-9.83131e-08
5.62841e-06
9.06383e-08
-1.04095e-07
5.64289e-06
9.18272e-08
-1.0631e-07
5.65803e-06
8.98883e-08
-1.05026e-07
5.67344e-06
8.49128e-08
-1.00319e-07
5.68868e-06
7.70786e-08
-9.23241e-08
5.70332e-06
6.67083e-08
-8.13467e-08
5.71686e-06
5.4278e-08
-6.78152e-08
5.72877e-06
4.03181e-08
-5.22277e-08
5.73857e-06
2.54127e-08
-3.52109e-08
5.74592e-06
1.01228e-08
-1.7473e-08
5.75064e-06
-4.97709e-09
2.59163e-10
5.75266e-06
-1.93565e-08
1.73366e-08
5.75202e-06
-3.2535e-08
3.31718e-08
5.74883e-06
-4.4071e-08
4.72645e-08
5.74317e-06
-5.35474e-08
5.92033e-08
5.73524e-06
-6.0734e-08
6.86636e-08
5.72537e-06
-6.55255e-08
7.53952e-08
5.71396e-06
-6.78969e-08
7.9311e-08
5.70142e-06
-6.79371e-08
8.04703e-08
5.68822e-06
-6.57814e-08
7.89821e-08
5.67483e-06
-6.15946e-08
7.49822e-08
5.66178e-06
-5.5588e-08
6.86418e-08
5.64958e-06
-4.80082e-08
6.02075e-08
5.6387e-06
-3.91266e-08
5.001e-08
5.6295e-06
-2.92005e-08
3.83965e-08
5.62229e-06
-1.85135e-08
2.57296e-08
5.61722e-06
-7.38439e-09
1.24526e-08
5.61436e-06
3.80912e-09
-9.51011e-10
5.61367e-06
1.46768e-08
-1.39921e-08
5.61505e-06
2.48239e-08
-2.62022e-08
5.61834e-06
3.38742e-08
-3.71583e-08
5.62336e-06
4.14787e-08
-4.65026e-08
5.62992e-06
4.73935e-08
-5.39567e-08
5.63777e-06
5.14687e-08
-5.93151e-08
5.64663e-06
5.36164e-08
-6.24774e-08
5.65626e-06
5.38317e-08
-6.346e-08
5.66642e-06
5.21605e-08
-6.23233e-08
5.67687e-06
4.86818e-08
-5.91305e-08
5.68733e-06
4.35206e-08
-5.39754e-08
5.69747e-06
3.69074e-08
-4.70467e-08
5.70692e-06
2.9144e-08
-3.86036e-08
5.71533e-06
2.05695e-08
-2.89791e-08
5.72238e-06
1.15203e-08
-1.85655e-08
5.72785e-06
2.33323e-09
-7.80235e-09
5.73162e-06
-6.6587e-09
2.89194e-09
5.73364e-06
-1.51485e-08
1.31232e-08
5.73396e-06
-2.28635e-08
2.25408e-08
5.73266e-06
-2.9544e-08
3.08511e-08
5.72977e-06
-3.49328e-08
3.78225e-08
5.72539e-06
-3.89002e-08
4.32725e-08
5.71973e-06
-4.13765e-08
4.70457e-08
5.71298e-06
-4.23505e-08
4.90975e-08
5.7054e-06
-4.18797e-08
4.94563e-08
5.69726e-06
-4.00509e-08
4.81887e-08
5.68885e-06
-3.69656e-08
4.53772e-08
5.68049e-06
-3.27669e-08
4.11306e-08
5.67251e-06
-2.76283e-08
3.56085e-08
5.66523e-06
-2.17418e-08
2.90196e-08
5.65893e-06
-1.53011e-08
2.16057e-08
5.6538e-06
-8.49465e-09
1.36228e-08
5.64997e-06
-1.53915e-09
5.36875e-09
5.64749e-06
5.34183e-09
-2.8639e-09
5.64635e-06
1.19221e-08
-1.07847e-08
5.64649e-06
1.79816e-08
-1.81221e-08
5.64782e-06
2.33104e-08
-2.46387e-08
5.65025e-06
2.77079e-08
-3.01411e-08
5.65369e-06
3.10473e-08
-3.44849e-08
5.65799e-06
3.32584e-08
-3.75598e-08
5.66301e-06
3.43003e-08
-3.93177e-08
5.6686e-06
3.41859e-08
-3.97754e-08
5.67461e-06
3.29576e-08
-3.89707e-08
5.68089e-06
3.06734e-08
-3.69486e-08
5.68725e-06
2.74169e-08
-3.37782e-08
5.69348e-06
2.33313e-08
-2.95651e-08
5.69939e-06
1.86038e-08
-2.45079e-08
5.70471e-06
1.3339e-08
-1.86567e-08
5.7093e-06
7.97209e-09
-1.25692e-08
5.71292e-06
2.1475e-09
-5.761e-09
5.71592e-06
-2.78793e-09
-2.19239e-10
-1.03351e-08
8.87936e-09
5.15102e-06
-6.25622e-08
5.13652e-06
-4.29971e-08
5.12725e-06
-2.17466e-08
5.12338e-06
4.85601e-10
5.1249e-06
2.28006e-08
5.13168e-06
4.41632e-08
5.14344e-06
6.36326e-08
5.15969e-06
8.03896e-08
5.17983e-06
9.37226e-08
5.20316e-06
1.03126e-07
5.22899e-06
1.08319e-07
5.25661e-06
1.092e-07
5.28529e-06
1.05819e-07
5.3142e-06
9.8402e-08
5.34234e-06
8.74263e-08
5.36858e-06
7.35634e-08
5.39185e-06
5.75616e-08
5.41128e-06
4.01494e-08
5.4262e-06
2.20234e-08
5.43621e-06
3.83728e-09
5.44112e-06
-1.38077e-08
5.44087e-06
-3.02711e-08
5.43548e-06
-4.48768e-08
5.42516e-06
-5.71892e-08
5.41047e-06
-6.69032e-08
5.39211e-06
-7.39257e-08
5.37098e-06
-7.8265e-08
5.34801e-06
-7.99866e-08
5.3241e-06
-7.91971e-08
5.30012e-06
-7.60658e-08
5.27693e-06
-7.07789e-08
5.25524e-06
-6.34939e-08
5.23564e-06
-5.43895e-08
5.21862e-06
-4.36897e-08
5.20461e-06
-3.16393e-08
5.19394e-06
-1.8511e-08
5.18681e-06
-4.63631e-09
5.1833e-06
9.56018e-09
5.18337e-06
2.35547e-08
5.18694e-06
3.67433e-08
5.19384e-06
4.85607e-08
5.20376e-06
5.85471e-08
5.21631e-06
6.63021e-08
5.23104e-06
7.15596e-08
5.2475e-06
7.41764e-08
5.26522e-06
7.41086e-08
5.28371e-06
7.13995e-08
5.30241e-06
6.62126e-08
5.32064e-06
5.8843e-08
5.33768e-06
4.96747e-08
5.35282e-06
3.91309e-08
5.36552e-06
2.76241e-08
5.37534e-06
1.55874e-08
5.38203e-06
3.43738e-09
5.38545e-06
-8.39563e-09
5.38555e-06
-1.9461e-08
5.38233e-06
-2.93148e-08
5.37594e-06
-3.76771e-08
5.3667e-06
-4.43144e-08
5.35508e-06
-4.91127e-08
5.34161e-06
-5.20519e-08
5.32688e-06
-5.31636e-08
5.31147e-06
-5.25332e-08
5.29599e-06
-5.02968e-08
5.281e-06
-4.66056e-08
5.26701e-06
-4.1604e-08
5.25446e-06
-3.54505e-08
5.24366e-06
-2.8334e-08
5.23491e-06
-2.04486e-08
5.22839e-06
-1.1996e-08
5.22422e-06
-3.21274e-09
5.22243e-06
5.60493e-09
5.22299e-06
1.41114e-08
5.22588e-06
2.19387e-08
5.23096e-06
2.87956e-08
5.23802e-06
3.44121e-08
5.24683e-06
3.85908e-08
5.25708e-06
4.12119e-08
5.26848e-06
4.2218e-08
5.2807e-06
4.16129e-08
5.2934e-06
3.9461e-08
5.30617e-06
3.59066e-08
5.31854e-06
3.11509e-08
5.33002e-06
2.54296e-08
5.34019e-06
1.89799e-08
5.3487e-06
1.2055e-08
5.35532e-06
4.8996e-09
5.3599e-06
-2.2486e-09
5.36239e-06
-9.14955e-09
5.36278e-06
-1.55322e-08
5.36104e-06
-2.11307e-08
5.35729e-06
-2.57852e-08
5.3517e-06
-2.93469e-08
5.34455e-06
-3.17508e-08
5.33616e-06
-3.29884e-08
5.3269e-06
-3.30858e-08
5.31712e-06
-3.21006e-08
5.3072e-06
-3.01276e-08
5.29751e-06
-2.72797e-08
5.28841e-06
-2.36708e-08
5.2802e-06
-1.94143e-08
5.2731e-06
-1.46444e-08
5.2673e-06
-9.49952e-09
5.26292e-06
-4.11686e-09
5.26003e-06
1.35081e-09
5.25864e-06
6.73132e-09
5.25875e-06
1.18178e-08
5.26033e-06
1.64003e-08
5.26331e-06
2.03252e-08
5.26758e-06
2.3446e-08
5.27296e-06
2.56648e-08
5.27928e-06
2.69341e-08
5.28634e-06
2.72415e-08
5.29392e-06
2.66077e-08
5.30179e-06
2.50922e-08
5.30967e-06
2.27919e-08
5.31726e-06
1.98205e-08
5.32428e-06
1.63111e-08
5.3305e-06
1.23827e-08
5.3357e-06
8.14469e-09
5.33979e-06
3.87615e-09
5.34269e-06
-7.45874e-10
5.34455e-06
-4.64983e-09
-1.02119e-08
4.75306e-06
-4.49799e-08
4.74022e-06
-3.01568e-08
4.73253e-06
-1.40563e-08
4.73025e-06
2.76552e-09
4.73353e-06
1.95212e-08
4.74232e-06
3.53722e-08
4.75633e-06
4.96156e-08
4.77509e-06
6.16357e-08
4.7979e-06
7.09073e-08
4.82398e-06
7.70452e-08
4.85247e-06
7.98325e-08
4.88242e-06
7.92478e-08
4.91273e-06
7.55067e-08
4.94214e-06
6.89934e-08
4.96941e-06
6.01602e-08
4.99347e-06
4.95065e-08
5.01345e-06
3.75756e-08
5.02874e-06
2.48616e-08
5.03897e-06
1.17917e-08
5.04401e-06
-1.19955e-09
5.0438e-06
-1.35946e-08
5.0384e-06
-2.48743e-08
5.02818e-06
-3.46567e-08
5.01374e-06
-4.27522e-08
4.9959e-06
-4.90664e-08
4.97554e-06
-5.35628e-08
4.95351e-06
-5.62356e-08
4.93063e-06
-5.71049e-08
4.90767e-06
-5.62378e-08
4.88533e-06
-5.37227e-08
4.86419e-06
-4.9637e-08
4.84477e-06
-4.40729e-08
4.82753e-06
-3.7156e-08
4.81289e-06
-2.9051e-08
4.8012e-06
-1.99482e-08
4.79275e-06
-1.00544e-08
4.78773e-06
3.78591e-10
4.78627e-06
1.10201e-08
4.78843e-06
2.13905e-08
4.79418e-06
3.10009e-08
4.8033e-06
3.9441e-08
4.81546e-06
4.6382e-08
4.83021e-06
5.15513e-08
4.84701e-06
5.47626e-08
4.86526e-06
5.59223e-08
4.88432e-06
5.50494e-08
4.90343e-06
5.22901e-08
4.92179e-06
4.78581e-08
4.93864e-06
4.19869e-08
4.95337e-06
3.49479e-08
4.96547e-06
2.70335e-08
4.97457e-06
1.85186e-08
4.98047e-06
9.69329e-09
4.98304e-06
8.62937e-10
4.98224e-06
-7.59851e-09
4.97816e-06
-1.53815e-08
4.97107e-06
-2.22183e-08
4.96135e-06
-2.79563e-08
4.94952e-06
-3.24896e-08
4.93617e-06
-3.57548e-08
4.92184e-06
-3.7724e-08
4.90708e-06
-3.84112e-08
4.89243e-06
-3.78765e-08
4.87832e-06
-3.61921e-08
4.86516e-06
-3.34383e-08
4.85327e-06
-2.97155e-08
4.84296e-06
-2.51415e-08
4.83448e-06
-1.98541e-08
4.82803e-06
-1.39979e-08
4.82375e-06
-7.72212e-09
4.82176e-06
-1.21772e-09
4.82211e-06
5.24969e-09
4.82484e-06
1.13831e-08
4.82986e-06
1.69176e-08
4.83701e-06
2.16527e-08
4.846e-06
2.54146e-08
4.85652e-06
2.8073e-08
4.86819e-06
2.95474e-08
4.88059e-06
2.98139e-08
4.89328e-06
2.89262e-08
4.90574e-06
2.69955e-08
4.9175e-06
2.41453e-08
4.92814e-06
2.05119e-08
4.93731e-06
1.62609e-08
4.94474e-06
1.15554e-08
4.95024e-06
6.55355e-09
4.95372e-06
1.41542e-09
4.95515e-06
-3.67274e-09
4.95449e-06
-8.49199e-09
4.95181e-06
-1.28534e-08
4.94727e-06
-1.65922e-08
4.94111e-06
-1.96224e-08
4.93364e-06
-2.18804e-08
4.92522e-06
-2.33327e-08
4.9162e-06
-2.39686e-08
4.90692e-06
-2.3806e-08
4.89772e-06
-2.28976e-08
4.8889e-06
-2.13051e-08
4.88071e-06
-1.90915e-08
4.87337e-06
-1.63349e-08
4.86708e-06
-1.31218e-08
4.86199e-06
-9.54859e-09
4.8582e-06
-5.71483e-09
4.85581e-06
-1.72179e-09
4.85485e-06
2.30883e-09
4.85536e-06
6.22287e-09
4.85732e-06
9.85016e-09
4.86068e-06
1.3044e-08
4.8653e-06
1.57045e-08
4.871e-06
1.7748e-08
4.87755e-06
1.9117e-08
4.8847e-06
1.97827e-08
4.89219e-06
1.97519e-08
4.89972e-06
1.90719e-08
4.90701e-06
1.7805e-08
4.91379e-06
1.60155e-08
4.91983e-06
1.37787e-08
4.92496e-06
1.11835e-08
4.92903e-06
8.30823e-09
4.93196e-06
5.21799e-09
4.93371e-06
2.12656e-09
4.93422e-06
-1.25937e-09
4.9335e-06
-3.93273e-09
-7.90313e-09
4.35885e-06
-3.18154e-08
4.34984e-06
-2.1145e-08
4.34538e-06
-9.59621e-09
4.34575e-06
2.38706e-09
4.35112e-06
1.41539e-08
4.36134e-06
2.51492e-08
4.37604e-06
3.49149e-08
4.39465e-06
4.30315e-08
4.4164e-06
4.91572e-08
4.44038e-06
5.30626e-08
4.46555e-06
5.46611e-08
4.49077e-06
5.40307e-08
4.51492e-06
5.13541e-08
4.53706e-06
4.68595e-08
4.55637e-06
4.0842e-08
4.57225e-06
3.36312e-08
4.58427e-06
2.55538e-08
4.59221e-06
1.69203e-08
4.59599e-06
8.01344e-09
4.59562e-06
-8.30438e-10
4.59123e-06
-9.20721e-09
4.58315e-06
-1.67912e-08
4.57191e-06
-2.34151e-08
4.55811e-06
-2.89565e-08
4.54237e-06
-3.33248e-08
4.52527e-06
-3.64599e-08
4.50737e-06
-3.83343e-08
4.48921e-06
-3.89493e-08
4.4713e-06
-3.83277e-08
4.45409e-06
-3.65056e-08
4.43798e-06
-3.35316e-08
4.42338e-06
-2.94768e-08
4.41067e-06
-2.44384e-08
4.40016e-06
-1.8541e-08
4.39214e-06
-1.19332e-08
4.38687e-06
-4.7826e-09
4.38454e-06
2.712e-09
4.38527e-06
1.02871e-08
4.3891e-06
1.75619e-08
4.39588e-06
2.42178e-08
4.40531e-06
3.00092e-08
4.41698e-06
3.47177e-08
4.43036e-06
3.81686e-08
4.44487e-06
4.02498e-08
4.45987e-06
4.09256e-08
4.47468e-06
4.02369e-08
4.4887e-06
3.82746e-08
4.50139e-06
3.51604e-08
4.51234e-06
3.10449e-08
4.52118e-06
2.61015e-08
4.5277e-06
2.05178e-08
4.53173e-06
1.44846e-08
4.53322e-06
8.20309e-09
4.53218e-06
1.90834e-09
4.5287e-06
-4.12195e-09
4.52302e-06
-9.69875e-09
4.51547e-06
-1.4669e-08
4.50643e-06
-1.89129e-08
4.49627e-06
-2.23351e-08
4.48539e-06
-2.48693e-08
4.47414e-06
-2.64831e-08
4.46291e-06
-2.71719e-08
4.45199e-06
-2.69582e-08
4.44168e-06
-2.5885e-08
4.43225e-06
-2.40109e-08
4.42395e-06
-2.14115e-08
4.41698e-06
-1.81782e-08
4.41155e-06
-1.44168e-08
4.40779e-06
-1.02393e-08
4.40583e-06
-5.76278e-09
4.40575e-06
-1.13906e-09
4.40759e-06
3.41482e-09
4.41128e-06
7.68538e-09
4.41668e-06
1.15216e-08
4.42354e-06
1.479e-08
4.43158e-06
1.73759e-08
4.44046e-06
1.91949e-08
4.44981e-06
2.02011e-08
4.45923e-06
2.03931e-08
4.46835e-06
1.98066e-08
4.47684e-06
1.84997e-08
4.48444e-06
1.65503e-08
4.4909e-06
1.40492e-08
4.49606e-06
1.11016e-08
4.4998e-06
7.81833e-09
4.50204e-06
4.3084e-09
4.50276e-06
6.93601e-10
4.50197e-06
-2.87576e-09
4.4997e-06
-6.23032e-09
4.49611e-06
-9.25766e-09
4.49139e-06
-1.18698e-08
4.48576e-06
-1.39998e-08
4.47948e-06
-1.55947e-08
4.47277e-06
-1.66215e-08
4.46587e-06
-1.707e-08
4.45901e-06
-1.69502e-08
4.4524e-06
-1.629e-08
4.44623e-06
-1.51272e-08
4.44064e-06
-1.35083e-08
4.4358e-06
-1.14906e-08
4.43182e-06
-9.14023e-09
4.4288e-06
-6.52975e-09
4.42682e-06
-3.73564e-09
4.42594e-06
-8.37576e-10
4.42617e-06
2.07346e-09
4.42751e-06
4.87943e-09
4.42991e-06
7.45687e-09
4.43323e-06
9.72356e-09
4.43732e-06
1.16135e-08
4.442e-06
1.30713e-08
4.44705e-06
1.40588e-08
4.45227e-06
1.45611e-08
4.45744e-06
1.45837e-08
4.46237e-06
1.4149e-08
4.46688e-06
1.3292e-08
4.47084e-06
1.20539e-08
4.47414e-06
1.04839e-08
4.47668e-06
8.64081e-09
4.4784e-06
6.58476e-09
4.47926e-06
4.36215e-09
4.47925e-06
2.135e-09
4.47831e-06
-3.23556e-10
4.4766e-06
-2.22162e-09
-5.21963e-09
3.91996e-06
-2.3048e-08
3.91429e-06
-1.54692e-08
3.91199e-06
-7.30235e-09
3.91326e-06
1.12338e-09
3.91806e-06
9.35037e-09
3.92618e-06
1.7029e-08
3.93723e-06
2.38659e-08
3.95067e-06
2.95879e-08
3.96585e-06
3.39744e-08
3.98203e-06
3.68824e-08
3.99844e-06
3.82537e-08
4.01437e-06
3.81046e-08
4.0292e-06
3.65208e-08
4.04242e-06
3.36437e-08
4.0536e-06
2.96591e-08
4.06245e-06
2.4782e-08
4.06876e-06
1.92406e-08
4.07243e-06
1.3256e-08
4.0734e-06
7.03703e-09
4.07173e-06
8.42467e-10
4.06756e-06
-5.03517e-09
4.06118e-06
-1.04093e-08
4.05291e-06
-1.51467e-08
4.04309e-06
-1.91365e-08
4.03206e-06
-2.22981e-08
4.02018e-06
-2.45792e-08
4.0078e-06
-2.59532e-08
3.99527e-06
-2.64148e-08
3.98291e-06
-2.5971e-08
3.97105e-06
-2.46422e-08
3.95998e-06
-2.2466e-08
3.95e-06
-1.94983e-08
3.94138e-06
-1.5813e-08
3.93434e-06
-1.15034e-08
3.92909e-06
-6.68634e-09
3.92581e-06
-1.50092e-09
3.92462e-06
3.9017e-09
3.92558e-06
9.32493e-09
3.92863e-06
1.45092e-08
3.9336e-06
1.92577e-08
3.9402e-06
2.34058e-08
3.94811e-06
2.68017e-08
3.95696e-06
2.93245e-08
3.96631e-06
3.08951e-08
3.97576e-06
3.14778e-08
3.98492e-06
3.10763e-08
3.99346e-06
2.97358e-08
4.00109e-06
2.75346e-08
4.00756e-06
2.45754e-08
4.01267e-06
2.09823e-08
4.0163e-06
1.68934e-08
4.01833e-06
1.24517e-08
4.01873e-06
7.80606e-09
4.01751e-06
3.12611e-09
4.01478e-06
-1.39274e-09
4.0107e-06
-5.61411e-09
4.00544e-06
-9.41399e-09
3.99922e-06
-1.26931e-08
3.99226e-06
-1.53759e-08
3.9848e-06
-1.74103e-08
3.97709e-06
-1.87689e-08
3.96936e-06
-1.94396e-08
3.96183e-06
-1.943e-08
3.95472e-06
-1.87709e-08
3.94821e-06
-1.75081e-08
3.9425e-06
-1.56982e-08
3.93773e-06
-1.3411e-08
3.93404e-06
-1.07276e-08
3.93154e-06
-7.73438e-09
3.9303e-06
-4.52473e-09
3.93037e-06
-1.20972e-09
3.93173e-06
2.05538e-09
3.93429e-06
5.12261e-09
3.93792e-06
7.89028e-09
3.94245e-06
1.0264e-08
3.94766e-06
1.2163e-08
3.95333e-06
1.35275e-08
3.95921e-06
1.43242e-08
3.96506e-06
1.45422e-08
3.97067e-06
1.41953e-08
3.97585e-06
1.33201e-08
3.98043e-06
1.19692e-08
3.98427e-06
1.02083e-08
3.98726e-06
8.11293e-09
3.98931e-06
5.76536e-09
3.99038e-06
3.24319e-09
3.99043e-06
6.41773e-10
3.98947e-06
-1.91888e-09
3.98757e-06
-4.32941e-09
3.98483e-06
-6.51558e-09
3.98137e-06
-8.40963e-09
3.97733e-06
-9.95673e-09
3.97285e-06
-1.11168e-08
3.96809e-06
-1.18654e-08
3.96322e-06
-1.21936e-08
3.95837e-06
-1.21051e-08
3.9537e-06
-1.16156e-08
3.94932e-06
-1.07515e-08
3.94536e-06
-9.54721e-09
3.94192e-06
-8.04529e-09
3.93907e-06
-6.29581e-09
3.93689e-06
-4.3523e-09
3.93543e-06
-2.27419e-09
3.93472e-06
-1.24896e-10
3.93476e-06
2.02952e-09
3.93553e-06
4.10771e-09
3.93697e-06
6.02156e-09
3.93898e-06
7.71148e-09
3.94147e-06
9.13022e-09
3.9443e-06
1.0238e-08
3.94735e-06
1.1007e-08
3.95049e-06
1.14234e-08
3.95359e-06
1.1484e-08
3.95654e-06
1.11997e-08
3.95924e-06
1.05942e-08
3.96159e-06
9.69753e-09
3.96353e-06
8.54676e-09
3.96498e-06
7.18495e-09
3.96591e-06
5.66135e-09
3.96626e-06
4.00769e-09
3.96606e-06
2.34169e-09
3.96523e-06
4.98841e-10
3.96398e-06
-9.67418e-10
-3.26813e-09
3.35688e-06
-1.66316e-08
3.35259e-06
-1.11799e-08
3.35061e-06
-5.31704e-09
3.35101e-06
7.19735e-10
3.35373e-06
6.62695e-09
3.3586e-06
1.2159e-08
3.36536e-06
1.71144e-08
3.37364e-06
2.13002e-08
3.38306e-06
2.45593e-08
3.39315e-06
2.67855e-08
3.40348e-06
2.7926e-08
3.41361e-06
2.79742e-08
3.42315e-06
2.69794e-08
3.43176e-06
2.50387e-08
3.43914e-06
2.22805e-08
3.44506e-06
1.88592e-08
3.44936e-06
1.49395e-08
3.45193e-06
1.06883e-08
3.45271e-06
6.26035e-09
3.45171e-06
1.83898e-09
3.44904e-06
-2.36861e-09
3.44487e-06
-6.23567e-09
3.43938e-06
-9.65395e-09
3.43278e-06
-1.25396e-08
3.42531e-06
-1.48293e-08
3.41721e-06
-1.64793e-08
3.40872e-06
-1.74659e-08
3.40009e-06
-1.7782e-08
3.39155e-06
-1.74318e-08
3.38334e-06
-1.64297e-08
3.37568e-06
-1.48035e-08
3.36878e-06
-1.25968e-08
3.36283e-06
-9.86537e-09
3.358e-06
-6.67689e-09
3.35443e-06
-3.11802e-09
3.35225e-06
6.8047e-10
3.35152e-06
4.62955e-09
3.35228e-06
8.56521e-09
3.35447e-06
1.23254e-08
3.35795e-06
1.57745e-08
3.36257e-06
1.87896e-08
3.36811e-06
2.12594e-08
3.37434e-06
2.30943e-08
3.381e-06
2.42338e-08
3.38783e-06
2.46485e-08
3.39457e-06
2.4338e-08
3.40097e-06
2.33312e-08
3.40682e-06
2.16829e-08
3.41193e-06
1.94683e-08
3.41613e-06
1.67796e-08
3.41931e-06
1.37206e-08
3.42136e-06
1.04009e-08
3.42223e-06
6.93061e-09
3.42194e-06
3.41585e-09
3.42053e-06
2.3995e-11
3.41808e-06
-3.16929e-09
3.41472e-06
-6.05133e-09
3.41058e-06
-8.55518e-09
3.40583e-06
-1.06241e-08
3.40064e-06
-1.22172e-08
3.39518e-06
-1.33112e-08
3.38964e-06
-1.38962e-08
3.38418e-06
-1.39737e-08
3.37897e-06
-1.35644e-08
3.37417e-06
-1.27027e-08
3.3699e-06
-1.14313e-08
3.36629e-06
-9.80358e-09
3.36344e-06
-7.87937e-09
3.36143e-06
-5.7247e-09
3.36032e-06
-3.41123e-09
3.36013e-06
-1.01833e-09
3.36085e-06
1.34017e-09
3.3624e-06
3.56456e-09
3.36471e-06
5.57948e-09
3.36766e-06
7.31677e-09
3.37111e-06
8.71739e-09
3.3749e-06
9.73745e-09
3.37887e-06
1.03509e-08
3.38286e-06
1.05478e-08
3.38672e-06
1.0335e-08
3.39031e-06
9.73651e-09
3.39349e-06
8.78968e-09
3.39616e-06
7.54128e-09
3.39822e-06
6.04965e-09
3.39961e-06
4.36992e-09
3.40029e-06
2.563e-09
3.40024e-06
6.96195e-10
3.39945e-06
-1.13075e-09
3.39798e-06
-2.85729e-09
3.39589e-06
-4.42531e-09
3.39326e-06
-5.78489e-09
3.3902e-06
-6.89528e-09
3.38681e-06
-7.72605e-09
3.3832e-06
-8.25793e-09
3.37949e-06
-8.48283e-09
3.37579e-06
-8.40307e-09
3.37221e-06
-8.02913e-09
3.36883e-06
-7.37843e-09
3.36576e-06
-6.47657e-09
3.36307e-06
-5.35571e-09
3.36083e-06
-4.05226e-09
3.35908e-06
-2.60545e-09
3.35787e-06
-1.05911e-09
3.35721e-06
5.35301e-10
3.35711e-06
2.12968e-09
3.35755e-06
3.66069e-09
3.3585e-06
5.07167e-09
3.3599e-06
6.31951e-09
3.36166e-06
7.36877e-09
3.3637e-06
8.18949e-09
3.36595e-06
8.76038e-09
3.36831e-06
9.06995e-09
3.37067e-06
9.11575e-09
3.37297e-06
8.90489e-09
3.37511e-06
8.45337e-09
3.37702e-06
7.78316e-09
3.37865e-06
6.92148e-09
3.37993e-06
5.89948e-09
3.38084e-06
4.75774e-09
3.38133e-06
3.519e-09
3.3814e-06
2.26732e-09
3.381e-06
9.00746e-10
3.38028e-06
-2.48318e-10
-1.96203e-09
2.66249e-06
-1.17029e-08
2.65917e-06
-7.85995e-09
2.65758e-06
-3.72666e-09
2.65779e-06
5.10604e-10
2.65975e-06
4.67178e-09
2.66332e-06
8.58463e-09
2.66833e-06
1.21034e-08
2.67454e-06
1.50901e-08
2.68167e-06
1.7434e-08
2.6894e-06
1.90578e-08
2.6974e-06
1.99244e-08
2.70535e-06
2.00267e-08
2.71293e-06
1.93928e-08
2.71989e-06
1.80855e-08
2.72597e-06
1.61923e-08
2.731e-06
1.38312e-08
2.73483e-06
1.11072e-08
2.73738e-06
8.14392e-09
2.7386e-06
5.04253e-09
2.73847e-06
1.96254e-09
2.73708e-06
-9.76387e-10
2.73454e-06
-3.69789e-09
2.73099e-06
-6.10576e-09
2.7266e-06
-8.1422e-09
2.72153e-06
-9.75976e-09
2.71597e-06
-1.09251e-08
2.71013e-06
-1.1619e-08
2.70418e-06
-1.18347e-08
2.69832e-06
-1.15745e-08
2.69274e-06
-1.08486e-08
2.68762e-06
-9.6777e-09
2.68311e-06
-8.09449e-09
2.67939e-06
-6.13895e-09
2.67656e-06
-3.85115e-09
2.67472e-06
-1.2748e-09
2.67402e-06
1.37419e-09
2.67448e-06
4.17099e-09
2.67611e-06
6.94245e-09
2.67884e-06
9.59237e-09
2.68259e-06
1.20208e-08
2.68724e-06
1.41386e-08
2.69263e-06
1.58678e-08
2.69858e-06
1.71464e-08
2.70488e-06
1.79322e-08
2.71133e-06
1.82042e-08
2.7177e-06
1.79628e-08
2.72381e-06
1.72271e-08
2.72946e-06
1.60338e-08
2.73449e-06
1.44364e-08
2.73877e-06
1.25002e-08
2.74219e-06
1.02992e-08
2.74468e-06
7.91323e-09
2.74618e-06
5.42359e-09
2.74669e-06
2.90845e-09
2.74626e-06
4.59737e-10
2.74493e-06
-1.84386e-09
2.74281e-06
-3.92723e-09
2.74e-06
-5.74494e-09
2.73663e-06
-7.25653e-09
2.73284e-06
-8.43128e-09
2.72878e-06
-9.25073e-09
2.72459e-06
-9.70832e-09
2.72042e-06
-9.80309e-09
2.71641e-06
-9.54824e-09
2.71267e-06
-8.96684e-09
2.70933e-06
-8.0895e-09
2.70648e-06
-6.95849e-09
2.70422e-06
-5.61211e-09
2.70259e-06
-4.1012e-09
2.70166e-06
-2.47704e-09
2.70143e-06
-7.87299e-10
2.70191e-06
8.63175e-10
2.70303e-06
2.43545e-09
2.70475e-06
3.86506e-09
2.70696e-06
5.10344e-09
2.70957e-06
6.1089e-09
2.71246e-06
6.84997e-09
2.7155e-06
7.30756e-09
2.71858e-06
7.47403e-09
2.72156e-06
7.3523e-09
2.72434e-06
6.95774e-09
2.72681e-06
6.31641e-09
2.72889e-06
5.46241e-09
2.73051e-06
4.43252e-09
2.73161e-06
3.27069e-09
2.73215e-06
2.01959e-09
2.73213e-06
7.12788e-10
2.73154e-06
-5.37782e-10
2.73042e-06
-1.74113e-09
2.72883e-06
-2.83431e-09
2.72683e-06
-3.78364e-09
2.7245e-06
-4.55975e-09
2.72191e-06
-5.1408e-09
2.71916e-06
-5.51285e-09
2.71635e-06
-5.66959e-09
2.71356e-06
-5.61184e-09
2.71088e-06
-5.34606e-09
2.70838e-06
-4.88404e-09
2.70615e-06
-4.244e-09
2.70424e-06
-3.44884e-09
2.70272e-06
-2.52425e-09
2.70161e-06
-1.49625e-09
2.70094e-06
-3.95143e-10
2.70075e-06
7.28215e-10
2.70103e-06
1.85008e-09
2.70176e-06
2.9248e-09
2.70292e-06
3.91727e-09
2.70444e-06
4.79592e-09
2.70628e-06
5.53403e-09
2.70836e-06
6.11004e-09
2.71061e-06
6.5088e-09
2.71296e-06
6.72198e-09
2.71532e-06
6.74815e-09
2.71764e-06
6.59222e-09
2.71983e-06
6.26463e-09
2.72183e-06
5.78011e-09
2.72359e-06
5.1586e-09
2.72507e-06
4.42201e-09
2.72623e-06
3.59918e-09
2.72704e-06
2.70855e-09
2.7275e-06
1.80353e-09
2.72755e-06
8.47769e-10
2.72733e-06
-2.10785e-11
-1.18168e-09
1.90228e-06
-7.76258e-09
1.89971e-06
-5.29392e-09
1.89861e-06
-2.62657e-09
1.89904e-06
8.13119e-11
1.90097e-06
2.74043e-09
1.90429e-06
5.26476e-09
1.90886e-06
7.54284e-09
1.91446e-06
9.48285e-09
1.92088e-06
1.10139e-08
1.92785e-06
1.20856e-08
1.93511e-06
1.26716e-08
1.94236e-06
1.27698e-08
1.94936e-06
1.23937e-08
1.95587e-06
1.15817e-08
1.96167e-06
1.03851e-08
1.96662e-06
8.88598e-09
1.97058e-06
7.14758e-09
1.97347e-06
5.25014e-09
1.97527e-06
3.24259e-09
1.97597e-06
1.26611e-09
1.9756e-06
-6.04996e-10
1.97427e-06
-2.3699e-09
1.9721e-06
-3.93613e-09
1.96923e-06
-5.26715e-09
1.9658e-06
-6.33051e-09
1.96197e-06
-7.10319e-09
1.95793e-06
-7.5711e-09
1.95382e-06
-7.72817e-09
1.94982e-06
-7.57452e-09
1.94609e-06
-7.11653e-09
1.94278e-06
-6.3681e-09
1.94003e-06
-5.34937e-09
1.93798e-06
-4.08419e-09
1.93673e-06
-2.60447e-09
1.9364e-06
-9.40952e-10
1.937e-06
7.725e-10
1.93862e-06
2.55579e-09
1.94122e-06
4.34228e-09
1.94475e-06
6.0549e-09
1.94915e-06
7.62666e-09
1.95429e-06
8.99965e-09
1.96003e-06
1.01245e-08
1.96621e-06
1.09621e-08
1.97266e-06
1.14859e-08
1.97918e-06
1.16823e-08
1.9856e-06
1.15497e-08
1.99172e-06
1.10982e-08
1.99741e-06
1.03509e-08
2.0025e-06
9.34146e-09
2.00689e-06
8.11161e-09
2.01048e-06
6.70888e-09
2.01321e-06
5.18411e-09
2.01504e-06
3.59055e-09
2.01597e-06
1.97936e-09
2.01603e-06
4.00658e-10
2.01526e-06
-1.0704e-09
2.01375e-06
-2.41545e-09
2.0116e-06
-3.59499e-09
2.00892e-06
-4.58097e-09
2.00584e-06
-5.3526e-09
2.00249e-06
-5.8967e-09
1.99899e-06
-6.2084e-09
1.99547e-06
-6.2867e-09
1.99206e-06
-6.13938e-09
1.98887e-06
-5.77905e-09
1.98601e-06
-5.22538e-09
1.98356e-06
-4.50811e-09
1.9816e-06
-3.64914e-09
1.98018e-06
-2.68361e-09
1.97935e-06
-1.64344e-09
1.9791e-06
-5.46015e-10
1.97948e-06
4.91602e-10
1.98041e-06
1.50513e-09
1.98184e-06
2.42941e-09
1.98371e-06
3.23316e-09
1.98593e-06
3.88887e-09
1.98841e-06
4.37624e-09
1.99103e-06
4.68295e-09
1.9937e-06
4.80354e-09
1.99632e-06
4.73827e-09
1.99878e-06
4.49667e-09
2.001e-06
4.09723e-09
2.0029e-06
3.5571e-09
2.00443e-06
2.90224e-09
2.00554e-06
2.16036e-09
2.00621e-06
1.35133e-09
2.0064e-06
5.23403e-10
2.00614e-06
-2.78473e-10
2.00545e-06
-1.05248e-09
2.00438e-06
-1.76045e-09
2.00297e-06
-2.37864e-09
2.0013e-06
-2.88763e-09
1.99943e-06
-3.27286e-09
1.99744e-06
-3.52491e-09
1.99541e-06
-3.63935e-09
1.99342e-06
-3.61571e-09
1.99153e-06
-3.45731e-09
1.98982e-06
-3.17153e-09
1.98834e-06
-2.76985e-09
1.98716e-06
-2.26683e-09
1.98632e-06
-1.67913e-09
1.98584e-06
-1.02286e-09
1.98576e-06
-3.14573e-10
1.98609e-06
3.97698e-10
1.98683e-06
1.11038e-09
1.98796e-06
1.79877e-09
1.98944e-06
2.43732e-09
1.99123e-06
3.0047e-09
1.99328e-06
3.48339e-09
1.99553e-06
3.8594e-09
1.99792e-06
4.12276e-09
2.00037e-06
4.26791e-09
2.00283e-06
4.29367e-09
2.00521e-06
4.20252e-09
2.00748e-06
4.00052e-09
2.00956e-06
3.69743e-09
2.01141e-06
3.30568e-09
2.013e-06
2.83855e-09
2.01428e-06
2.31416e-09
2.01525e-06
1.74393e-09
2.01589e-06
1.16445e-09
2.01616e-06
5.69754e-10
2.01615e-06
-6.46526e-12
-6.53021e-10
1.1325e-06
-4.12574e-09
1.13014e-06
-2.93293e-09
1.12915e-06
-1.63722e-09
1.12956e-06
-3.21689e-10
1.13139e-06
9.05701e-10
1.1345e-06
2.15661e-09
1.13875e-06
3.28874e-09
1.14398e-06
4.25787e-09
1.14996e-06
5.02973e-09
1.15647e-06
5.58211e-09
1.16324e-06
5.89946e-09
1.17003e-06
5.97708e-09
1.1766e-06
5.82441e-09
1.18272e-06
5.45646e-09
1.18821e-06
4.89806e-09
1.19292e-06
4.1809e-09
1.19673e-06
3.33654e-09
1.19956e-06
2.41672e-09
1.20137e-06
1.43107e-09
1.20222e-06
4.23897e-10
1.20205e-06
-4.43743e-10
1.20102e-06
-1.33987e-09
1.19923e-06
-2.14113e-09
1.19679e-06
-2.82995e-09
1.19385e-06
-3.39034e-09
1.19056e-06
-3.81005e-09
1.18707e-06
-4.08088e-09
1.18354e-06
-4.19875e-09
1.18013e-06
-4.16189e-09
1.17698e-06
-3.97263e-09
1.17425e-06
-3.63747e-09
1.17207e-06
-3.16449e-09
1.17055e-06
-2.56309e-09
1.16979e-06
-1.84703e-09
1.16988e-06
-1.03228e-09
1.17082e-06
-1.70528e-10
1.17274e-06
6.33538e-10
1.17556e-06
1.52921e-09
1.17922e-06
2.39439e-09
1.18365e-06
3.19425e-09
1.18875e-06
3.90126e-09
1.19438e-06
4.49169e-09
1.2004e-06
4.94601e-09
1.20663e-06
5.25049e-09
1.21292e-06
5.39845e-09
1.21908e-06
5.38732e-09
1.22496e-06
5.2204e-09
1.2304e-06
4.9076e-09
1.23528e-06
4.46378e-09
1.23948e-06
3.90837e-09
1.24293e-06
3.26331e-09
1.24556e-06
2.55196e-09
1.24735e-06
1.79947e-09
1.2483e-06
1.02905e-09
1.24845e-06
2.54693e-10
1.24778e-06
-4.01552e-10
1.24643e-06
-1.0637e-09
1.24448e-06
-1.64864e-09
1.24204e-06
-2.14162e-09
1.23922e-06
-2.53266e-09
1.23614e-06
-2.81679e-09
1.23292e-06
-2.98855e-09
1.22968e-06
-3.04802e-09
1.22654e-06
-2.99697e-09
1.2236e-06
-2.84131e-09
1.22097e-06
-2.59303e-09
1.21872e-06
-2.25903e-09
1.21692e-06
-1.85316e-09
1.21563e-06
-1.39141e-09
1.21488e-06
-8.86056e-10
1.21468e-06
-3.52091e-10
1.21505e-06
1.24891e-10
1.21593e-06
6.19948e-10
1.21728e-06
1.07807e-09
1.21904e-06
1.4793e-09
1.22112e-06
1.80943e-09
1.22344e-06
2.0585e-09
1.2259e-06
2.22023e-09
1.22841e-06
2.29187e-09
1.23087e-06
2.2736e-09
1.2332e-06
2.16813e-09
1.23532e-06
1.9828e-09
1.23715e-06
1.72766e-09
1.23864e-06
1.41235e-09
1.23975e-06
1.0515e-09
1.24044e-06
6.55679e-10
1.24073e-06
2.33586e-10
1.24059e-06
-1.34146e-10
1.24006e-06
-5.2384e-10
1.23918e-06
-8.84722e-10
1.23801e-06
-1.20355e-09
1.23659e-06
-1.47053e-09
1.235e-06
-1.67824e-09
1.23329e-06
-1.8217e-09
1.23155e-06
-1.8986e-09
1.22984e-06
-1.90781e-09
1.22824e-06
-1.8498e-09
1.22679e-06
-1.72789e-09
1.22557e-06
-1.54731e-09
1.22462e-06
-1.31467e-09
1.22398e-06
-1.03732e-09
1.22368e-06
-7.22322e-10
1.22373e-06
-3.73372e-10
1.22417e-06
-3.43215e-11
1.22498e-06
2.98298e-10
1.22614e-06
6.41559e-10
1.22761e-06
9.63543e-10
1.22936e-06
1.25259e-09
1.23134e-06
1.50042e-09
1.2335e-06
1.70013e-09
1.23578e-06
1.84646e-09
1.23811e-06
1.93634e-09
1.24044e-06
1.96865e-09
1.2427e-06
1.9438e-09
1.24483e-06
1.86403e-09
1.2468e-06
1.73373e-09
1.24854e-06
1.55968e-09
1.25003e-06
1.34681e-09
1.25124e-06
1.10274e-09
1.25215e-06
8.34743e-10
1.25276e-06
5.59338e-10
1.25305e-06
2.74716e-10
1.25304e-06
1.04143e-11
-2.4106e-10
3.66764e-07
3.63831e-07
3.62194e-07
3.61873e-07
3.62778e-07
3.64935e-07
3.68224e-07
3.72481e-07
3.77511e-07
3.83093e-07
3.88993e-07
3.9497e-07
4.00794e-07
4.06251e-07
4.11149e-07
4.1533e-07
4.18666e-07
4.21083e-07
4.22514e-07
4.22938e-07
4.22494e-07
4.21154e-07
4.19013e-07
4.16183e-07
4.12793e-07
4.08983e-07
4.04902e-07
4.00703e-07
3.96541e-07
3.92569e-07
3.88931e-07
3.85767e-07
3.83204e-07
3.81357e-07
3.80324e-07
3.80154e-07
3.80787e-07
3.82317e-07
3.84711e-07
3.87905e-07
3.91806e-07
3.96298e-07
4.01244e-07
4.06495e-07
4.11893e-07
4.1728e-07
4.22501e-07
4.27408e-07
4.31872e-07
4.35781e-07
4.39044e-07
4.41596e-07
4.43395e-07
4.44424e-07
4.44679e-07