/*--------------------------------*- C++ -*----------------------------------*\
| =========                 |                                                 |
| \\      /  F ield         | OpenFOAM: The Open Source CFD Toolbox           |
|  \\    /   O peration     | Version:  2206                                  |
|   \\  /    A nd           | Website:  www.openfoam.com                      |
|    \\/     M anipulation  |                                                 |
\*---------------------------------------------------------------------------*/
FoamFile
{
    version     2.0;
    format      ascii;
    arch        "LSB;label=32;scalar=64";
    class       surfaceScalarField;
    location    "18.6999";
    object      ddtCorrDdt0(phi);
}
// * * * * * * * * * * * * * * * * * * * * * * * * * * * * * * * * * * * * * //

dimensions      [0 3 -2 0 0 0 0];

oriented        oriented;

internalField   nonuniform List<scalar> 
5953
(
-9.45111e-07
0.00065551
-0.000702314
4.50273e-05
0.000540248
-0.000586221
8.917e-05
0.000419814
-0.000463957
0.000132234
0.000299456
-0.000342519
0.000178074
0.000179598
-0.000225438
0.00022607
6.38482e-05
-0.000111844
0.000265693
-2.90397e-05
-1.05834e-05
0.000296215
-9.45266e-05
6.4005e-05
0.000316461
-0.000136021
0.000115775
0.000325607
-0.000161164
0.000152017
0.000323863
-0.000180559
0.000182303
0.000312664
-0.000204473
0.000215673
0.000294069
-0.000239045
0.000257639
0.000269706
-0.000284871
0.000309234
0.000240539
-0.000338926
0.000368093
0.000207009
-0.000396523
0.000430053
0.000169373
-0.000452726
0.000490362
0.000128053
-0.000502968
0.000544288
8.4039e-05
-0.000543123
0.000587137
3.86679e-05
-0.000568699
0.00061407
-5.37042e-06
-0.000574631
0.000618669
-4.66027e-05
-0.000563842
0.000605074
-8.36078e-05
-0.000538171
0.000575176
-0.000115196
-0.000498873
0.000530461
-0.000140588
-0.000448226
0.000473619
-0.000159557
-0.000389187
0.000408156
-0.000172493
-0.000324849
0.000337785
-0.000180433
-0.000257891
0.000265832
-0.000185201
-0.000189703
0.000194471
-0.000189267
-0.000119484
0.00012355
-0.000193179
-4.35698e-05
4.74818e-05
-0.000194618
3.74221e-05
-3.5984e-05
-0.000193861
0.000119851
-0.000120608
-0.000191688
0.000202393
-0.000204566
-0.000188439
0.000283608
-0.000286857
-0.000183998
0.000362361
-0.000366802
-0.000177976
0.000437216
-0.000443238
-0.000169839
0.000506006
-0.000514143
-0.000158782
0.000565245
-0.000576302
-0.000143178
0.000608801
-0.000624406
-0.000119809
0.000625095
-0.000648464
-9.18351e-05
0.000613544
-0.000641517
-6.00467e-05
0.000580869
-0.000612658
-2.55667e-05
0.000529412
-0.000563892
1.02526e-05
0.000463088
-0.000498907
4.59694e-05
0.000386702
-0.000422419
8.05521e-05
0.00030503
-0.000339613
0.000114315
0.000221474
-0.000255237
0.000149421
0.00013651
-0.000171616
0.000184209
5.32442e-05
-8.80327e-05
0.00021143
-1.75749e-05
-9.64603e-06
0.000230485
-7.36891e-05
5.46344e-05
0.000240697
-0.000116839
0.000106626
0.000242051
-0.0001507
0.000149345
0.000235606
-0.000180182
0.000186627
0.000223019
-0.000209628
0.000222214
0.000205812
-0.000241424
0.000258631
0.000184957
-0.000275784
0.000296639
0.00016097
-0.000311574
0.000335561
0.000134128
-0.000346868
0.00037371
0.000104714
-0.000379257
0.00040867
7.32146e-05
-0.000405991
0.000437491
4.04275e-05
-0.000423714
0.000456501
7.93172e-06
-0.000427709
0.000460205
-2.29652e-05
-0.00042015
0.000451046
-5.1262e-05
-0.000401607
0.000429904
-7.60503e-05
-0.000372786
0.000397574
-9.66558e-05
-0.000335106
0.000355712
-0.000112769
-0.000290542
0.000306656
-0.00012456
-0.000241262
0.000253053
-0.000132828
-0.000189157
0.000197425
-0.000139069
-0.000135237
0.000141479
-0.000145066
-7.83078e-05
8.43044e-05
-0.0001501
-1.61889e-05
2.12226e-05
-0.000152427
4.81103e-05
-4.5783e-05
-0.000152324
0.000112574
-0.000112677
-0.000150325
0.000175598
-0.000177597
-0.000146879
0.000235792
-0.000239239
-0.000142232
0.000292316
-0.000296963
-0.000136429
0.000344301
-0.000350104
-0.000129235
0.000390394
-0.000397588
-0.000119841
0.000427931
-0.000437325
-0.000106104
0.000451356
-0.000465093
-8.68844e-05
0.000453383
-0.000472603
-6.42347e-05
0.000439075
-0.000461725
-3.87183e-05
0.000410767
-0.000436284
-1.14402e-05
0.000370716
-0.000397994
1.64714e-05
0.000321575
-0.000349487
4.392e-05
0.000266682
-0.000294131
7.01278e-05
0.00020924
-0.000235448
9.57015e-05
0.00015061
-0.000176183
0.000121993
9.05458e-05
-0.000116837
0.000146483
3.25255e-05
-5.70163e-05
0.00016486
-1.7463e-05
-9.13906e-07
0.000176721
-5.91326e-05
4.72722e-05
0.000181725
-9.3583e-05
8.85785e-05
0.000180176
-0.000122861
0.00012441
0.000173066
-0.000149427
0.000156537
0.000161633
-0.000175276
0.00018671
0.000146901
-0.000201333
0.000216065
0.000129594
-0.000227548
0.000244854
0.000110164
-0.000253143
0.000272573
8.89135e-05
-0.000276878
0.000298129
6.61381e-05
-0.000297155
0.00031993
4.2275e-05
-0.000311933
0.000335796
1.81728e-05
-0.000317987
0.000342089
-5.06092e-06
-0.00031516
0.000338394
-2.67588e-05
-0.000304516
0.000326214
-4.62613e-05
-0.00028628
0.000305782
-6.30077e-05
-0.000261183
0.00027793
-7.66507e-05
-0.000230389
0.000244032
-8.71567e-05
-0.000195343
0.000205849
-9.48875e-05
-0.000157512
0.000165243
-0.000100705
-0.000117937
0.000123755
-0.000105977
-7.64648e-05
8.17372e-05
-0.000111093
-3.14329e-05
3.65486e-05
-0.000114329
1.6643e-05
-1.34067e-05
-0.000115548
6.5276e-05
-6.40574e-05
-0.000114908
0.000113402
-0.000114042
-0.000112757
0.000159676
-0.000161827
-0.000109419
0.000203157
-0.000206495
0.000243055
-0.000247409
2.31481e-05
0.000600671
7.57271e-05
0.000487669
0.00012588
0.000369661
0.000176568
0.000248768
0.000229923
0.000126242
0.000278113
1.56581e-05
0.000316599
-6.75252e-05
0.000344204
-0.000122132
0.000359961
-0.000151778
0.000363673
-0.000164875
0.000356617
-0.000173503
0.000340683
-0.000188539
0.000317575
-0.000215937
0.000289138
-0.000256434
0.000256408
-0.000306196
0.00021985
-0.000359965
0.000179695
-0.000412571
0.000136285
-0.000459558
9.02745e-05
-0.000497113
4.308e-05
-0.000521504
-2.99747e-06
-0.000528553
-4.6552e-05
-0.000520287
-8.62174e-05
-0.000498506
-0.000120844
-0.000464246
-0.000149681
-0.00041939
-0.000172498
-0.00036637
-0.000189642
-0.000307705
-0.000202156
-0.000245377
-0.000211675
-0.000180184
-0.000220021
-0.000111138
-0.000226956
-3.66348e-05
-0.000230857
4.13231e-05
-0.000232044
0.000121039
-0.000230863
0.000201211
-0.000227429
0.000280175
-0.000221623
0.000356555
-0.000213157
0.00042875
-0.000201574
0.000494424
-0.000185861
0.000549531
-0.000163495
0.000586435
-0.000132462
0.000594062
-9.67674e-05
0.000577849
-5.74177e-05
0.00054152
-1.59069e-05
0.000487901
2.62061e-05
0.000420975
6.74981e-05
0.00034541
0.000107462
0.000265066
0.00014774
0.000181196
0.000188531
9.57195e-05
0.000223321
1.8454e-05
0.000249232
-4.34853e-05
0.000265465
-8.99223e-05
0.000271782
-0.000123156
0.000268874
-0.000147791
0.000258248
-0.000169556
0.000241932
-0.000193312
0.00022162
-0.000221112
0.000198114
-0.000252277
0.000171791
-0.000285251
0.000142829
-0.000317906
0.000111444
-0.000347871
7.80431e-05
-0.000372591
4.33839e-05
-0.000389054
8.99832e-06
-0.000393323
-2.38931e-05
-0.000387258
-5.43317e-05
-0.000371169
-8.14534e-05
-0.000345664
-0.000104623
-0.000311936
-0.000123572
-0.000271593
-0.000138507
-0.000226327
-0.000150186
-0.000177478
-0.000159909
-0.000125515
-0.000168667
-6.955e-05
-0.000175305
-9.55025e-06
-0.000178954
5.17586e-05
-0.000179875
0.000113495
-0.000178341
0.000174063
-0.000174676
0.000232128
-0.000169125
0.000286765
-0.000161732
0.000336908
-0.000152119
0.000380782
-0.000139046
0.000414857
-0.000119602
0.000431912
-9.49361e-05
0.000428717
-6.61876e-05
0.000410327
-3.46124e-05
0.000379192
-2.08305e-06
0.000338187
3.01219e-05
0.00028937
6.13325e-05
0.000235471
9.17059e-05
0.000178867
0.000122661
0.000119655
0.000152456
6.07507e-05
0.000176223
8.75858e-06
0.000192897
-3.4137e-05
0.000202052
-6.8288e-05
0.000203813
-9.53434e-05
0.000198973
-0.000118022
0.000188768
-0.000139222
0.000174671
-0.000161179
0.000157679
-0.000184341
0.000138422
-0.000208291
0.000117228
-0.000231948
9.43187e-05
-0.000253969
6.99621e-05
-0.000272798
4.45735e-05
-0.000286544
1.89924e-05
-0.000292405
-5.76363e-06
-0.000290404
-2.9051e-05
-0.000281229
-5.02457e-05
-0.000265085
-6.88262e-05
-0.000242603
-8.44554e-05
-0.00021476
-9.71044e-05
-0.000182694
-0.000107177
-0.00014744
-0.000115511
-0.000109603
-0.000123045
-6.89308e-05
-0.000129514
-2.49633e-05
-0.000133696
2.08246e-05
-0.000135664
6.72444e-05
-0.000135538
0.000113275
-0.000133544
0.000157682
-0.000129905
0.000199518
0.000237807
4.79569e-05
0.000538739
0.000106803
0.000428823
0.00016392
0.000312544
0.000223138
0.00018955
0.000281302
6.8078e-05
0.00032922
-3.22602e-05
0.000365695
-0.000104
0.000389199
-0.000145636
0.000398704
-0.000161283
0.000395508
-0.000161679
0.000382751
-0.000160746
0.000362402
-0.000168191
0.000335413
-0.000188948
0.000303004
-0.000224024
0.000266764
-0.000269956
0.000227412
-0.000320613
0.000185116
-0.000370275
0.00014008
-0.000414522
9.28409e-05
-0.000449873
4.45327e-05
-0.000473196
-2.76365e-06
-0.000481257
-4.78229e-05
-0.000475228
-8.9393e-05
-0.000456936
-0.000126405
-0.000427234
-0.000158145
-0.00038765
-0.000184386
-0.000340129
-0.000205441
-0.00028665
-0.000222291
-0.000228527
-0.000236336
-0.000166139
-0.000248567
-9.89075e-05
-0.000258115
-2.70863e-05
-0.000264132
4.73401e-05
-0.000266896
0.000123803
-0.000266388
0.000200703
-0.000262581
0.000276367
-0.000255383
0.000349357
-0.000244602
0.000417969
-0.00022973
0.000479552
-0.000209283
0.000529084
-0.00017942
0.000556572
-0.000141344
0.000555986
-9.80933e-05
0.000534598
-5.14485e-05
0.000494875
-3.36863e-06
0.000439821
4.44871e-05
0.000373119
9.1128e-05
0.000298769
0.000137404
0.00021879
0.000184553
0.000134047
0.000227861
5.24112e-05
0.000261702
-1.53872e-05
0.000284851
-6.66344e-05
0.000296715
-0.000101786
0.000297621
-0.000124061
0.000289361
-0.000139532
0.000274581
-0.000154775
0.000255124
-0.000173854
0.000231986
-0.000197975
0.000206142
-0.000226433
0.000177864
-0.000256973
0.000147225
-0.000287267
0.000114383
-0.000315029
7.96642e-05
-0.000337872
4.3778e-05
-0.000353168
8.18044e-06
-0.000357726
-2.60571e-05
-0.000353021
-5.80374e-05
-0.000339188
-8.69646e-05
-0.000316737
-0.000112269
-0.000286632
-0.000133727
-0.000250135
-0.000151562
-0.000208492
-0.000166481
-0.00016256
-0.000179438
-0.000112557
-0.000190428
-5.85607e-05
-0.000198334
-1.64436e-06
-0.000203152
5.6577e-05
-0.000204886
0.00011523
-0.000203665
0.000172842
-0.000199757
0.000228221
-0.000193363
0.00028037
-0.000184411
0.000327956
-0.000172174
0.000368545
-0.000154489
0.000397172
-0.00012929
0.000406713
-9.91521e-05
0.000398579
-6.44636e-05
0.000375638
-2.68015e-05
0.00034153
1.02523e-05
0.000301133
4.58395e-05
0.000253783
8.11453e-05
0.000200166
0.000117141
0.000142871
0.000152566
8.42302e-05
0.000182387
3.09299e-05
0.000204405
-1.32592e-05
0.000218011
-4.77435e-05
0.00022331
-7.35864e-05
0.000220938
-9.29719e-05
0.000212344
-0.000109428
0.000199251
-0.000126128
0.000182861
-0.00014479
0.000164015
-0.000165495
0.000143264
-0.00018754
0.000120748
-0.000209433
9.66501e-05
-0.000229871
7.1193e-05
-0.000247341
4.47586e-05
-0.00026011
1.81966e-05
-0.000265843
-7.59931e-06
-0.000264608
-3.20212e-05
-0.000256807
-5.44885e-05
-0.000242618
-7.45352e-05
-0.000222556
-9.18988e-05
-0.000197397
-0.000106595
-0.000167997
-0.000118974
-0.000135061
-0.000129689
-9.88885e-05
-0.000139126
-5.94937e-05
-0.000146622
-1.74672e-05
-0.000151628
2.58303e-05
-0.000154264
6.98807e-05
-0.000154559
0.00011357
-0.000152657
0.00015578
-0.000148648
0.000195509
0.000231547
7.33766e-05
0.000470503
0.00013876
0.000363439
0.000204811
0.000246494
0.000272021
0.00012234
0.000330808
9.29119e-06
0.000377961
-7.94133e-05
0.000411237
-0.000137276
0.000428904
-0.000163303
0.000430941
-0.00016332
0.000421062
-0.0001518
0.000402632
-0.000142315
0.000377368
-0.000142928
0.000346384
-0.000157964
0.000310553
-0.000188193
0.000271282
-0.000230686
0.000229536
-0.000278867
0.000185603
-0.000326342
0.000139557
-0.000368477
9.17056e-05
-0.000402022
4.29774e-05
-0.000424468
-4.80263e-06
-0.000433477
-5.06415e-05
-0.000429389
-9.34313e-05
-0.000414146
-0.000132206
-0.000388459
-0.0001663
-0.000353555
-0.000195487
-0.000310943
-0.000220122
-0.000262015
-0.000241066
-0.000207584
-0.00025925
-0.000147955
-0.000274551
-8.36063e-05
-0.000286095
-1.55421e-05
-0.000293921
5.51663e-05
-0.000297838
0.00012772
-0.000297642
0.000200508
-0.000293274
0.000271999
-0.000284695
0.000340778
-0.000271734
0.000405009
-0.000253574
0.000461392
-0.000227615
0.000503126
-0.000190423
0.00051938
-0.000145608
0.00051117
-9.49138e-05
0.000483904
-4.13326e-05
0.000441293
1.26282e-05
0.00038586
6.56427e-05
0.000320104
0.000117973
0.000246439
0.000171711
0.000165052
0.000223802
8.19563e-05
0.000266792
9.42107e-06
0.000298254
-4.68494e-05
0.000316786
-8.51667e-05
0.000322101
-0.000107101
0.00031619
-0.00011815
0.000302742
-0.000126083
0.000284293
-0.000136327
0.000261999
-0.00015156
0.000236657
-0.000172633
0.000208876
-0.000198651
0.000179069
-0.000227167
0.0001473
-0.000255497
0.000113581
-0.00028131
7.81446e-05
-0.000302436
4.16447e-05
-0.000316668
5.45593e-06
-0.000321537
-2.95476e-05
-0.000318017
-6.25406e-05
-0.000306195
-9.28063e-05
-0.000286471
-0.000119852
-0.000259587
-0.000143515
-0.000226472
-0.000164022
-0.000187985
-0.000181869
-0.000144713
-0.000197364
-9.70626e-05
-0.000209997
-4.59277e-05
-0.000219069
7.42829e-06
-0.000224801
6.2309e-05
-0.000227103
0.000117531
-0.000226065
0.000171804
-0.000221904
0.00022406
-0.000214688
0.000273154
-0.00020397
0.000317238
-0.000188216
0.000352791
-0.0001642
0.000373156
-0.00013319
0.000375703
-9.78301e-05
0.00036322
-5.86254e-05
0.000336434
-1.69403e-05
0.000299845
2.38095e-05
0.000260383
6.43778e-05
0.000213215
0.000105749
0.000158794
0.000147058
0.000101562
0.000183284
4.80042e-05
0.000211203
3.01065e-06
0.000229702
-3.17588e-05
0.00023864
-5.66811e-05
0.000238473
-7.34198e-05
0.000231212
-8.57102e-05
0.000219337
-9.75536e-05
0.000204163
-0.000110955
0.000186275
-0.000126901
0.000166203
-0.000145424
0.000144319
-0.000165656
0.000120933
-0.000186047
9.61137e-05
-0.000205051
7.00031e-05
-0.000221231
4.29634e-05
-0.00023307
1.58599e-05
-0.00023874
-1.05606e-05
-0.000238188
-3.57392e-05
-0.000231628
-5.91532e-05
-0.000219204
-8.03973e-05
-0.000201312
-9.92681e-05
-0.000178526
-0.000115825
-0.000151441
-0.000130372
-0.000120514
-0.000143195
-8.60654e-05
-0.000153987
-4.87014e-05
-0.000162216
-9.23851e-06
-0.000167984
3.15985e-05
-0.000171195
7.30912e-05
-0.000171831
0.000114207
-0.00016996
0.000153909
-0.000165523
0.000191072
0.000224133
0.000100262
0.000396333
0.000173838
0.000289863
0.000249331
0.000171002
0.000319734
5.19366e-05
0.000378826
-4.98008e-05
0.00042362
-0.000124208
0.000451506
-0.000165161
0.000460867
-0.000172665
0.000454983
-0.000157436
0.000438771
-0.000135588
0.000414701
-0.000118246
0.000384726
-0.000112953
0.0003501
-0.000123337
0.000311492
-0.000149586
0.000269762
-0.000188955
0.000226363
-0.000235467
0.000181363
-0.000281342
0.000134879
-0.000321993
8.70309e-05
-0.000354173
3.84793e-05
-0.000375917
-9.18195e-06
-0.000385816
-5.5134e-05
-0.000383437
-9.85057e-05
-0.000370774
-0.000138456
-0.000348509
-0.000174393
-0.000317618
-0.000206131
-0.000279205
-0.000234008
-0.000234138
-0.000258569
-0.000183023
-0.000279881
-0.000126643
-0.000297404
-6.60842e-05
-0.000310707
-2.23828e-06
-0.00031983
6.42891e-05
-0.000324385
0.000132274
-0.000324135
0.000200258
-0.000319044
0.000266908
-0.00030913
0.000330863
-0.000294046
0.000389925
-0.000272106
0.000439452
-0.000239123
0.000470143
-0.000195631
0.000475888
-0.000144271
0.00045981
-8.63316e-05
0.000425965
-2.62085e-05
0.00038117
3.2172e-05
0.00032748
9.00733e-05
0.000262203
0.000150194
0.000186318
0.000210863
0.000104383
0.000263806
2.90136e-05
0.000304745
-3.15179e-05
0.000331214
-7.33182e-05
0.000342171
-9.61245e-05
0.000339279
-0.000104209
0.000327012
-0.000105884
0.000308946
-0.000108017
0.000286894
-0.000114274
0.000261969
-0.000126635
0.000234828
-0.000145492
0.000205835
-0.000169658
0.000175288
-0.00019662
0.000143073
-0.000223282
0.000109107
-0.000247345
7.35764e-05
-0.000266905
3.70575e-05
-0.000280149
8.43332e-07
-0.000285323
-3.4408e-05
-0.000282766
-6.79573e-05
-0.000272646
-9.9179e-05
-0.000255249
-0.000127655
-0.00023111
-0.000153263
-0.000200864
-0.000176145
-0.000165103
-0.000196369
-0.000124489
-0.000213507
-7.99248e-05
-0.000227083
-3.23512e-05
-0.000237157
1.75026e-05
-0.000243593
6.87446e-05
-0.000246309
0.000120247
-0.000245417
0.000170912
-0.000241007
0.00021965
-0.000232803
0.00026495
-0.000219587
0.000304022
-0.000198144
0.000331348
-0.000167288
0.0003423
-0.000130131
0.000338546
-8.8543e-05
0.000321632
-4.56727e-05
0.000293563
-3.89462e-06
0.000258067
3.99877e-05
0.000216501
8.88005e-05
0.000164402
0.000136572
0.000111023
0.000179324
5.88094e-05
0.000213372
1.39569e-05
0.000236965
-2.05827e-05
0.000249689
-4.44825e-05
0.000251881
-5.88739e-05
0.000245938
-6.74761e-05
0.000234972
-7.47442e-05
0.000220508
-8.30895e-05
0.000203492
-9.39394e-05
0.000184474
-0.000107882
0.000163732
-0.000124682
0.000141428
-0.000143351
0.000117733
-0.000162352
9.26965e-05
-0.000180015
6.64249e-05
-0.000194959
3.92382e-05
-0.000205884
1.1993e-05
-0.000211495
-1.4692e-05
-0.000211503
-4.03142e-05
-0.000206006
-6.44138e-05
-0.000195104
-8.66475e-05
-0.000179078
-0.00010686
-0.000158314
-0.000125094
-0.000133206
-0.000141421
-0.000104186
-0.000155611
-7.18762e-05
-0.000167265
-3.70474e-05
-0.000176287
-2.15835e-07
-0.000182687
3.79984e-05
-0.00018636
7.67637e-05
-0.000187279
0.000115126
-0.000185386
0.000152015
-0.000180322
0.000186008
0.0002148
0.000130366
0.000315616
0.000213906
0.000206323
0.000296352
8.85556e-05
0.000368056
-1.97668e-05
0.000425203
-0.000106948
0.000464276
-0.000163281
0.000482711
-0.000183596
0.000482347
-0.000172301
0.000469041
-0.00014413
0.000446449
-0.000112995
0.000417191
-8.89882e-05
0.000383235
-7.89967e-05
0.000345884
-8.59857e-05
0.000305625
-0.000109327
0.000262714
-0.000146044
0.000218169
-0.000190923
0.000172767
-0.00023594
0.000126375
-0.000275601
7.90587e-05
-0.000306857
3.12294e-05
-0.000328087
-1.58717e-05
-0.000338714
-6.13169e-05
-0.000337992
-0.000104718
-0.000327373
-0.000145341
-0.000307886
-0.000182686
-0.000280273
-0.000216623
-0.000245268
-0.000247273
-0.000203487
-0.00027452
-0.000155776
-0.000297753
-0.00010341
-0.000316757
-4.7081e-05
-0.000331405
1.24098e-05
-0.000341271
7.41553e-05
-0.000346009
0.000137013
-0.00034552
0.000199769
-0.000339852
0.000261239
-0.000328847
0.000319859
-0.000311222
0.0003723
-0.0002829
0.00041113
-0.00024178
0.000429023
-0.000191855
0.000425963
-0.000135335
0.000403289
-7.21404e-05
0.000362771
-6.642e-06
0.000315672
5.45878e-05
0.00026625
0.000120506
0.000196285
0.000189951
0.000116873
0.000253428
4.09067e-05
0.00030455
-2.2109e-05
0.000339764
-6.67316e-05
0.000357175
-9.07295e-05
0.000357797
-9.67465e-05
0.000346695
-9.31062e-05
0.000328693
-8.78819e-05
0.000306281
-8.56052e-05
0.000281197
-8.91905e-05
0.000254489
-9.9927e-05
0.00022655
-0.000117553
0.000197344
-0.000140452
0.000166769
-0.000166045
0.000134828
-0.000191341
0.000101268
-0.000213785
6.62082e-05
-0.000231845
3.02035e-05
-0.000244145
-5.58487e-06
-0.000249535
-4.06635e-05
-0.000247687
-7.44072e-05
-0.000238902
-0.000106287
-0.000223369
-0.000135945
-0.000201453
-0.000163213
-0.000173595
-0.00018789
-0.000140426
-0.000209341
-0.000103038
-0.000227324
-6.19419e-05
-0.000241752
-1.79228e-05
-0.000252492
2.82426e-05
-0.000259399
7.56514e-05
-0.000262454
0.000123302
-0.000261711
0.000170169
-0.000257014
0.000214953
-0.000247415
0.000255351
-0.000229952
0.000286559
-0.000201984
0.00030338
-0.00016533
0.000305646
-0.000122062
0.000295278
-7.47591e-05
0.000274329
-2.93175e-05
0.000248122
1.78027e-05
0.000210947
7.06079e-05
0.000163695
0.00012314
0.00011187
0.000171878
6.22845e-05
0.000211577
1.91105e-05
0.000239916
-1.4382e-05
0.00025616
-3.68269e-05
0.000260532
-4.88541e-05
0.000255712
-5.40538e-05
0.000245327
-5.70918e-05
0.000231318
-6.07352e-05
0.000214963
-6.67341e-05
0.00019701
-7.59863e-05
0.000177726
-8.85983e-05
0.00015708
-0.000104036
0.00013499
-0.000121262
0.000111502
-0.000138864
8.67253e-05
-0.000155238
6.07329e-05
-0.000168967
3.38038e-05
-0.000178954
6.70168e-06
-0.000184393
-1.99761e-05
-0.000184825
-4.58222e-05
-0.00018016
-7.04232e-05
-0.000170503
-9.34844e-05
-0.000156017
-0.000114856
-0.000136942
-0.000134419
-0.000113644
-0.000151745
-8.68602e-05
-0.00016662
-5.70009e-05
-0.000178975
-2.46919e-05
-0.000188691
9.49932e-06
-0.000195639
4.49465e-05
-0.00019973
8.08548e-05
-0.000200848
0.000116244
-0.0001986
0.000149768
-0.000191853
0.000179261
0.00020085
0.000167607
0.000224733
0.000262244
0.000111686
0.000347723
3.07668e-06
0.000417836
-8.98798e-05
0.000468145
-0.000157258
0.000495597
-0.000190733
0.000500605
-0.000188604
0.000489759
-0.000161455
0.000468858
-0.000123229
0.000440743
-8.48804e-05
0.000407687
-5.5932e-05
0.000371506
-4.28157e-05
0.000333225
-4.77046e-05
0.00029296
-6.90613e-05
0.000250363
-0.000103447
0.000205765
-0.000146325
0.000160653
-0.000190828
0.000114795
-0.000229744
6.83357e-05
-0.000260397
2.15879e-05
-0.00028134
-2.45966e-05
-0.00029253
-6.92199e-05
-0.000293368
-0.000112173
-0.00028442
-0.000153074
-0.000266985
-0.000191509
-0.000241838
-0.000227129
-0.000209648
-0.000259375
-0.000171241
-0.000287867
-0.000127284
-0.000312398
-7.88789e-05
-0.000332544
-2.69348e-05
-0.000347845
2.77108e-05
-0.000357911
8.42216e-05
-0.000362606
0.000141708
-0.000362002
0.000199165
-0.000356032
0.000255269
-0.000343744
0.000307571
-0.000321351
0.000349906
-0.000284622
0.000374401
-0.000235147
0.000379549
-0.000176411
0.000367226
-0.000112564
0.000339443
-5.05776e-05
0.000300784
1.22643e-05
0.00025283
8.49644e-05
0.00019355
0.000164419
0.00011683
0.000238285
4.30067e-05
0.000299333
-2.0141e-05
0.00034308
-6.58561e-05
0.000366719
-9.03705e-05
0.000370661
-9.46712e-05
0.000360468
-8.65543e-05
0.000342175
-7.48129e-05
0.000318966
-6.46726e-05
0.000293237
-5.98764e-05
0.00026653
-6.24836e-05
0.000239477
-7.28742e-05
0.000211977
-9.00535e-05
0.000183601
-0.000112075
0.000153961
-0.000136406
0.000122923
-0.000160303
9.04212e-05
-0.000181283
5.63667e-05
-0.00019779
2.13603e-05
-0.000209138
-1.3719e-05
-0.000214455
-4.83253e-05
-0.000213081
-8.20217e-05
-0.000205206
-0.000114357
-0.000191034
-0.000144877
-0.000170932
-0.000173006
-0.000145467
-0.000198239
-0.000115193
-0.00022032
-8.09578e-05
-0.000238895
-4.33662e-05
-0.000253795
-3.02304e-06
-0.000264921
3.93681e-05
-0.000272215
8.29458e-05
-0.000275677
0.000126764
-0.000275152
0.000169644
-0.000269727
0.000209528
-0.000256369
0.000241993
-0.000231911
0.000262101
-0.000197178
0.000268646
-0.000154441
0.00026291
-0.000106048
0.000246885
-5.58561e-05
0.000224137
-2.20063e-06
0.000194466
5.38401e-05
0.000154906
0.000110362
0.000107173
0.000163129
5.91031e-05
0.00020711
1.83044e-05
0.000239078
-1.28583e-05
0.000257908
-3.32115e-05
0.000263718
-4.26371e-05
0.000259466
-4.46019e-05
0.000249292
-4.38796e-05
0.000235532
-4.33324e-05
0.000219723
-4.49262e-05
0.000202753
-4.97634e-05
0.000184958
-5.81917e-05
0.000166293
-6.99328e-05
0.000146492
-8.42357e-05
0.000125292
-0.000100061
0.000102596
-0.000116168
7.85092e-05
-0.000131151
5.32061e-05
-0.000143664
2.68696e-05
-0.000152618
1.25736e-07
-0.000157649
-2.64381e-05
-0.000158261
-5.24082e-05
-0.00015419
-7.73806e-05
-0.000145531
-0.000101002
-0.000132396
-0.000122925
-0.000115018
-0.000142885
-9.36838e-05
-0.000160739
-6.90068e-05
-0.00017623
-4.15091e-05
-0.0001892
-1.17228e-05
-0.000199489
1.97888e-05
-0.000206942
5.23991e-05
-0.000211337
8.52505e-05
-0.000212142
0.000117048
-0.000207999
0.000145625
-0.000196066
0.000167328
0.000180237
0.000223775
0.000114888
0.000324252
1.12086e-05
0.000407351
-8.00217e-05
0.000467728
-0.000150257
0.000501687
-0.000191217
0.000509216
-0.000198262
0.000498203
-0.00017759
0.000477103
-0.000140355
0.000449492
-9.56183e-05
0.000417798
-5.3187e-05
0.000383656
-2.17896e-05
0.000348086
-7.2454e-06
0.00031141
-1.10292e-05
0.00027332
-3.0971e-05
0.000233043
-6.31699e-05
0.000190164
-0.000103446
0.000145889
-0.000146553
0.000101107
-0.000184962
5.5716e-05
-0.000215006
1.00893e-05
-0.000235713
-3.48439e-05
-0.000247597
-7.84756e-05
-0.000249737
-0.000120901
-0.000241995
-0.000161721
-0.000226165
-0.000200337
-0.000203222
-0.000236304
-0.000173681
-0.000269212
-0.000138333
-0.000298499
-9.79967e-05
-0.000323708
-5.36704e-05
-0.000344272
-6.37056e-06
-0.000359632
4.30708e-05
-0.000369577
9.41662e-05
-0.000374351
0.000146481
-0.000374189
0.000199004
-0.000368253
0.000249332
-0.000352737
0.000292055
-0.000322708
0.000319877
-0.000277796
0.00032949
-0.000220482
0.000322235
-0.000154449
0.000301193
-8.73689e-05
0.000272363
-2.16176e-05
0.000235033
5.38984e-05
0.000177314
0.000142746
0.000104702
0.000224838
3.47391e-05
0.000293016
-2.5172e-05
0.000342708
-6.98324e-05
0.000370416
-9.35644e-05
0.000376093
-9.6048e-05
0.000365871
-8.44487e-05
0.000346726
-6.74097e-05
0.000322429
-5.05158e-05
0.000295904
-3.81475e-05
0.000269074
-3.30467e-05
0.000242799
-3.6208e-05
0.000217102
-4.71778e-05
0.000191449
-6.44002e-05
0.000165051
-8.56774e-05
0.000137281
-0.000108636
0.0001079
-0.000130922
7.69196e-05
-0.000150303
4.43272e-05
-0.000165198
1.07405e-05
-0.000175551
-2.32275e-05
-0.000180487
-5.71274e-05
-0.000179181
-9.04962e-05
-0.000171837
-0.000122729
-0.000158801
-0.000153278
-0.000140383
-0.000181615
-0.00011713
-0.000207126
-8.96819e-05
-0.000229394
-5.86903e-05
-0.000248128
-2.46318e-05
-0.000263229
1.20778e-05
-0.000274699
5.08376e-05
-0.000282529
9.0776e-05
-0.000286447
0.000130683
-0.000285265
0.000168461
-0.000275518
0.000199781
-0.000253947
0.000220422
-0.000220862
0.000229016
-0.000178551
0.000226335
-0.000129564
0.000213923
-7.70315e-05
0.000194352
-2.188e-05
0.000168985
3.72038e-05
0.000135383
9.83691e-05
9.37406e-05
0.000155202
5.03404e-05
0.000201641
1.26637e-05
0.00023529
-1.53445e-05
0.000254923
-3.24912e-05
0.000260664
-3.89526e-05
0.000256024
-3.79974e-05
0.000245603
-3.41808e-05
0.000231896
-3.01726e-05
0.000216576
-2.80119e-05
0.000200593
-2.8944e-05
0.000184348
-3.35181e-05
0.000167813
-4.16566e-05
0.000150663
-5.27827e-05
0.000132431
-6.60042e-05
0.000112712
-8.03416e-05
9.13339e-05
-9.47905e-05
6.83622e-05
-0.000108179
4.39949e-05
-0.000119296
1.8515e-05
-0.000127138
-7.53837e-06
-0.000131595
-3.36795e-05
-0.00013212
-5.94921e-05
-0.000128377
-8.44696e-05
-0.000120553
-0.000108191
-0.000108675
-0.000130353
-9.28557e-05
-0.000150625
-7.34118e-05
-0.000168815
-5.08169e-05
-0.000184736
-2.55884e-05
-0.000198184
1.72606e-06
-0.000208907
3.05116e-05
-0.000216524
6.00162e-05
-0.000220246
8.89724e-05
-0.000218249
0.000115051
-0.000207829
0.000135206
-0.00018829
0.000147789
0.000153224
0.000312327
-5.0064e-07
0.000404409
-8.08733e-05
0.000469902
-0.000145515
0.000504686
-0.000185041
0.000509162
-0.000195692
0.00049306
-0.000182161
0.000467266
-0.000151796
0.000436777
-0.000109866
0.000404839
-6.36803e-05
0.000373095
-2.14426e-05
0.000341811
9.49395e-06
0.000310743
2.38227e-05
0.000279203
2.05116e-05
0.00024627
1.96208e-06
0.000210907
-2.78071e-05
0.00017207
-6.46094e-05
0.000130016
-0.000104499
8.68471e-05
-0.000141794
4.26444e-05
-0.000170803
-2.25487e-06
-0.000190814
-4.57926e-05
-0.000204059
-8.78721e-05
-0.000207657
-0.000129631
-0.000200236
-0.000169973
-0.000185823
-0.000208222
-0.000164973
-0.00024396
-0.000137943
-0.000276753
-0.00010554
-0.000306103
-6.86462e-05
-0.000331412
-2.83619e-05
-0.000351901
1.41188e-05
-0.00036699
5.81595e-05
-0.000376863
0.000104039
-0.000382204
0.000151823
-0.000382577
0.000199376
-0.000373531
0.000240287
-0.000349118
0.000267642
-0.000308688
0.000279447
-0.000254352
0.000275153
-0.000189459
0.000257342
-0.000118495
0.000230229
-4.42796e-05
0.000198148
4.04328e-05
0.000150321
0.000130237
8.75101e-05
0.000214612
2.03267e-05
0.00028608
-3.67285e-05
0.000338062
-7.71537e-05
0.000365902
-9.76732e-05
0.000370366
-9.80281e-05
0.000358543
-8.4225e-05
0.000337875
-6.37808e-05
0.000312478
-4.20124e-05
0.00028556
-2.3598e-05
0.000259151
-1.17384e-05
0.000234175
-8.07103e-06
0.000210747
-1.27797e-05
0.000188352
-2.47823e-05
0.00016605
-4.20991e-05
0.000142747
-6.2374e-05
0.000117648
-8.35361e-05
9.05419e-05
-0.000103816
6.14553e-05
-0.000121216
3.05293e-05
-0.000134272
-1.31098e-06
-0.000143711
-3.35456e-05
-0.000148253
-6.63192e-05
-0.000146407
-9.89526e-05
-0.000139204
-0.00013063
-0.000127124
-0.000160784
-0.000110228
-0.00018889
-8.9024e-05
-0.000214349
-6.42229e-05
-0.000236573
-3.64668e-05
-0.000255265
-5.93982e-06
-0.000270507
2.73205e-05
-0.000282427
6.27578e-05
-0.000290554
9.89022e-05
-0.000293119
0.000133249
-0.000285793
0.000161135
-0.000265809
0.000179797
-0.000233671
0.000188285
-0.000191274
0.000186619
-0.000141458
0.00017652
-8.78077e-05
0.000160272
-3.23493e-05
0.000138894
2.79648e-05
0.000108671
9.05667e-05
7.27806e-05
0.000148731
3.55762e-05
0.000195606
3.465e-06
0.000228311
-2.00405e-05
0.000245965
-3.29992e-05
0.000249608
-3.61335e-05
0.000243513
-3.28578e-05
0.000232349
-2.68336e-05
0.000218573
-2.04047e-05
0.000203851
-1.5451e-05
0.000189115
-1.32758e-05
0.000174742
-1.4571e-05
0.000160666
-1.94423e-05
0.000146514
-2.75046e-05
0.000131738
-3.80066e-05
0.000115739
-5.00052e-05
9.8018e-05
-6.26202e-05
7.83645e-05
-7.5137e-05
5.6831e-05
-8.66459e-05
3.35652e-05
-9.60306e-05
8.9512e-06
-0.000102524
-1.6102e-05
-0.000106542
-4.14421e-05
-0.00010678
-6.68624e-05
-0.000102957
-9.15722e-05
-9.58433e-05
-0.000115097
-8.51506e-05
-0.000137147
-7.08057e-05
-0.000157483
-5.30757e-05
-0.000175896
-3.24032e-05
-0.000192122
-9.36306e-06
-0.00020576
1.53638e-05
-0.000216115
4.08673e-05
-0.000222016
6.59167e-05
-0.000221087
8.80438e-05
-0.000211177
0.000105141
-0.000192103
0.000116131
-0.000165349
0.000121035
0.000120168
0.00040784
-9.28128e-05
0.000471749
-0.000144783
0.00050053
-0.000174296
0.000496448
-0.000180959
0.000471153
-0.000170397
0.000436179
-0.000147186
0.000398245
-0.000113863
0.000361895
-7.35154e-05
0.000329711
-3.14971e-05
0.00030248
5.78863e-06
0.00027842
3.35543e-05
0.000256452
4.57909e-05
0.000234479