/*--------------------------------*- C++ -*----------------------------------*\
| =========                 |                                                 |
| \\      /  F ield         | OpenFOAM: The Open Source CFD Toolbox           |
|  \\    /   O peration     | Version:  2206                                  |
|   \\  /    A nd           | Website:  www.openfoam.com                      |
|    \\/     M anipulation  |                                                 |
\*---------------------------------------------------------------------------*/
FoamFile
{
    version     2.0;
    format      ascii;
    arch        "LSB;label=32;scalar=64";
    class       volVectorField;
    location    "18.5001";
    object      U_0;
}
// * * * * * * * * * * * * * * * * * * * * * * * * * * * * * * * * * * * * * //

dimensions      [0 1 -1 0 0 0 0];

internalField   nonuniform List<vector> 
4866
(
(-0.0126309 0.325376 0)
(-0.0947712 0.327793 0)
(-0.130541 0.337906 0)
(-0.187168 0.362092 0)
(-0.248212 0.375915 0)
(-0.302483 0.355896 0)
(-0.336356 0.296462 0)
(-0.346067 0.199221 0)
(-0.331201 0.0674189 0)
(-0.285425 -0.0910806 0)
(-0.218356 -0.2582 0)
(-0.134731 -0.420172 0)
(-0.0433447 -0.56778 0)
(0.0503703 -0.696444 0)
(0.142813 -0.800377 0)
(0.234871 -0.880474 0)
(0.329613 -0.935717 0)
(0.431853 -0.961987 0)
(0.546466 -0.952328 0)
(0.676499 -0.902391 0)
(0.819296 -0.809821 0)
(0.968719 -0.675533 0)
(1.11899 -0.502105 0)
(1.26767 -0.292541 0)
(1.41169 -0.0579534 0)
(1.53988 0.173804 0)
(1.64524 0.381461 0)
(1.72439 0.552908 0)
(1.77692 0.683969 0)
(1.80549 0.776213 0)
(1.81463 0.834521 0)
(1.80928 0.865637 0)
(1.79076 0.876537 0)
(1.76371 0.869414 0)
(1.73209 0.852029 0)
(1.69885 0.83006 0)
(1.66654 0.807096 0)
(1.63588 0.784991 0)
(1.60683 0.764559 0)
(1.57916 0.746131 0)
(1.5525 0.729791 0)
(1.52643 0.715506 0)
(1.5005 0.70322 0)
(1.47425 0.692848 0)
(1.44738 0.684176 0)
(1.41963 0.676809 0)
(1.39058 0.670565 0)
(1.35938 0.665995 0)
(1.32474 0.664264 0)
(1.28564 0.665895 0)
(1.24252 0.668604 0)
(1.1978 0.666641 0)
(1.15521 0.65206 0)
(1.11853 0.617433 0)
(1.09045 0.558617 0)
(1.07227 0.475934 0)
(1.06445 0.373421 0)
(1.06633 0.256965 0)
(1.07725 0.133244 0)
(1.09553 0.00982914 0)
(1.11991 -0.108 0)
(1.1492 -0.216828 0)
(1.18189 -0.314106 0)
(1.21645 -0.398299 0)
(1.2515 -0.468884 0)
(1.28588 -0.526219 0)
(1.3187 -0.571327 0)
(1.34931 -0.605671 0)
(1.37732 -0.63097 0)
(1.40251 -0.649049 0)
(1.42482 -0.661701 0)
(1.44435 -0.670607 0)
(1.46131 -0.677257 0)
(1.47595 -0.682963 0)
(1.48849 -0.688983 0)
(1.4991 -0.696567 0)
(1.50783 -0.706572 0)
(1.51492 -0.71937 0)
(1.52075 -0.734394 0)
(1.52586 -0.74945 0)
(1.53079 -0.762178 0)
(1.53544 -0.77091 0)
(1.53946 -0.774907 0)
(1.54348 -0.772233 0)
(1.54708 -0.755502 0)
(1.55022 -0.723904 0)
(1.55304 -0.677002 0)
(1.55568 -0.614299 0)
(1.55829 -0.536058 0)
(1.56102 -0.443354 0)
(1.56405 -0.338151 0)
(1.56755 -0.223383 0)
(1.57158 -0.103171 0)
(1.5759 0.0167251 0)
(1.58019 0.131895 0)
(1.58415 0.238977 0)
(1.58742 0.335352 0)
(1.58973 0.41927 0)
(1.59089 0.489895 0)
(1.59079 0.54717 0)
(1.5894 0.591712 0)
(1.58672 0.624621 0)
(1.58282 0.647322 0)
(1.57785 0.661411 0)
(1.57164 0.66843 0)
(1.56378 0.669242 0)
(1.55457 0.665341 0)
(1.54393 0.658597 0)
(1.532 0.650418 0)
(1.51882 0.641917 0)
(1.50435 0.633854 0)
(1.48857 0.62663 0)
(1.47149 0.620268 0)
(1.45322 0.614377 0)
(1.43392 0.608154 0)
(1.41387 0.600472 0)
(1.39337 0.590034 0)
(1.37275 0.575566 0)
(1.35232 0.556 0)
(1.33238 0.530587 0)
(1.31321 0.498925 0)
(1.29509 0.460923 0)
(1.27836 0.41672 0)
(1.26338 0.366628 0)
(1.25054 0.311131 0)
(1.24025 0.250865 0)
(1.23284 0.186627 0)
(1.22861 0.119445 0)
(1.22778 0.0505618 0)
(1.23035 -0.018765 0)
(1.23609 -0.0871128 0)
(1.24473 -0.153236 0)
(1.25598 -0.216126 0)
(1.26941 -0.274932 0)
(1.28454 -0.329003 0)
(1.30087 -0.377921 0)
(1.31792 -0.421508 0)
(-0.036662 0.396025 0)
(-0.103228 0.398138 0)
(-0.170678 0.41289 0)
(-0.243947 0.44259 0)
(-0.301026 0.441597 0)
(-0.339337 0.400615 0)
(-0.35392 0.316483 0)
(-0.354237 0.190038 0)
(-0.315255 0.0270244 0)
(-0.251484 -0.159458 0)
(-0.166149 -0.345633 0)
(-0.0709491 -0.518179 0)
(0.0250863 -0.667819 0)
(0.115489 -0.792994 0)
(0.195878 -0.892614 0)
(0.267466 -0.970892 0)
(0.331043 -1.02706 0)
(0.392398 -1.06196 0)
(0.45923 -1.06843 0)
(0.542339 -1.03684 0)
(0.646684 -0.961265 0)
(0.768935 -0.836747 0)
(0.902775 -0.665577 0)
(1.04234 -0.453851 0)
(1.18344 -0.212306 0)
(1.31768 0.0362113 0)
(1.43623 0.267273 0)
(1.53439 0.465793 0)
(1.60962 0.624328 0)
(1.66171 0.741424 0)
(1.69302 0.821375 0)
(1.70681 0.869841 0)
(1.70794 0.892084 0)
(1.69844 0.894566 0)
(1.68025 0.883177 0)
(1.65637 0.863114 0)
(1.63036 0.83971 0)
(1.60474 0.816341 0)
(1.57997 0.794613 0)
(1.55593 0.775162 0)
(1.53245 0.758192 0)
(1.50918 0.743733 0)
(1.48576 0.731713 0)
(1.46183 0.721945 0)
(1.43716 0.714142 0)
(1.41142 0.708065 0)
(1.38389 0.704002 0)
(1.35346 0.702972 0)
(1.31891 0.705935 0)
(1.27992 0.712056 0)
(1.23777 0.717216 0)
(1.19527 0.714189 0)
(1.15583 0.694615 0)
(1.12259 0.651827 0)
(1.09774 0.582949 0)
(1.08238 0.489242 0)
(1.07687 0.375602 0)
(1.08077 0.248712 0)
(1.09325 0.115963 0)
(1.11306 -0.0149589 0)
(1.13888 -0.138952 0)
(1.16934 -0.252286 0)
(1.20281 -0.35231 0)
(1.23768 -0.437572 0)
(1.27252 -0.50777 0)
(1.30615 -0.563564 0)
(1.33772 -0.606302 0)
(1.36669 -0.637733 0)
(1.39273 -0.659801 0)
(1.4157 -0.674515 0)
(1.43558 -0.683835 0)
(1.45244 -0.689603 0)
(1.46652 -0.693419 0)
(1.47815 -0.696571 0)
(1.48759 -0.70022 0)
(1.495 -0.705606 0)
(1.50036 -0.713546 0)
(1.50387 -0.724437 0)
(1.50567 -0.737984 0)
(1.50618 -0.75241 0)
(1.50609 -0.764991 0)
(1.50593 -0.773534 0)
(1.50554 -0.776698 0)
(1.5042 -0.773752 0)
(1.50194 -0.755992 0)
(1.49946 -0.724058 0)
(1.49702 -0.677065 0)
(1.49471 -0.614451 0)
(1.49281 -0.536532 0)
(1.49164 -0.444429 0)
(1.49157 -0.340112 0)
(1.49292 -0.226443 0)
(1.49583 -0.10736 0)
(1.50016 0.0116856 0)
(1.50555 0.126384 0)
(1.5116 0.233492 0)
(1.51783 0.33029 0)
(1.52382 0.415041 0)
(1.52918 0.486776 0)
(1.53361 0.545354 0)
(1.5369 0.591293 0)
(1.53892 0.625668 0)
(1.53963 0.649847 0)
(1.53901 0.665301 0)
(1.53719 0.673653 0)
(1.5337 0.676412 0)
(1.52848 0.674395 0)
(1.52143 0.669343 0)
(1.51271 0.662802 0)
(1.50245 0.65592 0)
(1.49062 0.649474 0)
(1.47724 0.643837 0)
(1.46238 0.638968 0)
(1.44619 0.634391 0)
(1.42886 0.629224 0)
(1.41067 0.622277 0)
(1.3919 0.612226 0)
(1.37286 0.5978 0)
(1.35384 0.577951 0)
(1.3351 0.551947 0)
(1.31695 0.519381 0)
(1.29969 0.480101 0)
(1.28369 0.434192 0)
(1.26935 0.381946 0)
(1.25708 0.323834 0)
(1.24733 0.260514 0)
(1.24047 0.192862 0)
(1.23679 0.121992 0)
(1.23648 0.049255 0)
(1.23951 -0.0237142 0)
(1.24564 -0.095412 0)
(1.25459 -0.164575 0)
(1.26599 -0.23007 0)
(1.2794 -0.29096 0)
(1.29432 -0.346557 0)
(1.31025 -0.396441 0)
(1.32669 -0.440465 0)
(-0.0292128 0.470245 0)
(-0.0940483 0.477108 0)
(-0.170259 0.495816 0)
(-0.233551 0.505205 0)
(-0.273461 0.485218 0)
(-0.296017 0.423492 0)
(-0.296854 0.314237 0)
(-0.269155 0.156076 0)
(-0.206517 -0.0443059 0)
(-0.122119 -0.254562 0)
(-0.0234091 -0.453105 0)
(0.0782923 -0.625926 0)
(0.172348 -0.766717 0)
(0.253418 -0.878306 0)
(0.318755 -0.963259 0)
(0.37017 -1.02853 0)
(0.408143 -1.07496 0)
(0.438456 -1.10568 0)
(0.465792 -1.12111 0)
(0.497877 -1.11378 0)
(0.548917 -1.0627 0)
(0.625949 -0.961263 0)
(0.727017 -0.80606 0)
(0.844959 -0.602529 0)
(0.973481 -0.363162 0)
(1.10538 -0.107376 0)
(1.23013 0.139013 0)
(1.34101 0.358458 0)
(1.43383 0.540908 0)
(1.50618 0.682266 0)
(1.55827 0.784114 0)
(1.5922 0.849942 0)
(1.61135 0.885526 0)
(1.61856 0.899663 0)
(1.61698 0.899683 0)
(1.60609 0.886187 0)
(1.58919 0.864845 0)
(1.57008 0.841538 0)
(1.55079 0.819358 0)
(1.53147 0.799463 0)
(1.51205 0.782274 0)
(1.49231 0.767923 0)
(1.47204 0.756355 0)
(1.451 0.747362 0)
(1.42904 0.740745 0)
(1.40567 0.736576 0)
(1.38 0.735569 0)
(1.35084 0.738831 0)
(1.31736 0.746634 0)
(1.27983 0.756681 0)
(1.2401 0.763251 0)
(1.20082 0.758231 0)
(1.16508 0.733344 0)
(1.13559 0.682554 0)
(1.11417 0.603788 0)
(1.10173 0.499512 0)
(1.09852 0.375357 0)
(1.10432 0.238519 0)
(1.1185 0.0969479 0)
(1.13983 -0.0413991 0)
(1.16692 -0.171286 0)
(1.19824 -0.288691 0)
(1.23204 -0.390909 0)
(1.26665 -0.476616 0)
(1.30062 -0.545787 0)
(1.3328 -0.599448 0)
(1.36242 -0.639307 0)
(1.38904 -0.667429 0)
(1.41247 -0.685993 0)
(1.43267 -0.697127 0)
(1.44965 -0.702895 0)
(1.46349 -0.705294 0)
(1.47438 -0.706089 0)
(1.48269 -0.706604 0)
(1.48877 -0.70775 0)
(1.49281 -0.710726 0)
(1.49474 -0.716521 0)
(1.4947 -0.725321 0)
(1.49274 -0.736913 0)
(1.48902 -0.749987 0)
(1.48425 -0.761885 0)
(1.47922 -0.770391 0)
(1.47374 -0.773548 0)
(1.46721 -0.767876 0)
(1.45991 -0.750174 0)
(1.45249 -0.718423 0)
(1.44525 -0.671615 0)
(1.43841 -0.609476 0)
(1.43236 -0.532452 0)
(1.42762 -0.44172 0)
(1.42468 -0.339235 0)
(1.42398 -0.227745 0)
(1.42578 -0.110936 0)
(1.42997 0.00609502 0)
(1.43619 0.119231 0)
(1.44398 0.225333 0)
(1.45277 0.3217 0)
(1.46199 0.406579 0)
(1.47113 0.47893 0)
(1.47972 0.538497 0)
(1.4874 0.585728 0)
(1.49389 0.621551 0)
(1.49902 0.647269 0)
(1.50267 0.664393 0)
(1.50482 0.674462 0)
(1.5055 0.678828 0)
(1.50426 0.679287 0)
(1.50082 0.676437 0)
(1.49534 0.671732 0)
(1.48802 0.666741 0)
(1.47891 0.662165 0)
(1.46808 0.658318 0)
(1.45564 0.655099 0)
(1.44176 0.651966 0)
(1.42665 0.647979 0)
(1.41057 0.641908 0)
(1.39378 0.632412 0)
(1.37655 0.618226 0)
(1.35917 0.598316 0)
(1.34191 0.571937 0)
(1.32508 0.538619 0)
(1.309 0.498193 0)
(1.29405 0.450715 0)
(1.28065 0.396428 0)
(1.26925 0.335782 0)
(1.2603 0.269463 0)
(1.25417 0.19843 0)
(1.25116 0.123927 0)
(1.25143 0.0474548 0)
(1.2549 -0.0290702 0)
(1.26134 -0.10404 0)
(1.27044 -0.176089 0)
(1.28179 -0.243986 0)
(1.29493 -0.306739 0)
(1.30937 -0.363635 0)
(1.32459 -0.414258 0)
(1.34011 -0.458487 0)
(-0.0139049 0.531306 0)
(-0.0712683 0.554213 0)
(-0.132025 0.561161 0)
(-0.169622 0.552781 0)
(-0.187512 0.509309 0)
(-0.183755 0.420769 0)
(-0.156883 0.284089 0)
(-0.0982624 0.0905384 0)
(-0.0121765 -0.135296 0)
(0.0917187 -0.363765 0)
(0.198272 -0.567336 0)
(0.295792 -0.731666 0)
(0.378605 -0.856912 0)
(0.445226 -0.949814 0)
(0.49304 -1.01517 0)
(0.522291 -1.06078 0)
(0.534085 -1.09469 0)
(0.533044 -1.11784 0)
(0.52663 -1.1312 0)
(0.522361 -1.13159 0)
(0.527252 -1.1054 0)
(0.551016 -1.03399 0)
(0.60734 -0.908279 0)
(0.692949 -0.726275 0)
(0.798919 -0.499889 0)
(0.918091 -0.248198 0)
(1.04043 0.0046086 0)
(1.15658 0.237848 0)
(1.26079 0.439193 0)
(1.34875 0.601765 0)
(1.41891 0.724391 0)
(1.47172 0.809422 0)
(1.50856 0.862007 0)
(1.5318 0.888146 0)
(1.54387 0.896658 0)
(1.54718 0.894836 0)
(1.54265 0.880006 0)
(1.53215 0.859293 0)
(1.51934 0.837955 0)
(1.50558 0.818646 0)
(1.4909 0.80211 0)
(1.47535 0.788584 0)
(1.45889 0.777983 0)
(1.44144 0.770104 0)
(1.42283 0.764971 0)
(1.40241 0.763085 0)
(1.37921 0.765509 0)
(1.3522 0.773178 0)
(1.32092 0.785439 0)
(1.28615 0.798518 0)
(1.25014 0.80553 0)
(1.21496 0.798019 0)
(1.18368 0.767674 0)
(1.15846 0.708937 0)
(1.1408 0.620925 0)
(1.13146 0.506869 0)
(1.13074 0.37281 0)
(1.13867 0.226342 0)
(1.15466 0.0761423 0)
(1.1774 -0.0693267 0)
(1.20542 -0.204616 0)
(1.23706 -0.325475 0)
(1.27051 -0.429193 0)
(1.30409 -0.514616 0)
(1.33635 -0.582053 0)
(1.36623 -0.632958 0)
(1.39307 -0.669446 0)
(1.41656 -0.693903 0)
(1.43666 -0.708762 0)
(1.45347 -0.716248 0)
(1.46704 -0.71841 0)
(1.47743 -0.717331 0)
(1.48488 -0.714928 0)
(1.48967 -0.71269 0)
(1.4921 -0.711502 0)
(1.49286 -0.712163 0)
(1.49133 -0.715548 0)
(1.48774 -0.72208 0)
(1.48212 -0.731523 0)
(1.47453 -0.742838 0)
(1.46555 -0.753731 0)
(1.45583 -0.761596 0)
(1.44521 -0.763945 0)
(1.43399 -0.757619 0)
(1.42231 -0.739519 0)
(1.41052 -0.707695 0)
(1.39902 -0.661221 0)
(1.38819 -0.599914 0)
(1.37853 -0.524303 0)
(1.37066 -0.435606 0)
(1.36518 -0.33574 0)
(1.36262 -0.227317 0)
(1.3633 -0.113778 0)
(1.3672 0.000239573 0)
(1.37394 0.110822 0)
(1.38306 0.214974 0)
(1.39393 0.310129 0)
(1.40587 0.394456 0)
(1.41824 0.466877 0)
(1.43047 0.527083 0)
(1.44206 0.575392 0)
(1.45259 0.612594 0)
(1.46177 0.639928 0)
(1.46941 0.658788 0)
(1.47533 0.670602 0)
(1.47942 0.676917 0)
(1.48166 0.679438 0)
(1.48203 0.67937 0)
(1.48001 0.677119 0)
(1.47575 0.674332 0)
(1.46947 0.671851 0)
(1.46136 0.66995 0)
(1.45155 0.668493 0)
(1.44021 0.666905 0)
(1.42755 0.664204 0)
(1.4138 0.659135 0)
(1.39922 0.650349 0)
(1.38408 0.636585 0)
(1.36866 0.616783 0)
(1.35322 0.590161 0)
(1.33807 0.55626 0)
(1.32353 0.514859 0)
(1.30999 0.465949 0)
(1.29789 0.409732 0)
(1.28767 0.34665 0)
(1.27978 0.277431 0)
(1.27459 0.203124 0)
(1.27238 0.125113 0)
(1.27327 0.0450992 0)
(1.27718 -0.0348118 0)
(1.28382 -0.112847 0)
(1.29287 -0.187534 0)
(1.30392 -0.257573 0)
(1.31649 -0.321923 0)
(1.3301 -0.379852 0)
(1.34425 -0.430959 0)
(1.35847 -0.475163 0)
(-0.000489132 0.56677 0)
(-0.0328492 0.6071 0)
(-0.0635052 0.600278 0)
(-0.0699749 0.569072 0)
(-0.0572549 0.500195 0)
(-0.0185859 0.385426 0)
(0.0443636 0.219546 0)
(0.13165 0.00571389 0)
(0.237399 -0.238164 0)
(0.342885 -0.474525 0)
(0.437114 -0.67206 0)
(0.517843 -0.823213 0)
(0.583469 -0.93175 0)
(0.634495 -1.00621 0)
(0.670485 -1.05225 0)
(0.690632 -1.0753 0)
(0.693819 -1.08899 0)
(0.673362 -1.09669 0)
(0.633837 -1.10554 0)
(0.59003 -1.11069 0)
(0.555352 -1.09826 0)
(0.543715 -1.05266 0)
(0.549874 -0.962374 0)
(0.593842 -0.813914 0)
(0.670385 -0.612329 0)
(0.768458 -0.375453 0)
(0.879464 -0.126271 0)
(0.992774 0.112234 0)
(1.10103 0.325671 0)
(1.19899 0.505 0)
(1.28287 0.646149 0)
(1.35112 0.749523 0)
(1.40385 0.818874 0)
(1.4422 0.860633 0)
(1.46778 0.881716 0)
(1.48339 0.887484 0)
(1.49149 0.882343 0)
(1.49159 0.867532 0)
(1.48658 0.849201 0)
(1.47912 0.831549 0)
(1.46997 0.816332 0)
(1.45932 0.803996 0)
(1.44731 0.794554 0)
(1.43394 0.787981 0)
(1.41907 0.7847 0)
(1.40205 0.785627 0)
(1.38195 0.791935 0)
(1.35798 0.804134 0)
(1.32993 0.820513 0)
(1.29932 0.835838 0)
(1.26815 0.842753 0)
(1.23817 0.832489 0)
(1.21218 0.796614 0)
(1.19189 0.730528 0)
(1.17849 0.634095 0)
(1.17267 0.510975 0)
(1.17488 0.367531 0)
(1.18528 0.21185 0)
(1.20315 0.0536449 0)
(1.22705 -0.0983745 0)
(1.25546 -0.238328 0)
(1.28666 -0.361829 0)
(1.31884 -0.466221 0)
(1.35037 -0.550568 0)
(1.37994 -0.615556 0)
(1.40658 -0.663102 0)
(1.42975 -0.695756 0)
(1.44924 -0.716261 0)
(1.46522 -0.727286 0)
(1.478 -0.731099 0)
(1.48759 -0.729668 0)
(1.49397 -0.725192 0)
(1.49753 -0.719773 0)
(1.49875 -0.714907 0)
(1.49786 -0.71138 0)
(1.49493 -0.709806 0)
(1.49003 -0.710867 0)
(1.48306 -0.715018 0)
(1.47401 -0.722151 0)
(1.46288 -0.73137 0)
(1.44999 -0.740774 0)
(1.43599 -0.747668 0)
(1.42105 -0.749203 0)
(1.4056 -0.742245 0)
(1.38988 -0.72396 0)
(1.37427 -0.692377 0)
(1.35917 -0.646566 0)
(1.34502 -0.586459 0)
(1.33239 -0.512711 0)
(1.32193 -0.426595 0)
(1.31432 -0.329981 0)
(1.31013 -0.225341 0)
(1.30977 -0.115853 0)
(1.31328 -0.00566659 0)
(1.3203 0.101544 0)
(1.33034 0.202959 0)
(1.34279 0.296151 0)
(1.35689 0.379305 0)
(1.37192 0.451295 0)
(1.38722 0.511758 0)
(1.40216 0.560879 0)
(1.41624 0.599381 0)
(1.42906 0.628368 0)
(1.44028 0.649126 0)
(1.44968 0.663107 0)
(1.45707 0.671787 0)
(1.46239 0.676411 0)
(1.46564 0.678351 0)
(1.46684 0.678835 0)
(1.46585 0.678624 0)
(1.46261 0.678348 0)
(1.45738 0.678453 0)
(1.45035 0.678836 0)
(1.44169 0.678885 0)
(1.43165 0.677571 0)
(1.42048 0.673638 0)
(1.4084 0.66572 0)
(1.39568 0.65249 0)
(1.38257 0.632903 0)
(1.36934 0.606207 0)
(1.35627 0.571889 0)
(1.34367 0.529661 0)
(1.33194 0.47946 0)
(1.3215 0.421455 0)
(1.31281 0.356093 0)
(1.30627 0.284147 0)
(1.30223 0.20676 0)
(1.30095 0.125451 0)
(1.3025 0.0421351 0)
(1.30676 -0.040858 0)
(1.31346 -0.121638 0)
(1.32226 -0.198643 0)
(1.33272 -0.270499 0)
(1.34439 -0.336117 0)
(1.35679 -0.394768 0)
(1.36945 -0.446075 0)
(1.38196 -0.490009 0)
(1.33731 0.209157 0)
(1.33706 0.124864 0)
(1.33929 0.0385856 0)
(1.34385 -0.0470873 0)
(1.35044 -0.130208 0)
(1.35874 -0.209136 0)
(1.36831 -0.282414 0)
(1.37872 -0.348935 0)
(1.38952 -0.407985 0)
(1.40032 -0.459232 0)
(1.41075 -0.502687 0)
(0.460527 0.021638 0)
(0.427785 0.0208738 0)
(1.32743 0.0526174 0)
(1.30395 0.0539826 0)
(1.73087 0.071159 0)
(1.72027 0.0735968 0)
(1.87992 0.0767058 0)
(1.87662 0.0797233 0)
(1.92667 0.0782487 0)
(1.9262 0.0813848 0)
(1.93829 0.0778823 0)
(1.93866 0.0809781 0)
(1.94059 0.0774344 0)
(1.94096 0.0804188 0)
(1.94147 0.0772235 0)
(1.94158 0.0800309 0)
(1.94237 0.0773539 0)
(1.94216 0.0799438 0)
(1.94337 0.0779265 0)
(1.9428 0.080244 0)
(1.94434 0.0789316 0)
(1.94338 0.0809151 0)
(1.94512 0.0804513 0)
(1.94374 0.082024 0)
(1.94557 0.0825158 0)
(1.94371 0.0835829 0)
(1.94554 0.0852086 0)
(1.94316 0.0856501 0)
(1.94491 0.0885772 0)
(1.94195 0.0882709 0)
(1.9435 0.092702 0)
(1.93991 0.0914982 0)
(1.9411 0.0976107 0)
(1.93689 0.0953978 0)
(1.93757 0.103378 0)
(1.93268 0.100002 0)
(1.93268 0.109969 0)
(1.92715 0.105306 0)
(1.92626 0.117335 0)
(1.92018 0.111294 0)
(1.91841 0.125295 0)
(1.91198 0.117841 0)
(1.9107 0.133527 0)
(1.90416 0.124761 0)
(1.90459 0.14173 0)
(1.89852 0.131673 0)
(1.88605 0.149152 0)
(1.88205 0.138499 0)
(1.83423 0.151401 0)
(1.83453 0.140718 0)
(1.71327 0.149852 0)
(1.72194 0.141307 0)
(1.45855 0.128011 0)
(1.47415 0.127466 0)
(0.936254 0.103544 0)
(0.964223 0.107199 0)
(0.31408 0.0608119 0)
(0.342435 0.0797671 0)
(0.0300702 0.0399454 0)
(0.101953 0.0591836 0)
(0.395646 0.019017 0)
(0.364469 0.0162177 0)
(0.334509 0.0130394 0)
(0.306175 0.00985143 0)
(0.279775 0.00677755 0)
(0.255397 0.00386663 0)
(0.233059 0.00111322 0)
(0.212835 -0.00165304 0)
(0.1948 -0.00442659 0)
(0.17903 -0.00716444 0)
(0.165597 -0.009802 0)
(0.15448 -0.0120897 0)
(0.145421 -0.013524 0)
(0.137947 -0.0137784 0)
(0.131515 -0.0129703 0)
(0.125592 -0.0112785 0)
(0.119712 -0.00876052 0)
(0.113395 -0.00539361 0)
(0.106055 -0.00133948 0)
(0.0969994 0.00296815 0)
(0.0854256 0.0069753 0)
(0.0702761 0.0101461 0)
(0.0509065 0.0119752 0)
(0.0282853 0.0124995 0)
(0.00405654 0.0115868 0)
(-0.0190516 0.00990641 0)
(-0.0392471 0.00775844 0)
(-0.0556663 0.00545557 0)
(-0.0677461 0.00322124 0)
(-0.0753984 0.00114635 0)
(-0.0786709 -0.000689532 0)
(-0.0782321 -0.00246246 0)
(-0.0751492 -0.00355622 0)
(-0.0699523 -0.00414042 0)
(-0.0633306 -0.00428288 0)
(-0.0559222 -0.00423478 0)
(-0.0481494 -0.00418653 0)
(-0.0400427 -0.00425617 0)
(-0.0315163 -0.00450129 0)
(-0.0223261 -0.00488159 0)
(-0.0121112 -0.00536097 0)
(-0.00047047 -0.00581684 0)
(0.0123441 -0.00625685 0)
(0.0259622 -0.00644989 0)
(0.0400285 -0.0062545 0)
(0.0537272 -0.0055799 0)
(0.0659434 -0.00445375 0)
(0.0752314 -0.00286144 0)
(0.0800345 -0.000784777 0)
(0.0793748 0.00216747 0)
(0.0721849 0.00613012 0)
(0.0579448 0.0104466 0)
(0.0365421 0.0142103 0)
(0.00812806 0.0167933 0)
(-0.0242144 0.0184503 0)
(-0.0575436 0.0187974 0)
(-0.0896161 0.017344 0)
(-0.11683 0.0138806 0)
(-0.135115 0.00852041 0)
(-0.142527 0.00227397 0)
(-0.138373 -0.00477972 0)
(-0.124959 -0.0109946 0)
(-0.10305 -0.0156839 0)
(-0.0748714 -0.0187467 0)
(-0.0421771 -0.0203434 0)
(-0.00677278 -0.0207084 0)
(0.0288267 -0.0202517 0)
(0.0637383 -0.01924 0)
(0.0976364 -0.0177622 0)
(0.129545 -0.015839 0)
(0.158625 -0.0136054 0)
(0.184488 -0.0111326 0)
(0.206878 -0.00860197 0)
(0.225163 -0.00634803 0)
(0.238629 -0.00432512 0)
(0.246711 -0.0023448 0)
(0.249318 0.000126454 0)
(0.246091 0.00351778 0)
(0.236782 0.00721836 0)
(0.22114 0.0110606 0)
(0.199455 0.0143022 0)
(0.173188 0.0164641 0)
(0.144565 0.0174743 0)
(0.11557 0.0175001 0)
(0.0880752 0.0161974 0)
(0.0646233 0.013473 0)
(0.047292 0.00998221 0)
(0.0368437 0.00623032 0)
(0.0334479 0.00267916 0)
(0.0358886 -0.000751163 0)
(0.0430029 -0.00337974 0)
(0.0544232 -0.00533098 0)
(0.0692699 -0.00667426 0)
(0.0864982 -0.00746935 0)
(0.105115 -0.0078741 0)
(0.124259 -0.00798072 0)
(0.143227 -0.00784031 0)
(0.161427 -0.00749974 0)
(0.178326 -0.00700295 0)
(0.193605 -0.00639689 0)
(0.206967 -0.00569502 0)
(0.218219 -0.00489162 0)
(0.227253 -0.00399117 0)
(0.234045 -0.00302615 0)
(0.238602 -0.00206607 0)
(0.240863 -0.00112887 0)
(0.240988 9.06772e-05 0)
(0.238953 0.00138727 0)
(0.234838 0.00264006 0)
(0.228632 0.00383628 0)
(0.220484 0.00485785 0)
(0.210649 0.0056947 0)
(0.19944 0.00631081 0)
(0.187251 0.00667546 0)
(0.174524 0.00679272 0)
(0.16175 0.00667093 0)
(0.14944 0.00632745 0)
(0.138007 0.00576141 0)
(0.127934 0.00495605 0)
(0.119662 0.00393205 0)
(0.113603 0.00275441 0)
(0.110153 0.00150592 0)
(0.109381 0.000158906 0)
(0.111156 -0.00123947 0)
(0.115358 -0.00245827 0)
(0.121852 -0.00351576 0)
(0.130322 -0.00435393 0)
(0.140349 -0.00495724 0)
(0.151467 -0.00532662 0)
(0.16319 -0.00547998 0)
(0.175063 -0.00545364 0)
(0.186668 -0.00529449 0)
(0.197723 -0.00504764 0)
(0.207992 -0.00474804 0)
(0.217309 -0.00442706 0)
(0.225581 -0.00410157 0)
(0.232745 -0.00376473 0)
(1.27848 0.0547492 0)
(1.25093 0.0548887 0)
(1.22139 0.0544961 0)
(1.18993 0.0536485 0)
(1.1567 0.0524088 0)
(1.12183 0.050841 0)
(1.0854 0.0490579 0)
(1.04748 0.0471339 0)
(1.00806 0.0450917 0)
(0.967072 0.0429356 0)
(0.924407 0.0406676 0)
(0.879963 0.0383093 0)
(0.833588 0.0358906 0)
(0.785644 0.0334378 0)
(0.737208 0.0310347 0)
(0.688616 0.0287779 0)
(0.640382 0.0267892 0)
(0.59303 0.0251831 0)
(0.54733 0.0241694 0)
(0.503722 0.0242949 0)
(0.462572 0.0262142 0)
(0.424626 0.029776 0)
(0.390317 0.0339154 0)
(0.359375 0.0368241 0)
(0.331332 0.0369317 0)
(0.305517 0.0340785 0)
(0.282258 0.0288806 0)
(0.261903 0.0223596 0)
(0.244787 0.0155236 0)
(0.231407 0.00886713 0)
(0.221751 0.00252833 0)
(0.215977 -0.00322085 0)
(0.21392 -0.00772885 0)
(0.213901 -0.0105712 0)
(0.215393 -0.012325 0)
(0.218008 -0.0131915 0)
(0.221366 -0.0138643 0)
(0.225149 -0.0147101 0)
(0.229067 -0.016028 0)
(0.232952 -0.0179498 0)
(0.236838 -0.0203282 0)
(0.240916 -0.022878 0)
(0.245234 -0.0253322 0)
(0.249667 -0.0269485 0)
(0.254109 -0.0272146 0)
(0.258181 -0.0257267 0)
(0.2615 -0.0211984 0)
(0.263245 -0.0139914 0)
(0.262822 -0.00412849 0)
(0.259241 0.00828134 0)
(0.250696 0.0217009 0)
(0.236048 0.0344023 0)
(0.216811 0.044508 0)
(0.1954 0.0506728 0)
(0.173275 0.0530585 0)
(0.152593 0.0513327 0)
(0.135885 0.0448556 0)
(0.12553 0.032906 0)
(0.123462 0.0169508 0)
(0.128875 -0.00155983 0)
(0.142329 -0.0201384 0)
(0.164465 -0.0358967 0)
(0.192718 -0.0477978 0)
(0.224811 -0.0556245 0)
(0.25864 -0.0597946 0)
(0.292514 -0.0611655 0)
(0.325397 -0.0606647 0)
(0.356432 -0.0589168 0)
(0.38496 -0.0562178 0)
(0.410755 -0.0525496 0)
(0.433836 -0.0479226 0)
(0.454263 -0.0428513 0)
(0.471888 -0.0371753 0)
(0.486307 -0.0289485 0)
(0.497359 -0.0192263 0)
(0.505015 -0.00884845 0)
(0.508921 0.00204359 0)
(0.507778 0.0133873 0)
(0.500109 0.0245446 0)
(0.485106 0.0347048 0)
(0.463202 0.0424304 0)
(0.436716 0.0465068 0)
(0.408828 0.0468568 0)
(0.382094 0.0438385 0)
(0.358807 0.037543 0)
(0.341141 0.0284896 0)
(0.330052 0.0178971 0)
(0.325186 0.00702606 0)
(0.32547 -0.00346513 0)
(0.331053 -0.0129109 0)
(0.341747 -0.0207752 0)
(0.356552 -0.0269259 0)
(0.374707 -0.0313145 0)
(0.39525 -0.0339191 0)
(0.417222 -0.0349493 0)
(0.439978 -0.034643 0)
(0.462941 -0.0332179 0)
(0.485444 -0.0309524 0)
(0.506855 -0.0279764 0)
(0.526452 -0.024395 0)
(0.543613 -0.0204413 0)
(0.557824 -0.0163202 0)
(0.568714 -0.0122362 0)
(0.576129 -0.00836434 0)
(0.580226 -0.00466311 0)
(0.581267 -0.000797809 0)
(0.579087 0.00313473 0)
(0.573719 0.00689409 0)
(0.565524 0.0104211 0)
(0.554937 0.0136553 0)
(0.542505 0.0164853 0)
(0.528759 0.0187765 0)
(0.514139 0.0204235 0)
(0.499176 0.0213807 0)
(0.484464 0.0216519 0)
(0.470457 0.0211461 0)
(0.457691 0.019723 0)
(0.446805 0.0174588 0)
(0.43822 0.0145064 0)
(0.43217 0.0110212 0)
(0.428762 0.00707763 0)
(0.428065 0.00263799 0)
(0.430013 -0.00209681 0)
(0.434671 -0.00676342 0)
(0.442022 -0.0110555 0)
(0.45169 -0.0147539 0)
(0.46327 -0.0177061 0)
(0.476296 -0.0198309 0)
(0.490246 -0.0211009 0)
(0.504618 -0.0215364 0)
(0.518903 -0.0212354 0)
(0.532745 -0.0203251 0)
(0.545821 -0.0189263 0)
(0.55787 -0.0171445 0)
(0.56869 -0.015087 0)
(0.578184 -0.0128473 0)
(0.586276 -0.0105011 0)
(1.7088 0.0756513 0)
(1.69636 0.0773062 0)
(1.68282 0.0785927 0)
(1.66804 0.079569 0)
(1.65197 0.0803116 0)
(1.63455 0.0808912 0)
(1.61569 0.0813695 0)
(1.59531 0.0818015 0)
(1.5733 0.0822448 0)
(1.54956 0.0827676 0)
(1.52399 0.0834481 0)
(1.4965 0.0843732 0)
(1.46709 0.0855995 0)
(1.43566 0.0870358 0)
(1.40176 0.0884731 0)
(1.36534 0.0897673 0)
(1.32642 0.0907937 0)
(1.28511 0.0913895 0)
(1.24167 0.0914715 0)
(1.1965 0.0910673 0)
(1.15006 0.0902226 0)
(1.10348 0.0889012 0)
(1.05879 0.0867484 0)
(1.01689 0.0831733 0)
(0.978445 0.0776704 0)
(0.943648 0.0700681 0)
(0.912434 0.0604873 0)
(0.88489 0.0494405 0)
(0.860999 0.0376692 0)
(0.840862 0.0261048 0)
(0.824118 0.0154139 0)
(0.809521 0.0061598 0)
(0.797156 -0.00151784 0)
(0.787106 -0.00733816 0)
(0.779069 -0.010833 0)
(0.772682 -0.0126754 0)
(0.767539 -0.013466 0)
(0.763056 -0.0136101 0)
(0.758681 -0.0133347 0)
(0.753989 -0.0128938 0)
(0.748372 -0.012599 0)
(0.741232 -0.0124244 0)
(0.732052 -0.012164 0)
(0.720401 -0.0115248 0)
(0.706179 -0.0101629 0)
(0.689345 -0.00788606 0)
(0.670185 -0.00466531 0)
(0.649844 -0.000360351 0)
(0.629911 0.006023 0)
(0.610224 0.0161332 0)
(0.591498 0.0296056 0)
(0.576298 0.0434644 0)
(0.565541 0.0542348 0)
(0.559181 0.0598619 0)
(0.55672 0.0608765 0)
(0.55768 0.0581462 0)
(0.563944 0.0477168 0)
(0.575027 0.0303221 0)
(0.590431 0.00755792 0)
(0.609007 -0.0182484 0)
(0.631416 -0.0433773 0)
(0.656201 -0.0645043 0)
(0.682188 -0.080351 0)
(0.70839 -0.0901736 0)
(0.733803 -0.094021 0)
(0.757754 -0.0932822 0)
(0.779772 -0.0893726 0)
(0.79917 -0.0831481 0)
(0.815081 -0.0754513 0)
(0.826909 -0.0670692 0)
(0.834526 -0.0583977 0)
(0.837907 -0.0493049 0)
(0.836832 -0.0399153 0)
(0.832102 -0.0308775 0)
(0.825258 -0.0223812 0)
(0.817609 -0.0139867 0)
(0.810576 -0.00434183 0)
(0.804853 0.0082196 0)
(0.800065 0.0249325 0)
(0.79456 0.0446292 0)
(0.787392 0.0623189 0)
(0.778256 0.0732676 0)
(0.766754 0.0757207 0)
(0.754151 0.0738776 0)
(0.740914 0.0658129 0)
(0.727558 0.0496412 0)
(0.715017 0.0310342 0)
(0.704665 0.0130934 0)
(0.697299 -0.00330906 0)
(0.693735 -0.0179878 0)
(0.693913 -0.0309908 0)
(0.697712 -0.0420653 0)
(0.704884 -0.0507048 0)
(0.714972 -0.0558452 0)
(0.727394 -0.0589604 0)
(0.741373 -0.0605074 0)
(0.756316 -0.0602136 0)
(0.772001 -0.0581057 0)
(0.788304 -0.0542758 0)
(0.80489 -0.0489944 0)
(0.821195 -0.0423554 0)
(0.836535 -0.034512 0)
(0.850233 -0.0258912 0)
(0.861677 -0.0171031 0)
(0.870431 -0.00855082 0)
(0.876287 -0.000330543 0)
(0.879242 0.00757554 0)
(0.879169 0.0152725 0)
(0.875962 0.022411 0)
(0.869814 0.0286499 0)
(0.861039 0.0332459 0)
(0.850137 0.0368041 0)
(0.838018 0.0390354 0)
(0.825739 0.0395697 0)
(0.813849 0.0385103 0)
(0.802663 0.0360081 0)
(0.792682 0.0321762 0)
(0.784435 0.0271718 0)
(0.778221 0.0212496 0)
(0.774201 0.0146434 0)
(0.77249 0.00750338 0)
(0.773051 0.000105847 0)
(0.77593 -0.00734039 0)
(0.781105 -0.0144601 0)
(0.788208 -0.0210029 0)
(0.796895 -0.0266848 0)
(0.806825 -0.0312319 0)
(0.817641 -0.0344682 0)
(0.828973 -0.0363027 0)
(0.840383 -0.036762 0)
(0.851544 -0.0361171 0)
(0.862229 -0.0345955 0)
(0.872208 -0.0323297 0)
(0.881261 -0.029512 0)
(0.889242 -0.0264183 0)
(0.896126 -0.0232549 0)
(0.901945 -0.0200445 0)
(1.87297 0.0824592 0)
(1.86888 0.0848345 0)
(1.86429 0.0871633 0)
(1.85908 0.0890588 0)
(1.8532 0.0907626 0)
(1.84657 0.0923785 0)
(1.83914 0.0940268 0)
(1.83082 0.0957384 0)
(1.82157 0.0975749 0)
(1.81131 0.0995985 0)
(1.79997 0.101858 0)
(1.7875 0.104384 0)
(1.77387 0.107186 0)
(1.75905 0.110248 0)
(1.74305 0.113511 0)
(1.72583 0.116858 0)
(1.70727 0.120148 0)
(1.68729 0.123225 0)
(1.666 0.125916 0)
(1.64352 0.128079 0)
(1.62002 0.129521 0)
(1.59579 0.129769 0)
(1.57114 0.128257 0)
(1.54624 0.124462 0)
(1.52117 0.118039 0)
(1.49592 0.108979 0)
(1.4705 0.097611 0)
(1.44496 0.0845418 0)
(1.4193 0.0704798 0)
(1.3936 0.0561818 0)
(1.36828 0.0425887 0)
(1.3437 0.0304538 0)
(1.32022 0.020376 0)
(1.29808 0.0123897 0)
(1.27733 0.00632303 0)
(1.25802 0.00195791 0)
(1.24018 -0.000981341 0)
(1.22369 -0.0028138 0)
(1.20832 -0.00385612 0)
(1.19384 -0.00435833 0)
(1.17993 -0.00441546 0)
(1.16625 -0.00392786 0)
(1.15258 -0.00264377 0)
(1.13887 -0.00026121 0)
(1.12504 0.00352161 0)
(1.11092 0.00890444 0)
(1.09664 0.0158957 0)
(1.08233 0.0241367 0)
(1.06786 0.0332999 0)
(1.05263 0.0434622 0)
(1.03828 0.0541291 0)
(1.02777 0.0617943 0)
(1.02215 0.0642301 0)
(1.02073 0.0639476 0)
(1.02222 0.0604122 0)
(1.02825 0.0507831 0)
(1.03851 0.034864 0)
(1.05129 0.0131119 0)
(1.06572 -0.0127131 0)
(1.08084 -0.040386 0)
(1.09538 -0.0659686 0)
(1.10908 -0.0871765 0)
(1.1222 -0.10295 0)
(1.13465 -0.112345 0)
(1.14661 -0.115305 0)
(1.15816 -0.113927 0)
(1.16942 -0.109308 0)
(1.18044 -0.101576 0)
(1.19096 -0.0911513 0)
(1.20053 -0.0789596 0)
(1.20866 -0.0655427 0)
(1.2149 -0.0514057 0)
(1.21902 -0.0368406 0)
(1.22071 -0.0221269 0)
(1.21947 -0.00780219 0)
(1.21475 0.00554944 0)
(1.20577 0.0176054 0)
(1.19293 0.0288801 0)
(1.17778 0.0409623 0)
(1.16332 0.0542365 0)
(1.15253 0.0660248 0)
(1.14584 0.073659 0)
(1.14187 0.0770981 0)
(1.13833 0.0764236 0)
(1.13513 0.0703672 0)
(1.13082 0.0591666 0)
(1.12399 0.044212 0)
(1.11514 0.0270578 0)
(1.10527 0.00907472 0)
(1.09576 -0.00826302 0)
(1.08722 -0.0243002 0)
(1.07965 -0.0384301 0)
(1.07315 -0.0500795 0)
(1.06819 -0.0587435 0)
(1.06516 -0.0642381 0)
(1.06381 -0.0668004 0)
(1.06369 -0.0673182 0)
(1.06464 -0.0670208 0)
(1.06648 -0.0652621 0)
(1.06924 -0.0614436 0)
(1.0731 -0.0559747 0)
(1.07805 -0.0488588 0)
(1.08374 -0.0403976 0)
(1.08984 -0.0310455 0)
(1.09614 -0.0211231 0)
(1.10232 -0.0108124 0)
(1.10806 -0.00030595 0)
(1.11319 0.0101171 0)
(1.11756 0.0201846 0)
(1.121 0.0295017 0)
(1.12322 0.0375797 0)
(1.12412 0.043653 0)
(1.12409 0.0471009 0)
(1.12318 0.0481174 0)
(1.12141 0.0477812 0)
(1.11904 0.0461004 0)
(1.11635 0.0417569 0)
(1.11364 0.0354687 0)
(1.11127 0.027755 0)
(1.10959 0.01903 0)
(1.10881 0.00963595 0)
(1.10906 -0.000118444 0)
(1.1105 -0.00981966 0)
(1.11327 -0.0191237 0)
(1.11733 -0.0276138 0)
(1.12247 -0.0348617 0)
(1.12845 -0.0405934 0)
(1.13511 -0.0447076 0)
(1.14232 -0.0471036 0)
(1.14979 -0.0477187 0)
(1.15728 -0.0468175 0)
(1.16482 -0.0447191 0)
(1.17243 -0.0416111 0)
(1.17995 -0.0376521 0)
(1.18706 -0.0330931 0)
(1.19351 -0.0282219 0)