/*--------------------------------*- C++ -*----------------------------------*\
| =========                 |                                                 |
| \\      /  F ield         | OpenFOAM: The Open Source CFD Toolbox           |
|  \\    /   O peration     | Version:  2206                                  |
|   \\  /    A nd           | Website:  www.openfoam.com                      |
|    \\/     M anipulation  |                                                 |
\*---------------------------------------------------------------------------*/
FoamFile
{
    version     2.0;
    format      ascii;
    arch        "LSB;label=32;scalar=64";
    class       volVectorField;
    location    "19.4001";
    object      U_0;
}
// * * * * * * * * * * * * * * * * * * * * * * * * * * * * * * * * * * * * * //

dimensions      [0 1 -1 0 0 0 0];

internalField   nonuniform List<vector> 
1813
(
(1.76839 -0.24054 0)
(1.82258 -0.257227 0)
(1.88099 -0.263485 0)
(1.9427 -0.259385 0)
(2.0072 -0.245075 0)
(2.07449 -0.220671 0)
(2.144 -0.186877 0)
(2.2145 -0.144834 0)
(2.28142 -0.0982142 0)
(2.34104 -0.0494809 0)
(2.38898 -0.00277246 0)
(2.42358 0.0389984 0)
(2.44386 0.074413 0)
(2.44823 0.102385 0)
(2.43317 0.121538 0)
(2.39888 0.127953 0)
(2.34784 0.122596 0)
(2.28466 0.109752 0)
(2.21539 0.0945502 0)
(2.1463 0.0812775 0)
(2.08101 0.0726126 0)
(2.02174 0.0696579 0)
(1.96945 0.0716682 0)
(1.92416 0.0767102 0)
(1.88534 0.0823261 0)
(1.85225 0.0860028 0)
(1.8242 0.085568 0)
(1.80078 0.0793475 0)
(1.78215 0.0662656 0)
(1.76899 0.046386 0)
(1.76144 0.0202148 0)
(1.75979 -0.0110433 0)
(1.76425 -0.0456388 0)
(1.77478 -0.0815198 0)
(1.79098 -0.116511 0)
(1.81207 -0.148541 0)
(1.83729 -0.176129 0)
(1.8659 -0.198158 0)
(1.89719 -0.213847 0)
(1.93052 -0.222742 0)
(1.96521 -0.224669 0)
(2.00085 -0.219628 0)
(2.03703 -0.207699 0)
(2.07325 -0.189206 0)
(2.10883 -0.164844 0)
(2.1426 -0.135842 0)
(2.17273 -0.104128 0)
(2.19771 -0.0714508 0)
(2.21623 -0.0396136 0)
(2.22738 -0.0100136 0)
(2.23046 0.0163472 0)
(2.22438 0.0386913 0)
(2.20865 0.0554265 0)
(2.18422 0.0662186 0)
(2.15295 0.0721771 0)
(2.1176 0.0747621 0)
(2.08133 0.0753501 0)
(2.04656 0.0749257 0)
(2.01462 0.0738185 0)
(1.98628 0.0717469 0)
(1.96188 0.0681111 0)
(1.94149 0.062206 0)
(1.92504 0.0532863 0)
(1.91264 0.040782 0)
(1.9044 0.0246884 0)
(1.9001 0.00518911 0)
(1.89961 -0.0171449 0)
(1.90283 -0.0413424 0)
(1.90953 -0.0661009 0)
(1.91927 -0.0898321 0)
(1.93153 -0.111308 0)
(1.94586 -0.129633 0)
(1.96178 -0.144152 0)
(1.97887 -0.154439 0)
(1.99685 -0.160275 0)
(2.01539 -0.161607 0)
(2.03412 -0.158483 0)
(2.05279 -0.151005 0)
(2.07111 -0.139416 0)
(2.08881 -0.124105 0)
(2.1056 -0.105572 0)
(2.12107 -0.0844886 0)
(2.13446 -0.0619008 0)
(2.14507 -0.038817 0)
(2.15236 -0.0161091 0)
(2.15597 0.00540365 0)
(2.15571 0.0249982 0)
(2.15143 0.0421178 0)
(2.14312 0.0562577 0)
(2.13111 0.0669355 0)
(2.11623 0.0740298 0)
(2.09943 0.0778998 0)
(2.08178 0.0789841 0)
(2.06433 0.0776257 0)
(2.04775 0.073985 0)
(2.03261 0.0680364 0)
(2.01937 0.0597007 0)
(2.0084 0.0489328 0)
(1.99996 0.0358599 0)
(1.99414 0.0206731 0)
(1.99098 0.00372109 0)
(1.99049 -0.0144431 0)
(1.99255 -0.0329641 0)
(1.99688 -0.05074 0)
(2.00312 -0.0669283 0)
(2.01089 -0.0808162 0)
(2.01975 -0.0918917 0)
(2.02928 -0.0998648 0)
(2.03924 -0.104627 0)
(2.0495 -0.106177 0)
(2.05981 -0.104564 0)
(2.07001 -0.0998272 0)
(2.07985 -0.0921356 0)
(2.08908 -0.0818219 0)
(2.0975 -0.0692789 0)
(2.10496 -0.0549134 0)
(2.11123 -0.039174 0)
(2.11606 -0.0226328 0)
(2.11918 -0.00597221 0)
(2.12049 0.0102585 0)
(2.11992 0.0255425 0)
(1.87783 -0.291107 0)
(1.92719 -0.312316 0)
(1.97928 -0.321701 0)
(2.03298 -0.31971 0)
(2.08779 -0.307023 0)
(2.14342 -0.284386 0)
(2.19995 -0.25245 0)
(2.25761 -0.211485 0)
(2.31579 -0.162316 0)
(2.37212 -0.107536 0)
(2.42298 -0.0514207 0)
(2.46513 0.00252031 0)
(2.49627 0.0517265 0)
(2.51321 0.094736 0)
(2.51925 0.129479 0)
(2.511 0.156136 0)
(2.48308 0.170315 0)
(2.43879 0.172282 0)
(2.38117 0.166027 0)
(2.31465 0.155297 0)
(2.24523 0.143951 0)
(2.17813 0.134948 0)
(2.11644 0.129147 0)
(2.06215 0.125826 0)
(2.01609 0.123374 0)
(1.97818 0.119776 0)
(1.94773 0.112873 0)
(1.92401 0.100554 0)
(1.9069 0.081481 0)
(1.89616 0.0556004 0)
(1.89136 0.0234055 0)
(1.8924 -0.0138682 0)
(1.89912 -0.0544023 0)
(1.91114 -0.0958496 0)
(1.92767 -0.135548 0)
(1.94796 -0.171555 0)
(1.9713 -0.202401 0)
(1.99695 -0.227014 0)
(2.02431 -0.24469 0)
(2.05296 -0.255029 0)
(2.08252 -0.257864 0)
(2.11234 -0.253177 0)
(2.14204 -0.241097 0)
(2.17116 -0.222132 0)
(2.19941 -0.197003 0)
(2.22653 -0.166501 0)
(2.25194 -0.131797 0)
(2.27459 -0.0948135 0)
(2.29346 -0.0573077 0)
(2.3076 -0.0208135 0)
(2.31617 0.0132315 0)
(2.31844 0.0435645 0)
(2.31358 0.0693574 0)
(2.30065 0.0896165 0)
(2.27994 0.103099 0)
(2.25267 0.110263 0)
(2.22093 0.112372 0)
(2.18747 0.110779 0)
(2.15512 0.106677 0)
(2.12538 0.100617 0)
(2.09929 0.0924834 0)
(2.07748 0.0818846 0)
(2.06016 0.068238 0)
(2.0474 0.051109 0)
(2.03911 0.030652 0)
(2.03492 0.00709457 0)
(2.03459 -0.0190126 0)
(2.03783 -0.0467172 0)
(2.04421 -0.0745424 0)
(2.05315 -0.100835 0)
(2.06421 -0.124419 0)
(2.07687 -0.144352 0)
(2.09059 -0.160003 0)
(2.10491 -0.171068 0)
(2.11965 -0.177432 0)
(2.13472 -0.179034 0)
(2.14982 -0.175863 0)
(2.16476 -0.167992 0)
(2.17923 -0.155707 0)
(2.1929 -0.139489 0)
(2.20558 -0.119909 0)
(2.21711 -0.0975682 0)
(2.22725 -0.0731394 0)
(2.23562 -0.0475727 0)
(2.24178 -0.0219731 0)
(2.2455 0.00278078 0)
(2.24658 0.0258318 0)
(2.2449 0.0464355 0)
(2.24043 0.0639535 0)
(2.23326 0.0779185 0)
(2.22349 0.0879988 0)
(2.21151 0.093919 0)
(2.19811 0.0958415 0)
(2.18395 0.0944142 0)
(2.16978 0.0899494 0)
(2.15644 0.0823831 0)
(2.14471 0.0719074 0)
(2.13502 0.0587343 0)
(2.12757 0.0430634 0)
(2.12249 0.0251972 0)
(2.11984 0.00555154 0)
(2.11957 -0.0152483 0)
(2.12148 -0.0361048 0)
(2.12524 -0.0559043 0)
(2.13051 -0.0737156 0)
(2.13691 -0.0887673 0)
(2.14399 -0.100547 0)
(2.15128 -0.108859 0)
(2.15852 -0.113787 0)
(2.16582 -0.115426 0)
(2.17316 -0.113803 0)
(2.18049 -0.108839 0)
(2.18758 -0.10065 0)
(2.19419 -0.0896192 0)
(2.20013 -0.0761806 0)
(2.20526 -0.0607776 0)
(2.20944 -0.0438695 0)
(2.2125 -0.0259559 0)
(2.2143 -0.00774789 0)
(2.21473 0.0100671 0)
(2.2138 0.026942 0)
(1.99946 -0.336895 0)
(2.04092 -0.360505 0)
(2.08372 -0.37146 0)
(2.12719 -0.370341 0)
(2.17075 -0.358007 0)
(2.21424 -0.335524 0)
(2.25775 -0.303883 0)
(2.30171 -0.263664 0)
(2.34653 -0.215187 0)
(2.39189 -0.159112 0)
(2.4359 -0.0977874 0)
(2.47497 -0.0352357 0)
(2.50636 0.0244906 0)
(2.52914 0.0786061 0)
(2.53992 0.12545 0)
(2.54142 0.164626 0)
(2.53363 0.194857 0)
(2.50756 0.213878 0)
(2.46882 0.22106 0)
(2.41853 0.219275 0)
(2.36058 0.211506 0)
(2.30013 0.200896 0)
(2.24195 0.189844 0)
(2.18881 0.179055 0)
(2.14266 0.168132 0)
(2.10434 0.156005 0)
(2.07392 0.141012 0)
(2.05112 0.121015 0)
(2.03581 0.0949126 0)
(2.02719 0.0625315 0)
(2.02453 0.0242916 0)
(2.02741 -0.0186707 0)
(2.03532 -0.0644737 0)
(2.04757 -0.110455 0)
(2.0633 -0.153902 0)
(2.0818 -0.192925 0)
(2.10234 -0.226023 0)
(2.1241 -0.252161 0)
(2.14642 -0.270846 0)
(2.16912 -0.281884 0)
(2.19226 -0.285117 0)
(2.21543 -0.280468 0)
(2.23823 -0.267858 0)
(2.26015 -0.247917 0)
(2.28096 -0.221581 0)
(2.3006 -0.189672 0)
(2.31895 -0.153239 0)
(2.33584 -0.113847 0)
(2.35075 -0.0734228 0)
(2.36313 -0.0333622 0)
(2.37234 0.00527115 0)
(2.37756 0.0413067 0)
(2.37805 0.0734453 0)
(2.37338 0.100449 0)
(2.36317 0.121471 0)
(2.34718 0.135581 0)
(2.32641 0.142112 0)
(2.3023 0.142046 0)
(2.27648 0.137165 0)
(2.2507 0.128706 0)
(2.2268 0.117014 0)
(2.20606 0.102158 0)
(2.18923 0.083963 0)
(2.1766 0.0624143 0)
(2.16798 0.0376533 0)
(2.16317 0.0100115 0)
(2.16199 -0.0199005 0)
(2.16408 -0.0509961 0)
(2.16887 -0.0815586 0)
(2.17584 -0.11012 0)
(2.18454 -0.135438 0)
(2.19447 -0.156528 0)
(2.20507 -0.1728 0)
(2.2158 -0.184121 0)
(2.22645 -0.190643 0)
(2.23725 -0.192403 0)
(2.24811 -0.189269 0)
(2.25892 -0.181093 0)
(2.26936 -0.168156 0)
(2.2791 -0.151009 0)
(2.28795 -0.130283 0)
(2.29576 -0.106665 0)
(2.30245 -0.0808578 0)
(2.30788 -0.0536716 0)
(2.31189 -0.0262406 0)
(2.31439 0.000491303 0)
(2.31533 0.0256987 0)
(2.31463 0.0485654 0)
(2.31222 0.0683139 0)
(2.30821 0.0843 0)
(2.30285 0.0961598 0)
(2.29636 0.103834 0)
(2.28879 0.107335 0)
(2.28037 0.106649 0)
(2.27116 0.102031 0)
(2.2618 0.0935577 0)
(2.25328 0.081568 0)
(2.24609 0.0664838 0)
(2.24047 0.0487136 0)
(2.23659 0.0286739 0)
(2.23453 0.00684551 0)
(2.2342 -0.0160041 0)
(2.2353 -0.0386067 0)
(2.23751 -0.059856 0)
(2.24062 -0.078764 0)
(2.24438 -0.0945157 0)
(2.24854 -0.106561 0)
(2.25269 -0.114771 0)
(2.25645 -0.119493 0)
(2.26006 -0.12116 0)
(2.26382 -0.119667 0)
(2.26797 -0.11461 0)
(2.27221 -0.106157 0)
(2.27623 -0.0946749 0)
(2.27988 -0.0806119 0)
(2.28304 -0.0644324 0)
(2.28554 -0.0466145 0)
(2.28723 -0.0276722 0)
(2.28799 -0.00829506 0)
(2.28774 0.0106963 0)
(2.28651 0.0287218 0)
(2.1244 -0.374462 0)
(2.15614 -0.39864 0)
(2.18717 -0.409994 0)
(2.2179 -0.408878 0)
(2.24768 -0.39603 0)
(2.27679 -0.373226 0)
(2.30588 -0.341765 0)
(2.33574 -0.302166 0)
(2.36691 -0.254572 0)
(2.39962 -0.199083 0)
(2.43341 -0.136574 0)
(2.46642 -0.0695951 0)
(2.49539 -0.00302165 0)
(2.51808 0.0597645 0)
(2.53183 0.116235 0)
(2.53657 0.164694 0)
(2.53462 0.205234 0)
(2.52233 0.236962 0)
(2.50006 0.257482 0)
(2.46807 0.26586 0)
(2.42761 0.264494 0)
(2.38182 0.256056 0)
(2.33463 0.243008 0)
(2.28998 0.227322 0)
(2.25011 0.209822 0)
(2.2165 0.190247 0)
(2.1899 0.167295 0)
(2.17062 0.139469 0)
(2.1584 0.106259 0)
(2.15233 0.0674533 0)
(2.15178 0.0234747 0)
(2.15613 -0.0245931 0)
(2.16464 -0.0747891 0)
(2.1763 -0.124189 0)
(2.19027 -0.170326 0)
(2.20592 -0.211319 0)
(2.2226 -0.245589 0)
(2.23954 -0.27218 0)
(2.25603 -0.290924 0)
(2.27165 -0.302062 0)
(2.28705 -0.305446 0)
(2.30229 -0.300277 0)
(2.31705 -0.286827 0)
(2.33086 -0.265946 0)
(2.34364 -0.238557 0)
(2.35546 -0.2056 0)
(2.36691 -0.168193 0)
(2.37815 -0.127662 0)
(2.38804 -0.0852949 0)
(2.39579 -0.0427117 0)
(2.40113 -0.00124705 0)
(2.40421 0.0380546 0)
(2.40532 0.0737507 0)
(2.4045 0.104544 0)
(2.40163 0.12892 0)
(2.39652 0.146778 0)
(2.38866 0.157957 0)
(2.37707 0.162145 0)
(2.36149 0.159989 0)
(2.34375 0.152154 0)
(2.32549 0.138732 0)
(2.30889 0.120508 0)
(2.29501 0.0984284 0)
(2.28408 0.0730203 0)
(2.2762 0.0445763 0)
(2.27147 0.0134461 0)
(2.26978 -0.0197194 0)
(2.27068 -0.0535824 0)
(2.27353 -0.0863833 0)
(2.27786 -0.116733 0)
(2.28332 -0.143365 0)
(2.28961 -0.165261 0)
(2.29635 -0.181806 0)
(2.30305 -0.192972 0)
(2.30923 -0.199307 0)
(2.31527 -0.201243 0)
(2.32157 -0.198237 0)
(2.3281 -0.189935 0)
(2.33431 -0.176599 0)
(2.33992 -0.158801 0)
(2.34487 -0.13726 0)
(2.34907 -0.112686 0)
(2.35242 -0.0858152 0)
(2.35491 -0.0574676 0)
(2.35652 -0.0288053 0)
(2.35729 -0.000949108 0)
(2.35736 0.0253262 0)
(2.35681 0.0493818 0)
(2.35567 0.0703321 0)
(2.35401 0.0874206 0)
(2.35194 0.100145 0)
(2.34983 0.108178 0)
(2.34777 0.111902 0)
(2.34519 0.112454 0)
(2.34173 0.109486 0)
(2.3376 0.10086 0)
(2.33358 0.088267 0)
(2.33001 0.0721595 0)
(2.32705 0.0530563 0)
(2.32483 0.0315093 0)
(2.32334 0.00819591 0)
(2.32243 -0.0158763 0)
(2.32182 -0.0393429 0)
(2.32139 -0.0612516 0)
(2.32115 -0.0806834 0)
(2.3212 -0.0968427 0)
(2.32154 -0.109063 0)
(2.3221 -0.11705 0)
(2.32267 -0.121214 0)
(2.32324 -0.122538 0)
(2.32406 -0.12218 0)
(2.32544 -0.117519 0)
(2.32721 -0.109132 0)
(2.32904 -0.0975883 0)
(2.33078 -0.0832885 0)
(2.3323 -0.0666844 0)
(2.33343 -0.0482548 0)
(2.33407 -0.028542 0)
(2.33411 -0.00829321 0)
(2.33353 0.0115372 0)
(2.33236 0.030319 0)
(2.24573 -0.40239 0)
(2.26578 -0.424638 0)
(2.28287 -0.434258 0)
(2.2985 -0.432472 0)
(2.31223 -0.418478 0)
(2.32468 -0.395015 0)
(2.33743 -0.364184 0)
(2.35232 -0.326228 0)
(2.36982 -0.280647 0)
(2.39004 -0.227203 0)
(2.41283 -0.16619 0)
(2.43737 -0.0988493 0)
(2.4616 -0.0283117 0)
(2.48268 0.0408812 0)
(2.4985 0.105116 0)
(2.50757 0.161998 0)
(2.50905 0.210087 0)
(2.50388 0.248357 0)
(2.49314 0.276419 0)
(2.47561 0.293926 0)
(2.45239 0.300048 0)
(2.42426 0.295935 0)
(2.39258 0.283846 0)
(2.36025 0.265697 0)
(2.33044 0.243436 0)
(2.3051 0.217601 0)
(2.28549 0.187726 0)
(2.27206 0.153321 0)
(2.26437 0.113947 0)
(2.26185 0.0696255 0)
(2.26395 0.0207736 0)
(2.26996 -0.0314247 0)
(2.27889 -0.0848013 0)
(2.28952 -0.136367 0)
(2.30097 -0.183967 0)
(2.31267 -0.225808 0)
(2.32411 -0.260197 0)
(2.33491 -0.286134 0)
(2.34461 -0.303643 0)
(2.35274 -0.313439 0)
(2.36016 -0.316193 0)
(2.3669 -0.31199 0)
(2.37221 -0.297007 0)
(2.3766 -0.274715 0)
(2.3804 -0.246366 0)
(2.3839 -0.213118 0)
(2.38815 -0.175971 0)
(2.39312 -0.135344 0)
(2.39817 -0.0918059 0)
(2.40256 -0.04712 0)
(2.40503 -0.00363738 0)
(2.40636 0.037034 0)
(2.40687 0.073509 0)
(2.40672 0.104954 0)
(2.40595 0.130582 0)
(2.40411 0.149782 0)
(2.40141 0.162561 0)
(2.398 0.169205 0)
(2.39311 0.17015 0)
(2.38716 0.165026 0)
(2.38014 0.15201 0)
(2.37219 0.133379 0)
(2.36414 0.109871 0)
(2.35738 0.0821441 0)
(2.3524 0.0508764 0)
(2.34933 0.0168046 0)
(2.34812 -0.0189716 0)
(2.34823 -0.0546496 0)
(2.34912 -0.088749 0)
(2.35048 -0.12006 0)
(2.3522 -0.147418 0)
(2.35427 -0.169865 0)
(2.3567 -0.18664 0)
(2.3593 -0.197519 0)
(2.36162 -0.203032 0)
(2.36369 -0.204476 0)
(2.36565 -0.202433 0)
(2.36756 -0.193674 0)
(2.36899 -0.179773 0)
(2.36995 -0.161347 0)
(2.37059 -0.139158 0)
(2.37101 -0.11399 0)
(2.37124 -0.0865539 0)
(2.37126 -0.0576827 0)
(2.37102 -0.028595 0)
(2.37043 -0.000323552 0)
(2.36931 0.0263209 0)
(2.36786 0.0504719 0)
(2.36653 0.0713666 0)
(2.36547 0.0882647 0)
(2.36488 0.100589 0)
(2.3648 0.108237 0)
(2.36504 0.111767 0)
(2.36543 0.112462 0)
(2.36596 0.110019 0)
(2.36652 0.101686 0)
(2.36696 0.0892483 0)
(2.36722 0.0731935 0)
(2.36725 0.0541268 0)
(2.36698 0.032694 0)
(2.36625 0.00962555 0)
(2.36496 -0.0140882 0)
(2.36317 -0.0372113 0)
(2.36101 -0.0589202 0)
(2.35864 -0.0783993 0)
(2.35632 -0.0948065 0)
(2.35424 -0.1074 0)
(2.35257 -0.115895 0)
(2.3514 -0.120585 0)
(2.35073 -0.122268 0)
(2.35024 -0.121957 0)
(2.35002 -0.117798 0)
(2.35008 -0.10961 0)
(2.35028 -0.0981387 0)
(2.35049 -0.0837827 0)
(2.35063 -0.0670277 0)
(2.35064 -0.048381 0)
(2.35047 -0.0283915 0)
(2.35004 -0.00779664 0)
(2.34924 0.0124187 0)
(2.34806 0.0316328 0)
(2.3438 0.0334095 0)
(-0.0864407 -0.0021244 0)
(-0.0832924 -0.00113314 0)
(-0.0817734 -0.000295594 0)
(-0.0814628 0.000323027 0)
(-0.0818602 0.000646239 0)
(-0.0824838 0.000675983 0)
(-0.0828794 0.00047797 0)
(-0.0827197 0.000136431 0)
(-0.0818752 -0.000274667 0)
(-0.0803828 -0.000601464 0)
(-0.0784529 -0.000766226 0)
(-0.0764293 -0.000731772 0)
(-0.0746875 -0.000502463 0)
(-0.0735701 -0.000113553 0)
(-0.0733162 0.00037101 0)
(-0.0740095 0.000864634 0)
(-0.075625 0.00133724 0)
(-0.0780619 0.00172229 0)
(-0.0811464 0.00199347 0)
(-0.0846515 0.00214372 0)
(-0.0883265 0.00217155 0)
(-0.0919391 0.00208472 0)
(-0.0953063 0.00191914 0)
(-0.0983298 0.00171607 0)
(-0.100976 0.00151796 0)
(-0.103269 0.00135518 0)
(-0.105255 0.00122504 0)
(-0.106967 0.00111341 0)
(-0.108413 0.00100768 0)
(-0.109551 0.000875311 0)
(-0.110294 0.000693511 0)
(-0.110544 0.000440265 0)
(-0.110188 0.000138369 0)
(-0.1091 -0.000212945 0)
(-0.107204 -0.000603592 0)
(-0.104466 -0.00101134 0)
(-0.100901 -0.00140666 0)
(-0.0965731 -0.00175962 0)
(-0.0915909 -0.0020464 0)
(-0.0860979 -0.00224966 0)
(-0.0802642 -0.00235908 0)
(-0.0742716 -0.00237509 0)
(-0.0682984 -0.00230411 0)
(-0.0625146 -0.00214828 0)
(-0.0570645 -0.00192969 0)
(-0.0520547 -0.00166563 0)
(-0.0475576 -0.00137457 0)
(-0.0436082 -0.00107139 0)
(-0.0402097 -0.00077856 0)
(-0.0373519 -0.000507041 0)
(-0.0349829 -0.000253445 0)
(-0.0331046 -4.54429e-06 0)
(-0.0316578 0.000212919 0)
(-0.0305918 0.000405397 0)
(-0.0298653 0.000570453 0)
(-0.0294415 0.000708665 0)
(-0.0292335 0.000825287 0)
(-0.029222 0.000906124 0)
(-0.029332 0.000939738 0)
(-0.0294533 0.0009214 0)
(-0.0295094 0.000803636 0)
(-0.0293432 0.000586582 0)
(-0.0288275 0.000298534 0)
(-0.027805 -4.96209e-05 0)
(-0.026137 -0.00044789 0)
(-0.0237083 -0.000882968 0)
(-0.0204427 -0.0013378 0)
(-0.0163289 -0.00179238 0)
(-0.011326 -0.00219775 0)
(-0.00549298 -0.00257591 0)
(0.00103487 -0.00287354 0)
(0.00811469 -0.00310547 0)
(0.0155656 -0.00324549 0)
(0.0232163 -0.00328263 0)
(0.0308737 -0.00321077 0)
(0.038326 -0.00304124 0)
(0.0453547 -0.00277972 0)
(0.0517861 -0.0024371 0)
(0.0574753 -0.0020284 0)
(0.0623018 -0.00157448 0)
(0.0661887 -0.0010907 0)
(0.0690988 -0.000598639 0)
(0.0710247 -0.00011499 0)
(0.0719855 0.000355672 0)
(0.072077 0.000821134 0)
(0.071389 0.00120536 0)
(0.0699969 0.00152808 0)
(0.0680094 0.00179223 0)
(0.0655523 0.00199112 0)
(0.0627637 0.00212404 0)
(0.0597838 0.00218669 0)
(0.0567565 0.00217303 0)
(0.0538351 0.00208544 0)
(0.0511749 0.00192459 0)
(0.0489221 0.0016939 0)
(0.0472169 0.00140641 0)
(0.0461952 0.00103947 0)
(0.0459409 0.000576365 0)
(0.0464738 6.5954e-05 0)
(0.0478616 -0.000433624 0)
(0.0501657 -0.000920477 0)
(0.0533863 -0.00138398 0)
(0.0574861 -0.00181163 0)
(0.0623946 -0.0021919 0)
(0.0680115 -0.00251344 0)
(0.0742093 -0.0027688 0)
(0.0808421 -0.00295109 0)
(0.0877462 -0.00305531 0)
(0.0947512 -0.00307842 0)
(0.10168 -0.00301934 0)
(0.108366 -0.00288417 0)
(0.114651 -0.0026828 0)
(0.120405 -0.00242504 0)
(0.125516 -0.00211771 0)
(0.129892 -0.00177225 0)
(0.133462 -0.00140135 0)
(0.136178 -0.00101128 0)
(0.138012 -0.000612284 0)
(0.138953 -0.0002144 0)
(0.139063 0.000210987 0)
(0.138387 0.0006052 0)
(-0.116372 -0.00601384 0)
(-0.112933 -0.00336271 0)
(-0.111001 -0.00121809 0)
(-0.110142 0.000216681 0)
(-0.109892 0.000868712 0)
(-0.109706 0.00078558 0)
(-0.109076 5.06019e-05 0)
(-0.107571 -0.00111421 0)
(-0.105274 -0.00222113 0)
(-0.102259 -0.00308202 0)
(-0.0988157 -0.00346682 0)
(-0.0953141 -0.00328133 0)
(-0.092115 -0.00255086 0)
(-0.0895453 -0.00139189 0)
(-0.0878476 3.95119e-05 0)
(-0.0870795 0.00157972 0)
(-0.0872798 0.00297253 0)
(-0.0883548 0.0040968 0)
(-0.0900657 0.00491741 0)
(-0.0921484 0.00536254 0)
(-0.0943339 0.00542421 0)
(-0.0963614 0.00515049 0)
(-0.0980157 0.00464257 0)
(-0.099183 0.00404149 0)
(-0.099853 0.00344761 0)
(-0.100075 0.00293827 0)
(-0.0998993 0.00248339 0)
(-0.0993356 0.00205602 0)
(-0.0983984 0.00159133 0)
(-0.0970477 0.00102338 0)
(-0.0951866 0.000290984 0)
(-0.0926742 -0.000646819 0)
(-0.0893789 -0.00176993 0)
(-0.085205 -0.0030364 0)
(-0.0800872 -0.0043806 0)
(-0.0740182 -0.00571267 0)
(-0.0670598 -0.0069527 0)
(-0.0593065 -0.00803815 0)
(-0.0508917 -0.00891625 0)
(-0.0419759 -0.00954229 0)
(-0.0327411 -0.00988591 0)
(-0.0233925 -0.0099445 0)
(-0.0141096 -0.0097396 0)
(-0.00504644 -0.00930761 0)
(0.00362185 -0.00869321 0)
(0.0117967 -0.00794799 0)
(0.0194355 -0.0071273 0)
(0.0265132 -0.00628141 0)
(0.0330127 -0.00545433 0)
(0.0389532 -0.0046766 0)
(0.0444304 -0.00395572 0)
(0.0494929 -0.00329156 0)
(0.0541128 -0.00269669 0)
(0.0583524 -0.00216975 0)
(0.0622602 -0.00170974 0)
(0.0658763 -0.00132055 0)
(0.0692384 -0.00100818 0)
(0.0724015 -0.000789727 0)
(0.0754509 -0.000698535 0)
(0.0784523 -0.000765722 0)
(0.0815204 -0.00104359 0)
(0.0848102 -0.0015546 0)
(0.0884534 -0.00227947 0)
(0.0925748 -0.00319898 0)
(0.0972988 -0.00428627 0)
(0.10273 -0.00549962 0)
(0.108939 -0.00678437 0)
(0.115956 -0.00807681 0)
(0.123768 -0.00928077 0)
(0.132326 -0.0103588 0)
(0.141519 -0.0112314 0)
(0.151192 -0.0118811 0)
(0.161165 -0.0122538 0)
(0.171242 -0.0123259 0)
(0.181207 -0.0120864 0)
(0.190878 -0.0115395 0)
(0.200045 -0.0107125 0)
(0.208555 -0.00964263 0)
(0.216251 -0.00838575 0)
(0.223054 -0.00699442 0)
(0.228879 -0.00553329 0)
(0.233712 -0.00405271 0)
(0.237568 -0.00260381 0)
(0.240496 -0.00123438 0)
(0.242536 3.78975e-05 0)
(0.243808 0.00116299 0)
(0.244453 0.00209759 0)
(0.244577 0.00283726 0)
(0.244309 0.00337379 0)
(0.243794 0.00368712 0)
(0.243165 0.00379757 0)
(0.242571 0.00370367 0)
(0.242136 0.00336938 0)
(0.242003 0.0028239 0)
(0.242304 0.00209147 0)
(0.24313 0.00118152 0)
(0.244536 8.56646e-05 0)
(0.246634 -0.00117697 0)
(0.249572 -0.00255345 0)
(0.253374 -0.00396523 0)
(0.258037 -0.00536616 0)
(0.263552 -0.00671056 0)
(0.269874 -0.00795226 0)
(0.276924 -0.00904603 0)
(0.284588 -0.00995197 0)
(0.292727 -0.0106369 0)
(0.301178 -0.0110771 0)
(0.309767 -0.0112565 0)
(0.318305 -0.0111684 0)
(0.326615 -0.0108192 0)
(0.334528 -0.0102279 0)
(0.341886 -0.00942324 0)
(0.348552 -0.00843704 0)
(0.354409 -0.00730471 0)
(0.359363 -0.00605892 0)
(0.363362 -0.00473376 0)
(0.366365 -0.00337658 0)
(0.368365 -0.00201873 0)
(0.3694 -0.000678039 0)
(0.369479 0.000653795 0)
(-0.00849885 -0.0108371 0)
(-0.00356013 -0.00673862 0)
(-0.000177417 -0.0033955 0)
(0.00227522 -0.00121054 0)
(0.00413649 -0.00029107 0)
(0.00591404 -0.000555726 0)
(0.00793664 -0.0017876 0)
(0.0106395 -0.00366137 0)
(0.0142849 -0.00552181 0)
(0.0184828 -0.0069513 0)
(0.0231298 -0.00759145 0)
(0.0278488 -0.00729151 0)
(0.0322637 -0.00611549 0)
(0.036148 -0.00423113 0)
(0.0392837 -0.00194144 0)
(0.0415489 0.000492612 0)
(0.0431103 0.00268579 0)
(0.0441612 0.00439394 0)
(0.0449341 0.00556774 0)
(0.0454973 0.00610872 0)
(0.0460854 0.00602007 0)
(0.0469375 0.00538181 0)
(0.0482018 0.00438819 0)
(0.049968 0.00328618 0)
(0.0522425 0.00218849 0)
(0.0549631 0.00117944 0)
(0.0580618 0.000308135 0)
(0.0615879 -0.000515822 0)
(0.0655583 -0.00140843 0)
(0.0700361 -0.00248559 0)
(0.075122 -0.00384324 0)
(0.0809187 -0.00551865 0)
(0.0875032 -0.00748861 0)
(0.0949295 -0.00966545 0)
(0.103221 -0.0119345 0)
(0.112356 -0.0141638 0)
(0.122277 -0.0162239 0)
(0.132888 -0.0180046 0)
(0.144053 -0.0194224 0)
(0.155603 -0.0204167 0)
(0.167356 -0.0209456 0)
(0.179119 -0.0209949 0)
(0.190707 -0.0205923 0)
(0.201953 -0.0198086 0)
(0.212716 -0.0187246 0)
(0.222908 -0.0174321 0)
(0.232474 -0.0160278 0)
(0.2414 -0.0145948 0)
(0.2497 -0.0131993 0)
(0.25741 -0.0118879 0)
(0.264567 -0.010681 0)
(0.271239 -0.00958185 0)
(0.277476 -0.00859436 0)
(0.283315 -0.00771756 0)
(0.288785 -0.00694203 0)
(0.293909 -0.0062671 0)
(0.298717 -0.00571756 0)
(0.303246 -0.00532462 0)
(0.307555 -0.00513294 0)
(0.311721 -0.00519493 0)
(0.315845 -0.00555251 0)
(0.32006 -0.00624832 0)
(0.324506 -0.00730377 0)
(0.329323 -0.00870528 0)
(0.334647 -0.0104094 0)
(0.340595 -0.0123453 0)
(0.347255 -0.0144177 0)
(0.354673 -0.0165146 0)
(0.362853 -0.0185117 0)
(0.371752 -0.0202922 0)
(0.381278 -0.0217487 0)
(0.391292 -0.0228001 0)
(0.401624 -0.0233798 0)
(0.412087 -0.0234481 0)
(0.422474 -0.0229953 0)
(0.432609 -0.0220366 0)
(0.442298 -0.0206193 0)
(0.451404 -0.0188056 0)
(0.459786 -0.0166834 0)
(0.467366 -0.0143394 0)
(0.474068 -0.0118764 0)
(0.479878 -0.00938593 0)
(0.48481 -0.00695566 0)
(0.488883 -0.00467476 0)
(0.492182 -0.00260818 0)
(0.494762 -0.000775261 0)
(0.496726 0.000762707 0)
(0.498203 0.00197282 0)
(0.499289 0.0028461 0)
(0.500078 0.00337749 0)
(0.500668 0.00357659 0)
(0.501168 0.00341281 0)
(0.501665 0.00287673 0)
(0.502292 0.00201247 0)
(0.503167 0.000827847 0)
(0.504361 -0.000675578 0)
(0.505976 -0.00242488 0)
(0.508139 -0.00435895 0)
(0.510933 -0.00644217 0)
(0.514418 -0.00863201 0)
(0.518627 -0.0108486 0)
(0.523568 -0.0130041 0)
(0.529218 -0.0150103 0)
(0.53552 -0.0167828 0)
(0.542385 -0.0182462 0)
(0.549692 -0.0193391 0)
(0.557302 -0.0200167 0)
(0.565053 -0.0202525 0)
(0.572775 -0.0200363 0)
(0.580308 -0.0193763 0)
(0.58749 -0.0183017 0)
(0.594167 -0.016859 0)
(0.600204 -0.0151034 0)
(0.605495 -0.01309 0)
(0.609951 -0.0108885 0)
(0.613529 -0.00855634 0)
(0.616192 -0.00615987 0)
(0.617925 -0.00376463 0)
(0.618758 -0.00139464 0)
(0.618711 0.000877931 0)
(0.230946 -0.0172204 0)
(0.237216 -0.0115376 0)
(0.242083 -0.00680031 0)
(0.245867 -0.00358845 0)
(0.249001 -0.0020596 0)
(0.251968 -0.00221932 0)
(0.254983 -0.00416547 0)
(0.25848 -0.00706532 0)
(0.262917 -0.00998048 0)
(0.26831 -0.0121682 0)
(0.274285 -0.013136 0)
(0.280392 -0.0127164 0)
(0.286304 -0.0111405 0)
(0.291724 -0.00869061 0)
(0.296493 -0.00569239 0)
(0.300483 -0.00261895 0)
(0.303757 0.000151514 0)
(0.306539 0.00228362 0)
(0.309006 0.00371026 0)
(0.311352 0.00435545 0)
(0.313735 0.004156 0)
(0.316294 0.00322652 0)
(0.319254 0.00177396 0)
(0.322697 6.93945e-05 0)
(0.32652 -0.00157054 0)
(0.330802 -0.00306993 0)
(0.33552 -0.00440471 0)
(0.340613 -0.00569612 0)
(0.346154 -0.00710119 0)
(0.352247 -0.00877012 0)
(0.359013 -0.0108091 0)
(0.36656 -0.0132532 0)
(0.374961 -0.0160599 0)
(0.38426 -0.0191166 0)
(0.394473 -0.0222622 0)
(0.405565 -0.0253177 0)
(0.417454 -0.0281109 0)
(0.43001 -0.0304935 0)
(0.443076 -0.0323437 0)
(0.456461 -0.033571 0)
(0.469959 -0.0341239 0)
(0.48337 -0.0340006 0)
(0.496509 -0.0332514 0)
(0.509178 -0.0319654 0)
(0.521228 -0.0302639 0)
(0.532564 -0.0282847 0)
(0.543134 -0.0261676 0)
(0.552935 -0.0240322 0)
(0.561992 -0.0219704 0)
(0.570357 -0.0200412 0)
(0.578084 -0.018279 0)
(0.585241 -0.016693 0)
(0.591893 -0.0152722 0)
(0.598096 -0.0139912 0)
(0.60388 -0.0128252 0)
(0.609258 -0.0117675 0)
(0.614245 -0.0108439 0)
(0.618874 -0.010112 0)
(0.623194 -0.00965164 0)
(0.627269 -0.00953859 0)
(0.631197 -0.00983709 0)
(0.635093 -0.0106163 0)
(0.639118 -0.0119064 0)
(0.643423 -0.0136935 0)
(0.648158 -0.0159268 0)
(0.653457 -0.0185139 0)
(0.659427 -0.0213223 0)
(0.66613 -0.0241942 0)
(0.673579 -0.0269575 0)
(0.681739 -0.0294416 0)
(0.690518 -0.0314916 0)
(0.699779 -0.0329822 0)
(0.709353 -0.0338215 0)
(0.719056 -0.0339558 0)
(0.728689 -0.0333717 0)
(0.73807 -0.0320966 0)
(0.747028 -0.030193 0)
(0.755415 -0.0277532 0)
(0.763117 -0.024893 0)
(0.77005 -0.0217401 0)
(0.776171 -0.0184276 0)
(0.781467 -0.0150831 0)
(0.785962 -0.0118249 0)
(0.789702 -0.00875835 0)
(0.792764 -0.00596878 0)
(0.795225 -0.00352534 0)
(0.797164 -0.00145569 0)
(0.798673 0.000212472 0)
(0.799833 0.00145933 0)
(0.800706 0.0022824 0)
(0.801364 0.002693 0)
(0.801904 0.00267745 0)
(0.80236 0.00220326 0)
(0.802811 0.00128801 0)
(0.803334 -5.22591e-05 0)
(0.804062 -0.00181092 0)
(0.805106 -0.00392351 0)
(0.806532 -0.00634675 0)
(0.80844 -0.00901619 0)
(0.810916 -0.0118521 0)
(0.814016 -0.0147519 0)
(0.817772 -0.0175989 0)
(0.822178 -0.0202708 0)
(0.827191 -0.0226484 0)
(0.832733 -0.0246224 0)
(0.838693 -0.0261007 0)
(0.844938 -0.0270159 0)
(0.851316 -0.0273269 0)
(0.857666 -0.0270202 0)
(0.863831 -0.0261077 0)
(0.869659 -0.0246237 0)
(0.875003 -0.0226247 0)
(0.87973 -0.0201906 0)
(0.883739 -0.0174073 0)
(0.886946 -0.0143695 0)
(0.889305 -0.0111694 0)
(0.890793 -0.00788939 0)
(0.891418 -0.00461177 0)
(0.891226 -0.00140961 0)
(0.890248 0.00163411 0)
(0.569616 -0.0321292 0)
(0.578908 -0.0247409 0)
(0.586994 -0.017925 0)
(0.593805 -0.0123573 0)
(0.599297 -0.00856162 0)
(0.603366 -0.00669482 0)
(0.606811 -0.00680856 0)
(0.609718 -0.00899665 0)
(0.612548 -0.0126332 0)
(0.616095 -0.0165199 0)
(0.6206 -0.0195469 0)
(0.62583 -0.0209967 0)
(0.631331 -0.0205502 0)
(0.636963 -0.0183491 0)
(0.642737 -0.0149097 0)
(0.648473 -0.0108404 0)
(0.653749 -0.00676781 0)
(0.658423 -0.00320052 0)
(0.662511 -0.000518636 0)
(0.666154 0.00122107 0)
(0.669583 0.00199061 0)
(0.672881 0.0016824 0)
(0.675942 0.000329644 0)
(0.678834 -0.00181262 0)
(0.681851 -0.00426676 0)
(0.685189 -0.00654979 0)
(0.688804 -0.00849522 0)
(0.692701 -0.0102127 0)
(0.696956 -0.0118891 0)
(0.701743 -0.0137491 0)
(0.707281 -0.0159723 0)
(0.713773 -0.0186851 0)
(0.721369 -0.0219072 0)
(0.730146 -0.0255693 0)
(0.740106 -0.0295325 0)
(0.751179 -0.0335965 0)
(0.763223 -0.0375313 0)
(0.77604 -0.041115 0)
(0.789399 -0.0441594 0)
(0.803053 -0.046506 0)
(0.816735 -0.0480353 0)
(0.830206 -0.0486784 0)
(0.843264 -0.0484105 0)
(0.855733 -0.0472725 0)
(0.867515 -0.0453819 0)
(0.87855 -0.0429122 0)
(0.888805 -0.0400555 0)
(0.898271 -0.0370022 0)
(0.906953 -0.0339351 0)
(0.914873 -0.0309959 0)
(0.922055 -0.0282675 0)
(0.928531 -0.025781 0)
(0.934342 -0.0235391 0)
(0.939533 -0.0215342 0)
(0.944146 -0.0197502 0)
(0.948201 -0.0181332 0)
(0.951699 -0.0166233 0)
(0.954658 -0.0153077 0)
(0.957101 -0.0142248 0)
(0.959088 -0.0134221 0)
(0.96075 -0.0130353 0)
(0.96222 -0.0131678 0)
(0.963625 -0.0139562 0)
(0.965195 -0.0154079 0)
(0.967168 -0.0175273 0)
(0.969762 -0.0202626 0)
(0.973178 -0.0235004 0)
(0.97757 -0.0270664 0)
(0.983031 -0.0307482 0)
(0.989574 -0.0343175 0)
(0.99713 -0.0375432 0)
(1.00555 -0.0402155 0)
(1.01463 -0.0421644 0)
(1.02411 -0.0432712 0)
(1.03372 -0.0434707 0)
(1.0432 -0.0427475 0)
(1.05234 -0.0411378 0)
(1.06092 -0.0387275 0)
(1.06879 -0.0356416 0)
(1.07582 -0.0320288 0)
(1.08195 -0.0280539 0)
(1.08713 -0.0238856 0)
(1.09138 -0.0196877 0)
(1.09473 -0.0156119 0)
(1.09725 -0.0117928 0)
(1.09901 -0.00834608 0)
(1.1001 -0.00534958 0)
(1.10062 -0.00282977 0)
(1.10064 -0.000780107 0)
(1.10022 0.0008075 0)
(1.0994 0.00192715 0)
(1.09824 0.00254136 0)
(1.09685 0.00262917 0)
(1.0953 0.0022114 0)
(1.09369 0.00125554 0)
(1.09213 -0.000197798 0)
(1.09075 -0.00212188 0)
(1.0897 -0.00451976 0)
(1.08911 -0.00734722 0)
(1.08913 -0.0105279 0)
(1.08989 -0.0139606 0)
(1.0915 -0.01752 0)
(1.09402 -0.0210546 0)
(1.09744 -0.0243973 0)
(1.1017 -0.0273868 0)
(1.1067 -0.0298781 0)
(1.11225 -0.0317502 0)
(1.11816 -0.0329157 0)
(1.12421 -0.0333221 0)
(1.1302 -0.0329501 0)
(1.13594 -0.0318094 0)
(1.14127 -0.0299387 0)
(1.14603 -0.0274071 0)
(1.15011 -0.0243106 0)
(1.15342 -0.020762 0)
(1.1559 -0.0168799 0)
(1.1575 -0.0127845 0)
(1.15823 -0.00859552 0)
(1.1581 -0.0044283 0)
(1.15717 -0.00040338 0)
(1.15548 0.00338312 0)
(0.973533 -0.0465187 0)
(0.982985 -0.0378314 0)
(0.994305 -0.0283009 0)
(1.00612 -0.0196574 0)
(1.01713 -0.0124787 0)
(1.02686 -0.00844371 0)
(1.03411 -0.00704473 0)
(1.03895 -0.00728642 0)
(1.04162 -0.0109425 0)
(1.04202 -0.0167254 0)
(1.04132 -0.0216934 0)
(1.04051 -0.0242436 0)
(1.03998 -0.0241804 0)
(1.04002 -0.023311 0)
(1.04103 -0.0211171 0)
(1.04333 -0.0175091 0)
(1.04697 -0.0130995 0)
(1.0515 -0.00891186 0)
(1.05621 -0.00575512 0)
(1.06066 -0.0036979 0)
(1.06445 -0.00259954 0)
(1.06739 -0.00229477 0)
(1.06926 -0.00280703 0)
(1.07007 -0.00425082 0)
(1.06995 -0.00615779 0)
(1.06927 -0.00817004 0)
(1.06824 -0.0101016 0)
(1.06707 -0.0120371 0)
(1.06613 -0.0142882 0)
(1.0659 -0.017082 0)
(1.06693 -0.0205905 0)
(1.06971 -0.0248245 0)
(1.07463 -0.0296811 0)
(1.08185 -0.034971 0)
(1.09135 -0.0404321 0)
(1.10292 -0.0457522 0)
(1.11618 -0.0506233 0)
(1.13062 -0.0547823 0)
(1.14565 -0.0580293 0)
(1.16065 -0.0602173 0)
(1.17512 -0.0612788 0)