/*--------------------------------*- C++ -*----------------------------------*\
| =========                 |                                                 |
| \\      /  F ield         | OpenFOAM: The Open Source CFD Toolbox           |
|  \\    /   O peration     | Version:  2206                                  |
|   \\  /    A nd           | Website:  www.openfoam.com                      |
|    \\/     M anipulation  |                                                 |
\*---------------------------------------------------------------------------*/
FoamFile
{
    version     2.0;
    format      ascii;
    arch        "LSB;label=32;scalar=64";
    class       volVectorField;
    location    "18.8001";
    object      ddt0(U);
}
// * * * * * * * * * * * * * * * * * * * * * * * * * * * * * * * * * * * * * //

dimensions      [0 1 -2 0 0 0 0];

internalField   nonuniform List<vector> 
4823
(
(-2.88432 8.04774 0)
(-10.0332 9.44304 0)
(-13.986 8.56591 0)
(-17.679 6.23077 0)
(-21.9787 1.37055 0)
(-28.4096 -6.71666 0)
(-33.3999 -17.4109 0)
(-39.1485 -29.4466 0)
(-45.7593 -41.5215 0)
(-51.1992 -52.0242 0)
(-52.2905 -59.5737 0)
(-50.2896 -64.4788 0)
(-42.5847 -64.7907 0)
(-30.9336 -61.1575 0)
(-17.4286 -53.8722 0)
(-4.08866 -44.3642 0)
(7.96067 -33.9689 0)
(18.0453 -23.7867 0)
(25.9657 -14.5542 0)
(31.5706 -6.50547 0)
(35.139 -0.677569 0)
(38.5388 4.26556 0)
(40.642 8.73878 0)
(42.0859 12.1866 0)
(43.1791 14.883 0)
(43.8351 17.4083 0)
(44.2348 19.801 0)
(44.546 22.0539 0)
(44.9077 24.214 0)
(45.4741 26.2097 0)
(46.2686 27.96 0)
(46.9109 29.6075 0)
(46.8891 31.7765 0)
(46.3894 34.7636 0)
(47.6905 37.2344 0)
(54.7619 35.6506 0)
(69.8769 26.9174 0)
(89.0522 14.131 0)
(99.9159 6.09157 0)
(89.6481 11.953 0)
(66.2496 31.7394 0)
(30.8406 55.9594 0)
(-2.77222 80.3597 0)
(-40.0216 101.353 0)
(-61.7219 113.371 0)
(-71.0479 112.941 0)
(-71.5272 104.689 0)
(-67.4734 94.3125 0)
(-60.5843 82.8037 0)
(-52.3364 70.8659 0)
(-43.5594 59.3886 0)
(-34.7562 49.0685 0)
(-26.2216 40.4771 0)
(-18.0417 34.2373 0)
(-10.2536 30.9905 0)
(-2.90024 30.9294 0)
(3.99699 33.2752 0)
(10.1286 36.6485 0)
(13.4058 39.7865 0)
(13.0575 37.6791 0)
(10.5501 30.3008 0)
(8.30637 19.4288 0)
(3.11386 7.19649 0)
(-6.40159 -21.783 0)
(-18.0728 -70.4754 0)
(-27.2461 -116.101 0)
(-35.9005 -160.376 0)
(-43.5877 -198.349 0)
(-48.6271 -224.295 0)
(-48.8808 -231.278 0)
(-44.8815 -221.627 0)
(-38.274 -201.357 0)
(-29.7418 -173.852 0)
(-20.0883 -142.725 0)
(-10.2922 -111.207 0)
(-1.17213 -81.7415 0)
(6.71861 -55.8358 0)
(14.0604 -33.959 0)
(21.5661 -14.9766 0)
(26.3785 -0.113344 0)
(29.9541 9.26318 0)
(32.0034 14.822 0)
(33.0317 17.6558 0)
(33.5178 18.6008 0)
(33.9422 18.2847 0)
(34.6491 16.985 0)
(35.7655 14.8834 0)
(37.1506 12.4091 0)
(38.5556 10.4575 0)
(39.3549 10.2425 0)
(38.9072 13.0618 0)
(36.646 19.9007 0)
(32.1787 30.9722 0)
(25.7299 45.5707 0)
(17.8244 62.2268 0)
(8.97891 78.8236 0)
(0.0043197 93.791 0)
(-8.75674 105.732 0)
(-16.3382 113.376 0)
(-22.1336 115.558 0)
(-26.172 112.88 0)
(-28.985 107.314 0)
(-30.6041 99.5572 0)
(-31.1046 90.3835 0)
(-30.648 80.5219 0)
(-1.58213 14.1951 0)
(-4.48135 11.9681 0)
(-6.34384 10.2891 0)
(-7.51025 8.64911 0)
(-7.99179 5.42734 0)
(-8.67355 -0.83983 0)
(-10.1386 -9.89695 0)
(-12.5511 -20.4293 0)
(-15.6151 -31.6401 0)
(-19.188 -43.3477 0)
(-23.052 -54.6668 0)
(-26.4392 -64.794 0)
(-28.6218 -70.4284 0)
(-28.3619 -72.1848 0)
(-22.9592 -67.4256 0)
(-14.3767 -58.5201 0)
(-4.12572 -47.413 0)
(6.46433 -35.5078 0)
(16.2558 -24.0012 0)
(24.5165 -13.6773 0)
(31.0333 -5.24454 0)
(35.7078 0.325753 0)
(39.2808 6.53288 0)
(42.6574 9.72008 0)
(45.9083 14.2166 0)
(48.848 16.7414 0)
(51.0915 18.9645 0)
(52.9622 21.0342 0)
(54.7181 22.7922 0)
(56.1509 24.4495 0)
(56.8679 26.6034 0)
(57.0035 29.7117 0)
(58.2927 32.8457 0)
(64.1968 32.9391 0)
(77.6211 26.3825 0)
(96.4416 14.1256 0)
(111.36 3.84247 0)
(106.093 5.84039 0)
(84.5716 23.4613 0)
(50.3484 49.4664 0)
(17.4773 74.6465 0)
(-27.2379 99.1969 0)
(-55.6243 117.383 0)
(-74.3121 125.072 0)
(-79.9206 120.761 0)
(-78.2536 111.362 0)
(-72.23 99.4197 0)
(-63.5512 86.007 0)
(-53.6859 72.6041 0)
(-43.4668 60.0695 0)
(-33.5731 48.8765 0)
(-24.42 39.2378 0)
(-16.1631 31.3558 0)
(-8.79123 25.6851 0)
(-2.1097 22.8382 0)
(4.41119 23.1406 0)
(11.4449 25.8422 0)
(17.6944 31.0069 0)
(22.6732 36.6317 0)
(24.9221 39.0534 0)
(22.6988 34.4948 0)
(18.2872 23.9097 0)
(14.3528 10.184 0)
(9.09644 -6.93887 0)
(-0.829211 -60.9242 0)
(-11.473 -105.393 0)
(-21.734 -150.24 0)
(-31.1804 -190.025 0)
(-38.8592 -219.187 0)
(-42.8692 -231.4 0)
(-42.5232 -225.244 0)
(-39.305 -207.964 0)
(-33.7088 -182.552 0)
(-26.3728 -152.529 0)
(-18.1672 -121.179 0)
(-9.88662 -91.1309 0)
(-2.26311 -64.205 0)
(4.32623 -41.3739 0)
(11.2214 -22.547 0)
(17.6894 -5.94184 0)
(22.2142 5.57029 0)
(25.5683 12.4803 0)
(27.6795 16.2105 0)
(29.1532 17.5844 0)
(30.455 17.2319 0)
(31.8902 15.6045 0)
(33.5789 13.1794 0)
(35.3646 10.6963 0)
(36.812 9.27556 0)
(37.2913 10.2852 0)
(36.2304 14.9874 0)
(33.1698 24.0898 0)
(28.0779 37.4195 0)
(21.3345 53.8408 0)
(13.1371 71.5469 0)
(4.54491 88.7836 0)
(-4.30313 103.587 0)
(-12.4896 114.548 0)
(-19.3474 120.533 0)
(-24.28 120.517 0)
(-27.6425 116.404 0)
(-29.7738 109.421 0)
(-30.6929 100.364 0)
(-30.5094 90.0445 0)
(-29.4103 79.2297 0)
(-0.955405 16.4748 0)
(-3.05238 14.3951 0)
(-4.51324 11.8423 0)
(-5.84025 9.05443 0)
(-6.81296 4.91701 0)
(-7.80324 -1.12958 0)
(-9.24979 -8.92969 0)
(-10.9701 -18.752 0)
(-13.2661 -29.3657 0)
(-15.8696 -40.7844 0)
(-17.2809 -51.4217 0)
(-17.6046 -60.092 0)
(-17.3341 -66.4994 0)
(-16.5574 -69.4672 0)
(-13.9789 -69.4642 0)
(-11.7248 -65.3809 0)
(-7.05543 -57.1528 0)
(0.230008 -46.3374 0)
(8.76501 -34.6353 0)
(17.6048 -23.156 0)
(25.7543 -13.3659 0)
(32.7546 -5.08865 0)
(38.5051 1.26858 0)
(44.3667 4.24523 0)
(48.1013 7.02608 0)
(53.5811 11.9392 0)
(58.3942 15.1236 0)
(61.5722 17.8127 0)
(63.5791 20.6668 0)
(65.0913 23.9852 0)
(67.6377 27.1998 0)
(73.9608 28.0723 0)
(86.6709 23.3453 0)
(104.905 12.7451 0)
(121.676 2.09329 0)
(121.552 0.967848 0)
(102.703 15.592 0)
(70.5055 40.9775 0)
(33.1097 65.9092 0)
(-6.43186 93.2247 0)
(-43.9752 117.672 0)
(-72.2601 133.011 0)
(-86.8625 136.193 0)
(-89.4994 129.058 0)
(-85.7361 117.795 0)
(-77.4633 103.713 0)
(-66.7403 88.5514 0)
(-55.043 73.7631 0)
(-43.2863 60.1818 0)
(-32.1009 48.2236 0)
(-21.9349 38.0322 0)
(-13.0716 29.6516 0)
(-5.50818 23.1206 0)
(0.919019 18.3973 0)
(6.35112 15.9116 0)
(12.0019 16.0191 0)
(18.0703 18.524 0)
(23.8993 24.1828 0)
(29.4021 31.8466 0)
(33.5429 38.1807 0)
(33.6908 37.5321 0)
(30.1551 29.8565 0)
(25.4353 16.721 0)
(22.8441 -4.16926 0)
(14.3752 -48.6165 0)
(2.98333 -93.2092 0)
(-8.34817 -138.52 0)
(-19.0372 -179.609 0)
(-28.6578 -210.952 0)
(-35.8113 -227.561 0)
(-38.8495 -224.986 0)
(-38.8709 -210.973 0)
(-36.2524 -188.229 0)
(-31.3851 -160.031 0)
(-24.9777 -129.602 0)
(-17.8235 -99.6815 0)
(-10.6329 -72.2707 0)
(-4.03302 -48.5803 0)
(1.6704 -29.1355 0)
(8.55474 -13.4162 0)
(13.9064 0.449454 0)
(18.434 8.90992 0)
(21.7507 13.592 0)
(24.2282 15.4932 0)
(26.4312 15.2365 0)
(28.6415 13.4789 0)
(30.8953 10.9867 0)
(32.9477 8.81139 0)
(34.308 8.31352 0)
(34.3856 10.91 0)
(32.6922 17.6801 0)
(29.0223 28.9958 0)
(23.5191 44.3097 0)
(16.5109 62.225 0)
(8.32259 80.9694 0)
(-0.253184 98.4813 0)
(-8.64945 112.831 0)
(-16.187 122.611 0)
(-22.1792 126.674 0)
(-26.2437 124.71 0)
(-28.9143 119.134 0)
(-30.3031 110.727 0)
(-30.4688 100.377 0)
(-29.5677 88.9476 0)
(-27.8092 77.2456 0)
(-0.74383 18.4078 0)
(-1.73012 15.9416 0)
(-2.20639 13.1722 0)
(-2.53979 10.1405 0)
(-2.66527 5.82201 0)
(-3.07333 -0.358071 0)
(-4.23619 -8.45274 0)
(-6.10357 -17.1273 0)
(-8.48745 -26.518 0)
(-11.7701 -38.9421 0)
(-16.1679 -51.2036 0)
(-18.5681 -62.3425 0)
(-17.189 -69.6302 0)
(-15.4616 -71.2823 0)
(-11.8335 -69.827 0)
(-8.37951 -66.7595 0)
(-5.83773 -61.2027 0)
(-1.53459 -53.0498 0)
(4.72739 -43.1863 0)
(12.4842 -32.4999 0)
(20.7684 -22.399 0)
(28.7346 -13.7867 0)
(36.7555 -6.62531 0)
(43.6784 -0.507863 0)
(49.5782 3.33075 0)
(54.9663 5.16465 0)
(61.1286 11.0803 0)
(66.9846 15.6542 0)
(73.1337 19.0791 0)
(82.0988 19.7865 0)
(96.0517 15.8935 0)
(113.978 7.41525 0)
(130.535 -1.2849 0)
(132.936 -2.48438 0)
(116.569 9.65434 0)
(86.4956 33.0966 0)
(48.2521 56.2605 0)
(11.7693 84.6356 0)
(-30.3743 113.06 0)
(-67.385 135.224 0)
(-91.4688 147.582 0)
(-101.225 146.982 0)
(-100.347 137.108 0)
(-93.4296 123.262 0)
(-82.4386 107.04 0)
(-69.483 90.2958 0)
(-55.908 74.2569 0)
(-42.6608 59.6742 0)
(-30.3607 46.9102 0)
(-19.3527 36.2078 0)
(-9.74076 27.6459 0)
(-1.58988 20.7506 0)
(4.90646 15.3873 0)
(9.98499 12.2039 0)
(15.2461 10.5663 0)
(19.8839 10.0321 0)
(24.3451 12.3437 0)
(29.2718 17.9334 0)
(34.4677 26.0707 0)
(39.3964 34.3334 0)
(42.1926 37.8591 0)
(40.816 33.0527 0)
(37.299 21.5808 0)
(34.9669 0.026817 0)
(26.9203 -35.5981 0)
(16.0608 -80.5677 0)
(4.30636 -125.891 0)
(-7.44267 -167.518 0)
(-18.6276 -200.383 0)
(-28.1897 -219.923 0)
(-34.264 -221.56 0)
(-37.0844 -210.627 0)
(-37.2434 -190.814 0)
(-34.9017 -165.029 0)
(-30.529 -136.287 0)
(-24.7807 -107.143 0)
(-18.3586 -79.8253 0)
(-11.895 -55.7579 0)
(-6.09654 -35.495 0)
(-0.619564 -19.4609 0)
(5.78423 -6.67535 0)
(10.8034 4.01161 0)
(15.3782 9.83163 0)
(18.9758 12.3049 0)
(22.0672 12.2876 0)
(24.9974 10.6204 0)
(27.7052 8.37508 0)
(29.8739 6.88905 0)
(31.0182 7.67543 0)
(30.6372 12.099 0)
(28.4125 20.9944 0)
(24.3175 34.397 0)
(18.5135 51.4636 0)
(11.2232 70.7503 0)
(3.14404 90.314 0)
(-5.15712 107.786 0)
(-13.0033 121.408 0)
(-19.8161 129.809 0)
(-24.843 131.705 0)
(-28.0607 128.128 0)
(-29.9386 121.002 0)
(-30.5065 111.161 0)
(-29.8637 99.5431 0)
(-28.216 87.0663 0)
(-25.7924 74.5643 0)
(1.91557 -33.2516 0)
(-0.929471 -46.4089 0)
(-4.76251 -60.7363 0)
(-9.43984 -70.9544 0)
(-11.2778 -75.8997 0)
(-8.86449 -73.8998 0)
(-4.29656 -70.1795 0)
(-1.76009 -64.2381 0)
(1.21136 -57.6821 0)
(5.73656 -49.4235 0)
(11.7303 -40.059 0)
(18.9271 -30.6678 0)
(26.7599 -22.3957 0)
(35.5444 -14.8169 0)
(44.2839 -8.76242 0)
(53.289 -4.77921 0)
(63.0889 -1.30966 0)
(74.2023 0.755769 0)
(87.2753 3.01849 0)
(104.283 1.66659 0)
(121.858 -3.00486 0)
(136.498 -7.35149 0)
(135.93 -5.26426 0)
(120.39 5.98589 0)
(93.0217 25.5681 0)
(58.1606 46.6381 0)
(24.0091 73.9997 0)
(-17.4885 105.142 0)
(-60.757 132.065 0)
(-93.1638 151.953 0)
(-112.089 160.694 0)
(-116.166 155.526 0)
(-111.423 143.428 0)
(-100.654 127.292 0)
(-86.5974 109.213 0)
(-71.2028 91.0333 0)
(-55.7245 73.9057 0)
(-41.0519 58.4839 0)
(-27.7555 45.1705 0)
(-16.0532 34.1125 0)
(-6.06857 24.9884 0)
(2.09041 17.8687 0)
(8.67902 13.3857 0)
(14.4964 10.4263 0)
(19.5212 6.4787 0)
(23.2563 5.45759 0)
(26.4255 5.64337 0)
(29.6594 7.9247 0)
(33.5314 12.9112 0)
(38.2924 20.6263 0)
(43.5923 29.5323 0)
(48.3536 35.8291 0)
(49.4288 34.3094 0)
(47.7123 24.8996 0)
(45.5796 6.14979 0)
(38.2795 -26.4928 0)
(27.9511 -68.1171 0)
(15.958 -112.56 0)
(3.2928 -154.166 0)
(-9.18661 -187.872 0)
(-20.5599 -209.533 0)
(-29.118 -215.248 0)
(-34.3616 -207.258 0)
(-36.9776 -190.573 0)
(-36.9306 -167.525 0)
(-34.5175 -140.895 0)
(-30.3363 -113.269 0)
(-24.953 -86.6901 0)
(-19.0018 -62.6804 0)
(-13.0356 -42.3364 0)
(-7.60253 -25.5372 0)
(-2.39815 -12.1499 0)
(3.33223 -2.79265 0)
(8.67766 4.73664 0)
(13.3967 8.06414 0)
(17.3866 8.45941 0)
(20.9274 7.17213 0)
(23.9419 5.53773 0)
(26.0839 5.111 0)
(26.9281 7.46986 0)
(26.1103 13.841 0)
(23.4822 24.7987 0)
(19.0604 40.1187 0)
(12.8925 58.8539 0)
(5.57436 79.4203 0)
(-2.35291 99.3465 0)
(-10.2093 116.533 0)
(-17.4222 129.231 0)
(-23.3789 136.089 0)
(-27.328 135.659 0)
(-29.6709 130.56 0)
(-30.6461 121.893 0)
(-30.3048 110.64 0)
(-28.8031 97.8172 0)
(-26.3842 84.3874 0)
(-23.2962 71.1933 0)
(0.202826 -0.144004 0)
(0.433411 -0.143523 0)
(0.672291 -0.138936 0)
(0.913936 -0.129439 0)
(1.15299 -0.114889 0)
(1.3826 -0.0952727 0)
(1.59335 -0.0693845 0)
(1.79089 -0.0544845 0)
(1.94961 -0.0125952 0)
(2.05496 0.039409 0)
(2.11715 0.0750201 0)
(2.13919 0.0957452 0)
(2.12948 0.12002 0)
(2.06149 0.160374 0)
(1.8911 0.192028 0)
(1.72967 0.187521 0)
(1.56226 0.155552 0)
(1.39406 0.120699 0)
(1.2378 0.0896798 0)
(1.0956 0.0626252 0)
(0.968552 0.0387796 0)
(0.858132 0.0171681 0)
(0.764763 -0.00325817 0)
(0.688948 -0.0251125 0)
(0.632063 -0.0501608 0)
(0.59582 -0.0789986 0)
(0.58269 -0.113419 0)
(0.595802 -0.154523 0)
(0.641156 -0.204531 0)
(0.720751 -0.254229 0)
(0.836697 -0.296505 0)
(0.991052 -0.33881 0)
(1.18847 -0.380791 0)
(1.43199 -0.413653 0)
(1.71772 -0.434367 0)
(2.0484 -0.424545 0)
(2.52832 -0.32563 0)
(-0.107838 -0.365709 0)
(0.0692767 -0.390122 0)
(0.264181 -0.406991 0)
(0.474225 -0.41532 0)
(0.695468 -0.413874 0)
(0.927515 -0.401421 0)
(1.1522 -0.376586 0)
(1.39912 -0.339504 0)
(1.64678 -0.294134 0)
(1.86005 -0.238532 0)
(2.04689 -0.170762 0)
(2.22394 -0.0952909 0)
(2.38937 -0.0176526 0)
(2.52454 0.0628249 0)
(2.6665 0.138648 0)
(2.77556 0.195793 0)
(2.83699 0.230583 0)
(2.85016 0.249192 0)
(2.82139 0.256358 0)
(2.75665 0.254414 0)
(2.66182 0.244961 0)
(2.54316 0.229652 0)
(2.40674 0.209685 0)
(2.258 0.186997 0)
(2.10183 0.161964 0)
(1.94162 0.134952 0)
(1.77999 0.106147 0)
(1.61618 0.0755082 0)
(1.45083 0.0427783 0)
(1.27391 0.00649091 0)
(1.09594 -0.0343195 0)
(0.904535 -0.0809687 0)
(0.699486 -0.133543 0)
(0.456635 -0.192735 0)
(0.190181 -0.257025 0)
(-0.112689 -0.322764 0)
(-0.50949 -0.354563 0)
(-0.54236 -0.513178 0)
(-0.437222 -0.557349 0)
(-0.312927 -0.592949 0)
(-0.170339 -0.617275 0)
(-0.0109435 -0.629084 0)
(0.164391 -0.632042 0)
(0.350021 -0.579268 0)
(0.552946 -0.727308 0)
(0.758906 -0.482437 0)
(0.970901 -0.391889 0)
(1.19524 -0.364681 0)
(1.41264 -0.329176 0)
(1.62357 -0.238972 0)
(1.82704 -0.146223 0)
(2.01891 -0.059689 0)
(2.19311 0.0170398 0)
(2.34475 0.0837171 0)
(2.47035 0.141769 0)
(2.56784 0.19176 0)
(2.63635 0.233128 0)
(2.67658 0.265171 0)
(2.69 0.28793 0)
(2.6782 0.301591 0)
(2.64299 0.30639 0)
(2.58644 0.302799 0)
(2.51052 0.291722 0)
(2.41665 0.274537 0)
(2.30589 0.253115 0)
(2.17759 0.229939 0)
(2.03282 0.207996 0)
(1.86354 0.189766 0)
(1.66766 0.178214 0)
(1.44066 0.1771 0)
(1.17508 0.189829 0)
(0.86263 0.218929 0)
(0.495635 0.271073 0)
(0.067713 0.349846 0)
(-0.783452 -0.590565 0)
(-0.712588 -0.656796 0)
(-0.623131 -0.713618 0)
(-0.515031 -0.759201 0)
(-0.388111 -0.791674 0)
(-0.245143 -0.809164 0)
(-0.0790758 -0.809415 0)
(0.0893711 -0.793137 0)
(0.254283 -0.760909 0)
(0.453656 -0.711828 0)
(0.67718 -0.646893 0)
(0.895058 -0.566521 0)
(1.10172 -0.476557 0)
(1.30652 -0.381012 0)
(1.50868 -0.282871 0)
(1.70184 -0.187644 0)
(1.88129 -0.099086 0)
(2.04407 -0.0172375 0)
(2.18676 0.0577967 0)
(2.31172 0.124853 0)
(2.41337 0.182644 0)
(2.49421 0.230527 0)
(2.5551 0.268321 0)
(2.59675 0.296239 0)
(2.62018 0.314915 0)
(2.62653 0.325483 0)
(2.61683 0.329566 0)
(2.59197 0.32943 0)
(2.55259 0.327567 0)
(2.49955 0.327326 0)
(2.43316 0.332914 0)
(2.35318 0.347983 0)
(2.25889 0.376594 0)
(2.14871 0.422993 0)
(2.021 0.490106 0)
(1.87615 0.580928 0)
(1.7168 0.697777 0)
(-0.919251 -0.651058 0)
(-0.859568 -0.738078 0)
(-0.780059 -0.816234 0)
(-0.680018 -0.883284 0)
(-0.559615 -0.936508 0)
(-0.420243 -0.974247 0)
(-0.263124 -0.99307 0)
(-0.0935802 -0.999618 0)
(0.0889907 -0.97253 0)
(0.290071 -0.923422 0)
(0.501601 -0.862683 0)
(0.711363 -0.792205 0)
(0.917618 -0.707253 0)
(1.12279 -0.609721 0)
(1.32274 -0.503125 0)
(1.51228 -0.394328 0)
(1.68888 -0.290869 0)
(1.85346 -0.193066 0)
(2.0027 -0.100978 0)
(2.13446 -0.0161491 0)
(2.24914 0.0601241 0)
(2.34807 0.126605 0)
(2.43232 0.182524 0)
(2.50302 0.227829 0)
(2.56153 0.263033 0)
(2.6092 0.289236 0)
(2.64747 0.308015 0)
(2.67708 0.321696 0)
(2.70059 0.332821 0)
(2.7154 0.344627 0)
(2.72688 0.360564 0)
(2.73586 0.38357 0)
(2.74403 0.419711 0)
(2.75178 0.474256 0)
(2.7594 0.545274 0)
(2.77155 0.633116 0)
(2.79496 0.743556 0)
(-1.06247 -0.709333 0)
(-0.996487 -0.820413 0)
(-0.907284 -0.919421 0)
(-0.796966 -1.01004 0)
(-0.664828 -1.08639 0)
(-0.512277 -1.14553 0)
(-0.34108 -1.18351 0)
(-0.153751 -1.20483 0)
(0.0471408 -1.19295 0)
(0.25684 -1.15474 0)
(0.475821 -1.10866 0)
(0.692936 -1.03264 0)
(0.911101 -0.949771 0)
(1.12151 -0.844843 0)
(1.31973 -0.723824 0)
(1.53113 -0.611008 0)
(1.70899 -0.492687 0)
(1.86917 -0.37442 0)
(2.01353 -0.260312 0)
(2.13985 -0.154362 0)
(2.24941 -0.0589595 0)
(2.34415 0.024377 0)
(2.42591 0.0947812 0)
(2.49672 0.152137 0)
(2.55885 0.19706 0)
(2.61452 0.230778 0)
(2.66625 0.254978 0)
(2.71531 0.272295 0)
(2.76531 0.285235 0)
(2.81609 0.297396 0)
(2.87197 0.312551 0)
(2.93524 0.329145 0)
(3.0075 0.355484 0)
(3.09184 0.40798 0)
(3.18622 0.476853 0)
(3.2897 0.548184 0)
(3.42154 0.63205 0)
(-1.20811 -0.774172 0)
(-1.13617 -0.91329 0)
(-1.03647 -1.04037 0)
(-0.911379 -1.15854 0)
(-0.760705 -1.25959 0)
(-0.58681 -1.34179 0)
(-0.391781 -1.40126 0)
(-0.17876 -1.43335 0)
(0.046458 -1.43588 0)
(0.280764 -1.41176 0)
(0.520102 -1.36098 0)
(0.757903 -1.28536 0)
(0.990438 -1.19078 0)
(1.21047 -1.07485 0)
(1.41762 -0.950336 0)
(1.60916 -0.818643 0)
(1.78247 -0.67984 0)
(1.93647 -0.540029 0)
(2.07481 -0.408865 0)
(2.1941 -0.285669 0)
(2.29568 -0.173176 0)
(2.38266 -0.0745101 0)
(2.45703 0.00900493 0)
(2.52122 0.0769127 0)
(2.57803 0.129634 0)
(2.63016 0.168299 0)
(2.68131 0.194649 0)
(2.73073 0.211706 0)
(2.79006 0.220438 0)
(2.84779 0.226951 0)
(2.92021 0.230948 0)
(3.01612 0.237944 0)
(3.0775 0.250316 0)
(3.1815 0.269238 0)
(3.38104 0.305753 0)
(3.54586 0.356501 0)
(3.72904 0.417042 0)
(-1.42987 -0.672616 0)
(-1.38198 -0.844606 0)
(-1.30366 -1.01557 0)
(-1.1929 -1.17635 0)
(-1.05038 -1.32473 0)
(-0.877773 -1.45569 0)
(-0.6776 -1.56424 0)
(-0.45415 -1.6482 0)
(-0.210269 -1.6988 0)
(0.0489939 -1.71544 0)
(0.317109 -1.69778 0)
(0.58742 -1.64737 0)
(0.853404 -1.56649 0)
(1.10917 -1.45992 0)
(1.34883 -1.32985 0)
(1.56953 -1.18326 0)
(1.76794 -1.02648 0)
(1.94108 -0.863657 0)
(2.08955 -0.701518 0)
(2.21525 -0.546483 0)
(2.31854 -0.401695 0)
(2.40228 -0.270877 0)
(2.46998 -0.156846 0)
(2.52487 -0.0611451 0)
(2.57046 0.0155288 0)
(2.61035 0.0733934 0)
(2.64808 0.113751 0)
(2.68713 0.138571 0)
(2.73039 0.15005 0)
(2.78202 0.151256 0)
(2.84274 0.145877 0)
(2.91846 0.135719 0)
(3.00995 0.129935 0)
(3.12617 0.128489 0)
(3.25694 0.121077 0)
(3.40784 0.117081 0)
(3.5908 0.138194 0)
(3.80964 0.175373 0)
(-1.64234 -0.709184 0)
(-1.59499 -0.91784 0)
(-1.51092 -1.12718 0)
(-1.38827 -1.32882 0)
(-1.2269 -1.51639 0)
(-1.02836 -1.68303 0)
(-0.796131 -1.82247 0)
(-0.536066 -1.93096 0)
(-0.254014 -2.00655 0)
(0.0459012 -2.03465 0)
(0.356163 -2.02259 0)
(0.666873 -1.96939 0)
(0.969442 -1.87784 0)
(1.25661 -1.75305 0)
(1.52174 -1.59966 0)
(1.76019 -1.42531 0)
(1.96856 -1.23807 0)
(2.1447 -1.04464 0)
(2.28911 -0.852371 0)
(2.40373 -0.66842 0)
(2.49088 -0.49796 0)
(2.5543 -0.345261 0)
(2.59874 -0.213708 0)
(2.62887 -0.105193 0)
(2.64966 -0.020361 0)
(2.66592 0.0412917 0)
(2.68213 0.08095 0)
(2.70274 0.100736 0)
(2.73157 0.103356 0)
(2.77202 0.0921097 0)
(2.82778 0.0703163 0)
(2.90093 0.041486 0)
(2.9941 0.00950397 0)
(3.11163 -0.024108 0)
(3.25392 -0.0580421 0)
(3.417 -0.0861041 0)
(3.6075 -0.10263 0)
(3.83614 -0.107612 0)
(-1.89857 -0.73886 0)
(-1.85549 -0.993679 0)
(-1.76722 -1.25017 0)
(-1.63186 -1.49969 0)
(-1.44938 -1.73402 0)
(-1.22155 -1.94486 0)
(-0.952005 -2.12348 0)
(-0.646911 -2.26214 0)
(-0.315816 -2.35827 0)
(0.0331561 -2.40876 0)
(0.393202 -2.39985 0)
(0.754273 -2.34103 0)
(1.10345 -2.23355 0)
(1.43047 -2.08349 0)
(1.72731 -1.89823 0)
(1.98802 -1.68698 0)
(2.20878 -1.45959 0)
(2.38798 -1.22557 0)
(2.52649 -0.994121 0)
(2.62713 -0.773857 0)
(2.69397 -0.571592 0)
(2.73221 -0.392632 0)
(2.74819 -0.240898 0)
(2.74806 -0.118447 0)
(2.73847 -0.0260433 0)
(2.72528 0.0370937 0)
(2.7145 0.0726547 0)
(2.71107 0.0833229 0)
(2.71971 0.0724122 0)
(2.7444 0.0435808 0)
(2.78836 0.000871136 0)
(2.85496 -0.0517968 0)
(2.94628 -0.11061 0)
(3.0641 -0.171496 0)
(3.21183 -0.231764 0)
(3.38797 -0.289075 0)
(3.59139 -0.339739 0)
(3.83128 -0.380973 0)
(-2.20825 -0.760619 0)
(-2.17223 -1.06862 0)
(-2.08177 -1.38204 0)
(-1.93384 -1.69043 0)
(-1.72782 -1.98289 0)
(-1.46561 -2.24821 0)
(-1.15174 -2.47537 0)
(-0.793111 -2.65393 0)
(-0.400147 -2.77559 0)
(0.0129788 -2.83971 0)
(0.435185 -2.84253 0)
(0.856192 -2.77305 0)
(1.26296 -2.64335 0)
(1.63985 -2.45909 0)
(1.97591 -2.23052 0)
(2.26378 -1.9699 0)
(2.499 -1.69001 0)
(2.68039 -1.4036 0)
(2.80965 -1.1224 0)
(2.89119 -0.857105 0)
(2.93104 -0.616203 0)
(2.9366 -0.406169 0)
(2.91627 -0.2314 0)
(2.87813 -0.0940487 0)
(2.8308 0.00531536 0)
(2.7813 0.0680771 0)
(2.73726 0.0965029 0)
(2.70414 0.0941276 0)
(2.68736 0.0650174 0)
(2.69167 0.0135798 0)
(2.71963 -0.0554291 0)
(2.77534 -0.137444 0)
(2.86057 -0.22803 0)
(2.97606 -0.323011 0)
(3.12532 -0.418744 0)
(3.30811 -0.512067 0)
(3.52091 -0.599604 0)
(3.77065 -0.679093 0)
(-2.58038 -0.766255 0)
(-2.55741 -1.13866 0)
(-2.46808 -1.52241 0)
(-2.30802 -1.90306 0)
(-2.07599 -2.26691 0)
(-1.77344 -2.59999 0)
(-1.40575 -2.88759 0)
(-0.981879 -3.11623 0)
(-0.513573 -3.27374 0)
(-0.0177826 -3.35262 0)
(0.486101 -3.35758 0)
(0.983317 -3.28026 0)
(1.45984 -3.11939 0)
(1.89842 -2.8898 0)
(2.28275 -2.60357 0)
(2.60299 -2.27776 0)
(2.8542 -1.92957 0)
(3.03573 -1.57575 0)
(3.15076 -1.23147 0)
(3.20581 -0.910129 0)
(3.2096 -0.622179 0)
(3.17244 -0.375351 0)
(3.10537 -0.174414 0)
(3.01912 -0.0214692 0)
(2.92441 0.0835908 0)
(2.83007 0.142984 0)
(2.74508 0.160091 0)
(2.67576 0.139621 0)
(2.62827 0.0866861 0)
(2.60741 0.00687593 0)
(2.61616 -0.0942455 0)
(2.65777 -0.21119 0)
(2.73468 -0.338807 0)
(2.84623 -0.472479 0)
(2.99584 -0.607629 0)
(3.18315 -0.740693 0)
(3.4037 -0.867892 0)
(3.66419 -0.987069 0)
(-3.0268 -0.7482 0)
(-3.02587 -1.2 0)
(-2.94364 -1.66742 0)
(-2.7719 -2.13736 0)
(-2.51078 -2.5917 0)
(-2.16097 -3.01057 0)
(-1.72778 -3.37508 0)
(-1.2227 -3.66719 0)
(-0.660969 -3.87093 0)
(-0.0619499 -3.97333 0)
(0.547941 -3.97249 0)
(1.14594 -3.88118 0)
(1.70995 -3.67786 0)
(2.22519 -3.38808 0)
(2.6687 -3.02597 0)
(3.02689 -2.6146 0)
(3.29449 -2.17764 0)
(3.47219 -1.73737 0)
(3.56521 -1.31332 0)
(3.58325 -0.922495 0)
(3.53853 -0.577625 0)
(3.4453 -0.287754 0)
(3.31803 -0.0577763 0)
(3.17086 0.110677 0)
(3.01686 0.218943 0)
(2.86741 0.270572 0)
(2.73236 0.2707 0)
(2.61962 0.225595 0)
(2.53541 0.141911 0)
(2.48461 0.0267324 0)
(2.47081 -0.113339 0)
(2.49556 -0.271673 0)
(2.56252 -0.442298 0)
(2.66913 -0.619966 0)
(2.81889 -0.799315 0)
(3.01124 -0.976301 0)
(3.23993 -1.1468 0)
(3.51208 -1.30808 0)
(-3.56489 -0.693269 0)
(-3.59332 -1.23935 0)
(-3.52372 -1.81212 0)
(-3.34779 -2.3944 0)
(-3.05672 -2.96274 0)
(-2.65114 -3.49133 0)
(-2.13835 -3.95479 0)
(-1.53159 -4.32873 0)
(-0.851078 -4.59204 0)
(-0.121666 -4.72677 0)
(0.624365 -4.72282 0)
(1.35185 -4.59545 0)
(2.03367 -4.34571 0)
(2.64434 -3.97123 0)
(3.16047 -3.50734 0)
(3.56272 -2.98306 0)
(3.84556 -2.43059 0)
(4.01209 -1.87934 0)
(4.07118 -1.3547 0)
(4.03684 -0.877905 0)
(3.92647 -0.464525 0)
(3.75935 -0.124669 0)
(3.55456 0.136954 0)
(3.33041 0.319885 0)
(3.10282 0.427375 0)
(2.88608 0.465131 0)
(2.6909 0.440702 0)
(2.52684 0.362569 0)
(2.39976 0.239442 0)
(2.31472 0.0802135 0)
(2.27515 -0.107106 0)
(2.28105 -0.314674 0)
(2.33677 -0.535442 0)
(2.43828 -0.763876 0)
(2.58833 -0.993429 0)
(2.78703 -1.2196 0)
(3.02541 -1.4381 0)
(3.31071 -1.64535 0)
(-4.20767 -0.585061 0)
(-4.28546 -1.2443 0)
(-4.24292 -1.94949 0)
(-4.06498 -2.67348 0)
(-3.74199 -3.38643 0)
(-3.27236 -4.05647 0)
(-2.66271 -4.64887 0)
(-1.92908 -5.13006 0)
(-1.09731 -5.4709 0)
(-0.200342 -5.64757 0)
(0.720956 -5.6427 0)
(1.61775 -5.46722 0)
(2.45428 -5.1478 0)
(3.1876 -4.65967 0)
(3.79375 -4.05908 0)
(4.24717 -3.38552 0)
(4.54209 -2.68264 0)
(4.68585 -1.98947 0)
(4.69312 -1.33881 0)
(4.58452 -0.757129 0)
(4.38481 -0.262904 0)
(4.12 0.13309 0)
(3.81533 0.427065 0)
(3.49388 0.620842 0)
(3.17558 0.720565 0)
(2.87692 0.735319 0)
(2.61063 0.675902 0)
(2.38636 0.553893 0)
(2.2104 0.380662 0)
(2.08689 0.167238 0)
(2.01871 -0.0765301 0)
(2.00477 -0.341721 0)
(2.04863 -0.620975 0)
(2.1452 -0.906907 0)
(2.2957 -1.19263 0)
(2.50223 -1.47302 0)
(2.75256 -1.74377 0)
(3.0533 -2.0001 0)
(-4.97836 -0.401345 0)
(-5.12807 -1.19907 0)
(-5.13006 -2.06527 0)
(-4.96139 -2.96758 0)
(-4.60782 -3.8681 0)
(-4.0645 -4.72328 0)
(-3.33675 -5.48652 0)
(-2.4432 -6.11198 0)
(-1.41671 -6.55862 0)
(-0.302009 -6.79237 0)
(0.846277 -6.78674 0)
(1.96308 -6.54727 0)
(3.00209 -6.12746 0)
(3.8963 -5.4835 0)
(4.61473 -4.69593 0)
(5.1262 -3.822 0)
(5.42618 -2.92084 0)
(5.529 -2.04446 0)
(5.45794 -1.23497 0)
(5.24408 -0.525137 0)
(4.92249 0.0640814 0)
(4.52846 0.522019 0)
(4.09533 0.847169 0)
(3.65154 1.04512 0)
(3.22236 1.12649 0)
(2.82556 1.10514 0)
(2.47661 0.996442 0)
(2.1839 0.815956 0)
(1.95419 0.578561 0)
(1.78955 0.297761 0)
(1.69187 -0.0143358 0)
(1.65825 -0.348103 0)
(1.69007 -0.693168 0)
(1.78329 -1.04554 0)
(1.93556 -1.39614 0)
(2.15221 -1.73853 0)
(2.41755 -2.06818 0)
(2.73695 -2.37812 0)
(-5.90251 -0.110178 0)
(-6.15841 -1.07449 0)
(-6.23164 -2.14013 0)
(-6.08996 -3.26721 0)
(-5.71113 -4.40711 0)
(-5.08413 -5.50388 0)
(-4.21299 -6.4929 0)
(-3.11899 -7.31191 0)
(-1.84087 -7.90166 0)
(-0.43708 -8.21521 0)
(1.01446 -8.21549 0)
(2.42181 -7.8977 0)
(3.72496 -7.33621 0)
(4.83115 -6.48105 0)
(5.69012 -5.43791 0)
(6.26534 -4.29457 0)
(6.55728 -3.13216 0)
(6.59117 -2.02023 0)
(6.40353 -1.01321 0)
(6.04099 -0.150429 0)
(5.55331 0.545789 0)
(4.98828 1.06695 0)
(4.3895 1.41625 0)
(3.79241 1.6054 0)
(3.2273 1.65187 0)
(2.71421 1.57603 0)
(2.26912 1.39945 0)
(1.90027 1.14282 0)
(1.61205 0.825235 0)
(1.40533 0.4632 0)
(1.27879 0.0712672 0)
(1.22797 -0.340254 0)
(1.2513 -0.761194 0)
(1.34292 -1.18598 0)
(1.49751 -1.60763 0)
(1.72509 -2.01859 0)
(2.0088 -2.41398 0)
(2.35221 -2.78046 0)
(-7.00572 0.336136 0)
(-7.41289 -0.837558 0)
(-7.59508 -2.16025 0)
(-7.50669 -3.57617 0)
(-7.11537 -5.02857 0)
(-6.39765 -6.44619 0)
(-5.35238 -7.73607 0)
(-4.00355 -8.82113 0)
(-2.39946 -9.6125 0)
(-0.619563 -10.0285 0)
(1.2313 -10.0239 0)
(3.03194 -9.6039 0)
(4.69593 -8.85255 0)
(6.07937 -7.69157 0)
(7.11112 -6.29413 0)
(7.75023 -4.78681 0)
(8.00791 -3.27693 0)
(7.92641 -1.8583 0)
(7.56463 -0.602562 0)
(6.99184 0.444724 0)
(6.2788 1.2611 0)
(5.48886 1.84353 0)
(4.67873 2.20338 0)
(3.8921 2.36234 0)
(3.16346 2.348 0)
(2.51613 2.19008 0)
(1.96339 1.91811 0)
(1.51419 1.55975 0)
(1.16691 1.13858 0)
(0.921456 0.675017 0)
(0.770861 0.185812 0)
(0.70864 -0.317756 0)
(0.728388 -0.822092 0)
(0.824303 -1.32716 0)
(0.982867 -1.82756 0)
(1.21708 -2.31562 0)
(1.51614 -2.78963 0)
(1.89013 -3.21897 0)
(-8.36238 1.02376 0)
(-8.99635 -0.383845 0)
(-9.3366 -2.01829 0)
(-9.32957 -3.80466 0)
(-8.93911 -5.65723 0)
(-8.11594 -7.48929 0)
(-6.85744 -9.208 0)
(-5.18807 -10.6727 0)
(-3.13861 -11.7633 0)
(-0.829271 -12.3533 0)
(1.55963 -12.3638 0)
(3.88135 -11.8097 0)
(6.04023 -10.7811 0)
(7.80838 -9.20298 0)
(9.04252 -7.2966 0)
(9.73591 -5.28805 0)
(9.9186 -3.31884 0)
(9.6518 -1.51203 0)
(9.02977 0.0436794 0)
(8.15581 1.30057 0)
(7.13056 2.24023 0)
(6.03859 2.87045 0)
(4.95382 3.21607 0)
(3.92852 3.31334 0)
(3.00093 3.20364 0)
(2.19596 2.92937 0)
(1.52271 2.53015 0)
(0.988361 2.04241 0)
(0.583715 1.49496 0)
(0.305193 0.912529 0)
(0.14021 0.313806 0)
(0.0772444 -0.291242 0)
(0.104992 -0.887755 0)
(0.214107 -1.47209 0)
(0.38932 -2.04829 0)
(0.630174 -2.61689 0)
(0.923152 -3.18928 0)
(1.33137 -3.69432 0)
(-9.95282 1.92384 0)
(-10.9225 0.188965 0)
(-11.5232 -1.82673 0)
(-11.6721 -4.05855 0)
(-11.3211 -6.43307 0)
(-10.4313 -8.82217 0)
(-8.95706 -11.0928 0)
(-6.88768 -13.0802 0)
(-4.27782 -14.5614 0)
(-1.26546 -15.3054 0)
(1.86916 -15.3667 0)
(4.93255 -14.6909 0)
(7.81676 -13.233 0)
(10.124 -11.0338 0)
(11.6256 -8.45642 0)
(12.3499 -5.7497 0)
(12.3834 -3.14383 0)
(11.8295 -0.821244 0)
(10.8381 1.11149 0)
(9.55498 2.6095 0)
(8.11666 3.66594 0)
(6.63614 4.31061 0)
(5.20783 4.59269 0)
(3.89304 4.57107 0)
(2.73331 4.30705 0)
(1.75181 3.85999 0)
(0.951331 3.282 0)
(0.332459 2.62003 0)
(-0.121685 1.90882 0)
(-0.42147 1.17364 0)
(-0.588332 0.441283 0)
(-0.640066 -0.280775 0)
(-0.593178 -0.97751 0)
(-0.460893 -1.65182 0)
(-0.259192 -2.29955 0)
(0.0159215 -2.90471 0)
(0.285904 -3.60413 0)
(0.574716 -4.25423 0)
(-11.4657 3.60289 0)
(-12.8022 1.40235 0)
(-13.7477 -1.17431 0)
(-14.2314 -3.99758 0)
(-14.1148 -7.04008 0)
(-13.2923 -10.2106 0)
(-11.6881 -13.2696 0)
(-9.25031 -16.0621 0)
(-5.90123 -18.4027 0)
(-2.12008 -19.25 0)
(1.71986 -19.2725 0)
(5.85247 -18.7572 0)
(9.78047 -16.6331 0)
(12.6929 -13.307 0)
(14.548 -9.75532 0)
(15.3653 -6.14331 0)
(15.1972 -2.73992 0)
(14.24 0.214568 0)
(12.7568 2.59945 0)
(10.9482 4.36828 0)
(8.99674 5.53123 0)
(7.05089 6.15117 0)
(5.22129 6.31249 0)
(3.57693 6.10668 0)
(2.16332 5.62335 0)
(0.999166 4.94349 0)
(0.0809489 4.1364 0)
(-0.604415 3.25702 0)
(-1.08101 2.35035 0)
(-1.37574 1.44256 0)
(-1.51453 0.562604 0)
(-1.52722 -0.288993 0)
(-1.43119 -1.08915 0)
(-1.25323 -1.85633 0)
(-1.01639 -2.60444 0)
(-0.671244 -3.22835 0)
(-0.29687 -3.905 0)
(0.0157895 -4.75512 0)
(-11.0644 5.25848 0)
(-13.969 2.98398 0)
(-15.7362 -0.127742 0)
(-16.6953 -3.72513 0)
(-16.9872 -7.53709 0)
(-16.4916 -11.5193 0)
(-15.1877 -15.6132 0)
(-12.3863 -19.3956 0)
(-8.72307 -22.5979 0)
(-5.39576 -24.334 0)
(4.28141 -24.723 0)
(6.14592 -23.6538 0)
(11.9906 -21.1521 0)
(16.1207 -16.6776 0)
(17.995 -11.3899 0)
(18.6846 -6.23688 0)
(18.2182 -1.74364 0)
(16.7713 1.97205 0)
(14.6873 4.85606 0)
(12.2267 6.86167 0)
(9.65724 8.0643 0)
(7.17595 8.57315 0)
(4.90191 8.51325 0)
(2.90745 8.01676 0)
(1.23713 7.21115 0)
(-0.0984548 6.20592 0)
(-1.11451 5.09039 0)
(-1.83717 3.93232 0)
(-2.30589 2.78198 0)
(-2.56342 1.66685 0)
(-2.63903 0.624827 0)
(-2.58399 -0.371389 0)
(-2.41714 -1.27507 0)
(-2.158 -2.09221 0)
(-1.87467 -2.97722 0)
(-1.52982 -3.63244 0)
(-1.12016 -4.26507 0)
(-0.641618 -5.13275 0)
(-11.7218 8.3857 0)
(-14.3958 6.03081 0)
(-16.5684 2.2006 0)
(-17.8686 -2.51176 0)
(-18.6637 -7.40951 0)
(-18.9025 -12.4831 0)
(-18.0865 -18.0684 0)
(-16.0732 -23.5232 0)
(-11.0233 -27.4408 0)
(-5.31682 -30.6479 0)
(0.912681 -31.5184 0)
(6.9479 -29.3961 0)
(12.794 -25.3167 0)
(16.2441 -19.7146 0)
(18.6514 -13.5085 0)
(20.6948 -6.84263 0)
(19.8435 -0.696864 0)
(17.9715 4.15395 0)
(15.3887 7.76497 0)
(12.3634 10.0138 0)
(9.29136 11.2068 0)
(6.36875 11.5231 0)
(3.74176 11.1442 0)
(1.4993 10.2565 0)
(-0.319784 9.02933 0)
(-1.71777 7.60776 0)
(-2.72749 6.10845 0)