/*--------------------------------*- C++ -*----------------------------------*\
| =========                 |                                                 |
| \\      /  F ield         | OpenFOAM: The Open Source CFD Toolbox           |
|  \\    /   O peration     | Version:  2206                                  |
|   \\  /    A nd           | Website:  www.openfoam.com                      |
|    \\/     M anipulation  |                                                 |
\*---------------------------------------------------------------------------*/
FoamFile
{
    version     2.0;
    format      ascii;
    arch        "LSB;label=32;scalar=64";
    class       volVectorField;
    location    "18.5001";
    object      U_0;
}
// * * * * * * * * * * * * * * * * * * * * * * * * * * * * * * * * * * * * * //

dimensions      [0 1 -1 0 0 0 0];

internalField   nonuniform List<vector> 
4796
(
(0.0868981 0.0829449 0)
(0.052344 0.104686 0)
(0.10455 0.113534 0)
(0.152045 0.0999069 0)
(0.19996 0.0653798 0)
(0.260525 0.0134937 0)
(0.335633 -0.0509787 0)
(0.424419 -0.122112 0)
(0.52749 -0.192477 0)
(0.645237 -0.250711 0)
(0.776406 -0.286021 0)
(0.916827 -0.290727 0)
(1.06014 -0.262427 0)
(1.19971 -0.202969 0)
(1.33206 -0.113133 0)
(1.45957 0.0102243 0)
(1.58061 0.162328 0)
(1.67973 0.318514 0)
(1.74983 0.458724 0)
(1.79122 0.573172 0)
(1.80756 0.659169 0)
(1.80451 0.718645 0)
(1.78704 0.756195 0)
(1.75712 0.774903 0)
(1.71934 0.775813 0)
(1.67728 0.763928 0)
(1.63318 0.74386 0)
(1.58895 0.718215 0)
(1.54555 0.689142 0)
(1.50303 0.658357 0)
(1.46138 0.626436 0)
(1.42112 0.592616 0)
(1.3822 0.55641 0)
(1.34132 0.520867 0)
(1.29121 0.493246 0)
(1.22641 0.478585 0)
(1.15247 0.470359 0)
(1.08609 0.450888 0)
(1.04032 0.40437 0)
(1.02453 0.327103 0)
(1.03395 0.222299 0)
(1.07054 0.098524 0)
(1.12112 -0.0305411 0)
(1.17783 -0.152421 0)
(1.23624 -0.261839 0)
(1.29305 -0.356127 0)
(1.34579 -0.434463 0)
(1.39277 -0.497439 0)
(1.43294 -0.546762 0)
(1.4658 -0.584989 0)
(1.49128 -0.615064 0)
(1.50985 -0.639883 0)
(1.52253 -0.661556 0)
(1.53066 -0.680576 0)
(1.53573 -0.696159 0)
(1.53977 -0.706003 0)
(1.54465 -0.708844 0)
(1.55322 -0.698003 0)
(1.56825 -0.661223 0)
(1.59005 -0.598704 0)
(1.61868 -0.509806 0)
(1.65352 -0.397065 0)
(1.69277 -0.266697 0)
(1.73329 -0.128535 0)
(1.77116 0.00552978 0)
(1.80409 0.128384 0)
(1.83048 0.235081 0)
(1.84945 0.323137 0)
(1.86086 0.392143 0)
(1.86523 0.443274 0)
(1.86349 0.478757 0)
(1.85674 0.501191 0)
(1.84521 0.513027 0)
(1.82969 0.515803 0)
(1.81145 0.512366 0)
(1.79134 0.505219 0)
(1.77014 0.496025 0)
(1.74825 0.48595 0)
(1.72576 0.475824 0)
(1.70254 0.466326 0)
(1.67827 0.458049 0)
(1.65263 0.451357 0)
(1.62553 0.446077 0)
(1.59726 0.4412 0)
(1.56861 0.434774 0)
(-0.020615 0.025374 0)
(-0.0441565 0.0460268 0)
(-0.0243277 0.0434915 0)
(-0.00229153 0.0256754 0)
(0.0259129 -0.00946066 0)
(0.058304 -0.0630377 0)
(0.0994633 -0.133471 0)
(0.154977 -0.216643 0)
(0.229861 -0.303462 0)
(0.327133 -0.38008 0)
(0.447091 -0.43143 0)
(0.586314 -0.44586 0)
(0.737408 -0.41855 0)
(0.890408 -0.352042 0)
(1.03589 -0.252318 0)
(1.16947 -0.122847 0)
(1.29293 0.0355419 0)
(1.40437 0.211786 0)
(1.49587 0.379429 0)
(1.56507 0.522862 0)
(1.61131 0.635253 0)
(1.63641 0.716601 0)
(1.64384 0.770374 0)
(1.63853 0.800959 0)
(1.62092 0.811252 0)
(1.59478 0.80609 0)
(1.56246 0.788762 0)
(1.52609 0.764292 0)
(1.4879 0.735606 0)
(1.44906 0.704583 0)
(1.41052 0.67153 0)
(1.37248 0.636542 0)
(1.33178 0.602944 0)
(1.28145 0.577998 0)
(1.21618 0.566533 0)
(1.1416 0.561883 0)
(1.07385 0.54616 0)
(1.02562 0.502142 0)
(1.00739 0.424552 0)
(1.01391 0.316167 0)
(1.04875 0.183984 0)
(1.10039 0.0418308 0)
(1.16007 -0.0954281 0)
(1.22243 -0.220002 0)
(1.28353 -0.327992 0)
(1.34037 -0.417737 0)
(1.39094 -0.489413 0)
(1.43414 -0.544491 0)
(1.46955 -0.58534 0)
(1.49715 -0.614919 0)
(1.51708 -0.636536 0)
(1.52978 -0.653634 0)
(1.53605 -0.669077 0)
(1.53699 -0.684024 0)
(1.53449 -0.697546 0)
(1.53059 -0.707527 0)
(1.52699 -0.7107 0)
(1.52512 -0.705416 0)
(1.5284 -0.675463 0)
(1.53915 -0.620896 0)
(1.5578 -0.540027 0)
(1.58392 -0.434127 0)
(1.61629 -0.308295 0)
(1.6526 -0.17119 0)
(1.68922 -0.0344507 0)
(1.72338 0.0934765 0)
(1.75312 0.206949 0)
(1.77707 0.302703 0)
(1.79452 0.379536 0)
(1.8054 0.438 0)
(1.81016 0.47996 0)
(1.80967 0.507821 0)
(1.80472 0.52436 0)
(1.79525 0.531771 0)
(1.78219 0.531477 0)
(1.76645 0.526365 0)
(1.7488 0.518557 0)
(1.7298 0.509531 0)
(1.70963 0.500439 0)
(1.68818 0.492199 0)
(1.66527 0.485471 0)
(1.64074 0.480457 0)
(1.61474 0.47661 0)
(1.5878 0.472428 0)
(1.56087 0.465497 0)
(-0.0224675 0.110732 0)
(-0.0653482 0.0802947 0)
(-0.0943295 0.0632097 0)
(-0.120826 0.0388513 0)
(-0.140923 -0.00521287 0)
(-0.153685 -0.0728568 0)
(-0.153197 -0.165199 0)
(-0.13307 -0.275821 0)
(-0.0897811 -0.391239 0)
(-0.0222131 -0.49638 0)
(0.0695378 -0.574636 0)
(0.187503 -0.612186 0)
(0.32906 -0.598983 0)
(0.485898 -0.534495 0)
(0.647393 -0.424953 0)
(0.803525 -0.278881 0)
(0.949387 -0.10345 0)
(1.08178 0.088481 0)
(1.19681 0.27551 0)
(1.29386 0.441697 0)
(1.3708 0.577958 0)
(1.42682 0.681717 0)
(1.46344 0.754694 0)
(1.4834 0.800632 0)
(1.4896 0.824084 0)
(1.4858 0.829178 0)
(1.47153 0.822008 0)
(1.44805 0.801625 0)
(1.4187 0.775279 0)
(1.38704 0.745085 0)
(1.35426 0.712303 0)
(1.31765 0.680887 0)
(1.27075 0.658295 0)
(1.20841 0.649774 0)
(1.13564 0.649187 0)
(1.068 0.638601 0)
(1.01808 0.599653 0)
(0.999178 0.525297 0)
(1.00146 0.417341 0)
(1.03422 0.279993 0)
(1.08693 0.126374 0)
(1.15 -0.0266542 0)
(1.2168 -0.167663 0)
(1.2826 -0.291145 0)
(1.34387 -0.394325 0)
(1.39819 -0.476771 0)
(1.44421 -0.539759 0)
(1.48151 -0.585682 0)
(1.51038 -0.617516 0)
(1.53142 -0.638445 0)
(1.54529 -0.651733 0)
(1.55256 -0.661041 0)
(1.55324 -0.669816 0)
(1.5478 -0.679156 0)
(1.53797 -0.689325 0)
(1.5259 -0.698383 0)
(1.51384 -0.703319 0)
(1.5029 -0.69936 0)
(1.49615 -0.677214 0)
(1.49664 -0.631551 0)
(1.50554 -0.559736 0)
(1.52282 -0.462214 0)
(1.54776 -0.343134 0)
(1.57872 -0.210005 0)
(1.61269 -0.0734183 0)
(1.64652 0.0568673 0)
(1.67812 0.174919 0)
(1.70578 0.276712 0)
(1.72823 0.360308 0)
(1.74492 0.425662 0)
(1.7558 0.474035 0)
(1.76126 0.507625 0)
(1.76203 0.528984 0)
(1.75884 0.540724 0)
(1.75131 0.544872 0)
(1.74049 0.542764 0)
(1.72695 0.537145 0)
(1.71129 0.529925 0)
(1.69382 0.522541 0)
(1.67457 0.516102 0)
(1.65349 0.511268 0)
(1.63065 0.508023 0)
(1.6064 0.50544 0)
(1.58146 0.501592 0)
(1.55687 0.493734 0)
(-0.0218451 0.156815 0)
(-0.0879576 0.134032 0)
(-0.152492 0.116502 0)
(-0.210765 0.0844968 0)
(-0.25848 0.0295951 0)
(-0.291841 -0.0546918 0)
(-0.307774 -0.167946 0)
(-0.305707 -0.301391 0)
(-0.285082 -0.438938 0)
(-0.24708 -0.567509 0)
(-0.190208 -0.671304 0)
(-0.112209 -0.736369 0)
(-0.00876712 -0.749235 0)
(0.122786 -0.702129 0)
(0.271278 -0.599147 0)
(0.428009 -0.449293 0)
(0.584212 -0.264539 0)
(0.735387 -0.0600873 0)
(0.874606 0.142767 0)
(0.998855 0.328107 0)
(1.10544 0.486139 0)
(1.19215 0.612452 0)
(1.25868 0.706931 0)
(1.30627 0.771525 0)
(1.33751 0.808747 0)
(1.35481 0.825567 0)
(1.35986 0.83064 0)
(1.355 0.824299 0)
(1.34014 0.803851 0)
(1.31915 0.776762 0)
(1.29176 0.749271 0)
(1.25248 0.729916 0)
(1.19666 0.724928 0)
(1.12918 0.72878 0)
(1.0656 0.723832 0)
(1.01821 0.691835 0)
(0.998702 0.624379 0)
(0.998085 0.521567 0)
(1.02786 0.383617 0)
(1.08219 0.221752 0)
(1.14904 0.0539138 0)
(1.22078 -0.103961 0)
(1.2918 -0.244279 0)
(1.35789 -0.36268 0)
(1.41624 -0.457759 0)
(1.46522 -0.530373 0)
(1.50431 -0.582955 0)
(1.5339 -0.618817 0)
(1.55478 -0.641515 0)
(1.56808 -0.65413 0)
(1.575 -0.660001 0)
(1.57639 -0.662132 0)
(1.57138 -0.663525 0)
(1.56037 -0.666557 0)
(1.54465 -0.672532 0)
(1.52588 -0.680141 0)
(1.5064 -0.685809 0)
(1.4875 -0.684436 0)
(1.47216 -0.668599 0)
(1.4633 -0.631482 0)
(1.4628 -0.569156 0)
(1.47136 -0.481119 0)
(1.48871 -0.370493 0)
(1.51367 -0.243728 0)
(1.54392 -0.110054 0)
(1.57629 0.0202772 0)
(1.60834 0.140543 0)
(1.63829 0.246543 0)
(1.66455 0.335629 0)
(1.68604 0.40699 0)
(1.70236 0.461572 0)
(1.71346 0.500921 0)
(1.71965 0.52741 0)
(1.72167 0.543564 0)
(1.7199 0.551733 0)
(1.71414 0.553861 0)
(1.70514 0.551355 0)
(1.69324 0.546683 0)
(1.67885 0.541634 0)
(1.6622 0.53745 0)
(1.64344 0.534741 0)
(1.62285 0.533261 0)
(1.60098 0.531748 0)
(1.57866 0.527943 0)
(1.55692 0.518888 0)
(-0.0243737 0.22536 0)
(-0.0989183 0.215381 0)
(-0.17312 0.192357 0)
(-0.237389 0.148681 0)
(-0.288247 0.0797515 0)
(-0.320649 -0.0217365 0)
(-0.334962 -0.152443 0)
(-0.339016 -0.303497 0)
(-0.331546 -0.45948 0)
(-0.312676 -0.606592 0)
(-0.284336 -0.730488 0)
(-0.245567 -0.818371 0)
(-0.194193 -0.858175 0)
(-0.116683 -0.836963 0)
(-0.00748237 -0.754862 0)
(0.1262 -0.615817 0)
(0.274067 -0.433712 0)
(0.425506 -0.226313 0)
(0.574311 -0.0138111 0)
(0.714435 0.18589 0)
(0.842098 0.362701 0)
(0.95337 0.510468 0)
(1.04615 0.626739 0)
(1.12022 0.711894 0)
(1.17608 0.769112 0)
(1.21496 0.804045 0)
(1.23944 0.820238 0)
(1.25197 0.82348 0)
(1.25434 0.815605 0)
(1.2438 0.79886 0)
(1.21703 0.78697 0)
(1.1724 0.787373 0)
(1.11588 0.795653 0)
(1.06234 0.796201 0)
(1.0215 0.77233 0)
(1.00341 0.715509 0)
(1.00195 0.622855 0)
(1.03059 0.489661 0)
(1.08695 0.324315 0)
(1.1582 0.14487 0)
(1.23584 -0.0291879 0)
(1.31278 -0.186716 0)
(1.38418 -0.321521 0)
(1.44676 -0.430814 0)
(1.49863 -0.514731 0)
(1.53934 -0.575571 0)
(1.56936 -0.616794 0)
(1.58966 -0.6422 0)
(1.60167 -0.655457 0)
(1.60679 -0.660878 0)
(1.60666 -0.661099 0)
(1.60054 -0.657096 0)
(1.58946 -0.651926 0)
(1.57377 -0.649348 0)
(1.55374 -0.650759 0)
(1.53013 -0.655511 0)
(1.50461 -0.660618 0)
(1.47926 -0.661085 0)
(1.45633 -0.65021 0)
(1.43908 -0.621204 0)
(1.42985 -0.568707 0)
(1.43004 -0.491015 0)
(1.43991 -0.390176 0)
(1.45864 -0.271612 0)
(1.48444 -0.14333 0)
(1.51441 -0.0151838 0)
(1.54589 0.105409 0)
(1.57687 0.213667 0)
(1.60566 0.306741 0)
(1.6309 0.38322 0)
(1.65169 0.443189 0)
(1.6678 0.488206 0)
(1.6791 0.5199 0)
(1.68594 0.540732 0)
(1.6889 0.553234 0)
(1.68833 0.559094 0)
(1.68389 0.560731 0)
(1.67604 0.559466 0)
(1.6651 0.557377 0)
(1.65146 0.555853 0)
(1.63552 0.555422 0)
(1.61776 0.555637 0)
(1.59887 0.554985 0)
(1.5797 0.550982 0)
(1.56127 0.540535 0)
(1.60035 0.574394 0)
(1.58479 0.57006 0)
(1.5701 0.558128 0)
(0.919898 0.011883 0)
(0.905254 0.0125067 0)
(0.889527 0.0131312 0)
(0.872709 0.013738 0)
(0.854793 0.0143206 0)
(0.835787 0.0148777 0)
(0.815717 0.0154068 0)
(0.794605 0.0159061 0)
(0.772485 0.0163726 0)
(0.749369 0.0168275 0)
(0.725296 0.0172466 0)
(0.700334 0.0176025 0)
(0.674542 0.0178973 0)
(0.647967 0.0181413 0)
(0.620656 0.0183376 0)
(0.592664 0.0184808 0)
(0.564064 0.0185521 0)
(0.534952 0.0185134 0)
(0.505432 0.0182727 0)
(0.475737 0.017638 0)
(0.446702 0.0164888 0)
(0.418518 0.014922 0)
(0.391156 0.013157 0)
(0.364749 0.0113466 0)
(0.339437 0.0095668 0)
(0.315275 0.007857 0)
(0.292266 0.0062418 0)
(0.27041 0.00473436 0)
(0.249707 0.00333911 0)
(0.230149 0.00205648 0)
(0.211717 0.000880878 0)
(0.194386 -0.000210535 0)
(0.178131 -0.0012293 0)
(0.162922 -0.00216064 0)
(0.148721 -0.00300201 0)
(0.135487 -0.00375628 0)
(0.123176 -0.00443043 0)
(0.111741 -0.00503052 0)
(0.101145 -0.00556208 0)
(0.0913016 -0.0059177 0)
(0.0820751 -0.00600595 0)
(0.073354 -0.00593544 0)
(0.0650922 -0.00582467 0)
(0.0572891 -0.00571807 0)
(0.0499579 -0.00563295 0)
(0.04312 -0.0055748 0)
(0.0368015 -0.00553538 0)
(0.0310278 -0.00549074 0)
(0.0258122 -0.00540783 0)
(0.0211467 -0.00524391 0)
(0.0170034 -0.00494913 0)
(0.0133129 -0.00447418 0)
(0.00988268 -0.00379714 0)
(0.00662311 -0.00300327 0)
(0.00335277 -0.00219228 0)
(-2.52205e-05 -0.001442 0)
(-0.00349528 -0.000774839 0)
(-0.00707438 -0.000181306 0)
(-0.0107987 0.000418761 0)
(-0.0146732 0.0010875 0)
(1.72868 0.0203132 0)
(1.72306 0.0220714 0)
(1.71644 0.0239465 0)
(1.7088 0.0258485 0)
(1.70013 0.0277448 0)
(1.69044 0.0296257 0)
(1.67971 0.0314834 0)
(1.66795 0.0333099 0)
(1.65518 0.0350953 0)
(1.64137 0.036833 0)
(1.62651 0.0385216 0)
(1.61063 0.0401588 0)
(1.59379 0.0417348 0)
(1.57599 0.0432375 0)
(1.55726 0.0446554 0)
(1.53761 0.0459736 0)
(1.51708 0.0471702 0)
(1.49569 0.0482152 0)
(1.47348 0.0490564 0)
(1.45034 0.049611 0)
(1.42595 0.0498282 0)
(1.40029 0.0497263 0)
(1.3734 0.0493773 0)
(1.34533 0.0488398 0)
(1.31619 0.0481467 0)
(1.28605 0.047319 0)
(1.25502 0.0463748 0)
(1.22315 0.0453305 0)
(1.19053 0.0442018 0)
(1.15724 0.0430036 0)
(1.12333 0.0417502 0)
(1.08888 0.0404631 0)
(1.05395 0.0391522 0)
(1.0186 0.0378259 0)
(0.982892 0.0364922 0)
(0.946876 0.0351591 0)
(0.910618 0.0338342 0)
(0.874168 0.0325221 0)
(0.83764 0.0312264 0)
(0.800966 0.0299267 0)
(0.76458 0.0286202 0)
(0.728682 0.0273084 0)
(0.693278 0.0259938 0)
(0.658427 0.0246789 0)
(0.624155 0.0233596 0)
(0.590475 0.0220278 0)
(0.557384 0.0206755 0)
(0.524866 0.0192986 0)
(0.492915 0.0179006 0)
(0.461514 0.0164945 0)
(0.430681 0.0151062 0)
(0.400488 0.0137736 0)
(0.370956 0.0125378 0)
(0.342276 0.0115039 0)
(0.314561 0.0106833 0)
(0.287946 0.00996564 0)
(0.262434 0.00927039 0)
(0.238123 0.00855623 0)
(0.215034 0.00784521 0)
(0.193313 0.00731687 0)
(1.99948 0.0224179 0)
(1.99954 0.0252258 0)
(1.99895 0.0280664 0)
(1.99768 0.030919 0)
(1.99576 0.0337693 0)
(1.99316 0.0366071 0)
(1.9899 0.0394238 0)
(1.98597 0.0422081 0)
(1.98138 0.0449192 0)
(1.97613 0.0478332 0)
(1.97022 0.0504854 0)
(1.96367 0.052941 0)
(1.95648 0.0553393 0)
(1.94868 0.0576769 0)
(1.94026 0.0599314 0)
(1.93125 0.0620973 0)
(1.92163 0.0641274 0)
(1.91142 0.0659887 0)
(1.90061 0.0676512 0)
(1.8892 0.0690991 0)
(1.87714 0.0703285 0)
(1.86441 0.0713435 0)
(1.85095 0.0721645 0)
(1.83672 0.072818 0)
(1.82172 0.0733266 0)
(1.80592 0.0737095 0)
(1.78933 0.0739833 0)
(1.77194 0.0741614 0)
(1.75375 0.0742573 0)
(1.73476 0.0742856 0)
(1.71497 0.0742561 0)
(1.69437 0.074174 0)
(1.67299 0.0740432 0)
(1.65081 0.073868 0)
(1.62786 0.0736528 0)
(1.60416 0.0734002 0)
(1.57971 0.0731113 0)
(1.55453 0.0727833 0)
(1.52865 0.0724136 0)
(1.50209 0.0719883 0)
(1.47472 0.0714705 0)
(1.4465 0.0708497 0)
(1.41745 0.0701356 0)
(1.38757 0.0693382 0)
(1.3569 0.068467 0)
(1.32542 0.0675358 0)
(1.29315 0.0665637 0)
(1.26007 0.065573 0)
(1.22618 0.0645873 0)
(1.19146 0.0636273 0)
(1.15588 0.0627061 0)
(1.11943 0.0618253 0)
(1.08208 0.0609781 0)
(1.04382 0.0601043 0)
(1.00464 0.0591616 0)
(0.964559 0.0581136 0)
(0.923615 0.0569331 0)
(0.88184 0.0555999 0)
(0.839346 0.0540981 0)
(0.796177 0.0523883 0)
(2.07475 0.0199843 0)
(2.07704 0.0233337 0)
(2.07883 0.026713 0)
(2.08014 0.0301208 0)
(2.08098 0.0335412 0)
(2.08135 0.0369458 0)
(2.08126 0.0403172 0)
(2.08071 0.0436618 0)
(2.07971 0.0469584 0)
(2.07828 0.0501935 0)
(2.07647 0.0533575 0)
(2.07428 0.0564404 0)
(2.07169 0.0594297 0)
(2.06872 0.0623125 0)
(2.0654 0.065078 0)
(2.06175 0.0677155 0)
(2.05778 0.0702125 0)
(2.0535 0.0725509 0)
(2.04891 0.0747129 0)
(2.04399 0.0766871 0)
(2.03872 0.078467 0)
(2.03305 0.0800525 0)
(2.02697 0.0814578 0)
(2.02044 0.0827077 0)
(2.01345 0.0838273 0)
(2.00599 0.0848379 0)
(1.99803 0.0857562 0)
(1.98956 0.086596 0)
(1.98056 0.0873672 0)
(1.97103 0.0880785 0)
(1.96096 0.0887364 0)
(1.95036 0.0893462 0)
(1.93921 0.0899118 0)
(1.92752 0.0904367 0)
(1.91529 0.0909231 0)
(1.90251 0.0913725 0)
(1.88919 0.0917852 0)
(1.87533 0.092161 0)
(1.86093 0.0924974 0)
(1.846 0.0927973 0)
(1.83053 0.0930725 0)
(1.81453 0.0933296 0)
(1.79795 0.0935666 0)
(1.78079 0.0937796 0)
(1.763 0.0939707 0)
(1.74455 0.0941498 0)
(1.72543 0.0943321 0)
(1.70558 0.0945351 0)
(1.68499 0.0947775 0)
(1.66362 0.0950777 0)
(1.64144 0.0954516 0)
(1.61842 0.0959057 0)
(1.59452 0.0964355 0)
(1.56972 0.0970258 0)
(1.544 0.0976507 0)
(1.5173 0.0982724 0)
(1.48958 0.0988456 0)
(1.46081 0.0993215 0)
(1.43091 0.0996502 0)
(1.3999 0.0997702 0)
(2.09474 0.0167382 0)
(2.09757 0.0206142 0)
(2.09999 0.0245015 0)
(2.10201 0.0283956 0)
(2.10363 0.0322867 0)
(2.10486 0.0361566 0)
(2.10571 0.0400003 0)
(2.10619 0.0438079 0)
(2.10631 0.0475195 0)
(2.10611 0.0511862 0)
(2.1056 0.0547373 0)
(2.10479 0.0581622 0)
(2.1037 0.0614605 0)
(2.10236 0.064626 0)
(2.1008 0.0676539 0)
(2.09903 0.0705379 0)
(2.09709 0.0732697 0)
(2.09497 0.0758392 0)
(2.09269 0.0782385 0)
(2.09023 0.0804639 0)
(2.08758 0.082517 0)
(2.08473 0.0844058 0)
(2.08166 0.086146 0)
(2.07834 0.0877589 0)
(2.07477 0.0892654 0)
(2.07093 0.0906826 0)
(2.06682 0.0920244 0)
(2.06242 0.0933038 0)
(2.05772 0.0945293 0)
(2.05274 0.095704 0)
(2.04745 0.0968313 0)
(2.04185 0.0979149 0)
(2.03596 0.0989576 0)
(2.02977 0.099961 0)
(2.02329 0.100926 0)
(2.01651 0.101854 0)
(2.00945 0.102744 0)
(2.00211 0.103599 0)
(1.99449 0.104419 0)
(1.98657 0.105208 0)
(1.97835 0.105975 0)
(1.96983 0.106724 0)
(1.96101 0.107452 0)
(1.95186 0.108156 0)
(1.94236 0.108846 0)
(1.93249 0.109541 0)
(1.92223 0.110263 0)
(1.91156 0.111033 0)
(1.90045 0.11187 0)
(1.88889 0.11279 0)
(1.87686 0.113815 0)
(1.86432 0.114954 0)
(1.85126 0.116201 0)
(1.83766 0.117543 0)
(1.82348 0.118953 0)
(1.8087 0.120399 0)
(1.79326 0.12184 0)
(1.77712 0.123235 0)
(1.76022 0.12454 0)
(1.74252 0.125726 0)
(2.09818 0.0130713 0)
(2.10131 0.0174344 0)
(2.10403 0.0217815 0)
(2.10635 0.0261138 0)
(2.10826 0.0304315 0)
(2.10978 0.0347197 0)
(2.11092 0.0389555 0)
(2.1117 0.0431287 0)
(2.11213 0.0472173 0)
(2.11223 0.0512059 0)
(2.11204 0.055072 0)
(2.11155 0.0587868 0)
(2.1108 0.0623514 0)
(2.10983 0.0657438 0)
(2.10867 0.0689827 0)
(2.10734 0.0720527 0)
(2.10587 0.0749465 0)
(2.10429 0.0776628 0)
(2.1026 0.0802041 0)
(2.10081 0.0825756 0)
(2.09891 0.0847869 0)
(2.0969 0.0868502 0)
(2.09476 0.0887809 0)
(2.09249 0.0905977 0)
(2.09006 0.0923192 0)
(2.08748 0.0939607 0)
(2.08472 0.0955335 0)
(2.08178 0.0970467 0)
(2.07867 0.0985057 0)
(2.07538 0.0999129 0)
(2.07191 0.10127 0)
(2.06826 0.102578 0)
(2.06445 0.103838 0)
(2.06047 0.105049 0)
(2.05636 0.106212 0)
(2.0521 0.107327 0)
(2.04772 0.108397 0)
(2.04323 0.109424 0)
(2.03864 0.11041 0)
(2.03395 0.11136 0)
(2.02918 0.112291 0)
(2.02432 0.113224 0)
(2.01936 0.114166 0)
(2.01428 0.115112 0)
(2.00908 0.116068 0)
(2.00376 0.117055 0)
(1.9983 0.118094 0)
(1.99269 0.119204 0)
(1.98691 0.120405 0)
(1.98092 0.121717 0)
(1.97473 0.123153 0)
(1.96833 0.124711 0)
(1.96171 0.126387 0)
(1.95486 0.128173 0)
(1.94777 0.130053 0)
(1.94041 0.132002 0)
(1.93275 0.133994 0)
(1.92476 0.135995 0)
(1.91638 0.137968 0)
(1.90759 0.139877 0)
(2.1006 0.00930933 0)
(2.10374 0.0140955 0)
(2.10647 0.0188826 0)
(2.1088 0.0236637 0)
(2.11073 0.0284286 0)
(2.11224 0.0331582 0)
(2.11336 0.0378278 0)
(2.1141 0.0424181 0)
(2.11448 0.0468988 0)
(2.11451 0.0512476 0)
(2.11423 0.0554432 0)
(2.11367 0.0594658 0)
(2.11286 0.0633024 0)
(2.11184 0.0669392 0)
(2.11063 0.0703731 0)
(2.10927 0.0736004 0)
(2.10779 0.0766237 0)
(2.10621 0.0794496 0)
(2.10454 0.0820912 0)
(2.10281 0.084557 0)
(2.10099 0.0868685 0)
(2.0991 0.0890363 0)
(2.09713 0.0910812 0)
(2.09507 0.0930287 0)
(2.09289 0.0948924 0)
(2.0906 0.0966857 0)
(2.08819 0.0984181 0)
(2.08564 0.100096 0)
(2.08296 0.101721 0)
(2.08015 0.103295 0)
(2.0772 0.104815 0)
(2.07413 0.106279 0)
(2.07094 0.107684 0)
(2.06766 0.109027 0)
(2.06429 0.110307 0)
(2.06085 0.111525 0)
(2.05736 0.112681 0)
(2.05382 0.113782 0)
(2.05029 0.114831 0)
(2.04669 0.115836 0)
(2.04307 0.116802 0)
(2.03946 0.117738 0)
(2.036 0.118665 0)
(2.03255 0.119602 0)
(2.02913 0.120567 0)
(2.02573 0.121579 0)
(2.02234 0.122655 0)
(2.01896 0.123814 0)
(2.01559 0.125068 0)
(2.01221 0.12645 0)
(2.00882 0.127981 0)
(2.00541 0.129645 0)
(2.00197 0.131433 0)
(1.9985 0.133341 0)
(1.99499 0.135362 0)
(1.9914 0.137479 0)
(1.98775 0.139663 0)
(1.98399 0.141887 0)
(1.98011 0.144123 0)
(1.97606 0.146339 0)
(2.1038 0.00557533 0)
(2.10695 0.0108163 0)
(2.10969 0.0160713 0)
(2.112 0.0213243 0)
(2.11388 0.0265575 0)
(2.11534 0.0317481 0)
(2.11637 0.0368674 0)
(2.11698 0.0418861 0)
(2.11721 0.046773 0)
(2.11707 0.0514985 0)
(2.11659 0.0560364 0)
(2.11581 0.0603616 0)
(2.11476 0.0644574 0)
(2.1135 0.0683102 0)
(2.11206 0.0719203 0)
(2.11048 0.0752892 0)
(2.10879 0.0784247 0)
(2.10702 0.0813418 0)
(2.10519 0.0840565 0)
(2.10331 0.0865913 0)
(2.10139 0.0889703 0)
(2.09942 0.0912092 0)
(2.0974 0.0933331 0)
(2.09531 0.0953726 0)
(2.09314 0.0973422 0)
(2.09088 0.0992523 0)
(2.08852 0.10111 0)
(2.08604 0.102919 0)
(2.08344 0.104678 0)
(2.08072 0.106382 0)
(2.07788 0.108026 0)
(2.07493 0.109601 0)
(2.07188 0.111102 0)
(2.06875 0.112522 0)
(2.06555 0.113857 0)
(2.0623 0.115109 0)
(2.05904 0.11628 0)
(2.05576 0.117377 0)
(2.05252 0.118407 0)
(2.04931 0.119391 0)
(2.04617 0.120328 0)
(2.0431 0.121222 0)
(2.04008 0.122084 0)
(2.03715 0.122948 0)
(2.03429 0.12385 0)
(2.03155 0.124795 0)
(2.02889 0.125815 0)
(2.02633 0.126915 0)
(2.02386 0.128119 0)
(2.02136 0.129439 0)
(2.01909 0.130887 0)
(2.0169 0.132472 0)
(2.01477 0.134198 0)
(2.01272 0.13606 0)
(2.01073 0.138052 0)
(2.00879 0.140164 0)
(2.00688 0.142366 0)
(2.00498 0.144627 0)
(2.00307 0.146924 0)
(2.00114 0.149234 0)
(2.10795 0.00173914 0)
(2.11113 0.00745795 0)
(2.11387 0.0132013 0)
(2.11617 0.0189511 0)
(2.11801 0.0246854 0)
(2.11939 0.0303752 0)
(2.1203 0.0359854 0)
(2.12077 0.0414778 0)
(2.1208 0.0468137 0)
(2.12043 0.0519542 0)
(2.11969 0.056865 0)
(2.11862 0.0615161 0)
(2.11728 0.0658881 0)
(2.11571 0.0699694 0)
(2.11396 0.0737603 0)
(2.11208 0.0772664 0)
(2.1101 0.0805017 0)
(2.10807 0.083487 0)
(2.10601 0.0862517 0)
(2.10393 0.0888293 0)
(2.10183 0.0912466 0)
(2.09972 0.0935265 0)
(2.09759 0.0957051 0)
(2.09541 0.0978175 0)
(2.09317 0.0998786 0)
(2.09086 0.101897 0)
(2.08844 0.103877 0)
(2.08592 0.105819 0)
(2.08327 0.107716 0)
(2.0805 0.109559 0)
(2.07761 0.111336 0)
(2.07461 0.113034 0)
(2.0715 0.11464 0)
(2.06832 0.116145 0)
(2.06508 0.117543 0)
(2.0618 0.118833 0)
(2.05853 0.120014 0)
(2.05527 0.121091 0)
(2.05206 0.122072 0)
(2.04892 0.122971 0)
(2.04587 0.123795 0)
(2.04294 0.124561 0)
(2.04011 0.125295 0)
(2.0374 0.126028 0)
(2.03481 0.126788 0)
(2.03235 0.127595 0)
(2.03002 0.128476 0)
(2.02781 0.129447 0)
(2.02573 0.130537 0)
(2.02378 0.131751 0)
(2.02195 0.133075 0)
(2.02022 0.134538 0)
(2.0186 0.136153 0)
(2.01711 0.137916 0)
(2.01566 0.139811 0)
(2.01437 0.141827 0)
(2.01316 0.14395 0)
(2.01199 0.146161 0)
(2.01087 0.148438 0)
(2.00976 0.150756 0)
(2.1129 -0.00204864 0)
(2.11612 0.00415408 0)
(2.11889 0.0104004 0)
(2.12119 0.0166723 0)
(2.12299 0.022941 0)
(2.12429 0.029171 0)
(2.12509 0.0353163 0)
(2.12538 0.0413288 0)
(2.1252 0.0471571 0)
(2.12456 0.0527524 0)
(2.12351 0.0580688 0)
(2.1221 0.0630703 0)
(2.1204 0.0677313 0)
(2.11846 0.0720408 0)
(2.11635 0.076 0)
(2.11412 0.0796203 0)
(2.11183 0.0829219 0)
(2.10951 0.0859386 0)
(2.1072 0.0887145 0)
(2.1049 0.0912926 0)
(2.10263 0.0937049 0)
(2.10038 0.0959868 0)
(2.09815 0.0981866 0)
(2.09589 0.100345 0)
(2.09359 0.102477 0)
(2.09122 0.10459 0)
(2.08875 0.106685 0)
(2.08616 0.108757 0)
(2.08345 0.110794 0)
(2.08059 0.112779 0)
(2.07759 0.11469 0)
(2.07446 0.116509 0)
(2.07121 0.118216 0)
(2.06788 0.119795 0)
(2.06447 0.121239 0)
(2.06104 0.12254 0)
(2.05761 0.123699 0)
(2.05422 0.124722 0)
(2.05089 0.125619 0)
(2.04766 0.126408 0)
(2.04455 0.127108 0)
(2.04159 0.127743 0)
(2.03877 0.128341 0)
(2.03612 0.12893 0)
(2.03364 0.129541 0)
(2.03132 0.130197 0)
(2.02918 0.130922 0)
(2.02719 0.131737 0)
(2.02535 0.132664 0)
(2.02366 0.133705 0)
(2.0221 0.134877 0)
(2.02067 0.136201 0)
(2.01936 0.137686 0)
(2.01816 0.139328 0)
(2.01706 0.141116 0)
(2.01606 0.14303 0)
(2.01513 0.145062 0)
(2.01427 0.147204 0)
(2.01346 0.149437 0)
(2.01268 0.151736 0)
(2.11865 -0.00597305 0)
(2.12193 0.000730891 0)
(2.12475 0.00751057 0)
(2.12707 0.0143441 0)
(2.12886 0.0211988 0)
(2.13009 0.0280273 0)
(2.13075 0.0347733 0)
(2.13085 0.0413719 0)
(2.1304 0.0477577 0)
(2.12944 0.053865 0)
(2.12802 0.0596352 0)
(2.1262 0.0650198 0)
(2.12406 0.0699879 0)
(2.12169 0.0745267 0)
(2.11914 0.0786411 0)
(2.11651 0.0823482 0)
(2.11385 0.0856801 0)
(2.11122 0.0886858 0)
(2.10864 0.0914261 0)
(2.10613 0.0939557 0)
(2.1037 0.0963177 0)
(2.10134 0.0985616 0)
(2.09903 0.100752 0)
(2.09673 0.102936 0)
(2.09441 0.105128 0)
(2.09202 0.107336 0)
(2.08953 0.109558 0)
(2.0869 0.11178 0)
(2.08412 0.113983 0)
(2.08117 0.116139 0)
(2.07806 0.118217 0)
(2.07478 0.120187 0)
(2.07137 0.122019 0)
(2.06784 0.123693 0)
(2.06424 0.125195 0)
(2.0606 0.126515 0)
(2.05697 0.12765 0)
(2.05338 0.128608 0)
(2.04987 0.129403 0)
(2.04648 0.130056 0)
(2.04324 0.130592 0)
(2.04018 0.131041 0)
(2.0373 0.131437 0)
(2.03462 0.131813 0)
(2.03215 0.132206 0)
(2.02988 0.132647 0)
(2.02782 0.133165 0)
(2.02594 0.133786 0)
(2.02425 0.134532 0)
(2.02274 0.135412 0)
(2.02137 0.136439 0)
(2.02015 0.13763 0)
(2.01906 0.138985 0)
(2.01808 0.140504 0)
(2.0172 0.142176 0)
(2.0164 0.143994 0)
(2.01567 0.145949 0)
(2.015 0.14803 0)
(2.01437 0.150218 0)
(2.01376 0.152496 0)
(2.12512 -0.00993715 0)
(2.12851 -0.00272017 0)
(2.13142 0.00461798 0)
(2.13379 0.0120543 0)
(2.13559 0.01955 0)
(2.13676 0.0270454 0)
(2.13729 0.0344675 0)
(2.13717 0.0417315 0)
(2.13641 0.0487509 0)
(2.13507 0.0554383 0)
(2.1332 0.0617156 0)
(2.13088 0.0675188 0)
(2.12821 0.0728088 0)
(2.1253 0.0775704 0)
(2.12224 0.0818123 0)
(2.11913 0.0855614 0)
(2.11605 0.0888654 0)
(2.11306 0.0917929 0)
(2.11019 0.0944256 0)
(2.10747 0.0968363 0)
(2.10491 0.0990825 0)
(2.10247 0.101232 0)
(2.10013 0.103369 0)
(2.09783 0.105549 0)
(2.09554 0.107788 0)
(2.09317 0.110092 0)
(2.0907 0.112453 0)
(2.08807 0.11485 0)
(2.08524 0.117251 0)
(2.08222 0.119613 0)
(2.07898 0.121892 0)
(2.07554 0.124046 0)
(2.07193 0.126032 0)
(2.06818 0.127821 0)
(2.06434 0.129392 0)
(2.06045 0.13073 0)
(2.05657 0.131834 0)
(2.05275 0.132711 0)
(2.04903 0.133379 0)
(2.04545 0.133866 0)
(2.04206 0.134204 0)
(2.03888 0.134431 0)
(2.03593 0.134587 0)
(2.03321 0.134715 0)
(2.03075 0.134856 0)
(2.02852 0.135049 0)
(2.02654 0.135329 0)
(2.02477 0.135725 0)
(2.02321 0.136261 0)
(2.02184 0.136944 0)
(2.02064 0.137791 0)
(2.01958 0.138822 0)
(2.01866 0.140038 0)
(2.01786 0.141437 0)
(2.01715 0.14301 0)
(2.01651 0.144749 0)
(2.01594 0.146642 0)
(2.01541 0.148675 0)
(2.01491 0.150836 0)
(2.01441 0.153109 0)
(2.12833 -0.0216432 0)
(2.13232 -0.01409 0)
(2.13587 -0.0063494 0)
(2.13893 0.00157783 0)
(2.14142 0.00966974 0)
(2.14326 0.0178786 0)
(2.1444 0.0261335 0)
(2.1448 0.0343369 0)
(2.14443 0.0423781 0)
(2.14332 0.0501384 0)
(2.14152 0.0575021 0)
(2.13909 0.0643618 0)
(2.13616 0.0706345 0)
(2.13284 0.076267 0)
(2.12926 0.0812423 0)
(2.12557 0.0855736 0)
(2.12189 0.0893035 0)
(2.11831 0.0925003 0)
(2.11491 0.0952593 0)
(2.11174 0.0976898 0)
(2.10882 0.099891 0)
(2.10613 0.10194 0)
(2.10366 0.103926 0)
(2.10135 0.105959 0)
(2.09913 0.108101 0)
(2.09692 0.110375 0)
(2.09465 0.112784 0)
(2.09225 0.115313 0)
(2.08965 0.117926 0)
(2.08681 0.120575 0)
(2.08371 0.123199 0)
(2.08033 0.125736 0)
(2.07671 0.128122 0)
(2.07286 0.130303 0)
(2.06884 0.132236 0)
(2.0647 0.133893 0)
(2.0605 0.135254 0)
(2.05632 0.136316 0)
(2.0522 0.137091 0)
(2.04823 0.137602 0)
(2.04443 0.137884 0)
(2.04086 0.137979 0)
(2.03755 0.137936 0)
(2.03452 0.137804 0)
(2.03178 0.137635 0)
(2.02933 0.137478 0)
(2.02717 0.137381 0)
(2.02528 0.137385 0)
(2.02365 0.137527 0)
(2.02225 0.137833 0)
(2.02106 0.138309 0)
(2.02004 0.13897 0)
(2.01918 0.13984 0)
(2.01845 0.140919 0)
(2.01784 0.142204 0)
(2.0173 0.143684 0)
(2.01684 0.145351 0)
(2.01642 0.147193 0)
(2.01602 0.149195 0)
(2.01564 0.151343 0)
(2.01526 0.153623 0)
(2.13598 -0.0264268 0)
(2.14019 -0.0184324 0)
(2.144 -0.0101686 0)
(2.14729 -0.00162373 0)
(2.14997 0.00718432 0)
(2.15193 0.0162032 0)
(2.15309 0.0253326 0)
(2.15337 0.0344511 0)
(2.15274 0.0434115 0)
(2.15121 0.052054 0)
(2.14884 0.0602185 0)
(2.14574 0.0677598 0)
(2.14203 0.0745649 0)
(2.13789 0.0805642 0)
(2.1335 0.085735 0)
(2.12903 0.0900998 0)
(2.12464 0.0937216 0)
(2.12047 0.096699 0)
(2.11661 0.0991612 0)
(2.11311 0.101258 0)
(2.11001 0.103127 0)
(2.10726 0.104872 0)
(2.10482 0.106604 0)
(2.10261 0.108465 0)
(2.10056 0.110532 0)
(2.09855 0.112831 0)
(2.09646 0.115362 0)
(2.0942 0.118097 0)
(2.09169 0.120983 0)
(2.08886 0.123949 0)
(2.08569 0.12691 0)
(2.08217 0.129777 0)
(2.07831 0.132463 0)
(2.07417 0.13489 0)
(2.0698 0.137005 0)
(2.06529 0.138769 0)
(2.0607 0.140155 0)
(2.05614 0.141161 0)
(2.05167 0.141803 0)
(2.04737 0.142115 0)
(2.0433 0.142141 0)
(2.03952 0.141935 0)
(2.03605 0.141559 0)
(2.03293 0.141075 0)
(2.03016 0.140548 0)
(2.02774 0.140036 0)
(2.02565 0.139596 0)
(2.0239 0.139276 0)
(2.02244 0.139125 0)
(2.02125 0.139177 0)
(2.02029 0.139435 0)
(2.01949 0.139905 0)
(2.01886 0.14061 0)
(2.01837 0.141555 0)
(2.01797 0.142735 0)
(2.01765 0.144137 0)
(2.01738 0.14575 0)
(2.01714 0.147559 0)
(2.01691 0.149547 0)
(2.01668 0.151699 0)
(2.01642 0.154003 0)
(2.1442 -0.0315091 0)
(2.14874 -0.023115 0)
(2.15291 -0.0143319 0)
(2.15656 -0.00513409 0)
(2.15955 0.00445943 0)
(2.16173 0.0143873 0)
(2.16298 0.0245491 0)
(2.16318 0.0347679 0)
(2.16227 0.0448433 0)
(2.16025 0.0545591 0)
(2.15719 0.0636938 0)
(2.15323 0.0720478 0)
(2.14855 0.0794673 0)
(2.14338 0.0858596 0)
(2.13795 0.0911969 0)
(2.13251 0.0955148 0)
(2.12725 0.098905 0)
(2.12236 0.101506 0)
(2.11797 0.103496 0)
(2.11413 0.105082 0)
(2.11086 0.106457 0)
(2.10813 0.107761 0)
(2.10582 0.109127 0)
(2.10384 0.110732 0)
(2.10209 0.112678 0)
(2.1004 0.115 0)
(2.09861 0.117691 0)
(2.09659 0.120702 0)
(2.09424 0.123954 0)
(2.09147 0.127344 0)
(2.08824 0.130752 0)
(2.08454 0.134054 0)
(2.0804 0.137132 0)
(2.07589 0.139882 0)
(2.07109 0.142231 0)
(2.0661 0.144129 0)
(2.06103 0.145544 0)
(2.05598 0.146476 0)
(2.05107 0.146948 0)
(2.04637 0.147006 0)
(2.04197 0.146709 0)
(2.03793 0.146129 0)
(2.03428 0.145344 0)
(2.03105 0.144431 0)
(2.02825 0.143472 0)
(2.02587 0.142539 0)
(2.0239 0.141697 0)
(2.02229 0.140999 0)
(2.02103 0.140501 0)
(2.0201 0.140264 0)
(2.01943 0.140287 0)
(2.0189 0.140563 0)
(2.01853 0.141109 0)
(2.01832 0.141929 0)
(2.01819 0.143014 0)
(2.01812 0.144353 0)
(2.01807 0.14593 0)
(2.01804 0.147724 0)
(2.01801 0.149717 0)
(2.01795 0.151892 0)
(2.01785 0.154233 0)
(2.15289 -0.0369814 0)
(2.1579 -0.0282585 0)
(2.1626 -0.0189846 0)
(2.1668 -0.00910495 0)
(2.17028 0.00137302 0)
(2.17284 0.0123698 0)
(2.17427 0.0237438 0)
(2.17443 0.0353028 0)
(2.17322 0.0467627 0)
(2.17063 0.057824 0)
(2.16672 0.068173 0)
(2.16167 0.0775272 0)
(2.15575 0.0856776 0)
(2.14926 0.0925006 0)
(2.14252 0.097964 0)