/*--------------------------------*- C++ -*----------------------------------*\
| =========                 |                                                 |
| \\      /  F ield         | OpenFOAM: The Open Source CFD Toolbox           |
|  \\    /   O peration     | Version:  2206                                  |
|   \\  /    A nd           | Website:  www.openfoam.com                      |
|    \\/     M anipulation  |                                                 |
\*---------------------------------------------------------------------------*/
FoamFile
{
    version     2.0;
    format      ascii;
    arch        "LSB;label=32;scalar=64";
    class       volVectorField;
    location    "19.8";
    object      U;
}
// * * * * * * * * * * * * * * * * * * * * * * * * * * * * * * * * * * * * * //

dimensions      [0 1 -1 0 0 0 0];

internalField   nonuniform List<vector> 
3050
(
(1.47762 0.000203451 0)
(1.4777 0.000610495 0)
(1.47788 0.00101442 0)
(1.47815 0.00141153 0)
(1.47852 0.0017987 0)
(1.47898 0.00217333 0)
(1.47951 0.00253324 0)
(1.48012 0.00287661 0)
(1.48081 0.00320204 0)
(1.48156 0.00350855 0)
(1.48238 0.00379551 0)
(1.48325 0.00406265 0)
(1.48419 0.00430994 0)
(1.48517 0.00453761 0)
(1.4862 0.00474604 0)
(1.48727 0.00493577 0)
(1.48838 0.00510742 0)
(1.48953 0.00526169 0)
(1.49071 0.00539929 0)
(1.49191 0.00552097 0)
(1.49314 0.00562746 0)
(1.49439 0.00571947 0)
(1.49567 0.00579766 0)
(1.49695 0.00586267 0)
(1.49825 0.00591507 0)
(1.49956 0.00595538 0)
(1.50087 0.00598407 0)
(1.50219 0.00600155 0)
(1.50351 0.00600812 0)
(1.50484 0.00600414 0)
(1.50615 0.00598981 0)
(1.50746 0.00596531 0)
(1.50876 0.00593074 0)
(1.51005 0.00588625 0)
(1.51133 0.00583183 0)
(1.51258 0.00576758 0)
(1.51382 0.00569337 0)
(1.51504 0.00560926 0)
(1.51623 0.00551505 0)
(1.51739 0.00541076 0)
(1.51852 0.00529609 0)
(1.51961 0.00517101 0)
(1.52067 0.00503516 0)
(1.52169 0.00488836 0)
(1.52267 0.00473028 0)
(1.52361 0.00456047 0)
(1.5245 0.0043786 0)
(1.52534 0.00418393 0)
(1.52612 0.00397603 0)
(1.52685 0.00375386 0)
(1.52752 0.0035167 0)
(1.52813 0.00326327 0)
(1.52866 0.00299226 0)
(1.52913 0.00270223 0)
(1.52953 0.00239123 0)
(1.52984 0.00205813 0)
(1.53007 0.00170066 0)
(1.53022 0.00131913 0)
(1.53026 0.000904737 0)
(1.5302 0.000455539 0)
(1.53003 -3.28506e-05 0)
(1.52973 -0.000565394 0)
(1.5293 -0.00114774 0)
(1.52873 -0.00178655 0)
(1.52801 -0.00248963 0)
(1.52711 -0.00326603 0)
(1.52602 -0.00412619 0)
(1.52473 -0.00508221 0)
(1.5232 -0.00614812 0)
(1.52143 -0.00734023 0)
(1.51937 -0.00867757 0)
(1.517 -0.0101824 0)
(1.51429 -0.0118807 0)
(1.51118 -0.0138031 0)
(1.50764 -0.0159857 0)
(1.50361 -0.0184712 0)
(1.49903 -0.0213104 0)
(1.49382 -0.0245639 0)
(1.48792 -0.0283044 0)
(1.48121 -0.0326198 0)
(1.4736 -0.0376164 0)
(1.46497 -0.0434244 0)
(1.45516 -0.0502031 0)
(1.44401 -0.05815 0)
(1.43132 -0.067511 0)
(1.41686 -0.0785943 0)
(1.40038 -0.0917902 0)
(1.38157 -0.107596 0)
(1.36005 -0.126654 0)
(1.33541 -0.149796 0)
(1.30715 -0.178119 0)
(1.27467 -0.213089 0)
(1.23722 -0.256664 0)
(1.19384 -0.311651 0)
(1.14313 -0.381651 0)
(1.08263 -0.473228 0)
(1.00897 -0.592251 0)
(0.902584 -0.764122 0)
(0.787302 -0.990247 0)
(0.279793 -1.58468 0)
(1.47762 0.000157432 0)
(1.47769 0.000472672 0)
(1.47787 0.000785968 0)
(1.47814 0.00109444 0)
(1.4785 0.00139566 0)
(1.47894 0.00168761 0)
(1.47946 0.00196852 0)
(1.48005 0.00223694 0)
(1.48072 0.0024917 0)
(1.48146 0.00273192 0)
(1.48226 0.00295704 0)
(1.48312 0.00316676 0)
(1.48404 0.00336098 0)
(1.48501 0.00353981 0)
(1.48602 0.00370349 0)
(1.48708 0.00385241 0)
(1.48818 0.00398703 0)
(1.48931 0.00410789 0)
(1.49047 0.00421557 0)
(1.49166 0.00431067 0)
(1.49288 0.00439379 0)
(1.49412 0.00446552 0)
(1.49538 0.00452646 0)
(1.49665 0.00457714 0)
(1.49794 0.00461808 0)
(1.49924 0.00464975 0)
(1.50054 0.00467257 0)
(1.50185 0.00468696 0)
(1.50316 0.00469313 0)
(1.50447 0.0046915 0)
(1.50578 0.00468224 0)
(1.50708 0.00466553 0)
(1.50837 0.00464147 0)
(1.50965 0.00461021 0)
(1.51091 0.00457171 0)
(1.51216 0.00452612 0)
(1.51339 0.00447325 0)
(1.51459 0.00441323 0)
(1.51577 0.00434575 0)
(1.51692 0.00427096 0)
(1.51804 0.00418839 0)
(1.51913 0.00409823 0)
(1.52018 0.00399986 0)
(1.52119 0.00389348 0)
(1.52216 0.00377835 0)
(1.52308 0.00365459 0)
(1.52396 0.00352135 0)
(1.52479 0.00337866 0)
(1.52556 0.00322547 0)
(1.52628 0.00306175 0)
(1.52694 0.00288602 0)
(1.52753 0.00269837 0)
(1.52806 0.0024964 0)
(1.52851 0.00228072 0)
(1.52889 0.00204702 0)
(1.52918 0.00179812 0)
(1.52939 0.0015265 0)
(1.5295 0.00124177 0)
(1.52952 0.000929836 0)
(1.52943 0.000591594 0)
(1.52921 0.000223303 0)
(1.52888 -0.000179323 0)
(1.5284 -0.000620557 0)
(1.52778 -0.00110548 0)
(1.52699 -0.00164011 0)
(1.52602 -0.00223164 0)
(1.52485 -0.00288827 0)
(1.52347 -0.00361961 0)
(1.52184 -0.00443672 0)
(1.51994 -0.00535265 0)
(1.51774 -0.00638259 0)
(1.51521 -0.00754433 0)
(1.51231 -0.00885881 0)
(1.50898 -0.0103508 0)
(1.50519 -0.0120493 0)
(1.50086 -0.0139893 0)
(1.49593 -0.016212 0)
(1.49031 -0.0187672 0)
(1.48393 -0.0217144 0)
(1.47665 -0.0251263 0)
(1.46836 -0.029091 0)
(1.45891 -0.0337171 0)
(1.44812 -0.0391382 0)
(1.43578 -0.045521 0)
(1.42164 -0.0530739 0)
(1.40541 -0.0620605 0)
(1.38673 -0.0728159 0)
(1.36517 -0.0857704 0)
(1.34022 -0.10148 0)
(1.31122 -0.120671 0)
(1.27737 -0.144293 0)
(1.23767 -0.173606 0)
(1.1908 -0.210278 0)
(1.13495 -0.256527 0)
(1.06765 -0.315299 0)
(0.98497 -0.390413 0)
(0.881007 -0.486512 0)
(0.746304 -0.609801 0)
(0.565538 -0.761758 0)
(0.26974 -0.884423 0)
(1.47762 0.00011259 0)
(1.47769 0.000338353 0)
(1.47786 0.000563229 0)
(1.47813 0.000785084 0)
(1.47848 0.00100213 0)
(1.47891 0.00121286 0)
(1.47942 0.00141597 0)
(1.48001 0.00161031 0)
(1.48066 0.00179498 0)
(1.48139 0.00196927 0)
(1.48218 0.00213269 0)
(1.48303 0.00228495 0)
(1.48393 0.00242592 0)
(1.48489 0.00255561 0)
(1.48589 0.00267418 0)
(1.48694 0.00278188 0)
(1.48802 0.00287905 0)
(1.48915 0.00296609 0)
(1.4903 0.00304343 0)
(1.49148 0.00311155 0)
(1.49269 0.00317094 0)
(1.49392 0.0032221 0)
(1.49517 0.0032655 0)
(1.49644 0.00330162 0)
(1.49771 0.00333089 0)
(1.499 0.00335376 0)
(1.5003 0.00337058 0)
(1.5016 0.00338175 0)
(1.5029 0.00338745 0)
(1.5042 0.00338807 0)
(1.5055 0.0033838 0)
(1.50679 0.00337481 0)
(1.50808 0.00336118 0)
(1.50935 0.00334308 0)
(1.51061 0.00332043 0)
(1.51185 0.00329342 0)
(1.51307 0.0032618 0)
(1.51426 0.00322577 0)
(1.51544 0.00318495 0)
(1.51658 0.00313956 0)
(1.51769 0.00308906 0)
(1.51877 0.00303375 0)
(1.51982 0.00297292 0)
(1.52082 0.00290692 0)
(1.52178 0.0028349 0)
(1.5227 0.00275726 0)
(1.52357 0.00267297 0)
(1.52439 0.00258249 0)
(1.52516 0.00248454 0)
(1.52587 0.00237975 0)
(1.52652 0.00226629 0)
(1.5271 0.00214526 0)
(1.52762 0.00201369 0)
(1.52805 0.00187376 0)
(1.52842 0.00171986 0)
(1.5287 0.00155732 0)
(1.52889 0.00137453 0)
(1.52898 0.00118955 0)
(1.52898 0.000981895 0)
(1.52886 0.000756885 0)
(1.52863 0.000512191 0)
(1.52826 0.000244242 0)
(1.52775 -5.02071e-05 0)
(1.52708 -0.00037463 0)
(1.52625 -0.000733321 0)
(1.52523 -0.00113132 0)
(1.524 -0.00157452 0)
(1.52254 -0.00206968 0)
(1.52084 -0.00262477 0)
(1.51885 -0.0032491 0)
(1.51654 -0.00395365 0)
(1.51389 -0.00475128 0)
(1.51084 -0.00565722 0)
(1.50735 -0.00668941 0)
(1.50336 -0.00786926 0)
(1.49881 -0.00922212 0)
(1.49361 -0.0107785 0)
(1.48768 -0.0125749 0)
(1.48092 -0.0146556 0)
(1.4732 -0.0170745 0)
(1.46439 -0.0198974 0)
(1.4543 -0.0232055 0)
(1.44274 -0.0270996 0)
(1.42946 -0.0317054 0)
(1.41417 -0.0371813 0)
(1.39653 -0.0437281 0)
(1.37609 -0.0516025 0)
(1.35233 -0.0611346 0)
(1.32459 -0.0727519 0)
(1.29206 -0.0870107 0)
(1.25369 -0.104637 0)
(1.20817 -0.126576 0)
(1.1538 -0.154049 0)
(1.08832 -0.188617 0)
(1.00872 -0.232153 0)
(0.910876 -0.286837 0)
(0.788844 -0.35472 0)
(0.634565 -0.437082 0)
(0.431801 -0.532234 0)
(0.157689 -0.641009 0)
(1.47762 6.85692e-05 0)
(1.47769 0.000206465 0)
(1.47786 0.000344432 0)
(1.47812 0.000481052 0)
(1.47847 0.000615143 0)
(1.47889 0.000745697 0)
(1.4794 0.000871816 0)
(1.47997 0.000992714 0)
(1.48063 0.00110773 0)
(1.48134 0.00121635 0)
(1.48213 0.00131818 0)
(1.48297 0.00141295 0)
(1.48386 0.00150054 0)
(1.48481 0.00158091 0)
(1.48581 0.00165413 0)
(1.48685 0.00172034 0)
(1.48793 0.00177977 0)
(1.48904 0.00183268 0)
(1.49019 0.0018794 0)
(1.49136 0.00192028 0)
(1.49257 0.0019557 0)
(1.49379 0.00198605 0)
(1.49503 0.00201173 0)
(1.49629 0.00203311 0)
(1.49757 0.00205059 0)
(1.49885 0.00206452 0)
(1.50014 0.00207524 0)
(1.50144 0.0020831 0)
(1.50274 0.00208826 0)
(1.50403 0.0020911 0)
(1.50533 0.00209173 0)
(1.50661 0.00209038 0)
(1.50789 0.00208713 0)
(1.50916 0.00208209 0)
(1.51041 0.00207525 0)
(1.51164 0.00206669 0)
(1.51286 0.00205629 0)
(1.51405 0.00204411 0)
(1.51522 0.00202991 0)
(1.51636 0.00201379 0)
(1.51747 0.00199535 0)
(1.51854 0.00197476 0)
(1.51959 0.0019515 0)
(1.52058 0.0019258 0)
(1.52155 0.001897 0)
(1.52246 0.00186545 0)
(1.52333 0.00183034 0)
(1.52414 0.00179214 0)
(1.5249 0.00174986 0)
(1.5256 0.00170414 0)
(1.52625 0.00165362 0)
(1.52683 0.00159939 0)
(1.52734 0.00153931 0)
(1.52777 0.00147533 0)
(1.52813 0.0014035 0)
(1.5284 0.00132843 0)
(1.52859 0.00123718 0)
(1.52866 0.00115081 0)
(1.52864 0.0010537 0)
(1.52851 0.000945462 0)
(1.52826 0.000826899 0)
(1.52787 0.00069623 0)
(1.52734 0.000551814 0)
(1.52665 0.000391816 0)
(1.52579 0.000213832 0)
(1.52473 1.49775e-05 0)
(1.52347 -0.000208065 0)
(1.52197 -0.000459142 0)
(1.52021 -0.000742815 0)
(1.51816 -0.0010645 0)
(1.51579 -0.0014306 0)
(1.51305 -0.00184873 0)
(1.50991 -0.00232789 0)
(1.50631 -0.00287876 0)
(1.5022 -0.00351408 0)
(1.49749 -0.00424905 0)
(1.49212 -0.00510198 0)
(1.48598 -0.00609493 0)
(1.47897 -0.0072547 0)
(1.47096 -0.00861394 0)
(1.46178 -0.0102128 0)
(1.45126 -0.0121009 0)
(1.43918 -0.0143401 0)
(1.42526 -0.0170077 0)
(1.40919 -0.0202018 0)
(1.39057 -0.0240468 0)
(1.36891 -0.0287025 0)
(1.34362 -0.0343746 0)
(1.31394 -0.0413295 0)
(1.27894 -0.0499134 0)
(1.23743 -0.0605752 0)
(1.18789 -0.0738926 0)
(1.1284 -0.0905969 0)
(1.05649 -0.111582 0)
(0.969043 -0.137862 0)
(0.862175 -0.170457 0)
(0.731084 -0.210017 0)
(0.570624 -0.255581 0)
(0.37465 -0.30519 0)
(0.139585 -0.319222 0)
(1.4821 0.000509334 0)
(1.48294 0.00054662 0)
(1.48383 0.000580764 0)
(1.48478 0.000611698 0)
(1.48577 0.000639415 0)
(1.4868 0.000663971 0)
(1.48788 0.000685478 0)
(1.48899 0.000704096 0)
(1.49014 0.000720028 0)
(1.49131 0.000733513 0)
(1.49251 0.000744819 0)
(1.49373 0.000754234 0)
(1.49497 0.000762063 0)
(1.49623 0.000768615 0)
(1.4975 0.000774204 0)
(1.49878 0.000779132 0)
(1.50007 0.000783689 0)
(1.50136 0.000788156 0)
(1.50266 0.000792757 0)
(1.50395 0.000797745 0)
(1.50525 0.000803263 0)
(1.50653 0.000809477 0)
(1.50781 0.000816575 0)
(1.50907 0.000824498 0)
(1.51032 0.000833422 0)
(1.51155 0.0008432 0)
(1.51277 0.000853973 0)
(1.51395 0.000865507 0)
(1.51512 0.000877901 0)
(1.51626 0.000890877 0)
(1.51737 0.000904488 0)
(1.51844 0.000918446 0)
(1.51948 0.000932775 0)
(1.52048 0.000947188 0)
(1.52144 0.000961724 0)
(1.52235 0.000976089 0)
(1.52322 0.000990386 0)
(1.52403 0.00100429 0)
(1.5248 0.00101802 0)
(1.52549 0.00103116 0)
(1.52614 0.00104416 0)
(1.52671 0.00105642 0)
(1.52723 0.00106865 0)
(1.52765 0.00108009 0)
(1.52802 0.00109169 0)
(1.52828 0.0011023 0)
(1.52847 0.00111437 0)
(1.52854 0.00112549 0)
(1.52851 0.00113176 0)
(1.52838 0.00114079 0)
(1.52812 0.00115033 0)
(1.52773 0.00115989 0)
(1.52719 0.00116898 0)
(1.52649 0.00117693 0)
(1.52561 0.00118315 0)
(1.52454 0.00118717 0)
(1.52326 0.00118846 0)
(1.52174 0.00118626 0)
(1.51996 0.00117954 0)
(1.51789 0.00116692 0)
(1.51549 0.00114674 0)
(1.51272 0.00111694 0)
(1.50954 0.00107504 0)
(1.50589 0.00101804 0)
(1.50171 0.000942282 0)
(1.49694 0.000843338 0)
(1.49149 0.000715814 0)
(1.48525 0.000553124 0)
(1.47812 0.000347222 0)
(1.46997 8.81674e-05 0)
(1.46062 -0.00023634 0)
(1.4499 -0.000641681 0)
(1.43756 -0.00114715 0)
(1.42333 -0.00177718 0)
(1.40687 -0.00256285 0)
(1.38777 -0.00354402 0)
(1.36551 -0.00477213 0)
(1.33946 -0.00631394 0)
(1.30881 -0.0082564 0)
(1.27258 -0.0107129 0)
(1.22948 -0.0138309 0)
(1.17793 -0.0178001 0)
(1.1159 -0.0228591 0)
(1.04084 -0.0292963 0)
(0.949645 -0.0374302 0)
(0.838636 -0.047556 0)
(0.703611 -0.0597846 0)
(0.540952 -0.0738815 0)
(0.346039 -0.0880034 0)
(0.121113 -0.1015 0)
(1.46038 0.00806003 0)
(1.4504 0.0150191 0)
(1.43244 0.0175721 0)
(1.40883 0.018643 0)
(1.38391 0.0193469 0)
(1.35902 0.019834 0)
(1.334 0.0201253 0)
(1.30864 0.0202679 0)
(1.28299 0.0203209 0)
(1.25719 0.0203144 0)
(1.23132 0.0202545 0)
(1.20541 0.0201367 0)
(1.17951 0.0199742 0)
(1.15365 0.0197839 0)
(1.12784 0.019573 0)
(1.10211 0.0193417 0)
(1.07646 0.0190904 0)
(1.05093 0.0188207 0)
(1.02552 0.0185368 0)
(1.00025 0.0182407 0)
(0.975154 0.0179328 0)
(0.950236 0.0176137 0)
(0.925518 0.0172823 0)
(0.901019 0.0169402 0)
(0.87675 0.0165898 0)
(0.852749 0.0162416 0)
(0.828982 0.0159101 0)
(0.805278 0.0155552 0)
(0.782112 0.0151362 0)
(0.759332 0.0146596 0)
(0.736968 0.0141414 0)
(0.715099 0.0135887 0)
(0.693778 0.0130048 0)
(0.673041 0.0123931 0)
(0.652926 0.011757 0)
(0.633475 0.0111004 0)
(0.614724 0.0104258 0)
(0.596709 0.00973446 0)
(0.579463 0.00902798 0)
(0.563017 0.00831186 0)
(0.547397 0.00758095 0)
(0.532652 0.00683466 0)
(0.518781 0.00610426 0)
(0.505782 0.00539982 0)
(0.493661 0.0047191 0)
(0.482416 0.00405986 0)
(0.472047 0.00342259 0)
(0.462544 0.0028092 0)
(0.453896 0.00222287 0)
(0.44608 0.00166539 0)
(0.439078 0.00113848 0)
(0.432861 0.00064061 0)
(0.427412 0.000185182 0)
(0.422684 -0.000234538 0)
(0.418672 -0.000629673 0)
(0.415318 -0.000998587 0)
(0.412635 -0.0013408 0)
(0.410552 -0.00166036 0)
(0.409115 -0.00194774 0)
(0.408207 -0.00225135 0)
(0.408014 -0.00250361 0)
(0.408338 -0.00280764 0)
(0.409308 -0.00319959 0)
(0.410909 -0.00351947 0)
(0.413109 -0.00379167 0)
(0.415887 -0.00404091 0)
(0.419264 -0.00428233 0)
(0.423227 -0.00454538 0)
(0.427812 -0.0048144 0)
(0.433046 -0.00507695 0)
(0.438957 -0.00535554 0)
(0.445577 -0.00565436 0)
(0.452945 -0.00598013 0)
(0.461113 -0.00634552 0)
(0.470134 -0.00673999 0)
(0.480066 -0.00716488 0)
(0.490967 -0.00762293 0)
(0.502904 -0.008116 0)
(0.515942 -0.00864489 0)
(0.53015 -0.00920944 0)
(0.545595 -0.00980868 0)
(0.562342 -0.0104403 0)
(0.580454 -0.011101 0)
(0.599987 -0.0117866 0)
(0.620999 -0.0124949 0)
(0.643543 -0.0132237 0)
(0.667667 -0.0139676 0)
(0.693405 -0.0147186 0)
(0.720779 -0.0154653 0)
(0.749793 -0.0161881 0)
(0.780419 -0.01686 0)
(0.81258 -0.0174594 0)
(0.846155 -0.0179758 0)
(0.880926 -0.0184266 0)
(0.917037 -0.0187863 0)
(0.953891 -0.0189739 0)
(0.991253 -0.0189479 0)
(1.02885 -0.0187018 0)
(1.06631 -0.0182279 0)
(1.1033 -0.0175401 0)
(1.47997 0.0115915 0)
(1.48684 0.0211017 0)
(1.49477 0.0247885 0)
(1.49732 0.0265104 0)
(1.49838 0.0277784 0)
(1.4989 0.0288334 0)
(1.49881 0.0295114 0)
(1.498 0.0300755 0)
(1.49651 0.0304569 0)
(1.49441 0.0307841 0)
(1.49177 0.0310754 0)
(1.48861 0.0312868 0)
(1.485 0.0314447 0)
(1.48095 0.0315816 0)
(1.47646 0.0317035 0)
(1.47156 0.0318069 0)
(1.46624 0.0318891 0)
(1.46053 0.0319453 0)
(1.45445 0.0319759 0)
(1.448 0.0319834 0)
(1.4412 0.031968 0)
(1.43406 0.0319276 0)
(1.4266 0.0318621 0)
(1.41882 0.031773 0)
(1.41073 0.0316618 0)
(1.40237 0.0315297 0)
(1.39375 0.0313787 0)
(1.3849 0.0311785 0)
(1.37586 0.0308979 0)
(1.3666 0.0305465 0)
(1.35713 0.0301349 0)
(1.3475 0.0296644 0)
(1.33772 0.0291338 0)
(1.32782 0.0285432 0)
(1.31782 0.0278931 0)
(1.30776 0.0271874 0)
(1.29765 0.0264299 0)
(1.28752 0.0256202 0)
(1.2774 0.0247588 0)
(1.26731 0.0238485 0)
(1.25731 0.0228938 0)
(1.24731 0.021895 0)
(1.23745 0.0208667 0)
(1.22774 0.0198028 0)
(1.2182 0.0187172 0)
(1.20885 0.0176151 0)
(1.19974 0.0165047 0)
(1.19086 0.0153909 0)
(1.18227 0.0142827 0)
(1.17396 0.0131842 0)
(1.16596 0.0121013 0)
(1.15828 0.0110358 0)
(1.15094 0.00999175 0)
(1.14394 0.00896957 0)
(1.13733 0.00797178 0)
(1.13108 0.00699425 0)
(1.12525 0.00604042 0)
(1.1198 0.00509983 0)
(1.11482 0.00418058 0)
(1.11021 0.00325574 0)
(1.10613 0.00234509 0)
(1.10242 0.00141687 0)
(1.09922 0.000494079 0)
(1.09648 -0.000443522 0)
(1.09423 -0.00140415 0)
(1.09259 -0.00237272 0)
(1.09156 -0.0033951 0)
(1.0912 -0.00434697 0)
(1.09147 -0.00539909 0)
(1.09245 -0.00650565 0)
(1.09419 -0.00766254 0)
(1.09673 -0.00887658 0)
(1.10011 -0.0101557 0)
(1.10439 -0.0115071 0)
(1.10962 -0.0129376 0)
(1.11585 -0.0144542 0)
(1.12314 -0.0160624 0)
(1.13156 -0.0177662 0)
(1.14116 -0.0195678 0)
(1.15201 -0.0214673 0)
(1.16417 -0.0234631 0)
(1.1777 -0.0255526 0)
(1.19265 -0.0277341 0)
(1.20909 -0.0300043 0)
(1.22709 -0.0323588 0)
(1.24671 -0.0347901 0)
(1.26799 -0.0372857 0)
(1.29096 -0.0398277 0)
(1.31566 -0.0424045 0)
(1.34212 -0.0449698 0)
(1.37029 -0.0474502 0)
(1.40013 -0.0497708 0)
(1.43147 -0.0518659 0)
(1.46413 -0.05373 0)
(1.49794 -0.0553235 0)
(1.53275 -0.0565379 0)
(1.56841 -0.0572941 0)
(1.60471 -0.057559 0)
(1.64139 -0.0573216 0)
(1.67834 -0.0565661 0)
(1.4785 0.005399 0)
(1.48172 0.0117551 0)
(1.48624 0.0151455 0)
(1.49045 0.0175956 0)
(1.49388 0.0196958 0)
(1.49685 0.0214654 0)
(1.49971 0.0229526 0)
(1.50218 0.0241503 0)
(1.50455 0.0251833 0)
(1.50648 0.0260643 0)
(1.50857 0.0268638 0)
(1.51031 0.0275924 0)
(1.51177 0.0282585 0)
(1.51305 0.0288705 0)
(1.51417 0.0294344 0)
(1.51513 0.0299525 0)
(1.51594 0.0304325 0)
(1.5166 0.0308835 0)
(1.51711 0.0312985 0)
(1.51749 0.0316758 0)
(1.51773 0.0320123 0)
(1.51782 0.0323304 0)
(1.51778 0.0325939 0)
(1.5176 0.0328385 0)
(1.51727 0.0330567 0)
(1.51679 0.0332748 0)
(1.51619 0.033431 0)
(1.51547 0.0334768 0)
(1.51462 0.0334431 0)
(1.51363 0.033343 0)
(1.51249 0.0331765 0)
(1.5112 0.0329414 0)
(1.50977 0.0326349 0)
(1.50818 0.032255 0)
(1.50646 0.0318 0)
(1.50461 0.0312693 0)
(1.50262 0.0306669 0)
(1.50049 0.0299985 0)
(1.49824 0.0292662 0)
(1.49586 0.0284721 0)
(1.49338 0.027622 0)
(1.4908 0.0267206 0)
(1.48814 0.0257692 0)
(1.48539 0.0247717 0)
(1.48257 0.0237339 0)
(1.47968 0.0226596 0)
(1.47675 0.0215544 0)
(1.47379 0.020427 0)
(1.47082 0.0192862 0)
(1.46785 0.0181385 0)
(1.46489 0.0169883 0)
(1.46196 0.0158388 0)
(1.45907 0.0146927 0)
(1.45625 0.0135511 0)
(1.45351 0.0124141 0)
(1.45086 0.0112804 0)
(1.44832 0.0101487 0)
(1.44592 0.00901954 0)
(1.44366 0.00787252 0)
(1.44157 0.0067005 0)
(1.43963 0.00548842 0)
(1.43792 0.0042853 0)
(1.43641 0.00302899 0)
(1.43516 0.0017562 0)
(1.43414 0.000432152 0)
(1.4334 -0.000941804 0)
(1.43295 -0.00236689 0)
(1.43283 -0.003872 0)
(1.43308 -0.0054524 0)
(1.43374 -0.00711741 0)
(1.43483 -0.00887938 0)
(1.43638 -0.0107495 0)
(1.43845 -0.0127384 0)
(1.44108 -0.0148566 0)
(1.4443 -0.0171134 0)
(1.44817 -0.0195172 0)
(1.45275 -0.0220751 0)
(1.45809 -0.024794 0)
(1.46424 -0.0276758 0)
(1.47127 -0.0307222 0)
(1.47925 -0.0339254 0)
(1.48822 -0.0372765 0)
(1.49824 -0.0407843 0)
(1.50938 -0.0444518 0)
(1.52171 -0.0482657 0)
(1.53528 -0.0522023 0)
(1.55013 -0.0562388 0)
(1.56632 -0.0603473 0)
(1.58392 -0.064533 0)
(1.60291 -0.0687146 0)
(1.62327 -0.0727746 0)
(1.64496 -0.0765838 0)
(1.66792 -0.0800066 0)
(1.69217 -0.0830508 0)
(1.71775 -0.0857105 0)
(1.74462 -0.0878895 0)
(1.77267 -0.0894756 0)
(1.80173 -0.0903866 0)
(1.83157 -0.0905719 0)
(1.86192 -0.0899685 0)
(1.47803 0.00331309 0)
(1.47982 0.00905578 0)
(1.48292 0.0132724 0)
(1.48624 0.0164109 0)
(1.48914 0.0188542 0)
(1.49176 0.0208326 0)
(1.4943 0.0224402 0)
(1.49678 0.0237532 0)
(1.49915 0.024851 0)
(1.50138 0.0257894 0)
(1.50348 0.0265862 0)
(1.50551 0.0273062 0)
(1.5075 0.027981 0)
(1.50944 0.0285939 0)
(1.51133 0.0291428 0)
(1.51316 0.0296334 0)
(1.51494 0.0300819 0)
(1.51668 0.0304862 0)
(1.51838 0.0308461 0)
(1.52005 0.0311786 0)
(1.52169 0.031486 0)
(1.5233 0.0317546 0)
(1.52489 0.0319946 0)
(1.52646 0.0322048 0)
(1.52802 0.0323851 0)
(1.5297 0.032531 0)
(1.53129 0.0326431 0)
(1.53283 0.0327092 0)
(1.53434 0.0327183 0)
(1.5358 0.0326647 0)
(1.5372 0.0325457 0)
(1.53854 0.032361 0)
(1.53982 0.03211 0)
(1.54103 0.0317919 0)
(1.54217 0.0313985 0)
(1.54322 0.0309661 0)
(1.54419 0.0304839 0)
(1.54508 0.0299106 0)
(1.5459 0.0292698 0)
(1.54663 0.0285691 0)
(1.54727 0.0278133 0)
(1.54783 0.0270046 0)
(1.54831 0.0261437 0)
(1.54869 0.0252372 0)
(1.54899 0.0242938 0)
(1.54919 0.0233075 0)
(1.54932 0.0222762 0)
(1.54938 0.0212102 0)
(1.54938 0.0201201 0)
(1.54932 0.019013 0)
(1.5492 0.0178925 0)
(1.54904 0.0167619 0)
(1.54884 0.0156225 0)
(1.54862 0.0144728 0)
(1.54838 0.0133099 0)
(1.54814 0.0121328 0)
(1.54792 0.0109428 0)
(1.54772 0.00973742 0)
(1.54755 0.00851155 0)
(1.54744 0.00725929 0)
(1.54738 0.00597412 0)
(1.54739 0.00464889 0)
(1.54749 0.00327494 0)
(1.54768 0.00184637 0)
(1.54799 0.000354747 0)
(1.54844 -0.00120649 0)
(1.54903 -0.00284633 0)
(1.54978 -0.00456904 0)
(1.55072 -0.00639137 0)
(1.55187 -0.00833039 0)
(1.55326 -0.0103986 0)
(1.5549 -0.012607 0)
(1.55683 -0.0149671 0)
(1.55909 -0.0174915 0)
(1.5617 -0.0201923 0)
(1.5647 -0.0230822 0)
(1.56815 -0.0261709 0)
(1.57208 -0.0294733 0)
(1.57654 -0.0329905 0)
(1.5816 -0.0367378 0)
(1.58731 -0.0406975 0)
(1.5937 -0.04484 0)
(1.60087 -0.0491999 0)
(1.60892 -0.0537982 0)
(1.61793 -0.05862 0)
(1.62801 -0.063635 0)
(1.63921 -0.0688104 0)
(1.6516 -0.0741078 0)
(1.66533 -0.0794685 0)
(1.6798 -0.0848189 0)
(1.69606 -0.0900851 0)
(1.71329 -0.095193 0)
(1.73275 -0.100071 0)
(1.75406 -0.104632 0)
(1.77689 -0.108752 0)
(1.80118 -0.112289 0)
(1.82685 -0.115101 0)
(1.85374 -0.117061 0)
(1.88163 -0.118062 0)
(1.91028 -0.11801 0)
(1.47783 0.00243138 0)
(1.47886 0.00703772 0)
(1.48087 0.0107208 0)
(1.48326 0.0135227 0)
(1.48559 0.0157425 0)
(1.48781 0.0175982 0)
(1.49002 0.0191725 0)
(1.49221 0.020503 0)
(1.49434 0.0216336 0)
(1.49639 0.0226137 0)
(1.49838 0.0234814 0)
(1.50033 0.0242727 0)
(1.50224 0.024999 0)
(1.50414 0.0256621 0)
(1.50601 0.0262662 0)
(1.50787 0.0268209 0)
(1.50972 0.0273327 0)
(1.51157 0.0278075 0)
(1.51341 0.028244 0)
(1.51526 0.0286433 0)
(1.51711 0.0290038 0)
(1.51896 0.0293353 0)
(1.52081 0.0296311 0)
(1.52267 0.0298875 0)
(1.52451 0.0300954 0)
(1.52635 0.030265 0)
(1.5282 0.0304113 0)
(1.53006 0.0305214 0)
(1.53194 0.030579 0)
(1.53381 0.0305768 0)
(1.53567 0.0305129 0)
(1.5375 0.0303889 0)
(1.53933 0.030201 0)
(1.54111 0.0299513 0)
(1.54288 0.0296348 0)
(1.54459 0.0292586 0)
(1.54628 0.0288142 0)
(1.54791 0.0283108 0)
(1.54951 0.0277396 0)
(1.55103 0.0271156 0)
(1.55252 0.026418 0)
(1.55393 0.0256792 0)
(1.5553 0.024877 0)
(1.55658 0.0240425 0)
(1.55786 0.0231603 0)
(1.55911 0.0222386 0)
(1.56024 0.0212825 0)
(1.56129 0.0202964 0)
(1.56227 0.0192839 0)
(1.56318 0.0182481 0)
(1.56402 0.0171919 0)
(1.56482 0.0161187 0)
(1.56556 0.0150317 0)
(1.56626 0.0139278 0)
(1.56692 0.0127982 0)
(1.56758 0.0116399 0)
(1.56822 0.0104584 0)
(1.56887 0.00925342 0)
(1.56951 0.00801855 0)
(1.57017 0.00674537 0)
(1.57084 0.00542487 0)
(1.57155 0.00405315 0)
(1.57229 0.00262197 0)
(1.57308 0.00112581 0)
(1.57394 -0.000441983 0)
(1.57486 -0.0020941 0)
(1.57587 -0.0038375 0)
(1.57697 -0.00568447 0)
(1.57819 -0.00765324 0)
(1.57953 -0.00975991 0)
(1.58103 -0.0120177 0)
(1.58271 -0.0144402 0)
(1.58457 -0.0170421 0)
(1.58666 -0.0198391 0)
(1.58901 -0.0228468 0)
(1.59164 -0.0260805 0)
(1.59458 -0.0295553 0)
(1.59791 -0.0332856 0)
(1.60157 -0.0372853 0)
(1.60585 -0.0415659 0)
(1.61036 -0.0461392 0)
(1.61586 -0.0510161 0)
(1.62209 -0.0562049 0)
(1.6291 -0.0617052 0)
(1.63699 -0.0675067 0)
(1.64587 -0.0735901 0)
(1.65583 -0.0799234 0)
(1.66697 -0.0864624 0)
(1.67942 -0.0931092 0)
(1.69334 -0.099822 0)
(1.70881 -0.106569 0)
(1.72589 -0.113308 0)
(1.74458 -0.119976 0)
(1.76486 -0.12635 0)
(1.78679 -0.132183 0)
(1.81039 -0.13729 0)
(1.83556 -0.14151 0)
(1.86215 -0.144684 0)
(1.88995 -0.146659 0)
(1.91868 -0.14731 0)
(1.47774 0.00190394 0)
(1.47838 0.00560595 0)
(1.47976 0.00883448 0)
(1.48157 0.0115176 0)
(1.48351 0.0137652 0)
(1.48545 0.0156944 0)
(1.4874 0.017363 0)
(1.48935 0.0187997 0)
(1.49128 0.0200391 0)
(1.49318 0.0211198 0)
(1.49504 0.0220723 0)
(1.49687 0.0229194 0)
(1.49868 0.0236781 0)
(1.50046 0.0243607 0)
(1.50224 0.0249754 0)
(1.50401 0.0255303 0)
(1.50577 0.0260318 0)
(1.50752 0.0264849 0)
(1.50928 0.0268922 0)
(1.51104 0.0272573 0)
(1.5128 0.0275831 0)
(1.51457 0.0278714 0)
(1.51635 0.0281226 0)
(1.51814 0.0283371 0)
(1.51993 0.028515 0)
(1.52174 0.0286597 0)
(1.52357 0.0287729 0)
(1.52541 0.0288466 0)
(1.52726 0.0288717 0)
(1.52912 0.0288437 0)
(1.53099 0.0287621 0)
(1.53286 0.0286261 0)
(1.53472 0.0284341 0)
(1.53657 0.0281856 0)
(1.5384 0.02788 0)
(1.54022 0.0275199 0)
(1.54201 0.027104 0)
(1.54377 0.0266307 0)
(1.5455 0.0260987 0)
(1.54719 0.0255149 0)
(1.54883 0.0248823 0)
(1.55041 0.0242003 0)
(1.55195 0.0234656 0)
(1.55342 0.0226828 0)
(1.55483 0.021847 0)
(1.55617 0.0209783 0)
(1.55746 0.0200848 0)
(1.55869 0.0191679 0)
(1.55988 0.0182176 0)
(1.561 0.0172442 0)
(1.56208 0.0162373 0)
(1.5631 0.0152123 0)
(1.5641 0.0141596 0)
(1.56508 0.0130817 0)
(1.56603 0.0119778 0)
(1.5669 0.0108457 0)
(1.56774 0.00968263 0)
(1.56857 0.00848436 0)
(1.56939 0.00724532 0)
(1.5702 0.00595939 0)
(1.57102 0.0046202 0)
(1.57184 0.00322172 0)
(1.57269 0.00175654 0)
(1.57356 0.000216271 0)
(1.57448 -0.00140743 0)
(1.57543 -0.00312522 0)
(1.57646 -0.00494931 0)
(1.57758 -0.00689353 0)
(1.57879 -0.00897302 0)
(1.5801 -0.0112037 0)
(1.58155 -0.0136018 0)
(1.58314 -0.0161847 0)
(1.5849 -0.0189702 0)
(1.58685 -0.021977 0)
(1.58903 -0.0252244 0)
(1.59147 -0.0287311 0)
(1.5942 -0.0325185 0)
(1.59729 -0.0366023 0)
(1.60077 -0.0410094 0)
(1.60471 -0.0457519 0)
(1.60918 -0.0508685 0)
(1.61422 -0.0564074 0)
(1.6199 -0.0623475 0)
(1.62633 -0.0686711 0)
(1.63362 -0.0753781 0)
(1.64188 -0.0824647 0)
(1.65124 -0.0899108 0)
(1.6618 -0.097679 0)
(1.6737 -0.105715 0)
(1.68709 -0.113971 0)
(1.7021 -0.122381 0)
(1.71881 -0.130841 0)
(1.73732 -0.139199 0)
(1.75767 -0.147237 0)
(1.77988 -0.154726 0)
(1.80396 -0.161454 0)
(1.82983 -0.167201 0)
(1.85733 -0.171741 0)
(1.88624 -0.17485 0)
(1.91625 -0.176341 0)
(1.4777 0.00156408 0)
(1.47815 0.00464623 0)
(1.47915 0.0074788 0)
(1.48056 0.00995177 0)
(1.48214 0.0120736 0)
(1.48379 0.0139084 0)
(1.48548 0.015507 0)
(1.48721 0.0169003 0)
(1.48895 0.0181147 0)
(1.49069 0.0191791 0)
(1.49242 0.0201192 0)
(1.49413 0.0209564 0)
(1.49584 0.0217077 0)
(1.49754 0.0223853 0)
(1.49924 0.0229976 0)
(1.50094 0.0235514 0)
(1.50263 0.0240528 0)
(1.50433 0.0245069 0)
(1.50602 0.0249171 0)
(1.50773 0.0252867 0)
(1.50943 0.0256179 0)
(1.51115 0.0259122 0)
(1.51287 0.0261704 0)
(1.5146 0.0263922 0)
(1.51634 0.0265771 0)
(1.51809 0.0267248 0)
(1.51985 0.0268346 0)
(1.52162 0.0269035 0)
(1.5234 0.0269275 0)
(1.52518 0.0269033 0)
(1.52697 0.0268294 0)
(1.52876 0.0267043 0)
(1.53054 0.0265268 0)
(1.53231 0.0262967 0)
(1.53406 0.0260132 0)
(1.5358 0.0256777 0)
(1.53751 0.0252892 0)
(1.5392 0.0248477 0)
(1.54086 0.0243528 0)
(1.54248 0.0238076 0)
(1.54406 0.0232126 0)
(1.5456 0.0225709 0)
(1.5471 0.0218825 0)
(1.54855 0.0211514 0)
(1.54994 0.0203793 0)
(1.55129 0.0195743 0)
(1.55258 0.0187406 0)
(1.55382 0.0178759 0)
(1.55501 0.0169794 0)
(1.55615 0.0160518 0)
(1.55724 0.0150953 0)
(1.55829 0.0141092 0)
(1.5593 0.0130919 0)
(1.56026 0.0120442 0)
(1.56119 0.0109755 0)
(1.56209 0.00988154 0)
(1.56297 0.00875172 0)
(1.56384 0.007578 0)
(1.56468 0.0063557 0)
(1.56552 0.00508018 0)
(1.56634 0.00374562 0)
(1.56717 0.00234363 0)
(1.56801 0.000867211 0)
(1.56887 -0.000693689 0)
(1.56975 -0.00234963 0)
(1.57066 -0.00411176 0)
(1.57162 -0.00599667 0)
(1.57264 -0.00801839 0)
(1.57373 -0.0101903 0)
(1.57491 -0.0125292 0)
(1.57619 -0.0150546 0)
(1.57759 -0.0177867 0)
(1.57914 -0.0207466 0)
(1.58085 -0.0239563 0)
(1.58276 -0.0274393 0)
(1.58491 -0.0312203 0)
(1.58732 -0.0353253 0)
(1.59005 -0.0397809 0)
(1.59314 -0.0446168 0)
(1.59666 -0.0498619 0)
(1.60067 -0.0555501 0)
(1.60524 -0.0617086 0)
(1.61045 -0.0683429 0)
(1.61641 -0.0754611 0)
(1.62321 -0.0830775 0)
(1.63099 -0.0911985 0)
(1.63988 -0.0998141 0)
(1.65001 -0.108897 0)
(1.66156 -0.118402 0)
(1.67467 -0.128265 0)
(1.6895 -0.138395 0)
(1.70619 -0.148666 0)
(1.72487 -0.158909 0)
(1.74561 -0.168909 0)
(1.76847 -0.178411 0)
(1.79347 -0.187126 0)
(1.82053 -0.194748 0)
(1.84951 -0.200957 0)
(1.88014 -0.205447 0)
(1.91209 -0.207952 0)
(1.47767 0.00132507 0)
(1.47801 0.00394639 0)
(1.47878 0.00641682 0)
(1.47988 0.00864536 0)
(1.48119 0.0106124 0)
(1.4826 0.0123487 0)
(1.48409 0.0138889 0)
(1.48563 0.0152553 0)
(1.48722 0.0164652 0)
(1.48882 0.0175382 0)
(1.49044 0.0184938 0)
(1.49205 0.0193491 0)
(1.49368 0.0201176 0)
(1.4953 0.0208096 0)
(1.49693 0.0214334 0)
(1.49856 0.0219958 0)
(1.50019 0.0225027 0)
(1.50183 0.022959 0)
(1.50347 0.0233686 0)
(1.50512 0.0237345 0)
(1.50678 0.0240589 0)
(1.50845 0.0243438 0)
(1.51012 0.0245902 0)
(1.5118 0.0247987 0)
(1.51349 0.0249692 0)
(1.51519 0.0251019 0)
(1.51689 0.0251964 0)
(1.51861 0.0252515 0)
(1.52033 0.0252649 0)
(1.52205 0.0252339 0)
(1.52378 0.0251568 0)
(1.5255 0.0250323 0)
(1.52721 0.0248597 0)
(1.52891 0.0246388 0)
(1.5306 0.0243689 0)
(1.53227 0.0240505 0)
(1.53392 0.023683 0)
(1.53554 0.0232671 0)
(1.53713 0.0228029 0)
(1.53869 0.0222925 0)
(1.54021 0.0217368 0)
(1.54169 0.021138 0)
(1.54312 0.0204962 0)
(1.54452 0.0198145 0)
(1.54586 0.019094 0)
(1.54715 0.0183386 0)
(1.54839 0.0175502 0)
(1.54959 0.0167301 0)
(1.55073 0.0158779 0)
(1.55183 0.0149956 0)
(1.55289 0.0140821 0)
(1.5539 0.0131391 0)
(1.55486 0.0121639 0)
(1.55579 0.0111593 0)
(1.55668 0.0101239 0)
(1.55754 0.00905396 0)
(1.55837 0.00794232 0)
(1.55918 0.00678298 0)
(1.55997 0.00557143 0)
(1.56075 0.00430237 0)
(1.56151 0.00296883 0)
(1.56227 0.00156236 0)
(1.56303 7.41131e-05 0)
(1.5638 -0.00150633 0)
(1.56459 -0.00319052 0)
(1.56539 -0.00499123 0)
(1.56623 -0.00692329 0)
(1.56711 -0.0090017 0)
(1.56805 -0.0112427 0)
(1.56905 -0.0136656 0)
(1.57014 -0.0162917 0)
(1.57133 -0.0191436 0)
(1.57264 -0.0222452 0)
(1.57409 -0.0256224 0)
(1.57571 -0.0293029 0)
(1.57754 -0.0333164 0)
(1.5796 -0.0376946 0)
(1.58196 -0.0424711 0)
(1.58464 -0.0476812 0)
(1.58772 -0.0533618 0)
(1.59126 -0.0595498 0)
(1.59533 -0.0662814 0)
(1.60003 -0.0735874 0)
(1.60545 -0.0814941 0)
(1.61171 -0.0900247 0)
(1.61895 -0.0991941 0)
(1.62732 -0.109004 0)
(1.63697 -0.11944 0)
(1.64809 -0.130465 0)
(1.66085 -0.142017 0)
(1.67546 -0.154002 0)
(1.69208 -0.166282 0)
(1.7109 -0.178667 0)
(1.73204 -0.190909 0)