/*--------------------------------*- C++ -*----------------------------------*\
| =========                 |                                                 |
| \\      /  F ield         | OpenFOAM: The Open Source CFD Toolbox           |
|  \\    /   O peration     | Version:  2206                                  |
|   \\  /    A nd           | Website:  www.openfoam.com                      |
|    \\/     M anipulation  |                                                 |
\*---------------------------------------------------------------------------*/
FoamFile
{
    version     2.0;
    format      ascii;
    arch        "LSB;label=32;scalar=64";
    class       volVectorField;
    location    "18.9";
    object      U_0;
}
// * * * * * * * * * * * * * * * * * * * * * * * * * * * * * * * * * * * * * //

dimensions      [0 1 -1 0 0 0 0];

internalField   nonuniform List<vector> 
3038
(
(1.59358 0.284997 0)
(1.61455 0.347251 0)
(1.63775 0.401249 0)
(1.66227 0.446696 0)
(1.68731 0.483692 0)
(1.71228 0.512549 0)
(1.73678 0.533582 0)
(1.76076 0.546887 0)
(1.78479 0.551895 0)
(1.80881 0.547422 0)
(1.83284 0.532588 0)
(1.85699 0.506656 0)
(1.8812 0.469084 0)
(1.90538 0.419632 0)
(1.9293 0.358484 0)
(1.95262 0.286385 0)
(1.97487 0.204807 0)
(1.99549 0.116166 0)
(2.01351 0.0242148 0)
(2.02788 -0.066256 0)
(2.03804 -0.151994 0)
(2.0436 -0.230193 0)
(2.04432 -0.298589 0)
(2.04015 -0.355667 0)
(2.03124 -0.400643 0)
(2.01791 -0.433331 0)
(1.99983 -0.453929 0)
(1.97642 -0.462495 0)
(1.94864 -0.460428 0)
(1.9171 -0.450475 0)
(1.88297 -0.435027 0)
(1.84749 -0.415902 0)
(1.81186 -0.394041 0)
(1.77715 -0.369457 0)
(1.74422 -0.341481 0)
(1.7137 -0.309209 0)
(1.68606 -0.271886 0)
(1.66172 -0.229094 0)
(1.64108 -0.180806 0)
(1.62453 -0.127419 0)
(1.61241 -0.0697754 0)
(1.60497 -0.00916534 0)
(1.60231 0.0525916 0)
(1.60428 0.113462 0)
(1.61056 0.171819 0)
(1.62069 0.226125 0)
(1.63407 0.275058 0)
(1.65005 0.317607 0)
(1.66795 0.3531 0)
(1.68713 0.381186 0)
(1.70701 0.401772 0)
(1.7273 0.414835 0)
(1.74815 0.420038 0)
(1.76923 0.416794 0)
(1.79023 0.404987 0)
(1.81104 0.384707 0)
(1.83144 0.356182 0)
(1.85132 0.319729 0)
(1.87059 0.27574 0)
(1.88912 0.224723 0)
(1.90671 0.167387 0)
(1.92313 0.104814 0)
(1.93794 0.0387362 0)
(1.95034 -0.0278998 0)
(1.9597 -0.0924607 0)
(1.96562 -0.152794 0)
(1.9678 -0.20702 0)
(1.96603 -0.253699 0)
(1.96033 -0.291903 0)
(1.9509 -0.32119 0)
(1.93784 -0.341535 0)
(1.92072 -0.352947 0)
(1.9 -0.355563 0)
(1.87635 -0.350822 0)
(1.85059 -0.340243 0)
(1.82379 -0.325115 0)
(1.79696 -0.306362 0)
(1.77096 -0.284425 0)
(1.74648 -0.259344 0)
(1.72401 -0.230935 0)
(1.70391 -0.198986 0)
(1.68647 -0.163389 0)
(1.67195 -0.124225 0)
(1.66058 -0.081826 0)
(1.65259 -0.0368203 0)
(1.6481 0.00981278 0)
(1.64716 0.056602 0)
(1.64962 0.102227 0)
(1.65523 0.145498 0)
(1.66363 0.185305 0)
(1.6744 0.2207 0)
(1.68704 0.250962 0)
(1.70105 0.275627 0)
(1.71596 0.294468 0)
(1.73144 0.307387 0)
(1.74747 0.314191 0)
(1.76404 0.314406 0)
(1.7807 0.307791 0)
(1.79735 0.2944 0)
(1.8137 0.274455 0)
(1.82958 0.248315 0)
(1.84485 0.216415 0)
(1.85942 0.179246 0)
(1.8732 0.137393 0)
(1.88606 0.0916301 0)
(1.89775 0.0431395 0)
(1.90772 -0.00607896 0)
(1.91544 -0.054073 0)
(1.92054 -0.099334 0)
(1.92272 -0.140572 0)
(1.92189 -0.176755 0)
(1.91808 -0.207148 0)
(1.91141 -0.231404 0)
(1.90207 -0.249388 0)
(1.88994 -0.261061 0)
(1.87495 -0.266341 0)
(1.85775 -0.265758 0)
(1.83889 -0.260258 0)
(1.81916 -0.250619 0)
(1.79935 -0.237471 0)
(1.78013 -0.221221 0)
(1.57716 0.265606 0)
(1.59835 0.324867 0)
(1.6223 0.376798 0)
(1.64815 0.42101 0)
(1.67518 0.457451 0)
(1.70283 0.486204 0)
(1.73074 0.507324 0)
(1.75891 0.520604 0)
(1.78767 0.525346 0)
(1.81685 0.520587 0)
(1.84644 0.505535 0)
(1.87633 0.479473 0)
(1.9063 0.441932 0)
(1.93604 0.392779 0)
(1.96515 0.332313 0)
(1.99309 0.261399 0)
(2.01927 0.181608 0)
(2.04288 0.0955306 0)
(2.06269 0.00741031 0)
(2.07766 -0.0785893 0)
(2.08731 -0.159382 0)
(2.0913 -0.232361 0)
(2.08953 -0.295478 0)
(2.0821 -0.347365 0)
(2.06934 -0.38732 0)
(2.05134 -0.41508 0)
(2.02735 -0.430456 0)
(1.998 -0.433821 0)
(1.96405 -0.427667 0)
(1.92663 -0.414753 0)
(1.88712 -0.397574 0)
(1.84688 -0.377972 0)
(1.80722 -0.356814 0)
(1.76908 -0.333869 0)
(1.73319 -0.308214 0)
(1.70019 -0.278814 0)
(1.67049 -0.244789 0)
(1.64442 -0.205661 0)
(1.62235 -0.161404 0)
(1.60461 -0.1124 0)
(1.59152 -0.0594329 0)
(1.58332 -0.00368365 0)
(1.58011 0.0532285 0)
(1.58176 0.10948 0)
(1.58797 0.163594 0)
(1.59832 0.214168 0)
(1.61226 0.259979 0)
(1.62915 0.300064 0)
(1.64837 0.333739 0)
(1.6693 0.360578 0)
(1.69143 0.380329 0)
(1.71449 0.392749 0)
(1.73847 0.397407 0)
(1.76291 0.393889 0)
(1.78756 0.382109 0)
(1.81216 0.362091 0)
(1.83642 0.334014 0)
(1.86012 0.298178 0)
(1.88305 0.254985 0)
(1.90497 0.20498 0)
(1.9256 0.148924 0)
(1.94461 0.088011 0)
(1.9613 0.0243128 0)
(1.97474 -0.0391526 0)
(1.9843 -0.100074 0)
(1.98959 -0.15641 0)
(1.99034 -0.206425 0)
(1.98645 -0.24884 0)
(1.97808 -0.282859 0)
(1.96541 -0.308136 0)
(1.94818 -0.324521 0)
(1.92646 -0.331816 0)
(1.90108 -0.331055 0)
(1.87285 -0.323921 0)
(1.84293 -0.311967 0)
(1.81248 -0.296498 0)
(1.78252 -0.27835 0)
(1.75389 -0.257802 0)
(1.72723 -0.234692 0)
(1.70293 -0.208656 0)
(1.68129 -0.179368 0)
(1.66255 -0.146685 0)
(1.64695 -0.110675 0)
(1.63474 -0.0716544 0)
(1.62609 -0.0302052 0)
(1.62117 0.01277 0)
(1.61999 0.0559626 0)
(1.62243 0.0981829 0)
(1.62824 0.138344 0)
(1.63708 0.175429 0)
(1.64855 0.208556 0)
(1.66217 0.237037 0)
(1.67747 0.260388 0)
(1.69402 0.278284 0)
(1.71152 0.290486 0)
(1.72992 0.296667 0)
(1.74897 0.29644 0)
(1.7683 0.289683 0)
(1.78771 0.276428 0)
(1.80689 0.256853 0)
(1.82559 0.23127 0)
(1.84362 0.200077 0)
(1.86082 0.163748 0)
(1.87702 0.122887 0)
(1.89199 0.0783579 0)
(1.90529 0.0315695 0)
(1.91621 -0.0153377 0)
(1.92425 -0.0605987 0)
(1.92903 -0.102727 0)
(1.93024 -0.140666 0)
(1.92791 -0.173637 0)
(1.92222 -0.200938 0)
(1.9133 -0.222172 0)
(1.90104 -0.237195 0)
(1.88531 -0.245861 0)
(1.86678 -0.248467 0)
(1.84606 -0.246013 0)
(1.824 -0.239417 0)
(1.80147 -0.22947 0)
(1.77926 -0.216748 0)
(1.75805 -0.201544 0)
(1.56441 0.246258 0)
(1.58574 0.302081 0)
(1.61029 0.35141 0)
(1.63728 0.393787 0)
(1.66606 0.429 0)
(1.69613 0.456935 0)
(1.72718 0.477411 0)
(1.75924 0.49 0)
(1.79242 0.493979 0)
(1.82638 0.488569 0)
(1.86107 0.473047 0)
(1.89621 0.446766 0)
(1.9314 0.409357 0)
(1.96614 0.360794 0)
(1.99984 0.301483 0)
(2.03185 0.232366 0)
(2.06139 0.155167 0)
(2.08741 0.0727999 0)
(2.10844 -0.010363 0)
(2.12356 -0.0907779 0)
(2.13232 -0.165574 0)
(2.13447 -0.232385 0)
(2.13 -0.289404 0)
(2.11921 -0.335379 0)
(2.10242 -0.369591 0)
(2.07905 -0.391575 0)
(2.04919 -0.400874 0)
(2.01377 -0.399106 0)
(1.97378 -0.38905 0)
(1.93076 -0.373581 0)
(1.88629 -0.3553 0)
(1.84201 -0.336023 0)
(1.79908 -0.31626 0)
(1.75827 -0.295488 0)
(1.72022 -0.272647 0)
(1.68541 -0.246501 0)
(1.6543 -0.216111 0)
(1.62717 -0.180953 0)
(1.60427 -0.140974 0)
(1.58588 -0.0965576 0)
(1.5723 -0.0484427 0)
(1.56373 0.00228161 0)
(1.56026 0.054178 0)
(1.5618 0.105617 0)
(1.56807 0.155263 0)
(1.57867 0.201839 0)
(1.59311 0.244219 0)
(1.61082 0.281483 0)
(1.63121 0.312934 0)
(1.65372 0.338071 0)
(1.67789 0.356508 0)
(1.70349 0.367847 0)
(1.73031 0.371649 0)
(1.75782 0.367631 0)
(1.78576 0.355694 0)
(1.81376 0.335831 0)
(1.84148 0.308199 0)
(1.86858 0.273085 0)
(1.89475 0.230898 0)
(1.91966 0.182195 0)
(1.94298 0.1278 0)
(1.96419 0.0691184 0)
(1.98229 0.00865936 0)
(1.99631 -0.050845 0)
(2.00562 -0.107288 0)
(2.00981 -0.158814 0)
(2.00873 -0.2039 0)
(2.00243 -0.241407 0)
(1.99112 -0.270659 0)
(1.97468 -0.291292 0)
(1.95286 -0.302881 0)
(1.92651 -0.305861 0)
(1.89644 -0.301903 0)
(1.86392 -0.292716 0)
(1.8303 -0.279905 0)
(1.79683 -0.26472 0)
(1.76457 -0.247824 0)
(1.73412 -0.229178 0)
(1.70595 -0.208391 0)
(1.68039 -0.184976 0)
(1.65776 -0.158588 0)
(1.63825 -0.129041 0)
(1.62207 -0.0963887 0)
(1.60942 -0.0609295 0)
(1.60049 -0.0232128 0)
(1.59541 0.0159385 0)
(1.59421 0.055368 0)
(1.59676 0.0940044 0)
(1.60284 0.130859 0)
(1.61213 0.165003 0)
(1.62424 0.195618 0)
(1.63876 0.222038 0)
(1.65524 0.24375 0)
(1.6733 0.260356 0)
(1.69268 0.271498 0)
(1.71322 0.276806 0)
(1.73453 0.275995 0)
(1.75629 0.26899 0)
(1.7782 0.255796 0)
(1.79992 0.236563 0)
(1.82117 0.211568 0)
(1.84169 0.181174 0)
(1.86126 0.145851 0)
(1.87962 0.106245 0)
(1.89636 0.0633633 0)
(1.91075 0.0189455 0)
(1.92204 -0.0249927 0)
(1.92984 -0.0668522 0)
(1.93367 -0.10527 0)
(1.93385 -0.139464 0)
(1.93006 -0.168801 0)
(1.9222 -0.192456 0)
(1.91051 -0.210124 0)
(1.89471 -0.221569 0)
(1.8754 -0.22689 0)
(1.85331 -0.227033 0)
(1.82936 -0.222996 0)
(1.80455 -0.215699 0)
(1.77977 -0.205896 0)
(1.75583 -0.194065 0)
(1.73328 -0.180305 0)
(1.55452 0.226929 0)
(1.57601 0.278952 0)
(1.6011 0.32522 0)
(1.6291 0.36521 0)
(1.65946 0.398568 0)
(1.69174 0.425002 0)
(1.72571 0.444138 0)
(1.76137 0.455424 0)
(1.79848 0.4582 0)
(1.83679 0.451832 0)
(1.87607 0.435647 0)
(1.91585 0.409116 0)
(1.9556 0.371986 0)
(1.99464 0.32434 0)
(2.03224 0.266655 0)
(2.06763 0.199957 0)
(2.0999 0.126141 0)
(2.12763 0.0485806 0)
(2.14932 -0.0285952 0)
(2.16413 -0.102402 0)
(2.17161 -0.17025 0)
(2.1716 -0.230049 0)
(2.16428 -0.280199 0)
(2.15 -0.319521 0)
(2.12859 -0.347156 0)
(2.09954 -0.362248 0)
(2.06382 -0.36518 0)
(2.02229 -0.358366 0)
(1.97653 -0.344719 0)
(1.92836 -0.327334 0)
(1.87974 -0.308874 0)
(1.83224 -0.290766 0)
(1.78678 -0.273067 0)
(1.74409 -0.255018 0)
(1.7047 -0.235426 0)
(1.66897 -0.212976 0)
(1.6372 -0.186548 0)
(1.60969 -0.155606 0)
(1.58659 -0.1201 0)
(1.56812 -0.0804046 0)
(1.55451 -0.0372432 0)
(1.54597 0.008377 0)
(1.54257 0.0551762 0)
(1.54422 0.1017 0)
(1.55067 0.146733 0)
(1.5616 0.189119 0)
(1.57656 0.227819 0)
(1.59503 0.261953 0)
(1.6165 0.290813 0)
(1.64046 0.313831 0)
(1.66653 0.330512 0)
(1.69445 0.340388 0)
(1.72376 0.343076 0)
(1.75402 0.33837 0)
(1.78486 0.326131 0)
(1.81586 0.30635 0)
(1.84658 0.279178 0)
(1.87662 0.244894 0)
(1.90558 0.2039 0)
(1.93307 0.156772 0)
(1.95865 0.104452 0)
(1.98151 0.0486889 0)
(2.00041 -0.00771211 0)
(2.01446 -0.0624413 0)
(2.02295 -0.113569 0)
(2.0255 -0.159541 0)
(2.02218 -0.199037 0)
(2.01317 -0.231066 0)
(1.99842 -0.255002 0)
(1.97749 -0.270172 0)
(1.95102 -0.27645 0)
(1.91986 -0.275299 0)
(1.88535 -0.26848 0)
(1.84905 -0.257809 0)
(1.81247 -0.244894 0)
(1.77694 -0.230763 0)
(1.74314 -0.215617 0)
(1.71158 -0.199197 0)
(1.68263 -0.181013 0)
(1.65654 -0.160504 0)
(1.63354 -0.137216 0)
(1.61383 -0.110975 0)
(1.59756 -0.0818221 0)
(1.58491 -0.0500423 0)
(1.57604 -0.0161612 0)
(1.5711 0.019069 0)
(1.57009 0.0546378 0)
(1.57291 0.0895776 0)
(1.57934 0.12299 0)
(1.58911 0.154025 0)
(1.60187 0.181922 0)
(1.61724 0.206031 0)
(1.63484 0.225812 0)
(1.65432 0.240805 0)
(1.67544 0.250595 0)
(1.69789 0.254837 0)
(1.72123 0.253328 0)
(1.74514 0.245979 0)
(1.76926 0.232783 0)
(1.79324 0.213871 0)
(1.81674 0.189486 0)
(1.83948 0.159974 0)
(1.86115 0.125823 0)
(1.88135 0.0877907 0)
(1.89938 0.0471793 0)
(1.91427 0.00593191 0)
(1.92544 -0.03437 0)
(1.93252 -0.0723216 0)
(1.93478 -0.106848 0)
(1.93407 -0.136937 0)
(1.92794 -0.161957 0)
(1.91736 -0.181331 0)
(1.90213 -0.194792 0)
(1.88264 -0.2022 0)
(1.8597 -0.204397 0)
(1.83435 -0.202416 0)
(1.80769 -0.197262 0)
(1.78079 -0.189836 0)
(1.7546 -0.180765 0)
(1.72967 -0.170245 0)
(1.70641 -0.158186 0)
(1.54674 0.207558 0)
(1.56844 0.255486 0)
(1.59405 0.298297 0)
(1.62301 0.335397 0)
(1.65482 0.366316 0)
(1.68916 0.390608 0)
(1.72585 0.40777 0)
(1.7647 0.417247 0)
(1.80532 0.418481 0)
(1.84746 0.4109 0)
(1.89069 0.39393 0)
(1.93444 0.367183 0)
(1.97799 0.330529 0)
(2.02055 0.284127 0)
(2.0613 0.228504 0)
(2.09937 0.164784 0)
(2.13362 0.0951608 0)
(2.16229 0.0234958 0)
(2.18405 -0.0467773 0)
(2.19804 -0.113002 0)
(2.20375 -0.173041 0)
(2.20122 -0.225097 0)
(2.19087 -0.2676 0)
(2.17265 -0.299463 0)
(2.14587 -0.319508 0)
(2.1112 -0.326961 0)
(2.06936 -0.323536 0)
(2.02191 -0.311872 0)
(1.97084 -0.295214 0)
(1.91835 -0.276854 0)
(1.86661 -0.259209 0)
(1.8168 -0.243076 0)
(1.76981 -0.228145 0)
(1.72623 -0.21341 0)
(1.68642 -0.197514 0)
(1.65064 -0.179059 0)
(1.61905 -0.156877 0)
(1.59184 -0.130312 0)
(1.56919 -0.0993767 0)
(1.55117 -0.0644545 0)
(1.53801 -0.0262613 0)
(1.52988 0.014253 0)
(1.52685 0.0559442 0)
(1.52885 0.0975283 0)
(1.53567 0.137882 0)
(1.54702 0.175954 0)
(1.56254 0.210784 0)
(1.58177 0.241529 0)
(1.60428 0.267466 0)
(1.62963 0.287977 0)
(1.65748 0.30252 0)
(1.68742 0.310644 0)
(1.71891 0.312032 0)
(1.75156 0.306473 0)
(1.78489 0.293822 0)
(1.81842 0.274087 0)
(1.85167 0.247412 0)
(1.88417 0.214063 0)
(1.91548 0.174436 0)
(1.94512 0.12915 0)
(1.97241 0.0793521 0)
(1.99606 0.0273684 0)
(2.01491 -0.0242733 0)
(2.02823 -0.0733941 0)
(2.03529 -0.118234 0)
(2.03574 -0.15791 0)
(2.02981 -0.191408 0)
(2.01767 -0.21748 0)
(1.99855 -0.235228 0)
(1.9728 -0.244069 0)
(1.9413 -0.245158 0)
(1.90546 -0.240208 0)
(1.86704 -0.231158 0)
(1.82781 -0.219903 0)
(1.78942 -0.207823 0)
(1.75271 -0.195391 0)
(1.71828 -0.182488 0)
(1.68649 -0.168673 0)
(1.65758 -0.153352 0)
(1.6317 -0.135921 0)
(1.609 -0.115893 0)
(1.58963 -0.0930365 0)
(1.57376 -0.0674418 0)
(1.56152 -0.0393887 0)
(1.55306 -0.00937683 0)
(1.54853 0.0219025 0)
(1.54793 0.0535803 0)
(1.55117 0.0847753 0)
(1.55807 0.11467 0)
(1.56839 0.142478 0)
(1.58183 0.167484 0)
(1.59806 0.189055 0)
(1.61676 0.206635 0)
(1.63761 0.21974 0)
(1.6603 0.227963 0)
(1.68439 0.231007 0)
(1.70952 0.228701 0)
(1.7353 0.220927 0)
(1.76135 0.207678 0)
(1.78729 0.189065 0)
(1.81277 0.165307 0)
(1.83745 0.136755 0)
(1.86092 0.103988 0)
(1.88253 0.0679864 0)
(1.90122 0.0304378 0)
(1.91614 -0.00706788 0)
(1.92681 -0.0431386 0)
(1.93254 -0.0766737 0)
(1.93361 -0.106678 0)
(1.92988 -0.132113 0)
(1.92074 -0.15224 0)
(1.90643 -0.166781 0)
(1.88728 -0.175495 0)
(1.86402 -0.179097 0)
(1.83777 -0.178597 0)
(1.80979 -0.175057 0)
(1.78126 -0.169486 0)
(1.75329 -0.16263 0)
(1.7265 -0.154773 0)
(1.70131 -0.145881 0)
(1.67802 -0.135752 0)
(1.54031 0.187993 0)
(1.56231 0.231613 0)
(1.58848 0.270636 0)
(1.61835 0.304401 0)
(1.65157 0.332343 0)
(1.68787 0.353926 0)
(1.72701 0.36862 0)
(1.76857 0.375921 0)
(1.81225 0.375356 0)
(1.85763 0.366399 0)
(1.90414 0.34862 0)
(1.95108 0.321778 0)
(1.99763 0.285844 0)
(2.04292 0.241026 0)
(2.08609 0.187883 0)
(2.12614 0.127693 0)
(2.16143 0.0632443 0)
(2.19021 -0.00177559 0)
(2.21134 -0.0643669 0)
(2.22387 -0.122121 0)
(2.22724 -0.173464 0)
(2.22183 -0.217014 0)
(2.20798 -0.251284 0)
(2.1849 -0.274813 0)
(2.1526 -0.285992 0)
(2.11174 -0.285646 0)
(2.06373 -0.275933 0)
(2.01071 -0.25994 0)
(1.95514 -0.241276 0)
(1.8997 -0.223185 0)
(1.84601 -0.207344 0)
(1.79515 -0.194021 0)
(1.74786 -0.182543 0)
(1.70454 -0.17165 0)
(1.66537 -0.159833 0)
(1.63045 -0.145621 0)
(1.59985 -0.127818 0)
(1.57366 -0.105741 0)
(1.55201 -0.0793831 0)
(1.53498 -0.0492049 0)
(1.52271 -0.0159193 0)
(1.51535 0.0195587 0)
(1.513 0.0562146 0)
(1.51559 0.092903 0)
(1.52296 0.128568 0)
(1.53487 0.162251 0)
(1.55103 0.193058 0)
(1.57108 0.220179 0)
(1.59464 0.242901 0)
(1.62136 0.260602 0)
(1.65078 0.272746 0)
(1.68241 0.278935 0)
(1.71578 0.278884 0)
(1.75042 0.272358 0)
(1.7858 0.259238 0)
(1.8214 0.239544 0)
(1.8567 0.213408 0)
(1.89122 0.181073 0)
(1.92447 0.14295 0)
(1.95579 0.0998508 0)
(1.98389 0.0535014 0)
(2.00727 0.00626821 0)
(2.025 -0.0397938 0)
(2.03649 -0.0827144 0)
(2.0407 -0.121158 0)
(2.03988 -0.154118 0)
(2.03084 -0.180906 0)
(2.01418 -0.199955 0)
(1.9899 -0.21032 0)
(1.95869 -0.21283 0)
(1.92212 -0.209098 0)
(1.88215 -0.201093 0)
(1.84083 -0.190907 0)
(1.8001 -0.180227 0)
(1.76105 -0.169794 0)
(1.72433 -0.159646 0)
(1.69037 -0.149415 0)
(1.65934 -0.138503 0)
(1.63132 -0.126218 0)
(1.60637 -0.111931 0)
(1.58459 -0.0951787 0)
(1.56611 -0.0757366 0)
(1.55107 -0.0536765 0)
(1.53962 -0.029323 0)
(1.5319 -0.00314934 0)
(1.52803 0.0242138 0)
(1.52805 0.0520223 0)
(1.53188 0.079459 0)
(1.53938 0.105777 0)
(1.55036 0.130256 0)
(1.56456 0.152222 0)
(1.58171 0.171067 0)
(1.60152 0.186246 0)
(1.62364 0.197286 0)
(1.64765 0.203814 0)
(1.67318 0.205582 0)
(1.69983 0.202392 0)
(1.7272 0.194127 0)
(1.75489 0.180778 0)
(1.78252 0.162435 0)
(1.80972 0.139313 0)
(1.83606 0.111821 0)
(1.8609 0.0807266 0)
(1.88312 0.0474865 0)
(1.90168 0.0136158 0)
(1.9158 -0.0195458 0)
(1.92492 -0.050802 0)
(1.92876 -0.0792085 0)
(1.9271 -0.103872 0)
(1.9198 -0.123946 0)
(1.90664 -0.138767 0)
(1.88811 -0.147979 0)
(1.86495 -0.152296 0)
(1.8383 -0.152676 0)
(1.80954 -0.150201 0)
(1.77997 -0.145958 0)
(1.75082 -0.140788 0)
(1.72278 -0.135061 0)
(1.69631 -0.128791 0)
(1.67168 -0.121781 0)
(1.64907 -0.113726 0)
(1.53463 0.168213 0)
(1.557 0.20731 0)
(1.58377 0.242228 0)
(1.61458 0.272252 0)
(1.64919 0.296764 0)
(1.68725 0.315188 0)
(1.72841 0.327043 0)
(1.77232 0.331912 0)
(1.81853 0.329342 0)
(1.86651 0.318924 0)
(1.91556 0.300382 0)
(1.96491 0.273602 0)
(2.01369 0.238606 0)
(2.06107 0.195607 0)
(2.10609 0.145286 0)
(2.14732 0.0893929 0)
(2.18258 0.0311451 0)
(2.21036 -0.026394 0)
(2.22961 -0.0803786 0)
(2.23951 -0.128726 0)
(2.24022 -0.170755 0)
(2.2319 -0.205534 0)
(2.21345 -0.230845 0)
(2.18463 -0.244409 0)
(2.14571 -0.246262 0)
(2.09809 -0.238098 0)
(2.04407 -0.222616 0)
(1.98633 -0.203425 0)
(1.92801 -0.184304 0)
(1.87124 -0.167753 0)
(1.8173 -0.154714 0)
(1.76705 -0.14499 0)
(1.72096 -0.137566 0)
(1.67922 -0.130931 0)
(1.64181 -0.123421 0)
(1.6087 -0.113534 0)
(1.57985 -0.100116 0)
(1.55531 -0.0824997 0)
(1.53521 -0.0606554 0)
(1.51963 -0.0351164 0)
(1.50865 -0.00660859 0)
(1.50241 0.0239799 0)
(1.50102 0.0557071 0)
(1.50443 0.0875839 0)
(1.51255 0.118606 0)
(1.5252 0.147871 0)
(1.54214 0.174554 0)
(1.56311 0.197893 0)
(1.58775 0.217191 0)
(1.61565 0.231854 0)
(1.64637 0.241441 0)
(1.67943 0.245585 0)
(1.71433 0.243979 0)
(1.75053 0.236414 0)
(1.78751 0.222794 0)
(1.82471 0.203137 0)
(1.86165 0.177549 0)
(1.89782 0.146264 0)
(1.93261 0.109842 0)
(1.96484 0.0696537 0)
(1.99281 0.0278609 0)
(2.01529 -0.0137289 0)
(2.03135 -0.053395 0)
(2.03996 -0.0897348 0)
(2.04138 -0.121397 0)
(2.03717 -0.147241 0)
(2.02255 -0.166158 0)
(1.99988 -0.176705 0)
(1.96939 -0.179609 0)
(1.93255 -0.1763 0)
(1.8916 -0.168704 0)
(1.84882 -0.159026 0)
(1.80648 -0.149182 0)
(1.76583 -0.140139 0)
(1.72764 -0.13209 0)
(1.69234 -0.124749 0)
(1.66007 -0.117514 0)
(1.63082 -0.109638 0)
(1.60454 -0.100398 0)
(1.58123 -0.0892001 0)
(1.56096 -0.0756396 0)
(1.54384 -0.0595301 0)
(1.53005 -0.0409346 0)
(1.51973 -0.0201879 0)
(1.51303 0.00223501 0)
(1.51006 0.0257591 0)
(1.51089 0.049728 0)
(1.51549 0.0734409 0)
(1.52376 0.0961911 0)
(1.53554 0.117297 0)
(1.55062 0.13613 0)
(1.56874 0.152105 0)
(1.58956 0.164729 0)
(1.61274 0.173601 0)
(1.6379 0.178384 0)
(1.66464 0.1788 0)
(1.69256 0.174656 0)
(1.72126 0.165842 0)
(1.75035 0.152337 0)
(1.77945 0.134224 0)
(1.8081 0.111761 0)
(1.83561 0.0855578 0)
(1.86076 0.0569135 0)
(1.88238 0.0272198 0)
(1.89954 -0.00225209 0)
(1.91153 -0.0303365 0)
(1.91795 -0.0560964 0)
(1.91858 -0.078737 0)
(1.91319 -0.0975859 0)
(1.9014 -0.111796 0)
(1.88372 -0.120713 0)
(1.86094 -0.125025 0)
(1.83433 -0.125673 0)
(1.80534 -0.123735 0)
(1.77538 -0.120335 0)
(1.74577 -0.116379 0)
(1.71725 -0.112298 0)
(1.69026 -0.108134 0)
(1.66506 -0.103692 0)
(1.64178 -0.0986617 0)
(1.6205 -0.0926865 0)
(1.52907 0.147973 0)
(1.55195 0.182414 0)
(1.57945 0.212995 0)
(1.61125 0.238964 0)
(1.64703 0.25967 0)
(1.68652 0.274639 0)
(1.72936 0.283458 0)
(1.77513 0.285736 0)
(1.82328 0.281121 0)
(1.87316 0.269338 0)
(1.92401 0.250211 0)
(1.97505 0.223652 0)
(2.02553 0.189687 0)
(2.07462 0.148647 0)
(2.12106 0.101613 0)
(2.16257 0.0511956 0)
(2.19705 0.000247473 0)
(2.22286 -0.0486917 0)
(2.23903 -0.0935203 0)
(2.2442 -0.132918 0)
(2.24328 -0.165349 0)
(2.22941 -0.190431 0)
(2.20383 -0.204423 0)
(2.16702 -0.20698 0)
(2.12 -0.199455 0)
(2.06544 -0.184136 0)
(2.0064 -0.16437 0)
(1.94629 -0.144069 0)
(1.88775 -0.12629 0)
(1.8321 -0.112563 0)
(1.78026 -0.103252 0)
(1.73273 -0.0977683 0)
(1.68965 -0.0947734 0)
(1.65095 -0.092533 0)
(1.61646 -0.0893124 0)
(1.58605 -0.0836406 0)
(1.55965 -0.0744467 0)
(1.53733 -0.0611359 0)
(1.51923 -0.0436699 0)
(1.50546 -0.0225945 0)
(1.49611 0.00131255 0)
(1.4913 0.0271984 0)
(1.49112 0.0541879 0)
(1.49559 0.0813625 0)
(1.50465 0.107802 0)
(1.51818 0.132655 0)
(1.53601 0.155149 0)
(1.55787 0.174584 0)
(1.58345 0.19035 0)
(1.61236 0.201932 0)
(1.64417 0.208909 0)
(1.67836 0.210945 0)
(1.71441 0.207766 0)
(1.75176 0.199171 0)
(1.78991 0.185047 0)
(1.82835 0.165385 0)
(1.86662 0.140297 0)
(1.90408 0.110125 0)
(1.9396 0.0759256 0)
(1.97137 0.0396626 0)
(1.99795 0.00305776 0)
(2.01811 -0.032125 0)
(2.03115 -0.0644826 0)
(2.03573 -0.0933222 0)
(2.0334 -0.117331 0)
(2.0211 -0.135049 0)
(1.99963 -0.144495 0)
(1.96976 -0.146661 0)
(1.93299 -0.142955 0)
(1.89165 -0.135158 0)
(1.84825 -0.12551 0)
(1.80531 -0.116065 0)
(1.76418 -0.107931 0)
(1.72566 -0.101433 0)
(1.69017 -0.0963513 0)
(1.65779 -0.0921021 0)
(1.62842 -0.0879155 0)
(1.60193 -0.0829953 0)
(1.57818 -0.0766454 0)
(1.55715 -0.068349 0)
(1.53889 -0.0577904 0)
(1.52358 -0.0448401 0)
(1.51139 -0.0295684 0)
(1.50251 -0.0122845 0)
(1.4971 0.00653135 0)
(1.49527 0.0263567 0)
(1.4971 0.0465951 0)
(1.5026 0.0666023 0)
(1.51173 0.0857413 0)
(1.52437 0.103404 0)
(1.54033 0.119027 0)
(1.55935 0.132108 0)
(1.5811 0.142201 0)
(1.60523 0.14891 0)
(1.63135 0.151902 0)
(1.6591 0.150913 0)
(1.68809 0.145754 0)
(1.71796 0.136312 0)
(1.74831 0.122567 0)
(1.77863 0.104657 0)
(1.80813 0.083118 0)
(1.83543 0.0591409 0)
(1.85932 0.0339479 0)
(1.87872 0.00868669 0)
(1.89279 -0.0155628 0)
(1.90109 -0.0379311 0)
(1.90344 -0.0577082 0)
(1.89954 -0.0743354 0)
(1.88898 -0.0868415 0)
(1.87217 -0.094616 0)
(1.84997 -0.0982446 0)
(1.8238 -0.0985996 0)
(1.79517 -0.0967447 0)
(1.7656 -0.0938021 0)
(1.73642 -0.0906821 0)
(1.70835 -0.0878282 0)
(1.68179 -0.0852916 0)
(1.65696 -0.0828956 0)
(1.63394 -0.0803347 0)
(1.61275 -0.0772388 0)
(1.5934 -0.0732374 0)
(1.52416 0.127388 0)
(1.54696 0.156975 0)
(1.57484 0.183023 0)
(1.60731 0.204729 0)
(1.64401 0.221485 0)
(1.68463 0.23282 0)
(1.72877 0.238383 0)
(1.77591 0.237914 0)
(1.8254 0.231198 0)
(1.87651 0.218036 0)
(1.92851 0.198287 0)
(1.98084 0.171872 0)
(2.03293 0.138879 0)
(2.08372 0.100005 0)
(2.13074 0.0573143 0)
(2.17143 0.0133623 0)
(2.20352 -0.0291756 0)
(2.22592 -0.0682172 0)
(2.23693 -0.103045 0)
(2.23824 -0.132502 0)
(2.22922 -0.155111 0)
(2.20516 -0.167222 0)
(2.16876 -0.16854 0)
(2.12165 -0.160483 0)
(2.06647 -0.144889 0)
(2.00675 -0.12471 0)
(1.94636 -0.10369 0)
(1.88796 -0.0848971 0)
(1.83288 -0.0701745 0)
(1.7819 -0.0603786 0)
(1.73533 -0.0554462 0)
(1.69314 -0.0544523 0)
(1.65514 -0.0558308 0)
(1.62106 -0.0577622 0)
(1.59066 -0.0585213 0)
(1.56378 -0.0567194 0)
(1.54041 -0.0514117 0)
(1.52066 -0.0421111 0)
(1.50479 -0.0287918 0)
(1.49303 -0.0119523 0)
(1.4855 0.00759391 0)
(1.48231 0.0290063 0)
(1.48355 0.0514662 0)
(1.48924 0.0740966 0)
(1.49935 0.09603 0)
(1.51383 0.116516 0)
(1.53254 0.134858 0)
(1.55523 0.150421 0)
(1.58163 0.162652 0)
(1.61137 0.171093 0)
(1.64403 0.175396 0)
(1.67906 0.175286 0)
(1.71589 0.170511 0)
(1.75402 0.16084 0)
(1.793 0.146124 0)
(1.83244 0.126344 0)
(1.87168 0.101753 0)
(1.90943 0.0732458 0)
(1.94377 0.0425164 0)
(1.97307 0.0112758 0)
(1.99582 -0.0188661 0)
(2.01078 -0.0467642 0)
(2.01802 -0.0711368 0)
(2.01688 -0.0915498 0)
(2.00585 -0.106593 0)
(1.985 -0.114114 0)
(1.95531 -0.114767 0)
(1.9187 -0.109988 0)
(1.87763 -0.101577 0)
(1.83478 -0.0917344 0)
(1.79271 -0.0824914 0)
(1.75268 -0.0749744 0)
(1.71546 -0.0695871 0)
(1.68134 -0.06619 0)
(1.65033 -0.0642584 0)
(1.62226 -0.0630346 0)
(1.59688 -0.0616822 0)
(1.57397 -0.0594214 0)
(1.55338 -0.0556336 0)
(1.53511 -0.0499174 0)
(1.51927 -0.0420714 0)
(1.50607 -0.0320339 0)
(1.49575 -0.0198744 0)
(1.48855 -0.00587097 0)
(1.48464 0.00950474 0)
(1.48414 0.0257843 0)
(1.48711 0.0424212 0)
(1.49363 0.0588232 0)
(1.50368 0.0744251 0)
(1.51719 0.0886882 0)
(1.53401 0.101123 0)
(1.55387 0.111299 0)
(1.57646 0.118827 0)
(1.60141 0.123331 0)
(1.62837 0.124481 0)
(1.657 0.122017 0)
(1.68698 0.115753 0)
(1.71789 0.105586 0)
(1.74914 0.0916181 0)
(1.77972 0.0743859 0)
(1.80814 0.0549514 0)
(1.83312 0.0343519 0)
(1.85352 0.013624 0)
(1.86845 -0.00628136 0)
(1.87752 -0.0245964 0)
(1.88063 -0.0408082 0)
(1.87734 -0.0544935 0)
(1.86732 -0.0644612 0)
(1.85103 -0.0703418 0)
(1.82947 -0.0727138 0)
(1.80412 -0.0723587 0)
(1.77656 -0.0702842 0)
(1.74834 -0.0675669 0)
(1.72071 -0.0650395 0)
(1.69425 -0.0630919 0)
(1.66929 -0.061776 0)
(1.64597 -0.0609429 0)
(1.62431 -0.0603076 0)
(1.60426 -0.0595042 0)
(1.5858 -0.0581494 0)
(1.56889 -0.0558983 0)
(1.52395 0.107727 0)
(1.54447 0.131532 0)
(1.57094 0.152476 0)
(1.60277 0.169589 0)
(1.63941 0.182165 0)
(1.68039 0.189726 0)
(1.72523 0.192035 0)
(1.77327 0.189013 0)
(1.82377 0.180545 0)
(1.87609 0.166393 0)
(1.92981 0.14617 0)
(1.98456 0.119494 0)
(2.03925 0.0868709 0)
(2.09064 0.0507779 0)
(2.13547 0.0136545 0)
(2.17139 -0.021838 0)
(2.1971 -0.0536478 0)
(2.21058 -0.0820488 0)
(2.21369 -0.105695 0)
(2.20266 -0.123811 0)
(2.17733 -0.132252 0)
(2.13914 -0.130738 0)
(2.09048 -0.120977 0)
(2.03458 -0.104906 0)
(1.97525 -0.0850303 0)
(1.91671 -0.0645216 0)
(1.86122 -0.0458703 0)
(1.80998 -0.0308293 0)
(1.76346 -0.0204968 0)
(1.7216 -0.0152334 0)
(1.68399 -0.0146412 0)
(1.65012 -0.0176849 0)
(1.6195 -0.0227507 0)
(1.59174 -0.0280639 0)
(1.56656 -0.0320065 0)
(1.54388 -0.0333285 0)
(1.52384 -0.0312614 0)
(1.50677 -0.0254957 0)
(1.49308 -0.0160299 0)
(1.48319 -0.00323601 0)
(1.47734 0.0120563 0)
(1.47571 0.0290735 0)
(1.47838 0.0472037 0)
(1.4853 0.0655574 0)
(1.49649 0.0831803 0)
(1.51193 0.0994295 0)
(1.53146 0.113715 0)
(1.55486 0.125464 0)
(1.58188 0.134185 0)
(1.61221 0.139504 0)
(1.64543 0.141191 0)
(1.68102 0.139074 0)
(1.71845 0.132864 0)
(1.75728 0.122155 0)
(1.79711 0.106678 0)
(1.83718 0.0866775 0)
(1.87571 0.0633276 0)
(1.91067 0.0380164 0)
(1.94035 0.0121984 0)
(1.9632 -0.0124675 0)
(1.9783 -0.034762 0)
(1.98535 -0.0541476 0)
(1.98363 -0.0703451 0)
(1.97193 -0.0813672 0)
(1.95046 -0.0858673 0)
(1.9204 -0.0844225 0)
(1.88403 -0.0782266 0)
(1.84409 -0.0691045 0)
(1.80348 -0.0592247 0)
(1.76431 -0.0503342 0)
(1.7276 -0.0434102 0)
(1.69386 -0.0388581 0)
(1.66322 -0.036648 0)
(1.63554 -0.0363628 0)
(1.61054 -0.037311 0)
(1.58788 -0.0386725 0)
(1.56727 -0.0396338 0)
(1.54848 -0.0395026 0)
(1.53144 -0.0377878 0)
(1.51622 -0.0342234 0)
(1.50302 -0.0287285 0)
(1.49211 -0.0213191 0)
(1.48381 -0.0120619 0)
(1.4784 -0.00118098 0)
(1.47611 0.0109098 0)
(1.47702 0.0238554 0)
(1.48121 0.0371105 0)
(1.48879 0.0500425 0)
(1.4998 0.0621707 0)
(1.5142 0.0730541 0)
(1.53186 0.0823044 0)
(1.55255 0.0896062 0)
(1.57594 0.0946383 0)
(1.60167 0.097012 0)
(1.62942 0.0963376 0)
(1.65889 0.0923236 0)
(1.6896 0.0848398 0)
(1.72081 0.0740777 0)
(1.75112 0.060735 0)
(1.77908 0.0456365 0)
(1.80339 0.0296606 0)
(1.8229 0.0137099 0)
(1.83689 -0.00142534 0)
(1.84511 -0.0152511 0)
(1.84752 -0.027542 0)
(1.84355 -0.0377552 0)
(1.83314 -0.0445867 0)
(1.81693 -0.0481229 0)
(1.7961 -0.0489257 0)
(1.77217 -0.0477181 0)
(1.74669 -0.0454124 0)
(1.72115 -0.042936 0)
(1.69643 -0.0409335 0)
(1.67297 -0.0397029 0)
(1.65099 -0.0392913 0)
(1.63051 -0.0395843 0)
(1.61148 -0.0403359 0)
(1.59378 -0.0412092 0)
(1.57733 -0.0418365 0)
(1.56206 -0.0418731 0)
(1.54799 -0.0410356 0)
(1.54243 0.093342 0)
(1.55732 0.11018 0)
(1.57917 0.124906 0)
(1.60759 0.136464 0)
(1.64205 0.144051 0)
(1.68201 0.147137 0)
(1.72688 0.145546 0)
(1.77586 0.139309 0)
(1.828 0.128155 0)
(1.88244 0.111396 0)
(1.93814 0.088786 0)
(1.99335 0.0613686 0)
(2.04483 0.032179 0)
(2.08928 0.00379327 0)
(2.12359 -0.0227274 0)
(2.14515 -0.0479048 0)
(2.1564 -0.068555 0)
(2.15477 -0.0852936 0)
(2.1385 -0.0947371 0)
(2.10829 -0.0974037 0)
(2.06573 -0.0922619 0)
(2.01411 -0.0804762 0)
(1.95753 -0.0640119 0)
(1.90049 -0.0454358 0)
(1.84636 -0.0270509 0)
(1.79698 -0.0104597 0)
(1.75328 0.00315211 0)
(1.71536 0.0129026 0)
(1.68267 0.018242 0)
(1.65429 0.0190491 0)
(1.62923 0.0159081 0)
(1.60662 0.00991302 0)
(1.58577 0.00248762 0)
(1.56605 -0.00485066 0)
(1.54718 -0.0107146 0)
(1.52923 -0.0140661 0)
(1.51263 -0.014353 0)
(1.49804 -0.0114308 0)
(1.48617 -0.00531091 0)
(1.4776 0.00377602 0)
(1.47306 0.0151777 0)
(1.47232 0.0281392 0)
(1.47524 0.0419969 0)
(1.48334 0.0559899 0)
(1.49545 0.069383 0)
(1.51171 0.081552 0)
(1.53193 0.0919253 0)
(1.55589 0.0999884 0)
(1.58338 0.105304 0)
(1.61424 0.10754 0)
(1.6482 0.106538 0)
(1.6847 0.102177 0)
(1.72292 0.094075 0)
(1.76201 0.0818577 0)
(1.80087 0.0659102 0)
(1.8377 0.0476286 0)
(1.87057 0.0282145 0)
(1.89736 0.00865827 0)
(1.91657 -0.0101168 0)
(1.92823 -0.0265383 0)
(1.93172 -0.0407757 0)
(1.92581 -0.0520609 0)
(1.91047 -0.0579809 0)
(1.88647 -0.0587438 0)
(1.85556 -0.0549287 0)
(1.82033 -0.0477121 0)
(1.78364 -0.0387389 0)
(1.74807 -0.0297431 0)
(1.71482 -0.021902 0)
(1.68451 -0.0159121 0)
(1.65727 -0.0121268 0)
(1.63291 -0.0106419 0)
(1.61111 -0.0112922 0)
(1.59145 -0.0135314 0)
(1.57352 -0.0166187 0)
(1.55695 -0.0197807 0)
(1.54148 -0.0223037 0)
(1.527 -0.023625 0)
(1.5136 -0.0234066 0)
(1.50147 -0.021523 0)
(1.49093 -0.017987 0)
(1.48231 -0.0128596 0)
(1.47601 -0.00618643 0)
(1.47241 0.00188042 0)
(1.47171 0.0109852 0)
(1.47375 0.0207414 0)
(1.47939 0.0306384 0)
(1.48813 0.0401975 0)
(1.50014 0.0490008 0)
(1.51546 0.0566442 0)
(1.53405 0.0628043 0)
(1.55571 0.0672564 0)
(1.57999 0.0697217 0)
(1.60638 0.0697782 0)
(1.63441 0.0670861 0)
(1.66352 0.0616147 0)
(1.69272 0.053705 0)
(1.72054 0.0440746 0)
(1.74561 0.0333459 0)
(1.76664 0.0221145 0)
(1.78276 0.0111058 0)
(1.79358 0.000843074 0)
(1.7991 -0.00847767 0)
(1.79907 -0.0168297 0)
(1.79311 -0.0230925 0)
(1.78167 -0.0266738 0)
(1.76559 -0.027934 0)
(1.74619 -0.0273823 0)
(1.7249 -0.0256405 0)
(1.70309 -0.023436 0)
(1.68184 -0.0214193 0)
(1.66163 -0.0200023 0)
(1.64271 -0.0193857 0)
(1.62514 -0.0196259 0)
(1.60885 -0.0206555 0)
(1.59372 -0.0222862 0)
(1.57958 -0.0242389 0)
(1.5663 -0.0261899 0)
(1.55378 -0.0278189 0)
(1.542 -0.0288477 0)
(1.53102 -0.0290625 0)
(1.58215 0.0845492 0)
(1.59364 0.0944978 0)
(1.61164 0.101899 0)
(1.63632 0.106361 0)
(1.66746 0.107309 0)
(1.70478 0.104259 0)
(1.74782 0.0973247 0)
(1.79563 0.0870489 0)
(1.84658 0.0735523 0)
(1.89809 0.0565589 0)
(1.94682 0.0364501 0)