/*--------------------------------*- C++ -*----------------------------------*\
| =========                 |                                                 |
| \\      /  F ield         | OpenFOAM: The Open Source CFD Toolbox           |
|  \\    /   O peration     | Version:  2206                                  |
|   \\  /    A nd           | Website:  www.openfoam.com                      |
|    \\/     M anipulation  |                                                 |
\*---------------------------------------------------------------------------*/
FoamFile
{
    version     2.0;
    format      ascii;
    arch        "LSB;label=32;scalar=64";
    class       surfaceScalarField;
    location    "19.1001";
    object      phi_0;
}
// * * * * * * * * * * * * * * * * * * * * * * * * * * * * * * * * * * * * * //

dimensions      [0 3 -1 0 0 0 0];

oriented        oriented;

internalField   nonuniform List<scalar> 
9487
(
1.01121e-05
3.16843e-06
-3.11652e-06
1.0048e-05
3.11447e-06
-3.05037e-06
9.97397e-06
3.0505e-06
-2.97645e-06
9.89308e-06
2.97578e-06
-2.89489e-06
9.80931e-06
2.88684e-06
-2.80306e-06
9.72715e-06
2.77835e-06
-2.69619e-06
9.65131e-06
2.64427e-06
-2.56843e-06
9.5863e-06
2.479e-06
-2.41398e-06
9.53603e-06
2.27849e-06
-2.22822e-06
9.50356e-06
2.04109e-06
-2.00862e-06
9.49074e-06
1.76827e-06
-1.75545e-06
9.4977e-06
1.46494e-06
-1.4719e-06
9.52389e-06
1.13671e-06
-1.1629e-06
9.56875e-06
7.89594e-07
-8.34456e-07
9.6308e-06
4.31824e-07
-4.93869e-07
9.70732e-06
7.29189e-08
-1.49446e-07
9.79572e-06
-2.78711e-07
1.90311e-07
9.89343e-06
-6.17261e-07
5.1956e-07
9.99769e-06
-9.37835e-07
8.33567e-07
1.01058e-05
-1.23675e-06
1.1286e-06
1.02154e-05
-1.51151e-06
1.40197e-06
1.03242e-05
-1.76075e-06
1.65194e-06
1.04306e-05
-1.98395e-06
1.87757e-06
1.05332e-05
-2.18117e-06
2.07851e-06
1.06313e-05
-2.35278e-06
2.25473e-06
1.07242e-05
-2.49936e-06
2.40647e-06
1.08117e-05
-2.62161e-06
2.53412e-06
1.08939e-05
-2.72032e-06
2.6381e-06
1.09712e-05
-2.79608e-06
2.71872e-06
1.10445e-05
-2.84917e-06
2.77589e-06
1.11148e-05
-2.87881e-06
2.80855e-06
1.11827e-05
-2.88035e-06
2.81242e-06
1.12482e-05
-2.84698e-06
2.78152e-06
1.13108e-05
-2.77464e-06
2.71198e-06
1.13704e-05
-2.6606e-06
2.60104e-06
1.14265e-05
-2.50289e-06
2.4468e-06
1.14786e-05
-2.30055e-06
2.24844e-06
1.1526e-05
-2.05386e-06
2.00645e-06
1.15678e-05
-1.76469e-06
1.72287e-06
1.1603e-05
-1.4366e-06
1.40144e-06
1.16304e-05
-1.075e-06
1.04757e-06
1.16491e-05
-6.87194e-07
6.68521e-07
1.16581e-05
-2.82934e-07
2.73941e-07
1.16564e-05
1.23754e-07
-1.22039e-07
1.16434e-05
5.20743e-07
-5.07816e-07
1.1619e-05
8.99378e-07
-8.74922e-07
1.15829e-05
1.25243e-06
-1.21637e-06
1.15354e-05
1.57438e-06
-1.5269e-06
1.1477e-05
1.86158e-06
-1.80312e-06
1.14082e-05
2.11217e-06
-2.04337e-06
1.13297e-05
2.32598e-06
-2.24751e-06
1.12423e-05
2.5041e-06
-2.41667e-06
1.11467e-05
2.6484e-06
-2.55277e-06
1.10436e-05
2.7611e-06
-2.65802e-06
1.09339e-05
2.84428e-06
-2.73455e-06
1.08183e-05
2.89965e-06
-2.78414e-06
1.06982e-05
2.92833e-06
-2.80818e-06
1.05748e-05
2.93116e-06
-2.80779e-06
1.04497e-05
2.90886e-06
-2.78372e-06
1.03241e-05
2.86149e-06
-2.73594e-06
1.01995e-05
2.78857e-06
-2.66393e-06
1.0077e-05
2.68955e-06
-2.56703e-06
9.95773e-06
2.56404e-06
-2.44481e-06
9.84289e-06
2.41212e-06
-2.29728e-06
9.73354e-06
2.23441e-06
-2.12505e-06
9.63076e-06
2.03206e-06
-1.92928e-06
9.53565e-06
1.80679e-06
-1.71168e-06
9.44927e-06
1.56077e-06
-1.4744e-06
9.37262e-06
1.29664e-06
-1.22e-06
9.30657e-06
1.01744e-06
-9.5139e-07
9.2518e-06
7.26631e-07
-6.71859e-07
9.20874e-06
4.28133e-07
-3.85069e-07
9.17745e-06
1.26676e-07
-9.53889e-08
9.15766e-06
-1.73074e-07
1.92866e-07
9.14904e-06
-4.67601e-07
4.76223e-07
9.1511e-06
-7.53024e-07
7.50959e-07
9.16245e-06
-1.02473e-06
1.01338e-06
9.18153e-06
-1.27934e-06
1.26026e-06
9.20725e-06
-1.5146e-06
1.48889e-06
9.23826e-06
-1.72782e-06
1.6968e-06
9.27327e-06
-1.91691e-06
1.88191e-06
9.31106e-06
-2.08036e-06
2.04257e-06
9.35057e-06
-2.21708e-06
2.17757e-06
9.39092e-06
-2.32646e-06
2.28611e-06
9.43143e-06
-2.40836e-06
2.36785e-06
9.47167e-06
-2.46315e-06
2.42291e-06
9.51179e-06
-2.49154e-06
2.45141e-06
9.55227e-06
-2.49064e-06
2.45016e-06
9.59276e-06
-2.45678e-06
2.41629e-06
9.63307e-06
-2.39083e-06
2.35052e-06
9.67326e-06
-2.29424e-06
2.25405e-06
9.71359e-06
-2.16858e-06
2.12825e-06
9.75439e-06
-2.01554e-06
1.97474e-06
9.79603e-06
-1.83703e-06
1.79539e-06
9.83886e-06
-1.63528e-06
1.59244e-06
9.88321e-06
-1.41291e-06
1.36857e-06
9.92928e-06
-1.17297e-06
1.1269e-06
9.97719e-06
-9.18944e-07
8.71037e-07
1.00268e-05
-6.54736e-07
6.05107e-07
1.00777e-05
-3.84801e-07
3.33905e-07
1.01291e-05
-1.14633e-07
6.32364e-08
1.01803e-05
1.5119e-07
-2.02403e-07
1.02305e-05
4.09032e-07
-4.59225e-07
1.02788e-05
6.55405e-07
-7.03689e-07
1.03243e-05
8.87167e-07
-9.32662e-07
1.03661e-05
1.10176e-06
-1.14358e-06
1.04035e-05
1.29715e-06
-1.33449e-06
1.04356e-05
1.47187e-06
-1.50402e-06
1.0462e-05
1.62507e-06
-1.65146e-06
1.04822e-05
1.75636e-06
-1.7766e-06
1.04961e-05
1.86585e-06
-1.87973e-06
1.05037e-05
1.95381e-06
-1.96145e-06
1.05056e-05
2.02075e-06
-2.02256e-06
1.05023e-05
2.06743e-06
-2.06422e-06
1.04951e-05
2.09494e-06
-2.08773e-06
1.04836e-05
2.10502e-06
-2.09345e-06
1.04653e-05
2.09794e-06
-2.07963e-06
1.04442e-05
2.0661e-06
-2.04502e-06
1.04227e-05
2.01102e-06
-1.98951e-06
1.04024e-05
1.93317e-06
-1.91292e-06
1.03852e-05
1.83187e-06
-1.81465e-06
1.03727e-05
1.70639e-06
-1.69392e-06
1.03659e-05
1.55717e-06
-1.55031e-06
1.0364e-05
1.38608e-06
-1.38417e-06
1.03674e-05
1.19416e-06
-1.19757e-06
1.03779e-05
9.81935e-07
-9.92477e-07
1.03959e-05
7.5211e-07
-7.70101e-07
1.04208e-05
5.08559e-07
-5.33462e-07
1.04523e-05
2.55222e-07
-2.8668e-07
1.04896e-05
-3.53579e-09
-3.38011e-08
1.05317e-05
-2.62412e-07
2.20312e-07
1.05777e-05
-5.16956e-07
4.70928e-07
1.06268e-05
-7.63763e-07
7.14666e-07
1.06782e-05
-9.99806e-07
9.48459e-07
1.07309e-05
-1.22229e-06
1.16952e-06
1.07844e-05
-1.4288e-06
1.3754e-06
1.08377e-05
-1.61732e-06
1.56397e-06
-1.78613e-06
1.73348e-06
9.9716e-06
3.20855e-06
9.91799e-06
3.16808e-06
9.85371e-06
3.11477e-06
9.78245e-06
3.04705e-06
9.70857e-06
2.96071e-06
9.63692e-06
2.85001e-06
9.57231e-06
2.70887e-06
9.51913e-06
2.53218e-06
9.48075e-06
2.31686e-06
9.45963e-06
2.06221e-06
9.4567e-06
1.7712e-06
9.47228e-06
1.44936e-06
9.50676e-06
1.10222e-06
9.55931e-06
7.3705e-07
9.62787e-06
3.63257e-07
9.70959e-06
-8.8021e-09
9.80199e-06
-3.71106e-07
9.90231e-06
-7.17582e-07
1.00077e-05
-1.04324e-06
1.01154e-05
-1.34445e-06
1.02228e-05
-1.61894e-06
1.03278e-05
-1.86572e-06
1.04286e-05
-2.08475e-06
1.0524e-05
-2.2766e-06
1.06134e-05
-2.44212e-06
1.06963e-05
-2.58227e-06
1.07727e-05
-2.69801e-06
1.08427e-05
-2.79034e-06
1.09069e-05
-2.86024e-06
1.09661e-05
-2.90836e-06
1.10217e-05
-2.93444e-06
1.10747e-05
-2.93336e-06
1.1125e-05
-2.89726e-06
1.11724e-05
-2.82205e-06
1.1217e-05
-2.70522e-06
1.12589e-05
-2.54478e-06
1.12979e-05
-2.33956e-06
1.13337e-05
-2.08963e-06
1.13657e-05
-1.79668e-06
1.13932e-05
-1.46414e-06
1.14155e-05
-1.09732e-06
1.14318e-05
-7.03472e-07
1.14412e-05
-2.923e-07
1.14424e-05
1.22532e-07
1.14347e-05
5.28406e-07
1.14176e-05
9.16522e-07
1.13906e-05
1.27944e-06
1.13536e-05
1.61142e-06
1.13065e-05
1.90862e-06
1.12496e-05
2.16904e-06
1.11833e-05
2.39234e-06
1.11079e-05
2.57945e-06
1.10242e-05
2.73214e-06
1.09327e-05
2.85258e-06
1.08341e-05
2.94284e-06
1.07292e-05
3.00456e-06
1.0619e-05
3.03861e-06
1.05047e-05
3.04546e-06
1.03878e-05
3.02575e-06
1.02697e-05
2.9796e-06
1.01516e-05
2.90661e-06
1.00349e-05
2.80629e-06
9.9206e-06
2.67832e-06
9.80992e-06
2.5228e-06
9.70398e-06
2.34034e-06
9.60393e-06
2.13212e-06
9.5109e-06
1.89981e-06
9.42605e-06
1.64562e-06
9.35049e-06
1.37221e-06
9.2852e-06
1.08273e-06
9.231e-06
7.80829e-07
9.18845e-06
4.70687e-07
9.15763e-06
1.57495e-07
9.13814e-06
-1.53584e-07
9.12921e-06
-4.58665e-07
9.12961e-06
-7.53426e-07
9.13868e-06
-1.03381e-06
9.15571e-06
-1.29636e-06
9.17907e-06
-1.53796e-06
9.20726e-06
-1.75601e-06
9.23889e-06
-1.94854e-06
9.27263e-06
-2.1141e-06
9.30737e-06
-2.25183e-06
9.34226e-06
-2.36135e-06
9.37667e-06
-2.44276e-06
9.41024e-06
-2.49672e-06
9.44317e-06
-2.52447e-06
9.47617e-06
-2.52364e-06
9.50895e-06
-2.48956e-06
9.54134e-06
-2.42322e-06
9.57356e-06
-2.32646e-06
9.60602e-06
-2.20104e-06
9.6392e-06
-2.04872e-06
9.67356e-06
-1.87139e-06
9.70953e-06
-1.67125e-06
9.74752e-06
-1.4509e-06
9.78787e-06
-1.21332e-06
9.83077e-06
-9.61847e-07
9.87623e-06
-7.00196e-07
9.92397e-06
-4.32536e-07
9.97329e-06
-1.63956e-07
1.00236e-05
1.00911e-07
1.0074e-05
3.58586e-07
1.01237e-05
6.05699e-07
1.01718e-05
8.39136e-07
1.02172e-05
1.05634e-06
1.02591e-05
1.2552e-06
1.02968e-05
1.43422e-06
1.03294e-05
1.59243e-06
1.03566e-05
1.72922e-06
1.03779e-05
1.84449e-06
1.03936e-05
1.93816e-06
1.04039e-05
2.01045e-06
1.04095e-05
2.06185e-06
1.04111e-05
2.09328e-06
1.04092e-05
2.10697e-06
1.04013e-05
2.10584e-06
1.03902e-05
2.07716e-06
1.03797e-05
2.02159e-06
1.03711e-05
1.94175e-06
1.03656e-05
1.83734e-06
1.03633e-05
1.70868e-06
1.0364e-05
1.55652e-06
1.0369e-05
1.38104e-06
1.03804e-05
1.18278e-06
1.03982e-05
9.64141e-07
1.04219e-05
7.28365e-07
1.04514e-05
4.79066e-07
1.04862e-05
2.20416e-07
1.05255e-05
-4.28456e-08
1.05683e-05
-3.05137e-07
1.06136e-05
-5.62253e-07
1.06606e-05
-8.10776e-07
1.07085e-05
-1.04772e-06
1.07565e-05
-1.27028e-06
1.08038e-05
-1.47616e-06
1.085e-05
-1.66345e-06
-1.83056e-06
9.85199e-06
3.23726e-06
9.80891e-06
3.21116e-06
9.755e-06
3.16869e-06
9.69456e-06
3.10749e-06
9.63243e-06
3.02284e-06
9.57352e-06
2.90891e-06
9.52234e-06
2.76006e-06
9.48251e-06
2.57201e-06
9.45654e-06
2.34284e-06
9.44558e-06
2.07316e-06
9.45044e-06
1.76634e-06
9.47342e-06
1.42638e-06
9.51536e-06
1.06029e-06
9.57442e-06
6.77988e-07
9.6483e-06
2.89379e-07
9.73414e-06
-9.46494e-08
9.82936e-06
-4.6632e-07
9.93106e-06
-8.19288e-07
1.00363e-05
-1.14849e-06
1.01423e-05
-1.45039e-06
1.02463e-05
-1.72295e-06
1.03461e-05
-1.96555e-06
1.044e-05
-2.17868e-06
1.05269e-05
-2.36349e-06
1.06063e-05
-2.5215e-06
1.06782e-05
-2.65411e-06
1.07426e-05
-2.7625e-06
1.07999e-05
-2.84764e-06
1.08503e-05
-2.9106e-06
1.08946e-05
-2.95267e-06
1.09348e-05
-2.97461e-06
1.09725e-05
-2.97108e-06
1.10071e-05
-2.9318e-06
1.10386e-05
-2.85356e-06
1.10677e-05
-2.73434e-06
1.10949e-05
-2.572e-06
1.11204e-05
-2.3651e-06
1.11443e-05
-2.11348e-06
1.11662e-05
-1.81861e-06
1.11858e-05
-1.48376e-06
1.12026e-05
-1.11412e-06
1.1216e-05
-7.1687e-07
1.12253e-05
-3.01541e-07
1.12291e-05
1.1873e-07
1.12265e-05
5.30949e-07
1.12168e-05
9.26284e-07
1.1199e-05
1.29718e-06
1.11727e-05
1.63774e-06
1.11374e-05
1.9439e-06
1.1093e-05
2.21347e-06
1.10394e-05
2.44588e-06
1.0977e-05
2.64186e-06
1.09061e-05
2.80304e-06
1.08273e-05
2.93144e-06
1.0741e-05
3.02907e-06
1.06481e-05
3.09751e-06
1.05491e-05
3.13756e-06
1.04453e-05
3.14928e-06
1.03381e-05
3.13296e-06
1.02288e-05
3.08886e-06
1.01188e-05
3.01666e-06
1.00092e-05
2.91593e-06
9.90108e-06
2.78641e-06
9.79567e-06
2.62822e-06
9.69403e-06
2.44198e-06
9.59733e-06
2.22882e-06
9.50677e-06
1.99037e-06
9.42363e-06
1.72877e-06
9.34913e-06
1.4467e-06
9.28446e-06
1.1474e-06
9.23063e-06
8.34665e-07
9.18834e-06
5.1297e-07
9.15791e-06
1.87923e-07
9.13922e-06
-1.34885e-07
9.13103e-06
-4.50481e-07
9.1319e-06
-7.54292e-07
9.14121e-06
-1.04312e-06
9.15788e-06
-1.31303e-06
9.1801e-06
-1.56018e-06
9.20626e-06
-1.78217e-06
9.235e-06
-1.97729e-06
9.26502e-06
-2.14412e-06
9.2953e-06
-2.2821e-06
9.32497e-06
-2.39103e-06
9.35345e-06
-2.47124e-06
9.38053e-06
-2.5238e-06
9.40654e-06
-2.55048e-06
9.43247e-06
-2.54957e-06
9.45787e-06
-2.51497e-06
9.4826e-06
-2.44795e-06
9.50706e-06
-2.35092e-06
9.53187e-06
-2.22585e-06
9.55765e-06
-2.0745e-06
9.58493e-06
-1.89867e-06
9.61418e-06
-1.7005e-06
9.64589e-06
-1.48261e-06
9.68048e-06
-1.24791e-06
9.71822e-06
-9.99587e-07
9.7592e-06
-7.4118e-07
9.80329e-06
-4.76624e-07
9.84992e-06
-2.10584e-07
9.89845e-06
5.23768e-08
9.94817e-06
3.0887e-07
9.99822e-06
5.55649e-07
1.00476e-05
7.89747e-07
1.00954e-05
1.00859e-06
1.01405e-05
1.21004e-06
1.01822e-05
1.39249e-06
1.02198e-05
1.55486e-06
1.02526e-05
1.69639e-06
1.02805e-05
1.81668e-06
1.03033e-05
1.91529e-06
1.03215e-05
1.99229e-06
1.03352e-05
2.04817e-06
1.03446e-05
2.08388e-06
1.03502e-05
2.10137e-06
1.0354e-05
2.10205e-06
1.03556e-05
2.07551e-06
1.03567e-05
2.0205e-06
1.03583e-05
1.9402e-06
1.03611e-05
1.83453e-06
1.03662e-05
1.70358e-06
1.03752e-05
1.54744e-06
1.03895e-05
1.36683e-06
1.04088e-05
1.16348e-06
1.0433e-05
9.39852e-07
1.04622e-05
6.99208e-07
1.04959e-05
4.45366e-07
1.05336e-05
1.82686e-07
1.05744e-05
-8.3666e-08
1.06173e-05
-3.48013e-07
1.06614e-05
-6.06355e-07
1.07059e-05
-8.55255e-07
1.07499e-05
-1.09176e-06
1.07928e-05
-1.31308e-06
1.08337e-05
-1.51707e-06
1.08722e-05
-1.70195e-06
-1.86628e-06
9.7563e-06
3.25462e-06
9.72438e-06
3.24307e-06
9.68198e-06
3.21109e-06
9.63394e-06
3.15553e-06
9.58502e-06
3.07175e-06
9.53951e-06
2.95443e-06
9.50099e-06
2.79858e-06
9.47252e-06
2.60049e-06
9.45654e-06
2.35882e-06
9.45468e-06
2.07502e-06
9.46925e-06
1.75177e-06
9.50136e-06
1.39427e-06
9.55034e-06
1.01131e-06
9.61527e-06
6.13058e-07
9.69367e-06
2.10979e-07
9.78273e-06
-1.83704e-07
9.87969e-06
-5.63278e-07
9.98155e-06
-9.21151e-07
1.00853e-05
-1.25223e-06
1.0188e-05
-1.55312e-06
1.02871e-05
-1.82206e-06
1.03804e-05
-2.05884e-06
1.04662e-05
-2.26445e-06
1.05434e-05
-2.4407e-06
1.06117e-05
-2.58976e-06
1.06712e-05
-2.71367e-06
1.07227e-05
-2.814e-06
1.07667e-05
-2.8916e-06
1.08033e-05
-2.94726e-06
1.08328e-05
-2.98218e-06
1.08567e-05
-2.99849e-06
1.0879e-05
-2.99334e-06
1.08974e-05
-2.95018e-06
1.09126e-05
-2.86881e-06
1.09261e-05
-2.74778e-06
1.09385e-05
-2.58448e-06
1.09506e-05
-2.37716e-06
1.09625e-05
-2.12538e-06
1.09743e-05
-1.83041e-06
1.09859e-05
-1.49538e-06
1.09971e-05
-1.12533e-06
1.10076e-05
-7.27294e-07
1.10165e-05
-3.10532e-07
1.10228e-05
1.12498e-07
1.10252e-05
5.28551e-07
1.10226e-05
9.28841e-07
1.1014e-05
1.30577e-06
1.09984e-05
1.65333e-06
1.09751e-05
1.96728e-06
1.09433e-05
2.24518e-06
1.0903e-05
2.48624e-06
1.08539e-05
2.69093e-06
1.07964e-05
2.8606e-06
1.07307e-05
2.99707e-06
1.06576e-05
3.10219e-06
1.05776e-05
3.17754e-06
1.04912e-05
3.22399e-06
1.03991e-05
3.24128e-06
1.0303e-05
3.22912e-06
1.02039e-05
3.18793e-06
1.01031e-05
3.11745e-06
1.00018e-05
3.01728e-06
9.90093e-06
2.88724e-06
9.8017e-06
2.72744e-06
9.70526e-06
2.53842e-06
9.61287e-06
2.32121e-06
9.5259e-06
2.07734e-06
9.44577e-06
1.8089e-06
9.37387e-06
1.5186e-06
9.31148e-06
1.20979e-06
9.25965e-06
8.86495e-07
9.21903e-06
5.53595e-07
9.18975e-06
2.17202e-07
9.17134e-06
-1.16482e-07
9.16326e-06
-4.42401e-07
9.16474e-06
-7.55771e-07
9.17406e-06
-1.05245e-06
9.1895e-06
-1.32847e-06
9.2098e-06
-1.58048e-06
9.23356e-06
-1.80593e-06
9.25936e-06
-2.00308e-06
9.28597e-06
-2.17073e-06
9.31239e-06
-2.30852e-06
9.33768e-06
-2.41632e-06
9.36109e-06
-2.49464e-06
9.38226e-06
-2.54497e-06
9.40152e-06
-2.56975e-06
9.42076e-06
-2.56881e-06
9.43904e-06
-2.53324e-06
9.45612e-06
-2.46503e-06
9.47292e-06
-2.36772e-06
9.49029e-06
-2.24323e-06
9.50886e-06
-2.09308e-06
9.52922e-06
-1.91903e-06
9.55189e-06
-1.72317e-06
9.57739e-06
-1.50811e-06
9.60621e-06
-1.27673e-06
9.63867e-06
-1.03205e-06
9.67492e-06
-7.7743e-07
9.71488e-06
-5.16586e-07
9.75814e-06
-2.53842e-07
9.80414e-06
6.37886e-09
9.85217e-06
2.60837e-07
9.90144e-06
5.0638e-07
9.95101e-06
7.40183e-07
9.99993e-06
9.59663e-07
1.00472e-05
1.16275e-06
1.0092e-05
1.34769e-06
1.01337e-05
1.5132e-06
1.01717e-05
1.65834e-06
1.02058e-05
1.78258e-06
1.02358e-05
1.88532e-06
1.02616e-05
1.96644e-06
1.02834e-05
2.02645e-06
1.03009e-05
2.06638e-06
1.03147e-05
2.08755e-06
1.03278e-05
2.08896e-06
1.03397e-05
2.06363e-06
1.03499e-05
2.01026e-06
1.03602e-05
1.92989e-06
1.0372e-05
1.82272e-06
1.03866e-05
1.68895e-06
1.04049e-05
1.52917e-06
1.04271e-05
1.34459e-06
1.04535e-05
1.13715e-06
1.04838e-05
9.09566e-07
1.05178e-05
6.65197e-07
1.05551e-05
4.08016e-07
1.05952e-05
1.42579e-07
1.06369e-05
-1.25383e-07
1.06794e-05
-3.90442e-07
1.07217e-05
-6.48665e-07
1.0763e-05
-8.96609e-07
1.08026e-05
-1.13135e-06
1.08398e-05
-1.35021e-06
1.08738e-05
-1.55116e-06
1.09045e-05
-1.73256e-06
-1.89305e-06
9.68719e-06
9.66811e-06
9.6385e-06
9.60341e-06
9.56689e-06
9.53288e-06
9.50511e-06
9.48685e-06
9.48098e-06
9.49003e-06
9.51512e-06
9.55609e-06
9.61256e-06
9.68336e-06
9.76577e-06
9.85721e-06
9.95478e-06
1.00554e-05
1.01561e-05
1.0254e-05
1.03465e-05
1.04317e-05
1.0508e-05
1.05744e-05
1.06307e-05
1.06771e-05
1.07144e-05
1.07437e-05
1.0766e-05
1.07817e-05
1.07911e-05
1.0797e-05
1.07982e-05
1.07972e-05
1.07953e-05
1.07935e-05
1.07924e-05
1.07926e-05
1.07945e-05
1.07982e-05
1.08039e-05
1.08113e-05
1.08198e-05
1.08282e-05
1.08353e-05
1.08395e-05
1.08397e-05
1.08344e-05
1.08227e-05
1.08035e-05
1.07762e-05
1.07407e-05
1.06968e-05
1.0645e-05
1.05857e-05
1.05196e-05
1.0447e-05
1.03683e-05
1.02844e-05
1.01967e-05
1.01062e-05
1.00142e-05
9.9217e-06
9.82992e-06
9.74014e-06
9.65374e-06
9.57221e-06
9.49704e-06
9.4297e-06
9.37147e-06
9.32335e-06
9.28588e-06
9.25911e-06
9.24256e-06
9.23551e-06
9.23693e-06
9.24539e-06
9.25931e-06
9.27722e-06
9.29768e-06
9.31934e-06
9.34107e-06
9.36188e-06
9.38101e-06
9.39792e-06
9.41224e-06
9.42412e-06
9.43668e-06
9.44845e-06
9.4591e-06
9.46943e-06
9.47994e-06
9.49144e-06
9.50479e-06
9.52081e-06
9.54023e-06
9.56343e-06
9.59066e-06
9.62209e-06
9.65772e-06
9.69724e-06
9.7402e-06
9.78597e-06
9.83379e-06
9.88279e-06
9.93208e-06
9.98079e-06
1.00281e-05
1.00732e-05
1.01157e-05
1.01552e-05
1.01913e-05
1.02237e-05
1.02521e-05
1.0277e-05
1.02991e-05
1.03201e-05
1.03404e-05
1.036e-05
1.03801e-05
1.04017e-05
1.04257e-05
1.04524e-05
1.04822e-05
1.0515e-05
1.05507e-05
1.0589e-05
1.06294e-05
1.06712e-05
1.07132e-05
1.07545e-05
1.07943e-05
1.08319e-05
1.08664e-05
1.08972e-05
1.09239e-05
1.0946e-05
1.98127e-06
-2.3651e-08
1.99177e-06
-1.05084e-08
1.98724e-06
4.52927e-09
1.96493e-06
2.23177e-08
1.92054e-06
4.4387e-08
1.8492e-06
7.13364e-08
1.74641e-06
1.02795e-07
1.60944e-06
1.36972e-07
1.43937e-06
1.70068e-07
1.24241e-06
1.96955e-07
1.02865e-06
2.13764e-07
8.09571e-07
2.19078e-07
5.966e-07
2.12971e-07
4.01548e-07
1.95052e-07
2.35694e-07
1.65854e-07
1.08257e-07
1.27438e-07
2.5406e-08
8.28507e-08
-9.65375e-09
3.50598e-08
-4.27087e-09
-5.38289e-09
3.41235e-08
-3.83944e-08
1.05133e-07
-7.10098e-08
2.04099e-07
-9.89661e-08
3.25478e-07
-1.21379e-07
4.63448e-07
-1.3797e-07
6.12091e-07
-1.48644e-07
7.6571e-07
-1.53618e-07
9.19276e-07
-1.53567e-07
1.0687e-06
-1.49423e-07
1.21072e-06
-1.42017e-07
1.34291e-06
-1.32191e-07
1.46372e-06
-1.20813e-07
1.57224e-06
-1.08522e-07
1.66808e-06
-9.58374e-08
1.75128e-06
-8.31986e-08
1.82221e-06
-7.09295e-08
1.88146e-06
-5.92553e-08
1.92979e-06
-4.83272e-08
1.96805e-06
-3.82611e-08
1.99779e-06
-2.97393e-08
2.02088e-06
-2.30876e-08
2.03855e-06
-1.76697e-08
2.0512e-06
-1.26507e-08
2.05917e-06
-7.96793e-09
2.06295e-06
-3.78615e-09
2.06317e-06
-2.14167e-10
2.06158e-06
1.58352e-09
2.05875e-06
2.83269e-09
2.0543e-06
4.45385e-09
2.04861e-06
5.68749e-09
2.04227e-06
6.34155e-09
2.03614e-06
6.12759e-09
2.03099e-06
5.15308e-09
2.02714e-06
3.84517e-09
2.02491e-06
2.23435e-09
2.02484e-06
6.19081e-11
2.02737e-06
-2.53028e-09
2.03257e-06
-5.19455e-09
2.04027e-06
-7.70586e-09
2.05004e-06
-9.76842e-09
2.06121e-06
-1.11629e-08
2.07277e-06
-1.15652e-08
2.08342e-06
-1.0648e-08
2.09144e-06
-8.0235e-09
2.09402e-06
-2.58027e-09
2.08934e-06
4.67951e-09
2.07367e-06
1.5671e-08
2.04401e-06
2.96638e-08
1.99739e-06
4.6622e-08
1.93119e-06
6.6198e-08
1.84366e-06
8.75239e-08
1.73414e-06
1.09522e-07
1.60367e-06
1.30469e-07
1.45549e-06
1.48188e-07
1.29456e-06
1.60924e-07
1.1272e-06
1.67361e-07
9.60352e-07
1.66849e-07
8.00594e-07
1.59758e-07
6.52986e-07
1.47608e-07
5.21317e-07
1.31669e-07
4.08646e-07
1.12672e-07
3.17164e-07
9.14821e-08
2.4826e-07
6.89034e-08
2.02718e-07
4.55423e-08
1.80826e-07
2.1892e-08
1.80414e-07
4.11816e-10
1.97372e-07
-1.6958e-08
2.31652e-07
-3.42805e-08
2.81328e-07
-4.96756e-08
3.44175e-07
-6.28467e-08
4.1777e-07
-7.35952e-08
4.99598e-07
-8.18277e-08
5.87167e-07
-8.75694e-08
6.782e-07
-9.10326e-08
7.70576e-07
-9.23765e-08
8.62321e-07
-9.17449e-08
9.51719e-07
-8.93976e-08
1.03747e-06
-8.57554e-08
1.11869e-06
-8.12168e-08
1.19474e-06
-7.60493e-08
1.2652e-06
-7.04629e-08
1.32981e-06
-6.46067e-08
1.38839e-06
-5.8582e-08
1.4409e-06
-5.25056e-08
1.48741e-06
-4.6509e-08
1.52812e-06
-4.07115e-08
1.56341e-06
-3.52949e-08
1.59373e-06
-3.03152e-08
1.61946e-06
-2.5737e-08
1.64118e-06
-2.17199e-08
1.6595e-06
-1.83185e-08
1.67478e-06
-1.52757e-08
1.6875e-06
-1.27203e-08
1.69829e-06
-1.07881e-08
1.7076e-06
-9.31174e-09
1.71591e-06
-8.30916e-09
1.72352e-06
-7.60696e-09
1.73023e-06
-6.70959e-09
1.73589e-06
-5.66588e-09
1.74031e-06
-4.42085e-09
1.74311e-06
-2.80291e-09
1.74362e-06
-5.09258e-10
1.7417e-06
1.91941e-09
1.73654e-06
5.16013e-09
1.72754e-06
9.00074e-09
1.7143e-06
1.32466e-08
1.69681e-06
1.74894e-08
1.6751e-06
2.17052e-08
1.64908e-06
2.60214e-08
1.61856e-06
3.05234e-08
1.58326e-06
3.52994e-08
1.54283e-06
4.04327e-08
1.49687e-06
4.59581e-08
1.44507e-06
5.17947e-08
1.38733e-06
5.77468e-08
1.32377e-06
6.35591e-08
1.2548e-06
6.89656e-08
1.18109e-06
7.37111e-08
7.75949e-08
3.95157e-06
-2.3079e-08
3.9353e-06
5.76256e-09
3.89951e-06
4.03253e-08
3.83967e-06
8.21528e-08
3.75181e-06
1.3225e-07
3.63312e-06
1.90025e-07
3.48201e-06
2.53904e-07
3.29817e-06
3.20818e-07
3.08523e-06
3.83002e-07
2.85345e-06
4.28738e-07
2.61771e-06
4.49504e-07
2.3914e-06
4.45388e-07
2.18909e-06
4.15282e-07
2.02525e-06
3.58887e-07
1.90701e-06
2.84094e-07
1.83466e-06
1.9979e-07
1.80507e-06
1.12442e-07
1.81478e-06
2.53439e-08
1.85795e-06
-4.8544e-08
1.93916e-06
-1.19608e-07
2.05161e-06
-1.83456e-07
2.19103e-06
-2.38393e-07
2.35296e-06
-2.8331e-07
2.53272e-06
-3.17727e-07
2.7255e-06
-3.41419e-07
2.92642e-06
-3.54544e-07
3.13091e-06
-3.58057e-07
3.33521e-06
-3.5372e-07
3.53645e-06
-3.43255e-07
3.7322e-06
-3.27939e-07
3.92032e-06
-3.08937e-07
4.09909e-06
-2.87294e-07
4.26702e-06
-2.6376e-07
4.42263e-06
-2.38816e-07
4.56459e-06
-2.12883e-07
4.69175e-06
-1.86416e-07
4.80325e-06
-1.59826e-07
4.89859e-06
-1.33607e-07
4.9777e-06
-1.08849e-07
5.04078e-06
-8.61644e-08
5.08823e-06
-6.51221e-08
5.1207e-06
-4.51202e-08
5.13924e-06
-2.6508e-08
5.14531e-06
-9.85276e-09
5.14012e-06
4.97166e-09
5.124e-06
1.77004e-08
5.09854e-06
2.82963e-08
5.06487e-06
3.81261e-08
5.02332e-06
4.724e-08
4.97448e-06
5.51782e-08
4.92085e-06
5.97568e-08
4.86462e-06
6.13866e-08
4.80628e-06
6.21812e-08
4.74633e-06
6.21878e-08
4.68556e-06
6.08299e-08
4.62512e-06
5.79141e-08
4.56599e-06
5.39293e-08
4.50822e-06
5.00656e-08
4.45149e-06
4.69634e-08
4.3953e-06
4.50277e-08
4.33895e-06
4.47864e-08
4.28149e-06
4.68117e-08
4.22163e-06
5.18313e-08
4.15822e-06
6.08292e-08
4.08808e-06
7.4823e-08
4.00831e-06
9.54413e-08
3.91548e-06
1.22494e-07
3.80682e-06
1.55281e-07
3.68087e-06
1.92149e-07
3.53731e-06
2.31082e-07
3.37689e-06
2.69946e-07
3.2018e-06
3.05559e-07
3.01641e-06
3.33576e-07
2.82703e-06
3.50301e-07
2.6405e-06
3.5389e-07
2.46343e-06
3.43919e-07
2.30219e-06
3.20998e-07
2.16299e-06
2.86808e-07
2.05038e-06
2.44281e-07
1.96583e-06
1.97222e-07
1.90846e-06
1.48852e-07
1.87609e-06
1.01272e-07
1.86666e-06
5.497e-08
1.87893e-06
9.6271e-09
1.90994e-06
-3.06034e-08
1.96261e-06
-6.96225e-08
2.03429e-06
-1.0596e-07
2.12354e-06
-1.38931e-07
2.22858e-06
-1.67887e-07
2.34723e-06
-1.92242e-07
2.47697e-06
-2.11566e-07
2.61507e-06
-2.25671e-07
2.75904e-06
-2.35005e-07
2.90615e-06
-2.39487e-07
3.05344e-06
-2.39032e-07
3.19816e-06
-2.34119e-07
3.3382e-06
-2.25799e-07
3.47189e-06
-2.14906e-07
3.59776e-06
-2.01916e-07
3.71443e-06
-1.87136e-07
3.82066e-06
-1.70836e-07
3.9154e-06
-1.53324e-07
3.9979e-06
-1.35002e-07
4.06778e-06
-1.16388e-07
4.12507e-06
-9.80018e-08
4.17012e-06
-8.03436e-08
4.2035e-06
-6.36959e-08
4.22592e-06
-4.81533e-08
4.23863e-06
-3.44311e-08
4.24375e-06
-2.34427e-08
4.24166e-06
-1.31875e-08
4.23287e-06
-3.9303e-09
4.21828e-06
3.80186e-09
4.19856e-06
1.04072e-08
4.17499e-06
1.52622e-08
4.14894e-06
1.84462e-08
4.11998e-06
2.22456e-08
4.08825e-06
2.60706e-08
4.0538e-06
3.00249e-08
4.0165e-06
3.44951e-08
3.9761e-06
3.98953e-08
3.93167e-06
4.63456e-08
3.88298e-06
5.38508e-08
3.82983e-06
6.21571e-08
3.7723e-06
7.07739e-08
3.71072e-06
7.90648e-08
3.64543e-06
8.70001e-08
3.57669e-06
9.47547e-08
3.50471e-06
1.02506e-07
3.42953e-06
1.10478e-07
3.35108e-06
1.18889e-07
3.26918e-06
1.27855e-07
3.18378e-06
1.37197e-07
3.09508e-06
1.46445e-07
3.00361e-06
1.55033e-07
2.91014e-06
1.62428e-07
2.81564e-06
1.68215e-07
1.72075e-07
5.64069e-06
2.16606e-08
5.58887e-06
5.75833e-08
5.53138e-06
9.78103e-08
5.46871e-06
1.44827e-07
5.39997e-06
2.00984e-07
5.32186e-06
2.68134e-07
5.22761e-06
3.48161e-07
5.10866e-06
4.39768e-07
4.96391e-06
5.27752e-07
4.80396e-06
5.88684e-07
4.64435e-06
6.09116e-07
4.4894e-06
6.00331e-07
4.34419e-06
5.60495e-07
4.22076e-06
4.82317e-07
4.12461e-06
3.80249e-07
4.05835e-06
2.66047e-07
4.02312e-06
1.47674e-07
4.01884e-06
2.9622e-08
4.04903e-06
-7.87383e-08
4.10994e-06
-1.80516e-07
4.19718e-06
-2.70692e-07
4.30684e-06
-3.48057e-07
4.43526e-06
-4.11731e-07
4.5788e-06
-4.61263e-07
4.73359e-06
-4.96205e-07
4.89543e-06
-5.16391e-07
5.0604e-06
-5.23023e-07
5.22567e-06
-5.18997e-07
5.38935e-06
-5.06932e-07
5.54978e-06
-4.88367e-07
5.70559e-06
-4.6475e-07
5.85581e-06
-4.37507e-07
5.99976e-06
-4.0771e-07
6.13711e-06
-3.76174e-07
6.2678e-06
-3.4357e-07
6.39182e-06
-3.10432e-07
6.50916e-06
-2.77172e-07
6.61971e-06
-2.44149e-07
6.72263e-06
-2.1177e-07
6.8167e-06
-1.80237e-07
6.90099e-06
-1.49411e-07
6.97497e-06
-1.19103e-07
7.03799e-06
-8.95231e-08
7.08926e-06
-6.11298e-08
7.12854e-06
-3.43032e-08
7.15591e-06
-9.67482e-09
7.17195e-06
1.22629e-08
7.17764e-06
3.24379e-08
7.17252e-06
5.23613e-08
7.15624e-06
7.14492e-08
7.12934e-06
8.6664e-08
7.09245e-06
9.82747e-08
7.04571e-06
1.08921e-07
6.98891e-06
1.18991e-07
6.92102e-06
1.2872e-07
6.8423e-06
1.36626e-07
6.75512e-06
1.41114e-07
6.65965e-06
1.45535e-07
6.55584e-06
1.5077e-07
6.44422e-06
1.5665e-07
6.32573e-06
1.63281e-07
6.20176e-06
1.70781e-07
6.07405e-06
1.79537e-07
5.94443e-06
1.90454e-07
5.81475e-06
2.04497e-07
5.68705e-06
2.23143e-07
5.561e-06
2.4855e-07
5.435e-06
2.81273e-07
5.30684e-06
3.20311e-07
5.17317e-06
3.64751e-07
5.03007e-06
4.13053e-07
4.87566e-06
4.59963e-07
4.71198e-06
4.97259e-07
4.54355e-06
5.18725e-07
4.37594e-06
5.21505e-07
4.21498e-06
5.04884e-07
4.06584e-06
4.70134e-07
3.93255e-06
4.20092e-07
3.81766e-06
3.59172e-07
3.72219e-06
2.92695e-07
3.64667e-06
2.24376e-07
3.59162e-06
1.56314e-07
3.55753e-06
8.90669e-08
3.5443e-06
2.28569e-08
3.55171e-06
-3.80158e-08
3.57982e-06
-9.77369e-08
3.62744e-06
-1.53576e-07
3.69331e-06
-2.04801e-07
3.77594e-06
-2.50516e-07
3.87351e-06
-2.89811e-07
3.9839e-06
-3.2196e-07
4.10455e-06
-3.46315e-07
4.23404e-06
-3.645e-07
4.37079e-06
-3.76236e-07
4.51274e-06
-3.80983e-07
4.65753e-06
-3.78908e-07
4.80356e-06
-3.71833e-07
4.94962e-06
-3.60965e-07
5.09459e-06
-3.46884e-07
5.2373e-06
-3.29841e-07
5.37632e-06
-3.09857e-07
5.50985e-06
-2.86858e-07
5.63591e-06
-2.61062e-07
5.75276e-06
-2.33231e-07
5.85895e-06
-2.04193e-07
5.95319e-06
-1.74582e-07
6.0345e-06
-1.45011e-07
6.10232e-06
-1.15969e-07
6.15643e-06
-8.85445e-08
6.19686e-06
-6.38743e-08
6.22407e-06
-4.03953e-08
6.23904e-06
-1.89033e-08
6.24269e-06
1.55539e-10
6.23518e-06
1.79132e-08
6.21686e-06
3.35811e-08
6.18836e-06
4.6945e-08
6.14994e-06
6.067e-08
6.10214e-06
7.38673e-08
6.04564e-06
8.65312e-08
5.98144e-06
9.86917e-08
5.91046e-06
1.10877e-07
5.83335e-06
1.23451e-07
5.75116e-06
1.36041e-07
5.66493e-06
1.48388e-07
5.57581e-06
1.599e-07
5.48487e-06
1.69999e-07
5.39279e-06
1.79083e-07
5.30026e-06
1.87284e-07
5.20784e-06
1.94924e-07
5.11576e-06
2.02563e-07
5.02395e-06
2.10694e-07
4.93215e-06
2.19659e-07
4.84006e-06
2.2929e-07
4.7477e-06
2.38798e-07
4.65548e-06
2.47259e-07
4.56398e-06
2.53925e-07
4.47395e-06
2.58241e-07
2.59841e-07
7.51046e-06
6.89898e-08
7.44843e-06
1.19614e-07
7.37092e-06
1.7532e-07
7.28022e-06
2.3552e-07
7.1826e-06
2.98607e-07
7.08686e-06
3.63877e-07
6.99981e-06
4.35207e-07
6.92459e-06
5.14993e-07
6.86335e-06
5.88984e-07
6.81553e-06
6.36506e-07
6.77582e-06
6.48829e-07
6.73442e-06
6.41729e-07
6.68843e-06
6.06489e-07
6.63932e-06
5.31423e-07
6.59179e-06
4.27779e-07
6.55263e-06
3.05203e-07
6.5278e-06
1.72507e-07
6.52024e-06
3.71829e-08
6.53629e-06
-9.47925e-08
6.57272e-06
-2.16941e-07
6.62796e-06
-3.2593e-07
6.69931e-06
-4.19408e-07
6.78368e-06
-4.961e-07
6.87793e-06
-5.55514e-07
6.97875e-06
-5.97022e-07
7.08271e-06
-6.20354e-07
7.18677e-06
-6.27089e-07
7.28958e-06
-6.21802e-07
7.39002e-06
-6.07371e-07
7.48656e-06
-5.84909e-07
7.57812e-06
-5.56307e-07
7.66411e-06
-5.23502e-07
7.74429e-06
-4.87891e-07
7.81869e-06
-4.50573e-07
7.88761e-06
-4.12487e-07
7.95157e-06
-3.74393e-07
8.01119e-06
-3.3679e-07
8.067e-06
-2.99966e-07
8.11941e-06
-2.64179e-07
8.16878e-06
-2.29604e-07
8.21564e-06
-1.96266e-07
8.26061e-06
-1.64081e-07
8.30409e-06
-1.33004e-07
8.34594e-06
-1.02971e-07
8.38554e-06
-7.39037e-08
8.42191e-06
-4.605e-08
8.45389e-06
-1.9716e-08
8.48081e-06
5.51974e-09
8.50278e-06
3.03863e-08
8.51985e-06
5.43868e-08
8.53067e-06
7.58382e-08
8.53396e-06
9.49885e-08
8.52932e-06
1.13562e-07
8.51629e-06
1.32017e-07
8.49416e-06
1.50844e-07
8.46211e-06
1.68685e-07
8.41933e-06
1.83893e-07
8.36511e-06
1.99752e-07
8.29876e-06
2.17124e-07
8.21958e-06
2.35826e-07
8.12696e-06
2.559e-07
8.02021e-06
2.77535e-07
7.89832e-06
3.0142e-07
7.7605e-06
3.28278e-07
7.60886e-06
3.56141e-07
7.44876e-06
3.83236e-07
7.28579e-06
4.11521e-07
7.12672e-06
4.40344e-07
6.97703e-06
4.70005e-07
6.83889e-06
5.02892e-07
6.71141e-06
5.40526e-07
6.59164e-06
5.79733e-07
6.47603e-06
6.12876e-07
6.36042e-06
6.34334e-07
6.24238e-06
6.39543e-07
6.12237e-06
6.24891e-07
6.00242e-06
5.90083e-07
5.88585e-06
5.36665e-07
5.77646e-06
4.68561e-07
5.67764e-06
3.91516e-07
5.59182e-06
3.10195e-07
5.52062e-06
2.27513e-07
5.46471e-06
1.44977e-07
5.42436e-06
6.32116e-08
5.40141e-06
-1.50644e-08
5.39406e-06
-9.0392e-08
5.40166e-06
-1.61178e-07
5.42347e-06
-2.26608e-07
5.45856e-06
-2.85606e-07
5.50564e-06
-3.36894e-07
5.56339e-06
-3.79708e-07
5.63086e-06
-4.13782e-07
5.70736e-06
-4.41e-07
5.79217e-06
-4.61051e-07
5.88343e-06
-4.72246e-07
5.97852e-06
-4.73993e-07
6.07731e-06
-4.70623e-07
6.17977e-06
-4.63423e-07
6.28582e-06
-4.52935e-07