/*--------------------------------*- C++ -*----------------------------------*\
| =========                 |                                                 |
| \\      /  F ield         | OpenFOAM: The Open Source CFD Toolbox           |
|  \\    /   O peration     | Version:  2206                                  |
|   \\  /    A nd           | Website:  www.openfoam.com                      |
|    \\/     M anipulation  |                                                 |
\*---------------------------------------------------------------------------*/
FoamFile
{
    version     2.0;
    format      ascii;
    arch        "LSB;label=32;scalar=64";
    class       surfaceScalarField;
    location    "18.6";
    object      ddtCorrDdt0(phi);
}
// * * * * * * * * * * * * * * * * * * * * * * * * * * * * * * * * * * * * * //

dimensions      [0 3 -2 0 0 0 0];

oriented        oriented;

internalField   nonuniform List<scalar> 
5918
(
-0.000131056
0.000101075
2.9981e-05
-0.000257703
-0.000151451
0.000278097
-0.00023691
-0.000550103
0.00052931
6.54344e-06
-0.000847072
0.000603618
0.000294709
-0.000760713
0.000472547
0.000490263
-0.000472104
0.000276551
0.000611842
-0.000219618
9.80384e-05
0.000687018
-2.75033e-05
-4.76732e-05
0.000733331
0.000134356
-0.000180669
0.000727295
0.000304962
-0.000298926
0.000735391
0.000407669
-0.000415766
0.000902139
0.000352104
-0.000518851
0.00124425
0.000179319
-0.000521433
0.00141761
0.000199267
-0.00037263
0.00115154
0.000544036
-0.000277963
0.000615489
0.00100414
-0.000468088
0.000110626
0.00133257
-0.000827706
-0.000202819
0.00144773
-0.00113428
-0.000328922
0.00135545
-0.00122935
-0.000330586
0.00118006
-0.0011784
-0.000289842
0.000991356
-0.0010321
-0.000217257
0.000821443
-0.000894028
-0.000136316
0.000683486
-0.000764427
-7.03295e-05
0.000582096
-0.000648083
-4.66805e-05
0.000500253
-0.000523902
-9.77156e-05
0.000391159
-0.000340124
-0.000257832
0.00018516
-2.50437e-05
-0.0005111
-0.000192407
0.000445676
-0.000762197
-0.00078956
0.00104066
-0.000975426
-0.00143335
0.00164658
-0.00109155
-0.00198179
0.00209792
-0.00103818
-0.00227644
0.00222307
-0.000868326
-0.00223244
0.00206259
-0.000641211
-0.00197823
0.00175111
-0.000401453
-0.00161704
0.00137729
-0.000181896
-0.00122844
0.00100889
-2.29427e-07
-0.000866518
0.000684851
0.000148486
-0.00056024
0.000411526
0.000270884
-0.000309109
0.000186711
0.000355633
-0.00010588
2.11305e-05
0.000400263
3.30807e-05
-7.77107e-05
0.000420169
0.000108347
-0.000128253
0.000426418
0.000142133
-0.000148382
0.000427411
0.000152063
-0.000153056
0.000429793
0.000149621
-0.000152003
0.000439587
0.000136744
-0.000146537
0.000462468
0.000108597
-0.000131479
0.000498401
6.55123e-05
-0.000101445
0.000537121
2.25804e-05
-6.13012e-05
0.000560694
9.80902e-06
-3.33814e-05
0.000552959
5.81228e-05
-5.03877e-05
0.000504592
0.00018342
-0.000135053
0.000418685
0.000375819
-0.000289913
0.000307819
0.000602702
-0.000491836
0.000186008
0.000822764
-0.000700953
6.28126e-05
0.000997605
-0.000874409
-4.9661e-05
0.0011037
-0.000991224
-0.000137366
0.00112761
-0.0010399
-0.000206076
0.00108392
-0.00101521
-0.000255935
0.00099754
-0.000947682
-0.000286751
0.000882497
-0.00085168
-0.000299515
0.000753424
-0.000740661
-0.000296799
0.000623489
-0.000626204
-0.000282273
0.000503397
-0.000517923
-0.000260078
0.000400002
-0.000422197
-0.000234218
0.000315683
-0.000341544
-0.000207743
0.000248637
-0.000275112
-0.000183003
0.000194308
-0.000219048
-0.000163514
0.000147215
-0.000166704
-0.000154792
9.86847e-05
-0.000107407
-0.000159853
2.95331e-05
-2.44717e-05
-0.000168383
-8.18774e-05
9.04076e-05
-0.000179777
-0.000222583
0.000233977
-0.000193565
-0.000384661
0.000398449
-0.000206951
-0.000561543
0.000574929
-0.000217545
-0.000740183
0.000750776
-0.000223247
-0.000904459
0.000910161
-0.000221622
-0.0010368
0.00103517
-0.000207328
-0.00111806
0.00110376
-0.000180648
-0.00112458
0.0010979
-0.000145942
-0.00107846
0.00104376
-0.000105025
-0.000991098
0.000950181
-6.04089e-05
-0.000872804
0.000828188
-1.45568e-05
-0.00073499
0.000689138
3.05493e-05
-0.000588786
0.00054368
7.38946e-05
-0.000444161
0.000400815
-0.000308635
0.000265439
0.000108954
-7.87906e-06
0.000163516
-0.000206014
0.000143269
-0.000529856
0.000137412
-0.000841214
0.000286773
-0.000910075
0.000461686
-0.000647018
0.000589798
-0.000347729
0.000671125
-0.000108831
0.000761456
4.4025e-05
0.000913272
0.000153146
0.00121738
0.000103559
0.00155935
1.01318e-05
0.00157147
0.000167207
0.0011579
0.000612833
0.000582486
0.00111945
8.23518e-05
0.00150428
-0.000256044
0.00167096
-0.000390472
0.00158216
-0.000411408
0.00137639
-0.000369883
0.00113853
-0.000285928
0.0009074
-0.000174179
0.000709694
-5.11949e-05
0.000560501
6.29862e-05
0.000467915
0.000143882
0.000419357
0.000174867
0.000360174
0.000112781
0.000247246
-0.000100964
2.13375e-05
-0.000369939
-0.000520585
-0.000630796
-0.00117249
-0.000845045
-0.00176754
-0.000931323
-0.00219016
-0.000872048
-0.00229172
-0.000729351
-0.00212092
-0.000541157
-0.00180524
-0.000343718
-0.00142588
-0.000162852
-0.00104738
-1.30526e-05
-0.00071004
0.000112913
-0.000435074
0.000222746
-0.000215713
0.00030034
-4.45127e-05
0.000345919
6.27684e-05
0.000370241
0.00011781
0.000383543
0.000138761
0.000395883
0.000137281
0.000416266
0.000116361
0.000448581
7.62822e-05
0.000488405
2.56879e-05
0.000522769
-1.17838e-05
0.000535555
-2.9763e-06
0.000514558
7.91195e-05
0.00045665
0.000241328
0.000367344
0.000465125
0.000256674
0.000713373
0.000136822
0.000942616
1.95049e-05
0.00111492
-8.465e-05
0.00120785
-0.000164951
0.00120791
-0.000226272
0.00114524
-0.000267318
0.00103859
-0.000288479
0.000903658
-0.000291522
0.000756467
-0.000279358
0.000611325
-0.000255604
0.000479642
-0.000224412
0.000368811
-0.000190189
0.00028146
-0.000156854
0.000215302
-0.000126337
0.000163791
-9.93187e-05
0.000120197
-8.05327e-05
7.98987e-05
-8.1559e-05
3.05594e-05
-8.52617e-05
-7.81747e-05
-9.54765e-05
-0.000212368
-0.000111202
-0.000368936
-0.000128859
-0.000543887
-0.00014618
-0.000722862
-0.000161257
-0.000889382
-0.000171849
-0.0010262
-0.000174248
-0.00111566
-0.00016371
-0.00113512
-0.000144886
-0.00109729
-0.000118183
-0.0010178
-8.54226e-05
-0.000905565
-4.88449e-05
-0.000771567
-1.05784e-05
-0.000627053
2.76707e-05
-0.00048241
-0.000346557
0.000138817
-0.000146696
0.000275904
-0.000343101
0.000340182
-0.000594134
0.000361042
-0.000862074
0.000384907
-0.000933939
0.000515497
-0.000777608
0.000667225
-0.000499457
0.000865887
-0.000307493
0.00114775
-0.000237837
0.00149379
-0.000192898
0.00167327
-7.59201e-05
0.00152012
0.000163282
0.00107225
0.000615079
0.000546292
0.00113879
5.51072e-05
0.00161063
-0.000308385
0.00186777
-0.000462593
0.00182517
-0.000495518
0.00161508
-0.000460095
0.00134096
-0.000377278
0.00105572
-0.000263264
0.000793386
-0.000128364
0.000574795
1.9398e-05
0.000412739
0.000163614
0.000323699
0.000272903
0.000310068
0.000329697
0.00030338
0.000343016
0.000233928
0.000249665
0.000114688
4.01126e-06
-0.000274932
-0.000278366
-0.000890114
-0.000550427
-0.00149548
-0.000744539
-0.00199604
-0.00079765
-0.00223861
-0.000745384
-0.00217319
-0.000624397
-0.00192623
-0.000467694
-0.00158259
-0.000304219
-0.00121086
-0.000153925
-0.000860333
-2.87641e-05
-0.000560236
7.94544e-05
-0.000323932
0.000177036
-0.000142094
0.000251158
-1.13536e-05
0.000296675
7.2293e-05
0.0003259
0.000109537
0.000351946
0.000111234
0.000383959
8.43486e-05
0.000423603
3.66386e-05
0.000463844
-1.45536e-05
0.000491762
-3.97012e-05
0.000494604
-5.81826e-06
0.00046443
0.000109293
0.00040081
0.000304949
0.000309165
0.000556769
0.000199345
0.000823193
8.3824e-05
0.00105814
-2.68146e-05
0.00122556
-0.000120689
0.00130173
-0.000192272
0.00127949
-0.00024354
0.00119651
-0.000273559
0.0010686
-0.000283512
0.000913611
-0.000276107
0.000749062
-0.000254652
0.000589871
-0.000222697
0.000447687
-0.000183887
0.000330002
-0.000142099
0.000239672
-0.000101601
0.000174803
-6.59224e-05
0.000128112
-3.6955e-05
9.12296e-05
-1.29301e-05
5.58738e-05
-8.32861e-07
1.84621e-05
-8.01473e-07
-7.82061e-05
-1.22465e-05
-0.000200923
-3.02415e-05
-0.000350941
-5.18294e-05
-0.000522299
-7.50825e-05
-0.000699609
-9.84177e-05
-0.000866046
-0.000119894
-0.00100473
-0.000136263
-0.00109929
-0.000141294
-0.00113009
-0.000138014
-0.00110057
-0.000126075
-0.00102974
-0.000106361
-0.000925279
-8.04239e-05
-0.000797505
-5.01196e-05
-0.000657357
-1.7201e-05
-0.000515328
-0.00038083
0.000127158
-0.000273853
0.000252336
-0.000468279
0.000361699
-0.000703497
0.000473802
-0.000974177
0.000567723
-0.00102786
0.000719653
-0.000929537
0.000946526
-0.00072633
0.00118546
-0.00054643
0.00134918
-0.000401556
0.00136461
-0.00020833
0.00121281
7.5881e-05
0.000867727
0.000508369
0.000448347
0.00103446
-1.73135e-05
0.00160445
-0.000390039
0.00198336
-0.000561162
0.00203889
-0.000592821
0.00185683
-0.00054907
0.00157133
-0.000457029
0.00124892
-0.00033632
0.000935009
-0.000201573
0.000658639
-6.25225e-05
0.000435744
8.66023e-05
0.000263614
0.000243434
0.000166868
0.000388816
0.000164686
0.000478735
0.000213461
0.000498338
0.000214325
0.000474782
0.000138244
0.000319012
-0.000119162
4.25121e-05
-0.000613614
-0.000254362
-0.00119861
-0.000511288
-0.00173912
-0.000663328
-0.00208657
-0.000695205
-0.00214131
-0.000648437
-0.00197299
-0.000545637
-0.00168539
-0.000414572
-0.00134192
-0.000278036
-0.00099687
-0.000150988
-0.000687283
-4.39723e-05
-0.000430947
4.86383e-05
-0.000234705
0.000136498
-9.92131e-05
0.000210022
-1.23125e-06
0.000256504
6.30548e-05
0.000297577
7.01608e-05
0.000340618
4.1308e-05
0.000385146
-7.89018e-06
0.000423386
-5.27933e-05
0.000444703
-6.10181e-05
0.000439751
-8.66216e-07
0.000402992
0.000146052
0.000334817
0.000373124
0.00024193
0.000649657
0.000135536
0.000929587
2.60816e-05
0.00116759
-7.63541e-05
0.001328
-0.000157822
0.0013832
-0.000218236
0.0013399
-0.000256471
0.00123475
-0.000273094
0.00108523
-0.000270255
0.000910772
-0.000251538
0.000730345
-0.000220746
0.000559079
-0.000181307
0.000408248
-0.000136561
0.000285255
-8.96585e-05
0.00019277
-4.54945e-05
0.000130639
-5.99875e-06
8.86164e-05
2.68196e-05
5.84112e-05
5.32952e-05
2.93983e-05
7.6422e-05
-4.66476e-06
7.81426e-05
-7.99267e-05
6.63671e-05
-0.000189147
4.70765e-05
-0.00033165
2.21986e-05
-0.000497421
-6.40383e-06
-0.000671006
-3.72501e-05
-0.0008352
-6.85034e-05
-0.000973475
-9.69483e-05
-0.00107084
-0.000116422
-0.00111062
-0.000127628
-0.00108936
-0.000129734
-0.00102763
-0.000122817
-0.000932196
-0.000107762
-0.000812559
-8.59279e-05
-0.000679192
-5.88051e-05
-0.000542451
-0.000411519
0.000109967
0.000191947
0.000264201
0.000290656
0.00034692
0.000448613
0.000589401
0.000712165
0.000746533
0.000676052
0.000532914
0.000244687
-0.000175296
-0.000526615
-0.000705587
-0.000719204
-0.00065439
-0.000536867
-0.000391294
-0.000238172
-9.62147e-05
3.15991e-05
0.000145798
0.000290719
0.000456129
0.000595888
0.000649297
0.000635157
0.000540437
0.000319671
2.59192e-05
-0.000264929
-0.000489781
-0.000598362
-0.000620318
-0.000576821
-0.000488916
-0.00037758
-0.000261425
-0.000152096
-5.56889e-05
2.39664e-05
0.000105615
0.00017784
0.000235628
0.000288046
0.000334513
0.000368515
0.000383191
0.000372028
0.000328849
0.000256713
0.000165266
6.41651e-05
-3.74816e-05
-0.000129107
-0.000195816
-0.000241045
-0.000263314
-0.000264507
-0.000247925
-0.000217931
-0.000178889
-0.000134014
-8.62334e-05
-3.81434e-05
1.25248e-05
6.20538e-05
0.000101085
0.000127295
0.000146895
0.000149843
0.000139754
0.000119414
9.15483e-05
5.80587e-05
2.05794e-05
-1.89657e-05
-5.76767e-05
-8.97354e-05
-0.000113978
-0.000129073
-0.000134358
-0.000130058
-0.00011709
-9.66279e-05
-0.000562913
-0.000437919
-0.000129318
3.54463e-06
2.49262e-06
1.34033e-06
2.20429e-06
-3.42905e-07
1.68324e-06
-1.25481e-06
9.11898e-07
-1.14099e-06
-1.1381e-07
1.10969e-07
-1.25196e-06
2.53372e-06
-2.42275e-06
5.99536e-06
-3.46164e-06
1.03586e-05
-4.36321e-06
1.51707e-05
-4.8121e-06
1.98221e-05
-4.65145e-06
2.36683e-05
-3.84617e-06
2.61621e-05
-2.49384e-06
2.62332e-05
-7.10835e-08
2.36824e-05
2.55078e-06
1.94099e-05
4.27257e-06
1.43958e-05
5.01406e-06
9.319e-06
5.07681e-06
4.64853e-06
4.67047e-06
7.46644e-07
3.90188e-06
-2.18431e-06
2.93096e-06
-4.16545e-06
1.98113e-06
-5.28242e-06
1.11698e-06
-5.65297e-06
3.70541e-07
-5.41471e-06
-2.38251e-07
-4.62212e-06
-7.92596e-07
-3.40119e-06
-1.22092e-06
-1.97244e-06
-1.42876e-06
-4.44677e-07
-1.52775e-06
1.20067e-06
-1.64535e-06
3.05605e-06
-1.85538e-06
5.23218e-06
-2.17614e-06
7.82465e-06
-2.59246e-06
1.08743e-05
-3.0497e-06
1.4237e-05
-3.36268e-06
1.75176e-05
-3.28062e-06
1.97458e-05
-2.2281e-06
2.08233e-05
-1.0775e-06
1.77867e-05
3.03656e-06
1.03738e-05
7.41288e-06
-2.53021e-07
1.06268e-05
-1.23275e-05
1.20745e-05
1.06241e-05
-2.29516e-05
1.00134e-05
4.14274e-06
8.39345e-06
3.82422e-06
6.88259e-06
3.1941e-06
5.59401e-06
2.20047e-06
4.78389e-06
6.96313e-07
4.43606e-06
-9.04127e-07
4.67877e-06
-2.66545e-06
5.29619e-06
-4.07906e-06
6.49499e-06
-5.56201e-06
8.10765e-06
-6.42476e-06
9.91647e-06
-6.46026e-06
1.17665e-05
-5.69622e-06
1.34727e-05
-4.19998e-06
1.55338e-05
-2.13218e-06
1.76841e-05
4.00482e-07
1.90699e-05
2.88676e-06
1.92531e-05
4.8308e-06
1.81796e-05
6.15035e-06
1.60323e-05
6.8178e-06
1.30519e-05
6.8822e-06
9.5546e-06
6.42829e-06
5.99862e-06
5.53712e-06
2.7905e-06
4.3251e-06
2.70546e-07
2.89049e-06
-1.30926e-06
1.34155e-06
-1.95979e-06
-1.42065e-07
-1.75552e-06
-1.42519e-06
-7.19629e-07
-2.46465e-06
9.94215e-07
-3.2416e-06
3.08748e-06
-3.73862e-06
5.13962e-06
-3.90751e-06
6.64382e-06
-3.68034e-06
7.1105e-06
-3.05914e-06
6.11663e-06
-2.05583e-06
3.3502e-06
-5.96243e-07
-1.40619e-06
1.47576e-06
-7.91073e-06
4.27644e-06
-1.64692e-05
7.48094e-06
-2.44354e-05
1.10028e-05
-3.10757e-05
1.40532e-05
-3.62868e-05
1.5838e-05
-4.01249e-05
1.59125e-05
1.43352e-05
-4.3836e-05
1.28803e-05
5.38898e-06
1.14945e-05
5.21004e-06
1.00492e-05
4.63937e-06
8.65103e-06
3.59868e-06
7.39212e-06
1.95522e-06
6.34869e-06
1.39302e-07
5.57688e-06
-1.89364e-06
5.10916e-06
-3.61135e-06
4.95e-06
-5.40284e-06
5.11527e-06
-6.59003e-06
5.62011e-06
-6.96511e-06
6.46782e-06
-6.54394e-06
7.64972e-06
-5.38188e-06
9.14961e-06
-3.63207e-06
1.08927e-05
-1.34264e-06
1.2698e-05
1.08147e-06
1.42543e-05
3.27454e-06
1.53693e-05
5.03534e-06
1.59202e-05
6.26694e-06
1.58764e-05
6.92592e-06
1.52878e-05
7.01698e-06
1.42471e-05
6.57776e-06
1.28939e-05
5.67835e-06
1.13428e-05
4.44161e-06
9.6984e-06
2.98591e-06
8.12528e-06
1.43105e-06
6.74491e-06
-4.48134e-08
5.5882e-06
-1.30794e-06
4.6541e-06
-2.30749e-06
3.88844e-06
-2.97295e-06
3.1894e-06
-3.20848e-06
2.43499e-06
-2.92592e-06
1.42666e-06
-2.05081e-06
-1.07837e-07
-5.21336e-07
-2.43294e-06
1.72886e-06
-5.70022e-06
4.74304e-06
-9.86074e-06
8.43695e-06
-1.485e-05
1.24703e-05
-2.02262e-05
1.63789e-05
-2.57073e-05
1.95343e-05
-3.11632e-05
2.12938e-05
-3.65848e-05
2.13342e-05
1.97774e-05
-4.20271e-05
1.382e-05
6.74257e-06
1.22543e-05
6.7758e-06
1.06317e-05
6.26193e-06
9.10215e-06
5.12822e-06
7.63157e-06
3.4258e-06
6.4081e-06
1.36277e-06
5.40788e-06
-8.93421e-07
4.87645e-06
-3.07992e-06
4.55003e-06
-5.07642e-06
4.5188e-06
-6.55881e-06
4.88181e-06
-7.32811e-06
5.63647e-06
-7.2986e-06
6.74338e-06
-6.48879e-06
8.09005e-06
-4.97874e-06
9.66127e-06
-2.91387e-06
1.13321e-05
-5.89351e-07
1.29116e-05
1.69503e-06
1.42424e-05
3.70451e-06
1.52152e-05
5.29422e-06
1.57708e-05
6.37029e-06
1.58935e-05
6.89427e-06
1.56203e-05
6.851e-06
1.5038e-05
6.26062e-06
1.4193e-05
5.2866e-06
1.31934e-05
3.98553e-06
1.20878e-05
2.53665e-06
1.08841e-05
1.15883e-06
9.66145e-06
-8.52602e-08
8.48999e-06
-1.13603e-06
7.38926e-06
-1.87223e-06
6.34415e-06
-2.16337e-06
5.33597e-06
-1.91775e-06
4.35308e-06
-1.06792e-06
3.38901e-06
4.42734e-07
2.46113e-06
2.65674e-06
1.64499e-06
5.55918e-06
1.06448e-06
9.01745e-06
7.77759e-07
1.2757e-05
7.70275e-07
1.63864e-05
8.77993e-07
1.94266e-05
7.55316e-07
2.14165e-05
-1.62448e-08
2.21058e-05
2.15474e-05
-1.78624e-06
1.42941e-05
8.54173e-06
1.21769e-05
8.89297e-06
9.98639e-06
8.45249e-06
7.96882e-06
7.14579e-06
6.20843e-06
5.18619e-06
4.82977e-06
2.74143e-06
3.88656e-06
4.9791e-08
3.44409e-06
-2.63745e-06
3.43728e-06
-5.06961e-06
3.86722e-06
-6.98874e-06
4.79146e-06
-8.25235e-06
6.07e-06
-8.57714e-06
7.58813e-06
-8.00692e-06
9.2207e-06
-6.61131e-06
1.08493e-05
-4.54251e-06
1.24033e-05
-2.14328e-06
1.37559e-05
3.42405e-07
1.48078e-05
2.65259e-06
1.54973e-05
4.60472e-06
1.58089e-05
6.05874e-06
1.57554e-05
6.94771e-06
1.53497e-05
7.25677e-06
1.47091e-05
6.90114e-06
1.38404e-05
6.1553e-06
1.29423e-05
4.88365e-06
1.20099e-05
3.46907e-06
1.10296e-05
2.13914e-06
1.01155e-05
8.28826e-07
9.33911e-06
-3.59639e-07
8.72059e-06
-1.25371e-06
8.24999e-06
-1.69277e-06
7.93333e-06
-1.60109e-06
7.81108e-06
-9.45665e-07
7.9253e-06
3.28513e-07
8.34349e-06
2.23854e-06
9.18912e-06
4.71355e-06
1.05664e-05
7.64021e-06
1.25096e-05
1.08138e-05
1.49531e-05
1.39428e-05
1.76842e-05
1.66954e-05
2.03256e-05
1.87752e-05
2.241e-05
2.00214e-05
2.04684e-05
2.3489e-05
1.46972e-05
1.07606e-05
1.21303e-05
1.14599e-05
9.3626e-06
1.12202e-05
6.77339e-06
9.735e-06
4.51558e-06
7.444e-06
2.79513e-06
4.46188e-06
1.72861e-06
1.11632e-06
1.37534e-06
-2.28419e-06
1.72624e-06
-5.42051e-06
2.69454e-06
-7.95703e-06
4.1957e-06
-9.75352e-06
6.07455e-06
-1.0456e-05
8.10361e-06
-1.0036e-05
1.00872e-05
-8.59487e-06
1.19207e-05
-6.37607e-06
1.3547e-05
-3.76957e-06
1.48429e-05
-9.53491e-07
1.57305e-05
1.76503e-06
1.61966e-05
4.13857e-06
1.62638e-05
5.99156e-06
1.60521e-05
7.15937e-06
1.54635e-05
7.84536e-06
1.46282e-05
7.73644e-06
1.37546e-05
7.02889e-06
1.26725e-05
5.96581e-06
1.15782e-05
4.56337e-06
1.07201e-05
2.99726e-06
1.00584e-05
1.49047e-06
9.59921e-06
9.95604e-08
9.35906e-06
-1.01355e-06
9.34732e-06
-1.68103e-06
9.61246e-06
-1.86623e-06
1.01609e-05
-1.49413e-06
1.10484e-05
-5.58974e-07
1.23728e-05
9.14143e-07
1.42016e-05
2.88477e-06
1.65959e-05
5.24593e-06
1.95727e-05
7.83696e-06
2.30585e-05
1.0457e-05
2.686e-05
1.28939e-05
3.06634e-05
1.49718e-05
3.40774e-05
1.66073e-05
1.78412e-05
3.67047e-05
1.49676e-05
1.37435e-05
1.16506e-05
1.47768e-05
8.02943e-06
1.48414e-05
4.65331e-06
1.31111e-05
1.77954e-06
1.03178e-05
-3.1349e-07
6.55491e-06
-1.4483e-06
2.25112e-06
-1.558e-06
-2.17449e-06
-6.59099e-07
-6.31942e-06
1.11865e-06
-9.73478e-06
3.49249e-06
-1.21274e-05
6.31981e-06
-1.32833e-05
9.17965e-06
-1.28958e-05
1.18084e-05
-1.12236e-05
1.4028e-05
-8.59572e-06
1.56917e-05
-5.43328e-06
1.67886e-05
-2.05031e-06
1.73246e-05
1.22904e-06
1.73433e-05
4.11985e-06
1.68593e-05
6.47557e-06
1.59607e-05
8.05791e-06
1.49645e-05
8.84159e-06
1.37938e-05
8.90713e-06
1.24486e-05
8.37407e-06
1.13034e-05
7.11107e-06
1.04981e-05
5.36869e-06
9.81149e-06
3.68383e-06
9.39758e-06
1.90438e-06
9.24218e-06
2.5496e-07
9.37121e-06
-1.14258e-06
9.85277e-06
-2.1626e-06
1.065e-05
-2.66343e-06
1.17848e-05
-2.62894e-06
1.32883e-05
-2.06249e-06
1.52008e-05
-9.9834e-07
1.75817e-05
5.03839e-07
2.04746e-05
2.35303e-06
2.38844e-05
4.4272e-06
2.77523e-05
6.58907e-06
3.19365e-05
8.70972e-06
3.6208e-05
1.07003e-05
4.02711e-05
1.25442e-05
1.43153e-05
4.37969e-05
1.54074e-05
1.77825e-05
1.10821e-05
1.9102e-05
6.42219e-06
1.95013e-05
1.96035e-06
1.75729e-05
-1.77058e-06
1.40487e-05
-4.38916e-06
9.17348e-06
-5.6433e-06
3.50525e-06
-5.45542e-06
-2.36237e-06
-3.86564e-06
-7.9092e-06
-1.05773e-06
-1.25427e-05
2.60927e-06
-1.57944e-05
6.71311e-06
-1.73872e-05
1.08007e-05
-1.69834e-05
1.43784e-05
-1.48013e-05
1.72036e-05
-1.14209e-05
1.91195e-05
-7.34923e-06
2.01035e-05
-3.03432e-06
2.02155e-05
1.11705e-06
1.9593e-05
4.74237e-06
1.8408e-05
7.66054e-06
1.67338e-05
9.73211e-06
1.48561e-05
1.07193e-05
1.3143e-05
1.06202e-05
1.1434e-05
1.00831e-05
9.74233e-06
8.80269e-06
8.78911e-06
6.3219e-06
8.26443e-06
4.20851e-06
7.96824e-06
2.20057e-06
8.14286e-06
8.03406e-08
8.73975e-06
-1.73947e-06
9.69269e-06
-3.11553e-06
1.09958e-05
-3.96656e-06
1.26318e-05
-4.26489e-06
1.4608e-05
-4.03868e-06
1.69501e-05
-3.34051e-06
1.96915e-05
-2.23753e-06
2.28594e-05
-8.14858e-07
2.64597e-05
8.26919e-07
3.04603e-05
2.58845e-06
3.47751e-05
4.39489e-06
3.92554e-05
6.21996e-06
4.36935e-05
8.10617e-06
1.01762e-05
4.78326e-05
1.6108e-05
2.32839e-05
1.0349e-05
2.4861e-05
4.34947e-06
2.55009e-05
-1.55318e-06
2.34756e-05
-6.43116e-06
1.89267e-05
-9.75729e-06
1.24996e-05
-1.12089e-05
4.95688e-06
-1.0638e-05
-2.93329e-06
-8.14576e-06
-1.04014e-05
-4.02112e-06
-1.66673e-05
1.33336e-06
-2.11488e-05
7.18099e-06
-2.32348e-05
1.28872e-05
-2.26897e-05
1.7652e-05
-1.9566e-05
2.12076e-05
-1.49765e-05
2.34032e-05
-9.54486e-06
2.42529e-05
-3.88397e-06
2.38908e-05
1.4791e-06
2.25308e-05
6.1024e-06
2.05028e-05
9.68849e-06
1.79654e-05
1.22695e-05
1.50517e-05
1.36331e-05
1.24208e-05
1.32511e-05
1.03388e-05
1.21651e-05
8.10357e-06
1.10379e-05
6.43561e-06
7.98986e-06
6.08078e-06
4.56334e-06
5.99027e-06
2.29108e-06
6.47388e-06
-4.03275e-07
7.47332e-06
-2.7389e-06
8.9087e-06
-4.55091e-06
1.07118e-05
-5.76968e-06
1.28266e-05
-6.3797e-06
1.52327e-05
-6.44479e-06
1.79401e-05
-6.04787e-06
2.09699e-05
-5.2673e-06
2.43421e-05
-4.18707e-06
2.8071e-05
-2.902e-06
3.21571e-05
-1.49769e-06
3.65716e-05
-1.95481e-08
4.12401e-05
1.55145e-06
4.60333e-05
3.31297e-06
5.44894e-06
5.07605e-05
1.70981e-05
3.08739e-05
9.33528e-06
3.26238e-05
1.92358e-06
3.29126e-05
-5.81748e-06
3.12166e-05
-1.25466e-05
2.56558e-05
-1.6994e-05
1.6947e-05
-1.88736e-05
6.83652e-06
-1.78428e-05
-3.96413e-06
-1.41743e-05
-1.407e-05
-8.25846e-06
-2.25831e-05
-4.5277e-07
-2.89545e-05
7.95053e-06
-3.16381e-05
1.56983e-05
-3.04374e-05
2.19782e-05
-2.58459e-05
2.64364e-05
-1.94347e-05
2.89189e-05
-1.20274e-05
2.9521e-05
-4.48603e-06
2.84916e-05
2.50847e-06
2.615e-05
8.44401e-06
2.29569e-05
1.28817e-05
1.93069e-05
1.59194e-05
1.53256e-05
1.76144e-05
1.15041e-05
1.70727e-05
8.46158e-06
1.52076e-05
5.9705e-06
1.3529e-05
4.20844e-06
9.75192e-06
3.44955e-06
5.32223e-06
3.47955e-06
2.26109e-06
4.28904e-06
-1.21277e-06
5.7576e-06
-4.20746e-06
7.73595e-06
-6.52926e-06
1.00755e-05
-8.1092e-06
1.26727e-05
-8.97697e-06
1.54897e-05
-9.26174e-06
1.85357e-05
-9.09385e-06
2.1832e-05
-8.5636e-06
2.54024e-05
-7.75746e-06
2.92781e-05
-6.77776e-06
3.34944e-05
-5.71397e-06
3.8076e-05
-4.6012e-06
4.30201e-05
-3.39266e-06
4.82766e-05
-1.94352e-06
-1.86753e-09
5.37274e-05
1.95364e-05
4.10171e-05
7.75233e-06
4.44079e-05
-3.17505e-06
4.38399e-05
-1.27572e-05
4.07988e-05
-2.0843e-05
3.37416e-05
-2.65567e-05
2.26607e-05
-2.89871e-05
9.26692e-06
-2.72994e-05
-5.65176e-06
-2.22459e-05
-1.91235e-05
-1.41258e-05
-3.07032e-05
-2.84301e-06
-4.02373e-05
9.25731e-06
-4.37384e-05
1.9755e-05
-4.09351e-05
2.79142e-05
-3.40051e-05
3.336e-05
-2.48806e-05
3.60158e-05
-1.46832e-05
3.61626e-05
-4.63283e-06
3.4193e-05
4.47811e-06
3.05469e-05
1.20901e-05
2.58443e-05
1.75843e-05
2.06267e-05
2.1137e-05
1.53061e-05
2.2935e-05
1.03511e-05
2.20277e-05
5.92857e-06
1.96301e-05
2.77884e-06
1.66787e-05
1.11563e-06
1.14151e-05
2.7178e-08
6.41068e-06
2.62326e-07
2.02594e-06
1.51168e-06
-2.46212e-06
3.61861e-06
-6.3144e-06
6.34252e-06
-9.25316e-06
9.3984e-06
-1.11651e-05
1.259e-05
-1.21685e-05
1.58621e-05
-1.25338e-05
1.92355e-05
-1.24673e-05
2.27351e-05
-1.20632e-05
2.63923e-05
-1.14147e-05
3.02767e-05
-1.06621e-05
3.44954e-05
-9.93265e-06
3.9163e-05
-9.26882e-06
4.43738e-05
-8.60349e-06
5.01792e-05
-7.74893e-06
-6.38446e-06
5.65618e-05
2.32308e-05
5.415e-05
8.71998e-06
5.89187e-05
-6.65008e-06
5.921e-05
-2.03706e-05
5.45193e-05
-3.23587e-05
4.57297e-05
-4.07062e-05
3.10082e-05
-4.39003e-05
1.24611e-05
-4.04805e-05
-9.07159e-06
-3.38313e-05
-2.57727e-05
-2.22001e-05
-4.23344e-05
-5.17486e-06
-5.72626e-05
1.18102e-05
-6.07234e-05
2.63631e-05
-5.54881e-05
3.72164e-05
-4.48584e-05
4.3771e-05
-3.14352e-05
4.62628e-05
-1.7175e-05
4.5477e-05
-3.84707e-06
4.19411e-05
8.01406e-06
3.63314e-05
1.76998e-05
2.94807e-05
2.4435e-05
2.20929e-05
2.85248e-05
1.48765e-05
3.01514e-05
8.25222e-06
2.8652e-05
2.55089e-06
2.53315e-05
-1.28916e-06
2.05188e-05
-3.76324e-06
1.38892e-05
-4.92134e-06
7.56879e-06
-4.34122e-06
1.44581e-06
-2.387e-06
-4.41634e-06
7.3524e-07
-9.43664e-06
4.53421e-06
-1.30521e-05
8.46315e-06
-1.5094e-05
1.22395e-05
-1.59448e-05
1.59018e-05
-1.61962e-05
1.9571e-05
-1.61365e-05
2.32949e-05
-1.57871e-05
2.70798e-05
-1.51996e-05
3.09924e-05
-1.45747e-05
3.51904e-05
-1.41307e-05
3.98879e-05
-1.39663e-05
4.53064e-05
-1.4022e-05
5.1642e-05
-1.40845e-05
-1.38134e-05
5.9071e-05
2.90821e-05
6.93422e-05
1.01073e-05
7.78935e-05
-1.05676e-05
7.98849e-05
-2.75977e-05
7.15495e-05
-4.27498e-05
6.08817e-05
-5.57875e-05
4.40459e-05
-6.20042e-05
1.86777e-05
-6.21999e-05
-8.87592e-06
-5.01679e-05
-3.78047e-05
-2.96685e-05
-6.28339e-05
-8.39463e-06
-7.85364e-05
1.46783e-05
-8.37964e-05
3.4375e-05
-7.51848e-05
4.82429e-05
-5.87263e-05
5.63351e-05
-3.95273e-05
5.89066e-05
-1.97465e-05
5.72204e-05
-2.16086e-06
5.18872e-05
1.33472e-05
4.38638e-05
2.57232e-05
3.43165e-05
3.39823e-05
2.42469e-05
3.85943e-05
1.45537e-05
3.98447e-05
5.74405e-06
3.74616e-05
-1.51601e-06
3.25915e-05
-6.54671e-06
2.55495e-05
-9.82618e-06
1.71687e-05
-1.07238e-05
8.46645e-06
-9.73308e-06
4.55065e-07
-7.06455e-06
-7.08487e-06
-3.17865e-06
-1.33225e-05
1.37292e-06
-1.76037e-05
6.15993e-06
-1.9881e-05
1.08889e-05
-2.06738e-05
1.54409e-05
-2.07482e-05
1.96854e-05
-2.0381e-05
2.3586e-05
-1.96878e-05
2.72746e-05
-1.88881e-05
3.10347e-05
-1.83348e-05
3.51386e-05
-1.82345e-05
3.98507e-05
-1.86785e-05
4.54853e-05
-1.96566e-05
5.23868e-05
-2.0986e-05
-2.24354e-05
6.10087e-05
3.23578e-05
8.7545e-05
1.05314e-05
9.97199e-05
-1.42344e-05
0.000104651
-4.30772e-05
0.000100392
-6.71478e-05
8.49524e-05
-7.95773e-05
5.64754e-05
-8.24765e-05
2.15769e-05
-7.39613e-05
-1.73911e-05
-5.62012e-05
-5.55647e-05
-3.08544e-05
-8.81807e-05
-4.13616e-06
-0.000105255
1.89328e-05
-0.000106865
4.35413e-05
-9.97933e-05
6.24468e-05
-7.76318e-05
6.95547e-05
-4.66352e-05
7.14419e-05
-2.16337e-05
6.83679e-05
9.13107e-07
6.07831e-05
2.09321e-05
5.01135e-05
3.63928e-05
3.77586e-05
4.63372e-05
2.48511e-05
5.15019e-05
1.26285e-05
5.20672e-05
1.59079e-06
4.84993e-05
-7.52943e-06
4.17118e-05
-1.32176e-05
3.12377e-05
-1.66507e-05
2.06018e-05
-1.81598e-05
9.97557e-06
-1.68189e-05
-8.8587e-07
-1.32803e-05
-1.06235e-05
-8.04092e-06
-1.85619e-05
-1.29646e-06
-2.43482e-05
6.56071e-06
-2.77382e-05
1.45808e-05
-2.86939e-05
2.14968e-05
-2.76641e-05
2.66453e-05
-2.55295e-05
3.01119e-05
-2.31545e-05
3.2423e-05
-2.11991e-05
3.42334e-05
-2.01452e-05
3.62589e-05
-2.02601e-05
3.94886e-05
-2.19081e-05
4.40362e-05
-2.42042e-05
5.07642e-05
-2.7714e-05
-3.23716e-05
6.07004e-05
4.12665e-05
0.000103821
1.93705e-05
0.000121616
-4.17994e-06
0.000128201
-3.00853e-05
0.000126298
-5.96015e-05
0.000114469
-8.13011e-05
7.8175e-05
-9.23736e-05
3.26494e-05
-8.92311e-05
-2.05337e-05
-7.19161e-05
-7.28798e-05
-3.8141e-05
-0.000121956
5.43377e-06
-0.000148829
4.02807e-05
-0.000141712
6.5834e-05
-0.000125347
8.35278e-05
-9.53255e-05
8.37183e-05
-4.68258e-05
8.47497e-05
-2.26651e-05
8.0143e-05
5.51982e-06
6.92266e-05
3.18484e-05
5.51757e-05
5.04437e-05
3.97523e-05
6.17607e-05
2.37336e-05
6.75205e-05
8.85522e-06
6.69456e-05
-4.30624e-06
6.16607e-05
-1.45725e-05
5.1978e-05
-2.22515e-05
3.89167e-05
-2.63045e-05
2.46547e-05
-2.60725e-05
9.74361e-06
-2.23551e-05
-4.60334e-06
-1.61978e-05
-1.67807e-05
-8.77176e-06
-2.5988e-05
-6.19974e-07
-3.24999e-05
7.5911e-06
-3.59493e-05
1.5151e-05
-3.62539e-05
2.13939e-05
-3.3907e-05
2.5964e-05
-3.00996e-05
2.88792e-05
-2.60697e-05
3.05867e-05
-2.29067e-05
3.16924e-05
-2.12508e-05
3.29327e-05
-2.15005e-05
3.46553e-05
-2.36307e-05
3.91657e-05
-2.87146e-05
4.65222e-05
-3.50705e-05
-4.20381e-05
5.61887e-05
5.11261e-05
0.000107682
3.77725e-05
0.000134969
1.38501e-05
0.000152124
-6.38972e-06
0.000146537
-1.72915e-05
0.00012537
-3.01391e-05
9.10226e-05
-4.05153e-05
4.30256e-05
-4.43971e-05
-1.66518e-05
-3.83674e-05
-7.89094e-05
-1.84885e-05
-0.000141835
1.79041e-05
-0.000185222
5.62814e-05
-0.00018009
8.18002e-05
-0.000150865
9.62491e-05
-0.000109774
9.48141e-05
-4.53908e-05
8.80184e-05
-1.58694e-05
8.18892e-05
1.1649e-05
6.88936e-05
4.48441e-05
5.38143e-05
6.5523e-05
3.74642e-05
7.81108e-05
2.04439e-05
8.45408e-05
4.50651e-06
8.2883e-05
-9.18734e-06
7.53546e-05
-1.99418e-05
6.27324e-05
-2.77192e-05
4.66941e-05
-3.16724e-05
2.8608e-05
-3.16851e-05
9.75631e-06
-2.81081e-05
-8.18038e-06
-2.13626e-05
-2.35262e-05
-1.25264e-05
-3.48242e-05
-2.83953e-06
-4.21868e-05
6.41422e-06
-4.5203e-05
1.41326e-05
-4.39722e-05
2.00955e-05
-3.98699e-05
2.43408e-05
-3.43449e-05
2.68709e-05
-2.85998e-05
2.7947e-05
-2.39828e-05
2.80701e-05
-2.13739e-05
2.80105e-05
-2.14408e-05
2.90181e-05
-2.46383e-05
3.16181e-05
-3.13145e-05
3.8458e-05
-4.19104e-05
-5.49424e-05
5.13623e-05
7.95895e-05
6.88461e-05
0.00011657
9.79889e-05
0.000134726
0.000133967
0.000131775
0.000149488
0.000108718
0.000148428
9.08542e-05
0.000108887
7.63887e-05
5.74911e-05
4.56334e-05
1.41035e-05
1.87802e-05
-5.20563e-05
9.28699e-06
-0.000132341
1.2465e-05
-0.0001884
2.95031e-05
-0.000197128
4.58239e-05
-0.000167186
4.84387e-05
-0.000112389
4.7414e-05
-4.4366e-05
4.06304e-05
-9.08585e-06
3.34783e-05
1.8801e-05
2.58051e-05
5.25173e-05
1.70294e-05
7.42987e-05
7.32642e-06
8.78137e-05
-2.25797e-06
9.41252e-05
-1.13328e-05
9.19579e-05
-1.92487e-05
8.32704e-05
-2.53635e-05
6.88472e-05
-2.89144e-05
5.0245e-05
-2.96201e-05
2.93137e-05
-2.7543e-05
7.67916e-06
-2.27342e-05
-1.29891e-05
-1.58392e-05
-3.04212e-05
-7.7652e-06
-4.28982e-05
2.49496e-07
-5.02015e-05
7.50112e-06
-5.24547e-05
1.34693e-05
-4.99404e-05
1.76976e-05
-4.40982e-05
2.0243e-05
-3.68903e-05
2.1376e-05
-2.97328e-05
2.1208e-05
-2.38147e-05
1.99679e-05
-2.01339e-05
1.81465e-05
-1.96194e-05
1.66764e-05
-2.31682e-05
1.68118e-05
-3.14499e-05
2.06395e-05
-4.57381e-05
-6.69037e-05
3.26008e-05
5.54238e-05
5.90049e-05
5.19373e-05
0.000101475
4.22325e-05
0.000143672
3.7829e-05
0.000153892
3.9895e-05
0.000146361
4.48187e-05
0.000103963
6.36242e-05
3.86856e-05
6.65447e-05
1.11831e-05
6.75704e-05
-5.3082e-05
6.38942e-05
-0.000128665
4.22012e-05
-0.000166707
1.46849e-05
-0.000169611
-1.14208e-05
-0.000141081
-3.06937e-05
-9.31162e-05
-3.63702e-05
-3.86895e-05
-4.34354e-05
-2.02066e-06
-5.00896e-05
2.54552e-05
-4.89535e-05
5.13812e-05
-4.47512e-05
7.00964e-05
-3.86918e-05
8.17543e-05
-3.15128e-05
8.69462e-05