/*--------------------------------*- C++ -*----------------------------------*\
| =========                 |                                                 |
| \\      /  F ield         | OpenFOAM: The Open Source CFD Toolbox           |
|  \\    /   O peration     | Version:  2206                                  |
|   \\  /    A nd           | Website:  www.openfoam.com                      |
|    \\/     M anipulation  |                                                 |
\*---------------------------------------------------------------------------*/
FoamFile
{
    version     2.0;
    format      ascii;
    arch        "LSB;label=32;scalar=64";
    class       surfaceScalarField;
    location    "19.5999";
    object      ddtCorrDdt0(phi);
}
// * * * * * * * * * * * * * * * * * * * * * * * * * * * * * * * * * * * * * //

dimensions      [0 3 -2 0 0 0 0];

oriented        oriented;

internalField   nonuniform List<scalar> 
5923
(
1.09615e-10
5.46349e-09
-5.57319e-09
4.64911e-10
1.65618e-08
-1.69172e-08
1.08765e-09
2.71801e-08
-2.78029e-08
1.95261e-09
3.69515e-08
-3.78165e-08
3.02145e-09
4.56301e-08
-4.6699e-08
4.26246e-09
5.3042e-08
-5.4283e-08
5.64571e-09
5.90625e-08
-6.04458e-08
7.14071e-09
6.36091e-08
-6.5104e-08
8.715e-09
6.66385e-08
-6.82127e-08
1.03353e-08
6.81418e-08
-6.9762e-08
1.19676e-08
6.81441e-08
-6.97764e-08
1.35794e-08
6.6705e-08
-6.83167e-08
1.51393e-08
6.39267e-08
-6.54865e-08
1.66193e-08
5.99567e-08
-6.14366e-08
1.79945e-08
5.49876e-08
-5.63627e-08
1.92455e-08
4.92483e-08
-5.04991e-08
2.03583e-08
4.29934e-08
-4.41061e-08
2.13262e-08
3.64925e-08
-3.74602e-08
2.21475e-08
3.0019e-08
-3.08402e-08
2.28265e-08
2.38441e-08
-2.4523e-08
2.33754e-08
1.82262e-08
-1.8775e-08
2.38131e-08
1.34069e-08
-1.38446e-08
2.41626e-08
9.60226e-09
-9.95166e-09
2.445e-08
7.0017e-09
-7.28912e-09
2.47082e-08
5.76095e-09
-6.01929e-09
2.49751e-08
6.00267e-09
-6.26953e-09
2.52881e-08
7.81621e-09
-8.12916e-09
2.56841e-08
1.12504e-08
-1.16464e-08
2.62093e-08
1.63372e-08
-1.68624e-08
2.69011e-08
2.30474e-08
-2.37391e-08
2.7802e-08
3.13278e-08
-3.22287e-08
2.89447e-08
4.10969e-08
-4.22394e-08
3.0376e-08
5.22199e-08
-5.3651e-08
3.21135e-08
6.45748e-08
-6.63121e-08
3.4202e-08
7.79673e-08
-8.00557e-08
3.66552e-08
9.22543e-08
-9.47074e-08
3.94919e-08
1.07209e-07
-1.10045e-07
4.27314e-08
1.22692e-07
-1.25931e-07
4.63667e-08
1.38478e-07
-1.42113e-07
5.0442e-08
1.5443e-07
-1.58506e-07
5.48913e-08
1.70404e-07
-1.74853e-07
5.97958e-08
1.86227e-07
-1.91132e-07
6.50612e-08
2.01892e-07
-2.07157e-07
7.07503e-08
2.17207e-07
-2.22896e-07
7.68258e-08
2.32261e-07
-2.38336e-07
8.32478e-08
2.46963e-07
-2.53385e-07
9.01005e-08
2.61367e-07
-2.6822e-07
9.72383e-08
2.75609e-07
-2.82746e-07
1.0482e-07
2.89653e-07
-2.97235e-07
1.12677e-07
3.03825e-07
-3.11682e-07
1.20982e-07
3.18115e-07
-3.2642e-07
1.29539e-07
3.32863e-07
-3.4142e-07
1.38651e-07
3.48236e-07
-3.57348e-07
1.47887e-07
3.64516e-07
-3.73751e-07
1.57787e-07
3.81906e-07
-3.91806e-07
1.67943e-07
4.00862e-07
-4.11018e-07
1.78396e-07
4.21671e-07
-4.32124e-07
1.89611e-07
4.4468e-07
-4.55895e-07
2.01454e-07
4.6991e-07
-4.81753e-07
2.14044e-07
4.9772e-07
-5.1031e-07
2.27434e-07
5.28523e-07
-5.41914e-07
2.41697e-07
5.62478e-07
-5.76741e-07
2.56948e-07
5.99911e-07
-6.15162e-07
2.73325e-07
6.41047e-07
-6.57424e-07
2.90965e-07
6.86093e-07
-7.03733e-07
3.09983e-07
7.35248e-07
-7.54267e-07
3.30492e-07
7.88715e-07
-8.09223e-07
3.52618e-07
8.46694e-07
-8.6882e-07
3.76512e-07
9.09392e-07
-9.33287e-07
4.02356e-07
9.77008e-07
-1.00285e-06
4.30352e-07
1.04973e-06
-1.07773e-06
4.60731e-07
1.12775e-06
-1.15813e-06
4.93745e-07
1.21125e-06
-1.24426e-06
5.29674e-07
1.30044e-06
-1.33637e-06
5.68837e-07
1.39555e-06
-1.43471e-06
6.11594e-07
1.49683e-06
-1.53959e-06
6.58367e-07
1.60459e-06
-1.65136e-06
7.0965e-07
1.71918e-06
-1.77046e-06
7.66031e-07
1.84101e-06
-1.89739e-06
8.28213e-07
1.97059e-06
-2.03277e-06
8.97042e-07
2.10848e-06
-2.17731e-06
9.7355e-07
2.25536e-06
-2.33187e-06
1.05899e-06
2.41203e-06
-2.49747e-06
1.15492e-06
2.57941e-06
-2.67533e-06
1.26324e-06
2.7586e-06
-2.86691e-06
1.3863e-06
2.95088e-06
-3.07394e-06
1.52706e-06
3.15778e-06
-3.29853e-06
1.68921e-06
3.38116e-06
-3.54331e-06
1.8775e-06
3.62328e-06
-3.81158e-06
2.09805e-06
3.88704e-06
-4.10758e-06
2.35876e-06
4.17633e-06
-4.43704e-06
2.67048e-06
4.49629e-06
-4.80801e-06
3.04746e-06
4.85517e-06
-5.23214e-06
3.51244e-06
5.2637e-06
-5.72869e-06
4.09552e-06
5.74324e-06
-6.32632e-06
4.86012e-06
6.32112e-06
-7.08572e-06
5.94782e-06
7.01093e-06
-8.09863e-06
7.74059e-06
7.95383e-06
-9.7466e-06
1.18114e-05
8.30288e-06
-1.23737e-05
8.89277e-06
2.25995e-05
-1.96809e-05
1.3782e-10
5.32556e-09
5.80817e-10
1.61187e-08
1.3142e-09
2.64465e-08
2.31378e-09
3.59518e-08
3.55153e-09
4.43923e-08
4.99617e-09
5.15973e-08
6.61179e-09
5.74468e-08
8.36042e-09
6.18604e-08
1.02033e-08
6.47956e-08
1.21014e-08
6.62436e-08
1.40151e-08
6.62303e-08
1.59059e-08
6.48142e-08
1.77363e-08
6.20963e-08
1.94736e-08
5.82195e-08
2.10878e-08
5.33735e-08
2.25571e-08
4.7779e-08
2.38636e-08
4.16869e-08
2.49998e-08
3.53563e-08
2.59632e-08
2.90557e-08
2.67612e-08
2.30459e-08
2.74055e-08
1.75819e-08
2.79181e-08
1.28942e-08
2.83252e-08
9.19521e-09
2.86612e-08
6.66558e-09
2.89618e-08
5.46032e-09
2.92703e-08
5.69409e-09
2.96311e-08
7.45541e-09
3.00894e-08
1.0792e-08
3.0702e-08
1.57246e-08
3.15063e-08
2.22431e-08
3.25529e-08
3.02812e-08
3.38929e-08
3.9757e-08
3.55606e-08
5.05524e-08
3.76004e-08
6.2535e-08
4.0037e-08
7.55308e-08
4.2912e-08
8.93793e-08
4.62205e-08
1.039e-07
5.0023e-08
1.18889e-07
5.42765e-08
1.34224e-07
5.9037e-08
1.4967e-07
6.42656e-08
1.65175e-07
6.99733e-08
1.80519e-07
7.61743e-08
1.95691e-07
8.28016e-08
2.10579e-07
8.99256e-08
2.25137e-07
9.74568e-08
2.39432e-07
1.05435e-07
2.5339e-07
1.13842e-07
2.67201e-07
1.22657e-07
2.80838e-07
1.31875e-07
2.94607e-07
1.4157e-07
3.0842e-07
1.51572e-07
3.22861e-07
1.62153e-07
3.37655e-07
1.73055e-07
3.53613e-07
1.84477e-07
3.70485e-07
1.96435e-07
3.88904e-07
2.0883e-07
4.09277e-07
2.22028e-07
4.31481e-07
2.35979e-07
4.5596e-07
2.50793e-07
4.82906e-07
2.66515e-07
5.12802e-07
2.83284e-07
5.45709e-07
3.01221e-07
5.81975e-07
3.20456e-07
6.21812e-07
3.41119e-07
6.6543e-07
3.63343e-07
7.13025e-07
3.87269e-07
7.64789e-07
4.13057e-07
8.20906e-07
4.40889e-07
8.8156e-07
4.70973e-07
9.46924e-07
5.03537e-07
1.01717e-06
5.38833e-07
1.09245e-06
5.77141e-07
1.17294e-06
6.18772e-07
1.25881e-06
6.64078e-07
1.35024e-06
7.13459e-07
1.44745e-06
7.6738e-07
1.55067e-06
8.26385e-07
1.66017e-06
8.91114e-07
1.77629e-06
9.62329e-07
1.89937e-06
1.04095e-06
2.02987e-06
1.12807e-06
2.16824e-06
1.22506e-06
2.31504e-06
1.33357e-06
2.4709e-06
1.45564e-06
2.63653e-06
1.59381e-06
2.81271e-06
1.75129e-06
3.00031e-06
1.93215e-06
3.2003e-06
2.14167e-06
3.41377e-06
2.38681e-06
3.64191e-06
2.67698e-06
3.88616e-06
3.0254e-06
4.14788e-06
3.4514e-06
4.42917e-06
3.98477e-06
4.73033e-06
4.675e-06
5.05301e-06
5.60556e-06
5.39056e-06
6.89976e-06
5.71674e-06
8.91791e-06
5.93568e-06
1.06859e-05
6.53485e-06
3.86699e-06
1.57117e-05
1.64906e-10
5.16056e-09
6.72276e-10
1.56112e-08
1.50835e-09
2.56103e-08
2.64789e-09
3.48121e-08
4.05928e-09
4.29807e-08
5.7058e-09
4.99507e-08
7.5484e-09
5.56042e-08
9.54431e-09
5.98644e-08
1.16487e-08
6.26911e-08
1.38157e-08
6.40766e-08
1.60007e-08
6.40454e-08
1.816e-08
6.26548e-08
2.0253e-08
6.00033e-08
2.22412e-08
5.62313e-08
2.40914e-08
5.15232e-08
2.5776e-08
4.60945e-08
2.72754e-08
4.01875e-08
2.85791e-08
3.40526e-08
2.96852e-08
2.79496e-08
3.05998e-08
2.21313e-08
3.13382e-08
1.68435e-08
3.19245e-08
1.23079e-08
3.23902e-08
8.72952e-09
3.27718e-08
6.28391e-09
3.31124e-08
5.11966e-09
3.34599e-08
5.34648e-09
3.38671e-08
7.04821e-09
3.4384e-08
1.02751e-08
3.50715e-08
1.50371e-08
3.59844e-08
2.13302e-08
3.71742e-08
2.90914e-08
3.86966e-08
3.82346e-08
4.05906e-08
4.86586e-08
4.29167e-08
6.0209e-08
4.5688e-08
7.27596e-08
4.89624e-08
8.6105e-08
5.2747e-08
1.00115e-07
5.70643e-08
1.14572e-07
6.19397e-08
1.29349e-07
6.73418e-08
1.44268e-07
7.33337e-08
1.59183e-07
7.98309e-08
1.74022e-07
8.69061e-08
1.88615e-07
9.44903e-08
2.02995e-07
1.02586e-07
2.1704e-07
1.11217e-07
2.30801e-07
1.20299e-07
2.44308e-07
1.29902e-07
2.57598e-07
1.3995e-07
2.70789e-07
1.50511e-07
2.84046e-07
1.61462e-07
2.97469e-07
1.73046e-07
3.11277e-07
1.84924e-07
3.25778e-07
1.97514e-07
3.41023e-07
2.10538e-07
3.57461e-07
2.24119e-07
3.75322e-07
2.38503e-07
3.94893e-07
2.53664e-07
4.1632e-07
2.69679e-07
4.39944e-07
2.86624e-07
4.65961e-07
3.04644e-07
4.94782e-07
3.23831e-07
5.26522e-07
3.44323e-07
5.61483e-07
3.66257e-07
5.99878e-07
3.89781e-07
6.41906e-07
4.1505e-07
6.87755e-07
4.42236e-07
7.37603e-07
4.71523e-07
7.91619e-07
5.03117e-07
8.49967e-07
5.37242e-07
9.12799e-07
5.74148e-07
9.80263e-07
6.14106e-07
1.05249e-06
6.57417e-07
1.12963e-06
7.04413e-07
1.21181e-06
7.55467e-07
1.29919e-06
8.11004e-07
1.39191e-06
8.71515e-07
1.49016e-06
9.3757e-07
1.59412e-06
1.00984e-06
1.70402e-06
1.08912e-06
1.82009e-06
1.17637e-06
1.94262e-06
1.27272e-06
2.07189e-06
1.37955e-06
2.20821e-06
1.49856e-06
2.35189e-06
1.63182e-06
2.50327e-06
1.78191e-06
2.66261e-06
1.95207e-06
2.83015e-06
2.14638e-06
3.00598e-06
2.37017e-06
3.18998e-06
2.6304e-06
3.38168e-06
2.93657e-06
3.57999e-06
3.3017e-06
3.78275e-06
3.74493e-06
3.98594e-06
4.29311e-06
4.18216e-06
4.99085e-06
4.35527e-06
5.89385e-06
4.48757e-06
7.09552e-06
4.51507e-06
8.80672e-06
4.22449e-06
1.13114e-05
4.03014e-06
2.57835e-06
1.26001e-05
1.86152e-10
4.97429e-09
7.55825e-10
1.50414e-08
1.69123e-09
2.46748e-08
2.9657e-09
3.35375e-08
4.54513e-09
4.14012e-08
6.38662e-09
4.81091e-08
8.44545e-09
5.35453e-08
1.06748e-08
5.76349e-08
1.30271e-08
6.03388e-08
1.54527e-08
6.1651e-08
1.79014e-08
6.15967e-08
2.03241e-08
6.02322e-08
2.26742e-08
5.76531e-08
2.49084e-08
5.39972e-08
2.6989e-08
4.94425e-08
2.88848e-08
4.41987e-08
3.05747e-08
3.84975e-08
3.20451e-08
3.25822e-08
3.32931e-08
2.67016e-08
3.43245e-08
2.10999e-08
3.51576e-08
1.60104e-08
3.58177e-08
1.16477e-08
3.63397e-08
8.20752e-09
3.67648e-08
5.85885e-09
3.71432e-08
4.74116e-09
3.75281e-08
4.96156e-09
3.79769e-08
6.5994e-09
3.85522e-08
9.69979e-09
3.93089e-08
1.42804e-08
4.032e-08
2.03191e-08
4.16407e-08
2.77707e-08
4.33312e-08
3.65442e-08
4.54458e-08
4.65442e-08
4.80276e-08
5.76273e-08
5.11338e-08
6.96536e-08
5.47755e-08
8.24634e-08
5.90161e-08
9.58748e-08
6.38307e-08
1.09757e-07
6.92835e-08
1.23896e-07
7.53361e-08
1.38215e-07
8.20154e-08
1.52504e-07
8.93203e-08
1.66717e-07
9.72013e-08
1.80734e-07
1.05717e-07
1.94479e-07
1.14776e-07
2.07982e-07
1.24422e-07
2.21154e-07
1.34617e-07
2.34112e-07
1.45356e-07
2.46859e-07
1.56598e-07
2.59547e-07
1.68455e-07
2.7219e-07
1.80716e-07
2.85208e-07
1.9365e-07
2.98342e-07
2.0706e-07
3.12367e-07
2.21104e-07
3.26978e-07
2.35782e-07
3.42783e-07
2.51076e-07
3.60028e-07
2.67233e-07
3.78736e-07
2.84261e-07
3.99291e-07
3.02257e-07
4.21948e-07
3.21284e-07
4.46933e-07
3.41495e-07
4.74571e-07
3.6299e-07
5.05026e-07
3.85921e-07
5.38551e-07
4.10445e-07
5.75354e-07
4.36723e-07
6.15628e-07
4.64927e-07
6.59551e-07
4.95241e-07
7.07289e-07
5.27865e-07
7.58994e-07
5.63024e-07
8.14807e-07
6.00961e-07
8.74862e-07
6.41942e-07
9.39282e-07
6.86255e-07
1.00818e-06
7.34218e-07
1.08167e-06
7.86179e-07
1.15985e-06
8.42527e-07
1.24284e-06
9.03701e-07
1.33074e-06
9.70204e-07
1.42365e-06
1.04262e-06
1.52171e-06
1.12161e-06
1.62502e-06
1.20799e-06
1.73371e-06
1.30269e-06
1.84792e-06
1.40685e-06
1.96773e-06
1.52181e-06
2.09324e-06
1.64921e-06
2.22449e-06
1.79106e-06
2.36143e-06
1.94978e-06
2.50389e-06
2.12844e-06
2.6515e-06
2.33082e-06
2.8036e-06
2.56177e-06
2.95904e-06
2.82749e-06
3.11596e-06
3.13612e-06
3.27135e-06
3.49834e-06
3.42053e-06
3.92884e-06
3.55544e-06
4.44595e-06
3.66505e-06
5.07715e-06
3.72406e-06
5.84985e-06
3.71487e-06
6.80652e-06
3.55841e-06
7.90035e-06
3.13065e-06
9.32885e-06
2.60164e-06
1.60052e-06
1.03067e-05
2.05523e-10
4.76862e-09
8.35658e-10
1.44111e-08
1.86502e-09
2.36453e-08
3.26313e-09
3.21393e-08
4.99415e-09
3.96701e-08
7.02e-09
4.60832e-08
9.28926e-09
5.1276e-08
1.17444e-08
5.51798e-08
1.4331e-08
5.77522e-08
1.69974e-08
5.89846e-08
1.9692e-08
5.89021e-08
2.23648e-08
5.75593e-08
2.49663e-08
5.50516e-08
2.74473e-08
5.15162e-08
2.97627e-08
4.71271e-08
3.18754e-08
4.2086e-08
3.37586e-08
3.66142e-08
3.53962e-08
3.09446e-08
3.67846e-08
2.53132e-08
3.79319e-08
1.99527e-08
3.88572e-08
1.5085e-08
3.95889e-08
1.0916e-08
4.01654e-08
7.63105e-09
4.06334e-08
5.39088e-09
4.10467e-08
4.32785e-09
4.14641e-08
4.54415e-09
4.19495e-08
6.11407e-09
4.25716e-08
9.07766e-09
4.33963e-08
1.34557e-08
4.44943e-08
1.92211e-08
4.59384e-08
2.63267e-08
4.77825e-08
3.47001e-08
5.01003e-08
4.42265e-08
5.29294e-08
5.47983e-08
5.63343e-08
6.62488e-08
6.03417e-08
7.84561e-08
6.4986e-08
9.12306e-08
7.03041e-08
1.04439e-07
7.62757e-08
1.17924e-07
8.29662e-08
1.31524e-07
9.03021e-08
1.45168e-07
9.83524e-08
1.58667e-07
1.07055e-07
1.72031e-07
1.16407e-07
1.85126e-07
1.26434e-07
1.97955e-07
1.37041e-07
2.10547e-07
1.48301e-07
2.22852e-07
1.60137e-07
2.35023e-07
1.72586e-07
2.47097e-07
1.85571e-07
2.59204e-07
1.9927e-07
2.71508e-07
2.13393e-07
2.8422e-07
2.28335e-07
2.97425e-07
2.43814e-07
3.11499e-07
2.59996e-07
3.26601e-07
2.77041e-07
3.42982e-07
2.94942e-07
3.60835e-07
3.13781e-07
3.80452e-07
3.33666e-07
4.02063e-07
3.54689e-07
4.2591e-07
3.76992e-07
4.52268e-07
4.00698e-07
4.8132e-07
4.25957e-07
5.13292e-07
4.52934e-07
5.48377e-07
4.81804e-07
5.86757e-07
5.12759e-07
6.28596e-07
5.46004e-07
6.74044e-07
5.81762e-07
7.23236e-07
6.20272e-07
7.76298e-07
6.61789e-07
8.33345e-07
7.0659e-07
8.9448e-07
7.54973e-07
9.59798e-07
8.07261e-07
1.02938e-06
8.63809e-07
1.10331e-06
9.25011e-07
1.18164e-06
9.91305e-07
1.26444e-06
1.06319e-06
1.35177e-06
1.14124e-06
1.44365e-06
1.22612e-06
1.54014e-06
1.31861e-06
1.64123e-06
1.41959e-06
1.74693e-06
1.53016e-06
1.85717e-06
1.65157e-06
1.97183e-06
1.78534e-06
2.09072e-06
1.93329e-06
2.21349e-06
2.09759e-06
2.33958e-06
2.28091e-06
2.46818e-06
2.4865e-06
2.59801e-06
2.71834e-06
2.7272e-06
2.98133e-06
2.85297e-06
3.2815e-06
2.97118e-06
3.62616e-06
3.07588e-06
4.02402e-06
3.15758e-06
4.48476e-06
3.20431e-06
5.01674e-06
3.19209e-06
5.62968e-06
3.10192e-06
6.30789e-06
2.8802e-06
6.98358e-06
2.45496e-06
7.75386e-06
1.83136e-06
9.94149e-07
8.36023e-06
2.18688e-10
4.54986e-09
8.94396e-10
1.37354e-08
2.01015e-09
2.25295e-08
3.53975e-09
3.06096e-08
5.40374e-09
3.78061e-08
7.59893e-09
4.3888e-08
1.00548e-08
4.882e-08
1.27161e-08
5.25185e-08
1.55305e-08
5.49378e-08
1.84421e-08
5.60731e-08
2.13909e-08
5.59532e-08
2.43178e-08
5.46324e-08
2.71657e-08
5.22036e-08
2.98802e-08
4.88017e-08
3.24122e-08
4.4595e-08
3.4724e-08
3.97741e-08
3.67877e-08
3.45504e-08
3.85863e-08
2.9146e-08
4.01149e-08
2.37846e-08
4.13812e-08
1.86863e-08
4.24042e-08
1.40621e-08
4.32136e-08
1.01067e-08
4.38498e-08
6.99485e-09
4.43632e-08
4.87756e-09
4.48119e-08
3.87911e-09
4.52603e-08
4.09578e-09
4.57789e-08
5.59549e-09
4.64374e-08
8.41916e-09
4.73226e-08
1.25704e-08
4.85016e-08
1.80421e-08
5.00498e-08
2.47785e-08
5.20389e-08
3.2711e-08
5.453e-08
4.17355e-08
5.75954e-08
5.1733e-08
6.12655e-08
6.25788e-08
6.56167e-08
7.41049e-08
7.06431e-08
8.62044e-08
7.64139e-08
9.86685e-08
8.29111e-08
1.11427e-07
9.01573e-08
1.24278e-07
9.81719e-08
1.37153e-07
1.06893e-07
1.49945e-07
1.16396e-07
1.62528e-07
1.26574e-07
1.74948e-07
1.37476e-07
1.87053e-07
1.49068e-07
1.98955e-07
1.61311e-07
2.10609e-07
1.74214e-07
2.2212e-07
1.87806e-07
2.33505e-07
2.01956e-07
2.45055e-07
2.1687e-07
2.56593e-07
2.3236e-07
2.6873e-07
2.48604e-07
2.81181e-07
2.65565e-07
2.94538e-07
2.83253e-07
3.08912e-07
3.01855e-07
3.2438e-07
3.21404e-07
3.41285e-07
3.41983e-07
3.59872e-07
3.63684e-07
3.80362e-07
3.86616e-07
4.02978e-07
4.1091e-07
4.27974e-07
4.36725e-07
4.55504e-07
4.64201e-07
4.85816e-07
4.93508e-07
5.19069e-07
5.24839e-07
5.55426e-07
5.58403e-07
5.95032e-07
5.9442e-07
6.38027e-07
6.33123e-07
6.84533e-07
6.74761e-07
7.3466e-07
7.19602e-07
7.88503e-07
7.67933e-07
8.46149e-07
8.20059e-07
9.07672e-07
8.76309e-07
9.73131e-07
9.37039e-07
1.04258e-06
1.00264e-06
1.11604e-06
1.07353e-06
1.19354e-06
1.15021e-06
1.27509e-06
1.23322e-06
1.36065e-06
1.32319e-06
1.45017e-06
1.42083e-06
1.54359e-06
1.527e-06
1.64076e-06
1.64267e-06
1.7415e-06
1.76899e-06
1.84552e-06
1.90727e-06
1.95243e-06
2.0591e-06
2.06166e-06
2.22631e-06
2.17238e-06
2.41106e-06
2.28343e-06
2.61588e-06
2.39318e-06
2.84375e-06
2.49933e-06
3.09806e-06
2.59866e-06
3.38259e-06
2.68665e-06
3.70139e-06
2.75708e-06
4.05804e-06
2.80093e-06
4.45551e-06
2.80684e-06
4.89098e-06
2.75662e-06
5.36177e-06
2.63113e-06
5.84008e-06
2.40188e-06
6.26995e-06
2.0251e-06
6.62652e-06
1.47479e-06
7.95907e-07
6.82477e-06
2.39306e-10
4.31053e-09
9.49195e-10
1.30254e-08
2.1041e-09
2.13745e-08
3.77172e-09
2.8942e-08
5.71415e-09
3.58636e-08
8.09152e-09
4.15106e-08
1.07535e-08
4.6158e-08
1.36321e-08
4.96399e-08
1.66962e-08
5.18737e-08
1.98652e-08
5.29041e-08
2.30725e-08
5.27458e-08
2.62475e-08
5.14574e-08
2.93252e-08
4.91258e-08
3.22485e-08
4.58784e-08
3.49681e-08
4.18753e-08
3.7448e-08
3.72941e-08
3.9662e-08
3.23363e-08
4.15943e-08
2.72137e-08
4.32426e-08
2.21363e-08
4.46148e-08
1.73141e-08
4.57293e-08
1.29476e-08
4.66159e-08
9.2201e-09
4.73163e-08
6.29454e-09
4.78818e-08
4.31206e-09
4.83731e-08
3.38789e-09
4.8858e-08
3.61093e-09
4.94116e-08
5.04189e-09
5.01106e-08
7.7201e-09
5.10434e-08
1.16377e-08
5.22953e-08
1.67902e-08
5.39345e-08
2.31393e-08
5.60516e-08
3.05939e-08
5.87025e-08
3.90847e-08
6.19728e-08
4.84628e-08
6.59033e-08
5.86484e-08
7.05496e-08
6.94587e-08
7.59624e-08
8.07915e-08
8.21343e-08
9.24967e-08
8.91485e-08
1.04413e-07
9.69262e-08
1.165e-07
1.05567e-07
1.28513e-07
1.14979e-07
1.40533e-07
1.25194e-07
1.52313e-07
1.36207e-07
1.63935e-07
1.47935e-07
1.75325e-07
1.60454e-07
1.86436e-07
1.73649e-07
1.97413e-07
1.87603e-07
2.08166e-07
2.02184e-07
2.18924e-07
2.176e-07
2.2964e-07
2.33535e-07
2.40657e-07
2.5039e-07
2.51875e-07
2.67875e-07
2.63695e-07
2.86186e-07
2.76228e-07
3.05368e-07
2.8973e-07
3.25486e-07
3.04261e-07
3.46611e-07
3.2016e-07
3.68837e-07
3.37646e-07
3.92264e-07
3.56935e-07
4.17003e-07
3.78239e-07
4.43162e-07
4.01815e-07
4.70937e-07
4.27729e-07
5.00488e-07
4.56265e-07
5.31998e-07
4.87559e-07
5.65652e-07
5.21772e-07
6.01656e-07
5.59028e-07
6.40246e-07
5.99436e-07
6.81677e-07
6.43102e-07
7.26215e-07
6.90122e-07
7.74138e-07
7.4058e-07
8.25737e-07
7.9455e-07
8.81317e-07
8.52091e-07
9.41204e-07
9.13245e-07
1.00574e-06
9.78038e-07
1.0753e-06
1.04648e-06
1.1503e-06
1.11855e-06
1.2312e-06
1.19419e-06
1.3185e-06
1.27335e-06
1.41279e-06
1.35588e-06
1.51472e-06
1.44165e-06
1.62506e-06
1.53042e-06
1.74465e-06
1.6219e-06
1.8745e-06
1.71568e-06
2.01571e-06
1.81122e-06
2.16956e-06
1.90781e-06
2.33749e-06
2.00444e-06
2.52114e-06
2.09978e-06
2.7223e-06
2.19202e-06
2.94291e-06
2.27872e-06
3.18495e-06
2.35662e-06
3.45027e-06
2.42133e-06
3.74024e-06
2.46711e-06
4.0549e-06
2.48627e-06
4.39256e-06
2.46918e-06
4.74601e-06
2.40316e-06
5.10384e-06
2.27331e-06
5.44154e-06
2.06418e-06
5.71015e-06
1.75649e-06
5.84716e-06
1.33778e-06
8.29984e-07
5.81308e-06
2.63535e-10
4.04696e-09
1.02201e-09
1.22669e-08
2.24818e-09
2.01483e-08
3.92077e-09
2.72694e-08
6.06209e-09
3.37223e-08
8.59911e-09
3.89735e-08
1.14957e-08
4.32614e-08
1.46049e-08
4.65307e-08
1.79282e-08
4.85504e-08
2.13125e-08
4.95197e-08
2.47279e-08
4.93304e-08
2.81188e-08
4.80665e-08
3.14136e-08
4.58309e-08
3.4532e-08
4.27599e-08
3.74315e-08
3.89757e-08
4.007e-08
3.46555e-08
4.24219e-08
2.99843e-08
4.44737e-08
2.51619e-08
4.62266e-08
2.03834e-08
4.76876e-08
1.5853e-08
4.88726e-08
1.17627e-08
4.98129e-08
8.2799e-09
5.05534e-08
5.55409e-09
5.11496e-08
3.71583e-09
5.16662e-08
2.87139e-09
5.21751e-08
3.10207e-09
5.27543e-08
4.46263e-09
5.3486e-08
6.98837e-09
5.44615e-08
1.06622e-08
5.57774e-08
1.54742e-08
5.75028e-08
2.14139e-08
5.97295e-08
2.83671e-08
6.25392e-08
3.6275e-08
6.59931e-08
4.50088e-08
7.0176e-08
5.44655e-08
7.51082e-08
6.45265e-08
8.08791e-08
7.50206e-08
8.74643e-08
8.59115e-08
9.49409e-08
9.69362e-08
1.03274e-07
1.08167e-07
1.12483e-07
1.19303e-07
1.22574e-07
1.30442e-07
1.33483e-07
1.41403e-07
1.45261e-07
1.52157e-07
1.57814e-07
1.62772e-07
1.71189e-07
1.73061e-07
1.85291e-07
1.83311e-07
2.00234e-07
1.93223e-07
2.15801e-07
2.03356e-07
2.32287e-07
2.13154e-07
2.49374e-07
2.2357e-07
2.67355e-07
2.33894e-07
2.86096e-07
2.44954e-07
3.05687e-07
2.56636e-07
3.26246e-07
2.69172e-07
3.47779e-07
2.82728e-07
3.70384e-07
2.97555e-07
3.94153e-07
3.13877e-07
4.19186e-07
3.31902e-07
4.45605e-07
3.5182e-07
4.7363e-07
3.73789e-07
5.03287e-07
3.98071e-07
5.34793e-07
4.2476e-07
5.68319e-07
4.54033e-07
6.04088e-07
4.86003e-07
6.42341e-07
5.20775e-07
6.83323e-07
5.58454e-07
7.2729e-07
5.99135e-07
7.7451e-07
6.42902e-07
8.25264e-07
6.89827e-07
8.79846e-07
7.39968e-07
9.38567e-07
7.9337e-07
1.00175e-06
8.50061e-07
1.06973e-06
9.10058e-07
1.14286e-06
9.7335e-07
1.22151e-06
1.03989e-06
1.30611e-06
1.1096e-06
1.39711e-06
1.18234e-06
1.49504e-06
1.25796e-06
1.60047e-06
1.33622e-06
1.71407e-06
1.41683e-06
1.83656e-06
1.49941e-06
1.96877e-06
1.58347e-06
2.1116e-06
1.6684e-06
2.26601e-06
1.75339e-06
2.43306e-06
1.83739e-06
2.61386e-06
1.91899e-06
2.8095e-06
1.99637e-06
3.02104e-06
2.06719e-06
3.24926e-06
2.12839e-06
3.4945e-06
2.17609e-06
3.75622e-06
2.20539e-06
4.03228e-06
2.21021e-06
4.3182e-06
2.18327e-06
4.6052e-06
2.11616e-06
4.8788e-06
1.99971e-06
5.11693e-06
1.82605e-06
5.28383e-06
1.5896e-06
5.3288e-06
1.2928e-06
9.50251e-07
5.20854e-06
2.62886e-10
3.78401e-09
1.05398e-09
1.14758e-08
2.3555e-09
1.88468e-08
4.1712e-09
2.54536e-08
6.52324e-09
3.13702e-08
9.19019e-09
3.63066e-08
1.22309e-08
4.02207e-08
1.55559e-08
4.32056e-08
1.90761e-08
4.50302e-08
2.26941e-08
4.59016e-08
2.64007e-08
4.56237e-08
3.00068e-08
4.44602e-08
3.34941e-08
4.23435e-08
3.67567e-08
3.94971e-08
3.98177e-08
3.59147e-08
4.26113e-08
3.18618e-08
4.50926e-08
2.75029e-08
4.72503e-08
2.30041e-08
4.90839e-08
1.85498e-08
5.06024e-08
1.43346e-08
5.18253e-08
1.05398e-08
5.27874e-08
7.31787e-09
5.35374e-08
4.80411e-09
5.41367e-08
3.11664e-09
5.46553e-08
2.35278e-09
5.51701e-08
2.58731e-09
5.57641e-08
3.86861e-09
5.65247e-08
6.22774e-09
5.75308e-08
9.65604e-09
5.88876e-08
1.41174e-08
6.07008e-08
1.96007e-08
6.30424e-08
2.60254e-08
6.60018e-08
3.33155e-08
6.96479e-08
4.13627e-08
7.40645e-08
5.00489e-08
7.92929e-08
5.9298e-08
8.53954e-08
6.8918e-08
9.23949e-08
7.89118e-08
1.0031e-07
8.90209e-08
1.09174e-07
9.9304e-08
1.18936e-07
1.0954e-07
1.29652e-07
1.19727e-07
1.41241e-07
1.29813e-07
1.53716e-07
1.39681e-07
1.67064e-07
1.49424e-07
1.8121e-07
1.58915e-07
1.96209e-07
1.68312e-07
2.12e-07
1.77432e-07
2.28582e-07
1.86774e-07
2.45995e-07
1.95741e-07
2.64195e-07
2.05371e-07
2.83246e-07
2.14842e-07
3.03157e-07
2.25044e-07
3.23956e-07
2.35837e-07
3.45782e-07
2.47346e-07
3.68674e-07
2.59836e-07
3.927e-07
2.73529e-07
4.1794e-07
2.88637e-07
4.44501e-07
3.05341e-07
4.72517e-07
3.23804e-07
5.02116e-07
3.4419e-07
5.3349e-07
3.66697e-07
5.66827e-07
3.91423e-07
6.023e-07
4.18561e-07
6.40094e-07
4.48209e-07
6.80436e-07
4.80433e-07
7.23594e-07
5.15296e-07
7.69858e-07
5.52871e-07
8.1952e-07
5.93241e-07
8.72863e-07
6.36483e-07
9.30178e-07
6.82653e-07
9.91765e-07
7.31784e-07
1.05793e-06
7.83893e-07
1.129e-06
8.38991e-07
1.20529e-06
8.97057e-07
1.28716e-06
9.58025e-07
1.37497e-06
1.02178e-06
1.46914e-06
1.08818e-06
1.5701e-06
1.15699e-06
1.67836e-06
1.22796e-06
1.79447e-06
1.30072e-06
1.91904e-06
1.37484e-06
2.05271e-06
1.4498e-06
2.19616e-06
1.52495e-06
2.35007e-06
1.59949e-06
2.51512e-06
1.67233e-06
2.69198e-06
1.74214e-06
2.88116e-06
1.80719e-06
3.08297e-06
1.86538e-06
3.29732e-06
1.91404e-06
3.52348e-06
1.94993e-06
3.75971e-06
1.96916e-06
4.00268e-06
1.96724e-06
4.24675e-06
1.93919e-06
4.48298e-06
1.87993e-06
4.69781e-06
1.78488e-06
4.87237e-06
1.65149e-06
4.98126e-06
1.4807e-06
4.9921e-06
1.28197e-06
1.07159e-06
4.87076e-06
2.87533e-10
3.49648e-09
1.13899e-09
1.06243e-08
2.54705e-09
1.74387e-08
4.4847e-09
2.3516e-08
6.92235e-09
2.89325e-08
9.79394e-09
3.34349e-08
1.29705e-08
3.70441e-08
1.64852e-08
3.96908e-08
2.01431e-08
4.13722e-08
2.39709e-08
4.20737e-08
2.77969e-08
4.17976e-08
3.1581e-08
4.0676e-08
3.52746e-08
3.86498e-08
3.87501e-08
3.60215e-08
4.19986e-08
3.26661e-08
4.48937e-08
2.89666e-08
4.74616e-08
2.49349e-08
4.97363e-08
2.07294e-08
5.16778e-08
1.66083e-08
5.32676e-08
1.27447e-08
5.45406e-08
9.2668e-09
5.55426e-08
6.31586e-09
5.63255e-08
4.02126e-09
5.69511e-08
2.49101e-09
5.74895e-08
1.81438e-09
5.80198e-08
2.05703e-09
5.86262e-08
3.26219e-09
5.94066e-08
5.4473e-09
6.04485e-08
8.6141e-09
6.1845e-08
1.27208e-08
6.37139e-08
1.77317e-08
6.61468e-08
2.35924e-08
6.9229e-08
3.02332e-08
7.30437e-08
3.75479e-08
7.7665e-08
4.54275e-08
8.31561e-08
5.38068e-08
8.9556e-08
6.2518e-08
9.6922e-08
7.15457e-08
1.05238e-07
8.0705e-08
1.14562e-07
8.99799e-08
1.24847e-07
9.92554e-08
1.36103e-07
1.08471e-07
1.48332e-07
1.17584e-07
1.61436e-07
1.26578e-07
1.75505e-07
1.35355e-07
1.90384e-07
1.44036e-07
2.06166e-07
1.5253e-07
2.22794e-07
1.60804e-07
2.40258e-07
1.69311e-07
2.58596e-07
1.77402e-07
2.77795e-07
1.86171e-07
2.97867e-07
1.9477e-07
3.18865e-07
2.04047e-07
3.4084e-07
2.13861e-07
3.63874e-07
2.24312e-07
3.88043e-07
2.35666e-07
4.13409e-07
2.48163e-07
4.40036e-07
2.6201e-07
4.68032e-07
2.77345e-07
4.97553e-07
2.94283e-07
5.2876e-07
3.12984e-07
5.61756e-07
3.337e-07
5.96778e-07
3.56401e-07
6.33963e-07
3.81376e-07
6.73533e-07
4.08639e-07
7.15752e-07
4.38214e-07
7.60911e-07
4.70138e-07
8.09297e-07
5.04485e-07
8.61187e-07
5.41352e-07
9.16868e-07
5.80802e-07
9.76652e-07
6.2287e-07
1.04085e-06
6.67587e-07
1.10975e-06
7.14995e-07
1.18362e-06
7.65116e-07
1.26276e-06
8.17924e-07
1.34745e-06
8.73332e-07
1.43803e-06
9.31206e-07
1.53484e-06
9.91364e-07
1.63827e-06
1.05357e-06
1.74873e-06
1.1175e-06
1.86667e-06
1.18278e-06
1.99259e-06
1.24892e-06
2.127e-06
1.31539e-06
2.27037e-06
1.38158e-06
2.42311e-06
1.44675e-06
2.58558e-06
1.50987e-06
2.75803e-06
1.56969e-06
2.94052e-06
1.6247e-06
3.13283e-06
1.67307e-06
3.33425e-06
1.71262e-06
3.54342e-06
1.74076e-06
3.75799e-06
1.75459e-06
3.97421e-06
1.75103e-06
4.18639e-06
1.72701e-06
4.38636e-06
1.67996e-06
4.56285e-06
1.6084e-06
4.70117e-06
1.51317e-06
4.78333e-06
1.39854e-06
4.78956e-06
1.27574e-06
1.16135e-06
4.6998e-06
3.11148e-10
3.18537e-09
1.21102e-09
9.72448e-09
2.71301e-09
1.59367e-08
4.74375e-09
2.14852e-08
7.30521e-09
2.63711e-08
1.02939e-08
3.04462e-08
1.36381e-08
3.36998e-08
1.72785e-08
3.60503e-08
2.11091e-08
3.75414e-08
2.50822e-08
3.81005e-08
2.90567e-08
3.7823e-08
3.30189e-08
3.67137e-08
3.68215e-08
3.48472e-08
4.04637e-08
3.23791e-08
4.38385e-08
2.92913e-08
4.69074e-08
2.58976e-08
4.96833e-08
2.2159e-08
5.20393e-08
1.83733e-08
5.40048e-08
1.46428e-08
5.56623e-08
1.10871e-08
5.70197e-08
7.90943e-09
5.81012e-08
5.2343e-09
5.89491e-08
3.17338e-09
5.96215e-08
1.81857e-09
6.0192e-08
1.24391e-09
6.074e-08
1.50907e-09
6.13569e-08
2.64526e-09
6.21425e-08
4.66168e-09
6.31853e-08
7.5712e-09
6.46148e-08
1.12913e-08
6.65481e-08
1.57983e-08
6.905e-08
2.10904e-08
7.22289e-08
2.70541e-08
7.61762e-08
3.36004e-08
8.09645e-08
4.06391e-08
8.6668e-08
4.81032e-08
9.33259e-08
5.586e-08
1.00993e-07
6.38784e-08
1.09677e-07
7.20213e-08
1.19392e-07
8.02649e-08
1.30155e-07
8.84918e-08
1.41907e-07
9.67188e-08
1.547e-07
1.04792e-07
1.68417e-07
1.1286e-07
1.83108e-07
1.20664e-07
1.98696e-07
1.28449e-07
2.15159e-07
1.36066e-07
2.32588e-07
1.43376e-07
2.50844e-07
1.51055e-07
2.70036e-07
1.5821e-07
2.90153e-07
1.66054e-07
3.11173e-07
1.7375e-07
3.33172e-07
1.82048e-07
3.56211e-07
1.90822e-07
3.80395e-07
2.00128e-07
4.0582e-07
2.10242e-07
4.3249e-07
2.21493e-07
4.60428e-07
2.34073e-07
4.89769e-07
2.48004e-07
5.20692e-07
2.63361e-07
5.53329e-07
2.80347e-07
5.87901e-07
2.99128e-07
6.24506e-07
3.19796e-07
6.63337e-07
3.42545e-07
7.04576e-07
3.674e-07
7.48477e-07
3.94314e-07
7.954e-07
4.23215e-07
8.45695e-07
4.5419e-07
8.99608e-07
4.87439e-07
9.57376e-07
5.23034e-07
1.01931e-06
5.60932e-07
1.08576e-06
6.01138e-07
1.15703e-06
6.43725e-07
1.23338e-06
6.8877e-07
1.31504e-06
7.36265e-07
1.40225e-06
7.86121e-07
1.49528e-06
8.3818e-07
1.5944e-06
8.92248e-07
1.6999e-06
9.48056e-07
1.81212e-06
1.00528e-06
1.9314e-06
1.0635e-06
2.05815e-06
1.12217e-06
2.19278e-06
1.18076e-06
2.33557e-06
1.23879e-06
2.48673e-06
1.29559e-06
2.64636e-06
1.35023e-06
2.81443e-06
1.40162e-06
2.99064e-06
1.44849e-06
3.17435e-06
1.48936e-06
3.36447e-06
1.5225e-06
3.55932e-06
1.54591e-06
3.75636e-06
1.55755e-06
3.95196e-06
1.55543e-06
4.14101e-06
1.53796e-06
4.31665e-06
1.50432e-06
4.47001e-06
1.45504e-06
4.5904e-06
1.39278e-06
4.66573e-06
1.32322e-06
4.68447e-06
1.25699e-06
1.20929e-06
4.63653e-06
3.25325e-10
2.86001e-09
1.27082e-09
8.77896e-09
2.83228e-09
1.43753e-08
4.95122e-09
1.93663e-08
7.61787e-09
2.37044e-08
1.07206e-08
2.73434e-08
1.42133e-08
3.0207e-08
1.79759e-08
3.22876e-08
2.19676e-08
3.35495e-08
2.60623e-08
3.40058e-08
3.01964e-08
3.36887e-08
3.42825e-08
3.26275e-08
3.82185e-08
3.09111e-08
4.19948e-08
2.86028e-08
4.5471e-08
2.5815e-08
4.8693e-08
2.26756e-08
5.15362e-08
1.93157e-08
5.40392e-08
1.58702e-08
5.61792e-08
1.25027e-08
5.7929e-08
9.33722e-09
5.93675e-08
6.47085e-09
6.05155e-08
4.08629e-09
6.14149e-08
2.27394e-09
6.21278e-08
1.10563e-09
6.27272e-08
6.44447e-10
6.32959e-08
9.40409e-10
6.39299e-08
2.01119e-09
6.47303e-08
3.86123e-09
6.58156e-08
6.48577e-09
6.72531e-08
9.8537e-09
6.91572e-08
1.3894e-08
7.16847e-08
1.85628e-08
7.4922e-08
2.38166e-08
7.89558e-08
2.95665e-08
8.38669e-08
3.57279e-08
8.97327e-08
4.22373e-08
9.6606e-08
4.89865e-08
1.0453e-07
5.5954e-08
1.13539e-07
6.30124e-08
1.23613e-07
7.01913e-08
1.348e-07
7.73048e-08
1.47019e-07
8.45e-08
1.60313e-07
9.1498e-08
1.74603e-07
9.85705e-08
1.89844e-07
1.05422e-07
2.06062e-07
1.12231e-07
2.2313e-07
1.18999e-07
2.41266e-07
1.2524e-07
2.60303e-07
1.32017e-07
2.80277e-07
1.38237e-07
3.01272e-07
1.45058e-07
3.23165e-07
1.51858e-07
3.46091e-07
1.59123e-07
3.70092e-07
1.66821e-07
3.95328e-07
1.74891e-07
4.21968e-07
1.83602e-07
4.4991e-07
1.9355e-07
4.79105e-07
2.04879e-07
5.0973e-07
2.17379e-07
5.42017e-07
2.31074e-07
5.76054e-07
2.4631e-07
6.12056e-07
2.63127e-07
6.50164e-07
2.81688e-07
6.90449e-07
3.0226e-07
7.33098e-07
3.24751e-07
7.78385e-07
3.49028e-07
8.26797e-07
3.74803e-07
8.78755e-07
4.02234e-07
9.34446e-07