/*--------------------------------*- C++ -*----------------------------------*\
| =========                 |                                                 |
| \\      /  F ield         | OpenFOAM: The Open Source CFD Toolbox           |
|  \\    /   O peration     | Version:  2206                                  |
|   \\  /    A nd           | Website:  www.openfoam.com                      |
|    \\/     M anipulation  |                                                 |
\*---------------------------------------------------------------------------*/
FoamFile
{
    version     2.0;
    format      ascii;
    arch        "LSB;label=32;scalar=64";
    class       volVectorField;
    location    "18.5001";
    object      ddtCorrDdt0(U);
}
// * * * * * * * * * * * * * * * * * * * * * * * * * * * * * * * * * * * * * //

dimensions      [0 1 -2 0 0 0 0];

internalField   nonuniform List<vector> 
4830
(
(-43.0615 3.00217 0)
(-44.8777 -0.640605 0)
(-41.0354 -3.51851 0)
(-32.8796 -5.68715 0)
(-21.9513 -6.7276 0)
(-9.6729 -7.25427 0)
(2.4427 -7.30991 0)
(12.8046 -6.30913 0)
(20.467 -4.8762 0)
(24.9925 -1.65577 0)
(26.5322 -0.0519923 0)
(25.2719 1.44644 0)
(23.8688 2.52949 0)
(18.3786 3.05433 0)
(13.7582 3.01806 0)
(9.21628 2.83653 0)
(4.41374 2.53011 0)
(-0.183099 1.99186 0)
(-3.23374 1.4734 0)
(-6.00306 1.2905 0)
(-9.52101 1.30539 0)
(-11.6778 1.31375 0)
(-14.0126 1.56091 0)
(-16.2122 2.53379 0)
(-23.4764 5.50857 0)
(-29.7679 6.57409 0)
(-41.1068 5.083 0)
(-39.3417 -3.74584 0)
(-33.7846 -10.7318 0)
(-24.7555 -15.3897 0)
(-13.6027 -17.6612 0)
(-1.62843 -17.9844 0)
(9.45066 -16.3828 0)
(18.2323 -13.432 0)
(24.2135 -8.97636 0)
(28.5404 -3.77716 0)
(30.1683 1.00499 0)
(29.5695 4.43036 0)
(27.2854 6.8619 0)
(23.996 8.27378 0)
(20.3911 8.52948 0)
(16.7427 8.1347 0)
(13.2578 7.41213 0)
(10.2723 6.48651 0)
(7.69225 5.45157 0)
(5.46257 4.52396 0)
(3.53861 3.91995 0)
(2.01402 3.63356 0)
(0.658372 3.9029 0)
(-0.643326 5.31892 0)
(-1.62821 8.46622 0)
(-1.38408 13.5354 0)
(-33.2043 6.54679 0)
(-26.9761 -8.79482 0)
(-23.4233 -20.1867 0)
(-18.905 -29.1497 0)
(-13.0013 -34.2865 0)
(-5.6865 -34.5329 0)
(1.43893 -30.9984 0)
(7.9757 -25.2235 0)
(13.4588 -17.941 0)
(18.0664 -9.46246 0)
(21.7884 -1.50004 0)
(23.642 4.54737 0)
(23.7389 8.66822 0)
(22.7256 11.1694 0)
(21.1967 12.0951 0)
(19.4957 11.6695 0)
(17.7571 10.4503 0)
(16.2334 9.00244 0)
(14.9135 7.60375 0)
(13.8163 6.35334 0)
(12.861 5.4268 0)
(12.0255 4.88321 0)
(11.3692 4.95613 0)
(11.0149 5.90326 0)
(11.2855 7.98008 0)
(12.7749 11.0123 0)
(-22.4827 8.26782 0)
(-16.5683 -10.3774 0)
(-10.4536 -22.8621 0)
(-5.81956 -30.9519 0)
(-3.02818 -35.8905 0)
(-1.1677 -37.146 0)
(1.06618 -34.2195 0)
(2.816 -28.4734 0)
(4.08779 -21.0331 0)
(5.34218 -12.9646 0)
(7.10475 -5.17117 0)
(8.89421 1.58396 0)
(10.3675 6.92584 0)
(11.5978 10.4422 0)
(12.7315 11.9402 0)
(13.6566 11.8914 0)
(14.235 10.9836 0)
(14.5388 9.67118 0)
(14.5813 8.20411 0)
(14.4258 6.87902 0)
(14.1921 5.93956 0)
(13.9914 5.3348 0)
(13.9437 5.1989 0)
(14.1692 5.65624 0)
(14.9253 6.76601 0)
(16.6346 8.31854 0)
(-9.28816 -0.518435 0)
(-7.94775 -17.7132 0)
(-6.38373 -25.035 0)
(-6.48658 -31.9192 0)
(-7.89446 -37.4101 0)
(-9.89372 -38.2417 0)
(-11.7141 -35.2898 0)
(-12.7431 -29.4157 0)
(-12.9854 -22.9014 0)
(-12.2306 -15.6611 0)
(-10.4961 -7.83598 0)
(-8.20051 -0.848702 0)
(-5.38794 4.47822 0)
(-2.12635 7.86115 0)
(1.19422 9.3343 0)
(4.18826 9.50487 0)
(6.58478 9.13966 0)
(8.3097 8.38022 0)
(9.50718 7.44757 0)
(10.2546 6.6278 0)
(10.8042 5.87565 0)
(11.2114 5.28473 0)
(11.5786 4.95272 0)
(12.1866 4.9793 0)
(13.2536 5.35797 0)
(15.0419 5.82154 0)
(15.4913 -0.368576 0)
(15.3699 -17.9982 0)
(10.6122 -22.9545 0)
(8.62254 -29.8974 0)
(4.09398 -33.4924 0)
(-0.688709 -33.4508 0)
(-5.48537 -30.9407 0)
(-9.72581 -26.7996 0)
(-12.5936 -19.8669 0)
(-13.7152 -15.1442 0)
(-13.6248 -8.29003 0)
(-12.0822 -3.22496 0)
(-9.40669 0.785983 0)
(-6.22713 3.60712 0)
(-3.13044 5.23211 0)
(-0.420154 5.98383 0)
(1.90717 6.37518 0)
(3.79299 6.38923 0)
(5.12072 5.99987 0)
(6.27601 5.42381 0)
(7.33102 4.84846 0)
(8.31416 4.38383 0)
(9.31848 4.04224 0)
(10.4315 3.83718 0)
(11.7074 3.64784 0)
(13.9008 3.36502 0)
(28.0631 -2.35328 0)
(25.8708 -12.5817 0)
(21.0103 -19.6907 0)
(16.1935 -24.3851 0)
(10.4121 -27.0858 0)
(4.38511 -27.2229 0)
(-0.938966 -24.6678 0)
(-4.57874 -21.4665 0)
(-7.83599 -18.5322 0)
(-9.43807 -13.9293 0)
(-9.7159 -9.35994 0)
(-8.98212 -5.22455 0)
(-7.48826 -1.75699 0)
(-5.60391 0.924429 0)
(-3.55849 2.81711 0)
(-1.59124 3.98643 0)
(-0.243431 4.54473 0)
(1.69758 4.74661 0)
(3.54647 4.51152 0)
(4.8455 4.15098 0)
(6.10496 3.68161 0)
(7.31705 3.1824 0)
(8.51969 2.69232 0)
(9.8362 2.16582 0)
(11.3525 1.56481 0)
(13.106 0.814655 0)
(28.2706 -0.995004 0)
(26.1547 -8.73659 0)
(22.4179 -14.4165 0)
(18.0791 -18.2383 0)
(13.3236 -20.3465 0)
(7.9041 -21.0107 0)
(3.12305 -20.2579 0)
(-0.471737 -18.2589 0)
(-3.23756 -15.449 0)
(-5.28423 -12.2032 0)
(-6.5164 -8.92687 0)
(-6.63871 -5.76145 0)
(-5.99242 -3.00979 0)
(-4.82492 -0.810218 0)
(-3.36019 0.827437 0)
(-1.73059 1.97438 0)
(-0.00838234 2.63026 0)
(1.52632 2.71997 0)
(2.91575 2.59529 0)
(4.23511 2.39413 0)
(5.50724 2.08432 0)
(6.7019 1.67883 0)
(7.87163 1.20414 0)
(9.0727 0.646093 0)
(10.3515 -0.0594627 0)
(11.7403 -0.981445 0)
(24.6873 -0.365979 0)
(23.3088 -5.90352 0)
(20.4685 -10.4491 0)
(16.764 -13.7324 0)
(12.7795 -15.6385 0)
(8.76547 -16.1992 0)
(4.93664 -15.752 0)
(1.65058 -14.6386 0)
(-0.792943 -12.7605 0)
(-2.5889 -10.3318 0)
(-3.76616 -7.96764 0)
(-4.06338 -5.73022 0)
(-3.77497 -3.70122 0)
(-3.08733 -1.96098 0)
(-2.09615 -0.571644 0)
(-0.91787 0.408998 0)
(0.344824 0.985515 0)
(1.63166 1.26795 0)
(2.85597 1.33803 0)
(3.97857 1.22285 0)
(5.04686 0.954413 0)
(6.08766 0.556894 0)
(7.11309 0.0389172 0)
(8.15413 -0.609569 0)
(9.23593 -1.41574 0)
(10.3636 -2.42665 0)
(20.6353 0.190652 0)
(19.6526 -3.88537 0)
(17.6864 -7.34142 0)
(15.0074 -9.93505 0)
(11.9706 -11.5397 0)
(8.8728 -12.2105 0)
(5.91665 -12.1967 0)
(3.28935 -11.7187 0)
(1.22991 -10.6969 0)
(-0.196942 -9.07776 0)
(-1.19223 -7.31078 0)
(-1.6467 -5.62002 0)
(-1.65558 -4.04694 0)
(-1.31381 -2.66343 0)
(-0.686609 -1.55082 0)
(0.136519 -0.742341 0)
(1.0587 -0.223324 0)
(2.00607 0.0406138 0)
(2.94122 0.103973 0)
(3.85591 0.0123175 0)
(4.75314 -0.220106 0)
(5.63651 -0.588769 0)
(6.51036 -1.09184 0)
(7.3819 -1.73911 0)
(8.25631 -2.55346 0)
(9.12878 -3.56806 0)
(16.5678 0.556726 0)
(15.9513 -2.49698 0)
(14.6238 -5.16132 0)
(12.7465 -7.26872 0)
(10.5682 -8.70041 0)
(8.32729 -9.43858 0)
(6.1713 -9.62525 0)
(4.19417 -9.43765 0)
(2.51475 -8.83175 0)
(1.24218 -7.74365 0)
(0.366659 -6.45502 0)
(-0.142905 -5.23833 0)
(-0.280036 -4.10202 0)
(-0.124637 -3.08161 0)
(0.27251 -2.22396 0)
(0.845579 -1.56088 0)
(1.52178 -1.10558 0)
(2.2456 -0.852475 0)
(2.9857 -0.777553 0)
(3.72867 -0.85693 0)
(4.46773 -1.07908 0)
(5.19715 -1.44037 0)
(5.91284 -1.94104 0)
(6.61214 -2.58727 0)
(7.29011 -3.39259 0)
(7.93451 -4.37659 0)
(13.421 0.616922 0)
(13.0932 -1.67803 0)
(12.2329 -3.72805 0)
(10.9551 -5.41163 0)
(9.4175 -6.62492 0)
(7.7821 -7.33519 0)
(6.16527 -7.63059 0)
(4.64051 -7.63326 0)
(3.29279 -7.3376 0)
(2.22447 -6.68595 0)
(1.48365 -5.79685 0)
(1.01582 -4.89549 0)
(0.817028 -4.04851 0)
(0.846081 -3.2771 0)
(1.06097 -2.62177 0)
(1.42388 -2.11402 0)
(1.89177 -1.76509 0)
(2.4249 -1.57244 0)
(2.9922 -1.52697 0)
(3.57347 -1.61831 0)
(4.15697 -1.83915 0)
(4.73361 -2.18706 0)
(5.2941 -2.66426 0)
(5.82879 -3.27712 0)
(6.32636 -4.0357 0)
(6.77102 -4.9526 0)
(11.1639 0.603913 0)
(10.9994 -1.14463 0)
(10.435 -2.73889 0)
(9.54756 -4.09457 0)
(8.44335 -5.12612 0)
(7.23796 -5.79069 0)
(6.02229 -6.13318 0)
(4.85472 -6.2389 0)
(3.79004 -6.12206 0)
(2.90033 -5.74487 0)
(2.24484 -5.15778 0)
(1.82224 -4.50733 0)
(1.58352 -3.90395 0)
(1.53001 -3.35367 0)
(1.63252 -2.87666 0)
(1.8607 -2.49763 0)
(2.18157 -2.23288 0)
(2.56383 -2.08977 0)
(2.98226 -2.06955 0)
(3.41818 -2.16986 0)
(3.85786 -2.38801 0)
(4.28987 -2.72313 0)
(4.703 -3.17684 0)
(5.08518 -3.75326 0)
(5.42251 -4.45847 0)
(5.69789 -5.29946 0)
(9.45836 0.510848 0)
(9.3887 -0.835871 0)
(9.02026 -2.08265 0)
(8.40205 -3.17151 0)
(7.60489 -4.03681 0)
(6.71185 -4.63592 0)
(5.79331 -4.98789 0)
(4.89539 -5.14957 0)
(4.05519 -5.14513 0)
(3.32348 -4.95834 0)
(2.75435 -4.60541 0)
(2.36877 -4.16523 0)
(2.13773 -3.72824 0)
(2.03565 -3.33591 0)
(2.05803 -2.99509 0)
(2.18084 -2.72583 0)
(2.38178 -2.54417 0)
(2.63898 -2.459 0)
(2.93226 -2.47406 0)
(3.2443 -2.59042 0)
(3.56034 -2.8083 0)
(3.86735 -3.12832 0)
(4.15269 -3.55221 0)
(4.40313 -4.08293 0)
(4.60391 -4.72416 0)
(4.738 -5.47956 0)
(8.14752 0.400327 0)
(8.1319 -0.646138 0)
(7.89283 -1.62813 0)
(7.46127 -2.50479 0)
(6.88248 -3.22915 0)
(6.21574 -3.76383 0)
(5.51739 -4.11018 0)
(4.82595 -4.30189 0)
(4.16756 -4.36372 0)
(3.57461 -4.2955 0)
(3.0875 -4.10439 0)
(2.73303 -3.83027 0)
(2.50695 -3.53256 0)
(2.3787 -3.26365 0)
(2.34564 -3.03542 0)
(2.39459 -2.85827 0)
(2.50791 -2.74538 0)
(2.66868 -2.7069 0)
(2.86043 -2.74912 0)
(3.06779 -2.87574 0)
(3.27688 -3.08893 0)
(3.47476 -3.3902 0)
(3.64871 -3.78105 0)
(3.78538 -4.2632 0)
(3.87029 -4.83839 0)
(3.88735 -5.50778 0)
(7.12397 0.287409 0)
(7.13825 -0.538042 0)
(6.98414 -1.32164 0)
(6.6827 -2.03197 0)
(6.26258 -2.63653 0)
(5.76351 -3.10741 0)
(5.22862 -3.43813 0)
(4.69188 -3.64458 0)
(4.17483 -3.7459 0)
(3.69749 -3.75136 0)
(3.2862 -3.66927 0)
(2.96561 -3.51961 0)
(2.74385 -3.33579 0)
(2.60436 -3.15961 0)
(2.53384 -3.01527 0)
(2.52854 -2.90893 0)
(2.5739 -2.85154 0)
(2.65693 -2.85268 0)
(2.76486 -2.91898 0)
(2.88465 -3.05463 0)
(3.00366 -3.26226 0)
(3.10962 -3.54355 0)
(3.19013 -3.8997 0)
(3.23234 -4.33161 0)
(3.22249 -4.8397 0)
(3.14573 -5.42362 0)
(6.31699 0.174928 0)
(6.34805 -0.481986 0)
(6.25007 -1.11309 0)
(6.03809 -1.69287 0)
(5.73184 -2.19735 0)
(5.35789 -2.60666 0)
(4.94614 -2.91446 0)
(4.52455 -3.12654 0)
(4.11378 -3.25319 0)
(3.7292 -3.30409 0)
(3.38593 -3.29084 0)
(3.10086 -3.22771 0)
(2.88671 -3.13183 0)
(2.73869 -3.03106 0)
(2.64229 -2.95191 0)
(2.59636 -2.9015 0)
(2.58986 -2.8883 0)
(2.61219 -2.92042 0)
(2.65315 -3.00415 0)
(2.70172 -3.14377 0)
(2.74663 -3.34206 0)
(2.77662 -3.60069 0)
(2.78022 -3.92056 0)
(2.74547 -4.30183 0)
(2.65968 -4.74397 0)
(2.50934 -5.24554 0)
(5.67335 0.0710074 0)
(5.71244 -0.457107 0)
(5.65182 -0.970089 0)
(5.50175 -1.4476 0)
(5.27608 -1.87168 0)
(4.99406 -2.22667 0)
(4.67668 -2.50668 0)
(4.34377 -2.71489 0)
(4.01286 -2.85664 0)
(3.69802 -2.93833 0)
(3.41141 -2.96904 0)
(3.16106 -2.96317 0)
(2.95844 -2.93079 0)
(2.80599 -2.88827 0)
(2.69183 -2.85881 0)
(2.61593 -2.85011 0)
(2.56966 -2.86969 0)
(2.54437 -2.92436 0)
(2.53178 -3.01966 0)
(2.52276 -3.1595 0)
(2.50753 -3.34635 0)
(2.47609 -3.58153 0)
(2.41811 -3.8654 0)
(2.32268 -4.19742 0)
(2.17827 -4.57626 0)
(1.97269 -4.99973 0)
(5.15351 -0.0236762 0)
(5.19518 -0.453085 0)
(5.15949 -0.87352 0)
(5.05311 -1.26933 0)
(4.88571 -1.62691 0)
(4.6707 -1.93486 0)
(4.42366 -2.18735 0)
(4.15941 -2.3851 0)
(3.89102 -2.53175 0)
(3.62951 -2.63225 0)
(3.38605 -2.69232 0)
(3.16614 -2.72358 0)
(2.97686 -2.73458 0)
(2.82336 -2.73482 0)
(2.69731 -2.74235 0)
(2.59921 -2.76451 0)
(2.52253 -2.808 0)
(2.46029 -2.87841 0)
(2.4058 -2.9803 0)
(2.3515 -3.11695 0)
(2.28903 -3.29036 0)
(2.2097 -3.50139 0)
(2.10429 -3.74985 0)
(1.96311 -4.03456 0)
(1.77579 -4.3535 0)
(1.5314 -4.7039 0)
(4.72919 -0.108051 0)
(4.7706 -0.460594 0)
(4.75121 -0.808318 0)
(4.67553 -1.13879 0)
(4.55023 -1.44182 0)
(4.38486 -1.70866 0)
(4.19054 -1.93451 0)
(3.97804 -2.11928 0)
(3.75817 -2.26422 0)
(3.53867 -2.37389 0)
(3.32884 -2.45204 0)
(3.13347 -2.50719 0)
(2.95712 -2.54665 0)
(2.80475 -2.57677 0)
(2.67123 -2.61061 0)
(2.55715 -2.65448 0)
(2.45769 -2.71422 0)
(2.36741 -2.79439 0)
(2.28094 -2.89859 0)
(2.19203 -3.02938 0)
(2.09368 -3.18821 0)
(1.97842 -3.37538 0)
(1.83822 -3.58999 0)
(1.66481 -3.83028 0)
(1.44877 -4.09361 0)
(1.18085 -4.37681 0)
(4.37861 -0.183048 0)
(4.41829 -0.475254 0)
(4.40981 -0.764974 0)
(4.35606 -1.0425 0)
(4.26154 -1.30015 0)
(4.13288 -1.53143 0)
(3.97849 -1.73181 0)
(3.80561 -1.90157 0)
(3.62306 -2.04042 0)
(3.43655 -2.15216 0)
(3.25325 -2.23974 0)
(3.07741 -2.30918 0)
(2.91281 -2.36619 0)
(2.76277 -2.41593 0)
(2.62496 -2.46725 0)
(2.49972 -2.52555 0)
(2.38367 -2.59566 0)
(2.27278 -2.68107 0)
(2.16272 -2.78446 0)
(2.04837 -2.90768 0)
(1.92398 -3.05164 0)
(1.78317 -3.21605 0)
(1.61914 -3.39942 0)
(1.42491 -3.59929 0)
(1.19192 -3.81227 0)
(0.913443 -4.03449 0)
(4.08646 -0.249383 0)
(4.12383 -0.493821 0)
(4.12267 -0.73708 0)
(4.08479 -0.971387 0)
(4.01321 -1.19088 0)
(3.9121 -1.39127 0)
(3.78812 -1.5678 0)
(3.64588 -1.72145 0)
(3.4922 -1.85134 0)
(3.3318 -1.9601 0)
(3.16944 -2.05076 0)
(3.00942 -2.12713 0)
(2.85513 -2.19366 0)
(2.70737 -2.25549 0)
(2.56713 -2.31736 0)
(2.43394 -2.38422 0)
(2.30563 -2.46012 0)
(2.17948 -2.5475 0)
(2.05194 -2.64805 0)
(1.91871 -2.76288 0)
(1.77508 -2.89228 0)
(1.61601 -3.03534 0)
(1.4358 -3.19019 0)
(1.22819 -3.35402 0)
(0.986131 -3.52271 0)
(0.703147 -3.69058 0)
(3.84052 -0.308305 0)
(3.87575 -0.51455 0)
(3.88005 -0.720105 0)
(3.85415 -0.918975 0)
(3.80006 -1.1061 0)
(3.72041 -1.27906 0)
(3.61959 -1.43393 0)
(3.50137 -1.57065 0)
(3.36973 -1.68971 0)
(3.22948 -1.79199 0)
(3.08263 -1.88149 0)
(2.93472 -1.95925 0)
(2.78663 -2.03025 0)
(2.64053 -2.09739 0)
(2.49713 -2.16447 0)
(2.3559 -2.23554 0)
(2.21601 -2.31317 0)
(2.07575 -2.39888 0)
(1.93223 -2.49361 0)
(1.78178 -2.59876 0)
(1.62087 -2.71412 0)
(1.44571 -2.83723 0)
(1.2515 -2.96542 0)
(1.03251 -3.09583 0)
(0.782506 -3.22414 0)
(0.494646 -3.3442 0)
(3.63235 -0.361821 0)
(3.66536 -0.537534 0)
(3.67324 -0.712117 0)
(3.65638 -0.880942 0)
(3.61489 -1.04121 0)
(3.55093 -1.18853 0)
(3.46668 -1.32217 0)
(3.36439 -1.44078 0)
(3.2485 -1.54404 0)
(3.11987 -1.63692 0)
(2.98436 -1.71715 0)
(2.84063 -1.79167 0)
(2.69382 -1.86123 0)
(2.54497 -1.92753 0)
(2.39449 -1.99399 0)
(2.24261 -2.06535 0)
(2.08896 -2.14337 0)
(1.93209 -2.2273 0)
(1.76861 -2.31581 0)
(1.59737 -2.40994 0)
(1.41679 -2.51266 0)
(1.22451 -2.61932 0)
(1.01463 -2.7253 0)
(0.780597 -2.82648 0)
(0.516345 -2.91758 0)
(0.215991 -2.99287 0)
(3.45187 -0.409236 0)
(3.48225 -0.559478 0)
(3.49074 -0.709866 0)
(3.47871 -0.85157 0)
(3.44472 -0.986528 0)
(3.38847 -1.11264 0)
(3.31596 -1.22383 0)
(3.21596 -1.3291 0)
(3.12014 -1.41821 0)
(2.99087 -1.49825 0)
(2.85687 -1.57035 0)
(2.71318 -1.63656 0)
(2.55613 -1.69963 0)
(2.38899 -1.76218 0)
(2.21819 -1.8262 0)
(2.04289 -1.89336 0)
(1.85927 -1.96494 0)
(1.66994 -2.04164 0)
(1.47141 -2.12323 0)
(1.2892 -2.21016 0)
(1.07347 -2.29885 0)
(0.845113 -2.38577 0)
(0.599648 -2.4668 0)
(0.330889 -2.5372 0)
(0.0347111 -2.59169 0)
(-0.290983 -2.62543 0)
(3.29491 -0.451282 0)
(3.3181 -0.579664 0)
(3.32239 -0.707364 0)
(3.30615 -0.828582 0)
(3.26765 -0.939852 0)
(3.20624 -1.04069 0)
(3.12363 -1.13104 0)
(3.01915 -1.21226 0)
(2.89581 -1.28404 0)
(2.75244 -1.34627 0)
(2.59371 -1.40206 0)
(2.41905 -1.45304 0)
(2.23133 -1.5027 0)
(2.03265 -1.55511 0)
(1.82341 -1.60993 0)
(1.6032 -1.66761 0)
(1.37427 -1.73052 0)
(1.13773 -1.80025 0)
(0.891064 -1.8767 0)
(0.634342 -1.95424 0)
(0.365543 -2.02716 0)
(0.0859772 -2.09483 0)
(-0.207434 -2.15468 0)
(-0.516962 -2.20178 0)
(-0.844862 -2.23082 0)
(-1.18663 -2.23482 0)
(3.1426 -0.483458 0)
(3.14004 -0.58944 0)
(3.12137 -0.692188 0)
(3.08457 -0.788513 0)
(3.02444 -0.875532 0)
(2.93764 -0.952416 0)
(2.8239 -1.01878 0)
(2.68396 -1.07549 0)
(2.51881 -1.12314 0)
(2.32966 -1.16307 0)
(2.11793 -1.19771 0)
(1.8832 -1.22974 0)
(1.63226 -1.26217 0)
(1.34834 -1.2971 0)
(1.05871 -1.33665 0)
(0.755198 -1.38198 0)
(0.437488 -1.43373 0)
(0.107075 -1.4914 0)
(-0.235727 -1.55334 0)
(-0.591303 -1.61611 0)
(-0.959207 -1.67627 0)
(-1.33865 -1.73136 0)
(-1.72918 -1.77778 0)
(-2.13063 -1.81058 0)
(-2.54006 -1.82484 0)
(-2.95466 -1.81366 0)
(2.97619 -0.452332 0)
(2.92346 -0.56637 0)
(2.84624 -0.649155 0)
(2.73763 -0.716862 0)
(2.60315 -0.770383 0)
(2.4395 -0.810813 0)
(2.24679 -0.841106 0)
(2.02516 -0.863614 0)
(1.77433 -0.879469 0)
(1.4943 -0.890163 0)
(1.18597 -0.897644 0)
(0.850776 -0.904897 0)
(0.492206 -0.913631 0)
(0.114101 -0.927397 0)
(-0.282796 -0.950131 0)
(-0.698201 -0.981109 0)
(-1.13091 -1.01846 0)
(-1.58035 -1.06135 0)
(-2.04676 -1.10897 0)
(-2.52975 -1.15911 0)
(-3.02759 -1.20909 0)
(-3.53805 -1.25577 0)
(-4.05694 -1.29475 0)
(-4.58432 -1.32492 0)
(-5.09805 -1.33475 0)
(-5.6587 -1.31126 0)
(2.71919 -0.381885 0)
(2.56454 -0.432752 0)
(2.37362 -0.476497 0)
(2.14764 -0.51279 0)
(1.89168 -0.540335 0)
(1.61089 -0.556742 0)
(1.30855 -0.560985 0)
(0.982036 -0.553988 0)
(0.637621 -0.53376 0)
(0.245858 -0.501587 0)
(-0.174774 -0.464246 0)
(-0.617086 -0.430448 0)
(-1.07485 -0.403213 0)
(-1.54504 -0.38447 0)
(-2.02859 -0.375317 0)
(-2.52846 -0.374846 0)
(-3.04782 -0.381501 0)
(-3.58931 -0.39352 0)
(-4.15501 -0.409497 0)
(-4.74685 -0.425773 0)
(-5.35925 -0.441763 0)
(-5.9967 -0.45677 0)
(-6.63782 -0.470288 0)
(-7.26556 -0.482148 0)
(-7.94325 -0.484527 0)
(-8.39117 -0.494622 0)
(2.04521 -0.177374 0)
(1.78372 -0.188629 0)
(1.49575 -0.192643 0)
(1.18945 -0.186709 0)
(0.872543 -0.175293 0)
(0.551683 -0.16061 0)
(0.232561 -0.140862 0)
(-0.0677865 -0.116784 0)
(-0.379577 -0.0796241 0)
(-0.591099 -0.0336309 0)
(-0.785641 0.00216817 0)
(-0.959906 0.0165541 0)
(-1.10892 0.0179958 0)
(-1.24057 0.0138295 0)
(-1.36405 0.0077681 0)
(-1.48455 0.00161246 0)
(-1.60535 -0.00406575 0)
(-1.72896 -0.0100167 0)
(-1.85794 -0.0187565 0)
(-1.99543 -0.0367472 0)
(-2.14426 -0.0619272 0)
(-2.30908 -0.0975537 0)
(-2.49372 -0.146438 0)
(-2.70842 -0.220181 0)
(-2.97571 -0.343896 0)
(-3.31874 -0.479672 0)
(-33.5187 25.4636 0)
(-27.269 53.3985 0)
(13.8028 56.8147 0)
(49.1294 45.1485 0)
(69.8245 25.6881 0)
(80.4624 7.42988 0)
(88.8583 -8.41119 0)
(94.659 -24.0292 0)
(98.7991 -35.7023 0)
(101.973 -44.4577 0)
(102.473 -53.1239 0)
(101.233 -63.848 0)
(109.513 -68.0755 0)
(143.585 -48.6818 0)
(192.093 -15.9448 0)
(192.521 -19.5114 0)
(141.09 -75.7033 0)
(71.9557 -137.759 0)
(18.5093 -181.214 0)
(-23.9282 -200.237 0)
(-38.7624 -194.716 0)
(-44.1051 -178.125 0)
(-43.8819 -157.605 0)
(-38.5858 -136.101 0)
(-29.5296 -116.354 0)
(-18.1225 -99.9468 0)
(-5.99483 -87.8848 0)
(4.7482 -80.0589 0)
(12.1532 -73.8108 0)
(15.029 -64.7876 0)
(11.3835 -48.3536 0)
(-3.59602 -15.885 0)
(-28.2332 40.0805 0)
(-59.7795 112.172 0)
(-87.2298 194.874 0)
(-109.605 274.17 0)
(-127.119 340.158 0)
(-135.933 380.77 0)
(-129.176 378.857 0)
(-112.978 348.905 0)
(-90.9062 300.131 0)
(-65.7091 241.849 0)
(-40.3081 182.304 0)
(-17.4475 127.424 0)
(0.989111 80.5694 0)
(17.3225 43.4002 0)
(32.603 10.272 0)
(41.5919 -12.7324 0)
(47.0666 -25.6357 0)
(49.1147 -32.1316 0)
(49.0131 -34.2002 0)
(48.395 -34.0579 0)
(47.7893 -32.8886 0)
(47.4111 -31.2514 0)
(47.3352 -29.5683 0)
(47.5209 -28.1745 0)
(47.9945 -27.2017 0)
(48.9649 -26.3956 0)
(50.8721 -25.2025 0)
(54.113 -23.3344 0)
(58.2657 -21.3827 0)
(61.7399 -21.4905 0)
(62.1985 -26.6088 0)
(57.9628 -38.4946 0)
(48.571 -57.0363 0)
(34.6214 -80.265 0)
(17.5811 -103.514 0)
(3.44928 -122.518 0)
(-15.4461 -136.072 0)
(-26.8115 -142.704 0)
(-35.7806 -140.763 0)
(-42.0113 -133.73 0)
(-45.9059 -123.28 0)
(-47.8014 -110.689 0)
(-47.9663 -97.1277 0)
(-46.7374 -83.6091 0)
(-44.4496 -70.9514 0)
(-41.4163 -59.8059 0)
(-37.9395 -50.6288 0)
(-34.346 -43.6024 0)
(-30.9988 -38.5183 0)
(-28.2114 -34.7316 0)
(-26.1182 -31.3839 0)
(-24.6366 -27.7636 0)
(-23.5432 -23.3888 0)
(-22.8651 -17.7472 0)
(-23.5812 -9.62001 0)
(-24.7241 2.92105 0)
(-26.2176 20.2264 0)
(-27.3128 41.7964 0)
(-27.6745 66.0519 0)
(-27.3249 91.4885 0)
(-26.151 116.464 0)
(-24.1134 139.173 0)
(-21.2169 157.672 0)
(-17.4605 169.585 0)
(-12.7036 171.395 0)
(-7.31577 165.545 0)
(-1.71273 154.21 0)
(3.9089 138.787 0)
(9.35943 120.804 0)
(14.4478 101.718 0)
(19.0549 82.7768 0)
(23.1354 64.908 0)
(26.7389 48.6855 0)
(30.0828 34.3886 0)
(33.2527 22.1776 0)
(35.9273 12.5045 0)
(38.0833 5.77906 0)
(40.0798 1.63557 0)
(41.7793 -0.83635 0)
(43.2012 -2.74682 0)
(44.2594 -5.30647 0)
(44.8019 -9.60365 0)
(44.6982 -16.3769 0)
(43.8768 -25.8543 0)
(1.28293 23.6936 0)
(11.1975 37.6548 0)
(32.879 37.4456 0)
(52.0435 26.6622 0)
(64.243 12.4045 0)
(71.9998 -1.06593 0)
(77.3982 -14.3915 0)
(79.8965 -26.9117 0)
(80.8645 -37.864 0)
(81.289 -47.2687 0)
(82.1473 -54.7137 0)
(82.4967 -61.3733 0)
(80.6011 -70.1141 0)
(82.2045 -77.7149 0)
(103.582 -69.5795 0)
(147.575 -41.4924 0)
(172.655 -25.7257 0)
(138.788 -57.5884 0)
(79.049 -116.936 0)
(21.8821 -159.931 0)
(-17.091 -177.432 0)
(-33.9776 -172.19 0)
(-37.2233 -158.955 0)
(-35.7168 -142.831 0)
(-30.9064 -126.493 0)
(-24.0167 -111.336 0)
(-16.9534 -98.4415 0)
(-11.8362 -87.5736 0)
(-10.6305 -75.9196 0)
(-15.2942 -59.1285 0)
(-29.6539 -31.7345 0)
(-51.326 12.5132 0)
(-79.4031 70.7352 0)
(-107.272 142.513 0)
(-129.652 219.865 0)
(-145.749 292.125 0)
(-154.812 349.261 0)
(-150.878 374.694 0)
(-132.228 360.899 0)
(-106.201 322.976 0)
(-76.3343 269.874 0)
(-45.8049 210.998 0)
(-18.005 153.905 0)
(4.83606 103.487 0)
(24.0193 61.8197 0)
(41.6708 25.6552 0)
(51.4981 -2.13909 0)
(57.0407 -18.5607 0)
(58.581 -27.619 0)
(57.4357 -31.6247 0)
(55.638 -32.8601 0)
(53.7505 -32.6461 0)
(52.0665 -31.7013 0)
(50.7646 -30.4529 0)
(49.9145 -29.1811 0)
(49.4653 -28.139 0)
(49.3186 -27.5359 0)
(49.504 -27.3744 0)
(50.22 -27.2743 0)
(51.9822 -26.7528 0)
(55.0043 -25.5356 0)
(58.6289 -24.4782 0)
(60.9797 -25.931 0)
(59.6866 -32.6058 0)
(53.4294 -45.5565 0)
(42.0306 -63.9953 0)
(26.6323 -84.9338 0)
(9.92671 -104.037 0)
(-6.02766 -119.532 0)
(-20.1418 -129.422 0)
(-31.1021 -131.815 0)
(-38.5174 -127.434 0)
(-43.4801 -119.443 0)
(-46.3927 -108.991 0)
(-47.5022 -97.2208 0)
(-47.1303 -85.1222 0)
(-45.6207 -73.5246 0)
(-43.3001 -63.0816 0)
(-40.5016 -54.2316 0)
(-37.574 -47.1334 0)
(-34.858 -41.6124 0)
(-32.6113 -37.1771 0)
(-30.9464 -33.172 0)
(-29.8432 -28.9647 0)
(-29.2046 -23.9845 0)
(-29.1615 -17.5614 0)
(-30.2873 -8.48753 0)
(-31.4735 4.5607 0)
(-32.9967 21.6975 0)
(-34.0829 42.5457 0)
(-34.1898 65.8481 0)
(-33.3027 90.2144 0)
(-31.3374 114.07 0)
(-28.2494 135.665 0)
(-24.0835 153.097 0)
(-18.8776 164.018 0)
(-12.6313 164.866 0)
(-5.91202 158.707 0)
(0.843729 147.32 0)
(7.39974 132.11 0)
(13.5437 114.559 0)
(19.1032 96.0618 0)
(23.9951 77.7729 0)
(28.2272 60.5248 0)
(31.9035 44.8017 0)
(35.1908 30.8861 0)
(38.0471 19.1125 0)
(40.2409 9.9815 0)
(41.9571 3.7018 0)
(43.4803 -0.153968 0)
(44.7713 -2.37489 0)
(45.8696 -3.96743 0)
(46.6784 -6.06272 0)
(47.021 -9.72462 0)
(46.7301 -15.7307 0)
(45.7 -24.3847 0)
(16.3984 15.1246 0)
(23.9865 19.6196 0)
(35.9498 17.3686 0)
(46.9069 11.6687 0)
(55.316 3.24277 0)
(60.386 -7.17263 0)
(63.1497 -17.6949 0)
(64.1995 -27.6574 0)
(63.7551 -37.0451 0)
(62.2673 -45.9032 0)
(60.4475 -54.2455 0)
(59.1038 -61.7055 0)
(58.03 -68.1642 0)
(55.639 -75.2936 0)
(53.7434 -83.6636 0)
(63.1746 -84.9504 0)
(93.7923 -67.5896 0)
(129.435 -43.6725 0)
(123.16 -47.7861 0)
(83.721 -91.063 0)
(26.3783 -135.569 0)
(-9.15981 -155.659 0)
(-32.7706 -155.276 0)
(-38.2532 -142.798 0)
(-38.5791 -129.391 0)
(-37.4646 -115.447 0)
(-36.8824 -101.657 0)
(-38.8416 -86.7987 0)
(-45.4336 -68.5789 0)
(-59.0248 -43.3127 0)
(-79.4492 -6.9377 0)
(-103.485 41.2767 0)
(-128.603 100.347 0)
(-150.161 167.637 0)
(-165.636 237.014 0)
(-174.463 300.734 0)
(-174.114 346.544 0)
(-156.396 354.434 0)
(-126.891 331.006 0)
(-91.6111 287.269 0)
(-55.2394 232.826 0)
(-21.5499 176.528 0)
(6.66362 124.663 0)
(29.6671 80.3091 0)
(49.4921 42.232 0)
(61.2551 11.331 0)
(67.0631 -8.3529 0)
(68.3256 -19.9751 0)
(66.306 -26.0944 0)
(63.4644 -28.9821 0)
(60.3922 -30.0234 0)
(57.4996 -30.0373 0)
(55.0083 -29.5323 0)
(53.0105 -28.8265 0)
(51.5392 -28.1073 0)
(50.5619 -27.5159 0)
(49.9641 -27.2208 0)
(49.6256 -27.3843 0)
(49.5545 -27.9779 0)
(50.005 -28.61 0)
(51.5089 -28.73 0)
(54.1859 -28.1355 0)
(57.2103 -27.8141 0)
(58.5382 -30.0957 0)
(55.7577 -37.47 0)
(47.8366 -50.4447 0)
(35.1105 -67.5649 0)
(19.3624 -85.7572 0)
(3.02935 -102.113 0)
(-12.4719 -114.333 0)
(-25.3543 -120.479 0)
(-34.5819 -119.872 0)
(-40.6465 -114.419 0)
(-44.549 -106.215 0)
(-46.5932 -96.3224 0)
(-47.0742 -85.7262 0)
(-46.3446 -75.255 0)
(-44.7539 -65.5561 0)
(-42.6506 -57.0611 0)
(-40.3804 -49.9405 0)
(-38.2575 -44.0796 0)
(-36.516 -39.1069 0)
(-35.2887 -34.4942 0)
(-34.6007 -29.6625 0)
(-34.4049 -24.0218 0)
(-34.8585 -16.8521 0)
(-36.2092 -7.04665 0)
(-37.52 6.25648 0)
(-38.9999 23.0825 0)
(-39.8382 43.0404 0)
(-39.6418 65.1791 0)
(-38.2647 88.2308 0)
(-35.582 110.708 0)
(-31.5751 130.954 0)
(-26.3083 147.112 0)
(-19.8313 156.879 0)
(-12.2996 156.864 0)
(-4.46578 150.566 0)
(3.24367 139.35 0)
(10.5625 124.601 0)
(17.2647 107.724 0)
(23.1953 90.0179 0)
(28.3099 72.5386 0)
(32.6647 56.0302 0)
(36.3878 40.9387 0)
(39.542 27.6032 0)
(42.0428 16.4819 0)
(43.8061 7.98882 0)
(45.0909 2.14549 0)
(46.1603 -1.46428 0)
(47.0614 -3.51097 0)
(47.8503 -4.87676 0)
(48.4312 -6.58425 0)
(48.6063 -9.65116 0)
(48.1701 -14.8912 0)
(46.9795 -22.6938 0)
(19.6891 9.95689 0)
(24.4931 11.0309 0)
(30.5844 9.69775 0)
(38.1873 5.00224 0)
(43.7955 -2.21209 0)
(47.2941 -10.4619 0)
(49.1564 -18.9827 0)
(49.5525 -27.5146 0)
(48.7077 -35.8289 0)
(46.929 -43.796 0)
(44.4135 -51.4841 0)
(41.373 -59.0455 0)
(38.2714 -66.3901 0)
(35.4054 -73.1386 0)
(31.9138 -79.4299 0)
(27.2663 -85.9751 0)
(26.8329 -90.5634 0)
(41.7621 -85.802 0)
(72.2882 -70.0137 0)
(87.7001 -58.0437 0)
(67.4629 -69.6443 0)
(28.8555 -104.209 0)
(-12.9301 -127.608 0)
(-37.2995 -133.327 0)
(-53.2287 -126.783 0)
(-60.8534 -112.516 0)
(-67.731 -96.1359 0)
(-76.9111 -76.7663 0)
(-90.3329 -52.6169 0)
(-108.654 -21.1575 0)
(-129.237 19.042 0)
(-150.771 67.4547 0)
(-169.887 123.129 0)
(-184.446 183.742 0)
(-193.696 245.645 0)
(-196.229 300.551 0)
(-183.673 330.006 0)
(-152.273 321.871 0)
(-111.246 289.624 0)
(-67.9067 243.301 0)
(-27.7671 191.45 0)
(6.25696 141.082 0)
(33.7509 96.4031 0)
(55.6772 57.7599 0)
(69.7955 26.0591 0)
(76.0565 4.22304 0)
(77.0466 -9.46676 0)
(74.6741 -17.6915 0)
(71.0037 -22.3923 0)
(66.9719 -24.941 0)
(63.0882 -26.174 0)
(59.6164 -26.6312 0)
(56.6599 -26.683 0)
(54.2377 -26.57 0)
(52.3369 -26.4386 0)
(50.9277 -26.379 0)
(49.9403 -26.4826 0)
(49.2485 -26.8874 0)
(48.7342 -27.7349 0)
(48.3915 -28.9685 0)
(48.5396 -30.1891 0)
(49.6857 -30.8323 0)
(51.9085 -30.7565 0)
(54.291 -30.9564 0)
(54.727 -33.6155 0)
(50.8501 -40.9195 0)
(41.9185 -52.9959 0)
(28.6316 -68.2412 0)
(12.8966 -83.9668 0)
(-3.08977 -97.6084 0)
(-17.7391 -106.833 0)
(-29.3291 -110.508 0)
(-37.1056 -108.126 0)
(-42.1392 -102.304 0)
(-45.1836 -94.4138 0)
(-46.5752 -85.4086 0)
(-46.6636 -76.1338 0)
(-45.8216 -67.2331 0)
(-44.411 -59.1442 0)
(-42.7732 -52.0672 0)
(-41.2085 -45.9492 0)
(-39.9488 -40.5135 0)
(-39.1421 -35.3261 0)
(-38.8383 -29.8747 0)
(-39.0309 -23.5962 0)
(-39.8614 -15.7774 0)
(-41.3213 -5.46026 0)
(-42.6486 7.89071 0)
(-43.9495 24.2312 0)
(-44.5029 43.2149 0)
(-43.9564 64.0602 0)
(-42.0981 85.6134 0)
(-38.793 106.507 0)
(-34.02 125.208 0)
(-27.8534 139.936 0)
(-20.3375 148.368 0)
(-11.7883 147.697 0)
(-3.08527 141.378 0)
(5.36123 130.522 0)
(13.2623 116.435 0)
(20.3876 100.427 0)
(26.6034 83.6819 0)
(31.8958 67.1469 0)
(36.3509 51.494 0)
(40.0654 37.1708 0)
(43.023 24.5988 0)
(45.1685 14.2801 0)
(46.5583 6.47978 0)
(47.4379 1.07387 0)
(48.0939 -2.32258 0)
(48.6383 -4.26629 0)
(49.1422 -5.49969 0)
(49.5245 -6.90867 0)
(49.5795 -9.43153 0)
(49.0624 -13.9056 0)
(47.7793 -20.8227 0)
(17.7253 6.11866 0)
(21.3964 5.74706 0)
(26.289 3.47593 0)
(31.021 -1.01583 0)
(34.771 -6.78189 0)
(37.273 -13.2154 0)
(38.4809 -20.0918 0)
(38.4684 -27.1891 0)
(37.3846 -34.3006 0)
(35.3962 -41.3338 0)
(32.6417 -48.261 0)
(29.1786 -55.0765 0)
(25.0014 -61.837 0)
(20.2158 -68.5856 0)
(15.0984 -74.9274 0)
(9.59244 -80.3687 0)
(3.49492 -86.528 0)
(-1.14076 -92.7443 0)
(-0.980517 -89.6672 0)
(10.7072 -81.491 0)
(27.7308 -71.4376 0)
(25.4427 -69.406 0)
(1.71843 -80.5858 0)
(-30.8973 -96.8128 0)
(-61.4215 -102.963 0)
(-84.5303 -97.6664 0)
(-103.007 -82.8947 0)
(-120.015 -60.9666 0)
(-137.614 -32.9051 0)
(-156.356 1.14631 0)
(-175.258 41.215 0)
(-192.563 87.134 0)
(-206.645 138.494 0)
(-216.42 194.376 0)
(-219.658 249.812 0)
(-209.356 290.673 0)
(-176.63 295.882 0)
(-130.862 273.735 0)
(-80.7824 236.654 0)
(-33.1453 193.614 0)
(5.60432 149.279 0)
(36.6417 107.684 0)
(60.5578 70.8116 0)
(75.8565 40.1992 0)
(82.7278 17.9997 0)
(83.7346 3.10346 0)
(81.3133 -6.78414 0)
(77.2331 -13.2741 0)
(72.6164 -17.4667 0)
(68.0756 -20.1349 0)
(63.9119 -21.806 0)
(60.2549 -22.8459 0)
(57.1365 -23.5102 0)
(54.534 -23.9834 0)
(52.4036 -24.3966 0)
(50.7029 -24.8336 0)
(49.3909 -25.3525 0)
(48.394 -26.0317 0)
(47.5863 -27.0052 0)
(46.848 -28.4083 0)
(46.1799 -30.1588 0)
(45.9378 -31.857 0)
(46.6211 -32.9381 0)
(48.3136 -33.2447 0)
(50.1083 -33.665 0)
(49.9677 -36.1556 0)
(45.5649 -42.6995 0)
(36.2947 -53.3412 0)
(22.9627 -66.565 0)
(7.50114 -79.9196 0)
(-7.9807 -91.092 0)
(-21.6973 -98.124 0)
(-32.1652 -100.212 0)
(-38.8867 -97.0625 0)
(-43.1371 -91.3487 0)
(-45.5556 -84.0843 0)
(-46.546 -76.1031 0)
(-46.4945 -68.086 0)
(-45.782 -60.4883 0)
(-44.7601 -53.5405 0)
(-43.73 -47.2508 0)
(-42.9268 -41.4275 0)
(-42.5083 -35.7233 0)
(-42.5397 -29.6946 0)
(-43.0305 -22.8325 0)
(-44.0904 -14.4858 0)
(-45.5462 -3.86162 0)
(-46.769 9.36108 0)
(-47.8083 25.0842 0)
(-48.0393 43.0182 0)
(-47.1097 62.4683 0)
(-44.7982 82.4117 0)
(-40.9701 101.603 0)
(-35.6044 118.636 0)
(-28.7575 131.816 0)
(-20.4549 138.799 0)
(-11.1752 137.663 0)
(-1.8508 131.416 0)
(7.10653 121.066 0)
(15.4038 107.795 0)
(22.8209 92.7921 0)
(29.2419 77.1189 0)
(34.6737 61.6195 0)
(39.1996 46.9188 0)
(42.862 33.5113 0)
(45.5983 21.8848 0)
(47.407 12.4703 0)
(48.454 5.38627 0)
(48.9944 0.418196 0)
(49.284 -2.78918 0)
(49.5188 -4.68439 0)
(49.7732 -5.86149 0)
(49.9746 -7.06216 0)
(49.9409 -9.1262 0)
(49.4451 -12.8796 0)
(48.1513 -18.8776 0)
(16.3299 2.67805 0)
(19.4334 1.23739 0)
(22.8451 -1.29802 0)
(26.0348 -4.84643 0)
(28.5226 -9.3657 0)
(30.0494 -14.619 0)
(30.5973 -20.3527 0)
(30.2108 -26.3496 0)
(28.9349 -32.4549 0)
(26.8223 -38.5759 0)
(23.9222 -44.6654 0)
(20.2696 -50.6962 0)
(15.8773 -56.6292 0)
(10.695 -62.4255 0)
(4.65595 -68.0345 0)
(-2.06101 -73.2701 0)
(-9.38719 -77.8978 0)
(-18.0148 -82.2621 0)
(-27.3382 -87.0676 0)
(-33.7297 -87.7846 0)
(-34.8878 -81.0535 0)
(-33.3002 -71.8442 0)
(-34.6475 -65.9635 0)