/*--------------------------------*- C++ -*----------------------------------*\
| =========                 |                                                 |
| \\      /  F ield         | OpenFOAM: The Open Source CFD Toolbox           |
|  \\    /   O peration     | Version:  2206                                  |
|   \\  /    A nd           | Website:  www.openfoam.com                      |
|    \\/     M anipulation  |                                                 |
\*---------------------------------------------------------------------------*/
FoamFile
{
    version     2.0;
    format      ascii;
    arch        "LSB;label=32;scalar=64";
    class       surfaceScalarField;
    location    "18.5001";
    object      ddtCorrDdt0(phi);
}
// * * * * * * * * * * * * * * * * * * * * * * * * * * * * * * * * * * * * * //

dimensions      [0 3 -2 0 0 0 0];

oriented        oriented;

internalField   nonuniform List<scalar> 
9483
(
-0.000312083
3.75453e-05
-0.000306041
-6.04177e-06
-0.000264371
-4.16696e-05
-0.000196838
-6.75334e-05
-0.000115107
-8.17305e-05
-2.83889e-05
-8.67185e-05
5.34265e-05
-8.18154e-05
0.00011629
-6.28636e-05
0.000161065
-4.47753e-05
0.000182564
-2.1499e-05
0.000186013
-3.44839e-06
0.000174036
1.19771e-05
0.000149066
2.49702e-05
0.000115937
3.3129e-05
8.1081e-05
3.48556e-05
4.68293e-05
3.42517e-05
1.49917e-05
3.18375e-05
-1.2675e-05
2.76667e-05
-3.55796e-05
2.29047e-05
-5.49893e-05
1.94096e-05
-7.2578e-05
1.75887e-05
-8.90265e-05
1.64485e-05
-0.000107271
1.82442e-05
-0.000134888
2.76175e-05
-0.000185035
5.01467e-05
7.82375e-05
-0.000263273
-0.000286911
4.64735e-05
-0.000264194
-2.87584e-05
-0.000213738
-9.21262e-05
-0.000142149
-0.000139122
-5.91132e-05
-0.000164767
2.2615e-05
-0.000168447
9.27998e-05
-0.000152
0.0001517
-0.000121764
0.00019165
-8.47247e-05
0.000212416
-4.22651e-05
0.00021304
-4.07289e-06
0.00020123
2.37876e-05
0.000182022
4.41775e-05
0.000157938
5.72138e-05
0.000130746
6.20474e-05
0.000104877
6.01208e-05
8.22543e-05
5.44598e-05
6.25073e-05
4.74137e-05
4.5272e-05
4.01399e-05
3.10285e-05
3.36532e-05
1.95271e-05
2.90902e-05
9.20092e-06
2.67747e-05
-8.52563e-07
2.82977e-05
-9.26984e-06
3.60348e-05
-1.19092e-05
5.27861e-05
7.65178e-05
-1.01895e-05
-0.000205274
6.57915e-05
-0.000187105
-4.69274e-05
-0.000157196
-0.000122035
-0.000118966
-0.000177352
-7.07893e-05
-0.000212943
-1.90175e-05
-0.000220218
3.02897e-05
-0.000201307
7.51923e-05
-0.000166666
0.000112795
-0.000122328
0.000142617
-7.20862e-05
0.000161757
-2.3213e-05
0.000168033
1.75113e-05
0.000164529
4.76816e-05
0.000155022
6.67203e-05
0.000142848
7.42212e-05
0.000130375
7.25942e-05
0.00011884
6.59952e-05
0.000108777
5.74768e-05
0.000100264
4.86522e-05
9.30793e-05
4.08382e-05
8.68539e-05
3.53155e-05
8.15236e-05
3.2105e-05
7.76407e-05
3.21807e-05
7.70024e-05
3.66731e-05
8.32651e-05
4.65234e-05
6.02459e-05
9.95369e-05
-0.000141807
1.73773e-05
-9.37034e-05
-9.50312e-05
-6.06798e-05
-0.000155058
-3.6422e-05
-0.00020161
-1.73691e-05
-0.000231996
-1.63794e-06
-0.00023595
1.27024e-05
-0.000215648
2.36578e-05
-0.000177622
3.33178e-05
-0.000131988
4.53701e-05
-8.41384e-05
5.76818e-05
-3.55248e-05
6.88594e-05
6.3338e-06
7.81093e-05
3.84316e-05
8.58573e-05
5.89723e-05
9.25371e-05
6.75414e-05
9.76957e-05
6.74355e-05
0.000100619
6.30717e-05
0.000101676
5.642e-05
0.000101376
4.8952e-05
9.99734e-05
4.22409e-05
9.8396e-05
3.68929e-05
9.74036e-05
3.30974e-05
9.7891e-05
3.16933e-05
0.000101228
3.33366e-05
0.000109816
3.79347e-05
4.40494e-05
0.000126013
-6.70504e-05
-8.69764e-06
-4.73158e-05
-0.000114766
-4.7442e-05
-0.000154932
-5.33378e-05
-0.000195714
-6.34182e-05
-0.000221915
-7.62814e-05
-0.000223086
-8.63552e-05
-0.000205574
-8.95217e-05
-0.000174455
-8.87387e-05
-0.000132771
-7.81982e-05
-9.46788e-05
-6.46452e-05
-4.90778e-05
-4.67066e-05
-1.16048e-05
-2.55435e-05
1.72685e-05
-2.807e-06
3.62359e-05
1.90372e-05
4.56971e-05
3.77994e-05
4.86734e-05
5.20865e-05
4.87846e-05
6.21986e-05
4.6308e-05
6.90745e-05
4.20761e-05
7.35686e-05
3.77468e-05
7.6797e-05
3.36645e-05
7.94492e-05
3.04452e-05
8.28686e-05
2.82739e-05
8.87334e-05
2.74718e-05
9.86133e-05
2.80549e-05
2.85623e-05
0.0001141
0.00010535
-1.28906e-05
8.82456e-05
-9.76616e-05
6.79363e-05
-0.000134623
4.30399e-05
-0.000170818
1.11289e-05
-0.000190004
-2.19461e-05
-0.000190011
-5.4091e-05
-0.000173429
-7.8435e-05
-0.000150111
-9.12564e-05
-0.000119949
-9.54111e-05
-9.05242e-05
-8.94545e-05
-5.50345e-05
-7.46387e-05
-2.64205e-05
-5.43585e-05
-3.01172e-06
-3.24692e-05
1.43466e-05
-1.21515e-05
2.53794e-05
5.42594e-06
3.1096e-05
1.99782e-05
3.42323e-05
3.09317e-05
3.53545e-05
3.97916e-05
3.32162e-05
4.75886e-05
2.99499e-05
5.46231e-05
2.663e-05
6.147e-05
2.35982e-05
6.87414e-05
2.10025e-05
7.74636e-05
1.87496e-05
8.94869e-05
1.60315e-05
1.25923e-05
0.000105457
0.000189877
-1.03195e-05
0.000159893
-6.7678e-05
0.000130907
-0.000105636
9.25573e-05
-0.000132468
5.08779e-05
-0.000148325
1.22313e-05
-0.000151365
-1.9645e-05
-0.000141553
-4.47763e-05
-0.00012498
-5.89436e-05
-0.000105782
-6.73982e-05
-8.20695e-05
-6.50923e-05
-5.73404e-05
-5.72436e-05
-3.42692e-05
-4.55447e-05
-1.47106e-05
-3.17881e-05
5.9003e-07
-1.80837e-05
1.16749e-05
-6.11147e-06
1.91238e-05
5.51289e-06
2.26079e-05
1.79188e-05
2.29486e-05
2.90946e-05
2.20404e-05
3.84369e-05
2.06076e-05
4.6908e-05
1.81589e-05
5.52463e-05
1.52599e-05
6.40618e-05
1.2187e-05
7.40797e-05
8.73175e-06
8.54924e-05
4.61881e-06
-6.33498e-07
9.87182e-05
0.000190996
-3.98929e-06
0.000168806
-4.54886e-05
0.000141362
-7.81923e-05
0.000109308
-0.000100413
7.36539e-05
-0.000112671
3.84576e-05
-0.000116169
9.197e-06
-0.000112292
-1.2965e-05
-0.000102818
-2.99927e-05
-8.87545e-05
-4.1302e-05
-7.07603e-05
-4.56836e-05
-5.29587e-05
-4.39834e-05
-3.59694e-05
-3.77049e-05
-2.09891e-05
-2.8477e-05
-8.6379e-06
-1.76485e-05
8.46392e-07
-5.94335e-06
7.41867e-06
5.31293e-06
1.13516e-05
1.54835e-05
1.2778e-05
2.49474e-05
1.25765e-05
3.4093e-05
1.1462e-05
4.26637e-05
9.58833e-06
5.08923e-05
7.03134e-06
5.92091e-05
3.87013e-06
6.79105e-05
3.03317e-08
7.72635e-05
-4.73422e-06
-1.08138e-05
8.74438e-05
0.00016814
2.52079e-07
0.000152708
-3.00561e-05
0.00012978
-5.52641e-05
0.000103002
-7.3635e-05
7.50786e-05
-8.47481e-05
4.77689e-05
-8.88588e-05
2.30735e-05
-8.75967e-05
2.95701e-06
-8.27014e-05
-1.22047e-05
-7.35928e-05
-2.21253e-05
-6.08397e-05
-2.70959e-05
-4.79881e-05
-2.73352e-05
-3.57302e-05
-2.39287e-05
-2.43955e-05
-1.80005e-05
-1.45661e-05
-1.04422e-05
-6.71192e-06
-1.95565e-06
-1.06788e-06
6.98757e-06
2.40842e-06
1.57029e-05
4.06266e-06
2.38603e-05
4.41914e-06
3.15565e-05
3.76569e-06
3.89293e-05
2.21554e-06
4.61352e-05
-1.74539e-07
5.33721e-05
-3.36673e-06
6.08219e-05
-7.41945e-06
6.85796e-05
-1.2492e-05
-1.88311e-05
7.6597e-05
0.000140912
2.68562e-06
0.000130474
-1.96181e-05
0.00011409
-3.88802e-05
9.41471e-05
-5.36924e-05
7.26838e-05
-6.32847e-05
5.15633e-05
-6.77383e-05
3.22548e-05
-6.82882e-05
1.57912e-05
-6.62378e-05
3.341e-06
-6.11426e-05
-4.84822e-06
-5.26504e-05
-9.73935e-06
-4.3097e-05
-1.14573e-05
-3.40122e-05
-1.03311e-05
-2.55217e-05
-6.91963e-06
-1.79775e-05
-1.84874e-06
-1.17828e-05
4.24315e-06
-7.15977e-06
1.07632e-05
-4.11163e-06
1.73098e-05
-2.48391e-06
2.37674e-05
-2.03846e-06
3.01103e-05
-2.57725e-06
3.63372e-05
-4.01138e-06
4.24768e-05
-6.31408e-06
4.85867e-05
-9.47663e-06
5.47099e-05
-1.35427e-05
6.0841e-05
-1.86231e-05
-2.4881e-05
6.68909e-05
0.000113712
3.93699e-06
0.000106887
-1.27934e-05
9.55931e-05
-2.75862e-05
8.13989e-05
-3.94982e-05
6.59318e-05
-4.78176e-05
5.05928e-05
-5.23993e-05
3.62708e-05
-5.39662e-05
2.34725e-05
-5.34394e-05
1.299e-05
-5.06601e-05
5.57288e-06
-4.52333e-05
8.79953e-07
-3.84041e-05
-1.38285e-06
-3.17494e-05
-1.37067e-06
-2.55339e-05
5.7052e-07
-1.99187e-05
3.96952e-06
-1.51818e-05
8.32657e-06
-1.15168e-05
1.32086e-05
-8.99368e-06
1.83161e-05
-7.59144e-06
2.34943e-05
-7.21665e-06
2.86744e-05
-7.75727e-06
3.38102e-05
-9.14722e-06
3.88646e-05
-1.13685e-05
4.38184e-05
-1.44305e-05
4.86472e-05
-1.83715e-05
5.32884e-05
-2.32643e-05
-2.92082e-05
5.76156e-05
9.27066e-05
4.0393e-06
8.85479e-05
-8.63461e-06
8.10351e-05
-2.00734e-05
7.11684e-05
-2.96316e-05
6.00523e-05
-3.67015e-05
4.8693e-05
-4.10399e-05
3.77851e-05
-4.30583e-05
2.77549e-05
-4.34092e-05
1.92243e-05
-4.21295e-05
1.29084e-05
-3.89174e-05
8.79394e-06
-3.42896e-05
6.4835e-06
-2.9439e-05
5.85868e-06
-2.49091e-05
6.70664e-06
-2.07667e-05
8.73332e-06
-1.72085e-05
1.16348e-05
-1.44183e-05
1.51283e-05
-1.24872e-05
1.89691e-05
-1.14322e-05
2.29794e-05
-1.1227e-05
2.70508e-05
-1.18287e-05
3.11091e-05
-1.32055e-05
3.50878e-05
-1.53472e-05
3.89224e-05
-1.82651e-05
4.25409e-05
-2.199e-05
4.58475e-05
-2.65709e-05
-3.20675e-05
4.87069e-05
7.75064e-05
3.60813e-06
7.49523e-05
-6.08047e-06
6.98596e-05
-1.49806e-05
6.28764e-05
-2.26484e-05
5.47792e-05
-2.86043e-05
4.63174e-05
-3.25781e-05
3.8028e-05
-3.47689e-05
3.02398e-05
-3.5621e-05
2.3368e-05
-3.52576e-05
1.79594e-05
-3.35087e-05
1.42416e-05
-3.05718e-05
1.19542e-05
-2.71516e-05
1.09295e-05
-2.38844e-05
1.10933e-05
-2.09305e-05
1.22514e-05
-1.83665e-05
1.41702e-05
-1.63372e-05
1.66245e-05
-1.49414e-05
1.94199e-05
-1.42277e-05
2.24046e-05
-1.42116e-05
2.54658e-05
-1.48899e-05
2.85149e-05
-1.62547e-05
3.14725e-05
-1.83047e-05
3.42576e-05
-2.10501e-05
3.67799e-05
-2.45124e-05
3.89307e-05
-2.87216e-05
-3.37105e-05
4.05737e-05
6.59255e-05
2.95022e-06
6.43843e-05
-4.53921e-06
6.09246e-05
-1.15209e-05
5.59616e-05
-1.76854e-05
5.00343e-05
-2.26771e-05
4.36983e-05
-2.6242e-05
3.73705e-05
-2.84411e-05
3.13066e-05
-2.95571e-05
2.5794e-05
-2.9745e-05
2.12396e-05
-2.89543e-05
1.79231e-05
-2.72553e-05
1.57898e-05
-2.50183e-05
1.46266e-05
-2.27212e-05
1.43486e-05
-2.06525e-05
1.48525e-05
-1.88704e-05
1.59842e-05
-1.74689e-05
1.75847e-05
-1.6542e-05
1.95077e-05
-1.61506e-05
2.1623e-05
-1.63269e-05
2.3819e-05
-1.70859e-05
2.59986e-05
-1.84343e-05
2.80719e-05
-2.0378e-05
2.99486e-05
-2.29268e-05
3.15309e-05
-2.60947e-05
3.27073e-05
-2.9898e-05
-3.43513e-05
3.3348e-05
5.6955e-05
2.21966e-06
5.60549e-05
-3.63906e-06
5.37025e-05
-9.16846e-06
5.01588e-05
-1.41417e-05
4.57911e-05
-1.83093e-05
4.10148e-05
-2.14657e-05
3.6167e-05
-2.35934e-05
3.14564e-05
-2.48465e-05
2.70751e-05
-2.53638e-05
2.3295e-05
-2.51742e-05
2.03633e-05
-2.43236e-05
1.83429e-05
-2.29979e-05
1.71099e-05
-2.14882e-05
1.65498e-05
-2.00924e-05
1.66039e-05
-1.89245e-05
1.71695e-05
-1.80346e-05
1.81276e-05
-1.75001e-05
1.93595e-05
-1.73826e-05
2.07544e-05
-1.77218e-05
2.22107e-05
-1.85421e-05
2.36346e-05
-1.98582e-05
2.49364e-05
-2.16798e-05
2.60249e-05
-2.40153e-05
2.68027e-05
-2.68725e-05
2.71627e-05
-3.0258e-05
-3.4174e-05
2.69854e-05
4.99045e-05
1.49385e-06
4.94074e-05
-3.14189e-06
4.78085e-05
-7.5696e-06
4.5277e-05
-1.16102e-05
4.20537e-05
-1.50861e-05
3.84351e-05
-1.78471e-05
3.46936e-05
-1.98518e-05
3.10141e-05
-2.1167e-05
2.75351e-05
-2.18848e-05
2.44266e-05
-2.20656e-05
2.18736e-05
-2.17706e-05
1.99812e-05
-2.11055e-05
1.87221e-05
-2.0229e-05
1.79919e-05
-1.93622e-05
1.77299e-05
-1.86625e-05
1.78665e-05
-1.81711e-05
1.83149e-05
-1.79485e-05
1.89829e-05
-1.80505e-05
1.9779e-05
-1.8518e-05
2.06143e-05
-1.93774e-05
2.14017e-05
-2.06456e-05
2.20549e-05
-2.2333e-05
2.24856e-05
-2.4446e-05
2.26006e-05
-2.69876e-05
2.22997e-05
-2.99572e-05
-3.33489e-05
2.14747e-05
4.43205e-05
8.05053e-07
4.40794e-05
-2.90079e-06
4.29908e-05
-6.48095e-06
4.11723e-05
-9.79167e-06
3.87871e-05
-1.27008e-05
3.60367e-05
-1.50966e-05
3.31251e-05
-1.69403e-05
3.02176e-05
-1.82595e-05
2.74355e-05
-1.91027e-05
2.48902e-05
-1.95203e-05
2.26971e-05
-1.95775e-05
2.09546e-05
-1.9363e-05
1.96871e-05
-1.89615e-05
1.88367e-05
-1.85119e-05
1.83449e-05
-1.81707e-05
1.81582e-05
-1.79843e-05
1.82123e-05
-1.80026e-05
1.84343e-05
-1.82726e-05
1.87477e-05
-1.88313e-05
1.90747e-05
-1.97044e-05
1.93371e-05
-2.0908e-05
1.94553e-05
-2.24513e-05
1.93474e-05
-2.43381e-05
1.8927e-05
-2.65671e-05
1.81022e-05
-2.91325e-05
-3.20226e-05
1.67759e-05
3.98466e-05
1.73761e-07
3.97658e-05
-2.82e-06
3.90247e-05
-5.73989e-06
3.77062e-05
-8.4731e-06
3.59262e-05
-1.09208e-05
3.38274e-05
-1.29979e-05
3.15541e-05
-1.46669e-05
2.92343e-05
-1.59397e-05
2.69761e-05
-1.68445e-05
2.48725e-05
-1.74167e-05
2.29974e-05
-1.77024e-05
2.1417e-05
-1.77826e-05
2.01715e-05
-1.77159e-05
1.92424e-05
-1.75828e-05
1.85848e-05
-1.75132e-05
1.81549e-05
-1.75544e-05
1.7903e-05
-1.77507e-05
1.77712e-05
-1.81407e-05
1.76961e-05
-1.87563e-05
1.76114e-05
-1.96197e-05
1.74485e-05
-2.0745e-05
1.71363e-05
-2.2139e-05
1.66004e-05
-2.38021e-05
1.57621e-05
-2.57289e-05
1.45386e-05
-2.79089e-05
-3.03265e-05
1.28426e-05
3.62185e-05
-3.92575e-07
3.62354e-05
-2.8369e-06
3.57351e-05
-5.23949e-06
3.4774e-05
-7.51207e-06
3.34333e-05
-9.58001e-06
3.18155e-05
-1.138e-05
3.00273e-05
-1.28787e-05
2.81651e-05
-1.40775e-05
2.6312e-05
-1.49914e-05
2.45456e-05
-1.56503e-05
2.2927e-05
-1.60838e-05
2.14993e-05
-1.63549e-05
2.02963e-05
-1.65129e-05
1.93208e-05
-1.66073e-05
1.85434e-05
-1.67358e-05
1.79303e-05
-1.69414e-05
1.74429e-05
-1.72632e-05
1.70352e-05
-1.7733e-05
1.66552e-05
-1.83763e-05
1.6247e-05
-1.92115e-05
1.57512e-05
-2.02492e-05
1.51054e-05
-2.14933e-05
1.42434e-05
-2.29401e-05
1.30947e-05
-2.45803e-05
1.15849e-05
-2.63992e-05
-2.83783e-05
9.63675e-06
3.32483e-05
-8.95648e-07
3.33224e-05
-2.91096e-06
3.29872e-05
-4.90432e-06
3.22815e-05
-6.80636e-06
3.12625e-05
-8.56098e-06
3.0003e-05
-1.01205e-05
2.85796e-05
-1.14552e-05
2.70676e-05
-1.25656e-05
2.5531e-05
-1.34547e-05
2.4029e-05
-1.41484e-05
2.26129e-05
-1.46677e-05
2.13157e-05
-1.50578e-05
2.01623e-05
-1.53594e-05
1.91641e-05
-1.56092e-05
1.83031e-05
-1.58748e-05
1.7555e-05
-1.61933e-05
1.68902e-05
-1.65984e-05
1.62725e-05
-1.71153e-05
1.56595e-05
-1.77634e-05
1.50047e-05
-1.85566e-05
1.42576e-05
-1.95021e-05
1.33644e-05
-2.06002e-05
1.22676e-05
-2.18433e-05
1.09058e-05
-2.32185e-05
9.21294e-06
-2.47063e-05
-2.62853e-05
7.11996e-06
3.07887e-05
-1.3408e-06
3.08958e-05
-3.01807e-06
3.06761e-05
-4.68457e-06
3.01553e-05
-6.28562e-06
2.93728e-05
-7.77845e-06
2.83818e-05
-9.12954e-06
2.72363e-05
-1.03098e-05
2.5993e-05
-1.13223e-05
2.47022e-05
-1.21639e-05
2.3408e-05
-1.28542e-05
2.21531e-05
-1.34127e-05
2.0964e-05
-1.38687e-05
1.98603e-05
-1.42557e-05
1.88557e-05
-1.46046e-05
1.79387e-05
-1.49578e-05
1.70939e-05
-1.53484e-05
1.62994e-05
-1.58039e-05
1.55269e-05
-1.63428e-05
1.47423e-05
-1.69788e-05
1.39072e-05
-1.77216e-05
1.29797e-05
-1.85747e-05
1.19139e-05
-1.95343e-05
1.06605e-05
-2.05899e-05
9.16703e-06
-2.1725e-05
7.37745e-06
-2.29167e-05
-2.41352e-05
5.22727e-06
2.87357e-05
-1.73503e-06
2.88611e-05
-3.14353e-06
2.8723e-05
-4.54639e-06
2.83384e-05
-5.90104e-06
2.77332e-05
-7.17323e-06
2.69447e-05
-8.34101e-06
2.6013e-05
-9.3781e-06
2.49776e-05
-1.02869e-05
2.38786e-05
-1.10648e-05
2.27488e-05
-1.17245e-05
2.1623e-05
-1.22868e-05
2.05229e-05
-1.27686e-05
1.94652e-05
-1.31981e-05
1.84603e-05
-1.35996e-05
1.75045e-05
-1.4002e-05
1.65894e-05
-1.44333e-05
1.56993e-05
-1.49138e-05
1.48122e-05
-1.54557e-05
1.39002e-05
-1.60668e-05
1.29314e-05
-1.67528e-05
1.18728e-05
-1.75161e-05
1.06868e-05
-1.83483e-05
9.33017e-06
-1.92333e-05
7.75758e-06
-2.01524e-05
5.92013e-06
-2.10793e-05
-2.19769e-05
3.76187e-06
2.70066e-05
-2.08758e-06
2.71443e-05
-3.28125e-06
2.7068e-05
-4.46999e-06
2.6786e-05
-5.61905e-06
2.63182e-05
-6.70547e-06
2.56857e-05
-7.70845e-06
2.49184e-05
-8.61088e-06
2.40452e-05
-9.4136e-06
2.30916e-05
-1.01112e-05
2.20889e-05
-1.07217e-05
2.10572e-05
-1.12552e-05
2.00209e-05
-1.17324e-05
1.89931e-05
-1.21702e-05
1.79813e-05
-1.25878e-05
1.69852e-05
-1.3006e-05
1.60017e-05
-1.34498e-05
1.5022e-05
-1.39341e-05
1.40296e-05
-1.44633e-05
1.30014e-05
-1.50386e-05
1.19112e-05
-1.56625e-05
1.07362e-05
-1.63411e-05
9.44509e-06
-1.70572e-05
7.99968e-06
-1.77879e-05
6.35903e-06
-1.85117e-05
4.47783e-06
-1.91981e-05
-1.98102e-05
2.31116e-06
2.55419e-05
-2.40577e-06
2.56838e-05
-3.42315e-06
2.56534e-05
-4.43953e-06
2.54468e-05
-5.41244e-06
2.50776e-05
-6.33628e-06
2.45595e-05
-7.19032e-06
2.39055e-05
-7.95685e-06
2.31418e-05
-8.64992e-06
2.22833e-05
-9.25277e-06
2.13627e-05
-9.80105e-06
2.03833e-05
-1.02758e-05
1.93675e-05
-1.07167e-05
1.83336e-05
-1.11363e-05
1.7287e-05
-1.15412e-05
1.62291e-05
-1.19481e-05
1.51602e-05
-1.23809e-05
1.40742e-05
-1.2848e-05
1.29562e-05
-1.33454e-05
1.17802e-05
-1.38626e-05
1.05473e-05
-1.44296e-05
9.24921e-06
-1.5043e-05
7.84243e-06
-1.56504e-05
6.2877e-06
-1.62332e-05
4.54479e-06
-1.67688e-05
2.57046e-06
-1.72238e-05
-1.75625e-05
3.22745e-07
2.42694e-05
-2.69003e-06
2.4405e-05
-3.5588e-06
2.43924e-05
-4.42689e-06
2.42302e-05
-5.25021e-06
2.39159e-05
-6.02204e-06
2.34596e-05
-6.73399e-06
2.28681e-05
-7.36534e-06
2.21722e-05
-7.95401e-06
2.13764e-05
-8.45701e-06
2.04708e-05
-8.89545e-06
1.94916e-05
-9.29652e-06
1.84358e-05
-9.66091e-06
1.73056e-05
-1.00061e-05
1.61259e-05
-1.03615e-05
1.49118e-05
-1.0734e-05
1.36546e-05
-1.11237e-05
1.23499e-05
-1.15433e-05
1.10093e-05
-1.20048e-05
9.65918e-06
-1.25125e-05
8.2538e-06
-1.30242e-05
6.72337e-06
-1.35126e-05
5.06379e-06
-1.39908e-05
3.25995e-06
-1.44294e-05
1.2838e-06
-1.47927e-05
-8.92503e-07
-1.50475e-05
-1.51668e-05
-3.28826e-06
2.31415e-05
-2.91238e-06
2.32436e-05
-3.6609e-06
2.32006e-05
-4.38384e-06
2.30075e-05
-5.05715e-06
2.26582e-05
-5.6727e-06
2.21514e-05
-6.2272e-06
2.15032e-05
-6.71711e-06
2.06987e-05
-7.14956e-06
1.9764e-05
-7.52227e-06
1.87109e-05
-7.8424e-06
1.75411e-05
-8.12668e-06
1.627e-05
-8.38977e-06
1.49217e-05
-8.65789e-06
1.34968e-05
-8.93655e-06
1.19903e-05
-9.22748e-06
1.04185e-05
-9.55192e-06
8.79109e-06
-9.91591e-06
7.103e-06
-1.03167e-05
5.33656e-06
-1.07461e-05
3.49519e-06
-1.11829e-05
1.58346e-06
-1.16009e-05
-4.21528e-07
-1.19858e-05
-2.53329e-06
-1.23176e-05
-4.76044e-06
-1.25655e-05
-7.11385e-06
-1.26941e-05
-1.26444e-05
-9.63618e-06
2.19682e-05
-2.93622e-06
2.19187e-05
-3.61141e-06
2.17271e-05
-4.19226e-06
2.13825e-05
-4.71247e-06
2.08659e-05
-5.15614e-06
2.01646e-05
-5.52588e-06
1.9278e-05
-5.83056e-06
1.82088e-05
-6.0803e-06
1.69682e-05
-6.2817e-06
1.55648e-05
-6.43905e-06
1.40022e-05
-6.56408e-06
1.22915e-05
-6.67905e-06
1.04277e-05
-6.7941e-06
8.43139e-06
-6.94023e-06
6.34355e-06
-7.13965e-06
4.16858e-06
-7.37696e-06
1.90376e-06
-7.65108e-06
-4.50923e-07
-7.96199e-06
-2.89569e-06
-8.3013e-06
-5.42853e-06
-8.65003e-06
-8.04262e-06
-8.98678e-06
-1.0736e-05
-9.29248e-06
-1.35078e-05
-9.54583e-06
-1.63495e-05
-9.72382e-06
-1.92278e-05
-9.81569e-06
-9.74323e-06
-2.21291e-05
2.06484e-05
-2.65506e-06
2.0194e-05
-3.157e-06
1.95451e-05
-3.54335e-06
1.86951e-05
-3.86252e-06
1.76491e-05
-4.11008e-06
1.64029e-05
-4.27976e-06
1.49535e-05
-4.3811e-06
1.32978e-05
-4.42462e-06
1.14391e-05
-4.42301e-06
9.3799e-06
-4.37983e-06
7.12271e-06
-4.30689e-06
4.69217e-06
-4.24851e-06
2.11767e-06
-4.21959e-06
-5.9212e-07
-4.23044e-06
-3.43808e-06
-4.29369e-06
-6.40668e-06
-4.40836e-06
-9.4928e-06
-4.56496e-06
-1.26981e-05
-4.75673e-06
-1.60201e-05
-4.97926e-06
-1.94529e-05
-5.21719e-06
-2.29798e-05
-5.45987e-06
-2.65823e-05
-5.69007e-06
-3.02373e-05
-5.89082e-06
-3.38892e-05
-6.07186e-06
-3.76594e-05
-6.04557e-06
-5.91454e-06
-4.1488e-05
1.85121e-05
-1.71246e-06
1.72822e-05
-1.92714e-06
1.58221e-05
-2.0833e-06
1.41393e-05
-2.17964e-06
1.22614e-05
-2.23222e-06
1.02203e-05
-2.23862e-06
8.02409e-06
-2.18492e-06
5.67378e-06
-2.07431e-06
3.09028e-06
-1.83951e-06
2.43398e-07
-1.53295e-06
-2.7849e-06
-1.2786e-06
-5.9329e-06
-1.10051e-06
-9.17697e-06
-9.75525e-07
-1.25133e-05
-8.94078e-07
-1.5955e-05
-8.51992e-07
-1.95221e-05
-8.41308e-07
-2.32342e-05
-8.52884e-07
-2.71095e-05
-8.81369e-07
-3.11608e-05
-9.27965e-07
-3.53779e-05
-1.00017e-06
-3.97457e-05
-1.09204e-06
-4.42163e-05
-1.21943e-06
-4.87177e-05
-1.38945e-06
-5.31681e-05
-1.62144e-06
-5.71054e-05
-2.10829e-06
-2.69576e-06
-6.03242e-05
1.34086e-05
1.14815e-05
9.39814e-06
7.2185e-06
4.98628e-06
2.74766e-06
5.62735e-07
-1.51157e-06
-3.35108e-06
-4.88403e-06
-6.16263e-06
-7.26314e-06
-8.23867e-06
-9.13275e-06
-9.98474e-06
-1.08261e-05
-1.16789e-05
-1.25603e-05
-1.34883e-05
-1.44885e-05
-1.55805e-05
-1.67999e-05
-1.81894e-05
-1.98108e-05
-2.19191e-05
-2.46149e-05
-0.000211258
0.000165471
-0.000217486
-1.4922e-05
0.000302706
-0.000499042
0.000235202
0.000298645
-0.000548769
0.000411194
0.00022264
-0.000398632
0.000523074
0.0001181
-0.00022998
0.000591349
1.88738e-05
-8.71488e-05
0.00064073
-7.2177e-05
2.27955e-05
0.000676064
-0.000158918
0.000123584
0.000702606
-0.00023084
0.000204297
0.000715157
-0.000287953
0.000275402
0.000713353
-0.000338057
0.000339861
0.000739924
-0.000392602
0.000366031
0.00088818
-0.000435502
0.000287246
0.00116862
-0.000400747
0.000120304
0.0013356
-0.000259865
9.28845e-05
0.00116862
-0.000166563
0.000333546
0.000754783
-0.000303211
0.000717049
0.000313495
-0.000614207
0.0010555
-2.01973e-05
-0.000930027
0.00126372
-0.000213952
-0.00112163
0.00131539
-0.00029032
-0.00116388
0.00124025
-0.000309031
-0.0010944
0.00111311
-0.000288831
-0.00098696
0.00096676
-0.000238402
-0.000869067
0.000818638
-0.000166778
-0.000756246
0.000684623
-8.42807e-05
-0.000657986
0.000575488
-3.66029e-06
-0.000580451
0.000499831
6.03509e-05
-0.000522081
0.00045807
9.42583e-05
-0.000465999
0.000432092
8.78343e-05
-0.000385601
0.000392025
2.57562e-05
-0.000247955
0.000310033
-0.000108999
-1.06517e-05
0.000145406
-0.000319422
0.000341506
-0.000131083
-0.000516915
0.000796611
-0.000599118
-0.000687219
0.00129669
-0.00112638
-0.000823942
0.0017704
-0.00163367
-0.000913151
0.00215596
-0.00206675
-0.000921601
0.00236057
-0.00235212
-0.000843697
0.00231226
-0.00239016
-0.000713694
0.0020992
-0.0022292
-0.000549564
0.00178067
-0.0019448
-0.000373151
0.0014145
-0.00159091
-0.000204241
0.00105033
-0.00121924
-5.70154e-05
0.000722623
-0.000869848
6.42165e-05
0.000445799
-0.00056703
0.000169286
0.00021341
-0.000318479
0.000259164
2.47085e-05
-0.000114586
0.00031137
-9.76911e-05
4.54844e-05
0.000336474
-0.000166829
0.000141725
0.00034338
-0.000199474
0.000192568
0.000341066
-0.000209636
0.000211949
0.000336755
-0.000208521
0.000212833
0.000333292
-0.000201914
0.000205377
0.000331702
-0.000192885
0.000194476
0.000332107
-0.000183648
0.000183243
0.000334387
-0.000176044
0.000173764
0.000339364
-0.000171109
0.000166133
0.000349525
-0.000168053
0.000157891
0.000367469
-0.000164005
0.000146061
0.000393221
-0.000156473
0.000130721
0.000419824
-0.000146548
0.000119945
0.000433503
-0.000143624
0.000129945
0.000420247
-0.000164209
0.000177465
0.000372445
-0.000222256
0.000270058
0.000291449
-0.000320874
0.000401871
0.00018513
-0.000450833
0.000557152
7.12729e-05
-0.000589463
0.00070332
-4.2323e-05
-0.00070733
0.000820926
-0.000144699
-0.000797415
0.00089979
-0.000220294
-0.00085069
0.000926286
-0.00027221
-0.000852055
0.00090397
-0.000307712
-0.000816204
0.000851706
-0.0003281
-0.000758509
0.000778898
-0.000335304
-0.000686496
0.0006937
-0.000331559
-0.000607334
0.000603588
-0.000319242
-0.000527281
0.000514964
-0.000300606
-0.000451486
0.00043285
-0.000277798
-0.000384022
0.000361214
-0.000253005
-0.000327685
0.000302892
-0.000228638
-0.000283542
0.000259176
-0.00020714
-0.000250399
0.000228901
-0.000190105
-0.000224705
0.000207669
-0.000177558
-0.000201745
0.000189198
-0.000168673
-0.000177331
0.000168446
-0.000163264
-0.000148114
0.000142705
-0.00016259
-0.000110341
0.000109668
-0.000168627
-5.65403e-05
6.25772e-05
-0.000178939
2.35306e-05
-1.32184e-05
-0.000187944
0.000131125
-0.00012212
-0.000192627
0.000263666
-0.000258983
-0.000192635
0.000412338
-0.00041233
-0.000187154
0.000567932
-0.000573413
-0.000175649
0.000720519
-0.000732024
-0.000158044
0.000858984
-0.000876589
-0.000134494
0.000971255
-0.000994805
-0.000105148
0.00104258
-0.00107192
-6.95084e-05
0.00105079
-0.00108643
-3.14428e-05
0.00101323
-0.00105129
7.68189e-06
0.000942211
-0.000981335
4.63366e-05
0.000846486
-0.00088514
8.314e-05
0.000735445
-0.000772248
0.000117052
0.00061801
-0.000651923
0.000147539
0.000501676
-0.000532163
0.000174587
0.000391932
-0.00041898
0.000198884
0.000292089
-0.000316387
0.000221252
0.000203903
-0.00022627
0.000241596
0.000128981
-0.000149325
0.00025909
7.02592e-05
-8.77532e-05
0.000273755
2.9613e-05
-4.42784e-05
0.000286468
4.61303e-06
-1.73259e-05
0.000297387
-1.00465e-05
-8.73079e-07
0.000306064
-2.09898e-05
1.23132e-05
0.000311639
-3.55349e-05
2.99599e-05
0.000313157
-6.0406e-05
5.88883e-05
0.000309915
-0.00010034
0.000103581
-0.000156998
0.000165255
3.95423e-05
0.00011574
0.000169562
0.000172686
0.000302671
0.000165536
0.000406838
0.000118474
0.000476059
4.88787e-05
0.000521461
-2.65285e-05
0.000550083
-0.000100799
0.000562387
-0.000171221
0.00056698
-0.000235433
0.000571875
-0.000292848
0.00057655
-0.000342732
0.000571293
-0.000387345
0.000570708
-0.000434917
0.000652163
-0.000482203
0.000878818
-0.00048652
0.00111148
-0.000399221
0.00108544
-0.000277175
0.000770278
-0.000299045
0.000352198
-0.000511947
1.77116e-05
-0.000787145
-0.000176869
-0.000969298
-0.000249272
-0.00102199
-0.000254559
-0.000981673
-0.000233403
-0.000890224
-0.000192128
-0.000797521
-0.000143193
-0.000706921
-9.99994e-05
-0.000623645
-7.83423e-05
-0.000543738
-9.30708e-05
-0.000451271
-0.000158652
-0.00032002
-0.000285112
-0.000121494
-0.000462744
0.00016698
-0.000657595
0.000536357
-0.000831123
0.000970139
-0.000962544
0.00142811
-0.00104554
0.0018534
-0.00106489
0.00217531
-0.000983525
0.0022792
-0.000832631
0.00216136
-0.000639489
0.00190606
-0.000429019
0.0015702
-0.000225222
0.0012107
-4.61127e-05
0.000871223
0.00010167
0.00057484
0.000224915
0.000322553
0.000323996
0.000114329
0.000381174
-3.24694e-05
0.000404454
-0.000120971
0.000405899
-0.000168274
0.000395921
-0.000189496
0.000382931
-0.000196646
0.000370434
-0.000196024
0.000359991
-0.00019147
0.000352447
-0.000185341
0.000347899
-0.0001791
0.000345838
-0.000173983
0.000345912
-0.000171184
0.000349048
-0.000171188
0.000357797
-0.000172754
0.000374455
-0.000173132
0.000397577
-0.000169669
0.000418386
-0.000164432
0.000422062
-0.000167886
0.000395669
-0.000195863
0.000334217
-0.000259422
0.000240931
-0.000357547
0.000127773
-0.000476305
1.38117e-05
-0.000593369
-9.06148e-05
-0.000692988
-0.000179657
-0.000761648
-0.000243552
-0.00078816
-0.000286907
-0.000772848
-0.000314683
-0.000730734
-0.00032874
-0.000672439
-0.000331297
-0.000604777
-0.00032471
-0.000533868
-0.000311288
-0.000464908
-0.000293342
-0.000401969
-0.000273257
-0.00034777
-0.000253456
-0.000303343
-0.000236074
-0.000267781
-0.000222396
-0.000238383
-0.000212693
-0.000211449
-0.000206837
-0.000183186
-0.000204992
-0.000149959
-0.000207884
-0.00010745
-0.000215942
-4.84826e-05
-0.000226288
3.38766e-05
-0.000235217
0.000140054
-0.000239129
0.000267578
-0.00023637
0.000409579
-0.000226215
0.000557777
-0.000208273
0.000702577
-0.000182605
0.000833316
-0.000149584
0.000938235
-0.000109845
0.00100284
-6.44224e-05
0.00100537
-1.75977e-05
0.000966401
2.88556e-05
0.000895757
7.32089e-05
0.000802132
0.000114105
0.000694549
0.000150693
0.000581422
0.000182712
0.000469657
0.000210467
0.000364177
0.000234683
0.000267874
0.000255872
0.000182713
0.000273657
0.000111196
0.000287782
5.61348e-05
0.000299147
1.82478e-05
0.00030884
-5.08041e-06
0.000317208
-1.84137e-05
0.000323875
-2.76572e-05
0.000327882
-3.95421e-05
0.000328048
-6.05715e-05
0.000323421
-9.57126e-05
-0.000147135
0.000138292
7.69842e-05
0.000215722
9.52559e-05
0.000294434
8.68245e-05
0.000358596
5.43122e-05
0.000403765
3.70939e-06
0.000432009
-5.47724e-05
0.000445766
-0.000114556
0.000447491
-0.000172946
0.0004407
-0.000228642
0.000429353
-0.000281501
0.000418486
-0.000331866
0.000410317
-0.000379176
0.000398357
-0.000422956
0.000383143
-0.000466989
0.00041014
-0.000513517
0.000551159
-0.00054024
0.000776363
-0.000502379
0.000879846
-0.000402527
0.000722939
-0.00035504
0.000391873
-0.000456079
5.89748e-05
-0.000636399
-0.000147794
-0.000815226
-0.000244795
-0.000884672
-0.000270061
-0.000864957
-0.000265638
-0.000801944
-0.000259855
-0.000712704
-0.000264688
-0.000618812
-0.00029599
-0.000512436
-0.000367421
-0.000379841
-0.000485439
-0.000202002
-0.000643861
3.6928e-05
-0.000816332
0.000339452
-0.000978482
0.000698506
-0.00110669
0.00109834
-0.00118769
0.00150912
-0.00121416
0.00187986
-0.00115194
0.00211308
-0.000985987
0.00211325
-0.000763598
0.00193897
-0.000514852
0.00165731
-0.000270134
0.00132548
-5.25162e-05
0.000993085
0.000127736
0.000690971
0.000273412
0.000429165
0.000384261
0.000211704
0.000450017
4.85728e-05
0.000473842
-5.62949e-05
0.000470941
-0.00011807
0.000454314
-0.000151646
0.000433525
-0.000168707
0.000412661
-0.000175781
0.000393842
-0.000177206
0.000378134
-0.000175762
0.000365981
-0.000173188
0.000357402
-0.000170521
0.000351906
-0.000168487
0.000348623
-0.000167901
0.000347114
-0.000169679
0.00034851
-0.00017415
0.000355369
-0.000179992
0.000369883
-0.000184183
0.00038975
-0.000184299
0.000404903
-0.000183039
0.000399816
-0.000190776
0.000362526
-0.000222132
0.000290453
-0.000285473
0.000190809
-0.000376662
7.87287e-05
-0.000481289
-3.27137e-05
-0.000581546
-0.000132172
-0.00066219
-0.000209989
-0.000710343
-0.000263042
-0.000719795
-0.00029825
-0.000695526
-0.000319119
-0.000651569
-0.000327914
-0.000595982
-0.000327036
-0.000534746
-0.000318899
-0.000473045
-0.00030594
-0.000414928
-0.000290598
-0.000363112
-0.000275191
-0.00031875
-0.000261658
-0.000281313
-0.000251263
-0.000248778
-0.00024457
-0.000218142
-0.000241754
-0.000186002
-0.000242963
-0.000148749
-0.00024851
-0.000101903
-0.00025797
-3.90222e-05
-0.000268384
4.42908e-05
-0.00027628
0.00014795
-0.000278366
0.000269663
-0.000272795
0.000404008
-0.000258424
0.000543406
-0.000234778
0.00067893
-0.000202082
0.00080062
-0.000160881
0.000897034
-0.000111945
0.000953902
-5.83025e-05
0.00095173
-4.15551e-06
0.000912254
4.83373e-05
0.000843265
9.73229e-05
0.000753147
0.000141486
0.000650386
0.000180173
0.000542735
0.000213383
0.000436447
0.000241624
0.000335936
0.000265495
0.000244003
0.000285149
0.000163059
0.000300256
9.60893e-05
0.000311217
4.51734e-05
0.00031945
1.00143e-05
0.000326241
-1.18715e-05
0.00033216
-2.43327e-05
0.000336946
-3.24428e-05
0.000339574
-4.21702e-05
0.000338646
-5.96434e-05
0.000332948
-9.00148e-05
-0.00013601
0.000153159
4.98383e-05
0.000196368
5.20466e-05
0.000243257