/*--------------------------------*- C++ -*----------------------------------*\
| =========                 |                                                 |
| \\      /  F ield         | OpenFOAM: The Open Source CFD Toolbox           |
|  \\    /   O peration     | Version:  2206                                  |
|   \\  /    A nd           | Website:  www.openfoam.com                      |
|    \\/     M anipulation  |                                                 |
\*---------------------------------------------------------------------------*/
FoamFile
{
    version     2.0;
    format      ascii;
    arch        "LSB;label=32;scalar=64";
    class       surfaceScalarField;
    location    "18.6";
    object      phi_0;
}
// * * * * * * * * * * * * * * * * * * * * * * * * * * * * * * * * * * * * * //

dimensions      [0 3 -1 0 0 0 0];

oriented        oriented;

internalField   nonuniform List<scalar> 
9410
(
1.33205e-06
-1.41828e-06
8.62307e-08
2.62434e-06
-1.40844e-06
1.16164e-07
3.88211e-06
-1.17355e-06
-8.42231e-08
5.10004e-06
-6.76531e-07
-5.41402e-07
6.17363e-06
1.10718e-07
-1.18431e-06
6.99196e-06
1.11399e-06
-1.93232e-06
7.50869e-06
2.15014e-06
-2.66686e-06
7.75608e-06
3.04324e-06
-3.29064e-06
7.7899e-06
3.72983e-06
-3.76364e-06
7.66932e-06
4.20733e-06
-4.08675e-06
7.43563e-06
4.50009e-06
-4.2664e-06
7.11295e-06
4.62391e-06
-4.30123e-06
6.72817e-06
4.57602e-06
-4.19124e-06
6.2651e-06
4.41469e-06
-3.95163e-06
5.6484e-06
4.22804e-06
-3.61134e-06
4.81369e-06
4.0607e-06
-3.22599e-06
3.84338e-06
3.84637e-06
-2.87606e-06
2.98424e-06
3.45636e-06
-2.59721e-06
2.45996e-06
2.82773e-06
-2.30345e-06
2.33932e-06
1.97797e-06
-1.85733e-06
2.5507e-06
9.84806e-07
-1.19619e-06
2.97061e-06
-4.41396e-08
-3.75774e-07
3.50713e-06
-1.02446e-06
4.87939e-07
4.06618e-06
-1.90341e-06
1.34435e-06
4.60327e-06
-2.67527e-06
2.13819e-06
5.10139e-06
-3.34075e-06
2.84262e-06
5.55916e-06
-3.90184e-06
3.44407e-06
5.98643e-06
-4.36588e-06
3.93861e-06
6.40613e-06
-4.734e-06
4.31429e-06
6.85259e-06
-4.99333e-06
4.54688e-06
7.36674e-06
-5.11049e-06
4.59634e-06
7.97905e-06
-5.02916e-06
4.41684e-06
8.6997e-06
-4.69317e-06
3.97253e-06
9.51299e-06
-4.06531e-06
3.25202e-06
1.03822e-05
-3.16207e-06
2.29288e-06
1.12376e-05
-2.05198e-06
1.19655e-06
1.19993e-05
-8.59681e-07
9.80272e-08
1.26183e-05
2.82029e-07
-9.01058e-07
1.30763e-05
1.28941e-06
-1.74738e-06
1.33761e-05
2.12108e-06
-2.42095e-06
1.35352e-05
2.76703e-06
-2.92614e-06
1.35789e-05
3.23862e-06
-3.28226e-06
1.35328e-05
3.55937e-06
-3.51324e-06
1.34157e-05
3.75712e-06
-3.64005e-06
1.32452e-05
3.85464e-06
-3.68419e-06
1.30421e-05
3.87326e-06
-3.67012e-06
1.28248e-05
3.83715e-06
-3.61983e-06
1.26046e-05
3.76945e-06
-3.54925e-06
1.23872e-05
3.68603e-06
-3.46863e-06
1.21742e-05
3.59704e-06
-3.38402e-06
1.19652e-05
3.5077e-06
-3.29874e-06
1.17596e-05
3.41966e-06
-3.2141e-06
1.15564e-05
3.33282e-06
-3.12963e-06
1.13526e-05
3.2483e-06
-3.04445e-06
1.11416e-05
3.17083e-06
-2.95982e-06
1.09138e-05
3.10861e-06
-2.88084e-06
1.06611e-05
3.0683e-06
-2.81559e-06
1.03843e-05
3.04581e-06
-2.76901e-06
1.00978e-05
3.01985e-06
-2.73335e-06
9.82609e-06
2.9554e-06
-2.68367e-06
9.59688e-06
2.81322e-06
-2.58401e-06
9.43331e-06
2.56248e-06
-2.39892e-06
9.34718e-06
2.19113e-06
-2.105e-06
9.33908e-06
1.70888e-06
-1.70077e-06
9.40665e-06
1.13679e-06
-1.20436e-06
9.53791e-06
5.09206e-07
-6.40465e-07
9.71081e-06
-1.26312e-07
-4.65875e-08
9.90932e-06
-7.32685e-07
5.3418e-07
1.01207e-05
-1.28884e-06
1.07743e-06
1.03337e-05
-1.78117e-06
1.56815e-06
1.0539e-05
-2.20261e-06
1.99737e-06
1.07293e-05
-2.55246e-06
2.36209e-06
1.08998e-05
-2.83502e-06
2.66455e-06
1.1047e-05
-3.05828e-06
2.91111e-06
1.11692e-05
-3.2326e-06
3.11044e-06
1.12661e-05
-3.36945e-06
3.27252e-06
1.13391e-05
-3.48007e-06
3.40702e-06
1.13918e-05
-3.5735e-06
3.52086e-06
1.14292e-05
-3.65356e-06
3.61613e-06
1.14564e-05
-3.718e-06
3.69077e-06
1.14772e-05
-3.76298e-06
3.74225e-06
1.14946e-05
-3.7842e-06
3.76673e-06
1.1519e-05
-3.77581e-06
3.75142e-06
1.15522e-05
-3.69452e-06
3.66136e-06
-3.53186e-06
3.48592e-06
5.16226e-07
-1.93451e-06
1.15681e-06
-2.04903e-06
1.81745e-06
-1.83419e-06
2.50218e-06
-1.36126e-06
3.23036e-06
-6.17456e-07
3.96405e-06
3.803e-07
4.59294e-06
1.52125e-06
5.02415e-06
2.61203e-06
5.24841e-06
3.50556e-06
5.28788e-06
4.16786e-06
5.16044e-06
4.62753e-06
4.85359e-06
4.93077e-06
4.33682e-06
5.09279e-06
3.59097e-06
5.16054e-06
2.70953e-06
5.10949e-06
1.89634e-06
4.87389e-06
1.36095e-06
4.38176e-06
1.19689e-06
3.62041e-06
1.37737e-06
2.64725e-06
1.82275e-06
1.53259e-06
2.43903e-06
3.68523e-07
3.10813e-06
-7.13232e-07
3.77318e-06
-1.68951e-06
4.39941e-06
-2.52964e-06
4.95913e-06
-3.23498e-06
5.43629e-06
-3.81791e-06
5.8283e-06
-4.29385e-06
6.14385e-06
-4.68143e-06
6.40359e-06
-4.99374e-06
6.64055e-06
-5.23029e-06
6.89997e-06
-5.36992e-06
7.24595e-06
-5.37514e-06
7.7295e-06
-5.17672e-06
8.34393e-06
-4.67974e-06
9.0716e-06
-3.88973e-06
9.86647e-06
-2.84685e-06
1.06523e-05
-1.64549e-06
1.13566e-05
-4.22322e-07
1.19397e-05
7.06351e-07
1.23837e-05
1.67703e-06
1.26893e-05
2.46151e-06
1.28695e-05
3.05834e-06
1.29452e-05
3.48371e-06
1.29388e-05
3.76352e-06
1.2866e-05
3.92746e-06
1.27398e-05
3.99936e-06
1.25787e-05
3.99831e-06
1.2398e-05
3.95011e-06
1.22084e-05
3.87566e-06
1.20157e-05
3.78975e-06
1.18228e-05
3.70058e-06
1.16306e-05
3.61185e-06
1.14376e-05
3.52589e-06
1.12385e-05
3.44736e-06
1.10248e-05
3.38451e-06
1.07879e-05
3.34552e-06
1.05259e-05
3.33033e-06
1.02485e-05
3.32318e-06
9.97585e-06
3.29251e-06
9.73302e-06
3.19823e-06
9.5433e-06
3.00293e-06
9.42294e-06
2.68284e-06
9.37968e-06
2.2344e-06
9.41517e-06
1.67338e-06
9.52069e-06
1.03127e-06
9.67795e-06
3.51945e-07
9.86783e-06
-3.16197e-07
1.00763e-05
-9.41181e-07
1.0291e-05
-1.50352e-06
1.0501e-05
-1.99119e-06
1.06978e-05
-2.39933e-06
1.08751e-05
-2.72978e-06
1.10288e-05
-2.9888e-06
1.11566e-05
-3.18608e-06
1.12576e-05
-3.3336e-06
1.13321e-05
-3.44395e-06
1.13814e-05
-3.52937e-06
1.14078e-05
-3.59988e-06
1.14155e-05
-3.66118e-06
1.14108e-05
-3.71332e-06
1.14e-05
-3.75219e-06
1.13867e-05
-3.77089e-06
1.13717e-05
-3.76083e-06
1.13659e-05
-3.68875e-06
-3.54129e-06
1.57314e-07
-2.09183e-06
2.95856e-07
-2.18757e-06
4.33892e-07
-1.97223e-06
6.26222e-07
-1.55359e-06
8.92584e-07
-8.83818e-07
1.24828e-06
2.46013e-08
1.67793e-06
1.09161e-06
2.0663e-06
2.22366e-06
2.3131e-06
3.25876e-06
2.35298e-06
4.12797e-06
2.16222e-06
4.8183e-06
1.77004e-06
5.32295e-06
1.24243e-06
5.6204e-06
7.09568e-07
5.6934e-06
3.16801e-07
5.50225e-06
1.66806e-07
5.02388e-06
2.92418e-07
4.25615e-06
6.80536e-07
3.2323e-06
1.30289e-06
2.0249e-06
2.07272e-06
7.62761e-07
2.87387e-06
-4.32625e-07
3.6627e-06
-1.50206e-06
4.39635e-06
-2.42316e-06
5.04938e-06
-3.18266e-06
5.60029e-06
-3.7859e-06
6.03679e-06
-4.25442e-06
6.35788e-06
-4.61493e-06
6.57259e-06
-4.89615e-06
6.70416e-06
-5.12531e-06
6.78535e-06
-5.31148e-06
6.85278e-06
-5.43735e-06
6.95127e-06
-5.47363e-06
7.15926e-06
-5.38471e-06
7.5227e-06
-5.04319e-06
8.04732e-06
-4.41435e-06
8.69909e-06
-3.49862e-06
9.42181e-06
-2.36821e-06
1.01373e-05
-1.13783e-06
1.07854e-05
5.8291e-08
1.1331e-05
1.13136e-06
1.17576e-05
2.03498e-06
1.2064e-05
2.75189e-06
1.226e-05
3.28773e-06
1.23617e-05
3.66183e-06
1.23888e-05
3.90039e-06
1.2355e-05
4.03315e-06
1.22698e-05
4.08351e-06
1.2147e-05
4.07288e-06
1.20001e-05
4.02261e-06
1.18395e-05
3.95027e-06
1.1672e-05
3.86809e-06
1.14998e-05
3.78405e-06
1.13207e-05
3.70506e-06
1.1128e-05
3.64005e-06
1.09139e-05
3.59855e-06
1.06748e-05
3.5847e-06
1.04158e-05
3.5893e-06
1.01523e-05
3.58665e-06
9.9059e-06
3.53892e-06
9.69924e-06
3.40489e-06
9.5516e-06
3.15058e-06
9.47604e-06
2.7584e-06
9.47821e-06
2.23223e-06
9.55451e-06
1.59709e-06
9.69211e-06
8.93669e-07
9.87163e-06
1.72427e-07
1.00758e-05
-5.20372e-07
1.02909e-05
-1.15627e-06
1.05049e-05
-1.71754e-06
1.07075e-05
-2.19382e-06
1.08912e-05
-2.583e-06
1.1051e-05
-2.88959e-06
1.11839e-05
-3.12165e-06
1.12886e-05
-3.29086e-06
1.13654e-05
-3.41034e-06
1.14152e-05
-3.49377e-06
1.14402e-05
-3.55434e-06
1.14423e-05
-3.60198e-06
1.14232e-05
-3.64215e-06
1.13879e-05
-3.67798e-06
1.13432e-05
-3.70754e-06
1.12956e-05
-3.72328e-06
1.12459e-05
-3.71114e-06
1.12059e-05
-3.64866e-06
-3.51654e-06
-1.50826e-07
-1.941e-06
-3.78705e-07
-1.95969e-06
-6.11542e-07
-1.73939e-06
-8.17408e-07
-1.34773e-06
-9.55675e-07
-7.45551e-07
-9.95981e-07
6.49071e-08
-9.39127e-07
1.03475e-06
-8.17884e-07
2.10242e-06
-7.09381e-07
3.15025e-06
-6.66601e-07
4.08519e-06
-6.98007e-07
4.8497e-06
-7.65068e-07
5.39001e-06
-8.24928e-07
5.68026e-06
-8.12243e-07
5.68071e-06
-6.69312e-07
5.35932e-06
-3.33298e-07
4.68787e-06
2.40426e-07
3.68242e-06
1.02597e-06
2.44675e-06
1.9248e-06
1.12606e-06
2.84139e-06
-1.53824e-07
3.72737e-06
-1.31861e-06
4.55342e-06
-2.32811e-06
5.29183e-06
-3.16157e-06
5.9238e-06
-3.81464e-06
6.43764e-06
-4.29973e-06
6.82538e-06
-4.64216e-06
7.08511e-06
-4.87466e-06
7.21587e-06
-5.02691e-06
7.23065e-06
-5.14009e-06
7.16827e-06
-5.2491e-06
7.08036e-06
-5.34944e-06
7.00927e-06
-5.40254e-06
6.98654e-06
-5.36198e-06
7.07834e-06
-5.13498e-06
7.35252e-06
-4.68853e-06
7.81143e-06
-3.95753e-06
8.40175e-06
-2.95853e-06
9.05824e-06
-1.79432e-06
9.70827e-06
-5.91733e-07
1.0304e-05
5.356e-07
1.08132e-05
1.5258e-06
1.12203e-05
2.34484e-06
1.15233e-05
2.9847e-06
1.17297e-05
3.45543e-06
1.18519e-05
3.77817e-06
1.19058e-05
3.97924e-06
1.19039e-05
4.08543e-06
1.18528e-05
4.12393e-06
1.17621e-05
4.1134e-06
1.16436e-05
4.06873e-06
1.151e-05
4.00173e-06
1.13641e-05
3.92994e-06
1.12031e-05
3.86608e-06
1.10211e-05
3.82203e-06
1.08138e-05
3.80578e-06
1.05835e-05
3.81504e-06
1.03408e-05
3.83197e-06
1.01034e-05
3.82411e-06
9.89206e-06
3.75024e-06
9.72731e-06
3.56963e-06
9.62619e-06
3.2517e-06
9.59891e-06
2.78567e-06
9.64632e-06
2.18482e-06
9.76083e-06
1.48258e-06
9.92717e-06
7.27331e-07
1.01254e-05
-2.5823e-08
1.034e-05
-7.34904e-07
1.0557e-05
-1.3733e-06
1.07651e-05
-1.92566e-06
1.09549e-05
-2.38362e-06
1.11201e-05
-2.74825e-06
1.12576e-05
-3.0271e-06
1.13656e-05
-3.22958e-06
1.14445e-05
-3.36976e-06
1.14954e-05
-3.46123e-06
1.15199e-05
-3.51827e-06
1.15197e-05
-3.55417e-06
1.14949e-05
-3.57719e-06
1.14482e-05
-3.59546e-06
1.13845e-05
-3.61428e-06
1.13096e-05
-3.63265e-06
1.12293e-05
-3.64298e-06
1.11491e-05
-3.63092e-06
1.10769e-05
-3.57645e-06
-3.45909e-06
-3.7093e-07
-8.13081e-07
-1.22444e-06
-1.58594e-06
-1.86772e-06
-2.05237e-06
-2.1443e-06
-2.14083e-06
-2.06923e-06
-1.96041e-06
-1.82625e-06
-1.6623e-06
-1.44256e-06
-1.10467e-06
-5.70904e-07
1.83896e-07
1.09936e-06
2.09399e-06
3.0892e-06
4.04312e-06
4.92541e-06
5.7113e-06
6.38391e-06
6.93477e-06
7.36485e-06
7.68083e-06
7.88571e-06
7.97747e-06
7.93363e-06
7.75956e-06
7.50754e-06
7.25514e-06
7.05777e-06
6.96614e-06
7.00315e-06
7.22677e-06
7.64128e-06
8.1826e-06
8.78069e-06
9.3733e-06
9.92081e-06
1.03953e-05
1.07826e-05
1.10797e-05
1.12919e-05
1.14288e-05
1.15017e-05
1.15235e-05
1.15015e-05
1.14401e-05
1.13476e-05
1.12318e-05
1.10918e-05
1.09252e-05
1.07329e-05
1.05223e-05
1.03073e-05
1.01057e-05
9.93739e-06
9.82158e-06
9.77249e-06
9.79545e-06
9.88743e-06
1.00381e-05
1.02298e-05
1.0443e-05
1.0663e-05
1.08763e-05
1.10723e-05
1.12432e-05
1.13845e-05
1.14946e-05
1.15736e-05
1.16234e-05
1.1647e-05
1.16447e-05
1.16167e-05
1.15642e-05
1.14908e-05
1.14008e-05
1.1299e-05
1.11907e-05
1.10819e-05
-3.52213e-06
1.09799e-05
-3.47449e-06
-3.37135e-06
1.10442e-05
1.09158e-05
6.40887e-06
9.61686e-08
6.30598e-06
1.0288e-07
6.19607e-06
1.09913e-07
6.07904e-06
1.17036e-07
5.95479e-06
1.24245e-07
5.82322e-06
1.31568e-07
5.68421e-06
1.39018e-07
5.53761e-06
1.46598e-07
5.38331e-06
1.543e-07
5.22117e-06
1.62138e-07
5.05111e-06
1.70058e-07
4.87312e-06
1.77989e-07
4.68745e-06
1.85667e-07
4.4945e-06
1.9295e-07
4.29476e-06
1.9974e-07
4.08894e-06
2.05821e-07
3.8781e-06
2.10847e-07
3.66366e-06
2.14435e-07
3.44807e-06
2.15588e-07
3.2351e-06
2.12974e-07
3.02828e-06
2.06815e-07
2.82962e-06
1.98666e-07
2.63991e-06
1.89713e-07
2.45939e-06
1.80518e-07
2.28802e-06
1.71368e-07
2.12558e-06
1.62445e-07
1.97172e-06
1.53852e-07
1.82609e-06
1.45632e-07
1.6883e-06
1.37793e-07
1.55796e-06
1.30336e-07
1.43471e-06
1.2325e-07
1.31821e-06
1.16502e-07
1.20819e-06
1.1002e-07
1.10443e-06
1.03759e-07
1.00675e-06
9.76845e-08
9.14993e-07
9.17536e-08
8.29066e-07
8.59263e-08
7.48897e-07
8.01697e-08
6.74413e-07
7.4484e-08
6.05285e-07
6.91273e-08
5.40728e-07
6.45575e-08
4.80008e-07
6.07196e-08
4.22739e-07
5.72689e-08
3.68569e-07
5.41701e-08
3.1707e-07
5.14991e-08
2.67766e-07
4.93041e-08
2.20174e-07
4.75914e-08
1.73866e-07
4.63078e-08
1.28521e-07
4.53454e-08
8.39766e-08
4.45444e-08
4.02246e-08
4.37519e-08
-2.57766e-09
4.28023e-08
-4.39177e-08
4.13401e-08
-8.30615e-08
3.91438e-08
-1.19493e-07
3.64313e-08
-1.53101e-07
3.36081e-08
-1.84169e-07
3.10684e-08
-2.1319e-07
2.90202e-08
-2.40255e-07
2.70649e-08
2.50752e-08
-2.6533e-07
1.20922e-05
1.31808e-07
1.20501e-05
1.44923e-07
1.20016e-05
1.58388e-07
1.19467e-05
1.72015e-07
1.18851e-05
1.85814e-07
1.18168e-05
1.99822e-07
1.17418e-05
2.14063e-07
1.16598e-05
2.28555e-07
1.15709e-05
2.43251e-07
1.14748e-05
2.58258e-07
1.13713e-05
2.73482e-07
1.12603e-05
2.89043e-07
1.11417e-05
3.04255e-07
1.10157e-05
3.18947e-07
1.08823e-05
3.33121e-07
1.07417e-05
3.46474e-07
1.05939e-05
3.58579e-07
1.04392e-05
3.69195e-07
1.02768e-05
3.77921e-07
1.01053e-05
3.84465e-07
9.92358e-06
3.88578e-07
9.73189e-06
3.90361e-07
9.53128e-06
3.9032e-07
9.32287e-06
3.88925e-07
9.10773e-06
3.86509e-07
8.88685e-06
3.8333e-07
8.66111e-06
3.79594e-07
8.43128e-06
3.75463e-07
8.19801e-06
3.71065e-07
7.96183e-06
3.66516e-07
7.72318e-06
3.61897e-07
7.48241e-06
3.57266e-07
7.23978e-06
3.52658e-07
6.99544e-06
3.481e-07
6.7495e-06
3.43617e-07
6.50204e-06
3.3922e-07
6.25305e-06
3.34914e-07
6.00253e-06
3.3069e-07
5.75048e-06
3.2653e-07
5.49737e-06
3.22242e-07
5.24434e-06
3.17583e-07
4.99237e-06
3.12694e-07
4.74181e-06
3.07824e-07
4.49296e-06
3.03024e-07
4.24621e-06
2.98248e-07
4.00209e-06
2.93428e-07
3.7612e-06
2.88475e-07
3.52424e-06
2.83275e-07
3.29189e-06
2.77694e-07
3.06485e-06
2.71586e-07
2.84379e-06
2.64812e-07
2.62932e-06
2.57263e-07
2.42182e-06
2.48842e-07
2.22148e-06
2.39491e-07
2.02863e-06
2.29277e-07
1.84381e-06
2.18432e-07
1.66779e-06
2.07085e-07
1.50151e-06
1.95303e-07
1.34557e-06
1.83005e-07
1.70444e-07
1.2002e-06
1.40071e-05
1.30382e-07
1.40042e-05
1.47794e-07
1.39972e-05
1.65353e-07
1.39862e-05
1.83062e-07
1.39711e-05
2.00928e-07
1.39519e-05
2.18991e-07
1.39287e-05
2.37287e-07
1.39014e-05
2.5585e-07
1.387e-05
2.74644e-07
1.38345e-05
2.93783e-07
1.37948e-05
3.13185e-07
1.37508e-05
3.32977e-07
1.37026e-05
3.52499e-07
1.365e-05
3.7159e-07
1.35928e-05
3.90261e-07
1.3531e-05
4.08268e-07
1.34643e-05
4.25257e-07
1.33925e-05
4.41003e-07
1.33153e-05
4.55112e-07
1.32325e-05
4.67312e-07
1.31436e-05
4.7748e-07
1.30483e-05
4.85676e-07
1.29465e-05
4.92137e-07
1.28382e-05
4.9715e-07
1.27238e-05
5.00961e-07
1.26033e-05
5.0377e-07
1.24772e-05
5.05751e-07
1.23456e-05
5.07033e-07
1.22089e-05
5.07787e-07
1.20672e-05
5.08186e-07
1.19208e-05
5.08329e-07
1.17698e-05
5.08303e-07
1.16142e-05
5.0819e-07
1.14543e-05
5.08062e-07
1.12899e-05
5.07982e-07
1.11211e-05
5.08007e-07
1.09478e-05
5.08178e-07
1.077e-05
5.08535e-07
1.05874e-05
5.09105e-07
1.03997e-05
5.09975e-07
1.02061e-05
5.11214e-07
1.0006e-05
5.12756e-07
9.79932e-06
5.14498e-07
9.58599e-06
5.16358e-07
9.366e-06
5.18238e-07
9.13941e-06
5.20022e-07
8.90632e-06
5.21561e-07
8.66692e-06
5.22676e-07
8.42145e-06
5.2316e-07
8.17023e-06
5.2281e-07
7.9136e-06
5.21438e-07
7.65197e-06
5.18899e-07
7.38572e-06
5.15091e-07
7.11519e-06
5.10019e-07
6.84075e-06
5.03715e-07
6.56287e-06
4.9631e-07
6.28203e-06
4.87932e-07
5.99867e-06
4.78654e-07
5.7132e-06
4.68479e-07
4.57244e-07
5.4264e-06
1.45415e-05
1.14857e-07
1.45539e-05
1.35326e-07
1.45635e-05
1.55794e-07
1.45703e-05
1.76274e-07
1.45744e-05
1.96809e-07
1.45759e-05
2.1745e-07
1.4575e-05
2.38245e-07
1.45716e-05
2.59241e-07
1.45658e-05
2.80462e-07
1.45576e-05
3.01937e-07
1.45472e-05
3.23637e-07
1.45347e-05
3.45484e-07
1.45199e-05
3.67246e-07
1.45027e-05
3.8877e-07
1.44831e-05
4.09926e-07
1.44608e-05
4.30517e-07
1.44358e-05
4.5028e-07
1.44078e-05
4.68957e-07
1.43767e-05
4.86276e-07
1.4342e-05
5.02017e-07
1.43034e-05
5.16068e-07
1.42606e-05
5.28425e-07
1.42136e-05
5.39182e-07
1.41622e-05
5.48495e-07
1.41067e-05
5.56535e-07
1.4047e-05
5.6347e-07
1.39833e-05
5.6946e-07
1.39156e-05
5.74675e-07
1.38442e-05
5.79228e-07
1.37691e-05
5.83223e-07
1.36907e-05
5.86807e-07
1.36088e-05
5.90118e-07
1.35238e-05
5.93274e-07
1.34354e-05
5.96382e-07
1.33439e-05
5.99538e-07
1.32491e-05
6.0283e-07
1.31509e-05
6.06332e-07
1.30493e-05
6.1011e-07
1.29442e-05
6.14193e-07
1.28356e-05
6.18649e-07
1.27232e-05
6.23574e-07
1.2607e-05
6.28973e-07
1.24867e-05
6.34787e-07
1.23622e-05
6.40911e-07
1.22332e-05
6.47236e-07
1.20995e-05
6.53649e-07
1.19611e-05
6.60008e-07
1.18176e-05
6.6614e-07
1.16689e-05
6.71851e-07
1.15148e-05
6.76948e-07
1.1355e-05
6.81261e-07
1.11892e-05
6.84648e-07
1.10173e-05
6.87003e-07
1.0839e-05
6.88283e-07
1.06543e-05
6.88485e-07
1.04629e-05
6.87662e-07
1.0265e-05
6.85891e-07
1.00604e-05
6.83243e-07
9.84908e-06
6.79775e-07
6.75598e-07
9.63072e-06
1.4681e-05
9.59393e-08
1.46973e-05
1.1901e-07
1.47113e-05
1.41814e-07
1.47231e-05
1.64466e-07
1.47328e-05
1.8704e-07
1.47407e-05
2.0961e-07
1.47467e-05
2.32213e-07
1.4751e-05
2.54935e-07
1.47537e-05
2.77803e-07
1.47548e-05
3.00834e-07
1.47544e-05
3.24039e-07
1.47525e-05
3.4734e-07
1.47491e-05
3.70626e-07
1.47441e-05
3.93776e-07
1.47375e-05
4.16582e-07
1.47291e-05
4.38912e-07
1.47188e-05
4.60522e-07
1.47066e-05
4.81162e-07
1.46923e-05
5.00649e-07
1.46755e-05
5.18778e-07
1.46562e-05
5.35413e-07
1.46341e-05
5.50499e-07
1.46092e-05
5.6405e-07
1.45816e-05
5.76145e-07
1.45512e-05
5.86893e-07
1.45183e-05
5.9642e-07
1.44829e-05
6.04863e-07
1.44452e-05
6.12364e-07
1.44053e-05
6.19066e-07
1.43635e-05
6.25105e-07
1.43196e-05
6.30626e-07
1.4274e-05
6.35779e-07
1.42265e-05
6.40709e-07
1.41774e-05
6.45548e-07
1.41265e-05
6.50419e-07
1.40739e-05
6.55431e-07
1.40195e-05
6.60684e-07
1.39634e-05
6.66263e-07
1.39053e-05
6.72266e-07
1.38452e-05
6.78721e-07
1.37832e-05
6.85645e-07
1.3719e-05
6.9311e-07
1.36527e-05
7.01084e-07
1.35842e-05
7.09454e-07
1.35133e-05
7.18128e-07
1.34399e-05
7.27025e-07
1.33639e-05
7.36032e-07
1.3285e-05
7.45002e-07
1.32031e-05
7.5376e-07
1.31179e-05
7.62158e-07
1.30291e-05
7.70082e-07
1.29363e-05
7.77402e-07
1.28393e-05
7.8402e-07
1.27377e-05
7.89878e-07
1.26313e-05
7.94948e-07
1.25197e-05
7.99241e-07
1.24028e-05
8.02792e-07
1.22804e-05
8.0565e-07
1.21523e-05
8.07863e-07
8.09491e-07
1.20184e-05
1.47034e-05
7.56977e-08
1.47213e-05
1.01121e-07
1.47369e-05
1.26136e-07
1.47506e-05
1.50821e-07
1.47624e-05
1.75259e-07
1.47724e-05
1.99561e-07
1.47809e-05
2.23769e-07
1.47878e-05
2.48e-07
1.47933e-05
2.72303e-07
1.47974e-05
2.9671e-07
1.48002e-05
3.21267e-07
1.48016e-05
3.45915e-07
1.48017e-05
3.70584e-07
1.48003e-05
3.95189e-07
1.47973e-05
4.19525e-07
1.47927e-05
4.43472e-07
1.47865e-05
4.66798e-07
1.47784e-05
4.89267e-07
1.47683e-05
5.10703e-07
1.47562e-05
5.3089e-07
1.4742e-05
5.49656e-07
1.47256e-05
5.66906e-07
1.4707e-05
5.82596e-07
1.46864e-05
5.96752e-07
1.46639e-05
6.09428e-07
1.46396e-05
6.20712e-07
1.46137e-05
6.30722e-07
1.45865e-05
6.39606e-07
1.4558e-05
6.47523e-07
1.45285e-05
6.54632e-07
1.4498e-05
6.61095e-07
1.44667e-05
6.67081e-07
1.44347e-05
6.72758e-07
1.44019e-05
6.78284e-07
1.43685e-05
6.83804e-07
1.43345e-05
6.89449e-07
1.42999e-05
6.95333e-07
1.42646e-05
7.01548e-07
1.42287e-05
7.08154e-07
1.41922e-05
7.15184e-07
1.41551e-05
7.2278e-07
1.41172e-05
7.3105e-07
1.40784e-05
7.3984e-07
1.40388e-05
7.49016e-07
1.39984e-05
7.58562e-07
1.3957e-05
7.68429e-07
1.39145e-05
7.78524e-07
1.38708e-05
7.88735e-07
1.38256e-05
7.9895e-07
1.37787e-05
8.09037e-07
1.373e-05
8.18845e-07
1.36791e-05
8.28285e-07
1.36258e-05
8.37302e-07
1.35698e-05
8.45833e-07
1.3511e-05
8.53831e-07
1.34489e-05
8.61283e-07
1.33835e-05
8.68191e-07
1.33146e-05
8.74565e-07
1.3242e-05
8.8043e-07
8.85817e-07
1.31657e-05
1.47167e-05
5.59277e-08
1.47342e-05
8.35841e-08
1.47497e-05
1.10666e-07
1.47633e-05
1.37247e-07
1.47751e-05
1.63416e-07
1.47854e-05
1.89302e-07
1.47941e-05
2.14991e-07
1.48015e-05
2.40611e-07
1.48076e-05
2.66258e-07
1.48123e-05
2.9199e-07
1.48157e-05
3.17872e-07
1.48177e-05
3.43879e-07
1.48183e-05
3.69966e-07
1.48175e-05
3.9606e-07
1.4815e-05
4.22002e-07
1.48108e-05
4.47634e-07
1.48049e-05
4.7275e-07
1.4797e-05
4.97104e-07
1.47873e-05
5.20482e-07
1.47755e-05
5.42662e-07
1.47617e-05
5.63436e-07
1.47459e-05
5.82676e-07
1.47282e-05
6.00292e-07
1.47087e-05
6.16261e-07
1.46876e-05
6.30585e-07
1.4665e-05
6.43325e-07
1.46411e-05
6.54583e-07
1.46162e-05
6.64499e-07
1.45905e-05
6.73241e-07
1.45641e-05
6.80988e-07
1.45373e-05
6.87928e-07
1.45101e-05
6.94256e-07
1.44827e-05
7.00164e-07
1.44552e-05
7.05835e-07
1.44275e-05
7.11439e-07
1.43999e-05
7.17132e-07
1.43721e-05
7.23046e-07
1.43444e-05
7.29299e-07
1.43165e-05
7.36008e-07
1.42885e-05
7.43267e-07
1.42603e-05
7.50974e-07
1.42323e-05
7.59036e-07
1.42045e-05
7.67616e-07
1.41767e-05
7.76787e-07
1.41488e-05
7.86446e-07
1.41208e-05
7.96487e-07
1.40925e-05
8.06822e-07
1.40639e-05
8.17363e-07
1.40348e-05
8.28011e-07
1.40052e-05
8.38667e-07
1.39748e-05
8.49198e-07
1.39435e-05
8.59569e-07
1.39111e-05
8.69754e-07
1.38773e-05
8.79626e-07
1.3842e-05
8.89141e-07
1.3805e-05
8.98286e-07
1.37661e-05
9.07053e-07
1.37252e-05
9.15434e-07
1.36823e-05
9.23398e-07
9.30916e-07
1.36372e-05
1.47348e-05
3.69078e-08
1.47516e-05
6.67479e-08
1.47665e-05
9.58155e-08
1.47795e-05
1.24189e-07
1.4791e-05
1.5197e-07
1.4801e-05
1.7931e-07
1.48096e-05
2.06345e-07
1.4817e-05
2.33237e-07
1.48231e-05
2.60128e-07
1.4828e-05
2.87133e-07
1.48315e-05
3.14327e-07
1.48336e-05
3.41735e-07
1.48343e-05
3.69339e-07
1.48333e-05
3.97075e-07
1.48305e-05
4.24803e-07
1.48257e-05
4.52351e-07
1.4819e-05
4.79496e-07
1.48101e-05
5.05964e-07
1.47991e-05
5.31494e-07
1.4786e-05
5.55822e-07
1.47707e-05
5.78704e-07
1.47534e-05
5.99955e-07
1.47343e-05
6.19434e-07
1.47135e-05
6.37069e-07
1.46912e-05
6.52839e-07
1.46678e-05
6.66784e-07
1.46433e-05
6.79005e-07
1.46182e-05
6.89646e-07
1.45925e-05
6.98885e-07
1.45666e-05
7.06931e-07
1.45405e-05
7.14006e-07
1.45144e-05
7.20338e-07
1.44885e-05
7.26153e-07
1.44626e-05
7.31667e-07
1.4437e-05
7.37072e-07
1.44116e-05
7.42546e-07
1.43864e-05
7.48232e-07
1.43614e-05
7.54261e-07
1.43367e-05
7.60718e-07
1.43123e-05
7.67675e-07
1.42881e-05
7.75161e-07
1.4264e-05
7.83143e-07
1.424e-05
7.91616e-07
1.42162e-05
8.00612e-07
1.41925e-05
8.10104e-07
1.4169e-05
8.20017e-07
1.41455e-05
8.30272e-07
1.41221e-05
8.40793e-07
1.40986e-05
8.51508e-07
1.40749e-05
8.62339e-07
1.40509e-05
8.73238e-07
1.40264e-05
8.84062e-07
1.40015e-05
8.9471e-07
1.39759e-05
9.05206e-07
1.39495e-05
9.15515e-07
1.39222e-05
9.25583e-07
1.38939e-05
9.35365e-07
1.38645e-05
9.44817e-07
1.3834e-05
9.5389e-07
9.62521e-07
1.38024e-05
1.47587e-05
1.88851e-08
1.47746e-05
5.0866e-08
1.47885e-05
8.18322e-08
1.48009e-05
1.11874e-07
1.48117e-05
1.41115e-07
1.48213e-05
1.69739e-07
1.48297e-05
1.97944e-07
1.4837e-05
2.25947e-07
1.48431e-05
2.53962e-07
1.48481e-05
2.82151e-07
1.48518e-05
3.10627e-07
1.48541e-05
3.3947e-07
1.48547e-05
3.68693e-07
1.48536e-05
3.98241e-07
1.48504e-05
4.27981e-07
1.4845e-05
4.57719e-07
1.48373e-05
4.87194e-07
1.48272e-05
5.161e-07
1.48146e-05
5.44106e-07
1.47995e-05
5.7088e-07
1.47821e-05
5.96112e-07
1.47625e-05
6.19544e-07
1.4741e-05
6.40979e-07
1.47178e-05
6.60291e-07
1.46932e-05
6.77434e-07
1.46675e-05
6.92436e-07
1.46411e-05
7.05399e-07
1.46143e-05
7.16484e-07
1.45873e-05
7.25901e-07
1.45603e-05
7.33899e-07
1.45335e-05
7.40746e-07
1.45072e-05
7.46717e-07
1.44812e-05
7.52085e-07
1.44558e-05
7.57105e-07
1.44309e-05
7.62001e-07
1.44064e-05
7.66976e-07
1.43825e-05
7.7219e-07
1.4359e-05
7.77785e-07
1.43358e-05
7.83845e-07
1.43131e-05
7.90448e-07
1.42906e-05
7.97614e-07
1.42684e-05
8.05347e-07
1.42464e-05
8.13631e-07
1.42245e-05
8.22453e-07
1.42029e-05
8.31785e-07
1.41813e-05
8.41568e-07
1.41599e-05
8.51731e-07
1.41384e-05
8.62208e-07
1.4117e-05
8.72936e-07
1.40955e-05
8.83848e-07
1.40739e-05
8.94879e-07
1.4052e-05
9.05968e-07
1.40296e-05
9.17038e-07
1.40068e-05
9.28042e-07
1.39834e-05
9.3894e-07
1.39593e-05
9.49682e-07
1.39344e-05
9.60207e-07
1.39088e-05
9.70444e-07
1.38824e-05
9.80312e-07
9.89713e-07
1.38552e-05
1.47872e-05
2.16573e-09
1.48019e-05
3.62322e-08
1.48147e-05
6.8986e-08
1.4826e-05
1.00537e-07
1.48361e-05
1.31035e-07
1.48452e-05
1.60707e-07
1.48533e-05
1.89828e-07
1.48605e-05
2.18718e-07
1.48668e-05
2.47668e-07
1.48721e-05
2.76882e-07
1.48761e-05
3.06551e-07
1.48788e-05
3.36818e-07
1.48797e-05
3.67738e-07
1.48787e-05
3.99275e-07
1.48754e-05
4.31291e-07
1.48696e-05
4.63552e-07
1.4861e-05
4.95742e-07
1.48496e-05
5.27485e-07
1.48354e-05
5.58369e-07
1.48183e-05
5.87972e-07
1.47985e-05
6.15885e-07
1.47763e-05
6.41756e-07
1.4752e-05
6.65313e-07
1.47259e-05
6.86376e-07
1.46984e-05
7.04868e-07
1.46701e-05
7.20812e-07
1.46411e-05
7.34321e-07
1.4612e-05
7.45591e-07
1.45831e-05
7.54881e-07
1.45545e-05
7.62495e-07
1.45264e-05
7.68765e-07
1.44991e-05
7.74027e-07
1.44726e-05
7.78613e-07
1.44469e-05
7.82824e-07
1.4422e-05
7.8693e-07
1.43978e-05
7.91158e-07
1.43743e-05
7.95694e-07
1.43514e-05
8.00683e-07
1.4329e-05
8.06215e-07
1.43071e-05
8.12354e-07
1.42856e-05
8.19132e-07
1.42644e-05
8.26565e-07
1.42434e-05
8.34621e-07
1.42226e-05
8.43259e-07
1.42019e-05
8.52437e-07
1.41814e-05
8.62098e-07
1.41609e-05
8.72178e-07
1.41405e-05
8.82618e-07
1.41201e-05
8.93361e-07
1.40996e-05
9.04353e-07
1.40789e-05
9.15542e-07
1.4058e-05
9.26879e-07
1.40367e-05
9.38306e-07
1.4015e-05
9.4977e-07
1.39927e-05
9.61222e-07
1.39698e-05
9.72606e-07
1.39462e-05
9.83845e-07
1.39218e-05
9.94849e-07
1.38966e-05
1.0055e-06
1.01568e-06
1.38706e-05
1.48202e-05
-1.2881e-08
1.48332e-05
2.31999e-08
1.48446e-05
5.76077e-08
1.48547e-05
9.04729e-08
1.48637e-05
1.21966e-07
1.48721e-05
1.5236e-07
1.48798e-05
1.82057e-07
1.4887e-05
2.11529e-07
1.48936e-05
2.41112e-07
1.48994e-05
2.71105e-07
1.49041e-05
3.01808e-07
1.49075e-05
3.33441e-07
1.49091e-05
3.66115e-07
1.49086e-05
3.99818e-07
1.49055e-05
4.34403e-07
1.48994e-05
4.6959e-07
1.48902e-05
5.04978e-07
1.48776e-05
5.40075e-07
1.48616e-05
5.74349e-07
1.48423e-05
6.07269e-07
1.48199e-05
6.38289e-07
1.47947e-05
6.66937e-07
1.47672e-05
6.92841e-07
1.47378e-05
7.15759e-07
1.47071e-05
7.35581e-07
1.46756e-05
7.52333e-07
1.46437e-05
7.66157e-07
1.4612e-05
7.77302e-07
1.45808e-05
7.86097e-07
1.45504e-05
7.92927e-07
1.45209e-05
7.98207e-07
1.44926e-05
8.02358e-07
1.44654e-05
8.05786e-07
1.44394e-05
8.08857e-07
1.44144e-05
8.11888e-07
1.43905e-05
8.1514e-07
1.43673e-05
8.18822e-07
1.43449e-05
8.23077e-07
1.43232e-05
8.27989e-07
1.43019e-05
8.3362e-07
1.4281e-05
8.40018e-07
1.42604e-05
8.47171e-07
1.424e-05
8.55021e-07
1.42198e-05
8.6351e-07
1.41996e-05
8.72579e-07
1.41796e-05
8.82164e-07
1.41595e-05
8.92204e-07
1.41395e-05
9.02642e-07
1.41194e-05
9.13432e-07
1.40993e-05
9.24529e-07
1.40789e-05
9.35896e-07
1.40583e-05
9.47491e-07
1.40373e-05
9.59274e-07
1.40159e-05
9.71199e-07
1.39939e-05
9.83218e-07
1.39712e-05
9.95265e-07
1.39478e-05
1.00726e-06
1.39236e-05
1.01908e-06
1.38985e-05
1.03059e-06
1.04163e-06
1.38726e-05
1.48569e-05
-2.58049e-08
1.48679e-05
1.22057e-08
1.48774e-05
4.81059e-08
1.48858e-05
8.2047e-08
1.48936e-05
1.14189e-07
1.49011e-05
1.44866e-07
1.49085e-05
1.74697e-07
1.49157e-05
2.04301e-07
1.49227e-05
2.34084e-07
1.49293e-05
2.64499e-07
1.49352e-05
2.95979e-07
1.49397e-05
3.28853e-07
1.49426e-05
3.63312e-07
1.4943e-05
3.99376e-07
1.49405e-05
4.36883e-07
1.49346e-05
4.75487e-07
1.49249e-05
5.14678e-07
1.49112e-05
5.53808e-07
1.48934e-05
5.92156e-07
1.48716e-05
6.2903e-07
1.48462e-05
6.63729e-07
1.48175e-05
6.95599e-07
1.47862e-05
7.24148e-07
1.47529e-05
7.49055e-07
1.47183e-05
7.70183e-07
1.46831e-05
7.87568e-07
1.46478e-05
8.01406e-07
1.46131e-05
8.12026e-07
1.45793e-05
8.19854e-07
1.45469e-05
8.2539e-07
1.45159e-05
8.29163e-07
1.44866e-05
8.31705e-07
1.44588e-05
8.33519e-07
1.44326e-05
8.35051e-07
1.44079e-05
8.36679e-07
1.43843e-05
8.38704e-07
1.43618e-05
8.41349e-07
1.43401e-05
8.44745e-07
1.43191e-05
8.48966e-07
1.42987e-05
8.54088e-07
1.42785e-05
8.60142e-07
1.42586e-05
8.67066e-07
1.42389e-05
8.74775e-07
1.42192e-05
8.8319e-07
1.41995e-05
8.92232e-07
1.41799e-05
9.01824e-07
1.41602e-05
9.11898e-07
1.41404e-05
9.22404e-07
1.41206e-05
9.333e-07
1.41005e-05
9.44555e-07
1.40803e-05
9.56144e-07
1.40597e-05
9.68045e-07
1.40388e-05
9.80232e-07
1.40173e-05
9.92674e-07
1.39952e-05
1.00533e-06
1.39723e-05
1.01813e-06
1.39486e-05
1.03098e-06
1.39239e-05
1.04376e-06
1.38982e-05
1.05631e-06
1.06841e-06
1.38714e-05
1.48871e-05
-7.87216e-08
1.48973e-05
-3.605e-08
1.49057e-05
3.80043e-09
1.49128e-05
4.0996e-08
1.49192e-05
7.57168e-08
1.49253e-05
1.08065e-07
1.49317e-05
1.38462e-07
1.49386e-05
1.67821e-07
1.4946e-05
1.96919e-07
1.49537e-05
2.26303e-07
1.49616e-05
2.56623e-07
1.49691e-05
2.88491e-07
1.49756e-05
3.22395e-07
1.49802e-05
3.58632e-07
1.49823e-05
3.97276e-07
1.49811e-05
4.38143e-07
1.49758e-05
4.80798e-07
1.49659e-05
5.24575e-07
1.49511e-05
5.68619e-07
1.49313e-05
6.11952e-07
1.49067e-05
6.5363e-07
1.48776e-05
6.92765e-07
1.48448e-05
7.28446e-07
1.48089e-05
7.6003e-07
1.47709e-05
7.871e-07
1.47315e-05
8.09491e-07
1.46918e-05
8.27276e-07
1.46525e-05
8.40729e-07
1.46142e-05
8.50297e-07
1.45775e-05
8.56552e-07
1.45428e-05
8.60143e-07
1.45102e-05
8.61753e-07
1.44798e-05
8.6206e-07
1.44517e-05
8.61694e-07
1.44255e-05
8.61207e-07
1.44011e-05
8.61049e-07
1.43783e-05
8.61565e-07
1.43567e-05
8.6298e-07
1.4336e-05
8.65395e-07
1.43161e-05
8.68881e-07
1.42967e-05
8.7352e-07
1.42775e-05
8.79286e-07
1.42585e-05
8.86062e-07
1.42396e-05
8.93728e-07
1.42206e-05
9.02172e-07
1.42015e-05
9.11285e-07
1.41824e-05
9.20972e-07
1.41631e-05
9.31159e-07
1.41437e-05
9.41795e-07
1.41242e-05
9.5285e-07
1.41044e-05
9.64308e-07
1.40844e-05
9.76163e-07
1.4064e-05
9.88413e-07
1.40432e-05
1.00106e-06
1.40218e-05
1.01408e-06
1.39997e-05
1.02747e-06
1.39766e-05
1.04114e-06
1.39526e-05
1.05503e-06
1.39274e-05
1.06898e-06
1.39009e-05
1.08282e-06
1.0963e-06
1.3873e-05
1.49341e-05
-8.81175e-08
1.49409e-05
-4.29225e-08
1.49461e-05
-1.31755e-09
1.49501e-05
3.6925e-08
1.49538e-05
7.20558e-08
1.49578e-05