/*--------------------------------*- C++ -*----------------------------------*\
| =========                 |                                                 |
| \\      /  F ield         | OpenFOAM: The Open Source CFD Toolbox           |
|  \\    /   O peration     | Version:  2206                                  |
|   \\  /    A nd           | Website:  www.openfoam.com                      |
|    \\/     M anipulation  |                                                 |
\*---------------------------------------------------------------------------*/
FoamFile
{
    version     2.0;
    format      ascii;
    arch        "LSB;label=32;scalar=64";
    class       volScalarField;
    location    "18.2001";
    object      p;
}
// * * * * * * * * * * * * * * * * * * * * * * * * * * * * * * * * * * * * * //

dimensions      [0 2 -2 0 0 0 0];

internalField   nonuniform List<scalar> 
3050
(
-0.980743
-0.933079
-0.907198
-0.904699
-0.920809
-0.958379
-1.01016
-1.06347
-1.10274
-1.11605
-1.10301
-1.05729
-0.984754
-0.898158
-0.811457
-0.734464
-0.671898
-0.627378
-0.600714
-0.588103
-0.5884
-0.600727
-0.622901
-0.652853
-0.688806
-0.729022
-0.771916
-0.816567
-0.862716
-0.910589
-0.961125
-1.01625
-1.07801
-0.9707
-0.916526
-0.884743
-0.879147
-0.902863
-0.94913
-1.01071
-1.07504
-1.12596
-1.1516
-1.13667
-1.08598
-1.00801
-0.916233
-0.825339
-0.745305
-0.681018
-0.634628
-0.605422
-0.591374
-0.591059
-0.60286
-0.624629
-0.65424
-0.689887
-0.729964
-0.772768
-0.81726
-0.863271
-0.91109
-0.961607
-1.01707
-1.08041
-0.959764
-0.901476
-0.868044
-0.864093
-0.890658
-0.942427
-1.00921
-1.07688
-1.13071
-1.15561
-1.14429
-1.09646
-1.02056
-0.931051
-0.84348
-0.766003
-0.70201
-0.654304
-0.623796
-0.608419
-0.606255
-0.615594
-0.634511
-0.660981
-0.693257
-0.729807
-0.76906
-0.810008
-0.852355
-0.896269
-0.942252
-0.991171
-1.04444
-0.960984
-0.905494
-0.872564
-0.866593
-0.888815
-0.934773
-0.993861
-1.05283
-1.09868
-1.1218
-1.11354
-1.07272
-1.00651
-0.928665
-0.851664
-0.783245
-0.725458
-0.681843
-0.652689
-0.636785
-0.63263
-0.638642
-0.653089
-0.674424
-0.701178
-0.731771
-0.764809
-0.799483
-0.835225
-0.871917
-0.909373
-0.947185
-0.985054
-0.96589
-0.921762
-0.89644
-0.892602
-0.909775
-0.943182
-0.984993
-1.02558
-1.05573
-1.06803
-1.05729
-1.0228
-0.970092
-0.908764
-0.845267
-0.788024
-0.741644
-0.7059
-0.679845
-0.664086
-0.65816
-0.660735
-0.670467
-0.686341
-0.706842
-0.730678
-0.756953
-0.784664
-0.812986
-0.841755
-0.87106
-0.899694
-0.9264
-0.972074
-0.937666
-0.916414
-0.909912
-0.917619
-0.936275
-0.961057
-0.985184
-1.00163
-1.0066
-0.99837
-0.97317
-0.933532
-0.887314
-0.839447
-0.793832
-0.755899
-0.724945
-0.701601
-0.686487
-0.679273
-0.678965
-0.684543
-0.695224
-0.709736
-0.727503
-0.748263
-0.77005
-0.791905
-0.813906
-0.836009
-0.855341
-0.871875
-0.969265
-0.942577
-0.924888
-0.917108
-0.919146
-0.928488
-0.941693
-0.954515
-0.961719
-0.963033
-0.956429
-0.935652
-0.902827
-0.865997
-0.828963
-0.793156
-0.761642
-0.735441
-0.715145
-0.70139
-0.693647
-0.691295
-0.693663
-0.700018
-0.710366
-0.72348
-0.738398
-0.754161
-0.770108
-0.785767
-0.800404
-0.812953
-0.822585
-0.96072
-0.9396
-0.925204
-0.916796
-0.914258
-0.917288
-0.923145
-0.928881
-0.930113
-0.926838
-0.918482
-0.900206
-0.874652
-0.846648
-0.817783
-0.78946
-0.763722
-0.741779
-0.724133
-0.711366
-0.703046
-0.699018
-0.699149
-0.702506
-0.708688
-0.717197
-0.72723
-0.738024
-0.748931
-0.759349
-0.768604
-0.775796
-0.779863
-0.94733
-0.930586
-0.918328
-0.90995
-0.905199
-0.904063
-0.904969
-0.905419
-0.903411
-0.898072
-0.888582
-0.873602
-0.853779
-0.831216
-0.807705
-0.784484
-0.762965
-0.744106
-0.72839
-0.716375
-0.707871
-0.702687
-0.701019
-0.701968
-0.704622
-0.709349
-0.715474
-0.722156
-0.728782
-0.734802
-0.739579
-0.742337
-0.742202
-0.931584
-0.918249
-0.907539
-0.899246
-0.893223
-0.889724
-0.887476
-0.884872
-0.880662
-0.873982
-0.864314
-0.851117
-0.834603
-0.816092
-0.79681
-0.777646
-0.75961
-0.743354
-0.729418
-0.718213
-0.709609
-0.703644
-0.700317
-0.698907
-0.698915
-0.700579
-0.703335
-0.706456
-0.709424
-0.711776
-0.712958
-0.712328
-0.709171
-0.914159
-0.903315
-0.893896
-0.885886
-0.879435
-0.874557
-0.870367
-0.865869
-0.86027
-0.852965
-0.843572
-0.831838
-0.817968
-0.802655
-0.78659
-0.770499
-0.755075
-0.740824
-0.728255
-0.717598
-0.70889
-0.702223
-0.697408
-0.69396
-0.691806
-0.690886
-0.69074
-0.690848
-0.69079
-0.69016
-0.688497
-0.685285
-0.679971
-0.896
-0.88714
-0.878895
-0.871369
-0.86478
-0.859077
-0.85371
-0.848092
-0.841728
-0.834215
-0.825282
-0.814798
-0.802925
-0.789989
-0.776408
-0.762701
-0.749339
-0.736734
-0.72524
-0.71505
-0.706252
-0.698891
-0.692789
-0.68775
-0.683755
-0.68061
-0.677973
-0.675501
-0.672872
-0.669753
-0.665783
-0.660574
-0.653725
-0.877835
-0.870499
-0.863206
-0.85614
-0.849538
-0.84337
-0.837325
-0.831086
-0.824367
-0.816919
-0.808558
-0.799235
-0.789037
-0.778065
-0.766549
-0.754798
-0.743129
-0.731835
-0.721174
-0.711308
-0.702339
-0.694298
-0.687096
-0.680676
-0.674991
-0.669862
-0.665065
-0.660372
-0.655547
-0.650336
-0.644481
-0.637722
-0.629795
-0.860123
-0.853938
-0.847391
-0.840715
-0.834152
-0.827709
-0.821262
-0.814688
-0.807856
-0.800633
-0.792915
-0.784697
-0.775946
-0.766643
-0.75686
-0.74673
-0.736423
-0.72616
-0.716119
-0.706447
-0.697294
-0.688719
-0.68064
-0.67297
-0.665694
-0.658764
-0.652058
-0.645434
-0.638727
-0.63175
-0.624348
-0.616394
-0.607765
-0.843106
-0.837744
-0.831727
-0.825313
-0.818725
-0.812041
-0.8053
-0.798521
-0.791699
-0.784807
-0.777833
-0.770726
-0.763362
-0.755638
-0.747476
-0.738833
-0.729772
-0.720432
-0.710924
-0.701348
-0.691891
-0.682823
-0.673991
-0.665141
-0.656373
-0.647772
-0.639289
-0.630896
-0.622517
-0.613995
-0.605262
-0.596332
-0.587235
-0.827195
-0.822387
-0.816709
-0.810389
-0.803645
-0.796666
-0.789616
-0.782637
-0.775844
-0.769329
-0.763137
-0.757189
-0.751313
-0.74527
-0.738788
-0.731648
-0.723781
-0.715238
-0.706134
-0.696613
-0.68684
-0.676988
-0.667083
-0.657079
-0.647034
-0.637006
-0.627019
-0.617122
-0.607272
-0.597371
-0.587443
-0.577632
-0.568133
-0.81243
-0.80788
-0.80224
-0.795754
-0.788687
-0.781307
-0.773872
-0.76664
-0.759861
-0.753743
-0.748389
-0.743751
-0.739595
-0.735485
-0.730862
-0.725243
-0.718437
-0.710519
-0.701657
-0.692021
-0.681761
-0.671064
-0.660139
-0.649073
-0.637882
-0.626605
-0.615345
-0.604205
-0.593182
-0.582248
-0.571487
-0.561127
-0.551475
-0.799756
-0.795172
-0.789321
-0.782464
-0.774894
-0.766927
-0.758908
-0.751232
-0.744341
-0.738608
-0.734231
-0.731159
-0.729026
-0.727156
-0.72464
-0.720653
-0.714954
-0.707724
-0.699203
-0.689606
-0.679139
-0.668025
-0.656472
-0.644629
-0.632611
-0.62043
-0.608145
-0.595939
-0.583879
-0.571985
-0.560411
-0.549481
-0.539541
-0.788461
-0.783717
-0.777528
-0.770165
-0.761948
-0.753241
-0.74446
-0.736106
-0.728869
-0.723406
-0.720145
-0.71914
-0.719689
-0.720526
-0.720112
-0.717297
-0.712048
-0.704797
-0.69594
-0.685829
-0.674821
-0.663213
-0.651238
-0.639102
-0.626975
-0.615088
-0.603462
-0.591919
-0.58031
-0.568558
-0.556881
-0.545835
-0.53602
-0.783888
-0.779161
-0.772906
-0.765416
-0.757033
-0.748146
-0.739214
-0.73079
-0.72352
-0.718098
-0.715149
-0.715183
-0.717953
-0.721094
-0.721814
-0.719458
-0.71456
-0.707616
-0.698966
-0.688951
-0.677914
-0.666171
-0.653995
-0.641615
-0.629214
-0.616925
-0.604872
-0.59319
-0.581796
-0.570528
-0.559499
-0.548996
-0.53938
-1.15457
-1.30478
-1.52183
-1.67225
-1.66435
-1.53076
-1.32859
-1.09782
-0.871064
-0.662308
-0.478153
-0.322562
-0.195551
-0.0941497
-0.0154293
0.0395734
0.0656549
0.0658883
0.0600103
0.0458598
0.0240601
1.54155e-05
-0.0325059
-0.0730617
-0.123901
-0.189016
-0.271971
-0.370808
-0.484414
-0.604803
-0.715389
-0.799003
-0.847612
-0.857294
-0.833852
-0.787957
-0.729092
-0.663762
-0.599136
-0.543671
-0.49732
-0.457768
-0.424735
-0.397591
-0.375474
-0.35777
-0.344051
-0.334075
-0.327806
-0.32551
-0.327576
-0.334252
-0.344758
-0.357728
-0.371226
-0.383265
-0.390974
-0.392824
-0.390002
-0.382481
-0.371049
-0.357131
-0.342108
-0.327233
-0.313606
-0.302047
-0.293183
-0.287585
-0.28621
-0.290082
-0.298185
-0.310241
-0.326998
-0.34731
-0.369361
-0.39094
-0.40946
-0.422362
-0.427947
-0.425444
-0.414751
-0.396842
-0.373192
-0.345595
-0.31587
-0.284994
-0.253635
-0.225765
-0.202988
-0.184369
-0.170077
-0.160237
-0.154622
-0.152788
-0.154245
-0.158443
-1.16617
-1.28094
-1.3978
-1.45865
-1.422
-1.30561
-1.14038
-0.955221
-0.768823
-0.591457
-0.431003
-0.291284
-0.172762
-0.0745326
0.00442971
0.0658055
0.111136
0.139075
0.148233
0.137606
0.118531
0.0909719
0.0523067
0.00751377
-0.0489318
-0.121661
-0.211286
-0.316907
-0.435167
-0.554528
-0.658141
-0.734354
-0.77546
-0.780885
-0.757691
-0.715449
-0.662148
-0.605224
-0.55299
-0.507933
-0.468578
-0.434535
-0.405442
-0.380867
-0.360264
-0.343118
-0.329077
-0.317973
-0.309852
-0.304997
-0.303835
-0.306983
-0.314055
-0.323641
-0.334448
-0.345211
-0.352849
-0.354764
-0.352547
-0.346969
-0.337527
-0.325651
-0.312652
-0.299662
-0.287671
-0.277487
-0.269782
-0.265228
-0.264802
-0.269104
-0.277395
-0.289733
-0.306494
-0.326596
-0.348273
-0.369338
-0.387246
-0.39946
-0.404853
-0.402167
-0.391561
-0.373996
-0.350877
-0.323912
-0.294517
-0.263248
-0.232751
-0.206577
-0.184583
-0.166559
-0.152874
-0.143572
-0.138416
-0.136906
-0.138399
-0.142445
-1.10419
-1.1665
-1.22034
-1.24639
-1.21243
-1.11702
-0.985168
-0.837748
-0.685291
-0.536878
-0.399381
-0.276345
-0.168964
-0.0771434
0.000238342
0.0639167
0.112918
0.148144
0.171118
0.182658
0.176765
0.152873
0.115436
0.0672247
0.00633126
-0.0700546
-0.162608
-0.270037
-0.386131
-0.498298
-0.591756
-0.655924
-0.688548
-0.691802
-0.670827
-0.634025
-0.591055
-0.548064
-0.508654
-0.473006
-0.440974
-0.412621
-0.387837
-0.366311
-0.347585
-0.331267
-0.317139
-0.305162
-0.295455
-0.28833
-0.284249
-0.283847
-0.287611
-0.294166
-0.302068
-0.31057
-0.318429
-0.320346
-0.317655
-0.313815
-0.30591
-0.295479
-0.28395
-0.272297
-0.261432
-0.252167
-0.245192
-0.241245
-0.241264
-0.245492
-0.253514
-0.26564
-0.281928
-0.301308
-0.322117
-0.342244
-0.359244
-0.370755
-0.375895
-0.373328
-0.363278
-0.346601
-0.324611
-0.29877
-0.269893
-0.239284
-0.211057
-0.186675
-0.165726
-0.148673
-0.135843
-0.127283
-0.122707
-0.121591
-0.123344
-0.127293
-1.02289
-1.05957
-1.08982
-1.09286
-1.05054
-0.97049
-0.865397
-0.746016
-0.620716
-0.496643
-0.379105
-0.271365
-0.175031
-0.0907285
-0.0185173
0.0422157
0.0918397
0.128636
0.154383
0.168201
0.171089
0.161773
0.13566
0.0917634
0.0311956
-0.0456406
-0.137631
-0.240551
-0.345797
-0.44176
-0.519062
-0.568231
-0.592073
-0.59989
-0.58511
-0.555395
-0.526057
-0.496558
-0.467789
-0.440747
-0.41584
-0.393274
-0.373099
-0.354975
-0.338418
-0.323162
-0.30917
-0.296525
-0.285443
-0.276277
-0.269491
-0.265665
-0.265797
-0.26958
-0.274686
-0.280312
-0.287189
-0.289363
-0.286521
-0.283014
-0.276576
-0.267177
-0.256626
-0.245858
-0.235698
-0.22695
-0.220326
-0.216614
-0.216624
-0.220365
-0.227773
-0.239256
-0.25461
-0.272819
-0.29233
-0.311161
-0.327021
-0.337996
-0.342852
-0.340684
-0.331604
-0.316292
-0.295901
-0.271386
-0.243391
-0.215184
-0.189737
-0.167079
-0.147559
-0.131749
-0.120001
-0.112245
-0.108172
-0.107399
-0.109425
-0.11348
-0.950959
-0.971506
-0.978914
-0.963762
-0.92313
-0.857916
-0.772871
-0.675197
-0.571589
-0.467393
-0.366789
-0.272749
-0.187077
-0.11067
-0.0438905
0.0131213
0.0601676
0.0970679
0.123978
0.137684
0.139123
0.12886
0.105766
0.069003
0.0172198
-0.0499382
-0.130001
-0.21772
-0.304548
-0.3831
-0.443892
-0.481067
-0.507432
-0.516873
-0.504567
-0.488837
-0.470961
-0.451286
-0.431336
-0.412095
-0.393931
-0.377218
-0.361959
-0.347563
-0.333517
-0.319664
-0.306038
-0.292842
-0.280445
-0.26933
-0.260028
-0.25306
-0.249207
-0.2494
-0.252387
-0.255607
-0.259099
-0.261675
-0.259099
-0.254669
-0.249643
-0.241062
-0.231145
-0.220942
-0.211192
-0.202685
-0.196157
-0.19239
-0.192013
-0.194986
-0.201527
-0.212
-0.22605
-0.242744
-0.260683
-0.277998
-0.292528
-0.302975
-0.307685
-0.30619
-0.29844
-0.284867
-0.266275
-0.243066
-0.217217
-0.192466
-0.169676
-0.14902
-0.131261
-0.116904
-0.106248
-0.0992215
-0.0955064
-0.0949339
-0.0970686
-0.101165
-0.885616
-0.892115
-0.887375
-0.867795
-0.830365
-0.774446
-0.7033
-0.621976
-0.53519
-0.446899
-0.360413
-0.278291
-0.20228
-0.133467
-0.0724815
-0.0196962
0.0245613
0.059851
0.0858816
0.101612
0.105673
0.0977322
0.0775103
0.0444366
-0.00161418
-0.059545
-0.126575
-0.197786
-0.267699
-0.331186
-0.380939
-0.415833
-0.438941
-0.447334
-0.444382
-0.436026
-0.424845
-0.412323
-0.399621
-0.387274
-0.375534
-0.364833
-0.354826
-0.344582
-0.333561
-0.321545
-0.308545
-0.29487
-0.281078
-0.267907
-0.256019
-0.245955
-0.238368
-0.234352
-0.233995
-0.235405
-0.236418
-0.236969
-0.234355
-0.229797
-0.22501
-0.217247
-0.207753
-0.197992
-0.188563
-0.180185
-0.173618
-0.169604
-0.168574
-0.170636
-0.176163
-0.185351
-0.197829
-0.212781
-0.228934
-0.244574
-0.257886
-0.267545
-0.272241
-0.271639
-0.265603
-0.254007
-0.236952
-0.215456
-0.193304
-0.172139
-0.15199
-0.133678
-0.11788
-0.105086
-0.0954391
-0.0888493
-0.0852734
-0.0846576
-0.0866428
-0.0905562
-0.828054
-0.826978
-0.816785
-0.794828
-0.759348
-0.710427
-0.65015
-0.581658
-0.508216
-0.432829
-0.358137
-0.286292
-0.218917
-0.157127
-0.101599
-0.0529202
-0.0116242
0.021835
0.0469361
0.0629443
0.0688939
0.0641539
0.0481223
0.0203113
-0.019028
-0.0683002
-0.124543
-0.184103
-0.242687
-0.296022
-0.339638
-0.370981
-0.389715
-0.397499
-0.397209
-0.392169
-0.385253
-0.378076
-0.371473
-0.365555
-0.360407
-0.356177
-0.35203
-0.346679
-0.339349
-0.329639
-0.317495
-0.303298
-0.28783
-0.27226
-0.257542
-0.244224
-0.232909
-0.224637
-0.220046
-0.218442
-0.217927
-0.216222
-0.212797
-0.207802
-0.20244
-0.19594
-0.186985
-0.177567
-0.168437
-0.160222
-0.153618
-0.149265
-0.147512
-0.148644
-0.153036
-0.16075
-0.171478
-0.184537
-0.198797
-0.212661
-0.224857
-0.233758
-0.238341
-0.238454
-0.234591
-0.2245
-0.2085
-0.190707
-0.172942
-0.155041
-0.137813
-0.122057
-0.108337
-0.0969857
-0.0880835
-0.081633
-0.0778735
-0.0768854
-0.0784028
-0.0818279
-0.779681
-0.773717
-0.760128
-0.737323
-0.704436
-0.661576
-0.609939
-0.55156
-0.488795
-0.423942
-0.359088
-0.296014
-0.236194
-0.180679
-0.130127
-0.0851769
-0.0466003
-0.0149684
0.00919338
0.0251386
0.0319942
0.0290233
0.0156301
-0.00853372
-0.0431097
-0.0860207
-0.134686
-0.18602
-0.235796
-0.280683
-0.317474
-0.342638
-0.356227
-0.361091
-0.359861
-0.355373
-0.350346
-0.346729
-0.34522
-0.345511
-0.347278
-0.350325
-0.353257
-0.35415
-0.351649
-0.344955
-0.333887
-0.318932
-0.301198
-0.282431
-0.264112
-0.247107
-0.232021
-0.219593
-0.210525
-0.204922
-0.201732
-0.198934
-0.194326
-0.18851
-0.183071
-0.176718
-0.168786
-0.160048
-0.151491
-0.143655
-0.137078
-0.132361
-0.129953
-0.130201
-0.133362
-0.139478
-0.148325
-0.15938
-0.171642
-0.183828
-0.194681
-0.202977
-0.206536
-0.206927
-0.206933
-0.198007
-0.18361
-0.170714
-0.156832
-0.142272
-0.128121
-0.11492
-0.103139
-0.0929711
-0.084423
-0.0778044
-0.0735077
-0.0717788
-0.0724797
-0.0750892
-0.738228
-0.729288
-0.71417
-0.691869
-0.661821
-0.624082
-0.579435
-0.529271
-0.475273
-0.419162
-0.362562
-0.306934
-0.25361
-0.203541
-0.157366
-0.115624
-0.0792107
-0.0490529
-0.025657
-0.00978809
-0.00235332
-0.00422983
-0.0161002
-0.0382239
-0.070082
-0.109273
-0.153003
-0.198266
-0.241015
-0.278507
-0.308567
-0.327104
-0.334478
-0.334314
-0.329625
-0.323187
-0.31801
-0.316503
-0.319471
-0.326166
-0.335446
-0.346736
-0.358176
-0.366918
-0.370732
-0.368129
-0.35856
-0.342584
-0.321885
-0.298734
-0.275344
-0.253352
-0.233886
-0.217384
-0.204235
-0.194619
-0.188065
-0.183328
-0.178465
-0.172144
-0.166355
-0.160554
-0.153646
-0.146087
-0.138498
-0.131281
-0.124936
-0.120061
-0.11715
-0.116541
-0.118433
-0.122851
-0.129636
-0.138502
-0.148561
-0.158735
-0.168154
-0.175731
-0.178402
-0.181155
-0.182008
-0.174397
-0.164552
-0.155945
-0.145751
-0.134659
-0.123435
-0.112578
-0.102326
-0.0927852
-0.0842974
-0.0772102
-0.0720664
-0.0692768
-0.0688223
-0.0702752
-0.702721
-0.69215
-0.676623
-0.655452
-0.628256
-0.595079
-0.556434
-0.513232
-0.466632
-0.417896
-0.368269
-0.318943
-0.271086
-0.225554
-0.18298
-0.143835
-0.108896
-0.0794883
-0.056434
-0.0404245
-0.0325672
-0.0338792
-0.0450465
-0.0665134
-0.0976575
-0.135568
-0.176891
-0.218525
-0.256318
-0.287608
-0.311193
-0.322978
-0.322505
-0.314889
-0.304199
-0.293549
-0.286437
-0.285668
-0.292673
-0.306501
-0.324654
-0.345634
-0.367434
-0.385987
-0.397776
-0.40038
-0.39264
-0.37509
-0.350228
-0.321131
-0.290949
-0.262184
-0.236663
-0.215191
-0.19796
-0.184908
-0.175711
-0.169362
-0.163849
-0.158262
-0.153159
-0.148266
-0.14267
-0.136528
-0.130186
-0.123889
-0.118034
-0.113206
-0.109901
-0.108393
-0.10888
-0.111333
-0.115616
-0.121756
-0.129515
-0.137554
-0.144863
-0.150674
-0.154989
-0.15851
-0.158048
-0.156058
-0.152266
-0.147032
-0.140299
-0.132352
-0.123703
-0.114526
-0.105069
-0.0956954
-0.0869744
-0.0791518
-0.0729273
-0.0688753
-0.0671092
-0.0672502
-0.671972
-0.660683
-0.645511
-0.625964
-0.601754
-0.572865
-0.539582
-0.502461
-0.46225
-0.419827
-0.376114
-0.332081
-0.288746
-0.246851
-0.207014
-0.169727
-0.135522
-0.105866
-0.0824626
-0.0658905
-0.0574367
-0.0584421
-0.0698636
-0.0922456
-0.124862
-0.16417
-0.206342
-0.247717
-0.282913
-0.308761
-0.324723
-0.328727
-0.318865
-0.301632
-0.282381
-0.265081
-0.253743
-0.252002
-0.262157
-0.283782
-0.312956
-0.345755
-0.380204
-0.411548
-0.434031
-0.443539
-0.438036
-0.418112
-0.387008
-0.349493
-0.310173
-0.272709
-0.239584
-0.211832
-0.189691
-0.173125
-0.161565
-0.153562
-0.14843
-0.145463
-0.142922
-0.140305
-0.137133
-0.133319
-0.12884
-0.123632
-0.118037
-0.112936
-0.109025
-0.106425
-0.105204
-0.105115
-0.105838
-0.108624
-0.11355
-0.117976
-0.123325
-0.129502
-0.134299
-0.138416
-0.142328
-0.144621
-0.144845
-0.143109
-0.139638
-0.134474
-0.127408
-0.118957
-0.109747
-0.100369
-0.0909782
-0.0823043
-0.0749992
-0.0696021
-0.0664046
-0.0652056
-0.644814
-0.633412
-0.619101
-0.601514
-0.580394
-0.555631
-0.527303
-0.495673
-0.461134
-0.424198
-0.385476
-0.34575
-0.305861
-0.266503
-0.228354
-0.192146
-0.158275
-0.127458
-0.102609
-0.0851223
-0.0761095
-0.0772386
-0.0900671
-0.11547
-0.152037
-0.195337
-0.241271
-0.285102
-0.320301
-0.343847
-0.353572
-0.346117
-0.324081
-0.294643
-0.263827
-0.23711
-0.219312
-0.214409
-0.225784
-0.254718
-0.297
-0.345128
-0.394598
-0.441792
-0.478385
-0.497255
-0.494778
-0.471907
-0.432175
-0.383333
-0.332206
-0.28377
-0.241183
-0.205603
-0.177675
-0.157222
-0.143457
-0.135373
-0.132004
-0.131761
-0.132807
-0.134043
-0.134606
-0.134111
-0.132329
-0.128823
-0.12371
-0.118223
-0.113148
-0.108505
-0.104771
-0.100523
-0.0963063
-0.0962169
-0.0995644
-0.102697
-0.107013
-0.11198
-0.118394
-0.125508
-0.132089
-0.137249
-0.140946
-0.142692
-0.141484
-0.138009
-0.132188
-0.124301
-0.114965
-0.10503
-0.0948156
-0.0850841
-0.076863
-0.0704577
-0.0659675
-0.0634344
-0.620424
-0.609319
-0.596187
-0.580752
-0.562771
-0.542064
-0.518558
-0.492201
-0.462993
-0.431103
-0.39683
-0.360775
-0.323687
-0.286056
-0.248439
-0.212217
-0.177782
-0.144726
-0.116151
-0.0960108
-0.0859219
-0.0872368
-0.102602
-0.13412
-0.17864
-0.229246
-0.282139
-0.332195
-0.371639
-0.394374
-0.396206
-0.375858
-0.339599
-0.29493
-0.249196
-0.209902
-0.183471
-0.173472
-0.183885
-0.218346
-0.273708
-0.339692
-0.407547
-0.47366
-0.527973
-0.559302
-0.561306
-0.534143
-0.483169
-0.420208
-0.354846
-0.293072
-0.239442
-0.194597
-0.160186
-0.136263
-0.121666
-0.114947
-0.11413
-0.117467
-0.12359
-0.130202
-0.135982
-0.14041
-0.142382
-0.140474
-0.133724
-0.125897
-0.120235
-0.114596
-0.106948
-0.0988468
-0.0933208
-0.0905258
-0.0894258
-0.0898336
-0.0931444
-0.0988321
-0.106374
-0.115816
-0.125625
-0.133965
-0.139689
-0.143096
-0.143945
-0.141854
-0.136753
-0.129088
-0.119517
-0.108673
-0.0976174
-0.087105
-0.0778292
-0.0701533
-0.0645122
-0.0609767
-0.59833
-0.587934
-0.576398
-0.563507
-0.548967
-0.532453
-0.513825
-0.492787
-0.468829
-0.441682
-0.411415
-0.37846
-0.343496
-0.306738
-0.268348
-0.229561
-0.19163
-0.155614
-0.123249
-0.0990951
-0.0862395
-0.0869208
-0.105128
-0.14412
-0.199127
-0.261597
-0.327105
-0.388606
-0.434561
-0.456786
-0.450991
-0.419024
-0.367328
-0.30584
-0.243967
-0.190553
-0.152725
-0.134208
-0.141134
-0.179074
-0.244649
-0.325514
-0.413184
-0.499863
-0.573825
-0.620833
-0.629716
-0.597653
-0.533959
-0.455535
-0.37429
-0.298255
-0.233076
-0.178989
-0.138144
-0.110757
-0.0958205
-0.091653
-0.0957918
-0.105638
-0.11852
-0.131754
-0.142505
-0.151263
-0.156314
-0.156018
-0.150806
-0.142415
-0.133036
-0.123451
-0.112539
-0.101406
-0.0920529
-0.0860512
-0.0833999
-0.0831104
-0.0861178
-0.0923106
-0.10046
-0.109963
-0.119946
-0.128911
-0.136174
-0.141476
-0.144627
-0.144158
-0.140158
-0.1329
-0.122947
-0.111261
-0.0996824
-0.0886137
-0.0778115
-0.0686376
-0.061917
-0.0575371
-0.577984
-0.568556
-0.558872
-0.548775
-0.538009
-0.526181
-0.512745
-0.496969
-0.478007
-0.455152
-0.428082
-0.397026
-0.362874
-0.326395
-0.287529
-0.246409
-0.204016
-0.162151
-0.123804
-0.0941294
-0.0769484
-0.0759211
-0.0970717
-0.142072
-0.204961
-0.279932
-0.360678
-0.436011
-0.491418
-0.516178
-0.505535
-0.464106
-0.399228
-0.32277
-0.246937
-0.182245
-0.135811
-0.110715
-0.111329
-0.147488
-0.218034
-0.309177
-0.412832
-0.517436
-0.607096
-0.666946
-0.681304
-0.644922
-0.57066
-0.479516
-0.387173
-0.301124
-0.224057
-0.161509
-0.116033
-0.086947
-0.0725704
-0.0707066
-0.0789805
-0.094417
-0.113187
-0.132029
-0.148226
-0.161341
-0.169994
-0.171813
-0.166685
-0.157442
-0.145649
-0.132414
-0.118191
-0.104542
-0.0933881
-0.0860712
-0.0816692
-0.0797121
-0.0809637
-0.0860088
-0.0940873
-0.103989
-0.114712
-0.125168
-0.134373
-0.141527
-0.146148
-0.147018
-0.143774
-0.136598
-0.126227
-0.113936
-0.101192
-0.0887447
-0.076657
-0.0663691
-0.0586267
-0.0535271
-0.559124
-0.55073
-0.543001
-0.535833
-0.528908
-0.521648
-0.513276
-0.502746
-0.488703
-0.469942
-0.445881
-0.416789
-0.383497
-0.346619
-0.30605
-0.261621
-0.214815
-0.168882
-0.127144
-0.0912861
-0.0640155
-0.0562591
-0.080165
-0.133377
-0.204395
-0.286634
-0.373349
-0.452984
-0.512453
-0.540836
-0.534208
-0.491679
-0.424578
-0.342776
-0.259151
-0.186893
-0.134431
-0.107523
-0.109374
-0.144266
-0.211057
-0.300535
-0.405542
-0.517134
-0.61684
-0.683215
-0.699352
-0.660853
-0.583343
-0.487988
-0.391424
-0.299989
-0.216336
-0.1485
-0.0993288
-0.0688843
-0.0560793
-0.058147
-0.071451
-0.0912254
-0.113074
-0.134261
-0.153436
-0.167437
-0.17507
-0.176191
-0.171812
-0.162892
-0.15077
-0.136875
-0.122263
-0.108212
-0.0960782
-0.0869011
-0.0808349
-0.077893
-0.0785782
-0.0828759
-0.0901398
-0.099755
-0.110673
-0.121761
-0.132186
-0.14095
-0.146813
-0.148872
-0.146489
-0.139605
-0.129006
-0.116107
-0.102317
-0.0886248
-0.0757661
-0.0646872
-0.0561239
-0.0504515
-0.542832
-0.535433
-0.529493
-0.525042
-0.521818
-0.518992
-0.515332
-0.509492
-0.499396
-0.483184
-0.460419
-0.432719
-0.401714
-0.367801
-0.329337
-0.282801
-0.228837
-0.172461
-0.126175
-0.0952293
-0.0754076
-0.0760019
-0.0988774
-0.144743
-0.207939
-0.282734
-0.362094
-0.435136
-0.490063
-0.516629
-0.510895
-0.475895
-0.417563
-0.345698
-0.272124
-0.207798
-0.160267
-0.134628
-0.134063
-0.162698
-0.219956
-0.298916
-0.393453
-0.496208
-0.590833
-0.654651
-0.672652
-0.638884
-0.568541
-0.479059
-0.384974
-0.294766
-0.214288
-0.149173
-0.102259
-0.0735104
-0.0611452
-0.0623421
-0.0744376
-0.0928542
-0.113623
-0.134112
-0.152778
-0.166414
-0.173835
-0.175142
-0.170841
-0.162162
-0.150272
-0.136554
-0.122354
-0.108884
-0.0968645
-0.0872486
-0.0808585
-0.0778528
-0.0784246
-0.0825145
-0.0898144
-0.0992014
-0.109478
-0.119983
-0.130207
-0.138925
-0.144672
-0.146778
-0.144575
-0.138096
-0.12803
-0.115579
-0.102067
-0.0885809
-0.0760016
-0.0651311
-0.0566503
-0.0508942
-0.530866
-0.523559
-0.517685
-0.513432
-0.511026
-0.510308
-0.509851
-0.507903
-0.501344
-0.486966
-0.462887
-0.432128
-0.398508
-0.36483
-0.33034
-0.291475
-0.246126
-0.198079
-0.155083
-0.12377
-0.10593
-0.102913
-0.121253
-0.159437
-0.212426
-0.275896
-0.342542
-0.4037
-0.450178
-0.473598
-0.470455
-0.442714
-0.395395
-0.337196
-0.27788
-0.22556
-0.187658
-0.168406
-0.16991
-0.191672
-0.239278
-0.3022
-0.380004
-0.464528
-0.542063
-0.595132
-0.60961
-0.586996
-0.531296
-0.455693
-0.372983
-0.292433
-0.220416
-0.161373
-0.117777
-0.0900184
-0.0767772
-0.0758639
-0.0838721
-0.0981823
-0.11558
-0.133354
-0.149162
-0.160908
-0.167411
-0.168594
-0.16517
-0.157708
-0.147205
-0.134897
-0.122051
-0.109796
-0.0990409
-0.090536
-0.084778
-0.0819895
-0.082252
-0.0853366
-0.091627
-0.0997256
-0.10886
-0.118294
-0.12736
-0.135008
-0.140072
-0.141866
-0.139848
-0.134053
-0.12503
-0.11373
-0.101348
-0.0888495
-0.0770968
-0.066842
-0.0586711
-0.0528977
-0.527811
-0.521284
-0.516598
-0.51342
-0.511003
-0.508857
-0.505971
-0.502163
-0.493943
-0.48031
-0.460047
-0.431457
-0.397832
-0.36216
-0.325032
-0.285421
-0.243878
-0.201906
-0.166907
-0.142393
-0.131199
-0.129565
-0.14334
-0.176624
-0.219229
-0.271165
-0.326124
-0.376776
-0.414939
-0.433603
-0.431244
-0.410022
-0.372385
-0.326102
-0.279199
-0.238835
-0.210444
-0.197075
-0.200015
-0.219046
-0.255525
-0.306263
-0.368866
-0.436765
-0.499085
-0.541771
-0.55398
-0.536016
-0.492962
-0.431031
-0.360547
-0.290495
-0.227105
-0.17433
-0.134317
-0.107588
-0.0932253
-0.0893643
-0.093657
-0.103665
-0.116938
-0.131168
-0.144243
-0.154395
-0.160509
-0.162302
-0.159552
-0.153163
-0.144057
-0.133292
-0.121958
-0.111053
-0.101414
-0.0937132
-0.0884398
-0.0858797
-0.0861748
-0.0893553
-0.0943776
-0.101228
-0.10913
-0.117336
-0.125111
-0.131544
-0.135717
-0.136896
-0.135123
-0.129906
-0.121882
-0.11161
-0.100476
-0.0891068
-0.0783243
-0.0688144
-0.0610834
-0.0554073
-0.530982
-0.52399
-0.518403
-0.514142
-0.510892
-0.507911
-0.504174
-0.498376
-0.488313
-0.472304
-0.449829
-0.422457
-0.391218
-0.357248
-0.320908
-0.282197
-0.242632
-0.204975
-0.173774
-0.152367
-0.142225
-0.143571
-0.157547
-0.185663
-0.224499
-0.270803
-0.319773
-0.364444
-0.397646
-0.413739
-0.410602
-0.390863
-0.358087
-0.318548
-0.27869
-0.24474
-0.221551
-0.211516
-0.215754
-0.233884
-0.266163
-0.310975
-0.366195
-0.425532
-0.478962
-0.515016
-0.525257
-0.508155
-0.469066
-0.41423
-0.351371
-0.288059
-0.230095
-0.181226
-0.143476
-0.117473
-0.102696
-0.0976745
-0.0997462
-0.107368
-0.118378
-0.130604
-0.142036
-0.150998
-0.156339
-0.157435
-0.155307
-0.149807
-0.141687
-0.131922
-0.121533
-0.111473
-0.102563
-0.0954449
-0.09058
-0.088244
-0.0885486
-0.0913677
-0.0960387
-0.102279
-0.109496
-0.116979
-0.123968
-0.129638
-0.133198
-0.134036
-0.131891
-0.127042
-0.119623
-0.110233
-0.0998061
-0.0891153
-0.0789395
-0.069912
-0.0624855
-0.0569188
-1.21194
-1.28885
-1.40961
-1.5259
-1.58728
-1.56501
-1.45391
-1.29396
-1.1266
-0.978468
-0.880718
-0.839539
-0.827339
-0.848337
-0.873245
-0.870769
-0.836434
-0.774038
-0.695951
-0.615316
-0.54237
-0.483511
-0.441134
-0.413652
-0.406806
-0.416204
-0.43822
-0.47245
-0.521963
-0.590281
-0.664577
-0.736644
-0.795204
-0.830059
-0.838545
-0.821152
-0.783208
-0.732617
-0.676563
-0.620981
-0.570019
-0.525824
-0.488775
-0.460921
-0.441195
-0.428695
-0.422999
-0.423955
-0.431776
-0.446959
-0.46933
-0.497387
-0.528274
-0.558357
-0.583656
-0.60036
-0.605987
-0.600847
-0.585092
-0.561002
-0.531197
-0.49844
-0.465305
-0.433702
-0.405231
-0.3807
-0.360091
-0.34413
-0.333452
-0.328075
-0.32909
-0.335213
-0.34582
-0.360341
-0.377331
-0.395022
-0.411268
-0.423862
-0.430928
-0.431462
-0.425273
-0.412695
-0.394827
-0.373117
-0.349182
-0.324584
-1.33597
-1.43925
-1.60872
-1.7822
-1.87237
-1.82619
-1.6627
-1.43717
-1.20118
-0.984464
-0.817772
-0.719748
-0.671816
-0.65035
-0.641714
-0.637007
-0.620229
-0.585719
-0.538333
-0.487365
-0.440677
-0.404134
-0.380019
-0.37052
-0.378162
-0.400092
-0.433041
-0.478942
-0.545716
-0.631519
-0.717177
-0.797413
-0.858956
-0.890588
-0.892166
-0.864838
-0.816737
-0.756797
-0.693078
-0.631393
-0.575429
-0.525747
-0.485655
-0.456469
-0.434488
-0.419535
-0.411288
-0.409345
-0.413785
-0.424887
-0.442546
-0.46585
-0.492626
-0.519363
-0.542411
-0.558469
-0.565095
-0.562368
-0.550145
-0.530252
-0.504973
-0.476753
-0.447902
-0.420242
-0.395233
-0.373781
-0.356321
-0.342921
-0.333938
-0.329989
-0.332647
-0.341769
-0.353856
-0.369858
-0.388489
-0.407603
-0.424884
-0.437984
-0.444886
-0.444816
-0.437344
-0.42306
-0.403205
-0.379374
-0.353301
-0.32666
-0.300947
-0.277178
-0.255258
-0.236413
-0.222852
-0.214185
-0.209655
-0.208818
-0.211563
-0.217426
-1.39588
-1.51091
-1.71746
-1.91972
-2.01017
-1.93664
-1.72665
-1.45994
-1.18801
-0.938764
-0.728265
-0.574667
-0.489103
-0.450137
-0.429263
-0.41677
-0.406101
-0.391303
-0.369622
-0.345101
-0.323569
-0.309428
-0.305381
-0.31378
-0.335744
-0.36907
-0.413127
-0.475349
-0.560558
-0.653123
-0.751126
-0.838858
-0.900224
-0.927941
-0.921088
-0.884524
-0.8282
-0.761819
-0.693503
-0.628228
-0.567404
-0.516076
-0.476842
-0.446267
-0.423003
-0.406506
-0.396154
-0.39159
-0.39285
-0.400149
-0.413473
-0.432131
-0.45453
-0.477865
-0.498617
-0.513753
-0.521061
-0.520255
-0.511191
-0.49517
-0.474176
-0.450325
-0.425668
-0.401894
-0.380317
-0.361807
-0.34685
-0.335743
-0.32902
-0.3281
-0.332485
-0.342192
-0.355959
-0.373668
-0.393773
-0.41409
-0.432191
-0.445607
-0.452237
-0.451462
-0.442809
-0.427026
-0.405488
-0.379881
-0.352047
-0.323779
-0.296507
-0.27056
-0.246561
-0.227558
-0.213682
-0.204146
-0.19883
-0.197408
-0.199532
-0.204689
-1.35416
-1.47062
-1.7002
-1.91373
-2.00112
-1.90164
-1.66977
-1.38991
-1.10404
-0.847533
-0.633199
-0.463504
-0.338251
-0.264201
-0.235419
-0.223435
-0.215842
-0.210661
-0.207587
-0.203609
-0.20206
-0.206278
-0.218825
-0.241679
-0.27595
-0.321266
-0.381921
-0.463493
-0.556276
-0.656149
-0.763985
-0.85499
-0.913187
-0.935558
-0.920822
-0.877388
-0.816285
-0.747278
-0.677155
-0.608666
-0.548276
-0.50069
-0.462407
-0.431814
-0.40822
-0.390776
-0.378852
-0.372096
-0.370502
-0.374294
-0.383604
-0.397984
-0.416152
-0.435941
-0.45439
-0.468527
-0.476235
-0.476751
-0.470371
-0.457743
-0.440548
-0.420612
-0.399723
-0.379402
-0.360858
-0.345006
-0.332472
-0.323721
-0.319458
-0.321198