/*--------------------------------*- C++ -*----------------------------------*\
| =========                 |                                                 |
| \\      /  F ield         | OpenFOAM: The Open Source CFD Toolbox           |
|  \\    /   O peration     | Version:  2206                                  |
|   \\  /    A nd           | Website:  www.openfoam.com                      |
|    \\/     M anipulation  |                                                 |
\*---------------------------------------------------------------------------*/
FoamFile
{
    version     2.0;
    format      ascii;
    arch        "LSB;label=32;scalar=64";
    class       surfaceScalarField;
    location    "18.9999";
    object      phi;
}
// * * * * * * * * * * * * * * * * * * * * * * * * * * * * * * * * * * * * * //

dimensions      [0 3 -1 0 0 0 0];

oriented        oriented;

internalField   nonuniform List<scalar> 
6011
(
9.53437e-06
-1.95436e-06
9.46429e-06
-2.07979e-06
2.14987e-06
9.37444e-06
-2.15153e-06
2.24138e-06
9.26389e-06
-2.17171e-06
2.28226e-06
9.13588e-06
-2.14979e-06
2.2778e-06
8.99453e-06
-2.09756e-06
2.23892e-06
8.84448e-06
-2.02505e-06
2.1751e-06
8.69079e-06
-1.93902e-06
2.09271e-06
8.53839e-06
-1.84192e-06
1.99432e-06
8.39154e-06
-1.73222e-06
1.87906e-06
8.25361e-06
-1.60599e-06
1.74392e-06
8.12711e-06
-1.4589e-06
1.58539e-06
8.0141e-06
-1.2878e-06
1.40081e-06
7.91641e-06
-1.09137e-06
1.18907e-06
7.83577e-06
-8.702e-07
9.50832e-07
7.77381e-06
-6.26664e-07
6.88628e-07
7.73181e-06
-3.64832e-07
4.06833e-07
7.71055e-06
-9.03271e-08
1.1159e-07
7.70994e-06
1.89417e-07
-1.88807e-07
7.729e-06
4.65984e-07
-4.85042e-07
7.76611e-06
7.32797e-07
-7.69909e-07
7.81908e-06
9.83562e-07
-1.03654e-06
7.88529e-06
1.2127e-06
-1.27891e-06
7.96187e-06
1.41572e-06
-1.4923e-06
8.04597e-06
1.58941e-06
-1.67351e-06
8.13499e-06
1.73186e-06
-1.82089e-06
8.22687e-06
1.8422e-06
-1.93408e-06
8.32038e-06
1.92e-06
-2.01351e-06
8.41525e-06
1.96435e-06
-2.05922e-06
8.51133e-06
1.97287e-06
-2.06895e-06
8.60758e-06
1.9437e-06
-2.03995e-06
8.70304e-06
1.87648e-06
-1.97195e-06
8.7971e-06
1.7714e-06
-1.86547e-06
8.88935e-06
1.62926e-06
-1.72151e-06
8.97933e-06
1.45137e-06
-1.54135e-06
9.06644e-06
1.23956e-06
-1.32667e-06
9.14986e-06
9.96403e-07
-1.07983e-06
9.22853e-06
7.25546e-07
-8.04217e-07
9.30094e-06
4.3244e-07
-5.04854e-07
9.36454e-06
1.25944e-07
-1.89537e-07
9.41619e-06
-1.80633e-07
1.28976e-07
9.45407e-06
-4.76537e-07
4.38657e-07
9.47662e-06
-7.52641e-07
7.30092e-07
9.48277e-06
-1.00108e-06
9.9494e-07
9.47202e-06
-1.2158e-06
1.22655e-06
9.44449e-06
-1.39285e-06
1.42038e-06
9.40073e-06
-1.53039e-06
1.57415e-06
9.34106e-06
-1.62784e-06
1.68751e-06
9.26486e-06
-1.68475e-06
1.76096e-06
9.1723e-06
-1.70218e-06
1.79474e-06
9.06657e-06
-1.68574e-06
1.79147e-06
8.95143e-06
-1.6424e-06
1.75755e-06
8.83093e-06
-1.57845e-06
1.69895e-06
8.70923e-06
-1.49871e-06
1.62041e-06
8.59012e-06
-1.40588e-06
1.52499e-06
8.47671e-06
-1.30059e-06
1.414e-06
8.37136e-06
-1.182e-06
1.28736e-06
8.27586e-06
-1.04878e-06
1.14428e-06
8.19169e-06
-8.99852e-07
9.84025e-07
8.12014e-06
-7.34819e-07
8.06365e-07
8.06241e-06
-5.54218e-07
6.11952e-07
8.01952e-06
-3.59674e-07
4.02565e-07
7.99226e-06
-1.54018e-07
1.81275e-07
7.98103e-06
5.8507e-08
-4.72769e-08
7.9855e-06
2.71757e-07
-2.76231e-07
8.00481e-06
4.80247e-07
-4.99553e-07
8.03764e-06
6.78992e-07
-7.1182e-07
8.08228e-06
8.63296e-07
-9.07943e-07
8.13675e-06
1.02909e-06
-1.08356e-06
8.19891e-06
1.17318e-06
-1.23533e-06
8.26666e-06
1.29332e-06
-1.36107e-06
8.33821e-06
1.38816e-06
-1.45972e-06
8.41237e-06
1.45693e-06
-1.53109e-06
8.48872e-06
1.49876e-06
-1.5751e-06
8.5671e-06
1.51195e-06
-1.59034e-06
8.64659e-06
1.49502e-06
-1.5745e-06
8.72605e-06
1.44784e-06
-1.5273e-06
8.80456e-06
1.37087e-06
-1.44938e-06
8.88146e-06
1.26522e-06
-1.34212e-06
8.95623e-06
1.13248e-06
-1.20725e-06
9.0284e-06
9.74522e-07
-1.04669e-06
9.0975e-06
7.93536e-07
-8.62639e-07
9.16295e-06
5.92239e-07
-6.57688e-07
9.22382e-06
3.74386e-07
-4.35259e-07
9.27831e-06
1.45959e-07
-2.00448e-07
9.32378e-06
-8.37614e-08
3.82939e-08
9.35853e-06
-3.06792e-07
2.72046e-07
9.38108e-06
-5.16572e-07
4.94023e-07
9.39039e-06
-7.07372e-07
6.9806e-07
9.38592e-06
-8.74609e-07
8.79074e-07
9.36768e-06
-1.01516e-06
1.0334e-06
9.3361e-06
-1.1274e-06
1.15898e-06
9.29171e-06
-1.21079e-06
1.25519e-06
9.23439e-06
-1.26486e-06
1.32219e-06
9.16414e-06
-1.28968e-06
1.35993e-06
9.08294e-06
-1.28789e-06
1.36908e-06
8.99374e-06
-1.26379e-06
1.353e-06
8.89973e-06
-1.22157e-06
1.31558e-06
8.80424e-06
-1.16473e-06
1.26022e-06
8.7104e-06
-1.09572e-06
1.18956e-06
8.62086e-06
-1.01571e-06
1.10525e-06
8.53765e-06
-9.2482e-07
1.00803e-06
8.46229e-06
-8.22646e-07
8.98009e-07
8.39591e-06
-7.08772e-07
7.75147e-07
8.33945e-06
-5.83111e-07
6.39579e-07
8.29366e-06
-4.46108e-07
4.9189e-07
8.25923e-06
-2.98886e-07
3.33321e-07
8.23665e-06
-1.43361e-07
1.65942e-07
8.22618e-06
1.75555e-08
-7.08888e-09
8.22761e-06
1.79439e-07
-1.80863e-07
8.24032e-06
3.38205e-07
-3.50922e-07
8.26344e-06
4.90192e-07
-5.13305e-07
8.29576e-06
6.31902e-07
-6.64225e-07
8.33587e-06
7.60214e-07
-8.00319e-07
8.38219e-06
8.72568e-07
-9.18894e-07
8.4332e-06
9.67083e-07
-1.01809e-06
8.48753e-06
1.04256e-06
-1.09689e-06
8.54423e-06
1.0983e-06
-1.155e-06
8.60293e-06
1.13362e-06
-1.19233e-06
8.66357e-06
1.14727e-06
-1.20791e-06
8.72543e-06
1.13798e-06
-1.19985e-06
8.78759e-06
1.10553e-06
-1.16769e-06
8.84918e-06
1.05016e-06
-1.11174e-06
9.72693e-07
-1.03302e-06
9.71011e-06
-1.88397e-06
9.61816e-06
-1.98784e-06
9.50314e-06
-2.03651e-06
9.36689e-06
-2.03546e-06
9.21372e-06
-1.99662e-06
9.04846e-06
-1.9323e-06
8.8764e-06
-1.85299e-06
8.70295e-06
-1.76557e-06
8.53315e-06
-1.67213e-06
8.37124e-06
-1.5703e-06
8.22039e-06
-1.45514e-06
8.08293e-06
-1.32143e-06
7.96068e-06
-1.16556e-06
7.85528e-06
-9.85971e-07
7.76825e-06
-7.83166e-07
7.70102e-06
-5.59441e-07
7.6548e-06
-3.1861e-07
7.63031e-06
-6.58392e-08
7.62751e-06
1.92216e-07
7.64549e-06
4.4801e-07
7.68274e-06
6.95544e-07
7.73723e-06
9.29077e-07
7.80647e-06
1.14346e-06
7.88776e-06
1.33443e-06
7.97838e-06
1.49879e-06
8.07587e-06
1.63438e-06
8.17826e-06
1.7398e-06
8.28437e-06
1.81389e-06
8.3937e-06
1.85503e-06
8.50548e-06
1.86109e-06
8.6184e-06
1.83077e-06
8.73133e-06
1.76355e-06
8.84327e-06
1.65947e-06
8.95326e-06
1.51927e-06
9.06035e-06
1.34428e-06
9.16344e-06
1.13647e-06
9.2613e-06
8.98546e-07
9.35244e-06
6.34402e-07
9.43478e-06
3.50098e-07
9.50475e-06
5.59751e-08
9.55934e-06
-2.35217e-07
9.59658e-06
-5.13777e-07
9.61502e-06
-7.71085e-07
9.61387e-06
-9.99931e-07
9.593e-06
-1.19492e-06
9.55285e-06
-1.3527e-06
9.49396e-06
-1.47151e-06
9.41615e-06
-1.55003e-06
9.31922e-06
-1.58782e-06
9.20574e-06
-1.58871e-06
9.07978e-06
-1.55978e-06
8.94573e-06
-1.50835e-06
8.80818e-06
-1.4409e-06
8.67147e-06
-1.362e-06
8.53942e-06
-1.27383e-06
8.41495e-06
-1.17613e-06
8.30016e-06
-1.06721e-06
8.19657e-06
-9.4519e-07
8.10548e-06
-8.08766e-07
8.02809e-06
-6.57426e-07
7.9655e-06
-4.91628e-07
7.9187e-06
-3.12872e-07
7.88845e-06
-1.23776e-07
7.87517e-06
7.17879e-08
7.87856e-06
2.68368e-07
7.8978e-06
4.61006e-07
7.93165e-06
6.45142e-07
7.97848e-06
8.16465e-07
8.03639e-06
9.71182e-07
8.10335e-06
1.10622e-06
8.1774e-06
1.21927e-06
8.25688e-06
1.30869e-06
8.34064e-06
1.37317e-06
8.42808e-06
1.41132e-06
8.51853e-06
1.42151e-06
8.61071e-06
1.40283e-06
8.70343e-06
1.35513e-06
8.79554e-06
1.27875e-06
8.88607e-06
1.17469e-06
8.97416e-06
1.04439e-06
9.05903e-06
8.89648e-07
9.13992e-06
7.12646e-07
9.21591e-06
5.16247e-07
9.28557e-06
3.04726e-07
9.34617e-06
8.53578e-08
9.39504e-06
-1.32625e-07
9.43025e-06
-3.42005e-07
9.45032e-06
-5.36645e-07
9.45446e-06
-7.1151e-07
9.44249e-06
-8.62642e-07
9.41477e-06
-9.87433e-07
9.37187e-06
-1.08451e-06
9.31388e-06
-1.1528e-06
9.24064e-06
-1.19162e-06
9.15376e-06
-1.2028e-06
9.05642e-06
-1.19055e-06
8.95213e-06
-1.1595e-06
8.84454e-06
-1.11398e-06
8.73717e-06
-1.05735e-06
8.63313e-06
-9.91684e-07
8.53494e-06
-9.17518e-07
8.4444e-06
-8.34285e-07
8.36279e-06
-7.4103e-07
8.29108e-06
-6.37067e-07
8.23013e-06
-5.22157e-07
8.18066e-06
-3.96645e-07
8.14333e-06
-2.6155e-07
8.11862e-06
-1.18648e-07
8.10679e-06
2.93813e-08
8.10764e-06
1.78585e-07
8.1206e-06
3.25244e-07
8.14481e-06
4.65985e-07
8.17913e-06
5.97582e-07
8.22221e-06
7.17138e-07
8.27255e-06
8.22227e-07
8.32867e-06
9.10962e-07
8.38929e-06
9.81942e-07
8.45351e-06
1.03408e-06
8.52086e-06
1.06627e-06
8.59085e-06
1.07729e-06
8.66251e-06
1.06632e-06
8.73482e-06
1.03322e-06
8.80682e-06
9.78161e-07
9.0188e-07
9.86802e-06
-1.79425e-06
9.75296e-06
-1.87278e-06
9.61266e-06
-1.8962e-06
9.45123e-06
-1.87403e-06
9.27368e-06
-1.81907e-06
9.08573e-06
-1.74434e-06
8.89352e-06
-1.66079e-06
8.70299e-06
-1.57504e-06
8.51883e-06
-1.48797e-06
8.3446e-06
-1.39607e-06
8.18328e-06
-1.29383e-06
8.03728e-06
-1.17542e-06
7.90822e-06
-1.0365e-06
7.79744e-06
-8.75192e-07
7.7062e-06
-6.91924e-07
7.6357e-06
-4.88945e-07
7.58698e-06
-2.69891e-07
7.56069e-06
-3.95455e-08
7.55678e-06
1.96124e-07
7.57439e-06
4.30399e-07
7.61216e-06
6.57779e-07
7.6682e-06
8.7303e-07
7.74026e-06
1.07141e-06
7.82581e-06
1.24888e-06
7.92234e-06
1.40226e-06
8.02755e-06
1.52917e-06
8.13964e-06
1.62771e-06
8.25739e-06
1.69614e-06
8.37993e-06
1.73249e-06
8.50603e-06
1.73499e-06
8.63416e-06
1.70264e-06
8.76293e-06
1.63479e-06
8.89094e-06
1.53146e-06
9.01681e-06
1.3934e-06
9.13909e-06
1.222e-06
9.25631e-06
1.01926e-06
9.36684e-06
7.88009e-07
9.46878e-06
5.32464e-07
9.55916e-06
2.59713e-07
9.6337e-06
-1.85582e-08
9.68953e-06
-2.91049e-07
9.72455e-06
-5.48801e-07
9.73747e-06
-7.83997e-07
9.72779e-06
-9.90252e-07
9.69576e-06
-1.16289e-06
9.64198e-06
-1.29892e-06
9.56654e-06
-1.39607e-06
9.46902e-06
-1.45251e-06
9.35118e-06
-1.46998e-06
9.21723e-06
-1.45476e-06
9.07199e-06
-1.41455e-06
8.92067e-06
-1.35703e-06
8.76838e-06
-1.2886e-06
8.61966e-06
-1.21328e-06
8.47786e-06
-1.13203e-06
8.34527e-06
-1.04353e-06
8.22368e-06
-9.45618e-07
8.11452e-06
-8.36033e-07
8.01889e-06
-7.13139e-07
7.93784e-06
-5.76371e-07
7.87235e-06
-4.26144e-07
7.82335e-06
-2.63864e-07
7.79154e-06
-9.19677e-08
7.77731e-06
8.6011e-08
7.7804e-06
2.65287e-07
7.80003e-06
4.41374e-07
7.83506e-06
6.10111e-07
7.88398e-06
7.67542e-07
7.94503e-06
9.10131e-07
8.01634e-06
1.03491e-06
8.09613e-06
1.13949e-06
8.18286e-06
1.22195e-06
8.27544e-06
1.28059e-06
8.37299e-06
1.31377e-06
8.47434e-06
1.32016e-06
8.57802e-06
1.29914e-06
8.68269e-06
1.25047e-06
8.787e-06
1.17444e-06
8.88972e-06
1.07197e-06
8.98972e-06
9.4439e-07
9.08595e-06
7.93414e-07
9.17735e-06
6.21253e-07
9.26255e-06
4.31044e-07
9.33929e-06
2.2798e-07
9.40418e-06
2.04731e-08
9.45465e-06
-1.831e-07
9.48853e-06
-3.75884e-07
9.50431e-06
-5.5242e-07
9.50167e-06
-7.08875e-07
9.48106e-06
-8.42032e-07
9.44291e-06
-9.49283e-07
9.38728e-06
-1.02887e-06
9.31388e-06
-1.0794e-06
9.22399e-06
-1.10173e-06
9.12086e-06
-1.09966e-06
9.00836e-06
-1.07805e-06
8.89063e-06
-1.04177e-06
8.77168e-06
-9.95031e-07
8.65516e-06
-9.40834e-07
8.54388e-06
-8.80405e-07
8.43977e-06
-8.13405e-07
8.34427e-06
-7.38789e-07
8.25856e-06
-6.55315e-07
8.1835e-06
-5.6201e-07
8.11984e-06
-4.58492e-07
8.06824e-06
-3.45048e-07
8.02931e-06
-2.22619e-07
8.00353e-06
-9.28689e-08
7.99117e-06
4.1741e-08
7.99203e-06
1.77724e-07
8.00558e-06
3.11696e-07
8.031e-06
4.40561e-07
8.06724e-06
5.61346e-07
8.11302e-06
6.71352e-07
8.16699e-06
7.68258e-07
8.2278e-06
8.50154e-07
8.29427e-06
9.15475e-07
8.36551e-06
9.62834e-07
8.44086e-06
9.90929e-07
8.51941e-06
9.98729e-07
8.60003e-06
9.85707e-07
8.68162e-06
9.5163e-07
8.76311e-06
8.96674e-07
8.21503e-07
1.0001e-05
-1.6842e-06
9.86196e-06
-1.73374e-06
9.69705e-06
-1.73129e-06
9.51127e-06
-1.68825e-06
9.31064e-06
-1.61844e-06
9.10201e-06
-1.53572e-06
8.89246e-06
-1.45124e-06
8.68774e-06
-1.37032e-06
8.49196e-06
-1.29219e-06
8.30838e-06
-1.21249e-06
8.13964e-06
-1.12509e-06
7.98788e-06
-1.02366e-06
7.85462e-06
-9.03237e-07
7.74093e-06
-7.615e-07
7.64775e-06
-5.98748e-07
7.57601e-06
-4.17208e-07
7.52656e-06
-2.20433e-07
7.49993e-06
-1.29213e-08
7.49608e-06
1.99976e-07
7.51417e-06
4.12305e-07
7.55299e-06
6.1896e-07
7.61085e-06
8.15172e-07
7.68569e-06
9.96561e-07
7.77526e-06
1.15932e-06
7.87724e-06
1.30027e-06
7.98958e-06
1.41682e-06
8.11061e-06
1.50669e-06
8.23902e-06
1.56773e-06
8.37351e-06
1.59801e-06
8.5124e-06
1.5961e-06
8.65405e-06
1.56099e-06
8.79677e-06
1.49206e-06
8.93882e-06
1.38941e-06
9.07842e-06
1.2538e-06
9.21375e-06
1.08666e-06
9.343e-06
8.9001e-07
9.46423e-06
6.66778e-07
9.57496e-06
4.2173e-07
9.67107e-06
1.63609e-07
9.74817e-06
-9.56586e-08
9.80328e-06
-3.4616e-07
9.83417e-06
-5.79686e-07
9.83981e-06
-7.89639e-07
9.82019e-06
-9.7063e-07
9.77579e-06
-1.11849e-06
9.70686e-06
-1.23e-06
9.61286e-06
-1.30207e-06
9.49464e-06
-1.33428e-06
9.35614e-06
-1.33148e-06
9.20254e-06
-1.30116e-06
9.03972e-06
-1.25173e-06
8.87376e-06
-1.19106e-06
8.7102e-06
-1.12504e-06
8.55301e-06
-1.05609e-06
8.40468e-06
-9.83704e-07
8.26709e-06
-9.05942e-07
8.1417e-06
-8.20222e-07
8.02968e-06
-7.24018e-07
7.93203e-06
-6.15489e-07
7.8496e-06
-4.9394e-07
7.78323e-06
-3.59776e-07
7.73375e-06
-2.14379e-07
7.70182e-06
-6.00414e-08
7.6878e-06
1.00034e-07
7.69141e-06
2.61671e-07
7.71199e-06
4.20795e-07
7.7485e-06
5.73608e-07
7.79957e-06
7.16472e-07
7.86362e-06
8.46076e-07
7.93899e-06
9.59534e-07
8.02409e-06
1.05439e-06
8.11755e-06
1.12849e-06
8.21821e-06
1.17994e-06
8.3248e-06
1.20718e-06
8.4358e-06
1.20917e-06
8.54966e-06
1.18528e-06
8.66485e-06
1.13527e-06
8.77987e-06
1.05943e-06
8.89326e-06
9.58585e-07
9.00367e-06
8.33978e-07
9.10981e-06
6.87273e-07
9.21024e-06
5.20823e-07
9.30288e-06
3.384e-07
9.38416e-06
1.46704e-07
9.45065e-06
-4.60224e-08
9.50011e-06
-2.32553e-07
9.53055e-06
-4.06328e-07
9.54027e-06
-5.62136e-07
9.52941e-06
-6.98014e-07
9.49916e-06
-8.11785e-07
9.44904e-06
-8.99161e-07
9.37843e-06
-9.58269e-07
9.28827e-06
-9.89242e-07
9.18182e-06
-9.95281e-07
9.06334e-06
-9.81185e-07
8.93749e-06
-9.52201e-07
8.80893e-06
-9.13208e-07
8.68194e-06
-8.68038e-07
8.55968e-06
-8.1858e-07
8.44417e-06
-7.64893e-07
8.33688e-06
-7.06112e-07
8.23898e-06
-6.40889e-07
8.15144e-06
-5.67776e-07
8.07504e-06
-4.85616e-07
8.01044e-06
-3.93891e-07
7.95824e-06
-2.92842e-07
7.919e-06
-1.8338e-07
7.8932e-06
-6.70735e-08
7.88112e-06
5.38196e-08
7.88258e-06
1.76269e-07
7.89709e-06
2.97187e-07
7.92392e-06
4.13732e-07
7.9621e-06
5.23164e-07
8.01049e-06
6.22957e-07
8.06788e-06
7.10871e-07
8.13307e-06
7.84965e-07
8.20501e-06
8.43535e-07
8.28278e-06
8.85063e-07
8.36538e-06
9.08329e-07
8.45162e-06
9.1249e-07
8.5403e-06
8.97025e-07
8.63025e-06
8.61685e-07
8.72027e-06
8.06652e-07
7.3253e-07
1.01009e-05
-1.55242e-06
9.93816e-06
-1.57097e-06
9.74926e-06
-1.5424e-06
9.5404e-06
-1.47939e-06
9.31892e-06
-1.39696e-06
9.09291e-06
-1.30971e-06
8.86956e-06
-1.22788e-06
8.65396e-06
-1.15472e-06
8.44993e-06
-1.08816e-06
8.26036e-06
-1.02292e-06
8.08745e-06
-9.52184e-07
7.93298e-06
-8.69188e-07
7.79829e-06
-7.68548e-07
7.68419e-06
-6.47396e-07
7.59133e-06
-5.0589e-07
7.52037e-06
-3.4625e-07
7.47194e-06
-1.72001e-07
7.44647e-06
1.25457e-08
7.44388e-06
2.02565e-07
7.46339e-06
3.92797e-07
7.50392e-06
5.78434e-07
7.56398e-06
7.55109e-07
7.64177e-06
9.18774e-07
7.73527e-06
1.06582e-06
7.84246e-06
1.19308e-06
7.96152e-06
1.29777e-06
8.09082e-06
1.37739e-06
8.2288e-06
1.42974e-06
8.37374e-06
1.45308e-06
8.52376e-06
1.44608e-06
8.67704e-06
1.40771e-06
8.83163e-06
1.33747e-06
8.98547e-06
1.23557e-06
9.13646e-06
1.10281e-06
9.28253e-06
9.406e-07
9.42158e-06
7.50953e-07
9.5513e-06
5.37058e-07
9.6682e-06
3.04836e-07
9.76725e-06
6.45605e-08
9.84449e-06
-1.72899e-07
9.89656e-06
-3.98238e-07
9.92101e-06
-6.04136e-07
9.91727e-06
-7.85898e-07
9.88616e-06
-9.39519e-07
9.82793e-06
-1.06026e-06
9.74166e-06
-1.14372e-06
9.62719e-06
-1.1876e-06
9.4879e-06
-1.19499e-06
9.32915e-06
-1.17273e-06
9.15748e-06
-1.12948e-06
8.97993e-06
-1.07419e-06
8.80327e-06
-1.0144e-06
8.63241e-06
-9.54185e-07
8.47032e-06
-8.94e-07
8.31902e-06
-8.32396e-07
8.17989e-06
-7.66817e-07
8.05399e-06
-6.94318e-07
7.94216e-06
-6.12197e-07
7.84519e-06
-5.18515e-07
7.76373e-06
-4.12482e-07
7.69852e-06
-2.94565e-07
7.65029e-06
-1.6615e-07
7.61967e-06
-2.94223e-08
7.607e-06
1.12706e-07
7.61204e-06
2.56637e-07
7.63419e-06
3.9864e-07
7.67257e-06
5.35229e-07
7.72599e-06
6.63048e-07
7.79309e-06
7.78978e-07
7.87242e-06
8.80202e-07
7.96261e-06
9.64202e-07
8.06234e-06
1.02876e-06
8.17023e-06
1.07205e-06
8.28467e-06
1.09273e-06
8.40402e-06
1.08982e-06
8.52664e-06
1.06266e-06
8.65086e-06
1.01105e-06
8.77501e-06
9.35278e-07
8.89751e-06
8.3609e-07
9.01683e-06
7.14648e-07
9.13141e-06
5.72693e-07
9.23915e-06
4.1309e-07
9.33644e-06
2.41109e-07
9.4189e-06
6.42396e-08
9.48349e-06
-1.10605e-07
9.5282e-06
-2.77267e-07
9.55183e-06
-4.29958e-07
9.55453e-06
-5.64831e-07
9.53582e-06
-6.7931e-07
9.49397e-06
-7.69936e-07
9.42853e-06
-8.33713e-07
9.34045e-06
-8.70197e-07
9.23299e-06
-8.81781e-07
9.11074e-06
-8.73034e-07
8.97893e-06
-8.49367e-07
8.84285e-06
-8.16127e-07
8.70746e-06
-7.77812e-07
8.57635e-06
-7.36934e-07
8.45175e-06
-6.93973e-07
8.33516e-06
-6.48307e-07
8.22768e-06
-5.98633e-07
8.13013e-06
-5.43339e-07
8.04321e-06
-4.80857e-07
7.96758e-06
-4.09987e-07
7.90384e-06
-3.30152e-07
7.85256e-06
-2.41559e-07
7.81429e-06
-1.45113e-07
7.78952e-06
-4.23011e-08
7.77853e-06
6.48112e-08
7.78118e-06
1.73616e-07
7.79707e-06
2.81297e-07
7.82557e-06
3.85235e-07
7.86584e-06
4.82896e-07
7.91689e-06
5.71907e-07
7.97766e-06
6.50097e-07
8.04711e-06
7.15515e-07
8.12422e-06
7.66423e-07
8.2079e-06
8.0139e-07
8.29688e-06
8.19349e-07
8.38989e-06
8.19479e-07
8.48569e-06
8.0122e-07
8.58302e-06
7.64359e-07
8.6806e-06
7.0907e-07
6.35914e-07
1.01595e-05
-1.3977e-06
9.97315e-06
-1.3846e-06
9.76122e-06
-1.33047e-06
9.53147e-06
-1.24964e-06
9.29279e-06
-1.15828e-06
9.05386e-06
-1.07078e-06
8.82108e-06
-9.95099e-07
8.59895e-06
-9.32587e-07
8.39083e-06
-8.8004e-07
8.19915e-06
-8.31237e-07
8.02564e-06
-7.78673e-07
7.87163e-06
-7.15181e-07
7.73821e-06
-6.35128e-07
7.62611e-06
-5.35299e-07
7.53573e-06
-4.15508e-07
7.46749e-06
-2.78009e-07
7.4218e-06
-1.26309e-07
7.39894e-06
3.54027e-08
7.39883e-06
2.0268e-07
7.42075e-06
3.70874e-07
7.46373e-06
5.35452e-07
7.52652e-06
6.92316e-07
7.60758e-06
8.3772e-07
7.70517e-06
9.68225e-07
7.81754e-06
1.08071e-06
7.94299e-06
1.17232e-06
8.07979e-06
1.24059e-06
8.22602e-06
1.28351e-06
8.37975e-06
1.29935e-06
8.53906e-06
1.28677e-06
8.70191e-06
1.24486e-06
8.86608e-06
1.1733e-06
9.02928e-06
1.07236e-06
9.18925e-06
9.42842e-07
9.34377e-06
7.86084e-07
9.49049e-06
6.04234e-07
9.62617e-06
4.01373e-07
9.74565e-06
1.85361e-07
9.84393e-06
-3.37215e-08
9.91756e-06
-2.46533e-07
9.96361e-06
-4.44285e-07
9.97919e-06
-6.19715e-07
9.96421e-06
-7.70919e-07
9.92048e-06
-8.95791e-07
9.8459e-06
-9.85682e-07
9.73907e-06
-1.03689e-06
9.6026e-06
-1.05113e-06
9.44196e-06
-1.03435e-06
9.26427e-06
-9.95043e-07
9.07761e-06
-9.42827e-07
8.89003e-06
-8.86607e-07
8.7076e-06
-8.31977e-07
8.53395e-06
-7.80536e-07
8.37139e-06
-7.31437e-07
8.22131e-06
-6.82318e-07
8.08453e-06
-6.30033e-07
7.96157e-06
-5.71358e-07
7.85294e-06
-5.03564e-07
7.75921e-06
-4.24792e-07
7.68101e-06
-3.34275e-07
7.61891e-06
-2.32466e-07
7.57359e-06
-1.20834e-07
7.54566e-06
-1.49147e-09
7.53546e-06
1.22907e-07
7.54284e-06
2.4926e-07
7.56727e-06
3.74202e-07
7.60804e-06
4.94458e-07
7.66418e-06
6.06917e-07
7.73453e-06
7.08625e-07
7.81789e-06
7.9684e-07
7.913e-06
8.6909e-07
8.0184e-06
9.2336e-07
8.13246e-06
9.57995e-07
8.25351e-06
9.71678e-07
8.37988e-06
9.63456e-07
8.50979e-06
9.32741e-07
8.64149e-06
8.79355e-07
8.77321e-06
8.03551e-07
8.90331e-06
7.05999e-07
9.03007e-06
5.87883e-07
9.15143e-06
4.51337e-07
9.26398e-06
3.00542e-07
9.36296e-06
1.42127e-07
9.44428e-06
-1.70798e-08
9.50481e-06
-1.71141e-07
9.54249e-06
-3.14949e-07
9.55739e-06
-4.4485e-07
9.54955e-06
-5.56995e-07
9.51716e-06
-6.46922e-07
9.45822e-06
-7.10997e-07
9.37379e-06
-7.49286e-07
9.26712e-06
-7.63527e-07
9.14312e-06
-7.57776e-07
9.00752e-06
-7.37437e-07
8.86628e-06
-7.08126e-07
8.72496e-06
-6.74804e-07
8.58762e-06
-6.40474e-07
8.45669e-06
-6.06004e-07
8.33373e-06
-5.71007e-07
8.21969e-06
-5.34267e-07
8.11518e-06
-4.94124e-07
8.02067e-06
-4.48833e-07
7.93667e-06
-3.96854e-07
7.86375e-06
-3.37068e-07
7.80253e-06
-2.68934e-07
7.75358e-06
-1.92611e-07
7.71745e-06
-1.08985e-07
7.69465e-06
-1.94935e-08
7.68548e-06
7.3975e-08
7.68994e-06
1.69162e-07
7.70767e-06
2.63561e-07
7.73818e-06
3.54723e-07
7.78079e-06
4.40288e-07
7.83468e-06
5.18021e-07
7.89894e-06
5.85834e-07
7.97258e-06
6.41879e-07
8.05441e-06
6.84589e-07
8.14319e-06
7.12613e-07
8.23766e-06
7.24882e-07
8.33654e-06
7.20598e-07
8.43852e-06
6.99237e-07
8.54228e-06
6.60601e-07
8.64649e-06
6.04859e-07
5.32592e-07
1.01667e-05
-1.21883e-06
9.95643e-06
-1.17437e-06
9.72306e-06
-1.0971e-06
9.47625e-06
-1.00283e-06
9.22608e-06
-9.08113e-07
8.98033e-06
-8.25033e-07
8.74407e-06
-7.58839e-07
8.52104e-06
-7.0956e-07
8.31397e-06
-6.72961e-07
8.12467e-06
-6.41945e-07
7.95438e-06
-6.08383e-07
7.804e-06
-5.64801e-07
7.6744e-06
-5.05526e-07
7.56638e-06
-4.27272e-07
7.48033e-06
-3.29459e-07
7.41647e-06
-2.14152e-07
7.37504e-06
-8.48778e-08
7.35615e-06
5.42901e-08
7.35966e-06
1.99169e-07
7.38501e-06
3.45528e-07
7.43133e-06
4.89126e-07
7.49759e-06
6.26062e-07
7.58249e-06
7.52817e-07
7.68457e-06
8.66143e-07
7.8022e-06
9.63082e-07
7.93353e-06
1.04099e-06
8.07663e-06
1.09749e-06
8.22958e-06
1.13056e-06
8.3904e-06
1.13853e-06
8.55701e-06
1.12015e-06
8.72718e-06
1.07469e-06
8.89855e-06
1.00193e-06
9.06875e-06
9.02161e-07
9.2355e-06
7.76094e-07
9.39644e-06
6.25136e-07
9.54852e-06
4.52154e-07
9.68653e-06
2.63366e-07
9.80437e-06
6.75194e-08
9.89745e-06
-1.26802e-07
9.96233e-06
-3.11405e-07
9.99681e-06
-4.78772e-07
1.00016e-05
-6.24544e-07
9.97636e-06
-7.45638e-07
9.91666e-06
-8.3609e-07
9.82013e-06
-8.89152e-07
9.68908e-06
-9.05844e-07
9.52911e-06
-8.91167e-07
9.34801e-06
-8.53239e-07
9.15487e-06
-8.01905e-07
8.95904e-06
-7.46994e-07
8.76779e-06
-6.95362e-07
8.58549e-06
-6.49675e-07
8.41476e-06
-6.09806e-07
8.25704e-06
-5.73717e-07
8.11292e-06
-5.38202e-07
7.98255e-06
-4.9966e-07
7.86599e-06
-4.54798e-07
7.76349e-06
-4.01061e-07
7.67551e-06
-3.36817e-07
7.60266e-06
-2.6142e-07
7.54549e-06
-1.75304e-07
7.50463e-06
-7.99714e-08
7.48067e-06
2.24714e-08
7.47398e-06
1.29599e-07
7.48457e-06
2.38665e-07
7.51209e-06
3.46686e-07
7.55594e-06
4.50609e-07
7.61534e-06
5.47517e-07
7.68933e-06
6.3463e-07
7.77676e-06
7.09409e-07
7.87627e-06
7.69582e-07
7.98639e-06
8.13243e-07
8.10553e-06
8.38855e-07
8.23199e-06
8.45215e-07
8.364e-06
8.31448e-07
8.49974e-06
7.97003e-07
8.6374e-06
7.41687e-07
8.77526e-06
6.65694e-07
8.91156e-06
5.69703e-07
9.04419e-06
4.5525e-07
9.1698e-06
3.25726e-07
9.28345e-06
1.86887e-07
9.38037e-06
4.52106e-08
9.4567e-06
-9.34124e-08
9.50944e-06
-2.23881e-07
9.53687e-06
-3.42371e-07
9.53863e-06
-4.46614e-07
9.51373e-06
-5.32091e-07
9.46074e-06
-5.93933e-07
9.38041e-06
-6.30674e-07
9.27557e-06
-6.44441e-07
9.15138e-06
-6.39335e-07
9.0141e-06
-6.20499e-07
8.87026e-06
-5.936e-07
8.72597e-06
-5.63834e-07
8.58565e-06
-5.34479e-07
8.45183e-06
-5.06657e-07
8.32602e-06
-4.80193e-07
8.209e-06
-4.53991e-07
8.10115e-06
-4.26414e-07
8.00267e-06
-3.95643e-07
7.9138e-06
-3.5996e-07
7.83491e-06
-3.17969e-07
7.76656e-06
-2.68719e-07
7.70941e-06
-2.11778e-07
7.6641e-06
-1.473e-07
7.6312e-06
-7.60874e-08
7.61125e-06
4.55892e-10
7.60463e-06
8.05974e-08
7.61144e-06
1.62345e-07
7.63152e-06
2.43483e-07
7.6645e-06
3.2174e-07
7.70985e-06
3.94938e-07
7.76684e-06
4.61038e-07
7.83453e-06
5.18137e-07
7.91188e-06
5.6453e-07
7.99774e-06
5.98735e-07
8.09087e-06
6.19479e-07
8.19003e-06
6.25727e-07
8.29391e-06
6.16713e-07
8.4012e-06
5.91952e-07
8.51052e-06
5.51279e-07
8.62045e-06
4.94926e-07
4.23721e-07
1.01068e-05
-1.01315e-06
9.87296e-06
-9.40556e-07
9.62197e-06
-8.46115e-07
9.36543e-06
-7.46277e-07
9.11239e-06
-6.55075e-07
8.86825e-06
-5.80898e-07
8.63661e-06
-5.27201e-07
8.42e-06
-4.92949e-07
8.22018e-06
-4.73132e-07
8.0383e-06
-4.60071e-07
7.87519e-06
-4.45269e-07
7.73152e-06
-4.21132e-07
7.60809e-06
-3.82094e-07
7.50583e-06
-3.25016e-07
7.42551e-06
-2.49139e-07
7.36735e-06
-1.55989e-07
7.33146e-06
-4.89879e-08
7.31782e-06
6.7923e-08
7.32615e-06
1.90842e-07
7.35593e-06
3.1575e-07
7.40649e-06
4.38559e-07
7.47699e-06
5.5557e-07
7.56628e-06
6.63524e-07
7.67298e-06
7.59446e-07
7.79542e-06
8.40639e-07
7.93176e-06
9.04651e-07
8.08003e-06
9.49225e-07
8.23821e-06
9.72371e-07
8.40427e-06
9.72473e-07
8.57603e-06
9.48391e-07
8.75122e-06
8.99508e-07
8.92747e-06
8.25678e-07
9.10251e-06
7.27121e-07
9.27408e-06
6.04529e-07
9.43937e-06
4.59843e-07
9.59354e-06
2.9798e-07
9.73015e-06
1.26761e-07
9.84323e-06
-4.55626e-08
9.92794e-06
-2.11514e-07
9.98104e-06
-3.64498e-07
1.00023e-05
-5.00084e-07
9.99261e-06
-6.14812e-07
9.94683e-06
-6.99855e-07
9.85954e-06
-7.48801e-07
9.73363e-06
-7.63242e-07
9.57521e-06
-7.47423e-07
9.39258e-06
-7.08534e-07
9.19573e-06
-6.56389e-07
8.99514e-06
-6.01311e-07
8.79903e-06
-5.50892e-07
8.6123e-06
-5.08628e-07
8.43776e-06
-4.75137e-07
8.27682e-06
-4.48863e-07
8.12983e-06
-4.26728e-07
7.99656e-06
-4.04931e-07
7.87661e-06
-3.79717e-07
7.76977e-06
-3.47954e-07
7.67614e-06
-3.07434e-07
7.59621e-06
-2.56882e-07
7.53063e-06
-1.95841e-07
7.48006e-06
-1.24739e-07
7.44512e-06
-4.50236e-08
7.4264e-06
4.11858e-08
7.42432e-06
1.31685e-07
7.43899e-06
2.23988e-07
7.47029e-06
3.15393e-07
7.51775e-06
4.03146e-07
7.58071e-06
4.84561e-07
7.65826e-06
5.5708e-07
7.7493e-06
6.18364e-07
7.85254e-06
6.66339e-07
7.96654e-06
6.99248e-07
8.08971e-06
7.15682e-07
8.22036e-06
7.14569e-07
8.35668e-06
6.95121e-07
8.4969e-06
6.56787e-07
8.63927e-06
5.99316e-07
8.78203e-06
5.2294e-07
8.92295e-06
4.28776e-07
9.05841e-06
3.19795e-07
9.18313e-06
2.01008e-07
9.29175e-06
7.82656e-08
9.37987e-06
-4.29093e-08
9.44411e-06
-1.57653e-07
9.48241e-06
-2.62181e-07
9.49374e-06
-3.53703e-07
9.47636e-06
-4.29237e-07
9.42869e-06
-4.8442e-07
9.35156e-06
-5.16797e-07
9.24858e-06
-5.27695e-07
9.12533e-06
-5.21194e-07
8.98843e-06
-5.02432e-07
8.8449e-06
-4.76971e-07
8.70121e-06
-4.49915e-07
8.56188e-06
-4.24502e-07
8.42935e-06
-4.01947e-07
8.30494e-06
-3.82244e-07
8.18919e-06
-3.64445e-07
8.08221e-06
-3.47013e-07
7.98393e-06
-3.28132e-07
7.89429e-06
-3.06003e-07
7.8134e-06
-2.79075e-07
7.74162e-06
-2.46186e-07
7.67952e-06
-2.06619e-07
7.62784e-06
-1.60099e-07
7.58735e-06
-1.06806e-07
7.55871e-06
-4.74517e-08
7.54249e-06
1.6673e-08
7.53913e-06
8.39592e-08
7.54882e-06
1.52654e-07
7.57158e-06
2.20727e-07
7.6072e-06
2.86115e-07
7.65528e-06
3.46859e-07
7.71518e-06
4.01141e-07
7.78601e-06
4.47308e-07
7.8667e-06
4.83844e-07
7.95608e-06
5.0935e-07
8.05297e-06
5.22585e-07
8.15616e-06
5.22546e-07
8.26435e-06
5.08522e-07
8.3762e-06
4.80102e-07
8.49021e-06
4.3727e-07
8.60451e-06
3.80627e-07
3.11943e-07
9.95416e-06
-7.78973e-07
9.70099e-06
-6.87393e-07
9.44232e-06
-5.87439e-07
9.18844e-06
-4.92396e-07
8.9448e-06
-4.11439e-07
8.71419e-06
-3.50284e-07
8.49803e-06
-3.11046e-07
8.2971e-06
-2.92015e-07
8.11196e-06
-2.87992e-07
7.94322e-06
-2.9133e-07
7.79151e-06
-2.93564e-07
7.65756e-06
-2.8718e-07
7.54229e-06
-2.66817e-07
7.44693e-06
-2.29656e-07
7.37287e-06
-1.75082e-07
7.32094e-06
-1.0406e-07
7.29128e-06
-1.93287e-08
7.28386e-06
7.53404e-08
7.2981e-06
1.76607e-07
7.33323e-06
2.80619e-07
7.38872e-06
3.83071e-07
7.46389e-06
4.80394e-07
7.55775e-06
5.6967e-07
7.66893e-06
6.48268e-07
7.79574e-06
7.13829e-07
7.93624e-06
7.64151e-07
8.08838e-06
7.97081e-07
8.25013e-06
8.1062e-07
8.41945e-06
8.03155e-07
8.59425e-06
7.73592e-07
8.77239e-06
7.21371e-07
8.95167e-06
6.46392e-07
9.12987e-06
5.4892e-07
9.3043e-06
4.30104e-07
9.47021e-06
2.93932e-07
9.62095e-06
1.4724e-07
9.75004e-06
-2.32907e-09
9.85169e-06
-1.47217e-07
9.92106e-06
-2.80878e-07
9.95634e-06
-3.99779e-07
9.95675e-06
-5.00499e-07
9.91737e-06
-5.75431e-07
9.83551e-06
-6.17999e-07
9.7135e-06
-6.2679e-07
9.5569e-06
-6.06641e-07
9.37467e-06
-5.65187e-07
9.17781e-06
-5.11676e-07
8.97766e-06
-4.56241e-07
8.78284e-06
-4.0649e-07
8.59823e-06
-3.66281e-07
8.42648e-06
-3.3688e-07
8.2687e-06
-3.17354e-07
8.1249e-06
-3.05065e-07
7.99449e-06
-2.9632e-07
7.87667e-06
-2.8711e-07
7.77076e-06
-2.7381e-07
7.67647e-06
-2.53665e-07
7.594e-06
-2.24956e-07
7.52396e-06
-1.86843e-07
7.4672e-06
-1.39083e-07
7.42453e-06
-8.20655e-08
7.39664e-06
-1.71352e-08
7.38418e-06
5.36423e-08
7.38758e-06
1.28283e-07
7.40708e-06
2.04491e-07
7.44267e-06
2.79802e-07
7.49403e-06
3.51782e-07
7.56057e-06
4.18027e-07
7.64143e-06
4.76218e-07
7.73558e-06
5.24212e-07
7.84182e-06
5.60097e-07
7.95881e-06
5.82263e-07
8.08503e-06
5.8946e-07
8.21882e-06
5.80782e-07
8.35841e-06
5.55526e-07
8.50209e-06
5.13106e-07
8.64806e-06
4.53353e-07
8.79387e-06
3.7713e-07
8.93533e-06
2.87318e-07
9.06674e-06
1.88377e-07
9.1824e-06
8.53492e-08
9.27738e-06
-1.67115e-08
9.34781e-06
-1.13339e-07
9.39146e-06
-2.01308e-07
9.40739e-06
-2.78111e-07
9.39431e-06
-3.40616e-07
9.35011e-06
-3.85037e-07
9.27529e-06
-4.09607e-07
9.17403e-06
-4.15536e-07
9.05272e-06
-4.06381e-07
8.91853e-06
-3.87008e-07
8.77891e-06
-3.62807e-07
8.64031e-06
-3.38373e-07
8.50689e-06
-3.16491e-07
8.38074e-06
-2.98356e-07
8.26285e-06
-2.84054e-07
8.15341e-06
-2.7281e-07
8.05222e-06
-2.6325e-07
7.95887e-06
-2.53667e-07
7.87303e-06
-2.42285e-07
7.79452e-06
-2.27498e-07
7.72348e-06
-2.08037e-07
7.66034e-06
-1.83041e-07
7.60578e-06
-1.52061e-07
7.56069e-06
-1.15002e-07
7.52596e-06
-7.20775e-08
7.50241e-06
-2.39024e-08
7.49069e-06
2.83871e-08
7.49125e-06
8.3403e-08
7.50428e-06
1.39626e-07
7.52995e-06
1.95057e-07
7.56828e-06
2.47781e-07
7.61905e-06
2.96091e-07
7.68173e-06
3.38465e-07
7.75547e-06
3.73568e-07
7.83919e-06
4.00125e-07
7.93171e-06
4.16822e-07
8.03189e-06
4.22408e-07
8.13852e-06
4.15913e-07
8.25029e-06
3.96753e-07
8.36559e-06
3.64806e-07
8.4822e-06
3.20655e-07
8.59674e-06
2.66093e-07
2.03841e-07
9.67092e-06
-5.24974e-07
9.41485e-06
-4.31322e-07
9.16774e-06
-3.40336e-07
8.9348e-06
-2.59454e-07
8.71782e-06
-1.94454e-07
8.51653e-06
-1.49002e-07
8.32958e-06
-1.24095e-07
8.15553e-06
-1.17965e-07
7.99375e-06
-1.2621e-07
7.84452e-06
-1.421e-07
7.70867e-06
-1.57713e-07
7.58732e-06
-1.65832e-07
7.48188e-06
-1.61372e-07
7.39409e-06
-1.41866e-07
7.32609e-06
-1.07086e-07
7.2798e-06
-5.77721e-08
7.25597e-06
4.50276e-09
7.25481e-06
7.65013e-08
7.27527e-06
1.56141e-07
7.31609e-06
2.39807e-07
7.37685e-06
3.22303e-07
7.45696e-06
4.00293e-07