/*--------------------------------*- C++ -*----------------------------------*\
| =========                 |                                                 |
| \\      /  F ield         | OpenFOAM: The Open Source CFD Toolbox           |
|  \\    /   O peration     | Version:  2206                                  |
|   \\  /    A nd           | Website:  www.openfoam.com                      |
|    \\/     M anipulation  |                                                 |
\*---------------------------------------------------------------------------*/
FoamFile
{
    version     2.0;
    format      ascii;
    arch        "LSB;label=32;scalar=64";
    class       surfaceScalarField;
    location    "19.5999";
    object      phi;
}
// * * * * * * * * * * * * * * * * * * * * * * * * * * * * * * * * * * * * * //

dimensions      [0 3 -1 0 0 0 0];

oriented        oriented;

internalField   nonuniform List<scalar> 
5953
(
7.92702e-06
-1.04801e-06
1.15057e-06
7.85187e-06
-7.35837e-07
8.10985e-07
7.80542e-06
-3.96864e-07
4.43323e-07
7.78796e-06
-4.13606e-08
5.88139e-08
7.79815e-06
3.17966e-07
-3.28151e-07
7.83379e-06
6.69732e-07
-7.05378e-07
7.89187e-06
1.0048e-06
-1.06288e-06
7.96865e-06
1.31498e-06
-1.39177e-06
8.06001e-06
1.59356e-06
-1.68492e-06
8.16179e-06
1.83564e-06
-1.93742e-06
8.27017e-06
2.03822e-06
-2.1466e-06
8.38194e-06
2.19995e-06
-2.31172e-06
8.49489e-06
2.32051e-06
-2.43346e-06
8.60824e-06
2.3996e-06
-2.51295e-06
8.72246e-06
2.43503e-06
-2.54925e-06
8.83726e-06
2.42243e-06
-2.53723e-06
8.95165e-06
2.35938e-06
-2.47376e-06
9.06498e-06
2.24457e-06
-2.35791e-06
9.17684e-06
2.07762e-06
-2.18947e-06
9.28663e-06
1.85915e-06
-1.96894e-06
9.39339e-06
1.59101e-06
-1.69778e-06
9.49578e-06
1.27663e-06
-1.37902e-06
9.592e-06
9.21703e-07
-1.01792e-06
9.67949e-06
5.35396e-07
-6.22888e-07
9.75408e-06
1.32874e-07
-2.07464e-07
9.81186e-06
-2.65617e-07
2.07841e-07
9.85044e-06
-6.45157e-07
6.06576e-07
9.86804e-06
-9.93026e-07
9.75427e-07
9.86367e-06
-1.29901e-06
1.30337e-06
9.83727e-06
-1.55586e-06
1.58226e-06
9.78944e-06
-1.7595e-06
1.80734e-06
9.72087e-06
-1.90866e-06
1.97722e-06
9.63128e-06
-2.00306e-06
2.09265e-06
9.51988e-06
-2.04304e-06
2.15444e-06
9.3898e-06
-2.03475e-06
2.16484e-06
9.24608e-06
-1.98874e-06
2.13246e-06
9.09411e-06
-1.91466e-06
2.06664e-06
8.93948e-06
-1.8199e-06
1.97453e-06
8.78745e-06
-1.70842e-06
1.86045e-06
8.64235e-06
-1.58071e-06
1.72581e-06
8.50746e-06
-1.43495e-06
1.56985e-06
8.38525e-06
-1.26872e-06
1.39093e-06
8.27779e-06
-1.08023e-06
1.18769e-06
8.18691e-06
-8.68962e-07
9.59841e-07
8.11431e-06
-6.36017e-07
7.0861e-07
8.06148e-06
-3.84228e-07
4.37065e-07
8.02945e-06
-1.18313e-07
1.50339e-07
8.01854e-06
1.54559e-07
-1.43645e-07
8.02799e-06
4.25406e-07
-4.34856e-07
8.05637e-06
6.87046e-07
-7.15431e-07
8.10164e-06
9.32584e-07
-9.77857e-07
8.16122e-06
1.15583e-06
-1.21541e-06
8.23219e-06
1.35176e-06
-1.42273e-06
8.31159e-06
1.51673e-06
-1.59613e-06
8.39677e-06
1.64855e-06
-1.73373e-06
8.48577e-06
1.74605e-06
-1.83505e-06
8.57771e-06
1.80835e-06
-1.90029e-06
8.67247e-06
1.83332e-06
-1.92807e-06
8.76897e-06
1.81818e-06
-1.91467e-06
8.86565e-06
1.76235e-06
-1.85903e-06
8.96124e-06
1.66623e-06
-1.76183e-06
9.05481e-06
1.53115e-06
-1.62472e-06
9.1456e-06
1.35914e-06
-1.44993e-06
9.2329e-06
1.15271e-06
-1.24e-06
9.31592e-06
9.15005e-07
-9.98031e-07
9.39365e-06
6.50234e-07
-7.27964e-07
9.46442e-06
3.64735e-07
-4.35504e-07
9.52502e-06
6.92416e-08
-1.29843e-07
9.57252e-06
-2.22654e-07
1.75157e-07
9.60491e-06
-5.0079e-07
4.68396e-07
9.62067e-06
-7.56248e-07
7.40495e-07
9.61889e-06
-9.81718e-07
9.83495e-07
9.59941e-06
-1.17198e-06
1.19146e-06
9.56272e-06
-1.32415e-06
1.36085e-06
9.5096e-06
-1.43729e-06
1.4904e-06
9.44018e-06
-1.51093e-06
1.58035e-06
9.35427e-06
-1.54494e-06
1.63085e-06
9.25425e-06
-1.54265e-06
1.64267e-06
9.14418e-06
-1.51026e-06
1.62033e-06
9.02835e-06
-1.4536e-06
1.56943e-06
8.91119e-06
-1.37743e-06
1.49459e-06
8.79675e-06
-1.28478e-06
1.39921e-06
8.68836e-06
-1.1769e-06
1.2853e-06
8.58852e-06
-1.05378e-06
1.15362e-06
8.49915e-06
-9.14947e-07
1.00432e-06
8.42175e-06
-7.60176e-07
8.37575e-07
8.35759e-06
-5.89905e-07
6.54059e-07
8.30778e-06
-4.0552e-07
4.55339e-07
8.27317e-06
-2.09546e-07
2.44154e-07
8.25435e-06
-5.96803e-09
2.47896e-08
8.25119e-06
1.99122e-07
-1.95961e-07
8.26293e-06
4.00077e-07
-4.11819e-07
8.28838e-06
5.91776e-07
-6.17225e-07
8.32592e-06
7.69374e-07
-8.06915e-07
8.37359e-06
9.28621e-07
-9.76298e-07
8.42925e-06
1.06612e-06
-1.12178e-06
8.49078e-06
1.17949e-06
-1.24102e-06
8.55643e-06
1.26727e-06
-1.33292e-06
8.62511e-06
1.3286e-06
-1.39728e-06
8.69661e-06
1.36228e-06
-1.43378e-06
8.77061e-06
1.36606e-06
-1.44006e-06
8.84582e-06
1.33868e-06
-1.41389e-06
8.92098e-06
1.28011e-06
-1.35526e-06
8.99499e-06
1.19111e-06
-1.26513e-06
9.06702e-06
1.07324e-06
-1.14527e-06
9.13638e-06
9.28574e-07
-9.97938e-07
9.20249e-06
7.59632e-07
-8.25742e-07
9.26467e-06
5.69605e-07
-6.31783e-07
9.32188e-06
3.62877e-07
-4.20085e-07
9.37211e-06
1.46277e-07
-1.96515e-07
9.41284e-06
-7.02763e-08
2.9554e-08
9.44229e-06
-2.78775e-07
2.49319e-07
9.4589e-06
-4.72704e-07
4.56101e-07
9.46187e-06
-6.4725e-07
6.44271e-07
9.4514e-06
-7.98898e-07
8.09377e-07
9.42793e-06
-9.24816e-07
9.48276e-07
9.39217e-06
-1.02363e-06
1.0594e-06
9.34448e-06
-1.09477e-06
1.14246e-06
9.28472e-06
-1.13768e-06
1.19744e-06
9.21363e-06
-1.15304e-06
1.22412e-06
9.13403e-06
-1.14396e-06
1.22356e-06
-1.11395e-06
1.19892e-06
7.86495e-06
-9.37842e-07
7.78351e-06
-6.5439e-07
7.73185e-06
-3.45205e-07
7.71024e-06
-1.97561e-08
7.71742e-06
3.10788e-07
7.75137e-06
6.35777e-07
7.80932e-06
9.46853e-07
7.88785e-06
1.23646e-06
7.98314e-06
1.49828e-06
8.09127e-06
1.72751e-06
8.20862e-06
1.92088e-06
8.33215e-06
2.07642e-06
8.45983e-06
2.19283e-06
8.59084e-06
2.2686e-06
8.72503e-06
2.30084e-06
8.86145e-06
2.286e-06
8.9988e-06
2.22203e-06
9.13589e-06
2.10748e-06
9.27149e-06
1.94201e-06
9.40419e-06
1.72645e-06
9.53228e-06
1.46293e-06
9.6537e-06
1.15521e-06
9.76593e-06
8.09472e-07
9.86554e-06
4.35789e-07
9.94712e-06
5.12906e-08
1.0007e-05
-3.25541e-07
1.00429e-05
-6.81054e-07
1.00533e-05
-1.00343e-06
1.00378e-05
-1.28342e-06
9.99662e-06
-1.51474e-06
9.93093e-06
-1.69381e-06
9.84095e-06
-1.81867e-06
9.72596e-06
-1.88808e-06
9.58772e-06
-1.9048e-06
9.43152e-06
-1.87855e-06
9.26319e-06
-1.82041e-06
9.08891e-06
-1.74038e-06
8.9147e-06
-1.64569e-06
8.74589e-06
-1.53962e-06
8.58663e-06
-1.42145e-06
8.43984e-06
-1.28816e-06
8.30766e-06
-1.13654e-06
8.19188e-06
-9.64448e-07
8.09415e-06
-7.71227e-07
8.016e-06
-5.57876e-07
7.95882e-06
-3.27042e-07
7.92359e-06
-8.30854e-08
7.91062e-06
1.67525e-07
7.91922e-06
4.16813e-07
7.94802e-06
6.58246e-07
7.99508e-06
8.85522e-07
8.05797e-06
1.09295e-06
8.13394e-06
1.27579e-06
8.22022e-06
1.43046e-06
8.31431e-06
1.55445e-06
8.41437e-06
1.646e-06
8.5194e-06
1.70332e-06
8.62871e-06
1.724e-06
8.74074e-06
1.70615e-06
8.85374e-06
1.64936e-06
8.96614e-06
1.55383e-06
9.07656e-06
1.42073e-06
9.18376e-06
1.25194e-06
9.28657e-06
1.04989e-06
9.38379e-06
8.17792e-07
9.47384e-06
5.60181e-07
9.55419e-06
2.84385e-07
9.62068e-06
2.74632e-09
9.67042e-06
-2.72396e-07
9.70125e-06
-5.31618e-07
9.71183e-06
-7.66821e-07
9.70166e-06
-9.71548e-07
9.67105e-06
-1.14137e-06
9.62083e-06
-1.27393e-06
9.55141e-06
-1.36786e-06
9.46261e-06
-1.42213e-06
9.35617e-06
-1.43849e-06
9.23631e-06
-1.42279e-06
9.10772e-06
-1.38168e-06
8.97532e-06
-1.32119e-06
8.84374e-06
-1.24585e-06
8.71706e-06
-1.15809e-06
8.5984e-06
-1.05824e-06
8.48997e-06
-9.45354e-07
8.39342e-06
-8.18402e-07
8.31009e-06
-6.7684e-07
8.24112e-06
-5.2094e-07
8.18755e-06
-3.51946e-07
8.1502e-06
-1.72197e-07
8.12961e-06
1.46208e-08
8.12566e-06
2.03078e-07
8.13761e-06
3.88128e-07
8.1643e-06
5.65079e-07
8.2042e-06
7.29478e-07
8.25543e-06
8.77387e-07
8.31598e-06
1.00558e-06
8.38385e-06
1.11162e-06
8.45739e-06
1.19372e-06
8.53558e-06
1.25042e-06
8.61788e-06
1.27998e-06
8.7034e-06
1.28054e-06
8.79067e-06
1.25141e-06
8.87829e-06
1.19249e-06
8.96496e-06
1.10444e-06
9.04957e-06
9.88635e-07
9.13113e-06
8.47015e-07
9.20868e-06
6.82073e-07
9.2811e-06
4.97187e-07
9.34664e-06
2.9734e-07
9.40223e-06
9.06852e-08
9.4455e-06
-1.13542e-07
9.47484e-06
-3.08117e-07
9.48864e-06
-4.86507e-07
9.48615e-06
-6.44752e-07
9.46837e-06
-7.81123e-07
9.43587e-06
-8.92312e-07
9.38874e-06
-9.76504e-07
9.32697e-06
-1.033e-06
9.25139e-06
-1.06209e-06
9.16477e-06
-1.06642e-06
9.07059e-06
-1.04978e-06
-1.01584e-06
7.80953e-06
-8.22661e-07
7.72424e-06
-5.69092e-07
7.66957e-06
-2.90535e-07
7.64559e-06
4.2229e-09
7.6511e-06
3.0527e-07
7.68423e-06
6.02654e-07
7.74245e-06
8.8863e-07
7.82269e-06
1.15622e-06
7.92148e-06
1.39949e-06
8.03526e-06
1.61373e-06
8.16068e-06
1.79546e-06
8.29498e-06
1.94212e-06
8.43627e-06
2.05154e-06
8.58357e-06
2.12129e-06
8.73612e-06
2.14829e-06
8.8924e-06
2.12973e-06
9.05071e-06
2.06371e-06
9.20932e-06
1.94888e-06
9.36627e-06
1.78505e-06
9.51943e-06
1.57329e-06
9.66638e-06
1.31597e-06
9.80446e-06
1.01714e-06
9.93047e-06
6.83462e-07
1.00397e-05
3.26588e-07
1.0126e-05
-3.50535e-08
1.01861e-05
-3.85618e-07
1.02176e-05
-7.12519e-07
1.02193e-05
-1.0052e-06
1.01914e-05
-1.25549e-06
1.01346e-05
-1.45792e-06
1.00497e-05
-1.6089e-06
9.93626e-06
-1.70525e-06
9.79478e-06
-1.7466e-06
9.63014e-06
-1.74016e-06
9.44869e-06
-1.6971e-06
9.2574e-06
-1.62912e-06
9.06336e-06
-1.54635e-06
8.87304e-06
-1.45537e-06
8.69124e-06
-1.35781e-06
8.52128e-06
-1.25149e-06
8.36578e-06
-1.13266e-06
8.22671e-06
-9.97477e-07
8.10556e-06
-8.43294e-07
8.0037e-06
-6.69364e-07
7.92246e-06
-4.76638e-07
7.86305e-06
-2.67632e-07
7.82637e-06
-4.64027e-08
7.81267e-06
1.81224e-07
7.82129e-06
4.08186e-07
7.851e-06
6.28542e-07
7.89998e-06
8.36539e-07
7.966e-06
1.02693e-06
8.04653e-06
1.19526e-06
8.13904e-06
1.33794e-06
8.24126e-06
1.45223e-06
8.35149e-06
1.53577e-06
8.46857e-06
1.58624e-06
8.59115e-06
1.60142e-06
8.71722e-06
1.58008e-06
8.84491e-06
1.52167e-06
8.97235e-06
1.42639e-06
9.09779e-06
1.29529e-06
9.2196e-06
1.13013e-06
9.3362e-06
9.33288e-07
9.44592e-06
7.08067e-07
9.54654e-06
4.59564e-07
9.63425e-06
1.96679e-07
9.70452e-06
-6.75268e-08
9.75432e-06
-3.22195e-07
9.78137e-06
-5.58665e-07
9.78474e-06
-7.70194e-07
9.76458e-06
-9.51386e-07
9.72156e-06
-1.09836e-06
9.65628e-06
-1.20865e-06
9.5685e-06
-1.28008e-06
9.45923e-06
-1.31286e-06
9.33268e-06
-1.31194e-06
9.19406e-06
-1.28417e-06
9.04889e-06
-1.23651e-06
8.90253e-06
-1.17483e-06
8.75975e-06
-1.10308e-06
8.62422e-06
-1.02256e-06
8.49847e-06
-9.3249e-07
8.38438e-06
-8.31269e-07
8.28335e-06
-7.17374e-07
8.19651e-06
-5.89993e-07
8.12488e-06
-4.49312e-07
8.0694e-06
-2.96466e-07
8.03084e-06
-1.33639e-07
8.0097e-06
3.57637e-08
8.00583e-06
2.06948e-07
8.01855e-06
3.75405e-07
8.04678e-06
5.36853e-07
8.08905e-06
6.87204e-07
8.14364e-06
8.22794e-07
8.2087e-06
9.40525e-07
8.28243e-06
1.03789e-06
8.36334e-06
1.11281e-06
8.45038e-06
1.16338e-06
8.54263e-06
1.18773e-06
8.63866e-06
1.1845e-06
8.73691e-06
1.15316e-06
8.83584e-06
1.09356e-06
8.93397e-06
1.0063e-06
9.02996e-06
8.92651e-07
9.12253e-06
7.54444e-07
9.21032e-06
5.9428e-07
9.29152e-06
4.15986e-07
9.36318e-06
2.25683e-07
9.42159e-06
3.22708e-08
9.46465e-06
-1.56596e-07
9.49095e-06
-3.34417e-07
9.50021e-06
-4.95768e-07
9.49259e-06
-6.37132e-07
9.46729e-06
-7.55824e-07
9.42385e-06
-8.48876e-07
9.36301e-06
-9.1566e-07
9.28563e-06
-9.55626e-07
9.19443e-06
-9.70897e-07
9.09329e-06
-9.6527e-07
8.98623e-06
-9.42722e-07
-9.06784e-07
7.75746e-06
-7.05005e-07
7.67073e-06
-4.82371e-07
7.61524e-06
-2.35038e-07
7.59078e-06
2.86823e-08
7.5962e-06
2.99852e-07
7.62961e-06
5.69243e-07
7.6888e-06
8.29435e-07
7.77104e-06
1.07398e-06
7.87324e-06
1.29728e-06
7.99222e-06
1.49475e-06
8.12502e-06
1.66266e-06
8.2692e-06
1.79794e-06
8.423e-06
1.89774e-06
8.58519e-06
1.9591e-06
8.75429e-06
1.97918e-06
8.9283e-06
1.95572e-06
9.10518e-06
1.88683e-06
9.28265e-06
1.77142e-06
9.45811e-06
1.60959e-06
9.6288e-06
1.4026e-06
9.79176e-06
1.15301e-06
9.94382e-06
8.6508e-07
1.0081e-05
5.46303e-07
1.01968e-05
2.10782e-07
1.02855e-05
-1.23791e-07
1.03435e-05
-4.43638e-07
1.03686e-05
-7.37575e-07
1.03601e-05
-9.96706e-07
1.03186e-05
-1.21398e-06
1.02449e-05
-1.3842e-06
1.01387e-05
-1.50272e-06
9.99977e-06
-1.56634e-06
9.83184e-06
-1.57867e-06
9.6414e-06
-1.54972e-06
9.43619e-06
-1.49189e-06
9.22459e-06
-1.41752e-06
9.01464e-06
-1.33639e-06
8.81229e-06
-1.25301e-06
8.62131e-06
-1.16683e-06
8.44451e-06
-1.07469e-06
8.28403e-06
-9.72181e-07
8.1415e-06
-8.54951e-07
8.01814e-06
-7.19936e-07
7.91502e-06
-5.66246e-07
7.83321e-06
-3.94829e-07
7.77373e-06
-2.08145e-07
7.73736e-06
-1.00398e-08
7.72432e-06
1.94271e-07
7.73397e-06
3.98536e-07
7.7652e-06
5.97307e-07
7.81641e-06
7.85335e-07
7.88556e-06
9.57775e-07
7.97043e-06
1.11039e-06
8.06875e-06
1.23962e-06
8.17855e-06
1.34243e-06
8.29819e-06
1.41613e-06
8.42614e-06
1.45829e-06
8.56045e-06
1.46711e-06
8.69897e-06
1.44155e-06
8.8396e-06
1.38104e-06
8.9802e-06
1.28579e-06
9.11869e-06
1.1568e-06
9.25314e-06
9.95688e-07
9.38161e-06
8.04809e-07
9.5019e-06
5.87786e-07
9.61063e-06
3.50825e-07
9.70271e-06
1.04599e-07
9.77398e-06
-1.38795e-07
9.82119e-06
-3.69398e-07
9.84189e-06
-5.79368e-07
9.83582e-06
-7.64122e-07
9.80411e-06
-9.19678e-07
9.74712e-06
-1.04137e-06
9.66429e-06
-1.12582e-06
9.55602e-06
-1.17182e-06
9.42622e-06
-1.18306e-06
9.28048e-06
-1.1662e-06
9.12508e-06
-1.12877e-06
8.96632e-06
-1.07775e-06
8.80996e-06
-1.01847e-06
8.66018e-06
-9.53294e-07
8.5196e-06
-8.8198e-07
8.39016e-06
-8.03051e-07
8.27341e-06
-7.14518e-07
8.17058e-06
-6.14542e-07
8.08265e-06
-5.02067e-07
8.0105e-06
-3.77155e-07
7.95493e-06
-2.40904e-07
7.91669e-06
-9.53914e-08
7.89619e-06
5.62553e-08
7.89331e-06
2.09833e-07
7.90742e-06
3.61296e-07
7.93753e-06
5.06736e-07
7.98234e-06
6.42402e-07
8.04026e-06
7.64869e-07
8.10965e-06
8.71132e-07
8.18895e-06
9.58596e-07
8.2768e-06
1.02496e-06
8.37203e-06
1.06815e-06
8.47324e-06
1.08653e-06
8.57869e-06
1.07904e-06
8.68678e-06
1.04508e-06
8.79581e-06
9.84527e-07
8.90414e-06
8.97966e-07
9.01023e-06
7.86563e-07
9.11251e-06
6.52167e-07
9.2091e-06
4.97685e-07
9.29723e-06
3.2786e-07
9.37273e-06
1.50181e-07
9.43225e-06
-2.72445e-08
9.47364e-06
-1.97989e-07
9.49571e-06
-3.56487e-07
9.49897e-06
-4.99032e-07
9.48263e-06
-6.20788e-07
9.44548e-06
-7.18671e-07
9.38827e-06
-7.91674e-07
9.31173e-06
-8.39111e-07
9.21852e-06
-8.62421e-07
9.11279e-06
-8.65165e-07
8.99904e-06
-8.51518e-07
8.88171e-06
-8.2539e-07
-7.90021e-07
7.70598e-06
-5.87202e-07
7.62011e-06
-3.96502e-07
7.56594e-06
-1.80869e-07
7.54295e-06
5.16698e-08
7.54996e-06
2.92838e-07
7.585e-06
5.34208e-07
7.64608e-06
7.68358e-07
7.73082e-06
9.89238e-07
7.83656e-06
1.19155e-06
7.96055e-06
1.37075e-06
8.10027e-06
1.52294e-06
8.25359e-06
1.64462e-06
8.41881e-06
1.73253e-06
8.5942e-06
1.78371e-06
8.7777e-06
1.79569e-06
8.96705e-06
1.76637e-06
9.1598e-06
1.69408e-06
9.35313e-06
1.57809e-06
9.54394e-06
1.41878e-06
9.72897e-06
1.21757e-06
9.90489e-06
9.77095e-07
1.0068e-05
7.0199e-07
1.02128e-05
4.0151e-07
1.03319e-05
9.16037e-08
1.04203e-05
-2.1214e-07
1.04737e-05
-4.97039e-07
1.049e-05
-7.53844e-07
1.04693e-05
-9.75998e-07
1.04126e-05
-1.15733e-06
1.03199e-05
-1.29147e-06
1.01898e-05
-1.37266e-06
1.00245e-05
-1.40101e-06
9.83018e-06
-1.38435e-06
9.61517e-06
-1.33471e-06
9.389e-06
-1.26573e-06
9.1615e-06
-1.19001e-06
8.94031e-06
-1.11521e-06
8.73023e-06
-1.04293e-06
8.53445e-06
-9.71051e-07
8.35512e-06
-8.9536e-07
8.19378e-06
-8.1084e-07
8.05159e-06
-7.12758e-07
7.92942e-06
-5.97764e-07
7.82797e-06
-4.64801e-07
7.74811e-06
-3.14964e-07
7.69069e-06
-1.50729e-07
7.65641e-06
2.42429e-08
7.64541e-06
2.05269e-07
7.65713e-06
3.8682e-07
7.69061e-06
5.63826e-07
7.74446e-06
7.31481e-07
7.81695e-06
8.8529e-07
7.90613e-06
1.02121e-06
8.01008e-06
1.13566e-06
8.12704e-06
1.22548e-06
8.25526e-06
1.28791e-06
8.39274e-06
1.32081e-06
8.53722e-06
1.32264e-06
8.68645e-06
1.29232e-06
8.83812e-06
1.22937e-06
8.98986e-06
1.13405e-06
9.1394e-06
1.00726e-06
9.28453e-06
8.50558e-07
9.42287e-06
6.66469e-07
9.55123e-06
4.59427e-07
9.66434e-06
2.37715e-07
9.75667e-06
1.2273e-08
9.82465e-06
-2.0678e-07
9.86567e-06
-4.10419e-07
9.87778e-06
-5.91477e-07
9.8611e-06
-7.4744e-07
9.81649e-06
-8.75064e-07
9.74243e-06
-9.67303e-07
9.63877e-06
-1.02216e-06
9.50904e-06
-1.04208e-06
9.35919e-06
-1.03321e-06
9.19625e-06
-1.00327e-06
9.02757e-06
-9.60081e-07
8.85992e-06
-9.10111e-07
8.69824e-06
-8.56791e-07
8.54547e-06
-8.00522e-07
8.40363e-06
-7.40134e-07
8.27415e-06
-6.7357e-07
8.15813e-06
-5.98502e-07
8.0565e-06
-5.12914e-07
7.97007e-06
-4.15636e-07
7.89959e-06
-3.06668e-07
7.8458e-06
-1.87117e-07
7.80938e-06
-5.89777e-08
7.79076e-06
7.4883e-08
7.78979e-06
2.10804e-07
7.80596e-06
3.45124e-07
7.83842e-06
4.74271e-07
7.88603e-06
5.94791e-07
7.94744e-06
7.03466e-07
8.02121e-06
7.97364e-07
8.10597e-06
8.73836e-07
8.20039e-06
9.30535e-07
8.30297e-06
9.65563e-07
8.412e-06
9.77499e-07
8.52574e-06
9.65306e-07
8.64244e-06
9.28378e-07
8.7603e-06
8.66664e-07
8.87757e-06
7.80696e-07
8.9925e-06
6.71636e-07
9.10312e-06
5.41549e-07
9.20675e-06
3.94053e-07
9.29919e-06
2.35419e-07
9.37605e-06
7.33251e-08
9.43425e-06
-8.54442e-08
9.47146e-06
-2.35205e-07
9.48689e-06
-3.71912e-07
9.4797e-06
-4.91844e-07
9.45006e-06
-5.91153e-07
9.39835e-06
-6.66962e-07
9.32485e-06
-7.18166e-07
9.23198e-06
-7.46248e-07
9.12408e-06
-7.54519e-07
9.00607e-06
-7.47154e-07
8.8829e-06
-7.28348e-07
8.75925e-06
-7.01741e-07
-6.69651e-07
7.65346e-06
-4.71052e-07
7.57026e-06
-3.13299e-07
7.51929e-06
-1.29901e-07
7.49959e-06
7.13719e-08
7.50984e-06
2.8259e-07
7.54803e-06
4.96018e-07
7.6121e-06
7.04285e-07
7.70007e-06
9.01268e-07
7.80971e-06
1.08191e-06
7.93877e-06
1.24169e-06
8.08515e-06
1.37656e-06
8.24694e-06
1.48283e-06
8.4222e-06
1.55726e-06
8.60876e-06
1.59715e-06
8.80429e-06
1.60017e-06
9.00627e-06
1.56438e-06
9.21182e-06
1.48853e-06
9.41769e-06
1.37222e-06
9.62044e-06
1.21603e-06
9.81658e-06
1.02143e-06
1.00025e-05
7.91197e-07
1.01733e-05
5.31212e-07
1.03213e-05
2.53442e-07
1.04398e-05
-2.69183e-08
1.05241e-05
-2.96344e-07
1.05698e-05
-5.42837e-07
1.05745e-05
-7.58513e-07
1.05396e-05
-9.41119e-07
1.04661e-05
-1.08374e-06
1.03509e-05
-1.17629e-06
1.01942e-05
-1.21595e-06
1.00015e-05
-1.20831e-06
9.78134e-06
-1.16423e-06
9.5444e-06
-1.09777e-06
9.30222e-06
-1.02355e-06
9.06456e-06
-9.52351e-07
8.83765e-06
-8.88302e-07
8.62538e-06
-8.30664e-07
8.43012e-06
-7.75786e-07
8.25321e-06
-7.18447e-07
8.09545e-06
-6.53078e-07
7.95745e-06
-5.74762e-07
7.83978e-06
-4.80094e-07
7.7429e-06
-3.67917e-07
7.66741e-06
-2.39483e-07
7.6141e-06
-9.74177e-08
7.58358e-06
5.47688e-08
7.57599e-06
2.12853e-07
7.59084e-06
3.71969e-07
7.62736e-06
5.27305e-07
7.68442e-06
6.74422e-07
7.76059e-06
8.09119e-07
7.85428e-06
9.27522e-07
7.96383e-06
1.02611e-06
8.08751e-06
1.10181e-06
8.22321e-06
1.15221e-06
8.3687e-06
1.17531e-06
8.5217e-06
1.16964e-06
8.67982e-06
1.1342e-06
8.84056e-06
1.06863e-06
9.00147e-06
9.7315e-07
9.1601e-06
8.48632e-07
9.31397e-06
6.96687e-07
9.45998e-06
5.20453e-07
9.59301e-06
3.26402e-07
9.70639e-06
1.24332e-07
9.7949e-06
-7.62353e-08
9.85505e-06
-2.66937e-07
9.88518e-06
-4.40549e-07
9.88647e-06
-5.92765e-07
9.85808e-06
-7.19052e-07
9.79578e-06
-8.12757e-07
9.69933e-06
-8.70854e-07
9.57228e-06
-8.95116e-07
9.42096e-06
-8.90765e-07
9.25316e-06
-8.65411e-07
9.07723e-06
-8.27341e-07
8.90105e-06
-7.83896e-07
8.73035e-06
-7.3941e-07
8.56849e-06
-6.94932e-07
8.41758e-06
-6.4962e-07
8.27892e-06
-6.01471e-07
8.1533e-06
-5.47948e-07
8.04135e-06
-4.86557e-07
7.94375e-06
-4.15315e-07
7.86122e-06
-3.33102e-07
7.79445e-06
-2.39896e-07
7.74414e-06
-1.36806e-07
7.71095e-06
-2.57949e-08
7.69533e-06
9.05127e-08
7.69718e-06
2.08952e-07
7.71612e-06
3.26176e-07
7.75149e-06
4.38904e-07
7.80234e-06
5.43947e-07
7.86753e-06
6.38273e-07
7.94585e-06
7.19042e-07
8.03598e-06
7.83702e-07
8.13636e-06
8.30155e-07
8.24531e-06
8.56622e-07
8.36108e-06
8.61721e-07
8.48193e-06
8.44462e-07
8.606e-06
8.04303e-07
8.73146e-06
7.41209e-07
8.85642e-06
6.55731e-07
8.97881e-06
5.49244e-07
9.09584e-06
4.2452e-07
9.20307e-06
2.86822e-07
9.29545e-06
1.4304e-07
9.36912e-06
-3.38444e-10
9.42128e-06
-1.37613e-07
9.45025e-06
-2.64166e-07
9.45488e-06
-3.76546e-07
9.43471e-06
-4.71676e-07
9.38974e-06
-5.46181e-07
9.32055e-06
-5.97769e-07
9.22976e-06
-6.27379e-07
9.1218e-06
-6.38288e-07
9.00194e-06
-6.34662e-07
8.87559e-06
-6.20801e-07
8.74786e-06
-6.00614e-07
8.62283e-06
-5.76709e-07
-5.49939e-07
7.6e-06
-3.57564e-07
7.52051e-06
-2.33809e-07
7.474e-06
-8.33884e-08
7.45902e-06
8.63497e-08
7.47388e-06
2.67734e-07
7.51656e-06
4.53338e-07
7.58495e-06
6.35898e-07
7.67717e-06
8.09046e-07
7.79139e-06
9.6769e-07
7.9258e-06
1.10727e-06
8.07861e-06
1.22375e-06
8.24783e-06
1.31361e-06
8.43133e-06
1.37377e-06
8.62684e-06
1.40164e-06
8.83186e-06
1.39515e-06
9.04353e-06
1.35271e-06
9.25863e-06
1.27343e-06
9.4737e-06
1.15715e-06
9.68524e-06
1.00449e-06
9.88967e-06
8.17003e-07
1.00825e-05
5.98347e-07
1.02563e-05
3.57461e-07
1.04023e-05
1.07398e-07
1.05144e-05
-1.38984e-07
1.05882e-05
-3.70172e-07
1.06214e-05
-5.75985e-07
1.06136e-05
-7.50781e-07
1.05649e-05
-8.92373e-07
1.04693e-05
-9.88194e-07
1.03258e-05
-1.03278e-06
1.01393e-05
-1.0294e-06
9.9184e-06
-9.8744e-07
9.6748e-06
-9.20635e-07
9.42173e-06
-8.44701e-07
9.17109e-06
-7.72905e-07
8.93073e-06
-7.11989e-07
8.70538e-06
-6.62954e-07
8.4978e-06
-6.23087e-07
8.30927e-06
-5.8726e-07
8.14017e-06
-5.49342e-07
7.99054e-06
-5.03449e-07
7.86055e-06
-4.44771e-07
7.75054e-06
-3.70085e-07
7.66089e-06
-2.78272e-07
7.59206e-06
-1.70646e-07
7.54473e-06
-5.00939e-08
7.51951e-06
7.99917e-08
7.5166e-06
2.15761e-07
7.53568e-06
3.52893e-07
7.57612e-06
4.86865e-07
7.63707e-06
6.1347e-07
7.71745e-06
7.28742e-07
7.81591e-06
8.29055e-07
7.93081e-06
9.11211e-07
8.06023e-06
9.72395e-07
8.20209e-06
1.01034e-06
8.35414e-06
1.02327e-06
8.51396e-06
1.00982e-06
8.67906e-06
9.69101e-07
8.84693e-06
9.00755e-07
9.01509e-06
8.04992e-07
9.18104e-06
6.82681e-07
9.34181e-06
5.35918e-07
9.49249e-06
3.69766e-07
9.62601e-06
1.92882e-07
9.73577e-06
1.45748e-08
9.81677e-06
-1.5723e-07
9.86588e-06
-3.16048e-07
9.88325e-06
-4.57925e-07
9.86829e-06
-5.77797e-07
9.81722e-06
-6.67982e-07
9.72831e-06
-7.23847e-07
9.60508e-06
-7.47631e-07
9.45412e-06
-7.44155e-07
9.28388e-06
-7.20522e-07
9.10363e-06
-6.85159e-07
8.92223e-06
-6.45949e-07
8.74618e-06
-6.07843e-07
8.57917e-06
-5.72403e-07
8.42335e-06
-5.39106e-07
8.27978e-06
-5.06048e-07
8.14892e-06
-4.7061e-07
8.03101e-06
-4.30041e-07
7.92637e-06
-3.81916e-07
7.83551e-06
-3.24452e-07
7.7591e-06
-2.56701e-07
7.69791e-06
-1.78703e-07
7.65263e-06
-9.1529e-08
7.62395e-06
2.8863e-09
7.61236e-06
1.02108e-07
7.61791e-06
2.03396e-07
7.64039e-06
3.03701e-07
7.67932e-06
3.99978e-07
7.73397e-06
4.89295e-07
7.80336e-06
5.68879e-07
7.88625e-06
6.36157e-07
7.98118e-06
6.88766e-07
8.08664e-06
7.24699e-07
8.20097e-06
7.42294e-07
8.32244e-06
7.40251e-07
8.44926e-06
7.1764e-07
8.57959e-06
6.73977e-07
8.71149e-06
6.09304e-07
8.8428e-06
5.24424e-07
8.97053e-06
4.21509e-07
9.08996e-06
3.05091e-07
9.19551e-06
1.81279e-07
9.28253e-06
5.60168e-08
9.34749e-06
-6.52949e-08
9.38808e-06
-1.78211e-07
9.40326e-06
-2.79345e-07
9.39253e-06
-3.65816e-07
9.3552e-06
-4.3435e-07
9.29153e-06
-4.82506e-07
9.20428e-06
-5.10518e-07
9.09825e-06
-5.21352e-07
8.97908e-06
-5.19115e-07
8.85253e-06
-5.08114e-07
8.72406e-06
-4.92334e-07
8.59794e-06
-4.74491e-07
8.47678e-06
-4.5555e-07
-4.35318e-07
7.54902e-06
-2.467e-07
7.47305e-06
-1.57843e-07
7.43109e-06
-4.14237e-08
7.42153e-06
9.59028e-08
7.44207e-06
2.472e-07
7.49011e-06
4.05298e-07
7.56369e-06
5.62312e-07
7.6611e-06
7.11638e-07
7.7806e-06
8.48194e-07
7.92042e-06
9.67446e-07
8.07881e-06
1.06536e-06
8.25392e-06
1.1385e-06
8.44368e-06
1.18401e-06
8.64575e-06
1.19957e-06
8.85744e-06
1.18346e-06
9.07561e-06
1.13453e-06
9.29692e-06
1.05212e-06
9.51804e-06
9.36025e-07
9.73579e-06
7.86741e-07
9.94619e-06
6.06605e-07
1.01423e-05
4.02203e-07
1.0315e-05
1.8483e-07
1.04557e-05
-3.33262e-08
1.05577e-05
-2.41032e-07
1.06164e-05
-4.28857e-07
1.06332e-05
-5.92785e-07
1.06083e-05
-7.25856e-07
1.0533e-05
-8.17044e-07
1.0403e-05
-8.58228e-07
1.02237e-05
-8.53463e-07
1.00044e-05
-8.1013e-07
9.7577e-06
-7.40726e-07
9.49828e-06
-6.61217e-07
9.23981e-06
-5.86232e-07
8.99146e-06
-5.24547e-07
8.75854e-06
-4.79073e-07
8.54412e-06
-4.48537e-07
8.34945e-06
-4.2841e-07
8.17453e-06
-4.12338e-07
8.01884e-06
-3.93655e-07
7.8819e-06
-3.66514e-07
7.76361e-06
-3.26481e-07
7.66425e-06
-2.7072e-07
7.58425e-06
-1.98269e-07
7.52408e-06
-1.10477e-07
7.48443e-06
-1.04513e-08
7.46593e-06
9.85001e-08
7.46881e-06
2.12876e-07
7.49302e-06
3.28682e-07
7.53819e-06
4.41698e-07
7.60366e-06
5.48002e-07
7.68845e-06
6.43947e-07
7.79132e-06
7.2619e-07
7.91074e-06
7.91793e-07
8.04487e-06
8.38257e-07
8.19163e-06
8.63588e-07
8.34868e-06
8.6622e-07
8.51358e-06
8.44915e-07
8.68391e-06
7.98773e-07
8.85728e-06
7.27381e-07
9.03125e-06
6.3102e-07
9.20279e-06
5.11141e-07
9.3669e-06
3.7181e-07
9.51629e-06
2.2038e-07
9.64359e-06
6.55783e-08
9.74274e-06
-8.45793e-08
9.80914e-06
-2.23624e-07
9.84115e-06
-3.48055e-07
9.83727e-06
-4.54044e-07
9.79445e-06
-5.34985e-07
9.71182e-06
-5.85346e-07
9.59268e-06
-6.04707e-07
9.44353e-06
-5.98479e-07
9.27339e-06
-5.74019e-07
9.09239e-06
-5.39524e-07
8.91018e-06
-5.0295e-07
8.73368e-06
-4.69446e-07
8.56668e-06
-4.4084e-07
8.41117e-06
-4.16898e-07
8.26795e-06
-3.95884e-07
8.1371e-06
-3.75198e-07
8.01845e-06
-3.5196e-07
7.91187e-06
-3.23465e-07
7.81751e-06
-2.87551e-07
7.73584e-06
-2.4278e-07
7.6676e-06
-1.88467e-07
7.61365e-06
-1.24747e-07
7.57479e-06
-5.26717e-08
7.55177e-06
2.5903e-08
7.54516e-06
1.08719e-07
7.55516e-06
1.93393e-07
7.58174e-06
2.7712e-07
7.62464e-06
3.57078e-07
7.68327e-06
4.30667e-07
7.75671e-06
4.95444e-07
7.84375e-06
5.49118e-07
7.94295e-06
5.89562e-07
8.05279e-06
6.1486e-07
8.17168e-06
6.23406e-07
8.29795e-06
6.13974e-07
8.42986e-06
5.8573e-07
8.56549e-06
5.38351e-07
8.70249e-06
4.72298e-07
8.83754e-06
3.89382e-07
8.96542e-06
2.93624e-07
9.08019e-06
1.90322e-07
9.17675e-06
8.47189e-08
9.25102e-06
-1.82556e-08
9.3003e-06
-1.14574e-07
9.32341e-06
-2.01319e-07
9.31993e-06
-2.75864e-07
9.28891e-06
-3.34801e-07
9.23047e-06
-3.7591e-07
9.14739e-06
-3.99421e-07
9.04483e-06
-4.07959e-07
8.92881e-06
-4.05328e-07
8.80536e-06
-3.95666e-07
8.68007e-06
-3.82828e-07
8.55712e-06
-3.69386e-07
8.43892e-06
-3.56288e-07
8.32681e-06
-3.43443e-07
-3.30087e-07
7.50911e-06
-1.38346e-07
7.43502e-06
-8.37583e-08
7.39556e-06
-1.95989e-09
7.39009e-06
1.01374e-07
7.41591e-06
2.2138e-07
7.46925e-06
3.51955e-07
7.54823e-06
4.83329e-07
7.65098e-06
6.08888e-07
7.77557e-06
7.23607e-07
7.92018e-06
8.22834e-07
8.08309e-06
9.02456e-07
8.26251e-06
9.59075e-07
8.45652e-06
9.90006e-07
8.66275e-06
9.93332e-07
8.87834e-06
9.67875e-07
9.1e-06
9.12874e-07
9.32454e-06
8.27575e-07
9.54922e-06
7.11343e-07
9.77091e-06
5.65054e-07
9.98346e-06
3.94062e-07
1.0177e-05
2.08614e-07
1.0342e-05
1.99145e-08
1.04695e-05
-1.60881e-07
1.05534e-05
-3.24896e-07
1.05913e-05
-4.66787e-07
1.05821e-05
-5.8355e-07
1.05187e-05
-6.62472e-07
1.03971e-05
-6.95434e-07
1.02228e-05
-6.83932e-07
1.00054e-05
-6.36113e-07
9.75875e-06
-5.63443e-07
9.49895e-06
-4.80925e-07
9.2407e-06
-4.02973e-07
8.99348e-06
-3.39006e-07
8.76241e-06
-2.9348e-07
8.55029e-06
-2.66956e-07
8.35805e-06
-2.563e-07
8.18532e-06
-2.55678e-07
8.03109e-06
-2.58107e-07
7.89429e-06
-2.56851e-07
7.7742e-06
-2.46422e-07
7.67073e-06
-2.23015e-07
7.5844e-06
-1.84393e-07
7.51595e-06
-1.29814e-07
7.46604e-06
-6.05655e-08
7.43547e-06
2.01101e-08
7.42494e-06
1.0903e-07
7.43462e-06
2.03196e-07
7.46455e-06
2.98756e-07
7.5147e-06
3.91544e-07
7.58465e-06
4.78054e-07
7.67354e-06
5.55058e-07
7.78023e-06
6.19502e-07
7.9033e-06
6.68719e-07
8.04104e-06
7.00516e-07
8.1914e-06
7.13237e-07
8.35201e-06
7.05608e-07
8.5205e-06
6.76423e-07
8.69468e-06
6.2459e-07
8.87233e-06
5.49732e-07
9.05032e-06
4.53028e-07
9.22289e-06
3.38576e-07
9.38206e-06
2.12643e-07
9.51978e-06
8.26535e-08
9.6293e-06
-4.39351e-08
9.7058e-06
-1.61084e-07
9.74705e-06
-2.64875e-07
9.75134e-06
-3.52344e-07
9.71511e-06
-4.17808e-07
9.63685e-06
-4.56725e-07
9.52002e-06
-4.68521e-07
9.37279e-06
-4.57476e-07
9.205e-06
-4.30684e-07
9.0274e-06
-3.9642e-07
8.84995e-06
-3.62079e-07
8.67935e-06
-3.32349e-07
8.519e-06
-3.09095e-07
8.37048e-06
-2.9232e-07
8.23414e-06
-2.80554e-07
8.10962e-06
-2.71366e-07
7.99631e-06
-2.61885e-07
7.89364e-06
-2.49294e-07
7.80135e-06
-2.31178e-07
7.71961e-06
-2.05807e-07
7.64901e-06
-1.72181e-07
7.59048e-06
-1.29932e-07
7.54503e-06
-7.93021e-08
7.51366e-06
-2.13016e-08
7.49727e-06
4.22905e-08
7.49645e-06
1.09538e-07
7.5114e-06
1.78447e-07
7.54234e-06
2.46178e-07
7.58934e-06
3.10083e-07
7.65195e-06
3.68056e-07
7.7293e-06
4.18093e-07
7.82016e-06
4.58254e-07
7.92312e-06
4.86604e-07
8.03672e-06
5.01261e-07
8.15948e-06
5.00645e-07
8.2898e-06
4.83658e-07
8.42577e-06
4.49757e-07
8.56485e-06
3.99269e-07
8.703e-06
3.34152e-07
8.83446e-06
2.57916e-07
8.95307e-06
1.75022e-07
9.05352e-06
8.98713e-08
9.13153e-06
6.70796e-09
9.18439e-06
-7.11132e-08
9.21102e-06
-1.41208e-07
9.21099e-06
-2.01285e-07
9.18317e-06
-2.48047e-07
9.12805e-06
-2.79677e-07
9.04882e-06
-2.96684e-07
8.95095e-06
-3.01549e-07
8.84065e-06
-2.97656e-07
8.72407e-06
-2.88747e-07
8.60661e-06
-2.78207e-07
8.49194e-06
-2.6816e-07
8.38198e-06
-2.59423e-07
8.27769e-06
-2.52003e-07
8.17952e-06
-2.45277e-07
-2.38198e-07
7.49378e-06
-3.42926e-08
7.4206e-06
-1.05799e-08
7.38174e-06
3.68987e-08
7.37469e-06
1.0842e-07
7.39922e-06
1.9685e-07
7.45506e-06
2.96123e-07
7.53792e-06
4.00463e-07
7.64484e-06
5.0197e-07
7.77336e-06
5.95088e-07
7.92136e-06
6.74828e-07
8.08698e-06
7.36844e-07
8.26843e-06
7.77621e-07
8.46392e-06
7.94514e-07
8.67136e-06
7.85894e-07
8.8881e-06
7.51137e-07
9.11121e-06
6.89765e-07
9.33821e-06
6.0057e-07
9.5665e-06
4.83054e-07
9.7899e-06
3.41659e-07
9.99724e-06
1.86717e-07
1.01759e-05
2.99622e-08
1.03167e-05
-1.20898e-07
1.04116e-05
-2.55811e-07
1.04594e-05
-3.72637e-07
1.04558e-05
-4.6321e-07
1.03933e-05
-5.21089e-07
1.02707e-05
-5.39829e-07
1.00945e-05
-5.19242e-07
9.87697e-06
-4.66393e-07
9.63337e-06
-3.92519e-07
9.38098e-06
-3.11054e-07
9.13425e-06
-2.34194e-07
8.90152e-06
-1.70239e-07
8.68669e-06
-1.24177e-07
8.49116e-06
-9.79477e-08
8.3148e-06
-9.05959e-08
8.15651e-06
-9.8015e-08
8.01469e-06
-1.13853e-07
7.88773e-06
-1.31146e-07
7.77446e-06
-1.43581e-07
7.67439e-06
-1.46358e-07