/*--------------------------------*- C++ -*----------------------------------*\
| =========                 |                                                 |
| \\      /  F ield         | OpenFOAM: The Open Source CFD Toolbox           |
|  \\    /   O peration     | Version:  2206                                  |
|   \\  /    A nd           | Website:  www.openfoam.com                      |
|    \\/     M anipulation  |                                                 |
\*---------------------------------------------------------------------------*/
FoamFile
{
    version     2.0;
    format      ascii;
    arch        "LSB;label=32;scalar=64";
    class       volVectorField;
    location    "18.6999";
    object      ddtCorrDdt0(U);
}
// * * * * * * * * * * * * * * * * * * * * * * * * * * * * * * * * * * * * * //

dimensions      [0 1 -2 0 0 0 0];

internalField   nonuniform List<vector> 
1826
(
(-134.634 90.0849 0)
(-133.081 104.289 0)
(-122.158 109.701 0)
(-103.938 106.502 0)
(-79.6318 96.3227 0)
(-51.8864 80.8663 0)
(-19.9757 64.7696 0)
(20.5077 39.2049 0)
(59.8586 15.4387 0)
(93.8615 -10.2941 0)
(116.212 -25.3543 0)
(124.391 -29.0246 0)
(121.394 -23.9093 0)
(113.215 -14.2562 0)
(102.145 -3.76563 0)
(90.1946 4.49139 0)
(78.8238 8.50125 0)
(68.7251 7.4838 0)
(59.9519 1.73272 0)
(52.0676 -7.84846 0)
(44.0931 -20.1054 0)
(34.7421 -33.0713 0)
(24.7897 -45.5967 0)
(14.1507 -56.3708 0)
(2.89574 -64.0881 0)
(-8.61193 -67.8003 0)
(-19.5693 -66.9118 0)
(-29.3773 -61.9562 0)
(-38.0764 -54.0657 0)
(-45.6467 -43.8118 0)
(-52.1724 -31.7951 0)
(-57.4713 -18.6066 0)
(-61.5851 -4.92559 0)
(-64.952 8.96018 0)
(-67.5027 22.8171 0)
(-69.1686 36.2396 0)
(-69.4822 48.521 0)
(-67.1666 58.1955 0)
(-60.3383 63.2741 0)
(-49.7098 64.3594 0)
(-35.8656 61.5616 0)
(-20.0809 55.817 0)
(-2.80777 48.2781 0)
(16.2512 38.4676 0)
(33.8209 25.9581 0)
(48.1064 15.4447 0)
(57.3966 8.01321 0)
(61.3596 3.35705 0)
(61.0934 0.820035 0)
(58.7951 -0.750108 0)
(55.1835 -2.46896 0)
(50.838 -4.93439 0)
(46.0621 -8.39803 0)
(40.9354 -12.8915 0)
(35.3694 -18.3095 0)
(29.2131 -24.3732 0)
(22.3482 -30.4101 0)
(15.2507 -36.1668 0)
(7.91982 -40.9602 0)
(0.483362 -44.0452 0)
(-6.63669 -44.6202 0)
(-13.048 -42.5971 0)
(-18.6572 -38.6175 0)
(-23.3632 -33.0347 0)
(-27.2015 -26.272 0)
(-30.3851 -18.716 0)
(-32.973 -10.6792 0)
(-34.6681 -2.46115 0)
(-35.8584 5.74797 0)
(-36.4266 13.8642 0)
(-36.2765 21.5553 0)
(-35.316 28.4995 0)
(-33.2436 34.3259 0)
(-29.499 38.3192 0)
(-23.96 40.1458 0)
(-17.0785 40.1239 0)
(-9.28516 38.3245 0)
(-1.00959 35.0939 0)
(7.39103 30.7492 0)
(15.543 25.5183 0)
(22.6399 19.6785 0)
(27.996 14.009 0)
(31.5849 9.06226 0)
(33.322 4.67565 0)
(33.6144 0.663582 0)
(32.9067 -3.20763 0)
(31.3671 -7.19662 0)
(29.0676 -11.383 0)
(26.0237 -15.636 0)
(22.3326 -19.7756 0)
(18.1341 -23.6923 0)
(13.4746 -27.1913 0)
(8.45158 -30.0253 0)
(3.1939 -31.8164 0)
(-2.03619 -31.9621 0)
(-6.9244 -30.6054 0)
(-11.2776 -27.8954 0)
(-14.94 -24.0411 0)
(-17.8298 -19.3413 0)
(-20.03 -14.1035 0)
(-21.7364 -8.5919 0)
(-22.9348 -3.02259 0)
(-23.4807 2.45498 0)
(-23.5165 7.78042 0)
(-22.8843 12.7411 0)
(-21.5945 17.1222 0)
(-19.6886 20.8137 0)
(-17.1456 23.7186 0)
(-13.9106 25.6256 0)
(-10.0388 26.393 0)
(-5.76906 26.1447 0)
(-1.26643 24.9474 0)
(3.34657 22.9449 0)
(7.93187 20.2529 0)
(12.2311 16.9715 0)
(15.9212 13.2537 0)
(18.7671 9.34405 0)
(20.6625 5.54416 0)
(21.632 2.03441 0)
(21.7841 -1.22981 0)
(21.2081 -4.34783 0)
(19.9548 -7.35366 0)
(-143.016 87.7506 0)
(-124.426 91.6598 0)
(-98.005 87.5509 0)
(-66.6685 77.5084 0)
(-32.0506 64.0124 0)
(9.35219 45.8075 0)
(48.4902 19.4547 0)
(79.9396 -2.44055 0)
(100.642 -19.2207 0)
(107.676 -27.5697 0)
(103.43 -27.6847 0)
(94.365 -21.655 0)
(83.8503 -12.1316 0)
(74.1883 -1.69164 0)
(66.2739 7.58323 0)
(60.5269 13.9768 0)
(57.0145 16.0558 0)
(55.0003 13.5072 0)
(53.2788 7.01219 0)
(50.7334 -2.29035 0)
(46.481 -13.1114 0)
(39.9949 -24.5124 0)
(30.9553 -35.4432 0)
(20.1183 -44.9354 0)
(8.07804 -51.9372 0)
(-4.5333 -55.4621 0)
(-17.1406 -55.1549 0)
(-29.0879 -51.3581 0)
(-40.0048 -44.5915 0)
(-49.7861 -35.4992 0)
(-58.4337 -24.7927 0)
(-65.9628 -13.0105 0)
(-72.3365 -0.369039 0)
(-77.3608 12.9008 0)
(-80.3705 26.0468 0)
(-80.3662 37.7519 0)
(-75.2293 45.8247 0)
(-65.6214 50.1069 0)
(-51.9265 50.6682 0)
(-35.6064 48.1166 0)
(-18.2107 43.4474 0)
(-0.0315845 37.3621 0)
(17.8751 28.4935 0)
(32.4726 19.223 0)
(42.9795 12.504 0)
(48.8924 8.12337 0)
(51.0505 5.51141 0)
(50.96 4.10232 0)
(49.9168 3.19807 0)
(48.4586 2.1947 0)
(46.8644 0.712699 0)
(45.1301 -1.53831 0)
(43.0774 -4.71302 0)
(40.4662 -8.7505 0)
(37.0484 -13.4273 0)
(32.6207 -18.5198 0)
(27.0963 -23.8369 0)
(20.4796 -28.9521 0)
(12.9354 -33.2097 0)
(4.88576 -36.096 0)
(-3.21677 -37.018 0)
(-10.8932 -35.7377 0)
(-17.929 -32.6147 0)
(-24.2295 -27.9296 0)
(-29.7205 -21.9697 0)
(-34.2318 -15.0872 0)
(-37.9339 -7.84452 0)
(-40.8137 -0.412798 0)
(-42.7663 7.13119 0)
(-43.567 14.5081 0)
(-42.8789 21.2269 0)
(-40.2747 26.5811 0)
(-35.5529 30.1287 0)
(-29.1211 32.0461 0)
(-21.3271 32.4168 0)
(-12.7501 31.3632 0)
(-3.89629 29.1582 0)
(4.8466 26.0249 0)
(12.9665 22.1335 0)
(19.6929 17.8493 0)
(24.8852 13.99 0)
(28.4544 10.5121 0)
(30.5758 7.25271 0)
(31.5806 4.12456 0)
(31.8243 1.02741 0)
(31.4305 -2.17389 0)
(30.4427 -5.54633 0)
(28.838 -9.05959 0)
(26.5861 -12.6275 0)
(23.6434 -16.1279 0)
(20.021 -19.4324 0)
(15.7107 -22.3722 0)
(10.7726 -24.7576 0)
(5.35289 -26.2443 0)
(-0.226028 -26.4988 0)
(-5.62481 -25.5161 0)
(-10.6381 -23.3591 0)
(-15.1475 -20.1825 0)
(-19.0723 -16.1837 0)
(-22.3526 -11.5821 0)
(-24.8511 -6.65284 0)
(-26.6191 -1.73493 0)
(-27.6592 3.06594 0)
(-27.8249 7.66283 0)
(-26.9956 11.851 0)
(-25.1819 15.429 0)
(-22.3867 18.2104 0)
(-18.7719 20.1909 0)
(-14.4262 21.3273 0)
(-9.53782 21.616 0)
(-4.29946 21.0812 0)
(1.14779 19.7977 0)
(6.52031 17.8043 0)
(11.404 15.2771 0)
(15.5907 12.5914 0)
(18.8882 9.84144 0)
(21.2017 7.09563 0)
(22.4295 4.38206 0)
(22.8333 1.76705 0)
(22.5315 -0.782074 0)
(21.6313 -3.27957 0)
(20.1905 -5.70626 0)
(-91.5235 62.1116 0)
(-59.6545 56.5743 0)
(-24.9793 50.3422 0)
(13.1696 36.6238 0)
(44.9908 19.0655 0)
(68.3923 3.7978 0)
(81.6656 -7.37805 0)
(83.3659 -13.5363 0)
(78.116 -15.618 0)
(68.4077 -14.964 0)
(56.8873 -12.1809 0)
(46.1279 -8.06234 0)
(38.1549 -2.69886 0)
(33.73 3.66925 0)
(32.0908 10.5343 0)
(34.3116 13.9255 0)
(38.7885 13.9695 0)
(43.6132 11.2324 0)
(47.2361 6.07552 0)
(48.3885 -0.93345 0)
(46.4602 -8.93143 0)
(41.6331 -17.2521 0)
(33.9025 -25.5879 0)
(23.3855 -33.3325 0)
(10.7477 -39.0773 0)
(-2.75529 -41.9272 0)
(-16.5378 -41.7821 0)
(-30.0685 -38.6654 0)
(-42.71 -32.9158 0)
(-54.026 -24.9358 0)
(-63.6891 -15.1894 0)
(-71.4019 -4.23565 0)
(-76.7692 7.01544 0)
(-78.8661 17.4749 0)
(-75.8924 25.6886 0)
(-68.5257 31.1145 0)
(-57.0604 33.7448 0)
(-42.8738 33.9248 0)
(-27.5354 32.2716 0)
(-12.2584 29.5379 0)
(2.4535 25.5827 0)
(14.8862 19.8213 0)
(24.1411 15.0696 0)
(30.0822 11.7607 0)
(33.1424 9.21884 0)
(34.4393 7.28403 0)
(35.1175 5.89131 0)
(35.6067 4.74724 0)
(36.2181 3.63713 0)
(37.0563 2.40681 0)
(37.9706 0.877447 0)
(38.6663 -1.1141 0)
(38.7997 -3.66339 0)
(37.9621 -6.75806 0)
(35.9282 -10.2845 0)
(32.6583 -14.1031 0)
(28.0615 -18.0271 0)
(22.1201 -21.8399 0)
(14.9531 -25.1833 0)
(6.87403 -27.5915 0)
(-1.65643 -28.5066 0)
(-10.1163 -27.5785 0)
(-18.1542 -25.0073 0)
(-25.4913 -21.0561 0)
(-31.869 -16.0215 0)
(-37.0902 -10.2226 0)
(-41.0182 -3.94896 0)
(-43.5752 2.47331 0)
(-44.5853 8.61893 0)
(-43.6055 13.9843 0)
(-40.4514 18.1511 0)
(-35.4589 21.1144 0)
(-28.9762 22.9133 0)
(-21.5034 23.6292 0)
(-13.5486 23.3853 0)
(-5.5595 22.3177 0)
(2.04482 20.5108 0)
(8.81384 18.1123 0)
(14.3611 15.5239 0)
(18.698 13.1066 0)
(21.8967 10.7202 0)
(24.1903 8.31185 0)
(25.8095 5.8815 0)
(26.8906 3.39888 0)
(27.5023 0.833699 0)
(27.6464 -1.83258 0)
(27.2755 -4.6079 0)
(26.3095 -7.46282 0)
(24.6735 -10.3217 0)
(22.2871 -13.0607 0)
(19.1477 -15.5821 0)
(15.2442 -17.7697 0)
(10.6138 -19.4966 0)
(5.37985 -20.5595 0)
(-0.184382 -20.7549 0)
(-5.77389 -19.9681 0)
(-11.151 -18.1886 0)
(-16.0641 -15.4661 0)
(-20.3367 -12.0523 0)
(-23.8153 -8.19503 0)
(-26.4195 -4.14059 0)
(-28.0594 -0.108963 0)
(-28.6342 3.70261 0)
(-27.951 7.11214 0)
(-26.1904 10.0526 0)
(-23.3895 12.4685 0)
(-19.723 14.3044 0)
(-15.3749 15.5295 0)
(-10.4938 16.1211 0)
(-5.19856 16.0722 0)
(0.273736 15.2966 0)
(5.48468 13.9599 0)
(10.1267 12.4839 0)
(13.9724 10.9199 0)
(16.9253 9.2713 0)
(19.0247 7.55316 0)
(20.2353 5.74207 0)
(20.7871 3.88196 0)
(20.7613 1.95422 0)
(20.2404 -0.0177081 0)
(19.2797 -2.00084 0)
(17.9016 -3.96413 0)
(-12.3221 27.3483 0)
(11.2357 22.2053 0)
(29.402 16.2109 0)
(42.0415 11.3258 0)
(47.7257 7.34067 0)
(47.2455 4.52526 0)
(43.1045 1.82885 0)
(36.53 -0.856498 0)
(28.9515 -3.12654 0)
(21.5653 -4.43096 0)
(15.3281 -4.10859 0)
(10.9789 -2.38829 0)
(8.82963 0.537481 0)
(9.25919 4.67979 0)
(13.1591 6.51855 0)
(19.5402 7.22745 0)
(26.6934 6.72479 0)
(33.169 5.07075 0)
(37.9047 2.25935 0)
(40.1671 -1.68633 0)
(39.1284 -6.44134 0)
(35.4778 -11.6272 0)
(29.1496 -16.7318 0)
(20.4796 -21.4921 0)
(9.79842 -25.5193 0)
(-2.57832 -27.6455 0)
(-15.3875 -27.0661 0)
(-27.7948 -24.4194 0)
(-39.0706 -19.8699 0)
(-48.4783 -13.8276 0)
(-55.3658 -6.88348 0)
(-59.1593 0.223554 0)
(-58.6985 6.65303 0)
(-54.7375 11.7889 0)
(-47.8308 15.5584 0)
(-38.9133 18.0847 0)
(-29.0737 19.4697 0)
(-19.2426 19.9611 0)
(-10.0476 19.569 0)
(-1.97203 18.2824 0)
(4.68594 16.4382 0)
(9.66028 14.4516 0)
(13.1163 12.3796 0)
(15.63 10.2349 0)
(17.6269 8.10716 0)
(19.3989 6.13181 0)
(21.165 4.40957 0)
(23.0117 2.94261 0)
(24.9299 1.64076 0)
(26.8179 0.392049 0)
(28.5164 -0.902007 0)
(29.8273 -2.33196 0)
(30.5405 -3.979 0)
(30.4394 -5.90372 0)
(29.1979 -8.10472 0)
(26.8744 -10.5879 0)
(23.3315 -13.1105 0)
(18.4915 -15.4922 0)
(12.4959 -17.5662 0)
(5.55513 -19.1271 0)
(-2.0738 -19.7576 0)
(-9.87992 -18.8909 0)
(-17.304 -16.8285 0)
(-23.9805 -13.8041 0)
(-29.5574 -9.9961 0)
(-33.7593 -5.67141 0)
(-36.3804 -1.15323 0)
(-37.1863 3.21594 0)
(-35.9187 7.07768 0)
(-33.0715 10.3093 0)
(-28.8782 12.8594 0)
(-23.7268 14.6934 0)
(-18.0126 15.8133 0)
(-12.0699 16.2906 0)
(-6.17605 16.1823 0)
(-0.646953 15.5371 0)
(4.14764 14.4842 0)
(8.11611 13.2629 0)
(11.3112 11.8773 0)
(13.8334 10.2453 0)
(15.8849 8.45781 0)
(17.5645 6.5474 0)
(18.9114 4.53698 0)
(19.9294 2.44533 0)
(20.6143 0.289205 0)
(20.9362 -1.92367 0)
(20.8286 -4.17151 0)
(20.2058 -6.40598 0)
(18.9937 -8.56106 0)
(17.1168 -10.5381 0)
(14.5536 -12.2486 0)
(11.3402 -13.6604 0)
(7.53684 -14.6884 0)
(3.1744 -15.2069 0)
(-1.58103 -15.1276 0)
(-6.45603 -14.3374 0)
(-11.1462 -12.8008 0)
(-15.4116 -10.6924 0)
(-19.0004 -8.12946 0)
(-21.7132 -5.2873 0)
(-23.3809 -2.36176 0)
(-23.815 0.440104 0)
(-23.1663 2.95187 0)
(-21.5184 5.16761 0)
(-19.0254 7.10737 0)
(-15.8677 8.72444 0)
(-12.197 9.9548 0)
(-8.11488 10.7509 0)
(-3.78241 10.9702 0)
(0.451953 10.6659 0)
(4.32341 10.2022 0)
(7.6569 9.67064 0)
(10.362 9.07337 0)
(12.4141 8.3673 0)
(13.893 7.51473 0)
(14.8323 6.4672 0)
(15.4093 5.26125 0)
(15.6336 3.87158 0)
(15.5269 2.34459 0)
(15.0998 0.744167 0)
(14.3503 -0.874899 0)
(13.2682 -2.46831 0)
(-0.0218508 15.5051 0)
(6.06684 15.5749 0)
(10.4288 15.4337 0)
(13.1062 14.3056 0)
(14.1234 11.78 0)
(13.9755 8.45765 0)
(12.7629 5.02768 0)
(10.7205 2.13117 0)
(8.26491 0.0809433 0)
(5.8027 -1.11471 0)
(4.03126 -1.55464 0)
(3.05882 -1.56442 0)
(3.52644 -1.01411 0)
(5.77783 -0.351202 0)
(9.37963 0.142815 0)
(13.4521 0.404714 0)
(17.3624 0.379624 0)
(20.6187 0.0580464 0)
(22.871 -0.692815 0)
(23.7962 -2.03321 0)
(22.9968 -4.12539 0)
(20.637 -6.90413 0)
(16.627 -9.94924 0)
(11.2053 -12.864 0)
(4.4383 -15.305 0)
(-3.55405 -16.4385 0)
(-11.6983 -16.1304 0)
(-19.2519 -14.6798 0)
(-25.6268 -12.1161 0)
(-30.2769 -8.70552 0)
(-32.8832 -4.83359 0)
(-33.1794 -0.910988 0)
(-31.6681 2.84223 0)
(-28.7148 6.36849 0)
(-24.7523 9.46636 0)
(-20.222 11.9411 0)
(-15.4752 13.6283 0)
(-10.7804 14.4607 0)
(-6.32351 14.4959 0)
(-2.20296 13.8811 0)
(1.51081 12.728 0)
(4.6894 11.1341 0)
(7.3415 9.29354 0)
(9.54741 7.40329 0)
(11.3245 5.57002 0)
(12.7396 3.89176 0)
(13.8977 2.41796 0)
(14.8793 1.12762 0)
(15.7621 -0.0159152 0)
(16.5637 -1.05067 0)
(17.2479 -2.03491 0)
(17.7423 -3.0409 0)
(17.957 -4.13102 0)
(17.7815 -5.34035 0)
(17.0298 -6.65518 0)
(15.6006 -8.00476 0)
(13.2641 -9.40956 0)
(10.0659 -10.7538 0)
(6.10692 -11.8845 0)
(1.45251 -12.6474 0)
(-3.74912 -12.7825 0)
(-9.01184 -12.0187 0)
(-13.8812 -10.6274 0)
(-18.0222 -8.64837 0)
(-21.1529 -6.2069 0)
(-23.074 -3.49379 0)
(-23.6602 -0.72505 0)
(-22.9663 1.91333 0)
(-21.2835 4.37776 0)
(-18.7875 6.61277 0)
(-15.7088 8.5062 0)
(-12.2846 9.98592 0)
(-8.74436 11.0129 0)
(-5.30415 11.5856 0)
(-2.14042 11.7866 0)
(0.6789 11.7894 0)
(3.1497 11.547 0)
(5.23926 10.8593 0)
(7.06876 9.82896 0)
(8.6833 8.50678 0)
(10.0993 6.9675 0)
(11.3085 5.28077 0)
(12.2959 3.51926 0)
(13.038 1.70744 0)
(13.4674 -0.135975 0)
(13.5866 -1.97933 0)
(13.358 -3.78421 0)
(12.7343 -5.50317 0)
(11.6805 -7.08645 0)
(10.1881 -8.49075 0)
(8.2707 -9.68177 0)
(5.94295 -10.5668 0)
(3.30346 -11.0551 0)
(0.327402 -11.2047 0)
(-2.88088 -10.9347 0)
(-6.07992 -10.2139 0)
(-9.05172 -9.06309 0)
(-11.5865 -7.54348 0)
(-13.505 -5.775 0)
(-14.6846 -3.90333 0)
(-15.0753 -2.06068 0)
(-14.7053 -0.316798 0)
(-13.6702 1.31042 0)
(-12.1089 2.82547 0)
(-10.1502 4.24266 0)
(-7.86776 5.49856 0)
(-5.34394 6.4043 0)
(-2.81059 7.008 0)
(-0.429464 7.44958 0)
(1.67647 7.75239 0)
(3.45501 7.88946 0)
(4.93841 7.85597 0)
(6.21138 7.68119 0)
(7.33115 7.3452 0)
(8.27201 6.78065 0)
(9.04557 5.96975 0)
(9.653 4.95383 0)
(10.0521 3.78296 0)
(10.2068 2.51333 0)
(10.091 1.19667 0)
(9.69024 -0.121047 0)
(9.0007 -1.40318 0)
(-3.84196 11.0444 0)
(0.66401 10.628 0)
(4.28978 10.1071 0)
(7.08831 9.38746 0)
(8.78712 8.37957 0)
(9.4799 6.99161 0)
(9.34118 5.42889 0)
(8.42467 3.66523 0)
(7.18624 1.76899 0)
(5.98004 0.100151 0)
(5.10842 -0.904175 0)
(4.38655 -1.52111 0)
(4.14592 -1.76262 0)
(4.55453 -1.67084 0)
(5.41648 -1.44492 0)
(6.45251 -1.15612 0)
(7.50933 -0.916111 0)
(8.49489 -0.871952 0)
(9.23343 -1.15872 0)
(9.60989 -1.9793 0)
(9.5018 -3.41189 0)
(8.68763 -5.29949 0)
(6.98488 -7.3175 0)
(4.39507 -9.09226 0)
(1.03791 -10.403 0)
(-2.81654 -11.0596 0)
(-6.74312 -10.9726 0)
(-10.3684 -10.1176 0)
(-13.4083 -8.53332 0)
(-15.6251 -6.35983 0)
(-16.8754 -3.79173 0)
(-17.1589 -1.01265 0)
(-16.5936 1.81199 0)
(-15.2481 4.47662 0)
(-13.2569 6.78274 0)
(-10.788 8.61288 0)
(-8.02702 9.92475 0)
(-5.16484 10.7027 0)
(-2.40849 10.9289 0)
(0.0775835 10.6267 0)
(2.29483 9.84424 0)
(4.16788 8.80121 0)
(5.63317 7.5248 0)
(6.76265 6.13747 0)
(7.61025 4.73433 0)
(8.223 3.37006 0)
(8.65538 2.08164 0)
(8.94745 0.87956 0)
(9.11471 -0.231089 0)
(9.23709 -1.25512 0)
(9.30175 -2.20984 0)
(9.26916 -3.12487 0)
(9.08247 -4.02404 0)
(8.67966 -4.91736 0)
(8.02877 -5.77725 0)
(6.96103 -6.55291 0)
(5.5273 -7.4303 0)
(3.75604 -8.21882 0)
(1.59307 -8.81288 0)
(-0.910534 -9.11445 0)
(-3.61844 -9.05272 0)
(-6.30049 -8.57149 0)
(-8.72291 -7.6766 0)
(-10.7251 -6.4112 0)
(-12.1865 -4.84218 0)
(-13.0307 -3.05207 0)
(-13.2731 -1.12956 0)
(-12.9795 0.864227 0)
(-12.197 2.85013 0)
(-10.9898 4.71151 0)
(-9.43664 6.34022 0)
(-7.65472 7.70167 0)
(-5.73812 8.77418 0)
(-3.76606 9.53698 0)
(-1.79242 9.96354 0)
(0.147446 10.0235 0)
(2.08551 9.74232 0)
(3.9081 9.14825 0)
(5.53458 8.24534 0)
(6.93288 7.08456 0)
(8.07591 5.74435 0)
(8.94776 4.2938 0)
(9.55559 2.78696 0)
(9.92363 1.25767 0)
(10.062 -0.290501 0)
(9.91562 -1.83036 0)
(9.49396 -3.31367 0)
(8.78506 -4.69973 0)
(7.77845 -5.95288 0)
(6.48438 -7.03959 0)
(4.93026 -7.922 0)
(3.17462 -8.53635 0)
(1.23564 -8.80847 0)
(-0.765475 -8.84374 0)
(-2.71949 -8.59077 0)
(-4.55121 -8.03152 0)
(-6.17 -7.19422 0)
(-7.4916 -6.1342 0)
(-8.45662 -4.92155 0)
(-9.03452 -3.62912 0)
(-9.2303 -2.31395 0)
(-9.08573 -1.00268 0)
(-8.65789 0.29676 0)
(-7.99161 1.57584 0)
(-7.11277 2.79616 0)
(-6.04023 3.89245 0)
(-4.84001 4.83863 0)
(-3.6015 5.64932 0)
(-2.33911 6.27015 0)
(-1.05915 6.66407 0)
(0.226863 6.83891 0)
(1.50451 6.80963 0)
(2.75656 6.60296 0)
(3.99245 6.24411 0)
(5.15925 5.73708 0)
(6.18488 5.0706 0)
(6.99127 4.23921 0)
(7.56579 3.30741 0)
(7.8841 2.3095 0)
(7.93663 1.27989 0)
(7.72262 0.248129 0)
(7.25474 -0.761033 0)
(-2.79925 7.67769 0)
(-0.488665 8.18225 0)
(1.51062 8.58557 0)
(3.26114 8.66243 0)
(4.68116 8.27437 0)
(5.83218 7.24255 0)
(6.68101 5.77986 0)
(7.06249 4.1226 0)
(7.01955 2.41318 0)
(6.65034 0.83986 0)
(6.19974 -0.204832 0)
(5.67752 -0.808655 0)
(5.21698 -1.49924 0)
(4.92288 -1.7215 0)
(4.77463 -1.73384 0)
(4.76333 -1.60701 0)
(4.90309 -1.45706 0)
(5.17677 -1.47531 0)
(5.39502 -1.79588 0)
(5.46015 -2.37866 0)
(5.32545 -3.30493 0)
(4.7933 -4.50883 0)
(3.75255 -5.82227 0)
(2.21092 -7.03733 0)
(0.241748 -7.97219 0)
(-2.01258 -8.44355 0)
(-4.3562 -8.36433 0)
(-6.59457 -7.73623 0)
(-8.55651 -6.58189 0)
(-10.0926 -4.98037 0)
(-11.1175 -3.0537 0)
(-11.5726 -0.936298 0)
(-11.4425 1.22726 0)
(-10.7392 3.29735 0)
(-9.52401 5.15184 0)
(-7.89898 6.68682 0)
(-5.98242 7.83979 0)
(-3.8955 8.58294 0)
(-1.77647 8.89904 0)
(0.183681 8.80287 0)
(2.14702 8.36256 0)
(3.90049 7.50346 0)
(5.18425 6.43561 0)
(6.17885 5.26209 0)
(6.91328 4.05019 0)
(7.40087 2.86705 0)
(7.68093 1.75557 0)
(7.79278 0.722539 0)
(7.75381 -0.254269 0)
(7.54625 -1.15862 0)
(7.23417 -1.99642 0)
(6.82357 -2.78217 0)
(6.31886 -3.53521 0)
(5.72211 -4.26947 0)
(5.04859 -4.99452 0)
(4.0693 -5.69193 0)
(2.83659 -6.30237 0)
(1.51105 -6.813 0)
(-0.0124548 -7.16703 0)
(-1.71333 -7.30765 0)
(-3.50767 -7.18521 0)
(-5.28562 -6.75136 0)
(-6.9396 -6.01998 0)
(-8.37864 -5.01462 0)
(-9.52396 -3.76923 0)
(-10.318 -2.3341 0)
(-10.7021 -0.780659 0)
(-10.6742 0.803538 0)
(-10.2138 2.34179 0)
(-9.33623 3.767 0)
(-8.08561 5.02689 0)
(-6.52539 6.08589 0)
(-4.7255 6.91588 0)
(-2.78073 7.4888 0)
(-0.824657 7.78012 0)
(1.04083 7.89003 0)
(2.92506 7.80282 0)
(4.66466 7.43733 0)
(6.14673 6.81511 0)
(7.3597 5.93589 0)
(8.32631 4.88912 0)
(9.0355 3.71574 0)
(9.49522 2.45376 0)
(9.71224 1.14191 0)
(9.68407 -0.170688 0)
(9.40025 -1.44708 0)
(8.85157 -2.66408 0)
(8.04823 -3.78681 0)
(7.00372 -4.78103 0)
(5.73159 -5.62353 0)
(4.28989 -6.30973 0)
(2.74508 -6.83378 0)
(1.0648 -7.17082 0)
(-0.682347 -7.20793 0)
(-2.36552 -7.03147 0)
(-3.93374 -6.63155 0)
(-5.34973 -5.99332 0)
(-6.56798 -5.15196 0)
(-7.55578 -4.16832 0)
(-8.29453 -3.1031 0)
(-8.77807 -1.99962 0)
(-9.0049 -0.884661 0)
(-8.98625 0.213334 0)
(-8.71593 1.26484 0)
(-8.19323 2.24312 0)
(-7.43215 3.12334 0)
(-6.4598 3.87513 0)
(-5.30439 4.47273 0)
(-3.99678 4.9036 0)
(-2.58158 5.17489 0)
(-1.10976 5.30423 0)
(0.364619 5.30035 0)
(1.76977 5.15833 0)
(3.05853 4.90972 0)
(4.26253 4.55578 0)
(5.31875 4.08944 0)
(6.17815 3.51649 0)
(6.81606 2.84911 0)
(7.21088 2.10763 0)
(7.3757 1.33036 0)
(7.32246 0.540698 0)
(7.06116 -0.248965 0)
(-5.37256 5.69532 0)
(-3.15017 6.10781 0)
(-0.89693 6.34013 0)
(1.3363 6.31948 0)
(3.39825 5.99932 0)
(5.43425 5.44103 0)
(7.1181 4.40595 0)
(8.10734 3.22994 0)
(8.66386 2.0328 0)
(8.79347 0.940341 0)
(8.63566 0.0746131 0)
(8.31539 -0.566788 0)
(7.90114 -1.0035 0)
(7.43286 -1.2513 0)
(7.00434 -1.34551 0)
(6.6602 -1.35273 0)
(6.40426 -1.36112 0)
(6.19803 -1.46713 0)
(6.03964 -1.76958 0)
(5.79581 -2.24171 0)
(5.23515 -2.857 0)
(4.32591 -3.67336 0)
(3.0367 -4.5465 0)
(1.36729 -5.31862 0)
(-0.634145 -5.87592 0)
(-2.86103 -6.12134 0)
(-5.16949 -6.00028 0)
(-7.40123 -5.49837 0)
(-9.40455 -4.63076 0)
(-11.0433 -3.45289 0)
(-12.1722 -2.05957 0)
(-12.7181 -0.527404 0)
(-12.659 1.03093 0)
(-12.0281 2.52296 0)
(-10.856 3.85506 0)
(-9.236 4.96439 0)
(-7.2603 5.80657 0)
(-5.04357 6.35954 0)
(-2.69126 6.62691 0)
(-0.329508 6.62023 0)
(1.87976 6.37286 0)
(3.85055 5.80207 0)
(5.61838 5.05972 0)
(7.05254 4.19649 0)
(8.15226 3.27593 0)
(8.9392 2.35235 0)
(9.43542 1.45033 0)
(9.67189 0.59417 0)
(9.68083 -0.198062 0)
(9.48255 -0.942935 0)
(9.08996 -1.6446 0)
(8.51782 -2.30819 0)
(7.7635 -2.93616 0)
(6.82718 -3.51615 0)
(5.76597 -4.08671 0)
(4.43931 -4.69105 0)
(2.88185 -4.91698 0)
(1.21274 -5.21399 0)
(-0.570922 -5.41084 0)
(-2.4485 -5.43181 0)
(-4.34436 -5.28809 0)
(-6.17026 -4.9307 0)
(-7.85724 -4.36482 0)
(-9.32752 -3.61141 0)
(-10.5038 -2.69963 0)
(-11.3259 -1.66847 0)
(-11.7319 -0.564167 0)
(-11.7189 0.561701 0)
(-11.2875 1.66185 0)
(-10.4535 2.69171 0)
(-9.25565 3.61442 0)
(-7.74762 4.40981 0)
(-5.98582 5.05722 0)
(-4.02232 5.54909 0)
(-1.92234 5.90828 0)
(0.22306 6.09613 0)
(2.36368 5.96878 0)
(4.41953 5.70565 0)
(6.32576 5.27338 0)
(7.99397 4.64673 0)
(9.37077 3.85525 0)
(10.4201 2.94543 0)
(11.1198 1.95933 0)
(11.468 0.928644 0)
(11.4698 -0.111242 0)
(11.1666 -1.1155 0)
(10.5526 -2.05193 0)
(9.64854 -2.90219 0)
(8.47683 -3.64685 0)
(7.0654 -4.2694 0)
(5.44768 -4.77656 0)
(3.66385 -5.15845 0)
(1.80551 -5.37252 0)
(-0.144053 -5.32986 0)
(-2.11123 -5.17372 0)
(-3.96314 -4.88055 0)
(-5.65504 -4.40409 0)
(-7.13999 -3.77992 0)
(-8.37062 -3.05825 0)
(-9.31827 -2.28291 0)
(-9.96902 -1.48583 0)
(-10.3189 -0.685395 0)
(-10.3541 0.103729 0)
(-10.0941 0.860962 0)
(-9.55705 1.56747 0)
(-8.76085 2.20079 0)
(-7.73992 2.7387 0)
(-6.53151 3.17029 0)
(-5.17896 3.48914 0)
(-3.73335 3.69924 0)
(-2.23968 3.80942 0)
(-0.735489 3.83624 0)
(0.747862 3.80112 0)
(2.15508 3.684 0)
(3.48779 3.38361 0)
(4.70808 3.04831 0)
(5.76614 2.65623 0)
(6.63172 2.19448 0)
(7.28504 1.67407 0)
(7.71282 1.11066 0)
(7.90797 0.52487 0)
(7.87273 -0.0639473 0)
(-6.41225 3.34513 0)
(-4.04244 3.65126 0)
(-1.53632 3.83871 0)
(1.02934 3.8923 0)
(3.55468 3.81172 0)
(5.70881 3.65116 0)
(7.54369 2.96945 0)
(9.076 2.21008 0)
(10.1186 1.44771 0)
(10.6426 0.7892 0)
(10.7534 0.238789 0)
(10.5726 -0.185842 0)
(10.1772 -0.513501 0)
(9.64118 -0.715983 0)
(9.04458 -0.820101 0)
(8.4422 -0.865936 0)
(7.85116 -0.903646 0)
(7.24898 -0.98493 0)
(6.61645 -1.13406 0)
(5.96416 -1.47441 0)
(5.05174 -1.98591 0)
(3.69493 -2.47804 0)
(2.0799 -2.93285 0)
(0.159216 -3.33058 0)
(-2.03566 -3.61075 0)
(-4.398 -3.71663 0)
(-6.78859 -3.61633 0)
(-9.05282 -3.29599 0)
(-11.0467 -2.76244 0)
(-12.6494 -2.04747 0)
(-13.7244 -1.27031 0)
(-14.1834 -0.369242 0)
(-14.0285 0.557494 0)
(-13.2679 1.4504 0)
(-11.9398 2.254 0)
(-10.1258 2.92963 0)
(-7.92514 3.44459 0)
(-5.45003 3.78494 0)
(-2.82969 3.95629 0)
(-0.237451 4.00076 0)
(2.38645 3.94731 0)
(4.87396 3.60606 0)
(7.00827 3.15972 0)
(8.80784 2.65109 0)
(10.2058 2.11163 0)
(11.1984 1.56685 0)
(11.7951 1.03558 0)
(12.0147 0.521568 0)
(11.902 0.0277409 0)
(11.4925 -0.448714 0)
(10.8164 -0.90713 0)
(9.90852 -1.34795 0)
(8.81906 -1.76473 0)
(7.53306 -2.169 0)
(6.01712 -2.56757 0)
(4.55558 -2.96143 0)
(2.84255 -3.32632 0)
(0.654093 -3.42167 0)
(-1.42798 -3.4377 0)
(-3.58457 -3.35868 0)
(-5.71053 -3.28529 0)
(-7.69759 -3.03325 0)
(-9.50796 -2.66378 0)
(-11.0551 -2.19512 0)
(-12.2622 -1.6415 0)
(-13.0761 -1.02302 0)
(-13.4418 -0.361591 0)
(-13.3611 0.315917 0)
(-12.8314 0.979555 0)
(-11.8711 1.59552 0)
(-10.5157 2.13776 0)
(-8.8124 2.59339 0)
(-6.82338 2.95486 0)
(-4.61944 3.22259 0)
(-2.28956 3.40444 0)
(0.0245681 3.57436 0)
(2.57321 3.70811 0)
(5.06481 3.52651 0)
(7.22571 3.23854 0)
(9.16397 2.86152 0)
(10.8148 2.4049 0)
(12.1117 1.88436 0)
(13.0103 1.31519 0)
(13.495 0.718675 0)
(13.4905 0.117906 0)
(13.032 -0.47202 0)
(12.1818 -1.04231 0)
(10.987 -1.57333 0)
(9.50971 -2.04747 0)
(7.80833 -2.45368 0)
(5.9387 -2.77997 0)
(3.96657 -3.03687 0)
(1.96212 -3.21716 0)
(-0.0999957 -3.33558 0)
(-2.29224 -3.24673 0)
(-4.31082 -3.008 0)
(-6.13817 -2.68656 0)
(-7.75093 -2.29955 0)
(-9.09137 -1.86569 0)
(-10.126 -1.40457 0)
(-10.8389 -0.93217 0)
(-11.2274 -0.46031 0)
(-11.2847 0.003186 0)
(-11.026 0.448898 0)
(-10.4763 0.865622 0)
(-9.6535 1.24112 0)
(-8.59399 1.55838 0)
(-7.33761 1.8088 0)
(-5.92844 1.9943 0)
(-4.41481 2.11681 0)
(-2.84083 2.17641 0)
(-1.2484 2.17463 0)
(0.31059 2.13116 0)
(1.78079 2.10586 0)
(3.28704 2.02493 0)
(4.65284 1.81833 0)
(5.78498 1.57371 0)
(6.73647 1.30333 0)
(7.48584 1.00749 0)
(8.00985 0.691936 0)
(8.29579 0.365607 0)
(8.34579 0.0366994 0)
(-7.7217 1.10441 0)
(-5.45805 1.21915 0)
(-2.97968 1.29251 0)
(-0.388817 1.32163 0)
(2.22987 1.30197 0)
(4.52602 1.2131 0)
(6.50919 1.07501 0)
(8.29492 0.840064 0)
(9.69303 0.581198 0)
(10.6074 0.368271 0)
(11.0789 0.179373 0)
(11.2282 0.0278619 0)
(11.1125 -0.0924619 0)
(10.799 -0.175274 0)
(10.3591 -0.228887 0)
(9.8456 -0.262202 0)
(9.2747 -0.287526 0)
(8.64261 -0.329972 0)
(7.89673 -0.407974 0)
(6.95114 -0.532038 0)
(5.8608 -0.818017 0)
(4.60285 -0.972086 0)
(2.9411 -1.09639 0)
(0.910404 -1.19747 0)
(-1.39224 -1.26992 0)
(-3.86511 -1.29056 0)
(-6.37748 -1.24866 0)
(-8.77863 -1.13712 0)
(-10.9241 -0.955992 0)
(-12.7526 -0.711587 0)
(-13.9493 -0.481415 0)
(-14.5889 -0.1843 0)
(-14.6852 0.121021 0)
(-14.1562 0.418337 0)
(-13.0458 0.6909 0)
(-11.423 0.924855 0)
(-9.35253 1.105 0)
(-6.98033 1.23453 0)
(-4.37935 1.30822 0)
(-1.65002 1.35497 0)
(0.872101 1.4746 0)
(3.19847 1.31445 0)
(5.45215 1.14636 0)
(7.45256 0.97418 0)
(9.16043 0.80163 0)
(10.5483 0.630214 0)
(11.6045 0.462293 0)
(12.3211 0.295288 0)
(12.697 0.122923 0)
(12.7353 -0.0505848 0)
(12.4356 -0.226858 0)
(11.8006 -0.401165 0)
(10.804 -0.56855 0)
(9.48057 -0.719883 0)
(7.86926 -0.851718 0)
(5.95574 -0.960644 0)
(4.09728 -1.31669 0)
(2.22512 -1.26162 0)
(0.0368553 -1.21309 0)
(-2.31064 -1.14881 0)
(-4.54414 -1.13242 0)
(-6.60414 -1.03461 0)
(-8.5648 -0.909664 0)
(-10.2776 -0.758814 0)
(-11.6718 -0.585234 0)
(-12.6927 -0.394518 0)
(-13.2987 -0.191249 0)
(-13.464 0.0191041 0)
(-13.1895 0.228498 0)
(-12.4637 0.424502 0)
(-11.3589 0.601642 0)
(-9.90994 0.759064 0)
(-8.16143 0.89435 0)
(-6.16661 1.00273 0)
(-3.96415 1.08294 0)
(-1.57214 1.1559 0)
(0.636964 1.42243 0)
(2.7842 1.26353 0)
(4.99472 1.14493 0)
(7.05034 1.01051 0)
(8.86165 0.858846 0)
(10.3796 0.693013 0)
(11.5622 0.515623 0)
(12.3719 0.335809 0)
(12.8229 0.158156 0)
(12.9143 -0.0251724 0)
(12.6124 -0.216813 0)
(11.9214 -0.408406 0)
(10.86 -0.589669 0)
(9.45676 -0.75205 0)
(7.75032 -0.887811 0)
(5.78277 -0.987808 0)
(3.58613 -1.06755 0)
(1.43153 -1.21471 0)
(-0.523958 -1.14246 0)
(-2.51157 -1.01794 0)
(-4.39447 -0.899427 0)
(-6.07597 -0.765918 0)
(-7.50714 -0.624774 0)
(-8.65805 -0.479075 0)
(-9.51229 -0.332365 0)
(-10.0638 -0.188042 0)
(-10.3129 -0.0475925 0)
(-10.2646 0.0875272 0)
(-9.93105 0.213627 0)
(-9.33628 0.327973 0)
(-8.49334 0.42505 0)
(-7.47421 0.502891 0)
(-6.30044 0.564832 0)
(-5.01379 0.610341 0)
(-3.65135 0.638513 0)
(-2.24671 0.651178 0)
(-0.82312 0.646218 0)
(0.609108 0.635308 0)
(1.87634 0.732319 0)
(3.03635 0.618428 0)
(4.14274 0.53655 0)
(5.11241 0.447769 0)
(5.90847 0.351582 0)
(6.51333 0.250627 0)
(6.91344 0.146358 0)
(7.10129 0.0427215 0)
(3.94224 74.1979 0)
(-3.10387 87.4884 0)
(-10.8083 102.074 0)
(-18.0305 117.269 0)
(-24.9042 131.477 0)
(-29.8793 142.033 0)
(-30.7683 143.782 0)
(-27.6467 137.838 0)
(-21.1783 125.822 0)
(-12.8657 109.465 0)
(-4.31299 89.0629 0)
(3.52837 65.6735 0)
(10.0008 43.0341 0)
(16.4606 23.1236 0)
(26.1469 3.20095 0)
(32.453 -17.0566 0)
(36.5112 -34.5733 0)
(35.6139 -48.2314 0)
(30.9934 -59.3083 0)
(24.1333 -69.7437 0)
(16.4076 -79.5485 0)
(8.89121 -88.6404 0)
(1.94213 -97.2501 0)
(-4.29231 -104.32 0)
(-8.90079 -107.148 0)
(-11.3233 -104.47 0)
(-12.0638 -97.8303 0)
(-11.6682 -87.6368 0)
(-10.8351 -74.1699 0)
(-10.1245 -57.838 0)
(-9.28267 -39.8269 0)
(-6.97267 -22.7705 0)
(-3.93708 -10.4821 0)
(-1.13326 1.52956 0)
(0.469884 25.0711 0)
(-0.471489 40.0489 0)
(-1.01539 52.6653 0)
(-3.18814 62.8778 0)
(-3.8585 71.8168 0)
(-3.86806 79.1531 0)
(-4.12375 84.8017 0)
(-4.36994 87.6128 0)
(-5.04471 86.1058 0)
(-4.89018 81.6561 0)
(-4.0535 74.2039 0)
(-2.86556 64.0904 0)
(-1.71721 51.9955 0)
(-1.21483 38.1943 0)
(-1.47256 24.0179 0)
(-1.26695 12.221 0)
(0.103196 5.62804 0)
(3.65584 -8.34742 0)
(4.58769 -22.8215 0)
(5.96415 -35.016 0)
(6.63664 -45.5202 0)
(7.57942 -54.2333 0)
(7.51785 -61.2656 0)
(6.83996 -66.6296 0)
(5.98725 -69.8354 0)
(5.13343 -69.4904 0)
(4.43405 -66.778 0)
(3.70496 -61.8371 0)
(2.62536 -54.7214 0)
(1.13611 -45.5858 0)
(-0.605182 -34.904 0)
(-2.15813 -23.6513 0)
(-2.9192 -13.4774 0)
(-3.05472 -6.27671 0)
(-3.19416 -0.461562 0)
(-3.3714 15.1473 0)
(-3.21633 25.3482 0)
(-3.08814 34.4797 0)
(-2.87609 42.2517 0)
(-2.59946 48.4874 0)
(-1.99999 53.1966 0)
(-1.13446 56.1383 0)
(-0.143256 56.2711 0)
(1.13044 54.4718 0)
(1.95531 50.8148 0)
(1.78067 45.3154 0)
(1.13902 38.1748 0)
(-0.00350687 29.8851 0)
(-1.24225 21.2849 0)
(-1.92162 13.4238 0)
(-2.30936 7.06674 0)
(-2.90645 -0.345393 0)
(-3.20301 -10.8737 0)
(-2.84989 -19.3305 0)
(-2.31143 -26.9349 0)
(-1.76668 -33.6434 0)
(-1.21683 -39.3791 0)
(-0.561385 -43.8136 0)
(0.406946 -46.4521 0)
(1.62676 -46.5086 0)
(2.71299 -45.013 0)
(3.52373 -41.9333 0)
(3.87866 -37.1452 0)
(3.89833 -30.9059 0)
(3.53546 -23.7951 0)
(2.71529 -16.5229 0)
(1.44804 -10.0245 0)
(0.502261 -5.07975 0)
(0.0129606 0.762111 0)
(-0.315262 8.11135 0)
(-0.907863 14.7618 0)
(-1.38289 20.9019 0)
(-1.6362 26.3264 0)
(-1.76328 30.89 0)
(-1.58859 34.5491 0)
(-1.19766 37.1173 0)
(-0.504643 37.8746 0)
(0.41005 36.9057 0)
(1.51016 34.6619 0)
(2.61108 31.1313 0)
(3.12773 26.344 0)
(2.74546 20.5401 0)
(1.98126 14.2344 0)
(1.05692 8.30849 0)
(-23.658 79.4147 0)
(-28.7589 93.9395 0)
(-34.3918 108.862 0)
(-40.1748 123.595 0)
(-44.8636 136.423 0)
(-45.6243 143.256 0)
(-41.0197 140.44 0)
(-32.2367 129.748 0)
(-19.6502 114.07 0)
(-5.54912 97.2441 0)
(7.17707 78.5463 0)
(16.7139 58.3631 0)
(31.2757 36.6162 0)
(44.0441 11.972 0)
(55.9731 -8.40968 0)
(63.8995 -24.2146 0)
(65.0789 -35.7818 0)
(59.786 -43.6678 0)
(51.0759 -51.3044 0)
(40.1649 -59.8217 0)
(29.121 -69.3757 0)
(18.8417 -79.2687 0)
(9.45987 -88.9126 0)
(1.04429 -97.3 0)
(-5.93338 -102.349 0)
(-10.9773 -101.418 0)
(-14.5866 -96.0609 0)
(-17.2216 -86.5074 0)
(-19.0968 -73.346 0)
(-20.0989 -57.7201 0)
(-19.6547 -41.5871 0)
(-17.4336 -27.0667 0)
(-17.2262 -13.5707 0)
(-17.5626 3.81945 0)
(-17.7798 23.044 0)
(-15.3957 39.5728 0)
(-14.1083 52.8979 0)
(-13.5866 63.5031 0)
(-12.6882 72.2353 0)
(-13.0533 79.5139 0)
(-14.3328 84.8891 0)
(-12.6152 86.7191 0)
(-10.7528 84.825 0)
(-8.61241 79.9952 0)
(-4.58555 72.6256 0)
(-2.37686 62.8186 0)
(0.00378094 51.2955 0)
(2.81915 37.9454 0)
(4.87074 23.733 0)
(7.86182 10.9391 0)
(13.4115 1.0666 0)
(20.9846 -14.4783 0)
(27.1788 -26.5666 0)
(26.9006 -36.6351 0)