/*--------------------------------*- C++ -*----------------------------------*\
| =========                 |                                                 |
| \\      /  F ield         | OpenFOAM: The Open Source CFD Toolbox           |
|  \\    /   O peration     | Version:  2206                                  |
|   \\  /    A nd           | Website:  www.openfoam.com                      |
|    \\/     M anipulation  |                                                 |
\*---------------------------------------------------------------------------*/
FoamFile
{
    version     2.0;
    format      ascii;
    arch        "LSB;label=32;scalar=64";
    class       volVectorField;
    location    "18.3";
    object      U_0;
}
// * * * * * * * * * * * * * * * * * * * * * * * * * * * * * * * * * * * * * //

dimensions      [0 1 -1 0 0 0 0];

internalField   nonuniform List<vector> 
3037
(
(1.47762 0.000195793 0)
(1.4777 0.000586441 0)
(1.47788 0.000973299 0)
(1.47816 0.00135313 0)
(1.47853 0.00172324 0)
(1.47898 0.00208149 0)
(1.47952 0.00242606 0)
(1.48013 0.00275549 0)
(1.48082 0.00306863 0)
(1.48157 0.00336474 0)
(1.48239 0.00364335 0)
(1.48327 0.00390427 0)
(1.48421 0.00414748 0)
(1.4852 0.00437314 0)
(1.48623 0.0045815 0)
(1.4873 0.00477288 0)
(1.48842 0.00494766 0)
(1.48957 0.00510621 0)
(1.49075 0.0052489 0)
(1.49196 0.00537608 0)
(1.49319 0.00548807 0)
(1.49444 0.00558517 0)
(1.49572 0.00566762 0)
(1.497 0.00573564 0)
(1.4983 0.00578942 0)
(1.49962 0.00582913 0)
(1.50093 0.00585492 0)
(1.50226 0.00586695 0)
(1.50358 0.00586526 0)
(1.5049 0.00585009 0)
(1.50622 0.00582151 0)
(1.50754 0.00577967 0)
(1.50884 0.00572467 0)
(1.51013 0.00565673 0)
(1.51141 0.00557595 0)
(1.51268 0.00548255 0)
(1.51392 0.00537664 0)
(1.51514 0.00525842 0)
(1.51633 0.005128 0)
(1.5175 0.00498549 0)
(1.51864 0.00483098 0)
(1.51975 0.00466449 0)
(1.52082 0.00448598 0)
(1.52185 0.00429536 0)
(1.52284 0.00409236 0)
(1.52379 0.00387678 0)
(1.52469 0.00364799 0)
(1.52554 0.00340566 0)
(1.52634 0.00314863 0)
(1.52709 0.00287648 0)
(1.52777 0.00258734 0)
(1.5284 0.00228063 0)
(1.52896 0.00195371 0)
(1.52944 0.00160569 0)
(1.52986 0.00123359 0)
(1.5302 0.000835792 0)
(1.53045 0.000410561 0)
(1.53062 -4.61208e-05 0)
(1.53069 -0.000540067 0)
(1.53065 -0.00107481 0)
(1.53051 -0.00165544 0)
(1.53024 -0.00228762 0)
(1.52985 -0.00297778 0)
(1.52931 -0.00373334 0)
(1.52862 -0.00456281 0)
(1.52776 -0.00547593 0)
(1.52672 -0.00648388 0)
(1.52547 -0.00759945 0)
(1.52399 -0.00883745 0)
(1.52227 -0.0102149 0)
(1.52027 -0.0117518 0)
(1.51796 -0.0134709 0)
(1.51531 -0.0153994 0)
(1.51228 -0.0175688 0)
(1.50881 -0.0200162 0)
(1.50487 -0.0227853 0)
(1.50037 -0.0259284 0)
(1.49527 -0.0295074 0)
(1.48947 -0.0335966 0)
(1.48289 -0.0382858 0)
(1.47541 -0.0436834 0)
(1.46692 -0.0499218 0)
(1.45727 -0.0571634 0)
(1.4463 -0.0656089 0)
(1.43382 -0.0755079 0)
(1.41959 -0.0871733 0)
(1.40337 -0.101001 0)
(1.38484 -0.117494 0)
(1.36366 -0.137303 0)
(1.3394 -0.161271 0)
(1.31158 -0.190506 0)
(1.2796 -0.226494 0)
(1.24273 -0.271214 0)
(1.20001 -0.327513 0)
(1.15005 -0.399045 0)
(1.09037 -0.492452 0)
(1.01759 -0.613799 0)
(0.911868 -0.788886 0)
(0.797511 -1.01992 0)
(0.281273 -1.62618 0)
(1.47762 0.000149622 0)
(1.47769 0.000448252 0)
(1.47787 0.000744208 0)
(1.47814 0.00103511 0)
(1.4785 0.001319 0)
(1.47894 0.00159428 0)
(1.47946 0.00185961 0)
(1.48006 0.00211384 0)
(1.48073 0.0023561 0)
(1.48147 0.00258574 0)
(1.48228 0.00280237 0)
(1.48314 0.00300575 0)
(1.48406 0.00319581 0)
(1.48503 0.00337259 0)
(1.48604 0.00353618 0)
(1.4871 0.00368678 0)
(1.4882 0.00382457 0)
(1.48934 0.00394979 0)
(1.4905 0.00406263 0)
(1.4917 0.00416332 0)
(1.49292 0.00425204 0)
(1.49416 0.00432895 0)
(1.49542 0.00439422 0)
(1.49669 0.00444797 0)
(1.49798 0.00449032 0)
(1.49928 0.00452139 0)
(1.50059 0.00454128 0)
(1.5019 0.00455012 0)
(1.50321 0.00454792 0)
(1.50452 0.00453492 0)
(1.50583 0.00451116 0)
(1.50714 0.00447685 0)
(1.50843 0.004432 0)
(1.50971 0.00437692 0)
(1.51098 0.00431161 0)
(1.51223 0.00423641 0)
(1.51346 0.00415127 0)
(1.51467 0.00405659 0)
(1.51586 0.00395226 0)
(1.51701 0.00383864 0)
(1.51814 0.00371554 0)
(1.51923 0.0035833 0)
(1.52029 0.00344155 0)
(1.52131 0.00329061 0)
(1.52229 0.00312984 0)
(1.52322 0.00295955 0)
(1.52411 0.00277862 0)
(1.52495 0.00258752 0)
(1.52574 0.00238435 0)
(1.52646 0.00216994 0)
(1.52714 0.00194123 0)
(1.52774 0.00169962 0)
(1.52828 0.0014405 0)
(1.52875 0.00116601 0)
(1.52914 0.000869901 0)
(1.52945 0.000555283 0)
(1.52968 0.000215323 0)
(1.52981 -0.00014535 0)
(1.52985 -0.000537712 0)
(1.52978 -0.000962917 0)
(1.52959 -0.00142521 0)
(1.52928 -0.00192935 0)
(1.52883 -0.00248036 0)
(1.52823 -0.00308404 0)
(1.52747 -0.00374718 0)
(1.52653 -0.00447769 0)
(1.52539 -0.00528457 0)
(1.52404 -0.00617817 0)
(1.52245 -0.00717039 0)
(1.52059 -0.00827507 0)
(1.51844 -0.00950822 0)
(1.51595 -0.0108885 0)
(1.5131 -0.0124379 0)
(1.50983 -0.014182 0)
(1.50609 -0.0161511 0)
(1.50183 -0.0183812 0)
(1.49697 -0.0209149 0)
(1.49143 -0.0238035 0)
(1.48513 -0.0271085 0)
(1.47794 -0.0309044 0)
(1.46976 -0.0352817 0)
(1.46042 -0.0403516 0)
(1.44975 -0.0462511 0)
(1.43755 -0.0531502 0)
(1.42357 -0.061262 0)
(1.40752 -0.070855 0)
(1.38904 -0.0822706 0)
(1.36771 -0.0959461 0)
(1.34301 -0.112447 0)
(1.31431 -0.132508 0)
(1.28081 -0.157096 0)
(1.24149 -0.187484 0)
(1.19505 -0.225365 0)
(1.13969 -0.272985 0)
(1.07289 -0.333327 0)
(0.990725 -0.410269 0)
(0.887146 -0.508542 0)
(0.752621 -0.634463 0)
(0.570863 -0.789546 0)
(0.272397 -0.914467 0)
(1.47762 0.000104663 0)
(1.47769 0.000313663 0)
(1.47786 0.000520989 0)
(1.47813 0.000725052 0)
(1.47848 0.000924548 0)
(1.47891 0.00111842 0)
(1.47942 0.00130574 0)
(1.48001 0.00148572 0)
(1.48067 0.00165774 0)
(1.4814 0.00182132 0)
(1.48219 0.00197613 0)
(1.48304 0.00212196 0)
(1.48395 0.00225871 0)
(1.4849 0.00238632 0)
(1.48591 0.0025048 0)
(1.48696 0.0026142 0)
(1.48804 0.00271457 0)
(1.48917 0.00280601 0)
(1.49032 0.00288858 0)
(1.49151 0.00296237 0)
(1.49272 0.00302743 0)
(1.49395 0.00308383 0)
(1.4952 0.00313162 0)
(1.49646 0.00317085 0)
(1.49774 0.00320157 0)
(1.49903 0.00322384 0)
(1.50033 0.00323769 0)
(1.50163 0.00324326 0)
(1.50294 0.00324049 0)
(1.50424 0.00322964 0)
(1.50554 0.00321067 0)
(1.50684 0.00318387 0)
(1.50812 0.0031492 0)
(1.50939 0.003107 0)
(1.51066 0.00305719 0)
(1.5119 0.00300021 0)
(1.51312 0.00293592 0)
(1.51432 0.00286482 0)
(1.5155 0.00278666 0)
(1.51664 0.00270199 0)
(1.51776 0.00261043 0)
(1.51885 0.00251256 0)
(1.5199 0.00240777 0)
(1.52091 0.00229672 0)
(1.52188 0.00217847 0)
(1.5228 0.00205377 0)
(1.52368 0.0019212 0)
(1.5245 0.00178178 0)
(1.52528 0.00163325 0)
(1.526 0.00147723 0)
(1.52666 0.00131011 0)
(1.52725 0.00113457 0)
(1.52778 0.000945024 0)
(1.52822 0.000745619 0)
(1.5286 0.000528108 0)
(1.52889 0.00029896 0)
(1.5291 4.70653e-05 0)
(1.52921 -0.000215235 0)
(1.52922 -0.000503669 0)
(1.52911 -0.000815794 0)
(1.52889 -0.00115487 0)
(1.52854 -0.00152514 0)
(1.52805 -0.00193058 0)
(1.5274 -0.00237534 0)
(1.52659 -0.00286433 0)
(1.52558 -0.00340331 0)
(1.52438 -0.00399889 0)
(1.52295 -0.00465864 0)
(1.52126 -0.00539132 0)
(1.5193 -0.00620707 0)
(1.51703 -0.00711771 0)
(1.51441 -0.00813702 0)
(1.51139 -0.00928117 0)
(1.50794 -0.0105692 0)
(1.50399 -0.0120236 0)
(1.49948 -0.0136711 0)
(1.49433 -0.0155436 0)
(1.48846 -0.0176794 0)
(1.48176 -0.0201245 0)
(1.4741 -0.022935 0)
(1.46536 -0.0261793 0)
(1.45535 -0.0299413 0)
(1.44387 -0.0343254 0)
(1.4307 -0.0394612 0)
(1.41552 -0.0455118 0)
(1.398 -0.0526836 0)
(1.3777 -0.0612396 0)
(1.3541 -0.0715179 0)
(1.32654 -0.0839551 0)
(1.29422 -0.0991183 0)
(1.25609 -0.117746 0)
(1.21084 -0.1408 0)
(1.15677 -0.169518 0)
(1.09161 -0.205481 0)
(1.01232 -0.250578 0)
(0.91477 -0.307026 0)
(0.7929 -0.376887 0)
(0.638482 -0.461413 0)
(0.434919 -0.558754 0)
(0.158917 -0.67323 0)
(1.47762 6.05619e-05 0)
(1.47769 0.00018159 0)
(1.47786 0.00030187 0)
(1.47812 0.000420555 0)
(1.47847 0.000536952 0)
(1.47889 0.000650501 0)
(1.4794 0.000760706 0)
(1.47998 0.000867125 0)
(1.48063 0.000969388 0)
(1.48135 0.0010672 0)
(1.48213 0.00116034 0)
(1.48297 0.00124865 0)
(1.48387 0.00133198 0)
(1.48482 0.00141025 0)
(1.48582 0.00148337 0)
(1.48686 0.00155129 0)
(1.48794 0.00161394 0)
(1.48905 0.0016713 0)
(1.4902 0.00172329 0)
(1.49138 0.00176988 0)
(1.49258 0.00181103 0)
(1.49381 0.00184667 0)
(1.49505 0.00187677 0)
(1.49631 0.0019013 0)
(1.49759 0.00192023 0)
(1.49887 0.00193357 0)
(1.50016 0.00194131 0)
(1.50146 0.00194353 0)
(1.50276 0.00194017 0)
(1.50405 0.00193144 0)
(1.50535 0.00191726 0)
(1.50664 0.00189797 0)
(1.50792 0.0018735 0)
(1.50918 0.00184419 0)
(1.51044 0.00180993 0)
(1.51167 0.00177121 0)
(1.51289 0.00172782 0)
(1.51408 0.00168035 0)
(1.51526 0.00162845 0)
(1.5164 0.0015728 0)
(1.51751 0.00151289 0)
(1.51859 0.00144947 0)
(1.51963 0.00138184 0)
(1.52063 0.0013108 0)
(1.5216 0.00123536 0)
(1.52251 0.00115645 0)
(1.52339 0.00107267 0)
(1.52421 0.000985189 0)
(1.52498 0.000891937 0)
(1.52568 0.000794658 0)
(1.52634 0.000690023 0)
(1.52691 0.000581136 0)
(1.52744 0.00046232 0)
(1.52787 0.000339138 0)
(1.52824 0.000202052 0)
(1.52851 6.072e-05 0)
(1.5287 -0.000102052 0)
(1.52879 -0.000261 0)
(1.52878 -0.000442514 0)
(1.52866 -0.000639859 0)
(1.52842 -0.000854064 0)
(1.52804 -0.00108781 0)
(1.52752 -0.00134371 0)
(1.52684 -0.00162449 0)
(1.52598 -0.00193329 0)
(1.52494 -0.00227373 0)
(1.52369 -0.00264993 0)
(1.5222 -0.0030666 0)
(1.52045 -0.00352913 0)
(1.51842 -0.00404377 0)
(1.51606 -0.00461778 0)
(1.51335 -0.00525964 0)
(1.51022 -0.0059793 0)
(1.50665 -0.00678851 0)
(1.50255 -0.0077012 0)
(1.49787 -0.00873391 0)
(1.49252 -0.00990644 0)
(1.48642 -0.0112426 0)
(1.47944 -0.012771 0)
(1.47146 -0.0145267 0)
(1.46232 -0.0165523 0)
(1.45184 -0.0189007 0)
(1.43981 -0.0216371 0)
(1.42594 -0.0248432 0)
(1.40993 -0.028622 0)
(1.39138 -0.0331037 0)
(1.3698 -0.0384548 0)
(1.3446 -0.0448889 0)
(1.31503 -0.052682 0)
(1.28015 -0.0621908 0)
(1.23877 -0.0738762 0)
(1.18938 -0.0883295 0)
(1.13006 -0.106296 0)
(1.05833 -0.128682 0)
(0.971059 -0.156519 0)
(0.864346 -0.19082 0)
(0.733338 -0.232213 0)
(0.572793 -0.279675 0)
(0.376632 -0.331052 0)
(0.140721 -0.345127 0)
(1.47812 0.000119373 0)
(1.47846 0.000153453 0)
(1.47888 0.000187352 0)
(1.47938 0.000220987 0)
(1.47996 0.000254261 0)
(1.48061 0.000287072 0)
(1.48132 0.000319317 0)
(1.4821 0.000350889 0)
(1.48294 0.000381671 0)
(1.48383 0.000411539 0)
(1.48478 0.000440355 0)
(1.48577 0.000467972 0)
(1.48681 0.000494237 0)
(1.48788 0.000518988 0)
(1.489 0.00054206 0)
(1.49014 0.000563288 0)
(1.49131 0.000582507 0)
(1.49251 0.000599559 0)
(1.49374 0.000614293 0)
(1.49498 0.000626576 0)
(1.49623 0.000636293 0)
(1.4975 0.000643351 0)
(1.49879 0.000647686 0)
(1.50008 0.000649258 0)
(1.50137 0.000648069 0)
(1.50267 0.00064411 0)
(1.50396 0.000637476 0)
(1.50525 0.000628162 0)
(1.50653 0.000616389 0)
(1.50781 0.000602145 0)
(1.50908 0.000585735 0)
(1.51033 0.000567096 0)
(1.51156 0.000546644 0)
(1.51278 0.000524253 0)
(1.51397 0.000500404 0)
(1.51514 0.0004749 0)
(1.51627 0.000448254 0)
(1.51738 0.000420187 0)
(1.51845 0.000391214 0)
(1.5195 0.000360959 0)
(1.52049 0.000329928 0)
(1.52146 0.000297597 0)
(1.52237 0.000264508 0)
(1.52324 0.00022989 0)
(1.52405 0.000194425 0)
(1.52482 0.000156954 0)
(1.52552 0.000118441 0)
(1.52617 7.71507e-05 0)
(1.52674 3.46213e-05 0)
(1.52726 -1.19895e-05 0)
(1.52768 -5.97619e-05 0)
(1.52805 -0.000113789 0)
(1.52831 -0.000168861 0)
(1.5285 -0.000234372 0)
(1.52858 -0.000304504 0)
(1.52855 -0.000370358 0)
(1.52842 -0.000447011 0)
(1.52816 -0.000531928 0)
(1.52777 -0.000625755 0)
(1.52723 -0.000729304 0)
(1.52654 -0.000843442 0)
(1.52566 -0.000969181 0)
(1.5246 -0.00110772 0)
(1.52332 -0.00126048 0)
(1.5218 -0.00142913 0)
(1.52002 -0.00161555 0)
(1.51795 -0.00182192 0)
(1.51555 -0.00205073 0)
(1.51279 -0.00230493 0)
(1.50961 -0.002588 0)
(1.50596 -0.00290407 0)
(1.50179 -0.00325804 0)
(1.49702 -0.00365572 0)
(1.49157 -0.00410404 0)
(1.48534 -0.00461132 0)
(1.47822 -0.0051876 0)
(1.47007 -0.00584511 0)
(1.46073 -0.00659884 0)
(1.45001 -0.00746728 0)
(1.43768 -0.00847339 0)
(1.42346 -0.00964589 0)
(1.40701 -0.0110209 0)
(1.38792 -0.0126442 0)
(1.36567 -0.0145742 0)
(1.33963 -0.0168858 0)
(1.30901 -0.0196752 0)
(1.2728 -0.0230667 0)
(1.22974 -0.0272195 0)
(1.17823 -0.0323362 0)
(1.11624 -0.0386678 0)
(1.04123 -0.0465133 0)
(0.950093 -0.0561953 0)
(0.83914 -0.0680048 0)
(0.704158 -0.082018 0)
(0.541494 -0.0979083 0)
(0.346515 -0.113761 0)
(0.12139 -0.127701 0)
(1.46038 0.00805955 0)
(1.4504 0.0150182 0)
(1.43245 0.0175708 0)
(1.40884 0.0186411 0)
(1.38392 0.0193444 0)
(1.35904 0.0198309 0)
(1.33403 0.0201217 0)
(1.30867 0.0202639 0)
(1.28304 0.0203164 0)
(1.25724 0.0203096 0)
(1.23138 0.0202495 0)
(1.20548 0.0201317 0)
(1.17959 0.0199693 0)
(1.15374 0.0197793 0)
(1.12794 0.0195687 0)
(1.10222 0.019338 0)
(1.07658 0.0190873 0)
(1.05105 0.0188182 0)
(1.02564 0.018535 0)
(1.00038 0.0182397 0)
(0.975288 0.0179323 0)
(0.950373 0.0176136 0)
(0.925658 0.0172821 0)
(0.901162 0.0169397 0)
(0.876897 0.0165885 0)
(0.8529 0.0162394 0)
(0.829138 0.0159067 0)
(0.805441 0.0155504 0)
(0.782284 0.0151299 0)
(0.759516 0.0146517 0)
(0.737165 0.0141322 0)
(0.715312 0.0135786 0)
(0.694008 0.0129941 0)
(0.67329 0.0123822 0)
(0.653195 0.0117464 0)
(0.633764 0.0110902 0)
(0.615035 0.0104162 0)
(0.597042 0.00972532 0)
(0.579817 0.00901908 0)
(0.563394 0.00830275 0)
(0.547797 0.00757098 0)
(0.533077 0.00682292 0)
(0.519232 0.00609061 0)
(0.506263 0.00538383 0)
(0.494172 0.00470079 0)
(0.482963 0.00403944 0)
(0.472633 0.0034 0)
(0.463171 0.00278474 0)
(0.454568 0.00219639 0)
(0.446801 0.00163765 0)
(0.439853 0.00110928 0)
(0.433691 0.000610721 0)
(0.428302 0.000154588 0)
(0.423636 -0.000266972 0)
(0.419689 -0.00066408 0)
(0.416404 -0.00103545 0)
(0.413799 -0.00137963 0)
(0.411789 -0.00170342 0)
(0.410446 -0.00199333 0)
(0.40963 -0.00230865 0)
(0.409534 -0.00255738 0)
(0.409963 -0.0028589 0)
(0.411038 -0.00324467 0)
(0.412744 -0.0035625 0)
(0.415062 -0.0038459 0)
(0.417968 -0.00411061 0)
(0.421491 -0.00436851 0)
(0.425617 -0.00464025 0)
(0.430377 -0.00490925 0)
(0.435796 -0.0051775 0)
(0.441901 -0.00546124 0)
(0.448725 -0.00576496 0)
(0.456309 -0.00609743 0)
(0.464704 -0.00646732 0)
(0.473963 -0.00686749 0)
(0.484146 -0.00729959 0)
(0.495313 -0.00776601 0)
(0.507532 -0.00826817 0)
(0.52087 -0.00880657 0)
(0.535395 -0.00938079 0)
(0.551176 -0.00998982 0)
(0.568278 -0.0106319 0)
(0.586766 -0.0113042 0)
(0.606699 -0.0120018 0)
(0.628131 -0.0127206 0)
(0.651116 -0.0134586 0)
(0.675698 -0.0142111 0)
(0.701914 -0.0149704 0)
(0.729783 -0.0157249 0)
(0.75931 -0.016454 0)
(0.790459 -0.0171326 0)
(0.823163 -0.0177403 0)
(0.857259 -0.0182748 0)
(0.892684 -0.018742 0)
(0.929342 -0.0191026 0)
(0.966779 -0.0192923 0)
(1.00476 -0.0192791 0)
(1.04301 -0.0190557 0)
(1.08113 -0.0186101 0)
(1.11884 -0.0179553 0)
(1.47997 0.0115905 0)
(1.48684 0.0210988 0)
(1.49478 0.0247818 0)
(1.49733 0.0265039 0)
(1.49839 0.0277695 0)
(1.49892 0.0288243 0)
(1.49884 0.0294996 0)
(1.49803 0.030063 0)
(1.49655 0.0304437 0)
(1.49446 0.0307704 0)
(1.49183 0.0310618 0)
(1.48868 0.0312735 0)
(1.48508 0.0314315 0)
(1.48104 0.0315686 0)
(1.47656 0.031691 0)
(1.47166 0.0317953 0)
(1.46635 0.0318784 0)
(1.46066 0.0319356 0)
(1.45458 0.0319673 0)
(1.44814 0.031976 0)
(1.44135 0.0319616 0)
(1.43422 0.0319217 0)
(1.42676 0.0318566 0)
(1.41898 0.0317673 0)
(1.41091 0.0316555 0)
(1.40255 0.0315223 0)
(1.39393 0.0313697 0)
(1.3851 0.0311673 0)
(1.37605 0.0308841 0)
(1.3668 0.0305298 0)
(1.35735 0.0301154 0)
(1.34773 0.0296421 0)
(1.33796 0.0291089 0)
(1.32807 0.028516 0)
(1.31809 0.027864 0)
(1.30804 0.0271565 0)
(1.29795 0.0263975 0)
(1.28784 0.0255867 0)
(1.27775 0.0247242 0)
(1.26768 0.0238126 0)
(1.25771 0.0228563 0)
(1.24774 0.0218555 0)
(1.23791 0.0208242 0)
(1.22823 0.0197586 0)
(1.21872 0.0186689 0)
(1.20941 0.017563 0)
(1.20033 0.0164477 0)
(1.1915 0.0153291 0)
(1.18295 0.0142157 0)
(1.17468 0.0131117 0)
(1.16673 0.0120241 0)
(1.15909 0.0109524 0)
(1.15181 0.00990421 0)
(1.14487 0.00887487 0)
(1.13833 0.00787274 0)
(1.13213 0.00688676 0)
(1.12638 0.00592742 0)
(1.121 0.00497856 0)
(1.11609 0.00405004 0)
(1.11159 0.00311975 0)
(1.10757 0.00219427 0)
(1.10398 0.0012606 0)
(1.10087 0.000323164 0)
(1.09824 -0.000623732 0)
(1.09612 -0.0015968 0)
(1.09462 -0.00258058 0)
(1.09374 -0.00361538 0)
(1.09352 -0.00459363 0)
(1.09395 -0.00566365 0)
(1.0951 -0.00678596 0)
(1.09702 -0.00795814 0)
(1.09975 -0.0091877 0)
(1.10334 -0.0104831 0)
(1.10784 -0.011852 0)
(1.1133 -0.013302 0)
(1.11978 -0.0148398 0)
(1.12733 -0.0164712 0)
(1.13603 -0.0181998 0)
(1.14592 -0.0200275 0)
(1.15708 -0.0219542 0)
(1.16957 -0.0239782 0)
(1.18345 -0.0260982 0)
(1.19877 -0.0283121 0)
(1.21559 -0.0306147 0)
(1.234 -0.0329998 0)
(1.25404 -0.0354603 0)
(1.27577 -0.0379846 0)
(1.29921 -0.0405567 0)
(1.32439 -0.043162 0)
(1.35136 -0.0457477 0)
(1.38005 -0.0482471 0)
(1.41042 -0.0505843 0)
(1.44228 -0.0527009 0)
(1.47547 -0.054593 0)
(1.50984 -0.056206 0)
(1.54523 -0.0574399 0)
(1.58149 -0.0582257 0)
(1.6184 -0.0585315 0)
(1.6557 -0.058345 0)
(1.6933 -0.0576521 0)
(1.4785 0.00539773 0)
(1.48172 0.0117501 0)
(1.48624 0.0151374 0)
(1.49045 0.0175853 0)
(1.49389 0.0196827 0)
(1.49686 0.0214498 0)
(1.49974 0.0229345 0)
(1.50221 0.0241303 0)
(1.50459 0.0251614 0)
(1.50653 0.0260411 0)
(1.50862 0.0268398 0)
(1.51037 0.0275682 0)
(1.51184 0.0282344 0)
(1.51314 0.0288469 0)
(1.51427 0.0294116 0)
(1.51524 0.0299309 0)
(1.51605 0.0304113 0)
(1.51673 0.0308641 0)
(1.51725 0.0312809 0)
(1.51763 0.03166 0)
(1.51788 0.0319977 0)
(1.51799 0.0323175 0)
(1.51795 0.0325814 0)
(1.51778 0.0328259 0)
(1.51746 0.0330434 0)
(1.51699 0.0332611 0)
(1.51639 0.0334154 0)
(1.51568 0.0334576 0)
(1.51484 0.0334207 0)
(1.51386 0.0333172 0)
(1.51273 0.033147 0)
(1.51145 0.0329081 0)
(1.51003 0.0325979 0)
(1.50846 0.0322144 0)
(1.50675 0.031756 0)
(1.50491 0.0312222 0)
(1.50294 0.0306165 0)
(1.50084 0.0299448 0)
(1.49861 0.0292091 0)
(1.49626 0.0284114 0)
(1.49381 0.0275572 0)
(1.49126 0.0266512 0)
(1.48863 0.0256945 0)
(1.48591 0.0246913 0)
(1.48313 0.0236476 0)
(1.48028 0.0225674 0)
(1.4774 0.0214558 0)
(1.47448 0.0203213 0)
(1.47155 0.0191731 0)
(1.46863 0.0180178 0)
(1.46572 0.0168602 0)
(1.46285 0.015703 0)
(1.46002 0.0145492 0)
(1.45726 0.0133993 0)
(1.45459 0.0122535 0)
(1.45201 0.0111101 0)
(1.44955 0.00996859 0)
(1.44722 0.00882613 0)
(1.44505 0.00765602 0)
(1.44304 0.00646676 0)
(1.44121 0.00525007 0)
(1.4396 0.00402786 0)
(1.4382 0.00275913 0)
(1.43707 0.0014683 0)
(1.43617 0.000110384 0)
(1.43555 -0.0012845 0)
(1.43523 -0.00273721 0)
(1.43526 -0.00426696 0)
(1.43567 -0.00587349 0)
(1.4365 -0.00756594 0)
(1.43777 -0.00935607 0)
(1.43953 -0.0112553 0)
(1.4418 -0.0132745 0)
(1.44465 -0.0154247 0)
(1.44811 -0.0177155 0)
(1.45224 -0.0201557 0)
(1.45708 -0.0227525 0)
(1.4627 -0.0255121 0)
(1.46916 -0.0284366 0)
(1.47651 -0.0315248 0)
(1.48482 -0.034771 0)
(1.49413 -0.0381718 0)
(1.50452 -0.0417326 0)
(1.51604 -0.0454517 0)
(1.52879 -0.0493152 0)
(1.54278 -0.0533011 0)
(1.55808 -0.0573863 0)
(1.57474 -0.0615477 0)
(1.59283 -0.0657833 0)
(1.61229 -0.0699951 0)
(1.63317 -0.0740871 0)
(1.65535 -0.0779179 0)
(1.67882 -0.0813552 0)
(1.70361 -0.0844401 0)
(1.72974 -0.087147 0)
(1.75718 -0.0893677 0)
(1.78579 -0.0909955 0)
(1.8154 -0.0919538 0)
(1.84578 -0.0921963 0)
(1.87667 -0.0916648 0)
(1.47803 0.00331134 0)
(1.47982 0.00904962 0)
(1.48292 0.0132619 0)
(1.48625 0.0163963 0)
(1.48915 0.0188359 0)
(1.49177 0.0208107 0)
(1.49432 0.0224151 0)
(1.49681 0.0237251 0)
(1.49919 0.0248203 0)
(1.50142 0.0257587 0)
(1.50354 0.0265538 0)
(1.50558 0.0272724 0)
(1.50757 0.0279462 0)
(1.50952 0.0285595 0)
(1.51142 0.0291092 0)
(1.51327 0.0296014 0)
(1.51506 0.0300519 0)
(1.51681 0.0304568 0)
(1.51852 0.0308194 0)
(1.5202 0.0311535 0)
(1.52185 0.0314633 0)
(1.52346 0.0317324 0)
(1.52507 0.0319734 0)
(1.52665 0.0321833 0)
(1.52822 0.0323629 0)
(1.5299 0.0325074 0)
(1.5315 0.0326177 0)
(1.53305 0.032681 0)
(1.53457 0.0326864 0)
(1.53604 0.0326289 0)
(1.53745 0.0325055 0)
(1.5388 0.032316 0)
(1.54009 0.0320601 0)
(1.54131 0.0317371 0)
(1.54247 0.0313392 0)
(1.54354 0.030899 0)
(1.54452 0.0304114 0)
(1.54544 0.0298325 0)
(1.54627 0.0291859 0)
(1.54703 0.0284791 0)
(1.5477 0.0277168 0)
(1.54829 0.026901 0)
(1.5488 0.0260326 0)
(1.54922 0.0251175 0)
(1.54956 0.0241657 0)
(1.5498 0.0231728 0)
(1.54998 0.0221339 0)
(1.55008 0.0210584 0)
(1.55013 0.0199578 0)
(1.55013 0.0188397 0)
(1.55007 0.0177079 0)
(1.54997 0.0165654 0)
(1.54983 0.0154138 0)
(1.54968 0.0142508 0)
(1.54951 0.0130735 0)
(1.54935 0.0118812 0)
(1.5492 0.0106757 0)
(1.54909 0.00945396 0)
(1.54901 0.00821037 0)
(1.54899 0.00693864 0)
(1.54903 0.00563226 0)
(1.54915 0.00428362 0)
(1.54936 0.00288325 0)
(1.54967 0.00142675 0)
(1.55011 -0.000100179 0)
(1.55069 -0.00169261 0)
(1.55142 -0.00336349 0)
(1.55232 -0.00512175 0)
(1.55341 -0.00698237 0)
(1.55473 -0.00896041 0)
(1.5563 -0.0110685 0)
(1.55813 -0.0133185 0)
(1.56027 -0.0157225 0)
(1.56275 -0.0182935 0)
(1.5656 -0.0210438 0)
(1.56886 -0.0239863 0)
(1.57258 -0.0271311 0)
(1.57679 -0.0304908 0)
(1.58156 -0.0340702 0)
(1.58694 -0.0378726 0)
(1.59298 -0.0418847 0)
(1.59974 -0.0460961 0)
(1.60729 -0.0505324 0)
(1.61574 -0.0552045 0)
(1.62517 -0.0600967 0)
(1.63567 -0.0651794 0)
(1.64732 -0.0704195 0)
(1.66018 -0.0757763 0)
(1.67431 -0.08119 0)
(1.68925 -0.0865904 0)
(1.70609 -0.0919043 0)
(1.72369 -0.0970579 0)
(1.7439 -0.101982 0)
(1.76573 -0.106584 0)
(1.78905 -0.110737 0)
(1.81386 -0.114301 0)
(1.84003 -0.117139 0)
(1.86741 -0.119132 0)
(1.89578 -0.120177 0)
(1.92491 -0.12019 0)
(1.47783 0.00242921 0)
(1.47886 0.00703013 0)
(1.48087 0.0107078 0)
(1.48326 0.0135046 0)
(1.4856 0.0157197 0)
(1.48783 0.0175709 0)
(1.49004 0.0191407 0)
(1.49224 0.0204676 0)
(1.49437 0.0215949 0)
(1.49644 0.0225725 0)
(1.49844 0.0234381 0)
(1.5004 0.0242282 0)
(1.50232 0.0249541 0)
(1.50422 0.0256175 0)
(1.5061 0.0262224 0)
(1.50798 0.0267781 0)
(1.50984 0.0272916 0)
(1.51169 0.0277678 0)
(1.51355 0.0282064 0)
(1.51541 0.0286075 0)
(1.51726 0.0289696 0)
(1.51913 0.0293028 0)
(1.52099 0.0295996 0)
(1.52285 0.0298568 0)
(1.52471 0.0300646 0)
(1.52655 0.0302327 0)
(1.52841 0.0303769 0)
(1.53028 0.0304845 0)
(1.53217 0.0305387 0)
(1.53404 0.0305324 0)
(1.53592 0.0304636 0)
(1.53776 0.0303341 0)
(1.5396 0.03014 0)
(1.54139 0.0298838 0)
(1.54317 0.02956 0)
(1.5449 0.0291765 0)
(1.54661 0.0287243 0)
(1.54826 0.0282128 0)
(1.54988 0.0276331 0)
(1.55143 0.0269998 0)
(1.55295 0.0262928 0)
(1.55438 0.0255434 0)
(1.55579 0.0247314 0)
(1.55711 0.0238849 0)
(1.55842 0.0229913 0)
(1.55972 0.0220577 0)
(1.5609 0.0210892 0)
(1.562 0.0200904 0)
(1.56304 0.0190648 0)
(1.564 0.0180156 0)
(1.56491 0.0169456 0)
(1.56576 0.0158579 0)
(1.56657 0.0147562 0)
(1.56733 0.0136366 0)
(1.56807 0.0124886 0)
(1.5688 0.0113108 0)
(1.56953 0.0101092 0)
(1.57025 0.00888316 0)
(1.57098 0.00762458 0)
(1.57173 0.00632527 0)
(1.5725 0.00497839 0)
(1.57331 0.00357772 0)
(1.57417 0.00211653 0)
(1.57508 0.000589492 0)
(1.57606 -0.00100855 0)
(1.57711 -0.0026978 0)
(1.57826 -0.0044855 0)
(1.5795 -0.00638179 0)
(1.58088 -0.00840218 0)
(1.5824 -0.0105618 0)
(1.58408 -0.0128743 0)
(1.58595 -0.0153538 0)
(1.58802 -0.0180153 0)
(1.59034 -0.0208746 0)
(1.59291 -0.0239474 0)
(1.5958 -0.0272494 0)
(1.599 -0.0307957 0)
(1.60261 -0.0346005 0)
(1.60659 -0.0386775 0)
(1.61113 -0.0430386 0)
(1.61609 -0.0476956 0)
(1.62195 -0.0526583 0)
(1.62855 -0.0579327 0)
(1.63594 -0.0635176 0)
(1.64425 -0.069402 0)
(1.65355 -0.0755655 0)
(1.66394 -0.0819752 0)
(1.67554 -0.0885807 0)
(1.68848 -0.09529 0)
(1.70289 -0.102076 0)
(1.71887 -0.108889 0)
(1.73646 -0.115695 0)
(1.75565 -0.122429 0)
(1.77643 -0.128835 0)
(1.79889 -0.13468 0)
(1.823 -0.139798 0)
(1.84868 -0.144035 0)
(1.87577 -0.147231 0)
(1.90404 -0.149243 0)
(1.93324 -0.14995 0)
(1.47774 0.00190125 0)
(1.47838 0.005597 0)
(1.47976 0.00881911 0)
(1.48158 0.0114961 0)
(1.48352 0.0137377 0)
(1.48547 0.0156613 0)
(1.48742 0.0173247 0)
(1.48938 0.0187569 0)
(1.49132 0.0199923 0)
(1.49323 0.02107 0)
(1.4951 0.0220201 0)
(1.49694 0.0228655 0)
(1.49875 0.0236233 0)
(1.50055 0.0243057 0)
(1.50233 0.024921 0)
(1.50411 0.025477 0)
(1.50588 0.0259802 0)
(1.50765 0.0264352 0)
(1.50941 0.0268446 0)
(1.51118 0.027212 0)
(1.51295 0.0275398 0)
(1.51473 0.0278299 0)
(1.51652 0.0280823 0)
(1.51832 0.0282974 0)
(1.52012 0.0284751 0)
(1.52194 0.0286186 0)
(1.52377 0.0287299 0)
(1.52562 0.0288008 0)
(1.52748 0.0288222 0)
(1.52936 0.0287895 0)
(1.53123 0.0287022 0)
(1.53311 0.0285597 0)
(1.53498 0.0283604 0)
(1.53684 0.0281041 0)
(1.5387 0.0277897 0)
(1.54052 0.0274202 0)
(1.54233 0.0269942 0)
(1.54412 0.0265104 0)
(1.54587 0.0259672 0)
(1.54758 0.0253717 0)
(1.54925 0.0247269 0)
(1.55086 0.0240326 0)
(1.55243 0.0232843 0)
(1.55394 0.0224892 0)
(1.55539 0.0216384 0)
(1.55678 0.0207537 0)
(1.55811 0.019842 0)
(1.55939 0.0189108 0)
(1.56063 0.0179435 0)
(1.5618 0.016955 0)
(1.56294 0.0159313 0)
(1.56402 0.0148886 0)
(1.56509 0.0138178 0)
(1.56614 0.0127206 0)
(1.56716 0.0115959 0)
(1.5681 0.0104415 0)
(1.56902 0.0092544 0)
(1.56993 0.00803009 0)
(1.57084 0.00676276 0)
(1.57174 0.00544638 0)
(1.57265 0.00407473 0)
(1.57359 0.00264124 0)
(1.57454 0.00113821 0)
(1.57553 -0.00044308 0)
(1.57657 -0.00211042 0)
(1.57768 -0.0038772 0)
(1.57886 -0.00575418 0)
(1.58013 -0.00775384 0)
(1.5815 -0.00989143 0)
(1.58298 -0.0121833 0)
(1.58461 -0.014646 0)
(1.58639 -0.0172969 0)
(1.58835 -0.0201542 0)
(1.59051 -0.0232364 0)
(1.59292 -0.0265631 0)
(1.5956 -0.0301532 0)
(1.5986 -0.0340276 0)
(1.60196 -0.0382038 0)
(1.60573 -0.0427051 0)
(1.60999 -0.047554 0)
(1.61478 -0.0527849 0)
(1.62016 -0.0584255 0)
(1.62621 -0.0644616 0)
(1.63303 -0.0708833 0)
(1.64073 -0.07769 0)
(1.64943 -0.0848751 0)
(1.65923 -0.0924162 0)
(1.67026 -0.100275 0)
(1.68265 -0.108398 0)
(1.69655 -0.116738 0)
(1.71208 -0.125222 0)
(1.72932 -0.133748 0)
(1.74836 -0.142159 0)
(1.76923 -0.150228 0)
(1.79198 -0.157734 0)
(1.81658 -0.164472 0)
(1.84296 -0.170227 0)
(1.87094 -0.174772 0)
(1.90031 -0.177896 0)
(1.93076 -0.17942 0)
(1.4777 0.00156093 0)
(1.47815 0.00463592 0)
(1.47915 0.00746102 0)
(1.48056 0.00992673 0)
(1.48215 0.0120416 0)
(1.4838 0.0138697 0)
(1.4855 0.0154622 0)
(1.48723 0.0168501 0)
(1.48898 0.0180598 0)
(1.49073 0.0191204 0)
(1.49247 0.0200576 0)
(1.4942 0.0208926 0)
(1.49591 0.0216427 0)
(1.49763 0.0223201 0)
(1.49933 0.0229328 0)
(1.50104 0.0234878 0)
(1.50274 0.023991 0)
(1.50445 0.0244471 0)
(1.50616 0.0248597 0)
(1.50787 0.0252317 0)
(1.50958 0.0255651 0)
(1.51131 0.0258615 0)
(1.51304 0.0261212 0)
(1.51478 0.0263438 0)
(1.51653 0.0265288 0)
(1.51829 0.0266757 0)
(1.52005 0.0267835 0)
(1.52183 0.0268495 0)
(1.52362 0.0268694 0)
(1.52541 0.0268401 0)
(1.52721 0.0267598 0)
(1.529 0.0266274 0)
(1.53079 0.0264416 0)
(1.53258 0.026202 0)
(1.53434 0.0259082 0)
(1.5361 0.0255614 0)
(1.53783 0.0251608 0)
(1.53954 0.0247064 0)
(1.54122 0.024198 0)
(1.54286 0.0236384 0)
(1.54447 0.0230286 0)
(1.54605 0.0223712 0)
(1.54758 0.0216668 0)
(1.54906 0.0209189 0)
(1.55049 0.0201291 0)
(1.55188 0.0193053 0)
(1.55321 0.0184527 0)
(1.5545 0.0175699 0)
(1.55574 0.016654 0)
(1.55693 0.0157072 0)
(1.55808 0.01473 0)
(1.55919 0.0137228 0)
(1.56026 0.0126826 0)
(1.56129 0.0116114 0)
(1.56229 0.0105187 0)
(1.56326 0.0093996 0)
(1.56423 0.00824172 0)
(1.56517 0.00703723 0)
(1.56611 0.00578204 0)
(1.56703 0.00447151 0)
(1.56796 0.00309858 0)
(1.56889 0.00165614 0)
(1.56984 0.000135028 0)
(1.57081 -0.00147515 0)
(1.57182 -0.00318476 0)
(1.57286 -0.00500573 0)
(1.57396 -0.00695112 0)
(1.57512 -0.00903444 0)
(1.57637 -0.0112715 0)
(1.57771 -0.0136804 0)
(1.57917 -0.0162806 0)
(1.58076 -0.0190921 0)
(1.58251 -0.022136 0)
(1.58444 -0.0254348 0)
(1.58658 -0.0290119 0)
(1.58896 -0.032892 0)
(1.59163 -0.0371011 0)
(1.59464 -0.0416661 0)
(1.59802 -0.0466162 0)
(1.60185 -0.0519814 0)
(1.60619 -0.0577924 0)
(1.6111 -0.0640708 0)
(1.61668 -0.0708253 0)
(1.62302 -0.0780663 0)
(1.63023 -0.0858065 0)
(1.63844 -0.0940492 0)
(1.64778 -0.102782 0)
(1.65839 -0.111977 0)
(1.67043 -0.121588 0)
(1.68405 -0.131548 0)
(1.69941 -0.141765 0)
(1.71664 -0.152109 0)
(1.73586 -0.162409 0)
(1.75715 -0.172445 0)
(1.78055 -0.181961 0)
(1.80608 -0.190673 0)
(1.83366 -0.198277 0)
(1.86312 -0.20446 0)
(1.89421 -0.208926 0)
(1.92655 -0.211426 0)
(1.47767 0.00132147 0)
(1.47801 0.00393471 0)
(1.47878 0.00639672 0)
(1.47989 0.00861692 0)
(1.4812 0.0105759 0)
(1.48261 0.0123046 0)
(1.48411 0.0138378 0)
(1.48566 0.015198 0)
(1.48725 0.0164025 0)
(1.48886 0.017471 0)
(1.49049 0.0184231 0)
(1.49211 0.0192759 0)
(1.49375 0.0200429 0)
(1.49538 0.0207345 0)
(1.49702 0.0213587 0)
(1.49866 0.0219223 0)
(1.5003 0.022431 0)
(1.50195 0.0228896 0)
(1.5036 0.0233017 0)
(1.50526 0.0236703 0)
(1.50693 0.0239973 0)
(1.5086 0.0242845 0)
(1.51028 0.0245327 0)
(1.51197 0.0247421 0)
(1.51367 0.0249129 0)
(1.51538 0.0250447 0)
(1.51709 0.0251372 0)
(1.51881 0.0251892 0)
(1.52054 0.0251981 0)
(1.52227 0.0251614 0)
(1.524 0.0250773 0)
(1.52574 0.0249446 0)
(1.52746 0.0247624 0)
(1.52918 0.0245307 0)
(1.53088 0.0242488 0)
(1.53256 0.0239173 0)
(1.53423 0.0235358 0)
(1.53587 0.0231048 0)
(1.53748 0.0226247 0)
(1.53906 0.0220975 0)
(1.54061 0.0215244 0)
(1.54212 0.0209074 0)
(1.54359 0.0202467 0)
(1.54501 0.0195455 0)
(1.54639 0.0188046 0)
(1.54772 0.0180285 0)
(1.54901 0.0172184 0)
(1.55025 0.0163769 0)
(1.55144 0.0155021 0)
(1.55259 0.0145971 0)
(1.5537 0.0136598 0)
(1.55477 0.0126922 0)
(1.5558 0.0116914 0)
(1.55679 0.0106598 0)
(1.55775 0.00959633 0)
(1.55868 0.00849649 0)
(1.55959 0.00735226 0)
(1.56048 0.00615776 0)
(1.56135 0.00490861 0)
(1.56222 0.00359924 0)
(1.56308 0.00222212 0)
(1.56394 0.000768765 0)
(1.56481 -0.000770504 0)
(1.56569 -0.00240638 0)
(1.56659 -0.0041503 0)
(1.56752 -0.00601488 0)
(1.5685 -0.00801416 0)
(1.56952 -0.0101636 0)
(1.57061 -0.0124809 0)
(1.57177 -0.0149857 0)
(1.57303 -0.017699 0)
(1.5744 -0.0206433 0)
(1.57591 -0.0238426 0)
(1.57757 -0.0273231 0)
(1.57942 -0.0311124 0)
(1.58148 -0.0352405 0)
(1.5838 -0.039739 0)
(1.58643 -0.0446413 0)
(1.5894 -0.0499827 0)
(1.59278 -0.0557996 0)
(1.59665 -0.062128 0)
(1.60107 -0.069002 0)
(1.60613 -0.0764516 0)
(1.61194 -0.0845027 0)
(1.61861 -0.0931774 0)