/*--------------------------------*- C++ -*----------------------------------*\
| =========                 |                                                 |
| \\      /  F ield         | OpenFOAM: The Open Source CFD Toolbox           |
|  \\    /   O peration     | Version:  2206                                  |
|   \\  /    A nd           | Website:  www.openfoam.com                      |
|    \\/     M anipulation  |                                                 |
\*---------------------------------------------------------------------------*/
FoamFile
{
    version     2.0;
    format      ascii;
    arch        "LSB;label=32;scalar=64";
    class       volScalarField;
    location    "18.6";
    object      p;
}
// * * * * * * * * * * * * * * * * * * * * * * * * * * * * * * * * * * * * * //

dimensions      [0 2 -2 0 0 0 0];

internalField   nonuniform List<scalar> 
3038
(
-0.0222472
-0.0256843
-0.028592
-0.0307384
-0.0319306
-0.0320483
-0.0310816
-0.0290491
-0.0260584
-0.0222868
-0.017953
-0.0132955
-0.00855358
-0.00400997
-4.10839e-05
0.00333851
0.00643935
0.00904695
0.010819
0.0117842
0.012037
0.0116822
0.0108633
0.00975233
0.00853802
0.00733316
0.00622044
0.00547298
0.00532455
0.00476686
0.00450215
0.00506297
0.00532056
0.0055874
0.00580066
0.00530878
0.00405779
0.00232964
0.000171424
-0.00234647
-0.00511157
-0.00800607
-0.0108924
-0.0136187
-0.0160312
-0.0179836
-0.0193467
-0.0200239
-0.0199687
-0.0191838
-0.0176994
-0.0155987
-0.0129988
-0.0100391
-0.0068675
-0.00363124
-0.0005229
0.00220851
0.00464324
0.00697717
0.00900822
0.0105164
0.0115179
0.0120527
0.0121677
0.0119351
0.0114447
0.0107971
0.0100272
0.00922491
0.00851273
0.00786384
0.00724271
0.00671046
0.00623514
0.0057153
0.00516296
0.00457051
0.00365492
0.00224638
0.000520562
-0.0014149
-0.00350447
-0.00567303
-0.00784032
-0.00991405
-0.0117965
-0.0133926
-0.0146148
-0.0153894
-0.0156694
-0.0154454
-0.0147207
-0.0135287
-0.0119322
-0.0100109
-0.0078566
-0.00556414
-0.00322803
-0.000985841
0.000999226
0.00284694
0.00466998
0.00629333
0.00757993
0.00853949
0.00918697
0.00954024
0.00963388
0.00951439
0.00923363
0.00880019
0.0082694
0.00770655
0.00711936
0.00651949
0.00590939
0.00521729
0.0046291
0.00363945
0.00305727
-0.000257668
-0.0197022
-0.0231505
-0.0260296
-0.0281218
-0.0292458
-0.0292914
-0.0282649
-0.0261847
-0.0231555
-0.0193481
-0.0149723
-0.0102603
-0.00545633
-0.000860013
0.00322452
0.00688379
0.0102212
0.012951
0.0148647
0.0159884
0.0163895
0.0161651
0.0154512
0.0144158
0.0132447
0.0119665
0.0108177
0.0100287
0.00953291
0.00895401
0.00875052
0.00894724
0.00912304
0.00926621
0.00889404
0.00782094
0.0062678
0.00426692
0.00185005
-0.000887792
-0.00383315
-0.00686838
-0.0098587
-0.0126542
-0.0151032
-0.0170636
-0.0184111
-0.0190539
-0.0189563
-0.0181199
-0.0165767
-0.0144098
-0.0117345
-0.00868703
-0.00541359
-0.00207096
0.00113734
0.0040309
0.00673236
0.0092771
0.011435
0.0130788
0.014216
0.01487
0.0150836
0.0149241
0.0144798
0.013849
0.0130196
0.0121792
0.0113785
0.0106214
0.00991262
0.00926061
0.00864264
0.00802619
0.00735835
0.00644293
0.00511101
0.00344636
0.00153974
-0.000572435
-0.00282233
-0.00513084
-0.00741613
-0.00958503
-0.0115398
-0.0131857
-0.0144363
-0.0152197
-0.0154913
-0.0152481
-0.0144902
-0.0132521
-0.0115963
-0.00960221
-0.00736058
-0.00496706
-0.00252696
-0.000182663
0.00196173
0.00403113
0.0060243
0.00776101
0.0091639
0.0102329
0.0109725
0.0113983
0.0115419
0.0114495
0.0111649
0.0106752
0.0100981
0.00946441
0.00879079
0.00807758
0.00735878
0.00650775
0.00585265
0.00445932
0.00362381
-0.000255181
-0.0165149
-0.0199223
-0.0227256
-0.0247254
-0.0257586
-0.0257321
-0.0246579
-0.0225545
-0.0195242
-0.0157322
-0.0113807
-0.00669284
-0.00191664
0.00265335
0.00680788
0.0106514
0.0140945
0.0168495
0.0188175
0.0200123
0.0204842
0.0203251
0.0196687
0.0186844
0.0174905
0.0161987
0.0150418
0.0141229
0.013445
0.012949
0.0127177
0.0127838
0.0129041
0.0125903
0.0116784
0.0103349
0.00855414
0.00632224
0.00372103
0.000850982
-0.00218262
-0.00526738
-0.00828833
-0.0110949
-0.0135319
-0.0154632
-0.0167717
-0.0173718
-0.0172369
-0.016369
-0.0148002
-0.0126112
-0.00991372
-0.00683977
-0.00353514
-0.000165932
0.00307519
0.00608298
0.00895478
0.0115973
0.0137998
0.0155014
0.0166976
0.0174026
0.017657
0.0175292
0.0171016
0.0164107
0.0155636
0.0146843
0.0138249
0.0130094
0.012246
0.0115403
0.0108852
0.0102051
0.00929732
0.00804388
0.00649393
0.00469535
0.00265618
0.00043041
-0.00190436
-0.00427618
-0.00661274
-0.00881999
-0.0107988
-0.0124564
-0.0137094
-0.0144876
-0.0147475
-0.0144914
-0.0137184
-0.0124622
-0.0107839
-0.00876145
-0.00648431
-0.00404966
-0.00157087
0.000823861
0.00309036
0.00530245
0.00737488
0.00916079
0.0106184
0.0117373
0.0125163
0.0129693
0.0131277
0.0130358
0.0126956
0.0121763
0.0115557
0.0108639
0.0101271
0.00933217
0.00855393
0.00760686
0.00681891
0.00508883
0.00405733
-0.000256487
-0.0128646
-0.0161647
-0.0188506
-0.0207265
-0.0216536
-0.0215498
-0.0204381
-0.0183355
-0.015341
-0.0116119
-0.0073401
-0.00274557
0.00191797
0.00639793
0.0105967
0.0145023
0.0179017
0.0205997
0.0225417
0.0237271
0.0241992
0.0240486
0.0234098
0.0224224
0.0211686
0.0198838
0.0187137
0.0177492
0.0170159
0.0165429
0.0164004
0.0164442
0.0161721
0.0153953
0.0142681
0.0127516
0.0107935
0.00839971
0.00566707
0.00273629
-0.000300872
-0.0033431
-0.00629702
-0.00904613
-0.0114272
-0.0132937
-0.0145406
-0.0150905
-0.0149219
-0.0140389
-0.0124729
-0.0103015
-0.00763208
-0.004593
-0.00133072
0.00198792
0.00520774
0.00829383
0.0112284
0.0138487
0.0160234
0.01771
0.0188941
0.0195874
0.0198336
0.0196991
0.0192263
0.0184807
0.0176168
0.0167122
0.015825
0.014989
0.0142292
0.0135554
0.0128812
0.0120002
0.0108309
0.00943109
0.00779957
0.00591842
0.00380632
0.00152518
-0.000835445
-0.00319931
-0.00550879
-0.00769032
-0.0096475
-0.0112783
-0.0125037
-0.0132593
-0.0135038
-0.0132409
-0.0124709
-0.0112248
-0.00956083
-0.00755381
-0.00529137
-0.00287326
-0.000413144
0.00199279
0.00433999
0.00660738
0.0086742
0.0104518
0.0119065
0.0130206
0.0137921
0.0142357
0.0143744
0.0142289
0.0138407
0.0132933
0.0126371
0.0119064
0.0111317
0.0102992
0.009503
0.0084615
0.00750222
0.00553057
0.00434486
-0.000254514
-0.00900323
-0.0120766
-0.0145946
-0.0163214
-0.0171258
-0.016941
-0.015798
-0.0137154
-0.0107873
-0.00716332
-0.00302836
0.00140028
0.00588823
0.0102601
0.0144343
0.0182491
0.0214975
0.0240689
0.0259101
0.0270143
0.0274254
0.0272365
0.0265659
0.0255113
0.0242497
0.0229623
0.021786
0.0208185
0.0201348
0.0198186
0.0197236
0.0194241
0.018752
0.0178187
0.0165647
0.0149157
0.0128237
0.0103503
0.00761876
0.00470982
0.00171349
-0.00125787
-0.00408708
-0.00668383
-0.00894011
-0.0107118
-0.011877
-0.0123669
-0.0121649
-0.0112794
-0.00973948
-0.00761857
-0.00501968
-0.00206861
0.00108817
0.00430214
0.00747977
0.0105636
0.0134296
0.0159419
0.0180247
0.0196318
0.0207449
0.0213765
0.0215738
0.0213711
0.0208302
0.0200622
0.0191773
0.0182617
0.0173792
0.0165857
0.0159079
0.0152292
0.0143759
0.0133016
0.0120608
0.0106239
0.00895725
0.00703342
0.00489811
0.00264093
0.000320161
-0.00199809
-0.00423622
-0.00632323
-0.00819185
-0.00975895
-0.010936
-0.0116548
-0.0118787
-0.0116117
-0.0108554
-0.0096381
-0.00801516
-0.00605899
-0.00385651
-0.00150775
0.000890327
0.00328733
0.00564449
0.00786823
0.00986587
0.0115835
0.0129842
0.0140499
0.0147804
0.0151745
0.0152576
0.0150508
0.0146283
0.0140506
0.0133689
0.0126206
0.0118441
0.0110225
0.0101595
0.00900865
0.00791474
0.00578372
0.00448651
-0.000240711
-0.00508969
-0.00787975
-0.0101458
-0.0116981
-0.0123729
-0.0121096
-0.010933
-0.0088874
-0.00605961
-0.00258762
0.00135461
0.00556875
0.00987228
0.0141178
0.0181303
0.0217207
0.0247543
0.0271344
0.0288085
0.0297745
0.0300811
0.0298052
0.0290533
0.0279529
0.0266834
0.0254013
0.024247
0.0233592
0.0228724
0.0226217
0.0222324
0.021603
0.0208161
0.0197873
0.0184362
0.0166826
0.0145393
0.0121096
0.00945575
0.00664233
0.00376145
0.000920048
-0.00176513
-0.00418148
-0.00624263
-0.00786176
-0.00892842
-0.00935309
-0.00911282
-0.0082314
-0.0067393
-0.00470359
-0.00222026
0.000592819
0.0036038
0.00670521
0.0097974
0.012752
0.0154503
0.0178021
0.0197363
0.0212089
0.022205
0.0227262
0.0228281
0.0225482
0.0219538
0.0211577
0.0202616
0.0193596
0.0185414
0.0178581
0.0171684
0.0163293
0.0153431
0.0142433
0.0129883
0.0115447
0.00987071
0.00796588
0.00589748
0.00372418
0.00149366
-0.00073018
-0.00287191
-0.00485048
-0.00658819
-0.00802912
-0.00911364
-0.00977984
-0.00997961
-0.00971
-0.0089768
-0.00780776
-0.00625574
-0.00438814
-0.00228567
-3.62392e-05
0.00229563
0.00464186
0.0069086
0.00901744
0.0109061
0.012522
0.0138283
0.0148105
0.0154609
0.0157919
0.0158023
0.0155481
0.0150895
0.0144859
0.0137952
0.0130646
0.0123173
0.0114546
0.0104602
0.00925272
0.00808952
0.00587529
0.0045015
-0.000212865
-0.00124147
-0.00374285
-0.00570921
-0.00704125
-0.00758124
-0.00724946
-0.00605927
-0.00407145
-0.00136792
0.00192692
0.00565967
0.00965846
0.0137461
0.0177411
0.0214692
0.0247797
0.0275475
0.0296813
0.0311381
0.0319222
0.0320774
0.0316994
0.030867
0.0297341
0.0284533
0.0271918
0.0261391
0.0254849
0.0250593
0.0245385
0.0238827
0.0231661
0.0222963
0.0211903
0.0197587
0.017976
0.0159055
0.0135907
0.0110729
0.00841946
0.00571655
0.00306308
0.00056846
-0.00165439
-0.00350814
-0.00492683
-0.00585419
-0.00621259
-0.00594687
-0.00508077
-0.0036526
-0.00172134
0.000629476
0.00329459
0.00615518
0.00909387
0.0119889
0.0147293
0.0172149
0.0193588
0.0210968
0.0223903
0.0232243
0.0236369
0.0236305
0.0232664
0.0226245
0.021802
0.0209127
0.0200809
0.0193898
0.0186853
0.0178453
0.0169168
0.0159199
0.0148102
0.0135562
0.0121367
0.0105057
0.00868068
0.00672817
0.004683
0.00259003
0.000508958
-0.00149118
-0.00333405
-0.00494003
-0.00624138
-0.0071955
-0.00777661
-0.00794612
-0.00768008
-0.00697795
-0.00586957
-0.00440217
-0.00263436
-0.00063756
0.00150931
0.00372847
0.00593472
0.00805279
0.0100155
0.0117623
0.0132437
0.0144195
0.0152979
0.01587
0.016114
0.0160642
0.0157641
0.0152714
0.0146552
0.0139862
0.0132982
0.0125033
0.01154
0.010478
0.00925892
0.00804826
0.00581785
0.00440363
-0.000168889
0.00241573
0.000212522
-0.00145704
-0.00254575
-0.00294225
-0.00254796
-0.0013678
0.000551532
0.00312768
0.00623917
0.00974117
0.0134702
0.0172569
0.0209334
0.024339
0.0273283
0.0297835
0.0316234
0.0328168
0.0333971
0.0334218
0.0329239
0.032027
0.0308609
0.0295817
0.0284199
0.0276331
0.027023
0.0263353
0.025594
0.0248665
0.0240704
0.0231305
0.0219638
0.0205169
0.0188131
0.0168775
0.0147261
0.0124001
0.00996093
0.00748501
0.00506223
0.00279383
0.0007882
-0.000854454
-0.00206826
-0.00282652
-0.00309905
-0.00281419
-0.00197017
-0.000609717
0.00121217
0.00341923
0.0059096
0.00856546
0.0112719
0.0139228
0.0164159
0.0186532
0.0205501
0.0220528
0.0231482
0.0238456
0.0241213
0.0240122
0.0235751
0.0228867
0.0220526
0.0212242
0.0205278
0.0198077
0.0189548
0.0180493
0.0171106
0.0160996
0.014989
0.0137649
0.0123942
0.0108475
0.00915163
0.00734837
0.00546599
0.00354546
0.00164042
-0.000186975
-0.00186693
-0.00332325
-0.00448356
-0.00530392
-0.00577914
-0.00590409
-0.00564197
-0.00497185
-0.00392257
-0.00253944
-0.000880158
0.000985889
0.00298444
0.00504022
0.00707733
0.00902406
0.0108149
0.0123935
0.0137203
0.0147851
0.0155554
0.0160216
0.0161934
0.0160903
0.0157491
0.0152332
0.0146315
0.0140081
0.0132778
0.0123853
0.0113782
0.0102936
0.00905423
0.00781178
0.00562736
0.00420155
-0.000103834
0.00578026
0.00387782
0.00250196
0.00165877
0.0014177
0.0018729
0.00302383
0.00484687
0.00725993
0.010145
0.0133704
0.0167877
0.0202391
0.023566
0.0266159
0.0292499
0.0313573
0.0328585
0.0338203
0.0342459
0.0341112
0.0335147
0.0325584
0.0313706
0.0301879
0.0292976
0.0285277
0.0276552
0.0267886
0.0259859
0.0251819
0.0243196
0.0233308
0.0221549
0.0207857
0.0192224
0.0174595
0.0155132
0.0134198
0.0112321
0.00901707
0.00685428
0.00483394
0.00305603
0.00162149
0.000602373
9.63734e-06
-0.000163084
0.000149831
0.000964856
0.00223935
0.0039289
0.00597042
0.00826529
0.010691
0.0131379
0.0155178
0.0177368
0.0196988
0.0213194
0.0226107
0.0235495
0.0240786
0.0242289
0.0240323
0.0235302
0.0228048
0.0220125
0.0213154
0.0205862
0.019715
0.0188072
0.0178881
0.0169297
0.0159123
0.0148198
0.0136383
0.0123429
0.0109141
0.00936929
0.00773516
0.00603602
0.00430815
0.00259895
0.000963009
-0.000538977
-0.00183801
-0.00285876
-0.00354669
-0.00390862
-0.00397624
-0.00370988
-0.00307233
-0.00208939
-0.000804643
0.000729595
0.00245
0.00428678
0.00616801
0.00802217
0.00978066
0.0113847
0.0128051
0.0140075
0.0149398
0.0155933
0.0159739
0.0160854
0.0159358
0.0155607
0.0150448
0.0144843
0.0138306
0.0130066
0.0120717
0.0110429
0.00993513
0.00867522
0.00741581
0.00533285
0.00391147
-1.93376e-05
0.00880586
0.00717273
0.00605203
0.00540384
0.00531434
0.00581332
0.00690963
0.00864256
0.0108857
0.0135278
0.0164536
0.0195297
0.0226121
0.0255577
0.0282245
0.030466
0.0322122
0.0334982
0.0342581
0.0344898
0.0342261
0.0335363
0.0325297
0.0314437
0.0304945
0.029602
0.028556
0.0275494
0.0266316
0.0257596
0.0248978
0.0239926
0.0229979
0.0218944
0.0206537
0.0192522
0.0176866
0.0159693
0.0141271
0.0122045
0.0102611
0.00836744
0.00660265
0.00505462
0.0038181
0.00297467
0.00254484
0.00247535
0.00283216
0.00361845
0.00478804
0.00632179
0.00818704
0.0102872
0.0124696
0.0146238
0.0167002
0.0186234
0.0203162
0.0217435
0.0228431
0.0235852
0.0239746
0.0240297
0.0237583
0.0231937
0.0224782
0.0218009
0.021077
0.0201951
0.0192747
0.0183507
0.0174087
0.0164408
0.0154362
0.0143793
0.0132556
0.0120524
0.0107568
0.00937044
0.00791082
0.00640091
0.00487279
0.00336696
0.00192989
0.000612608
-0.000527298
-0.00141917
-0.00199418
-0.00225169
-0.00225902
-0.0019845
-0.00137764
-0.000459155
0.000728571
0.00213692
0.00370743
0.00537526
0.00707338
0.00873615
0.0103029
0.0117544
0.0130426
0.0140991
0.0149099
0.0154723
0.0157852
0.0158462
0.0156582
0.0152643
0.0147712
0.0141986
0.013458
0.012587
0.0116272
0.0105731
0.00944492
0.00817931
0.00691777
0.00497289
0.00357282
9.33412e-05
0.0114523
0.0100485
0.00913746
0.00863114
0.0088251
0.00937829
0.0102621
0.0118766
0.0139084
0.0162492
0.0188195
0.021517
0.0242101
0.0267644
0.0290692
0.0310412
0.0325339
0.033579
0.0341483
0.0342339
0.033846
0.0330762
0.0321668
0.0312385
0.030276
0.0291266
0.0280026
0.0269605
0.0259869
0.0250723
0.0241804
0.0232829
0.0223585
0.0213639
0.0202642
0.0190392
0.0176839
0.0162032
0.0146156
0.0129586
0.0112837
0.00965285
0.00813521
0.00681013
0.00575467
0.00502194
0.00468057
0.00471985
0.00512777
0.00587796
0.00692658
0.00830078
0.00999208
0.0118895
0.0137939
0.0156418
0.0174491
0.0191541
0.0206586
0.0218733
0.0227769
0.0233661
0.0236456
0.0236189
0.0232776
0.022677
0.0220301
0.021334
0.0204676
0.0195404
0.0186022
0.0176538
0.0166995
0.0157378
0.0147594
0.0137517
0.012702
0.0115989
0.0104356
0.00921489
0.00793372
0.00660536
0.00526711
0.0039542
0.00270488
0.00156169
0.000571718
-0.000205259
-0.000692617
-0.000863886
-0.000805051
-0.000520905
5.53619e-05
0.00090912
0.00199918
0.00328187
0.00470482
0.00620844
0.00773034
0.00922087
0.0106543
0.011975
0.0131184
0.014056
0.0147725
0.0152586
0.0155117
0.0155291
0.0153126
0.0149137
0.0144137
0.0137707
0.0129775
0.0120798
0.011092
0.0100164
0.0088712
0.00761402
0.0063568
0.00456234
0.00319349
0.000207465
0.0138192
0.0125751
0.0117715
0.0114305
0.0115397
0.0120397
0.0129834
0.0144063
0.0161958
0.0182596
0.0205007
0.0228442
0.0251449
0.0273582
0.0296214
0.0312934
0.0323419
0.033214
0.0336601
0.0336324
0.0331449
0.0324278
0.0316355
0.0306088
0.0294185
0.0282362
0.027097
0.0260177
0.0250184
0.0240927
0.0232233
0.0223863
0.0215422
0.0206563
0.0197042
0.0186653
0.0175314
0.0162892
0.0149415
0.0135277
0.0120973
0.0107028
0.009404
0.00826438
0.0073236
0.0066571
0.00639886
0.00659225
0.00719393
0.00792864
0.00866128
0.00968939
0.0112435
0.0131969
0.0149052
0.0163073
0.0178697
0.0194259
0.0207319
0.0217678
0.0225243
0.0229901
0.0231692
0.0230671
0.022683
0.0220875
0.0213985
0.0205855
0.0196778
0.0187298
0.0177659
0.0168022
0.0158474
0.0149012
0.013957
0.0130046
0.0120326
0.0110306
0.00999239
0.00891843
0.00780807
0.00666176
0.00550585
0.00437816
0.00331053
0.00233721
0.00149555
0.000830482
0.000408342
0.000283749
0.0003967
0.000687109
0.00122755
0.00201635
0.00301454
0.00418317
0.00547612
0.00683872
0.00821798
0.009588
0.0109005
0.0120887
0.0131153
0.0139539
0.0145853
0.0150003
0.0151969
0.0151749
0.0149384
0.0145227
0.0139653
0.0132699
0.0124491
0.0115242
0.0105123
0.00942193
0.00826748
0.0070251
0.00577683
0.00413679
0.00281098
0.000304164
0.0158239
0.0146614
0.0139123
0.0136924
0.0138808
0.0144201
0.0153175
0.0165413
0.0180413
0.0197314
0.0215106
0.0235276
0.0256996
0.0277151
0.029548
0.0309654
0.0319918
0.0326867
0.0329816
0.0328608
0.0323832
0.0316573
0.0306719
0.0295685
0.0283907
0.0271947
0.0260323
0.0249417
0.0239413
0.0230304
0.0221954
0.0214118
0.0206519
0.0198832
0.0190772
0.0182113
0.0172736
0.0162579
0.0151534
0.0139767
0.0127784
0.0116061
0.0105064
0.00952344
0.00871624
0.00821577
0.00806303
0.00819293
0.00857495
0.00920817
0.0100547
0.0111331
0.0124719
0.0139801
0.0154728
0.0169089
0.0183278
0.0196348
0.0207414
0.0216119
0.0222227
0.0225623
0.0226345
0.0224554
0.0220395
0.0214083
0.0206035
0.0197422
0.0188149
0.0178406
0.0168582
0.0158887
0.0149411
0.0140179
0.0131155
0.0122251
0.0113359
0.0104372
0.00952218
0.00858924
0.00763505
0.00665647
0.00567331
0.0047168
0.00381361
0.00299497
0.00229194
0.00173647
0.00137435
0.00126559
0.0014068
0.00171595
0.00223058
0.00296622
0.00388899
0.00496306
0.0061476
0.00739375
0.00865694
0.00990487
0.0110919
0.012164
0.0130856
0.0138301
0.0143798
0.0147252
0.0148639
0.0147968
0.0145304
0.0140828
0.0134793
0.0127505
0.0119028
0.0109547
0.00992571
0.00882676
0.00767199
0.00644973
0.00521896
0.00372264
0.00245072
0.000369509
0.0177572
0.0167289
0.0160349
0.0157356
0.0157763
0.0161542
0.0168784
0.0179418
0.0192901
0.0208531
0.0225497
0.0243593
0.0261987
0.0279235
0.0294607
0.0306955
0.0315746
0.0320964
0.032258
0.0320693
0.0315448
0.0306771
0.0296264
0.0285204
0.0273355
0.0261132
0.0249337
0.0238378
0.022843
0.0219553
0.0211683
0.020452
0.0197909
0.0191494
0.0184963
0.0178057
0.0170645
0.0162512
0.0153545
0.0143942
0.0134106
0.0124407
0.0115254
0.0107079
0.0100326
0.00956788
0.00940476
0.0095734
0.00996344
0.0105398
0.0113164
0.012296
0.0134758
0.0147971
0.0161393
0.0174255
0.0186457
0.0197589
0.0206983
0.0214176
0.0218908
0.0221055
0.0220688
0.0218008
0.0213184
0.0206478
0.0198105
0.0188871
0.0179226
0.0169259
0.0159315
0.014962
0.0140285
0.013136
0.012282
0.0114582
0.0106548
0.00986351
0.0090761
0.00828345
0.00747721
0.00665772
0.0058386
0.0050399
0.0042856
0.0036032
0.0030219
0.00257084
0.00228083
0.00219239
0.00233431
0.00265849
0.00315153
0.00383629
0.00468805
0.00567416
0.00675851
0.00789896
0.00905266
0.010182
0.011252
0.0122183
0.0130412
0.0136959
0.0141661
0.0144408
0.0145157
0.0143953
0.0140887
0.0136133
0.0129861
0.0122227
0.0113483
0.0103828
0.00934348
0.00824334
0.00709678
0.00590059
0.00470068
0.0033334
0.00212398
0.000401583
0.0194766
0.0185506
0.0178754
0.0175113
0.0175373
0.0178962
0.0185192
0.0194151
0.0205637
0.0219085
0.0233889
0.0249532
0.0265344
0.0280298
0.029344
0.0303962
0.0311193
0.0314949
0.0315228
0.0312284
0.0306417
0.0297702
0.0287082
0.0275403
0.0263118
0.0250809
0.0239022
0.0228109
0.0218312
0.020975
0.0202286
0.019582
0.019003
0.0184676
0.0179472
0.0174083
0.0168529
0.0162254
0.0155178
0.0147545
0.0139651
0.0131809
0.0124351
0.0117682
0.0112284
0.0108655
0.0107183
0.0108334
0.0112056
0.0117474
0.012457
0.0133567
0.0144081
0.0155602
0.0167377
0.0178759
0.0189368
0.0198806
0.0206559
0.0212205
0.0215537
0.0216458
0.0215019
0.0211495
0.0205857
0.0198586
0.0190165
0.018067
0.0170678
0.0160579
0.0150634
0.0141038
0.0131928
0.0123369
0.0115375
0.0107857
0.0100663
0.00936659
0.00868282
0.00800892
0.00734416
0.00667477
0.0060026
0.00534411
0.00472172
0.00416108
0.0036877
0.00332803
0.00311013
0.00305913
0.0031964
0.0035205
0.00399789
0.00463957
0.00542829
0.00633525
0.00732746
0.00836715
0.00941577
0.0104348
0.0113909
0.0122488
0.012972
0.0135357
0.0139241
0.014126
0.0141391
0.0139711
0.0136301
0.0131292
0.0124796
0.0116951
0.0108081
0.00983733
0.00879941
0.0077087
0.00658115
0.00541577
0.00425055
0.00299546
0.00184761
0.000414043
0.0208925
0.0200662
0.0194503
0.0191
0.0190498
0.0193043
0.0198391
0.0206169
0.0216309
0.0228262
0.0241453
0.0255308
0.0269078
0.0281858
0.0292899
0.0301437
0.0307036
0.0309438
0.0308582
0.0304699
0.0298124
0.0289242
0.0278477
0.0266611
0.0254307
0.0242136
0.0230523
0.021984
0.021031
0.020202
0.0194985
0.0189071
0.0184013
0.0179532
0.0175285
0.0171205
0.0166949
0.0162151
0.0156691
0.0150666
0.0144352
0.0138057
0.0132013
0.0126601
0.0122265
0.0119446
0.011858
0.0119826
0.0123014
0.0128013
0.0134615
0.0142716
0.0152032
0.0162127
0.0172416
0.018233
0.0191415
0.0199239
0.0205433
0.0209702
0.0211849
0.0211746
0.0209377
0.020511
0.0199104
0.0191554
0.0182802
0.0173189
0.0163192
0.0153202
0.0143463
0.0134131
0.0125345
0.0117198
0.0109667
0.0102708
0.00962365
0.00900735
0.00841498
0.00784345
0.0072838
0.00673133
0.00617566
0.00563125
0.00511876
0.00465986
0.00427629
0.00399266
0.0038438
0.00383667
0.00397332
0.00428178
0.00474036
0.00534028
0.00606751
0.00689801
0.0078016
0.00874356
0.009691
0.0106093
0.0114629
0.0122202
0.0128506
0.0133278
0.0136429
0.0137853
0.0137493
0.0135445
0.0131786
0.0126537
0.011985
0.0111979
0.0103137
0.00935084
0.00832622
0.00725611
0.00615491
0.00502415
0.00389454
0.00273411
0.00164248
0.000421002
0.0219017
0.0211816
0.0206387
0.0203267
0.0202758
0.0204937
0.0209541
0.0216414
0.0225308
0.0235759
0.0247281
0.0259392
0.0271388
0.0282069
0.029125
0.029822
0.0302519
0.0303926
0.0302399
0.0298017
0.029106
0.028205
0.0271453
0.0259906
0.0247989
0.0236195
0.0224919
0.0214537
0.0205316
0.019732
0.0190581
0.018498
0.018033
0.0176317
0.0172649
0.0169256
0.0165627
0.0161719
0.0157437
0.0152714
0.0147689
0.0142603
0.0137727
0.0133414
0.0130032
0.0127944
0.0127482
0.0128826
0.0131824
0.0136442
0.0142485
0.0149785
0.0158063
0.016693
0.0175913
0.0184471
0.0192192
0.0198697
0.0203655
0.020682
0.0208025
0.0207199
0.0204371
0.0199627
0.0193324
0.0185634
0.017691
0.0167518
0.0157792
0.0148059
0.0138606
0.012959
0.0121103
0.0113267
0.0106106
0.00995701
0.00936416
0.00880377
0.00827218
0.0077685
0.00727672
0.00679163
0.00631418
0.00585518
0.00542987
0.00505489
0.00474894
0.0045323
0.00442629
0.00444423
0.00459658
0.0048942
0.00532914
0.00588994
0.00656211
0.00732496
0.00815117
0.00900642
0.00986392
0.0106891
0.011451
0.0121241
0.0126715
0.0130826
0.0133419
0.0134419
0.0133769
0.0131466
0.0127584
0.0122265
0.0115643
0.0107896
0.00992125
0.00897745
0.00797267
0.00692619
0.00585244
0.00475726
0.00365957
0.00256013
0.00150267
0.000431873
0.0225414
0.0219168
0.0214409
0.0211613
0.0211064
0.0212863
0.0216923
0.0223066
0.0231019
0.0240383
0.0250664
0.0261311
0.0271584
0.0281177
0.0289132
0.0295017
0.0298452
0.0299222
0.0297283
0.0292756
0.0285914
0.0277158
0.0266963
0.0255876
0.0244427
0.0233095
0.0222251
0.0212187
0.0203204
0.0195432
0.0188872
0.0183387
0.0178839
0.0174968
0.0171567
0.0168384
0.0165137
0.0161703
0.0158011
0.015403
0.0149819
0.014554
0.0141486
0.0137952
0.013525
0.0133681
0.0133501
0.0134878
0.0137719
0.0141994
0.0147553
0.0154195
0.0161643
0.0169558
0.0177493
0.0185072
0.0191827
0.0197444
0.0201606
0.0204062
0.0204654
0.0203362
0.0200293
0.019547
0.0189159
0.0181598
0.0173105
0.0164009
0.0154625
0.0145243
0.0136111
0.0127367
0.0119164
0.0111596
0.0104682
0.00983729
0.00925891
0.00872399
0.0082247
0.00775609
0.00730781
0.00686391
0.00643652
0.00603221
0.00566129
0.00534016
0.00508501
0.00491241
0.00483804
0.00487536
0.00503587
0.00532446
0.0057372
0.00626413
0.00689095
0.00759751
0.0083588
0.0091487
0.0099359
0.0106904
0.0113821
0.0119862
0.0124854
0.0128516
0.0130729
0.0131391
0.0130513
0.0128104
0.012422
0.0118966
0.0112467
0.0104884
0.00963984
0.00871804
0.00773857
0.00671841
0.00566813
0.00459979
0.0035275
0.0024657
0.0014268
0.000448387
0.0228456
0.0222988
0.0218826
0.0216403
0.0215992
0.0217702
0.0221488
0.0227186
0.0234532
0.024315
0.0252564
0.0262253
0.027164
0.0280218
0.0287263
0.0292391
0.0295263
0.0295682
0.0293608
0.0289149
0.0282542
0.0274145
0.0264408
0.025381
0.0242823
0.0231884
0.0221397
0.0211649
0.0202866
0.0195148
0.0188672
0.0183181
0.0178578
0.0174668
0.0171227
0.0168043
0.0164904
0.0161659
0.0158227
0.0154581
0.015079
0.014701
0.0143473
0.0140439
0.0138182
0.0136962
0.013699
0.0138388
0.0141151
0.0145215
0.0150448
0.0156648
0.0163545
0.0170833
0.0178116
0.0185047
0.0191099
0.0196092
0.0199722
0.0201763
0.0202083
0.0200647
0.0197508
0.0192756
0.0186597
0.0179277
0.0171074
0.0162284
0.0153199
0.0144087
0.0135174
0.0126619
0.0118589
0.0111165
0.0104354
0.00981674
0.00924232
0.00871636
0.00822821
0.00776936
0.00733347
0.00691471
0.00651531
0.0061405
0.00580063
0.00550978
0.005283
0.00513537
0.00508099
0.00513184
0.00529687
0.00557976
0.00597744
0.00648083
0.00707608
0.0077442
0.00846214
0.00920722
0.00994728
0.0106552
0.0113035
0.0118661
0.0123245
0.012662
0.0128636
0.012915
0.0128191
0.0125767
0.0121933
0.011678
0.0110429
0.0103028
0.00947383
0.00857191
0.00761282
0.00661193
0.00557809
0.00452967
0.00347561
0.00243235
0.00140533
0.000456042
0.0229904
0.0224812
0.0220931
0.0218667
0.0218287
0.0219907
0.0223496
0.0228904
0.0235873
0.0244044
0.0252972
0.0262123
0.0270889
0.0278728
0.0285355
0.0290197
0.02929
0.029327
0.029126
0.0286964
0.0280609
0.0272541
0.0263175
0.0252964
0.024236
0.0231767
0.0221548
0.0212051
0.020349
0.0196055
0.0189552
0.0184003
0.0179314
0.0175306
0.0171773
0.016851
0.0165321
0.0162058
0.0158646
0.0155081
0.0151428
0.014783
0.0144494
0.0141661
0.0139583
0.0138493
0.0138579
0.013995
0.0142618
0.0146525
0.0151543
0.015748
0.016408
0.0170996
0.0177857
0.0184223
0.0189999
0.0194749
0.0198182
0.0200091
0.0200351
0.0198922
0.0195842
0.0191217
0.0185232
0.0178123
0.0170154
0.0161611
0.0152766
0.0143865
0.0135118
0.0126736
0.0118837
0.0111507
0.0104799
0.0098605
0.00928932
0.00876246
0.00827334
0.00781483
0.00738097
0.0069672
0.00657448
0.00620898
0.00588065
0.00560219
0.00538764
0.00525109
0.00520562
0.00526227
0.00542869
0.0057078
0.00609674
0.00658697
0.00716486
0.00781228
0.00850724
0.00922536
0.00994057
0.0106236
0.0112487
0.0117901
0.0122284
0.0125441
0.0127247
0.0127746
0.0126801
0.0124416
0.0120647
0.0115583
0.0109341
0.0102063
0.0093904
0.00850183
0.00755598
0.00656734
0.00554812
0.00451184
0.00347041
0.00244176
0.00143502
0.000465875
-0.0212028
-0.0237732
-0.0261583
-0.0281026
-0.0293784
-0.0298464
-0.0294469
-0.0281679
-0.0260999
-0.0234081
-0.0203089
-0.0170483
-0.013878
-0.011006
-0.00864305
-0.00729436
-0.00613182
-0.0055853
-0.00600191
-0.0071458
-0.00863132
-0.010395
-0.012413
-0.0143981
-0.0161401
-0.0174635
-0.0182232
-0.0183947
-0.0179217
-0.0168417
-0.0152456
-0.0132731
-0.0110956
-0.00889364
-0.00684931
-0.00509805
-0.00339228
-0.00218263
-0.00274021
-0.00282007
-0.00343468
-0.00457911
-0.00598186
-0.00753068
-0.00910624
-0.0105378
-0.011686
-0.0124395
-0.0127459
-0.0125712
-0.0119263
-0.0108683
-0.00948765
-0.00790376
-0.00625464
-0.00467716
-0.00327055
-0.00217591
-0.00179618
-0.00134007
-0.00104489
-0.00149416
-0.00228401
-0.00324306
-0.00441285
-0.0056313
-0.00679124
-0.00781354
-0.00859573
-0.00907349
-0.00921983
-0.00903151
-0.00853075
-0.0077626
-0.00679834
-0.0057402
-0.00468726
-0.00369824
-0.00281814
-0.00202411
-0.00158768
-0.0020764
-0.00217481
-0.00268912
-0.00338329
-0.00409251
-0.00496531
-0.00580346
-0.00651458
-0.00704639
-0.00734501
-0.00737134
-0.00713128
-0.00664351
-0.00593704
-0.00506344
-0.00409895
-0.00312154
-0.00220334
-0.00140195
-0.000786452
-0.000659126
-0.000417885
-0.000156454
-0.000489988
-0.00105225
-0.00151868
-0.00210726
-0.00285551
-0.00353552
-0.0234464
-0.0262743
-0.0288393
-0.0308821
-0.0321765
-0.0325646
-0.0320172
-0.0305209
-0.0281701
-0.0251375
-0.0216497
-0.0179676
-0.014347
-0.010971
-0.00808094
-0.00649971
-0.00512074
-0.0037118
-0.00350646
-0.00401288
-0.00511117
-0.00659931
-0.00830938
-0.0100551
-0.0116531
-0.0129246
-0.0137275
-0.0140363
-0.0137804
-0.0129934
-0.0117557
-0.0101995
-0.0084939
-0.0068108
-0.00531574
-0.00406357
-0.00258469
-0.00177126
-0.00306528
-0.00383155
-0.00495571
-0.00654441
-0.00833721
-0.0101984
-0.0119993
-0.0135836
-0.0148078
-0.0155583
-0.0157734
-0.0154346
-0.0145567
-0.0132031
-0.0114754
-0.00950385
-0.00743636
-0.00540975
-0.00351521
-0.00192177
-0.00119221
-0.000461195
0.000380817
0.000507866
0.000242914
-0.000345929
-0.00120669
-0.00218049
-0.00315599
-0.00406298
-0.00480551
-0.00533531
-0.00560328
-0.00561585
-0.0053864
-0.00494812
-0.00433416
-0.0036373
-0.00300484
-0.0024953
-0.00214751
-0.0015821
-0.00128175
-0.00248248
-0.00316539
-0.004008
-0.00508865
-0.00621449
-0.00734302
-0.00837554
-0.00922467
-0.00982356
-0.0101176
-0.0100762
-0.00970265
-0.00901736
-0.00806459
-0.00690704
-0.0056221
-0.00429321
-0.00299636
-0.00178118
-0.000766616
-0.000349035
0.00015503
0.000783616
0.000936426
0.000857452
0.000650425
0.000262928
-0.000254657
-0.000800383
-0.00121841
-0.00150872
-0.00182428
-0.00205359
-0.00208958
-0.0019653
-0.00173735
-0.0015195
-0.00117414
-0.000761052
-0.000563046
-0.000422504
-0.0246643
-0.0277203
-0.0304333
-0.0325472
-0.0338398
-0.0341588
-0.0334757
-0.0317889
-0.0292002
-0.025889
-0.0220855
-0.0180499
-0.0140269
-0.010199
-0.00690815
-0.00480909
-0.00295529
-0.00125496
-0.000480813
-0.000509322
-0.00114832
-0.00226629
-0.00370941
-0.00527559
-0.00675793
-0.00798127
-0.0088588
-0.00929461
-0.00924354
-0.00874615
-0.00786384
-0.00671171
-0.00544993
-0.00422707
-0.00319613
-0.00221299
-0.0012726
-0.00150663
-0.00276821
-0.00415772
-0.00584738
-0.00785596
-0.0100136
-0.0121742
-0.014193
-0.0159164
-0.017204
-0.0179456
-0.0180763
-0.0175886
-0.016503
-0.014891
-0.0128618
-0.0105514
-0.00811078
-0.00567584
-0.00334902
-0.00138235
-0.000165652
0.00101528
0.00218724
0.00280928
0.00295495
0.00273089
0.00220958
0.00147764
0.00064061
-0.000193535
-0.000925019
-0.00149808
-0.0018785
-0.00206422
-0.00207473
-0.00196471
-0.00168348
-0.00134374
-0.00111211
-0.00105594
-0.00102089
-0.000824538