/*--------------------------------*- C++ -*----------------------------------*\
| =========                 |                                                 |
| \\      /  F ield         | OpenFOAM: The Open Source CFD Toolbox           |
|  \\    /   O peration     | Version:  2206                                  |
|   \\  /    A nd           | Website:  www.openfoam.com                      |
|    \\/     M anipulation  |                                                 |
\*---------------------------------------------------------------------------*/
FoamFile
{
    version     2.0;
    format      ascii;
    arch        "LSB;label=32;scalar=64";
    class       volVectorField;
    location    "18.6999";
    object      U_0;
}
// * * * * * * * * * * * * * * * * * * * * * * * * * * * * * * * * * * * * * //

dimensions      [0 1 -1 0 0 0 0];

internalField   nonuniform List<vector> 
3038
(
(1.64092 0.410627 0)
(1.66604 0.455626 0)
(1.69149 0.492165 0)
(1.7167 0.520618 0)
(1.7413 0.541329 0)
(1.7653 0.554371 0)
(1.78932 0.559112 0)
(1.81333 0.554285 0)
(1.83739 0.53891 0)
(1.86162 0.512169 0)
(1.88598 0.473462 0)
(1.91033 0.422528 0)
(1.93446 0.359585 0)
(1.95797 0.285455 0)
(1.98041 0.201728 0)
(2.00114 0.111031 0)
(2.01914 0.0174778 0)
(2.03337 -0.0741902 0)
(2.04329 -0.160683 0)
(2.04852 -0.23919 0)
(2.04884 -0.307539 0)
(2.04423 -0.364236 0)
(2.03488 -0.408592 0)
(2.02108 -0.440503 0)
(2.0024 -0.460192 0)
(1.97842 -0.467729 0)
(1.95003 -0.464789 0)
(1.91793 -0.45418 0)
(1.88329 -0.438317 0)
(1.84734 -0.418992 0)
(1.8113 -0.397063 0)
(1.77623 -0.372439 0)
(1.74299 -0.344355 0)
(1.7122 -0.31184 0)
(1.68436 -0.274112 0)
(1.65987 -0.230755 0)
(1.63915 -0.181767 0)
(1.62258 -0.127582 0)
(1.61051 -0.0690811 0)
(1.60318 -0.00760023 0)
(1.60067 0.0549882 0)
(1.60282 0.116636 0)
(1.6093 0.1757 0)
(1.61962 0.230627 0)
(1.6332 0.280086 0)
(1.64934 0.323061 0)
(1.66738 0.358885 0)
(1.68665 0.387214 0)
(1.70661 0.407962 0)
(1.72692 0.421117 0)
(1.74778 0.426342 0)
(1.76885 0.423023 0)
(1.78983 0.411027 0)
(1.81062 0.390431 0)
(1.83102 0.361448 0)
(1.85093 0.324384 0)
(1.87026 0.279625 0)
(1.88886 0.227686 0)
(1.90656 0.169294 0)
(1.92311 0.105555 0)
(1.93806 0.0382389 0)
(1.95063 -0.0296344 0)
(1.96018 -0.0953658 0)
(1.96629 -0.156747 0)
(1.96867 -0.211853 0)
(1.9671 -0.259208 0)
(1.96157 -0.297873 0)
(1.95229 -0.32742 0)
(1.93938 -0.347854 0)
(1.92239 -0.359211 0)
(1.90176 -0.361636 0)
(1.87815 -0.356612 0)
(1.85241 -0.345702 0)
(1.82561 -0.330222 0)
(1.79874 -0.311109 0)
(1.7727 -0.288806 0)
(1.74815 -0.263345 0)
(1.72559 -0.234535 0)
(1.70537 -0.20216 0)
(1.68778 -0.166105 0)
(1.6731 -0.126441 0)
(1.66156 -0.0834888 0)
(1.65338 -0.0378604 0)
(1.6487 0.00947908 0)
(1.64756 0.0570392 0)
(1.64982 0.103465 0)
(1.65523 0.147544 0)
(1.66344 0.188136 0)
(1.67402 0.224264 0)
(1.68648 0.25518 0)
(1.70031 0.2804 0)
(1.71504 0.299689 0)
(1.73032 0.312967 0)
(1.74614 0.320062 0)
(1.76252 0.320478 0)
(1.77901 0.313931 0)
(1.79551 0.300468 0)
(1.81176 0.280313 0)
(1.82757 0.253832 0)
(1.84283 0.221468 0)
(1.85744 0.183721 0)
(1.8713 0.141177 0)
(1.8843 0.0946087 0)
(1.8962 0.0451914 0)
(1.90646 -0.00507279 0)
(1.91453 -0.0541339 0)
(1.92001 -0.100418 0)
(1.9226 -0.142568 0)
(1.92216 -0.179516 0)
(1.91868 -0.210514 0)
(1.9123 -0.235207 0)
(1.90324 -0.253483 0)
(1.89135 -0.265329 0)
(1.87653 -0.270655 0)
(1.85944 -0.269973 0)
(1.84061 -0.264267 0)
(1.82084 -0.254349 0)
(1.80092 -0.240874 0)
(1.78155 -0.224269 0)
(1.76329 -0.204741 0)
(1.74655 -0.182355 0)
(1.62584 0.385419 0)
(1.65238 0.429389 0)
(1.67992 0.465555 0)
(1.70791 0.494048 0)
(1.73604 0.514945 0)
(1.76436 0.528017 0)
(1.79324 0.532505 0)
(1.82255 0.527369 0)
(1.85229 0.511736 0)
(1.88239 0.484817 0)
(1.9126 0.446101 0)
(1.94261 0.395448 0)
(1.97198 0.333191 0)
(2.00016 0.260265 0)
(2.02651 0.178408 0)
(2.05018 0.0903991 0)
(2.06988 0.000801359 0)
(2.0846 -0.0862754 0)
(2.09388 -0.167719 0)
(2.09741 -0.240928 0)
(2.09511 -0.303939 0)
(2.08711 -0.355427 0)
(2.0738 -0.394734 0)
(2.05516 -0.421677 0)
(2.03045 -0.436055 0)
(2.00044 -0.438418 0)
(1.96583 -0.431429 0)
(1.92781 -0.417901 0)
(1.88776 -0.400362 0)
(1.84704 -0.380619 0)
(1.80698 -0.359454 0)
(1.76848 -0.336518 0)
(1.73227 -0.310804 0)
(1.699 -0.281214 0)
(1.6691 -0.246841 0)
(1.6429 -0.207209 0)
(1.62075 -0.162316 0)
(1.603 -0.112578 0)
(1.58996 -0.0588167 0)
(1.58187 -0.00225253 0)
(1.57882 0.0554547 0)
(1.58065 0.112461 0)
(1.58707 0.167272 0)
(1.59762 0.21847 0)
(1.61175 0.264823 0)
(1.62883 0.305359 0)
(1.6482 0.339396 0)
(1.66925 0.36651 0)
(1.69146 0.386457 0)
(1.71457 0.399 0)
(1.73858 0.4037 0)
(1.76305 0.400118 0)
(1.7877 0.38815 0)
(1.81231 0.367805 0)
(1.83661 0.339252 0)
(1.86037 0.302779 0)
(1.88337 0.25879 0)
(1.90538 0.20784 0)
(1.92613 0.15071 0)
(1.94526 0.0886156 0)
(1.96209 0.0236636 0)
(1.97568 -0.0410554 0)
(1.98542 -0.103162 0)
(1.99089 -0.16055 0)
(1.99181 -0.21144 0)
(1.98809 -0.254518 0)
(1.97986 -0.288982 0)
(1.96732 -0.314501 0)
(1.95022 -0.330962 0)
(1.92859 -0.338171 0)
(1.90327 -0.337183 0)
(1.87508 -0.329736 0)
(1.84517 -0.317425 0)
(1.81471 -0.301585 0)
(1.78473 -0.283061 0)
(1.75606 -0.262129 0)
(1.72934 -0.238616 0)
(1.70495 -0.21215 0)
(1.68318 -0.182408 0)
(1.6643 -0.149243 0)
(1.64853 -0.112716 0)
(1.63612 -0.0731261 0)
(1.62727 -0.0310423 0)
(1.62212 0.0126473 0)
(1.62071 0.0566149 0)
(1.62291 0.0996372 0)
(1.62849 0.140604 0)
(1.6371 0.178466 0)
(1.64835 0.212318 0)
(1.66175 0.241446 0)
(1.67685 0.26535 0)
(1.69319 0.283704 0)
(1.71046 0.296277 0)
(1.72862 0.302749 0)
(1.74747 0.302698 0)
(1.76662 0.295977 0)
(1.78589 0.282613 0)
(1.80497 0.262786 0)
(1.82362 0.236816 0)
(1.84166 0.205109 0)
(1.85891 0.168148 0)
(1.87522 0.126539 0)
(1.89038 0.0811392 0)
(1.90395 0.0333402 0)
(1.91523 -0.014673 0)
(1.92369 -0.0610548 0)
(1.92891 -0.104247 0)
(1.93057 -0.143084 0)
(1.92864 -0.176763 0)
(1.92329 -0.204626 0)
(1.9147 -0.226267 0)
(1.90275 -0.241554 0)
(1.88728 -0.250346 0)
(1.86891 -0.252908 0)
(1.84828 -0.250271 0)
(1.82621 -0.243397 0)
(1.80361 -0.233111 0)
(1.78128 -0.220015 0)
(1.75989 -0.204413 0)
(1.73996 -0.186359 0)
(1.72183 -0.165776 0)
(1.61422 0.359194 0)
(1.64199 0.401523 0)
(1.67137 0.436631 0)
(1.70188 0.464442 0)
(1.73326 0.484786 0)
(1.76559 0.497215 0)
(1.79901 0.50095 0)
(1.83321 0.495144 0)
(1.86818 0.479006 0)
(1.90363 0.451834 0)
(1.93915 0.413228 0)
(1.97423 0.363163 0)
(2.00826 0.302087 0)
(2.04052 0.231035 0)
(2.07023 0.15186 0)
(2.09624 0.0677486 0)
(2.11707 -0.0167389 0)
(2.13185 -0.0980947 0)
(2.14012 -0.173432 0)
(2.14169 -0.240399 0)
(2.13658 -0.297254 0)
(2.12513 -0.342807 0)
(2.10764 -0.376354 0)
(2.08347 -0.397448 0)
(2.05284 -0.405717 0)
(2.01666 -0.403003 0)
(1.97597 -0.392163 0)
(1.93232 -0.376147 0)
(1.8873 -0.357581 0)
(1.84256 -0.338232 0)
(1.7992 -0.318505 0)
(1.75802 -0.297791 0)
(1.71965 -0.274945 0)
(1.68458 -0.248671 0)
(1.65328 -0.217998 0)
(1.62603 -0.182398 0)
(1.60306 -0.141848 0)
(1.58468 -0.0967605 0)
(1.57116 -0.0479114 0)
(1.56271 0.00357665 0)
(1.5594 0.0562339 0)
(1.56112 0.108405 0)
(1.56759 0.158737 0)
(1.57839 0.205939 0)
(1.59304 0.248871 0)
(1.61093 0.286606 0)
(1.63148 0.318446 0)
(1.65413 0.34389 0)
(1.6784 0.362557 0)
(1.70406 0.374047 0)
(1.73093 0.377908 0)
(1.75848 0.373833 0)
(1.78645 0.361707 0)
(1.8145 0.341508 0)
(1.84227 0.313381 0)
(1.86944 0.277611 0)
(1.89569 0.23461 0)
(1.92071 0.18495 0)
(1.94413 0.129474 0)
(1.96544 0.0696021 0)
(1.98368 0.00786682 0)
(1.99784 -0.0529054 0)
(2.00731 -0.110543 0)
(2.01167 -0.163123 0)
(2.01074 -0.209076 0)
(2.00457 -0.247229 0)
(1.99339 -0.276904 0)
(1.97708 -0.297775 0)
(1.95536 -0.309431 0)
(1.92909 -0.312288 0)
(1.89907 -0.308076 0)
(1.86658 -0.298554 0)
(1.83298 -0.285368 0)
(1.79951 -0.269795 0)
(1.76724 -0.252506 0)
(1.73676 -0.233455 0)
(1.70854 -0.212239 0)
(1.68292 -0.188368 0)
(1.66019 -0.161498 0)
(1.64055 -0.13144 0)
(1.62419 -0.098243 0)
(1.61134 -0.0621915 0)
(1.60217 -0.0238188 0)
(1.59684 0.0160618 0)
(1.59537 0.0562728 0)
(1.59764 0.0957122 0)
(1.60344 0.13337 0)
(1.61246 0.168286 0)
(1.62431 0.199619 0)
(1.63857 0.226679 0)
(1.6548 0.248943 0)
(1.67259 0.266013 0)
(1.69169 0.277536 0)
(1.71197 0.283124 0)
(1.73305 0.282455 0)
(1.75461 0.275445 0)
(1.77637 0.262097 0)
(1.79799 0.242564 0)
(1.81919 0.217129 0)
(1.83973 0.18617 0)
(1.85937 0.150158 0)
(1.87786 0.109733 0)
(1.89484 0.0658873 0)
(1.90958 0.0203468 0)
(1.92131 -0.0247572 0)
(1.9296 -0.0677699 0)
(1.93397 -0.107231 0)
(1.93448 -0.142294 0)
(1.9312 -0.172318 0)
(1.92372 -0.196511 0)
(1.91243 -0.214554 0)
(1.89698 -0.22623 0)
(1.87791 -0.231589 0)
(1.85598 -0.231591 0)
(1.83209 -0.227287 0)
(1.80725 -0.219637 0)
(1.78238 -0.209432 0)
(1.75829 -0.197166 0)
(1.73554 -0.182964 0)
(1.71451 -0.166682 0)
(1.6955 -0.148137 0)
(1.60541 0.332097 0)
(1.63428 0.372217 0)
(1.66532 0.405629 0)
(1.69814 0.432066 0)
(1.73254 0.45116 0)
(1.76857 0.462332 0)
(1.80602 0.464873 0)
(1.84468 0.458092 0)
(1.88432 0.441262 0)
(1.92451 0.413815 0)
(1.96466 0.375479 0)
(2.00411 0.32635 0)
(2.04206 0.266956 0)
(2.07772 0.198413 0)
(2.11014 0.122764 0)
(2.1378 0.043682 0)
(2.15922 -0.0346551 0)
(2.17361 -0.109244 0)
(2.1805 -0.177524 0)
(2.17982 -0.237406 0)
(2.17178 -0.28734 0)
(2.15675 -0.326199 0)
(2.13446 -0.353135 0)
(2.10454 -0.367266 0)
(2.06796 -0.369221 0)
(2.02562 -0.361515 0)
(1.97913 -0.347155 0)
(1.93032 -0.329307 0)
(1.88116 -0.310647 0)
(1.83317 -0.292525 0)
(1.78728 -0.274915 0)
(1.74422 -0.256976 0)
(1.70451 -0.23744 0)
(1.66852 -0.214926 0)
(1.63657 -0.188281 0)
(1.60896 -0.156967 0)
(1.58582 -0.120952 0)
(1.56737 -0.0806461 0)
(1.55384 -0.0368058 0)
(1.54542 0.00953273 0)
(1.54218 0.0570603 0)
(1.54401 0.104295 0)
(1.55067 0.150004 0)
(1.5618 0.193015 0)
(1.57696 0.232277 0)
(1.59562 0.2669 0)
(1.61725 0.296172 0)
(1.64136 0.319529 0)
(1.66753 0.336471 0)
(1.69552 0.346523 0)
(1.7249 0.349283 0)
(1.75521 0.344525 0)
(1.7861 0.332097 0)
(1.81715 0.311972 0)
(1.84793 0.284293 0)
(1.87805 0.249338 0)
(1.90709 0.207521 0)
(1.93466 0.159432 0)
(1.96032 0.106027 0)
(1.98327 0.049055 0)
(2.0023 -0.00863706 0)
(2.01648 -0.0646508 0)
(2.02512 -0.116984 0)
(2.02783 -0.163997 0)
(2.02463 -0.204344 0)
(2.01573 -0.237004 0)
(2.0011 -0.261362 0)
(1.98029 -0.276771 0)
(1.95392 -0.283081 0)
(1.92282 -0.281783 0)
(1.88837 -0.274693 0)
(1.85212 -0.263673 0)
(1.81557 -0.250371 0)
(1.78007 -0.235839 0)
(1.74629 -0.220288 0)
(1.71475 -0.203453 0)
(1.68579 -0.184826 0)
(1.65967 -0.163828 0)
(1.6366 -0.140016 0)
(1.61677 -0.113224 0)
(1.60033 -0.0834859 0)
(1.58746 -0.0510782 0)
(1.57835 -0.0165099 0)
(1.57311 0.0194721 0)
(1.5718 0.0558354 0)
(1.57429 0.0915837 0)
(1.5804 0.125798 0)
(1.58985 0.157602 0)
(1.60229 0.186211 0)
(1.61734 0.210957 0)
(1.63461 0.231294 0)
(1.65375 0.246758 0)
(1.67453 0.256926 0)
(1.69668 0.261422 0)
(1.71975 0.260015 0)
(1.74343 0.252616 0)
(1.76738 0.239215 0)
(1.79124 0.219946 0)
(1.81469 0.195065 0)
(1.83744 0.164925 0)
(1.85917 0.130012 0)
(1.87953 0.0910704 0)
(1.89785 0.0493766 0)
(1.91316 0.00690996 0)
(1.92483 -0.0346355 0)
(1.93252 -0.0737539 0)
(1.93528 -0.109301 0)
(1.935 -0.140219 0)
(1.92944 -0.16593 0)
(1.91933 -0.185807 0)
(1.90454 -0.199619 0)
(1.8854 -0.20717 0)
(1.86271 -0.209289 0)
(1.83749 -0.207068 0)
(1.81087 -0.201557 0)
(1.78393 -0.193697 0)
(1.75763 -0.184158 0)
(1.73255 -0.173166 0)
(1.70911 -0.160637 0)
(1.68759 -0.146339 0)
(1.66824 -0.129998 0)
(1.59874 0.304197 0)
(1.62862 0.341594 0)
(1.6612 0.372718 0)
(1.69616 0.397139 0)
(1.73336 0.414347 0)
(1.77266 0.423758 0)
(1.81369 0.424766 0)
(1.85626 0.416757 0)
(1.89993 0.399118 0)
(1.94414 0.371437 0)
(1.98816 0.333583 0)
(2.03116 0.285741 0)
(2.07229 0.228487 0)
(2.11064 0.163031 0)
(2.145 0.0917805 0)
(2.17355 0.0187911 0)
(2.19501 -0.0524603 0)
(2.2085 -0.119306 0)
(2.21357 -0.179644 0)
(2.21031 -0.231712 0)
(2.19916 -0.273962 0)
(2.18007 -0.305291 0)
(2.15231 -0.324543 0)
(2.11668 -0.331064 0)
(2.07394 -0.32672 0)
(2.02565 -0.314237 0)
(1.97384 -0.296961 0)
(1.92071 -0.278236 0)
(1.86843 -0.260465 0)
(1.81812 -0.244376 0)
(1.7707 -0.229589 0)
(1.72674 -0.215021 0)
(1.68662 -0.199243 0)
(1.65059 -0.180798 0)
(1.61884 -0.158477 0)
(1.59154 -0.131607 0)
(1.56887 -0.100229 0)
(1.55089 -0.0647522 0)
(1.53783 -0.0259289 0)
(1.52983 0.0152626 0)
(1.52697 0.0576542 0)
(1.52916 0.0999327 0)
(1.53618 0.140952 0)
(1.54773 0.179647 0)
(1.56344 0.215046 0)
(1.58287 0.246297 0)
(1.60553 0.272673 0)
(1.63102 0.293552 0)
(1.65897 0.308385 0)
(1.68899 0.316706 0)
(1.72056 0.318177 0)
(1.75326 0.312573 0)
(1.78664 0.299733 0)
(1.82022 0.279649 0)
(1.85352 0.25246 0)
(1.88608 0.218437 0)
(1.91744 0.177987 0)
(1.94712 0.131744 0)
(1.97446 0.0808607 0)
(1.99821 0.0276221 0)
(2.01719 -0.0253257 0)
(2.03063 -0.0757451 0)
(2.03783 -0.12179 0)
(2.0384 -0.162499 0)
(2.03257 -0.196828 0)
(2.02055 -0.223522 0)
(2.00157 -0.241712 0)
(1.97592 -0.25078 0)
(1.9445 -0.251871 0)
(1.90874 -0.246757 0)
(1.87038 -0.237428 0)
(1.83123 -0.225823 0)
(1.79292 -0.213354 0)
(1.75629 -0.200516 0)
(1.72194 -0.187198 0)
(1.69022 -0.172952 0)
(1.66136 -0.157168 0)
(1.6355 -0.139219 0)
(1.61278 -0.118614 0)
(1.59332 -0.095147 0)
(1.57729 -0.0689133 0)
(1.56482 -0.0401826 0)
(1.55609 -0.00944207 0)
(1.55124 0.0226215 0)
(1.55029 0.0551152 0)
(1.55316 0.0871291 0)
(1.55968 0.117826 0)
(1.56961 0.146404 0)
(1.58266 0.172127 0)
(1.59849 0.194345 0)
(1.61676 0.212491 0)
(1.63718 0.226068 0)
(1.65947 0.234648 0)
(1.6832 0.237905 0)
(1.708 0.235656 0)
(1.73351 0.227779 0)
(1.75935 0.214264 0)
(1.78514 0.195235 0)
(1.81053 0.170921 0)
(1.83518 0.14168 0)
(1.8587 0.10807 0)
(1.8805 0.0710273 0)
(1.89957 0.0322162 0)
(1.91502 -0.00661415 0)
(1.92627 -0.04398 0)
(1.93269 -0.0786646 0)
(1.93421 -0.109668 0)
(1.93114 -0.135933 0)
(1.92258 -0.156724 0)
(1.90882 -0.171758 0)
(1.89012 -0.180742 0)
(1.86721 -0.184357 0)
(1.84119 -0.183671 0)
(1.81333 -0.179792 0)
(1.78483 -0.173774 0)
(1.75682 -0.166416 0)
(1.72993 -0.158046 0)
(1.70462 -0.148646 0)
(1.68118 -0.138009 0)
(1.65981 -0.125834 0)
(1.64066 -0.111805 0)
(1.59352 0.275501 0)
(1.62438 0.309724 0)
(1.65841 0.338023 0)
(1.69538 0.359859 0)
(1.73508 0.374685 0)
(1.77715 0.381964 0)
(1.8213 0.381186 0)
(1.86715 0.371792 0)
(1.91415 0.353327 0)
(1.96159 0.325543 0)
(2.00863 0.288429 0)
(2.05438 0.242221 0)
(2.09794 0.187527 0)
(2.13826 0.125747 0)
(2.17362 0.0598904 0)
(2.20229 -0.00626594 0)
(2.22311 -0.0696179 0)
(2.23511 -0.127824 0)
(2.23779 -0.179364 0)
(2.23162 -0.22284 0)
(2.2169 -0.256769 0)
(2.1928 -0.279673 0)
(2.15948 -0.29002 0)
(2.1176 -0.288797 0)
(2.06867 -0.278234 0)
(2.01482 -0.261516 0)
(1.95852 -0.242338 0)
(1.90246 -0.223975 0)
(1.8482 -0.208072 0)
(1.79685 -0.194854 0)
(1.74911 -0.183581 0)
(1.70541 -0.172916 0)
(1.66593 -0.161283 0)
(1.63077 -0.147159 0)
(1.60002 -0.129302 0)
(1.57375 -0.106994 0)
(1.55212 -0.0802597 0)
(1.53517 -0.0495837 0)
(1.52301 -0.0157123 0)
(1.51581 0.0204104 0)
(1.51364 0.0577421 0)
(1.51643 0.0951123 0)
(1.524 0.131437 0)
(1.53611 0.165746 0)
(1.55246 0.197133 0)
(1.57268 0.22478 0)
(1.5964 0.247966 0)
(1.62323 0.26606 0)
(1.65276 0.27852 0)
(1.68447 0.284921 0)
(1.7179 0.284967 0)
(1.75258 0.278406 0)
(1.788 0.265103 0)
(1.82363 0.245062 0)
(1.85896 0.218414 0)
(1.89349 0.185411 0)
(1.92672 0.146484 0)
(1.95802 0.102428 0)
(1.98618 0.0549073 0)
(2.00964 0.00641164 0)
(2.02746 -0.0409594 0)
(2.03909 -0.0851798 0)
(2.0434 -0.124827 0)
(2.04269 -0.158814 0)
(2.03378 -0.186424 0)
(2.01727 -0.206128 0)
(1.99311 -0.216939 0)
(1.96201 -0.219636 0)
(1.92552 -0.215888 0)
(1.88563 -0.207716 0)
(1.8444 -0.197261 0)
(1.80381 -0.186246 0)
(1.7649 -0.175434 0)
(1.72835 -0.164881 0)
(1.69454 -0.154232 0)
(1.66367 -0.14288 0)
(1.63579 -0.130109 0)
(1.61094 -0.115259 0)
(1.58919 -0.0978628 0)
(1.57064 -0.0777208 0)
(1.55546 -0.0549531 0)
(1.54377 -0.0298613 0)
(1.53575 -0.0029078 0)
(1.53154 0.0252803 0)
(1.53117 0.0539367 0)
(1.53457 0.0822158 0)
(1.54162 0.109356 0)
(1.55212 0.13462 0)
(1.56583 0.157317 0)
(1.58247 0.176819 0)
(1.60174 0.192566 0)
(1.62335 0.204067 0)
(1.64688 0.21092 0)
(1.67196 0.212856 0)
(1.69822 0.20967 0)
(1.72526 0.201242 0)
(1.75268 0.187566 0)
(1.7801 0.168746 0)
(1.80714 0.145008 0)
(1.8334 0.116752 0)
(1.8583 0.0846923 0)
(1.88086 0.0501725 0)
(1.89991 0.0149 0)
(1.91464 -0.0196837 0)
(1.92443 -0.0522752 0)
(1.92894 -0.0818448 0)
(1.92796 -0.107495 0)
(1.92135 -0.128377 0)
(1.90885 -0.143854 0)
(1.89087 -0.15349 0)
(1.86815 -0.157934 0)
(1.84182 -0.158209 0)
(1.81326 -0.155439 0)
(1.7838 -0.150759 0)
(1.75469 -0.14507 0)
(1.72664 -0.138794 0)
(1.70013 -0.131975 0)
(1.67543 -0.12442 0)
(1.6527 -0.115816 0)
(1.63206 -0.105809 0)
(1.61362 -0.0940785 0)
(1.58915 0.246015 0)
(1.62097 0.276654 0)
(1.6564 0.301668 0)
(1.69519 0.320476 0)
(1.73694 0.332549 0)
(1.78137 0.337445 0)
(1.82806 0.334681 0)
(1.87651 0.323821 0)
(1.92606 0.304578 0)
(1.97592 0.276854 0)
(2.0252 0.240709 0)
(2.07304 0.196377 0)
(2.11847 0.1446 0)
(2.15994 0.0872929 0)
(2.19528 0.0278164 0)
(2.22298 -0.0306887 0)
(2.24194 -0.0852325 0)
(2.25134 -0.133805 0)
(2.25151 -0.175878 0)
(2.24213 -0.210491 0)
(2.22275 -0.235345 0)
(2.19288 -0.24819 0)
(2.15287 -0.249251 0)
(2.10423 -0.240276 0)
(2.04931 -0.224044 0)
(1.99075 -0.204237 0)
(1.93174 -0.184705 0)
(1.87435 -0.167951 0)
(1.81983 -0.15491 0)
(1.76907 -0.14535 0)
(1.72254 -0.138192 0)
(1.68041 -0.13185 0)
(1.6427 -0.124597 0)
(1.60935 -0.114879 0)
(1.58036 -0.101496 0)
(1.55579 -0.0837417 0)
(1.53573 -0.0615862 0)
(1.52026 -0.0356042 0)
(1.50942 -0.0065505 0)
(1.50337 0.024655 0)
(1.50217 0.0570426 0)
(1.5058 0.0895952 0)
(1.51412 0.121277 0)
(1.52696 0.151172 0)
(1.54409 0.178446 0)
(1.56522 0.202331 0)
(1.59 0.222126 0)
(1.61801 0.23721 0)
(1.64882 0.247128 0)
(1.68195 0.251505 0)
(1.71688 0.250016 0)
(1.75311 0.242431 0)
(1.79008 0.228638 0)
(1.82728 0.208642 0)
(1.86419 0.182558 0)
(1.90029 0.150635 0)
(1.93499 0.113421 0)
(1.96715 0.0722266 0)
(1.9951 0.0292435 0)
(2.0176 -0.0136594 0)
(2.03376 -0.0546808 0)
(2.04255 -0.0923306 0)
(2.04408 -0.125199 0)
(2.04004 -0.152054 0)
(2.02562 -0.171831 0)
(2.00309 -0.183048 0)
(1.97271 -0.18634 0)
(1.93594 -0.183189 0)
(1.89505 -0.175571 0)
(1.85236 -0.165748 0)
(1.81017 -0.155673 0)
(1.76972 -0.14633 0)
(1.73178 -0.137928 0)
(1.69676 -0.130196 0)
(1.66477 -0.122542 0)
(1.6358 -0.114209 0)
(1.60977 -0.104447 0)
(1.58665 -0.0926273 0)
(1.56648 -0.0783358 0)
(1.54935 -0.0614233 0)
(1.53542 -0.0420136 0)
(1.52487 -0.0204525 0)
(1.51783 0.00281369 0)
(1.51448 0.0272155 0)
(1.51486 0.0520887 0)
(1.51896 0.0766875 0)
(1.52668 0.100276 0)
(1.53787 0.122181 0)
(1.55233 0.141765 0)
(1.56982 0.158431 0)
(1.59003 0.171632 0)
(1.61259 0.180933 0)
(1.63716 0.185995 0)
(1.66335 0.186531 0)
(1.69078 0.182334 0)
(1.71905 0.173293 0)
(1.74778 0.159401 0)
(1.77656 0.140755 0)
(1.80498 0.11761 0)
(1.83242 0.0905104 0)
(1.85782 0.0605911 0)
(1.8799 0.0294345 0)
(1.89769 -0.00158002 0)
(1.91042 -0.0311632 0)
(1.91759 -0.0582855 0)
(1.91894 -0.0820986 0)
(1.9143 -0.101904 0)
(1.90327 -0.116935 0)
(1.88621 -0.126438 0)
(1.86394 -0.13101 0)
(1.83771 -0.13166 0)
(1.80898 -0.129506 0)
(1.77921 -0.125718 0)
(1.74974 -0.121262 0)
(1.72132 -0.116624 0)
(1.69441 -0.11188 0)
(1.66925 -0.106852 0)
(1.64598 -0.101234 0)
(1.62465 -0.0946577 0)
(1.60531 -0.0867621 0)
(1.58805 -0.0772458 0)
(1.58512 0.215669 0)
(1.61796 0.242433 0)
(1.65461 0.26381 0)
(1.6948 0.279282 0)
(1.73822 0.288414 0)
(1.78447 0.290782 0)
(1.83306 0.285998 0)
(1.88337 0.273764 0)
(1.93469 0.253915 0)
(1.98622 0.226408 0)
(2.0372 0.191299 0)
(2.08679 0.148961 0)
(2.13362 0.100613 0)
(2.17542 0.0489306 0)
(2.21004 -0.00311683 0)
(2.23578 -0.0527981 0)
(2.25152 -0.0979928 0)
(2.25621 -0.137409 0)
(2.25481 -0.169721 0)
(2.2399 -0.194432 0)
(2.21334 -0.20783 0)
(2.17542 -0.20968 0)
(2.12733 -0.2014 0)
(2.07177 -0.185353 0)
(2.01182 -0.164944 0)
(1.95097 -0.144145 0)
(1.89174 -0.12603 0)
(1.83546 -0.11216 0)
(1.78306 -0.102907 0)
(1.73502 -0.0976488 0)
(1.69149 -0.0949853 0)
(1.6524 -0.0931082 0)
(1.61761 -0.0902209 0)
(1.58698 -0.0848084 0)
(1.56047 -0.0757522 0)
(1.53814 -0.0623967 0)
(1.52011 -0.0446925 0)
(1.5065 -0.0232292 0)
(1.49734 0.00118869 0)
(1.49274 0.0276719 0)
(1.49278 0.0553118 0)
(1.49746 0.0831574 0)
(1.50673 0.110266 0)
(1.52046 0.135769 0)
(1.53846 0.158881 0)
(1.56047 0.178889 0)
(1.58617 0.195168 0)
(1.61518 0.207192 0)
(1.64705 0.21453 0)
(1.68129 0.216825 0)
(1.71734 0.213789 0)
(1.75467 0.205198 0)
(1.79276 0.190921 0)
(1.83112 0.17095 0)
(1.86926 0.145403 0)
(1.90657 0.11462 0)
(1.94195 0.0796194 0)
(1.97365 0.042308 0)
(2.00022 0.00444869 0)
(2.02045 -0.0321213 0)
(2.03365 -0.0659113 0)
(2.03836 -0.096114 0)
(2.03621 -0.121301 0)
(2.02413 -0.140054 0)
(2.00277 -0.150372 0)
(1.97298 -0.153117 0)
(1.93621 -0.149745 0)
(1.89484 -0.142088 0)
(1.85148 -0.132451 0)
(1.80867 -0.122931 0)
(1.76777 -0.114639 0)
(1.72958 -0.107901 0)
(1.69449 -0.102512 0)
(1.66255 -0.0978983 0)
(1.63365 -0.0932958 0)
(1.6076 -0.0878976 0)
(1.58425 -0.0809756 0)
(1.56353 -0.0719744 0)
(1.54548 -0.0605689 0)
(1.53021 -0.0466785 0)
(1.51791 -0.0304542 0)
(1.50878 -0.0122511 0)
(1.50299 0.00748841 0)
(1.50071 0.0282544 0)
(1.50202 0.0494492 0)
(1.50692 0.0704041 0)
(1.51539 0.0904544 0)
(1.52733 0.10897 0)
(1.54255 0.125369 0)
(1.5608 0.139127 0)
(1.5818 0.149777 0)
(1.60517 0.156901 0)
(1.63057 0.160142 0)
(1.65764 0.159224 0)
(1.68602 0.153953 0)
(1.71531 0.144223 0)
(1.74514 0.130032 0)
(1.77503 0.111519 0)
(1.80429 0.08912 0)
(1.83175 0.0638872 0)
(1.85604 0.0371893 0)
(1.87607 0.0102721 0)
(1.89092 -0.0156477 0)
(1.90002 -0.0395648 0)
(1.90316 -0.0606719 0)
(1.90007 -0.0783991 0)
(1.89027 -0.0919468 0)
(1.87413 -0.100452 0)
(1.85249 -0.104489 0)
(1.82672 -0.104981 0)
(1.79842 -0.103027 0)
(1.76911 -0.0997924 0)
(1.74017 -0.0962424 0)
(1.71233 -0.0928691 0)
(1.686 -0.0897575 0)
(1.66138 -0.0867548 0)
(1.63852 -0.0835686 0)
(1.61745 -0.0798297 0)
(1.59814 -0.0751562 0)
(1.58062 -0.0692112 0)
(1.56496 -0.0617398 0)
(1.5808 0.184538 0)
(1.61425 0.207223 0)
(1.65177 0.224815 0)
(1.69305 0.236814 0)
(1.7377 0.242822 0)
(1.78524 0.242519 0)
(1.83509 0.235648 0)
(1.88656 0.222014 0)
(1.939 0.20151 0)
(1.99182 0.174116 0)
(2.04447 0.139984 0)
(2.09583 0.0998793 0)
(2.14337 0.0559271 0)
(2.18448 0.010846 0)
(2.21674 -0.0325218 0)
(2.23906 -0.072075 0)
(2.24966 -0.107098 0)
(2.25055 -0.136481 0)
(2.24084 -0.158786 0)
(2.21591 -0.170251 0)
(2.17834 -0.170864 0)
(2.13009 -0.162088 0)
(2.07383 -0.145805 0)
(2.01311 -0.125009 0)
(1.95189 -0.103483 0)
(1.89273 -0.084279 0)
(1.83695 -0.0692782 0)
(1.78534 -0.0593868 0)
(1.73821 -0.0545599 0)
(1.69553 -0.0538494 0)
(1.65711 -0.0556285 0)
(1.62269 -0.0579988 0)
(1.59201 -0.0591741 0)
(1.56495 -0.0577245 0)
(1.5415 -0.0526587 0)
(1.52178 -0.0434211 0)
(1.50601 -0.0299393 0)
(1.49445 -0.0127709 0)
(1.48714 0.00725066 0)
(1.4842 0.0292505 0)
(1.48568 0.0523639 0)
(1.4916 0.0756718 0)
(1.50192 0.0982885 0)
(1.5166 0.119445 0)
(1.53547 0.138429 0)
(1.5583 0.154592 0)
(1.58481 0.167368 0)
(1.61462 0.176287 0)
(1.6473 0.180983 0)
(1.68233 0.181165 0)
(1.71912 0.176565 0)
(1.75715 0.166933 0)
(1.79599 0.152105 0)
(1.83522 0.132062 0)
(1.87423 0.107041 0)
(1.9118 0.077897 0)
(1.94604 0.0463153 0)
(1.97536 0.0139699 0)
(1.99822 -0.017525 0)
(2.01333 -0.0469084 0)
(2.02075 -0.0727264 0)
(2.01974 -0.0944479 0)
(2.0088 -0.110736 0)
(1.98798 -0.119271 0)
(1.95823 -0.120663 0)
(1.92148 -0.116385 0)
(1.88023 -0.108288 0)
(1.83728 -0.0986392 0)
(1.79527 -0.08952 0)
(1.75547 -0.0820588 0)
(1.71866 -0.0766402 0)
(1.68509 -0.0731088 0)
(1.65474 -0.0709401 0)
(1.62736 -0.069385 0)
(1.60268 -0.0676123 0)
(1.58043 -0.064831 0)
(1.56043 -0.0603917 0)
(1.54262 -0.0538569 0)
(1.52708 -0.0450158 0)
(1.514 -0.0338615 0)
(1.5036 -0.0205731 0)
(1.49613 -0.00550747 0)
(1.4918 0.0108943 0)
(1.49077 0.0282084 0)
(1.49312 0.045898 0)
(1.4989 0.0633221 0)
(1.50815 0.0798828 0)
(1.52081 0.0950344 0)
(1.53674 0.108275 0)
(1.5557 0.11915 0)
(1.57736 0.127232 0)
(1.60139 0.132124 0)
(1.62746 0.133483 0)
(1.65525 0.131043 0)
(1.6844 0.124625 0)
(1.71455 0.114134 0)
(1.74514 0.0996442 0)
(1.77535 0.0815598 0)
(1.80379 0.0608846 0)
(1.8291 0.0387438 0)
(1.85011 0.0162585 0)
(1.86585 -0.00547168 0)
(1.87576 -0.0255238 0)
(1.87964 -0.0432519 0)
(1.87719 -0.0582054 0)
(1.86793 -0.0693818 0)
(1.85229 -0.0761474 0)
(1.83124 -0.0790854 0)
(1.80627 -0.0790229 0)
(1.77904 -0.077001 0)
(1.75113 -0.0741377 0)
(1.72385 -0.0713104 0)
(1.69776 -0.0689445 0)
(1.67322 -0.0671175 0)
(1.65031 -0.0657017 0)
(1.62905 -0.0644302 0)
(1.60934 -0.0629477 0)
(1.59113 -0.0608716 0)
(1.57436 -0.0578482 0)
(1.55907 -0.0535943 0)
(1.54535 -0.0479181 0)
(1.5782 0.153088 0)
(1.61063 0.171282 0)
(1.64781 0.184825 0)
(1.68924 0.193195 0)
(1.73442 0.196082 0)
(1.78272 0.19332 0)
(1.83349 0.184725 0)
(1.88614 0.170029 0)
(1.94029 0.148957 0)
(1.9956 0.121185 0)
(2.05092 0.0873333 0)
(2.10298 0.0499513 0)
(2.1484 0.011672 0)
(2.18468 -0.02472 0)
(2.2105 -0.057073 0)
(2.22382 -0.0856986 0)
(2.2266 -0.109344 0)
(2.21487 -0.127143 0)
(2.18855 -0.134965 0)
(2.14925 -0.132676 0)
(2.09948 -0.122144 0)
(2.04249 -0.105387 0)
(1.98214 -0.0849217 0)
(1.92265 -0.0639143 0)
(1.86632 -0.0448358 0)
(1.81435 -0.029454 0)
(1.76715 -0.0189187 0)
(1.72469 -0.0136506 0)
(1.68658 -0.013259 0)
(1.65231 -0.0166714 0)
(1.62139 -0.0222113 0)
(1.5934 -0.0280296 0)
(1.56806 -0.0324656 0)
(1.54532 -0.0342393 0)
(1.5253 -0.0325179 0)
(1.50829 -0.0269001 0)
(1.49473 -0.0173452 0)
(1.48503 -0.00427358 0)
(1.47942 0.0114534 0)
(1.47805 0.0290572 0)
(1.48096 0.0478605 0)
(1.48811 0.0669102 0)
(1.49952 0.0852388 0)
(1.51514 0.102185 0)
(1.53483 0.117142 0)
(1.55835 0.129524 0)
(1.58545 0.138828 0)
(1.6158 0.144665 0)
(1.649 0.146785 0)
(1.68453 0.145004 0)
(1.72185 0.139029 0)
(1.76049 0.128434 0)
(1.80006 0.112923 0)
(1.83984 0.0926992 0)
(1.87818 0.0688474 0)
(1.91306 0.0427778 0)
(1.94276 0.0159453 0)
(1.96574 -0.00996008 0)
(1.98103 -0.0336456 0)
(1.98827 -0.054495 0)
(1.98669 -0.0720319 0)
(1.97501 -0.0843621 0)
(1.95339 -0.0899784 0)
(1.92302 -0.0894092 0)
(1.88622 -0.0838668 0)
(1.84582 -0.0752289 0)
(1.80487 -0.0657494 0)
(1.76558 -0.0572231 0)
(1.72901 -0.0506439 0)
(1.69572 -0.0463767 0)
(1.66579 -0.0443174 0)
(1.63902 -0.0440228 0)
(1.61503 -0.0448056 0)
(1.59342 -0.0458575 0)
(1.57382 -0.0463743 0)
(1.55596 -0.0456513 0)
(1.5397 -0.0431618 0)
(1.52507 -0.0386164 0)
(1.51226 -0.0319426 0)
(1.50154 -0.0232061 0)
(1.49319 -0.0125816 0)
(1.48749 -0.000424041 0)
(1.4847 0.0128187 0)
(1.48497 0.0268974 0)
(1.48843 0.0413338 0)
(1.49512 0.0553893 0)
(1.50515 0.0685327 0)
(1.51853 0.0803403 0)
(1.53512 0.090433 0)
(1.5547 0.0984633 0)
(1.57697 0.104062 0)
(1.60159 0.106816 0)
(1.62826 0.10633 0)
(1.65668 0.102321 0)
(1.68639 0.0946441 0)
(1.71672 0.0834108 0)
(1.74658 0.0691952 0)
(1.77444 0.0528724 0)
(1.799 0.0353255 0)
(1.8191 0.017515 0)
(1.83387 0.000381055 0)
(1.84289 -0.0153451 0)
(1.84605 -0.0292602 0)
(1.84283 -0.0409306 0)
(1.83304 -0.0491218 0)
(1.81731 -0.0536676 0)
(1.79681 -0.0551763 0)
(1.77313 -0.054422 0)
(1.74789 -0.0523619 0)
(1.7227 -0.0499562 0)
(1.69843 -0.0478699 0)
(1.67554 -0.0464138 0)
(1.6542 -0.0456423 0)
(1.63441 -0.0454507 0)
(1.61607 -0.045609 0)
(1.59901 -0.045797 0)
(1.58309 -0.0456588 0)
(1.56822 -0.0448557 0)
(1.55437 -0.0431033 0)
(1.54161 -0.0401971 0)
(1.53009 -0.0360246 0)
(1.59095 0.125211 0)
(1.61933 0.137859 0)
(1.65377 0.146432 0)
(1.69374 0.150361 0)
(1.73858 0.149362 0)
(1.78747 0.143308 0)
(1.83949 0.131907 0)
(1.89384 0.114522 0)
(1.9496 0.0909558 0)
(2.00508 0.0623636 0)
(2.05703 0.031989 0)
(2.10189 0.00251753 0)
(2.1364 -0.0250427 0)
(2.15799 -0.0508352 0)
(2.16918 -0.071806 0)
(2.16719 -0.0887445 0)
(2.15029 -0.0976756 0)
(2.11922 -0.0997772 0)
(2.07568 -0.093893 0)
(2.02304 -0.081336 0)
(1.96541 -0.0641338 0)
(1.90735 -0.0449042 0)
(1.85219 -0.025982 0)
(1.80187 -0.00898056 0)
(1.75734 0.00495244 0)
(1.71868 0.0149403 0)
(1.68537 0.0203968 0)
(1.6565 0.0211436 0)
(1.63106 0.0177077 0)
(1.60825 0.0112197 0)
(1.58732 0.00320822 0)
(1.56763 -0.00470675 0)
(1.54888 -0.0111262 0)
(1.53111 -0.0149884 0)
(1.51471 -0.0156606 0)
(1.50029 -0.0129278 0)
(1.48857 -0.00678637 0)
(1.48017 0.0025224 0)
(1.47586 0.0143347 0)
(1.47521 0.027898 0)
(1.47837 0.0424248 0)
(1.48663 0.0571138 0)
(1.4989 0.071234 0)
(1.5153 0.0841353 0)
(1.53564 0.0952225 0)
(1.55968 0.103966 0)
(1.58721 0.109916 0)
(1.61805 0.112726 0)
(1.65194 0.112208 0)
(1.68833 0.108231 0)
(1.72641 0.10043 0)
(1.76529 0.0883927 0)
(1.80395 0.0724036 0)
(1.84067 0.0537971 0)
(1.87357 0.0337794 0)
(1.90047 0.0134115 0)
(1.91981 -0.00640625 0)
(1.93177 -0.0241243 0)
(1.93543 -0.0398155 0)
(1.92948 -0.0525551 0)
(1.91388 -0.0596983 0)
(1.88936 -0.0615673 0)
(1.85767 -0.0586215 0)
(1.82151 -0.0521088 0)
(1.78394 -0.043754 0)
(1.74773 -0.0353604 0)
(1.71413 -0.0281414 0)
(1.68386 -0.0227951 0)
(1.65708 -0.0197006 0)
(1.6336 -0.018887 0)
(1.61301 -0.0199826 0)
(1.59476 -0.022384 0)
(1.57831 -0.0253717 0)
(1.56321 -0.0281954 0)
(1.54912 -0.030165 0)
(1.53583 -0.0307239 0)
(1.52339 -0.0295261 0)
(1.51195 -0.0264385 0)
(1.50182 -0.0214931 0)
(1.4934 -0.0148064 0)
(1.48705 -0.00655288 0)
(1.48325 0.00299369 0)
(1.48224 0.0134933 0)
(1.48321 0.0245726 0)
(1.48795 0.0357576 0)
(1.4956 0.0465471 0)
(1.50641 0.0564576 0)
(1.52052 0.0650962 0)
(1.53788 0.0721529 0)
(1.55826 0.077343 0)
(1.58123 0.0803441 0)
(1.60631 0.0807446 0)
(1.63309 0.0782126 0)
(1.66104 0.0726957 0)
(1.68932 0.0644155 0)
(1.71661 0.0539526 0)
(1.74155 0.0419622 0)
(1.76282 0.0291089 0)
(1.77945 0.016201 0)
(1.79092 0.00389334 0)
(1.79705 -0.007414 0)
(1.79755 -0.0175228 0)
(1.79198 -0.0254722 0)
(1.78076 -0.0304591 0)
(1.76476 -0.0328035 0)
(1.74534 -0.0330922 0)
(1.72405 -0.0320182 0)
(1.70242 -0.0303397 0)
(1.68154 -0.0287086 0)
(1.6619 -0.0275218 0)
(1.64375 -0.026961 0)
(1.6271 -0.0270878 0)
(1.61183 -0.0278357 0)
(1.59774 -0.0290057 0)
(1.5846 -0.0303229 0)
(1.57221 -0.0314832 0)
(1.56042 -0.0321906 0)
(1.54916 -0.0321878 0)
(1.53847 -0.0312769 0)
(1.52844 -0.0293346 0)
(1.51929 -0.0263173 0)
(1.62864 0.102434 0)
(1.65315 0.10798 0)
(1.68397 0.109798 0)
(1.72082 0.107598 0)
(1.76322 0.101484 0)
(1.81008 0.0917379 0)
(1.8599 0.0780918 0)
(1.91059 0.0601859 0)
(1.95838 0.0390331 0)