/*--------------------------------*- C++ -*----------------------------------*\
| =========                 |                                                 |
| \\      /  F ield         | OpenFOAM: The Open Source CFD Toolbox           |
|  \\    /   O peration     | Version:  2206                                  |
|   \\  /    A nd           | Website:  www.openfoam.com                      |
|    \\/     M anipulation  |                                                 |
\*---------------------------------------------------------------------------*/
FoamFile
{
    version     2.0;
    format      ascii;
    arch        "LSB;label=32;scalar=64";
    class       volVectorField;
    location    "19.7001";
    object      U_0;
}
// * * * * * * * * * * * * * * * * * * * * * * * * * * * * * * * * * * * * * //

dimensions      [0 1 -1 0 0 0 0];

internalField   nonuniform List<vector> 
3038
(
(-0.262653 0.0422154 0)
(-0.322928 0.051771 0)
(-0.399856 0.0555235 0)
(-0.482434 0.0528402 0)
(-0.557063 0.0436707 0)
(-0.609324 0.0266531 0)
(-0.626509 0.00511404 0)
(-0.604603 -0.0176868 0)
(-0.5492 -0.0351377 0)
(-0.461836 -0.0434341 0)
(-0.367134 -0.0442467 0)
(-0.268111 -0.0417411 0)
(-0.173258 -0.0364891 0)
(-0.0888001 -0.0293982 0)
(-0.0175324 -0.0215605 0)
(0.0371469 -0.0140764 0)
(0.0722122 -0.00725087 0)
(0.0937614 -0.00207571 0)
(0.104304 0.000331268 0)
(0.109125 0.000175082 0)
(0.111302 -0.0020609 0)
(0.117198 -0.00469117 0)
(0.127819 -0.00800506 0)
(0.144516 -0.0115205 0)
(0.169497 -0.0150144 0)
(0.202738 -0.0182777 0)
(0.243444 -0.0211916 0)
(0.290729 -0.0236198 0)
(0.34382 -0.0250339 0)
(0.399413 -0.0250798 0)
(0.455634 -0.0240685 0)
(0.511186 -0.0225192 0)
(0.564989 -0.0207936 0)
(0.616591 -0.0191401 0)
(0.665847 -0.0178111 0)
(0.713309 -0.0170304 0)
(0.759284 -0.0170806 0)
(0.805663 -0.0183233 0)
(0.853889 -0.0211929 0)
(0.907466 -0.0265059 0)
(0.968862 -0.0351652 0)
(1.05316 -0.056171 0)
(1.14753 -0.0721125 0)
(-0.0886929 0.0625335 0)
(-0.116617 0.0849839 0)
(-0.155086 0.0965499 0)
(-0.195347 0.0927273 0)
(-0.224174 0.0718894 0)
(-0.229098 0.0321613 0)
(-0.207397 -0.0226259 0)
(-0.157937 -0.0800853 0)
(-0.0835429 -0.12437 0)
(0.00634134 -0.147816 0)
(0.104431 -0.153164 0)
(0.202508 -0.147823 0)
(0.29688 -0.134579 0)
(0.384128 -0.114749 0)
(0.460852 -0.0909281 0)
(0.525752 -0.0659362 0)
(0.578492 -0.0427728 0)
(0.619891 -0.0243064 0)
(0.652945 -0.0119155 0)
(0.678878 -0.00653952 0)
(0.700363 -0.00661938 0)
(0.72081 -0.011679 0)
(0.743168 -0.0232367 0)
(0.769493 -0.037394 0)
(0.801008 -0.0512397 0)
(0.838044 -0.0635842 0)
(0.880179 -0.0738631 0)
(0.92623 -0.0816931 0)
(0.974488 -0.0865753 0)
(1.02378 -0.0885408 0)
(1.07363 -0.0882569 0)
(1.12363 -0.0864897 0)
(1.17331 -0.0838418 0)
(1.22247 -0.0808346 0)
(1.27121 -0.077987 0)
(1.31966 -0.0758139 0)
(1.36842 -0.0749002 0)
(1.4181 -0.0760032 0)
(1.46962 -0.0801363 0)
(1.52418 -0.0888387 0)
(1.58301 -0.104833 0)
(1.64622 -0.132926 0)
(1.71024 -0.180145 0)
(0.396112 0.059587 0)
(0.427345 0.101142 0)
(0.453638 0.122065 0)
(0.478843 0.122076 0)
(0.510265 0.0962781 0)
(0.552323 0.0340858 0)
(0.600004 -0.0508044 0)
(0.657173 -0.134376 0)
(0.72115 -0.198863 0)
(0.787859 -0.237212 0)
(0.856836 -0.250298 0)
(0.924561 -0.245106 0)
(0.989881 -0.22789 0)
(1.05194 -0.202215 0)
(1.10953 -0.171095 0)
(1.16234 -0.137635 0)
(1.21068 -0.105215 0)
(1.25474 -0.077366 0)
(1.29465 -0.0565516 0)
(1.33062 -0.0436859 0)
(1.36348 -0.0386798 0)
(1.39468 -0.0409834 0)
(1.42445 -0.0493659 0)
(1.45224 -0.0618108 0)
(1.47861 -0.0761923 0)
(1.50454 -0.090613 0)
(1.53063 -0.103712 0)
(1.55693 -0.114362 0)
(1.58345 -0.121508 0)
(1.61035 -0.125071 0)
(1.63764 -0.125702 0)
(1.6655 -0.124363 0)
(1.69407 -0.121991 0)
(1.72341 -0.119306 0)
(1.75355 -0.116943 0)
(1.78461 -0.115578 0)
(1.81677 -0.115964 0)
(1.85024 -0.118978 0)
(1.88527 -0.125706 0)
(1.92188 -0.137646 0)
(1.9596 -0.156792 0)
(1.99665 -0.186178 0)
(2.02963 -0.227175 0)
(1.13693 0.00860143 0)
(1.14218 0.038764 0)
(1.16758 0.0589682 0)
(1.20879 0.0561163 0)
(1.26205 0.0240116 0)
(1.32414 -0.0343102 0)
(1.38657 -0.11184 0)
(1.43804 -0.189475 0)
(1.47682 -0.249091 0)
(1.50634 -0.282505 0)
(1.53475 -0.291797 0)
(1.56297 -0.286814 0)
(1.59076 -0.272347 0)
(1.61892 -0.246036 0)
(1.64796 -0.213453 0)
(1.67835 -0.178635 0)
(1.71016 -0.145114 0)
(1.7428 -0.116225 0)
(1.77579 -0.0939273 0)
(1.80814 -0.0793145 0)
(1.83897 -0.0724328 0)
(1.86753 -0.072485 0)
(1.89311 -0.0782593 0)
(1.91529 -0.0881427 0)
(1.93427 -0.100253 0)
(1.95058 -0.11264 0)
(1.96453 -0.123852 0)
(1.97616 -0.133046 0)
(1.98699 -0.138567 0)
(1.99743 -0.141351 0)
(2.00806 -0.142252 0)
(2.0193 -0.141867 0)
(2.03156 -0.140671 0)
(2.04511 -0.139263 0)
(2.05997 -0.138273 0)
(2.07613 -0.138311 0)
(2.0936 -0.140086 0)
(2.11231 -0.144434 0)
(2.13202 -0.152304 0)
(2.15215 -0.164792 0)
(2.17153 -0.183095 0)
(2.18816 -0.208322 0)
(2.19846 -0.240464 0)
(1.87853 0.0357943 0)
(1.89115 0.0479173 0)
(1.91422 0.0461961 0)
(1.94538 0.0271569 0)
(1.98261 -0.0121779 0)
(2.01866 -0.0708533 0)
(2.04542 -0.143209 0)
(2.05499 -0.209346 0)
(2.04946 -0.260636 0)
(2.0384 -0.292041 0)
(2.02448 -0.298998 0)
(2.01401 -0.295523 0)
(2.00597 -0.280821 0)
(2.00153 -0.256507 0)
(2.00191 -0.227352 0)
(2.00763 -0.196664 0)
(2.01865 -0.166965 0)
(2.03413 -0.141027 0)
(2.0528 -0.120468 0)
(2.07317 -0.106198 0)
(2.09376 -0.0983074 0)
(2.1133 -0.0961685 0)
(2.13084 -0.098834 0)
(2.14573 -0.105198 0)
(2.1575 -0.11376 0)
(2.16605 -0.122727 0)
(2.17177 -0.130838 0)
(2.17512 -0.13772 0)
(2.1768 -0.142712 0)
(2.1779 -0.145603 0)
(2.17949 -0.146916 0)
(2.18186 -0.147242 0)
(2.18518 -0.147313 0)
(2.18962 -0.14729 0)
(2.19528 -0.147582 0)
(2.20216 -0.148868 0)
(2.21017 -0.151847 0)
(2.21896 -0.157174 0)
(2.22803 -0.165507 0)
(2.23654 -0.177481 0)
(2.24331 -0.193613 0)
(2.24646 -0.214109 0)
(2.24371 -0.238558 0)
(2.2162 0.0104278 0)
(2.23787 0.016587 0)
(2.26537 0.0108654 0)
(2.29585 -0.01025 0)
(2.3253 -0.0470253 0)
(2.34548 -0.097278 0)
(2.35004 -0.152683 0)
(2.33871 -0.200815 0)
(2.31541 -0.238919 0)
(2.28553 -0.263415 0)
(2.25529 -0.273216 0)
(2.22792 -0.27117 0)
(2.20359 -0.259751 0)
(2.18399 -0.241266 0)
(2.17066 -0.218546 0)
(2.16389 -0.194294 0)
(2.16324 -0.170724 0)
(2.1679 -0.149646 0)
(2.1765 -0.132517 0)
(2.18757 -0.120096 0)
(2.1998 -0.112582 0)
(2.21185 -0.109674 0)
(2.22283 -0.110654 0)
(2.23158 -0.11466 0)
(2.23752 -0.120547 0)
(2.24062 -0.126857 0)
(2.24141 -0.132731 0)
(2.24056 -0.13783 0)
(2.2387 -0.141853 0)
(2.23656 -0.144708 0)
(2.23486 -0.146625 0)
(2.23374 -0.147726 0)
(2.2336 -0.148496 0)
(2.23424 -0.149405 0)
(2.23586 -0.150817 0)
(2.23839 -0.153232 0)
(2.2418 -0.157076 0)
(2.24541 -0.16281 0)
(2.24899 -0.170846 0)
(2.25192 -0.181572 0)
(2.25336 -0.195132 0)
(2.25203 -0.211541 0)
(2.24702 -0.230365 0)
(2.35047 -0.00571077 0)
(2.3704 -0.00542596 0)
(2.39201 -0.0145128 0)
(2.41417 -0.0338656 0)
(2.42937 -0.0636843 0)
(2.4349 -0.101281 0)
(2.42998 -0.141557 0)
(2.41639 -0.178973 0)
(2.39478 -0.210629 0)
(2.36462 -0.232025 0)
(2.33369 -0.241837 0)
(2.30412 -0.242257 0)
(2.27754 -0.235203 0)
(2.25542 -0.222386 0)
(2.23881 -0.205861 0)
(2.22792 -0.187731 0)
(2.2224 -0.169731 0)
(2.22158 -0.153152 0)
(2.22456 -0.139184 0)
(2.22999 -0.128873 0)
(2.23681 -0.122255 0)
(2.24401 -0.118775 0)
(2.25009 -0.118211 0)
(2.2546 -0.119898 0)
(2.25728 -0.12312 0)
(2.25815 -0.1271 0)
(2.25763 -0.131273 0)
(2.25604 -0.135368 0)
(2.25392 -0.138978 0)
(2.25149 -0.141853 0)
(2.24907 -0.144073 0)
(2.24697 -0.145918 0)
(2.24543 -0.147661 0)
(2.24459 -0.149509 0)
(2.24454 -0.151776 0)
(2.24493 -0.154851 0)
(2.24578 -0.15911 0)
(2.24684 -0.164858 0)
(2.24797 -0.172445 0)
(2.2479 -0.182029 0)
(2.24658 -0.193659 0)
(2.24293 -0.207107 0)
(2.23598 -0.221755 0)
(2.3817 -0.0196777 0)
(2.39467 -0.0238194 0)
(2.40949 -0.0338177 0)
(2.42362 -0.0503813 0)
(2.43767 -0.0729674 0)
(2.43972 -0.100562 0)
(2.43709 -0.131535 0)
(2.42493 -0.162282 0)
(2.40392 -0.187346 0)
(2.37882 -0.204232 0)
(2.35204 -0.213284 0)
(2.32579 -0.215332 0)
(2.30183 -0.21147 0)
(2.28136 -0.202979 0)
(2.26516 -0.191359 0)
(2.25348 -0.178096 0)
(2.24613 -0.164574 0)
(2.24259 -0.151953 0)
(2.24228 -0.140974 0)
(2.24444 -0.132326 0)
(2.24747 -0.126399 0)
(2.25087 -0.123075 0)
(2.25425 -0.121876 0)
(2.25725 -0.122322 0)
(2.25917 -0.124094 0)
(2.25942 -0.126953 0)
(2.25917 -0.130345 0)
(2.25772 -0.133775 0)
(2.25548 -0.136969 0)
(2.25292 -0.13971 0)
(2.25034 -0.14205 0)
(2.24795 -0.144162 0)
(2.24589 -0.146261 0)
(2.24422 -0.148575 0)
(2.24291 -0.151329 0)
(2.24206 -0.154744 0)
(2.24145 -0.159135 0)
(2.24076 -0.164788 0)
(2.23969 -0.171828 0)
(2.23785 -0.180316 0)
(2.23473 -0.190198 0)
(2.22976 -0.201141 0)
(2.22243 -0.212556 0)
(2.38292 -0.0293135 0)
(2.39198 -0.0349874 0)
(2.40195 -0.0447423 0)
(2.41094 -0.0594512 0)
(2.41702 -0.0783193 0)
(2.4189 -0.100332 0)
(2.41505 -0.124386 0)
(2.40461 -0.1474 0)
(2.38843 -0.166562 0)
(2.36849 -0.180598 0)
(2.34695 -0.189113 0)
(2.32558 -0.192325 0)
(2.30571 -0.190899 0)
(2.28833 -0.18576 0)
(2.27405 -0.177963 0)
(2.26314 -0.168571 0)
(2.25556 -0.15863 0)
(2.25103 -0.149149 0)
(2.24901 -0.140811 0)
(2.24892 -0.133849 0)
(2.25016 -0.128552 0)
(2.25187 -0.125354 0)
(2.25333 -0.124097 0)
(2.25455 -0.124088 0)
(2.2554 -0.125112 0)
(2.25553 -0.127014 0)
(2.25483 -0.12947 0)
(2.25341 -0.13205 0)
(2.25148 -0.134571 0)
(2.24919 -0.137003 0)
(2.24677 -0.139327 0)
(2.24439 -0.141626 0)
(2.2422 -0.14399 0)
(2.24019 -0.146625 0)
(2.23838 -0.149689 0)
(2.23674 -0.153374 0)
(2.23515 -0.157857 0)
(2.23342 -0.16328 0)
(2.23129 -0.169738 0)
(2.22844 -0.177248 0)
(2.22451 -0.185699 0)
(2.21915 -0.194794 0)
(2.21209 -0.204028 0)
(2.37404 -0.0355572 0)
(2.38018 -0.0425367 0)
(2.38666 -0.0523771 0)
(2.3923 -0.0653484 0)
(2.39578 -0.0810416 0)
(2.39601 -0.0987223 0)
(2.39216 -0.117302 0)
(2.3838 -0.13514 0)
(2.37121 -0.150698 0)
(2.3558 -0.162618 0)
(2.33904 -0.170431 0)
(2.32214 -0.174205 0)
(2.30613 -0.174353 0)
(2.29178 -0.171496 0)
(2.27961 -0.166374 0)
(2.26991 -0.159807 0)
(2.2627 -0.152611 0)
(2.25779 -0.145479 0)
(2.25482 -0.138982 0)
(2.25335 -0.133511 0)
(2.25293 -0.129166 0)
(2.25316 -0.126127 0)
(2.25358 -0.124729 0)
(2.25383 -0.124558 0)
(2.2539 -0.125132 0)
(2.2535 -0.126437 0)
(2.25256 -0.128251 0)
(2.2511 -0.130345 0)
(2.24923 -0.132572 0)
(2.24708 -0.134848 0)
(2.24478 -0.137149 0)
(2.24244 -0.139512 0)
(2.24013 -0.142017 0)
(2.23789 -0.144772 0)
(2.23568 -0.147911 0)
(2.23347 -0.15158 0)
(2.23115 -0.155909 0)
(2.22858 -0.160992 0)
(2.22559 -0.166878 0)
(2.22197 -0.173544 0)
(2.2175 -0.180871 0)
(2.21197 -0.188606 0)
(2.20524 -0.196335 0)
(2.36709 -0.040444 0)
(2.37124 -0.0478582 0)
(2.3754 -0.057178 0)
(2.37874 -0.068566 0)
(2.38036 -0.0818154 0)
(2.37952 -0.0963576 0)
(2.37572 -0.111356 0)
(2.36874 -0.125794 0)
(2.35885 -0.138535 0)
(2.34686 -0.148604 0)
(2.33368 -0.155635 0)
(2.32022 -0.1596 0)
(2.30724 -0.160728 0)
(2.29535 -0.159431 0)
(2.28499 -0.156244 0)
(2.2764 -0.151766 0)
(2.26965 -0.146607 0)
(2.26463 -0.141327 0)
(2.26109 -0.136346 0)
(2.25873 -0.131936 0)
(2.25726 -0.128364 0)
(2.25643 -0.12592 0)
(2.25598 -0.124687 0)
(2.25553 -0.124297 0)
(2.2548 -0.124614 0)
(2.25379 -0.125559 0)
(2.25246 -0.126969 0)
(2.25077 -0.128695 0)
(2.24879 -0.130614 0)
(2.24659 -0.13265 0)
(2.24423 -0.134797 0)
(2.24177 -0.137075 0)
(2.23926 -0.139534 0)
(2.23669 -0.142259 0)
(2.23406 -0.145346 0)
(2.23131 -0.148896 0)
(2.22835 -0.153004 0)
(2.22508 -0.157742 0)
(2.22139 -0.163134 0)
(2.21714 -0.169142 0)
(2.21221 -0.17565 0)
(2.20653 -0.182447 0)
(2.20006 -0.189202 0)
(2.36131 -0.0434798 0)
(2.36405 -0.0509813 0)
(2.36657 -0.059818 0)
(2.36831 -0.0700643 0)
(2.36869 -0.081539 0)
(2.36724 -0.0938064 0)
(2.36363 -0.106238 0)
(2.35776 -0.118143 0)
(2.3498 -0.12877 0)
(2.34025 -0.137441 0)
(2.32972 -0.143817 0)
(2.31887 -0.147815 0)
(2.30828 -0.149561 0)
(2.2984 -0.14933 0)
(2.28956 -0.147507 0)
(2.28199 -0.144539 0)
(2.27573 -0.140885 0)
(2.27074 -0.136961 0)
(2.26687 -0.133122 0)
(2.26395 -0.129665 0)
(2.2618 -0.126841 0)
(2.26023 -0.124857 0)
(2.25898 -0.123731 0)
(2.2577 -0.123284 0)
(2.25632 -0.123441 0)
(2.25481 -0.124134 0)
(2.25308 -0.125267 0)
(2.2511 -0.126729 0)
(2.24891 -0.128428 0)
(2.24653 -0.130307 0)
(2.244 -0.132343 0)
(2.24135 -0.134543 0)
(2.23858 -0.136935 0)
(2.23569 -0.139571 0)
(2.23264 -0.142523 0)
(2.22939 -0.145872 0)
(2.22585 -0.149691 0)
(2.22196 -0.154037 0)
(2.21763 -0.158935 0)
(2.2128 -0.164363 0)
(2.20744 -0.17023 0)
(2.20152 -0.176372 0)
(2.19512 -0.182527 0)
(2.35568 -0.04572 0)
(2.35745 -0.0531009 0)
(2.35888 -0.0613989 0)
(2.35961 -0.0706368 0)
(2.35925 -0.0806697 0)
(2.35748 -0.0911802 0)
(2.35412 -0.101711 0)
(2.34911 -0.111803 0)
(2.3426 -0.120895 0)
(2.33491 -0.12849 0)
(2.32647 -0.1343 0)
(2.31772 -0.138229 0)
(2.30909 -0.140335 0)
(2.30089 -0.140804 0)
(2.29339 -0.139915 0)
(2.28675 -0.138008 0)
(2.28104 -0.135433 0)
(2.27622 -0.132529 0)
(2.27223 -0.129607 0)
(2.26897 -0.126927 0)
(2.2663 -0.124714 0)
(2.26407 -0.123124 0)
(2.26206 -0.122141 0)
(2.2601 -0.121675 0)
(2.25811 -0.121705 0)
(2.25603 -0.12223 0)
(2.25382 -0.123181 0)
(2.25144 -0.124461 0)
(2.24891 -0.125989 0)
(2.24623 -0.127713 0)
(2.24341 -0.129608 0)
(2.24045 -0.131667 0)
(2.23733 -0.133899 0)
(2.23402 -0.136346 0)
(2.23047 -0.139067 0)
(2.22662 -0.142126 0)
(2.22242 -0.14559 0)
(2.2178 -0.149521 0)
(2.21273 -0.153963 0)
(2.20717 -0.158916 0)
(2.20116 -0.164321 0)
(2.19474 -0.170058 0)
(2.18804 -0.175922 0)
(2.35065 -0.047143 0)
(2.35175 -0.0542477 0)
(2.35244 -0.0620019 0)
(2.35248 -0.070408 0)
(2.35164 -0.0793496 0)
(2.34973 -0.0885815 0)
(2.34664 -0.0977639 0)
(2.34234 -0.106573 0)
(2.33698 -0.114549 0)
(2.33075 -0.121336 0)
(2.32395 -0.126688 0)
(2.3169 -0.130508 0)
(2.30987 -0.132816 0)
(2.30308 -0.133735 0)
(2.2967 -0.133462 0)
(2.29085 -0.132253 0)
(2.28556 -0.130382 0)
(2.28084 -0.128142 0)
(2.27668 -0.12582 0)
(2.27297 -0.123639 0)
(2.26968 -0.121807 0)
(2.26671 -0.120484 0)
(2.26395 -0.119684 0)
(2.26126 -0.119313 0)
(2.25854 -0.119344 0)
(2.25578 -0.119807 0)
(2.25296 -0.120661 0)
(2.25005 -0.121825 0)
(2.24701 -0.123227 0)
(2.24384 -0.124821 0)
(2.24051 -0.126574 0)
(2.23696 -0.128469 0)
(2.23323 -0.130509 0)
(2.22928 -0.132717 0)
(2.225 -0.135136 0)
(2.22032 -0.137825 0)
(2.21515 -0.140857 0)
(2.20944 -0.144313 0)
(2.20317 -0.148265 0)
(2.19636 -0.152753 0)
(2.18906 -0.157761 0)
(2.18136 -0.1632 0)
(2.17341 -0.168913 0)
(2.34628 -0.0481339 0)
(2.34687 -0.0548528 0)
(2.34701 -0.0620587 0)
(2.34656 -0.0697396 0)
(2.34538 -0.0777956 0)
(2.34336 -0.0860314 0)
(2.34046 -0.0941934 0)
(2.33669 -0.102035 0)
(2.33214 -0.109194 0)
(2.32694 -0.115395 0)
(2.3213 -0.1204 0)
(2.3154 -0.12408 0)
(2.30942 -0.126421 0)
(2.3035 -0.127536 0)
(2.29778 -0.127597 0)
(2.29231 -0.126799 0)
(2.28707 -0.125372 0)
(2.28217 -0.123606 0)
(2.27758 -0.121737 0)
(2.27325 -0.119965 0)
(2.2693 -0.118499 0)
(2.26541 -0.11737 0)
(2.26145 -0.116623 0)
(2.25757 -0.116265 0)
(2.25395 -0.11631 0)
(2.25026 -0.11674 0)
(2.24646 -0.117509 0)
(2.24254 -0.118551 0)
(2.23846 -0.119811 0)
(2.23419 -0.12124 0)
(2.22969 -0.122799 0)
(2.22493 -0.124464 0)
(2.21985 -0.126227 0)
(2.21436 -0.128087 0)
(2.20837 -0.130068 0)
(2.20179 -0.132235 0)
(2.19452 -0.134674 0)
(2.18645 -0.137493 0)
(2.17756 -0.140806 0)
(2.16785 -0.144702 0)
(2.15736 -0.149208 0)
(2.14625 -0.154275 0)
(2.13465 -0.159776 0)
(2.34171 -0.0428692 0)
(2.34221 -0.0488158 0)
(2.34227 -0.0551102 0)
(2.34181 -0.0617989 0)
(2.34079 -0.0688657 0)
(2.33912 -0.0762253 0)
(2.33675 -0.0837193 0)
(2.3337 -0.0911593 0)
(2.3299 -0.0982681 0)
(2.32544 -0.104792 0)
(2.32042 -0.110504 0)
(2.31499 -0.1152 0)
(2.3093 -0.118744 0)
(2.30355 -0.121094 0)
(2.29775 -0.122293 0)
(2.29184 -0.122452 0)
(2.28594 -0.121758 0)
(2.28004 -0.120461 0)
(2.27416 -0.118829 0)
(2.26829 -0.117091 0)
(2.26244 -0.11545 0)
(2.2566 -0.114041 0)
(2.25073 -0.112919 0)
(2.24481 -0.112154 0)
(2.23881 -0.111818 0)
(2.23265 -0.111891 0)
(2.22629 -0.112292 0)
(2.21971 -0.112958 0)
(2.21287 -0.113842 0)
(2.20571 -0.114899 0)
(2.19819 -0.116085 0)
(2.19025 -0.117355 0)
(2.18185 -0.118673 0)
(2.17289 -0.120008 0)
(2.16327 -0.121337 0)
(2.15287 -0.122661 0)
(2.14145 -0.124026 0)
(2.12891 -0.125533 0)
(2.11513 -0.127335 0)
(2.10002 -0.129601 0)
(2.0836 -0.132479 0)
(2.06596 -0.136049 0)
(2.0472 -0.140297 0)
(2.02742 -0.145112 0)
(2.33112 -0.0429892 0)
(2.33054 -0.0484147 0)
(2.32936 -0.0541685 0)
(2.32756 -0.0602798 0)
(2.32508 -0.0667294 0)
(2.32191 -0.0734403 0)
(2.31801 -0.0802777 0)
(2.31341 -0.0870546 0)
(2.30814 -0.0935571 0)
(2.30224 -0.0995636 0)
(2.29575 -0.104845 0)
(2.28876 -0.109204 0)
(2.28133 -0.112508 0)
(2.27347 -0.114679 0)
(2.26517 -0.115695 0)
(2.25642 -0.115666 0)
(2.24721 -0.114811 0)
(2.23751 -0.113383 0)
(2.22737 -0.111641 0)
(2.21686 -0.109803 0)
(2.20601 -0.108041 0)
(2.19488 -0.106483 0)
(2.18346 -0.105205 0)
(2.17174 -0.104264 0)
(2.15969 -0.103688 0)
(2.14724 -0.103443 0)
(2.13433 -0.103469 0)
(2.12084 -0.103717 0)
(2.10677 -0.104145 0)
(2.09205 -0.104706 0)
(2.07663 -0.105343 0)
(2.06045 -0.105993 0)
(2.04345 -0.106597 0)
(2.02556 -0.10711 0)
(2.00667 -0.107494 0)
(1.98664 -0.107721 0)
(1.96528 -0.107816 0)
(1.94237 -0.107899 0)
(1.91772 -0.10818 0)
(1.89118 -0.108916 0)
(1.86268 -0.110335 0)
(1.83224 -0.112524 0)
(1.79988 -0.115422 0)
(1.76557 -0.118869 0)
(2.27899 -0.0427039 0)
(2.27545 -0.0474474 0)
(2.27091 -0.0525044 0)
(2.26535 -0.0578924 0)
(2.2587 -0.0635941 0)
(2.25094 -0.0695421 0)
(2.24204 -0.0755669 0)
(2.23198 -0.0817505 0)
(2.22079 -0.0874543 0)
(2.20849 -0.0926637 0)
(2.19512 -0.0973 0)
(2.18075 -0.101052 0)
(2.16541 -0.103723 0)
(2.14909 -0.105185 0)
(2.1318 -0.105414 0)
(2.11351 -0.104577 0)
(2.09423 -0.102963 0)
(2.07402 -0.100871 0)
(2.05287 -0.0985702 0)
(2.03091 -0.0962786 0)
(2.00828 -0.0941444 0)
(1.98506 -0.0922514 0)
(1.96125 -0.0906348 0)
(1.93684 -0.0893038 0)
(1.91176 -0.0882478 0)
(1.88593 -0.087434 0)
(1.85927 -0.0868144 0)
(1.83171 -0.0863495 0)
(1.80318 -0.0860165 0)
(1.77364 -0.0857897 0)
(1.74306 -0.0856289 0)
(1.71143 -0.085467 0)
(1.67878 -0.0851922 0)
(1.64494 -0.0846545 0)
(1.60976 -0.0837489 0)
(1.57323 -0.0824268 0)
(1.53529 -0.0806863 0)
(1.49577 -0.0786159 0)
(1.45443 -0.076453 0)
(1.41102 -0.0745795 0)
(1.36533 -0.0734514 0)
(1.31726 -0.0732312 0)
(1.26661 -0.073748 0)
(1.21306 -0.0746198 0)
(2.06134 -0.035618 0)
(2.04866 -0.0389889 0)
(2.03418 -0.0425996 0)
(2.01779 -0.0464663 0)
(1.99936 -0.0505838 0)
(1.97881 -0.0549082 0)
(1.95609 -0.0593533 0)
(1.93115 -0.0637924 0)
(1.904 -0.068071 0)
(1.87477 -0.0720055 0)
(1.84345 -0.0753878 0)
(1.81021 -0.0780214 0)
(1.77536 -0.0797311 0)
(1.73909 -0.080375 0)
(1.70174 -0.0797507 0)
(1.66271 -0.0778073 0)
(1.62173 -0.0748147 0)
(1.57924 -0.0712337 0)
(1.53574 -0.0674925 0)
(1.49162 -0.0639027 0)
(1.44714 -0.0606363 0)
(1.40243 -0.0577482 0)
(1.3575 -0.0552183 0)
(1.31227 -0.0529808 0)
(1.26666 -0.0509898 0)
(1.22056 -0.0491641 0)
(1.1739 -0.0474114 0)
(1.12661 -0.0456566 0)
(1.07869 -0.0438616 0)
(1.03017 -0.0420275 0)
(0.981137 -0.04019 0)
(0.931786 -0.0384052 0)
(0.882311 -0.0366938 0)
(0.833358 -0.035048 0)
(0.785605 -0.0334334 0)
(0.739181 -0.0317549 0)
(0.694317 -0.029865 0)
(0.650888 -0.0276274 0)
(0.608226 -0.0249235 0)
(0.565412 -0.021697 0)
(0.52154 -0.0180536 0)
(0.476301 -0.0146458 0)
(0.430491 -0.011806 0)
(0.384542 -0.0094787 0)
(1.22369 -0.0205245 0)
(1.19463 -0.0218994 0)
(1.1632 -0.0234029 0)
(1.12917 -0.0250289 0)
(1.0923 -0.0267604 0)
(1.05245 -0.0285512 0)
(1.0095 -0.0303228 0)
(0.963419 -0.0319879 0)
(0.914323 -0.0333866 0)
(0.862503 -0.0343536 0)
(0.808424 -0.0347592 0)
(0.752696 -0.0345233 0)
(0.696003 -0.0336005 0)
(0.639301 -0.0319794 0)
(0.582845 -0.0293838 0)
(0.529981 -0.0258211 0)
(0.480779 -0.0217334 0)
(0.43573 -0.0177843 0)
(0.394419 -0.0143165 0)
(0.356496 -0.0113627 0)
(0.321686 -0.0087808 0)
(0.289658 -0.00642486 0)
(0.260093 -0.00422447 0)
(0.232737 -0.00216751 0)
(0.207408 -0.000212553 0)
(0.183988 0.00165824 0)
(0.162376 0.00333345 0)
(0.142485 0.00474221 0)
(0.124217 0.00584144 0)
(0.107455 0.00661473 0)
(0.0920326 0.00706749 0)
(0.0777515 0.00724128 0)
(0.0643581 0.00716559 0)
(0.0515376 0.00685461 0)
(0.0390735 0.00660082 0)
(0.0269477 0.00683513 0)
(0.0154233 0.00780128 0)
(0.00508035 0.00954495 0)
(-0.00354636 0.0120243 0)
(-0.00890118 0.0145172 0)
(-0.0108451 0.0162072 0)
(-0.0100099 0.0164501 0)
(-0.00758235 0.0154689 0)
(-0.00463501 0.0135146 0)
(1.27696 -0.226748 0)
(1.32445 -0.333743 0)
(1.33734 -0.434323 0)
(1.3145 -0.512407 0)
(1.25564 -0.556218 0)
(1.1681 -0.555636 0)
(1.05794 -0.513637 0)
(0.926745 -0.441512 0)
(0.778633 -0.351323 0)
(0.63936 -0.247707 0)
(0.552511 -0.119195 0)
(0.542888 0.0413337 0)
(0.604634 0.217455 0)
(0.718689 0.380575 0)
(0.869472 0.509225 0)
(1.04823 0.589978 0)
(1.24829 0.612759 0)
(1.46217 0.568508 0)
(1.68302 0.44915 0)
(1.90245 0.258201 0)
(2.09589 0.0323593 0)
(2.23922 -0.182178 0)
(2.3292 -0.364982 0)
(2.37232 -0.508862 0)
(2.3787 -0.613801 0)
(2.35796 -0.684439 0)
(2.31626 -0.725706 0)
(2.26076 -0.740971 0)
(2.19887 -0.737974 0)
(2.13541 -0.724047 0)
(2.07388 -0.70397 0)
(2.01521 -0.680721 0)
(1.95911 -0.656197 0)
(1.90492 -0.631621 0)
(1.85208 -0.607382 0)
(1.80047 -0.582943 0)
(1.74957 -0.558113 0)
(1.6974 -0.534594 0)
(1.64011 -0.51577 0)
(1.57473 -0.503353 0)
(1.50382 -0.492525 0)
(1.43624 -0.471916 0)
(1.38109 -0.429153 0)
(1.34747 -0.357256 0)
(1.33808 -0.258103 0)
(1.34458 -0.139294 0)
(1.37278 -0.0109443 0)
(1.41113 0.114931 0)
(1.45606 0.230806 0)
(1.50448 0.332901 0)
(1.55332 0.419543 0)
(1.60031 0.490826 0)
(1.64386 0.548215 0)
(1.68305 0.593931 0)
(1.71768 0.630389 0)
(1.74818 0.659597 0)
(1.77525 0.682719 0)
(1.79973 0.699793 0)
(1.82361 0.709106 0)
(1.84889 0.706596 0)
(1.87686 0.687294 0)
(1.90786 0.646403 0)
(1.94142 0.581516 0)
(1.97709 0.492311 0)
(2.01404 0.380881 0)
(2.05092 0.252346 0)
(2.08543 0.115458 0)
(2.11467 -0.0186816 0)
(2.13714 -0.143228 0)
(2.15196 -0.253292 0)
(2.15887 -0.346057 0)
(2.1581 -0.42044 0)
(2.15041 -0.476711 0)
(2.13669 -0.516043 0)
(2.11712 -0.539829 0)
(2.09133 -0.548917 0)
(2.06067 -0.545577 0)
(2.02561 -0.533652 0)
(1.9869 -0.516755 0)
(1.94517 -0.498176 0)
(1.9011 -0.480275 0)
(1.85558 -0.463919 0)
(1.80979 -0.448279 0)
(1.76496 -0.430988 0)
(1.72245 -0.408865 0)
(1.6836 -0.378871 0)
(1.64933 -0.338941 0)
(1.7643 -0.269167 0)
(1.77797 -0.354148 0)
(1.75641 -0.424683 0)
(1.71088 -0.473855 0)
(1.64627 -0.492978 0)
(1.57027 -0.476545 0)
(1.49273 -0.425469 0)
(1.42222 -0.3449 0)
(1.36125 -0.242504 0)
(1.30602 -0.129009 0)
(1.25282 -0.0232804 0)
(1.20726 0.0716508 0)
(1.19811 0.170254 0)
(1.24414 0.268046 0)
(1.34413 0.349389 0)
(1.48735 0.398645 0)
(1.66162 0.402297 0)
(1.85507 0.347693 0)
(2.05562 0.227272 0)
(2.24132 0.0580162 0)
(2.38051 -0.117465 0)
(2.46663 -0.275014 0)
(2.50406 -0.407251 0)
(2.50312 -0.512459 0)
(2.47562 -0.589563 0)
(2.42782 -0.639947 0)
(2.36664 -0.666478 0)
(2.29959 -0.675047 0)
(2.23165 -0.671394 0)
(2.16591 -0.659606 0)
(2.10336 -0.642636 0)
(2.04405 -0.622488 0)
(1.98756 -0.60051 0)
(1.93317 -0.577693 0)
(1.88008 -0.554654 0)
(1.82794 -0.531307 0)
(1.77673 -0.506947 0)
(1.72592 -0.481582 0)
(1.67305 -0.457275 0)
(1.61426 -0.437411 0)
(1.5478 -0.422683 0)
(1.47833 -0.406973 0)
(1.41546 -0.379078 0)
(1.36849 -0.328557 0)
(1.34459 -0.251539 0)
(1.34241 -0.152805 0)
(1.36077 -0.0408184 0)
(1.39437 0.0749827 0)
(1.43604 0.185023 0)
(1.48263 0.284521 0)
(1.53112 0.371183 0)
(1.57914 0.44447 0)
(1.62502 0.505156 0)
(1.66778 0.554774 0)
(1.70714 0.595096 0)
(1.74334 0.62763 0)
(1.77702 0.653151 0)
(1.80936 0.671234 0)
(1.84236 0.679743 0)
(1.87726 0.674965 0)
(1.91506 0.652709 0)
(1.95584 0.609143 0)
(1.9989 0.542202 0)
(2.04328 0.451903 0)
(2.08772 0.340693 0)
(2.13034 0.21427 0)
(2.16801 0.0826381 0)
(2.19805 -0.044454 0)
(2.21919 -0.160838 0)
(2.23093 -0.262326 0)
(2.2334 -0.346729 0)
(2.22734 -0.413398 0)
(2.21384 -0.462807 0)
(2.1937 -0.495994 0)
(2.16668 -0.513729 0)
(2.1339 -0.517074 0)
(2.09637 -0.509234 0)
(2.05495 -0.493593 0)
(2.01045 -0.47362 0)
(1.96344 -0.452613 0)
(1.91462 -0.433081 0)
(1.86492 -0.416109 0)
(1.81533 -0.400983 0)
(1.76701 -0.385479 0)
(1.72119 -0.366468 0)
(1.67921 -0.340735 0)
(1.64229 -0.305949 0)
(2.05041 -0.283982 0)
(2.04661 -0.341316 0)
(2.01794 -0.386659 0)
(1.97059 -0.414865 0)
(1.91164 -0.420667 0)
(1.84722 -0.401159 0)
(1.78465 -0.356681 0)
(1.73128 -0.29058 0)
(1.69313 -0.208226 0)
(1.67474 -0.115188 0)
(1.67616 -0.014899 0)
(1.69529 0.0809962 0)
(1.73169 0.161368 0)
(1.7894 0.22263 0)
(1.87174 0.260363 0)
(1.98064 0.270284 0)
(2.11297 0.246001 0)
(2.25899 0.181153 0)
(2.40129 0.0752966 0)
(2.50689 -0.0551561 0)
(2.56477 -0.186576 0)
(2.58562 -0.303463 0)
(2.5835 -0.402503 0)
(2.55618 -0.482668 0)
(2.50764 -0.540368 0)
(2.44769 -0.577646 0)
(2.38171 -0.598279 0)
(2.31448 -0.60624 0)
(2.24873 -0.604646 0)
(2.18563 -0.595972 0)
(2.12545 -0.582247 0)
(2.06798 -0.565019 0)
(2.01284 -0.545408 0)
(1.95948 -0.524253 0)
(1.90727 -0.502214 0)
(1.8557 -0.479623 0)
(1.80469 -0.456146 0)
(1.75453 -0.431001 0)
(1.7047 -0.404326 0)
(1.65262 -0.378481 0)
(1.59448 -0.356815 0)
(1.52923 -0.339409 0)
(1.46307 -0.319639 0)
(1.40593 -0.286496 0)
(1.36751 -0.232019 0)
(1.35291 -0.155754 0)
(1.36 -0.0626053 0)
(1.38557 0.039838 0)
(1.42288 0.142352 0)
(1.46674 0.237687 0)
(1.51401 0.322936 0)
(1.56223 0.396867 0)
(1.60968 0.459537 0)
(1.6553 0.511815 0)
(1.69874 0.554866 0)
(1.74018 0.589658 0)
(1.78027 0.616478 0)
(1.82032 0.634458 0)
(1.86198 0.641299 0)
(1.90596 0.633793 0)
(1.95306 0.608537 0)
(2.00298 0.562513 0)
(2.05472 0.494133 0)
(2.10695 0.403732 0)
(2.15794 0.294272 0)
(2.20517 0.17229 0)
(2.24496 0.0482539 0)
(2.27501 -0.0696303 0)
(2.29426 -0.175994 0)
(2.30257 -0.267465 0)
(2.30054 -0.3425 0)
(2.28934 -0.400781 0)
(2.27019 -0.442804 0)
(2.24331 -0.469211 0)
(2.20937 -0.480392 0)
(2.16997 -0.478517 0)
(2.12611 -0.466634 0)
(2.07892 -0.447781 0)
(2.02921 -0.425275 0)
(1.97758 -0.402397 0)
(1.92483 -0.381812 0)
(1.87167 -0.364675 0)
(1.81898 -0.350394 0)
(1.76786 -0.336897 0)
(1.71951 -0.321197 0)
(1.67512 -0.300028 0)
(1.63599 -0.270738 0)
(2.19697 -0.278803 0)
(2.18018 -0.31762 0)
(2.1483 -0.348545 0)
(2.10441 -0.365612 0)
(2.05316 -0.365437 0)
(2.00089 -0.346163 0)
(1.95327 -0.30789 0)
(1.91601 -0.252915 0)
(1.89369 -0.185201 0)
(1.88935 -0.110018 0)
(1.9041 -0.033495 0)
(1.93872 0.0390724 0)
(1.99317 0.101185 0)
(2.06457 0.146503 0)
(2.14994 0.169586 0)
(2.24574 0.165651 0)
(2.34682 0.130722 0)
(2.44545 0.0652383 0)
(2.52799 -0.0184204 0)
(2.58591 -0.109055 0)
(2.60794 -0.205334 0)
(2.60898 -0.296686 0)
(2.58884 -0.376171 0)
(2.54703 -0.437841 0)
(2.49523 -0.482955 0)
(2.43742 -0.514211 0)
(2.377 -0.533393 0)
(2.31645 -0.542291 0)
(2.25705 -0.542738 0)
(2.19931 -0.536479 0)
(2.14335 -0.525102 0)
(2.08906 -0.50994 0)
(2.03618 -0.492039 0)
(1.98445 -0.472175 0)
(1.93358 -0.450939 0)
(1.8832 -0.428775 0)
(1.83308 -0.40581 0)
(1.78342 -0.381581 0)
(1.73485 -0.35537 0)
(1.68708 -0.327409 0)
(1.63765 -0.299957 0)
(1.58291 -0.276053 0)
(1.52189 -0.25562 0)
(1.46105 -0.232906 0)
(1.41038 -0.198145 0)
(1.37914 -0.1449 0)
(1.3715 -0.0733376 0)
(1.3843 0.0120186 0)
(1.41507 0.103696 0)
(1.4553 0.193289 0)
(1.50063 0.275563 0)
(1.54839 0.348711 0)
(1.59674 0.412058 0)
(1.64462 0.465732 0)
(1.69161 0.510256 0)
(1.73786 0.546053 0)
(1.78403 0.572935 0)
(1.83141 0.589701 0)
(1.88102 0.594147 0)
(1.93347 0.583679 0)
(1.98908 0.555529 0)
(2.04718 0.507408 0)
(2.10653 0.438259 0)
(2.16548 0.348863 0)
(2.22192 0.242766 0)
(2.27256 0.127437 0)
(2.31346 0.0131257 0)
(2.34279 -0.0935908 0)
(2.35969 -0.188328 0)
(2.3644 -0.268615 0)
(2.35799 -0.333485 0)
(2.34191 -0.382806 0)
(2.31701 -0.416834 0)
(2.28352 -0.43571 0)
(2.24339 -0.440443 0)
(2.19783 -0.433773 0)
(2.1483 -0.418269 0)
(2.09596 -0.396745 0)
(2.04171 -0.372337 0)
(1.98633 -0.348289 0)
(1.93053 -0.327227 0)
(1.87477 -0.310341 0)
(1.81983 -0.297238 0)
(1.76672 -0.286011 0)
(1.71659 -0.273775 0)
(1.67059 -0.257347 0)
(1.62983 -0.233832 0)
(2.23509 -0.265786 0)
(2.21712 -0.29225 0)
(2.18793 -0.312436 0)
(2.15082 -0.3219 0)
(2.11014 -0.318398 0)
(2.07008 -0.301092 0)
(2.03485 -0.270212 0)
(2.00869 -0.227417 0)
(1.99515 -0.175712 0)
(1.99673 -0.118984 0)
(2.01484 -0.0615269 0)
(2.04982 -0.00760029 0)
(2.10075 0.0373311 0)
(2.16515 0.068432 0)
(2.23929 0.0817103 0)
(2.31835 0.074209 0)
(2.3962 0.0447048 0)
(2.46453 -0.00435097 0)
(2.51651 -0.0673892 0)
(2.5503 -0.138205 0)
(2.5651 -0.211743 0)
(2.56012 -0.282335 0)
(2.53832 -0.343572 0)
(2.50425 -0.393259 0)
(2.46227 -0.431892 0)
(2.41532 -0.459947 0)
(2.36545 -0.47787 0)
(2.31414 -0.486674 0)
(2.26235 -0.487721 0)
(2.21072 -0.482424 0)
(2.15949 -0.4721 0)
(2.10871 -0.457909 0)
(2.05835 -0.44084 0)
(2.00837 -0.421685 0)
(1.95878 -0.401008 0)
(1.90954 -0.379168 0)
(1.8605 -0.356412 0)
(1.8118 -0.332823 0)
(1.76411 -0.308054 0)
(1.71823 -0.281373 0)
(1.67406 -0.252797 0)
(1.62969 -0.224208 0)
(1.58161 -0.198144 0)
(1.52841 -0.174826 0)
(1.47493 -0.150247 0)
(1.43024 -0.116587 0)
(1.40343 -0.0677228 0)
(1.39943 -0.00360564 0)
(1.41502 0.0716962 0)
(1.44828 0.151933 0)
(1.49026 0.22983 0)
(1.53679 0.300728 0)
(1.58554 0.363271 0)
(1.63517 0.416941 0)
(1.68523 0.461611 0)
(1.73583 0.497137 0)
(1.78763 0.522897 0)
(1.8417 0.537518 0)
(1.8985 0.539082 0)
(1.9585 0.525513 0)
(2.02152 0.494669 0)
(2.08663 0.44495 0)
(2.15237 0.375819 0)
(2.21693 0.28851 0)
(2.27776 0.187252 0)
(2.33039 0.0810234 0)
(2.37155 -0.0218484 0)
(2.39952 -0.11576 0)
(2.41366 -0.197549 0)
(2.41463 -0.265785 0)
(2.40403 -0.319862 0)
(2.38306 -0.359664 0)
(2.35212 -0.384916 0)
(2.31284 -0.395833 0)
(2.26682 -0.394613 0)
(2.21573 -0.383504 0)
(2.16112 -0.364849 0)
(2.10427 -0.341263 0)
(2.04631 -0.31571 0)
(1.98823 -0.291272 0)
(1.93039 -0.270304 0)
(1.87314 -0.254083 0)
(1.81704 -0.242447 0)
(1.76295 -0.233696 0)
(1.71189 -0.225039 0)
(1.66501 -0.213351 0)
(1.62338 -0.195758 0)
(2.2361 -0.250247 0)
(2.21829 -0.268518 0)
(2.19385 -0.281756 0)
(2.16463 -0.287152 0)
(2.13346 -0.283116 0)
(2.10351 -0.268979 0)
(2.07804 -0.2449 0)
(2.06014 -0.212081 0)
(2.05246 -0.17272 0)
(2.05685 -0.129768 0)
(2.07427 -0.0866267 0)
(2.10477 -0.0469393 0)
(2.14738 -0.0146431 0)
(2.19995 0.00673414 0)
(2.25919 0.0143756 0)
(2.32083 0.00652086 0)