/*--------------------------------*- C++ -*----------------------------------*\
| =========                 |                                                 |
| \\      /  F ield         | OpenFOAM: The Open Source CFD Toolbox           |
|  \\    /   O peration     | Version:  2206                                  |
|   \\  /    A nd           | Website:  www.openfoam.com                      |
|    \\/     M anipulation  |                                                 |
\*---------------------------------------------------------------------------*/
FoamFile
{
    version     2.0;
    format      ascii;
    arch        "LSB;label=32;scalar=64";
    class       volVectorField;
    location    "18.6";
    object      U_0;
}
// * * * * * * * * * * * * * * * * * * * * * * * * * * * * * * * * * * * * * //

dimensions      [0 1 -1 0 0 0 0];

internalField   nonuniform List<vector> 
1878
(
(1.04326 -0.0127632 0)
(1.27018 -0.0556524 0)
(1.51064 -0.154538 0)
(1.74854 -0.315607 0)
(1.94032 -0.515048 0)
(2.05001 -0.702958 0)
(2.08097 -0.846647 0)
(2.0582 -0.935006 0)
(1.99418 -0.977207 0)
(1.90098 -0.966219 0)
(1.79223 -0.907105 0)
(1.68188 -0.809374 0)
(1.58157 -0.681298 0)
(1.48702 -0.534709 0)
(1.37043 -0.396697 0)
(1.20107 -0.296732 0)
(0.991968 -0.233557 0)
(0.817582 -0.16901 0)
(0.724241 -0.0671817 0)
(0.720127 0.0686106 0)
(0.78696 0.208332 0)
(0.899412 0.33222 0)
(1.04413 0.429759 0)
(1.21377 0.495763 0)
(1.40601 0.527096 0)
(1.62052 0.519308 0)
(1.85778 0.465316 0)
(2.11733 0.358336 0)
(2.38974 0.202559 0)
(2.64268 0.0266418 0)
(2.84749 -0.136352 0)
(2.9903 -0.26686 0)
(3.07196 -0.363148 0)
(3.1012 -0.438877 0)
(3.08406 -0.499834 0)
(3.03334 -0.537112 0)
(2.94919 -0.55081 0)
(2.84296 -0.545275 0)
(2.72225 -0.52205 0)
(2.59329 -0.483127 0)
(2.46245 -0.432147 0)
(2.3376 -0.373736 0)
(2.2239 -0.31301 0)
(2.12325 -0.257732 0)
(2.03304 -0.218133 0)
(1.94598 -0.204199 0)
(1.85665 -0.22005 0)
(1.76017 -0.258952 0)
(1.65761 -0.305322 0)
(1.55699 -0.340135 0)
(1.46461 -0.350891 0)
(1.38662 -0.330423 0)
(1.32965 -0.276955 0)
(1.2974 -0.195415 0)
(1.2885 -0.0942938 0)
(1.30059 0.0149106 0)
(1.33008 0.121161 0)
(1.37358 0.21734 0)
(1.42787 0.299093 0)
(1.48995 0.364007 0)
(1.55738 0.411256 0)
(1.62846 0.441081 0)
(1.70194 0.454522 0)
(1.77665 0.4534 0)
(1.85227 0.439911 0)
(1.9289 0.415688 0)
(2.00662 0.381377 0)
(2.08562 0.336403 0)
(2.1669 0.278894 0)
(2.25144 0.206911 0)
(2.33791 0.120223 0)
(2.41998 0.023338 0)
(2.48804 -0.0727772 0)
(2.5382 -0.160072 0)
(2.56829 -0.232204 0)
(2.57541 -0.287431 0)
(2.56875 -0.324541 0)
(2.53234 -0.339758 0)
(2.46346 -0.328074 0)
(2.37334 -0.297435 0)
(2.26823 -0.257287 0)
(2.15985 -0.218476 0)
(2.05628 -0.189027 0)
(1.96176 -0.172519 0)
(1.87881 -0.168845 0)
(1.80791 -0.174781 0)
(1.74794 -0.184919 0)
(1.69699 -0.19331 0)
(1.65305 -0.194906 0)
(1.61487 -0.186078 0)
(1.58282 -0.165036 0)
(1.55761 -0.131845 0)
(1.53999 -0.0876896 0)
(1.53102 -0.034814 0)
(1.53145 0.0236813 0)
(1.54156 0.0841236 0)
(1.56079 0.142395 0)
(1.588 0.195255 0)
(1.62194 0.240246 0)
(1.66125 0.275509 0)
(1.70464 0.299806 0)
(1.75094 0.312505 0)
(1.79878 0.313499 0)
(1.84694 0.303141 0)
(1.89453 0.282162 0)
(1.94091 0.251633 0)
(1.98611 0.212594 0)
(2.03057 0.165674 0)
(2.07434 0.111555 0)
(2.11547 0.0526036 0)
(2.15007 -0.00673313 0)
(2.17485 -0.0625093 0)
(2.1876 -0.111401 0)
(2.18655 -0.151512 0)
(2.16863 -0.180927 0)
(2.13348 -0.195936 0)
(2.08406 -0.198337 0)
(2.02624 -0.192895 0)
(1.96727 -0.184566 0)
(1.91176 -0.176824 0)
(1.86172 -0.171094 0)
(1.81802 -0.167203 0)
(1.78068 -0.164073 0)
(1.74919 -0.160157 0)
(1.72289 -0.153734 0)
(2.00552 -0.171451 0)
(2.1533 -0.236363 0)
(2.29878 -0.335989 0)
(2.41853 -0.468514 0)
(2.48281 -0.605046 0)
(2.48825 -0.723456 0)
(2.44646 -0.813667 0)
(2.36791 -0.868644 0)
(2.26621 -0.87984 0)
(2.1517 -0.849559 0)
(2.03388 -0.784988 0)
(1.92173 -0.693598 0)
(1.82261 -0.582846 0)
(1.74195 -0.458087 0)
(1.6818 -0.324978 0)
(1.63505 -0.193485 0)
(1.58458 -0.0791505 0)
(1.50994 0.00649188 0)
(1.41674 0.0599697 0)
(1.3432 0.100582 0)
(1.31674 0.151066 0)
(1.35504 0.207945 0)
(1.45328 0.256714 0)
(1.60097 0.286803 0)
(1.78993 0.288531 0)
(2.01409 0.253254 0)
(2.26849 0.175042 0)
(2.53839 0.0592519 0)
(2.78548 -0.0695538 0)
(2.98343 -0.18846 0)
(3.11752 -0.282405 0)
(3.18825 -0.346954 0)
(3.2101 -0.389515 0)
(3.20317 -0.421914 0)
(3.14726 -0.443185 0)
(3.05799 -0.448643 0)
(2.94301 -0.43913 0)
(2.80883 -0.416666 0)
(2.66358 -0.38286 0)
(2.51551 -0.341109 0)
(2.3737 -0.295703 0)
(2.24437 -0.24937 0)
(2.13291 -0.204873 0)
(2.04197 -0.166224 0)
(1.97004 -0.138627 0)
(1.91012 -0.127853 0)
(1.85367 -0.137439 0)
(1.79089 -0.163709 0)
(1.71254 -0.19888 0)
(1.61762 -0.232907 0)
(1.51531 -0.254767 0)
(1.41862 -0.254234 0)
(1.33794 -0.224469 0)
(1.28143 -0.166161 0)
(1.25319 -0.0883176 0)
(1.24933 -0.000842577 0)
(1.26833 0.0878034 0)
(1.3047 0.170438 0)
(1.35389 0.241668 0)
(1.41339 0.298425 0)
(1.48124 0.339479 0)
(1.55559 0.364658 0)
(1.63468 0.374732 0)
(1.71737 0.371147 0)
(1.80267 0.355732 0)
(1.88985 0.330226 0)
(1.97861 0.295321 0)
(2.07008 0.249149 0)
(2.16608 0.188444 0)
(2.26482 0.113019 0)
(2.35683 0.0299411 0)
(2.43486 -0.0535735 0)
(2.49324 -0.128111 0)
(2.52524 -0.19397 0)
(2.5358 -0.246508 0)
(2.52369 -0.280202 0)
(2.47758 -0.290058 0)
(2.39927 -0.272165 0)
(2.30003 -0.233656 0)
(2.18941 -0.186876 0)
(2.08002 -0.143148 0)
(1.97867 -0.109751 0)
(1.8887 -0.0906027 0)
(1.8111 -0.0866367 0)
(1.74501 -0.0955893 0)
(1.68841 -0.112649 0)
(1.63868 -0.131589 0)
(1.59354 -0.146555 0)
(1.55179 -0.153331 0)
(1.51341 -0.149526 0)
(1.47954 -0.134304 0)
(1.45193 -0.108155 0)
(1.43184 -0.0722891 0)
(1.42044 -0.0287228 0)
(1.41856 0.0198301 0)
(1.42666 0.070273 0)
(1.44454 0.119401 0)
(1.47131 0.164214 0)
(1.50585 0.202369 0)
(1.54688 0.232073 0)
(1.59298 0.252119 0)
(1.64267 0.261929 0)
(1.69474 0.261445 0)
(1.7482 0.250846 0)
(1.80239 0.230457 0)
(1.85705 0.200567 0)
(1.91182 0.161556 0)
(1.96519 0.114763 0)
(2.01332 0.0637713 0)
(2.05208 0.0126756 0)
(2.07817 -0.0347219 0)
(2.08974 -0.0758853 0)
(2.08494 -0.109418 0)
(2.06211 -0.132019 0)
(2.02355 -0.142066 0)
(1.97394 -0.142925 0)
(1.91947 -0.138875 0)
(1.86589 -0.133585 0)
(1.81592 -0.129416 0)
(1.77068 -0.127404 0)
(1.73031 -0.127615 0)
(1.69434 -0.129343 0)
(1.66214 -0.131265 0)
(1.63315 -0.131762 0)
(1.60704 -0.129293 0)
(2.62147 -0.272028 0)
(2.67794 -0.332912 0)
(2.71748 -0.41167 0)
(2.73053 -0.501675 0)
(2.71204 -0.593728 0)
(2.66742 -0.675649 0)
(2.59592 -0.734937 0)
(2.50038 -0.763696 0)
(2.39272 -0.761097 0)
(2.28051 -0.728834 0)
(2.17062 -0.67002 0)
(2.0688 -0.58942 0)
(1.97853 -0.491732 0)
(1.90285 -0.382417 0)
(1.84492 -0.270508 0)
(1.80628 -0.165687 0)
(1.7874 -0.0708988 0)
(1.78932 0.0144983 0)
(1.80619 0.0875928 0)
(1.82819 0.141474 0)
(1.85914 0.171675 0)
(1.90819 0.178905 0)
(1.9881 0.173358 0)
(2.1057 0.15019 0)
(2.26293 0.106322 0)
(2.45064 0.0362557 0)
(2.65543 -0.0590961 0)
(2.84836 -0.160579 0)
(3.01094 -0.249203 0)
(3.13206 -0.313603 0)
(3.20751 -0.349712 0)
(3.23544 -0.368866 0)
(3.2318 -0.377612 0)
(3.1939 -0.374785 0)
(3.09922 -0.356217 0)
(2.97501 -0.328454 0)
(2.8285 -0.296 0)
(2.66775 -0.260211 0)
(2.50445 -0.223065 0)
(2.34757 -0.187266 0)
(2.20426 -0.154939 0)
(2.07993 -0.127198 0)
(1.9794 -0.105255 0)
(1.90432 -0.0903053 0)
(1.85249 -0.0834825 0)
(1.81919 -0.0858756 0)
(1.79513 -0.0975657 0)
(1.77072 -0.114463 0)
(1.73468 -0.129716 0)
(1.68017 -0.140665 0)
(1.60258 -0.146868 0)
(1.505 -0.146594 0)
(1.40226 -0.135722 0)
(1.31612 -0.108571 0)
(1.25648 -0.0618002 0)
(1.22936 -0.000237357 0)
(1.22668 0.0650328 0)
(1.24961 0.128999 0)
(1.29192 0.186692 0)
(1.34709 0.232978 0)
(1.41345 0.265094 0)
(1.48882 0.283178 0)
(1.57101 0.288105 0)
(1.6587 0.281128 0)
(1.75168 0.263577 0)
(1.85043 0.236085 0)
(1.95492 0.197072 0)
(2.06407 0.143382 0)
(2.17254 0.0780351 0)
(2.27047 0.0110636 0)
(2.34924 -0.0525777 0)
(2.3972 -0.115131 0)
(2.42087 -0.166339 0)
(2.41531 -0.207281 0)
(2.37298 -0.224767 0)
(2.2984 -0.223951 0)
(2.20115 -0.199459 0)
(2.0934 -0.159427 0)
(1.98885 -0.115053 0)
(1.89506 -0.0745046 0)
(1.81566 -0.0431105 0)
(1.75086 -0.0240832 0)
(1.69811 -0.0189088 0)
(1.65436 -0.0267616 0)
(1.61661 -0.0446224 0)
(1.5811 -0.0671454 0)
(1.54457 -0.0888016 0)
(1.50614 -0.105229 0)
(1.46666 -0.11367 0)
(1.42804 -0.112815 0)
(1.39263 -0.102482 0)
(1.36278 -0.0830084 0)
(1.34064 -0.0553016 0)
(1.32757 -0.0210441 0)
(1.32418 0.0175149 0)
(1.33083 0.0576639 0)
(1.34748 0.0967441 0)
(1.37353 0.132382 0)
(1.40803 0.162585 0)
(1.44983 0.185852 0)
(1.49773 0.201174 0)
(1.55054 0.207834 0)
(1.60726 0.205236 0)
(1.66703 0.192895 0)
(1.72874 0.1707 0)
(1.79039 0.139491 0)
(1.84799 0.102044 0)
(1.89712 0.0619376 0)
(1.93394 0.0224964 0)
(1.95612 -0.0134542 0)
(1.96267 -0.0445493 0)
(1.95219 -0.0691557 0)
(1.92613 -0.0838766 0)
(1.8885 -0.0901673 0)
(1.84441 -0.091278 0)
(1.79915 -0.0899384 0)
(1.75608 -0.0881288 0)
(1.71644 -0.0871086 0)
(1.68043 -0.0875596 0)
(1.6475 -0.089731 0)
(1.61682 -0.0934022 0)
(1.58755 -0.097813 0)
(1.55908 -0.101789 0)
(1.53122 -0.104039 0)
(1.50416 -0.103417 0)
(2.79878 -0.299304 0)
(2.80685 -0.348828 0)
(2.8041 -0.409151 0)
(2.79404 -0.477248 0)
(2.75998 -0.546015 0)
(2.70317 -0.605426 0)
(2.62763 -0.646005 0)
(2.53886 -0.66283 0)
(2.44269 -0.655029 0)
(2.34438 -0.623101 0)
(2.24836 -0.569174 0)
(2.15821 -0.497235 0)
(2.07642 -0.411868 0)
(2.00637 -0.318551 0)
(1.95136 -0.223041 0)
(1.91322 -0.134006 0)
(1.89192 -0.0594468 0)
(1.88845 0.00023422 0)
(1.90581 0.0484275 0)
(1.94328 0.0828095 0)
(1.99852 0.0991968 0)
(2.07149 0.0944449 0)
(2.16312 0.0672509 0)
(2.2739 0.0173357 0)
(2.40319 -0.0538073 0)
(2.5514 -0.14315 0)
(2.70851 -0.236505 0)
(2.8516 -0.313483 0)
(2.96482 -0.364945 0)
(3.04113 -0.390962 0)
(3.08541 -0.392108 0)
(3.09817 -0.37293 0)
(3.06065 -0.336529 0)
(2.97557 -0.286352 0)
(2.85431 -0.229748 0)
(2.70706 -0.176836 0)
(2.54265 -0.130272 0)
(2.37286 -0.0903058 0)
(2.20972 -0.0581091 0)
(2.06189 -0.035121 0)
(1.93575 -0.0222799 0)
(1.8341 -0.0193076 0)
(1.75769 -0.0242873 0)
(1.70707 -0.0343722 0)
(1.67984 -0.0484717 0)
(1.67181 -0.0689831 0)
(1.67508 -0.0883204 0)
(1.67784 -0.100973 0)
(1.67277 -0.106432 0)
(1.65733 -0.0995169 0)
(1.62549 -0.0804111 0)
(1.57031 -0.0553172 0)
(1.49414 -0.0326147 0)
(1.40684 -0.0159681 0)
(1.32937 0.00201664 0)
(1.27422 0.0292716 0)
(1.24669 0.0658771 0)
(1.24464 0.106161 0)
(1.26641 0.143629 0)
(1.31171 0.17408 0)
(1.37179 0.194782 0)
(1.44502 0.204713 0)
(1.5296 0.202942 0)
(1.62542 0.18762 0)
(1.73323 0.158653 0)
(1.85113 0.119772 0)
(1.9687 0.0747866 0)
(2.07249 0.0268031 0)
(2.14995 -0.0221171 0)
(2.19667 -0.0680334 0)
(2.22054 -0.100806 0)
(2.21104 -0.128099 0)
(2.16638 -0.140837 0)
(2.09417 -0.142676 0)
(2.00426 -0.130459 0)
(1.90711 -0.108614 0)
(1.81282 -0.0817703 0)
(1.72912 -0.0535791 0)
(1.6613 -0.0272924 0)
(1.61069 -0.00654042 0)
(1.57601 0.0060453 0)
(1.55437 0.0110249 0)
(1.54044 0.00898693 0)
(1.5297 -0.00349547 0)
(1.51714 -0.0205778 0)
(1.49848 -0.0385842 0)
(1.47233 -0.0546033 0)
(1.43948 -0.0665771 0)
(1.4023 -0.0731575 0)
(1.36426 -0.0735158 0)
(1.32852 -0.0674213 0)
(1.29777 -0.0549591 0)
(1.27424 -0.036165 0)
(1.25979 -0.0116507 0)
(1.25553 0.0166574 0)
(1.26167 0.0465463 0)
(1.27822 0.0758945 0)
(1.30477 0.102655 0)
(1.3405 0.12493 0)
(1.38442 0.141098 0)
(1.4353 0.149926 0)
(1.49165 0.150488 0)
(1.55167 0.142376 0)
(1.61268 0.126178 0)
(1.67046 0.103855 0)
(1.72093 0.078145 0)
(1.7605 0.0516862 0)
(1.78691 0.0264363 0)
(1.79961 0.0035571 0)
(1.79844 -0.0163773 0)
(1.78424 -0.0309001 0)
(1.76015 -0.0397881 0)
(1.72991 -0.0450222 0)
(1.69757 -0.0482436 0)
(1.66621 -0.050404 0)
(1.63692 -0.0521482 0)
(1.60999 -0.0539036 0)
(1.58511 -0.05603 0)
(1.56159 -0.0588265 0)
(1.53862 -0.0623617 0)
(1.51546 -0.0663771 0)
(1.49139 -0.0703899 0)
(1.46611 -0.0737419 0)
(1.43985 -0.075682 0)
(1.41323 -0.0754682 0)
(2.82327 -0.29887 0)
(2.81813 -0.342739 0)
(2.80513 -0.394077 0)
(2.77954 -0.448932 0)
(2.73896 -0.500216 0)
(2.6836 -0.541226 0)
(2.61535 -0.566933 0)
(2.53757 -0.574408 0)
(2.4542 -0.562041 0)
(2.36879 -0.529574 0)
(2.28419 -0.478567 0)
(2.20267 -0.412318 0)
(2.1259 -0.334914 0)
(2.05733 -0.252771 0)
(2.00094 -0.17273 0)
(1.95979 -0.101062 0)
(1.93497 -0.0433526 0)
(1.92574 -0.00158077 0)
(1.93367 0.0276933 0)
(1.96049 0.0433051 0)
(2.00326 0.0398167 0)
(2.06126 0.0143324 0)
(2.13438 -0.0315105 0)
(2.22357 -0.0980106 0)
(2.33 -0.186385 0)
(2.44741 -0.286502 0)
(2.55263 -0.37084 0)
(2.63624 -0.423933 0)
(2.69374 -0.442873 0)
(2.72243 -0.443084 0)
(2.72724 -0.415956 0)
(2.69258 -0.349984 0)
(2.61733 -0.264559 0)
(2.50594 -0.17217 0)
(2.36358 -0.0835823 0)
(2.20155 -0.00897284 0)
(2.03945 0.045197 0)
(1.89 0.078943 0)
(1.75983 0.0931955 0)
(1.65281 0.0909314 0)
(1.57137 0.077109 0)
(1.51457 0.0558837 0)
(1.48048 0.0275635 0)
(1.46969 -0.00974382 0)
(1.48075 -0.0500855 0)
(1.50196 -0.0831207 0)
(1.52208 -0.103619 0)
(1.53587 -0.112215 0)
(1.54505 -0.109456 0)
(1.54654 -0.0908333 0)
(1.53774 -0.0570663 0)
(1.51931 -0.014713 0)
(1.49488 0.025337 0)
(1.45448 0.0559167 0)
(1.4033 0.07226 0)
(1.35935 0.0839236 0)
(1.32902 0.0941382 0)
(1.31748 0.105382 0)
(1.32787 0.11761 0)
(1.3609 0.125506 0)
(1.41456 0.126201 0)
(1.48606 0.116819 0)
(1.57051 0.0957374 0)
(1.66041 0.065663 0)
(1.74167 0.0302312 0)
(1.80214 -0.00422743 0)
(1.85428 -0.0268483 0)
(1.88511 -0.040075 0)
(1.89447 -0.0501052 0)
(1.88117 -0.0591421 0)
(1.84599 -0.0631211 0)
(1.79424 -0.0610549 0)
(1.73085 -0.0547206 0)
(1.66094 -0.0465628 0)
(1.59168 -0.0370236 0)
(1.52927 -0.0262934 0)
(1.47813 -0.014333 0)
(1.44054 -0.00306898 0)
(1.41701 0.00597067 0)
(1.4066 0.0125962 0)
(1.40592 0.0151613 0)
(1.41368 0.0136107 0)
(1.42452 0.00633233 0)
(1.43221 -0.00233145 0)
(1.43268 -0.0120687 0)
(1.42343 -0.0211846 0)
(1.40472 -0.0287238 0)
(1.37824 -0.034341 0)
(1.34676 -0.0376206 0)
(1.3139 -0.037982 0)
(1.28294 -0.0348136 0)
(1.2563 -0.0277257 0)
(1.23601 -0.0167148 0)
(1.22355 -0.00191598 0)
(1.22032 0.0158219 0)
(1.22701 0.0344716 0)
(1.24349 0.0523748 0)
(1.26921 0.0679655 0)
(1.30302 0.0799254 0)
(1.34334 0.0873232 0)
(1.38777 0.089705 0)
(1.43422 0.0872505 0)
(1.47878 0.0807141 0)
(1.51814 0.0712488 0)
(1.5499 0.0602417 0)
(1.57239 0.0479063 0)
(1.58557 0.0353369 0)
(1.59 0.0227357 0)
(1.58642 0.0111137 0)
(1.57672 0.00143571 0)
(1.56297 -0.00669506 0)
(1.54725 -0.0135523 0)
(1.5312 -0.0197136 0)
(1.51568 -0.0250186 0)
(1.50075 -0.0292565 0)
(1.48632 -0.0326324 0)
(1.47207 -0.0354363 0)
(1.45766 -0.0379294 0)
(1.44259 -0.0403396 0)
(1.42634 -0.0427953 0)
(1.40851 -0.0452567 0)
(1.38898 -0.0475317 0)
(1.3679 -0.0493233 0)
(1.34566 -0.0502479 0)
(1.32285 -0.0498463 0)
(2.79843 -0.292011 0)
(2.7822 -0.329868 0)
(2.75979 -0.371101 0)
(2.72852 -0.412602 0)
(2.68642 -0.449989 0)
(2.63311 -0.478927 0)
(2.56975 -0.495539 0)
(2.49873 -0.496895 0)
(2.4228 -0.481275 0)
(2.34448 -0.448079 0)
(2.2659 -0.398294 0)
(2.18872 -0.335142 0)
(2.11481 -0.26407 0)
(2.04743 -0.191962 0)
(1.98914 -0.123933 0)
(1.94346 -0.0656096 0)
(1.91408 -0.0232308 0)
(1.90279 0.00196269 0)
(1.9023 0.0127589 0)
(1.91325 0.0119027 0)
(1.93509 -0.00575223 0)
(1.96661 -0.0428319 0)
(2.00974 -0.102256 0)
(2.06178 -0.186664 0)
(2.10805 -0.282874 0)
(2.13064 -0.365787 0)
(2.12976 -0.42595 0)
(2.11052 -0.454747 0)
(2.07539 -0.454984 0)
(2.02687 -0.432869 0)
(1.96137 -0.365963 0)
(1.87758 -0.267946 0)
(1.77683 -0.149554 0)
(1.66508 -0.0301892 0)
(1.55716 0.0702966 0)
(1.45938 0.144212 0)
(1.37269 0.183695 0)
(1.30116 0.194745 0)
(1.24658 0.188022 0)
(1.20912 0.162719 0)
(1.19243 0.122777 0)
(1.19382 0.0744455 0)
(1.20834 0.0182293 0)
(1.22922 -0.0375885 0)
(1.24755 -0.0820269 0)
(1.25895 -0.110986 0)
(1.26443 -0.124206 0)
(1.26623 -0.126231 0)
(1.26618 -0.120585 0)
(1.26638 -0.0964715 0)
(1.26912 -0.0583135 0)
(1.27532 -0.0106635 0)
(1.28081 0.0366897 0)
(1.2816 0.0732215 0)
(1.27778 0.0950229 0)
(1.27199 0.1047 0)
(1.26919 0.106437 0)
(1.27343 0.104774 0)
(1.28612 0.0966051 0)
(1.30618 0.0834662 0)
(1.33116 0.0673992 0)
(1.35682 0.0511232 0)
(1.37726 0.0377349 0)
(1.39273 0.0266046 0)
(1.40592 0.0156304 0)
(1.41687 0.00199666 0)
(1.42354 -0.0105767 0)
(1.42573 -0.0189383 0)
(1.42289 -0.0239985 0)
(1.41154 -0.0245061 0)
(1.38874 -0.0201436 0)
(1.35589 -0.0123918 0)
(1.31738 -0.00342991 0)
(1.28036 0.00368002 0)
(1.24802 0.00775963 0)
(1.22273 0.00909666 0)
(1.20713 0.00924809 0)
(1.20157 0.00909792 0)
(1.20493 0.00781418 0)
(1.21706 0.00332511 0)
(1.2341 -0.00324908 0)
(1.25119 -0.00864107 0)
(1.26467 -0.0112774 0)
(1.27241 -0.0119651 0)
(1.27414 -0.0119294 0)
(1.26873 -0.0107545 0)
(1.25636 -0.00901251 0)
(1.23934 -0.00798354 0)
(1.21974 -0.00821393 0)
(1.19954 -0.00914695 0)
(1.18057 -0.00946692 0)
(1.16411 -0.00795172 0)
(1.15145 -0.00405306 0)
(1.14367 0.00241939 0)
(1.14186 0.0112086 0)
(1.14663 0.0210607 0)
(1.15763 0.0312194 0)
(1.17401 0.0407545 0)
(1.19459 0.0486988 0)
(1.21784 0.054384 0)
(1.24185 0.0574719 0)
(1.26496 0.0580933 0)
(1.28577 0.0565724 0)
(1.30332 0.0530459 0)
(1.31713 0.0476572 0)
(1.3271 0.0407723 0)
(1.33333 0.0328578 0)
(1.33611 0.0244652 0)
(1.33583 0.0160307 0)
(1.33315 0.00788784 0)
(1.32878 0.00038369 0)
(1.32332 -0.00617281 0)
(1.31707 -0.0117281 0)
(1.3101 -0.0162639 0)
(1.30252 -0.0197849 0)
(1.29436 -0.0223969 0)
(1.28551 -0.0242833 0)
(1.27583 -0.025645 0)
(1.26522 -0.0266761 0)
(1.25359 -0.0275561 0)
(1.24093 -0.0284036 0)
(1.2273 -0.0292293 0)
(1.21285 -0.0299143 0)
(1.19782 -0.0302178 0)
(1.18252 -0.0298171 0)
(2.7347 -0.271614 0)
(2.7092 -0.304517 0)
(2.67813 -0.338906 0)
(2.63964 -0.372144 0)
(2.59221 -0.400696 0)
(2.5352 -0.420988 0)
(2.46919 -0.430161 0)
(2.39608 -0.426073 0)
(2.31761 -0.406787 0)
(2.23669 -0.371461 0)
(2.15664 -0.320649 0)
(2.079 -0.257869 0)
(2.00594 -0.190907 0)
(1.93908 -0.126951 0)
(1.87924 -0.0706136 0)
(1.83086 -0.0285182 0)
(1.79443 -0.000883987 0)
(1.77182 0.0143902 0)
(1.76112 0.0199292 0)
(1.75574 0.0170301 0)
(1.75252 -0.00718164 0)
(1.747 -0.0592839 0)
(1.72346 -0.121129 0)
(1.66185 -0.180688 0)
(1.56559 -0.240433 0)
(1.46849 -0.299477 0)
(1.37954 -0.347128 0)
(1.29129 -0.3688 0)
(1.20148 -0.356382 0)
(1.10931 -0.310836 0)
(1.01576 -0.233286 0)
(0.925932 -0.131064 0)
(0.848263 -0.0239341 0)
(0.79446 0.07255 0)
(0.764095 0.145903 0)
(0.753143 0.191096 0)
(0.759749 0.209642 0)
(0.781516 0.208224 0)
(0.812464 0.184284 0)
(0.847671 0.140956 0)
(0.880464 0.0898218 0)
(0.90382 0.0402727 0)
(0.912482 -0.00473415 0)
(0.903134 -0.0441963 0)
(0.880599 -0.0749863 0)
(0.853626 -0.0957306 0)
(0.827582 -0.106953 0)
(0.805447 -0.109532 0)
(0.787947 -0.103266 0)
(0.777986 -0.086889 0)
(0.779178 -0.0604201 0)
(0.79257 -0.0250185 0)
(0.816588 0.0160915 0)
(0.845881 0.0534706 0)
(0.873431 0.078569 0)
(0.894614 0.0914499 0)
(0.90795 0.0953221 0)
(0.914587 0.094423 0)
(0.917019 0.0917496 0)
(0.916041 0.0865212 0)
(0.914657 0.0783292 0)
(0.917981 0.0660644 0)
(0.92856 0.0477368 0)
(0.945425 0.0233701 0)
(0.964927 -0.00250961 0)
(0.981693 -0.022785 0)
(0.992601 -0.0334005 0)
(0.996558 -0.0354525 0)
(0.993166 -0.0310295 0)
(0.981564 -0.015992 0)
(0.964696 0.00150757 0)
(0.948522 0.0163221 0)
(0.934421 0.0232589 0)
(0.924928 0.0236769 0)
(0.919999 0.0220175 0)
(0.918499 0.0162288 0)
(0.921094 0.00767365 0)
(0.926758 -0.00165855 0)
(0.933921 -0.00986798 0)
(0.940586 -0.0156565 0)
(0.945739 -0.0180046 0)
(0.94868 -0.0174444 0)
(0.950089 -0.0160608 0)
(0.949938 -0.0129011 0)
(0.94787 -0.00827485 0)
(0.944086 -0.00325521 0)
(0.939345 0.00103613 0)
(0.933952 0.00279836 0)
(0.928085 0.00306793 0)
(0.921672 0.00255885 0)
(0.915029 0.00223531 0)
(0.908913 0.00289526 0)
(0.904177 0.00517559 0)
(0.901667 0.00890224 0)
(0.902203 0.0136599 0)
(0.906103 0.0190368 0)
(0.913264 0.0246981 0)
(0.923299 0.0301569 0)
(0.935561 0.0349146 0)
(0.949209 0.0386127 0)
(0.963268 0.0410139 0)
(0.976926 0.0420348 0)
(0.989589 0.0416871 0)
(1.00084 0.0399623 0)
(1.01042 0.036908 0)
(1.01814 0.0326599 0)
(1.02395 0.0275248 0)
(1.0279 0.0217887 0)
(1.03015 0.0157075 0)
(1.0309 0.00951526 0)
(1.03039 0.00350366 0)
(1.02882 -0.00199906 0)
(1.02627 -0.00680851 0)
(1.02278 -0.0107415 0)
(1.01841 -0.013667 0)
(1.01327 -0.0156265 0)
(1.00747 -0.0168058 0)
(1.00111 -0.0174497 0)
(0.99431 -0.0178096 0)
(0.987135 -0.0180909 0)
(0.979624 -0.0184059 0)
(0.971793 -0.018755 0)
(0.963674 -0.0190354 0)
(0.95534 -0.0190644 0)
(0.946943 -0.0186144 0)
(2.60794 -0.243458 0)
(2.5642 -0.271097 0)
(2.51311 -0.298431 0)
(2.45329 -0.322887 0)
(2.38306 -0.341677 0)
(2.30136 -0.35253 0)
(2.20869 -0.35414 0)
(2.10834 -0.345693 0)
(2.00477 -0.32571 0)
(1.90469 -0.293716 0)
(1.81122 -0.24837 0)
(1.72418 -0.189045 0)
(1.64194 -0.119571 0)
(1.56807 -0.0538595 0)
(1.50756 -0.00524783 0)
(1.46193 0.0224978 0)
(1.43387 0.0313204 0)
(1.41523 0.0261207 0)
(1.3988 0.0185861 0)
(1.36992 0.0128689 0)
(1.30768 0.008048 0)
(1.20195 0.00639614 0)
(1.08296 -0.00378567 0)
(0.982818 -0.0458132 0)
(0.902845 -0.121687 0)
(0.8302 -0.199004 0)
(0.746366 -0.250922 0)
(0.650719 -0.268137 0)
(0.550321 -0.254947 0)
(0.452897 -0.21523 0)
(0.368058 -0.151754 0)
(0.304722 -0.0741048 0)
(0.269866 0.00525231 0)
(0.263655 0.0753763 0)
(0.280188 0.126005 0)
(0.316867 0.154059 0)
(0.365081 0.159732 0)
(0.41643 0.14698 0)
(0.463713 0.123513 0)
(0.500502 0.0953246 0)
(0.522818 0.0664251 0)
(0.531192 0.0381973 0)
(0.528494 0.0102878 0)
(0.516969 -0.017002 0)
(0.498005 -0.0422579 0)
(0.47318 -0.0631943 0)
(0.444873 -0.077725 0)
(0.415396 -0.0852712 0)
(0.386762 -0.0856346 0)
(0.361403 -0.0773691 0)
(0.342296 -0.060008 0)
(0.332898 -0.0340906 0)
(0.334562 -0.00135323 0)
(0.34737 0.0310679 0)
(0.367385 0.056931 0)
(0.390264 0.0748421 0)
(0.413416 0.0850032 0)
(0.436552 0.0880896 0)
(0.460083 0.0851162 0)
(0.484584 0.0749807 0)
(0.509889 0.0574816 0)
(0.534253 0.03586 0)
(0.555299 0.0140525 0)
(0.570483 -0.00483008 0)
(0.578449 -0.0184609 0)
(0.580116 -0.025729 0)
(0.576775 -0.0265337 0)
(0.570389 -0.0204543 0)
(0.562677 -0.00957876 0)
(0.555791 0.00245219 0)
(0.552797 0.0125373 0)
(0.55414 0.0191051 0)
(0.55859 0.0212027 0)
(0.5643 0.0193246 0)
(0.570168 0.0140884 0)
(0.575315 0.00724613 0)
(0.578496 0.00086905 0)
(0.579524 -0.00444019 0)
(0.578639 -0.00866651 0)
(0.576392 -0.0119402 0)
(0.573367 -0.0137549 0)
(0.570053 -0.0137095 0)
(0.566853 -0.0117929 0)
(0.564038 -0.00842596 0)
(0.562027 -0.00443894 0)
(0.561167 -0.000597386 0)
(0.561421 0.00255233 0)
(0.562363 0.00444264 0)
(0.563369 0.00504501 0)
(0.564267 0.00469907 0)
(0.564943 0.00410254 0)
(0.565664 0.00383202 0)
(0.566857 0.00436767 0)
(0.568965 0.00588766 0)
(0.572324 0.00839309 0)
(0.577141 0.011742 0)
(0.583515 0.0157078 0)
(0.591444 0.0199262 0)
(0.600787 0.0239684 0)
(0.611291 0.027458 0)
(0.622626 0.0300865 0)
(0.634437 0.0316304 0)
(0.646333 0.0319559 0)
(0.657951 0.0310021 0)
(0.668917 0.0287963 0)
(0.678868 0.0254771 0)
(0.687492 0.0213068 0)
(0.694582 0.0165702 0)
(0.699971 0.0115871 0)
(0.703568 0.00666488 0)
(0.7054 0.00206429 0)
(0.705518 -0.00201551 0)
(0.704067 -0.00539661 0)
(0.701371 -0.00795106 0)
(0.697743 -0.00973028 0)
(0.693487 -0.0108651 0)
(0.688869 -0.0115197 0)
(0.684086 -0.011874 0)
(0.679244 -0.0120877 0)
(0.674385 -0.0122761 0)
(0.669488 -0.0124918 0)
(0.664511 -0.0127195 0)
(0.65944 -0.0128818 0)
(0.654293 -0.0128506 0)
(0.649174 -0.0124804 0)
(2.21357 -0.182025 0)
(2.12824 -0.20194 0)
(2.03241 -0.220491 0)
(1.92281 -0.233959 0)
(1.79202 -0.238573 0)
(1.64174 -0.233334 0)
(1.4769 -0.220185 0)
(1.30562 -0.201977 0)
(1.13754 -0.180399 0)
(0.993593 -0.157276 0)
(0.868166 -0.12928 0)
(0.784274 -0.0984793 0)
(0.738373 -0.062911 0)
(0.680936 -0.0157149 0)
(0.634721 0.0238866 0)
(0.59074 0.0462338 0)
(0.536638 0.0577609 0)
(0.489117 0.0699718 0)
(0.466762 0.0906159 0)
(0.46445 0.11733 0)
(0.472002 0.131845 0)
(0.485945 0.118462 0)
(0.503245 0.0581747 0)
(0.507736 -0.0171335 0)
(0.476131 -0.0805761 0)
(0.403613 -0.12453 0)
(0.303208 -0.149433 0)
(0.193862 -0.154492 0)
(0.0887435 -0.144325 0)
(-0.00378073 -0.12045 0)
(-0.0744314 -0.0832519 0)
(-0.11708 -0.0387745 0)
(-0.129553 0.00668736 0)
(-0.114751 0.0448594 0)
(-0.0784332 0.0731288 0)
(-0.0258648 0.0894186 0)
(0.0345841 0.0948118 0)
(0.0946381 0.0919599 0)
(0.148595 0.0825621 0)
(0.192419 0.0681033 0)
(0.22438 0.0499172 0)
(0.244335 0.030264 0)
(0.252667 0.0104108 0)
(0.249318 -0.00845078 0)
(0.234284 -0.0244687 0)
(0.209596 -0.0367867 0)
(0.17847 -0.045427 0)
(0.144087 -0.0497439 0)
(0.108944 -0.0498824 0)
(0.0767161 -0.0448988 0)
(0.0504828 -0.03481 0)
(0.0333349 -0.020152 0)
(0.0278058 -0.0019549 0)
(0.034898 0.0172727 0)
(0.0533111 0.0333844 0)
(0.0799804 0.0445701 0)
(0.111816 0.0502761 0)
(0.146107 0.050688 0)
(0.180398 0.0466135 0)
(0.212108 0.0389207 0)
(0.238536 0.0287831 0)
(0.257587 0.0175177 0)
(0.26825 0.00602298 0)
(0.270936 -0.00509661 0)
(0.266715 -0.0135766 0)
(0.257853 -0.0179734 0)
(0.24756 -0.0183476 0)
(0.23874 -0.0150985 0)
(0.233152 -0.00901042 0)
(0.231792 -0.00177736 0)
(0.234911 0.00515903 0)
(0.241401 0.0095224 0)
(0.249644 0.0109206 0)
(0.257845 0.0100944 0)
(0.264629 0.00803226 0)
(0.269166 0.0050018 0)
(0.271105 0.00134452 0)
(0.270805 -0.00259433 0)
(0.268306 -0.00596399 0)
(0.2642 -0.00836814 0)
(0.259263 -0.00960503 0)
(0.254325 -0.00962836 0)
(0.250025 -0.00870589 0)
(0.246936 -0.00694848 0)
(0.245362 -0.00475941 0)
(0.245418 -0.00249881 0)
(0.246868 -0.000614636 0)
(0.249129 0.000504114 0)
(0.251698 0.000928519 0)
(0.254268 0.000901257 0)
(0.256585 0.000774387 0)
(0.25869 0.000899427 0)
(0.260848 0.00152461 0)
(0.263466 0.00272518 0)
(0.266944 0.0044564 0)
(0.271639 0.00659732 0)
(0.277815 0.00899005 0)
(0.285614 0.0114329 0)
(0.295007 0.0137031 0)
(0.305806 0.0156026 0)
(0.31771 0.0169785 0)
(0.330338 0.0177301 0)
(0.343242 0.0178074 0)
(0.355935 0.0172023 0)
(0.367955 0.0159521 0)
(0.378844 0.0141484 0)
(0.388229 0.0119117 0)
(0.395847 0.00937771 0)
(0.401555 0.00669684 0)
(0.405319 0.00401695 0)
(0.40723 0.00144105 0)
(0.407412 -0.000990077 0)
(0.406097 -0.00302709 0)
(0.403617 -0.00463206 0)
(0.400273 -0.00583246 0)
(0.396349 -0.00667292 0)
(0.392072 -0.00723037 0)
(0.387605 -0.00759401 0)
(0.383037 -0.00784739 0)
(0.37841 -0.00805116 0)
(0.373729 -0.00823045 0)
(0.368988 -0.00837947 0)
(0.364192 -0.00846334 0)
(0.359401 -0.00841588 0)
(0.354739 -0.00814477 0)
(1.05193 -0.0865463 0)
(0.913748 -0.0935534 0)
(0.761673 -0.09667 0)
(0.599287 -0.0907016 0)
(0.447718 -0.0744298 0)
(0.310873 -0.0540954 0)
(0.186837 -0.0368774 0)
(0.079833 -0.0263243 0)
(-0.0240545 -0.0231647 0)
(-0.124906 -0.021407 0)
(-0.219133 -0.00900209 0)
(-0.289698 0.0212341 0)
(-0.319229 0.0645516 0)
(-0.303141 0.0967979 0)
(-0.257137 0.112634 0)
(-0.187549 0.11141 0)
(-0.107092 0.0938926 0)
(-0.0279394 0.0666524 0)
(0.043912 0.0414996 0)
(0.111663 0.0260632 0)
(0.180914 0.0167063 0)
(0.243769 0.0064915 0)
(0.284717 -0.00410626 0)
(0.291764 -0.01611 0)
(0.260055 -0.0322914 0)
(0.193927 -0.0463385 0)
(0.103584 -0.0567272 0)
(-0.00285035 -0.059947 0)
(-0.113124 -0.0569241 0)
(-0.207374 -0.0452579 0)
(-0.279024 -0.0304471 0)
(-0.322633 -0.0143499 0)
(-0.335911 0.00198302 0)
(-0.3213 0.0156491 0)
(-0.28283 0.0256016 0)
(-0.22833 0.0315238 0)
(-0.166396 0.0335026 0)
(-0.102985 0.0325741 0)
(-0.0432491 0.0293533 0)
(0.00811821 0.0246323 0)
(0.0485699 0.0185947 0)
(0.077147 0.0121721 0)
(0.0923273 0.00567743 0)
(0.0951051 -0.00101848 0)
(0.0868695 -0.00696145 0)
(0.0690296 -0.0116614 0)
(0.0433082 -0.0152836 0)
(0.0113293 -0.0172133 0)
(-0.0235373 -0.0178788 0)
(-0.0571952 -0.0167666 0)
(-0.0862409 -0.0133201 0)
(-0.106492 -0.00828223 0)
(-0.115539 -0.00203842 0)
(-0.112258 0.00461149 0)
(-0.0978127 0.0101285 0)
(-0.0741305 0.0138153 0)
(-0.0440566 0.015614 0)
(-0.0109373 0.0157914 0)
(0.0217356 0.0146872 0)
(0.0508746 0.0123427 0)
(0.0744398 0.00893313 0)
(0.0903286 0.00504836 0)
(0.0978337 0.00113786 0)
(0.0978871 -0.00243226 0)
(0.0915421 -0.00501809 0)
(0.0805155 -0.00639157 0)
(0.0676445 -0.00667839 0)
(0.0558351 -0.00552857 0)
(0.046966 -0.00321171 0)
(0.0436383 -0.000906227 0)
(0.0453286 0.00137849 0)
(0.0498968 0.00286092 0)
(0.0566561 0.00345703 0)
(0.0639173 0.0032645 0)
(0.070297 0.00245156 0)
(0.0748476 0.00122892 0)
(0.0768286 -8.31215e-05 0)
(0.0763787 -0.00143157 0)
(0.0735503 -0.00263833 0)
(0.068725 -0.00350143 0)
(0.0624225 -0.00402342 0)
(0.0553962 -0.00413189 0)
(0.0484634 -0.00390113 0)
(0.0423438 -0.0033108 0)
(0.0376648 -0.00262724 0)
(0.0346635 -0.00185355 0)
(0.0329851 -0.00124006 0)
(0.0323825 -0.000822486 0)
(0.0323489 -0.000578852 0)
(0.0324509 -0.000481231 0)
(0.0325123 -0.000427005 0)
(0.0325741 -0.000297789 0)
(0.0328592 -1.61141e-05 0)
(0.0336994 0.00044042 0)
(0.0354524 0.00106281 0)
(0.0384418 0.0018142 0)
(0.0429137 0.0026365 0)
(0.0490013 0.00345896 0)
(0.0567006 0.0042069 0)
(0.0658603 0.00481827 0)
(0.076208 0.00525624 0)
(0.0873769 0.00550263 0)
(0.0989377 0.00553276 0)
(0.110431 0.00533084 0)
(0.121393 0.00490424 0)
(0.131383 0.00428352 0)
(0.140057 0.00351596 0)
(0.147142 0.00266095 0)
(0.152474 0.00177202 0)
(0.155974 0.000899989 0)
(0.157662 6.76852e-05 0)
(0.157752 -0.000727711 0)
(0.156448 -0.00137426 0)
(0.153945 -0.00187471 0)
(0.150504 -0.00224696 0)
(0.146376 -0.00251048 0)
(0.141772 -0.00268944 0)
(0.136848 -0.00281216 0)
(0.1317 -0.00290489 0)
(0.126376 -0.00298709 0)
(0.120887 -0.00306977 0)
(0.115241 -0.00314787 0)
(0.109463 -0.00319858 0)
(0.103615 -0.00319912 0)
(0.0978132 -0.00312482 0)
(-0.184318 0.371593 0)
(-0.269022 0.324233 0)
(-0.350974 0.235871 0)
(-0.424932 0.0904117 0)
(-0.481147 -0.115574 0)
(-0.514331 -0.361984 0)
(-0.524594 -0.625006 0)
(-0.516048 -0.875495 0)
(-0.495227 -1.0803 0)
(-0.46272 -1.22116 0)
(-0.424357 -1.28808 0)
(-0.359068 -1.24783 0)
(-0.249766 -1.09416 0)
(-0.0819263 -0.84868 0)
(0.120152 -0.545207 0)
(0.332614 -0.220652 0)
(0.536616 0.0886239 0)
(0.726226 0.360977 0)
(0.898521 0.586075 0)
(1.04764 0.758345 0)
(1.17118 0.880182 0)
(1.26713 0.95737 0)
(1.33514 1.00013 0)
(1.37235 1.01899 0)
(1.38061 1.03116 0)
(1.36506 1.04056 0)
(1.33937 1.04277 0)
(1.3144 1.03023 0)
(1.30408 0.981996 0)
(1.32808 0.874653 0)
(1.385 0.705982 0)
(1.47017 0.490384 0)
(1.57349 0.24988 0)
(1.6823 0.0101147 0)
(1.78734 -0.211062 0)
(1.88256 -0.402209 0)
(1.96352 -0.556523 0)