/*--------------------------------*- C++ -*----------------------------------*\
| =========                 |                                                 |
| \\      /  F ield         | OpenFOAM: The Open Source CFD Toolbox           |
|  \\    /   O peration     | Version:  2206                                  |
|   \\  /    A nd           | Website:  www.openfoam.com                      |
|    \\/     M anipulation  |                                                 |
\*---------------------------------------------------------------------------*/
FoamFile
{
    version     2.0;
    format      ascii;
    arch        "LSB;label=32;scalar=64";
    class       surfaceScalarField;
    location    "19.4001";
    object      ddtCorrDdt0(phi);
}
// * * * * * * * * * * * * * * * * * * * * * * * * * * * * * * * * * * * * * //

dimensions      [0 3 -2 0 0 0 0];

oriented        oriented;

internalField   nonuniform List<scalar> 
3528
(
5.30837e-12
-7.10328e-11
6.53226e-11
1.89512e-11
-2.87036e-10
2.73401e-10
4.42118e-11
-5.26915e-10
5.01551e-10
8.32704e-11
-7.90813e-10
7.52221e-10
1.36341e-10
-1.07824e-09
1.02537e-09
2.04728e-10
-1.37218e-09
1.30443e-09
2.88004e-10
-1.66275e-09
1.57977e-09
3.8641e-10
-1.94098e-09
1.84333e-09
4.98594e-10
-2.19951e-09
2.08772e-09
6.23576e-10
-2.43308e-09
2.30849e-09
7.59754e-10
-2.64048e-09
2.50364e-09
9.06524e-10
-2.82068e-09
2.6739e-09
1.06262e-09
-2.97731e-09
2.82119e-09
1.22638e-09
-3.11415e-09
2.95083e-09
1.39686e-09
-3.23863e-09
3.06811e-09
1.57367e-09
-3.35881e-09
3.18212e-09
1.75703e-09
-3.48418e-09
3.30074e-09
1.94734e-09
-3.62586e-09
3.43609e-09
2.14511e-09
-3.79605e-09
3.59783e-09
2.35241e-09
-4.00641e-09
3.79903e-09
2.57207e-09
-4.26889e-09
4.04903e-09
2.80672e-09
-4.59549e-09
4.36108e-09
3.0598e-09
-4.99769e-09
4.74452e-09
3.33557e-09
-5.48645e-09
5.21129e-09
3.63889e-09
-6.07163e-09
5.7685e-09
3.9749e-09
-6.76165e-09
6.42643e-09
4.34998e-09
-7.56495e-09
7.19027e-09
4.76822e-09
-8.48668e-09
8.06931e-09
5.23996e-09
-9.53722e-09
9.06484e-09
5.77131e-09
-1.07215e-08
1.019e-08
6.36707e-09
-1.20403e-08
1.14442e-08
7.0404e-09
-1.35049e-08
1.28315e-08
7.79176e-09
-1.51152e-08
1.43634e-08
8.63586e-09
-1.68851e-08
1.60402e-08
9.57524e-09
-1.88221e-08
1.78798e-08
1.06259e-08
-2.09357e-08
1.98843e-08
1.17981e-08
-2.32476e-08
2.20742e-08
1.30956e-08
-2.5762e-08
2.44653e-08
1.45368e-08
-2.85172e-08
2.70741e-08
1.61236e-08
-3.15207e-08
2.99343e-08
1.78861e-08
-3.48201e-08
3.30581e-08
1.98163e-08
-3.84314e-08
3.65003e-08
2.19489e-08
-4.24059e-08
4.02713e-08
2.42899e-08
-4.67804e-08
4.44359e-08
2.68647e-08
-5.15963e-08
4.90195e-08
2.97111e-08
-5.69284e-08
5.40819e-08
3.28197e-08
-6.27997e-08
5.9689e-08
3.62682e-08
-6.93268e-08
6.58778e-08
4.00287e-08
-7.65246e-08
7.27609e-08
4.41909e-08
-8.45245e-08
8.03567e-08
4.87454e-08
-9.33606e-08
8.88024e-08
5.37751e-08
-1.03152e-07
9.81175e-08
5.9325e-08
-1.13996e-07
1.08443e-07
6.54244e-08
-1.25963e-07
1.19864e-07
7.22115e-08
-1.3926e-07
1.32473e-07
7.96394e-08
-1.53903e-07
1.46477e-07
8.79054e-08
-1.70149e-07
1.6188e-07
9.70024e-08
-1.88105e-07
1.79006e-07
1.07054e-07
-2.07902e-07
1.97847e-07
1.1823e-07
-2.29879e-07
2.18705e-07
1.3052e-07
-2.54052e-07
2.4176e-07
1.44198e-07
-2.80838e-07
2.67162e-07
1.5933e-07
-3.1039e-07
2.95256e-07
1.76157e-07
-3.43047e-07
3.2622e-07
1.94758e-07
-3.78978e-07
3.60373e-07
2.15598e-07
-4.18698e-07
3.97861e-07
2.38514e-07
-4.62157e-07
4.3924e-07
2.63579e-07
-5.10059e-07
4.84999e-07
2.9099e-07
-5.63128e-07
5.35718e-07
3.21514e-07
-6.21808e-07
5.91285e-07
3.55396e-07
-6.87375e-07
6.53492e-07
3.92703e-07
-7.59144e-07
7.21842e-07
4.33647e-07
-8.38751e-07
7.97809e-07
4.78974e-07
-9.26641e-07
8.81319e-07
5.29043e-07
-1.02367e-06
9.73602e-07
5.84338e-07
-1.13087e-06
1.07558e-06
6.4557e-07
-1.24925e-06
1.18802e-06
7.13583e-07
-1.37992e-06
1.31192e-06
7.89229e-07
-1.52425e-06
1.44861e-06
8.73461e-07
-1.6838e-06
1.59957e-06
9.67322e-07
-1.8603e-06
1.76644e-06
1.07197e-06
-2.05569e-06
1.95105e-06
1.18864e-06
-2.27216e-06
2.15548e-06
1.31865e-06
-2.51218e-06
2.38218e-06
1.4634e-06
-2.77849e-06
2.63375e-06
1.62459e-06
-3.07404e-06
2.91285e-06
1.80427e-06
-3.40211e-06
3.22243e-06
2.00471e-06
-3.76651e-06
3.56607e-06
2.22835e-06
-4.17164e-06
3.94802e-06
2.47781e-06
-4.62261e-06
4.37316e-06
2.75602e-06
-5.1252e-06
4.84701e-06
3.06594e-06
-5.68647e-06
5.37657e-06
3.41018e-06
-6.31487e-06
5.97064e-06
3.7903e-06
-7.02098e-06
6.64088e-06
4.20597e-06
-7.81853e-06
7.40287e-06
4.64741e-06
-8.72501e-06
8.28358e-06
5.10343e-06
-9.76463e-06
9.30862e-06
5.53064e-06
-1.09821e-05
1.05549e-05
5.9096e-06
-1.24473e-05
1.20683e-05
5.74908e-06
-1.42721e-05
1.44326e-05
4.89081e-06
-1.65154e-05
1.73736e-05
-2.04346e-05
2.53254e-05
5.45101e-12
-7.64753e-11
1.56532e-11
-2.97277e-10
3.53249e-11
-5.466e-10
6.57951e-11
-8.21272e-10
1.07589e-10
-1.12014e-09
1.61178e-10
-1.42573e-09
2.2688e-10
-1.72852e-09
3.04271e-10
-2.01829e-09
3.92871e-10
-2.28792e-09
4.91509e-10
-2.53218e-09
5.99385e-10
-2.74867e-09
7.15801e-10
-2.93707e-09
8.39355e-10
-3.10079e-09
9.69433e-10
-3.24341e-09
1.10431e-09
-3.37374e-09
1.24388e-09
-3.49812e-09
1.38804e-09
-3.62892e-09
1.53749e-09
-3.77536e-09
1.69262e-09
-3.95246e-09
1.8557e-09
-4.16919e-09
2.02812e-09
-4.44175e-09
2.21253e-09
-4.77935e-09
2.41149e-09
-5.19734e-09
2.62865e-09
-5.70346e-09
2.8676e-09
-6.31161e-09
3.13301e-09
-7.02686e-09
3.42914e-09
-7.86203e-09
3.75979e-09
-8.81743e-09
4.13318e-09
-9.91218e-09
4.55241e-09
-1.11403e-08
5.02355e-09
-1.25121e-08
5.55439e-09
-1.40353e-08
6.14839e-09
-1.57095e-08
6.81476e-09
-1.75537e-08
7.55604e-09
-1.9565e-08
8.38763e-09
-2.17687e-08
9.30888e-09
-2.41686e-08
1.03327e-08
-2.67873e-08
1.14669e-08
-2.96523e-08
1.27195e-08
-3.2774e-08
1.41061e-08
-3.62064e-08
1.56287e-08
-3.9954e-08
1.73107e-08
-4.40895e-08
1.91527e-08
-4.86235e-08
2.11912e-08
-5.36348e-08
2.34173e-08
-5.91569e-08
2.58804e-08
-6.52638e-08
2.85789e-08
-7.20282e-08
3.15473e-08
-7.94964e-08
3.48251e-08
-8.78028e-08
3.84107e-08
-9.69506e-08
4.23875e-08
-1.0713e-07
4.67381e-08
-1.18348e-07
5.15784e-08
-1.30802e-07
5.68882e-08
-1.44565e-07
6.27634e-08
-1.5978e-07
6.92675e-08
-1.76655e-07
7.63947e-08
-1.95238e-07
8.43575e-08
-2.15864e-07
9.30614e-08
-2.38586e-07
1.02769e-07
-2.63757e-07
1.1344e-07
-2.91513e-07
1.25333e-07
-3.22285e-07
1.38415e-07
-3.56135e-07
1.53183e-07
-3.93744e-07
1.69609e-07
-4.35125e-07
1.87898e-07
-4.80443e-07
2.085e-07
-5.30663e-07
2.2975e-07
-5.84378e-07
2.53693e-07
-6.45755e-07
2.80755e-07
-7.14434e-07
3.1037e-07
-7.88758e-07
3.42894e-07
-8.7127e-07
3.78687e-07
-9.62434e-07
4.18143e-07
-1.06312e-06
4.61718e-07
-1.17445e-06
5.09991e-07
-1.29752e-06
5.63616e-07
-1.43355e-06
6.23304e-07
-1.58394e-06
6.89813e-07
-1.75031e-06
7.6396e-07
-1.93445e-06
8.46627e-07
-2.13836e-06
9.38789e-07
-2.36431e-06
1.04148e-06
-2.61487e-06
1.15585e-06
-2.89285e-06
1.28321e-06
-3.20141e-06
1.4251e-06
-3.544e-06
1.58319e-06
-3.92459e-06
1.75929e-06
-4.34774e-06
1.95496e-06
-4.81828e-06
2.17205e-06
-5.34229e-06
2.41185e-06
-5.92627e-06
2.67478e-06
-6.5778e-06
2.95935e-06
-7.30555e-06
3.26123e-06
-8.1204e-06
3.56668e-06
-9.03047e-06
3.85581e-06
-1.00538e-05
4.07734e-06
-1.12036e-05
4.13318e-06
-1.25031e-05
3.79465e-06
-1.39335e-05
2.74691e-06
-1.54676e-05
-1.76877e-05
4.37103e-12
-8.08641e-11
1.18099e-11
-3.05045e-10
2.56391e-11
-5.6057e-10
4.74799e-11
-8.43788e-10
7.76623e-11
-1.15065e-09
1.16195e-10
-1.46507e-09
1.6361e-10
-1.77625e-09
2.19196e-10
-2.07444e-09
2.83003e-10
-2.35193e-09
3.54026e-10
-2.60398e-09
4.31975e-10
-2.82684e-09
5.16214e-10
-3.02173e-09
6.06027e-10
-3.19011e-09
7.00294e-10
-3.33775e-09
7.97881e-10
-3.47147e-09
8.98887e-10
-3.59969e-09
1.00305e-09
-3.73335e-09
1.11058e-09
-3.88444e-09
1.22243e-09
-4.06459e-09
1.33961e-09
-4.28711e-09
1.46386e-09
-4.5655e-09
1.59679e-09
-4.91265e-09
1.74013e-09
-5.34082e-09
1.89674e-09
-5.8614e-09
2.06946e-09
-6.48477e-09
2.26142e-09
-7.22009e-09
2.47526e-09
-8.07622e-09
2.71425e-09
-9.05818e-09
2.98413e-09
-1.01821e-08
3.28373e-09
-1.1441e-08
3.62535e-09
-1.2853e-08
4.00828e-09
-1.44181e-08
4.43758e-09
-1.6139e-08
4.91848e-09
-1.80367e-08
5.45454e-09
-2.0102e-08
6.05516e-09
-2.23709e-08
6.7186e-09
-2.48318e-08
7.46009e-09
-2.75304e-08
8.27651e-09
-3.04692e-08
9.17967e-09
-3.36786e-08
1.0182e-08
-3.72072e-08
1.1277e-08
-4.1049e-08
1.24947e-08
-4.53084e-08
1.38179e-08
-4.99465e-08
1.52915e-08
-5.51106e-08
1.68947e-08
-6.07599e-08
1.86716e-08
-6.70442e-08
2.06094e-08
-7.39666e-08
2.27551e-08
-8.16442e-08
2.51112e-08
-9.01587e-08
2.76996e-08
-9.95419e-08
3.05643e-08
-1.09993e-07
3.37038e-08
-1.21491e-07
3.71874e-08
-1.3428e-07
4.10225e-08
-1.48402e-07
4.52488e-08
-1.64004e-07
4.99354e-08
-1.81348e-07
5.50616e-08
-2.00363e-07
6.07987e-08
-2.21607e-07
6.70082e-08
-2.44792e-07
7.40355e-08
-2.70787e-07
8.1588e-08
-2.99064e-07
9.01466e-08
-3.30851e-07
9.93e-08
-3.65287e-07
1.09806e-07
-4.04256e-07
1.21285e-07
-4.46599e-07
1.34627e-07
-4.93787e-07
1.50039e-07
-5.46073e-07
1.6596e-07
-6.00306e-07
1.84482e-07
-6.64274e-07
2.03619e-07
-7.33575e-07
2.24756e-07
-8.09888e-07
2.48181e-07
-8.94696e-07
2.74077e-07
-9.88327e-07
3.02677e-07
-1.09173e-06
3.34255e-07
-1.20603e-06
3.69151e-07
-1.33242e-06
4.07811e-07
-1.47221e-06
4.50772e-07
-1.62691e-06
4.98626e-07
-1.79817e-06
5.51983e-07
-1.98781e-06
6.11513e-07
-2.19788e-06
6.7793e-07
-2.43073e-06
7.51993e-07
-2.68893e-06
8.3453e-07
-2.9754e-06
9.26472e-07
-3.29335e-06
1.02885e-06
-3.64638e-06
1.14276e-06
-4.0385e-06
1.26931e-06
-4.47429e-06
1.40969e-06
-4.95865e-06
1.56471e-06
-5.49732e-06
1.73466e-06
-6.09622e-06
1.91887e-06
-6.76202e-06
2.11486e-06
-7.50155e-06
2.31576e-06
-8.32132e-06
2.51148e-06
-9.22619e-06
2.68167e-06
-1.0224e-05
2.78723e-06
-1.13092e-05
2.7512e-06
-1.24671e-05
2.47492e-06
-1.36573e-05
1.71878e-06
-1.47115e-05
-1.59689e-05
3.88591e-12
8.11061e-12
1.5609e-11
-5.68894e-10
2.88437e-11
-8.57453e-10
4.66246e-11
-1.16929e-09
6.9934e-11
-1.48882e-09
9.80676e-11
-1.80515e-09
1.31583e-10
-2.10818e-09
1.69771e-10
-2.39077e-09
2.12612e-10
-2.64707e-09
2.59676e-10
-2.87473e-09
3.11111e-10
-3.07321e-09
3.65833e-10
-3.24512e-09
4.23279e-10
-3.39557e-09
4.82582e-10
-3.5313e-09
5.43933e-10
-3.6614e-09
6.06811e-10
-3.79727e-09
6.72091e-10
-3.94997e-09
7.39042e-10
-4.13247e-09
8.10191e-10
-4.35792e-09
8.85063e-10
-4.64039e-09
9.65348e-10
-4.99284e-09
1.05165e-09
-5.42788e-09
1.14658e-09
-5.95636e-09
1.25044e-09
-6.58939e-09
1.36674e-09
-7.33641e-09
1.49552e-09
-8.20597e-09
1.64379e-09
-9.20647e-09
1.8e-09
-1.03395e-08
1.97787e-09
-1.16184e-08
2.1925e-09
-1.30675e-08
2.41992e-09
-1.46451e-08
2.6807e-09
-1.64004e-08
2.9702e-09
-1.83264e-08
3.29233e-09
-2.04263e-08
3.65498e-09
-2.27331e-08
4.05551e-09
-2.52329e-08
4.50385e-09
-2.79789e-08
4.99305e-09
-3.09606e-08
5.54222e-09
-3.42267e-08
6.14653e-09
-3.78106e-08
6.80525e-09
-4.17087e-08
7.54629e-09
-4.60485e-08
8.33651e-09
-5.07389e-08
9.24174e-09
-5.60136e-08
1.01896e-08
-6.17113e-08
1.1282e-08
-6.81342e-08
1.24218e-08
-7.51097e-08
1.37302e-08
-8.29496e-08
1.5145e-08
-9.15763e-08
1.67135e-08
-1.01106e-07
1.84352e-08
-1.11722e-07
2.03307e-08
-1.2338e-07
2.24299e-08
-1.36383e-07
2.47449e-08
-1.50712e-07
2.72665e-08
-1.66533e-07
3.01435e-08
-1.84222e-07
3.31308e-08
-2.0336e-07
3.67125e-08
-2.25182e-07
4.02822e-08
-2.48365e-07
4.46303e-08
-2.7513e-07
4.90534e-08
-3.03493e-07
5.42418e-08
-3.36034e-07
5.94811e-08
-3.70534e-07
6.57396e-08
-4.10506e-07
7.15111e-08
-4.52373e-07
7.9641e-08
-5.01911e-07
8.76185e-08
-5.54057e-07
9.9965e-08
-6.12646e-07
1.10784e-07
-6.751e-07
1.2404e-07
-7.46822e-07
1.37457e-07
-8.23306e-07
1.5205e-07
-9.09283e-07
1.67744e-07
-1.00403e-06
1.84929e-07
-1.10891e-06
2.03763e-07
-1.22487e-06
2.24497e-07
-1.35315e-06
2.47487e-07
-1.49521e-06
2.73125e-07
-1.65254e-06
3.01773e-07
-1.82682e-06
3.33788e-07
-2.01982e-06
3.69541e-07
-2.23364e-06
4.09453e-07
-2.47064e-06
4.53973e-07
-2.73346e-06
5.03625e-07
-3.02505e-06
5.58949e-07
-3.34868e-06
6.20563e-07
-3.70799e-06
6.89127e-07
-4.10706e-06
7.65222e-07
-4.55039e-06
8.49461e-07
-5.0429e-06
9.41964e-07
-5.58983e-06
1.0428e-06
-6.19707e-06
1.15127e-06
-6.8705e-06
1.26547e-06
-7.61576e-06
1.38122e-06
-8.43706e-06
1.49376e-06
-9.33875e-06
1.58818e-06
-1.03184e-05
1.64371e-06
-1.13647e-05
1.62739e-06
-1.24507e-05
1.49506e-06
-1.35249e-05
1.31296e-06
-1.45294e-05
-1.4656e-05
6.43179e-12
1.02729e-11
1.58395e-11
2.28581e-11
3.1685e-11
4.21572e-11
5.44447e-11
6.8413e-11
8.46013e-11
1.02306e-10
1.21622e-10
1.41753e-10
1.62229e-10
1.83247e-10
2.04516e-10
2.26041e-10
2.48574e-10
2.71875e-10
2.96916e-10
3.23807e-10
3.52688e-10
3.83851e-10
4.18346e-10
4.5685e-10
4.99984e-10
5.5092e-10
6.09397e-10
6.83708e-10
7.31306e-10
7.97286e-10
8.98292e-10
9.73036e-10
1.10366e-09
1.20145e-09
1.35236e-09
1.49188e-09
1.65444e-09
1.85387e-09
2.02212e-09
2.29181e-09
2.48393e-09
2.80457e-09
3.0694e-09
3.39518e-09
3.80388e-09
4.06342e-09
4.61656e-09
4.96118e-09
5.62612e-09
6.06173e-09
6.80152e-09
7.43336e-09
8.1866e-09
9.12775e-09
9.86606e-09
1.11516e-08
1.19921e-08
1.34889e-08
1.4668e-08
1.63148e-08
1.81647e-08
1.94197e-08
2.19678e-08
2.30341e-08
2.52229e-08
2.42308e-08
2.85658e-08
3.64734e-08
4.27602e-08
4.8076e-08
5.25866e-08
5.7523e-08
6.30631e-08
6.9368e-08
7.64949e-08
8.44558e-08
9.31941e-08
1.02836e-07
1.13325e-07
1.24782e-07
1.37475e-07
1.51692e-07
1.6766e-07
1.8567e-07
2.05956e-07
2.2877e-07
2.54262e-07
2.82531e-07
3.13634e-07
3.47554e-07
3.83971e-07
4.22136e-07
4.60957e-07
4.98782e-07
5.31776e-07
5.53566e-07
5.51728e-07
4.80385e-07
2.61148e-07
1.67306e-11
-1.6775e-11
5.69847e-11
-4.0329e-11
1.51616e-10
-9.46306e-11
2.48584e-10
-9.70447e-11
3.86188e-10
-1.37579e-10
5.61266e-10
-1.75171e-10
7.6167e-10
-2.00385e-10
1.00532e-09
-2.43833e-10
1.27098e-09
-2.65699e-10
1.56647e-09
-2.95747e-10
1.88802e-09
-3.2158e-10
2.20869e-09
-3.20976e-10
2.53095e-09
-3.22316e-10
2.86343e-09
-3.32793e-10
3.20529e-09
-3.41797e-10
3.55217e-09
-3.47159e-10
3.90907e-09
-3.56856e-10
4.28179e-09
-3.73123e-10
4.67636e-09
-3.94545e-10
5.10354e-09
-4.27581e-10
5.57568e-09
-4.72063e-10
6.10524e-09
-5.29988e-10
6.70422e-09
-5.98945e-10
7.40258e-09
-6.98787e-10
8.18833e-09
-7.85529e-10
9.08848e-09
-9.00424e-10
1.01144e-08
-1.02559e-09
1.12743e-08
-1.16035e-09
1.25446e-08
-1.27001e-09
1.39282e-08
-1.38404e-09
1.54543e-08
-1.52595e-09
1.7145e-08
-1.69134e-09
1.902e-08
-1.87492e-09
2.10979e-08
-2.07881e-09
2.34028e-08
-2.30472e-09
2.59578e-08
-2.55604e-09
2.87965e-08
-2.83866e-09
3.18404e-08
-3.04512e-09
3.5186e-08
-3.34533e-09
3.89348e-08
-3.74999e-09
4.3157e-08
-4.22211e-09
4.79051e-08
-4.74918e-09
5.32159e-08
-5.31032e-09
5.91216e-08
-5.90683e-09
6.56461e-08
-6.52403e-09
7.28099e-08
-7.16485e-09
8.06873e-08
-7.87663e-09
8.94341e-08
-8.74799e-09
9.89394e-08
-9.50464e-09
1.09445e-07
-1.05071e-08
1.21073e-07
-1.16274e-08
1.33997e-07
-1.29256e-08
1.48429e-07
-1.44313e-08
1.64465e-07
-1.60372e-08
1.82321e-07
-1.78553e-08
2.02024e-07
-1.97049e-08
2.23845e-07
-2.182e-08
2.48074e-07
-2.42313e-08
2.74822e-07
-2.67465e-08
3.05137e-07
-3.03169e-08
3.3837e-07
-3.32317e-08
3.74179e-07
-3.58112e-08
4.13292e-07
-3.91114e-08
4.57015e-07
-4.37242e-08
5.05095e-07
-4.80783e-08
5.58658e-07
-5.35637e-08
6.18839e-07
-6.01793e-08
6.87786e-07
-6.89479e-08
7.56402e-07
-6.86136e-08
8.44653e-07
-8.82522e-08
9.38816e-07
-9.41601e-08
1.03346e-06
-9.46461e-08
1.1347e-06
-1.01235e-07
1.24737e-06
-1.12673e-07
1.38101e-06
-1.33634e-07
1.52851e-06
-1.47505e-07
1.68778e-06
-1.59267e-07
1.86493e-06
-1.77155e-07
2.0601e-06
-1.95164e-07
2.27593e-06
-2.15826e-07
2.51108e-06
-2.35151e-07
2.76707e-06
-2.55993e-07
3.04603e-06
-2.78954e-07
3.35022e-06
-3.04193e-07
3.68168e-06
-3.31458e-07
4.04258e-06
-3.60899e-07
4.43756e-06
-3.94984e-07
4.87248e-06
-4.34922e-07
5.34878e-06
-4.76289e-07
5.86822e-06
-5.19447e-07
6.43389e-06
-5.65667e-07
7.04129e-06
-6.07398e-07
7.70602e-06
-6.64732e-07
8.44242e-06
-7.36399e-07
9.19856e-06
-7.56135e-07
9.93589e-06
-7.37324e-07
1.06781e-05
-7.42198e-07
1.14375e-05
-7.59378e-07
1.21943e-05
-7.56791e-07
1.29178e-05
-7.23539e-07
1.35692e-05
-6.51399e-07
-5.30045e-07
1.40992e-05
3.62009e-12
-2.04336e-11
3.70303e-11
-7.37941e-11
1.19302e-10
-1.76935e-10
2.42432e-10
-2.20218e-10
3.83927e-10
-2.79097e-10
5.50277e-10
-3.41572e-10
7.40752e-10
-3.90907e-10
9.58281e-10
-4.61485e-10
1.19607e-09
-5.03609e-10
1.48197e-09
-5.81817e-10
1.79558e-09
-6.35317e-10
2.08884e-09
-6.14442e-10
2.40583e-09
-6.39444e-10
2.74708e-09
-6.74207e-10
3.10671e-09
-7.01496e-10
3.4731e-09
-7.13695e-10
3.85666e-09
-7.40508e-10
4.25974e-09
-7.76437e-10
4.68605e-09
-8.2103e-10
5.14428e-09
-8.8601e-10
5.64183e-09
-9.69734e-10
6.18438e-09
-1.07283e-09
6.76516e-09
-1.17986e-09
7.46123e-09
-1.39499e-09
8.19694e-09
-1.52121e-09
9.02808e-09
-1.73161e-09
9.95415e-09
-1.95157e-09
1.10177e-08
-2.22398e-09
1.21904e-08
-2.44274e-09
1.34845e-08
-2.67827e-09
1.49361e-08
-2.97765e-09
1.6563e-08
-3.31861e-09
1.8384e-08
-3.69617e-09
2.04184e-08
-4.11355e-09
2.26916e-08
-4.57817e-09
2.52195e-08
-5.08456e-09
2.81133e-08
-5.73284e-09
3.11626e-08
-6.09495e-09
3.45125e-08
-6.69553e-09
3.81865e-08
-7.42453e-09
4.22712e-08
-8.30709e-09
4.6862e-08
-9.34047e-09
5.19747e-08
-1.04231e-08
5.76138e-08
-1.15464e-08
6.38552e-08
-1.27655e-08
7.08074e-08
-1.41174e-08
7.85368e-08
-1.56059e-08
8.70588e-08
-1.72705e-08
9.65101e-08
-1.89561e-08
1.069e-07
-2.08976e-08
1.18325e-07
-2.3052e-08
1.30902e-07
-2.55032e-08
1.44818e-07
-2.83484e-08
1.60303e-07
-3.15218e-08
1.77407e-07
-3.49601e-08
1.96503e-07
-3.88015e-08
2.17576e-07
-4.28927e-08
2.40595e-07
-4.72508e-08
2.65646e-07
-5.17978e-08
2.95661e-07
-6.03327e-08
3.29311e-07
-6.68814e-08
3.64662e-07
-7.11623e-08
4.04151e-07
-7.86004e-08
4.46872e-07
-8.6445e-08
4.94187e-07
-9.53932e-08
5.45593e-07
-1.04969e-07
6.01804e-07
-1.16389e-07
6.59727e-07
-1.26872e-07
7.33605e-07
-1.42491e-07
8.06201e-07
-1.60848e-07
8.88957e-07
-1.76915e-07
9.84964e-07
-1.90652e-07
1.10429e-06
-2.20563e-07
1.22894e-06
-2.37324e-07
1.36009e-06
-2.64783e-07
1.50385e-06
-2.91265e-07
1.66384e-06
-3.1925e-07
1.83782e-06
-3.51138e-07
2.02848e-06
-3.85822e-07
2.23605e-06
-4.23397e-07
2.46445e-06
-4.63554e-07
2.71594e-06
-5.07481e-07
2.99273e-06
-5.55743e-07
3.2966e-06
-6.08059e-07
3.62832e-06
-6.63184e-07
3.99087e-06
-7.23446e-07
4.39014e-06
-7.94253e-07
4.83163e-06
-8.76412e-07
5.3125e-06
-9.57154e-07
5.83596e-06
-1.04291e-06
6.39413e-06
-1.12383e-06
6.97651e-06
-1.18978e-06
7.58792e-06
-1.27614e-06
8.25008e-06
-1.39856e-06
8.9576e-06
-1.46365e-06
9.72659e-06
-1.50632e-06
1.05797e-05
-1.59534e-06
1.14796e-05
-1.65923e-06
1.23947e-05
-1.67187e-06
1.32934e-05
-1.6223e-06
1.41358e-05
-1.49374e-06
-1.27191e-06
1.48776e-05
2.32728e-12
-2.28539e-11
4.0969e-11
-1.1251e-10
8.29963e-11
-2.19014e-10
1.61194e-10
-2.98466e-10
2.84029e-10
-4.01976e-10
4.38742e-10
-4.96339e-10
6.45278e-10
-5.97511e-10
8.55823e-10
-6.72153e-10
1.06409e-09
-7.12001e-10
1.30475e-09
-8.22646e-10
1.56795e-09
-8.98671e-10
1.94098e-09
-9.87654e-10
2.33162e-09
-1.03024e-09
2.70806e-09
-1.05077e-09
3.08076e-09
-1.07427e-09
3.4583e-09
-1.09135e-09
3.84431e-09
-1.12669e-09
4.24321e-09
-1.17555e-09
4.65667e-09
-1.23463e-09
5.08815e-09
-1.31769e-09
5.54251e-09
-1.42436e-09
6.03539e-09
-1.56593e-09
6.57578e-09
-1.72035e-09
7.17467e-09
-1.99394e-09
7.84613e-09
-2.1927e-09
8.59313e-09
-2.47858e-09
9.456e-09
-2.81437e-09
1.04193e-08
-3.18732e-09
1.14608e-08
-3.4843e-09
1.26457e-08
-3.86318e-09
1.39937e-08
-4.32587e-09
1.5515e-08
-4.84015e-09
1.72239e-08
-5.40525e-09
1.91365e-08
-6.0265e-09
2.12725e-08
-6.71457e-09
2.36487e-08
-7.46134e-09
2.62882e-08
-8.37276e-09
2.92026e-08
-9.00971e-09
3.25112e-08
-1.00044e-08
3.6041e-08
-1.09547e-08
3.98583e-08
-1.21247e-08
4.41872e-08
-1.36697e-08
4.90188e-08
-1.52549e-08
5.43103e-08
-1.68382e-08
6.01695e-08
-1.8625e-08
6.66581e-08
-2.06061e-08
7.3821e-08
-2.2769e-08
8.1754e-08
-2.52038e-08
9.06238e-08
-2.78259e-08
1.00317e-07
-3.05915e-08
1.10905e-07
-3.36404e-08
1.22601e-07
-3.71993e-08
1.35518e-07
-4.12659e-08
1.49792e-07
-4.57969e-08
1.65638e-07
-5.08057e-08
1.83145e-07
-5.63096e-08
2.02652e-07
-6.23996e-08
2.2427e-07
-6.8869e-08
2.48188e-07
-7.57168e-08
2.7456e-07
-8.67042e-08
3.03949e-07
-9.62707e-08
3.36575e-07
-1.03788e-07
3.72551e-07
-1.14576e-07
4.12419e-07
-1.26314e-07
4.5589e-07
-1.38863e-07
5.03935e-07
-1.53014e-07
5.5628e-07
-1.68734e-07
6.14087e-07
-1.84678e-07
6.82058e-07
-2.10461e-07
7.53441e-07
-2.3223e-07
8.33782e-07
-2.57255e-07
9.23455e-07
-2.80325e-07
1.0217e-06
-3.18808e-07
1.12892e-06
-3.44546e-07
1.24448e-06
-3.80334e-07
1.3727e-06
-4.19485e-07
1.51626e-06
-4.6281e-07
1.67486e-06
-5.09743e-07
1.84998e-06
-5.60934e-07
2.04353e-06
-6.16953e-07
2.258e-06
-6.78018e-07
2.49554e-06
-7.45027e-07
2.75867e-06
-8.18866e-07
3.04896e-06
-8.98356e-07
3.36447e-06
-9.78691e-07
3.70838e-06
-1.06735e-06
4.08626e-06
-1.17214e-06
4.49666e-06
-1.28681e-06
4.9367e-06
-1.3972e-06
5.41845e-06
-1.52466e-06
5.92515e-06
-1.63054e-06
6.48348e-06
-1.7481e-06
7.13585e-06
-1.92851e-06
7.81078e-06
-2.07349e-06
8.59021e-06
-2.24307e-06
9.51122e-06
-2.42733e-06
1.04612e-05
-2.54527e-06
1.14361e-05
-2.63413e-06
1.24411e-05
-2.67696e-06
1.34616e-05
-2.64272e-06
1.44598e-05
-2.49197e-06
-2.19294e-06
1.53808e-05
8.60641e-12
-3.1542e-11
2.9919e-11
-1.33905e-10
7.84476e-11
-2.67611e-10
1.59912e-10
-3.79998e-10
2.7183e-10
-5.13956e-10
4.15584e-10
-6.4015e-10
5.85213e-10
-7.67226e-10
7.92331e-10
-8.79383e-10
1.02592e-09
-9.45747e-10
1.31084e-09
-1.10773e-09
1.59461e-09
-1.18261e-09
1.86927e-09
-1.2625e-09
2.17083e-09
-1.33194e-09
2.50207e-09
-1.3821e-09
2.85363e-09
-1.42591e-09
3.23054e-09
-1.46841e-09
3.6214e-09
-1.51773e-09
4.02756e-09
-1.58184e-09
4.44675e-09
-1.65398e-09
4.88822e-09
-1.75943e-09
5.35454e-09
-1.89096e-09
5.84933e-09
-2.06088e-09
6.39479e-09
-2.26586e-09
6.93504e-09
-2.53425e-09
7.561e-09
-2.81865e-09
8.24755e-09
-3.16508e-09
8.95947e-09
-3.5262e-09
9.75737e-09
-3.98521e-09
1.0815e-08
-4.54192e-09
1.20634e-08
-5.11173e-09
1.34292e-08
-5.6918e-09
1.49507e-08
-6.36185e-09
1.66216e-08
-7.07639e-09
1.84737e-08
-7.8791e-09
2.05122e-08
-8.75357e-09
2.27488e-08
-9.69836e-09
2.51568e-08
-1.07812e-08
2.79885e-08
-1.18418e-08
3.11498e-08
-1.3166e-08
3.44184e-08
-1.42236e-08
3.80356e-08
-1.57423e-08
4.19681e-08
-1.76025e-08
4.63657e-08
-1.96526e-08
5.12123e-08
-2.16851e-08
5.65128e-08
-2.39257e-08
6.25239e-08
-2.66173e-08
6.90896e-08
-2.93348e-08
7.66918e-08
-3.28059e-08
8.50697e-08
-3.6204e-08
9.37771e-08
-3.92995e-08
1.03411e-07
-4.32745e-08
1.14232e-07
-4.80213e-08
1.26273e-07
-5.33071e-08
1.39621e-07
-5.91455e-08
1.54414e-07
-6.55991e-08
1.7081e-07
-7.27059e-08
1.8914e-07
-8.07299e-08
2.09501e-07
-8.92314e-08
2.32531e-07
-9.87469e-08
2.55896e-07
-1.10069e-07
2.81402e-07
-1.21776e-07
3.113e-07
-1.33687e-07
3.44065e-07
-1.47341e-07
3.80203e-07
-1.62452e-07
4.20235e-07
-1.78895e-07
4.64841e-07
-1.9762e-07
5.14965e-07
-2.18858e-07
5.72429e-07
-2.42142e-07
6.31514e-07
-2.69545e-07
6.97474e-07
-2.9819e-07
7.69058e-07
-3.28838e-07
8.509e-07
-3.62167e-07
9.35902e-07
-4.03809e-07
1.03645e-06
-4.45093e-07
1.14447e-06
-4.8835e-07
1.26043e-06
-5.35446e-07
1.38742e-06
-5.89803e-07
1.52798e-06
-6.50305e-07
1.68364e-06
-7.16594e-07
1.85629e-06
-7.89595e-07
2.0483e-06
-8.70026e-07
2.26258e-06
-9.59313e-07
2.5026e-06
-1.05888e-06
2.76886e-06
-1.16462e-06
3.05965e-06
-1.26948e-06
3.38236e-06
-1.39006e-06
3.7388e-06
-1.52857e-06
4.11341e-06
-1.66142e-06
4.52601e-06
-1.80979e-06
4.9709e-06
-1.96954e-06
5.52429e-06
-2.18393e-06
6.19619e-06
-2.42001e-06
6.88522e-06
-2.61753e-06
7.6367e-06
-2.82497e-06
8.44192e-06
-3.04829e-06
9.29784e-06
-3.28325e-06
1.02518e-05
-3.49923e-06
1.12907e-05
-3.67305e-06
1.23983e-05
-3.78456e-06
1.35613e-05
-3.80569e-06
1.4733e-05
-3.66368e-06
-3.32292e-06
1.5863e-05
4.94709e-12
-3.66301e-11
3.21719e-11
-1.61244e-10
7.75627e-11
-3.13098e-10
1.58237e-10
-4.60755e-10
2.62689e-10
-6.18472e-10
3.99841e-10
-7.77387e-10
5.60634e-10
-9.28104e-10
7.55178e-10
-1.07407e-09
1.01138e-09
-1.20212e-09
1.24459e-09
-1.34113e-09
1.50906e-09
-1.44728e-09
1.78889e-09
-1.5425e-09
2.08488e-09
-1.62804e-09
2.4002e-09
-1.69749e-09
2.73203e-09
-1.75783e-09
3.08101e-09
-1.81754e-09
3.44609e-09
-1.8829e-09
3.82554e-09
-1.96143e-09
4.22833e-09
-2.05699e-09
4.64946e-09
-2.18082e-09
5.09616e-09
-2.33787e-09
5.57004e-09
-2.53491e-09
6.08253e-09
-2.77843e-09
6.62457e-09
-3.07632e-09
7.22428e-09
-3.41835e-09
7.88199e-09
-3.82272e-09
8.64884e-09
-4.29298e-09
9.48963e-09
-4.82597e-09
1.03896e-08
-5.44198e-09
1.14021e-08
-6.12431e-09
1.25895e-08
-6.87929e-09
1.39154e-08
-7.68806e-09
1.54106e-08
-8.57203e-09
1.70943e-08
-9.56334e-09
1.89487e-08
-1.06086e-08
2.10486e-08
-1.17988e-08
2.3317e-08
-1.305e-08
2.59067e-08
-1.44317e-08
2.86879e-08
-1.59475e-08
3.19707e-08
-1.75068e-08
3.56407e-08
-1.94126e-08
3.94698e-08
-2.14317e-08
4.36487e-08
-2.38318e-08
4.81824e-08
-2.62189e-08
5.3315e-08
-2.90585e-08
5.8793e-08
-3.20954e-08
6.47948e-08
-3.53364e-08
7.08315e-08
-3.88427e-08
7.76371e-08
-4.30103e-08
8.66385e-08
-4.83014e-08
9.70668e-08
-5.37034e-08
1.0836e-07
-5.93155e-08
1.20563e-07
-6.551e-08
1.33814e-07
-7.23972e-08
1.48198e-07
-7.9984e-08
1.63744e-07
-8.82527e-08
1.81351e-07
-9.83385e-08
2.00111e-07
-1.07992e-07
2.20679e-07
-1.19315e-07
2.42864e-07
-1.32254e-07
2.67422e-07
-1.46334e-07
2.95053e-07
-1.61318e-07
3.25726e-07
-1.78014e-07
3.59426e-07
-1.96151e-07
3.97476e-07
-2.16945e-07
4.39434e-07
-2.39579e-07
4.84816e-07
-2.64239e-07
5.34668e-07
-2.91994e-07
5.88318e-07
-3.23195e-07
6.48046e-07
-3.57916e-07
7.15043e-07
-3.95835e-07
7.90807e-07
-4.3793e-07
8.74943e-07
-4.87945e-07
9.64536e-07
-5.34687e-07
1.05913e-06
-5.82939e-07
1.16538e-06
-6.41703e-07
1.28365e-06
-7.08065e-07
1.41454e-06
-7.81202e-07
1.56055e-06
-8.62606e-07
1.72224e-06
-9.51281e-07
1.90174e-06
-1.04953e-06
2.10229e-06
-1.15986e-06
2.32e-06
-1.27659e-06
2.55478e-06
-1.39939e-06
2.82946e-06
-1.54417e-06
3.13981e-06
-1.70041e-06
3.47143e-06
-1.86019e-06
3.85142e-06
-2.04141e-06
4.28988e-06
-2.24825e-06
4.79166e-06
-2.47132e-06
5.32198e-06
-2.71424e-06
5.88558e-06
-2.98361e-06
6.53184e-06
-3.26379e-06
7.25852e-06
-3.55164e-06
8.06806e-06
-3.85784e-06
8.96622e-06
-4.18141e-06
9.96957e-06
-4.50258e-06
1.10925e-05
-4.79597e-06
1.2333e-05
-5.0251e-06
1.36952e-05
-5.1679e-06
1.51063e-05
-5.0747e-06
-4.76138e-06
1.65447e-05
4.66627e-12
-4.14042e-11
3.18166e-11
-1.88515e-10
7.53452e-11
-3.56736e-10
1.47294e-10
-5.32786e-10
2.46819e-10
-7.1809e-10
3.73977e-10
-9.04614e-10
5.30656e-10
-1.08491e-09
7.18331e-10
-1.26192e-09
9.35874e-10
-1.41987e-09
1.16317e-09
-1.56865e-09
1.41555e-09
-1.69986e-09
1.68581e-09
-1.81291e-09
1.97002e-09
-1.91237e-09
2.26919e-09
-1.99674e-09
2.58266e-09
-2.0714e-09
2.90966e-09
-2.14458e-09
3.25043e-09
-2.2238e-09
3.60505e-09
-2.31617e-09
3.97725e-09
-2.42942e-09
4.36783e-09
-2.57162e-09
4.78132e-09
-2.75159e-09
5.22254e-09
-2.97623e-09
5.6973e-09
-3.25328e-09
6.20986e-09
-3.58891e-09
6.77792e-09
-3.98643e-09
7.40611e-09
-4.45082e-09
8.10433e-09
-4.99117e-09
8.88876e-09
-5.6104e-09
9.76129e-09
-6.31465e-09
1.0728e-08
-7.0911e-09
1.18087e-08
-7.96029e-09
1.3035e-08
-8.91484e-09
1.44219e-08
-9.95949e-09
1.59677e-08
-1.11098e-08
1.77107e-08
-1.23522e-08
1.96415e-08
-1.37301e-08
2.18003e-08
-1.52091e-08
2.42073e-08
-1.68391e-08
2.68703e-08
-1.86109e-08
2.99028e-08
-2.05397e-08
3.31965e-08
-2.27065e-08
3.68407e-08
-2.50763e-08
4.07767e-08
-2.7768e-08
4.5207e-08
-3.06493e-08
5.00115e-08
-3.38632e-08
5.52861e-08
-3.737e-08
6.11824e-08
-4.1233e-08
6.788e-08
-4.5541e-08
7.52038e-08
-5.03345e-08
8.27806e-08
-5.58792e-08
9.10829e-08
-6.20065e-08
1.00398e-07
-6.86308e-08
1.108e-07
-7.59128e-08
1.22288e-07
-8.38864e-08
1.35045e-07
-9.27422e-08
1.48997e-07
-1.02205e-07
1.64583e-07
-1.13926e-07
1.81954e-07
-1.25363e-07
2.01078e-07
-1.38438e-07
2.21972e-07
-1.53148e-07
2.4488e-07
-1.69242e-07
2.70437e-07
-1.86875e-07
2.98629e-07
-2.06207e-07
3.3e-07
-2.27522e-07
3.64297e-07
-2.51243e-07
4.02257e-07
-2.77539e-07
4.44573e-07
-3.06556e-07
4.91216e-07
-3.38636e-07
5.42372e-07
-3.7435e-07
5.98128e-07
-4.13672e-07
6.58881e-07
-4.56587e-07
7.25911e-07
-5.0496e-07
7.90957e-07
-5.5299e-07
8.68341e-07
-6.1207e-07
9.67788e-07
-6.82386e-07
1.08165e-06
-7.55561e-07
1.20667e-06
-8.33086e-07
1.34321e-06
-9.17747e-07
1.49044e-06
-1.00984e-06
1.65051e-06
-1.11134e-06
1.82246e-06
-1.22148e-06
2.00217e-06
-1.33958e-06
2.19736e-06
-1.47178e-06
2.42189e-06
-1.62392e-06
2.67391e-06
-1.79619e-06
2.95616e-06
-1.98266e-06
3.27749e-06
-2.18152e-06
3.63705e-06
-2.40096e-06
4.0363e-06
-2.64751e-06
4.4834e-06
-2.91842e-06
4.9837e-06
-3.21454e-06
5.54106e-06
-3.54097e-06
6.17029e-06
-3.89302e-06
6.88625e-06
-4.2676e-06
7.69961e-06
-4.6712e-06
8.62117e-06
-5.10297e-06
9.67162e-06
-5.55303e-06
1.08727e-05
-5.99707e-06
1.22515e-05
-6.4039e-06
1.38469e-05
-6.76324e-06
1.55686e-05
-6.79645e-06
-6.75252e-06
1.75598e-05
5.33378e-12
-4.69041e-11
3.07542e-11
-2.14077e-10
7.12405e-11
-3.97332e-10
1.35501e-10
-5.97155e-10
2.28097e-10
-8.10763e-10
3.44175e-10
-1.02081e-09
4.89654e-10
-1.23056e-09
6.60578e-10
-1.43302e-09
8.5848e-10
-1.61799e-09
1.07599e-09
-1.78637e-09
1.31276e-09
-1.93679e-09
1.56538e-09
-2.06568e-09
1.82944e-09
-2.1765e-09
2.10638e-09
-2.27379e-09
2.39674e-09
-2.36181e-09
2.69971e-09
-2.44763e-09
3.01466e-09
-2.53882e-09
3.34246e-09
-2.64415e-09
3.68484e-09
-2.77202e-09
4.04481e-09
-2.93183e-09
4.42544e-09
-3.13237e-09
4.83173e-09
-3.38265e-09
5.26892e-09
-3.69058e-09
5.74396e-09
-4.06402e-09
6.26599e-09
-4.50843e-09
6.84532e-09
-5.03012e-09
7.48959e-09
-5.63546e-09
8.20946e-09
-6.33037e-09
9.01098e-09
-7.11627e-09
9.91691e-09
-7.99727e-09
1.09336e-08
-8.97742e-09
1.20752e-08
-1.00569e-08
1.33614e-08
-1.12465e-08
1.4799e-08
-1.25481e-08
1.64173e-08
-1.39711e-08
1.82132e-08
-1.55265e-08
2.02222e-08
-1.72186e-08
2.2454e-08
-1.90712e-08
2.49322e-08
-2.10893e-08
2.76989e-08
-2.33065e-08
3.07362e-08
-2.57443e-08
3.40998e-08
-2.84401e-08
3.77563e-08
-3.14237e-08
4.17973e-08
-3.46905e-08
4.62322e-08
-3.82979e-08
5.11258e-08
-4.22636e-08
5.65582e-08
-4.66659e-08
6.25485e-08
-5.15319e-08
6.91722e-08
-5.69596e-08
7.63491e-08
-6.30567e-08
8.41757e-08
-6.98316e-08
9.28133e-08
-7.72697e-08
1.02309e-07
-8.54093e-08
1.1284e-07
-9.4419e-08
1.24471e-07
-1.04375e-07
1.37623e-07
-1.15359e-07
1.514e-07
-1.27704e-07
1.6709e-07
-1.41053e-07
1.84538e-07
-1.55886e-07