/*--------------------------------*- C++ -*----------------------------------*\
| =========                 |                                                 |
| \\      /  F ield         | OpenFOAM: The Open Source CFD Toolbox           |
|  \\    /   O peration     | Version:  2206                                  |
|   \\  /    A nd           | Website:  www.openfoam.com                      |
|    \\/     M anipulation  |                                                 |
\*---------------------------------------------------------------------------*/
FoamFile
{
    version     2.0;
    format      ascii;
    arch        "LSB;label=32;scalar=64";
    class       volVectorField;
    location    "19.2";
    object      ddt0(U);
}
// * * * * * * * * * * * * * * * * * * * * * * * * * * * * * * * * * * * * * //

dimensions      [0 1 -2 0 0 0 0];

internalField   nonuniform List<vector> 
1826
(
(134.971 -41.9179 0)
(149.696 -45.4999 0)
(149.793 -37.1442 0)
(142.138 -22.7516 0)
(128.998 -6.22968 0)
(113.548 8.05609 0)
(98.2335 16.8372 0)
(84.5951 18.6724 0)
(73.1501 13.7358 0)
(63.5521 3.26583 0)
(54.862 -11.2922 0)
(45.1785 -27.9883 0)
(34.1288 -44.2206 0)
(22.4085 -58.7094 0)
(9.68964 -69.7484 0)
(-3.66921 -76.3251 0)
(-17.0031 -77.7562 0)
(-29.3588 -73.8843 0)
(-40.5655 -66.1901 0)
(-50.478 -55.3417 0)
(-59.0649 -42.0521 0)
(-66.14 -27.0741 0)
(-71.616 -11.3414 0)
(-76.0661 4.59796 0)
(-79.5841 20.5122 0)
(-82.3311 36.0573 0)
(-84.0156 50.7257 0)
(-83.5608 63.2485 0)
(-77.9442 70.7655 0)
(-67.3412 73.2318 0)
(-52.3437 70.8281 0)
(-34.5918 64.4296 0)
(-15.1489 55.9343 0)
(7.5896 45.8911 0)
(30.8562 30.5917 0)
(51.3394 16.3335 0)
(66.1784 5.86592 0)
(74.0317 -0.434785 0)
(74.9298 -2.88274 0)
(72.2663 -2.87064 0)
(67.5427 -2.19683 0)
(61.7448 -2.24754 0)
(55.5295 -3.70465 0)
(49.2645 -6.85135 0)
(43.0252 -11.7228 0)
(36.5969 -18.0821 0)
(29.6416 -25.4339 0)
(21.8949 -32.7276 0)
(14.0122 -39.5662 0)
(5.94102 -45.0859 0)
(-2.20544 -48.349 0)
(-9.93142 -48.6013 0)
(-16.8323 -45.9149 0)
(-22.909 -41.1184 0)
(-28.1574 -34.6194 0)
(-32.6555 -26.8468 0)
(-36.4547 -18.183 0)
(-39.2422 -9.03685 0)
(-41.4272 0.206026 0)
(-43.0197 9.50085 0)
(-43.9888 18.6293 0)
(-44.2613 27.2928 0)
(-43.473 34.9836 0)
(-40.6623 40.5851 0)
(-35.2477 43.3269 0)
(-27.7913 43.7474 0)
(-18.7777 42.1089 0)
(-8.91537 38.9661 0)
(1.21188 34.7013 0)
(11.5698 29.3803 0)
(21.2858 22.7207 0)
(29.391 16.2883 0)
(35.4399 10.9101 0)
(39.1479 6.40637 0)
(40.8226 2.59008 0)
(40.7681 -0.785991 0)
(39.573 -4.14618 0)
(37.4396 -7.8183 0)
(34.4389 -11.8015 0)
(30.6789 -16.0355 0)
(26.2311 -20.4948 0)
(21.1441 -24.974 0)
(15.5043 -29.0268 0)
(9.53521 -32.366 0)
(3.37624 -34.3272 0)
(-2.57863 -34.4459 0)
(-7.99009 -32.8522 0)
(-12.7009 -29.697 0)
(-16.6002 -25.2879 0)
(-19.7118 -19.9836 0)
(-22.2213 -14.0991 0)
(-24.1443 -7.90343 0)
(-25.3049 -1.67929 0)
(-26.0072 4.46337 0)
(-26.1422 10.4588 0)
(-25.6553 16.0227 0)
(-24.5921 20.9612 0)
(-22.889 25.1277 0)
(-20.3236 28.2059 0)
(-16.6813 29.7546 0)
(-12.2771 30.0633 0)
(-7.33137 29.1311 0)
(-2.09482 27.1398 0)
(3.17294 24.2832 0)
(8.26871 20.7515 0)
(13.0334 16.7063 0)
(17.1703 12.3073 0)
(20.2191 7.90804 0)
(22.2844 3.94786 0)
(23.3704 0.320856 0)
(23.567 -3.14169 0)
(22.9713 -6.53122 0)
(21.658 -9.8366 0)
(19.7309 -12.9934 0)
(17.2839 -15.9418 0)
(14.374 -18.6202 0)
(11.066 -20.9577 0)
(7.41016 -22.8097 0)
(3.48446 -23.8008 0)
(-0.474004 -23.7279 0)
(-4.23248 -22.6481 0)
(-7.63107 -20.6 0)
(129.365 -48.3114 0)
(118.916 -39.8402 0)
(105.92 -25.2151 0)
(93.403 -7.53493 0)
(81.9084 9.3502 0)
(72.0297 22.0255 0)
(65.1802 28.1909 0)
(61.51 27.2767 0)
(59.6548 20.4293 0)
(57.8032 9.34821 0)
(54.4749 -4.30266 0)
(48.6272 -19.0371 0)
(39.5829 -33.3406 0)
(28.1651 -46.0761 0)
(14.9507 -56.048 0)
(0.614578 -62.059 0)
(-14.0491 -63.5562 0)
(-28.3215 -60.7071 0)
(-41.6462 -54.1462 0)
(-53.7816 -44.6315 0)
(-64.6349 -32.977 0)
(-74.1909 -19.8724 0)
(-82.4734 -5.63112 0)
(-89.4141 9.55887 0)
(-94.5613 25.1115 0)
(-96.7758 39.6644 0)
(-93.6609 50.6753 0)
(-84.3303 56.7713 0)
(-69.4522 58.0443 0)
(-50.5261 55.2265 0)
(-29.9089 49.5526 0)
(-8.22906 42.7385 0)
(14.9452 32.5532 0)
(34.8348 19.8181 0)
(49.9137 10.1345 0)
(58.8526 4.01944 0)
(62.1921 0.909598 0)
(61.552 0.135195 0)
(59.326 0.709306 0)
(56.4442 1.73447 0)
(53.5559 2.55759 0)
(50.8908 2.4813 0)
(48.3557 0.950254 0)
(45.7067 -2.23419 0)
(42.6007 -6.86351 0)
(38.6371 -12.5107 0)
(33.5455 -18.7747 0)
(27.2141 -25.3155 0)
(19.5691 -31.4758 0)
(10.9767 -36.4421 0)
(2.06106 -39.5925 0)
(-6.85336 -40.3257 0)
(-15.3404 -38.5614 0)
(-23.1031 -34.5906 0)
(-30.0161 -28.8401 0)
(-36.0447 -21.8257 0)
(-41.2163 -14.0554 0)
(-45.5507 -5.81281 0)
(-49.0104 2.78271 0)
(-51.4368 11.5069 0)
(-52.4273 19.8645 0)
(-51.3395 27.0218 0)
(-47.2886 31.8894 0)
(-40.8513 34.5097 0)
(-32.3267 34.9607 0)
(-22.4449 33.6064 0)
(-12.0503 31.1019 0)
(-1.73621 27.9536 0)
(8.30429 24.035 0)
(17.2548 19.0019 0)
(24.614 14.3842 0)
(30.1661 10.5503 0)
(33.9443 7.29359 0)
(36.3127 4.52895 0)
(37.6123 2.10186 0)
(38.0654 -0.260639 0)
(37.716 -2.82235 0)
(36.5684 -5.72533 0)
(34.6624 -8.96514 0)
(31.9247 -12.4483 0)
(28.3335 -16.0881 0)
(23.8767 -19.7355 0)
(18.5768 -23.1695 0)
(12.5502 -26.0221 0)
(6.1007 -27.8377 0)
(-0.335338 -28.2756 0)
(-6.39475 -27.2213 0)
(-11.9567 -24.7785 0)
(-16.9583 -21.1512 0)
(-21.2754 -16.5499 0)
(-24.7187 -11.2838 0)
(-27.4275 -5.8329 0)
(-29.4123 -0.324815 0)
(-30.6392 5.18882 0)
(-31.0302 10.5402 0)
(-30.4415 15.4357 0)
(-28.7654 19.5395 0)
(-25.7031 22.4089 0)
(-21.5871 24.2023 0)
(-16.566 24.9039 0)
(-10.9762 24.5317 0)
(-5.10633 23.233 0)
(0.792435 21.2042 0)
(6.4858 18.5855 0)
(11.713 15.4721 0)
(16.0702 12.0433 0)
(19.4173 8.72929 0)
(21.7517 5.65322 0)
(23.1135 2.7376 0)
(23.6737 -0.0559867 0)
(23.5944 -2.78685 0)
(22.9454 -5.5169 0)
(21.7418 -8.22957 0)
(20.0136 -10.8544 0)
(17.7959 -13.3142 0)
(15.1047 -15.5453 0)
(11.9296 -17.4582 0)
(8.29647 -18.885 0)
(4.31273 -19.6588 0)
(0.203152 -19.6366 0)
(-3.8206 -18.7728 0)
(-7.61733 -17.0953 0)
(75.0718 -28.342 0)
(58.3044 -19.675 0)
(44.7609 -9.54785 0)
(36.0868 1.43206 0)
(30.696 16.0606 0)
(30.0625 25.2001 0)
(34.2834 27.0918 0)
(40.6688 24.0601 0)
(46.9576 17.4107 0)
(51.3253 8.4467 0)
(52.3176 -1.92213 0)
(49.3208 -12.8188 0)
(42.4842 -23.5358 0)
(31.9216 -33.583 0)
(18.2309 -41.7705 0)
(2.87996 -46.6643 0)
(-12.9688 -48.0635 0)
(-28.7944 -45.7715 0)
(-43.9359 -40.1934 0)
(-57.8368 -31.8118 0)
(-70.108 -21.1008 0)
(-80.3894 -8.60536 0)
(-88.3164 4.69572 0)
(-92.8203 17.506 0)
(-91.6454 28.032 0)
(-84.4466 35.0029 0)
(-71.7427 38.2811 0)
(-54.9711 38.2066 0)
(-36.3193 35.7042 0)
(-17.7098 32.1506 0)
(0.79855 27.6756 0)
(16.9732 19.7221 0)
(29.2468 13.016 0)
(37.2021 8.60296 0)
(40.9523 5.60393 0)
(41.5602 3.69781 0)
(41.0077 2.79959 0)
(40.1379 2.62149 0)
(39.4593 2.88052 0)
(39.22 3.2996 0)
(39.6762 3.48928 0)
(40.5637 3.02272 0)
(41.4124 1.58232 0)
(41.6214 -0.965556 0)
(40.5946 -4.53058 0)
(38.2763 -8.86802 0)
(34.4146 -13.643 0)
(28.9672 -18.5087 0)
(21.8948 -23.2594 0)
(13.4395 -27.374 0)
(4.13509 -30.1832 0)
(-5.47673 -30.7891 0)
(-14.9584 -29.3612 0)
(-23.9697 -26.1131 0)
(-32.1263 -21.3213 0)
(-39.1689 -15.3169 0)
(-44.9361 -8.45224 0)
(-49.2649 -1.0814 0)
(-51.9998 6.29679 0)
(-52.7228 13.0534 0)
(-50.5281 18.3797 0)
(-45.9394 22.1495 0)
(-39.2245 24.3765 0)
(-31.0216 25.1012 0)
(-22.0538 24.4809 0)
(-13.033 22.9308 0)
(-4.41925 20.9066 0)
(3.60742 18.5136 0)
(10.7303 15.4978 0)
(16.5214 12.3255 0)
(21.187 9.49561 0)
(24.8356 6.92964 0)
(27.7051 4.66136 0)
(29.9713 2.6676 0)
(31.7163 0.862245 0)
(32.9476 -0.87444 0)
(33.595 -2.70323 0)
(33.5389 -4.77467 0)
(32.4606 -7.07478 0)
(30.4871 -9.59991 0)
(27.5339 -12.2762 0)
(23.6059 -14.9835 0)
(18.7445 -17.5157 0)
(13.0674 -19.6497 0)
(6.79898 -21.1636 0)
(0.277844 -21.7025 0)
(-6.16595 -20.9932 0)
(-12.2842 -18.9267 0)
(-17.8588 -15.8278 0)
(-22.6878 -12.0222 0)
(-26.5984 -7.72405 0)
(-29.5122 -3.11806 0)
(-31.4254 1.59447 0)
(-32.2658 6.16571 0)
(-31.879 10.311 0)
(-29.9429 13.6505 0)
(-26.7495 16.1661 0)
(-22.4883 17.8673 0)
(-17.4387 18.7736 0)
(-11.9033 18.8954 0)
(-6.20466 18.3022 0)
(-0.613582 17.0987 0)
(4.63058 15.3715 0)
(9.27424 13.2583 0)
(13.08 10.9467 0)
(16.0598 8.69445 0)
(18.2128 6.45738 0)
(19.637 4.22126 0)
(20.4689 2.00722 0)
(20.8376 -0.197932 0)
(20.7898 -2.42126 0)
(20.3187 -4.65662 0)
(19.3921 -6.8644 0)
(17.9816 -8.98939 0)
(16.044 -10.932 0)
(13.6053 -12.6267 0)
(10.6512 -14.0115 0)
(7.2045 -15.0199 0)
(3.37484 -15.5295 0)
(-0.655316 -15.4306 0)
(-4.71503 -14.6593 0)
(-8.63899 -13.2023 0)
(20.5367 -13.274 0)
(10.9581 -8.46011 0)
(4.40726 -4.00842 0)
(1.05966 7.85872 0)
(1.39046 15.0859 0)
(7.37657 18.2212 0)
(16.0797 17.9093 0)
(25.1023 14.8684 0)
(33.183 10.0122 0)
(39.2654 4.14625 0)
(42.4201 -2.3172 0)
(41.5692 -9.08598 0)
(36.7876 -15.5286 0)
(28.5958 -21.3903 0)
(17.3944 -26.5446 0)
(3.75897 -30.4393 0)
(-11.1651 -31.0388 0)
(-25.9312 -28.7879 0)
(-39.7832 -24.1437 0)
(-51.7624 -17.5525 0)
(-60.9942 -9.6869 0)
(-66.6886 -1.40829 0)
(-67.4665 6.25741 0)
(-63.4863 12.2803 0)
(-55.6847 16.4651 0)
(-45.1459 19.0645 0)
(-33.3295 20.346 0)
(-21.5628 20.6067 0)
(-10.6895 19.9651 0)
(-1.16098 18.2593 0)
(6.6971 15.666 0)
(12.2889 12.9899 0)
(15.8024 10.5422 0)
(17.8887 7.93024 0)
(19.2207 5.96391 0)
(20.2446 4.07631 0)
(21.2622 2.66432 0)
(22.5401 1.82536 0)
(24.2228 1.46578 0)
(26.289 1.32924 0)
(28.5824 1.16119 0)
(30.8378 0.765641 0)
(32.7263 -0.0651112 0)
(33.8961 -1.47496 0)
(33.789 -3.57679 0)
(32.2486 -6.28076 0)
(29.2762 -9.36255 0)
(24.7321 -12.565 0)
(18.8135 -15.6215 0)
(11.7108 -18.2956 0)
(3.49399 -20.3736 0)
(-5.45315 -20.8394 0)
(-14.2895 -19.5396 0)
(-22.6007 -16.9503 0)
(-29.9407 -13.2252 0)
(-35.9197 -8.66005 0)
(-40.2248 -3.62828 0)
(-42.6135 1.46084 0)
(-42.6634 6.13685 0)
(-40.4256 9.98676 0)
(-36.5207 13.0219 0)
(-31.3225 15.2419 0)
(-25.3232 16.5583 0)
(-18.9922 16.9814 0)
(-12.7297 16.6026 0)
(-6.8444 15.5843 0)
(-1.41718 14.1785 0)
(3.57992 12.555 0)
(8.04128 10.5882 0)
(11.7383 8.27497 0)
(14.9034 6.00073 0)
(17.6387 3.91214 0)
(19.9919 2.07152 0)
(21.9914 0.476262 0)
(23.6416 -0.90794 0)
(24.9128 -2.15003 0)
(25.7319 -3.34022 0)
(26.0124 -4.57093 0)
(25.5427 -5.92126 0)
(24.2315 -7.46137 0)
(22.0666 -9.145 0)
(18.9549 -10.8409 0)
(14.954 -12.4259 0)
(10.2023 -13.7734 0)
(4.87246 -14.7403 0)
(-0.858547 -15.1032 0)
(-6.75421 -14.4495 0)
(-12.3397 -12.7493 0)
(-17.3464 -10.4113 0)
(-21.5157 -7.53294 0)
(-24.6747 -4.27958 0)
(-26.7077 -0.856141 0)
(-27.4978 2.51242 0)
(-26.8748 5.56399 0)
(-24.9963 8.13322 0)
(-22.1274 10.209 0)
(-18.484 11.7751 0)
(-14.3225 12.81 0)
(-9.88545 13.3464 0)
(-5.4105 13.4038 0)
(-1.18125 13.0078 0)
(2.59145 12.2327 0)
(5.81005 11.1722 0)
(8.45586 9.90526 0)
(10.5699 8.46295 0)
(12.2282 6.85894 0)
(13.493 5.14219 0)
(14.4274 3.36328 0)
(15.0629 1.52072 0)
(15.4025 -0.360905 0)
(15.4381 -2.24075 0)
(15.1249 -4.07775 0)
(14.4156 -5.82577 0)
(13.2771 -7.44034 0)
(11.6989 -8.87743 0)
(9.65857 -10.0459 0)
(7.20602 -10.9274 0)
(4.38687 -11.4689 0)
(1.23372 -11.6308 0)
(-2.14275 -11.366 0)
(-5.57529 -10.6224 0)
(-8.84881 -9.37138 0)
(2.8787 -6.9635 0)
(-1.11492 -4.18659 0)
(-4.68386 0.817599 0)
(-5.76885 5.43365 0)
(-2.8256 8.84439 0)
(2.88233 10.1836 0)
(9.33635 9.27071 0)
(15.3731 6.74448 0)
(20.4684 3.20616 0)
(24.1257 -0.515132 0)
(25.8358 -3.91268 0)
(25.3281 -6.90001 0)
(22.4687 -9.95964 0)
(17.2531 -12.9245 0)
(10.3075 -15.5931 0)
(2.00489 -17.6208 0)
(-7.35522 -18.0664 0)
(-16.3531 -16.7681 0)
(-24.2058 -14.2657 0)
(-30.2459 -10.7337 0)
(-33.9891 -6.57356 0)
(-35.2144 -2.2513 0)
(-34.0657 1.92056 0)
(-31.2865 5.85367 0)
(-27.3088 9.37555 0)
(-22.643 12.2308 0)
(-17.6911 14.1743 0)
(-12.7346 15.0413 0)
(-7.9437 14.8598 0)
(-3.3953 13.849 0)
(0.712779 12.2279 0)
(4.19645 10.1094 0)
(7.10586 7.75844 0)
(9.31288 5.37315 0)
(10.9879 3.35219 0)
(12.2971 1.7884 0)
(13.2979 0.594174 0)
(14.2368 -0.210435 0)
(15.2502 -0.654899 0)
(16.373 -0.850048 0)
(17.5728 -0.93679 0)
(18.7328 -1.06873 0)
(19.7678 -1.34387 0)
(20.4166 -1.90828 0)
(20.2925 -2.82796 0)
(19.3134 -4.18941 0)
(17.388 -5.92071 0)
(14.4911 -7.85613 0)
(10.6856 -9.73526 0)
(6.0394 -11.4261 0)
(0.539741 -12.6594 0)
(-5.60026 -12.73 0)
(-11.5498 -11.8531 0)
(-16.9163 -10.2173 0)
(-21.3483 -7.87764 0)
(-24.5467 -5.02968 0)
(-26.3352 -1.925 0)
(-26.6692 1.16893 0)
(-25.6076 4.04316 0)
(-23.5838 6.66866 0)
(-20.7903 8.93143 0)
(-17.4718 10.6846 0)
(-13.8533 11.81 0)
(-10.1255 12.2608 0)
(-6.50893 12.0822 0)
(-3.10439 11.3397 0)
(0.0472585 10.2036 0)
(2.98125 8.85138 0)
(5.68527 7.28879 0)
(7.93195 5.44416 0)
(9.75517 3.56811 0)
(11.2879 1.83939 0)
(12.5567 0.325779 0)
(13.5906 -0.958165 0)
(14.4117 -2.03365 0)
(15.0241 -2.94924 0)
(15.4083 -3.76609 0)
(15.5183 -4.53343 0)
(15.2224 -5.2779 0)
(14.3947 -6.02605 0)
(12.9377 -6.85068 0)
(10.8685 -7.72944 0)
(8.21741 -8.58386 0)
(5.04346 -9.31269 0)
(1.43859 -9.79874 0)
(-2.52445 -9.87822 0)
(-6.5534 -9.23921 0)
(-10.2345 -8.09389 0)
(-13.3329 -6.54748 0)
(-15.6748 -4.66961 0)
(-17.1438 -2.58102 0)
(-17.6983 -0.420265 0)
(-17.3058 1.662 0)
(-16.1671 3.60466 0)
(-14.4267 5.38436 0)
(-12.2397 6.93655 0)
(-9.77939 8.20437 0)
(-7.21248 9.15156 0)
(-4.68449 9.76992 0)
(-2.31145 10.1339 0)
(-0.128068 10.2411 0)
(1.83338 9.95206 0)
(3.59405 9.31579 0)
(5.16944 8.35643 0)
(6.56413 7.13358 0)
(7.76797 5.73143 0)
(8.76785 4.22796 0)
(9.56738 2.66143 0)
(10.1053 1.05124 0)
(10.3608 -0.547555 0)
(10.3395 -2.09789 0)
(10.0131 -3.57051 0)
(9.36786 -4.93394 0)
(8.4024 -6.15649 0)
(7.12634 -7.20244 0)
(5.57651 -8.0453 0)
(3.7812 -8.62141 0)
(1.78442 -8.88408 0)
(-0.385827 -8.85306 0)
(-2.62089 -8.49951 0)
(-4.79746 -7.83753 0)
(-6.78296 -6.89752 0)
(3.07607 -3.97908 0)
(0.448412 -1.56797 0)
(-1.33557 2.99426 0)
(-1.56424 5.21318 0)
(-0.0264985 6.11008 0)
(2.37952 5.98426 0)
(5.21939 5.20595 0)
(7.93457 3.28504 0)
(9.88111 0.850816 0)
(11.253 -1.55616 0)
(11.7801 -3.59543 0)
(11.1937 -5.51231 0)
(9.88211 -7.64968 0)
(7.81437 -9.70856 0)
(4.79972 -11.3422 0)
(0.922672 -12.3235 0)
(-3.46616 -12.3175 0)
(-7.82746 -11.4496 0)
(-11.7433 -9.73936 0)
(-14.9024 -7.30037 0)
(-17.0715 -4.3645 0)
(-18.1574 -1.1916 0)
(-18.1292 1.98691 0)
(-17.053 4.90258 0)
(-15.1244 7.31236 0)
(-12.5114 9.08511 0)
(-9.45017 10.2015 0)
(-6.20533 10.6628 0)
(-3.0648 10.4787 0)
(-0.258475 9.73 0)
(2.10536 8.5866 0)
(3.91195 7.13408 0)
(5.14468 5.61345 0)
(5.98227 4.16428 0)
(6.56009 2.80725 0)
(6.80758 1.70916 0)
(6.88796 0.553308 0)
(7.07502 -0.304735 0)
(7.36304 -0.885145 0)
(7.71981 -1.2444 0)
(8.13722 -1.44595 0)
(8.60902 -1.52026 0)
(8.96414 -1.63915 0)
(9.1984 -1.94574 0)
(9.28496 -2.49296 0)
(9.03651 -3.35322 0)
(8.28421 -4.47446 0)
(6.97431 -5.71502 0)
(5.08583 -6.92881 0)
(2.63045 -7.94955 0)
(-0.327826 -8.49556 0)
(-3.50568 -8.50551 0)
(-6.58876 -7.99267 0)
(-9.34924 -6.94309 0)
(-11.6105 -5.40755 0)
(-13.2256 -3.49776 0)
(-14.119 -1.35808 0)
(-14.2934 0.862095 0)
(-13.8139 3.05723 0)
(-12.7537 5.10104 0)
(-11.2041 6.85306 0)
(-9.30431 8.21498 0)
(-7.18143 9.09791 0)
(-4.91885 9.43283 0)
(-2.68675 9.39583 0)
(-0.61929 8.87258 0)
(1.24991 7.95828 0)
(2.92903 6.80167 0)
(4.42501 5.49321 0)
(5.71023 4.0489 0)
(6.66751 2.49363 0)
(7.36051 0.99679 0)
(7.86598 -0.33509 0)
(8.19817 -1.46798 0)
(8.37993 -2.40375 0)
(8.41143 -3.17731 0)
(8.29998 -3.82728 0)
(8.00133 -4.30863 0)
(7.54612 -4.6234 0)
(6.86243 -5.05597 0)
(5.96505 -5.52521 0)
(4.80037 -6.01049 0)
(3.33246 -6.48605 0)
(1.572 -6.87616 0)
(-0.436608 -7.07749 0)
(-2.58975 -6.97395 0)
(-4.72003 -6.57424 0)
(-6.6498 -5.86572 0)
(-8.262 -4.86336 0)
(-9.48788 -3.60756 0)
(-10.2804 -2.15472 0)
(-10.6277 -0.578324 0)
(-10.552 1.05121 0)
(-10.0923 2.66408 0)
(-9.29265 4.18314 0)
(-8.20543 5.543 0)
(-6.88941 6.69911 0)
(-5.40476 7.61733 0)
(-3.81629 8.26769 0)
(-2.15964 8.60961 0)
(-0.447521 8.61135 0)
(1.25564 8.31742 0)
(2.85885 7.72342 0)
(4.30504 6.86588 0)
(5.5579 5.8076 0)
(6.59377 4.61258 0)
(7.39464 3.33459 0)
(7.96405 2.0244 0)
(8.30183 0.70331 0)
(8.38508 -0.606125 0)
(8.22087 -1.8789 0)
(7.81012 -3.08238 0)
(7.15766 -4.18308 0)
(6.27226 -5.15633 0)
(5.17494 -5.97974 0)
(3.90437 -6.62792 0)
(2.50853 -7.04007 0)
(1.00229 -7.1663 0)
(-0.525821 -7.1244 0)
(-1.9833 -6.85093 0)
(-3.32199 -6.3499 0)
(-4.4896 -5.65098 0)
(0.85403 -1.14495 0)
(-0.28168 0.976966 0)
(-0.448938 2.73572 0)
(0.57144 4.06039 0)
(2.01668 4.57035 0)
(3.62742 4.11508 0)
(5.24919 2.98451 0)
(6.6402 1.84914 0)
(7.65051 -0.635067 0)
(8.15 -2.41437 0)
(7.92375 -3.98197 0)
(7.13947 -5.48434 0)
(6.02556 -6.73217 0)
(4.45664 -7.8577 0)
(2.36862 -8.69523 0)
(-0.148835 -9.09599 0)
(-2.89026 -8.91906 0)
(-5.58863 -8.14843 0)
(-8.01349 -6.85373 0)
(-9.97354 -5.12432 0)
(-11.3227 -3.09808 0)
(-11.9752 -0.93092 0)
(-11.9436 1.24803 0)
(-11.2784 3.32822 0)
(-10.0677 5.19148 0)
(-8.44386 6.72722 0)
(-6.55161 7.84572 0)
(-4.54503 8.49018 0)
(-2.57664 8.61832 0)
(-0.678573 8.22407 0)
(1.03434 7.53569 0)
(2.4293 6.45415 0)
(3.49803 5.11025 0)
(4.27867 3.69828 0)
(4.81948 2.43448 0)
(5.18443 1.54497 0)
(5.35869 0.329247 0)
(5.42162 -0.576444 0)
(5.40842 -1.1387 0)
(5.39565 -1.50772 0)
(5.46835 -1.74248 0)
(5.52941 -1.92367 0)
(5.51149 -2.07984 0)
(5.53579 -2.28995 0)
(5.49713 -2.67239 0)
(5.27942 -3.22993 0)
(4.79329 -3.92574 0)
(3.96386 -4.69664 0)
(2.77204 -5.42912 0)
(1.2425 -6.01091 0)
(-0.549897 -6.332 0)
(-2.4676 -6.28071 0)
(-4.35518 -5.8354 0)
(-6.07765 -5.01777 0)
(-7.51466 -3.86101 0)
(-8.56797 -2.43233 0)
(-9.17532 -0.826613 0)
(-9.32591 0.855531 0)
(-9.04377 2.51659 0)
(-8.34769 4.07839 0)
(-7.28281 5.46266 0)
(-5.9498 6.6066 0)
(-4.47259 7.41999 0)
(-2.69274 7.87063 0)
(-0.843399 7.77127 0)
(0.754429 7.29978 0)
(2.24024 6.53428 0)
(3.58632 5.54169 0)
(4.74514 4.39237 0)
(5.69431 3.14169 0)
(6.36839 1.85026 0)
(6.73565 0.613927 0)
(6.86081 -0.496295 0)
(6.77563 -1.44577 0)
(6.53148 -2.22897 0)
(6.18086 -2.86645 0)
(5.74705 -3.39019 0)
(5.31685 -3.84075 0)
(4.64963 -4.25212 0)
(3.82495 -4.53941 0)
(3.04785 -4.82296 0)
(2.12444 -5.09592 0)
(1.02373 -5.33315 0)
(-0.240273 -5.49938 0)
(-1.64374 -5.54383 0)
(-3.13102 -5.409 0)
(-4.61614 -5.03683 0)
(-6.01062 -4.42475 0)
(-7.23823 -3.5951 0)
(-8.23141 -2.57602 0)
(-8.93194 -1.41569 0)
(-9.29732 -0.177047 0)
(-9.28168 1.07257 0)
(-8.91536 2.28734 0)
(-8.19994 3.41698 0)
(-7.17175 4.42465 0)
(-5.87571 5.28427 0)
(-4.37418 5.97353 0)
(-2.75866 6.47503 0)
(-1.10756 6.77197 0)
(0.587146 6.85914 0)
(2.24374 6.68354 0)
(3.75394 6.26627 0)
(5.09201 5.62634 0)
(6.21808 4.79253 0)
(7.12635 3.83042 0)
(7.80782 2.78176 0)
(8.26853 1.68295 0)
(8.50335 0.572505 0)
(8.50728 -0.514108 0)
(8.27577 -1.55451 0)
(7.80738 -2.52374 0)
(7.11339 -3.39735 0)
(6.21356 -4.16415 0)
(5.12696 -4.81309 0)
(3.89431 -5.32519 0)
(2.61113 -5.68929 0)
(1.18892 -5.90696 0)
(-0.286515 -5.84914 0)
(-1.64573 -5.62961 0)
(-2.91164 -5.2491 0)
(-4.05611 -4.6956 0)
(2.29476 -0.887277 0)
(2.05513 0.452042 0)
(2.47529 1.78104 0)
(3.34434 2.64397 0)
(4.49593 2.82864 0)
(5.77635 2.53746 0)
(6.92527 1.83503 0)
(7.78768 0.638488 0)
(8.14816 -0.66811 0)
(7.97163 -1.96629 0)
(7.25747 -3.26888 0)
(6.10437 -4.15221 0)
(4.62878 -5.03419 0)
(2.77901 -5.79681 0)
(0.586581 -6.3269 0)
(-1.85478 -6.53916 0)
(-4.38935 -6.35823 0)
(-6.82927 -5.77489 0)
(-8.99955 -4.81588 0)
(-10.7574 -3.53705 0)
(-11.993 -2.02798 0)
(-12.6264 -0.399623 0)
(-12.6336 1.2434 0)
(-12.0315 2.79121 0)
(-10.8672 4.14455 0)
(-9.23608 5.22523 0)
(-7.24592 5.97556 0)
(-5.03914 6.37031 0)
(-2.81086 6.41868 0)
(-0.453272 6.17566 0)
(1.69894 5.55366 0)
(3.41681 4.72878 0)
(4.82647 3.77758 0)
(5.91593 2.75516 0)
(6.63327 1.78549 0)
(7.10605 0.93886 0)
(7.34054 0.129603 0)
(7.31765 -0.51271 0)
(7.12116 -0.995174 0)
(6.83724 -1.33072 0)
(6.49462 -1.56658 0)
(6.20963 -1.77901 0)
(5.90397 -1.91055 0)
(5.47977 -2.03432 0)
(4.98622 -2.30926 0)
(4.36976 -2.69512 0)
(3.56259 -3.14985 0)
(2.51381 -3.62479 0)
(1.21759 -4.07318 0)
(-0.301175 -4.41105 0)
(-1.99137 -4.55693 0)
(-3.75978 -4.45516 0)
(-5.49458 -4.08845 0)
(-7.08041 -3.46145 0)
(-8.42098 -2.59192 0)
(-9.41374 -1.53001 0)
(-9.98856 -0.335582 0)
(-10.0983 0.921341 0)
(-9.72658 2.16212 0)
(-8.89888 3.32465 0)
(-7.63897 4.33336 0)
(-6.00777 5.14452 0)
(-4.08466 5.71397 0)
(-2.10821 6.00271 0)
(-0.0859331 5.8945 0)
(1.97843 5.51366 0)
(3.81942 4.88216 0)
(5.39121 4.09722 0)
(6.66298 3.19375 0)
(7.61006 2.22627 0)
(8.23258 1.25321 0)
(8.52159 0.322718 0)
(8.52394 -0.52421 0)
(8.27526 -1.26011 0)
(7.82152 -1.88 0)
(7.19677 -2.3874 0)
(6.42215 -2.80157 0)
(5.50491 -3.15744 0)
(4.5756 -3.49654 0)
(3.55987 -3.56657 0)
(2.34757 -3.70819 0)
(1.08232 -3.88388 0)
(-0.249248 -4.01567 0)
(-1.65748 -4.07875 0)
(-3.1223 -4.04381 0)
(-4.60185 -3.87717 0)
(-6.03424 -3.55977 0)
(-7.34857 -3.09127 0)
(-8.47549 -2.48187 0)
(-9.35544 -1.75102 0)
(-9.93378 -0.931635 0)
(-10.1714 -0.0624257 0)
(-10.0753 0.826205 0)
(-9.6314 1.69789 0)
(-8.85591 2.52084 0)
(-7.77617 3.26784 0)
(-6.42939 3.90668 0)
(-4.85774 4.43008 0)
(-3.10213 4.84663 0)
(-1.24095 5.11744 0)
(0.678045 5.1208 0)
(2.58105 4.95706 0)
(4.38649 4.65984 0)
(6.01497 4.19907 0)
(7.41431 3.58975 0)
(8.5436 2.86611 0)
(9.37559 2.0675 0)
(9.89909 1.23002 0)
(10.112 0.382353 0)
(10.032 -0.449701 0)
(9.6878 -1.23852 0)
(9.08329 -1.95951 0)
(8.24109 -2.60249 0)
(7.18687 -3.1573 0)
(5.94784 -3.61065 0)
(4.54549 -3.96407 0)
(2.99982 -4.23727 0)
(1.43812 -4.40716 0)
(-0.146086 -4.24553 0)
(-1.77396 -4.08382 0)
(-3.28237 -3.80951 0)
(-4.64705 -3.39897 0)
(3.59915 -0.356323 0)
(3.54209 0.45707 0)
(4.00835 1.16585 0)
(4.89755 1.55952 0)
(5.9763 1.69283 0)
(7.04933 1.48179 0)
(7.91372 1.01368 0)
(8.40056 0.353674 0)
(8.36954 -0.491831 0)
(7.75709 -1.30058 0)
(6.92363 -2.12279 0)
(5.62159 -2.83218 0)
(3.6513 -3.27963 0)
(1.52506 -3.62734 0)
(-0.856579 -3.86296 0)
(-3.39634 -3.92829 0)
(-5.94607 -3.78804 0)
(-8.33703 -3.42793 0)
(-10.4119 -2.8535 0)
(-12.0414 -2.09857 0)
(-13.128 -1.20857 0)
(-13.5894 -0.267635 0)
(-13.407 0.680171 0)
(-12.5876 1.58163 0)
(-11.1892 2.38067 0)
(-9.3074 3.02996 0)
(-7.06313 3.50469 0)
(-4.59289 3.79252 0)
(-2.03738 3.9221 0)
(0.422018 3.98107 0)
(2.73044 3.54007 0)
(4.77127 2.98829 0)
(6.40191 2.39732 0)
(7.60621 1.79356 0)
(8.40015 1.22268 0)
(8.8257 0.695935 0)
(8.93286 0.18436 0)
(8.75329 -0.241099 0)
(8.37134 -0.566433 0)
(7.87152 -0.808869 0)
(7.27406 -0.983002 0)
(6.63805 -1.06686 0)
(6.05422 -1.2261 0)
(5.34004 -1.43846 0)
(4.43318 -1.62254 0)
(3.46274 -1.82214 0)
(2.33636 -2.04866 0)
(1.00552 -2.28291 0)
(-0.504491 -2.52212 0)
(-2.15826 -2.67934 0)
(-3.90786 -2.72537 0)
(-5.66232 -2.63612 0)
(-7.31782 -2.39984 0)
(-8.7709 -2.01711 0)
(-9.92415 -1.50254 0)
(-10.6739 -0.884 0)
(-10.9866 -0.192613 0)
(-10.813 0.532149 0)
(-10.1461 1.24505 0)
(-9.00686 1.90914 0)
(-7.44112 2.49483 0)
(-5.53373 2.97122 0)
(-3.45463 3.3538 0)
(-1.08877 3.64435 0)
(1.37161 3.58805 0)
(3.61352 3.35455 0)
(5.653 3.00006 0)
(7.40336 2.5506 0)
(8.80607 2.03689 0)
(9.77281 1.48806 0)
(10.2909 0.92261 0)
(10.4228 0.36491 0)
(10.1984 -0.160686 0)
(9.67157 -0.631363 0)
(8.90603 -1.03593 0)
(7.96008 -1.3727 0)
(6.88341 -1.65458 0)
(5.7006 -1.90086 0)
(4.53285 -2.04453 0)
(3.29503 -2.312 0)
(1.75341 -2.44141 0)
(0.230215 -2.4977 0)
(-1.31995 -2.52941 0)
(-2.91139 -2.52703 0)
(-4.50604 -2.47203 0)
(-6.05733 -2.34703 0)
(-7.50748 -2.14156 0)
(-8.79363 -1.85334 0)
(-9.85601 -1.48728 0)
(-10.644 -1.05503 0)
(-11.0991 -0.573538 0)
(-11.2221 -0.060771 0)
(-10.9871 0.460095 0)
(-10.3947 0.962974 0)
(-9.4594 1.43017 0)
(-8.20891 1.84789 0)
(-6.68486 2.20464 0)
(-4.93829 2.49476 0)
(-3.04404 2.71847 0)
(-1.09851 2.94137 0)
(1.0643 3.0851 0)
(3.20783 3.01371 0)
(5.1219 2.82711 0)
(6.85935 2.55513 0)
(8.37535 2.20719 0)
(9.61289 1.79896 0)
(10.5326 1.34662 0)
(11.1137 0.865343 0)
(11.3445 0.373914 0)
(11.2238 -0.106607 0)
(10.7291 -0.566075 0)
(9.92913 -1.00143 0)
(8.86792 -1.40092 0)
(7.59197 -1.75259 0)
(6.14772 -2.04689 0)
(4.58254 -2.27935 0)
(2.95017 -2.45697 0)
(1.34476 -2.54899 0)
(-0.36346 -2.65655 0)
(-2.14642 -2.52754 0)
(-3.70644 -2.31002 0)
(-5.12397 -2.04216 0)
(3.98044 -0.0978671 0)
(4.0233 0.185414 0)
(4.60781 0.433676 0)
(5.57555 0.565463 0)
(6.73994 0.603671 0)
(7.86954 0.530021 0)
(8.7653 0.366103 0)
(9.23421 0.129681 0)
(9.22223 -0.141315 0)
(8.63058 -0.43213 0)
(7.51333 -0.670283 0)
(6.13477 -1.13556 0)
(4.37862 -1.23789 0)
(2.13898 -1.31112 0)
(-0.396157 -1.35801 0)
(-3.0717 -1.36023 0)
(-5.702 -1.30412 0)
(-8.23137 -1.18394 0)
(-10.4441 -0.992319 0)
(-12.2132 -0.741607 0)
(-13.4553 -0.441452 0)
(-14.0374 -0.123778 0)
(-13.9912 0.194461 0)
(-13.3394 0.498168 0)
(-12.0843 0.77305 0)
(-10.3198 0.999848 0)
(-8.14994 1.16835 0)
(-5.68109 1.2749 0)
(-3.05298 1.33466 0)
(-0.604898 1.37095 0)
(1.67403 1.24527 0)
(3.87951 1.0719 0)
(5.78049 0.878908 0)
(7.31768 0.683298 0)
(8.47129 0.497228 0)
(9.24949 0.317046 0)
(9.67235 0.137788 0)
(9.76207 -0.0181193 0)
(9.57281 -0.148405 0)
(9.14235 -0.245591 0)
(8.55199 -0.315403 0)
(7.83816 -0.366848 0)
(6.98469 -0.428773 0)
(6.13922 -0.575205 0)
(5.28914 -0.631056 0)
(4.24302 -0.685033 0)
(3.01383 -0.748855 0)
(1.58899 -0.817759 0)
(-0.0196177 -0.88451 0)
(-1.77061 -0.928431 0)
(-3.61459 -0.938503 0)
(-5.46919 -0.907638 0)
(-7.23647 -0.831997 0)
(-8.81318 -0.711898 0)
(-10.1012 -0.550226 0)
(-11.016 -0.34975 0)
(-11.4934 -0.120658 0)
(-11.4927 0.123494 0)
(-10.9782 0.365757 0)
(-10.0014 0.594184 0)
(-8.57277 0.799833 0)
(-6.7413 0.97182 0)
(-4.55262 1.11691 0)
(-2.42312 1.39741 0)
(-0.279903 1.30033 0)
(1.99819 1.19011 0)
(4.15071 1.06295 0)
(6.06967 0.915403 0)
(7.69253 0.758349 0)
(9.00993 0.595885 0)
(9.98756 0.422555 0)
(10.5934 0.238275 0)
(10.8285 0.0543517 0)
(10.7116 -0.119505 0)
(10.2718 -0.276733 0)
(9.54412 -0.412628 0)
(8.56405 -0.52387 0)
(7.36224 -0.610161 0)
(5.9673 -0.689119 0)
(4.55691 -0.880558 0)
(3.19863 -0.894422 0)
(1.67499 -0.878291 0)
(0.0571166 -0.874453 0)
(-1.60552 -0.861397 0)
(-3.27521 -0.837095 0)
(-4.90873 -0.794694 0)
(-6.45358 -0.729884 0)
(-7.85295 -0.641599 0)
(-9.0518 -0.531035 0)
(-10.0001 -0.40171 0)
(-10.6556 -0.255814 0)
(-10.9887 -0.0963947 0)
(-10.9719 0.0676952 0)
(-10.6104 0.228272 0)
(-9.9318 0.381831 0)
(-8.94451 0.525382 0)
(-7.68016 0.654277 0)
(-6.17171 0.762995 0)
(-4.4473 0.848669 0)
(-2.52158 0.927319 0)
(-0.692164 1.15212 0)
(1.14155 1.06843 0)
(3.02138 0.981662 0)
(4.81682 0.887702 0)
(6.43721 0.769399 0)
(7.83219 0.637439 0)
(8.96171 0.49574 0)
(9.79826 0.345685 0)
(10.3212 0.195115 0)
(10.5291 0.0549179 0)
(10.4579 -0.0851477 0)
(10.0857 -0.231301 0)
(9.41645 -0.375314 0)
(8.47015 -0.508203 0)
(7.27384 -0.623089 0)
(5.86291 -0.713926 0)
(4.27446 -0.777438 0)
(2.52372 -0.822822 0)
(0.91302 -0.996738 0)
(-0.576139 -0.873508 0)
(-2.14525 -0.772288 0)
(-3.5938 -0.67738 0)
(-5.76216 103.193 0)
(4.88169 74.8745 0)
(14.7616 47.6876 0)
(27.6892 22.5975 0)
(36.8841 -0.331363 0)
(44.2815 -20.2457 0)
(47.4423 -36.9759 0)
(45.287 -48.9349 0)
(38.8471 -58.7455 0)
(29.7236 -69.1593 0)
(19.7695 -80.3414 0)
(10.1963 -91.8572 0)
(1.46856 -103.544 0)
(-6.29593 -114.325 0)
(-12.5093 -121.94 0)
(-16.0639 -122.511 0)
(-17.3032 -117.372 0)
(-16.8841 -107.209 0)
(-15.4103 -92.7693 0)
(-13.5359 -74.726 0)
(-11.5331 -54.1261 0)
(-8.7709 -33.3655 0)
(-4.29561 -16.3309 0)
(-0.783635 -5.966 0)
(2.39013 22.3588 0)
(1.42471 39.0108 0)
(0.497098 53.2828 0)
(-2.18785 64.9506 0)
(-2.66493 74.9096 0)
(-3.8481 83.7146 0)
(-5.97951 91.4091 0)
(-9.1544 97.3564 0)
(-10.5834 98.7762 0)
(-10.4467 95.3551 0)
(-8.98187 88.1339 0)
(-6.32358 77.9693 0)
(-3.20507 66.1759 0)
(-0.299434 53.049 0)
(1.05979 37.9167 0)
(-0.133641 22.5127 0)
(2.07975 10.6205 0)
(7.28881 -0.0735215 0)
(12.1567 -17.8304 0)
(14.1234 -31.7067 0)
(11.9223 -44.0201 0)
(12.6983 -54.5275 0)
(12.4482 -63.2102 0)
(10.3991 -70.2975 0)
(7.2032 -75.7025 0)
(4.45334 -78.2483 0)
(2.42992 -77.2715 0)
(1.09007 -73.7744 0)
(-0.0947713 -67.777 0)
(-1.54167 -59.2168 0)
(-3.30924 -48.1558 0)
(-4.85065 -35.5101 0)
(-5.33569 -23.0564 0)
(-4.66774 -12.7095 0)
(-4.33864 -5.32199 0)
(-4.52027 5.55835 0)
(-4.62568 19.995 0)
(-4.06988 31.3082 0)
(-3.51351 40.8839 0)
(-3.59759 48.7557 0)
(-3.83549 55.2387 0)
(-3.06922 60.2382 0)
(-1.65545 62.8921 0)
(0.275357 62.4281 0)
(0.839363 59.8764 0)
(1.28674 55.3636 0)
(1.35272 49.0606 0)
(0.979433 41.1604 0)
(0.311139 31.9316 0)
(-0.529132 21.9798 0)
(-1.32354 12.6263 0)
(-1.41652 5.87329 0)
(-1.33679 0.672893 0)
(-1.18407 -13.1856 0)
(-0.724043 -22.4436 0)
(-0.146312 -30.8399 0)
(0.433502 -37.9639 0)
(1.01492 -43.753 0)
(1.90098 -48.3875 0)
(2.96791 -51.716 0)
(4.0772 -52.3888 0)
(4.82451 -50.3445 0)
(5.35683 -46.4277 0)
(5.46738 -40.882 0)
(5.01739 -34.0298 0)
(3.96889 -26.1943 0)
(2.4268 -17.935 0)
(0.715888 -10.4053 0)
(-0.461362 -5.00351 0)
(-0.979706 -0.138143 0)
(-1.92434 10.1007 0)
(-2.63922 17.5909 0)
(-3.0413 24.4514 0)
(-3.11977 30.4445 0)
(-2.8923 35.4265 0)
(-2.52473 39.3211 0)
(-1.83194 41.8338 0)
(-0.966818 42.1089 0)
(-0.213654 40.6959 0)
(0.357099 37.7401 0)
(0.680225 33.3458 0)
(0.709846 27.7327 0)
(0.465988 21.2744 0)
(0.0508557 14.6197 0)
(-0.304703 8.67138 0)
(-0.602939 4.32235 0)
(-1.31683 -0.769121 0)
(-2.1223 -8.40834 0)
(-2.38084 -14.4034 0)
(-2.41248 -19.8833 0)
(-2.31985 -24.7759 0)
(-2.04362 -29.0363 0)
(-1.64223 -32.4781 0)
(-0.987001 -34.6567 0)
(8.79161 87.7392 0)
(25.7487 62.5548 0)
(44.4528 35.9718 0)
(58.6124 9.39643 0)
(71.4826 -11.4908 0)
(79.2119 -26.9917 0)
(78.778 -36.6108 0)
(72.0114 -42.371 0)
(61.8028 -48.5656 0)
(49.106 -57.3676 0)
(35.5875 -68.1932 0)
(23.318 -80.7557 0)
(12.3048 -93.743 0)
(2.45335 -105.903 0)
(-6.1228 -115.247 0)
(-12.7787 -118.564 0)
(-17.4751 -114.9 0)
(-20.9145 -105.99 0)
(-23.2635 -92.3382 0)
(-24.492 -75.0737 0)
(-24.2348 -56.1607 0)
(-21.8478 -38.06 0)
(-19.7288 -21.6531 0)
(-20.5233 -2.72851 0)
(-20.3374 19.2382 0)
(-17.8425 38.4403 0)
(-16.1766 53.8284 0)
(-15.9391 65.974 0)
(-16.4596 76.1598 0)
(-18.4584 85.1384 0)
(-19.2204 92.9796 0)
(-18.6129 98.3452 0)
(-16.2249 97.7909 0)
(-13.1039 93.0264 0)
(-8.84043 85.1282 0)
(-4.96337 74.9823 0)
(-2.98863 63.1851 0)
(2.41747 50.1646 0)
(6.74804 36.287 0)
(13.7697 21.0973 0)
(18.0858 5.74386 0)
(25.9899 -9.74186 0)
(35.4429 -22.7967 0)
(35.6863 -33.3662 0)
(33.7793 -43.0214 0)
(29.3003 -52.245 0)
(23.2387 -59.8532 0)
(16.9755 -65.8185 0)