/*--------------------------------*- C++ -*----------------------------------*\
| =========                 |                                                 |
| \\      /  F ield         | OpenFOAM: The Open Source CFD Toolbox           |
|  \\    /   O peration     | Version:  2206                                  |
|   \\  /    A nd           | Website:  www.openfoam.com                      |
|    \\/     M anipulation  |                                                 |
\*---------------------------------------------------------------------------*/
FoamFile
{
    version     2.0;
    format      ascii;
    arch        "LSB;label=32;scalar=64";
    class       volVectorField;
    location    "18.6";
    object      ddt0(U);
}
// * * * * * * * * * * * * * * * * * * * * * * * * * * * * * * * * * * * * * //

dimensions      [0 1 -2 0 0 0 0];

internalField   nonuniform List<vector> 
3025
(
(-33.7689 -69.7238 0)
(42.8791 -59.4642 0)
(88.0031 -40.4673 0)
(125.433 -7.60312 0)
(150.26 24.21 0)
(175.582 43.7398 0)
(207.305 62.7973 0)
(244.947 69.0722 0)
(278.276 74.7595 0)
(244.257 109.16 0)
(153.584 171.004 0)
(55.4885 229.616 0)
(-10.8921 263.55 0)
(-47.1042 254.069 0)
(-61.3374 227.039 0)
(-70.3877 194.697 0)
(-81.9248 154.661 0)
(-103.172 103.386 0)
(-141.112 32.5927 0)
(-188.713 -65.1252 0)
(-240.674 -182.933 0)
(-284.236 -309.151 0)
(-308.673 -413.532 0)
(-291.872 -453.43 0)
(-236.117 -423.666 0)
(-168.65 -360.111 0)
(-102.524 -283.041 0)
(-44.6331 -207.355 0)
(1.00038 -141.286 0)
(36.068 -88.6146 0)
(66.8484 -43.7114 0)
(84.3692 -7.80512 0)
(93.7146 12.2194 0)
(96.6719 22.477 0)
(96.1542 26.6414 0)
(95.3793 27.8144 0)
(94.5021 28.389 0)
(93.888 29.3468 0)
(94.9562 29.1679 0)
(100.23 24.9442 0)
(111.247 15.9173 0)
(124.213 7.722 0)
(130.6 11.8124 0)
(124.255 35.8863 0)
(103.994 79.5053 0)
(74.2427 133.694 0)
(36.8125 184.13 0)
(9.761 220.876 0)
(-23.0343 239.805 0)
(-42.6745 236.044 0)
(-56.5708 219.015 0)
(-65.5537 194.151 0)
(-69.3078 165.434 0)
(-68.6955 136.215 0)
(-64.7292 109.271 0)
(-58.461 86.5255 0)
(-50.9497 68.7216 0)
(-43.3865 55.4849 0)
(-36.6696 45.384 0)
(-30.8718 36.5869 0)
(-26.3971 27.1741 0)
(-26.3201 12.2275 0)
(-28.9892 -13.627 0)
(-33.6883 -49.2651 0)
(-38.1931 -90.9692 0)
(-43.1938 -135.796 0)
(-47.9462 -179.836 0)
(-51.4953 -218.132 0)
(-52.9681 -245.066 0)
(-50.5018 -253.937 0)
(-44.3327 -245.963 0)
(-36.0074 -226.927 0)
(-26.1177 -199.696 0)
(-15.2923 -167.5 0)
(-4.32857 -133.419 0)
(6.08617 -99.9956 0)
(15.3601 -68.9468 0)
(25.2301 -41.0691 0)
(5.12986 -73.3736 0)
(45.6656 -126.389 0)
(94.4969 -98.1493 0)
(148.614 -62.5627 0)
(208.322 -32.1199 0)
(257.66 -7.65296 0)
(282.747 20.6566 0)
(267.399 63.1358 0)
(198.166 131.107 0)
(119.906 204.297 0)
(43.37 262.856 0)
(-8.09681 292.903 0)
(-39.5562 292.42 0)
(-41.5575 263.277 0)
(-32.7998 230.347 0)
(-20.1285 195.798 0)
(-9.07508 161.794 0)
(-6.34226 123.947 0)
(-21.0433 73.9082 0)
(-61.2451 -10.5361 0)
(-123.393 -125.562 0)
(-190.805 -263.436 0)
(-244.768 -391.263 0)
(-272.026 -472.164 0)
(-251.41 -471.613 0)
(-204.401 -420.136 0)
(-148.413 -343.947 0)
(-92.8392 -261.714 0)
(-43.5733 -185.16 0)
(-4.32187 -119.994 0)
(25.554 -70.3516 0)
(54.5672 -29.8369 0)
(70.942 2.48043 0)
(81.2872 18.6324 0)
(86.5257 25.7164 0)
(88.3271 28.0994 0)
(88.6739 28.7195 0)
(89.7344 28.3378 0)
(93.8218 24.3103 0)
(103.335 14.7781 0)
(116.467 3.29485 0)
(126.532 0.143585 0)
(126.493 15.1646 0)
(113.949 52.538 0)
(89.9273 106.856 0)
(57.3716 165.763 0)
(25.314 216.431 0)
(-8.03096 251.145 0)
(-33.6518 262.729 0)
(-50.7706 252.131 0)
(-62.3313 229.406 0)
(-68.3656 199.173 0)
(-69.3058 165.731 0)
(-66.1387 132.718 0)
(-59.8955 102.991 0)
(-51.5259 78.495 0)
(-42.0783 60.1488 0)
(-32.6322 47.4475 0)
(-24.2597 38.5099 0)
(-17.3741 30.7239 0)
(-11.9358 22.4199 0)
(-9.82499 12.233 0)
(-10.3141 -7.86118 0)
(-13.9787 -46.0473 0)
(-18.8837 -85.9479 0)
(-24.7976 -130.4 0)
(-30.9706 -174.949 0)
(-36.6094 -214.418 0)
(-41.033 -243.565 0)
(-42.6041 -256.272 0)
(-40.5833 -250.918 0)
(-36.1654 -234.138 0)
(-29.6748 -208.525 0)
(-21.5693 -177.212 0)
(-12.6122 -143.314 0)
(-3.46484 -109.584 0)
(5.16934 -78.0467 0)
(13.1246 -50.0785 0)
(20.7769 -119.759 0)
(42.6502 -145.357 0)
(67.313 -134.25 0)
(110.137 -106.827 0)
(142.14 -65.2125 0)
(155.13 -8.65245 0)
(148.09 46.2413 0)
(121.492 126.813 0)
(64.9476 201.043 0)
(20.0927 270.947 0)
(-32.9182 317.809 0)
(-55.4537 322.509 0)
(-51.9166 289.419 0)
(-44.8009 252.424 0)
(-25.4905 213.129 0)
(-0.231608 177.509 0)
(26.197 147.658 0)
(48.4587 120.306 0)
(61.1969 87.391 0)
(50.7121 40.9497 0)
(3.4213 -58.196 0)
(-72.7718 -194.444 0)
(-149.74 -336.171 0)
(-208.171 -446.188 0)
(-231.418 -488.887 0)
(-213.095 -459.245 0)
(-175.1 -393.294 0)
(-129.674 -312.09 0)
(-83.5358 -231.204 0)
(-41.8863 -159.217 0)
(-8.0222 -99.0171 0)
(18.0248 -52.4539 0)
(41.3239 -17.4201 0)
(59.3009 7.56324 0)
(71.4532 19.5954 0)
(76.9303 25.4102 0)
(79.6346 27.0883 0)
(83.7665 24.2662 0)
(92.0488 15.5579 0)
(104.423 2.56078 0)
(116.648 -6.98872 0)
(122.237 -2.36151 0)
(117.403 24.3399 0)
(100.675 72.9401 0)
(74.5286 134.906 0)
(41.7359 198.213 0)
(8.11737 249.7 0)
(-22.1248 279.565 0)
(-44.1674 282.196 0)
(-58.4817 265.44 0)
(-66.9348 236.773 0)
(-69.6254 201.112 0)
(-67.4232 163.179 0)
(-61.5581 126.75 0)
(-53.1274 94.598 0)
(-43.0663 68.594 0)
(-32.1532 49.649 0)
(-21.2889 37.4894 0)
(-11.4287 30.1059 0)
(-3.26023 24.7858 0)
(2.2269 18.8159 0)
(5.92885 10.4967 0)
(7.78456 -6.53444 0)
(5.50187 -42.5506 0)
(-0.311531 -80.1805 0)
(-7.12852 -123.889 0)
(-14.3799 -168.426 0)
(-21.7555 -208.478 0)
(-28.6183 -238.928 0)
(-33.6411 -254.652 0)
(-35.4327 -251.926 0)
(-34.7129 -237.632 0)
(-31.723 -214.139 0)
(-26.6725 -184.373 0)
(-20.1422 -151.347 0)
(-12.7038 -117.906 0)
(-4.87651 -86.3456 0)
(2.61194 -58.2488 0)
(7.53184 -150.332 0)
(20.9871 -161.739 0)
(29.4815 -143.727 0)
(32.445 -112.387 0)
(37.0751 -69.6581 0)
(38.9056 -3.0261 0)
(35.468 53.0286 0)
(24.6849 149.905 0)
(-12.0268 245.4 0)
(-54.5217 312.506 0)
(-71.4574 332.35 0)
(-73.5166 319.905 0)
(-67.0698 277.711 0)
(-47.8854 229.61 0)
(-20.4553 182.096 0)
(12.8807 142.695 0)
(49.1129 114.731 0)
(82.4782 95.6142 0)
(106.474 73.358 0)
(109.327 46.8756 0)
(97.9585 7.86785 0)
(52.8409 -119.925 0)
(-42.3243 -257.454 0)
(-123.172 -389.338 0)
(-178.075 -468.677 0)
(-194.109 -472.113 0)
(-180.16 -424.888 0)
(-150.329 -352.815 0)
(-112.93 -272.968 0)
(-74.8249 -196.86 0)
(-40.6715 -130.605 0)
(-11.301 -77.5574 0)
(10.4979 -37.25 0)
(31.9325 -14.4238 0)
(50.1954 9.83113 0)
(61.4837 19.9643 0)
(68.4979 21.6418 0)
(76.9047 15.9205 0)
(88.6482 3.79931 0)
(101.664 -9.49872 0)
(111.31 -14.2844 0)
(112.906 -0.421098 0)
(104.231 37.1711 0)
(84.6696 95.248 0)
(56.0036 164.828 0)
(23.1874 231.48 0)
(-9.2108 280.807 0)
(-36.2836 304.436 0)
(-54.2955 298.442 0)
(-65.2215 275.429 0)
(-69.8918 240.599 0)
(-68.7925 199.627 0)
(-63.2578 157.626 0)
(-54.6709 118.351 0)
(-44.2168 84.4167 0)
(-32.8023 57.4696 0)
(-21.1959 38.1101 0)
(-10.1511 26.2207 0)
(0.791445 20.9997 0)
(10.6265 17.5765 0)
(17.43 13.4752 0)
(22.1681 6.43831 0)
(24.1833 -9.01114 0)
(22.5041 -36.6574 0)
(16.9221 -73.739 0)
(9.66268 -116.569 0)
(1.45134 -160.577 0)
(-7.4408 -200.562 0)
(-16.3904 -231.633 0)
(-24.3343 -249.517 0)
(-29.579 -249.496 0)
(-32.248 -237.608 0)
(-32.5912 -216.48 0)
(-30.5689 -188.71 0)
(-26.5313 -157.189 0)
(-20.9713 -124.772 0)
(-14.2946 -93.7766 0)
(-7.07577 -66.0257 0)
(-1.90103 -156.293 0)
(-3.72879 -158.473 0)
(-3.86938 -149.679 0)
(-5.16747 -121.477 0)
(1.93039 -75.5057 0)
(-1.62152 0.987024 0)
(-10.3572 68.436 0)
(-55.0739 187.298 0)
(-79.1807 270.409 0)
(-92.9679 321.007 0)
(-91.0251 334.942 0)
(-80.5525 305.82 0)
(-66.7734 259.64 0)
(-44.1965 203.188 0)
(-15.1456 148.438 0)
(19.8019 102.29 0)
(59.085 71.4709 0)
(101.071 58.8622 0)
(142.552 64.1865 0)
(165.421 43.0812 0)
(158.086 13.481 0)
(118.528 -65.3958 0)
(83.2942 -170.732 0)
(-31.4974 -306.905 0)
(-107.158 -415.538 0)
(-152.422 -458.011 0)
(-163.551 -433.884 0)
(-153.364 -377.941 0)
(-130.107 -305.935 0)
(-99.877 -231.209 0)
(-68.4594 -162.709 0)
(-39.0626 -104.715 0)
(-13.4952 -59.2593 0)
(8.39297 -31.7807 0)
(23.7571 -12.8046 0)
(42.3715 9.13253 0)
(55.6584 11.4583 0)
(68.2617 4.04684 0)
(81.9877 -8.98668 0)
(94.1098 -19.7732 0)
(100.751 -18.1875 0)
(99.3798 4.96444 0)
(87.3626 52.4974 0)
(64.4179 120.112 0)
(34.7699 195.944 0)
(2.54923 263.181 0)
(-27.559 309.318 0)
(-50.3721 324.718 0)
(-63.8808 311.436 0)
(-70.4657 281.4 0)
(-70.6042 240.365 0)
(-65.3166 194.458 0)
(-56.4213 149.023 0)
(-45.3584 107.715 0)
(-33.3247 72.7395 0)
(-21.248 45.5964 0)
(-9.63036 26.886 0)
(2.03326 15.9214 0)
(14.6509 9.29162 0)
(24.8736 8.26311 0)
(32.355 7.87298 0)
(37.1121 3.68582 0)
(39.2665 -9.01076 0)
(37.8078 -33.335 0)
(32.7359 -67.7235 0)
(25.2931 -108.743 0)
(16.1311 -151.547 0)
(5.89599 -190.933 0)
(-4.80937 -222.181 0)
(-15.0915 -241.26 0)
(-23.2997 -243.987 0)
(-28.9499 -234.344 0)
(-32.3031 -215.703 0)
(-33.126 -190.307 0)
(-31.5553 -160.844 0)
(-27.9666 -130.022 0)
(-22.7611 -100.202 0)
(-16.331 -73.2193 0)
(-34.6436 -189.392 0)
(-35.3814 -162.301 0)
(-33.7417 -133.544 0)
(-30.0253 -105.402 0)
(-24.5977 -79.6425 0)
(0.589927 -0.0888775 0)
(0.657094 -0.202194 0)
(0.884942 -0.315833 0)
(1.28051 -0.417346 0)
(1.83486 -0.493282 0)
(2.51416 -0.524586 0)
(3.2696 -0.502223 0)
(4.0435 -0.431229 0)
(4.71985 -0.242181 0)
(5.19588 0.00918716 0)
(5.41245 0.268712 0)
(5.31653 0.520516 0)
(4.91112 0.752098 0)
(4.06583 0.901563 0)
(3.06661 0.903953 0)
(1.78742 0.694442 0)
(0.826416 0.335162 0)
(0.0636186 -0.0733663 0)
(-0.430989 -0.399779 0)
(-0.597323 -0.589466 0)
(-0.454515 -0.636968 0)
(-0.0887362 -0.568351 0)
(0.418686 -0.428864 0)
(1.0044 -0.265438 0)
(1.60936 -0.109816 0)
(2.17589 0.024584 0)
(2.66419 0.111175 0)
(3.05422 0.139525 0)
(3.34183 0.121245 0)
(3.52922 0.0765168 0)
(3.62007 0.0269796 0)
(3.61508 -0.00606907 0)
(3.50614 -0.000448033 0)
(3.27385 0.0605416 0)
(2.89566 0.175907 0)
(2.35313 0.337946 0)
(1.62092 0.536478 0)
(0.661326 0.759092 0)
(-0.531954 0.96732 0)
(-1.89707 1.10768 0)
(-3.31941 1.15904 0)
(-4.65348 1.10139 0)
(-5.76052 0.895628 0)
(-6.5499 0.554422 0)
(-6.98929 0.133019 0)
(-7.08139 -0.333264 0)
(-6.83226 -0.781397 0)
(-6.25139 -1.11344 0)
(-5.36396 -1.27115 0)
(-4.22608 -1.20808 0)
(-2.93738 -0.879525 0)
(-1.65705 -0.261755 0)
(-0.813777 0.449381 0)
(1.23882 0.0751098 0)
(1.14808 -0.115825 0)
(1.14519 -0.329755 0)
(1.23615 -0.548599 0)
(1.42205 -0.7479 0)
(1.69256 -0.900876 0)
(2.01575 -0.981846 0)
(2.41245 -0.969745 0)
(2.82155 -0.859185 0)
(3.16 -0.639193 0)
(3.44374 -0.312144 0)
(3.66196 0.0864407 0)
(3.7949 0.512045 0)
(3.82086 0.919359 0)
(3.7399 1.24334 0)
(3.54706 1.41168 0)
(3.19225 1.3836 0)
(2.71824 1.17728 0)
(2.19379 0.844509 0)
(1.67092 0.438571 0)
(1.25847 0.0167998 0)
(1.00318 -0.370952 0)
(0.928948 -0.685765 0)
(1.03788 -0.900906 0)
(1.3006 -1.00669 0)
(1.6807 -1.00554 0)
(2.13421 -0.907727 0)
(2.59664 -0.731056 0)
(2.9938 -0.497253 0)
(3.25437 -0.227368 0)
(3.32089 0.0605455 0)
(3.14105 0.353217 0)
(2.6765 0.641833 0)
(1.92997 0.917822 0)
(0.948244 1.1681 0)
(-0.222985 1.37547 0)
(-1.52242 1.5283 0)
(-2.81109 1.61571 0)
(-3.8779 1.62008 0)
(-4.60713 1.51469 0)
(-5.0119 1.30726 0)
(-5.04061 1.05382 0)
(-4.75946 0.790618 0)
(-4.28346 0.524308 0)
(-3.68979 0.245726 0)
(-3.04504 -0.0483253 0)
(-2.45923 -0.350832 0)
(-2.05075 -0.658279 0)
(-1.90156 -0.968562 0)
(-2.05403 -1.22711 0)
(-2.50431 -1.24462 0)
(-3.5369 -0.79816 0)
(-5.0343 0.0731523 0)
(1.62647 0.223527 0)
(1.44083 -0.0421965 0)
(1.31023 -0.335615 0)
(1.24412 -0.630025 0)
(1.24876 -0.903814 0)
(1.32354 -1.10718 0)
(1.46391 -1.19725 0)
(1.66525 -1.44737 0)
(1.90373 -0.98547 0)
(2.17841 -0.734304 0)
(2.4695 -0.466362 0)
(2.75665 -0.0738694 0)
(3.03424 0.39866 0)
(3.29 0.855129 0)
(3.49333 1.2182 0)
(3.61341 1.4174 0)
(3.63046 1.43276 0)
(3.53522 1.28155 0)
(3.32962 1.00651 0)
(3.04683 0.656632 0)
(2.70478 0.274509 0)
(2.35055 -0.100795 0)
(2.02057 -0.434092 0)
(1.74049 -0.695968 0)
(1.52573 -0.869803 0)
(1.3829 -0.949474 0)
(1.30705 -0.935246 0)
(1.28129 -0.832312 0)
(1.283 -0.645976 0)
(1.28869 -0.380967 0)
(1.27652 -0.0447481 0)
(1.2271 0.353507 0)
(1.12722 0.798237 0)
(0.972744 1.26105 0)
(0.767573 1.70546 0)
(0.52178 2.09601 0)
(0.253299 2.39935 0)
(-0.0136855 2.5711 0)
(-0.268993 2.55969 0)
(-0.512943 2.34924 0)
(-0.775301 1.95667 0)
(-1.03617 1.41162 0)
(-1.30426 0.77547 0)
(-1.57802 0.134926 0)
(-1.8399 -0.428695 0)
(-2.08003 -0.853989 0)
(-2.31891 -1.09915 0)
(-2.60279 -1.13922 0)
(-2.99953 -0.970598 0)
(-3.61328 -0.603636 0)
(-4.57103 -0.0139057 0)
(-5.95188 0.817208 0)
(-7.75381 1.85182 0)
(1.65382 0.447425 0)
(1.42479 0.147103 0)
(1.24748 -0.195444 0)
(1.13709 -0.550408 0)
(1.10504 -0.883762 0)
(1.15382 -1.15872 0)
(1.2938 -1.33983 0)
(1.47406 -1.39654 0)
(1.69135 -1.32125 0)
(1.99379 -1.10488 0)
(2.32432 -0.757873 0)
(2.62915 -0.338056 0)
(2.90931 0.0959774 0)
(3.18146 0.548344 0)
(3.39752 0.973561 0)
(3.53175 1.27013 0)
(3.59051 1.39577 0)
(3.56461 1.35615 0)
(3.44695 1.18262 0)
(3.24556 0.915994 0)
(2.97704 0.592709 0)
(2.66978 0.244311 0)
(2.35436 -0.0921216 0)
(2.05207 -0.380187 0)
(1.77738 -0.601384 0)
(1.5461 -0.737496 0)
(1.36487 -0.771902 0)
(1.23135 -0.70324 0)
(1.14063 -0.536908 0)
(1.08494 -0.279316 0)
(1.05765 0.0583417 0)
(1.05384 0.459086 0)
(1.07267 0.899187 0)
(1.10701 1.34709 0)
(1.15419 1.76624 0)
(1.21023 2.12055 0)
(1.268 2.3762 0)
(1.31704 2.49994 0)
(1.33969 2.46694 0)
(1.30907 2.2776 0)
(1.19579 1.95244 0)
(0.976251 1.52576 0)
(0.633968 1.0515 0)
(0.162314 0.590833 0)
(-0.435319 0.197197 0)
(-1.15196 -0.0886402 0)
(-1.98287 -0.233504 0)
(-2.92606 -0.206671 0)
(-3.9815 0.0193447 0)
(-5.14862 0.469273 0)
(-6.42096 1.18749 0)
(-7.77007 2.19758 0)
(-9.14445 3.43725 0)
(1.47088 0.729671 0)
(1.15755 0.379918 0)
(0.912506 -0.0332456 0)
(0.762716 -0.477045 0)
(0.733208 -0.908358 0)
(0.824657 -1.28053 0)
(1.02886 -1.54763 0)
(1.31985 -1.68597 0)
(1.68368 -1.64046 0)
(2.10462 -1.43139 0)
(2.52464 -1.09043 0)
(2.90177 -0.63979 0)
(3.12921 -0.13149 0)
(3.19403 0.364601 0)
(3.3909 0.805713 0)
(3.49773 1.14824 0)
(3.5158 1.35829 0)
(3.44731 1.42163 0)
(3.25817 1.33991 0)
(3.03343 1.13979 0)
(2.77761 0.855916 0)
(2.5053 0.517346 0)
(2.24655 0.176118 0)
(2.02693 -0.125833 0)
(1.82499 -0.378585 0)
(1.66415 -0.555077 0)
(1.54673 -0.628261 0)
(1.46564 -0.597151 0)
(1.41969 -0.466858 0)
(1.411 -0.242744 0)
(1.43497 0.0620078 0)
(1.4883 0.42775 0)
(1.56754 0.83188 0)
(1.66957 1.24839 0)
(1.78903 1.64516 0)
(1.91812 1.98932 0)
(2.04485 2.25199 0)
(2.14948 2.40707 0)
(2.21064 2.43959 0)
(2.19905 2.34913 0)
(2.09083 2.14899 0)
(1.85119 1.86726 0)
(1.46575 1.5439 0)
(0.928926 1.22505 0)
(0.246844 0.95803 0)
(-0.567798 0.787262 0)
(-1.50043 0.752043 0)
(-2.53573 0.887772 0)
(-3.66125 1.22568 0)
(-4.84856 1.77797 0)
(-6.05101 2.55154 0)
(-7.23396 3.54503 0)
(-8.36507 4.70945 0)
(1.14712 1.10658 0)
(0.753684 0.688419 0)
(0.460785 0.176497 0)
(0.302183 -0.391706 0)
(0.301929 -0.959743 0)
(0.46567 -1.46497 0)
(0.778262 -1.84073 0)
(1.20512 -2.05302 0)
(1.71569 -2.07908 0)
(2.25093 -1.88594 0)
(2.75624 -1.50632 0)
(3.17909 -0.962235 0)
(3.52957 -0.327695 0)
(3.76623 0.285138 0)
(3.8537 0.794009 0)
(3.8234 1.19845 0)
(3.69005 1.47246 0)
(3.49552 1.60136 0)
(3.2468 1.58174 0)
(2.9228 1.39873 0)
(2.60024 1.13001 0)
(2.27735 0.777466 0)
(1.93156 0.364341 0)
(1.81265 0.0301676 0)
(1.6953 -0.236299 0)
(1.55998 -0.438996 0)
(1.4889 -0.54935 0)
(1.49249 -0.568547 0)
(1.53251 -0.484796 0)
(1.60152 -0.297174 0)
(1.69275 -0.0210096 0)
(1.79836 0.322131 0)
(1.91048 0.709285 0)
(2.03063 1.1149 0)
(2.15247 1.50717 0)
(2.2659 1.85547 0)
(2.37405 2.1391 0)
(2.44993 2.33308 0)
(2.47805 2.42403 0)
(2.4398 2.41418 0)
(2.31081 2.3162 0)
(2.07558 2.15706 0)
(1.72036 1.96842 0)
(1.24 1.78718 0)
(0.627952 1.65519 0)
(-0.0988787 1.61341 0)
(-0.927987 1.69529 0)
(-1.84388 1.93418 0)
(-2.83445 2.353 0)
(-3.83762 2.91045 0)
(-4.87762 3.68597 0)
(-5.93047 4.66626 0)
(-6.87002 5.70546 0)
(0.759678 1.60053 0)
(0.238692 1.07778 0)
(-0.144944 0.420055 0)
(-0.337688 -0.323026 0)
(-0.305196 -1.07949 0)
(-0.0413071 -1.76955 0)
(0.433789 -2.30511 0)
(1.06601 -2.61845 0)
(1.80908 -2.71285 0)
(2.54573 -2.48855 0)
(3.22124 -2.01935 0)
(3.75735 -1.37117 0)
(4.12724 -0.642196 0)
(4.32442 0.0808829 0)
(4.34633 0.735671 0)
(4.2117 1.28008 0)
(3.94494 1.67071 0)
(3.58638 1.87567 0)
(3.19354 1.90466 0)
(2.78699 1.76666 0)
(2.39071 1.49067 0)
(2.03537 1.11848 0)
(1.72505 0.654599 0)
(1.5053 0.181084 0)
(1.41942 -0.179575 0)
(1.43166 -0.412199 0)
(1.49817 -0.552109 0)
(1.59001 -0.61169 0)
(1.71758 -0.558987 0)
(1.87223 -0.389149 0)
(2.03394 -0.12231 0)
(2.19719 0.220279 0)
(2.34736 0.607158 0)
(2.48573 1.01385 0)
(2.61046 1.41382 0)
(2.69569 1.77142 0)
(2.76678 2.07171 0)
(2.79819 2.30368 0)
(2.75657 2.45188 0)
(2.68223 2.51656 0)
(2.49933 2.51304 0)
(2.22243 2.46075 0)
(1.85487 2.3852 0)
(1.38865 2.3196 0)
(0.826563 2.29857 0)
(0.177953 2.3543 0)
(-0.545348 2.5161 0)
(-1.32999 2.81586 0)
(-2.16153 3.27175 0)
(-3.00952 3.84926 0)
(-3.90116 4.64286 0)
(-4.74859 5.54447 0)
(-5.605 6.5669 0)
(0.282967 2.2517 0)
(-0.418376 1.58867 0)
(-0.934474 0.729893 0)
(-1.18998 -0.256495 0)
(-1.13231 -1.27457 0)
(-0.748928 -2.21488 0)
(-0.0646057 -2.96236 0)
(0.845583 -3.41472 0)
(1.89038 -3.54822 0)
(2.94085 -3.30605 0)
(3.85721 -2.69729 0)
(4.55901 -1.86043 0)
(4.99011 -0.912974 0)
(5.15164 0.0358449 0)
(5.06107 0.895966 0)
(4.75619 1.59908 0)
(4.28858 2.0966 0)
(3.7175 2.35617 0)
(3.119 2.38486 0)
(2.55288 2.21766 0)
(2.04735 1.90063 0)
(1.60874 1.45626 0)
(1.25808 0.892559 0)
(1.05751 0.302798 0)
(1.04258 -0.176246 0)
(1.15544 -0.489722 0)
(1.33257 -0.687342 0)
(1.53905 -0.79891 0)
(1.79451 -0.775067 0)
(2.06047 -0.614454 0)
(2.30702 -0.343961 0)
(2.52933 0.014743 0)
(2.72527 0.430212 0)
(2.86471 0.859393 0)
(3.00679 1.30445 0)
(3.05079 1.703 0)
(3.07514 2.05018 0)
(3.03468 2.33174 0)
(2.95083 2.5381 0)
(2.80109 2.67389 0)
(2.58483 2.75373 0)
(2.29423 2.78831 0)
(1.93046 2.7957 0)
(1.50011 2.80838 0)
(1.00531 2.86141 0)
(0.449289 2.98482 0)
(-0.159884 3.20554 0)
(-0.810638 3.5473 0)
(-1.4916 4.03589 0)
(-2.19851 4.66376 0)
(-2.92558 5.41637 0)
(-3.67877 6.34542 0)
(-4.44018 7.35622 0)
(-0.304037 3.14748 0)
(-1.27451 2.30673 0)
(-1.98733 1.17817 0)
(-2.33951 -0.152152 0)
(-2.25645 -1.55956 0)
(-1.71696 -2.87788 0)
(-0.758833 -3.93467 0)
(0.518775 -4.59214 0)
(1.97442 -4.77045 0)
(3.45228 -4.44756 0)
(4.6946 -3.60956 0)
(5.60127 -2.47787 0)
(6.10142 -1.21278 0)
(6.20893 0.0388785 0)
(5.97091 1.16125 0)
(5.45529 2.07335 0)
(4.73675 2.71432 0)
(3.8965 3.03946 0)
(3.03605 3.05489 0)
(2.25636 2.82187 0)
(1.61697 2.41848 0)
(1.1124 1.87966 0)
(0.721843 1.18685 0)
(0.496906 0.39998 0)
(0.523555 -0.267345 0)
(0.778442 -0.684565 0)
(1.09834 -0.947349 0)
(1.44106 -1.09408 0)
(1.84308 -1.07611 0)
(2.24161 -0.901786 0)
(2.60032 -0.604481 0)
(2.89843 -0.214256 0)
(3.16975 0.254555 0)
(3.30333 0.722438 0)
(3.43671 1.21705 0)
(3.45853 1.68047 0)
(3.41647 2.08011 0)
(3.34422 2.42274 0)
(3.15662 2.6913 0)
(2.9526 2.89075 0)
(2.70033 3.03272 0)
(2.38384 3.1238 0)
(2.01149 3.18602 0)
(1.60085 3.25587 0)
(1.15994 3.36168 0)
(0.691387 3.52787 0)
(0.200083 3.78227 0)
(-0.310096 4.15074 0)
(-0.83599 4.65409 0)
(-1.38094 5.30895 0)
(-1.95735 6.11124 0)
(-2.5628 7.02682 0)
(-3.25535 8.10725 0)
(-1.01653 4.34174 0)
(-2.3876 3.25824 0)
(-3.40308 1.77247 0)
(-3.93747 0.0131909 0)
(-3.8636 -1.89199 0)
(-3.12127 -3.71872 0)
(-1.77828 -5.2168 0)
(0.0240887 -6.1906 0)
(2.09712 -6.47522 0)
(4.19207 -6.02271 0)
(5.85175 -4.80189 0)
(6.99688 -3.22049 0)
(7.56411 -1.4989 0)
(7.58845 0.174154 0)
(7.14767 1.65158 0)
(6.34526 2.82713 0)
(5.30377 3.64407 0)
(4.12508 4.05259 0)
(2.92375 4.01473 0)
(1.84724 3.62061 0)
(1.00256 3.04544 0)
(0.412568 2.36008 0)
(0.0473079 1.5011 0)
(-0.127459 0.461767 0)
(-0.0815217 -0.479545 0)
(0.299553 -0.999532 0)
(0.82803 -1.37472 0)
(1.35444 -1.57324 0)
(1.92282 -1.5522 0)
(2.45789 -1.34424 0)
(2.92071 -0.978583 0)
(3.28716 -0.503657 0)
(3.60036 0.0516871 0)
(3.75468 0.615489 0)
(3.88361 1.17337 0)
(3.86952 1.72831 0)
(3.77663 2.16671 0)
(3.67544 2.59149 0)
(3.39739 2.89881 0)
(3.12248 3.12768 0)
(2.80183 3.33064 0)
(2.43782 3.48727 0)
(2.06682 3.57731 0)
(1.69681 3.65364 0)
(1.31484 3.76615 0)
(0.925986 3.94062 0)
(0.541097 4.20293 0)
(0.162031 4.58154 0)
(-0.216918 5.10026 0)
(-0.605335 5.77545 0)
(-1.01905 6.6178 0)
(-1.48838 7.63336 0)
(-2.05222 8.80441 0)
(0.266289 6.70468 0)
(-1.90141 6.08315 0)
(-3.88039 4.66983 0)
(-5.29983 2.61777 0)
(-6.07734 0.1608 0)
(-6.05504 -2.51981 0)
(-5.09086 -5.00942 0)
(-3.2699 -7.07711 0)
(-0.758152 -8.50463 0)
(2.20446 -8.83208 0)
(5.22345 -8.11429 0)
(7.5404 -6.39425 0)
(8.94621 -4.1529 0)
(9.54266 -1.77732 0)
(9.40851 0.472024 0)
(8.67243 2.41435 0)
(7.47626 3.93323 0)
(5.97462 4.93805 0)
(4.34148 5.39528 0)
(2.73523 5.32159 0)
(1.3036 4.75188 0)
(0.186252 3.82473 0)
(-0.570974 2.79306 0)
(-0.978021 1.73277 0)
(-1.01612 0.519966 0)
(-0.647887 -0.745695 0)
(-0.370969 -1.56262 0)
(0.385502 -1.96013 0)
(1.21193 -2.20906 0)
(2.0316 -2.15629 0)
(2.76856 -1.90997 0)
(3.39214 -1.48322 0)
(3.86474 -0.918554 0)
(4.2232 -0.257751 0)
(4.37274 0.420115 0)
(4.46064 1.10792 0)
(4.36829 1.76535 0)
(4.2138 2.29799 0)
(3.98296 2.8378 0)
(3.69087 3.20518 0)
(3.23518 3.54649 0)
(2.84371 3.72938 0)
(2.55603 3.82397 0)
(2.19246 3.91731 0)
(1.8199 4.02168 0)
(1.47136 4.13957 0)
(1.14795 4.3023 0)
(0.859591 4.54712 0)
(0.608227 4.90903 0)
(0.382576 5.4205 0)
(0.165568 6.10488 0)
(-0.0647267 6.97818 0)
(-0.345038 8.05936 0)
(-0.735258 9.36677 0)
(-0.222228 8.69152 0)
(-2.90386 8.41587 0)
(-5.70282 6.76534 0)
(-7.78278 4.19299 0)
(-8.95153 0.90415 0)
(-8.89214 -3.07847 0)
(-7.48882 -6.71297 0)
(-5.12002 -9.62856 0)
(-1.59053 -11.97 0)
(2.76545 -12.4913 0)
(6.91677 -11.0278 0)
(9.99093 -8.37317 0)
(11.7496 -5.21477 0)
(12.2996 -1.96893 0)
(11.8815 1.04637 0)
(10.6792 3.60011 0)
(8.88684 5.5204 0)
(6.76495 6.75893 0)
(4.5133 7.29924 0)
(2.326 7.038 0)
(0.4533 6.10079 0)
(-1.048 4.9166 0)
(-2.13041 3.56463 0)
(-2.56174 1.92534 0)
(-2.32067 0.170782 0)
(-1.61008 -1.27727 0)
(-0.865803 -2.05036 0)
(-0.0835736 -2.90274 0)
(1.1564 -3.24202 0)
(2.26071 -3.05439 0)
(3.18155 -2.63116 0)
(3.96922 -2.01167 0)
(4.55288 -1.26085 0)
(4.96106 -0.43566 0)
(5.12606 0.379374 0)
(5.16678 1.18976 0)
(4.99069 1.94916 0)
(4.73768 2.57161 0)
(4.38947 3.12339 0)
(3.86929 3.64223 0)
(3.61957 3.81046 0)
(3.23128 4.03524 0)
(2.7148 4.18611 0)
(2.26373 4.29264 0)
(1.88394 4.37128 0)
(1.55148 4.43942 0)
(1.28731 4.54618 0)
(1.09997 4.7369 0)
(0.987356 5.05457 0)
(0.933396 5.5346 0)
(0.910315 6.21172 0)
(0.8953 7.12205 0)
(0.861075 8.29514 0)
(0.736562 9.76207 0)
(-1.33071 12.033 0)
(-3.66321 11.0289 0)
(-7.25443 8.85039 0)
(-10.6885 5.69138 0)
(-12.7007 1.30496 0)
(-12.5831 -3.63331 0)
(-13.7765 -8.55789 0)
(-5.90758 -13.0431 0)
(-2.90302 -16.3831 0)
(3.40024 -17.4038 0)
(9.6628 -15.463 0)
(13.291 -10.952 0)
(15.2881 -6.27306 0)
(15.7486 -1.85734 0)
(14.9497 2.10397 0)
(13.1621 5.43119 0)
(10.5944 7.86738 0)
(7.60819 9.32789 0)
(4.54824 9.79861 0)
(1.7161 9.31496 0)
(-0.772977 8.15412 0)
(-2.91313 6.40664 0)
(-3.97899 4.1171 0)
(-3.99813 1.81027 0)
(-3.80717 -0.338255 0)
(-3.14796 -2.02076 0)
(-1.59417 -3.15504 0)
(-0.178254 -4.03456 0)
(0.711858 -4.4276 0)
(2.67655 -4.32269 0)
(3.83157 -3.77602 0)
(4.77426 -2.90566 0)
(5.42155 -1.90563 0)
(5.79069 -0.840756 0)
(5.98492 0.255432 0)
(5.95227 1.28681 0)
(5.70242 2.16264 0)
(5.3815 2.94661 0)
(4.84056 3.58584 0)
(4.39773 4.01696 0)
(3.84345 4.40412 0)
(3.21986 4.61337 0)
(2.68001 4.72238 0)
(2.23375 4.75982 0)
(1.84545 4.75242 0)
(1.53852 4.73668 0)
(1.33933 4.75966 0)
(1.26117 4.84723 0)
(1.30116 5.07858 0)
(1.43483 5.51001 0)
(1.65065 6.13269 0)
(1.92402 6.96658 0)
(2.20627 8.15236 0)
(2.41107 9.81365 0)
(0.030426 16.0669 0)
(-5.1657 15.8964 0)
(-10.2142 13.9616 0)
(-14.541 9.25268 0)
(-17.0207 2.417 0)
(-16.887 -5.05153 0)
(-12.9852 -12.8708 0)
(-8.06275 -19.4268 0)
(-1.09675 -22.9674 0)
(5.82998 -22.9779 0)
(10.6834 -20.2656 0)
(17.3807 -15.0026 0)
(19.0336 -7.80763 0)
(19.0349 -1.68225 0)
(17.9202 3.55366 0)
(15.5754 7.94555 0)
(12.1705 11.0657 0)
(8.27373 12.7469 0)
(4.36941 13.1167 0)
(0.705604 12.4007 0)
(-2.50979 10.7265 0)
(-4.81924 8.02739 0)
(-6.09576 4.75137 0)
(-6.51591 1.76472 0)
(-5.90988 -0.889121 0)
(-4.38364 -3.30776 0)
(-2.42479 -4.90726 0)
(-0.292107 -5.6186 0)
(1.62422 -5.82044 0)
(3.31958 -5.59174 0)
(4.68189 -4.74883 0)
(5.6906 -3.50249 0)
(6.32349 -2.30663 0)
(6.69034 -1.12799 0)
(6.82193 0.143352 0)
(6.69034 1.39623 0)
(6.36769 2.56667 0)
(5.80846 3.42797 0)
(5.23031 4.06179 0)
(4.49691 4.62479 0)
(4.02175 4.93829 0)
(3.31532 5.11787 0)
(2.69316 5.18763 0)
(2.17751 5.15369 0)
(1.76334 5.05101 0)
(1.47379 4.91868 0)
(1.33314 4.81228 0)
(1.39804 4.78787 0)
(1.37727 4.86446 0)
(1.94892 5.13144 0)
(2.42041 5.79769 0)
(2.897 6.66664 0)
(3.57903 7.7969 0)
(4.31156 9.5132 0)
(4.31707 19.9634 0)
(-0.131319 18.8865 0)
(-6.0795 17.6244 0)
(-12.1701 13.1997 0)
(-15.8227 5.41461 0)
(-17.4854 -5.12719 0)
(-17.1329 -16.1554 0)
(-12.2306 -26.1127 0)
(-2.86917 -32.4843 0)
(7.38997 -29.9343 0)
(15.5006 -25.2704 0)
(21.0398 -17.9403 0)
(22.1585 -8.78248 0)
(20.9326 -0.996884 0)
(19.6478 5.65577 0)
(16.8716 11.1325 0)
(12.8273 15.0752 0)
(8.15367 17.0433 0)
(3.49178 17.3541 0)
(-0.939607 16.194 0)
(-4.63052 13.6007 0)
(-7.15742 9.9249 0)
(-8.58569 5.73805 0)
(-8.77529 1.56966 0)
(-7.99164 -2.13758 0)
(-6.44593 -5.47846 0)
(-3.74273 -7.63261 0)
(-0.771665 -8.18492 0)
(1.81584 -8.09374 0)
(4.11295 -7.62094 0)
(5.95565 -6.31834 0)
(7.02071 -4.50029 0)
(7.47063 -2.71957 0)
(7.79901 -1.16001 0)
(7.94189 0.292325 0)
(7.70284 1.76703 0)
(7.18267 3.0471 0)
(6.55421 4.06908 0)
(5.875 4.84138 0)
(5.09617 5.37529 0)
(4.28318 5.69181 0)
(3.49587 5.85913 0)
(2.80826 5.87221 0)
(2.23225 5.72652 0)
(1.86903 5.47346 0)
(1.58086 5.17853 0)
(1.42296 4.89565 0)
(1.58677 4.68444 0)
(1.95565 4.56322 0)
(2.43876 4.57111 0)
(2.97421 4.89663 0)
(5.32543 5.56721 0)
(5.55487 6.63344 0)
(7.78972 8.41048 0)
(9.59184 26.6961 0)
(7.86642 30.9678 0)
(6.94604 25.9502 0)
(3.60407 17.7467 0)
(-1.10118 6.23146 0)
(-5.4083 -5.18118 0)
(-9.07766 -18.3914 0)
(-9.0356 -31.8117 0)
(-4.72346 -43.2944 0)
(5.31038 -41.4584 0)
(14.7101 -34.4231 0)
(18.3013 -23.1068 0)
(20.004 -6.65855 0)
(17.3469 -1.23113 0)
(16.054 7.87856 0)
(13.3707 15.0717 0)
(9.66656 19.6184 0)
(5.42033 21.8708 0)
(0.924946 22.396 0)
(-3.32179 20.5983 0)
(-6.87819 17.0697 0)
(-9.28758 12.2031 0)
(-10.4066 6.6966 0)
(-10.1745 1.32704 0)
(-8.80038 -3.31543 0)
(-6.82688 -7.25883 0)
(-4.18858 -10.1419 0)
(-1.01421 -11.0456 0)
(2.02545 -10.5667 0)
(4.79511 -9.65079 0)
(6.70054 -7.81691 0)
(7.97457 -4.94989 0)
(7.97166 -3.75229 0)
(8.29055 -1.66282 0)
(8.41568 0.443222 0)
(8.23842 2.1493 0)
(7.64351 3.56962 0)
(6.94208 4.71506 0)
(6.21078 5.55305 0)
(5.45044 6.11056 0)
(4.68175 6.42144 0)
(3.95946 6.51762 0)
(3.34049 6.41218 0)
(2.8508 6.12343 0)
(2.53736 5.71926 0)
(2.42277 5.2783 0)
(2.50716 4.8324 0)
(2.80645 4.41257 0)
(3.31813 4.08599 0)
(4.13057 3.89486 0)
(4.99883 3.78864 0)
(6.41111 4.17138 0)
(7.97979 5.07447 0)
(9.9759 6.37763 0)
(39.8348 21.594 0)
(36.7361 20.7209 0)
(32.5874 22.543 0)
(26.0848 23.8933 0)
(15.0662 19.1251 0)
(5.33032 5.76529 0)
(-2.7369 -12.6147 0)
(-9.54589 -29.7858 0)
(-12.1843 -43.6987 0)
(-7.77378 -47.5732 0)
(-1.34419 -38.815 0)
(3.64403 -23.4663 0)
(3.21267 -8.24047 0)
(2.34814 1.01548 0)
(1.78184 7.06859 0)
(0.726952 17.3958 0)
(-0.63831 22.6184 0)
(-2.30744 25.49 0)
(-4.40507 26.233 0)
(-6.21709 24.077 0)
(-7.77065 19.6963 0)
(-8.41497 13.5753 0)
(-8.14029 6.75806 0)
(-7.04916 0.196727 0)
(-5.07623 -5.53769 0)
(-2.57954 -10.1769 0)
(0.0691176 -13.3094 0)
(2.50253 -14.5197 0)
(4.59376 -14.0988 0)
(6.93403 -12.4763 0)
(8.14071 -8.82201 0)
(8.63893 -5.17567 0)
(8.76592 -3.33024 0)
(8.54261 -1.95092 0)
(8.12266 -0.0738928 0)
(7.62851 2.64584 0)
(7.08455 4.2241 0)
(6.533 5.46418 0)
(5.9982 6.37484 0)
(5.48885 6.98884 0)
(5.03486 7.30791 0)
(4.67638 7.32447 0)
(4.45196 7.06051 0)
(4.39397 6.5649 0)
(4.51909 5.92259 0)
(4.81547 5.224 0)
(5.25968 4.51895 0)
(5.85725 3.83587 0)
(6.62726 3.21919 0)
(7.66351 2.72925 0)
(8.92381 2.38688 0)
(10.4696 2.36323 0)
(12.7467 2.78577 0)
(15.3487 3.77722 0)
(8.36399 26.6521 0)
(6.87205 34.93 0)
(4.25639 39.6635 0)
(8.16485 31.787 0)
(12.9439 19.5222 0)
(15.5373 6.37819 0)
(13.6617 -8.04633 0)
(8.67773 -32.9932 0)
(4.87877 -50.0101 0)
(-3.23869 -50.9811 0)
(-8.83904 -40.2903 0)
(-12.7541 -24.7185 0)
(-15.1933 -9.74548 0)
(-14.9492 2.46775 0)
(-14.0268 11.1821 0)
(-12.2805 17.6545 0)
(-9.30996 22.5907 0)
(-5.85978 25.6702 0)
(-2.29769 26.4739 0)
(0.909866 24.6256 0)
(3.64658 19.9348 0)
(6.41537 13.204 0)
(8.4493 6.02464 0)
(9.02225 -1.14722 0)
(9.51459 -7.19271 0)
(10.2317 -11.8539 0)
(10.4461 -14.8545 0)
(10.0798 -15.775 0)
(9.01344 -15.1968 0)
(7.75609 -13.4214 0)
(6.69803 -10.34 0)
(5.82694 -6.65235 0)
(5.09051 -3.49528 0)
(4.30362 -0.936293 0)
(3.41339 1.29562 0)
(2.8095 3.12038 0)
(2.73303 4.55947 0)
(2.87152 5.64958 0)
(3.14858 6.41363 0)
(3.55565 6.87952 0)
(4.00614 7.07782 0)
(4.47466 7.00892 0)
(5.07423 6.66864 0)
(5.78892 6.10786 0)
(6.66335 5.41841 0)
(7.67507 4.69363 0)
(8.74231 3.97038 0)
(9.81839 3.2489 0)
(10.9308 2.54318 0)
(12.1593 1.89683 0)
(13.6097 1.32684 0)
(15.3477 0.821943 0)
(17.9515 0.311035 0)
(21.7643 0.0456346 0)
(-10.8628 18.374 0)
(2.553 20.5441 0)
(19.2359 19.4048 0)
(31.3609 16.3849 0)
(40.7369 10.2679 0)
(45.2668 1.29337 0)
(41.5295 -9.02158 0)
(29.7175 -20.8099 0)
(16.2588 -30.6615 0)
(1.4832 -32.7703 0)
(-14.9389 -25.7033 0)
(-26.696 -13.7499 0)
(-31.5705 -2.94132 0)
(-30.3066 3.71426 0)
(-28.2843 9.06368 0)
(-23.4679 14.1116 0)
(-16.3254 17.7173 0)
(-7.50351 19.2337 0)
(2.26112 18.9348 0)
(11.9255 16.6468 0)
(19.9259 12.2084 0)
(25.5408 6.88669 0)
(27.78 2.50544 0)
(28.3399 -1.70872 0)
(27.7082 -9.60956 0)
(23.5961 -12.9504 0)
(18.0988 -13.7667 0)
(12.1881 -13.2332 0)
(6.29478 -11.6787 0)
(0.996784 -9.36695 0)
(-3.17328 -6.47952 0)
(-5.98035 -3.72344 0)
(-7.39031 -1.59778 0)
(-8.3581 0.182995 0)
(-8.66816 1.87394 0)
(-8.26606 3.43532 0)
(-7.27844 4.6463 0)
(-5.83082 5.5735 0)
(-3.96548 6.25571 0)