/*--------------------------------*- C++ -*----------------------------------*\
| =========                 |                                                 |
| \\      /  F ield         | OpenFOAM: The Open Source CFD Toolbox           |
|  \\    /   O peration     | Version:  2206                                  |
|   \\  /    A nd           | Website:  www.openfoam.com                      |
|    \\/     M anipulation  |                                                 |
\*---------------------------------------------------------------------------*/
FoamFile
{
    version     2.0;
    format      ascii;
    arch        "LSB;label=32;scalar=64";
    class       surfaceScalarField;
    location    "18.6";
    object      phi;
}
// * * * * * * * * * * * * * * * * * * * * * * * * * * * * * * * * * * * * * //

dimensions      [0 3 -1 0 0 0 0];

oriented        oriented;

internalField   nonuniform List<scalar> 
5892
(
2.07123e-06
-1.59353e-06
-4.77696e-07
3.35206e-06
-1.53659e-07
-1.12717e-06
4.19433e-06
1.15447e-06
-1.99674e-06
4.64745e-06
2.36385e-06
-2.81697e-06
4.74212e-06
3.28942e-06
-3.38409e-06
4.56361e-06
3.89416e-06
-3.71565e-06
4.16093e-06
4.20365e-06
-3.80098e-06
3.52433e-06
4.268e-06
-3.6314e-06
2.66325e-06
4.14537e-06
-3.28429e-06
1.7317e-06
3.80509e-06
-2.87354e-06
1.01967e-06
3.15689e-06
-2.44486e-06
7.48306e-07
2.17093e-06
-1.89956e-06
9.2486e-07
9.57762e-07
-1.13432e-06
1.3591e-06
-2.69133e-07
-1.65102e-07
1.93091e-06
-1.44183e-06
8.70017e-07
2.54365e-06
-2.46468e-06
1.85194e-06
3.16194e-06
-3.32286e-06
2.70457e-06
3.78289e-06
-4.01396e-06
3.393e-06
4.4263e-06
-4.52905e-06
3.88565e-06
5.12854e-06
-4.83992e-06
4.13767e-06
5.91895e-06
-4.87381e-06
4.0834e-06
6.80143e-06
-4.54748e-06
3.665e-06
7.75132e-06
-3.80985e-06
2.85996e-06
8.7051e-06
-2.6897e-06
1.73591e-06
9.55542e-06
-1.33673e-06
4.86417e-07
1.02229e-05
1.97165e-08
-6.87245e-07
1.0686e-05
1.22002e-06
-1.68307e-06
1.09552e-05
2.19289e-06
-2.46207e-06
1.10601e-05
2.92136e-06
-3.02628e-06
1.10375e-05
3.42396e-06
-3.40135e-06
1.09174e-05
3.7365e-06
-3.61638e-06
1.0724e-05
3.89383e-06
-3.7005e-06
1.04855e-05
3.92774e-06
-3.6892e-06
1.02299e-05
3.87549e-06
-3.6199e-06
9.97313e-06
3.77712e-06
-3.52035e-06
9.72173e-06
3.65935e-06
-3.40795e-06
9.47686e-06
3.53668e-06
-3.29181e-06
9.23774e-06
3.41418e-06
-3.17505e-06
9.00141e-06
3.29332e-06
-3.05699e-06
8.75948e-06
3.18047e-06
-2.93854e-06
8.49801e-06
3.08927e-06
-2.82781e-06
8.20531e-06
3.03104e-06
-2.73834e-06
7.88547e-06
2.99665e-06
-2.67681e-06
7.56327e-06
2.94646e-06
-2.62426e-06
7.27509e-06
2.82154e-06
-2.53336e-06
7.05496e-06
2.56733e-06
-2.34721e-06
6.92425e-06
2.15614e-06
-2.02543e-06
6.88486e-06
1.60009e-06
-1.56069e-06
6.93146e-06
9.38652e-07
-9.85249e-07
7.04753e-06
2.26912e-07
-3.4299e-07
7.20856e-06
-4.69971e-07
3.08944e-07
7.39918e-06
-1.11033e-06
9.19714e-07
7.60479e-06
-1.67136e-06
1.46574e-06
7.81268e-06
-2.1422e-06
1.93431e-06
8.01259e-06
-2.52209e-06
2.32218e-06
8.197e-06
-2.81838e-06
2.63397e-06
8.3612e-06
-3.04415e-06
2.87995e-06
8.50348e-06
-3.21498e-06
3.0727e-06
8.62498e-06
-3.34579e-06
3.22429e-06
8.72868e-06
-3.44736e-06
3.34366e-06
8.81815e-06
-3.52438e-06
3.43492e-06
8.89832e-06
-3.57648e-06
3.4963e-06
8.97891e-06
-3.59649e-06
3.5159e-06
9.07002e-06
-3.56113e-06
3.47003e-06
9.17057e-06
-3.43348e-06
3.33292e-06
9.28196e-06
-3.19974e-06
3.08836e-06
9.40402e-06
-2.851e-06
2.72893e-06
9.5344e-06
-2.38715e-06
2.25677e-06
9.66899e-06
-1.82057e-06
1.68598e-06
9.80172e-06
-1.17691e-06
1.04419e-06
9.92282e-06
-4.95854e-07
3.74754e-07
1.00247e-05
1.73457e-07
-2.7535e-07
1.01024e-05
7.98758e-07
-8.76467e-07
1.01526e-05
1.35657e-06
-1.40672e-06
1.01739e-05
1.8314e-06
-1.85271e-06
1.01667e-05
2.21616e-06
-2.20903e-06
1.01327e-05
2.51082e-06
-2.47681e-06
2.72069e-06
-2.66171e-06
2.50344e-07
-1.84387e-06
8.34512e-07
-7.37827e-07
1.36109e-06
6.27888e-07
1.72418e-06
2.00076e-06
1.80135e-06
3.21225e-06
1.54533e-06
4.15018e-06
1.00445e-06
4.74454e-06
2.99737e-07
4.97271e-06
-3.23883e-07
4.76899e-06
-6.48321e-07
4.12953e-06
-5.87406e-07
3.09597e-06
-1.85842e-07
1.76937e-06
4.33958e-07
3.37962e-07
1.1394e-06
-9.74579e-07
1.8394e-06
-2.14183e-06
2.4873e-06
-3.11258e-06
3.06053e-06
-3.89608e-06
3.55934e-06
-4.51277e-06
4.00884e-06
-4.97855e-06
4.45664e-06
-5.28772e-06
4.97755e-06
-5.39472e-06
5.63002e-06
-5.19995e-06
6.4107e-06
-4.59053e-06
7.28137e-06
-3.56036e-06
8.15607e-06
-2.21143e-06
8.92777e-06
-7.5198e-07
9.53955e-06
6.08233e-07
9.97453e-06
1.7579e-06
1.02416e-05
2.65427e-06
1.03656e-05
3.29994e-06
1.03779e-05
3.72427e-06
1.03023e-05
3.96945e-06
1.01575e-05
4.07253e-06
9.96832e-06
4.06463e-06
9.75609e-06
3.98936e-06
9.53505e-06
3.88038e-06
9.31328e-06
3.75845e-06
9.09277e-06
3.63469e-06
8.86869e-06
3.5174e-06
8.6294e-06
3.41976e-06
8.36232e-06
3.35635e-06
8.06521e-06
3.32815e-06
7.75386e-06
3.308e-06
7.458e-06
3.24232e-06
7.21101e-06
3.06852e-06
7.03884e-06
2.73951e-06
6.95393e-06
2.24105e-06
6.95875e-06
1.59527e-06
7.0438e-06
8.53601e-07
7.18658e-06
8.41333e-08
7.36653e-06
-6.49922e-07
7.56803e-06
-1.31183e-06
7.77655e-06
-1.87987e-06
7.97997e-06
-2.34561e-06
8.1688e-06
-2.71093e-06
8.33628e-06
-2.98586e-06
8.47834e-06
-3.18622e-06
8.59358e-06
-3.33021e-06
8.6834e-06
-3.43561e-06
8.75189e-06
-3.51585e-06
8.80404e-06
-3.57653e-06
8.84422e-06
-3.61666e-06
8.87914e-06
-3.63141e-06
8.92162e-06
-3.60361e-06
8.97236e-06
-3.48422e-06
9.03605e-06
-3.26343e-06
9.11402e-06
-2.92896e-06
9.2053e-06
-2.47843e-06
9.30744e-06
-1.92271e-06
9.41625e-06
-1.28573e-06
9.52442e-06
-6.04024e-07
9.62379e-06
7.4093e-08
9.70864e-06
7.1391e-07
9.7741e-06
1.29111e-06
9.81701e-06
1.78849e-06
9.83594e-06
2.19723e-06
9.83096e-06
2.51581e-06
2.74857e-06
-4.2538e-07
-1.41849e-06
-6.61899e-07
-5.01308e-07
-8.04957e-07
7.70946e-07
-9.53731e-07
2.14953e-06
-1.15589e-06
3.41441e-06
-1.40377e-06
4.39806e-06
-1.62546e-06
4.96623e-06
-1.78461e-06
5.13186e-06
-1.76252e-06
4.7469e-06
-1.48794e-06
3.85495e-06
-9.53524e-07
2.56155e-06
-1.96167e-07
1.01201e-06
6.17752e-07
-4.75958e-07
1.44372e-06
-1.80054e-06
2.1994e-06
-2.89751e-06
2.85269e-06
-3.76587e-06
3.38074e-06
-4.42413e-06
3.77984e-06
-4.91187e-06
4.07139e-06
-5.2701e-06
4.29439e-06
-5.51073e-06
4.52293e-06
-5.62326e-06
4.87379e-06
-5.55081e-06
5.39549e-06
-5.11223e-06
6.07925e-06
-4.24412e-06
6.86755e-06
-2.99973e-06
7.65509e-06
-1.53952e-06
8.35113e-06
-8.78098e-08
8.9117e-06
1.19734e-06
9.32173e-06
2.24424e-06
9.58783e-06
3.03384e-06
9.72928e-06
3.58282e-06
9.77275e-06
3.92598e-06
9.73952e-06
4.10577e-06
9.64166e-06
4.16249e-06
9.49503e-06
4.13598e-06
9.32127e-06
4.05414e-06
9.13622e-06
3.9435e-06
8.94336e-06
3.82755e-06
8.7365e-06
3.72427e-06
8.50473e-06
3.65153e-06
8.24213e-06
3.61894e-06
7.95627e-06
3.61401e-06
7.66896e-06
3.59531e-06
7.41013e-06
3.50115e-06
7.20824e-06
3.27042e-06
7.08407e-06
2.86368e-06
7.0478e-06
2.27732e-06
7.09657e-06
1.5465e-06
7.21618e-06
7.33995e-07
7.38311e-06
-8.28022e-08
7.57883e-06
-8.4564e-07
7.7869e-06
-1.5199e-06
7.99303e-06
-2.086e-06
8.18614e-06
-2.53872e-06
8.358e-06
-2.88279e-06
8.50331e-06
-3.13117e-06
8.61931e-06
-3.30221e-06
8.70499e-06
-3.41589e-06
8.76169e-06
-3.49232e-06
8.79372e-06
-3.54788e-06
8.80758e-06
-3.59038e-06
8.80868e-06
-3.61776e-06
8.80223e-06
-3.62496e-06
8.79432e-06
-3.5957e-06
8.7965e-06
-3.4864e-06
8.81397e-06
-3.2809e-06
8.84868e-06
-2.96367e-06
8.90088e-06
-2.53063e-06
8.96961e-06
-1.99144e-06
9.05246e-06
-1.36858e-06
9.14408e-06
-6.95645e-07
9.23672e-06
-1.85419e-08
9.32435e-06
6.2628e-07
9.40125e-06
1.21421e-06
9.46291e-06
1.72683e-06
9.50615e-06
2.15398e-06
9.52918e-06
2.49278e-06
2.7463e-06
-7.0925e-07
-7.09244e-07
-1.29768e-06
8.71196e-08
-1.75083e-06
1.2241e-06
-2.08217e-06
2.48087e-06
-2.28868e-06
3.62093e-06
-2.38227e-06
4.49164e-06
-2.39879e-06
4.98275e-06
-2.29471e-06
5.02778e-06
-1.97189e-06
4.42408e-06
-1.38177e-06
3.26483e-06
-5.56974e-07
1.73676e-06
3.39297e-07
1.15738e-07
1.25373e-06
-1.39039e-06
2.11165e-06
-2.65846e-06
2.86739e-06
-3.65326e-06
3.48666e-06
-4.38514e-06
3.94647e-06
-4.88394e-06
4.24132e-06
-5.20672e-06
4.39172e-06
-5.4205e-06
4.4579e-06
-5.57691e-06
4.48802e-06
-5.65338e-06
4.55756e-06
-5.62034e-06
4.77147e-06
-5.32615e-06
5.20176e-06
-4.67441e-06
5.81712e-06
-3.61509e-06
6.52929e-06
-2.25169e-06
7.23461e-06
-7.93131e-07
7.86326e-06
5.68687e-07
8.37748e-06
1.73002e-06
8.764e-06
2.64732e-06
9.02818e-06
3.31864e-06
9.18566e-06
3.7685e-06
9.25635e-06
4.03507e-06
9.258e-06
4.16084e-06
9.19869e-06
4.1953e-06
9.09005e-06
4.16278e-06
8.95291e-06
4.08064e-06
8.79392e-06
3.98654e-06
8.60907e-06
3.90912e-06
8.39298e-06
3.86761e-06
8.1479e-06
3.86402e-06
7.88799e-06
3.87393e-06
7.63711e-06
3.84619e-06
7.4231e-06
3.71516e-06
7.27151e-06
3.42201e-06
7.20014e-06
2.93504e-06
7.21405e-06
2.26342e-06
7.30597e-06
1.45457e-06
7.45787e-06
5.82094e-07
7.64624e-06
-2.71171e-07
7.85309e-06
-1.05249e-06
8.06183e-06
-1.72864e-06
8.25892e-06
-2.28309e-06
8.43474e-06
-2.71454e-06
8.58297e-06
-3.03101e-06
8.70024e-06
-3.24845e-06
8.78558e-06
-3.38754e-06
8.83902e-06
-3.46933e-06
8.8632e-06
-3.5165e-06
8.85952e-06
-3.5442e-06
8.8334e-06
-3.56425e-06
8.79241e-06
-3.57677e-06
8.74362e-06
-3.57618e-06
8.6907e-06
-3.54277e-06
8.64846e-06
-3.44417e-06
8.62222e-06
-3.25465e-06
8.61526e-06
-2.95671e-06
8.62941e-06
-2.54479e-06
8.66515e-06
-2.02718e-06
8.7214e-06
-1.42483e-06
8.79468e-06
-7.68918e-07
8.87795e-06
-1.01814e-07
8.96517e-06
5.39059e-07
9.05013e-06
1.12925e-06
9.12716e-06
1.6498e-06
9.19166e-06
2.08948e-06
9.24009e-06
2.44435e-06
2.71622e-06
-7.85884e-07
-1.44889e-06
-1.91753e-06
-2.1801e-06
-2.2914e-06
-2.29163e-06
-2.19357e-06
-1.84669e-06
-1.23383e-06
-4.25547e-07
4.81214e-07
1.4223e-06
2.32883e-06
3.14762e-06
3.84102e-06
4.37972e-06
4.75559e-06
4.96432e-06
5.00189e-06
4.89753e-06
4.73554e-06
4.5972e-06
4.55778e-06
4.69545e-06
5.07275e-06
5.63684e-06
6.27964e-06
6.91239e-06
7.48213e-06
7.95669e-06
8.3238e-06
8.58591e-06
8.75406e-06
8.84215e-06
8.86893e-06
8.84034e-06
8.76154e-06
8.64393e-06
8.48966e-06
8.3008e-06
8.08695e-06
7.86587e-06
7.66135e-06
7.50071e-06
7.40736e-06
7.39357e-06
7.4592e-06
7.59382e-06
7.77514e-06
7.98105e-06
8.19291e-06
8.39484e-06
8.57493e-06
8.72585e-06
8.84382e-06
8.9279e-06
8.97911e-06
8.99898e-06
8.98783e-06
8.9461e-06
8.87967e-06
8.79767e-06
8.70716e-06
8.61497e-06
8.53131e-06
8.46386e-06
8.41764e-06
8.39582e-06
8.39996e-06
8.43008e-06
8.48407e-06
8.55586e-06
8.63957e-06
8.72882e-06
1.04e-06
8.81717e-06
1.56144e-06
8.89902e-06
2.00763e-06
8.96947e-06
2.3739e-06
2.66102e-06
8.44611e-06
8.54244e-06
8.63793e-06
8.72667e-06
6.0277e-06
1.39134e-07
5.87906e-06
1.48635e-07
5.72022e-06
1.58846e-07
5.55026e-06
1.69958e-07
5.36824e-06
1.8202e-07
5.17331e-06
1.94931e-07
4.96493e-06
2.08378e-07
4.74289e-06
2.22037e-07
4.50766e-06
2.35234e-07
4.26093e-06
2.46728e-07
4.005e-06
2.55926e-07
3.74271e-06
2.62291e-07
3.47745e-06
2.65268e-07
3.21401e-06
2.63439e-07
2.95716e-06
2.56846e-07
2.71408e-06
2.43081e-07
2.49087e-06
2.2321e-07
2.28873e-06
2.02138e-07
2.10654e-06
1.82192e-07
1.94225e-06
1.64287e-07
1.79349e-06
1.4876e-07
1.65803e-06
1.35464e-07
1.53405e-06
1.2398e-07
1.42012e-06
1.13926e-07
1.31512e-06
1.05002e-07
1.21821e-06
9.6911e-08
1.12882e-06
8.93908e-08
1.04642e-06
8.23949e-08
9.70477e-07
7.59467e-08
9.00361e-07
7.01166e-08
8.35377e-07
6.49842e-08
7.74755e-07
6.06217e-08
7.17719e-07
5.70362e-08
6.63615e-07
5.41033e-08
6.12015e-07
5.16008e-08
5.62676e-07
4.93383e-08
5.15621e-07
4.70554e-08
4.7145e-07
4.41708e-08
4.31435e-07
4.00152e-08
3.96856e-07
3.45793e-08
3.68424e-07
2.84314e-08
3.46225e-07
2.21987e-08
3.29483e-07
1.67427e-08
3.16598e-07
1.28845e-08
3.05474e-07
1.11247e-08
2.9382e-07
1.16537e-08
2.79169e-07
1.46513e-08
2.58889e-07
2.028e-08
2.3029e-07
2.85987e-08
1.90802e-07
3.9488e-08
1.38503e-07
5.22989e-08
7.23873e-08
6.61157e-08
7.95694e-08
-7.18215e-09
1.03216e-05
1.99568e-07
1.02536e-05
2.16581e-07
1.01778e-05
2.34706e-07
1.00935e-05
2.54165e-07
1.00005e-05
2.75021e-07
9.89831e-06
2.97159e-07
9.78671e-06
3.19986e-07
9.66548e-06
3.43261e-07
9.53431e-06
3.66404e-07
9.39404e-06
3.87e-07
9.24498e-06
4.04982e-07
9.08801e-06
4.19269e-07
8.92457e-06
4.28707e-07
8.75561e-06
4.32398e-07
8.5825e-06
4.29951e-07
8.40387e-06
4.21715e-07
8.21861e-06
4.08473e-07
8.02893e-06
3.91817e-07
7.83736e-06
3.73754e-07
7.64597e-06
3.55678e-07
7.45615e-06
3.38582e-07
7.26855e-06
3.23064e-07
7.08321e-06
3.0932e-07
6.89984e-06
2.97299e-07
6.71803e-06
2.86807e-07
6.53735e-06
2.77599e-07
6.35734e-06
2.69401e-07
6.17777e-06
2.61956e-07
5.99871e-06
2.55016e-07
5.82047e-06
2.48356e-07
5.64366e-06
2.41793e-07
5.46912e-06
2.35164e-07
5.29786e-06
2.28295e-07
5.13094e-06
2.21024e-07
4.96927e-06
2.13267e-07
4.81359e-06
2.05014e-07
4.66433e-06
1.96321e-07
4.52113e-06
1.87367e-07
4.38248e-06
1.78663e-07
4.24609e-06
1.70973e-07
4.10932e-06
1.65199e-07
3.96915e-06
1.62375e-07
3.82251e-06
1.63376e-07
3.66679e-06
1.68603e-07
3.49998e-06
1.77943e-07
3.32075e-06
1.90881e-07
3.12874e-06
2.0666e-07
2.92469e-06
2.24333e-07
2.7104e-06
2.42882e-07
2.48853e-06
2.61364e-07
2.26213e-06
2.78694e-07
2.0353e-06
2.92948e-07
3.0177e-07
1.8131e-06
1.1456e-05
2.16516e-07
1.1435e-05
2.37608e-07
1.14098e-05
2.59907e-07
1.13803e-05
2.83687e-07
1.13462e-05
3.09034e-07
1.13076e-05
3.3583e-07
1.12641e-05
3.63443e-07
1.12158e-05
3.91552e-07
1.11627e-05
4.1952e-07
1.11049e-05
4.4484e-07
1.10425e-05
4.67329e-07
1.09758e-05
4.85955e-07
1.09049e-05
4.99607e-07
1.08298e-05
5.07507e-07
1.07505e-05
5.09295e-07
1.0667e-05
5.05171e-07
1.05796e-05
4.95924e-07
1.04885e-05
4.82942e-07
1.03943e-05
4.67889e-07
1.02979e-05
4.5212e-07
1.01999e-05
4.3659e-07
1.01009e-05
4.22013e-07
1.00014e-05
4.08876e-07
9.90129e-06
3.97371e-07
9.80064e-06
3.87455e-07
9.69924e-06
3.79005e-07
9.59683e-06
3.71809e-07
9.49322e-06
3.65562e-07
9.3883e-06
3.59934e-07
9.28206e-06
3.54597e-07
9.17455e-06
3.49306e-07
9.06584e-06
3.43875e-07
8.95604e-06
3.38097e-07
8.84523e-06
3.31827e-07
8.73346e-06
3.25043e-07
8.6206e-06
3.17871e-07
8.50633e-06
3.10593e-07
8.39003e-06
3.03668e-07
8.27089e-06
2.97805e-07
8.14787e-06
2.93993e-07
8.01977e-06
2.933e-07
7.88544e-06
2.96705e-07
7.74375e-06
3.0506e-07
7.59346e-06
3.18894e-07
7.43312e-06
3.38284e-07
7.26113e-06
3.62872e-07
7.07589e-06
3.91906e-07
6.87597e-06
4.24244e-07
6.66047e-06
4.58384e-07
6.42935e-06
4.92482e-07
6.18376e-06
5.24291e-07
5.92571e-06
5.50991e-07
5.69514e-07
5.65797e-06
1.17273e-05
2.19781e-07
1.17217e-05
2.43179e-07
1.17139e-05
2.67796e-07
1.17036e-05
2.93988e-07
1.16907e-05
3.21893e-07
1.16752e-05
3.51366e-07
1.16567e-05
3.81909e-07
1.16354e-05
4.12831e-07
1.16118e-05
4.43127e-07
1.15853e-05
4.71307e-07
1.15563e-05
4.96354e-07
1.15251e-05
5.17216e-07
1.14917e-05
5.32942e-07
1.14563e-05
5.42907e-07
1.14188e-05
5.4677e-07
1.13793e-05
5.44728e-07
1.13376e-05
5.37638e-07
1.12937e-05
5.2677e-07
1.12482e-05
5.13457e-07
1.12014e-05
4.98913e-07
1.11538e-05
4.84209e-07
1.11056e-05
4.70133e-07
1.10572e-05
4.57308e-07
1.10086e-05
4.46022e-07
1.09597e-05
4.36322e-07
1.09105e-05
4.28228e-07
1.08607e-05
4.21594e-07
1.08101e-05
4.16103e-07
1.07587e-05
4.11406e-07
1.07061e-05
4.07204e-07
1.06522e-05
4.03201e-07
1.05969e-05
3.99137e-07
1.05402e-05
3.94855e-07
1.04817e-05
3.90281e-07
1.04213e-05
3.8546e-07
1.03586e-05
3.80596e-07
1.02931e-05
3.76057e-07
1.02244e-05
3.72388e-07
1.01519e-05
3.70326e-07
1.00751e-05
3.70784e-07
9.99365e-06
3.7471e-07
9.90733e-06
3.83029e-07
9.81585e-06
3.96538e-07
9.71904e-06
4.1571e-07
9.61668e-06
4.40639e-07
9.50853e-06
4.71027e-07
9.39426e-06
5.06174e-07
9.27353e-06
5.44978e-07
9.14597e-06
5.85937e-07
9.01129e-06
6.27164e-07
8.86918e-06
6.664e-07
8.71925e-06
7.00919e-07
7.27812e-07
8.56096e-06
1.17798e-05
2.18802e-07
1.17794e-05
2.4361e-07
1.17775e-05
2.69684e-07
1.17739e-05
2.9756e-07
1.17683e-05
3.27489e-07
1.17603e-05
3.59358e-07
1.17496e-05
3.9264e-07
1.1736e-05
4.26405e-07
1.17196e-05
4.59563e-07
1.17003e-05
4.90649e-07
1.16784e-05
5.18218e-07
1.16546e-05
5.41014e-07
1.16295e-05
5.57991e-07
1.16039e-05
5.68598e-07
1.15777e-05
5.72935e-07
1.1551e-05
5.7146e-07
1.15237e-05
5.64852e-07
1.14964e-05
5.54123e-07
1.14693e-05
5.40556e-07
1.14426e-05
5.25614e-07
1.14163e-05
5.10497e-07
1.13905e-05
4.95932e-07
1.13651e-05
4.82733e-07
1.13399e-05
4.71153e-07
1.13151e-05
4.61215e-07
1.12901e-05
4.53148e-07
1.1265e-05
4.46756e-07
1.12394e-05
4.41646e-07
1.12134e-05
4.37432e-07
1.11868e-05
4.3381e-07
1.11595e-05
4.30534e-07
1.11312e-05
4.27372e-07
1.11019e-05
4.24174e-07
1.10713e-05
4.20903e-07
1.10391e-05
4.17652e-07
1.1005e-05
4.1467e-07
1.09687e-05
4.12356e-07
1.09298e-05
4.11262e-07
1.08881e-05
4.12087e-07
1.08432e-05
4.15686e-07
1.07949e-05
4.22947e-07
1.07434e-05
4.34557e-07
1.06889e-05
4.51091e-07
1.06316e-05
4.72985e-07
1.05718e-05
5.00382e-07
1.05098e-05
5.33084e-07
1.04455e-05
5.70462e-07
1.0379e-05
6.11518e-07
1.03101e-05
6.54847e-07
1.02385e-05
6.98709e-07
1.01637e-05
7.41246e-07
1.00847e-05
7.7989e-07
8.11881e-07
1.00006e-05
1.17937e-05
2.16613e-07
1.17953e-05
2.42067e-07
1.17959e-05
2.69054e-07
1.17951e-05
2.98327e-07
1.17923e-05
3.30276e-07
1.17869e-05
3.64818e-07
1.17782e-05
4.01349e-07
1.17659e-05
4.38722e-07
1.17499e-05
4.75564e-07
1.17303e-05
5.10232e-07
1.17076e-05
5.40852e-07
1.16827e-05
5.65918e-07
1.16564e-05
5.84371e-07
1.16292e-05
5.95722e-07
1.16021e-05
6.00088e-07
1.15755e-05
5.98079e-07
1.15497e-05
5.90573e-07
1.15251e-05
5.78766e-07
1.15017e-05
5.63947e-07
1.14799e-05
5.47463e-07
1.14596e-05
5.30751e-07
1.14409e-05
5.14661e-07
1.14235e-05
5.00081e-07
1.14068e-05
4.87838e-07
1.13902e-05
4.77825e-07
1.13738e-05
4.69559e-07
1.13578e-05
4.62819e-07
1.13419e-05
4.57479e-07
1.1326e-05
4.53373e-07
1.13096e-05
4.5015e-07
1.12928e-05
4.47399e-07
1.12753e-05
4.44842e-07
1.12571e-05
4.42341e-07
1.12382e-05
4.3989e-07
1.12182e-05
4.37618e-07
1.11971e-05
4.35809e-07
1.11745e-05
4.34888e-07
1.11504e-05
4.35385e-07
1.11245e-05
4.37948e-07
1.10968e-05
4.43449e-07
1.10671e-05
4.52574e-07
1.10358e-05
4.6586e-07
1.1003e-05
4.8395e-07
1.09687e-05
5.07257e-07
1.09332e-05
5.35845e-07
1.08969e-05
5.69446e-07
1.08598e-05
6.07534e-07
1.08221e-05
6.49265e-07
1.07835e-05
6.93369e-07
1.07439e-05
7.38356e-07
1.07026e-05
7.8256e-07
1.0659e-05
8.23517e-07
8.58983e-07
1.06119e-05
1.18081e-05
2.13938e-07
1.18111e-05
2.39068e-07
1.18139e-05
2.66239e-07
1.18157e-05
2.96552e-07
1.18154e-05
3.3062e-07
1.18117e-05
3.68422e-07
1.18039e-05
4.09233e-07
1.1791e-05
4.51608e-07
1.17729e-05
4.93643e-07
1.17498e-05
5.33302e-07
1.17225e-05
5.68138e-07
1.16922e-05
5.96228e-07
1.16602e-05
6.1638e-07
1.16278e-05
6.28177e-07
1.1596e-05
6.3189e-07
1.15657e-05
6.28325e-07
1.15377e-05
6.1863e-07
1.15122e-05
6.04242e-07
1.14894e-05
5.86761e-07
1.14691e-05
5.67718e-07
1.14513e-05
5.48573e-07
1.14355e-05
5.30428e-07
1.14215e-05
5.14136e-07
1.14088e-05
5.00469e-07
1.1397e-05
4.89669e-07
1.13852e-05
4.81311e-07
1.13732e-05
4.74828e-07
1.13608e-05
4.69887e-07
1.1348e-05
4.66241e-07
1.13346e-05
4.63498e-07
1.13208e-05
4.61249e-07
1.13064e-05
4.59199e-07
1.12916e-05
4.57188e-07
1.12762e-05
4.55237e-07
1.12603e-05
4.53501e-07
1.12438e-05
4.523e-07
1.12266e-05
4.521e-07
1.12086e-05
4.53458e-07
1.11895e-05
4.57009e-07
1.11696e-05
4.63316e-07
1.11491e-05
4.73137e-07
1.11277e-05
4.87271e-07
1.11055e-05
5.06123e-07
1.10828e-05
5.29989e-07
1.10596e-05
5.58987e-07
1.10361e-05
5.92952e-07
1.10122e-05
6.31431e-07
1.09878e-05
6.73676e-07
1.09626e-05
7.18575e-07
1.09362e-05
7.64753e-07
1.09081e-05
8.10677e-07
1.08774e-05
8.54214e-07
8.93158e-07
1.08432e-05
1.18245e-05
2.10726e-07
1.18293e-05
2.34215e-07
1.1835e-05
2.60565e-07
1.18401e-05
2.91398e-07
1.18431e-05
3.27666e-07
1.1842e-05
3.69468e-07
1.18354e-05
4.15924e-07
1.18218e-05
4.65147e-07
1.18009e-05
5.14516e-07
1.17731e-05
5.61188e-07
1.17392e-05
6.01982e-07
1.17012e-05
6.34246e-07
1.1661e-05
6.5659e-07
1.16205e-05
6.6866e-07
1.15814e-05
6.70951e-07
1.15452e-05
6.646e-07
1.15126e-05
6.51176e-07
1.14843e-05
6.32533e-07
1.14604e-05
6.10699e-07
1.14405e-05
5.876e-07
1.14242e-05
5.64874e-07
1.14109e-05
5.43729e-07
1.13999e-05
5.2509e-07
1.13906e-05
5.09821e-07
1.1382e-05
4.98304e-07
1.13733e-05
4.90011e-07
1.13641e-05
4.84012e-07
1.13541e-05
4.7982e-07
1.13433e-05
4.77054e-07
1.13317e-05
4.75166e-07
1.13192e-05
4.73665e-07
1.13062e-05
4.7223e-07
1.12927e-05
4.70663e-07
1.12789e-05
4.6904e-07
1.12649e-05
4.67526e-07
1.12507e-05
4.66474e-07
1.12364e-05
4.66443e-07
1.12219e-05
4.67934e-07
1.12073e-05
4.71609e-07
1.11925e-05
4.78166e-07
1.11774e-05
4.8824e-07
1.11621e-05
5.02517e-07
1.11467e-05
5.2155e-07
1.1131e-05
5.45673e-07
1.1115e-05
5.75009e-07
1.10985e-05
6.0946e-07
1.10812e-05
6.48667e-07
1.10629e-05
6.91991e-07
1.1043e-05
7.38472e-07
1.1021e-05
7.86827e-07
1.09961e-05
8.3557e-07
1.09675e-05
8.82775e-07
9.26286e-07
1.09344e-05
1.18419e-05
2.06741e-07
1.18494e-05
2.2667e-07
1.18593e-05
2.50689e-07
1.18695e-05
2.81242e-07
1.18774e-05
3.19755e-07
1.18803e-05
3.66533e-07
1.18758e-05
4.20453e-07
1.1862e-05
4.7898e-07
1.18379e-05
5.38553e-07
1.18041e-05
5.95013e-07
1.1762e-05
6.44037e-07
1.17144e-05
6.81883e-07
1.16641e-05
7.06906e-07
1.16139e-05
7.18883e-07
1.15661e-05
7.18706e-07
1.15227e-05
7.08048e-07
1.14848e-05
6.89085e-07
1.1453e-05
6.64266e-07
1.14275e-05
6.3619e-07
1.14078e-05
6.07358e-07
1.13928e-05
5.79798e-07
1.13817e-05
5.5484e-07
1.13735e-05
5.33345e-07
1.13671e-05
5.16163e-07
1.13615e-05
5.03923e-07
1.13555e-05
4.96058e-07
1.13485e-05
4.9101e-07
1.13402e-05
4.88052e-07
1.13307e-05
4.86641e-07
1.13198e-05
4.86012e-07
1.13079e-05
4.85545e-07
1.12953e-05
4.84865e-07
1.12822e-05
4.83711e-07
1.12691e-05
4.82173e-07
1.12561e-05
4.80569e-07
1.12435e-05
4.79094e-07
1.12313e-05
4.78602e-07
1.12196e-05
4.79589e-07
1.12085e-05
4.82786e-07
1.11978e-05
4.88861e-07
1.11875e-05
4.98534e-07
1.11775e-05
5.12499e-07
1.11677e-05
5.31367e-07
1.11578e-05
5.5555e-07
1.11476e-05
5.85246e-07
1.11366e-05
6.20454e-07
1.11243e-05
6.60934e-07
1.11101e-05
7.0616e-07
1.10933e-05
7.55296e-07
1.1073e-05
8.07177e-07
1.10482e-05
8.60316e-07
1.10181e-05
9.12877e-07
9.62638e-07
1.09818e-05
1.18579e-05
2.01722e-07
1.18693e-05
2.1532e-07
1.18852e-05
2.34712e-07
1.19029e-05
2.63579e-07
1.19185e-05
3.04107e-07
1.1928e-05
3.5711e-07
1.19274e-05
4.21012e-07
1.19141e-05
4.92319e-07
1.18863e-05
5.6632e-07
1.18447e-05
6.36581e-07
1.1792e-05
6.96714e-07
1.17322e-05
7.41754e-07
1.16693e-05
7.6982e-07
1.16071e-05
7.8101e-07
1.1549e-05
7.76847e-07
1.14972e-05
7.59797e-07
1.14534e-05
7.32922e-07
1.14182e-05
6.99504e-07
1.13915e-05
6.62877e-07
1.13726e-05
6.26255e-07
1.13601e-05
5.92274e-07
1.13524e-05
5.62568e-07
1.13478e-05
5.37931e-07
1.1345e-05
5.18919e-07
1.13429e-05
5.06067e-07
1.13399e-05
4.99074e-07
1.13351e-05
4.958e-07
1.13283e-05
4.94861e-07
1.13194e-05
4.95529e-07
1.13087e-05
4.96684e-07
1.12967e-05
4.97578e-07
1.12838e-05
4.97754e-07
1.12705e-05
4.96991e-07
1.12574e-05
4.95273e-07
1.12448e-05
4.93193e-07
1.12331e-05
4.90767e-07
1.12225e-05
4.8919e-07
1.12132e-05
4.88894e-07
1.12052e-05
4.90866e-07
1.11982e-05
4.95772e-07
1.11924e-05
5.04356e-07
1.11875e-05
5.1744e-07
1.11831e-05
5.35774e-07
1.11788e-05
5.59834e-07
1.11741e-05
5.89897e-07
1.11685e-05
6.26097e-07
1.11611e-05
6.68346e-07
1.1151e-05
7.16259e-07
1.11372e-05
7.69132e-07
1.11184e-05
8.25924e-07
1.10935e-05
8.85213e-07
1.10612e-05
9.45143e-07
1.00336e-06
1.10205e-05
1.18703e-05
1.93044e-07
1.1877e-05
1.95062e-07
1.18939e-05
1.98412e-07
1.19185e-05
2.10133e-07
1.19467e-05
2.35384e-07
1.19733e-05
2.77424e-07
1.19923e-05
3.38142e-07
1.19981e-05
4.15174e-07
1.19865e-05
5.0395e-07
1.19544e-05
5.98461e-07
1.19024e-05
6.88547e-07
1.18351e-05
7.63983e-07
1.17587e-05
8.18197e-07
1.16792e-05
8.49336e-07
1.16018e-05
8.58389e-07
1.15307e-05
8.47952e-07
1.14689e-05
8.21577e-07
1.14183e-05
7.83527e-07
1.13795e-05
7.38271e-07
1.13522e-05
6.9017e-07
1.13352e-05
6.43341e-07
1.13263e-05
6.01094e-07
1.13235e-05
5.65388e-07
1.13243e-05
5.37117e-07
1.13266e-05
5.1669e-07
1.13284e-05
5.04226e-07
1.13287e-05
4.98763e-07
1.13267e-05
4.97776e-07
1.13216e-05
4.99988e-07
1.13133e-05
5.0383e-07
1.13024e-05
5.07628e-07
1.12895e-05
5.10454e-07
1.12755e-05
5.11743e-07
1.12612e-05
5.11277e-07
1.12474e-05
5.09132e-07
1.12346e-05
5.05967e-07
1.12234e-05
5.01972e-07
1.1214e-05
4.98522e-07
1.12069e-05
4.95994e-07
1.12019e-05
4.95942e-07
1.11989e-05
4.98761e-07
1.11978e-05
5.05428e-07
1.11981e-05
5.17167e-07
1.11992e-05
5.3464e-07
1.12008e-05
5.58276e-07
1.12021e-05
5.88561e-07
1.12023e-05
6.25865e-07
1.12004e-05
6.70281e-07
1.11951e-05
7.21595e-07
1.11849e-05
7.79257e-07
1.11685e-05
8.42398e-07
1.1144e-05
9.09722e-07
1.11097e-05
9.79385e-07
1.04885e-06
1.10642e-05
1.18931e-05
1.99652e-07
1.19021e-05
1.86037e-07
1.19269e-05
1.73645e-07
1.19641e-05
1.72966e-07
1.20083e-05
1.91163e-07
1.20514e-05
2.34275e-07
1.20838e-05
3.05796e-07
1.20994e-05
3.99542e-07
1.20906e-05
5.12802e-07
1.20516e-05
6.37458e-07
1.19854e-05
7.54678e-07
1.18986e-05
8.50849e-07
1.18e-05
9.16769e-07
1.16987e-05
9.50676e-07
1.16016e-05
9.55403e-07
1.15143e-05
9.35319e-07
1.14404e-05
8.95467e-07
1.13821e-05
8.41844e-07
1.13398e-05
7.80492e-07
1.13129e-05
7.17109e-07
1.12993e-05
6.5698e-07
1.12963e-05
6.04061e-07
1.1301e-05
5.60692e-07
1.13098e-05
5.28288e-07
1.13192e-05
5.07338e-07
1.13264e-05
4.97019e-07
1.13305e-05
4.94695e-07
1.13309e-05
4.9736e-07
1.13267e-05
5.04168e-07
1.13181e-05
5.12382e-07
1.13061e-05
5.19683e-07
1.12915e-05
5.25043e-07
1.12756e-05
5.27647e-07
1.12595e-05
5.2737e-07
1.12442e-05
5.24467e-07
1.12306e-05
5.19573e-07
1.12193e-05
5.13252e-07
1.12109e-05
5.06928e-07
1.12057e-05
5.01157e-07
1.12037e-05
4.97972e-07
1.12044e-05
4.98012e-07
1.12076e-05
5.02304e-07
1.12128e-05
5.11914e-07
1.12197e-05
5.27702e-07
1.12277e-05
5.50344e-07
1.12357e-05
5.80546e-07
1.12427e-05
6.18883e-07
1.12473e-05
6.65678e-07
1.12479e-05
7.20941e-07
1.12428e-05
7.84336e-07
1.123e-05
8.55232e-07
1.12072e-05
9.32494e-07
1.11721e-05
1.0145e-06
1.09865e-06
1.11223e-05
1.18604e-05
2.08378e-07
1.18727e-05
1.73686e-07
1.1905e-05
1.41326e-07
1.19575e-05
1.20525e-07
1.20242e-05
1.2445e-07
1.20942e-05
1.64279e-07
1.21564e-05
2.43608e-07
1.21909e-05
3.65063e-07
1.21862e-05
5.17488e-07
1.2142e-05
6.8165e-07
1.20594e-05
8.37217e-07
1.19498e-05
9.60536e-07
1.18266e-05
1.03993e-06
1.17016e-05
1.07571e-06
1.15835e-05
1.07343e-06
1.14793e-05
1.0396e-06
1.13936e-05
9.81157e-07
1.1329e-05
9.06422e-07
1.12857e-05
8.23794e-07
1.1262e-05
7.40809e-07
1.12553e-05
6.6367e-07
1.12623e-05
5.97112e-07
1.12777e-05
5.45203e-07
1.12962e-05
5.09807e-07
1.13143e-05
4.89265e-07
1.13297e-05
4.81639e-07
1.13397e-05
4.8469e-07
1.13427e-05
4.94366e-07
1.13396e-05
5.07234e-07
1.13309e-05
5.21055e-07
1.1317e-05
5.33611e-07
1.12997e-05
5.42361e-07
1.12811e-05
5.46261e-07
1.12627e-05
5.45741e-07
1.12457e-05
5.41507e-07
1.12311e-05
5.34156e-07
1.12197e-05
5.24671e-07
1.12123e-05
5.14265e-07
1.12089e-05
5.04547e-07
1.12095e-05
4.97443e-07
1.12142e-05
4.93283e-07
1.12227e-05
4.93799e-07
1.12341e-05
5.00509e-07
1.12479e-05
5.13938e-07
1.12632e-05
5.3499e-07
1.12791e-05
5.64707e-07
1.12941e-05
6.03891e-07
1.13065e-05
6.53195e-07
1.13148e-05
7.12676e-07
1.13168e-05
7.82385e-07
1.13096e-05
8.62342e-07
1.12906e-05
9.51495e-07
1.12564e-05
1.04876e-06
1.15168e-06
1.12033e-05
1.16537e-05
2.25766e-07
1.16709e-05
1.56479e-07
1.17258e-05
8.64291e-08
1.18116e-05
3.47211e-08
1.19165e-05
1.95852e-08
1.20205e-05
6.02545e-08
1.21023e-05
1.61817e-07
1.21474e-05
3.20033e-07
1.21442e-05
5.20602e-07
1.209e-05
7.3587e-07
1.19992e-05
9.28069e-07
1.18765e-05
1.08324e-06
1.1734e-05
1.18241e-06
1.15921e-05
1.2176e-06
1.14598e-05
1.20569e-06
1.13454e-05
1.15407e-06
1.12548e-05
1.07171e-06
1.1191e-05
9.7024e-07
1.11537e-05
8.61076e-07
1.11409e-05
7.53616e-07
1.11489e-05
6.55709e-07
1.11721e-05
5.73844e-07
1.12045e-05
5.128e-07
1.12402e-05
4.74097e-07
1.12737e-05
4.55757e-07
1.13006e-05
4.54757e-07
1.13179e-05
4.67452e-07
1.13244e-05
4.87844e-07
1.13214e-05
5.10179e-07
1.13111e-05
5.3141e-07
1.12953e-05
5.49416e-07
1.12762e-05
5.61434e-07
1.12562e-05
5.66229e-07
1.12369e-05
5.65082e-07
1.12196e-05
5.588e-07
1.12057e-05
5.48105e-07
1.1196e-05
5.34378e-07
1.11914e-05
5.18845e-07
1.11919e-05
5.03982e-07
1.11978e-05
4.91533e-07
1.12082e-05
4.82972e-07
1.12226e-05
4.79351e-07
1.12414e-05
4.8175e-07
1.12637e-05
4.91609e-07
1.12887e-05
5.10024e-07
1.1315e-05
5.38384e-07
1.1341e-05
5.77889e-07
1.1365e-05
6.29155e-07
1.1385e-05
6.92677e-07
1.13979e-05
7.69538e-07
1.1401e-05
8.59176e-07
1.13914e-05
9.6117e-07
1.13628e-05
1.07729e-06
1.20439e-06
1.13101e-05
1.10056e-05
2.60244e-07
1.1007e-05
1.55077e-07
1.10563e-05
3.71445e-08
1.11512e-05
-6.01937e-08
1.12779e-05
-1.07088e-07
1.14232e-05
-8.50387e-08
1.15655e-05
1.95067e-08
1.16749e-05
2.10634e-07
1.1723e-05
4.72514e-07
1.16944e-05
7.64485e-07
1.16054e-05
1.017e-06
1.1478e-05
1.2107e-06
1.13353e-05
1.32512e-06
1.12027e-05
1.35014e-06
1.10791e-05
1.3293e-06
1.09747e-05
1.25852e-06
1.08974e-05
1.14893e-06
1.08504e-05
1.01729e-06
1.08335e-05
8.78012e-07
1.08447e-05
7.42375e-07
1.08789e-05
6.21546e-07
1.09289e-05
5.23791e-07
1.09875e-05
4.54202e-07
1.10478e-05
4.13817e-07
1.11036e-05
3.99968e-07
1.11503e-05
4.08072e-07
1.11839e-05
4.33857e-07
1.12023e-05
4.69437e-07
1.12068e-05
5.0569e-07
1.12002e-05
5.37981e-07
1.11855e-05
5.64137e-07
1.11667e-05
5.80217e-07
1.1148e-05
5.84945e-07
1.11302e-05
5.82871e-07
1.11148e-05
5.74137e-07
1.11038e-05
5.59163e-07
1.10982e-05
5.39918e-07
1.10986e-05
5.18503e-07
1.11052e-05
4.9731e-07
1.11186e-05
4.78227e-07
1.11384e-05
4.63137e-07
1.1164e-05
4.53704e-07
1.11945e-05
4.51275e-07
1.12286e-05
4.57538e-07
1.12647e-05
4.73876e-07
1.13022e-05
5.00939e-07
1.13405e-05
5.39615e-07
1.13784e-05
5.9123e-07
1.14136e-05
6.57447e-07
1.14438e-05
7.39315e-07
1.14642e-05
8.38765e-07
1.14686e-05
9.56761e-07
1.14537e-05
1.09227e-06
1.24776e-06
1.14103e-05
9.36902e-06
2.97195e-07
9.36636e-06
1.57736e-07
9.38674e-06
1.67679e-08
9.45403e-06
-1.27482e-07
9.56075e-06
-2.13812e-07
9.70728e-06
-2.31565e-07
9.87913e-06
-1.52341e-07
1.00486e-05
4.11949e-08
1.01812e-05
3.39856e-07
1.02498e-05
6.95923e-07
1.02492e-05
1.01756e-06
1.02067e-05
1.25321e-06
1.01485e-05
1.38332e-06
1.00926e-05
1.40609e-06
1.00471e-05
1.37475e-06
1.00146e-05
1.29102e-06
1.00037e-05
1.15987e-06
1.00167e-05
1.00428e-06
1.00549e-05
8.3981e-07
1.01173e-05
6.79953e-07
1.01992e-05
5.3967e-07