/*--------------------------------*- C++ -*----------------------------------*\
| =========                 |                                                 |
| \\      /  F ield         | OpenFOAM: The Open Source CFD Toolbox           |
|  \\    /   O peration     | Version:  2206                                  |
|   \\  /    A nd           | Website:  www.openfoam.com                      |
|    \\/     M anipulation  |                                                 |
\*---------------------------------------------------------------------------*/
FoamFile
{
    version     2.0;
    format      ascii;
    arch        "LSB;label=32;scalar=64";
    class       surfaceScalarField;
    location    "18.6999";
    object      phi;
}
// * * * * * * * * * * * * * * * * * * * * * * * * * * * * * * * * * * * * * //

dimensions      [0 3 -1 0 0 0 0];

oriented        oriented;

internalField   nonuniform List<scalar> 
3488
(
5.39088e-06
4.37365e-07
-2.88767e-07
5.25953e-06
4.54528e-07
-3.23182e-07
5.14701e-06
4.45999e-07
-3.33472e-07
5.05669e-06
4.05778e-07
-3.15465e-07
4.99236e-06
3.32024e-07
-2.67692e-07
4.95629e-06
2.27604e-07
-1.91535e-07
4.9497e-06
9.90809e-08
-9.24878e-08
4.97227e-06
-4.51885e-08
2.26176e-08
5.02239e-06
-1.964e-07
1.46277e-07
5.09717e-06
-3.44828e-07
2.7005e-07
5.19303e-06
-4.81689e-07
3.85833e-07
5.30637e-06
-6.00162e-07
4.86816e-07
5.43389e-06
-6.95269e-07
5.67748e-07
5.57265e-06
-7.63452e-07
6.24699e-07
5.72014e-06
-8.02673e-07
6.55179e-07
5.87438e-06
-8.12317e-07
6.58082e-07
6.0337e-06
-7.92682e-07
6.33363e-07
6.19667e-06
-7.44464e-07
5.81494e-07
6.36143e-06
-6.69417e-07
5.04654e-07
6.52473e-06
-5.69941e-07
4.06639e-07
6.67899e-06
-4.4975e-07
2.95493e-07
6.81546e-06
-3.16653e-07
1.80182e-07
6.92548e-06
-1.7914e-07
6.91167e-08
7.00192e-06
-4.76294e-08
-2.88086e-08
7.04239e-06
7.0898e-08
-1.1137e-07
7.04039e-06
1.71591e-07
-1.69588e-07
6.99284e-06
2.52888e-07
-2.05338e-07
6.89922e-06
3.10076e-07
-2.16458e-07
6.76667e-06
3.40284e-07
-2.07733e-07
6.60839e-06
3.45198e-07
-1.86922e-07
6.43965e-06
3.32263e-07
-1.63523e-07
6.27325e-06
3.11803e-07
-1.45402e-07
6.11748e-06
2.92562e-07
-1.36787e-07
5.97692e-06
2.79066e-07
-1.38505e-07
5.85366e-06
2.71471e-07
-1.48216e-07
5.7479e-06
2.67132e-07
-1.61374e-07
5.65861e-06
2.6176e-07
-1.72469e-07
5.5843e-06
2.50589e-07
-1.76281e-07
5.52398e-06
2.28977e-07
-1.6865e-07
5.47779e-06
1.927e-07
-1.46509e-07
5.44614e-06
1.40146e-07
-1.08495e-07
5.42927e-06
7.16087e-08
-5.47452e-08
5.42754e-06
-1.10971e-08
1.28249e-08
5.44094e-06
-1.04493e-07
9.10938e-08
5.46908e-06
-2.03612e-07
1.75472e-07
5.51057e-06
-3.02211e-07
2.60728e-07
5.56343e-06
-3.94325e-07
3.41462e-07
5.62581e-06
-4.75684e-07
4.13301e-07
5.69599e-06
-5.43096e-07
4.72919e-07
5.77237e-06
-5.9434e-07
5.17958e-07
5.85346e-06
-6.28083e-07
5.46991e-07
5.93786e-06
-6.43698e-07
5.59308e-07
6.0243e-06
-6.41016e-07
5.54568e-07
6.11168e-06
-6.20119e-07
5.3274e-07
6.19884e-06
-5.81499e-07
4.94345e-07
6.28448e-06
-5.26566e-07
4.40925e-07
6.36631e-06
-4.57431e-07
3.756e-07
6.44078e-06
-3.76883e-07
3.02414e-07
6.50379e-06
-2.88951e-07
2.25938e-07
6.55195e-06
-1.98088e-07
1.49928e-07
6.58275e-06
-1.08291e-07
7.74969e-08
6.59443e-06
-2.29105e-08
1.12246e-08
6.58546e-06
5.51263e-08
-4.61553e-08
6.55465e-06
1.23151e-07
-9.2345e-08
6.50321e-06
1.78289e-07
-1.26842e-07
6.43463e-06
2.1931e-07
-1.50732e-07
6.35447e-06
2.46324e-07
-1.66164e-07
6.26924e-06
2.60748e-07
-1.75521e-07
6.18494e-06
2.64909e-07
-1.80604e-07
6.1057e-06
2.61256e-07
-1.82016e-07
6.03393e-06
2.51176e-07
-1.79408e-07
5.97108e-06
2.3464e-07
-1.71786e-07
5.91797e-06
2.11002e-07
-1.57893e-07
5.8752e-06
1.7925e-07
-1.36484e-07
5.84325e-06
1.38458e-07
-1.06508e-07
5.82211e-06
8.88126e-08
-6.76743e-08
5.81161e-06
3.10676e-08
-2.05678e-08
5.81137e-06
-3.34086e-08
3.36548e-08
5.82089e-06
-1.02328e-07
9.28002e-08
5.83921e-06
-1.72061e-07
1.5375e-07
5.86496e-06
-2.38495e-07
2.1274e-07
5.89689e-06
-2.98442e-07
2.66515e-07
5.93361e-06
-3.49378e-07
3.12653e-07
5.97383e-06
-3.89586e-07
3.49365e-07
6.01651e-06
-4.1815e-07
3.7548e-07
6.06085e-06
-4.34737e-07
3.90388e-07
6.10614e-06
-4.39226e-07
3.93945e-07
6.15154e-06
-4.31667e-07
3.86266e-07
6.19622e-06
-4.12243e-07
3.67563e-07
6.23934e-06
-3.81535e-07
3.38413e-07
6.28019e-06
-3.40746e-07
2.99898e-07
6.31807e-06
-2.91316e-07
2.53439e-07
6.35191e-06
-2.34825e-07
2.00976e-07
6.38027e-06
-1.73094e-07
1.44742e-07
6.40164e-06
-1.08512e-07
8.71341e-08
6.41506e-06
-4.37026e-08
3.02837e-08
6.41983e-06
1.90817e-08
-2.38531e-08
6.41563e-06
7.77788e-08
-7.35769e-08
6.40241e-06
1.30532e-07
-1.17313e-07
6.3804e-06
1.75777e-07
-1.53762e-07
6.3504e-06
2.12176e-07
-1.82175e-07
6.3141e-06
2.38767e-07
-2.0247e-07
6.27367e-06
2.5531e-07
-2.14882e-07
6.23131e-06
2.62367e-07
-2.20003e-07
6.18903e-06
2.60798e-07
-2.18524e-07
6.14859e-06
2.51259e-07
-2.10812e-07
6.11159e-06
2.33867e-07
-1.96869e-07
6.07941e-06
2.08856e-07
-1.76676e-07
6.05299e-06
1.76732e-07
-1.50318e-07
6.03293e-06
1.38087e-07
-1.18024e-07
6.0196e-06
9.36972e-08
-8.03613e-08
6.01322e-06
4.45844e-08
-3.82124e-08
6.01388e-06
-7.78733e-09
7.1355e-09
6.02113e-06
-6.10479e-08
5.37896e-08
6.03425e-06
-1.12368e-07
9.92505e-08
6.05232e-06
-1.59435e-07
1.4137e-07
6.07422e-06
-2.00236e-07
1.78329e-07
6.0988e-06
-2.33285e-07
2.08704e-07
6.12501e-06
-2.57764e-07
2.31554e-07
6.1521e-06
-2.73504e-07
2.46421e-07
-2.80715e-07
2.5322e-07
5.69352e-06
5.90689e-07
5.56572e-06
5.82328e-07
5.46235e-06
5.49376e-07
5.38423e-06
4.83899e-07
5.33212e-06
3.84126e-07
5.30662e-06
2.53104e-07
5.30816e-06
9.75404e-08
5.3363e-06
-7.33264e-08
5.38934e-06
-2.49435e-07
5.46389e-06
-4.19379e-07
5.55634e-06
-5.7414e-07
5.66316e-06
-7.06984e-07
5.7808e-06
-8.12913e-07
5.90628e-06
-8.88933e-07
6.03723e-06
-9.33614e-07
6.17151e-06
-9.46601e-07
6.30727e-06
-9.28445e-07
6.44339e-06
-8.80581e-07
6.57934e-06
-8.05367e-07
6.71499e-06
-7.05585e-07
6.84914e-06
-5.83903e-07
6.97681e-06
-4.44324e-07
7.09132e-06
-2.93649e-07
7.18547e-06
-1.41781e-07
7.25384e-06
2.52421e-09
7.29217e-06
1.33267e-07
7.29594e-06
2.49111e-07
7.25888e-06
3.47143e-07
7.17943e-06
4.19726e-07
7.06192e-06
4.62715e-07
6.91572e-06
4.7846e-07
6.75267e-06
4.74857e-07
6.58652e-06
4.58709e-07
6.42862e-06
4.36971e-07
6.28609e-06
4.13995e-07
6.16293e-06
3.90294e-07
6.06039e-06
3.64296e-07
5.97796e-06
3.33025e-07
5.91471e-06
2.92223e-07
5.8698e-06
2.37613e-07
5.84203e-06
1.67916e-07
5.83026e-06
8.33733e-08
5.83349e-06
-1.43235e-08
5.85081e-06
-1.21816e-07
5.88103e-06
-2.33828e-07
5.92213e-06
-3.43311e-07
5.97227e-06
-4.44461e-07
6.02957e-06
-5.32985e-07
6.09216e-06
-6.05691e-07
6.15849e-06
-6.60671e-07
6.22749e-06
-6.97083e-07
6.29837e-06
-7.14572e-07
6.37013e-06
-7.12781e-07
6.44153e-06
-6.91516e-07
6.51127e-06
-6.51238e-07
6.57846e-06
-5.93752e-07
6.64242e-06
-5.2139e-07
6.70215e-06
-4.36615e-07
6.7556e-06
-3.424e-07
6.80026e-06
-2.42752e-07
6.83396e-06
-1.41992e-07
6.85486e-06
-4.38075e-08
6.86132e-06
4.86601e-08
6.85209e-06
1.32383e-07
6.82585e-06
2.04529e-07
6.7825e-06
2.62662e-07
6.72429e-06
3.04529e-07
6.65504e-06
3.29999e-07
6.58012e-06
3.39835e-07
6.50518e-06
3.36193e-07
6.43459e-06
3.21765e-07
6.37146e-06
2.97769e-07
6.31784e-06
2.6463e-07
6.27491e-06
2.22174e-07
6.24312e-06
1.70252e-07
6.22232e-06
1.09606e-07
6.21208e-06
4.13096e-08
6.21179e-06
-3.31127e-08
6.22051e-06
-1.11054e-07
6.23681e-06
-1.88363e-07
6.25941e-06
-2.61092e-07
6.28697e-06
-3.25999e-07
6.31801e-06
-3.80418e-07
6.35115e-06
-4.22726e-07
6.38536e-06
-4.52364e-07
6.4202e-06
-4.69577e-07
6.45556e-06
-4.74585e-07
6.49107e-06
-4.67177e-07
6.52588e-06
-4.47051e-07
6.55908e-06
-4.1474e-07
6.58995e-06
-3.71617e-07
6.61792e-06
-3.19281e-07
6.64249e-06
-2.59399e-07
6.66312e-06
-1.93718e-07
6.67892e-06
-1.24315e-07
6.68925e-06
-5.40315e-08
6.69373e-06
1.46008e-08
6.69212e-06
7.93924e-08
6.68435e-06
1.38295e-07
6.67063e-06
1.89498e-07
6.65139e-06
2.3142e-07
6.62718e-06
2.62974e-07
6.59883e-06
2.83657e-07
6.56757e-06
2.93627e-07
6.53484e-06
2.93532e-07
6.50214e-06
2.83955e-07
6.47165e-06
2.64362e-07
6.44489e-06
2.35619e-07
6.42289e-06
1.98723e-07
6.40638e-06
1.54606e-07
6.39574e-06
1.0433e-07
6.39121e-06
4.91174e-08
6.39274e-06
-9.31417e-09
6.39971e-06
-6.80188e-08
6.41137e-06
-1.24029e-07
6.42678e-06
-1.7485e-07
6.44484e-06
-2.18291e-07
6.46434e-06
-2.52787e-07
6.48423e-06
-2.77649e-07
6.50384e-06
-2.93115e-07
-3.00016e-07
6.02295e-06
7.38838e-07
5.90386e-06
7.01411e-07
5.81277e-06
6.40465e-07
5.74843e-06
5.48247e-07
5.7099e-06
4.22656e-07
5.69641e-06
2.66594e-07
5.70732e-06
8.66234e-08
5.74181e-06
-1.07809e-07
5.79687e-06
-3.04498e-07
5.86884e-06
-4.91352e-07
5.95405e-06
-6.59348e-07
6.04884e-06
-8.01779e-07
6.14979e-06
-9.13862e-07
6.25447e-06
-9.93606e-07
6.36154e-06
-1.04069e-06
6.47007e-06
-1.05513e-06
6.57843e-06
-1.03681e-06
6.68524e-06
-9.87392e-07
6.79033e-06
-9.10457e-07
6.8942e-06
-8.09449e-07
6.99732e-06
-6.87024e-07
7.099e-06
-5.46005e-07
7.19565e-06
-3.90297e-07
7.28108e-06
-2.27212e-07
7.34878e-06
-6.51826e-08
7.39307e-06
8.89866e-08
7.41365e-06
2.28527e-07
7.41156e-06
3.49231e-07
7.38163e-06
4.49653e-07
7.31734e-06
5.27012e-07
7.21935e-06
5.76449e-07
7.09559e-06
5.98618e-07
6.95671e-06
5.97586e-07
6.81459e-06
5.79089e-07
6.67954e-06
5.49051e-07
6.55836e-06
5.11473e-07
6.45496e-06
4.67691e-07
6.37117e-06
4.16812e-07
6.30763e-06
3.55766e-07
6.26355e-06
2.81694e-07
6.23745e-06
1.94017e-07
6.22766e-06
9.31604e-08
6.23261e-06
-1.92699e-08
6.25075e-06
-1.39954e-07
6.27993e-06
-2.63011e-07
6.31786e-06
-3.81245e-07
6.36269e-06
-4.89291e-07
6.41234e-06
-5.82631e-07
6.46475e-06
-6.58107e-07
6.51833e-06
-7.14248e-07
6.57226e-06
-7.5101e-07
6.62661e-06
-7.68921e-07
6.6815e-06
-7.67675e-07
6.73556e-06
-7.45575e-07
6.78738e-06
-7.0306e-07
6.8363e-06
-6.42676e-07
6.88197e-06
-5.67059e-07
6.92405e-06
-4.78696e-07
6.96208e-06
-3.80431e-07
6.99508e-06
-2.75752e-07
7.02182e-06
-1.68724e-07
7.04143e-06
-6.34259e-08
7.05226e-06
3.78326e-08
7.05317e-06
1.31477e-07
7.04349e-06
2.14211e-07
7.02272e-06
2.83432e-07
6.99089e-06
3.36357e-07
6.94861e-06
3.72281e-07
6.8986e-06
3.89841e-07
6.84394e-06
3.90852e-07
6.78732e-06
3.78387e-07
6.7334e-06
3.51686e-07
6.68577e-06
3.12261e-07
6.64656e-06
2.61385e-07
6.61661e-06
2.00205e-07
6.5961e-06
1.3011e-07
6.58481e-06
5.25998e-08
6.58214e-06
-3.04388e-08
6.58687e-06
-1.15784e-07
6.5976e-06
-1.99101e-07
6.61327e-06
-2.76753e-07
6.6327e-06
-3.45437e-07
6.65465e-06
-4.02363e-07
6.67779e-06
-4.45868e-07
6.701e-06
-4.75579e-07
6.72386e-06
-4.92429e-07
6.74703e-06
-4.97753e-07
6.77129e-06
-4.91441e-07
6.79534e-06
-4.71097e-07
6.81829e-06
-4.37696e-07
6.8395e-06
-3.92824e-07
6.85841e-06
-3.38196e-07
6.87459e-06
-2.75574e-07
6.88765e-06
-2.06777e-07
6.89723e-06
-1.33893e-07
6.90305e-06
-5.98587e-08
6.90514e-06
1.25179e-08
6.90351e-06
8.10193e-08
6.8982e-06
1.43607e-07
6.88929e-06
1.984e-07
6.87731e-06
2.43405e-07
6.86313e-06
2.77155e-07
6.84749e-06
2.99299e-07
6.83052e-06
3.10588e-07
6.81195e-06
3.12103e-07
6.79134e-06
3.04571e-07
6.77163e-06
2.84073e-07
6.75403e-06
2.53217e-07
6.73954e-06
2.13209e-07
6.72885e-06
1.65296e-07
6.72236e-06
1.10821e-07
6.72022e-06
5.12553e-08
6.72213e-06
-1.12266e-08
6.72728e-06
-7.31687e-08
6.73501e-06
-1.31759e-07
6.74468e-06
-1.8452e-07
6.75564e-06
-2.29245e-07
6.76712e-06
-2.64265e-07
6.77829e-06
-2.88822e-07
6.78851e-06
-3.03331e-07
-3.09274e-07
6.3503e-06
8.69199e-07
6.24819e-06
8.03516e-07
6.17399e-06
7.14666e-07
6.12608e-06
5.96158e-07
6.10257e-06
4.46163e-07
6.10174e-06
2.6743e-07
6.12205e-06
6.63117e-08
6.16113e-06
-1.46889e-07
6.21521e-06
-3.58583e-07
6.28095e-06
-5.57083e-07
6.35501e-06
-7.33409e-07
6.43386e-06
-8.80631e-07
6.51398e-06
-9.93986e-07
6.59291e-06
-1.07254e-06
6.66983e-06
-1.11761e-06
6.74578e-06
-1.13108e-06
6.82053e-06
-1.11155e-06
6.8923e-06
-1.05917e-06
6.96236e-06
-9.80516e-07
7.0322e-06
-8.79291e-07
7.10294e-06
-7.57762e-07
7.17484e-06
-6.17903e-07
7.24655e-06
-4.62008e-07
7.3134e-06
-2.94063e-07
7.36936e-06
-1.21144e-07
7.41097e-06
4.73833e-08
7.43593e-06
2.03562e-07
7.44375e-06
3.41416e-07
7.43436e-06
4.59039e-07
7.40477e-06
5.566e-07
7.35191e-06
6.29308e-07
7.27673e-06
6.73799e-07
7.18321e-06
6.91105e-07
7.07872e-06
6.83587e-07
6.97204e-06
6.55727e-07
6.87173e-06
6.1178e-07
6.78347e-06
5.55957e-07
6.71093e-06
4.89355e-07
6.65612e-06
4.10572e-07
6.61879e-06
3.19025e-07
6.5977e-06
2.15104e-07
6.59133e-06
9.95303e-08
6.59806e-06
-2.59988e-08
6.61584e-06
-1.57732e-07
6.64188e-06
-2.89056e-07
6.67404e-06
-4.13402e-07
6.71053e-06
-5.25785e-07
6.74949e-06
-6.21584e-07
6.78912e-06
-6.9774e-07
6.82771e-06
-7.52838e-07
6.86422e-06
-7.87522e-07
6.89887e-06
-8.03572e-07
6.93444e-06
-8.03238e-07
6.96907e-06
-7.80211e-07
7.00112e-06
-7.35108e-07
7.03057e-06
-6.72128e-07
7.05738e-06
-5.9387e-07
7.08173e-06
-5.03048e-07
7.10376e-06
-4.02459e-07
7.12285e-06
-2.9484e-07
7.1378e-06
-1.83676e-07
7.1482e-06
-7.38222e-08
7.15417e-06
3.18659e-08
7.15583e-06
1.29813e-07
7.15345e-06
2.16586e-07
7.14726e-06
2.89628e-07
7.1373e-06
3.46318e-07
7.12354e-06
3.86039e-07
7.10448e-06
4.08903e-07
7.07879e-06
4.16539e-07
7.04543e-06
4.1175e-07
7.00981e-06
3.87298e-07
6.97578e-06
3.46294e-07
6.94584e-06
2.91326e-07
6.92157e-06
2.24477e-07
6.90363e-06
1.48054e-07
6.8922e-06
6.40214e-08
6.88682e-06
-2.50523e-08
6.88615e-06
-1.15117e-07
6.88914e-06
-2.02092e-07
6.89508e-06
-2.82689e-07
6.90346e-06
-3.53818e-07
6.91376e-06
-4.12665e-07
6.92524e-06
-4.57347e-07
6.93676e-06
-4.87093e-07
6.94746e-06
-5.03132e-07
6.95806e-06
-5.0836e-07
6.97118e-06
-5.04554e-07
6.98456e-06
-4.84474e-07
6.99726e-06
-4.50405e-07
7.00886e-06
-4.04416e-07
7.01895e-06
-3.48288e-07
7.02717e-06
-2.83792e-07
7.03319e-06
-2.12803e-07
7.03688e-06
-1.37581e-07
7.03825e-06
-6.12334e-08
7.03759e-06
1.31814e-08
7.0353e-06
8.33144e-08
7.03164e-06
1.47267e-07
7.02674e-06
2.03297e-07
7.02096e-06
2.49185e-07
7.01496e-06
2.8315e-07
7.00953e-06
3.04734e-07
7.00479e-06
3.15326e-07
6.9995e-06
3.17397e-07
6.99248e-06
3.11585e-07
6.98556e-06
2.90997e-07
6.97925e-06
2.59525e-07
6.9741e-06
2.18364e-07
6.97042e-06
1.68974e-07
6.9683e-06
1.1294e-07
6.96757e-06
5.19888e-08
6.9677e-06
-1.1357e-08
6.96808e-06
-7.35514e-08
6.96852e-06
-1.322e-07
6.96908e-06
-1.85081e-07
6.96997e-06
-2.30129e-07
6.97132e-06
-2.65625e-07
6.97306e-06
-2.9056e-07
6.97471e-06
-3.04973e-07
-3.10645e-07
6.63693e-06
6.56285e-06
6.51367e-06
6.48776e-06
6.4831e-06
6.4975e-06
6.52851e-06
6.57191e-06
6.62351e-06
6.67987e-06
6.7383e-06
6.79591e-06
6.85004e-06
6.89851e-06
6.94022e-06
6.97836e-06
7.01347e-06
7.04444e-06
7.07475e-06
7.10787e-06
7.14557e-06
7.18793e-06
7.2343e-06
7.28246e-06
7.3278e-06
7.36561e-06
7.39228e-06
7.40493e-06
7.40316e-06
7.39041e-06
7.36681e-06
7.33062e-06
7.28197e-06
7.22201e-06
7.15368e-06
7.08487e-06
7.02182e-06
6.96967e-06
6.93105e-06
6.90606e-06
6.89405e-06
6.89383e-06
6.90383e-06
6.92126e-06
6.9432e-06
6.9676e-06
6.99276e-06
7.01757e-06
7.0413e-06
7.06272e-06
7.08141e-06
7.09748e-06
7.11271e-06
7.12457e-06
7.13336e-06
7.14013e-06
7.14584e-06
7.15148e-06
7.15778e-06
7.16446e-06
7.16983e-06
7.17244e-06
7.17303e-06
7.17228e-06
7.17051e-06
7.16794e-06
7.16425e-06
7.16066e-06
7.15764e-06
7.15433e-06
7.14803e-06
7.13997e-06
7.1308e-06
7.12081e-06
7.11071e-06
7.10152e-06
7.09375e-06
7.08753e-06
7.08239e-06
7.07803e-06
7.07437e-06
7.07168e-06
7.07035e-06
7.07061e-06
7.07207e-06
7.07375e-06
7.07522e-06
7.07831e-06
7.08126e-06
7.08358e-06
7.08531e-06
7.08642e-06
7.08695e-06
7.08687e-06
7.08606e-06
7.08423e-06
7.08117e-06
7.07683e-06
7.07179e-06
7.06718e-06
7.0639e-06
7.06222e-06
7.06195e-06
7.06285e-06
7.06425e-06
7.06688e-06
7.06959e-06
7.0722e-06
7.07443e-06
7.07601e-06
7.07663e-06
7.07596e-06
7.07383e-06
7.07043e-06
7.06614e-06
7.0614e-06
7.05671e-06
7.05257e-06
7.04934e-06
7.0471e-06
-3.09325e-07
-3.46845e-07
-6.31016e-09
-3.42464e-07
-4.38066e-09
-3.41241e-07
-1.22317e-09
-3.43406e-07
2.16535e-09
-3.48281e-07
4.87477e-09
-3.54835e-07
6.55418e-09
-3.61546e-07
6.71041e-09
-3.66792e-07
5.24597e-09
-3.69291e-07
2.49967e-09
-3.67806e-07
-1.48509e-09
-3.61402e-07
-6.40432e-09
-3.49859e-07
-1.15425e-08
-3.33482e-07
-1.63772e-08
-3.1338e-07
-2.01024e-08
-2.90994e-07
-2.23852e-08
-2.67994e-07
-2.30003e-08
-2.46126e-07
-2.18685e-08
-2.26854e-07
-1.92715e-08
-2.11406e-07
-1.54486e-08
-2.0056e-07
-1.08455e-08
-1.94506e-07
-6.05428e-09
-1.93021e-07
-1.48489e-09
-1.95119e-07
2.09771e-09
-2.0008e-07
4.961e-09
-2.06817e-07
6.73701e-09
-2.14296e-07
7.47954e-09
-2.21622e-07
7.3257e-09
-2.28205e-07
6.5836e-09
-2.33754e-07
5.54817e-09
-2.38291e-07
4.53712e-09
-2.42098e-07
3.80724e-09
-2.45546e-07
3.44837e-09
-2.49045e-07
3.49858e-09
-2.52914e-07
3.86934e-09
-2.57353e-07
4.43846e-09
-2.623e-07
4.94709e-09
-2.67504e-07
5.20408e-09
-2.72493e-07
4.9892e-09
-2.76707e-07
4.21399e-09
-2.79382e-07
2.67532e-09
-2.79907e-07
5.25066e-10
-2.78053e-07
-1.85469e-09
-2.73111e-07
-4.94193e-09
-2.6489e-07
-8.22022e-09
-2.53436e-07
-1.14545e-08
-2.38978e-07
-1.44581e-08
-2.21997e-07
-1.69804e-08
-2.02964e-07
-1.90338e-08
-1.82668e-07
-2.02957e-08
-1.61804e-07
-2.08635e-08
-1.41082e-07
-2.07223e-08
-1.2111e-07
-1.99719e-08
-1.02413e-07
-1.86972e-08
-8.54501e-08
-1.69629e-08
-7.04472e-08
-1.50029e-08
-5.75505e-08
-1.28966e-08
-4.67839e-08
-1.07667e-08
-3.8025e-08
-8.75882e-09
-3.11148e-08
-6.91023e-09
-2.58375e-08
-5.27731e-09
-2.19743e-08
-3.86312e-09
-1.931e-08
-2.66437e-09
-1.7659e-08
-1.651e-09
-1.68335e-08
-8.25448e-10
-1.66679e-08
-1.65593e-10
-1.69999e-08
3.31961e-10
-1.76551e-08
6.5518e-10
-1.8449e-08
7.93947e-10
-1.91447e-08
6.95708e-10
-1.94118e-08
2.67115e-10
-1.91097e-08
-3.02123e-10
-1.79528e-08
-1.15684e-09
-1.55787e-08
-2.37409e-09
-1.15797e-08
-3.999e-09
-5.6523e-09
-5.92742e-09
2.50503e-09
-8.15733e-09
1.28693e-08
-1.03643e-08
2.58286e-08
-1.29592e-08
4.13921e-08
-1.55635e-08
5.9436e-08
-1.80439e-08
7.97144e-08
-2.02784e-08
1.0187e-07
-2.2156e-08
1.25451e-07
-2.35803e-08
1.49929e-07
-2.44787e-08
1.74736e-07
-2.48063e-08
1.9928e-07
-2.45446e-08
2.22981e-07
-2.37007e-08
2.45296e-07
-2.23152e-08
2.65739e-07
-2.04425e-08
2.83905e-07
-1.81665e-08
2.99471e-07
-1.55663e-08
3.12195e-07
-1.27233e-08
3.2192e-07
-9.7252e-09
3.28593e-07
-6.67274e-09
3.32169e-07
-3.57595e-09
3.32717e-07
-5.48505e-10
3.30686e-07
2.03165e-09
3.2603e-07
4.65594e-09
3.19022e-07
7.00731e-09
3.09977e-07
9.04572e-09
2.99246e-07
1.07302e-08
2.87213e-07
1.20334e-08
2.74294e-07
1.29188e-08
2.60939e-07
1.33553e-08
2.47618e-07
1.33214e-08
2.34809e-07
1.28081e-08
2.22993e-07
1.18161e-08
2.12631e-07
1.03627e-08
2.0415e-07
8.48015e-09
1.97947e-07
6.20396e-09
1.94292e-07
3.65496e-09
1.93424e-07
8.67399e-10
1.94984e-07
-1.56014e-09
1.99236e-07
-4.25173e-09
2.06073e-07
-6.83707e-09
2.15281e-07
-9.20744e-09
2.26564e-07
-1.12832e-08
2.39569e-07
-1.30049e-08
2.53899e-07
-1.43303e-08
2.69135e-07
-1.52363e-08
-4.42662e-07
-1.52996e-08
-4.35887e-07
-1.11564e-08
-4.32268e-07
-4.84177e-09
-4.31854e-07
1.75136e-09
-4.33747e-07
6.76786e-09
-4.36822e-07
9.62935e-09
-4.39427e-07
9.31476e-09
-4.40062e-07
5.88165e-09
-4.37638e-07
7.56192e-11
-4.30736e-07
-8.38711e-09
-4.18549e-07
-1.85921e-08
-4.01207e-07
-2.88843e-08
-3.78764e-07
-3.88199e-08
-3.52801e-07
-4.60653e-08
-3.24752e-07
-5.04343e-08
-2.96385e-07
-5.13675e-08
-2.69405e-07
-4.88486e-08
-2.45435e-07
-4.32411e-08
-2.25508e-07
-3.53756e-08
-2.10354e-07
-2.5999e-08
-2.00106e-07
-1.63031e-08
-1.94349e-07
-7.2411e-09
-1.92368e-07
1.16338e-10
-1.93176e-07
5.76889e-09
-1.95464e-07
9.02484e-09
-1.97919e-07
9.93465e-09
-1.99458e-07
8.86515e-09
-1.99485e-07
6.61022e-09
-1.97752e-07
3.8153e-09
-1.94355e-07
1.13962e-09
-1.89777e-07
-7.70508e-10
-1.84631e-07
-1.69765e-09
-1.79398e-07
-1.73454e-09
-1.74486e-07
-1.0419e-09
-1.70124e-07
7.63687e-11
-1.66265e-07
1.08802e-09
-1.62597e-07
1.53589e-09
-1.58576e-07
9.68026e-10
-1.53804e-07
-5.57928e-10
-1.47495e-07
-3.63401e-09
-1.38984e-07
-7.98516e-09
-1.27491e-07
-1.3348e-08
-1.12905e-07
-1.95275e-08
-9.50539e-08
-2.60717e-08
-7.39821e-08
-3.25263e-08
-4.99884e-08
-3.84518e-08
-2.34337e-08
-4.35351e-08
4.89675e-09
-4.73642e-08
3.45351e-08
-4.99341e-08
6.47252e-08
-5.10536e-08
9.47732e-08
-5.07704e-08
1.24036e-07
-4.9235e-08
1.51989e-07
-4.66497e-08
1.7828e-07
-4.32538e-08
2.0259e-07
-3.93135e-08
2.24812e-07
-3.51181e-08
2.44976e-07
-3.09303e-08
2.63159e-07
-2.69426e-08
2.79553e-07
-2.33036e-08
2.94384e-07
-2.0109e-08
3.07911e-07
-1.73895e-08
3.20366e-07
-1.512e-08
3.31955e-07
-1.32399e-08
3.42824e-07
-1.16939e-08
3.53105e-07
-1.04465e-08
3.62926e-07
-9.48874e-09
3.72409e-07
-8.828e-09
3.81692e-07
-8.48984e-09
3.90926e-07
-8.53775e-09
4.00251e-07
-9.05756e-09
4.10044e-07
-1.00953e-08
4.20642e-07
-1.17554e-08
4.32366e-07
-1.40978e-08
4.45503e-07
-1.71355e-08
4.6039e-07
-2.0815e-08
4.77263e-07
-2.50299e-08
4.96506e-07
-2.96078e-08
5.18012e-07
-3.44649e-08
5.41801e-07
-3.93529e-08
5.6775e-07
-4.39929e-08
5.95603e-07
-4.81306e-08
6.2498e-07
-5.15338e-08
6.55411e-07
-5.40107e-08
6.86352e-07
-5.54197e-08
7.17218e-07
-5.56729e-08
7.47416e-07
-5.47424e-08
7.76368e-07
-5.26524e-08
8.03536e-07
-4.94832e-08
8.2846e-07
-4.53663e-08
8.50751e-07
-4.04572e-08
8.70109e-07
-3.49252e-08
8.8633e-07
-2.89442e-08
8.99318e-07
-2.27125e-08
9.09032e-07
-1.63871e-08
9.15619e-07
-1.01628e-08
9.19117e-07
-4.04642e-09
9.19688e-07
1.46002e-09
9.17628e-07
6.71581e-09
9.13243e-07
1.13925e-08
9.06905e-07
1.53836e-08
8.99046e-07
1.85896e-08
8.9013e-07
2.09495e-08
8.80642e-07
2.24066e-08
8.71075e-07
2.29224e-08
8.61911e-07
2.24856e-08
8.5362e-07
2.1099e-08
8.46647e-07
1.87889e-08
8.41396e-07
1.56141e-08
8.38217e-07
1.16592e-08
8.37418e-07
7.00259e-09
8.39154e-07
1.91916e-09
8.43407e-07
-3.38623e-09
8.50653e-07
-8.80563e-09
8.6058e-07
-1.41786e-08
8.73029e-07
-1.92863e-08
8.87754e-07
-2.39328e-08
9.04428e-07
-2.79565e-08
9.22654e-07
-3.12308e-08
9.41992e-07
-3.36689e-08
-3.52271e-08
-1.05301e-07
-2.95471e-08
-9.38652e-08
-2.25919e-08
-8.61682e-08
-1.25389e-08
-8.19682e-08
-2.44854e-09
-8.0415e-08
5.21459e-09
-7.99808e-08
9.19515e-09
-7.8938e-08
8.27187e-09
-7.59381e-08
2.8818e-09
-6.93635e-08
-6.49904e-09
-5.80454e-08
-1.97052e-08
-4.16984e-08
-3.49391e-08
-1.96321e-08
-5.09505e-08
6.66157e-09
-6.51136e-08
3.7152e-08
-7.65557e-08
6.99945e-08
-8.32769e-08
1.03286e-07
-8.46591e-08
1.35251e-07
-8.08133e-08
1.64429e-07
-7.24191e-08
1.8974e-07
-6.06871e-08
2.10663e-07
-4.69211e-08
2.27099e-07
-3.27398e-08
2.39577e-07
-1.97183e-08
2.48819e-07
-9.12615e-09
2.56266e-07
-1.67783e-09
2.63074e-07
2.21685e-09
2.70395e-07
2.61331e-09
2.79097e-07
1.62825e-10
2.89173e-07
-3.4652e-09
3.0082e-07
-7.83159e-09
3.13703e-07
-1.17437e-08
3.27351e-07
-1.44188e-08
3.41223e-07
-1.55692e-08
3.5479e-07
-1.53017e-08
3.67634e-07
-1.38861e-08
3.79588e-07
-1.18776e-08
3.9069e-07
-1.00132e-08
4.01218e-07
-8.99259e-09
4.11613e-07
-9.42696e-09
4.22749e-07
-1.16943e-08
4.35204e-07
-1.60884e-08
4.4971e-07
-2.24918e-08
4.6693e-07
-3.05675e-08
4.87239e-07
-3.98369e-08
5.10839e-07
-4.96713e-08
5.37714e-07
-5.94014e-08
5.6765e-07
-6.83874e-08
6.0019e-07
-7.60752e-08
6.3483e-07
-8.20047e-08
6.70809e-07
-8.59124e-08
7.07415e-07
-8.76601e-08
7.43929e-07
-8.72847e-08
7.79673e-07
-8.49786e-08
8.14076e-07
-8.1053e-08
8.46717e-07
-7.58942e-08
8.77324e-07
-6.99206e-08
9.05754e-07
-6.35479e-08
9.31983e-07
-5.71602e-08
9.56117e-07
-5.10761e-08
9.78341e-07
-4.55274e-08
9.98881e-07
-4.06492e-08
1.01798e-06
-3.64859e-08
1.03585e-06
-3.29958e-08
1.05269e-06
-3.00785e-08
1.06862e-06
-2.7622e-08
1.08372e-06
-2.55457e-08
1.09806e-06
-2.38331e-08
1.11173e-06
-2.24937e-08
1.1248e-06
-2.15582e-08
1.1374e-06
-2.11367e-08
1.14969e-06
-2.13519e-08
1.16192e-06
-2.2323e-08
1.17438e-06
-2.4215e-08
1.1874e-06
-2.71236e-08
1.20134e-06
-3.10709e-08
1.21653e-06
-3.60048e-08
1.2333e-06
-4.17999e-08
1.25194e-06
-4.8248e-08
1.27257e-06
-5.50954e-08
1.29522e-06
-6.20066e-08
1.31982e-06
-6.85944e-08
1.34617e-06
-7.44734e-08
1.37392e-06
-7.92902e-08
1.40266e-06
-8.27507e-08
1.43189e-06
-8.46433e-08
1.46106e-06
-8.48412e-08
1.48962e-06
-8.3307e-08
1.51705e-06
-8.00865e-08
1.54287e-06
-7.52985e-08
1.56664e-06
-6.91347e-08
1.58801e-06
-6.1827e-08
1.60673e-06
-5.36448e-08
1.62265e-06
-4.48657e-08
1.63569e-06
-3.5758e-08
1.64588e-06
-2.65696e-08
1.65327e-06
-1.75588e-08
1.65808e-06
-8.85169e-09
1.66035e-06
-8.10336e-10
1.66046e-06
6.60368e-09
1.65864e-06
1.32147e-08
1.6552e-06
1.88246e-08
1.65048e-06
2.33049e-08
1.64486e-06
2.65733e-08
1.6387e-06
2.85644e-08
1.6324e-06
2.92197e-08
1.62637e-06
2.85212e-08
1.62099e-06
2.64722e-08
1.61667e-06
2.31125e-08
1.61378e-06
1.85099e-08
1.61266e-06
1.27766e-08
1.61355e-06
6.11169e-09
1.61659e-06
-1.1176e-09
1.62206e-06
-8.85915e-09
1.63001e-06
-1.67532e-08
1.64034e-06
-2.45133e-08
1.6529e-06
-3.18476e-08
1.66745e-06
-3.84792e-08
1.68366e-06
-4.41724e-08
1.70118e-06
-4.87434e-08
1.71957e-06
-5.20661e-08
-5.40734e-08
6.2731e-07
-4.72242e-08
6.4172e-07
-3.70017e-08
6.51603e-07
-2.2422e-08
6.57733e-07
-8.57848e-09
6.61422e-07
1.52553e-09
6.64844e-07
5.77297e-09
6.69038e-07
4.07758e-09
6.75575e-07
-3.65481e-09
6.8601e-07
-1.69344e-08
7.01121e-07
-3.48162e-08
7.216e-07
-5.54179e-08
7.47365e-07
-7.67158e-08
7.7846e-07
-9.62085e-08
8.13353e-07
-1.11448e-07
8.50595e-07
-1.20519e-07
8.88478e-07
-1.22542e-07
9.25242e-07
-1.17578e-07
9.59319e-07
-1.06495e-07
9.89472e-07
-9.08406e-08
1.01518e-06
-7.26254e-08
1.03647e-06
-5.40361e-08
1.05386e-06
-3.71035e-08
1.06822e-06
-2.3491e-08
1.08074e-06
-1.41957e-08
1.09252e-06
-9.5617e-09
1.10457e-06
-9.4342e-09
1.11758e-06
-1.28532e-08
1.13247e-06
-1.83521e-08
1.14928e-06
-2.46376e-08
1.16772e-06
-3.01874e-08
1.1871e-06
-3.37948e-08
1.20661e-06
-3.50845e-08
1.22565e-06
-3.43371e-08
1.2436e-06
-3.18381e-08
1.26016e-06
-2.84351e-08
1.27534e-06
-2.51942e-08
1.28944e-06
-2.30926e-08
1.30297e-06
-2.29565e-08
1.31671e-06
-2.5435e-08
1.33147e-06
-3.08548e-08
1.34806e-06
-3.90757e-08
1.36715e-06
-4.96558e-08
1.38924e-06
-6.19286e-08
1.41463e-06
-7.50649e-08
1.4434e-06
-8.81712e-08
1.47539e-06
-1.00375e-07
1.51021e-06
-1.10895e-07
1.54731e-06
-1.19103e-07
1.58597e-06
-1.2458e-07
1.62544e-06
-1.2713e-07
1.66493e-06
-1.26771e-07
1.70369e-06
-1.23738e-07
1.74107e-06
-1.18437e-07
1.77657e-06
-1.11393e-07
1.80985e-06
-1.032e-07
1.84075e-06
-9.44498e-08
1.86927e-06
-8.56793e-08
1.89552e-06
-7.73248e-08
1.9197e-06
-6.9702e-08
1.94205e-06
-6.30014e-08
1.96285e-06
-5.72892e-08
1.98236e-06
-5.25012e-08
2.00074e-06
-4.84639e-08
2.01809e-06
-4.49719e-08
2.03441e-06
-4.18659e-08
2.04974e-06
-3.91645e-08
2.06414e-06
-3.68918e-08
2.07758e-06
-3.5001e-08
2.09013e-06
-3.36782e-08
2.10187e-06
-3.30925e-08
2.11295e-06
-3.34102e-08
2.1237e-06
-3.49614e-08
2.13449e-06
-3.79112e-08
2.14574e-06
-4.23228e-08
2.15788e-06
-4.8146e-08
2.17132e-06
-5.52426e-08
2.18643e-06
-6.33507e-08
2.20343e-06
-7.21e-08
2.22244e-06
-8.10168e-08
2.24342e-06
-8.95733e-08
2.26618e-06
-9.7234e-08
2.29039e-06
-1.03502e-07
2.31561e-06
-1.07964e-07
2.34129e-06
-1.10323e-07
2.36686e-06
-1.1042e-07
2.39177e-06
-1.08217e-07
2.41547e-06
-1.03784e-07
2.43747e-06
-9.72976e-08
2.45735e-06
-8.90183e-08
2.47481e-06
-7.92787e-08
2.48961e-06
-6.84481e-08
2.50165e-06
-5.69082e-08
2.51093e-06
-4.50372e-08
2.51754e-06
-3.31781e-08
2.52162e-06
-2.16366e-08
2.52344e-06
-1.06708e-08
2.52316e-06
-5.2914e-10
2.52113e-06
8.63235e-09
2.51768e-06
1.66601e-08
2.51311e-06
2.33987e-08
2.50768e-06
2.87321e-08
2.50169e-06
3.25645e-08
2.49544e-06
3.48151e-08
2.48924e-06
3.54187e-08
2.48343e-06
3.43352e-08
2.47835e-06
3.15505e-08
2.47435e-06
2.71072e-08
2.47175e-06
2.11099e-08
2.47081e-06
1.37147e-08
2.47178e-06
5.14586e-09
2.47494e-06
-4.27972e-09
2.48033e-06
-1.4249e-08
2.48796e-06
-2.43813e-08
2.49774e-06
-3.42887e-08
2.50947e-06
-4.35835e-08
2.52289e-06
-5.19022e-08
2.53766e-06
-5.89381e-08
2.55338e-06
-6.4459e-08
2.56961e-06
-6.83042e-08
-7.0408e-08
1.67253e-06
-6.4173e-08
1.68648e-06
-6.1167e-08
1.69723e-06
-4.77584e-08
1.70422e-06
-2.94048e-08
1.70873e-06
-1.3096e-08
1.71305e-06
-2.78988e-09
1.71836e-06
4.58604e-10
1.72592e-06
-3.47861e-09
1.73653e-06
-1.42694e-08
1.75095e-06
-3.13451e-08
1.76938e-06
-5.32548e-08
1.79196e-06
-7.79937e-08
1.81878e-06
-1.03534e-07
1.8494e-06
-1.2683e-07
1.88286e-06
-1.4491e-07
1.91825e-06
-1.55908e-07
1.95468e-06
-1.58971e-07
1.99104e-06
-1.5394e-07
2.02591e-06
-1.41359e-07
2.0577e-06
-1.22636e-07
2.08524e-06
-1.00162e-07
2.10834e-06
-7.71393e-08
2.12757e-06
-5.6334e-08
2.1438e-06
-3.9722e-08
2.15803e-06
-2.84204e-08
2.17114e-06
-2.26762e-08
2.18394e-06
-2.22283e-08
2.19735e-06
-2.62721e-08
2.2122e-06
-3.31999e-08
2.22892e-06
-4.13578e-08
2.24735e-06
-4.86195e-08
2.26665e-06
-5.30868e-08
2.28592e-06
-5.43538e-08
2.30487e-06
-5.32876e-08
2.32255e-06
-4.95212e-08
2.3385e-06
-4.43873e-08
2.35276e-06
-3.94554e-08
2.36565e-06
-3.59788e-08
2.3776e-06
-3.49046e-08
2.38926e-06
-3.70941e-08
2.40156e-06
-4.31616e-08
2.41539e-06
-5.29071e-08
2.43153e-06
-6.57863e-08
2.45057e-06
-8.09743e-08
2.47295e-06
-9.74451e-08
2.49884e-06
-1.14065e-07
2.52816e-06
-1.29695e-07
2.56058e-06
-1.43306e-07
2.59554e-06
-1.54069e-07
2.63238e-06
-1.61417e-07
2.67031e-06
-1.65064e-07
2.70851e-06
-1.64965e-07
2.7461e-06
-1.61334e-07
2.7823e-06
-1.54638e-07
2.81644e-06
-1.45528e-07
2.848e-06
-1.34761e-07
2.87667e-06
-1.23123e-07
2.90234e-06
-1.11349e-07
2.92507e-06
-1.00056e-07
2.94508e-06
-8.97043e-08
2.96266e-06
-8.05873e-08
2.97821e-06
-7.28351e-08
2.99207e-06
-6.63661e-08
3.0045e-06
-6.08947e-08
3.01564e-06
-5.61059e-08
3.02556e-06
-5.179e-08
3.03429e-06
-4.78899e-08
3.04176e-06
-4.43672e-08
3.04797e-06
-4.12099e-08
3.05305e-06
-3.87559e-08
3.05712e-06
-3.71611e-08
3.06033e-06
-3.66255e-08
3.06297e-06
-3.7598e-08
3.0656e-06
-4.05427e-08
3.06891e-06
-4.56264e-08
3.07349e-06
-5.27333e-08
3.07999e-06
-6.17369e-08
3.08894e-06
-7.23022e-08
3.10076e-06
-8.39178e-08
3.11562e-06
-9.58835e-08
3.1335e-06
-1.07452e-07
3.15412e-06
-1.17853e-07
3.17699e-06
-1.26372e-07
3.20146e-06
-1.32428e-07
3.22676e-06
-1.35625e-07
3.25212e-06
-1.35782e-07
3.2768e-06
-1.32901e-07
3.30015e-06
-1.27127e-07
3.32157e-06
-1.18722e-07
3.34061e-06
-1.08053e-07
3.3569e-06
-9.55765e-08
3.37024e-06
-8.17829e-08
3.38051e-06
-6.71797e-08
3.38773e-06
-5.22619e-08
3.39202e-06
-3.74587e-08
3.39354e-06
-2.31584e-08
3.39257e-06
-9.70077e-09
3.38939e-06
2.64989e-09
3.38431e-06
1.37088e-08
3.37765e-06
2.33226e-08
3.3697e-06
3.13453e-08
3.36078e-06
3.76535e-08
3.3512e-06