/*--------------------------------*- C++ -*----------------------------------*\
| =========                 |                                                 |
| \\      /  F ield         | OpenFOAM: The Open Source CFD Toolbox           |
|  \\    /   O peration     | Version:  2206                                  |
|   \\  /    A nd           | Website:  www.openfoam.com                      |
|    \\/     M anipulation  |                                                 |
\*---------------------------------------------------------------------------*/
FoamFile
{
    version     2.0;
    format      ascii;
    arch        "LSB;label=32;scalar=64";
    class       surfaceScalarField;
    location    "18.6999";
    object      phi_0;
}
// * * * * * * * * * * * * * * * * * * * * * * * * * * * * * * * * * * * * * //

dimensions      [0 3 -1 0 0 0 0];

oriented        oriented;

internalField   nonuniform List<scalar> 
3488
(
5.30884e-06
4.55921e-07
-3.16166e-07
5.18673e-06
4.58499e-07
-3.36384e-07
5.08527e-06
4.30881e-07
-3.29424e-07
5.00859e-06
3.69535e-07
-2.92852e-07
4.95986e-06
2.75666e-07
-2.26935e-07
4.94033e-06
1.54574e-07
-1.35045e-07
4.95095e-06
1.45148e-08
-2.51347e-08
4.99049e-06
-1.35923e-07
9.6379e-08
5.05644e-06
-2.87263e-07
2.21313e-07
5.14533e-06
-4.30127e-07
3.41238e-07
5.25347e-06
-5.56923e-07
4.48778e-07
5.3773e-06
-6.62032e-07
5.3821e-07
5.51356e-06
-7.41345e-07
6.0508e-07
5.65951e-06
-7.92221e-07
6.46275e-07
5.81295e-06
-8.13559e-07
6.60119e-07
5.97211e-06
-8.05298e-07
6.4613e-07
6.13547e-06
-7.68084e-07
6.04731e-07
6.30153e-06
-7.03013e-07
5.3695e-07
6.46744e-06
-6.12459e-07
4.46553e-07
6.62788e-06
-4.99259e-07
3.38818e-07
6.77361e-06
-3.69266e-07
2.23531e-07
6.89613e-06
-2.31796e-07
1.0928e-07
6.98732e-06
-9.56548e-08
4.4658e-09
7.04274e-06
2.93965e-08
-8.48218e-08
7.05844e-06
1.38072e-07
-1.53773e-07
7.02909e-06
2.28221e-07
-1.9887e-07
6.95268e-06
2.94901e-07
-2.18485e-07
6.83306e-06
3.35919e-07
-2.163e-07
6.68171e-06
3.49622e-07
-1.98272e-07
6.51374e-06
3.41755e-07
-1.73785e-07
6.34351e-06
3.22101e-07
-1.51876e-07
6.18123e-06
3.00764e-07
-1.3848e-07
6.03275e-06
2.84226e-07
-1.35747e-07
5.9011e-06
2.74284e-07
-1.42639e-07
5.78718e-06
2.6925e-07
-1.55331e-07
5.69036e-06
2.65273e-07
-1.68451e-07
5.60921e-06
2.57563e-07
-1.76411e-07
5.54239e-06
2.4129e-07
-1.74467e-07
5.48956e-06
2.11924e-07
-1.59093e-07
5.45116e-06
1.66347e-07
-1.27951e-07
5.4276e-06
1.04426e-07
-8.08597e-08
5.41913e-06
2.71229e-08
-1.86564e-08
5.42594e-06
-6.26981e-08
5.5894e-08
5.44788e-06
-1.60636e-07
1.38687e-07
5.48408e-06
-2.60899e-07
2.24702e-07
5.53265e-06
-3.57045e-07
3.08479e-07
5.59163e-06
-4.4404e-07
3.85055e-07
5.65924e-06
-5.18267e-07
4.50661e-07
5.73381e-06
-5.77063e-07
5.0249e-07
5.81381e-06
-6.1871e-07
5.38712e-07
5.89775e-06
-6.42276e-07
5.58335e-07
5.98431e-06
-6.47436e-07
5.60873e-07
6.07236e-06
-6.34192e-07
5.46146e-07
6.16071e-06
-6.02758e-07
5.14405e-07
6.2482e-06
-5.54162e-07
4.66673e-07
6.33303e-06
-4.90272e-07
4.05449e-07
6.41204e-06
-4.13533e-07
3.34519e-07
6.48122e-06
-3.27595e-07
2.58413e-07
6.5367e-06
-2.36786e-07
1.81304e-07
6.57558e-06
-1.45559e-07
1.06686e-07
6.59577e-06
-5.74893e-08
3.72969e-08
6.59573e-06
2.4329e-08
-2.42945e-08
6.57386e-06
9.71104e-08
-7.52416e-08
6.53024e-06
1.58089e-07
-1.14466e-07
6.46752e-06
2.0499e-07
-1.4227e-07
6.39054e-06
2.37636e-07
-1.60651e-07
6.30568e-06
2.56859e-07
-1.72002e-07
6.21943e-06
2.64786e-07
-1.78538e-07
6.13687e-06
2.63984e-07
-1.81423e-07
6.06104e-06
2.56458e-07
-1.80624e-07
5.99372e-06
2.4269e-07
-1.7537e-07
5.93593e-06
2.22221e-07
-1.64437e-07
5.88833e-06
1.94128e-07
-1.46524e-07
5.85146e-06
1.57289e-07
-1.20421e-07
5.82553e-06
1.11339e-07
-8.54056e-08
5.81037e-06
5.68502e-08
-4.1693e-08
5.80572e-06
-5.11717e-09
9.76586e-09
5.81114e-06
-7.27436e-08
6.73245e-08
5.82592e-06
-1.4302e-07
1.28239e-07
5.84878e-06
-2.11778e-07
1.88917e-07
5.87842e-06
-2.75354e-07
2.45713e-07
5.91352e-06
-3.30941e-07
2.95849e-07
5.95269e-06
-3.76415e-07
3.37238e-07
5.99476e-06
-4.10499e-07
3.68427e-07
6.03885e-06
-4.32636e-07
3.88552e-07
6.08422e-06
-4.42647e-07
3.97277e-07
6.13007e-06
-4.4047e-07
3.94621e-07
6.17558e-06
-4.26263e-07
3.80751e-07
6.21989e-06
-4.00349e-07
3.56039e-07
6.26222e-06
-3.63679e-07
3.21347e-07
6.30189e-06
-3.17631e-07
2.77962e-07
6.33804e-06
-2.63732e-07
2.27582e-07
6.36934e-06
-2.03667e-07
1.7237e-07
6.39422e-06
-1.39587e-07
1.14704e-07
6.41144e-06
-7.40872e-08
5.68669e-08
6.4202e-06
-9.6635e-09
9.04536e-10
6.41998e-06
5.15693e-08
-5.13532e-08
6.41062e-06
1.07635e-07
-9.82735e-08
6.39221e-06
1.56798e-07
-1.38384e-07
6.36523e-06
1.97619e-07
-1.7064e-07
6.33103e-06
2.28932e-07
-1.94735e-07
6.29168e-06
2.50116e-07
-2.10765e-07
6.24944e-06
2.61423e-07
-2.19181e-07
6.20647e-06
2.63658e-07
-2.20687e-07
6.16464e-06
2.57673e-07
-2.15841e-07
6.12562e-06
2.43771e-07
-2.04758e-07
6.09093e-06
2.22085e-07
-1.87391e-07
6.0617e-06
1.92996e-07
-1.63766e-07
6.03866e-06
1.57052e-07
-1.34008e-07
6.02226e-06
1.14939e-07
-9.85402e-08
6.01279e-06
6.75614e-08
-5.80913e-08
6.0104e-06
1.61571e-08
-1.37661e-08
6.01492e-06
-3.73745e-08
3.28456e-08
6.02569e-06
-9.01773e-08
7.94143e-08
6.04187e-06
-1.39724e-07
1.23546e-07
6.06242e-06
-1.83841e-07
1.63283e-07
6.0862e-06
-2.2077e-07
1.96998e-07
6.11205e-06
-2.49377e-07
2.23518e-07
6.13909e-06
-2.6921e-07
2.42171e-07
6.16674e-06
-2.80365e-07
2.52722e-07
-2.83045e-07
2.5522e-07
5.60968e-06
5.94924e-07
5.49513e-06
5.7304e-07
5.40549e-06
5.20524e-07
5.34173e-06
4.33298e-07
5.30464e-06
3.12757e-07
5.29468e-06
1.64527e-07
5.31209e-06
-2.89428e-09
5.35577e-06
-1.79597e-07
5.42273e-06
-3.5423e-07
5.50939e-06
-5.16777e-07
5.61208e-06
-6.59621e-07
5.72718e-06
-7.77127e-07
5.85133e-06
-8.65494e-07
5.98186e-06
-9.22755e-07
6.11652e-06
-9.48213e-07
6.2533e-06
-9.42085e-07
6.39073e-06
-9.05514e-07
6.5282e-06
-8.40477e-07
6.6654e-06
-7.4966e-07
6.80188e-06
-6.35743e-07
6.93441e-06
-5.01793e-07
7.05621e-06
-3.53595e-07
7.16037e-06
-1.99819e-07
7.24034e-06
-5.05695e-08
7.29161e-06
8.68013e-08
7.3103e-06
2.09533e-07
7.28987e-06
3.15333e-07
7.22647e-06
3.99314e-07
7.12201e-06
4.54082e-07
6.98452e-06
4.79246e-07
6.82491e-06
4.8171e-07
6.65662e-06
4.69054e-07
6.49252e-06
4.48331e-07
6.34145e-06
4.25351e-07
6.20865e-06
4.02048e-07
6.09645e-06
3.77473e-07
6.00489e-06
3.49122e-07
5.93299e-06
3.13187e-07
5.87996e-06
2.6496e-07
5.84466e-06
2.01649e-07
5.82597e-06
1.23107e-07
5.8228e-06
3.02943e-08
5.83422e-06
-7.41163e-08
5.85927e-06
-1.8568e-07
5.89622e-06
-2.97856e-07
5.94307e-06
-4.0389e-07
5.99798e-06
-4.98955e-07
6.05906e-06
-5.79343e-07
6.12456e-06
-6.42561e-07
6.19318e-06
-6.87335e-07
6.26408e-06
-7.13173e-07
6.33637e-06
-7.19725e-07
6.40888e-06
-7.06709e-07
6.48028e-06
-6.74156e-07
6.54947e-06
-6.23348e-07
6.61573e-06
-5.56531e-07
6.6783e-06
-4.76109e-07
6.73553e-06
-3.84827e-07
6.78498e-06
-2.86228e-07
6.82422e-06
-1.84799e-07
6.85124e-06
-8.45134e-08
6.86431e-06
1.12616e-08
6.86195e-06
9.94659e-08
6.84285e-06
1.77188e-07
6.80612e-06
2.41727e-07
6.75302e-06
2.90735e-07
6.68693e-06
3.22949e-07
6.61262e-06
3.39098e-07
6.53607e-06
3.40531e-07
6.46229e-06
3.30235e-07
6.39492e-06
3.10064e-07
6.33642e-06
2.80719e-07
6.28835e-06
2.42199e-07
6.25145e-06
1.94187e-07
6.22577e-06
1.3702e-07
6.21095e-06
7.16695e-08
6.20643e-06
-5.98661e-10
6.21148e-06
-7.77933e-08
6.22482e-06
-1.56361e-07
6.24504e-06
-2.31998e-07
6.27087e-06
-3.01186e-07
6.30089e-06
-3.60957e-07
6.33361e-06
-4.09138e-07
6.36781e-06
-4.44699e-07
6.40278e-06
-4.67599e-07
6.43831e-06
-4.7818e-07
6.4742e-06
-4.76359e-07
6.50979e-06
-4.6185e-07
6.54415e-06
-4.34712e-07
6.57646e-06
-3.95986e-07
6.60607e-06
-3.47243e-07
6.63247e-06
-2.90136e-07
6.65518e-06
-2.2638e-07
6.67345e-06
-1.57853e-07
6.68643e-06
-8.70654e-08
6.69367e-06
-1.69098e-08
6.69485e-06
5.03944e-08
6.6898e-06
1.12687e-07
6.6786e-06
1.67999e-07
6.66156e-06
2.14651e-07
6.63921e-06
2.51285e-07
6.61222e-06
2.77102e-07
6.58171e-06
2.91933e-07
6.54905e-06
2.96326e-07
6.51566e-06
2.9106e-07
6.48362e-06
2.75812e-07
6.45476e-06
2.50941e-07
6.43033e-06
2.17432e-07
6.41116e-06
1.76222e-07
6.39778e-06
1.28312e-07
6.3905e-06
7.4848e-08
6.38939e-06
1.72612e-08
6.39412e-06
-4.20984e-08
6.40391e-06
-9.99686e-08
6.41793e-06
-1.53744e-07
6.43513e-06
-2.01043e-07
6.45433e-06
-2.39972e-07
6.47438e-06
-2.69419e-07
6.49438e-06
-2.89219e-07
6.51404e-06
-3.0002e-07
-3.02631e-07
5.94208e-06
7.2655e-07
5.83878e-06
6.76347e-07
5.7628e-06
5.96501e-07
5.71312e-06
4.82975e-07
5.68901e-06
3.36874e-07
5.68987e-06
1.63664e-07
5.71512e-06
-2.81432e-08
5.76273e-06
-2.27208e-07
5.829e-06
-4.20505e-07
5.91031e-06
-5.98082e-07
6.00277e-06
-7.52079e-07
6.10282e-06
-8.77182e-07
6.20747e-06
-9.70144e-07
6.31496e-06
-1.03024e-06
6.42429e-06
-1.05755e-06
6.53412e-06
-1.05191e-06
6.64272e-06
-1.01412e-06
6.74957e-06
-9.47319e-07
6.85499e-06
-8.55084e-07
6.95958e-06
-7.40327e-07
7.06331e-06
-6.05532e-07
7.1638e-06
-4.5408e-07
7.25562e-06
-2.91641e-07
7.3321e-06
-1.27046e-07
7.38684e-06
3.20596e-08
7.41717e-06
1.79201e-07
7.4243e-06
3.082e-07
7.40617e-06
4.17453e-07
7.35546e-06
5.04785e-07
7.26944e-06
5.65266e-07
7.15315e-06
5.98003e-07
7.01704e-06
6.05167e-07
6.87294e-06
5.92429e-07
6.73224e-06
5.66046e-07
6.60329e-06
5.31003e-07
6.49104e-06
4.8972e-07
6.39808e-06
4.42085e-07
6.32543e-06
3.8584e-07
6.27295e-06
3.17442e-07
6.23921e-06
2.35385e-07
6.22263e-06
1.39686e-07
6.22153e-06
3.1392e-08
6.2344e-06
-8.6981e-08
6.25943e-06
-2.1071e-07
6.2942e-06
-3.32626e-07
6.33671e-06
-4.46402e-07
6.38501e-06
-5.47258e-07
6.43699e-06
-6.3132e-07
6.49076e-06
-6.96329e-07
6.54515e-06
-7.41725e-07
6.5999e-06
-7.67925e-07
6.65522e-06
-7.75051e-07
6.71055e-06
-7.62031e-07
6.76409e-06
-7.27697e-07
6.81495e-06
-6.74206e-07
6.86268e-06
-6.04266e-07
6.90701e-06
-5.20441e-07
6.94751e-06
-4.25322e-07
6.98345e-06
-3.22166e-07
7.01362e-06
-2.14969e-07
7.0369e-06
-1.07795e-07
7.05213e-06
-3.97375e-09
7.0576e-06
9.4002e-08
7.0525e-06
1.82289e-07
7.03639e-06
2.57834e-07
7.00873e-06
3.18391e-07
6.97006e-06
3.61621e-07
6.922e-06
3.87161e-07
6.86817e-06
3.94361e-07
6.81098e-06
3.87424e-07
6.75452e-06
3.66526e-07
6.70308e-06
3.32156e-07
6.65951e-06
2.8577e-07
6.62512e-06
2.28578e-07
6.6003e-06
1.61837e-07
6.58494e-06
8.70355e-08
6.5786e-06
5.74256e-09
6.58038e-06
-7.95804e-08
6.5888e-06
-1.64781e-07
6.60268e-06
-2.45877e-07
6.62091e-06
-3.1941e-07
6.64225e-06
-3.82306e-07
6.66538e-06
-4.32267e-07
6.68903e-06
-4.6835e-07
6.7124e-06
-4.90965e-07
6.73562e-06
-5.01399e-07
6.75979e-06
-5.00527e-07
6.78437e-06
-4.86432e-07
6.80819e-06
-4.58531e-07
6.83049e-06
-4.18289e-07
6.85069e-06
-3.67443e-07
6.86831e-06
-3.0775e-07
6.88294e-06
-2.41014e-07
6.89424e-06
-1.6915e-07
6.90184e-06
-9.46625e-08
6.90568e-06
-2.07509e-08
6.90576e-06
5.03085e-08
6.90211e-06
1.16337e-07
6.89478e-06
1.7533e-07
6.88403e-06
2.25404e-07
6.87059e-06
2.64725e-07
6.85536e-06
2.92329e-07
6.83878e-06
3.0851e-07
6.82082e-06
3.14285e-07
6.80047e-06
3.11418e-07
6.7799e-06
2.96375e-07
6.76096e-06
2.69883e-07
6.74475e-06
2.33643e-07
6.73212e-06
1.88854e-07
6.72359e-06
1.36841e-07
6.71943e-06
7.90081e-08
6.7196e-06
1.70879e-08
6.72342e-06
-4.59142e-08
6.73014e-06
-1.06688e-07
6.73911e-06
-1.62721e-07
6.74971e-06
-2.11637e-07
6.76121e-06
-2.51471e-07
6.77278e-06
-2.80992e-07
6.78365e-06
-3.00088e-07
6.79346e-06
-3.09834e-07
-3.12097e-07
6.27841e-06
8.40968e-07
6.19238e-06
7.62374e-07
6.13339e-06
6.55493e-07
6.09968e-06
5.16679e-07
6.08958e-06
3.46982e-07
6.10149e-06
1.51748e-07
6.1337e-06
-6.03533e-08
6.18265e-06
-2.76153e-07
6.24485e-06
-4.82706e-07
6.31686e-06
-6.70094e-07
6.39517e-06
-8.30389e-07
6.47616e-06
-9.58177e-07
6.55671e-06
-1.05069e-06
6.63534e-06
-1.10886e-06
6.71246e-06
-1.13466e-06
6.78893e-06
-1.12838e-06
6.86254e-06
-1.08774e-06
6.9339e-06
-1.01868e-06
7.00452e-06
-9.25705e-07
7.07572e-06
-8.11533e-07
7.14826e-06
-6.78067e-07
7.22152e-06
-5.27344e-07
7.29228e-06
-3.62395e-07
7.35433e-06
-1.89097e-07
7.40275e-06
-1.63628e-08
7.43507e-06
1.46876e-07
7.44975e-06
2.93521e-07
7.4473e-06
4.19901e-07
7.42592e-06
5.26174e-07
7.38154e-06
6.09643e-07
7.31383e-06
6.65713e-07
7.22541e-06
6.93588e-07
7.12272e-06
6.95114e-07
7.01418e-06
6.74591e-07
6.909e-06
6.36185e-07
6.81411e-06
5.84601e-07
6.73386e-06
5.2234e-07
6.671e-06
4.48703e-07
6.62614e-06
3.62293e-07
6.59828e-06
2.6325e-07
6.58591e-06
1.52054e-07
6.58744e-06
2.98669e-08
6.60108e-06
-1.00627e-07
6.62426e-06
-2.33884e-07
6.65444e-06
-3.62805e-07
6.68971e-06
-4.81677e-07
6.72831e-06
-5.85862e-07
6.76834e-06
-6.71347e-07
6.80803e-06
-7.3602e-07
6.84595e-06
-7.79642e-07
6.88181e-06
-8.03784e-07
6.91692e-06
-8.10164e-07
6.95305e-06
-7.98161e-07
6.98665e-06
-7.61292e-07
7.01764e-06
-7.05197e-07
7.04602e-06
-6.32648e-07
7.07188e-06
-5.46298e-07
7.09544e-06
-4.48887e-07
7.11646e-06
-3.43184e-07
7.13378e-06
-2.32287e-07
7.14653e-06
-1.20546e-07
7.15465e-06
-1.20979e-08
7.15835e-06
9.03073e-08
7.15778e-06
1.8286e-07
7.15317e-06
2.62444e-07
7.14478e-06
3.26779e-07
7.13248e-06
3.73923e-07
7.11542e-06
4.04216e-07
7.09197e-06
4.17817e-07
7.06113e-06
4.18257e-07
7.0248e-06
4.02859e-07
6.98894e-06
3.68017e-07
6.95635e-06
3.18359e-07
6.92904e-06
2.55888e-07
6.90805e-06
1.8283e-07
6.89362e-06
1.01467e-07
6.88569e-06
1.36723e-08
6.88327e-06
-7.71625e-08
6.88498e-06
-1.66489e-07
6.88998e-06
-2.50878e-07
6.89767e-06
-3.27105e-07
6.90757e-06
-3.92199e-07
6.91898e-06
-4.43685e-07
6.93097e-06
-4.80332e-07
6.9424e-06
-5.024e-07
6.95307e-06
-5.1207e-07
6.96512e-06
-5.12572e-07
6.97894e-06
-5.00256e-07
6.9922e-06
-4.71791e-07
7.00447e-06
-4.30558e-07
7.01536e-06
-3.78334e-07
7.02452e-06
-3.16907e-07
7.03158e-06
-2.48082e-07
7.03634e-06
-1.73904e-07
7.03873e-06
-9.70552e-08
7.03895e-06
-2.09705e-08
7.03735e-06
5.19131e-08
7.03429e-06
1.19394e-07
7.02995e-06
1.79668e-07
7.02451e-06
2.30845e-07
7.01851e-06
2.70729e-07
7.01274e-06
2.98101e-07
7.00769e-06
3.13555e-07
7.00283e-06
3.19145e-07
6.99627e-06
3.1798e-07
6.98911e-06
3.03535e-07
6.98229e-06
2.76704e-07
6.97639e-06
2.39539e-07
6.97187e-06
1.93371e-07
6.96893e-06
1.39782e-07
6.96752e-06
8.04184e-08
6.9673e-06
1.73048e-08
6.96759e-06
-4.61947e-08
6.96801e-06
-1.07113e-07
6.96853e-06
-1.63244e-07
6.96931e-06
-2.12414e-07
6.97053e-06
-2.52692e-07
6.97222e-06
-2.82683e-07
6.97409e-06
-3.01952e-07
6.97566e-06
-3.11406e-07
-3.13755e-07
6.58153e-06
6.52202e-06
6.48665e-06
6.47351e-06
6.48056e-06
6.50548e-06
6.54501e-06
6.59426e-06
6.64988e-06
6.70853e-06
6.76763e-06
6.82423e-06
6.87579e-06
6.92075e-06
6.96009e-06
6.99767e-06
7.03022e-06
7.06069e-06
7.09295e-06
7.12944e-06
7.1708e-06
7.21661e-06
7.26553e-06
7.3137e-06
7.35597e-06
7.38833e-06
7.40732e-06
7.41129e-06
7.40237e-06
7.38253e-06
7.35054e-06
7.3056e-06
7.24887e-06
7.18169e-06
7.11093e-06
7.04372e-06
6.98579e-06
6.94092e-06
6.91005e-06
6.89269e-06
6.88778e-06
6.89389e-06
6.90893e-06
6.92965e-06
6.95367e-06
6.97915e-06
7.00467e-06
7.0293e-06
7.05227e-06
7.07245e-06
7.08982e-06
7.10539e-06
7.11929e-06
7.12949e-06
7.13728e-06
7.14353e-06
7.14931e-06
7.15563e-06
7.16272e-06
7.16933e-06
7.17351e-06
7.17499e-06
7.17495e-06
7.17374e-06
7.17153e-06
7.1684e-06
7.1644e-06
7.1611e-06
7.15779e-06
7.1528e-06
7.14468e-06
7.13546e-06
7.12526e-06
7.11459e-06
7.10448e-06
7.09592e-06
7.08902e-06
7.08364e-06
7.07922e-06
7.07554e-06
7.07268e-06
7.071e-06
7.07082e-06
7.07207e-06
7.07393e-06
7.07552e-06
7.07776e-06
7.08112e-06
7.08374e-06
7.08568e-06
7.087e-06
7.08772e-06
7.08786e-06
7.08736e-06
7.08597e-06
7.08344e-06
7.07959e-06
7.0747e-06
7.06974e-06
7.06578e-06
7.06341e-06
7.06257e-06
7.06302e-06
7.06415e-06
7.0664e-06
7.06913e-06
7.07181e-06
7.07423e-06
7.07612e-06
7.07719e-06
7.07711e-06
7.07561e-06
7.07271e-06
7.06873e-06
7.06411e-06
7.05932e-06
7.05488e-06
7.05124e-06
7.04863e-06
7.04694e-06
-3.12803e-07
-3.48753e-07
-6.15273e-09
-3.4463e-07
-4.12328e-09
-3.43547e-07
-1.08251e-09
-3.45575e-07
2.02774e-09
-3.499e-07
4.32528e-09
-3.55487e-07
5.58696e-09
-3.6081e-07
5.32325e-09
-3.6433e-07
3.5195e-09
-3.64972e-07
6.42061e-10
-3.61508e-07
-3.46377e-09
-3.53198e-07
-8.3097e-09
-3.40041e-07
-1.3157e-08
-3.22507e-07
-1.75343e-08
-3.01837e-07
-2.06697e-08
-2.79544e-07
-2.22933e-08
-2.57298e-07
-2.22461e-08
-2.36785e-07
-2.05127e-08
-2.19346e-07
-1.74396e-08
-2.06044e-07
-1.33019e-08
-1.97488e-07
-8.5558e-09
-1.93702e-07
-3.78576e-09
-1.94072e-07
3.7e-10
-1.97847e-07
3.77485e-09
-2.04064e-07
6.21737e-09
-2.1165e-07
7.58579e-09
-2.19606e-07
7.9554e-09
-2.27127e-07
7.52144e-09
-2.33737e-07
6.60982e-09
-2.39252e-07
5.51465e-09
-2.43784e-07
4.53214e-09
-2.47665e-07
3.8817e-09
-2.51287e-07
3.62171e-09
-2.55037e-07
3.74936e-09
-2.59174e-07
4.13768e-09
-2.63821e-07
4.64657e-09
-2.68823e-07
5.00251e-09
-2.73853e-07
5.02978e-09
-2.78408e-07
4.55515e-09
-2.81813e-07
3.40504e-09
-2.83277e-07
1.46414e-09
-2.82621e-07
-6.56063e-10
-2.79117e-07
-3.50447e-09
-2.72397e-07
-6.71964e-09
-2.62379e-07
-1.00185e-08
-2.49209e-07
-1.31693e-08
-2.33219e-07
-1.59906e-08
-2.14979e-07
-1.82395e-08
-1.95024e-07
-1.99555e-08
-1.74194e-07
-2.08297e-08
-1.53198e-07
-2.09964e-08
-1.32724e-07
-2.04739e-08
-1.13342e-07
-1.93816e-08
-9.55218e-08
-1.78204e-08
-7.96552e-08
-1.58667e-08
-6.58961e-08
-1.37591e-08
-5.43221e-08
-1.1574e-08
-4.48915e-08
-9.43066e-09
-3.74246e-08
-7.46687e-09
-3.17219e-08
-5.70273e-09
-2.75414e-08
-4.18051e-09
-2.46533e-08
-2.8881e-09
-2.28425e-08
-1.81079e-09
-2.19292e-08
-9.13273e-10
-2.17396e-08
-1.89602e-10
-2.21128e-08
3.73243e-10
-2.28751e-08
7.62264e-10
-2.38443e-08
9.69158e-10
-2.48187e-08
9.74441e-10
-2.55257e-08
7.06989e-10
-2.56415e-08
1.15771e-10
-2.50624e-08
-5.79093e-10
-2.34053e-08
-1.65707e-09
-2.03086e-08
-3.09673e-09
-1.53711e-08
-4.93755e-09
-8.31452e-09
-7.05654e-09
1.12776e-09
-9.44228e-09
1.28675e-08
-1.17397e-08
2.72679e-08
-1.44005e-08
4.42615e-08
-1.69936e-08
6.36536e-08
-1.9392e-08
8.51342e-08
-2.14806e-08
1.08291e-07
-2.3157e-08
1.32628e-07
-2.43372e-08
1.57591e-07
-2.49621e-08
1.82591e-07
-2.5e-08
2.07038e-07
-2.4448e-08
2.30367e-07
-2.33282e-08
2.52059e-07
-2.16926e-08
2.71665e-07
-1.96056e-08
2.88824e-07
-1.71592e-08
3.03255e-07
-1.44311e-08
3.14758e-07
-1.15033e-08
3.23219e-07
-8.46022e-09
3.28615e-07
-5.3964e-09
3.309e-07
-2.28508e-09
3.30413e-07
4.87309e-10
3.27287e-07
3.12607e-09
3.21659e-07
5.62743e-09
3.13812e-07
7.84704e-09
3.04074e-07
9.73798e-09
2.9281e-07
1.12641e-08
2.80412e-07
1.23986e-08
2.67311e-07
1.31009e-08
2.53967e-07
1.33433e-08
2.40859e-07
1.31081e-08
2.28467e-07
1.23923e-08
2.17265e-07
1.12024e-08
2.07702e-07
9.56208e-09
2.00193e-07
7.50921e-09
1.95113e-07
5.08002e-09
1.92695e-07
2.41763e-09
1.92868e-07
-1.72908e-10
1.95633e-07
-2.76421e-09
2.01045e-07
-5.41263e-09
2.08948e-07
-7.90307e-09
2.19088e-07
-1.01395e-08
2.31141e-07
-1.20528e-08
2.44732e-07
-1.35915e-08
2.59454e-07
-1.47219e-08
2.74885e-07
-1.54309e-08
-4.44054e-07
-1.4821e-08
-4.37681e-07
-1.04962e-08
-4.34322e-07
-4.44226e-09
-4.33841e-07
1.54659e-09
-4.35218e-07
5.70294e-09
-4.37273e-07
7.64215e-09
-4.3837e-07
6.42011e-09
-4.37231e-07
2.38038e-09
-4.32868e-07
-3.72084e-09
-4.23943e-07
-1.2389e-08
-4.09882e-07
-2.23702e-08
-3.91011e-07
-3.2029e-08
-3.67517e-07
-4.10277e-08
-3.41137e-07
-4.70498e-08
-3.13342e-07
-5.00883e-08
-2.85894e-07
-4.96945e-08
-2.60422e-07
-4.59839e-08
-2.38425e-07
-3.94371e-08
-2.20745e-07
-3.09815e-08
-2.0792e-07
-2.1381e-08
-1.99865e-07
-1.18407e-08
-1.96214e-07
-3.28164e-09
-1.95858e-07
3.41943e-09
-1.97877e-07
8.2365e-09
-2.00912e-07
1.06203e-08
-2.03693e-07
1.07367e-08
-2.05243e-07
9.07129e-09
-2.05118e-07
6.48491e-09
-2.03194e-07
3.59032e-09
-1.99681e-07
1.0196e-09
-1.9511e-07
-6.89421e-10
-1.90102e-07
-1.38644e-09
-1.85099e-07
-1.25343e-09
-1.80447e-07
-5.14618e-10
-1.76295e-07
4.94107e-10
-1.7248e-07
1.18798e-09
-1.68581e-07
1.13027e-09
-1.64183e-07
1.57494e-10
-1.58609e-07
-2.16845e-09
-1.51247e-07
-5.89795e-09
-1.41164e-07
-1.07395e-08
-1.28083e-07
-1.65852e-08
-1.11772e-07
-2.30305e-08
-9.21739e-08
-2.96168e-08
-6.94492e-08
-3.5894e-08
-4.40022e-08
-4.14375e-08
-1.62756e-08
-4.59661e-08
1.28717e-08
-4.91027e-08
4.2951e-08
-5.0909e-08
7.31914e-08
-5.12368e-08
1.02911e-07
-5.01937e-08
1.31506e-07
-4.79762e-08
1.5851e-07
-4.48246e-08
1.83645e-07
-4.10016e-08
2.06668e-07
-3.67825e-08
2.27549e-07
-3.24549e-08
2.46386e-07
-2.82674e-08
2.63307e-07
-2.43878e-08
2.78542e-07
-2.09376e-08
2.92343e-07
-1.79818e-08
3.04975e-07
-1.55205e-08
3.16668e-07
-1.35032e-08
3.2761e-07
-1.18558e-08
3.37942e-07
-1.05211e-08
3.47789e-07
-9.47419e-09
3.5727e-07
-8.7185e-09
3.6651e-07
-8.2706e-09
3.75657e-07
-8.17315e-09
3.84866e-07
-8.50223e-09
3.94325e-07
-9.34228e-09
4.04482e-07
-1.07368e-08
4.1563e-07
-1.28046e-08
4.28104e-07
-1.55709e-08
4.42187e-07
-1.90205e-08
4.58202e-07
-2.3072e-08
4.76349e-07
-2.75884e-08
4.9698e-07
-3.23709e-08
5.19904e-07
-3.73246e-08
5.45084e-07
-4.21734e-08
5.72329e-07
-4.66372e-08
6.01318e-07
-5.04697e-08
6.31617e-07
-5.34561e-08
6.6271e-07
-5.54306e-08
6.94029e-07
-5.62802e-08
7.24975e-07
-5.59461e-08
7.54958e-07
-5.44313e-08
7.83419e-07
-5.17892e-08
8.09851e-07
-4.81243e-08
8.33832e-07
-4.35874e-08
8.55019e-07
-3.83457e-08
8.7316e-07
-3.25718e-08
8.88096e-07
-2.64399e-08
8.99784e-07
-2.01483e-08
9.08222e-07
-1.38337e-08
9.13635e-07
-7.69871e-09
9.1587e-07
-1.74709e-09
9.1543e-07
3.56566e-09
9.12458e-07
8.59983e-09
9.07308e-07
1.29971e-08
9.00374e-07
1.66715e-08
8.92105e-07
1.95326e-08
8.82977e-07
2.15271e-08
8.73476e-07
2.26014e-08
8.64097e-07
2.27228e-08
8.55316e-07
2.18891e-08
8.47597e-07
2.01113e-08
8.41373e-07
1.74268e-08
8.37028e-07
1.39071e-08
8.34893e-07
9.64418e-09
8.35258e-07
4.71497e-09
8.38068e-07
-3.92943e-10
8.43708e-07
-5.81232e-09
8.52174e-07
-1.12302e-08
8.63259e-07
-1.64983e-08
8.76763e-07
-2.14067e-08
8.92399e-07
-2.57758e-08
9.09807e-07
-2.94605e-08
9.28568e-07
-3.23525e-08
9.48231e-07
-3.43847e-08
-3.55336e-08
-1.07016e-07
-2.8454e-08
-9.62695e-08
-2.12427e-08
-8.901e-08
-1.17017e-08
-8.46898e-08
-2.77358e-09
-8.24957e-08
3.50882e-09
-8.09133e-08
6.05977e-09
-7.82357e-08
3.74259e-09
-7.36446e-08
-2.21075e-09
-6.49372e-08
-1.24282e-08
-5.15657e-08
-2.57605e-08
-3.33732e-08
-4.05626e-08
-9.78021e-09
-5.5622e-08
1.74801e-08
-6.82879e-08
4.8355e-08
-7.79248e-08
8.08912e-08
-8.26244e-08
1.13202e-07
-8.20051e-08
1.43598e-07
-7.63798e-08
1.70762e-07
-6.66017e-08
1.938e-07
-5.40196e-08
2.12398e-07
-3.99788e-08
2.26665e-07
-2.61075e-08
2.37274e-07
-1.38905e-08
2.45113e-07
-4.41945e-09
2.51597e-07
1.75171e-09
2.57885e-07
4.33283e-09
2.65072e-07
3.5496e-09
2.73902e-07
2.41657e-10
2.84192e-07
-3.80557e-09
2.96064e-07
-8.28182e-09
3.09079e-07
-1.19953e-08
3.22688e-07
-1.42977e-08
3.36369e-07
-1.50681e-08
3.49622e-07
-1.45062e-08
3.62091e-07
-1.29841e-08
3.73722e-07
-1.11366e-08
3.84625e-07
-9.71468e-09
3.9514e-07
-9.38496e-09
4.0597e-07
-1.06722e-08
4.17772e-07
-1.39711e-08
4.31242e-07
-1.93677e-08
4.47138e-07
-2.66358e-08
4.65946e-07
-3.53926e-08
4.87979e-07
-4.50636e-08
5.13338e-07
-5.49754e-08
5.41895e-07
-6.44511e-08
5.73328e-07
-7.28712e-08
6.07089e-07
-7.97273e-08
6.42612e-07
-8.46252e-08
6.79087e-07
-8.73843e-08
7.15797e-07
-8.7946e-08
7.52032e-07
-8.64287e-08
7.87151e-07
-8.30955e-08
8.20646e-07
-7.83193e-08
8.52168e-07
-7.25239e-08
8.81527e-07
-6.61419e-08
9.08656e-07
-5.95838e-08
9.336e-07
-5.3211e-08
9.56518e-07
-4.73058e-08
9.77637e-07
-4.20565e-08
9.97206e-07
-3.7551e-08
1.01547e-06
-3.37856e-08
1.03264e-06
-3.06757e-08
1.04888e-06
-2.8097e-08
1.0643e-06
-2.59377e-08
1.07896e-06
-2.41375e-08
1.09295e-06
-2.26996e-08
1.10632e-06
-2.16431e-08
1.11918e-06
-2.10356e-08
1.13168e-06
-2.09992e-08
1.144e-06
-2.16611e-08
1.15643e-06
-2.31727e-08
1.1693e-06
-2.56732e-08
1.18295e-06
-2.92162e-08
1.19771e-06
-3.37829e-08
1.21392e-06
-3.92849e-08
1.23188e-06
-4.55506e-08
1.25184e-06
-5.23288e-08
1.27385e-06
-5.93312e-08
1.29787e-06
-6.61962e-08
1.32376e-06
-7.25298e-08
1.35125e-06
-7.79563e-08
1.37994e-06
-8.21485e-08
1.40937e-06
-8.48532e-08
1.43899e-06
-8.59046e-08
1.46827e-06
-8.52226e-08
1.49665e-06
-8.2816e-08
1.52364e-06
-7.87736e-08
1.54876e-06
-7.32507e-08
1.57164e-06
-6.6467e-08
1.59197e-06
-5.86728e-08
1.60954e-06
-5.0145e-08
1.62426e-06
-4.11597e-08
1.63609e-06
-3.19801e-08
1.64509e-06
-2.28321e-08
1.65137e-06
-1.39744e-08
1.65511e-06
-5.49039e-09
1.65647e-06
2.2106e-09
1.65577e-06
9.29639e-09
1.65327e-06
1.54934e-08
1.64931e-06
2.06349e-08
1.64423e-06
2.46135e-08
1.6384e-06
2.73542e-08
1.63221e-06
2.87925e-08
1.62606e-06
2.88769e-08
1.62034e-06
2.76031e-08
1.61547e-06
2.49846e-08
1.61182e-06
2.10754e-08
1.60977e-06
1.59614e-08
1.60963e-06
9.77983e-09
1.61158e-06
2.76493e-09
1.61582e-06
-4.6324e-09
1.62251e-06
-1.25011e-08
1.63165e-06
-2.03693e-08
1.64311e-06
-2.79606e-08
1.65669e-06
-3.49884e-08
1.67211e-06
-4.11957e-08
1.68902e-06
-4.63722e-08
1.70703e-06
-5.03612e-08
1.72571e-06
-5.30655e-08
-5.44484e-08
6.25305e-07
-4.51582e-08
6.38654e-07
-3.45918e-08
6.4783e-07
-2.08775e-08
6.53881e-07
-8.82471e-09
6.58448e-07
-1.05777e-09
6.63151e-07
1.35661e-09
6.68928e-07
-2.03403e-09
6.77624e-07
-1.0907e-08
6.90116e-07
-2.49206e-08
7.07244e-07
-4.28882e-08
7.29567e-07
-6.2886e-08
7.56838e-07
-8.28924e-08
7.88968e-07
-1.00419e-07
8.24246e-07
-1.13203e-07
8.61204e-07
-1.19582e-07
8.98138e-07
-1.18939e-07
9.33341e-07
-1.11583e-07
9.6538e-07
-9.86405e-08
9.93219e-07
-8.18585e-08
1.01657e-06
-6.33327e-08
1.03572e-06
-4.52539e-08
1.0513e-06
-2.94672e-08
1.0643e-06
-1.7422e-08
1.07593e-06
-9.87801e-09
1.08728e-06
-7.01452e-09
1.09931e-06
-8.48147e-09
1.1126e-06
-1.30498e-08
1.12795e-06
-1.91568e-08
1.1452e-06
-2.5536e-08
1.16392e-06
-3.07102e-08
1.18328e-06
-3.366e-08
1.20257e-06
-3.43577e-08
1.22118e-06
-3.31165e-08
1.23858e-06
-3.03845e-08
1.2546e-06
-2.71581e-08
1.26937e-06
-2.44856e-08
1.28329e-06
-2.3304e-08
1.29699e-06
-2.43747e-08
1.31129e-06
-2.82636e-08
1.32699e-06
-3.50742e-08
1.34488e-06
-4.45201e-08
1.36554e-06
-5.60528e-08
1.38938e-06
-6.89085e-08
1.4166e-06
-8.21967e-08
1.44716e-06
-9.5005e-08
1.48077e-06
-1.06482e-07
1.51695e-06
-1.15906e-07
1.55506e-06
-1.22738e-07
1.59435e-06
-1.26669e-07
1.63401e-06
-1.27609e-07
1.67327e-06
-1.25692e-07
1.71143e-06
-1.21257e-07
1.7479e-06
-1.14791e-07
1.78226e-06
-1.0688e-07
1.81426e-06
-9.81396e-08
1.84383e-06
-8.91552e-08
1.87105e-06
-8.04275e-08
1.89608e-06
-7.23395e-08
1.91917e-06
-6.51455e-08
1.94059e-06
-5.89738e-08
1.96063e-06
-5.3821e-08
1.9795e-06
-4.95512e-08
1.99736e-06
-4.59509e-08
2.01423e-06
-4.2816e-08
2.03013e-06
-4.00356e-08
2.0451e-06
-3.76689e-08
2.05916e-06
-3.57031e-08
2.07232e-06
-3.41967e-08
2.08466e-06
-3.33387e-08
2.09629e-06
-3.32842e-08
2.10743e-06
-3.43151e-08
2.11844e-06
-3.66864e-08
2.12974e-06
-4.05142e-08
2.14174e-06
-4.57827e-08
2.15486e-06
-5.24097e-08
2.1695e-06
-6.01871e-08
2.18596e-06
-6.87877e-08
2.20441e-06
-7.77806e-08
2.22487e-06
-8.66602e-08
2.24723e-06
-9.48879e-08
2.27121e-06
-1.01939e-07
2.29642e-06
-1.07355e-07
2.32235e-06
-1.1078e-07
2.34843e-06
-1.1199e-07
2.3741e-06
-1.10891e-07
2.39879e-06
-1.07506e-07
2.42198e-06
-1.01966e-07
2.44323e-06
-9.44966e-08
2.46216e-06
-8.53973e-08
2.47851e-06
-7.50252e-08
2.49212e-06
-6.37591e-08
2.50294e-06
-5.19767e-08
2.51101e-06
-4.00439e-08
2.51645e-06
-2.828e-08
2.51945e-06
-1.69728e-08
2.52031e-06
-6.35234e-09
2.51917e-06
3.35328e-09
2.51644e-06
1.20248e-08
2.51243e-06
1.95043e-08
2.50742e-06
2.56471e-08
2.50169e-06
3.03463e-08
2.49553e-06
3.35099e-08
2.48926e-06
3.50588e-08
2.48321e-06
3.49312e-08
2.47772e-06
3.30972e-08
2.47314e-06
2.95609e-08
2.46982e-06
2.43928e-08
2.46806e-06
1.7724e-08
2.4681e-06
9.73853e-09
2.47016e-06
7.03319e-10
2.47455e-06
-9.0159e-09
2.48117e-06
-1.91215e-08
2.49e-06
-2.92041e-08
2.50091e-06
-3.88684e-08
2.51365e-06
-4.77339e-08
2.52792e-06
-5.54619e-08
2.54333e-06
-6.17837e-08
2.55947e-06
-6.65004e-08
2.5759e-06
-6.94983e-08
-7.07597e-08
1.67045e-06
-6.24777e-08
1.68308e-06
-5.77955e-08
1.69259e-06
-4.41017e-08
1.699e-06
-2.72869e-08
1.70392e-06
-1.37414e-08
1.70935e-06
-6.48372e-09
1.71646e-06
-5.75486e-09
1.72611e-06
-1.16914e-08
1.73896e-06
-2.37529e-08
1.75549e-06
-4.1452e-08
1.77579e-06
-6.31865e-08
1.79994e-06
-8.70334e-08
1.82797e-06
-1.10927e-07
1.85932e-06
-1.31767e-07
1.89297e-06
-1.46856e-07
1.92805e-06
-1.54661e-07
1.96368e-06
-1.54562e-07
1.9987e-06
-1.46604e-07
2.03171e-06
-1.31649e-07
2.06123e-06
-1.11381e-07
2.08636e-06
-8.84665e-08
2.10729e-06
-6.6178e-08
2.12476e-06
-4.69394e-08
2.13973e-06
-3.23935e-08
2.15316e-06
-2.33041e-08
2.16586e-06
-1.97202e-08
2.17865e-06
-2.12707e-08
2.19244e-06
-2.684e-08
2.20788e-06
-3.45937e-08
2.22521e-06
-4.28669e-08
2.24404e-06
-4.95453e-08
2.26331e-06
-5.29242e-08
2.28241e-06
-5.34584e-08
2.30089e-06
-5.15989e-08
2.31786e-06
-4.7352e-08
2.33311e-06
-4.24105e-08
2.34681e-06
-3.81861e-08
2.35939e-06
-3.58803e-08
2.37131e-06
-3.62945e-08
2.38342e-06
-4.03747e-08
2.39665e-06
-4.83067e-08
2.41183e-06
-5.9702e-08
2.42966e-06
-7.38758e-08
2.45063e-06
-8.98839e-08
2.47505e-06
-1.06616e-07
2.50295e-06
-1.22902e-07
2.53409e-06
-1.37627e-07
2.56803e-06
-1.49844e-07
2.60414e-06
-1.58845e-07
2.64168e-06
-1.64213e-07
2.67986e-06
-1.65788e-07
2.71783e-06
-1.63661e-07
2.75476e-06
-1.58191e-07
2.78993e-06
-1.49959e-07
2.82275e-06
-1.39698e-07
2.85281e-06
-1.28201e-07
2.87991e-06
-1.16252e-07
2.90402e-06
-1.04543e-07
2.9253e-06
-9.36178e-08
2.94401e-06
-8.38555e-08
2.96051e-06
-7.54748e-08
2.97519e-06
-6.85002e-08
2.98836e-06
-6.27212e-08
3.00021e-06
-5.78005e-08
3.01084e-06
-5.34451e-08
3.02031e-06
-4.94987e-08
3.02857e-06
-4.59382e-08
3.0356e-06
-4.27254e-08
3.04144e-06
-4.00432e-08
3.04624e-06
-3.81379e-08
3.05012e-06
-3.71629e-08
3.05328e-06
-3.74722e-08
3.05613e-06
-3.95354e-08
3.05938e-06
-4.37642e-08
3.06362e-06
-5.00245e-08
3.06949e-06
-5.82805e-08
3.07758e-06
-6.82752e-08
3.08837e-06
-7.95823e-08
3.10216e-06
-9.15709e-08
3.11901e-06
-1.0351e-07
3.13876e-06
-1.1463e-07
3.16099e-06
-1.24175e-07
3.18513e-06
-1.31495e-07
3.21045e-06
-1.36101e-07
3.23617e-06
-1.37712e-07
3.26154e-06
-1.36251e-07
3.28583e-06
-1.31804e-07
3.30845e-06
-1.2458e-07
3.32886e-06
-1.14909e-07
3.34666e-06
-1.03201e-07
3.36158e-06
-8.99405e-08
3.37345e-06
-7.5626e-08
3.38223e-06
-6.07566e-08
3.38799e-06
-4.5805e-08
3.39087e-06
-3.11671e-08
3.39112e-06
-1.72142e-08
3.38901e-06
-4.24533e-09
3.38484e-06
7.52676e-09
3.37891e-06
1.79461e-08
3.37155e-06
2.68657e-08
3.36305e-06
3.41458e-08
3.35373e-06
3.96676e-08