/*--------------------------------*- C++ -*----------------------------------*\
| =========                 |                                                 |
| \\      /  F ield         | OpenFOAM: The Open Source CFD Toolbox           |
|  \\    /   O peration     | Version:  2206                                  |
|   \\  /    A nd           | Website:  www.openfoam.com                      |
|    \\/     M anipulation  |                                                 |
\*---------------------------------------------------------------------------*/
FoamFile
{
    version     2.0;
    format      ascii;
    arch        "LSB;label=32;scalar=64";
    class       volVectorField;
    location    "18.0999";
    object      U_0;
}
// * * * * * * * * * * * * * * * * * * * * * * * * * * * * * * * * * * * * * //

dimensions      [0 1 -1 0 0 0 0];

internalField   nonuniform List<vector> 
3025
(
(1.7342 0.490989 0)
(1.69463 0.465681 0)
(1.65844 0.430402 0)
(1.62666 0.383196 0)
(1.60008 0.32367 0)
(1.57928 0.252892 0)
(1.56471 0.173027 0)
(1.55661 0.0869928 0)
(1.55495 -0.00169253 0)
(1.55931 -0.0893344 0)
(1.56905 -0.173387 0)
(1.58339 -0.251644 0)
(1.60133 -0.322358 0)
(1.62184 -0.384314 0)
(1.64391 -0.436868 0)
(1.66662 -0.479904 0)
(1.68919 -0.513686 0)
(1.71101 -0.5387 0)
(1.73169 -0.555484 0)
(1.75153 -0.564181 0)
(1.77112 -0.563744 0)
(1.79001 -0.552973 0)
(1.80854 -0.531308 0)
(1.82686 -0.49829 0)
(1.84508 -0.453576 0)
(1.8633 -0.397108 0)
(1.88142 -0.329282 0)
(1.89926 -0.251112 0)
(1.91651 -0.164351 0)
(1.93271 -0.0717887 0)
(1.94695 0.0220649 0)
(1.95841 0.11296 0)
(1.96662 0.197748 0)
(1.97113 0.273787 0)
(1.97168 0.339048 0)
(1.96813 0.392318 0)
(1.96057 0.433174 0)
(1.94929 0.461821 0)
(1.93385 0.478825 0)
(1.91372 0.484384 0)
(1.8898 0.480044 0)
(1.86271 0.468276 0)
(1.83358 0.450917 0)
(1.8036 0.429119 0)
(1.77384 0.403284 0)
(1.74522 0.373189 0)
(1.71844 0.338295 0)
(1.69404 0.298051 0)
(1.67247 0.252107 0)
(1.65416 0.200438 0)
(1.63953 0.143427 0)
(1.62893 0.0819244 0)
(1.62262 0.0172756 0)
(1.62071 -0.0485538 0)
(1.62304 -0.113303 0)
(1.62928 -0.175192 0)
(1.63898 -0.232547 0)
(1.65153 -0.283934 0)
(1.66629 -0.328274 0)
(1.68257 -0.364877 0)
(1.69969 -0.393466 0)
(1.71707 -0.414107 0)
(1.73439 -0.427006 0)
(1.75197 -0.43194 0)
(1.76956 -0.42811 0)
(1.78685 -0.415375 0)
(1.80379 -0.393971 0)
(1.82024 -0.364252 0)
(1.83623 -0.326611 0)
(1.85175 -0.28148 0)
(1.86678 -0.22938 0)
(1.88123 -0.171013 0)
(1.89493 -0.107405 0)
(1.9076 -0.0402126 0)
(1.91857 0.0277061 0)
(1.92727 0.0936216 0)
(1.93331 0.155385 0)
(1.93635 0.211103 0)
(1.93615 0.259303 0)
(1.93261 0.299033 0)
(1.92585 0.329871 0)
(1.91611 0.351831 0)
(1.90319 0.36518 0)
(1.88683 0.369871 0)
(1.86779 0.366675 0)
(1.84657 0.35703 0)
(1.82409 0.342057 0)
(1.80129 0.322606 0)
(1.77902 0.299196 0)
(1.75794 0.272008 0)
(1.73856 0.241013 0)
(1.72127 0.206133 0)
(1.70637 0.167365 0)
(1.69415 0.124882 0)
(1.68483 0.0791103 0)
(1.67859 0.0307985 0)
(1.67556 -0.0188628 0)
(1.6757 -0.0682118 0)
(1.67884 -0.115888 0)
(1.6847 -0.160619 0)
(1.69291 -0.201244 0)
(1.70303 -0.236805 0)
(1.71455 -0.266632 0)
(1.727 -0.29037 0)
(1.73993 -0.307949 0)
(1.75301 -0.319466 0)
(1.76641 -0.324808 0)
(1.78014 -0.323325 0)
(1.79383 -0.314754 0)
(1.80739 -0.299239 0)
(1.82062 -0.27712 0)
(1.8334 -0.248847 0)
(1.84571 -0.214913 0)
(1.8575 -0.17586 0)
(1.86875 -0.132316 0)
(1.87938 -0.0850878 0)
(1.88919 -0.0353827 0)
(1.89771 0.0147558 0)
(1.90447 0.0634435 0)
(1.90916 0.109199 0)
(1.9115 0.150747 0)
(1.73178 0.529338 0)
(1.6968 0.501468 0)
(1.66479 0.462514 0)
(1.63673 0.410751 0)
(1.61342 0.345975 0)
(1.59549 0.269384 0)
(1.58343 0.183329 0)
(1.57753 0.0909922 0)
(1.5777 -0.00377976 0)
(1.58347 -0.0969446 0)
(1.59415 -0.185778 0)
(1.60882 -0.267858 0)
(1.62645 -0.341369 0)
(1.64598 -0.405087 0)
(1.66643 -0.458426 0)
(1.68689 -0.50139 0)
(1.70659 -0.534396 0)
(1.72492 -0.558163 0)
(1.7414 -0.573629 0)
(1.75632 -0.581357 0)
(1.77065 -0.580278 0)
(1.7838 -0.568859 0)
(1.79622 -0.546716 0)
(1.8083 -0.513509 0)
(1.82036 -0.468821 0)
(1.83267 -0.412463 0)
(1.84532 -0.344702 0)
(1.8583 -0.266415 0)
(1.87146 -0.179238 0)
(1.88452 -0.0857818 0)
(1.89683 0.0098863 0)
(1.90757 0.103171 0)
(1.91621 0.190867 0)
(1.92225 0.270217 0)
(1.92528 0.339052 0)
(1.92502 0.396015 0)
(1.92135 0.440549 0)
(1.9144 0.472805 0)
(1.90433 0.493487 0)
(1.89025 0.503319 0)
(1.87235 0.502628 0)
(1.85123 0.493543 0)
(1.8277 0.47785 0)
(1.80287 0.456614 0)
(1.77781 0.430345 0)
(1.75341 0.399015 0)
(1.73038 0.362251 0)
(1.70929 0.319613 0)
(1.69064 0.27081 0)
(1.67491 0.215851 0)
(1.66249 0.155162 0)
(1.65375 0.0896737 0)
(1.64892 0.020855 0)
(1.64807 -0.049112 0)
(1.65102 -0.117744 0)
(1.65739 -0.183109 0)
(1.66672 -0.243404 0)
(1.67844 -0.297109 0)
(1.69189 -0.343089 0)
(1.7064 -0.380635 0)
(1.72128 -0.409541 0)
(1.73592 -0.430075 0)
(1.74997 -0.442756 0)
(1.76389 -0.447635 0)
(1.7776 -0.443644 0)
(1.79068 -0.430464 0)
(1.80321 -0.408527 0)
(1.81519 -0.378323 0)
(1.82678 -0.340275 0)
(1.8381 -0.294783 0)
(1.84923 -0.242307 0)
(1.86018 -0.183477 0)
(1.87087 -0.119234 0)
(1.88113 -0.0510838 0)
(1.89051 0.0184491 0)
(1.89843 0.0863906 0)
(1.90452 0.150568 0)
(1.90844 0.209013 0)
(1.90987 0.260138 0)
(1.90862 0.30285 0)
(1.90467 0.336592 0)
(1.8982 0.361307 0)
(1.88941 0.377351 0)
(1.87771 0.385085 0)
(1.86332 0.38444 0)
(1.84673 0.376597 0)
(1.82854 0.36261 0)
(1.80969 0.343283 0)
(1.79101 0.319241 0)
(1.77315 0.290817 0)
(1.75663 0.258117 0)
(1.74187 0.221161 0)
(1.72918 0.180014 0)
(1.71886 0.1349 0)
(1.71112 0.0862889 0)
(1.70615 0.0349879 0)
(1.70402 -0.0177112 0)
(1.7047 -0.0699791 0)
(1.70799 -0.120348 0)
(1.7136 -0.167447 0)
(1.72117 -0.210029 0)
(1.73029 -0.247077 0)
(1.74047 -0.277902 0)
(1.75125 -0.302174 0)
(1.76216 -0.319918 0)
(1.77281 -0.331437 0)
(1.7834 -0.336906 0)
(1.79421 -0.335583 0)
(1.80481 -0.3269 0)
(1.81512 -0.311055 0)
(1.82502 -0.288522 0)
(1.83449 -0.259818 0)
(1.84362 -0.225462 0)
(1.85243 -0.185992 0)
(1.86097 -0.142 0)
(1.86922 -0.0942302 0)
(1.87709 -0.0437647 0)
(1.88423 0.00762205 0)
(1.89024 0.0578836 0)
(1.89483 0.105525 0)
(1.8977 0.149193 0)
(1.73114 0.562643 0)
(1.70131 0.532592 0)
(1.67402 0.490405 0)
(1.65024 0.434545 0)
(1.63078 0.364936 0)
(1.61627 0.282931 0)
(1.60723 0.191062 0)
(1.60391 0.092797 0)
(1.60617 -0.00758396 0)
(1.61346 -0.105765 0)
(1.62501 -0.198755 0)
(1.6398 -0.28396 0)
(1.6568 -0.359566 0)
(1.67495 -0.424351 0)
(1.69327 -0.47782 0)
(1.71096 -0.520114 0)
(1.72735 -0.551771 0)
(1.74186 -0.573662 0)
(1.75405 -0.587167 0)
(1.7639 -0.593481 0)
(1.7727 -0.591222 0)
(1.7799 -0.578707 0)
(1.78602 -0.555867 0)
(1.79169 -0.522439 0)
(1.79747 -0.477938 0)
(1.80376 -0.422028 0)
(1.81081 -0.354826 0)
(1.81874 -0.277097 0)
(1.82759 -0.190364 0)
(1.83724 -0.0970285 0)
(1.84725 -0.000774563 0)
(1.85692 0.0936982 0)
(1.86568 0.183136 0)
(1.87297 0.264754 0)
(1.87826 0.336277 0)
(1.88109 0.396198 0)
(1.88119 0.443803 0)
(1.87846 0.479136 0)
(1.87305 0.502857 0)
(1.86487 0.516062 0)
(1.85289 0.519185 0)
(1.83786 0.513001 0)
(1.8201 0.499303 0)
(1.80066 0.479007 0)
(1.78065 0.452727 0)
(1.7609 0.420607 0)
(1.7421 0.382408 0)
(1.72484 0.337785 0)
(1.70964 0.286502 0)
(1.69698 0.228622 0)
(1.68725 0.164637 0)
(1.68078 0.0955657 0)
(1.67777 0.0230101 0)
(1.67822 -0.0505988 0)
(1.68188 -0.122583 0)
(1.68837 -0.190879 0)
(1.69721 -0.253587 0)
(1.70786 -0.309111 0)
(1.71973 -0.35626 0)
(1.73215 -0.394274 0)
(1.74451 -0.423025 0)
(1.7562 -0.442971 0)
(1.7667 -0.454956 0)
(1.77668 -0.45941 0)
(1.78628 -0.454982 0)
(1.79492 -0.441119 0)
(1.80272 -0.418524 0)
(1.80995 -0.387843 0)
(1.8169 -0.349525 0)
(1.82383 -0.303924 0)
(1.83089 -0.251429 0)
(1.83818 -0.192594 0)
(1.84572 -0.128277 0)
(1.85341 -0.0598202 0)
(1.86096 0.0105165 0)
(1.86789 0.0796604 0)
(1.87381 0.145411 0)
(1.87836 0.205786 0)
(1.8812 0.25912 0)
(1.88206 0.304192 0)
(1.88079 0.340309 0)
(1.87738 0.36733 0)
(1.87211 0.385576 0)
(1.865 0.395695 0)
(1.85527 0.39775 0)
(1.84349 0.391925 0)
(1.82987 0.379135 0)
(1.81525 0.360146 0)
(1.80052 0.335738 0)
(1.78628 0.306388 0)
(1.77304 0.272305 0)
(1.76121 0.233596 0)
(1.75114 0.190395 0)
(1.7431 0.142979 0)
(1.73729 0.0918737 0)
(1.73387 0.0379505 0)
(1.73289 -0.017383 0)
(1.73424 -0.0721344 0)
(1.7377 -0.124752 0)
(1.743 -0.173787 0)
(1.74981 -0.217928 0)
(1.75774 -0.256105 0)
(1.76638 -0.287597 0)
(1.7753 -0.312068 0)
(1.78404 -0.329616 0)
(1.79213 -0.340757 0)
(1.79969 -0.346046 0)
(1.80742 -0.344733 0)
(1.81477 -0.335769 0)
(1.82162 -0.319477 0)
(1.82794 -0.296507 0)
(1.8339 -0.267458 0)
(1.83967 -0.232857 0)
(1.84538 -0.193214 0)
(1.85112 -0.149087 0)
(1.8569 -0.101164 0)
(1.86269 -0.0503986 0)
(1.86831 0.00164988 0)
(1.87339 0.0528729 0)
(1.87767 0.10176 0)
(1.88086 0.146924 0)
(1.73311 0.590371 0)
(1.70891 0.558505 0)
(1.6869 0.513514 0)
(1.66802 0.453986 0)
(1.65302 0.379968 0)
(1.64252 0.293009 0)
(1.63697 0.195805 0)
(1.63658 0.0921354 0)
(1.64111 -0.0132481 0)
(1.6499 -0.115737 0)
(1.66211 -0.212096 0)
(1.67673 -0.299634 0)
(1.69273 -0.376526 0)
(1.70901 -0.441566 0)
(1.72464 -0.494429 0)
(1.73892 -0.53542 0)
(1.75135 -0.565235 0)
(1.76153 -0.584846 0)
(1.76914 -0.595647 0)
(1.77431 -0.599463 0)
(1.77752 -0.596248 0)
(1.77833 -0.582037 0)
(1.778 -0.558466 0)
(1.7773 -0.52499 0)
(1.77683 -0.480893 0)
(1.77714 -0.425763 0)
(1.77862 -0.359608 0)
(1.78152 -0.283075 0)
(1.78602 -0.197547 0)
(1.79213 -0.105261 0)
(1.79962 -0.0096119 0)
(1.8079 0.0848963 0)
(1.81641 0.174941 0)
(1.82455 0.25773 0)
(1.83171 0.33098 0)
(1.83734 0.393077 0)
(1.84098 0.443143 0)
(1.84229 0.481059 0)
(1.84119 0.507337 0)
(1.838 0.522958 0)
(1.83227 0.529373 0)
(1.82328 0.526435 0)
(1.8114 0.515054 0)
(1.79751 0.496026 0)
(1.78283 0.470079 0)
(1.7681 0.437544 0)
(1.75393 0.398302 0)
(1.74093 0.352075 0)
(1.72964 0.298691 0)
(1.72049 0.238283 0)
(1.71386 0.17143 0)
(1.71001 0.099245 0)
(1.7091 0.0234775 0)
(1.71103 -0.0531562 0)
(1.71548 -0.127837 0)
(1.72205 -0.198406 0)
(1.73025 -0.262883 0)
(1.73956 -0.319616 0)
(1.74945 -0.36739 0)
(1.75937 -0.405406 0)
(1.76887 -0.433593 0)
(1.77747 -0.452531 0)
(1.78444 -0.463403 0)
(1.79017 -0.467185 0)
(1.79537 -0.461851 0)
(1.79931 -0.446792 0)
(1.80211 -0.423482 0)
(1.80442 -0.392499 0)
(1.80661 -0.354163 0)
(1.80903 -0.30877 0)
(1.81194 -0.25664 0)
(1.8155 -0.198254 0)
(1.81979 -0.13438 0)
(1.82482 -0.0662627 0)
(1.83041 0.00405508 0)
(1.83618 0.0736103 0)
(1.84175 0.140136 0)
(1.84676 0.201644 0)
(1.85081 0.256447 0)
(1.85358 0.303253 0)
(1.85483 0.341233 0)
(1.85443 0.370077 0)
(1.85245 0.389969 0)
(1.84933 0.401526 0)
(1.84464 0.405752 0)
(1.83756 0.402074 0)
(1.82841 0.390825 0)
(1.81812 0.372594 0)
(1.8076 0.348214 0)
(1.79731 0.318305 0)
(1.7877 0.283193 0)
(1.77918 0.243076 0)
(1.77206 0.198163 0)
(1.76661 0.148801 0)
(1.76302 0.0955794 0)
(1.76141 0.0394521 0)
(1.76175 -0.0180341 0)
(1.76388 -0.0747418 0)
(1.76756 -0.129075 0)
(1.7725 -0.17953 0)
(1.7784 -0.224752 0)
(1.78491 -0.263641 0)
(1.79174 -0.295458 0)
(1.79854 -0.319829 0)
(1.80496 -0.33688 0)
(1.81051 -0.347316 0)
(1.81495 -0.352123 0)
(1.81941 -0.350693 0)
(1.82332 -0.341127 0)
(1.82643 -0.324159 0)
(1.829 -0.300792 0)
(1.83138 -0.271565 0)
(1.83377 -0.236956 0)
(1.83632 -0.19743 0)
(1.83918 -0.153492 0)
(1.84242 -0.105773 0)
(1.84608 -0.0551578 0)
(1.85005 -0.00303956 0)
(1.85408 0.0485565 0)
(1.8579 0.0980725 0)
(1.86126 0.144129 0)
(1.73834 0.61209 0)
(1.72025 0.578714 0)
(1.70412 0.531271 0)
(1.69075 0.468435 0)
(1.68083 0.390478 0)
(1.67489 0.299094 0)
(1.67329 0.197161 0)
(1.67613 0.0887566 0)
(1.68301 -0.0207968 0)
(1.69318 -0.126714 0)
(1.70579 -0.225557 0)
(1.71986 -0.314585 0)
(1.73434 -0.391839 0)
(1.74826 -0.456276 0)
(1.76071 -0.507737 0)
(1.77108 -0.54682 0)
(1.77899 -0.574341 0)
(1.78434 -0.591491 0)
(1.78717 -0.599854 0)
(1.78742 -0.601547 0)
(1.78427 -0.59562 0)
(1.77876 -0.579326 0)
(1.77206 -0.554757 0)
(1.76512 -0.521236 0)
(1.75863 -0.477796 0)
(1.75317 -0.423791 0)
(1.74925 -0.359138 0)
(1.74726 -0.284383 0)
(1.74749 -0.200795 0)
(1.7501 -0.110455 0)
(1.75501 -0.0164167 0)
(1.76176 0.0770297 0)
(1.76979 0.166551 0)
(1.77853 0.249494 0)
(1.78728 0.323502 0)
(1.79536 0.386923 0)
(1.8022 0.438811 0)
(1.80735 0.478886 0)
(1.81056 0.507517 0)
(1.81191 0.525416 0)
(1.81157 0.533509 0)
(1.80858 0.53409 0)
(1.80247 0.525282 0)
(1.7941 0.507462 0)
(1.78487 0.482109 0)
(1.77537 0.449498 0)
(1.76613 0.409565 0)
(1.75776 0.362087 0)
(1.75074 0.306971 0)
(1.74548 0.244452 0)
(1.74226 0.175203 0)
(1.74132 0.100432 0)
(1.74271 0.0220628 0)
(1.74624 -0.056897 0)
(1.75153 -0.133533 0)
(1.75816 -0.205609 0)
(1.76561 -0.271088 0)
(1.77335 -0.328311 0)
(1.78089 -0.376068 0)
(1.78784 -0.413674 0)
(1.79394 -0.441027 0)
(1.79895 -0.458536 0)
(1.80252 -0.467383 0)
(1.80432 -0.469672 0)
(1.80475 -0.464522 0)
(1.80346 -0.447911 0)
(1.80127 -0.423625 0)
(1.79858 -0.392278 0)
(1.79596 -0.354098 0)
(1.79385 -0.30922 0)
(1.79258 -0.257851 0)
(1.79238 -0.200383 0)
(1.79341 -0.137508 0)
(1.79575 -0.0703641 0)
(1.79933 -0.000781036 0)
(1.80384 0.0683917 0)
(1.80893 0.134882 0)
(1.81422 0.196768 0)
(1.81931 0.252313 0)
(1.82382 0.300174 0)
(1.82744 0.339436 0)
(1.82997 0.369697 0)
(1.83135 0.391013 0)
(1.83175 0.403819 0)
(1.83126 0.408956 0)
(1.82894 0.408522 0)
(1.8244 0.398611 0)
(1.81857 0.380839 0)
(1.8124 0.356539 0)
(1.80627 0.326286 0)
(1.80053 0.29044 0)
(1.79557 0.249247 0)
(1.79167 0.20298 0)
(1.78907 0.152055 0)
(1.78791 0.0971403 0)
(1.78826 0.0392882 0)
(1.79006 -0.0198111 0)
(1.79306 -0.0778962 0)
(1.79702 -0.133343 0)
(1.80162 -0.184606 0)
(1.80654 -0.230333 0)
(1.81148 -0.269449 0)
(1.81618 -0.301206 0)
(1.82047 -0.325217 0)
(1.8242 -0.341538 0)
(1.82714 -0.350798 0)
(1.82899 -0.354279 0)
(1.83001 -0.35333 0)
(1.83007 -0.342816 0)
(1.82928 -0.325169 0)
(1.82812 -0.301458 0)
(1.8268 -0.272174 0)
(1.82567 -0.237748 0)
(1.82499 -0.198588 0)
(1.82495 -0.155152 0)
(1.82566 -0.108019 0)
(1.8272 -0.0579949 0)
(1.82953 -0.00632669 0)
(1.83245 0.0450617 0)
(1.83575 0.094605 0)
(1.83916 0.140952 0)
(-0.0816074 0.00275257 0)
(-0.0843472 0.00161313 0)
(-0.0846899 0.000193488 0)
(-0.082573 -0.00126976 0)
(-0.0779784 -0.00254484 0)
(-0.0710651 -0.00360564 0)
(-0.0623329 -0.00421462 0)
(-0.0526369 -0.00453113 0)
(-0.0425298 -0.00455907 0)
(-0.0325785 -0.0043114 0)
(-0.0233219 -0.00382328 0)
(-0.0151847 -0.00313152 0)
(-0.00853838 -0.00229815 0)
(-0.00360273 -0.00140066 0)
(-0.000513692 -0.000547814 0)
(0.000865338 0.00024237 0)
(0.000897966 0.000890509 0)
(-0.000271743 0.00129004 0)
(-0.00211689 0.00156156 0)
(-0.00410141 0.00159656 0)
(-0.00583911 0.00138737 0)
(-0.00689443 0.000979917 0)
(-0.0069406 0.000390104 0)
(-0.00595874 -0.000242917 0)
(-0.00399777 -0.000767649 0)
(-0.00124785 -0.0011378 0)
(0.00215525 -0.00127559 0)
(0.00585655 -0.00128794 0)
(0.00933721 -0.00115463 0)
(0.0124208 -0.000900819 0)
(0.0149207 -0.000571219 0)
(0.0167242 -0.000209987 0)
(0.0177857 0.000133885 0)
(0.0181628 0.000444213 0)
(0.0180219 0.000699916 0)
(0.0175097 0.000873659 0)
(0.0168259 0.000928863 0)
(0.0161647 0.00086199 0)
(0.0157731 0.000686952 0)
(0.0158104 0.00041495 0)
(0.0163372 0.000106459 0)
(0.0174131 -0.000206341 0)
(0.0190511 -0.000500451 0)
(0.021217 -0.000753411 0)
(0.0238321 -0.00094894 0)
(0.0267923 -0.00108039 0)
(0.0299741 -0.00114811 0)
(0.0332518 -0.00115805 0)
(0.0365124 -0.00112215 0)
(0.0396683 -0.00105621 0)
(0.0426666 -0.000977061 0)
(0.045488 -0.000899251 0)
(0.0481414 -0.000836442 0)
(0.0506532 -0.000797972 0)
(0.0530627 -0.000783958 0)
(0.0554189 -0.00079068 0)
(0.0577767 -0.000819293 0)
(0.0601925 -0.000870516 0)
(0.0627142 -0.000938456 0)
(0.0653725 -0.00101155 0)
(0.0681726 -0.00107665 0)
(0.0710934 -0.0011226 0)
(0.0740906 -0.00114073 0)
(0.0770979 -0.00112394 0)
(0.0800357 -0.00106833 0)
(0.0828213 -0.000974295 0)
(0.0853772 -0.000844993 0)
(0.0876289 -0.000687781 0)
(0.0895263 -0.000512058 0)
(0.0910343 -0.000327303 0)
(0.0921376 -0.000144282 0)
(0.0928431 2.72667e-05 0)
(0.0931833 0.00018532 0)
(0.0932119 0.000331187 0)
(0.0929904 0.000441202 0)
(0.0925866 0.000514756 0)
(0.092064 0.00055644 0)
(0.0914851 0.000569788 0)
(0.0909035 0.000560839 0)
(0.0903612 0.000536933 0)
(0.0898865 0.000504249 0)
(0.0894977 0.00046787 0)
(0.0892028 0.000430808 0)
(0.0890032 0.000394078 0)
(0.0889003 0.000356797 0)
(0.0888864 0.000313015 0)
(0.0889531 0.000262545 0)
(0.0890962 0.000211208 0)
(0.0893227 0.000154977 0)
(0.0896436 9.13582e-05 0)
(0.0900762 1.76452e-05 0)
(0.0906436 -6.7731e-05 0)
(0.0913724 -0.000165284 0)
(0.0922888 -0.000274165 0)
(0.093416 -0.000391702 0)
(0.0947718 -0.000514561 0)
(0.0963668 -0.000639106 0)
(0.098204 -0.000761037 0)
(0.100276 -0.000875076 0)
(0.102566 -0.000975499 0)
(0.105041 -0.00105659 0)
(0.107657 -0.00111322 0)
(0.110359 -0.00114246 0)
(0.113089 -0.00114373 0)
(0.115786 -0.00111796 0)
(0.118391 -0.00106634 0)
(0.120849 -0.000989901 0)
(0.123107 -0.000890617 0)
(0.125118 -0.000772371 0)
(0.126847 -0.000640138 0)
(0.128268 -0.00049911 0)
(0.129369 -0.000354422 0)
(0.130147 -0.000211883 0)
(0.130611 -7.48285e-05 0)
(0.130781 5.98165e-05 0)
(0.130692 0.000193629 0)
(0.130375 0.00030553 0)
(0.129854 0.000400641 0)
(0.12916 0.000480286 0)
(0.128322 0.000545785 0)
(0.127367 0.000598673 0)
(-0.0212344 0.00460118 0)
(-0.0211717 0.00129152 0)
(-0.0187088 -0.00258385 0)
(-0.013642 -0.0064846 0)
(-0.00620166 -0.00996051 0)
(0.00340715 -0.0127081 0)
(0.0145244 -0.0145379 0)
(0.0263081 -0.0154255 0)
(0.0383487 -0.0154507 0)
(0.0500608 -0.0146826 0)
(0.0609763 -0.0132169 0)
(0.0706815 -0.0111753 0)
(0.078854 -0.00874162 0)
(0.0853241 -0.00614697 0)
(0.0900781 -0.00367438 0)
(0.0932603 -0.00147024 0)
(0.0951692 0.000277872 0)
(0.0962043 0.0014476 0)
(0.0967921 0.0020131 0)
(0.0973491 0.00193376 0)
(0.0982524 0.00121091 0)
(0.0998778 -1.51304e-05 0)
(0.10234 -0.00154957 0)
(0.105851 -0.00313156 0)
(0.110333 -0.00448239 0)
(0.115493 -0.00543954 0)
(0.121069 -0.00583844 0)
(0.126738 -0.0058055 0)
(0.132151 -0.00535402 0)
(0.13708 -0.00456545 0)
(0.141363 -0.0035665 0)
(0.144926 -0.00248953 0)
(0.147793 -0.00146098 0)
(0.15007 -0.000602714 0)
(0.151882 2.428e-05 0)
(0.15343 0.000372406 0)
(0.154926 0.000444112 0)
(0.156532 0.000211669 0)
(0.158383 -0.000319233 0)
(0.160616 -0.0010855 0)
(0.163397 -0.00196452 0)
(0.166754 -0.00286482 0)
(0.170665 -0.00371179 0)
(0.175075 -0.00444108 0)
(0.179886 -0.00500545 0)
(0.184975 -0.005382 0)
(0.190214 -0.00556532 0)
(0.195471 -0.00556408 0)
(0.200619 -0.00541802 0)
(0.205591 -0.00517421 0)
(0.210343 -0.00488556 0)
(0.214868 -0.00459853 0)
(0.219184 -0.00434545 0)
(0.223322 -0.00415072 0)
(0.227332 -0.00403205 0)
(0.231271 -0.003999 0)
(0.235197 -0.00405195 0)
(0.239169 -0.00418351 0)
(0.243232 -0.00437329 0)
(0.24742 -0.00458538 0)
(0.251732 -0.00477793 0)
(0.256139 -0.00490812 0)
(0.260583 -0.00494049 0)
(0.264979 -0.00485523 0)
(0.269245 -0.00464707 0)
(0.273295 -0.00432177 0)
(0.277051 -0.00389197 0)
(0.280445 -0.00337502 0)
(0.283427 -0.00279516 0)
(0.285967 -0.00218224 0)
(0.288059 -0.00157074 0)
(0.289726 -0.000997412 0)
(0.291018 -0.000488778 0)
(0.291987 -5.74534e-05 0)
(0.29271 0.000261096 0)
(0.293269 0.000465118 0)
(0.293746 0.000574248 0)
(0.294211 0.000596384 0)
(0.294715 0.000549249 0)
(0.295302 0.000450345 0)
(0.295994 0.000318732 0)
(0.296803 0.000170188 0)
(0.297726 1.80308e-05 0)
(0.298757 -0.000129916 0)
(0.299884 -0.000269826 0)
(0.301097 -0.0004033 0)
(0.302397 -0.000537603 0)
(0.303778 -0.000674956 0)
(0.305237 -0.000820468 0)
(0.306779 -0.000982752 0)
(0.308418 -0.0011741 0)
(0.310178 -0.0014015 0)
(0.312085 -0.00166586 0)
(0.314163 -0.0019645 0)
(0.316435 -0.00228993 0)
(0.318916 -0.00263148 0)
(0.321612 -0.00297777 0)
(0.324524 -0.00331684 0)
(0.327642 -0.00363408 0)
(0.330944 -0.00391129 0)
(0.334393 -0.00412838 0)
(0.33794 -0.00426761 0)
(0.34152 -0.00431879 0)
(0.345068 -0.00428038 0)
(0.348522 -0.00415525 0)
(0.351822 -0.00394628 0)
(0.35491 -0.00365707 0)
(0.357733 -0.00329519 0)
(0.360244 -0.00287371 0)
(0.362409 -0.00240952 0)
(0.364207 -0.00192134 0)
(0.365632 -0.0014284 0)
(0.366691 -0.000947435 0)
(0.367406 -0.000492528 0)
(0.367811 -7.07318e-05 0)
(0.367932 0.000318292 0)
(0.367802 0.000655385 0)
(0.367471 0.000931482 0)
(0.366981 0.00115744 0)
(0.366368 0.00133806 0)
(0.365664 0.00147705 0)
(0.182936 0.00479995 0)
(0.183861 -0.000951203 0)
(0.186952 -0.00730218 0)
(0.192471 -0.0135253 0)
(0.200271 -0.0190774 0)
(0.210033 -0.0233551 0)
(0.221141 -0.0262691 0)
(0.23291 -0.0276055 0)
(0.244844 -0.0275358 0)
(0.256543 -0.0262662 0)
(0.267682 -0.0239369 0)
(0.27792 -0.020634 0)
(0.286951 -0.0166326 0)
(0.294599 -0.0123464 0)
(0.300862 -0.0081767 0)
(0.305817 -0.00454431 0)
(0.309692 -0.00167243 0)
(0.312648 0.000279536 0)
(0.315109 0.00109171 0)
(0.317481 0.000902816 0)
(0.319944 -0.000491515 0)
(0.322693 -0.00280017 0)
(0.32608 -0.00545922 0)
(0.330343 -0.00803939 0)
(0.335441 -0.0101882 0)
(0.341168 -0.0116737 0)
(0.347248 -0.0123025 0)
(0.353402 -0.0121021 0)
(0.359339 -0.0112259 0)
(0.364856 -0.00984415 0)
(0.369807 -0.00816226 0)
(0.374135 -0.00640052 0)
(0.377866 -0.00476165 0)
(0.381094 -0.00341604 0)
(0.383906 -0.00249102 0)
(0.38642 -0.00202942 0)
(0.388838 -0.00205003 0)
(0.39129 -0.00256003 0)
(0.393922 -0.00349242 0)
(0.396878 -0.00469521 0)
(0.400252 -0.00602536 0)
(0.404077 -0.00737048 0)
(0.408346 -0.00862738 0)
(0.413017 -0.00970028 0)
(0.418015 -0.0105138 0)
(0.423247 -0.0110352 0)
(0.428613 -0.0112509 0)
(0.434003 -0.0111558 0)
(0.439276 -0.01083 0)
(0.444383 -0.0103735 0)
(0.449284 -0.00987504 0)
(0.45397 -0.00940814 0)
(0.45846 -0.00901816 0)
(0.462789 -0.00872882 0)
(0.466997 -0.0085513 0)
(0.47113 -0.00849282 0)
(0.475229 -0.00855865 0)
(0.479352 -0.00874603 0)
(0.483537 -0.00902845 0)
(0.487818 -0.00934851 0)
(0.492205 -0.00963326 0)
(0.496675 -0.00981217 0)
(0.501164 -0.00982811 0)
(0.505595 -0.0096476 0)
(0.50989 -0.00926024 0)
(0.513981 -0.00866767 0)
(0.517803 -0.00788775 0)
(0.521299 -0.00695839 0)
(0.524419 -0.00592877 0)
(0.527127 -0.00485531 0)
(0.529415 -0.00380068 0)
(0.531302 -0.00282491 0)
(0.532835 -0.00197771 0)
(0.53408 -0.00130264 0)
(0.53511 -0.000814831 0)
(0.535999 -0.000507975 0)
(0.536817 -0.00036693 0)
(0.537628 -0.000381588 0)
(0.538484 -0.000522548 0)
(0.539432 -0.000747234 0)
(0.540491 -0.00101278 0)
(0.541662 -0.00128424 0)
(0.542931 -0.00153995 0)
(0.544286 -0.00177311 0)
(0.545715 -0.00198333 0)
(0.54721 -0.00217158 0)
(0.548762 -0.00234395 0)
(0.550364 -0.00251573 0)
(0.552011 -0.00270284 0)
(0.553703 -0.00292226 0)
(0.555453 -0.00319294 0)
(0.557286 -0.00352936 0)
(0.55923 -0.00393675 0)
(0.561313 -0.00440954 0)
(0.563558 -0.00493282 0)
(0.565982 -0.00548659 0)
(0.568592 -0.00605107 0)
(0.571392 -0.00660604 0)
(0.574381 -0.00712639 0)
(0.577547 -0.00757959 0)
(0.580864 -0.00792785 0)
(0.584284 -0.0081368 0)
(0.587747 -0.0081862 0)
(0.591184 -0.00807518 0)
(0.594539 -0.0078134 0)
(0.597761 -0.00740788 0)
(0.600798 -0.00686412 0)
(0.603597 -0.00619521 0)
(0.606107 -0.00542509 0)
(0.608287 -0.00458598 0)
(0.610113 -0.00371161 0)
(0.611577 -0.00283549 0)
(0.612689 -0.00198953 0)
(0.613471 -0.00119938 0)
(0.613955 -0.000485016 0)
(0.614179 0.000142772 0)
(0.61418 0.000682538 0)
(0.613999 0.00113207 0)
(0.613671 0.00149052 0)
(0.613235 0.00176821 0)
(0.612722 0.00197583 0)
(0.486839 0.00468785 0)
(0.487669 -0.00296623 0)
(0.490735 -0.0117083 0)
(0.496066 -0.0204835 0)
(0.503441 -0.028375 0)
(0.512501 -0.0345605 0)
(0.522587 -0.0385163 0)
(0.533147 -0.0402619 0)
(0.54379 -0.040099 0)
(0.554389 -0.0382258 0)
(0.564949 -0.0348448 0)
(0.575255 -0.0302833 0)
(0.58486 -0.0250199 0)
(0.593607 -0.0195623 0)
(0.601477 -0.0144124 0)
(0.608454 -0.010002 0)
(0.614413 -0.00660945 0)
(0.619461 -0.00429801 0)
(0.623877 -0.00306999 0)
(0.627991 -0.00307907 0)
(0.631717 -0.00434984 0)
(0.635032 -0.00672061 0)
(0.63833 -0.00981102 0)
(0.642001 -0.0130186 0)
(0.646024 -0.0157211 0)
(0.650378 -0.0176184 0)
(0.654885 -0.0185117 0)
(0.65939 -0.018351 0)
(0.663802 -0.0172095 0)
(0.668095 -0.0153475 0)
(0.67225 -0.0130991 0)
(0.67618 -0.0107919 0)
(0.679871 -0.00865633 0)
(0.683329 -0.0068784 0)
(0.686593 -0.00556019 0)
(0.689732 -0.00475388 0)
(0.692811 -0.0044981 0)
(0.695919 -0.00484764 0)
(0.699058 -0.00580432 0)
(0.702236 -0.00724548 0)
(0.705457 -0.00898222 0)
(0.708735 -0.0108282 0)
(0.71209 -0.0126206 0)
(0.715546 -0.0142096 0)
(0.719108 -0.0154646 0)
(0.722783 -0.0163314 0)
(0.726591 -0.0167544 0)
(0.730475 -0.0167289 0)
(0.734388 -0.0163364 0)
(0.738319 -0.0156872 0)
(0.742274 -0.0149062 0)
(0.746273 -0.014108 0)
(0.750333 -0.013368 0)
(0.754444 -0.01275 0)
(0.758571 -0.0123152 0)
(0.762686 -0.0121012 0)
(0.766751 -0.0121116 0)
(0.770775 -0.0123275 0)
(0.774752 -0.0127085 0)
(0.778699 -0.0131746 0)
(0.782609 -0.0136117 0)
(0.786426 -0.0138999 0)
(0.790071 -0.0139479 0)
(0.79349 -0.0137077 0)
(0.796661 -0.013174 0)
(0.799579 -0.0123762 0)
(0.802228 -0.0113472 0)
(0.80457 -0.0101235 0)
(0.806595 -0.0087567 0)
(0.808306 -0.00731049 0)
(0.809713 -0.00586961 0)
(0.810846 -0.00452742 0)
(0.811754 -0.00335969 0)
(0.812492 -0.00241975 0)
(0.813117 -0.00173272 0)
(0.813679 -0.00129424 0)
(0.814232 -0.0010844 0)
(0.814815 -0.00108685 0)
(0.815457 -0.00125735 0)
(0.81618 -0.0015391 0)
(0.816975 -0.00188059 0)
(0.817815 -0.00223734 0)
(0.818669 -0.00258088 0)
(0.819519 -0.00290686 0)
(0.820366 -0.00321973 0)
(0.821221 -0.00351129 0)
(0.822095 -0.00377105 0)
(0.823 -0.00402062 0)
(0.82395 -0.00426639 0)
(0.824961 -0.0045228 0)
(0.826056 -0.00485162 0)
(0.827268 -0.00526706 0)
(0.828633 -0.00576622 0)
(0.830184 -0.00635119 0)
(0.831939 -0.00700526 0)
(0.833902 -0.00770044 0)
(0.836058 -0.00841378 0)
(0.838394 -0.00912623 0)
(0.840899 -0.00981087 0)
(0.843562 -0.0104238 0)
(0.846357 -0.010905 0)
(0.849231 -0.0111966 0)
(0.852105 -0.0112676 0)
(0.854909 -0.0111254 0)
(0.857594 -0.0107918 0)
(0.860128 -0.0102751 0)
(0.862476 -0.00957038 0)
(0.864599 -0.00868135 0)
(0.866456 -0.00763414 0)
(0.868014 -0.00647538 0)
(0.869255 -0.00525848 0)
(0.870177 -0.00403556 0)
(0.870792 -0.00285411 0)
(0.871125 -0.0017527 0)
(0.87121 -0.000757825 0)
(0.871082 0.000115245 0)
(0.870776 0.000859163 0)
(0.870329 0.00147261 0)
(0.869772 0.00196145 0)
(0.869126 0.00233467 0)
(0.868411 0.00260455 0)
(0.864535 0.00522508 0)
(0.864874 -0.00472155 0)
(0.867245 -0.0155265 0)
(0.871431 -0.0260985 0)
(0.876886 -0.0353958 0)
(0.882791 -0.0426228 0)
(0.888621 -0.0471237 0)
(0.894443 -0.0490404 0)
(0.900049 -0.0491573 0)
(0.905489 -0.0483219 0)
(0.910831 -0.0467499 0)
(0.916281 -0.0431747 0)
(0.922227 -0.0379067 0)
(0.928899 -0.0318075 0)
(0.936363 -0.0253219 0)
(0.944554 -0.0189391 0)
(0.953075 -0.0131375 0)
(0.961511 -0.00895916 0)
(0.969411 -0.00673196 0)
(0.976216 -0.00589864 0)
(0.981572 -0.00604058 0)
(0.985499 -0.00714914 0)
(0.98799 -0.0102875 0)
(0.988973 -0.0143119 0)
(0.989006 -0.0177987 0)
(0.988648 -0.0205225 0)
(0.988316 -0.0216005 0)
(0.988228 -0.0214744 0)
(0.988585 -0.0206344 0)
(0.989488 -0.0190225 0)
(0.990975 -0.0168631 0)
(0.993192 -0.0144403 0)
(0.996218 -0.0120325 0)
(0.999961 -0.00992682 0)
(1.00413 -0.00844653 0)
(1.00844 -0.00774147 0)
(1.01277 -0.00775354 0)
(1.01709 -0.00840353 0)
(1.02133 -0.00955007 0)
(1.0254 -0.0109507 0)
(1.02915 -0.0124313 0)
(1.03248 -0.0139159 0)
(1.03525 -0.0153439 0)
(1.03742 -0.0166164 0)
(1.039 -0.0175981 0)
(1.0402 -0.0182701 0)
(1.04112 -0.0187576 0)
(1.04185 -0.0186903 0)
(1.0425 -0.0184399 0)
(1.04319 -0.0180624 0)
(1.04403 -0.0176772 0)
(1.04518 -0.0174143 0)
(1.04677 -0.0172648 0)
(1.04887 -0.0171786 0)
(1.0515 -0.017111 0)
(1.05462 -0.0170311 0)
(1.05817 -0.0169766 0)
(1.06203 -0.0170137 0)
(1.06607 -0.0171513 0)
(1.07019 -0.017333 0)
(1.07425 -0.0174351 0)
(1.07808 -0.0173016 0)
(1.08148 -0.0168416 0)
(1.08431 -0.0161527 0)
(1.08657 -0.015296 0)
(1.08833 -0.014242 0)
(1.08963 -0.0129424 0)
(1.09048 -0.0114312 0)
(1.09092 -0.0097953 0)
(1.09104 -0.00809788 0)
(1.09094 -0.00643603 0)
(1.09072 -0.00491751 0)
(1.09047 -0.00362287 0)
(1.09029 -0.00260909 0)
(1.09021 -0.00190961 0)
(1.09027 -0.00151448 0)
(1.09046 -0.0013818 0)
(1.09075 -0.00150724 0)
(1.09113 -0.00182243 0)
(1.09156 -0.00223444 0)
(1.09195 -0.00265288 0)
(1.09227 -0.00301122 0)
(1.09248 -0.00327502 0)
(1.09252 -0.00349426 0)
(1.09233 -0.00369959 0)
(1.09197 -0.00389713 0)
(1.09147 -0.004091 0)
(1.09089 -0.0043117 0)
(1.09029 -0.00458142 0)
(1.08971 -0.0049255 0)
(1.08921 -0.0053888 0)
(1.08888 -0.00600221 0)
(1.08878 -0.0067687 0)
(1.089 -0.00765869 0)
(1.08959 -0.00861869 0)
(1.09055 -0.00958891 0)
(1.09188 -0.0105324 0)
(1.09353 -0.011434 0)
(1.0955 -0.0122827 0)
(1.09777 -0.0130407 0)
(1.1003 -0.013623 0)
(1.10301 -0.0139278 0)
(1.10576 -0.0139042 0)
(1.10843 -0.0135919 0)
(1.11097 -0.0130583 0)
(1.11333 -0.0123228 0)
(1.11547 -0.0113713 0)
(1.11733 -0.0102111 0)
(1.11884 -0.00887899 0)
(1.11998 -0.00743185 0)
(1.12073 -0.00592708 0)
(1.12111 -0.00442574 0)
(1.12116 -0.00298533 0)
(1.12091 -0.00165763 0)
(1.12044 -0.000476487 0)
(1.11977 0.000541102 0)
(1.11896 0.00139225 0)
(1.11805 0.00208633 0)
(1.11708 0.0026409 0)
(1.11604 0.00307542 0)
(1.11494 0.00340738 0)
(1.23699 0.00689017 0)
(1.24288 -0.00319015 0)
(1.24745 -0.0152624 0)
(1.25159 -0.0276446 0)
(1.25569 -0.0381492 0)
(1.25981 -0.0455801 0)
(1.26366 -0.0498565 0)
(1.26744 -0.0516664 0)
(1.27141 -0.0512643 0)
(1.27505 -0.0488397 0)
(1.27773 -0.044874 0)
(1.27908 -0.0400579 0)
(1.27949 -0.0352062 0)
(1.27942 -0.0310187 0)
(1.27913 -0.0276822 0)
(1.27896 -0.0250485 0)
(1.27967 -0.0228002 0)
(1.28181 -0.020735 0)
(1.2851 -0.0185626 0)
(1.28845 -0.0165437 0)
(1.2911 -0.0151421 0)
(1.29269 -0.0146296 0)
(1.29309 -0.0147016 0)
(1.29163 -0.0150339 0)
(1.28779 -0.0156074 0)
(1.28197 -0.0165996 0)
(1.27479 -0.0174606 0)
(1.2672 -0.0180059 0)
(1.26024 -0.0179734 0)
(1.25446 -0.0174318 0)
(1.25037 -0.0167882 0)
(1.24828 -0.0162708 0)
(1.24805 -0.0159156 0)
(1.25021 -0.0156315 0)
(1.25471 -0.0150313 0)
(1.2612 -0.0142533 0)
(1.26909 -0.0136769 0)
(1.27759 -0.013544 0)
(1.2859 -0.0139122 0)
(1.29353 -0.0146483 0)
(1.30008 -0.0155565 0)
(1.30528 -0.0163829 0)
(1.30898 -0.0170222 0)
(1.31118 -0.0174932 0)
(1.31205 -0.0178732 0)
(1.31183 -0.0184913 0)
(1.31067 -0.0185256 0)
(1.30903 -0.0183167 0)
(1.30748 -0.0179509 0)