/*--------------------------------*- C++ -*----------------------------------*\
| =========                 |                                                 |
| \\      /  F ield         | OpenFOAM: The Open Source CFD Toolbox           |
|  \\    /   O peration     | Version:  2206                                  |
|   \\  /    A nd           | Website:  www.openfoam.com                      |
|    \\/     M anipulation  |                                                 |
\*---------------------------------------------------------------------------*/
FoamFile
{
    version     2.0;
    format      ascii;
    arch        "LSB;label=32;scalar=64";
    class       volVectorField;
    location    "19.8";
    object      U;
}
// * * * * * * * * * * * * * * * * * * * * * * * * * * * * * * * * * * * * * //

dimensions      [0 1 -1 0 0 0 0];

internalField   nonuniform List<vector> 
3087
(
(1.47762 0.000196477 0)
(1.4777 0.000590981 0)
(1.47788 0.000985236 0)
(1.47816 0.0013756 0)
(1.47853 0.00175909 0)
(1.47898 0.00213331 0)
(1.47951 0.00249623 0)
(1.48013 0.00284614 0)
(1.48081 0.00318169 0)
(1.48157 0.0035019 0)
(1.48238 0.00380611 0)
(1.48326 0.00409394 0)
(1.48419 0.0043652 0)
(1.48518 0.0046199 0)
(1.48621 0.0048582 0)
(1.48728 0.0050803 0)
(1.48839 0.00528652 0)
(1.48953 0.00547716 0)
(1.4907 0.00565256 0)
(1.4919 0.00581305 0)
(1.49313 0.00595893 0)
(1.49438 0.00609048 0)
(1.49564 0.00620797 0)
(1.49692 0.00631161 0)
(1.49821 0.0064016 0)
(1.49951 0.00647813 0)
(1.50082 0.00654134 0)
(1.50213 0.00659141 0)
(1.50344 0.00662844 0)
(1.50475 0.00665264 0)
(1.50606 0.00666419 0)
(1.50735 0.00666317 0)
(1.50865 0.00664984 0)
(1.50992 0.00662444 0)
(1.51119 0.00658724 0)
(1.51243 0.00653858 0)
(1.51366 0.00647878 0)
(1.51486 0.00640822 0)
(1.51604 0.00632731 0)
(1.51719 0.00623646 0)
(1.5183 0.00613605 0)
(1.51939 0.00602655 0)
(1.52044 0.00590828 0)
(1.52145 0.00578168 0)
(1.52242 0.00564693 0)
(1.52334 0.0055045 0)
(1.52422 0.00535416 0)
(1.52504 0.00519662 0)
(1.52582 0.00503072 0)
(1.52653 0.00485797 0)
(1.52719 0.00467533 0)
(1.52779 0.00448605 0)
(1.52832 0.00428389 0)
(1.52877 0.00407482 0)
(1.52915 0.00384816 0)
(1.52945 0.00361369 0)
(1.52966 0.00335516 0)
(1.52978 0.00308993 0)
(1.52981 0.00279889 0)
(1.52973 0.00248378 0)
(1.52953 0.00213985 0)
(1.52921 0.00176168 0)
(1.52876 0.00134434 0)
(1.52816 0.000881976 0)
(1.52741 0.000367311 0)
(1.52648 -0.000208366 0)
(1.52536 -0.000855048 0)
(1.52403 -0.00158412 0)
(1.52247 -0.00240889 0)
(1.52065 -0.00334492 0)
(1.51855 -0.00441041 0)
(1.51614 -0.00562667 0)
(1.51338 -0.00701858 0)
(1.51023 -0.00861562 0)
(1.50663 -0.0104525 0)
(1.50255 -0.0125705 0)
(1.49791 -0.0150187 0)
(1.49265 -0.0178562 0)
(1.48668 -0.0211536 0)
(1.47992 -0.0249967 0)
(1.47224 -0.0294898 0)
(1.46354 -0.0347606 0)
(1.45367 -0.0409662 0)
(1.44245 -0.0483017 0)
(1.4297 -0.0570103 0)
(1.4152 -0.0673983 0)
(1.39867 -0.0798536 0)
(1.37981 -0.0948726 0)
(1.35828 -0.113095 0)
(1.33365 -0.135357 0)
(1.30544 -0.162754 0)
(1.27306 -0.196763 0)
(1.2358 -0.239353 0)
(1.19274 -0.293363 0)
(1.14254 -0.362431 0)
(1.0828 -0.453269 0)
(1.01052 -0.571866 0)
(0.905008 -0.74406 0)
(0.794006 -0.972506 0)
(0.281215 -1.57964 0)
(1.47762 0.000150337 0)
(1.47769 0.000452816 0)
(1.47787 0.000756255 0)
(1.47814 0.00105783 0)
(1.4785 0.00135528 0)
(1.47894 0.00164677 0)
(1.47946 0.0019307 0)
(1.48006 0.00220571 0)
(1.48073 0.0024707 0)
(1.48147 0.0027248 0)
(1.48227 0.00296741 0)
(1.48313 0.0031981 0)
(1.48405 0.00341662 0)
(1.48501 0.00362288 0)
(1.48603 0.00381686 0)
(1.48708 0.00399864 0)
(1.48818 0.00416834 0)
(1.48931 0.00432613 0)
(1.49047 0.00447218 0)
(1.49166 0.00460667 0)
(1.49287 0.00472977 0)
(1.49411 0.00484166 0)
(1.49536 0.00494249 0)
(1.49663 0.00503239 0)
(1.49791 0.0051115 0)
(1.4992 0.00517993 0)
(1.5005 0.00523779 0)
(1.5018 0.00528522 0)
(1.5031 0.00532231 0)
(1.50441 0.00534923 0)
(1.5057 0.0053662 0)
(1.50699 0.00537324 0)
(1.50828 0.00537065 0)
(1.50955 0.00535862 0)
(1.5108 0.00533749 0)
(1.51204 0.00530752 0)
(1.51326 0.00526911 0)
(1.51445 0.00522259 0)
(1.51562 0.00516839 0)
(1.51677 0.00510691 0)
(1.51788 0.00503856 0)
(1.51896 0.0049638 0)
(1.52 0.00488298 0)
(1.521 0.0047966 0)
(1.52196 0.00470482 0)
(1.52288 0.00460827 0)
(1.52375 0.00450667 0)
(1.52457 0.00440097 0)
(1.52534 0.00429001 0)
(1.52604 0.00417559 0)
(1.5267 0.00405474 0)
(1.52727 0.0039313 0)
(1.5278 0.00379845 0)
(1.52823 0.00366485 0)
(1.52861 0.00351561 0)
(1.52889 0.00336827 0)
(1.52909 0.00319721 0)
(1.52919 0.00302864 0)
(1.52919 0.00284111 0)
(1.52909 0.00263663 0)
(1.52886 0.00241372 0)
(1.5285 0.00216759 0)
(1.52801 0.0018937 0)
(1.52737 0.00158728 0)
(1.52656 0.00124285 0)
(1.52557 0.000853669 0)
(1.52438 0.00041221 0)
(1.52297 -9.0624e-05 0)
(1.52132 -0.000665196 0)
(1.5194 -0.00132374 0)
(1.51717 -0.00208052 0)
(1.51462 -0.00295228 0)
(1.51168 -0.00395887 0)
(1.50833 -0.00512395 0)
(1.50451 -0.00647526 0)
(1.50015 -0.0080463 0)
(1.49519 -0.00987668 0)
(1.48954 -0.0120145 0)
(1.48313 -0.0145175 0)
(1.47582 -0.0174566 0)
(1.4675 -0.0209177 0)
(1.45802 -0.0250073 0)
(1.44721 -0.0298568 0)
(1.43485 -0.0356309 0)
(1.42069 -0.0425359 0)
(1.40445 -0.0508341 0)
(1.38577 -0.0608594 0)
(1.36422 -0.0730422 0)
(1.33929 -0.0879396 0)
(1.31034 -0.106281 0)
(1.27659 -0.129024 0)
(1.23702 -0.157441 0)
(1.19033 -0.193223 0)
(1.13477 -0.238627 0)
(1.06785 -0.296661 0)
(0.985689 -0.371256 0)
(0.882404 -0.467173 0)
(0.74851 -0.591031 0)
(0.569298 -0.744385 0)
(0.273334 -0.869464 0)
(1.47762 0.000105389 0)
(1.47769 0.000318214 0)
(1.47786 0.000533099 0)
(1.47813 0.00074795 0)
(1.47848 0.000961152 0)
(1.47891 0.00117139 0)
(1.47942 0.00137752 0)
(1.48001 0.00157851 0)
(1.48067 0.0017735 0)
(1.48139 0.0019618 0)
(1.48218 0.00214287 0)
(1.48303 0.0023163 0)
(1.48394 0.00248183 0)
(1.48489 0.00263924 0)
(1.4859 0.00278843 0)
(1.48694 0.00292936 0)
(1.48803 0.00306199 0)
(1.48915 0.00318636 0)
(1.4903 0.0033025 0)
(1.49148 0.00341046 0)
(1.49268 0.00351028 0)
(1.49391 0.00360204 0)
(1.49516 0.00368578 0)
(1.49642 0.00376155 0)
(1.49769 0.00382942 0)
(1.49898 0.00388944 0)
(1.50027 0.00394168 0)
(1.50156 0.00398621 0)
(1.50286 0.00402316 0)
(1.50416 0.00405264 0)
(1.50545 0.00407482 0)
(1.50674 0.00408977 0)
(1.50802 0.00409776 0)
(1.50928 0.00409899 0)
(1.51053 0.00409377 0)
(1.51176 0.0040824 0)
(1.51298 0.00406523 0)
(1.51417 0.00404265 0)
(1.51533 0.00401504 0)
(1.51647 0.00398285 0)
(1.51758 0.00394648 0)
(1.51865 0.00390642 0)
(1.51969 0.00386304 0)
(1.52069 0.00381688 0)
(1.52165 0.00376816 0)
(1.52256 0.00371753 0)
(1.52343 0.00366492 0)
(1.52424 0.00361112 0)
(1.52501 0.00355569 0)
(1.5257 0.00349961 0)
(1.52636 0.00344175 0)
(1.52693 0.00338372 0)
(1.52745 0.00332286 0)
(1.52787 0.00326242 0)
(1.52825 0.00319658 0)
(1.52851 0.00313227 0)
(1.52871 0.00305555 0)
(1.52879 0.00297768 0)
(1.52877 0.00290728 0)
(1.52865 0.00282099 0)
(1.5284 0.00272043 0)
(1.52803 0.00260643 0)
(1.52751 0.00247789 0)
(1.52684 0.00233185 0)
(1.52599 0.00216387 0)
(1.52496 0.00196898 0)
(1.52373 0.0017415 0)
(1.52226 0.00147525 0)
(1.52054 0.00116306 0)
(1.51854 0.000796501 0)
(1.51623 0.000365532 0)
(1.51356 -0.000141694 0)
(1.51051 -0.000739549 0)
(1.50701 -0.00144475 0)
(1.50301 -0.0022776 0)
(1.49845 -0.00326193 0)
(1.49325 -0.00442676 0)
(1.48732 -0.00580693 0)
(1.48056 -0.00744501 0)
(1.47284 -0.00939276 0)
(1.46403 -0.0117145 0)
(1.45395 -0.0144892 0)
(1.4424 -0.0178158 0)
(1.42914 -0.0218179 0)
(1.41388 -0.0266525 0)
(1.39627 -0.0325194 0)
(1.37587 -0.0396745 0)
(1.35216 -0.0484486 0)
(1.32449 -0.0592722 0)
(1.29205 -0.0727059 0)
(1.25379 -0.0894847 0)
(1.20841 -0.11057 0)
(1.15421 -0.137206 0)
(1.08894 -0.170991 0)
(1.00958 -0.21386 0)
(0.912028 -0.268078 0)
(0.790226 -0.335809 0)
(0.636223 -0.418497 0)
(0.432812 -0.51507 0)
(0.157535 -0.620125 0)
(1.47762 6.1306e-05 0)
(1.47769 0.000186151 0)
(1.47786 0.000314026 0)
(1.47812 0.000443563 0)
(1.47847 0.000573756 0)
(1.47889 0.00070379 0)
(1.4794 0.000832929 0)
(1.47998 0.000960499 0)
(1.48063 0.0010859 0)
(1.48135 0.00120861 0)
(1.48213 0.00132819 0)
(1.48297 0.00144429 0)
(1.48387 0.00155661 0)
(1.48481 0.00166489 0)
(1.48581 0.00176894 0)
(1.48685 0.00186861 0)
(1.48793 0.00196376 0)
(1.48904 0.00205427 0)
(1.49019 0.00214007 0)
(1.49136 0.00222108 0)
(1.49256 0.00229723 0)
(1.49379 0.00236847 0)
(1.49503 0.00243477 0)
(1.49628 0.0024961 0)
(1.49756 0.00255243 0)
(1.49884 0.00260378 0)
(1.50012 0.00265016 0)
(1.50142 0.00269158 0)
(1.50271 0.0027282 0)
(1.50401 0.00276005 0)
(1.5053 0.00278728 0)
(1.50658 0.00280998 0)
(1.50786 0.00282842 0)
(1.50912 0.00284277 0)
(1.51037 0.00285335 0)
(1.5116 0.00286045 0)
(1.51281 0.00286443 0)
(1.514 0.00286566 0)
(1.51516 0.00286456 0)
(1.5163 0.00286155 0)
(1.51741 0.00285709 0)
(1.51848 0.00285164 0)
(1.51952 0.00284568 0)
(1.52051 0.00283965 0)
(1.52147 0.00283408 0)
(1.52238 0.00282925 0)
(1.52325 0.0028259 0)
(1.52406 0.00282391 0)
(1.52483 0.00282444 0)
(1.52552 0.00282675 0)
(1.52617 0.00283235 0)
(1.52674 0.00284013 0)
(1.52726 0.00285158 0)
(1.52769 0.00286531 0)
(1.52805 0.00288322 0)
(1.52831 0.00290245 0)
(1.5285 0.00293128 0)
(1.52857 0.00295785 0)
(1.52855 0.00297729 0)
(1.52842 0.00300504 0)
(1.52817 0.00303232 0)
(1.52779 0.00305804 0)
(1.52726 0.00308137 0)
(1.52657 0.00310059 0)
(1.52571 0.00311365 0)
(1.52466 0.00311826 0)
(1.52339 0.0031116 0)
(1.5219 0.00309021 0)
(1.52014 0.00304992 0)
(1.5181 0.00298591 0)
(1.51573 0.00289257 0)
(1.513 0.00276325 0)
(1.50987 0.00259018 0)
(1.50628 0.00236396 0)
(1.50218 0.00207321 0)
(1.49749 0.00170415 0)
(1.49213 0.00123997 0)
(1.48602 0.000660109 0)
(1.47904 -6.04136e-05 0)
(1.47106 -0.00095251 0)
(1.46192 -0.00205469 0)
(1.45144 -0.00341468 0)
(1.43941 -0.00509255 0)
(1.42555 -0.00716416 0)
(1.40954 -0.00972634 0)
(1.39099 -0.0129018 0)
(1.36942 -0.016851 0)
(1.34422 -0.0217799 0)
(1.31466 -0.0279581 0)
(1.27978 -0.0357377 0)
(1.23839 -0.0455769 0)
(1.189 -0.0580681 0)
(1.12966 -0.0739653 0)
(1.05791 -0.0941934 0)
(0.970601 -0.119818 0)
(0.863834 -0.151893 0)
(0.732744 -0.191151 0)
(0.572179 -0.236747 0)
(0.375483 -0.286442 0)
(0.140135 -0.306438 0)
(1.48061 0.000403964 0)
(1.48132 0.000461184 0)
(1.4821 0.000519282 0)
(1.48294 0.00057795 0)
(1.48383 0.000636889 0)
(1.48478 0.000695818 0)
(1.48577 0.000754469 0)
(1.4868 0.000812586 0)
(1.48788 0.00086993 0)
(1.48899 0.000926276 0)
(1.49014 0.000981416 0)
(1.49131 0.00103516 0)
(1.49251 0.00108733 0)
(1.49373 0.00113778 0)
(1.49497 0.00118637 0)
(1.49623 0.001233 0)
(1.4975 0.00127757 0)
(1.49878 0.00132002 0)
(1.50007 0.00136034 0)
(1.50136 0.00139848 0)
(1.50265 0.00143458 0)
(1.50395 0.00146864 0)
(1.50524 0.0015008 0)
(1.50652 0.00153111 0)
(1.5078 0.00155987 0)
(1.50906 0.00158721 0)
(1.51031 0.00161348 0)
(1.51154 0.00163891 0)
(1.51276 0.00166395 0)
(1.51395 0.00168886 0)
(1.51511 0.00171418 0)
(1.51625 0.00174022 0)
(1.51736 0.00176761 0)
(1.51843 0.00179662 0)
(1.51947 0.00182805 0)
(1.52047 0.00186199 0)
(1.52143 0.00189958 0)
(1.52234 0.00194045 0)
(1.52321 0.00198636 0)
(1.52402 0.0020363 0)
(1.52479 0.00209255 0)
(1.52549 0.00215379 0)
(1.52614 0.00222235 0)
(1.52672 0.00229694 0)
(1.52723 0.00238001 0)
(1.52766 0.00246993 0)
(1.52802 0.00257011 0)
(1.52829 0.00267759 0)
(1.52848 0.00280053 0)
(1.52856 0.0029202 0)
(1.52855 0.00305537 0)
(1.52842 0.00320048 0)
(1.52817 0.0033544 0)
(1.52778 0.00351865 0)
(1.52725 0.00369376 0)
(1.52656 0.00387947 0)
(1.5257 0.00407552 0)
(1.52465 0.00428175 0)
(1.52338 0.00449798 0)
(1.52188 0.00472391 0)
(1.52011 0.0049591 0)
(1.51806 0.00520288 0)
(1.51568 0.00545429 0)
(1.51294 0.00571199 0)
(1.50978 0.00597438 0)
(1.50617 0.00623954 0)
(1.50202 0.00650513 0)
(1.49729 0.00676817 0)
(1.49188 0.00702482 0)
(1.48569 0.00727024 0)
(1.47862 0.00749796 0)
(1.47053 0.00769974 0)
(1.46125 0.00786515 0)
(1.4506 0.00798054 0)
(1.43835 0.00802835 0)
(1.42422 0.00798571 0)
(1.40786 0.0078228 0)
(1.38887 0.00750148 0)
(1.36673 0.00696987 0)
(1.34081 0.00616111 0)
(1.31031 0.00498592 0)
(1.27422 0.00332566 0)
(1.23128 0.0010251 0)
(1.17987 -0.00211771 0)
(1.11797 -0.00635912 0)
(1.04302 -0.0120123 0)
(0.951882 -0.0194274 0)
(0.840855 -0.0289418 0)
(0.705716 -0.0407184 0)
(0.542787 -0.0545892 0)
(0.34771 -0.0689713 0)
(0.122846 -0.0821587 0)
(1.46038 0.00805933 0)
(1.4504 0.0150188 0)
(1.43245 0.0175715 0)
(1.40883 0.0186423 0)
(1.38391 0.0193462 0)
(1.35903 0.0198335 0)
(1.33401 0.0201252 0)
(1.30865 0.0202684 0)
(1.283 0.0203221 0)
(1.25719 0.0203165 0)
(1.23131 0.0202577 0)
(1.2054 0.0201413 0)
(1.17949 0.0199806 0)
(1.15361 0.0197924 0)
(1.12778 0.0195838 0)
(1.10203 0.0193548 0)
(1.07636 0.0191062 0)
(1.05079 0.0188397 0)
(1.02534 0.018559 0)
(1.00004 0.0182656 0)
(0.974892 0.01796 0)
(0.949925 0.0176427 0)
(0.925155 0.0173124 0)
(0.900602 0.016971 0)
(0.876276 0.0166205 0)
(0.852221 0.0162728 0)
(0.828388 0.0159406 0)
(0.804632 0.0155833 0)
(0.781412 0.0151612 0)
(0.75858 0.0146814 0)
(0.736166 0.0141602 0)
(0.714251 0.0136051 0)
(0.692884 0.0130198 0)
(0.672103 0.0124081 0)
(0.651943 0.0117739 0)
(0.632445 0.0111207 0)
(0.613644 0.0104504 0)
(0.595574 0.00976418 0)
(0.578264 0.0090637 0)
(0.561749 0.00835416 0)
(0.54605 0.00762991 0)
(0.531219 0.0068895 0)
(0.517251 0.00616583 0)
(0.504148 0.00546685 0)
(0.491914 0.00478978 0)
(0.48055 0.00413262 0)
(0.470056 0.00349624 0)
(0.460422 0.00288401 0)
(0.451638 0.00229869 0)
(0.443682 0.00174394 0)
(0.436532 0.0012197 0)
(0.430165 0.000727829 0)
(0.42455 0.000271213 0)
(0.419663 -0.000141854 0)
(0.415464 -0.000530762 0)
(0.411933 -0.000894279 0)
(0.409048 -0.00122942 0)
(0.406757 -0.00154361 0)
(0.405092 -0.00183078 0)
(0.403962 -0.00209076 0)
(0.403424 -0.00238547 0)
(0.403502 -0.00260983 0)
(0.404117 -0.00291983 0)
(0.405344 -0.0032663 0)
(0.407185 -0.00357729 0)
(0.409618 -0.0038546 0)
(0.412632 -0.00411119 0)
(0.416249 -0.00435796 0)
(0.420461 -0.00462073 0)
(0.425298 -0.00487661 0)
(0.430789 -0.00514301 0)
(0.436966 -0.0054265 0)
(0.443865 -0.00573039 0)
(0.451532 -0.00607177 0)
(0.460021 -0.00644821 0)
(0.46939 -0.00685764 0)
(0.479701 -0.00730215 0)
(0.491019 -0.00778342 0)
(0.503412 -0.00830209 0)
(0.51695 -0.0088576 0)
(0.531702 -0.00944855 0)
(0.547734 -0.0100724 0)
(0.565111 -0.0107258 0)
(0.583889 -0.0114048 0)
(0.604119 -0.0121014 0)
(0.625844 -0.012808 0)
(0.649099 -0.0135229 0)
(0.673916 -0.0142423 0)
(0.700312 -0.0149572 0)
(0.728285 -0.0156536 0)
(0.757816 -0.0163096 0)
(0.78884 -0.016897 0)
(0.821254 -0.0173936 0)
(0.854862 -0.0177954 0)
(0.88956 -0.0181028 0)
(0.925189 -0.0182785 0)
(0.961277 -0.0182644 0)
(0.997554 -0.0180303 0)
(1.03368 -0.0175634 0)
(1.06929 -0.0168614 0)
(1.47997 0.0115916 0)
(1.48684 0.021099 0)
(1.49478 0.0247864 0)
(1.49732 0.0265081 0)
(1.49839 0.0277766 0)
(1.49891 0.028833 0)
(1.49882 0.0295112 0)
(1.49801 0.0300779 0)
(1.49652 0.0304622 0)
(1.49442 0.0307923 0)
(1.49177 0.0310869 0)
(1.48861 0.0313018 0)
(1.48499 0.0314639 0)
(1.48093 0.0316057 0)
(1.47643 0.031733 0)
(1.4715 0.0318423 0)
(1.46617 0.0319302 0)
(1.46044 0.0319931 0)
(1.45433 0.0320305 0)
(1.44785 0.0320446 0)
(1.44102 0.0320349 0)
(1.43384 0.0319993 0)
(1.42633 0.0319382 0)
(1.41851 0.0318527 0)
(1.41038 0.0317437 0)
(1.40197 0.0316127 0)
(1.39329 0.0314619 0)
(1.3844 0.031261 0)
(1.37529 0.0309794 0)
(1.36597 0.0306266 0)
(1.35645 0.0302133 0)
(1.34675 0.0297411 0)
(1.33691 0.0292093 0)
(1.32695 0.0286185 0)
(1.31688 0.0279702 0)
(1.30675 0.0272687 0)
(1.29657 0.0265169 0)
(1.28636 0.0257143 0)
(1.27617 0.0248613 0)
(1.266 0.0239608 0)
(1.25592 0.023017 0)
(1.24584 0.0220311 0)
(1.23588 0.0210122 0)
(1.22607 0.0199605 0)
(1.21642 0.018886 0)
(1.20697 0.0177964 0)
(1.19773 0.0166956 0)
(1.18873 0.015593 0)
(1.18 0.0144946 0)
(1.17155 0.0134068 0)
(1.1634 0.012335 0)
(1.15555 0.0112804 0)
(1.14805 0.0102506 0)
(1.14085 0.0092403 0)
(1.13406 0.00825999 0)
(1.12759 0.00729779 0)
(1.12154 0.00636385 0)
(1.11587 0.00544638 0)
(1.1106 0.00454523 0)
(1.10578 0.00365673 0)
(1.10136 0.00276331 0)
(1.09743 0.00187479 0)
(1.09388 0.00096614 0)
(1.09086 6.16825e-05 0)
(1.08828 -0.000870523 0)
(1.08623 -0.00182079 0)
(1.08479 -0.00279424 0)
(1.08398 -0.00381244 0)
(1.08382 -0.00478606 0)
(1.08432 -0.00585189 0)
(1.08556 -0.00697406 0)
(1.08758 -0.00815107 0)
(1.09041 -0.00939082 0)
(1.09412 -0.0107015 0)
(1.09876 -0.0120908 0)
(1.10437 -0.0135659 0)
(1.11102 -0.0151328 0)
(1.11877 -0.0167963 0)
(1.12768 -0.0185594 0)
(1.13781 -0.0204226 0)
(1.14923 -0.0223844 0)
(1.16199 -0.0244403 0)
(1.17616 -0.0265845 0)
(1.19178 -0.0288129 0)
(1.20891 -0.0311163 0)
(1.22762 -0.0334835 0)
(1.24795 -0.0359061 0)
(1.26994 -0.0383689 0)
(1.29362 -0.0408497 0)
(1.31898 -0.0433288 0)
(1.34603 -0.0457489 0)
(1.37471 -0.0480349 0)
(1.40492 -0.0501085 0)
(1.43647 -0.0519085 0)
(1.46915 -0.0534206 0)
(1.50277 -0.05459 0)
(1.53716 -0.0553278 0)
(1.57213 -0.0555709 0)
(1.6074 -0.0552958 0)
(1.64283 -0.0544977 0)
(1.4785 0.00539799 0)
(1.48172 0.0117516 0)
(1.48624 0.0151417 0)
(1.49045 0.0175913 0)
(1.49389 0.019692 0)
(1.49685 0.0214623 0)
(1.49973 0.0229514 0)
(1.5022 0.0241514 0)
(1.50457 0.025188 0)
(1.50649 0.0260732 0)
(1.50858 0.0268775 0)
(1.51032 0.0276116 0)
(1.51177 0.0282838 0)
(1.51305 0.0289023 0)
(1.51416 0.0294734 0)
(1.51511 0.0299974 0)
(1.5159 0.0304906 0)
(1.51655 0.0309514 0)
(1.51705 0.0313757 0)
(1.5174 0.0317612 0)
(1.51762 0.0321116 0)
(1.51769 0.032435 0)
(1.51762 0.0327075 0)
(1.51741 0.032961 0)
(1.51704 0.0331846 0)
(1.51653 0.0334132 0)
(1.51589 0.0335661 0)
(1.51513 0.0336129 0)
(1.51424 0.0335803 0)
(1.51321 0.0334808 0)
(1.51202 0.0333147 0)
(1.51067 0.0330803 0)
(1.50918 0.0327751 0)
(1.50754 0.0323974 0)
(1.50577 0.0319455 0)
(1.50385 0.03142 0)
(1.5018 0.0308258 0)
(1.4996 0.0301676 0)
(1.49728 0.0294471 0)
(1.49485 0.0286662 0)
(1.4923 0.0278306 0)
(1.48965 0.0269452 0)
(1.48691 0.0260096 0)
(1.48409 0.0250283 0)
(1.48119 0.0240064 0)
(1.47822 0.022947 0)
(1.47521 0.0218569 0)
(1.47216 0.0207458 0)
(1.46909 0.0196227 0)
(1.46601 0.0184938 0)
(1.46294 0.0173639 0)
(1.4599 0.0162359 0)
(1.45689 0.015113 0)
(1.45393 0.0139962 0)
(1.45104 0.0128857 0)
(1.44824 0.0117805 0)
(1.44554 0.010679 0)
(1.44297 0.00957899 0)
(1.44052 0.00847602 0)
(1.43823 0.00737094 0)
(1.4361 0.00622349 0)
(1.43414 0.00504096 0)
(1.43241 0.00384948 0)
(1.43088 0.00260437 0)
(1.42963 0.00132778 0)
(1.4286 -1.38916e-05 0)
(1.42784 -0.00140898 0)
(1.4274 -0.00285064 0)
(1.4273 -0.00437982 0)
(1.42759 -0.00599266 0)
(1.42829 -0.00769777 0)
(1.42945 -0.00950723 0)
(1.43109 -0.0114326 0)
(1.43326 -0.0134849 0)
(1.43601 -0.0156744 0)
(1.43939 -0.0180105 0)
(1.44345 -0.0205011 0)
(1.44823 -0.0231526 0)
(1.45381 -0.0259699 0)
(1.46024 -0.0289529 0)
(1.46758 -0.0321006 0)
(1.47589 -0.0354008 0)
(1.48523 -0.0388414 0)
(1.49566 -0.0424262 0)
(1.50723 -0.0461515 0)
(1.52003 -0.0499981 0)
(1.53409 -0.0539376 0)
(1.54945 -0.0579392 0)
(1.56614 -0.0619694 0)
(1.58422 -0.0660205 0)
(1.60364 -0.0699883 0)
(1.6244 -0.0737601 0)
(1.64639 -0.0771966 0)
(1.66954 -0.0801625 0)
(1.69388 -0.0826788 0)
(1.71938 -0.0847206 0)
(1.74599 -0.0861938 0)
(1.77355 -0.0870017 0)
(1.80186 -0.0870838 0)
(1.83065 -0.0863994 0)
(1.47803 0.0033118 0)
(1.47982 0.00905119 0)
(1.48292 0.0132668 0)
(1.48625 0.0164042 0)
(1.48915 0.0188482 0)
(1.49177 0.0208272 0)
(1.49431 0.0224374 0)
(1.49679 0.0237528 0)
(1.49917 0.0248561 0)
(1.50139 0.0257973 0)
(1.5035 0.0265997 0)
(1.50553 0.027327 0)
(1.50751 0.0280096 0)
(1.50945 0.028633 0)
(1.51133 0.0291908 0)
(1.51316 0.0296943 0)
(1.51493 0.030149 0)
(1.51665 0.0305731 0)
(1.51834 0.0309434 0)
(1.52 0.031285 0)
(1.52162 0.0316025 0)
(1.52321 0.0318787 0)
(1.52479 0.0321295 0)
(1.52632 0.0323477 0)
(1.52788 0.0325366 0)
(1.52952 0.0326893 0)
(1.53107 0.0328075 0)
(1.53257 0.0328792 0)
(1.53404 0.0328934 0)
(1.53545 0.0328433 0)
(1.5368 0.0327272 0)
(1.5381 0.0325453 0)
(1.53932 0.0322972 0)
(1.54048 0.0319806 0)
(1.54157 0.0315993 0)
(1.54256 0.0311796 0)
(1.54348 0.0307012 0)
(1.54432 0.030137 0)
(1.54507 0.0295078 0)
(1.54575 0.0288208 0)
(1.54634 0.0280799 0)
(1.54684 0.0272876 0)
(1.54726 0.0264433 0)
(1.54759 0.0255559 0)
(1.54783 0.0246318 0)
(1.54797 0.0236617 0)
(1.54804 0.0226467 0)
(1.54804 0.0216001 0)
(1.54797 0.020532 0)
(1.54783 0.0194492 0)
(1.54764 0.018355 0)
(1.5474 0.0172528 0)
(1.54711 0.016144 0)
(1.54679 0.0150263 0)
(1.54646 0.0138985 0)
(1.54611 0.0127609 0)
(1.54577 0.011614 0)
(1.54545 0.0104547 0)
(1.54515 0.00927681 0)
(1.54489 0.00807461 0)
(1.54468 0.00684184 0)
(1.54454 0.00557148 0)
(1.54446 0.00425371 0)
(1.54448 0.0028808 0)
(1.54459 0.00144761 0)
(1.54483 -6.06915e-05 0)
(1.5452 -0.00163864 0)
(1.54571 -0.00330048 0)
(1.5464 -0.00505548 0)
(1.54728 -0.00691889 0)
(1.54838 -0.00890709 0)
(1.54972 -0.0110333 0)
(1.55134 -0.0133093 0)
(1.55326 -0.0157471 0)
(1.55552 -0.0183595 0)
(1.55816 -0.0211584 0)
(1.5612 -0.0241559 0)
(1.56471 -0.0273611 0)
(1.56873 -0.030786 0)
(1.5733 -0.0344307 0)
(1.5785 -0.0383076 0)
(1.58438 -0.0423921 0)
(1.59098 -0.0466553 0)
(1.59839 -0.0511279 0)
(1.6067 -0.0558188 0)
(1.61602 -0.0607042 0)
(1.62642 -0.0657442 0)
(1.63797 -0.0708956 0)
(1.65074 -0.0761086 0)
(1.6648 -0.0813133 0)
(1.67963 -0.0864278 0)
(1.69633 -0.0913679 0)
(1.7138 -0.0960487 0)
(1.7337 -0.100388 0)
(1.75517 -0.104288 0)
(1.778 -0.107623 0)
(1.80215 -0.110256 0)
(1.82746 -0.112061 0)
(1.85373 -0.112932 0)
(1.88073 -0.112781 0)
(1.47783 0.00242954 0)
(1.47886 0.00703204 0)
(1.48087 0.0107132 0)
(1.48326 0.0135139 0)
(1.48559 0.0157338 0)
(1.48782 0.0175905 0)
(1.49003 0.0191668 0)
(1.49222 0.0205009 0)
(1.49435 0.0216359 0)
(1.49641 0.0226221 0)
(1.4984 0.0234967 0)
(1.50035 0.0242966 0)
(1.50226 0.0250319 0)
(1.50415 0.025705 0)
(1.50602 0.0263197 0)
(1.50787 0.0268857 0)
(1.50971 0.0274098 0)
(1.51155 0.0278976 0)
(1.51338 0.0283482 0)
(1.51522 0.0287613 0)
(1.51705 0.0291353 0)
(1.51889 0.029481 0)
(1.52072 0.0297895 0)
(1.52255 0.0300571 0)
(1.52437 0.0302752 0)
(1.52618 0.0304572 0)
(1.528 0.0306152 0)
(1.52983 0.0307347 0)
(1.53167 0.0307999 0)
(1.5335 0.0308041 0)
(1.53532 0.0307465 0)
(1.53711 0.0306275 0)
(1.53889 0.0304454 0)
(1.54062 0.0302012 0)
(1.54234 0.0298907 0)
(1.544 0.029522 0)
(1.54564 0.0290853 0)
(1.54722 0.0285915 0)
(1.54876 0.0280318 0)
(1.55023 0.0274193 0)
(1.55167 0.0267349 0)
(1.55302 0.0260135 0)
(1.55436 0.0252256 0)
(1.55557 0.0244114 0)
(1.55684 0.0235491 0)
(1.55802 0.0226482 0)
(1.55909 0.0217142 0)
(1.56008 0.0207521 0)
(1.56099 0.0197652 0)
(1.56183 0.0187571 0)
(1.56261 0.0177309 0)
(1.56333 0.0166915 0)
(1.56399 0.0156408 0)
(1.56461 0.0145723 0)
(1.56519 0.0134801 0)
(1.56576 0.0123654 0)
(1.56631 0.0112329 0)
(1.56685 0.0100811 0)
(1.56738 0.0089034 0)
(1.56792 0.00769262 0)
(1.56848 0.00643961 0)
(1.56905 0.0051355 0)
(1.56966 0.00377367 0)
(1.5703 0.00234689 0)
(1.571 0.000847959 0)
(1.57176 -0.00072795 0)
(1.5726 -0.00240169 0)
(1.57351 -0.00417878 0)
(1.57453 -0.00606906 0)
(1.57566 -0.00808916 0)
(1.57693 -0.0102562 0)
(1.57836 -0.0125854 0)
(1.57997 -0.0150905 0)
(1.58178 -0.017786 0)
(1.58383 -0.0206877 0)
(1.58614 -0.0238116 0)
(1.58876 -0.027173 0)
(1.5917 -0.0307863 0)
(1.59506 -0.0346639 0)
(1.59877 -0.0388171 0)
(1.6031 -0.0432543 0)
(1.60772 -0.0479838 0)
(1.61336 -0.0530121 0)
(1.61974 -0.058341 0)
(1.62695 -0.0639625 0)
(1.63509 -0.0698582 0)
(1.64425 -0.0759981 0)
(1.65454 -0.0823382 0)
(1.66605 -0.0888176 0)
(1.67892 -0.0953274 0)
(1.69329 -0.101822 0)
(1.7092 -0.108242 0)
(1.72671 -0.114528 0)
(1.74576 -0.120596 0)
(1.76634 -0.126191 0)
(1.78845 -0.131077 0)
(1.81206 -0.135082 0)
(1.83703 -0.138057 0)
(1.86314 -0.139866 0)
(1.89015 -0.14039 0)
(1.47774 0.00190153 0)
(1.47838 0.00559917 0)
(1.47976 0.00882517 0)
(1.48158 0.0115066 0)
(1.48352 0.013754 0)
(1.48546 0.015684 0)
(1.48741 0.0173551 0)
(1.48936 0.0187955 0)
(1.4913 0.0200401 0)
(1.4932 0.0211273 0)
(1.49506 0.0220874 0)
(1.49689 0.0229437 0)
(1.49869 0.0237126 0)
(1.50048 0.0244068 0)
(1.50225 0.0250342 0)
(1.50401 0.0256029 0)
(1.50576 0.026119 0)
(1.50751 0.0265876 0)
(1.50925 0.0270107 0)
(1.511 0.0273912 0)
(1.51274 0.0277321 0)
(1.51449 0.0280349 0)
(1.51625 0.0283004 0)
(1.51802 0.0285289 0)
(1.51979 0.0287204 0)
(1.52157 0.0288788 0)
(1.52337 0.0290046 0)
(1.52518 0.0290892 0)
(1.527 0.0291236 0)
(1.52882 0.0291044 0)
(1.53065 0.0290314 0)
(1.53248 0.028903 0)
(1.5343 0.0287191 0)
(1.53611 0.0284778 0)
(1.53789 0.0281815 0)
(1.53966 0.0278305 0)
(1.5414 0.0274245 0)
(1.54312 0.0269612 0)
(1.5448 0.0264409 0)
(1.54644 0.0258707 0)
(1.54803 0.0252527 0)
(1.54956 0.0245849 0)
(1.55105 0.0238664 0)
(1.55247 0.0231002 0)
(1.55383 0.0222806 0)
(1.55512 0.0214381 0)
(1.55637 0.0205686 0)
(1.55755 0.0196816 0)
(1.55869 0.0187548 0)
(1.55975 0.0178158 0)
(1.56078 0.0168373 0)
(1.56173 0.0158501 0)
(1.56269 0.0148367 0)
(1.5636 0.0138009 0)
(1.56446 0.0127426 0)
(1.56525 0.0116604 0)
(1.56601 0.0105512 0)
(1.56675 0.00941077 0)
(1.56747 0.00823393 0)
(1.56818 0.00701451 0)
(1.5689 0.00574531 0)
(1.56962 0.00441911 0)
(1.57035 0.00302842 0)
(1.57111 0.0015643 0)
(1.57189 1.76568e-05 0)
(1.57271 -0.00162037 0)
(1.57358 -0.00336297 0)
(1.57451 -0.00522048 0)
(1.57553 -0.00720621 0)
(1.57664 -0.00933665 0)
(1.57786 -0.0116289 0)
(1.5792 -0.0141001 0)
(1.5807 -0.0167685 0)
(1.58237 -0.0196528 0)
(1.58424 -0.0227722 0)
(1.58635 -0.0261462 0)
(1.58872 -0.0297935 0)
(1.59141 -0.0337345 0)
(1.59447 -0.0379851 0)
(1.59795 -0.0425696 0)
(1.60191 -0.047497 0)
(1.60644 -0.052806 0)
(1.61159 -0.058535 0)
(1.61742 -0.0646539 0)
(1.62405 -0.071143 0)
(1.63161 -0.0779951 0)
(1.6402 -0.0851927 0)
(1.64993 -0.0927 0)
(1.66094 -0.100463 0)
(1.67335 -0.108409 0)
(1.68729 -0.116471 0)
(1.70287 -0.124554 0)
(1.72016 -0.132529 0)
(1.73922 -0.140218 0)
(1.76005 -0.147379 0)
(1.78263 -0.153779 0)
(1.80691 -0.159206 0)
(1.83272 -0.163454 0)
(1.85987 -0.166324 0)
(1.88808 -0.167642 0)
(1.4777 0.00156116 0)
(1.47815 0.00463834 0)
(1.47915 0.00746764 0)
(1.48056 0.00993854 0)
(1.48215 0.01206 0)
(1.4838 0.0138955 0)
(1.48549 0.0154967 0)
(1.48722 0.016894 0)
(1.48896 0.018114 0)
(1.49071 0.0191856 0)
(1.49244 0.0201345 0)
(1.49415 0.0209819 0)
(1.49586 0.0217449 0)
(1.49756 0.0224358 0)
(1.49925 0.0230623 0)
(1.50094 0.0236315 0)
(1.50263 0.0241491 0)
(1.50431 0.0246201 0)
(1.506 0.0250477 0)
(1.50769 0.0254348 0)
(1.50938 0.0257834 0)
(1.51108 0.0260951 0)
(1.51278 0.0263704 0)
(1.51449 0.0266088 0)
(1.5162 0.0268098 0)
(1.51793 0.0269728 0)
(1.51966 0.027097 0)
(1.52139 0.0271792 0)
(1.52314 0.0272153 0)
(1.52489 0.0272026 0)
(1.52664 0.0271391 0)
(1.52839 0.0270238 0)
(1.53012 0.026856 0)
(1.53185 0.0266349 0)
(1.53356 0.0263614 0)
(1.53525 0.0260354 0)
(1.53692 0.0256571 0)
(1.53857 0.0252258 0)
(1.54018 0.0247427 0)
(1.54175 0.0242097 0)
(1.54329 0.0236289 0)
(1.54478 0.0230016 0)
(1.54623 0.0223303 0)
(1.54764 0.0216164 0)
(1.54899 0.0208652 0)
(1.55028 0.0200838 0)
(1.55152 0.019276 0)
(1.55271 0.0184383 0)
(1.55386 0.0175697 0)
(1.55495 0.0166746 0)
(1.55599 0.0157518 0)
(1.55698 0.0148035 0)
(1.55792 0.0138257 0)
(1.55883 0.0128266 0)
(1.55969 0.0118124 0)
(1.56053 0.0107741 0)
(1.56134 0.00970205 0)
(1.56212 0.00859004 0)
(1.56289 0.00743429 0)
(1.56363 0.00622998 0)
(1.56436 0.00497036 0)
(1.56509 0.00364769 0)
(1.56582 0.00225336 0)
(1.56655 0.000777813 0)
(1.5673 -0.000788709 0)
(1.56807 -0.00245764 0)
(1.56888 -0.00424231 0)
(1.56973 -0.0061562 0)
(1.57063 -0.00821478 0)
(1.57161 -0.0104353 0)
(1.57267 -0.0128359 0)
(1.57384 -0.0154361 0)
(1.57513 -0.0182573 0)
(1.57657 -0.0213219 0)
(1.57819 -0.0246532 0)
(1.58001 -0.0282748 0)
(1.58208 -0.0322111 0)
(1.58444 -0.0364882 0)
(1.58713 -0.0411324 0)
(1.59021 -0.0461727 0)
(1.59375 -0.0516364 0)
(1.59781 -0.0575551 0)
(1.60248 -0.0639506 0)
(1.60785 -0.0708228 0)
(1.61401 -0.0781732 0)
(1.62109 -0.0860049 0)
(1.62923 -0.0943091 0)
(1.63855 -0.103059 0)
(1.6492 -0.112207 0)
(1.66134 -0.121686 0)
(1.67512 -0.131402 0)
(1.69068 -0.141234 0)
(1.70814 -0.15102 0)
(1.72758 -0.160557 0)
(1.74904 -0.169598 0)
(1.77251 -0.177865 0)
(1.79794 -0.185062 0)
(1.82518 -0.190893 0)
(1.85398 -0.195073 0)
(1.88402 -0.19736 0)
(1.47767 0.00132164 0)
(1.47801 0.00393738 0)
(1.47878 0.0064039 0)
(1.47989 0.00862995 0)
(1.4812 0.0105962 0)
(1.48261 0.0123333 0)
(1.4841 0.0138761 0)
(1.48565 0.0152469 0)
(1.48723 0.0164629 0)
(1.48884 0.0175438 0)
(1.49045 0.018509 0)
(1.49207 0.0193756 0)
(1.49369 0.020157 0)
(1.49531 0.0208635 0)
(1.49694 0.021503 0)
(1.49856 0.0220822 0)
(1.50019 0.0226071 0)
(1.50182 0.0230821 0)
(1.50345 0.023511 0)
(1.50509 0.0238965 0)
(1.50673 0.0242407 0)
(1.50838 0.0245452 0)
(1.51003 0.0248109 0)
(1.51169 0.025038 0)
(1.51335 0.0252266 0)
(1.51503 0.0253766 0)
(1.5167 0.0254875 0)
(1.51839 0.0255582 0)
(1.52007 0.0255859 0)
(1.52176 0.0255682 0)
(1.52345 0.0255032 0)
(1.52514 0.0253903 0)
(1.52681 0.0252288 0)
(1.52847 0.0250184 0)
(1.53012 0.0247592 0)
(1.53175 0.0244511 0)
(1.53335 0.0240945 0)
(1.53493 0.0236896 0)
(1.53647 0.0232375 0)
(1.53799 0.0227398 0)
(1.53946 0.0221984 0)
(1.5409 0.0216145 0)
(1.54229 0.0209897 0)
(1.54364 0.0203261 0)
(1.54493 0.0196264 0)
(1.54618 0.0188938 0)
(1.54738 0.0181311 0)
(1.54852 0.0173386 0)
(1.54962 0.016517 0)
(1.55067 0.015668 0)
(1.55168 0.014792 0)
(1.55263 0.0138887 0)
(1.55354 0.0129593 0)
(1.55441 0.0120041 0)
(1.55523 0.0110248 0)
(1.55602 0.0100132 0)
(1.55679 0.00896358 0)
(1.55752 0.00787131 0)
(1.55823 0.00673229 0)
(1.55892 0.00554091 0)
(1.55959 0.00428984 0)
(1.56025 0.00297067 0)
(1.5609 0.00157416 0)
(1.56155 9.01696e-05 0)
(1.5622 -0.00149239 0)
(1.56287 -0.00318613 0)
(1.56356 -0.00500497 0)
(1.56428 -0.00696405 0)
(1.56503 -0.00908 0)
(1.56584 -0.0113712 0)
(1.56672 -0.0138578 0)
(1.56768 -0.0165621 0)
(1.56875 -0.019508 0)
(1.56994 -0.0227208 0)
(1.57127 -0.0262276 0)
(1.57279 -0.0300574 0)
(1.57453 -0.0342409 0)
(1.57652 -0.0388105 0)
(1.57881 -0.0438 0)
(1.58147 -0.0492446 0)
(1.58456 -0.05518 0)
(1.58814 -0.0616413 0)
(1.59231 -0.0686607 0)
(1.59717 -0.0762629 0)
(1.60281 -0.0844668 0)
(1.60938 -0.093285 0)
(1.61701 -0.102719 0)
(1.62587 -0.112752 0)
(1.63612 -0.123346 0)
(1.64795 -0.134436 0)
(1.66153 -0.145924 0)
(1.67705 -0.157675 0)
(1.69466 -0.169506 0)
(1.71451 -0.181177 0)
(1.73666 -0.192393 0)
(1.76116 -0.202803 0)