/*--------------------------------*- C++ -*----------------------------------*\
| =========                 |                                                 |
| \\      /  F ield         | OpenFOAM: The Open Source CFD Toolbox           |
|  \\    /   O peration     | Version:  2206                                  |
|   \\  /    A nd           | Website:  www.openfoam.com                      |
|    \\/     M anipulation  |                                                 |
\*---------------------------------------------------------------------------*/
FoamFile
{
    version     2.0;
    format      ascii;
    arch        "LSB;label=32;scalar=64";
    class       surfaceScalarField;
    location    "18.0999";
    object      ddtCorrDdt0(phi);
}
// * * * * * * * * * * * * * * * * * * * * * * * * * * * * * * * * * * * * * //

dimensions      [0 3 -2 0 0 0 0];

oriented        oriented;

internalField   nonuniform List<scalar> 
9528
(
-9.85064e-05
-4.502e-05
0.000143526
-0.000167413
-4.69879e-05
0.000115895
-0.000229552
-4.24829e-05
0.000104621
-0.000288083
-4.76913e-05
0.000106223
-0.000344854
-6.25935e-05
0.000119364
-0.000399486
-9.1228e-05
0.000145861
-0.000449566
-0.000137808
0.000187888
-0.000496969
-0.000206643
0.000254046
-0.00054578
-0.000304274
0.000353085
-0.000595035
-0.000442063
0.000491318
-0.000605451
-0.000620362
0.000630778
-0.000519238
-0.00077745
0.000691237
-0.000377384
-0.00079106
0.000649206
-0.00023374
-0.000695194
0.00055155
-0.00010525
-0.000558696
0.000430205
-1.42342e-06
-0.000413639
0.000309813
7.76649e-05
-0.000281102
0.000202013
0.000134361
-0.000174401
0.000117705
0.000171539
-8.88323e-05
5.1654e-05
0.000196275
-1.12469e-05
-1.34889e-05
0.000217333
2.99737e-05
-5.10321e-05
0.000238952
5.75643e-05
-7.91826e-05
0.000249279
9.09767e-05
-0.000101304
0.000252158
0.000109137
-0.000112016
0.000251587
0.000116729
-0.000116158
0.00025023
0.000117918
-0.000116561
0.000249619
0.000115981
-0.00011537
0.000250491
0.000113249
-0.000114122
0.000252943
0.000111206
-0.000113658
0.00025691
0.000110702
-0.000114669
0.00026268
0.000111904
-0.000117675
0.000271139
0.000114216
-0.000122674
0.000282279
0.000117896
-0.000129036
0.00029286
0.000125983
-0.000136564
0.000297197
0.000143126
-0.000147464
0.00029686
0.000166944
-0.000166607
0.000314005
0.000176721
-0.000193867
0.000391132
0.000135948
-0.000213075
0.000558947
2.20146e-05
-0.000189829
0.000782617
-0.000127958
-9.57123e-05
0.000938499
-0.00020212
4.62379e-05
0.000924306
-0.000124338
0.000138531
0.000756736
7.42492e-05
9.33203e-05
0.000498527
0.000330451
-7.22414e-05
0.000220748
0.000570525
-0.000292746
-5.19284e-05
0.000782251
-0.000509575
-0.000294732
0.000944275
-0.000701472
-0.000453446
0.00100228
-0.000843569
-0.00054036
0.000980954
-0.00089404
-0.000579386
0.000912176
-0.000873151
-0.000588525
0.000819321
-0.000810182
-0.000573652
0.000713206
-0.000728078
-0.000540298
0.000602117
-0.000635471
-0.000494081
0.000492894
-0.000539111
-0.000440306
0.000390983
-0.000444757
-0.000383091
0.000299537
-0.000356752
-0.000325662
0.000220324
-0.000277753
-0.00027043
0.000154067
-0.0002093
-0.000219081
0.000100704
-0.000152053
-0.000172677
5.96097e-05
-0.000106014
-0.000131715
2.97721e-05
-7.07339e-05
-9.63068e-05
1.01131e-05
-4.55211e-05
-6.63956e-05
-5.45842e-07
-2.93653e-05
-4.17704e-05
-3.7967e-06
-2.08285e-05
-2.1956e-05
-1.65166e-06
-1.81627e-05
-6.09683e-06
3.84786e-06
-1.9707e-05
6.4027e-06
1.1638e-05
-2.41376e-05
1.68141e-05
2.08935e-05
-3.13048e-05
2.68538e-05
3.38386e-05
-4.38783e-05
3.74109e-05
4.91116e-05
-5.96687e-05
5.01952e-05
6.96833e-05
-8.24676e-05
6.67176e-05
9.89716e-05
-0.000115494
8.76574e-05
0.000139656
-0.000160596
0.000112194
0.000191766
-0.000216303
0.000136802
0.000249757
-0.000274365
0.000153259
0.000299103
-0.000315561
0.000152018
0.000312462
-0.000311221
0.000137565
0.000278701
-0.000264248
0.00011453
0.000208532
-0.000185496
9.18854e-05
0.000115019
-9.23745e-05
8.79003e-05
-4.8798e-06
8.86491e-06
4.4539e-05
-0.000245803
0.000289164
2.45693e-06
-0.000475436
0.000517519
-3.97363e-05
-0.000705083
0.000747277
-8.23067e-05
-0.000919506
0.000962077
-0.000125297
-0.00110206
0.00114505
-0.00016709
-0.00123905
0.00128084
-0.000202595
-0.00131767
0.00135318
-0.000227704
-0.00131887
0.00134398
-0.000242601
-0.00126845
0.00128335
-0.000246249
-0.00117573
0.00117937
-0.00023892
-0.00104981
0.00104248
-0.000222194
-0.000902742
0.000886015
-0.000198445
-0.000745446
0.000721697
-0.000170325
-0.000588019
0.000559899
-0.000140839
-0.000439635
0.000410149
-0.000111729
-0.000305545
0.000276435
-8.3871e-05
-0.000190904
0.000163046
-5.62877e-05
-0.000100124
7.25403e-05
-2.45224e-05
-3.58927e-05
4.12728e-06
9.20301e-06
3.35483e-05
-6.72737e-05
3.01141e-05
9.35585e-05
-0.00011447
4.64034e-05
0.000122567
-0.000138856
5.88729e-05
0.000136125
-0.000148594
6.84514e-05
0.000138097
-0.000147675
7.66444e-05
0.000132623
-0.000140816
8.38912e-05
0.000123544
-0.000130791
9.05515e-05
0.000112153
-0.000118813
9.68893e-05
9.93975e-05
-0.000105735
0.0001031
8.59404e-05
-9.21511e-05
0.000109334
7.22095e-05
-7.84434e-05
0.000115751
5.84147e-05
-6.48315e-05
0.000122585
4.45761e-05
-5.14105e-05
0.00013014
3.06794e-05
-3.82347e-05
0.000138763
1.67737e-05
-2.53958e-05
0.000148851
2.30925e-06
-1.23981e-05
0.000160717
-1.32366e-05
1.37151e-06
0.000174389
-2.99307e-05
1.62583e-05
0.000189441
-4.68703e-05
3.18178e-05
0.000204917
-6.17794e-05
4.63037e-05
0.000219394
-7.09877e-05
5.65107e-05
0.000231151
-6.99134e-05
5.81563e-05
0.000238673
-5.43516e-05
4.68295e-05
0.000241506
-2.29783e-05
2.01452e-05
0.000239307
2.49569e-05
-2.27575e-05
0.000232416
8.7589e-05
-8.06977e-05
0.000160105
-0.000149496
-7.50018e-05
2.99818e-05
-0.000140499
1.85089e-05
-0.000196448
1.34661e-05
-0.000243309
-8.3015e-07
-0.000285257
-2.06459e-05
-0.000325173
-5.13114e-05
-0.000361377
-0.000101604
-0.000390721
-0.000177299
-0.000414433
-0.000280562
-0.000438993
-0.000417503
-0.000470635
-0.00058872
-0.000470477
-0.000777608
-0.000405278
-0.000856259
-0.000311211
-0.000789261
-0.00021136
-0.000658546
-0.000118512
-0.000506486
-3.72923e-05
-0.000362322
2.83339e-05
-0.000240027
7.4705e-05
-0.000135203
0.000112959
-4.9501e-05
0.000139978
2.95443e-06
0.000164337
3.32051e-05
0.00019273
6.25843e-05
0.000211945
8.99222e-05
0.000224052
0.000104622
0.000231888
0.000110082
0.00023826
0.000109609
0.000244723
0.000106786
0.00025227
0.000103659
0.000261901
0.000101071
0.000274511
9.92949e-05
0.000289442
9.92845e-05
0.000302842
0.000104496
0.000309999
0.000118826
0.000315666
0.00013746
0.000346064
0.000136546
0.000443684
7.91008e-05
0.000631491
-5.18592e-05
0.000862132
-0.000208626
0.00100369
-0.000269515
0.000969547
-0.000167978
0.000788366
5.68423e-05
0.000516108
0.000346507
0.000237267
0.000609292
-3.84751e-05
0.000846267
-0.000294487
0.00103826
-0.000464874
0.00111466
-0.000562983
0.00110039
-0.0006105
0.00102847
-0.000624034
0.00092571
-0.000609671
0.000804958
-0.000573573
0.000677108
-0.000522363
0.000550907
-0.000462583
0.000433115
-0.000399273
0.000327672
-0.000336113
0.000236377
-0.000275726
0.000159937
-0.000219889
9.82298e-05
-0.00016957
5.03852e-05
-0.000125224
1.52631e-05
-8.71481e-05
-8.30338e-06
-5.52542e-05
-2.17807e-05
-2.91032e-05
-2.66969e-05
-7.95893e-06
-2.4941e-05
9.00686e-06
-1.86174e-05
2.23936e-05
-9.53885e-06
3.32663e-05
7.65338e-07
4.2449e-05
1.17108e-05
5.18289e-05
2.44586e-05
6.17225e-05
3.9218e-05
7.38362e-05
5.75696e-05
9.00951e-05
8.27127e-05
0.00011168
0.000118072
0.000138325
0.000165121
0.000167431
0.000220652
0.000192818
0.000273717
0.000203166
0.000302114
0.000198856
0.00028301
0.000182672
0.000224716
0.000160765
0.000136926
0.00015293
2.95448e-06
0.000109828
-0.0002027
6.52796e-05
-0.000430888
1.90173e-05
-0.000658821
-2.95857e-05
-0.000870903
-8.00248e-05
-0.00105163
-0.00013058
-0.00118849
-0.000177396
-0.00127086
-0.000213809
-0.00128246
-0.000240646
-0.00124162
-0.000256127
-0.00116024
-0.000259946
-0.00104599
-0.000253198
-0.000909489
-0.000237738
-0.000760906
-0.00021576
-0.000609998
-0.00018943
-0.000465964
-0.000159891
-0.000335085
-0.000128538
-0.000222257
-9.81216e-05
-0.00013054
-7.28361e-05
-6.11782e-05
-4.29633e-05
3.67543e-06
-1.59602e-05
6.65555e-05
5.268e-06
0.000101339
2.19204e-05
0.000119473
3.50476e-05
0.00012497
4.61984e-05
0.000121473
5.59966e-05
0.000113746
6.4887e-05
0.000103262
7.31784e-05
9.11061e-05
8.10829e-05
7.80359e-05
8.8753e-05
6.45394e-05
9.63729e-05
5.07948e-05
0.000104289
3.66597e-05
0.000112861
2.21077e-05
0.000122494
7.14089e-06
0.000133586
-8.78348e-06
0.000146375
-2.60256e-05
0.000160781
-4.43367e-05
0.000176293
-6.23815e-05
0.000191949
-7.7436e-05
0.000206377
-8.54158e-05
0.000217744
-8.12801e-05
0.000225156
-6.17638e-05
0.000228577
-2.63988e-05
0.000227674
2.58593e-05
0.000222937
9.23259e-05
0.000167928
-6.21876e-05
9.21693e-05
-0.000114484
7.08056e-05
-0.000157012
5.59937e-05
-0.000190922
3.30799e-05
-0.000218384
6.81576e-06
-0.000242302
-2.7393e-05
-0.000265779
-7.81274e-05
-0.000289286
-0.000153792
-0.000309807
-0.00026004
-0.000331355
-0.000395955
-0.00035949
-0.000560586
-0.0003994
-0.000737698
-0.000399708
-0.000855951
-0.000357268
-0.000831701
-0.000297247
-0.000718568
-0.000227698
-0.000576035
-0.000157079
-0.000432941
-9.32905e-05
-0.000303815
-3.57269e-05
-0.000192767
1.68867e-05
-0.000102115
5.7903e-05
-3.80619e-05
8.92279e-05
1.88026e-06
0.000121277
3.0535e-05
0.000150282
6.09178e-05
0.000180321
7.45822e-05
0.000202177
8.82265e-05
0.000220663
9.11231e-05
0.000237241
9.02083e-05
0.00025438
8.65197e-05
0.000273004
8.24469e-05
0.000291936
8.03631e-05
0.000307553
8.3668e-05
0.000317324
9.47242e-05
0.000329864
0.000106286
0.000374332
9.29908e-05
0.000491417
1.94609e-05
0.000696566
-0.000126048
0.000933014
-0.000288307
0.00106334
-0.000338953
0.00101418
-0.000220356
0.000823788
2.2417e-05
0.000543966
0.000336664
0.000269197
0.000621276
-1.12662e-05
0.000889756
-0.000287284
0.00112229
-0.000474841
0.00122582
-0.000588297
0.00122812
-0.0006461
0.00115819
-0.000664883
0.00104726
-0.000650899
0.000911726
-0.000611241
0.0007653
-0.000553743
0.00061961
-0.000486426
0.00048359
-0.000415666
0.000362354
-0.000345806
0.000257813
-0.000279707
0.000170278
-0.000219073
9.93033e-05
-0.000164736
4.38919e-05
-0.000117124
2.77348e-06
-7.61015e-05
-2.57593e-05
-4.18342e-05
-4.25706e-05
-1.4471e-05
-4.9144e-05
6.96244e-06
-4.81303e-05
2.38919e-05
-4.18705e-05
3.76171e-05
-3.23426e-05
4.91667e-05
-2.10884e-05
5.9001e-05
-9.06896e-06
6.72187e-05
3.49307e-06
7.50829e-05
1.65944e-05
8.39702e-05
3.03307e-05
9.54167e-05
4.61231e-05
0.000111295
6.68344e-05
0.000133138
9.62293e-05
0.000161238
0.00013702
0.000193767
0.000188122
0.000225732
0.000241752
0.000246951
0.000280895
0.000251401
0.00027856
0.000243821
0.000232296
0.000229079
0.000151668
0.000207602
2.44317e-05
0.000169643
-0.000164741
0.000123199
-0.000384445
7.25397e-05
-0.000608161
1.84268e-05
-0.000816791
-3.82495e-05
-0.000994949
-9.59316e-05
-0.00113081
-0.000151257
-0.00121553
-0.000197214
-0.0012365
-0.00023422
-0.00120461
-0.000260041
-0.00113442
-0.000273877
-0.00103216
-0.00027628
-0.000907087
-0.000268405
-0.000768781
-0.000251861
-0.000626542
-0.000228685
-0.00048914
-0.000200687
-0.000363083
-0.000170165
-0.000252779
-0.000140007
-0.000160697
-0.000114492
-8.66937e-05
-8.88352e-05
-2.19812e-05
-5.88068e-05
3.65271e-05
-3.41687e-05
7.67009e-05
-1.40957e-05
9.93994e-05
2.27061e-06
0.000108603
1.6114e-05
0.000107629
2.82217e-05
0.000101639
3.91215e-05
9.23624e-05
4.91786e-05
8.10489e-05
5.86258e-05
6.85888e-05
6.76041e-05
5.55611e-05
7.62965e-05
4.21024e-05
8.51267e-05
2.78294e-05
9.4545e-05
1.26895e-05
0.000105008
-3.32177e-06
0.000116878
-2.06536e-05
0.00013031
-3.94583e-05
0.000145148
-5.91745e-05
0.000160851
-7.80846e-05
0.000176478
-9.30631e-05
0.000190641
-9.95785e-05
0.000201507
-9.21455e-05
0.000209022
-6.9279e-05
0.000213207
-3.05839e-05
0.000213891
2.51752e-05
0.000211513
9.47036e-05
0.000172922
-5.04756e-05
-9.14624e-05
-0.000122537
-0.000145336
-0.00016161
-0.000170517
-0.000177261
-0.000189001
-0.000203762
-0.00024528
-0.000225489
-0.000374228
-0.000262254
-0.000523821
-0.000321238
-0.000678713
-0.000380622
-0.000796567
-0.000393989
-0.000818334
-0.000371707
-0.00074085
-0.000327775
-0.000619967
-0.000271937
-0.00048878
-0.000211639
-0.000364113
-0.000150293
-0.000254114
-9.0625e-05
-0.000161782
-3.65052e-05
-9.21817e-05
1.04536e-05
-4.50786e-05
5.03312e-05
-9.34254e-06
9.22594e-05
1.89896e-05
0.000130494
3.63481e-05
0.000164746
5.39739e-05
0.000199488
5.63814e-05
0.000230459
5.92375e-05
0.000259491
5.74868e-05
0.000284571
5.7367e-05
0.000303377
6.15574e-05
0.000317359
6.96859e-05
0.000340099
7.19844e-05
0.000402776
4.36097e-05
0.000542145
-4.63787e-05
0.000763515
-0.000201909
0.00100233
-0.000364865
0.0011177
-0.000403679
0.00105141
-0.000272658
0.000853345
-2.22913e-05
0.000574521
0.00030124
0.000305498
0.000605687
1.68999e-05
0.000909874
-0.000280615
0.00118727
-0.000487369
0.00132904
-0.000619058
0.00135751
-0.000687773
0.00129683
-0.000711387
0.00118181
-0.000697442
0.00103331
-0.000653498
0.000867782
-0.000588454
0.000700256
-0.000511882
0.000543037
-0.000431842
0.00040355
-0.000353843
0.000284356
-0.000281101
0.000185071
-0.000215438
0.000104615
-0.000157064
4.09296e-05
-0.000106035
-7.13725e-06
-6.20113e-05
-4.12503e-05
-2.55133e-05
-6.22574e-05
3.59816e-06
-7.1682e-05
2.51185e-05
-7.06643e-05
4.10563e-05
-6.40682e-05
5.34469e-05
-5.4261e-05
6.38699e-05
-4.27656e-05
7.31949e-05
-3.04134e-05
8.17138e-05
-1.75879e-05
8.95888e-05
-4.38186e-06
9.72626e-05
8.9206e-06
0.000105659
2.19346e-05
0.000116244
3.55377e-05
0.000131022
5.20571e-05
0.000151991
7.52602e-05
0.000180144
0.000108866
0.000214449
0.000153818
0.000250922
0.000205279
0.000281766
0.000250051
0.000295878
0.000264448
0.000295881
0.000232294
0.000285648
0.000161901
0.000262586
4.74937e-05
0.00022388
-0.000126035
0.000174711
-0.000335276
0.000119647
-0.000553098
6.06681e-05
-0.000757811
-1.07732e-06
-0.000933203
-6.40687e-05
-0.00106782
-0.000125445
-0.00115416
-0.00017885
-0.00118309
-0.000223976
-0.00115948
-0.000258304
-0.0011001
-0.000280595
-0.00100987
-0.000290808
-0.000896874
-0.000289655
-0.000769933
-0.000278455
-0.000637742
-0.000259249
-0.000508346
-0.000234363
-0.000387969
-0.000206398
-0.000280744
-0.000178251
-0.000188844
-0.00015265
-0.000112295
-0.000126666
-4.79654e-05
-9.77261e-05
7.58764e-06
-7.09681e-05
4.99429e-05
-4.83651e-05
7.67964e-05
-2.91911e-05
8.94294e-05
-1.29897e-05
9.14277e-05
1.09045e-06
8.75583e-05
1.36609e-05
7.97919e-05
2.51891e-05
6.95208e-05
3.59778e-05
5.78001e-05
4.61409e-05
4.5398e-05
5.57484e-05
3.24949e-05
6.52704e-05
1.83074e-05
7.53128e-05
2.64712e-06
8.63769e-05
-1.43859e-05
9.87597e-05
-3.30365e-05
0.00011253
-5.32286e-05
0.000127492
-7.41363e-05
0.000143126
-9.37185e-05
0.000158504
-0.000108441
0.000172061
-0.000113135
0.000182273
-0.000102358
0.000189877
-7.68827e-05
0.000195026
-3.57336e-05
0.000197454
2.27475e-05
0.000197449
9.4709e-05
0.000175184
-0.000126807
-0.000151366
-0.000190902
-0.000255989
-0.000337413
-0.000399225
-0.000419437
-0.000405968
-0.000367971
-0.000315779
-0.000256565
-0.00019352
-0.000131039
-7.28126e-05
-1.82135e-05
3.5408e-05
8.32689e-05
0.000131794
0.000174918
0.000213327
0.000252084
0.000281906
0.000307984
0.000349922
0.000439504
0.000606308
0.000843014
0.00107143
0.0011593
0.00107004
0.000865117
0.000593932
0.00033132
3.43331e-05
-0.000281703
-0.000508511
-0.000658249
-0.000737946
-0.00076475
-0.000749259
-0.000699705
-0.00062599
-0.000538896
-0.000447741
-0.000359285
-0.00027841
-0.000207459
-0.000145267
-9.07477e-05
-4.36144e-05
-3.93065e-06
2.56048e-05
4.55806e-05
5.96751e-05
7.04589e-05
7.94946e-05
8.76521e-05
9.53986e-05
0.000102945
0.000110381
0.000117813
0.000125767
0.000135422
0.000148696
0.000167949
0.000194975
0.000229684
0.000269085
0.000306631
0.000330901
0.000338023
0.000332424
0.000311641
0.000272778
0.000220772
0.000161203
9.74288e-05
3.12735e-05
-3.57092e-05
-0.000101192
-0.000159892
-0.000210774
-0.000251531
-0.000280553
-0.000297319
-0.000302236
-0.000296488
-0.000282034
-0.000261241
-0.000236582
-0.000210409
-0.000184513
-0.000158814
-0.000131586
-0.000104641
-7.99125e-05
-5.84883e-05
-4.04459e-05
-2.48265e-05
-1.09941e-05
1.56407e-06
1.32976e-05
2.44509e-05
3.48502e-05
4.47772e-05
5.52518e-05
6.67119e-05
7.933e-05
9.31127e-05
0.00010788
0.000123172
0.000138046
0.000150464
0.00015994
0.000167526
0.000173647
0.000177773
0.00018005
1.01858e-05
-4.59232e-06
1.5133e-05
-4.94729e-06
2.01022e-05
-4.96929e-06
2.49408e-05
-4.83867e-06
2.957e-05
-4.62929e-06
3.32696e-05
-3.69964e-06
3.54918e-05
-2.22214e-06
3.64531e-05
-9.61337e-07
3.66295e-05
-1.76339e-07
3.63225e-05
3.07004e-07
3.57408e-05
5.81724e-07
3.50587e-05
6.82062e-07
6.45378e-07
3.44132e-05
4.6117e-06
-7.57028e-06
8.23838e-06
-8.57401e-06
1.1915e-05
-8.64593e-06
1.56754e-05
-8.59912e-06
1.97805e-05
-8.73448e-06
2.45054e-05
-8.42453e-06
3.00369e-05
-7.7536e-06
3.58878e-05
-6.81227e-06
4.15887e-05
-5.87718e-06
4.69047e-05
-5.00903e-06
5.16675e-05
-4.18107e-06
5.57222e-05
-3.37261e-06
-2.56091e-06
5.89284e-05
-2.31409e-07
-9.32406e-06
1.77972e-06
-1.05852e-05
4.09044e-06
-1.09567e-05
6.71118e-06
-1.12199e-05
9.66957e-06
-1.16929e-05
1.29997e-05
-1.17547e-05
1.67702e-05
-1.1524e-05
2.09939e-05
-1.1036e-05
2.5512e-05
-1.03952e-05
3.01767e-05
-9.67372e-06
3.4862e-05
-8.86637e-06
3.94366e-05
-7.9473e-06
-6.89055e-06
4.37662e-05
-3.1246e-06
-1.05606e-05
-2.01263e-06
-1.16972e-05
-3.99522e-07
-1.25698e-05
1.67156e-06
-1.32909e-05
3.92524e-06
-1.39466e-05
6.50172e-06
-1.43312e-05
9.46097e-06
-1.44833e-05
1.28193e-05
-1.43943e-05
1.65315e-05
-1.41075e-05
2.05114e-05
-1.36536e-05
2.46697e-05
-1.30247e-05
2.89228e-05
-1.22004e-05
-1.11606e-05
3.31929e-05
-5.31218e-06
-1.15139e-05
-4.18577e-06
-1.28236e-05
-2.7327e-06
-1.40229e-05
-9.60452e-07
-1.50633e-05
1.06153e-06
-1.59686e-05
3.38953e-06
-1.66592e-05
6.0813e-06
-1.71751e-05
9.11965e-06
-1.74327e-05
1.2458e-05
-1.74459e-05
1.608e-05
-1.72756e-05
1.99206e-05
-1.68652e-05
2.39307e-05
-1.62106e-05
-1.52991e-05
2.80693e-05
-8.11203e-06
-1.08677e-05
-7.16887e-06
-1.24571e-05
-5.97959e-06
-1.4013e-05
-4.5216e-06
-1.54809e-05
-2.74418e-06
-1.68407e-05
-6.62316e-07
-1.80505e-05
1.74705e-06
-1.90687e-05
4.46423e-06
-1.98923e-05
7.49689e-06
-2.04653e-05
1.0834e-05
-2.0783e-05
1.44394e-05
-2.08811e-05
1.82962e-05
-2.0722e-05
2.23786e-05
-2.0293e-05
-1.95551e-05
2.66346e-05
-1.01227e-05
-1.15636e-05
-9.15356e-06
-1.34263e-05
-7.89218e-06
-1.52744e-05
-6.31462e-06
-1.70585e-05
-4.4075e-06
-1.87478e-05
-2.15904e-06
-2.0299e-05
4.28322e-07
-2.16561e-05
3.33296e-06
-2.27969e-05
6.5623e-06
-2.36947e-05
1.01022e-05
-2.43229e-05
1.38874e-05
-2.46664e-05
1.79004e-05
-2.47349e-05
2.21131e-05
-2.45057e-05
-2.39454e-05
2.65034e-05
-1.2436e-05
-1.22234e-05
-1.14527e-05
-1.44096e-05
-1.01227e-05
-1.66045e-05
-8.42325e-06
-1.87579e-05
-6.35401e-06
-2.08171e-05
-3.90481e-06
-2.27483e-05
-1.08489e-06
-2.4476e-05
2.09742e-06
-2.59793e-05
5.62165e-06
-2.72189e-05
9.45502e-06
-2.81563e-05
1.35569e-05
-2.87683e-05
1.78889e-05
-2.90669e-05
2.242e-05
-2.90368e-05
-2.8643e-05
2.71177e-05
-1.51309e-05
-1.28204e-05
-1.41516e-05
-1.5389e-05
-1.27628e-05
-1.79933e-05
-1.09457e-05
-2.05751e-05
-8.68946e-06
-2.30734e-05
-6.00567e-06
-2.54321e-05
-2.89532e-06
-2.75864e-05
6.22272e-07
-2.94969e-05
4.51215e-06
-3.11088e-05
8.73895e-06
-3.23831e-05
1.32683e-05
-3.32977e-05
1.80518e-05
-3.38503e-05
2.30349e-05
-3.40199e-05
-3.37874e-05
2.81793e-05
-1.83056e-05
-1.33097e-05
-1.73657e-05
-1.63289e-05
-1.59431e-05
-1.9416e-05
-1.4017e-05
-2.25011e-05
-1.15793e-05
-2.55111e-05
-8.63784e-06
-2.83736e-05
-5.20575e-06
-3.10185e-05
-1.31839e-06
-3.33842e-05
2.98807e-06
-3.54153e-05
7.67269e-06
-3.70677e-05
1.26866e-05
-3.83116e-05
1.79669e-05
-3.91307e-05
2.34589e-05
-3.95119e-05
-3.94479e-05
2.91193e-05
-2.20402e-05
-1.36394e-05
-2.11798e-05
-1.71892e-05
-1.97494e-05
-2.08464e-05
-1.77249e-05
-2.45257e-05
-1.5099e-05
-2.8137e-05
-1.18819e-05
-3.15908e-05
-8.09898e-06
-3.48014e-05
-3.79126e-06
-3.7692e-05
9.90974e-07
-4.01975e-05
6.1899e-06
-4.22666e-05
1.17414e-05
-4.38631e-05
1.75774e-05
-4.49667e-05
2.36342e-05
-4.55687e-05
-4.56698e-05
2.98561e-05
-2.64327e-05
-1.37457e-05
-2.56995e-05
-1.79224e-05
-2.42904e-05
-2.22556e-05
-2.21762e-05
-2.66399e-05
-1.93498e-05
-3.09634e-05
-1.58268e-05
-3.51137e-05
-1.16436e-05
-3.89847e-05
-6.85421e-06
-4.24814e-05
-1.5267e-06
-4.55251e-05
4.26197e-06
-4.80553e-05
1.04307e-05
-5.00318e-05
1.68978e-05
-5.14338e-05
2.35858e-05
-5.22567e-05
-5.25098e-05
3.04259e-05
-3.16039e-05
-1.35486e-05
-3.1057e-05
-1.84693e-05
-2.97034e-05
-2.36092e-05
-2.75067e-05
-2.88366e-05
-2.44601e-05
-3.40101e-05
-2.05862e-05
-3.89876e-05
-1.59354e-05
-4.36355e-05
-1.05811e-05
-4.78357e-05
-4.61422e-06
-5.1492e-05
1.86448e-06
-5.4534e-05
8.75069e-06
-5.69181e-05
1.59423e-05
-5.86255e-05
2.33453e-05
-5.96596e-05
-6.00418e-05
3.08772e-05
-3.76966e-05
-1.29462e-05
-3.74112e-05
-1.87546e-05
-3.61559e-05
-2.48646e-05
-3.38839e-05
-3.11086e-05
-3.05882e-05
-3.73057e-05
-2.6302e-05
-4.32738e-05
-2.10947e-05
-4.88428e-05
-1.50658e-05
-5.38645e-05
-8.33671e-06
-5.82211e-05
-1.04017e-06
-6.18306e-05
6.68917e-06
-6.46474e-05
1.47226e-05
-6.66588e-05
2.29419e-05
-6.78789e-05
-6.835e-05
3.125e-05
-4.48924e-05
-1.18046e-05
-4.49667e-05
-1.86803e-05
-4.38638e-05
-2.59675e-05
-4.1522e-05
-3.34504e-05
-3.79342e-05
-4.08935e-05
-3.31477e-05
-4.80603e-05
-2.72591e-05
-5.47314e-05
-2.04058e-05
-6.07178e-05
-1.27524e-05
-6.58745e-05
-4.47314e-06
-7.01099e-05
4.25615e-06
-7.33767e-05
1.32674e-05
-7.56701e-05
2.24366e-05
-7.70481e-05
-7.75466e-05
3.16332e-05
-5.34154e-05
-9.95026e-06
-5.3977e-05
-1.81188e-05
-5.3097e-05
-2.68475e-05
-5.06925e-05
-3.58549e-05
-4.67561e-05
-4.483e-05
-4.13543e-05
-5.34621e-05
-3.46207e-05
-6.14651e-05
-2.67447e-05
-6.85938e-05
-1.7949e-05
-7.46702e-05
-8.46901e-06
-7.95899e-05
1.45421e-06
-8.32999e-05
1.16599e-05
-8.58758e-05
2.19289e-05
-8.73171e-05
-8.77305e-05
3.21128e-05
-6.35538e-05
-7.14454e-06
-6.47766e-05
-1.6896e-05
-6.42071e-05
-2.74169e-05
-6.17351e-05
-3.8327e-05
-5.73551e-05
-4.92099e-05
-5.11635e-05
-5.96538e-05
-4.3352e-05
-6.92766e-05
-3.41892e-05
-7.77567e-05
-2.39739e-05
-8.48855e-05
-1.30247e-05
-9.05391e-05
-1.62149e-06
-9.47032e-05
9.98356e-06
-9.74808e-05
2.1493e-05
-9.88266e-05
-9.90268e-05
3.27894e-05
-7.56297e-05
-3.06258e-06
-7.77668e-05
-1.4759e-05
-7.76558e-05
-2.75279e-05
-7.51385e-05
-4.08443e-05
-7.02105e-05
-5.41379e-05
-6.30011e-05
-6.68631e-05
-5.37779e-05
-7.84999e-05
-4.29351e-05
-8.85994e-05
-3.09134e-05
-9.69072e-05
-1.8111e-05
-0.000103341
-4.83848e-06
-0.000107976
8.39106e-06
-0.00011071
2.1351e-05
-0.000111787
-0.000111569
3.38929e-05
-9.01519e-05
2.71734e-06
-9.34953e-05
-1.14156e-05
-9.39923e-05
-2.70309e-05
-9.1414e-05
-4.34226e-05
-8.57588e-05
-5.9793e-05
-7.7217e-05
-7.54049e-05
-6.61783e-05
-8.95386e-05
-5.32107e-05
-0.000101567
-3.88874e-05
-0.000111231
-2.36582e-05
-0.000118571
-8.12933e-06
-0.000123505
7.0603e-06
-0.0001259
2.17174e-05
-0.000126444
-0.000125509
3.56575e-05
-0.000108515
1.10213e-05
-0.00011364
-6.29092e-06
-0.000115046
-2.5625e-05
-0.000112413
-4.60555e-05
-0.000105714
-6.64923e-05
-9.51309e-05
-8.59878e-05
-8.13714e-05
-0.000103298
-6.55383e-05
-0.0001174
-4.81134e-05
-0.000128656
-2.95838e-05
-0.0001371
-1.13041e-05
-0.000141784
6.27637e-06
-0.000143481
2.29055e-05
-0.000143073
-0.000140995
3.83917e-05
-0.00013002
2.24379e-05
-0.000137479
1.16805e-06
-0.000140113
-2.29907e-05
-0.000137448
-4.87201e-05
-0.000129624
-7.4317e-05
-0.000116609
-9.90025e-05
-9.93371e-05
-0.00012057
-7.97465e-05
-0.000136991
-5.819e-05
-0.000150212
-3.53994e-05
-0.000159891
-1.35264e-05
-0.000163657
7.03691e-06
-0.000164044
2.59983e-05
-0.000162034
-0.000158142
4.31456e-05
-0.000151914
3.7355e-05
-0.000162159
1.14133e-05
-0.000165952
-1.91981e-05
-0.000162824
-5.18485e-05
-0.000152864
-8.42769e-05
-0.00013546
-0.000116407
-0.000115623
-0.000140406
-9.2934e-05
-0.00015968
-6.63065e-05
-0.000176839
-4.01547e-05
-0.000186043
-1.53035e-05
-0.000188509
7.95689e-06
-0.000187304
2.93673e-05
-0.000183445
-0.000177133
4.83585e-05
-0.000169048
5.85606e-05
-0.000184501
2.68661e-05
-0.000192024
-1.16753e-05
-0.00018981
-5.40623e-05
-0.000179483
-9.4604e-05
-0.000160692
-0.000135197
-0.000132292
-0.000168807
-9.66466e-05
-0.000195325
-6.76726e-05
-0.000205813
-3.91546e-05
-0.000214561
-1.09491e-05
-0.000216714
1.37392e-05
-0.000211993
3.47659e-05
-0.000204471
-0.000195276
5.29083e-05
-0.000173983
8.45387e-05
-0.000193145
4.6028e-05
-0.000198235
-6.58455e-06
-0.00019143
-6.08681e-05
-0.00017554
-0.000110494
-0.000145301
-0.000165436
-0.000118263
-0.000195844
-8.88243e-05
-0.000224765
-5.73731e-05
-0.000237265
-2.89836e-05
-0.00024295
-4.11481e-06
-0.000241583
1.80973e-05
-0.000234205
3.7267e-05
-0.000223641
-0.000211223
5.32145e-05
-0.00011745
0.000103954
-0.000128798
5.73757e-05
-0.000133991
-1.39142e-06
-0.000132083
-6.27763e-05
-0.000118599
-0.000123978
-0.000102483
-0.000181552
-7.69961e-05
-0.000221331
-5.705e-05
-0.000244711
-3.83505e-05
-0.000255964
-2.10686e-05
-0.000260232
-5.3873e-06
-0.000257264
9.16964e-06
-0.000248762
2.12025e-05
-0.000235674
-0.000223329
3.33076e-05
0.000110357
0.000118159
7.83997e-05
8.93326e-05
4.01235e-05
3.68848e-05
9.3991e-06
-3.20519e-05
-6.27517e-07
-0.000113951
-7.65584e-06
-0.000174523
-6.476e-06
-0.000222511
-1.79259e-05
-0.000233261
-3.26619e-05
-0.000241228
-4.81384e-05
-0.000244756
-6.00352e-05
-0.000245367
-6.80862e-05
-0.000240711
-7.26073e-05
-0.000231153
-0.000224225
-7.17107e-05
3.94623e-05
0.000238288
-3.83589e-05
0.000167154
-8.15824e-05
8.01083e-05
-0.000106877
-6.75716e-06
-9.15011e-05
-0.000129327
-6.04302e-05
-0.000205594
-4.88558e-05
-0.000234085
-4.42676e-05
-0.000237849
-5.79206e-05
-0.000227575
-8.73451e-05
-0.000215331
-0.000124105
-0.000208607
-0.000160792
-0.000204023
-0.00019331
-0.000198635
-0.000196843
-0.000220692
4.393e-05
0.000192151
8.64801e-05
0.000124604
0.000107223
5.93656e-05
0.000106739
-6.27312e-06
8.49441e-05
-0.000107533
5.34405e-05
-0.000174091
2.57499e-05
-0.000206395
-3.16803e-05
-0.000180419
-8.44499e-05
-0.000174806
-0.000138531
-0.00016125
-0.000194224
-0.000152915
-0.000251913
-0.000146335
-0.000309335
-0.000141213
-0.000138011
-0.000368167
0.000248073
0.000117561
0.000288156
8.45207e-05
0.00031184
3.56819e-05
0.000308459
-2.89228e-06
0.000247603
-4.66773e-05
0.000155716
-8.22034e-05
5.56012e-05
-0.00010628
1.05125e-06
-0.000125869
-9.20143e-05
-8.17402e-05
-0.000172261
-8.10027e-05
-0.000252987
-7.21889e-05
-0.000333898
-6.54242e-05
-0.000430055
-4.50562e-05
-6.99188e-05
-0.000498147
0.000340634
0.000425155
0.000460837
0.000457944
0.000411267
0.000329064
0.000222783
9.69146e-05
1.51744e-05
-6.58283e-05
-0.000138017
-0.000203441
-0.000248498
-0.000318416
3.39261e-05
4.87063e-07
3.37253e-05
2.00842e-07
3.39521e-05
-2.26811e-07
3.47124e-05
-7.60353e-07
3.61001e-05
-1.38767e-06
3.8188e-05
-2.08782e-06
4.08072e-05
-2.61913e-06
4.358e-05
-2.77287e-06
4.63159e-05
-2.73582e-06
4.90977e-05
-2.78177e-06
5.15808e-05
-2.48307e-06
5.26903e-05
-1.10953e-06
5.24958e-05
1.94507e-07
5.07747e-05
1.72111e-06
4.75766e-05
3.19812e-06
4.29731e-05
4.60347e-06
3.66932e-05
6.27986e-06
2.8275e-05
8.41829e-06
1.69022e-05
1.13727e-05
2.70651e-06
1.41956e-05
-1.44518e-05
1.71582e-05
-2.78976e-05
1.34458e-05
-3.88823e-05
1.09847e-05
-4.9081e-05
1.01986e-05
-5.60587e-05
6.97769e-06
-5.98572e-05
3.7985e-06
-6.11617e-05
1.30437e-06
-6.03394e-05
-8.22325e-07
-5.77305e-05
-2.60899e-06
-5.38528e-05
-3.87769e-06
-4.91372e-05
-4.71563e-06
-4.40618e-05
-5.07549e-06
-4.03073e-05
-3.75452e-06
-3.99392e-05
-3.68097e-07
-4.34454e-05
3.50616e-06
-5.06284e-05
7.18297e-06
-6.03385e-05
9.71012e-06
-7.05447e-05
1.02063e-05
-7.88438e-05
8.29909e-06
-8.22407e-05
3.39682e-06
-8.22122e-05
-2.85163e-08
-7.59677e-05
-6.24433e-06
-6.7198e-05
-8.76977e-06
-5.89191e-05
-8.27893e-06
-5.01954e-05
-8.72365e-06
-3.92036e-05
-1.09917e-05
-1.99874e-05
-1.92162e-05
8.34568e-06
-2.8333e-05
4.78045e-05
-3.94588e-05
9.94432e-05
-5.16386e-05
0.000155711
-5.62682e-05
0.000206562
-5.08509e-05
0.000250382
-4.38197e-05
0.000272354
-2.1972e-05
0.000266585
5.76929e-06
0.000239752
2.68332e-05
0.000193183
4.65691e-05
0.000128429
6.47532e-05
4.96286e-05
7.88008e-05
-4.2296e-05
9.19246e-05
-0.000110751
6.84553e-05
-0.000177701
6.69498e-05
-0.000230894
5.31933e-05
-0.000264357
3.34628e-05
-0.000275194
1.08369e-05
-0.000275522
3.27839e-07
-0.000267106
-8.4161e-06
-0.000252039
-1.50663e-05
-0.000231964
-2.00758e-05
-0.000209978
-2.1986e-05
-0.000187157
-2.28208e-05
-0.000162798
-2.43586e-05
-0.00013815
-2.46481e-05
-0.000114776
-2.33736e-05
-9.3036e-05
-2.17405e-05
-7.0308e-05
-2.2728e-05
-4.59671e-05
-2.43408e-05
-1.80453e-05
-2.79218e-05
1.7633e-05
-3.56783e-05
6.14307e-05
-4.37977e-05
0.000113107
-5.16763e-05
0.000179804
-6.66969e-05
0.000256153
-7.63494e-05
0.00033128
-7.5127e-05
0.000392102
-6.08213e-05
0.000430709
-3.86075e-05
0.000443672
-1.29625e-05
0.000428585
1.50864e-05
0.000387035
4.15497e-05
0.000324513
6.25225e-05
0.000249328
7.51847e-05
0.000169311
8.00171e-05
8.85801e-05
8.07311e-05
2.86505e-05
5.99296e-05
-3.09991e-05
5.96496e-05
-8.35949e-05
5.25957e-05
-0.000127653
4.40582e-05
-0.000162962
3.53092e-05
-0.000188746
2.57837e-05
-0.000204773
1.60275e-05
-0.000213026
8.25232e-06
-0.000214729
1.70345e-06
-0.000210117
-4.61206e-06
-0.000199811
-1.03066e-05
-0.000184946
-1.48649e-05
-0.000166782
-1.81634e-05
-0.000146578
-2.02041e-05
-0.00012563
-2.09477e-05
-0.000105029
-2.06017e-05
-8.56398e-05
-1.93889e-05
-6.81307e-05
-1.7509e-05
-5.35883e-05
-1.45424e-05
-4.09708e-05
-1.26175e-05
-2.94816e-05
-1.14893e-05
-1.81033e-05
-1.13783e-05
-1.09758e-05
-7.12741e-06
-3.91483e-06
-7.061e-06
2.9237e-06
-6.83853e-06
9.47954e-06
-6.55583e-06
1.67669e-05
-7.28737e-06
2.49907e-05
-8.22379e-06
3.3505e-05
-8.51434e-06
4.15997e-05
-8.09463e-06
4.93024e-05
-7.70272e-06
5.67706e-05
-7.46819e-06
6.39306e-05
-7.16007e-06
-6.97676e-06
6.11539e-05
-1.73843e-06
6.22215e-05
-8.66792e-07
6.19483e-05
4.64227e-08
6.01868e-05
1.00109e-06
5.68057e-05
1.99344e-06
5.16552e-05
3.06277e-06
4.4836e-05
4.20006e-06
3.67334e-05
5.32969e-06
2.76003e-05