/*--------------------------------*- C++ -*----------------------------------*\
| =========                 |                                                 |
| \\      /  F ield         | OpenFOAM: The Open Source CFD Toolbox           |
|  \\    /   O peration     | Version:  2206                                  |
|   \\  /    A nd           | Website:  www.openfoam.com                      |
|    \\/     M anipulation  |                                                 |
\*---------------------------------------------------------------------------*/
FoamFile
{
    version     2.0;
    format      ascii;
    arch        "LSB;label=32;scalar=64";
    class       surfaceScalarField;
    location    "18.8001";
    object      phi_0;
}
// * * * * * * * * * * * * * * * * * * * * * * * * * * * * * * * * * * * * * //

dimensions      [0 3 -1 0 0 0 0];

oriented        oriented;

internalField   nonuniform List<scalar> 
3538
(
5.82317e-06
-8.43319e-07
7.36214e-07
5.93639e-06
-8.93307e-07
7.80087e-07
6.05356e-06
-9.10362e-07
7.93194e-07
6.17212e-06
-8.94437e-07
7.75878e-07
6.28985e-06
-8.4705e-07
7.29324e-07
6.40534e-06
-7.7111e-07
6.55613e-07
6.51831e-06
-6.70288e-07
5.57324e-07
6.62882e-06
-5.47984e-07
4.37475e-07
6.73522e-06
-4.07745e-07
3.01342e-07
6.83265e-06
-2.54493e-07
1.5706e-07
6.91451e-06
-9.61921e-08
1.43367e-08
6.97474e-06
5.89664e-08
-1.19194e-07
7.00804e-06
2.04456e-07
-2.37757e-07
7.01034e-06
3.34845e-07
-3.3715e-07
6.97584e-06
4.45598e-07
-4.11093e-07
6.901e-06
5.31266e-07
-4.56429e-07
6.78846e-06
5.86705e-07
-4.74165e-07
6.64738e-06
6.12368e-07
-4.71287e-07
6.49173e-06
6.13268e-07
-4.57614e-07
6.33599e-06
5.97646e-07
-4.41913e-07
6.19071e-06
5.73704e-07
-4.2842e-07
6.06155e-06
5.46253e-07
-4.17095e-07
5.95093e-06
5.16139e-07
-4.05514e-07
5.85896e-06
4.81887e-07
-3.89921e-07
5.78485e-06
4.40255e-07
-3.66148e-07
5.72787e-06
3.87202e-07
-3.30215e-07
5.68714e-06
3.20385e-07
-2.79661e-07
5.66175e-06
2.3989e-07
-2.14501e-07
5.65086e-06
1.46509e-07
-1.35612e-07
5.65377e-06
4.26304e-08
-4.55405e-08
5.66998e-06
-6.75817e-08
5.13629e-08
5.69808e-06
-1.77751e-07
1.49657e-07
5.73653e-06
-2.81543e-07
2.43096e-07
5.78364e-06
-3.74238e-07
3.27128e-07
5.83756e-06
-4.52155e-07
3.98235e-07
5.89652e-06
-5.12857e-07
4.53889e-07
5.95916e-06
-5.55092e-07
4.92454e-07
6.0245e-06
-5.78375e-07
5.13041e-07
6.09141e-06
-5.82227e-07
5.15318e-07
6.1585e-06
-5.66474e-07
4.99384e-07
6.22433e-06
-5.3144e-07
4.65602e-07
6.28769e-06
-4.78411e-07
4.15055e-07
6.34766e-06
-4.09607e-07
3.4964e-07
6.4032e-06
-3.27563e-07
2.72023e-07
6.45212e-06
-2.35039e-07
1.86118e-07
6.49134e-06
-1.35556e-07
9.6338e-08
6.51785e-06
-3.3656e-08
7.14562e-09
6.52951e-06
6.59768e-08
-7.76434e-08
6.52481e-06
1.59408e-07
-1.54706e-07
6.50263e-06
2.43129e-07
-2.20943e-07
6.46244e-06
3.14099e-07
-2.7391e-07
6.40581e-06
3.6972e-07
-3.13098e-07
6.33641e-06
4.08679e-07
-3.39273e-07
6.25921e-06
4.31542e-07
-3.54342e-07
6.17973e-06
4.39943e-07
-3.60466e-07
6.10256e-06
4.36417e-07
-3.5925e-07
6.03063e-06
4.23104e-07
-3.51166e-07
5.96601e-06
4.00417e-07
-3.358e-07
5.91024e-06
3.68158e-07
-3.12386e-07
5.86427e-06
3.26179e-07
-2.80207e-07
5.82858e-06
2.7447e-07
-2.38785e-07
5.80337e-06
2.13551e-07
-1.88342e-07
5.78863e-06
1.44446e-07
-1.29701e-07
5.78426e-06
6.88126e-08
-6.44472e-08
5.78995e-06
-1.06524e-08
4.9641e-09
5.80474e-06
-8.97352e-08
7.49493e-08
5.82751e-06
-1.64415e-07
1.41644e-07
5.85688e-06
-2.31423e-07
2.02054e-07
5.89129e-06
-2.88146e-07
2.53731e-07
5.92925e-06
-3.3288e-07
2.9492e-07
5.96956e-06
-3.64859e-07
3.24548e-07
6.01143e-06
-3.83973e-07
3.4211e-07
6.05413e-06
-3.90204e-07
3.47499e-07
6.09676e-06
-3.8356e-07
3.40928e-07
6.13838e-06
-3.64442e-07
3.22824e-07
6.17805e-06
-3.33554e-07
2.93885e-07
6.21493e-06
-2.92162e-07
2.5528e-07
6.24823e-06
-2.41826e-07
2.0853e-07
6.27687e-06
-1.84255e-07
1.55612e-07
6.29946e-06
-1.21425e-07
9.88352e-08
6.3147e-06
-5.59132e-08
4.06789e-08
6.32185e-06
9.44358e-09
-1.65968e-08
6.32056e-06
7.23015e-08
-7.10112e-08
6.31077e-06
1.30577e-07
-1.20783e-07
6.29264e-06
1.82442e-07
-1.64318e-07
6.26657e-06
2.26365e-07
-2.00293e-07
6.23342e-06
2.61107e-07
-2.27953e-07
6.19476e-06
2.85846e-07
-2.47193e-07
6.15255e-06
3.00435e-07
-2.58219e-07
6.10864e-06
3.05421e-07
-2.61513e-07
6.06474e-06
3.01534e-07
-2.57635e-07
6.02255e-06
2.89126e-07
-2.46937e-07
5.98374e-06
2.68369e-07
-2.29553e-07
5.94961e-06
2.39762e-07
-2.05635e-07
5.92108e-06
2.03916e-07
-1.75385e-07
5.89878e-06
1.61457e-07
-1.39155e-07
5.88321e-06
1.13202e-07
-9.76318e-08
5.87476e-06
6.02513e-08
-5.18018e-08
5.87372e-06
4.2534e-09
-3.21432e-09
5.87986e-06
-5.19948e-08
4.58477e-08
5.89255e-06
-1.05642e-07
9.29542e-08
5.91079e-06
-1.54218e-07
1.3598e-07
5.93333e-06
-1.95635e-07
1.73092e-07
5.95888e-06
-2.28446e-07
2.029e-07
5.98632e-06
-2.51966e-07
2.24523e-07
6.01491e-06
-2.66169e-07
2.37577e-07
6.04412e-06
-2.71255e-07
2.42051e-07
6.0733e-06
-2.67338e-07
2.3815e-07
6.10173e-06
-2.54563e-07
2.2614e-07
6.12863e-06
-2.33404e-07
2.06507e-07
6.15336e-06
-2.04904e-07
1.80166e-07
6.17538e-06
-1.70269e-07
1.48251e-07
6.19403e-06
-1.30741e-07
1.12087e-07
6.20854e-06
-8.76882e-08
7.31831e-08
6.21821e-06
-4.28364e-08
3.31714e-08
6.22274e-06
1.89953e-09
-6.43667e-09
6.2221e-06
4.49177e-08
-4.42707e-08
6.21641e-06
8.4797e-08
-7.91098e-08
6.20599e-06
1.20309e-07
-1.09893e-07
6.19126e-06
1.50446e-07
-1.35717e-07
6.17267e-06
1.74459e-07
-1.55861e-07
6.15077e-06
1.91854e-07
-1.69958e-07
-1.78054e-07
6.18676e-06
-9.32977e-07
6.27904e-06
-9.85588e-07
6.37343e-06
-1.00475e-06
6.46808e-06
-9.89082e-07
6.56063e-06
-9.39609e-07
6.64998e-06
-8.60461e-07
6.73604e-06
-7.56348e-07
6.81934e-06
-6.3128e-07
6.90035e-06
-4.8875e-07
6.97779e-06
-3.31939e-07
7.0472e-06
-1.65597e-07
7.10408e-06
2.08547e-09
7.14484e-06
1.63697e-07
7.16634e-06
3.13338e-07
7.16484e-06
4.47102e-07
7.13526e-06
5.60843e-07
7.07387e-06
6.481e-07
6.98171e-06
7.04525e-07
6.86484e-06
7.30133e-07
6.73316e-06
7.29334e-07
6.59852e-06
7.08342e-07
6.47124e-06
6.73534e-07
6.35783e-06
6.29551e-07
6.26158e-06
5.7813e-07
6.18392e-06
5.17915e-07
6.12492e-06
4.46205e-07
6.08347e-06
3.61836e-07
6.05822e-06
2.65134e-07
6.04777e-06
1.5696e-07
6.05092e-06
3.94786e-08
6.06635e-06
-8.30086e-08
6.09219e-06
-2.03585e-07
6.12686e-06
-3.16217e-07
6.16854e-06
-4.15921e-07
6.21521e-06
-4.98826e-07
6.26489e-06
-5.62532e-07
6.3162e-06
-6.06405e-07
6.36881e-06
-6.30985e-07
6.42253e-06
-6.35946e-07
6.47635e-06
-6.20289e-07
6.5287e-06
-5.83797e-07
6.57814e-06
-5.2785e-07
6.62369e-06
-4.55154e-07
6.66488e-06
-3.68759e-07
6.7014e-06
-2.71551e-07
6.73213e-06
-1.66295e-07
6.75509e-06
-5.6616e-08
6.76845e-06
5.26202e-08
6.77074e-06
1.57115e-07
6.76091e-06
2.52967e-07
6.73826e-06
3.36741e-07
6.70239e-06
4.05594e-07
6.65383e-06
4.5724e-07
6.59499e-06
4.90382e-07
6.52948e-06
5.05452e-07
6.46159e-06
5.04309e-07
6.39518e-06
4.89514e-07
6.33447e-06
4.61126e-07
6.2821e-06
4.20529e-07
6.23935e-06
3.6893e-07
6.20669e-06
3.07123e-07
6.18419e-06
2.36057e-07
6.17162e-06
1.57011e-07
6.16868e-06
7.17588e-08
6.17467e-06
-1.66432e-08
6.18841e-06
-1.03478e-07
6.20872e-06
-1.84728e-07
6.23417e-06
-2.56876e-07
6.2632e-06
-3.17167e-07
6.29426e-06
-3.63944e-07
6.32622e-06
-3.96817e-07
6.35861e-06
-4.16363e-07
6.39146e-06
-4.23054e-07
6.42444e-06
-4.16545e-07
6.4568e-06
-3.96798e-07
6.48761e-06
-3.64359e-07
6.51599e-06
-3.20544e-07
6.54118e-06
-2.67014e-07
6.56247e-06
-2.05545e-07
6.57911e-06
-1.38071e-07
6.59013e-06
-6.69287e-08
6.59494e-06
4.63013e-09
6.59336e-06
7.38827e-08
6.58539e-06
1.38546e-07
6.57128e-06
1.96547e-07
6.55151e-06
2.46135e-07
6.5267e-06
2.85925e-07
6.49756e-06
3.1498e-07
6.46508e-06
3.32917e-07
6.43048e-06
3.40026e-07
6.39496e-06
3.3705e-07
6.3601e-06
3.2399e-07
6.32771e-06
3.00751e-07
6.29919e-06
2.68282e-07
6.27554e-06
2.27568e-07
6.25748e-06
1.79521e-07
6.24552e-06
1.25163e-07
6.24003e-06
6.57344e-08
6.24117e-06
3.11674e-09
6.24849e-06
-5.93165e-08
6.2612e-06
-1.18347e-07
6.27816e-06
-1.71177e-07
6.29801e-06
-2.15487e-07
6.31933e-06
-2.49769e-07
6.34098e-06
-2.7361e-07
6.36244e-06
-2.87634e-07
6.3839e-06
-2.92712e-07
6.40546e-06
-2.88898e-07
6.42643e-06
-2.75531e-07
6.44617e-06
-2.53147e-07
6.46419e-06
-2.22925e-07
6.48003e-06
-1.86112e-07
6.49325e-06
-1.43954e-07
6.50333e-06
-9.77718e-08
6.50963e-06
-4.91375e-08
6.51179e-06
-2.61629e-10
6.5098e-06
4.6908e-08
6.50384e-06
9.07546e-08
6.4943e-06
1.29852e-07
6.48173e-06
1.63019e-07
6.46675e-06
1.89435e-07
2.08706e-07
6.52661e-06
-1.00146e-06
6.59316e-06
-1.05214e-06
6.6591e-06
-1.07069e-06
6.72458e-06
-1.05457e-06
6.78666e-06
-1.00169e-06
6.84559e-06
-9.19394e-07
6.90235e-06
-8.13105e-07
6.95793e-06
-6.86859e-07
7.01298e-06
-5.43799e-07
7.06706e-06
-3.86018e-07
7.11792e-06
-2.16455e-07
7.16199e-06
-4.19898e-08
7.19654e-06
1.29149e-07
7.2183e-06
2.91574e-07
7.22635e-06
4.39056e-07
7.22126e-06
5.65937e-07
7.19958e-06
6.69774e-07
7.15539e-06
7.48717e-07
7.08751e-06
7.98012e-07
7.00028e-06
8.1657e-07
6.90079e-06
8.0783e-07
6.79766e-06
7.76665e-07
6.69991e-06
7.27301e-07
6.61355e-06
6.64491e-07
6.54208e-06
5.89385e-07
6.48704e-06
5.01239e-07
6.44809e-06
4.00788e-07
6.4241e-06
2.89127e-07
6.41378e-06
1.6728e-07
6.4158e-06
3.74621e-08
6.42819e-06
-9.54043e-08
6.44913e-06
-2.24522e-07
6.47711e-06
-3.44195e-07
6.51048e-06
-4.49299e-07
6.54733e-06
-5.35676e-07
6.58548e-06
-6.00682e-07
6.62332e-06
-6.44242e-07
6.66075e-06
-6.68416e-07
6.69907e-06
-6.74265e-07
6.73811e-06
-6.59324e-07
6.77579e-06
-6.21479e-07
6.81089e-06
-5.62952e-07
6.84268e-06
-4.86942e-07
6.87078e-06
-3.96856e-07
6.89503e-06
-2.95807e-07
6.91535e-06
-1.86614e-07
6.9312e-06
-7.2464e-08
6.94184e-06
4.1983e-08
6.94643e-06
1.52519e-07
6.94402e-06
2.5538e-07
6.93372e-06
3.47037e-07
6.9152e-06
4.24115e-07
6.88866e-06
4.83783e-07
6.85412e-06
5.24919e-07
6.81257e-06
5.47006e-07
6.76633e-06
5.50548e-07
6.7157e-06
5.40147e-07
6.66693e-06
5.09892e-07
6.62339e-06
4.64067e-07
6.58679e-06
4.05534e-07
6.55818e-06
3.35734e-07
6.53797e-06
2.56261e-07
6.52617e-06
1.68815e-07
6.52244e-06
7.54863e-08
6.52569e-06
-1.98929e-08
6.53466e-06
-1.12445e-07
6.5482e-06
-1.98269e-07
6.56521e-06
-2.73888e-07
6.58459e-06
-3.36545e-07
6.60515e-06
-3.84499e-07
6.62584e-06
-4.17516e-07
6.64624e-06
-4.36762e-07
6.66698e-06
-4.43793e-07
6.68895e-06
-4.38513e-07
6.71129e-06
-4.19142e-07
6.73304e-06
-3.86103e-07
6.75331e-06
-3.40818e-07
6.77132e-06
-2.85019e-07
6.78636e-06
-2.20586e-07
6.79784e-06
-1.49556e-07
6.80513e-06
-7.42212e-08
6.80775e-06
2.01476e-09
6.80565e-06
7.59818e-08
6.79894e-06
1.45256e-07
6.78786e-06
2.07627e-07
6.77286e-06
2.61139e-07
6.75473e-06
3.0405e-07
6.73444e-06
3.35277e-07
6.71265e-06
3.54698e-07
6.6897e-06
3.62976e-07
6.66503e-06
3.61727e-07
6.63987e-06
3.49144e-07
6.61654e-06
3.24079e-07
6.59624e-06
2.88582e-07
6.57994e-06
2.43868e-07
6.56832e-06
1.91148e-07
6.56178e-06
1.31701e-07
6.56046e-06
6.70519e-08
6.56395e-06
-3.75376e-10
6.57128e-06
-6.66466e-08
6.58157e-06
-1.28637e-07
6.59395e-06
-1.83554e-07
6.60755e-06
-2.29089e-07
6.62139e-06
-2.63606e-07
6.63449e-06
-2.86713e-07
6.64638e-06
-2.99515e-07
6.65757e-06
-3.03909e-07
6.67004e-06
-3.01364e-07
6.68275e-06
-2.88245e-07
6.69508e-06
-2.65477e-07
6.70665e-06
-2.34491e-07
6.71704e-06
-1.96506e-07
6.72584e-06
-1.52756e-07
6.7326e-06
-1.04529e-07
6.73676e-06
-5.3293e-08
6.73775e-06
-1.25408e-09
6.73546e-06
4.91969e-08
6.72998e-06
9.62341e-08
6.72163e-06
1.38204e-07
6.71098e-06
1.73668e-07
6.69881e-06
2.01603e-07
2.21626e-07
6.81911e-06
6.8567e-06
6.89033e-06
6.92203e-06
-1.08627e-06
6.94865e-06
-1.0283e-06
6.97289e-06
-9.43638e-07
6.99761e-06
-8.3782e-07
7.02494e-06
-7.14191e-07
7.05545e-06
-5.74312e-07
7.08882e-06
-4.19384e-07
7.12418e-06
-2.51813e-07
7.15751e-06
-7.53235e-08
7.18389e-06
1.02772e-07
7.20187e-06
2.73588e-07
7.21157e-06
4.29357e-07
7.21271e-06
5.64798e-07
7.20545e-06
6.77033e-07
7.18987e-06
7.643e-07
7.16335e-06
8.24527e-07
7.12321e-06
8.56711e-07
7.06972e-06
8.61323e-07
7.00473e-06
8.41659e-07
6.93696e-06
7.95064e-07
6.8729e-06
7.28557e-07
6.81792e-06
6.44358e-07
6.77504e-06
5.44121e-07
6.74457e-06
4.31259e-07
6.726e-06
3.07701e-07
6.71856e-06
1.74722e-07
6.72076e-06
3.52621e-08
6.73013e-06
-1.04781e-07
6.74496e-06
-2.39351e-07
6.76404e-06
-3.6327e-07
6.78643e-06
-4.71698e-07
6.81105e-06
-5.60294e-07
6.83607e-06
-6.25698e-07
6.85946e-06
-6.67632e-07
6.88055e-06
-6.89512e-07
6.90164e-06
-6.95349e-07
6.92511e-06
-6.82791e-07
6.94659e-06
-6.42961e-07
6.96558e-06
-5.81947e-07
6.98221e-06
-5.03571e-07
6.99649e-06
-4.11135e-07
7.00822e-06
-3.07539e-07
7.0171e-06
-1.95495e-07
7.02283e-06
-7.81879e-08
7.02569e-06
3.91237e-08
7.0262e-06
1.52003e-07
7.02465e-06
2.56935e-07
7.0209e-06
3.50785e-07
7.01478e-06
4.30235e-07
7.00667e-06
4.91897e-07
6.99729e-06
5.34291e-07
6.98653e-06
5.57773e-07
6.9724e-06
5.6467e-07
6.95111e-06
5.61441e-07
6.92535e-06
5.35655e-07
6.89836e-06
4.91058e-07
6.87325e-06
4.30637e-07
6.85187e-06
3.57119e-07
6.83514e-06
2.7299e-07
6.82337e-06
1.80588e-07
6.81632e-06
8.25359e-08
6.81307e-06
-1.66411e-08
6.81267e-06
-1.12048e-07
6.81456e-06
-2.00162e-07
6.81854e-06
-2.77866e-07
6.82456e-06
-3.42569e-07
6.83222e-06
-3.92154e-07
6.8407e-06
-4.25997e-07
6.8493e-06
-4.4536e-07
6.8583e-06
-4.52792e-07
6.86993e-06
-4.50143e-07
6.88331e-06
-4.32529e-07
6.8968e-06
-3.99594e-07
6.90952e-06
-3.53533e-07
6.92072e-06
-2.96216e-07
6.92985e-06
-2.29723e-07
6.93646e-06
-1.5616e-07
6.94011e-06
-7.78694e-08
6.94058e-06
1.53915e-09
6.93821e-06
7.83524e-08
6.93341e-06
1.50054e-07
6.92646e-06
2.1458e-07
6.91774e-06
2.69863e-07
6.9079e-06
3.13882e-07
6.89773e-06
3.45448e-07
6.88793e-06
3.64497e-07
6.87856e-06
3.7235e-07
6.8677e-06
3.72588e-07
6.85572e-06
3.61129e-07
6.84464e-06
3.3515e-07
6.83516e-06
2.98062e-07
6.82786e-06
2.51173e-07
6.82299e-06
1.96012e-07
6.82054e-06
1.34152e-07
6.82015e-06
6.74436e-08
6.82104e-06
-1.26112e-09
6.82242e-06
-6.80247e-08
6.82403e-06
-1.30252e-07
6.82593e-06
-1.85458e-07
6.82824e-06
-2.31398e-07
6.83095e-06
-2.66314e-07
6.83384e-06
-2.896e-07
6.83651e-06
-3.0219e-07
6.83898e-06
-3.06371e-07
6.84314e-06
-3.05528e-07
6.84877e-06
-2.93872e-07
6.85492e-06
-2.71629e-07
6.86125e-06
-2.40821e-07
6.86734e-06
-2.02595e-07
6.87281e-06
-1.5823e-07
6.87731e-06
-1.09025e-07
6.88041e-06
-5.63942e-08
6.88155e-06
-2.39224e-09
6.88052e-06
5.02212e-08
6.87727e-06
9.9488e-08
6.87193e-06
1.43545e-07
6.86492e-06
1.80675e-07
6.85696e-06
2.09564e-07
2.2971e-07
7.03916e-06
7.02966e-06
7.0229e-06
7.01975e-06
7.0207e-06
7.02661e-06
7.03874e-06
7.05676e-06
7.07868e-06
7.1012e-06
7.12161e-06
7.13702e-06
7.14537e-06
7.14609e-06
7.14102e-06
7.13294e-06
7.12323e-06
7.1081e-06
7.08242e-06
7.05225e-06
7.02257e-06
6.99609e-06
6.97349e-06
6.95676e-06
6.94692e-06
6.94379e-06
6.94614e-06
6.95191e-06
6.95966e-06
6.96839e-06
6.97783e-06
6.9883e-06
6.99907e-06
7.00828e-06
7.01431e-06
7.01827e-06
7.02248e-06
7.02545e-06
7.02819e-06
7.03114e-06
7.03413e-06
7.03624e-06
7.03684e-06
7.03577e-06
7.03311e-06
7.02914e-06
7.02443e-06
7.01977e-06
7.01593e-06
7.01335e-06
7.01247e-06
7.01297e-06
7.01302e-06
7.01292e-06
7.01183e-06
7.00971e-06
7.00659e-06
7.00271e-06
6.99817e-06
6.99285e-06
6.98653e-06
6.97924e-06
6.97148e-06
6.96388e-06
6.95728e-06
6.95255e-06
6.95022e-06
6.95015e-06
6.9514e-06
6.95304e-06
6.95683e-06
6.9625e-06
6.96811e-06
6.97336e-06
6.97792e-06
6.98149e-06
6.98373e-06
6.98444e-06
6.98332e-06
6.98008e-06
6.97471e-06
6.96801e-06
6.96117e-06
6.95521e-06
6.95093e-06
6.94865e-06
6.94793e-06
6.94744e-06
6.94746e-06
6.94782e-06
6.94835e-06
6.94884e-06
6.94902e-06
6.94856e-06
6.94708e-06
6.94418e-06
6.93999e-06
6.93494e-06
6.9296e-06
6.92452e-06
6.92023e-06
6.91718e-06
6.91544e-06
6.91458e-06
6.91442e-06
6.91586e-06
6.91801e-06
6.92066e-06
6.92347e-06
6.92612e-06
6.92827e-06
6.92959e-06
6.92987e-06
6.92912e-06
6.92741e-06
6.92488e-06
6.92178e-06
6.91848e-06
-4.29813e-08
-3.22846e-08
-1.06843e-08
-3.22969e-08
2.0061e-08
-3.07453e-08
4.80189e-08
-2.79579e-08
7.23423e-08
-2.43234e-08
9.25494e-08
-2.02071e-08
1.08569e-07
-1.60193e-08
1.20557e-07
-1.19883e-08
1.29011e-07
-8.45384e-09
1.34474e-07
-5.4629e-09
1.37455e-07
-2.98137e-09
1.38511e-07
-1.0562e-09
1.38236e-07
2.75606e-10
1.36803e-07
1.43232e-09
1.34352e-07
2.45159e-09
1.30854e-07
3.49788e-09
1.26162e-07
4.69198e-09
1.20152e-07
6.00988e-09
1.12761e-07
7.39156e-09
1.03961e-07
8.7995e-09
9.39601e-08
1.00009e-08
8.29811e-08
1.0979e-08
7.15221e-08
1.1459e-08
6.01418e-08
1.13803e-08
4.94064e-08
1.07354e-08
4.01255e-08
9.28092e-09
3.30676e-08
7.05792e-09
2.88892e-08
4.17841e-09
2.80173e-08
8.71822e-10
3.02938e-08
-2.27652e-09
3.63778e-08
-6.08395e-09
4.62476e-08
-9.86986e-09
5.96629e-08
-1.34152e-08
7.62009e-08
-1.65381e-08
9.52932e-08
-1.90923e-08
1.16262e-07
-2.09686e-08
1.38359e-07
-2.20972e-08
1.60813e-07
-2.2454e-08
1.82859e-07
-2.20462e-08
2.03807e-07
-2.09474e-08
2.23064e-07
-1.92575e-08
2.40163e-07
-1.70987e-08
2.54742e-07
-1.4579e-08
2.6658e-07
-1.1838e-08
2.75586e-07
-9.00631e-09
2.81765e-07
-6.17855e-09
2.85237e-07
-3.47209e-09
2.86072e-07
-8.35405e-10
2.84785e-07
1.28683e-09
2.81355e-07
3.4303e-09
2.76034e-07
5.32071e-09
2.69063e-07
6.97089e-09
2.60693e-07
8.37081e-09
2.51196e-07
9.49653e-09
2.4087e-07
1.03256e-08
2.30042e-07
1.08285e-08
2.19073e-07
1.09688e-08
2.08374e-07
1.06991e-08
1.98397e-07
9.97713e-09
1.89608e-07
8.78863e-09
1.8244e-07
7.16854e-09
1.77346e-07
5.09419e-09
1.74755e-07
2.59058e-09
1.74634e-07
1.20836e-10
1.77151e-07
-2.5171e-09
1.8246e-07
-5.30839e-09
1.90443e-07
-7.98292e-09
2.00848e-07
-1.04054e-08
2.13311e-07
-1.24627e-08
2.27375e-07
-1.40639e-08
2.42525e-07
-1.51503e-08
2.58223e-07
-1.56984e-08
2.73932e-07
-1.57091e-08
2.89138e-07
-1.52058e-08
3.03366e-07
-1.42274e-08
3.1621e-07
-1.28441e-08
3.27354e-07
-1.11441e-08
3.36567e-07
-9.21318e-09
3.43695e-07
-7.12776e-09
3.48683e-07
-4.98804e-09
3.51504e-07
-2.8209e-09
3.52166e-07
-6.62192e-10
3.51075e-07
1.09092e-09
3.48184e-07
2.89073e-09
3.43696e-07
4.48836e-09
3.37825e-07
5.87063e-09
3.30806e-07
7.0189e-09
3.22892e-07
7.91425e-09
3.14356e-07
8.53558e-09
3.05492e-07
8.86416e-09
2.96601e-07
8.89106e-09
2.88008e-07
8.59356e-09
2.80043e-07
7.96494e-09
2.73041e-07
7.00138e-09
2.67329e-07
5.71269e-09
2.632e-07
4.12838e-09
2.60916e-07
2.2842e-09
2.60541e-07
3.75191e-10
2.62028e-07
-1.48756e-09
2.65554e-07
-3.526e-09
2.71026e-07
-5.47188e-09
2.78262e-07
-7.23516e-09
2.87009e-07
-8.74738e-09
2.96964e-07
-9.95485e-09
3.07777e-07
-1.08133e-08
3.19073e-07
-1.12958e-08
3.30468e-07
-1.13948e-08
3.41587e-07
-1.11194e-08
3.52087e-07
-1.05004e-08
3.61671e-07
-9.58361e-09
3.70092e-07
-8.42135e-09
3.77153e-07
-7.06097e-09
3.82708e-07
-5.55493e-09
3.86675e-07
-3.96709e-09
3.89023e-07
-2.34726e-09
3.89748e-07
-7.25637e-10
3.89102e-07
6.46661e-10
3.8706e-07
2.0413e-09
3.83779e-07
3.28159e-09
3.79433e-07
4.34552e-09
3.74217e-07
5.21573e-09
3.68343e-07
5.87466e-09
6.30792e-09
3.75585e-07
-6.92649e-08
4.12275e-07
-6.89873e-08
4.47144e-07
-6.56143e-08
4.78988e-07
-5.98013e-08
5.06963e-07
-5.22984e-08
5.30618e-07
-4.38626e-08
5.49888e-07
-3.52892e-08
5.65044e-07
-2.71439e-08
5.76495e-07
-1.99057e-08
5.84869e-07
-1.38362e-08
5.90852e-07
-8.96445e-09
5.95007e-07
-5.21187e-09
5.97696e-07
-2.41282e-09
5.99419e-07
-2.91038e-10
6.00296e-07
1.57497e-09
6.00258e-07
3.53534e-09
5.992e-07
5.75065e-09
5.96972e-07
8.23764e-09
5.93498e-07
1.08655e-08
5.8885e-07
1.34474e-08
5.8312e-07
1.57311e-08
5.76654e-07
1.74446e-08
5.69805e-07
1.83087e-08
5.63154e-07
1.80309e-08
5.57383e-07
1.65065e-08
5.5311e-07
1.35534e-08
5.50943e-07
9.22521e-09
5.51532e-07
3.58949e-09
5.54824e-07
-2.42054e-09
5.61999e-07
-9.45156e-09
5.72837e-07
-1.69219e-08
5.87318e-07
-2.43502e-08
6.05206e-07
-3.13032e-08
6.2607e-07
-3.74026e-08
6.49316e-07
-4.23381e-08
6.74232e-07
-4.58842e-08
7.00036e-07
-4.79019e-08
7.25926e-07
-4.83439e-08
7.51134e-07
-4.72542e-08
7.74962e-07
-4.47748e-08
7.9682e-07
-4.11155e-08
8.16239e-07
-3.65178e-08
8.32922e-07
-3.12621e-08
8.46692e-07
-2.5608e-08
8.57497e-07
-1.98113e-08
8.65362e-07
-1.40441e-08
8.70435e-07
-8.5451e-09
8.73057e-07
-3.45674e-09
8.73271e-07
1.07262e-09
8.71447e-07
5.25421e-09
8.67838e-07
8.92949e-09
8.62714e-07
1.20955e-08
8.56351e-07
1.47332e-08
8.49025e-07
1.68223e-08
8.41027e-07
1.83239e-08
8.3269e-07
1.91654e-08
8.24379e-07
1.92796e-08
8.16501e-07
1.85777e-08
8.09474e-07
1.70038e-08
8.03676e-07
1.45863e-08
7.99551e-07
1.12942e-08
7.97465e-07
7.18044e-09
7.97773e-07
2.28243e-09
8.0067e-07
-2.7763e-09
8.06431e-07
-8.27786e-09
8.14942e-07
-1.38201e-08
8.26067e-07
-1.91076e-08
8.39533e-07
-2.38711e-08
8.54949e-07
-2.78787e-08
8.71835e-07
-3.09498e-08
8.8965e-07
-3.29655e-08
9.07826e-07
-3.38746e-08
9.25797e-07
-3.36798e-08
9.43025e-07
-3.24338e-08
9.5904e-07
-3.02428e-08
9.73454e-07
-2.72584e-08
9.85972e-07
-2.36616e-08
9.96382e-07
-1.96232e-08
1.00457e-06
-1.53193e-08
1.01049e-06
-1.09029e-08
1.01415e-06
-6.47779e-09
1.0157e-06
-2.21497e-09
1.01527e-06
1.51448e-09
1.01308e-06
5.0842e-09
1.00935e-06
8.223e-09
1.00431e-06
1.09049e-08
9.9824e-07
1.30909e-08
9.91412e-07
1.47418e-08
9.84116e-07
1.58323e-08
9.76637e-07
1.63426e-08
9.69295e-07
1.62332e-08
9.62407e-07
1.54819e-08
9.56294e-07
1.40773e-08
9.51267e-07
1.20294e-08
9.47627e-07
9.35232e-09
9.45632e-07
6.1229e-09
9.45437e-07
2.47989e-09
9.47187e-07
-1.37506e-09
9.51121e-07
-5.42181e-09
9.57078e-07
-9.48303e-09
9.64954e-07
-1.33473e-08
9.74555e-07
-1.68364e-08
9.8561e-07
-1.98029e-08
9.97782e-07
-2.2126e-08
1.01068e-06
-2.37165e-08
1.02392e-06
-2.4529e-08
1.03708e-06
-2.45566e-08
1.04979e-06
-2.38288e-08
1.0617e-06
-2.24089e-08
1.0725e-06
-2.03876e-08
1.08195e-06
-1.78706e-08
1.08986e-06
-1.49719e-08
1.09611e-06
-1.18033e-08
1.10064e-06
-8.49768e-09
1.10346e-06
-5.16507e-09
1.10467e-06
-1.93211e-09
1.10425e-06
1.05973e-09
1.10243e-06
3.85842e-09
1.09939e-06
6.32822e-09
1.09531e-06
8.42705e-09
1.09041e-06
1.01138e-08
1.08492e-06
1.13627e-08
1.2152e-08
1.18995e-06
-1.05118e-07
1.22578e-06
-1.04821e-07
1.26e-06
-9.9837e-08
1.29131e-06
-9.11095e-08
1.31879e-06
-7.97733e-08
1.34196e-06
-6.70317e-08
1.36065e-06
-5.39859e-08
1.37513e-06
-4.162e-08
1.38591e-06
-3.06841e-08
1.39362e-06
-2.15518e-08
1.39896e-06
-1.42997e-08
1.40255e-06
-8.80587e-09
1.40499e-06
-4.84983e-09
1.40668e-06
-1.98318e-09
1.40789e-06
3.62072e-10
1.40848e-06
2.94617e-09
1.40819e-06
6.04129e-09
1.40682e-06
9.6071e-09
1.40422e-06
1.34713e-08
1.4003e-06
1.73643e-08
1.39511e-06
2.09246e-08
1.38883e-06
2.37173e-08
1.38187e-06
2.527e-08
1.37475e-06
2.51492e-08
1.36815e-06
2.3113e-08
1.36267e-06
1.90353e-08
1.35907e-06
1.28201e-08
1.35801e-06
4.65255e-09
1.35995e-06
-4.36284e-09
1.36545e-06
-1.49516e-08
1.37465e-06
-2.61259e-08
1.38756e-06
-3.72581e-08
1.40398e-06
-4.77162e-08
1.4235e-06
-5.69226e-08
1.44554e-06
-6.43834e-08
1.46938e-06
-6.97278e-08
1.49422e-06
-7.27418e-08
1.51924e-06
-7.33587e-08
1.54364e-06
-7.16505e-08
1.56669e-06
-6.78245e-08
1.58778e-06
-6.22063e-08
1.60645e-06
-5.51952e-08
1.62239e-06
-4.72022e-08
1.63543e-06
-3.86406e-08
1.6455e-06
-2.98819e-08
1.65269e-06
-2.12362e-08
1.65721e-06
-1.3065e-08
1.65925e-06
-5.49524e-09
1.65902e-06
1.29568e-09
1.65686e-06
7.42136e-09
1.65299e-06
1.27948e-08
1.64766e-06
1.74237e-08
1.64109e-06
2.13048e-08
1.6335e-06
2.44094e-08
1.62516e-06
2.66709e-08
1.61634e-06
2.79818e-08
1.60739e-06
2.82273e-08
1.59868e-06
2.72866e-08
1.59064e-06
2.50504e-08
1.58372e-06
2.15027e-08
1.57837e-06
1.66417e-08
1.57503e-06
1.05213e-08
1.57407e-06
3.24695e-09
1.57581e-06
-4.51682e-09
1.58044e-06
-1.29136e-08
1.58796e-06
-2.13399e-08
1.59823e-06
-2.9377e-08
1.61099e-06
-3.66221e-08
1.62583e-06
-4.27195e-08
1.64226e-06
-4.73885e-08
1.65974e-06
-5.04403e-08
1.67765e-06
-5.17857e-08
1.6954e-06
-5.14295e-08
1.71243e-06
-4.9466e-08
1.72826e-06
-4.60724e-08
1.74249e-06
-4.14855e-08
1.75479e-06
-3.59655e-08
1.76496e-06
-2.97878e-08
1.77286e-06
-2.3225e-08
1.77848e-06
-1.65213e-08
1.78186e-06
-9.85211e-09
1.78313e-06
-3.49306e-09
1.7824e-06
2.24693e-09
1.77993e-06
7.55859e-09
1.77593e-06
1.2217e-08
1.77066e-06
1.61809e-08
1.76434e-06
1.94053e-08
1.75724e-06
2.18481e-08
1.7496e-06
2.34661e-08
1.74173e-06
2.42133e-08
1.73392e-06
2.40436e-08
1.72649e-06
2.29127e-08
1.71976e-06
2.08048e-08
1.71406e-06
1.77323e-08
1.70968e-06
1.37336e-08
1.70695e-06
8.85571e-09
1.70616e-06
3.26221e-09
1.70735e-06
-2.56372e-09
1.71074e-06
-8.81092e-09
1.71627e-06
-1.50142e-08
1.72383e-06
-2.09078e-08
1.73322e-06
-2.62266e-08
1.74416e-06
-3.07375e-08
1.75628e-06
-3.42504e-08
1.7692e-06
-3.66319e-08
1.78248e-06
-3.78134e-08
1.79571e-06
-3.77867e-08
1.80848e-06
-3.65996e-08
1.82043e-06
-3.43528e-08
1.83123e-06
-3.11887e-08
1.84063e-06
-2.72769e-08
1.84846e-06
-2.27996e-08
1.8546e-06
-1.79395e-08
1.85897e-06
-1.28687e-08
1.86158e-06
-7.77154e-09
1.86249e-06
-2.84798e-09
1.8618e-06
1.75612e-09
1.85967e-06
5.98385e-09
1.8563e-06
9.7024e-09
1.85188e-06
1.2848e-08
1.84662e-06
1.53658e-08
1.84077e-06
1.72147e-08
1.83675e-08
2.28878e-06
-1.35429e-07
2.32032e-06
-1.36361e-07
2.35139e-06
-1.30903e-07
2.3803e-06
-1.20024e-07
2.40572e-06
-1.05189e-07
2.42668e-06
-8.79961e-08
2.44273e-06
-7.00342e-08
2.45385e-06
-5.27353e-08
2.46043e-06
-3.72727e-08
2.46314e-06
-2.42581e-08
2.46293e-06
-1.40849e-08
2.46071e-06
-6.58841e-09
2.45751e-06
-1.65284e-09
2.45398e-06
1.54507e-09
2.45043e-06
3.90991e-09
2.44695e-06
6.4309e-09
2.44335e-06
9.64083e-09
2.43931e-06
1.36431e-08
2.43447e-06
1.83181e-08
2.42846e-06
2.33698e-08
2.42105e-06
2.83384e-08
2.41216e-06
3.26027e-08
2.40203e-06
3.53992e-08
2.39121e-06
3.59727e-08
2.38039e-06
3.39298e-08
2.37037e-06
2.90579e-08
2.36187e-06
2.1321e-08
2.35559e-06
1.0932e-08
2.35279e-06
-1.56691e-09
2.35372e-06
-1.58781e-08
2.35874e-06
-3.11413e-08
2.3679e-06
-4.64248e-08
2.38104e-06
-6.08531e-08
2.39771e-06
-7.35915e-08
2.41724e-06
-8.39106e-08
2.43878e-06
-9.12709e-08
2.46141e-06
-9.53732e-08
2.48418e-06
-9.61297e-08
2.5062e-06
-9.36676e-08
2.52668e-06
-8.83038e-08
2.54498e-06
-8.05109e-08
2.56064e-06
-7.08527e-08
2.57336e-06
-5.99243e-08
2.58302e-06
-4.83008e-08
2.58963e-06
-3.64932e-08
2.59333e-06
-2.4934e-08
2.59432e-06
-1.405e-08
2.59292e-06
-4.0998e-09
2.58939e-06
4.82572e-09
2.58407e-06
1.27402e-08
2.57719e-06
1.96797e-08
2.56892e-06
2.56947e-08
2.55942e-06
3.08015e-08
2.54886e-06
3.49655e-08
2.53744e-06
3.80912e-08
2.5254e-06
4.00262e-08
2.51304e-06
4.05823e-08
2.50077e-06
3.95607e-08
2.48902e-06
3.67959e-08
2.47833e-06
3.21921e-08
2.46924e-06
2.57357e-08
2.46226e-06
1.75048e-08
2.45777e-06
7.73276e-09
2.45644e-06
-3.18415e-09
2.45833e-06
-1.4803e-08
2.46347e-06
-2.64836e-08
2.47172e-06
-3.76221e-08
2.48276e-06
-4.76665e-08
2.49615e-06
-5.61107e-08
2.51132e-06
-6.25549e-08
2.52762e-06
-6.67429e-08
2.54439e-06
-6.85566e-08
2.56097e-06
-6.80112e-08
2.57676e-06
-6.52554e-08
2.59124e-06
-6.0546e-08
2.60396e-06
-5.42104e-08
2.61462e-06
-4.66203e-08
2.62299e-06
-3.81615e-08
2.62897e-06
-2.9201e-08
2.63251e-06
-2.0066e-08
2.63373e-06
-1.10678e-08
2.63277e-06
-2.53183e-09
2.6297e-06
5.30815e-09
2.62489e-06
1.23761e-08
2.61853e-06
1.8575e-08
2.61086e-06
2.38453e-08
2.60213e-06
2.81402e-08
2.59257e-06
3.14109e-08
2.58243e-06
3.36003e-08
2.572e-06
3.46443e-08
2.56158e-06
3.44645e-08
2.55151e-06
3.29869e-08
2.54214e-06
3.01706e-08
2.53385e-06
2.60188e-08
2.527e-06
2.05837e-08
2.52189e-06
1.39684e-08
2.51878e-06
6.37465e-09
2.51811e-06
-1.89043e-09
2.51985e-06
-1.05566e-08
2.52401e-06
-1.91703e-08
2.53044e-06
-2.73444e-08
2.53894e-06
-3.47189e-08
2.54916e-06
-4.09613e-08
2.56071e-06
-4.58018e-08
2.57314e-06
-4.90575e-08
2.58596e-06
-5.0637e-08
2.5987e-06
-5.05291e-08
2.61092e-06
-4.88126e-08
2.6222e-06
-4.56394e-08
2.63222e-06
-4.12106e-08
2.64071e-06
-3.5766e-08
2.64748e-06
-2.95627e-08
2.65239e-06
-2.2851e-08
2.6554e-06
-1.58783e-08
2.65652e-06
-8.89042e-09
2.65581e-06
-2.14391e-09
2.65341e-06
4.15541e-09
2.64952e-06
9.87439e-09
2.64433e-06
1.48923e-08
2.63806e-06
1.91199e-08
2.63094e-06
2.24876e-08
2.62321e-06
2.49442e-08
2.64551e-08
3.4025e-06
-1.67037e-07
3.43501e-06
-1.68876e-07
3.46704e-06
-1.62936e-07
3.49724e-06
-1.50223e-07
3.52423e-06
-1.32175e-07
3.54669e-06
-1.10457e-07
3.56375e-06
-8.70952e-08
3.57492e-06
-6.39014e-08
3.57996e-06
-4.23198e-08
3.57915e-06
-2.3448e-08
3.57339e-06
-8.32284e-09
3.56328e-06
3.5235e-09
3.55034e-06
1.1283e-08
3.53573e-06
1.61539e-08
3.52038e-06
1.92678e-08
3.50496e-06
2.18486e-08
3.48977e-06
2.48283e-08
3.47465e-06
2.87646e-08
3.45914e-06
3.38288e-08
3.44271e-06
3.98019e-08
3.42492e-06
4.61221e-08
3.40561e-06
5.19155e-08
3.38494e-06
5.60717e-08
3.36339e-06
5.75163e-08
3.34179e-06
5.55319e-08
3.32121e-06
4.96365e-08
3.30286e-06
3.96757e-08
3.28797e-06
2.58182e-08
3.27784e-06
8.56751e-09
3.27353e-06
-1.15737e-08
3.27569e-06
-3.33012e-08
3.28446e-06
-5.51953e-08
3.2995e-06
-7.58841e-08
3.32e-06
-9.40958e-08
3.34478e-06
-1.08694e-07
3.37237e-06
-1.18858e-07
3.40117e-06
-1.24174e-07
3.42967e-06
-1.24629e-07
3.45655e-06
-1.20547e-07
3.4807e-06
-1.12458e-07
3.50128e-06
-1.01083e-07
3.5177e-06
-8.72743e-08
3.52967e-06
-7.18996e-08
3.53715e-06
-5.57746e-08
3.54022e-06
-3.95721e-08
3.53912e-06
-2.38293e-08
3.53434e-06
-9.27366e-09
3.52649e-06
3.75068e-09
3.51607e-06
1.52461e-08
3.50353e-06
2.52847e-08
3.48921e-06
3.40012e-08
3.47336e-06
4.15367e-08
3.45619e-06
4.7981e-08
3.43782e-06
5.33286e-08
3.41846e-06
5.74574e-08
3.39834e-06
6.01402e-08
3.37784e-06
6.10836e-08
3.35745e-06
5.99507e-08
3.33781e-06
5.64365e-08
3.31965e-06
5.03555e-08
3.30373e-06
4.16565e-08
3.29081e-06
3.04198e-08
3.28156e-06
1.69859e-08
3.27677e-06
1.59924e-09
3.27682e-06
-1.48538e-08
3.28179e-06
-3.14533e-08
3.29138e-06
-4.72078e-08
3.30504e-06
-6.13217e-08
3.32198e-06
-7.30506e-08
3.34123e-06
-8.18125e-08
3.36175e-06
-8.72565e-08
3.38248e-06
-8.9288e-08
3.4025e-06
-8.80313e-08
3.42101e-06
-8.37701e-08
3.43737e-06
-7.69046e-08
3.45108e-06
-6.79238e-08
3.46183e-06
-5.73623e-08
3.46941e-06
-4.57458e-08
3.47377e-06
-3.35642e-08
3.47493e-06
-2.12204e-08
3.47303e-06
-9.16842e-09
3.46837e-06
2.12818e-09
3.46122e-06
1.24541e-08
3.45191e-06
2.16871e-08
3.44074e-06
2.97426e-08
3.42802e-06
3.65685e-08
3.41404e-06
4.21262e-08
3.39908e-06
4.63683e-08
3.38345e-06
4.923e-08
3.36748e-06
5.06178e-08
3.35154e-06
5.03991e-08
3.33608e-06
4.84508e-08
3.32154e-06
4.47023e-08
3.30843e-06
3.91384e-08
3.2972e-06
3.18069e-08
3.28834e-06
2.28349e-08
3.28224e-06
1.24708e-08
3.27932e-06
1.03264e-09
3.27976e-06
-1.10024e-08