/*--------------------------------*- C++ -*----------------------------------*\
| =========                 |                                                 |
| \\      /  F ield         | OpenFOAM: The Open Source CFD Toolbox           |
|  \\    /   O peration     | Version:  2206                                  |
|   \\  /    A nd           | Website:  www.openfoam.com                      |
|    \\/     M anipulation  |                                                 |
\*---------------------------------------------------------------------------*/
FoamFile
{
    version     2.0;
    format      ascii;
    arch        "LSB;label=32;scalar=64";
    class       volVectorField;
    location    "19.4001";
    object      U;
}
// * * * * * * * * * * * * * * * * * * * * * * * * * * * * * * * * * * * * * //

dimensions      [0 1 -1 0 0 0 0];

internalField   nonuniform List<vector> 
4830
(
(0.0458143 -0.0808854 0)
(0.127682 -0.24349 0)
(0.237759 -0.337808 0)
(0.35302 -0.400641 0)
(0.473904 -0.438546 0)
(0.606463 -0.447879 0)
(0.748954 -0.422984 0)
(0.893344 -0.36203 0)
(1.03062 -0.26898 0)
(1.15714 -0.146437 0)
(1.27878 0.0115893 0)
(1.40444 0.209125 0)
(1.51887 0.417617 0)
(1.60371 0.600777 0)
(1.65644 0.745255 0)
(1.68009 0.848865 0)
(1.68083 0.915442 0)
(1.66483 0.952635 0)
(1.63303 0.966085 0)
(1.59151 0.956951 0)
(1.5444 0.932898 0)
(1.49481 0.899947 0)
(1.44536 0.861982 0)
(1.39756 0.821993 0)
(1.35144 0.781752 0)
(1.30636 0.741749 0)
(1.26237 0.701236 0)
(1.21996 0.658935 0)
(1.17728 0.616133 0)
(1.12805 0.578998 0)
(1.06567 0.553522 0)
(0.993757 0.534621 0)
(0.929495 0.503412 0)
(0.888171 0.443402 0)
(0.877037 0.351228 0)
(0.892883 0.23146 0)
(0.933268 0.0955548 0)
(0.986407 -0.0419873 0)
(1.04529 -0.169913 0)
(1.10592 -0.283484 0)
(1.16514 -0.38024 0)
(1.22064 -0.459579 0)
(1.27085 -0.52228 0)
(1.31488 -0.570092 0)
(1.35235 -0.605422 0)
(1.38321 -0.631019 0)
(1.40766 -0.649773 0)
(1.42598 -0.664682 0)
(1.43869 -0.6787 0)
(1.44662 -0.693232 0)
(1.45167 -0.706979 0)
(1.45536 -0.717117 0)
(1.45929 -0.721825 0)
(1.46572 -0.717021 0)
(1.47744 -0.688653 0)
(1.49567 -0.633327 0)
(1.52054 -0.549852 0)
(1.55188 -0.43943 0)
(1.58845 -0.307321 0)
(1.62763 -0.163218 0)
(1.66546 -0.0203784 0)
(1.69912 0.111916 0)
(1.72684 0.227791 0)
(1.74755 0.324069 0)
(1.76094 0.400008 0)
(1.76735 0.456726 0)
(1.76764 0.496583 0)
(1.76292 0.522456 0)
(1.75391 0.537241 0)
(1.74071 0.542989 0)
(1.72483 0.542042 0)
(1.70702 0.537416 0)
(1.68806 0.531078 0)
(1.6684 0.524352 0)
(1.64819 0.518142 0)
(1.62737 0.51311 0)
(1.60575 0.509819 0)
(1.58305 0.508696 0)
(1.55907 0.509789 0)
(1.53377 0.512443 0)
(1.50741 0.515018 0)
(1.48057 0.514868 0)
(1.45404 0.508635 0)
(1.42871 0.492837 0)
(1.40547 0.464564 0)
(1.38507 0.422035 0)
(1.3681 0.36495 0)
(1.35498 0.294458 0)
(1.34601 0.212857 0)
(1.34135 0.123257 0)
(1.34099 0.0292862 0)
(1.3446 -0.0647722 0)
(1.35167 -0.15573 0)
(1.36162 -0.241245 0)
(1.37372 -0.319481 0)
(1.38721 -0.389224 0)
(1.40131 -0.449908 0)
(1.4153 -0.501571 0)
(1.42855 -0.544747 0)
(1.44056 -0.580327 0)
(1.45096 -0.609409 0)
(1.45949 -0.63311 0)
(1.46597 -0.652387 0)
(1.47047 -0.667802 0)
(1.4733 -0.679377 0)
(1.47481 -0.686804 0)
(1.47525 -0.689981 0)
(1.47436 -0.689215 0)
(1.47219 -0.679972 0)
(1.46947 -0.662192 0)
(1.46663 -0.63523 0)
(1.46378 -0.598287 0)
(1.46106 -0.55102 0)
(1.4587 -0.49354 0)
(1.45691 -0.426428 0)
(1.45592 -0.350755 0)
(0.0381817 -0.161717 0)
(0.0811361 -0.336925 0)
(0.134224 -0.425888 0)
(0.200582 -0.499298 0)
(0.285067 -0.557489 0)
(0.391293 -0.588593 0)
(0.519356 -0.577027 0)
(0.65994 -0.516336 0)
(0.800097 -0.411565 0)
(0.929445 -0.272852 0)
(1.04563 -0.10651 0)
(1.15441 0.087796 0)
(1.2605 0.304941 0)
(1.35421 0.512367 0)
(1.42767 0.686592 0)
(1.47785 0.818531 0)
(1.50579 0.909883 0)
(1.51443 0.967366 0)
(1.5085 0.994071 0)
(1.48908 0.996636 0)
(1.45947 0.980184 0)
(1.42227 0.950567 0)
(1.38124 0.91334 0)
(1.33912 0.872778 0)
(1.29656 0.831777 0)
(1.25406 0.790852 0)
(1.21235 0.748984 0)
(1.16976 0.707404 0)
(1.12026 0.672153 0)
(1.05725 0.649479 0)
(0.983628 0.634649 0)
(0.915799 0.608294 0)
(0.869247 0.551723 0)
(0.852755 0.459544 0)
(0.862868 0.335371 0)
(0.900534 0.189179 0)
(0.953979 0.0363124 0)
(1.01531 -0.108993 0)
(1.07964 -0.239695 0)
(1.14314 -0.352083 0)
(1.20291 -0.444756 0)
(1.257 -0.518069 0)
(1.30433 -0.573613 0)
(1.34448 -0.613765 0)
(1.37747 -0.641376 0)
(1.40354 -0.659484 0)
(1.42305 -0.671147 0)
(1.43646 -0.679279 0)
(1.44434 -0.686915 0)
(1.44685 -0.696583 0)
(1.44503 -0.708048 0)
(1.44167 -0.718353 0)
(1.43839 -0.723489 0)
(1.4361 -0.721658 0)
(1.43727 -0.699802 0)
(1.44507 -0.651724 0)
(1.46045 -0.57617 0)
(1.48338 -0.473044 0)
(1.51311 -0.346516 0)
(1.54789 -0.204854 0)
(1.58429 -0.0604742 0)
(1.61908 0.0759598 0)
(1.65017 0.197971 0)
(1.67596 0.301521 0)
(1.69557 0.385039 0)
(1.70877 0.449009 0)
(1.71591 0.495304 0)
(1.71774 0.526567 0)
(1.71524 0.545757 0)
(1.70874 0.555742 0)
(1.69848 0.558196 0)
(1.6856 0.555626 0)
(1.67077 0.550648 0)
(1.65465 0.544905 0)
(1.63754 0.53956 0)
(1.61947 0.535487 0)
(1.60033 0.533371 0)
(1.57996 0.533636 0)
(1.55825 0.536193 0)
(1.53527 0.540128 0)
(1.51136 0.543491 0)
(1.48709 0.543379 0)
(1.46319 0.536291 0)
(1.44043 0.518718 0)
(1.4196 0.487809 0)
(1.40134 0.44194 0)
(1.38615 0.380989 0)
(1.37444 0.306229 0)
(1.36652 0.220076 0)
(1.36259 0.125801 0)
(1.36265 0.0273391 0)
(1.36636 -0.0707243 0)
(1.3732 -0.16509 0)
(1.38256 -0.253259 0)
(1.39373 -0.333304 0)
(1.40592 -0.403977 0)
(1.41838 -0.464748 0)
(1.43041 -0.515755 0)
(1.44141 -0.557679 0)
(1.45092 -0.591554 0)
(1.45862 -0.618569 0)
(1.46429 -0.63989 0)
(1.46784 -0.656613 0)
(1.46914 -0.66965 0)
(1.46845 -0.679383 0)
(1.46631 -0.685586 0)
(1.46259 -0.68775 0)
(1.45747 -0.68461 0)
(1.45119 -0.674731 0)
(1.44443 -0.656753 0)
(1.43756 -0.629695 0)
(1.43075 -0.592872 0)
(1.42422 -0.545978 0)
(1.41827 -0.489154 0)
(1.41318 -0.422989 0)
(1.40927 -0.348548 0)
(0.0156179 -0.19152 0)
(-0.000868456 -0.357075 0)
(-0.00129725 -0.456437 0)
(0.0187734 -0.557218 0)
(0.0668973 -0.646538 0)
(0.138733 -0.7082 0)
(0.236818 -0.720097 0)
(0.357223 -0.670951 0)
(0.488547 -0.565546 0)
(0.620696 -0.417221 0)
(0.74636 -0.237287 0)
(0.864751 -0.0315999 0)
(0.977084 0.192425 0)
(1.08141 0.411937 0)
(1.17311 0.604905 0)
(1.24754 0.759758 0)
(1.30206 0.874421 0)
(1.33726 0.950998 0)
(1.3556 0.993929 0)
(1.36014 1.01047 0)
(1.35349 1.0083 0)
(1.33431 0.987772 0)
(1.3058 0.954683 0)
(1.2721 0.916764 0)
(1.23594 0.877002 0)
(1.19907 0.835988 0)
(1.16021 0.795661 0)
(1.11397 0.761891 0)
(1.05354 0.741418 0)
(0.980484 0.730998 0)
(0.910348 0.711819 0)
(0.858955 0.662407 0)
(0.837529 0.574129 0)
(0.84157 0.450006 0)
(0.875106 0.297038 0)
(0.928148 0.130173 0)
(0.991658 -0.0333338 0)
(1.05978 -0.182976 0)
(1.12797 -0.313323 0)
(1.19264 -0.42173 0)
(1.25123 -0.507913 0)
(1.30224 -0.573287 0)
(1.3451 -0.620324 0)
(1.37998 -0.652046 0)
(1.4074 -0.671566 0)
(1.42785 -0.682049 0)
(1.44175 -0.686601 0)
(1.44962 -0.688281 0)
(1.45246 -0.690129 0)
(1.45031 -0.6944 0)
(1.44345 -0.70136 0)
(1.43332 -0.709944 0)
(1.4226 -0.71641 0)
(1.41212 -0.715338 0)
(1.40442 -0.699113 0)
(1.40266 -0.659251 0)
(1.40878 -0.592483 0)
(1.42323 -0.497934 0)
(1.4457 -0.378888 0)
(1.47501 -0.242542 0)
(1.50861 -0.0995073 0)
(1.54307 0.0383632 0)
(1.57602 0.164181 0)
(1.6056 0.273225 0)
(1.63041 0.363245 0)
(1.64966 0.433888 0)
(1.66324 0.486507 0)
(1.67148 0.523454 0)
(1.675 0.54748 0)
(1.67454 0.561348 0)
(1.67038 0.567916 0)
(1.66284 0.568627 0)
(1.65276 0.565755 0)
(1.64069 0.561568 0)
(1.62712 0.55756 0)
(1.61222 0.554801 0)
(1.596 0.554086 0)
(1.57841 0.555838 0)
(1.55946 0.559839 0)
(1.5393 0.564941 0)
(1.51834 0.568935 0)
(1.49712 0.568756 0)
(1.47629 0.560823 0)
(1.45654 0.541604 0)
(1.43851 0.50831 0)
(1.42274 0.45948 0)
(1.40967 0.395092 0)
(1.39966 0.3165 0)
(1.39304 0.226215 0)
(1.39 0.127668 0)
(1.39055 0.0251127 0)
(1.39432 -0.0765402 0)
(1.40079 -0.173873 0)
(1.40934 -0.264242 0)
(1.41924 -0.345639 0)
(1.42975 -0.416814 0)
(1.44016 -0.477286 0)
(1.44984 -0.527287 0)
(1.45823 -0.567619 0)
(1.46492 -0.599487 0)
(1.46961 -0.624302 0)
(1.47218 -0.64343 0)
(1.47264 -0.657966 0)
(1.47106 -0.668664 0)
(1.46725 -0.676025 0)
(1.46124 -0.680122 0)
(1.45359 -0.680432 0)
(1.44462 -0.676071 0)
(1.43469 -0.66541 0)
(1.42427 -0.647024 0)
(1.41375 -0.619905 0)
(1.40341 -0.583342 0)
(1.39352 -0.537036 0)
(1.38443 -0.481148 0)
(1.37646 -0.416283 0)
(1.36997 -0.343491 0)
(-0.011893 -0.162281 0)
(-0.0818592 -0.312826 0)
(-0.126176 -0.439244 0)
(-0.138444 -0.574161 0)
(-0.12036 -0.694083 0)
(-0.0782671 -0.783461 0)
(-0.0149876 -0.822907 0)
(0.0761683 -0.793909 0)
(0.188594 -0.69819 0)
(0.30983 -0.551167 0)
(0.432963 -0.368289 0)
(0.555509 -0.159139 0)
(0.677777 0.0677352 0)
(0.796619 0.294189 0)
(0.907701 0.500577 0)
(1.00511 0.673986 0)
(1.08506 0.809226 0)
(1.14656 0.906378 0)
(1.18992 0.968378 0)
(1.21739 0.998427 0)
(1.23063 1.00839 0)
(1.23177 1.00483 0)
(1.21999 0.982916 0)
(1.19832 0.950748 0)
(1.17246 0.913543 0)
(1.14236 0.875693 0)
(1.10353 0.844022 0)
(1.04903 0.826395 0)
(0.979674 0.820961 0)
(0.910761 0.809259 0)
(0.8578 0.769353 0)
(0.833896 0.689766 0)
(0.83234 0.571344 0)
(0.859143 0.416828 0)
(0.911402 0.239569 0)
(0.976687 0.0583714 0)
(1.04849 -0.111401 0)
(1.1215 -0.261916 0)
(1.19144 -0.388697 0)
(1.25508 -0.490268 0)
(1.31037 -0.567587 0)
(1.35635 -0.623232 0)
(1.39309 -0.660674 0)
(1.4213 -0.683435 0)
(1.44191 -0.69482 0)
(1.45588 -0.697797 0)
(1.46387 -0.695862 0)
(1.46662 -0.691504 0)
(1.46418 -0.687436 0)
(1.45698 -0.686254 0)
(1.44544 -0.68891 0)
(1.43029 -0.694627 0)
(1.41301 -0.70034 0)
(1.39545 -0.700947 0)
(1.37997 -0.689015 0)
(1.36958 -0.656763 0)
(1.3668 -0.599009 0)
(1.37287 -0.514001 0)
(1.38796 -0.40393 0)
(1.41133 -0.274894 0)
(1.44105 -0.136219 0)
(1.47396 0.000703157 0)
(1.5074 0.128055 0)
(1.53929 0.240639 0)
(1.56801 0.335674 0)
(1.59234 0.412202 0)
(1.61162 0.470807 0)
(1.62577 0.513366 0)
(1.63513 0.542667 0)
(1.64016 0.560978 0)
(1.64163 0.570974 0)
(1.63968 0.575317 0)
(1.63455 0.575603 0)
(1.62694 0.573674 0)
(1.61729 0.571493 0)
(1.6059 0.570389 0)
(1.59295 0.571264 0)
(1.57854 0.574562 0)
(1.56274 0.579976 0)
(1.54581 0.586146 0)
(1.52832 0.590649 0)
(1.51061 0.590379 0)
(1.49333 0.581682 0)
(1.47703 0.560985 0)
(1.46222 0.525625 0)
(1.44935 0.474239 0)
(1.43878 0.406873 0)
(1.43082 0.324938 0)
(1.42578 0.231019 0)
(1.42385 0.128697 0)
(1.42497 0.022561 0)
(1.42878 -0.0821481 0)
(1.43474 -0.181909 0)
(1.44224 -0.273949 0)
(1.4506 -0.356216 0)
(1.45911 -0.427474 0)
(1.46717 -0.487313 0)
(1.47421 -0.53606 0)
(1.47978 -0.574626 0)
(1.48355 -0.604331 0)
(1.48525 -0.626707 0)
(1.48475 -0.643264 0)
(1.48195 -0.655242 0)
(1.47677 -0.663513 0)
(1.46925 -0.668512 0)
(1.45975 -0.670445 0)
(1.44859 -0.669083 0)
(1.43615 -0.66341 0)
(1.42284 -0.651983 0)
(1.40913 -0.633363 0)
(1.3954 -0.606355 0)
(1.38199 -0.57023 0)
(1.36924 -0.524726 0)
(1.35747 -0.470029 0)
(1.34707 -0.406765 0)
(1.3384 -0.335965 0)
(-0.0462556 -0.0774262 0)
(-0.148938 -0.229913 0)
(-0.210145 -0.395427 0)
(-0.235086 -0.56651 0)
(-0.235155 -0.714518 0)
(-0.217697 -0.825437 0)
(-0.187157 -0.889722 0)
(-0.13558 -0.889039 0)
(-0.0518394 -0.814264 0)
(0.0525341 -0.678267 0)
(0.16783 -0.498454 0)
(0.286415 -0.290853 0)
(0.40773 -0.0666904 0)
(0.53031 0.160102 0)
(0.65173 0.373897 0)
(0.766037 0.56187 0)
(0.867185 0.715978 0)
(0.951793 0.833408 0)
(1.01873 0.914817 0)
(1.0679 0.965159 0)
(1.10017 0.991366 0)
(1.11885 0.998352 0)
(1.12632 0.992379 0)
(1.12234 0.969472 0)
(1.10773 0.939566 0)
(1.08105 0.913089 0)
(1.03664 0.899948 0)
(0.976041 0.89974 0)
(0.914616 0.895046 0)
(0.865505 0.865766 0)
(0.839456 0.799202 0)
(0.834235 0.692654 0)
(0.855144 0.543702 0)
(0.906079 0.361872 0)
(0.97306 0.166071 0)
(1.0487 -0.0236638 0)
(1.12664 -0.195762 0)
(1.20185 -0.343295 0)
(1.27066 -0.463138 0)
(1.33041 -0.55505 0)
(1.37978 -0.621374 0)
(1.41854 -0.665896 0)
(1.4475 -0.692998 0)
(1.46781 -0.706845 0)
(1.48088 -0.710376 0)
(1.48807 -0.706809 0)
(1.48927 -0.698294 0)
(1.48563 -0.688384 0)
(1.47814 -0.679473 0)
(1.46676 -0.673491 0)
(1.45128 -0.671635 0)
(1.43196 -0.673771 0)
(1.40976 -0.677631 0)
(1.38635 -0.678614 0)
(1.36409 -0.670118 0)
(1.34603 -0.644751 0)
(1.33503 -0.596153 0)
(1.33303 -0.521369 0)
(1.34083 -0.421517 0)
(1.35805 -0.301513 0)
(1.38326 -0.169397 0)
(1.41367 -0.035663 0)
(1.44643 0.0910738 0)
(1.47938 0.205336 0)
(1.51067 0.303832 0)
(1.5388 0.385065 0)
(1.56277 0.448984 0)
(1.58215 0.497047 0)
(1.59688 0.531357 0)
(1.60724 0.554318 0)
(1.61366 0.568601 0)
(1.61664 0.576435 0)
(1.61669 0.579995 0)
(1.61367 0.580946 0)
(1.6082 0.581186 0)
(1.60064 0.582084 0)
(1.59131 0.584748 0)
(1.58041 0.589682 0)
(1.56812 0.596492 0)
(1.55484 0.60355 0)
(1.54127 0.608326 0)
(1.52752 0.607874 0)
(1.51421 0.598434 0)
(1.50175 0.576408 0)
(1.49058 0.53928 0)
(1.48102 0.485758 0)
(1.47333 0.415909 0)
(1.46777 0.331174 0)
(1.46458 0.234213 0)
(1.46388 0.128746 0)
(1.46561 0.0196925 0)
(1.46935 -0.0873879 0)
(1.47458 -0.188901 0)
(1.48073 -0.28197 0)
(1.48716 -0.364526 0)
(1.49327 -0.435376 0)
(1.49853 -0.494201 0)
(1.50252 -0.541442 0)
(1.5049 -0.578124 0)
(1.50544 -0.605662 0)
(1.50397 -0.625671 0)
(1.50038 -0.639697 0)
(1.49434 -0.649028 0)
(1.48572 -0.654527 0)
(1.47481 -0.65701 0)
(1.46193 -0.656978 0)
(1.44749 -0.654064 0)
(1.43191 -0.647247 0)
(1.41559 -0.635133 0)
(1.39897 -0.616292 0)
(1.38248 -0.589546 0)
(1.36647 -0.554077 0)
(1.35132 -0.509593 0)
(1.33736 -0.456318 0)
(1.32497 -0.3949 0)
(1.31451 -0.326359 0)
(1.45027 -0.63549 0)
(1.43178 -0.627723 0)
(1.41272 -0.61515 0)
(1.39356 -0.596308 0)
(1.3747 -0.569977 0)
(1.35655 -0.535369 0)
(1.33945 -0.492163 0)
(1.32375 -0.44054 0)
(1.30981 -0.381174 0)
(1.29796 -0.315088 0)
(0.717468 0.0200331 0)
(0.689205 0.0209256 0)
(0.659283 0.0217345 0)
(0.62779 0.0224093 0)
(0.594826 0.0229525 0)
(0.560506 0.0233378 0)
(0.525015 0.0234891 0)
(0.48855 0.023241 0)
(0.451617 0.0222924 0)
(0.415591 0.0205025 0)
(0.380805 0.0181092 0)
(0.347239 0.015507 0)
(0.315083 0.0129243 0)
(0.284527 0.0104406 0)
(0.255639 0.00806831 0)
(0.228417 0.00579843 0)
(0.202858 0.0036144 0)
(0.178974 0.00149205 0)
(0.156786 -0.000653313 0)
(0.136339 -0.00287703 0)
(0.11769 -0.00514024 0)
(0.100912 -0.00739433 0)
(0.0860031 -0.0093852 0)
(0.0728133 -0.0107261 0)
(0.0611235 -0.0113651 0)
(1.56546 0.0422534 0)
(1.54821 0.0451527 0)
(1.52937 0.0480067 0)
(1.50899 0.0507776 0)
(1.48711 0.0534158 0)
(1.46371 0.0558616 0)
(1.4388 0.0580368 0)
(1.4124 0.0598278 0)
(1.38435 0.0610788 0)
(1.35408 0.0617063 0)
(1.32157 0.061748 0)
(1.2869 0.0613431 0)
(1.2502 0.0606132 0)
(1.21163 0.059641 0)
(1.17133 0.0584833 0)
(1.12944 0.0571797 0)
(1.08604 0.0557557 0)
(1.0412 0.0542296 0)
(0.994983 0.0526322 0)
(0.947431 0.050957 0)
(0.898542 0.0491811 0)
(0.848351 0.0472732 0)
(0.796793 0.0451721 0)
(0.744197 0.0428208 0)
(0.691294 0.0402287 0)
(1.89607 0.0548979 0)
(1.88897 0.0593524 0)
(1.88096 0.0635659 0)
(1.872 0.0675368 0)
(1.86207 0.0715036 0)
(1.85119 0.0753025 0)
(1.83932 0.0788272 0)
(1.82643 0.0820077 0)
(1.81246 0.0848078 0)
(1.79734 0.0872221 0)
(1.781 0.0892695 0)
(1.76333 0.090996 0)
(1.7443 0.0924572 0)
(1.72387 0.0937083 0)
(1.70202 0.0947963 0)
(1.67875 0.0957578 0)
(1.65403 0.0966212 0)
(1.62782 0.0974077 0)
(1.6001 0.0981307 0)
(1.5708 0.0987984 0)
(1.53988 0.0994178 0)
(1.50725 0.0999984 0)
(1.47289 0.100539 0)
(1.43657 0.100976 0)
(1.39793 0.101226 0)
(2.00244 0.0582367 0)
(2.00016 0.0632152 0)
(1.99739 0.0681561 0)
(1.9941 0.0730235 0)
(1.99026 0.077767 0)
(1.98588 0.0823323 0)
(1.98097 0.0866667 0)
(1.9755 0.090726 0)
(1.96942 0.0944759 0)
(1.96269 0.0978992 0)
(1.95524 0.100998 0)
(1.94703 0.1038 0)
(1.93799 0.106352 0)
(1.92809 0.108707 0)
(1.91735 0.110912 0)
(1.90574 0.11301 0)
(1.89325 0.115041 0)
(1.87985 0.117036 0)
(1.86552 0.119023 0)
(1.8502 0.121022 0)
(1.83386 0.123047 0)
(1.81646 0.125111 0)
(1.79792 0.127228 0)
(1.77821 0.12941 0)
(1.75728 0.131641 0)
(2.03389 0.0593015 0)
(2.03332 0.0647708 0)
(2.03238 0.070182 0)
(2.03108 0.0754813 0)
(2.02941 0.0806411 0)
(2.0274 0.0856285 0)
(2.02506 0.0904 0)
(2.02238 0.0949151 0)
(2.01935 0.0991465 0)
(2.01595 0.103085 0)
(2.01216 0.106739 0)
(2.00795 0.11014 0)
(2.00332 0.113332 0)
(1.99827 0.116358 0)
(1.99278 0.119256 0)
(1.98687 0.122068 0)
(1.98051 0.124835 0)
(1.97372 0.127595 0)
(1.96647 0.13038 0)
(1.95875 0.133216 0)
(1.95052 0.136125 0)
(1.94174 0.139116 0)
(1.9324 0.1422 0)
(1.92249 0.145373 0)
(1.91196 0.148606 0)
(2.04262 0.0592658 0)
(2.04255 0.0651193 0)
(2.04212 0.0708913 0)
(2.04137 0.0765451 0)
(2.04029 0.0820456 0)
(2.03893 0.0873691 0)
(2.03728 0.0924539 0)
(2.03537 0.0973053 0)
(2.03319 0.10184 0)
(2.03074 0.106114 0)
(2.02804 0.110121 0)
(2.02511 0.113874 0)
(2.02194 0.117403 0)
(2.01856 0.120749 0)
(2.01498 0.123952 0)
(2.01121 0.127057 0)
(2.00727 0.130109 0)
(2.00315 0.133149 0)
(1.99886 0.136218 0)
(1.99441 0.139352 0)
(1.98978 0.142582 0)
(1.98498 0.14592 0)
(1.97998 0.149368 0)
(1.97477 0.152925 0)
(1.96932 0.156571 0)
(2.0471 0.0590434 0)
(2.04705 0.0653072 0)
(2.04663 0.0714705 0)
(2.04586 0.077495 0)
(2.04475 0.0833399 0)
(2.04334 0.0889706 0)
(2.04166 0.0943506 0)
(2.03971 0.099457 0)
(2.03755 0.10427 0)
(2.03518 0.108788 0)
(2.03262 0.11301 0)
(2.0299 0.116957 0)
(2.02703 0.120662 0)
(2.02405 0.124164 0)
(2.02098 0.127503 0)
(2.01783 0.130729 0)
(2.01463 0.133892 0)
(2.01138 0.137031 0)
(2.00812 0.140189 0)
(2.00482 0.143404 0)
(2.00153 0.146711 0)
(1.99821 0.15013 0)
(1.99486 0.153669 0)
(1.99148 0.157328 0)
(1.98804 0.161095 0)
(2.05184 0.0589432 0)
(2.0517 0.0656495 0)
(2.05114 0.0722367 0)
(2.05019 0.0786622 0)
(2.04887 0.0848794 0)
(2.04721 0.0908514 0)
(2.04525 0.096539 0)
(2.04302 0.101917 0)
(2.04056 0.106965 0)
(2.03791 0.111678 0)
(2.0351 0.116063 0)
(2.03218 0.120142 0)
(2.02918 0.123945 0)
(2.02613 0.127513 0)
(2.02306 0.130893 0)
(2.02 0.134137 0)
(2.01696 0.137292 0)
(2.01397 0.140409 0)
(2.01103 0.143538 0)
(2.00815 0.146719 0)
(2.00533 0.149987 0)
(2.00256 0.153376 0)
(1.99984 0.156901 0)
(1.99714 0.160561 0)
(1.99445 0.164346 0)
(2.05751 0.0588979 0)
(2.05723 0.0661026 0)
(2.05648 0.0731695 0)
(2.05529 0.0800485 0)
(2.05368 0.0866871 0)
(2.05168 0.0930397 0)
(2.04934 0.0990635 0)
(2.04671 0.104728 0)
(2.04384 0.110013 0)
(2.04078 0.114913 0)
(2.03759 0.119437 0)
(2.03431 0.123608 0)
(2.031 0.12746 0)
(2.0277 0.131038 0)
(2.02445 0.134393 0)
(2.02127 0.13758 0)
(2.01819 0.140658 0)
(2.01522 0.143686 0)
(2.01238 0.146712 0)
(2.00966 0.149791 0)
(2.00705 0.152969 0)
(2.00454 0.156279 0)
(2.0021 0.159742 0)
(1.99972 0.163364 0)
(1.99736 0.167138 0)
(2.0641 0.0590411 0)
(2.06367 0.0668011 0)
(2.06272 0.0744082 0)
(2.06125 0.0818014 0)
(2.0593 0.0889176 0)
(2.05692 0.0956993 0)
(2.05415 0.102096 0)
(2.05105 0.10807 0)
(2.0477 0.113596 0)
(2.04415 0.11867 0)
(2.04049 0.123299 0)
(2.03678 0.12751 0)
(2.03309 0.131344 0)
(2.02946 0.134855 0)
(2.02594 0.138102 0)
(2.02257 0.14115 0)
(2.01937 0.144071 0)
(2.01636 0.146932 0)
(2.01353 0.149789 0)
(2.01088 0.152703 0)
(2.0084 0.155739 0)
(2.00606 0.158934 0)
(2.00382 0.162313 0)
(2.00164 0.16589 0)
(1.99948 0.169663 0)
(2.07161 0.0592765 0)
(2.07103 0.0676674 0)
(2.06984 0.0758949 0)
(2.06807 0.0838821 0)
(2.06575 0.0915502 0)
(2.06291 0.0988257 0)
(2.05964 0.105645 0)
(2.056 0.111961 0)
(2.05208 0.117742 0)
(2.04797 0.122981 0)
(2.04377 0.127688 0)
(2.03955 0.131896 0)
(2.03541 0.135655 0)
(2.0314 0.139028 0)
(2.02758 0.14209 0)
(2.024 0.144918 0)
(2.02066 0.147599 0)
(2.01759 0.150215 0)
(2.01479 0.15283 0)
(2.01222 0.155518 0)
(2.00988 0.158361 0)
(2.00772 0.161405 0)
(2.00568 0.164681 0)
(2.00373 0.16821 0)
(2.00178 0.171994 0)
(2.08006 0.0596834 0)
(2.07932 0.068788 0)
(2.07789 0.0777269 0)
(2.07578 0.0864003 0)
(2.07301 0.0947064 0)
(2.06965 0.10255 0)
(2.06578 0.109848 0)
(2.06149 0.116539 0)
(2.0569 0.122584 0)
(2.05212 0.127971 0)
(2.04727 0.132717 0)
(2.04246 0.13686 0)
(2.0378 0.140464 0)
(2.03335 0.143608 0)
(2.02919 0.146384 0)
(2.02537 0.14889 0)
(2.0219 0.151231 0)
(2.01879 0.153509 0)
(2.01603 0.155799 0)
(2.0136 0.158186 0)
(2.01144 0.160777 0)
(2.00953 0.163628 0)
(2.00778 0.166779 0)
(2.00612 0.170256 0)
(2.00446 0.174067 0)
(2.08953 0.0601817 0)
(2.08865 0.0701168 0)
(2.08696 0.0798892 0)
(2.08445 0.0893729 0)
(2.08117 0.098434 0)
(2.07719 0.106946 0)
(2.07259 0.1148 0)
(2.06752 0.121914 0)
(2.06211 0.128238 0)
(2.05652 0.133759 0)
(2.0509 0.138495 0)
(2.04538 0.142499 0)
(2.04009 0.14585 0)
(2.03512 0.148652 0)
(2.03057 0.151019 0)
(2.02648 0.153075 0)
(2.02288 0.154953 0)
(2.01975 0.156779 0)
(2.01709 0.158642 0)
(2.01484 0.160638 0)
(2.01295 0.162902 0)
(2.01138 0.165505 0)
(2.01001 0.168501 0)
(2.00875 0.171921 0)
(2.00749 0.175777 0)
(2.10012 0.0607921 0)
(2.09912 0.0716888 0)
(2.09715 0.0824528 0)
(2.09422 0.0929049 0)
(2.09033 0.10287 0)
(2.0856 0.112178 0)
(2.08013 0.120684 0)
(2.0741 0.128278 0)
(2.0677 0.134898 0)
(2.06111 0.140525 0)
(2.05454 0.145187 0)
(2.04815 0.148954 0)
(2.04211 0.151929 0)
(2.03653 0.154243 0)
(2.03152 0.156045 0)
(2.02714 0.157491 0)
(2.0234 0.158749 0)
(2.02029 0.159981 0)
(2.01779 0.161295 0)
(2.01581 0.162793 0)
(2.01428 0.164639 0)
(2.01315 0.166925 0)
(2.01228 0.169721 0)
(2.01155 0.173068 0)
(2.01084 0.17698 0)
(2.11198 0.0614211 0)
(2.11092 0.0734633 0)
(2.10869 0.0854174 0)
(2.10525 0.0970527 0)
(2.10066 0.108124 0)
(2.09501 0.118404 0)
(2.08847 0.127694 0)
(2.08125 0.13585 0)
(2.07362 0.142788 0)
(2.06581 0.148491 0)
(2.05807 0.152999 0)
(2.05063 0.156405 0)
(2.04368 0.158845 0)
(2.03737 0.160489 0)
(2.03182 0.161525 0)
(2.0271 0.162156 0)
(2.02323 0.162592 0)
(2.0202 0.163045 0)
(2.01795 0.163662 0)
(2.01636 0.164541 0)
(2.0153 0.165859 0)
(2.01474 0.167741 0)
(2.01454 0.170284 0)
(2.0145 0.173534 0)
(2.01448 0.177509 0)
(2.12531 0.0619948 0)
(2.12428 0.0754374 0)
(2.1218 0.0888474 0)
(2.11781 0.101949 0)
(2.11238 0.11439 0)
(2.10561 0.125863 0)
(2.09773 0.1361 0)
(2.08904 0.144909 0)
(2.07985 0.152188 0)
(2.07052 0.157917 0)
(2.06134 0.16216 0)
(2.05261 0.165044 0)
(2.04457 0.166752 0)
(2.03738 0.1675 0)
(2.0312 0.16753 0)
(2.02609 0.167093 0)
(2.02208 0.166451 0)
(2.01918 0.16588 0)
(2.01732 0.165619 0)
(2.01631 0.165729 0)
(2.01587 0.166393 0)
(2.01606 0.167781 0)
(2.0167 0.170006 0)
(2.01755 0.173129 0)
(2.01843 0.177172 0)
(2.14039 0.0623015 0)
(2.13953 0.0774763 0)
(2.13684 0.0927343 0)
(2.13224 0.107688 0)
(2.12578 0.121891 0)
(2.11761 0.134883 0)
(2.10805 0.1463 0)
(2.09749 0.15589 0)
(2.08637 0.163527 0)
(2.07513 0.169204 0)
(2.06418 0.17302 0)
(2.05387 0.175155 0)
(2.0445 0.175858 0)
(2.03629 0.175415 0)
(2.02938 0.174138 0)
(2.02384 0.172328 0)
(2.01969 0.170284 0)
(2.01695 0.168358 0)
(2.01556 0.166879 0)
(2.01534 0.166172 0)
(2.01579 0.166033 0)
(2.01699 0.166809 0)
(2.01871 0.16864 0)
(2.02068 0.171599 0)
(2.02269 0.175718 0)
(2.15757 0.062186 0)
(2.15712 0.0795066 0)
(2.15433 0.0971034 0)
(2.14906 0.114401 0)
(2.14133 0.130839 0)
(2.13139 0.145755 0)
(2.11966 0.158651 0)
(2.1067 0.16919 0)
(2.0931 0.177218 0)
(2.07946 0.182752 0)
(2.06629 0.185943 0)
(2.05405 0.187048 0)
(2.04309 0.186404 0)
(2.03369 0.184402 0)
(2.02596 0.181428 0)
(2.02004 0.177907 0)
(2.01582 0.174108 0)
(2.01336 0.17041 0)
(2.0126 0.167516 0)
(2.01305 0.165556 0)
(2.01466 0.164455 0)
(2.0172 0.164527 0)
(2.02033 0.165896 0)
(2.02377 0.16866 0)
(2.02725 0.172867 0)
(2.17747 0.0611887 0)
(2.17775 0.0813189 0)
(2.17498 0.102018 0)
(2.16894 0.12248 0)
(2.15963 0.141894 0)
(2.14742 0.159284 0)
(2.13289 0.173995 0)
(2.11683 0.185613 0)
(2.10006 0.193977 0)
(2.08335 0.199149 0)
(2.06741 0.201378 0)
(2.05279 0.201037 0)
(2.0399 0.198572 0)
(2.02907 0.194503 0)
(2.02047 0.189364 0)
(2.01412 0.183649 0)
(2.00996 0.177679 0)
(2.00799 0.171979 0)
(2.00792 0.167296 0)
(2.00942 0.163722 0)
(2.01244 0.161349 0)
(2.01659 0.160491 0)
(2.02146 0.161297 0)
(2.02671 0.163859 0)
(2.032 0.168204 0)
(2.20187 0.058712 0)
(2.20338 0.082376 0)
(2.20085 0.107091 0)
(2.1939 0.131707 0)
(2.18244 0.155101 0)
(2.16703 0.175903 0)
(2.14866 0.193058 0)
(2.12843 0.206063 0)
(2.10746 0.214769 0)
(2.0868 0.219338 0)
(2.06734 0.220177 0)
(2.04976 0.217836 0)
(2.03454 0.212927 0)
(2.02202 0.206126 0)
(2.01239 0.198157 0)
(2.00561 0.189617 0)
(2.00163 0.180917 0)
(2.00031 0.172761 0)
(2.00126 0.165875 0)
(2.00424 0.160374 0)
(2.00904 0.156454 0)
(2.01514 0.154455 0)
(2.02211 0.154556 0)
(2.02955 0.156849 0)
(2.03703 0.161343 0)
(2.22376 0.0291621 0)
(2.23171 0.0545902 0)
(2.23529 0.0830158 0)
(2.23347 0.113297 0)
(2.22569 0.143643 0)
(2.21174 0.172088 0)
(2.19225 0.196991 0)
(2.16877 0.217024 0)
(2.143 0.23151 0)
(2.1165 0.240326 0)
(2.09069 0.24382 0)
(2.06672 0.242646 0)
(2.0454 0.237592 0)
(2.02728 0.229488 0)
(2.01272 0.219218 0)
(2.00187 0.207696 0)
(1.99464 0.195625 0)
(1.99093 0.183571 0)
(1.99047 0.172398 0)
(1.99282 0.162796 0)
(1.99768 0.154974 0)
(2.00468 0.149211 0)
(2.01322 0.145879 0)
(2.02277 0.145179 0)
(2.03283 0.147183 0)
(2.04291 0.151874 0)
(2.24785 0.015404 0)
(2.2602 0.0457004 0)
(2.26725 0.0802644 0)
(2.26745 0.117877 0)
(2.2591 0.156985 0)
(2.24199 0.193839 0)
(2.21789 0.224819 0)
(2.18866 0.248719 0)
(2.1565 0.264933 0)
(2.1237 0.273488 0)
(2.09218 0.275119 0)
(2.06329 0.270873 0)
(2.03795 0.261898 0)
(2.01682 0.24937 0)
(2.00024 0.234463 0)
(1.98829 0.218303 0)
(1.98084 0.201736 0)
(1.97771 0.185538 0)
(1.97851 0.17065 0)
(1.98276 0.157719 0)
(1.99006 0.147082 0)
(1.99988 0.139115 0)
(2.01152 0.134216 0)
(2.02429 0.13262 0)
(2.03757 0.134357 0)
(2.05077 0.139347 0)
(2.25114 -0.00238974 0)
(2.27279 0.0327297 0)
(2.28545 0.0754151 0)
(2.28461 0.122405 0)
(2.27858 0.170436 0)
(2.25918 0.216453 0)
(2.22972 0.255738 0)
(2.19445 0.28501 0)
(2.15592 0.303496 0)
(2.11703 0.311705 0)
(2.08029 0.311128 0)
(2.04716 0.303269 0)
(2.01865 0.289605 0)
(1.99547 0.271746 0)
(1.97791 0.251258 0)
(1.96591 0.229491 0)
(1.9593 0.207479 0)
(1.95777 0.186223 0)
(1.96083 0.166757 0)
(1.96796 0.149797 0)
(1.97865 0.135814 0)
(1.99226 0.125268 0)
(2.00801 0.118588 0)
(2.02499 0.116015 0)
(2.0424 0.117566 0)
(2.05952 0.123138 0)
(2.19066 -0.0321383 0)
(2.21745 0.0110378 0)
(2.23737 0.0660497 0)
(2.24478 0.128488 0)
(2.23893 0.19182 0)
(2.21978 0.249258 0)
(2.18983 0.296671 0)
(2.15294 0.331169 0)
(2.11276 0.35134 0)
(2.07228 0.357579 0)
(2.03428 0.352807 0)
(2.00011 0.339422 0)
(1.97119 0.319396 0)
(1.94847 0.29477 0)
(1.9322 0.267514 0)
(1.92225 0.239207 0)
(1.91834 0.211001 0)
(1.9201 0.184056 0)
(1.92697 0.159478 0)
(1.93847 0.137931 0)
(1.95414 0.119987 0)
(1.97303 0.106417 0)
(1.99416 0.0978395 0)
(2.01663 0.0943298 0)
(2.03953 0.0956815 0)
(2.06194 0.101829 0)
(1.94978 -0.0741375 0)
(1.9822 -0.0281194 0)
(2.0137 0.0339206 0)
(2.03885 0.108202 0)
(2.05237 0.190199 0)
(2.05008 0.26687 0)
(2.03342 0.328026 0)
(2.00633 0.370102 0)
(1.97458 0.393178 0)
(1.9444 0.400075 0)
(1.91585 0.393148 0)
(1.8902 0.37471 0)
(1.86886 0.347994 0)
(1.85307 0.316039 0)
(1.84327 0.281179 0)
(1.83949 0.245389 0)
(1.84155 0.210149 0)
(1.84913 0.176759 0)
(1.86178 0.146248 0)
(1.87924 0.119389 0)
(1.90091 0.0971994 0)
(1.92581 0.0804752 0)
(1.95347 0.0697044 0)
(1.9835 0.0654066 0)
(2.01262 0.0674913 0)
(2.04091 0.0753795 0)
(1.38702 -0.0899766 0)
(1.43064 -0.0504678 0)
(1.47824 0.0115344 0)
(1.52704 0.0890915 0)
(1.57262 0.178175 0)
(1.60737 0.265438 0)
(1.62902 0.339388 0)
(1.63968 0.391833 0)
(1.64291 0.415736 0)
(1.64503 0.417981 0)
(1.64694 0.412228 0)
(1.64889 0.391995 0)
(1.65199 0.36139 0)
(1.65725 0.324419 0)
(1.66518 0.284148 0)
(1.6761 0.242776 0)
(1.69033 0.201884 0)
(1.70796 0.163118 0)
(1.72928 0.127339 0)
(1.75453 0.0954619 0)
(1.78348 0.0686483 0)
(1.81548 0.0478882 0)
(1.84955 0.0340333 0)
(1.88482 0.0279294 0)
(1.92023 0.0297399 0)
(1.95467 0.0382967 0)
(0.774589 -0.177938 0)
(0.827537 -0.141545 0)
(0.873601 -0.0765992 0)
(0.915612 0.008498 0)
(0.957597 0.108104 0)
(1.00178 0.210803 0)
(1.04591 0.297043 0)
(1.08954 0.356806 0)
(1.13156 0.388237 0)
(1.17388 0.397234 0)
(1.21583 0.390247 0)
(1.25615 0.369929 0)
(1.29481 0.339519 0)
(1.33148 0.302364 0)
(1.36616 0.261203 0)
(1.39929 0.218116 0)
(1.43098 0.175137 0)
(1.46178 0.133475 0)
(1.49242 0.0941754 0)
(1.52346 0.0588368 0)
(1.55501 0.0294542 0)
(1.58692 0.00720536 0)
(1.61947 -0.00723552 0)
(1.65285 -0.0129373 0)
(1.6864 -0.00974597 0)
(1.71962 0.000813877 0)
(0.155962 -0.203841 0)
(0.160995 -0.154226 0)
(0.179043 -0.0839608 0)
(0.205063 -0.00221521 0)
(0.239566 0.0865174 0)
(0.293453 0.172304 0)
(0.359814 0.244517 0)
(0.435596 0.29593 0)
(0.51683 0.323729 0)
(0.599912 0.330866 0)
(0.681808 0.323318 0)
(0.760493 0.305196 0)
(0.833908 0.278664 0)
(0.900432 0.246038 0)
(0.959192 0.209806 0)
(1.0098 0.172179 0)
(1.05267 0.134442 0)
(1.089 0.097138 0)
(1.12034 0.0609871 0)
(1.14836 0.027474 0)
(1.17391 -0.00208482 0)
(1.19792 -0.0256486 0)
(1.22071 -0.0416198 0)
(1.24287 -0.048834 0)
(1.26501 -0.0460666 0)
(1.28705 -0.0368811 0)
(-0.398542 -0.14496 0)
(-0.456245 -0.119225 0)
(-0.488722 -0.077931 0)
(-0.490602 -0.0236704 0)
(-0.465171 0.0388958 0)
(-0.411221 0.0994573 0)
(-0.331236 0.150196 0)
(-0.233346 0.186042 0)
(-0.125106 0.20457 0)
(-0.0115941 0.208963 0)
(0.102031 0.204269 0)
(0.211069 0.192576 0)
(0.312456 0.175408 0)
(0.404056 0.154047 0)
(0.484866 0.130077 0)
(0.554297 0.104152 0)
(0.61214 0.0763036 0)
(0.65847 0.0472307 0)
(0.693365 0.0183926 0)
(0.716498 -0.00859778 0)
(0.728274 -0.0312449 0)
(0.730874 -0.0474183 0)
(0.725826 -0.0568256 0)
(0.715133 -0.0580276 0)
(0.702528 -0.053733 0)
(0.693784 -0.0393272 0)
(-0.590654 -0.072883 0)
(-0.687487 -0.0598161 0)
(-0.762136 -0.0413661 0)
(-0.805324 -0.0193526 0)
(-0.811379 0.00561856 0)
(-0.780457 0.030824 0)
(-0.716575 0.0517663 0)
(-0.624173 0.065869 0)
(-0.508285 0.0723565 0)
(-0.388556 0.0730468 0)
(-0.266099 0.0702116 0)
(-0.146452 0.064668 0)
(-0.0342301 0.0569306 0)
(0.0668243 0.04715 0)
(0.15323 0.0363719 0)
(0.224976 0.0255328 0)
(0.27856 0.0150089 0)
(0.314027 0.00542067 0)
(0.330643 -0.00374444 0)
(0.330532 -0.0130897 0)
(0.314787 -0.0196227 0)
(0.286573 -0.0231558 0)
(0.251865 -0.0235156 0)
(0.215596 -0.0221802 0)
(0.179813 -0.0191514 0)
(0.149501 -0.0100955 0)
(0.0507646 -0.0114734 0)
(0.0416091 -0.011076 0)
(0.0332389 -0.0101237 0)
(0.02555 -0.00873537 0)