/*--------------------------------*- C++ -*----------------------------------*\
| =========                 |                                                 |
| \\      /  F ield         | OpenFOAM: The Open Source CFD Toolbox           |
|  \\    /   O peration     | Version:  2206                                  |
|   \\  /    A nd           | Website:  www.openfoam.com                      |
|    \\/     M anipulation  |                                                 |
\*---------------------------------------------------------------------------*/
FoamFile
{
    version     2.0;
    format      ascii;
    arch        "LSB;label=32;scalar=64";
    class       volScalarField;
    location    "19.1001";
    object      p;
}
// * * * * * * * * * * * * * * * * * * * * * * * * * * * * * * * * * * * * * //

dimensions      [0 2 -2 0 0 0 0];

internalField   nonuniform List<scalar> 
3050
(
0.885611
0.885505
0.885231
0.884799
0.884232
0.883539
0.882724
0.881791
0.880745
0.879596
0.878351
0.877018
0.875602
0.87411
0.87255
0.870926
0.869245
0.867513
0.865734
0.863912
0.862054
0.860164
0.858245
0.856302
0.854339
0.852361
0.85037
0.848372
0.846371
0.84437
0.842374
0.840386
0.83841
0.836451
0.834513
0.832599
0.830714
0.828861
0.827046
0.825272
0.823544
0.821864
0.820238
0.81867
0.817163
0.815723
0.814352
0.813056
0.811839
0.810705
0.809658
0.808705
0.80785
0.807099
0.806457
0.80593
0.805527
0.805256
0.80513
0.805158
0.80535
0.805716
0.806272
0.807033
0.808017
0.809244
0.810735
0.812516
0.814615
0.817063
0.819894
0.823148
0.826869
0.831107
0.835915
0.841356
0.847496
0.854412
0.862185
0.870906
0.880674
0.891592
0.90377
0.917318
0.932344
0.948941
0.967173
0.987054
1.00851
1.03132
1.05503
1.07878
1.1011
1.11935
1.12935
1.12165
1.08447
0.959111
0.713404
-0.248966
0.886421
0.88631
0.886024
0.885572
0.884979
0.884257
0.883409
0.882439
0.881356
0.880169
0.878885
0.877513
0.876059
0.874531
0.872935
0.871278
0.869564
0.8678
0.86599
0.86414
0.862253
0.860336
0.85839
0.856422
0.854434
0.852431
0.850417
0.848395
0.84637
0.844346
0.842327
0.840316
0.838317
0.836335
0.834374
0.832437
0.83053
0.828655
0.826817
0.825021
0.82327
0.821569
0.81992
0.81833
0.8168
0.815336
0.813942
0.81262
0.811377
0.810215
0.809139
0.808154
0.807263
0.806474
0.805789
0.805216
0.804761
0.804433
0.804243
0.804198
0.804305
0.804577
0.805025
0.805664
0.806509
0.807578
0.808888
0.810463
0.812326
0.814504
0.817026
0.819925
0.823237
0.827003
0.831266
0.836075
0.841482
0.847544
0.854319
0.86187
0.870262
0.879555
0.889806
0.901061
0.913345
0.926647
0.940902
0.955958
0.971527
0.987113
1.00189
1.01453
1.02289
1.02333
1.01027
0.972061
0.893837
0.73065
0.455475
-0.00949452
0.887381
0.887264
0.886962
0.886485
0.88586
0.885102
0.884212
0.883199
0.88207
0.880837
0.879507
0.878089
0.87659
0.875018
0.873381
0.871683
0.86993
0.868129
0.866284
0.8644
0.862481
0.860532
0.858556
0.856558
0.854541
0.85251
0.850467
0.848418
0.846365
0.844314
0.842267
0.840229
0.838204
0.836195
0.834207
0.832243
0.830309
0.828408
0.826544
0.824722
0.822945
0.821217
0.819542
0.817925
0.816369
0.814878
0.813455
0.812105
0.810831
0.809637
0.808527
0.807504
0.806574
0.80574
0.805007
0.804381
0.803867
0.803475
0.803211
0.803081
0.803093
0.803257
0.803583
0.804084
0.804772
0.805662
0.806769
0.808112
0.809711
0.811586
0.813762
0.816264
0.819121
0.822364
0.826025
0.830138
0.83474
0.839868
0.845558
0.851844
0.858754
0.866311
0.874519
0.883361
0.892786
0.902691
0.912894
0.923102
0.932855
0.941443
0.947793
0.950271
0.946427
0.932446
0.902747
0.848266
0.757574
0.614093
0.401764
0.157197
0.888501
0.888376
0.888053
0.887545
0.886882
0.886077
0.885138
0.884072
0.882889
0.8816
0.880215
0.878743
0.877192
0.87557
0.873884
0.87214
0.870343
0.8685
0.866615
0.864692
0.862736
0.860751
0.858741
0.856709
0.854659
0.852596
0.850521
0.84844
0.846356
0.844273
0.842196
0.840127
0.83807
0.83603
0.834011
0.832017
0.830052
0.828121
0.826226
0.824374
0.822567
0.820809
0.819104
0.817457
0.81587
0.814348
0.812894
0.811511
0.810202
0.808972
0.807824
0.80676
0.805785
0.804903
0.804117
0.803431
0.802853
0.802388
0.802042
0.801819
0.801726
0.801771
0.801964
0.802312
0.802828
0.803521
0.804406
0.805496
0.806805
0.808351
0.810151
0.812224
0.81459
0.81727
0.820284
0.823654
0.8274
0.831539
0.836085
0.841045
0.846416
0.852178
0.858293
0.864686
0.871242
0.877778
0.884021
0.889571
0.893848
0.896015
0.894875
0.888721
0.875138
0.850718
0.810817
0.749275
0.65829
0.530906
0.349227
0.123625
0.889789
0.889654
0.889307
0.888761
0.888049
0.887189
0.88619
0.88506
0.883812
0.882458
0.881009
0.879475
0.877864
0.876184
0.874443
0.872647
0.870801
0.86891
0.86698
0.865014
0.863017
0.860993
0.858944
0.856874
0.854788
0.852688
0.850578
0.848462
0.846342
0.844224
0.842111
0.840007
0.837915
0.835841
0.833787
0.831758
0.829758
0.827792
0.825863
0.823977
0.822136
0.820344
0.818606
0.816925
0.815304
0.813747
0.812258
0.810839
0.809493
0.808223
0.807033
0.805924
0.804901
0.803966
0.803122
0.802373
0.801725
0.801181
0.800746
0.800422
0.800216
0.800134
0.800182
0.800367
0.800698
0.801181
0.801828
0.802647
0.803649
0.804845
0.806247
0.807866
0.809715
0.811803
0.814141
0.816736
0.819594
0.822713
0.826085
0.829694
0.833505
0.837467
0.841498
0.845481
0.849245
0.852548
0.855053
0.856289
0.855611
0.852133
0.844647
0.831519
0.810567
0.778922
0.732895
0.668004
0.578491
0.459419
0.300072
0.107178
0.89126
0.891113
0.890735
0.890141
0.889369
0.888442
0.88737
0.886165
0.88484
0.88341
0.881887
0.880282
0.878603
0.876858
0.875056
0.873201
0.8713
0.869358
0.867378
0.865365
0.863323
0.861255
0.859164
0.857053
0.854927
0.852787
0.850638
0.848482
0.846324
0.844167
0.842015
0.839871
0.83774
0.835626
0.833533
0.831465
0.829427
0.827422
0.825455
0.82353
0.821652
0.819822
0.818047
0.816329
0.814671
0.813076
0.811549
0.81009
0.808704
0.807392
0.806156
0.805
0.803926
0.802935
0.80203
0.801214
0.800491
0.799864
0.799333
0.798904
0.798579
0.798362
0.798258
0.798271
0.798407
0.79867
0.799067
0.799603
0.800284
0.801116
0.802105
0.803254
0.804568
0.806048
0.807693
0.809498
0.811454
0.813544
0.81574
0.818001
0.820272
0.822468
0.824479
0.826148
0.827268
0.827554
0.826629
0.823991
0.818973
0.810698
0.798022
0.779465
0.75314
0.716695
0.667251
0.601524
0.515665
0.406875
0.271902
0.115782
0.89293
0.892768
0.89235
0.891696
0.890851
0.889842
0.888682
0.887387
0.885973
0.884455
0.882847
0.881161
0.879405
0.877588
0.875718
0.8738
0.871839
0.869839
0.867806
0.865742
0.863651
0.861536
0.859399
0.857244
0.855074
0.852891
0.850699
0.848501
0.8463
0.8441
0.841904
0.839718
0.837543
0.835386
0.833249
0.831138
0.829057
0.82701
0.825
0.823034
0.821113
0.819243
0.817427
0.815668
0.813969
0.812334
0.810766
0.809266
0.807836
0.806479
0.805197
0.803991
0.802862
0.801813
0.800844
0.799959
0.799159
0.798444
0.797815
0.797276
0.796827
0.79647
0.796209
0.796044
0.795979
0.796015
0.796155
0.7964
0.796753
0.797212
0.797778
0.79845
0.799222
0.800088
0.801036
0.802051
0.80311
0.804181
0.805219
0.806167
0.806944
0.807448
0.807539
0.807038
0.805709
0.803246
0.799254
0.793224
0.784504
0.772268
0.755477
0.732838
0.702777
0.663425
0.612634
0.548136
0.467668
0.369838
0.25403
0.122652
0.894819
0.894638
0.894171
0.893442
0.892504
0.891394
0.890129
0.888727
0.887208
0.88559
0.883885
0.882108
0.880267
0.878371
0.876426
0.874438
0.872412
0.870352
0.868261
0.866143
0.864
0.861834
0.859649
0.857447
0.85523
0.853001
0.850763
0.848518
0.846271
0.844024
0.841782
0.839548
0.837326
0.835121
0.832937
0.830778
0.82865
0.826555
0.8245
0.822487
0.820521
0.818606
0.816746
0.814943
0.813202
0.811523
0.809911
0.808367
0.806893
0.805489
0.804158
0.8029
0.801717
0.800608
0.799574
0.798617
0.797737
0.796933
0.796204
0.795552
0.794977
0.794479
0.794056
0.793711
0.793441
0.793247
0.793126
0.793077
0.793097
0.793182
0.793325
0.793518
0.79375
0.794006
0.794266
0.794503
0.794684
0.794764
0.794684
0.794372
0.79373
0.792639
0.790943
0.788445
0.784896
0.77998
0.773302
0.764369
0.752566
0.737142
0.71718
0.691588
0.659087
0.618238
0.567488
0.505313
0.430393
0.342008
0.240244
0.12684
0.896955
0.896748
0.896217
0.895391
0.894338
0.893103
0.891711
0.890184
0.888544
0.886809
0.884996
0.883118
0.881183
0.8792
0.877175
0.875113
0.873018
0.870893
0.868741
0.866565
0.864367
0.862149
0.859912
0.85766
0.855393
0.853115
0.850827
0.848533
0.846236
0.843938
0.841645
0.839359
0.837085
0.834828
0.832592
0.830382
0.828201
0.826056
0.823949
0.821887
0.819872
0.817909
0.816001
0.814151
0.812364
0.81064
0.808983
0.807393
0.805872
0.804421
0.80304
0.80173
0.80049
0.799321
0.798222
0.797194
0.796233
0.795339
0.79451
0.793745
0.793043
0.792401
0.791818
0.791291
0.790816
0.790391
0.790011
0.789669
0.789358
0.789071
0.788795
0.788517
0.788219
0.787878
0.787468
0.786953
0.786288
0.785419
0.784278
0.782777
0.78081
0.778243
0.774911
0.770609
0.765083
0.758019
0.749035
0.737666
0.723351
0.70542
0.683087
0.655447
0.621483
0.580102
0.530196
0.470748
0.400989
0.320633
0.230123
0.131028
0.89937
0.899131
0.898515
0.897562
0.896361
0.894973
0.893429
0.891755
0.889974
0.888108
0.886173
0.884183
0.882146
0.88007
0.877959
0.875818
0.87365
0.871458
0.869243
0.867007
0.864752
0.862479
0.860189
0.857884
0.855566
0.853236
0.850897
0.84855
0.846199
0.843847
0.841498
0.839157
0.836827
0.834513
0.83222
0.829953
0.827716
0.825515
0.823353
0.821237
0.819168
0.817153
0.815194
0.813295
0.811459
0.809688
0.807984
0.806347
0.804778
0.803279
0.801848
0.800485
0.79919
0.797962
0.796798
0.795698
0.794658
0.793675
0.792747
0.79187
0.791042
0.790259
0.789516
0.78881
0.788133
0.78748
0.786843
0.786213
0.785579
0.784928
0.784243
0.783507
0.782695
0.78178
0.780727
0.779493
0.778026
0.776264
0.774128
0.771524
0.768337
0.764427
0.759623
0.753718
0.746461
0.73755
0.726623
0.713252
0.696932
0.677081
0.653032
0.624048
0.58933
0.548058
0.499448
0.442837
0.377808
0.304349
0.223027
0.135141
0.90211
0.901827
0.901097
0.899975
0.898583
0.897004
0.895279
0.893433
0.891491
0.889476
0.887406
0.885295
0.883148
0.880973
0.878771
0.876548
0.874303
0.87204
0.869759
0.867461
0.865147
0.862817
0.860472
0.858112
0.85574
0.853356
0.850962
0.848559
0.846151
0.843741
0.841332
0.83893
0.83654
0.834165
0.83181
0.829482
0.827185
0.824923
0.822702
0.820527
0.818402
0.816331
0.814318
0.812367
0.81048
0.80866
0.806908
0.805223
0.803607
0.802059
0.800578
0.799164
0.797815
0.796529
0.795303
0.794134
0.793017
0.791947
0.790921
0.789935
0.788984
0.788063
0.787166
0.786284
0.785411
0.784537
0.783651
0.782742
0.781795
0.780793
0.779716
0.778541
0.777239
0.775777
0.774115
0.772205
0.769989
0.767396
0.764343
0.76073
0.756438
0.751322
0.745214
0.737908
0.729163
0.71869
0.706155
0.691168
0.673284
0.652
0.62676
0.596965
0.561996
0.521244
0.474161
0.420328
0.359545
0.291937
0.21806
0.13897
0.905237
0.904892
0.904001
0.90265
0.90101
0.899195
0.897253
0.895205
0.893078
0.890897
0.888682
0.88644
0.884179
0.881901
0.879608
0.8773
0.874979
0.872646
0.870299
0.867938
0.865565
0.863178
0.860777
0.858362
0.855934
0.853494
0.851042
0.848581
0.846112
0.843639
0.841165
0.838698
0.836241
0.833799
0.831378
0.828983
0.826619
0.824291
0.822006
0.819767
0.817581
0.81545
0.81338
0.811373
0.809434
0.807563
0.805762
0.80403
0.802366
0.80077
0.79924
0.797776
0.796374
0.795033
0.793749
0.792514
0.791324
0.790171
0.789051
0.78796
0.786891
0.785838
0.784791
0.783741
0.782679
0.781592
0.780468
0.779291
0.778045
0.776709
0.775259
0.773668
0.771905
0.769931
0.767702
0.765165
0.762257
0.758905
0.755019
0.750497
0.745218
0.739039
0.731795
0.723289
0.713289
0.701523
0.687685
0.671427
0.652357
0.630044
0.604026
0.573821
0.538952
0.498972
0.4535
0.402278
0.345235
0.282558
0.214756
0.142698
0.908837
0.908401
0.907274
0.9056
0.903638
0.901539
0.899343
0.897063
0.894725
0.892359
0.889983
0.887602
0.885218
0.882831
0.88044
0.878045
0.875645
0.873238
0.870824
0.8684
0.865966
0.863521
0.861064
0.858594
0.856111
0.853615
0.851106
0.848585
0.846053
0.843513
0.840971
0.838433
0.835905
0.833392
0.8309
0.828433
0.825998
0.8236
0.821245
0.81894
0.816688
0.814494
0.812362
0.810297
0.808302
0.80638
0.804531
0.802752
0.801042
0.799399
0.797823
0.796311
0.794861
0.793469
0.792131
0.790835
0.789574
0.788343
0.787136
0.785947
0.784768
0.78359
0.782402
0.781194
0.779953
0.778667
0.777318
0.77589
0.774363
0.772713
0.770913
0.768934
0.766741
0.764293
0.761542
0.758431
0.754895
0.750857
0.746225
0.740895
0.734747
0.72764
0.719418
0.709898
0.698858
0.686044
0.671177
0.653945
0.634006
0.61099
0.584511
0.554184
0.519646
0.480572
0.436705
0.387883
0.334105
0.275579
0.212761
0.146371
0.913037
0.912463
0.910972
0.908831
0.906443
0.904001
0.901513
0.898971
0.896405
0.893848
0.891312
0.888796
0.886296
0.883805
0.881321
0.878842
0.876365
0.873888
0.871407
0.868921
0.866426
0.863921
0.861405
0.858876
0.856332
0.853775
0.851206
0.848621
0.846019
0.843405
0.840788
0.838173
0.835567
0.832976
0.830404
0.82786
0.825346
0.822871
0.82044
0.818062
0.815741
0.81348
0.811283
0.809158
0.807106
0.805133
0.803236
0.801408
0.79965
0.797962
0.79634
0.794783
0.793287
0.791854
0.790475
0.789127
0.787797
0.786487
0.785197
0.783917
0.782635
0.781339
0.780019
0.778663
0.777256
0.775781
0.774222
0.772561
0.770776
0.768836
0.766715
0.764379
0.761794
0.758915
0.755692
0.752068
0.747973
0.743328
0.738042
0.73201
0.725114
0.717222
0.70819
0.697841
0.68596
0.672317
0.656662
0.638719
0.618186
0.594738
0.568047
0.537803
0.503735
0.465617
0.423282
0.376633
0.325695
0.270673
0.211969
0.150179
0.918032
0.917214
0.91515
0.912351
0.909428
0.906571
0.903722
0.90086
0.898025
0.895251
0.892538
0.889876
0.887255
0.884662
0.882086
0.879526
0.876978
0.874436
0.871896
0.869355
0.866809
0.864256
0.861691
0.859111
0.856517
0.853907
0.851281
0.84863
0.845956
0.843265
0.840569
0.837874
0.835186
0.832511
0.829858
0.827232
0.824635
0.822074
0.81956
0.817102
0.814702
0.812366
0.810097
0.807904
0.805796
0.803782
0.801848
0.799974
0.798168
0.796435
0.794771
0.793167
0.791621
0.790148
0.788745
0.787367
0.785981
0.784603
0.783239
0.781875
0.780501
0.779099
0.777662
0.776174
0.774616
0.772971
0.771215
0.769336
0.767312
0.765106
0.762688
0.760026
0.757083
0.753813
0.750166
0.746081
0.74149
0.736313
0.730452
0.723806
0.716242
0.707665
0.697985
0.686995
0.674466
0.660193
0.643963
0.62553
0.604624
0.580953
0.554236
0.524233
0.490744
0.453612
0.412716
0.367983
0.319465
0.267365
0.212037
0.153976
0.924169
0.922826
0.91974
0.916022
0.912531
0.909284
0.906076
0.902887
0.899795
0.896825
0.893952
0.891154
0.888415
0.885713
0.88304
0.880393
0.877766
0.875148
0.872533
0.869923
0.867311
0.864693
0.862063
0.859418
0.856762
0.854106
0.851432
0.848708
0.845944
0.84316
0.840373
0.837587
0.834805
0.832036
0.82929
0.826577
0.823892
0.821237
0.818632
0.816085
0.8136
0.811183
0.808839
0.806561
0.80437
0.802312
0.800353
0.798448
0.796605
0.794833
0.793136
0.791505
0.789937
0.78843
0.786969
0.785532
0.7841
0.782675
0.781249
0.779812
0.778353
0.77686
0.775318
0.773712
0.772025
0.770232
0.768315
0.76625
0.764011
0.761567
0.758887
0.755939
0.752683
0.749074
0.745061
0.740588
0.73558
0.729974
0.723645
0.716533
0.708412
0.699195
0.688971
0.677487
0.664482
0.649769
0.633169
0.614468
0.593413
0.56967
0.543
0.513248
0.480337
0.444248
0.404799
0.361837
0.315417
0.265762
0.213196
0.158144
0.932101
0.929687
0.924725
0.919549
0.915286
0.911529
0.907877
0.904321
0.900963
0.897797
0.894801
0.891941
0.889134
0.886352
0.883611
0.880915
0.878251
0.875604
0.872959
0.870313
0.867663
0.865002
0.862319
0.859613
0.856875
0.854171
0.851478
0.848699
0.84585
0.842975
0.840097
0.837219
0.834348
0.831488
0.828652
0.825838
0.823047
0.820295
0.817601
0.81497
0.81241
0.809919
0.807507
0.805176
0.802943
0.80082
0.798789
0.796832
0.794953
0.793154
0.791435
0.789787
0.788201
0.786668
0.785176
0.783711
0.782257
0.780802
0.779331
0.777835
0.776301
0.774727
0.773093
0.771387
0.769589
0.767665
0.765605
0.763376
0.760944
0.758284
0.755372
0.752173
0.748645
0.744743
0.740415
0.735603
0.73024
0.72425
0.71754
0.710014
0.701546
0.692042
0.681429
0.669534
0.656163
0.641146
0.62432
0.605517
0.584599
0.561053
0.534608
0.505086
0.472466
0.437152
0.398941
0.357519
0.312894
0.265277
0.214965
0.162329
0.942631
0.93795
0.930475
0.924063
0.919158
0.914766
0.910513
0.906521
0.902838
0.899382
0.896172
0.893242
0.89036
0.887469
0.884622
0.881833
0.879087
0.876369
0.873664
0.870953
0.86824
0.865523
0.862795
0.860051
0.85729
0.854519
0.851713
0.848831
0.84588
0.8429
0.839918
0.836937
0.833959
0.83099
0.828039
0.825104
0.822203
0.819357
0.816574
0.813857
0.811213
0.80864
0.806145
0.803743
0.801445
0.799254
0.797165
0.795171
0.793268
0.791453
0.789721
0.788062
0.786467
0.784923
0.783417
0.781933
0.780458
0.778976
0.777476
0.775946
0.774374
0.772741
0.771035
0.769245
0.767348
0.765327
0.763152
0.760813
0.75824
0.755412
0.752315
0.748916
0.745173
0.741038
0.736463
0.731391
0.725756
0.719484
0.712491
0.704685
0.695964
0.686219
0.675332
0.663168
0.649583
0.63442
0.617501
0.598648
0.577676
0.554295
0.528272
0.499466
0.467823
0.433389
0.396074
0.355774
0.312514
0.266447
0.217833
0.16703
0.957941
0.944471
0.931851
0.925181
0.920463
0.915796
0.911215
0.907056
0.903345
0.899951
0.896777
0.893772
0.890843
0.887954
0.885115
0.882326
0.879572
0.876837
0.874111
0.871386
0.868657
0.865921
0.863178
0.860417
0.857636
0.854822
0.851956
0.848987
0.845926
0.842843
0.839763
0.83668
0.833595
0.830516
0.827455
0.82442
0.821425
0.818483
0.815603
0.812794
0.810078
0.807442
0.80488
0.802421
0.800079
0.797852
0.795735
0.793726
0.791818
0.790005
0.788278
0.78663
0.785049
0.783519
0.782025
0.780549
0.77908
0.777596
0.776092
0.774544
0.772962
0.771327
0.769583
0.767751
0.765799
0.763705
0.761448
0.759012
0.756357
0.753437
0.750229
0.746703
0.742821
0.738535
0.733798
0.728557
0.722748
0.716298
0.709129
0.701151
0.692265
0.682362
0.671321
0.659013
0.645299
0.630028
0.613034
0.594139
0.573158
0.549896
0.524165
0.495817
0.464752
0.430915
0.394308
0.354923
0.312729
0.267794
0.220332
0.170793
0.993374
0.959513
0.937378
0.928396
0.923253
0.918071
0.912982
0.908476
0.904571
0.90104
0.897729
0.894582
0.891556
0.88861
0.885723
0.882884
0.880082
0.877303
0.874536
0.871772
0.869005
0.866231
0.863448
0.860653
0.857845
0.85503
0.852173
0.849133
0.845945
0.842772
0.839626
0.836483
0.833339
0.830207
0.827095
0.824014
0.820974
0.817986
0.815063
0.812215
0.809452
0.80678
0.804207
0.801742
0.799391
0.797155
0.795033
0.793023
0.791119
0.789315
0.787601
0.785966
0.784398
0.782882
0.781406
0.77995
0.7785
0.777037
0.775547
0.774007
0.772416
0.77077
0.769045
0.767223
0.765287
0.763209
0.760965
0.75852
0.755855
0.752935
0.749727
0.746198
0.742309
0.738017
0.733272
0.728018
0.722194
0.715729
0.708546
0.700556
0.691661
0.681754
0.670717
0.65842
0.644725
0.629481
0.612526
0.593689
0.572792
0.549655
0.524099
0.495962
0.465117
0.431478
0.395154
0.356211
0.314515
0.270083
0.223142
0.174085
-2.07677
-1.35425
-1.12262
-1.17804
-1.1556
-1.14146
-1.13735
-1.14188
-1.15061
-1.16135
-1.17078
-1.17495
-1.17132
-1.16156
-1.14729
-1.12906
-1.1066
-1.0786
-1.04464
-1.00622
-0.966294
-0.930076
-0.904087
-0.893226
-0.900171
-0.92959
-0.983706
-0.726877
-0.970832
-1.09211
-1.12639
-1.10548
-1.11473
-1.13491
-1.14626
-1.15405
-1.16363
-1.17524
-1.1833
-1.1818
-1.17038
-1.15239
-1.13231
-1.10933
-1.08204
-1.0487
-1.00861
-0.964288
-0.921044
-0.88493
-0.864456
-0.875456
-0.911302
-0.973979
-0.312198
-0.726019
-0.953688
-1.05076
-1.09398
-1.11135
-1.1176
-1.12361
-1.13582
-1.1571
-1.18224
-1.19831
-1.19605
-1.17852
-1.15907
-1.14222
-1.1234
-1.09723
-1.06129
-1.0157
-0.964268
-0.9136
-0.872049
-0.85226
-0.859846
-0.896605
-0.966504
-0.216282
-0.530444
-0.723474
-0.840343
-0.93996
-1.01008
-1.05519
-1.0887
-1.11769
-1.14574
-1.17017
-1.18467
-1.18722
-1.17824
-1.16281
-1.14373
-1.11923
-1.08872
-1.05134
-1.00505
-0.95263
-0.899465
-0.853464
-0.825199
-0.830024
-0.877938
-0.953922
-0.125301
-0.346727
-0.514459
-0.649843
-0.767673
-0.855638
-0.922891
-0.975706
-1.0183
-1.05467
-1.08497
-1.10593
-1.11564
-1.11366
-1.10315
-1.08644
-1.0657
-1.0411
-1.0103
-0.972641
-0.932154
-0.894782
-0.867234
-0.856918
-0.865795
-0.904456
-0.965967
-0.0585483
-0.234932
-0.39003
-0.517474
-0.626837
-0.718754
-0.795996
-0.860492
-0.909818
-0.950061
-0.98614
-1.01323
-1.02931
-1.03532
-1.03386
-1.02646
-1.01391
-0.996144
-0.97289
-0.945591
-0.916871
-0.89166
-0.873013
-0.864227
-0.871615
-0.901016
-0.949039
-0.0210397
-0.168677
-0.304799
-0.421318
-0.522245
-0.611252
-0.687095
-0.75185
-0.806436
-0.852476
-0.892192
-0.923621
-0.943957
-0.955782
-0.962056
-0.961956
-0.955847
-0.94448
-0.929133
-0.911371
-0.893207
-0.878261
-0.86785
-0.865468
-0.874975
-0.895203
-0.924935
0.00526406
-0.118642
-0.236292
-0.342789
-0.438029
-0.523037
-0.597735
-0.661908
-0.718395
-0.76675
-0.807437
-0.840587
-0.865534
-0.883079
-0.894323
-0.900512
-0.901208
-0.896857
-0.889382
-0.880213
-0.871046
-0.862875
-0.857131
-0.856279
-0.863009
-0.877494
-0.896885
0.0261658
-0.0805866
-0.184177
-0.281011
-0.37007
-0.450942
-0.523538
-0.587422
-0.643905
-0.69294
-0.734843
-0.769889
-0.798169
-0.819801
-0.83556
-0.84612
-0.851802
-0.853423
-0.852017
-0.848656
-0.844638
-0.840745
-0.838682
-0.840246
-0.846307
-0.85644
-0.869153
0.0427792
-0.0513815
-0.14397
-0.232176
-0.314768
-0.391066
-0.460738
-0.523428
-0.579481
-0.628923
-0.671892
-0.708633
-0.739153
-0.763732
-0.782889
-0.797195
-0.807186
-0.813435
-0.816666
-0.81787
-0.818073
-0.817974
-0.818772
-0.821627
-0.826655
-0.83361
-0.841637
0.0562523
-0.0281203
-0.111762
-0.192562
-0.269335
-0.341311
-0.407963
-0.468874
-0.524018
-0.573367
-0.616936
-0.654854
-0.687181
-0.714159
-0.736158
-0.75364
-0.767052
-0.776873
-0.783779
-0.788584
-0.791966
-0.794557
-0.797299
-0.800799
-0.805114
-0.810115
-0.81523
0.0676135
-0.00900614
-0.0854181
-0.160008
-0.231711
-0.299739
-0.36348
-0.422475
-0.476515
-0.525473
-0.569292
-0.608013
-0.64169
-0.670491
-0.694697
-0.714655
-0.730747
-0.743407
-0.753209
-0.760759
-0.766561
-0.771203
-0.775383
-0.779408
-0.783322
-0.787062
-0.790253
0.0773789
0.00693375
-0.0636399
-0.133062
-0.200394
-0.264896
-0.325943
-0.383051
-0.435911
-0.484321
-0.528162
-0.567403
-0.602058
-0.632239
-0.658152
-0.680059
-0.698271
-0.713172
-0.725213
-0.734876
-0.742569
-0.748755
-0.753953
-0.758364
-0.762017
-0.76491
-0.766832
0.0860822
0.0205919
-0.0452499
-0.110399
-0.174034
-0.235482
-0.294133
-0.349493
-0.4012
-0.449001
-0.492724
-0.532279
-0.567643
-0.598873
-0.626105
-0.649539
-0.66941
-0.686037
-0.699802
-0.711078
-0.720218
-0.727556
-0.733471
-0.738161
-0.741651
-0.743973
-0.745042
0.0938217
0.0323145
-0.0296993
-0.0913581
-0.151925
-0.210793
-0.267381
-0.321188
-0.371836
-0.419022
-0.462552
-0.502278
-0.538147
-0.57016
-0.598391
-0.622968
-0.6441
-0.662049
-0.677129
-0.689618
-0.699814
-0.70798
-0.714381
-0.719228
-0.72257
-0.724454
-0.724885
0.101142
0.0428055
-0.0161437
-0.0750002
-0.133092
-0.189858
-0.244742
-0.297257
-0.346995
-0.393654
-0.436989
-0.476823
-0.513092
-0.545711
-0.574785
-0.600207
-0.622185
-0.641118
-0.65728
-0.670701
-0.681668
-0.690395
-0.697105
-0.701991
-0.705153
-0.706648
-0.706539
0.107833
0.0519946
-0.00454779
-0.0612088
-0.117331
-0.172426
-0.225941
-0.277381
-0.326394
-0.37257
-0.415737
-0.455609
-0.492143
-0.525241
-0.55493
-0.581123
-0.603628
-0.623078
-0.639911
-0.654124
-0.665618
-0.674652
-0.681487
-0.68628
-0.689164
-0.690231
-0.689589
0.114441
0.0604945
0.00570166
-0.0493553
-0.10412
-0.158019
-0.210577
-0.261293
-0.309789
-0.35571
-0.398778
-0.438767
-0.475472
-0.508876
-0.53884
-0.565492
-0.588823
-0.609061
-0.626422
-0.64103
-0.652819
-0.66198
-0.668754
-0.673312
-0.675791
-0.676331
-0.675098
0.119612
0.0670767
0.013603
-0.0402732
-0.0939972
-0.147025
-0.198861
-0.249033
-0.297134
-0.342828
-0.385861
-0.425957
-0.46285
-0.496521
-0.526811
-0.553731
-0.577529
-0.598171
-0.615739
-0.630428
-0.642297
-0.651449
-0.658042
-0.662254
-0.664228
-0.664142
-0.662238
0.123333
0.071246
0.0182287
-0.0352235
-0.0885783
-0.141311
-0.192923
-0.242953
-0.290978
-0.33663
-0.379579
-0.419667
-0.456595
-0.490478
-0.521466
-0.549037
-0.573072
-0.593819
-0.611473
-0.626137
-0.638
-0.647166
-0.653734
-0.65784
-0.659611
-0.659268
-0.657137
0.883614
0.883519
0.883274
0.882887
0.882377
0.881752
0.881012
0.88016
0.879202
0.878143
0.883621
0.883526
0.883281
0.882894
0.882384
0.881758
0.881019
0.880168
0.879209
0.878151
0.876997
0.875755
0.87443
0.873027
0.871553
0.870013
0.868414
0.866759
0.865054
0.863305
0.861517
0.859693
0.857839
0.855959
0.854057
0.852138
0.850207
0.848266
0.846321
0.844376
0.842435
0.840502
0.838581
0.836675
0.83479
0.832929
0.831096
0.829295
0.827532
0.825809
0.824131
0.822502
0.820927
0.819409
0.817954
0.816566
0.81525
0.81401
0.812852
0.811781
0.810802
0.809922
0.809148
0.808486
0.807944
0.807532
0.807257
0.807135
0.807156
0.807352
0.807746
0.808348
0.80917
0.810235
0.811565
0.81319
0.815138
0.817443
0.820145
0.823287
0.826919
0.831099
0.835893
0.841376
0.847633
0.854765
0.862887
0.87213
0.882648
0.89462
0.908254
0.923793
0.941521
0.961772
0.984939
1.01148
1.04195
1.07696
1.11727
1.1637
1.21721
1.27877
1.34933
1.42957
1.51954
1.61794
1.72106
1.8214
1.90595
1.95789
0.883756
0.88366
0.883413
0.883024
0.88251
0.881881
0.881136
0.88028
0.879316
0.878252
0.877093
0.875845
0.874514
0.873106
0.871626
0.870081
0.868476
0.866817
0.865108
0.863354
0.861561
0.859733
0.857875
0.855991
0.854086
0.852164
0.850229
0.848285
0.846338
0.844389
0.842446
0.84051
0.838586
0.836677
0.83479
0.832926
0.831091
0.829288
0.827522
0.825797
0.824117
0.822486
0.820909
0.81939
0.817933
0.816544
0.815226
0.813984
0.812824
0.811751
0.81077
0.809888
0.809111
0.808447
0.807902
0.807486
0.807206
0.807073
0.807088
0.807279
0.807665
0.808255
0.809064
0.810113
0.811427
0.81303
0.814954
0.81723
0.819898
0.823
0.826586
0.830711
0.835441
0.840848
0.847016
0.854042
0.862038
0.871132
0.881472
0.89323
0.906606
0.921832
0.93918
0.958966
0.981559
1.00739
1.03697
1.07088
1.10979
1.15446
1.20574
1.26449
1.33152
1.40742
1.49215
1.5845
1.68104
1.77491
1.85405
1.90231
0.88402
0.883923
0.883673
0.883277
0.882756
0.882118
0.881365
0.880497
0.879523
0.878447
0.877276
0.876016
0.874673
0.873253
0.871763
0.870207
0.868591
0.866921
0.865203
0.86344
0.861638
0.859801
0.857934
0.856043
0.854129
0.8522
0.850257
0.848306
0.846351
0.844395
0.842445
0.840502
0.838571
0.836656
0.834762
0.832891
0.83105
0.829241
0.827469
0.825737
0.824051
0.822415
0.820831
0.819306
0.817844
0.816448
0.815123
0.813875
0.812708
0.811628
0.81064
0.809749
0.808963
0.808288
0.807732
0.807301
0.807005
0.806848
0.806845
0.807019
0.80738
0.80794
0.808715
0.809726
0.810994
0.812546
0.81441
0.816618
0.819206
0.822216
0.825696
0.829697
0.834283
0.839522
0.845494
0.85229
0.860014
0.868788
0.878747
0.890052
0.902886
0.91746
0.934019
0.952845
0.974263
0.99865
1.02643
1.0581
1.09421
1.13534
1.18215
1.23524
1.29514
1.36212
1.43587
1.51507
1.59657
1.67442
1.73774
1.77303
0.884415
0.884315
0.88406
0.883656
0.883124
0.882473
0.881704
0.880821
0.879829
0.878735
0.877547
0.876269
0.874908
0.873471
0.871963
0.87039
0.868758
0.867073
0.865339
0.863562
0.861746
0.859896
0.858016
0.856112
0.854186
0.852244
0.85029
0.848327
0.846361
0.844394
0.842433
0.840479
0.838537
0.836612
0.834706
0.832826
0.830974
0.829154
0.827372
0.82563
0.823934
0.822287
0.820694
0.819159
0.817685
0.816279
0.814944
0.813684
0.812505
0.811412
0.81041
0.809505
0.808703
0.808009
0.807432
0.806977
0.806653
0.806467
0.806437
0.806577
0.806896
0.807408
0.808128
0.809077
0.810275
0.811745
0.813516
0.815617
0.818082
0.82095
0.824265
0.828077
0.832443
0.837426
0.8431
0.849548
0.856864
0.865156
0.874548
0.885178
0.897208
0.910818
0.926216
0.943635
0.963339
0.985622
1.01081
1.03925
1.07132
1.10738
1.14777
1.1927
1.24221
1.29593
1.35284
1.41067
1.46529
1.50807
1.52569
1.47809
0.884943
0.884841
0.884578
0.884162
0.883615
0.882946
0.882157
0.881252
0.880236
0.879119
0.877905
0.876603
0.875218
0.873756
0.872225
0.87063
0.868977
0.86727
0.865516
0.863719
0.861885
0.860017
0.85812
0.856198
0.854256
0.852298
0.850328
0.84835
0.846368
0.844386
0.842409
0.84044
0.838484
0.836543
0.834623
0.832728
0.830862
0.829028
0.827231
0.825475
0.823765
0.822104
0.820496
0.818946
0.817459
0.816037
0.814686
0.813411
0.812215
0.811104
0.810083
0.809156
0.808331
0.807612
0.807006
0.806518
0.806159
0.805936
0.805864
0.805954
0.806217
0.806663
0.80731
0.808175
0.809278
0.810639
0.812285
0.814243
0.816543
0.819223
0.82232
0.825881
0.829956
0.834603
0.839886
0.845877
0.85266
0.860327
0.868981
0.87874
0.889735
0.90211
0.916027
0.93166
0.949197
0.968838
0.99078
1.01521
1.04229
1.07209
1.10456
1.13943
1.176
1.21291
1.24772
1.27578
1.29022
1.2728
1.22031
0.933139
)
;

boundaryField
{
    inlet
    {
        type            zeroGradient;
    }
    outlet
    {
        type            fixedValue;
        value           nonuniform List<scalar> 0();
    }
    topWall
    {
        type            zeroGradient;
    }
    lowerWall
    {
        type            zeroGradient;
    }
    leadingEdge
    {
        type            zeroGradient;
    }
    trailingEdge
    {
        type            zeroGradient;
    }
    upperSurface
    {
        type            zeroGradient;
    }
    lowerSurface
    {
        type            zeroGradient;
    }
    frontAndBack
    {
        type            empty;
    }
    procBoundary4to0
    {
        type            processor;
        value           nonuniform List<scalar> 
101
(
0.883736
0.88364
0.883394
0.883003
0.882489
0.88186
0.881115
0.880258
0.879294
0.878229
0.876989
0.876989
0.875747
0.874421
0.873018
0.871544
0.870004
0.868403
0.866748
0.865043
0.863294
0.861504
0.85968
0.857825
0.855944
0.854042
0.852122
0.85019
0.848248
0.846302
0.844356
0.842414
0.84048
0.838557
0.83665
0.834763
0.8329
0.831066
0.829264
0.827498
0.825773
0.824093
0.822462
0.820884
0.819365
0.817907
0.816516
0.815197
0.813954
0.812792
0.811717
0.810735
0.809851
0.809072
0.808406
0.80786
0.807443
0.807162
0.807028
0.807042
0.807235
0.807623
0.808217
0.809031
0.810086
0.811408
0.813022
0.814959
0.817253
0.819942
0.82307
0.826688
0.830852
0.835629
0.841092
0.847329
0.854439
0.862535
0.871751
0.882239
0.894178
0.907775
0.923273
0.940954
0.961153
0.984261
1.01074
1.04112
1.07605
1.11625
1.16257
1.21593
1.27733
1.34769
1.42771
1.51741
1.61549
1.71824