/*--------------------------------*- C++ -*----------------------------------*\
| =========                 |                                                 |
| \\      /  F ield         | OpenFOAM: The Open Source CFD Toolbox           |
|  \\    /   O peration     | Version:  2206                                  |
|   \\  /    A nd           | Website:  www.openfoam.com                      |
|    \\/     M anipulation  |                                                 |
\*---------------------------------------------------------------------------*/
FoamFile
{
    version     2.0;
    format      ascii;
    arch        "LSB;label=32;scalar=64";
    class       volVectorField;
    location    "18.0999";
    object      U;
}
// * * * * * * * * * * * * * * * * * * * * * * * * * * * * * * * * * * * * * //

dimensions      [0 1 -1 0 0 0 0];

internalField   nonuniform List<vector> 
3050
(
(1.47762 -0.000242824 0)
(1.4777 -0.000727035 0)
(1.47789 -0.00120611 0)
(1.47818 -0.00167591 0)
(1.47856 -0.00213299 0)
(1.47903 -0.00257463 0)
(1.47959 -0.00299859 0)
(1.48022 -0.00340311 0)
(1.48093 -0.00378686 0)
(1.4817 -0.00414901 0)
(1.48255 -0.00448911 0)
(1.48345 -0.00480704 0)
(1.48441 -0.00510291 0)
(1.48542 -0.00537702 0)
(1.48647 -0.00562979 0)
(1.48756 -0.00586171 0)
(1.4887 -0.00607331 0)
(1.48987 -0.00626511 0)
(1.49106 -0.00643761 0)
(1.49229 -0.00659129 0)
(1.49354 -0.00672656 0)
(1.49481 -0.00684379 0)
(1.4961 -0.0069433 0)
(1.4974 -0.00702535 0)
(1.49872 -0.00709018 0)
(1.50004 -0.00713798 0)
(1.50138 -0.00716892 0)
(1.50271 -0.00718314 0)
(1.50405 -0.00718077 0)
(1.50539 -0.00716196 0)
(1.50672 -0.00712682 0)
(1.50805 -0.00707548 0)
(1.50937 -0.00700812 0)
(1.51068 -0.00692487 0)
(1.51197 -0.00682598 0)
(1.51325 -0.00671154 0)
(1.51451 -0.00658185 0)
(1.51574 -0.00643697 0)
(1.51695 -0.0062772 0)
(1.51814 -0.00610253 0)
(1.51929 -0.00591322 0)
(1.52041 -0.00570913 0)
(1.5215 -0.00549043 0)
(1.52255 -0.00525679 0)
(1.52356 -0.00500821 0)
(1.52452 -0.00474406 0)
(1.52544 -0.00446414 0)
(1.52631 -0.0041674 0)
(1.52713 -0.00385335 0)
(1.5279 -0.00352042 0)
(1.5286 -0.00316779 0)
(1.52925 -0.0027931 0)
(1.52984 -0.00239548 0)
(1.53036 -0.0019712 0)
(1.5308 -0.00152026 0)
(1.53117 -0.0010365 0)
(1.53146 -0.000521875 0)
(1.53167 3.35314e-05 0)
(1.53179 0.000632166 0)
(1.5318 0.00127932 0)
(1.53172 0.00198108 0)
(1.53151 0.0027442 0)
(1.53119 0.00357632 0)
(1.53074 0.00448622 0)
(1.53014 0.00548393 0)
(1.52938 0.00658091 0)
(1.52845 0.00779028 0)
(1.52734 0.00912711 0)
(1.52601 0.0106087 0)
(1.52446 0.0122552 0)
(1.52266 0.0140895 0)
(1.52057 0.0161386 0)
(1.51818 0.0184337 0)
(1.51544 0.0210114 0)
(1.51232 0.0239143 0)
(1.50876 0.027193 0)
(1.50473 0.0309069 0)
(1.50015 0.0351267 0)
(1.49498 0.0399367 0)
(1.48913 0.045438 0)
(1.48251 0.0517522 0)
(1.47504 0.0590268 0)
(1.46661 0.0674414 0)
(1.4571 0.0772164 0)
(1.44637 0.0886236 0)
(1.43428 0.102001 0)
(1.42067 0.117771 0)
(1.40536 0.136469 0)
(1.38819 0.158776 0)
(1.36896 0.18557 0)
(1.34754 0.217996 0)
(1.32378 0.257583 0)
(1.29774 0.30637 0)
(1.26928 0.367312 0)
(1.23999 0.444354 0)
(1.20697 0.544738 0)
(1.18977 0.675961 0)
(1.14107 0.867186 0)
(1.3057 1.10394 0)
(1.17306 1.65424 0)
(1.47762 -0.000292709 0)
(1.4777 -0.000876277 0)
(1.4779 -0.00145323 0)
(1.47821 -0.00201827 0)
(1.47861 -0.00256705 0)
(1.4791 -0.00309618 0)
(1.47967 -0.00360296 0)
(1.48033 -0.00408527 0)
(1.48106 -0.00454164 0)
(1.48187 -0.0049712 0)
(1.48274 -0.00537358 0)
(1.48367 -0.00574879 0)
(1.48465 -0.00609714 0)
(1.48568 -0.00641916 0)
(1.48676 -0.00671551 0)
(1.48788 -0.00698692 0)
(1.48904 -0.00723414 0)
(1.49023 -0.00745793 0)
(1.49145 -0.00765899 0)
(1.49269 -0.00783796 0)
(1.49396 -0.00799541 0)
(1.49525 -0.00813185 0)
(1.49656 -0.0082477 0)
(1.49788 -0.00834333 0)
(1.49921 -0.00841902 0)
(1.50056 -0.00847502 0)
(1.50191 -0.00851153 0)
(1.50326 -0.00852872 0)
(1.50462 -0.00852673 0)
(1.50597 -0.00850569 0)
(1.50732 -0.00846571 0)
(1.50867 -0.0084069 0)
(1.51 -0.00832945 0)
(1.51133 -0.00823348 0)
(1.51264 -0.00811921 0)
(1.51393 -0.00798677 0)
(1.51521 -0.0078364 0)
(1.51646 -0.00766825 0)
(1.51769 -0.00748252 0)
(1.51889 -0.00727934 0)
(1.52006 -0.00705882 0)
(1.5212 -0.00682103 0)
(1.5223 -0.00656593 0)
(1.52337 -0.00629341 0)
(1.5244 -0.00600326 0)
(1.52538 -0.00569504 0)
(1.52632 -0.00536832 0)
(1.52721 -0.00502219 0)
(1.52805 -0.00465596 0)
(1.52884 -0.004268 0)
(1.52957 -0.00385746 0)
(1.53024 -0.00342172 0)
(1.53085 -0.00295978 0)
(1.5314 -0.002468 0)
(1.53188 -0.00194501 0)
(1.53229 -0.00138664 0)
(1.53262 -0.000789897 0)
(1.53287 -0.000148508 0)
(1.53303 0.000541859 0)
(1.5331 0.00128733 0)
(1.53308 0.00209468 0)
(1.53295 0.00297148 0)
(1.5327 0.0039264 0)
(1.53233 0.00496935 0)
(1.53183 0.00611166 0)
(1.53119 0.00736627 0)
(1.53039 0.00874796 0)
(1.52941 0.0102737 0)
(1.52825 0.0119628 0)
(1.52689 0.0138378 0)
(1.5253 0.0159245 0)
(1.52346 0.0182526 0)
(1.52135 0.020857 0)
(1.51893 0.0237779 0)
(1.51618 0.0270624 0)
(1.51305 0.0307657 0)
(1.50952 0.0349529 0)
(1.50552 0.0397005 0)
(1.50102 0.0450996 0)
(1.49596 0.0512583 0)
(1.49028 0.0583061 0)
(1.48391 0.0663987 0)
(1.47678 0.0757242 0)
(1.46883 0.0865106 0)
(1.45997 0.0990367 0)
(1.45014 0.113645 0)
(1.43927 0.130758 0)
(1.42731 0.150902 0)
(1.41426 0.174737 0)
(1.40017 0.203098 0)
(1.38518 0.237051 0)
(1.36961 0.277975 0)
(1.35418 0.327677 0)
(1.33968 0.388596 0)
(1.32962 0.463972 0)
(1.32397 0.558606 0)
(1.34357 0.677389 0)
(1.36784 0.832227 0)
(1.49661 0.996287 0)
(1.63866 1.33217 0)
(1.47762 -0.00034522 0)
(1.47771 -0.00103331 0)
(1.47792 -0.00171301 0)
(1.47824 -0.00237767 0)
(1.47866 -0.00302188 0)
(1.47918 -0.0036415 0)
(1.47978 -0.00423335 0)
(1.48047 -0.00479503 0)
(1.48123 -0.00532498 0)
(1.48207 -0.00582238 0)
(1.48297 -0.00628702 0)
(1.48393 -0.00671915 0)
(1.48495 -0.00711936 0)
(1.48601 -0.0074885 0)
(1.48712 -0.00782752 0)
(1.48826 -0.00813746 0)
(1.48945 -0.00841934 0)
(1.49066 -0.00867418 0)
(1.49191 -0.0089029 0)
(1.49318 -0.00910634 0)
(1.49447 -0.00928525 0)
(1.49578 -0.00944026 0)
(1.49711 -0.00957192 0)
(1.49845 -0.00968067 0)
(1.49981 -0.00976687 0)
(1.50117 -0.0098308 0)
(1.50254 -0.00987269 0)
(1.50391 -0.0098927 0)
(1.50529 -0.009891 0)
(1.50666 -0.00986767 0)
(1.50803 -0.00982282 0)
(1.5094 -0.00975657 0)
(1.51075 -0.00966903 0)
(1.5121 -0.00956038 0)
(1.51343 -0.00943075 0)
(1.51474 -0.00928036 0)
(1.51604 -0.00910934 0)
(1.51731 -0.00891798 0)
(1.51856 -0.00870634 0)
(1.51978 -0.00847473 0)
(1.52097 -0.00822313 0)
(1.52213 -0.00795178 0)
(1.52325 -0.00766052 0)
(1.52434 -0.00734943 0)
(1.52539 -0.00701812 0)
(1.52639 -0.0066664 0)
(1.52735 -0.00629356 0)
(1.52826 -0.00589899 0)
(1.52913 -0.00548159 0)
(1.52994 -0.00504021 0)
(1.5307 -0.00457314 0)
(1.5314 -0.00407879 0)
(1.53204 -0.00355443 0)
(1.53262 -0.00299838 0)
(1.53314 -0.00240621 0)
(1.53359 -0.0017768 0)
(1.53396 -0.0011026 0)
(1.53426 -0.000380131 0)
(1.53448 0.000396401 0)
(1.53461 0.00123368 0)
(1.53465 0.00213905 0)
(1.5346 0.00312087 0)
(1.53444 0.00418867 0)
(1.53417 0.00535336 0)
(1.53378 0.00662734 0)
(1.53326 0.00802474 0)
(1.5326 0.00956169 0)
(1.53179 0.0112566 0)
(1.53081 0.0131307 0)
(1.52965 0.0152082 0)
(1.5283 0.0175169 0)
(1.52673 0.0200891 0)
(1.52492 0.0229619 0)
(1.52286 0.0261784 0)
(1.52052 0.0297886 0)
(1.51786 0.033851 0)
(1.51487 0.0384339 0)
(1.5115 0.0436174 0)
(1.50773 0.0494959 0)
(1.50353 0.056181 0)
(1.49884 0.0638048 0)
(1.49364 0.0725248 0)
(1.48789 0.0825293 0)
(1.48157 0.0940439 0)
(1.47465 0.107341 0)
(1.46714 0.122748 0)
(1.45905 0.140666 0)
(1.45045 0.161581 0)
(1.44146 0.186087 0)
(1.43233 0.214915 0)
(1.42343 0.248963 0)
(1.41538 0.289329 0)
(1.40926 0.33737 0)
(1.40652 0.394656 0)
(1.4103 0.463141 0)
(1.42336 0.544332 0)
(1.45496 0.639745 0)
(1.50868 0.750463 0)
(1.59136 0.845038 0)
(1.76773 1.0208 0)
(1.47762 -0.000401006 0)
(1.47772 -0.00120007 0)
(1.47794 -0.00198855 0)
(1.47828 -0.00275818 0)
(1.47873 -0.00350229 0)
(1.47928 -0.00421591 0)
(1.47991 -0.00489539 0)
(1.48064 -0.00553814 0)
(1.48144 -0.0061426 0)
(1.48231 -0.00670811 0)
(1.48325 -0.00723478 0)
(1.48425 -0.0077232 0)
(1.4853 -0.00817438 0)
(1.4864 -0.00858955 0)
(1.48754 -0.00897006 0)
(1.48872 -0.0093173 0)
(1.48993 -0.00963264 0)
(1.49118 -0.00991738 0)
(1.49245 -0.0101727 0)
(1.49375 -0.0103996 0)
(1.49506 -0.0105991 0)
(1.4964 -0.010772 0)
(1.49775 -0.0109188 0)
(1.49912 -0.0110402 0)
(1.5005 -0.0111365 0)
(1.50188 -0.0112081 0)
(1.50328 -0.0112551 0)
(1.50467 -0.0112779 0)
(1.50607 -0.0112764 0)
(1.50747 -0.0112507 0)
(1.50886 -0.011201 0)
(1.51025 -0.0111273 0)
(1.51163 -0.0110297 0)
(1.51299 -0.0109084 0)
(1.51435 -0.0107634 0)
(1.51568 -0.010595 0)
(1.517 -0.0104034 0)
(1.51829 -0.0101888 0)
(1.51956 -0.0099513 0)
(1.52081 -0.0096912 0)
(1.52202 -0.00940864 0)
(1.5232 -0.00910374 0)
(1.52435 -0.00877656 0)
(1.52546 -0.00842706 0)
(1.52653 -0.00805504 0)
(1.52756 -0.00766024 0)
(1.52854 -0.00724203 0)
(1.52948 -0.0067999 0)
(1.53037 -0.00633249 0)
(1.53121 -0.0058391 0)
(1.532 -0.00531735 0)
(1.53273 -0.00476629 0)
(1.53341 -0.00418248 0)
(1.53403 -0.00356434 0)
(1.53458 -0.00290768 0)
(1.53507 -0.0022093 0)
(1.5355 -0.00146345 0)
(1.53585 -0.000665435 0)
(1.53612 0.000190999 0)
(1.53632 0.0011128 0)
(1.53644 0.00210791 0)
(1.53647 0.0031853 0)
(1.5364 0.00435521 0)
(1.53624 0.00562929 0)
(1.53597 0.00702079 0)
(1.53558 0.0085448 0)
(1.53508 0.0102185 0)
(1.53444 0.0120614 0)
(1.53366 0.014096 0)
(1.53273 0.0163479 0)
(1.53163 0.0188463 0)
(1.53035 0.021625 0)
(1.52888 0.0247227 0)
(1.52719 0.0281842 0)
(1.52528 0.0320613 0)
(1.52313 0.0364138 0)
(1.52071 0.0413114 0)
(1.518 0.0468355 0)
(1.515 0.0530807 0)
(1.51168 0.0601583 0)
(1.50802 0.0681987 0)
(1.50403 0.0773557 0)
(1.49969 0.0878104 0)
(1.49501 0.0997774 0)
(1.49004 0.113511 0)
(1.48481 0.129313 0)
(1.47943 0.14754 0)
(1.47404 0.168618 0)
(1.46888 0.19305 0)
(1.46429 0.221426 0)
(1.4608 0.254435 0)
(1.45918 0.292856 0)
(1.46056 0.337555 0)
(1.46654 0.389349 0)
(1.47946 0.449005 0)
(1.50252 0.516602 0)
(1.53904 0.590723 0)
(1.59853 0.673004 0)
(1.67284 0.738509 0)
(1.79948 0.834525 0)
(1.47762 -0.000460867 0)
(1.47773 -0.00137888 0)
(1.47796 -0.0022836 0)
(1.47833 -0.00316469 0)
(1.47881 -0.00401399 0)
(1.4794 -0.00482564 0)
(1.48008 -0.00559557 0)
(1.48084 -0.0063211 0)
(1.48169 -0.00700085 0)
(1.48261 -0.00763453 0)
(1.48359 -0.00822266 0)
(1.48463 -0.0087664 0)
(1.48572 -0.00926726 0)
(1.48686 -0.009727 0)
(1.48804 -0.0101475 0)
(1.48925 -0.0105305 0)
(1.4905 -0.0108778 0)
(1.49178 -0.011191 0)
(1.49308 -0.0114716 0)
(1.49441 -0.0117209 0)
(1.49576 -0.01194 0)
(1.49712 -0.0121299 0)
(1.4985 -0.0122912 0)
(1.4999 -0.0124247 0)
(1.5013 -0.0125307 0)
(1.50271 -0.0126095 0)
(1.50413 -0.0126616 0)
(1.50555 -0.0126868 0)
(1.50697 -0.0126855 0)
(1.5084 -0.0126575 0)
(1.50981 -0.012603 0)
(1.51123 -0.0125219 0)
(1.51263 -0.0124143 0)
(1.51402 -0.0122803 0)
(1.5154 -0.0121201 0)
(1.51676 -0.0119338 0)
(1.5181 -0.0117216 0)
(1.51942 -0.0114838 0)
(1.52072 -0.0112205 0)
(1.52199 -0.010932 0)
(1.52323 -0.0106185 0)
(1.52443 -0.0102802 0)
(1.52561 -0.00991727 0)
(1.52674 -0.00952963 0)
(1.52784 -0.00911732 0)
(1.52889 -0.00867995 0)
(1.5299 -0.00821721 0)
(1.53087 -0.00772832 0)
(1.53179 -0.00721243 0)
(1.53266 -0.00666816 0)
(1.53348 -0.00609416 0)
(1.53425 -0.00548806 0)
(1.53496 -0.00484817 0)
(1.53561 -0.00417053 0)
(1.53621 -0.0034535 0)
(1.53675 -0.00269054 0)
(1.53722 -0.00187803 0)
(1.53763 -0.0010103 0)
(1.53797 -8.08111e-05 0)
(1.53824 0.000917728 0)
(1.53844 0.00199367 0)
(1.53856 0.00315647 0)
(1.53859 0.00441686 0)
(1.53854 0.00578709 0)
(1.5384 0.00728102 0)
(1.53816 0.00891442 0)
(1.53781 0.0107052 0)
(1.53736 0.0126736 0)
(1.53679 0.014843 0)
(1.53609 0.0172397 0)
(1.53526 0.0198938 0)
(1.53429 0.0228399 0)
(1.53316 0.0261176 0)
(1.53187 0.029772 0)
(1.53041 0.0338554 0)
(1.52878 0.0384277 0)
(1.52695 0.0435583 0)
(1.52493 0.0493272 0)
(1.5227 0.0558271 0)
(1.52028 0.0631656 0)
(1.51767 0.0714677 0)
(1.51487 0.0808784 0)
(1.51192 0.0915668 0)
(1.50887 0.103729 0)
(1.50577 0.117595 0)
(1.50273 0.133428 0)
(1.4999 0.151536 0)
(1.49748 0.172269 0)
(1.49576 0.196028 0)
(1.49517 0.223258 0)
(1.49628 0.254441 0)
(1.49987 0.290072 0)
(1.50702 0.330613 0)
(1.51918 0.376389 0)
(1.53817 0.42743 0)
(1.56661 0.483419 0)
(1.60652 0.542128 0)
(1.6638 0.604182 0)
(1.73731 0.656439 0)
(1.8305 0.707274 0)
(1.47763 -0.00052581 0)
(1.47774 -0.00157271 0)
(1.478 -0.00260281 0)
(1.4784 -0.00360323 0)
(1.47892 -0.00456394 0)
(1.47955 -0.00547811 0)
(1.48028 -0.00634137 0)
(1.48109 -0.00715124 0)
(1.48199 -0.00790678 0)
(1.48296 -0.00860823 0)
(1.48399 -0.00925682 0)
(1.48508 -0.00985438 0)
(1.48622 -0.0104032 0)
(1.4874 -0.0109056 0)
(1.48863 -0.0113641 0)
(1.48988 -0.0117809 0)
(1.49117 -0.0121584 0)
(1.49248 -0.0124985 0)
(1.49382 -0.0128029 0)
(1.49518 -0.0130733 0)
(1.49656 -0.0133109 0)
(1.49796 -0.0135168 0)
(1.49937 -0.0136918 0)
(1.50079 -0.0138368 0)
(1.50222 -0.013952 0)
(1.50366 -0.0140379 0)
(1.50511 -0.0140947 0)
(1.50655 -0.0141224 0)
(1.50801 -0.0141212 0)
(1.50946 -0.0140909 0)
(1.5109 -0.0140315 0)
(1.51234 -0.013943 0)
(1.51377 -0.0138254 0)
(1.51519 -0.0136788 0)
(1.5166 -0.0135032 0)
(1.51799 -0.0132989 0)
(1.51936 -0.013066 0)
(1.52071 -0.0128048 0)
(1.52203 -0.0125155 0)
(1.52333 -0.0121984 0)
(1.5246 -0.0118539 0)
(1.52583 -0.0114821 0)
(1.52703 -0.0110834 0)
(1.5282 -0.0106577 0)
(1.52932 -0.0102053 0)
(1.5304 -0.00972576 0)
(1.53144 -0.00921903 0)
(1.53244 -0.00868426 0)
(1.53339 -0.00812096 0)
(1.53429 -0.00752741 0)
(1.53514 -0.00690278 0)
(1.53594 -0.00624428 0)
(1.53669 -0.00555041 0)
(1.53739 -0.00481752 0)
(1.53803 -0.00404253 0)
(1.53862 -0.00322041 0)
(1.53915 -0.00234665 0)
(1.53962 -0.00141539 0)
(1.54003 -0.000419979 0)
(1.54037 0.000647178 0)
(1.54065 0.00179467 0)
(1.54086 0.00303224 0)
(1.541 0.00437101 0)
(1.54107 0.0058236 0)
(1.54106 0.00740426 0)
(1.54097 0.00912915 0)
(1.54079 0.0110166 0)
(1.54053 0.0130873 0)
(1.54017 0.0153649 0)
(1.53972 0.017876 0)
(1.53917 0.0206512 0)
(1.53851 0.0237251 0)
(1.53774 0.0271369 0)
(1.53686 0.0309318 0)
(1.53586 0.0351611 0)
(1.53475 0.0398835 0)
(1.53352 0.0451664 0)
(1.53218 0.0510867 0)
(1.53073 0.057733 0)
(1.52921 0.0652066 0)
(1.52761 0.0736239 0)
(1.52599 0.0831182 0)
(1.52439 0.0938422 0)
(1.52288 0.10597 0)
(1.52156 0.119701 0)
(1.52055 0.135257 0)
(1.52005 0.152891 0)
(1.52029 0.172879 0)
(1.52159 0.195521 0)
(1.52439 0.221127 0)
(1.52926 0.250005 0)
(1.53694 0.282421 0)
(1.54839 0.318552 0)
(1.56482 0.358408 0)
(1.58768 0.401653 0)
(1.61884 0.447659 0)
(1.65988 0.494483 0)
(1.71318 0.540727 0)
(1.7798 0.580247 0)
(1.85695 0.609906 0)
(1.47763 -0.000597118 0)
(1.47775 -0.00178533 0)
(1.47804 -0.00295212 0)
(1.47848 -0.00408134 0)
(1.47905 -0.00516073 0)
(1.47973 -0.0061824 0)
(1.48052 -0.00714191 0)
(1.4814 -0.00803735 0)
(1.48236 -0.00886857 0)
(1.48339 -0.00963674 0)
(1.48448 -0.010344 0)
(1.48562 -0.0109932 0)
(1.48682 -0.0115875 0)
(1.48805 -0.0121301 0)
(1.48932 -0.0126242 0)
(1.49062 -0.0130726 0)
(1.49194 -0.013478 0)
(1.4933 -0.013843 0)
(1.49467 -0.0141695 0)
(1.49607 -0.0144594 0)
(1.49748 -0.0147142 0)
(1.49891 -0.0149351 0)
(1.50035 -0.0151231 0)
(1.50181 -0.0152789 0)
(1.50327 -0.015403 0)
(1.50474 -0.0154957 0)
(1.50622 -0.0155572 0)
(1.5077 -0.0155875 0)
(1.50918 -0.0155865 0)
(1.51066 -0.0155541 0)
(1.51214 -0.0154901 0)
(1.51361 -0.0153945 0)
(1.51507 -0.0152671 0)
(1.51652 -0.0151081 0)
(1.51796 -0.0149174 0)
(1.51938 -0.0146952 0)
(1.52079 -0.0144417 0)
(1.52217 -0.0141572 0)
(1.52352 -0.0138419 0)
(1.52485 -0.0134963 0)
(1.52615 -0.0131207 0)
(1.52741 -0.0127155 0)
(1.52864 -0.0122809 0)
(1.52983 -0.0118174 0)
(1.53099 -0.011325 0)
(1.5321 -0.0108039 0)
(1.53317 -0.0102537 0)
(1.5342 -0.00967407 0)
(1.53518 -0.00906422 0)
(1.53612 -0.00842326 0)
(1.537 -0.00774941 0)
(1.53784 -0.00704133 0)
(1.53863 -0.00629586 0)
(1.53937 -0.00551135 0)
(1.54006 -0.00468251 0)
(1.5407 -0.00380585 0)
(1.54128 -0.00287633 0)
(1.54181 -0.00188797 0)
(1.54229 -0.000834013 0)
(1.54271 0.000293279 0)
(1.54308 0.00150258 0)
(1.54338 0.00280391 0)
(1.54363 0.00420856 0)
(1.54382 0.00572929 0)
(1.54395 0.00738055 0)
(1.54401 0.00917862 0)
(1.54401 0.0111419 0)
(1.54394 0.0132913 0)
(1.54381 0.0156503 0)
(1.5436 0.0182455 0)
(1.54333 0.021107 0)
(1.54299 0.024269 0)
(1.54258 0.02777 0)
(1.5421 0.0316538 0)
(1.54157 0.03597 0)
(1.54098 0.0407751 0)
(1.54034 0.0461329 0)
(1.53967 0.0521161 0)
(1.53899 0.0588071 0)
(1.53833 0.0662992 0)
(1.53773 0.0746981 0)
(1.53723 0.084123 0)
(1.5369 0.094708 0)
(1.53683 0.106603 0)
(1.53715 0.119974 0)
(1.53799 0.135004 0)
(1.53956 0.151889 0)
(1.54212 0.170837 0)
(1.54599 0.192056 0)
(1.5516 0.215745 0)
(1.55947 0.24207 0)
(1.57026 0.271132 0)
(1.58479 0.302915 0)
(1.60402 0.337225 0)
(1.62904 0.373561 0)
(1.66108 0.411091 0)
(1.70126 0.448236 0)
(1.75039 0.48308 0)
(1.80899 0.512292 0)
(1.87558 0.533043 0)
(1.47763 -0.000676535 0)
(1.47777 -0.0020216 0)
(1.47809 -0.00333918 0)
(1.47858 -0.0046084 0)
(1.47921 -0.00581461 0)
(1.47996 -0.00694879 0)
(1.48082 -0.00800729 0)
(1.48177 -0.00898909 0)
(1.4828 -0.00989525 0)
(1.4839 -0.0107283 0)
(1.48506 -0.0114916 0)
(1.48627 -0.0121895 0)
(1.48752 -0.0128261 0)
(1.48881 -0.0134057 0)
(1.49013 -0.0139323 0)
(1.49147 -0.0144094 0)
(1.49285 -0.0148404 0)
(1.49424 -0.0152279 0)
(1.49566 -0.0155745 0)
(1.4971 -0.0158823 0)
(1.49855 -0.0161528 0)
(1.50001 -0.0163876 0)
(1.50149 -0.0165875 0)
(1.50297 -0.0167534 0)
(1.50447 -0.0168858 0)
(1.50597 -0.0169849 0)
(1.50748 -0.0170507 0)
(1.509 -0.0170833 0)
(1.51051 -0.0170825 0)
(1.51203 -0.0170479 0)
(1.51354 -0.0169792 0)
(1.51504 -0.0168762 0)
(1.51654 -0.0167389 0)
(1.51803 -0.0165672 0)
(1.5195 -0.0163611 0)
(1.52095 -0.0161207 0)
(1.52239 -0.0158463 0)
(1.52381 -0.015538 0)
(1.52519 -0.0151964 0)
(1.52656 -0.0148219 0)
(1.52789 -0.0144148 0)
(1.52918 -0.0139757 0)
(1.53045 -0.0135052 0)
(1.53167 -0.0130036 0)
(1.53286 -0.0124712 0)
(1.53401 -0.0119085 0)
(1.53511 -0.0113152 0)
(1.53617 -0.0106915 0)
(1.53718 -0.0100361 0)
(1.53815 -0.00934901 0)
(1.53908 -0.00862788 0)
(1.53995 -0.00787213 0)
(1.54079 -0.00707839 0)
(1.54157 -0.00624475 0)
(1.5423 -0.00536664 0)
(1.54299 -0.0044403 0)
(1.54363 -0.00346067 0)
(1.54423 -0.00242178 0)
(1.54477 -0.00131681 0)
(1.54527 -0.000138012 0)
(1.54573 0.00112336 0)
(1.54613 0.00247735 0)
(1.54649 0.00393526 0)
(1.5468 0.00550983 0)
(1.54706 0.00721547 0)
(1.54728 0.00906836 0)
(1.54746 0.0110868 0)
(1.54759 0.0132913 0)
(1.54767 0.015705 0)
(1.54772 0.018354 0)
(1.54773 0.0212676 0)
(1.5477 0.0244789 0)
(1.54765 0.0280251 0)
(1.54758 0.0319479 0)
(1.54749 0.0362945 0)
(1.54741 0.0411179 0)
(1.54735 0.0464777 0)
(1.54734 0.052441 0)
(1.54739 0.0590829 0)
(1.54756 0.0664875 0)
(1.54789 0.0747485 0)
(1.54844 0.0839699 0)
(1.54929 0.0942661 0)
(1.55055 0.105762 0)
(1.55234 0.118593 0)
(1.55483 0.132901 0)
(1.55821 0.148834 0)
(1.56275 0.166537 0)
(1.56876 0.186144 0)
(1.57663 0.207765 0)
(1.58683 0.23146 0)
(1.59992 0.257215 0)
(1.61655 0.284893 0)
(1.63748 0.314191 0)
(1.66348 0.344557 0)
(1.69534 0.375142 0)
(1.73372 0.404675 0)
(1.77897 0.431554 0)
(1.83101 0.453676 0)
(1.88889 0.469056 0)
(1.47764 -0.000766538 0)
(1.47779 -0.00228825 0)
(1.47816 -0.00377383 0)
(1.47871 -0.00519799 0)
(1.47942 -0.00654045 0)
(1.48026 -0.00779165 0)
(1.4812 -0.00895033 0)
(1.48224 -0.0100177 0)
(1.48335 -0.0109967 0)
(1.48453 -0.0118913 0)
(1.48576 -0.0127069 0)
(1.48704 -0.0134493 0)
(1.48835 -0.0141241 0)
(1.4897 -0.0147368 0)
(1.49108 -0.0152922 0)
(1.49248 -0.0157947 0)
(1.4939 -0.016248 0)
(1.49534 -0.0166556 0)
(1.4968 -0.0170202 0)
(1.49828 -0.0173441 0)
(1.49977 -0.0176292 0)
(1.50127 -0.0178769 0)
(1.50278 -0.0180884 0)
(1.50431 -0.0182643 0)
(1.50584 -0.0184051 0)
(1.50738 -0.018511 0)
(1.50892 -0.0185819 0)
(1.51047 -0.0186176 0)
(1.51202 -0.0186178 0)
(1.51357 -0.0185819 0)
(1.51512 -0.0185093 0)
(1.51667 -0.0183998 0)
(1.5182 -0.0182532 0)
(1.51972 -0.0180694 0)
(1.52123 -0.0178482 0)
(1.52273 -0.0175899 0)
(1.5242 -0.0172946 0)
(1.52565 -0.0169627 0)
(1.52708 -0.0165946 0)
(1.52848 -0.0161908 0)
(1.52984 -0.015752 0)
(1.53118 -0.0152787 0)
(1.53248 -0.0147718 0)
(1.53374 -0.0142317 0)
(1.53496 -0.0136592 0)
(1.53614 -0.0130548 0)
(1.53728 -0.0124186 0)
(1.53837 -0.0117509 0)
(1.53942 -0.011051 0)
(1.54043 -0.0103186 0)
(1.54139 -0.00955216 0)
(1.5423 -0.00875042 0)
(1.54317 -0.00791131 0)
(1.544 -0.00703176 0)
(1.54478 -0.00610831 0)
(1.54552 -0.00513705 0)
(1.54622 -0.00411293 0)
(1.54688 -0.00303003 0)
(1.5475 -0.00188156 0)
(1.54807 -0.000659888 0)
(1.54861 0.00064377 0)
(1.54912 0.00203927 0)
(1.54958 0.0035378 0)
(1.55002 0.00515196 0)
(1.55042 0.00689589 0)
(1.55079 0.00878547 0)
(1.55114 0.0108385 0)
(1.55146 0.0130751 0)
(1.55177 0.0155177 0)
(1.55206 0.0181914 0)
(1.55235 0.0211243 0)
(1.55263 0.0243481 0)
(1.55293 0.0278979 0)
(1.55324 0.0318129 0)
(1.5536 0.0361372 0)
(1.55401 0.0409198 0)
(1.55451 0.0462151 0)
(1.55511 0.0520839 0)
(1.55586 0.0585933 0)
(1.55681 0.0658175 0)
(1.55801 0.0738375 0)
(1.55952 0.0827419 0)
(1.56145 0.0926255 0)
(1.5639 0.10359 0)
(1.567 0.115739 0)
(1.57092 0.129182 0)
(1.57586 0.144022 0)
(1.58206 0.160352 0)
(1.58981 0.178249 0)
(1.59946 0.197754 0)
(1.61142 0.218854 0)
(1.62614 0.24146 0)
(1.64415 0.265374 0)
(1.666 0.29025 0)
(1.69223 0.315549 0)
(1.72335 0.340512 0)
(1.75971 0.364118 0)
(1.8014 0.385121 0)
(1.84811 0.402049 0)
(1.89898 0.413433 0)
(1.47764 -0.000869754 0)
(1.47782 -0.00259518 0)
(1.47825 -0.00427214 0)
(1.47888 -0.00586664 0)
(1.47969 -0.00735393 0)
(1.48063 -0.00872616 0)
(1.48168 -0.00998538 0)
(1.48281 -0.0111364 0)
(1.48402 -0.0121845 0)
(1.48529 -0.013136 0)
(1.48661 -0.0139986 0)
(1.48796 -0.0147801 0)
(1.48935 -0.0154881 0)
(1.49076 -0.016129 0)
(1.4922 -0.0167088 0)
(1.49365 -0.0172326 0)
(1.49513 -0.0177048 0)
(1.49662 -0.018129 0)
(1.49812 -0.0185085 0)
(1.49964 -0.0188457 0)
(1.50117 -0.0191427 0)
(1.50271 -0.0194012 0)
(1.50427 -0.0196222 0)
(1.50583 -0.0198064 0)
(1.5074 -0.0199542 0)
(1.50898 -0.0200658 0)
(1.51056 -0.0201408 0)
(1.51215 -0.020179 0)
(1.51374 -0.0201797 0)
(1.51533 -0.020142 0)
(1.51692 -0.0200653 0)
(1.5185 -0.0199491 0)
(1.52007 -0.0197929 0)
(1.52164 -0.0195967 0)
(1.52319 -0.0193603 0)
(1.52473 -0.0190837 0)
(1.52624 -0.0187673 0)
(1.52773 -0.0184113 0)
(1.5292 -0.0180163 0)
(1.53064 -0.0175829 0)
(1.53205 -0.0171119 0)
(1.53342 -0.0166039 0)
(1.53476 -0.0160602 0)
(1.53605 -0.0154813 0)
(1.53731 -0.0148684 0)
(1.53853 -0.0142222 0)
(1.5397 -0.0135434 0)
(1.54083 -0.0128323 0)
(1.54191 -0.0120886 0)
(1.54296 -0.0113121 0)
(1.54396 -0.0105017 0)
(1.54491 -0.00965608 0)
(1.54582 -0.00877401 0)
(1.54669 -0.00785195 0)
(1.54752 -0.00688727 0)
(1.54832 -0.00587609 0)
(1.54907 -0.00481335 0)
(1.54979 -0.00369309 0)
(1.55048 -0.00250861 0)
(1.55113 -0.00125248 0)
(1.55176 8.37998e-05 0)
(1.55236 0.00150984 0)
(1.55293 0.00303657 0)
(1.55349 0.00467627 0)
(1.55402 0.00644266 0)
(1.55455 0.00835109 0)
(1.55507 0.0104188 0)
(1.55558 0.0126649 0)
(1.5561 0.0151109 0)
(1.55663 0.0177808 0)
(1.55718 0.0207013 0)
(1.55777 0.023902 0)
(1.5584 0.0274156 0)
(1.55909 0.0312786 0)
(1.55987 0.0355312 0)
(1.56075 0.040218 0)
(1.56177 0.0453879 0)
(1.56295 0.0510949 0)
(1.56435 0.0573978 0)
(1.56602 0.0643606 0)
(1.56801 0.072052 0)
(1.5704 0.0805451 0)
(1.57329 0.0899166 0)
(1.57679 0.100245 0)
(1.58103 0.11161 0)
(1.58618 0.124088 0)
(1.59242 0.137746 0)
(1.59998 0.152638 0)
(1.60912 0.168794 0)
(1.62015 0.186208 0)
(1.63339 0.20482 0)
(1.64924 0.224501 0)
(1.66808 0.245024 0)
(1.69032 0.266045 0)
(1.71634 0.287072 0)
(1.74642 0.307455 0)
(1.78074 0.326373 0)
(1.81923 0.342868 0)
(1.86154 0.355886 0)
(1.9069 0.364408 0)
(1.47765 -0.000991187 0)
(1.47787 -0.00295569 0)
(1.47837 -0.00485295 0)
(1.47912 -0.0066365 0)
(1.48005 -0.00827796 0)
(1.48112 -0.00977336 0)
(1.48229 -0.0111311 0)
(1.48354 -0.0123607 0)
(1.48486 -0.0134708 0)
(1.48623 -0.0144711 0)
(1.48764 -0.0153727 0)
(1.48908 -0.016186 0)
(1.49054 -0.0169206 0)
(1.49202 -0.0175844 0)
(1.49352 -0.0181844 0)
(1.49504 -0.0187263 0)
(1.49657 -0.019215 0)
(1.49811 -0.0196546 0)
(1.49966 -0.0200484 0)
(1.50123 -0.0203991 0)
(1.5028 -0.0207088 0)
(1.50438 -0.0209791 0)
(1.50598 -0.021211 0)
(1.50758 -0.0214053 0)
(1.50919 -0.021562 0)
(1.51081 -0.0216812 0)
(1.51243 -0.0217625 0)
(1.51406 -0.0218051 0)
(1.5157 -0.021808 0)
(1.51733 -0.02177 0)
(1.51896 -0.0216903 0)
(1.52059 -0.021568 0)
(1.52221 -0.0214027 0)
(1.52382 -0.0211943 0)
(1.52542 -0.0209425 0)
(1.527 -0.0206474 0)
(1.52856 -0.0203093 0)
(1.5301 -0.0199285 0)
(1.53161 -0.0195056 0)
(1.53309 -0.0190413 0)
(1.53454 -0.0185368 0)
(1.53595 -0.0179928 0)
(1.53733 -0.0174107 0)
(1.53867 -0.0167914 0)
(1.53996 -0.0161366 0)
(1.54122 -0.0154475 0)
(1.54243 -0.0147252 0)
(1.54359 -0.0139705 0)
(1.54472 -0.0131833 0)
(1.5458 -0.0123631 0)
(1.54683 -0.0115096 0)
(1.54783 -0.0106215 0)
(1.54878 -0.00969814 0)
(1.54969 -0.00873614 0)
(1.55057 -0.0077335 0)
(1.55141 -0.00668666 0)
(1.55222 -0.00559062 0)
(1.553 -0.00443933 0)
(1.55376 -0.0032262 0)
(1.55449 -0.00194399 0)
(1.5552 -0.000584517 0)
(1.55589 0.000861542 0)
(1.55657 0.00240472 0)
(1.55724 0.00405683 0)
(1.55791 0.00583096 0)
(1.55858 0.00774174 0)
(1.55926 0.00980555 0)
(1.55996 0.0120406 0)
(1.56069 0.0144672 0)
(1.56145 0.0171078 0)
(1.56226 0.0199873 0)
(1.56313 0.0231332 0)
(1.56408 0.0265756 0)
(1.56513 0.0303475 0)
(1.5663 0.0344852 0)
(1.56762 0.0390284 0)
(1.56912 0.0440203 0)
(1.57084 0.0495078 0)
(1.57283 0.0555415 0)
(1.57515 0.0621754 0)
(1.57785 0.0694664 0)
(1.58103 0.0774734 0)
(1.58477 0.0862555 0)
(1.58918 0.0958714 0)
(1.5944 0.106377 0)
(1.60058 0.117823 0)
(1.60789 0.13025 0)
(1.61655 0.143678 0)
(1.62678 0.158107 0)
(1.63883 0.173497 0)
(1.653 0.189762 0)
(1.66958 0.206755 0)
(1.68886 0.224245 0)
(1.71114 0.241911 0)
(1.73666 0.25932 0)
(1.76559 0.27593 0)
(1.79798 0.29109 0)
(1.83368 0.304072 0)
(1.87234 0.314119 0)
(1.91334 0.320533 0)
(1.47766 -0.00113794 0)
(1.47792 -0.00339082 0)
(1.47853 -0.00554546 0)
(1.47943 -0.00753751 0)
(1.48053 -0.0093387 0)
(1.48176 -0.0109563 0)
(1.48308 -0.0124085 0)
(1.48447 -0.0137103 0)
(1.48591 -0.0148739 0)
(1.4874 -0.0159134 0)
(1.48891 -0.0168437 0)
(1.49044 -0.0176785 0)
(1.49198 -0.0184295 0)
(1.49354 -0.0191062 0)
(1.4951 -0.0197165 0)
(1.49668 -0.0202672 0)
(1.49827 -0.0207636 0)
(1.49986 -0.0212103 0)
(1.50146 -0.021611 0)
(1.50307 -0.0219685 0)
(1.50469 -0.0222849 0)
(1.50632 -0.022562 0)
(1.50795 -0.0228007 0)
(1.5096 -0.0230017 0)
(1.51125 -0.0231649 0)
(1.51291 -0.0232903 0)
(1.51458 -0.0233772 0)
(1.51626 -0.0234247 0)
(1.51793 -0.0234308 0)
(1.51962 -0.0233938 0)
(1.5213 -0.0233123 0)
(1.52297 -0.0231853 0)
(1.52464 -0.0230122 0)
(1.52631 -0.0227928 0)
(1.52795 -0.0225267 0)
(1.52958 -0.0222141 0)
(1.5312 -0.0218552 0)
(1.53278 -0.0214502 0)
(1.53434 -0.021 0)
(1.53587 -0.0205054 0)
(1.53737 -0.0199677 0)
(1.53883 -0.0193879 0)
(1.54025 -0.0187674 0)
(1.54163 -0.0181076 0)
(1.54297 -0.0174103 0)
(1.54426 -0.0166777 0)
(1.54551 -0.0159114 0)
(1.54672 -0.0151132 0)
(1.54788 -0.0142827 0)
(1.54899 -0.0134201 0)
(1.55007 -0.012525 0)
(1.5511 -0.0115967 0)
(1.55209 -0.0106345 0)
(1.55305 -0.00963632 0)
(1.55397 -0.00860018 0)
(1.55486 -0.0075226 0)
(1.55572 -0.00639838 0)
(1.55656 -0.0052218 0)
(1.55739 -0.00398693 0)
(1.55819 -0.00268697 0)
(1.55898 -0.00131392 0)
(1.55976 0.000141264 0)
(1.56055 0.00168858 0)
(1.56133 0.00333928 0)
(1.56213 0.00510571 0)
(1.56294 0.00700154 0)
(1.56378 0.0090422 0)
(1.56465 0.0112448 0)
(1.56557 0.0136284 0)
(1.56655 0.0162138 0)
(1.5676 0.019024 0)
(1.56874 0.0220842 0)
(1.56999 0.0254215 0)
(1.57137 0.0290656 0)
(1.5729 0.0330485 0)
(1.57463 0.037405 0)
(1.57657 0.0421724 0)
(1.57878 0.0473909 0)
(1.58131 0.053103 0)
(1.58421 0.0593533 0)
(1.58755 0.0661878 0)
(1.59141 0.0736524 0)
(1.59588 0.0817914 0)
(1.60107 0.0906451 0)
(1.6071 0.10025 0)
(1.61413 0.110634 0)
(1.6223 0.121816 0)
(1.63182 0.133795 0)
(1.64286 0.146545 0)
(1.65567 0.160011 0)
(1.67046 0.174094 0)
(1.68746 0.188644 0)
(1.7069 0.203442 0)
(1.72899 0.218199 0)
(1.75386 0.232543 0)
(1.78161 0.246029 0)
(1.81222 0.258148 0)
(1.84551 0.268351 0)
(1.88116 0.27609 0)
(1.91865 0.280871 0)
(1.47767 -0.00132111 0)
(1.47801 -0.00393351 0)
(1.47878 -0.00639466 0)
(1.47989 -0.00861402 0)
(1.4812 -0.0105723 0)
(1.48262 -0.0123002 0)
(1.48411 -0.0138327 0)
(1.48566 -0.0151923 0)
(1.48725 -0.0163963 0)
(1.48887 -0.0174644 0)
(1.49049 -0.0184163 0)
(1.49212 -0.019269 0)
(1.49375 -0.0200359 0)
(1.49539 -0.0207275 0)
(1.49703 -0.0213518 0)
(1.49867 -0.0219156 0)
(1.50031 -0.0224245 0)
(1.50196 -0.0228833 0)
(1.50361 -0.0232957 0)
(1.50528 -0.0236646 0)
(1.50694 -0.0239918 0)
(1.50862 -0.0242792 0)
(1.5103 -0.0245275 0)
(1.51199 -0.024737 0)
(1.51369 -0.0249076 0)
(1.51539 -0.0250392 0)
(1.51711 -0.0251314 0)
(1.51883 -0.025183 0)
(1.52056 -0.0251914 0)
(1.52229 -0.0251541 0)
(1.52403 -0.0250692 0)
(1.52576 -0.0249356 0)
(1.52749 -0.0247525 0)
(1.5292 -0.0245196 0)
(1.53091 -0.0242366 0)
(1.53259 -0.0239039 0)
(1.53426 -0.0235211 0)
(1.5359 -0.0230889 0)
(1.53752 -0.0226074 0)
(1.5391 -0.0220788 0)
(1.54065 -0.0215043 0)
(1.54216 -0.0208858 0)
(1.54363 -0.0202237 0)
(1.54506 -0.019521 0)
(1.54645 -0.0187787 0)
(1.54778 -0.018001 0)
(1.54907 -0.0171893 0)
(1.55031 -0.0163464 0)
(1.55151 -0.01547 0)
(1.55267 -0.0145634 0)
(1.55378 -0.0136245 0)
(1.55486 -0.0126552 0)
(1.55589 -0.0116526 0)
(1.55689 -0.0106192 0)
(1.55785 -0.00955374 0)
(1.55879 -0.00845175 0)
(1.55971 -0.00730517 0)
(1.5606 -0.00610818 0)
(1.56149 -0.00485638 0)
(1.56236 -0.00354416 0)
(1.56323 -0.00216399 0)
(1.5641 -0.000707353 0)
(1.56498 0.000835453 0)
(1.56587 0.00247519 0)
(1.56678 0.00422316 0)
(1.56773 0.00609172 0)
(1.56871 0.00809515 0)
(1.56975 0.0102491 0)
(1.57085 0.012571 0)
(1.57203 0.0150806 0)
(1.57331 0.0177988 0)
(1.5747 0.0207479 0)
(1.57622 0.0239522 0)
(1.5779 0.0274376 0)
(1.57977 0.0312317 0)
(1.58185 0.0353644 0)
(1.5842 0.0398672 0)
(1.58684 0.0447735 0)
(1.58984 0.0501183 0)
(1.59325 0.0559379 0)
(1.59715 0.062268 0)
(1.60159 0.0691425 0)
(1.60668 0.0765909 0)
(1.61252 0.084639 0)
(1.61923 0.0933085 0)
(1.62693 0.102612 0)
(1.63579 0.112549 0)