/*--------------------------------*- C++ -*----------------------------------*\
| =========                 |                                                 |
| \\      /  F ield         | OpenFOAM: The Open Source CFD Toolbox           |
|  \\    /   O peration     | Version:  2206                                  |
|   \\  /    A nd           | Website:  www.openfoam.com                      |
|    \\/     M anipulation  |                                                 |
\*---------------------------------------------------------------------------*/
FoamFile
{
    version     2.0;
    format      ascii;
    arch        "LSB;label=32;scalar=64";
    class       surfaceScalarField;
    location    "18.9999";
    object      phi;
}
// * * * * * * * * * * * * * * * * * * * * * * * * * * * * * * * * * * * * * //

dimensions      [0 3 -1 0 0 0 0];

oriented        oriented;

internalField   nonuniform List<scalar> 
9528
(
5.40803e-07
1.45132e-06
-1.99213e-06
4.03596e-07
2.3045e-06
-2.16729e-06
2.3861e-07
2.31686e-06
-2.15187e-06
-3.21646e-08
2.17736e-06
-1.90659e-06
-3.86468e-07
2.10622e-06
-1.75192e-06
-7.77285e-07
2.08382e-06
-1.69301e-06
-1.17131e-06
2.06725e-06
-1.67322e-06
-1.5379e-06
2.02929e-06
-1.6627e-06
-1.84862e-06
1.94935e-06
-1.63863e-06
-2.0838e-06
1.81642e-06
-1.58124e-06
-2.23141e-06
1.6248e-06
-1.4772e-06
-2.28285e-06
1.3751e-06
-1.32366e-06
-2.22826e-06
1.06599e-06
-1.12058e-06
-2.07042e-06
7.15636e-07
-8.73479e-07
-1.82578e-06
3.26755e-07
-5.71391e-07
-1.51615e-06
-8.32976e-08
-2.26331e-07
-1.14838e-06
-5.06078e-07
1.38303e-07
-7.46072e-07
-9.38393e-07
5.36086e-07
-3.27694e-07
-1.37892e-06
9.60543e-07
9.49605e-08
-1.82575e-06
1.40309e-06
5.07876e-07
-2.27287e-06
1.85996e-06
9.03683e-07
-2.72007e-06
2.32426e-06
1.27682e-06
-3.15579e-06
2.78265e-06
1.62599e-06
-3.57502e-06
3.22584e-06
1.95436e-06
-3.97264e-06
3.64427e-06
2.26938e-06
-4.34129e-06
4.02627e-06
2.58544e-06
-4.67052e-06
4.35447e-06
2.92589e-06
-4.94992e-06
4.60947e-06
3.32112e-06
-5.16334e-06
4.76811e-06
3.80087e-06
-5.2832e-06
4.80345e-06
4.39102e-06
-5.28007e-06
4.68992e-06
5.09569e-06
-5.11549e-06
4.41082e-06
5.89437e-06
-4.75981e-06
3.96114e-06
6.75844e-06
-4.21102e-06
3.34695e-06
7.65841e-06
-3.48212e-06
2.58214e-06
8.56877e-06
-2.60187e-06
1.69152e-06
9.45659e-06
-1.61525e-06
7.27425e-07
1.02812e-05
-5.89547e-07
-2.35063e-07
1.1011e-05
4.01379e-07
-1.13113e-06
1.16245e-05
1.30435e-06
-1.91788e-06
1.21115e-05
2.08416e-06
-2.57119e-06
1.24731e-05
2.72316e-06
-3.08476e-06
1.27188e-05
3.21928e-06
-3.46502e-06
1.28639e-05
3.58315e-06
-3.7282e-06
1.29289e-05
3.82944e-06
-3.89444e-06
1.29313e-05
3.97557e-06
-3.978e-06
1.28835e-05
4.04189e-06
-3.99407e-06
1.27954e-05
4.05008e-06
-3.96196e-06
1.26763e-05
4.0156e-06
-3.89654e-06
1.25431e-05
3.94446e-06
-3.81119e-06
1.24065e-05
3.85321e-06
-3.71661e-06
1.22728e-05
3.7536e-06
-3.61989e-06
1.21446e-05
3.65324e-06
-3.52508e-06
1.20225e-05
3.55655e-06
-3.43441e-06
1.19062e-05
3.46545e-06
-3.34919e-06
1.17953e-05
3.38102e-06
-3.27007e-06
1.16888e-05
3.30377e-06
-3.19729e-06
1.15858e-05
3.23383e-06
-3.13083e-06
1.14852e-05
3.17107e-06
-3.07053e-06
1.13862e-05
3.11522e-06
-3.01615e-06
1.12876e-05
3.06591e-06
-2.96738e-06
1.11887e-05
3.02274e-06
-2.92385e-06
1.10886e-05
2.9854e-06
-2.88522e-06
1.09861e-05
2.95381e-06
-2.85133e-06
1.08802e-05
2.92795e-06
-2.82211e-06
1.07701e-05
2.90758e-06
-2.79741e-06
1.06549e-05
2.89203e-06
-2.77687e-06
1.05345e-05
2.88013e-06
-2.7597e-06
1.04085e-05
2.87062e-06
-2.74462e-06
1.02756e-05
2.86334e-06
-2.73043e-06
1.01321e-05
2.86083e-06
-2.71736e-06
9.97143e-06
2.86919e-06
-2.70853e-06
9.78528e-06
2.89692e-06
-2.71076e-06
9.56774e-06
2.94971e-06
-2.73218e-06
9.32103e-06
3.0229e-06
-2.77619e-06
9.05926e-06
3.09555e-06
-2.83379e-06
8.80222e-06
3.13732e-06
-2.88028e-06
8.56934e-06
3.1182e-06
-2.88531e-06
8.37964e-06
3.00919e-06
-2.8195e-06
8.24633e-06
2.79246e-06
-2.65915e-06
8.17463e-06
2.46684e-06
-2.39514e-06
8.16345e-06
2.04631e-06
-2.03512e-06
8.20653e-06
1.55508e-06
-1.59817e-06
8.29451e-06
1.02182e-06
-1.1098e-06
8.41688e-06
4.76174e-07
-5.98547e-07
8.56494e-06
-5.55543e-08
-9.25063e-08
8.73253e-06
-5.57668e-07
3.90083e-07
8.91352e-06
-1.01868e-06
8.37694e-07
9.10201e-06
-1.43065e-06
1.24216e-06
9.2926e-06
-1.78904e-06
1.59845e-06
9.48057e-06
-2.09238e-06
1.90441e-06
9.66204e-06
-2.34183e-06
2.16035e-06
9.83407e-06
-2.54059e-06
2.36857e-06
9.99457e-06
-2.6933e-06
2.53281e-06
1.01422e-05
-2.80545e-06
2.6578e-06
1.02764e-05
-2.88294e-06
2.74879e-06
1.03969e-05
-2.93176e-06
2.81125e-06
1.0504e-05
-2.95775e-06
2.85063e-06
1.05984e-05
-2.96656e-06
2.8722e-06
1.06809e-05
-2.96348e-06
2.88093e-06
1.07528e-05
-2.95328e-06
2.8814e-06
1.08153e-05
-2.94006e-06
2.87755e-06
1.08698e-05
-2.92706e-06
2.87254e-06
1.09177e-05
-2.91657e-06
2.86871e-06
1.096e-05
-2.91004e-06
2.86774e-06
1.09974e-05
-2.90839e-06
2.87099e-06
1.10301e-05
-2.91282e-06
2.8801e-06
1.10584e-05
-2.92541e-06
2.89712e-06
1.10824e-05
-2.94791e-06
2.92388e-06
1.11022e-05
-2.98202e-06
2.9623e-06
1.11174e-05
-3.02951e-06
3.01426e-06
1.1128e-05
-3.09177e-06
3.08116e-06
1.11339e-05
-3.16916e-06
3.1633e-06
1.11353e-05
-3.25981e-06
3.25842e-06
1.11335e-05
-3.3574e-06
3.35916e-06
1.11302e-05
-3.45064e-06
3.45398e-06
1.11266e-05
-3.53035e-06
3.53399e-06
1.11233e-05
-3.58859e-06
3.59182e-06
1.11199e-05
-3.62014e-06
3.62358e-06
1.11119e-05
-3.62128e-06
3.62922e-06
1.10961e-05
-3.57514e-06
3.59102e-06
1.10779e-05
-3.46739e-06
3.48553e-06
1.10577e-05
-3.30195e-06
3.32216e-06
1.10362e-05
-3.0784e-06
3.0999e-06
1.10147e-05
-2.79835e-06
2.8199e-06
1.09948e-05
-2.46534e-06
2.48525e-06
-2.08455e-06
2.10093e-06
-2.66126e-07
1.71745e-06
-3.20462e-07
2.35884e-06
-4.06426e-07
2.40282e-06
-6.32653e-07
2.40359e-06
-9.4084e-07
2.41441e-06
-1.2739e-06
2.41689e-06
-1.59845e-06
2.3918e-06
-1.88638e-06
2.31722e-06
-2.11172e-06
2.17468e-06
-2.25603e-06
1.96073e-06
-2.30923e-06
1.678e-06
-2.25241e-06
1.31829e-06
-2.07806e-06
8.9163e-07
-1.78032e-06
4.17905e-07
-1.39785e-06
-5.57205e-08
-9.47451e-07
-5.33695e-07
-4.50972e-07
-1.00256e-06
6.70651e-08
-1.45643e-06
5.81871e-07
-1.89373e-06
1.07185e-06
-2.31573e-06
1.51985e-06
-2.72087e-06
1.91287e-06
-3.11309e-06
2.24305e-06
-3.48596e-06
2.50988e-06
-3.84184e-06
2.72061e-06
-4.18337e-06
2.88852e-06
-4.50921e-06
3.0332e-06
-4.8152e-06
3.17415e-06
-5.09087e-06
3.33218e-06
-5.32138e-06
3.53088e-06
-5.48189e-06
3.80439e-06
-5.55358e-06
4.20455e-06
-5.51565e-06
4.75893e-06
-5.3142e-06
5.43833e-06
-4.89042e-06
6.21476e-06
-4.25855e-06
7.05464e-06
-3.44175e-06
7.92306e-06
-2.48367e-06
8.77801e-06
-1.44449e-06
9.5781e-06
-3.98715e-07
1.02945e-05
5.87977e-07
1.09073e-05
1.4713e-06
1.14066e-05
2.22387e-06
1.17918e-05
2.83413e-06
1.20707e-05
3.3042e-06
1.22568e-05
3.64332e-06
1.23658e-05
3.86658e-06
1.24131e-05
3.99459e-06
1.2414e-05
4.04923e-06
1.23727e-05
4.05692e-06
1.22946e-05
4.02255e-06
1.21969e-05
3.95085e-06
1.20917e-05
3.85881e-06
1.19856e-05
3.75937e-06
1.18817e-05
3.66046e-06
1.17808e-05
3.56629e-06
1.16831e-05
3.4787e-06
1.15883e-05
3.3986e-06
1.14958e-05
3.3264e-06
1.14047e-05
3.26211e-06
1.13144e-05
3.20553e-06
1.1224e-05
3.1563e-06
1.11327e-05
3.11404e-06
1.10396e-05
3.07853e-06
1.09436e-05
3.0498e-06
1.08438e-05
3.0278e-06
1.07393e-05
3.01202e-06
1.06299e-05
3.00148e-06
1.05151e-05
2.99493e-06
1.03939e-05
2.99185e-06
1.02632e-05
2.994e-06
1.01174e-05
3.00661e-06
9.9487e-06
3.0379e-06
9.75024e-06
3.09537e-06
9.52111e-06
3.17885e-06
9.27071e-06
3.2733e-06
9.01639e-06
3.34987e-06
8.77549e-06
3.37822e-06
8.56607e-06
3.32762e-06
8.4037e-06
3.17157e-06
8.29795e-06
2.89821e-06
8.25145e-06
2.51334e-06
8.26091e-06
2.03684e-06
8.31951e-06
1.49648e-06
8.41894e-06
9.22394e-07
8.54982e-06
3.45293e-07
8.70521e-06
-2.10939e-07
8.87881e-06
-7.31272e-07
9.06426e-06
-1.20413e-06
9.25539e-06
-1.62178e-06
9.44656e-06
-1.98022e-06
9.63301e-06
-2.27882e-06
9.81094e-06
-2.51976e-06
9.97759e-06
-2.70725e-06
1.01312e-05
-2.84689e-06
1.02707e-05
-2.94495e-06
1.03957e-05
-3.00796e-06
1.05063e-05
-3.04232e-06
1.06028e-05
-3.05428e-06
1.06861e-05
-3.04987e-06
1.07574e-05
-3.03474e-06
1.0818e-05
-3.01387e-06
1.08692e-05
-2.99131e-06
1.09123e-05
-2.97021e-06
1.09486e-05
-2.95281e-06
1.0979e-05
-2.9405e-06
1.10046e-05
-2.93393e-06
1.10253e-05
-2.93353e-06
1.10412e-05
-2.94135e-06
1.10525e-05
-2.9592e-06
1.1059e-05
-2.98852e-06
1.10604e-05
-3.03087e-06
1.10562e-05
-3.08763e-06
1.10463e-05
-3.15926e-06
1.10308e-05
-3.24424e-06
1.10105e-05
-3.33719e-06
1.09873e-05
-3.42742e-06
1.09624e-05
-3.50546e-06
1.09372e-05
-3.5634e-06
1.09119e-05
-3.59477e-06
1.08811e-05
-3.59048e-06
1.08434e-05
-3.53752e-06
1.08043e-05
-3.42827e-06
1.07638e-05
-3.26139e-06
1.07229e-05
-3.03748e-06
1.06833e-05
-2.75879e-06
1.06472e-05
-2.42926e-06
-2.05428e-06
-2.81606e-07
1.99906e-06
-4.35585e-07
2.51282e-06
-6.03848e-07
2.57108e-06
-8.39395e-07
2.63914e-06
-1.10617e-06
2.68118e-06
-1.38055e-06
2.69127e-06
-1.6392e-06
2.65045e-06
-1.85788e-06
2.5359e-06
-2.01287e-06
2.32967e-06
-2.0747e-06
2.02255e-06
-2.00332e-06
1.60662e-06
-1.78002e-06
1.09499e-06
-1.41468e-06
5.26299e-07
-9.37595e-07
-5.91836e-08
-3.64074e-07
-6.29242e-07
2.69813e-07
-1.16758e-06
9.2993e-07
-1.66267e-06
1.58253e-06
-2.10903e-06
2.1992e-06
-2.5104e-06
2.75613e-06
-2.87266e-06
3.23516e-06
-3.1999e-06
3.62037e-06
-3.4983e-06
3.90238e-06
-3.76797e-06
4.077e-06
-4.01645e-06
4.14945e-06
-4.25582e-06
4.13668e-06
-4.49644e-06
4.06451e-06
-4.74303e-06
3.96367e-06
-4.99003e-06
3.86875e-06
-5.22646e-06
3.81834e-06
-5.43148e-06
3.83628e-06
-5.57152e-06
3.93849e-06
-5.61786e-06
4.16968e-06
-5.54539e-06
4.56449e-06
-5.28522e-06
5.12031e-06
-4.81437e-06
5.80423e-06
-4.12567e-06
6.57541e-06
-3.25486e-06
7.39112e-06
-2.2602e-06
8.20341e-06
-1.21101e-06
8.97239e-06
-1.80997e-07
9.66969e-06
7.74003e-07
1.02757e-05
1.61783e-06
1.0781e-05
2.32881e-06
1.11849e-05
2.90036e-06
1.14928e-05
3.33542e-06
1.17137e-05
3.64566e-06
1.18599e-05
3.84841e-06
1.19446e-05
3.96455e-06
1.19833e-05
4.01823e-06
1.19802e-05
4.02559e-06
1.19405e-05
3.99053e-06
1.18778e-05
3.92154e-06
1.18032e-05
3.83402e-06
1.17236e-05
3.74003e-06
1.16428e-05
3.64709e-06
1.15621e-05
3.55939e-06
1.14819e-05
3.47879e-06
1.14022e-05
3.40612e-06
1.13226e-05
3.3417e-06
1.12427e-05
3.28546e-06
1.11618e-05
3.23716e-06
1.10793e-05
3.19653e-06
1.09943e-05
3.1635e-06
1.0906e-05
3.13815e-06
1.08135e-05
3.12029e-06
1.07164e-05
3.10915e-06
1.06142e-05
3.10361e-06
1.05063e-05
3.1029e-06
1.03901e-05
3.10802e-06
1.0261e-05
3.12307e-06
1.01121e-05
3.15553e-06
9.93615e-06
3.21386e-06
9.72978e-06
3.30174e-06
9.49768e-06
3.41095e-06
9.25391e-06
3.51707e-06
9.01445e-06
3.58932e-06
8.79446e-06
3.59821e-06
8.61051e-06
3.51157e-06
8.47552e-06
3.30656e-06
8.39575e-06
2.97798e-06
8.3712e-06
2.5379e-06
8.39772e-06
2.01032e-06
8.46928e-06
1.42492e-06
8.57863e-06
8.13035e-07
8.71754e-06
2.06389e-07
8.87978e-06
-3.73175e-07
9.05867e-06
-9.10164e-07
9.24746e-06
-1.39292e-06
9.43965e-06
-1.81397e-06
9.62947e-06
-2.17004e-06
9.81215e-06
-2.46151e-06
9.9841e-06
-2.6917e-06
1.01429e-05
-2.86603e-06
1.02871e-05
-2.99111e-06
1.04162e-05
-3.07403e-06
1.053e-05
-3.12179e-06
1.06288e-05
-3.14111e-06
1.0713e-05
-3.13851e-06
1.07837e-05
-3.12049e-06
1.08421e-05
-3.09322e-06
1.08902e-05
-3.06189e-06
1.09292e-05
-3.03038e-06
1.09605e-05
-3.00153e-06
1.0985e-05
-2.97728e-06
1.10034e-05
-2.95892e-06
1.10166e-05
-2.94711e-06
1.10251e-05
-2.94202e-06
1.10288e-05
-2.94499e-06
1.10275e-05
-2.9579e-06
1.10209e-05
-2.98199e-06
1.10087e-05
-3.01867e-06
1.09903e-05
-3.06924e-06
1.09653e-05
-3.13425e-06
1.09336e-05
-3.21251e-06
1.0896e-05
-3.2996e-06
1.08545e-05
-3.38587e-06
1.08102e-05
-3.46122e-06
1.07643e-05
-3.51749e-06
1.07166e-05
-3.54701e-06
1.06648e-05
-3.53872e-06
1.06093e-05
-3.48203e-06
1.05519e-05
-3.37084e-06
1.04937e-05
-3.20317e-06
1.04362e-05
-2.97996e-06
1.03813e-05
-2.70398e-06
1.03317e-05
-2.37959e-06
-2.01233e-06
-2.30677e-07
-4.03997e-07
-5.91469e-07
-7.936e-07
-1.00158e-06
-1.20555e-06
-1.38642e-06
-1.52155e-06
-1.56856e-06
2.37668e-06
-1.48317e-06
1.93717e-06
-1.24004e-06
1.36349e-06
-8.22899e-07
6.77844e-07
-2.58863e-07
-3.77369e-08
4.20718e-07
-7.38765e-07
1.17537e-06
-1.38389e-06
1.95581e-06
-1.94802e-06
2.71831e-06
-2.42517e-06
3.43074e-06
-2.82146e-06
4.07371e-06
-3.15337e-06
4.63444e-06
-3.43339e-06
5.10455e-06
-3.67001e-06
5.47658e-06
-3.87033e-06
5.7453e-06
-4.03669e-06
5.90361e-06
-4.17477e-06
5.94193e-06
-4.29414e-06
5.8542e-06
-4.40872e-06
5.64242e-06
-4.53125e-06
5.3311e-06
-4.67871e-06
4.97137e-06
-4.86673e-06
4.62793e-06
-5.08804e-06
4.35331e-06
-5.2969e-06
4.17501e-06
-5.43955e-06
4.11258e-06
-5.48296e-06
4.19881e-06
-5.37145e-06
4.46235e-06
-5.07791e-06
4.9138e-06
-4.57712e-06
5.5152e-06
-3.85625e-06
6.2199e-06
-2.9649e-06
6.97902e-06
-1.97013e-06
7.74369e-06
-9.45668e-07
8.47659e-06
4.11007e-08
9.15016e-06
9.44265e-07
9.74527e-06
1.7337e-06
1.02519e-05
2.39369e-06
1.06678e-05
2.91958e-06
1.09955e-05
3.31793e-06
1.1242e-05
3.60191e-06
1.14162e-05
3.79031e-06
1.15321e-05
3.90235e-06
1.16031e-05
3.9546e-06
1.16326e-05
3.96108e-06
1.16261e-05
3.92801e-06
1.15943e-05
3.86577e-06
1.15473e-05
3.78709e-06
1.14919e-05
3.70251e-06
1.1432e-05
3.61922e-06
1.13695e-05
3.5413e-06
1.13051e-05
3.47055e-06
1.1239e-05
3.40778e-06
1.11712e-05
3.35326e-06
1.11014e-05
3.307e-06
1.1029e-05
3.26893e-06
1.09534e-05
3.23909e-06
1.0874e-05
3.21756e-06
1.07903e-05
3.20395e-06
1.07021e-05
3.19737e-06
1.06087e-05
3.19703e-06
1.05083e-05
3.20327e-06
1.03973e-05
3.21904e-06
1.02697e-05
3.25067e-06
1.01186e-05
3.30663e-06
9.93899e-06
3.39345e-06
9.73162e-06
3.50911e-06
9.50582e-06
3.63675e-06
9.27645e-06
3.74644e-06
9.05669e-06
3.80909e-06
8.8612e-06
3.7937e-06
8.70474e-06
3.66803e-06
8.59699e-06
3.4143e-06
8.54123e-06
3.03374e-06
8.53604e-06
2.54309e-06
8.57769e-06
1.96867e-06
8.66121e-06
1.3414e-06
8.78e-06
6.94244e-07
8.92676e-06
5.96303e-08
9.0951e-06
-5.41509e-07
9.27796e-06
-1.09303e-06
9.46823e-06
-1.58318e-06
9.65913e-06
-2.00488e-06
9.84488e-06
-2.35578e-06
1.00208e-05
-2.63748e-06
1.01838e-05
-2.85461e-06
1.03316e-05
-3.01391e-06
1.04636e-05
-3.12311e-06
1.05797e-05
-3.19006e-06
1.068e-05
-3.2221e-06
1.07649e-05
-3.226e-06
1.08349e-05
-3.20851e-06
1.08911e-05
-3.17675e-06
1.09354e-05
-3.13749e-06
1.09696e-05
-3.09606e-06
1.09953e-05
-3.05609e-06
1.10138e-05
-3.02001e-06
1.10259e-05
-2.98944e-06
1.10324e-05
-2.96543e-06
1.10338e-05
-2.94851e-06
1.10305e-05
-2.93865e-06
1.10221e-05
-2.9366e-06
1.10084e-05
-2.94426e-06
1.09892e-05
-2.96277e-06
1.09639e-05
-2.99335e-06
1.09318e-05
-3.03717e-06
1.08925e-05
-3.09489e-06
1.08456e-05
-3.16564e-06
1.07918e-05
-3.24579e-06
1.0733e-05
-3.32712e-06
1.06708e-05
-3.39902e-06
1.06062e-05
-3.45285e-06
1.05391e-05
-3.4799e-06
1.04691e-05
-3.46875e-06
1.03969e-05
-3.40987e-06
1.03238e-05
-3.2977e-06
1.0251e-05
-3.13034e-06
1.018e-05
-2.90903e-06
1.01131e-05
-2.63705e-06
1.00527e-05
-2.31918e-06
-1.96118e-06
-7.43382e-07
-4.9541e-07
-6.31344e-08
5.26914e-07
1.25484e-06
2.05915e-06
2.87684e-06
3.66004e-06
4.38358e-06
5.03376e-06
5.60341e-06
6.08946e-06
6.49144e-06
6.80893e-06
7.04331e-06
7.19643e-06
7.26332e-06
7.23544e-06
7.09212e-06
6.81229e-06
6.38855e-06
5.85503e-06
5.30088e-06
4.82284e-06
4.47322e-06
4.28543e-06
4.26669e-06
4.43238e-06
4.80061e-06
5.33388e-06
5.97824e-06
6.68213e-06
7.39864e-06
8.0935e-06
8.74042e-06
9.32034e-06
9.82218e-06
1.02418e-05
1.05803e-05
1.08438e-05
1.10414e-05
1.1183e-05
1.12793e-05
1.13355e-05
1.1357e-05
1.13513e-05
1.13278e-05
1.12934e-05
1.1252e-05
1.12055e-05
1.1155e-05
1.1101e-05
1.10436e-05
1.09825e-05
1.09176e-05
1.08486e-05
1.07752e-05
1.06973e-05
1.06135e-05
1.05213e-05
1.04157e-05
1.02905e-05
1.01402e-05
9.96248e-06
9.76178e-06
9.55042e-06
9.34155e-06
9.14617e-06
8.9786e-06
8.85111e-06
8.77007e-06
8.7368e-06
8.74981e-06
8.80615e-06
8.90158e-06
9.02965e-06
9.18364e-06
9.35668e-06
9.54141e-06
9.73041e-06
9.91684e-06
1.0095e-05
1.02607e-05
1.0411e-05
1.05446e-05
1.06612e-05
1.07614e-05
1.08457e-05
1.09143e-05
1.0968e-05
1.10083e-05
1.10374e-05
1.10572e-05
1.10693e-05
1.10747e-05
1.10743e-05
1.10683e-05
1.10571e-05
1.10409e-05
1.10202e-05
1.09945e-05
1.09632e-05
1.09256e-05
1.08808e-05
1.08283e-05
1.07676e-05
1.06992e-05
1.06247e-05
1.05461e-05
1.04646e-05
1.03807e-05
1.02951e-05
1.02087e-05
1.01226e-05
1.00381e-05
9.95681e-06
9.88078e-06
9.81248e-06
4.30742e-06
1.84484e-07
4.11905e-06
1.88375e-07
3.92751e-06
1.91531e-07
3.73352e-06
1.93995e-07
3.53774e-06
1.95775e-07
3.34102e-06
1.96728e-07
3.14473e-06
1.9629e-07
2.95096e-06
1.93764e-07
2.76166e-06
1.89306e-07
2.57797e-06
1.83682e-07
2.40056e-06
1.77418e-07
2.22984e-06
1.70716e-07
1.63591e-07
2.06625e-06
1.0318e-05
3.08437e-07
1.01879e-05
3.1846e-07
1.00522e-05
3.27217e-07
9.9114e-06
3.34775e-07
9.76599e-06
3.41186e-07
9.61628e-06
3.46439e-07
9.462e-06
3.50577e-07
9.30213e-06
3.53633e-07
9.13593e-06
3.55505e-07
8.96342e-06
3.56188e-07
8.78495e-06
3.55892e-07
8.60085e-06
3.54818e-07
3.53076e-07
8.41136e-06
1.27822e-05
3.67666e-07
1.27187e-05
3.82048e-07
1.2651e-05
3.94831e-07
1.25798e-05
4.06036e-07
1.25053e-05
4.15713e-07
1.24277e-05
4.23942e-07
1.23475e-05
4.308e-07
1.22648e-05
4.3637e-07
1.21795e-05
4.40747e-07
1.20917e-05
4.44077e-07
1.2001e-05
4.46556e-07
1.19074e-05
4.48365e-07
4.49639e-07
1.18109e-05
1.35934e-05
3.95569e-07
1.35628e-05
4.12622e-07
1.353e-05
4.27691e-07
1.34952e-05
4.40833e-07
1.34587e-05
4.52132e-07
1.3421e-05
4.61693e-07
1.33822e-05
4.69629e-07
1.33425e-05
4.76079e-07
1.3302e-05
4.81231e-07
1.32607e-05
4.8534e-07
1.32186e-05
4.88642e-07
1.31757e-05
4.91283e-07
4.93401e-07
1.31319e-05
1.38245e-05
4.13758e-07
1.38046e-05
4.32577e-07
1.37833e-05
4.48997e-07
1.3761e-05
4.63085e-07
1.37382e-05
4.74966e-07
1.37151e-05
4.84784e-07
1.3692e-05
4.92693e-07
1.36692e-05
4.98857e-07
1.36469e-05
5.03532e-07
1.36251e-05
5.07149e-07
1.36037e-05
5.10056e-07
1.35827e-05
5.12285e-07
5.13942e-07
1.35622e-05
1.38925e-05
4.07667e-07
1.38754e-05
4.30928e-07
1.38567e-05
4.51253e-07
1.3837e-05
4.6872e-07
1.38166e-05
4.83405e-07
1.37961e-05
4.95461e-07
1.37758e-05
5.05094e-07
1.3756e-05
5.12542e-07
1.37368e-05
5.18053e-07
1.37184e-05
5.21872e-07
1.37014e-05
5.24183e-07
1.36862e-05
5.25259e-07
1.3673e-05
5.2552e-07
5.25368e-07
1.36616e-05
1.39073e-05
4.25595e-07
1.38874e-05
4.50775e-07
1.38662e-05
4.72453e-07
1.38442e-05
4.90719e-07
1.38219e-05
5.05701e-07
1.37998e-05
5.17597e-07
1.37782e-05
5.26659e-07
1.37576e-05
5.33165e-07
1.37383e-05
5.37422e-07
1.37204e-05
5.39741e-07
1.37041e-05
5.40418e-07
1.36896e-05
5.39764e-07
1.3677e-05
5.38166e-07
5.36019e-07
1.36663e-05
1.39214e-05
4.47868e-07
1.38972e-05
4.74933e-07
1.38718e-05
4.97839e-07
1.38459e-05
5.16694e-07
1.38199e-05
5.31689e-07
1.37944e-05
5.43072e-07
1.37699e-05
5.51152e-07
1.37468e-05
5.56271e-07
1.37254e-05
5.58807e-07
1.3706e-05
5.59137e-07
1.36888e-05
5.57653e-07
1.36738e-05
5.54764e-07
1.36611e-05
5.50874e-07
5.46353e-07
1.36507e-05
1.39404e-05
4.75462e-07
1.39109e-05
5.04402e-07
1.38803e-05
5.28411e-07
1.38494e-05
5.47633e-07
1.38187e-05
5.62331e-07
1.3789e-05
5.72808e-07
1.37607e-05
5.79461e-07
1.37342e-05
5.82727e-07
1.371e-05
5.83049e-07
1.36882e-05
5.80885e-07
1.36692e-05
5.76737e-07
1.36529e-05
5.71057e-07
1.36395e-05
5.64275e-07
5.56843e-07
1.3629e-05
1.39641e-05
5.09316e-07
1.39284e-05
5.40097e-07
1.38917e-05
5.65031e-07
1.3855e-05
5.84336e-07
1.3819e-05
5.98323e-07
1.37844e-05
6.0742e-07
1.37518e-05
6.12127e-07
1.37215e-05
6.1296e-07
1.36941e-05
6.10495e-07
1.36697e-05
6.05284e-07
1.36486e-05
5.97867e-07
1.36308e-05
5.88784e-07
1.36165e-05
5.7856e-07
5.67754e-07
1.36056e-05
1.39919e-05
5.50578e-07
1.39489e-05
5.83129e-07
1.39052e-05
6.08742e-07
1.38618e-05
6.27713e-07
1.38196e-05
6.40481e-07
1.37794e-05
6.476e-07
1.37419e-05
6.49679e-07
1.37075e-05
6.47398e-07
1.36765e-05
6.41442e-07
1.36493e-05
6.32479e-07
1.3626e-05
6.2114e-07
1.36068e-05
6.0803e-07
1.35916e-05
5.93785e-07
5.79084e-07
1.35802e-05
1.40233e-05
6.00652e-07
1.39716e-05
6.34836e-07
1.39196e-05
6.60756e-07
1.38685e-05
6.78866e-07
1.38192e-05
6.89745e-07
1.37727e-05
6.94106e-07
1.37296e-05
6.92741e-07
1.36905e-05
6.86486e-07
1.36558e-05
6.7619e-07
1.36256e-05
6.62665e-07
1.36001e-05
6.46637e-07
1.35793e-05
6.28798e-07
1.35632e-05
6.09902e-07
5.90719e-07
1.35516e-05
1.4058e-05
6.61257e-07
1.3996e-05
6.96804e-07
1.39342e-05
7.22538e-07
1.3874e-05
7.39066e-07
1.38166e-05
7.47177e-07
1.37629e-05
7.47807e-07
1.37137e-05
7.41965e-07
1.36695e-05
7.30695e-07
1.36306e-05
7.15044e-07
1.35973e-05
6.95991e-07
1.35695e-05
6.74382e-07
1.35473e-05
6.51018e-07
1.35304e-05
6.26767e-07
6.02451e-07
1.35187e-05
1.40953e-05
7.3444e-07
1.40211e-05
7.70974e-07
1.39479e-05
7.95806e-07
1.38772e-05
8.09779e-07
1.38104e-05
8.13978e-07
1.37485e-05
8.09632e-07
1.36925e-05
7.9803e-07
1.36427e-05
7.80476e-07
1.35995e-05
7.58253e-07
1.35629e-05
7.32534e-07
1.3533e-05
7.04313e-07
1.35095e-05
6.74515e-07
1.34922e-05
6.4411e-07
6.13948e-07
1.34807e-05
1.41347e-05
8.22768e-07
1.4046e-05
8.59678e-07
1.39592e-05
8.82581e-07
1.38763e-05
8.92689e-07
1.37988e-05
8.91478e-07
1.37279e-05
8.80566e-07
1.36643e-05
8.61603e-07
1.36086e-05
8.36216e-07
1.35609e-05
8.0597e-07
1.35211e-05
7.72256e-07
1.34892e-05
7.36238e-07
1.34647e-05
6.98977e-07
1.34473e-05
6.61527e-07
6.24755e-07
1.34365e-05
1.41753e-05
9.29432e-07
1.40692e-05
9.65758e-07
1.39665e-05
9.85284e-07
1.38695e-05
9.89742e-07
1.37798e-05
9.81145e-07
1.36987e-05
9.61627e-07
1.3627e-05
9.33301e-07
1.35651e-05
8.98191e-07
1.35128e-05
8.58187e-07
1.34702e-05
8.14931e-07
1.34366e-05
7.69771e-07
1.34117e-05
7.23904e-07
1.33948e-05
6.78446e-07
6.34265e-07
1.33853e-05
1.42157e-05
1.05832e-06
1.40888e-05
1.09259e-06
1.39674e-05
1.10669e-06
1.38541e-05
1.10309e-06
1.37507e-05
1.08452e-06
1.36585e-05
1.0538e-06
1.35782e-05
1.01362e-06
1.35099e-05
9.66497e-07
1.34534e-05
9.14687e-07
1.34082e-05
8.60105e-07
1.33737e-05
8.04293e-07
1.3349e-05
7.4857e-07
1.33334e-05
6.94086e-07
6.41688e-07
1.3326e-05
1.42537e-05
1.21444e-06
1.41019e-05
1.24438e-06
1.39585e-05
1.2501e-06
1.38265e-05
1.23511e-06
1.37078e-05
1.20315e-06
1.36037e-05
1.1579e-06
1.35146e-05
1.10279e-06
1.34402e-05
1.04089e-06
1.338e-05
9.74876e-07
1.33331e-05
9.06946e-07
1.32986e-05
8.38823e-07
1.32753e-05
7.71918e-07
1.3262e-05
7.07378e-07
6.45989e-07
1.32577e-05
1.42869e-05
1.40399e-06
1.41051e-05
1.42616e-06
1.39359e-05
1.41931e-06
1.37826e-05
1.38843e-06
1.36472e-05
1.33859e-06
1.35305e-05
1.27459e-06
1.34325e-05
1.20073e-06
1.33527e-05
1.12074e-06
1.32898e-05
1.03775e-06
1.32425e-05
9.54217e-07
1.32094e-05
8.71996e-07
1.31887e-05
7.92544e-07
1.31792e-05
7.16944e-07
6.45864e-07
1.31793e-05
1.43135e-05
1.6359e-06
1.40949e-05
1.64479e-06
1.3895e-05
1.61916e-06
1.37174e-05
1.56605e-06
1.35637e-05
1.49229e-06
1.34342e-05
1.40411e-06
1.33281e-05
1.30681e-06
1.3244e-05
1.20481e-06
1.31801e-05
1.10168e-06
1.31342e-05
1.00007e-06
1.31043e-05
9.01888e-07
1.30883e-05
8.08563e-07
1.30842e-05
7.21027e-07
6.39736e-07
1.30904e-05
1.43451e-05
1.92192e-06
1.408e-05
1.90982e-06
1.38424e-05
1.85681e-06
1.36356e-05
1.77281e-06
1.34609e-05
1.66704e-06
1.33174e-05
1.54757e-06
1.32034e-05
1.42086e-06
1.31162e-05
1.29203e-06
1.30528e-05
1.16507e-06
1.30102e-05
1.04261e-06
1.29857e-05
9.26455e-07
1.29763e-05
8.17886e-07
1.29798e-05
7.1759e-07
6.25716e-07
1.29938e-05
1.435e-05
2.26275e-06
1.40389e-05
2.22092e-06
1.37646e-05
2.13114e-06
1.35306e-05
2.00687e-06
1.33372e-05
1.86038e-06
1.31827e-05
1.70208e-06
1.30638e-05
1.53971e-06
1.29769e-05
1.37901e-06
1.29175e-05
1.22443e-06
1.28817e-05
1.07838e-06
1.28657e-05
9.42469e-07
1.2866e-05
8.17655e-07
1.28794e-05
7.04186e-07
6.01768e-07
1.29033e-05
1.42162e-05
2.64505e-06
1.38734e-05
2.5637e-06
1.35776e-05
2.42693e-06
1.33315e-05
2.25299e-06
1.31341e-05
2.05777e-06
1.2982e-05
1.85427e-06
1.28703e-05
1.6514e-06
1.27939e-05
1.45535e-06
1.27473e-05
1.27107e-06
1.27255e-05
1.10018e-06
1.2724e-05
9.43928e-07
1.2739e-05
8.02662e-07
1.27664e-05
6.76789e-07
5.65643e-07
1.28025e-05
1.37621e-05
3.02286e-06
1.3426e-05
2.8998e-06
1.31423e-05
2.71071e-06
1.29142e-05
2.481e-06
1.27402e-05
2.23187e-06
1.26145e-05
1.97995e-06
1.25309e-05
1.73498e-06
1.2483e-05
1.50319e-06
1.24638e-05
1.29037e-06
1.24676e-05
1.09631e-06
1.24892e-05
9.22367e-07
1.25239e-05
7.67934e-07
1.25673e-05
6.33393e-07
5.17164e-07
1.26158e-05
1.26995e-05
3.28095e-06
1.24664e-05
3.13284e-06
1.22739e-05
2.90321e-06
1.21263e-05
2.62865e-06
1.20236e-05
2.3345e-06
1.19632e-05
2.04045e-06
1.19381e-05
1.76006e-06
1.19422e-05
1.49906e-06
1.19683e-05
1.26424e-06
1.20114e-05
1.05322e-06
1.20662e-05
8.67584e-07
1.21288e-05
7.05338e-07
1.21922e-05
5.69977e-07
4.59509e-07
1.22499e-05
1.05587e-05
3.24741e-06
1.05904e-05
3.10111e-06
1.06273e-05
2.8663e-06
1.06746e-05
2.58142e-06
1.07355e-05
2.27353e-06
1.08099e-05
1.96608e-06
1.08959e-05
1.67408e-06
1.09899e-05
1.40502e-06
1.10862e-05
1.16794e-06
1.11831e-05
9.56281e-07
1.12763e-05
7.74445e-07
1.1364e-05
6.1758e-07
1.14394e-05
4.94602e-07
4.04588e-07
1.14943e-05
7.29077e-06
2.84292e-06
7.67571e-06
2.71617e-06
8.03139e-06
2.51063e-06
8.35817e-06
2.25464e-06
8.65587e-06
1.97583e-06
8.92384e-06
1.69811e-06
9.16479e-06
1.43313e-06
9.37914e-06
1.19067e-06
9.56844e-06
9.78644e-07
9.73325e-06
7.91477e-07
9.87097e-06
6.36724e-07
9.97295e-06
5.15597e-07
1.00294e-05
4.38165e-07
4.03536e-07
1.00304e-05
3.34639e-06
2.08294e-06
4.06658e-06
1.99597e-06
4.73082e-06
1.84639e-06
5.33102e-06
1.65443e-06
5.85894e-06
1.44791e-06
6.31207e-06
1.24498e-06
6.68909e-06
1.05612e-06
6.98892e-06
8.90838e-07
7.21337e-06
7.54188e-07
7.3632e-06
6.41648e-07
7.44522e-06
5.54704e-07
7.46674e-06
4.94083e-07
7.4362e-06
4.68697e-07
4.7966e-07
7.36008e-06
-1.03168e-06
1.09612e-06
-8.78627e-08
1.05216e-06
7.8534e-07
9.73192e-07
1.55638e-06
8.83392e-07
2.21962e-06
7.84669e-07
2.77628e-06
6.88322e-07
3.24037e-06
5.92024e-07
3.6215e-06
5.09713e-07
3.92746e-06
4.48228e-07
4.16889e-06
4.00212e-07
4.35204e-06
3.71553e-07
4.47558e-06
3.70544e-07
4.52244e-06
4.21843e-07
5.12472e-07
4.48962e-06
-4.08089e-06
-3.02873e-06
-2.05554e-06
-1.17215e-06
-3.87481e-07
3.00842e-07
8.92866e-07
1.40258e-06
1.85081e-06
2.25102e-06
2.62257e-06
2.99312e-06
3.41496e-06
3.92743e-06
1.90985e-06
1.56404e-07
1.76145e-06
1.48392e-07
1.62147e-06
1.39985e-07
1.49025e-06
1.3122e-07
1.36814e-06
1.2211e-07
1.25571e-06
1.12424e-07
1.15362e-06
1.02091e-07
1.06289e-06
9.07373e-08
9.85255e-07
7.76301e-08
9.23369e-07
6.18864e-08
8.79911e-07
4.34582e-08
8.55714e-07
2.41965e-08
8.48431e-07
7.28275e-09
8.55916e-07
-7.48455e-09
8.76437e-07
-2.0521e-08
9.03573e-07
-2.7136e-08
9.30138e-07
-2.65647e-08
9.49598e-07
-1.94601e-08
9.55121e-07
-5.52334e-09
9.47468e-07
7.65347e-09
9.27133e-07
2.03347e-08
8.94632e-07
3.25011e-08
8.5469e-07
3.99428e-08
8.09534e-07
4.5156e-08
7.55609e-07
5.39248e-08
6.84725e-07
7.0884e-08
5.86477e-07
9.82484e-08
4.54035e-07
1.32442e-07
2.82314e-07
1.71721e-07
7.07756e-08
2.11539e-07
-1.7331e-07
2.44086e-07
-4.43772e-07
2.70462e-07
-7.22896e-07
2.79124e-07
-9.89793e-07
2.66897e-07
-1.22581e-06
2.36016e-07
-1.41666e-06
1.90855e-07
-1.55277e-06
1.36103e-07
-1.62899e-06
7.62274e-08
-1.64379e-06
1.4793e-08
-1.6166e-06
-2.71861e-08
-1.55004e-06
-6.65632e-08
-1.4516e-06
-9.84424e-08
-1.33005e-06
-1.21548e-07
-1.19181e-06
-1.38242e-07
-1.04194e-06
-1.49867e-07
-8.83673e-07
-1.58266e-07
-7.18493e-07
-1.6518e-07
-5.47702e-07
-1.70791e-07
-3.7309e-07
-1.74612e-07
-1.97298e-07
-1.75792e-07
-2.43444e-08
-1.72954e-07
1.40054e-07
-1.64398e-07
2.90793e-07
-1.50739e-07
4.24903e-07
-1.3411e-07
5.42993e-07
-1.18091e-07
6.4844e-07
-1.05446e-07
7.46175e-07
-9.77359e-08
8.38431e-07
-9.22554e-08
9.22534e-07
-8.41037e-08
9.89092e-07
-6.6558e-08
1.01467e-06
-2.55734e-08
9.7856e-07
3.61057e-08
8.50352e-07
1.28207e-07
6.03069e-07
2.47283e-07
2.25087e-07
3.77982e-07
-2.72396e-07
4.97483e-07
-8.51464e-07
5.79068e-07
-1.45307e-06
6.01607e-07
-2.00326e-06
5.50186e-07
-2.45165e-06
4.48398e-07
-2.75774e-06
3.06088e-07
-2.88844e-06
1.30702e-07
-2.85343e-06
-3.50128e-08
-2.68544e-06
-1.67995e-07
-2.39674e-06
-2.88692e-07
-2.01747e-06
-3.7927e-07
-1.58588e-06
-4.31589e-07
-1.13088e-06
-4.55004e-07
-6.75071e-07
-4.5581e-07
-2.35962e-07
-4.39109e-07
1.73246e-07
-4.09208e-07
5.43587e-07
-3.70341e-07
8.73698e-07
-3.30112e-07
1.16283e-06
-2.89131e-07
1.40968e-06
-2.46853e-07
1.61594e-06
-2.06261e-07
1.78551e-06
-1.69569e-07
1.92307e-06
-1.37563e-07
2.03365e-06
-1.10578e-07
2.1223e-06
-8.86515e-08
2.19394e-06
-7.16372e-08
2.25108e-06
-5.71388e-08
2.29461e-06
-4.35307e-08
2.32533e-06
-3.07144e-08
2.34401e-06
-1.86828e-08
2.35224e-06
-8.22856e-09
2.35015e-06
2.08972e-09
2.3383e-06
1.18448e-08
2.31683e-06
2.14713e-08
2.28465e-06
3.2185e-08
2.23843e-06
4.62184e-08
2.17355e-06
6.48744e-08
2.08655e-06
8.70074e-08
1.9757e-06
1.1085e-07
1.84122e-06
1.34471e-07
1.6857e-06
1.55526e-07
1.51404e-06
1.71658e-07
1.33265e-06
1.81393e-07
1.14845e-06
1.84196e-07
9.68381e-07
1.80068e-07
7.98808e-07
1.69573e-07
6.4478e-07
1.54028e-07
5.10502e-07
1.34278e-07
3.99805e-07
1.10697e-07
3.15675e-07
8.41305e-08
2.60007e-07
5.56674e-08
2.33944e-07
2.60631e-08
2.33853e-07
9.13493e-11
2.5585e-07
-2.19968e-08
2.99099e-07
-4.32497e-08
3.60878e-07
-6.17785e-08
4.38258e-07
-7.73801e-08
5.28213e-07
-8.99552e-08
6.27631e-07
-9.94176e-08
7.33334e-07
-1.05703e-07
8.42412e-07
-1.09078e-07
-1.10053e-07
8.21616e-06
3.51603e-07
8.01583e-06
3.48727e-07
7.81042e-06
3.45391e-07
7.6e-06
3.41639e-07
7.38457e-06
3.37544e-07
7.16393e-06
3.33061e-07
6.9379e-06
3.28123e-07
6.70602e-06
3.22613e-07
6.46719e-06
3.16461e-07
6.21917e-06
3.09906e-07
5.95879e-06
3.03846e-07
5.6835e-06
2.99483e-07
5.39405e-06
2.96735e-07
5.09165e-06
2.94914e-07
4.77673e-06
2.94401e-07
4.45391e-06
2.95678e-07
4.13013e-06
2.97217e-07
3.81388e-06
2.96792e-07
3.51478e-06
2.9358e-07
3.23635e-06
2.86084e-07
2.98303e-06
2.73649e-07
2.75868e-06
2.56858e-07
2.55957e-06
2.39049e-07
2.37736e-06
2.27366e-07
2.20203e-06
2.29256e-07
2.02403e-06
2.48881e-07
1.83517e-06
2.87108e-07
1.62893e-06
3.38685e-07
1.40298e-06
3.97671e-07
1.1585e-06
4.56016e-07
8.99724e-07
5.02863e-07
6.42857e-07
5.27329e-07
4.00878e-07
5.21103e-07
1.83641e-07
4.84134e-07
4.84197e-09
4.14815e-07
-1.23868e-07
3.19564e-07
-1.95465e-07
2.077e-07
-2.10416e-07
9.1178e-08
-1.8513e-07
-1.04929e-08
-1.20218e-07
-9.20971e-08
-2.58021e-08
-1.6098e-07
8.67674e-08
-2.11012e-07