/*--------------------------------*- C++ -*----------------------------------*\
| =========                 |                                                 |
| \\      /  F ield         | OpenFOAM: The Open Source CFD Toolbox           |
|  \\    /   O peration     | Version:  2206                                  |
|   \\  /    A nd           | Website:  www.openfoam.com                      |
|    \\/     M anipulation  |                                                 |
\*---------------------------------------------------------------------------*/
FoamFile
{
    version     2.0;
    format      ascii;
    arch        "LSB;label=32;scalar=64";
    class       volVectorField;
    location    "19.4001";
    object      U_0;
}
// * * * * * * * * * * * * * * * * * * * * * * * * * * * * * * * * * * * * * //

dimensions      [0 1 -1 0 0 0 0];

internalField   nonuniform List<vector> 
4830
(
(1.28071 -0.159398 0)
(1.27331 -0.0991027 0)
(1.26886 -0.0378757 0)
(1.26724 0.0228865 0)
(1.26825 0.0821679 0)
(1.27163 0.139079 0)
(1.27705 0.192858 0)
(1.28413 0.242874 0)
(1.29246 0.288659 0)
(1.30161 0.329914 0)
(1.3112 0.366514 0)
(1.32087 0.39847 0)
(1.33034 0.425851 0)
(1.33936 0.448739 0)
(1.34775 0.467201 0)
(1.35545 0.481284 0)
(1.36243 0.491001 0)
(1.36882 0.496257 0)
(1.3753 0.496107 0)
(1.38157 0.489225 0)
(1.38798 0.47515 0)
(1.39474 0.453606 0)
(1.402 0.424426 0)
(1.40991 0.387638 0)
(1.41858 0.343532 0)
(1.42803 0.292706 0)
(1.43827 0.23608 0)
(1.44923 0.174896 0)
(1.46082 0.11074 0)
(1.47276 0.0456738 0)
(1.4847 -0.0181939 0)
(1.49638 -0.0794342 0)
(1.50752 -0.136796 0)
(1.51782 -0.189275 0)
(1.52703 -0.23615 0)
(1.53493 -0.276999 0)
(1.54138 -0.311696 0)
(1.54626 -0.340378 0)
(1.54953 -0.363392 0)
(1.55117 -0.38124 0)
(1.55123 -0.39451 0)
(1.54984 -0.40381 0)
(1.54699 -0.409705 0)
(1.54246 -0.412479 0)
(1.53643 -0.412292 0)
(1.52903 -0.409674 0)
(1.5205 -0.404851 0)
(1.51115 -0.397782 0)
(1.5013 -0.388215 0)
(1.4913 -0.375729 0)
(1.48149 -0.359809 0)
(1.4722 -0.339918 0)
(1.46376 -0.315576 0)
(1.45642 -0.286423 0)
(1.45043 -0.252278 0)
(1.44598 -0.213177 0)
(1.44325 -0.169358 0)
(1.44235 -0.121321 0)
(1.44334 -0.0697993 0)
(1.44613 -0.0157012 0)
(1.45054 0.0398013 0)
(1.45628 0.0951912 0)
(1.46307 0.149328 0)
(1.47069 0.201328 0)
(1.47886 0.25042 0)
(1.48736 0.295943 0)
(1.49596 0.33739 0)
(1.50449 0.37438 0)
(1.51282 0.406639 0)
(1.52086 0.433987 0)
(1.52854 0.456359 0)
(1.53578 0.473784 0)
(1.54246 0.48646 0)
(1.54842 0.494734 0)
(1.55374 0.498916 0)
(1.55905 0.498273 0)
(1.5639 0.49154 0)
(1.56822 0.478632 0)
(1.57202 0.459742 0)
(1.57536 0.435016 0)
(1.57829 0.404599 0)
(1.58085 0.368702 0)
(1.58302 0.327639 0)
(1.58482 0.281853 0)
(1.5862 0.23193 0)
(1.58717 0.178607 0)
(1.5877 0.12281 0)
(1.58778 0.0657508 0)
(1.58736 0.00898781 0)
(1.58638 -0.0463246 0)
(1.58478 -0.0991962 0)
(1.58252 -0.148744 0)
(1.57955 -0.194233 0)
(1.57581 -0.235108 0)
(1.57127 -0.271002 0)
(1.56594 -0.301736 0)
(1.55981 -0.327302 0)
(1.55293 -0.347839 0)
(1.54533 -0.363585 0)
(1.53712 -0.374825 0)
(1.52833 -0.381789 0)
(1.51884 -0.384503 0)
(1.50888 -0.382997 0)
(1.49853 -0.377625 0)
(1.48792 -0.368717 0)
(1.4772 -0.356551 0)
(1.46651 -0.341366 0)
(1.456 -0.323367 0)
(1.44578 -0.302747 0)
(1.43597 -0.2797 0)
(1.42667 -0.254427 0)
(1.41797 -0.227146 0)
(1.40998 -0.198087 0)
(1.40277 -0.167493 0)
(1.39644 -0.135626 0)
(1.39105 -0.102765 0)
(1.38668 -0.069218 0)
(1.38339 -0.035355 0)
(1.38121 -0.00158491 0)
(1.38016 0.0317673 0)
(1.38019 0.0643586 0)
(1.3813 0.0958347 0)
(1.38341 0.125842 0)
(1.38646 0.154039 0)
(1.39038 0.180109 0)
(1.39509 0.203763 0)
(1.4005 0.224742 0)
(1.40654 0.242834 0)
(1.41312 0.25787 0)
(1.42017 0.269728 0)
(1.42762 0.27832 0)
(1.43545 0.283505 0)
(1.4438 0.284917 0)
(1.45247 0.28222 0)
(1.46151 0.275404 0)
(1.47087 0.264513 0)
(1.4805 0.249652 0)
(1.49035 0.230988 0)
(1.29205 -0.149365 0)
(1.28452 -0.0923724 0)
(1.27988 -0.0343333 0)
(1.27801 0.0234081 0)
(1.2787 0.0799192 0)
(1.28172 0.134376 0)
(1.28678 0.186073 0)
(1.29353 0.234432 0)
(1.3016 0.279007 0)
(1.3106 0.319489 0)
(1.32018 0.355711 0)
(1.33001 0.387629 0)
(1.33983 0.415257 0)
(1.34945 0.438606 0)
(1.35872 0.457653 0)
(1.36759 0.47234 0)
(1.376 0.482572 0)
(1.38414 0.488112 0)
(1.39251 0.487939 0)
(1.40087 0.480902 0)
(1.40952 0.466523 0)
(1.41857 0.444502 0)
(1.42809 0.414701 0)
(1.43818 0.377197 0)
(1.44885 0.332336 0)
(1.4601 0.280765 0)
(1.47186 0.223451 0)
(1.48405 0.161691 0)
(1.49651 0.0971622 0)
(1.50892 0.0321264 0)
(1.52095 -0.031408 0)
(1.53233 -0.091998 0)
(1.54281 -0.148399 0)
(1.55212 -0.199632 0)
(1.56006 -0.245023 0)
(1.56646 -0.284209 0)
(1.57123 -0.317126 0)
(1.57432 -0.343971 0)
(1.57575 -0.36515 0)
(1.57556 -0.381213 0)
(1.57386 -0.392778 0)
(1.57076 -0.400444 0)
(1.56605 -0.404653 0)
(1.55973 -0.405562 0)
(1.55196 -0.403779 0)
(1.54288 -0.399821 0)
(1.53276 -0.393935 0)
(1.52184 -0.386133 0)
(1.51043 -0.376197 0)
(1.49886 -0.363732 0)
(1.48748 -0.348228 0)
(1.47664 -0.329135 0)
(1.4667 -0.305934 0)
(1.45796 -0.278221 0)
(1.45068 -0.245763 0)
(1.44508 -0.208538 0)
(1.4413 -0.166752 0)
(1.4395 -0.120864 0)
(1.43962 -0.0715301 0)
(1.44176 -0.019468 0)
(1.44572 0.0342736 0)
(1.45124 0.0882119 0)
(1.45807 0.141152 0)
(1.46596 0.192236 0)
(1.47466 0.24069 0)
(1.48394 0.285838 0)
(1.49356 0.327126 0)
(1.50335 0.364133 0)
(1.51316 0.396554 0)
(1.52285 0.424188 0)
(1.5323 0.44696 0)
(1.5414 0.464912 0)
(1.55003 0.478208 0)
(1.5581 0.487096 0)
(1.56573 0.491694 0)
(1.57335 0.491307 0)
(1.58052 0.485033 0)
(1.58728 0.472696 0)
(1.59356 0.454367 0)
(1.59935 0.430162 0)
(1.60464 0.400243 0)
(1.60945 0.364845 0)
(1.61374 0.324302 0)
(1.61746 0.279069 0)
(1.62058 0.229736 0)
(1.62304 0.177037 0)
(1.62481 0.12189 0)
(1.62585 0.0655225 0)
(1.6261 0.00951303 0)
(1.62549 -0.0449917 0)
(1.624 -0.0969995 0)
(1.62157 -0.145635 0)
(1.61818 -0.190175 0)
(1.61383 -0.230077 0)
(1.60852 -0.264997 0)
(1.60227 -0.294779 0)
(1.59514 -0.319438 0)
(1.58719 -0.339127 0)
(1.57851 -0.354097 0)
(1.56918 -0.36463 0)
(1.55922 -0.370924 0)
(1.54859 -0.372998 0)
(1.53756 -0.370991 0)
(1.52616 -0.365283 0)
(1.51455 -0.3562 0)
(1.50288 -0.344022 0)
(1.49129 -0.328982 0)
(1.47992 -0.311277 0)
(1.4689 -0.291086 0)
(1.45835 -0.26859 0)
(1.44838 -0.243979 0)
(1.43907 -0.217458 0)
(1.43051 -0.189252 0)
(1.42277 -0.159601 0)
(1.41593 -0.128763 0)
(1.41005 -0.0970078 0)
(1.4052 -0.0646374 0)
(1.40144 -0.0320161 0)
(1.39882 0.00049422 0)
(1.39733 0.0325886 0)
(1.39698 0.0639435 0)
(1.39774 0.0942262 0)
(1.39958 0.123101 0)
(1.40243 0.150239 0)
(1.40624 0.17533 0)
(1.41092 0.198089 0)
(1.41642 0.218264 0)
(1.42264 0.235642 0)
(1.42951 0.250049 0)
(1.43695 0.261354 0)
(1.44486 0.269443 0)
(1.45327 0.274128 0)
(1.46225 0.275022 0)
(1.47161 0.271875 0)
(1.48137 0.264675 0)
(1.49145 0.25346 0)
(1.50179 0.238339 0)
(1.51231 0.219478 0)
(1.30562 -0.139191 0)
(1.29799 -0.0854922 0)
(1.29324 -0.0305956 0)
(1.2912 0.0242031 0)
(1.29165 0.0779972 0)
(1.2944 0.130023 0)
(1.29917 0.179627 0)
(1.30566 0.226271 0)
(1.31353 0.269533 0)
(1.32245 0.3091 0)
(1.3321 0.344771 0)
(1.34217 0.376445 0)
(1.35246 0.404066 0)
(1.3628 0.427578 0)
(1.37307 0.44689 0)
(1.38323 0.461865 0)
(1.3932 0.472322 0)
(1.40319 0.477874 0)
(1.41357 0.477452 0)
(1.42412 0.470092 0)
(1.43508 0.455315 0)
(1.44647 0.432811 0)
(1.4583 0.402469 0)
(1.47057 0.364408 0)
(1.48325 0.319017 0)
(1.49625 0.266987 0)
(1.50947 0.209327 0)
(1.52277 0.147388 0)
(1.53595 0.0829333 0)
(1.54864 0.018385 0)
(1.56054 -0.0443682 0)
(1.57139 -0.10388 0)
(1.58096 -0.158926 0)
(1.58904 -0.208571 0)
(1.59547 -0.252197 0)
(1.60016 -0.289507 0)
(1.60307 -0.320504 0)
(1.60423 -0.345447 0)
(1.60371 -0.364792 0)
(1.60162 -0.379119 0)
(1.59813 -0.389042 0)
(1.59317 -0.395085 0)
(1.58656 -0.397471 0)
(1.5785 -0.396663 0)
(1.56906 -0.393398 0)
(1.55842 -0.388177 0)
(1.5468 -0.381285 0)
(1.53443 -0.372778 0)
(1.52158 -0.36248 0)
(1.50856 -0.350031 0)
(1.49573 -0.33494 0)
(1.48343 -0.316659 0)
(1.47203 -0.294654 0)
(1.46186 -0.268484 0)
(1.45324 -0.237862 0)
(1.44641 -0.202696 0)
(1.44151 -0.163104 0)
(1.43877 -0.119431 0)
(1.4382 -0.072306 0)
(1.4392 -0.022479 0)
(1.44281 0.0291527 0)
(1.44809 0.0813564 0)
(1.45491 0.132835 0)
(1.46302 0.182735 0)
(1.47217 0.230278 0)
(1.48212 0.274773 0)
(1.49267 0.315639 0)
(1.5036 0.352423 0)
(1.51475 0.384796 0)
(1.52594 0.412546 0)
(1.53705 0.435584 0)
(1.54794 0.453929 0)
(1.55851 0.467696 0)
(1.56868 0.477034 0)
(1.57855 0.481936 0)
(1.58842 0.481771 0)
(1.5979 0.475863 0)
(1.60705 0.464021 0)
(1.61576 0.446241 0)
(1.62396 0.42261 0)
(1.6316 0.393293 0)
(1.63865 0.358539 0)
(1.64504 0.318694 0)
(1.6507 0.274225 0)
(1.65555 0.225724 0)
(1.65951 0.173919 0)
(1.66252 0.119718 0)
(1.6645 0.0643634 0)
(1.6654 0.00943839 0)
(1.66515 -0.0439342 0)
(1.66372 -0.0947719 0)
(1.66112 -0.142214 0)
(1.65733 -0.185556 0)
(1.65238 -0.224278 0)
(1.64632 -0.258054 0)
(1.6392 -0.286751 0)
(1.63111 -0.310408 0)
(1.62212 -0.329196 0)
(1.61237 -0.343365 0)
(1.60196 -0.353179 0)
(1.59089 -0.358807 0)
(1.57921 -0.360291 0)
(1.56718 -0.357848 0)
(1.55483 -0.351859 0)
(1.54231 -0.342652 0)
(1.52979 -0.330508 0)
(1.51738 -0.315661 0)
(1.50525 -0.298302 0)
(1.49351 -0.278601 0)
(1.48229 -0.256722 0)
(1.47171 -0.232838 0)
(1.46185 -0.20714 0)
(1.4528 -0.179841 0)
(1.44461 -0.151174 0)
(1.43735 -0.12139 0)
(1.43108 -0.0907593 0)
(1.42585 -0.0595771 0)
(1.42173 -0.0282128 0)
(1.41874 0.00301551 0)
(1.41692 0.0338184 0)
(1.41627 0.0638913 0)
(1.41677 0.0929201 0)
(1.4184 0.120587 0)
(1.42112 0.146578 0)
(1.42487 0.170594 0)
(1.42958 0.192357 0)
(1.43519 0.21162 0)
(1.44162 0.228172 0)
(1.44879 0.241844 0)
(1.4566 0.252496 0)
(1.46498 0.25999 0)
(1.47397 0.264086 0)
(1.48353 0.264403 0)
(1.49353 0.260772 0)
(1.50395 0.253173 0)
(1.51469 0.241644 0)
(1.52566 0.226293 0)
(1.53677 0.20729 0)
(1.32077 -0.12891 0)
(1.31306 -0.0785258 0)
(1.30823 -0.0267352 0)
(1.30608 0.0251842 0)
(1.30639 0.0763155 0)
(1.30896 0.125941 0)
(1.31354 0.173447 0)
(1.31986 0.218326 0)
(1.32763 0.260174 0)
(1.33657 0.298677 0)
(1.34639 0.333606 0)
(1.35684 0.364803 0)
(1.36773 0.392148 0)
(1.37892 0.415524 0)
(1.39031 0.434782 0)
(1.40184 0.449733 0)
(1.41346 0.460118 0)
(1.42541 0.465406 0)
(1.43786 0.46454 0)
(1.45068 0.456721 0)
(1.46399 0.441477 0)
(1.47774 0.418505 0)
(1.49186 0.387721 0)
(1.50629 0.349284 0)
(1.52092 0.303621 0)
(1.53559 0.251456 0)
(1.55016 0.193825 0)
(1.56443 0.132122 0)
(1.57815 0.0682492 0)
(1.59093 0.00466498 0)
(1.60247 -0.0568447 0)
(1.61257 -0.114844 0)
(1.62102 -0.168145 0)
(1.62767 -0.215867 0)
(1.63242 -0.25746 0)
(1.63524 -0.292702 0)
(1.63618 -0.321671 0)
(1.63531 -0.344683 0)
(1.6328 -0.362231 0)
(1.62881 -0.374897 0)
(1.62345 -0.383241 0)
(1.61652 -0.387606 0)
(1.60813 -0.38824 0)
(1.59838 -0.385902 0)
(1.58738 -0.381281 0)
(1.57531 -0.374893 0)
(1.56232 -0.367062 0)
(1.54862 -0.357883 0)
(1.53446 -0.34723 0)
(1.52014 -0.334786 0)
(1.50598 -0.320088 0)
(1.49235 -0.3026 0)
(1.4796 -0.281785 0)
(1.46809 -0.257177 0)
(1.45812 -0.228444 0)
(1.45 -0.195426 0)
(1.4439 -0.158181 0)
(1.43997 -0.116948 0)
(1.43854 -0.0722057 0)
(1.43899 -0.0247671 0)
(1.44193 0.0244955 0)
(1.44686 0.0746509 0)
(1.45354 0.12444 0)
(1.46174 0.172911 0)
(1.47121 0.219288 0)
(1.48172 0.262872 0)
(1.49305 0.303068 0)
(1.50498 0.339401 0)
(1.51732 0.371522 0)
(1.5299 0.399201 0)
(1.54255 0.422328 0)
(1.55514 0.440891 0)
(1.56757 0.454951 0)
(1.57975 0.46458 0)
(1.59178 0.46968 0)
(1.60383 0.469695 0)
(1.61557 0.464093 0)
(1.62702 0.452688 0)
(1.63807 0.435443 0)
(1.64861 0.412426 0)
(1.65854 0.383794 0)
(1.66781 0.349804 0)
(1.67629 0.31082 0)
(1.68387 0.267322 0)
(1.69042 0.219904 0)
(1.69584 0.169286 0)
(1.70003 0.116354 0)
(1.70291 0.0623516 0)
(1.70439 0.00884462 0)
(1.70445 -0.0430809 0)
(1.70308 -0.092458 0)
(1.70027 -0.138448 0)
(1.69607 -0.180373 0)
(1.69053 -0.217734 0)
(1.68374 -0.250228 0)
(1.67578 -0.277739 0)
(1.66679 -0.30032 0)
(1.65687 -0.318153 0)
(1.64616 -0.331486 0)
(1.63477 -0.340563 0)
(1.62273 -0.345528 0)
(1.61013 -0.346463 0)
(1.59721 -0.343643 0)
(1.58402 -0.337434 0)
(1.57072 -0.328162 0)
(1.55744 -0.316108 0)
(1.54433 -0.301504 0)
(1.53152 -0.284543 0)
(1.51915 -0.265385 0)
(1.50735 -0.244182 0)
(1.49622 -0.221088 0)
(1.48588 -0.196278 0)
(1.4764 -0.169946 0)
(1.46784 -0.142312 0)
(1.46026 -0.113619 0)
(1.45369 -0.0841333 0)
(1.44819 -0.0541601 0)
(1.4438 -0.0240628 0)
(1.44057 0.00586745 0)
(1.43851 0.0353534 0)
(1.43765 0.0641071 0)
(1.43797 0.0918314 0)
(1.43947 0.118226 0)
(1.44212 0.142993 0)
(1.44586 0.165847 0)
(1.45064 0.186522 0)
(1.4564 0.204779 0)
(1.46305 0.220414 0)
(1.47051 0.233259 0)
(1.4787 0.243168 0)
(1.48752 0.249977 0)
(1.49706 0.253406 0)
(1.50717 0.253109 0)
(1.51776 0.248973 0)
(1.52877 0.240974 0)
(1.54009 0.22915 0)
(1.5516 0.213612 0)
(1.5632 0.194532 0)
(1.33699 -0.11847 0)
(1.32914 -0.0714602 0)
(1.32425 -0.0228015 0)
(1.32204 0.026269 0)
(1.32228 0.0747727 0)
(1.32475 0.122016 0)
(1.32925 0.167412 0)
(1.33552 0.210472 0)
(1.34331 0.250801 0)
(1.35239 0.288083 0)
(1.36251 0.322064 0)
(1.37346 0.352541 0)
(1.38507 0.379343 0)
(1.39723 0.402298 0)
(1.40984 0.421211 0)
(1.42283 0.435848 0)
(1.43617 0.445871 0)
(1.45014 0.450636 0)
(1.4647 0.449156 0)
(1.47978 0.440768 0)
(1.49542 0.425012 0)
(1.51147 0.401607 0)
(1.52782 0.370504 0)
(1.54431 0.331897 0)
(1.56077 0.286248 0)
(1.57698 0.234306 0)
(1.59274 0.177124 0)
(1.6078 0.116123 0)
(1.62185 0.0533317 0)
(1.63446 -0.00877946 0)
(1.6454 -0.0685611 0)
(1.65451 -0.124612 0)
(1.66162 -0.175803 0)
(1.66666 -0.221318 0)
(1.66961 -0.260677 0)
(1.67052 -0.293726 0)
(1.6695 -0.320605 0)
(1.66668 -0.341685 0)
(1.66224 -0.357484 0)
(1.6564 -0.368557 0)
(1.64913 -0.375338 0)
(1.64035 -0.378024 0)
(1.63031 -0.377116 0)
(1.61901 -0.373407 0)
(1.60662 -0.36756 0)
(1.59325 -0.360105 0)
(1.57904 -0.351397 0)
(1.56416 -0.34158 0)
(1.54882 -0.330583 0)
(1.53331 -0.318138 0)
(1.51795 -0.303823 0)
(1.50308 -0.287118 0)
(1.48909 -0.267486 0)
(1.47632 -0.244438 0)
(1.46512 -0.217604 0)
(1.45576 -0.186774 0)
(1.4485 -0.151941 0)
(1.44351 -0.113299 0)
(1.44092 -0.0712177 0)
(1.44077 -0.0263716 0)
(1.44298 0.0204288 0)
(1.4474 0.0683305 0)
(1.4538 0.116171 0)
(1.46194 0.162946 0)
(1.47158 0.207889 0)
(1.4825 0.250302 0)
(1.49446 0.28958 0)
(1.50724 0.325231 0)
(1.52063 0.356886 0)
(1.53444 0.384293 0)
(1.5485 0.407316 0)
(1.56267 0.42591 0)
(1.57684 0.440086 0)
(1.59092 0.449849 0)
(1.60499 0.455042 0)
(1.61911 0.455176 0)
(1.633 0.449821 0)
(1.64665 0.438805 0)
(1.65994 0.422074 0)
(1.67271 0.399683 0)
(1.68486 0.371794 0)
(1.69622 0.338687 0)
(1.70667 0.300739 0)
(1.71604 0.258434 0)
(1.72418 0.212356 0)
(1.73097 0.163204 0)
(1.73628 0.11185 0)
(1.74001 0.0595184 0)
(1.74208 0.00774739 0)
(1.74245 -0.0424275 0)
(1.74113 -0.0900636 0)
(1.73816 -0.134351 0)
(1.73359 -0.174641 0)
(1.72753 -0.210463 0)
(1.72007 -0.241538 0)
(1.71136 -0.26777 0)
(1.70154 -0.289223 0)
(1.69075 -0.306078 0)
(1.67916 -0.318573 0)
(1.66689 -0.326929 0)
(1.65398 -0.331277 0)
(1.64061 -0.33173 0)
(1.62697 -0.328586 0)
(1.61311 -0.322199 0)
(1.59919 -0.312895 0)
(1.58533 -0.30096 0)
(1.57165 -0.286632 0)
(1.55829 -0.270103 0)
(1.54538 -0.251529 0)
(1.53308 -0.231051 0)
(1.52149 -0.208806 0)
(1.51073 -0.184946 0)
(1.50089 -0.159646 0)
(1.49203 -0.133105 0)
(1.48419 -0.105553 0)
(1.47742 -0.0772471 0)
(1.47174 -0.0485042 0)
(1.4672 -0.0196859 0)
(1.46382 0.00893364 0)
(1.46163 0.0370839 0)
(1.46065 0.0644899 0)
(1.46088 0.0908702 0)
(1.46233 0.115941 0)
(1.46496 0.139422 0)
(1.46874 0.161042 0)
(1.47363 0.180549 0)
(1.47955 0.19772 0)
(1.48644 0.212359 0)
(1.4942 0.224301 0)
(1.50273 0.233393 0)
(1.51199 0.239441 0)
(1.52201 0.242137 0)
(1.53261 0.241202 0)
(1.54372 0.236553 0)
(1.55525 0.228163 0)
(1.56705 0.216076 0)
(1.579 0.200406 0)
(1.59098 0.18133 0)
(1.35393 -0.107755 0)
(1.34582 -0.0642446 0)
(1.34079 -0.0188024 0)
(1.33853 0.0273994 0)
(1.33875 0.0732756 0)
(1.34122 0.118132 0)
(1.34573 0.161389 0)
(1.35206 0.202566 0)
(1.36 0.241269 0)
(1.36934 0.277171 0)
(1.37988 0.31 0)
(1.39145 0.339522 0)
(1.4039 0.365522 0)
(1.41711 0.38779 0)
(1.43101 0.406092 0)
(1.44551 0.420145 0)
(1.46063 0.429531 0)
(1.47658 0.433538 0)
(1.49323 0.431309 0)
(1.51052 0.422272 0)
(1.52838 0.405993 0)
(1.54662 0.382226 0)
(1.56505 0.350958 0)
(1.58347 0.312412 0)
(1.60161 0.267074 0)
(1.6192 0.215711 0)
(1.63596 0.159397 0)
(1.65159 0.099602 0)
(1.6657 0.0384818 0)
(1.67792 -0.0216627 0)
(1.68807 -0.0792605 0)
(1.69601 -0.13297 0)
(1.70168 -0.181733 0)
(1.70504 -0.224808 0)
(1.70617 -0.261785 0)
(1.70518 -0.292574 0)
(1.70222 -0.317364 0)
(1.69752 -0.336553 0)
(1.69128 -0.350658 0)
(1.68368 -0.360174 0)
(1.67459 -0.365395 0)
(1.6642 -0.366541 0)
(1.65265 -0.364291 0)
(1.64001 -0.359373 0)
(1.6264 -0.352431 0)
(1.61193 -0.344006 0)
(1.59668 -0.334479 0)
(1.58079 -0.324042 0)
(1.56444 -0.312687 0)
(1.54788 -0.300209 0)
(1.53143 -0.286237 0)
(1.51542 -0.270286 0)
(1.50024 -0.251821 0)
(1.48627 -0.230336 0)
(1.47385 -0.205424 0)
(1.46331 -0.176823 0)
(1.45489 -0.14446 0)
(1.44881 -0.10846 0)
(1.4452 -0.06915 0)
(1.44413 -0.0270695 0)
(1.44555 0.0170889 0)
(1.44937 0.0625074 0)
(1.45539 0.108163 0)
(1.46334 0.152994 0)
(1.47302 0.196249 0)
(1.4842 0.237237 0)
(1.49664 0.27535 0)
(1.5101 0.310086 0)
(1.52438 0.341054 0)
(1.53927 0.367983 0)
(1.55459 0.390706 0)
(1.5702 0.409143 0)
(1.58597 0.423259 0)
(1.6018 0.433003 0)
(1.61773 0.43818 0)
(1.63378 0.438357 0)
(1.64968 0.433185 0)
(1.66539 0.422506 0)
(1.68076 0.406265 0)
(1.69561 0.384526 0)
(1.70976 0.357472 0)
(1.72305 0.325383 0)
(1.73529 0.28864 0)
(1.7463 0.247725 0)
(1.75591 0.203211 0)
(1.76396 0.155773 0)
(1.77032 0.106258 0)
(1.77486 0.055908 0)
(1.77747 0.00615738 0)
(1.77814 -0.0419913 0)
(1.77691 -0.0876328 0)
(1.77382 -0.129994 0)
(1.76896 -0.168457 0)
(1.76246 -0.202585 0)
(1.75445 -0.23212 0)
(1.74511 -0.256984 0)
(1.73461 -0.277248 0)
(1.72311 -0.293089 0)
(1.71079 -0.304734 0)
(1.69779 -0.312383 0)
(1.68419 -0.316163 0)
(1.6702 -0.31621 0)
(1.65597 -0.312821 0)
(1.6416 -0.306329 0)
(1.62721 -0.297049 0)
(1.61291 -0.285266 0)
(1.59882 -0.271228 0)
(1.58506 -0.255138 0)
(1.57176 -0.237158 0)
(1.55906 -0.217426 0)
(1.54709 -0.196066 0)
(1.53599 -0.173208 0)
(1.52584 -0.149 0)
(1.51673 -0.123616 0)
(1.5087 -0.0972637 0)
(1.50178 -0.0701895 0)
(1.49601 -0.0427169 0)
(1.4914 -0.0151978 0)
(1.48798 0.0120967 0)
(1.48576 0.0388976 0)
(1.48476 0.0649371 0)
(1.48499 0.0899459 0)
(1.48645 0.113655 0)
(1.48914 0.135802 0)
(1.49301 0.156132 0)
(1.49803 0.174412 0)
(1.50413 0.190431 0)
(1.51125 0.204009 0)
(1.51928 0.214984 0)
(1.52814 0.223193 0)
(1.5378 0.228415 0)
(1.54823 0.230343 0)
(1.55925 0.228764 0)
(1.5708 0.223609 0)
(1.58274 0.214855 0)
(1.59492 0.202549 0)
(1.60721 0.18681 0)
(1.61946 0.167819 0)
(1.37136 -0.0965754 0)
(1.36281 -0.0567337 0)
(1.35751 -0.0146502 0)
(1.35514 0.0285588 0)
(1.35535 0.0717707 0)
(1.35786 0.114203 0)
(1.36246 0.155268 0)
(1.36896 0.194481 0)
(1.37715 0.231441 0)
(1.38687 0.265809 0)
(1.39794 0.297295 0)
(1.41021 0.325639 0)
(1.42356 0.350599 0)
(1.43789 0.371933 0)
(1.4531 0.389375 0)
(1.46912 0.402593 0)
(1.48601 0.411099 0)
(1.50388 0.414173 0)
(1.52251 0.411101 0)
(1.54187 0.401376 0)
(1.5618 0.384591 0)
(1.58208 0.36054 0)
(1.60244 0.329244 0)
(1.6226 0.290976 0)
(1.6422 0.246271 0)
(1.6609 0.19591 0)
(1.67836 0.140949 0)
(1.69427 0.0828653 0)
(1.7082 0.0239351 0)
(1.71983 -0.0337824 0)
(1.72903 -0.0887897 0)
(1.73573 -0.139822 0)
(1.73992 -0.185897 0)
(1.74164 -0.226345 0)
(1.74102 -0.260829 0)
(1.73824 -0.289317 0)
(1.73352 -0.31204 0)
(1.72709 -0.32941 0)
(1.71921 -0.341905 0)
(1.70996 -0.349914 0)
(1.69933 -0.353629 0)
(1.68758 -0.35342 0)
(1.67476 -0.349996 0)
(1.661 -0.344022 0)
(1.64641 -0.336117 0)
(1.63103 -0.326815 0)
(1.61494 -0.31652 0)
(1.59823 -0.305474 0)
(1.58106 -0.293734 0)
(1.56362 -0.281167 0)
(1.54622 -0.267468 0)
(1.52919 -0.252196 0)
(1.51291 -0.23484 0)
(1.49778 -0.214887 0)
(1.48417 -0.191894 0)
(1.47243 -0.165548 0)
(1.46284 -0.13571 0)
(1.45563 -0.102432 0)
(1.45095 -0.0659707 0)
(1.44889 -0.026768 0)
(1.44944 0.0145718 0)
(1.45255 0.0573063 0)
(1.45805 0.100528 0)
(1.4657 0.143194 0)
(1.47528 0.184526 0)
(1.48655 0.223848 0)
(1.4993 0.260559 0)
(1.51329 0.294146 0)
(1.52829 0.324208 0)
(1.54409 0.350448 0)
(1.56051 0.372673 0)
(1.57738 0.390767 0)
(1.59456 0.404653 0)
(1.61197 0.41423 0)
(1.62959 0.419277 0)
(1.6474 0.419416 0)
(1.66512 0.414363 0)
(1.68269 0.403981 0)
(1.69993 0.388231 0)
(1.71662 0.367199 0)
(1.73256 0.341061 0)
(1.74755 0.3101 0)
(1.76139 0.274703 0)
(1.77388 0.235351 0)
(1.7848 0.1926 0)
(1.79398 0.147098 0)
(1.80129 0.0996692 0)
(1.80655 0.0515632 0)
(1.80967 0.00409286 0)
(1.81065 -0.0417829 0)
(1.80953 -0.0852045 0)
(1.80638 -0.125441 0)
(1.80132 -0.161914 0)
(1.7945 -0.194216 0)
(1.78608 -0.222115 0)
(1.77627 -0.245546 0)
(1.76525 -0.264583 0)
(1.75322 -0.279397 0)
(1.74037 -0.290195 0)
(1.72686 -0.297165 0)
(1.71279 -0.300425 0)
(1.69838 -0.300124 0)
(1.68379 -0.296542 0)
(1.66909 -0.28999 0)
(1.6544 -0.280771 0)
(1.63982 -0.26917 0)
(1.62546 -0.25544 0)
(1.61143 -0.239796 0)
(1.59784 -0.222412 0)
(1.58485 -0.203429 0)
(1.57258 -0.182969 0)
(1.56119 -0.161144 0)
(1.55078 -0.138077 0)
(1.54146 -0.113912 0)
(1.53328 -0.0888234 0)
(1.52627 -0.0630396 0)
(1.52047 -0.0368853 0)
(1.51588 -0.0106962 0)
(1.51249 0.0152513 0)
(1.51033 0.0406872 0)
(1.50941 0.0653458 0)
(1.50972 0.0889659 0)
(1.51128 0.111291 0)
(1.51407 0.132073 0)
(1.51807 0.151077 0)
(1.52325 0.168088 0)
(1.52954 0.182915 0)
(1.53687 0.195388 0)
(1.54515 0.205352 0)
(1.5543 0.212632 0)
(1.56431 0.216985 0)
(1.57507 0.218123 0)
(1.58645 0.215899 0)
(1.59836 0.210246 0)
(1.61062 0.201148 0)
(1.62308 0.188667 0)
(1.63559 0.172929 0)
(1.64795 0.154125 0)
(1.38921 -0.0846735 0)
(1.37996 -0.0487212 0)
(1.37418 -0.0102125 0)
(1.37156 0.0298053 0)
(1.3717 0.070243 0)
(1.37427 0.110165 0)
(1.37901 0.148956 0)
(1.38573 0.186111 0)
(1.39426 0.221207 0)
(1.40443 0.25389 0)
(1.4161 0.283851 0)
(1.42914 0.310814 0)
(1.44343 0.334519 0)
(1.45887 0.354701 0)
(1.47536 0.371063 0)
(1.49286 0.383229 0)
(1.51144 0.390663 0)
(1.53107 0.392682 0)
(1.55157 0.388703 0)
(1.57285 0.378245 0)
(1.59468 0.360958 0)
(1.61676 0.336711 0)
(1.63875 0.305594 0)
(1.66028 0.26792 0)
(1.68097 0.224225 0)
(1.70043 0.175272 0)
(1.71831 0.122101 0)
(1.73425 0.0662263 0)
(1.7478 0.00992829 0)
(1.75872 -0.0449694 0)
(1.76692 -0.0970527 0)
(1.77238 -0.145144 0)
(1.77515 -0.188341 0)
(1.77535 -0.226048 0)
(1.77317 -0.257987 0)
(1.76883 -0.284177 0)
(1.76257 -0.304876 0)
(1.75469 -0.32049 0)
(1.7454 -0.331441 0)
(1.73477 -0.33801 0)
(1.7229 -0.340364 0)
(1.71005 -0.338985 0)
(1.69627 -0.334529 0)
(1.68167 -0.327624 0)
(1.66633 -0.318864 0)
(1.65028 -0.308768 0)
(1.63357 -0.297748 0)
(1.61625 -0.286092 0)
(1.59843 -0.273925 0)
(1.58029 -0.261195 0)
(1.56209 -0.247673 0)
(1.54416 -0.232982 0)
(1.52687 -0.216645 0)
(1.51064 -0.198153 0)
(1.49587 -0.177038 0)
(1.48293 -0.152938 0)
(1.47214 -0.125646 0)
(1.46376 -0.0951421 0)
(1.45795 -0.0615996 0)
(1.45483 -0.0253801 0)
(1.45443 0.0129924 0)
(1.45671 0.0528586 0)
(1.46157 0.0934261 0)
(1.46877 0.133709 0)
(1.47808 0.172896 0)
(1.4893 0.210324 0)
(1.50219 0.245399 0)
(1.51652 0.277612 0)
(1.53205 0.306546 0)
(1.54858 0.331889 0)
(1.56591 0.353419 0)
(1.58385 0.370987 0)
(1.60227 0.384475 0)
(1.62104 0.393743 0)
(1.64015 0.398553 0)
(1.65949 0.398578 0)
(1.67881 0.3936 0)
(1.69801 0.383502 0)
(1.71686 0.368268 0)
(1.73513 0.347982 0)
(1.75262 0.322827 0)
(1.76908 0.293092 0)
(1.7843 0.259167 0)
(1.79804 0.221527 0)
(1.81009 0.18071 0)
(1.82026 0.137333 0)
(1.82839 0.0921937 0)
(1.8343 0.0465517 0)
(1.8379 0.00157708 0)
(1.83919 -0.0418226 0)
(1.83822 -0.0828405 0)
(1.83509 -0.120794 0)
(1.82993 -0.155145 0)
(1.82293 -0.18552 0)
(1.81427 -0.211708 0)
(1.80417 -0.233658 0)
(1.79284 -0.251444 0)
(1.7805 -0.265225 0)
(1.76736 -0.275194 0)
(1.75357 -0.28152 0)
(1.73927 -0.284315 0)
(1.72469 -0.283723 0)
(1.70995 -0.279998 0)
(1.69514 -0.273422 0)
(1.68036 -0.264284 0)
(1.6657 -0.252866 0)
(1.65124 -0.23943 0)
(1.63708 -0.224209 0)
(1.62334 -0.207395 0)
(1.61016 -0.189142 0)
(1.59768 -0.169573 0)
(1.58605 -0.148793 0)
(1.57542 -0.126904 0)
(1.5659 -0.104014 0)
(1.55757 -0.0802635 0)
(1.55049 -0.0558477 0)
(1.54468 -0.0310782 0)
(1.54014 -0.00626877 0)
(1.53686 0.0183004 0)
(1.53483 0.042354 0)
(1.53405 0.0656232 0)
(1.53452 0.0878485 0)
(1.53624 0.108781 0)
(1.53919 0.128187 0)
(1.54336 0.145848 0)
(1.54872 0.161569 0)
(1.5552 0.175175 0)
(1.56274 0.186513 0)
(1.57125 0.195429 0)
(1.58067 0.201736 0)
(1.59097 0.20518 0)
(1.602 0.205525 0)
(1.61365 0.202667 0)
(1.62578 0.196547 0)
(1.63821 0.187166 0)
(1.65078 0.174595 0)
(1.66332 0.158964 0)
(1.67562 0.140468 0)
(1.40752 -0.0717224 0)
(1.39724 -0.0398883 0)
(1.39068 -0.00523063 0)
(1.38755 0.0313216 0)
(1.38747 0.0687516 0)
(1.39003 0.106025 0)
(1.3949 0.142419 0)
(1.40189 0.177389 0)
(1.4108 0.210487 0)
(1.42148 0.24134 0)
(1.43378 0.269622 0)
(1.44759 0.295039 0)
(1.4628 0.317312 0)
(1.47931 0.336158 0)
(1.49704 0.35125 0)
(1.51595 0.362169 0)
(1.53611 0.368356 0)
(1.55736 0.369211 0)
(1.57954 0.364257 0)
(1.60246 0.353083 0)
(1.62583 0.33542 0)
(1.64931 0.311185 0)
(1.67252 0.280502 0)
(1.69505 0.243706 0)
(1.71648 0.201336 0)
(1.73639 0.154135 0)
(1.75443 0.103121 0)
(1.77019 0.0498738 0)
(1.78321 -0.00341922 0)
(1.79335 -0.0551725 0)
(1.80055 -0.104071 0)
(1.80485 -0.14903 0)
(1.80636 -0.189229 0)
(1.80527 -0.224139 0)
(1.80179 -0.253534 0)
(1.79619 -0.277467 0)
(1.78875 -0.296207 0)
(1.77974 -0.310134 0)
(1.76938 -0.319605 0)
(1.75771 -0.324811 0)
(1.74497 -0.325952 0)
(1.73133 -0.323557 0)
(1.71687 -0.318215 0)
(1.70171 -0.310499 0)
(1.68589 -0.300966 0)
(1.66942 -0.290124 0)
(1.65231 -0.278402 0)
(1.6346 -0.266121 0)
(1.61634 -0.253467 0)
(1.59769 -0.240474 0)
(1.57886 -0.227004 0)
(1.56016 -0.212756 0)
(1.54196 -0.197308 0)
(1.5247 -0.180171 0)
(1.50878 -0.160862 0)
(1.49463 -0.138974 0)
(1.4826 -0.114231 0)
(1.47298 -0.0865338 0)
(1.46598 -0.0559722 0)
(1.46173 -0.0228238 0)
(1.46028 0.0124663 0)
(1.46163 0.0493132 0)
(1.46569 0.0870093 0)
(1.4723 0.124703 0)
(1.4812 0.161527 0)
(1.49219 0.196844 0)
(1.50504 0.230068 0)
(1.51952 0.260686 0)
(1.53541 0.28828 0)
(1.55246 0.312522 0)
(1.57049 0.333165 0)
(1.5893 0.350028 0)
(1.60873 0.362959 0)
(1.62865 0.371784 0)
(1.64901 0.376259 0)
(1.66964 0.376111 0)
(1.69031 0.371171 0)
(1.71087 0.36135 0)
(1.73106 0.346642 0)
(1.75066 0.327138 0)
(1.76943 0.30303 0)
(1.7871 0.274612 0)
(1.80345 0.242271 0)
(1.81822 0.206468 0)
(1.8312 0.16772 0)
(1.84219 0.126615 0)
(1.85102 0.0839477 0)
(1.85749 0.0409423 0)
(1.86152 -0.0013683 0)
(1.86312 -0.0421337 0)
(1.86235 -0.0806067 0)
(1.85932 -0.116158 0)
(1.85419 -0.148296 0)
(1.84715 -0.176676 0)
(1.83844 -0.201112 0)
(1.82827 -0.221558 0)
(1.81687 -0.238088 0)
(1.80447 -0.250849 0)
(1.79129 -0.260017 0)
(1.7775 -0.265742 0)
(1.76324 -0.268122 0)
(1.74875 -0.267281 0)
(1.73412 -0.263442 0)
(1.71942 -0.25686 0)
(1.70476 -0.247806 0)
(1.6902 -0.236558 0)
(1.67581 -0.223389 0)
(1.66168 -0.208551 0)
(1.64792 -0.192258 0)
(1.63466 -0.174685 0)
(1.62206 -0.155967 0)
(1.61026 -0.136211 0)
(1.59943 -0.115503 0)
(1.58971 -0.0939236 0)
(1.58122 -0.0715704 0)
(1.57403 -0.0486031 0)
(1.5682 -0.0253012 0)
(1.5637 -0.00194292 0)
(1.56053 0.021194 0)
(1.55867 0.0438303 0)
(1.55808 0.0656915 0)
(1.55876 0.0865147 0)
(1.56069 0.106054 0)
(1.56386 0.124082 0)
(1.56825 0.140398 0)
(1.57381 0.154823 0)
(1.58049 0.167202 0)
(1.58822 0.177394 0)
(1.59692 0.185249 0)
(1.60654 0.19057 0)
(1.61702 0.193114 0)
(1.6282 0.192705 0)
(1.63997 0.189261 0)
(1.65218 0.182732 0)
(1.66463 0.173135 0)
(1.67716 0.160548 0)
(1.68957 0.145111 0)
(1.70167 0.127021 0)
(1.42648 -0.0573715 0)
(1.41484 -0.029847 0)
(1.4071 0.000658166 0)
(1.40311 0.0334 0)
(1.40251 0.0674625 0)
(1.40488 0.101859 0)
(1.40981 0.13567 0)
(1.41701 0.168303 0)
(1.42629 0.199263 0)
(1.43748 0.228142 0)
(1.45042 0.254592 0)
(1.46499 0.278302 0)
(1.48109 0.298981 0)
(1.49861 0.316323 0)
(1.51749 0.329968 0)
(1.53771 0.339472 0)
(1.55923 0.344315 0)
(1.58181 0.344015 0)
(1.60533 0.338153 0)
(1.62951 0.326374 0)
(1.65403 0.30847 0)
(1.67852 0.284413 0)
(1.70257 0.254371 0)
(1.72573 0.2187 0)
(1.74755 0.177938 0)
(1.76763 0.1328 0)
(1.78558 0.0842899 0)
(1.80095 0.0340314 0)
(1.81336 -0.0159894 0)
(1.82271 -0.0643789 0)
(1.829 -0.109932 0)
(1.83231 -0.151661 0)
(1.83282 -0.188821 0)
(1.83073 -0.220942 0)
(1.82631 -0.247837 0)
(1.81983 -0.269581 0)
(1.81158 -0.286441 0)
(1.80184 -0.298763 0)
(1.79079 -0.306825 0)
(1.77851 -0.310756 0)
(1.76529 -0.310808 0)
(1.75122 -0.307499 0)
(1.73641 -0.301363 0)
(1.72095 -0.292926 0)
(1.70488 -0.282701 0)
(1.68822 -0.271164 0)
(1.67094 -0.258743 0)
(1.65304 -0.2458 0)
(1.63456 -0.232588 0)
(1.61558 -0.219217 0)
(1.5963 -0.205645 0)
(1.577 -0.191666 0)
(1.55802 -0.17693 0)
(1.53979 -0.160991 0)
(1.52276 -0.14337 0)
(1.50739 -0.123621 0)
(1.49407 -0.101401 0)
(1.48315 -0.076524 0)
(1.47486 -0.0489917 0)
(1.46938 -0.0189937 0)
(1.46678 0.0131072 0)
(1.46707 0.0468028 0)
(1.47021 0.0814651 0)
(1.47606 0.116351 0)
(1.48438 0.15062 0)
(1.49497 0.183617 0)
(1.5076 0.214776 0)
(1.52205 0.243595 0)
(1.53808 0.269644 0)
(1.55546 0.292586 0)
(1.57397 0.312155 0)
(1.59342 0.328142 0)
(1.61362 0.340364 0)
(1.63445 0.34862 0)
(1.65581 0.352675 0)
(1.67747 0.352307 0)
(1.69921 0.347389 0)
(1.72085 0.337847 0)
(1.74212 0.323687 0)
(1.76277 0.305008 0)
(1.78254 0.282008 0)
(1.80116 0.254983 0)
(1.81838 0.224315 0)
(1.83396 0.190448 0)
(1.84766 0.153866 0)
(1.85931 0.115134 0)
(1.8687 0.0750633 0)
(1.87564 0.0348077 0)
(1.88006 -0.00472682 0)
(1.88198 -0.04275 0)
(1.88145 -0.0785828 0)
(1.87861 -0.11166 0)
(1.87364 -0.141534 0)
(1.86675 -0.167893 0)
(1.85819 -0.190565 0)
(1.84819 -0.209512 0)
(1.83697 -0.224802 0)
(1.82479 -0.23657 0)
(1.81185 -0.244975 0)
(1.79835 -0.250146 0)
(1.78442 -0.252152 0)
(1.77028 -0.251088 0)
(1.756 -0.247147 0)
(1.74165 -0.240553 0)
(1.72731 -0.231559 0)
(1.71303 -0.220445 0)
(1.69887 -0.207494 0)
(1.68492 -0.192978 0)
(1.67127 -0.177138 0)
(1.65806 -0.160173 0)
(1.64542 -0.142237 0)
(1.63352 -0.12345 0)
(1.62253 -0.103894 0)
(1.61262 -0.0836262 0)
(1.60393 -0.0627012 0)
(1.59659 -0.0412577 0)