/*--------------------------------*- C++ -*----------------------------------*\
| =========                 |                                                 |
| \\      /  F ield         | OpenFOAM: The Open Source CFD Toolbox           |
|  \\    /   O peration     | Version:  2206                                  |
|   \\  /    A nd           | Website:  www.openfoam.com                      |
|    \\/     M anipulation  |                                                 |
\*---------------------------------------------------------------------------*/
FoamFile
{
    version     2.0;
    format      ascii;
    arch        "LSB;label=32;scalar=64";
    class       volVectorField;
    location    "19.2999";
    object      U_0;
}
// * * * * * * * * * * * * * * * * * * * * * * * * * * * * * * * * * * * * * //

dimensions      [0 1 -1 0 0 0 0];

internalField   nonuniform List<vector> 
3050
(
(1.68404 -0.00947066 0)
(1.682 0.0244841 0)
(1.68238 0.0577929 0)
(1.68504 0.0896368 0)
(1.68977 0.119232 0)
(1.6963 0.14588 0)
(1.70433 0.169025 0)
(1.71352 0.188278 0)
(1.72357 0.203409 0)
(1.7342 0.214304 0)
(1.74533 0.220837 0)
(1.75703 0.222663 0)
(1.76902 0.219464 0)
(1.78116 0.21122 0)
(1.79327 0.19802 0)
(1.80514 0.1801 0)
(1.81662 0.157799 0)
(1.82761 0.13154 0)
(1.83797 0.101848 0)
(1.84756 0.0694038 0)
(1.85612 0.0351534 0)
(1.86321 0.000543211 0)
(1.86856 -0.0331961 0)
(1.87203 -0.0650563 0)
(1.87323 -0.0942182 0)
(1.87306 -0.120071 0)
(1.8704 -0.142169 0)
(1.86574 -0.160131 0)
(1.85923 -0.173871 0)
(1.85084 -0.183342 0)
(1.84052 -0.188462 0)
(1.82872 -0.189344 0)
(1.81581 -0.186457 0)
(1.80228 -0.180185 0)
(1.78863 -0.170853 0)
(1.77535 -0.158736 0)
(1.76282 -0.144051 0)
(1.75135 -0.126977 0)
(1.74116 -0.107688 0)
(1.73244 -0.0863907 0)
(1.72532 -0.0633527 0)
(1.7199 -0.0389285 0)
(1.71627 -0.0136084 0)
(1.71446 0.0118851 0)
(1.71442 0.0369059 0)
(1.71606 0.060876 0)
(1.71923 0.0832436 0)
(1.72378 0.103512 0)
(1.72948 0.121269 0)
(1.73612 0.136212 0)
(1.74346 0.14815 0)
(1.75129 0.156987 0)
(1.75952 0.162645 0)
(1.76821 0.164918 0)
(1.77719 0.163541 0)
(1.78634 0.158466 0)
(1.79552 0.14973 0)
(1.80456 0.137479 0)
(1.81331 0.121955 0)
(1.82165 0.103473 0)
(1.82948 0.0824213 0)
(1.83666 0.0592848 0)
(1.84305 0.0346948 0)
(1.84838 0.00954839 0)
(1.85243 -0.0152343 0)
(1.8551 -0.0390006 0)
(1.85625 -0.0611976 0)
(1.85579 -0.0812812 0)
(1.85375 -0.0987603 0)
(1.85025 -0.113394 0)
(1.84541 -0.125095 0)
(1.83934 -0.133785 0)
(1.83205 -0.139403 0)
(1.82364 -0.141905 0)
(1.81447 -0.141427 0)
(1.80479 -0.138195 0)
(1.79496 -0.132377 0)
(1.78529 -0.12415 0)
(1.77609 -0.113698 0)
(1.76759 -0.101203 0)
(1.75998 -0.0868568 0)
(1.75342 -0.0708714 0)
(1.748 -0.0534968 0)
(1.74381 -0.0350351 0)
(1.74092 -0.0158735 0)
(1.73937 0.00343707 0)
(1.73911 0.0224132 0)
(1.7401 0.0406309 0)
(1.74223 0.0576882 0)
(1.74538 0.0732216 0)
(1.74942 0.0869283 0)
(1.75418 0.0985804 0)
(1.75951 0.10803 0)
(1.76525 0.115197 0)
(1.77129 0.120031 0)
(1.77767 0.122418 0)
(1.78432 0.122162 0)
(1.79112 0.119202 0)
(1.79797 0.11355 0)
(1.80474 0.105293 0)
(1.81131 0.0945922 0)
(1.81756 0.0816706 0)
(1.82339 0.066804 0)
(1.82871 0.0503256 0)
(1.83339 0.0326429 0)
(1.83729 0.0142932 0)
(1.84022 -0.00404826 0)
(1.84207 -0.0218795 0)
(1.84278 -0.038763 0)
(1.84234 -0.05431 0)
(1.84075 -0.0681986 0)
(1.83809 -0.0801901 0)
(1.83444 -0.0901279 0)
(1.82992 -0.0979165 0)
(1.8246 -0.103503 0)
(1.8185 -0.106827 0)
(1.81176 -0.107876 0)
(1.80453 -0.106643 0)
(1.79725 -0.103588 0)
(1.78925 -0.097335 0)
(1.78319 -0.0921155 0)
(1.77306 -0.0759145 0)
(1.65788 -0.00601173 0)
(1.6557 0.0253827 0)
(1.65611 0.0562413 0)
(1.65897 0.0858114 0)
(1.66408 0.113371 0)
(1.67116 0.138275 0)
(1.67992 0.159991 0)
(1.69005 0.178125 0)
(1.70124 0.192405 0)
(1.71325 0.202631 0)
(1.72604 0.208566 0)
(1.73953 0.209876 0)
(1.7534 0.206378 0)
(1.76752 0.198053 0)
(1.78164 0.184978 0)
(1.79554 0.167363 0)
(1.80905 0.145527 0)
(1.82197 0.11989 0)
(1.83413 0.0909968 0)
(1.84529 0.0595903 0)
(1.85505 0.0267824 0)
(1.86292 -0.00598647 0)
(1.86866 -0.037674 0)
(1.87198 -0.0674068 0)
(1.87282 -0.094449 0)
(1.87157 -0.118093 0)
(1.86747 -0.137875 0)
(1.86111 -0.153651 0)
(1.85249 -0.165332 0)
(1.84155 -0.172807 0)
(1.8287 -0.176122 0)
(1.81442 -0.175732 0)
(1.79921 -0.172093 0)
(1.78365 -0.165583 0)
(1.76825 -0.156509 0)
(1.75347 -0.145078 0)
(1.7397 -0.131418 0)
(1.72722 -0.115626 0)
(1.71622 -0.0978119 0)
(1.70687 -0.0781396 0)
(1.6993 -0.0568427 0)
(1.69359 -0.0342481 0)
(1.68981 -0.0108124 0)
(1.688 0.0128123 0)
(1.68808 0.0360402 0)
(1.68996 0.0583331 0)
(1.6935 0.0791797 0)
(1.69852 0.0981172 0)
(1.70483 0.11476 0)
(1.7122 0.128811 0)
(1.72042 0.14006 0)
(1.72931 0.148356 0)
(1.73879 0.153538 0)
(1.74884 0.155381 0)
(1.75924 0.153718 0)
(1.76987 0.148527 0)
(1.78056 0.139843 0)
(1.79111 0.127803 0)
(1.80138 0.112634 0)
(1.81121 0.0946412 0)
(1.82044 0.0742194 0)
(1.82888 0.0518849 0)
(1.83627 0.028341 0)
(1.84226 0.00454469 0)
(1.84662 -0.0187383 0)
(1.84922 -0.0408787 0)
(1.84997 -0.0613369 0)
(1.84882 -0.0796559 0)
(1.84584 -0.095482 0)
(1.84113 -0.108596 0)
(1.83484 -0.118875 0)
(1.82702 -0.126233 0)
(1.81781 -0.130625 0)
(1.80756 -0.132164 0)
(1.79661 -0.131099 0)
(1.78532 -0.127623 0)
(1.77406 -0.121904 0)
(1.76316 -0.114093 0)
(1.75292 -0.104321 0)
(1.74356 -0.0927165 0)
(1.73527 -0.0794216 0)
(1.72818 -0.064612 0)
(1.72239 -0.0485075 0)
(1.71798 -0.0313859 0)
(1.715 -0.01361 0)
(1.71347 0.00432189 0)
(1.71336 0.0219704 0)
(1.71458 0.0389405 0)
(1.71704 0.0548583 0)
(1.72062 0.0693872 0)
(1.72517 0.0822426 0)
(1.73053 0.0932028 0)
(1.73656 0.102109 0)
(1.74311 0.108848 0)
(1.75011 0.113317 0)
(1.75755 0.115369 0)
(1.76529 0.114868 0)
(1.77321 0.111791 0)
(1.78121 0.106155 0)
(1.78913 0.0980421 0)
(1.79684 0.0876093 0)
(1.8042 0.075072 0)
(1.81109 0.0607073 0)
(1.81736 0.0448635 0)
(1.82282 0.0279792 0)
(1.82725 0.0106505 0)
(1.83044 -0.00654379 0)
(1.83232 -0.0231554 0)
(1.83283 -0.0387811 0)
(1.83196 -0.0530749 0)
(1.82975 -0.0657588 0)
(1.82628 -0.0766258 0)
(1.82165 -0.0855331 0)
(1.81596 -0.0923839 0)
(1.80928 -0.0971114 0)
(1.80176 -0.0996887 0)
(1.79367 -0.100203 0)
(1.78516 -0.0986698 0)
(1.77676 -0.0955213 0)
(1.76769 -0.0894228 0)
(1.7609 -0.0844176 0)
(1.74984 -0.0691077 0)
(1.63198 -0.00243164 0)
(1.62984 0.0262709 0)
(1.63039 0.0545422 0)
(1.6335 0.081692 0)
(1.63898 0.107058 0)
(1.64658 0.130044 0)
(1.65603 0.150144 0)
(1.66704 0.166957 0)
(1.67932 0.180164 0)
(1.69268 0.189484 0)
(1.70704 0.194622 0)
(1.72217 0.195306 0)
(1.7378 0.191433 0)
(1.75374 0.182968 0)
(1.76972 0.169985 0)
(1.7855 0.152679 0)
(1.80086 0.131359 0)
(1.81557 0.10645 0)
(1.82937 0.0785376 0)
(1.84189 0.0484684 0)
(1.85254 0.0175496 0)
(1.86088 -0.0130036 0)
(1.86663 -0.0422293 0)
(1.86961 -0.0693423 0)
(1.86963 -0.0936801 0)
(1.8667 -0.114614 0)
(1.86098 -0.131782 0)
(1.85258 -0.145076 0)
(1.84148 -0.154375 0)
(1.82803 -0.159645 0)
(1.81278 -0.161303 0)
(1.79627 -0.159846 0)
(1.77912 -0.155698 0)
(1.76192 -0.149224 0)
(1.74518 -0.140678 0)
(1.72934 -0.13019 0)
(1.71473 -0.117792 0)
(1.70159 -0.103492 0)
(1.6901 -0.0873379 0)
(1.6804 -0.0694546 0)
(1.67259 -0.0500502 0)
(1.66676 -0.0294258 0)
(1.66298 -0.00800214 0)
(1.66125 0.0136374 0)
(1.66151 0.0349598 0)
(1.66367 0.055467 0)
(1.66759 0.0746847 0)
(1.6731 0.092183 0)
(1.68 0.107594 0)
(1.6881 0.120621 0)
(1.69718 0.131026 0)
(1.7071 0.138607 0)
(1.71779 0.143157 0)
(1.72912 0.144481 0)
(1.74087 0.142483 0)
(1.7529 0.137137 0)
(1.76501 0.128479 0)
(1.77702 0.116644 0)
(1.78872 0.101852 0)
(1.79994 0.0844126 0)
(1.81045 0.0647491 0)
(1.81997 0.0434367 0)
(1.82807 0.0213094 0)
(1.8344 -0.00078823 0)
(1.83876 -0.0222052 0)
(1.84101 -0.0423704 0)
(1.8411 -0.0608068 0)
(1.83904 -0.0771293 0)
(1.83491 -0.0910488 0)
(1.82882 -0.102372 0)
(1.82086 -0.11098 0)
(1.8112 -0.116815 0)
(1.80023 -0.119967 0)
(1.78831 -0.120686 0)
(1.77584 -0.119185 0)
(1.76323 -0.115644 0)
(1.75083 -0.110215 0)
(1.73899 -0.103008 0)
(1.72798 -0.0940966 0)
(1.71801 -0.0835522 0)
(1.70926 -0.0714681 0)
(1.70184 -0.0579829 0)
(1.69584 -0.0432885 0)
(1.69134 -0.0276375 0)
(1.68837 -0.0113628 0)
(1.68694 0.00508974 0)
(1.687 0.0213191 0)
(1.68848 0.0369574 0)
(1.69127 0.0516558 0)
(1.69526 0.065099 0)
(1.70031 0.0770167 0)
(1.70626 0.0871893 0)
(1.71297 0.095443 0)
(1.72033 0.101634 0)
(1.72826 0.10562 0)
(1.73672 0.107263 0)
(1.7455 0.106483 0)
(1.75452 0.103265 0)
(1.76362 0.0976271 0)
(1.77265 0.0896572 0)
(1.78146 0.0795114 0)
(1.78989 0.0674109 0)
(1.79775 0.0536477 0)
(1.80485 0.0385916 0)
(1.8109 0.0227362 0)
(1.81563 0.00668248 0)
(1.8189 -0.00912089 0)
(1.82062 -0.0242677 0)
(1.82074 -0.0384051 0)
(1.81929 -0.0512364 0)
(1.81632 -0.0625237 0)
(1.81192 -0.0720859 0)
(1.80618 -0.0797913 0)
(1.79922 -0.0855529 0)
(1.79121 -0.0893436 0)
(1.78245 -0.0912166 0)
(1.77318 -0.0913023 0)
(1.7636 -0.0895843 0)
(1.75428 -0.0864687 0)
(1.74435 -0.0806873 0)
(1.73702 -0.0760264 0)
(1.72532 -0.0618457 0)
(1.60688 0.00107406 0)
(1.60492 0.0270014 0)
(1.60572 0.0525989 0)
(1.60915 0.0772324 0)
(1.61505 0.100293 0)
(1.62318 0.121223 0)
(1.63329 0.139537 0)
(1.64513 0.154824 0)
(1.65847 0.166729 0)
(1.67313 0.174924 0)
(1.68894 0.179114 0)
(1.70558 0.179096 0)
(1.72282 0.174778 0)
(1.74043 0.166123 0)
(1.75811 0.153204 0)
(1.7756 0.136214 0)
(1.79265 0.115456 0)
(1.80895 0.0913848 0)
(1.82414 0.0646786 0)
(1.83761 0.0363869 0)
(1.8487 0.00780744 0)
(1.857 -0.0200699 0)
(1.86224 -0.0463739 0)
(1.86423 -0.070395 0)
(1.86292 -0.0915625 0)
(1.85836 -0.109427 0)
(1.85065 -0.123699 0)
(1.83981 -0.134205 0)
(1.82622 -0.140869 0)
(1.8104 -0.14408 0)
(1.79299 -0.144337 0)
(1.77467 -0.14209 0)
(1.75607 -0.137752 0)
(1.73777 -0.131641 0)
(1.72026 -0.123928 0)
(1.70386 -0.114621 0)
(1.68883 -0.103657 0)
(1.67539 -0.0909779 0)
(1.66371 -0.076602 0)
(1.6539 -0.0606126 0)
(1.64605 -0.0431888 0)
(1.64026 -0.0246141 0)
(1.63657 -0.00527861 0)
(1.635 0.0142993 0)
(1.63548 0.0336352 0)
(1.63793 0.0522692 0)
(1.64222 0.0697625 0)
(1.64819 0.0857139 0)
(1.65566 0.099771 0)
(1.66445 0.111632 0)
(1.67439 0.121035 0)
(1.68534 0.127744 0)
(1.69721 0.131547 0)
(1.70974 0.132295 0)
(1.72278 0.129917 0)
(1.73614 0.124376 0)
(1.7496 0.11572 0)
(1.76297 0.104085 0)
(1.77601 0.0897029 0)
(1.78849 0.0729124 0)
(1.80007 0.0541924 0)
(1.8103 0.0342459 0)
(1.81871 0.0139204 0)
(1.825 -0.0061404 0)
(1.829 -0.0253533 0)
(1.83058 -0.043229 0)
(1.82974 -0.0593662 0)
(1.82652 -0.0734445 0)
(1.82101 -0.0852259 0)
(1.8133 -0.0945508 0)
(1.80359 -0.101327 0)
(1.79227 -0.105632 0)
(1.77975 -0.107713 0)
(1.76646 -0.10778 0)
(1.75284 -0.106021 0)
(1.73927 -0.102607 0)
(1.72613 -0.0976601 0)
(1.71372 -0.091234 0)
(1.70226 -0.0833355 0)
(1.69197 -0.0739853 0)
(1.68297 -0.0632349 0)
(1.67539 -0.0511807 0)
(1.66931 -0.037987 0)
(1.66478 -0.0238876 0)
(1.66185 -0.00918949 0)
(1.66053 0.00571069 0)
(1.66076 0.0204472 0)
(1.66248 0.0346787 0)
(1.66559 0.0480809 0)
(1.66996 0.0603582 0)
(1.67548 0.0712508 0)
(1.68201 0.0805366 0)
(1.68941 0.0880243 0)
(1.69759 0.0935454 0)
(1.70647 0.0969527 0)
(1.71589 0.0981367 0)
(1.7257 0.0970492 0)
(1.73577 0.0936665 0)
(1.74594 0.0880162 0)
(1.75604 0.0801957 0)
(1.76589 0.0703714 0)
(1.77528 0.058782 0)
(1.78398 0.0457451 0)
(1.79167 0.0316983 0)
(1.798 0.01719 0)
(1.80278 0.0026474 0)
(1.80586 -0.0115327 0)
(1.80719 -0.0250007 0)
(1.80673 -0.0374562 0)
(1.80454 -0.0486472 0)
(1.80067 -0.0583704 0)
(1.79522 -0.0664736 0)
(1.78829 -0.0728522 0)
(1.78012 -0.0774569 0)
(1.771 -0.0803541 0)
(1.76119 -0.0816319 0)
(1.751 -0.0813934 0)
(1.74059 -0.0795927 0)
(1.73066 -0.0766623 0)
(1.72019 -0.0713694 0)
(1.71252 -0.0671758 0)
(1.7005 -0.0543346 0)
(1.58308 0.00433386 0)
(1.58147 0.027445 0)
(1.58264 0.0503195 0)
(1.58649 0.0723741 0)
(1.59286 0.0930448 0)
(1.60155 0.111807 0)
(1.61236 0.128185 0)
(1.62504 0.141759 0)
(1.63942 0.152154 0)
(1.65529 0.159045 0)
(1.67237 0.162175 0)
(1.69039 0.161388 0)
(1.7091 0.156564 0)
(1.7282 0.147672 0)
(1.74742 0.134796 0)
(1.76646 0.118129 0)
(1.785 0.098003 0)
(1.80264 0.0749502 0)
(1.81874 0.0498457 0)
(1.8325 0.0239207 0)
(1.84339 -0.00184032 0)
(1.85102 -0.0265512 0)
(1.85514 -0.0494788 0)
(1.85565 -0.0700328 0)
(1.85259 -0.087744 0)
(1.84597 -0.102265 0)
(1.83581 -0.113312 0)
(1.8225 -0.120744 0)
(1.80658 -0.124945 0)
(1.78872 -0.126404 0)
(1.76966 -0.125586 0)
(1.75011 -0.122935 0)
(1.73072 -0.118814 0)
(1.712 -0.113418 0)
(1.69427 -0.106763 0)
(1.67779 -0.0987727 0)
(1.66276 -0.0893429 0)
(1.64936 -0.078378 0)
(1.63775 -0.0658358 0)
(1.62805 -0.0517886 0)
(1.62036 -0.036404 0)
(1.61475 -0.0199342 0)
(1.61128 -0.00273559 0)
(1.60995 0.0147345 0)
(1.61072 0.0320343 0)
(1.6135 0.0487382 0)
(1.61818 0.0644368 0)
(1.62462 0.0787495 0)
(1.63267 0.091332 0)
(1.64216 0.101878 0)
(1.65295 0.110116 0)
(1.66491 0.11581 0)
(1.67782 0.118771 0)
(1.69148 0.118885 0)
(1.70572 0.116073 0)
(1.72032 0.110305 0)
(1.73505 0.10164 0)
(1.74968 0.0902271 0)
(1.76391 0.0763296 0)
(1.77739 0.0603492 0)
(1.78962 0.0429122 0)
(1.80003 0.0247974 0)
(1.80826 0.00661126 0)
(1.81406 -0.0110777 0)
(1.81726 -0.0277861 0)
(1.81782 -0.0431105 0)
(1.81577 -0.0567222 0)
(1.81116 -0.0683676 0)
(1.80403 -0.0778485 0)
(1.79465 -0.0850117 0)
(1.78337 -0.0899671 0)
(1.77063 -0.0929472 0)
(1.75691 -0.0941532 0)
(1.74268 -0.0937774 0)
(1.72835 -0.092 0)
(1.71435 -0.0889518 0)
(1.70093 -0.0846736 0)
(1.68834 -0.0791507 0)
(1.67675 -0.0723528 0)
(1.66635 -0.0642588 0)
(1.65728 -0.0548812 0)
(1.64967 -0.0443037 0)
(1.6436 -0.0326699 0)
(1.63913 -0.0201809 0)
(1.63631 -0.00711308 0)
(1.63513 0.00618329 0)
(1.63555 0.019374 0)
(1.63751 0.0321406 0)
(1.64092 0.0441791 0)
(1.64567 0.0552084 0)
(1.65165 0.0649754 0)
(1.65875 0.0732556 0)
(1.66684 0.0798505 0)
(1.67583 0.0845904 0)
(1.68557 0.0873412 0)
(1.69589 0.0880239 0)
(1.70667 0.0865872 0)
(1.71774 0.0830137 0)
(1.72891 0.0773485 0)
(1.74 0.0697045 0)
(1.75077 0.0602673 0)
(1.76095 0.0493124 0)
(1.77017 0.0372487 0)
(1.77804 0.0245602 0)
(1.78431 0.0116285 0)
(1.78881 -0.00117809 0)
(1.79142 -0.0135286 0)
(1.79211 -0.0251348 0)
(1.7909 -0.0357464 0)
(1.78782 -0.0451552 0)
(1.78293 -0.053198 0)
(1.77637 -0.0597405 0)
(1.76839 -0.0647337 0)
(1.75923 -0.0682576 0)
(1.74924 -0.0703972 0)
(1.73867 -0.0711981 0)
(1.72794 -0.0707777 0)
(1.71704 -0.0690562 0)
(1.70687 -0.0664508 0)
(1.69616 -0.0617746 0)
(1.68836 -0.0581175 0)
(1.67627 -0.0467519 0)
(1.56121 0.00716262 0)
(1.56009 0.0274575 0)
(1.56176 0.0475889 0)
(1.56612 0.0670208 0)
(1.57304 0.0852292 0)
(1.58236 0.101718 0)
(1.5939 0.116028 0)
(1.60747 0.127746 0)
(1.62286 0.1365 0)
(1.6398 0.141983 0)
(1.65802 0.14399 0)
(1.67727 0.142352 0)
(1.69727 0.136957 0)
(1.71771 0.127788 0)
(1.7383 0.114936 0)
(1.75868 0.0986256 0)
(1.77841 0.0792705 0)
(1.79681 0.0576256 0)
(1.81296 0.03481 0)
(1.82624 0.0117454 0)
(1.83615 -0.010707 0)
(1.84237 -0.0318165 0)
(1.84476 -0.0509983 0)
(1.84331 -0.0677858 0)
(1.83801 -0.0818209 0)
(1.82882 -0.0927384 0)
(1.81616 -0.100316 0)
(1.80054 -0.104933 0)
(1.78271 -0.107064 0)
(1.76345 -0.107181 0)
(1.74348 -0.105751 0)
(1.72354 -0.103166 0)
(1.70413 -0.099637 0)
(1.68558 -0.0951811 0)
(1.66815 -0.0897118 0)
(1.65202 -0.0831042 0)
(1.63735 -0.0752279 0)
(1.62431 -0.0659764 0)
(1.61304 -0.0552949 0)
(1.60366 -0.043211 0)
(1.59629 -0.0298675 0)
(1.59101 -0.0155131 0)
(1.58786 -0.000464052 0)
(1.58686 0.0148765 0)
(1.58798 0.0301024 0)
(1.59115 0.0448192 0)
(1.59627 0.0586449 0)
(1.60323 0.0712212 0)
(1.6119 0.0822186 0)
(1.62214 0.091337 0)
(1.63379 0.0983039 0)
(1.64664 0.102894 0)
(1.66052 0.104959 0)
(1.67523 0.104377 0)
(1.69056 0.101071 0)
(1.70628 0.0950363 0)
(1.72213 0.0863565 0)
(1.73781 0.0752202 0)
(1.75291 0.0619686 0)
(1.76684 0.0471874 0)
(1.77901 0.0315472 0)
(1.789 0.0156065 0)
(1.79649 -0.000108115 0)
(1.80127 -0.0151402 0)
(1.80327 -0.0291127 0)
(1.80249 -0.0417079 0)
(1.79896 -0.0526662 0)
(1.79271 -0.0617494 0)
(1.78399 -0.0687777 0)
(1.77314 -0.0738851 0)
(1.76062 -0.0772847 0)
(1.74694 -0.0791801 0)
(1.73257 -0.0797706 0)
(1.71796 -0.0792344 0)
(1.70351 -0.0776911 0)
(1.6895 -0.0751701 0)
(1.67616 -0.0716391 0)
(1.66368 -0.0670487 0)
(1.65222 -0.0613533 0)
(1.64194 -0.0545236 0)
(1.63299 -0.0465565 0)
(1.62549 -0.0374908 0)
(1.61955 -0.0274336 0)
(1.61523 -0.0165767 0)
(1.61258 -0.00516889 0)
(1.61159 0.00648547 0)
(1.61223 0.0180809 0)
(1.61446 0.0293213 0)
(1.61819 0.0399223 0)
(1.62334 0.0496178 0)
(1.62982 0.0581644 0)
(1.63751 0.0653416 0)
(1.6463 0.0709514 0)
(1.65604 0.0748315 0)
(1.66657 0.0768801 0)
(1.67775 0.0770177 0)
(1.68941 0.0751948 0)
(1.70137 0.0714155 0)
(1.71341 0.0657465 0)
(1.72529 0.0583288 0)
(1.73669 0.049408 0)
(1.74717 0.0393842 0)
(1.75637 0.0286512 0)
(1.76398 0.017553 0)
(1.76979 0.0064153 0)
(1.77365 -0.0044675 0)
(1.77551 -0.0148364 0)
(1.77537 -0.0244609 0)
(1.77324 -0.0331405 0)
(1.76916 -0.0406995 0)
(1.76328 -0.0469685 0)
(1.75579 -0.0519412 0)
(1.74699 -0.0556938 0)
(1.73718 -0.0582935 0)
(1.72671 -0.0598172 0)
(1.71578 -0.0603007 0)
(1.70491 -0.0598478 0)
(1.69389 -0.0583323 0)
(1.68375 -0.0561192 0)
(1.67308 -0.0521226 0)
(1.66533 -0.0490331 0)
(1.65342 -0.0392377 0)
(1.542 0.00941162 0)
(1.54152 0.0269014 0)
(1.54381 0.0443003 0)
(1.54879 0.0610934 0)
(1.55637 0.076796 0)
(1.5664 0.090942 0)
(1.57872 0.103085 0)
(1.59311 0.112821 0)
(1.60937 0.119833 0)
(1.62726 0.123861 0)
(1.6465 0.124678 0)
(1.66685 0.122122 0)
(1.68799 0.116102 0)
(1.70962 0.106623 0)
(1.73135 0.0938124 0)
(1.75269 0.0779976 0)
(1.77287 0.0598581 0)
(1.79093 0.0403858 0)
(1.80616 0.0204096 0)
(1.81799 0.000726086 0)
(1.82602 -0.017975 0)
(1.83007 -0.0351466 0)
(1.83013 -0.0503458 0)
(1.82615 -0.0632278 0)
(1.81808 -0.0733584 0)
(1.80629 -0.0804903 0)
(1.79133 -0.0849866 0)
(1.77398 -0.0872884 0)
(1.75505 -0.0878719 0)
(1.73529 -0.0872123 0)
(1.71542 -0.0857104 0)
(1.69596 -0.0835865 0)
(1.67723 -0.0808611 0)
(1.65946 -0.0774454 0)
(1.64283 -0.0732033 0)
(1.62748 -0.0679819 0)
(1.61356 -0.0616374 0)
(1.60119 -0.0540593 0)
(1.59051 -0.0451907 0)
(1.58167 -0.0350493 0)
(1.57479 -0.0237448 0)
(1.56996 -0.0114911 0)
(1.56723 0.00140752 0)
(1.56664 0.0146091 0)
(1.56818 0.0277472 0)
(1.5718 0.0404475 0)
(1.57743 0.0523539 0)
(1.58497 0.0631242 0)
(1.59429 0.0724354 0)
(1.60524 0.0800116 0)
(1.61765 0.0856198 0)
(1.63134 0.0890618 0)
(1.64612 0.0901732 0)
(1.66177 0.08884 0)
(1.67807 0.0850125 0)
(1.69475 0.0787183 0)
(1.71144 0.0700915 0)
(1.72772 0.0594341 0)
(1.74289 0.0472979 0)
(1.7564 0.0342361 0)
(1.76777 0.020752 0)
(1.77663 0.00731666 0)
(1.78274 -0.00566251 0)
(1.78602 -0.0178511 0)
(1.78645 -0.0289681 0)
(1.78404 -0.0387746 0)
(1.7788 -0.0469998 0)
(1.77097 -0.0534424 0)
(1.76089 -0.0582554 0)
(1.74903 -0.061634 0)
(1.73589 -0.0637848 0)
(1.72193 -0.064913 0)
(1.70758 -0.0651894 0)
(1.69323 -0.0647232 0)
(1.67917 -0.0635441 0)
(1.66561 -0.0616118 0)
(1.65273 -0.0588581 0)
(1.64069 -0.0552124 0)
(1.62964 -0.0506142 0)
(1.61973 -0.0450251 0)
(1.6111 -0.038436 0)
(1.60387 -0.0308739 0)
(1.59818 -0.0224146 0)
(1.59409 -0.0132048 0)
(1.59166 -0.00346733 0)
(1.5909 0.00652676 0)
(1.5918 0.0164993 0)
(1.59433 0.0261767 0)
(1.59844 0.0352908 0)
(1.60404 0.0435825 0)
(1.61102 0.0508168 0)
(1.61929 0.0567908 0)
(1.6287 0.0613375 0)
(1.63911 0.0643191 0)
(1.65037 0.0656249 0)
(1.66229 0.0651817 0)
(1.6747 0.0629638 0)
(1.68735 0.0590033 0)
(1.69997 0.0534123 0)
(1.71219 0.0464215 0)
(1.72356 0.0383831 0)
(1.7337 0.029621 0)
(1.74233 0.0204439 0)
(1.74917 0.0111393 0)
(1.75408 0.00195446 0)
(1.75697 -0.0068974 0)
(1.75784 -0.0152239 0)
(1.7567 -0.0228439 0)
(1.75356 -0.0295702 0)
(1.74855 -0.0352262 0)
(1.74186 -0.0398254 0)
(1.73376 -0.0434347 0)
(1.72457 -0.0461253 0)
(1.71458 -0.0479727 0)
(1.7041 -0.0490439 0)
(1.6933 -0.0493556 0)
(1.68268 -0.0489699 0)
(1.67193 -0.0477351 0)
(1.66213 -0.045948 0)
(1.6518 -0.0426646 0)
(1.6443 -0.0401483 0)
(1.63286 -0.0319659 0)
(1.5263 0.0109063 0)
(1.52659 0.025643 0)
(1.52959 0.0403151 0)
(1.53526 0.0544607 0)
(1.54353 0.0676296 0)
(1.55426 0.0793852 0)
(1.5673 0.0893215 0)
(1.58246 0.0970768 0)
(1.59954 0.102338 0)
(1.61829 0.104844 0)
(1.63847 0.104395 0)
(1.65979 0.100857 0)
(1.68191 0.0941747 0)
(1.70442 0.0844065 0)
(1.72675 0.0718324 0)
(1.74802 0.0570995 0)
(1.76727 0.0410179 0)
(1.78375 0.0243278 0)
(1.79683 0.00774312 0)
(1.80609 -0.00811634 0)
(1.81134 -0.0227722 0)
(1.81256 -0.0358525 0)
(1.80967 -0.0470471 0)
(1.80262 -0.0558369 0)
(1.79179 -0.0620215 0)
(1.77775 -0.0659425 0)
(1.76129 -0.0680062 0)
(1.74324 -0.068671 0)
(1.72434 -0.0684009 0)
(1.70527 -0.0675839 0)
(1.68653 -0.0664362 0)
(1.66839 -0.0649877 0)
(1.65105 -0.0631542 0)
(1.63466 -0.0607959 0)
(1.61935 -0.0577466 0)
(1.60521 -0.0538406 0)
(1.59238 -0.0489369 0)
(1.58097 -0.0429345 0)
(1.57114 -0.0357832 0)
(1.56304 -0.0274942 0)
(1.55681 -0.0181544 0)
(1.55256 -0.0079438 0)
(1.55038 0.00286056 0)
(1.55029 0.0139365 0)
(1.55231 0.024959 0)
(1.55642 0.0355877 0)
(1.56256 0.0454927 0)
(1.57067 0.0543717 0)
(1.58061 0.0619481 0)
(1.59224 0.0679642 0)
(1.60537 0.0721855 0)
(1.61982 0.0744165 0)
(1.63539 0.074517 0)
(1.65182 0.072407 0)
(1.66882 0.0680793 0)
(1.68601 0.0616409 0)
(1.70286 0.0533791 0)
(1.71867 0.04377 0)
(1.7329 0.0332663 0)
(1.74505 0.0223109 0)
(1.75474 0.0113161 0)
(1.76172 0.000625083 0)
(1.76589 -0.00948943 0)
(1.76726 -0.018804 0)
(1.76583 -0.0271131 0)
(1.76159 -0.0341164 0)
(1.75477 -0.0396362 0)
(1.74572 -0.0438165 0)
(1.73489 -0.046835 0)
(1.72276 -0.0488924 0)
(1.70977 -0.0501894 0)
(1.69632 -0.0508881 0)
(1.68274 -0.0510923 0)
(1.6693 -0.0508345 0)
(1.65618 -0.0500743 0)
(1.64354 -0.0487329 0)
(1.63154 -0.0467231 0)
(1.62029 -0.0439639 0)
(1.60995 -0.0403921 0)
(1.60066 -0.0359702 0)
(1.59255 -0.030689 0)
(1.58578 -0.0245657 0)
(1.58048 -0.0176507 0)
(1.57674 -0.0100555 0)
(1.57462 -0.00196945 0)
(1.57416 0.00635495 0)
(1.57538 0.0146572 0)
(1.57824 0.0226957 0)
(1.58272 0.0302332 0)
(1.58873 0.0370422 0)
(1.59619 0.0429119 0)
(1.60495 0.0476546 0)
(1.6149 0.0511105 0)
(1.62587 0.0531513 0)
(1.63767 0.0536873 0)
(1.65009 0.0526735 0)
(1.66289 0.0501217 0)
(1.67576 0.0461285 0)
(1.68827 0.0409077 0)
(1.69999 0.0347351 0)
(1.71058 0.0278799 0)
(1.71972 0.0206117 0)
(1.72716 0.0131809 0)
(1.73273 0.00579587 0)
(1.73636 -0.00138125 0)
(1.73803 -0.00820965 0)
(1.73776 -0.0145462 0)
(1.73555 -0.02021 0)
(1.7315 -0.0250148 0)
(1.7258 -0.0289829 0)
(1.71871 -0.0321741 0)
(1.7105 -0.03466 0)
(1.70147 -0.0365182 0)
(1.69185 -0.0378133 0)
(1.6819 -0.0385825 0)
(1.67175 -0.0388256 0)
(1.66183 -0.0385578 0)
(1.65179 -0.0376263 0)
(1.64265 -0.0362548 0)
(1.63303 -0.0336655 0)
(1.62602 -0.0316847 0)
(1.61537 -0.0250933 0)
(1.51481 0.0115715 0)
(1.51601 0.0236367 0)
(1.51982 0.0356459 0)
(1.52622 0.0471622 0)
(1.53518 0.0577938 0)
(1.54659 0.0671478 0)
(1.56032 0.0748467 0)
(1.57619 0.0805534 0)
(1.59401 0.0839818 0)
(1.61354 0.084904 0)
(1.6345 0.0831575 0)
(1.65652 0.0786529 0)
(1.67912 0.071424 0)
(1.70163 0.0617467 0)
(1.72306 0.0502126 0)
(1.74253 0.0374583 0)
(1.75925 0.0241174 0)
(1.77261 0.0108071 0)
(1.78219 -0.00194945 0)
(1.78786 -0.0137542 0)
(1.78962 -0.0243441 0)
(1.78736 -0.0334637 0)
(1.78107 -0.0405128 0)
(1.77114 -0.0453963 0)
(1.7582 -0.0484379 0)
(1.74304 -0.0500012 0)
(1.72645 -0.0505024 0)
(1.70913 -0.0503645 0)
(1.69169 -0.0499357 0)
(1.67453 -0.0494119 0)
(1.65787 -0.0488287 0)
(1.64185 -0.0481153 0)
(1.62659 -0.0471418 0)
(1.61215 -0.0457449 0)
(1.59863 -0.0437528 0)
(1.58611 -0.0410099 0)
(1.57471 -0.037392 0)
(1.56456 -0.0328169 0)
(1.55583 -0.0272507 0)
(1.54866 -0.0207109 0)
(1.54324 -0.0132687 0)
(1.53971 -0.00506367 0)
(1.53816 0.00367106 0)
(1.53866 0.0126576 0)
(1.54123 0.0216116 0)
(1.54586 0.0301957 0)
(1.55252 0.0380949 0)
(1.56118 0.045049 0)
(1.5717 0.0508347 0)
(1.58392 0.0552337 0)
(1.59763 0.0580275 0)
(1.61263 0.0590371 0)
(1.62866 0.0581592 0)
(1.64538 0.0553777 0)
(1.66236 0.0507966 0)
(1.67899 0.0446896 0)
(1.69463 0.0374267 0)
(1.70874 0.0293787 0)
(1.72086 0.0209198 0)
(1.73061 0.012394 0)
(1.73778 0.00407817 0)
(1.74228 -0.00382419 0)
(1.74416 -0.011161 0)
(1.74339 -0.0177772 0)
(1.73999 -0.0233516 0)
(1.73418 -0.0277458 0)
(1.72631 -0.0310973 0)
(1.71682 -0.03356 0)
(1.70615 -0.0353118 0)
(1.69468 -0.0365313 0)
(1.68277 -0.0373628 0)
(1.67066 -0.0379007 0)
(1.65859 -0.0381798 0)
(1.64668 -0.0381711 0)
(1.63507 -0.0377999 0)
(1.62385 -0.0369778 0)
(1.61314 -0.0356169 0)
(1.60307 -0.0336401 0)
(1.59377 -0.0309901 0)
(1.58539 -0.0276354 0)
(1.57807 -0.0235705 0)
(1.57197 -0.0188102 0)
(1.56723 -0.0133847 0)
(1.56397 -0.00736279 0)
(1.56228 -0.000897674 0)
(1.5622 0.00577165 0)
(1.56378 0.0124131 0)
(1.567 0.0188191 0)
(1.57182 0.0247814 0)
(1.57818 0.0300974 0)
(1.58597 0.03458 0)
(1.59506 0.0380656 0)
(1.60529 0.0404206 0)
(1.61648 0.0415462 0)
(1.62838 0.0413864 0)
(1.64072 0.0399424 0)
(1.65317 0.037299 0)
(1.66528 0.0336381 0)
(1.67668 0.029167 0)
(1.68703 0.0240982 0)
(1.69604 0.0186518 0)
(1.70348 0.0130378 0)
(1.70918 0.0074284 0)
(1.7131 0.0019452 0)
(1.71522 -0.00332197 0)
(1.71558 -0.00827921 0)
(1.71417 -0.0127693 0)
(1.71107 -0.0166046 0)
(1.70646 -0.0198075 0)
(1.70057 -0.0224306 0)
(1.69366 -0.0245377 0)
(1.68596 -0.0262002 0)
(1.67768 -0.0274767 0)
(1.66903 -0.0284061 0)
(1.66017 -0.028997 0)
(1.6512 -0.0292351 0)
(1.64241 -0.0290928 0)
(1.63354 -0.0284428 0)
(1.62545 -0.0274368 0)
(1.61691 -0.0254722 0)
(1.61066 -0.0239564 0)
(1.60119 -0.0188592 0)
(1.50807 0.011071 0)
(1.51009 0.0206275 0)
(1.51482 0.030088 0)
(1.52205 0.0390781 0)
(1.53178 0.0472556 0)
(1.54392 0.0542585 0)
(1.55833 0.0597399 0)
(1.57484 0.0633987 0)
(1.59324 0.0649908 0)
(1.61322 0.0643417 0)
(1.63437 0.0613817 0)
(1.65611 0.0561975 0)
(1.67762 0.0490725 0)
(1.69794 0.0404742 0)
(1.71627 0.0309073 0)
(1.73187 0.0208927 0)
(1.74419 0.0109147 0)
(1.75292 0.00136878 0)
(1.75801 -0.00746723 0)
(1.75951 -0.0154502 0)
(1.75726 -0.0222932 0)
(1.75136 -0.027404 0)
(1.74227 -0.030858 0)
(1.73065 -0.0329361 0)
(1.71723 -0.0339417 0)
(1.70275 -0.0342242 0)
(1.68778 -0.0341333 0)
(1.67283 -0.0339462 0)
(1.65818 -0.0338177 0)
(1.64394 -0.0337822 0)
(1.63022 -0.0337907 0)
(1.61703 -0.0337395 0)
(1.60443 -0.0334865 0)
(1.59245 -0.0328718 0)
(1.58115 -0.031739 0)
(1.57062 -0.0299546 0)
(1.56098 -0.0274195 0)
(1.55238 -0.0240778 0)
(1.545 -0.0199106 0)
(1.539 -0.0149326 0)
(1.53456 -0.00920665 0)
(1.53187 -0.00284891 0)
(1.53107 0.00393381 0)
(1.5322 0.0108861 0)
(1.53538 0.0177665 0)
(1.54055 0.0242858 0)
(1.54769 0.0301704 0)
(1.5568 0.0352089 0)
(1.56776 0.0392279 0)
(1.58032 0.04204 0)
(1.59418 0.0434534 0)
(1.60907 0.0433513 0)
(1.62463 0.0417276 0)
(1.64041 0.0386896 0)
(1.65576 0.034472 0)
(1.67015 0.0293481 0)
(1.68309 0.0236031 0)
(1.69415 0.0175269 0)
(1.70303 0.0113848 0)
(1.70955 0.00538221 0)
(1.7137 -0.000343879 0)
(1.71555 -0.00570637 0)
(1.71508 -0.0105983 0)
(1.71231 -0.0146968 0)
(1.70747 -0.0179272 0)
(1.70092 -0.0204128 0)
(1.69303 -0.0222767 0)
(1.68419 -0.0236598 0)
(1.67473 -0.0247026 0)
(1.6649 -0.0255186 0)
(1.65491 -0.0261818 0)
(1.64489 -0.026722 0)
(1.63495 -0.0271217 0)
(1.62513 -0.0273225 0)
(1.61551 -0.0272479 0)
(1.60616 -0.0268178 0)
(1.59717 -0.0259574 0)
(1.58867 -0.0246045 0)
(1.58078 -0.0227153 0)
(1.57365 -0.0202684 0)
(1.56744 -0.0172646 0)
(1.56229 -0.0137201 0)
(1.55835 -0.00965632 0)
(1.55577 -0.00511039 0)
(1.55463 -0.00019887 0)
(1.55503 0.00485763 0)
(1.55697 0.00986599 0)
(1.56048 0.0146559 0)
(1.5655 0.0190544 0)
(1.57196 0.0228945 0)
(1.57975 0.026025 0)
(1.58871 0.0283184 0)
(1.59863 0.0296783 0)
(1.60928 0.0300472 0)
(1.62037 0.0294242 0)
(1.63155 0.0278827 0)
(1.64241 0.02556 0)
(1.65264 0.022599 0)
(1.66194 0.0191482 0)
(1.67005 0.0153707 0)
(1.67679 0.01143 0)
(1.68203 0.00746303 0)
(1.68573 0.00356165 0)
(1.6879 -0.000224505 0)
(1.68859 -0.00384547 0)
(1.68779 -0.00717957 0)
(1.68557 -0.0100535 0)
(1.68208 -0.012484 0)
(1.67754 -0.0145117 0)
(1.67215 -0.0161854 0)
(1.66608 -0.0175604 0)
(1.65952 -0.0186842 0)
(1.6526 -0.0195885 0)
(1.64544 -0.0202874 0)
(1.63812 -0.0207692 0)
(1.63076 -0.0210105 0)
(1.62347 -0.0209595 0)
(1.61617 -0.0205354 0)
(1.60941 -0.0198122 0)
(1.60232 -0.018373 0)
(1.59709 -0.0172484 0)
(1.58924 -0.0134915 0)
(1.5059 0.00995862 0)
(1.5093 0.016919 0)
(1.51507 0.023746 0)
(1.5232 0.0301809 0)
(1.53366 0.0358916 0)
(1.54631 0.0405439 0)
(1.56098 0.0438424 0)
(1.57746 0.0455496 0)
(1.59542 0.0454994 0)
(1.61443 0.0436561 0)
(1.63381 0.0402064 0)
(1.65263 0.0354272 0)
(1.67012 0.0295857 0)
(1.68558 0.0230665 0)
(1.69842 0.0162672 0)
(1.70824 0.00951648 0)
(1.71489 0.00305945 0)
(1.71844 -0.00296182 0)
(1.7189 -0.00847629 0)
(1.71617 -0.013037 0)
(1.71053 -0.0163139 0)
(1.70245 -0.0184856 0)
(1.69257 -0.0197618 0)
(1.68153 -0.020363 0)
(1.66988 -0.0205473 0)
(1.65809 -0.0205616 0)
(1.64645 -0.0205906 0)
(1.63511 -0.0207378 0)
(1.62412 -0.0210309 0)
(1.6135 -0.0214448 0)
(1.60323 -0.0219097 0)
(1.59331 -0.0223187 0)
(1.58373 -0.0225422 0)
(1.57454 -0.0224452 0)
(1.56578 -0.0219044 0)
(1.55758 -0.0208213 0)
(1.55005 -0.0191298 0)
(1.54336 -0.0167984 0)
(1.53768 -0.0138268 0)
(1.53315 -0.0102555 0)
(1.52996 -0.0061559 0)
(1.5283 -0.00160308 0)
(1.5284 0.00324911 0)
(1.53032 0.00827066 0)
(1.53404 0.0132833 0)
(1.53953 0.017914 0)
(1.54684 0.0218008 0)
(1.55592 0.024858 0)
(1.56655 0.0271951 0)
(1.57839 0.0287616 0)
(1.59108 0.0292738 0)
(1.6043 0.0285895 0)
(1.61758 0.0268452 0)
(1.63037 0.0242651 0)
(1.64224 0.0210425 0)
(1.65279 0.0173652 0)
(1.66172 0.0134341 0)
(1.6688 0.00943782 0)
(1.67393 0.00551334 0)
(1.67715 0.00173127 0)
(1.67854 -0.00187355 0)
(1.67809 -0.00519763 0)
(1.67587 -0.00796915 0)
(1.6721 -0.0101842 0)
(1.66707 -0.0119341 0)
(1.66111 -0.0133 0)
(1.65449 -0.0143759 0)
(1.64745 -0.0152564 0)
(1.64016 -0.0160171 0)
(1.63274 -0.0167075 0)
(1.62527 -0.0173481 0)
(1.6178 -0.0179268 0)
(1.61035 -0.0184031 0)
(1.60296 -0.0187201 0)
(1.59566 -0.0188172 0)
(1.58851 -0.0186369 0)
(1.58159 -0.0181286 0)
(1.57499 -0.0172521 0)
(1.56884 -0.0159803 0)
(1.56327 -0.0143012 0)
(1.55842 -0.0122181 0)
(1.55443 -0.00974671 0)
(1.55144 -0.00689549 0)
(1.54959 -0.00367661 0)
(1.549 -0.000174865 0)
(1.54976 0.00341422 0)
(1.55188 0.00694307 0)
(1.55537 0.0102737 0)
(1.56017 0.0132724 0)
(1.56617 0.0158176 0)
(1.57323 0.0178062 0)
(1.58116 0.0191586 0)