/*--------------------------------*- C++ -*----------------------------------*\
| =========                 |                                                 |
| \\      /  F ield         | OpenFOAM: The Open Source CFD Toolbox           |
|  \\    /   O peration     | Version:  2206                                  |
|   \\  /    A nd           | Website:  www.openfoam.com                      |
|    \\/     M anipulation  |                                                 |
\*---------------------------------------------------------------------------*/
FoamFile
{
    version     2.0;
    format      ascii;
    arch        "LSB;label=32;scalar=64";
    class       volVectorField;
    location    "18.5001";
    object      ddtCorrDdt0(U);
}
// * * * * * * * * * * * * * * * * * * * * * * * * * * * * * * * * * * * * * //

dimensions      [0 1 -2 0 0 0 0];

internalField   nonuniform List<vector> 
1865
(
(16.4341 0.338988 0)
(16.9333 -2.38217 0)
(16.831 -4.95591 0)
(16.1212 -7.33691 0)
(14.866 -9.49824 0)
(13.1961 -11.4643 0)
(11.1684 -13.2045 0)
(8.84439 -14.6424 0)
(6.29265 -15.6621 0)
(3.61408 -16.1447 0)
(0.948332 -16.0143 0)
(-1.61306 -15.2678 0)
(-3.98855 -13.9467 0)
(-6.11379 -12.1214 0)
(-7.96729 -9.88641 0)
(-9.54485 -7.34025 0)
(-10.7973 -4.60212 0)
(-11.674 -1.83412 0)
(-12.2912 0.894133 0)
(-12.6181 3.59283 0)
(-12.6214 6.17714 0)
(-12.2887 8.52909 0)
(-11.597 10.5412 0)
(-10.4772 12.079 0)
(-8.91981 13.0624 0)
(-7.05929 13.5669 0)
(-4.99661 13.5682 0)
(-2.82456 13.0877 0)
(-0.636686 12.1735 0)
(1.50572 10.9009 0)
(3.60473 9.33862 0)
(5.64297 7.50133 0)
(7.44401 5.39722 0)
(8.90699 3.24753 0)
(10.0529 1.21017 0)
(10.8306 -0.743263 0)
(11.2238 -2.61307 0)
(11.2117 -4.35489 0)
(10.7869 -5.91978 0)
(9.95048 -7.25345 0)
(8.81126 -8.38509 0)
(7.41156 -9.30552 0)
(5.80736 -9.97751 0)
(4.07903 -10.3383 0)
(2.31384 -10.3379 0)
(0.585673 -9.96818 0)
(-1.05565 -9.24934 0)
(-2.57044 -8.22104 0)
(-3.94486 -6.93219 0)
(-5.17054 -5.42541 0)
(-6.20594 -3.75107 0)
(-6.99517 -2.02254 0)
(-7.61309 -0.331404 0)
(-8.05256 1.34458 0)
(-8.296 2.99224 0)
(-8.3222 4.55037 0)
(-8.10945 5.94221 0)
(-7.63344 7.09841 0)
(-6.8296 7.91043 0)
(-5.78479 8.42406 0)
(-4.54981 8.63129 0)
(-3.20079 8.52025 0)
(-1.7973 8.11047 0)
(-0.404178 7.44127 0)
(0.949791 6.56681 0)
(2.28325 5.5268 0)
(3.58198 4.30803 0)
(4.70276 2.91351 0)
(5.6453 1.53696 0)
(6.3973 0.231058 0)
(6.92488 -1.03113 0)
(7.2126 -2.23697 0)
(7.23836 -3.34543 0)
(6.99261 -4.31575 0)
(6.46147 -5.09971 0)
(5.72022 -5.72294 0)
(4.80225 -6.18234 0)
(3.7616 -6.45657 0)
(2.65291 -6.51671 0)
(1.53285 -6.35273 0)
(0.444459 -5.97337 0)
(-0.582281 -5.40388 0)
(-1.54 -4.67424 0)
(-2.42936 -3.80512 0)
(-3.22756 -2.8068 0)
(-3.87128 -1.73279 0)
(-4.40727 -0.687018 0)
(-4.83136 0.337499 0)
(-5.13601 1.34985 0)
(-5.31047 2.33095 0)
(-5.33566 3.23852 0)
(-5.19448 4.02608 0)
(-4.85609 4.63976 0)
(-4.32014 5.05036 0)
(-3.64006 5.28264 0)
(-2.85229 5.3243 0)
(-1.99837 5.17402 0)
(-1.12224 4.84862 0)
(-0.26452 4.37999 0)
(0.565364 3.80392 0)
(1.38931 3.13962 0)
(2.19365 2.35972 0)
(2.88046 1.48168 0)
(3.47902 0.640706 0)
(3.96401 -0.159726 0)
(4.31517 -0.936106 0)
(4.51973 -1.67333 0)
(4.55932 -2.33951 0)
(4.42738 -2.90795 0)
(4.10869 -3.34327 0)
(3.6555 -3.66889 0)
(3.0905 -3.88176 0)
(2.44872 -3.96935 0)
(1.769 -3.92125 0)
(1.08643 -3.74158 0)
(0.425224 -3.44503 0)
(-0.203966 -3.05169 0)
(-0.806648 -2.57712 0)
(-1.37698 -2.01717 0)
(-1.87191 -1.37538 0)
(-2.29517 -0.727226 0)
(-2.66411 -0.107184 0)
(-2.93904 0.549939 0)
(-3.20231 1.09695 0)
(-3.27094 1.91379 0)
(18.4919 -0.345521 0)
(18.4987 -2.3956 0)
(17.9264 -4.31754 0)
(16.8694 -6.13136 0)
(15.3835 -7.83261 0)
(13.5236 -9.40331 0)
(11.3308 -10.814 0)
(8.86541 -12.0107 0)
(6.20012 -12.8896 0)
(3.42758 -13.3222 0)
(0.646994 -13.2415 0)
(-2.0905 -12.6426 0)
(-4.72567 -11.5385 0)
(-7.16968 -9.95305 0)
(-9.31366 -7.94998 0)
(-11.1438 -5.71272 0)
(-12.6402 -3.36297 0)
(-13.7963 -0.950983 0)
(-14.6058 1.49512 0)
(-15.0363 3.89715 0)
(-15.0113 6.1236 0)
(-14.4039 8.005 0)
(-13.1966 9.44382 0)
(-11.5116 10.4748 0)
(-9.4166 11.1009 0)
(-7.02975 11.3112 0)
(-4.48219 11.1142 0)
(-1.86398 10.5623 0)
(0.809343 9.70157 0)
(3.51067 8.49818 0)
(5.99966 6.89193 0)
(8.19236 5.19031 0)
(9.99757 3.51071 0)
(11.3403 1.86725 0)
(12.2121 0.267233 0)
(12.6344 -1.24741 0)
(12.5831 -2.63736 0)
(12.1026 -3.89423 0)
(11.2798 -5.02437 0)
(10.1574 -6.02833 0)
(8.78396 -6.90283 0)
(7.20284 -7.62725 0)
(5.46665 -8.16108 0)
(3.63727 -8.45125 0)
(1.78054 -8.45389 0)
(-0.0670111 -8.15956 0)
(-1.88341 -7.56639 0)
(-3.61666 -6.66867 0)
(-5.18095 -5.48644 0)
(-6.56222 -4.14408 0)
(-7.73604 -2.71596 0)
(-8.68666 -1.23708 0)
(-9.40964 0.275611 0)
(-9.89179 1.78085 0)
(-10.0891 3.21168 0)
(-9.93238 4.48227 0)
(-9.3456 5.49644 0)
(-8.42851 6.26936 0)
(-7.21255 6.80083 0)
(-5.76546 7.08564 0)
(-4.1696 7.11186 0)
(-2.50146 6.89911 0)
(-0.79598 6.48433 0)
(0.95057 5.87629 0)
(2.68205 5.01634 0)
(4.24768 3.92825 0)
(5.62374 2.81004 0)
(6.74759 1.71134 0)
(7.57817 0.634051 0)
(8.11297 -0.408846 0)
(8.3576 -1.38477 0)
(8.28316 -2.26334 0)
(7.91752 -3.03291 0)
(7.31896 -3.69601 0)
(6.52008 -4.25606 0)
(5.55975 -4.71443 0)
(4.47382 -5.05255 0)
(3.30447 -5.24803 0)
(2.09746 -5.28109 0)
(0.88857 -5.14375 0)
(-0.323343 -4.83532 0)
(-1.51761 -4.34197 0)
(-2.628 -3.64739 0)
(-3.63178 -2.83689 0)
(-4.51409 -1.97245 0)
(-5.25257 -1.07696 0)
(-5.83706 -0.158088 0)
(-6.26395 0.762624 0)
(-6.51381 1.64829 0)
(-6.55294 2.45802 0)
(-6.31612 3.1331 0)
(-5.8486 3.6642 0)
(-5.17861 4.05252 0)
(-4.34149 4.2976 0)
(-3.383 4.39166 0)
(-2.35735 4.33308 0)
(-1.30254 4.14181 0)
(-0.224926 3.84106 0)
(0.880727 3.42169 0)
(1.94962 2.82716 0)
(2.90749 2.12176 0)
(3.74826 1.41541 0)
(4.43078 0.728174 0)
(4.93321 0.0559077 0)
(5.25343 -0.587674 0)
(5.38917 -1.18038 0)
(5.31411 -1.70098 0)
(5.05388 -2.1424 0)
(4.64274 -2.50684 0)
(4.10437 -2.79965 0)
(3.46758 -3.02125 0)
(2.76087 -3.1586 0)
(2.01369 -3.20093 0)
(1.2516 -3.14686 0)
(0.476621 -2.99978 0)
(-0.308015 -2.74924 0)
(-1.06616 -2.36884 0)
(-1.76527 -1.89214 0)
(-2.40072 -1.37672 0)
(-2.95384 -0.841208 0)
(-3.40124 -0.290205 0)
(-3.76211 0.26574 0)
(-3.96722 0.838284 0)
(-4.13274 1.28987 0)
(-3.88851 1.88703 0)
(17.7712 -0.402757 0)
(17.4564 -1.86672 0)
(16.7223 -3.31833 0)
(15.5986 -4.73774 0)
(14.1177 -6.08401 0)
(12.3078 -7.32718 0)
(10.1957 -8.43906 0)
(7.81108 -9.38725 0)
(5.2027 -10.1035 0)
(2.44232 -10.4673 0)
(-0.422855 -10.3848 0)
(-3.29985 -9.77543 0)
(-6.07584 -8.76777 0)
(-8.64598 -7.41458 0)
(-10.9135 -5.76813 0)
(-12.8102 -3.89424 0)
(-14.303 -1.87483 0)
(-15.3542 0.191878 0)
(-15.9048 2.19085 0)
(-15.801 3.99476 0)
(-15.0314 5.50882 0)
(-13.6967 6.70905 0)
(-11.8604 7.59695 0)
(-9.63358 8.17958 0)
(-7.14964 8.46924 0)
(-4.52989 8.48928 0)
(-1.83133 8.25573 0)
(0.947505 7.71178 0)
(3.6141 6.72741 0)
(6.04026 5.62205 0)
(8.11779 4.49499 0)
(9.75576 3.34646 0)
(10.9417 2.17884 0)
(11.6995 1.01847 0)
(12.0442 -0.0951691 0)
(11.9696 -1.13455 0)
(11.5859 -2.11564 0)
(10.9093 -3.05099 0)
(9.96722 -3.92025 0)
(8.79134 -4.69348 0)
(7.41193 -5.36103 0)
(5.859 -5.91549 0)
(4.17003 -6.3344 0)
(2.38486 -6.56849 0)
(0.521493 -6.55759 0)
(-1.38521 -6.23255 0)
(-3.24819 -5.63152 0)
(-5.00677 -4.83745 0)
(-6.58944 -3.87253 0)
(-7.93981 -2.76577 0)
(-9.02479 -1.55952 0)
(-9.81841 -0.310413 0)
(-10.2873 0.910941 0)
(-10.3557 2.03471 0)
(-9.98927 3.00467 0)
(-9.26362 3.80454 0)
(-8.20828 4.43157 0)
(-6.88533 4.88945 0)
(-5.37098 5.17533 0)
(-3.74412 5.29947 0)
(-2.05775 5.26738 0)
(-0.310149 5.06485 0)
(1.45017 4.60155 0)
(3.0893 3.92499 0)
(4.5613 3.2075 0)
(5.79095 2.46948 0)
(6.73512 1.70743 0)
(7.39444 0.928159 0)
(7.78273 0.162916 0)
(7.88534 -0.555392 0)
(7.73188 -1.2135 0)
(7.37191 -1.82076 0)
(6.8209 -2.38046 0)
(6.09951 -2.87673 0)
(5.23302 -3.2913 0)
(4.24885 -3.62535 0)
(3.1741 -3.87716 0)
(2.03506 -4.0272 0)
(0.844114 -4.04309 0)
(-0.392153 -3.88146 0)
(-1.61601 -3.52116 0)
(-2.78611 -3.04804 0)
(-3.85376 -2.48219 0)
(-4.77456 -1.83517 0)
(-5.52329 -1.12605 0)
(-6.08406 -0.384894 0)
(-6.4388 0.345547 0)
(-6.5536 1.0256 0)
(-6.39235 1.62224 0)
(-6.01127 2.12762 0)
(-5.42316 2.53879 0)
(-4.66202 2.8584 0)
(-3.76929 3.08157 0)
(-2.79154 3.20743 0)
(-1.76855 3.24094 0)
(-0.70811 3.18151 0)
(0.38965 2.99691 0)
(1.44647 2.62522 0)
(2.42194 2.1888 0)
(3.27965 1.73205 0)
(3.97629 1.262 0)
(4.49413 0.776081 0)
(4.83632 0.284988 0)
(5.0086 -0.186842 0)
(4.98665 -0.617356 0)
(4.82372 -1.00554 0)
(4.52747 -1.35454 0)
(4.11347 -1.66485 0)
(3.59788 -1.92728 0)
(3.00096 -2.13507 0)
(2.34375 -2.29052 0)
(1.6435 -2.38987 0)
(0.907346 -2.41854 0)
(0.135784 -2.35009 0)
(-0.63888 -2.14809 0)
(-1.38869 -1.87485 0)
(-2.08418 -1.55103 0)
(-2.69381 -1.18314 0)
(-3.19374 -0.778357 0)
(-3.57764 -0.349465 0)
(-3.82333 0.0790064 0)
(-3.95046 0.489359 0)
(-3.83643 0.860766 0)
(-3.76127 1.14047 0)
(-3.16941 1.53298 0)
(14.232 -0.19711 0)
(13.8957 -1.30125 0)
(13.2386 -2.40186 0)
(12.2657 -3.46988 0)
(10.9858 -4.47796 0)
(9.41249 -5.40179 0)
(7.56704 -6.22087 0)
(5.47333 -6.90972 0)
(3.16204 -7.40805 0)
(0.65381 -7.60222 0)
(-1.95318 -7.365 0)
(-4.52929 -6.83682 0)
(-6.95239 -6.02993 0)
(-9.11913 -4.96216 0)
(-10.94 -3.68005 0)
(-12.3317 -2.25573 0)
(-13.2315 -0.780674 0)
(-13.5521 0.641304 0)
(-13.2683 1.92064 0)
(-12.489 3.03303 0)
(-11.2547 3.97379 0)
(-9.64811 4.72224 0)
(-7.77075 5.27084 0)
(-5.72571 5.64665 0)
(-3.59316 5.86675 0)
(-1.40153 5.88674 0)
(0.795516 5.58183 0)
(2.8576 5.04666 0)
(4.70123 4.46419 0)
(6.24496 3.82041 0)
(7.47243 3.10107 0)
(8.39147 2.33185 0)
(9.01391 1.53974 0)
(9.3477 0.744683 0)
(9.38878 -0.0332857 0)
(9.20299 -0.791398 0)
(8.78897 -1.52823 0)
(8.15828 -2.22417 0)
(7.32347 -2.86033 0)
(6.30076 -3.42168 0)
(5.11216 -3.90443 0)
(3.78003 -4.30509 0)
(2.32462 -4.60197 0)
(0.758553 -4.73447 0)
(-0.878455 -4.60373 0)
(-2.50296 -4.29091 0)
(-4.03792 -3.8313 0)
(-5.41145 -3.22553 0)
(-6.57002 -2.49402 0)
(-7.46689 -1.6764 0)
(-8.06827 -0.819373 0)
(-8.33311 0.0240259 0)
(-8.23572 0.802114 0)
(-7.84695 1.49846 0)
(-7.18644 2.11452 0)
(-6.29532 2.63761 0)
(-5.22529 3.0518 0)
(-4.03132 3.36408 0)
(-2.76096 3.58362 0)
(-1.44309 3.69282 0)
(-0.0913862 3.63044 0)
(1.22419 3.36182 0)
(2.4442 3.02898 0)
(3.5088 2.65001 0)
(4.38283 2.21083 0)
(5.06219 1.71568 0)
(5.54748 1.18919 0)
(5.84329 0.652332 0)
(5.93389 0.1259 0)
(5.85755 -0.377398 0)
(5.62631 -0.859367 0)
(5.24895 -1.31115 0)
(4.73719 -1.71816 0)
(4.10432 -2.07136 0)
(3.36648 -2.36765 0)
(2.5417 -2.60677 0)
(1.64563 -2.78466 0)
(0.687405 -2.8746 0)
(-0.315602 -2.81631 0)
(-1.31228 -2.63103 0)
(-2.25873 -2.37012 0)
(-3.10655 -2.03027 0)
(-3.82397 -1.61655 0)
(-4.38558 -1.14935 0)
(-4.7724 -0.654174 0)
(-4.96751 -0.158841 0)
(-4.94784 0.306919 0)
(-4.76031 0.73117 0)
(-4.41413 1.11684 0)
(-3.93035 1.45865 0)
(-3.33479 1.74298 0)
(-2.65623 1.96817 0)
(-1.92141 2.13834 0)
(-1.14947 2.24716 0)
(-0.349423 2.26626 0)
(0.452196 2.1552 0)
(1.21546 1.97296 0)
(1.90553 1.75914 0)
(2.48855 1.50834 0)
(2.9548 1.21518 0)
(3.3016 0.88949 0)
(3.52946 0.54925 0)
(3.63173 0.210792 0)
(3.6159 -0.110897 0)
(3.50185 -0.415336 0)
(3.29335 -0.701921 0)
(2.99917 -0.960003 0)
(2.62961 -1.18247 0)
(2.19513 -1.36747 0)
(1.70747 -1.51653 0)
(1.17696 -1.62972 0)
(0.610555 -1.69325 0)
(0.0187626 -1.67465 0)
(-0.571262 -1.57616 0)
(-1.13529 -1.43672 0)
(-1.64315 -1.25442 0)
(-2.07485 -1.02875 0)
(-2.41867 -0.768492 0)
(-2.65868 -0.489119 0)
(-2.79832 -0.203981 0)
(-2.80281 0.0734027 0)
(-2.74881 0.333419 0)
(-2.49284 0.563095 0)
(-2.35763 0.772869 0)
(-1.78941 1.07364 0)
(9.73138 -0.0142578 0)
(9.5028 -0.83562 0)
(9.02975 -1.64555 0)
(8.31223 -2.42724 0)
(7.35622 -3.1604 0)
(6.17387 -3.82515 0)
(4.78249 -4.40386 0)
(3.20199 -4.87403 0)
(1.45038 -5.18788 0)
(-0.434176 -5.243 0)
(-2.32268 -5.04829 0)
(-4.1205 -4.66726 0)
(-5.74352 -4.10031 0)
(-7.11505 -3.37164 0)
(-8.16903 -2.51936 0)
(-8.86024 -1.59259 0)
(-9.1436 -0.646854 0)
(-9.04715 0.264877 0)
(-8.6278 1.1245 0)
(-7.91488 1.91114 0)
(-6.95907 2.59257 0)
(-5.81567 3.15162 0)
(-4.53883 3.58638 0)
(-3.17407 3.90012 0)
(-1.75117 4.07712 0)
(-0.309939 4.06512 0)
(1.07051 3.88324 0)
(2.3337 3.62187 0)
(3.43874 3.25876 0)
(4.37468 2.81345 0)
(5.13693 2.31186 0)
(5.71751 1.77266 0)
(6.11417 1.21046 0)
(6.32305 0.636926 0)
(6.34817 0.062982 0)
(6.21094 -0.500384 0)
(5.90679 -1.04204 0)
(5.44214 -1.55076 0)
(4.82778 -2.01605 0)
(4.07704 -2.42818 0)
(3.20555 -2.77723 0)
(2.23043 -3.05654 0)
(1.16572 -3.24959 0)
(0.0298945 -3.31032 0)
(-1.11238 -3.2037 0)
(-2.20059 -2.99298 0)
(-3.1901 -2.67707 0)
(-4.03955 -2.26719 0)
(-4.71387 -1.7811 0)
(-5.18741 -1.24185 0)
(-5.44303 -0.676012 0)
(-5.47255 -0.112204 0)
(-5.31904 0.432466 0)
(-4.9895 0.944206 0)
(-4.5068 1.40324 0)
(-3.89627 1.79624 0)
(-3.18449 2.11624 0)
(-2.39776 2.3626 0)
(-1.55798 2.53155 0)
(-0.681482 2.6048 0)
(0.196745 2.54619 0)
(1.02585 2.41801 0)
(1.77548 2.22033 0)
(2.42875 1.95345 0)
(2.97602 1.63694 0)
(3.40806 1.28634 0)
(3.71704 0.914481 0)
(3.90318 0.532621 0)
(3.95478 0.149428 0)
(3.8982 -0.224537 0)
(3.73113 -0.580856 0)
(3.45973 -0.91199 0)
(3.0927 -1.21129 0)
(2.64054 -1.47252 0)
(2.11544 -1.69053 0)
(1.53008 -1.86217 0)
(0.895645 -1.9825 0)
(0.221619 -2.03629 0)
(-0.461452 -1.99029 0)
(-1.11216 -1.87197 0)
(-1.70797 -1.69317 0)
(-2.22631 -1.45893 0)
(-2.6485 -1.17883 0)
(-2.95964 -0.864512 0)
(-3.15237 -0.529698 0)
(-3.21529 -0.188603 0)
(-3.17053 0.146383 0)
(-3.02395 0.466235 0)
(-2.78425 0.759275 0)
(-2.46352 1.01721 0)
(-2.07511 1.23444 0)
(-1.63301 1.40877 0)
(-1.1498 1.53764 0)
(-0.636047 1.61339 0)
(-0.107556 1.61698 0)
(0.404971 1.56088 0)
(0.88188 1.46247 0)
(1.30719 1.31451 0)
(1.6721 1.12753 0)
(1.96999 0.913316 0)
(2.19384 0.680963 0)
(2.34032 0.438978 0)
(2.40427 0.194054 0)
(2.39466 -0.0460884 0)
(2.31698 -0.274936 0)
(2.17379 -0.487083 0)
(1.971 -0.677849 0)
(1.71589 -0.843989 0)
(1.41638 -0.982731 0)
(1.08062 -1.09219 0)
(0.715742 -1.17088 0)
(0.327589 -1.21286 0)
(-0.0686671 -1.20567 0)
(-0.447056 -1.14604 0)
(-0.796368 -1.04941 0)
(-1.1056 -0.919698 0)
(-1.36327 -0.762457 0)
(-1.56171 -0.583566 0)
(-1.69167 -0.390211 0)
(-1.7592 -0.189145 0)
(-1.74907 0.0129094 0)
(-1.69842 0.204208 0)
(-1.5458 0.385881 0)
(-1.45459 0.550886 0)
(-1.06915 0.769086 0)
(6.58424 0.0399228 0)
(6.46281 -0.574038 0)
(6.15851 -1.17474 0)
(5.67344 -1.7502 0)
(5.01418 -2.2862 0)
(4.19133 -2.76678 0)
(3.22278 -3.17682 0)
(2.12837 -3.49658 0)
(0.923341 -3.69276 0)
(-0.3457 -3.73535 0)
(-1.58317 -3.603 0)
(-2.7423 -3.34666 0)
(-3.77925 -2.96572 0)
(-4.64944 -2.47217 0)
(-5.31742 -1.88918 0)
(-5.76383 -1.24782 0)
(-5.97245 -0.576008 0)
(-5.9545 0.0953145 0)
(-5.73373 0.734771 0)
(-5.32156 1.317 0)
(-4.74391 1.82352 0)
(-4.02989 2.24229 0)
(-3.20967 2.56653 0)
(-2.31081 2.79763 0)
(-1.35699 2.93397 0)
(-0.389663 2.9495 0)
(0.542287 2.84351 0)
(1.40862 2.65644 0)
(2.19102 2.39966 0)
(2.87156 2.08761 0)
(3.43686 1.7307 0)
(3.87831 1.34062 0)
(4.19213 0.93038 0)
(4.379 0.508992 0)
(4.42639 0.0827302 0)
(4.35429 -0.336899 0)
(4.15741 -0.739779 0)
(3.84157 -1.1179 0)
(3.41536 -1.46267 0)
(2.88898 -1.76504 0)
(2.27501 -2.01771 0)
(1.58843 -2.21526 0)
(0.846444 -2.34716 0)
(0.062845 -2.39326 0)
(-0.716925 -2.32 0)
(-1.4501 -2.16951 0)
(-2.11621 -1.94926 0)
(-2.69121 -1.66228 0)
(-3.15392 -1.31906 0)
(-3.49022 -0.93569 0)
(-3.69408 -0.529555 0)
(-3.75336 -0.115516 0)
(-3.68724 0.286874 0)
(-3.4989 0.661734 0)
(-3.19933 0.997898 0)
(-2.80393 1.28677 0)
(-2.32967 1.52208 0)
(-1.79332 1.70201 0)
(-1.20953 1.82683 0)
(-0.595229 1.88693 0)
(0.0183955 1.85663 0)
(0.600387 1.76283 0)
(1.13809 1.6189 0)
(1.61734 1.43204 0)
(2.02489 1.20964 0)
(2.35176 0.959147 0)
(2.59279 0.690053 0)
(2.7471 0.411909 0)
(2.80914 0.130247 0)
(2.78596 -0.147036 0)
(2.68131 -0.411595 0)
(2.49839 -0.657741 0)
(2.24404 -0.880046 0)
(1.92601 -1.0733 0)
(1.5533 -1.23325 0)
(1.13763 -1.35718 0)
(0.688775 -1.44162 0)
(0.214434 -1.47821 0)
(-0.265708 -1.45166 0)
(-0.721651 -1.36253 0)
(-1.13979 -1.23443 0)
(-1.50722 -1.06795 0)
(-1.81173 -0.867211 0)
(-2.04419 -0.640341 0)
(-2.19979 -0.397644 0)
(-2.27456 -0.147682 0)
(-2.26697 0.0993906 0)
(-2.18658 0.333354 0)
(-2.03631 0.547657 0)
(-1.8237 0.737222 0)
(-1.55766 0.897254 0)
(-1.24779 1.02579 0)
(-0.90348 1.12165 0)
(-0.534748 1.17964 0)
(-0.153764 1.18496 0)
(0.217758 1.14438 0)
(0.567059 1.06986 0)
(0.885374 0.964236 0)
(1.16312 0.832916 0)
(1.39293 0.680486 0)
(1.56982 0.512628 0)
(1.69171 0.336121 0)
(1.75678 0.156121 0)
(1.76391 -0.0216894 0)
(1.72021 -0.191518 0)
(1.62656 -0.349528 0)
(1.48756 -0.492206 0)
(1.30857 -0.616291 0)
(1.09549 -0.719364 0)
(0.855117 -0.800063 0)
(0.595372 -0.857356 0)
(0.317309 -0.889134 0)
(0.0318539 -0.885266 0)
(-0.241068 -0.840584 0)
(-0.493741 -0.76906 0)
(-0.719823 -0.676539 0)
(-0.911204 -0.56389 0)
(-1.06274 -0.434615 0)
(-1.16875 -0.293999 0)
(-1.23291 -0.147153 0)
(-1.24068 -0.000377048 0)
(-1.21792 0.14078 0)
(-1.12311 0.271154 0)
(-1.06008 0.394314 0)
(-0.782143 0.549056 0)
(5.04894 0.0434911 0)
(4.97196 -0.409078 0)
(4.75136 -0.849785 0)
(4.38771 -1.26983 0)
(3.88848 -1.65901 0)
(3.26305 -2.00528 0)
(2.52816 -2.29909 0)
(1.71265 -2.53052 0)
(0.801482 -2.68229 0)
(-0.152911 -2.69347 0)
(-1.06465 -2.59576 0)
(-1.92426 -2.4146 0)
(-2.70369 -2.14401 0)
(-3.37049 -1.7934 0)
(-3.89859 -1.37972 0)
(-4.27063 -0.924222 0)
(-4.47928 -0.446065 0)
(-4.5084 0.034502 0)
(-4.38304 0.493865 0)
(-4.10635 0.915384 0)
(-3.69603 1.28554 0)
(-3.1748 1.5933 0)
(-2.5659 1.83256 0)
(-1.89106 2.00202 0)
(-1.17045 2.10371 0)
(-0.429805 2.13091 0)
(0.295484 2.06135 0)
(0.97264 1.93152 0)
(1.59169 1.75405 0)
(2.13691 1.5325 0)
(2.59595 1.27601 0)
(2.96051 0.994238 0)
(3.22527 0.696352 0)
(3.38967 0.389519 0)
(3.44608 0.0780552 0)
(3.40106 -0.229159 0)
(3.25746 -0.523599 0)
(3.01835 -0.79917 0)
(2.69107 -1.04983 0)
(2.28431 -1.26933 0)
(1.80876 -1.45218 0)
(1.27766 -1.59398 0)
(0.706543 -1.68775 0)
(0.102502 -1.71509 0)
(-0.494458 -1.66185 0)
(-1.0569 -1.55951 0)
(-1.57 -1.40534 0)
(-2.01742 -1.20233 0)
(-2.38339 -0.959291 0)
(-2.65582 -0.687732 0)
(-2.82926 -0.399585 0)
(-2.89487 -0.104559 0)
(-2.85853 0.184582 0)
(-2.7268 0.45589 0)
(-2.50622 0.700486 0)
(-2.20874 0.911609 0)
(-1.84716 1.08421 0)
(-1.43476 1.21485 0)
(-0.985729 1.3034 0)
(-0.513094 1.34943 0)
(-0.0348968 1.33881 0)
(0.421094 1.27084 0)
(0.843442 1.17115 0)
(1.22311 1.03961 0)
(1.54895 0.880818 0)
(1.81319 0.701382 0)
(2.01113 0.50819 0)
(2.14079 0.307732 0)
(2.19882 0.104068 0)
(2.18654 -0.0970673 0)
(2.10924 -0.289548 0)
(1.96865 -0.468583 0)
(1.77034 -0.629995 0)
(1.52092 -0.770124 0)
(1.22747 -0.885898 0)
(0.899166 -0.976265 0)
(0.546467 -1.03801 0)
(0.173062 -1.06185 0)
(-0.203868 -1.03524 0)
(-0.561014 -0.975498 0)
(-0.888507 -0.886455 0)
(-1.1778 -0.768184 0)
(-1.41974 -0.625132 0)
(-1.60655 -0.463475 0)
(-1.73364 -0.290211 0)
(-1.79775 -0.111712 0)
(-1.79675 0.0654166 0)
(-1.73739 0.234809 0)
(-1.62139 0.390917 0)
(-1.45487 0.529097 0)
(-1.24493 0.64571 0)
(-0.999198 0.738193 0)
(-0.726058 0.806303 0)
(-0.435681 0.849739 0)
(-0.130223 0.861109 0)
(0.169823 0.827432 0)
(0.44798 0.773409 0)
(0.703128 0.69857 0)
(0.927624 0.60427 0)
(1.11511 0.49451 0)
(1.26121 0.373795 0)
(1.36377 0.246679 0)
(1.42145 0.116968 0)
(1.43188 -0.0115816 0)
(1.40098 -0.135126 0)
(1.32911 -0.25028 0)
(1.22006 -0.354198 0)
(1.07821 -0.444527 0)
(0.908382 -0.51961 0)
(0.715838 -0.57863 0)
(0.505959 -0.621429 0)
(0.285669 -0.645036 0)
(0.0604994 -0.639142 0)
(-0.159912 -0.604813 0)
(-0.36351 -0.55542 0)
(-0.545134 -0.489643 0)
(-0.700213 -0.408791 0)
(-0.824374 -0.315971 0)
(-0.91331 -0.214782 0)
(-0.968206 -0.109138 0)
(-0.979213 -0.00386124 0)
(-0.963782 0.0988339 0)
(-0.894269 0.190357 0)
(-0.841852 0.281081 0)
(-0.622335 0.381379 0)
(4.4208 0.0259678 0)
(4.35281 -0.286929 0)
(4.15852 -0.591991 0)
(3.83815 -0.881436 0)
(3.39993 -1.14687 0)
(2.85439 -1.38038 0)
(2.21438 -1.57606 0)
(1.4983 -1.73508 0)
(0.728823 -1.84965 0)
(-0.0636151 -1.82784 0)
(-0.852905 -1.76749 0)
(-1.59435 -1.64701 0)
(-2.26551 -1.46265 0)
(-2.84274 -1.2241 0)
(-3.30445 -0.943318 0)
(-3.63524 -0.633797 0)
(-3.82767 -0.309146 0)
(-3.87048 0.0179569 0)
(-3.77617 0.332282 0)
(-3.55282 0.620639 0)
(-3.213 0.873732 0)
(-2.77417 1.08437 0)
(-2.25632 1.24872 0)
(-1.68035 1.36314 0)
(-1.06845 1.42814 0)
(-0.443076 1.44746 0)
(0.186817 1.41003 0)
(0.783519 1.319 0)
(1.32213 1.20013 0)
(1.80008 1.05137 0)
(2.206 0.87807 0)
(2.53093 0.686462 0)
(2.76942 0.482606 0)
(2.91918 0.271929 0)
(2.97677 0.0583038 0)
(2.94191 -0.152496 0)
(2.82148 -0.355027 0)
(2.61713 -0.544708 0)
(2.33609 -0.716476 0)
(1.9868 -0.865446 0)
(1.57931 -0.987842 0)
(1.12598 -1.08271 0)
(0.640458 -1.147 0)
(0.123069 -1.15322 0)
(-0.384725 -1.12372 0)
(-0.861649 -1.05917 0)
(-1.2984 -0.955797 0)
(-1.68108 -0.818859 0)
(-1.99606 -0.654816 0)
(-2.23291 -0.471165 0)
(-2.38637 -0.276111 0)
(-2.45124 -0.0767472 0)
(-2.42723 0.119038 0)
(-2.32235 0.303562 0)
(-2.14088 0.470632 0)
(-1.89258 0.614713 0)
(-1.58912 0.731513 0)
(-1.24274 0.818592 0)
(-0.864949 0.876004 0)
(-0.467621 0.906128 0)
(-0.0673883 0.905965 0)
(0.32142 0.860619 0)
(0.682161 0.793161 0)
(1.00699 0.706653 0)
(1.28694 0.601064 0)
(1.51526 0.480715 0)
(1.68738 0.350296 0)
(1.80096 0.214335 0)
(1.85431 0.0760094 0)
(1.84611 -0.0606668 0)
(1.78209 -0.191869 0)
(1.66309 -0.314256 0)
(1.49431 -0.424557 0)
(1.28184 -0.519745 0)
(1.03254 -0.597876 0)
(0.75414 -0.658467 0)
(0.455793 -0.700049 0)
(0.13641 -0.707522 0)
(-0.179506 -0.693607 0)
(-0.477794 -0.658053 0)
(-0.752209 -0.598994 0)
(-0.995056 -0.519654 0)
(-1.19819 -0.423716 0)
(-1.35498 -0.315349 0)
(-1.46143 -0.198969 0)
(-1.51421 -0.0787604 0)
(-1.51286 0.0409731 0)
(-1.46166 0.155824 0)
(-1.3621 0.261468 0)
(-1.21937 0.354721 0)
(-1.03958 0.433117 0)
(-0.829936 0.49488 0)
(-0.597154 0.539726 0)
(-0.346894 0.569568 0)
(-0.093505 0.581781 0)
(0.154785 0.554867 0)
(0.394149 0.520065 0)
(0.611992 0.471497 0)
(0.802885 0.409178 0)
(0.96237 0.336083 0)
(1.08676 0.255221 0)
(1.17391 0.169691 0)
(1.22257 0.0822381 0)
(1.23147 -0.00476482 0)
(1.20457 -0.0886715 0)
(1.14226 -0.166858 0)
(1.04786 -0.237386 0)
(0.925217 -0.298699 0)
(0.778659 -0.349556 0)
(0.613146 -0.389653 0)
(0.434176 -0.418603 0)
(0.243751 -0.430285 0)
(0.0501698 -0.42353 0)
(-0.135472 -0.40541 0)
(-0.307383 -0.37392 0)
(-0.461313 -0.330167 0)
(-0.592881 -0.276079 0)
(-0.697912 -0.213971 0)
(-0.773663 -0.146191 0)
(-0.818135 -0.0756402 0)
(-0.829716 -0.00498098 0)
(-0.812032 0.0635784 0)
(-0.757737 0.122937 0)
(-0.707658 0.183458 0)
(-0.527947 0.237347 0)
(4.15203 0.0339996 0)
(4.07709 -0.146902 0)
(3.8815 -0.323309 0)
(3.5673 -0.490855 0)
(3.14336 -0.645281 0)
(2.61957 -0.781349 0)
(2.01241 -0.894541 0)
(1.34257 -0.987031 0)
(0.63629 -1.05194 0)
(-0.106324 -1.07508 0)
(-0.84294 -1.03662 0)
(-1.52051 -0.959335 0)
(-2.13395 -0.850284 0)
(-2.66128 -0.712653 0)
(-3.0822 -0.552277 0)
(-3.38271 -0.37666 0)
(-3.55598 -0.193341 0)
(-3.59361 -0.0080658 0)
(-3.50487 0.171587 0)
(-3.2954 0.337607 0)
(-2.97781 0.48482 0)
(-2.56836 0.608826 0)
(-2.08537 0.705388 0)
(-1.54934 0.773264 0)
(-0.982859 0.813696 0)
(-0.416584 0.835083 0)
(0.174439 0.852478 0)
(0.744178 0.78497 0)
(1.23776 0.707119 0)
(1.67805 0.618041 0)
(2.05425 0.517287 0)
(2.35587 0.407445 0)
(2.57696 0.291163 0)
(2.71495 0.170797 0)
(2.76559 0.0483032 0)
(2.73066 -0.0738699 0)
(2.61486 -0.191655 0)
(2.42072 -0.301455 0)
(2.15524 -0.401 0)
(1.82717 -0.487876 0)
(1.4467 -0.559715 0)
(1.02769 -0.616569 0)
(0.588671 -0.666825 0)
(0.100804 -0.695151 0)
(-0.375053 -0.667776 0)
(-0.804924 -0.620482 0)
(-1.20111 -0.556756 0)
(-1.54986 -0.47683 0)
(-1.83722 -0.383075 0)
(-2.05372 -0.278915 0)
(-2.19323 -0.16841 0)
(-2.25258 -0.0547989 0)
(-2.23122 0.0577829 0)
(-2.13526 0.164153 0)
(-1.96888 0.260358 0)
(-1.74085 0.34392 0)
(-1.4611 0.412526 0)
(-1.14148 0.46485 0)
(-0.794116 0.499875 0)
(-0.433335 0.516952 0)
(-0.0724016 0.523854 0)
(0.292562 0.50758 0)
(0.625581 0.465673 0)
(0.920927 0.414242 0)
(1.17709 0.353196 0)
(1.38691 0.284441 0)
(1.54553 0.210187 0)
(1.65033 0.132624 0)
(1.69946 0.0534677 0)
(1.69197 -0.0255569 0)
(1.63242 -0.101991 0)
(1.52207 -0.17303 0)
(1.36577 -0.237041 0)
(1.16936 -0.292724 0)
(0.939655 -0.338851 0)
(0.685343 -0.375732 0)
(0.417891 -0.408255 0)
(0.119312 -0.427989 0)
(-0.173782 -0.413915 0)
(-0.440033 -0.387401 0)
(-0.687001 -0.351034 0)
(-0.906479 -0.304729 0)
(-1.08997 -0.249711 0)
(-1.23169 -0.188013 0)
(-1.32794 -0.121995 0)
(-1.37596 -0.0536551 0)
(-1.37488 0.0149614 0)
(-1.32788 0.081159 0)
(-1.2366 0.142352 0)
(-1.10587 0.196764 0)
(-0.941233 0.242885 0)
(-0.74893 0.279491 0)
(-0.536113 0.305809 0)
(-0.311718 0.322075 0)
(-0.0847683 0.330925 0)
(0.14822 0.32606 0)
(0.366424 0.305979 0)
(0.562191 0.276766 0)
(0.735035 0.240679 0)
(0.880033 0.198967 0)
(0.993383 0.153066 0)
(1.07296 0.10452 0)
(1.11756 0.0546707 0)
(1.12601 0.0046642 0)
(1.10126 -0.0438859 0)
(1.04393 -0.0893074 0)
(0.957055 -0.13048 0)
(0.844272 -0.166404 0)
(0.709739 -0.196233 0)
(0.558823 -0.219856 0)
(0.399328 -0.239943 0)
(0.222971 -0.256088 0)
(0.0439326 -0.251661 0)
(-0.121833 -0.238494 0)
(-0.275766 -0.218774 0)
(-0.414307 -0.193176 0)
(-0.532673 -0.162208 0)
(-0.626939 -0.126871 0)
(-0.695023 -0.088556 0)
(-0.73421 -0.0487527 0)
(-0.74594 -0.00854434 0)
(-0.726265 0.029688 0)
(-0.685338 0.0652824 0)
(-0.626143 0.0956795 0)
(-0.493227 0.113778 0)
(3.88702 0.0198047 0)
(3.8763 -0.0367864 0)
(3.74764 -0.0926023 0)
(3.50204 -0.145726 0)
(3.14626 -0.194874 0)
(2.6909 -0.238812 0)
(2.14602 -0.275486 0)
(1.52472 -0.301452 0)
(0.858241 -0.319738 0)
(0.183592 -0.359035 0)
(-0.479748 -0.331012 0)
(-1.13896 -0.305032 0)
(-1.74724 -0.26872 0)
(-2.27961 -0.225425 0)
(-2.71729 -0.176229 0)
(-3.04652 -0.122758 0)
(-3.25909 -0.0668282 0)
(-3.35022 -0.00974674 0)
(-3.31959 0.0461481 0)
(-3.17443 0.0979212 0)
(-2.92351 0.143779 0)
(-2.58067 0.182849 0)
(-2.16163 0.214274 0)
(-1.68313 0.237408 0)
(-1.16095 0.252399 0)
(-0.608456 0.262578 0)
(-0.0933294 0.293508 0)
(0.405524 0.258001 0)
(0.896142 0.227266 0)
(1.34198 0.197493 0)
(1.72888 0.165672 0)
(2.04908 0.13161 0)
(2.29648 0.0957825 0)
(2.46691 0.0588674 0)
(2.55791 0.0211019 0)
(2.56714 -0.0167698 0)
(2.49739 -0.0534916 0)
(2.35092 -0.0881314 0)
(2.13304 -0.119893 0)
(1.85049 -0.147871 0)
(1.51143 -0.171652 0)
(1.12381 -0.190507 0)
(0.693671 -0.207004 0)
(0.278814 -0.245376 0)
(-0.13244 -0.21773 0)
(-0.556118 -0.198359 0)
(-0.950699 -0.176202 0)
(-1.30081 -0.150569 0)
(-1.59606 -0.121415 0)
(-1.82775 -0.0894554 0)
(-1.98961 -0.0556983 0)
(-2.07843 -0.0210255 0)
(-2.09181 0.0135399 0)
(-2.03339 0.04653 0)
(-1.90685 0.076667 0)
(-1.7193 0.103051 0)
(-1.47928 0.125025 0)
(-1.19645 0.141966 0)
(-0.881565 0.153523 0)
(-0.545632 0.159443 0)
(-0.207109 0.16251 0)
(0.125681 0.165737 0)
(0.437898 0.148653 0)
(0.730716 0.13171 0)
(0.99045 0.112388 0)
(1.20937 0.0910556 0)
(1.3825 0.0682346 0)
(1.50627 0.0444959 0)
(1.57891 0.0201794 0)
(1.59886 -0.00432739 0)
(1.56759 -0.0280818 0)
(1.48687 -0.0503727 0)
(1.36022 -0.0707367 0)
(1.19217 -0.0886388 0)
(0.98802 -0.103807 0)
(0.752799 -0.115984 0)
(0.490368 -0.126844 0)
(0.235946 -0.151487 0)
(-0.0177793 -0.135501 0)
(-0.28077 -0.124099 0)
(-0.527818 -0.111289 0)
(-0.749508 -0.0964401 0)
(-0.939414 -0.0794673 0)
(-1.09206 -0.0606732 0)
(-1.20335 -0.0405994 0)
(-1.27091 -0.0196696 0)
(-1.29285 0.00156805 0)
(-1.27038 0.0221598 0)
(-1.20525 0.0412699 0)
(-1.101 0.0583927 0)
(-0.96229 0.0731757 0)
(-0.79463 0.0852377 0)
(-0.604177 0.0938875 0)
(-0.397098 0.0985431 0)
(-0.183257 0.100765 0)
(0.0275792 0.108254 0)
(0.228004 0.0980429 0)
(0.420811 0.0882011 0)
(0.59506 0.076654 0)
(0.745124 0.0637137 0)
(0.867293 0.0496806 0)
(0.958942 0.0349114 0)
(1.01858 0.0196729 0)
(1.04513 0.00420099 0)
(1.03908 -0.0109429 0)
(1.0017 -0.0251643 0)
(0.935031 -0.0381834 0)
(0.841933 -0.0496922 0)
(0.7257 -0.0594523 0)
(0.589552 -0.0672342 0)
(0.435813 -0.0736045 0)
(0.283082 -0.0860442 0)
(0.128199 -0.0834474 0)
(-0.0294222 -0.0759152 0)
(-0.181122 -0.0694486 0)
(-0.319635 -0.0611301 0)
(-0.440693 -0.0515341 0)
(-0.54071 -0.0408706 0)
(-0.61707 -0.029471 0)
(-0.667916 -0.0174945 0)
(-0.692091 -0.00562998 0)
(-0.68977 0.00598694 0)
(-0.664478 0.0160557 0)
(-0.613128 0.0203086 0)
(-0.544113 0.0231928 0)
(0.40611 0.692804 0)
(0.526411 -5.31583 0)
(0.354959 -9.58185 0)
(0.15607 -13.3949 0)
(0.0323845 -16.744 0)
(-0.0370192 -19.5933 0)
(-0.0358806 -21.9625 0)
(0.0540002 -23.7262 0)
(0.311595 -24.397 0)
(0.560257 -23.8526 0)
(0.738917 -22.4209 0)
(0.837916 -20.1316 0)
(0.839495 -17.0739 0)
(0.723907 -13.4356 0)
(0.499845 -9.52623 0)
(0.248568 -5.79182 0)
(0.0848041 -2.79086 0)
(-0.0670052 -1.23723 0)
(-0.309163 3.02341 0)
(-0.609902 6.81187 0)
(-0.83082 9.9339 0)
(-0.981788 12.6896 0)
(-1.05462 15.0028 0)
(-1.08799 16.8895 0)
(-1.02332 18.339 0)
(-0.838425 19.159 0)
(-0.589756 19.0503 0)
(-0.347759 18.27 0)
(-0.120327 16.7921 0)
(0.0889782 14.6341 0)
(0.260544 11.9049 0)
(0.369702 8.85149 0)
(0.370013 5.82026 0)
(0.239191 3.16303 0)
(0.120534 1.35899 0)
(0.19381 -0.573213 0)
(0.279177 -4.31281 0)
(0.224874 -6.94356 0)
(0.170543 -9.30124 0)
(0.147027 -11.3358 0)
(0.141314 -13.0383 0)
(0.168548 -14.414 0)
(0.252395 -15.3594 0)
(0.388033 -15.5051 0)
(0.486301 -14.9994 0)
(0.542848 -13.9291 0)
(0.547171 -12.3295 0)
(0.494574 -10.2518 0)
(0.39063 -7.83869 0)
(0.254185 -5.34451 0)
(0.131175 -3.0975 0)
(0.0643759 -1.45589 0)
(-0.0679717 -0.422624 0)
(-0.235968 2.78346 0)
(-0.386897 4.88186 0)
(-0.51012 6.78264 0)
(-0.605402 8.43744 0)
(-0.66164 9.81846 0)
(-0.667888 10.927 0)
(-0.635377 11.7244 0)
(-0.534808 12.0388 0)
(-0.408117 11.831 0)
(-0.279487 11.1996 0)
(-0.157706 10.1293 0)
(-0.0477235 8.65868 0)
(0.0457312 6.88345 0)
(0.110446 4.95555 0)
(0.111031 3.1005 0)
(0.0441688 1.59036 0)
(0.0376396 0.710726 0)
(0.109666 -1.17521 0)
(0.139417 -3.10681 0)
(0.130212 -4.70262 0)
(0.127809 -6.10358 0)
(0.136322 -7.29353 0)
(0.154641 -8.28277 0)
(0.19117 -9.05807 0)
(0.253263 -9.5002 0)
(0.327504 -9.44099 0)
(0.376158 -9.03197 0)
(0.39619 -8.27479 0)
(0.386604 -7.18866 0)
(0.348009 -5.83061 0)
(0.28086 -4.31873 0)
(0.196141 -2.83233 0)
(0.124584 -1.56058 0)
(0.0801331 -0.72767 0)
(0.00526047 0.32109 0)
(-0.105004 2.07838 0)
(-0.199688 3.33027 0)