/*--------------------------------*- C++ -*----------------------------------*\
| =========                 |                                                 |
| \\      /  F ield         | OpenFOAM: The Open Source CFD Toolbox           |
|  \\    /   O peration     | Version:  2206                                  |
|   \\  /    A nd           | Website:  www.openfoam.com                      |
|    \\/     M anipulation  |                                                 |
\*---------------------------------------------------------------------------*/
FoamFile
{
    version     2.0;
    format      ascii;
    arch        "LSB;label=32;scalar=64";
    class       surfaceScalarField;
    location    "18.3999";
    object      phi;
}
// * * * * * * * * * * * * * * * * * * * * * * * * * * * * * * * * * * * * * //

dimensions      [0 3 -1 0 0 0 0];

oriented        oriented;

internalField   nonuniform List<scalar> 
9557
(
1.09431e-05
3.50243e-06
-3.47789e-06
1.0911e-05
3.64628e-06
-3.61425e-06
1.08718e-05
3.75043e-06
-3.71118e-06
1.08252e-05
3.82048e-06
-3.77385e-06
1.07702e-05
3.86138e-06
-3.80647e-06
1.07063e-05
3.87704e-06
-3.81308e-06
1.06337e-05
3.87253e-06
-3.79998e-06
1.05529e-05
3.85412e-06
-3.77327e-06
1.0464e-05
3.82629e-06
-3.73744e-06
1.03677e-05
3.79162e-06
-3.69529e-06
1.02648e-05
3.75078e-06
-3.64782e-06
1.01563e-05
3.70273e-06
-3.59425e-06
1.00436e-05
3.64503e-06
-3.53234e-06
9.92809e-06
3.57435e-06
-3.45886e-06
9.81127e-06
3.48694e-06
-3.37012e-06
9.6946e-06
3.37909e-06
-3.26242e-06
9.57961e-06
3.24751e-06
-3.13253e-06
9.46794e-06
3.08949e-06
-2.97782e-06
9.36131e-06
2.90302e-06
-2.79639e-06
9.26161e-06
2.68682e-06
-2.58712e-06
9.17086e-06
2.44037e-06
-2.34962e-06
9.09117e-06
2.164e-06
-2.08431e-06
9.02458e-06
1.85907e-06
-1.79248e-06
8.97295e-06
1.52797e-06
-1.47635e-06
8.93786e-06
1.17421e-06
-1.13912e-06
8.92035e-06
8.02454e-07
-7.84947e-07
8.92131e-06
4.18371e-07
-4.19327e-07
8.94012e-06
2.88289e-08
-4.7637e-08
8.97534e-06
-3.58725e-07
3.23507e-07
9.02569e-06
-7.38011e-07
6.87655e-07
9.08942e-06
-1.10359e-06
1.03986e-06
9.16436e-06
-1.45062e-06
1.37568e-06
9.24814e-06
-1.77511e-06
1.69133e-06
9.33834e-06
-2.0741e-06
1.98391e-06
9.43252e-06
-2.34564e-06
2.25145e-06
9.52847e-06
-2.58887e-06
2.49292e-06
9.62418e-06
-2.80378e-06
2.70807e-06
9.71798e-06
-2.99115e-06
2.89735e-06
9.80847e-06
-3.15224e-06
3.06174e-06
9.89453e-06
-3.28867e-06
3.20262e-06
9.97529e-06
-3.40236e-06
3.32159e-06
1.00501e-05
-3.4951e-06
3.42026e-06
1.01187e-05
-3.56866e-06
3.50011e-06
1.0181e-05
-3.62472e-06
3.56243e-06
1.02375e-05
-3.66463e-06
3.60809e-06
1.02893e-05
-3.68901e-06
3.63724e-06
1.03373e-05
-3.69656e-06
3.64853e-06
1.03819e-05
-3.68336e-06
3.63873e-06
1.04237e-05
-3.64731e-06
3.6055e-06
1.04637e-05
-3.58702e-06
3.54708e-06
1.05027e-05
-3.50042e-06
3.46139e-06
1.05417e-05
-3.38505e-06
3.34609e-06
1.05813e-05
-3.23849e-06
3.1989e-06
1.0622e-05
-3.05865e-06
3.01788e-06
1.06643e-05
-2.84403e-06
2.80172e-06
1.07084e-05
-2.59399e-06
2.54994e-06
1.07542e-05
-2.30892e-06
2.26313e-06
1.08016e-05
-1.99041e-06
1.94303e-06
1.08502e-05
-1.6413e-06
1.59265e-06
1.08997e-05
-1.26577e-06
1.21625e-06
1.09496e-05
-8.6931e-07
8.19475e-07
1.09989e-05
-4.58992e-07
4.09611e-07
1.10464e-05
-4.4293e-08
-3.14215e-09
1.10908e-05
3.64894e-07
-4.09275e-07
1.11309e-05
7.61587e-07
-8.01754e-07
1.11658e-05
1.13941e-06
-1.17423e-06
1.11942e-05
1.49292e-06
-1.52138e-06
1.12155e-05
1.81783e-06
-1.83908e-06
1.12289e-05
2.11108e-06
-2.12452e-06
1.12342e-05
2.37091e-06
-2.37618e-06
1.12312e-05
2.5967e-06
-2.59368e-06
1.122e-05
2.78885e-06
-2.77765e-06
1.12008e-05
2.9486e-06
-2.92946e-06
1.11741e-05
3.07781e-06
-3.05109e-06
1.11402e-05
3.17875e-06
-3.14482e-06
1.10992e-05
3.25393e-06
-3.21301e-06
1.10512e-05
3.30569e-06
-3.25768e-06
1.09957e-05
3.33579e-06
-3.28029e-06
1.09329e-05
3.34569e-06
-3.28285e-06
1.08634e-05
3.33792e-06
-3.26846e-06
1.07879e-05
3.31522e-06
-3.2397e-06
1.0707e-05
3.27942e-06
-3.19846e-06
1.06214e-05
3.23156e-06
-3.14597e-06
1.05321e-05
3.17192e-06
-3.08268e-06
1.04404e-05
3.10007e-06
-3.00831e-06
1.03474e-05
3.01496e-06
-2.92196e-06
1.02545e-05
2.91508e-06
-2.8222e-06
1.01631e-05
2.79864e-06
-2.70729e-06
1.00747e-05
2.66377e-06
-2.57537e-06
9.99066e-06
2.50879e-06
-2.42472e-06
9.9123e-06
2.33234e-06
-2.25398e-06
9.84101e-06
2.13355e-06
-2.06225e-06
9.77811e-06
1.91217e-06
-1.84927e-06
9.72486e-06
1.66871e-06
-1.61546e-06
9.68231e-06
1.40452e-06
-1.36197e-06
9.65127e-06
1.12179e-06
-1.09075e-06
9.63231e-06
8.2349e-07
-8.04521e-07
9.62568e-06
5.13286e-07
-5.06661e-07
9.63132e-06
1.95473e-07
-2.01111e-07
9.64865e-06
-1.24825e-07
1.07491e-07
9.67683e-06
-4.42131e-07
4.13951e-07
9.71486e-06
-7.52463e-07
7.14433e-07
9.76157e-06
-1.05205e-06
1.00534e-06
9.81562e-06
-1.33743e-06
1.28337e-06
9.87559e-06
-1.60558e-06
1.54561e-06
9.94004e-06
-1.85413e-06
1.78969e-06
1.00076e-05
-2.08135e-06
2.01382e-06
1.00769e-05
-2.28607e-06
2.21679e-06
1.01467e-05
-2.46768e-06
2.39788e-06
1.02159e-05
-2.62604e-06
2.55683e-06
1.02835e-05
-2.76157e-06
2.69391e-06
1.03488e-05
-2.87506e-06
2.80975e-06
1.04111e-05
-2.96749e-06
2.90522e-06
1.04698e-05
-3.04011e-06
2.98139e-06
1.05248e-05
-3.09434e-06
3.03939e-06
1.05761e-05
-3.13157e-06
3.08022e-06
1.06244e-05
-3.15267e-06
3.10434e-06
1.06703e-05
-3.15674e-06
3.11086e-06
1.07139e-05
-3.1416e-06
3.098e-06
1.07556e-05
-3.10681e-06
3.06509e-06
1.07961e-05
-3.05216e-06
3.01167e-06
1.08361e-05
-2.97697e-06
2.937e-06
1.08762e-05
-2.88018e-06
2.84008e-06
1.09169e-05
-2.76062e-06
2.71987e-06
1.09587e-05
-2.61718e-06
2.57539e-06
1.10018e-05
-2.44905e-06
2.40596e-06
1.10463e-05
-2.2558e-06
2.21135e-06
1.1092e-05
-2.03759e-06
1.99184e-06
1.11389e-05
-1.79523e-06
1.74838e-06
1.11865e-05
-1.53022e-06
1.48259e-06
1.12345e-05
-1.2448e-06
1.19677e-06
1.12825e-05
-9.41926e-07
8.93971e-07
1.13298e-05
-6.25294e-07
5.77961e-07
1.13758e-05
-2.99518e-07
2.53494e-07
1.14194e-05
2.92537e-08
-7.283e-08
1.14598e-05
3.5458e-07
-3.94951e-07
1.14962e-05
6.71851e-07
-7.08256e-07
1.15279e-05
9.76751e-07
-1.00846e-06
1.26542e-06
-1.29178e-06
1.06723e-05
3.50262e-06
1.06642e-05
3.65433e-06
1.06483e-05
3.76635e-06
1.06244e-05
3.84444e-06
1.05916e-05
3.89416e-06
1.05486e-05
3.92001e-06
1.04951e-05
3.92599e-06
1.04319e-05
3.9174e-06
1.03594e-05
3.89878e-06
1.02784e-05
3.87255e-06
1.01901e-05
3.83914e-06
1.00955e-05
3.79729e-06
9.9961e-06
3.74446e-06
9.89319e-06
3.67726e-06
9.78819e-06
3.59193e-06
9.68255e-06
3.48473e-06
9.57777e-06
3.3523e-06
9.47544e-06
3.19182e-06
9.37738e-06
3.00109e-06
9.28559e-06
2.77861e-06
9.20225e-06
2.52372e-06
9.12954e-06
2.23671e-06
9.0696e-06
1.91901e-06
9.02435e-06
1.57323e-06
8.99528e-06
1.20328e-06
8.98339e-06
8.14347e-07
8.98901e-06
4.12747e-07
9.01176e-06
6.07603e-09
9.05022e-06
-3.97187e-07
9.10288e-06
-7.90669e-07
9.16778e-06
-1.16849e-06
9.24267e-06
-1.52551e-06
9.32514e-06
-1.85757e-06
9.4127e-06
-2.16166e-06
9.50292e-06
-2.43586e-06
9.59355e-06
-2.67949e-06
9.68261e-06
-2.89285e-06
9.76847e-06
-3.07701e-06
9.84982e-06
-3.23358e-06
9.92568e-06
-3.36453e-06
9.99538e-06
-3.47206e-06
1.00584e-05
-3.55807e-06
1.01142e-05
-3.62448e-06
1.01627e-05
-3.67321e-06
1.02042e-05
-3.7062e-06
1.024e-05
-3.7248e-06
1.02715e-05
-3.72802e-06
1.02986e-05
-3.71051e-06
1.03221e-05
-3.67079e-06
1.03432e-05
-3.60812e-06
1.03631e-05
-3.5203e-06
1.03828e-05
-3.40475e-06
1.04032e-05
-3.2589e-06
1.04251e-05
-3.08056e-06
1.04492e-05
-2.86809e-06
1.04759e-05
-2.62071e-06
1.05056e-05
-2.33865e-06
1.05385e-05
-2.02331e-06
1.05746e-05
-1.67739e-06
1.06137e-05
-1.30489e-06
1.06556e-05
-9.1117e-07
1.06996e-05
-5.02974e-07
1.07444e-05
-8.91022e-08
1.07888e-05
3.20455e-07
1.08316e-05
7.18743e-07
1.08716e-05
1.09943e-06
1.09075e-05
1.45703e-06
1.09382e-05
1.7871e-06
1.09629e-05
2.08644e-06
1.09808e-05
2.35302e-06
1.09914e-05
2.58602e-06
1.09947e-05
2.78563e-06
1.09904e-05
2.95288e-06
1.09787e-05
3.08948e-06
1.09598e-05
3.19763e-06
1.0934e-05
3.27979e-06
1.09012e-05
3.3385e-06
1.0861e-05
3.376e-06
1.08129e-05
3.39378e-06
1.07575e-05
3.39329e-06
1.06955e-05
3.37718e-06
1.06277e-05
3.34728e-06
1.05548e-05
3.30442e-06
1.04781e-05
3.24867e-06
1.03986e-05
3.1795e-06
1.03178e-05
3.09581e-06
1.02368e-05
2.99605e-06
1.01571e-05
2.8784e-06
1.00798e-05
2.74102e-06
1.00064e-05
2.58217e-06
9.93831e-06
2.40046e-06
9.87685e-06
2.19501e-06
9.82338e-06
1.96564e-06
9.77906e-06
1.71303e-06
9.74484e-06
1.43874e-06
9.72146e-06
1.14517e-06
9.70939e-06
8.3556e-07
9.70883e-06
5.13839e-07
9.71965e-06
1.84652e-07
9.74111e-06
-1.46286e-07
9.77236e-06
-4.73378e-07
9.81235e-06
-7.92446e-07
9.85985e-06
-1.09955e-06
9.9135e-06
-1.39108e-06
9.97185e-06
-1.66394e-06
1.00335e-05
-1.91577e-06
1.0097e-05
-2.14491e-06
1.01612e-05
-2.35027e-06
1.02249e-05
-2.53133e-06
1.0287e-05
-2.68811e-06
1.03467e-05
-2.82126e-06
1.04033e-05
-2.93166e-06
1.04561e-05
-3.02032e-06
1.05046e-05
-3.08862e-06
1.05486e-05
-3.13831e-06
1.05881e-05
-3.17114e-06
1.0624e-05
-3.18851e-06
1.06567e-05
-3.18949e-06
1.06864e-05
-3.17123e-06
1.07135e-05
-3.13392e-06
1.07389e-05
-3.07764e-06
1.07637e-05
-3.00168e-06
1.07884e-05
-2.90491e-06
1.08138e-05
-2.78605e-06
1.08405e-05
-2.64388e-06
1.08689e-05
-2.47741e-06
1.08992e-05
-2.2861e-06
1.09315e-05
-2.06995e-06
1.09659e-05
-1.82964e-06
1.10023e-05
-1.56656e-06
1.10403e-05
-1.28284e-06
1.10798e-05
-9.81347e-07
1.11202e-05
-6.65699e-07
1.1161e-05
-3.40333e-07
1.12012e-05
-1.09811e-08
1.124e-05
3.15743e-07
1.12767e-05
6.3518e-07
1.13104e-05
9.43023e-07
1.23539e-06
1.04194e-05
3.47974e-06
1.04341e-05
3.63959e-06
1.04403e-05
3.76016e-06
1.04377e-05
3.8471e-06
1.04257e-05
3.9061e-06
1.04035e-05
3.94224e-06
1.03696e-05
3.95987e-06
1.03245e-05
3.96255e-06
1.02691e-05
3.95411e-06
1.02046e-05
3.93712e-06
1.0132e-05
3.91173e-06
1.00526e-05
3.87667e-06
9.9677e-06
3.82938e-06
9.87856e-06
3.7664e-06
9.78655e-06
3.68394e-06
9.69307e-06
3.57821e-06
9.59964e-06
3.44573e-06
9.50798e-06
3.28347e-06
9.42005e-06
3.08902e-06
9.33791e-06
2.86075e-06
9.26375e-06
2.59787e-06
9.19975e-06
2.30071e-06
9.14798e-06
1.97078e-06
9.11025e-06
1.61095e-06
9.088e-06
1.22553e-06
9.08214e-06
8.20212e-07
9.0929e-06
4.01991e-07
9.1196e-06
-2.06285e-08
9.16089e-06
-4.38481e-07
9.2151e-06
-8.44872e-07
9.28014e-06
-1.23353e-06
9.35373e-06
-1.5991e-06
9.43342e-06
-1.93727e-06
9.51676e-06
-2.245e-06
9.60135e-06
-2.52046e-06
9.68507e-06
-2.7632e-06
9.76601e-06
-2.97379e-06
9.84257e-06
-3.15357e-06
9.9135e-06
-3.30451e-06
9.97796e-06
-3.429e-06
1.00354e-05
-3.52949e-06
1.00855e-05
-3.60819e-06
1.01281e-05
-3.66707e-06
1.01628e-05
-3.70792e-06
1.01896e-05
-3.733e-06
1.02096e-05
-3.74478e-06
1.02247e-05
-3.74308e-06
1.02341e-05
-3.71992e-06
1.02394e-05
-3.67608e-06
1.0242e-05
-3.61075e-06
1.02432e-05
-3.52152e-06
1.02442e-05
-3.40567e-06
1.02459e-05
-3.2606e-06
1.02493e-05
-3.08403e-06
1.02555e-05
-2.87426e-06
1.02652e-05
-2.63038e-06
1.0279e-05
-2.35246e-06
1.02974e-05
-2.04177e-06
1.03209e-05
-1.7008e-06
1.03493e-05
-1.33337e-06
1.03828e-05
-9.44616e-07
1.04208e-05
-5.40941e-07
1.04622e-05
-1.3054e-07
1.05058e-05
2.76844e-07
1.05503e-05
6.74208e-07
1.05944e-05
1.05534e-06
1.06367e-05
1.41476e-06
1.06758e-05
1.74797e-06
1.07107e-05
2.05159e-06
1.07403e-05
2.32344e-06
1.07638e-05
2.56248e-06
1.07808e-05
2.76867e-06
1.07908e-05
2.94286e-06
1.07937e-05
3.08659e-06
1.07894e-05
3.20187e-06
1.07781e-05
3.29107e-06
1.076e-05
3.35668e-06
1.07347e-05
3.40124e-06
1.07018e-05
3.42671e-06
1.06609e-05
3.43417e-06
1.06129e-05
3.42518e-06
1.05586e-05
3.40159e-06
1.04991e-05
3.36394e-06
1.04356e-05
3.31215e-06
1.03694e-05
3.24574e-06
1.03016e-05
3.16363e-06
1.02333e-05
3.06428e-06
1.01659e-05
2.94583e-06
1.01006e-05
2.80633e-06
1.00388e-05
2.64397e-06
9.98194e-06
2.45731e-06
9.93138e-06
2.24557e-06
9.88832e-06
2.0087e-06
9.85378e-06
1.74757e-06
9.82863e-06
1.46389e-06
9.8135e-06
1.1603e-06
9.8088e-06
8.40263e-07
9.81463e-06
5.08009e-07
9.83073e-06
1.68548e-07
9.85628e-06
-1.71829e-07
9.89037e-06
-5.07466e-07
9.93191e-06
-8.33992e-07
9.97966e-06
-1.1473e-06
1.00322e-05
-1.44364e-06
1.00882e-05
-1.71992e-06
1.01462e-05
-1.97378e-06
1.02049e-05
-2.20362e-06
1.02631e-05
-2.40844e-06
1.03196e-05
-2.58785e-06
1.03736e-05
-2.7421e-06
1.04244e-05
-2.87205e-06
1.04714e-05
-2.97866e-06
1.05141e-05
-3.06298e-06
1.05519e-05
-3.1265e-06
1.05847e-05
-3.17109e-06
1.06124e-05
-3.19881e-06
1.06356e-05
-3.21172e-06
1.06553e-05
-3.20921e-06
1.06709e-05
-3.18679e-06
1.06833e-05
-3.14628e-06
1.06937e-05
-3.08804e-06
1.07031e-05
-3.01113e-06
1.07125e-05
-2.91431e-06
1.07227e-05
-2.79621e-06
1.07343e-05
-2.65549e-06
1.07479e-05
-2.49105e-06
1.07641e-05
-2.30221e-06
1.07829e-05
-2.08884e-06
1.08048e-05
-1.85149e-06
1.08296e-05
-1.59141e-06
1.08574e-05
-1.31063e-06
1.0888e-05
-1.01192e-06
1.09211e-05
-6.9878e-07
1.09562e-05
-3.75466e-07
1.09926e-05
-4.73635e-08
1.10293e-05
2.78988e-07
1.10657e-05
5.98813e-07
1.11009e-05
9.07862e-07
1.20225e-06
1.01887e-05
3.43549e-06
1.02249e-05
3.60345e-06
1.0252e-05
3.73301e-06
1.02696e-05
3.8295e-06
1.02773e-05
3.89845e-06
1.02746e-05
3.9449e-06
1.02604e-05
3.97408e-06
1.02339e-05
3.98903e-06
1.01965e-05
3.99158e-06
1.0149e-05
3.98459e-06
1.0093e-05
3.96768e-06
1.00297e-05
3.93997e-06
9.96019e-06
3.89891e-06
9.88573e-06
3.84086e-06
9.80771e-06
3.76196e-06
9.72762e-06
3.6583e-06
9.64713e-06
3.52622e-06
9.568e-06
3.3626e-06
9.49215e-06
3.16487e-06
9.42161e-06
2.93129e-06
9.35846e-06
2.66102e-06
9.30481e-06
2.35436e-06
9.26262e-06
2.01298e-06
9.23359e-06
1.63999e-06
9.21903e-06
1.24008e-06
9.21974e-06
8.19496e-07
9.23583e-06
3.85902e-07
9.26635e-06
-5.11418e-08
9.30991e-06
-4.82042e-07
9.36473e-06
-8.99692e-07
9.42869e-06
-1.2975e-06
9.4995e-06
-1.66991e-06
9.57474e-06
-2.01251e-06
9.65202e-06
-2.32227e-06
9.72912e-06
-2.59756e-06
9.80405e-06
-2.83814e-06
9.87504e-06
-3.04478e-06
9.94059e-06
-3.21911e-06
9.99957e-06
-3.36349e-06
1.00512e-05
-3.48064e-06
1.00951e-05
-3.57339e-06
1.01312e-05
-3.64426e-06
1.01595e-05
-3.69543e-06
1.01802e-05
-3.72855e-06
1.01931e-05
-3.74592e-06
1.01989e-05
-3.75059e-06
1.01971e-05
-3.74132e-06
1.01889e-05
-3.71172e-06
1.01765e-05
-3.66367e-06
1.01613e-05
-3.59555e-06
1.01446e-05
-3.50479e-06
1.01275e-05
-3.3886e-06
1.01113e-05
-3.24438e-06
1.00971e-05
-3.06984e-06
1.00861e-05
-2.86324e-06
1.00793e-05
-2.62358e-06
1.00776e-05
-2.35084e-06
1.0082e-05
-2.04609e-06
1.00928e-05
-1.71165e-06
1.01106e-05
-1.35111e-06
1.01353e-05
-9.69324e-07
1.01667e-05
-5.72382e-07
1.0204e-05
-1.67847e-07
1.02459e-05
2.34965e-07
1.02911e-05
6.29029e-07
1.03381e-05
1.00829e-06
1.03855e-05
1.36735e-06
1.04318e-05
1.70168e-06
1.04756e-05
2.00781e-06
1.05156e-05
2.2834e-06
1.05509e-05
2.52723e-06
1.05805e-05
2.73903e-06
1.06039e-05
2.91945e-06
1.06207e-05
3.06986e-06
1.06304e-05
3.19208e-06
1.06332e-05
3.28829e-06
1.06291e-05
3.36083e-06
1.06181e-05
3.41223e-06
1.06001e-05
3.44472e-06
1.05744e-05
3.4598e-06
1.05412e-05
3.45844e-06
1.05011e-05
3.44167e-06
1.04557e-05
3.40935e-06
1.04063e-05
3.36153e-06
1.03541e-05
3.29799e-06
1.03e-05
3.21776e-06
1.02451e-05
3.11917e-06
1.01907e-05
3.00021e-06
1.01382e-05
2.85879e-06
1.00891e-05
2.6931e-06
1.00446e-05
2.5018e-06
1.00059e-05
2.28421e-06
9.97419e-06
2.04046e-06
9.95023e-06
1.77152e-06
9.93482e-06
1.47931e-06
9.92848e-06
1.16663e-06
9.93152e-06
8.37223e-07
9.94394e-06
4.95595e-07
9.96533e-06
1.47159e-07
9.99479e-06
-2.01288e-07
1.00314e-05
-5.44053e-07
1.0074e-05
-8.76591e-07
1.01213e-05
-1.19463e-06
1.0172e-05
-1.49436e-06
1.02248e-05
-1.77268e-06
1.02783e-05
-2.02725e-06
1.03312e-05
-2.25653e-06
1.03823e-05
-2.45963e-06
1.04308e-05
-2.63634e-06
1.04758e-05
-2.78707e-06
1.05167e-05
-2.91291e-06
1.05529e-05
-3.01491e-06
1.05843e-05
-3.09434e-06
1.06107e-05
-3.15287e-06
1.06318e-05
-3.19227e-06
1.06476e-05
-3.2146e-06
1.06585e-05
-3.22257e-06
1.06654e-05
-3.2161e-06
1.06671e-05
-3.18854e-06
1.06651e-05
-3.14425e-06
1.06606e-05
-3.08361e-06
1.0655e-05
-3.00551e-06
1.06493e-05
-2.90857e-06
1.06443e-05
-2.7913e-06
1.06411e-05
-2.65224e-06
1.06402e-05
-2.49016e-06
1.06423e-05
-2.30429e-06
1.06478e-05
-2.09436e-06
1.06571e-05
-1.8608e-06
1.06704e-05
-1.60474e-06
1.06879e-05
-1.32809e-06
1.07095e-05
-1.03348e-06
1.0735e-05
-7.2428e-07
1.07641e-05
-4.04596e-07
1.07962e-05
-7.94539e-08
1.08304e-05
2.44812e-07
1.08659e-05
5.63302e-07
1.09019e-05
8.71863e-07
1.16666e-06
9.98649e-06
1.00422e-05
1.00887e-05
1.01251e-05
1.01509e-05
1.01654e-05
1.01688e-05
1.01609e-05
1.01418e-05
1.01128e-05
1.00748e-05
1.00282e-05
9.97451e-06
9.91552e-06
9.85279e-06
9.78782e-06
9.72219e-06
9.65759e-06
9.59582e-06
9.53878e-06
9.48846e-06
9.44681e-06
9.41563e-06
9.39646e-06
9.39043e-06
9.39817e-06
9.41963e-06
9.45362e-06
9.49872e-06
9.55309e-06
9.61461e-06
9.68103e-06
9.75002e-06
9.81937e-06
9.88709e-06
9.95135e-06
1.00106e-05
1.00634e-05
1.0109e-05
1.01465e-05
1.01756e-05
1.01964e-05
1.02092e-05
1.02151e-05
1.02143e-05
1.02055e-05
1.01872e-05
1.01627e-05
1.01338e-05
1.01018e-05
1.0068e-05
1.00339e-05
1.00007e-05
9.96981e-06
9.94254e-06
9.92016e-06
9.90383e-06
9.89459e-06
9.89325e-06
9.9004e-06
9.91631e-06
9.94092e-06
9.97352e-06
1.00129e-05
1.00577e-05
1.01066e-05
1.01579e-05
1.02101e-05
1.02615e-05
1.03108e-05
1.03566e-05
1.03979e-05
1.04337e-05
1.04635e-05
1.04867e-05
1.05031e-05
1.05124e-05
1.05149e-05
1.0511e-05
1.05006e-05
1.0483e-05
1.04573e-05
1.04263e-05
1.03916e-05
1.03537e-05
1.03136e-05
1.02727e-05
1.02323e-05
1.01938e-05
1.01584e-05
1.01273e-05
1.01014e-05
1.00818e-05
1.00691e-05
1.0064e-05
1.00669e-05
1.0078e-05
1.00971e-05
1.01236e-05
1.01567e-05
1.01954e-05
1.02384e-05
1.02847e-05
1.03327e-05
1.03814e-05
1.04294e-05
1.04756e-05
1.0519e-05
1.05587e-05
1.0594e-05
1.06244e-05
1.06494e-05
1.0669e-05
1.06832e-05
1.06923e-05
1.06965e-05
1.06949e-05
1.06867e-05
1.06743e-05
1.06583e-05
1.06396e-05
1.06193e-05
1.05989e-05
1.05793e-05
1.05615e-05
1.05464e-05
1.05348e-05
1.05272e-05
1.05243e-05
1.05262e-05
1.05334e-05
1.05459e-05
1.05637e-05
1.05866e-05
1.06141e-05
1.06452e-05
1.06794e-05
1.07156e-05
1.1292e-06
8.05421e-07
2.72095e-08
8.00473e-07
4.94811e-09
8.13192e-07
-1.27187e-08
8.43538e-07
-3.03464e-08
8.89022e-07
-4.54836e-08
9.46337e-07
-5.73148e-08
1.01191e-06
-6.55709e-08
1.08213e-06
-7.02253e-08
1.15369e-06
-7.15527e-08
1.22393e-06
-7.02443e-08
1.29079e-06
-6.68593e-08
1.35256e-06
-6.17709e-08
1.40785e-06
-5.52909e-08
1.45564e-06
-4.77868e-08
1.4953e-06
-3.96659e-08
1.52666e-06
-3.13534e-08
1.54986e-06
-2.32023e-08
1.5653e-06
-1.54382e-08
1.57331e-06
-8.01544e-09
1.57393e-06
-6.17471e-10
1.56863e-06
5.30203e-09
1.55761e-06
1.1023e-08
1.54154e-06
1.60616e-08
1.52127e-06
2.02774e-08
1.49783e-06
2.34341e-08
1.47248e-06
2.53528e-08
1.44651e-06
2.59722e-08
1.42114e-06
2.53627e-08
1.39747e-06
2.36701e-08
1.37638e-06
2.10948e-08
1.35837e-06
1.80081e-08
1.34358e-06
1.4791e-08
1.33207e-06
1.15104e-08
1.32438e-06
7.68968e-09
1.3209e-06
3.48009e-09
1.32153e-06
-6.25469e-10
1.32589e-06
-4.3613e-09
1.33395e-06
-8.06711e-09
1.3455e-06
-1.15432e-08
1.36003e-06
-1.45362e-08
1.37682e-06
-1.67856e-08
1.39497e-06
-1.81539e-08
1.4135e-06
-1.85288e-08
1.4317e-06
-1.81946e-08
1.44895e-06
-1.72569e-08
1.46459e-06
-1.56348e-08
1.47783e-06
-1.32462e-08
1.48795e-06
-1.01111e-08
1.49419e-06
-6.24813e-09
1.49593e-06
-1.73199e-09
1.49383e-06
2.09874e-09
1.48764e-06
6.18703e-09
1.47734e-06
1.02969e-08
1.46308e-06
1.42664e-08
1.44529e-06
1.77891e-08
1.42475e-06
2.05397e-08
1.40223e-06
2.25186e-08
1.37822e-06
2.40062e-08
1.35317e-06
2.50525e-08
1.32757e-06
2.5604e-08
1.30196e-06
2.5605e-08
1.27693e-06
2.50268e-08
1.25307e-06
2.38688e-08
1.23091e-06
2.21577e-08
1.21094e-06
1.99636e-08
1.19356e-06
1.73826e-08
1.17904e-06
1.45184e-08
1.16759e-06
1.14549e-08
1.15934e-06
8.24892e-09
1.15441e-06
4.93375e-09
1.153e-06
1.40944e-09
1.15433e-06
-1.33776e-09
1.15845e-06
-4.11489e-09
1.16501e-06
-6.56063e-09
1.17355e-06
-8.54337e-09
1.18362e-06
-1.00638e-08
1.1948e-06
-1.11823e-08
1.20668e-06
-1.18837e-08
1.21887e-06
-1.21863e-08
1.23099e-06
-1.21227e-08
1.24273e-06
-1.17406e-08
1.25383e-06
-1.10956e-08
1.26406e-06
-1.02372e-08
1.27328e-06
-9.21043e-09
1.28132e-06
-8.04804e-09
1.28811e-06
-6.78509e-09
1.29356e-06
-5.45466e-09
1.29769e-06
-4.12596e-09
1.30055e-06
-2.86209e-09
1.30231e-06
-1.75649e-09
1.30316e-06
-8.55963e-10
1.30335e-06
-1.85014e-10
1.30322e-06
1.27978e-10
1.30298e-06
2.43396e-10
1.30279e-06
1.87156e-10
1.30288e-06
-8.74635e-11
1.3034e-06
-5.20795e-10
1.30448e-06
-1.07705e-09
1.30622e-06
-1.74292e-09
1.30871e-06
-2.49229e-09
1.31197e-06
-3.26341e-09
1.31601e-06
-4.03264e-09
1.32077e-06
-4.76391e-09
1.3262e-06
-5.4338e-09
1.33225e-06
-6.04643e-09
1.33884e-06
-6.58682e-09
1.34589e-06
-7.05233e-09
1.35328e-06
-7.38542e-09
1.36083e-06
-7.55318e-09
1.36837e-06
-7.5425e-09
1.37568e-06
-7.31217e-09
1.3825e-06
-6.8133e-09
1.38854e-06
-6.04689e-09
1.39359e-06
-5.04731e-09
1.39745e-06
-3.85717e-09
1.39995e-06
-2.50636e-09
1.40093e-06
-9.74781e-10
1.40059e-06
3.42782e-10
1.39881e-06
1.77904e-09
1.39552e-06
3.28641e-09
1.39072e-06
4.80595e-09
1.38441e-06
6.30092e-09
1.37668e-06
7.73804e-09
1.3676e-06
9.08022e-09
1.3573e-06
1.02961e-08
1.34594e-06
1.13635e-08
1.33367e-06
1.2263e-08
1.3207e-06
1.29722e-08
1.30723e-06
1.34711e-08
1.29348e-06
1.37484e-08
1.27968e-06
1.37972e-08
1.26607e-06
1.36165e-08
1.25286e-06
1.32124e-08
1.24026e-06
1.2597e-08
1.22847e-06
1.1787e-08
1.21767e-06
1.08034e-08
1.208e-06
9.67093e-09
1.19958e-06
8.41931e-09
7.08071e-09
3.09155e-06
3.72452e-08
3.10105e-06
-4.56178e-09
3.13268e-06
-4.43408e-08
3.18282e-06
-8.04938e-08
3.24843e-06
-1.11092e-07
3.32609e-06
-1.34972e-07
3.41235e-06
-1.51826e-07
3.50347e-06
-1.61352e-07
3.59554e-06
-1.63616e-07
3.68569e-06
-1.604e-07
3.77162e-06
-1.5279e-07
3.85115e-06
-1.41302e-07
3.92231e-06
-1.26451e-07
3.98352e-06
-1.08991e-07
4.03368e-06
-8.98268e-08
4.07229e-06
-6.99641e-08
4.09948e-06
-5.03964e-08
4.11593e-06
-3.1884e-08
4.12239e-06
-1.44775e-08
4.11979e-06
1.98517e-09
4.10763e-06
1.74556e-08
4.08733e-06
3.13302e-08
4.06022e-06
4.31696e-08
4.02791e-06
5.25868e-08
3.99208e-06
5.92598e-08
3.95455e-06
6.2887e-08
3.91715e-06
6.33734e-08
3.88146e-06
6.10558e-08
3.84871e-06
5.64179e-08
3.8199e-06
4.99065e-08
3.7956e-06
4.23085e-08
3.77601e-06
3.4376e-08
3.76121e-06
2.63073e-08
3.75123e-06
1.76742e-08
3.74582e-06
8.88618e-09
3.7454e-06
-2.06299e-10
3.75064e-06
-9.60179e-09
3.76123e-06
-1.86533e-08
3.77652e-06
-2.68376e-08
3.79553e-06
-3.35454e-08
3.81731e-06
-3.85574e-08
3.84087e-06
-4.1722e-08
3.8647e-06
-4.23516e-08
3.88794e-06
-4.14431e-08
3.90996e-06
-3.92756e-08
3.92988e-06
-3.55468e-08
3.94613e-06
-2.95046e-08
3.95765e-06
-2.16231e-08
3.96388e-06
-1.24801e-08
3.96484e-06
-2.69925e-09
3.95951e-06
7.43778e-09
3.94845e-06
1.72422e-08
3.93197e-06
2.67804e-08
3.91042e-06
3.58092e-08
3.8845e-06
4.37128e-08
3.85558e-06
4.946e-08
3.82497e-06
5.31259e-08
3.79313e-06
5.58539e-08
3.76057e-06
5.76129e-08
3.72799e-06
5.81768e-08
3.69616e-06
5.74399e-08
3.66581e-06
5.5375e-08
3.63763e-06
5.20433e-08
3.61221e-06
4.75843e-08
3.59e-06
4.21742e-08
3.57134e-06
3.60356e-08
3.55649e-06
2.9372e-08
3.54556e-06
2.23895e-08
3.53857e-06
1.52369e-08
3.53553e-06
7.9736e-09
3.53624e-06
6.99108e-10
3.54097e-06
-6.06786e-09
3.54901e-06
-1.21593e-08
3.55978e-06
-1.73298e-08
3.57265e-06
-2.1416e-08
3.58704e-06
-2.44523e-08
3.60253e-06
-2.66644e-08
3.61855e-06
-2.79055e-08
3.63459e-06
-2.82277e-08
3.6502e-06
-2.77384e-08
3.66502e-06
-2.65541e-08
3.67871e-06
-2.47879e-08
3.69102e-06
-2.25516e-08
3.70175e-06
-1.99381e-08
3.71074e-06
-1.70323e-08
3.71789e-06
-1.39411e-08
3.72319e-06
-1.07566e-08
3.7267e-06
-7.63385e-09
3.72858e-06
-4.73772e-09
3.72909e-06
-2.26363e-09
3.72838e-06
-1.478e-10
3.72674e-06
1.45426e-09
3.72443e-06
2.43838e-09
3.72183e-06
2.84113e-09
3.71929e-06
2.72782e-09
3.71704e-06
2.16377e-09
3.71532e-06
1.19723e-09
3.71421e-06
3.46492e-11
3.71385e-06
-1.38802e-09
3.71438e-06
-3.01782e-09
3.71579e-06
-4.67755e-09
3.71808e-06
-6.31515e-09
3.72119e-06
-7.87385e-09
3.72507e-06
-9.31679e-09
3.72964e-06
-1.06168e-08
3.73477e-06
-1.17198e-08
3.74034e-06
-1.262e-08
3.7462e-06
-1.32494e-08
3.7522e-06
-1.35481e-08
3.75813e-06
-1.34776e-08
3.76376e-06
-1.29406e-08
3.76874e-06
-1.17941e-08
3.77277e-06
-1.00697e-08
3.77557e-06
-7.849e-09
3.77695e-06
-5.2437e-09
3.77679e-06
-2.34657e-09
3.77508e-06
7.34149e-10
3.77156e-06
3.86287e-09
3.7663e-06
7.03965e-09
3.75937e-06
1.02254e-08
3.75079e-06
1.33797e-08
3.74063e-06
1.64645e-08
3.72896e-06
1.94081e-08
3.71592e-06
2.21185e-08
3.70169e-06
2.45257e-08
3.68646e-06
2.65911e-08
3.67044e-06
2.82841e-08
3.65386e-06
2.95582e-08
3.63695e-06
3.03717e-08
3.62e-06
3.0707e-08
3.60323e-06
3.05613e-08
3.58691e-06
2.99389e-08
3.57127e-06
2.88545e-08
3.55653e-06
2.73371e-08
3.54289e-06
2.54249e-08
3.53053e-06
2.31656e-08
3.51958e-06
2.06142e-08
3.51017e-06
1.78339e-08
1.48983e-08
5.45499e-06
5.79783e-08
5.4519e-06
-1.47123e-09
5.46571e-06
-5.81604e-08
5.49425e-06
-1.09033e-07
5.53543e-06
-1.52268e-07
5.58753e-06
-1.87074e-07
5.64877e-06
-2.13063e-07
5.71671e-06
-2.29293e-07
5.78768e-06
-2.34588e-07
5.8605e-06
-2.3322e-07
5.9339e-06
-2.26184e-07
6.00561e-06
-2.13018e-07
6.07332e-06
-1.94163e-07
6.13526e-06
-1.70925e-07
6.18982e-06
-1.44391e-07
6.2357e-06
-1.1584e-07
6.27196e-06
-8.66575e-08
6.29827e-06
-5.81967e-08
6.31516e-06
-3.13664e-08
6.32377e-06
-6.61961e-09
6.32473e-06
1.64926e-08
6.31899e-06
3.70681e-08
6.30754e-06
5.46225e-08
6.29139e-06
6.87332e-08
6.27151e-06
7.91406e-08
6.24898e-06
8.54162e-08
6.22487e-06
8.7485e-08
6.1996e-06
8.63272e-08
6.17322e-06
8.28006e-08
6.14635e-06
7.67772e-08
6.11961e-06
6.90388e-08
6.09389e-06
6.01027e-08
6.06998e-06
5.02171e-08
6.04831e-06
3.93427e-08
6.02959e-06
2.7602e-08
6.01413e-06
1.5261e-08
6.00224e-06
2.28112e-09
5.99388e-06
-1.02869e-08
5.98926e-06
-2.22216e-08
5.98807e-06
-3.23548e-08
5.98999e-06
-4.04779e-08
5.9948e-06
-4.65279e-08
6.0022e-06
-4.97513e-08
6.01176e-06
-5.10046e-08
6.02299e-06
-5.05086e-08
6.03506e-06
-4.7612e-08
6.04692e-06
-4.13698e-08
6.05793e-06
-3.26316e-08
6.06726e-06
-2.18141e-08
6.07415e-06
-9.58964e-09
6.07842e-06
3.1767e-09
6.07955e-06
1.61082e-08
6.0772e-06
2.91338e-08
6.07091e-06
4.20962e-08
6.06029e-06
5.43339e-08
6.04501e-06
6.47399e-08
6.02538e-06
7.27523e-08
6.0023e-06
7.89364e-08
5.9761e-06
8.38087e-08
5.94742e-06
8.68623e-08
5.91707e-06
8.77916e-08
5.88607e-06
8.63747e-08
5.85548e-06
8.26255e-08
5.82624e-06
7.68258e-08
5.79909e-06
6.93282e-08
5.77468e-06
6.0449e-08
5.75356e-06
5.04865e-08
5.73617e-06
3.97808e-08
5.72275e-06
2.8655e-08
5.71342e-06
1.73097e-08
5.70805e-06
6.05996e-09
5.70662e-06
-4.63028e-09
5.7089e-06
-1.44411e-08
5.71458e-06
-2.30093e-08
5.72316e-06
-2.99981e-08
5.73409e-06
-3.53802e-08
5.74687e-06
-3.94434e-08
5.76104e-06
-4.20778e-08
5.77613e-06
-4.33205e-08
5.79168e-06
-4.329e-08
5.80723e-06
-4.20976e-08
5.82232e-06
-3.98764e-08
5.83656e-06
-3.67998e-08
5.84964e-06
-3.30154e-08
5.86127e-06
-2.8656e-08
5.87121e-06
-2.38823e-08
5.87931e-06
-1.88639e-08
5.88548e-06
-1.3799e-08
5.88967e-06
-8.93158e-09
5.89194e-06
-4.53342e-09
5.89252e-06
-7.25475e-10
5.89192e-06
2.05037e-09
5.89021e-06
4.15084e-09
5.88769e-06
5.36342e-09
5.88468e-06
5.73966e-09
5.88133e-06
5.51169e-09
5.87799e-06
4.53981e-09
5.87502e-06
3.00375e-09
5.87252e-06
1.1137e-09
5.87061e-06
-1.11259e-09
5.8693e-06
-3.36346e-09
5.86861e-06
-5.62356e-09
5.86856e-06
-7.8239e-09
5.86916e-06
-9.92587e-09
5.87041e-06
-1.18577e-08
5.87221e-06
-1.35286e-08
5.87449e-06
-1.48999e-08
5.87718e-06
-1.5932e-08
5.88021e-06
-1.65797e-08
5.88354e-06
-1.68074e-08
5.88702e-06
-1.64269e-08
5.89017e-06
-1.49388e-08
5.89258e-06
-1.24812e-08
5.89393e-06
-9.19726e-09
5.89401e-06
-5.32621e-09
5.89271e-06
-1.04844e-09
5.88998e-06
3.4677e-09
5.88572e-06
8.12322e-09
5.87989e-06
1.2866e-08
5.87248e-06
1.76341e-08
5.86348e-06
2.23852e-08
5.85284e-06
2.71059e-08
5.84057e-06
3.16754e-08
5.82678e-06
3.59097e-08
5.81163e-06
3.96765e-08
5.79529e-06
4.29291e-08
5.77793e-06
4.56397e-08
5.75978e-06
4.77089e-08
5.74111e-06
4.90467e-08
5.72219e-06
4.96216e-08
5.70333e-06
4.94224e-08
5.68482e-06
4.84543e-08
5.66693e-06
4.67461e-08
5.64992e-06
4.43414e-08
5.63405e-06
4.1298e-08
5.61952e-06
3.76912e-08
5.60653e-06
3.36108e-08
5.5952e-06
2.91599e-08
2.44565e-08
7.64554e-06
9.18083e-08
7.61708e-06
2.69832e-08
7.59635e-06
-3.7423e-08
7.58382e-06
-9.65031e-08
7.57978e-06
-1.48229e-07
7.58451e-06
-1.91809e-07
7.59814e-06
-2.26688e-07
7.62027e-06
-2.51429e-07
7.64936e-06
-2.63678e-07
7.68328e-06
-2.67135e-07
7.72177e-06
-2.64678e-07
7.76462e-06
-2.55863e-07
7.8105e-06
-2.40043e-07
7.85802e-06
-2.18447e-07
7.90582e-06
-1.92189e-07
7.9526e-06
-1.62623e-07
7.99696e-06
-1.31014e-07
8.03736e-06
-9.85992e-08
8.07255e-06
-6.65606e-08
8.10189e-06
-3.59567e-08
8.12592e-06
-7.5353e-09
8.14449e-06
1.84961e-08
8.15811e-06
4.10075e-08
8.16709e-06
5.97506e-08
8.17186e-06
7.43703e-08
8.17311e-06
8.41691e-08
8.17139e-06
8.91997e-08
8.16724e-06
9.04817e-08
8.1613e-06
8.87365e-08
8.15442e-06
8.36577e-08
8.14746e-06
7.59981e-08
8.14119e-06
6.63703e-08
8.13618e-06
5.52336e-08
8.1326e-06
4.29215e-08
8.13054e-06
2.96651e-08
8.12956e-06
1.62368e-08
8.12869e-06
3.14815e-09
8.12771e-06
-9.30713e-09
8.12534e-06
-1.98475e-08
8.12101e-06
-2.80241e-08
8.11414e-06
-3.36052e-08
8.10425e-06
-3.6642e-08
8.09181e-06
-3.73069e-08
8.0766e-06
-3.57984e-08
8.05853e-06
-3.24408e-08
8.03785e-06
-2.69282e-08
8.01524e-06
-1.87637e-08
7.99088e-06
-8.2688e-09
7.9651e-06
3.9635e-09
7.93817e-06
1.73453e-08
7.91044e-06
3.09038e-08
7.8827e-06
4.38492e-08
7.85589e-06
5.59448e-08
7.83075e-06
6.72279e-08
7.80699e-06
7.81011e-08
7.78332e-06
8.84114e-08
7.75901e-06
9.70593e-08
7.73458e-06
1.0337e-07
7.71027e-06
1.08118e-07
7.686e-06
1.11125e-07
7.66185e-06
1.11946e-07
7.63802e-06
1.10204e-07
7.61483e-06
1.05817e-07
7.59271e-06
9.89436e-08
7.57216e-06
8.98776e-08
7.55362e-06
7.89884e-08
7.53761e-06
6.64959e-08
7.52467e-06
5.27249e-08
7.51504e-06
3.82809e-08
7.50885e-06
2.35052e-08
7.50601e-06
8.89284e-09
7.50651e-06
-5.12294e-09
7.51015e-06
-1.80807e-08
7.51678e-06
-2.9639e-08
7.52618e-06
-3.94001e-08
7.538e-06
-4.72054e-08
7.55172e-06
-5.31649e-08
7.56691e-06
-5.72666e-08
7.58306e-06
-5.94671e-08
7.59981e-06
-6.00446e-08
7.61681e-06
-5.90884e-08
7.63362e-06
-5.66865e-08
7.64981e-06
-5.2989e-08
7.66493e-06
-4.81449e-08
7.67867e-06
-4.23942e-08
7.69076e-06
-3.59737e-08
7.70103e-06
-2.91296e-08
7.70941e-06