/*--------------------------------*- C++ -*----------------------------------*\
| =========                 |                                                 |
| \\      /  F ield         | OpenFOAM: The Open Source CFD Toolbox           |
|  \\    /   O peration     | Version:  2206                                  |
|   \\  /    A nd           | Website:  www.openfoam.com                      |
|    \\/     M anipulation  |                                                 |
\*---------------------------------------------------------------------------*/
FoamFile
{
    version     2.0;
    format      ascii;
    arch        "LSB;label=32;scalar=64";
    class       surfaceScalarField;
    location    "18.3";
    object      ddtCorrDdt0(phi);
}
// * * * * * * * * * * * * * * * * * * * * * * * * * * * * * * * * * * * * * //

dimensions      [0 3 -2 0 0 0 0];

oriented        oriented;

internalField   nonuniform List<scalar> 
5953
(
-7.68711e-05
0.000153169
-0.000148415
-7.98098e-05
0.000112651
-0.000109712
-8.25187e-05
7.29804e-05
-7.02715e-05
-8.59704e-05
3.08524e-05
-2.74008e-05
-8.80507e-05
-1.72633e-05
1.93436e-05
-8.82197e-05
-6.64936e-05
6.66626e-05
-8.6849e-05
-0.000114519
0.000113149
-8.45022e-05
-0.000159723
0.000157376
-8.15166e-05
-0.000201542
0.000198556
-7.8051e-05
-0.000239531
0.000236066
-7.40712e-05
-0.00027309
0.00026911
-6.92003e-05
-0.000301257
0.000296386
-6.25502e-05
-0.000322062
0.000315411
-5.26327e-05
-0.00033127
0.000321353
-4.07764e-05
-0.000327105
0.000315248
-2.69755e-05
-0.000313308
0.000299507
-1.106e-05
-0.000291077
0.000275162
5.02439e-06
-0.000262406
0.000246322
1.99038e-05
-0.00022847
0.000213591
3.44978e-05
-0.000190594
0.000176
4.82372e-05
-0.00015128
0.000137541
6.17049e-05
-0.000112149
9.86812e-05
7.57744e-05
-7.30606e-05
5.89911e-05
8.91526e-05
-3.30855e-05
1.97073e-05
9.8779e-05
6.5753e-06
-1.62018e-05
0.00010453
4.30034e-05
-4.87548e-05
0.000106086
7.6825e-05
-7.83811e-05
0.000103755
0.000107743
-0.000105411
9.82556e-05
0.000135806
-0.000130307
9.02086e-05
0.000161541
-0.000153494
8.01492e-05
0.000185123
-0.000175063
6.85123e-05
0.000206416
-0.000194779
5.56226e-05
0.000225022
-0.000212132
4.17511e-05
0.000240161
-0.00022629
2.72161e-05
0.000250436
-0.000235901
1.25666e-05
0.000253166
-0.000238516
-1.56597e-06
0.000249316
-0.000235183
-1.47977e-05
0.000239567
-0.000226336
-2.67234e-05
0.000224087
-0.000212161
-3.69692e-05
0.000203419
-0.000193174
-4.52554e-05
0.000178507
-0.000170221
-5.14694e-05
0.000150615
-0.000144401
-5.57478e-05
0.000121155
-0.000116877
-5.85579e-05
9.14226e-05
-8.86125e-05
-6.08497e-05
6.21766e-05
-5.98848e-05
-6.36831e-05
3.19848e-05
-2.91515e-05
-6.58841e-05
-2.64123e-06
4.84222e-06
-6.66882e-05
-3.8621e-05
3.94252e-05
-6.61239e-05
-7.44242e-05
7.38599e-05
-6.44646e-05
-0.000108681
0.000107022
-6.19663e-05
-0.000140524
0.000138026
-5.87877e-05
-0.000169422
0.000166243
-5.49397e-05
-0.000194876
0.000191028
-5.02762e-05
-0.000216213
0.00021155
-4.44216e-05
-0.000232345
0.000226491
-3.65414e-05
-0.000241129
0.000233249
-2.74798e-05
-0.000240342
0.00023128
-1.74885e-05
-0.000233079
0.000223087
-7.53544e-06
-0.000219874
0.000209921
2.51158e-06
-0.000201539
0.000191492
1.38856e-05
-0.000179115
0.000167741
2.52353e-05
-0.000153173
0.000141823
3.51523e-05
-0.000125299
0.000115382
4.41968e-05
-9.68732e-05
8.78287e-05
5.30604e-05
-6.84496e-05
5.9586e-05
6.18634e-05
-3.97451e-05
3.09421e-05
6.90625e-05
-1.00154e-05
2.81639e-06
7.37159e-05
1.88341e-05
-2.34876e-05
7.55648e-05
4.64605e-05
-4.83093e-05
7.46204e-05
7.24415e-05
-7.14971e-05
7.13229e-05
9.61981e-05
-9.29005e-05
6.60922e-05
0.000117793
-0.000112562
5.929e-05
0.000137251
-0.000130449
5.12407e-05
0.000154429
-0.000146379
4.21988e-05
0.000169096
-0.000160054
3.23712e-05
0.000180817
-0.00017099
2.19784e-05
0.00018873
-0.000178337
1.13935e-05
0.000190969
-0.000180385
1.12074e-06
0.000188277
-0.000178004
-8.58665e-06
0.000181332
-0.000171624
-1.74691e-05
0.000170305
-0.000161422
-2.52727e-05
0.000155562
-0.000147759
-3.17728e-05
0.000137687
-0.000131187
-3.68259e-05
0.000117477
-0.000112423
-4.04503e-05
9.58928e-05
-9.22684e-05
-4.29097e-05
7.39084e-05
-7.1449e-05
-4.48015e-05
5.22317e-05
-5.03398e-05
-4.6982e-05
3.04403e-05
-2.82598e-05
-4.90619e-05
5.93051e-06
-3.85061e-06
-5.0115e-05
-2.03408e-05
2.13939e-05
-5.0059e-05
-4.67482e-05
4.66922e-05
-4.8994e-05
-7.2339e-05
7.12741e-05
-4.7091e-05
-9.63068e-05
9.44037e-05
-4.44811e-05
-0.000118195
0.000115585
-4.12454e-05
-0.000137574
0.000134338
-3.7394e-05
-0.000153965
0.000150114
-3.28142e-05
-0.000166737
0.000162158
-2.71712e-05
-0.000174841
0.000169198
-2.05701e-05
-0.000176487
0.000169886
-1.3243e-05
-0.000173521
0.000166194
-5.14838e-06
-0.000166492
0.000158398
3.25916e-06
-0.000155123
0.000146716
1.13871e-05
-0.000139797
0.000131669
1.88063e-05
-0.000121588
0.000114168
2.54439e-05
-0.000101836
9.51979e-05
3.13444e-05
-8.1356e-05
7.54556e-05
3.66631e-05
-6.05592e-05
5.52405e-05
4.19076e-05
-3.98001e-05
3.45556e-05
4.70555e-05
-1.85304e-05
1.33825e-05
5.06997e-05
3.84709e-06
-7.49126e-06
5.2585e-05
2.57857e-05
-2.76711e-05
5.24715e-05
4.72053e-05
-4.70917e-05
5.0567e-05
6.71916e-05
-6.52872e-05
4.71839e-05
8.54184e-05
-8.20354e-05
4.25152e-05
0.000101883
-9.72143e-05
3.68744e-05
0.000116356
-0.000110716
3.03309e-05
0.00012873
-0.000122186
2.31972e-05
0.000139312
-0.000132179
1.54853e-05
0.000144991
-0.000137279
7.43579e-06
0.000147564
-0.000139515
-5.43406e-07
0.000147968
-0.000139989
0.000137865
-0.000130578
-6.38405e-05
0.000155662
-6.4366e-05
0.000113176
-6.45861e-05
7.32005e-05
-6.66095e-05
3.28758e-05
-6.8003e-05
-1.58698e-05
-6.7087e-05
-6.74097e-05
-6.49435e-05
-0.000116663
-6.24507e-05
-0.000162216
-5.99416e-05
-0.000204051
-5.74954e-05
-0.000241977
-5.50892e-05
-0.000275496
-5.24669e-05
-0.00030388
-4.89242e-05
-0.000325604
-4.29383e-05
-0.000337256
-3.50406e-05
-0.000335002
-2.51496e-05
-0.000323199
-1.35601e-05
-0.000302667
-1.22461e-06
-0.000274741
1.11129e-05
-0.000240808
2.30867e-05
-0.000202568
3.40372e-05
-0.000162231
4.37884e-05
-0.0001219
5.38613e-05
-8.31336e-05
6.56055e-05
-4.48297e-05
7.62428e-05
-4.06195e-06
8.37061e-05
3.55401e-05
8.7033e-05
7.34982e-05
8.65228e-05
0.000108253
8.29703e-05
0.000139359
7.69014e-05
0.00016761
6.88039e-05
0.00019322
5.91029e-05
0.000216117
4.81293e-05
0.000235996
3.61691e-05
0.000252121
2.35444e-05
0.000263061
1.07753e-05
0.000265935
-1.51595e-06
0.000261607
-1.29732e-05
0.000251025
-2.32223e-05
0.000234336
-3.19061e-05
0.000212103
-3.87246e-05
0.000185326
-4.35038e-05
0.000155394
-4.62935e-05
0.000123945
-4.7487e-05
9.2616e-05
-4.80259e-05
6.27156e-05
-4.95964e-05
3.35553e-05
-5.13734e-05
-8.64269e-07
-5.16757e-05
-3.83187e-05
-5.0598e-05
-7.55019e-05
-4.86776e-05
-0.000110602
-4.63077e-05
-0.000142894
-4.37295e-05
-0.000172
-4.09476e-05
-0.000197658
-3.7834e-05
-0.000219327
-3.40324e-05
-0.000236147
-2.87322e-05
-0.000246429
-2.20797e-05
-0.000246995
-1.46459e-05
-0.000240513
-7.30024e-06
-0.000227219
-2.98132e-07
-0.000208541
7.54864e-06
-0.000186962
1.6006e-05
-0.00016163
2.36708e-05
-0.000132964
3.04696e-05
-0.000103672
3.67842e-05
-7.47643e-05
4.3636e-05
-4.65969e-05
5.14159e-05
-1.77953e-05
5.72978e-05
1.29522e-05
6.04758e-05
4.32826e-05
6.09434e-05
7.19739e-05
5.91632e-05
9.79782e-05
5.55178e-05
0.000121438
5.03402e-05
0.000142429
4.39341e-05
0.000160835
3.65312e-05
0.000176499
2.83318e-05
0.000189017
1.95405e-05
0.000197521
1.04781e-05
0.000200032
1.6589e-06
0.000197096
-6.69072e-06
0.000189681
-1.43357e-05
0.00017795
-2.10281e-05
0.000162255
-2.65177e-05
0.000143177
-3.06118e-05
0.000121571
-3.32701e-05
9.85511e-05
-3.46976e-05
7.53358e-05
-3.5436e-05
5.29701e-05
-3.65685e-05
3.15728e-05
-3.83448e-05
7.70681e-06
-3.92184e-05
-1.94671e-05
-3.89293e-05
-4.70373e-05
-3.77244e-05
-7.3544e-05
-3.58918e-05
-9.81394e-05
-3.36e-05
-0.000120487
-3.09843e-05
-0.00014019
-2.81194e-05
-0.00015683
-2.48293e-05
-0.000170027
-2.04963e-05
-0.000179174
-1.47788e-05
-0.000182205
-9.35358e-06
-0.000178947
-4.58767e-06
-0.000171258
3.38924e-07
-0.00016005
5.7454e-06
-0.000145203
1.17538e-05
-0.000127596
1.75612e-05
-0.000107643
2.21737e-05
-8.59686e-05
2.58554e-05
-6.4241e-05
2.93871e-05
-4.33317e-05
3.37408e-05
-2.28841e-05
3.81553e-05
-5.6743e-07
4.10126e-05
2.29284e-05
4.17795e-05
4.64384e-05
4.094e-05
6.80312e-05
3.87657e-05
8.75927e-05
3.54027e-05
0.000105246
3.11315e-05
0.000120628
2.59523e-05
0.000133909
2.04025e-05
0.000144862
1.39531e-05
0.00015144
7.19054e-06
0.000154327
5.04523e-07
0.000154654
0.000144003
-5.01516e-05
0.000155947
-4.82707e-05
0.000111296
-4.58173e-05
7.0747e-05
-4.61171e-05
3.31757e-05
-4.77716e-05
-1.42153e-05
-4.49366e-05
-7.02447e-05
-4.18332e-05
-0.000119766
-3.92563e-05
-0.000164793
-3.74211e-05
-0.000205886
-3.63152e-05
-0.000243083
-3.56706e-05
-0.000276141
-3.51866e-05
-0.000304364
-3.43431e-05
-0.000326448
-3.19501e-05
-0.000339649
-2.78328e-05
-0.000339119
-2.20882e-05
-0.000328944
-1.47898e-05
-0.000309965
-6.33459e-06
-0.000283197
2.81121e-06
-0.000249953
1.21024e-05
-0.000211859
2.07618e-05
-0.00017089
2.81228e-05
-0.000129261
3.422e-05
-8.92308e-05
4.16063e-05
-5.2216e-05
5.27303e-05
-1.51859e-05
6.19493e-05
2.63211e-05
6.63268e-05
6.91207e-05
6.73717e-05
0.000107208
6.56444e-05
0.000141086
6.1485e-05
0.000171769
5.53554e-05
0.00019935
4.7665e-05
0.000223808
3.87388e-05
0.000244922
2.88748e-05
0.000261985
1.84126e-05
0.000273523
7.87236e-06
0.000276475
-2.18995e-06
0.00027167
-1.14729e-05
0.000260307
-1.96837e-05
0.000242547
-2.65352e-05
0.000218955
-3.17438e-05
0.000190534
-3.50756e-05
0.000158726
-3.64412e-05
0.000125311
-3.60756e-05
9.22505e-05
-3.48441e-05
6.14841e-05
-3.49032e-05
3.36144e-05
-3.67349e-05
9.67333e-07
-3.617e-05
-3.88836e-05
-3.43692e-05
-7.73027e-05
-3.21816e-05
-0.000112789
-2.99942e-05
-0.000145081
-2.80785e-05
-0.000173916
-2.65084e-05
-0.000199228
-2.50534e-05
-0.000220782
-2.3351e-05
-0.000237849
-2.09042e-05
-0.000248876
-1.7326e-05
-0.000250573
-1.311e-05
-0.000244729
-7.83255e-06
-0.000232497
-1.53833e-06
-0.000214836
4.30675e-06
-0.000192807
9.54664e-06
-0.00016687
1.47005e-05
-0.000138118
1.90632e-05
-0.000108035
2.25688e-05
-7.82698e-05
2.63973e-05
-5.04255e-05
3.26966e-05
-2.40947e-05
4.02631e-05
5.38574e-06
4.43174e-05
3.92283e-05
4.589e-05
7.04013e-05
4.55197e-05
9.83485e-05
4.33956e-05
0.000123562
3.98511e-05
0.000145974
3.51523e-05
0.000165534
2.94902e-05
0.000182161
2.30582e-05
0.000195449
1.60512e-05
0.000204528
8.75296e-06
0.00020733
1.64797e-06
0.000204201
-5.07426e-06
0.000196404
-1.12316e-05
0.000184107
-1.66114e-05
0.000167635
-2.09714e-05
0.000147537
-2.40996e-05
0.000124699
-2.58825e-05
0.000100334
-2.63879e-05
7.58412e-05
-2.60312e-05
5.26134e-05
-2.59343e-05
3.14758e-05
-2.7495e-05
9.26751e-06
-2.82185e-05
-1.87436e-05
-2.74841e-05
-4.77717e-05
-2.60787e-05
-7.49494e-05
-2.4399e-05
-9.9819e-05
-2.24923e-05
-0.000122393
-2.03742e-05
-0.000142308
-1.81903e-05
-0.000159014
-1.59472e-05
-0.00017227
-1.31931e-05
-0.000181928
-9.88398e-06
-0.000185514
-6.52008e-06
-0.00018231
-3.19955e-06
-0.000174579
-3.12689e-07
-0.000162937
3.00794e-06
-0.000148524
6.67921e-06
-0.000131267
1.01003e-05
-0.000111064
1.3084e-05
-8.89523e-05
1.53342e-05
-6.64911e-05
1.70827e-05
-4.50802e-05
1.96443e-05
-2.54457e-05
2.50391e-05
-5.96221e-06
2.91577e-05
1.88097e-05
3.03371e-05
4.5259e-05
3.04909e-05
6.78774e-05
2.93821e-05
8.87016e-05
2.72088e-05
0.000107419
2.42858e-05
0.000123551
2.05766e-05
0.000137618
1.65994e-05
0.000148839
1.16218e-05
0.000156418
6.39288e-06
0.000159556
1.23374e-06
0.000159813
0.000148802
-3.60299e-05
0.000154633
-3.22495e-05
0.000107515
-2.70528e-05
6.55504e-05
-2.43741e-05
3.0497e-05
-2.70953e-05
-1.14942e-05
-2.12955e-05
-7.60445e-05
-1.75679e-05
-0.000123494
-1.57681e-05
-0.000166593
-1.50866e-05
-0.000206567
-1.515e-05
-0.00024302
-1.60359e-05
-0.000275255
-1.75479e-05
-0.000302852
-1.92247e-05
-0.000324771
-2.02496e-05
-0.000338624
-1.98156e-05
-0.000339553
-1.80711e-05
-0.000330688
-1.48704e-05
-0.000313166
-1.03267e-05
-0.00028774
-4.70247e-06
-0.000255578
1.54935e-06
-0.000218111
7.76448e-06
-0.000177105
1.3184e-05
-0.000134681
1.72008e-05
-9.32476e-05
2.05902e-05
-5.56055e-05
2.81793e-05
-2.2775e-05
4.11284e-05
1.3372e-05
4.47356e-05
6.55135e-05
4.66905e-05
0.000105253
4.63981e-05
0.000141378
4.39821e-05
0.000174185
3.97928e-05
0.000203539
3.4171e-05
0.000229429
2.74067e-05
0.000251686
1.97952e-05
0.000269597
1.1706e-05
0.000281612
3.72702e-06
0.000284454
-3.70746e-06
0.000279104
-1.03587e-05
0.000266959
-1.60611e-05
0.000248249
-2.06798e-05
0.000223573
-2.40545e-05
0.000193909
-2.59838e-05
0.000160655
-2.62427e-05
0.00012557
-2.46831e-05
9.06909e-05
-2.16038e-05
5.84048e-05
-1.91591e-05
3.11697e-05
-2.26021e-05
4.41029e-06
-2.01122e-05
-4.13734e-05
-1.70894e-05
-8.03254e-05
-1.50081e-05
-0.000114871
-1.38032e-05
-0.000146286
-1.29774e-05
-0.000174742
-1.24351e-05
-0.00019977
-1.22031e-05
-0.000221014
-1.21833e-05
-0.000237869
-1.20318e-05
-0.000249027
-1.1175e-05
-0.00025143
-9.68205e-06
-0.000246222
-7.28023e-06
-0.000234899
-4.11598e-06
-0.000218
-6.63012e-07
-0.00019626
2.92688e-06
-0.00017046
6.37719e-06
-0.000141568
9.1932e-06
-0.000110851
1.1126e-05
-8.02026e-05
1.22131e-05
-5.15126e-05
1.45543e-05
-2.64358e-05
2.35333e-05
-3.59325e-06
2.8176e-05
3.45855e-05
3.02392e-05
6.83381e-05
3.08086e-05
9.77791e-05
2.98859e-05
0.000124485
2.79038e-05
0.000147956
2.48828e-05
0.000168555
2.09676e-05
0.000186076
1.63627e-05
0.000200054
1.12664e-05
0.000209624
5.962e-06
0.000212634
8.53893e-07
0.000209309
-3.92015e-06
0.000201178
-8.24612e-06
0.000188433
-1.1999e-05
0.000171387
-1.50292e-05
0.000150567
-1.71711e-05
0.000126841
-1.82539e-05
0.000101417
-1.81192e-05
7.57066e-05
-1.68072e-05
5.13014e-05
-1.53094e-05
2.99781e-05
-1.648e-05
1.04381e-05
-1.73713e-05
-1.78523e-05
-1.5626e-05
-4.9517e-05
-1.3832e-05
-7.67434e-05
-1.25703e-05
-0.000101081
-1.15373e-05
-0.000123426
-1.04116e-05
-0.000143434
-9.18207e-06
-0.000160244
-7.67352e-06
-0.000173779
-6.59756e-06
-0.000183004
-5.84848e-06
-0.000186263
-4.51841e-06
-0.00018364
-2.57727e-06
-0.00017652
-2.09608e-07
-0.000165304
1.88275e-06
-0.000150616
3.30426e-06
-0.000132689
4.38927e-06
-0.000112149
5.69674e-06
-9.02598e-05
6.82576e-06
-6.76202e-05
7.13789e-06
-4.53924e-05
7.2095e-06
-2.55173e-05
1.02385e-05
-8.99121e-06
1.64849e-05
1.25633e-05
1.88915e-05
4.28524e-05
1.99008e-05
6.68682e-05
1.95004e-05
8.91019e-05
1.83911e-05
0.000108529
1.67836e-05
0.000125158
1.45196e-05
0.000139882
1.19055e-05
0.000151453
8.53597e-06
0.000159788
5.00131e-06
0.000163091
1.51376e-06
0.000163301
0.000152087
-2.00265e-05
-1.60197e-05
-1.03296e-05
-5.28636e-06
-2.00107e-06
2.86158e-06
5.60736e-06
7.69169e-06
8.17349e-06
6.65773e-06
3.75598e-06
-6.84048e-08
-4.40603e-06
-8.62845e-06
-1.17548e-05
-1.37746e-05
-1.44335e-05
-1.36853e-05
-1.1673e-05
-8.75024e-06
-5.39243e-06
-2.06566e-06
8.63214e-07
3.22632e-06
7.31677e-06
1.86665e-05
2.24032e-05
2.52164e-05
2.62059e-05
2.53119e-05
2.29149e-05
1.92813e-05
1.46245e-05
9.26627e-06
3.63029e-06
-1.59481e-06
-6.15102e-06
-9.83913e-06
-1.25825e-05
-1.44021e-05
-1.53576e-05
-1.54766e-05
-1.46929e-05
-1.28654e-05
-9.83342e-06
-5.67315e-06
-6.33239e-06
-2.66312e-06
-2.60034e-07
1.34946e-06
2.4717e-06
2.73024e-06
2.1525e-06
8.45168e-07
-9.89883e-07
-3.03076e-06
-4.72817e-06
-5.9297e-06
-6.41652e-06
-6.17133e-06
-5.34174e-06
-4.079e-06
-2.5485e-06
-9.53066e-07
3.58717e-07
1.23387e-06
1.84398e-06
6.39784e-06
1.05998e-05
1.29969e-05
1.47021e-05
1.56095e-05
1.5252e-05
1.38341e-05
1.16216e-05
8.8218e-06
5.63404e-06
2.36987e-06
-6.41941e-07
-3.25796e-06
-5.43423e-06
-7.19732e-06
-8.54379e-06
-9.41856e-06
-9.78855e-06
-9.5224e-06
-8.35367e-06
-5.98933e-06
-5.72473e-06
-5.49359e-06
-3.83385e-06
-2.72699e-06
-1.39765e-06
-2.30681e-07
1.87298e-07
2.54265e-07
-4.98532e-08
-5.37027e-07
-9.98545e-07
-1.42319e-06
-1.58013e-06
-1.45628e-06
-1.2654e-06
-9.64874e-07
-4.23812e-07
6.33049e-09
2.35401e-07
3.09399e-07
1.61673e-07
8.8037e-07
3.52014e-06
4.32992e-06
5.74512e-06
7.48459e-06
8.53504e-06
8.61506e-06
7.96285e-06
6.77689e-06
5.07557e-06
3.24058e-06
1.43451e-06
-9.82853e-06
8.49138e-08
-9.62211e-06
-2.0642e-07
-9.13711e-06
-4.85001e-07
-8.40328e-06
-7.33831e-07
-7.46363e-06
-9.39654e-07
-6.36912e-06
-1.09451e-06
-5.17418e-06
-1.19494e-06
-3.93198e-06
-1.24219e-06
-2.68987e-06
-1.24211e-06
-1.48552e-06
-1.20436e-06
-3.40385e-07
-1.14513e-06
6.98467e-07
-1.03885e-06
1.58958e-06
-8.91112e-07
2.43325e-06
-8.43672e-07
3.18031e-06
-7.47053e-07
3.84588e-06
-6.65572e-07
4.44342e-06
-5.97538e-07
4.98411e-06
-5.40695e-07
5.47527e-06
-4.91163e-07
5.91888e-06
-4.43607e-07
6.31066e-06
-3.91777e-07
6.64036e-06
-3.29705e-07
6.89373e-06
-2.53364e-07
7.05224e-06
-1.58507e-07
7.09556e-06
-4.33275e-08
7.00391e-06
9.16524e-08
6.7588e-06
2.45108e-07
6.34544e-06
4.13365e-07
5.75504e-06
5.90403e-07
4.98327e-06
7.7176e-07
4.03115e-06
9.52128e-07
2.8897e-06
1.14144e-06
1.84665e-06
1.04305e-06
5.79503e-07
1.26715e-06
-7.38652e-07
1.31816e-06
-2.04839e-06
1.30974e-06
-3.30427e-06
1.25588e-06
-4.46945e-06
1.16518e-06
-5.50752e-06
1.03807e-06
-6.38301e-06
8.75489e-07
-7.0649e-06
6.81892e-07
-7.53175e-06
4.66852e-07
-7.77197e-06
2.40219e-07
-7.78751e-06
1.55377e-08
-7.59277e-06
-1.94738e-07
-7.20711e-06
-3.85659e-07
-6.65455e-06
-5.52565e-07
-5.9628e-06
-6.91745e-07
-5.16225e-06
-8.0055e-07
-4.28408e-06
-8.78171e-07
-3.35842e-06
-9.25664e-07
-2.41267e-06
-9.45746e-07
-1.46881e-06
-9.43856e-07
-5.3861e-07
-9.30205e-07
2.58831e-07
-7.9744e-07
1.06212e-06
-8.03287e-07
1.81532e-06
-7.53198e-07
2.51311e-06
-6.97793e-07
3.15585e-06
-6.4274e-07
3.74432e-06
-5.88469e-07
4.27755e-06
-5.33231e-07
4.75219e-06
-4.74636e-07
5.1622e-06
-4.10014e-07
5.499e-06
-3.36804e-07
5.75229e-06
-2.53287e-07
5.9099e-06
-1.57606e-07
5.95964e-06
-4.97478e-08
5.8907e-06
6.89474e-08
5.6934e-06
1.97293e-07
5.36145e-06
3.3195e-07
4.89291e-06
4.68546e-07
4.29034e-06
6.02569e-07
3.56009e-06
7.30247e-07
2.70591e-06
8.54179e-07
1.72433e-06
9.81584e-07
8.71253e-07
8.53077e-07
-1.56881e-07
1.02813e-06
-1.19818e-06
1.0413e-06
-2.21338e-06
1.0152e-06
-3.17286e-06
9.59478e-07
-4.05155e-06
8.78691e-07
-4.82613e-06
7.74578e-07
-5.47592e-06
6.49796e-07
-5.98456e-06
5.08634e-07
-6.34138e-06
3.56822e-07
-6.53907e-06
1.97689e-07
-6.57628e-06
3.72114e-08
-6.45945e-06
-1.1683e-07
-6.19984e-06
-2.5961e-07
-5.81304e-06
-3.86795e-07
-5.31755e-06
-4.9549e-07
-4.73296e-06
-5.84592e-07
-4.07975e-06
-6.53208e-07
-3.37737e-06
-7.02387e-07
-2.64424e-06
-7.33122e-07
-1.89279e-06
-7.51457e-07
-1.13093e-06
-7.61859e-07
-5.1015e-07
-6.20777e-07
1.73501e-07
-6.83651e-07
8.22315e-07
-6.48814e-07
1.42775e-06
-6.05432e-07
1.98612e-06
-5.5837e-07
2.4943e-06
-5.0818e-07
2.94846e-06
-4.54162e-07
3.34366e-06
-3.95196e-07
3.6743e-06
-3.30649e-07
3.93461e-06
-2.60307e-07
4.11738e-06
-1.82768e-07
4.21488e-06
-9.75041e-08
4.22091e-06
-6.02584e-09
4.13084e-06
9.00676e-08
3.94177e-06
1.89069e-07
3.65377e-06
2.88e-07
3.27042e-06
3.83352e-07
2.79872e-06
4.717e-07
2.25108e-06
5.47641e-07
1.63871e-06
6.12366e-07
9.83515e-07
6.55199e-07
4.2968e-07
5.53835e-07
-1.83284e-07
6.12965e-07
-7.2792e-07
5.44636e-07
3.13161e-07
-1.02438e-05
1.18745e-08
-9.86337e-06
-5.86847e-07
-9.19067e-06
-1.1577e-06
-8.26185e-06
-1.66266e-06
-7.12832e-06
-2.07318e-06
-5.84993e-06
-2.3729e-06
-4.48822e-06
-2.55665e-06
-3.1029e-06
-2.62751e-06
-1.74741e-06
-2.5976e-06
-4.65245e-07
-2.48653e-06
7.06463e-07
-2.31684e-06
1.77147e-06
-2.10386e-06
2.71971e-06
-1.83936e-06
3.53432e-06
-1.65828e-06
4.22734e-06
-1.44007e-06
4.81658e-06
-1.25481e-06
5.32483e-06
-1.10579e-06
5.7667e-06
-9.82562e-07
6.15219e-06
-8.76655e-07
6.48567e-06
-7.7709e-07
6.7648e-06
-6.70902e-07
6.98042e-06
-5.45328e-07
7.11705e-06
-3.89993e-07
7.15805e-06
-1.99508e-07
7.08513e-06
2.95924e-08
6.87813e-06
2.98653e-07
6.51961e-06
6.03624e-07
5.99676e-06
9.3622e-07
5.30358e-06
1.28358e-06
4.4358e-06
1.63954e-06
3.40841e-06
1.97951e-06
2.31264e-06
2.23722e-06
9.21979e-07
2.43371e-06
-4.1217e-07
2.6013e-06
-1.75862e-06
2.66461e-06
-3.07575e-06
2.62687e-06
-4.32127e-06
2.50139e-06
-5.45637e-06
2.30028e-06
-6.44383e-06
2.02554e-06
-7.24664e-06
1.6783e-06
-7.83174e-06
1.26698e-06
-8.17548e-06
8.10601e-07
-8.27248e-06
3.37213e-07
-8.13265e-06
-1.24293e-07
-7.77375e-06
-5.53631e-07
-7.22106e-06
-9.38349e-07
-6.50269e-06
-1.27094e-06
-5.65092e-06
-1.54351e-06
-4.70116e-06
-1.75031e-06
-3.68952e-06
-1.88981e-06
-2.65083e-06
-1.96436e-06
-1.61653e-06
-1.98004e-06
-6.1107e-07
-1.94932e-06
3.22892e-07
-1.86417e-06
1.25841e-06
-1.73296e-06
2.06071e-06
-1.60559e-06
2.78606e-06
-1.47854e-06
3.43964e-06
-1.35138e-06
4.02394e-06
-1.22704e-06
4.5409e-06
-1.10543e-06
4.99135e-06
-9.83679e-07
5.37375e-06
-8.57043e-07
5.68345e-06
-7.1971e-07
5.9129e-06
-5.66248e-07
6.05296e-06
-3.93352e-07
6.09451e-06
-1.99156e-07
6.02701e-06
1.77536e-08
5.83924e-06
2.56713e-07
5.52278e-06
5.13761e-07
5.0733e-06
7.81423e-07
4.49196e-06
1.04989e-06
3.78563e-06
1.30889e-06
2.96452e-06
1.55135e-06
2.04144e-06
1.77726e-06
1.08982e-06
1.93321e-06
-6.75956e-08
2.01049e-06
-1.13412e-06
2.09466e-06
-2.18946e-06
2.09665e-06
-3.20424e-06
2.02997e-06
-4.14754e-06
1.90278e-06
-4.99148e-06
1.72264e-06
-5.71153e-06
1.49463e-06
-6.28671e-06
1.22497e-06
-6.70116e-06
9.23088e-07
-6.94484e-06
6.00505e-07
-7.01611e-06
2.68958e-07
-6.91823e-06
-6.06749e-08
-6.65794e-06
-3.77118e-07
-6.25043e-06
-6.67121e-07
-5.71558e-06
-9.21636e-07
-5.07577e-06
-1.1353e-06
-4.35502e-06
-1.30534e-06
-3.57839e-06
-1.42984e-06
-2.7683e-06
-1.51248e-06
-1.94464e-06
-1.55678e-06
-1.11559e-06
-1.5805e-06
-3.75442e-07
-1.50201e-06
4.47868e-07
-1.44409e-06
1.14021e-06
-1.37599e-06
1.78076e-06
-1.28936e-06
2.36562e-06
-1.19029e-06
2.89069e-06
-1.08344e-06
3.35222e-06
-9.69713e-07
3.74676e-06
-8.48701e-07
4.07072e-06
-7.19157e-07
4.31961e-06
-5.79533e-07
4.48778e-06
-4.28478e-07
4.57112e-06
-2.66111e-07
4.56534e-06
-9.17208e-08
4.46436e-06
9.49501e-08
4.26355e-06
2.90881e-07
3.96151e-06
4.91104e-07
3.56063e-06
6.88883e-07
3.06716e-06
8.76828e-07
2.49178e-06
1.04707e-06
1.84869e-06
1.19074e-06
1.14172e-06
1.31933e-06
4.83116e-07
1.31381e-06
-3.20905e-07
1.35786e-06
-1.00004e-06
1.2921e-06
-1.64048e-06
1.18508e-06
7.831e-07
-1.0693e-05
-1.17586e-08
-1.03359e-05
-9.43919e-07
-9.65365e-06
-1.83993e-06
-8.68697e-06
-2.62934e-06
-7.49504e-06
-3.26511e-06
-6.14444e-06
-3.72349e-06
-4.70397e-06
-3.99713e-06
-3.24097e-06
-4.0905e-06
-1.81609e-06
-4.02248e-06
-4.7543e-07
-3.82719e-06
7.48505e-07
-3.54078e-06
1.845e-06
-3.20035e-06
2.77923e-06
-2.77359e-06
3.59665e-06
-2.47569e-06
4.29293e-06
-2.13636e-06
4.8819e-06
-1.84378e-06
5.38833e-06
-1.61222e-06
5.83282e-06
-1.42706e-06
6.22976e-06
-1.27359e-06
6.58596e-06
-1.13329e-06
6.89955e-06
-9.84491e-07
7.16002e-06
-8.058e-07
7.34965e-06
-5.7962e-07
7.44468e-06
-2.94543e-07
7.42368e-06
5.05902e-08
7.26671e-06
4.55625e-07
6.95049e-06
9.19846e-07
6.45479e-06
1.43192e-06
5.76961e-06
1.96877e-06
4.89238e-06
2.51677e-06
3.83447e-06
3.03742e-06
2.63305e-06
3.43863e-06
1.2492e-06
3.81757e-06
-1.89133e-07
4.03963e-06
-1.64978e-06
4.12525e-06
-3.07672e-06
4.05382e-06
-4.42387e-06
3.84854e-06
-5.65983e-06
3.53624e-06
-6.74799e-06
3.11369e-06
-7.6449e-06
2.57521e-06
-8.30709e-06
1.92917e-06
-8.6998e-06
1.20331e-06
-8.81489e-06
4.52311e-07
-8.67025e-06
-2.68941e-07
-8.29168e-06
-9.32201e-07
-7.70638e-06
-1.52364e-06
-6.94308e-06
-2.03425e-06
-6.0363e-06
-2.45029e-06
-5.0247e-06
-2.76191e-06
-3.94749e-06
-2.96702e-06
-2.84089e-06
-3.07096e-06
-1.73448e-06
-3.08645e-06
-6.47928e-07
-3.03587e-06
3.18885e-07
-2.83098e-06
1.26309e-06
-2.67716e-06
2.10628e-06
-2.44878e-06
2.86351e-06
-2.23577e-06
3.542e-06
-2.02986e-06
4.14854e-06
-1.83358e-06
4.68865e-06
-1.64554e-06
5.16532e-06
-1.46035e-06
5.57775e-06
-1.26948e-06
5.92115e-06
-1.06311e-06
6.18706e-06
-8.32155e-07
6.36338e-06
-5.69672e-07
6.43874e-06
-2.74517e-07
6.403e-06
5.35014e-08
6.24288e-06
4.16828e-07
5.94555e-06
8.11089e-07
5.50358e-06
1.22339e-06
4.91589e-06
1.63758e-06
4.18694e-06
2.03785e-06
3.32502e-06
2.41328e-06
2.34312e-06
2.75916e-06
1.31544e-06
2.96088e-06
1.50743e-07
3.17519e-06
-1.01977e-06
3.26517e-06
-2.17276e-06
3.24964e-06
-3.28021e-06
3.13743e-06
-4.30934e-06
2.9319e-06
-5.23409e-06
2.64739e-06
-6.02824e-06
2.28877e-06
-6.66753e-06
1.86427e-06
-7.13252e-06
1.38808e-06
-7.41004e-06
8.78024e-07
-7.49847e-06
3.57387e-07
-7.40241e-06
-1.5673e-07
-7.12893e-06
-6.50604e-07
-6.69431e-06
-1.10174e-06
-6.12135e-06
-1.49459e-06
-5.43594e-06
-1.8207e-06
-4.66542e-06
-2.07587e-06
-3.8348e-06
-2.26046e-06
-2.96402e-06
-2.38325e-06
-2.07539e-06
-2.44541e-06
-1.20054e-06
-2.45536e-06
-3.43239e-07
-2.35931e-06
4.6039e-07
-2.24772e-06
1.20181e-06
-2.11741e-06
1.88436e-06
-1.97192e-06
2.50588e-06
-1.81181e-06
3.06385e-06
-1.64141e-06
3.55626e-06
-1.46212e-06
3.98071e-06
-1.27315e-06
4.33386e-06
-1.07231e-06
4.61101e-06
-8.56678e-07
4.80584e-06
-6.23308e-07
4.91181e-06
-3.72086e-07
4.92507e-06
-1.04973e-07
4.83981e-06
1.80205e-07
4.64812e-06
4.82573e-07
4.34622e-06
7.93007e-07
3.93514e-06
1.09996e-06
3.42076e-06
1.39121e-06
2.81075e-06
1.65707e-06
2.11775e-06
1.88374e-06
1.3607e-06
2.07639e-06
5.85066e-07
2.08944e-06
-2.63406e-07
2.20633e-06
-1.06771e-06
2.09641e-06
-1.84043e-06
1.9578e-06
1.4592e-06
-1.19367e-05
1.24139e-09
-1.15584e-05
-1.32228e-06
-1.07946e-05
-2.60366e-06
-9.69826e-06
-3.72573e-06
-8.34558e-06
-4.6178e-06
-6.81893e-06
-5.25014e-06
-5.19906e-06
-5.617e-06
-3.56544e-06
-5.72412e-06
-1.99109e-06
-5.59683e-06
-5.22812e-07
-5.29546e-06
8.06669e-07
-4.87026e-06
1.95484e-06
-4.34852e-06
2.98527e-06
-3.80402e-06
3.80739e-06
-3.29782e-06
4.50516e-06
-2.83413e-06
5.10626e-06
-2.44487e-06
5.63232e-06
-2.13829e-06
6.10896e-06
-1.90369e-06
6.55589e-06
-1.72051e-06
6.98267e-06
-1.56007e-06
7.38629e-06
-1.38811e-06
7.75118e-06
-1.1707e-06
8.05219e-06
-8.80622e-07
8.25857e-06
-5.0093e-07
8.33542e-06
-2.62526e-08
8.25592e-06
5.35122e-07
7.99607e-06
1.17969e-06
7.52613e-06
1.90186e-06
6.8295e-06
2.66539e-06
5.90882e-06
3.43745e-06
4.77218e-06
4.17406e-06
3.39072e-06
4.8201e-06
1.84585e-06
5.36244e-06
1.81639e-07
5.70384e-06
-1.52046e-06
5.82735e-06
-3.17545e-06
5.70881e-06
-4.72754e-06
5.40062e-06
-6.16753e-06
4.97624e-06
-7.45974e-06
4.40591e-06
-8.54778e-06
3.66325e-06
-9.36957e-06
2.75096e-06
-9.86723e-06
1.70097e-06
-1.00202e-05
6.05285e-07
-9.8645e-06
-4.24648e-07
-9.44775e-06
-1.34894e-06
-8.80023e-06
-2.17117e-06
-7.95003e-06
-2.88445e-06
-6.93587e-06
-3.46445e-06
-5.8026e-06
-3.89518e-06
-4.59464e-06
-4.17498e-06
-3.35141e-06
-4.31418e-06
-2.10989e-06
-4.32797e-06
-9.23708e-07
-4.22205e-06
2.17176e-07
-3.97186e-06
1.21566e-06
-3.67565e-06
2.12873e-06
-3.36185e-06
2.94983e-06
-3.05686e-06
3.68865e-06
-2.76868e-06
4.35573e-06
-2.50067e-06
4.96042e-06
-2.25023e-06
5.50831e-06
-2.00823e-06
5.99962e-06
-1.76079e-06
6.42879e-06
-1.49228e-06
6.78487e-06
-1.18824e-06
7.05266e-06
-8.37454e-07
7.21228e-06
-4.34141e-07
7.24744e-06
1.83438e-08
7.14522e-06
5.19049e-07
6.88801e-06
1.06829e-06
6.46175e-06
1.64965e-06
5.86179e-06
2.23755e-06
5.09302e-06
2.80661e-06
4.17058e-06
3.33572e-06
3.12737e-06
3.80238e-06
1.9202e-06
4.16805e-06
6.47174e-07
4.44821e-06
-6.81883e-07
4.59422e-06
-2.01172e-06
4.57948e-06
-3.29129e-06
4.417e-06
-4.47863e-06
4.11924e-06
-5.55617e-06
3.72494e-06
-6.49461e-06
3.22721e-06
-7.26364e-06
2.63329e-06
-7.83894e-06
1.96337e-06
-8.20513e-06
1.24422e-06
-8.35209e-06
5.04346e-07
-8.28211e-06
-2.26711e-07
-8.00987e-06
-9.22847e-07
-7.55413e-06
-1.55748e-06
-6.94076e-06
-2.10796e-06
-6.19904e-06
-2.56243e-06
-5.35884e-06
-2.91606e-06
-4.44743e-06
-3.17188e-06
-3.49116e-06
-3.33952e-06
-2.51026e-06
-3.42632e-06
-1.54567e-06
-3.41995e-06
-6.08342e-07
-3.29663e-06
2.71162e-07
-3.12722e-06
1.08999e-06
-2.93623e-06
1.84444e-06
-2.72637e-06
2.53452e-06
-2.50189e-06
3.16e-06
-2.26689e-06
3.72033e-06
-2.02245e-06
4.21391e-06
-1.76673e-06
4.63741e-06
-1.49581e-06
4.98548e-06
-1.20475e-06
5.25068e-06
-8.88501e-07
5.42246e-06
-5.43867e-07
5.49074e-06
-1.73261e-07
5.4494e-06
2.21545e-07
5.28985e-06
6.42125e-07
5.00276e-06
1.0801e-06
4.58529e-06
1.51744e-06
4.04145e-06
1.93505e-06
3.38321e-06
2.31531e-06
2.6252e-06
2.64174e-06
1.80641e-06
2.89518e-06
8.44182e-07
3.05166e-06
-1.00921e-07
3.15143e-06
-1.06195e-06
3.05743e-06
-1.99866e-06
2.89451e-06
2.32267e-06
-1.57189e-05
1.18756e-07
-1.5258e-05
-1.78316e-06
-1.42526e-05
-3.60901e-06
-1.2787e-05
-5.19142e-06
-1.09755e-05
-6.42921e-06
-8.93412e-06
-7.29155e-06
-6.76839e-06
-7.78274e-06
-4.57935e-06
-7.91316e-06
-2.48534e-06
-7.69083e-06
-5.55501e-07
-7.22531e-06
1.1465e-06
-6.57226e-06
2.57256e-06
-5.77458e-06
3.76656e-06
-4.99802e-06
4.74155e-06
-4.27281e-06
5.53898e-06
-3.63156e-06
6.20146e-06
-3.10735e-06
6.77546e-06
-2.71229e-06
7.30375e-06
-2.43198e-06
7.8193e-06
-2.23606e-06
8.34078e-06
-2.08155e-06
8.86797e-06
-1.9153e-06
9.38025e-06
-1.68297e-06
9.84168e-06
-1.34205e-06
1.02073e-05
-8.66586e-07
1.04275e-05
-2.46375e-07
1.04511e-05
5.11466e-07
1.0239e-05
1.39184e-06
9.7573e-06
2.38353e-06
8.97441e-06
3.44828e-06
7.88477e-06
4.52709e-06
6.49107e-06
5.56776e-06
4.79415e-06
6.51702e-06
2.85609e-06
7.3005e-06
7.26231e-07
7.8337e-06
-1.48188e-06
8.03547e-06
-3.62966e-06
7.85658e-06
-5.62633e-06
7.39729e-06
-7.48908e-06
6.83899e-06
-9.18945e-06
6.10628e-06
-1.06523e-05
5.1261e-06
-1.1786e-05
3.88465e-06
-1.24805e-05
2.3955e-06
-1.26808e-05
8.05536e-07
-1.24645e-05
-6.40949e-07
-1.19319e-05
-1.88153e-06
-1.11184e-05
-2.9846e-06
-1.00498e-05
-3.95306e-06
-8.77434e-06
-4.73994e-06
-7.34901e-06
-5.32051e-06
-5.82912e-06
-5.69487e-06
-4.26208e-06
-5.88123e-06
-2.7003e-06
-5.88976e-06
-1.21302e-06
-5.70933e-06
1.48521e-07
-5.33341e-06
1.37121e-06
-4.89833e-06
2.46885e-06
-4.45949e-06
3.44837e-06
-4.03639e-06
4.32553e-06
-3.64584e-06
5.11856e-06
-3.29371e-06
5.84401e-06
-2.97567e-06
6.5133e-06
-2.67753e-06
7.13023e-06
-2.37772e-06
7.6894e-06
-2.05145e-06
8.17621e-06
-1.67505e-06
8.56803e-06
-1.22927e-06
8.83577e-06
-7.01887e-07
8.94631e-06
-9.21914e-08
8.87823e-06
5.87123e-07
8.61426e-06
1.33227e-06
8.13312e-06
2.13079e-06
7.42904e-06
2.94163e-06
6.50942e-06
3.72623e-06
5.39221e-06
4.45293e-06
4.10315e-06
5.09144e-06
2.65866e-06
5.61255e-06
1.11684e-06
5.99003e-06
-4.96143e-07
6.20721e-06
-2.13402e-06