/*--------------------------------*- C++ -*----------------------------------*\
| =========                 |                                                 |
| \\      /  F ield         | OpenFOAM: The Open Source CFD Toolbox           |
|  \\    /   O peration     | Version:  2206                                  |
|   \\  /    A nd           | Website:  www.openfoam.com                      |
|    \\/     M anipulation  |                                                 |
\*---------------------------------------------------------------------------*/
FoamFile
{
    version     2.0;
    format      ascii;
    arch        "LSB;label=32;scalar=64";
    class       surfaceScalarField;
    location    "19.7001";
    object      phi;
}
// * * * * * * * * * * * * * * * * * * * * * * * * * * * * * * * * * * * * * //

dimensions      [0 3 -1 0 0 0 0];

oriented        oriented;

internalField   nonuniform List<scalar> 
9446
(
9.58978e-06
-1.13474e-07
9.65598e-08
9.63151e-06
3.73247e-07
-4.14976e-07
9.69395e-06
8.48212e-07
-9.10652e-07
9.77282e-06
1.29955e-06
-1.37842e-06
9.8632e-06
1.71907e-06
-1.80945e-06
9.96013e-06
2.10116e-06
-2.19809e-06
1.0059e-05
2.44284e-06
-2.54173e-06
1.0156e-05
2.74344e-06
-2.84045e-06
1.02484e-05
3.00379e-06
-3.09619e-06
1.03348e-05
3.22544e-06
-3.3118e-06
1.04146e-05
3.40986e-06
-3.48966e-06
1.04874e-05
3.55819e-06
-3.63106e-06
1.05529e-05
3.67145e-06
-3.73692e-06
1.0611e-05
3.75064e-06
-3.80869e-06
1.06635e-05
3.79576e-06
-3.84828e-06
1.07147e-05
3.79946e-06
-3.85068e-06
1.07649e-05
3.74659e-06
-3.79677e-06
1.08123e-05
3.62847e-06
-3.67588e-06
1.08579e-05
3.44135e-06
-3.48699e-06
1.09023e-05
3.1831e-06
-3.22745e-06
1.09453e-05
2.85385e-06
-2.8969e-06
1.09867e-05
2.45699e-06
-2.49841e-06
1.10261e-05
1.99948e-06
-2.03885e-06
1.10629e-05
1.49212e-06
-1.52892e-06
1.10964e-05
9.49873e-07
-9.8335e-07
1.11251e-05
3.93767e-07
-4.22483e-07
1.11475e-05
-1.51825e-07
1.29474e-07
1.1162e-05
-6.71235e-07
6.56672e-07
1.11675e-05
-1.15131e-06
1.14586e-06
1.11627e-05
-1.58208e-06
1.58683e-06
1.11471e-05
-1.95714e-06
1.97282e-06
1.11201e-05
-2.27363e-06
2.30061e-06
1.10817e-05
-2.53196e-06
2.5703e-06
1.10323e-05
-2.73518e-06
2.78465e-06
1.09721e-05
-2.88817e-06
2.94838e-06
1.09015e-05
-2.99658e-06
3.06714e-06
1.08206e-05
-3.06542e-06
3.14627e-06
1.07293e-05
-3.09815e-06
3.18947e-06
1.06286e-05
-3.09864e-06
3.1994e-06
1.05204e-05
-3.07236e-06
3.1805e-06
1.04072e-05
-3.02271e-06
3.13595e-06
1.02914e-05
-2.9507e-06
3.06643e-06
1.0176e-05
-2.85538e-06
2.97079e-06
1.00638e-05
-2.73456e-06
2.84684e-06
9.95718e-06
-2.5857e-06
2.69227e-06
9.85852e-06
-2.40679e-06
2.50545e-06
9.76953e-06
-2.19697e-06
2.28595e-06
9.69154e-06
-1.95682e-06
2.03482e-06
9.62547e-06
-1.6884e-06
1.75448e-06
9.57192e-06
-1.39502e-06
1.44857e-06
9.53121e-06
-1.08094e-06
1.12165e-06
9.50338e-06
-7.51074e-07
7.78908e-07
9.48811e-06
-4.10832e-07
4.26098e-07
9.4846e-06
-6.6252e-08
6.97683e-08
9.49177e-06
2.76018e-07
-2.8319e-07
9.50841e-06
6.11153e-07
-6.27795e-07
9.53318e-06
9.34698e-07
-9.5947e-07
9.56461e-06
1.24237e-06
-1.27379e-06
9.60113e-06
1.5301e-06
-1.56662e-06
9.6412e-06
1.79409e-06
-1.83416e-06
9.6835e-06
2.03121e-06
-2.07352e-06
9.72676e-06
2.23878e-06
-2.28204e-06
9.76979e-06
2.41459e-06
-2.45762e-06
9.8116e-06
2.557e-06
-2.5988e-06
9.85143e-06
2.66504e-06
-2.70488e-06
9.8889e-06
2.73859e-06
-2.77606e-06
9.92424e-06
2.77843e-06
-2.81378e-06
9.95892e-06
2.78106e-06
-2.81573e-06
9.99259e-06
2.73697e-06
-2.77064e-06
1.0024e-05
2.64479e-06
-2.67615e-06
1.00533e-05
2.50618e-06
-2.53555e-06
1.00812e-05
2.32346e-06
-2.35133e-06
1.01081e-05
2.09949e-06
-2.12636e-06
1.01343e-05
1.83803e-06
-1.86432e-06
1.01604e-05
1.54378e-06
-1.56987e-06
1.01866e-05
1.22247e-06
-1.24867e-06
1.02131e-05
8.80906e-07
-9.07419e-07
1.02399e-05
5.27294e-07
-5.54094e-07
1.02665e-05
1.72461e-07
-1.99012e-07
1.02922e-05
-1.7466e-07
1.48989e-07
1.03162e-05
-5.07158e-07
4.8316e-07
1.03376e-05
-8.18855e-07
7.9742e-07
1.03556e-05
-1.10458e-06
1.08662e-06
1.03691e-05
-1.36038e-06
1.34679e-06
1.03776e-05
-1.58365e-06
1.57519e-06
1.03803e-05
-1.77311e-06
1.7704e-06
1.03769e-05
-1.92869e-06
1.9321e-06
1.03672e-05
-2.05136e-06
2.06102e-06
1.03515e-05
-2.14289e-06
2.15862e-06
1.03302e-05
-2.20563e-06
2.22691e-06
1.03041e-05
-2.24205e-06
2.26823e-06
1.02723e-05
-2.25264e-06
2.28435e-06
1.02354e-05
-2.23596e-06
2.27288e-06
1.01954e-05
-2.19387e-06
2.2339e-06
1.01545e-05
-2.12762e-06
2.16853e-06
1.01149e-05
-2.03786e-06
2.07744e-06
1.00787e-05
-1.92487e-06
1.96106e-06
1.00478e-05
-1.78877e-06
1.81972e-06
1.00237e-05
-1.62989e-06
1.654e-06
1.00076e-05
-1.44903e-06
1.46508e-06
1.00004e-05
-1.24764e-06
1.25481e-06
1.00026e-05
-1.02789e-06
1.02575e-06
1.00141e-05
-7.92649e-07
7.81139e-07
1.00347e-05
-5.45368e-07
5.24779e-07
1.00637e-05
-2.90025e-07
2.60984e-07
1.01001e-05
-3.1258e-08
-5.16079e-09
1.01428e-05
2.25576e-07
-2.68264e-07
1.01908e-05
4.76512e-07
-5.24489e-07
1.0243e-05
7.18078e-07
-7.7032e-07
1.02985e-05
9.4704e-07
-1.00252e-06
1.03562e-05
1.16045e-06
-1.21816e-06
1.04152e-05
1.35572e-06
-1.4147e-06
1.04746e-05
1.53065e-06
-1.59007e-06
1.05338e-05
1.68347e-06
-1.74261e-06
1.0592e-05
1.8128e-06
-1.87107e-06
1.0649e-05
1.91773e-06
-1.97467e-06
1.07043e-05
1.99782e-06
-2.05312e-06
1.07578e-05
2.05306e-06
-2.10663e-06
1.081e-05
2.0832e-06
-2.13536e-06
1.08609e-05
2.0852e-06
-2.13606e-06
1.091e-05
2.05537e-06
-2.1045e-06
1.09569e-05
1.99308e-06
-2.04004e-06
1.10014e-05
1.89875e-06
-1.94319e-06
1.1043e-05
1.77337e-06
-1.81499e-06
1.10815e-05
1.61848e-06
-1.65701e-06
1.11167e-05
1.43623e-06
-1.47135e-06
1.1148e-05
1.22933e-06
-1.2607e-06
1.11753e-05
1.00111e-06
-1.02835e-06
1.1198e-05
7.55519e-07
-7.78228e-07
1.12157e-05
4.97203e-07
-5.14954e-07
1.12279e-05
2.31856e-07
-2.44058e-07
1.12339e-05
-3.31557e-08
2.7136e-08
1.12333e-05
-2.92278e-07
2.92886e-07
1.12257e-05
-5.41029e-07
5.48675e-07
1.12107e-05
-7.7548e-07
7.90492e-07
1.11881e-05
-9.92367e-07
1.01496e-06
-1.18916e-06
1.21938e-06
9.57063e-06
-1.24582e-07
9.60898e-06
3.34899e-07
9.67033e-06
7.86861e-07
9.74954e-06
1.22034e-06
9.84184e-06
1.62677e-06
9.9426e-06
2.00041e-06
1.00475e-05
2.33795e-06
1.0153e-05
2.63793e-06
1.02566e-05
2.90021e-06
1.03566e-05
3.12537e-06
1.04522e-05
3.31432e-06
1.05425e-05
3.4679e-06
1.06272e-05
3.58677e-06
1.07067e-05
3.67113e-06
1.07829e-05
3.71954e-06
1.08584e-05
3.72398e-06
1.0933e-05
3.672e-06
1.10055e-05
3.55589e-06
1.10757e-05
3.37115e-06
1.11432e-05
3.11567e-06
1.12071e-05
2.78992e-06
1.12666e-05
2.39749e-06
1.13206e-05
1.94543e-06
1.13683e-05
1.44449e-06
1.14084e-05
9.09769e-07
1.14392e-05
3.6293e-07
1.14595e-05
-1.72087e-07
1.1468e-05
-6.79801e-07
1.14641e-05
-1.14735e-06
1.14471e-05
-1.56515e-06
1.14172e-05
-1.92723e-06
1.13748e-05
-2.23114e-06
1.13204e-05
-2.4776e-06
1.1255e-05
-2.66979e-06
1.11793e-05
-2.81252e-06
1.1094e-05
-2.91123e-06
1.09991e-05
-2.97054e-06
1.08949e-05
-2.99396e-06
1.07828e-05
-2.98648e-06
1.06644e-05
-2.95398e-06
1.05419e-05
-2.90018e-06
1.04176e-05
-2.82647e-06
1.02944e-05
-2.73217e-06
1.01751e-05
-2.61519e-06
1.00622e-05
-2.47285e-06
9.95823e-06
-2.3028e-06
9.86495e-06
-2.10369e-06
9.78371e-06
-1.87559e-06
9.71538e-06
-1.62007e-06
9.66042e-06
-1.34006e-06
9.61898e-06
-1.0395e-06
9.59093e-06
-7.23027e-07
9.57584e-06
-3.95741e-07
9.57288e-06
-6.32851e-08
9.58094e-06
2.67953e-07
9.59896e-06
5.93137e-07
9.6257e-06
9.07954e-07
9.65982e-06
1.20825e-06
9.69988e-06
1.49004e-06
9.74439e-06
1.74958e-06
9.79202e-06
1.98359e-06
9.84154e-06
2.18927e-06
9.89184e-06
2.36429e-06
9.94196e-06
2.50687e-06
9.99117e-06
2.61583e-06
1.0039e-05
2.69079e-06
1.00854e-05
2.73196e-06
1.01315e-05
2.735e-06
1.01765e-05
2.69198e-06
1.02195e-05
2.60175e-06
1.02604e-05
2.46531e-06
1.02992e-05
2.28465e-06
1.03361e-05
2.0626e-06
1.03713e-05
1.80288e-06
1.04048e-05
1.51021e-06
1.04369e-05
1.19036e-06
1.04676e-05
8.50234e-07
1.04967e-05
4.98206e-07
1.05236e-05
1.45532e-07
1.05478e-05
-1.98841e-07
1.05685e-05
-5.27892e-07
1.05851e-05
-8.35399e-07
1.05967e-05
-1.11622e-06
1.06028e-05
-1.36649e-06
1.06029e-05
-1.58373e-06
1.05966e-05
-1.76683e-06
1.05839e-05
-1.91593e-06
1.05648e-05
-2.03227e-06
1.05397e-05
-2.11787e-06
1.05093e-05
-2.17521e-06
1.04736e-05
-2.20636e-06
1.04321e-05
-2.21114e-06
1.03861e-05
-2.1899e-06
1.03372e-05
-2.14501e-06
1.02875e-05
-2.07794e-06
1.02391e-05
-1.98947e-06
1.01941e-05
-1.87986e-06
1.01545e-05
-1.74913e-06
1.0122e-05
-1.59735e-06
1.00979e-05
-1.42499e-06
1.00834e-05
-1.23309e-06
1.00789e-05
-1.02342e-06
1.00847e-05
-7.98418e-07
1.01005e-05
-5.61179e-07
1.01258e-05
-3.15322e-07
1.01596e-05
-6.50533e-08
1.02006e-05
1.84501e-07
1.0248e-05
4.29132e-07
1.03007e-05
6.65417e-07
1.03576e-05
8.90132e-07
1.04177e-05
1.10031e-06
1.04801e-05
1.29331e-06
1.05439e-05
1.46685e-06
1.06084e-05
1.61903e-06
1.06728e-05
1.74838e-06
1.07366e-05
1.85387e-06
1.07995e-05
1.93492e-06
1.08613e-05
1.9913e-06
1.0922e-05
2.0225e-06
1.09815e-05
2.02567e-06
1.10393e-05
1.99757e-06
1.10948e-05
1.9376e-06
1.11475e-05
1.84609e-06
1.11968e-05
1.72402e-06
1.12424e-05
1.57293e-06
1.12836e-05
1.39496e-06
1.13201e-05
1.19286e-06
1.13513e-05
9.69952e-07
1.13766e-05
7.30179e-07
1.13956e-05
4.7818e-07
1.14077e-05
2.19774e-07
1.14122e-05
-3.77004e-08
1.14089e-05
-2.88905e-07
1.13973e-05
-5.29435e-07
1.13773e-05
-7.55473e-07
1.13488e-05
-9.63902e-07
-1.15235e-06
9.57374e-06
-1.32186e-07
9.60931e-06
2.99329e-07
9.6686e-06
7.27571e-07
9.74711e-06
1.14184e-06
9.84024e-06
1.53364e-06
9.94365e-06
1.89699e-06
1.00534e-05
2.22815e-06
1.01664e-05
2.52501e-06
1.02799e-05
2.78666e-06
1.03923e-05
3.01302e-06
1.05022e-05
3.20438e-06
1.06089e-05
3.36116e-06
1.07123e-05
3.48347e-06
1.08126e-05
3.57079e-06
1.09114e-05
3.62069e-06
1.10103e-05
3.6251e-06
1.11088e-05
3.57356e-06
1.12055e-05
3.45914e-06
1.12994e-05
3.27726e-06
1.13893e-05
3.02583e-06
1.14736e-05
2.70554e-06
1.15509e-05
2.32024e-06
1.16192e-05
1.87707e-06
1.16771e-05
1.38666e-06
1.17229e-05
8.63965e-07
1.17548e-05
3.3101e-07
1.17719e-05
-1.8921e-07
1.17737e-05
-6.81544e-07
1.17599e-05
-1.13356e-06
1.17309e-05
-1.53613e-06
1.16873e-05
-1.88367e-06
1.16302e-05
-2.17402e-06
1.15607e-05
-2.40811e-06
1.14802e-05
-2.58926e-06
1.13899e-05
-2.72221e-06
1.12906e-05
-2.81198e-06
1.11828e-05
-2.86272e-06
1.10671e-05
-2.87826e-06
1.09449e-05
-2.86433e-06
1.08178e-05
-2.82687e-06
1.06875e-05
-2.76989e-06
1.05562e-05
-2.69518e-06
1.04265e-05
-2.60244e-06
1.03011e-05
-2.48978e-06
1.01827e-05
-2.35451e-06
1.0074e-05
-2.194e-06
9.97671e-06
-2.00644e-06
9.89244e-06
-1.79132e-06
9.82204e-06
-1.54967e-06
9.76589e-06
-1.28391e-06
9.72399e-06
-9.97606e-07
9.69607e-06
-6.9511e-07
9.68159e-06
-3.81261e-07
9.67964e-06
-6.13361e-08
9.68909e-06
2.585e-07
9.70894e-06
5.73296e-07
9.73803e-06
8.78859e-07
9.77514e-06
1.17113e-06
9.81896e-06
1.44622e-06
9.86812e-06
1.70042e-06
9.92132e-06
1.93039e-06
9.97739e-06
2.1332e-06
1.00353e-05
2.3064e-06
1.00941e-05
2.44809e-06
1.01529e-05
2.55695e-06
1.02113e-05
2.63243e-06
1.02691e-05
2.67412e-06
1.03269e-05
2.67723e-06
1.03837e-05
2.63513e-06
1.04388e-05
2.54673e-06
1.04914e-05
2.41264e-06
1.05415e-05
2.23462e-06
1.05887e-05
2.01539e-06
1.06329e-05
1.75864e-06
1.06741e-05
1.46907e-06
1.0712e-05
1.15242e-06
1.07466e-05
8.15628e-07
1.07776e-05
4.67257e-07
1.08043e-05
1.1882e-07
1.08262e-05
-2.2078e-07
1.08428e-05
-5.44481e-07
1.08535e-05
-8.46086e-07
1.08578e-05
-1.12054e-06
1.08554e-05
-1.3641e-06
1.08461e-05
-1.57445e-06
1.083e-05
-1.75066e-06
1.08071e-05
-1.89307e-06
1.07779e-05
-2.00308e-06
1.07429e-05
-2.08286e-06
1.07026e-05
-2.1349e-06
1.0657e-05
-2.1607e-06
1.06058e-05
-2.16003e-06
1.05507e-05
-2.13478e-06
1.04932e-05
-2.08748e-06
1.04351e-05
-2.0198e-06
1.03783e-05
-1.9327e-06
1.0325e-05
-1.82653e-06
1.0277e-05
-1.70123e-06
1.02364e-05
-1.55672e-06
1.02046e-05
-1.39317e-06
1.01828e-05
-1.21125e-06
1.01716e-05
-1.0123e-06
1.01716e-05
-7.98344e-07
1.01824e-05
-5.72055e-07
1.02038e-05
-3.36679e-07
1.02348e-05
-9.6016e-08
1.0274e-05
1.45241e-07
1.03206e-05
3.82574e-07
1.03734e-05
6.12592e-07
1.04315e-05
8.32079e-07
1.04937e-05
1.03806e-06
1.05592e-05
1.22783e-06
1.0627e-05
1.39904e-06
1.06963e-05
1.54971e-06
1.07664e-05
1.67826e-06
1.08368e-05
1.78357e-06
1.09068e-05
1.86491e-06
1.09762e-05
1.92189e-06
1.10449e-05
1.9538e-06
1.11125e-05
1.95801e-06
1.11785e-05
1.93165e-06
1.12419e-05
1.87414e-06
1.13022e-05
1.78579e-06
1.13587e-05
1.66755e-06
1.14107e-05
1.52094e-06
1.14575e-05
1.34811e-06
1.14986e-05
1.15181e-06
1.15332e-05
9.35369e-07
1.15606e-05
7.02684e-07
1.15805e-05
4.5835e-07
1.1592e-05
2.08247e-07
1.15947e-05
-4.03817e-08
1.15882e-05
-2.82444e-07
1.15724e-05
-5.1365e-07
1.15473e-05
-7.30317e-07
1.15129e-05
-9.29486e-07
-1.10897e-06
9.59579e-06
-1.34591e-07
9.62809e-06
2.67026e-07
9.68457e-06
6.7109e-07
9.76141e-06
1.065e-06
9.85442e-06
1.44062e-06
9.95959e-06
1.79182e-06
1.00733e-05
2.11443e-06
1.01925e-05
2.40581e-06
1.03147e-05
2.66446e-06
1.0438e-05
2.8897e-06
1.05611e-05
3.08128e-06
1.06832e-05
3.23907e-06
1.0804e-05
3.36266e-06
1.09239e-05
3.45092e-06
1.10439e-05
3.50066e-06
1.11649e-05
3.50415e-06
1.12859e-05
3.45257e-06
1.14054e-05
3.3396e-06
1.15218e-05
3.16086e-06
1.16331e-05
2.91451e-06
1.1737e-05
2.60167e-06
1.18308e-05
2.22639e-06
1.19122e-05
1.79569e-06
1.1979e-05
1.31984e-06
1.20296e-05
8.13445e-07
1.20619e-05
2.98645e-07
1.20755e-05
-2.02833e-07
1.20704e-05
-6.76354e-07
1.20469e-05
-1.11006e-06
1.2006e-05
-1.49533e-06
1.19493e-05
-1.82698e-06
1.18785e-05
-2.10314e-06
1.17952e-05
-2.3248e-06
1.17011e-05
-2.49519e-06
1.15977e-05
-2.61881e-06
1.1486e-05
-2.70032e-06
1.13669e-05
-2.74362e-06
1.12415e-05
-2.75279e-06
1.1111e-05
-2.73384e-06
1.09767e-05
-2.69265e-06
1.08403e-05
-2.63343e-06
1.07035e-05
-2.55837e-06
1.05686e-05
-2.46759e-06
1.04384e-05
-2.35954e-06
1.03155e-05
-2.23163e-06
1.02026e-05
-2.08107e-06
1.01018e-05
-1.90563e-06
1.00147e-05
-1.70425e-06
9.94234e-06
-1.47731e-06
9.88511e-06
-1.22667e-06
9.84293e-06
-9.55431e-07
9.81541e-06
-6.6759e-07
9.80187e-06
-3.67725e-07
9.80137e-06
-6.0831e-08
9.81264e-06
2.47227e-07
9.83472e-06
5.51223e-07
9.86652e-06
8.47052e-07
9.90693e-06
1.13073e-06
9.95475e-06
1.39841e-06
1.00087e-05
1.64642e-06
1.00677e-05
1.87141e-06
1.01306e-05
2.07035e-06
1.01963e-05
2.24072e-06
1.02638e-05
2.38051e-06
1.03325e-05
2.48833e-06
1.04015e-05
2.56343e-06
1.04707e-05
2.60485e-06
1.05403e-05
2.60763e-06
1.06092e-05
2.56625e-06
1.06763e-05
2.47961e-06
1.07409e-05
2.34811e-06
1.08022e-05
2.17332e-06
1.08597e-05
1.95786e-06
1.0913e-05
1.70536e-06
1.09616e-05
1.42047e-06
1.10051e-05
1.10887e-06
1.10433e-05
7.77439e-07
1.10756e-05
4.34914e-07
1.11015e-05
9.29198e-08
1.11205e-05
-2.39776e-07
1.11322e-05
-5.56139e-07
1.11362e-05
-8.50067e-07
1.11323e-05
-1.11666e-06
1.11206e-05
-1.35235e-06
1.11011e-05
-1.55501e-06
1.10743e-05
-1.72388e-06
1.10407e-05
-1.85947e-06
1.10009e-05
-1.9633e-06
1.09556e-05
-2.03754e-06
1.09051e-05
-2.08442e-06
1.08495e-05
-2.10502e-06
1.07891e-05
-2.09969e-06
1.07254e-05
-2.07107e-06
1.06597e-05
-2.0218e-06
1.05937e-05
-1.95378e-06
1.05292e-05
-1.86817e-06
1.04681e-05
-1.76544e-06
1.04125e-05
-1.64559e-06
1.03642e-05
-1.50843e-06
1.03249e-05
-1.35389e-06
1.0296e-05
-1.18231e-06
1.02783e-05
-9.94605e-07
1.02723e-05
-7.9237e-07
1.02781e-05
-5.77853e-07
1.02953e-05
-3.53894e-07
1.03232e-05
-1.23893e-07
1.03604e-05
1.07993e-07
1.04059e-05
3.37075e-07
1.04586e-05
5.59872e-07
1.05175e-05
7.73185e-07
1.05816e-05
9.74026e-07
1.06497e-05
1.15966e-06
1.07211e-05
1.32767e-06
1.07948e-05
1.47599e-06
1.08701e-05
1.60297e-06
1.09463e-05
1.70738e-06
1.10228e-05
1.7884e-06
1.10992e-05
1.84548e-06
1.11752e-05
1.87779e-06
1.12503e-05
1.88292e-06
1.13237e-05
1.85833e-06
1.13943e-05
1.80345e-06
1.14616e-05
1.71856e-06
1.15245e-05
1.6046e-06
1.15824e-05
1.46311e-06
1.16342e-05
1.29624e-06
1.16793e-05
1.10674e-06
1.17167e-05
8.97929e-07
1.17458e-05
6.73637e-07
1.17658e-05
4.38354e-07
1.17761e-05
1.97912e-07
1.17764e-05
-4.0624e-08
1.17664e-05
-2.7243e-07
1.17461e-05
-4.93358e-07
1.17156e-05
-6.99889e-07
1.16754e-05
-8.89219e-07
-1.0593e-06
9.63225e-06
-1.30186e-07
9.65956e-06
2.39716e-07
9.71288e-06
6.17771e-07
9.78767e-06
9.90206e-07
9.88007e-06
1.34823e-06
9.98633e-06
1.68556e-06
1.01031e-05
1.99765e-06
1.02275e-05
2.28141e-06
1.03571e-05
2.53484e-06
1.04901e-05
2.75673e-06
1.06251e-05
2.94632e-06
1.07611e-05
3.10298e-06
1.0898e-05
3.22582e-06
1.10357e-05
3.31317e-06
1.11751e-05
3.36131e-06
1.13162e-05
3.36302e-06
1.14579e-05
3.31085e-06
1.15984e-05
3.19911e-06
1.17353e-05
3.02395e-06
1.18658e-05
2.78405e-06
1.19867e-05
2.48074e-06
1.2095e-05
2.11808e-06
1.21878e-05
1.70297e-06
1.22623e-05
1.24524e-06
1.23168e-05
7.59028e-07
1.23492e-05
2.66206e-07
1.23594e-05
-2.13046e-07
1.23478e-05
-6.64762e-07
1.23155e-05
-1.07776e-06
1.22642e-05
-1.44397e-06
1.21958e-05
-1.75861e-06
1.21127e-05
-2.02002e-06
1.20171e-05
-2.22922e-06
1.19112e-05
-2.38924e-06
1.17966e-05
-2.50422e-06
1.16747e-05
-2.57841e-06
1.15466e-05
-2.61555e-06
1.14136e-05
-2.61986e-06
1.1277e-05
-2.59723e-06
1.11378e-05
-2.55341e-06
1.09971e-05
-2.49276e-06
1.08566e-05
-2.41784e-06
1.07182e-05
-2.32924e-06
1.05845e-05
-2.22581e-06
1.04581e-05
-2.10523e-06
1.03417e-05
-1.96469e-06
1.02378e-05
-1.80165e-06
1.0148e-05
-1.61451e-06
1.00737e-05
-1.40299e-06
1.00153e-05
-1.1683e-06
9.97286e-06
-9.12956e-07
9.94581e-06
-6.40542e-07
9.93341e-06
-3.55324e-07
9.93464e-06
-6.2056e-08
9.94808e-06
2.33778e-07
9.97273e-06
5.26582e-07
1.00076e-05
8.12226e-07
1.00515e-05
1.08676e-06
1.01035e-05
1.34638e-06
1.01625e-05
1.58744e-06
1.02274e-05
1.80656e-06
1.0297e-05
2.00069e-06
1.03705e-05
2.16725e-06
1.04468e-05
2.3042e-06
1.0525e-05
2.41008e-06
1.06045e-05
2.48394e-06
1.0685e-05
2.52434e-06
1.07663e-05
2.52641e-06
1.0847e-05
2.48556e-06
1.09259e-05
2.4007e-06
1.10019e-05
2.27208e-06
1.10741e-05
2.10113e-06
1.11416e-05
1.89039e-06
1.12035e-05
1.64343e-06
1.12591e-05
1.36482e-06
1.13078e-05
1.06016e-06
1.13491e-05
7.36219e-07
1.13822e-05
4.01801e-07
1.14066e-05
6.85236e-08
1.14219e-05
-2.55097e-07
1.14279e-05
-5.62147e-07
1.14245e-05
-8.46704e-07
1.14119e-05
-1.10407e-06
1.13905e-05
-1.33089e-06
1.13607e-05
-1.5252e-06
1.13232e-05
-1.6864e-06
1.12788e-05
-1.81509e-06
1.12284e-05
-1.91284e-06
1.11726e-05
-1.98178e-06
1.1112e-05
-2.02381e-06
1.10467e-05
-2.03974e-06
1.09776e-05
-2.03061e-06
1.09059e-05
-1.99936e-06
1.08328e-05
-1.94867e-06
1.07597e-05
-1.88065e-06
1.06882e-05
-1.79668e-06
1.06201e-05
-1.69742e-06
1.05575e-05
-1.58297e-06
1.05022e-05
-1.45312e-06
1.0456e-05
-1.30764e-06
1.04202e-05
-1.14658e-06
1.03961e-05
-9.7048e-07
1.03842e-05
-7.80506e-07
1.03849e-05
-5.78468e-07
1.03977e-05
-3.66779e-07
1.04223e-05
-1.48411e-07
1.04573e-05
7.30032e-08
1.05014e-05
2.92909e-07
1.05537e-05
5.07566e-07
1.06131e-05
7.13805e-07
1.06785e-05
9.08627e-07
1.07489e-05
1.08927e-06
1.08233e-05
1.25325e-06
1.09009e-05
1.39845e-06
1.09807e-05
1.52313e-06
1.10621e-05
1.626e-06
1.11443e-05
1.70614e-06
1.12269e-05
1.76288e-06
1.13094e-05
1.79532e-06
1.13911e-05
1.80123e-06
1.1471e-05
1.77839e-06
1.15482e-05
1.72623e-06
1.16217e-05
1.64507e-06
1.16905e-05
1.53586e-06
1.17534e-05
1.40017e-06
1.18095e-05
1.24013e-06
1.18578e-05
1.05848e-06
1.18973e-05
8.58429e-07
1.19272e-05
6.43729e-07
1.19468e-05
4.18754e-07
1.19555e-05
1.89206e-07
1.1953e-05
-3.81094e-08
1.19392e-05
-2.5865e-07
1.19143e-05
-4.68445e-07
1.18786e-05
-6.6416e-07
1.18325e-05
-8.43163e-07
-1.00355e-06
9.67843e-06
-1.17811e-07
9.69969e-06
2.18455e-07
9.74923e-06
5.68231e-07
9.82159e-06
9.17846e-07
9.91294e-06
1.25688e-06
1.00197e-05
1.57876e-06
1.01388e-05
1.87856e-06
1.02675e-05
2.15278e-06
1.04033e-05
2.39896e-06
1.05446e-05
2.61543e-06
1.069e-05
2.80097e-06
1.08385e-05
2.95451e-06
1.09896e-05
3.07473e-06
1.11432e-05
3.15952e-06
1.12997e-05
3.20481e-06
1.14587e-05
3.20401e-06
1.16187e-05
3.15084e-06
1.17774e-05
3.04044e-06
1.19317e-05
2.86964e-06
1.20783e-05
2.63748e-06
1.22136e-05
2.34545e-06
1.2334e-05
1.99766e-06
1.24362e-05
1.6008e-06
1.25171e-05
1.16426e-06
1.25746e-05
7.01524e-07
1.26069e-05
2.33939e-07
1.2614e-05
-2.20186e-07
1.25969e-05
-6.47649e-07
1.25572e-05
-1.03805e-06
1.24971e-05
-1.38388e-06
1.24192e-05
-1.68071e-06
1.23262e-05
-1.92704e-06
1.22208e-05
-2.12381e-06
1.21054e-05
-2.27379e-06
1.19819e-05
-2.38074e-06
1.1852e-05
-2.44854e-06
1.17173e-05
-2.48079e-06
1.15791e-05
-2.4817e-06
1.14387e-05
-2.4568e-06
1.12968e-05
-2.41153e-06
1.11543e-05
-2.35024e-06
1.10123e-05
-2.2758e-06
1.08724e-05
-2.18934e-06
1.07368e-05
-2.09028e-06
1.06083e-05
-1.97666e-06
1.04894e-05
-1.84581e-06
1.03828e-05
-1.69503e-06
1.02905e-05
-1.52228e-06
1.02142e-05
-1.32663e-06
1.01544e-05
-1.10855e-06
1.01114e-05
-8.69927e-07
1.00846e-05
-6.13781e-07
1.00733e-05
-3.44001e-07
1.00763e-05
-6.50538e-08
1.00921e-05
2.17949e-07
1.01195e-05
4.9917e-07
1.01576e-05
7.74202e-07
1.02052e-05
1.0391e-06
1.02615e-05
1.29008e-06
1.03255e-05
1.52349e-06
1.03961e-05
1.73595e-06
1.04724e-05
1.92441e-06
1.05533e-05
2.08629e-06
1.0638e-05
2.21952e-06
1.07255e-05
2.32262e-06
1.0815e-05
2.39447e-06
1.09061e-05
2.43321e-06
1.09983e-05
2.43423e-06
1.10901e-05
2.39373e-06
1.11802e-05
2.31063e-06
1.12671e-05
2.1851e-06
1.13498e-05
2.01851e-06
1.14268e-05
1.81338e-06
1.14969e-05
1.57327e-06
1.15591e-05
1.30267e-06
1.16123e-05
1.00699e-06
1.16557e-05
6.92786e-07
1.16887e-05
3.68813e-07
1.17107e-05
4.65055e-08
1.17216e-05
-2.65957e-07
1.17213e-05
-5.61852e-07
1.17101e-05
-8.35496e-07
1.16884e-05
-1.08242e-06
1.1657e-05
-1.29951e-06
1.16168e-05
-1.48497e-06
1.15687e-05
-1.63833e-06
1.15139e-05
-1.76023e-06
1.14532e-05
-1.8522e-06
1.13876e-05
-1.91618e-06
1.13176e-05
-1.95381e-06
1.12437e-05
-1.96585e-06
1.11669e-05
-1.95379e-06
1.10882e-05
-1.92059e-06
1.10085e-05
-1.86901e-06
1.09292e-05
-1.80133e-06
1.08517e-05
-1.71916e-06
1.07776e-05
-1.62338e-06
1.07089e-05
-1.51425e-06
1.06474e-05
-1.39159e-06
1.05948e-05
-1.25508e-06
1.05528e-05
-1.10456e-06
1.05226e-05
-9.4024e-07
1.05049e-05
-7.62875e-07
1.05003e-05
-5.73847e-07
1.05087e-05
-3.75139e-07
1.05295e-05
-1.69285e-07
1.05619e-05
4.05927e-08
1.06045e-05
2.50398e-07
1.0656e-05
4.5604e-07
1.07154e-05
6.54358e-07
1.07817e-05
8.42341e-07
1.08538e-05
1.0172e-06
1.09306e-05
1.1764e-06
1.10113e-05
1.31778e-06
1.10949e-05
1.43954e-06
1.11806e-05
1.54028e-06
1.12677e-05
1.61901e-06
1.13557e-05
1.67497e-06
1.14438e-05
1.70721e-06
1.15312e-05
1.71377e-06
1.16169e-05
1.69268e-06
1.16997e-05
1.64346e-06
1.17784e-05
1.56642e-06
1.18517e-05
1.46251e-06
1.19186e-05
1.33327e-06
1.19779e-05
1.18085e-06
1.20285e-05
1.00791e-06
1.20693e-05
8.17614e-07
1.20994e-05
6.13564e-07
1.21182e-05
3.99996e-07
1.2125e-05
1.82436e-07
1.21196e-05
-3.26935e-08
1.2102e-05
-2.41113e-07
1.20726e-05
-4.39063e-07
1.20319e-05
-6.23408e-07
1.19804e-05
-7.91696e-07
-9.42169e-07
9.73174e-06
-9.54463e-08
9.74533e-06
2.04864e-07
9.78982e-06
5.23748e-07
9.85923e-06
8.48428e-07
9.94907e-06
1.16704e-06
1.00559e-05
1.47196e-06
1.01765e-05
1.75788e-06
1.03085e-05
2.02083e-06
1.04495e-05
2.25796e-06
1.05978e-05
2.46715e-06
1.07519e-05
2.6468e-06
1.0911e-05
2.79545e-06
1.10743e-05
2.91142e-06
1.12416e-05
2.99223e-06
1.14127e-05
3.03368e-06
1.15869e-05
3.02988e-06
1.1762e-05
2.97568e-06
1.19354e-05
2.86704e-06
1.21037e-05
2.70136e-06
1.22632e-05
2.47804e-06
1.24098e-05
2.1988e-06
1.25397e-05
1.86775e-06
1.26492e-05
1.49128e-06
1.27352e-05
1.07833e-06
1.27949e-05
6.41753e-07
1.2827e-05
2.0185e-07
1.28317e-05
-2.24857e-07
1.28103e-05
-6.26253e-07
1.2765e-05
-9.92702e-07
1.26983e-05
-1.31726e-06
1.26135e-05
-1.59583e-06
1.25134e-05
-1.82697e-06
1.24011e-05
-2.01149e-06
1.22791e-05
-2.15185e-06
1.21498e-05
-2.25138e-06
1.20149e-05
-2.31365e-06
1.18762e-05
-2.34213e-06
1.17354e-05
-2.34084e-06
1.15934e-05
-2.31486e-06
1.14511e-05
-2.26921e-06
1.13089e-05
-2.2081e-06
1.11677e-05
-2.13455e-06
1.10285e-05
-2.05013e-06
1.08931e-05
-1.95491e-06
1.0764e-05
-1.84753e-06
1.06438e-05
-1.72562e-06
1.05353e-05
-1.5865e-06
1.04408e-05
-1.42783e-06
1.03623e-05
-1.2481e-06
1.03008e-05
-1.04707e-06
1.02567e-05
-8.25855e-07
1.02298e-05
-5.86821e-07
1.02191e-05
-3.33353e-07
1.02236e-05
-6.95584e-08
1.02418e-05
1.99817e-07
1.02719e-05
4.68992e-07
1.03132e-05
7.32985e-07
1.03645e-05
9.87803e-07
1.04249e-05
1.22962e-06
1.04936e-05
1.45479e-06
1.05696e-05
1.65993e-06
1.06521e-05
1.842e-06
1.07399e-05
1.99844e-06
1.08322e-05
2.12719e-06
1.09281e-05
2.22674e-06
1.10268e-05
2.29581e-06
1.11277e-05
2.33224e-06
1.12302e-05
2.33181e-06
1.13325e-05
2.29142e-06
1.1433e-05
2.2101e-06
1.15301e-05
2.08801e-06
1.16221e-05
1.92653e-06
1.17073e-05
1.72811e-06
1.17844e-05
1.49623e-06
1.18518e-05
1.23527e-06
1.19083e-05
9.50441e-07
1.19531e-05
6.48022e-07
1.19853e-05
3.36615e-07
1.20045e-05
2.73324e-08
1.20106e-05
-2.72084e-07
1.20039e-05
-5.55177e-07
1.1985e-05
-8.1655e-07
1.19545e-05
-1.05201e-06
1.19137e-05
-1.25865e-06
1.18636e-05
-1.43488e-06
1.18056e-05
-1.58028e-06
1.17408e-05
-1.69551e-06
1.16706e-05
-1.78198e-06
1.15959e-05
-1.84142e-06
1.15173e-05
-1.87526e-06
1.14358e-05
-1.8843e-06
1.13522e-05
-1.87024e-06
1.12675e-05
-1.83589e-06
1.11825e-05
-1.78405e-06
1.10983e-05
-1.71709e-06
1.1016e-05
-1.63686e-06
1.09371e-05
-1.5445e-06
1.08634e-05
-1.4405e-06
1.07966e-05
-1.32479e-06
1.07385e-05
-1.19704e-06
1.06909e-05
-1.05691e-06
1.0655e-05
-9.04332e-07
1.06318e-05
-7.39716e-07
1.0622e-05
-5.64031e-07
1.06257e-05
-3.78826e-07
1.06426e-05
-1.86201e-07
1.0672e-05
1.11995e-08
1.07124e-05
2.09929e-07
1.07627e-05
4.05757e-07
1.08217e-05
5.95371e-07
1.08883e-05
7.75764e-07
1.09614e-05
9.44121e-07
1.10399e-05
1.09788e-06
1.11229e-05
1.23479e-06
1.12094e-05
1.35299e-06
1.12987e-05
1.45104e-06
1.13898e-05
1.52786e-06
1.14821e-05
1.58267e-06
1.15748e-05
1.61454e-06
1.16668e-05
1.62175e-06
1.17569e-05
1.60257e-06
1.18439e-05
1.55652e-06
1.19264e-05
1.48393e-06
1.20031e-05
1.38575e-06
1.20729e-05
1.26353e-06
1.21343e-05
1.11937e-06
1.21863e-05
9.55915e-07
1.22277e-05
7.76208e-07
1.22576e-05
5.83721e-07
1.22751e-05
3.82494e-07
1.22797e-05
1.7783e-07
1.22713e-05
-2.43305e-08
1.22502e-05
-2.19959e-07
1.22166e-05
-4.05527e-07
1.21713e-05
-5.78112e-07
1.21151e-05
-7.35443e-07
-8.75901e-07
9.79127e-06
-6.03829e-08
9.79473e-06
2.01397e-07
9.832e-06
4.86477e-07
9.89728e-06
7.83155e-07
9.98489e-06
1.07943e-06
1.0091e-05
1.36584e-06
1.02126e-05
1.63632e-06
1.03469e-05
1.88646e-06
1.04919e-05
2.11295e-06
1.06458e-05
2.31328e-06
1.08072e-05
2.48547e-06
1.09749e-05
2.62773e-06
1.11482e-05
2.73806e-06
1.13267e-05
2.81375e-06
1.15097e-05
2.85067e-06
1.16959e-05
2.84374e-06
1.18828e-05
2.78875e-06
1.20674e-05
2.68238e-06
1.22463e-05
2.52255e-06
1.24152e-05
2.30909e-06
1.25701e-05
2.04394e-06
1.27067e-05
1.73112e-06
1.28213e-05
1.37669e-06
1.29106e-05
9.89024e-07
1.29719e-05
5.80447e-07
1.30038e-05
1.69922e-07
1.30069e-05
-2.27881e-07
1.29827e-05
-6.02056e-07
1.29338e-05
-9.43815e-07
1.28632e-05
-1.2467e-06
1.27742e-05
-1.50686e-06
1.26702e-05
-1.72289e-06
1.25541e-05
-1.89544e-06
1.24288e-05
-2.02659e-06
1.22968e-05
-2.11931e-06
1.216e-05
-2.17684e-06
1.20203e-05
-2.2025e-06
1.18795e-05
-2.20004e-06
1.17386e-05
-2.17397e-06
1.15983e-05
-2.12884e-06
1.14588e-05
-2.06861e-06
1.13206e-05
-1.99633e-06
1.11844e-05
-1.9139e-06
1.10514e-05
-1.82195e-06
1.09237e-05
-1.7198e-06
1.08037e-05
-1.60567e-06
1.06943e-05
-1.4771e-06
1.05981e-05
-1.33164e-06
1.05174e-05
-1.16737e-06
1.04537e-05
-9.83386e-07
1.04078e-05
-7.80002e-07
1.03798e-05
-5.58823e-07
1.03691e-05
-3.2258e-07
1.03744e-05
-7.48893e-08
1.03943e-05
1.79901e-07
1.04269e-05
4.36382e-07
1.0471e-05
6.88891e-07
1.05256e-05
9.3321e-07
1.05898e-05
1.16543e-06
1.06627e-05
1.38186e-06
1.07436e-05
1.5791e-06
1.08314e-05
1.75414e-06
1.09254e-05
1.90443e-06
1.10246e-05
2.02798e-06
1.11281e-05
2.12324e-06
1.12351e-05
2.18886e-06
1.13448e-05
2.22257e-06
1.1456e-05
2.22058e-06
1.15671e-05
2.18034e-06
1.16762e-05
2.10099e-06
1.17814e-05
1.98276e-06
1.1881e-05
1.82702e-06
1.19729e-05
1.63619e-06
1.20554e-05
1.41371e-06
1.21269e-05
1.1638e-06
1.21859e-05
8.91453e-07
1.22312e-05
6.02643e-07
1.22622e-05
3.05692e-07
1.22782e-05
1.12442e-08
1.22796e-05
-2.73481e-07
1.22668e-05
-5.42366e-07
1.22406e-05
-7.90341e-07
1.22021e-05
-1.01351e-06
1.21527e-05
-1.20921e-06
1.20938e-05
-1.37597e-06
1.20269e-05
-1.51344e-06
1.19536e-05
-1.62221e-06
1.18752e-05
-1.70354e-06
1.17927e-05
-1.75893e-06
1.17071e-05
-1.78965e-06
1.16193e-05
-1.79651e-06
1.15303e-05
-1.7812e-06
1.14408e-05
-1.7464e-06
1.13515e-05
-1.69484e-06
1.12635e-05
-1.62901e-06
1.11776e-05
-1.55094e-06
1.10951e-05
-1.46203e-06
1.10176e-05
-1.36298e-06
1.09467e-05
-1.25391e-06
1.08842e-05
-1.13453e-06
1.08317e-05
-1.00445e-06
1.07908e-05
-8.63378e-07
1.07625e-05
-7.11419e-07
1.07476e-05
-5.49167e-07
1.07465e-05
-3.77762e-07
1.07592e-05
-1.98873e-07
1.07851e-05
-1.46794e-08
1.0823e-05
1.71993e-07
1.08715e-05
3.57249e-07
1.09295e-05
5.37435e-07
1.09957e-05
7.09549e-07
1.10691e-05
8.7075e-07
1.11485e-05
1.01843e-06
1.1233e-05
1.1503e-06
1.13215e-05
1.26445e-06
1.14132e-05
1.35937e-06
1.15071e-05
1.43397e-06
1.16024e-05
1.48739e-06
1.16981e-05
1.51877e-06
1.17933e-05
1.52663e-06
1.18864e-05
1.50943e-06
1.19762e-05
1.46674e-06
1.20612e-05
1.39888e-06
1.21401e-05
1.30682e-06
1.22116e-05
1.19208e-06
1.22742e-05
1.05675e-06
1.23268e-05
9.03378e-07
1.2368e-05
7.34935e-07
1.2397e-05
5.54736e-07
1.24129e-05
3.66601e-07
1.24152e-05
1.75513e-07
1.2404e-05
-1.30997e-08
1.23795e-05
-1.9547e-07
1.23423e-05
-3.68311e-07
1.22931e-05
-5.28919e-07
1.22329e-05
-6.75205e-07
-8.05681e-07
9.85786e-06
-9.35618e-09
9.84779e-06
2.11466e-07
9.87479e-06
4.59472e-07
9.93347e-06
7.24472e-07
1.00176e-05
9.95319e-07
1.01221e-05
1.26136e-06
1.02436e-05
1.51481e-06
1.03794e-05
1.75065e-06
1.05273e-05
1.96508e-06
1.06854e-05
2.15518e-06
1.08522e-05
2.31862e-06
1.10267e-05
2.45328e-06
1.12078e-05
2.55692e-06
1.13948e-05
2.62671e-06
1.15867e-05
2.65878e-06
1.17816e-05
2.64885e-06
1.19769e-05
2.59347e-06
1.21694e-05
2.48992e-06
1.23552e-05
2.3367e-06
1.25303e-05
2.13403e-06
1.26902e-05
1.884e-06
1.28308e-05
1.5905e-06
1.29483e-05
1.25919e-06
1.30395e-05
8.97785e-07
1.3102e-05
5.18037e-07
1.31342e-05
1.37676e-07
1.31367e-05
-2.30349e-07
1.31113e-05
-5.76707e-07
1.30612e-05
-8.93673e-07
1.29894e-05
-1.17495e-06
1.28994e-05
-1.41685e-06
1.27946e-05
-1.61803e-06
1.2678e-05
-1.77891e-06
1.25527e-05
-1.90127e-06
1.24211e-05
-1.98769e-06
1.22854e-05
-2.04114e-06
1.21476e-05