/*--------------------------------*- C++ -*----------------------------------*\
| =========                 |                                                 |
| \\      /  F ield         | OpenFOAM: The Open Source CFD Toolbox           |
|  \\    /   O peration     | Version:  2206                                  |
|   \\  /    A nd           | Website:  www.openfoam.com                      |
|    \\/     M anipulation  |                                                 |
\*---------------------------------------------------------------------------*/
FoamFile
{
    version     2.0;
    format      ascii;
    arch        "LSB;label=32;scalar=64";
    class       surfaceScalarField;
    location    "19.8";
    object      phi;
}
// * * * * * * * * * * * * * * * * * * * * * * * * * * * * * * * * * * * * * //

dimensions      [0 3 -1 0 0 0 0];

oriented        oriented;

internalField   nonuniform List<scalar> 
9439
(
3.30874e-07
4.87279e-07
-8.18153e-07
6.54575e-07
3.94038e-07
-7.17739e-07
1.17719e-06
5.04926e-08
-5.73103e-07
1.85376e-06
-4.66096e-07
-2.10476e-07
2.68414e-06
-1.08247e-06
2.52081e-07
3.6057e-06
-1.73736e-06
8.158e-07
4.63284e-06
-2.32701e-06
1.29987e-06
5.75709e-06
-2.75168e-06
1.62743e-06
6.93917e-06
-2.9221e-06
1.74002e-06
8.12057e-06
-2.78603e-06
1.60463e-06
9.24165e-06
-2.34974e-06
1.22866e-06
1.02803e-05
-1.65479e-06
6.16103e-07
1.12424e-05
-7.10945e-07
-2.51157e-07
1.20783e-05
4.96259e-07
-1.33207e-06
1.26843e-05
1.81734e-06
-2.42333e-06
1.30309e-05
3.02876e-06
-3.37545e-06
1.31457e-05
4.02225e-06
-4.13698e-06
1.30788e-05
4.7609e-06
-4.69402e-06
1.28797e-05
5.26012e-06
-5.06103e-06
1.25862e-05
5.55653e-06
-5.26301e-06
1.22294e-05
5.68384e-06
-5.3271e-06
1.1846e-05
5.67096e-06
-5.28752e-06
1.14614e-05
5.56591e-06
-5.18128e-06
1.10899e-05
5.40809e-06
-5.03667e-06
1.07364e-05
5.22531e-06
-4.87177e-06
1.03976e-05
5.03616e-06
-4.69736e-06
1.00691e-05
4.84857e-06
-4.52005e-06
9.74977e-06
4.65993e-06
-4.34062e-06
9.43598e-06
4.46778e-06
-4.15399e-06
9.10863e-06
4.28645e-06
-3.9591e-06
8.7323e-06
4.14997e-06
-3.77363e-06
8.28339e-06
4.08046e-06
-3.63155e-06
7.79264e-06
4.03648e-06
-3.54574e-06
7.34212e-06
3.91288e-06
-3.46236e-06
7.01757e-06
3.60112e-06
-3.27657e-06
6.8688e-06
3.04765e-06
-2.89888e-06
6.8954e-06
2.27879e-06
-2.3054e-06
7.07593e-06
1.35228e-06
-1.53281e-06
7.37367e-06
3.49319e-07
-6.47065e-07
7.73786e-06
-6.32757e-07
2.68572e-07
8.13459e-06
-1.53525e-06
1.13852e-06
8.53803e-06
-2.32706e-06
1.92361e-06
8.92696e-06
-2.99274e-06
2.60381e-06
9.28583e-06
-3.53056e-06
3.17169e-06
9.60469e-06
-3.94906e-06
3.6302e-06
9.87862e-06
-4.26354e-06
3.9896e-06
1.01062e-05
-4.49285e-06
4.2653e-06
1.02873e-05
-4.65722e-06
4.47608e-06
1.04225e-05
-4.77889e-06
4.6437e-06
1.05142e-05
-4.88279e-06
4.79113e-06
1.0569e-05
-4.98884e-06
4.93403e-06
1.05989e-05
-5.1013e-06
5.07141e-06
1.06181e-05
-5.20844e-06
5.1892e-06
1.06352e-05
-5.28787e-06
5.27076e-06
1.06519e-05
-5.32055e-06
5.30389e-06
1.06863e-05
-5.2913e-06
5.25692e-06
1.07397e-05
-5.08899e-06
5.0355e-06
1.08179e-05
-4.7102e-06
4.63209e-06
1.09207e-05
-4.14577e-06
4.0429e-06
1.10451e-05
-3.40252e-06
3.2781e-06
1.11861e-05
-2.50995e-06
2.36903e-06
1.13354e-05
-1.51911e-06
1.36981e-06
1.14794e-05
-5.05233e-07
3.61174e-07
1.16086e-05
4.62536e-07
-5.91681e-07
1.17143e-05
1.34054e-06
-1.44623e-06
1.17904e-05
2.09819e-06
-2.17434e-06
1.18339e-05
2.71966e-06
-2.7631e-06
1.18442e-05
3.20276e-06
-3.21311e-06
1.18236e-05
3.55587e-06
-3.5353e-06
1.17758e-05
3.79473e-06
-3.74692e-06
1.1704e-05
3.9386e-06
-3.86672e-06
1.16082e-05
4.0052e-06
-3.90948e-06
1.14914e-05
4.00699e-06
-3.89011e-06
1.13597e-05
3.96236e-06
-3.83068e-06
1.12172e-05
3.89049e-06
-3.74798e-06
1.10658e-05
3.80503e-06
-3.65367e-06
1.09058e-05
3.71582e-06
-3.55582e-06
1.07362e-05
3.62959e-06
-3.45998e-06
1.0556e-05
3.54985e-06
-3.36969e-06
1.03659e-05
3.47577e-06
-3.28561e-06
1.01691e-05
3.40075e-06
-3.20396e-06
9.97225e-06
3.31222e-06
-3.11539e-06
9.78455e-06
3.19324e-06
-3.00554e-06
9.61613e-06
3.02603e-06
-2.8576e-06
9.47605e-06
2.7963e-06
-2.65623e-06
9.37071e-06
2.49682e-06
-2.39147e-06
9.30335e-06
2.12845e-06
-2.06109e-06
9.27523e-06
1.69863e-06
-1.67051e-06
9.28423e-06
1.22324e-06
-1.23223e-06
9.32531e-06
7.21721e-07
-7.62805e-07
9.39279e-06
2.12398e-07
-2.79875e-07
9.48133e-06
-2.86755e-07
1.98211e-07
9.58569e-06
-7.62823e-07
6.58461e-07
9.7004e-06
-1.20614e-06
1.09144e-06
-1.6101e-06
1.49042e-06
-1.97788e-07
6.85067e-07
-3.01814e-08
2.26431e-07
2.35175e-07
-2.14863e-07
5.80809e-07
-8.1173e-07
1.05378e-06
-1.55544e-06
1.69802e-06
-2.3816e-06
2.53697e-06
-3.16596e-06
3.55926e-06
-3.77396e-06
4.72809e-06
-4.09093e-06
5.97901e-06
-4.03695e-06
7.22582e-06
-3.59655e-06
8.38333e-06
-2.8123e-06
9.40356e-06
-1.73118e-06
1.0286e-05
-3.86181e-07
1.09907e-05
1.11263e-06
1.14999e-05
2.51959e-06
1.18093e-05
3.71283e-06
1.19403e-05
4.62984e-06
1.19287e-05
5.27173e-06
1.18072e-05
5.6781e-06
1.15968e-05
5.89426e-06
1.13265e-05
5.94123e-06
1.10219e-05
5.8705e-06
1.07075e-05
5.7225e-06
1.03951e-05
5.53772e-06
1.00865e-05
5.34471e-06
9.78302e-06
5.15208e-06
9.48388e-06
4.95908e-06
9.17411e-06
4.77756e-06
8.81965e-06
4.64091e-06
8.38958e-06
4.58003e-06
7.90181e-06
4.56823e-06
7.43092e-06
4.50738e-06
7.06566e-06
4.27814e-06
6.86439e-06
3.80239e-06
6.83024e-06
3.08181e-06
6.95689e-06
2.15214e-06
7.22416e-06
1.08501e-06
7.5799e-06
-6.41745e-09
7.98243e-06
-1.03529e-06
8.40153e-06
-1.95435e-06
8.81146e-06
-2.73699e-06
9.19248e-06
-3.37376e-06
9.53126e-06
-3.86934e-06
9.82054e-06
-4.23834e-06
1.00582e-05
-4.50122e-06
1.02458e-05
-4.68039e-06
1.0386e-05
-4.79749e-06
1.04808e-05
-4.87368e-06
1.0533e-05
-4.93493e-06
1.05448e-05
-5.00065e-06
1.05236e-05
-5.08007e-06
1.04852e-05
-5.17013e-06
1.04451e-05
-5.2477e-06
1.04095e-05
-5.28495e-06
1.03736e-05
-5.25547e-06
1.03625e-05
-5.07788e-06
1.03823e-05
-4.72993e-06
1.04333e-05
-4.19685e-06
1.05143e-05
-3.48351e-06
1.06223e-05
-2.61793e-06
1.07515e-05
-1.64835e-06
1.08896e-05
-6.43287e-07
1.10262e-05
3.25903e-07
1.11514e-05
1.21537e-06
1.12567e-05
1.99285e-06
1.13364e-05
2.63999e-06
1.13872e-05
3.15196e-06
1.14088e-05
3.53431e-06
1.1403e-05
3.80054e-06
1.13723e-05
3.96927e-06
1.13179e-05
4.0596e-06
1.12384e-05
4.08645e-06
1.1138e-05
4.06274e-06
1.10214e-05
4.00709e-06
1.08908e-05
3.93563e-06
1.07468e-05
3.85984e-06
1.05891e-05
3.7873e-06
1.0418e-05
3.72097e-06
1.02357e-05
3.65803e-06
1.00475e-05
3.58896e-06
9.86139e-06
3.49835e-06
9.68708e-06
3.36755e-06
9.53419e-06
3.17892e-06
9.41054e-06
2.91996e-06
9.32134e-06
2.58601e-06
9.26901e-06
2.18078e-06
9.25176e-06
1.71588e-06
9.26749e-06
1.2075e-06
9.31503e-06
6.74186e-07
9.38856e-06
1.38864e-07
9.48189e-06
-3.80082e-07
9.5896e-06
-8.7054e-07
9.70616e-06
-1.3227e-06
-1.72993e-06
-3.79389e-07
1.06446e-06
-7.05065e-07
5.52106e-07
-9.35789e-07
1.58611e-08
-1.00123e-06
-7.46289e-07
-8.28965e-07
-1.7277e-06
-4.18493e-07
-2.79208e-06
2.03997e-07
-3.78845e-06
1.01794e-06
-4.5879e-06
2.01348e-06
-5.08647e-06
3.16267e-06
-5.18614e-06
4.41013e-06
-4.84401e-06
5.67972e-06
-4.08189e-06
6.88198e-06
-2.93344e-06
7.94934e-06
-1.45354e-06
8.84962e-06
2.12348e-07
9.56592e-06
1.80329e-06
1.01014e-05
3.17734e-06
1.04644e-05
4.26684e-06
1.06713e-05
5.06485e-06
1.07472e-05
5.60222e-06
1.07268e-05
5.91464e-06
1.0627e-05
6.041e-06
1.04571e-05
6.04045e-06
1.0235e-05
5.94454e-06
9.98915e-06
5.7836e-06
9.73399e-06
5.59988e-06
9.47683e-06
5.40924e-06
9.20823e-06
5.22768e-06
8.89736e-06
5.08842e-06
8.51021e-06
5.02806e-06
8.05382e-06
5.03642e-06
7.59125e-06
5.0308e-06
7.20489e-06
4.89374e-06
6.95485e-06
4.52818e-06
6.85945e-06
3.89779e-06
6.93066e-06
3.01059e-06
7.15969e-06
1.92311e-06
7.5009e-06
7.43794e-07
7.90544e-06
-4.10949e-07
8.3378e-06
-1.46765e-06
8.76799e-06
-2.38454e-06
9.1718e-06
-3.14079e-06
9.53218e-06
-3.73413e-06
9.83913e-06
-4.17629e-06
1.00887e-05
-4.48794e-06
1.02817e-05
-4.69418e-06
1.04217e-05
-4.82041e-06
1.05141e-05
-4.88987e-06
1.05639e-05
-4.92351e-06
1.0574e-05
-4.94506e-06
1.05457e-05
-4.97229e-06
1.0482e-05
-5.01638e-06
1.03928e-05
-5.0809e-06
1.02939e-05
-5.14886e-06
1.01982e-05
-5.18923e-06
1.01042e-05
-5.16145e-06
1.00358e-05
-5.00952e-06
1.00004e-05
-4.69451e-06
1.00011e-05
-4.19752e-06
1.00391e-05
-3.52152e-06
1.01133e-05
-2.69213e-06
1.02195e-05
-1.75459e-06
1.03475e-05
-7.7127e-07
1.0486e-05
1.87456e-07
1.06243e-05
1.07701e-06
1.07528e-05
1.86441e-06
1.08629e-05
2.52984e-06
1.09494e-05
3.06545e-06
1.10094e-05
3.47437e-06
1.10419e-05
3.76799e-06
1.10484e-05
3.96283e-06
1.10313e-05
4.07664e-06
1.09896e-05
4.1282e-06
1.09222e-05
4.13005e-06
1.08331e-05
4.0962e-06
1.0725e-05
4.04381e-06
1.05988e-05
3.98597e-06
1.04555e-05
3.93062e-06
1.02968e-05
3.87971e-06
1.01266e-05
3.82817e-06
9.95177e-06
3.76383e-06
9.78095e-06
3.66916e-06
9.62367e-06
3.52484e-06
9.48844e-06
3.31415e-06
9.3817e-06
3.02669e-06
9.30745e-06
2.66026e-06
9.26725e-06
2.22098e-06
9.26043e-06
1.7227e-06
9.28598e-06
1.18195e-06
9.3409e-06
6.19263e-07
9.41942e-06
6.03412e-08
9.51668e-06
-4.77336e-07
9.62701e-06
-9.80876e-07
9.74456e-06
-1.44025e-06
-1.84888e-06
-6.31584e-07
1.69604e-06
-1.2907e-06
1.21122e-06
-1.76758e-06
4.92744e-07
-1.98991e-06
-5.2396e-07
-1.94914e-06
-1.76847e-06
-1.69688e-06
-3.04434e-06
-1.28296e-06
-4.20236e-06
-7.29209e-07
-5.14165e-06
-2.99285e-08
-5.78575e-06
8.36279e-07
-6.05235e-06
1.85416e-06
-5.86189e-06
2.97414e-06
-5.20187e-06
4.14046e-06
-4.09976e-06
5.29963e-06
-2.61271e-06
6.38921e-06
-8.77229e-07
7.33892e-06
8.53579e-07
8.12676e-06
2.3895e-06
8.74372e-06
3.64987e-06
9.19475e-06
4.61382e-06
9.50001e-06
5.29697e-06
9.68664e-06
5.72802e-06
9.76851e-06
5.95913e-06
9.76508e-06
6.04388e-06
9.67972e-06
6.0299e-06
9.53226e-06
5.93106e-06
9.35903e-06
5.77311e-06
9.16383e-06
5.60443e-06
8.92278e-06
5.46873e-06
8.6029e-06
5.4083e-06
8.20429e-06
5.42667e-06
7.77876e-06
5.46195e-06
7.39791e-06
5.41165e-06
7.11951e-06
5.17214e-06
6.97808e-06
4.66961e-06
7.00037e-06
3.8755e-06
7.18952e-06
2.82144e-06
7.51209e-06
1.60053e-06
7.91769e-06
3.382e-07
8.36213e-06
-8.55387e-07
8.81145e-06
-1.91697e-06
9.23724e-06
-2.81033e-06
9.61875e-06
-3.52231e-06
9.94322e-06
-4.0586e-06
1.0205e-05
-4.4381e-06
1.04041e-05
-4.68704e-06
1.05441e-05
-4.83412e-06
1.06321e-05
-4.90848e-06
1.06765e-05
-4.93429e-06
1.06806e-05
-4.92757e-06
1.06445e-05
-4.90901e-06
1.05715e-05
-4.8992e-06
1.04665e-05
-4.91144e-06
1.03352e-05
-4.94958e-06
1.01877e-05
-5.0014e-06
1.00363e-05
-5.03777e-06
9.89148e-06
-5.01665e-06
9.76942e-06
-4.88746e-06
9.68163e-06
-4.60672e-06
9.63468e-06
-4.15056e-06
9.63176e-06
-3.5186e-06
9.67299e-06
-2.73336e-06
9.75532e-06
-1.83693e-06
9.87032e-06
-8.8627e-07
1.0006e-05
5.17821e-08
1.01516e-05
9.31374e-07
1.02966e-05
1.7194e-06
1.0431e-05
2.39553e-06
1.05471e-05
2.94925e-06
1.06403e-05
3.38123e-06
1.07077e-05
3.70056e-06
1.07486e-05
3.92196e-06
1.07643e-05
4.06097e-06
1.0756e-05
4.13642e-06
1.07217e-05
4.16437e-06
1.06606e-05
4.15733e-06
1.05754e-05
4.12901e-06
1.04684e-05
4.09301e-06
1.03416e-05
4.05736e-06
1.01985e-05
4.02277e-06
1.00446e-05
3.98215e-06
9.88708e-06
3.92131e-06
9.73476e-06
3.82148e-06
9.59612e-06
3.66348e-06
9.4784e-06
3.43187e-06
9.38715e-06
3.11795e-06
9.32625e-06
2.72115e-06
9.29786e-06
2.24938e-06
9.30295e-06
1.71761e-06
9.33956e-06
1.14534e-06
9.40286e-06
5.55971e-07
9.48776e-06
-2.45598e-08
9.5893e-06
-5.7888e-07
9.70176e-06
-1.09334e-06
9.81915e-06
-1.55764e-06
-1.96538e-06
-7.55377e-07
-1.49237e-06
-1.97789e-06
-2.19082e-06
-2.19546e-06
-2.03864e-06
-1.77376e-06
-1.44439e-06
-1.06683e-06
-5.89654e-07
6.54692e-08
8.95265e-07
1.85794e-06
2.91515e-06
4.03098e-06
5.11996e-06
6.10981e-06
6.95728e-06
7.64619e-06
8.18223e-06
8.57392e-06
8.83527e-06
8.98894e-06
9.05726e-06
9.0511e-06
8.98009e-06
8.84167e-06
8.61628e-06
8.30459e-06
7.95014e-06
7.60969e-06
7.33545e-06
7.17372e-06
7.16253e-06
7.31809e-06
7.62058e-06
8.02786e-06
8.4865e-06
8.95608e-06
9.40385e-06
9.80538e-06
1.01454e-05
1.04171e-05
1.06198e-05
1.07575e-05
1.08389e-05
1.08741e-05
1.08671e-05
1.08198e-05
1.07378e-05
1.06247e-05
1.04822e-05
1.03132e-05
1.01249e-05
9.9283e-06
9.7369e-06
9.56643e-06
9.43121e-06
9.34073e-06
9.29989e-06
9.30997e-06
9.36864e-06
9.46844e-06
9.59783e-06
9.74573e-06
9.90073e-06
1.00525e-05
1.01919e-05
1.03119e-05
1.04087e-05
1.04803e-05
1.05252e-05
1.0545e-05
1.05398e-05
1.05064e-05
1.0445e-05
1.03589e-05
1.02517e-05
1.0128e-05
9.99401e-06
9.85711e-06
9.7254e-06
9.60657e-06
9.50751e-06
9.43376e-06
9.38908e-06
9.37534e-06
9.39276e-06
9.43945e-06
9.51075e-06
9.60148e-06
-1.15293e-07
9.70634e-06
-6.83742e-07
9.81943e-06
-1.20642e-06
9.93471e-06
-1.67293e-06
-2.07722e-06
9.76559e-06
9.8723e-06
9.98405e-06
1.00949e-05
6.10462e-06
1.1723e-07
5.97787e-06
1.26749e-07
5.84156e-06
1.36306e-07
5.69571e-06
1.45849e-07
5.54041e-06
1.553e-07
5.37582e-06
1.6459e-07
5.20222e-06
1.73598e-07
5.01982e-06
1.82403e-07
4.82908e-06
1.9074e-07
4.63082e-06
1.98258e-07
4.42571e-06
2.05112e-07
4.21437e-06
2.11338e-07
3.99758e-06
2.16793e-07
3.77637e-06
2.21213e-07
3.55209e-06
2.24275e-07
3.32728e-06
2.24813e-07
3.1054e-06
2.21882e-07
2.88919e-06
2.16207e-07
2.6802e-06
2.08991e-07
2.47915e-06
2.01047e-07
2.28644e-06
1.92707e-07
2.10232e-06
1.8412e-07
1.92695e-06
1.75374e-07
1.76042e-06
1.66533e-07
1.60278e-06
1.57638e-07
1.45406e-06
1.48723e-07
1.31426e-06
1.39794e-07
1.18344e-06
1.30823e-07
1.06169e-06
1.21753e-07
9.49063e-07
1.12625e-07
8.4561e-07
1.03453e-07
7.51321e-07
9.42885e-08
6.66023e-07
8.52986e-08
5.88848e-07
7.71752e-08
5.18123e-07
7.07248e-08
4.52257e-07
6.58659e-08
3.90186e-07
6.2071e-08
3.31093e-07
5.90932e-08
2.74154e-07
5.69385e-08
2.18562e-07
5.55917e-08
1.63446e-07
5.51162e-08
1.07742e-07
5.5704e-08
5.08007e-08
5.69414e-08
-6.75865e-09
5.75593e-08
-6.36006e-08
5.6842e-08
-1.1816e-07
5.45591e-08
-1.6878e-07
5.06204e-08
-2.14108e-07
4.53284e-08
3.93994e-08
-2.53508e-07
1.18349e-05
1.67634e-07
1.17762e-05
1.85414e-07
1.17091e-05
2.03406e-07
1.16335e-05
2.21514e-07
1.15492e-05
2.39622e-07
1.14561e-05
2.57668e-07
1.13544e-05
2.75251e-07
1.12438e-05
2.92989e-07
1.11242e-05
3.1039e-07
1.09962e-05
3.26297e-07
1.08599e-05
3.41374e-07
1.07156e-05
3.55622e-07
1.05635e-05
3.68851e-07
1.0404e-05
3.80765e-07
1.02371e-05
3.91153e-07
1.0062e-05
3.99886e-07
9.87711e-06
4.06818e-07
9.68155e-06
4.11764e-07
9.47569e-06
4.14854e-07
9.26024e-06
4.16492e-07
9.03593e-06
4.17022e-07
8.80337e-06
4.16674e-07
8.56313e-06
4.15614e-07
8.31568e-06
4.13983e-07
8.06141e-06
4.11909e-07
7.80065e-06
4.09481e-07
7.5337e-06
4.06745e-07
7.26076e-06
4.03763e-07
6.98195e-06
4.00566e-07
6.69737e-06
3.97203e-07
6.4071e-06
3.93722e-07
6.11123e-06
3.90154e-07
5.81001e-06
3.86522e-07
5.50466e-06
3.82528e-07
5.19767e-06
3.77717e-07
4.89141e-06
3.72123e-07
4.58745e-06
3.66033e-07
4.28706e-06
3.59479e-07
3.99167e-06
3.52332e-07
3.70275e-06
3.44506e-07
3.42188e-06
3.35995e-07
3.15089e-06
3.26691e-07
2.89146e-06
3.16368e-07
2.64424e-06
3.04782e-07
2.40929e-06
2.91788e-07
2.18644e-06
2.77415e-07
1.97521e-06
2.61847e-07
1.77508e-06
2.4546e-07
2.28741e-07
1.58574e-06
1.38224e-05
1.73405e-07
1.38115e-05
1.9631e-07
1.37954e-05
2.19562e-07
1.37739e-05
2.43e-07
1.3747e-05
2.6651e-07
1.37146e-05
2.90024e-07
1.36768e-05
3.13095e-07
1.36335e-05
3.36329e-07
1.35846e-05
3.59228e-07
1.35303e-05
3.8063e-07
1.34705e-05
4.01164e-07
1.34053e-05
4.20819e-07
1.33347e-05
4.39456e-07
1.32587e-05
4.56772e-07
1.31773e-05
4.72578e-07
1.30904e-05
4.86755e-07
1.2998e-05
4.99238e-07
1.28997e-05
5.10031e-07
1.27953e-05
5.19266e-07
1.26846e-05
5.27195e-07
1.25675e-05
5.34089e-07
1.2444e-05
5.40166e-07
1.23141e-05
5.45577e-07
1.21776e-05
5.50503e-07
1.20343e-05
5.55134e-07
1.18842e-05
5.59572e-07
1.17271e-05
5.63895e-07
1.15627e-05
5.68177e-07
1.13908e-05
5.72473e-07
1.12111e-05
5.76822e-07
1.10236e-05
5.81256e-07
1.0828e-05
5.85789e-07
1.06241e-05
5.90415e-07
1.04114e-05
5.9519e-07
1.0189e-05
6.00093e-07
9.95636e-06
6.04811e-07
9.71343e-06
6.08966e-07
9.46064e-06
6.1227e-07
9.19851e-06
6.14453e-07
8.92778e-06
6.15238e-07
8.64941e-06
6.1437e-07
8.36451e-06
6.11593e-07
8.07426e-06
6.06614e-07
7.77986e-06
5.99182e-07
7.48242e-06
5.8923e-07
7.18293e-06
5.76906e-07
6.88226e-06
5.6252e-07
6.5812e-06
5.46514e-07
5.29417e-07
6.28052e-06
1.43952e-05
1.60974e-07
1.4404e-05
1.87449e-07
1.44093e-05
2.14284e-07
1.4411e-05
2.4131e-07
1.44091e-05
2.68418e-07
1.44036e-05
2.95547e-07
1.43943e-05
3.22342e-07
1.43817e-05
3.48902e-07
1.43661e-05
3.74859e-07
1.4347e-05
3.9978e-07
1.43244e-05
4.23743e-07
1.42985e-05
4.46664e-07
1.42696e-05
4.68374e-07
1.42377e-05
4.88721e-07
1.42027e-05
5.07587e-07
1.41645e-05
5.24888e-07
1.41231e-05
5.40615e-07
1.40784e-05
5.54822e-07
1.403e-05
5.67632e-07
1.3978e-05
5.79235e-07
1.39222e-05
5.89864e-07
1.38626e-05
5.99747e-07
1.37991e-05
6.09108e-07
1.37315e-05
6.18104e-07
1.36597e-05
6.26855e-07
1.35838e-05
6.35514e-07
1.35035e-05
6.44205e-07
1.34186e-05
6.53022e-07
1.33291e-05
6.62028e-07
1.32346e-05
6.71271e-07
1.31351e-05
6.80773e-07
1.30304e-05
6.90536e-07
1.29203e-05
7.00526e-07
1.28047e-05
7.10735e-07
1.26837e-05
7.21096e-07
1.25571e-05
7.31383e-07
1.24248e-05
7.41305e-07
1.22865e-05
7.50576e-07
1.2142e-05
7.58908e-07
1.19913e-05
7.65999e-07
1.18341e-05
7.71553e-07
1.16704e-05
7.75287e-07
1.15001e-05
7.76921e-07
1.1323e-05
7.76245e-07
1.11391e-05
7.73183e-07
1.09482e-05
7.67813e-07
1.07504e-05
7.60341e-07
1.05458e-05
7.51093e-07
7.40482e-07
1.03347e-05
1.45515e-05
1.43259e-07
1.45662e-05
1.72666e-07
1.45781e-05
2.02438e-07
1.4587e-05
2.32426e-07
1.45929e-05
2.62472e-07
1.4596e-05
2.92519e-07
1.45961e-05
3.22166e-07
1.45936e-05
3.51382e-07
1.45886e-05
3.79922e-07
1.45809e-05
4.07443e-07
1.45708e-05
4.33841e-07
1.45585e-05
4.59e-07
1.45442e-05
4.82699e-07
1.45279e-05
5.04935e-07
1.45099e-05
5.25641e-07
1.449e-05
5.44749e-07
1.44684e-05
5.62281e-07
1.44449e-05
5.78317e-07
1.44195e-05
5.9299e-07
1.43923e-05
6.06487e-07
1.43631e-05
6.19026e-07
1.4332e-05
6.30834e-07
1.4299e-05
6.42125e-07
1.4264e-05
6.53092e-07
1.4227e-05
6.63894e-07
1.41878e-05
6.74673e-07
1.41465e-05
6.85554e-07
1.41028e-05
6.96633e-07
1.40569e-05
7.07976e-07
1.40085e-05
7.19625e-07
1.39577e-05
7.31599e-07
1.39044e-05
7.43899e-07
1.38483e-05
7.56546e-07
1.37896e-05
7.69462e-07
1.37282e-05
7.82466e-07
1.36642e-05
7.95388e-07
1.35975e-05
8.08033e-07
1.35279e-05
8.20169e-07
1.34553e-05
8.31542e-07
1.33794e-05
8.41893e-07
1.33e-05
8.50972e-07
1.32167e-05
8.58528e-07
1.31293e-05
8.64346e-07
1.30372e-05
8.683e-07
1.29401e-05
8.70341e-07
1.28374e-05
8.70503e-07
1.27288e-05
8.68915e-07
1.26141e-05
8.65805e-07
8.61469e-07
1.24931e-05
1.45864e-05
1.22906e-07
1.46038e-05
1.55286e-07
1.46182e-05
1.88029e-07
1.46296e-05
2.21008e-07
1.4638e-05
2.54022e-07
1.46436e-05
2.86927e-07
1.46464e-05
3.19427e-07
1.46464e-05
3.51325e-07
1.46439e-05
3.82415e-07
1.4639e-05
4.12364e-07
1.46318e-05
4.41e-07
1.46226e-05
4.68238e-07
1.46115e-05
4.93806e-07
1.45988e-05
5.17666e-07
1.45846e-05
5.3978e-07
1.45693e-05
5.60122e-07
1.45528e-05
5.78761e-07
1.45353e-05
5.95811e-07
1.45168e-05
6.11439e-07
1.44975e-05
6.25853e-07
1.44772e-05
6.39281e-07
1.44561e-05
6.51959e-07
1.44341e-05
6.64118e-07
1.44112e-05
6.75961e-07
1.43875e-05
6.87667e-07
1.43627e-05
6.99387e-07
1.43371e-05
7.11241e-07
1.43104e-05
7.23319e-07
1.42827e-05
7.35677e-07
1.42539e-05
7.48341e-07
1.42243e-05
7.61286e-07
1.41937e-05
7.74496e-07
1.41622e-05
7.88046e-07
1.41298e-05
8.01862e-07
1.40965e-05
8.157e-07
1.40625e-05
8.29404e-07
1.40277e-05
8.42835e-07
1.39921e-05
8.55813e-07
1.39555e-05
8.68136e-07
1.39178e-05
8.79602e-07
1.38787e-05
8.90019e-07
1.3838e-05
8.99226e-07
1.37953e-05
9.07084e-07
1.37501e-05
9.13488e-07
1.3702e-05
9.18408e-07
1.36506e-05
9.2189e-07
1.35955e-05
9.2403e-07
1.35363e-05
9.24998e-07
9.25015e-07
1.34728e-05
1.46087e-05
1.01832e-07
1.46267e-05
1.37233e-07
1.46417e-05
1.7306e-07
1.46536e-05
2.09169e-07
1.46622e-05
2.4534e-07
1.46678e-05
2.81354e-07
1.46703e-05
3.16919e-07
1.46699e-05
3.51744e-07
1.46667e-05
3.85564e-07
1.4661e-05
4.18063e-07
1.4653e-05
4.49e-07
1.46431e-05
4.78213e-07
1.46314e-05
5.05528e-07
1.46182e-05
5.30862e-07
1.46038e-05
5.54184e-07
1.45883e-05
5.75529e-07
1.45721e-05
5.94994e-07
1.45552e-05
6.12724e-07
1.45377e-05
6.28922e-07
1.45197e-05
6.43826e-07
1.45013e-05
6.5769e-07
1.44825e-05
6.70772e-07
1.44633e-05
6.83305e-07
1.44438e-05
6.95499e-07
1.44239e-05
7.07568e-07
1.44036e-05
7.19676e-07
1.43829e-05
7.31942e-07
1.43618e-05
7.44444e-07
1.43402e-05
7.5723e-07
1.43183e-05
7.70318e-07
1.42958e-05
7.83722e-07
1.42729e-05
7.97389e-07
1.42499e-05
8.11114e-07
1.42269e-05
8.24837e-07
1.4204e-05
8.38577e-07
1.41812e-05
8.52203e-07
1.41585e-05
8.6553e-07
1.41359e-05
8.78387e-07
1.41134e-05
8.90619e-07
1.4091e-05
9.0208e-07
1.40684e-05
9.12631e-07
1.40454e-05
9.22143e-07
1.4022e-05
9.3052e-07
1.39977e-05
9.37799e-07
1.39721e-05
9.43989e-07
1.39449e-05
9.49098e-07
1.39158e-05
9.53172e-07
1.38844e-05
9.5639e-07
9.58935e-07
1.38505e-05
1.46366e-05
8.01398e-08
1.46551e-05
1.18709e-07
1.46703e-05
1.57824e-07
1.46822e-05
1.97319e-07
1.46906e-05
2.36939e-07
1.46955e-05
2.76398e-07
1.46971e-05
3.15354e-07
1.46954e-05
3.53442e-07
1.46906e-05
3.9032e-07
1.46831e-05
4.25632e-07
1.4673e-05
4.59084e-07
1.46607e-05
4.9046e-07
1.46467e-05
5.19583e-07
1.46312e-05
5.46356e-07
1.46146e-05
5.70776e-07
1.45972e-05
5.92924e-07
1.45792e-05
6.12939e-07
1.4561e-05
6.31019e-07
1.45425e-05
6.47413e-07
1.45239e-05
6.62412e-07
1.45052e-05
6.76318e-07
1.44866e-05
6.89418e-07
1.44679e-05
7.01962e-07
1.44493e-05
7.14189e-07
1.44305e-05
7.26336e-07
1.44116e-05
7.3858e-07
1.43925e-05
7.51034e-07
1.43732e-05
7.63759e-07
1.43536e-05
7.76782e-07
1.43338e-05
7.90093e-07
1.43139e-05
8.03651e-07
1.42939e-05
8.17386e-07
1.42738e-05
8.31188e-07
1.42537e-05
8.44938e-07
1.42338e-05
8.58529e-07
1.42141e-05
8.7187e-07
1.41948e-05
8.8482e-07
1.4176e-05
8.97242e-07
1.41576e-05
9.09015e-07
1.41396e-05
9.20037e-07
1.4122e-05
9.3023e-07
1.41046e-05
9.39557e-07
1.40872e-05
9.47949e-07
1.40696e-05
9.55403e-07
1.40517e-05
9.61862e-07
1.40334e-05
9.6746e-07
1.40141e-05
9.72383e-07
1.39938e-05
9.7674e-07
9.80669e-07
1.39721e-05
1.46715e-05
5.76826e-08
1.46906e-05
9.95754e-08
1.47062e-05
1.4222e-07
1.47181e-05
1.85415e-07
1.47262e-05
2.28861e-07
1.47304e-05
2.72194e-07
1.47307e-05
3.1499e-07
1.47274e-05
3.56794e-07
1.47205e-05
3.97158e-07
1.47105e-05
4.35653e-07
1.46977e-05
4.7191e-07
1.46825e-05
5.05652e-07
1.46654e-05
5.36678e-07
1.46469e-05
5.64894e-07
1.46273e-05
5.90323e-07
1.46072e-05
6.13089e-07
1.45867e-05
6.33391e-07
1.45662e-05
6.51493e-07
1.45459e-05
6.67715e-07
1.45259e-05
6.82417e-07
1.45063e-05
6.95973e-07
1.4487e-05
7.08716e-07
1.4468e-05
7.20925e-07
1.44493e-05
7.32875e-07
1.44308e-05
7.44846e-07
1.44124e-05
7.57032e-07
1.43939e-05
7.69526e-07
1.43753e-05
7.82372e-07
1.43565e-05
7.95568e-07
1.43375e-05
8.09072e-07
1.43183e-05
8.22808e-07
1.42991e-05
8.36671e-07
1.42797e-05
8.50532e-07
1.42604e-05
8.64269e-07
1.42412e-05
8.77736e-07
1.42222e-05
8.90825e-07
1.42036e-05
9.03415e-07
1.41855e-05
9.15387e-07
1.41678e-05
9.26651e-07
1.41507e-05
9.37139e-07
1.41342e-05
9.46809e-07
1.41181e-05
9.55645e-07
1.41024e-05
9.63652e-07
1.40869e-05
9.70869e-07
1.40714e-05
9.77343e-07
1.40557e-05
9.83166e-07
1.40396e-05
9.88471e-07
1.4023e-05
9.93407e-07
9.98125e-07
1.40055e-05
1.47125e-05
3.41826e-08
1.47325e-05
7.95665e-08
1.47487e-05
1.26015e-07
1.47609e-05
1.73286e-07
1.47687e-05
2.2102e-07
1.47721e-05
2.68757e-07
1.47712e-05
3.15959e-07
1.47659e-05
3.6204e-07
1.47567e-05
4.0642e-07
1.47438e-05
4.48552e-07
1.47277e-05
4.87971e-07
1.4709e-05
5.2432e-07
1.46883e-05
5.57365e-07
1.46662e-05
5.87012e-07
1.46432e-05
6.13316e-07
1.46199e-05
6.36456e-07
1.45965e-05
6.56711e-07
1.45736e-05
6.74439e-07
1.45513e-05
6.90057e-07
1.45296e-05
7.04024e-07
1.45088e-05
7.16804e-07
1.44887e-05
7.28798e-07
1.44693e-05
7.40327e-07
1.44505e-05
7.51711e-07
1.44321e-05
7.6329e-07
1.44138e-05
7.75275e-07
1.43956e-05
7.87732e-07
1.43773e-05
8.00679e-07
1.43588e-05
8.1408e-07
1.434e-05
8.27853e-07
1.43209e-05
8.41872e-07
1.43016e-05
8.55987e-07
1.42821e-05
8.70027e-07
1.42625e-05
8.83854e-07
1.4243e-05
8.97291e-07
1.42236e-05
9.10211e-07
1.42045e-05
9.22492e-07
1.41859e-05
9.34035e-07
1.41678e-05
9.44771e-07
1.41502e-05
9.54664e-07
1.41333e-05
9.63711e-07
1.4117e-05
9.71937e-07
1.41013e-05
9.79395e-07
1.4086e-05
9.86163e-07
1.4071e-05
9.92341e-07
1.40561e-05
9.98053e-07
1.40412e-05
1.00344e-06
1.40259e-05
1.00865e-06
1.01384e-06
1.40102e-05
1.47598e-05
9.25824e-09
1.4781e-05
5.83097e-08
1.47982e-05
1.08878e-07
1.48108e-05
1.6069e-07
1.48185e-05
2.13293e-07
1.48211e-05
2.66104e-07
1.48187e-05
3.18427e-07
1.48112e-05
3.69502e-07
1.47991e-05
4.18567e-07
1.47827e-05
4.64912e-07
1.47628e-05
5.07932e-07
1.47399e-05
5.47171e-07
1.47149e-05
5.82349e-07
1.46886e-05
6.13372e-07
1.46615e-05
6.40337e-07
1.46345e-05
6.63502e-07
1.46079e-05
6.83259e-07
1.45823e-05
7.00092e-07
1.45578e-05
7.14554e-07
1.45346e-05
7.27235e-07
1.45127e-05
7.3872e-07
1.4492e-05
7.49505e-07
1.44723e-05
7.59964e-07
1.44536e-05
7.70476e-07
1.44354e-05
7.81454e-07
1.44175e-05
7.93117e-07
1.43998e-05
8.05503e-07
1.43819e-05
8.18595e-07
1.43636e-05
8.32309e-07
1.4345e-05
8.46505e-07
1.43259e-05
8.60996e-07
1.43063e-05
8.7557e-07
1.42863e-05
8.90003e-07
1.4266e-05
9.04108e-07
1.42456e-05
9.17688e-07
1.42253e-05
9.30582e-07
1.42051e-05
9.42666e-07
1.41853e-05
9.53848e-07
1.4166e-05
9.64081e-07
1.41473e-05
9.73361e-07
1.41293e-05
9.81722e-07
1.4112e-05
9.89232e-07
1.40954e-05
9.95991e-07
1.40794e-05
1.00212e-06
1.4064e-05
1.00777e-06
1.4049e-05
1.01309e-06
1.40341e-05
1.01826e-06
1.40193e-05
1.02346e-06
1.02884e-06
1.40043e-05
1.4813e-05
-1.76179e-08
1.4836e-05
3.52891e-08
1.48545e-05
9.03435e-08
1.4868e-05
1.4723e-07
1.48759e-05
2.05421e-07
1.48778e-05
2.64174e-07
1.48737e-05
3.22555e-07
1.48636e-05
3.79562e-07
1.4848e-05
4.34184e-07
1.48274e-05
4.8548e-07
1.48027e-05
5.32657e-07
1.47747e-05
5.75127e-07
1.47445e-05
6.1255e-07
1.47131e-05
6.44839e-07
1.46813e-05
6.72152e-07
1.46499e-05
6.94861e-07
1.46196e-05
7.13507e-07
1.4591e-05
7.28754e-07
1.45642e-05
7.41334e-07
1.45394e-05
7.52021e-07
1.45166e-05
7.61565e-07
1.44955e-05
7.70582e-07
1.4476e-05
7.79512e-07
1.44576e-05
7.88807e-07
1.44401e-05
7.98965e-07
1.4423e-05
8.10201e-07
1.4406e-05
8.22524e-07
1.43887e-05
8.35862e-07
1.4371e-05
8.50067e-07
1.43526e-05
8.64919e-07
1.43334e-05
8.80145e-07
1.43135e-05
8.95454e-07
1.4293e-05
9.10548e-07
1.42719e-05
9.25168e-07
1.42505e-05
9.39101e-07
1.4229e-05
9.52136e-07
1.42075e-05
9.64142e-07
1.41863e-05
9.75034e-07
1.41656e-05
9.84784e-07
1.41455e-05
9.93423e-07
1.41262e-05
1.00102e-06
1.41078e-05
1.00771e-06
1.40901e-05
1.01362e-06
1.40733e-05
1.01893e-06
1.40572e-05
1.02384e-06
1.40418e-05
1.02856e-06
1.40267e-05
1.03328e-06
1.4012e-05
1.03822e-06
1.04358e-06
1.39972e-05
1.48724e-05
-4.72179e-08
1.48979e-05
9.7392e-09
1.49185e-05
6.97422e-08
1.49334e-05
1.32402e-07
1.49417e-05
1.97067e-07
1.49431e-05
2.62842e-07
1.49371e-05
3.28505e-07
1.4924e-05
3.9268e-07
1.49042e-05
4.5401e-07
1.48784e-05
5.11227e-07
1.48478e-05
5.63275e-07
1.48135e-05
6.09397e-07
1.47769e-05
6.49178e-07
1.47392e-05
6.82549e-07
1.47016e-05
7.09761e-07
1.46651e-05
7.31347e-07
1.46305e-05
7.48057e-07
1.45985e-05
7.60792e-07
1.45693e-05
7.70537e-07
1.4543e-05
7.78313e-07
1.45195e-05
7.85096e-07
1.44984e-05
7.91663e-07
1.44794e-05
7.98527e-07
1.4462e-05
8.06215e-07
1.44456e-05
8.15319e-07
1.44298e-05
8.26047e-07
1.44139e-05
8.38372e-07
1.43976e-05
8.52144e-07
1.43806e-05
8.67116e-07
1.43626e-05
8.82957e-07
1.43434e-05
8.9928e-07
1.43232e-05
9.15686e-07
1.4302e-05
9.31777e-07
1.42799e-05
9.47208e-07
1.42573e-05
9.61731e-07
1.42343e-05
9.75082e-07
1.42114e-05
9.87118e-07
1.41886e-05
9.97759e-07
1.41664e-05
1.007e-06
1.41449e-05
1.01492e-06
1.41243e-05
1.02163e-06
1.41047e-05
1.02731e-06
1.40862e-05
1.03217e-06
1.40686e-05
1.03644e-06
1.40521e-05
1.04038e-06
1.40364e-05
1.04424e-06
1.40214e-05
1.04827e-06
1.4007e-05
1.05271e-06
1.05782e-06
1.39927e-05
1.4938e-05
-8.06136e-08
1.49672e-05
-1.94631e-08
1.49909e-05
4.60093e-08
1.50079e-05
1.1537e-07
1.50173e-05
1.87737e-07
1.50182e-05
2.61936e-07
1.50102e-05
3.36476e-07
1.49934e-05
4.09457e-07
1.49684e-05
4.79015e-07
1.49362e-05
5.43422e-07
1.48982e-05
6.01259e-07
1.48561e-05
6.51546e-07
1.48115e-05
6.93783e-07
1.47661e-05
7.27939e-07
1.47214e-05
7.54414e-07
1.46788e-05
7.73969e-07
1.46392e-05
7.87637e-07
1.46034e-05
7.96634e-07
1.45717e-05
8.02279e-07
1.4544e-05
8.05932e-07
1.45202e-05
8.08888e-07
1.44997e-05
8.12165e-07
1.44819e-05
8.16365e-07
1.44661e-05
8.2203e-07
1.44516e-05
8.29843e-07
1.44376e-05
8.40022e-07
1.44235e-05
8.52499e-07
1.44086e-05
8.67007e-07
1.43926e-05
8.83155e-07
1.43751e-05
9.00459e-07
1.4356e-05
9.18376e-07
1.43353e-05
9.3636e-07
1.43132e-05
9.53883e-07
1.42899e-05
9.70494e-07
1.42657e-05
9.85888e-07
1.42411e-05
9.9975e-07
1.42163e-05
1.01191e-06
1.41917e-05
1.02231e-06
1.41678e-05
1.03097e-06
1.41447e-05
1.03802e-06
1.41227e-05
1.04363e-06
1.41019e-05
1.04806e-06
1.40825e-05
1.05158e-06
1.40645e-05
1.05449e-06
1.40477e-05
1.05713e-06
1.40321e-05
1.05981e-06
1.40176e-05
1.06285e-06
1.40038e-05
1.06651e-06
1.0711e-06
1.39905e-05
1.50099e-05
-1.19255e-07
1.50443e-05
-5.38441e-08
1.50726e-05
1.76721e-08
1.50932e-05
9.48364e-08
1.51044e-05
1.76544e-07
1.51052e-05
2.61128e-07
1.5095e-05
3.46655e-07
1.50738e-05
4.30665e-07
1.50423e-05
5.10507e-07
1.50019e-05
5.83795e-07
1.49546e-05
6.48606e-07
1.49024e-05
7.03676e-07
1.48478e-05
7.48418e-07
1.47929e-05
7.82888e-07
1.47396e-05
8.07711e-07
1.46896e-05
8.23981e-07
1.46441e-05
8.33128e-07
1.46039e-05
8.36782e-07
1.45695e-05
8.36673e-07
1.45409e-05
8.34593e-07
1.45175e-05
8.32298e-07
1.44984e-05
8.31209e-07
1.44827e-05
8.32051e-07
1.44695e-05
8.35246e-07
1.44578e-05
8.41563e-07
1.44465e-05
8.51265e-07
1.44349e-05
8.64189e-07
1.4422e-05
8.79901e-07
1.44073e-05
8.97819e-07
1.43905e-05
9.17247e-07
1.43714e-05
9.37433e-07
1.43502e-05
9.57636e-07
1.43269e-05
9.77153e-07
1.4302e-05
9.95402e-07
1.42759e-05
1.01201e-06
1.4249e-05
1.02659e-06
1.4222e-05
1.03897e-06
1.41952e-05
1.04909e-06
1.41691e-05
1.05704e-06
1.41442e-05
1.06299e-06
1.41206e-05
1.06722e-06
1.40986e-05
1.07005e-06
1.40783e-05
1.07184e-06
1.40598e-05
1.073e-06
1.4043e-05
1.07391e-06
1.40278e-05
1.07501e-06
1.4014e-05
1.07667e-06
1.40013e-05
1.07921e-06
1.08293e-06
1.39895e-05