/*--------------------------------*- C++ -*----------------------------------*\
| =========                 |                                                 |
| \\      /  F ield         | OpenFOAM: The Open Source CFD Toolbox           |
|  \\    /   O peration     | Version:  2206                                  |
|   \\  /    A nd           | Website:  www.openfoam.com                      |
|    \\/     M anipulation  |                                                 |
\*---------------------------------------------------------------------------*/
FoamFile
{
    version     2.0;
    format      ascii;
    arch        "LSB;label=32;scalar=64";
    class       surfaceScalarField;
    location    "18.3999";
    object      ddtCorrDdt0(phi);
}
// * * * * * * * * * * * * * * * * * * * * * * * * * * * * * * * * * * * * * //

dimensions      [0 3 -2 0 0 0 0];

oriented        oriented;

internalField   nonuniform List<scalar> 
3552
(
-4.04321e-06
1.09124e-06
-6.97393e-06
2.93087e-06
-1.12212e-05
4.24719e-06
-1.61668e-05
4.94575e-06
-2.1206e-05
5.03915e-06
-2.58036e-05
4.5977e-06
-2.9555e-05
3.75135e-06
-3.23128e-05
2.75788e-06
-3.41331e-05
1.82032e-06
-3.52305e-05
1.09753e-06
-3.59092e-05
6.78711e-07
-3.65173e-05
6.08284e-07
-3.74123e-05
8.94949e-07
-3.89293e-05
1.51712e-06
-4.13141e-05
2.38481e-06
-4.46509e-05
3.3369e-06
-4.85568e-05
3.90581e-06
-5.17697e-05
3.21302e-06
-2.32463e-06
-4.94451e-05
-1.50884e-05
1.58169e-06
-1.60881e-05
3.93033e-06
-1.74056e-05
5.56489e-06
-1.89667e-05
6.5067e-06
-2.0598e-05
6.67059e-06
-2.21941e-05
6.19367e-06
-2.37274e-05
5.2848e-06
-2.51838e-05
4.21422e-06
-2.65309e-05
3.16763e-06
-2.78175e-05
2.38405e-06
-2.91553e-05
2.01666e-06
-3.06935e-05
2.14644e-06
-3.26083e-05
2.80984e-06
-3.50974e-05
4.00625e-06
-3.83635e-05
5.65096e-06
-4.26294e-05
7.60278e-06
-4.84085e-05
9.68501e-06
-5.69303e-05
1.17347e-05
1.40834e-05
-7.33383e-05
-2.35926e-05
1.62746e-06
-2.34052e-05
3.74289e-06
-2.27374e-05
4.89707e-06
-2.20523e-05
5.82158e-06
-2.13968e-05
6.01517e-06
-2.08692e-05
5.66604e-06
-2.05868e-05
5.00245e-06
-2.06011e-05
4.22855e-06
-2.09228e-05
3.48937e-06
-2.15427e-05
3.00397e-06
-2.24727e-05
2.94671e-06
-2.37432e-05
3.41704e-06
-2.54135e-05
4.48012e-06
-2.75871e-05
6.17993e-06
-3.0359e-05
8.42286e-06
-3.39266e-05
1.11704e-05
-3.87108e-05
1.44692e-05
-4.54256e-05
1.84495e-05
2.38562e-05
-5.51983e-05
-1.92776e-05
1.27612e-06
-1.84655e-05
2.93074e-06
-1.74059e-05
3.83737e-06
-1.62954e-05
4.71113e-06
-1.52963e-05
5.01607e-06
-1.45379e-05
4.90769e-06
-1.41164e-05
4.58095e-06
-1.40264e-05
4.13861e-06
-1.43081e-05
3.77109e-06
-1.49435e-05
3.63946e-06
-1.58793e-05
3.88253e-06
-1.7055e-05
4.59274e-06
-1.84436e-05
5.86877e-06
-2.00232e-05
7.75962e-06
-2.18008e-05
1.02005e-05
-2.39449e-05
1.33145e-05
-2.65861e-05
1.71105e-05
-2.9949e-05
2.18125e-05
2.80011e-05
-3.40939e-05
-1.71704e-05
9.04165e-07
-1.63055e-05
2.0658e-06
-1.54579e-05
2.98978e-06
-1.44527e-05
3.70593e-06
-1.34661e-05
4.02944e-06
-1.26331e-05
4.07474e-06
-1.20277e-05
3.97557e-06
-1.17151e-05
3.82606e-06
-1.16983e-05
3.75426e-06
-1.19739e-05
3.91515e-06
-1.24599e-05
4.36851e-06
-1.30991e-05
5.23205e-06
-1.38683e-05
6.63794e-06
-1.46667e-05
8.55807e-06
-1.56026e-05
1.11364e-05
-1.67313e-05
1.44432e-05
-1.82032e-05
1.85824e-05
-1.99947e-05
2.3604e-05
2.97958e-05
-2.17894e-05
-1.6382e-05
7.31526e-07
-1.58901e-05
1.57381e-06
-1.50996e-05
2.19926e-06
-1.40337e-05
2.64003e-06
-1.29673e-05
2.96306e-06
-1.20324e-05
3.13986e-06
-1.12613e-05
3.20451e-06
-1.07293e-05
3.29414e-06
-1.04296e-05
3.45452e-06
-1.03069e-05
3.79255e-06
-1.03397e-05
4.40126e-06
-1.05858e-05
5.47824e-06
-1.09219e-05
6.97409e-06
-1.12916e-05
8.92781e-06
-1.15759e-05
1.14207e-05
-1.16384e-05
1.45057e-05
-1.14285e-05
1.83726e-05
-1.10875e-05
2.32629e-05
2.91853e-05
-1.04769e-05
-1.52431e-05
3.75606e-07
-1.46138e-05
9.44496e-07
-1.3847e-05
1.4325e-06
-1.30029e-05
1.79594e-06
-1.2118e-05
2.07819e-06
-1.12697e-05
2.29159e-06
-1.05223e-05
2.45713e-06
-9.8604e-06
2.63227e-06
-9.32542e-06
2.91957e-06
-8.98306e-06
3.45023e-06
-8.52963e-06
3.94785e-06
-8.16472e-06
5.11336e-06
-7.80185e-06
6.61124e-06
-7.39883e-06
8.52482e-06
-6.88605e-06
1.09079e-05
-6.1618e-06
1.37814e-05
-4.98047e-06
1.71913e-05
-3.01559e-06
2.12981e-05
2.61428e-05
2.7021e-08
-1.46604e-05
-3.34866e-07
-1.43338e-05
4.89878e-08
-1.38307e-05
4.41486e-07
-1.31966e-05
7.98448e-07
-1.2489e-05
1.08834e-06
-1.17343e-05
1.32352e-06
-1.09625e-05
1.51981e-06
-1.0202e-05
1.69665e-06
-9.45375e-06
1.88406e-06
-8.71276e-06
2.17857e-06
-7.95485e-06
2.69238e-06
-7.12646e-06
3.11946e-06
-6.1831e-06
4.17006e-06
-5.05803e-06
5.48617e-06
-3.65826e-06
7.12509e-06
-1.84832e-06
9.098e-06
5.76374e-07
1.13568e-05
3.85713e-06
1.39105e-05
8.50739e-06
1.66479e-05
1.96128e-05
1.50373e-05
-1.32047e-05
-3.4234e-07
-1.30222e-05
-1.33279e-07
-1.266e-05
7.92473e-08
-1.21499e-05
2.88388e-07
-1.15417e-05
4.80155e-07
-1.08538e-05
6.3571e-07
-1.00964e-05
7.62354e-07
-9.27321e-06
8.73546e-07
-8.38138e-06
9.92185e-07
-7.37016e-06
1.16744e-06
-6.11854e-06
1.44072e-06
-4.78795e-06
1.78896e-06
-3.03253e-06
2.4146e-06
-8.01988e-07
3.25571e-06
2.02097e-06
4.3021e-06
5.61329e-06
5.50577e-06
1.01745e-05
6.79553e-06
1.65431e-05
7.54201e-06
2.56382e-05
7.55276e-06
7.38574e-06
3.78654e-05
-1.25215e-05
-1.26548e-05
-1.25755e-05
-1.22871e-05
-1.18069e-05
-1.11712e-05
-1.04088e-05
-9.53529e-06
-8.54305e-06
-7.37564e-06
-5.93487e-06
-4.14593e-06
-1.73129e-06
1.5244e-06
5.82656e-06
1.13323e-05
1.81279e-05
2.56699e-05
3.32227e-05
4.06084e-05
-9.74426e-05
-9.9885e-06
5.79858e-05
-0.000159439
-6.96706e-06
6.89639e-05
-0.000240143
1.14877e-05
6.9216e-05
-0.000328976
5.36096e-05
3.52233e-05
-0.0004139
0.000131108
-4.61839e-05
-0.000464649
0.000242893
-0.000192145
-0.000428917
0.000375515
-0.000411247
-0.000237544
0.000452398
-0.000643771
1.8731e-05
0.000419105
-0.000675381
0.000228438
0.000334094
-0.000543801
0.000374645
0.000231116
-0.000377324
0.000475773
0.000113067
-0.000214195
0.000553632
-1.35941e-05
-6.42645e-05
0.000592519
-0.00012364
8.4753e-05
0.000608385
-0.000209638
0.000193772
0.000607249
-0.000273515
0.00027465
0.000586339
-0.00032058
0.00034149
0.000528584
-0.000349991
0.000407746
0.000447265
-0.000373117
0.000454436
0.000426499
-0.000390186
0.000410952
0.000546017
-0.000375976
0.000256458
0.000738931
-0.000299717
0.000106803
0.000811762
-0.000207457
0.000134626
0.000652939
-0.000146636
0.000305459
0.000349297
-0.000170368
0.00047401
2.33593e-05
-0.000287595
0.000613533
-0.000242602
-0.00037603
0.000641991
-0.00043676
-0.000425018
0.000619177
-0.000593027
-0.000402858
0.000559126
-0.000712624
-0.000347491
0.000467088
-0.000821383
-0.000262299
0.000371058
-0.000938359
-0.000147496
0.000264472
-0.00107034
6.19436e-06
0.000125783
-0.00121252
0.000202453
-6.02718e-05
-0.00134078
0.000422015
-0.000293754
-0.00139857
0.000617341
-0.000559554
-0.00133202
0.000741938
-0.000808488
-0.0011427
0.000788564
-0.000977878
-0.000870497
0.000750339
-0.00102254
-0.000561231
0.000659054
-0.000968319
-0.000282772
0.00058166
-0.000860119
-6.56636e-05
0.000489816
-0.000706924
0.000150037
0.000319542
-0.000535242
0.000356756
0.000137623
-0.000344343
0.00051865
-2.14234e-05
-0.000140471
0.000631745
-0.000158865
4.577e-05
0.000693433
-0.000256247
0.000194559
0.000699965
-0.000307083
0.00030055
0.000662804
-0.000321896
0.000359058
0.000603478
-0.000317066
0.000376392
0.000544603
-0.000296842
0.000355716
0.000505371
-0.000253721
0.000292954
0.000501139
-0.000173325
0.000177557
0.000531891
-4.54739e-05
1.47211e-05
0.000572723
0.000104208
-0.00014504
0.000585409
0.000219729
-0.000232415
0.000554979
0.0002457
-0.00021527
0.00049416
0.000180243
-0.000119425
0.000408909
6.21405e-05
2.31114e-05
0.000298316
-7.76055e-05
0.000188198
0.00017388
-0.000218075
0.000342511
5.35752e-05
-0.000334243
0.000454548
-5.53857e-05
-0.00040545
0.000514411
-0.000148489
-0.00043219
0.000525293
-0.000223691
-0.000419521
0.000494724
-0.00028341
-0.000376575
0.000436294
-0.000328796
-0.000315513
0.000360899
-0.000360999
-0.000244901
0.000277104
-0.000383204
-0.000169023
0.000191228
-0.000398632
-9.11062e-05
0.000106535
-0.000409998
-1.37023e-05
2.50674e-05
-0.000421893
6.22379e-05
-5.03428e-05
-0.00043825
0.000136472
-0.000120115
-0.000460945
0.000210672
-0.000187977
-0.000489968
0.00028849
-0.000259467
-0.000517467
0.000365388
-0.000337889
-0.000518226
0.000417347
-0.000416589
-0.00047269
0.000423977
-0.000469513
-0.000395594
0.000400103
-0.000477199
-0.000284712
0.000330269
-0.000441151
-0.000173705
0.000269271
-0.000380277
-5.72537e-05
0.000185417
-0.000301869
8.18116e-05
8.6962e-05
-0.000226027
0.000243694
-3.3159e-05
-0.000128724
0.000384027
-0.000126352
-1.39805e-05
0.000478797
-0.000167274
7.25039e-05
0.000519437
-0.000163174
0.000122534
0.000514192
-0.000123203
0.000128448
0.000480043
-6.40757e-05
9.82255e-05
0.000428539
-2.4109e-07
5.1745e-05
0.000370433
5.13704e-05
6.73531e-06
0.000314834
7.91229e-05
-2.35241e-05
0.000266838
7.98102e-05
-3.18137e-05
0.000227334
5.68245e-05
-1.73211e-05
0.000193607
1.6233e-05
1.74941e-05
0.000160496
-3.65629e-05
6.96743e-05
0.000126095
-9.39333e-05
0.000128334
8.87637e-05
-0.000148516
0.000185848
4.8311e-05
-0.000194908
0.00023536
4.94064e-06
-0.000228698
0.000272068
-3.99153e-05
-0.000247315
0.000292171
-8.26493e-05
-0.000248891
0.000291625
-0.00012166
-0.000234391
0.000273402
-0.000156202
-0.000207473
0.000242015
-0.000185724
-0.000170582
0.000200103
-0.000210022
-0.000126373
0.00015067
-0.000228707
-7.77838e-05
9.64685e-05
-0.000241985
-2.66452e-05
3.99238e-05
-0.000250791
2.55879e-05
-1.67822e-05
7.76801e-05
-7.21329e-05
-0.000101947
1.86203e-05
-0.000138234
2.93199e-05
-0.000178968
5.22218e-05
-0.000216466
9.11071e-05
-0.000232667
0.00014731
-0.000205889
0.000216115
-0.000103572
0.000273199
5.77854e-05
0.000291041
0.000205929
0.000270962
0.000313245
0.000226778
0.000410513
0.000133848
0.000495735
2.78451e-05
0.000545514
-6.33739e-05
0.000566486
-0.000144612
0.000565632
-0.000208784
0.000547839
-0.000255723
0.000517796
-0.000290536
0.000473854
-0.000306048
0.00040984
-0.000309103
0.000323749
-0.000304095
0.000233791
-0.000286018
0.000181991
-0.000247917
0.000188015
-0.000213481
0.00022278
-0.000181401
0.00020546
-0.000153047
7.3029e-05
-0.000155164
-0.000144914
-0.000158088
-0.000399122
-0.00017081
-0.000634874
-0.000167107
-0.000854178
-0.000128186
-0.00105485
-6.16301e-05
-0.00123707
3.47301e-05
-0.00139739
0.000166515
-0.00150286
0.000307919
-0.00150035
0.000419509
-0.00135854
0.000475531
-0.00109577
0.000479163
-0.000777468
0.000470264
-0.00047623
0.000449102
-0.000244984
0.000427807
-2.18203e-05
0.000358496
0.00023055
0.000237446
0.000450805
9.92872e-05
0.000615105
-2.66766e-05
0.000723278
-0.000129597
0.000763163
-0.000198749
0.000743048
-0.000236132
0.00068026
-0.000244295
0.000598314
-0.000239951
0.000513128
-0.000231879
0.000436923
-0.000220638
0.000380394
-0.000197191
0.000358076
-0.000151007
0.000380723
-6.81213e-05
0.00043883
4.61011e-05
0.000500143
0.000158415
0.000519871
0.000225972
0.000488095
0.000212019
0.000421864
0.000128372
0.000329235
1.50233e-05
0.00021255
-0.00010139
8.69819e-05
-0.000208675
-3.13221e-05
-0.000287146
-0.000133292
-0.00033022
-0.000215545
-0.000337269
-0.000283202
-0.000308918
-0.000336333
-0.000262382
-0.00037778
-0.000203455
-0.000410622
-0.00013618
-0.000438197
-6.35316e-05
-0.00046508
1.31809e-05
-0.000495734
9.28924e-05
-0.000530584
0.000171322
-0.000564374
0.000244463
-0.00058344
0.000307556
-0.000572484
0.000354432
-0.000518025
0.000362888
-0.000407726
0.000313678
-0.000289707
0.000282085
-0.000160109
0.000200671
-1.27338e-05
0.000121896
0.000156376
1.63079e-05
0.000308935
-6.55973e-05
0.000415171
-0.000139395
0.000465294
-0.000176475
0.000468719
-0.0001707
0.00044081
-0.000135265
0.000399413
-8.18059e-05
0.000354391
-1.90536e-05
0.000308516
4.56338e-05
0.000268542
9.13446e-05
0.000238369
0.000109296
0.000217525
0.000100654
0.000201812
7.25378e-05
0.00018625
3.17947e-05
0.00016556
-1.58732e-05
0.000137191
-6.5564e-05
0.000101418
-0.000112743
6.0009e-05
-0.000153498
1.47471e-05
-0.000183436
-3.25724e-05
-0.000199995
-7.92725e-05
-0.000202191
-0.000122996
-0.000190668
-0.000162778
-0.000167691
-0.000197785
-0.000135574
-0.000227771
-9.6387e-05
-0.000253161
-5.23936e-05
-0.000274552
-5.25459e-06
-0.000292329
4.33652e-05
9.11498e-05
-6.85163e-05
3.19383e-05
-8.32415e-05
4.40453e-05
-9.35016e-05
6.24818e-05
-9.22092e-05
8.98147e-05
-6.99163e-05
0.000125017
-2.00022e-05
0.0001662
5.57873e-05
0.00019741
0.000135115
0.000211713
0.000221477
0.0001846
0.000320973
0.000127283
0.000402242
5.258e-05
0.000457595
-2.75083e-05
0.000496169
-0.000101947
0.000516398
-0.000164841
0.000518636
-0.000211022
0.000503507
-0.000240593
0.000469128
-0.000256158
0.000414834
-0.000251754
0.00034525
-0.000239519
0.000263304
-0.000222149
0.000172432
-0.000195146
7.93697e-05
-0.000154854
-2.04242e-05
-0.000113687
-0.000102034
-9.97905e-05
-0.000159001
-9.608e-05
-0.000231597
-8.25683e-05
-0.000339291
-5.03935e-05
-0.000496111
-1.39897e-05
-0.000687885
2.46677e-05
-0.000876855
6.07836e-05
-0.00103622
9.77388e-05
-0.00115774
0.000156242
-0.00121197
0.000220751
-0.00117591
0.000271858
-0.00103767
0.000281266
-0.000819588
0.00025745
-0.000570148
0.000229723
-0.000335933
0.000236048
-0.000130073
0.000243242
9.48359e-05
0.000202898
0.000345111
0.000108222
0.000565036
1.75208e-05
0.00071399
-4.96669e-05
0.000788924
-0.000101611
0.000788469
-0.000129142
0.00072686
-0.00013714
0.000630955
-0.000140227
0.00051988
-0.00013322
0.000418679
-0.000138749
0.000336191
-0.000149391
0.000271861
-0.000156308
0.000227416
-0.000152747
0.000205081
-0.000128672
0.000214189
-7.7229e-05
0.000260552
-2.61858e-07
0.000330708
8.82598e-05
0.000392944
0.000163736
0.00041057
0.000194393
0.000384545
0.000154396
0.000324918
7.46508e-05
0.000237782
-1.42545e-05
0.000129701
-0.000100594
2.06267e-05
-0.000178072
-9.50545e-05
-0.000214539
-0.000193749
-0.000238574
-0.000274897
-0.00022777
-0.000342108
-0.000195171
-0.00039804
-0.000147522
-0.000446255
-8.79657e-05
-0.000490775
-1.90117e-05
-0.000535328
5.77332e-05
-0.000579142
0.000136707
-0.000610848
0.000203027
-0.000606044
0.000239659
-0.000542862
0.000244373
-0.000434395
0.000245965
-0.000309393
0.000237886
-0.000167751
0.000172036
-1.96296e-08
0.000114353
0.00016504
3.56111e-05
0.000296177
-9.24098e-06
0.000376602
-6.41178e-05
0.000413066
-0.000102061
0.000400227
-0.000126556
0.000356358
-0.000132606
0.000297891
-0.000112233
0.000239194
-7.65676e-05
0.000194338
-3.69497e-05
0.000164667
1.06169e-05
0.000145932
6.43689e-05
0.000142881
9.43955e-05
0.00015109
0.000101088
0.000163539
8.82046e-05
0.00017378
6.22966e-05
0.000176827
2.8748e-05
0.000169203
-8.25002e-06
0.000149126
-4.54866e-05
0.000116988
-8.06052e-05
7.49271e-05
-0.000111437
2.66247e-05
-0.000135134
-2.47219e-05
-0.000148649
-7.64416e-05
-0.000150471
-0.000126299
-0.000140811
-0.00017278
-0.000121209
-0.000214847
-9.35068e-05
-0.000251739
-5.94953e-05
-0.000283033
-2.10993e-05
-0.000307565
1.92769e-05
-0.000321394
5.71946e-05
8.78535e-05
-3.81076e-05
3.59521e-05
-4.10492e-05
4.69867e-05
-4.17134e-05
6.3146e-05
-3.80851e-05
8.61863e-05
-2.26175e-05
0.000109549
2.26391e-05
0.000120944
8.46381e-05
0.000135411
0.000152824
0.000143527
0.000226899
0.000110525
0.000297391
5.67908e-05
0.000356844
-6.87258e-06
0.000404893
-7.55568e-05
0.000442212
-0.000139266
0.000465046
-0.000187675
0.000469747
-0.000215724
0.000456138
-0.000226984
0.000420087
-0.000220107
0.000362788
-0.000194455
0.000288657
-0.000165387
0.000203761
-0.000137253
0.000114735
-0.00010612
2.79429e-05
-6.80624e-05
-5.20512e-05
-3.36933e-05
-0.00014001
-1.18314e-05
-0.000236822
7.31482e-07
-0.000346729
2.73391e-05
-0.000455541
5.84189e-05
-0.000564945
9.54137e-05
-0.000678419
0.000138142
-0.000782528
0.000164893
-0.000854598
0.000169808
-0.000870613
0.000172258
-0.00082066
0.000170798
-0.000710464
0.000161662
-0.000574654
0.000145456
-0.000415487
9.82837e-05
-0.000246492
6.07282e-05
-4.47824e-05
3.43388e-05
0.000191108
7.35169e-06
0.00041154
-1.75336e-05
0.000583617
-6.38556e-05
0.000697551
-9.64127e-05
0.000735265
-8.7381e-05
0.000696596
-6.29417e-05
0.000601162
-3.37079e-05
0.000467095
-3.07245e-06
0.000337836
-1.09681e-05
0.000233421
-2.88061e-05
0.000153332
-5.86598e-05
9.7322e-05
-9.33809e-05
6.5942e-05
-0.000124928
6.0187e-05
-0.000146992
6.68233e-05
-0.000135308
7.87685e-05
-8.91742e-05
9.9718e-05
-2.12113e-05
0.000141978
4.59997e-05
0.000201732
0.000103982
0.000243581
0.000152545
0.000255238
0.000142739
0.00023471
9.51782e-05
0.000188185
3.22711e-05
0.000119775
-3.21844e-05
2.75352e-05
-8.58316e-05
-7.36752e-05
-0.000113328
-0.0001741
-0.000138149
-0.000270252
-0.000131618
-0.000355771
-0.000109652
-0.000427376
-7.59174e-05
-0.000483673
-3.16687e-05
-0.000518299
1.56143e-05
-0.000522179
6.1613e-05
-0.000484568
9.90966e-05
-0.000414394
0.000132853
-0.000329621
0.000154886
-0.000221843
0.000136595
-8.51364e-05
0.000109258
6.34734e-05
8.92766e-05
0.000183198
5.23112e-05
0.000268106
2.94453e-05
0.000301846
1.87096e-06
0.000310734
-1.81288e-05
0.000291678
-4.50619e-05
0.000254077
-6.44604e-05
0.000201741
-7.42196e-05
0.000144115
-7.49804e-05
9.33998e-05
-6.15172e-05
5.50254e-05
-3.81932e-05
3.29666e-05
-1.48909e-05
2.55932e-05
1.79903e-05
3.68847e-05
5.30774e-05
6.23858e-05
6.88944e-05
9.30168e-05
7.04564e-05
0.000120828
6.03934e-05
0.000141084
4.20404e-05
0.000151023
1.88092e-05
0.000148903
-6.13002e-06
0.000134481
-3.10643e-05
0.000108196
-5.43201e-05
7.12539e-05
-7.44957e-05
2.58464e-05
-8.9726e-05
-2.40841e-05
-9.87184e-05
-7.53847e-05
-9.9171e-05
-0.000125696
-9.04996e-05
-0.000172424
-7.44813e-05
-0.000213051
-5.28794e-05
-0.000244879
-2.76679e-05
-0.000264352
-1.62612e-06
-0.000266891
2.18162e-05
-0.000250361
4.06638e-05
5.42852e-05
-2.34592e-05
3.76219e-05
-2.43415e-05
4.78691e-05
-2.22165e-05
6.1021e-05
-1.014e-05
7.41098e-05
1.17792e-05
8.76301e-05
3.56393e-05
9.70839e-05
7.33969e-05
9.76532e-05
0.000129381
8.75426e-05
0.000187314
5.25916e-05
0.0002445
-3.95398e-07
0.000301466
-6.38376e-05
0.000352606
-0.000126697
0.000392419
-0.000179079
0.000415322
-0.000210578
0.000418553
-0.000218955
0.000399815
-0.000208246
0.00035612
-0.000176412
0.000295925
-0.000134259
0.000224376
-9.38384e-05
0.000142358
-5.5235e-05
5.3981e-05
-1.77436e-05
-3.15035e-05
1.74221e-05
-0.000101544
3.63476e-05
-0.000166946
5.35701e-05
-0.000248866
8.26517e-05
-0.000340714
0.000119188
-0.000420471
0.000138176
-0.000481563
0.000156506
-0.000529412
0.00018599
-0.000558276
0.000193758
-0.000546882
0.000158413
-0.000498897
0.000124274
-0.000437324
0.000109224
-0.000364048
8.83865e-05
-0.000264234
4.56423e-05
-0.000132494
-3.34562e-05
3.23562e-05
-0.000104122
0.000221619
-0.000154924
0.000413637
-0.000184666
0.000540077
-0.000143974
0.000587281
-0.00011106
0.000555072
-6.42037e-05
0.000454546
1.31452e-05
0.000333696
5.79086e-05
0.000214605
8.53833e-05
0.000115101
9.64316e-05
4.49049e-05
5.92277e-05
-1.28857e-06
1.73874e-05
-3.72497e-05
-2.26986e-05
-5.60736e-05
-7.45571e-05
-5.60142e-05
-0.000124987
-3.49226e-05
-0.000168083
-1.66277e-05
-0.000153603
-6.44944e-06
-9.93525e-05
2.18634e-06
-2.98471e-05
2.44778e-05
2.37082e-05
5.82367e-05
7.02232e-05
7.53358e-05
0.000135446
6.93493e-05
0.000148726
5.63173e-05
0.00010821
3.56788e-05
5.29096e-05
6.90664e-06
-3.41221e-06
-4.09673e-05
-3.79577e-05
-9.05136e-05
-6.37821e-05
-0.000141837
-8.68263e-05
-0.000180257
-9.31972e-05
-0.000217379
-7.2531e-05
-0.000249089
-4.4207e-05
-0.000268977
-1.17807e-05
-0.000259164
5.80089e-06
-0.000212887
1.53359e-05
-0.000146076
3.22857e-05
-6.1761e-05
4.85387e-05
2.91794e-05
6.39454e-05
9.76112e-05
6.81632e-05
0.000138175
6.86944e-05
0.000160617
6.68342e-05
0.000160756
5.2173e-05
0.000153796
3.64044e-05
0.000137791
1.78758e-05
0.00011853
1.13282e-06
9.67431e-05
-2.32751e-05
7.23077e-05
-4.00251e-05
4.65167e-05
-4.84287e-05
1.78895e-05
-4.63532e-05
-7.21701e-06
-3.64107e-05
-2.41575e-05
-2.12527e-05
-3.22346e-05
-6.81379e-06
-2.90317e-05
1.47873e-05
-8.99386e-06
3.30395e-05
1.65434e-05
4.33571e-05
4.45647e-05
4.24352e-05
6.94311e-05
3.55269e-05
8.82153e-05
2.32562e-05
9.91728e-05
7.85162e-06
0.000101465
-8.42269e-06
9.6006e-05
-2.56049e-05
8.10487e-05
-3.93628e-05
5.59247e-05
-4.93717e-05
2.31287e-05
-5.69301e-05
-1.53943e-05
-6.01954e-05
-5.54096e-05
-5.91556e-05
-9.21942e-05
-5.3715e-05
-0.000122201
-4.44741e-05
-0.000143006
-3.20748e-05
-0.000152656
-1.80182e-05
-0.000150636
-3.64582e-06
-0.00013871
9.89014e-06
-0.000119663
2.16174e-05
3.09759e-05
-9.08781e-06
3.62329e-05
-5.78193e-06
4.45632e-05
6.94002e-07
5.45451e-05
1.05481e-05
6.42557e-05
2.61943e-05
7.19838e-05
4.82014e-05
7.5077e-05
7.67039e-05
6.91508e-05
0.000114635
4.96119e-05
0.000155728
1.14987e-05
0.000198608
-4.32758e-05
0.000240932
-0.000106162
0.000278767
-0.000164531
0.000305638
-0.000205949
0.000316284
-0.000221224
0.000310251
-0.000212921
0.000281861
-0.000179856
0.000236997
-0.000131548
0.000180959
-7.82214e-05
0.000115822
-2.87013e-05
4.46846e-05
1.59026e-05
-2.0628e-05
4.75691e-05
-7.73208e-05
7.4115e-05
-0.000129199
8.82263e-05
-0.000179431
0.000103802
-0.000218489
0.000121709
-0.000235784
0.000136483
-0.000223634
0.000126026
-0.000200274
0.000133145
-0.000166833
0.00015255
-0.000132962
0.000159887
-0.000113718
0.00013917
-9.99608e-05
0.000110517
-7.52868e-05
8.45501e-05
-2.59334e-05
3.90332e-05
4.83889e-05
-2.868e-05
0.00012532
-0.000110387
0.000199493
-0.000178295
0.000235457
-0.000190888
0.00023242
-0.000181629
0.000207449
-0.000119002
0.000162641
-6.62529e-05
0.00010912
-1.06823e-05
5.55554e-05
6.67099e-05
1.14332e-05
0.000102031
-1.08005e-05
0.000107617
-9.57728e-06
9.52084e-05
-1.21968e-05
6.18472e-05
-1.96738e-05
2.48645e-05
-3.14437e-05
-1.09286e-05
-4.96192e-05
-5.63816e-05
-5.79357e-05
-0.000116671
-6.65028e-05
-0.000159516
-6.88934e-05
-0.000151213
-7.44454e-05
-9.38005e-05
-7.6828e-05
-2.74644e-05
-7.29383e-05
1.98185e-05
-6.17156e-05
5.90005e-05
-3.08932e-05
0.000104624
8.71327e-06
0.000109119
3.69823e-05
7.99412e-05
4.74674e-05
4.24246e-05
3.8828e-05
5.22719e-06
2.13695e-05
-2.04991e-05
-4.06344e-06
-3.83491e-05
-3.60333e-05
-5.48564e-05
-6.20132e-05
-6.72173e-05
-7.16e-05
-6.29442e-05
-6.78217e-05
-4.79853e-05
-5.00031e-05
-2.95993e-05
-2.83351e-05
-1.58671e-05
-9.81935e-06
-3.17992e-06
1.01339e-05
1.23324e-05
2.47722e-05
3.39004e-05
3.14845e-05
5.72331e-05
3.08704e-05
6.87773e-05
2.83049e-05
7.12599e-05
2.60481e-05
6.90911e-05
2.60945e-05
5.21266e-05
2.75905e-05
3.49084e-05
2.90576e-05
1.64087e-05
3.0474e-05
-2.83547e-07
2.93771e-05
-2.21783e-05
2.45469e-05
-3.51949e-05
1.62471e-05
-4.01289e-05
5.97671e-06
-3.60828e-05
-2.78231e-06
-2.76517e-05
-8.45511e-06
-1.55799e-05
-1.00337e-05
-5.2352e-06
-6.6227e-06
1.13763e-05
2.74099e-06
2.36758e-05
1.65648e-05
2.95332e-05
3.04768e-05
2.85232e-05
4.26949e-05
2.33088e-05
5.13198e-05
1.46313e-05
5.56799e-05
3.49153e-06
5.52918e-05
-8.03461e-06
4.96524e-05
-1.99654e-05
3.92238e-05
-2.89342e-05
2.47392e-05
-3.48871e-05
7.5809e-06
-3.97718e-05
-1.09558e-05
-4.16587e-05
-2.94213e-05
-4.06901e-05
-4.61147e-05
-3.70217e-05
-5.97108e-05
-3.08781e-05
-6.92084e-05
-2.25772e-05
-7.42983e-05
-1.29284e-05
-7.51268e-05
-2.81729e-06
-7.21147e-05
6.87806e-06
-6.58695e-05
1.53722e-05
2.21088e-05
4.42001e-06
3.184e-05
1.12646e-05
3.77187e-05
2.02178e-05
4.55919e-05
3.20093e-05
5.24641e-05
4.64149e-05
5.75784e-05
6.29842e-05
5.85077e-05
8.16571e-05
5.04781e-05
0.000102284
2.89853e-05
0.000122446
-8.66349e-06
0.000139576
-6.04052e-05
0.00015119
-0.000117776
0.000155201
-0.000168542
0.000151154
-0.000201903
0.000137787
-0.000207857
0.00011019
-0.000185324
7.14069e-05
-0.000141073
3.94277e-05
-9.95685e-05
-7.49528e-06
-3.12984e-05
-5.23761e-05
1.61797e-05
-9.28289e-05
5.63555e-05
-0.00012228
7.70199e-05
-0.000133883
8.57182e-05
-0.000119938
7.42814e-05
-7.0732e-05
5.45964e-05
-4.16683e-06
5.5144e-05
2.51399e-05
0.000107176
2.80045e-05
0.000123161
2.51337e-06
0.000158637
-8.49153e-06
0.000163555
3.83409e-06
0.000147561
2.61057e-05
0.000116898
5.3529e-05
8.30937e-05
9.05397e-05
4.75394e-05
0.000128384
1.18911e-06
0.00015638
-5.6676e-05
0.00016128
-0.000115287
0.000133201
-0.000150216
9.56694e-05
-0.000153356
4.99952e-05
-0.000135954
1.93088e-05
-8.8316e-05
-6.09808e-06
-4.0846e-05
-2.77839e-05
1.10035e-05
-1.92502e-05
5.81763e-05
-1.02133e-06
8.3802e-05
2.15729e-05
8.50228e-05
3.31266e-05
8.36548e-05
3.29851e-05
6.19887e-05
2.50954e-05
3.27542e-05
1.63663e-05
-2.19951e-06
1.87282e-06
-4.18882e-05
-1.83217e-05
-9.64764e-05
-4.25447e-05
-0.000135293
-6.98173e-05
-0.00012394
-7.34373e-05
-9.01805e-05
-6.02109e-05
-4.06907e-05
-4.07609e-05
3.68511e-07
-1.81034e-05
3.6343e-05
1.80601e-05
6.84603e-05
4.63828e-05
8.07965e-05
5.39029e-05
7.2421e-05
4.69691e-05
4.93585e-05
2.86942e-05
2.35021e-05
1.11776e-05
-2.98256e-06
-5.24836e-06
-2.19231e-05
-2.02618e-05
-3.98429e-05
-3.23364e-05
-5.51427e-05
-3.85818e-05
-5.66987e-05
-3.9312e-05
-4.72551e-05
-3.68514e-05
-3.20599e-05
-3.63371e-05
-1.63814e-05
-3.96316e-05
1.14556e-07
-4.11548e-05
1.38555e-05
-4.02507e-05
3.29963e-05
-3.26109e-05
4.95933e-05
-2.0499e-05
5.66653e-05
-6.46108e-06
5.7222e-05
1.45332e-05
4.80968e-05
2.72069e-05
3.94528e-05
3.62612e-05
2.58541e-05
4.12131e-05
1.14568e-05
4.38331e-05
-2.90357e-06
4.04775e-05
-1.88227e-05
3.3352e-05
-2.80694e-05
2.20122e-05
-2.87892e-05
1.30266e-05
-2.70972e-05
5.66933e-06
-2.02945e-05
7.30043e-07
-1.06406e-05
-2.20852e-06
-2.29665e-06
-1.10837e-06
1.02761e-05
4.08486e-06
1.84826e-05
1.17247e-05
2.18934e-05
1.92934e-05
2.09545e-05
2.58843e-05
1.67179e-05
3.0625e-05
9.89056e-06
3.26921e-05
1.42443e-06
3.21018e-05
-7.44434e-06
2.80378e-05
-1.59014e-05
2.17689e-05
-2.26653e-05
1.36394e-05
-2.67577e-05
3.95058e-06
-3.0083e-05
-6.57394e-06
-3.11342e-05
-1.72636e-05
-3.00005e-05
-2.74492e-05
-2.6836e-05
-3.64358e-05
-2.18915e-05
-4.34264e-05
-1.55865e-05
-4.78002e-05
-8.55467e-06
-4.92063e-05
-1.41123e-06
-4.7611e-05
5.28278e-06
-4.3348e-05
1.11092e-05
1.57137e-05
2.38017e-05
2.30757e-05
3.52196e-05
2.63008e-05
4.93617e-05
3.14498e-05
6.54416e-05
3.63843e-05
8.21391e-05
4.08809e-05
9.79109e-05
4.27361e-05
0.000107993
4.03962e-05
0.000105241
3.17372e-05
8.392e-05
1.26579e-05
4.45807e-05
-2.10657e-05
-7.23041e-06
-6.59647e-05
-6.55072e-05
-0.000110265
-0.000126195
-0.000141215
-0.000183791
-0.00015026
-0.000222266
-0.000146849
-0.000231562
-0.000131777
-0.000246888
-8.42424e-05
-0.000236095
-4.20909e-05
-0.000208881
-1.10344e-05
-0.000163492
1.09669e-05
-0.000105977
1.95044e-05
-4.87026e-05
2.8444e-05
-1.48426e-05
4.04214e-05
-1.22367e-05
5.19906e-05
-3.47149e-05
7.76222e-05
-3.98452e-05
0.000112307
-4.32202e-05
0.000126536
-5.54711e-06
0.000120964
4.05132e-05
0.000117494
8.3942e-05
0.000104132
0.00011983
8.10102e-05
0.000147291
5.56324e-05
0.000169331
2.54993e-05
0.00018193
-1.14093e-05
0.00017682
-5.1566e-05
0.000150755
-8.9222e-05
9.38374e-05
-9.32988e-05
4.71502e-05
-0.000106669
9.02244e-07
-8.97064e-05
-2.85781e-05
-5.88356e-05
-4.4667e-05
-2.4757e-05
-4.31027e-05
9.43926e-06
-2.35406e-05
3.86144e-05
3.2003e-06
5.70611e-05
3.14177e-05
5.68054e-05
5.65798e-05
5.84928e-05
7.56754e-05
4.2893e-05
7.97201e-05
2.87095e-05
7.67814e-05
7.39243e-07
6.63869e-05
-3.14937e-05
3.78519e-05
-6.79413e-05
-6.52292e-07
-9.67887e-05
-4.77865e-05
-7.68058e-05
-6.84766e-05
-6.94904e-05
-7.15912e-05
-3.75761e-05
-6.63608e-05
-4.86184e-06
-5.40478e-05
2.403e-05
-3.22667e-05
4.66792e-05
-8.37139e-06
5.69012e-05
9.61713e-06
5.44325e-05
2.59206e-05
3.30551e-05
2.81122e-05
2.13105e-05
2.2796e-05
2.33366e-06
1.41002e-05
-1.32272e-05
2.91173e-06
-2.86545e-05
-1.27673e-05
-3.94636e-05
-3.51254e-05
-3.43406e-05
-4.96622e-05
-3.27183e-05
-5.71319e-05
-2.45902e-05
-6.07441e-05
-1.27692e-05
-6.03786e-05
-2.50936e-07
-5.77093e-05
1.11861e-05
-4.75569e-05
2.28439e-05
-3.04306e-05
3.2467e-05
-1.13119e-05
3.75466e-05
7.69692e-06
3.82131e-05
2.25297e-05
3.3264e-05
3.50548e-05
2.69278e-05
4.31739e-05
1.7735e-05
4.70044e-05
7.62631e-06
4.67171e-05
-2.61635e-06
4.00847e-05
-1.21904e-05
3.01092e-05
-1.80939e-05
2.02745e-05
-1.89545e-05
1.07268e-05
-1.75495e-05
3.38916e-06
-1.29568e-05
-5.77465e-07
-6.67401e-06
-2.68011e-06
-1.94018e-07
7.54505e-07
6.84149e-06
7.29632e-06
1.19408e-05
1.52054e-05
1.39844e-05
2.26507e-05
1.35091e-05
2.85812e-05
1.07874e-05
3.23543e-05
6.11751e-06
3.33631e-05
4.15537e-07
3.14425e-05
-5.52368e-06
2.66715e-05
-1.11305e-05
2.00224e-05
-1.60162e-05
1.03124e-05
-1.70476e-05
6.24705e-07
-2.03953e-05
-9.4594e-06
-2.10501e-05
-1.93728e-05
-2.00871e-05
-2.84672e-05
-1.77416e-05
-3.608e-05
-1.42787e-05
-4.16305e-05
-1.0036e-05
-4.46232e-05
-5.56199e-06
-4.5126e-05
-9.08487e-07
-4.33155e-05
3.4723e-06
-3.94862e-05
7.27987e-06
1.02646e-05
5.36734e-05
7.26768e-06
7.28908e-05
7.08342e-06
9.69991e-05
7.34145e-06
0.00012497
8.41396e-06
0.000152527
1.3323e-05
0.000169535
2.57291e-05
0.00016964
4.02909e-05
0.000154924
4.64531e-05
0.000117361
5.02217e-05
7.07247e-05
2.55703e-05
2.24152e-05
-1.76551e-05
-2.76727e-05
-6.01768e-05
-7.92364e-05
-8.96515e-05
-0.000125345
-0.000104151
-0.000172835
-9.93585e-05
-0.00021073
-9.38815e-05
-0.00024842
-4.65529e-05
-0.000252648
-3.78629e-05
-0.000242604
-2.10782e-05
-0.000222194
-9.4431e-06
-0.000209124
6.43444e-06
-0.000198196
1.75162e-05
-0.000186853
2.90786e-05
-0.000172717
3.7855e-05
-0.000145654
5.05591e-05
-9.45619e-05
6.12146e-05
-3.00681e-05
6.20423e-05
3.27296e-05
5.81659e-05
8.99696e-05
6.02543e-05
0.000140156
5.39462e-05
0.000181264
3.99025e-05
0.000203064
3.3832e-05
0.000214752
1.38117e-05
0.00020975
-6.40719e-06
0.000184111
-2.59275e-05
0.000139988
-4.50985e-05
8.7485e-05
-4.07961e-05
3.53085e-05
-5.44921e-05
-8.84297e-06
-4.55549e-05
-3.77528e-05
-2.99258e-05
-4.97793e-05
-1.27304e-05
-4.42769e-05
3.93693e-06
-2.37751e-05
1.81126e-05
5.6314e-06
2.76546e-05
3.75288e-05
2.4908e-05
6.58298e-05
3.01919e-05
8.09416e-05
2.77813e-05
9.90015e-05
1.06495e-05
0.000100665
-9.2418e-07
8.50292e-05
-1.58579e-05
4.90841e-05
-3.19963e-05
-3.12743e-06
-4.45772e-05
-4.33427e-05
-3.65905e-05
-7.72992e-05
-3.55339e-05
-9.33758e-05
-2.14995e-05
-9.39085e-05
-4.32907e-06
-8.08595e-05
1.09809e-05
-5.63924e-05
2.22121e-05
-2.64873e-05
2.69962e-05
1.45337e-06
2.64919e-05
1.76634e-05