/*--------------------------------*- C++ -*----------------------------------*\
| =========                 |                                                 |
| \\      /  F ield         | OpenFOAM: The Open Source CFD Toolbox           |
|  \\    /   O peration     | Version:  2206                                  |
|   \\  /    A nd           | Website:  www.openfoam.com                      |
|    \\/     M anipulation  |                                                 |
\*---------------------------------------------------------------------------*/
FoamFile
{
    version     2.0;
    format      ascii;
    arch        "LSB;label=32;scalar=64";
    class       volScalarField;
    location    "18.6";
    object      p;
}
// * * * * * * * * * * * * * * * * * * * * * * * * * * * * * * * * * * * * * //

dimensions      [0 2 -2 0 0 0 0];

internalField   nonuniform List<scalar> 
4810
(
0.512512
0.512473
0.512372
0.512212
0.512001
0.511741
0.511432
0.511074
0.510667
0.510215
0.509718
0.509178
0.508597
0.507978
0.50732
0.506628
0.505903
0.505147
0.504361
0.50355
0.502714
0.501856
0.500978
0.500082
0.499171
0.498247
0.497313
0.49637
0.495421
0.494469
0.493515
0.492563
0.491614
0.490672
0.489738
0.488815
0.487906
0.487012
0.486138
0.485284
0.484455
0.483652
0.482879
0.482138
0.481433
0.480766
0.480141
0.47956
0.479028
0.478546
0.47812
0.477752
0.477447
0.477206
0.477036
0.476941
0.476928
0.477003
0.477169
0.477431
0.477796
0.47827
0.478862
0.479577
0.480426
0.481416
0.482557
0.48386
0.485336
0.486998
0.488859
0.490934
0.493238
0.49579
0.498608
0.501714
0.505129
0.508881
0.512995
0.517502
0.522436
0.527833
0.533733
0.540181
0.547224
0.554916
0.563316
0.572489
0.582505
0.593442
0.605383
0.61842
0.632652
0.648183
0.665125
0.683589
0.703688
0.725528
0.749196
0.774748
0.802182
0.831404
0.862171
0.894003
0.926053
0.956883
0.984133
1.00378
1.00992
0.98933
0.937396
0.707265
0.512244
0.512206
0.512107
0.51195
0.511742
0.511487
0.511183
0.51083
0.510431
0.509986
0.509497
0.508965
0.508393
0.507783
0.507135
0.506453
0.505738
0.504992
0.504218
0.503417
0.502592
0.501744
0.500877
0.499993
0.499093
0.49818
0.497257
0.496326
0.495388
0.494447
0.493505
0.492564
0.491628
0.490697
0.489775
0.488864
0.487966
0.487085
0.486223
0.485382
0.484566
0.483776
0.483017
0.48229
0.481599
0.480947
0.480337
0.479772
0.479256
0.478792
0.478384
0.478035
0.477751
0.477532
0.477385
0.477312
0.477324
0.477426
0.477621
0.477915
0.478315
0.478826
0.479457
0.480217
0.481113
0.482155
0.483353
0.484718
0.486263
0.488
0.489944
0.49211
0.494515
0.497179
0.500121
0.503365
0.506934
0.510857
0.515162
0.519884
0.525059
0.530727
0.536934
0.543727
0.551164
0.559304
0.568216
0.577976
0.588667
0.600383
0.613228
0.627319
0.642783
0.659763
0.678416
0.698912
0.721438
0.746189
0.773372
0.80319
0.835836
0.871463
0.910155
0.951867
0.996336
1.04294
1.0905
1.13686
1.17835
1.20855
1.21652
1.1803
0.512041
0.512003
0.511906
0.511751
0.511546
0.511294
0.510994
0.510646
0.510251
0.509811
0.509328
0.508803
0.508238
0.507634
0.506994
0.506319
0.505611
0.504873
0.504106
0.503313
0.502496
0.501657
0.500798
0.499922
0.49903
0.498126
0.497211
0.496288
0.495359
0.494426
0.493492
0.49256
0.491632
0.49071
0.489797
0.488894
0.488006
0.487134
0.486281
0.485449
0.484642
0.483863
0.483113
0.482396
0.481716
0.481074
0.480475
0.479922
0.479418
0.478966
0.478572
0.478237
0.477968
0.477766
0.477638
0.477583
0.477611
0.477731
0.477949
0.478267
0.478691
0.47923
0.479891
0.480683
0.481615
0.482695
0.483936
0.485348
0.486944
0.488737
0.490743
0.492977
0.495459
0.498207
0.501242
0.50459
0.508275
0.512327
0.516778
0.521663
0.527021
0.532895
0.539335
0.546393
0.554131
0.562615
0.571921
0.582133
0.593347
0.605668
0.619218
0.634132
0.650564
0.668686
0.688693
0.710806
0.73527
0.762359
0.792376
0.82565
0.862528
0.903363
0.948485
0.998154
1.05247
1.11127
1.17383
1.23865
1.30285
1.36181
1.40755
1.43275
0.511903
0.511865
0.511768
0.511615
0.511412
0.511162
0.510864
0.510519
0.510127
0.509691
0.509212
0.508691
0.50813
0.50753
0.506895
0.506225
0.505522
0.504789
0.504027
0.503239
0.502427
0.501593
0.50074
0.499869
0.498983
0.498084
0.497174
0.496256
0.495333
0.494405
0.493477
0.492551
0.491628
0.490711
0.489803
0.488907
0.488024
0.487158
0.48631
0.485485
0.484684
0.48391
0.483167
0.482457
0.481783
0.481148
0.480556
0.48001
0.479514
0.47907
0.478684
0.478358
0.478097
0.477906
0.477788
0.47775
0.477788
0.477919
0.47815
0.478483
0.478924
0.47948
0.480161
0.480973
0.481928
0.483033
0.484301
0.485743
0.487372
0.489202
0.491248
0.493528
0.496059
0.498861
0.501958
0.505374
0.509135
0.513273
0.517819
0.522811
0.52829
0.534302
0.540897
0.548132
0.556071
0.564785
0.574355
0.584871
0.596437
0.609167
0.623194
0.638669
0.65576
0.674664
0.695602
0.718829
0.744633
0.773345
0.805335
0.841019
0.880853
0.925318
0.974904
1.03004
1.09103
1.15785
1.2299
1.30556
1.38161
1.45254
1.50975
1.54315
0.509147
0.508628
0.508069
0.507472
0.506839
0.506171
0.50547
0.504739
0.50398
0.503195
0.502385
0.501554
0.500703
0.499834
0.49895
0.498054
0.497147
0.496231
0.49531
0.494385
0.49346
0.492535
0.491615
0.490701
0.489795
0.488901
0.488021
0.487157
0.486312
0.485489
0.484691
0.48392
0.483179
0.482471
0.4818
0.481168
0.480579
0.480036
0.479543
0.479103
0.47872
0.478398
0.478141
0.477954
0.47784
0.477805
0.477848
0.477986
0.478223
0.478562
0.47901
0.479574
0.480263
0.481084
0.482049
0.483165
0.484445
0.4859
0.487544
0.48939
0.491455
0.493754
0.496307
0.499135
0.50226
0.505707
0.509504
0.51368
0.518271
0.523313
0.528849
0.534925
0.541593
0.548911
0.556945
0.565769
0.575465
0.586128
0.597863
0.610791
0.62505
0.640796
0.65821
0.677498
0.698894
0.722672
0.749142
0.778662
0.811638
0.848528
0.889841
0.936124
0.987936
1.04579
1.11004
1.18072
1.2572
1.33773
1.41878
1.49439
1.55534
1.59115
0.633214
0.601617
0.580209
0.570971
0.565698
0.560615
0.555708
0.551383
0.547662
0.544359
0.541317
0.538466
0.535776
0.533207
0.530721
0.528301
0.525937
0.523618
0.521334
0.519074
0.516828
0.514588
0.51235
0.510109
0.50786
0.505599
0.503326
0.50104
0.498747
0.496404
0.493894
0.491258
0.488627
0.486009
0.48338
0.480737
0.478087
0.475437
0.472793
0.470161
0.467548
0.464965
0.462419
0.459918
0.45747
0.455083
0.452761
0.450511
0.44834
0.44625
0.444242
0.442316
0.440467
0.438693
0.436987
0.435341
0.433745
0.43219
0.430665
0.429159
0.427656
0.426146
0.424614
0.423047
0.421433
0.419766
0.418049
0.416263
0.414396
0.412437
0.410367
0.408166
0.405822
0.403313
0.400628
0.397751
0.394665
0.391354
0.387806
0.384002
0.379928
0.375565
0.370896
0.365903
0.360565
0.354862
0.348772
0.342274
0.335343
0.327956
0.320089
0.311716
0.302814
0.293357
0.283324
0.27269
0.261435
0.249539
0.236985
0.223759
0.209847
0.195243
0.179944
0.163949
0.147268
0.129912
0.111902
0.0932692
0.0740476
0.054272
0.0339894
0.0132558
0.596305
0.584592
0.573199
0.566821
0.562298
0.557876
0.553573
0.549675
0.546219
0.543089
0.540183
0.537468
0.534913
0.532433
0.530002
0.527628
0.525312
0.523038
0.520796
0.518576
0.516369
0.514166
0.511965
0.509763
0.507551
0.505324
0.503082
0.500815
0.498526
0.496183
0.493742
0.491223
0.488679
0.486125
0.483556
0.480971
0.478375
0.475776
0.473179
0.470595
0.468031
0.465494
0.46299
0.46053
0.458126
0.455779
0.45348
0.45124
0.449079
0.447
0.445002
0.44308
0.441232
0.439454
0.437739
0.43608
0.43447
0.432902
0.43136
0.429833
0.428308
0.426776
0.425224
0.42364
0.42201
0.420348
0.418625
0.416811
0.414924
0.412939
0.410837
0.408607
0.40624
0.403721
0.401025
0.398127
0.39502
0.391693
0.38813
0.384312
0.380225
0.37585
0.37117
0.366166
0.360818
0.355104
0.349003
0.342491
0.335546
0.328143
0.320257
0.311863
0.302936
0.293452
0.283386
0.272717
0.261422
0.249484
0.236884
0.223604
0.209635
0.194967
0.179599
0.163531
0.146772
0.129334
0.111239
0.0925154
0.0731969
0.0533206
0.0329375
0.0121065
0.58105
0.577441
0.571115
0.565339
0.560742
0.556642
0.552693
0.549019
0.545638
0.542509
0.539539
0.536801
0.534326
0.531887
0.529449
0.527064
0.524745
0.522478
0.520252
0.518047
0.515845
0.51365
0.511468
0.509286
0.507095
0.504892
0.502677
0.500458
0.498216
0.495916
0.49355
0.491135
0.488693
0.486237
0.48377
0.481292
0.478807
0.476318
0.473827
0.471344
0.468885
0.466455
0.464058
0.461697
0.459381
0.45711
0.454885
0.452717
0.450616
0.448586
0.446628
0.444737
0.442908
0.441139
0.439426
0.437763
0.436144
0.434559
0.432997
0.431449
0.429904
0.428351
0.42678
0.42518
0.423543
0.421858
0.420107
0.418285
0.416388
0.414399
0.412297
0.410077
0.407718
0.405215
0.402523
0.399633
0.396542
0.393238
0.389701
0.385913
0.381857
0.377515
0.372868
0.367896
0.362578
0.356892
0.350814
0.344322
0.33739
0.329992
0.322103
0.313695
0.304743
0.295223
0.285112
0.274387
0.263025
0.251009
0.238316
0.224926
0.210826
0.196008
0.18047
0.164213
0.147245
0.129581
0.111243
0.092259
0.0726655
0.0525054
0.0318299
0.0106977
0.570556
0.568698
0.564602
0.560116
0.55627
0.552865
0.549568
0.546371
0.543341
0.540503
0.537821
0.535286
0.532872
0.530511
0.528185
0.52591
0.523689
0.521504
0.519373
0.517251
0.515091
0.512947
0.510824
0.508693
0.506549
0.504384
0.502195
0.500043
0.497904
0.495693
0.493411
0.491091
0.48875
0.486396
0.484031
0.481659
0.479285
0.476913
0.474549
0.472188
0.469833
0.467503
0.465205
0.462942
0.46072
0.458541
0.456409
0.454328
0.452301
0.450346
0.448462
0.44663
0.44484
0.443098
0.441405
0.439758
0.438149
0.43657
0.435012
0.433467
0.431925
0.430373
0.428801
0.427202
0.425564
0.423878
0.422136
0.420329
0.418445
0.416474
0.414392
0.412192
0.409856
0.407366
0.404702
0.401853
0.398807
0.395549
0.392061
0.388324
0.384321
0.380032
0.375438
0.370518
0.36525
0.35961
0.353574
0.347117
0.340212
0.332831
0.324944
0.316522
0.307536
0.297962
0.287794
0.277012
0.265573
0.253442
0.2406
0.227036
0.212738
0.197696
0.181906
0.165373
0.148103
0.130113
0.111425
0.0920715
0.07209
0.0515273
0.030437
0.00888253
0.562629
0.561607
0.559164
0.556092
0.553085
0.550236
0.547416
0.544612
0.541886
0.539274
0.536764
0.534338
0.531986
0.529696
0.527452
0.525246
0.523075
0.520934
0.518817
0.51671
0.5146
0.512502
0.510411
0.50832
0.506224
0.50412
0.50201
0.499901
0.497777
0.495611
0.493405
0.491173
0.488925
0.486665
0.484395
0.482118
0.479839
0.477567
0.475307
0.473054
0.470805
0.468576
0.466377
0.46421
0.462074
0.45998
0.457927
0.455921
0.453945
0.452044
0.450247
0.44849
0.446752
0.44505
0.443389
0.441768
0.440179
0.438614
0.437069
0.435538
0.434016
0.432487
0.430937
0.429353
0.42773
0.426063
0.424346
0.422565
0.420706
0.418763
0.416714
0.414547
0.412253
0.409813
0.407208
0.404423
0.401445
0.398256
0.394841
0.391181
0.387257
0.38305
0.378538
0.373699
0.36851
0.362946
0.356982
0.35059
0.343743
0.336408
0.328557
0.32015
0.311148
0.301505
0.291258
0.280431
0.268935
0.256709
0.243735
0.230007
0.215511
0.200237
0.18418
0.167341
0.149731
0.131365
0.112269
0.0924758
0.0720267
0.0509722
0.0293706
0.00728796
0.556456
0.555838
0.554234
0.551978
0.549534
0.547092
0.544644
0.542181
0.53974
0.537351
0.535025
0.532754
0.530537
0.528366
0.526231
0.524123
0.52204
0.519979
0.517934
0.515902
0.513874
0.511849
0.509825
0.507801
0.505772
0.503734
0.501686
0.499626
0.497552
0.495457
0.493338
0.491197
0.489041
0.486873
0.484698
0.482517
0.480337
0.478161
0.475994
0.473835
0.471688
0.469561
0.467461
0.465391
0.463353
0.46135
0.459386
0.457464
0.455589
0.453773
0.452015
0.450292
0.448599
0.446942
0.445325
0.443742
0.442186
0.440651
0.439125
0.437614
0.436126
0.434643
0.433141
0.431596
0.43
0.428365
0.426682
0.424942
0.423126
0.42122
0.41921
0.417086
0.414851
0.412481
0.409951
0.407246
0.404352
0.401253
0.397932
0.394369
0.390546
0.386442
0.382034
0.377299
0.372212
0.366748
0.360879
0.354575
0.347807
0.340542
0.332747
0.324388
0.315432
0.305853
0.295641
0.284772
0.273189
0.26085
0.247734
0.233827
0.219112
0.203578
0.187216
0.170029
0.152026
0.133224
0.113649
0.0933364
0.0723322
0.0506909
0.0284762
0.0057604
0.551376
0.550939
0.549792
0.548103
0.546166
0.544143
0.542063
0.539932
0.537776
0.535626
0.533497
0.531395
0.529319
0.527266
0.525233
0.523217
0.521217
0.519229
0.517252
0.515281
0.513312
0.511343
0.509373
0.5074
0.505421
0.503435
0.50144
0.499435
0.497419
0.495389
0.493341
0.491277
0.4892
0.487115
0.485024
0.482932
0.48084
0.478754
0.476676
0.474609
0.472557
0.470525
0.468516
0.466536
0.464587
0.462672
0.460792
0.45895
0.457151
0.455395
0.453684
0.452013
0.450376
0.448775
0.447207
0.44567
0.444156
0.442663
0.441184
0.439719
0.438264
0.436804
0.435325
0.433813
0.432265
0.43068
0.429049
0.42736
0.425599
0.423756
0.421819
0.419779
0.417624
0.415336
0.412897
0.41029
0.407501
0.404515
0.401311
0.397872
0.394176
0.390203
0.385929
0.381329
0.376377
0.371047
0.365309
0.359131
0.352483
0.345329
0.337636
0.329368
0.320489
0.310968
0.300771
0.289866
0.278217
0.265787
0.252547
0.238472
0.223542
0.207741
0.191061
0.173501
0.155069
0.135783
0.115671
0.09477
0.0731305
0.0508121
0.0278851
0.00442954
0.547057
0.546726
0.545867
0.54457
0.543017
0.541322
0.53953
0.53766
0.535738
0.533791
0.531837
0.529885
0.52794
0.526002
0.524074
0.522154
0.520241
0.518333
0.516431
0.51453
0.51263
0.510727
0.508822
0.506913
0.504998
0.503076
0.501145
0.499205
0.497254
0.495292
0.493316
0.491329
0.489332
0.487328
0.485322
0.483314
0.481309
0.47931
0.477319
0.475341
0.473377
0.471433
0.469511
0.467615
0.465749
0.463913
0.46211
0.460344
0.458615
0.456926
0.455276
0.453665
0.452088
0.450542
0.449027
0.447538
0.446074
0.444629
0.443198
0.441778
0.440361
0.438941
0.437508
0.436053
0.434567
0.433045
0.431478
0.429855
0.428168
0.426404
0.424553
0.422602
0.420538
0.418348
0.416015
0.413524
0.410859
0.408002
0.404936
0.40164
0.398093
0.394273
0.390156
0.385716
0.380926
0.375757
0.370178
0.364157
0.357658
0.350647
0.343085
0.334934
0.326155
0.316709
0.30656
0.295668
0.283998
0.271507
0.25816
0.243926
0.228781
0.212705
0.195688
0.177724
0.158822
0.138998
0.118282
0.0967137
0.0743482
0.0512513
0.0275011
0.00318688
0.543309
0.54305
0.542377
0.541345
0.540072
0.538641
0.537094
0.535454
0.533745
0.53199
0.530208
0.528408
0.526599
0.524784
0.522965
0.521145
0.519323
0.517499
0.515674
0.513847
0.512016
0.51018
0.508339
0.506492
0.504638
0.502777
0.500906
0.499027
0.497139
0.495241
0.493334
0.491418
0.489495
0.487567
0.485638
0.48371
0.481785
0.479867
0.477958
0.476062
0.474181
0.472319
0.470478
0.468663
0.466875
0.465116
0.463389
0.461696
0.460037
0.458415
0.456829
0.455277
0.453758
0.452269
0.450809
0.449375
0.447964
0.446572
0.445194
0.443826
0.442462
0.441097
0.439722
0.438328
0.436908
0.435455
0.433961
0.432417
0.430814
0.42914
0.427385
0.425537
0.423584
0.421512
0.419306
0.416951
0.41443
0.411725
0.408819
0.40569
0.402318
0.398679
0.394749
0.3905
0.385905
0.380932
0.37555
0.369722
0.363413
0.356584
0.349193
0.3412
0.332561
0.323232
0.313169
0.302328
0.290665
0.278135
0.264697
0.250314
0.234957
0.2186
0.201227
0.182831
0.163415
0.142997
0.121606
0.0992858
0.0760955
0.0521084
0.0274121
0.0021069
0.540009
0.539798
0.539252
0.538407
0.537347
0.536129
0.534786
0.53334
0.531814
0.530229
0.528599
0.526938
0.525254
0.523553
0.521837
0.520112
0.518378
0.516636
0.514887
0.513132
0.51137
0.509601
0.507825
0.506042
0.50425
0.502451
0.500643
0.498828
0.497004
0.495172
0.493333
0.491487
0.489636
0.487783
0.485929
0.484077
0.48223
0.48039
0.47856
0.476743
0.474941
0.473158
0.471396
0.469658
0.467946
0.466262
0.464608
0.462986
0.461396
0.45984
0.458318
0.456828
0.45537
0.453941
0.45254
0.451165
0.449812
0.448478
0.44716
0.445851
0.444549
0.443246
0.441936
0.440613
0.439268
0.437895
0.436486
0.435033
0.433527
0.431957
0.430313
0.428584
0.426758
0.424822
0.42276
0.420559
0.4182
0.415668
0.412944
0.410006
0.406834
0.403403
0.399688
0.395661
0.391293
0.386551
0.381401
0.375805
0.369725
0.363119
0.355941
0.348147
0.339688
0.330516
0.320578
0.309825
0.298205
0.285669
0.272166
0.257654
0.242095
0.225455
0.207713
0.188855
0.168883
0.14781
0.125666
0.102499
0.0783721
0.0533681
0.0275856
0.00113868
0.537071
0.536895
0.53644
0.535733
0.534834
0.533784
0.532609
0.531327
0.529958
0.528522
0.527031
0.525499
0.523933
0.522341
0.520728
0.519097
0.51745
0.515791
0.51412
0.512439
0.510747
0.509046
0.507336
0.505617
0.503888
0.502152
0.500407
0.498654
0.496893
0.495126
0.493352
0.491573
0.489792
0.488008
0.486226
0.484447
0.482673
0.480907
0.479151
0.477409
0.475682
0.473974
0.472286
0.470621
0.468982
0.46737
0.465787
0.464234
0.462712
0.461222
0.459764
0.458338
0.456942
0.455576
0.454237
0.452923
0.451632
0.450361
0.449107
0.447864
0.446629
0.445397
0.444161
0.442916
0.441655
0.440371
0.439057
0.437706
0.436307
0.434853
0.433334
0.431737
0.430053
0.428267
0.426367
0.424337
0.422162
0.419823
0.417303
0.414582
0.411636
0.408441
0.404972
0.4012
0.397094
0.39262
0.387741
0.38242
0.376613
0.370275
0.363358
0.355812
0.347584
0.338617
0.328854
0.318238
0.306707
0.294204
0.280672
0.266056
0.250309
0.233389
0.215266
0.19592
0.175345
0.153552
0.130572
0.106453
0.0812655
0.0551024
0.0280755
0.000316036
0.534433
0.534283
0.533897
0.533293
0.532518
0.531604
0.530566
0.529423
0.52819
0.526884
0.525518
0.524103
0.522647
0.521158
0.51964
0.518098
0.516536
0.514957
0.513361
0.511751
0.510129
0.508494
0.506848
0.505192
0.503526
0.501851
0.500168
0.498476
0.496778
0.495073
0.493364
0.49165
0.489935
0.488219
0.486506
0.484796
0.483092
0.481397
0.479713
0.478042
0.476388
0.474751
0.473135
0.471541
0.469972
0.46843
0.466915
0.46543
0.463976
0.462552
0.461159
0.459797
0.458466
0.457164
0.455889
0.45464
0.453415
0.452211
0.451025
0.449854
0.448693
0.447538
0.446383
0.445224
0.444055
0.442869
0.441659
0.440419
0.439139
0.437813
0.43643
0.434979
0.433451
0.431832
0.43011
0.428271
0.426298
0.424175
0.421882
0.419401
0.416708
0.413778
0.410587
0.407103
0.403295
0.399127
0.394563
0.38956
0.384072
0.378053
0.371449
0.364205
0.356262
0.347557
0.338025
0.327599
0.31621
0.303789
0.290268
0.275581
0.25967
0.24248
0.223971
0.204112
0.182889
0.16031
0.136401
0.111214
0.0848262
0.0573413
0.028888
-0.000381585
0.532051
0.531921
0.531587
0.531062
0.530386
0.52958
0.528657
0.527631
0.526515
0.525323
0.524068
0.522759
0.521403
0.520009
0.518581
0.517125
0.515644
0.514141
0.512619
0.51108
0.509525
0.507956
0.506374
0.504781
0.503177
0.501563
0.49994
0.498309
0.496672
0.495029
0.493382
0.491732
0.49008
0.48843
0.486782
0.485138
0.483502
0.481874
0.480258
0.478656
0.47707
0.475502
0.473954
0.472428
0.470927
0.469452
0.468005
0.466587
0.465198
0.463839
0.462512
0.461215
0.459949
0.458712
0.457504
0.456323
0.455166
0.454033
0.45292
0.451824
0.450742
0.44967
0.448603
0.447537
0.446467
0.445386
0.444289
0.443169
0.442019
0.440831
0.439595
0.438304
0.436945
0.435508
0.433981
0.432349
0.430597
0.428709
0.426667
0.42445
0.422037
0.419402
0.416519
0.413358
0.409886
0.406067
0.40186
0.397223
0.392107
0.386461
0.380227
0.373345
0.36575
0.357371
0.348136
0.337966
0.326782
0.314503
0.301048
0.286337
0.270296
0.252857
0.233964
0.213573
0.191661
0.168225
0.143288
0.116904
0.089157
0.0601638
0.0300732
-0.000936496
0.529889
0.529775
0.529482
0.529021
0.528422
0.527705
0.526877
0.52595
0.524934
0.523843
0.522686
0.521472
0.520208
0.518902
0.517559
0.516183
0.514778
0.513349
0.511898
0.510426
0.508937
0.507432
0.505913
0.50438
0.502836
0.501282
0.499718
0.498147
0.496569
0.494985
0.493398
0.491809
0.490219
0.48863
0.487045
0.485465
0.483893
0.48233
0.480779
0.479242
0.477722
0.476219
0.474737
0.473278
0.471842
0.470433
0.469051
0.467698
0.466374
0.465081
0.463818
0.462587
0.461387
0.460217
0.459076
0.457965
0.45688
0.45582
0.454784
0.453768
0.452769
0.451785
0.450811
0.449844
0.448879
0.447911
0.446934
0.445943
0.444931
0.44389
0.442814
0.441693
0.440517
0.439276
0.437958
0.43655
0.435038
0.433406
0.431636
0.429709
0.427602
0.425292
0.42275
0.419948
0.416851
0.413422
0.409621
0.4054
0.40071
0.395495
0.389695
0.383242
0.376066
0.368087
0.359223
0.349387
0.338484
0.326421
0.3131
0.298425
0.282302
0.264647
0.245382
0.224449
0.201807
0.177442
0.151371
0.123646
0.0943582
0.06364
0.0316647
-0.00135673
0.527921
0.52782
0.527559
0.527149
0.526614
0.525969
0.525221
0.524378
0.52345
0.522446
0.521376
0.520247
0.519067
0.517841
0.516576
0.515275
0.513943
0.512584
0.5112
0.509794
0.508368
0.506925
0.505466
0.503992
0.502507
0.50101
0.499504
0.49799
0.49647
0.494944
0.493415
0.491884
0.490354
0.488825
0.4873
0.485781
0.48427
0.482769
0.48128
0.479806
0.478348
0.476909
0.47549
0.474094
0.472722
0.471376
0.470058
0.468768
0.467508
0.466279
0.465082
0.463916
0.462782
0.46168
0.460608
0.459568
0.458556
0.457573
0.456616
0.455683
0.454771
0.45388
0.453004
0.452141
0.451286
0.450437
0.449587
0.448732
0.447866
0.446983
0.446075
0.445135
0.444153
0.443121
0.442027
0.44086
0.439605
0.438248
0.436772
0.435158
0.433384
0.431427
0.429259
0.426852
0.42417
0.421176
0.417828
0.414077
0.409872
0.405152
0.399854
0.393905
0.387226
0.379731
0.371327
0.361914
0.351384
0.339626
0.326525
0.311963
0.295827
0.278005
0.258398
0.236923
0.21352
0.188156
0.160836
0.131609
0.100572
0.0678761
0.033723
-0.00163423
0.526125
0.526034
0.5258
0.525431
0.524948
0.524364
0.523684
0.522913
0.522059
0.521132
0.520139
0.519087
0.517982
0.51683
0.515637
0.514406
0.513142
0.511849
0.510529
0.509185
0.50782
0.506436
0.505035
0.503619
0.502189
0.500749
0.499298
0.49784
0.496374
0.494904
0.493431
0.491957
0.490483
0.489011
0.487544
0.486083
0.48463
0.483188
0.481759
0.480344
0.478947
0.477568
0.47621
0.474875
0.473564
0.47228
0.471023
0.469796
0.468599
0.467433
0.4663
0.465199
0.464132
0.463097
0.462096
0.461128
0.460191
0.459285
0.45841
0.457562
0.456742
0.455946
0.455171
0.454417
0.453678
0.452952
0.452235
0.451523
0.45081
0.450091
0.449361
0.448611
0.447835
0.447023
0.446167
0.445254
0.444273
0.44321
0.442048
0.44077
0.439355
0.43778
0.436019
0.434043
0.431817
0.429303
0.426458
0.423233
0.419574
0.415419
0.410697
0.405333
0.39924
0.392324
0.384479
0.375593
0.365544
0.354201
0.341426
0.327079
0.311018
0.293102
0.273203
0.251205
0.227019
0.200588
0.171899
0.140991
0.107966
0.072993
0.0363109
-0.00177472
0.524483
0.524401
0.524189
0.523854
0.523415
0.522882
0.522258
0.521549
0.520761
0.519901
0.518976
0.517993
0.516956
0.515872
0.514744
0.513578
0.512378
0.511146
0.509886
0.508601
0.507294
0.505966
0.504621
0.50326
0.501885
0.500498
0.499101
0.497695
0.496283
0.494866
0.493447
0.492026
0.490606
0.489189
0.487777
0.486371
0.484975
0.483589
0.482216
0.480859
0.479519
0.478198
0.476898
0.475622
0.47437
0.473145
0.471948
0.470782
0.469646
0.468543
0.467473
0.466437
0.465436
0.464469
0.463538
0.462643
0.461782
0.460956
0.460163
0.459403
0.458675
0.457977
0.457308
0.456665
0.456046
0.455448
0.454868
0.454304
0.45375
0.453203
0.452657
0.452106
0.451544
0.450964
0.450356
0.449712
0.44902
0.448267
0.447438
0.446518
0.445487
0.444322
0.443
0.44149
0.43976
0.437771
0.435482
0.432841
0.429793
0.426273
0.422209
0.417519
0.412109
0.405876
0.398706
0.390469
0.381028
0.37023
0.357914
0.34391
0.328042
0.310135
0.290021
0.267543
0.242573
0.215018
0.184835
0.152048
0.116757
0.0791514
0.0395141
-0.00178123
0.522982
0.522907
0.522712
0.522406
0.522004
0.521514
0.520939
0.520283
0.519552
0.518751
0.517887
0.516965
0.515989
0.514966
0.5139
0.512793
0.511651
0.510477
0.509274
0.508045
0.506792
0.505518
0.504225
0.502916
0.501593
0.500257
0.498911
0.497557
0.496196
0.49483
0.493461
0.492092
0.490723
0.489358
0.487998
0.486646
0.485302
0.48397
0.482652
0.481349
0.480064
0.478798
0.477554
0.476334
0.475139
0.473971
0.472833
0.471725
0.470649
0.469607
0.468599
0.467627
0.466691
0.465793
0.464932
0.464109
0.463324
0.462578
0.461869
0.461198
0.460565
0.459967
0.459404
0.458875
0.458378
0.457912
0.457473
0.457061
0.456671
0.4563
0.455944
0.4556
0.45526
0.45492
0.454572
0.454207
0.453817
0.45339
0.452912
0.45237
0.451745
0.451017
0.450163
0.449155
0.44796
0.446543
0.44486
0.442863
0.440492
0.437684
0.434363
0.430441
0.425821
0.42039
0.414021
0.406574
0.39789
0.387794
0.376098
0.362597
0.347078
0.329321
0.309106
0.286227
0.260499
0.231779
0.19998
0.165096
0.127218
0.0865533
0.0434367
-0.00166966
0.521608
0.521539
0.52136
0.521077
0.520706
0.520254
0.519721
0.519111
0.518429
0.51768
0.51687
0.516002
0.515083
0.514115
0.513104
0.512052
0.510965
0.509844
0.508694
0.507516
0.506315
0.505092
0.503849
0.50259
0.501316
0.500029
0.498731
0.497425
0.496112
0.494795
0.493475
0.492154
0.490835
0.489519
0.488209
0.486906
0.485613
0.484332
0.483065
0.481814
0.480581
0.479368
0.478177
0.477011
0.475871
0.474759
0.473676
0.472625
0.471607
0.470624
0.469678
0.468768
0.467897
0.467065
0.466274
0.465524
0.464815
0.464148
0.463524
0.462942
0.462403
0.461906
0.461451
0.461038
0.460665
0.460332
0.460037
0.459779
0.459557
0.459366
0.459206
0.459072
0.458961
0.458868
0.458788
0.458713
0.458636
0.458548
0.458437
0.45829
0.458093
0.457826
0.457468
0.456994
0.456374
0.455572
0.454547
0.453251
0.451627
0.449608
0.447118
0.444066
0.44035
0.435849
0.430427
0.423927
0.416172
0.406965
0.396083
0.383287
0.368316
0.350897
0.330747
0.307592
0.281175
0.251279
0.217754
0.18054
0.139704
0.0954661
0.048219
-0.0014611
0.520352
0.520288
0.520122
0.51986
0.519516
0.519094
0.518598
0.518028
0.51739
0.516687
0.515924
0.515106
0.514236
0.513318
0.512357
0.511356
0.510319
0.509248
0.508146
0.507018
0.505864
0.504688
0.503493
0.50228
0.501052
0.499812
0.49856
0.4973
0.496033
0.494761
0.493487
0.492212
0.49094
0.48967
0.488407
0.487152
0.485907
0.484674
0.483456
0.482254
0.48107
0.479908
0.478768
0.477653
0.476565
0.475506
0.474477
0.473481
0.472519
0.471594
0.470706
0.469858
0.46905
0.468284
0.467561
0.466882
0.466249
0.465661
0.465121
0.464628
0.464184
0.463788
0.463441
0.463144
0.462896
0.462697
0.462547
0.462445
0.462391
0.462384
0.462422
0.462503
0.462625
0.462784
0.462977
0.4632
0.463445
0.463706
0.463975
0.464239
0.464487
0.464703
0.464867
0.464958
0.464947
0.464802
0.464485
0.463948
0.463137
0.461987
0.460419
0.458344
0.455653
0.452221
0.447902
0.442527
0.435899
0.427796
0.417964
0.40612
0.39195
0.375117
0.355264
0.332026
0.30505
0.274018
0.238679
0.198892
0.154673
0.106237
0.0540434
-0.00118633
0.519205
0.519145
0.518991
0.518746
0.518424
0.518031
0.517565
0.517031
0.51643
0.515768
0.515047
0.514273
0.513448
0.512576
0.511661
0.510706
0.509714
0.508688
0.507633
0.506549
0.50544
0.504309
0.503157
0.501988
0.500804
0.499607
0.498398
0.497181
0.495957
0.494729
0.493498
0.492267
0.491038
0.489813
0.488594
0.487383
0.486183
0.484996
0.483823
0.482668
0.481531
0.480416
0.479325
0.478259
0.47722
0.476212
0.475235
0.474292
0.473384
0.472514
0.471683
0.470894
0.470147
0.469445
0.468789
0.468181
0.467621
0.467112
0.466654
0.46625
0.465899
0.465603
0.465364
0.465182
0.465058
0.464993
0.464988
0.465043
0.465159
0.465335
0.465572
0.46587
0.466226
0.466641
0.467112
0.467636
0.46821
0.468829
0.469486
0.470174
0.470882
0.471598
0.472307
0.472988
0.473618
0.474169
0.474605
0.474883
0.474951
0.474746
0.474192
0.4732
0.471661
0.469445
0.4664
0.462345
0.457067
0.450318
0.441811
0.431219
0.418168
0.402247
0.383005
0.359968
0.332653
0.300602
0.263419
0.220827
0.172737
0.119333
0.0611329
-0.000931957
0.518159
0.518103
0.517959
0.517729
0.517427
0.517057
0.516619
0.516115
0.515548
0.514921
0.514238
0.513503
0.512718
0.511887
0.511013
0.5101
0.50915
0.508167
0.507153
0.506111
0.505043
0.503953
0.502843
0.501715
0.500571
0.499414
0.498246
0.497069
0.495886
0.494698
0.493508
0.492317
0.491129
0.489945
0.488768
0.4876
0.486442
0.485297
0.484168
0.483056
0.481963
0.480893
0.479847
0.478827
0.477836
0.476876
0.475948
0.475055
0.474199
0.473382
0.472606
0.471874
0.471186
0.470546
0.469955
0.469415
0.468928
0.468495
0.468118
0.467799
0.467541
0.467344
0.46721
0.467142
0.467141
0.467209
0.467347
0.467557
0.467841
0.4682
0.468636
0.469149
0.469741
0.470412
0.471162
0.47199
0.472896
0.473877
0.474929
0.476048
0.477227
0.478457
0.479726
0.48102
0.482319
0.483599
0.484828
0.485971
0.486978
0.487792
0.488342
0.488541
0.488281
0.487434
0.485842
0.483317
0.479634
0.474521
0.467661
0.458678
0.447138
0.432543
0.414335
0.391901
0.364595
0.331764
0.292803
0.247225
0.194756
0.135457
0.0698565
-0.000857466
0.517209
0.517156
0.51702
0.516804
0.516519
0.516169
0.515755
0.515278
0.51474
0.514145
0.513495
0.512795
0.512046
0.511251
0.510415
0.50954
0.508628
0.507683
0.506707
0.505703
0.504674
0.503622
0.502549
0.501459
0.500353
0.499234
0.498103
0.496964
0.495818
0.494668
0.493516
0.492363
0.491214
0.490068
0.48893
0.4878
0.486682
0.485577
0.484488
0.483417
0.482366
0.481338
0.480335
0.479358
0.478412
0.477496
0.476615
0.47577
0.474963
0.474197
0.473473
0.472795
0.472164
0.471584
0.471055
0.470581
0.470163
0.469804
0.469506
0.469271
0.469101
0.469
0.46897
0.469013
0.469132
0.46933
0.469608
0.469971
0.470421
0.47096
0.471592
0.472318
0.473143
0.474068
0.475096
0.476227
0.477465
0.478808
0.480257
0.481811
0.483467
0.48522
0.487062
0.488984
0.490971
0.493006
0.495064
0.497113
0.499114
0.501015
0.502751
0.504242
0.505387
0.50606
0.506106
0.505333
0.503507
0.500343
0.495492
0.488538
0.478982
0.466236
0.449616
0.428347
0.401568
0.368368
0.327841
0.279187
0.22183
0.155617
0.0809541
-0.000822842
0.516349
0.516299
0.516169
0.515965
0.515694
0.515363
0.514969
0.514516
0.514004
0.513436
0.512816
0.512146
0.511429
0.510668
0.509865
0.509024
0.508147
0.507236
0.506295
0.505327
0.504332
0.503315
0.502278
0.501222
0.500151
0.499066
0.49797
0.496866
0.495755
0.49464
0.493522
0.492405
0.491291
0.490181
0.489079
0.487985
0.486904
0.485836
0.484784
0.483751
0.482739
0.48175
0.480786
0.479851
0.478945
0.478073
0.477235
0.476435
0.475674
0.474956
0.474282
0.473655
0.473078
0.472554
0.472085
0.471674
0.471323
0.471034
0.470811
0.470657
0.470574
0.470565
0.470635
0.470785
0.47102
0.471343
0.471758
0.472269
0.47288
0.473595
0.474418
0.475354
0.476406
0.477581
0.478881
0.480312
0.481877
0.48358
0.485425
0.487413
0.489545
0.491823
0.494243
0.496801
0.49949
0.502299
0.505209
0.508199
0.511237
0.51428
0.517276
0.520152
0.522818
0.525157
0.527021
0.528224
0.528531
0.527648
0.52521
0.520762
0.513748
0.503491
0.489174
0.469832
0.444344
0.411457
0.369822
0.318141
0.255288
0.180816
0.0949502
-0.000627933
0.515573
0.515526
0.515403
0.515208
0.51495
0.514634
0.514259
0.513826
0.513336
0.512793
0.512199
0.511557
0.510868
0.510136
0.509364
0.508553
0.507707
0.506828
0.505918
0.504981
0.504018
0.503033
0.502027
0.501004
0.499964
0.498911