/*--------------------------------*- C++ -*----------------------------------*\
| =========                 |                                                 |
| \\      /  F ield         | OpenFOAM: The Open Source CFD Toolbox           |
|  \\    /   O peration     | Version:  2206                                  |
|   \\  /    A nd           | Website:  www.openfoam.com                      |
|    \\/     M anipulation  |                                                 |
\*---------------------------------------------------------------------------*/
FoamFile
{
    version     2.0;
    format      ascii;
    arch        "LSB;label=32;scalar=64";
    class       volScalarField;
    location    "19.1001";
    object      p;
}
// * * * * * * * * * * * * * * * * * * * * * * * * * * * * * * * * * * * * * //

dimensions      [0 2 -2 0 0 0 0];

internalField   nonuniform List<scalar> 
1814
(
-0.853822
-0.837591
-0.822614
-0.808526
-0.795303
-0.783153
-0.772379
-0.763275
-0.756061
-0.750874
-0.747729
-0.746523
-0.747216
-0.749749
-0.753895
-0.759395
-0.765994
-0.773438
-0.781493
-0.789954
-0.798659
-0.807492
-0.81638
-0.825295
-0.834244
-0.843258
-0.852386
-0.861681
-0.871199
-0.88099
-0.8911
-0.90156
-0.912399
-0.923634
-0.935267
-0.947314
-0.959807
-0.972774
-0.986248
-1.00028
-1.01495
-1.03034
-1.04659
-1.06383
-1.08224
-1.10205
-1.1235
-1.14688
-1.17253
-1.20081
-1.23211
-1.26677
-1.30495
-1.34708
-0.857023
-0.840807
-0.825761
-0.811576
-0.798227
-0.785925
-0.774982
-0.765695
-0.758292
-0.752916
-0.749606
-0.748295
-0.748912
-0.751367
-0.755456
-0.760913
-0.767468
-0.774861
-0.782855
-0.791245
-0.799868
-0.808609
-0.817399
-0.826213
-0.83506
-0.843975
-0.853008
-0.862211
-0.871642
-0.881348
-0.891368
-0.901737
-0.912478
-0.923603
-0.935117
-0.947038
-0.959388
-0.972195
-0.985494
-0.999337
-1.0138
-1.02897
-1.04497
-1.06195
-1.0801
-1.09962
-1.12078
-1.14389
-1.16931
-1.19753
-1.22919
-1.26535
-1.30853
-1.36413
-0.859655
-0.843778
-0.829162
-0.815534
-0.802844
-0.791244
-0.780975
-0.772256
-0.765253
-0.760102
-0.756864
-0.755508
-0.755928
-0.758003
-0.7616
-0.76652
-0.772516
-0.779354
-0.786827
-0.794752
-0.802978
-0.81139
-0.819913
-0.828512
-0.837181
-0.845937
-0.854807
-0.863828
-0.873037
-0.882473
-0.892165
-0.902134
-0.912407
-0.923003
-0.933936
-0.945221
-0.956876
-0.96893
-0.981415
-0.994382
-1.00789
-1.02204
-1.03692
-1.05268
-1.06947
-1.08749
-1.107
-1.12828
-1.15173
-1.17788
-1.20755
-1.24207
-1.28366
-1.33587
-0.865565
-0.849935
-0.835575
-0.822321
-0.810156
-0.799177
-0.789538
-0.781393
-0.774868
-0.770049
-0.766953
-0.765544
-0.765731
-0.767392
-0.770409
-0.774663
-0.779962
-0.786107
-0.792912
-0.800213
-0.807873
-0.815778
-0.823855
-0.832064
-0.840385
-0.848814
-0.857358
-0.866033
-0.874857
-0.883848
-0.893022
-0.902395
-0.911992
-0.921833
-0.931928
-0.942287
-0.952926
-0.963865
-0.975137
-0.986781
-0.998851
-1.01142
-1.02457
-1.03841
-1.05306
-1.06869
-1.08553
-1.10383
-1.12391
-1.14625
-1.17157
-1.20099
-1.23551
-1.27619
-0.86969
-0.854531
-0.840647
-0.827957
-0.816452
-0.806177
-0.797226
-0.789697
-0.783663
-0.779161
-0.77619
-0.774717
-0.77468
-0.775989
-0.778529
-0.782196
-0.786847
-0.792358
-0.798559
-0.805317
-0.812486
-0.819911
-0.827555
-0.835395
-0.843398
-0.851523
-0.859755
-0.868092
-0.876527
-0.885056
-0.893659
-0.902359
-0.911202
-0.920203
-0.929353
-0.938655
-0.948121
-0.957771
-0.967631
-0.977732
-0.988119
-0.998847
-1.00998
-1.02158
-1.03373
-1.0466
-1.06043
-1.07533
-1.09151
-1.10929
-1.12912
-1.15223
-1.17885
-1.20921
-0.872338
-0.858032
-0.844857
-0.832807
-0.821886
-0.812153
-0.803729
-0.796703
-0.791105
-0.786933
-0.784164
-0.782759
-0.782664
-0.783795
-0.786038
-0.789293
-0.793471
-0.798475
-0.804142
-0.810465
-0.817282
-0.824308
-0.831553
-0.839035
-0.846708
-0.854497
-0.862385
-0.870336
-0.878351
-0.886419
-0.894419
-0.902369
-0.910387
-0.9185
-0.926677
-0.934898
-0.943168
-0.951497
-0.959906
-0.968408
-0.977053
-0.985889
-0.994955
-1.00429
-1.01396
-1.02404
-1.03458
-1.04573
-1.05763
-1.07045
-1.08445
-1.10005
-1.1174
-1.1364
-0.874246
-0.860623
-0.848037
-0.836573
-0.826207
-0.816938
-0.808956
-0.802361
-0.79715
-0.793284
-0.790692
-0.789326
-0.789161
-0.790134
-0.792171
-0.795189
-0.799102
-0.803774
-0.809102
-0.815013
-0.821374
-0.828058
-0.835018
-0.842226
-0.849615
-0.857126
-0.86471
-0.872317
-0.879914
-0.88745
-0.894872
-0.902184
-0.909442
-0.916668
-0.923859
-0.930993
-0.938072
-0.945081
-0.952054
-0.958929
-0.96578
-0.972663
-0.979599
-0.9866
-0.993685
-1.00087
-1.00818
-1.01562
-1.02319
-1.03091
-1.03885
-1.0472
-1.05609
-1.06552
-0.874993
-0.861911
-0.849815
-0.838784
-0.82886
-0.820101
-0.81261
-0.806454
-0.801639
-0.798118
-0.795812
-0.794662
-0.794616
-0.795612
-0.797573
-0.800413
-0.80407
-0.808449
-0.813466
-0.81904
-0.825079
-0.831505
-0.838244
-0.845228
-0.852387
-0.859661
-0.866978
-0.87427
-0.881479
-0.888562
-0.895485
-0.902228
-0.9088
-0.915201
-0.921431
-0.927487
-0.933368
-0.939077
-0.944619
-0.949998
-0.955233
-0.960342
-0.965334
-0.970214
-0.97497
-0.979539
-0.983894
-0.987993
-0.9917
-0.994939
-0.997749
-1.00023
-1.00246
-1.00447
-0.87453
-0.861874
-0.850183
-0.839535
-0.829998
-0.821631
-0.814497
-0.808715
-0.804342
-0.801249
-0.799297
-0.798423
-0.798567
-0.799657
-0.801624
-0.804399
-0.807921
-0.812125
-0.816944
-0.822314
-0.828168
-0.834435
-0.841036
-0.847892
-0.854909
-0.862027
-0.869178
-0.876259
-0.883198
-0.889935
-0.896431
-0.902659
-0.908603
-0.914254
-0.919618
-0.924711
-0.92953
-0.934094
-0.938398
-0.942506
-0.946391
-0.950046
-0.95349
-0.956749
-0.959846
-0.962676
-0.965068
-0.966856
-0.967856
-0.968009
-0.967384
-0.966078
-0.964198
-0.961837
-0.874023
-0.861621
-0.850161
-0.839725
-0.830379
-0.822177
-0.815121
-0.809433
-0.80532
-0.802498
-0.80069
-0.799877
-0.800051
-0.801153
-0.803109
-0.805856
-0.809332
-0.813477
-0.81823
-0.82353
-0.829313
-0.835508
-0.842041
-0.848831
-0.855798
-0.862854
-0.869917
-0.876903
-0.883738
-0.890359
-0.896718
-0.902788
-0.908544
-0.913983
-0.919133
-0.924002
-0.928576
-0.932861
-0.936867
-0.940608
-0.944089
-0.947316
-0.950321
-0.953158
-0.955909
-0.958706
-0.961441
-0.963651
-0.965017
-0.965579
-0.965512
-0.964967
-0.964067
-0.962953
-1.4025
-1.54353
-1.77467
-2.02839
-2.22524
-2.30756
-2.24944
-2.06361
-1.78493
-1.45676
-1.11364
-0.787453
-0.491086
-0.238205
-0.0348819
0.121528
0.23616
0.316903
0.376851
0.40407
0.416183
0.410452
0.39262
0.355321
0.285683
0.174778
0.0213031
-0.167351
-0.36847
-0.554917
-0.705314
-0.812856
-0.878457
-0.883649
-0.838694
-0.755606
-0.652482
-0.556381
-0.470242
-0.400057
-0.349293
-0.315743
-0.295163
-0.283761
-0.277859
-0.278754
-0.290034
-0.310076
-0.337018
-0.37063
-0.408493
-0.446911
-0.482179
-0.509312
-0.522021
-0.515817
-0.491617
-0.45362
-0.406697
-0.355904
-0.305765
-0.260093
-0.221638
-0.192018
-0.172012
-0.161931
-0.161592
-0.170102
-0.186375
-0.208857
-0.234709
-0.260474
-0.284466
-0.302713
-0.312263
-0.321844
-0.317193
-0.295329
-0.271122
-0.246595
-0.223418
-0.204008
-0.191043
-0.185411
-0.187313
-1.45174
-1.5804
-1.73614
-1.88754
-1.99418
-2.01932
-1.94622
-1.78075
-1.55031
-1.2878
-1.01141
-0.740383
-0.489958
-0.270825
-0.0878484
0.0592488
0.172405
0.255046
0.311328
0.371904
0.411125
0.424701
0.413156
0.374209
0.299953
0.183438
0.0295626
-0.147772
-0.334916
-0.512073
-0.655264
-0.765925
-0.844576
-0.8472
-0.783696
-0.698913
-0.603736
-0.512257
-0.43321
-0.372605
-0.33135
-0.306809
-0.29495
-0.291411
-0.292158
-0.295634
-0.305656
-0.322554
-0.341246
-0.360323
-0.383909
-0.410986
-0.435363
-0.453549
-0.461366
-0.455307
-0.433815
-0.400502
-0.358373
-0.311838
-0.265266
-0.22215
-0.185223
-0.156553
-0.13729
-0.127703
-0.127186
-0.134358
-0.148512
-0.169149
-0.1936
-0.216406
-0.240673
-0.258084
-0.273526
-0.288964
-0.292407
-0.28301
-0.260772
-0.236165
-0.216975
-0.19985
-0.186858
-0.180348
-0.181047
-1.4033
-1.48576
-1.57828
-1.66808
-1.73388
-1.74677
-1.68626
-1.55494
-1.37639
-1.17099
-0.950521
-0.729403
-0.520446
-0.332807
-0.170936
-0.0352092
0.0787757
0.174104
0.251864
0.316702
0.362906
0.38349
0.380346
0.354745
0.293388
0.189762
0.0452375
-0.135844
-0.335581
-0.519664
-0.667999
-0.788323
-0.860232
-0.854717
-0.789782
-0.69145
-0.586876
-0.49403
-0.416111
-0.357136
-0.318173
-0.296985
-0.289846
-0.292919
-0.301806
-0.313268
-0.327007
-0.346877
-0.363984
-0.374688
-0.383609
-0.391972
-0.403154
-0.413012
-0.414184
-0.404676
-0.37984
-0.348146
-0.312734
-0.270881
-0.228207
-0.188616
-0.154377
-0.127672
-0.109677
-0.101656
-0.103041
-0.111394
-0.122213
-0.140014
-0.161741
-0.177693
-0.205107
-0.23238
-0.249976
-0.261836
-0.271224
-0.270951
-0.260074
-0.243434
-0.22478
-0.206373
-0.192693
-0.184995
-0.183341
-1.324
-1.37997
-1.44209
-1.50262
-1.54156
-1.53403
-1.47722
-1.37952
-1.2474
-1.09024
-0.918158
-0.741136
-0.56846
-0.406977
-0.260416
-0.130219
-0.015578
0.0872126
0.181198
0.261976
0.324417
0.365973
0.383173
0.3675
0.306379
0.192585
0.0311593
-0.1677
-0.37826
-0.576537
-0.750648
-0.871411
-0.923061
-0.903917
-0.829781
-0.721124
-0.604022
-0.498707
-0.412636
-0.348713
-0.309171
-0.289007
-0.284444
-0.290875
-0.304543
-0.323571
-0.346799
-0.371009
-0.390655
-0.407397
-0.411372
-0.402352
-0.394821
-0.387259
-0.378972
-0.363919
-0.339124
-0.305458
-0.270703
-0.235047
-0.196887
-0.161597
-0.131078
-0.109168
-0.0961598
-0.0934667
-0.0975903
-0.101836
-0.104654
-0.119998
-0.140684
-0.156512
-0.174929
-0.197748
-0.22052
-0.243293
-0.260015
-0.265647
-0.25889
-0.2463
-0.230875
-0.214229
-0.200994
-0.192132
-0.189549
-1.24245
-1.27832
-1.31702
-1.35108
-1.36733
-1.35553
-1.31529
-1.24889
-1.15627
-1.04092
-0.908895
-0.76678
-0.622895
-0.482899
-0.349195
-0.22169
-0.100285
0.0145228
0.125316
0.226493
0.305216
0.360001
0.386692
0.371995
0.306326
0.184426
0.00906284
-0.206988
-0.440439
-0.672623
-0.865329
-0.990534
-1.0359
-0.996708
-0.898922
-0.771911
-0.635435
-0.512973
-0.414826
-0.340996
-0.293465
-0.269581
-0.267369
-0.281505
-0.304565
-0.334469
-0.36806
-0.400329
-0.427083
-0.441809
-0.437925
-0.420243
-0.404167
-0.384269
-0.360841
-0.338767
-0.310378
-0.275638
-0.242192
-0.209505
-0.179219
-0.155289
-0.135875
-0.115168
-0.0971747
-0.0965232
-0.10162
-0.10116
-0.104659
-0.112715
-0.124004
-0.141682
-0.160835
-0.186056
-0.211199
-0.231726
-0.245141
-0.250066
-0.247674
-0.23965
-0.229202
-0.217985
-0.206195
-0.197498
-0.194769
-1.15678
-1.17826
-1.19961
-1.21712
-1.22599
-1.22194
-1.20199
-1.16405
-1.10617
-1.0284
-0.931122
-0.8167
-0.692477
-0.565643
-0.438774
-0.310858
-0.180747
-0.0498618
0.0793732
0.199118
0.299176
0.368744
0.407467
0.402427
0.335528
0.199415
0.00622227
-0.222724
-0.474875
-0.723519
-0.922611
-1.04671
-1.08822
-1.04347
-0.937301
-0.79676
-0.651442
-0.521392
-0.413942
-0.336554
-0.286859
-0.263286
-0.260838
-0.275978
-0.303972
-0.341039
-0.383062
-0.424786
-0.460737
-0.479153
-0.474533
-0.450741
-0.418335
-0.383595
-0.349475
-0.317252
-0.284798
-0.251934
-0.220516
-0.191426
-0.165359
-0.144182
-0.130169
-0.119237
-0.111975
-0.111813
-0.115473
-0.118389
-0.120992
-0.123687
-0.130569
-0.142735
-0.158137
-0.177028
-0.197124
-0.215
-0.228569
-0.236754
-0.239114
-0.236077
-0.229167
-0.220699
-0.210071
-0.202333
-0.198722
-1.07534
-1.08538
-1.09538
-1.10479
-1.11251
-1.11715
-1.11695
-1.10799
-1.08369
-1.03794
-0.968504
-0.876978
-0.769364
-0.649767
-0.520359
-0.383141
-0.241596
-0.0925165
0.0497219
0.176107
0.288007
0.384224
0.434416
0.418286
0.330432
0.180302
-0.017484
-0.241268
-0.479846
-0.703492
-0.882511
-0.994526
-1.02912
-0.994247
-0.899699
-0.772614
-0.640853
-0.517169
-0.412313
-0.33663
-0.287675
-0.263812
-0.26264
-0.27842
-0.307514
-0.345182
-0.388716
-0.434752
-0.473919
-0.494973
-0.490832
-0.464991
-0.42697
-0.385444
-0.343013
-0.302049
-0.263491
-0.228343
-0.198379
-0.174914
-0.157286
-0.144835
-0.137686
-0.133083
-0.130031
-0.130218
-0.131359
-0.130861
-0.129511
-0.129668
-0.133666
-0.141542
-0.153416
-0.169041
-0.186393
-0.20312
-0.217061
-0.226145
-0.230976
-0.231168
-0.227775
-0.222045
-0.214731
-0.207721
-0.202919
-1.0063
-1.00821
-1.01082
-1.01545
-1.02383
-1.0378
-1.05788
-1.07824
-1.08464
-1.06167
-1.00572
-0.922584
-0.82455
-0.717402
-0.59882
-0.465019
-0.311022
-0.141451
0.028247
0.170823
0.273664
0.342406
0.378273
0.359113
0.282492
0.151439
-0.0262568
-0.232426
-0.446129
-0.644311
-0.802623
-0.902249
-0.935662
-0.911442
-0.837263
-0.734093
-0.621948
-0.513423
-0.421995
-0.354202
-0.309562
-0.286527
-0.282045
-0.293049
-0.316662
-0.349065
-0.386838
-0.42693
-0.460699
-0.479715
-0.478297
-0.456241
-0.421033
-0.379798
-0.337147
-0.296027
-0.25806
-0.224492
-0.19615
-0.173553
-0.156415
-0.147073
-0.142512
-0.141209
-0.141504
-0.14198
-0.142252
-0.140609
-0.137775
-0.136294
-0.137849
-0.142891
-0.151939
-0.164474
-0.179251
-0.194516
-0.208096
-0.218339
-0.225174
-0.228323
-0.227143
-0.223216
-0.21758
-0.211763
-0.207168
-0.959104
-0.956186
-0.953645
-0.953427
-0.959899
-0.977653
-1.00789
-1.04571
-1.07447
-1.06953
-1.01787
-0.926806
-0.821337
-0.71338
-0.603403
-0.478701
-0.330594
-0.170399
-0.014929
0.120596
0.224976
0.296768
0.328984
0.307373
0.238364
0.123029
-0.034623
-0.217457
-0.406661
-0.583352
-0.725903
-0.818206
-0.854651
-0.839324
-0.782367
-0.699272
-0.606125
-0.515383
-0.4367
-0.375324
-0.332886
-0.309025
-0.301546
-0.308392
-0.326722
-0.353171
-0.384561
-0.4171
-0.443892
-0.458657
-0.457015
-0.439163
-0.409089
-0.372094
-0.332563
-0.293631
-0.257454
-0.225573
-0.199044
-0.178568
-0.164556
-0.154288
-0.148679
-0.146424
-0.14589
-0.145317
-0.144269
-0.142415
-0.140246
-0.139359
-0.140796
-0.145583
-0.153923
-0.165225
-0.178244
-0.191466
-0.203547
-0.213403
-0.22021
-0.223552
-0.224183
-0.221773
-0.217713
-0.21329
-0.209601
-0.961787
-0.960806
-0.960397
-0.961178
-0.964807
-0.975895
-0.996312
-1.01992
-1.03492
-1.02627
-0.982816
-0.909458
-0.812216
-0.703902
-0.586035
-0.455201
-0.309966
-0.158036
-0.0125198
0.111873
0.205148
0.263202
0.280402
0.262939
0.203255
0.102102
-0.0505999
-0.212374
-0.385446
-0.548399
-0.679902
-0.766042
-0.802603
-0.794775
-0.749149
-0.678842
-0.597082
-0.515741
-0.444173
-0.387203
-0.347016
-0.323409
-0.314941
-0.318696
-0.334348
-0.356804
-0.383684
-0.411156
-0.433423
-0.444626
-0.441237
-0.426373
-0.400172
-0.366446
-0.329602
-0.292989
-0.258837
-0.228712
-0.203229
-0.183151
-0.168433
-0.158093
-0.151705
-0.148287
-0.146644
-0.145596
-0.144341
-0.142751
-0.141275
-0.141075
-0.143115
-0.148015
-0.155879
-0.166242
-0.178119
-0.190314
-0.201554
-0.210814
-0.217394
-0.220966
-0.221666
-0.220305
-0.21729
-0.213744
-0.21073
-1.37547
-1.41509
-1.49077
-1.5913
-1.69528
-1.77104
-1.80838
-1.77708
-1.68952
-1.57256
-1.44669
-1.34638
-1.29696
-1.29175
-1.29822
-1.28504
-1.23217
-1.13533
-1.00455
-0.855584
-0.704677
-0.564975
-0.445578
-0.355833
-0.306107
-0.289561
-0.310115
-0.376849
-0.471012
-0.596334
-0.734263
-0.854281
-0.941764
-0.985815
-0.982483
-0.936137
-0.857576
-0.760851
-0.659029
-0.56342
-0.478296
-0.408332
-0.361594
-0.330478
-0.317083
-0.3232
-0.350434
-0.394777
-0.451722
-0.521669
-0.596506
-0.665169
-0.71659
-0.743739
-0.744087
-0.717815
-0.670256
-0.608935
-0.540717
-0.472991
-0.407607
-0.355778
-0.315963
-0.286867
-0.271514
-0.269855
-0.279612
-0.299237
-0.328827
-0.367087
-0.409067
-0.44948
-0.483064
-0.505067
-0.513091
-0.506211
-0.484827
-0.45226
-0.412277
-0.369506
-0.327188
-0.291365
-0.263082
-0.24258
-1.49038
-1.5548
-1.67563
-1.84077
-2.01908
-2.15687
-2.23223
-2.1854
-2.03107
-1.80547
-1.55059
-1.31542
-1.13996
-1.02305
-0.943378
-0.893493
-0.846535
-0.785239
-0.70144
-0.6005
-0.495006
-0.396319
-0.314803
-0.258938
-0.235075
-0.245046
-0.296498
-0.378413
-0.504589
-0.656092
-0.80325
-0.927988
-1.01413
-1.05054
-1.03441
-0.973238
-0.879773
-0.770339
-0.656787
-0.554489
-0.465183
-0.395921
-0.348252
-0.317189
-0.303982
-0.310274
-0.336398
-0.380465
-0.437252
-0.503857
-0.577677
-0.647125
-0.700924
-0.730542
-0.734017
-0.710703
-0.665853
-0.606221
-0.540023
-0.473728
-0.41088
-0.356265
-0.317381
-0.288564
-0.271613
-0.267354
-0.27456
-0.292591
-0.320712
-0.356055
-0.394796
-0.432308
-0.463319
-0.483553
-0.491473
-0.484748
-0.464493
-0.433401
-0.395548
-0.354597
-0.313796
-0.278858
-0.253467
-0.238756
-0.231095
-1.56605
-1.64713
-1.8062
-2.02953
-2.27332
-2.47207
-2.5296
-2.4406
-2.21114
-1.88847
-1.52157
-1.16878
-0.888963
-0.695553
-0.573339
-0.497674
-0.447082
-0.405642
-0.365881
-0.309077
-0.246665
-0.187174
-0.139672
-0.112767
-0.114685
-0.154873
-0.23372
-0.346382
-0.49945
-0.66838
-0.826759
-0.954605
-1.03675
-1.06445
-1.03643
-0.96411
-0.862432
-0.746484
-0.629854
-0.523649
-0.437914
-0.37557
-0.328368
-0.298771
-0.286253
-0.291138
-0.314499
-0.355517
-0.410243
-0.472517
-0.539924
-0.606805
-0.66084
-0.69317
-0.699979
-0.681617
-0.641744
-0.586806
-0.524193
-0.460274
-0.400773
-0.347997
-0.307307
-0.279344
-0.261499
-0.254338
-0.259324
-0.275548
-0.300323
-0.331818
-0.366968
-0.401167
-0.429376
-0.44872
-0.456586
-0.451255
-0.433413
-0.404623
-0.368423
-0.32827
-0.290957
-0.260272
-0.239335
-0.227994
-0.225274
-1.57147
-1.65692
-1.84522
-2.10321
-2.36707
-2.56115
-2.60494
-2.46742
-2.18548
-1.82071
-1.42251
-1.02499
-0.670466
-0.390053
-0.212116
-0.122907
-0.0808591
-0.0505655
-0.0248098
-0.00534946
0.024275
0.0533101
0.0735081
0.0746932
0.0447739
-0.0233934
-0.131915
-0.281668
-0.460919
-0.64592
-0.810229
-0.935945
-1.01192
-1.03101
-0.994178
-0.914288
-0.808791
-0.692246
-0.580233
-0.48281
-0.407504
-0.350896
-0.310504
-0.284565
-0.272577
-0.275386
-0.294312
-0.329064
-0.377335
-0.434074
-0.49377
-0.553678
-0.605186
-0.638348
-0.648155
-0.635039
-0.60104
-0.551832
-0.494166
-0.434171
-0.377011
-0.326907
-0.286488
-0.257571
-0.239404
-0.231609
-0.234249
-0.246716
-0.267956
-0.296037
-0.327678
-0.358516
-0.384547
-0.403249
-0.411753
-0.409765
-0.396006
-0.368647
-0.332548
-0.296125
-0.264755
-0.239038
-0.221626
-0.213339
-0.213462
-1.52377
-1.59608
-1.8058
-2.08845
-2.34927
-2.50652
-2.4967
-2.31685
-2.01582
-1.64494
-1.2556
-0.883699
-0.551403
-0.271889
-0.048975
0.111274
0.196183
0.225433
0.239999
0.253135
0.26887
0.276778
0.272726
0.250296
0.195913
0.102205
-0.0350808
-0.210557
-0.407318
-0.599389
-0.761076
-0.879861
-0.95067
-0.964811
-0.922085
-0.836326
-0.729069
-0.620681
-0.521424
-0.438215
-0.374465
-0.329225
-0.299337
-0.280129
-0.269627
-0.270866
-0.28525
-0.312138
-0.350096
-0.395997
-0.446027
-0.49665
-0.542774
-0.574887
-0.586888
-0.577582
-0.549257
-0.50607
-0.453894
-0.398427
-0.344671
-0.296582
-0.256838
-0.227388
-0.208039
-0.198591
-0.199243
-0.209411
-0.227959
-0.253021
-0.281478
-0.309722
-0.334628
-0.352791
-0.36195
-0.36288
-0.353516
-0.328312
-0.297595
-0.268322
-0.241279
-0.218933
-0.204125
-0.197863
-0.199503
)
;

boundaryField
{
    inlet
    {
        type            zeroGradient;
    }
    outlet
    {
        type            fixedValue;
        value           nonuniform List<scalar> 0();
    }
    topWall
    {
        type            zeroGradient;
    }
    lowerWall
    {
        type            zeroGradient;
    }
    leadingEdge
    {
        type            zeroGradient;
    }
    trailingEdge
    {
        type            zeroGradient;
    }
    upperSurface
    {
        type            zeroGradient;
    }
    lowerSurface
    {
        type            zeroGradient;
    }
    frontAndBack
    {
        type            empty;
    }
    procBoundary5to1
    {
        type            processor;
        value           nonuniform List<scalar> 
86
(
-1.24976
-1.26466
-1.29569
-1.33595
-1.37591
-1.39138
-1.38333
-1.3459
-1.29844
-1.26548
-1.264
-1.31852
-1.41896
-1.53177
-1.61069
-1.61755
-1.54892
-1.4163
-1.24268
-1.05085
-0.860536
-0.687408
-0.535942
-0.416207
-0.339195
-0.300246
-0.299544
-0.341649
-0.412059
-0.51179
-0.62867
-0.741365
-0.830245
-0.88014
-0.888186
-0.857416
-0.795875
-0.715515
-0.628044
-0.543404
-0.468261
-0.405476
-0.359394
-0.330508
-0.316241
-0.321149
-0.348208
-0.390366
-0.446966
-0.516073
-0.588914
-0.654932
-0.702881
-0.728703
-0.727613
-0.70203
-0.656168
-0.597301
-0.53014
-0.460908
-0.398462
-0.349255
-0.307934
-0.279281
-0.264374
-0.262601
-0.273527
-0.295877
-0.327065
-0.366047
-0.410106
-0.452656
-0.488027
-0.511523
-0.520057
-0.513639
-0.492453
-0.459581
-0.418961
-0.375143
-0.332268
-0.29476
-0.264266
-0.238958
-0.230273
-0.230273
)
;
    }
    procBoundary5to4
    {
        type            processor;
        value           nonuniform List<scalar> 10(-0.871927 -0.874994 -0.877224 -0.882754 -0.8863 -0.887863 -0.888972 -0.889017 -0.888061 -0.887261);
    }
    procBoundary5to6
    {
        type            processor;
        value           nonuniform List<scalar> 
14
(
-0.19667
-0.189188
-0.189074
-0.192508
-0.195783
-0.19824
-0.201107
-0.204623
-0.207411
-0.209093
-0.231507
-0.229735
-0.220816
-0.208547
)
;
    }
}


// ************************************************************************* //
