/*--------------------------------*- C++ -*----------------------------------*\
| =========                 |                                                 |
| \\      /  F ield         | OpenFOAM: The Open Source CFD Toolbox           |
|  \\    /   O peration     | Version:  2206                                  |
|   \\  /    A nd           | Website:  www.openfoam.com                      |
|    \\/     M anipulation  |                                                 |
\*---------------------------------------------------------------------------*/
FoamFile
{
    version     2.0;
    format      ascii;
    arch        "LSB;label=32;scalar=64";
    class       surfaceScalarField;
    location    "19.2";
    object      ddtCorrDdt0(phi);
}
// * * * * * * * * * * * * * * * * * * * * * * * * * * * * * * * * * * * * * //

dimensions      [0 3 -2 0 0 0 0];

oriented        oriented;

internalField   nonuniform List<scalar> 
3613
(
-0.000307344
0.000241457
-0.000175797
-0.000361147
0.000231249
-0.000177446
-0.000411012
0.000195866
-0.000146002
-0.000451263
0.000127584
-8.73328e-05
-0.000473228
1.95886e-05
2.37624e-06
-0.000462707
-0.000122912
0.000112391
-0.00042258
-0.00027019
0.000230063
-0.000397299
-0.00039989
0.000374609
-0.000422907
-0.000538924
0.000564532
-0.000390845
-0.000774283
0.000742221
-0.000228756
-0.000903028
0.000740938
-2.46788e-05
-0.00082131
0.000617234
0.000157367
-0.000651133
0.000469087
0.000300715
-0.000462803
0.000319454
0.000421176
-0.000288508
0.000168047
0.000519307
-0.000112809
1.46777e-05
0.00058485
4.36357e-05
-0.000109178
0.000626305
0.000158426
-0.000199882
0.000641879
0.00024661
-0.000262184
0.000625218
0.000323812
-0.000307152
0.000609003
0.000367232
-0.000351017
0.000689445
0.000289172
-0.000369615
0.000898157
6.97007e-05
-0.000278412
0.00105644
-9.28398e-05
-6.54432e-05
0.000987021
-2.00695e-05
8.94886e-05
0.000728366
0.00023808
2.05754e-05
0.000415834
0.000527119
-0.000214587
0.000142386
0.000723749
-0.000450301
-8.4687e-05
0.000820385
-0.000593312
-0.000255483
0.00083004
-0.000659244
-0.000356978
0.000761013
-0.000659518
-0.000416495
0.0006635
-0.000603983
-0.000444952
0.000555507
-0.000527051
-0.000452181
0.000449073
-0.000441844
-0.000445415
0.000354325
-0.00036109
-0.000433154
0.000277188
-0.00028945
-0.000426159
0.000218269
-0.000225263
-0.000434187
0.000169311
-0.000161283
-0.000461705
0.000112713
-8.51949e-05
-0.000505736
2.56687e-05
1.83621e-05
-0.00056251
-0.000101413
0.000158187
-0.000622443
-0.000275531
0.000335463
-0.000675639
-0.00048291
0.000536106
-0.000711667
-0.000700235
0.000736262
-0.000707139
-0.000900537
0.000896008
-0.000631837
-0.00103649
0.000961186
-0.000493895
-0.00105507
0.000917123
-0.000321941
-0.000976207
0.000804253
-0.000144719
-0.000832872
0.000655649
1.66277e-05
-0.000647444
0.000486098
0.000171399
-0.00044302
0.000288248
0.000330044
-0.000225811
6.71664e-05
0.000461373
-3.62412e-06
-0.000127705
0.000550316
0.000188037
-0.000276981
0.000596433
0.000319116
-0.000365233
0.000604236
0.00037359
-0.000381393
0.00059615
0.000340606
-0.00033252
0.00058781
0.000240283
-0.000231942
0.000578242
9.84924e-05
-8.89239e-05
0.000557175
-4.54666e-05
6.65329e-05
0.000520849
-0.000139193
0.00017552
0.000475826
-0.000154609
0.000199631
0.000426928
-9.87352e-05
0.000147633
0.000370568
1.22722e-05
4.40878e-05
0.000301447
0.000161641
-9.25198e-05
0.000223813
0.000316312
-0.000238678
0.000141404
0.000448133
-0.000365724
5.61941e-05
0.000542583
-0.000457373
-2.83809e-05
0.000592726
-0.000508151
-0.000104389
0.000594303
-0.000518295
-0.000169532
0.00055712
-0.000491977
-0.000221231
0.000492118
-0.000440419
-0.000258604
0.000407733
-0.000370361
-0.000282833
0.00031356
-0.000289331
-0.000296751
0.000217859
-0.00020394
-0.000303517
0.000125715
-0.00011895
-0.000304535
3.8618e-05
-3.76e-05
-0.000301514
-3.96355e-05
3.66141e-05
-0.000298779
-0.000104739
0.000102005
-0.000299547
-0.000159595
0.000160363
-0.000305168
-0.000209048
0.000214668
-0.000315602
-0.00025855
0.000268984
-0.000330112
-0.000312834
0.000327344
-0.0003453
-0.000374808
0.000389995
-0.000346864
-0.000440138
0.000441703
-0.000317295
-0.000486213
0.000456644
-0.000261253
-0.000490337
0.000434294
-0.000188704
-0.000456247
0.000383699
-0.000105199
-0.000393933
0.000310427
-2.82119e-05
-0.000322136
0.000245149
7.66641e-05
-0.000245328
0.000140452
0.000208397
-0.000158882
2.71486e-05
0.00032127
-4.97844e-05
-6.30881e-05
0.000398359
3.88786e-05
-0.000115968
0.000430207
9.42731e-05
-0.000126121
0.000421279
0.000111059
-0.000102131
0.000386709
9.91083e-05
-6.45387e-05
0.000338374
7.72512e-05
-2.8916e-05
0.000285981
5.81571e-05
-5.76447e-06
0.000236701
4.96557e-05
-3.75196e-07
0.000193635
5.67222e-05
-1.36567e-05
0.000155704
8.24844e-05
-4.45536e-05
0.000121566
0.000122766
-8.86277e-05
8.94208e-05
0.000169158
-0.000137013
5.78388e-05
0.000217558
-0.000185976
2.55226e-05
0.000262222
-0.000229906
-7.86123e-06
0.000297438
-0.000264054
-4.13944e-05
0.000317565
-0.000284031
-7.1663e-05
0.000314653
-0.000284384
-9.8354e-05
0.000294063
-0.000267372
-0.00012019
0.00025966
-0.000237825
-0.000136797
0.00021517
-0.000198563
-0.000148965
0.000164854
-0.000152685
-0.000158402
0.000112105
-0.000102668
-0.000165823
5.72904e-05
-4.98696e-05
-0.00016935
-8.62441e-07
4.38946e-06
-0.000168236
-5.879e-05
5.76757e-05
-0.00016323
-0.000112812
0.000107806
-0.000156168
-0.000159785
0.000152723
-0.000149306
-0.000199255
0.000192393
-0.000143973
-0.000232441
0.000227107
-0.000138417
-0.000260614
0.000255059
-0.000126055
-0.000282855
0.000270493
-0.000103207
-0.000292514
0.000269666
-0.000287377
0.000255168
-0.000289488
0.00030694
-0.00036072
0.000302482
-0.000432385
0.000267531
-0.00049726
0.000192459
-0.000544984
6.73122e-05
-0.000552057
-0.000115839
-0.000502028
-0.000320218
-0.000408388
-0.00049353
-0.000319395
-0.000627917
-0.000264964
-0.000828714
-0.00020302
-0.000964972
-7.89801e-05
-0.000945351
6.88286e-05
-0.000798942
0.000205474
-0.000599448
0.000315703
-0.000398738
0.000420698
-0.000217803
0.000519373
-5.50397e-05
0.000588796
8.90036e-05
0.000602743
0.000232662
0.000610564
0.000315991
0.000707017
0.00027078
0.000923821
7.23686e-05
0.00108323
-8.97085e-05
0.00102024
-2.98526e-05
0.000777818
0.000222355
0.000475971
0.000539927
0.000204846
0.000798244
-3.00847e-05
0.000958679
-0.000211241
0.00100154
-0.00032176
0.000940559
-0.000391059
0.000830312
-0.000423837
0.000696277
-0.000425809
0.00055748
-0.000405198
0.000428463
-0.000369805
0.000318931
-0.000326902
0.000234286
-0.00028806
0.000179427
-0.000265986
0.000147236
-0.000270675
0.000117403
-0.00030602
6.10136e-05
-0.000365112
-4.23208e-05
-0.000426647
-0.000213995
-0.000482388
-0.000427169
-0.000528534
-0.000654089
-0.000556715
-0.000872355
-0.00054399
-0.00104921
-0.000471528
-0.00112753
-0.000359245
-0.00108849
-0.00022554
-0.000966577
-8.76163e-05
-0.000785368
4.35139e-05
-0.00057415
0.000174009
-0.000356307
0.000309969
-0.000139584
0.000420962
7.70441e-05
0.000499586
0.000240492
0.000546078
0.000327098
0.000568242
0.000318443
0.000577232
0.000231293
0.000570158
0.000105566
0.000542068
-1.73766e-05
0.000496732
-9.38575e-05
0.000444202
-0.000102079
0.000389721
-4.42542e-05
0.000327105
7.48881e-05
0.000257606
0.00023114
0.000183893
0.000390025
0.000106748
0.000525278
2.7346e-05
0.000621985
-5.011e-05
0.000670182
-0.000116733
0.000660926
-0.000171479
0.000611867
-0.000211297
0.000531936
-0.000235507
0.000431943
-0.00024562
0.000323673
-0.000245741
0.00021798
-0.000241387
0.000121361
-0.000233979
3.12107e-05
-0.000223348
-5.02669e-05
-0.000215667
-0.00011242
-0.000215247
-0.000160016
-0.000222582
-0.000201713
-0.000235486
-0.000245645
-0.000251921
-0.000296399
-0.000270016
-0.000356713
-0.000285283
-0.000424871
-0.000282621
-0.000488875
-0.000251104
-0.000521854
-0.000197629
-0.000509721
-0.00012938
-0.000462182
-6.06268e-05
-0.000390889
1.01719e-05
-0.000316127
9.65475e-05
-0.000245258
0.000198039
-0.000151275
0.000287799
-5.08814e-05
0.000349806
3.22661e-05
0.000374306
8.65592e-05
0.000364061
0.000109353
0.000331824
0.000109489
0.000287937
0.000102044
0.000240426
9.71664e-05
0.000193807
0.000103341
0.000149822
0.000126469
0.000110827
0.000161762
7.57418e-05
0.000204243
4.37778e-05
0.000249522
1.34858e-05
0.000292514
-1.63918e-05
0.000327315
-4.47696e-05
0.000345942
-6.97556e-05
0.000339639
-9.11327e-05
0.00031544
-0.000107455
0.000275983
-0.000117981
0.000225695
-0.000123335
0.000170209
-0.000126184
0.000114954
-0.00012957
6.06768e-05
-0.000131082
6.49459e-07
-0.000127766
-6.21064e-05
-0.000121474
-0.000119104
-0.000114072
-0.000167186
-0.000106864
-0.000206464
-0.000100746
-0.000238559
-9.65453e-05
-0.000264815
-9.3095e-05
-0.000286306
-8.57477e-05
-0.000299862
-0.000300664
-0.000243732
0.000386846
-0.000328879
0.000387629
-0.000414831
0.000353483
-0.000494841
0.000272469
-0.000563369
0.00013584
-0.000612359
-6.68499e-05
-0.000607379
-0.000325197
-0.000532718
-0.000568192
-0.000397847
-0.000762788
-0.000292333
-0.000934228
-0.000206476
-0.00105083
-0.000115887
-0.00103594
-4.39953e-06
-0.000910429
0.000115102
-0.000718949
0.000225579
-0.000509215
0.000315783
-0.000308008
0.000408881
-0.000148137
0.000491341
6.54271e-06
0.000534475
0.000189529
0.000652508
0.000197958
0.000873142
5.01456e-05
0.00104179
-9.62838e-05
0.00100594
-5.38561e-05
0.000800263
0.000175826
0.000528501
0.000494117
0.000261959
0.00080647
1.26344e-05
0.00104757
-0.000181512
0.00115283
-0.000300911
0.00112094
-0.000375659
0.00101531
-0.0004108
0.000865452
-0.000411391
0.000696868
-0.000383805
0.000529894
-0.000335729
0.000380387
-0.000276231
0.000259433
-0.000209865
0.00016792
-0.000149132
0.000118693
-0.000105885
0.00010399
-8.75544e-05
9.90717e-05
-0.000101928
7.53868e-05
-0.000161787
1.75387e-05
-0.000229152
-0.00014663
-0.000293302
-0.000363019
-0.000352528
-0.000594863
-0.00040017
-0.000824714
-0.000427244
-0.00102214
-0.000410308
-0.00114446
-0.000353082
-0.00114572
-0.000267641
-0.00105202
-0.000164131
-0.000888877
-5.65686e-05
-0.000681713
4.76916e-05
-0.000460567
0.000156377
-0.000248269
0.000273892
-4.04709e-05
0.000376943
0.000137441
0.00045105
0.000252991
0.000496677
0.000272816
0.000518089
0.000209881
0.000515032
0.000108623
0.000486085
1.15705e-05
0.000438798
-4.65705e-05
0.000384471
-4.7752e-05
0.000325388
1.4829e-05
0.000260562
0.000139713
0.000193011
0.000298692
0.000124802
0.000458234
5.50806e-05
0.000594999
-1.49145e-05
0.00069198
-7.86139e-05
0.000733881
-0.000130739
0.000713051
-0.000169728
0.000650856
-0.000192964
0.000555172
-0.000200216
0.000439195
-0.00019418
0.000317637
-0.000180444
0.000204244
-0.000165302
0.000106219
-0.00015081
1.67189e-05
-0.000131455
-6.96216e-05
-0.000119836
-0.00012404
-0.000119904
-0.000159947
-0.000131534
-0.000190082
-0.000149663
-0.000227517
-0.000170815
-0.000275246
-0.000192984
-0.000334544
-0.000214355
-0.0004035
-0.000229243
-0.000473988
-0.000222918
-0.000528179
-0.000192656
-0.000539983
-0.000144221
-0.000510617
-8.09099e-05
-0.000454201
-1.34404e-05
-0.000383596
4.51582e-05
-0.000303856
0.000110033
-0.000216151
0.000181231
-0.000122079
0.000243901
-3.04038e-05
0.000287849
4.26114e-05
0.000301568
9.56333e-05
0.000287438
0.000123619
0.000256947
0.000132535
0.000217905
0.000136209
0.000174528
0.000146718
0.000131538
0.000169459
9.24541e-05
0.000200845
5.79054e-05
0.000238792
2.74626e-05
0.000279965
-1.01386e-07
0.000320078
-2.57756e-05
0.00035299
-4.79977e-05
0.000368165
-6.67805e-05
0.000358422
-8.18319e-05
0.000330492
-9.2184e-05
0.000286335
-9.6757e-05
0.000230268
-9.54346e-05
0.000168886
-9.09392e-05
0.000110458
-8.8647e-05
5.83846e-05
-8.90451e-05
1.04753e-06
-8.2245e-05
-6.89064e-05
-7.48312e-05
-0.000126518
-6.81161e-05
-0.000173901
-6.29783e-05
-0.000211602
-5.96451e-05
-0.000241892
-5.89191e-05
-0.000265541
-6.08131e-05
-0.000284412
-6.03012e-05
-0.000300374
-0.00030855
-0.000193654
0.00044225
-0.000263243
0.000457217
-0.000340094
0.000430334
-0.000415607
0.000347982
-0.000484142
0.000204376
-0.000551509
5.16183e-07
-0.000594021
-0.000282685
-0.00056645
-0.000595762
-0.000483436
-0.000845802
-0.000372939
-0.00104472
-0.000276029
-0.00114774
-0.000191416
-0.00112055
-0.000100456
-0.00100139
-7.39176e-07
-0.000818666
9.78181e-05
-0.000607772
0.000187629
-0.000397818
0.000270404
-0.000230912
0.000372058
-9.51112e-05
0.000540323
2.12646e-05
0.000763945
-2.56641e-05
0.000931123
-0.000117032
0.000925295
-9.04566e-05
0.000762724
0.000108716
0.000540458
0.000398091
0.000290077
0.000744498
2.74787e-05
0.00106907
-0.000182434
0.00125748
-0.000310838
0.00128123
-0.000384202
0.0011943
-0.000412876
0.00104398
-0.000405114
0.000857691
-0.000368175
0.000659929
-0.000309955
0.000471674
-0.000237347
0.000307778
-0.00015569
0.000177776
-7.11304e-05
8.33602e-05
5.90897e-06
4.16541e-05
5.88763e-05
5.10222e-05
8.63963e-05
7.15518e-05
8.35123e-05
7.82707e-05
4.30038e-05
5.80472e-05
-2.89005e-05
-7.47261e-05
-0.000106449
-0.00028547
-0.000183206
-0.000518107
-0.000250949
-0.00075697
-0.000305426
-0.000967661
-0.00033343
-0.00111646
-0.000322052
-0.00115709
-0.000281795
-0.00109228
-0.000217473
-0.000953199
-0.000138386
-0.0007608
-5.51071e-05
-0.000543845
2.29509e-05
-0.000326327
0.000120713
-0.000138233
0.000239032
1.91215e-05
0.000329745
0.000162278
0.000390107
0.000212454
0.000420316
0.000179672
0.00042194
0.000106999
0.000396124
3.73865e-05
0.000352283
-2.72983e-06
0.000299334
5.19746e-06
0.000237019
7.71436e-05
0.000171449
0.000205284
0.000108206
0.000361934
4.72906e-05
0.000519149
-1.20649e-05
0.000654355
-6.78434e-05
0.000747758
-0.000111059
0.000777097
-0.000141796
0.000743787
-0.000158999
0.00066806
-0.00016268
0.000558852
-0.000153829
0.000430344
-0.000133197
0.000297005
-0.000104593
0.00017564
-7.85605e-05
8.01865e-05
-5.50256e-05
-6.81602e-06
-2.76528e-05
-9.69945e-05
-1.52509e-05
-0.000136441
-1.97856e-05
-0.000155413
-3.72209e-05
-0.000172647
-6.26911e-05
-0.000202046
-9.00623e-05
-0.000247875
-0.00011672
-0.000307886
-0.00014183
-0.00037839
-0.000163456
-0.000452361
-0.000174576
-0.000517059
-0.000163817
-0.000550742
-0.000135531
-0.000538903
-9.27631e-05
-0.000496969
-4.38778e-05
-0.000432482
4.10433e-06
-0.000351838
5.05242e-05
-0.00026257
9.95527e-05
-0.000171108
0.000144858
-7.57094e-05
0.000186975
4.94733e-07
0.000214189
6.84188e-05
0.000218691
0.000119118
0.000202932
0.000148294
0.000173982
0.000165158
0.000137646
0.000183055
0.000100347
0.000206758
6.53584e-05
0.000235834
3.42031e-05
0.000269947
6.92009e-06
0.000307248
-1.70912e-05
0.000344089
-3.79412e-05
0.00037384
-5.30048e-05
0.000383228
-6.38e-05
0.000369217
-7.05374e-05
0.000337229
-7.3491e-05
0.000289288
-7.2041e-05
0.000228818
-6.50391e-05
0.000161884
-5.39562e-05
9.93755e-05
-4.55851e-05
5.00136e-05
-4.37558e-05
-7.81846e-07
-3.1529e-05
-8.11332e-05
-2.28205e-05
-0.000135226
-1.88511e-05
-0.000177871
-1.79123e-05
-0.000212541
-2.17296e-05
-0.000238075
-2.77106e-05
-0.00025956
-3.21508e-05
-0.000279971
-3.46812e-05
-0.000297843
-0.000309643
-0.000101902
-0.000145336
-0.000189148
-0.000236664
-0.000291742
-0.000339252
-0.000431402
-0.00046261
-0.000446635
-0.000404776
-0.000347177
-0.00028325
-0.000210173
-0.000124257
-2.75332e-05
8.69424e-05
0.000217911
0.000373976
0.000585764
0.000737014
0.000761674
0.000655931
0.00049163
0.000264761
-9.91727e-06
-0.000234298
-0.000371749
-0.000435282
-0.000447101
-0.000419154
-0.000363905
-0.000289967
-0.000203045
-0.000113392
-2.77102e-05
7.12686e-05
0.000167369
0.000240654
0.000272378
0.000262609
0.000233163
0.000161865
6.91659e-05
-2.37172e-05
-0.000109979
-0.000186944
-0.00024936
-0.000279254
-0.000280876
-0.000255714
-0.000208788
-0.000148306
-7.98159e-05
-8.0776e-06
8.5307e-05
0.000191619
0.000259846
0.000295577
0.000301692
0.000281665
0.000243955
0.000190786
0.00012769
6.50887e-05
7.61873e-06
-4.47552e-05
-9.14226e-05
-0.000127584
-0.000144381
-0.000147596
-0.000138491
-0.000119662
-9.369e-05
-6.23536e-05
-2.32744e-05
1.50777e-05
5.89957e-05
8.29519e-05
8.70407e-05
7.45855e-05
5.35555e-05
2.56703e-05
-6.27061e-06
-3.83924e-05
-6.84514e-05
-9.55446e-05
-0.000116945
-0.000123828
-0.000114971
-9.40256e-05
-6.4721e-05
-3.19754e-05
-8.56633e-08
2.8525e-05
5.99102e-05
9.57558e-05
0.000125812
0.000133053
0.000129487
0.000112809
8.72904e-05
5.86709e-05
3.08498e-05
5.32731e-06
-1.74531e-05
-3.73377e-05
-5.29123e-05
-6.04766e-05
-6.20183e-05
-5.81543e-05
-5.09693e-05
-4.22499e-05
-3.19244e-05
-1.77505e-05
-1.63551e-06
1.42563e-05
2.11208e-05
2.27877e-05
2.05879e-05
1.41339e-05
8.96531e-06
4.00404e-06
-3.38948e-06
-1.213e-05
-0.000289103
-0.000302245
-2.54768e-06
4.21902e-05
-1.66413e-05
6.33211e-05
-2.11309e-05
8.51501e-05
-2.18289e-05
0.000101481
-1.63303e-05
0.000108563
-7.08203e-06
0.000106744
1.81865e-06
0.0001012
5.5444e-06
0.000106013
-4.81314e-06
0.000138461
-3.24475e-05
0.000205077
-6.66164e-05
0.000289397
-8.43198e-05
0.000372638
-8.3241e-05
0.000379246
-6.60837e-06
0.000309508
6.97389e-05
0.000189096
0.000120412
3.47022e-05
0.000154394
-9.77312e-05
0.000132433
-0.000181939
8.42078e-05
-0.000239886
5.7947e-05
-0.000258895
1.9009e-05
-0.000253848
-5.0464e-06
-0.000240529
-1.33195e-05
-0.000224117
-1.64123e-05
-0.000206922
-1.71949e-05
-0.000189523
-1.73988e-05
-0.000168667
-2.08557e-05
-0.000143308
-2.5359e-05
-0.000116488
-2.68206e-05
-8.81094e-05
-2.83785e-05
-5.78853e-05
-3.02241e-05
-3.31571e-05
-2.47282e-05
-7.58053e-06
-2.55765e-05
1.61682e-05
-2.37489e-05
3.60568e-05
-1.98886e-05
5.09791e-05
-1.49222e-05
6.19529e-05
-1.09739e-05
6.96601e-05
-7.7073e-06
7.45579e-05
-4.89777e-06
7.64989e-05
-1.94087e-06
7.35628e-05
2.93617e-06
6.27718e-05
1.0791e-05
4.98107e-05
1.29611e-05
3.04615e-05
1.93495e-05
1.21564e-05
1.83051e-05
-5.73548e-07
1.27299e-05
-5.73377e-06
5.16031e-06
-2.10187e-06
-3.63177e-06
1.03272e-05
-1.2429e-05
3.03786e-05
-2.00516e-05
4.96029e-05
-1.92243e-05
6.95402e-05
-1.99373e-05
8.48636e-05
-1.53235e-05
9.02149e-05
-5.35146e-06
9.10486e-05
-8.33786e-07
7.68016e-05
1.4247e-05
4.7795e-05
2.90066e-05
7.49656e-06
4.02983e-05
-2.2718e-05
3.02146e-05
-5.02071e-05
2.74892e-05
-6.46804e-05
1.44733e-05
-6.51468e-05
4.66316e-07
-5.34666e-05
-1.16802e-05
-3.34348e-05
-2.00318e-05
-1.03727e-05
-2.3062e-05
1.07434e-05
-2.11162e-05
2.16815e-05
-1.09381e-05
2.8984e-05
-7.3024e-06
2.8432e-05
5.52119e-07
2.1096e-05
7.33582e-06
7.82243e-06
1.32736e-05
-1.01433e-05
1.79658e-05
-2.5996e-05
1.58527e-05
-4.19218e-05
1.59257e-05
-5.70435e-05
1.51216e-05
-6.88262e-05
1.17828e-05
-7.57759e-05
6.94967e-06
-7.75128e-05
1.73671e-06
-7.39352e-05
-3.5776e-06
-6.53862e-05
-8.54896e-06
-5.25298e-05
-1.28564e-05
-3.64872e-05
-1.60427e-05
-1.858e-05
-1.79072e-05
-5.71308e-07
-1.80087e-05
1.50017e-05
-1.5573e-05
2.84274e-05
-1.34258e-05
3.7956e-05
-9.52868e-06
4.32262e-05
-5.27012e-06
4.44033e-05
-1.17709e-06
4.18742e-05
2.52905e-06
3.67007e-05
5.17357e-06
3.04372e-05
6.26351e-06
2.47752e-05
5.66211e-06
2.01491e-05
4.62603e-06
1.76076e-05
2.54159e-06
1.75381e-05
6.96034e-08
1.9998e-05
-2.45994e-06
2.38619e-05
-3.86397e-06
2.88741e-05
-5.01216e-06
3.36742e-05
-4.80012e-06
3.7262e-05
-3.58779e-06
3.89305e-05
-1.66859e-06
3.82008e-05
7.29675e-07
3.48465e-05
3.35427e-06
2.88796e-05
5.96689e-06
2.04785e-05
8.401e-06
9.81198e-06
1.06665e-05
3.4996e-07
9.46202e-06
-1.1284e-05
1.16339e-05
-2.27363e-05
1.14523e-05
-3.32786e-05
1.05422e-05
-4.23021e-05
9.02351e-06
-4.93081e-05
7.00595e-06
-5.39503e-05
4.64211e-06
-5.60654e-05
2.11512e-06
-5.56367e-05
-4.28739e-07
-5.28187e-05
-2.818e-06
-4.79789e-05
-4.8398e-06
-4.15897e-05
-6.38919e-06
-3.41388e-05
-7.4509e-06
-2.61304e-05
-8.00839e-06
-1.80042e-05
-8.12627e-06
-1.0102e-05
-7.9022e-06
-2.64494e-06
-7.45707e-06
3.7006e-06
-6.34555e-06
-5.61258e-06
4.19662e-06
-2.58281e-05
1.68069e-05
-3.37411e-05
3.67302e-05
-4.17522e-05
6.86353e-05
-4.82353e-05
0.000113371
-5.18177e-05
0.000169188
-5.39981e-05
0.000235126
-6.03939e-05
0.000293385
-6.3072e-05
0.000320845
-5.99072e-05
0.000309561
-5.53322e-05
0.00027374
-4.84993e-05
0.000213498
-2.29984e-05
0.000154094
5.27955e-05
8.62974e-05
0.000137536
-8.56808e-06
0.000215277
-0.000106988
0.000252814
-0.000199674
0.00022512
-0.000260148
0.000144681
-0.000271488
6.92871e-05
-0.000261713
9.23423e-06
-0.000237611
-2.9148e-05
-0.000207627
-4.33034e-05
-0.000174732
-4.93076e-05
-0.000144065
-4.78623e-05
-0.000118901
-4.25623e-05
-9.97597e-05
-3.99974e-05
-8.5583e-05
-3.95356e-05
-7.45638e-05
-3.78398e-05
-6.15068e-05
-4.14354e-05
-4.52501e-05
-4.64808e-05
-1.74896e-05
-5.24887e-05
8.15198e-06
-5.12182e-05
2.97283e-05
-4.53253e-05
4.48531e-05
-3.50134e-05
5.38869e-05
-2.3956e-05
5.83431e-05
-1.54301e-05
6.06999e-05
-1.00642e-05
6.4641e-05
-8.83875e-06
6.97918e-05
-7.09166e-06
7.21702e-05
5.57771e-07
6.90334e-05
1.39278e-05
4.81646e-05
3.38301e-05
3.18614e-05
3.56527e-05
1.40074e-05
3.61592e-05
1.42923e-06
2.53081e-05
-3.20324e-06
9.79287e-06
4.44161e-07
-7.27913e-06
1.25434e-05
-2.45283e-05
3.19928e-05
-3.95011e-05
5.6396e-05
-4.36274e-05
7.6018e-05
-3.95594e-05
8.8062e-05
-2.73675e-05
9.3166e-05
-1.04556e-05
8.50488e-05
7.28341e-06
6.85579e-05
3.07379e-05
3.91054e-05
5.8459e-05
1.65407e-06
7.77496e-05
-3.58445e-05
6.77132e-05
-5.97539e-05
5.13986e-05
-6.97033e-05
2.44227e-05
-6.70763e-05
-2.16072e-06
-5.32001e-05
-2.55563e-05
-3.09339e-05
-4.2298e-05
-6.44365e-06
-4.75522e-05
1.35666e-05
-4.11264e-05
2.90893e-05
-2.64606e-05
3.21709e-05
-1.0384e-05
2.73658e-05
5.35719e-06
1.78881e-05
1.68135e-05
4.33819e-06
2.68235e-05
-1.20947e-05
3.43986e-05
-3.03772e-05
3.41352e-05
-4.71018e-05
3.26502e-05
-6.06399e-05
2.86597e-05
-7.05436e-05
2.16865e-05
-7.60688e-05
1.24748e-05
-7.66512e-05
2.31915e-06
-7.17895e-05
-8.43934e-06
-6.21805e-05
-1.8158e-05
-4.83554e-05
-2.66815e-05
-3.16773e-05
-3.27209e-05
-1.33052e-05
-3.62794e-05
5.23764e-06
-3.65515e-05
2.16179e-05
-3.19533e-05
3.50946e-05
-2.69026e-05
4.42206e-05
-1.86547e-05
4.85833e-05
-9.63281e-06
4.87886e-05
-1.3824e-06
4.50664e-05
6.25117e-06
3.85586e-05
1.16815e-05
3.08606e-05
1.39615e-05
2.49667e-05
1.1556e-05
1.94611e-05
1.01316e-05
1.64365e-05
5.56619e-06
1.59303e-05
5.75904e-07
1.84165e-05
-4.94616e-06
2.26647e-05
-8.11217e-06
2.77307e-05
-1.00782e-05
3.23216e-05
-9.39098e-06
3.54984e-05
-6.76462e-06
3.65488e-05
-2.71905e-06
3.51539e-05
2.12456e-06
3.13135e-05
7.1946e-06
2.52115e-05
1.20688e-05
1.71315e-05
1.6481e-05
7.9385e-06
1.98595e-05
-4.15716e-06
2.15577e-05
-1.55523e-05
2.3029e-05
-2.68358e-05
2.27358e-05
-3.72398e-05
2.09462e-05
-4.60658e-05
1.78495e-05
-5.27515e-05
1.36916e-05
-5.69028e-05
8.79345e-06
-5.83255e-05
3.53775e-06
-5.70677e-05
-1.68657e-06
-5.33718e-05
-6.5139e-06
-4.76011e-05
-1.06104e-05
-4.02543e-05
-1.3736e-05
-3.19078e-05
-1.57974e-05
-2.31193e-05
-1.67969e-05
-1.43836e-05
-1.6862e-05
-6.05855e-06
-1.62273e-05
1.48069e-06
-1.49963e-05
8.2028e-06
-1.30677e-05
-1.14638e-05
-3.21061e-05
-2.71146e-05
-2.78648e-05
-3.79823e-05
-1.876e-05
-5.08569e-05
-2.4431e-06
-6.45522e-05
2.29864e-05
-7.72471e-05
5.6699e-05
-8.77106e-05
9.53009e-05
-9.89959e-05
0.000137711
-0.000105482
0.000180415
-0.000102612
0.000206256
-8.11731e-05
0.000192836
-3.50794e-05
0.000133047
3.67905e-05
5.98951e-05
0.000125948
-1.54778e-05
0.000212909
-7.83758e-05
0.000278175
-0.000125282
0.00029972
-0.000159299
0.000259137
-0.000207972
0.000193354
-0.000227823
8.91382e-05
-0.00023754
1.89511e-05
-0.000239766
-2.69216e-05
-0.00022817
-5.49001e-05
-0.000206099
-7.13782e-05
-0.000173244
-8.07179e-05
-0.000127171
-8.86353e-05
-7.54711e-05
-9.16969e-05
-2.8067e-05
-8.69397e-05
3.29255e-06
-6.91994e-05
2.0027e-05
-5.81699e-05
1.4846e-05
-4.12998e-05
6.78967e-06
-4.44324e-05
2.66107e-06
-4.70896e-05
7.44623e-06
-5.01105e-05
1.4921e-05
-4.24882e-05
2.25122e-05
-3.15473e-05
2.96133e-05
-2.25312e-05
3.67889e-05
-1.72397e-05
4.82804e-05
-2.03303e-05
6.40931e-05
-2.29043e-05
7.8332e-05
-1.36812e-05
8.08356e-05
1.14243e-05
6.85577e-05
4.61081e-05
5.33047e-05
5.09057e-05
2.89313e-05
6.05327e-05
1.21929e-05
4.20464e-05
2.0487e-06
1.99371e-05
1.20036e-06
-6.43077e-06
9.73167e-06
-3.30596e-05
2.93435e-05
-5.9113e-05
4.63257e-05
-6.06096e-05
5.98593e-05
-5.30931e-05
6.59889e-05
-3.34971e-05
6.40389e-05
-8.50568e-06
5.98262e-05
1.14961e-05
4.78216e-05
4.27424e-05
2.46598e-05
8.16208e-05
-8.53844e-06
0.000110948
-4.07729e-05
9.99476e-05
-5.58658e-05
6.64915e-05
-5.76717e-05
2.62285e-05
-5.07497e-05
-9.0827e-06
-3.35629e-05
-4.27431e-05
-8.70212e-06
-6.71588e-05
1.5505e-05
-7.17593e-05
3.06973e-05
-5.63187e-05
3.50775e-05
-3.08408e-05
3.19618e-05
-7.26828e-06
2.34696e-05
1.38494e-05
1.17164e-05
2.85667e-05
-1.9566e-06
4.04965e-05
-1.79471e-05
5.03891e-05
-3.04968e-05
4.66849e-05
-4.26485e-05
4.48019e-05
-5.34597e-05
3.94709e-05
-6.23349e-05
3.05617e-05
-6.79768e-05
1.81166e-05
-6.93837e-05
3.72603e-06
-6.63869e-05
-1.14362e-05
-6.09695e-05
-2.35754e-05
-5.00279e-05
-3.76231e-05
-3.52865e-05
-4.74624e-05
-1.69042e-05
-5.46617e-05
2.14831e-06
-5.56041e-05
1.9723e-05
-4.95281e-05
3.32782e-05
-4.04578e-05
4.28491e-05
-2.82256e-05
4.7747e-05
-1.45307e-05
4.97909e-05
-3.42634e-06
4.68634e-05
9.1787e-06
3.95796e-05
1.89654e-05
3.16587e-05
2.18824e-05
2.37606e-05
1.94541e-05
1.77225e-05
1.61697e-05
1.36322e-05
9.65649e-06
1.16205e-05
2.58769e-06
1.33466e-05
-6.67233e-06
1.81215e-05
-1.28871e-05
2.39963e-05
-1.59529e-05
2.96044e-05
-1.49991e-05
3.38969e-05
-1.10571e-05
3.61457e-05
-4.9679e-06
3.58917e-05
2.37855e-06
3.29218e-05
1.01644e-05
2.73326e-05
1.7658e-05
1.94856e-05
2.43279e-05
1.00359e-05
2.93092e-05
-1.35795e-06
3.29515e-05
-1.30604e-05
3.47314e-05
-2.46903e-05
3.43657e-05
-3.55902e-05
3.18461e-05
-4.50715e-05
2.73308e-05
-5.25256e-05
2.11456e-05
-5.74747e-05
1.37425e-05
-5.9575e-05
5.63807e-06
-5.87194e-05
-2.54215e-06
-5.50918e-05
-1.01416e-05
-4.90942e-05
-1.6608e-05
-4.13002e-05
-2.153e-05
-3.23789e-05
-2.47187e-05
-2.29817e-05
-2.61941e-05
-1.36982e-05
-2.61455e-05
-4.98296e-06
-2.49425e-05
2.97065e-06
-2.29499e-05
9.5234e-06
-1.96204e-05
-1.70443e-05
-5.52415e-05
-2.29732e-05
-5.72122e-05
-3.60115e-05
-5.48582e-05
-5.32109e-05
-4.6566e-05
-7.28445e-05
-3.16405e-05
-9.21726e-05
-8.93477e-06
-0.000110416
1.81417e-05
-0.000126072
4.76113e-05
-0.000134951
7.88844e-05
-0.000133885
0.00011094
-0.000113228
0.000137466
-6.16059e-05
0.00016158
1.26764e-05
0.000181848
0.00010568
0.000196725
0.000198031
0.000207732
0.000267169
0.000209541
0.000297911
0.000188482
0.000280196
0.000156679
0.000225157
0.000101958
0.000143859
4.31783e-05
7.7731e-05
-8.8095e-06
2.50661e-05
-4.78657e-05
-1.58439e-05
-7.75677e-05
-4.16762e-05
-0.000100106
-5.818e-05
-0.00012092
-6.78213e-05
-0.000139644
-7.29729e-05
-0.000147091
-7.94926e-05
-0.000132113
-8.4177e-05
-0.000105286
-8.49968e-05
-6.39182e-05
-8.2668e-05
-3.30046e-05
-7.5346e-05
-1.7128e-05
-6.29663e-05
-1.539e-05
-5.18485e-05
-2.28699e-05
-3.50084e-05
-2.26096e-05
-3.18075e-05
-1.43096e-05
-3.08313e-05
-3.63946e-06
-2.79098e-05
1.99874e-05
-4.39571e-05
5.41346e-05
-5.70514e-05
9.2814e-05
-5.23605e-05
0.000119157
-1.49191e-05
0.000128094
3.71711e-05
0.000108188
7.08123e-05
7.97561e-05
8.89644e-05
6.05354e-05
6.12672e-05
4.42404e-05
3.62321e-05
2.27106e-05
1.5099e-05
2.59667e-06
-1.29457e-05
9.34229e-06
-6.58587e-05
3.17654e-05
-8.30327e-05
4.00295e-05
-6.13572e-05
3.66445e-05
-3.01122e-05
2.51784e-05
2.96038e-06
1.16936e-05
2.49809e-05
-4.09864e-06
5.85346e-05
-1.76882e-05
9.52102e-05
-4.37148e-05
0.000136974
-5.90013e-05
0.000115234
-6.59655e-05
7.34557e-05
-6.41985e-05
2.44615e-05
-5.74372e-05
-1.5844e-05
-3.86457e-05
-6.15346e-05
-4.18074e-06
-0.000101624
3.24048e-05
-0.000108345
5.37298e-05
-7.76437e-05
6.27181e-05
-3.9829e-05
5.34937e-05
1.95606e-06
3.51263e-05
3.22168e-05
1.09386e-05
5.27544e-05
-1.50849e-05
6.652e-05
-4.10554e-05
7.63596e-05
-5.76656e-05
6.3295e-05
-6.63035e-05
5.34398e-05
-6.8306e-05
4.14734e-05
-6.37316e-05
2.59873e-05
-5.53931e-05
9.77807e-06
-4.67002e-05
-4.96694e-06
-3.77347e-05
-2.04017e-05
-2.87064e-05
-3.26037e-05
-2.34354e-05
-4.28942e-05
-1.967e-05
-5.12278e-05
-1.30638e-05
-6.12679e-05
-4.21792e-06
-6.44499e-05
7.96567e-06
-6.17117e-05
2.00849e-05
-5.25771e-05
3.11245e-05
-3.92652e-05
3.99339e-05
-2.33401e-05
4.55046e-05
-8.99705e-06
4.69255e-05
7.75778e-06
4.39768e-05
2.19141e-05
3.77366e-05
2.81227e-05
2.98792e-05
2.73116e-05
2.35646e-05
2.24844e-05
1.83731e-05
1.4848e-05
1.57714e-05
5.18934e-06
1.64519e-05
-7.35277e-06
2.09442e-05
-1.73794e-05
2.69756e-05
-2.19844e-05
3.34014e-05
-2.14249e-05
3.87386e-05
-1.63944e-05
4.19499e-05
-8.17918e-06
4.23095e-05
2.01885e-06
3.94078e-05
1.30661e-05
3.31921e-05
2.38737e-05
2.39772e-05
3.35427e-05
1.22126e-05
4.10739e-05
-2.23168e-06
4.73957e-05
-1.69158e-05
4.94155e-05
-3.13631e-05
4.8813e-05
-4.46366e-05
4.51195e-05
-5.572e-05
3.84143e-05
-6.38568e-05
2.92825e-05
-6.87147e-05
1.86003e-05
-7.02599e-05
7.18335e-06
-6.86495e-05
-4.15264e-06
-6.41564e-05
-1.46347e-05
-5.71695e-05
-2.35949e-05
-4.81886e-05
-3.05108e-05
-3.78328e-05
-3.50746e-05
-2.67906e-05
-3.72362e-05
-1.56766e-05
-3.72595e-05
-4.96736e-06
-3.56518e-05
4.76545e-06
-3.26828e-05
1.35003e-05
-2.83553e-05
-2.35991e-05
-7.36407e-05
-1.55579e-05
-7.72488e-05
-3.24033e-05
-7.91995e-05
-5.12602e-05
-7.69964e-05
-7.50475e-05
-6.6721e-05
-0.000102448
-4.87591e-05
-0.000128378
-2.36285e-05
-0.000151203
6.65732e-06
-0.000165237
4.4002e-05
-0.000171229
8.77342e-05
-0.000156961
0.000133207
-0.000107079
0.000186321
-4.04374e-05
0.000245954
4.60479e-05
0.000308111
0.000135874
0.000363446
0.000211834
0.000405022
0.000256335
0.000420091
0.000265127
0.00040194
0.000243308
0.000352323
0.000193476
0.000290136
0.000139918
0.000221773
9.34288e-05
0.000149117
5.68127e-05
8.03744e-05
2.70662e-05
2.14184e-05
7.76008e-07
-2.45577e-05
-2.18453e-05
-6.25475e-05
-3.49831e-05
-0.0001001
-4.19405e-05
-0.000140913
-4.33639e-05
-0.000185667
-4.02421e-05
-0.000228552
-3.97836e-05
-0.000260888
-4.30103e-05
-0.000275213
-4.86406e-05
-0.000274372
-5.26903e-05
-0.000260877
-4.85031e-05
-0.000240674
-5.20105e-05
-0.000217688
-5.38171e-05
-0.000191733
-5.38649e-05
-0.00015227
-8.34202e-05
-9.13622e-05
-0.000117959
-2.37576e-05
-0.000119965
4.80414e-05
-8.6718e-05
0.00013715
-5.19372e-05
0.000229819
-2.18567e-05
0.000295829
2.29538e-05
0.000316991
4.01058e-05
0.000293497
5.97255e-05
0.000234551
7.40453e-05
0.000164247
5.73583e-05
9.99593e-05