/*--------------------------------*- C++ -*----------------------------------*\
| =========                 |                                                 |
| \\      /  F ield         | OpenFOAM: The Open Source CFD Toolbox           |
|  \\    /   O peration     | Version:  2206                                  |
|   \\  /    A nd           | Website:  www.openfoam.com                      |
|    \\/     M anipulation  |                                                 |
\*---------------------------------------------------------------------------*/
FoamFile
{
    version     2.0;
    format      ascii;
    arch        "LSB;label=32;scalar=64";
    class       surfaceScalarField;
    location    "18.3";
    object      phi_0;
}
// * * * * * * * * * * * * * * * * * * * * * * * * * * * * * * * * * * * * * //

dimensions      [0 3 -1 0 0 0 0];

oriented        oriented;

internalField   nonuniform List<scalar> 
3613
(
5.53156e-06
5.67273e-07
-4.91089e-07
5.47393e-06
5.10795e-07
-4.53169e-07
5.43364e-06
4.40773e-07
-4.00483e-07
5.40909e-06
3.56477e-07
-3.31924e-07
5.39868e-06
2.57473e-07
-2.47068e-07
5.40124e-06
1.4472e-07
-1.47281e-07
5.41615e-06
2.06687e-08
-3.5578e-08
5.44299e-06
-1.10245e-07
8.34117e-08
5.48055e-06
-2.40514e-07
2.02945e-07
5.52763e-06
-3.62836e-07
3.15764e-07
5.58259e-06
-4.71757e-07
4.16797e-07
5.64345e-06
-5.62919e-07
5.0206e-07
5.70819e-06
-6.3361e-07
5.6887e-07
5.77525e-06
-6.82838e-07
6.15769e-07
5.84379e-06
-7.10568e-07
6.42038e-07
5.9129e-06
-7.16249e-07
6.47135e-07
5.98107e-06
-6.99179e-07
6.31013e-07
6.04647e-06
-6.59714e-07
5.94305e-07
6.10744e-06
-5.99345e-07
5.38379e-07
6.16282e-06
-5.20772e-07
4.65389e-07
6.21209e-06
-4.27114e-07
3.77848e-07
6.25483e-06
-3.21343e-07
2.78606e-07
6.28967e-06
-2.06385e-07
1.7154e-07
6.31414e-06
-8.60448e-08
6.15743e-08
6.326e-06
3.43184e-08
-4.6174e-08
6.32352e-06
1.49978e-07
-1.47501e-07
6.30551e-06
2.568e-07
-2.38785e-07
6.2713e-06
3.51144e-07
-3.16934e-07
6.22099e-06
4.29954e-07
-3.7965e-07
6.15655e-06
4.909e-07
-4.26461e-07
6.08216e-06
5.32976e-07
-4.58577e-07
6.00305e-06
5.57108e-07
-4.78006e-07
5.92424e-06
5.65656e-07
-4.86844e-07
5.84931e-06
5.61477e-07
-4.86547e-07
5.78057e-06
5.46051e-07
-4.77304e-07
5.71981e-06
5.1901e-07
-4.58251e-07
5.66833e-06
4.79531e-07
-4.28052e-07
5.62676e-06
4.27217e-07
-3.85644e-07
5.59527e-06
3.62232e-07
-3.30745e-07
5.57379e-06
2.85309e-07
-2.63828e-07
5.56224e-06
1.97751e-07
-1.86204e-07
5.56073e-06
1.0145e-07
-9.99392e-08
5.56945e-06
-7.54712e-10
-7.96539e-09
5.58809e-06
-1.04094e-07
8.54488e-08
5.61583e-06
-2.02848e-07
1.75114e-07
5.65129e-06
-2.92671e-07
2.57207e-07
5.6927e-06
-3.69865e-07
3.28462e-07
5.73811e-06
-4.31911e-07
3.86495e-07
5.78587e-06
-4.77667e-07
4.29905e-07
5.83491e-06
-5.07146e-07
4.58108e-07
5.88468e-06
-5.20681e-07
4.70914e-07
5.93442e-06
-5.1807e-07
4.68332e-07
5.98306e-06
-4.99487e-07
4.50843e-07
6.02938e-06
-4.65544e-07
4.19226e-07
6.07218e-06
-4.17644e-07
3.74846e-07
6.11046e-06
-3.57823e-07
3.19544e-07
6.14336e-06
-2.88267e-07
2.55367e-07
6.16995e-06
-2.11167e-07
1.84571e-07
6.189e-06
-1.28945e-07
1.09897e-07
6.1995e-06
-4.47915e-08
3.42909e-08
6.20111e-06
3.80612e-08
-3.96658e-08
6.19381e-06
1.1704e-07
-1.09741e-07
6.17792e-06
1.89856e-07
-1.7397e-07
6.15406e-06
2.54514e-07
-2.3065e-07
6.12305e-06
3.09345e-07
-2.7834e-07
6.08597e-06
3.53066e-07
-3.15987e-07
6.04415e-06
3.8489e-07
-3.43066e-07
5.99917e-06
4.04641e-07
-3.59666e-07
5.95279e-06
4.12709e-07
-3.66324e-07
5.90672e-06
4.097e-07
-3.63631e-07
5.8626e-06
3.95988e-07
-3.51871e-07
5.8219e-06
3.71787e-07
-3.31089e-07
5.78571e-06
3.37677e-07
-3.01483e-07
5.75472e-06
2.945e-07
-2.63515e-07
5.72939e-06
2.43201e-07
-2.17865e-07
5.71001e-06
1.8484e-07
-1.65463e-07
5.69692e-06
1.20541e-07
-1.0745e-07
5.69057e-06
5.15793e-08
-4.52313e-08
5.69154e-06
-2.01499e-08
1.9184e-08
5.7e-06
-9.13986e-08
8.29341e-08
5.71561e-06
-1.59067e-07
1.43461e-07
5.7375e-06
-2.20249e-07
1.98353e-07
5.76439e-06
-2.72378e-07
2.45492e-07
5.79478e-06
-3.13657e-07
2.83266e-07
5.82737e-06
-3.43268e-07
3.10674e-07
5.86136e-06
-3.61221e-07
3.27237e-07
5.89622e-06
-3.67691e-07
3.32828e-07
5.93127e-06
-3.6264e-07
3.2759e-07
5.96565e-06
-3.46231e-07
3.11849e-07
5.99847e-06
-3.1901e-07
2.86194e-07
6.02895e-06
-2.82194e-07
2.51716e-07
6.05641e-06
-2.37233e-07
2.09765e-07
6.08022e-06
-1.85652e-07
1.61842e-07
6.0996e-06
-1.29091e-07
1.09712e-07
6.11364e-06
-6.95144e-08
5.54819e-08
6.1218e-06
-9.42556e-09
1.26113e-09
6.12394e-06
4.90436e-08
-5.11879e-08
6.12014e-06
1.0405e-07
-1.00248e-07
6.11072e-06
1.5393e-07
-1.44503e-07
6.0962e-06
1.97289e-07
-1.82772e-07
6.07722e-06
2.33078e-07
-2.14101e-07
6.0544e-06
2.6061e-07
-2.37782e-07
6.02832e-06
2.79502e-07
-2.53424e-07
5.99977e-06
2.89642e-07
-2.61097e-07
5.96973e-06
2.91168e-07
-2.61122e-07
5.93916e-06
2.84432e-07
-2.53871e-07
5.90918e-06
2.69704e-07
-2.3972e-07
5.88087e-06
2.47471e-07
-2.19162e-07
5.85514e-06
2.18567e-07
-1.92841e-07
5.8327e-06
1.83924e-07
-1.61476e-07
5.81402e-06
1.44495e-07
-1.2582e-07
5.7995e-06
1.0123e-07
-8.67114e-08
5.78953e-06
5.51346e-08
-4.51666e-08
5.78449e-06
7.60985e-09
-2.5655e-09
5.78442e-06
-3.95468e-08
3.96129e-08
5.78921e-06
-8.47489e-08
7.99612e-08
5.79852e-06
-1.26413e-07
1.17106e-07
5.81177e-06
-1.63037e-07
1.49791e-07
5.82817e-06
-1.93385e-07
1.76981e-07
5.84692e-06
-2.16671e-07
1.97926e-07
5.86737e-06
-2.32604e-07
2.12154e-07
5.8891e-06
-2.41192e-07
2.19452e-07
5.9117e-06
-2.42419e-07
2.1982e-07
5.93463e-06
-2.36327e-07
2.13406e-07
-2.23006e-07
2.00382e-07
5.92033e-06
6.48943e-07
5.85938e-06
5.71743e-07
5.81774e-06
4.82418e-07
5.7934e-06
3.80811e-07
5.7841e-06
2.6678e-07
5.78789e-06
1.40921e-07
5.80344e-06
5.1203e-09
5.82949e-06
-1.36291e-07
5.8645e-06
-2.75529e-07
5.90734e-06
-4.05674e-07
5.95644e-06
-5.20856e-07
6.0098e-06
-6.16282e-07
6.06531e-06
-6.89122e-07
6.12138e-06
-7.389e-07
6.1775e-06
-7.66692e-07
6.23367e-06
-7.72413e-07
6.28888e-06
-7.54393e-07
6.34146e-06
-7.12293e-07
6.38973e-06
-6.47616e-07
6.4325e-06
-5.63542e-07
6.46915e-06
-4.63767e-07
6.4995e-06
-3.51696e-07
6.52344e-06
-2.30318e-07
6.54015e-06
-1.02762e-07
6.54824e-06
2.62317e-08
6.54645e-06
1.51765e-07
6.53362e-06
2.69637e-07
6.50897e-06
3.75792e-07
6.47223e-06
4.66697e-07
6.42363e-06
5.39494e-07
6.36454e-06
5.92064e-07
6.2981e-06
6.23554e-07
6.22875e-06
6.35001e-07
6.16061e-06
6.29615e-07
6.09691e-06
6.09758e-07
6.04076e-06
5.75156e-07
5.99387e-06
5.26418e-07
5.95698e-06
4.64113e-07
5.9303e-06
3.88905e-07
5.91375e-06
3.01862e-07
5.90711e-06
2.04392e-07
5.91021e-06
9.83453e-08
5.92279e-06
-1.33282e-08
5.94374e-06
-1.25047e-07
5.97181e-06
-2.30921e-07
6.00538e-06
-3.26238e-07
6.04261e-06
-4.07095e-07
6.08168e-06
-4.70981e-07
6.12109e-06
-5.17079e-07
6.16011e-06
-5.46162e-07
6.19895e-06
-5.5952e-07
6.23782e-06
-5.56947e-07
6.27621e-06
-5.37871e-07
6.31308e-06
-5.02418e-07
6.34737e-06
-4.51928e-07
6.37815e-06
-3.88602e-07
6.40463e-06
-3.14749e-07
6.42603e-06
-2.32564e-07
6.44138e-06
-1.44303e-07
6.44959e-06
-5.29939e-08
6.45017e-06
3.74776e-08
6.44317e-06
1.24044e-07
6.42895e-06
2.04073e-07
6.4082e-06
2.75257e-07
6.38192e-06
3.3563e-07
6.35126e-06
3.8373e-07
6.31733e-06
4.18812e-07
6.2811e-06
4.40876e-07
6.24347e-06
4.50335e-07
6.20555e-06
4.47627e-07
6.1687e-06
4.32829e-07
6.13438e-06
4.06109e-07
6.10366e-06
3.68399e-07
6.07726e-06
3.20903e-07
6.05568e-06
2.64774e-07
6.03936e-06
2.01167e-07
6.02872e-06
1.31182e-07
6.02432e-06
5.59704e-08
6.02679e-06
-2.26139e-08
6.03617e-06
-1.00784e-07
6.05189e-06
-1.74786e-07
6.0728e-06
-2.41154e-07
6.09731e-06
-2.96895e-07
6.12373e-06
-3.40069e-07
6.15059e-06
-3.70137e-07
6.17726e-06
-3.87887e-07
6.20393e-06
-3.94361e-07
6.23077e-06
-3.89481e-07
6.25708e-06
-3.72542e-07
6.2822e-06
-3.44128e-07
6.3056e-06
-3.05592e-07
6.32676e-06
-2.58399e-07
6.34521e-06
-2.04099e-07
6.36045e-06
-1.44329e-07
6.37181e-06
-8.08785e-08
6.37858e-06
-1.61936e-08
6.38047e-06
4.71584e-08
6.37739e-06
1.07125e-07
6.36958e-06
1.61746e-07
6.35754e-06
2.09319e-07
6.34206e-06
2.48559e-07
6.32396e-06
2.78716e-07
6.30385e-06
2.99612e-07
6.28204e-06
3.1145e-07
6.25888e-06
3.1433e-07
6.23498e-06
3.08325e-07
6.21128e-06
2.93412e-07
6.18868e-06
2.70065e-07
6.16797e-06
2.39277e-07
6.14974e-06
2.02158e-07
6.13441e-06
1.59825e-07
6.12229e-06
1.13344e-07
6.11371e-06
6.3718e-08
6.10914e-06
1.21796e-08
6.10887e-06
-3.92786e-08
6.11291e-06
-8.87885e-08
6.12099e-06
-1.34488e-07
6.13249e-06
-1.74536e-07
6.14651e-06
-2.07408e-07
6.16205e-06
-2.3221e-07
6.17831e-06
-2.48865e-07
6.19503e-06
-2.57913e-07
6.21229e-06
-2.59676e-07
6.22987e-06
-2.53909e-07
-2.40302e-07
6.2825e-06
7.28153e-07
6.22164e-06
6.32601e-07
6.17897e-06
5.25085e-07
6.1531e-06
4.06681e-07
6.14196e-06
2.77916e-07
6.14355e-06
1.39336e-07
6.15609e-06
-7.41596e-09
6.17761e-06
-1.57818e-07
6.20647e-06
-3.04385e-07
6.24154e-06
-4.40743e-07
6.28146e-06
-5.60775e-07
6.32438e-06
-6.59205e-07
6.36814e-06
-7.32879e-07
6.41096e-06
-7.81726e-07
6.45251e-06
-8.08241e-07
6.49385e-06
-8.13751e-07
6.53463e-06
-7.95178e-07
6.57295e-06
-7.50604e-07
6.60748e-06
-6.82146e-07
6.63747e-06
-5.93541e-07
6.66251e-06
-4.88802e-07
6.6823e-06
-3.7149e-07
6.69687e-06
-2.44885e-07
6.70642e-06
-1.12308e-07
6.71082e-06
2.18254e-08
6.70963e-06
1.5296e-07
6.7019e-06
2.77362e-07
6.68655e-06
3.91147e-07
6.66273e-06
4.90508e-07
6.63032e-06
5.71905e-07
6.58978e-06
6.32607e-07
6.54214e-06
6.71199e-07
6.49005e-06
6.87086e-07
6.43566e-06
6.84009e-07
6.38125e-06
6.64166e-07
6.33248e-06
6.23928e-07
6.29174e-06
5.67152e-07
6.26047e-06
4.95389e-07
6.23923e-06
4.10143e-07
6.22804e-06
3.13057e-07
6.22656e-06
2.05868e-07
6.23413e-06
9.07725e-08
6.24914e-06
-2.83302e-08
6.26935e-06
-1.45261e-07
6.29317e-06
-2.54747e-07
6.31928e-06
-3.52344e-07
6.34659e-06
-4.34408e-07
6.37413e-06
-4.98515e-07
6.40093e-06
-5.43879e-07
6.42641e-06
-5.71645e-07
6.45115e-06
-5.84257e-07
6.47687e-06
-5.8267e-07
6.50348e-06
-5.64479e-07
6.52984e-06
-5.28778e-07
6.55499e-06
-4.77084e-07
6.57812e-06
-4.11727e-07
6.59844e-06
-3.35071e-07
6.6152e-06
-2.49318e-07
6.62764e-06
-1.56745e-07
6.63473e-06
-6.00848e-08
6.63567e-06
3.65358e-08
6.63031e-06
1.29405e-07
6.61887e-06
2.15515e-07
6.60188e-06
2.92244e-07
6.58025e-06
3.57261e-07
6.5552e-06
4.08783e-07
6.52798e-06
4.46028e-07
6.49954e-06
4.6932e-07
6.47033e-06
4.79546e-07
6.44026e-06
4.77694e-07
6.41064e-06
4.62451e-07
6.38308e-06
4.33664e-07
6.35859e-06
3.92896e-07
6.33793e-06
3.41565e-07
6.32178e-06
2.80922e-07
6.31077e-06
2.12174e-07
6.30553e-06
1.36428e-07
6.30646e-06
5.50398e-08
6.3133e-06
-2.94559e-08
6.32505e-06
-1.12537e-07
6.34061e-06
-1.90344e-07
6.35878e-06
-2.59322e-07
6.37833e-06
-3.16445e-07
6.39798e-06
-3.59726e-07
6.41658e-06
-3.88735e-07
6.43353e-06
-4.04835e-07
6.44946e-06
-4.10295e-07
6.46654e-06
-4.06561e-07
6.48366e-06
-3.89654e-07
6.50027e-06
-3.60744e-07
6.5161e-06
-3.21416e-07
6.53077e-06
-2.73072e-07
6.54392e-06
-2.17246e-07
6.55516e-06
-1.55567e-07
6.56406e-06
-8.97847e-08
6.56993e-06
-2.20642e-08
6.57225e-06
4.4844e-08
6.57069e-06
1.08686e-07
6.56525e-06
1.67181e-07
6.55631e-06
2.18262e-07
6.54453e-06
2.60341e-07
6.53077e-06
2.92472e-07
6.51588e-06
3.14496e-07
6.50028e-06
3.27051e-07
6.48378e-06
3.30836e-07
6.46607e-06
3.26031e-07
6.44832e-06
3.1116e-07
6.43131e-06
2.87073e-07
6.41566e-06
2.54934e-07
6.40187e-06
2.15945e-07
6.39038e-06
1.71316e-07
6.38156e-06
1.22165e-07
6.37579e-06
6.94891e-08
6.37345e-06
1.45182e-08
6.37462e-06
-4.04523e-08
6.37908e-06
-9.32462e-08
6.3864e-06
-1.41809e-07
6.39599e-06
-1.84121e-07
6.40705e-06
-2.18467e-07
6.41864e-06
-2.43799e-07
6.42988e-06
-2.6011e-07
6.44048e-06
-2.68512e-07
6.45114e-06
-2.70331e-07
6.46271e-06
-2.65484e-07
-2.5173e-07
6.56512e-06
7.92305e-07
6.51366e-06
6.84064e-07
6.47633e-06
5.62413e-07
6.45256e-06
4.30449e-07
6.44133e-06
2.89153e-07
6.44117e-06
1.39494e-07
6.45026e-06
-1.65086e-08
6.46599e-06
-1.73544e-07
6.48663e-06
-3.25028e-07
6.5112e-06
-4.65318e-07
6.53896e-06
-5.88526e-07
6.56875e-06
-6.89001e-07
6.59874e-06
-7.62864e-07
6.62681e-06
-8.09802e-07
6.65217e-06
-8.33594e-07
6.67685e-06
-8.38432e-07
6.70222e-06
-8.20554e-07
6.72445e-06
-7.72831e-07
6.74312e-06
-7.00817e-07
6.75826e-06
-6.08683e-07
6.77007e-06
-5.00612e-07
6.77864e-06
-3.80053e-07
6.78384e-06
-2.50088e-07
6.78574e-06
-1.14203e-07
6.78488e-06
2.26784e-08
6.78189e-06
1.55956e-07
6.7769e-06
2.82344e-07
6.76961e-06
3.9844e-07
6.7597e-06
5.00418e-07
6.74731e-06
5.84297e-07
6.73278e-06
6.47141e-07
6.71583e-06
6.88144e-07
6.69514e-06
7.07776e-07
6.66841e-06
7.10739e-07
6.63519e-06
6.97385e-07
6.60217e-06
6.56946e-07
6.57264e-06
5.96687e-07
6.54905e-06
5.18979e-07
6.53289e-06
4.26299e-07
6.52467e-06
3.21276e-07
6.52398e-06
2.06562e-07
6.52939e-06
8.53649e-08
6.53819e-06
-3.71345e-08
6.54821e-06
-1.5528e-07
6.55844e-06
-2.64976e-07
6.56864e-06
-3.62549e-07
6.57912e-06
-4.44884e-07
6.59017e-06
-5.09569e-07
6.60162e-06
-5.55321e-07
6.61278e-06
-5.82809e-07
6.62347e-06
-5.94943e-07
6.63596e-06
-5.95164e-07
6.6511e-06
-5.79618e-07
6.66695e-06
-5.44625e-07
6.6831e-06
-4.93239e-07
6.6988e-06
-4.27422e-07
6.71293e-06
-3.49207e-07
6.72457e-06
-2.60957e-07
6.73317e-06
-1.6534e-07
6.73799e-06
-6.49084e-08
6.73857e-06
3.59552e-08
6.73526e-06
1.32712e-07
6.72871e-06
2.22071e-07
6.71928e-06
3.01671e-07
6.70717e-06
3.6937e-07
6.69276e-06
4.23197e-07
6.67677e-06
4.62014e-07
6.66005e-06
4.86043e-07
6.64291e-06
4.9668e-07
6.62386e-06
4.96752e-07
6.60344e-06
4.82872e-07
6.58446e-06
4.52642e-07
6.5679e-06
4.0945e-07
6.55464e-06
3.54834e-07
6.54533e-06
2.90225e-07
6.54049e-06
2.17018e-07
6.5404e-06
1.36513e-07
6.5448e-06
5.06468e-08
6.5522e-06
-3.68594e-08
6.56095e-06
-1.21284e-07
6.57004e-06
-1.99441e-07
6.57899e-06
-2.6827e-07
6.58765e-06
-3.25105e-07
6.5959e-06
-3.67972e-07
6.60342e-06
-3.96256e-07
6.60994e-06
-4.11358e-07
6.61574e-06
-4.16088e-07
6.62321e-06
-4.14032e-07
6.63145e-06
-3.97903e-07
6.63988e-06
-3.69168e-07
6.64833e-06
-3.29865e-07
6.65668e-06
-2.81421e-07
6.66473e-06
-2.25304e-07
6.6722e-06
-1.63033e-07
6.67875e-06
-9.6337e-08
6.68382e-06
-2.71347e-08
6.68685e-06
4.18124e-08
6.68754e-06
1.08001e-07
6.68578e-06
1.6894e-07
6.68172e-06
2.22318e-07
6.67566e-06
2.66406e-07
6.66807e-06
3.00065e-07
6.65982e-06
3.22747e-07
6.65162e-06
3.35245e-07
6.64308e-06
3.39383e-07
6.63247e-06
3.36636e-07
6.62131e-06
3.22324e-07
6.6104e-06
2.9798e-07
6.60031e-06
2.65024e-07
6.59153e-06
2.24726e-07
6.58446e-06
1.78386e-07
6.57946e-06
1.27161e-07
6.57682e-06
7.21304e-08
6.57652e-06
1.48196e-08
6.5781e-06
-4.20318e-08
6.58102e-06
-9.61694e-08
6.5849e-06
-1.45682e-07
6.58947e-06
-1.887e-07
6.59455e-06
-2.23537e-07
6.59977e-06
-2.49023e-07
6.60467e-06
-2.65008e-07
6.60886e-06
-2.72707e-07
6.6129e-06
-2.74368e-07
6.61839e-06
-2.70972e-07
-2.57473e-07
6.74302e-06
6.71343e-06
6.68913e-06
6.67269e-06
6.66437e-06
6.66339e-06
6.66835e-06
6.67701e-06
6.68788e-06
6.70015e-06
6.71373e-06
6.72859e-06
6.74357e-06
6.75652e-06
6.76569e-06
6.77282e-06
6.78052e-06
6.78632e-06
6.79122e-06
6.79544e-06
6.79829e-06
6.79936e-06
6.79867e-06
6.79587e-06
6.79077e-06
6.78385e-06
6.77602e-06
6.76825e-06
6.76142e-06
6.75615e-06
6.75288e-06
6.75204e-06
6.75246e-06
6.75256e-06
6.75186e-06
6.74964e-06
6.74629e-06
6.74279e-06
6.74014e-06
6.73873e-06
6.73804e-06
6.73678e-06
6.73371e-06
6.72894e-06
6.72299e-06
6.71654e-06
6.7106e-06
6.70632e-06
6.70441e-06
6.7046e-06
6.70575e-06
6.70822e-06
6.7137e-06
6.72058e-06
6.72919e-06
6.7388e-06
6.74839e-06
6.75687e-06
6.76278e-06
6.76546e-06
6.76533e-06
6.76234e-06
6.75624e-06
6.74784e-06
6.73838e-06
6.72903e-06
6.72099e-06
6.71548e-06
6.71249e-06
6.70955e-06
6.70649e-06
6.70417e-06
6.70236e-06
6.70116e-06
6.70087e-06
6.70167e-06
6.70328e-06
6.70512e-06
6.70611e-06
6.70581e-06
6.70421e-06
6.70165e-06
6.69859e-06
6.69579e-06
6.69383e-06
6.69266e-06
6.69206e-06
6.69225e-06
6.69362e-06
6.69574e-06
6.69858e-06
6.70213e-06
6.70647e-06
6.71146e-06
6.71626e-06
6.71973e-06
6.72153e-06
6.72197e-06
6.72112e-06
6.71881e-06
6.71535e-06
6.71166e-06
6.70852e-06
6.70649e-06
6.70534e-06
6.70344e-06
6.70161e-06
6.70001e-06
6.69862e-06
6.69747e-06
6.69652e-06
6.69569e-06
6.69485e-06
6.69381e-06
6.69251e-06
6.69103e-06
6.6895e-06
6.6881e-06
6.68703e-06
6.68649e-06
6.68644e-06
6.68654e-06
6.6867e-06
6.68769e-06
-2.71962e-07
-2.58851e-07
6.70082e-06
2.96959e-07
1.76545e-08
2.80136e-07
1.68228e-08
2.64947e-07
1.51894e-08
2.52276e-07
1.26707e-08
2.43024e-07
9.25231e-09
2.3811e-07
4.9141e-09
2.37757e-07
3.5245e-10
2.42172e-07
-4.41404e-09
2.51769e-07
-9.59798e-09
2.66365e-07
-1.45953e-08
2.85477e-07
-1.91126e-08
3.08384e-07
-2.29065e-08
3.34171e-07
-2.57873e-08
3.61804e-07
-2.76333e-08
3.90201e-07
-2.83962e-08
4.18284e-07
-2.80833e-08
4.45059e-07
-2.67749e-08
4.69671e-07
-2.46118e-08
4.91434e-07
-2.1763e-08
5.09843e-07
-1.8409e-08
5.24574e-07
-1.47316e-08
5.35472e-07
-1.08973e-08
5.42508e-07
-7.03634e-09
5.45729e-07
-3.22148e-09
5.45604e-07
1.24877e-10
5.42347e-07
3.25789e-09
5.36154e-07
6.19227e-09
5.27307e-07
8.84712e-09
5.16078e-07
1.12289e-08
5.02732e-07
1.33463e-08
4.87535e-07
1.51968e-08
4.70781e-07
1.67539e-08
4.52808e-07
1.79734e-08
4.34014e-07
1.8794e-08
4.14863e-07
1.91504e-08
3.95892e-07
1.89715e-08
3.77713e-07
1.81792e-08
3.61004e-07
1.67091e-08
3.46468e-07
1.45356e-08
3.3479e-07
1.1678e-08
3.26595e-07
8.19475e-09
3.22455e-07
4.14068e-09
3.22324e-07
1.30591e-10
3.26282e-07
-3.95839e-09
3.34401e-07
-8.11875e-09
3.46364e-07
-1.1963e-08
3.61672e-07
-1.5308e-08
3.79689e-07
-1.80165e-08
3.9968e-07
-1.99918e-08
4.20861e-07
-2.11809e-08
4.42433e-07
-2.15716e-08
4.63623e-07
-2.11901e-08
4.83729e-07
-2.01055e-08
5.02145e-07
-1.84162e-08
5.18376e-07
-1.62311e-08
5.32045e-07
-1.3669e-08
5.42892e-07
-1.08471e-08
5.50761e-07
-7.86922e-09
5.55576e-07
-4.8148e-09
5.57268e-07
-1.69245e-09
5.56374e-07
8.94054e-10
5.52814e-07
3.56082e-09
5.46777e-07
6.03614e-09
5.3851e-07
8.26793e-09
5.28279e-07
1.02306e-08
5.16376e-07
1.19034e-08
5.03114e-07
1.3262e-08
4.88837e-07
1.42764e-08
4.73923e-07
1.49141e-08
4.58782e-07
1.51412e-08
4.4386e-07
1.49215e-08
4.29624e-07
1.42365e-08
4.16539e-07
1.30847e-08
4.05068e-07
1.14707e-08
3.95654e-07
9.41461e-09
3.88688e-07
6.96562e-09
3.84499e-07
4.18889e-09
3.83369e-07
1.13082e-09
3.84936e-07
-1.56742e-09
3.89452e-07
-4.51609e-09
3.96738e-07
-7.28645e-09
4.06492e-07
-9.75321e-09
4.18314e-07
-1.18225e-08
4.31735e-07
-1.34208e-08
4.46234e-07
-1.44986e-08
4.6127e-07
-1.50365e-08
4.76306e-07
-1.50357e-08
4.90826e-07
-1.45204e-08
5.04365e-07
-1.35386e-08
5.16519e-07
-1.21547e-08
5.26959e-07
-1.04393e-08
5.35428e-07
-8.46898e-09
5.41747e-07
-6.31964e-09
5.45806e-07
-4.0585e-09
5.47524e-07
-1.71856e-09
5.47167e-07
3.57556e-10
5.44747e-07
2.42024e-09
5.40378e-07
4.3683e-09
5.34257e-07
6.12102e-09
5.26615e-07
7.64221e-09
5.17709e-07
8.90608e-09
5.07817e-07
9.89198e-09
4.97234e-07
1.05831e-08
4.86266e-07
1.0968e-08
4.75231e-07
1.10352e-08
4.64454e-07
1.0777e-08
4.54258e-07
1.01958e-08
4.44953e-07
9.30458e-09
4.36827e-07
8.12584e-09
4.30139e-07
6.68866e-09
4.25113e-07
5.02613e-09
4.21936e-07
3.17671e-09
4.20791e-07
1.14493e-09
4.2142e-07
-6.29298e-10
4.23972e-07
-2.55175e-09
4.28351e-07
-4.3787e-09
4.34377e-07
-6.02575e-09
4.41811e-07
-7.43453e-09
4.50371e-07
-8.56017e-09
4.59741e-07
-9.36989e-09
4.69587e-07
-9.84561e-09
4.79568e-07
-9.98147e-09
4.8935e-07
-9.78215e-09
4.98618e-07
-9.26734e-09
-8.46978e-09
1.07466e-06
3.2046e-08
1.06128e-06
3.02e-08
1.04972e-06
2.67506e-08
1.04078e-06
2.16152e-08
1.03518e-06
1.48542e-08
1.03361e-06
6.47782e-09
1.03686e-06
-2.89744e-09
1.04548e-06
-1.30322e-08
1.05929e-06
-2.34098e-08
1.07808e-06
-3.33853e-08
1.10134e-06
-4.23672e-08
1.12827e-06
-4.98399e-08
1.15789e-06
-5.5405e-08
1.18907e-06
-5.88129e-08
1.22063e-06
-5.99601e-08
1.25144e-06
-5.88867e-08
1.28043e-06
-5.57733e-08
1.30674e-06
-5.09157e-08
1.32965e-06
-4.4676e-08
1.34869e-06
-3.74481e-08
1.36358e-06
-2.96242e-08
1.37425e-06
-2.15641e-08
1.38078e-06
-1.35644e-08
1.3834e-06
-5.84691e-09
1.38227e-06
1.25811e-09
1.37778e-06
7.74264e-09
1.37041e-06
1.35636e-08
1.3605e-06
1.87581e-08
1.34837e-06
2.33625e-08
1.33431e-06
2.74058e-08
1.31862e-06
3.08897e-08
1.3016e-06
3.37725e-08
1.28361e-06
3.59643e-08
1.26506e-06
3.73384e-08
1.24647e-06
3.77479e-08
1.2284e-06
3.70353e-08
1.21151e-06
3.50699e-08
1.19646e-06
3.1763e-08
1.18389e-06
2.7101e-08
1.17442e-06
2.11539e-08
1.16854e-06
1.40655e-08
1.16665e-06
6.03413e-09
1.16922e-06
-2.44166e-09
1.17632e-06
-1.10568e-08
1.18763e-06
-1.943e-08
1.2028e-06
-2.71291e-08
1.22127e-06
-3.3783e-08
1.24235e-06
-3.90953e-08
1.26522e-06
-4.28609e-08
1.28902e-06
-4.49763e-08
1.31287e-06
-4.54269e-08
1.33597e-06
-4.42831e-08
1.35756e-06
-4.1696e-08
1.37702e-06
-3.78761e-08
1.39385e-06
-3.30649e-08
1.4077e-06
-2.75201e-08
1.41835e-06
-2.1497e-08
1.42571e-06
-1.52271e-08
1.42979e-06
-8.8947e-09
1.43071e-06
-2.61789e-09
1.42847e-06
3.13456e-09
1.42348e-06
8.55478e-09
1.41603e-06
1.3483e-08
1.40643e-06
1.78752e-08
1.39497e-06
2.16908e-08
1.38198e-06
2.48917e-08
1.36781e-06
2.7434e-08
1.35282e-06
2.92636e-08
1.33742e-06
3.03159e-08
1.32203e-06
3.05255e-08
1.30712e-06
2.9833e-08
1.29317e-06
2.81911e-08
1.28066e-06
2.55909e-08
1.27006e-06
2.20746e-08
1.26176e-06
1.7707e-08
1.25612e-06
1.26088e-08
1.25339e-06
6.92084e-09
1.25367e-06
8.53277e-10
1.25732e-06
-5.22023e-09
1.26397e-06
-1.11719e-08
1.27341e-06
-1.67255e-08
1.2853e-06
-2.16389e-08
1.29919e-06
-2.57105e-08
1.31455e-06
-2.87858e-08
1.33082e-06
-3.07678e-08
1.3474e-06
-3.16179e-08
1.36371e-06
-3.13468e-08
1.37921e-06
-3.00158e-08
1.3934e-06
-2.77316e-08
1.40588e-06
-2.46336e-08
1.41633e-06
-2.08837e-08
1.42451e-06
-1.66498e-08
1.43028e-06
-1.2098e-08
1.43361e-06
-7.38752e-09
1.43453e-06
-2.63452e-09
1.43299e-06
1.89357e-09
1.42925e-06
6.16593e-09
1.42354e-06
1.00747e-08
1.41612e-06
1.35453e-08
1.40724e-06
1.65159e-08
1.39721e-06
1.89377e-08
1.38633e-06
2.07731e-08
1.37492e-06
2.1994e-08
1.36331e-06
2.25801e-08
1.35183e-06
2.25151e-08
1.34081e-06
2.17916e-08
1.33059e-06
2.04179e-08
1.32147e-06
1.84232e-08
1.31374e-06
1.58555e-08
1.30765e-06
1.27824e-08
1.30339e-06
9.28876e-09
1.30109e-06
5.46967e-09
1.30082e-06
1.4228e-09
1.30277e-06
-2.58336e-09
1.30672e-06
-6.49768e-09
1.3125e-06
-1.01636e-08
1.31992e-06
-1.34426e-08
1.3287e-06
-1.62148e-08
1.33852e-06
-1.83849e-08
1.34904e-06
-1.98866e-08
1.35988e-06
-2.06846e-08
1.37067e-06
-2.07717e-08
1.38105e-06
-2.01679e-08
1.39071e-06
-1.89212e-08
-1.71031e-08
1.9554e-06
4.78089e-08
1.9403e-06
4.53026e-08
1.92665e-06
4.04017e-08
1.91539e-06
3.28788e-08
1.90747e-06
2.27743e-08
1.90379e-06
1.01567e-08
1.90516e-06
-4.26982e-09
1.91201e-06
-1.98784e-08
1.92436e-06
-3.57638e-08
1.94201e-06
-5.10335e-08
1.96442e-06
-6.47789e-08
1.99078e-06
-7.61962e-08
2.02004e-06
-8.46712e-08
2.05106e-06
-8.98295e-08
2.08261e-06
-9.15072e-08
2.11348e-06
-8.97629e-08
2.14258e-06
-8.48745e-08
2.16895e-06
-7.72817e-08
2.19182e-06
-6.7549e-08
2.21068e-06
-5.63035e-08
2.22522e-06
-4.41685e-08
2.23537e-06
-3.17126e-08
2.2412e-06
-1.93924e-08
2.24293e-06
-7.57892e-09
2.24086e-06
3.33074e-09
2.23544e-06
1.31625e-08
2.22711e-06
2.18936e-08
2.21625e-06
2.96173e-08
2.20318e-06
3.64281e-08
2.18819e-06
4.24037e-08
2.1715e-06
4.7572e-08
2.15339e-06
5.1885e-08
2.13414e-06
5.52122e-08
2.11413e-06
5.73522e-08
2.09382e-06
5.80589e-08
2.07377e-06
5.70826e-08
2.05465e-06
5.41916e-08
2.0372e-06
4.92126e-08
2.0222e-06
4.2103e-08
2.01041e-06
3.29461e-08
2.00252e-06
2.19518e-08
1.99909e-06
9.46606e-09
2.00055e-06
-3.90943e-09
2.00696e-06
-1.74663e-08
2.01807e-06
-3.05386e-08
2.03347e-06
-4.25248e-08
2.05254e-06
-5.28501e-08
2.07449e-06
-6.10468e-08
2.09842e-06
-6.67956e-08
2.12339e-06
-6.9944e-08
2.14843e-06
-7.04702e-08
2.17265e-06
-6.84979e-08
2.19523e-06
-6.42805e-08
2.21551e-06
-5.81502e-08
2.23294e-06
-5.04974e-08
2.24716e-06
-4.17387e-08
2.25794e-06
-3.22772e-08
2.26518e-06
-2.24702e-08
2.26889e-06
-1.26028e-08
2.26922e-06
-2.94778e-09
2.26625e-06
6.10158e-09
2.26037e-06
1.44344e-08
2.25188e-06
2.19712e-08
2.2411e-06
2.86577e-08
2.22834e-06
3.44481e-08
2.21394e-06
3.92949e-08
2.19824e-06
4.31376e-08
2.1816e-06
4.58961e-08
2.16445e-06
4.7472e-08
2.14721e-06
4.77592e-08
2.13039e-06
4.66546e-08
2.1145e-06
4.40827e-08
2.10007e-06
4.0022e-08
2.08762e-06
3.4524e-08
2.07764e-06
2.76889e-08
2.07055e-06
1.96927e-08
2.06672e-06
1.07598e-08
2.06634e-06
1.23157e-09
2.06956e-06
-8.44476e-09
2.0762e-06
-1.78056e-08
2.08597e-06
-2.65039e-08
2.09851e-06
-3.41768e-08
2.11331e-06
-4.05054e-08
2.12977e-06
-4.52466e-08
2.14725e-06
-4.82501e-08
2.16509e-06
-4.94573e-08
2.18263e-06
-4.88898e-08
2.19927e-06
-4.66562e-08
2.21448e-06
-4.29357e-08
2.2278e-06
-3.79567e-08
2.23889e-06
-3.1978e-08
2.24752e-06
-2.52716e-08
2.25352e-06
-1.80977e-08
2.25681e-06
-1.06809e-08
2.25739e-06
-3.21542e-09
2.25538e-06
3.90588e-09
2.25097e-06
1.05744e-08
2.24441e-06
1.66306e-08
2.23598e-06
2.19771e-08
2.22597e-06
2.65277e-08
2.21469e-06
3.02146e-08
2.20248e-06
3.29857e-08
2.18967e-06
3.48012e-08
2.17662e-06
3.56313e-08
2.16369e-06
3.54512e-08
2.15123e-06
3.42502e-08
2.1396e-06
3.2042e-08
2.12916e-06
2.8871e-08
2.1202e-06
2.48104e-08
2.11302e-06
1.99634e-08
2.10785e-06
1.4459e-08
2.10487e-06
8.44443e-09
2.1042e-06
2.09935e-09
2.10591e-06
-4.2908e-09
2.10987e-06
-1.04588e-08
2.11591e-06
-1.62055e-08
2.12379e-06
-2.13288e-08
2.13322e-06
-2.56418e-08
2.14383e-06
-2.8994e-08
2.15523e-06
-3.12813e-08
2.16699e-06
-3.24509e-08
2.17871e-06
-3.24933e-08
2.18999e-06
-3.14472e-08
2.20047e-06
-2.93963e-08
-2.64561e-08
2.83663e-06
7.28586e-08
2.81239e-06
6.95431e-08
2.79002e-06
6.27665e-08
2.77079e-06
5.21086e-08
2.75606e-06
3.75037e-08
2.74702e-06
1.9204e-08
2.74489e-06
-2.14113e-09
2.75023e-06
-2.52189e-08
2.76303e-06
-4.85647e-08
2.78289e-06
-7.08969e-08
2.80894e-06
-9.08263e-08
2.83987e-06
-1.07124e-07
2.87408e-06
-1.18883e-07
2.90985e-06
-1.25598e-07
2.94552e-06
-1.27177e-07
2.97963e-06
-1.23874e-07
3.01094e-06
-1.16181e-07
3.03845e-06
-1.04795e-07
3.06147e-06
-9.05703e-08
3.07959e-06
-7.44245e-08
3.09265e-06
-5.72319e-08
3.10068e-06
-3.97333e-08
3.10378e-06
-2.24987e-08
3.10225e-06
-6.04949e-09
3.09658e-06
9.00183e-09
3.08725e-06
2.24956e-08
3.0747e-06
3.44417e-08
3.05934e-06
4.49743e-08
3.04151e-06
5.42608e-08
3.02147e-06
6.2448e-08
2.99943e-06
6.96073e-08
2.97562e-06
7.56909e-08
2.95032e-06
8.05143e-08
2.9239e-06
8.37705e-08
2.89689e-06
8.50733e-08
2.86996e-06
8.4008e-08
2.84397e-06
8.01874e-08
2.81986e-06
7.33261e-08
2.79865e-06
6.33113e-08
2.78137e-06
5.02204e-08
2.76899e-06
3.43331e-08
2.76231e-06
1.61485e-08
2.76197e-06
-3.56897e-09
2.76813e-06
-2.36236e-08
2.78047e-06
-4.28827e-08
2.79839e-06
-6.04468e-08
2.82099e-06
-7.54456e-08
2.84712e-06
-8.71747e-08
2.87549e-06
-9.5173e-08
2.90481e-06
-9.92567e-08
2.93382e-06
-9.94862e-08
2.96146e-06
-9.61339e-08
2.98679e-06
-8.96142e-08
3.00908e-06
-8.04393e-08
3.02778e-06
-6.91934e-08
3.04252e-06
-5.6487e-08
3.05314e-06
-4.28934e-08
3.05956e-06
-2.88854e-08
3.0618e-06
-1.48479e-08
3.06006e-06
-1.20501e-09
3.05461e-06
1.15479e-08
3.04583e-06
2.3216e-08
3.03408e-06
3.37229e-08
3.01972e-06
4.30167e-08
3.00311e-06
5.10608e-08
2.98459e-06
5.78092e-08
2.96454e-06
6.31885e-08
2.94335e-06
6.7087e-08
2.92147e-06
6.93565e-08
2.89941e-06
6.98207e-08
2.87775e-06
6.83053e-08
2.85715e-06
6.46872e-08
2.83825e-06
5.89217e-08
2.82172e-06
5.10506e-08
2.8082e-06
4.12096e-08
2.79826e-06
2.96312e-08
2.79238e-06
1.66412e-08
2.79092e-06
2.69567e-09
2.794e-06
-1.15249e-08
2.80144e-06
-2.52418e-08
2.81286e-06
-3.79314e-08
2.82775e-06
-4.90629e-08
2.84541e-06
-5.81661e-08
2.86505e-06
-6.48877e-08
2.88583e-06
-6.90245e-08
2.90689e-06
-7.0521e-08
2.92745e-06
-6.94505e-08
2.94679e-06
-6.59997e-08
2.9643e-06
-6.04408e-08
2.97946e-06
-5.31142e-08
2.99188e-06
-4.4401e-08
3.0013e-06
-3.46894e-08
3.00754e-06
-2.43411e-08
3.01053e-06
-1.36703e-08
3.01031e-06
-2.99683e-09
3.00698e-06
7.23257e-09
3.00084e-06
1.67188e-08
2.99217e-06
2.53001e-08
2.98131e-06
3.28426e-08
2.96859e-06
3.92396e-08
2.9544e-06
4.4407e-08
2.93911e-06
4.82778e-08
2.92311e-06
5.0799e-08
2.90681e-06
5.19281e-08
2.89064e-06
5.16249e-08
2.87502e-06
4.98697e-08
2.86038e-06
4.668e-08
2.84714e-06
4.21125e-08
2.83569e-06
3.62654e-08
2.82637e-06
2.92786e-08
2.8195e-06
2.13296e-08
2.81532e-06
1.26277e-08
2.81398e-06
3.43193e-09
2.81557e-06
-5.87874e-09
2.81995e-06
-1.48396e-08
2.82691e-06
-2.31577e-08
2.83612e-06
-3.05455e-08
2.84722e-06
-3.67347e-08
2.85973e-06
-4.15088e-08
2.87317e-06
-4.47219e-08
2.88703e-06
-4.63054e-08
2.90079e-06
-4.62574e-08
2.91399e-06
-4.46465e-08
2.92619e-06
-4.16014e-08
-3.72941e-08
3.52918e-06
1.18098e-07
3.48517e-06
1.13555e-07
3.44406e-06
1.03875e-07
3.40783e-06
8.83436e-08
3.37852e-06
6.68134e-08
3.35819e-06
3.95332e-08
3.34876e-06
7.28734e-09
3.35173e-06
-2.81908e-08
3.36758e-06
-6.4412e-08
3.39585e-06
-9.91653e-08
3.43519e-06
-1.30172e-07
3.48349e-06
-1.55421e-07
3.53799e-06
-1.73388e-07
3.59556e-06
-1.83165e-07
3.65298e-06
-1.84598e-07
3.70742e-06
-1.78308e-07
3.75656e-06
-1.65326e-07
3.79868e-06
-1.46917e-07
3.83267e-06
-1.24552e-07
3.85799e-06
-9.97498e-08
3.87463e-06
-7.38727e-08
3.88288e-06
-4.79844e-08
3.88324e-06
-2.28551e-08
3.8764e-06
7.85147e-10
3.86337e-06
2.20334e-08
3.84525e-06
4.06167e-08
3.82293e-06
5.67601e-08
3.79711e-06
7.07982e-08
3.76827e-06
8.30999e-08
3.73673e-06
9.39839e-08
3.70271e-06
1.03631e-07
3.66639e-06
1.12015e-07
3.62803e-06
1.18872e-07
3.58807e-06
1.23731e-07
3.54717e-06
1.25973e-07
3.50628e-06
1.24893e-07
3.46661e-06
1.19861e-07
3.4295e-06
1.10437e-07
3.39642e-06
9.63856e-08
3.36891e-06
7.77367e-08
3.34841e-06
5.48315e-08
3.33624e-06
2.83202e-08
3.33345e-06
-7.78252e-10
3.34059e-06
-3.077e-08
3.35746e-06
-5.97521e-08
3.38324e-06
-8.62245e-08
3.41659e-06
-1.088e-07
3.45577e-06
-1.2635e-07
3.4987e-06
-1.38099e-07
3.54311e-06
-1.43676e-07
3.58684e-06
-1.43212e-07
3.62799e-06
-1.3728e-07
3.66501e-06
-1.26637e-07
3.69674e-06
-1.12171e-07
3.72243e-06
-9.48817e-08
3.74171e-06
-7.57682e-08
3.75452e-06
-5.57045e-08
3.76099e-06
-3.5359e-08
3.76139e-06
-1.52427e-08
3.75611e-06
4.07596e-09
3.74578e-06
2.18752e-08
3.73109e-06
3.79034e-08
3.71266e-06
5.21607e-08
3.69099e-06
6.46793e-08
3.66657e-06
7.54826e-08
3.63982e-06
8.45592e-08
3.61117e-06
9.18354e-08
3.5811e-06
9.71613e-08
3.55015e-06
1.00311e-07
3.51898e-06
1.00991e-07
3.48837e-06
9.89114e-08
3.45918e-06
9.3877e-08
3.43231e-06
8.57944e-08
3.40867e-06
7.46878e-08