/*--------------------------------*- C++ -*----------------------------------*\
| =========                 |                                                 |
| \\      /  F ield         | OpenFOAM: The Open Source CFD Toolbox           |
|  \\    /   O peration     | Version:  2206                                  |
|   \\  /    A nd           | Website:  www.openfoam.com                      |
|    \\/     M anipulation  |                                                 |
\*---------------------------------------------------------------------------*/
FoamFile
{
    version     2.0;
    format      ascii;
    arch        "LSB;label=32;scalar=64";
    class       volVectorField;
    location    "19.5";
    object      U;
}
// * * * * * * * * * * * * * * * * * * * * * * * * * * * * * * * * * * * * * //

dimensions      [0 1 -1 0 0 0 0];

internalField   nonuniform List<vector> 
1865
(
(0.448464 -0.0218234 0)
(0.499197 -0.0227303 0)
(0.550989 -0.0243803 0)
(0.60428 -0.0268725 0)
(0.661099 -0.0304962 0)
(0.721748 -0.0359642 0)
(0.797568 -0.046371 0)
(0.862793 -0.0570745 0)
(1.46005 -0.0849959 0)
(1.50649 -0.0846402 0)
(1.55382 -0.0858093 0)
(1.60266 -0.0889229 0)
(1.65381 -0.094508 0)
(1.70778 -0.103711 0)
(1.76519 -0.117935 0)
(1.82104 -0.140574 0)
(2.30986 -0.114814 0)
(2.32971 -0.116298 0)
(2.35101 -0.11949 0)
(2.37382 -0.1249 0)
(2.39811 -0.133027 0)
(2.42353 -0.144568 0)
(2.44927 -0.160331 0)
(2.47279 -0.180517 0)
(2.68476 -0.123786 0)
(2.68844 -0.126471 0)
(2.69324 -0.130878 0)
(2.69895 -0.137377 0)
(2.70525 -0.146318 0)
(2.71162 -0.157985 0)
(2.71715 -0.172431 0)
(2.72062 -0.189142 0)
(2.79193 -0.12075 0)
(2.78888 -0.124763 0)
(2.78658 -0.130223 0)
(2.7848 -0.137437 0)
(2.78324 -0.146641 0)
(2.78148 -0.157896 0)
(2.77896 -0.171016 0)
(2.77539 -0.185485 0)
(2.8127 -0.116675 0)
(2.80676 -0.121281 0)
(2.80139 -0.127228 0)
(2.79644 -0.134691 0)
(2.79167 -0.143805 0)
(2.78655 -0.154593 0)
(2.78125 -0.166938 0)
(2.77549 -0.180448 0)
(2.79623 -0.108032 0)
(2.78799 -0.113211 0)
(2.77991 -0.119555 0)
(2.77181 -0.127254 0)
(2.76354 -0.136409 0)
(2.75494 -0.147059 0)
(2.74583 -0.159139 0)
(2.73606 -0.172312 0)
(2.73694 -0.099778 0)
(2.72242 -0.104792 0)
(2.70729 -0.110788 0)
(2.69131 -0.118035 0)
(2.67426 -0.126548 0)
(2.65595 -0.136375 0)
(2.63617 -0.147487 0)
(2.6148 -0.159614 0)
(2.46937 -0.0771677 0)
(2.43802 -0.0810667 0)
(2.40473 -0.0856583 0)
(2.36908 -0.0911006 0)
(2.33065 -0.0975275 0)
(2.28902 -0.105007 0)
(2.24384 -0.113512 0)
(2.19465 -0.122867 0)
(1.43774 -0.0384695 0)
(1.37998 -0.0400644 0)
(1.31947 -0.0419795 0)
(1.25552 -0.0443265 0)
(1.18744 -0.0471823 0)
(1.11452 -0.0505695 0)
(1.03603 -0.0544627 0)
(0.951274 -0.0586572 0)
(0.973073 -0.127801 0)
(1.00005 -0.162918 0)
(1.0183 -0.189658 0)
(1.03576 -0.199747 0)
(1.05601 -0.189255 0)
(1.0863 -0.160945 0)
(1.13701 -0.119459 0)
(1.21639 -0.0661903 0)
(1.33367 -0.0109024 0)
(1.4917 0.0275731 0)
(1.68463 0.0359344 0)
(1.90113 0.00899154 0)
(2.13128 -0.0580326 0)
(2.37403 -0.178984 0)
(2.60516 -0.348776 0)
(2.77841 -0.52065 0)
(2.88301 -0.660459 0)
(2.92846 -0.758779 0)
(2.93081 -0.824118 0)
(2.89894 -0.862871 0)
(2.8386 -0.867211 0)
(2.75474 -0.840019 0)
(2.65251 -0.790485 0)
(2.53851 -0.725315 0)
(2.41744 -0.648563 0)
(2.29362 -0.566032 0)
(2.17261 -0.485237 0)
(2.05903 -0.407465 0)
(1.95935 -0.330958 0)
(1.87278 -0.260192 0)
(1.78215 -0.211409 0)
(1.66742 -0.203738 0)
(1.52095 -0.232427 0)
(1.36435 -0.268184 0)
(1.23116 -0.278843 0)
(1.1413 -0.250661 0)
(1.10681 -0.18447 0)
(1.11264 -0.0932794 0)
(1.16743 0.0120213 0)
(1.24776 0.117664 0)
(1.34141 0.218209 0)
(1.43861 0.308537 0)
(1.53518 0.384071 0)
(1.63008 0.44375 0)
(1.72318 0.487086 0)
(1.81641 0.512463 0)
(1.91205 0.517258 0)
(2.01291 0.498314 0)
(2.12202 0.452081 0)
(2.24108 0.375357 0)
(2.37038 0.266102 0)
(2.50782 0.126467 0)
(2.64068 -0.0262996 0)
(2.75095 -0.166892 0)
(2.82814 -0.282068 0)
(2.869 -0.363043 0)
(2.87906 -0.415288 0)
(2.86861 -0.438005 0)
(2.81538 -0.434296 0)
(2.73349 -0.400532 0)
(2.62732 -0.345244 0)
(2.50611 -0.278547 0)
(2.38164 -0.211663 0)
(2.26073 -0.154098 0)
(2.14589 -0.113799 0)
(2.03846 -0.0966025 0)
(1.93992 -0.103566 0)
(1.85184 -0.128772 0)
(1.77431 -0.161433 0)
(1.70662 -0.190835 0)
(1.64843 -0.209117 0)
(1.59946 -0.210949 0)
(1.56015 -0.192209 0)
(1.53261 -0.153372 0)
(1.51627 -0.0984423 0)
(1.51152 -0.0331206 0)
(1.51883 0.036827 0)
(1.53773 0.105966 0)
(1.56682 0.169783 0)
(1.60459 0.225165 0)
(1.64951 0.269908 0)
(1.70009 0.302672 0)
(1.75486 0.322797 0)
(1.81235 0.33022 0)
(1.87125 0.325397 0)
(1.93091 0.309186 0)
(1.99112 0.282554 0)
(2.05215 0.246172 0)
(2.1146 0.199939 0)
(2.1783 0.14411 0)
(2.24103 0.0810655 0)
(2.29754 0.0162119 0)
(2.34367 -0.0452294 0)
(2.37556 -0.0994526 0)
(2.39248 -0.144876 0)
(2.39397 -0.17934 0)
(2.37341 -0.201777 0)
(2.32998 -0.206418 0)
(2.26807 -0.195828 0)
(2.19335 -0.177234 0)
(2.11328 -0.157839 0)
(2.03565 -0.142991 0)
(1.96426 -0.134972 0)
(1.90135 -0.133524 0)
(1.84745 -0.136523 0)
(1.80202 -0.140892 0)
(1.76394 -0.143355 0)
(1.73197 -0.14102 0)
(1.70528 -0.13166 0)
(1.68404 -0.114167 0)
(1.66848 -0.0886694 0)
(1.65876 -0.0559669 0)
(1.65527 -0.0176399 0)
(1.65831 0.0241719 0)
(1.6679 0.066876 0)
(1.68353 0.107634 0)
(1.70447 0.144311 0)
(1.72991 0.175265 0)
(1.75902 0.199244 0)
(1.87662 -0.181144 0)
(1.90761 -0.20772 0)
(1.93087 -0.220839 0)
(1.95577 -0.220854 0)
(1.98227 -0.207839 0)
(2.01539 -0.184313 0)
(2.0613 -0.154692 0)
(2.12452 -0.125253 0)
(2.20981 -0.103868 0)
(2.32053 -0.10048 0)
(2.45211 -0.121714 0)
(2.5957 -0.169281 0)
(2.74442 -0.245584 0)
(2.88618 -0.351506 0)
(2.99215 -0.478857 0)
(3.05481 -0.599126 0)
(3.08027 -0.691177 0)
(3.0775 -0.753792 0)
(3.05349 -0.792732 0)
(3.00105 -0.801944 0)
(2.92456 -0.780365 0)
(2.82621 -0.734382 0)
(2.71052 -0.671229 0)
(2.58295 -0.597151 0)
(2.4481 -0.516506 0)
(2.31436 -0.436231 0)
(2.18582 -0.360751 0)
(2.06501 -0.291872 0)
(1.95837 -0.231261 0)
(1.87272 -0.180536 0)
(1.80827 -0.14238 0)
(1.75377 -0.120582 0)
(1.69436 -0.118402 0)
(1.61948 -0.129005 0)
(1.52776 -0.142638 0)
(1.42961 -0.146731 0)
(1.34717 -0.133292 0)
(1.29512 -0.0975156 0)
(1.28357 -0.03766 0)
(1.30953 0.0405479 0)
(1.3545 0.125988 0)
(1.4344 0.208771 0)
(1.52509 0.28193 0)
(1.62219 0.341524 0)
(1.72461 0.384419 0)
(1.83212 0.407501 0)
(1.94582 0.40759 0)
(2.06804 0.381143 0)
(2.2004 0.325033 0)
(2.34253 0.237359 0)
(2.49036 0.119571 0)
(2.62967 -0.0166987 0)
(2.74415 -0.147572 0)
(2.82837 -0.255246 0)
(2.87788 -0.332587 0)
(2.88922 -0.382497 0)
(2.8748 -0.403004 0)
(2.82369 -0.392335 0)
(2.73007 -0.34884 0)
(2.60943 -0.286145 0)
(2.47777 -0.215169 0)
(2.34527 -0.145184 0)
(2.21983 -0.0828209 0)
(2.10542 -0.0337657 0)
(2.0029 -0.00330707 0)
(1.91078 0.00378086 0)
(1.82849 -0.0136863 0)
(1.75601 -0.0490663 0)
(1.69161 -0.0907865 0)
(1.6331 -0.128485 0)
(1.57988 -0.154973 0)
(1.53229 -0.165508 0)
(1.49118 -0.156694 0)
(1.45968 -0.128421 0)
(1.43924 -0.0846343 0)
(1.43076 -0.0313155 0)
(1.43472 0.025988 0)
(1.45075 0.0835329 0)
(1.47746 0.137253 0)
(1.51375 0.183723 0)
(1.55861 0.220918 0)
(1.61044 0.247603 0)
(1.66756 0.263245 0)
(1.72863 0.267736 0)
(1.79283 0.261186 0)
(1.85992 0.243759 0)
(1.93021 0.215429 0)
(2.00349 0.176557 0)
(2.07801 0.128376 0)
(2.14957 0.0736454 0)
(2.21147 0.0175996 0)
(2.25936 -0.0354911 0)
(2.29083 -0.0824698 0)
(2.30414 -0.120162 0)
(2.29621 -0.147241 0)
(2.26445 -0.158162 0)
(2.2116 -0.154329 0)
(2.14319 -0.137802 0)
(2.06746 -0.115399 0)
(1.99326 -0.0941551 0)
(1.92474 -0.0788054 0)
(1.86374 -0.0716117 0)
(1.81072 -0.0726608 0)
(1.76502 -0.0801594 0)
(1.72523 -0.0911057 0)
(1.6898 -0.102009 0)
(1.65752 -0.109677 0)
(1.62786 -0.111755 0)
(1.60098 -0.106809 0)
(1.57774 -0.0942509 0)
(1.55936 -0.0743353 0)
(1.54667 -0.0478058 0)
(1.54039 -0.0160815 0)
(1.54097 0.0188687 0)
(1.54859 0.0547544 0)
(1.563 0.0892754 0)
(1.58359 0.120382 0)
(1.60964 0.146531 0)
(1.64037 0.166519 0)
(2.49247 -0.206812 0)
(2.50218 -0.226051 0)
(2.50621 -0.236205 0)
(2.51167 -0.236393 0)
(2.52085 -0.231378 0)
(2.53773 -0.220766 0)
(2.56658 -0.207591 0)
(2.60829 -0.197046 0)
(2.66493 -0.193724 0)
(2.73499 -0.203574 0)
(2.80695 -0.231702 0)
(2.88307 -0.281544 0)
(2.96317 -0.35239 0)
(3.03234 -0.43921 0)
(3.08375 -0.532909 0)
(3.11267 -0.620671 0)
(3.11749 -0.687618 0)
(3.11147 -0.728784 0)
(3.07841 -0.745445 0)
(3.02309 -0.729577 0)
(2.94282 -0.685221 0)
(2.83718 -0.619573 0)
(2.71099 -0.541422 0)
(2.57042 -0.457695 0)
(2.42302 -0.374479 0)
(2.27873 -0.298175 0)
(2.14304 -0.23114 0)
(2.0213 -0.175206 0)
(1.91723 -0.131898 0)
(1.83352 -0.101951 0)
(1.77131 -0.0852712 0)
(1.72758 -0.080779 0)
(1.69619 -0.0852107 0)
(1.67188 -0.0918641 0)
(1.65038 -0.0927538 0)
(1.63392 -0.0836779 0)
(1.61848 -0.0652061 0)
(1.60169 -0.0398316 0)
(1.58914 -0.00705959 0)
(1.5885 0.0355064 0)
(1.60734 0.0862202 0)
(1.64669 0.13998 0)
(1.70559 0.193277 0)
(1.78254 0.239389 0)
(1.87533 0.27091 0)
(1.98176 0.282511 0)
(2.09981 0.270393 0)
(2.22692 0.230801 0)
(2.3593 0.16327 0)
(2.49171 0.0724503 0)
(2.61349 -0.0311796 0)
(2.71137 -0.134681 0)
(2.77539 -0.233241 0)
(2.80002 -0.307552 0)
(2.79716 -0.347748 0)
(2.751 -0.358229 0)
(2.66189 -0.338481 0)
(2.55128 -0.288743 0)
(2.42907 -0.220493 0)
(2.30333 -0.146887 0)
(2.18149 -0.0772434 0)
(2.06835 -0.0161141 0)
(1.96857 0.0329416 0)
(1.88384 0.0670859 0)
(1.81287 0.0841515 0)
(1.75263 0.0800504 0)
(1.70226 0.0529485 0)
(1.66036 0.00982134 0)
(1.62216 -0.0368721 0)
(1.58356 -0.0774536 0)
(1.54282 -0.106589 0)
(1.50068 -0.12106 0)
(1.45905 -0.119055 0)
(1.42171 -0.101055 0)
(1.39247 -0.0697225 0)
(1.37683 -0.029056 0)
(1.37217 0.0161143 0)
(1.38088 0.0616905 0)
(1.40437 0.104481 0)
(1.43912 0.141219 0)
(1.48368 0.170115 0)
(1.5368 0.190412 0)
(1.59679 0.201371 0)
(1.66262 0.201958 0)
(1.73398 0.19105 0)
(1.8107 0.168241 0)
(1.89161 0.13504 0)
(1.9711 0.0949175 0)
(2.04144 0.0509605 0)
(2.09656 0.00702361 0)
(2.13344 -0.0318064 0)
(2.15014 -0.0643289 0)
(2.14415 -0.0910264 0)
(2.11474 -0.102581 0)
(2.06649 -0.104145 0)
(2.00564 -0.0944767 0)
(1.93991 -0.0781129 0)
(1.87694 -0.0597592 0)
(1.82098 -0.0431044 0)
(1.7738 -0.0310336 0)
(1.73492 -0.0254407 0)
(1.70263 -0.0269275 0)
(1.6751 -0.0347852 0)
(1.65027 -0.0469469 0)
(1.62581 -0.0603874 0)
(1.59999 -0.0723174 0)
(1.57247 -0.0805451 0)
(1.54405 -0.0835689 0)
(1.5161 -0.0806082 0)
(1.4903 -0.0715204 0)
(1.46836 -0.0565107 0)
(1.45191 -0.0360985 0)
(1.44225 -0.011417 0)
(1.44004 0.0160348 0)
(1.4455 0.0444054 0)
(1.45861 0.0717801 0)
(1.47894 0.096463 0)
(1.50585 0.117028 0)
(1.53856 0.132325 0)
(2.72032 -0.207589 0)
(2.71567 -0.223388 0)
(2.70944 -0.232978 0)
(2.70531 -0.236571 0)
(2.70494 -0.235559 0)
(2.71098 -0.232301 0)
(2.72589 -0.228401 0)
(2.74591 -0.22774 0)
(2.77765 -0.235118 0)
(2.81891 -0.253647 0)
(2.86638 -0.286745 0)
(2.91683 -0.337165 0)
(2.96626 -0.402494 0)
(3.01104 -0.478879 0)
(3.04542 -0.562279 0)
(3.06964 -0.636574 0)
(3.07816 -0.687533 0)
(3.07077 -0.711733 0)
(3.0428 -0.705698 0)
(2.98765 -0.662627 0)
(2.89918 -0.589098 0)
(2.78195 -0.497453 0)
(2.64122 -0.399851 0)
(2.48448 -0.304519 0)
(2.32523 -0.220387 0)
(2.17358 -0.152138 0)
(2.03588 -0.0999865 0)
(1.9168 -0.0631896 0)
(1.81906 -0.040881 0)
(1.74336 -0.0317937 0)
(1.68882 -0.0338233 0)
(1.65275 -0.0447773 0)
(1.63196 -0.0619633 0)
(1.62409 -0.0798946 0)
(1.6263 -0.093012 0)
(1.63771 -0.0968163 0)
(1.66028 -0.087247 0)
(1.69258 -0.0638225 0)
(1.73225 -0.0289024 0)
(1.778 0.01285 0)
(1.83006 0.0558612 0)
(1.88813 0.0965381 0)
(1.95269 0.133223 0)
(2.02472 0.162009 0)
(2.10454 0.178529 0)
(2.19227 0.179489 0)
(2.28444 0.162241 0)
(2.37738 0.124918 0)
(2.46238 0.0677799 0)
(2.51999 -0.00935917 0)
(2.5546 -0.0965085 0)
(2.56479 -0.174962 0)
(2.53155 -0.235724 0)
(2.45993 -0.263974 0)
(2.36434 -0.267635 0)
(2.26246 -0.246991 0)
(2.16455 -0.208081 0)
(2.07034 -0.155446 0)
(1.9787 -0.0932082 0)
(1.89196 -0.0300592 0)
(1.81277 0.0267031 0)
(1.74399 0.0727306 0)
(1.68777 0.106096 0)
(1.64573 0.125989 0)
(1.61463 0.130324 0)
(1.59202 0.115721 0)
(1.5792 0.0800463 0)
(1.57188 0.0335728 0)
(1.56439 -0.0107982 0)
(1.55152 -0.0459222 0)
(1.52986 -0.0692209 0)
(1.50017 -0.0785457 0)
(1.46572 -0.0736424 0)
(1.42933 -0.0579842 0)
(1.39619 -0.0355565 0)
(1.3714 -0.00869853 0)
(1.36049 0.021547 0)
(1.36074 0.0514946 0)
(1.3784 0.079533 0)
(1.40964 0.103753 0)
(1.45346 0.121996 0)
(1.50838 0.132785 0)
(1.57187 0.134892 0)
(1.64144 0.126757 0)
(1.71417 0.108152 0)
(1.78463 0.0816104 0)
(1.84415 0.0504663 0)
(1.8915 0.0215607 0)
(1.92223 -0.00134487 0)
(1.9344 -0.0206453 0)
(1.92656 -0.0365606 0)
(1.90063 -0.0448934 0)
(1.86135 -0.0470814 0)
(1.81411 -0.0436494 0)
(1.76464 -0.0371388 0)
(1.7181 -0.0292832 0)
(1.67764 -0.0213085 0)
(1.6451 -0.014197 0)
(1.62091 -0.00870353 0)
(1.60398 -0.00565191 0)
(1.59226 -0.00541715 0)
(1.58317 -0.00954156 0)
(1.57476 -0.0186034 0)
(1.56402 -0.0289764 0)
(1.54909 -0.0388476 0)
(1.52947 -0.0468121 0)
(1.50581 -0.0520249 0)
(1.47952 -0.0538868 0)
(1.45246 -0.051856 0)
(1.42685 -0.0457031 0)
(1.40453 -0.0354894 0)
(1.3872 -0.0214017 0)
(1.37627 -0.00395472 0)
(1.37274 0.0157485 0)
(1.37703 0.0360478 0)
(1.38916 0.0554178 0)
(1.40881 0.0724143 0)
(1.43533 0.0857943 0)
(1.46771 0.0945724 0)
(2.77023 -0.200476 0)
(2.76331 -0.214554 0)
(2.75577 -0.225282 0)
(2.74995 -0.231709 0)
(2.74765 -0.235512 0)
(2.74879 -0.238829 0)
(2.7561 -0.24281 0)
(2.76966 -0.250294 0)
(2.78886 -0.265038 0)
(2.81238 -0.290065 0)
(2.83911 -0.327678 0)
(2.86718 -0.379366 0)
(2.89348 -0.443525 0)
(2.91726 -0.517521 0)
(2.93707 -0.59388 0)
(2.94881 -0.655813 0)
(2.95125 -0.689144 0)
(2.93889 -0.695897 0)
(2.90251 -0.661568 0)
(2.83604 -0.585007 0)
(2.73585 -0.478233 0)
(2.60423 -0.358553 0)
(2.44729 -0.240706 0)
(2.2801 -0.137869 0)
(2.11665 -0.0579357 0)
(1.96513 -0.00169564 0)
(1.83277 0.0329761 0)
(1.72465 0.0480918 0)
(1.64235 0.046572 0)
(1.58274 0.0317752 0)
(1.54188 0.00787116 0)
(1.51694 -0.0209808 0)
(1.50701 -0.0532734 0)
(1.51271 -0.0857363 0)
(1.53366 -0.111859 0)
(1.56462 -0.126621 0)
(1.5973 -0.128066 0)
(1.63352 -0.116191 0)
(1.67474 -0.0930417 0)
(1.72121 -0.0610958 0)
(1.77366 -0.023324 0)
(1.83195 0.016936 0)
(1.89266 0.0548102 0)
(1.95424 0.0843463 0)
(2.01534 0.0986283 0)
(2.07297 0.0961753 0)
(2.12231 0.0782106 0)
(2.15694 0.0470631 0)
(2.16863 0.00917791 0)
(2.1476 -0.0307604 0)
(2.08225 -0.0682239 0)
(1.98054 -0.101257 0)
(1.88368 -0.128426 0)
(1.80817 -0.1485 0)
(1.75063 -0.157661 0)
(1.70377 -0.156238 0)
(1.66336 -0.134523 0)
(1.62508 -0.0916949 0)
(1.58116 -0.0345971 0)
(1.53191 0.0258946 0)
(1.48597 0.0776064 0)
(1.44903 0.115684 0)
(1.42435 0.137531 0)
(1.4114 0.143856 0)
(1.40782 0.141627 0)
(1.41464 0.118666 0)
(1.43353 0.0757673 0)
(1.45682 0.0262317 0)
(1.47501 -0.0149429 0)
(1.48439 -0.0421904 0)
(1.48478 -0.0561618 0)
(1.4777 -0.0599226 0)
(1.4656 -0.0519115 0)
(1.4478 -0.0349622 0)
(1.42611 -0.0140377 0)
(1.40449 0.00693829 0)
(1.38945 0.025724 0)
(1.38445 0.0414108 0)
(1.39008 0.0542126 0)
(1.40751 0.0626443 0)
(1.43528 0.0664024 0)
(1.47022 0.0664321 0)
(1.51064 0.0624649 0)
(1.5531 0.0549655 0)
(1.5897 0.0455805 0)
(1.61599 0.0356304 0)
(1.63105 0.026143 0)
(1.63534 0.0170331 0)
(1.62932 0.00919287 0)
(1.6155 0.00394166 0)
(1.59597 0.00103508 0)
(1.57297 -0.00109574 0)
(1.54884 -0.00306645 0)
(1.52585 -0.00423639 0)
(1.50558 -0.00464154 0)
(1.48911 -0.00426948 0)
(1.47706 -0.00335228 0)
(1.46961 -0.00232482 0)
(1.46613 -0.00161463 0)
(1.46556 -0.00187055 0)
(1.46725 -0.00496672 0)
(1.46923 -0.00999131 0)
(1.46888 -0.0158744 0)
(1.46428 -0.0215133 0)
(1.45474 -0.0260672 0)
(1.44045 -0.0291079 0)
(1.4221 -0.0303974 0)
(1.40086 -0.0297556 0)
(1.37836 -0.0271385 0)
(1.35669 -0.022568 0)
(1.33757 -0.015992 0)
(1.32237 -0.00749158 0)
(1.31223 0.00280625 0)
(1.30816 0.0146322 0)
(1.31086 0.0268525 0)
(1.32017 0.0383267 0)
(1.33549 0.048228 0)
(1.35579 0.055833 0)
(1.37966 0.060643 0)
(2.76904 -0.194395 0)
(2.76196 -0.207895 0)
(2.7549 -0.219642 0)
(2.74919 -0.228497 0)
(2.74578 -0.235297 0)
(2.74455 -0.241754 0)
(2.7451 -0.249409 0)
(2.74728 -0.260674 0)
(2.7508 -0.278588 0)
(2.75493 -0.305829 0)
(2.75827 -0.344421 0)
(2.76 -0.394879 0)
(2.75851 -0.456006 0)
(2.75118 -0.526429 0)
(2.73711 -0.595794 0)
(2.71345 -0.656011 0)
(2.67472 -0.681833 0)
(2.62067 -0.669811 0)
(2.54789 -0.607652 0)
(2.45304 -0.498298 0)
(2.3345 -0.358325 0)
(2.1927 -0.2105 0)
(2.03654 -0.0773663 0)
(1.87665 0.0265482 0)
(1.72832 0.0955612 0)
(1.60492 0.132644 0)
(1.50623 0.142923 0)
(1.42962 0.131719 0)
(1.37546 0.107645 0)
(1.33965 0.0764386 0)
(1.31819 0.0375622 0)
(1.30954 -0.00861251 0)
(1.30974 -0.0602782 0)
(1.31177 -0.108744 0)
(1.3097 -0.140682 0)
(1.30428 -0.15309 0)
(1.29847 -0.152987 0)
(1.29617 -0.14224 0)
(1.30008 -0.119782 0)
(1.31117 -0.0914497 0)
(1.32984 -0.0601404 0)
(1.35484 -0.0274822 0)
(1.38562 0.00374261 0)
(1.41426 0.0313143 0)
(1.43264 0.0538084 0)
(1.43485 0.0712537 0)
(1.41588 0.081846 0)
(1.37746 0.0843828 0)
(1.32588 0.0807195 0)
(1.27379 0.0737167 0)
(1.23125 0.0514361 0)
(1.20753 -0.00647523 0)
(1.20342 -0.0774128 0)
(1.2087 -0.131621 0)
(1.2143 -0.157181 0)
(1.2185 -0.158219 0)
(1.21876 -0.13099 0)
(1.2067 -0.0715067 0)
(1.18241 0.00066647 0)
(1.15621 0.0635293 0)
(1.13677 0.108028 0)
(1.12685 0.133087 0)
(1.12605 0.14258 0)
(1.13545 0.142635 0)
(1.1562 0.127038 0)
(1.18831 0.0861933 0)
(1.22315 0.0353061 0)
(1.24888 -0.00797343 0)
(1.26346 -0.038147 0)
(1.26826 -0.05466 0)
(1.2659 -0.0599703 0)
(1.25839 -0.0572804 0)
(1.24796 -0.0407923 0)
(1.23583 -0.016611 0)
(1.22465 0.00630561 0)
(1.21634 0.0244218 0)
(1.21126 0.0376179 0)
(1.20913 0.0467612 0)
(1.20997 0.0529199 0)
(1.21385 0.0567095 0)
(1.21961 0.0579943 0)
(1.22611 0.0569507 0)
(1.23335 0.0538836 0)
(1.24148 0.0495813 0)
(1.25046 0.0442562 0)
(1.2599 0.0373124 0)
(1.26869 0.029232 0)
(1.27549 0.0217652 0)
(1.27973 0.0158307 0)
(1.28136 0.0110824 0)
(1.28009 0.00721986 0)
(1.27582 0.00475944 0)
(1.26932 0.00328282 0)
(1.26212 0.00225346 0)
(1.25541 0.00123392 0)
(1.24967 0.000140048 0)
(1.24548 -0.000969302 0)
(1.24306 -0.00220289 0)
(1.24227 -0.00384336 0)
(1.24279 -0.00582614 0)
(1.24333 -0.00806229 0)
(1.2426 -0.0103666 0)
(1.23977 -0.0123872 0)
(1.23444 -0.0135813 0)
(1.22668 -0.0137473 0)
(1.21687 -0.0130017 0)
(1.20561 -0.0116164 0)
(1.19359 -0.0098189 0)
(1.18168 -0.00766702 0)
(1.17057 -0.00492099 0)
(1.16091 -0.00119401 0)
(1.1535 0.00362524 0)
(1.14893 0.00949114 0)
(1.14776 0.0162106 0)
(1.15032 0.0231291 0)
(1.15643 0.0298043 0)
(1.16569 0.0357545 0)
(1.17742 0.0405165 0)
(1.19082 0.0437472 0)
(2.72556 -0.185952 0)
(2.71437 -0.199314 0)
(2.7026 -0.211601 0)
(2.69089 -0.221793 0)
(2.67943 -0.23002 0)
(2.66775 -0.237405 0)
(2.65525 -0.245271 0)
(2.64058 -0.25566 0)
(2.62185 -0.271398 0)
(2.59702 -0.295544 0)
(2.56435 -0.330321 0)
(2.52154 -0.375678 0)
(2.46533 -0.428619 0)
(2.3903 -0.492397 0)
(2.29121 -0.553026 0)
(2.15876 -0.585817 0)
(2.01044 -0.595332 0)
(1.86735 -0.569099 0)
(1.73913 -0.498009 0)
(1.62732 -0.378686 0)
(1.5207 -0.222666 0)
(1.40429 -0.0583771 0)
(1.291 0.0760995 0)
(1.19825 0.174336 0)
(1.12568 0.220012 0)
(1.07864 0.22541 0)
(1.04711 0.215534 0)
(1.02669 0.181688 0)
(1.01914 0.134643 0)
(1.01633 0.0838835 0)
(1.00777 0.0356444 0)
(0.985704 -0.00697321 0)
(0.946404 -0.0431102 0)
(0.893841 -0.0740816 0)
(0.84204 -0.0978072 0)
(0.797596 -0.112588 0)
(0.761786 -0.117574 0)
(0.734206 -0.113558 0)
(0.71431 -0.101728 0)
(0.701848 -0.0830206 0)
(0.695912 -0.0588089 0)
(0.693039 -0.0295637 0)
(0.690344 0.005696 0)
(0.690408 0.0443226 0)
(0.691795 0.0792667 0)
(0.692071 0.105631 0)
(0.691867 0.119527 0)
(0.692239 0.120871 0)
(0.694275 0.104772 0)
(0.702475 0.0664757 0)
(0.718226 0.0115468 0)
(0.733533 -0.0530337 0)
(0.739635 -0.111634 0)
(0.738231 -0.151678 0)
(0.732772 -0.167297 0)
(0.725395 -0.161463 0)
(0.718279 -0.120059 0)
(0.711063 -0.0532337 0)
(0.706464 0.0155496 0)
(0.709375 0.0705489 0)
(0.719109 0.107649 0)
(0.733612 0.127537 0)
(0.752611 0.131308 0)
(0.774273 0.118154 0)
(0.798001 0.0898471 0)
(0.818712 0.0525307 0)
(0.830403 0.0162529 0)
(0.832545 -0.0135475 0)
(0.827922 -0.0345213 0)
(0.820591 -0.0461989 0)
(0.811855 -0.049186 0)
(0.80264 -0.043082 0)
(0.794389 -0.0290048 0)
(0.788591 -0.0100183 0)
(0.786404 0.00924818 0)
(0.786933 0.0258219 0)
(0.788932 0.0386603 0)
(0.792191 0.0477604 0)
(0.797199 0.0532668 0)
(0.80437 0.0552199 0)
(0.813753 0.0548743 0)
(0.825336 0.0511433 0)
(0.838662 0.04356 0)
(0.852796 0.034598 0)
(0.866439 0.0257869 0)
(0.878525 0.0180139 0)
(0.887995 0.011915 0)
(0.894594 0.00824782 0)
(0.898092 0.00674454 0)
(0.899109 0.00680081 0)
(0.898128 0.00849678 0)
(0.896013 0.0104187 0)
(0.893225 0.0102725 0)
(0.890537 0.00937645 0)
(0.888057 0.00804215 0)
(0.885913 0.0059607 0)
(0.884496 0.00331621 0)
(0.883903 0.000509086 0)
(0.883902 -0.00219274 0)
(0.884129 -0.00450232 0)
(0.884208 -0.00643581 0)
(0.883737 -0.0080239 0)
(0.882406 -0.00908932 0)
(0.880173 -0.00938175 0)
(0.877177 -0.00891246 0)
(0.873646 -0.0078313 0)
(0.869839 -0.00631113 0)
(0.865997 -0.00451431 0)
(0.862311 -0.00249531 0)
(0.859005 -0.000171686 0)
(0.856412 0.00265713 0)
(0.854912 0.00613186 0)
(0.854882 0.0101488 0)
(0.856583 0.0145415 0)
(0.860128 0.0190806 0)
(0.865451 0.0234876 0)
(0.872356 0.0274622 0)
(0.880517 0.0307237 0)
(0.889523 0.033049 0)
(2.59171 -0.172207 0)
(2.56682 -0.184534 0)
(2.54004 -0.195784 0)
(2.5111 -0.205341 0)
(2.47952 -0.212694 0)
(2.444 -0.218295 0)
(2.40238 -0.222569 0)
(2.35223 -0.226405 0)
(2.28981 -0.232231 0)
(2.21255 -0.24457 0)
(2.11651 -0.265473 0)
(1.99074 -0.290588 0)
(1.82569 -0.312945 0)
(1.61209 -0.323643 0)
(1.34329 -0.326661 0)
(1.07403 -0.342793 0)
(0.858889 -0.369748 0)
(0.701864 -0.378468 0)
(0.582864 -0.342505 0)
(0.505649 -0.244805 0)
(0.464278 -0.104341 0)
(0.438482 0.0340124 0)
(0.434116 0.137694 0)
(0.445554 0.195948 0)
(0.467222 0.21666 0)
(0.493518 0.217225 0)
(0.515122 0.200505 0)
(0.528392 0.166197 0)
(0.528725 0.130436 0)
(0.516981 0.0997343 0)
(0.498645 0.0724704 0)
(0.478651 0.0436344 0)
(0.459181 0.00957088 0)
(0.436446 -0.0259521 0)
(0.408565 -0.0558354 0)
(0.375573 -0.0761626 0)
(0.34014 -0.0864491 0)
(0.305661 -0.0874781 0)
(0.274378 -0.0799722 0)
(0.247748 -0.0651047 0)
(0.227031 -0.0440259 0)
(0.212923 -0.0174311 0)
(0.206283 0.0128868 0)
(0.208793 0.0423044 0)
(0.219803 0.0681192 0)
(0.238763 0.0874743 0)
(0.263709 0.0968739 0)
(0.292468 0.0933546 0)
(0.321924 0.0751722 0)
(0.347517 0.0437049 0)
(0.36313 0.00119816 0)
(0.364343 -0.0491565 0)
(0.349956 -0.095542 0)
(0.322089 -0.127647 0)
(0.286849 -0.138873 0)
(0.251833 -0.126769 0)
(0.224501 -0.0914874 0)
(0.210238 -0.0403794 0)
(0.211163 0.013071 0)
(0.226966 0.0559152 0)
(0.252356 0.084183 0)
(0.282907 0.0973997 0)
(0.315925 0.0966942 0)
(0.348592 0.0853625 0)
(0.377252 0.0652501 0)
(0.397665 0.039455 0)
(0.408177 0.0125338 0)
(0.409152 -0.0109966 0)
(0.402716 -0.0273252 0)
(0.391694 -0.0356508 0)
(0.378742 -0.0362792 0)
(0.366282 -0.0302366 0)
(0.356481 -0.0185675 0)
(0.351221 -0.00392122 0)
(0.351584 0.0107737 0)
(0.357059 0.0231287 0)
(0.366286 0.0321628 0)
(0.378181 0.0376756 0)
(0.391945 0.0399378 0)
(0.40679 0.0393751 0)
(0.422032 0.036615 0)
(0.436891 0.032349 0)
(0.450406 0.0273426 0)
(0.46191 0.0222764 0)
(0.471315 0.0176264 0)
(0.478588 0.0138044 0)
(0.483986 0.0110543 0)
(0.487824 0.0094576 0)
(0.490846 0.00883045 0)
(0.493543 0.00896546 0)
(0.496255 0.0094854 0)
(0.499226 0.00939471 0)
(0.50224 0.00885115 0)
(0.505022 0.00755991 0)
(0.507524 0.00565587 0)
(0.509685 0.00334876 0)
(0.511388 0.000894474 0)
(0.512461 -0.00152206 0)
(0.512777 -0.00367535 0)
(0.512509 -0.00537886 0)
(0.511779 -0.00658551 0)
(0.510612 -0.00724293 0)
(0.509094 -0.00731682 0)
(0.507359 -0.006857 0)
(0.505632 -0.00596668 0)
(0.504103 -0.00478534 0)
(0.502896 -0.00346256 0)
(0.502059 -0.00207053 0)
(0.501608 -0.000591954 0)
(0.501654 0.00108426 0)
(0.502328 0.00304237 0)
(0.503769 0.00537334 0)
(0.506169 0.00811337 0)
(0.509694 0.0111781 0)
(0.514451 0.0143917 0)
(0.520459 0.0175524 0)
(0.527649 0.0204468 0)
(0.535866 0.0228642 0)
(0.54488 0.024618 0)
(2.1408 -0.132679 0)
(2.08233 -0.142287 0)
(2.01914 -0.150405 0)
(1.94686 -0.155484 0)
(1.86499 -0.157149 0)
(1.77343 -0.155445 0)
(1.6721 -0.151207 0)
(1.56117 -0.144642 0)
(1.43836 -0.134772 0)
(1.28985 -0.119173 0)
(1.10795 -0.0947246 0)
(0.904651 -0.0651874 0)
(0.692135 -0.0430091 0)
(0.519801 -0.0493785 0)
(0.386446 -0.0861869 0)
(0.264868 -0.15223 0)
(0.125905 -0.219964 0)
(-0.0318393 -0.246802 0)
(-0.182368 -0.225226 0)
(-0.299096 -0.164571 0)
(-0.363047 -0.0769248 0)
(-0.377084 0.0181499 0)
(-0.34559 0.0967103 0)
(-0.284825 0.145755 0)
(-0.209392 0.167232 0)
(-0.130036 0.16796 0)
(-0.0527296 0.157002 0)
(0.0171929 0.138725 0)
(0.0762519 0.115042 0)
(0.122928 0.0880564 0)
(0.15678 0.0598163 0)
(0.177379 0.0327334 0)
(0.184447 0.00930603 0)
(0.176941 -0.0113812 0)
(0.155913 -0.0281561 0)
(0.125301 -0.039917 0)
(0.0896315 -0.0462062 0)
(0.0527459 -0.0475423 0)
(0.0183974 -0.04386 0)
(-0.0116007 -0.035897 0)
(-0.0341004 -0.023818 0)
(-0.0467072 -0.00824053 0)
(-0.0483635 0.00956525 0)
(-0.0383101 0.0273414 0)
(-0.0169031 0.0429495 0)
(0.0137762 0.0540492 0)
(0.0505203 0.0585197 0)
(0.0890327 0.0554196 0)
(0.123845 0.0436134 0)
(0.149271 0.0232927 0)
(0.159342 -0.00373994 0)
(0.149225 -0.0333575 0)
(0.118501 -0.060792 0)
(0.0706093 -0.0796909 0)
(0.0133853 -0.0875569 0)
(-0.0427941 -0.0823284 0)
(-0.0873845 -0.0626498 0)
(-0.112643 -0.032736 0)
(-0.116642 -0.000114624 0)
(-0.102232 0.0280762 0)
(-0.0737019 0.0471179 0)
(-0.0374282 0.0562708 0)
(0.00209662 0.0566794 0)
(0.0395648 0.0497969 0)
(0.0703356 0.0373732 0)
(0.0915969 0.0219914 0)
(0.101962 0.00663646 0)
(0.102361 -0.00670861 0)
(0.0950365 -0.0163917 0)
(0.0829638 -0.0217984 0)
(0.0692387 -0.0228769 0)
(0.0565849 -0.019884 0)
(0.0474266 -0.0134578 0)
(0.0435506 -0.0050253 0)
(0.0452949 0.00382497 0)
(0.052095 0.0113291 0)
(0.0631831 0.0168649 0)
(0.077224 0.0203865 0)
(0.0930257 0.0220014 0)
(0.109322 0.0220168 0)
(0.125139 0.0206925 0)
(0.139689 0.0182567 0)
(0.152388 0.0150587 0)
(0.162897 0.0116129 0)
(0.171318 0.00841332 0)
(0.177871 0.00586504 0)
(0.183008 0.0041087 0)
(0.18724 0.00324634 0)
(0.190994 0.00315887 0)
(0.194559 0.00358578 0)
(0.198257 0.00414166 0)
(0.202116 0.00446978 0)
(0.205971 0.00432559 0)
(0.20946 0.00373691 0)
(0.21237 0.00279478 0)
(0.214514 0.0015543 0)
(0.215697 6.5389e-05 0)
(0.215976 -0.00160119 0)
(0.215447 -0.00311354 0)
(0.214238 -0.00430788 0)
(0.212477 -0.00518985 0)
(0.210389 -0.00575552 0)
(0.208152 -0.00597814 0)
(0.206006 -0.00583647 0)
(0.204123 -0.00539153 0)
(0.202643 -0.0047125 0)
(0.201653 -0.00386408 0)
(0.201194 -0.00288759 0)
(0.201303 -0.00183842 0)
(0.201999 -0.000644203 0)
(0.203335 0.000764737 0)
(0.205558 0.00240628 0)
(0.208834 0.00420476 0)
(0.213252 0.00611457 0)
(0.218903 0.00805744 0)
(0.225802 0.00993174 0)
(0.233884 0.0116235 0)
(0.242993 0.0130197 0)
(0.252898 0.0140225 0)
(0.859738 -0.0627944 0)
(0.760974 -0.0662006 0)
(0.65445 -0.066343 0)
(0.550612 -0.060459 0)
(0.452966 -0.0483707 0)
(0.360838 -0.0329399 0)
(0.276864 -0.0146727 0)
(0.206698 0.0115925 0)
(0.156579 0.0479137 0)
(0.132019 0.082521 0)
(0.131788 0.0968288 0)
(0.149593 0.0853287 0)
(0.167664 0.0485369 0)
(0.169199 -0.000777505 0)
(0.138061 -0.0491903 0)
(0.0563863 -0.0902239 0)
(-0.088277 -0.116848 0)
(-0.27419 -0.115931 0)
(-0.450005 -0.0940667 0)
(-0.59143 -0.0635866 0)
(-0.681202 -0.0280379 0)
(-0.708199 0.00703011 0)
(-0.677676 0.0389415 0)
(-0.606792 0.0596874 0)
(-0.509155 0.0684678 0)
(-0.399782 0.0682692 0)
(-0.293111 0.0624537 0)
(-0.193869 0.0531911 0)
(-0.107751 0.0423877 0)
(-0.037919 0.0323998 0)
(0.0133546 0.0230637 0)
(0.0474134 0.014293 0)
(0.0644489 0.00624411 0)
(0.0664794 -0.00190963 0)
(0.0564087 -0.00855052 0)
(0.0363369 -0.0133495 0)
(0.00817506 -0.0161162 0)
(-0.024178 -0.0175663 0)
(-0.0564752 -0.016852 0)
(-0.0846662 -0.0139969 0)
(-0.106217 -0.00968924 0)
(-0.118393 -0.00420561 0)
(-0.119515 0.00233411 0)
(-0.108954 0.0090457 0)
(-0.0870469 0.0146432 0)
(-0.0554879 0.0183423 0)
(-0.0171235 0.0195082 0)
(0.0224741 0.0181858 0)
(0.0566977 0.0138899 0)
(0.0797919 0.006611 0)
(0.0872226 -0.00355046 0)
(0.0760336 -0.0147972 0)
(0.0454585 -0.0248896 0)
(-0.00364262 -0.0322674 0)
(-0.0643664 -0.0354696 0)
(-0.123854 -0.0319133 0)
(-0.173398 -0.0241516 0)
(-0.206472 -0.0136556 0)
(-0.218772 -0.00257132 0)
(-0.211328 0.00798798 0)
(-0.188122 0.0153491 0)
(-0.153837 0.0189509 0)
(-0.115793 0.01945 0)
(-0.0791465 0.0171722 0)
(-0.0487665 0.0129245 0)
(-0.0280049 0.00761982 0)
(-0.0181467 0.00221927 0)
(-0.0180224 -0.0025421 0)
(-0.0257821 -0.00602659 0)
(-0.0390438 -0.00799556 0)
(-0.0547008 -0.00840608 0)
(-0.069712 -0.0073093 0)
(-0.0813551 -0.00508302 0)
(-0.0879881 -0.00228103 0)
(-0.0889855 0.000706452 0)
(-0.0848026 0.00330851 0)
(-0.076136 0.00525739 0)
(-0.0641449 0.00646852 0)
(-0.0501753 0.00701694 0)
(-0.0355874 0.00702458 0)
(-0.0213833 0.00655552 0)
(-0.00838668 0.00573962 0)
(0.00264462 0.00469731 0)
(0.0114543 0.00356109 0)
(0.0181271 0.00255664 0)
(0.022807 0.00176541 0)
(0.0260473 0.00120017 0)
(0.0285892 0.000869248 0)
(0.0308517 0.000780127 0)
(0.0330958 0.000879408 0)
(0.0355614 0.00103901 0)
(0.0383404 0.00110972 0)
(0.0411878 0.00108251 0)
(0.0437823 0.000862453 0)
(0.0459427 0.000501179 0)
(0.0472723 4.428e-05 0)
(0.0476024 -0.000540569 0)
(0.0469341 -0.00109785 0)
(0.0452566 -0.00159715 0)
(0.0426237 -0.00202025 0)
(0.0391973 -0.00234861 0)
(0.0351819 -0.00256953 0)
(0.030857 -0.00267528 0)
(0.0264508 -0.002641 0)
(0.0222058 -0.00252321 0)
(0.0183253 -0.0022998 0)
(0.0149414 -0.00204685 0)
(0.0121641 -0.00173911 0)
(0.0100875 -0.00143233 0)
(0.00882819 -0.00106147 0)
(0.00837968 -0.000555262 0)
(0.00879788 6.92741e-05 0)
(0.0102516 0.000715665 0)
(0.0129219 0.00137967 0)
(0.0168862 0.0020446 0)
(0.0221519 0.00267928 0)
(0.0286534 0.00324885 0)
(0.0362439 0.00371998 0)
(0.0447057 0.00406198 0)
(-0.0370066 -0.290239 0)
(-0.140894 -0.288659 0)
(-0.242797 -0.272507 0)
(-0.338202 -0.23287 0)
(-0.421786 -0.159369 0)
(-0.484431 -0.0397229 0)
(-0.520394 0.132415 0)
(-0.534017 0.349157 0)
(-0.530823 0.581524 0)
(-0.509785 0.80237 0)
(-0.469508 0.982986 0)
(-0.407809 1.09473 0)
(-0.312707 1.11477 0)