/*--------------------------------*- C++ -*----------------------------------*\
| =========                 |                                                 |
| \\      /  F ield         | OpenFOAM: The Open Source CFD Toolbox           |
|  \\    /   O peration     | Version:  2206                                  |
|   \\  /    A nd           | Website:  www.openfoam.com                      |
|    \\/     M anipulation  |                                                 |
\*---------------------------------------------------------------------------*/
FoamFile
{
    version     2.0;
    format      ascii;
    arch        "LSB;label=32;scalar=64";
    class       volVectorField;
    location    "19.8";
    object      U;
}
// * * * * * * * * * * * * * * * * * * * * * * * * * * * * * * * * * * * * * //

dimensions      [0 1 -1 0 0 0 0];

internalField   nonuniform List<vector> 
4810
(
(1.47761 9.99717e-05 0)
(1.47764 0.00029953 0)
(1.47771 0.000497737 0)
(1.47781 0.000693385 0)
(1.47795 0.000885388 0)
(1.47813 0.00107276 0)
(1.47834 0.00125457 0)
(1.47858 0.00142997 0)
(1.47885 0.00159818 0)
(1.47916 0.00175854 0)
(1.47949 0.00191047 0)
(1.47986 0.0020535 0)
(1.48025 0.00218725 0)
(1.48067 0.00231143 0)
(1.48111 0.00242585 0)
(1.48158 0.00253042 0)
(1.48207 0.00262512 0)
(1.48258 0.00271002 0)
(1.4831 0.00278527 0)
(1.48365 0.00285107 0)
(1.48422 0.00290767 0)
(1.48479 0.00295538 0)
(1.48539 0.00299454 0)
(1.48599 0.0030255 0)
(1.48661 0.00304863 0)
(1.48723 0.00306433 0)
(1.48786 0.00307298 0)
(1.48849 0.00307496 0)
(1.48913 0.00307062 0)
(1.48978 0.00306032 0)
(1.49042 0.00304431 0)
(1.49106 0.00302285 0)
(1.4917 0.00299614 0)
(1.49234 0.00296435 0)
(1.49297 0.00292754 0)
(1.49359 0.00288573 0)
(1.4942 0.00283886 0)
(1.49481 0.00278681 0)
(1.4954 0.00272937 0)
(1.49597 0.00266626 0)
(1.49653 0.00259719 0)
(1.49707 0.00252165 0)
(1.49759 0.00243932 0)
(1.49809 0.00234946 0)
(1.49856 0.00225168 0)
(1.49901 0.0021451 0)
(1.49943 0.00202914 0)
(1.49982 0.00190295 0)
(1.50018 0.00176563 0)
(1.50051 0.00161635 0)
(1.50079 0.00145409 0)
(1.50104 0.0012779 0)
(1.50125 0.00108707 0)
(1.50141 0.000880291 0)
(1.50152 0.000658615 0)
(1.50159 0.000417262 0)
(1.5016 0.000156302 0)
(1.50155 -0.000125792 0)
(1.50144 -0.000430615 0)
(1.50127 -0.000759716 0)
(1.50103 -0.00111478 0)
(1.50071 -0.00149767 0)
(1.50032 -0.00191044 0)
(1.49985 -0.00235529 0)
(1.49929 -0.00283465 0)
(1.49863 -0.00335118 0)
(1.49787 -0.00390782 0)
(1.497 -0.00450783 0)
(1.49602 -0.00515486 0)
(1.49491 -0.00585295 0)
(1.49367 -0.00660666 0)
(1.49228 -0.0074211 0)
(1.49074 -0.00830201 0)
(1.48903 -0.0092559 0)
(1.48714 -0.0102901 0)
(1.48505 -0.011413 0)
(1.48275 -0.012634 0)
(1.48022 -0.013964 0)
(1.47744 -0.0154153 0)
(1.47438 -0.0170019 0)
(1.47102 -0.0187401 0)
(1.46734 -0.0206485 0)
(1.4633 -0.0227485 0)
(1.45887 -0.0250651 0)
(1.45401 -0.0276271 0)
(1.44867 -0.0304682 0)
(1.44282 -0.0336275 0)
(1.43639 -0.0371512 0)
(1.42932 -0.0410938 0)
(1.42154 -0.0455196 0)
(1.41298 -0.0505052 0)
(1.40355 -0.0561422 0)
(1.39314 -0.0625407 0)
(1.38165 -0.0698336 0)
(1.36893 -0.0781826 0)
(1.35485 -0.0877856 0)
(1.33923 -0.0988859 0)
(1.32188 -0.111785 0)
(1.30257 -0.12686 0)
(1.28105 -0.144584 0)
(1.25702 -0.165559 0)
(1.23012 -0.190554 0)
(1.19997 -0.220567 0)
(1.16604 -0.256911 0)
(1.12771 -0.301316 0)
(1.08413 -0.356211 0)
(1.03393 -0.424736 0)
(0.974757 -0.512215 0)
(0.902536 -0.624149 0)
(0.801383 -0.781025 0)
(0.684803 -0.98921 0)
(0.22562 -1.50234 0)
(1.47761 8.02279e-05 0)
(1.47764 0.000240336 0)
(1.4777 0.000399285 0)
(1.47781 0.000556059 0)
(1.47795 0.000709721 0)
(1.47812 0.000859406 0)
(1.47833 0.0010043 0)
(1.47856 0.00114367 0)
(1.47883 0.00127686 0)
(1.47913 0.00140331 0)
(1.47946 0.00152253 0)
(1.47982 0.00163413 0)
(1.48021 0.0017378 0)
(1.48062 0.00183333 0)
(1.48106 0.00192057 0)
(1.48152 0.00199948 0)
(1.482 0.00207009 0)
(1.4825 0.00213251 0)
(1.48302 0.0021869 0)
(1.48356 0.0022335 0)
(1.48412 0.00227259 0)
(1.48469 0.00230448 0)
(1.48528 0.00232953 0)
(1.48587 0.00234811 0)
(1.48648 0.0023606 0)
(1.48709 0.00236741 0)
(1.48772 0.00236894 0)
(1.48834 0.00236558 0)
(1.48898 0.00235769 0)
(1.48961 0.00234564 0)
(1.49024 0.00232967 0)
(1.49088 0.00231011 0)
(1.49151 0.00228715 0)
(1.49214 0.002261 0)
(1.49276 0.00223168 0)
(1.49337 0.00219931 0)
(1.49398 0.00216379 0)
(1.49457 0.00212507 0)
(1.49515 0.00208292 0)
(1.49572 0.00203718 0)
(1.49626 0.00198746 0)
(1.4968 0.00193347 0)
(1.49731 0.00187473 0)
(1.4978 0.00181072 0)
(1.49826 0.00174103 0)
(1.4987 0.00166481 0)
(1.49911 0.00158174 0)
(1.49949 0.00149068 0)
(1.49983 0.00139135 0)
(1.50015 0.00128234 0)
(1.50042 0.00116348 0)
(1.50065 0.00103281 0)
(1.50084 0.000891115 0)
(1.50099 0.000735084 0)
(1.50109 0.000568558 0)
(1.50114 0.000386742 0)
(1.50113 0.00018854 0)
(1.50106 -2.68099e-05 0)
(1.50093 -0.000260733 0)
(1.50074 -0.000514454 0)
(1.50048 -0.000789216 0)
(1.50014 -0.00108647 0)
(1.49972 -0.00140786 0)
(1.49921 -0.00175514 0)
(1.49862 -0.00213022 0)
(1.49793 -0.00253518 0)
(1.49713 -0.00297231 0)
(1.49622 -0.00344417 0)
(1.49519 -0.00395358 0)
(1.49403 -0.00450372 0)
(1.49273 -0.00509814 0)
(1.49128 -0.00574084 0)
(1.48967 -0.00643634 0)
(1.48788 -0.00718976 0)
(1.48591 -0.0080069 0)
(1.48373 -0.00889436 0)
(1.48132 -0.00985969 0)
(1.47867 -0.0109115 0)
(1.47576 -0.0120596 0)
(1.47255 -0.0133153 0)
(1.46903 -0.0146917 0)
(1.46517 -0.0162037 0)
(1.46092 -0.0178688 0)
(1.45625 -0.0197072 0)
(1.45112 -0.0217423 0)
(1.44548 -0.0240017 0)
(1.43927 -0.0265176 0)
(1.43244 -0.029328 0)
(1.42491 -0.0324778 0)
(1.41659 -0.0360206 0)
(1.40741 -0.0400201 0)
(1.39725 -0.0445532 0)
(1.38599 -0.0497124 0)
(1.37348 -0.0556104 0)
(1.35957 -0.0623845 0)
(1.34406 -0.070204 0)
(1.32672 -0.0792779 0)
(1.30728 -0.0898669 0)
(1.28544 -0.102297 0)
(1.26081 -0.116982 0)
(1.23293 -0.134442 0)
(1.20125 -0.155347 0)
(1.16507 -0.180552 0)
(1.12353 -0.211161 0)
(1.07545 -0.248595 0)
(1.01929 -0.29468 0)
(0.952784 -0.351738 0)
(0.872614 -0.422604 0)
(0.77345 -0.51072 0)
(0.648427 -0.619274 0)
(0.481351 -0.750054 0)
(0.224804 -0.827781 0)
(1.47761 6.07673e-05 0)
(1.47764 0.000182006 0)
(1.4777 0.000302273 0)
(1.47781 0.000420713 0)
(1.47794 0.000536542 0)
(1.47811 0.000649032 0)
(1.47832 0.000757492 0)
(1.47855 0.000861297 0)
(1.47882 0.000959897 0)
(1.47912 0.00105283 0)
(1.47944 0.00113969 0)
(1.4798 0.00122019 0)
(1.48018 0.00129409 0)
(1.48059 0.00136123 0)
(1.48102 0.00142153 0)
(1.48147 0.001475 0)
(1.48195 0.00152172 0)
(1.48245 0.00156182 0)
(1.48296 0.00159552 0)
(1.4835 0.00162307 0)
(1.48405 0.00164477 0)
(1.48462 0.00166097 0)
(1.48519 0.00167203 0)
(1.48579 0.00167833 0)
(1.48639 0.00168029 0)
(1.487 0.00167832 0)
(1.48761 0.00167283 0)
(1.48823 0.00166422 0)
(1.48886 0.00165287 0)
(1.48949 0.00163918 0)
(1.49011 0.00162334 0)
(1.49074 0.00160578 0)
(1.49137 0.00158666 0)
(1.49199 0.00156625 0)
(1.4926 0.00154454 0)
(1.49321 0.00152172 0)
(1.49381 0.00149765 0)
(1.49439 0.00147238 0)
(1.49497 0.00144567 0)
(1.49552 0.00141739 0)
(1.49607 0.00138722 0)
(1.49659 0.00135488 0)
(1.49709 0.00131993 0)
(1.49757 0.001282 0)
(1.49803 0.00124056 0)
(1.49846 0.00119507 0)
(1.49886 0.00114502 0)
(1.49923 0.00108962 0)
(1.49957 0.00102852 0)
(1.49988 0.000960507 0)
(1.50014 0.000885474 0)
(1.50036 0.000801695 0)
(1.50054 0.000709358 0)
(1.50068 0.00060639 0)
(1.50076 0.000494181 0)
(1.5008 0.000372628 0)
(1.50078 0.000237961 0)
(1.5007 9.0782e-05 0)
(1.50056 -7.0475e-05 0)
(1.50035 -0.000246982 0)
(1.50006 -0.000439554 0)
(1.49971 -0.000649139 0)
(1.49927 -0.0008769 0)
(1.49874 -0.00112411 0)
(1.49812 -0.00139213 0)
(1.4974 -0.00168241 0)
(1.49657 -0.00199657 0)
(1.49563 -0.00233638 0)
(1.49457 -0.00270384 0)
(1.49337 -0.00310117 0)
(1.49203 -0.00353084 0)
(1.49053 -0.00399569 0)
(1.48887 -0.00449889 0)
(1.48702 -0.00504405 0)
(1.48498 -0.00563531 0)
(1.48273 -0.00627738 0)
(1.48024 -0.00697565 0)
(1.4775 -0.00773632 0)
(1.47449 -0.0085665 0)
(1.47117 -0.00947442 0)
(1.46753 -0.0104696 0)
(1.46352 -0.0115629 0)
(1.45911 -0.0127672 0)
(1.45426 -0.0140973 0)
(1.44892 -0.0155705 0)
(1.44304 -0.0172072 0)
(1.43656 -0.0190314 0)
(1.42942 -0.0210712 0)
(1.42152 -0.0233604 0)
(1.41279 -0.025939 0)
(1.40312 -0.0288549 0)
(1.39238 -0.0321661 0)
(1.38045 -0.0359427 0)
(1.36714 -0.0402702 0)
(1.35227 -0.0452534 0)
(1.33562 -0.0510216 0)
(1.3169 -0.0577353 0)
(1.29579 -0.0655948 0)
(1.2719 -0.0748517 0)
(1.24474 -0.0858229 0)
(1.21375 -0.0989093 0)
(1.17819 -0.114619 0)
(1.13716 -0.133594 0)
(1.08954 -0.156641 0)
(1.03386 -0.184755 0)
(0.968257 -0.219136 0)
(0.890194 -0.26111 0)
(0.796361 -0.312106 0)
(0.681944 -0.373233 0)
(0.540733 -0.444452 0)
(0.359655 -0.52443 0)
(0.124894 -0.606776 0)
(1.47761 4.14999e-05 0)
(1.47763 0.000124255 0)
(1.4777 0.000206228 0)
(1.4778 0.000286722 0)
(1.47794 0.000365094 0)
(1.47811 0.000440736 0)
(1.47831 0.000513082 0)
(1.47855 0.000581618 0)
(1.47881 0.000645905 0)
(1.4791 0.000705577 0)
(1.47943 0.000760339 0)
(1.47978 0.000809962 0)
(1.48016 0.00085429 0)
(1.48056 0.000893234 0)
(1.48099 0.000926779 0)
(1.48144 0.00095498 0)
(1.48192 0.000977957 0)
(1.48241 0.000995894 0)
(1.48293 0.00100903 0)
(1.48346 0.00101765 0)
(1.48401 0.00102208 0)
(1.48457 0.00102268 0)
(1.48514 0.00101984 0)
(1.48573 0.00101398 0)
(1.48633 0.0010055 0)
(1.48693 0.000994831 0)
(1.48754 0.000982402 0)
(1.48816 0.000968632 0)
(1.48878 0.000953904 0)
(1.48941 0.000938641 0)
(1.49003 0.00092305 0)
(1.49065 0.000907579 0)
(1.49127 0.000892359 0)
(1.49189 0.000877748 0)
(1.4925 0.000863713 0)
(1.4931 0.000850521 0)
(1.4937 0.000837969 0)
(1.49427 0.00082626 0)
(1.49485 0.000815023 0)
(1.4954 0.000804351 0)
(1.49594 0.000793777 0)
(1.49645 0.000783214 0)
(1.49695 0.000772195 0)
(1.49743 0.000760411 0)
(1.49788 0.000747423 0)
(1.49831 0.000732749 0)
(1.4987 0.000715931 0)
(1.49907 0.000696403 0)
(1.4994 0.000673656 0)
(1.4997 0.000647038 0)
(1.49996 0.00061605 0)
(1.50017 0.000579852 0)
(1.50035 0.000537831 0)
(1.50047 0.000488778 0)
(1.50055 0.0004318 0)
(1.50058 0.000371985 0)
(1.50055 0.000301146 0)
(1.50046 0.000222211 0)
(1.50031 0.000134134 0)
(1.50009 3.58149e-05 0)
(1.49979 -7.33296e-05 0)
(1.49942 -0.000193818 0)
(1.49897 -0.000326322 0)
(1.49843 -0.000471612 0)
(1.49779 -0.000630485 0)
(1.49705 -0.000803772 0)
(1.49621 -0.000992367 0)
(1.49524 -0.00119726 0)
(1.49416 -0.00141953 0)
(1.49293 -0.00166041 0)
(1.49156 -0.00192127 0)
(1.49003 -0.00220367 0)
(1.48833 -0.00250941 0)
(1.48645 -0.00284054 0)
(1.48437 -0.00319942 0)
(1.48207 -0.00358876 0)
(1.47953 -0.00401171 0)
(1.47673 -0.00447186 0)
(1.47365 -0.00497342 0)
(1.47026 -0.00552124 0)
(1.46652 -0.00612098 0)
(1.46242 -0.00677922 0)
(1.4579 -0.00750365 0)
(1.45292 -0.00830327 0)
(1.44744 -0.00918864 0)
(1.44141 -0.0101722 0)
(1.43474 -0.0112686 0)
(1.42738 -0.0124952 0)
(1.41924 -0.0138727 0)
(1.41022 -0.015426 0)
(1.40021 -0.0171846 0)
(1.38908 -0.0191846 0)
(1.37668 -0.0214696 0)
(1.36282 -0.0240928 0)
(1.34729 -0.0271197 0)
(1.32984 -0.0306313 0)
(1.31016 -0.0347281 0)
(1.28788 -0.0395359 0)
(1.26255 -0.0452122 0)
(1.23363 -0.0519555 0)
(1.20045 -0.0600157 0)
(1.16218 -0.0697069 0)
(1.11779 -0.0814209 0)
(1.066 -0.0956386 0)
(1.00523 -0.112934 0)
(0.933489 -0.133951 0)
(0.848365 -0.159356 0)
(0.746969 -0.189666 0)
(0.62587 -0.224935 0)
(0.481738 -0.26368 0)
(0.310823 -0.304073 0)
(0.111501 -0.303725 0)
(1.47942 0.000382907 0)
(1.47977 0.000401794 0)
(1.48015 0.000416683 0)
(1.48055 0.000427555 0)
(1.48098 0.000434454 0)
(1.48143 0.00043749 0)
(1.48191 0.000436828 0)
(1.4824 0.000432693 0)
(1.48291 0.000425356 0)
(1.48344 0.000415133 0)
(1.48399 0.000402377 0)
(1.48455 0.000387471 0)
(1.48512 0.000370823 0)
(1.4857 0.000352856 0)
(1.4863 0.000334007 0)
(1.4869 0.000314714 0)
(1.48751 0.000295416 0)
(1.48813 0.000276545 0)
(1.48875 0.000258507 0)
(1.48937 0.000241704 0)
(1.48999 0.000226457 0)
(1.49061 0.000213093 0)
(1.49123 0.000201908 0)
(1.49184 0.000193113 0)
(1.49245 0.000186864 0)
(1.49305 0.000183267 0)
(1.49364 0.000182369 0)
(1.49422 0.000184149 0)
(1.49479 0.000188539 0)
(1.49534 0.000195393 0)
(1.49587 0.000204557 0)
(1.49639 0.000215728 0)
(1.49689 0.000228741 0)
(1.49736 0.000243099 0)
(1.49781 0.000258675 0)
(1.49823 0.00027481 0)
(1.49862 0.00029137 0)
(1.49898 0.000307673 0)
(1.49932 0.000323459 0)
(1.49961 0.000338149 0)
(1.49987 0.000351375 0)
(1.50008 0.000362548 0)
(1.50025 0.000371373 0)
(1.50038 0.000377571 0)
(1.50046 0.00037746 0)
(1.50047 0.000376776 0)
(1.50043 0.000371744 0)
(1.50034 0.000362118 0)
(1.50018 0.000347752 0)
(1.49996 0.000328246 0)
(1.49966 0.000303299 0)
(1.49928 0.000272736 0)
(1.49882 0.000236385 0)
(1.49828 0.000194032 0)
(1.49763 0.000145466 0)
(1.49689 9.05013e-05 0)
(1.49603 2.8967e-05 0)
(1.49506 -3.93111e-05 0)
(1.49396 -0.000114518 0)
(1.49272 -0.000196858 0)
(1.49134 -0.000286567 0)
(1.48979 -0.000383928 0)
(1.48808 -0.000489278 0)
(1.48618 -0.000603032 0)
(1.48407 -0.000725696 0)
(1.48175 -0.000857898 0)
(1.47918 -0.00100041 0)
(1.47635 -0.00115418 0)
(1.47324 -0.00132036 0)
(1.46981 -0.00150035 0)
(1.46603 -0.00169583 0)
(1.46188 -0.0019088 0)
(1.4573 -0.00214166 0)
(1.45227 -0.00239723 0)
(1.44672 -0.0026789 0)
(1.4406 -0.00299067 0)
(1.43384 -0.00333734 0)
(1.42637 -0.00372462 0)
(1.41811 -0.00415935 0)
(1.40895 -0.00464977 0)
(1.39877 -0.00520578 0)
(1.38744 -0.00583941 0)
(1.3748 -0.00656528 0)
(1.36066 -0.00740127 0)
(1.3448 -0.00836939 0)
(1.32694 -0.00949683 0)
(1.30677 -0.0108174 0)
(1.28389 -0.0123734 0)
(1.25783 -0.0142179 0)
(1.22801 -0.0164174 0)
(1.19371 -0.0190557 0)
(1.15406 -0.0222376 0)
(1.10797 -0.026093 0)
(1.05409 -0.0307797 0)
(0.990793 -0.0364821 0)
(0.916096 -0.0434022 0)
(0.827668 -0.0517303 0)
(0.72292 -0.0615918 0)
(0.599046 -0.0729056 0)
(0.454049 -0.0852412 0)
(0.284947 -0.0971372 0)
(0.094945 -0.105975 0)
(1.46265 0.00732298 0)
(1.45464 0.0143146 0)
(1.43945 0.0170966 0)
(1.4189 0.0183677 0)
(1.39695 0.0192094 0)
(1.37491 0.0198008 0)
(1.35268 0.0201854 0)
(1.3301 0.0204109 0)
(1.30721 0.0205318 0)
(1.28411 0.0205846 0)
(1.2609 0.0205867 0)
(1.23761 0.0205409 0)
(1.21428 0.0204456 0)
(1.19092 0.020313 0)
(1.16757 0.020157 0)
(1.14425 0.019983 0)
(1.12095 0.0197911 0)
(1.09771 0.0195824 0)
(1.07452 0.0193576 0)
(1.05141 0.0191182 0)
(1.02838 0.0188669 0)
(1.00546 0.0186053 0)
(0.982661 0.0183335 0)
(0.959989 0.0180511 0)
(0.937461 0.0177582 0)
(0.915093 0.0174559 0)
(0.892899 0.017145 0)
(0.870884 0.0168295 0)
(0.849085 0.0165157 0)
(0.827468 0.0162127 0)
(0.805914 0.0158891 0)
(0.784789 0.0155123 0)
(0.763965 0.0150859 0)
(0.743466 0.0146221 0)
(0.723357 0.0141269 0)
(0.703681 0.0136026 0)
(0.684467 0.0130517 0)
(0.665747 0.0124766 0)
(0.647556 0.0118795 0)
(0.629927 0.0112623 0)
(0.612891 0.0106259 0)
(0.59648 0.00997151 0)
(0.580721 0.00930179 0)
(0.565644 0.00862014 0)
(0.551272 0.00792731 0)
(0.537637 0.00721704 0)
(0.524763 0.00650742 0)
(0.512646 0.00581546 0)
(0.501291 0.00514358 0)
(0.490702 0.00448992 0)
(0.480884 0.0038539 0)
(0.471831 0.00323653 0)
(0.46354 0.00263991 0)
(0.455998 0.00206661 0)
(0.449192 0.0015185 0)
(0.443106 0.000996896 0)
(0.43772 0.000500209 0)
(0.433016 5.23994e-05 0)
(0.428961 -0.000369427 0)
(0.425537 -0.000766289 0)
(0.422718 -0.00113879 0)
(0.420485 -0.00148697 0)
(0.418818 -0.00181368 0)
(0.417691 -0.00210095 0)
(0.417088 -0.0024136 0)
(0.417046 -0.00264976 0)
(0.417478 -0.00296048 0)
(0.41844 -0.00328518 0)
(0.419899 -0.00354142 0)
(0.421819 -0.00375507 0)
(0.42417 -0.00393765 0)
(0.426935 -0.00409664 0)
(0.430109 -0.00424568 0)
(0.433672 -0.00439674 0)
(0.437625 -0.00453438 0)
(0.441963 -0.00466094 0)
(0.446684 -0.00478379 0)
(0.451787 -0.00490617 0)
(0.457271 -0.00502957 0)
(0.463142 -0.00515777 0)
(0.469405 -0.00529232 0)
(0.476066 -0.00543076 0)
(0.483132 -0.00557366 0)
(0.490611 -0.00572173 0)
(0.49851 -0.00587533 0)
(0.506837 -0.00603446 0)
(0.515601 -0.00619883 0)
(0.524806 -0.00636784 0)
(0.534461 -0.00654053 0)
(0.544568 -0.00671562 0)
(0.555131 -0.00689159 0)
(0.566149 -0.00706659 0)
(0.577619 -0.00723867 0)
(0.589535 -0.00740559 0)
(0.601889 -0.00756518 0)
(0.614667 -0.0077153 0)
(0.627856 -0.00785383 0)
(0.641436 -0.00797904 0)
(0.655387 -0.00808841 0)
(0.669684 -0.00817901 0)
(0.684296 -0.00824725 0)
(0.699188 -0.00828996 0)
(0.71432 -0.00830434 0)
(0.729645 -0.00828771 0)
(0.745116 -0.00823768 0)
(0.760676 -0.00815199 0)
(0.776265 -0.00802946 0)
(0.791837 -0.00786679 0)
(0.807299 -0.00766136 0)
(0.822602 -0.00741044 0)
(0.837657 -0.00711447 0)
(0.852409 -0.00677457 0)
(1.47957 0.0103054 0)
(1.48586 0.0198214 0)
(1.49301 0.0236527 0)
(1.49591 0.0257834 0)
(1.4973 0.0272079 0)
(1.49819 0.0284215 0)
(1.49853 0.0291749 0)
(1.49824 0.0298002 0)
(1.49734 0.0302872 0)
(1.49592 0.0306547 0)
(1.49401 0.0309823 0)
(1.49164 0.0312743 0)
(1.48885 0.0314951 0)
(1.48567 0.0316712 0)
(1.48212 0.0318302 0)
(1.4782 0.0319768 0)
(1.47393 0.0321079 0)
(1.46931 0.0322217 0)
(1.46435 0.0323161 0)
(1.45907 0.0323893 0)
(1.45347 0.0324446 0)
(1.44757 0.0324815 0)
(1.44138 0.0324958 0)
(1.4349 0.0324869 0)
(1.42815 0.0324558 0)
(1.42113 0.0324023 0)
(1.41386 0.0323269 0)
(1.40634 0.0322276 0)
(1.3986 0.0321064 0)
(1.39064 0.0319705 0)
(1.38251 0.0317961 0)
(1.37421 0.0315551 0)
(1.36574 0.0312526 0)
(1.3571 0.0308964 0)
(1.34831 0.0304876 0)
(1.3394 0.030025 0)
(1.33039 0.0295081 0)
(1.32129 0.0289367 0)
(1.31214 0.0283125 0)
(1.30293 0.0276375 0)
(1.29371 0.0269121 0)
(1.28449 0.0261355 0)
(1.27529 0.0253089 0)
(1.26614 0.0244345 0)
(1.25706 0.0235164 0)
(1.24805 0.0225555 0)
(1.23912 0.0215578 0)
(1.23034 0.0205321 0)
(1.22172 0.0194745 0)
(1.21328 0.0183964 0)
(1.20504 0.017304 0)
(1.19703 0.0162024 0)
(1.18926 0.0150982 0)
(1.18176 0.0139969 0)
(1.17453 0.0129041 0)
(1.1676 0.0118232 0)
(1.16097 0.0107586 0)
(1.15465 0.0097125 0)
(1.14867 0.00868964 0)
(1.14302 0.00769014 0)
(1.13773 0.00671648 0)
(1.13278 0.00576579 0)
(1.12821 0.0048387 0)
(1.12401 0.00393053 0)
(1.1202 0.0030381 0)
(1.11677 0.00216146 0)
(1.11369 0.00129688 0)
(1.111 0.000452909 0)
(1.10867 -0.000376588 0)
(1.10673 -0.00119618 0)
(1.10524 -0.00199667 0)
(1.10419 -0.00278717 0)
(1.10361 -0.00356765 0)
(1.10347 -0.00428947 0)
(1.10379 -0.00504564 0)
(1.10457 -0.00580452 0)
(1.10584 -0.00656182 0)
(1.1076 -0.00732001 0)
(1.10986 -0.00808195 0)
(1.11263 -0.00884979 0)
(1.11592 -0.00962526 0)
(1.11974 -0.0104099 0)
(1.12409 -0.0112047 0)
(1.12898 -0.0120105 0)
(1.13443 -0.0128272 0)
(1.14044 -0.0136544 0)
(1.14702 -0.0144914 0)
(1.15417 -0.0153366 0)
(1.1619 -0.0161879 0)
(1.17021 -0.0170425 0)
(1.17911 -0.0178969 0)
(1.18859 -0.0187469 0)
(1.19865 -0.0195878 0)
(1.20928 -0.020415 0)
(1.22049 -0.0212245 0)
(1.23225 -0.0220116 0)
(1.24455 -0.0227713 0)
(1.2574 -0.023499 0)
(1.27076 -0.0241886 0)
(1.28462 -0.0248323 0)
(1.29896 -0.0254219 0)
(1.31373 -0.0259491 0)
(1.32891 -0.0264056 0)
(1.34445 -0.0267836 0)
(1.36031 -0.0270757 0)
(1.37645 -0.0272747 0)
(1.39281 -0.0273746 0)
(1.40935 -0.0273687 0)
(1.42599 -0.0272508 0)
(1.44269 -0.027017 0)
(1.45939 -0.0266645 0)
(1.47602 -0.0261926 0)
(1.47829 0.00466408 0)
(1.4809 0.0106614 0)
(1.4847 0.0140492 0)
(1.48853 0.0166037 0)
(1.49169 0.0187603 0)
(1.49454 0.0206159 0)
(1.49718 0.0221481 0)
(1.49961 0.0234318 0)
(1.50172 0.02451 0)
(1.50372 0.0254669 0)
(1.50537 0.0263078 0)
(1.50718 0.0270788 0)
(1.50866 0.027788 0)
(1.5099 0.0284425 0)
(1.511 0.0290492 0)
(1.51195 0.0296136 0)
(1.51277 0.0301347 0)
(1.51345 0.0306364 0)
(1.51402 0.0311004 0)
(1.51447 0.0315313 0)
(1.5148 0.0319259 0)
(1.51501 0.0322977 0)
(1.51511 0.0326438 0)
(1.5151 0.0329509 0)
(1.51497 0.0332307 0)
(1.51472 0.0334882 0)
(1.51435 0.0337178 0)
(1.51387 0.0339564 0)
(1.51327 0.0341373 0)
(1.51258 0.0342506 0)
(1.51179 0.0342996 0)
(1.5109 0.0342826 0)
(1.5099 0.0342066 0)
(1.50878 0.0340716 0)
(1.50754 0.0338756 0)
(1.50619 0.0336157 0)
(1.50473 0.0332894 0)
(1.50315 0.0328951 0)
(1.50148 0.0324305 0)
(1.4997 0.0318966 0)
(1.49782 0.0312975 0)
(1.49584 0.0306355 0)
(1.49376 0.0299113 0)
(1.4916 0.0291266 0)
(1.48937 0.0282854 0)
(1.48706 0.0273921 0)
(1.4847 0.026449 0)
(1.48228 0.0254585 0)
(1.47982 0.0244254 0)
(1.47731 0.0233541 0)
(1.47478 0.0222485 0)
(1.47224 0.0211143 0)
(1.4697 0.0199595 0)
(1.46718 0.0187911 0)
(1.46467 0.0176148 0)
(1.46221 0.0164346 0)
(1.45979 0.0152548 0)
(1.45744 0.0140792 0)
(1.45517 0.0129106 0)
(1.45298 0.0117532 0)
(1.45089 0.0105945 0)
(1.44892 0.00943493 0)
(1.44707 0.00828119 0)
(1.44536 0.00713357 0)
(1.44381 0.00599324 0)
(1.44239 0.0048489 0)
(1.44117 0.00372765 0)
(1.44012 0.00259553 0)
(1.43927 0.00147862 0)
(1.43861 0.00035985 0)
(1.43815 -0.000767587 0)
(1.43791 -0.00188405 0)
(1.4379 -0.00301827 0)
(1.43813 -0.00416282 0)
(1.43863 -0.00531621 0)
(1.43942 -0.00648239 0)
(1.44048 -0.0076653 0)
(1.44184 -0.00886766 0)
(1.44351 -0.0100915 0)
(1.44551 -0.0113386 0)
(1.44784 -0.0126105 0)
(1.45053 -0.013908 0)
(1.45357 -0.0152315 0)
(1.45699 -0.0165809 0)
(1.46079 -0.0179554 0)
(1.465 -0.019354 0)
(1.46961 -0.0207746 0)
(1.47465 -0.0222147 0)
(1.48012 -0.0236705 0)
(1.48603 -0.0251378 0)
(1.4924 -0.0266104 0)
(1.49922 -0.0280812 0)
(1.5065 -0.0295414 0)
(1.51425 -0.0309819 0)
(1.52246 -0.0324 0)
(1.53112 -0.0337931 0)
(1.54026 -0.0351527 0)
(1.54984 -0.036466 0)
(1.55988 -0.0377207 0)
(1.57034 -0.0389049 0)
(1.58123 -0.0400069 0)
(1.59253 -0.0410147 0)
(1.60421 -0.0419161 0)
(1.61626 -0.0426991 0)
(1.62864 -0.0433523 0)
(1.64134 -0.0438648 0)
(1.65431 -0.0442264 0)
(1.66751 -0.0444278 0)
(1.68092 -0.0444606 0)
(1.69448 -0.0443193 0)
(1.70815 -0.0439989 0)
(1.72188 -0.0434963 0)
(1.47792 0.00289003 0)
(1.47934 0.00816239 0)
(1.48192 0.0122473 0)
(1.4848 0.0154234 0)
(1.48739 0.0179346 0)
(1.48976 0.020003 0)
(1.49204 0.0216994 0)
(1.49426 0.0231086 0)
(1.49638 0.024294 0)
(1.49839 0.0253141 0)
(1.50029 0.0262012 0)
(1.50208 0.0269698 0)
(1.5038 0.0276763 0)
(1.50548 0.0283434 0)
(1.50711 0.0289562 0)
(1.5087 0.0295097 0)
(1.51024 0.0300128 0)
(1.51171 0.0304718 0)
(1.51321 0.0308961 0)
(1.51456 0.0312875 0)
(1.51593 0.0316506 0)
(1.51728 0.0319864 0)
(1.5186 0.0322831 0)
(1.5199 0.0325593 0)
(1.52117 0.0328036 0)
(1.52245 0.0330231 0)
(1.52368 0.0332148 0)
(1.52504 0.0333766 0)
(1.52632 0.0335106 0)
(1.52757 0.0336122 0)
(1.5288 0.0336729 0)
(1.53 0.0336837 0)
(1.53117 0.0336387 0)
(1.5323 0.0335362 0)
(1.5334 0.033375 0)
(1.53446 0.0331535 0)
(1.53548 0.0328707 0)
(1.53645 0.0325207 0)
(1.53737 0.0321257 0)
(1.53821 0.0316866 0)
(1.53901 0.0311722 0)
(1.53976 0.0305832 0)
(1.54045 0.0299315 0)
(1.54108 0.0292206 0)
(1.54165 0.0284545 0)
(1.54216 0.027635 0)
(1.54261 0.026764 0)
(1.543 0.0258431 0)
(1.54333 0.0248811 0)
(1.54359 0.0238822 0)
(1.5438 0.0228386 0)
(1.54396 0.0217526 0)
(1.54408 0.0206345 0)
(1.54417 0.0194929 0)
(1.54422 0.0183334 0)
(1.54425 0.0171597 0)
(1.54425 0.0159755 0)
(1.54425 0.0147838 0)
(1.54424 0.013587 0)
(1.54424 0.0123856 0)
(1.54426 0.0111785 0)
(1.5443 0.00996463 0)
(1.54438 0.00874431 0)
(1.5445 0.00751914 0)
(1.54467 0.00629081 0)
(1.5449 0.0050587 0)
(1.54521 0.00381929 0)
(1.54559 0.00257014 0)
(1.54606 0.00131102 0)
(1.54664 3.97424e-05 0)
(1.54732 -0.00124285 0)
(1.54812 -0.00253997 0)
(1.54903 -0.00385468 0)
(1.55009 -0.00518672 0)
(1.55129 -0.00654148 0)
(1.55265 -0.00792423 0)
(1.55417 -0.00933767 0)
(1.55588 -0.0107833 0)
(1.55777 -0.0122628 0)
(1.55987 -0.013778 0)
(1.56218 -0.0153304 0)
(1.56472 -0.0169211 0)
(1.5675 -0.0185505 0)
(1.57053 -0.0202188 0)
(1.57382 -0.0219253 0)
(1.57739 -0.0236693 0)
(1.58124 -0.0254478 0)
(1.5854 -0.0272596 0)
(1.58987 -0.0290987 0)
(1.59467 -0.030963 0)
(1.59981 -0.0328435 0)
(1.6053 -0.0347334 0)
(1.61115 -0.0366196 0)
(1.61736 -0.0384783 0)
(1.62394 -0.0403138 0)
(1.63092 -0.0421337 0)
(1.6383 -0.0439295 0)
(1.6461 -0.0456833 0)
(1.65432 -0.0473774 0)
(1.66295 -0.0489968 0)
(1.672 -0.0505268 0)
(1.68146 -0.0519517 0)
(1.69131 -0.0532557 0)
(1.70155 -0.054423 0)
(1.71216 -0.0554381 0)
(1.72311 -0.0562861 0)
(1.73437 -0.0569528 0)
(1.74593 -0.0574252 0)
(1.75775 -0.0576919 0)
(1.76979 -0.0577432 0)
(1.78201 -0.0575714 0)
(1.79437 -0.0571705 0)
(1.47778 0.00215768 0)
(1.47857 0.00633487 0)
(1.48017 0.00982614 0)
(1.48216 0.0125946 0)
(1.48416 0.014848 0)
(1.4861 0.0167584 0)
(1.48804 0.0184036 0)
(1.48996 0.0198149 0)
(1.49183 0.0210339 0)
(1.49363 0.022096 0)
(1.49537 0.0230404 0)
(1.49706 0.0238901 0)
(1.4987 0.0246751 0)
(1.5003 0.0253988 0)
(1.50188 0.0260674 0)
(1.50343 0.0266799 0)
(1.50497 0.02725 0)
(1.50649 0.0277766 0)
(1.508 0.0282723 0)
(1.50951 0.0287423 0)
(1.51101 0.029174 0)
(1.51251 0.0295705 0)
(1.51401 0.0299327 0)
(1.51552 0.0302629 0)
(1.51702 0.0305636 0)
(1.51852 0.0308316 0)
(1.52002 0.0310574 0)
(1.52151 0.0312466 0)
(1.52301 0.0314149 0)
(1.52452 0.0315556 0)
(1.52606 0.0316544 0)
(1.52759 0.0317025 0)
(1.52913 0.0316967 0)
(1.53067 0.0316358 0)
(1.5322 0.0315188 0)
(1.53371 0.0313453 0)
(1.53522 0.0311123 0)
(1.5367 0.0308198 0)
(1.53817 0.0304659 0)
(1.53962 0.0300534 0)
(1.54104 0.029579 0)
(1.54244 0.0290438 0)
(1.5438 0.0284485 0)
(1.54513 0.0277973 0)
(1.54642 0.0270834 0)
(1.54768 0.0263097 0)
(1.54889 0.0254899 0)
(1.55008 0.0246141 0)
(1.55119 0.0237025 0)
(1.55236 0.0227458 0)
(1.55346 0.0217499 0)
(1.55449 0.0207194 0)
(1.55547 0.0196585 0)
(1.5564 0.0185705 0)
(1.5573 0.0174586 0)
(1.55816 0.0163258 0)
(1.55899 0.0151753 0)
(1.55979 0.0140095 0)
(1.56059 0.0128322 0)
(1.56137 0.0116448 0)
(1.56214 0.0104433 0)
(1.56292 0.00922268 0)
(1.56371 0.00798078 0)
(1.56453 0.0067216 0)
(1.56538 0.00544998 0)
(1.56626 0.00416562 0)
(1.56718 0.00286588 0)
(1.56814 0.0015496 0)
(1.56916 0.000215146 0)
(1.57024 -0.00113648 0)
(1.57139 -0.0025056 0)
(1.57262 -0.0038968 0)
(1.57393 -0.00531713 0)
(1.57533 -0.00677059 0)
(1.57684 -0.00826052 0)
(1.57847 -0.00979007 0)
(1.58022 -0.0113618 0)
(1.58211 -0.0129779 0)
(1.58414 -0.0146407 0)
(1.58633 -0.0163526 0)
(1.58868 -0.0181153 0)
(1.59122 -0.0199302 0)
(1.59394 -0.0217981 0)
(1.59687 -0.0237194 0)
(1.60002 -0.0256937 0)
(1.60339 -0.0277198 0)
(1.607 -0.0297959 0)
(1.61089 -0.0319192 0)
(1.61501 -0.034086 0)
(1.61947 -0.0362916 0)
(1.62414 -0.0385301 0)
(1.62925 -0.0407947 0)
(1.63455 -0.0430775 0)
(1.64036 -0.0453705 0)
(1.64659 -0.047665 0)
(1.6532 -0.04995 0)
(1.6602 -0.0522113 0)
(1.66761 -0.0544328 0)
(1.67543 -0.0565977 0)
(1.68366 -0.0586887 0)
(1.6923 -0.0606875 0)
(1.70135 -0.0625751 0)
(1.7108 -0.0643314 0)
(1.72065 -0.0659362 0)
(1.73087 -0.0673693 0)
(1.74147 -0.0686112 0)
(1.7524 -0.0696429 0)
(1.76365 -0.0704467 0)
(1.77518 -0.0710067 0)
(1.78696 -0.0713091 0)
(1.79895 -0.0713427 0)
(1.8111 -0.0710982 0)
(1.47771 0.00171347 0)
(1.47819 0.00507838 0)
(1.47927 0.00811042 0)
(1.48074 0.010726 0)
(1.48236 0.0129792 0)
(1.48401 0.014949 0)
(1.48568 0.0166799 0)
(1.48736 0.0181951 0)
(1.48902 0.0195219 0)
(1.49065 0.0206919 0)
(1.49225 0.021733 0)
(1.49381 0.0226661 0)
(1.49533 0.023507 0)
(1.49683 0.0242698 0)
(1.49831 0.0249641 0)
(1.49977 0.0255972 0)
(1.50122 0.0261752 0)
(1.50265 0.026704 0)
(1.50407 0.0271886 0)
(1.50549 0.0276328 0)
(1.50691 0.0280353 0)
(1.50832 0.0283988 0)
(1.50974 0.0287259 0)
(1.51116 0.0290185 0)
(1.51259 0.0292775 0)
(1.51402 0.0295032 0)
(1.51546 0.0296955 0)
(1.51692 0.0298564 0)
(1.51838 0.0299885 0)
(1.51986 0.0300868 0)
(1.52136 0.0301437 0)
(1.52288 0.0301546 0)
(1.5244 0.0301177 0)
(1.52594 0.0300317 0)
(1.52748 0.0298951 0)
(1.52902 0.0297065 0)
(1.53057 0.0294645 0)
(1.53211 0.0291685 0)
(1.53364 0.0288194 0)
(1.53517 0.0284169 0)
(1.53668 0.0279587 0)
(1.53818 0.0274429 0)
(1.53966 0.0268717 0)
(1.54111 0.0262431 0)
(1.54254 0.0255682 0)
(1.54393 0.0248423 0)
(1.54529 0.0240662 0)
(1.54661 0.0232393 0)
(1.5479 0.0223624 0)
(1.54914 0.021435 0)
(1.55033 0.020477 0)
(1.5515 0.019493 0)
(1.55263 0.0184791 0)
(1.55374 0.0174338 0)
(1.55481 0.0163601 0)
(1.55585 0.0152597 0)
(1.55687 0.0141346 0)
(1.55787 0.012987 0)
(1.55885 0.0118184 0)
(1.55985 0.0106294 0)
(1.56084 0.00942024 0)
(1.56184 0.00819066 0)
(1.56283 0.00694052 0)
(1.56379 0.00566959 0)
(1.56478 0.00437718 0)
(1.56578 0.00306196 0)
(1.56682 0.00172275 0)
(1.56787 0.000358106 0)
(1.56899 -0.00103322 0)
(1.57013 -0.00245213 0)
(1.57136 -0.00390182 0)
(1.57267 -0.0053854 0)
(1.57406 -0.0069063 0)
(1.57554 -0.00846807 0)
(1.57712 -0.0100743 0)
(1.5788 -0.0117287 0)
(1.5806 -0.0134347 0)
(1.58252 -0.0151956 0)
(1.58458 -0.0170145 0)
(1.58679 -0.0188941 0)
(1.58916 -0.0208369 0)
(1.59169 -0.0228448 0)
(1.59441 -0.0249192 0)
(1.59733 -0.027061 0)
(1.60046 -0.0292706 0)
(1.60381 -0.0315471 0)
(1.6074 -0.03389 0)
(1.61125 -0.0362957 0)
(1.61538 -0.0387629 0)
(1.61979 -0.0412853 0)
(1.62451 -0.0438603 0)
(1.62956 -0.0464814 0)
(1.63495 -0.0491462 0)
(1.64068 -0.0518599 0)
(1.64677 -0.0545987 0)
(1.65324 -0.0573325 0)
(1.6601 -0.0600434 0)
(1.66738 -0.0627185 0)
(1.67508 -0.0653419 0)
(1.6832 -0.0678944 0)
(1.69175 -0.0703546 0)
(1.70074 -0.0726998 0)
(1.71015 -0.0749065 0)
(1.71998 -0.07695 0)
(1.73022 -0.0788056 0)
(1.74084 -0.0804485 0)
(1.75184 -0.0818546 0)
(1.76318 -0.0830011 0)
(1.77483 -0.0838672 0)
(1.78675 -0.0844342 0)
(1.7989 -0.0846868 0)
(1.81124 -0.0846128 0)
(1.47768 0.00142717 0)
(1.47802 0.00425258 0)
(1.47879 0.00690806 0)
(1.47991 0.00929592 0)
(1.48119 0.0114023 0)
(1.48255 0.0132619 0)
(1.48396 0.0149113 0)
(1.48541 0.0163737 0)
(1.48687 0.0176703 0)
(1.48833 0.0188234 0)
(1.48978 0.0198549 0)
(1.49122 0.0207826 0)
(1.49264 0.0216218 0)
(1.49404 0.0223855 0)
(1.49544 0.0230831 0)
(1.49682 0.0237211 0)
(1.4982 0.0243053 0)
(1.49956 0.0248407 0)
(1.50093 0.0253315 0)
(1.50229 0.0257813 0)
(1.50364 0.0261921 0)
(1.50501 0.0265654 0)
(1.50637 0.0269025 0)
(1.50774 0.0272048 0)
(1.50911 0.0274731 0)
(1.51049 0.0277073 0)
(1.51187 0.0279072 0)
(1.51327 0.0280721 0)
(1.51467 0.0282015 0)
(1.51609 0.0282937 0)
(1.51751 0.0283457 0)
(1.51895 0.0283545 0)
(1.5204 0.0283179 0)
(1.52185 0.0282342 0)
(1.52331 0.0281018 0)
(1.52477 0.0279194 0)
(1.52623 0.0276862 0)
(1.52769 0.0274014 0)
(1.52914 0.0270648 0)
(1.53058 0.0266762 0)
(1.53202 0.0262345 0)
(1.53344 0.0257394 0)
(1.53484 0.0251916 0)
(1.53622 0.0245923 0)
(1.53758 0.0239425 0)
(1.53892 0.0232431 0)
(1.54023 0.022496 0)
(1.54151 0.021702 0)
(1.54276 0.0208643 0)
(1.54398 0.0199851 0)
(1.54517 0.0190724 0)