/*--------------------------------*- C++ -*----------------------------------*\
| =========                 |                                                 |
| \\      /  F ield         | OpenFOAM: The Open Source CFD Toolbox           |
|  \\    /   O peration     | Version:  2206                                  |
|   \\  /    A nd           | Website:  www.openfoam.com                      |
|    \\/     M anipulation  |                                                 |
\*---------------------------------------------------------------------------*/
FoamFile
{
    version     2.0;
    format      ascii;
    arch        "LSB;label=32;scalar=64";
    class       volVectorField;
    location    "19.8999";
    object      ddtCorrDdt0(U);
}
// * * * * * * * * * * * * * * * * * * * * * * * * * * * * * * * * * * * * * //

dimensions      [0 1 -2 0 0 0 0];

internalField   nonuniform List<vector> 
3038
(
(9.0892e-06 0.00109376 0)
(4.90317e-05 0.00336975 0)
(0.000146384 0.0056742 0)
(0.00029844 0.00794689 0)
(0.000502719 0.010151 0)
(0.000757284 0.0122304 0)
(0.00105871 0.0141323 0)
(0.00140211 0.0158161 0)
(0.00178247 0.0172528 0)
(0.00219375 0.0184237 0)
(0.00263016 0.0193179 0)
(0.0030855 0.0199317 0)
(0.00355393 0.0202684 0)
(0.00402891 0.0203391 0)
(0.00450459 0.0201625 0)
(0.00497517 0.0197677 0)
(0.00543704 0.0191903 0)
(0.00588623 0.0184771 0)
(0.00631782 0.0176762 0)
(0.00673007 0.0168433 0)
(0.00712483 0.0160323 0)
(0.00750216 0.0153016 0)
(0.00786203 0.014703 0)
(0.00820798 0.0142896 0)
(0.00854751 0.0141062 0)
(0.00888575 0.0141977 0)
(0.00922587 0.0145974 0)
(0.00958081 0.0153363 0)
(0.00994904 0.0164382 0)
(0.0103567 0.0179221 0)
(0.0108015 0.0197923 0)
(0.0112902 0.0220553 0)
(0.0118344 0.0247024 0)
(0.0124597 0.0277291 0)
(0.0131372 0.0311082 0)
(0.0139373 0.0348316 0)
(0.0147873 0.0388573 0)
(0.0157785 0.0431714 0)
(0.0168426 0.047729 0)
(0.0180442 0.052512 0)
(0.0193593 0.0574832 0)
(0.0207781 0.0626156 0)
(0.0223624 0.067895 0)
(0.0240248 0.0732859 0)
(0.0258662 0.0787949 0)
(0.0278099 0.0843996 0)
(0.0298966 0.0901051 0)
(0.0321343 0.0959271 0)
(0.034494 0.101863 0)
(0.037002 0.107951 0)
(0.0396895 0.114225 0)
(0.0424639 0.120683 0)
(0.0454852 0.127443 0)
(0.0486092 0.134475 0)
(0.0519184 0.141873 0)
(0.0554357 0.149759 0)
(0.0590568 0.158072 0)
(0.0629149 0.167214 0)
(0.0669772 0.176915 0)
(0.0712462 0.187368 0)
(0.0757813 0.198646 0)
(0.0806682 0.210857 0)
(0.0858514 0.224086 0)
(0.0913715 0.238417 0)
(0.0972771 0.253926 0)
(0.103605 0.270698 0)
(0.1104 0.288815 0)
(0.117709 0.308365 0)
(0.125579 0.329434 0)
(0.134059 0.352115 0)
(0.143207 0.376499 0)
(0.153088 0.402689 0)
(0.163779 0.430782 0)
(0.175365 0.460889 0)
(0.187945 0.493122 0)
(0.201628 0.527606 0)
(0.216543 0.564477 0)
(0.232835 0.60389 0)
(0.250671 0.646017 0)
(0.270253 0.691058 0)
(0.29181 0.739239 0)
(0.315621 0.790823 0)
(0.342014 0.846107 0)
(0.371385 0.905454 0)
(0.404225 0.969266 0)
(0.441126 1.03805 0)
(0.482782 1.11238 0)
(0.530059 1.19297 0)
(0.584048 1.28072 0)
(0.646093 1.37676 0)
(0.717901 1.48262 0)
(0.801609 1.6004 0)
(0.900229 1.73315 0)
(1.01723 1.88578 0)
(1.16008 2.0652 0)
(1.33507 2.28837 0)
(1.57792 2.55816 0)
(1.91136 2.99189 0)
(2.74555 3.37653 0)
(3.68979 4.8868 0)
(1.0842e-05 0.00106701 0)
(5.79053e-05 0.00329118 0)
(0.00017309 0.00553517 0)
(0.000354443 0.00775299 0)
(0.000595587 0.00990361 0)
(0.000892936 0.0119313 0)
(0.00124394 0.0137852 0)
(0.00164455 0.0154254 0)
(0.00208893 0.0168248 0)
(0.00257003 0.0179644 0)
(0.00308083 0.0188344 0)
(0.00361423 0.0194306 0)
(0.00416326 0.0197567 0)
(0.00472015 0.0198228 0)
(0.00527842 0.0196487 0)
(0.00583076 0.0192611 0)
(0.00637317 0.0186976 0)
(0.00689971 0.0180004 0)
(0.00740584 0.017219 0)
(0.00788997 0.016406 0)
(0.00835346 0.0156168 0)
(0.00879554 0.014904 0)
(0.00921741 0.0143213 0)
(0.00962368 0.0139181 0)
(0.0100221 0.0137417 0)
(0.0104179 0.0138308 0)
(0.0108156 0.0142217 0)
(0.0112343 0.0149425 0)
(0.0116584 0.0160186 0)
(0.0121476 0.017464 0)
(0.0126535 0.0192869 0)
(0.013235 0.021492 0)
(0.0138692 0.0240718 0)
(0.0145966 0.0270183 0)
(0.0154041 0.0303131 0)
(0.0163179 0.0339353 0)
(0.0173441 0.0378586 0)
(0.0184656 0.0420534 0)
(0.0197568 0.0464984 0)
(0.0211235 0.0511473 0)
(0.0226931 0.0559942 0)
(0.0243457 0.0609879 0)
(0.0261896 0.0661284 0)
(0.028168 0.0713829 0)
(0.0302855 0.0767401 0)
(0.0326014 0.0822066 0)
(0.0350184 0.0877574 0)
(0.0376598 0.0934312 0)
(0.0404052 0.0992076 0)
(0.0433816 0.105148 0)
(0.0464608 0.11123 0)
(0.0498032 0.117566 0)
(0.0532373 0.124091 0)
(0.0569409 0.130986 0)
(0.0608006 0.138207 0)
(0.0648358 0.145828 0)
(0.0691559 0.154125 0)
(0.0736183 0.162896 0)
(0.0783817 0.172323 0)
(0.0834347 0.182467 0)
(0.0887924 0.193474 0)
(0.0944971 0.205375 0)
(0.100564 0.218244 0)
(0.107041 0.232169 0)
(0.113966 0.247241 0)
(0.121381 0.263536 0)
(0.129332 0.281141 0)
(0.137871 0.300128 0)
(0.147051 0.320582 0)
(0.156934 0.342581 0)
(0.167587 0.366217 0)
(0.179085 0.391574 0)
(0.191516 0.418749 0)
(0.204974 0.447836 0)
(0.21957 0.478939 0)
(0.235425 0.512165 0)
(0.252682 0.547637 0)
(0.271501 0.585484 0)
(0.29207 0.625855 0)
(0.314608 0.668912 0)
(0.339371 0.714844 0)
(0.366663 0.763857 0)
(0.396848 0.816194 0)
(0.430361 0.872126 0)
(0.467741 0.931975 0)
(0.509632 0.996099 0)
(0.556808 1.06492 0)
(0.610261 1.13896 0)
(0.671237 1.21883 0)
(0.741322 1.30531 0)
(0.822608 1.39942 0)
(0.917868 1.50251 0)
(1.03127 1.61649 0)
(1.16782 1.74428 0)
(1.34055 1.88919 0)
(1.54872 2.0606 0)
(1.88427 2.25029 0)
(2.10379 2.50291 0)
(3.45547 2.80091 0)
(2.07748 2.20662 0)
(1.20896e-05 0.00103511 0)
(6.73422e-05 0.0031963 0)
(0.000199612 0.00537613 0)
(0.000406374 0.00752914 0)
(0.000681498 0.00961576 0)
(0.00102091 0.0115829 0)
(0.00142147 0.0133811 0)
(0.00187866 0.014972 0)
(0.0023859 0.0163287 0)
(0.00293528 0.0174329 0)
(0.00351865 0.0182746 0)
(0.00412785 0.0188503 0)
(0.00475478 0.0191637 0)
(0.00539122 0.019225 0)
(0.00602911 0.0190531 0)
(0.00666149 0.0186743 0)
(0.00728208 0.0181252 0)
(0.00788466 0.0174461 0)
(0.00846449 0.0166866 0)
(0.00901987 0.0158968 0)
(0.00955045 0.015131 0)
(0.0100562 0.0144393 0)
(0.0105391 0.0138753 0)
(0.0110049 0.0134855 0)
(0.0114601 0.0133164 0)
(0.011912 0.0134042 0)
(0.0123667 0.0137857 0)
(0.0128448 0.0144872 0)
(0.0133319 0.0155316 0)
(0.0138813 0.0169332 0)
(0.0144672 0.0187026 0)
(0.0151217 0.0208401 0)
(0.0158562 0.0233427 0)
(0.0166713 0.0261965 0)
(0.0176109 0.0293923 0)
(0.0186337 0.0328976 0)
(0.0198184 0.0367022 0)
(0.0210974 0.0407644 0)
(0.0225599 0.0450701 0)
(0.0241451 0.0495768 0)
(0.0259021 0.0542666 0)
(0.0278284 0.059112 0)
(0.0299014 0.0640848 0)
(0.0321786 0.0691805 0)
(0.0345991 0.0743711 0)
(0.0372272 0.0796646 0)
(0.0400095 0.0850478 0)
(0.0430137 0.0905457 0)
(0.0461478 0.0961374 0)
(0.0495559 0.101905 0)
(0.0530693 0.107793 0)
(0.0568614 0.113927 0)
(0.0608172 0.12028 0)
(0.0649931 0.126936 0)
(0.0694169 0.133973 0)
(0.074011 0.141369 0)
(0.0789133 0.149399 0)
(0.0840475 0.157913 0)
(0.0895039 0.167047 0)
(0.0952831 0.176864 0)
(0.101434 0.187565 0)
(0.107973 0.19908 0)
(0.114903 0.211529 0)
(0.122292 0.225008 0)
(0.130189 0.239583 0)
(0.138635 0.255333 0)
(0.147686 0.272334 0)
(0.157396 0.290661 0)
(0.167828 0.310391 0)
(0.17905 0.331602 0)
(0.191137 0.354374 0)
(0.204173 0.378787 0)
(0.218251 0.404924 0)
(0.233477 0.432867 0)
(0.249968 0.462706 0)
(0.267857 0.494533 0)
(0.287294 0.528448 0)
(0.308452 0.564557 0)
(0.331531 0.602978 0)
(0.356762 0.64384 0)
(0.384417 0.687286 0)
(0.414819 0.733469 0)
(0.448346 0.782564 0)
(0.485459 0.834756 0)
(0.526716 0.890263 0)
(0.572786 0.9493 0)
(0.624492 1.01213 0)
(0.68287 1.07902 0)
(0.749223 1.15029 0)
(0.825236 1.22626 0)
(0.913108 1.3073 0)
(1.01583 1.39377 0)
(1.13768 1.48606 0)
(1.28391 1.58426 0)
(1.46692 1.68818 0)
(1.68379 1.79425 0)
(2.01955 1.91322 0)
(2.26877 1.89167 0)
(3.15866 2.11041 0)
(3.48168 1.92564 0)
(1.34976e-05 0.000999181 0)
(7.57751e-05 0.00308942 0)
(0.000224111 0.00519546 0)
(0.000455738 0.00727528 0)
(0.000763854 0.00929127 0)
(0.00114372 0.0111912 0)
(0.00159203 0.0129267 0)
(0.00210385 0.0144611 0)
(0.00267149 0.0157689 0)
(0.00328608 0.0168327 0)
(0.00393882 0.0176425 0)
(0.0046209 0.0181949 0)
(0.0053233 0.0184934 0)
(0.00603683 0.0185484 0)
(0.00675258 0.0183782 0)
(0.00746248 0.0180093 0)
(0.00815937 0.0174757 0)
(0.00883652 0.0168184 0)
(0.00948883 0.0160837 0)
(0.0101137 0.0153212 0)
(0.0107102 0.0145815 0)
(0.0112789 0.0139151 0)
(0.0118221 0.0133716 0)
(0.0123454 0.0129976 0)
(0.0128561 0.0128355 0)
(0.0133627 0.0129229 0)
(0.0138733 0.0132928 0)
(0.0144065 0.0139721 0)
(0.0149587 0.0149811 0)
(0.0155603 0.0163349 0)
(0.0162287 0.0180431 0)
(0.0169503 0.0201045 0)
(0.0177765 0.0225184 0)
(0.018691 0.0252706 0)
(0.0197278 0.0283487 0)
(0.0208959 0.0317305 0)
(0.022187 0.0353919 0)
(0.0236609 0.0393126 0)
(0.0252528 0.043453 0)
(0.0270671 0.0478033 0)
(0.0290071 0.0523157 0)
(0.031173 0.0569871 0)
(0.0335054 0.061781 0)
(0.0360291 0.0666853 0)
(0.0387747 0.0716966 0)
(0.0416831 0.0767895 0)
(0.044836 0.0819882 0)
(0.0481548 0.0872732 0)
(0.0517328 0.0926915 0)
(0.0554573 0.0982078 0)
(0.0594933 0.103944 0)
(0.063652 0.109804 0)
(0.0681263 0.115973 0)
(0.0727989 0.122392 0)
(0.0777061 0.129143 0)
(0.08294 0.136414 0)
(0.0883743 0.144072 0)
(0.0941317 0.152277 0)
(0.100235 0.161095 0)
(0.106795 0.170599 0)
(0.113719 0.180868 0)
(0.120969 0.191944 0)
(0.12873 0.203928 0)
(0.13701 0.216897 0)
(0.145837 0.230913 0)
(0.155274 0.246055 0)
(0.165376 0.262392 0)
(0.176206 0.279997 0)
(0.187831 0.298938 0)
(0.200325 0.319285 0)
(0.213769 0.341108 0)
(0.228253 0.364478 0)
(0.243878 0.389466 0)
(0.260754 0.416146 0)
(0.279006 0.444593 0)
(0.298773 0.474882 0)
(0.320213 0.507093 0)
(0.343505 0.541311 0)
(0.368855 0.577622 0)
(0.396501 0.616117 0)
(0.426721 0.656898 0)
(0.459841 0.70006 0)
(0.496245 0.745709 0)
(0.536393 0.793952 0)
(0.58084 0.844888 0)
(0.630249 0.898608 0)
(0.685434 0.95519 0)
(0.7474 1.01468 0)
(0.817407 1.07706 0)
(0.897058 1.14223 0)
(0.988403 1.20993 0)
(1.09416 1.27961 0)
(1.21794 1.35025 0)
(1.36426 1.41991 0)
(1.54158 1.48542 0)
(1.75037 1.53745 0)
(2.03525 1.58476 0)
(2.30844 1.49455 0)
(2.73016 1.47242 0)
(3.30404 1.27056 0)
(1.48613e-05 0.00095926 0)
(8.36936e-05 0.00296995 0)
(0.000247877 0.0049946 0)
(0.000503732 0.00699318 0)
(0.000842918 0.00893072 0)
(0.00126009 0.0107549 0)
(0.00175281 0.0124203 0)
(0.00231659 0.0138929 0)
(0.00294246 0.0151475 0)
(0.00361974 0.016167 0)
(0.00433852 0.0169416 0)
(0.00508953 0.017468 0)
(0.00586339 0.0177495 0)
(0.00665066 0.0177965 0)
(0.00744187 0.0176273 0)
(0.00822789 0.0172678 0)
(0.00900021 0.0167511 0)
(0.00975131 0.0161168 0)
(0.0104753 0.0154094 0)
(0.0111688 0.0146766 0)
(0.0118303 0.0139668 0)
(0.0124605 0.0133285 0)
(0.0130624 0.0128091 0)
(0.0136417 0.0124529 0)
(0.0142063 0.0123005 0)
(0.0147659 0.0123879 0)
(0.0153294 0.0127463 0)
(0.015918 0.0134007 0)
(0.0165231 0.0143719 0)
(0.0171919 0.0156732 0)
(0.0179181 0.0173123 0)
(0.0187248 0.0192915 0)
(0.0196192 0.0216048 0)
(0.0206412 0.0242456 0)
(0.0217678 0.0271932 0)
(0.0230627 0.030436 0)
(0.0244836 0.0339423 0)
(0.0260966 0.0376973 0)
(0.0278732 0.0416666 0)
(0.0298388 0.0458272 0)
(0.0320156 0.0501579 0)
(0.034368 0.0546238 0)
(0.0369612 0.0592224 0)
(0.0397413 0.06392 0)
(0.0427545 0.0687174 0)
(0.045984 0.0736047 0)
(0.0494438 0.0785822 0)
(0.0531105 0.0836473 0)
(0.0570569 0.0888454 0)
(0.061172 0.094135 0)
(0.0655974 0.0996227 0)
(0.070224 0.105271 0)
(0.0751214 0.111161 0)
(0.0803003 0.117346 0)
(0.0857053 0.123818 0)
(0.0914647 0.130783 0)
(0.0974967 0.138143 0)
(0.103888 0.146024 0)
(0.110661 0.154497 0)
(0.117834 0.163633 0)
(0.125428 0.173405 0)
(0.133486 0.184015 0)
(0.142052 0.195502 0)
(0.151162 0.207914 0)
(0.160875 0.221327 0)
(0.171249 0.235805 0)
(0.182346 0.251415 0)
(0.194231 0.268222 0)
(0.206978 0.286291 0)
(0.220665 0.305687 0)
(0.23538 0.326473 0)
(0.251217 0.348709 0)
(0.268282 0.372458 0)
(0.286689 0.397778 0)
(0.306567 0.424731 0)
(0.328058 0.453376 0)
(0.351322 0.483773 0)
(0.376539 0.515981 0)
(0.403917 0.55006 0)
(0.433692 0.586066 0)
(0.466141 0.624055 0)
(0.501581 0.664073 0)
(0.54039 0.70616 0)
(0.583008 0.750341 0)
(0.629964 0.796621 0)
(0.681883 0.844965 0)
(0.739519 0.89529 0)
(0.803789 0.947432 0)
(0.875815 1.00111 0)
(0.956986 1.05586 0)
(1.04901 1.11092 0)
(1.15405 1.16513 0)
(1.27473 1.21657 0)
(1.41424 1.26229 0)
(1.57705 1.29756 0)
(1.76482 1.31313 0)
(1.98999 1.30694 0)
(2.23644 1.22446 0)
(2.47646 1.08424 0)
(2.83603 0.910648 0)
(1.61787e-05 0.000915647 0)
(9.13429e-05 0.00283857 0)
(0.000270016 0.00477455 0)
(0.00054823 0.00668431 0)
(0.00091535 0.0085408 0)
(0.00136652 0.0102839 0)
(0.00190242 0.0118691 0)
(0.00251599 0.0132702 0)
(0.00319566 0.0144649 0)
(0.00393093 0.0154352 0)
(0.00471241 0.0161711 0)
(0.00553037 0.0166691 0)
(0.00637483 0.0169325 0)
(0.00723535 0.0169713 0)
(0.00810096 0.016803 0)
(0.00896078 0.016453 0)
(0.00980526 0.0159538 0)
(0.0106264 0.0153442 0)
(0.0114182 0.0146668 0)
(0.0121769 0.0139669 0)
(0.012901 0.0132906 0)
(0.0135912 0.0126836 0)
(0.0142507 0.0121907 0)
(0.0148856 0.0118542 0)
(0.0155035 0.0117126 0)
(0.0161153 0.0118 0)
(0.0167299 0.0121459 0)
(0.0173727 0.0127743 0)
(0.0180263 0.0137033 0)
(0.0187608 0.0149472 0)
(0.019544 0.0165117 0)
(0.0204224 0.0184001 0)
(0.0213973 0.0206059 0)
(0.0224955 0.0231212 0)
(0.0237383 0.0259313 0)
(0.0251166 0.0290152 0)
(0.026694 0.0323591 0)
(0.0284127 0.0359266 0)
(0.0303735 0.0397108 0)
(0.0324939 0.0436663 0)
(0.0348627 0.0477881 0)
(0.0374392 0.0520432 0)
(0.0402341 0.0564123 0)
(0.0432929 0.0608943 0)
(0.0465472 0.0654535 0)
(0.0500863 0.0701137 0)
(0.0538312 0.0748469 0)
(0.057865 0.0796878 0)
(0.0620998 0.0846079 0)
(0.0666651 0.0896953 0)
(0.0714079 0.0948744 0)
(0.0765007 0.100298 0)
(0.0818255 0.105902 0)
(0.0874392 0.111774 0)
(0.0934103 0.118042 0)
(0.0996343 0.124615 0)
(0.106224 0.131626 0)
(0.113204 0.139136 0)
(0.120586 0.147199 0)
(0.128397 0.155873 0)
(0.136672 0.165224 0)
(0.145447 0.175344 0)
(0.154764 0.186274 0)
(0.164673 0.198081 0)
(0.175227 0.210835 0)
(0.186489 0.224597 0)
(0.198523 0.239428 0)
(0.211401 0.255384 0)
(0.225201 0.272524 0)
(0.240005 0.290904 0)
(0.255904 0.310579 0)
(0.272996 0.331602 0)
(0.29139 0.354024 0)
(0.311202 0.377897 0)
(0.332562 0.403266 0)
(0.355614 0.430177 0)
(0.380517 0.458669 0)
(0.407449 0.488781 0)
(0.436613 0.520545 0)
(0.468237 0.553982 0)
(0.502586 0.58911 0)
(0.539964 0.625927 0)
(0.580724 0.664416 0)
(0.625276 0.704533 0)
(0.674101 0.746196 0)
(0.727759 0.789267 0)
(0.786914 0.833533 0)
(0.852348 0.878668 0)
(0.924989 0.924189 0)
(1.00594 0.969387 0)
(1.09648 1.01321 0)
(1.19813 1.05415 0)
(1.31255 1.08994 0)
(1.44153 1.11737 0)
(1.58685 1.13168 0)
(1.74886 1.12533 0)
(1.92826 1.09169 0)
(2.12179 1.0111 0)
(2.3026 0.866488 0)
(2.48364 0.68445 0)
(1.75466e-05 0.000868067 0)
(9.91727e-05 0.00269625 0)
(0.000291344 0.00453754 0)
(0.000593911 0.00635058 0)
(0.000985913 0.00810653 0)
(0.00145788 0.00976681 0)
(0.00202767 0.0112771 0)
(0.00269085 0.0126073 0)
(0.00342719 0.0137377 0)
(0.00422287 0.0146534 0)
(0.00506936 0.0153441 0)
(0.00595693 0.0158045 0)
(0.00687362 0.0160407 0)
(0.00780628 0.0160665 0)
(0.00874216 0.0158996 0)
(0.00966991 0.0155627 0)
(0.01058 0.0150857 0)
(0.0114646 0.0145045 0)
(0.0123176 0.0138597 0)
(0.0131351 0.0131944 0)
(0.013916 0.0125528 0)
(0.0146613 0.0119791 0)
(0.0153746 0.0115154 0)
(0.016062 0.0112013 0)
(0.0167315 0.0110727 0)
(0.0173941 0.011162 0)
(0.0180597 0.011496 0)
(0.0187526 0.012098 0)
(0.0194628 0.0129827 0)
(0.0202434 0.0141641 0)
(0.0210993 0.0156505 0)
(0.0220288 0.0174397 0)
(0.0230911 0.0195314 0)
(0.0242565 0.0219099 0)
(0.0256 0.0245707 0)
(0.0270794 0.0274857 0)
(0.0287643 0.0306458 0)
(0.0306351 0.0340213 0)
(0.0327108 0.0375897 0)
(0.0350319 0.0413365 0)
(0.0375468 0.0452207 0)
(0.040346 0.0492489 0)
(0.0433535 0.0533756 0)
(0.0466366 0.0576075 0)
(0.050169 0.0619259 0)
(0.0539633 0.0663254 0)
(0.058012 0.0708044 0)
(0.0623584 0.0753851 0)
(0.0669295 0.0800409 0)
(0.0718321 0.0848449 0)
(0.0769803 0.0897694 0)
(0.0824373 0.0948802 0)
(0.0882038 0.100206 0)
(0.0942482 0.10576 0)
(0.100676 0.111689 0)
(0.107414 0.117926 0)
(0.114542 0.124572 0)
(0.122074 0.131682 0)
(0.130029 0.139313 0)
(0.138442 0.14752 0)
(0.147368 0.156341 0)
(0.156829 0.165935 0)
(0.166848 0.176294 0)
(0.177497 0.187467 0)
(0.18884 0.199524 0)
(0.200934 0.212523 0)
(0.213845 0.226518 0)
(0.227649 0.241562 0)
(0.242426 0.257709 0)
(0.258265 0.275009 0)
(0.275258 0.293509 0)
(0.293506 0.313254 0)
(0.313118 0.334285 0)
(0.334214 0.356641 0)
(0.356919 0.380357 0)
(0.381377 0.405464 0)
(0.407741 0.431988 0)
(0.436184 0.459944 0)
(0.466898 0.48934 0)
(0.5001 0.52017 0)
(0.536037 0.552415 0)
(0.574991 0.586034 0)
(0.617281 0.620959 0)
(0.663277 0.657091 0)
(0.713398 0.69428 0)
(0.768123 0.732311 0)
(0.828001 0.770875 0)
(0.893661 0.80954 0)
(0.965813 0.8477 0)
(1.04526 0.884512 0)
(1.13285 0.918803 0)
(1.22951 0.948963 0)
(1.33609 0.972754 0)
(1.45323 0.987152 0)
(1.58114 0.988081 0)
(1.71875 0.969867 0)
(1.86359 0.926216 0)
(2.01053 0.848561 0)
(2.14683 0.725681 0)
(2.24713 0.560176 0)
(1.96531e-05 0.00081632 0)
(0.000109748 0.00253655 0)
(0.000312265 0.00427627 0)
(0.00063905 0.00597115 0)
(0.000997621 0.00773323 0)
(0.00156091 0.00920962 0)
(0.0021759 0.0106134 0)
(0.00287453 0.0118694 0)
(0.00365815 0.0129376 0)
(0.0045148 0.0137971 0)
(0.00542519 0.0144433 0)
(0.00637583 0.014876 0)
(0.00735832 0.0150927 0)
(0.0083593 0.015108 0)
(0.00936214 0.0149408 0)
(0.0103538 0.0146142 0)
(0.011325 0.0141579 0)
(0.0122682 0.0136067 0)
(0.0131776 0.0129978 0)
(0.0140497 0.0123704 0)
(0.0148836 0.0117657 0)
(0.01568 0.0112256 0)
(0.0164419 0.0107904 0)
(0.0171757 0.0104978 0)
(0.0178902 0.0103816 0)
(0.018597 0.0104717 0)
(0.0193077 0.0107929 0)
(0.0200439 0.0113675 0)
(0.0208067 0.0122065 0)
(0.0216297 0.0133202 0)
(0.0225498 0.0147231 0)
(0.0235375 0.0164091 0)
(0.0246618 0.0183776 0)
(0.0259169 0.0206145 0)
(0.0273234 0.0231099 0)
(0.0289306 0.0258507 0)
(0.0306907 0.0288076 0)
(0.0327206 0.0319802 0)
(0.0349073 0.0353171 0)
(0.0374013 0.0388336 0)
(0.0400874 0.0424728 0)
(0.0430655 0.0462447 0)
(0.0463018 0.05012 0)
(0.0497871 0.0540801 0)
(0.0535889 0.0581402 0)
(0.0576134 0.0622556 0)
(0.0619863 0.0664812 0)
(0.0665632 0.0707444 0)
(0.0715328 0.0751674 0)
(0.0766874 0.0796227 0)
(0.0822495 0.0842924 0)
(0.0880582 0.0890737 0)
(0.0942083 0.0940669 0)
(0.100732 0.0993548 0)
(0.107548 0.104871 0)
(0.114761 0.110729 0)
(0.122391 0.116979 0)
(0.130444 0.123665 0)
(0.138941 0.130845 0)
(0.147892 0.138582 0)
(0.157436 0.146961 0)
(0.167582 0.155923 0)
(0.178259 0.165611 0)
(0.189601 0.176095 0)
(0.201678 0.187413 0)
(0.214543 0.199609 0)
(0.228264 0.212729 0)
(0.242921 0.226818 0)
(0.258601 0.241922 0)
(0.275392 0.258087 0)
(0.293388 0.275356 0)
(0.312691 0.293764 0)
(0.333409 0.313347 0)
(0.355662 0.334131 0)
(0.379575 0.356141 0)
(0.405286 0.379397 0)
(0.432942 0.403909 0)
(0.462704 0.429676 0)
(0.494751 0.456684 0)
(0.529281 0.484904 0)
(0.56652 0.514288 0)
(0.606719 0.54476 0)
(0.650165 0.576216 0)
(0.697173 0.608513 0)
(0.748099 0.641454 0)
(0.803333 0.674772 0)
(0.863304 0.708102 0)
(0.92848 0.740951 0)
(0.999359 0.772661 0)
(1.07645 0.802355 0)
(1.16026 0.828864 0)
(1.25118 0.850651 0)
(1.34945 0.865705 0)
(1.45493 0.871439 0)
(1.56687 0.864618 0)
(1.68337 0.841212 0)
(1.80104 0.796743 0)
(1.91367 0.726586 0)
(2.01372 0.626427 0)
(2.07983 0.495625 0)
(2.05951e-05 0.000760325 0)
(0.000113108 0.00238597 0)
(0.000322899 0.00403073 0)
(0.00063945 0.00565386 0)
(0.00109036 0.0071835 0)
(0.00163349 0.00864489 0)
(0.00230436 0.00994147 0)
(0.00303115 0.0111214 0)
(0.003888 0.0120858 0)
(0.00479697 0.0128798 0)
(0.00576319 0.0134763 0)
(0.00681164 0.0138507 0)
(0.00785141 0.0140516 0)
(0.00890607 0.0140678 0)
(0.00996406 0.0139127 0)
(0.011012 0.0136041 0)
(0.0120405 0.013172 0)
(0.0130399 0.0126506 0)
(0.0140025 0.012076 0)
(0.0149244 0.0114875 0)
(0.0158049 0.0109242 0)
(0.0166453 0.0104235 0)
(0.0174489 0.0100221 0)
(0.018222 0.00975505 0)
(0.018974 0.0096539 0)
(0.0197172 0.00974619 0)
(0.0204669 0.0100545 0)
(0.0212371 0.0105989 0)
(0.0220615 0.0113899 0)
(0.0229074 0.0124349 0)
(0.023878 0.0137475 0)
(0.0249312 0.0153241 0)
(0.0261075 0.017159 0)
(0.0274467 0.0192453 0)
(0.0289226 0.0215652 0)
(0.0306337 0.0241167 0)
(0.032492 0.0268615 0)
(0.0346414 0.0298086 0)
(0.0369685 0.0329071 0)
(0.0395976 0.0361674 0)
(0.0424677 0.0395509 0)
(0.0456066 0.0430454 0)
(0.049058 0.0466511 0)
(0.0527453 0.0503256 0)
(0.0567841 0.0541043 0)
(0.0610491 0.0579282 0)
(0.0656873 0.061865 0)
(0.070539 0.0658276 0)
(0.0758014 0.0699466 0)
(0.0812763 0.0740962 0)
(0.0871593 0.0784383 0)
(0.0933296 0.0828982 0)
(0.0998399 0.0875391 0)
(0.106761 0.0924734 0)
(0.114006 0.0976255 0)
(0.121662 0.103083 0)
(0.129755 0.108903 0)
(0.138303 0.115136 0)
(0.147331 0.121836 0)
(0.156898 0.129059 0)
(0.166943 0.136882 0)
(0.177553 0.145242 0)
(0.188884 0.154276 0)
(0.20091 0.16405 0)
(0.213677 0.174596 0)
(0.227258 0.185954 0)
(0.241727 0.198158 0)
(0.257169 0.211247 0)
(0.273675 0.225262 0)
(0.291337 0.240247 0)
(0.310247 0.256236 0)
(0.330506 0.273258 0)
(0.352224 0.291338 0)
(0.375516 0.310501 0)
(0.400504 0.330765 0)
(0.427322 0.352138 0)
(0.456105 0.374619 0)
(0.487004 0.398192 0)
(0.52018 0.422825 0)
(0.55581 0.448468 0)
(0.594096 0.475048 0)
(0.635256 0.502462 0)
(0.679536 0.530579 0)
(0.727202 0.559228 0)
(0.778541 0.588192 0)
(0.833851 0.617175 0)
(0.893445 0.645787 0)
(0.957642 0.673519 0)
(1.02675 0.699715 0)
(1.10105 0.723528 0)
(1.18071 0.74388 0)
(1.26578 0.759409 0)
(1.35605 0.768421 0)
(1.45088 0.76886 0)
(1.54904 0.758326 0)
(1.64829 0.734119 0)
(1.74519 0.693528 0)
(1.83417 0.634186 0)
(1.90912 0.555294 0)
(1.95742 0.458024 0)
(2.09703e-05 0.000703575 0)
(0.000117963 0.00220919 0)
(0.000334906 0.00375214 0)
(0.000690673 0.00523543 0)
(0.00115569 0.00668508 0)
(0.00174548 0.00801368 0)
(0.00243549 0.00922364 0)
(0.0032241 0.0102898 0)
(0.00411684 0.011183 0)
(0.00505966 0.0119186 0)
(0.00610708 0.0124404 0)
(0.00714558 0.0128092 0)
(0.00827229 0.012972 0)
(0.00936385 0.0129884 0)
(0.0105039 0.0128279 0)
(0.0116091 0.012536 0)
(0.0126873 0.0121346 0)
(0.0137364 0.0116513 0)
(0.0147497 0.0111148 0)
(0.0157225 0.0105648 0)
(0.0166509 0.0100415 0)
(0.0175348 0.00958037 0)
(0.0183792 0.00921402 0)
(0.0191921 0.00897323 0)
(0.0199838 0.00888661 0)
(0.0207663 0.00897942 0)
(0.0215554 0.00927277 0)
(0.0223638 0.00978308 0)
(0.023227 0.0105236 0)
(0.0241179 0.0114963 0)
(0.0251343 0.0127115 0)
(0.0262408 0.014172 0)
(0.0274708 0.0158677 0)
(0.0288736 0.0177931 0)
(0.0304247 0.0199301 0)
(0.0322138 0.0222777 0)
(0.0341784 0.0248024 0)
(0.0364202 0.0275066 0)
(0.0388887 0.0303568 0)
(0.0416356 0.033345 0)
(0.0446675 0.0364558 0)
(0.0479741 0.0396662 0)
(0.0515904 0.0429745 0)
(0.0555016 0.0463652 0)
(0.0597202 0.049831 0)
(0.064237 0.0533647 0)
(0.0690997 0.0569888 0)
(0.0742078 0.0606364 0)
(0.0797463 0.0644417 0)
(0.0855043 0.0682573 0)
(0.091697 0.072264 0)
(0.0981962 0.0763757 0)
(0.105052 0.0806509 0)
(0.112339 0.085204 0)
(0.119979 0.0899535 0)
(0.128053 0.0949831 0)
(0.136586 0.100351 0)
(0.145593 0.106107 0)
(0.155099 0.112295 0)
(0.165137 0.118952 0)
(0.175731 0.126099 0)
(0.186941 0.133874 0)
(0.198839 0.142271 0)
(0.211457 0.151323 0)
(0.224847 0.161078 0)
(0.239074 0.171572 0)
(0.254213 0.182828 0)
(0.27036 0.194876 0)
(0.287614 0.207763 0)
(0.306065 0.221532 0)
(0.325799 0.236212 0)
(0.346917 0.25182 0)
(0.369529 0.268369 0)
(0.393751 0.285877 0)
(0.4197 0.304357 0)
(0.447496 0.323815 0)
(0.477263 0.344244 0)
(0.509134 0.365619 0)
(0.543253 0.387898 0)
(0.579774 0.411014 0)
(0.618873 0.434874 0)
(0.660731 0.459356 0)
(0.705561 0.484305 0)
(0.753589 0.50954 0)
(0.805035 0.534833 0)
(0.860107 0.559884 0)
(0.91901 0.584306 0)
(0.981932 0.607613 0)
(1.04902 0.629191 0)
(1.12035 0.648275 0)
(1.19589 0.663919 0)
(1.27541 0.674974 0)
(1.35843 0.680086 0)
(1.44408 0.677712 0)
(1.53092 0.666186 0)
(1.61677 0.643834 0)
(1.69851 0.609258 0)
(1.77169 0.561607 0)
(1.8313 0.501545 0)
(1.86975 0.431369 0)
(2.23e-05 0.000642469 0)
(0.000122969 0.00203745 0)
(0.000354346 0.00345436 0)
(0.000726713 0.00482641 0)
(0.00121999 0.00614274 0)
(0.00183588 0.00736099 0)
(0.0025596 0.00846649 0)
(0.00339254 0.00943161 0)
(0.00431311 0.0102485 0)
(0.00531229 0.0109001 0)
(0.00638548 0.0113782 0)
(0.00748261 0.0116992 0)
(0.00865087 0.0118372 0)
(0.00978973 0.0118413 0)
(0.0109766 0.0116825 0)
(0.0121317 0.011409 0)
(0.0132521 0.0110411 0)
(0.0143834 0.0105847 0)
(0.0154271 0.0100975 0)
(0.0164418 0.00959434 0)
(0.0174154 0.00911602 0)
(0.0183436 0.00869674 0)
(0.0192315 0.00836725 0)
(0.0200881 0.00815363 0)
(0.0209231 0.00808333 0)
(0.0217476 0.00817837 0)
(0.0225766 0.00845932 0)
(0.0234236 0.00893805 0)
(0.0243209 0.00962921 0)
(0.025266 0.0105306 0)
(0.0262959 0.011646 0)
(0.0274574 0.0129825 0)
(0.0287427 0.0145334 0)
(0.0301958 0.0162883 0)
(0.0318201 0.0182345 0)
(0.0336722 0.0203647 0)
(0.0357331 0.0226583 0)
(0.0380593 0.0251062 0)
(0.040642 0.0276905 0)
(0.0435129 0.0303979 0)
(0.0466676 0.0332124 0)
(0.0501445 0.03613 0)
(0.0539013 0.0391217 0)
(0.0580152 0.0422107 0)
(0.0624108 0.0453551 0)
(0.0671435 0.0485752 0)
(0.0722228 0.051879 0)
(0.0775586 0.0551895 0)
(0.0833466 0.0586572 0)
(0.0893715 0.0621271 0)
(0.0958415 0.0657763 0)
(0.102643 0.0695227 0)
(0.109817 0.0734221 0)
(0.117441 0.077574 0)
(0.125443 0.0819053 0)
(0.133905 0.0864831 0)
(0.142853 0.0913725 0)
(0.152297 0.0966293 0)
(0.16225 0.102296 0)
(0.172748 0.108395 0)
(0.183837 0.114971 0)
(0.195569 0.122086 0)
(0.208007 0.129774 0)
(0.221184 0.138066 0)
(0.235151 0.147007 0)
(0.249967 0.156619 0)
(0.265706 0.1669 0)
(0.282486 0.177858 0)
(0.300419 0.189566 0)
(0.319585 0.202069 0)
(0.340058 0.215393 0)
(0.361931 0.22954 0)
(0.38532 0.244531 0)
(0.410344 0.260373 0)
(0.43712 0.27708 0)
(0.465762 0.294644 0)
(0.496378 0.313056 0)
(0.529083 0.332277 0)
(0.563996 0.352263 0)
(0.601244 0.372927 0)
(0.640966 0.394167 0)
(0.683319 0.415831 0)
(0.728487 0.437768 0)
(0.776656 0.459804 0)
(0.827984 0.48173 0)
(0.882605 0.503239 0)
(0.940633 0.523964 0)
(1.00215 0.543451 0)
(1.06719 0.56117 0)
(1.13565 0.576455 0)
(1.20735 0.58853 0)
(1.28189 0.596458 0)
(1.35865 0.599212 0)
(1.43668 0.595673 0)
(1.51459 0.584773 0)
(1.59038 0.565573 0)
(1.66145 0.537556 0)
(1.72437 0.500787 0)
(1.77533 0.456597 0)
(1.80951 0.407616 0)
(2.31548e-05 0.000579909 0)
(0.000127206 0.00185515 0)
(0.000369371 0.00314313 0)
(0.000756283 0.00438827 0)
(0.00127204 0.00557546 0)
(0.00191363 0.00667436 0)
(0.00266614 0.00767125 0)
(0.00353657 0.00853445 0)
(0.0044872 0.00926816 0)
(0.00553482 0.00984198 0)
(0.00663231 0.010272 0)
(0.00778994 0.0105435 0)
(0.00898099 0.010666 0)
(0.0101757 0.0106543 0)
(0.0114048 0.0104996 0)
(0.0125818 0.0102499 0)
(0.0137892 0.00989288 0)
(0.014912 0.00948518 0)
(0.0160444 0.00903001 0)
(0.0170922 0.00857919 0)
(0.0181115 0.00814372 0)
(0.0190891 0.00776375 0)
(0.0200235 0.00746694 0)
(0.0209229 0.00728182 0)
(0.0217981 0.00722744 0)
(0.0226615 0.00732764 0)
(0.0235266 0.00759413 0)
(0.0244121 0.00804154 0)
(0.0253354 0.00867642 0)
(0.0263369 0.00950653 0)
(0.0273895 0.0105207 0)
(0.0285872 0.0117305 0)
(0.0299143 0.0131283 0)
(0.0314111 0.0147094 0)
(0.0330883 0.0164545 0)
(0.0350005 0.0183634 0)
(0.0371307 0.0204114 0)
(0.0395416 0.0226 0)
(0.0422103 0.0249004 0)
(0.0452004 0.0273214 0)
(0.0484619 0.0298223 0)
(0.0520868 0.0324345 0)
(0.055987 0.0351003 0)
(0.0602623 0.0378677 0)
(0.0648522 0.0406945 0)
(0.0697443 0.0435782 0)
(0.0750515 0.0465767 0)
(0.0805586 0.049527 0)
(0.0865832 0.052647 0)
(0.0928513 0.0557511 0)
(0.099576 0.059014 0)
(0.10666 0.0623779 0)
(0.114124 0.0658606 0)
(0.122056 0.0695884 0)
(0.130386 0.0734735 0)
(0.139199 0.0775903 0)
(0.148537 0.0819906 0)
(0.158398 0.0867351 0)
(0.168775 0.0918387 0)
(0.179707 0.0973411 0)
(0.191257 0.103279 0)
(0.203478 0.109716 0)
(0.216412 0.116669 0)
(0.230107 0.124185 0)
(0.244609 0.132299 0)
(0.25994 0.141033 0)
(0.276173 0.150317 0)
(0.293483 0.160182 0)
(0.312017 0.170706 0)
(0.331824 0.181952 0)
(0.352953 0.193902 0)
(0.375504 0.206565 0)
(0.399599 0.219933 0)
(0.425353 0.234041 0)
(0.45287 0.248889 0)
(0.482251 0.264506 0)
(0.513593 0.280865 0)
(0.546993 0.297956 0)
(0.582545 0.315698 0)
(0.620348 0.334025 0)
(0.660503 0.35279 0)
(0.703148 0.371814 0)
(0.748469 0.390903 0)
(0.79663 0.409962 0)
(0.847707 0.428803 0)
(0.901747 0.447175 0)
(0.958797 0.464706 0)
(1.01887 0.481023 0)
(1.0819 0.495638 0)
(1.14771 0.508035 0)
(1.21597 0.517539 0)
(1.28621 0.523455 0)
(1.35774 0.524982 0)
(1.42965 0.521403 0)
(1.50068 0.512037 0)
(1.56917 0.496533 0)
(1.633 0.474841 0)
(1.68964 0.447566 0)
(1.73633 0.41617 0)
(1.77014 0.383283 0)
(2.39114e-05 0.000516303 0)
(0.000131147 0.0016653 0)
(0.00038192 0.00282014 0)
(0.000779479 0.00393527 0)
(0.0013193 0.00498397 0)
(0.00197683 0.00596558 0)
(0.00276577 0.00684103 0)
(0.00365292 0.00761276 0)
(0.00464925 0.00824825 0)
(0.00571562 0.0087558 0)
(0.00685824 0.00912091 0)
(0.00804975 0.00935026 0)
(0.00927132 0.00944822 0)
(0.0105208 0.00941485 0)
(0.0117565 0.00927456 0)
(0.0130109 0.00902668 0)
(0.0142101 0.0087125 0)
(0.0154222 0.00833022 0)
(0.0165488 0.00792919 0)
(0.0176812 0.00751399 0)
(0.0187306 0.00712845 0)
(0.0197521 0.00679042 0)
(0.0207339 0.00653215 0)
(0.0216775 0.0063767 0)
(0.0225947 0.00634578 0)
(0.0234965 0.00645534 0)
(0.0243972 0.00671744 0)
(0.0253157 0.00713658 0)
(0.026272 0.00772109 0)
(0.0273033 0.00847632 0)
(0.0283856 0.00939452 0)
(0.0296185 0.0104729 0)
(0.0309815 0.0117171 0)
(0.0325165 0.0131157 0)
(0.0342321 0.0146565 0)
(0.036198 0.0163315 0)
(0.038378 0.0181237 0)
(0.040869 0.0200357 0)
(0.043602 0.0220399 0)
(0.046699 0.0241557 0)
(0.0500552 0.0263337 0)
(0.0538029 0.0286104 0)
(0.05785 0.0309433 0)
(0.0622555 0.0333509 0)
(0.0670395 0.0358554 0)
(0.0720879 0.038386 0)
(0.0775739 0.0410486 0)
(0.0832495 0.0436352 0)
(0.089442 0.046383 0)
(0.0959437 0.0491354 0)
(0.102878 0.0520003 0)
(0.110211 0.0549767 0)
(0.117964 0.0580809 0)
(0.126119 0.0612872 0)
(0.134796 0.0646813 0)
(0.143953 0.0682567 0)
(0.153659 0.0721839 0)
(0.16389 0.0764665 0)