/*--------------------------------*- C++ -*----------------------------------*\
| =========                 |                                                 |
| \\      /  F ield         | OpenFOAM: The Open Source CFD Toolbox           |
|  \\    /   O peration     | Version:  2206                                  |
|   \\  /    A nd           | Website:  www.openfoam.com                      |
|    \\/     M anipulation  |                                                 |
\*---------------------------------------------------------------------------*/
FoamFile
{
    version     2.0;
    format      ascii;
    arch        "LSB;label=32;scalar=64";
    class       surfaceScalarField;
    location    "19.2999";
    object      ddtCorrDdt0(phi);
}
// * * * * * * * * * * * * * * * * * * * * * * * * * * * * * * * * * * * * * //

dimensions      [0 3 -2 0 0 0 0];

oriented        oriented;

internalField   nonuniform List<scalar> 
5893
(
0.000228098
-3.1092e-05
0.00022497
3.12789e-06
0.000179562
4.54084e-05
9.17424e-05
8.78193e-05
-2.83428e-05
0.000120085
-0.000119955
9.16127e-05
-0.000201794
8.18385e-05
-0.00025072
4.89265e-05
-0.000257997
7.27625e-06
-0.000235063
-2.2934e-05
-0.000191092
-4.3971e-05
-0.000129324
-6.17675e-05
-5.60759e-05
-7.32483e-05
2.11339e-05
-7.72098e-05
9.77669e-05
-7.6633e-05
0.000151713
-5.39456e-05
0.000194838
-4.31251e-05
0.000210938
-1.61006e-05
0.000190158
2.07797e-05
0.00014905
4.1108e-05
0.000103705
4.53449e-05
5.02007e-05
5.35048e-05
-5.44212e-06
5.56428e-05
-5.6091e-05
5.06489e-05
-9.2145e-05
3.6054e-05
-0.000113412
2.12667e-05
-0.000124746
1.13342e-05
-0.000128571
3.8251e-06
-0.000123461
-5.1098e-06
-0.000109625
-1.38367e-05
-8.91378e-05
-2.04867e-05
-6.42097e-05
-2.49281e-05
-3.69387e-05
-2.7271e-05
-9.40468e-06
-2.7534e-05
1.64309e-05
-2.58356e-05
3.88477e-05
-2.24168e-05
5.6191e-05
-1.73433e-05
6.62178e-05
-1.00268e-05
7.0782e-05
-4.56422e-06
7.13715e-05
-5.89539e-07
6.84961e-05
2.87542e-06
6.18656e-05
6.6305e-06
4.90169e-05
1.28487e-05
3.33737e-05
1.56432e-05
1.7922e-05
1.54517e-05
4.56982e-06
1.33522e-05
-5.33537e-06
9.90519e-06
-1.075e-05
5.41461e-06
-1.07329e-05
-1.71175e-08
-4.18551e-06
-6.54735e-06
1.05673e-05
-1.47528e-05
3.63929e-05
-2.58256e-05
8.25699e-05
-4.6177e-05
-7.24117e-05
0.000154982
0.000195298
-5.72659e-05
0.000192947
5.47864e-06
0.000144912
9.34436e-05
4.43696e-05
0.000188362
-1.99256e-05
0.00018438
-0.000119569
0.000191256
-0.000170031
0.0001323
-0.00018432
6.32157e-05
-0.00017866
1.616e-06
-0.000159043
-4.25506e-05
-0.000125616
-7.73982e-05
-8.18655e-05
-0.000105518
-3.0353e-05
-0.000124761
2.45228e-05
-0.000132086
7.18011e-05
-0.000123911
0.000114726
-9.68705e-05
0.000129546
-5.79445e-05
0.000136767
-2.33215e-05
0.00013499
2.2556e-05
0.000118731
5.73677e-05
8.44008e-05
7.96747e-05
4.48426e-05
9.30631e-05
5.95374e-06
9.45316e-05
-2.88015e-05
8.54041e-05
-5.88594e-05
6.6112e-05
-7.8503e-05
4.09103e-05
-8.95876e-05
2.24188e-05
-9.45357e-05
8.77319e-06
-9.37955e-05
-5.85004e-06
-8.90214e-05
-1.86108e-05
-8.0498e-05
-2.901e-05
-6.84823e-05
-3.69438e-05
-5.34114e-05
-4.2342e-05
-3.59237e-05
-4.50217e-05
-1.69533e-05
-4.4806e-05
2.14669e-06
-4.15168e-05
1.94786e-05
-3.46752e-05
3.37319e-05
-2.42801e-05
4.46968e-05
-1.55291e-05
5.21287e-05
-8.02143e-06
5.56732e-05
-6.69081e-07
5.5024e-05
7.27973e-06
5.04388e-05
1.74339e-05
4.26585e-05
2.34235e-05
3.31699e-05
2.49403e-05
2.35909e-05
2.29312e-05
1.53454e-05
1.81507e-05
9.6035e-06
1.11566e-05
7.35572e-06
2.23066e-06
9.50239e-06
-8.69401e-06
1.68672e-05
-2.21176e-05
3.03737e-05
-3.93321e-05
4.82276e-05
-6.4031e-05
-8.96041e-05
6.542e-05
5.70107e-05
-6.94934e-05
4.87128e-05
1.37765e-05
2.56555e-05
0.000116501
-3.34372e-06
0.000217361
-7.14716e-05
0.000252508
-0.000105885
0.00022567
-0.000117497
0.000143912
-0.000104236
4.99544e-05
-8.07822e-05
-2.18377e-05
-5.86359e-05
-6.46969e-05
-3.241e-05
-0.000103624
-5.58217e-06
-0.000132346
1.68329e-05
-0.000147176
3.368e-05
-0.000148933
4.22791e-05
-0.00013251
4.64902e-05
-0.000101082
4.99969e-05
-6.14512e-05
4.69879e-05
-2.03125e-05
4.75581e-05
2.19858e-05
4.79837e-05
5.69421e-05
4.39732e-05
8.36851e-05
3.73019e-05
9.97344e-05
2.91714e-05
0.000102662
1.90934e-05
9.54821e-05
7.90596e-06
7.72994e-05
1.82728e-06
4.6989e-05
-6.53685e-06
3.07829e-05
-1.57933e-05
1.80296e-05
-2.08413e-05
-8.01978e-07
-2.34956e-05
-1.59565e-05
-2.45874e-05
-2.79183e-05
-2.45286e-05
-3.70026e-05
-2.36459e-05
-4.32247e-05
-2.23881e-05
-4.62795e-05
-2.14465e-05
-4.57476e-05
-2.05922e-05
-4.23711e-05
-1.88878e-05
-3.63796e-05
-1.47348e-05
-2.84331e-05
-1.0153e-05
-2.0111e-05
-6.60545e-06
-1.15689e-05
-4.59242e-06
-2.68212e-06
-3.50744e-06
6.19475e-06
-5.83778e-07
1.45102e-05
2.85852e-06
1.99812e-05
5.9388e-06
2.18601e-05
8.44107e-06
2.04289e-05
1.05405e-05
1.60512e-05
1.26627e-05
9.03444e-06
1.52045e-05
-3.11184e-07
1.84935e-05
-1.1983e-05
2.26501e-05
-2.62741e-05
2.71283e-05
-4.38104e-05
2.93135e-05
-6.62162e-05
-8.75497e-05
2.72591e-05
-3.50164e-05
-1.36434e-05
-8.62859e-05
6.5046e-05
-0.000114414
0.000144629
-0.000123332
0.000226279
-0.000113028
0.000242203
-8.3861e-05
0.000196503
-6.11448e-05
0.000121196
-4.64498e-05
3.52595e-05
-3.74051e-05
-3.08825e-05
-3.67809e-05
-6.53211e-05
-3.24995e-05
-0.000107905
-3.06589e-05
-0.000134186
-3.23235e-05
-0.000145511
-3.56406e-05
-0.000145616
-3.80072e-05
-0.000130144
-3.76658e-05
-0.000101423
-3.43526e-05
-6.47645e-05
-2.92256e-05
-2.54395e-05
-1.92611e-05
1.20213e-05
-6.90396e-06
4.4585e-05
3.67879e-06
7.31024e-05
1.31822e-05
9.0231e-05
2.29952e-05
9.28491e-05
3.24121e-05
8.60652e-05
3.5359e-05
7.43526e-05
3.31812e-05
4.91668e-05
3.05874e-05
3.33767e-05
2.56052e-05
2.30118e-05
2.09007e-05
3.90259e-06
1.56588e-05
-1.07147e-05
1.03325e-05
-2.2592e-05
4.85244e-06
-3.15225e-05
-7.51801e-07
-3.76204e-05
-5.93796e-06
-4.10934e-05
-1.05142e-05
-4.11714e-05
-1.44926e-05
-3.83927e-05
-1.74863e-05
-3.33858e-05
-1.91918e-05
-2.67276e-05
-2.01425e-05
-1.91603e-05
-2.04618e-05
-1.12496e-05
-2.00015e-05
-3.14244e-06
-1.84244e-05
4.61764e-06
-1.52191e-05
1.13049e-05
-1.09304e-05
1.56925e-05
-6.10588e-06
1.70356e-05
-1.14985e-06
1.54729e-05
3.57349e-06
1.13279e-05
7.76287e-06
4.84506e-06
1.12327e-05
-3.78098e-06
1.37909e-05
-1.45413e-05
1.50205e-05
-2.75037e-05
1.40574e-05
-4.28473e-05
8.74686e-06
-6.09056e-05
-7.72948e-05
-1.50807e-06
-6.58929e-05
2.14201e-05
-8.68493e-05
8.60025e-05
-9.44661e-05
0.000152246
-6.25139e-05
0.000194327
-1.70125e-05
0.000196702
2.50533e-05
0.000154437
4.63269e-05
9.99227e-05
5.07424e-05
3.08441e-05
4.66055e-05
-2.67456e-05
3.81574e-05
-5.6873e-05
2.42149e-05
-9.39629e-05
5.1568e-06
-0.000115128
-1.62368e-05
-0.000124118
-3.88842e-05
-0.000122968
-5.92981e-05
-0.00010973
-7.42562e-05
-8.6465e-05
-8.15728e-05
-5.74479e-05
-8.10451e-05
-2.59672e-05
-7.39007e-05
4.87691e-06
-6.26068e-05
3.32911e-05
-4.73655e-05
5.78611e-05
-2.74781e-05
7.03436e-05
-6.68562e-06
7.20566e-05
1.08558e-05
6.85237e-05
2.48544e-05
6.0354e-05
2.90335e-05
4.49877e-05
3.08989e-05
3.15113e-05
3.2642e-05
2.12687e-05
3.06612e-05
5.88338e-06
2.66098e-05
-6.66323e-06
2.10723e-05
-1.70545e-05
1.45302e-05
-2.49804e-05
7.20908e-06
-3.02993e-05
-6.2458e-07
-3.32597e-05
-7.99374e-06
-3.38022e-05
-1.46171e-05
-3.17693e-05
-2.02189e-05
-2.7784e-05
-2.42495e-05
-2.2697e-05
-2.67287e-05
-1.66812e-05
-2.77708e-05
-1.02075e-05
-2.73418e-05
-3.57151e-06
-2.51991e-05
2.47501e-06
-2.11775e-05
7.28324e-06
-1.578e-05
1.02951e-05
-9.85024e-06
1.11058e-05
-4.09622e-06
9.71883e-06
9.36215e-07
6.29542e-06
4.84952e-06
9.31759e-07
7.37568e-06
-6.30714e-06
8.12774e-06
-1.52933e-05
6.6556e-06
-2.60316e-05
2.10879e-06
-3.83005e-05
-7.0768e-06
-5.172e-05
-6.39076e-05
-2.0464e-05
-0.000101934
3.40571e-05
-9.41182e-05
7.81862e-05
-6.4074e-05
0.000122202
-1.63049e-05
0.000146558
3.57913e-05
0.000144606
7.30293e-05
0.000117199
9.47535e-05
7.81984e-05
9.50517e-05
3.05459e-05
8.20879e-05
-1.37819e-05
7.11731e-05
-4.59582e-05
4.96799e-05
-7.24697e-05
2.42258e-05
-8.96743e-05
-2.92066e-06
-9.69712e-05
-2.90179e-05
-9.68709e-05
-5.12265e-05
-8.75214e-05
-6.84731e-05
-6.92184e-05
-7.90343e-05
-4.68866e-05
-8.24187e-05
-2.25829e-05
-7.90134e-05
1.47163e-06
-6.82481e-05
2.25259e-05
-5.05016e-05
4.01145e-05
-2.99831e-05
4.98251e-05
-1.1602e-05
5.36755e-05
3.88225e-06
5.30394e-05
1.652e-05
4.77163e-05
2.30522e-05
3.84554e-05
2.67753e-05
2.77882e-05
3.03705e-05
1.76735e-05
2.93724e-05
6.8815e-06
2.60642e-05
-3.35502e-06
2.08829e-05
-1.18733e-05
1.4323e-05
-1.84204e-05
7.03836e-06
-2.30147e-05
-6.10746e-07
-2.56106e-05
-8.0684e-06
-2.63446e-05
-1.45969e-05
-2.52407e-05
-2.04779e-05
-2.19031e-05
-2.50401e-05
-1.81348e-05
-2.75101e-05
-1.42112e-05
-2.82967e-05
-9.42089e-06
-2.73485e-05
-4.51964e-06
-2.47677e-05
-1.05797e-07
-2.09357e-05
3.45121e-06
-1.64061e-05
5.76549e-06
-1.18081e-05
6.50778e-06
-7.64438e-06
5.55509e-06
-4.24932e-06
2.90036e-06
-1.88226e-06
-1.4353e-06
-8.00773e-07
-7.38863e-06
-1.41507e-06
-1.4679e-05
-4.07848e-06
-2.33682e-05
-9.7503e-06
-3.26287e-05
-1.93678e-05
-4.21025e-05
-5.12894e-05
-3.1986e-05
-8.55391e-05
2.89855e-05
-6.69624e-05
5.96095e-05
-3.45825e-05
8.98218e-05
6.13151e-06
0.000105844
4.32049e-05
0.000107532
6.78598e-05
9.25443e-05
8.55984e-05
6.04598e-05
9.04255e-05
2.57189e-05
8.28191e-05
-6.17554e-06
6.89834e-05
-3.21225e-05
4.92232e-05
-5.27095e-05
2.61424e-05
-6.65935e-05
1.93276e-06
-7.27616e-05
-2.15867e-05
-7.33515e-05
-4.10589e-05
-6.80492e-05
-5.60068e-05
-5.42705e-05
-6.73195e-05
-3.55739e-05
-7.0411e-05
-1.94914e-05
-6.52303e-05
-3.70914e-06
-5.53187e-05
1.26143e-05
-4.17655e-05
2.65613e-05
-2.7235e-05
3.52946e-05
-1.43256e-05
4.07662e-05
-3.36147e-06
4.20753e-05
5.66821e-06
3.86866e-05
1.29478e-05
3.11758e-05
1.83105e-05
2.24255e-05
2.14506e-05
1.45333e-05
2.18462e-05
6.486e-06
2.00026e-05
-1.51144e-06
1.6115e-05
-7.98577e-06
1.09268e-05
-1.32322e-05
5.0877e-06
-1.71756e-05
-9.14873e-07
-1.96081e-05
-7.07864e-06
-2.01808e-05
-1.29125e-05
-1.94069e-05
-1.69432e-05
-1.78724e-05
-2.00555e-05
-1.50225e-05
-2.29493e-05
-1.13174e-05
-2.44965e-05
-7.87368e-06
-2.45562e-05
-4.45995e-06
-2.34007e-05
-1.26125e-06
-2.12541e-05
1.30464e-06
-1.84158e-05
2.92715e-06
-1.53094e-05
3.40132e-06
-1.23326e-05
2.57838e-06
-9.76448e-06
3.32195e-07
-7.83314e-06
-3.36664e-06
-6.89102e-06
-8.33075e-06
-7.26369e-06
-1.43064e-05
-1.00941e-05
-2.05378e-05
-1.55084e-05
-2.72144e-05
-2.3721e-05
-3.38899e-05
-3.93456e-05
-3.56647e-05
-7.20786e-05
2.62952e-05
-5.87529e-05
4.62837e-05
-3.23553e-05
6.34242e-05
-3.27488e-06
7.67634e-05
2.67587e-05
7.74988e-05
5.31266e-05
6.61764e-05
6.74486e-05
4.61379e-05
7.13229e-05
2.18445e-05
6.69178e-05
-1.77041e-06
5.64159e-05
-2.16206e-05
4.10894e-05
-3.73829e-05
2.31084e-05
-4.86126e-05
4.64051e-06
-5.42937e-05
-1.39772e-05
-5.47337e-05
-3.09701e-05
-5.10563e-05
-4.19647e-05
-4.32759e-05
-4.72771e-05
-3.02615e-05
-5.15377e-05
-1.52308e-05
-5.28101e-05
-2.43674e-06
-4.69662e-05
6.77045e-06
-3.78234e-05
1.74184e-05
-2.86164e-05
2.60875e-05
-1.80409e-05
3.01907e-05
-7.02001e-06
3.10544e-05
2.34756e-06
2.9319e-05
8.76383e-06
2.47595e-05
1.26578e-05
1.85316e-05
1.49412e-05
1.22498e-05
1.5454e-05
5.97324e-06
1.41112e-05
-1.68615e-07
1.14899e-05
-5.36445e-06
7.81327e-06
-9.55559e-06
3.48576e-06
-1.28481e-05
-1.22341e-06
-1.48989e-05
-5.85606e-06
-1.55481e-05
-1.00188e-05
-1.52442e-05
-1.40082e-05
-1.38829e-05
-1.72698e-05
-1.1761e-05
-1.92776e-05
-9.30958e-06
-2.05773e-05
-6.57398e-06
-2.10549e-05
-3.98237e-06
-2.06808e-05
-1.63533e-06
-1.96028e-05
2.26615e-07
-1.80124e-05
1.33685e-06
-1.61434e-05
1.53231e-06
-1.42863e-05
7.21215e-07
-1.28002e-05
-1.15389e-06
-1.20944e-05
-4.07244e-06
-1.25538e-05
-7.87139e-06
-1.4555e-05
-1.23051e-05
-1.80725e-05
-1.70202e-05
-2.36323e-05
-2.16546e-05
-3.16544e-05
-2.58678e-05
-2.90646e-05
-4.19354e-05
-5.27226e-05
2.13088e-05
-4.22371e-05
3.57982e-05
-2.61197e-05
4.73069e-05
-3.87233e-06
5.4516e-05
1.81056e-05
5.55209e-05
3.59384e-05
4.83436e-05
4.77871e-05
3.42892e-05
5.2103e-05
1.75286e-05
4.97153e-05
6.17296e-07
4.24321e-05
-1.43374e-05
3.15612e-05
-2.65121e-05
1.83536e-05
-3.5405e-05
4.22611e-06
-4.01662e-05
-9.79132e-06
-4.07163e-05
-2.26264e-05
-3.82213e-05
-3.25253e-05
-3.3377e-05
-3.77847e-05
-2.50021e-05
-3.96067e-05
-1.34088e-05
-3.94716e-05
-2.57188e-06
-3.75393e-05
4.83814e-06
-3.22386e-05
1.21178e-05
-2.45489e-05
1.83978e-05
-1.65811e-05
2.2223e-05
-8.79014e-06
2.32634e-05
-1.60008e-06
2.2129e-05
4.04633e-06
1.91131e-05
7.75559e-06
1.48224e-05
9.8684e-06
1.0137e-05
1.04534e-05
5.38828e-06
9.62259e-06
6.62152e-07
7.7763e-06
-3.51816e-06
5.09269e-06
-6.87199e-06
1.85849e-06
-9.6139e-06
-1.72299e-06
-1.13174e-05
-5.458e-06
-1.18131e-05
-8.82505e-06
-1.18771e-05
-1.18498e-05
-1.08581e-05
-1.46546e-05
-8.95616e-06
-1.67112e-05
-7.25298e-06
-1.81072e-05
-5.17801e-06
-1.88998e-05
-3.18973e-06
-1.91062e-05
-1.42901e-06
-1.88083e-05
-7.12438e-08
-1.81419e-05
6.70432e-07
-1.72752e-05
6.65616e-07
-1.6416e-05
-1.37939e-07
-1.58249e-05
-1.74501e-06
-1.58017e-05
-4.09566e-06
-1.66399e-05
-7.03324e-06
-1.86055e-05
-1.03395e-05
-2.19145e-05
-1.37113e-05
-2.68329e-05
-1.67363e-05
-3.36019e-05
-1.90988e-05
-2.03561e-05
-4.23105e-05
-4.02056e-05
1.72827e-05
-3.16964e-05
2.7289e-05
-1.94703e-05
3.50808e-05
-4.50443e-06
3.95501e-05
1.11912e-05
3.98252e-05
2.44084e-05
3.51265e-05
3.31609e-05
2.55366e-05
3.68941e-05
1.37954e-05
3.59051e-05
1.60629e-06
3.11615e-05
-9.59381e-06
2.3596e-05
-1.89465e-05
1.39824e-05
-2.57914e-05
3.38894e-06
-2.95727e-05
-6.85562e-06
-3.04717e-05
-1.59467e-05
-2.91302e-05
-2.36879e-05
-2.56358e-05
-2.92267e-05
-1.94632e-05
-3.16899e-05
-1.09456e-05
-3.16944e-05
-2.56737e-06
-2.9887e-05
3.03076e-06
-2.63794e-05
8.61019e-06
-2.12097e-05
1.32281e-05
-1.52324e-05
1.62457e-05
-9.31401e-06
1.7345e-05
-3.96214e-06
1.67771e-05
3.24431e-07
1.48266e-05
3.31542e-06
1.18314e-05
5.14602e-06
8.30641e-06
5.88538e-06
4.64893e-06
5.63486e-06
9.12668e-07
4.50137e-06
-2.38467e-06
2.63489e-06
-5.0055e-06
2.71482e-07
-7.25049e-06
-2.35336e-06
-8.69256e-06
-5.22015e-06
-8.94633e-06
-8.00872e-06
-9.08855e-06
-1.03392e-05
-8.52763e-06
-1.27014e-05
-6.59398e-06
-1.46507e-05
-5.30373e-06
-1.61277e-05
-3.70101e-06
-1.71641e-05
-2.15332e-06
-1.77978e-05
-7.95284e-07
-1.80884e-05
2.1934e-07
-1.81321e-05
7.14139e-07
-1.80606e-05
5.94122e-07
-1.80301e-05
-1.68481e-07
-1.82161e-05
-1.55901e-06
-1.8811e-05
-3.50076e-06
-2.00074e-05
-5.83682e-06
-2.19752e-05
-8.37164e-06
-2.49401e-05
-1.07463e-05
-2.91051e-05
-1.25713e-05
-3.46518e-05
-1.3552e-05
-1.33038e-05
-4.17041e-05
-3.08118e-05
1.38769e-05
-2.43415e-05
2.08187e-05
-1.54046e-05
2.61438e-05
-4.80828e-06
2.89538e-05
6.04636e-06
2.89706e-05
1.54902e-05
2.56826e-05
2.20132e-05
1.90137e-05
2.5182e-05
1.06267e-05
2.50429e-05
1.7454e-06
2.20548e-05
-6.60574e-06
1.67885e-05
-1.36803e-05
9.91232e-06
-1.89152e-05
2.37153e-06
-2.20319e-05
-4.95924e-06
-2.3141e-05
-1.17063e-05
-2.23831e-05
-1.77728e-05
-1.95693e-05
-2.26948e-05
-1.45413e-05
-2.5498e-05
-8.14243e-06
-2.55727e-05
-2.49264e-06
-2.42647e-05
1.72282e-06
-2.17608e-05
6.10619e-06
-1.82187e-05
9.68596e-06
-1.40417e-05
1.20687e-05
-9.78885e-06
1.30922e-05
-5.83365e-06
1.28219e-05
-2.46797e-06
1.14609e-05
9.65478e-08
9.26685e-06
1.81024e-06
6.59272e-06
2.68177e-06
3.77741e-06
2.75893e-06
8.35506e-07
2.10321e-06
-1.72895e-06
8.33995e-07
-3.73629e-06
-8.62252e-07
-5.55424e-06
-2.83544e-06
-6.71938e-06
-5.04271e-06
-6.73907e-06
-7.40988e-06
-6.72138e-06
-9.39258e-06
-6.54492e-06
-1.12189e-05
-4.76767e-06
-1.30221e-05
-3.50057e-06
-1.45844e-05
-2.13865e-06
-1.58613e-05
-8.76441e-07
-1.68931e-05
2.36538e-07
-1.77068e-05
1.03301e-06
-1.83529e-05
1.36026e-06
-1.891e-05
1.1512e-06
-1.94737e-05
3.95251e-07
-2.01575e-05
-8.75209e-07
-2.10949e-05
-2.56337e-06
-2.24149e-05
-4.51684e-06
-2.42151e-05
-6.57139e-06
-2.67101e-05
-8.25143e-06
-3.00709e-05
-9.21048e-06
-3.43682e-05
-9.2547e-06
-7.995e-06
-3.9677e-05
-2.43471e-05
1.11563e-05
-1.95305e-05
1.60022e-05
-1.30013e-05
1.96146e-05
-5.46719e-06
2.14197e-05
2.16053e-06
2.13429e-05
9.04197e-06
1.88012e-05
1.40289e-05
1.40268e-05
1.67123e-05
7.94324e-06
1.70325e-05
1.42523e-06
1.52173e-05
-4.79055e-06
1.16627e-05
-1.01258e-05
6.90862e-06
-1.41611e-05
1.56172e-06
-1.6685e-05
-3.9415e-06
-1.76377e-05
-9.36486e-06
-1.69597e-05
-1.43387e-05
-1.45955e-05
-1.80994e-05
-1.07805e-05
-1.98831e-05
-6.35869e-06
-2.00145e-05
-2.36125e-06
-1.94495e-05
1.15781e-06
-1.79266e-05
4.58328e-06
-1.5605e-05
7.36437e-06
-1.27518e-05
9.21557e-06
-9.70752e-06
1.00479e-05
-6.78158e-06
9.89598e-06
-4.2161e-06
8.8954e-06
-2.18339e-06
7.23414e-06
-7.52449e-07
5.16178e-06
8.46105e-08
2.94035e-06
3.35701e-07
5.84415e-07
-2.04224e-08
-1.37283e-06
-7.7996e-07
-2.97675e-06
-1.83285e-06
-4.50136e-06
-3.35974e-06
-5.19248e-06
-5.04248e-06
-5.05633e-06
-6.70553e-06
-5.05833e-06
-8.62407e-06
-4.62638e-06
-1.03381e-05
-3.05365e-06
-1.19528e-05
-1.88589e-06
-1.3406e-05
-6.8544e-07
-1.4832e-05
5.49545e-07
-1.62151e-05
1.61966e-06
-1.74649e-05
2.28288e-06
-1.86012e-05
2.49652e-06
-1.96798e-05
2.22981e-06
-2.07442e-05
1.45968e-06
-2.18414e-05
2.21984e-07
-2.3043e-05
-1.36179e-06
-2.43624e-05
-3.19744e-06
-2.58447e-05
-5.08912e-06
-2.76764e-05
-6.4197e-06
-3.00282e-05
-6.85873e-06
-3.29197e-05
-6.36316e-06
-4.45715e-06
-3.64576e-05
-1.99297e-05
9.00203e-06
-1.63038e-05
1.23762e-05
-1.15207e-05
1.48315e-05
-6.10467e-06
1.60037e-05
-5.53485e-07
1.57917e-05
4.47196e-06
1.37757e-05
8.29202e-06
1.02067e-05
1.05445e-05
5.69078e-06
1.11162e-05
8.5354e-07
1.01176e-05
-3.79198e-06
7.79588e-06
-7.80404e-06
4.51559e-06
-1.08808e-05
6.51361e-07
-1.28208e-05
-3.48619e-06
-1.35002e-05
-7.57592e-06
-1.287e-05
-1.11712e-05
-1.10003e-05
-1.3798e-05
-8.15369e-06
-1.52839e-05
-4.87287e-06
-1.58895e-05
-1.75562e-06
-1.58148e-05
1.08308e-06
-1.49863e-05
3.75481e-06
-1.35581e-05
5.93619e-06
-1.17e-05
7.35748e-06
-9.63231e-06
7.98017e-06
-7.57649e-06
7.84015e-06
-5.70129e-06
7.0202e-06
-4.12643e-06
5.65928e-06
-2.91738e-06
3.95272e-06
-2.07454e-06
2.09751e-06
-1.70478e-06
2.1466e-07
-1.75045e-06
-1.32716e-06
-1.95308e-06
-2.77413e-06
-2.61285e-06
-3.84159e-06
-3.74786e-06
-4.05747e-06
-4.68095e-06
-4.12324e-06
-5.83438e-06
-3.9049e-06
-7.67536e-06
-2.7854e-06
-9.2854e-06
-1.44362e-06
-1.07792e-05
-3.92096e-07
-1.24263e-05
9.61721e-07
-1.41552e-05
2.27844e-06
-1.57712e-05
3.23558e-06
-1.73442e-05
3.85588e-06
-1.8904e-05
4.05629e-06
-2.04235e-05
3.74936e-06
-2.1875e-05
2.91115e-06
-2.32478e-05
1.59482e-06
-2.45632e-05
-4.64481e-08
-2.5724e-05
-2.03662e-06
-2.67547e-05
-4.05835e-06
-2.78052e-05
-5.36928e-06
-2.90023e-05
-5.66163e-06
-3.0416e-05
-4.94937e-06
-2.67192e-06
-3.22013e-05
-1.68188e-05
7.34008e-06
-1.41213e-05
9.67874e-06
-1.06517e-05
1.13619e-05
-6.73629e-06
1.20883e-05
-2.60965e-06
1.1665e-05
1.09013e-06
1.0076e-05
4.01802e-06
7.27881e-06
5.93426e-06
3.77454e-06
6.66072e-06
1.27077e-07
6.21838e-06
-3.34964e-06
4.77313e-06
-6.35879e-06
2.59197e-06
-8.69965e-06
-5.69214e-08
-1.01719e-05
-2.95491e-06
-1.06022e-05
-5.83768e-06
-9.98721e-06
-8.38127e-06
-8.45671e-06
-1.03608e-05
-6.1742e-06
-1.17378e-05
-3.49581e-06
-1.25955e-05
-8.97937e-07
-1.2958e-05
1.44558e-06
-1.27707e-05
3.56749e-06
-1.20959e-05
5.26146e-06
-1.10443e-05
6.30582e-06
-9.76723e-06
6.70313e-06
-8.41082e-06
6.48374e-06
-7.08182e-06
5.6912e-06
-5.8675e-06
4.44496e-06
-4.82881e-06
2.91403e-06
-4.00372e-06
1.27241e-06
-3.46151e-06
-3.27546e-07
-3.07763e-06
-1.71105e-06
-2.98129e-06
-2.87047e-06
-3.31138e-06
-3.5115e-06
-3.69536e-06
-3.67348e-06
-4.28437e-06
-3.53424e-06
-5.47491e-06
-2.71436e-06
-6.64938e-06
-1.61093e-06
-7.84262e-06
-2.50379e-07
-9.56033e-06
1.32562e-06
-1.13469e-05
2.74825e-06
-1.31275e-05
4.05909e-06
-1.50224e-05
5.1305e-06
-1.69807e-05
5.81415e-06
-1.8946e-05
6.02162e-06
-2.08508e-05
5.65413e-06
-2.2631e-05
4.69133e-06
-2.42844e-05
3.24828e-06
-2.5628e-05
1.29709e-06
-2.65605e-05
-1.10412e-06
-2.70475e-05
-3.57131e-06
-2.72341e-05
-5.18268e-06
-2.70821e-05
-5.81363e-06
-2.68391e-05
-5.19233e-06
-2.79688e-06
-2.67142e-05
-1.46642e-05
6.09984e-06
-1.26971e-05
7.71164e-06
-1.01366e-05
8.80135e-06
-7.26546e-06
9.21718e-06
-4.24474e-06
8.64431e-06
-1.4817e-06
7.31291e-06
7.96921e-07
5.0002e-06
2.50455e-06
2.06691e-06
3.35975e-06
-7.28123e-07
3.2506e-06
-3.24049e-06
2.41504e-06
-5.52323e-06
1.11493e-06
-7.39953e-06
-5.41747e-07
-8.5152e-06
-2.46069e-06
-8.68326e-06
-4.41737e-06
-8.03054e-06
-6.27383e-06
-6.60024e-06
-7.97715e-06
-4.47088e-06
-9.41894e-06
-2.05403e-06
-1.05443e-05
2.27381e-07
-1.13093e-05
2.21065e-06
-1.16439e-05
3.90202e-06
-1.15948e-05
5.2124e-06
-1.12489e-05
5.95996e-06
-1.06129e-05
6.06708e-06
-9.71422e-06
5.58506e-06
-8.65328e-06
4.63026e-06
-7.53527e-06
3.32696e-06
-6.43842e-06
1.81718e-06
-5.41629e-06
2.50287e-07
-4.51246e-06
-1.23138e-06
-3.74728e-06
-2.47622e-06
-3.25254e-06
-3.36521e-06
-3.01308e-06
-3.75096e-06
-3.0375e-06
-3.64906e-06
-3.44973e-06
-3.12201e-06
-4.08112e-06
-2.08296e-06
-4.98923e-06
-7.02824e-07
-6.15455e-06
9.14938e-07
-7.53661e-06
2.70768e-06
-9.23294e-06
4.44457e-06
-1.11669e-05
5.99307e-06
-1.3277e-05
7.24054e-06
-1.55151e-05
8.05233e-06
-1.78103e-05
8.3168e-06
-2.00792e-05
7.92301e-06
-2.22069e-05
6.81898e-06
-2.40036e-05
5.04504e-06
-2.52846e-05
2.57809e-06
-2.63713e-05
-1.74273e-08
-2.62486e-05
-3.694e-06
-2.5339e-05
-6.09234e-06
-2.36852e-05
-7.46739e-06
-2.15931e-05
-7.28446e-06
-5.03328e-06
-1.93567e-05
-1.31335e-05
5.17637e-06
-1.17011e-05
6.27923e-06
-9.81625e-06
6.91648e-06
-7.65197e-06
7.0529e-06
-5.41226e-06
6.4046e-06
-3.17983e-06
5.08047e-06
-1.34987e-06
3.17024e-06
-3.95565e-07
1.1126e-06
1.85805e-07
-1.30949e-06
6.96422e-07
-3.75111e-06
9.53787e-07
-5.7806e-06
6.70956e-07
-7.1167e-06
-1.8979e-07
-7.65445e-06
-1.44938e-06
-7.42367e-06
-3.07572e-06
-6.4042e-06
-4.9126e-06
-4.76336e-06
-6.56962e-06
-2.81386e-06
-7.93413e-06
-6.8952e-07
-9.11422e-06
1.40747e-06
-1.0107e-05
3.20348e-06
-1.0799e-05
4.59399e-06
-1.11104e-05
5.5238e-06
-1.10613e-05
5.91085e-06
-1.07133e-05
5.71908e-06
-1.01292e-05
5.00095e-06
-9.36022e-06
3.86127e-06
-8.45805e-06
2.42479e-06
-7.47733e-06
8.36455e-07
-6.47434e-06
-7.52703e-07
-5.51001e-06
-2.19571e-06
-4.63923e-06
-3.347e-06
-3.92068e-06
-4.08376e-06
-3.35581e-06
-4.31583e-06
-2.99773e-06
-4.00714e-06
-2.93445e-06
-3.18529e-06
-3.14778e-06
-1.86964e-06
-3.69737e-06
-1.53237e-07
-4.59557e-06
1.81315e-06
-5.79531e-06
3.90741e-06
-7.30781e-06
5.95708e-06
-9.09891e-06
7.78417e-06
-1.11177e-05
9.25936e-06
-1.33092e-05
1.02438e-05
-1.55812e-05
1.05888e-05
-1.78334e-05
1.01753e-05
-1.99472e-05
8.93277e-06
-2.16528e-05
6.7506e-06
-2.27931e-05
3.71839e-06
-2.3264e-05
4.5347e-07
-2.27226e-05
-4.23544e-06
-2.09305e-05
-7.88442e-06
-1.80031e-05
-1.03947e-05
-1.42116e-05
-1.10759e-05
-9.32994e-06
-9.91499e-06
-1.17865e-05
4.46665e-06
-1.06988e-05
5.19147e-06
-9.30579e-06
5.5235e-06
-7.61086e-06
5.35797e-06
-5.83497e-06
4.62871e-06
-4.48204e-06
3.72755e-06
-2.7486e-06
1.4368e-06
-1.46885e-06
-1.67153e-07
-6.13172e-07
-2.16517e-06
-1.93037e-07
-4.17124e-06
-1.74845e-07
-5.79879e-06
-5.10932e-07
-6.78062e-06
-1.14861e-06
-7.01677e-06
-2.06189e-06
-6.51039e-06
-3.17589e-06
-5.2902e-06
-4.45188e-06
-3.48737e-06
-5.9011e-06
-1.36463e-06
-7.42565e-06
8.35026e-07
-8.88622e-06
2.86804e-06
-1.01701e-05
4.48736e-06
-1.11488e-05
5.57267e-06
-1.17321e-05
6.10717e-06
-1.18984e-05
6.07708e-06
-1.16747e-05
5.49542e-06
-1.112e-05
4.44626e-06
-1.02993e-05
3.04056e-06
-9.28451e-06
1.40998e-06
-8.15394e-06
-2.9411e-07
-6.98443e-06
-1.92221e-06
-5.85148e-06
-3.32867e-06
-4.80578e-06
-4.39269e-06
-3.87899e-06
-5.01056e-06
-3.10145e-06
-5.09336e-06
-2.51716e-06
-4.59143e-06
-2.15835e-06
-3.5441e-06
-2.03336e-06
-1.99463e-06
-2.15891e-06
-2.76833e-08
-2.53379e-06
2.18802e-06
-3.11928e-06
4.49291e-06
-3.89373e-06
6.73152e-06
-4.85456e-06
8.74501e-06
-5.9726e-06
1.03774e-05
-7.20995e-06
1.14811e-05
-8.54033e-06
1.19192e-05
-9.92658e-06
1.15615e-05
-1.13089e-05
1.03151e-05
-1.26545e-05
8.09622e-06
-1.37519e-05
4.81581e-06
-1.38349e-05
5.36467e-07
-1.34459e-05
-4.62444e-06
-1.18324e-05
-9.49794e-06
-8.97158e-06
-1.32555e-05
-4.96653e-06
-1.5081e-05
-1.42413e-05
-5.51704e-08
-1.05928e-05
3.71085e-06
-9.54709e-06
4.14576e-06
-8.26751e-06
4.24392e-06
-6.82594e-06
3.91641e-06
-5.35138e-06
3.15415e-06
-3.97033e-06
2.3465e-06
-2.73798e-06
2.04439e-07
-1.72331e-06
-1.18182e-06
-1.01919e-06
-2.86928e-06
-7.01251e-07
-4.48918e-06
-7.76783e-07
-5.72326e-06
-1.20387e-06
-6.35353e-06
-1.9437e-06
-6.27694e-06
-2.97246e-06
-5.48163e-06
-4.24506e-06
-4.0176e-06
-5.69423e-06
-2.03821e-06
-7.25095e-06
1.92093e-07
-8.82691e-06
2.41098e-06
-1.0263e-05
4.30416e-06
-1.13863e-05
5.61058e-06
-1.20581e-05
6.24449e-06
-1.2216e-05
6.26511e-06
-1.18754e-05
5.73652e-06
-1.11239e-05
4.74391e-06
-1.01188e-05
3.44112e-06
-8.97437e-06
1.89612e-06
-7.81266e-06
2.48273e-07
-6.75113e-06
-1.35564e-06
-5.86131e-06
-2.81203e-06
-5.15733e-06
-4.03265e-06
-4.6415e-06
-4.90852e-06
-4.33136e-06
-5.32071e-06
-4.18024e-06
-5.24448e-06
-4.04943e-06
-4.72224e-06
-3.84267e-06
-3.75086e-06
-3.55743e-06
-2.27987e-06
-3.15511e-06
-4.30002e-07
-2.56553e-06
1.59843e-06
-1.76964e-06
3.69703e-06
-7.8623e-07
5.74811e-06
4.5092e-07
7.50786e-06
1.98624e-06
8.84207e-06
3.71485e-06
9.75251e-06
5.47136e-06
1.01627e-05
7.02786e-06
1.0005e-05
8.06083e-06
9.28209e-06
8.18656e-06
7.97049e-06
7.26243e-06
5.73995e-06
5.52392e-06
2.27498e-06
3.18107e-06
-2.2816e-06
1.07426e-06
-7.39113e-06
-2.23365e-07
-1.19579e-05
-2.29572e-07
-1.50748e-05
-1.57131e-05
1.24222e-06
-8.72682e-06
2.38696e-06
-7.17149e-06
2.59043e-06
-5.49362e-06
2.56605e-06
-3.84389e-06
2.26668e-06
-2.38366e-06
1.69392e-06
-9.29626e-07
8.92462e-07
-3.94502e-07
-3.30685e-07
-1.25769e-07
-1.45056e-06
-3.90961e-07
-2.60409e-06
-1.22477e-06
-3.65537e-06
-2.56351e-06
-4.38452e-06
-4.27201e-06
-4.64503e-06
-6.20229e-06
-4.34667e-06
-8.19978e-06
-3.48413e-06
-1.01068e-05
-2.11059e-06
-1.17274e-05
-4.17621e-07
-1.31602e-05
1.62487e-06
-1.42839e-05
3.5347e-06
-1.464e-05
4.66023e-06
-1.40507e-05
5.02129e-06
-1.25366e-05
4.73045e-06
-1.03044e-05
4.0329e-06
-7.67292e-06
3.10502e-06
-4.98525e-06
2.05625e-06
-2.56822e-06
1.02409e-06
-7.97369e-07
1.25276e-07
3.58948e-08
-5.8499e-07
-1.21492e-07
-1.19825e-06
-1.24942e-06
-1.6841e-06
-3.22818e-06
-2.05389e-06
-5.79154e-06
-2.34516e-06
-8.55682e-06
-2.55542e-06
-1.11584e-05
-2.64289e-06
-1.32574e-05
-2.62328e-06
-1.44262e-05
-2.58201e-06
-1.42488e-05
-2.45734e-06
-1.26543e-05
-2.0245e-06
-9.75637e-06
-1.29946e-06
-5.5826e-06
-4.76746e-07
-3.01965e-07
4.67474e-07
5.65849e-06
1.54741e-06
1.18435e-05
2.65706e-06
1.77757e-05
3.82033e-06
2.29878e-05
4.95054e-06
2.70443e-05
5.94854e-06
2.96091e-05
6.71727e-06
3.04634e-05
7.11623e-06
2.91815e-05
7.02182e-06
2.51468e-05
6.30966e-06
1.94197e-05
3.44558e-06
1.40066e-05
-1.97803e-06
9.45511e-06
-7.40647e-06
6.26253e-06
-1.18822e-05
-1.37964e-05
4.34582e-06
-4.40634e-06
-1.81591e-06
7.50143e-07
3.01683e-06
4.71074e-06
5.6032e-06
5.27252e-06
3.82196e-06
1.21787e-06
-2.4375e-06
-6.82202e-06
-1.1467e-05
-1.58137e-05
-1.92979e-05
-2.14084e-05
-2.18261e-05
-2.02012e-05
-1.66665e-05
-1.20063e-05
-6.98497e-06
-2.25452e-06
1.77838e-06
4.8834e-06
6.93965e-06
7.96374e-06
8.08901e-06
7.50402e-06
6.30577e-06
4.62167e-06
2.56778e-06
2.22615e-07
-2.33281e-06
-4.9757e-06
-7.59897e-06
-1.0181e-05
-1.26383e-05
-1.46628e-05
-1.59623e-05
-1.6439e-05
-1.59716e-05
-1.44241e-05
-1.17671e-05
-7.94675e-06
-2.99622e-06
2.95232e-06
9.66959e-06
1.67858e-05
2.38076e-05
3.01173e-05
3.35629e-05
3.15849e-05
2.41784e-05
1.22962e-05
-1.50021e-06
0.000190564
-0.000148071
0.000112488
0.000236007
-0.000234545
0.000189103
0.000216724
-0.000297247
0.00031653
0.000115399
-0.000350159
0.000451484
-8.05337e-05
-0.000373717
0.000569649
-0.000361398
-0.000366488
0.000647353
-0.000630918
-0.000348798
0.000618317
-0.000861932
-0.000243309
0.000474323
-0.00101885
-8.14799e-05
0.0002384
-0.00109587
0.000135903
-5.88884e-05
-0.00110287
0.000381684
-0.000374679
-0.00108401
0.000657451
-0.000676313
-0.00104607
0.000942527
-0.00098047
-0.000879843
0.00110352
-0.00126974
-0.000570738
0.0010748
-0.00138391
-0.000257154
0.00096459
-0.00127817
1.44839e-05
0.000804148
-0.00107579
0.000226222
0.000629893
-0.000841631
0.000385962
0.000452563
-0.000612303
0.000500311
0.000287547
-0.000401895
0.000568383
0.000147087
-0.00021516
0.000593606
4.25815e-05
-6.78038e-05
0.000591056
-2.97182e-05
3.22683e-05
0.000576403
-7.91629e-05
9.38154e-05
0.000560873
-0.000115149
0.000130679
0.000549456
-0.000141889
0.000153306
0.000541
-0.000163224
0.00017168
0.000530078
-0.000186861
0.000197783
0.000522522
-0.000221202
0.000228759
0.000546138
-0.000258544
0.000234928
0.000623421
-0.000269141
0.000191858
0.000722199
-0.000233422
0.000134644
0.000750126
-0.000193394
0.000165467
0.000644105
-0.000243679
0.0003497
0.00042523
-0.000427702
0.000646578
0.000172902
-0.000685397
0.000937725
-6.75929e-05
-0.000921295
0.00116179
-0.000254468
-0.00108062
0.0012675
-0.000356566
-0.00112551
0.00122761
-0.000408605
-0.00105946
0.0011115
-0.00042426
-0.000944182
0.000959838
-0.000411025
-0.000810086
0.000796851
-0.000377342
-0.000676499
0.000642816
-0.000332016
-0.000557573
0.000512247
-0.0002836
-0.00046105
0.000412634
-0.000239661
-0.000386931
0.000342992
-0.000205215
-0.000327667
0.000293221
-0.000184351
-0.00026909
0.000248226
-0.000185722
-0.000190023
0.000191394
-0.00021989
-6.17371e-05
9.59045e-05
-0.000275231
0.000131808
-7.64669e-05
-0.000329809
0.00039407
-0.000339491
-0.000383044
0.000697705
-0.000644471
-0.000428993
0.00100616
-0.000960207
-0.000457087
0.00127643
-0.00124834
-0.000450059
0.00144973
-0.00145676
-0.000398421
0.00147238
-0.00152402
-0.000322836
0.00138824
-0.00146382
-0.000231737
0.00123343
-0.00132453
-0.000135413
0.00103725
-0.00113358
-4.25066e-05
0.000825894
-0.0009188
4.15487e-05
0.000619199
-0.000703254
0.00011591
0.000428095
-0.000502456
0.000185405
0.0002534
-0.000322895
0.00025023
9.66958e-05
-0.000161521
0.000298839
-2.50812e-05
-2.35283e-05
0.000335263
-0.000109343
7.29187e-05
0.000364315
-0.0001605
0.000131448
0.000389307
-0.000181216
0.000156224
0.000411597
-0.000175677
0.000153387
0.000429957
-0.000152294
0.000133934
0.000441263
-0.00012482
0.000113514
0.000441711
-0.000109877
0.000109429
0.000427922
-0.000122625
0.000136413
0.000398669