/*--------------------------------*- C++ -*----------------------------------*\
| =========                 |                                                 |
| \\      /  F ield         | OpenFOAM: The Open Source CFD Toolbox           |
|  \\    /   O peration     | Version:  2206                                  |
|   \\  /    A nd           | Website:  www.openfoam.com                      |
|    \\/     M anipulation  |                                                 |
\*---------------------------------------------------------------------------*/
FoamFile
{
    version     2.0;
    format      ascii;
    arch        "LSB;label=32;scalar=64";
    class       surfaceScalarField;
    location    "19.8";
    object      phi_0;
}
// * * * * * * * * * * * * * * * * * * * * * * * * * * * * * * * * * * * * * //

dimensions      [0 3 -1 0 0 0 0];

oriented        oriented;

internalField   nonuniform List<scalar> 
9421
(
1.03898e-05
-3.39097e-07
3.30812e-07
1.04025e-05
-5.62733e-07
5.50035e-07
1.0419e-05
-7.75072e-07
7.58597e-07
1.04387e-05
-9.73266e-07
9.5357e-07
1.04611e-05
-1.15483e-06
1.13243e-06
1.04856e-05
-1.31752e-06
1.29298e-06
1.05117e-05
-1.45957e-06
1.43345e-06
1.05389e-05
-1.57967e-06
1.55253e-06
1.05665e-05
-1.67692e-06
1.64933e-06
1.0594e-05
-1.75092e-06
1.72338e-06
1.06211e-05
-1.80208e-06
1.77497e-06
1.06478e-05
-1.83142e-06
1.80475e-06
1.06751e-05
-1.83862e-06
1.81132e-06
1.07029e-05
-1.81742e-06
1.78962e-06
1.07303e-05
-1.76628e-06
1.73891e-06
1.07567e-05
-1.68649e-06
1.66006e-06
1.0782e-05
-1.57986e-06
1.5546e-06
1.08059e-05
-1.44836e-06
1.42444e-06
1.08283e-05
-1.2943e-06
1.27184e-06
1.08492e-05
-1.12033e-06
1.09947e-06
1.08683e-05
-9.2944e-07
9.10322e-07
1.08855e-05
-7.25003e-07
7.07777e-07
1.09007e-05
-5.10764e-07
4.95608e-07
1.09135e-05
-2.90937e-07
2.78158e-07
1.09235e-05
-7.08042e-08
6.07735e-08
1.09305e-05
1.45536e-07
-1.52504e-07
1.09341e-05
3.54801e-07
-3.58392e-07
1.0934e-05
5.53992e-07
-5.53898e-07
1.09299e-05
7.40465e-07
-7.36417e-07
1.09217e-05
9.11981e-07
-9.03774e-07
1.09093e-05
1.0667e-06
-1.05425e-06
1.08926e-05
1.2032e-06
-1.18656e-06
1.0872e-05
1.32049e-06
-1.29982e-06
1.08476e-05
1.41791e-06
-1.39356e-06
1.08201e-05
1.49513e-06
-1.46762e-06
1.079e-05
1.55221e-06
-1.5221e-06
1.07577e-05
1.5896e-06
-1.55733e-06
1.07232e-05
1.60738e-06
-1.5729e-06
1.06869e-05
1.60308e-06
-1.56669e-06
1.06497e-05
1.57553e-06
-1.5384e-06
1.0613e-05
1.52518e-06
-1.48847e-06
1.05778e-05
1.45272e-06
-1.41748e-06
1.05449e-05
1.35917e-06
-1.32625e-06
1.0515e-05
1.24577e-06
-1.21587e-06
1.04886e-05
1.1141e-06
-1.08775e-06
1.04662e-05
9.66092e-07
-9.43678e-07
1.04479e-05
8.04044e-07
-7.8578e-07
1.04339e-05
6.30537e-07
-6.16493e-07
1.04241e-05
4.48274e-07
-4.38492e-07
1.04186e-05
2.60271e-07
-2.54731e-07
1.04171e-05
7.0297e-08
-6.88092e-08
1.04194e-05
-1.17752e-07
1.15402e-07
1.04253e-05
-3.01148e-07
2.95285e-07
1.04344e-05
-4.77481e-07
4.68412e-07
1.04464e-05
-6.44559e-07
6.32489e-07
1.04613e-05
-8.0018e-07
7.85345e-07
1.04785e-05
-9.42279e-07
9.25003e-07
1.04979e-05
-1.0692e-06
1.04983e-06
1.0519e-05
-1.17938e-06
1.15834e-06
1.05413e-05
-1.27178e-06
1.24947e-06
1.05644e-05
-1.34577e-06
1.32258e-06
1.05881e-05
-1.40113e-06
1.37747e-06
1.06119e-05
-1.43812e-06
1.41433e-06
1.06359e-05
-1.45747e-06
1.43343e-06
1.06609e-05
-1.45732e-06
1.4324e-06
1.06862e-05
-1.43399e-06
1.40863e-06
1.07113e-05
-1.38737e-06
1.36231e-06
1.07356e-05
-1.31863e-06
1.29436e-06
1.07587e-05
-1.22933e-06
1.20619e-06
1.07805e-05
-1.12121e-06
1.09945e-06
1.08006e-05
-9.96243e-07
9.76073e-07
1.0819e-05
-8.56604e-07
8.3821e-07
1.08355e-05
-7.04672e-07
6.88218e-07
1.08499e-05
-5.4302e-07
5.28651e-07
1.0862e-05
-3.74436e-07
3.62292e-07
1.08717e-05
-2.02018e-07
1.92304e-07
1.08788e-05
-2.95685e-08
2.24966e-08
1.08831e-05
1.40035e-07
-1.44299e-07
1.08844e-05
3.04412e-07
-3.05709e-07
1.08826e-05
4.61309e-07
-4.59518e-07
1.08776e-05
6.08706e-07
-6.03725e-07
1.08694e-05
7.44812e-07
-7.36589e-07
1.08579e-05
8.68058e-07
-8.56639e-07
1.08435e-05
9.77131e-07
-9.6265e-07
1.08261e-05
1.07101e-06
-1.05369e-06
1.08063e-05
1.14899e-06
-1.12916e-06
1.07844e-05
1.21063e-06
-1.1887e-06
1.07608e-05
1.25578e-06
-1.23226e-06
1.0736e-05
1.28479e-06
-1.25999e-06
1.07098e-05
1.29777e-06
-1.27151e-06
1.06822e-05
1.29225e-06
-1.2647e-06
1.06543e-05
1.2672e-06
-1.23923e-06
1.06267e-05
1.22314e-06
-1.19557e-06
1.06002e-05
1.16091e-06
-1.13445e-06
1.05755e-05
1.08158e-06
-1.05682e-06
1.05529e-05
9.86428e-07
-9.63865e-07
1.05329e-05
8.76972e-07
-8.56979e-07
1.05158e-05
7.54964e-07
-7.37804e-07
1.05016e-05
6.22359e-07
-6.08201e-07
1.04905e-05
4.81281e-07
-4.70218e-07
1.04826e-05
3.34002e-07
-3.26063e-07
1.04778e-05
1.82983e-07
-1.7817e-07
1.04761e-05
3.12016e-08
-2.94839e-08
1.04773e-05
-1.1862e-07
1.17372e-07
1.04814e-05
-2.64433e-07
2.6037e-07
1.04881e-05
-4.04314e-07
3.97596e-07
1.04973e-05
-5.36453e-07
5.27251e-07
1.05088e-05
-6.59138e-07
6.47653e-07
1.05223e-05
-7.7082e-07
7.57277e-07
1.05377e-05
-8.70191e-07
8.54822e-07
1.05546e-05
-9.56155e-07
9.39228e-07
1.05728e-05
-1.02783e-06
1.00969e-06
1.05918e-05
-1.08464e-06
1.06565e-06
1.06113e-05
-1.12652e-06
1.10699e-06
1.06311e-05
-1.15381e-06
1.13397e-06
1.06515e-05
-1.1669e-06
1.14654e-06
1.06727e-05
-1.16354e-06
1.14236e-06
1.06942e-05
-1.14162e-06
1.12013e-06
1.07154e-05
-1.1015e-06
1.08025e-06
1.0736e-05
-1.04414e-06
1.02358e-06
1.07555e-05
-9.7083e-07
9.51281e-07
1.07738e-05
-8.82997e-07
8.64733e-07
1.07905e-05
-7.82252e-07
7.65503e-07
1.08056e-05
-6.70355e-07
6.55319e-07
1.08187e-05
-5.49202e-07
5.36057e-07
1.08298e-05
-4.20808e-07
4.09713e-07
1.08387e-05
-2.87397e-07
2.78484e-07
1.08453e-05
-1.51288e-07
1.44754e-07
1.08493e-05
-1.57902e-08
1.17192e-08
1.08507e-05
1.17838e-07
-1.19193e-07
1.08495e-05
2.46231e-07
-2.45061e-07
1.08453e-05
3.7002e-07
-3.65789e-07
1.08387e-05
4.8401e-07
-4.77453e-07
1.08285e-05
5.91967e-07
-5.8177e-07
1.08169e-05
6.87255e-07
-6.75611e-07
1.08021e-05
7.6489e-07
-7.50115e-07
8.62202e-07
-8.44203e-07
1.03837e-05
-3.46808e-07
1.03948e-05
-5.73782e-07
1.04087e-05
-7.8901e-07
1.04251e-05
-9.89668e-07
1.04436e-05
-1.17328e-06
1.04635e-05
-1.33748e-06
1.04845e-05
-1.48056e-06
1.0506e-05
-1.60116e-06
1.05274e-05
-1.69831e-06
1.05482e-05
-1.77177e-06
1.05682e-05
-1.822e-06
1.0587e-05
-1.8503e-06
1.06063e-05
-1.85786e-06
1.06267e-05
-1.83786e-06
1.06464e-05
-1.78597e-06
1.06651e-05
-1.70525e-06
1.0683e-05
-1.59774e-06
1.07e-05
-1.46539e-06
1.07162e-05
-1.31048e-06
1.07315e-05
-1.13561e-06
1.07458e-05
-9.43738e-07
1.0759e-05
-7.38219e-07
1.0771e-05
-5.22744e-07
1.07815e-05
-3.01436e-07
1.07901e-05
-7.94415e-08
1.07966e-05
1.39073e-07
1.08006e-05
3.50835e-07
1.08017e-05
5.52866e-07
1.07997e-05
7.42485e-07
1.07943e-05
9.17384e-07
1.07854e-05
1.07562e-06
1.07729e-05
1.21565e-06
1.0757e-05
1.33638e-06
1.0738e-05
1.43692e-06
1.07163e-05
1.51681e-06
1.06925e-05
1.57606e-06
1.0667e-05
1.61509e-06
1.06398e-05
1.63454e-06
1.06106e-05
1.63224e-06
1.05806e-05
1.60561e-06
1.05508e-05
1.55495e-06
1.05223e-05
1.4812e-06
1.04959e-05
1.3856e-06
1.04721e-05
1.26954e-06
1.04514e-05
1.13479e-06
1.04341e-05
9.83411e-07
1.04204e-05
8.17774e-07
1.04104e-05
6.40536e-07
1.04038e-05
4.54797e-07
1.04003e-05
2.63819e-07
1.03994e-05
7.11496e-08
1.04012e-05
-1.19504e-07
1.04057e-05
-3.05635e-07
1.04131e-05
-4.84888e-07
1.04231e-05
-6.54553e-07
1.04352e-05
-8.12337e-07
1.04493e-05
-9.56312e-07
1.04649e-05
-1.0848e-06
1.04816e-05
-1.19615e-06
1.04993e-05
-1.2894e-06
1.05174e-05
-1.36387e-06
1.05356e-05
-1.41932e-06
1.05535e-05
-1.45608e-06
1.05713e-05
-1.47529e-06
1.05901e-05
-1.4761e-06
1.06096e-05
-1.4535e-06
1.06287e-05
-1.40649e-06
1.06471e-05
-1.33703e-06
1.06646e-05
-1.24683e-06
1.06811e-05
-1.13768e-06
1.06964e-05
-1.01157e-06
1.07105e-05
-8.70676e-07
1.07232e-05
-7.1737e-07
1.07344e-05
-5.54237e-07
1.0744e-05
-3.84058e-07
1.07519e-05
-2.09869e-07
1.07578e-05
-3.54487e-08
1.07615e-05
1.36295e-07
1.07629e-05
3.02963e-07
1.0762e-05
4.62287e-07
1.07584e-05
6.12241e-07
1.07523e-05
7.50954e-07
1.07436e-05
8.76792e-07
1.07323e-05
9.8836e-07
1.07188e-05
1.08455e-06
1.07032e-05
1.16458e-06
1.0686e-05
1.22785e-06
1.06676e-05
1.27418e-06
1.06483e-05
1.30405e-06
1.0628e-05
1.31805e-06
1.06064e-05
1.31392e-06
1.05842e-05
1.28942e-06
1.05623e-05
1.24504e-06
1.05413e-05
1.18184e-06
1.05219e-05
1.10104e-06
1.05043e-05
1.00402e-06
1.04888e-05
8.92425e-07
1.04757e-05
7.68109e-07
1.04649e-05
6.33105e-07
1.04566e-05
4.89579e-07
1.04508e-05
3.3985e-07
1.04474e-05
1.86375e-07
1.04465e-05
3.21402e-08
1.04479e-05
-1.20008e-07
1.04514e-05
-2.67983e-07
1.0457e-05
-4.09885e-07
1.04645e-05
-5.43937e-07
1.04737e-05
-6.68367e-07
1.04845e-05
-7.81627e-07
1.04967e-05
-8.82416e-07
1.05101e-05
-9.6956e-07
1.05244e-05
-1.04206e-06
1.05391e-05
-1.09941e-06
1.05541e-05
-1.14153e-06
1.05692e-05
-1.16883e-06
1.05844e-05
-1.18212e-06
1.06006e-05
-1.17974e-06
1.06172e-05
-1.15823e-06
1.06335e-05
-1.11784e-06
1.06493e-05
-1.05987e-06
1.06641e-05
-9.85722e-07
1.0678e-05
-8.96878e-07
1.06907e-05
-7.94972e-07
1.07022e-05
-6.81767e-07
1.07121e-05
-5.59164e-07
1.07205e-05
-4.29191e-07
1.07272e-05
-2.94085e-07
1.0732e-05
-1.56115e-07
1.07349e-05
-1.86647e-08
1.07356e-05
1.1713e-07
1.07343e-05
2.47575e-07
1.07305e-05
3.73817e-07
1.07247e-05
4.89795e-07
1.0716e-05
6.00671e-07
1.07062e-05
6.97001e-07
1.06935e-05
7.77622e-07
8.77388e-07
1.03924e-05
-3.54226e-07
1.04023e-05
-5.8373e-07
1.04143e-05
-8.01012e-07
1.04279e-05
-1.00322e-06
1.04425e-05
-1.18793e-06
1.04578e-05
-1.35279e-06
1.04735e-05
-1.49626e-06
1.04894e-05
-1.61702e-06
1.05048e-05
-1.71375e-06
1.05193e-05
-1.78626e-06
1.05324e-05
-1.83508e-06
1.05438e-05
-1.8617e-06
1.05548e-05
-1.86886e-06
1.0568e-05
-1.85104e-06
1.05798e-05
-1.79778e-06
1.05908e-05
-1.71624e-06
1.06013e-05
-1.60823e-06
1.06115e-05
-1.4756e-06
1.06215e-05
-1.32048e-06
1.06313e-05
-1.14541e-06
1.06409e-05
-9.53314e-07
1.06501e-05
-7.47494e-07
1.0659e-05
-5.31588e-07
1.06672e-05
-3.09642e-07
1.06744e-05
-8.66314e-08
1.06803e-05
1.33203e-07
1.06845e-05
3.46627e-07
1.06867e-05
5.50673e-07
1.06865e-05
7.42623e-07
1.06838e-05
9.20118e-07
1.06783e-05
1.08111e-06
1.06699e-05
1.22402e-06
1.06588e-05
1.34754e-06
1.06451e-05
1.45063e-06
1.06291e-05
1.53274e-06
1.06115e-05
1.5937e-06
1.05928e-05
1.63382e-06
1.05731e-05
1.65419e-06
1.05514e-05
1.65392e-06
1.05286e-05
1.62842e-06
1.05063e-05
1.57734e-06
1.04851e-05
1.50233e-06
1.04658e-05
1.4049e-06
1.04487e-05
1.28668e-06
1.04339e-05
1.1496e-06
1.04215e-05
9.95834e-07
1.04114e-05
8.27781e-07
1.04039e-05
6.48086e-07
1.03989e-05
4.59783e-07
1.03964e-05
2.66288e-07
1.03962e-05
7.14223e-08
1.03982e-05
-1.215e-07
1.04025e-05
-3.09955e-07
1.04087e-05
-4.91131e-07
1.04166e-05
-6.62415e-07
1.04259e-05
-8.21692e-07
1.04366e-05
-9.66978e-07
1.04483e-05
-1.09652e-06
1.04609e-05
-1.20868e-06
1.04739e-05
-1.3025e-06
1.04872e-05
-1.37708e-06
1.05e-05
-1.43219e-06
1.05121e-05
-1.46818e-06
1.05236e-05
-1.48673e-06
1.05362e-05
-1.48868e-06
1.055e-05
-1.46733e-06
1.05631e-05
-1.41958e-06
1.05755e-05
-1.3494e-06
1.05872e-05
-1.25855e-06
1.05983e-05
-1.14878e-06
1.06087e-05
-1.02202e-06
1.06185e-05
-8.80415e-07
1.06274e-05
-7.26305e-07
1.06354e-05
-5.62285e-07
1.06425e-05
-3.9112e-07
1.06484e-05
-2.15798e-07
1.06531e-05
-4.00642e-08
1.06562e-05
1.33152e-07
1.06577e-05
3.01426e-07
1.06575e-05
4.62498e-07
1.06554e-05
6.14331e-07
1.06514e-05
7.5498e-07
1.06454e-05
8.8277e-07
1.06375e-05
9.96243e-07
1.06279e-05
1.09419e-06
1.06167e-05
1.17578e-06
1.06043e-05
1.24029e-06
1.0591e-05
1.28745e-06
1.05773e-05
1.31774e-06
1.05632e-05
1.33217e-06
1.05474e-05
1.32968e-06
1.0531e-05
1.30586e-06
1.05149e-05
1.26108e-06
1.04998e-05
1.19697e-06
1.04859e-05
1.1149e-06
1.04736e-05
1.01632e-06
1.0463e-05
9.03052e-07
1.04541e-05
7.77061e-07
1.04468e-05
6.40393e-07
1.04412e-05
4.95127e-07
1.04376e-05
3.43516e-07
1.04357e-05
1.88267e-07
1.04352e-05
3.26184e-08
1.04361e-05
-1.20932e-07
1.04387e-05
-2.70601e-07
1.0443e-05
-4.1411e-07
1.04485e-05
-5.49518e-07
1.04554e-05
-6.75182e-07
1.04634e-05
-7.89653e-07
1.04725e-05
-8.91572e-07
1.04825e-05
-9.7954e-07
1.04929e-05
-1.05248e-06
1.05036e-05
-1.11005e-06
1.05141e-05
-1.15209e-06
1.05243e-05
-1.17902e-06
1.05342e-05
-1.192e-06
1.05454e-05
-1.19096e-06
1.05573e-05
-1.17006e-06
1.05686e-05
-1.12919e-06
1.05794e-05
-1.07062e-06
1.05895e-05
-9.95807e-07
1.05988e-05
-9.06248e-07
1.06074e-05
-8.03562e-07
1.06151e-05
-6.8948e-07
1.06218e-05
-5.65883e-07
1.06275e-05
-4.34807e-07
1.06319e-05
-2.9849e-07
1.06349e-05
-1.59187e-07
1.06366e-05
-2.03084e-08
1.06366e-05
1.17064e-07
1.06352e-05
2.4906e-07
1.06319e-05
3.77093e-07
1.0627e-05
4.94699e-07
1.062e-05
6.07625e-07
1.06122e-05
7.04817e-07
1.06018e-05
7.88085e-07
8.89565e-07
1.04177e-05
-3.61333e-07
1.04264e-05
-5.92448e-07
1.04363e-05
-8.10877e-07
1.04468e-05
-1.01379e-06
1.04577e-05
-1.19881e-06
1.04686e-05
-1.36373e-06
1.04793e-05
-1.50692e-06
1.04895e-05
-1.62721e-06
1.0499e-05
-1.7232e-06
1.05074e-05
-1.79466e-06
1.05142e-05
-1.84197e-06
1.05193e-05
-1.86675e-06
1.05233e-05
-1.87291e-06
1.05279e-05
-1.85559e-06
1.05313e-05
-1.80122e-06
1.05345e-05
-1.71936e-06
1.05377e-05
-1.61143e-06
1.05412e-05
-1.47911e-06
1.05451e-05
-1.32443e-06
1.05495e-05
-1.14984e-06
1.05545e-05
-9.58232e-07
1.05598e-05
-7.52856e-07
1.05655e-05
-5.3729e-07
1.05714e-05
-3.15508e-07
1.05771e-05
-9.23248e-08
1.05823e-05
1.27995e-07
1.05867e-05
3.42233e-07
1.05899e-05
5.47471e-07
1.05916e-05
7.40921e-07
1.05915e-05
9.20223e-07
1.05893e-05
1.08327e-06
1.05849e-05
1.22839e-06
1.05784e-05
1.35405e-06
1.05699e-05
1.45912e-06
1.05598e-05
1.54287e-06
1.05486e-05
1.60496e-06
1.0537e-05
1.64536e-06
1.05255e-05
1.66572e-06
1.05118e-05
1.66761e-06
1.04962e-05
1.64403e-06
1.04814e-05
1.59211e-06
1.04675e-05
1.51623e-06
1.04546e-05
1.41786e-06
1.04428e-05
1.29845e-06
1.04325e-05
1.15988e-06
1.04239e-05
1.00441e-06
1.04172e-05
8.34543e-07
1.04121e-05
6.53113e-07
1.04089e-05
4.63047e-07
1.04075e-05
2.67623e-07
1.04082e-05
7.0771e-08
1.04106e-05
-1.23907e-07
1.04144e-05
-3.13762e-07
1.04194e-05
-4.96158e-07
1.04255e-05
-6.68456e-07
1.04324e-05
-8.2862e-07
1.04402e-05
-9.74728e-07
1.04485e-05
-1.10482e-06
1.04571e-05
-1.21727e-06
1.04657e-05
-1.31118e-06
1.04742e-05
-1.38556e-06
1.04821e-05
-1.44008e-06
1.04889e-05
-1.47501e-06
1.04946e-05
-1.49243e-06
1.05012e-05
-1.49529e-06
1.05089e-05
-1.47496e-06
1.05155e-05
-1.42626e-06
1.05217e-05
-1.35555e-06
1.05275e-05
-1.26439e-06
1.05332e-05
-1.15447e-06
1.05388e-05
-1.0276e-06
1.05442e-05
-8.85834e-07
1.05494e-05
-7.31513e-07
1.05544e-05
-5.67237e-07
1.0559e-05
-3.95745e-07
1.05632e-05
-2.1997e-07
1.05667e-05
-4.35898e-08
1.05694e-05
1.30413e-07
1.05712e-05
2.99621e-07
1.0572e-05
4.61784e-07
1.05714e-05
6.14876e-07
1.05696e-05
7.56827e-07
1.05663e-05
8.86006e-07
1.05617e-05
1.00087e-06
1.05558e-05
1.10007e-06
1.05489e-05
1.18266e-06
1.05413e-05
1.24794e-06
1.05332e-05
1.29553e-06
1.05252e-05
1.32575e-06
1.05177e-05
1.33971e-06
1.0508e-05
1.33934e-06
1.04975e-05
1.31641e-06
1.04878e-05
1.27069e-06
1.0479e-05
1.20582e-06
1.04709e-05
1.12304e-06
1.04635e-05
1.02372e-06
1.04569e-05
9.09585e-07
1.04514e-05
7.82614e-07
1.0447e-05
6.44788e-07
1.04437e-05
4.98398e-07
1.04413e-05
3.45887e-07
1.04399e-05
1.89708e-07
1.04395e-05
3.29743e-08
1.04403e-05
-1.21656e-07
1.04419e-05
-2.72273e-07
1.04446e-05
-4.16799e-07
1.04486e-05
-5.53466e-07
1.04537e-05
-6.80258e-07
1.04594e-05
-7.95447e-07
1.04657e-05
-8.9786e-07
1.04724e-05
-9.86154e-07
1.04791e-05
-1.05928e-06
1.04858e-05
-1.11675e-06
1.04922e-05
-1.15843e-06
1.04979e-05
-1.18474e-06
1.05029e-05
-1.19696e-06
1.05091e-05
-1.1972e-06
1.0516e-05
-1.17691e-06
1.05221e-05
-1.1353e-06
1.05277e-05
-1.07621e-06
1.05328e-05
-1.00097e-06
1.05376e-05
-9.11029e-07
1.0542e-05
-8.07977e-07
1.0546e-05
-6.93473e-07
1.05495e-05
-5.69373e-07
1.05524e-05
-4.37714e-07
1.05546e-05
-3.00718e-07
1.05561e-05
-1.60671e-07
1.05567e-05
-2.0882e-08
1.05563e-05
1.17418e-07
1.05548e-05
2.50551e-07
1.05523e-05
3.79637e-07
1.05484e-05
4.98643e-07
1.05433e-05
6.12693e-07
1.05372e-05
7.10909e-07
1.05291e-05
7.962e-07
8.98634e-07
1.04639e-05
1.04714e-05
1.0479e-05
1.04861e-05
1.04925e-05
1.04979e-05
1.05024e-05
1.05058e-05
1.05085e-05
1.05104e-05
1.05117e-05
1.05121e-05
1.05109e-05
1.05065e-05
1.05017e-05
1.0497e-05
1.0493e-05
1.04899e-05
1.04878e-05
1.04869e-05
1.04873e-05
1.04888e-05
1.04915e-05
1.04951e-05
1.04994e-05
1.0504e-05
1.05085e-05
1.05125e-05
1.05158e-05
1.0518e-05
1.05189e-05
1.05184e-05
1.05165e-05
1.05136e-05
1.05098e-05
1.05056e-05
1.05014e-05
1.04974e-05
1.04919e-05
1.04835e-05
1.04753e-05
1.04674e-05
1.04601e-05
1.04535e-05
1.0448e-05
1.04436e-05
1.04405e-05
1.04387e-05
1.04383e-05
1.0439e-05
1.04408e-05
1.04433e-05
1.04465e-05
1.045e-05
1.04537e-05
1.04576e-05
1.04615e-05
1.04653e-05
1.04692e-05
1.04729e-05
1.04764e-05
1.04799e-05
1.04831e-05
1.04852e-05
1.04865e-05
1.04869e-05
1.04868e-05
1.04866e-05
1.04866e-05
1.0487e-05
1.04877e-05
1.04887e-05
1.04901e-05
1.04918e-05
1.04938e-05
1.04961e-05
1.04984e-05
1.05005e-05
1.05024e-05
1.05037e-05
1.05045e-05
1.05046e-05
1.0504e-05
1.05028e-05
1.0501e-05
1.04991e-05
1.04969e-05
1.04949e-05
1.0493e-05
1.04917e-05
1.04892e-05
1.04851e-05
1.04811e-05
1.04772e-05
1.04737e-05
1.04702e-05
1.04671e-05
1.04644e-05
1.04623e-05
1.04609e-05
1.04601e-05
1.04601e-05
1.04606e-05
1.04617e-05
1.04633e-05
1.04653e-05
1.04675e-05
1.04698e-05
1.04724e-05
1.04751e-05
1.04779e-05
1.04808e-05
1.0484e-05
1.04871e-05
1.04897e-05
1.04915e-05
1.04931e-05
1.04941e-05
1.04947e-05
1.04951e-05
1.04953e-05
1.04956e-05
1.04958e-05
1.04959e-05
1.0496e-05
1.04959e-05
1.04957e-05
1.04953e-05
1.04946e-05
1.04936e-05
1.0492e-05
1.04899e-05
1.0487e-05
1.04836e-05
1.04795e-05
1.04742e-05
8.0144e-07
9.04161e-07
1.04431e-05
8.17678e-07
-2.10123e-08
8.37105e-07
-1.94277e-08
8.54711e-07
-1.76054e-08
8.70293e-07
-1.55821e-08
8.8369e-07
-1.33977e-08
8.94796e-07
-1.11056e-08
9.03553e-07
-8.75704e-09
9.09941e-07
-6.38779e-09
9.13962e-07
-4.02114e-09
9.15592e-07
-1.63058e-09
9.15149e-07
4.42903e-10
9.12717e-07
2.43222e-09
9.08399e-07
4.31821e-09
9.02386e-07
6.01268e-09
8.94896e-07
7.48996e-09
8.86162e-07
8.73407e-09
8.76425e-07
9.73612e-09
8.65931e-07
1.04942e-08
8.54921e-07
1.10095e-08
8.43639e-07
1.12823e-08
8.32325e-07
1.13141e-08
8.21209e-07
1.11158e-08
8.10503e-07
1.07065e-08
8.00393e-07
1.01097e-08
7.91044e-07
9.34878e-09
7.82599e-07
8.44547e-09
7.75177e-07
7.42122e-09
7.68876e-07
6.30152e-09
7.63759e-07
5.11701e-09
7.59869e-07
3.88948e-09
7.57211e-07
2.65786e-09
7.55803e-07
1.4085e-09
7.55638e-07
1.64888e-10
7.56506e-07
-8.68361e-10
7.58479e-07
-1.97295e-09
7.61501e-07
-3.02168e-09
7.65504e-07
-4.00278e-09
7.70414e-07
-4.91021e-09
7.76156e-07
-5.74226e-09
7.82655e-07
-6.49918e-09
7.89838e-07
-7.1825e-09
7.97632e-07
-7.79446e-09
8.05968e-07
-8.33631e-09
8.14777e-07
-8.80863e-09
8.23989e-07
-9.21208e-09
8.33536e-07
-9.54704e-09
8.43347e-07
-9.81123e-09
8.53349e-07
-1.00019e-08
8.63467e-07
-1.01176e-08
8.73627e-07
-1.016e-08
8.83759e-07
-1.0132e-08
8.93794e-07
-1.00357e-08
9.03663e-07
-9.86901e-09
9.13289e-07
-9.62592e-09
9.22586e-07
-9.2975e-09
9.31462e-07
-8.87624e-09
9.39826e-07
-8.36319e-09
9.47588e-07
-7.76217e-09
9.54666e-07
-7.0784e-09
9.60986e-07
-6.3199e-09
9.66482e-07
-5.49623e-09
9.71107e-07
-4.62486e-09
9.74832e-07
-3.72517e-09
9.77631e-07
-2.79892e-09
9.79471e-07
-1.84066e-09
9.80306e-07
-8.35149e-10
9.80189e-07
1.16974e-10
9.7916e-07
1.02961e-09
9.77208e-07
1.95132e-09
9.74376e-07
2.83195e-09
9.70729e-07
3.64713e-09
9.66347e-07
4.38233e-09
9.6132e-07
5.02632e-09
9.55749e-07
5.57116e-09
9.49738e-07
6.01128e-09
9.43396e-07
6.34236e-09
9.36835e-07
6.561e-09
9.30169e-07
6.66598e-09
9.23508e-07
6.66106e-09
9.16955e-07
6.55257e-09
9.10608e-07
6.34747e-09
9.04557e-07
6.05105e-09
8.9889e-07
5.66681e-09
8.93679e-07
5.21069e-09
8.8899e-07
4.68917e-09
8.84874e-07
4.11633e-09
8.81358e-07
3.51543e-09
8.78462e-07
2.89613e-09
8.76194e-07
2.26743e-09
8.74565e-07
1.62944e-09
8.7358e-07
9.84546e-10
8.73255e-07
3.25157e-10
8.73512e-07
-2.57106e-10
8.74358e-07
-8.45677e-10
8.75786e-07
-1.42758e-09
8.77785e-07
-1.99953e-09
8.80347e-07
-2.56218e-09
8.8346e-07
-3.11242e-09
8.87105e-07
-3.64512e-09
8.91259e-07
-4.15432e-09
8.95894e-07
-4.63475e-09
9.00975e-07
-5.08079e-09
9.06462e-07
-5.48692e-09
9.12311e-07
-5.84991e-09
9.18478e-07
-6.16612e-09
9.24905e-07
-6.42755e-09
9.3153e-07
-6.62522e-09
9.38285e-07
-6.75498e-09
9.45098e-07
-6.81294e-09
9.5189e-07
-6.79236e-09
9.58575e-07
-6.6844e-09
9.65056e-07
-6.48119e-09
9.71236e-07
-6.18062e-09
9.77021e-07
-5.78475e-09
9.8232e-07
-5.29899e-09
9.87052e-07
-4.73205e-09
9.91148e-07
-4.0956e-09
9.94543e-07
-3.395e-09
9.97198e-07
-2.6554e-09
9.991e-07
-1.90219e-09
1.00023e-06
-1.13324e-09
1.00057e-06
-3.34721e-10
1.00023e-06
3.41084e-10
9.99209e-07
1.01851e-09
9.97546e-07
1.66313e-09
9.95294e-07
2.25139e-09
9.92526e-07
2.76852e-09
9.89316e-07
3.2096e-09
9.85745e-07
3.57098e-09
9.81892e-07
3.85314e-09
9.77844e-07
4.04826e-09
9.73689e-07
4.15438e-09
9.69514e-07
4.17487e-09
9.65428e-07
4.08614e-09
9.6152e-07
3.90836e-09
9.57899e-07
3.62082e-09
2.95509e-09
2.38452e-06
-4.79424e-08
2.40922e-06
-4.41323e-08
2.43147e-06
-3.98545e-08
2.45108e-06
-3.51884e-08
2.46791e-06
-3.02308e-08
2.4819e-06
-2.50942e-08
2.49304e-06
-1.98949e-08
2.50139e-06
-1.47408e-08
2.50707e-06
-9.69887e-09
2.51025e-06
-4.81401e-09
2.51089e-06
-1.98476e-10
2.50921e-06
4.11438e-09
2.50549e-06
8.04378e-09
2.50002e-06
1.14819e-08
2.49309e-06
1.44153e-08
2.485e-06
1.68254e-08
2.47603e-06
1.8701e-08
2.46648e-06
2.00506e-08
2.4566e-06
2.08834e-08
2.44669e-06
2.11988e-08
2.437e-06
2.10056e-08
2.42778e-06
2.03349e-08
2.41925e-06
1.92292e-08
2.41163e-06
1.77359e-08
2.40507e-06
1.59051e-08
2.39973e-06
1.37909e-08
2.3957e-06
1.14475e-08
2.39307e-06
8.92908e-09
2.39189e-06
6.29877e-09
2.39219e-06
3.59143e-09
2.39392e-06
9.21197e-10
2.39705e-06
-1.72022e-09
2.40152e-06
-4.30337e-09
2.4074e-06
-6.7482e-09
2.41451e-06
-9.08545e-09
2.42278e-06
-1.12863e-08
2.43211e-06
-1.33334e-08
2.44242e-06
-1.52164e-08
2.4536e-06
-1.69291e-08
2.46557e-06
-1.84692e-08
2.47823e-06
-1.98384e-08
2.49147e-06
-2.10411e-08
2.50522e-06
-2.20804e-08
2.51937e-06
-2.29574e-08
2.53383e-06
-2.36725e-08
2.54851e-06
-2.4225e-08
2.56331e-06
-2.46109e-08
2.57813e-06
-2.48246e-08
2.59288e-06
-2.48666e-08
2.60746e-06
-2.47447e-08
2.6218e-06
-2.4466e-08
2.63579e-06
-2.40344e-08
2.64937e-06
-2.34476e-08
2.66244e-06
-2.26968e-08
2.67491e-06
-2.17603e-08
2.68665e-06
-2.06178e-08
2.69756e-06
-1.92752e-08
2.70755e-06
-1.77492e-08
2.71652e-06
-1.60509e-08
2.7244e-06
-1.41973e-08
2.73112e-06
-1.22222e-08
2.73667e-06
-1.01734e-08
2.74103e-06
-8.08282e-09
2.74419e-06
-5.96542e-09
2.74616e-06
-3.80954e-09
2.74693e-06
-1.60434e-09
2.74647e-06
5.81323e-10
2.74478e-06
2.71736e-09
2.74197e-06
4.76028e-09
2.73813e-06
6.6765e-09
2.73334e-06
8.43228e-09
2.72773e-06
9.99689e-09
2.72141e-06
1.13466e-08
2.71451e-06
1.2465e-08
2.70718e-06
1.33401e-08
2.69956e-06
1.39623e-08
2.6918e-06
1.4326e-08
2.68403e-06
1.44308e-08
2.67641e-06
1.42847e-08
2.66906e-06
1.3906e-08
2.6621e-06
1.33072e-08
2.65565e-06
1.25019e-08
2.64981e-06
1.15043e-08
2.64468e-06
1.03415e-08
2.64032e-06
9.05218e-09
2.63676e-06
7.67481e-09
2.63403e-06
6.23962e-09
2.63217e-06
4.76401e-09
2.63118e-06
3.25545e-09
2.63108e-06
1.72764e-09
2.63185e-06
2.17377e-10
2.63342e-06
-1.24606e-09
2.63585e-06
-2.68785e-09
2.63909e-06
-4.09188e-09
2.64312e-06
-5.45265e-09
2.64789e-06
-6.76899e-09
2.65337e-06
-8.04269e-09
2.65953e-06
-9.26901e-09
2.66632e-06
-1.04369e-08
2.6737e-06
-1.15351e-08
2.68162e-06
-1.25548e-08
2.69002e-06
-1.34851e-08
2.69885e-06
-1.43129e-08
2.70803e-06
-1.50291e-08
2.71749e-06
-1.56245e-08
2.72714e-06
-1.60794e-08
2.73688e-06
-1.6371e-08
2.74662e-06
-1.64911e-08
2.75625e-06
-1.64429e-08
2.76568e-06
-1.62211e-08
2.7748e-06
-1.58059e-08
2.7835e-06
-1.51787e-08
2.79165e-06
-1.43376e-08
2.79916e-06
-1.32895e-08
2.80591e-06
-1.20484e-08
2.81181e-06
-1.06365e-08
2.8168e-06
-9.08573e-09
2.82082e-06
-7.41624e-09
2.82385e-06
-5.67943e-09
2.82588e-06
-3.93787e-09
2.82697e-06
-2.22346e-09
2.82715e-06
-5.07432e-10
2.82639e-06
1.09569e-09
2.82477e-06
2.64564e-09
2.82236e-06
4.06516e-09
2.81929e-06
5.32818e-09
2.81564e-06
6.41302e-09
2.81154e-06
7.31527e-09
2.80707e-06
8.03497e-09
2.80237e-06
8.55826e-09
2.79754e-06
8.87868e-09
2.79271e-06
8.98569e-09
2.78799e-06
8.89162e-09
2.78346e-06
8.61047e-09
2.7793e-06
8.07086e-09
2.77549e-06
7.43151e-09
6.02217e-09
4.04739e-06
-7.40126e-08
4.07144e-06
-6.81877e-08
4.09323e-06
-6.16373e-08
4.11252e-06
-5.44839e-08
4.12917e-06
-4.68837e-08
4.14311e-06
-3.90258e-08
4.15431e-06
-3.10991e-08
4.16283e-06
-2.32647e-08
4.16877e-06
-1.56366e-08
4.17222e-06
-8.26624e-09
4.17331e-06
-1.28118e-09
4.17231e-06
5.10768e-09
4.16935e-06
1.10066e-08
4.16469e-06
1.61397e-08
4.15865e-06
2.04553e-08
4.15156e-06
2.39225e-08
4.14372e-06
2.65382e-08
4.13542e-06
2.83444e-08
4.12694e-06
2.9363e-08
4.11855e-06
2.95914e-08
4.11052e-06
2.90424e-08
4.10308e-06
2.77664e-08
4.09647e-06
2.58401e-08
4.09087e-06
2.33422e-08
4.08642e-06
2.03516e-08
4.08326e-06
1.69485e-08
4.0815e-06
1.32065e-08
4.08123e-06
9.20548e-09
4.08247e-06
5.0596e-09
4.08516e-06
8.96623e-10
4.08928e-06
-3.20234e-09
4.09481e-06
-7.24948e-09
4.10165e-06
-1.11444e-08
4.10975e-06
-1.48387e-08
4.11897e-06
-1.83134e-08
4.12923e-06
-2.15474e-08
4.14042e-06
-2.45226e-08
4.15244e-06
-2.72287e-08
4.16517e-06
-2.96595e-08
4.17851e-06
-3.18138e-08
4.19237e-06
-3.36978e-08
4.20665e-06
-3.53226e-08
4.22127e-06
-3.66971e-08
4.23613e-06
-3.78239e-08
4.25117e-06
-3.87047e-08
4.26628e-06
-3.93389e-08
4.28139e-06
-3.97204e-08
4.29641e-06
-3.98441e-08
4.31126e-06
-3.97118e-08
4.32584e-06
-3.93334e-08
4.3401e-06
-3.87225e-08
4.35395e-06
-3.78878e-08
4.36733e-06
-3.68256e-08
4.38016e-06
-3.55237e-08
4.39234e-06
-3.39409e-08
4.40375e-06
-3.20307e-08
4.41429e-06
-2.98164e-08
4.42387e-06
-2.73278e-08
4.43241e-06
-2.45933e-08
4.43986e-06
-2.16466e-08
4.44617e-06
-1.85326e-08
4.45131e-06
-1.53137e-08
4.45528e-06
-1.20474e-08
4.45806e-06
-8.74741e-09
4.45964e-06
-5.39407e-09
4.46003e-06
-1.99071e-09
4.45928e-06
1.32806e-09
4.45741e-06
4.59606e-09
4.45445e-06
7.71131e-09
4.45052e-06
1.06153e-08
4.4457e-06
1.32518e-08
4.44012e-06
1.55733e-08
4.43392e-06
1.75447e-08
4.42724e-06
1.91425e-08
4.42023e-06
2.03509e-08
4.41304e-06
2.11576e-08
4.40581e-06
2.15579e-08
4.39868e-06
2.156e-08
4.39178e-06
2.11833e-08
4.38523e-06
2.04548e-08
4.37914e-06
1.93995e-08
4.3736e-06
1.80379e-08
4.3687e-06
1.64032e-08
4.3645e-06
1.45442e-08
4.36104e-06
1.25119e-08
4.35836e-06
1.03541e-08
4.35649e-06
8.10831e-09
4.35545e-06
5.80279e-09
4.35524e-06
3.46589e-09
4.35585e-06
1.12353e-09
4.35723e-06
-1.16862e-09
4.35939e-06
-3.4063e-09
4.36229e-06
-5.58117e-09
4.36588e-06
-7.68749e-09
4.37015e-06
-9.71875e-09
4.37505e-06
-1.16715e-08
4.38056e-06
-1.35484e-08
4.38663e-06
-1.5345e-08
4.39324e-06
-1.70472e-08
4.40035e-06
-1.86434e-08
4.40792e-06
-2.01282e-08
4.41593e-06
-2.14895e-08
4.42432e-06
-2.27057e-08
4.43305e-06
-2.37568e-08
4.44205e-06
-2.46275e-08
4.45126e-06
-2.52905e-08
4.46061e-06
-2.5719e-08
4.47002e-06
-2.59012e-08
4.47941e-06
-2.58315e-08
4.48869e-06
-2.55001e-08
4.49776e-06
-2.48778e-08
4.50651e-06
-2.39272e-08
4.51482e-06
-2.26465e-08
4.52257e-06
-2.10403e-08
4.52965e-06
-1.91281e-08
4.53596e-06
-1.69438e-08
4.54141e-06
-1.45394e-08
4.54596e-06
-1.19697e-08
4.54957e-06
-9.28822e-09
4.5522e-06
-6.56251e-09
4.55385e-06
-3.87174e-09
4.55457e-06
-1.2313e-09
4.55439e-06
1.2713e-09
4.55337e-06
3.67103e-09
4.55156e-06
5.87377e-09
4.54905e-06
7.83446e-09
4.54595e-06
9.51839e-09
4.54234e-06
1.09184e-08
4.53835e-06
1.20278e-08
4.53408e-06
1.283e-08
4.52965e-06
1.33083e-08
4.52517e-06
1.34697e-08
4.52075e-06
1.33087e-08
4.51647e-06
1.28878e-08
4.51244e-06
1.20992e-08
4.50858e-06
1.12902e-08
9.27526e-09
5.84782e-06
-9.29282e-08
5.86562e-06
-8.59883e-08
5.88211e-06
-7.81209e-08
5.89707e-06
-6.94466e-08
5.91031e-06
-6.01226e-08
5.92162e-06
-5.03343e-08
5.93081e-06
-4.02913e-08
5.93774e-06
-3.01989e-08
5.94234e-06
-2.02382e-08
5.94464e-06
-1.05591e-08
5.94467e-06
-1.31584e-09
5.94249e-06
7.28936e-09
5.9384e-06
1.50999e-08
5.93258e-06
2.19532e-08
5.92526e-06
2.77752e-08
5.91672e-06
3.2466e-08
5.9073e-06
3.59622e-08
5.89728e-06
3.83578e-08
5.88697e-06
3.96722e-08
5.8767e-06
3.98684e-08
5.86679e-06
3.89446e-08
5.85757e-06
3.69883e-08
5.84929e-06
3.4124e-08
5.84216e-06
3.04668e-08
5.83639e-06
2.61263e-08
5.83211e-06
2.12234e-08
5.82945e-06
1.58688e-08
5.82848e-06
1.01751e-08
5.82925e-06
4.29069e-09
5.83176e-06
-1.61613e-09
5.83598e-06
-7.42088e-09
5.84175e-06
-1.30172e-08
5.84893e-06
-1.83289e-08
5.85741e-06
-2.33099e-08
5.86702e-06
-2.79239e-08
5.87761e-06
-3.21387e-08
5.88902e-06
-3.5936e-08
5.9011e-06
-3.93094e-08
5.9137e-06
-4.22572e-08
5.92667e-06
-4.47829e-08
5.93988e-06
-4.69054e-08
5.95321e-06
-4.86549e-08
5.96656e-06
-5.00543e-08
5.97986e-06
-5.11161e-08
5.99301e-06
-5.18551e-08
6.00595e-06
-5.22863e-08
6.01865e-06
-5.24142e-08
6.03104e-06
-5.22343e-08
6.04308e-06
-5.17483e-08
6.05472e-06
-5.09742e-08
6.06594e-06
-4.99426e-08
6.07673e-06
-4.86784e-08
6.08708e-06
-4.71757e-08
6.09698e-06
-4.54308e-08
6.10639e-06
-4.33478e-08
6.11511e-06
-4.07497e-08
6.12306e-06
-3.77622e-08
6.13016e-06
-3.44282e-08
6.13635e-06
-3.07876e-08
6.14158e-06
-2.68763e-08
6.14579e-06
-2.27431e-08
6.14893e-06
-1.84532e-08
6.15096e-06
-1.40788e-08
6.15188e-06
-9.66494e-09
6.15169e-06
-5.20487e-09
6.15042e-06
-7.19765e-10
6.14803e-06
3.71426e-09
6.14456e-06
8.06627e-09
6.14005e-06
1.22213e-08
6.1346e-06
1.60707e-08
6.12832e-06
1.95316e-08
6.12136e-06
2.25274e-08
6.1139e-06
2.50082e-08
6.1061e-06
2.69455e-08
6.09813e-06
2.83195e-08
6.09016e-06
2.91213e-08
6.08236e-06
2.93624e-08
6.07486e-06
2.90632e-08
6.06779e-06
2.82494e-08
6.06129e-06
2.69576e-08
6.05546e-06
2.52286e-08
6.05039e-06
2.31059e-08
6.04614e-06
2.06567e-08
6.04273e-06
1.79528e-08
6.04018e-06
1.50544e-08
6.03852e-06
1.2016e-08
6.03774e-06
8.88752e-09
6.03782e-06
5.72333e-09
6.0387e-06
2.58782e-09
6.0403e-06
-4.77191e-10
6.04255e-06
-3.42121e-09
6.04538e-06
-6.22707e-09
6.04871e-06
-8.91229e-09
6.0525e-06
-1.1479e-08
6.05669e-06
-1.39128e-08
6.06123e-06
-1.62113e-08
6.06607e-06
-1.83899e-08
6.07118e-06
-2.04483e-08
6.0765e-06
-2.23732e-08
6.08202e-06
-2.41632e-08
6.08772e-06