/*--------------------------------*- C++ -*----------------------------------*\
| =========                 |                                                 |
| \\      /  F ield         | OpenFOAM: The Open Source CFD Toolbox           |
|  \\    /   O peration     | Version:  2206                                  |
|   \\  /    A nd           | Website:  www.openfoam.com                      |
|    \\/     M anipulation  |                                                 |
\*---------------------------------------------------------------------------*/
FoamFile
{
    version     2.0;
    format      ascii;
    arch        "LSB;label=32;scalar=64";
    class       volVectorField;
    location    "19.5";
    object      ddt0(U);
}
// * * * * * * * * * * * * * * * * * * * * * * * * * * * * * * * * * * * * * //

dimensions      [0 1 -2 0 0 0 0];

internalField   nonuniform List<vector> 
3080
(
(-4.47016 54.0394 0)
(-0.653887 48.4124 0)
(3.11118 41.8727 0)
(6.75471 34.7901 0)
(10.1882 27.4563 0)
(13.6458 20.025 0)
(17.5243 12.4087 0)
(20.7044 4.83206 0)
(23.3823 -1.73242 0)
(25.231 -7.43251 0)
(26.1488 -12.3763 0)
(26.1862 -16.7143 0)
(25.429 -20.6668 0)
(24.0241 -24.4331 0)
(22.1316 -28.1286 0)
(19.8767 -31.7681 0)
(17.3446 -35.298 0)
(14.5904 -38.6122 0)
(11.652 -41.5586 0)
(8.56267 -43.9408 0)
(5.37295 -45.4891 0)
(2.17937 -45.7541 0)
(-0.889686 -44.9807 0)
(-3.776 -43.2075 0)
(-6.41239 -40.4815 0)
(-8.73121 -36.9056 0)
(-10.6826 -32.6315 0)
(-12.2444 -27.8425 0)
(-13.4246 -22.7226 0)
(-14.2606 -17.4146 0)
(-14.9295 -11.9452 0)
(-15.7344 -6.10997 0)
(-16.249 0.193306 0)
(-16.5504 6.59184 0)
(-16.6578 12.9813 0)
(-16.4843 19.1815 0)
(-16.1099 25.0498 0)
(-15.5834 30.497 0)
(-14.9186 35.4353 0)
(-14.111 39.7553 0)
(-13.1177 43.2827 0)
(-11.8107 45.7099 0)
(-9.97365 46.4753 0)
(-7.77075 45.8073 0)
(-5.42719 43.9633 0)
(-2.52166 41.1245 0)
(-0.594531 37.3565 0)
(2.38306 32.8982 0)
(5.2976 27.935 0)
(7.81721 22.7772 0)
(10.3623 17.4569 0)
(13.0033 12.002 0)
(15.4376 6.45694 0)
(17.2705 1.30343 0)
(18.6333 -3.32412 0)
(19.3498 -7.55222 0)
(19.4276 -11.4226 0)
(18.9216 -14.9995 0)
(17.9233 -18.3546 0)
(16.5416 -21.538 0)
(14.8694 -24.5545 0)
(12.9782 -27.369 0)
(10.9193 -29.918 0)
(8.72857 -32.1121 0)
(6.43499 -33.8301 0)
(4.07692 -34.8839 0)
(1.72176 -34.9776 0)
(-0.54444 -34.3487 0)
(-2.68813 -33.0035 0)
(-4.66318 -30.9763 0)
(-6.42147 -28.335 0)
(-7.92426 -25.1798 0)
(-9.14996 -21.6354 0)
(-10.0994 -17.8322 0)
(-10.7945 -13.8765 0)
(-11.3389 -9.80419 0)
(-11.9549 -5.50124 0)
(-12.4438 -0.852108 0)
(-12.6969 3.90733 0)
(-12.832 8.68066 0)
(-12.7332 13.3457 0)
(-12.4405 17.7798 0)
(-11.9904 21.8976 0)
(-11.3967 25.6222 0)
(-10.667 28.8745 0)
(-9.79326 31.5528 0)
(-8.73038 33.4943 0)
(-7.34946 34.3735 0)
(-5.69221 34.1654 0)
(-3.89891 33.1924 0)
(-1.93945 31.5365 0)
(0.17451 29.1716 0)
(2.2926 26.1393 0)
(4.29267 22.7189 0)
(6.16573 19.0987 0)
(7.92462 15.3118 0)
(9.61543 11.4021 0)
(11.2901 7.39099 0)
(12.6381 3.39285 0)
(13.6028 -0.344775 0)
(14.2002 -3.87291 0)
(14.3544 -7.22351 0)
(14.083 -10.3799 0)
(13.4376 -13.3421 0)
(12.4864 -16.1158 0)
(11.2942 -18.69 0)
(9.91566 -21.0366 0)
(8.39395 -23.1146 0)
(6.76186 -24.8687 0)
(5.04547 -26.2243 0)
(3.27464 -27.0636 0)
(1.49813 -27.1595 0)
(-0.215857 -26.7043 0)
(-1.84468 -25.7171 0)
(-3.35718 -24.2247 0)
(-4.72232 -22.2865 0)
(-5.90864 -19.9439 0)
(-6.91923 -17.3621 0)
(-7.71838 -14.4345 0)
(-8.30011 -11.6469 0)
(-8.9421 -8.26051 0)
(-9.35036 -5.62468 0)
(-9.88288 -0.137253 0)
(-3.77243 49.8117 0)
(0.725425 44.3234 0)
(5.05943 38.0093 0)
(9.13108 30.9478 0)
(13.3254 23.654 0)
(17.8387 16.1584 0)
(21.8512 8.55766 0)
(25.1661 1.87059 0)
(27.622 -3.82908 0)
(29.0582 -8.62787 0)
(29.5287 -12.6533 0)
(29.1031 -16.1501 0)
(27.9013 -19.3888 0)
(26.1014 -22.5984 0)
(23.8777 -25.8897 0)
(21.3438 -29.2356 0)
(18.5627 -32.5298 0)
(15.5738 -35.6426 0)
(12.4051 -38.4194 0)
(9.08844 -40.6725 0)
(5.67385 -42.159 0)
(2.25379 -42.4986 0)
(-1.04503 -41.8707 0)
(-4.16285 -40.3163 0)
(-7.0316 -37.8771 0)
(-9.58471 -34.6425 0)
(-11.7787 -30.7425 0)
(-13.6016 -26.3283 0)
(-15.0658 -21.5405 0)
(-16.228 -16.4709 0)
(-17.2686 -11.1086 0)
(-18.3157 -5.35107 0)
(-18.9188 0.714678 0)
(-19.374 6.84567 0)
(-19.5558 12.9718 0)
(-19.4438 18.9328 0)
(-19.093 24.5971 0)
(-18.5312 29.8637 0)
(-17.764 34.6226 0)
(-16.7759 38.7292 0)
(-15.4992 41.9571 0)
(-13.7401 43.909 0)
(-11.3733 44.1692 0)
(-8.66465 43.2232 0)
(-5.69972 41.2 0)
(-2.39116 38.2899 0)
(0.755938 34.4307 0)
(4.16107 29.8622 0)
(7.32162 24.9959 0)
(10.3967 19.9434 0)
(13.5525 14.6908 0)
(16.5206 9.31284 0)
(18.8347 4.25838 0)
(20.6099 -0.213358 0)
(21.6902 -4.21605 0)
(22.0791 -7.79139 0)
(21.8204 -11.0378 0)
(20.9814 -14.079 0)
(19.6693 -17.0079 0)
(18.0001 -19.8691 0)
(16.0693 -22.6455 0)
(13.9436 -25.2757 0)
(11.6654 -27.6796 0)
(9.26303 -29.7593 0)
(6.76444 -31.3945 0)
(4.21016 -32.4186 0)
(1.66918 -32.5695 0)
(-0.775522 -32.0434 0)
(-3.09226 -30.8477 0)
(-5.23597 -29.0162 0)
(-7.16179 -26.6115 0)
(-8.83724 -23.7215 0)
(-10.2473 -20.4489 0)
(-11.3968 -16.8926 0)
(-12.3197 -13.1219 0)
(-13.1274 -9.14331 0)
(-13.9325 -4.89388 0)
(-14.4694 -0.404535 0)
(-14.8331 4.14311 0)
(-15.0081 8.70394 0)
(-14.9423 13.1625 0)
(-14.6663 17.4088 0)
(-14.2004 21.357 0)
(-13.5506 24.9209 0)
(-12.7113 28.0029 0)
(-11.647 30.4729 0)
(-10.2549 32.1352 0)
(-8.41221 32.6083 0)
(-6.32123 32.2335 0)
(-4.05057 31.087 0)
(-1.62749 29.2588 0)
(0.881951 26.8255 0)
(3.36507 23.8933 0)
(5.7326 20.6106 0)
(7.967 17.0943 0)
(10.1158 13.4062 0)
(12.1856 9.60066 0)
(13.9233 5.80055 0)
(15.1927 2.24337 0)
(16.0549 -1.0516 0)
(16.4417 -4.14395 0)
(16.3643 -7.04799 0)
(15.8541 -9.79636 0)
(14.9679 -12.4193 0)
(13.7817 -14.9245 0)
(12.3651 -17.29 0)
(10.7735 -19.4764 0)
(9.04856 -21.432 0)
(7.22153 -23.0929 0)
(5.31771 -24.3823 0)
(3.36795 -25.1917 0)
(1.42631 -25.3304 0)
(-0.441729 -24.9468 0)
(-2.21763 -24.0664 0)
(-3.86936 -22.7094 0)
(-5.37093 -20.9421 0)
(-6.68526 -18.7732 0)
(-7.83673 -16.3966 0)
(-8.75708 -13.6296 0)
(-9.55959 -11.0179 0)
(-10.3136 -7.63187 0)
(-10.8534 -5.09208 0)
(-11.5163 0.210189 0)
(-2.35264 45.302 0)
(1.20891 39.7034 0)
(7.55849 33.2584 0)
(12.1161 26.3192 0)
(17.3659 19.0792 0)
(22.2335 11.5582 0)
(26.2622 4.81956 0)
(29.377 -0.869073 0)
(31.3647 -5.57049 0)
(32.2696 -9.3574 0)
(32.1817 -12.4333 0)
(31.1755 -15.0761 0)
(29.5553 -17.6682 0)
(27.4758 -20.4302 0)
(25.0053 -23.3832 0)
(22.2362 -26.4461 0)
(19.268 -29.5306 0)
(16.1084 -32.4637 0)
(12.7802 -35.0838 0)
(9.30961 -37.2142 0)
(5.74137 -38.6389 0)
(2.16618 -39.0491 0)
(-1.2952 -38.5585 0)
(-4.58672 -37.2151 0)
(-7.64471 -35.0546 0)
(-10.4075 -32.1521 0)
(-12.8346 -28.6117 0)
(-14.9108 -24.5483 0)
(-16.6541 -20.0614 0)
(-18.1391 -15.2055 0)
(-19.5067 -9.97981 0)
(-20.6735 -4.41073 0)
(-21.4521 1.34639 0)
(-22.0169 7.19314 0)
(-22.2669 13.0341 0)
(-22.2112 18.7223 0)
(-21.8811 24.1368 0)
(-21.2883 29.1649 0)
(-20.4263 33.6728 0)
(-19.2518 37.4743 0)
(-17.6177 40.2793 0)
(-15.2437 41.5268 0)
(-12.3078 41.3836 0)
(-9.00827 40.0896 0)
(-5.4226 37.7942 0)
(-1.59968 34.665 0)
(2.30753 30.7876 0)
(6.1087 26.3514 0)
(9.78107 21.6012 0)
(13.4791 16.632 0)
(16.9817 11.4844 0)
(19.8249 6.59482 0)
(22.056 2.30085 0)
(23.5248 -1.48725 0)
(24.2466 -4.79663 0)
(24.2673 -7.69783 0)
(23.6456 -10.33 0)
(22.4769 -12.8501 0)
(20.8892 -15.3745 0)
(18.9868 -17.9349 0)
(16.8591 -20.4965 0)
(14.5587 -22.9684 0)
(12.1154 -25.242 0)
(9.5579 -27.2166 0)
(6.91016 -28.7781 0)
(4.20946 -29.7808 0)
(1.52533 -30.0012 0)
(-1.0612 -29.5818 0)
(-3.52005 -28.5398 0)
(-5.8077 -26.9055 0)
(-7.88189 -24.7328 0)
(-9.71549 -22.0946 0)
(-11.3004 -19.0722 0)
(-12.6483 -15.7369 0)
(-13.8031 -12.1323 0)
(-14.8523 -8.26485 0)
(-15.7807 -4.15006 0)
(-16.3996 0.114619 0)
(-16.8553 4.43868 0)
(-17.0756 8.77237 0)
(-17.0496 13.0058 0)
(-16.7942 17.0393 0)
(-16.3134 20.7815 0)
(-15.598 24.131 0)
(-14.6159 26.9641 0)
(-13.2757 29.112 0)
(-11.4075 30.2508 0)
(-9.11433 30.4275 0)
(-6.57207 29.8229 0)
(-3.83978 28.5145 0)
(-0.988726 26.5921 0)
(1.89196 24.148 0)
(4.7137 21.2843 0)
(7.42887 18.1088 0)
(10.0543 14.7142 0)
(12.5592 11.1768 0)
(14.6765 7.62103 0)
(16.3147 4.30221 0)
(17.4807 1.25408 0)
(18.1327 -1.57274 0)
(18.2911 -4.19217 0)
(17.9786 -6.64303 0)
(17.2346 -8.98467 0)
(16.1295 -11.2689 0)
(14.7438 -13.511 0)
(13.1447 -15.6817 0)
(11.3814 -17.7219 0)
(9.49295 -19.564 0)
(7.51078 -21.1397 0)
(5.45982 -22.3718 0)
(3.37085 -23.1634 0)
(1.30018 -23.3616 0)
(-0.691379 -23.0569 0)
(-2.58681 -22.2889 0)
(-4.3548 -21.0704 0)
(-5.9766 -19.4715 0)
(-7.41003 -17.4753 0)
(-8.69545 -15.287 0)
(-9.75724 -12.6802 0)
(-10.7373 -10.1735 0)
(-11.6465 -6.89566 0)
(-12.2905 -4.45179 0)
(-13.0575 0.627913 0)
(-1.60684 40.3089 0)
(4.61359 34.3941 0)
(10.4737 27.7281 0)
(16.1696 20.9754 0)
(21.8209 13.706 0)
(26.6591 7.03031 0)
(30.4581 1.40892 0)
(33.0232 -3.17383 0)
(34.3805 -6.73873 0)
(34.5955 -9.43676 0)
(33.753 -11.554 0)
(32.3228 -13.5501 0)
(30.4083 -15.6712 0)
(28.1072 -18.0331 0)
(25.4941 -20.6754 0)
(22.6183 -23.5297 0)
(19.5026 -26.3905 0)
(16.2437 -29.1537 0)
(12.8222 -31.6267 0)
(9.25305 -33.635 0)
(5.58544 -34.9965 0)
(1.91212 -35.4756 0)
(-1.6568 -35.1109 0)
(-5.06889 -33.9607 0)
(-8.26763 -32.0541 0)
(-11.1991 -29.4526 0)
(-13.8309 -26.2375 0)
(-16.1543 -22.4921 0)
(-18.1908 -18.2816 0)
(-20.0052 -13.6477 0)
(-21.628 -8.63794 0)
(-22.8564 -3.3455 0)
(-23.8029 2.09174 0)
(-24.4569 7.6342 0)
(-24.7775 13.1637 0)
(-24.7773 18.5491 0)
(-24.4674 23.6728 0)
(-23.8439 28.4049 0)
(-22.8685 32.5759 0)
(-21.4105 35.9319 0)
(-19.1656 37.9793 0)
(-16.1228 38.5513 0)
(-12.577 37.9614 0)
(-8.64123 36.3248 0)
(-4.43765 33.7991 0)
(-0.101901 30.5384 0)
(4.21536 26.6724 0)
(8.46765 22.3573 0)
(12.7575 17.7365 0)
(16.7955 12.8595 0)
(20.1919 8.21889 0)
(22.9177 4.15878 0)
(24.7989 0.620671 0)
(25.8584 -2.40554 0)
(26.1529 -4.96703 0)
(25.6733 -7.17252 0)
(24.6778 -9.2428 0)
(23.2735 -11.3329 0)
(21.5396 -13.532 0)
(19.5335 -15.8563 0)
(17.2891 -18.2244 0)
(14.8663 -20.5254 0)
(12.3295 -22.6811 0)
(9.67702 -24.559 0)
(6.93055 -26.046 0)
(4.12888 -27.0203 0)
(1.34169 -27.3108 0)
(-1.35318 -26.9916 0)
(-3.927 -26.0965 0)
(-6.34126 -24.6508 0)
(-8.55894 -22.6991 0)
(-10.5581 -20.2981 0)
(-12.3316 -17.506 0)
(-13.8923 -14.3718 0)
(-15.2813 -10.9305 0)
(-16.5268 -7.22185 0)
(-17.5069 -3.3116 0)
(-18.2434 0.706804 0)
(-18.7687 4.80159 0)
(-19.0394 8.89482 0)
(-19.0547 12.8841 0)
(-18.8137 16.673 0)
(-18.3025 20.158 0)
(-17.4819 23.2163 0)
(-16.2561 25.6908 0)
(-14.4423 27.2842 0)
(-12.0651 27.9207 0)
(-9.33822 27.7926 0)
(-6.35348 26.9592 0)
(-3.19987 25.5089 0)
(0.0257897 23.53 0)
(3.23266 21.1067 0)
(6.37184 18.3269 0)
(9.45308 15.2866 0)
(12.3951 12.0577 0)
(14.8805 8.77831 0)
(16.9165 5.7612 0)
(18.4064 2.99457 0)
(19.3362 0.451332 0)
(19.7377 -1.86879 0)
(19.6268 -3.99219 0)
(19.0344 -5.9846 0)
(18.0967 -7.9496 0)
(16.8576 -9.93844 0)
(15.3634 -11.9523 0)
(13.6385 -13.925 0)
(11.7686 -15.8223 0)
(9.78374 -17.5657 0)
(7.70306 -19.0654 0)
(5.55182 -20.2439 0)
(3.36227 -21.0195 0)
(1.1888 -21.2779 0)
(-0.910325 -21.0536 0)
(-2.91494 -20.3978 0)
(-4.79404 -19.3179 0)
(-6.53836 -17.8833 0)
(-8.09333 -16.0542 0)
(-9.52626 -14.036 0)
(-10.7476 -11.5817 0)
(-11.8945 -9.17507 0)
(-12.9241 -6.03975 0)
(-13.6571 -3.71813 0)
(-14.5126 1.10433 0)
(1.84768 34.4795 0)
(8.18833 28.3396 0)
(14.6547 21.8476 0)
(20.8602 14.8823 0)
(26.4008 8.41924 0)
(30.8769 2.93364 0)
(33.9921 -1.47877 0)
(35.7842 -4.79213 0)
(36.3024 -7.12057 0)
(35.6598 -8.76098 0)
(34.3854 -10.1974 0)
(32.6045 -11.7091 0)
(30.4555 -13.4508 0)
(28.0252 -15.5032 0)
(25.3467 -17.8688 0)
(22.4368 -20.4827 0)
(19.3143 -23.1977 0)
(15.9909 -25.7731 0)
(12.5365 -28.096 0)
(8.93483 -29.984 0)
(5.22362 -31.2805 0)
(1.49741 -31.822 0)
(-2.14 -31.5718 0)
(-5.63608 -30.5998 0)
(-8.94539 -28.9223 0)
(-12.022 -26.5844 0)
(-14.8386 -23.6458 0)
(-17.3887 -20.1683 0)
(-19.6914 -16.2079 0)
(-21.7629 -11.829 0)
(-23.4897 -7.11395 0)
(-24.8744 -2.17965 0)
(-25.9555 2.93631 0)
(-26.6935 8.15758 0)
(-27.0894 13.3558 0)
(-27.144 18.4127 0)
(-26.8479 23.2012 0)
(-26.1577 27.5589 0)
(-24.9381 31.2446 0)
(-22.8724 33.7985 0)
(-19.8447 34.9381 0)
(-16.1741 34.952 0)
(-11.9964 33.904 0)
(-7.46875 31.9581 0)
(-2.75956 29.2666 0)
(1.9711 25.9571 0)
(6.68895 22.1557 0)
(11.502 17.9571 0)
(16.0243 13.3773 0)
(19.9508 9.06165 0)
(23.1377 5.29584 0)
(25.419 2.05889 0)
(26.8143 -0.637708 0)
(27.3856 -2.83017 0)
(27.0911 -4.62258 0)
(26.2834 -6.25938 0)
(25.0545 -7.92053 0)
(23.5018 -9.69431 0)
(21.6831 -11.6137 0)
(19.6288 -13.6809 0)
(17.3621 -15.8565 0)
(14.9074 -18.0283 0)
(12.3012 -20.0424 0)
(9.60063 -21.8198 0)
(6.80338 -23.2332 0)
(3.94193 -24.1775 0)
(1.08584 -24.5332 0)
(-1.68955 -24.3082 0)
(-4.35354 -23.5498 0)
(-6.8746 -22.2742 0)
(-9.22126 -20.5157 0)
(-11.3749 -18.3178 0)
(-13.331 -15.7251 0)
(-15.1009 -12.7804 0)
(-16.6939 -9.53287 0)
(-18.0387 -6.04177 0)
(-19.1171 -2.39239 0)
(-19.9762 1.37767 0)
(-20.5771 5.22505 0)
(-20.9076 9.05795 0)
(-20.9572 12.7789 0)
(-20.7049 16.2837 0)
(-20.1047 19.4474 0)
(-19.043 22.098 0)
(-17.3069 23.9298 0)
(-14.9323 24.8991 0)
(-12.1128 25.1512 0)
(-8.95423 24.7173 0)
(-5.5679 23.6841 0)
(-2.06981 22.1331 0)
(1.43787 20.1361 0)
(4.91548 17.7697 0)
(8.38747 15.1109 0)
(11.6847 12.1821 0)
(14.5577 9.24461 0)
(16.9609 6.56507 0)
(18.769 4.12028 0)
(19.9782 1.90655 0)
(20.6252 -0.0784741 0)
(20.6964 -1.85407 0)
(20.2879 -3.49819 0)
(19.5357 -5.12581 0)
(18.4864 -6.79665 0)
(17.1804 -8.5227 0)
(15.6467 -10.3007 0)
(13.9099 -12.1084 0)
(11.9926 -13.8719 0)
(9.93368 -15.4892 0)
(7.7928 -16.9072 0)
(5.58034 -18.0338 0)
(3.32349 -18.7908 0)
(1.0737 -19.1008 0)
(-1.11094 -18.9523 0)
(-3.20582 -18.4023 0)
(-5.18525 -17.4532 0)
(-7.04722 -16.1628 0)
(-8.72546 -14.4878 0)
(-10.33 -12.6194 0)
(-11.6978 -10.3176 0)
(-12.9908 -8.02948 0)
(-14.1116 -5.0877 0)
(-14.9407 -2.90573 0)
(-15.8858 1.62585 0)
(5.48247 27.7876 0)
(12.7063 21.8741 0)
(19.5761 15.1322 0)
(25.6956 8.93901 0)
(30.7116 3.70496 0)
(34.2936 -0.472772 0)
(36.439 -3.50133 0)
(37.2125 -5.46282 0)
(36.7323 -6.64778 0)
(35.5861 -7.54338 0)
(33.9352 -8.47366 0)
(31.9464 -9.62924 0)
(29.7129 -11.106 0)
(27.2739 -12.9335 0)
(24.6322 -15.0798 0)
(21.7742 -17.4653 0)
(18.6966 -19.967 0)
(15.4182 -22.4057 0)
(11.9667 -24.5591 0)
(8.39033 -26.3218 0)
(4.69157 -27.5455 0)
(0.945081 -28.1287 0)
(-2.74261 -27.9754 0)
(-6.30286 -27.145 0)
(-9.70104 -25.658 0)
(-12.9068 -23.5474 0)
(-15.8971 -20.8586 0)
(-18.6552 -17.642 0)
(-21.157 -13.951 0)
(-23.3027 -9.85117 0)
(-25.1514 -5.48301 0)
(-26.6835 -0.87877 0)
(-27.8787 3.90447 0)
(-28.7228 8.77016 0)
(-29.1994 13.6136 0)
(-29.2939 18.3052 0)
(-28.9506 22.6824 0)
(-28.0129 26.5025 0)
(-26.1334 29.3006 0)
(-23.1953 30.8176 0)
(-19.4984 31.2743 0)
(-15.1755 30.7042 0)
(-10.4163 29.2566 0)
(-5.42517 27.083 0)
(-0.383219 24.3059 0)
(4.68825 21.0423 0)
(9.9183 17.3209 0)
(14.8196 13.0789 0)
(19.1803 9.13922 0)
(22.7373 5.70964 0)
(25.3468 2.81447 0)
(27.0281 0.481358 0)
(27.8448 -1.32289 0)
(27.7622 -2.70035 0)
(27.1477 -3.89609 0)
(26.1228 -5.11837 0)
(24.7774 -6.46314 0)
(23.1772 -7.97441 0)
(21.3556 -9.66603 0)
(19.3257 -11.5198 0)
(17.0916 -13.4864 0)
(14.6654 -15.4871 0)
(12.0741 -17.3965 0)
(9.3523 -19.0532 0)
(6.54843 -20.3872 0)
(3.6691 -21.2921 0)
(0.768079 -21.6953 0)
(-2.07832 -21.5477 0)
(-4.82472 -20.903 0)
(-7.44638 -19.7748 0)
(-9.92033 -18.1889 0)
(-12.2284 -16.179 0)
(-14.3573 -13.7822 0)
(-16.2873 -11.0381 0)
(-17.9538 -7.99838 0)
(-19.3979 -4.76632 0)
(-20.6035 -1.3674 0)
(-21.5549 2.15811 0)
(-22.2353 5.73517 0)
(-22.6206 9.27622 0)
(-22.6746 12.6809 0)
(-22.3309 15.8236 0)
(-21.4567 18.5071 0)
(-19.7952 20.4061 0)
(-17.4857 21.5771 0)
(-14.6494 22.0792 0)
(-11.3988 21.9452 0)
(-7.86333 21.2468 0)
(-4.17912 20.0716 0)
(-0.464156 18.477 0)
(3.24626 16.5207 0)
(6.99503 14.241 0)
(10.5497 11.6143 0)
(13.7365 9.04866 0)
(16.4194 6.71423 0)
(18.4905 4.61238 0)
(19.9469 2.76025 0)
(20.8219 1.14378 0)
(21.1239 -0.268411 0)
(20.9255 -1.55581 0)
(20.387 -2.83631 0)
(19.5504 -4.17673 0)
(18.4617 -5.59738 0)
(17.1492 -7.09818 0)
(15.628 -8.66375 0)
(13.9086 -10.2657 0)
(12.0054 -11.8645 0)
(9.9466 -13.3854 0)
(7.76903 -14.7093 0)
(5.52818 -15.7727 0)
(3.24172 -16.5052 0)
(0.939545 -16.8489 0)
(-1.32226 -16.775 0)
(-3.50538 -16.313 0)
(-5.58666 -15.4795 0)
(-7.56469 -14.3157 0)
(-9.38815 -12.8018 0)
(-11.1222 -11.0427 0)
(-12.6014 -8.9312 0)
(-14.0035 -6.7824 0)
(-15.177 -4.05505 0)
(-16.119 -1.99433 0)
(-17.1231 2.1994 0)
(10.5886 20.6983 0)
(17.9739 14.401 0)
(24.6299 8.61175 0)
(30.0287 3.73363 0)
(33.9095 -0.104067 0)
(36.2769 -2.79169 0)
(37.1902 -4.37256 0)
(36.8018 -5.1221 0)
(35.7545 -5.52802 0)
(34.236 -5.94264 0)
(32.4129 -6.55908 0)
(30.388 -7.48814 0)
(28.2067 -8.78082 0)
(25.8743 -10.4293 0)
(23.368 -12.3795 0)
(20.6524 -14.5472 0)
(17.7011 -16.8241 0)
(14.5196 -19.0688 0)
(11.1447 -21.0888 0)
(7.62105 -22.7 0)
(3.97913 -23.8239 0)
(0.258458 -24.3806 0)
(-3.45258 -24.3236 0)
(-7.07612 -23.6363 0)
(-10.5628 -22.3193 0)
(-13.871 -20.3946 0)
(-16.9651 -17.9077 0)
(-19.816 -14.927 0)
(-22.3993 -11.5339 0)
(-24.6876 -7.78946 0)
(-26.6611 -3.74143 0)
(-28.307 0.541732 0)
(-29.6087 4.97835 0)
(-30.5409 9.47611 0)
(-31.0619 13.9224 0)
(-31.0888 18.1664 0)
(-30.4371 21.9305 0)
(-28.701 24.7263 0)
(-25.8887 26.4281 0)
(-22.2206 27.1513 0)
(-17.8314 26.9255 0)
(-12.9295 25.8685 0)
(-7.76125 24.1448 0)
(-2.53556 21.8605 0)
(2.74641 19.1217 0)
(8.2266 15.8621 0)
(13.39 12.04 0)
(18.019 8.5258 0)
(21.7953 5.47293 0)
(24.598 2.95048 0)
(26.4534 1.00062 0)
(27.4345 -0.411534 0)
(27.5447 -1.38985 0)
(27.1159 -2.16983 0)
(26.303 -2.96535 0)
(25.1886 -3.88392 0)
(23.8374 -4.97902 0)
(22.2847 -6.2758 0)
(20.5437 -7.76827 0)
(18.6123 -9.42381 0)
(16.481 -11.1899 0)
(14.1451 -12.9957 0)
(11.6198 -14.7461 0)
(8.94427 -16.3119 0)
(6.15868 -17.5423 0)
(3.30031 -18.3848 0)
(0.389989 -18.783 0)
(-2.51049 -18.7165 0)
(-5.34266 -18.1809 0)
(-8.06905 -17.1819 0)
(-10.6558 -15.7408 0)
(-13.0732 -13.8911 0)
(-15.3001 -11.6798 0)
(-17.3213 -9.16384 0)
(-19.1179 -6.38998 0)
(-20.6735 -3.39807 0)
(-21.9745 -0.241989 0)
(-23.0002 3.01295 0)
(-23.717 6.29251 0)
(-24.0729 9.50053 0)
(-23.975 12.4969 0)
(-23.2532 15.0544 0)
(-21.6806 16.9044 0)
(-19.4673 18.1406 0)
(-16.6672 18.7663 0)
(-13.3958 18.8157 0)
(-9.79755 18.3622 0)
(-6.03045 17.4919 0)
(-2.22665 16.2546 0)
(1.59048 14.692 0)
(5.48337 12.787 0)
(9.17476 10.4809 0)
(12.5277 8.28308 0)
(15.3576 6.29141 0)
(17.581 4.53481 0)
(19.1988 3.04128 0)
(20.2418 1.79092 0)
(20.7643 0.736472 0)
(20.771 -0.198857 0)
(20.462 -1.12117 0)
(19.866 -2.11256 0)
(19.0266 -3.2033 0)
(17.9723 -4.40062 0)
(16.7176 -5.69615 0)
(15.2683 -7.06654 0)
(13.6251 -8.47852 0)
(11.7905 -9.89341 0)
(9.77938 -11.2616 0)
(7.62845 -12.5046 0)
(5.38644 -13.5076 0)
(3.09456 -14.1932 0)
(0.771703 -14.5326 0)
(-1.54829 -14.5116 0)
(-3.81859 -14.1347 0)
(-6.00448 -13.4069 0)
(-8.08385 -12.3476 0)
(-10.0273 -10.977 0)
(-11.8393 -9.34937 0)
(-13.4338 -7.45582 0)
(-14.9248 -5.45682 0)
(-16.151 -2.95482 0)
(-17.2125 -0.999445 0)
(-18.1543 2.76093 0)
(16.539 12.724 0)
(23.4466 7.531 0)
(28.9783 3.12984 0)
(32.9011 -0.274312 0)
(35.2583 -2.54121 0)
(36.1119 -3.71304 0)
(35.7176 -4.06651 0)
(34.7216 -4.06832 0)
(33.3167 -4.05065 0)
(31.6674 -4.19751 0)
(29.8744 -4.63275 0)
(27.981 -5.42896 0)
(25.9905 -6.59767 0)
(23.8765 -8.0994 0)
(21.5938 -9.86129 0)
(19.0934 -11.798 0)
(16.3375 -13.8246 0)
(13.3184 -15.837 0)
(10.0703 -17.6816 0)
(6.64468 -19.1608 0)
(3.08769 -20.1744 0)
(-0.561847 -20.6906 0)
(-4.2405 -20.6526 0)
(-7.87533 -20.0455 0)
(-11.4052 -18.871 0)
(-14.7772 -17.1434 0)
(-17.9482 -14.898 0)
(-20.8832 -12.1873 0)
(-23.5563 -9.07116 0)
(-25.9456 -5.60964 0)
(-28.0268 -1.8711 0)
(-29.7697 2.07206 0)
(-31.134 6.14196 0)
(-32.055 10.2329 0)
(-32.4094 14.1772 0)
(-31.9801 17.6782 0)
(-30.2945 20.2649 0)
(-27.6018 21.9764 0)
(-23.9735 22.801 0)
(-19.5708 22.7655 0)
(-14.6196 21.9827 0)
(-9.4014 20.6219 0)
(-4.1425 18.7859 0)
(1.19716 16.5665 0)
(6.74789 13.7487 0)
(11.9732 10.3939 0)
(16.6316 7.35107 0)
(20.4061 4.72536 0)
(23.2041 2.60512 0)
(25.0672 1.04168 0)
(26.0864 0.0013664 0)
(26.3081 -0.619863 0)
(26.0237 -1.03397 0)
(25.4101 -1.44285 0)
(24.5395 -1.96263 0)
(23.4687 -2.65702 0)
(22.2267 -3.56198 0)
(20.8217 -4.68296 0)
(19.2474 -5.99696 0)
(17.4876 -7.46139 0)
(15.5229 -9.02298 0)
(13.3394 -10.6225 0)
(10.9392 -12.1865 0)
(8.35162 -13.6102 0)
(5.62809 -14.7594 0)
(2.80745 -15.5155 0)
(-0.0790463 -15.876 0)
(-2.99086 -15.8218 0)
(-5.86998 -15.3493 0)
(-8.66903 -14.464 0)
(-11.3437 -13.1802 0)
(-13.854 -11.5196 0)
(-16.1732 -9.51509 0)
(-18.2846 -7.21183 0)
(-20.1701 -4.66011 0)
(-21.8037 -1.91554 0)
(-23.1508 0.962032 0)
(-24.1633 3.90327 0)
(-24.7722 6.81627 0)
(-24.866 9.5394 0)
(-24.2024 11.8258 0)
(-22.7339 13.5472 0)
(-20.6013 14.7332 0)
(-17.863 15.3756 0)
(-14.6318 15.5079 0)
(-11.0604 15.2109 0)
(-7.32242 14.569 0)
(-3.56337 13.6391 0)
(0.210205 12.4415 0)
(4.07625 10.8823 0)
(7.75663 8.93308 0)
(11.0899 7.09892 0)
(13.8935 5.44989 0)
(16.1081 4.02987 0)
(17.7481 2.86956 0)
(18.8517 1.94788 0)
(19.4846 1.21346 0)
(19.691 0.601023 0)
(19.5767 0.0147685 0)
(19.228 -0.638969 0)
(18.6653 -1.40138 0)
(17.9094 -2.2857 0)
(16.9684 -3.2897 0)
(15.842 -4.39589 0)
(14.5258 -5.57519 0)
(13.0134 -6.79322 0)
(11.3011 -8.01655 0)
(9.39432 -9.21097 0)
(7.31713 -10.3213 0)
(5.11774 -11.2534 0)
(2.84522 -11.8929 0)
(0.526677 -12.1987 0)
(-1.81592 -12.1867 0)
(-4.13862 -11.8579 0)
(-6.39759 -11.217 0)
(-8.55851 -10.2779 0)
(-10.5909 -9.05643 0)
(-12.4741 -7.59103 0)
(-14.1625 -5.8904 0)
(-15.6939 -4.04187 0)
(-16.9412 -1.78979 0)
(-18.044 0.0202082 0)
(-18.7082 3.19681 0)
(22.3766 5.79535 0)
(27.6428 2.05795 0)
(31.2544 -0.777358 0)
(33.2942 -2.54269 0)
(33.8221 -3.28113 0)
(33.3127 -3.3068 0)
(32.3006 -3.01874 0)
(30.9805 -2.68587 0)
(29.5094 -2.47274 0)
(27.9769 -2.5068 0)
(26.4174 -2.87404 0)
(24.8247 -3.60439 0)
(23.1621 -4.67797 0)
(21.3746 -6.03822 0)
(19.3998 -7.60653 0)
(17.1797 -9.30116 0)
(14.6715 -11.055 0)
(11.8603 -12.8033 0)
(8.77154 -14.4286 0)
(5.46395 -15.7416 0)
(2.00354 -16.6094 0)
(-1.54512 -17.0455 0)
(-5.14193 -16.996 0)
(-8.72859 -16.4506 0)
(-12.2399 -15.3976 0)
(-15.6213 -13.8375 0)
(-18.8317 -11.7986 0)
(-21.8335 -9.3272 0)
(-24.5889 -6.47924 0)
(-27.0583 -3.31662 0)
(-29.1924 0.088822 0)
(-30.9201 3.65484 0)
(-32.1415 7.27888 0)
(-32.6992 10.7653 0)
(-32.2764 13.7858 0)
(-30.6188 16.0533 0)
(-27.9565 17.5942 0)
(-24.3481 18.3716 0)
(-19.9667 18.4044 0)
(-15.066 17.8041 0)
(-9.95642 16.7234 0)
(-4.86592 15.2925 0)
(0.344874 13.5766 0)
(5.75039 11.1617 0)
(10.7661 8.32611 0)
(15.1625 5.81525 0)
(18.6552 3.67305 0)
(21.1983 1.98498 0)
(22.8594 0.798775 0)
(23.7501 0.0875754 0)
(23.9513 -0.244455 0)
(23.7466 -0.377907 0)
(23.2917 -0.486691 0)
(22.6532 -0.681407 0)
(21.8756 -1.02922 0)
(20.9758 -1.5745 0)
(19.951 -2.33473 0)
(18.7848 -3.29984 0)
(17.4526 -4.43803 0)
(15.9275 -5.70314 0)
(14.1843 -7.04324 0)
(12.2056 -8.40906 0)
(9.98913 -9.75121 0)
(7.55243 -10.9933 0)
(4.93746 -12.0143 0)
(2.18624 -12.6764 0)
(-0.654878 -12.9763 0)
(-3.54857 -12.9199 0)
(-6.43734 -12.4907 0)
(-9.26522 -11.6962 0)
(-11.9788 -10.5529 0)
(-14.5338 -9.07071 0)
(-16.903 -7.2648 0)
(-19.0614 -5.17673 0)
(-20.9686 -2.86964 0)
(-22.5693 -0.410307 0)
(-23.7966 2.12913 0)
(-24.5603 4.64529 0)
(-24.7359 6.97722 0)
(-24.0333 8.90145 0)
(-22.6437 10.3998 0)
(-20.5785 11.4452 0)
(-17.9196 12.0257 0)
(-14.7904 12.1733 0)
(-11.3507 11.9659 0)
(-7.78133 11.4934 0)
(-4.22828 10.821 0)
(-0.665944 9.96092 0)
(2.99537 8.72789 0)
(6.45835 7.13691 0)
(9.56213 5.67671 0)
(12.1439 4.38033 0)
(14.1691 3.2891 0)
(15.6687 2.43144 0)
(16.6934 1.78896 0)
(17.3151 1.31571 0)
(17.6068 0.956471 0)
(17.6292 0.634531 0)
(17.4872 0.265057 0)
(17.1892 -0.205687 0)
(16.7418 -0.795401 0)
(16.1417 -1.50768 0)
(15.3789 -2.33468 0)
(14.44 -3.25591 0)
(13.3117 -4.24175 0)
(11.9821 -5.25856 0)
(10.4435 -6.27614 0)
(8.69645 -7.27384 0)
(6.75562 -8.22161 0)
(4.65686 -9.04214 0)
(2.44678 -9.61477 0)
(0.163999 -9.86392 0)
(-2.16176 -9.84176 0)
(-4.48732 -9.54838 0)
(-6.76311 -8.98225 0)
(-8.94784 -8.15106 0)
(-11.0079 -7.06941 0)
(-12.9014 -5.77167 0)
(-14.5956 -4.26435 0)
(-16.1059 -2.62173 0)
(-17.2271 -0.69001 0)
(-18.1933 0.871958 0)
(-18.3275 3.33869 0)
(25.9231 0.815032 0)
(28.7862 -1.30313 0)
(30.1698 -2.48945 0)
(30.1205 -2.829 0)
(29.4318 -2.63696 0)
(28.3522 -2.19769 0)
(27.0981 -1.70189 0)
(25.8098 -1.28217 0)
(24.5589 -1.05624 0)
(23.3664 -1.11084 0)
(22.213 -1.48631 0)
(21.0477 -2.17935 0)
(19.8019 -3.15126 0)
(18.4028 -4.33895 0)
(16.7832 -5.6674 0)
(14.889 -7.06549 0)
(12.6825 -8.48701 0)
(10.147 -9.91043 0)
(7.29389 -11.2681 0)
(4.14694 -12.3895 0)
(0.80849 -13.1656 0)
(-2.60425 -13.5679 0)
(-6.12278 -13.4836 0)
(-9.65289 -12.9668 0)
(-13.1255 -12.0009 0)
(-16.4833 -10.567 0)
(-19.6835 -8.68931 0)
(-22.6736 -6.42324 0)
(-25.3907 -3.83435 0)
(-27.7611 -0.993437 0)
(-29.6849 2.01102 0)
(-31.012 5.04565 0)
(-31.5461 7.9038 0)
(-30.88 10.3023 0)
(-29.1687 12.1403 0)
(-26.4614 13.3706 0)
(-22.8716 13.9763 0)
(-18.5991 13.9967 0)
(-13.9205 13.5287 0)
(-9.154 12.7042 0)
(-4.45921 11.684 0)
(0.419506 10.4244 0)
(5.34245 8.31762 0)
(9.82463 6.10807 0)
(13.6177 4.19018 0)
(16.525 2.57392 0)
(18.5608 1.33238 0)
(19.8194 0.509875 0)
(20.4277 0.0773933 0)
(20.4751 -0.0532151 0)
(20.2786 -0.0183969 0)
(19.9223 0.051756 0)
(19.4721 0.0703554 0)
(18.9599 -0.0248674 0)
(18.3904 -0.282383 0)
(17.7498 -0.729524 0)
(17.0117 -1.36945 0)
(16.1414 -2.18476 0)
(15.102 -3.14225 0)
(13.8594 -4.19853 0)
(12.3853 -5.30728 0)
(10.6613 -6.42931 0)
(8.68251 -7.53303 0)
(6.45581 -8.5615 0)
(4.0019 -9.40917 0)
(1.3579 -9.93398 0)
(-1.38841 -10.1366 0)
(-4.18979 -10.0492 0)
(-7.01383 -9.64817 0)
(-9.81404 -8.93284 0)
(-12.5086 -7.90598 0)
(-15.0132 -6.57256 0)
(-17.2854 -4.95993 0)
(-19.3013 -3.12736 0)
(-21.0039 -1.14501 0)
(-22.2974 0.919127 0)
(-23.0711 2.95083 0)
(-23.1352 4.78651 0)
(-22.4144 6.30365 0)
(-21.0502 7.49379 0)
(-19.0664 8.33887 0)
(-16.5484 8.81531 0)
(-13.6273 8.94757 0)
(-10.4655 8.80871 0)
(-7.24195 8.48267 0)
(-4.08968 8.03232 0)
(-0.930212 7.46971 0)
(2.31568 6.51991 0)
(5.3326 5.30408 0)
(7.98569 4.22681 0)
(10.147 3.28384 0)
(11.8135 2.50664 0)
(13.0317 1.91796 0)
(13.8607 1.5027 0)
(14.3737 1.2252 0)
(14.65 1.03993 0)
(14.7368 0.891169 0)
(14.7211 0.716074 0)
(14.6166 0.463345 0)
(14.4225 0.110121 0)
(14.1278 -0.352171 0)
(13.7128 -0.922367 0)
(13.1534 -1.58834 0)
(12.4262 -2.32965 0)
(11.5115 -3.1196 0)
(10.3948 -3.92863 0)
(9.06726 -4.73145 0)
(7.5287 -5.51532 0)
(5.78979 -6.27193 0)
(3.87208 -6.94815 0)
(1.80521 -7.4159 0)
(-0.36122 -7.58545 0)
(-2.5828 -7.53518 0)
(-4.81557 -7.26154 0)
(-7.00536 -6.75936 0)
(-9.10281 -6.03386 0)
(-11.0617 -5.1012 0)
(-12.8172 -3.99091 0)
(-14.363 -2.70562 0)
(-15.6232 -1.34398 0)
(-16.3909 0.16203 0)
(-17.0174 1.35543 0)
(-16.4927 3.06031 0)
(23.3067 -0.168684 0)
(25.0498 -1.50505 0)
(25.4306 -2.12802 0)
(24.9504 -2.18578 0)
(24.0377 -1.90403 0)
(22.914 -1.4597 0)
(21.7504 -0.951049 0)
(20.6568 -0.479178 0)
(19.6857 -0.143843 0)
(18.8478 -0.020602 0)
(18.118 -0.151883 0)
(17.4421 -0.547111 0)
(16.7458 -1.18668 0)
(15.9465 -2.02942 0)
(14.964 -3.02149 0)
(13.7308 -4.10502 0)
(12.1962 -5.22524 0)
(10.3218 -6.33359 0)
(8.09483 -7.42739 0)
(5.52508 -8.4673 0)
(2.58711 -9.33414 0)
(-0.337653 -9.85226 0)
(-4.07967 -10.0558 0)
(-7.37405 -9.91549 0)
(-10.7313 -9.41836 0)
(-14.009 -8.52898 0)
(-17.1325 -7.24116 0)
(-20.0672 -5.58396 0)
(-22.7467 -3.61077 0)
(-25.0643 -1.38576 0)
(-26.8802 0.995707 0)
(-28.0224 3.33346 0)
(-28.1794 5.40972 0)
(-27.2417 7.13246 0)
(-25.3843 8.46424 0)
(-22.6623 9.33691 0)
(-19.2174 9.74415 0)
(-15.2754 9.74026 0)
(-11.1214 9.41532 0)
(-7.03293 8.88746 0)
(-2.99927 8.28077 0)
(1.26328 7.28282 0)
(5.31153 5.61085 0)
(8.8731 4.08083 0)
(11.7224 2.77795 0)
(13.7873 1.68973 0)
(15.1371 0.877647 0)
(15.8823 0.37269 0)
(16.112 0.140618 0)
(16.0346 0.11399 0)
(15.8173 0.202526 0)
(15.5339 0.326032 0)
(15.2344 0.432396 0)
(14.9387 0.471725 0)
(14.6428 0.397958 0)
(14.3265 0.179423 0)
(13.9578 -0.197062 0)
(13.4976 -0.726691 0)
(12.9029 -1.38979 0)
(12.1345 -2.15594 0)
(11.1597 -2.98837 0)
(9.95272 -3.84811 0)
(8.50275 -4.70351 0)
(6.82264 -5.5305 0)
(4.92147 -6.29025 0)
(2.75799 -6.92037 0)
(0.330923 -7.26869 0)
(-2.22276 -7.39962 0)
(-4.84489 -7.26588 0)
(-7.48492 -6.83509 0)
(-10.0617 -6.19341 0)
(-12.4748 -5.39135 0)
(-14.6498 -4.35468 0)
(-16.5521 -3.01215 0)
(-18.1322 -1.45201 0)
(-19.2859 0.141481 0)
(-19.8929 1.63766 0)
(-19.7406 2.9409 0)
(-18.9989 4.0316 0)
(-17.69 4.90224 0)
(-15.8784 5.53045 0)
(-13.6574 5.89529 0)
(-11.1451 6.01388 0)
(-8.48463 5.94753 0)
(-5.82889 5.77279 0)
(-3.27588 5.5398 0)
(-0.712575 5.21816 0)
(1.87253 4.50022 0)
(4.21979 3.68061 0)
(6.22496 2.97458 0)
(7.81203 2.35909 0)
(9.00579 1.85828 0)
(9.86069 1.48932 0)
(10.4355 1.24105 0)
(10.7957 1.08955 0)
(11.0064 1.00386 0)
(11.12 0.947724 0)
(11.1769 0.87838 0)
(11.2011 0.757278 0)
(11.1873 0.561426 0)
(11.1227 0.280916 0)
(10.9858 -0.0850186 0)
(10.7498 -0.530298 0)
(10.3864 -1.04353 0)
(9.86907 -1.60905 0)
(9.17674 -2.20688 0)
(8.29447 -2.81444 0)
(7.21391 -3.41134 0)
(5.93531 -3.98913 0)
(4.46628 -4.55104 0)
(2.81288 -5.06424 0)
(0.98523 -5.39479 0)
(-0.947614 -5.46935 0)
(-2.93039 -5.38164 0)
(-4.91657 -5.12318 0)
(-6.84568 -4.69068 0)
(-8.66155 -4.09161 0)
(-10.3046 -3.34476 0)
(-11.7077 -2.47105 0)
(-12.8844 -1.49199 0)
(-13.6156 -0.513459 0)
(-13.9101 0.52075 0)
(-14.0945 1.30592 0)
(-13.061 2.37137 0)
(19.3874 -1.108 0)
(19.0465 -1.35669 0)
(18.2952 -1.31012 0)
(17.3212 -1.08368 0)
(16.2959 -0.741552 0)
(15.3365 -0.340336 0)
(14.5113 0.0500478 0)
(13.8523 0.356717 0)
(13.3589 0.520494 0)
(13.0008 0.502031 0)
(12.7241 0.284761 0)
(12.4586 -0.122723 0)
(12.126 -0.689614 0)
(11.6502 -1.37195 0)
(10.9676 -2.12251 0)
(10.0376 -2.8971 0)
(8.84462 -3.64791 0)
(7.36968 -4.339 0)
(5.58426 -5.01856 0)
(3.27179 -5.79844 0)
(0.909695 -6.26423 0)
(-2.10515 -6.54549 0)
(-5.09131 -6.71132 0)
(-8.07229 -6.72066 0)
(-11.0558 -6.3922 0)
(-13.8818 -5.67291 0)
(-16.4603 -4.56834 0)
(-18.729 -3.09786 0)
(-20.6016 -1.40573 0)
(-21.9386 0.300094 0)
(-22.4665 1.88437 0)
(-22.0036 3.25112 0)
(-20.8672 4.38571 0)
(-19.1091 5.14176 0)