/*--------------------------------*- C++ -*----------------------------------*\
| =========                 |                                                 |
| \\      /  F ield         | OpenFOAM: The Open Source CFD Toolbox           |
|  \\    /   O peration     | Version:  2206                                  |
|   \\  /    A nd           | Website:  www.openfoam.com                      |
|    \\/     M anipulation  |                                                 |
\*---------------------------------------------------------------------------*/
FoamFile
{
    version     2.0;
    format      ascii;
    arch        "LSB;label=32;scalar=64";
    class       volVectorField;
    location    "19.1001";
    object      U_0;
}
// * * * * * * * * * * * * * * * * * * * * * * * * * * * * * * * * * * * * * //

dimensions      [0 1 -1 0 0 0 0];

internalField   nonuniform List<vector> 
3080
(
(1.69146 -0.132901 0)
(1.698 -0.158054 0)
(1.70558 -0.179732 0)
(1.71391 -0.197633 0)
(1.72271 -0.21162 0)
(1.73172 -0.221683 0)
(1.74086 -0.227841 0)
(1.75031 -0.229877 0)
(1.75989 -0.227416 0)
(1.76949 -0.220397 0)
(1.77899 -0.208916 0)
(1.78824 -0.193199 0)
(1.79717 -0.173542 0)
(1.80575 -0.150282 0)
(1.81395 -0.123794 0)
(1.82174 -0.0945069 0)
(1.82906 -0.062951 0)
(1.83581 -0.0298619 0)
(1.84169 0.00359585 0)
(1.84646 0.0363025 0)
(1.84991 0.0673807 0)
(1.85183 0.0960646 0)
(1.85212 0.121785 0)
(1.85079 0.144088 0)
(1.84791 0.162662 0)
(1.84357 0.177383 0)
(1.8379 0.18823 0)
(1.83082 0.195224 0)
(1.82219 0.198288 0)
(1.81237 0.197564 0)
(1.8016 0.193479 0)
(1.7903 0.18635 0)
(1.7789 0.176468 0)
(1.76779 0.164088 0)
(1.7573 0.149409 0)
(1.74769 0.132579 0)
(1.73915 0.113733 0)
(1.73182 0.0930242 0)
(1.72582 0.0706442 0)
(1.72122 0.0468533 0)
(1.71809 0.0220113 0)
(1.71646 -0.00335071 0)
(1.71632 -0.0285312 0)
(1.71757 -0.0529814 0)
(1.72014 -0.0761719 0)
(1.72388 -0.0976055 0)
(1.72862 -0.116843 0)
(1.73419 -0.133534 0)
(1.74037 -0.147437 0)
(1.74695 -0.158433 0)
(1.75376 -0.166501 0)
(1.7607 -0.171656 0)
(1.7679 -0.17377 0)
(1.77526 -0.172551 0)
(1.78266 -0.167922 0)
(1.79003 -0.159921 0)
(1.79723 -0.14869 0)
(1.80417 -0.134445 0)
(1.81078 -0.11745 0)
(1.81703 -0.0980054 0)
(1.82286 -0.0764559 0)
(1.82822 -0.0532118 0)
(1.83299 -0.028807 0)
(1.83699 -0.00401569 0)
(1.84007 0.0203746 0)
(1.84218 0.0437799 0)
(1.84313 0.0656932 0)
(1.84322 0.0856742 0)
(1.84224 0.103327 0)
(1.83995 0.118352 0)
(1.83665 0.130629 0)
(1.83235 0.1401 0)
(1.82711 0.14675 0)
(1.82087 0.150548 0)
(1.81375 0.151451 0)
(1.80599 0.14965 0)
(1.79781 0.14533 0)
(1.78951 0.138645 0)
(1.78139 0.129776 0)
(1.77367 0.118901 0)
(1.76656 0.106181 0)
(1.7602 0.0917784 0)
(1.75472 0.075866 0)
(1.75018 0.0586426 0)
(1.74667 0.040344 0)
(1.74423 0.0212657 0)
(1.74288 0.0018228 0)
(1.74262 -0.0174609 0)
(1.7434 -0.0361915 0)
(1.74515 -0.0539846 0)
(1.74778 -0.0704797 0)
(1.75118 -0.085358 0)
(1.75522 -0.098361 0)
(1.75976 -0.109305 0)
(1.76466 -0.118088 0)
(1.76978 -0.124677 0)
(1.77502 -0.12908 0)
(1.78044 -0.131235 0)
(1.78604 -0.130942 0)
(1.7917 -0.128112 0)
(1.79737 -0.122751 0)
(1.80293 -0.114942 0)
(1.80828 -0.104832 0)
(1.81337 -0.0926159 0)
(1.81812 -0.0785209 0)
(1.82248 -0.0628102 0)
(1.8264 -0.0457819 0)
(1.82983 -0.0277908 0)
(1.83266 -0.00931725 0)
(1.8348 0.00903745 0)
(1.8362 0.0268774 0)
(1.83677 0.0438625 0)
(1.83644 0.0595999 0)
(1.83521 0.0737179 0)
(1.83316 0.0860193 0)
(1.83033 0.0963997 0)
(1.82676 0.104754 0)
(1.82257 0.111045 0)
(1.81764 0.115199 0)
(1.81236 0.117405 0)
(1.80569 0.1167 0)
(1.80073 0.115819 0)
(1.79055 0.106915 0)
(1.71528 -0.138521 0)
(1.72115 -0.164745 0)
(1.72785 -0.187208 0)
(1.73507 -0.205607 0)
(1.74256 -0.219839 0)
(1.75004 -0.229976 0)
(1.75738 -0.236184 0)
(1.76485 -0.238375 0)
(1.77237 -0.236008 0)
(1.77981 -0.228901 0)
(1.78708 -0.217199 0)
(1.79406 -0.201195 0)
(1.80074 -0.181222 0)
(1.80715 -0.157638 0)
(1.8133 -0.130823 0)
(1.81921 -0.101192 0)
(1.82488 -0.0692364 0)
(1.83024 -0.0356173 0)
(1.83513 -0.00134295 0)
(1.83928 0.0323666 0)
(1.84252 0.0646449 0)
(1.84467 0.0947038 0)
(1.84559 0.121879 0)
(1.84523 0.145634 0)
(1.84358 0.165586 0)
(1.84069 0.181567 0)
(1.8367 0.193603 0)
(1.83176 0.201797 0)
(1.82566 0.206186 0)
(1.81837 0.206604 0)
(1.8101 0.203308 0)
(1.8011 0.196594 0)
(1.79181 0.186723 0)
(1.78261 0.174002 0)
(1.77384 0.158693 0)
(1.76573 0.141003 0)
(1.75848 0.121121 0)
(1.75226 0.0992425 0)
(1.74716 0.0755933 0)
(1.74328 0.0504581 0)
(1.74068 0.0242223 0)
(1.73938 -0.00254388 0)
(1.73937 -0.0290802 0)
(1.74057 -0.0548038 0)
(1.74289 -0.0791545 0)
(1.74622 -0.101604 0)
(1.75039 -0.121682 0)
(1.75522 -0.139014 0)
(1.76052 -0.153352 0)
(1.76608 -0.164597 0)
(1.77172 -0.17278 0)
(1.7773 -0.178013 0)
(1.78299 -0.180275 0)
(1.78881 -0.179179 0)
(1.79462 -0.174539 0)
(1.80036 -0.166405 0)
(1.8059 -0.154949 0)
(1.81117 -0.140421 0)
(1.81617 -0.123105 0)
(1.82088 -0.103315 0)
(1.82529 -0.0813925 0)
(1.82939 -0.0577193 0)
(1.83313 -0.0327738 0)
(1.8364 -0.00725503 0)
(1.83905 0.0179584 0)
(1.84097 0.0422505 0)
(1.84206 0.0650421 0)
(1.84231 0.0859004 0)
(1.84183 0.104513 0)
(1.8404 0.120555 0)
(1.83816 0.133784 0)
(1.83519 0.144116 0)
(1.83155 0.151567 0)
(1.82725 0.156195 0)
(1.82211 0.157928 0)
(1.8163 0.156708 0)
(1.80996 0.152714 0)
(1.80332 0.146073 0)
(1.79672 0.136994 0)
(1.79036 0.125701 0)
(1.78444 0.112391 0)
(1.7791 0.0972636 0)
(1.77446 0.0805241 0)
(1.77061 0.0623958 0)
(1.76761 0.0431337 0)
(1.76553 0.0230516 0)
(1.76437 0.00259141 0)
(1.76415 -0.0176825 0)
(1.76481 -0.0373512 0)
(1.7663 -0.0560093 0)
(1.76854 -0.0732743 0)
(1.77143 -0.088807 0)
(1.77486 -0.102331 0)
(1.77869 -0.113654 0)
(1.78278 -0.122677 0)
(1.787 -0.129397 0)
(1.79121 -0.13388 0)
(1.79548 -0.136153 0)
(1.79991 -0.135991 0)
(1.80437 -0.133202 0)
(1.80883 -0.127774 0)
(1.81318 -0.119806 0)
(1.81732 -0.109467 0)
(1.82122 -0.0969626 0)
(1.82484 -0.0825275 0)
(1.82814 -0.0664324 0)
(1.8311 -0.0489811 0)
(1.83368 -0.030528 0)
(1.83583 -0.0115275 0)
(1.83748 0.00743689 0)
(1.83855 0.0259635 0)
(1.83891 0.0436809 0)
(1.83889 0.0601677 0)
(1.83832 0.075055 0)
(1.8369 0.0880904 0)
(1.83492 0.0991425 0)
(1.83235 0.108101 0)
(1.8293 0.114952 0)
(1.82575 0.119649 0)
(1.82194 0.122435 0)
(1.81688 0.122279 0)
(1.8131 0.121737 0)
(1.80492 0.112969 0)
(1.73854 -0.143564 0)
(1.74366 -0.170622 0)
(1.74935 -0.193651 0)
(1.75537 -0.212339 0)
(1.76144 -0.226598 0)
(1.7673 -0.236572 0)
(1.77272 -0.242585 0)
(1.77808 -0.244765 0)
(1.78347 -0.242431 0)
(1.78867 -0.235153 0)
(1.79357 -0.223168 0)
(1.79813 -0.206872 0)
(1.80243 -0.186646 0)
(1.80657 -0.162851 0)
(1.81062 -0.135859 0)
(1.81461 -0.106077 0)
(1.81857 -0.0739646 0)
(1.82248 -0.0401127 0)
(1.82624 -0.00541333 0)
(1.82966 0.0289177 0)
(1.83256 0.0619871 0)
(1.83479 0.0929932 0)
(1.83621 0.121227 0)
(1.8367 0.146104 0)
(1.83621 0.167196 0)
(1.83474 0.184255 0)
(1.83236 0.197223 0)
(1.82923 0.206236 0)
(1.8255 0.211556 0)
(1.82076 0.21315 0)
(1.81511 0.210794 0)
(1.80856 0.204676 0)
(1.80153 0.194974 0)
(1.79444 0.182075 0)
(1.78757 0.166313 0)
(1.78117 0.147947 0)
(1.77544 0.127217 0)
(1.77051 0.10436 0)
(1.76651 0.079635 0)
(1.76351 0.0533543 0)
(1.76158 0.0259299 0)
(1.76073 -0.00202787 0)
(1.76094 -0.0297066 0)
(1.76213 -0.056495 0)
(1.76422 -0.0818085 0)
(1.7671 -0.10509 0)
(1.77063 -0.125841 0)
(1.77465 -0.143661 0)
(1.77899 -0.158291 0)
(1.78346 -0.169635 0)
(1.78788 -0.177768 0)
(1.79205 -0.182903 0)
(1.79615 -0.185189 0)
(1.80037 -0.184193 0)
(1.80453 -0.179509 0)
(1.80856 -0.1712 0)
(1.81234 -0.159506 0)
(1.81588 -0.144721 0)
(1.81918 -0.127161 0)
(1.8223 -0.107133 0)
(1.82527 -0.0849717 0)
(1.8281 -0.0610544 0)
(1.83077 -0.0358309 0)
(1.83323 -0.00992073 0)
(1.83536 0.0158246 0)
(1.83708 0.0407521 0)
(1.83827 0.0642773 0)
(1.83886 0.0859028 0)
(1.83878 0.105249 0)
(1.83806 0.121973 0)
(1.83675 0.135831 0)
(1.83488 0.146749 0)
(1.83259 0.154738 0)
(1.83 0.159893 0)
(1.82689 0.162341 0)
(1.82308 0.161833 0)
(1.81866 0.158338 0)
(1.81381 0.151893 0)
(1.80886 0.142752 0)
(1.80402 0.131197 0)
(1.79944 0.117459 0)
(1.79527 0.101772 0)
(1.79163 0.0843708 0)
(1.7886 0.0655026 0)
(1.78625 0.0454434 0)
(1.78462 0.0245257 0)
(1.78374 0.00321634 0)
(1.78361 -0.0178825 0)
(1.78419 -0.0383308 0)
(1.78542 -0.0577052 0)
(1.78725 -0.0756059 0)
(1.7896 -0.0916747 0)
(1.79236 -0.105617 0)
(1.79543 -0.117222 0)
(1.79867 -0.126389 0)
(1.80195 -0.13313 0)
(1.80512 -0.137572 0)
(1.80819 -0.139865 0)
(1.81142 -0.139817 0)
(1.81465 -0.137074 0)
(1.81787 -0.131562 0)
(1.82094 -0.123426 0)
(1.82382 -0.112875 0)
(1.8265 -0.100127 0)
(1.82894 -0.0854405 0)
(1.83118 -0.0690849 0)
(1.83321 -0.0513423 0)
(1.83501 -0.0325344 0)
(1.83651 -0.0130893 0)
(1.83764 0.00638483 0)
(1.83827 0.025386 0)
(1.83859 0.0434747 0)
(1.8386 0.0603286 0)
(1.83831 0.0757129 0)
(1.83748 0.0893415 0)
(1.83626 0.100961 0)
(1.83467 0.11039 0)
(1.83272 0.11764 0)
(1.83045 0.122676 0)
(1.82808 0.125866 0)
(1.82473 0.126395 0)
(1.82215 0.12602 0)
(1.81613 0.117775 0)
(1.76088 -0.147935 0)
(1.76512 -0.175552 0)
(1.76966 -0.198913 0)
(1.7743 -0.217687 0)
(1.77884 -0.231792 0)
(1.78304 -0.241418 0)
(1.78656 -0.24704 0)
(1.78966 -0.249115 0)
(1.7928 -0.246641 0)
(1.7957 -0.238989 0)
(1.79807 -0.226616 0)
(1.8001 -0.210055 0)
(1.80201 -0.189679 0)
(1.80389 -0.165828 0)
(1.8058 -0.138852 0)
(1.80783 -0.109129 0)
(1.81004 -0.0770909 0)
(1.81246 -0.0432872 0)
(1.81504 -0.00851429 0)
(1.81764 0.0260604 0)
(1.82011 0.059518 0)
(1.82232 0.0910637 0)
(1.82411 0.119972 0)
(1.82535 0.145625 0)
(1.82594 0.167548 0)
(1.82583 0.18543 0)
(1.82502 0.199146 0)
(1.82362 0.208751 0)
(1.82188 0.214517 0)
(1.81969 0.216932 0)
(1.81657 0.215582 0)
(1.81247 0.210145 0)
(1.80774 0.200793 0)
(1.80289 0.187935 0)
(1.79812 0.171947 0)
(1.79363 0.153137 0)
(1.7896 0.131792 0)
(1.78616 0.108186 0)
(1.78343 0.0826119 0)
(1.78148 0.0554112 0)
(1.78036 0.027027 0)
(1.78009 -0.00188603 0)
(1.78061 -0.0304636 0)
(1.78185 -0.0580736 0)
(1.78373 -0.0841111 0)
(1.78613 -0.108001 0)
(1.78894 -0.129228 0)
(1.79206 -0.147378 0)
(1.79534 -0.162168 0)
(1.79864 -0.173495 0)
(1.8018 -0.181459 0)
(1.80458 -0.186359 0)
(1.807 -0.188562 0)
(1.80956 -0.187597 0)
(1.81206 -0.182766 0)
(1.81426 -0.174209 0)
(1.81617 -0.162263 0)
(1.81792 -0.14727 0)
(1.81957 -0.129546 0)
(1.82115 -0.109411 0)
(1.82269 -0.0871812 0)
(1.82423 -0.0632051 0)
(1.82579 -0.0379022 0)
(1.82736 -0.0118459 0)
(1.82887 0.0141303 0)
(1.83024 0.0393657 0)
(1.83139 0.0633008 0)
(1.83223 0.0854282 0)
(1.8327 0.10531 0)
(1.83276 0.122571 0)
(1.8324 0.136931 0)
(1.83165 0.148242 0)
(1.83057 0.156522 0)
(1.8293 0.161942 0)
(1.82799 0.164757 0)
(1.82618 0.164997 0)
(1.82368 0.162009 0)
(1.8206 0.155828 0)
(1.81737 0.146769 0)
(1.81415 0.135113 0)
(1.81106 0.121123 0)
(1.8082 0.105066 0)
(1.8057 0.087198 0)
(1.80363 0.0677865 0)
(1.80205 0.0471265 0)
(1.801 0.0255694 0)
(1.8005 0.00360746 0)
(1.80055 -0.0181221 0)
(1.80111 -0.0391604 0)
(1.80212 -0.0590719 0)
(1.80353 -0.0774455 0)
(1.80529 -0.0939114 0)
(1.80732 -0.108159 0)
(1.80955 -0.119961 0)
(1.81188 -0.129201 0)
(1.8142 -0.13589 0)
(1.81635 -0.140195 0)
(1.8182 -0.142409 0)
(1.82018 -0.142456 0)
(1.8222 -0.139707 0)
(1.82415 -0.134067 0)
(1.82589 -0.125755 0)
(1.82744 -0.115027 0)
(1.82888 -0.102103 0)
(1.83021 -0.0872246 0)
(1.83142 -0.0706929 0)
(1.83249 -0.0527901 0)
(1.83345 -0.0338139 0)
(1.83433 -0.0141503 0)
(1.83508 0.00561571 0)
(1.83567 0.0249138 0)
(1.83606 0.0433157 0)
(1.83616 0.0605011 0)
(1.83597 0.0762022 0)
(1.83554 0.0901028 0)
(1.83488 0.101956 0)
(1.83409 0.111632 0)
(1.83304 0.119169 0)
(1.83186 0.124437 0)
(1.83072 0.127877 0)
(1.8291 0.128964 0)
(1.82779 0.128603 0)
(1.82389 0.121449 0)
(1.78195 -0.151561 0)
(1.78524 -0.179403 0)
(1.78846 -0.202829 0)
(1.7915 -0.221497 0)
(1.79425 -0.235282 0)
(1.79659 -0.24433 0)
(1.79836 -0.249136 0)
(1.79958 -0.250531 0)
(1.80028 -0.248734 0)
(1.80048 -0.240405 0)
(1.80032 -0.227613 0)
(1.7999 -0.21084 0)
(1.79931 -0.19039 0)
(1.79878 -0.166592 0)
(1.79849 -0.139777 0)
(1.79854 -0.110304 0)
(1.79902 -0.0785769 0)
(1.79997 -0.0450993 0)
(1.80139 -0.0105841 0)
(1.80318 0.0238595 0)
(1.8052 0.0573161 0)
(1.80734 0.0890055 0)
(1.80944 0.118204 0)
(1.81136 0.144276 0)
(1.81297 0.166713 0)
(1.81419 0.185162 0)
(1.81498 0.19944 0)
(1.81538 0.209535 0)
(1.81547 0.215623 0)
(1.81533 0.218105 0)
(1.81452 0.218113 0)
(1.81283 0.213643 0)
(1.81051 0.204499 0)
(1.80799 0.191722 0)
(1.80541 0.175605 0)
(1.80295 0.156482 0)
(1.80074 0.13469 0)
(1.79893 0.110531 0)
(1.79761 0.0843224 0)
(1.79684 0.0564319 0)
(1.79666 0.0273337 0)
(1.79707 -0.00226572 0)
(1.798 -0.0314619 0)
(1.79937 -0.0596064 0)
(1.80107 -0.0860775 0)
(1.803 -0.1103 0)
(1.80505 -0.131762 0)
(1.80714 -0.150049 0)
(1.8092 -0.164863 0)
(1.81116 -0.176069 0)
(1.81293 -0.183735 0)
(1.81436 -0.188166 0)
(1.81538 -0.189894 0)
(1.81623 -0.189297 0)
(1.81683 -0.184168 0)
(1.81714 -0.175298 0)
(1.81726 -0.16319 0)
(1.81725 -0.148116 0)
(1.81716 -0.130362 0)
(1.8171 -0.11023 0)
(1.81716 -0.088041 0)
(1.81739 -0.0641484 0)
(1.81785 -0.0389561 0)
(1.81854 -0.0129906 0)
(1.81943 0.0129531 0)
(1.82046 0.0382236 0)
(1.82154 0.0622753 0)
(1.8226 0.0845962 0)
(1.82358 0.104729 0)
(1.8244 0.122284 0)
(1.82502 0.136968 0)
(1.82542 0.148596 0)
(1.82562 0.157109 0)
(1.82566 0.162595 0)
(1.82562 0.165332 0)
(1.82541 0.165945 0)
(1.82486 0.164133 0)
(1.82367 0.158146 0)
(1.82229 0.149198 0)
(1.82083 0.137543 0)
(1.81928 0.123433 0)
(1.81783 0.107148 0)
(1.81655 0.0889633 0)
(1.81551 0.0691717 0)
(1.81479 0.0480877 0)
(1.8144 0.0260817 0)
(1.81436 0.00367185 0)
(1.81466 -0.0184741 0)
(1.81525 -0.0398868 0)
(1.81607 -0.060124 0)
(1.81708 -0.0787727 0)
(1.81823 -0.0954628 0)
(1.81947 -0.109878 0)
(1.82075 -0.121779 0)
(1.82205 -0.131026 0)
(1.82331 -0.137609 0)
(1.82443 -0.141681 0)
(1.82529 -0.143581 0)
(1.82608 -0.143726 0)
(1.8268 -0.141101 0)
(1.82737 -0.13519 0)
(1.82787 -0.126703 0)
(1.82818 -0.115871 0)
(1.82834 -0.102879 0)
(1.8285 -0.0879565 0)
(1.82863 -0.0713646 0)
(1.82876 -0.0533964 0)
(1.82894 -0.0343809 0)
(1.82916 -0.0146994 0)
(1.82945 0.00509059 0)
(1.82979 0.0244598 0)
(1.83012 0.0430138 0)
(1.83041 0.060401 0)
(1.83062 0.0762964 0)
(1.83075 0.090385 0)
(1.83078 0.102425 0)
(1.83069 0.112256 0)
(1.83048 0.119848 0)
(1.83017 0.125165 0)
(1.82985 0.128471 0)
(1.82961 0.129732 0)
(1.82934 0.129848 0)
(1.82787 0.1236 0)
(1.82605 0.125002 0)
(1.82673 0.128355 0)
(1.82716 0.129683 0)
(1.82757 0.129865 0)
(1.82785 0.123943 0)
(0.149665 -0.000482034 0)
(0.150756 -0.000512544 0)
(0.1519 -0.000529267 0)
(0.153065 -0.000532862 0)
(0.154225 -0.000523927 0)
(0.155352 -0.000502971 0)
(0.156421 -0.000470618 0)
(0.157408 -0.000428123 0)
(0.158293 -0.000377367 0)
(0.159058 -0.000320497 0)
(0.159693 -0.000259873 0)
(0.160192 -0.000197866 0)
(0.160553 -0.000136731 0)
(0.160781 -7.85803e-05 0)
(0.160882 -2.42571e-05 0)
(0.160872 3.2977e-05 0)
(0.160766 8.09718e-05 0)
(0.16057 0.000122057 0)
(0.160298 0.000157252 0)
(0.159959 0.000187572 0)
(0.159563 0.000213974 0)
(0.159117 0.000237333 0)
(0.158627 0.000258365 0)
(0.158096 0.000277611 0)
(0.157527 0.000295367 0)
(0.156924 0.0003116 0)
(0.156289 0.00032598 0)
(0.155626 0.000337921 0)
(0.154941 0.000346718 0)
(0.154241 0.000351497 0)
(0.153534 0.00035135 0)
(0.152831 0.000345503 0)
(0.152146 0.000333248 0)
(0.151493 0.000313869 0)
(0.150887 0.000286979 0)
(0.150344 0.000252466 0)
(0.149882 0.000210565 0)
(0.149515 0.000162212 0)
(0.149258 0.000108171 0)
(0.149126 4.83901e-05 0)
(0.149117 -2.38045e-05 0)
(0.149234 -9.22549e-05 0)
(0.14948 -0.000156242 0)
(0.149853 -0.000215301 0)
(0.150344 -0.000268324 0)
(0.15094 -0.000314157 0)
(0.151626 -0.000351628 0)
(0.152383 -0.000379737 0)
(0.153191 -0.000397817 0)
(0.154026 -0.000405493 0)
(0.154867 -0.000402683 0)
(0.15569 -0.000389891 0)
(0.156475 -0.0003682 0)
(0.157204 -0.000338907 0)
(0.157862 -0.000303489 0)
(0.158437 -0.000263446 0)
(0.158921 -0.000220309 0)
(0.159308 -0.000175569 0)
(0.159597 -0.000130752 0)
(0.159787 -8.737e-05 0)
(0.159882 -4.52885e-05 0)
(0.159891 1.21272e-06 0)
(0.159822 4.26998e-05 0)
(0.159679 7.94698e-05 0)
(0.159467 0.000112759 0)
(0.159192 0.000142896 0)
(0.158859 0.000170412 0)
(0.158473 0.000195702 0)
(0.158038 0.000219003 0)
(0.157556 0.000240382 0)
(0.157031 0.00025975 0)
(0.156468 0.000276887 0)
(0.15587 0.000291434 0)
(0.155243 0.000302887 0)
(0.154595 0.000310665 0)
(0.153933 0.000314005 0)
(0.153269 0.000312133 0)
(0.152614 0.00030447 0)
(0.15198 0.000290653 0)
(0.151382 0.000270477 0)
(0.150832 0.000244016 0)
(0.150346 0.000211606 0)
(0.149935 0.00017374 0)
(0.14961 0.00013113 0)
(0.149382 8.46615e-05 0)
(0.149257 3.49217e-05 0)
(0.149235 -2.16673e-05 0)
(0.149314 -7.58437e-05 0)
(0.149495 -0.000125174 0)
(0.149774 -0.000169785 0)
(0.150141 -0.00020913 0)
(0.150586 -0.000242603 0)
(0.151098 -0.000269606 0)
(0.151661 -0.000289646 0)
(0.15226 -0.000302452 0)
(0.152881 -0.000307944 0)
(0.153505 -0.000306166 0)
(0.154119 -0.000297472 0)
(0.154708 -0.000282568 0)
(0.15526 -0.000262285 0)
(0.155762 -0.000237562 0)
(0.156208 -0.000209369 0)
(0.156591 -0.000178686 0)
(0.156906 -0.000146528 0)
(0.157151 -0.000114156 0)
(0.157327 -8.2495e-05 0)
(0.157435 -5.21047e-05 0)
(0.157478 -2.08979e-05 0)
(0.157464 1.20017e-05 0)
(0.157397 3.99625e-05 0)
(0.157278 6.48347e-05 0)
(0.157114 8.6614e-05 0)
(0.15691 0.000105495 0)
(0.156671 0.000121594 0)
(0.156402 0.000134823 0)
(0.156109 0.000145288 0)
(0.155799 0.000152268 0)
(0.155476 0.000156343 0)
(0.155155 0.000154871 0)
(0.154832 0.000149138 0)
(0.154553 0.000133125 0)
(0.154247 9.92892e-05 0)
(0.15418 1.6277e-05 0)
(0.438578 -0.00164947 0)
(0.439897 -0.00173801 0)
(0.441243 -0.00178121 0)
(0.442584 -0.00178179 0)
(0.443892 -0.00174232 0)
(0.445139 -0.00166464 0)
(0.4463 -0.00155061 0)
(0.447352 -0.0014035 0)
(0.448272 -0.001229 0)
(0.449048 -0.00103461 0)
(0.449668 -0.000828763 0)
(0.45013 -0.000619825 0)
(0.450437 -0.000415542 0)
(0.450597 -0.000221194 0)
(0.450624 -3.74277e-05 0)
(0.450526 0.000130456 0)
(0.450319 0.000276317 0)
(0.450024 0.000401357 0)
(0.449655 0.00050767 0)
(0.449225 0.00059791 0)
(0.448744 0.000675057 0)
(0.448222 0.000742099 0)
(0.447663 0.000801629 0)
(0.447074 0.0008555 0)
(0.446457 0.000904598 0)
(0.445815 0.000948791 0)
(0.445152 0.000987163 0)
(0.444471 0.00101819 0)
(0.443779 0.00103982 0)
(0.443081 0.00104961 0)
(0.442388 0.00104475 0)
(0.44171 0.00102226 0)
(0.44106 0.000979575 0)
(0.440453 0.000914795 0)
(0.439904 0.000826877 0)
(0.439428 0.000715512 0)
(0.439042 0.000582015 0)
(0.43876 0.000427757 0)
(0.438593 0.000255119 0)
(0.43855 6.58231e-05 0)
(0.438645 -0.000135594 0)
(0.438879 -0.00033645 0)
(0.439244 -0.000528977 0)
(0.439732 -0.00070831 0)
(0.440333 -0.000869905 0)
(0.441032 -0.00100914 0)
(0.441811 -0.00112164 0)
(0.44265 -0.00120379 0)
(0.443525 -0.00125313 0)
(0.444412 -0.00126844 0)
(0.445285 -0.0012498 0)
(0.446122 -0.00119909 0)
(0.446901 -0.00111992 0)
(0.447602 -0.00101678 0)
(0.448213 -0.000894568 0)
(0.448722 -0.0007584 0)
(0.449121 -0.000613498 0)
(0.449408 -0.000465017 0)
(0.449583 -0.000317677 0)
(0.44965 -0.000173787 0)
(0.449615 -3.59047e-05 0)
(0.449484 9.5512e-05 0)
(0.449263 0.000216299 0)
(0.448966 0.000325264 0)
(0.448601 0.000423447 0)
(0.448176 0.000512264 0)
(0.447696 0.000593115 0)
(0.447168 0.000667222 0)
(0.446597 0.000735423 0)
(0.445986 0.000798037 0)
(0.44534 0.000854809 0)
(0.444663 0.000904873 0)
(0.44396 0.000946811 0)
(0.443238 0.00097874 0)
(0.442504 0.000998618 0)
(0.441768 0.0010044 0)
(0.44104 0.000994021 0)
(0.440332 0.000965499 0)
(0.439656 0.000917412 0)
(0.439028 0.000849061 0)
(0.43846 0.000760693 0)
(0.437966 0.000653421 0)
(0.437558 0.000529719 0)
(0.437245 0.000392853 0)
(0.437036 0.000245806 0)
(0.436933 8.90036e-05 0)
(0.436944 -7.51918e-05 0)
(0.437069 -0.000234219 0)
(0.437297 -0.000383842 0)
(0.437622 -0.000520758 0)
(0.438032 -0.000642065 0)
(0.438517 -0.000745065 0)
(0.43906 -0.000827367 0)
(0.439648 -0.000887177 0)
(0.440262 -0.000923466 0)
(0.440885 -0.000935941 0)
(0.441501 -0.000924967 0)
(0.442092 -0.000891896 0)
(0.442645 -0.000839072 0)
(0.443147 -0.00076938 0)
(0.443587 -0.000686065 0)
(0.443958 -0.000592505 0)
(0.444255 -0.000492177 0)
(0.444474 -0.000388485 0)
(0.444615 -0.000284168 0)
(0.444681 -0.000181878 0)
(0.444675 -8.35452e-05 0)
(0.444604 9.67999e-06 0)
(0.444469 9.82867e-05 0)
(0.444279 0.000177982 0)
(0.444042 0.000248362 0)
(0.443765 0.000309779 0)
(0.443455 0.000362392 0)
(0.443117 0.000406243 0)
(0.442759 0.000440937 0)
(0.442387 0.000466422 0)
(0.442012 0.000481367 0)
(0.44163 0.000485005 0)
(0.441275 0.00047608 0)
(0.440908 0.000446289 0)
(0.440622 0.000402511 0)
(0.440305 0.00033968 0)
(0.440114 0.000124685 0)
(0.709113 -0.00303675 0)
(0.710479 -0.00316117 0)
(0.71188 -0.00320246 0)
(0.713278 -0.00316947 0)
(0.714645 -0.00306974 0)
(0.715952 -0.00290642 0)
(0.717171 -0.00268182 0)
(0.718274 -0.00240196 0)
(0.719236 -0.00207763 0)
(0.720037 -0.00172234 0)
(0.720668 -0.0013508 0)
(0.721122 -0.000977697 0)
(0.721403 -0.000615946 0)
(0.721521 -0.000274478 0)
(0.721486 3.94096e-05 0)
(0.721317 0.000312301 0)
(0.721033 0.00054759 0)
(0.720655 0.00074803 0)
(0.7202 0.000916251 0)
(0.719682 0.00105664 0)
(0.719115 0.00117455 0)
(0.718508 0.00127543 0)
(0.717866 0.00136407 0)
(0.717195 0.00144392 0)
(0.716497 0.00151678 0)
(0.715772 0.0015827 0)
(0.715024 0.00164013 0)
(0.714255 0.00168615 0)
(0.71347 0.00171684 0)
(0.712676 0.00172763 0)
(0.711883 0.00171386 0)
(0.711101 0.00167084 0)
(0.710343 0.00159418 0)
(0.709626 0.00148045 0)
(0.708966 0.00132758 0)
(0.708382 0.00113558 0)
(0.707891 0.000904767 0)
(0.707509 0.000637952 0)
(0.707251 0.000340121 0)
(0.70713 1.966e-05 0)
(0.707156 -0.000308592 0)
(0.707332 -0.000636172 0)
(0.707654 -0.000954267 0)
(0.708111 -0.00125227 0)
(0.708694 -0.00152102 0)
(0.709385 -0.00175176 0)
(0.710168 -0.00193628 0)
(0.711017 -0.00206769 0)
(0.711908 -0.00214119 0)
(0.712814 -0.0021545 0)
(0.713704 -0.00210805 0)
(0.714554 -0.00200545 0)
(0.715339 -0.00185342 0)
(0.716039 -0.00166024 0)
(0.716638 -0.00143478 0)
(0.717125 -0.00118622 0)
(0.717492 -0.000923809 0)
(0.717736 -0.000656068 0)
(0.717857 -0.000389787 0)
(0.717856 -0.000131621 0)
(0.717745 0.000108562 0)
(0.717533 0.000326281 0)
(0.717228 0.000524211 0)
(0.716843 0.000702966 0)
(0.716388 0.000863408 0)
(0.71587 0.00100743 0)
(0.715297 0.00113738 0)
(0.714675 0.00125549 0)
(0.714008 0.00136342 0)
(0.7133 0.00146193 0)
(0.712555 0.00155074 0)
(0.711775 0.00162843 0)
(0.710966 0.00169262 0)
(0.710134 0.0017401 0)
(0.709286 0.00176726 0)
(0.708431 0.00177043 0)
(0.707581 0.00174604 0)
(0.706749 0.00169072 0)
(0.705949 0.00160205 0)
(0.705196 0.00147907 0)
(0.704507 0.0013223 0)
(0.703895 0.00113396 0)
(0.703376 0.000917192 0)
(0.70296 0.000676505 0)
(0.702656 0.000418264 0)
(0.702469 0.000149005 0)
(0.702403 -0.000123206 0)
(0.70246 -0.000388901 0)
(0.702632 -0.000639353 0)
(0.70291 -0.000869163 0)
(0.703282 -0.00107248 0)
(0.703736 -0.00124399 0)
(0.704255 -0.00137917 0)
(0.704822 -0.00147467 0)
(0.705419 -0.00152858 0)
(0.706027 -0.00154044 0)
(0.706626 -0.00151125 0)
(0.707198 -0.00144368 0)
(0.707727 -0.00134202 0)
(0.7082 -0.00121155 0)
(0.708604 -0.00105819 0)
(0.708932 -0.000888148 0)
(0.709179 -0.00070762 0)
(0.70934 -0.000522204 0)
(0.709416 -0.000336527 0)
(0.709406 -0.000155364 0)
(0.709318 1.56236e-05 0)
(0.709159 0.000172596 0)
(0.708934 0.000314003 0)
(0.70865 0.000441016 0)
(0.708316 0.000553019 0)
(0.707938 0.000649685 0)
(0.707524 0.000731012 0)
(0.707081 0.000796965 0)
(0.706616 0.000847186 0)
(0.706133 0.000880848 0)
(0.705647 0.000897302 0)
(0.705148 0.000892945 0)
(0.704675 0.000870689 0)
(0.70419 0.000815734 0)
(0.703753 0.000735593 0)
(0.703351 0.000650513 0)
(0.702856 0.000376959 0)
(0.960607 -0.0042974 0)
(0.961912 -0.00450413 0)
(0.96326 -0.00458946 0)
(0.964611 -0.0045675 0)
(0.965939 -0.00444748 0)
(0.967219 -0.00422979 0)
(0.968421 -0.00391446 0)
(0.96951 -0.00350939 0)
(0.970454 -0.00303127 0)
(0.971228 -0.00250109 0)
(0.971815 -0.00194166 0)
(0.972208 -0.00137595 0)
(0.972406 -0.000824152 0)
(0.972417 -0.000302712 0)
(0.972255 0.000171556 0)
(0.971942 0.000585715 0)
(0.971496 0.000940984 0)
(0.970938 0.00123968 0)
(0.970288 0.00148666 0)
(0.969565 0.00168943 0)
(0.968782 0.00185691 0)
(0.967952 0.00199826 0)
(0.967081 0.00212161 0)
(0.966175 0.00223301 0)
(0.965237 0.00233587 0)
(0.964266 0.00243055 0)
(0.963266 0.00251472 0)
(0.962239 0.00258385 0)
(0.961189 0.00263188 0)
(0.960124 0.00265183 0)
(0.959053 0.00263645 0)
(0.957989 0.00257856 0)
(0.956947 0.0024711 0)
(0.955946 0.00230837 0)
(0.955005 0.00208703 0)
(0.954147 0.00180618 0)
(0.953391 0.00146686 0)
(0.952761 0.00107376 0)
(0.952279 0.000634382 0)
(0.951959 0.00015768 0)
(0.951813 -0.000339671 0)
(0.951847 -0.000836477 0)
(0.952059 -0.00131164 0)
(0.952439 -0.00175508 0)
(0.952972 -0.00215504 0)
(0.953642 -0.0024983 0)
(0.954427 -0.00277214 0)
(0.955302 -0.00296596 0)
(0.956235 -0.0030725 0)
(0.957192 -0.00308824 0)
(0.958137 -0.00301391 0)
(0.959038 -0.00285555 0)
(0.959865 -0.00262414 0)
(0.960593 -0.00233267 0)
(0.961205 -0.00199443 0)
(0.961687 -0.00162293 0)
(0.96203 -0.0012312 0)
(0.962227 -0.000830724 0)
(0.962279 -0.000432744 0)
(0.962192 -5.15937e-05 0)
(0.961975 0.000301511 0)
(0.961643 0.000623151 0)
(0.961209 0.000912929 0)
(0.960684 0.00117185 0)
(0.960083 0.00140232 0)
(0.959415 0.00160799 0)
(0.958689 0.001793 0)
(0.95791 0.00196117 0)
(0.957083 0.00211539 0)
(0.95621 0.0022571 0)
(0.955293 0.00238605 0)
(0.954336 0.00250021 0)
(0.953341 0.00259595 0)
(0.952315 0.0026683 0)
(0.951265 0.00271148 0)
(0.9502 0.0027196 0)
(0.949134 0.0026873 0)
(0.948083 0.00260942 0)
(0.947062 0.00248168 0)
(0.946092 0.00230194 0)
(0.945191 0.00207068 0)
(0.944378 0.00179083 0)
(0.94367 0.00146795 0)
(0.943081 0.00111009 0)
(0.942624 0.000726663 0)
(0.942306 0.000328457 0)
(0.942132 -7.3345e-05 0)
(0.942101 -0.000466965 0)
(0.942208 -0.000837565 0)
(0.942442 -0.00117441 0)
(0.942789 -0.00147184 0)
(0.943233 -0.00172282 0)
(0.943757 -0.00192061 0)
(0.94434 -0.00205995 0)
(0.94496 -0.00213772 0)
(0.945595 -0.00215295 0)
(0.946221 -0.00210711 0)
(0.946817 -0.00200437 0)
(0.947364 -0.00185126 0)
(0.947844 -0.00165579 0)
(0.948245 -0.0014268 0)
(0.948557 -0.00117332 0)
(0.948774 -0.000903898 0)
(0.94889 -0.000626053 0)
(0.948904 -0.000347993 0)
(0.948822 -8.05057e-05 0)
(0.948647 0.000171808 0)
(0.948386 0.000403963 0)
(0.94805 0.000613727 0)
(0.947647 0.000800585 0)
(0.947185 0.000964267 0)
(0.946671 0.00110497 0)
(0.946115 0.00122312 0)
(0.945521 0.00131895 0)
(0.944899 0.00139248 0)
(0.944252 0.00144239 0)
(0.943591 0.00146817 0)
(0.942916 0.00146529 0)
(0.942244 0.00143597 0)
(0.941586 0.00137385 0)
(0.940894 0.00126427 0)
(0.940353 0.0011685 0)
(0.939483 0.000870544 0)
(1.18143 -0.00560726 0)
(1.18287 -0.0058648 0)
(1.18437 -0.00593414 0)
(1.18587 -0.00586157 0)
(1.18735 -0.00568082 0)
(1.18879 -0.00538996 0)
(1.19013 -0.00497438 0)
(1.19133 -0.00443526 0)
(1.19234 -0.00379461 0)
(1.19315 -0.00308143 0)
(1.19371 -0.00232778 0)
(1.19403 -0.00156528 0)
(1.19409 -0.000821056 0)
(1.19392 -0.000121744 0)
(1.19355 0.000509293 0)
(1.19299 0.0010653 0)
(1.19229 0.00154657 0)
(1.19146 0.00195204 0)
(1.19052 0.00228643 0)
(1.18951 0.00255985 0)
(1.18844 0.00278461 0)
(1.18731 0.0029734 0)
(1.18614 0.00313761 0)
(1.18492 0.00328586 0)
(1.18366 0.00342314 0)
(1.18235 0.00355036 0)
(1.181 0.00366479 0)
(1.1796 0.00376078 0)
(1.17816 0.00383025 0)
(1.17669 0.0038634 0)
(1.17521 0.0038498 0)
(1.17373 0.00377925 0)
(1.17226 0.00364158 0)
(1.17084 0.00342803 0)
(1.16948 0.00313311 0)
(1.16822 0.00275456 0)
(1.16709 0.0022939 0)
(1.16611 0.00175649 0)
(1.16532 0.00115201 0)
(1.16473 0.000496138 0)
(1.16437 -0.000186505 0)
(1.16425 -0.000870987 0)
(1.16436 -0.00153291 0)
(1.16469 -0.00214883 0)
(1.16523 -0.00270679 0)
(1.16596 -0.0031905 0)
(1.16685 -0.00358158 0)
(1.16787 -0.00386318 0)
(1.16898 -0.00402313 0)
(1.17013 -0.00405439 0)
(1.17127 -0.0039563 0)
(1.17236 -0.00373848 0)
(1.17336 -0.00341835 0)
(1.17424 -0.00301423 0)
(1.17497 -0.00254416 0)
(1.17553 -0.0020268 0)
(1.17591 -0.00148007 0)
(1.17611 -0.000920595 0)
(1.17613 -0.000366575 0)
(1.17596 0.000158824 0)
(1.17563 0.000642778 0)
(1.17516 0.00108158 0)
(1.17456 0.00147356 0)
(1.17385 0.00182015 0)
(1.17306 0.00212549 0)
(1.17218 0.00239553 0)
(1.17124 0.00263704 0)
(1.17023 0.0028564 0)
(1.16917 0.0030586 0)
(1.16805 0.00324642 0)
(1.16688 0.00341987 0)
(1.16565 0.00357623 0)
(1.16438 0.00371033 0)
(1.16306 0.00381505 0)
(1.16171 0.00388195 0)
(1.16033 0.00390205 0)
(1.15894 0.00386682 0)
(1.15757 0.00376854 0)
(1.15623 0.00360077 0)
(1.15494 0.00336067 0)
(1.15374 0.00304921 0)
(1.15266 0.00267089 0)
(1.1517 0.00223254 0)
(1.1509 0.0017437 0)
(1.15028 0.00121605 0)
(1.14984 0.000664358 0)
(1.14958 0.000106106 0)
(1.14952 -0.000441751 0)
(1.14962 -0.0009614 0)
(1.14989 -0.00143491 0)
(1.1503 -0.0018532 0)
(1.15084 -0.0022064 0)
(1.15148 -0.0024846 0)
(1.1522 -0.00268019 0)
(1.15296 -0.00278886 0)
(1.15374 -0.00280909 0)
(1.15451 -0.00274303 0)
(1.15524 -0.00259718 0)
(1.15591 -0.00238108 0)
(1.15649 -0.00210621 0)
(1.15696 -0.00178505 0)
(1.15732 -0.00143 0)
(1.15756 -0.00105258 0)
(1.15766 -0.000663564 0)
(1.15764 -0.000275991 0)
(1.15748 9.50588e-05 0)
(1.15721 0.000441117 0)
(1.15683 0.000758831 0)
(1.15636 0.00104554 0)
(1.1558 0.00130021 0)
(1.15516 0.00152311 0)
(1.15446 0.00171514 0)
(1.15371 0.00187744 0)
(1.15291 0.00201076 0)
(1.15207 0.00211539 0)
(1.15119 0.00219016 0)
(1.15029 0.00223365 0)
(1.14938 0.00224204 0)
(1.14843 0.00221331 0)
(1.14753 0.00215051 0)
(1.14653 0.00202636 0)
(1.14578 0.00192068 0)
(1.14447 0.0015981 0)
(1.35556 -0.00694958 0)
(1.3578 -0.00737426 0)
(1.35999 -0.00756674 0)
(1.36208 -0.0075746 0)
(1.36405 -0.00741259 0)
(1.36591 -0.00706426 0)
(1.3676 -0.00651641 0)
(1.36907 -0.00578612 0)
(1.37026 -0.00491086 0)
(1.37113 -0.00392912 0)
(1.37167 -0.0028849 0)
(1.37185 -0.00181564 0)
(1.37171 -0.000765482 0)
(1.37127 0.00021002 0)
(1.37058 0.00108106 0)
(1.36968 0.00183462 0)
(1.36862 0.00247117 0)
(1.36742 0.00299812 0)
(1.36612 0.00342641 0)
(1.36476 0.00377159 0)
(1.36335 0.00405369 0)
(1.36191 0.00429297 0)
(1.36043 0.00450651 0)
(1.35891 0.00470713 0)