/*--------------------------------*- C++ -*----------------------------------*\
| =========                 |                                                 |
| \\      /  F ield         | OpenFOAM: The Open Source CFD Toolbox           |
|  \\    /   O peration     | Version:  2206                                  |
|   \\  /    A nd           | Website:  www.openfoam.com                      |
|    \\/     M anipulation  |                                                 |
\*---------------------------------------------------------------------------*/
FoamFile
{
    version     2.0;
    format      ascii;
    arch        "LSB;label=32;scalar=64";
    class       volVectorField;
    location    "18.6";
    object      U;
}
// * * * * * * * * * * * * * * * * * * * * * * * * * * * * * * * * * * * * * //

dimensions      [0 1 -1 0 0 0 0];

internalField   nonuniform List<vector> 
1814
(
(1.47766 -0.0007043 0)
(1.47792 -0.0020964 0)
(1.47852 -0.00342895 0)
(1.47942 -0.00466093 0)
(1.48057 -0.00577139 0)
(1.4819 -0.00675815 0)
(1.48339 -0.00762844 0)
(1.48501 -0.00839146 0)
(1.48674 -0.00905659 0)
(1.48857 -0.0096342 0)
(1.49048 -0.0101353 0)
(1.49245 -0.0105705 0)
(1.49448 -0.0109493 0)
(1.49656 -0.0112799 0)
(1.49869 -0.011569 0)
(1.50085 -0.0118222 0)
(1.50304 -0.012044 0)
(1.50527 -0.012238 0)
(1.50752 -0.0124073 0)
(1.50979 -0.0125543 0)
(1.51209 -0.0126807 0)
(1.5144 -0.0127881 0)
(1.51673 -0.0128775 0)
(1.51907 -0.0129496 0)
(1.52143 -0.013005 0)
(1.52379 -0.0130436 0)
(1.52615 -0.0130658 0)
(1.52852 -0.0130713 0)
(1.53089 -0.0130601 0)
(1.53326 -0.0130319 0)
(1.53562 -0.0129863 0)
(1.53797 -0.012923 0)
(1.54031 -0.0128416 0)
(1.54263 -0.012742 0)
(1.54494 -0.0126242 0)
(1.54722 -0.0124884 0)
(1.54948 -0.012335 0)
(1.55171 -0.0121643 0)
(1.55391 -0.0119769 0)
(1.55607 -0.0117736 0)
(1.55819 -0.011555 0)
(1.56027 -0.0113221 0)
(1.56231 -0.011076 0)
(1.56431 -0.0108176 0)
(1.56625 -0.010548 0)
(1.56815 -0.0102681 0)
(1.57 -0.00997889 0)
(1.57179 -0.00968152 0)
(1.57353 -0.00937692 0)
(1.57522 -0.00906623 0)
(1.57685 -0.00875022 0)
(1.57843 -0.00842935 0)
(1.57996 -0.00810341 0)
(1.58143 -0.00777199 0)
(1.58284 -0.00743445 0)
(1.5842 -0.00708995 0)
(1.58551 -0.00673712 0)
(1.58676 -0.00637445 0)
(1.58796 -0.00599939 0)
(1.5891 -0.00560969 0)
(1.59018 -0.00520119 0)
(1.5912 -0.00477078 0)
(1.59217 -0.0043124 0)
(1.59306 -0.00382156 0)
(1.5939 -0.00329051 0)
(1.59466 -0.00271231 0)
(1.59534 -0.00207817 0)
(1.59594 -0.00137769 0)
(1.59645 -0.000597884 0)
(1.59685 0.000274778 0)
(1.59715 0.00125727 0)
(1.59731 0.00236911 0)
(1.59734 0.00363281 0)
(1.5972 0.00507478 0)
(1.59688 0.00672629 0)
(1.59636 0.00862432 0)
(1.5956 0.010813 0)
(1.59458 0.0133454 0)
(1.59326 0.0162852 0)
(1.59158 0.0197092 0)
(1.58951 0.0237102 0)
(1.58698 0.0284013 0)
(1.58394 0.0339209 0)
(1.5803 0.0404394 0)
(1.57597 0.0481664 0)
(1.57087 0.0573617 0)
(1.56488 0.0683495 0)
(1.5579 0.0815375 0)
(1.54978 0.0974419 0)
(1.54041 0.116722 0)
(1.52966 0.140226 0)
(1.51741 0.169053 0)
(1.5036 0.204643 0)
(1.4882 0.248922 0)
(1.47148 0.304469 0)
(1.45342 0.375039 0)
(1.43664 0.465599 0)
(1.41724 0.58559 0)
(1.42327 0.743547 0)
(1.39207 0.980703 0)
(1.65347 1.2627 0)
(1.5512 1.98377 0)
(1.47767 -0.000879266 0)
(1.47797 -0.00261409 0)
(1.47867 -0.00425943 0)
(1.47971 -0.00575711 0)
(1.481 -0.00708588 0)
(1.48247 -0.00825253 0)
(1.48409 -0.00927162 0)
(1.48583 -0.0101571 0)
(1.48767 -0.0109226 0)
(1.4896 -0.0115824 0)
(1.49159 -0.0121514 0)
(1.49363 -0.0126432 0)
(1.49572 -0.0130696 0)
(1.49785 -0.0134409 0)
(1.50002 -0.0137651 0)
(1.50222 -0.0140487 0)
(1.50445 -0.014297 0)
(1.50671 -0.0145142 0)
(1.50899 -0.0147039 0)
(1.51129 -0.0148687 0)
(1.51361 -0.0150107 0)
(1.51595 -0.0151315 0)
(1.5183 -0.0152322 0)
(1.52066 -0.0153135 0)
(1.52304 -0.015376 0)
(1.52542 -0.0154197 0)
(1.52781 -0.0154445 0)
(1.5302 -0.0154505 0)
(1.53259 -0.0154374 0)
(1.53498 -0.0154051 0)
(1.53737 -0.015353 0)
(1.53974 -0.0152799 0)
(1.54211 -0.0151854 0)
(1.54446 -0.015069 0)
(1.54679 -0.014931 0)
(1.5491 -0.0147715 0)
(1.55138 -0.0145909 0)
(1.55363 -0.0143899 0)
(1.55585 -0.014169 0)
(1.55803 -0.0139289 0)
(1.56018 -0.0136708 0)
(1.56228 -0.0133956 0)
(1.56434 -0.0131049 0)
(1.56635 -0.0127998 0)
(1.56831 -0.0124816 0)
(1.57022 -0.0121511 0)
(1.57208 -0.0118098 0)
(1.57389 -0.0114588 0)
(1.57564 -0.0110997 0)
(1.57734 -0.0107336 0)
(1.57898 -0.0103622 0)
(1.58057 -0.00998616 0)
(1.5821 -0.00960548 0)
(1.58358 -0.00921944 0)
(1.585 -0.00882765 0)
(1.58638 -0.00842874 0)
(1.5877 -0.00802176 0)
(1.58896 -0.00760424 0)
(1.59017 -0.0071745 0)
(1.59134 -0.0067286 0)
(1.59244 -0.00626395 0)
(1.59349 -0.0057746 0)
(1.59449 -0.00525683 0)
(1.59543 -0.00470245 0)
(1.59631 -0.00410591 0)
(1.59713 -0.00345713 0)
(1.59788 -0.00274757 0)
(1.59856 -0.0019639 0)
(1.59916 -0.00109361 0)
(1.59968 -0.000120514 0)
(1.6001 0.000973721 0)
(1.60042 0.00221015 0)
(1.60063 0.0036134 0)
(1.6007 0.0052122 0)
(1.60063 0.00704041 0)
(1.60039 0.00913809 0)
(1.59997 0.0115531 0)
(1.59935 0.0143422 0)
(1.5985 0.0175733 0)
(1.59739 0.0213275 0)
(1.59599 0.025703 0)
(1.59427 0.0308181 0)
(1.59218 0.0368175 0)
(1.5897 0.0438769 0)
(1.58679 0.0522108 0)
(1.58339 0.0620829 0)
(1.57948 0.0738194 0)
(1.57505 0.0878252 0)
(1.57009 0.104606 0)
(1.56463 0.124799 0)
(1.55877 0.149212 0)
(1.55269 0.178876 0)
(1.54671 0.215106 0)
(1.54137 0.259604 0)
(1.5378 0.314599 0)
(1.53721 0.383096 0)
(1.54446 0.469038 0)
(1.55987 0.57827 0)
(1.61103 0.715937 0)
(1.67135 0.897327 0)
(1.87507 1.0785 0)
(2.07846 1.47729 0)
(1.47768 -0.00108964 0)
(1.47805 -0.00323002 0)
(1.47889 -0.00523236 0)
(1.48013 -0.00701532 0)
(1.48162 -0.00856206 0)
(1.48327 -0.00989367 0)
(1.48505 -0.0110475 0)
(1.48693 -0.0120413 0)
(1.48891 -0.0128937 0)
(1.49094 -0.0136251 0)
(1.49303 -0.0142549 0)
(1.49516 -0.0147999 0)
(1.49732 -0.0152742 0)
(1.49951 -0.0156895 0)
(1.50173 -0.0160542 0)
(1.50398 -0.0163748 0)
(1.50625 -0.0166565 0)
(1.50855 -0.016904 0)
(1.51086 -0.0171211 0)
(1.5132 -0.0173105 0)
(1.51555 -0.0174743 0)
(1.51791 -0.0176141 0)
(1.52029 -0.0177309 0)
(1.52268 -0.0178258 0)
(1.52508 -0.0178989 0)
(1.52749 -0.01795 0)
(1.52991 -0.0179788 0)
(1.53233 -0.0179852 0)
(1.53475 -0.0179693 0)
(1.53716 -0.0179312 0)
(1.53957 -0.0178702 0)
(1.54198 -0.0177849 0)
(1.54437 -0.0176745 0)
(1.54675 -0.0175385 0)
(1.54911 -0.017377 0)
(1.55145 -0.0171902 0)
(1.55376 -0.0169787 0)
(1.55604 -0.0167432 0)
(1.55829 -0.0164844 0)
(1.5605 -0.0162035 0)
(1.56267 -0.0159012 0)
(1.5648 -0.0155794 0)
(1.56688 -0.0152395 0)
(1.56891 -0.0148837 0)
(1.57089 -0.0145127 0)
(1.57282 -0.0141284 0)
(1.5747 -0.0137318 0)
(1.57652 -0.0133247 0)
(1.57829 -0.0129087 0)
(1.58 -0.0124859 0)
(1.58165 -0.0120582 0)
(1.58325 -0.011626 0)
(1.58479 -0.0111887 0)
(1.58628 -0.0107466 0)
(1.58772 -0.010299 0)
(1.5891 -0.00984541 0)
(1.59043 -0.00938407 0)
(1.59172 -0.00891336 0)
(1.59295 -0.00843006 0)
(1.59413 -0.00793166 0)
(1.59526 -0.0074132 0)
(1.59635 -0.00687091 0)
(1.59738 -0.00629753 0)
(1.59837 -0.00568792 0)
(1.5993 -0.00503229 0)
(1.60018 -0.00432301 0)
(1.60101 -0.0035474 0)
(1.60177 -0.00269392 0)
(1.60248 -0.00174767 0)
(1.60312 -0.000691512 0)
(1.60368 0.000494004 0)
(1.60416 0.00183122 0)
(1.60456 0.0033465 0)
(1.60485 0.0050699 0)
(1.60504 0.00703565 0)
(1.60512 0.00928487 0)
(1.60506 0.0118675 0)
(1.60487 0.0148432 0)
(1.60452 0.0182814 0)
(1.604 0.0222647 0)
(1.6033 0.0268904 0)
(1.60242 0.0322785 0)
(1.60134 0.0385757 0)
(1.60006 0.0459559 0)
(1.59858 0.0546254 0)
(1.59691 0.0648341 0)
(1.5951 0.0768906 0)
(1.59322 0.0911725 0)
(1.59136 0.108144 0)
(1.58971 0.128381 0)
(1.58855 0.152599 0)
(1.58826 0.181685 0)
(1.58947 0.21672 0)
(1.5931 0.259014 0)
(1.60067 0.310183 0)
(1.61422 0.372048 0)
(1.63787 0.446862 0)
(1.67537 0.535997 0)
(1.73801 0.640513 0)
(1.83066 0.760403 0)
(1.96027 0.854229 0)
(2.20226 1.0183 0)
(1.4777 -0.0013507 0)
(1.47818 -0.00400001 0)
(1.47925 -0.00641587 0)
(1.48077 -0.00850279 0)
(1.48252 -0.010261 0)
(1.4844 -0.0117476 0)
(1.48637 -0.0130112 0)
(1.48842 -0.0140824 0)
(1.49054 -0.0149863 0)
(1.4927 -0.015751 0)
(1.49489 -0.0164012 0)
(1.49711 -0.0169597 0)
(1.49934 -0.0174451 0)
(1.50159 -0.0178715 0)
(1.50387 -0.0182479 0)
(1.50617 -0.0185807 0)
(1.50849 -0.0188751 0)
(1.51082 -0.0191356 0)
(1.51318 -0.0193658 0)
(1.51554 -0.0195684 0)
(1.51793 -0.0197455 0)
(1.52033 -0.0198984 0)
(1.52274 -0.0200282 0)
(1.52517 -0.0201358 0)
(1.5276 -0.0202213 0)
(1.53005 -0.0202838 0)
(1.5325 -0.0203227 0)
(1.53495 -0.0203376 0)
(1.5374 -0.0203285 0)
(1.53985 -0.0202944 0)
(1.5423 -0.0202334 0)
(1.54475 -0.0201434 0)
(1.54718 -0.0200238 0)
(1.5496 -0.0198747 0)
(1.552 -0.0196961 0)
(1.55438 -0.0194883 0)
(1.55673 -0.0192516 0)
(1.55905 -0.0189872 0)
(1.56133 -0.0186953 0)
(1.56358 -0.0183774 0)
(1.56578 -0.0180344 0)
(1.56794 -0.0176689 0)
(1.57005 -0.0172826 0)
(1.57211 -0.0168778 0)
(1.57412 -0.0164544 0)
(1.57608 -0.0160154 0)
(1.57798 -0.0155616 0)
(1.57983 -0.0150957 0)
(1.58161 -0.0146192 0)
(1.58334 -0.0141383 0)
(1.58501 -0.0136571 0)
(1.58662 -0.0131735 0)
(1.58818 -0.0126847 0)
(1.58968 -0.0121903 0)
(1.59113 -0.0116908 0)
(1.59253 -0.0111855 0)
(1.59388 -0.0106736 0)
(1.59518 -0.0101531 0)
(1.59643 -0.00962164 0)
(1.59763 -0.00907551 0)
(1.59879 -0.00851101 0)
(1.5999 -0.00792227 0)
(1.60097 -0.00730426 0)
(1.602 -0.00664823 0)
(1.60299 -0.00594763 0)
(1.60393 -0.00519037 0)
(1.60483 -0.00436571 0)
(1.60568 -0.00345983 0)
(1.60649 -0.00245713 0)
(1.60725 -0.00134042 0)
(1.60795 -8.98653e-05 0)
(1.6086 0.00131686 0)
(1.60919 0.00290815 0)
(1.60971 0.00471629 0)
(1.61016 0.00677533 0)
(1.61054 0.00912511 0)
(1.61085 0.0118149 0)
(1.61109 0.0149049 0)
(1.61125 0.0184642 0)
(1.61133 0.0225747 0)
(1.61135 0.027326 0)
(1.61131 0.0328303 0)
(1.61124 0.0392334 0)
(1.61115 0.0467069 0)
(1.61109 0.055446 0)
(1.61111 0.0656809 0)
(1.61132 0.0776842 0)
(1.61186 0.0917748 0)
(1.61291 0.108349 0)
(1.61478 0.127896 0)
(1.61787 0.151002 0)
(1.62271 0.178361 0)
(1.63007 0.210766 0)
(1.64103 0.249105 0)
(1.65715 0.294364 0)
(1.68059 0.347438 0)
(1.7143 0.40907 0)
(1.76227 0.47903 0)
(1.82824 0.554998 0)
(1.92348 0.637144 0)
(2.03686 0.699624 0)
(2.21541 0.784173 0)
(1.47774 -0.00170833 0)
(1.4784 -0.00501992 0)
(1.47982 -0.00788413 0)
(1.48174 -0.0102447 0)
(1.48384 -0.0121884 0)
(1.486 -0.0138248 0)
(1.48822 -0.0152093 0)
(1.49049 -0.0163759 0)
(1.49279 -0.0173559 0)
(1.49511 -0.0181842 0)
(1.49743 -0.0188862 0)
(1.49974 -0.0194879 0)
(1.50206 -0.0200109 0)
(1.50438 -0.020471 0)
(1.50672 -0.0208762 0)
(1.50908 -0.0212337 0)
(1.51145 -0.0215499 0)
(1.51383 -0.0218297 0)
(1.51623 -0.022076 0)
(1.51864 -0.0222916 0)
(1.52107 -0.0224781 0)
(1.52351 -0.0226373 0)
(1.52597 -0.0227703 0)
(1.52843 -0.0228779 0)
(1.53091 -0.0229588 0)
(1.53339 -0.0230132 0)
(1.53589 -0.0230399 0)
(1.53838 -0.0230404 0)
(1.54088 -0.0230206 0)
(1.54338 -0.0229791 0)
(1.54589 -0.0229084 0)
(1.54838 -0.0228027 0)
(1.55087 -0.0226614 0)
(1.55334 -0.0224862 0)
(1.55579 -0.0222769 0)
(1.55822 -0.0220357 0)
(1.56062 -0.0217621 0)
(1.56298 -0.0214592 0)
(1.56532 -0.0211257 0)
(1.5676 -0.020763 0)
(1.56985 -0.020369 0)
(1.57204 -0.0199495 0)
(1.57419 -0.0195101 0)
(1.57627 -0.0190563 0)
(1.5783 -0.0185824 0)
(1.58027 -0.0180913 0)
(1.58217 -0.0175822 0)
(1.58401 -0.0170573 0)
(1.58578 -0.0165119 0)
(1.58749 -0.0159595 0)
(1.58912 -0.0154126 0)
(1.59071 -0.0148693 0)
(1.59224 -0.0143242 0)
(1.59372 -0.0137756 0)
(1.59514 -0.0132229 0)
(1.5965 -0.0126654 0)
(1.59781 -0.0121033 0)
(1.59907 -0.0115324 0)
(1.60029 -0.010952 0)
(1.60145 -0.0103589 0)
(1.60258 -0.00974783 0)
(1.60366 -0.00911462 0)
(1.60471 -0.00845165 0)
(1.60573 -0.00775337 0)
(1.60671 -0.00700895 0)
(1.60765 -0.00620969 0)
(1.60857 -0.00534314 0)
(1.60946 -0.00439392 0)
(1.61032 -0.00334554 0)
(1.61115 -0.00218103 0)
(1.61195 -0.000881316 0)
(1.61273 0.000575853 0)
(1.61347 0.00221552 0)
(1.61421 0.00406898 0)
(1.61493 0.00617213 0)
(1.61564 0.00856679 0)
(1.61632 0.0113007 0)
(1.617 0.0144304 0)
(1.61769 0.018023 0)
(1.61838 0.0221566 0)
(1.61914 0.0269215 0)
(1.61988 0.0324194 0)
(1.62074 0.0387698 0)
(1.62176 0.0461181 0)
(1.62311 0.0546329 0)
(1.62482 0.0645431 0)
(1.62702 0.0761038 0)
(1.62988 0.0895528 0)
(1.63369 0.105191 0)
(1.63881 0.123424 0)
(1.64572 0.144757 0)
(1.655 0.169695 0)
(1.66746 0.198689 0)
(1.68418 0.232211 0)
(1.70663 0.270752 0)
(1.73671 0.314661 0)
(1.77666 0.363866 0)
(1.82958 0.417787 0)
(1.89769 0.473682 0)
(1.9875 0.531124 0)
(2.09644 0.576697 0)
(2.23124 0.61617 0)
(1.47783 -0.00224524 0)
(1.47886 -0.00650385 0)
(1.48089 -0.00987397 0)
(1.48337 -0.0124194 0)
(1.48585 -0.0143975 0)
(1.4883 -0.0160155 0)
(1.49077 -0.0173543 0)
(1.49327 -0.0184564 0)
(1.49576 -0.0193654 0)
(1.49823 -0.0201305 0)
(1.50068 -0.0207859 0)
(1.50311 -0.0213584 0)
(1.50552 -0.0218764 0)
(1.50793 -0.0223472 0)
(1.51036 -0.0227675 0)
(1.51279 -0.0231423 0)
(1.51523 -0.02348 0)
(1.51769 -0.0237861 0)
(1.52016 -0.0240628 0)
(1.52264 -0.0243121 0)
(1.52514 -0.0245337 0)
(1.52765 -0.0247283 0)
(1.53017 -0.0248945 0)
(1.5327 -0.0250461 0)
(1.53523 -0.0251727 0)
(1.53776 -0.0252701 0)
(1.54029 -0.0253288 0)
(1.54281 -0.025344 0)
(1.54531 -0.0253345 0)
(1.54781 -0.0253086 0)
(1.55032 -0.0252539 0)
(1.55281 -0.0251612 0)
(1.55529 -0.0250263 0)
(1.55772 -0.0248515 0)
(1.56015 -0.0246333 0)
(1.5625 -0.0243772 0)
(1.56485 -0.0240788 0)
(1.56711 -0.0237477 0)
(1.56936 -0.0233782 0)
(1.57153 -0.0229816 0)
(1.57367 -0.0225435 0)
(1.57571 -0.0220811 0)
(1.57772 -0.0215774 0)
(1.57962 -0.0210559 0)
(1.58151 -0.0205008 0)
(1.58329 -0.0199437 0)
(1.58504 -0.0193581 0)
(1.58668 -0.0187755 0)
(1.58832 -0.0181787 0)
(1.58994 -0.0175737 0)
(1.59145 -0.0169638 0)
(1.59287 -0.0163515 0)
(1.59423 -0.0157384 0)
(1.5955 -0.015125 0)
(1.59671 -0.0145116 0)
(1.59785 -0.0138979 0)
(1.59894 -0.0132831 0)
(1.59997 -0.0126653 0)
(1.60096 -0.0120419 0)
(1.6019 -0.0114097 0)
(1.60281 -0.0107641 0)
(1.60367 -0.0100997 0)
(1.60451 -0.00940989 0)
(1.60532 -0.00868699 0)
(1.60611 -0.00792225 0)
(1.60688 -0.00710513 0)
(1.60763 -0.00622336 0)
(1.60837 -0.00526274 0)
(1.6091 -0.00420434 0)
(1.60984 -0.00303101 0)
(1.61057 -0.00172422 0)
(1.61132 -0.000263391 0)
(1.61208 0.00137676 0)
(1.61285 0.00322547 0)
(1.61364 0.00531786 0)
(1.61447 0.00769725 0)
(1.61536 0.010411 0)
(1.61631 0.0135104 0)
(1.61735 0.0170561 0)
(1.61852 0.021117 0)
(1.61985 0.0257782 0)
(1.62139 0.0311365 0)
(1.62322 0.0372892 0)
(1.62535 0.0443536 0)
(1.62795 0.052475 0)
(1.63093 0.0618326 0)
(1.63498 0.0726222 0)
(1.64006 0.0850437 0)
(1.64648 0.0992941 0)
(1.65475 0.115539 0)
(1.66539 0.134263 0)
(1.6789 0.155974 0)
(1.69594 0.180886 0)
(1.71758 0.209098 0)
(1.74518 0.240735 0)
(1.7803 0.275923 0)
(1.8246 0.314266 0)
(1.88013 0.354727 0)
(1.94863 0.395015 0)
(2.0324 0.433115 0)
(2.13158 0.46237 0)
(2.24385 0.479492 0)
(1.47801 -0.00312091 0)
(1.47978 -0.00857104 0)
(1.48287 -0.0125366 0)
(1.48628 -0.0154828 0)
(1.48933 -0.0177348 0)
(1.49217 -0.0195354 0)
(1.49498 -0.0209528 0)
(1.49775 -0.0221226 0)
(1.50047 -0.02309 0)
(1.50313 -0.0238745 0)
(1.50571 -0.0244604 0)
(1.50821 -0.0249475 0)
(1.51068 -0.0254144 0)
(1.51314 -0.0258559 0)
(1.5156 -0.0262509 0)
(1.51804 -0.0265983 0)
(1.52044 -0.0269014 0)
(1.52283 -0.0271724 0)
(1.52519 -0.0274126 0)
(1.52755 -0.0276276 0)
(1.52988 -0.0278158 0)
(1.53221 -0.0279772 0)
(1.53449 -0.0281105 0)
(1.53678 -0.0282102 0)
(1.53904 -0.0282826 0)
(1.54133 -0.0283336 0)
(1.54353 -0.028361 0)
(1.54588 -0.0283618 0)
(1.5482 -0.0283275 0)
(1.55045 -0.0282514 0)
(1.55263 -0.0281305 0)
(1.55476 -0.0279665 0)
(1.55682 -0.0277596 0)
(1.55881 -0.0275109 0)
(1.56073 -0.0272214 0)
(1.56256 -0.0268919 0)
(1.56432 -0.0265233 0)
(1.566 -0.026117 0)
(1.56758 -0.0256749 0)
(1.56906 -0.0251941 0)
(1.57046 -0.0246681 0)
(1.57178 -0.0241122 0)
(1.57301 -0.0235528 0)
(1.57416 -0.0229768 0)
(1.57522 -0.0223647 0)
(1.5762 -0.0217308 0)
(1.57709 -0.0210816 0)
(1.5779 -0.0204232 0)
(1.57862 -0.0197648 0)
(1.57925 -0.0190984 0)
(1.5798 -0.018416 0)
(1.58029 -0.017723 0)
(1.58071 -0.017028 0)
(1.58107 -0.0163355 0)
(1.58137 -0.0156473 0)
(1.58161 -0.0149634 0)
(1.58181 -0.0142832 0)
(1.58195 -0.0136051 0)
(1.58206 -0.0129266 0)
(1.58213 -0.0122442 0)
(1.58218 -0.0115535 0)
(1.5822 -0.0108488 0)
(1.58222 -0.0101237 0)
(1.58222 -0.00937019 0)
(1.58223 -0.00857944 0)
(1.58224 -0.0077401 0)
(1.58228 -0.00684158 0)
(1.58234 -0.00587185 0)
(1.58245 -0.0048152 0)
(1.58259 -0.00365299 0)
(1.5828 -0.00236575 0)
(1.58308 -0.000935382 0)
(1.58345 0.000669238 0)
(1.58392 0.00246921 0)
(1.58451 0.0044923 0)
(1.58525 0.00677968 0)
(1.58617 0.00937682 0)
(1.58731 0.0123314 0)
(1.58872 0.0156962 0)
(1.59043 0.0195332 0)
(1.59252 0.023915 0)
(1.59506 0.0289211 0)
(1.59814 0.0346413 0)
(1.60188 0.0411769 0)
(1.6064 0.0486509 0)
(1.61188 0.057172 0)
(1.6185 0.0668627 0)
(1.62655 0.0779008 0)
(1.63633 0.0904468 0)
(1.64789 0.104697 0)
(1.66125 0.120805 0)
(1.67877 0.138977 0)
(1.70075 0.159369 0)
(1.72757 0.181982 0)
(1.76049 0.206509 0)
(1.80088 0.233126 0)
(1.84957 0.261721 0)
(1.90762 0.290884 0)
(1.97629 0.318539 0)
(2.05638 0.342604 0)
(2.14756 0.359723 0)
(2.24778 0.367306 0)
(1.47847 -0.00517292 0)
(1.48163 -0.0113201 0)
(1.48608 -0.0145193 0)
(1.49042 -0.0168932 0)
(1.49395 -0.0188375 0)
(1.49724 -0.0204916 0)
(1.50032 -0.0218116 0)
(1.50328 -0.0228847 0)
(1.50589 -0.0237555 0)
(1.50845 -0.0245219 0)
(1.51064 -0.0251839 0)
(1.51314 -0.0257615 0)
(1.51528 -0.0262851 0)
(1.51721 -0.0267612 0)
(1.51903 -0.0271916 0)
(1.52071 -0.0275822 0)
(1.52227 -0.0279441 0)
(1.52371 -0.0282668 0)
(1.52503 -0.0285543 0)
(1.52623 -0.02881 0)
(1.5273 -0.0290314 0)
(1.52826 -0.029221 0)
(1.5291 -0.0293704 0)
(1.52983 -0.0295282 0)
(1.53045 -0.0296286 0)
(1.53094 -0.0296972 0)
(1.53132 -0.0297554 0)
(1.53158 -0.0297942 0)
(1.53172 -0.0297699 0)
(1.53175 -0.0296994 0)
(1.53167 -0.0295479 0)
(1.53146 -0.0293373 0)
(1.53112 -0.0290755 0)
(1.53065 -0.028764 0)
(1.53005 -0.0284034 0)
(1.52933 -0.0279951 0)
(1.52847 -0.0275409 0)
(1.5275 -0.0270405 0)
(1.5264 -0.0264929 0)
(1.52518 -0.0259063 0)
(1.52385 -0.0252882 0)
(1.52241 -0.0246425 0)
(1.52087 -0.0239695 0)
(1.51922 -0.0232749 0)
(1.51747 -0.0225635 0)
(1.51564 -0.0218364 0)
(1.51372 -0.0210964 0)
(1.51173 -0.0203488 0)
(1.50966 -0.0195976 0)
(1.50753 -0.0188421 0)
(1.50535 -0.0180834 0)
(1.50311 -0.0173262 0)
(1.50085 -0.016576 0)
(1.49855 -0.0158359 0)
(1.49623 -0.0151073 0)
(1.4939 -0.0143898 0)
(1.49156 -0.013683 0)
(1.48923 -0.0129851 0)
(1.4869 -0.0122943 0)
(1.48461 -0.0116072 0)
(1.48234 -0.0109198 0)
(1.48011 -0.0102268 0)
(1.47794 -0.00952285 0)
(1.47583 -0.00880077 0)
(1.4738 -0.0080536 0)
(1.47186 -0.00727262 0)
(1.47003 -0.00645066 0)
(1.46832 -0.00557714 0)
(1.46674 -0.00459196 0)
(1.46536 -0.00353345 0)
(1.46414 -0.00235552 0)
(1.46317 -0.00106276 0)
(1.46242 0.000388329 0)
(1.46194 0.00201131 0)
(1.46179 0.00382847 0)
(1.46203 0.00586968 0)
(1.46272 0.00816945 0)
(1.46393 0.0107687 0)
(1.46575 0.0137135 0)
(1.46826 0.0170573 0)
(1.47158 0.0208592 0)
(1.47583 0.0251835 0)
(1.48117 0.0301013 0)
(1.48777 0.0356894 0)
(1.49582 0.042032 0)
(1.50555 0.0492168 0)
(1.51724 0.0573504 0)
(1.53112 0.0665732 0)
(1.54754 0.0770506 0)
(1.56684 0.0889254 0)
(1.58921 0.102117 0)
(1.61523 0.116521 0)
(1.6455 0.132281 0)
(1.68092 0.149475 0)
(1.72213 0.167786 0)
(1.76661 0.186887 0)
(1.82274 0.206433 0)
(1.88725 0.225586 0)
(1.96028 0.243069 0)
(2.04208 0.257309 0)
(2.13188 0.266352 0)
(2.22788 0.268483 0)
(1.47989 -0.0112656 0)
(1.48676 -0.0207578 0)
(1.49459 -0.0242295 0)
(1.49752 -0.0260442 0)
(1.49889 -0.0272124 0)
(1.49979 -0.0282534 0)
(1.50013 -0.0288014 0)
(1.49982 -0.0292964 0)
(1.49891 -0.02961 0)
(1.49746 -0.0298388 0)
(1.49553 -0.0300388 0)
(1.49314 -0.0301999 0)
(1.49034 -0.0302817 0)
(1.48717 -0.0303193 0)
(1.48365 -0.0303399 0)
(1.47978 -0.0303461 0)
(1.47555 -0.0303346 0)
(1.47099 -0.0303039 0)
(1.46611 -0.0302521 0)
(1.46093 -0.0301766 0)
(1.45545 -0.0300801 0)
(1.44969 -0.029965 0)
(1.44366 -0.02983 0)
(1.43736 -0.0296738 0)
(1.43081 -0.0294979 0)
(1.42402 -0.0293085 0)
(1.417 -0.0291082 0)
(1.40979 -0.0288989 0)
(1.4024 -0.028644 0)
(1.39485 -0.0283138 0)
(1.38712 -0.0279241 0)
(1.37924 -0.0274914 0)
(1.37122 -0.0270196 0)
(1.36308 -0.0265085 0)
(1.35484 -0.0259593 0)
(1.34652 -0.0253735 0)
(1.33813 -0.0247529 0)
(1.3297 -0.0240989 0)
(1.32123 -0.0234138 0)
(1.31276 -0.0227013 0)
(1.3043 -0.0219646 0)
(1.29586 -0.0212064 0)
(1.28746 -0.020431 0)
(1.27912 -0.0196407 0)
(1.27079 -0.0188361 0)
(1.26255 -0.0180244 0)
(1.25442 -0.0172099 0)
(1.24639 -0.0163953 0)
(1.2385 -0.0155867 0)
(1.23073 -0.0147754 0)
(1.22312 -0.013974 0)
(1.21566 -0.0131848 0)
(1.20838 -0.0124134 0)
(1.20126 -0.0116598 0)
(1.19434 -0.0109278 0)
(1.1876 -0.0102149 0)
(1.18107 -0.00952429 0)
(1.17472 -0.00885122 0)
(1.1686 -0.00819869 0)
(1.16267 -0.00755982 0)
(1.157 -0.00693727 0)
(1.15153 -0.00632054 0)
(1.14634 -0.00571244 0)
(1.14136 -0.00509824 0)
(1.1367 -0.00448164 0)
(1.13229 -0.00384261 0)
(1.12823 -0.00318548 0)
(1.12446 -0.00248383 0)
(1.12109 -0.00174726 0)
(1.11803 -0.00094204 0)
(1.11545 -8.79177e-05 0)
(1.11326 0.000872673 0)
(1.11163 0.00191671 0)
(1.11064 0.0030615 0)
(1.11033 0.0042879 0)
(1.11076 0.00570299 0)
(1.11205 0.0072955 0)
(1.11432 0.00908408 0)
(1.1177 0.0110972 0)
(1.12233 0.0133679 0)
(1.12837 0.0159345 0)
(1.13601 0.0188407 0)
(1.14545 0.0221338 0)
(1.15694 0.0258638 0)
(1.17075 0.0300849 0)
(1.18715 0.0348551 0)
(1.20654 0.0402483 0)
(1.22931 0.0463634 0)
(1.25592 0.0533118 0)
(1.28691 0.0611829 0)
(1.32281 0.0699506 0)
(1.36403 0.0795493 0)
(1.41091 0.0900781 0)
(1.46381 0.101629 0)
(1.52348 0.11415 0)
(1.58868 0.126737 0)
(1.66202 0.138509 0)
(1.74236 0.149377 0)
(1.82963 0.158843 0)
(1.92345 0.165908 0)
(2.02252 0.169415 0)
(2.12462 0.168373 0)
(1.46082 -0.00792083 0)
(1.45128 -0.0148469 0)
(1.43397 -0.0174262 0)
(1.41113 -0.0185004 0)
(1.387 -0.0191969 0)
(1.36294 -0.0196659 0)
(1.3388 -0.0199401 0)
(1.3144 -0.0200623 0)
(1.28977 -0.020089 0)
(1.26505 -0.0200522 0)
(1.2403 -0.0199658 0)
(1.21558 -0.0198302 0)
(1.19091 -0.019642 0)
(1.16634 -0.0194171 0)
(1.14188 -0.0191714 0)
(1.11756 -0.0189102 0)
(1.09338 -0.0186341 0)
(1.06936 -0.0183425 0)
(1.04551 -0.0180354 0)
(1.02187 -0.0177141 0)
(0.998428 -0.0173822 0)
(0.975218 -0.0170414 0)
(0.952248 -0.0166908 0)
(0.929532 -0.0163323 0)
(0.907084 -0.0159644 0)
(0.884918 -0.0155884 0)
(0.863052 -0.0152107 0)
(0.841507 -0.0148492 0)
(0.820046 -0.0144756 0)
(0.799118 -0.0140558 0)
(0.778582 -0.0135932 0)
(0.758458 -0.0131022 0)
(0.738808 -0.012589 0)
(0.71967 -0.0120566 0)
(0.701061 -0.0115079 0)
(0.683007 -0.0109459 0)
(0.665529 -0.0103732 0)
(0.648649 -0.00979193 0)
(0.632386 -0.00920418 0)
(0.616759 -0.00861257 0)
(0.601778 -0.00802002 0)
(0.587458 -0.00742961 0)
(0.573802 -0.00684577 0)
(0.56082 -0.00625829 0)
(0.548528 -0.00567593 0)
(0.536913 -0.00511623 0)
(0.525959 -0.0045828 0)
(0.515658 -0.00407436 0)
(0.505996 -0.00359 0)
(0.496962 -0.00313043 0)
(0.488543 -0.00269435 0)
(0.480722 -0.00228114 0)
(0.473482 -0.00189106 0)
(0.4668 -0.00152488 0)
(0.460657 -0.00118238 0)
(0.455028 -0.000863134 0)
(0.449893 -0.000565585 0)
(0.445229 -0.000287927 0)
(0.441022 -3.50026e-05 0)
(0.437242 0.000202865 0)
(0.433888 0.000429127 0)
(0.43093 0.000644945 0)
(0.428381 0.000853199 0)
(0.426207 0.00105662 0)
(0.424444 0.00125752 0)
(0.423045 0.00146204 0)
(0.422087 0.00165995 0)
(0.421497 0.00189758 0)
(0.421438 0.00210814 0)
(0.421822 0.00238615 0)
(0.422766 0.00276723 0)
(0.424311 0.00313643 0)
(0.426495 0.00351817 0)
(0.429379 0.00393755 0)
(0.43302 0.00441443 0)
(0.437524 0.00494507 0)
(0.442984 0.00548603 0)
(0.449512 0.00610778 0)
(0.457242 0.00681649 0)
(0.466334 0.00765202 0)
(0.476979 0.00861776 0)
(0.48939 0.00971601 0)
(0.503808 0.0109643 0)
(0.520508 0.0123824 0)
(0.539799 0.0139912 0)
(0.562026 0.0158081 0)
(0.587569 0.0178526 0)
(0.616859 0.0201568 0)
(0.650393 0.0227536 0)
(0.688742 0.0256596 0)
(0.732497 0.0288748 0)
(0.782359 0.0324008 0)
(0.838533 0.0363668 0)
(0.902728 0.0408659 0)
(0.975243 0.0458453 0)
(1.05593 0.0507265 0)
(1.14496 0.0549919 0)
(1.24159 0.0587081 0)
(1.34491 0.061731 0)
(1.45362 0.0636314 0)
(1.56567 0.0639544 0)
(1.67827 0.0623579 0)
(2.07992 1.52201 0)
(1.25809 0.900324 0)
(0.117262 0.286995 0)
(0.0868022 -0.0384337 0)
(-0.0651009 -0.0870428 0)
(-0.143801 -0.0811092 0)
(-0.179131 -0.0558012 0)
(-0.193011 -0.0312281 0)
(-0.189039 -0.0154384 0)
(-0.177839 -0.00492968 0)
(-0.166006 0.00548547 0)
(-0.157386 0.0160933 0)
(-0.153232 0.0256919 0)
(-0.153575 0.0335859 0)
(-0.159526 0.0387816 0)
(-0.167348 0.0386893 0)
(-0.170653 0.031102 0)
(-0.165936 0.0204598 0)
(-0.154017 0.0115227 0)
(-0.135368 0.00473086 0)
(-0.110577 -0.000398017 0)
(-0.081107 -0.00398512 0)
(-0.0483716 -0.00660716 0)
(-0.0135091 -0.0086513 0)
(0.0243175 -0.0102175 0)
(0.0604664 -0.0108014 0)
(0.0962617 -0.0111719 0)
(0.131074 -0.0114177 0)
(2.3283 1.09385 0)
(2.26174 0.816856 0)
(1.9029 0.604128 0)
(1.67557 0.426405 0)
(1.43648 0.278865 0)
(1.21243 0.167978 0)
(1.03783 0.0898936 0)
(0.906156 0.0360574 0)
(0.812007 -0.00287486 0)
(0.736731 -0.0208183 0)
(0.68529 -0.0285125 0)
(0.652784 -0.0308449 0)
(0.634082 -0.0304349 0)
(0.631986 -0.0292304 0)
(0.639828 -0.0292954 0)
(0.663873 -0.0318412 0)
(0.697136 -0.0370806 0)
(0.731945 -0.0447839 0)
(0.770544 -0.0532452 0)
(0.81229 -0.0598611 0)
(0.855796 -0.0648708 0)
(0.899924 -0.0682522 0)
(0.944344 -0.070003 0)
(0.987907 -0.0702253 0)
(1.03047 -0.068979 0)
(1.07165 -0.0667183 0)
(1.11144 -0.0640208 0)
(1.14985 -0.0612892 0)
(2.43202 0.936781 0)
(2.64301 0.802846 0)
(2.64074 0.684616 0)
(2.60858 0.560418 0)
(2.54916 0.443148 0)
(2.47533 0.342727 0)
(2.40046 0.260279 0)
(2.33116 0.195356 0)
(2.27108 0.145724 0)
(2.21844 0.106949 0)
(2.17666 0.0780396 0)
(2.14458 0.0555956 0)
(2.12158 0.0374776 0)
(2.10742 0.0226223 0)
(2.09837 0.00752976 0)
(2.09554 -0.00805657 0)
(2.09706 -0.0248975 0)
(2.10121 -0.0412077 0)
(2.10743 -0.0558005 0)
(2.11521 -0.0680244 0)
(2.12441 -0.077611 0)
(2.13469 -0.0844516 0)
(2.14613 -0.0888594 0)
(2.15831 -0.0910043 0)
(2.17097 -0.0912066 0)
(2.18401 -0.0900037 0)
(2.19741 -0.0879219 0)
(2.21104 -0.0854117 0)
(2.42648 0.793705 0)
(2.6269 0.719717 0)
(2.71805 0.63862 0)
(2.77267 0.535245 0)
(2.81603 0.432653 0)
(2.82131 0.340708 0)
(2.81948 0.265261 0)
(2.81166 0.203475 0)
(2.80014 0.15198 0)
(2.78779 0.109878 0)
(2.77673 0.0762512 0)
(2.76785 0.0495208 0)
(2.76115 0.0275987 0)
(2.75649 0.00815216 0)
(2.75428 -0.00886181 0)
(2.75359 -0.0251688 0)
(2.75275 -0.0411513 0)
(2.75102 -0.0557679 0)
(2.74822 -0.0685465 0)
(2.74466 -0.0789812 0)
(2.74065 -0.087116 0)
(2.73668 -0.092429 0)
(2.73302 -0.0963423 0)
(2.72938 -0.0975622 0)
(2.72655 -0.0970728 0)
(2.72443 -0.095947 0)
(2.72299 -0.0938387 0)
(2.72225 -0.0912538 0)
(2.38731 0.617163 0)
(2.54135 0.570979 0)
(2.66166 0.508858 0)
(2.74954 0.444948 0)
(2.81911 0.37283 0)
(2.86659 0.308125 0)
(2.89941 0.247312 0)
(2.92285 0.195118 0)
(2.93826 0.149375 0)
(2.94645 0.111894 0)
(2.95157 0.0812444 0)
(2.95518 0.0564149 0)
(2.95781 0.035339 0)
(2.95978 0.0172799 0)
(2.96087 0.00147303 0)
(2.96078 -0.0139601 0)
(2.95913 -0.0289316 0)
(2.95562 -0.0421912 0)
(2.95024 -0.0538233 0)
(2.94335 -0.0637069 0)
(2.9355 -0.0716727 0)
(2.92715 -0.0776991 0)
(2.91867 -0.0820239 0)
(2.91032 -0.0845164 0)
(2.90248 -0.0856516 0)
(2.89533 -0.0856556 0)
(2.88889 -0.0848289 0)
(2.88316 -0.0834745 0)
(2.36536 0.474339 0)
(2.48586 0.443639 0)
(2.59311 0.39986 0)
(2.68262 0.352889 0)
(2.75881 0.303054 0)
(2.82053 0.25359 0)
(2.86746 0.207567 0)
(2.90263 0.165514 0)
(2.92892 0.128741 0)
(2.94877 0.0971403 0)
(2.96362 0.0704013 0)
(2.97464 0.0477352 0)
(2.9831 0.0278029 0)
(2.98868 0.0108438 0)
(2.99368 -0.00477369 0)
(2.99528 -0.0187107 0)
(2.99474 -0.031732 0)
(2.99246 -0.043213 0)
(2.98847 -0.0531152 0)
(2.98296 -0.0616633 0)
(2.97626 -0.0685747 0)
(2.96869 -0.0738133 0)
(2.9606 -0.0775621 0)
(2.95232 -0.0799349 0)
(2.94417 -0.0810947 0)
(2.93635 -0.0813107 0)
(2.929 -0.080845 0)
(2.92222 -0.0799086 0)
(2.35297 0.362097 0)
(2.45745 0.342089 0)
(2.55365 0.311533 0)
(2.63663 0.276418 0)
(2.70868 0.238091 0)
(2.76935 0.199323 0)
(2.81916 0.162602 0)
(2.85948 0.129372 0)
(2.89177 0.100108 0)
(2.91739 0.0747104 0)
(2.93731 0.0529743 0)
(2.95285 0.0341209 0)
(2.96457 0.017975 0)
(2.97318 0.00381378 0)
(2.97922 -0.00868642 0)
(2.983 -0.0196983 0)
(2.98466 -0.029533 0)
(2.98406 -0.0386776 0)
(2.98149 -0.0466718 0)
(2.97695 -0.0535657 0)
(2.97118 -0.0592326 0)
(2.96477 -0.063652 0)
(2.95744 -0.0669206 0)
(2.94983 -0.0691189 0)
(2.94207 -0.0704218 0)
(2.9345 -0.0709957 0)
(2.92719 -0.071014 0)
(2.92004 -0.0706114 0)
(2.32643 0.262195 0)
(2.42402 0.246561 0)
(2.51537 0.223719 0)
(2.59657 0.19753 0)
(2.66817 0.16967 0)
(2.72989 0.141796 0)
(2.78204 0.115284 0)
(2.82515 0.0910749 0)
(2.86051 0.0693219 0)
(2.88888 0.0502455 0)
(2.91154 0.0337239 0)
(2.92931 0.019539 0)
(2.94304 0.00701067 0)
(2.95306 -0.00401613 0)
(2.95996 -0.0139982 0)
(2.96396 -0.0228273 0)
(2.96534 -0.0310168 0)
(2.96439 -0.0381224 0)
(2.96135 -0.0445637 0)
(2.95654 -0.0501103 0)
(2.9503 -0.054762 0)
(2.94294 -0.0585148 0)
(2.93476 -0.0613714 0)
(2.92608 -0.0634113 0)
(2.91714 -0.0647452 0)
(2.90811 -0.0654936 0)
(2.89914 -0.0657429 0)
(2.89033 -0.065591 0)
(2.22673 0.162141 0)
(2.32551 0.150711 0)
(2.41817 0.135373 0)
(2.50264 0.118083 0)
(2.57726 0.100114 0)
(2.6417 0.0822989 0)
(2.69614 0.0653412 0)
(2.74123 0.0497108 0)
(2.77792 0.0356098 0)
(2.80714 0.0230362 0)
(2.82979 0.0120349 0)
(2.84666 0.00248994 0)
(2.85841 -0.00577324 0)
(2.86584 -0.0127864 0)
(2.86945 -0.0194374 0)
(2.86951 -0.0248184 0)
(2.86649 -0.0299209 0)
(2.86061 -0.0345919 0)
(2.85218 -0.0387338 0)
(2.8415 -0.0423133 0)
(2.8289 -0.0453419 0)
(2.81468 -0.0478073 0)
(2.7992 -0.0497062 0)
(2.78276 -0.05108 0)
(2.76562 -0.0519932 0)
(2.74802 -0.0525114 0)
(2.73013 -0.052694 0)
(2.71211 -0.0526091 0)
(1.7877 0.0587072 0)
(1.89064 0.0531096 0)
(1.98398 0.046039 0)
(2.0656 0.0382001 0)
(2.1346 0.0301534 0)
(2.19098 0.0222938 0)
(2.23524 0.0148763 0)
(2.26815 0.00793631 0)
(2.29067 0.00183135 0)
(2.30415 -0.00221801 0)
(2.30986 -0.00691551 0)
(2.30867 -0.010116 0)
(2.30191 -0.0135814 0)