/*--------------------------------*- C++ -*----------------------------------*\
| =========                 |                                                 |
| \\      /  F ield         | OpenFOAM: The Open Source CFD Toolbox           |
|  \\    /   O peration     | Version:  2206                                  |
|   \\  /    A nd           | Website:  www.openfoam.com                      |
|    \\/     M anipulation  |                                                 |
\*---------------------------------------------------------------------------*/
FoamFile
{
    version     2.0;
    format      ascii;
    arch        "LSB;label=32;scalar=64";
    class       volVectorField;
    location    "19.2";
    object      U_0;
}
// * * * * * * * * * * * * * * * * * * * * * * * * * * * * * * * * * * * * * //

dimensions      [0 1 -1 0 0 0 0];

internalField   nonuniform List<vector> 
1848
(
(1.81239 0.00413395 0)
(1.81896 -0.0434415 0)
(1.83108 -0.0904966 0)
(1.84804 -0.134227 0)
(1.86909 -0.172614 0)
(1.89339 -0.204114 0)
(1.92015 -0.227717 0)
(1.94883 -0.242788 0)
(1.97905 -0.248942 0)
(2.01004 -0.246065 0)
(2.0412 -0.234351 0)
(2.07189 -0.214324 0)
(2.10163 -0.186849 0)
(2.13025 -0.152871 0)
(2.15752 -0.113408 0)
(2.18262 -0.0700683 0)
(2.20394 -0.0254107 0)
(2.22001 0.0182809 0)
(2.22951 0.0589102 0)
(2.23144 0.0947472 0)
(2.22472 0.124686 0)
(2.20801 0.147401 0)
(2.18185 0.161437 0)
(2.148 0.167906 0)
(2.10943 0.168921 0)
(2.06998 0.166517 0)
(2.03248 0.16207 0)
(1.99839 0.155954 0)
(1.96854 0.147878 0)
(1.94322 0.137263 0)
(1.92242 0.12331 0)
(1.90622 0.105369 0)
(1.89464 0.083428 0)
(1.88738 0.0576595 0)
(1.88425 0.0286257 0)
(1.88513 -0.00270032 0)
(1.88976 -0.034791 0)
(1.89774 -0.0656939 0)
(1.90863 -0.0939668 0)
(1.92192 -0.11844 0)
(1.93703 -0.138271 0)
(1.95339 -0.152954 0)
(1.97062 -0.162243 0)
(1.98857 -0.165997 0)
(2.00678 -0.164167 0)
(2.02491 -0.156883 0)
(2.04257 -0.144398 0)
(2.05936 -0.127188 0)
(2.07496 -0.105879 0)
(2.08909 -0.0811627 0)
(2.10127 -0.0538986 0)
(2.11075 -0.025424 0)
(2.11685 0.00297272 0)
(2.11913 0.0301695 0)
(2.11733 0.0551639 0)
(2.11135 0.0771166 0)
(2.10116 0.0953822 0)
(2.08703 0.109448 0)
(2.06976 0.119064 0)
(2.05046 0.124502 0)
(2.03025 0.126289 0)
(2.01022 0.124863 0)
(1.99108 0.120422 0)
(1.97348 0.112937 0)
(1.95794 0.102359 0)
(1.94491 0.0887382 0)
(1.93461 0.0722022 0)
(1.92716 0.0530112 0)
(1.92267 0.0316186 0)
(1.92123 0.0087058 0)
(1.92283 -0.0146958 0)
(1.92725 -0.0372891 0)
(1.93415 -0.0580759 0)
(1.9431 -0.0761862 0)
(1.95357 -0.0909792 0)
(1.96506 -0.102074 0)
(1.97721 -0.109304 0)
(1.98983 -0.112622 0)
(2.00264 -0.112058 0)
(2.01532 -0.107757 0)
(2.02764 -0.099922 0)
(2.0393 -0.0888979 0)
(2.05004 -0.0751398 0)
(2.05962 -0.0591399 0)
(2.06774 -0.0414692 0)
(2.07398 -0.0229097 0)
(2.07804 -0.00422686 0)
(2.07977 0.0139313 0)
(2.07914 0.0309632 0)
(2.07621 0.0463395 0)
(2.07109 0.0596198 0)
(2.06393 0.0704653 0)
(2.05493 0.0786185 0)
(2.04441 0.0839255 0)
(2.03288 0.0864217 0)
(2.02078 0.0862969 0)
(2.00854 0.0836859 0)
(1.99661 0.0786754 0)
(1.98548 0.0714075 0)
(1.97553 0.0620542 0)
(1.96705 0.0507914 0)
(1.96024 0.0378237 0)
(1.95527 0.0234198 0)
(1.9523 0.00796709 0)
(1.95145 -0.00790677 0)
(1.95269 -0.0234286 0)
(1.95586 -0.0379174 0)
(1.96069 -0.0507501 0)
(1.96683 -0.0614263 0)
(1.97387 -0.0696165 0)
(1.98152 -0.0751601 0)
(1.98958 -0.0780045 0)
(1.9979 -0.0781613 0)
(2.00623 -0.0756922 0)
(2.01439 -0.0706801 0)
(2.02215 -0.0633577 0)
(2.02929 -0.0540576 0)
(2.03566 -0.0431326 0)
(2.04107 -0.0309646 0)
(2.04532 -0.0180335 0)
(2.04817 -0.0049418 0)
(2.04957 0.0078392 0)
(2.04949 0.0198751 0)
(1.94401 -0.000143906 0)
(1.9514 -0.0532495 0)
(1.9634 -0.105125 0)
(1.97932 -0.152983 0)
(1.99843 -0.194667 0)
(2.01983 -0.2286 0)
(2.04257 -0.2539 0)
(2.06607 -0.270242 0)
(2.09047 -0.277393 0)
(2.11538 -0.27503 0)
(2.14023 -0.263122 0)
(2.16446 -0.242226 0)
(2.18753 -0.213428 0)
(2.20924 -0.177869 0)
(2.22956 -0.136692 0)
(2.24842 -0.0913313 0)
(2.26546 -0.0436048 0)
(2.27983 0.00419817 0)
(2.29056 0.0503612 0)
(2.29644 0.0932266 0)
(2.29645 0.131117 0)
(2.28984 0.162564 0)
(2.27565 0.186373 0)
(2.25366 0.201065 0)
(2.22535 0.206642 0)
(2.19265 0.205253 0)
(2.15826 0.198981 0)
(2.12524 0.189229 0)
(2.09546 0.176664 0)
(2.06991 0.161245 0)
(2.04899 0.14229 0)
(2.03291 0.119403 0)
(2.02155 0.0927159 0)
(2.01454 0.0625165 0)
(2.0116 0.0293541 0)
(2.01245 -0.0058082 0)
(2.01667 -0.0412689 0)
(2.02378 -0.0751074 0)
(2.03335 -0.105832 0)
(2.04487 -0.132181 0)
(2.05774 -0.153291 0)
(2.07131 -0.168764 0)
(2.08522 -0.178584 0)
(2.09952 -0.182733 0)
(2.11403 -0.181027 0)
(2.12846 -0.173462 0)
(2.14253 -0.160245 0)
(2.15576 -0.141904 0)
(2.1678 -0.119153 0)
(2.1784 -0.0927803 0)
(2.18739 -0.0636039 0)
(2.1945 -0.0325395 0)
(2.19927 -0.00105008 0)
(2.20133 0.0295575 0)
(2.20046 0.0581847 0)
(2.19654 0.0838329 0)
(2.18956 0.105653 0)
(2.17967 0.123009 0)
(2.16707 0.135493 0)
(2.15214 0.142881 0)
(2.13576 0.145408 0)
(2.11879 0.143833 0)
(2.10201 0.138517 0)
(2.08635 0.129361 0)
(2.07261 0.116565 0)
(2.06122 0.100374 0)
(2.05239 0.0810403 0)
(2.04626 0.0589237 0)
(2.04291 0.0345066 0)
(2.04238 0.00851926 0)
(2.04453 -0.0177898 0)
(2.04906 -0.0429891 0)
(2.05558 -0.0659386 0)
(2.06361 -0.0856717 0)
(2.07263 -0.101528 0)
(2.08211 -0.113219 0)
(2.09169 -0.120769 0)
(2.10138 -0.124282 0)
(2.11117 -0.123742 0)
(2.12086 -0.119224 0)
(2.13035 -0.110883 0)
(2.13935 -0.0990754 0)
(2.14759 -0.0842855 0)
(2.15486 -0.0670412 0)
(2.16094 -0.0479077 0)
(2.16559 -0.0275115 0)
(2.1685 -0.00676282 0)
(2.16952 0.0135148 0)
(2.16863 0.032641 0)
(2.16593 0.0500237 0)
(2.16155 0.06516 0)
(2.15571 0.0776533 0)
(2.14868 0.0872331 0)
(2.14065 0.0937498 0)
(2.13176 0.0971412 0)
(2.12232 0.0974991 0)
(2.11264 0.0949824 0)
(2.10305 0.0895864 0)
(2.09402 0.0814789 0)
(2.08592 0.0709276 0)
(2.07904 0.0581926 0)
(2.07359 0.0435477 0)
(2.06974 0.0273004 0)
(2.06765 0.00985233 0)
(2.06742 -0.00811294 0)
(2.06901 -0.0256194 0)
(2.07221 -0.0418631 0)
(2.07672 -0.0561025 0)
(2.08216 -0.067764 0)
(2.08809 -0.0765315 0)
(2.09412 -0.0823733 0)
(2.10015 -0.0854071 0)
(2.10629 -0.0856637 0)
(2.11241 -0.0831569 0)
(2.11843 -0.0778602 0)
(2.12412 -0.0700325 0)
(2.12931 -0.0600592 0)
(2.13389 -0.0483164 0)
(2.13774 -0.0351943 0)
(2.14071 -0.0211256 0)
(2.14262 -0.00671087 0)
(2.14334 0.00742091 0)
(2.14287 0.020778 0)
(2.06892 -0.00515638 0)
(2.07653 -0.0629414 0)
(2.08763 -0.118702 0)
(2.10158 -0.169761 0)
(2.11774 -0.213801 0)
(2.13528 -0.24914 0)
(2.15321 -0.275054 0)
(2.1707 -0.291693 0)
(2.18805 -0.299273 0)
(2.20574 -0.297025 0)
(2.2232 -0.284555 0)
(2.2399 -0.262659 0)
(2.25545 -0.232684 0)
(2.26996 -0.19597 0)
(2.28368 -0.153674 0)
(2.29685 -0.107076 0)
(2.30905 -0.0576959 0)
(2.31941 -0.00740979 0)
(2.32705 0.0420135 0)
(2.33194 0.0889265 0)
(2.33403 0.131544 0)
(2.33309 0.168132 0)
(2.3287 0.197255 0)
(2.32013 0.218585 0)
(2.30518 0.231616 0)
(2.28494 0.235493 0)
(2.26085 0.231295 0)
(2.23479 0.220493 0)
(2.20928 0.204539 0)
(2.18628 0.184657 0)
(2.16678 0.161014 0)
(2.15131 0.133527 0)
(2.14001 0.102439 0)
(2.13275 0.0681403 0)
(2.12924 0.031153 0)
(2.12911 -0.00753794 0)
(2.13183 -0.0460103 0)
(2.13689 -0.082461 0)
(2.14391 -0.115307 0)
(2.15246 -0.143193 0)
(2.16203 -0.165197 0)
(2.17199 -0.181018 0)
(2.18184 -0.190946 0)
(2.19176 -0.1953 0)
(2.20198 -0.193768 0)
(2.21232 -0.186098 0)
(2.22253 -0.17233 0)
(2.23209 -0.153046 0)
(2.2407 -0.12906 0)
(2.24814 -0.101254 0)
(2.25428 -0.070514 0)
(2.259 -0.0377422 0)
(2.26216 -0.00416173 0)
(2.2636 0.0287839 0)
(2.26319 0.059979 0)
(2.26078 0.0883071 0)
(2.25628 0.112764 0)
(2.24982 0.132533 0)
(2.24168 0.147151 0)
(2.2321 0.156511 0)
(2.22123 0.160567 0)
(2.20952 0.159398 0)
(2.19717 0.153383 0)
(2.185 0.142702 0)
(2.17421 0.127818 0)
(2.16531 0.109207 0)
(2.15855 0.0873095 0)
(2.1541 0.062586 0)
(2.15202 0.0355675 0)
(2.15225 0.00703929 0)
(2.15445 -0.0214762 0)
(2.15815 -0.0485171 0)
(2.163 -0.0728736 0)
(2.16866 -0.0935293 0)
(2.1748 -0.109822 0)
(2.18107 -0.121544 0)
(2.1871 -0.128944 0)
(2.19295 -0.132456 0)
(2.19899 -0.131985 0)
(2.20521 -0.127438 0)
(2.21163 -0.11884 0)
(2.21789 -0.106526 0)
(2.22373 -0.0909953 0)
(2.22894 -0.0727858 0)
(2.23331 -0.0524716 0)
(2.23666 -0.0306832 0)
(2.23871 -0.00827178 0)
(2.23927 0.0137356 0)
(2.23832 0.0345816 0)
(2.23592 0.0535576 0)
(2.23224 0.0700693 0)
(2.22748 0.083661 0)
(2.22195 0.0940497 0)
(2.216 0.10116 0)
(2.20975 0.105076 0)
(2.20309 0.105803 0)
(2.19618 0.103354 0)
(2.18918 0.0976456 0)
(2.18262 0.0888525 0)
(2.17686 0.0773141 0)
(2.17212 0.0633586 0)
(2.16861 0.047309 0)
(2.16647 0.0295058 0)
(2.16579 0.0103862 0)
(2.16651 -0.009258 0)
(2.16839 -0.0282682 0)
(2.17118 -0.0457435 0)
(2.17464 -0.0608575 0)
(2.17852 -0.0729865 0)
(2.18251 -0.0818301 0)
(2.18626 -0.0874922 0)
(2.18957 -0.0904066 0)
(2.19289 -0.0907153 0)
(2.19631 -0.0881262 0)
(2.19996 -0.0826152 0)
(2.20348 -0.0744601 0)
(2.20674 -0.0640443 0)
(2.2097 -0.0517472 0)
(2.21224 -0.0379519 0)
(2.21425 -0.0230648 0)
(2.21557 -0.00764553 0)
(2.21603 0.00754779 0)
(2.21554 0.0219564 0)
(2.17901 -0.0108984 0)
(2.18679 -0.0719803 0)
(2.1966 -0.13041 0)
(2.20782 -0.183518 0)
(2.21991 -0.228893 0)
(2.23239 -0.264676 0)
(2.24462 -0.290177 0)
(2.25553 -0.305889 0)
(2.2651 -0.313142 0)
(2.27481 -0.311602 0)
(2.28419 -0.298411 0)
(2.29224 -0.275074 0)
(2.2993 -0.243828 0)
(2.30593 -0.206377 0)
(2.31217 -0.163875 0)
(2.31937 -0.11706 0)
(2.32633 -0.0666108 0)
(2.33258 -0.0142252 0)
(2.33745 0.037313 0)
(2.34076 0.0860458 0)
(2.3424 0.130316 0)
(2.34271 0.168858 0)
(2.34172 0.20087 0)
(2.33838 0.225334 0)
(2.33346 0.241513 0)
(2.32702 0.249514 0)
(2.31863 0.249796 0)
(2.30622 0.241779 0)
(2.28972 0.226486 0)
(2.2733 0.205232 0)
(2.25827 0.178544 0)
(2.24566 0.147081 0)
(2.2361 0.111806 0)
(2.22965 0.0735713 0)
(2.22616 0.0330772 0)
(2.2252 -0.00849224 0)
(2.22616 -0.0491805 0)
(2.22854 -0.0874332 0)
(2.23212 -0.121713 0)
(2.23673 -0.150647 0)
(2.24215 -0.173247 0)
(2.24802 -0.18916 0)
(2.25366 -0.198831 0)
(2.25889 -0.203252 0)
(2.26457 -0.202232 0)
(2.27073 -0.194674 0)
(2.27702 -0.1806 0)
(2.2827 -0.16064 0)
(2.2876 -0.135697 0)
(2.29168 -0.106764 0)
(2.29474 -0.0747797 0)
(2.29673 -0.0406897 0)
(2.29767 -0.00578139 0)
(2.29767 0.0283939 0)
(2.29692 0.0608338 0)
(2.29552 0.0905495 0)
(2.29349 0.116449 0)
(2.29085 0.137535 0)
(2.28769 0.153306 0)
(2.28439 0.163409 0)
(2.28096 0.167933 0)
(2.27691 0.168364 0)
(2.27147 0.164269 0)
(2.26512 0.153155 0)
(2.25911 0.13716 0)
(2.2539 0.116882 0)
(2.24976 0.0929498 0)
(2.24687 0.0660004 0)
(2.24522 0.0367427 0)
(2.24468 0.00631047 0)
(2.24489 -0.0235454 0)
(2.24553 -0.0515365 0)
(2.24653 -0.0765414 0)
(2.24788 -0.0976363 0)
(2.24961 -0.114144 0)
(2.2517 -0.125816 0)
(2.25387 -0.132923 0)
(2.25598 -0.136226 0)
(2.25847 -0.136285 0)
(2.26157 -0.132275 0)
(2.26533 -0.123882 0)
(2.26918 -0.111525 0)
(2.27287 -0.0956887 0)
(2.27625 -0.0769554 0)
(2.27915 -0.0559204 0)
(2.28138 -0.0331713 0)
(2.28274 -0.00951187 0)
(2.2831 0.01385 0)
(2.28246 0.0359611 0)
(2.28092 0.0560762 0)
(2.27858 0.0735936 0)
(2.27556 0.088007 0)
(2.27206 0.0989108 0)
(2.26852 0.106212 0)
(2.26522 0.110224 0)
(2.26186 0.111344 0)
(2.2583 0.109432 0)
(2.25449 0.103499 0)
(2.25098 0.0941499 0)
(2.24806 0.081756 0)
(2.24582 0.0667075 0)
(2.24434 0.0494075 0)
(2.24364 0.0302731 0)
(2.24362 0.00987749 0)
(2.24407 -0.010672 0)
(2.24468 -0.0303068 0)
(2.24534 -0.0481888 0)
(2.24605 -0.0635789 0)
(2.24683 -0.0758006 0)
(2.24769 -0.0844774 0)
(2.24856 -0.0896834 0)
(2.24928 -0.0920027 0)
(2.25003 -0.0923771 0)
(2.25105 -0.0906955 0)
(2.2525 -0.0852062 0)
(2.25412 -0.0770315 0)
(2.25576 -0.0665156 0)
(2.25738 -0.0540244 0)
(2.25888 -0.0399304 0)
(2.26019 -0.0246169 0)
(2.26119 -0.00857136 0)
(2.26172 0.00741221 0)
(2.26166 0.0226674 0)
(2.26111 0.045543 0)
(2.26762 -0.0177827 0)
(2.27565 -0.0805965 0)
(2.28411 -0.139979 0)
(2.29218 -0.193412 0)
(2.29939 -0.238813 0)
(2.30568 -0.274468 0)
(2.31102 -0.299005 0)
(2.31512 -0.312412 0)
(2.31721 -0.317008 0)
(2.31752 -0.315709 0)
(2.31646 -0.301751 0)
(2.31593 -0.278211 0)
(2.3158 -0.247105 0)
(2.31625 -0.209908 0)
(2.3172 -0.167683 0)
(2.31848 -0.121191 0)
(2.32044 -0.0710762 0)
(2.32328 -0.0185418 0)
(2.32642 0.0338665 0)
(2.32927 0.0836833 0)
(2.3314 0.129114 0)
(2.33246 0.168938 0)
(2.33225 0.202043 0)
(2.33116 0.227288 0)
(2.32998 0.243683 0)
(2.32932 0.251622 0)
(2.32839 0.253367 0)
(2.32519 0.250236 0)
(2.32011 0.236855 0)
(2.31513 0.216036 0)
(2.31033 0.188826 0)
(2.30535 0.156239 0)
(2.3007 0.119268 0)
(2.29698 0.0789408 0)
(2.29437 0.0363086 0)
(2.29274 -0.00692079 0)
(2.29169 -0.0488672 0)
(2.29099 -0.0881574 0)
(2.2907 -0.123425 0)
(2.291 -0.153269 0)
(2.29197 -0.176556 0)
(2.29355 -0.192726 0)
(2.29535 -0.201991 0)
(2.29679 -0.205654 0)
(2.29831 -0.205468 0)
(2.30012 -0.198462 0)
(2.30206 -0.183863 0)
(2.30369 -0.163345 0)
(2.30512 -0.137826 0)
(2.30628 -0.108238 0)
(2.30699 -0.0755115 0)
(2.3072 -0.0406743 0)
(2.30685 -0.00508631 0)
(2.3056 0.0296488 0)
(2.30371 0.0624241 0)
(2.30154 0.0922012 0)
(2.29935 0.118066 0)
(2.29744 0.139017 0)
(2.29611 0.154317 0)
(2.29557 0.163764 0)
(2.29564 0.168017 0)
(2.29591 0.168786 0)
(2.29624 0.16553 0)
(2.29655 0.154886 0)
(2.29675 0.139063 0)
(2.29678 0.118737 0)
(2.29667 0.0946431 0)
(2.29639 0.0675262 0)
(2.29584 0.0382201 0)
(2.29482 0.00789374 0)
(2.29327 -0.0218457 0)
(2.29136 -0.0498353 0)
(2.28935 -0.0750091 0)
(2.28748 -0.0964893 0)
(2.28602 -0.113587 0)
(2.28517 -0.12587 0)
(2.28495 -0.133389 0)
(2.28517 -0.136861 0)
(2.28552 -0.137355 0)
(2.28665 -0.134477 0)
(2.28838 -0.126293 0)
(2.29021 -0.113982 0)
(2.29207 -0.0980412 0)
(2.29386 -0.0790468 0)
(2.29537 -0.0575864 0)
(2.29641 -0.0342923 0)
(2.29692 -0.0100339 0)
(2.29691 0.0139458 0)
(2.29638 0.0367391 0)
(2.29523 0.0575718 0)
(2.2934 0.0756886 0)
(2.29122 0.0904027 0)
(2.28926 0.101281 0)
(2.2877 0.108242 0)
(2.28664 0.11164 0)
(2.28602 0.112351 0)
(2.28551 0.111047 0)
(2.28502 0.105006 0)
(2.2847 0.0953983 0)
(2.28452 0.0827102 0)
(2.28441 0.0673693 0)
(2.28429 0.049833 0)
(2.28407 0.0305936 0)
(2.28361 0.0102969 0)
(2.28279 -0.00995479 0)
(2.28163 -0.0292643 0)
(2.28022 -0.0469279 0)
(2.27868 -0.0622079 0)
(2.27715 -0.0745082 0)
(2.2758 -0.0834569 0)
(2.27476 -0.0890544 0)
(2.2741 -0.091709 0)
(2.27372 -0.0922187 0)
(2.27347 -0.0907559 0)
(2.27356 -0.0855472 0)
(2.27394 -0.0776087 0)
(2.27451 -0.0672525 0)
(2.27517 -0.0548397 0)
(2.27588 -0.04076 0)
(2.27652 -0.0253958 0)
(2.27698 -0.009208 0)
(2.27719 0.00704094 0)
(2.27715 0.0226357 0)
(2.27466 0.00749129 0)
(2.274 0.0232676 0)
(-0.00666402 -0.000818099 0)
(-0.00390887 -0.0014698 0)
(0.00016738 -0.00209821 0)
(0.00553033 -0.00272152 0)
(0.0120226 -0.00326158 0)
(0.0195176 -0.00368367 0)
(0.0277721 -0.00396117 0)
(0.0364759 -0.00408132 0)
(0.0452903 -0.00403982 0)
(0.0538918 -0.00383272 0)
(0.061967 -0.00348156 0)
(0.0692164 -0.00301191 0)
(0.0754264 -0.00245555 0)
(0.0804497 -0.00184951 0)
(0.0842125 -0.0012259 0)
(0.0867044 -0.000612453 0)
(0.0879745 -2.9069e-05 0)
(0.0881787 0.000513893 0)
(0.0874609 0.00096983 0)
(0.0859347 0.00134176 0)
(0.0837432 0.00163764 0)
(0.0810248 0.00186822 0)
(0.0778982 0.00204492 0)
(0.0744624 0.00217713 0)
(0.0708003 0.00227063 0)
(0.066986 0.00232697 0)
(0.0630939 0.00234356 0)
(0.0592066 0.0023127 0)
(0.0554245 0.00222644 0)
(0.0518686 0.00207592 0)
(0.0486811 0.00185311 0)
(0.0460258 0.00154752 0)
(0.0440796 0.00115781 0)
(0.0430282 0.000683812 0)
(0.0429348 7.90959e-05 0)
(0.0438502 -0.000525887 0)
(0.0458992 -0.00111113 0)
(0.049095 -0.00166409 0)
(0.0533801 -0.00216506 0)
(0.0586406 -0.00259554 0)
(0.0647159 -0.00293735 0)
(0.0714076 -0.00317643 0)
(0.0784937 -0.00330504 0)
(0.0857408 -0.00332088 0)
(0.0929177 -0.003227 0)
(0.0998071 -0.00303308 0)
(0.106215 -0.00275648 0)
(0.111975 -0.00241683 0)
(0.116971 -0.0020298 0)
(0.121113 -0.00161313 0)
(0.124351 -0.00118105 0)
(0.126666 -0.000747582 0)
(0.12806 -0.000321953 0)
(0.128589 0.000103962 0)
(0.128324 0.000510495 0)
(0.127318 0.000862859 0)
(0.12563 0.00116869 0)
(0.123342 0.00142862 0)
(0.12054 0.00164388 0)
(0.117322 0.00181119 0)
(0.113795 0.00192466 0)
(0.11007 0.0019803 0)
(0.10627 0.00197468 0)
(0.102534 0.00190477 0)
(0.0990057 0.00176438 0)
(0.0958256 0.00155184 0)
(0.0931364 0.00127718 0)
(0.0910648 0.000955542 0)
(0.0897227 0.000590998 0)
(0.0891662 0.000180148 0)
(0.0893988 -0.000252464 0)
(0.0904248 -0.000644566 0)
(0.0922281 -0.000996282 0)
(0.0947286 -0.00129534 0)
(0.0978134 -0.00153287 0)
(0.101347 -0.00170069 0)
(0.105179 -0.00179498 0)
(0.109151 -0.0018149 0)
(0.113107 -0.00176152 0)
(0.116901 -0.00164133 0)
(0.120401 -0.00146545 0)
(0.123502 -0.00124646 0)
(0.126116 -0.000992818 0)
(0.128187 -0.000713949 0)
(0.129673 -0.000425768 0)
(0.13056 -0.000139129 0)
(0.130876 0.00015761 0)
(0.130655 0.000432782 0)
(0.129929 0.000671266 0)
(0.128747 0.000876952 0)
(0.127172 0.001049 0)
(0.125269 0.00118602 0)
(0.123114 0.00128707 0)
(0.120779 0.00135096 0)
(0.118342 0.00137656 0)
(0.115885 0.00136231 0)
(0.113494 0.00130588 0)
(0.111256 0.00120596 0)
(0.109263 0.00106347 0)
(0.107602 0.000880179 0)
(0.106358 0.000660293 0)
(0.10561 0.00040676 0)
(0.105392 0.000103172 0)
(0.105722 -0.000211542 0)
(0.106628 -0.000508972 0)
(0.108117 -0.0007886 0)
(0.110155 -0.00104032 0)
(0.112684 -0.00125685 0)
(0.115628 -0.00143155 0)
(0.118894 -0.00155901 0)
(0.122377 -0.00163564 0)
(0.125968 -0.00165972 0)
(0.129551 -0.00163145 0)
(0.133018 -0.00155363 0)
(0.136268 -0.001431 0)
(0.139215 -0.00127011 0)
(0.141783 -0.00107846 0)
(0.143914 -0.00086377 0)
(0.14557 -0.0006347 0)
(0.146723 -0.000399742 0)
(0.147364 -0.000165016 0)
(0.147522 7.92551e-05 0)
(0.147225 0.000304359 0)
(0.16454 -0.00418406 0)
(0.168861 -0.00606115 0)
(0.174456 -0.00794041 0)
(0.181295 -0.0097616 0)
(0.18926 -0.0113557 0)
(0.198169 -0.0126032 0)
(0.20776 -0.0134178 0)
(0.217714 -0.0137468 0)
(0.227687 -0.0135721 0)
(0.237339 -0.0129119 0)
(0.246361 -0.0118155 0)
(0.254481 -0.0103567 0)
(0.261493 -0.00863131 0)
(0.267266 -0.00675048 0)
(0.271744 -0.00482803 0)
(0.274939 -0.00296353 0)
(0.276937 -0.00121911 0)
(0.277868 0.000373682 0)
(0.277889 0.00172047 0)
(0.277163 0.00279619 0)
(0.275859 0.00362984 0)
(0.274125 0.00426122 0)
(0.272084 0.00472611 0)
(0.269832 0.00505655 0)
(0.267445 0.00527408 0)
(0.264988 0.00538684 0)
(0.26252 0.00538927 0)
(0.260116 0.00526438 0)
(0.257857 0.00497626 0)
(0.255851 0.00449385 0)
(0.25422 0.0037967 0)
(0.253108 0.00286774 0)
(0.25267 0.00169043 0)
(0.253019 0.000281216 0)
(0.25433 -0.00135587 0)
(0.256762 -0.00308642 0)
(0.260317 -0.00482378 0)
(0.264988 -0.00649215 0)
(0.270712 -0.00801278 0)
(0.277368 -0.0093104 0)
(0.284782 -0.0103232 0)
(0.292744 -0.0110099 0)
(0.301017 -0.01135 0)
(0.30935 -0.0113383 0)
(0.317502 -0.0109864 0)
(0.325251 -0.010326 0)
(0.332399 -0.00940312 0)
(0.33879 -0.00827266 0)
(0.344306 -0.00699193 0)
(0.348876 -0.00561605 0)
(0.35246 -0.00420323 0)
(0.355057 -0.00280409 0)
(0.356702 -0.00145113 0)
(0.357442 -0.000149638 0)
(0.357316 0.00107604 0)
(0.356417 0.00216175 0)
(0.354843 0.00311381 0)
(0.352684 0.00393085 0)
(0.350034 0.00460198 0)
(0.346996 0.00511526 0)
(0.343677 0.00546108 0)
(0.340212 0.00562662 0)
(0.336735 0.00559236 0)
(0.333378 0.00534636 0)
(0.330283 0.00489126 0)
(0.32759 0.0042312 0)
(0.325447 0.00337784 0)
(0.323953 0.0023544 0)
(0.323191 0.00120093 0)
(0.32324 -5.0687e-05 0)
(0.324158 -0.00132386 0)
(0.325925 -0.00253644 0)
(0.32847 -0.00363862 0)
(0.331709 -0.00458583 0)
(0.335521 -0.00533895 0)
(0.339758 -0.0058697 0)
(0.344261 -0.00616277 0)
(0.348862 -0.00621721 0)
(0.353397 -0.00604455 0)
(0.357722 -0.00566464 0)
(0.361695 -0.00510946 0)
(0.36522 -0.00441216 0)
(0.368215 -0.00361255 0)
(0.370629 -0.00274757 0)
(0.372425 -0.00185825 0)
(0.37362 -0.000965684 0)
(0.374226 -9.33828e-05 0)
(0.374266 0.000723428 0)
(0.373803 0.00144529 0)
(0.372908 0.00206745 0)
(0.37165 0.00258624 0)
(0.370099 0.00299646 0)
(0.368331 0.00329408 0)
(0.366425 0.00347582 0)
(0.364463 0.00353752 0)
(0.362529 0.00347368 0)
(0.360706 0.0032803 0)
(0.359075 0.00295551 0)
(0.357724 0.00250436 0)
(0.35673 0.00193291 0)
(0.356167 0.00124688 0)
(0.356094 0.000458716 0)
(0.356575 -0.000410869 0)
(0.357659 -0.00131923 0)
(0.359342 -0.00221456 0)
(0.361599 -0.00306304 0)
(0.364391 -0.00383298 0)
(0.367652 -0.00449399 0)
(0.371297 -0.00501992 0)
(0.375223 -0.00539125 0)
(0.379314 -0.00559617 0)
(0.383451 -0.00562969 0)
(0.387514 -0.00549389 0)
(0.39139 -0.00519955 0)
(0.394978 -0.00476464 0)
(0.398185 -0.00421047 0)
(0.40094 -0.00356133 0)
(0.403189 -0.00284378 0)
(0.4049 -0.0020854 0)
(0.406057 -0.00131272 0)
(0.406673 -0.000544752 0)
(0.406754 0.000211942 0)
(0.406323 0.000905583 0)
(0.446431 -0.00807518 0)
(0.449873 -0.0112168 0)
(0.454594 -0.0144379 0)
(0.460589 -0.017533 0)
(0.467761 -0.0202626 0)
(0.475935 -0.0224054 0)
(0.484866 -0.0237922 0)
(0.494252 -0.0243228 0)
(0.503761 -0.0239695 0)
(0.513046 -0.0227693 0)
(0.521798 -0.0208148 0)
(0.529739 -0.0182552 0)
(0.536651 -0.0152765 0)
(0.54238 -0.0120763 0)
(0.54686 -0.00884255 0)
(0.550112 -0.00574049 0)
(0.552233 -0.00290533 0)
(0.553315 -0.000435932 0)
(0.553502 0.00164135 0)
(0.552995 0.00331329 0)
(0.551952 0.0046 0)
(0.55051 0.00556106 0)
(0.548768 0.0062678 0)
(0.5468 0.00676921 0)
(0.544657 0.00709926 0)
(0.542378 0.00727457 0)
(0.540001 0.0072882 0)
(0.537574 0.00710821 0)
(0.535174 0.00668572 0)
(0.532902 0.00595281 0)
(0.53089 0.0048408 0)
(0.529303 0.00331717 0)
(0.528309 0.00138723 0)
(0.528079 -0.000925071 0)
(0.52879 -0.00351372 0)
(0.530576 -0.00631205 0)
(0.5335 -0.00918373 0)
(0.537567 -0.0119705 0)
(0.542723 -0.0145228 0)
(0.548852 -0.0167046 0)
(0.555783 -0.0184038 0)
(0.5633 -0.0195401 0)
(0.57116 -0.0200693 0)
(0.579098 -0.019984 0)
(0.586862 -0.0193131 0)
(0.594222 -0.0181179 0)
(0.600979 -0.0164817 0)
(0.606975 -0.0144997 0)
(0.612088 -0.012277 0)
(0.616248 -0.0099058 0)
(0.61941 -0.00747557 0)
(0.62158 -0.00506528 0)
(0.622794 -0.00274102 0)
(0.623118 -0.000546691 0)
(0.62261 0.00147554 0)
(0.62136 0.00328453 0)
(0.619456 0.00487627 0)
(0.616988 0.00623996 0)
(0.614046 0.00735985 0)
(0.610725 0.00821499 0)
(0.607125 0.00878099 0)
(0.603366 0.00903655 0)
(0.599575 0.00895834 0)
(0.595883 0.00852202 0)
(0.59245 0.00772402 0)
(0.589418 0.00657922 0)
(0.58694 0.00512044 0)
(0.585137 0.00336463 0)
(0.584133 0.00137773 0)
(0.584014 -0.000739238 0)
(0.584823 -0.00286329 0)
(0.586549 -0.00491409 0)
(0.58913 -0.00679243 0)
(0.592472 -0.0084078 0)
(0.596443 -0.00968804 0)
(0.600885 -0.0105832 0)
(0.605627 -0.0110664 0)
(0.610486 -0.011135 0)
(0.615283 -0.0108077 0)
(0.61985 -0.0101286 0)
(0.624051 -0.0091494 0)
(0.627775 -0.00792908 0)
(0.630933 -0.00653722 0)
(0.633459 -0.00504869 0)
(0.63534 -0.0035174 0)
(0.636576 -0.00199772 0)
(0.637175 -0.000551004 0)
(0.637176 0.000794632 0)
(0.636643 0.00199314 0)
(0.635648 0.0030226 0)
(0.634262 0.00387613 0)
(0.632558 0.0045455 0)
(0.630612 0.0050238 0)
(0.628499 0.00530508 0)
(0.626296 0.00538449 0)
(0.62409 0.00525663 0)
(0.621963 0.00491394 0)
(0.620009 0.00435131 0)
(0.618317 0.00357079 0)
(0.616976 0.00258443 0)
(0.61607 0.00141025 0)
(0.615676 7.68339e-05 0)
(0.615861 -0.00135399 0)
(0.616671 -0.00284019 0)
(0.618122 -0.00433055 0)
(0.620196 -0.00575627 0)
(0.622853 -0.00705306 0)
(0.626027 -0.00816367 0)
(0.629628 -0.00904014 0)
(0.633545 -0.0096469 0)
(0.637655 -0.00996257 0)
(0.64183 -0.00997983 0)
(0.645937 -0.00970501 0)
(0.649857 -0.00915628 0)
(0.653479 -0.00836377 0)
(0.656705 -0.00736593 0)
(0.659462 -0.00620679 0)
(0.661694 -0.00493451 0)
(0.663366 -0.00359732 0)
(0.66446 -0.00223959 0)
(0.664981 -0.000899869 0)
(0.664943 0.000379297 0)
(0.664385 0.00155129 0)
(0.798975 -0.00989593 0)
(0.800888 -0.0142943 0)
(0.804451 -0.0188081 0)
(0.809575 -0.0231411 0)
(0.816059 -0.026981 0)
(0.823603 -0.0300419 0)
(0.831841 -0.0321092 0)
(0.840374 -0.0330545 0)
(0.848819 -0.0328308 0)
(0.856836 -0.0314758 0)
(0.864132 -0.0290964 0)
(0.8705 -0.0258356 0)
(0.875802 -0.0219006 0)
(0.87997 -0.0175633 0)
(0.883008 -0.0130837 0)
(0.884958 -0.00870884 0)
(0.885885 -0.00466023 0)
(0.885918 -0.00108127 0)
(0.885194 0.00193875 0)
(0.883838 0.00438292 0)
(0.881967 0.00627884 0)
(0.879693 0.00769054 0)
(0.877071 0.0087213 0)
(0.874138 0.00946593 0)
(0.870922 0.00998933 0)
(0.867453 0.0103189 0)
(0.863763 0.0104402 0)
(0.859899 0.010302 0)
(0.855945 0.00983109 0)
(0.852003 0.00893931 0)
(0.848233 0.00753506 0)
(0.844848 0.005542 0)
(0.84207 0.00293188 0)
(0.840145 -0.00025332 0)
(0.839309 -0.00389405 0)
(0.839711 -0.00784869 0)
(0.841448 -0.0119343 0)
(0.844527 -0.0159279 0)
(0.848875 -0.0196095 0)
(0.854346 -0.0227747 0)
(0.86072 -0.0252527 0)
(0.867731 -0.0269224 0)
(0.875091 -0.0277174 0)
(0.882494 -0.0276213 0)
(0.889667 -0.0266741 0)
(0.896363 -0.024965 0)
(0.902371 -0.0226153 0)
(0.90753 -0.0197671 0)
(0.911727 -0.016572 0)
(0.914899 -0.0131775 0)
(0.917023 -0.00971092 0)
(0.918112 -0.006285 0)
(0.918211 -0.00299375 0)
(0.91739 8.30058e-05 0)
(0.915735 0.00287825 0)
(0.913349 0.00538119 0)
(0.910319 0.00758184 0)
(0.906731 0.00946764 0)
(0.902668 0.0110208 0)
(0.898218 0.0122161 0)
(0.893476 0.0130192 0)
(0.888557 0.0133905 0)
(0.883589 0.0132877 0)
(0.878724 0.0126783 0)
(0.874133 0.0115495 0)
(0.869991 0.00990723 0)
(0.866468 0.00778358 0)
(0.863717 0.00523565 0)
(0.861892 0.00235007 0)
(0.861124 -0.000751079 0)
(0.861467 -0.00389356 0)
(0.862892 -0.00691895 0)
(0.865325 -0.00969297 0)
(0.868651 -0.0120846 0)
(0.872709 -0.0139843 0)
(0.877309 -0.0153161 0)
(0.882247 -0.016041 0)
(0.887307 -0.016153 0)
(0.892278 -0.0156799 0)
(0.896978 -0.0146849 0)
(0.90125 -0.0132482 0)
(0.904962 -0.0114659 0)
(0.908018 -0.00943855 0)
(0.910357 -0.00726361 0)
(0.911955 -0.00502817 0)
(0.912801 -0.00281828 0)
(0.912912 -0.00070195 0)
(0.912337 0.00125278 0)
(0.911154 0.00298797 0)
(0.909439 0.00448741 0)
(0.907268 0.00573741 0)
(0.904719 0.00672722 0)
(0.901873 0.00744819 0)
(0.898812 0.0078918 0)
(0.895617 0.00804874 0)
(0.892377 0.00790818 0)
(0.88919 0.00745855 0)
(0.886157 0.00669225 0)
(0.883385 0.00560938 0)
(0.880986 0.00422193 0)
(0.879064 0.00255292 0)
(0.877715 0.000641011 0)
(0.877031 -0.0014514 0)
(0.877076 -0.00363388 0)
(0.877875 -0.00581624 0)
(0.879417 -0.00790817 0)
(0.881657 -0.00981748 0)
(0.884521 -0.0114584 0)
(0.887906 -0.0127579 0)
(0.891685 -0.0136614 0)
(0.895718 -0.0141367 0)
(0.899854 -0.0141722 0)
(0.903939 -0.0137786 0)
(0.907836 -0.0129862 0)
(0.911417 -0.0118404 0)
(0.914576 -0.0103983 0)
(0.917224 -0.00872481 0)
(0.919299 -0.0068876 0)
(0.920756 -0.0049526 0)
(0.921574 -0.00298265 0)
(0.921755 -0.00103971 0)
(0.921323 0.000807924 0)
(0.920329 0.00249746 0)
(1.1144 -0.0100517 0)
(1.11436 -0.016563 0)
(1.11757 -0.0231473 0)
(1.12382 -0.0293756 0)
(1.13271 -0.0347675 0)
(1.1436 -0.0389 0)
(1.15577 -0.0414763 0)
(1.16838 -0.0423529 0)
(1.18069 -0.0415242 0)
(1.19211 -0.0391041 0)
(1.20213 -0.0353364 0)
(1.21037 -0.0305657 0)
(1.21663 -0.0251495 0)
(1.22084 -0.0194395 0)
(1.22304 -0.0137875 0)
(1.22337 -0.00845917 0)
(1.22208 -0.00367509 0)
(1.21943 0.000438696 0)
(1.21573 0.00386209 0)
(1.21129 0.00663132 0)
(1.2063 0.00877406 0)
(1.20086 0.0104645 0)
(1.195 0.0118411 0)
(1.18874 0.0129653 0)
(1.18205 0.0138735 0)
(1.17494 0.0145841 0)
(1.16742 0.0150622 0)
(1.15954 0.0152212 0)
(1.15144 0.0149383 0)
(1.14329 0.0140593 0)
(1.1354 0.0124369 0)
(1.12807 0.0099701 0)
(1.12167 0.00661585 0)
(1.11659 0.0024118 0)
(1.11321 -0.0025325 0)
(1.11187 -0.00800899 0)
(1.11277 -0.0136635 0)
(1.11594 -0.0191798 0)
(1.12123 -0.0242552 0)
(1.12834 -0.0285917 0)
(1.13687 -0.0319458 0)
(1.14632 -0.0341553 0)
(1.15616 -0.0351494 0)
(1.16587 -0.0349391 0)
(1.17501 -0.0335975 0)
(1.18324 -0.0312524 0)
(1.19028 -0.0280778 0)
(1.19594 -0.0242697 0)
(1.20013 -0.0200278 0)
(1.20282 -0.0155412 0)
(1.20403 -0.0109782 0)
(1.20381 -0.00648252 0)
(1.20229 -0.00220677 0)
(1.19964 0.00176072 0)
(1.19601 0.0053812 0)
(1.19153 0.00863229 0)
(1.18632 0.0114984 0)
(1.18048 0.0139655 0)
(1.17411 0.0160135 0)
(1.1673 0.0176095 0)
(1.16015 0.018705 0)
(1.1528 0.0192381 0)
(1.14542 0.0191403 0)
(1.13821 0.0183567 0)
(1.13139 0.0168601 0)
(1.12521 0.0146502 0)
(1.1199 0.0117568 0)
(1.11572 0.00826015 0)
(1.11286 0.0042761 0)
(1.11152 -2.96769e-05 0)
(1.11182 -0.00442227 0)
(1.11374 -0.00864539 0)
(1.11714 -0.0125104 0)
(1.12184 -0.0158351 0)
(1.12755 -0.0184676 0)
(1.13396 -0.0203047 0)
(1.14072 -0.0212998 0)
(1.1475 -0.0214507 0)
(1.15399 -0.020801 0)
(1.15997 -0.0194306 0)
(1.16522 -0.017452 0)
(1.16959 -0.0149952 0)
(1.17298 -0.0121991 0)
(1.17534 -0.00920085 0)
(1.17664 -0.00612055 0)
(1.1769 -0.00306387 0)
(1.17615 -0.000144869 0)
(1.17449 0.00253336 0)
(1.17202 0.00492036 0)
(1.16887 0.00698521 0)
(1.16512 0.00871165 0)
(1.16089 0.0100892 0)
(1.15628 0.0111098 0)
(1.1514 0.0117643 0)
(1.14634 0.0120407 0)
(1.14121 0.0119187 0)
(1.13616 0.0113751 0)
(1.13129 0.0103948 0)
(1.12678 0.0089772 0)
(1.12275 0.00713451 0)
(1.11935 0.00489494 0)
(1.11671 0.00231254 0)
(1.11496 -0.00053453 0)
(1.1142 -0.00354927 0)
(1.1145 -0.00659024 0)
(1.11584 -0.00950694 0)
(1.11815 -0.0121789 0)
(1.12131 -0.0144875 0)
(1.12516 -0.0163293 0)
(1.12952 -0.0176264 0)
(1.13418 -0.0183329 0)
(1.13894 -0.018432 0)
(1.14359 -0.0179355 0)
(1.14798 -0.016884 0)
(1.15194 -0.015342 0)
(1.15536 -0.0133897 0)
(1.15812 -0.0111191 0)
(1.16016 -0.00862551 0)
(1.16143 -0.00599799 0)
(1.16191 -0.00332168 0)
(1.16161 -0.00069269 0)
(1.16058 0.00178597 0)
(1.15888 0.00405174 0)
(1.30716 -0.00529072 0)
(1.30532 -0.0163242 0)
(1.30965 -0.0274129 0)
(1.31983 -0.0376879 0)
(1.33518 -0.0463856 0)
(1.35459 -0.0528713 0)
(1.37667 -0.0567491 0)
(1.39981 -0.0579256 0)
(1.42233 -0.0566081 0)
(1.44303 -0.0531153 0)
(1.46095 -0.0477683 0)
(1.47554 -0.0409488 0)
(1.48657 -0.0331223 0)
(1.49409 -0.0247885 0)
(1.49829 -0.0164542 0)
(1.49941 -0.00852423 0)
(1.49777 -0.00129522 0)
(1.49381 0.00489878 0)
(1.48798 0.00992453 0)
(1.48063 0.0138692 0)
(1.47199 0.0169324 0)
(1.46223 0.0193362 0)
(1.45144 0.0212757 0)
(1.43971 0.0229016 0)
(1.42704 0.024302 0)
(1.41348 0.0254853 0)
(1.39912 0.0263755 0)
(1.38412 0.0268208 0)
(1.36876 0.0266149 0)
(1.35345 0.0255157 0)
(1.33868 0.0232927 0)
(1.32497 0.0197771 0)