/*--------------------------------*- C++ -*----------------------------------*\
| =========                 |                                                 |
| \\      /  F ield         | OpenFOAM: The Open Source CFD Toolbox           |
|  \\    /   O peration     | Version:  2206                                  |
|   \\  /    A nd           | Website:  www.openfoam.com                      |
|    \\/     M anipulation  |                                                 |
\*---------------------------------------------------------------------------*/
FoamFile
{
    version     2.0;
    format      ascii;
    arch        "LSB;label=32;scalar=64";
    class       volVectorField;
    location    "19.4001";
    object      U;
}
// * * * * * * * * * * * * * * * * * * * * * * * * * * * * * * * * * * * * * //

dimensions      [0 1 -1 0 0 0 0];

internalField   nonuniform List<vector> 
4866
(
(0.141315 -0.0550718 0)
(0.216872 -0.0640528 0)
(0.474126 -0.108546 0)
(0.52229 -0.118216 0)
(1.01659 -0.18912 0)
(1.06133 -0.175334 0)
(1.10057 -0.174646 0)
(1.45264 -0.234287 0)
(1.48334 -0.215898 0)
(1.51034 -0.209273 0)
(1.70026 -0.254298 0)
(1.7081 -0.237787 0)
(1.71679 -0.225748 0)
(1.82163 -0.252962 0)
(1.81751 -0.236617 0)
(1.81378 -0.224081 0)
(1.877 -0.24177 0)
(1.8659 -0.227614 0)
(1.85615 -0.215792 0)
(1.8978 -0.224529 0)
(1.88366 -0.212946 0)
(1.87117 -0.202331 0)
(1.9053 -0.206323 0)
(1.89064 -0.197187 0)
(1.8776 -0.188136 0)
(1.91263 -0.188753 0)
(1.89858 -0.181666 0)
(1.88602 -0.174106 0)
(1.91968 -0.172289 0)
(1.90652 -0.166978 0)
(1.89471 -0.160869 0)
(1.92492 -0.15718 0)
(1.91291 -0.153381 0)
(1.90209 -0.148603 0)
(1.92855 -0.143614 0)
(1.91779 -0.14109 0)
(1.90808 -0.137523 0)
(1.93085 -0.131624 0)
(1.92138 -0.130179 0)
(1.91281 -0.127687 0)
(1.93213 -0.121192 0)
(1.92392 -0.120647 0)
(1.91645 -0.119093 0)
(1.93261 -0.112213 0)
(1.92556 -0.112413 0)
(1.91916 -0.111675 0)
(1.93248 -0.104587 0)
(1.92651 -0.105401 0)
(1.92107 -0.105355 0)
(1.9319 -0.0981731 0)
(1.92691 -0.0994883 0)
(1.92235 -0.100031 0)
(1.93101 -0.0928589 0)
(1.92689 -0.0945806 0)
(1.92313 -0.0956119 0)
(1.92995 -0.0885032 0)
(1.9266 -0.0905523 0)
(1.92354 -0.0919888 0)
(1.92881 -0.0850197 0)
(1.92615 -0.0873287 0)
(1.92372 -0.0890965 0)
(1.92774 -0.0822719 0)
(1.92568 -0.0847921 0)
(1.92382 -0.0868311 0)
(1.92684 -0.0802087 0)
(1.92532 -0.0828927 0)
(1.92395 -0.0851483 0)
(1.92605 -0.0786975 0)
(1.92495 -0.0815133 0)
(1.92397 -0.0839559 0)
(1.92404 -0.0776276 0)
(1.92315 -0.0805464 0)
(1.92234 -0.0831211 0)
(1.9138 -0.0766338 0)
(1.91232 -0.0796085 0)
(1.91082 -0.0822534 0)
(1.8705 -0.0741454 0)
(1.86658 -0.0770202 0)
(1.86245 -0.0795727 0)
(1.72988 -0.0681411 0)
(1.71945 -0.0705896 0)
(1.70839 -0.0726915 0)
(1.34122 -0.0502522 0)
(1.31897 -0.0517871 0)
(1.29557 -0.0529015 0)
(0.487542 -0.0210548 0)
(0.456076 -0.0210293 0)
(0.42402 -0.0203795 0)
(0.267539 -0.205688 0)
(0.130706 -0.284975 0)
(0.0747983 -0.344571 0)
(0.027643 -0.407935 0)
(-0.0182482 -0.466179 0)
(-0.0729384 -0.50715 0)
(-0.13235 -0.51844 0)
(-0.18816 -0.492463 0)
(-0.225616 -0.427813 0)
(-0.234145 -0.325622 0)
(-0.211019 -0.190508 0)
(-0.151651 -0.0308292 0)
(-0.0697621 0.138397 0)
(0.0279068 0.300744 0)
(0.12945 0.445733 0)
(0.230066 0.572441 0)
(0.326325 0.679937 0)
(0.418011 0.768459 0)
(0.506875 0.838164 0)
(0.59671 0.887393 0)
(0.692615 0.91203 0)
(0.798776 0.905582 0)
(0.917922 0.862821 0)
(1.04857 0.779489 0)
(1.1864 0.653617 0)
(1.32755 0.48547 0)
(1.46956 0.278868 0)
(1.60573 0.0493817 0)
(1.72261 -0.173302 0)
(1.8139 -0.370341 0)
(1.87733 -0.531324 0)
(1.91392 -0.653216 0)
(1.92749 -0.738317 0)
(1.92324 -0.792016 0)
(1.90499 -0.82099 0)
(1.87501 -0.828709 0)
(1.83891 -0.82069 0)
(1.80033 -0.804555 0)
(1.76228 -0.785 0)
(1.72628 -0.764667 0)
(1.6925 -0.744907 0)
(1.66082 -0.726386 0)
(1.63092 -0.7094 0)
(1.6024 -0.694049 0)
(1.57487 -0.680303 0)
(1.54789 -0.668083 0)
(1.52103 -0.657322 0)
(1.49388 -0.647948 0)
(1.46617 -0.639778 0)
(1.43759 -0.632484 0)
(1.40779 -0.625937 0)
(1.37603 -0.620564 0)
(1.34125 -0.61725 0)
(1.30262 -0.616306 0)
(1.26055 -0.615802 0)
(1.21721 -0.61085 0)
(1.17594 -0.594793 0)
(1.14024 -0.561406 0)
(1.11266 -0.507196 0)
(1.09429 -0.432447 0)
(1.08571 -0.340744 0)
(1.08479 -0.23728 0)
(1.09204 -0.127588 0)
(1.10662 -0.0176674 0)
(1.12668 0.0880045 0)
(1.15155 0.186609 0)
(1.18003 0.275983 0)
(1.21087 0.354725 0)
(1.2429 0.422212 0)
(1.27508 0.47852 0)
(1.30656 0.524294 0)
(1.33666 0.560594 0)
(1.36491 0.588757 0)
(1.39102 0.610243 0)
(1.41485 0.626525 0)
(1.43642 0.639021 0)
(1.45581 0.649058 0)
(1.47317 0.657913 0)
(1.48862 0.666875 0)
(1.50233 0.677133 0)
(1.51442 0.689348 0)
(1.52532 0.703525 0)
(1.53552 0.718634 0)
(1.54543 0.732845 0)
(1.55512 0.744626 0)
(1.56418 0.752935 0)
(1.57302 0.756393 0)
(1.58215 0.751418 0)
(1.59126 0.734418 0)
(1.59982 0.703798 0)
(1.60775 0.658771 0)
(1.61515 0.598952 0)
(1.62205 0.524536 0)
(1.62843 0.436427 0)
(1.63429 0.336331 0)
(1.63962 0.22684 0)
(1.64437 0.11161 0)
(1.64831 -0.00389292 0)
(1.65116 -0.115277 0)
(1.65274 -0.219326 0)
(1.65288 -0.3135 0)
(1.65149 -0.396069 0)
(1.64856 -0.466126 0)
(1.64412 -0.523533 0)
(1.63828 -0.56876 0)
(1.6312 -0.602736 0)
(1.62305 -0.62672 0)
(1.61398 -0.642108 0)
(1.60382 -0.650157 0)
(1.59233 -0.651743 0)
(1.57988 -0.648345 0)
(1.56637 -0.641718 0)
(1.5519 -0.633257 0)
(1.53647 -0.624065 0)
(1.52004 -0.614947 0)
(1.50255 -0.606382 0)
(1.484 -0.598496 0)
(1.46444 -0.591039 0)
(1.44402 -0.583373 0)
(1.42297 -0.574543 0)
(1.4016 -0.563407 0)
(1.38022 -0.54881 0)
(1.35915 -0.529755 0)
(1.33868 -0.50552 0)
(1.31908 -0.475703 0)
(1.3006 -0.440188 0)
(1.28355 -0.39909 0)
(1.26824 -0.352691 0)
(1.25503 -0.301412 0)
(1.24427 -0.245803 0)
(1.23629 -0.186556 0)
(1.23135 -0.124509 0)
(1.22979 -0.0606605 0)
(1.23068 0.00389694 0)
(1.23551 0.0678979 0)
(1.24312 0.130278 0)
(1.25336 0.190122 0)
(0.56137 -0.165753 0)
(0.560211 -0.217193 0)
(0.522367 -0.277677 0)
(0.476043 -0.340822 0)
(0.41261 -0.396059 0)
(0.333855 -0.432523 0)
(0.250242 -0.445335 0)
(0.170698 -0.431462 0)
(0.104484 -0.386893 0)
(0.0536499 -0.311651 0)
(0.0264239 -0.20977 0)
(0.0291668 -0.0876794 0)
(0.0625478 0.0496879 0)
(0.121293 0.193486 0)
(0.199532 0.332088 0)
(0.289043 0.457427 0)
(0.385175 0.565606 0)
(0.486383 0.654213 0)
(0.593196 0.720973 0)
(0.707535 0.762826 0)
(0.830896 0.776239 0)
(0.963805 0.757916 0)
(1.10432 0.705191 0)
(1.24906 0.616262 0)
(1.39555 0.489048 0)
(1.5434 0.321918 0)
(1.68984 0.120558 0)
(1.81958 -0.0890332 0)
(1.92077 -0.282441 0)
(1.98991 -0.446129 0)
(2.02807 -0.5746 0)
(2.03971 -0.668232 0)
(2.03083 -0.731023 0)
(2.00587 -0.768477 0)
(1.96827 -0.784046 0)
(1.92443 -0.783075 0)
(1.87834 -0.772737 0)
(1.83356 -0.757762 0)
(1.7915 -0.740856 0)
(1.75241 -0.723496 0)
(1.71615 -0.706502 0)
(1.68235 -0.690337 0)
(1.65055 -0.675235 0)
(1.62029 -0.661272 0)
(1.59113 -0.648442 0)
(1.56265 -0.63669 0)
(1.53445 -0.625967 0)
(1.50613 -0.616234 0)
(1.47738 -0.60738 0)
(1.44792 -0.599112 0)
(1.41754 -0.591118 0)
(1.38579 -0.583427 0)
(1.35185 -0.576639 0)
(1.31464 -0.571545 0)
(1.27374 -0.56785 0)
(1.23034 -0.562606 0)
(1.18744 -0.550189 0)
(1.14885 -0.52423 0)
(1.11793 -0.479984 0)
(1.09658 -0.41607 0)
(1.08572 -0.33461 0)
(1.08395 -0.240402 0)
(1.08973 -0.139206 0)
(1.10363 -0.0364756 0)
(1.12274 0.063262 0)
(1.14658 0.157177 0)
(1.17409 0.243138 0)
(1.20411 0.31975 0)
(1.23558 0.386306 0)
(1.26752 0.442731 0)
(1.29911 0.489476 0)
(1.32966 0.527395 0)
(1.35871 0.557616 0)
(1.38596 0.581403 0)
(1.41125 0.600065 0)
(1.43457 0.614897 0)
(1.45597 0.627163 0)
(1.47556 0.638125 0)
(1.49346 0.649047 0)
(1.50988 0.661018 0)
(1.52506 0.674566 0)
(1.53949 0.68957 0)
(1.55361 0.705036 0)
(1.56763 0.719479 0)
(1.58151 0.73159 0)
(1.59511 0.740142 0)
(1.60904 0.743298 0)
(1.62338 0.738079 0)
(1.6378 0.721467 0)
(1.65181 0.691521 0)
(1.66514 0.647246 0)
(1.67769 0.588239 0)
(1.68926 0.514733 0)
(1.69965 0.427659 0)
(1.70864 0.328719 0)
(1.71605 0.220488 0)
(1.72168 0.106687 0)
(1.7253 -0.00714139 0)
(1.72673 -0.116664 0)
(1.72593 -0.218717 0)
(1.72292 -0.310847 0)
(1.71778 -0.391422 0)
(1.71072 -0.459596 0)
(1.70193 -0.515269 0)
(1.69166 -0.558964 0)
(1.68013 -0.591639 0)
(1.66759 -0.614496 0)
(1.65417 -0.62883 0)
(1.63968 -0.635697 0)
(1.62428 -0.636119 0)
(1.6082 -0.631748 0)
(1.59142 -0.624218 0)
(1.57401 -0.614866 0)
(1.55598 -0.604748 0)
(1.53724 -0.594638 0)
(1.51773 -0.585024 0)
(1.49737 -0.576089 0)
(1.47618 -0.567672 0)
(1.45427 -0.559247 0)
(1.43184 -0.549953 0)
(1.40919 -0.538708 0)
(1.38666 -0.524368 0)
(1.3646 -0.505917 0)
(1.3433 -0.4826 0)
(1.32304 -0.453995 0)
(1.30405 -0.419994 0)
(1.28658 -0.380739 0)
(1.27092 -0.336541 0)
(1.25738 -0.287834 0)
(1.24629 -0.235158 0)
(1.23794 -0.179152 0)
(1.23252 -0.120532 0)
(1.23059 -0.0601475 0)
(1.23139 0.000838852 0)
(1.2357 0.0612896 0)
(1.24291 0.120447 0)
(1.25282 0.177465 0)
(1.13641 -0.192847 0)
(1.15372 -0.215756 0)
(1.15427 -0.241963 0)
(1.13491 -0.270837 0)
(1.09064 -0.295224 0)
(1.01832 -0.307037 0)
(0.917618 -0.305392 0)
(0.789874 -0.292223 0)
(0.646146 -0.269536 0)
(0.518033 -0.234072 0)
(0.422043 -0.179068 0)
(0.366254 -0.0981385 0)
(0.354 0.00511985 0)
(0.377144 0.12223 0)
(0.42699 0.242043 0)
(0.497048 0.354451 0)
(0.582676 0.45196 0)
(0.68167 0.530421 0)
(0.792821 0.58669 0)
(0.914876 0.617971 0)
(1.0464 0.622139 0)
(1.18502 0.597411 0)
(1.32796 0.542027 0)
(1.47392 0.452697 0)
(1.62389 0.324409 0)
(1.77656 0.156971 0)
(1.91648 -0.0296326 0)
(2.02549 -0.20811 0)
(2.09837 -0.364147 0)
(2.13693 -0.490922 0)
(2.14615 -0.587332 0)
(2.13248 -0.65585 0)
(2.10128 -0.70021 0)
(2.05729 -0.723421 0)
(2.00691 -0.730395 0)
(1.95473 -0.727478 0)
(1.90435 -0.71889 0)
(1.85712 -0.707201 0)
(1.81338 -0.693977 0)
(1.77299 -0.680153 0)
(1.73557 -0.666292 0)
(1.70067 -0.652742 0)
(1.66778 -0.639716 0)
(1.63645 -0.627324 0)
(1.60625 -0.615583 0)
(1.57682 -0.604458 0)
(1.54778 -0.593909 0)
(1.51878 -0.583922 0)
(1.48951 -0.574468 0)
(1.45967 -0.565354 0)
(1.4291 -0.556247 0)
(1.39757 -0.546902 0)
(1.36458 -0.537504 0)
(1.32919 -0.528796 0)
(1.29049 -0.52138 0)
(1.2486 -0.514235 0)
(1.20559 -0.503535 0)
(1.16508 -0.48353 0)
(1.13097 -0.448753 0)
(1.10613 -0.396172 0)
(1.09185 -0.326141 0)
(1.08794 -0.242222 0)
(1.09301 -0.149824 0)
(1.10538 -0.0542772 0)
(1.12346 0.0396718 0)
(1.1462 0.128922 0)
(1.17263 0.211385 0)
(1.2017 0.285669 0)
(1.23242 0.351008 0)
(1.26388 0.407202 0)
(1.29528 0.454543 0)
(1.32598 0.493695 0)
(1.35552 0.525587 0)
(1.38358 0.551301 0)
(1.41001 0.571995 0)
(1.43477 0.58885 0)
(1.45787 0.603069 0)
(1.47939 0.615869 0)
(1.4995 0.628437 0)
(1.51843 0.641725 0)
(1.53652 0.656148 0)
(1.55424 0.671557 0)
(1.57194 0.687103 0)
(1.58974 0.701536 0)
(1.60768 0.713612 0)
(1.62584 0.721953 0)
(1.64464 0.72463 0)
(1.66391 0.719025 0)
(1.68345 0.702511 0)
(1.70278 0.673131 0)
(1.72139 0.62977 0)
(1.7389 0.572003 0)
(1.75493 0.500077 0)
(1.76907 0.414943 0)
(1.78091 0.318278 0)
(1.79013 0.212593 0)
(1.79644 0.101562 0)
(1.7996 -0.00932069 0)
(1.79954 -0.115845 0)
(1.79636 -0.214952 0)
(1.79026 -0.304305 0)
(1.78151 -0.382359 0)
(1.77048 -0.448338 0)
(1.75753 -0.502153 0)
(1.74304 -0.544302 0)
(1.72733 -0.575705 0)
(1.71067 -0.597511 0)
(1.69315 -0.610875 0)
(1.67473 -0.616783 0)
(1.65574 -0.616424 0)
(1.63634 -0.611443 0)
(1.61655 -0.603381 0)
(1.59647 -0.593507 0)
(1.57606 -0.582816 0)
(1.55526 -0.572039 0)
(1.53395 -0.56166 0)
(1.51203 -0.551903 0)
(1.48946 -0.542698 0)
(1.4663 -0.533641 0)
(1.44272 -0.523992 0)
(1.419 -0.512752 0)
(1.39551 -0.498811 0)
(1.37261 -0.481132 0)
(1.35065 -0.458915 0)
(1.32989 -0.431689 0)
(1.31059 -0.399323 0)
(1.29293 -0.361974 0)
(1.27715 -0.319988 0)
(1.2635 -0.273834 0)
(1.25225 -0.224053 0)
(1.24368 -0.171255 0)
(1.23803 -0.11612 0)
(1.23551 -0.0593691 0)
(1.23621 -0.00196816 0)
(1.24003 0.0550623 0)
(1.24679 0.111019 0)
(1.25628 0.165155 0)
(1.52687 -0.214257 0)
(1.5329 -0.227074 0)
(1.52511 -0.243785 0)
(1.50304 -0.258249 0)
(1.46779 -0.263841 0)
(1.42235 -0.255046 0)
(1.37117 -0.229112 0)
(1.31675 -0.188039 0)
(1.25665 -0.138892 0)
(1.1851 -0.0887384 0)
(1.09924 -0.0413825 0)
(1.00217 0.00436256 0)
(0.910497 0.0548134 0)
(0.848539 0.117482 0)
(0.827363 0.194489 0)
(0.847218 0.275492 0)
(0.899879 0.350185 0)
(0.977809 0.41128 0)
(1.07556 0.453701 0)
(1.18874 0.474038 0)
(1.31376 0.46986 0)
(1.44773 0.438893 0)
(1.58889 0.377629 0)
(1.73666 0.28047 0)
(1.88785 0.145945 0)
(2.02619 -0.00829628 0)
(2.1328 -0.158597 0)
(2.20214 -0.293172 0)
(2.23506 -0.407202 0)
(2.23825 -0.499085 0)
(2.21966 -0.569018 0)
(2.18324 -0.618174 0)
(2.13453 -0.648226 0)
(2.07983 -0.663495 0)
(2.02403 -0.669009 0)
(1.97012 -0.668242 0)
(1.91948 -0.663366 0)
(1.87251 -0.655809 0)
(1.82909 -0.646552 0)
(1.78886 -0.636271 0)
(1.7514 -0.625433 0)
(1.71626 -0.614363 0)
(1.68301 -0.603284 0)
(1.65122 -0.592347 0)
(1.62053 -0.581636 0)
(1.59061 -0.571177 0)
(1.56114 -0.560951 0)
(1.53183 -0.550932 0)
(1.5024 -0.541105 0)
(1.47256 -0.531369 0)
(1.44213 -0.52148 0)
(1.411 -0.511081 0)
(1.37898 -0.499978 0)
(1.34546 -0.488522 0)
(1.30946 -0.477562 0)
(1.27026 -0.467473 0)
(1.22861 -0.456613 0)
(1.18739 -0.440564 0)
(1.15062 -0.41385 0)
(1.12202 -0.372178 0)
(1.10387 -0.314124 0)
(1.09666 -0.241572 0)
(1.09935 -0.158739 0)
(1.11022 -0.0707309 0)
(1.12726 0.0173705 0)
(1.14897 0.101908 0)
(1.17436 0.180793 0)
(1.20247 0.2526 0)
(1.23237 0.316496 0)
(1.26321 0.372173 0)
(1.29425 0.419773 0)
(1.32489 0.459793 0)
(1.35468 0.492983 0)
(1.38331 0.52026 0)
(1.41062 0.542644 0)
(1.43652 0.561216 0)
(1.46104 0.577098 0)
(1.48424 0.591433 0)
(1.50631 0.605295 0)
(1.52754 0.619505 0)
(1.54826 0.634404 0)
(1.56893 0.64987 0)
(1.58985 0.665213 0)
(1.61114 0.679324 0)
(1.63289 0.690978 0)
(1.65529 0.69872 0)
(1.67851 0.700648 0)
(1.70239 0.694453 0)
(1.72667 0.677848 0)
(1.75075 0.649009 0)
(1.77406 0.606772 0)
(1.796 0.550685 0)
(1.81601 0.481005 0)
(1.8335 0.39868 0)
(1.84788 0.305339 0)
(1.85867 0.203377 0)
(1.86552 0.096353 0)
(1.86817 -0.010417 0)
(1.8667 -0.112918 0)
(1.86134 -0.208233 0)
(1.85244 -0.294155 0)
(1.84047 -0.36923 0)
(1.82591 -0.432721 0)
(1.80928 -0.484538 0)
(1.79104 -0.525123 0)
(1.77161 -0.555307 0)
(1.75126 -0.576124 0)
(1.73012 -0.58863 0)
(1.70826 -0.593842 0)
(1.68607 -0.593026 0)
(1.66373 -0.587764 0)
(1.64129 -0.579509 0)
(1.61883 -0.569453 0)
(1.59634 -0.558523 0)
(1.57373 -0.547398 0)
(1.55087 -0.536539 0)
(1.52763 -0.526198 0)
(1.50393 -0.516388 0)
(1.47976 -0.506829 0)
(1.45525 -0.496923 0)
(1.43067 -0.485784 0)
(1.40638 -0.472364 0)
(1.38277 -0.455623 0)
(1.36023 -0.434706 0)
(1.33905 -0.409075 0)
(1.3195 -0.378542 0)
(1.30176 -0.343241 0)
(1.286 -0.30353 0)
(1.27242 -0.259905 0)
(1.26122 -0.212932 0)
(1.25263 -0.163216 0)
(1.24686 -0.111393 0)
(1.24409 -0.0581464 0)
(1.24441 -0.00425972 0)
(1.24778 0.0494106 0)
(1.25407 0.10218 0)
(1.26308 0.1534 0)
(1.71932 -0.223144 0)
(1.71678 -0.224139 0)
(1.706 -0.225405 0)
(1.68619 -0.223931 0)
(1.65816 -0.216583 0)
(1.62403 -0.200763 0)
(1.58695 -0.17538 0)
(1.55038 -0.140724 0)
(1.51734 -0.0976289 0)
(1.48936 -0.0462152 0)
(1.4643 0.0140444 0)
(1.4412 0.079215 0)
(1.42015 0.139133 0)
(1.39704 0.190117 0)
(1.37784 0.23317 0)
(1.37281 0.272175 0)
(1.39001 0.307225 0)
(1.43203 0.334138 0)
(1.49796 0.349146 0)
(1.58469 0.348421 0)
(1.68815 0.32837 0)
(1.80435 0.28563 0)
(1.92856 0.216827 0)
(2.05359 0.119969 0)
(2.16405 0.00513102 0)
(2.24472 -0.11141 0)
(2.29209 -0.220682 0)
(2.30875 -0.319503 0)
(2.30628 -0.404548 0)
(2.28306 -0.474473 0)
(2.24263 -0.52641 0)
(2.19227 -0.562084 0)
(2.13685 -0.585226 0)
(2.0807 -0.599576 0)
(2.02632 -0.607444 0)
(1.97488 -0.61036 0)
(1.92676 -0.609526 0)
(1.8819 -0.605894 0)
(1.84008 -0.600211 0)
(1.80096 -0.593057 0)
(1.76419 -0.584882 0)
(1.72942 -0.576028 0)
(1.6963 -0.566747 0)
(1.66451 -0.557217 0)
(1.63376 -0.547548 0)
(1.60375 -0.537793 0)
(1.57423 -0.527956 0)
(1.54496 -0.518022 0)
(1.5157 -0.507973 0)
(1.4862 -0.49775 0)
(1.45626 -0.487215 0)
(1.42577 -0.476088 0)
(1.39471 -0.464009 0)
(1.36287 -0.450864 0)
(1.32959 -0.43714 0)
(1.29388 -0.423717 0)
(1.25527 -0.410743 0)
(1.21506 -0.396173 0)
(1.17672 -0.375444 0)
(1.14445 -0.343629 0)
(1.12166 -0.297566 0)
(1.10997 -0.23713 0)
(1.1091 -0.165019 0)
(1.11753 -0.0855796 0)
(1.13312 -0.00374781 0)
(1.15376 0.0760367 0)
(1.17814 0.15131 0)
(1.20532 0.220546 0)
(1.23439 0.282829 0)
(1.26457 0.33775 0)
(1.29517 0.385318 0)
(1.32563 0.425881 0)
(1.35552 0.46003 0)
(1.38453 0.488537 0)
(1.4125 0.512297 0)
(1.43933 0.532286 0)
(1.46502 0.549535 0)
(1.48966 0.565087 0)
(1.51346 0.5799 0)
(1.53671 0.594679 0)
(1.55975 0.609719 0)
(1.58298 0.624928 0)
(1.60674 0.63976 0)
(1.63114 0.653206 0)
(1.65632 0.66405 0)
(1.68246 0.670844 0)
(1.70956 0.671808 0)
(1.73746 0.664933 0)
(1.76578 0.648211 0)
(1.79392 0.619939 0)
(1.82119 0.579002 0)
(1.84688 0.524965 0)
(1.87023 0.458098 0)
(1.8905 0.379336 0)
(1.90698 0.290234 0)
(1.91907 0.193043 0)
(1.92632 0.0911223 0)
(1.92853 -0.0105146 0)
(1.92585 -0.108112 0)
(1.91867 -0.198929 0)
(1.90747 -0.280888 0)
(1.89284 -0.352613 0)
(1.8754 -0.413386 0)
(1.85574 -0.463085 0)
(1.8344 -0.502072 0)
(1.81184 -0.531065 0)
(1.78838 -0.550967 0)
(1.7642 -0.562748 0)
(1.73949 -0.567471 0)
(1.71461 -0.566458 0)
(1.68978 -0.561194 0)
(1.6651 -0.553037 0)
(1.64064 -0.543097 0)
(1.61639 -0.532225 0)
(1.59228 -0.521037 0)
(1.56814 -0.509957 0)
(1.54384 -0.49925 0)
(1.51924 -0.489002 0)
(1.49431 -0.479053 0)
(1.46911 -0.468951 0)
(1.44388 -0.457954 0)
(1.41896 -0.445103 0)
(1.39477 -0.429384 0)
(1.37172 -0.409902 0)
(1.35017 -0.386037 0)
(1.3304 -0.357521 0)
(1.3126 -0.324429 0)
(1.2969 -0.287104 0)
(1.28344 -0.246055 0)
(1.27237 -0.201869 0)
(1.26385 -0.155156 0)
(1.25806 -0.106534 0)
(1.25514 -0.0566349 0)
(1.25517 -0.00613148 0)
(1.25815 0.0442401 0)
(1.26397 0.0938669 0)
(1.27248 0.142186 0)
(1.80921 -0.216393 0)
(1.80088 -0.210845 0)
(1.78765 -0.205899 0)
(1.76939 -0.199106 0)
(1.74703 -0.187971 0)
(1.72235 -0.170404 0)
(1.69771 -0.145158 0)
(1.67549 -0.112025 0)
(1.65756 -0.071849 0)
(1.64503 -0.026285 0)
(1.63878 0.0230779 0)
(1.64093 0.0758234 0)
(1.6529 0.128963 0)
(1.67363 0.179108 0)
(1.70133 0.222241 0)
(1.73585 0.255768 0)
(1.77812 0.277711 0)
(1.8288 0.286833 0)
(1.8886 0.282559 0)
(1.95694 0.263993 0)
(2.03281 0.229581 0)
(2.1114 0.177017 0)
(2.18828 0.10674 0)
(2.25905 0.023929 0)
(2.30917 -0.0642705 0)
(2.33518 -0.152125 0)
(2.34271 -0.235788 0)
(2.33816 -0.312042 0)
(2.31098 -0.377309 0)
(2.27135 -0.428996 0)
(2.22393 -0.46914 0)
(2.17262 -0.500058 0)
(2.12052 -0.523187 0)
(2.06946 -0.539665 0)
(2.02033 -0.550525 0)
(1.97352 -0.556734 0)
(1.92916 -0.559188 0)
(1.88723 -0.558664 0)
(1.8476 -0.555819 0)
(1.81008 -0.551193 0)
(1.77445 -0.545221 0)
(1.74047 -0.538244 0)
(1.70791 -0.53052 0)
(1.67651 -0.522238 0)
(1.64604 -0.513526 0)
(1.61629 -0.504457 0)
(1.58703 -0.495058 0)
(1.55807 -0.485324 0)
(1.52923 -0.475232 0)
(1.50031 -0.464727 0)
(1.47112 -0.453725 0)
(1.44153 -0.442062 0)
(1.41152 -0.429431 0)
(1.38112 -0.415488 0)
(1.35011 -0.400207 0)
(1.31781 -0.384182 0)
(1.28325 -0.368297 0)
(1.2462 -0.352546 0)
(1.20838 -0.334708 0)
(1.17361 -0.310393 0)
(1.14608 -0.275354 0)
(1.12882 -0.227385 0)
(1.12285 -0.16716 0)
(1.12736 -0.0976855 0)
(1.14047 -0.0232964 0)
(1.15969 0.0514064 0)
(1.18299 0.122897 0)
(1.20923 0.189455 0)
(1.23752 0.249993 0)
(1.26707 0.303966 0)
(1.29722 0.351257 0)
(1.32745 0.392079 0)
(1.35734 0.426887 0)
(1.38661 0.456327 0)
(1.41508 0.481173 0)
(1.44265 0.502296 0)
(1.46932 0.520625 0)
(1.4952 0.537093 0)
(1.52048 0.552545 0)
(1.54547 0.567594 0)
(1.57049 0.582498 0)
(1.5959 0.597179 0)
(1.62205 0.611187 0)
(1.64913 0.623649 0)
(1.67726 0.633379 0)
(1.70651 0.638994 0)
(1.73682 0.638893 0)
(1.76798 0.631314 0)
(1.79956 0.614457 0)
(1.83093 0.586803 0)
(1.86133 0.547338 0)
(1.88992 0.495676 0)
(1.91584 0.432103 0)
(1.93824 0.357528 0)
(1.95631 0.273415 0)
(1.96937 0.18184 0)
(1.97693 0.0858946 0)
(1.97882 -0.00981532 0)
(1.97527 -0.101837 0)
(1.96678 -0.18762 0)
(1.95393 -0.265214 0)
(1.93739 -0.333297 0)
(1.91784 -0.391152 0)
(1.89594 -0.438602 0)
(1.87226 -0.475919 0)
(1.8473 -0.503698 0)
(1.8214 -0.522724 0)
(1.79483 -0.533895 0)
(1.76787 -0.538296 0)
(1.74086 -0.537264 0)
(1.71406 -0.53222 0)
(1.68758 -0.524409 0)
(1.66153 -0.514843 0)
(1.6359 -0.50429 0)
(1.61059 -0.493287 0)
(1.58546 -0.48222 0)
(1.56034 -0.471358 0)
(1.53508 -0.460838 0)
(1.50961 -0.450611 0)
(1.48394 -0.440376 0)
(1.45825 -0.429546 0)
(1.43285 -0.417289 0)
(1.40818 -0.402645 0)
(1.38468 -0.384695 0)
(1.36277 -0.362738 0)
(1.34277 -0.3364 0)
(1.32489 -0.305667 0)
(1.30926 -0.270833 0)
(1.29596 -0.232399 0)
(1.28507 -0.190969 0)
(1.27669 -0.14717 0)
(1.27095 -0.101619 0)
(1.26795 -0.0549129 0)
(1.26776 -0.00765255 0)
(1.27041 0.0395251 0)
(1.27581 0.0860842 0)
(1.28383 0.131538 0)
(1.84652 -0.206429 0)
(1.83523 -0.198134 0)
(1.82182 -0.189631 0)
(1.80623 -0.179222 0)
(1.789 -0.165338 0)
(1.77125 -0.146794 0)
(1.75451 -0.122972 0)
(1.74047 -0.0938858 0)
(1.73076 -0.0600442 0)
(1.72679 -0.0221876 0)
(1.72973 0.0188502 0)
(1.74085 0.0617326 0)
(1.76094 0.103878 0)
(1.78989 0.142616 0)
(1.82689 0.175497 0)
(1.87095 0.200422 0)
(1.92103 0.215707 0)
(1.97589 0.21989 0)
(2.03404 0.211833 0)
(2.09386 0.190776 0)
(2.15347 0.156388 0)
(2.21001 0.108599 0)
(2.25912 0.0486784 0)
(2.29582 -0.0172735 0)
(2.31708 -0.0854491 0)
(2.32329 -0.1545 0)
(2.31618 -0.2215 0)
(2.2952 -0.282195 0)
(2.26449 -0.33442 0)
(2.22727 -0.37887 0)
(2.18603 -0.416066 0)
(2.14265 -0.446232 0)
(2.09848 -0.469792 0)
(2.05446 -0.487449 0)
(2.01122 -0.499999 0)
(1.96921 -0.508216 0)
(1.92869 -0.512824 0)
(1.88978 -0.51447 0)
(1.85251 -0.513717 0)
(1.81681 -0.511042 0)
(1.7826 -0.506834 0)
(1.74971 -0.50141 0)
(1.718 -0.495017 0)
(1.68729 -0.48784 0)
(1.65741 -0.480008 0)
(1.62818 -0.471602 0)
(1.59945 -0.462662 0)
(1.57104 -0.453196 0)
(1.54282 -0.443188 0)
(1.51466 -0.43258 0)
(1.48639 -0.421298 0)
(1.4579 -0.409248 0)
(1.42911 -0.396251 0)
(1.40009 -0.381992 0)
(1.37091 -0.366151 0)
(1.34137 -0.348771 0)
(1.31076 -0.330518 0)
(1.27816 -0.312298 0)
(1.24347 -0.294089 0)
(1.20865 -0.273754 0)
(1.17766 -0.247257 0)
(1.15458 -0.210959 0)
(1.1421 -0.163302 0)
(1.14084 -0.10531 0)
(1.14967 -0.0400297 0)
(1.16634 0.0283915 0)
(1.18821 0.0957142 0)
(1.21343 0.15932 0)
(1.24092 0.217908 0)
(1.26987 0.270748 0)
(1.2996 0.317564 0)
(1.3296 0.358421 0)
(1.35947 0.393647 0)
(1.38892 0.423763 0)
(1.41778 0.449437 0)
(1.44595 0.471435 0)
(1.47345 0.490579 0)
(1.50037 0.507695 0)
(1.52691 0.523521 0)
(1.55337 0.538594 0)
(1.58004 0.553139 0)
(1.60727 0.567082 0)
(1.63539 0.580039 0)
(1.66461 0.591251 0)
(1.69506 0.599656 0)
(1.72675 0.603981 0)
(1.75954 0.602783 0)
(1.79318 0.59449 0)
(1.82719 0.577536 0)
(1.86091 0.550597 0)
(1.89353 0.512784 0)
(1.92415 0.463779 0)
(1.95182 0.403881 0)
(1.97564 0.33396 0)
(1.99476 0.25537 0)
(2.00849 0.169989 0)
(2.01632 0.0806037 0)
(2.0181 -0.00864481 0)
(2.01412 -0.0946362 0)
(2.00492 -0.175024 0)
(1.99114 -0.247969 0)
(1.97349 -0.312189 0)
(1.95268 -0.36695 0)
(1.92936 -0.41201 0)
(1.90415 -0.447546 0)
(1.87754 -0.474037 0)
(1.84991 -0.492168 0)
(1.82161 -0.502792 0)
(1.793 -0.507002 0)
(1.76443 -0.506107 0)
(1.73619 -0.501432 0)
(1.70843 -0.494132 0)
(1.68123 -0.48513 0)
(1.65457 -0.475085 0)
(1.62839 -0.464464 0)
(1.60253 -0.453606 0)
(1.57686 -0.442766 0)
(1.55119 -0.432117 0)
(1.52541 -0.421703 0)
(1.49948 -0.411361 0)
(1.47353 -0.400674 0)
(1.44783 -0.388966 0)
(1.42279 -0.375375 0)
(1.39889 -0.358993 0)
(1.3766 -0.339048 0)
(1.3563 -0.315045 0)
(1.33826 -0.286846 0)
(1.32261 -0.254653 0)
(1.30942 -0.218925 0)
(1.29871 -0.180264 0)
(1.29051 -0.139321 0)
(1.28487 -0.0967242 0)
(1.28186 -0.0530642 0)
(1.28154 -0.00889701 0)
(1.28391 0.0352131 0)
(1.28894 0.0787995 0)
(1.29651 0.121443 0)
(1.85949 -0.192731 0)
(1.84746 -0.183265 0)
(1.83484 -0.173229 0)
(1.82155 -0.161641 0)
(1.80795 -0.147542 0)
(1.79482 -0.130159 0)
(1.78327 -0.109039 0)
(1.77451 -0.0841317 0)
(1.76975 -0.0557735 0)
(1.7701 -0.0246166 0)
(1.77648 0.00846792 0)
(1.7898 0.0422517 0)
(1.81064 0.0749938 0)
(1.83902 0.104707 0)
(1.87432 0.129479 0)
(1.91556 0.147646 0)
(1.96145 0.157759 0)
(2.01045 0.158564 0)
(2.06076 0.149155 0)
(2.11037 0.129086 0)
(2.15699 0.098479 0)
(2.19804 0.0579795 0)
(2.23053 0.00990561 0)
(2.2528 -0.04215 0)
(2.26481 -0.096285 0)
(2.2665 -0.15134 0)
(2.25799 -0.205196 0)
(2.2404 -0.255418 0)
(2.21563 -0.300542 0)
(2.18565 -0.340045 0)
(2.15194 -0.373746 0)
(2.11569 -0.401709 0)
(2.07794 -0.424232 0)
(2.03955 -0.441788 0)
(2.00118 -0.45492 0)
(1.96332 -0.464185 0)
(1.92628 -0.470124 0)
(1.89027 -0.473246 0)
(1.85538 -0.474006 0)
(1.82164 -0.472805 0)
(1.78901 -0.46998 0)
(1.75743 -0.465812 0)
(1.7268 -0.460526 0)
(1.69701 -0.454296 0)
(1.66793 -0.447246 0)
(1.63945 -0.439461 0)
(1.61144 -0.430984 0)
(1.58377 -0.421834 0)
(1.55635 -0.412003 0)
(1.52907 -0.401444 0)
(1.50183 -0.390078 0)
(1.47454 -0.377826 0)
(1.44712 -0.364593 0)
(1.41956 -0.350199 0)
(1.39199 -0.334338 0)
(1.36453 -0.316721 0)
(1.33702 -0.297427 0)
(1.30875 -0.277156 0)
(1.27881 -0.256855 0)
(1.24714 -0.236633 0)
(1.21565 -0.21467 0)
(1.18825 -0.187404 0)
(1.16891 -0.151634 0)
(1.16017 -0.106103 0)
(1.16246 -0.0518818 0)
(1.17445 0.00812356 0)
(1.19365 0.0701254 0)
(1.21738 0.130321 0)
(1.24392 0.186663 0)
(1.27223 0.23813 0)
(1.30157 0.284235 0)
(1.33137 0.3249 0)
(1.36122 0.360324 0)
(1.39082 0.390905 0)
(1.42001 0.417193 0)
(1.4487 0.439846 0)
(1.4769 0.459582 0)
(1.5047 0.477121 0)
(1.5323 0.493108 0)
(1.55997 0.508012 0)
(1.58799 0.522025 0)
(1.61668 0.535078 0)
(1.64635 0.546841 0)
(1.67721 0.556671 0)
(1.70936 0.563641 0)
(1.74279 0.566615 0)
(1.77733 0.564318 0)
(1.81266 0.555364 0)
(1.84828 0.538407 0)
(1.8835 0.512319 0)
(1.91748 0.476349 0)
(1.94927 0.430246 0)
(1.97793 0.37431 0)
(2.00251 0.309346 0)
(2.02219 0.236583 0)
(2.03631 0.157692 0)
(2.04444 0.0751494 0)
(2.04639 -0.00736809 0)
(2.04244 -0.0870962 0)
(2.03314 -0.161899 0)
(2.01915 -0.230022 0)
(2.00118 -0.290213 0)
(1.97991 -0.341717 0)
(1.95599 -0.384227 0)
(1.93001 -0.417827 0)
(1.90247 -0.442901 0)
(1.8738 -0.460059 0)
(1.8444 -0.470135 0)
(1.81472 -0.474218 0)
(1.78515 -0.473571 0)
(1.75599 -0.469412 0)
(1.72741 -0.462769 0)
(1.69948 -0.454444 0)
(1.67218 -0.445023 0)
(1.64544 -0.434917 0)
(1.61915 -0.424424 0)
(1.59314 -0.41377 0)
(1.56727 -0.403132 0)
(1.54139 -0.392615 0)
(1.51542 -0.382193 0)
(1.48941 -0.371617 0)
(1.46358 -0.360378 0)
(1.4383 -0.347751 0)
(1.41406 -0.332888 0)
(1.39137 -0.314973 0)
(1.3707 -0.293398 0)
(1.35237 -0.267879 0)
(1.33658 -0.238486 0)
(1.32339 -0.20559 0)
(1.31279 -0.169759 0)
(1.30475 -0.131651 0)
(1.29926 -0.0919213 0)
(1.2963 -0.0511735 0)
(1.29592 -0.00995131 0)
(1.29809 0.0312257 0)
(1.30281 0.0719452 0)
(1.30999 0.111846 0)
(1.86563 -0.179192 0)
(1.85402 -0.169853 0)
(1.84262 -0.159739 0)
(1.83141 -0.148274 0)
(1.82065 -0.134839 0)
(1.81092 -0.118928 0)
(1.80298 -0.100278 0)
(1.79771 -0.0789207 0)
(1.79597 -0.055182 0)
(1.79856 -0.0296426 0)
(1.80613 -0.00310452 0)
(1.81928 0.0234255 0)
(1.83838 0.0486754 0)
(1.86342 0.0712061 0)
(1.8939 0.0895702 0)
(1.92899 0.102442 0)
(1.96755 0.108705 0)
(2.00822 0.107517 0)
(2.04939 0.0983741 0)
(2.0893 0.0811562 0)
(2.12609 0.0561373 0)
(2.15788 0.0239748 0)
(2.18297 -0.0141668 0)
(2.20037 -0.05651 0)
(2.20985 -0.101332 0)
(2.21144 -0.147089 0)
(2.20529 -0.191994 0)
(2.19202 -0.234417 0)
(2.17272 -0.273214 0)
(2.14858 -0.307783 0)
(2.12072 -0.337869 0)
(2.09014 -0.36341 0)
(2.05771 -0.38452 0)
(2.02419 -0.401458 0)
(1.99019 -0.414577 0)
(1.95615 -0.424269 0)
(1.92242 -0.43094 0)
(1.88923 -0.434986 0)
(1.85673 -0.436772 0)
(1.825 -0.436628 0)
(1.79407 -0.434841 0)
(1.76393 -0.431653 0)
(1.73453 -0.427262 0)
(1.70581 -0.421826 0)
(1.6777 -0.41546 0)
(1.65012 -0.408244 0)
(1.62298 -0.400224 0)
(1.59619 -0.391421 0)
(1.56969 -0.381835 0)
(1.5434 -0.371432 0)
(1.51725 -0.360144 0)
(1.49119 -0.347889 0)
(1.46518 -0.334589 0)
(1.43918 -0.320154 0)
(1.41323 -0.304419 0)
(1.38751 -0.287104 0)
(1.3622 -0.267948 0)
(1.33717 -0.247039 0)
(1.31176 -0.22507 0)
(1.28506 -0.203035 0)
(1.2569 -0.181281 0)
(1.22892 -0.158492 0)
(1.20472 -0.131699 0)
(1.18823 -0.0979692 0)
(1.18198 -0.0559821 0)
(1.18652 -0.00658714 0)
(1.20048 0.0475321 0)
(1.22128 0.102945 0)
(1.24625 0.156334 0)
(1.27364 0.206032 0)
(1.30247 0.251224 0)
(1.33204 0.291526 0)
(1.36189 0.326956 0)
(1.39167 0.357796 0)
(1.42118 0.384495 0)
(1.45034 0.407609 0)
(1.47915 0.427752 0)
(1.50771 0.445542 0)
(1.5362 0.461535 0)
(1.56486 0.476137 0)
(1.59397 0.489517 0)
(1.62379 0.501604 0)
(1.65461 0.512123 0)
(1.68663 0.520535 0)
(1.71993 0.526051 0)
(1.75447 0.527695 0)
(1.79005 0.524352 0)
(1.82634 0.514832 0)
(1.86281 0.497998 0)
(1.89876 0.472904 0)
(1.93335 0.438933 0)
(1.96562 0.395902 0)
(1.99462 0.344108 0)
(2.01943 0.284274 0)
(2.03926 0.217439 0)
(2.05359 0.145002 0)
(2.06209 0.0692364 0)
(2.06452 -0.00644512 0)
(2.06101 -0.0797888 0)
(2.05213 -0.148965 0)
(2.03861 -0.212197 0)
(2.02104 -0.268234 0)
(2.00002 -0.316318 0)
(1.97619 -0.356088 0)
(1.95009 -0.387555 0)
(1.92224 -0.411037 0)
(1.89312 -0.427108 0)
(1.8632 -0.4366 0)
(1.83301 -0.440589 0)
(1.80297 -0.440253 0)
(1.77338 -0.43668 0)
(1.74443 -0.430767 0)
(1.71617 -0.423203 0)
(1.68859 -0.41449 0)
(1.66161 -0.404986 0)
(1.63513 -0.394953 0)
(1.60902 -0.384594 0)
(1.58313 -0.374083 0)
(1.55732 -0.363558 0)
(1.53149 -0.353077 0)
(1.50562 -0.342545 0)
(1.47985 -0.331653 0)
(1.4545 -0.319846 0)
(1.43002 -0.30637 0)
(1.40696 -0.290422 0)
(1.38584 -0.271302 0)
(1.36707 -0.248571 0)
(1.35094 -0.222136 0)
(1.33756 -0.192237 0)
(1.32692 -0.159361 0)
(1.31895 -0.12414 0)
(1.31357 -0.0872485 0)
(1.31071 -0.0493194 0)
(1.31033 -0.0109099 0)
(1.3124 0.0274726 0)
(1.31689 0.0654462 0)
(1.32374 0.102695 0)
(1.87454 -0.166088 0)
(1.8638 -0.1574 0)
(1.85369 -0.147794 0)
(1.84428 -0.136958 0)
(1.83574 -0.124549 0)
(1.82846 -0.110308 0)
(1.82299 -0.0941321 0)
(1.81994 -0.0761075 0)
(1.81994 -0.0565188 0)
(1.82356 -0.0358374 0)
(1.8313 -0.0147088 0)
(1.84349 0.00605379 0)
(1.86032 0.0254751 0)
(1.88169 0.042477 0)
(1.90722 0.0559913 0)
(1.93623 0.0650456 0)
(1.96782 0.0688121 0)
(2.00087 0.0666457 0)
(2.03411 0.0581348 0)
(2.06618 0.0431505 0)
(2.0957 0.0218895 0)
(2.12131 -0.00504721 0)