/*--------------------------------*- C++ -*----------------------------------*\
| =========                 |                                                 |
| \\      /  F ield         | OpenFOAM: The Open Source CFD Toolbox           |
|  \\    /   O peration     | Version:  2206                                  |
|   \\  /    A nd           | Website:  www.openfoam.com                      |
|    \\/     M anipulation  |                                                 |
\*---------------------------------------------------------------------------*/
FoamFile
{
    version     2.0;
    format      ascii;
    arch        "LSB;label=32;scalar=64";
    class       surfaceScalarField;
    location    "19.2999";
    object      ddtCorrDdt0(phi);
}
// * * * * * * * * * * * * * * * * * * * * * * * * * * * * * * * * * * * * * //

dimensions      [0 3 -2 0 0 0 0];

oriented        oriented;

internalField   nonuniform List<scalar> 
3588
(
6.42137e-05
-0.000177712
0.000113498
0.000192253
-0.000249695
0.000121654
0.000298177
-0.00022918
0.000123256
0.000426404
-0.000227602
9.93747e-05
0.000553621
-0.000159355
3.21367e-05
0.000667971
-4.76132e-05
-6.67371e-05
0.000756162
6.44884e-05
-0.000152679
0.000801022
0.000173401
-0.000218261
0.000793001
0.000297528
-0.000289508
0.000706466
0.000440824
-0.000354289
0.000534848
0.000588003
-0.000416384
0.000292129
0.00072211
-0.000479392
1.75614e-06
0.000819373
-0.000529
-0.00028601
0.00083747
-0.000549704
-0.000544935
0.000827806
-0.000568879
-0.000782891
0.000709179
-0.000471223
-0.000985331
0.000527421
-0.000324981
-0.00115502
0.000297603
-0.000127911
-0.00128951
2.63601e-05
0.00010813
-0.00138319
-0.000286006
0.000379687
-0.00143936
-0.000633851
0.000690021
-0.00140423
-0.000989413
0.000954279
-0.00122126
-0.00123249
0.00104952
-0.000935325
-0.00124714
0.000961206
-0.000608612
-0.0010884
0.000761684
-0.000295642
-0.000873129
0.00056016
-5.36416e-05
-0.000681794
0.000439794
0.000138803
-0.000519514
0.000327069
0.000304996
-0.0003693
0.000203107
0.000443772
-0.000230055
9.12781e-05
0.000540175
-8.73458e-05
-9.05639e-06
0.000604007
2.85686e-05
-9.24005e-05
0.000641836
0.000121366
-0.000159195
0.000653156
0.000196573
-0.000207893
0.000634943
0.000259019
-0.000240806
0.000597443
0.000300332
-0.000262832
0.000570466
0.00029366
-0.000266684
0.000588052
0.000210267
-0.000227853
0.000664234
4.75781e-05
-0.00012376
0.000767995
-0.000134315
3.05546e-05
0.000830866
-0.000234484
0.000171612
0.00080992
-0.0002059
0.000226845
0.000714367
-7.41329e-05
0.000169686
0.000564282
0.000127152
2.29328e-05
0.000374152
0.000361845
-0.000171716
0.000182127
0.000566278
-0.000374254
-1.13185e-07
0.000709811
-0.00052757
-0.000150833
0.000775164
-0.000624444
-0.000249526
0.00074833
-0.000649638
-0.000318202
0.000668311
-0.000599635
-0.000359022
0.000561946
-0.000521124
-0.00037687
0.000445944
-0.000428096
-0.00037794
0.000333692
-0.000332623
-0.00037021
0.000233427
-0.000241157
-0.000362034
0.000147603
-0.000155778
-0.000359931
7.58721e-05
-7.79744e-05
-0.000368196
1.36584e-05
-5.39413e-06
-0.0003904
-4.7164e-05
6.9368e-05
-0.000426436
-0.000118638
0.000154675
-0.000474351
-0.000209529
0.000257444
-0.000531086
-0.000325275
0.00038201
-0.000586591
-0.0004649
0.000520405
-0.000610867
-0.000609388
0.000633664
-0.000573186
-0.000714289
0.000676608
-0.000479451
-0.000733805
0.00064007
-0.000352967
-0.00067711
0.000550626
-0.000211168
-0.000576563
0.000434765
-7.17779e-05
-0.000463313
0.000323923
6.79451e-05
-0.000358153
0.00021843
0.000227154
-0.000231752
7.25425e-05
0.000370584
-7.56022e-05
-6.78267e-05
0.00048439
6.00498e-05
-0.000173856
0.000557044
0.000155703
-0.000228358
0.000582735
0.000196835
-0.000222525
0.000571959
0.000180914
-0.000170138
0.000538272
0.000128257
-9.45701e-05
0.000488065
6.45964e-05
-1.43889e-05
0.000428689
9.82625e-06
4.95497e-05
0.000368308
-2.03646e-05
8.0745e-05
0.000313181
-1.82334e-05
7.33604e-05
0.000264429
1.72339e-05
3.15178e-05
0.000217441
8.40555e-05
-3.70675e-05
0.000170255
0.000168011
-0.000120824
0.000120726
0.000253591
-0.000204062
6.80623e-05
0.000328727
-0.000276063
1.26336e-05
0.000385268
-0.000329839
-4.41174e-05
0.000416939
-0.000360188
-9.6201e-05
0.00041769
-0.000365606
-0.000141835
0.000392501
-0.000346867
-0.000179429
0.000347989
-0.000310395
-0.000208292
0.000288949
-0.000260085
-0.000229288
0.000221213
-0.000200217
-0.000244357
0.000149664
-0.000134596
-0.000254592
7.67839e-05
-6.65483e-05
-0.000259279
3.86374e-06
8.22816e-07
-0.000259199
-6.48841e-05
6.48045e-05
-0.000256643
-0.000126435
0.000123879
-0.000254383
-0.00017984
0.00017758
-0.000254699
-0.000227162
0.000227478
-0.000257452
-0.000270989
0.000273742
-0.000257426
-0.000311912
0.000311885
-0.000244094
-0.000344364
0.000331032
-0.000212644
-0.00035688
0.00032543
-0.000166311
-0.000347572
0.000301239
-0.000110617
-0.000320746
0.000265052
-4.67927e-05
-0.000283582
0.000219758
3.50437e-05
-0.000240368
0.000158532
0.000127102
-0.000178687
8.66282e-05
0.000214612
-0.00010504
1.75299e-05
0.000283448
-3.72806e-05
-3.15554e-05
0.000323793
1.23916e-05
-5.27362e-05
0.000331073
4.30586e-05
-5.03385e-05
0.000313386
5.32368e-05
-3.55505e-05
0.000281595
5.19099e-05
-2.01183e-05
0.00024313
4.97133e-05
-1.12482e-05
0.000203888
5.21309e-05
-1.28887e-05
0.000167071
6.31162e-05
-2.62994e-05
0.000132762
8.55787e-05
-5.12695e-05
0.000116827
-8.47633e-05
7.81513e-05
-0.000255864
0.000138789
-0.000310333
0.000229312
-0.000319703
0.0003142
-0.00031249
0.000396262
-0.000241418
0.000478296
-0.000129647
0.000536228
6.55555e-06
0.000544302
0.000165327
0.000490043
0.000351787
0.000372239
0.000558627
0.000208252
0.00075199
1.94976e-05
0.000910864
-0.000197419
0.00103629
-0.000288542
0.000928594
-0.000429363
0.000968626
-0.000553065
0.000832881
-0.000685429
0.000659784
-0.000835229
0.000447403
-0.000998068
0.000189199
-0.00114304
-0.000141038
-0.00125346
-0.000523426
-0.00132239
-0.000920481
-0.0012962
-0.00125869
-0.00113119
-0.00141214
-0.000871781
-0.00134781
-0.000580018
-0.00116489
-0.000311668
-0.000950144
-9.18386e-05
-0.000739343
8.63935e-05
-0.000547532
0.000239671
-0.000383332
0.000368217
-0.000215892
0.000464932
-6.81459e-05
0.000536186
5.01121e-05
0.000576994
0.000155765
0.000590033
0.000245981
0.000597448
0.000292917
0.000631516
0.000259592
0.000707906
0.000133877
0.000799607
-4.41219e-05
0.000847948
-0.000182656
0.00082132
-0.000207856
0.000735741
-0.000120321
0.000603367
5.82411e-05
0.000427268
0.000303251
0.000234371
0.000554743
4.62698e-05
0.00075438
-0.000113138
0.000869219
-0.000225331
0.000887357
-0.000301149
0.000824148
-0.000347141
0.000714304
-0.000364634
0.000579439
-0.000358581
0.000439891
-0.00033586
0.000310971
-0.000303926
0.000201493
-0.000270304
0.000113981
-0.000244366
4.99345e-05
-0.000235317
4.60887e-06
-0.000246487
-3.59938e-05
-0.000278429
-8.66957e-05
-0.000325318
-0.00016264
-0.000379853
-0.000270739
-0.000436471
-0.000408281
-0.000484946
-0.000560913
-0.000500541
-0.000698694
-0.000460699
-0.000773648
-0.000375814
-0.000761995
-0.000258484
-0.000693893
-0.000127244
-0.000594554
-6.37921e-06
-0.000479018
0.000112309
-0.00035044
0.000239937
-0.000203231
0.000352731
-5.27436e-05
0.000440171
6.82625e-05
0.000494123
0.000142884
0.000510318
0.000164719
0.000496222
0.000142353
0.000461139
9.96793e-05
0.000412186
5.87793e-05
0.000357169
3.46526e-05
0.000302536
3.63992e-05
0.000249849
6.99205e-05
0.000199038
0.000134867
0.000150026
0.000217023
0.000101321
0.000302295
5.10508e-05
0.000378997
-1.06685e-06
0.000437386
-5.24117e-05
0.000468284
-9.72452e-05
0.000462523
-0.000134753
0.000430009
-0.000162929
0.000376165
-0.000181541
0.000307561
-0.000192268
0.00023194
-0.000198334
0.00015573
-0.000202675
8.11254e-05
-0.00020341
4.59854e-06
-0.000199269
-6.90247e-05
-0.000193973
-0.000131732
-0.000190192
-0.000183622
-0.000189316
-0.000228038
-0.000191906
-0.000268399
-0.000195928
-0.000307889
-0.000195034
-0.000345258
-0.000180386
-0.000371528
-0.000152186
-0.000375771
-0.000113333
-0.000359599
-6.72733e-05
-0.000329642
-2.05712e-05
-0.00028707
3.84031e-05
-0.000237661
0.000117305
-0.000183941
0.000192505
-0.000112481
0.000249913
-4.50162e-05
0.000283541
9.43119e-06
0.000289804
4.69732e-05
0.000273853
6.78611e-05
0.000244902
7.86647e-05
0.000209084
8.7949e-05
0.000170837
0.000101363
0.000132721
0.000123695
0.000152125
6.56105e-05
-0.000321475
9.81826e-05
-0.000342905
0.000133828
-0.000355349
0.000158155
-0.000336817
0.000190285
-0.000273548
0.00022501
-0.000164372
0.000240432
-8.86577e-06
0.000222371
0.000183388
0.00017689
0.000397269
0.000100227
0.00063529
1.65884e-06
0.000850558
-9.42083e-05
0.00100673
-0.000139697
0.00108178
-0.000207992
0.000996889
-0.000181247
0.000941881
-0.000170122
0.000821755
-0.000193696
0.000683358
-0.000273897
0.000527605
-0.000408962
0.000324263
-0.000602411
5.24111e-05
-0.000802934
-0.000322904
-0.000977213
-0.000746201
-0.00109467
-0.00114123
-0.0010941
-0.00141272
-0.000963262
-0.00147864
-0.000755822
-0.00137233
-0.000525911
-0.00118006
-0.000307249
-0.000958005
-0.000115859
-0.000738923
3.44514e-05
-0.000533642
0.000163811
-0.000345252
0.00028279
-0.000187125
0.000382774
-4.98723e-05
0.000460911
7.7628e-05
0.000509128
0.000197764
0.000569019
0.000233026
0.000654407
0.000174204
0.000748044
4.02404e-05
0.000806212
-0.00010229
0.000798687
-0.000175131
0.00073367
-0.000142839
0.000623788
-1.04386e-05
0.000464771
0.000217257
0.000276439
0.000491583
9.06598e-05
0.000740522
-7.17438e-05
0.000916783
-0.000200202
0.000997678
-0.00028695
0.000974104
-0.000339534
0.000876733
-0.000359306
0.000734075
-0.000349915
0.000570049
-0.000318179
0.000408155
-0.000272539
0.000265331
-0.000219004
0.000147958
-0.000166223
6.11999e-05
-0.000118828
2.53959e-06
-9.13664e-05
-2.28527e-05
-9.04767e-05
-3.68833e-05
-0.000118626
-5.8546e-05
-0.000167786
-0.000113481
-0.000227233
-0.000211292
-0.000288685
-0.00034683
-0.000345335
-0.000504263
-0.000386482
-0.000657548
-0.000388964
-0.000771165
-0.000344239
-0.00080672
-0.000267061
-0.000771071
-0.000171301
-0.000690314
-7.30263e-05
-0.000577293
2.06791e-05
-0.000444145
0.000120913
-0.000303464
0.000225161
-0.000156992
0.000312909
-1.94851e-05
0.000376915
7.88779e-05
0.000411624
0.00013001
0.000415254
0.000138723
0.000395383
0.00011955
0.000359479
9.46838e-05
0.000314878
7.92528e-05
0.00026645
8.48275e-05
0.000215622
0.000120748
0.000166183
0.000184306
0.000118608
0.000264598
7.19987e-05
0.000348905
2.52901e-05
0.000425706
-2.07249e-05
0.000483401
-6.19878e-05
0.000509547
-9.60148e-05
0.00049655
-0.000122616
0.000456611
-0.000140318
0.000393866
-0.000148449
0.000315693
-0.000148074
0.000231564
-0.000142906
0.000150563
-0.000138829
7.70487e-05
-0.000136403
2.17191e-06
-0.000127298
-7.81293e-05
-0.00012097
-0.00013806
-0.000119198
-0.000185394
-0.000121394
-0.000225842
-0.000126908
-0.000262885
-0.000134832
-0.000299965
-0.00014264
-0.00033745
-0.000143019
-0.000371148
-0.000128396
-0.000390395
-0.000101171
-0.000386825
-6.80369e-05
-0.000362776
-3.402e-05
-0.000321087
3.77089e-06
-0.000275452
4.71277e-05
-0.000227298
0.000100992
-0.000166345
0.000155129
-9.91532e-05
0.000199274
-3.47145e-05
0.000225195
2.10522e-05
0.00022888
6.41761e-05
0.00021363
9.39148e-05
0.000187114
0.000114465
0.000154284
0.000134193
0.000119284
0.000158694
0.000185571
2.72295e-05
-0.000348705
4.13786e-05
-0.000357055
4.50367e-05
-0.000359007
4.3336e-05
-0.000335117
4.40033e-05
-0.000274215
4.58636e-05
-0.000166232
4.13563e-05
-4.35856e-06
4.97775e-05
0.000174966
2.98533e-05
0.000417193
-2.01294e-05
0.000685273
-8.82761e-05
0.000918705
-0.000149772
0.00106823
-0.000116794
0.0010488
-0.000101422
0.000981517
-2.48425e-05
0.000865302
6.12168e-05
0.000735695
0.000134575
0.000609999
0.000173845
0.000488335
0.000164337
0.000333771
5.51215e-05
0.000161626
-0.000186748
-8.10344e-05
-0.000448153
-0.000484797
-0.000683958
-0.000905428
-0.000835465
-0.00126121
-0.000860936
-0.00145317
-0.000778754
-0.00145451
-0.000634807
-0.001324
-0.000464602
-0.00112821
-0.00029652
-0.000907005
-0.000144826
-0.000685336
-1.18655e-05
-0.000478212
9.93346e-05
-0.000298325
0.000197167
-0.000147704
0.000303088
-2.82936e-05
0.000400898
9.9954e-05
0.000505606
0.000128319
0.000612047
6.77626e-05
0.000691486
-3.91986e-05
0.000715292
-0.000126095
0.000681397
-0.000141236
0.000600882
-6.23239e-05
0.00046758
0.000122864
0.000296702
0.000388135
0.000120278
0.000668006
-4.1977e-05
0.000902777
-0.000179895
0.0010547
-0.000278025
0.00109581
-0.000336589
0.00103267
-0.000359515
0.000899659
-0.000348697
0.000723256
-0.00031003
0.000531382
-0.000252467
0.000350592
-0.000185679
0.000198542
-0.000119101
8.13806e-05
-4.54267e-05
-1.24746e-05
1.76118e-05
-6.04988e-05
5.96388e-05
-6.48796e-05
6.76538e-05
-4.48981e-05
4.2383e-05
-3.32751e-05
-7.84169e-06
-6.32563e-05
-7.14337e-05
-0.0001477
-0.000138952
-0.000279311
-0.000203482
-0.000439732
-0.00025809
-0.00060294
-0.000291589
-0.000737666
-0.000285626
-0.000812684
-0.000248226
-0.000808471
-0.00019034
-0.0007482
-0.000121168
-0.000646465
-4.91132e-05
-0.0005162
2.17025e-05
-0.00037428
9.99491e-05
-0.000235239
0.0001804
-9.99363e-05
0.000250333
8.94551e-06
0.000295056
8.52877e-05
0.000310891
0.000122888
0.000304272
0.000126169
0.00028196
0.000116995
0.000248289
0.000112924
0.000206343
0.000126774
0.000160333
0.000166759
0.000114694
0.000229945
7.10597e-05
0.000308232
2.91949e-05
0.00039077
-1.08503e-05
0.000465751
-4.70507e-05
0.000519601
-7.41313e-05
0.000536628
-9.3599e-05
0.000516018
-0.000105678
0.000468689
-0.000110202
0.00039839
-0.000107101
0.000312592
-9.66061e-05
0.00022107
-8.04348e-05
0.000134392
-6.67995e-05
6.34135e-05
-5.87861e-05
-5.84152e-06
-4.49006e-05
-9.20147e-05
-4.01425e-05
-0.000142818
-4.41851e-05
-0.000181351
-5.44987e-05
-0.000215528
-6.63757e-05
-0.000251008
-7.85757e-05
-0.000287765
-9.10469e-05
-0.000324979
-0.00010115
-0.000361045
-0.000101855
-0.00038969
-9.08388e-05
-0.000397841
-7.0615e-05
-0.000383
-4.06745e-05
-0.000351027
-8.63323e-06
-0.000307493
1.74928e-05
-0.000253424
4.51546e-05
-0.000194007
7.72753e-05
-0.000131274
0.000110247
-6.76865e-05
0.00014124
-9.94021e-06
0.00016019
4.52258e-05
0.000160179
9.39256e-05
0.000145088
0.000129556
0.000120271
0.00015901
9.20842e-05
0.000186881
0.000213611
-7.16181e-06
-1.34738e-05
-2.37803e-05
-3.60318e-05
-4.70508e-05
-4.82309e-05
-4.97452e-05
-4.96549e-05
-8.53277e-05
-0.000120977
-0.000138742
-0.000128322
-9.04305e-05
-1.05485e-05
0.00010572
0.00024425
0.00038153
0.00048122
0.000508501
0.000478685
0.000347434
0.000130599
-0.000173779
-0.000444132
-0.000606108
-0.000651867
-0.000617435
-0.000532733
-0.000420156
-0.000296665
-0.000173822
-6.14457e-05
4.04997e-05
0.000137066
0.00026381
0.000400786
0.000505762
0.000562789
0.000562805
0.000521907
0.000422068
0.000273317
0.000110539
-4.44182e-05
-0.000180576
-0.000286874
-0.000347688
-0.000369817
-0.000355903
-0.000310548
-0.000242378
-0.000163026
-8.80367e-05
-3.855e-06
9.29436e-05
0.000167675
0.00020573
0.000211017
0.000192717
0.000147492
8.05945e-05
6.66663e-06
-6.5576e-05
-0.000131498
-0.000184419
-0.000213048
-0.000211529
-0.000190657
-0.000154257
-0.000107344
-5.57572e-05
-5.77564e-06
5.07307e-05
0.000115011
0.000173898
0.000196432
0.000199258
0.000187997
0.000162768
0.00012747
8.79969e-05
4.79615e-05
9.42997e-06
-2.66424e-05
-5.86899e-05
-8.16326e-05
-9.11629e-05
-9.15117e-05
-8.41705e-05
-7.13624e-05
-5.46432e-05
-3.61938e-05
-1.33696e-05
1.13411e-05
3.48226e-05
4.12392e-05
3.64638e-05
2.61466e-05
1.27528e-05
-3.91495e-06
-2.26547e-05
-4.07492e-05
-5.67611e-05
-6.82362e-05
-6.9618e-05
-6.25755e-05
-4.76981e-05
-2.86034e-05
-7.97273e-06
1.00016e-05
2.46246e-05
3.97271e-05
5.98045e-05
8.08056e-05
8.72846e-05
8.38684e-05
7.10312e-05
5.32529e-05
6.70661e-06
2.53882e-06
3.38198e-06
3.32435e-06
-8.64218e-07
4.24614e-06
-6.19166e-06
5.32724e-06
-1.27842e-05
6.59257e-06
-2.07875e-05
8.00304e-06
9.48964e-06
-3.02771e-05
1.20703e-05
4.37233e-06
9.77162e-06
5.62291e-06
6.97259e-06
7.04508e-06
3.60274e-06
8.69698e-06
-4.61102e-07
1.06564e-05
-5.46474e-06
1.30066e-05
1.57457e-05
-1.17209e-05
1.81645e-05
5.34407e-06
1.69588e-05
6.82857e-06
1.55776e-05
8.42616e-06
1.40652e-05
1.02093e-05
1.24104e-05
1.23111e-05
1.05163e-05
1.49005e-05
1.81539e-05
8.10793e-06
2.15338e-05
5.68507e-06
2.10786e-05
7.28361e-06
2.06279e-05
8.87685e-06
2.02813e-05
1.05557e-05
2.01158e-05
1.24766e-05
2.00541e-05
1.49622e-05
1.81678e-05
2.00401e-05
2.343e-05
5.8246e-06
2.32357e-05
7.47782e-06
2.31078e-05
9.00463e-06
2.33109e-05
1.03526e-05
2.42119e-05
1.15755e-05
2.6246e-05
1.29281e-05
1.52738e-05
2.91399e-05
2.46087e-05
6.08822e-06
2.43279e-05
7.7586e-06
2.43841e-05
8.9483e-06
2.5078e-05
9.65868e-06
2.66606e-05
9.99284e-06
2.94428e-05
1.01458e-05
1.0707e-05
3.40096e-05
2.77283e-05
6.20699e-06
2.75347e-05
7.95215e-06
2.75745e-05
8.9084e-06
2.82996e-05
8.93353e-06
3.03307e-05
7.96171e-06
3.44481e-05
6.02843e-06
3.90677e-06
4.12482e-05
3.38092e-05
5.0422e-06
3.48287e-05
6.9325e-06
3.59581e-05
7.77906e-06
3.75694e-05
7.32211e-06
4.03895e-05
5.14167e-06
4.58078e-05
6.09906e-07
-5.88398e-06
5.55986e-05
3.13424e-05
2.911e-06
3.39761e-05
4.29893e-06
3.69008e-05
4.85416e-06
3.98776e-05
4.34544e-06
4.30116e-05
2.00734e-06
4.7533e-05
-3.91137e-06
-1.68589e-05
5.85077e-05
1.81602e-05
2.2459e-05
2.73132e-05
3.16585e-05
3.36659e-05
2.97544e-05
1.28952e-05
-4.11786e-05
1.09012e-05
-5.18366e-05
1.06579e-05
-6.08323e-05
8.99538e-06
-6.86018e-05
7.76954e-06
-7.61915e-05
7.58946e-06
-8.4212e-05
8.0207e-06
-9.31491e-05
8.93706e-06
-0.000106
1.2851e-05
-0.000124891
1.88915e-05
-0.000152583
2.7692e-05
-0.000194413
4.18293e-05
-0.000230379
3.59665e-05
-0.000252509
2.21302e-05
-0.000252887
3.77793e-07
-0.0002418
-1.10869e-05
-0.000219619
-2.21814e-05
-0.000180087
-3.95321e-05
-0.000103421
-7.66657e-05
4.28843e-05
-0.000146305
0.000225884
-0.000182999
0.000404768
-0.000178884
0.000540754
-0.000135986
0.000611871
-7.11169e-05
0.000584862
2.70087e-05
0.000489947
9.4915e-05
0.000340799
0.000149149
0.000157706
0.000183092
1.70758e-05
0.000140631
-0.000116917
0.000133992
-0.00021042
9.35032e-05
-0.0002586
4.81801e-05
-0.000268668
1.00683e-05
-0.000252153
-1.65154e-05
-0.000218216
-3.39362e-05
-0.000173727
-4.44892e-05
-0.000123828
-4.98985e-05
-7.08844e-05
-5.29441e-05
-1.96723e-05
-5.12119e-05
2.09999e-05
-4.06723e-05
5.79949e-05
-3.69948e-05
8.44284e-05
-2.64335e-05
0.000100056
-1.56279e-05
0.00010127
-1.21398e-06
8.81997e-05
1.30708e-05
6.24483e-05
2.57513e-05
2.53595e-05
3.7089e-05
-2.04652e-05
4.58246e-05
-6.22359e-05
4.17708e-05
-0.000102661
4.04248e-05
-0.000133195
3.05347e-05
-0.000150817
1.7622e-05
-0.000154107
3.28959e-06
-0.000143242
-1.08651e-05
-0.000120254
-2.29878e-05
-8.49815e-05
-3.52725e-05
-4.03221e-05
-4.46592e-05
3.10349e-06
-4.34257e-05
4.48108e-05
-4.17072e-05
7.66065e-05
-3.17958e-05
9.69172e-05
-2.03106e-05
0.000101557
-4.64007e-06
9.18859e-05
9.67146e-06
7.25925e-05
1.92933e-05
5.69476e-05
1.5645e-05
3.68513e-05
2.00963e-05
2.12453e-05
1.56061e-05
1.00508e-05
1.11945e-05
2.65478e-06
7.39615e-06
-1.29531e-06
3.95009e-06
-2.15378e-06
8.58591e-07
-2.47089e-07
-1.90669e-06
3.9609e-06
-4.20789e-06
8.80759e-06
-4.84669e-06
1.41688e-05
-5.36113e-06
1.84606e-05
-4.29181e-06
2.10316e-05
-2.57085e-06
2.14624e-05
-4.30846e-07
1.99972e-05
1.46528e-06
1.74231e-05
2.57413e-06
1.54626e-05
1.96054e-06
1.3492e-05
1.97055e-06
1.19865e-05
1.50561e-06
1.05432e-05
1.44326e-06
8.44281e-06
2.10045e-06
5.0913e-06
3.35148e-06
2.24573e-07
4.86678e-06
-6.10494e-06
6.32948e-06
-1.3371e-05
7.2661e-06
-2.09997e-05
7.62865e-06
-2.84543e-05
7.45466e-06
-3.52402e-05
6.78588e-06
-4.08231e-05
5.58292e-06
-4.44473e-05
3.62416e-06
-4.7068e-05
2.62078e-06
-4.70219e-05
-4.61192e-08
-4.44005e-05
-2.62145e-06
-3.94491e-05
-4.9514e-06
-3.25939e-05
-6.85521e-06
-2.43892e-05
-8.20467e-06
-1.54719e-05
-8.91732e-06
-6.56685e-06
-8.90505e-06
1.69692e-06
-8.26373e-06
8.78263e-06
-7.08574e-06
1.40459e-05
-5.26324e-06
1.80602e-05
-4.01427e-06
2.06783e-05
-2.61812e-06
2.21096e-05
-1.43133e-06
2.27496e-05
-6.39956e-07
2.30234e-05
-2.7376e-07
2.33035e-05
-2.80062e-07
2.39089e-05
-6.05424e-07
2.50308e-05
-1.12184e-06
2.66118e-05
-1.58097e-06
2.83947e-05
-1.78287e-06
3.00395e-05
-1.64478e-06
3.11008e-05
-1.06133e-06
3.11719e-05
-7.12127e-08
2.99054e-05
1.26648e-06
2.70497e-05
2.85572e-06
4.55827e-06
-1.96936e-05
1.88736e-05
-3.13389e-05
2.23031e-05
-4.82549e-05
2.59111e-05
-7.03244e-05
2.9839e-05
-9.69004e-05
3.41654e-05
-0.000127024
3.81442e-05
-0.000159517
4.14302e-05
-0.000189799
4.31333e-05
-0.000214851
4.39428e-05
-0.000225721
3.85621e-05
-0.000207921
2.403e-05
-0.000170859
-1.09643e-06
-0.000119125
-2.96036e-05
-7.3783e-05
-4.49638e-05
-4.97128e-05
-3.51571e-05
-5.53586e-05
-1.65356e-05
-6.36952e-05
-3.11955e-05
-3.39414e-05
-0.000106419
9.29599e-06
-0.000189543
0.000197104
-0.000370808
0.000396356
-0.000378136
0.00051867
-0.0002583
0.000548994
-0.000101441
0.000529765
4.62376e-05
0.000425851
0.00019883
0.000265157
0.000309843
9.54564e-05
0.000352793
-5.37817e-05
0.000289869
-0.000165986
0.000246197
-0.000236853
0.000164371
-0.000269141
8.0468e-05
-0.000269492
1.04191e-05
-0.000243329
-4.26781e-05
-0.000204832
-7.24336e-05
-0.000159114
-9.02065e-05
-0.000109218
-9.97947e-05
-5.8561e-05
-0.000103601
-1.30377e-05
-9.67351e-05
3.37427e-05
-8.74527e-05
6.83424e-05
-7.15945e-05
9.16743e-05
-4.97654e-05
0.000101262
-2.52155e-05
9.95532e-05
4.94817e-07
8.49351e-05
2.76889e-05
5.71497e-05
5.35367e-05
1.76881e-05
7.65506e-05
-2.9709e-05
9.32217e-05
-6.92551e-05
8.13169e-05
-0.000105403
7.65726e-05
-0.000131722
5.68542e-05
-0.000146145
3.2045e-05
-0.000149769
6.91359e-06
-0.000142248
-1.83859e-05
-0.000119362
-4.58738e-05
-8.43903e-05
-7.02446e-05
-4.08181e-05
-8.82314e-05
7.5886e-06
-9.18324e-05
4.89344e-05
-8.30529e-05
8.00436e-05
-6.2905e-05
9.60979e-05
-3.63648e-05
9.957e-05
-8.11219e-06
8.8202e-05
2.10395e-05
6.87046e-05
3.87908e-05
5.10386e-05
3.3311e-05
3.46689e-05
3.64661e-05
2.11906e-05
2.90844e-05
1.14561e-05
2.09291e-05
4.68552e-06
1.41667e-05
5.47935e-07
8.08774e-06
-1.16876e-06
2.57537e-06
-3.84111e-07
-2.6913e-06
2.75013e-06
-7.34207e-06
6.9287e-06
-9.02522e-06
1.13523e-05
-9.78467e-06
1.5223e-05
-8.16244e-06
1.77675e-05
-5.11532e-06
1.83771e-05
-1.04045e-06
1.69843e-05
2.85819e-06
1.51486e-05
4.40978e-06
1.28239e-05
4.28535e-06
1.14804e-05
3.31406e-06
1.07032e-05
2.28278e-06
9.84819e-06
2.29831e-06
8.14983e-06
3.79882e-06
4.83802e-06
6.66329e-06
-3.13959e-07
1.00188e-05
-7.03313e-06
1.30486e-05
-1.46937e-05
1.49266e-05
-2.25406e-05
1.54756e-05
-2.99733e-05
1.48874e-05
-3.65661e-05
1.33787e-05
-4.19827e-05
1.09995e-05
-4.60726e-05
7.71405e-06
-4.72686e-05
3.81683e-06
-4.63059e-05
-1.00889e-06
-4.28371e-05
-6.09023e-06
-3.70693e-05
-1.07192e-05
-2.94968e-05
-1.44278e-05
-2.07115e-05
-1.69899e-05
-1.13727e-05
-1.82562e-05
-2.22022e-06
-1.80575e-05
6.06588e-06
-1.65498e-05
1.31821e-05
-1.42019e-05
1.78635e-05
-9.94467e-06
2.14984e-05
-7.64919e-06
2.35942e-05
-4.71383e-06
2.43564e-05
-2.19358e-06
2.42928e-05
-5.76361e-07
2.38753e-05
1.43805e-07
2.35592e-05
3.60882e-08
2.35584e-05
-6.04684e-07
2.42272e-05
-1.79061e-06
2.54204e-05
-2.77406e-06
2.68444e-05
-3.20686e-06
2.81315e-05
-2.93188e-06
2.88417e-05
-1.77156e-06
2.85758e-05
1.94604e-07
2.70334e-05
2.80886e-06
2.4033e-05
5.85624e-06
9.1181e-06
4.67435e-06
2.23071e-05
-4.80177e-07
2.74575e-05
-8.47332e-06
3.39041e-05
-2.05354e-05
4.1901e-05
-3.72793e-05
5.09093e-05
-5.81037e-05
5.89686e-05
-8.14318e-05
6.47584e-05
-0.000105676
6.73772e-05
-0.000127026
6.52931e-05
-0.000144448
5.59837e-05
-0.000157139
3.67215e-05
-0.000163198
4.96227e-06
-0.000159498
-3.33032e-05
-0.000135539
-6.89231e-05
-6.67534e-05
-0.000103943
6.37872e-05
-0.000147076
0.000219775
-0.000187184
0.0003282
-0.000214844
0.00034217
-0.000203513
0.000273575
-0.000302212
0.000271217
-0.000375778
0.000317984
-0.000305067
0.00035775
-0.000141207
0.000353097
5.08907e-05
0.000294388
0.000257539
0.000183853
0.000420378
3.61529e-05
0.000500493
-8.05254e-05
0.000406547
-0.000182548
0.000348219
-0.000239765
0.000221587
-0.000256469
9.71719e-05
-0.000251095
5.04492e-06
-0.000214035
-7.97381e-05
-0.000164145
-0.000122323
-0.000112809
-0.000141543
-6.7831e-05
-0.000144772
-2.47931e-05
-0.000146639
-3.28713e-06
-0.000118241
3.24744e-05
-0.000123214
5.77273e-05
-9.68474e-05
7.24897e-05
-6.45278e-05
7.81219e-05
-3.08476e-05
7.56353e-05
2.9815e-06
6.2381e-05
4.09433e-05
4.1432e-05
7.44857e-05
1.32504e-05
0.000104732
-2.06358e-05
0.000127108
-5.47026e-05
0.000115384
-7.60554e-05
9.79256e-05
-8.87395e-05
6.95383e-05
-9.64815e-05
3.9787e-05
-0.00010162
1.20524e-05
-0.000108537
-1.14688e-05
-0.000107584
-4.68274e-05
-9.30377e-05
-8.47906e-05
-6.25642e-05
-0.000118705
-1.94855e-05
-0.000134911
1.92768e-05
-0.000121815
4.9419e-05
-9.30472e-05
7.10566e-05
-5.80025e-05
8.77942e-05
-2.48497e-05
8.36618e-05
2.51719e-05
6.9967e-05
5.24856e-05
5.31885e-05
5.00895e-05
3.92545e-05
5.04002e-05
2.69465e-05
4.13925e-05
1.71377e-05
3.0738e-05
7.78763e-06
2.35169e-05
1.30104e-06
1.45744e-05
-2.44746e-06
6.32392e-06
-4.11568e-06
-1.02304e-06
-2.60874e-06
-8.84895e-06
-1.62574e-06
-1.00082e-05
2.91639e-06
-1.43268e-05
7.6282e-06
-1.28742e-05
1.28048e-05
-1.02918e-05
1.59682e-05
-4.20387e-06
1.64801e-05
2.3463e-06
1.58277e-05
5.06231e-06
1.47198e-05
5.39329e-06
1.41356e-05
3.89829e-06
1.40184e-05
2.39998e-06
1.35422e-05
2.77445e-06
1.18622e-05
5.47889e-06
7.90215e-06
1.06233e-05
1.82306e-06
1.60979e-05
-5.95264e-06
2.08243e-05
-1.44399e-05
2.34139e-05
-2.26377e-05
2.36734e-05
-2.99274e-05
2.21771e-05
-3.60001e-05
1.94513e-05
-4.08224e-05
1.58218e-05
-4.41017e-05
1.09934e-05
-4.5186e-05
4.90108e-06
-4.39641e-05
-2.23077e-06
-4.04139e-05
-9.64044e-06
-3.47335e-05
-1.63995e-05
-2.73682e-05
-2.17931e-05
-1.88711e-05
-2.5487e-05
-9.76777e-06
-2.73595e-05
-8.40876e-07
-2.69844e-05
7.05913e-06
-2.44498e-05
1.3357e-05
-2.04998e-05
1.89084e-05
-1.5496e-05
2.20083e-05
-1.07491e-05
2.35358e-05
-6.2413e-06
2.37086e-05
-2.36633e-06
2.29396e-05
1.92587e-07
2.1814e-05
1.26943e-06
2.09279e-05
9.22181e-07
2.0576e-05
-2.52705e-07
2.09549e-05
-2.16951e-06
2.20803e-05
-3.89946e-06
2.37475e-05
-4.87406e-06
2.54349e-05
-4.61918e-06
2.67559e-05
-3.09261e-06
2.71978e-05
-2.47324e-07
2.6361e-05
3.64571e-06
2.39816e-05
8.23568e-06
1.30568e-05
1.9862e-05
2.24851e-05
1.88834e-05
2.8436e-05
1.57827e-05
3.70047e-05
9.17738e-06
4.85064e-05
-1.25923e-06
6.13459e-05
-1.64958e-05
7.42052e-05
-3.70584e-05
8.5321e-05
-6.16625e-05
9.19813e-05
-8.86952e-05
9.23258e-05
-0.000117304
8.45927e-05
-0.000143857
6.32744e-05
-0.000165534
2.66391e-05
-0.000183137
-1.57004e-05
-0.000192255
-5.98049e-05
-0.000191696
-0.000104502
-0.000174601
-0.000164171
-0.00012291
-0.000238875
-1.38802e-05
-0.000323874
0.000128743
-0.000346136
0.000215052
-0.000388521
0.000207643
-0.00036837
0.000157407
-0.000254831
0.000126048
-0.000109848
0.000147621
2.93179e-05
0.000144697
0.000260464
0.000124903
0.000440171
8.62255e-05
0.000539171
-2.02974e-05
0.00051307
-7.51334e-05
0.000403055
-0.000117727
0.000264182
-0.00014564
0.000125085
-0.00016193
2.1335e-05
-0.000166797
-7.48711e-05
-0.000154048
-0.000135071
-0.00011938
-0.000176212
-7.06617e-05
-0.00019349
-2.43337e-05
-0.000192967
3.12509e-05
-0.000173826
4.61162e-05
-0.00013808
4.66297e-05
-9.73608e-05
3.9569e-05
-5.74671e-05
3.01607e-05
-2.14392e-05
2.3565e-05
9.57723e-06
5.32294e-06
5.91854e-05
-1.61563e-05
9.5965e-05
-3.81255e-05
0.000126701
-5.06082e-05
0.000139591
-5.50648e-05
0.00011984
-3.93632e-05
8.2224e-05
-1.5885e-05
4.60601e-05
5.21479e-06
1.86873e-05
1.82652e-05
-9.97986e-07
1.91957e-05
-1.23992e-05
4.66074e-07
-2.80978e-05
-3.35698e-05
-5.07548e-05
-6.24959e-05
-8.97788e-05
-6.02386e-05
-0.000137168
-4.04283e-05
-0.000141625
-1.39212e-05
-0.000119554
1.57555e-05
-8.76791e-05
4.90343e-05
-5.81285e-05
8.18143e-05
-7.60808e-06
9.77094e-05
3.65905e-05
9.0758e-05
5.7041e-05
7.79659e-05
6.31923e-05
6.17371e-05
5.76214e-05
4.26693e-05
4.98058e-05
2.19003e-05
4.42859e-05
-1.94666e-06
3.84214e-05
-2.30784e-05
2.74558e-05
-3.77533e-05
1.36519e-05
-3.75262e-05
-9.07604e-06
-2.92874e-05
-1.82469e-05
-2.10652e-05
-2.25489e-05
-1.28449e-05
-2.10946e-05
-4.13149e-06
-1.90052e-05
6.76467e-06
-1.51e-05
1.84869e-05
-9.37587e-06
2.18706e-05
1.67859e-06
2.39132e-05
3.35078e-06
2.63271e-05
1.4844e-06
2.86539e-05
7.31377e-08
2.86622e-05
2.76624e-06
2.59214e-05
8.21969e-06
1.97687e-05
1.6776e-05
9.7572e-06
2.61094e-05
-3.78758e-06
3.43691e-05
-1.81312e-05
3.77575e-05
-3.08503e-05
3.63926e-05
-4.09372e-05
3.2264e-05
-4.74251e-05
2.59392e-05
-5.10967e-05
1.94933e-05
-5.21303e-05
1.2027e-05
-5.0562e-05
3.33287e-06
-4.64769e-05
-6.31593e-06
-4.01585e-05
-1.59588e-05
-3.21098e-05
-2.44482e-05
-2.30947e-05
-3.08083e-05
-1.38368e-05
-3.47449e-05
-4.72093e-06
-3.64753e-05
3.59144e-06
-3.52967e-05
1.03617e-05
-3.12201e-05
1.57864e-05
-2.59246e-05
1.966e-05
-1.93696e-05
2.21797e-05
-1.32687e-05
2.34338e-05
-7.49546e-06
2.36574e-05
-2.58984e-06
2.3022e-05
8.27969e-07
2.20422e-05
2.24921e-06
2.12577e-05
1.7067e-06
2.11911e-05
-1.86105e-07
2.18464e-05
-2.82473e-06
2.31993e-05
-5.25235e-06
2.50278e-05
-6.70257e-06
2.69835e-05
-6.57487e-06
2.85765e-05
-4.68559e-06
2.93343e-05
-1.00514e-06
2.87073e-05
4.27281e-06
2.62756e-05
1.06674e-05
1.74551e-05
3.21885e-05
1.94365e-05
3.44396e-05
2.61847e-05
3.4554e-05
3.68902e-05
3.14859e-05
5.15745e-05
2.36488e-05
6.9183e-05
9.80658e-06
8.80474e-05
-1.05573e-05
0.000105685
-3.71811e-05
0.000118605
-6.86593e-05
0.000123804
-0.000104285
0.000120219
-0.000145802
0.000104791
-0.00019432
7.51568e-05
-0.000238037
2.80164e-05
-0.000268851
-2.89901e-05
-0.000291441
-8.19127e-05
-0.000303494
-0.000152118
-0.000308186
-0.000234183
-0.000318677
-0.000313382
-0.000288274
-0.000376539
-0.000228745
-0.00044805
-0.000163504
-0.000433611
-0.000130107
-0.000288228
-0.000117225
-0.00012273
-5.61036e-05
-3.18031e-05
2.18189e-05
0.000182541
0.00011039
0.0003516
0.000206671
0.000442889
0.000261314
0.000458427
0.000277383
0.000386987
0.000250828
0.000290737
0.000208699
0.000167214
0.000166164
6.38701e-05
0.000110683
-1.93903e-05
5.47507e-05
-7.91386e-05
1.55157e-06
-0.000123012
-4.19503e-05
-0.000149988
-6.36349e-05
-0.000171282
-6.3011e-05
-0.00017445
-4.91686e-05
-0.000151922
-3.59516e-05