/*--------------------------------*- C++ -*----------------------------------*\
| =========                 |                                                 |
| \\      /  F ield         | OpenFOAM: The Open Source CFD Toolbox           |
|  \\    /   O peration     | Version:  2206                                  |
|   \\  /    A nd           | Website:  www.openfoam.com                      |
|    \\/     M anipulation  |                                                 |
\*---------------------------------------------------------------------------*/
FoamFile
{
    version     2.0;
    format      ascii;
    arch        "LSB;label=32;scalar=64";
    class       volVectorField;
    location    "19.1001";
    object      U_0;
}
// * * * * * * * * * * * * * * * * * * * * * * * * * * * * * * * * * * * * * //

dimensions      [0 1 -1 0 0 0 0];

internalField   nonuniform List<vector> 
4853
(
(1.47761 -6.57979e-05 0)
(1.47764 -0.000193913 0)
(1.47771 -0.000317012 0)
(1.47782 -0.000434777 0)
(1.47797 -0.000546817 0)
(1.47816 -0.000652805 0)
(1.47838 -0.000752441 0)
(1.47863 -0.000845449 0)
(1.47892 -0.000931601 0)
(1.47924 -0.00101072 0)
(1.4796 -0.0010827 0)
(1.47998 -0.00114745 0)
(1.48039 -0.00120493 0)
(1.48084 -0.00125515 0)
(1.4813 -0.0012981 0)
(1.4818 -0.00133384 0)
(1.48231 -0.0013624 0)
(1.48285 -0.00138384 0)
(1.48341 -0.00139823 0)
(1.48399 -0.00140563 0)
(1.48458 -0.00140609 0)
(1.48519 -0.00139966 0)
(1.48582 -0.00138637 0)
(1.48646 -0.00136625 0)
(1.48711 -0.00133929 0)
(1.48777 -0.00130546 0)
(1.48843 -0.00126471 0)
(1.48911 -0.00121696 0)
(1.48978 -0.0011621 0)
(1.49047 -0.00109997 0)
(1.49115 -0.0010304 0)
(1.49183 -0.00095316 0)
(1.49251 -0.00086788 0)
(1.49319 -0.00077437 0)
(1.49387 -0.000672272 0)
(1.49453 -0.000561206 0)
(1.49519 -0.000440769 0)
(1.49584 -0.000310383 0)
(1.49648 -0.00016968 0)
(1.4971 -1.7829e-05 0)
(1.49771 0.000145478 0)
(1.4983 0.00032132 0)
(1.49888 0.000510028 0)
(1.49943 0.00071277 0)
(1.49996 0.000930172 0)
(1.50047 0.00116318 0)
(1.50095 0.00141302 0)
(1.5014 0.00168027 0)
(1.50182 0.0019666 0)
(1.50221 0.00227278 0)
(1.50257 0.00260007 0)
(1.50289 0.00295022 0)
(1.50317 0.00332367 0)
(1.5034 0.00372324 0)
(1.5036 0.00415029 0)
(1.50375 0.00460656 0)
(1.50384 0.00509416 0)
(1.50389 0.00561522 0)
(1.50388 0.006172 0)
(1.50381 0.00676698 0)
(1.50367 0.00740284 0)
(1.50347 0.00808248 0)
(1.5032 0.00880908 0)
(1.50286 0.00958608 0)
(1.50243 0.0104173 0)
(1.50191 0.0113068 0)
(1.50131 0.0122591 0)
(1.5006 0.0132792 0)
(1.49979 0.0143725 0)
(1.49887 0.015545 0)
(1.49783 0.0168034 0)
(1.49666 0.0181551 0)
(1.49535 0.0196081 0)
(1.49389 0.0211717 0)
(1.49227 0.022856 0)
(1.49048 0.0246723 0)
(1.48849 0.0266335 0)
(1.48631 0.0287537 0)
(1.4839 0.0310493 0)
(1.48125 0.0335385 0)
(1.47835 0.0362421 0)
(1.47516 0.0391838 0)
(1.47166 0.0423906 0)
(1.46783 0.0458935 0)
(1.46363 0.0497281 0)
(1.45903 0.0539358 0)
(1.45399 0.0585643 0)
(1.44846 0.0636692 0)
(1.44242 0.0693158 0)
(1.43579 0.0755804 0)
(1.42852 0.0825533 0)
(1.42056 0.0903416 0)
(1.41182 0.0990727 0)
(1.40223 0.1089 0)
(1.39172 0.120006 0)
(1.38018 0.132616 0)
(1.36752 0.147001 0)
(1.35363 0.163495 0)
(1.3384 0.182513 0)
(1.32173 0.204569 0)
(1.30352 0.230315 0)
(1.28366 0.260578 0)
(1.26211 0.296429 0)
(1.23886 0.339283 0)
(1.21405 0.391026 0)
(1.18775 0.454364 0)
(1.16142 0.532949 0)
(1.13327 0.633336 0)
(1.12021 0.762175 0)
(1.0845 0.944742 0)
(1.24282 1.16885 0)
(1.13466 1.65141 0)
(1.47761 -8.70966e-05 0)
(1.47764 -0.000257699 0)
(1.47771 -0.000423146 0)
(1.47783 -0.000582875 0)
(1.47798 -0.000736328 0)
(1.47817 -0.000883022 0)
(1.4784 -0.00102251 0)
(1.47866 -0.00115439 0)
(1.47896 -0.00127829 0)
(1.47929 -0.00139394 0)
(1.47966 -0.00150111 0)
(1.48005 -0.00159964 0)
(1.48048 -0.00168942 0)
(1.48093 -0.00177037 0)
(1.48141 -0.00184247 0)
(1.48192 -0.0019057 0)
(1.48244 -0.00196007 0)
(1.483 -0.00200561 0)
(1.48357 -0.00204237 0)
(1.48416 -0.0020704 0)
(1.48477 -0.00208972 0)
(1.4854 -0.0021004 0)
(1.48604 -0.00210245 0)
(1.4867 -0.00209588 0)
(1.48736 -0.0020807 0)
(1.48804 -0.00205687 0)
(1.48872 -0.00202433 0)
(1.48941 -0.00198301 0)
(1.49011 -0.00193279 0)
(1.4908 -0.0018735 0)
(1.49151 -0.00180498 0)
(1.49221 -0.00172697 0)
(1.49291 -0.00163913 0)
(1.4936 -0.00154117 0)
(1.49429 -0.00143284 0)
(1.49498 -0.00131362 0)
(1.49566 -0.00118321 0)
(1.49633 -0.00104092 0)
(1.49698 -0.000886425 0)
(1.49763 -0.000718896 0)
(1.49826 -0.000537852 0)
(1.49887 -0.000342488 0)
(1.49946 -0.000132005 0)
(1.50004 9.42811e-05 0)
(1.50059 0.000337502 0)
(1.50112 0.000598386 0)
(1.50162 0.000878058 0)
(1.5021 0.00117778 0)
(1.50255 0.00149826 0)
(1.50296 0.00184138 0)
(1.50334 0.00220786 0)
(1.50369 0.00259947 0)
(1.504 0.00301756 0)
(1.50427 0.00346438 0)
(1.50449 0.00394144 0)
(1.50468 0.00445084 0)
(1.50481 0.00499475 0)
(1.50489 0.00557548 0)
(1.50492 0.00619552 0)
(1.50489 0.00685759 0)
(1.5048 0.00756465 0)
(1.50465 0.0083199 0)
(1.50443 0.00912685 0)
(1.50414 0.00998931 0)
(1.50377 0.0109114 0)
(1.50332 0.0118978 0)
(1.50279 0.0129534 0)
(1.50216 0.0140838 0)
(1.50144 0.015295 0)
(1.5006 0.0165938 0)
(1.49966 0.0179874 0)
(1.4986 0.0194842 0)
(1.49741 0.0210931 0)
(1.49608 0.0228244 0)
(1.4946 0.0246892 0)
(1.49296 0.0267002 0)
(1.49115 0.0288715 0)
(1.48915 0.0312189 0)
(1.48695 0.0337602 0)
(1.48454 0.0365156 0)
(1.4819 0.039508 0)
(1.479 0.0427631 0)
(1.47583 0.0463106 0)
(1.47236 0.0501841 0)
(1.46857 0.0544224 0)
(1.46443 0.05907 0)
(1.45991 0.0641782 0)
(1.45499 0.0698066 0)
(1.44961 0.0760245 0)
(1.44376 0.0829129 0)
(1.43738 0.0905666 0)
(1.43044 0.0990975 0)
(1.42289 0.108638 0)
(1.41469 0.119344 0)
(1.40578 0.131405 0)
(1.39614 0.145045 0)
(1.38572 0.160536 0)
(1.37449 0.178207 0)
(1.36244 0.19846 0)
(1.3496 0.22179 0)
(1.33604 0.248807 0)
(1.32187 0.280276 0)
(1.30738 0.317164 0)
(1.29298 0.360706 0)
(1.27953 0.4125 0)
(1.26801 0.474688 0)
(1.26192 0.550018 0)
(1.26177 0.64257 0)
(1.28641 0.755718 0)
(1.31691 0.898272 0)
(1.43856 1.04559 0)
(1.56391 1.32998 0)
(1.47761 -0.000109152 0)
(1.47764 -0.000323546 0)
(1.47772 -0.000532721 0)
(1.47784 -0.000735781 0)
(1.478 -0.000931964 0)
(1.47819 -0.00112063 0)
(1.47843 -0.00130117 0)
(1.4787 -0.00147304 0)
(1.47901 -0.00163576 0)
(1.47935 -0.00178891 0)
(1.47973 -0.00193218 0)
(1.48013 -0.00206532 0)
(1.48057 -0.00218814 0)
(1.48104 -0.00230051 0)
(1.48153 -0.00240236 0)
(1.48205 -0.00249362 0)
(1.4826 -0.00257429 0)
(1.48317 -0.00264438 0)
(1.48376 -0.00270391 0)
(1.48437 -0.00275292 0)
(1.48499 -0.00279145 0)
(1.48564 -0.00281954 0)
(1.4863 -0.0028372 0)
(1.48697 -0.00284447 0)
(1.48765 -0.00284132 0)
(1.48834 -0.00282774 0)
(1.48905 -0.00280367 0)
(1.48976 -0.00276902 0)
(1.49047 -0.00272367 0)
(1.49119 -0.00266747 0)
(1.49191 -0.00260024 0)
(1.49263 -0.00252173 0)
(1.49335 -0.0024316 0)
(1.49407 -0.0023295 0)
(1.49478 -0.00221518 0)
(1.49548 -0.00208817 0)
(1.49618 -0.00194807 0)
(1.49687 -0.00179431 0)
(1.49755 -0.00162634 0)
(1.49822 -0.00144358 0)
(1.49887 -0.00124527 0)
(1.4995 -0.00103079 0)
(1.50012 -0.00079924 0)
(1.50072 -0.000549796 0)
(1.5013 -0.000281616 0)
(1.50185 6.4715e-06 0)
(1.50238 0.000315333 0)
(1.50288 0.00064618 0)
(1.50336 0.00100042 0)
(1.5038 0.00137882 0)
(1.50421 0.00178358 0)
(1.50459 0.00221527 0)
(1.50493 0.00267656 0)
(1.50523 0.0031688 0)
(1.50549 0.00369402 0)
(1.50571 0.00425443 0)
(1.50588 0.00485232 0)
(1.50601 0.00549013 0)
(1.50608 0.00617055 0)
(1.5061 0.00689652 0)
(1.50606 0.00767122 0)
(1.50596 0.00849813 0)
(1.5058 0.00938101 0)
(1.50557 0.010324 0)
(1.50527 0.0113317 0)
(1.50489 0.0124089 0)
(1.50443 0.0135612 0)
(1.50389 0.0147946 0)
(1.50326 0.0161155 0)
(1.50253 0.0175313 0)
(1.50169 0.0190501 0)
(1.50075 0.0206806 0)
(1.49968 0.0224327 0)
(1.49849 0.0243174 0)
(1.49717 0.0263469 0)
(1.4957 0.0285346 0)
(1.49408 0.0308959 0)
(1.4923 0.0334477 0)
(1.49033 0.0362092 0)
(1.48817 0.0392018 0)
(1.48581 0.0424499 0)
(1.48323 0.0459809 0)
(1.48041 0.0498261 0)
(1.47734 0.0540211 0)
(1.474 0.0586062 0)
(1.47036 0.0636281 0)
(1.4664 0.0691401 0)
(1.46212 0.0752036 0)
(1.45747 0.0818896 0)
(1.45244 0.0892806 0)
(1.447 0.0974725 0)
(1.44114 0.106577 0)
(1.43483 0.116726 0)
(1.42806 0.128073 0)
(1.42083 0.1408 0)
(1.41312 0.155122 0)
(1.40497 0.171297 0)
(1.39641 0.189628 0)
(1.38751 0.210481 0)
(1.37841 0.234293 0)
(1.3693 0.261592 0)
(1.36049 0.293011 0)
(1.35245 0.329313 0)
(1.34588 0.371409 0)
(1.34192 0.420385 0)
(1.34204 0.477439 0)
(1.34925 0.543938 0)
(1.3659 0.62072 0)
(1.40003 0.708324 0)
(1.45317 0.806475 0)
(1.53126 0.888992 0)
(1.68438 1.03077 0)
(1.47761 -0.000132015 0)
(1.47764 -0.000391844 0)
(1.47772 -0.000646334 0)
(1.47785 -0.000894291 0)
(1.47801 -0.00113472 0)
(1.47822 -0.0013668 0)
(1.47846 -0.00158978 0)
(1.47874 -0.00180293 0)
(1.47906 -0.00200564 0)
(1.47942 -0.0021974 0)
(1.4798 -0.00237776 0)
(1.48023 -0.00254642 0)
(1.48068 -0.0027031 0)
(1.48116 -0.00284762 0)
(1.48167 -0.00297986 0)
(1.48221 -0.00309974 0)
(1.48277 -0.00320723 0)
(1.48336 -0.00330232 0)
(1.48397 -0.00338503 0)
(1.4846 -0.00345539 0)
(1.48524 -0.00351345 0)
(1.48591 -0.00355925 0)
(1.48658 -0.00359282 0)
(1.48728 -0.00361417 0)
(1.48798 -0.00362332 0)
(1.48869 -0.00362023 0)
(1.48942 -0.00360486 0)
(1.49014 -0.00357713 0)
(1.49088 -0.00353691 0)
(1.49162 -0.00348405 0)
(1.49236 -0.00341835 0)
(1.4931 -0.00333961 0)
(1.49384 -0.00324747 0)
(1.49458 -0.00314155 0)
(1.49532 -0.00302155 0)
(1.49605 -0.00288708 0)
(1.49677 -0.00273765 0)
(1.49748 -0.00257276 0)
(1.49818 -0.0023918 0)
(1.49887 -0.00219417 0)
(1.49955 -0.00197918 0)
(1.50021 -0.00174604 0)
(1.50085 -0.00149401 0)
(1.50147 -0.00122216 0)
(1.50208 -0.000929542 0)
(1.50266 -0.000615245 0)
(1.50322 -0.000277997 0)
(1.50375 8.31964e-05 0)
(1.50425 0.000469613 0)
(1.50473 0.000882842 0)
(1.50517 0.00132376 0)
(1.50558 0.00179476 0)
(1.50596 0.00229725 0)
(1.5063 0.0028331 0)
(1.5066 0.00340446 0)
(1.50685 0.00401357 0)
(1.50707 0.00466284 0)
(1.50724 0.00535487 0)
(1.50736 0.00609251 0)
(1.50743 0.00687888 0)
(1.50744 0.00771733 0)
(1.5074 0.00861157 0)
(1.5073 0.00956562 0)
(1.50714 0.0105839 0)
(1.50691 0.0116712 0)
(1.50661 0.0128328 0)
(1.50624 0.0140745 0)
(1.50578 0.0154027 0)
(1.50525 0.0168244 0)
(1.50463 0.0183474 0)
(1.50391 0.0199802 0)
(1.50309 0.0217321 0)
(1.50217 0.0236137 0)
(1.50113 0.0256365 0)
(1.49998 0.0278135 0)
(1.4987 0.0301588 0)
(1.49728 0.0326886 0)
(1.49571 0.0354206 0)
(1.494 0.0383748 0)
(1.49212 0.0415737 0)
(1.49006 0.0450426 0)
(1.48781 0.0488098 0)
(1.48537 0.0529075 0)
(1.48272 0.0573721 0)
(1.47984 0.062245 0)
(1.47673 0.0675733 0)
(1.47337 0.0734107 0)
(1.46974 0.0798188 0)
(1.46585 0.086868 0)
(1.46167 0.0946395 0)
(1.4572 0.103227 0)
(1.45244 0.112738 0)
(1.4474 0.123298 0)
(1.44207 0.135053 0)
(1.43649 0.148172 0)
(1.4307 0.16285 0)
(1.42476 0.179318 0)
(1.41876 0.197842 0)
(1.41285 0.218734 0)
(1.40722 0.242354 0)
(1.40216 0.26912 0)
(1.39807 0.299505 0)
(1.39552 0.334043 0)
(1.39529 0.373304 0)
(1.39849 0.417878 0)
(1.40658 0.468232 0)
(1.42166 0.524699 0)
(1.44624 0.586906 0)
(1.48322 0.65341 0)
(1.53949 0.724605 0)
(1.60958 0.782339 0)
(1.72121 0.861655 0)
(1.47761 -0.000155807 0)
(1.47764 -0.000462966 0)
(1.47773 -0.000764617 0)
(1.47786 -0.00105927 0)
(1.47803 -0.00134568 0)
(1.47824 -0.00162283 0)
(1.4785 -0.00188979 0)
(1.47879 -0.00214567 0)
(1.47912 -0.00238972 0)
(1.47949 -0.00262128 0)
(1.4799 -0.00283985 0)
(1.48033 -0.003045 0)
(1.4808 -0.00323641 0)
(1.4813 -0.00341386 0)
(1.48183 -0.00357718 0)
(1.48239 -0.00372627 0)
(1.48297 -0.0038611 0)
(1.48358 -0.00398165 0)
(1.48421 -0.00408794 0)
(1.48486 -0.00418001 0)
(1.48552 -0.00425793 0)
(1.48621 -0.00432173 0)
(1.48691 -0.00437146 0)
(1.48762 -0.00440717 0)
(1.48834 -0.00442885 0)
(1.48908 -0.0044365 0)
(1.48983 -0.00443007 0)
(1.49058 -0.00440948 0)
(1.49134 -0.00437463 0)
(1.4921 -0.00432537 0)
(1.49286 -0.00426148 0)
(1.49363 -0.00418277 0)
(1.49439 -0.0040889 0)
(1.49515 -0.00397947 0)
(1.49591 -0.00385414 0)
(1.49667 -0.00371254 0)
(1.49741 -0.00355418 0)
(1.49815 -0.00337853 0)
(1.49888 -0.00318503 0)
(1.49959 -0.00297301 0)
(1.5003 -0.0027418 0)
(1.50098 -0.00249064 0)
(1.50165 -0.00221869 0)
(1.50231 -0.0019251 0)
(1.50294 -0.00160892 0)
(1.50355 -0.00126904 0)
(1.50414 -0.000904525 0)
(1.5047 -0.000513987 0)
(1.50524 -9.62656e-05 0)
(1.50574 0.000349946 0)
(1.50622 0.000826404 0)
(1.50667 0.00133471 0)
(1.50708 0.00187659 0)
(1.50746 0.0024541 0)
(1.5078 0.00306939 0)
(1.5081 0.00372475 0)
(1.50836 0.00442267 0)
(1.50858 0.00516589 0)
(1.50875 0.00595737 0)
(1.50887 0.00680037 0)
(1.50895 0.00769841 0)
(1.50897 0.00865535 0)
(1.50893 0.00967542 0)
(1.50884 0.0107632 0)
(1.50869 0.0119239 0)
(1.50847 0.0131628 0)
(1.50819 0.0144862 0)
(1.50783 0.0159007 0)
(1.5074 0.0174137 0)
(1.50689 0.0190333 0)
(1.5063 0.0207683 0)
(1.50562 0.0226286 0)
(1.50485 0.0246251 0)
(1.50397 0.0267699 0)
(1.503 0.0290762 0)
(1.50191 0.031559 0)
(1.50071 0.0342346 0)
(1.49938 0.0371215 0)
(1.49792 0.04024 0)
(1.49633 0.0436132 0)
(1.49459 0.0472666 0)
(1.4927 0.0512291 0)
(1.49065 0.055533 0)
(1.48843 0.0602148 0)
(1.48604 0.0653155 0)
(1.48347 0.0708819 0)
(1.48071 0.0769666 0)
(1.47777 0.0836294 0)
(1.47463 0.0909386 0)
(1.47132 0.0989716 0)
(1.46782 0.107817 0)
(1.46416 0.117576 0)
(1.46035 0.128363 0)
(1.45644 0.140311 0)
(1.45247 0.15357 0)
(1.44851 0.168313 0)
(1.44465 0.184734 0)
(1.44104 0.203056 0)
(1.43784 0.223528 0)
(1.43531 0.246428 0)
(1.43376 0.272058 0)
(1.43364 0.30074 0)
(1.43552 0.332802 0)
(1.44016 0.36854 0)
(1.44853 0.408185 0)
(1.46191 0.451795 0)
(1.48181 0.499154 0)
(1.5103 0.54969 0)
(1.54903 0.601468 0)
(1.60228 0.65447 0)
(1.66919 0.698956 0)
(1.75155 0.739519 0)
(1.47761 -0.000180667 0)
(1.47765 -0.00053733 0)
(1.47773 -0.000888263 0)
(1.47787 -0.00123166 0)
(1.47805 -0.00156603 0)
(1.47827 -0.00189012 0)
(1.47854 -0.0022028 0)
(1.47885 -0.00250303 0)
(1.47919 -0.00278988 0)
(1.47958 -0.00306259 0)
(1.48 -0.00332055 0)
(1.48045 -0.00356324 0)
(1.48094 -0.00379032 0)
(1.48146 -0.00400149 0)
(1.48201 -0.00419659 0)
(1.48259 -0.0043755 0)
(1.4832 -0.00453819 0)
(1.48382 -0.00468464 0)
(1.48447 -0.0048149 0)
(1.48515 -0.00492902 0)
(1.48584 -0.00502709 0)
(1.48654 -0.00510917 0)
(1.48727 -0.00517532 0)
(1.488 -0.00522561 0)
(1.48875 -0.00526005 0)
(1.48951 -0.00527866 0)
(1.49028 -0.00528139 0)
(1.49106 -0.00526819 0)
(1.49184 -0.00523895 0)
(1.49263 -0.00519353 0)
(1.49342 -0.00513172 0)
(1.49421 -0.0050533 0)
(1.495 -0.00495801 0)
(1.49579 -0.00484538 0)
(1.49657 -0.00471507 0)
(1.49735 -0.00456669 0)
(1.49812 -0.00439979 0)
(1.49889 -0.00421382 0)
(1.49964 -0.00400819 0)
(1.50039 -0.00378229 0)
(1.50112 -0.0035354 0)
(1.50183 -0.00326677 0)
(1.50253 -0.00297558 0)
(1.50322 -0.00266095 0)
(1.50388 -0.0023219 0)
(1.50452 -0.00195749 0)
(1.50514 -0.00156644 0)
(1.50574 -0.00114777 0)
(1.50631 -0.000700012 0)
(1.50685 -0.000221842 0)
(1.50736 0.000288439 0)
(1.50785 0.000832391 0)
(1.5083 0.0014119 0)
(1.50872 0.00202901 0)
(1.5091 0.00268589 0)
(1.50945 0.00338489 0)
(1.50976 0.00412859 0)
(1.51003 0.00491978 0)
(1.51025 0.00576153 0)
(1.51043 0.00665719 0)
(1.51057 0.00761041 0)
(1.51066 0.00862518 0)
(1.51069 0.00970587 0)
(1.51067 0.0108572 0)
(1.5106 0.0120846 0)
(1.51047 0.0133935 0)
(1.51028 0.0147905 0)
(1.51003 0.0162823 0)
(1.50971 0.0178765 0)
(1.50932 0.0195816 0)
(1.50886 0.0214066 0)
(1.50832 0.0233617 0)
(1.5077 0.0254581 0)
(1.507 0.027708 0)
(1.50621 0.0301251 0)
(1.50532 0.0327244 0)
(1.50434 0.0355227 0)
(1.50326 0.0385385 0)
(1.50207 0.0417924 0)
(1.50078 0.0453073 0)
(1.49936 0.0491088 0)
(1.49784 0.0532255 0)
(1.49618 0.0576893 0)
(1.49441 0.0625359 0)
(1.49251 0.0678054 0)
(1.49049 0.0735428 0)
(1.48834 0.0797987 0)
(1.48608 0.08663 0)
(1.48371 0.0941006 0)
(1.48124 0.102283 0)
(1.47869 0.111258 0)
(1.4761 0.121117 0)
(1.47349 0.131964 0)
(1.47093 0.143914 0)
(1.46847 0.157097 0)
(1.46621 0.171656 0)
(1.46427 0.18775 0)
(1.4628 0.205555 0)
(1.462 0.225258 0)
(1.46214 0.247058 0)
(1.46354 0.271154 0)
(1.46664 0.297739 0)
(1.47197 0.326976 0)
(1.48021 0.358965 0)
(1.49218 0.393704 0)
(1.5089 0.431017 0)
(1.53152 0.470436 0)
(1.56147 0.51122 0)
(1.59988 0.551656 0)
(1.64828 0.590309 0)
(1.70724 0.622581 0)
(1.77434 0.6455 0)
(1.47761 -0.000206754 0)
(1.47765 -0.000615405 0)
(1.47774 -0.00101805 0)
(1.47788 -0.00141254 0)
(1.47807 -0.0017971 0)
(1.47831 -0.00217024 0)
(1.47859 -0.0025306 0)
(1.47891 -0.00287695 0)
(1.47927 -0.00320823 0)
(1.47967 -0.00352353 0)
(1.48011 -0.00382214 0)
(1.48059 -0.00410351 0)
(1.4811 -0.0043672 0)
(1.48164 -0.00461293 0)
(1.48222 -0.00484051 0)
(1.48282 -0.00504983 0)
(1.48345 -0.00524087 0)
(1.4841 -0.00541365 0)
(1.48477 -0.00556823 0)
(1.48547 -0.00570472 0)
(1.48618 -0.0058232 0)
(1.48692 -0.00592379 0)
(1.48766 -0.00600659 0)
(1.48843 -0.00607166 0)
(1.4892 -0.00611907 0)
(1.48999 -0.00614884 0)
(1.49078 -0.00616095 0)
(1.49159 -0.00615536 0)
(1.49239 -0.00613196 0)
(1.49321 -0.00609062 0)
(1.49402 -0.00603115 0)
(1.49484 -0.00595332 0)
(1.49566 -0.00585687 0)
(1.49648 -0.00574139 0)
(1.49729 -0.00560645 0)
(1.4981 -0.00545167 0)
(1.4989 -0.0052766 0)
(1.49969 -0.00508073 0)
(1.50048 -0.00486346 0)
(1.50125 -0.00462416 0)
(1.50201 -0.00436213 0)
(1.50276 -0.00407663 0)
(1.50349 -0.00376684 0)
(1.5042 -0.00343189 0)
(1.5049 -0.00307084 0)
(1.50557 -0.00268261 0)
(1.50623 -0.00226624 0)
(1.50686 -0.00182034 0)
(1.50747 -0.00134381 0)
(1.50805 -0.000835012 0)
(1.5086 -0.000292528 0)
(1.50912 0.000285392 0)
(1.50962 0.000900631 0)
(1.51008 0.00155519 0)
(1.51051 0.00225125 0)
(1.5109 0.00299121 0)
(1.51126 0.00377768 0)
(1.51158 0.00461351 0)
(1.51187 0.00550184 0)
(1.51211 0.00644605 0)
(1.51231 0.00744988 0)
(1.51246 0.00851741 0)
(1.51257 0.00965309 0)
(1.51263 0.0108618 0)
(1.51264 0.0121489 0)
(1.51261 0.0135203 0)
(1.51251 0.0149824 0)
(1.51237 0.0165422 0)
(1.51216 0.0182074 0)
(1.5119 0.0199866 0)
(1.51157 0.0218891 0)
(1.51118 0.023925 0)
(1.51072 0.0261058 0)
(1.51019 0.0284438 0)
(1.50959 0.0309526 0)
(1.50892 0.0336475 0)
(1.50816 0.036545 0)
(1.50733 0.0396637 0)
(1.50642 0.0430238 0)
(1.50542 0.0466481 0)
(1.50435 0.0505615 0)
(1.50318 0.0547919 0)
(1.50193 0.0593703 0)
(1.50061 0.0643309 0)
(1.4992 0.0697121 0)
(1.49772 0.0755564 0)
(1.49618 0.0819114 0)
(1.49458 0.0888298 0)
(1.49295 0.0963705 0)
(1.49131 0.104599 0)
(1.48968 0.113588 0)
(1.4881 0.123418 0)
(1.48663 0.134178 0)
(1.48532 0.145967 0)
(1.48426 0.158891 0)
(1.48355 0.173065 0)
(1.48332 0.188614 0)
(1.48374 0.205667 0)
(1.485 0.224356 0)
(1.48738 0.244809 0)
(1.49118 0.267142 0)
(1.4968 0.291443 0)
(1.50472 0.317755 0)
(1.5155 0.346046 0)
(1.52981 0.376166 0)
(1.54842 0.407804 0)
(1.57215 0.440395 0)
(1.60187 0.473104 0)
(1.63829 0.504564 0)
(1.68184 0.533143 0)
(1.73271 0.556443 0)
(1.78975 0.572268 0)
(1.47761 -0.000234251 0)
(1.47765 -0.000697723 0)
(1.47775 -0.00115485 0)
(1.4779 -0.00160311 0)
(1.4781 -0.00204039 0)
(1.47835 -0.00246493 0)
(1.47864 -0.00287515 0)
(1.47898 -0.0032696 0)
(1.47936 -0.00364706 0)
(1.47978 -0.0040065 0)
(1.48025 -0.00434713 0)
(1.48074 -0.00466832 0)
(1.48128 -0.00496962 0)
(1.48185 -0.00525073 0)
(1.48244 -0.00551147 0)
(1.48307 -0.00575176 0)
(1.48372 -0.00597162 0)
(1.4844 -0.0061711 0)
(1.4851 -0.00635032 0)
(1.48583 -0.00650942 0)
(1.48657 -0.00664855 0)
(1.48733 -0.00676785 0)
(1.48811 -0.00686746 0)
(1.4889 -0.0069475 0)
(1.4897 -0.00700804 0)
(1.49051 -0.00704915 0)
(1.49133 -0.00707083 0)
(1.49217 -0.00707304 0)
(1.493 -0.00705571 0)
(1.49384 -0.0070187 0)
(1.49469 -0.00696183 0)
(1.49554 -0.00688486 0)
(1.49638 -0.00678754 0)
(1.49723 -0.00666953 0)
(1.49807 -0.00653033 0)
(1.49891 -0.00636952 0)
(1.49974 -0.00618671 0)
(1.50056 -0.00598136 0)
(1.50138 -0.0057529 0)
(1.50219 -0.00550071 0)
(1.50298 -0.00522409 0)
(1.50376 -0.00492231 0)
(1.50452 -0.00459459 0)
(1.50527 -0.00424003 0)
(1.506 -0.00385772 0)
(1.50671 -0.00344671 0)
(1.5074 -0.00300579 0)
(1.50807 -0.00253395 0)
(1.50871 -0.00202971 0)
(1.50933 -0.00149177 0)
(1.50993 -0.000918575 0)
(1.51049 -0.000308403 0)
(1.51103 0.000340584 0)
(1.51154 0.00103038 0)
(1.51202 0.00176317 0)
(1.51246 0.00254135 0)
(1.51287 0.00336755 0)
(1.51325 0.00424462 0)
(1.51359 0.00517571 0)
(1.51389 0.00616426 0)
(1.51416 0.00721401 0)
(1.51438 0.0083291 0)
(1.51457 0.00951403 0)
(1.51471 0.0107737 0)
(1.51481 0.0121136 0)
(1.51486 0.0135396 0)
(1.51487 0.0150582 0)
(1.51483 0.0166765 0)
(1.51475 0.0184023 0)
(1.51461 0.0202441 0)
(1.51442 0.0222112 0)
(1.51418 0.024314 0)
(1.51389 0.0265636 0)
(1.51354 0.0289724 0)
(1.51313 0.0315541 0)
(1.51267 0.0343235 0)
(1.51214 0.037297 0)
(1.51157 0.0404927 0)
(1.51093 0.0439306 0)
(1.51024 0.0476324 0)
(1.50949 0.0516226 0)
(1.50869 0.0559276 0)
(1.50785 0.060577 0)
(1.50696 0.0656032 0)
(1.50604 0.0710421 0)
(1.50509 0.0769333 0)
(1.50413 0.0833204 0)
(1.50319 0.0902515 0)
(1.50227 0.0977794 0)
(1.50141 0.105962 0)
(1.50065 0.114863 0)
(1.50003 0.124552 0)
(1.4996 0.135102 0)
(1.49945 0.146595 0)
(1.49965 0.159115 0)
(1.50032 0.17275 0)
(1.50159 0.187593 0)
(1.50363 0.203731 0)
(1.50663 0.22125 0)
(1.51084 0.240218 0)
(1.51654 0.260687 0)
(1.52408 0.282668 0)
(1.53386 0.306122 0)
(1.54634 0.330932 0)
(1.56204 0.35687 0)
(1.58151 0.383567 0)
(1.6053 0.410462 0)
(1.63394 0.436774 0)
(1.6678 0.461445 0)
(1.70701 0.483199 0)
(1.75135 0.500517 0)
(1.80012 0.511919 0)
(1.47761 -0.000263369 0)
(1.47765 -0.000784905 0)
(1.47776 -0.00129968 0)
(1.47792 -0.00180474 0)
(1.47813 -0.0022976 0)
(1.47839 -0.0027762 0)
(1.4787 -0.00323868 0)
(1.47906 -0.00368339 0)
(1.47946 -0.00410894 0)
(1.47991 -0.00451418 0)
(1.4804 -0.00489823 0)
(1.48092 -0.00526043 0)
(1.48148 -0.00560031 0)
(1.48207 -0.0059176 0)
(1.4827 -0.00621215 0)
(1.48335 -0.00648393 0)
(1.48404 -0.006733 0)
(1.48474 -0.0069595 0)
(1.48547 -0.0071636 0)
(1.48623 -0.00734551 0)
(1.487 -0.00750543 0)
(1.48779 -0.00764358 0)
(1.48859 -0.00776013 0)
(1.48941 -0.00785526 0)
(1.49024 -0.00792908 0)
(1.49109 -0.00798168 0)
(1.49194 -0.00801309 0)
(1.4928 -0.0080233 0)
(1.49367 -0.00801223 0)
(1.49454 -0.00797978 0)
(1.49541 -0.00792576 0)
(1.49629 -0.00784995 0)
(1.49717 -0.00775206 0)
(1.49805 -0.0076318 0)
(1.49892 -0.00748871 0)
(1.49979 -0.00732229 0)
(1.50065 -0.00713212 0)
(1.50151 -0.00691773 0)
(1.50236 -0.00667855 0)
(1.5032 -0.00641396 0)
(1.50402 -0.0061233 0)
(1.50484 -0.00580584 0)
(1.50564 -0.00546081 0)
(1.50642 -0.00508736 0)
(1.50719 -0.00468463 0)
(1.50794 -0.00425158 0)
(1.50866 -0.00378726 0)
(1.50937 -0.00329038 0)
(1.51005 -0.00275977 0)
(1.51071 -0.00219404 0)
(1.51135 -0.00159166 0)
(1.51196 -0.000950976 0)
(1.51254 -0.000270197 0)
(1.5131 0.000452644 0)
(1.51362 0.0012197 0)
(1.51412 0.00203334 0)
(1.51458 0.00289616 0)
(1.51502 0.00381102 0)
(1.51542 0.00478103 0)
(1.51578 0.00580963 0)
(1.51612 0.00690056 0)
(1.51641 0.00805794 0)
(1.51668 0.00928629 0)
(1.5169 0.0105905 0)
(1.51709 0.0119761 0)
(1.51724 0.0134489 0)
(1.51735 0.0150153 0)
(1.51742 0.0166826 0)
(1.51746 0.0184583 0)
(1.51745 0.0203511 0)
(1.5174 0.0223702 0)
(1.51731 0.0245257 0)
(1.51718 0.0268287 0)
(1.51701 0.0292914 0)
(1.5168 0.0319271 0)
(1.51655 0.0347503 0)
(1.51626 0.037777 0)
(1.51594 0.0410248 0)
(1.51558 0.0445126 0)
(1.51518 0.0482616 0)
(1.51477 0.0522947 0)
(1.51433 0.0566371 0)
(1.51387 0.0613164 0)
(1.51341 0.0663628 0)
(1.51296 0.0718094 0)
(1.51253 0.0776923 0)
(1.51214 0.0840508 0)
(1.51181 0.0909279 0)
(1.51157 0.0983699 0)
(1.51145 0.106427 0)
(1.5115 0.115153 0)
(1.51176 0.124606 0)
(1.51229 0.134846 0)
(1.51318 0.145936 0)
(1.51451 0.157942 0)
(1.51639 0.170927 0)
(1.51895 0.184953 0)
(1.52235 0.200075 0)
(1.52677 0.216339 0)
(1.53244 0.233771 0)
(1.5396 0.252369 0)
(1.54855 0.272097 0)
(1.55962 0.292861 0)
(1.57316 0.314498 0)
(1.58957 0.336751 0)
(1.60923 0.359249 0)
(1.6325 0.381479 0)
(1.65968 0.402774 0)
(1.69094 0.422305 0)
(1.72624 0.439105 0)
(1.76526 0.452088 0)
(1.8073 0.460194 0)
(1.47761 -0.000294354 0)
(1.47766 -0.000877672 0)
(1.47777 -0.00145373 0)
(1.47794 -0.00201905 0)
(1.47817 -0.00257072 0)
(1.47845 -0.00310633 0)
(1.47877 -0.00362374 0)
(1.47915 -0.00412108 0)
(1.47958 -0.00459676 0)
(1.48005 -0.00504953 0)
(1.48056 -0.00547845 0)
(1.48112 -0.00588284 0)
(1.48171 -0.00626227 0)
(1.48233 -0.00661649 0)
(1.48298 -0.00694542 0)
(1.48367 -0.00724911 0)
(1.48438 -0.00752771 0)
(1.48512 -0.00778145 0)
(1.48588 -0.00801058 0)
(1.48667 -0.0082154 0)
(1.48747 -0.0083962 0)
(1.48829 -0.00855326 0)
(1.48913 -0.00868682 0)
(1.48998 -0.00879711 0)
(1.49084 -0.00888429 0)
(1.49172 -0.00894848 0)
(1.4926 -0.00898976 0)
(1.49349 -0.00900812 0)
(1.49439 -0.00900352 0)
(1.49529 -0.00897585 0)
(1.4962 -0.00892493 0)
(1.49711 -0.00885054 0)
(1.49802 -0.0087524 0)
(1.49893 -0.0086302 0)
(1.49984 -0.00848356 0)
(1.50074 -0.00831194 0)
(1.50164 -0.00811485 0)
(1.50253 -0.00789183 0)
(1.50342 -0.00764238 0)
(1.50429 -0.00736589 0)
(1.50515 -0.00706171 0)
(1.506 -0.00672914 0)
(1.50684 -0.00636744 0)
(1.50766 -0.00597581 0)
(1.50846 -0.00555336 0)
(1.50925 -0.00509922 0)
(1.51002 -0.00461229 0)
(1.51076 -0.00409152 0)
(1.51149 -0.00353571 0)
(1.51219 -0.0029435 0)
(1.51287 -0.00231344 0)
(1.51353 -0.00164395 0)
(1.51415 -0.000933312 0)
(1.51476 -0.000179604 0)
(1.51533 0.000619273 0)
(1.51588 0.00146563 0)
(1.5164 0.00236201 0)
(1.51689 0.00331121 0)
(1.51735 0.00431631 0)
(1.51779 0.00538069 0)
(1.51819 0.00650805 0)
(1.51856 0.00770247 0)
(1.5189 0.0089684 0)
(1.51921 0.0103107 0)
(1.51949 0.0117348 0)
(1.51973 0.0132465 0)
(1.51995 0.0148522 0)
(1.52013 0.0165589 0)
(1.52028 0.0183743 0)
(1.52041 0.0203066 0)
(1.5205 0.022365 0)
(1.52056 0.0245594 0)
(1.5206 0.0269006 0)
(1.52061 0.0294005 0)
(1.52059 0.0320719 0)
(1.52055 0.034929 0)
(1.52049 0.037987 0)
(1.52041 0.0412625 0)
(1.52033 0.0447739 0)
(1.52023 0.048541 0)
(1.52013 0.0525852 0)
(1.52004 0.0569301 0)
(1.51997 0.0616012 0)
(1.51993 0.0666261 0)
(1.51993 0.0720348 0)
(1.51999 0.0778597 0)
(1.52014 0.0841357 0)
(1.52039 0.0909001 0)
(1.52078 0.0981931 0)
(1.52135 0.106057 0)
(1.52214 0.114536 0)
(1.5232 0.123677 0)
(1.5246 0.133528 0)
(1.52641 0.144135 0)
(1.52872 0.155547 0)
(1.53165 0.167805 0)
(1.5353 0.180948 0)
(1.53983 0.195003 0)
(1.5454 0.209985 0)
(1.55221 0.225886 0)
(1.56047 0.242674 0)
(1.57042 0.260275 0)
(1.58232 0.278569 0)
(1.59645 0.297374 0)
(1.61309 0.316432 0)
(1.63251 0.335394 0)
(1.65493 0.353812 0)
(1.68051 0.371132 0)
(1.70929 0.386698 0)
(1.74113 0.399776 0)
(1.77571 0.409598 0)
(1.81245 0.415439 0)
(1.47761 -0.000327495 0)
(1.47766 -0.00097688 0)
(1.47778 -0.00161838 0)
(1.47796 -0.00224791 0)
(1.47821 -0.00286205 0)
(1.4785 -0.00345799 0)
(1.47886 -0.00403328 0)
(1.47926 -0.00458579 0)
(1.47971 -0.00511376 0)
(1.48021 -0.00561587 0)
(1.48076 -0.00609112 0)
(1.48134 -0.00653887 0)
(1.48196 -0.00695873 0)
(1.48262 -0.00735053 0)
(1.48331 -0.0077143 0)
(1.48402 -0.00805022 0)
(1.48477 -0.00835854 0)
(1.48554 -0.00863961 0)
(1.48634 -0.00889381 0)
(1.48716 -0.00912155 0)
(1.48799 -0.0093232 0)
(1.48885 -0.00949914 0)
(1.48971 -0.00964969 0)
(1.4906 -0.00977515 0)
(1.4915 -0.00987572 0)
(1.4924 -0.00995158 0)
(1.49332 -0.0100028 0)
(1.49425 -0.0100295 0)
(1.49518 -0.0100315 0)
(1.49612 -0.0100089 0)
(1.49706 -0.00996128 0)
(1.498 -0.0098886 0)
(1.49895 -0.00979052 0)
(1.49989 -0.00966672 0)
(1.50083 -0.00951682 0)
(1.50177 -0.00934036 0)
(1.50271 -0.00913681 0)
(1.50363 -0.00890563 0)
(1.50455 -0.00864635 0)
(1.50547 -0.00835843 0)
(1.50636 -0.00804125 0)
(1.50725 -0.00769413 0)
(1.50813 -0.00731637 0)
(1.50899 -0.0069072 0)
(1.50983 -0.00646579 0)
(1.51066 -0.00599127 0)
(1.51146 -0.0054827 0)
(1.51225 -0.00493904 0)
(1.51302 -0.00435912 0)
(1.51377 -0.00374171 0)
(1.51449 -0.00308543 0)
(1.51519 -0.00238881 0)
(1.51587 -0.00165018 0)
(1.51652 -0.00086773 0)
(1.51715 -3.94283e-05 0)
(1.51775 0.000836946 0)
(1.51832 0.00176385 0)
(1.51887 0.002744 0)
(1.5194 0.00378039 0)
(1.5199 0.00487631 0)
(1.52037 0.00603539 0)
(1.52081 0.00726161 0)
(1.52123 0.00855935 0)
(1.52162 0.00993338 0)
(1.52199 0.011389 0)
(1.52233 0.0129318 0)
(1.52265 0.0145682 0)
(1.52295 0.016305 0)
(1.52322 0.0181496 0)
(1.52347 0.0201102 0)
(1.52371 0.0221956 0)
(1.52392 0.0244154 0)
(1.52412 0.0267802 0)
(1.52431 0.0293011 0)
(1.52448 0.0319907 0)
(1.52465 0.0348623 0)
(1.52481 0.0379305 0)
(1.52498 0.0412111 0)
(1.52516 0.0447211 0)
(1.52535 0.048479 0)
(1.52556 0.0525049 0)
(1.52581 0.0568202 0)
(1.52611 0.0614482 0)
(1.52646 0.0664138 0)
(1.52689 0.0717438 0)
(1.52742 0.0774668 0)
(1.52807 0.0836131 0)
(1.52886 0.0902147 0)
(1.52984 0.0973053 0)
(1.53104 0.10492 0)
(1.5325 0.113094 0)
(1.53428 0.121865 0)
(1.53645 0.131267 0)
(1.53907 0.141334 0)
(1.54224 0.152099 0)
(1.54604 0.163585 0)
(1.55061 0.175812 0)
(1.55605 0.188787 0)
(1.56253 0.202499 0)
(1.57021 0.21692 0)
(1.57926 0.231994 0)
(1.58988 0.24763 0)
(1.60228 0.263694 0)
(1.61666 0.280003 0)
(1.63322 0.296312 0)
(1.65214 0.312308 0)
(1.67355 0.327608 0)
(1.69751 0.34176 0)
(1.72399 0.354249 0)
(1.75284 0.364525 0)
(1.78373 0.372041 0)
(1.8162 0.376298 0)
(1.47761 -0.00036314 0)
(1.47767 -0.00108355 0)
(1.47779 -0.00179531 0)
(1.47799 -0.00249356 0)
(1.47825 -0.00317433 0)
(1.47857 -0.00383431 0)
(1.47895 -0.0044707 0)
(1.47938 -0.00508113 0)
(1.47987 -0.00566369 0)
(1.4804 -0.00621697 0)
(1.48097 -0.00673999 0)
(1.48159 -0.00723217 0)
(1.48225 -0.00769322 0)
(1.48294 -0.00812312 0)
(1.48367 -0.00852204 0)
(1.48442 -0.00889032 0)
(1.4852 -0.00922839 0)
(1.48601 -0.00953675 0)
(1.48684 -0.00981591 0)
(1.4877 -0.0100664 0)
(1.48857 -0.0102888 0)
(1.48946 -0.0104835 0)
(1.49036 -0.0106509 0)
(1.49128 -0.0107915 0)
(1.49221 -0.0109054 0)
(1.49316 -0.010993 0)
(1.49411 -0.0110543 0)
(1.49507 -0.0110893 0)
(1.49604 -0.0110982 0)
(1.49701 -0.0110807 0)
(1.49799 -0.0110367 0)
(1.49897 -0.010966 0)
(1.49995 -0.0108683 0)
(1.50093 -0.0107433 0)
(1.50191 -0.0105905 0)
(1.50288 -0.0104095 0)
(1.50386 -0.0101999 0)
(1.50482 -0.009961 0)
(1.50578 -0.00969239 0)
(1.50673 -0.00939351 0)
(1.50767 -0.0090638 0)
(1.50859 -0.00870264 0)
(1.50951 -0.00830935 0)
(1.51041 -0.00788323 0)
(1.51129 -0.00742351 0)
(1.51216 -0.00692937 0)
(1.51301 -0.00639994 0)
(1.51384 -0.00583425 0)
(1.51465 -0.00523125 0)
(1.51544 -0.00458982 0)
(1.51621 -0.00390869 0)