/*--------------------------------*- C++ -*----------------------------------*\
| =========                 |                                                 |
| \\      /  F ield         | OpenFOAM: The Open Source CFD Toolbox           |
|  \\    /   O peration     | Version:  2206                                  |
|   \\  /    A nd           | Website:  www.openfoam.com                      |
|    \\/     M anipulation  |                                                 |
\*---------------------------------------------------------------------------*/
FoamFile
{
    version     2.0;
    format      ascii;
    arch        "LSB;label=32;scalar=64";
    class       volVectorField;
    location    "18.6999";
    object      ddtCorrDdt0(U);
}
// * * * * * * * * * * * * * * * * * * * * * * * * * * * * * * * * * * * * * //

dimensions      [0 1 -2 0 0 0 0];

internalField   nonuniform List<vector> 
3088
(
(1.61663 -5.29374 0)
(17.1107 -22.5459 0)
(12.5148 -31.8451 0)
(16.8608 -36.6455 0)
(19.6837 -35.6052 0)
(20.0076 -32.3111 0)
(19.0982 -28.7476 0)
(17.5295 -25.0516 0)
(15.699 -21.9421 0)
(13.874 -19.2394 0)
(12.2769 -16.9607 0)
(10.8384 -14.9617 0)
(9.61405 -13.2868 0)
(8.57213 -11.8546 0)
(7.59369 -10.6496 0)
(6.49724 -9.57643 0)
(4.68212 -8.49933 0)
(1.31583 -7.12357 0)
(-5.30964 -5.15391 0)
(-13.4475 -1.51002 0)
(20.1204 4.49615 0)
(51.5566 -6.09041 0)
(82.9311 -16.3695 0)
(114.165 -20.1779 0)
(145.404 -23.8467 0)
(166.504 -26.288 0)
(184.548 -21.7662 0)
(201.823 -13.9594 0)
(218.326 -6.46872 0)
(233.462 -1.09002 0)
(246.326 2.08987 0)
(254.129 1.90903 0)
(251.782 -2.72068 0)
(233.217 -15.0226 0)
(195.94 -37.406 0)
(151.094 -71.9019 0)
(99.268 -100.645 0)
(49.5271 -124.295 0)
(12.5428 -147.498 0)
(-17.3429 -161.165 0)
(-31.3644 -161.497 0)
(-28.2891 -153.789 0)
(-18.7107 -143.384 0)
(-5.50485 -133.066 0)
(9.02182 -123.585 0)
(22.3928 -114.94 0)
(31.6644 -106.06 0)
(34.7215 -93.1031 0)
(27.5912 -73.9357 0)
(5.75992 -43.8379 0)
(-29.1531 13.5259 0)
(-81.2427 90.1592 0)
(-136.909 180.259 0)
(-185.777 273.52 0)
(-223.801 349.665 0)
(-238.965 388.481 0)
(-221.416 375.955 0)
(-185.657 331.993 0)
(-141.421 271.341 0)
(-95.9484 206.311 0)
(-54.53 145.196 0)
(-20.6385 92.5275 0)
(5.81746 51.8162 0)
(31.4012 18.1147 0)
(46.1701 -9.27292 0)
(55.1273 -23.9236 0)
(58.8482 -31.2025 0)
(58.4619 -33.7847 0)
(56.716 -33.6448 0)
(54.7237 -32.0327 0)
(52.9001 -29.6755 0)
(51.4974 -27.0554 0)
(50.706 -24.3939 0)
(50.6221 -21.6971 0)
(51.2481 -18.8351 0)
(52.373 -15.8203 0)
(53.9454 -13.0717 0)
(55.7762 -10.8187 0)
(58.0797 -8.63627 0)
(61.6599 -5.31652 0)
(67.3409 0.291144 0)
(74.8348 7.47591 0)
(82.1552 12.4018 0)
(85.3247 9.38409 0)
(82.8978 -4.58821 0)
(75.431 -29.7508 0)
(61.629 -62.4048 0)
(45.6379 -96.0325 0)
(29.2651 -124.184 0)
(13.6828 -143.164 0)
(-0.54633 -151.952 0)
(-13.1258 -150.804 0)
(-24.3305 -144.196 0)
(-34.0769 -133.33 0)
(-41.9877 -119.422 0)
(-47.9164 -103.661 0)
(-51.8867 -87.1554 0)
(-54.0382 -70.8548 0)
(-54.595 -55.5127 0)
(-53.8177 -41.6976 0)
(-51.9637 -29.8399 0)
(-49.3012 -20.3101 0)
(-46.092 -13.3421 0)
(-42.6549 -9.03138 0)
(-39.262 -7.23741 0)
(-36.1322 -7.62042 0)
(-33.4847 -9.70514 0)
(-31.5204 -12.747 0)
(-30.2779 -15.5138 0)
(-29.5595 -16.7292 0)
(-29.2282 -15.7255 0)
(-29.5373 -12.1513 0)
(-30.3326 -5.31843 0)
(-31.3462 5.69566 0)
(-32.0269 21.0705 0)
(-32.0381 39.5318 0)
(-31.6363 60.0016 0)
(-30.9714 81.5219 0)
(-29.9717 103.064 0)
(-28.5949 123.608 0)
(-26.8207 142.087 0)
(-24.6417 157.264 0)
(-21.8998 167.267 0)
(-17.9928 168.796 0)
(-13.389 163.94 0)
(-8.34597 153.81 0)
(-2.9294 139.121 0)
(2.74712 120.767 0)
(8.55941 99.8068 0)
(14.2669 77.3831 0)
(19.2855 54.5655 0)
(24.6138 32.3002 0)
(33.2074 8.97584 0)
(40.6216 -13.4644 0)
(48.1283 -30.2924 0)
(54.0286 -41.212 0)
(58.0787 -45.6757 0)
(59.9793 -44.1556 0)
(60.2848 -39.0361 0)
(59.5945 -32.7502 0)
(58.0494 -26.7402 0)
(55.9836 -22.0963 0)
(53.713 -19.5196 0)
(32.2191 -18.2788 0)
(54.766 -23.6384 0)
(69.5226 -31.9589 0)
(76.7512 -41.1184 0)
(84.9457 -47.8706 0)
(95.5184 -47.9657 0)
(107.463 -44.1079 0)
(124.196 -41.63 0)
(142.611 -35.5972 0)
(162.896 -26.0468 0)
(184.648 -20.7015 0)
(206.994 -17.2611 0)
(229.08 -13.4248 0)
(248.465 -9.42856 0)
(260.322 -7.60152 0)
(249.482 -14.4738 0)
(211.04 -33.9847 0)
(153.563 -66.678 0)
(90.9737 -100.471 0)
(35.1383 -125.334 0)
(-3.96622 -146.337 0)
(-28.0387 -151.338 0)
(-33.7665 -146.155 0)
(-31.6675 -137.904 0)
(-27.1168 -128.522 0)
(-24.1114 -116.462 0)
(-27.0253 -101.253 0)
(-38.5645 -81.8996 0)
(-58.9737 -51.1697 0)
(-90.3814 -4.36947 0)
(-130.136 59.6972 0)
(-175.573 137.561 0)
(-219.791 226.035 0)
(-256.216 309.465 0)
(-273.651 366.514 0)
(-253.443 370.693 0)
(-210.063 337.947 0)
(-156.089 283.788 0)
(-101.765 221.372 0)
(-53.2574 160.565 0)
(-14.1354 107.268 0)
(17.3655 64.7153 0)
(44.6301 27.7384 0)
(60.2615 -1.48139 0)
(68.5561 -17.9594 0)
(70.4768 -26.4692 0)
(68.4687 -30.1914 0)
(65.4299 -31.3028 0)
(62.0717 -30.8799 0)
(58.9574 -29.5466 0)
(56.4267 -27.702 0)
(54.6377 -25.6988 0)
(53.6189 -23.7657 0)
(53.3504 -21.8238 0)
(53.7586 -19.6377 0)
(54.8377 -17.2134 0)
(56.513 -14.8382 0)
(58.4554 -12.8245 0)
(60.5341 -11.2102 0)
(63.1835 -9.28962 0)
(67.358 -5.70594 0)
(73.6423 0.238185 0)
(81.0187 6.55494 0)
(86.4173 7.96902 0)
(85.3128 -0.299519 0)
(79.4939 -19.4396 0)
(67.0511 -47.766 0)
(50.2909 -79.4603 0)
(32.9989 -107.782 0)
(16.5823 -127.988 0)
(1.82724 -138.363 0)
(-10.8865 -138.954 0)
(-21.9633 -133.67 0)
(-31.7234 -124.414 0)
(-39.8408 -112.315 0)
(-46.151 -98.4391 0)
(-50.6558 -83.7653 0)
(-53.4502 -69.1412 0)
(-54.7126 -55.2548 0)
(-54.6694 -42.6428 0)
(-53.5635 -31.7328 0)
(-51.6431 -22.8782 0)
(-49.1716 -16.3073 0)
(-46.4353 -12.1123 0)
(-43.7042 -10.1764 0)
(-41.2219 -10.2021 0)
(-39.2119 -11.7323 0)
(-37.8427 -14.0631 0)
(-37.1476 -16.1425 0)
(-37.1773 -16.8749 0)
(-37.6497 -15.4167 0)
(-38.6043 -11.3454 0)
(-39.9002 -4.12158 0)
(-41.371 6.85275 0)
(-42.5308 21.6425 0)
(-43.0581 39.5293 0)
(-42.9228 59.5042 0)
(-42.0681 80.483 0)
(-40.5173 101.455 0)
(-38.2223 121.407 0)
(-35.1931 139.299 0)
(-31.4721 153.852 0)
(-26.8142 163.009 0)
(-20.7798 163.447 0)
(-14.2433 158.146 0)
(-7.32331 147.661 0)
(-0.143152 132.744 0)
(7.15154 114.308 0)
(14.3915 93.431 0)
(21.1397 71.1718 0)
(27.3629 48.4571 0)
(36.2731 25.1847 0)
(44.8417 -0.134485 0)
(53.3789 -21.1635 0)
(60.6478 -36.7006 0)
(65.9702 -45.866 0)
(69.1633 -48.2557 0)
(69.5987 -44.6527 0)
(68.8375 -38.277 0)
(66.9075 -31.0261 0)
(64.1815 -24.3816 0)
(61.0504 -19.4383 0)
(57.8546 -16.852 0)
(19.8471 -33.0776 0)
(29.0233 -37.0732 0)
(35.2528 -40.0669 0)
(38.3127 -43.2528 0)
(40.3292 -46.5125 0)
(40.4637 -50.4881 0)
(39.9581 -49.447 0)
(40.5453 -47.563 0)
(42.6344 -44.5521 0)
(47.4024 -42.0657 0)
(55.3538 -41.0495 0)
(65.6312 -41.1722 0)
(78.7923 -41.8012 0)
(96.7517 -42.2432 0)
(121.619 -40.6419 0)
(152.804 -34.9141 0)
(183.24 -25.4902 0)
(198.887 -19.2225 0)
(172.934 -26.5456 0)
(120.382 -51.6631 0)
(58.8887 -90.2531 0)
(-0.145983 -123.832 0)
(-41.1479 -137.42 0)
(-63.3392 -136.677 0)
(-76.5657 -126.784 0)
(-94.7653 -110.148 0)
(-107.766 -88.914 0)
(-128.523 -60.6487 0)
(-155.362 -21.5999 0)
(-187.129 30.4247 0)
(-222.601 96.557 0)
(-258.682 175.188 0)
(-291.209 258.093 0)
(-308.057 325.773 0)
(-286.06 347.18 0)
(-233.992 325.906 0)
(-168.654 280.496 0)
(-104.417 224.946 0)
(-48.9521 168.426 0)
(-4.6161 117.579 0)
(31.449 75.0733 0)
(59.3609 37.2706 0)
(74.7054 8.50736 0)
(81.9894 -8.64058 0)
(81.7991 -18.5424 0)
(78.4537 -23.8804 0)
(74.0004 -26.3889 0)
(69.3583 -27.2634 0)
(65.0555 -27.1422 0)
(61.3883 -26.402 0)
(58.5315 -25.3498 0)
(56.5944 -24.2368 0)
(55.5589 -23.1144 0)
(55.2591 -21.8394 0)
(55.5944 -20.3215 0)
(56.6703 -18.5901 0)
(58.3855 -16.6919 0)
(60.4618 -14.852 0)
(62.5715 -13.3707 0)
(64.7108 -12.1283 0)
(67.5548 -10.1393 0)
(72.1282 -6.0583 0)
(78.5878 0.0610296 0)
(85.0517 4.70321 0)
(86.7898 1.98753 0)
(82.2059 -10.8668 0)
(72.4135 -33.6967 0)
(55.7631 -62.2717 0)
(37.4844 -90.3705 0)
(19.9794 -111.938 0)
(4.37323 -124.295 0)
(-8.78334 -127.113 0)
(-19.839 -123.189 0)
(-29.5436 -115.441 0)
(-37.757 -104.988 0)
(-44.3148 -92.8346 0)
(-49.2147 -79.8569 0)
(-52.5309 -66.8085 0)
(-54.4061 -54.3101 0)
(-55.0318 -42.8637 0)
(-54.6284 -32.8981 0)
(-53.4154 -24.7184 0)
(-51.6544 -18.5608 0)
(-49.611 -14.5048 0)
(-47.5486 -12.4528 0)
(-45.7142 -12.1413 0)
(-44.3426 -13.1401 0)
(-43.5643 -14.782 0)
(-43.4997 -16.1423 0)
(-44.1784 -16.253 0)
(-45.3674 -14.34 0)
(-46.9478 -9.8996 0)
(-48.8203 -2.45792 0)
(-50.7429 8.40076 0)
(-52.32 22.6982 0)
(-53.2104 39.8774 0)
(-53.1758 58.9955 0)
(-52.1644 79.0859 0)
(-50.1084 99.1395 0)
(-46.9822 118.17 0)
(-42.847 135.189 0)
(-37.7715 148.857 0)
(-31.3679 156.629 0)
(-23.5595 156.323 0)
(-15.3005 150.531 0)
(-6.67466 139.754 0)
(2.16737 124.723 0)
(11.0442 106.371 0)
(19.6275 85.7133 0)
(27.4942 63.6226 0)
(36.3656 40.6007 0)
(47.3498 15.1867 0)
(56.9042 -9.24911 0)
(65.8392 -28.9489 0)
(72.7428 -42.7792 0)
(77.368 -49.6915 0)
(79.0389 -49.4155 0)
(78.2775 -43.9656 0)
(76.1912 -36.2508 0)
(72.9565 -28.0637 0)
(69.0244 -20.8742 0)
(64.8225 -15.7683 0)
(60.7127 -13.3267 0)
(19.5197 -37.1087 0)
(20.3289 -38.7773 0)
(20.6539 -41.1224 0)
(19.7822 -43.4216 0)
(17.9953 -46.2472 0)
(15.0195 -47.8294 0)
(11.3791 -46.4088 0)
(9.03875 -44.8548 0)
(7.59837 -43.0254 0)
(7.35494 -41.2635 0)
(8.07104 -40.6024 0)
(8.9347 -41.4889 0)
(9.51757 -43.8793 0)
(9.74463 -47.6041 0)
(9.83209 -52.0638 0)
(10.9626 -55.983 0)
(15.942 -56.6826 0)
(28.2623 -51.5189 0)
(48.1165 -41.7269 0)
(70.9132 -33.9619 0)
(83.2118 -41.5962 0)
(55.6412 -52.0838 0)
(4.30986 -73.5484 0)
(-52.9581 -95.1677 0)
(-106.318 -98.1398 0)
(-144.453 -87.5177 0)
(-177.736 -66.2396 0)
(-209.333 -34.3192 0)
(-240.792 8.52149 0)
(-272.403 63.6091 0)
(-302.613 131.44 0)
(-327.71 207.346 0)
(-337.467 275.872 0)
(-307.371 304.859 0)
(-246.809 291.286 0)
(-171.87 253.557 0)
(-99.6506 208.029 0)
(-36.9097 163.209 0)
(10.2274 121.001 0)
(47.495 81.6339 0)
(74.0561 46.2021 0)
(88.1562 19.9266 0)
(93.1561 3.12635 0)
(91.575 -7.72776 0)
(87.1161 -14.5753 0)
(81.5221 -18.717 0)
(75.8091 -21.0983 0)
(70.5463 -22.373 0)
(65.9976 -22.9433 0)
(62.277 -23.0478 0)
(59.476 -22.914 0)
(57.6469 -22.7363 0)
(56.6626 -22.4464 0)
(56.3449 -21.8731 0)
(56.767 -21.0616 0)
(57.8613 -19.9937 0)
(59.5619 -18.6183 0)
(61.7059 -17.0101 0)
(63.9513 -15.4663 0)
(65.9779 -14.2724 0)
(67.9705 -13.0992 0)
(70.8465 -10.7346 0)
(75.5725 -6.06445 0)
(81.7364 -0.1548 0)
(86.2271 1.96343 0)
(83.7478 -4.7301 0)
(75.9309 -21.0097 0)
(62.2227 -45.4282 0)
(43.0768 -71.9567 0)
(24.3459 -94.7216 0)
(7.568 -109.379 0)
(-6.55567 -114.951 0)
(-17.9115 -112.67 0)
(-27.5583 -106.452 0)
(-35.8117 -97.5421 0)
(-42.5367 -86.97 0)
(-47.7275 -75.5488 0)
(-51.4605 -63.9567 0)
(-53.8526 -52.7607 0)
(-55.0694 -42.4433 0)
(-55.2941 -33.3755 0)
(-54.7428 -25.8651 0)
(-53.6512 -20.1236 0)
(-52.271 -16.2226 0)
(-50.8559 -14.0771 0)
(-49.659 -13.4463 0)
(-48.9115 -13.9259 0)
(-48.694 -14.8781 0)
(-49.2396 -15.5097 0)
(-50.4913 -14.9878 0)
(-52.2828 -12.6221 0)
(-54.4587 -7.87517 0)
(-56.8412 -0.30757 0)
(-59.1627 10.3651 0)
(-61.0533 24.0915 0)
(-62.138 40.3834 0)
(-62.144 58.437 0)
(-60.9384 77.365 0)
(-58.4222 96.2139 0)
(-54.5949 114.061 0)
(-49.5753 129.944 0)
(-43.4331 142.457 0)
(-35.6199 148.662 0)
(-26.3839 147.571 0)
(-16.6206 141.273 0)
(-6.41269 130.225 0)
(4.04385 115.143 0)
(14.4618 96.9308 0)
(24.3434 76.4548 0)
(34.1724 54.3475 0)
(46.5579 30.0461 0)
(57.911 3.84916 0)
(68.8024 -18.8798 0)
(77.7802 -36.7724 0)
(84.1822 -48.2398 0)
(87.6977 -52.2976 0)
(87.3752 -49.0834 0)
(85.4099 -41.8957 0)
(81.9378 -32.8887 0)
(77.4265 -23.8454 0)
(72.358 -16.2391 0)
(67.1706 -11.1289 0)
(62.2363 -8.9986 0)
(17.6753 -36.5508 0)
(15.8542 -37.8874 0)
(13.7097 -39.4546 0)
(10.9164 -40.9103 0)
(7.81907 -42.5153 0)
(3.61115 -43.3324 0)
(-0.709511 -43.0516 0)
(-4.20712 -42.4309 0)
(-7.09277 -41.5795 0)
(-9.35582 -40.9119 0)
(-11.1006 -40.9516 0)
(-12.695 -41.8324 0)
(-14.5504 -43.4054 0)
(-16.9962 -45.4476 0)
(-20.2716 -47.5498 0)
(-24.4573 -49.1659 0)
(-29.3178 -50.0653 0)
(-33.8774 -51.1722 0)
(-35.9662 -54.4023 0)
(-35.6974 -58.9363 0)
(-37.0486 -57.2645 0)
(-39.6277 -48.5912 0)
(-46.8377 -41.6669 0)
(-70.3631 -39.4581 0)
(-109.321 -41.268 0)
(-156.682 -36.2894 0)
(-204.505 -21.9778 0)
(-248.458 3.59642 0)
(-285.507 40.7408 0)
(-313.691 89.2943 0)
(-329.684 146.011 0)
(-325.466 201.279 0)
(-284.089 232.627 0)
(-218.392 232.234 0)
(-139.867 208.528 0)
(-67.6247 180.346 0)
(-11.2809 149.791 0)
(20.8618 118.543 0)
(66.2637 84.7671 0)
(85.837 55.2745 0)
(96.9674 32.8419 0)
(99.8704 16.9409 0)
(97.4557 5.54054 0)
(92.4992 -2.67848 0)
(86.5376 -8.51575 0)
(80.4548 -12.6125 0)
(74.7639 -15.4644 0)
(69.7412 -17.4697 0)
(65.4973 -18.8923 0)
(62.0732 -19.8955 0)
(59.5554 -20.6892 0)
(57.9447 -21.4009 0)
(56.9906 -21.8393 0)
(56.8036 -21.977 0)
(57.321 -21.8354 0)
(58.4304 -21.3887 0)
(60.0742 -20.5468 0)
(62.1807 -19.2387 0)
(64.51 -17.6405 0)
(66.6528 -16.1545 0)
(68.3456 -15.0037 0)
(70.0163 -13.6284 0)
(72.7463 -10.6986 0)
(77.3611 -5.49051 0)
(82.6599 -0.414283 0)
(83.7537 -1.31575 0)
(78.0951 -11.2804 0)
(67.1286 -29.4841 0)
(50.2152 -53.412 0)
(30.0308 -76.1637 0)
(11.8036 -93.1316 0)
(-3.6904 -101.687 0)
(-15.9935 -102.115 0)
(-25.7693 -97.4257 0)
(-34.0551 -90.0177 0)
(-40.9035 -80.9111 0)
(-46.3104 -70.9203 0)
(-50.369 -60.6798 0)
(-53.1904 -50.7128 0)
(-54.9087 -41.4445 0)
(-55.6938 -33.2355 0)
(-55.7381 -26.3728 0)
(-55.2598 -21.0419 0)
(-54.4967 -17.3033 0)
(-53.6962 -15.0763 0)
(-53.1091 -14.1381 0)
(-52.9185 -14.1102 0)
(-53.2658 -14.4091 0)
(-54.3465 -14.3365 0)
(-56.0894 -13.1922 0)
(-58.3731 -10.3615 0)
(-61.0222 -5.33467 0)
(-63.8084 2.26806 0)
(-66.4304 12.6394 0)
(-68.5134 25.6824 0)
(-69.6724 40.9562 0)
(-69.6317 57.7823 0)
(-68.195 75.3346 0)
(-65.2675 92.7537 0)
(-60.9111 109.242 0)
(-55.3174 123.894 0)
(-48.4641 135.058 0)
(-39.5946 139.397 0)
(-29.3076 137.496 0)
(-18.1321 130.55 0)
(-6.28197 119.15 0)
(5.81323 103.998 0)
(17.6517 85.8535 0)
(29.1173 65.3912 0)
(42.3606 42.6902 0)
(56.2805 16.8019 0)
(69.1347 -7.86902 0)
(80.5258 -28.8253 0)
(89.1632 -44.2798 0)
(94.5469 -52.6165 0)
(95.8326 -53.0192 0)
(93.9717 -47.3144 0)
(90.4812 -38.414 0)
(85.6518 -28.2251 0)
(79.9962 -18.4702 0)
(73.9673 -10.62 0)
(67.9777 -5.66868 0)
(62.3917 -3.9786 0)
(16.7259 -33.6844 0)
(13.5582 -34.8909 0)
(10.2821 -36.1193 0)
(6.76171 -37.3358 0)
(3.03814 -38.5673 0)
(-1.1936 -39.257 0)
(-5.41411 -39.1917 0)
(-9.14968 -38.868 0)
(-12.5537 -38.4302 0)
(-15.6052 -38.1038 0)
(-18.4264 -38.1596 0)
(-21.3295 -38.7787 0)
(-24.6467 -39.9738 0)
(-28.624 -41.6205 0)
(-33.4277 -43.4627 0)
(-39.0745 -45.1376 0)
(-45.3583 -46.2523 0)
(-51.817 -46.5572 0)
(-58.3364 -46.2737 0)
(-66.4606 -46.5857 0)
(-76.9741 -45.8902 0)
(-88.0691 -41.8036 0)
(-98.3881 -34.7475 0)
(-109.14 -26.1463 0)
(-124.393 -14.5677 0)
(-144.901 -0.548418 0)
(-168.595 16.5335 0)
(-192.06 38.4077 0)
(-211.97 66.9707 0)
(-223.894 102.865 0)
(-218.464 140.915 0)
(-196.595 164.508 0)
(-149.848 169.831 0)
(-81.6129 166.346 0)
(-30.7035 149.658 0)
(-4.24079 130.633 0)
(40.7782 112.32 0)
(69.8951 85.6014 0)
(86.5614 62.4269 0)
(95.4197 45.2858 0)
(97.9819 31.3968 0)
(96.4532 19.7572 0)
(92.5959 10.4031 0)
(87.6518 3.07573 0)
(82.3425 -2.61013 0)
(77.1092 -7.00267 0)
(72.2434 -10.4151 0)
(67.9334 -13.1196 0)
(64.2595 -15.315 0)
(61.2726 -17.1303 0)
(59.0935 -18.7443 0)
(57.6271 -20.2037 0)
(56.7531 -21.3524 0)
(56.6391 -22.1865 0)
(57.2031 -22.6749 0)
(58.3363 -22.7608 0)
(59.9412 -22.3752 0)
(61.9342 -21.4393 0)
(64.2048 -19.9315 0)
(66.459 -18.1045 0)
(68.2324 -16.4549 0)
(69.382 -15.1357 0)
(70.6032 -13.349 0)
(73.0603 -9.73447 0)
(77.305 -4.29185 0)
(80.9189 -0.799108 0)
(78.3172 -4.66882 0)
(69.9983 -16.6653 0)
(56.589 -35.2902 0)
(37.6251 -57.0416 0)
(17.485 -75.1697 0)
(0.406918 -86.8744 0)
(-13.5089 -90.8794 0)
(-24.0554 -88.1536 0)
(-32.506 -82.3631 0)
(-39.4727 -74.7237 0)
(-45.0558 -66.0803 0)
(-49.3623 -57.0864 0)
(-52.5221 -48.2416 0)
(-54.6641 -39.9536 0)
(-55.9338 -32.5577 0)
(-56.5049 -26.31 0)
(-56.5811 -21.3715 0)
(-56.3867 -17.7888 0)
(-56.1599 -15.4856 0)
(-56.1315 -14.2608 0)
(-56.4319 -13.7489 0)
(-57.3051 -13.4285 0)
(-58.8329 -12.6891 0)
(-60.9776 -10.948 0)
(-63.6344 -7.67255 0)
(-66.6151 -2.41797 0)
(-69.6592 5.12728 0)
(-72.4388 15.0894 0)
(-74.5789 27.344 0)
(-75.7094 41.4952 0)
(-75.5402 56.9459 0)
(-73.8634 72.9784 0)
(-70.6371 88.9019 0)
(-66.0246 104.048 0)
(-60.2413 117.423 0)
(-52.9648 126.93 0)
(-43.3168 129.295 0)
(-32.1539 126.182 0)
(-19.4143 118.208 0)
(-5.66427 106.469 0)
(7.99298 91.2934 0)
(21.0376 72.813 0)
(35.3439 52.1331 0)
(51.6469 28.0884 0)
(66.6639 2.53479 0)
(80.8167 -20.3434 0)
(92.1255 -38.7544 0)
(99.6873 -50.7642 0)
(102.884 -55.0198 0)
(101.319 -51.6733 0)
(97.808 -43.8495 0)
(92.7568 -33.5157 0)
(86.7394 -22.413 0)
(80.2099 -12.167 0)
(73.5531 -4.22653 0)
(67.1354 0.426236 0)
(61.2713 1.49785 0)
(15.4877 -30.2042 0)
(12.0018 -31.4539 0)
(8.53094 -32.6248 0)
(4.97221 -33.6646 0)
(1.27605 -34.5359 0)
(-2.65904 -35.0575 0)
(-6.59999 -35.1864 0)
(-10.276 -35.1492 0)
(-13.7909 -34.9999 0)
(-17.1631 -34.8962 0)
(-20.4897 -35.0102 0)
(-23.957 -35.4361 0)
(-27.776 -36.1411 0)
(-32.1312 -37.0106 0)
(-37.1625 -37.874 0)
(-42.9351 -38.5148 0)
(-49.4287 -38.7414 0)
(-56.5621 -38.5069 0)
(-64.3407 -38.0681 0)
(-73.1933 -37.3301 0)
(-83.3565 -35.0529 0)
(-94.0734 -30.442 0)
(-104.502 -23.7643 0)
(-114.676 -14.7721 0)
(-124.855 -2.75247 0)
(-134.627 12.3756 0)
(-143.205 30.1571 0)
(-149.455 50.8527 0)
(-151.57 74.7847 0)
(-146.467 100.024 0)
(-127.192 120.4 0)
(-95.9146 130.158 0)
(-61.1773 126.433 0)
(-25.545 120.857 0)
(6.57826 115.189 0)
(37.0466 103.932 0)
(59.185 86.7737 0)
(73.7578 70.0017 0)
(82.5808 55.7762 0)
(87.2499 43.4411 0)
(88.4224 32.2053 0)
(87.4013 22.4284 0)
(84.8803 14.2292 0)
(81.4336 7.49102 0)
(77.5264 1.97681 0)
(73.4903 -2.55295 0)
(69.5804 -6.3046 0)
(66.0046 -9.48449 0)
(62.8646 -12.2567 0)
(60.24 -14.7259 0)
(58.3004 -17.0108 0)
(56.9002 -19.1192 0)
(56.0405 -20.9425 0)
(55.9028 -22.4459 0)
(56.4134 -23.5355 0)
(57.5026 -24.1269 0)
(59.0779 -24.1411 0)
(61.0016 -23.5014 0)
(63.15 -22.1571 0)
(65.3584 -20.1742 0)
(67.2528 -17.925 0)
(68.3971 -15.9985 0)
(68.8717 -14.389 0)
(69.6147 -12.0287 0)
(71.6954 -7.7469 0)
(75.3454 -2.63727 0)
(75.9906 -1.24976 0)
(70.8462 -7.45935 0)
(60.2271 -20.1778 0)
(45.2975 -37.8475 0)
(25.1271 -56.3851 0)
(6.511 -70.1569 0)
(-9.58766 -77.5788 0)
(-21.9709 -78.5033 0)
(-31.0889 -74.4555 0)
(-38.235 -68.3463 0)
(-43.9541 -61.042 0)
(-48.4783 -53.2117 0)
(-51.9265 -45.4061 0)
(-54.4199 -38.034 0)
(-56.1016 -31.4018 0)
(-57.1372 -25.7344 0)
(-57.7149 -21.167 0)
(-58.0423 -17.7344 0)
(-58.3406 -15.3684 0)
(-58.7922 -13.8792 0)
(-59.569 -12.9174 0)
(-60.8807 -12.0141 0)
(-62.766 -10.662 0)
(-65.2097 -8.37383 0)
(-68.1092 -4.70246 0)
(-71.2684 0.714413 0)
(-74.4089 8.11578 0)
(-77.1942 17.5791 0)
(-79.265 28.9716 0)
(-80.2734 41.931 0)
(-79.9324 55.9368 0)
(-78.0683 70.4164 0)
(-74.7457 84.8705 0)
(-70.2437 98.7268 0)
(-64.6353 110.803 0)
(-56.8514 118.166 0)
(-46.4177 118.785 0)
(-34.1416 113.702 0)
(-19.5983 103.843 0)
(-3.88409 91.6941 0)
(10.9982 76.735 0)
(25.9072 58.3443 0)
(43.9425 36.3997 0)
(61.7977 10.986 0)
(79.0208 -12.8165 0)
(93.3419 -33.078 0)
(103.331 -47.6818 0)
(108.314 -55.0062 0)
(107.328 -54.2891 0)
(103.452 -48.1671 0)
(97.8795 -38.6656 0)
(91.3528 -27.337 0)
(84.4678 -15.6707 0)
(77.6063 -5.28261 0)
(70.9609 2.43472 0)
(64.72 6.58889 0)
(59.0638 6.99549 0)
(14.1652 -26.6703 0)
(10.8807 -28.0068 0)
(7.59894 -29.1324 0)
(4.24201 -30.0703 0)
(0.780393 -30.8322 0)
(-2.79438 -31.3625 0)
(-6.40313 -31.6329 0)
(-9.92215 -31.7126 0)
(-13.361 -31.6676 0)
(-16.7877 -31.5606 0)
(-20.2756 -31.5222 0)
(-23.9525 -31.6342 0)
(-27.9641 -31.888 0)
(-32.4462 -32.2103 0)
(-37.4969 -32.4794 0)
(-43.1726 -32.5455 0)
(-49.4717 -32.257 0)
(-56.3421 -31.4918 0)
(-63.7727 -30.1689 0)
(-71.9134 -28.121 0)
(-80.8677 -24.8989 0)
(-90.2357 -20.0517 0)
(-99.462 -13.4954 0)
(-108.149 -5.09099 0)
(-115.748 5.51996 0)
(-121.386 18.3044 0)
(-124.193 32.9311 0)
(-123.561 49.3445 0)
(-117.918 66.5608 0)
(-104.67 81.7897 0)
(-84.795 93.3911 0)
(-60.3601 99.3337 0)
(-35.6116 98.3454 0)
(-12.1853 93.982 0)
(11.1327 89.4872 0)
(33.1507 82.0219 0)
(50.4842 71.6037 0)
(62.9715 60.5989 0)
(71.3521 49.8129 0)
(76.5455 39.875 0)
(79.4422 31.151 0)
(79.8248 23.2619 0)
(78.687 16.3461 0)
(76.5348 10.3918 0)
(73.7443 5.30526 0)
(70.643 0.920746 0)
(67.4787 -2.93762 0)
(64.459 -6.40127 0)
(61.6759 -9.58612 0)
(59.1901 -12.5284 0)
(57.2657 -15.2998 0)
(55.815 -17.9408 0)
(54.8201 -20.3714 0)
(54.5476 -22.5794 0)
(54.9242 -24.3375 0)
(55.9014 -25.4758 0)
(57.4133 -25.8799 0)
(59.3092 -25.489 0)
(61.4022 -24.2615 0)
(63.511 -22.1843 0)
(65.37 -19.4616 0)
(66.6399 -16.7547 0)
(66.9025 -14.5972 0)
(66.6586 -12.6316 0)
(67.0255 -9.60463 0)
(68.7356 -4.86417 0)
(71.0218 -0.717111 0)
(69.056 -1.69934 0)
(61.7943 -9.20308 0)
(49.5996 -21.2356 0)
(34.2331 -37.0964 0)
(14.7666 -52.2184 0)
(-3.53469 -62.094 0)
(-18.2652 -66.5588 0)
(-29.4228 -66.1286 0)
(-37.204 -61.8301 0)
(-43.0309 -55.8041 0)
(-47.7081 -49.1334 0)
(-51.4151 -42.3265 0)
(-54.2338 -35.7952 0)
(-56.2904 -29.8504 0)
(-57.7432 -24.7017 0)
(-58.771 -20.4668 0)
(-59.5719 -17.175 0)
(-60.3361 -14.7573 0)
(-61.224 -13.021 0)
(-62.451 -11.6492 0)
(-64.1105 -10.2317 0)
(-66.2565 -8.34668 0)
(-68.8809 -5.5861 0)
(-71.8871 -1.59329 0)
(-75.0777 3.90232 0)
(-78.1607 11.0703 0)
(-80.7934 19.9597 0)
(-82.6453 30.442 0)
(-83.4332 42.1759 0)
(-82.955 54.7364 0)
(-81.1751 67.7758 0)
(-78.3202 81.0441 0)
(-74.5182 93.8748 0)
(-68.8784 104.267 0)
(-59.391 108.225 0)
(-47.3749 106.509 0)
(-33.0784 99.2135 0)
(-15.5418 88.3558 0)
(-5.27999 75.5329 0)
(15.8746 61.2266 0)
(34.6593 41.0579 0)
(55.5262 16.1111 0)
(76.3544 -7.77517 0)
(93.7814 -28.7026 0)
(106.14 -44.5961 0)
(112.533 -53.6345 0)
(111.91 -54.8268 0)
(107.236 -50.3345 0)
(100.57 -42.2038 0)
(92.9613 -31.7395 0)
(85.3227 -20.1163 0)
(78.2603 -8.66211 0)
(71.8714 1.33948 0)
(66.0495 8.621 0)
(60.7218 12.2652 0)
(55.8947 12.0829 0)
(12.7544 -23.581 0)
(9.79197 -24.9032 0)
(6.78754 -25.9671 0)
(3.71621 -26.8123 0)
(0.559298 -27.4722 0)
(-2.69364 -27.9224 0)
(-6.00386 -28.16 0)
(-9.33757 -28.2225 0)
(-12.6709 -28.1629 0)
(-16.0598 -28.0135 0)
(-19.5703 -27.8382 0)
(-23.2974 -27.6981 0)
(-27.3423 -27.5958 0)
(-31.7881 -27.4566 0)
(-36.7072 -27.1834 0)
(-42.1352 -26.675 0)
(-48.0679 -25.805 0)
(-54.4819 -24.4628 0)
(-61.3744 -22.5692 0)
(-68.7651 -19.9886 0)
(-76.5783 -16.439 0)
(-84.5625 -11.6669 0)
(-92.3199 -5.56714 0)
(-99.4463 1.8938 0)
(-105.391 10.7629 0)
(-109.385 20.8976 0)
(-110.647 31.9906 0)
(-108.763 43.7288 0)
(-101.91 55.156 0)
(-90.1014 65.2401 0)
(-74.1042 73.382 0)
(-54.8525 78.4677 0)
(-34.1334 78.2032 0)
(-14.2877 73.2135 0)
(5.06847 69.0808 0)
(25.0724 64.2231 0)
(41.4512 57.3533 0)
(53.8162 49.819 0)
(62.9488 42.2955 0)
(69.135 35.2651 0)
(72.7518 28.8481 0)
(74.444 23.0293 0)
(74.2083 17.4915 0)
(73.034 12.4236 0)
(71.1145 7.84738 0)
(68.7201 3.69589 0)
(66.0916 -0.117384 0)
(63.4177 -3.65915 0)
(60.7872 -7.04692 0)
(58.2386 -10.3532 0)
(56.1098 -13.5539 0)
(54.4564 -16.7105 0)
(53.0543 -19.71 0)
(52.3095 -22.453 0)
(52.3907 -24.84 0)
(53.2755 -26.6726 0)
(54.7834 -27.6153 0)
(56.737 -27.5077 0)
(58.9113 -26.3395 0)
(61.0123 -24.1154 0)
(62.7864 -20.9821 0)
(64.1745 -17.5103 0)
(64.374 -14.3905 0)
(63.4747 -12.0937 0)
(62.5522 -9.84143 0)
(62.6338 -6.20962 0)
(63.9579 -1.46995 0)
(64.0889 1.11944 0)
(60.1117 -1.70431 0)
(51.9705 -9.83704 0)
(39.6489 -20.5496 0)
(24.6919 -33.1135 0)
(5.78337 -44.872 0)
(-10.9101 -52.0002 0)
(-25.3188 -55.5407 0)
(-35.3819 -54.8493 0)
(-42.2652 -50.5308 0)
(-47.2564 -44.7494 0)
(-51.1818 -38.8559 0)
(-54.2387 -33.1572 0)
(-56.594 -27.9009 0)
(-58.3971 -23.2733 0)
(-59.8224 -19.3684 0)
(-61.044 -16.2015 0)
(-62.2707 -13.7235 0)
(-63.6428 -11.7687 0)
(-65.2586 -10.0535 0)
(-67.1894 -8.2192 0)
(-69.4887 -5.88976 0)
(-72.1632 -2.72687 0)
(-75.1334 1.52721 0)
(-78.197 7.02743 0)
(-81.0319 13.8562 0)
(-83.2998 22.0637 0)
(-84.7876 31.6038 0)
(-85.4225 42.2477 0)
(-85.1833 53.694 0)
(-84.1581 65.7762 0)
(-82.4973 78.1748 0)
(-79.423 89.403 0)
(-72.0881 95.62 0)
(-60.3974 96.5253 0)
(-46.0079 92.2077 0)
(-28.7027 84.2391 0)
(-11.3765 73.0393 0)
(-0.8688 58.588 0)
(29.3265 41.2886 0)
(51.1207 17.0981 0)
(74.7866 -6.1213 0)
(95.0473 -26.6367 0)
(109.007 -42.4973 0)
(115.973 -51.7797 0)
(114.705 -53.431 0)
(108.851 -49.8815 0)
(100.566 -42.9917 0)
(91.2391 -33.8739 0)
(82.0915 -23.444 0)
(74.0866 -12.6258 0)
(67.629 -2.20379 0)
(62.5926 6.89591 0)
(58.556 13.5337 0)
(55.099 16.7007 0)
(51.9271 16.115 0)
(11.3147 -20.7973 0)
(8.65837 -22.0532 0)
(5.90596 -23.0523 0)
(3.05316 -23.8238 0)
(0.101419 -24.3933 0)
(-2.95721 -24.7696 0)
(-6.10823 -24.9636 0)
(-9.32056 -25.008 0)
(-12.5924 -24.9037 0)
(-15.9279 -24.6498 0)
(-19.3654 -24.2972 0)
(-23.0068 -23.8864 0)
(-26.9313 -23.4234 0)
(-31.1998 -22.8604 0)
(-35.8792 -22.1191 0)
(-40.9847 -21.1505 0)
(-46.4948 -19.8693 0)
(-52.3971 -18.1274 0)
(-58.6735 -15.8325 0)
(-65.287 -12.8856 0)
(-72.1385 -9.12574 0)
(-79.0225 -4.41007 0)
(-85.6641 1.28934 0)
(-91.7113 7.9278 0)
(-96.729 15.4162 0)
(-100.136 23.5477 0)
(-101.245 31.9347 0)
(-99.5871 40.0681 0)
(-94.0735 47.4191 0)
(-84.5715 53.3388 0)
(-71.5724 57.5102 0)
(-54.9292 59.7813 0)
(-35.2985 59.0938 0)
(-15.601 53.9618 0)
(1.24499 49.7499 0)
(20.4086 46.9064 0)
(36.7334 43.0003 0)
(48.9542 38.8436 0)
(58.3118 34.474 0)
(65.0751 30.1851 0)
(69.2423 25.9762 0)
(71.5397 21.8687 0)
(72.1045 17.6918 0)
(71.5022 13.5645 0)
(70.1101 9.66035 0)
(68.0599 5.94376 0)
(65.6063 2.36735 0)
(62.9934 -1.0329 0)
(60.2247 -4.3945 0)
(57.2589 -7.92031 0)
(54.5274 -11.4468 0)
(52.4292 -14.9558 0)
(50.4341 -18.4383 0)
(49.084 -22.0013 0)
(48.5999 -25.2962 0)
(49.0888 -27.8029 0)
(50.6034 -29.3136 0)
(52.8604 -29.609 0)
(55.4074 -28.5001 0)
(57.7706 -26.027 0)
(59.6778 -22.5102 0)
(61.0796 -18.3444 0)
(61.28 -14.0591 0)
(60.0846 -10.7495 0)
(57.8579 -8.59933 0)
(56.2088 -6.16657 0)
(55.9731 -2.11315 0)
(56.6343 2.15162 0)
(54.8791 2.82752 0)
(49.7815 -1.5477 0)
(41.1528 -9.40053 0)
(29.6066 -17.9681 0)
(16.2632 -27.3274 0)
(0.972047 -35.4917 0)
(-14.1159 -41.2098 0)
(-29.4447 -44.6737 0)
(-39.1746 -44.1741 0)
(-46.0705 -40.3216 0)
(-51.0774 -35.3887 0)
(-54.6443 -30.4055 0)
(-57.3025 -25.6967 0)
(-59.3817 -21.4677 0)
(-61.1168 -17.8056 0)
(-62.7327 -14.7095 0)
(-64.4037 -12.1489 0)
(-66.2008 -10.0234 0)
(-68.1241 -8.08707 0)
(-70.1893 -5.9839 0)
(-72.4512 -3.35971 0)
(-74.956 0.0627402 0)
(-77.6824 4.43744 0)
(-80.4616 9.79034 0)
(-82.9489 16.1542 0)
(-84.8355 23.7253 0)
(-86.1634 32.6542 0)
(-87.2718 42.6964 0)
(-88.3358 53.4508 0)
(-89.0742 64.9033 0)
(-88.3895 76.3251 0)
(-82.9834 83.6182 0)
(-71.9716 85.0866 0)
(-57.5175 81.9882 0)
(-40.8353 75.3309 0)
(-19.9373 66.8184 0)
(-3.85726 54.617 0)
(23.1599 37.8941 0)
(51.3592 13.3068 0)
(76.2846 -8.3876 0)
(97.6432 -27.1643 0)
(111.918 -41.6021 0)
(117.811 -49.5694 0)
(114.501 -50.3434 0)
(107.015 -46.8917 0)
(96.8123 -40.6941 0)
(85.5589 -32.7124 0)
(74.6414 -23.7646 0)
(65.1342 -14.5942 0)
(57.7326 -5.66935 0)
(52.6791 2.79685 0)
(49.7042 10.3689 0)
(48.1331 16.0333 0)
(47.7623 18.8734 0)
(47.2511 18.3362 0)
(10.045 -18.3749 0)
(7.67067 -19.503 0)
(5.16225 -20.3724 0)
(2.53188 -21.0187 0)
(-0.207482 -21.4759 0)
(-3.06457 -21.7488 0)
(-6.04653 -21.8437 0)
(-9.13464 -21.794 0)
(-12.3066 -21.6133 0)
(-15.5672 -21.2725 0)
(-18.9508 -20.7603 0)
(-22.5009 -20.1258 0)
(-26.2623 -19.3973 0)
(-30.2925 -18.4955 0)
(-34.6763 -17.3799 0)
(-39.4923 -16.0625 0)
(-44.6477 -14.3797 0)
(-50.0577 -12.3024 0)
(-55.7648 -9.69495 0)
(-61.7258 -6.5097 0)
(-67.831 -2.66566 0)
(-73.9259 1.91064 0)
(-79.801 7.19279 0)
(-85.1899 13.0589 0)
(-89.7758 19.317 0)
(-93.0882 25.6508 0)
(-94.4254 31.5745 0)
(-93.3238 36.6043 0)
(-89.849 40.6521 0)
(-82.2766 43.0578 0)
(-71.2161 43.4691 0)
(-55.9759 42.0181 0)
(-36.7387 39.3672 0)
(-15.059 35.5824 0)
(1.22474 31.54 0)
(18.6272 30.9879 0)
(35.6442 29.5705 0)
(48.127 28.0744 0)
(57.7865 26.2877 0)
(64.9353 24.4786 0)
(69.3352 22.4577 0)
(71.7418 20.1064 0)
(72.5181 17.3813 0)
(71.9075 14.3586 0)
(70.5513 11.2893 0)
(68.5003 8.17754 0)
(65.8214 4.91941 0)
(62.9843 1.78087 0)
(59.9692 -1.21254 0)
(56.1429 -4.70527 0)
(52.1093 -8.58274 0)
(49.0777 -12.5105 0)
(46.1355 -16.5186 0)
(43.6416 -20.7526 0)
(42.5075 -25.0695 0)
(42.8193 -28.8426 0)
(44.428 -31.4339 0)
(47.1171 -32.3265 0)
(50.3393 -31.2335 0)
(53.3441 -28.282 0)
(55.8511 -24.1067 0)
(57.1061 -18.9626 0)
(57.3447 -13.5474 0)
(56.1635 -8.82576 0)
(53.2591 -5.80573 0)
(49.7086 -4.11796 0)
(47.3804 -1.80642 0)
(46.7149 2.00822 0)
(46.7613 5.03567 0)
(44.1404 3.97661 0)
(38.4363 -1.0072 0)
(30.0471 -8.13814 0)
(19.7759 -15.2371 0)
(8.43815 -21.481 0)
(-2.03028 -26.0402 0)
(-16.2945 -29.8544 0)
(-29.9105 -32.8524 0)
(-39.3743 -32.7928 0)
(-47.0962 -30.3155 0)
(-52.8307 -26.9179 0)
(-56.9321 -23.2106 0)
(-60.0055 -19.5303 0)
(-62.4522 -16.0602 0)
(-64.6574 -12.9339 0)
(-66.8872 -10.2763 0)
(-69.1674 -8.1033 0)
(-71.3741 -6.14065 0)
(-73.4622 -3.94621 0)
(-75.528 -1.13937 0)
(-77.742 2.55341 0)
(-80.2585 7.17216 0)
(-83.0303 12.4561 0)
(-85.6808 18.2417 0)
(-87.9554 25.063 0)
(-90.3738 33.7321 0)
(-93.6138 44.3485 0)
(-96.6455 55.8254 0)
(-96.3474 66.1819 0)
(-89.1215 72.3575 0)
(-77.8056 73.1999 0)
(-62.9598 69.2717 0)
(-42.303 64.4789 0)
(-24.5777 55.3791 0)
(-0.0715397 46.2825 0)
(29.3392 29.0815 0)
(58.0917 7.02861 0)
(83.6895 -13.3185 0)
(103.091 -29.6813 0)
(114.509 -41.1951 0)
(116.016 -46.2278 0)
(109.89 -45.5452 0)
(99.8617 -41.4838 0)
(87.5644 -35.4689 0)
(74.5964 -28.4442 0)
(62.3256 -20.9648 0)
(51.6814 -13.5545 0)
(43.3583 -6.58057 0)
(37.8169 -0.0746508 0)
(34.9653 6.07422 0)
(33.994 11.4594 0)
(35.3282 15.42 0)
(38.2132 17.5153 0)
(41.3764 17.511 0)
(8.90334 -16.2066 0)
(6.79557 -17.1823 0)
(4.5309 -17.9132 0)
(2.13208 -18.4389 0)
(-0.393621 -18.7771 0)
(-3.0687 -18.915 0)
(-5.89367 -18.8792 0)
(-8.83303 -18.7316 0)
(-11.8631 -18.4647 0)
(-14.994 -18.0142 0)
(-18.2571 -17.3619 0)
(-21.678 -16.5599 0)
(-25.2712 -15.6347 0)
(-29.0554 -14.4486 0)
(-33.0866 -12.8783 0)