/*--------------------------------*- C++ -*----------------------------------*\
| =========                 |                                                 |
| \\      /  F ield         | OpenFOAM: The Open Source CFD Toolbox           |
|  \\    /   O peration     | Version:  2206                                  |
|   \\  /    A nd           | Website:  www.openfoam.com                      |
|    \\/     M anipulation  |                                                 |
\*---------------------------------------------------------------------------*/
FoamFile
{
    version     2.0;
    format      ascii;
    arch        "LSB;label=32;scalar=64";
    class       surfaceScalarField;
    location    "19.5";
    object      phi_0;
}
// * * * * * * * * * * * * * * * * * * * * * * * * * * * * * * * * * * * * * //

dimensions      [0 3 -1 0 0 0 0];

oriented        oriented;

internalField   nonuniform List<scalar> 
3600
(
4.43327e-06
-2.29334e-09
1.82363e-09
4.43468e-06
-6.89601e-09
5.48227e-09
4.43697e-06
-1.12898e-08
8.99857e-09
4.44003e-06
-1.53201e-08
1.22659e-08
4.44372e-06
-1.89162e-08
1.52247e-08
4.44794e-06
-2.2085e-08
1.78648e-08
4.4526e-06
-2.48651e-08
2.02015e-08
4.45764e-06
-2.72911e-08
2.22563e-08
4.46298e-06
-2.93961e-08
2.40522e-08
4.46858e-06
-3.12166e-08
2.56149e-08
4.4744e-06
-3.27912e-08
2.69723e-08
4.48041e-06
-3.41557e-08
2.81519e-08
4.48657e-06
-3.53415e-08
2.91785e-08
4.49287e-06
-3.63754e-08
3.00735e-08
4.4993e-06
-3.72796e-08
3.08552e-08
4.50583e-06
-3.80714e-08
3.15388e-08
4.51246e-06
-3.87649e-08
3.21366e-08
4.51917e-06
-3.9372e-08
3.26588e-08
4.52596e-06
-3.99023e-08
3.31139e-08
4.53281e-06
-4.03633e-08
3.35085e-08
4.53973e-06
-4.07608e-08
3.38479e-08
4.54669e-06
-4.10992e-08
3.41361e-08
4.5537e-06
-4.13818e-08
3.4376e-08
4.56074e-06
-4.16107e-08
3.45698e-08
4.5678e-06
-4.17874e-08
3.47188e-08
4.57489e-06
-4.19123e-08
3.48237e-08
4.58199e-06
-4.19853e-08
3.48848e-08
4.5891e-06
-4.20063e-08
3.49019e-08
4.5962e-06
-4.19747e-08
3.48747e-08
4.60329e-06
-4.18899e-08
3.48028e-08
4.61035e-06
-4.17508e-08
3.46854e-08
4.61739e-06
-4.15556e-08
3.45213e-08
4.62438e-06
-4.13027e-08
3.43098e-08
4.63132e-06
-4.09915e-08
3.40503e-08
4.6382e-06
-4.06221e-08
3.3743e-08
4.64501e-06
-4.01952e-08
3.33883e-08
4.65173e-06
-3.97118e-08
3.29872e-08
4.65836e-06
-3.91734e-08
3.25409e-08
4.66489e-06
-3.8582e-08
3.20509e-08
4.67131e-06
-3.79399e-08
3.15191e-08
4.67762e-06
-3.72496e-08
3.09477e-08
4.68379e-06
-3.65144e-08
3.03391e-08
4.68983e-06
-3.57377e-08
2.96961e-08
4.69573e-06
-3.49232e-08
2.90216e-08
4.70149e-06
-3.40743e-08
2.83182e-08
4.7071e-06
-3.3194e-08
2.75889e-08
4.71255e-06
-3.2286e-08
2.68362e-08
4.71784e-06
-3.13537e-08
2.60632e-08
4.72296e-06
-3.04011e-08
2.52726e-08
4.72793e-06
-2.94317e-08
2.4467e-08
4.73273e-06
-2.84491e-08
2.36489e-08
4.73737e-06
-2.74551e-08
2.28193e-08
4.74184e-06
-2.64494e-08
2.19787e-08
4.74614e-06
-2.54312e-08
2.1126e-08
4.75028e-06
-2.4399e-08
2.02601e-08
4.75425e-06
-2.33508e-08
1.93785e-08
4.75806e-06
-2.22826e-08
1.84784e-08
4.76169e-06
-2.11901e-08
1.75551e-08
4.76515e-06
-2.00664e-08
1.66032e-08
4.76844e-06
-1.8904e-08
1.56159e-08
4.77155e-06
-1.76928e-08
1.45837e-08
4.77448e-06
-1.64205e-08
1.34976e-08
4.77721e-06
-1.50734e-08
1.23429e-08
4.77973e-06
-1.36339e-08
1.1107e-08
4.78204e-06
-1.20829e-08
9.7704e-09
4.78413e-06
-1.0397e-08
8.31542e-09
4.78596e-06
-8.55132e-09
6.71695e-09
4.78752e-06
-6.51435e-09
4.95358e-09
4.78878e-06
-4.24834e-09
2.99e-09
4.7897e-06
-1.71158e-09
7.87953e-10
4.79025e-06
1.14737e-09
-1.69787e-09
4.79039e-06
4.38486e-09
-4.51697e-09
4.79005e-06
8.06824e-09
-7.73008e-09
4.78918e-06
1.22762e-08
-1.14072e-08
4.78771e-06
1.71016e-08
-1.56316e-08
4.78556e-06
2.26548e-08
-2.0503e-08
4.78263e-06
2.90684e-08
-2.61408e-08
4.77882e-06
3.65005e-08
-3.26882e-08
4.77399e-06
4.51405e-08
-4.0318e-08
4.76802e-06
5.52157e-08
-4.92387e-08
4.76072e-06
6.70016e-08
-5.97046e-08
4.75191e-06
8.08323e-08
-7.2026e-08
4.74138e-06
9.71179e-08
-8.65849e-08
4.72887e-06
1.16361e-07
-1.03853e-07
4.71411e-06
1.39181e-07
-1.24416e-07
4.69677e-06
1.66339e-07
-1.49002e-07
4.67651e-06
1.98785e-07
-1.78528e-07
4.65296e-06
2.37706e-07
-2.14151e-07
4.6257e-06
2.846e-07
-2.57344e-07
4.59433e-06
3.41364e-07
-3.09995e-07
4.55846e-06
4.10427e-07
-3.74549e-07
4.51773e-06
4.94922e-07
-4.54197e-07
4.47196e-06
5.98905e-07
-5.53134e-07
4.42124e-06
7.27738e-07
-6.77018e-07
4.36611e-06
8.88543e-07
-8.33415e-07
4.30819e-06
1.09143e-06
-1.03351e-06
4.24993e-06
1.34992e-06
-1.29166e-06
4.19997e-06
1.68695e-06
-1.63698e-06
4.17175e-06
2.12402e-06
-2.09581e-06
4.26998e-06
2.72151e-06
-2.81974e-06
4.71866e-06
3.34656e-06
-3.79524e-06
4.55356e-06
6.69391e-06
-6.5288e-06
4.43335e-06
-2.84229e-09
4.435e-06
-8.54928e-09
4.43765e-06
-1.39374e-08
4.44112e-06
-1.87865e-08
4.44523e-06
-2.30296e-08
4.44985e-06
-2.67086e-08
4.45489e-06
-2.99041e-08
4.46027e-06
-3.26667e-08
4.46591e-06
-3.50424e-08
4.47178e-06
-3.70826e-08
4.47783e-06
-3.88385e-08
4.48403e-06
-4.03556e-08
4.49036e-06
-4.1673e-08
4.49681e-06
-4.28232e-08
4.50336e-06
-4.38314e-08
4.51e-06
-4.47165e-08
4.51673e-06
-4.54938e-08
4.52354e-06
-4.61761e-08
4.53041e-06
-4.67741e-08
4.53734e-06
-4.72956e-08
4.54433e-06
-4.77469e-08
4.55136e-06
-4.81325e-08
4.55843e-06
-4.84556e-08
4.56554e-06
-4.87185e-08
4.57268e-06
-4.89226e-08
4.57983e-06
-4.90676e-08
4.587e-06
-4.91529e-08
4.59417e-06
-4.91781e-08
4.60134e-06
-4.91432e-08
4.6085e-06
-4.90474e-08
4.61563e-06
-4.88884e-08
4.62274e-06
-4.86631e-08
4.62981e-06
-4.83692e-08
4.63682e-06
-4.8006e-08
4.64378e-06
-4.75738e-08
4.65065e-06
-4.70735e-08
4.65745e-06
-4.65061e-08
4.66415e-06
-4.58738e-08
4.67074e-06
-4.51785e-08
4.67723e-06
-4.44232e-08
4.68359e-06
-4.36106e-08
4.68982e-06
-4.27449e-08
4.69591e-06
-4.18309e-08
4.70186e-06
-4.0873e-08
4.70766e-06
-3.98747e-08
4.71331e-06
-3.88398e-08
4.71879e-06
-3.77722e-08
4.72412e-06
-3.66767e-08
4.72927e-06
-3.55576e-08
4.73426e-06
-3.44207e-08
4.73909e-06
-3.3272e-08
4.74374e-06
-3.21135e-08
4.74824e-06
-3.09437e-08
4.75257e-06
-2.97613e-08
4.75674e-06
-2.85653e-08
4.76074e-06
-2.73534e-08
4.76458e-06
-2.61223e-08
4.76825e-06
-2.48664e-08
4.77177e-06
-2.35792e-08
4.77511e-06
-2.22517e-08
4.77829e-06
-2.08732e-08
4.7813e-06
-1.94306e-08
4.78414e-06
-1.79076e-08
4.78679e-06
-1.62862e-08
4.78925e-06
-1.45442e-08
4.79151e-06
-1.26566e-08
4.79355e-06
-1.05941e-08
4.79536e-06
-8.32103e-09
4.79691e-06
-5.79725e-09
4.79818e-06
-2.97622e-09
4.79913e-06
1.95967e-10
4.79973e-06
3.78266e-09
4.79994e-06
7.85402e-09
4.79972e-06
1.24958e-08
4.79902e-06
1.78066e-08
4.79777e-06
2.39036e-08
4.79591e-06
3.09282e-08
4.79336e-06
3.90473e-08
4.79004e-06
4.84593e-08
4.78586e-06
5.94009e-08
4.7807e-06
7.21559e-08
4.77447e-06
8.70658e-08
4.76704e-06
1.04549e-07
4.75828e-06
1.25117e-07
4.74808e-06
1.49387e-07
4.7363e-06
1.78113e-07
4.72287e-06
2.12223e-07
4.70771e-06
2.52859e-07
4.69088e-06
3.01434e-07
4.67252e-06
3.5972e-07
4.653e-06
4.29951e-07
4.63299e-06
5.14932e-07
4.61371e-06
6.18182e-07
4.59735e-06
7.44106e-07
4.58756e-06
8.98323e-07
4.59128e-06
1.08771e-06
4.62019e-06
1.32101e-06
4.70062e-06
1.60652e-06
4.8741e-06
1.95054e-06
5.23216e-06
2.36344e-06
5.85348e-06
2.72524e-06
3.58203e-06
6.82501e-06
4.43346e-06
-3.50614e-09
4.43549e-06
-1.05717e-08
4.43866e-06
-1.71076e-08
4.44269e-06
-2.28209e-08
4.44735e-06
-2.76859e-08
4.45248e-06
-3.18377e-08
4.45798e-06
-3.54068e-08
4.46377e-06
-3.84571e-08
4.46978e-06
-4.10517e-08
4.47596e-06
-4.32637e-08
4.48228e-06
-4.51568e-08
4.48871e-06
-4.67871e-08
4.49524e-06
-4.82032e-08
4.50186e-06
-4.94436e-08
4.50856e-06
-5.05349e-08
4.51534e-06
-5.14957e-08
4.52219e-06
-5.23423e-08
4.5291e-06
-5.30886e-08
4.53608e-06
-5.37456e-08
4.5431e-06
-5.4321e-08
4.55018e-06
-5.48208e-08
4.55729e-06
-5.52497e-08
4.56445e-06
-5.56107e-08
4.57164e-06
-5.59066e-08
4.57885e-06
-5.61376e-08
4.58609e-06
-5.63025e-08
4.59333e-06
-5.64e-08
4.60058e-06
-5.64291e-08
4.60783e-06
-5.63915e-08
4.61507e-06
-5.62874e-08
4.6223e-06
-5.61123e-08
4.62949e-06
-5.58597e-08
4.63665e-06
-5.55254e-08
4.64375e-06
-5.51104e-08
4.65079e-06
-5.46144e-08
4.65776e-06
-5.40392e-08
4.66464e-06
-5.33858e-08
4.67142e-06
-5.26574e-08
4.6781e-06
-5.18555e-08
4.68466e-06
-5.0984e-08
4.69109e-06
-5.00445e-08
4.69739e-06
-4.90437e-08
4.70355e-06
-4.79875e-08
4.70956e-06
-4.68832e-08
4.71542e-06
-4.57314e-08
4.72112e-06
-4.45379e-08
4.72665e-06
-4.3306e-08
4.73202e-06
-4.20428e-08
4.73721e-06
-4.07514e-08
4.74223e-06
-3.9441e-08
4.74708e-06
-3.8123e-08
4.75177e-06
-3.67993e-08
4.75629e-06
-3.54659e-08
4.76065e-06
-3.41207e-08
4.76485e-06
-3.27632e-08
4.76888e-06
-3.13915e-08
4.77276e-06
-3.00026e-08
4.77649e-06
-2.85899e-08
4.78006e-06
-2.71474e-08
4.78347e-06
-2.56658e-08
4.78673e-06
-2.41336e-08
4.78984e-06
-2.2536e-08
4.79278e-06
-2.08569e-08
4.79557e-06
-1.90756e-08
4.7982e-06
-1.71691e-08
4.80065e-06
-1.51102e-08
4.80292e-06
-1.28656e-08
4.805e-06
-1.03979e-08
4.80687e-06
-7.66366e-09
4.8085e-06
-4.61325e-09
4.80989e-06
-1.19143e-09
4.811e-06
2.66997e-09
4.81182e-06
7.0426e-09
4.8123e-06
1.20153e-08
4.81242e-06
1.76883e-08
4.81214e-06
2.41829e-08
4.81142e-06
3.1645e-08
4.81022e-06
4.02449e-08
4.8085e-06
5.01815e-08
4.80621e-06
6.16919e-08
4.80331e-06
7.50556e-08
4.79977e-06
9.06079e-08
4.79555e-06
1.08761e-07
4.79066e-06
1.30008e-07
4.78512e-06
1.54933e-07
4.77899e-06
1.84244e-07
4.7724e-06
2.18815e-07
4.76558e-06
2.5967e-07
4.75897e-06
3.08045e-07
4.75321e-06
3.65485e-07
4.74925e-06
4.33912e-07
4.74853e-06
5.15646e-07
4.75329e-06
6.13424e-07
4.767e-06
7.304e-07
4.79504e-06
8.7028e-07
4.84591e-06
1.03683e-06
4.93287e-06
1.23405e-06
5.07621e-06
1.46318e-06
5.30454e-06
1.72222e-06
5.64988e-06
2.0181e-06
6.11411e-06
2.261e-06
2.70311e-06
6.99303e-06
4.43364e-06
-4.351e-09
4.43626e-06
-1.3188e-08
4.44021e-06
-2.10606e-08
4.44503e-06
-2.76342e-08
4.45039e-06
-3.30454e-08
4.45614e-06
-3.75953e-08
4.4622e-06
-4.14586e-08
4.46846e-06
-4.47209e-08
4.47487e-06
-4.74638e-08
4.48139e-06
-4.97832e-08
4.48799e-06
-5.17574e-08
4.49466e-06
-5.34557e-08
4.50139e-06
-5.49355e-08
4.50819e-06
-5.62415e-08
4.51505e-06
-5.73969e-08
4.52197e-06
-5.84173e-08
4.52895e-06
-5.932e-08
4.53598e-06
-6.01204e-08
4.54307e-06
-6.08288e-08
4.5502e-06
-6.14526e-08
4.55738e-06
-6.19973e-08
4.56459e-06
-6.24668e-08
4.57185e-06
-6.28639e-08
4.57913e-06
-6.31941e-08
4.58645e-06
-6.34543e-08
4.59379e-06
-6.3641e-08
4.60114e-06
-6.37525e-08
4.6085e-06
-6.37858e-08
4.61585e-06
-6.3745e-08
4.6232e-06
-6.36355e-08
4.63054e-06
-6.34496e-08
4.63785e-06
-6.31723e-08
4.64512e-06
-6.27996e-08
4.65235e-06
-6.23338e-08
4.6595e-06
-6.1773e-08
4.66659e-06
-6.11221e-08
4.67358e-06
-6.03796e-08
4.68048e-06
-5.95531e-08
4.68726e-06
-5.86407e-08
4.69393e-06
-5.76515e-08
4.70047e-06
-5.65796e-08
4.70686e-06
-5.54391e-08
4.71311e-06
-5.42338e-08
4.7192e-06
-5.29804e-08
4.72514e-06
-5.16677e-08
4.73091e-06
-5.03123e-08
4.73652e-06
-4.89075e-08
4.74194e-06
-4.74707e-08
4.74719e-06
-4.59967e-08
4.75225e-06
-4.45066e-08
4.75715e-06
-4.30179e-08
4.76188e-06
-4.1527e-08
4.76644e-06
-4.00271e-08
4.77084e-06
-3.85175e-08
4.77507e-06
-3.69986e-08
4.77915e-06
-3.54679e-08
4.78307e-06
-3.39271e-08
4.78684e-06
-3.23613e-08
4.79047e-06
-3.07712e-08
4.79395e-06
-2.91456e-08
4.79728e-06
-2.74719e-08
4.80048e-06
-2.57354e-08
4.80355e-06
-2.39183e-08
4.80647e-06
-2.19999e-08
4.80926e-06
-1.99551e-08
4.8119e-06
-1.77548e-08
4.8144e-06
-1.53641e-08
4.81674e-06
-1.27433e-08
4.81893e-06
-9.84669e-09
4.82094e-06
-6.62287e-09
4.82276e-06
-3.01549e-09
4.82439e-06
1.04196e-09
4.8258e-06
5.63109e-09
4.82699e-06
1.08291e-08
4.82794e-06
1.67342e-08
4.82865e-06
2.34743e-08
4.8291e-06
3.11966e-08
4.82927e-06
4.00693e-08
4.82917e-06
5.02846e-08
4.82879e-06
6.20726e-08
4.82817e-06
7.56795e-08
4.82734e-06
9.14333e-08
4.82636e-06
1.09739e-07
4.82531e-06
1.31055e-07
4.82435e-06
1.55898e-07
4.8237e-06
1.84897e-07
4.82367e-06
2.18843e-07
4.82475e-06
2.58584e-07
4.82767e-06
3.05126e-07
4.83344e-06
3.59713e-07
4.84345e-06
4.23905e-07
4.85957e-06
4.99529e-07
4.88449e-06
5.88505e-07
4.92212e-06
6.92764e-07
4.97805e-06
8.14351e-07
5.05983e-06
9.55055e-07
5.17793e-06
1.11595e-06
5.34471e-06
1.29641e-06
5.57703e-06
1.4899e-06
5.89594e-06
1.69919e-06
6.29479e-06
1.86215e-06
2.04228e-06
6.95563e-06
4.43399e-06
-5.53987e-09
4.43757e-06
-1.67658e-08
4.44263e-06
-2.61275e-08
4.44847e-06
-3.34699e-08
4.45474e-06
-3.93178e-08
4.46132e-06
-4.41699e-08
4.46808e-06
-4.82188e-08
4.47494e-06
-5.15829e-08
4.48186e-06
-5.43814e-08
4.4888e-06
-5.6725e-08
4.49574e-06
-5.87008e-08
4.50268e-06
-6.03979e-08
4.50964e-06
-6.18943e-08
4.51664e-06
-6.32403e-08
4.52368e-06
-6.44403e-08
4.53077e-06
-6.55038e-08
4.5379e-06
-6.64497e-08
4.54508e-06
-6.72946e-08
4.55229e-06
-6.80466e-08
4.55955e-06
-6.87135e-08
4.56686e-06
-6.92998e-08
4.5742e-06
-6.98081e-08
4.58157e-06
-7.02375e-08
4.58898e-06
-7.06049e-08
4.59643e-06
-7.0897e-08
4.60389e-06
-7.1109e-08
4.61138e-06
-7.12367e-08
4.61887e-06
-7.12753e-08
4.62636e-06
-7.12403e-08
4.63386e-06
-7.11365e-08
4.64136e-06
-7.09436e-08
4.64883e-06
-7.06422e-08
4.65626e-06
-7.02309e-08
4.66364e-06
-6.97132e-08
4.67095e-06
-6.90846e-08
4.67818e-06
-6.83554e-08
4.68532e-06
-6.75189e-08
4.69236e-06
-6.65909e-08
4.69928e-06
-6.55601e-08
4.70607e-06
-6.44446e-08
4.71272e-06
-6.32234e-08
4.71921e-06
-6.19334e-08
4.72554e-06
-6.05608e-08
4.7317e-06
-5.9139e-08
4.73767e-06
-5.76381e-08
4.74346e-06
-5.61053e-08
4.74906e-06
-5.45052e-08
4.75446e-06
-5.28723e-08
4.75964e-06
-5.11737e-08
4.76462e-06
-4.94908e-08
4.76944e-06
-4.78365e-08
4.77409e-06
-4.61771e-08
4.77856e-06
-4.45035e-08
4.78287e-06
-4.28199e-08
4.787e-06
-4.11305e-08
4.79097e-06
-3.94349e-08
4.79477e-06
-3.77341e-08
4.79843e-06
-3.60155e-08
4.80194e-06
-3.42805e-08
4.80531e-06
-3.25175e-08
4.80855e-06
-3.0713e-08
4.81167e-06
-2.88524e-08
4.81466e-06
-2.69159e-08
4.81755e-06
-2.48848e-08
4.82033e-06
-2.27324e-08
4.823e-06
-2.04276e-08
4.82557e-06
-1.79327e-08
4.82803e-06
-1.52078e-08
4.83039e-06
-1.22059e-08
4.83264e-06
-8.87439e-09
4.83479e-06
-5.15934e-09
4.83684e-06
-1.01128e-09
4.83881e-06
3.66354e-09
4.84069e-06
8.94254e-09
4.84248e-06
1.49447e-08
4.84418e-06
2.17784e-08
4.8458e-06
2.95763e-08
4.84737e-06
3.84952e-08
4.84893e-06
4.8728e-08
4.85051e-06
6.04914e-08
4.85214e-06
7.40506e-08
4.8539e-06
8.96731e-08
4.85599e-06
1.0765e-07
4.85867e-06
1.28372e-07
4.86231e-06
1.5226e-07
4.86712e-06
1.80091e-07
4.87345e-06
2.1251e-07
4.88208e-06
2.49956e-07
4.89392e-06
2.93282e-07
4.91022e-06
3.43415e-07
4.93253e-06
4.01593e-07
4.96288e-06
4.69182e-07
5.00407e-06
5.47314e-07
5.05994e-06
6.36898e-07
5.13552e-06
7.3877e-07
5.23704e-06
8.53535e-07
5.37218e-06
9.80808e-07
5.54995e-06
1.11863e-06
5.78048e-06
1.25938e-06
6.08055e-06
1.39912e-06
6.43507e-06
1.50762e-06
1.58775e-06
6.8896e-06
4.43481e-06
-7.55335e-09
4.44013e-06
-2.20856e-08
4.44679e-06
-3.27807e-08
4.45385e-06
-4.05324e-08
4.46113e-06
-4.66024e-08
4.46859e-06
-5.16262e-08
4.47608e-06
-5.57069e-08
4.48354e-06
-5.90493e-08
4.49097e-06
-6.18079e-08
4.49836e-06
-6.41164e-08
4.50568e-06
-6.60156e-08
4.51293e-06
-6.76478e-08
4.52017e-06
-6.91329e-08
4.52743e-06
-7.05017e-08
4.53471e-06
-7.17241e-08
4.54202e-06
-7.28176e-08
4.54937e-06
-7.37991e-08
4.55676e-06
-7.46846e-08
4.56419e-06
-7.54751e-08
4.57166e-06
-7.61831e-08
4.57917e-06
-7.68069e-08
4.58671e-06
-7.73515e-08
4.59428e-06
-7.78082e-08
4.60187e-06
-7.81936e-08
4.60946e-06
-7.84879e-08
4.61706e-06
-7.87054e-08
4.62462e-06
-7.87972e-08
4.63212e-06
-7.87803e-08
4.63963e-06
-7.87491e-08
4.64716e-06
-7.86634e-08
4.65466e-06
-7.84426e-08
4.6621e-06
-7.80853e-08
4.66947e-06
-7.75949e-08
4.67674e-06
-7.69844e-08
4.6839e-06
-7.62483e-08
4.69094e-06
-7.53973e-08
4.69785e-06
-7.44252e-08
4.70461e-06
-7.33548e-08
4.71123e-06
-7.21774e-08
4.71768e-06
-7.0895e-08
4.72394e-06
-6.94781e-08
4.72998e-06
-6.79823e-08
4.73585e-06
-6.64224e-08
4.74152e-06
-6.48165e-08
4.747e-06
-6.31155e-08
4.75228e-06
-6.13816e-08
4.75736e-06
-5.9586e-08
4.76228e-06
-5.77923e-08
4.7671e-06
-5.59954e-08
4.77175e-06
-5.41399e-08
4.77614e-06
-5.22301e-08
4.78028e-06
-5.03119e-08
4.78418e-06
-4.84026e-08
4.78786e-06
-4.65033e-08
4.79134e-06
-4.4614e-08
4.79464e-06
-4.27338e-08
4.79777e-06
-4.08606e-08
4.80074e-06
-3.89875e-08
4.80357e-06
-3.71087e-08
4.80626e-06
-3.52139e-08
4.80884e-06
-3.32901e-08
4.81131e-06
-3.13214e-08
4.81368e-06
-2.92889e-08
4.81597e-06
-2.71706e-08
4.81818e-06
-2.49395e-08
4.82032e-06
-2.25662e-08
4.8224e-06
-2.00194e-08
4.82445e-06
-1.726e-08
4.82647e-06
-1.42233e-08
4.82847e-06
-1.08703e-08
4.83046e-06
-7.14789e-09
4.83245e-06
-3.00137e-09
4.83446e-06
1.65371e-09
4.83648e-06
6.91734e-09
4.83857e-06
1.28545e-08
4.84076e-06
1.95869e-08
4.84309e-06
2.72507e-08
4.84559e-06
3.59899e-08
4.84836e-06
4.59643e-08
4.85149e-06
5.73631e-08
4.85512e-06
7.0414e-08
4.85942e-06
8.53761e-08
4.86453e-06
1.02541e-07
4.87067e-06
1.22232e-07
4.87805e-06
1.4488e-07
4.88741e-06
1.70732e-07
4.89965e-06
2.00267e-07
4.9154e-06
2.34207e-07
4.93585e-06
2.72834e-07
4.96256e-06
3.16706e-07
4.99686e-06
3.67295e-07
5.04033e-06
4.25705e-07
5.0958e-06
4.91844e-07
5.16692e-06
5.65775e-07
5.25801e-06
6.47687e-07
5.37391e-06
7.3763e-07
5.51998e-06
8.34741e-07
5.70268e-06
9.35933e-07
5.92719e-06
1.03486e-06
6.2006e-06
1.12571e-06
6.51308e-06
1.19513e-06
1.2348e-06
6.86603e-06
4.43657e-06
-1.13199e-08
4.44509e-06
-3.06054e-08
4.45425e-06
-4.19451e-08
4.46325e-06
-4.95289e-08
4.47206e-06
-5.54116e-08
4.48072e-06
-6.02902e-08
4.48913e-06
-6.41127e-08
4.49735e-06
-6.72695e-08
4.50537e-06
-6.98364e-08
4.51324e-06
-7.19843e-08
4.52086e-06
-7.36377e-08
4.5283e-06
-7.50794e-08
4.53572e-06
-7.65609e-08
4.54312e-06
-7.7895e-08
4.55045e-06
-7.90528e-08
4.5577e-06
-8.00722e-08
4.56489e-06
-8.0988e-08
4.57202e-06
-8.18096e-08
4.57909e-06
-8.25487e-08
4.58612e-06
-8.32149e-08
4.5931e-06
-8.37902e-08
4.60003e-06
-8.42737e-08
4.60688e-06
-8.46651e-08
4.61372e-06
-8.50301e-08
4.62052e-06
-8.52869e-08
4.62728e-06
-8.54664e-08
4.63411e-06
-8.56263e-08
4.64105e-06
-8.57212e-08
4.64791e-06
-8.56065e-08
4.65459e-06
-8.53425e-08
4.66106e-06
-8.49149e-08
4.66733e-06
-8.4352e-08
4.67339e-06
-8.36567e-08
4.67923e-06
-8.28285e-08
4.68485e-06
-8.18689e-08
4.69024e-06
-8.07818e-08
4.69538e-06
-7.95697e-08
4.70026e-06
-7.82295e-08
4.70484e-06
-7.67666e-08
4.70915e-06
-7.52031e-08
4.71321e-06
-7.35382e-08
4.71702e-06
-7.17866e-08
4.72057e-06
-6.9978e-08
4.72386e-06
-6.81085e-08
4.72691e-06
-6.616e-08
4.72969e-06
-6.41618e-08
4.73222e-06
-6.21209e-08
4.73449e-06
-6.00571e-08
4.73647e-06
-5.79788e-08
4.73822e-06
-5.58823e-08
4.73975e-06
-5.37663e-08
4.74108e-06
-5.16436e-08
4.74221e-06
-4.95324e-08
4.74315e-06
-4.74408e-08
4.74391e-06
-4.53723e-08
4.7445e-06
-4.33267e-08
4.74494e-06
-4.13034e-08
4.74525e-06
-3.92971e-08
4.74545e-06
-3.73025e-08
4.74554e-06
-3.53092e-08
4.74556e-06
-3.33058e-08
4.74551e-06
-3.12758e-08
4.74543e-06
-2.92023e-08
4.74532e-06
-2.70623e-08
4.74521e-06
-2.48331e-08
4.74513e-06
-2.24849e-08
4.7451e-06
-1.99928e-08
4.74518e-06
-1.73382e-08
4.74535e-06
-1.43951e-08
4.74566e-06
-1.11741e-08
4.74612e-06
-7.61153e-09
4.74681e-06
-3.69461e-09
4.74779e-06
6.74653e-10
4.74904e-06
5.66909e-09
4.75068e-06
1.12203e-08
4.75276e-06
1.74997e-08
4.7554e-06
2.46125e-08
4.75871e-06
3.26825e-08
4.76282e-06
4.18544e-08
4.76789e-06
5.22913e-08
4.77412e-06
6.41821e-08
4.78176e-06
7.77406e-08
4.79109e-06
9.32037e-08
4.8025e-06
1.10827e-07
4.81647e-06
1.30911e-07
4.83345e-06
1.53753e-07
4.85407e-06
1.79649e-07
4.87921e-06
2.09063e-07
4.90944e-06
2.42601e-07
4.94551e-06
2.80639e-07
4.98997e-06
3.22839e-07
5.04627e-06
3.69404e-07
5.11674e-06
4.21369e-07
5.20374e-06
4.7878e-07
5.31138e-06
5.4004e-07
5.44215e-06
6.06861e-07
5.59858e-06
6.78308e-07
5.78563e-06
7.48886e-07
6.00586e-06
8.14641e-07
6.26054e-06
8.71029e-07
6.54485e-06
9.10822e-07
9.26937e-07
6.85272e-06
4.4409e-06
-1.94197e-08
4.45342e-06
-4.3127e-08
4.46495e-06
-5.34713e-08
4.47611e-06
-6.06915e-08
4.48659e-06
-6.58912e-08
4.49642e-06
-7.01248e-08
4.50541e-06
-7.30991e-08
4.51374e-06
-7.56007e-08
4.52145e-06
-7.75459e-08
4.52866e-06
-7.91886e-08
4.53569e-06
-8.06671e-08
4.5425e-06
-8.18986e-08
4.54872e-06
-8.27754e-08
4.55438e-06
-8.35514e-08
4.5596e-06
-8.42738e-08
4.56444e-06
-8.49183e-08
4.56894e-06
-8.54838e-08
4.57308e-06
-8.59557e-08
4.57687e-06
-8.63341e-08
4.58028e-06
-8.66214e-08
4.58332e-06
-8.68307e-08
4.58602e-06
-8.69736e-08
4.58837e-06
-8.70231e-08
4.59039e-06
-8.70413e-08
4.59204e-06
-8.69456e-08
4.59336e-06
-8.67837e-08
4.59431e-06
-8.65739e-08
4.59489e-06
-8.62978e-08
4.59515e-06
-8.58683e-08
4.59507e-06
-8.52697e-08
4.59463e-06
-8.44686e-08
4.5938e-06
-8.35207e-08
4.59258e-06
-8.24381e-08
4.59097e-06
-8.12206e-08
4.58897e-06
-7.98727e-08
4.58659e-06
-7.84003e-08
4.58383e-06
-7.68095e-08
4.58071e-06
-7.51021e-08
4.57722e-06
-7.32834e-08
4.57338e-06
-7.13653e-08
4.56921e-06
-6.93613e-08
4.56471e-06
-6.72876e-08
4.55989e-06
-6.51597e-08
4.55477e-06
-6.29921e-08
4.54939e-06
-6.07737e-08
4.54373e-06
-5.85066e-08
4.53783e-06
-5.62214e-08
4.53171e-06
-5.39303e-08
4.52537e-06
-5.16474e-08
4.51886e-06
-4.93647e-08
4.51219e-06
-4.7096e-08
4.50539e-06
-4.48452e-08
4.49849e-06
-4.26299e-08
4.4915e-06
-4.04554e-08
4.48446e-06
-3.83306e-08
4.47738e-06
-3.62508e-08
4.4703e-06
-3.422e-08
4.46323e-06
-3.22292e-08
4.45621e-06
-3.02803e-08
4.44926e-06
-2.83573e-08
4.44241e-06
-2.64559e-08
4.43569e-06
-2.45549e-08
4.42913e-06
-2.26484e-08
4.42278e-06
-2.07065e-08
4.41666e-06
-1.87211e-08
4.41083e-06
-1.66516e-08
4.40533e-06
-1.44894e-08
4.40018e-06
-1.21878e-08
4.39549e-06
-9.70946e-09
4.39133e-06
-7.01477e-09
4.38777e-06
-4.04657e-09
4.3849e-06
-8.2562e-10
4.38269e-06
2.88433e-09
4.38137e-06
6.99099e-09
4.38112e-06
1.14667e-08
4.38208e-06
1.65378e-08
4.38445e-06
2.22418e-08
4.38846e-06
2.86803e-08
4.39435e-06
3.59609e-08
4.40243e-06
4.42094e-08
4.41305e-06
5.35624e-08
4.42662e-06
6.41696e-08
4.44362e-06
7.62012e-08
4.46461e-06
8.98427e-08
4.49022e-06
1.05302e-07
4.52116e-06
1.22809e-07
4.55818e-06
1.42635e-07
4.60211e-06
1.65129e-07
4.65399e-06
1.90722e-07
4.71487e-06
2.19755e-07
4.78565e-06
2.52059e-07
4.8678e-06
2.87259e-07
4.96364e-06
3.25529e-07
5.075e-06
3.67418e-07
5.20225e-06
4.1279e-07
5.35096e-06
4.58149e-07
5.52713e-06
5.02145e-07
5.73063e-06
5.45386e-07
5.96059e-06
5.84679e-07
6.2158e-06
6.15819e-07
6.49232e-06
6.343e-07
6.36032e-07
6.78322e-06
4.45657e-06
-4.31913e-08
4.47444e-06
-6.09962e-08
4.48639e-06
-6.54188e-08
4.49368e-06
-6.79818e-08
4.49803e-06
-7.02432e-08
4.50003e-06
-7.21224e-08
4.49995e-06
-7.30188e-08
4.49803e-06
-7.36833e-08
4.49449e-06
-7.40074e-08
4.48946e-06
-7.41546e-08
4.48297e-06
-7.41835e-08
4.47517e-06
-7.40936e-08
4.46626e-06
-7.38612e-08
4.45624e-06
-7.35357e-08
4.44513e-06
-7.31671e-08
4.43297e-06
-7.27581e-08
4.41979e-06
-7.23027e-08
4.40563e-06
-7.17964e-08
4.39054e-06
-7.12385e-08
4.37454e-06
-7.06293e-08
4.35769e-06
-6.99735e-08
4.33999e-06
-6.92752e-08
4.3215e-06
-6.85315e-08
4.30221e-06
-6.77536e-08
4.28219e-06
-6.69247e-08
4.26147e-06
-6.60678e-08
4.24011e-06
-6.52137e-08
4.21822e-06
-6.44083e-08
4.19583e-06
-6.34789e-08
4.17289e-06
-6.23234e-08
4.14945e-06
-6.10354e-08
4.12559e-06
-5.96549e-08
4.10134e-06
-5.81877e-08
4.07676e-06
-5.66386e-08
4.0519e-06
-5.5014e-08
4.02682e-06
-5.33194e-08
4.00157e-06
-5.15596e-08
3.9762e-06
-4.97389e-08
3.95078e-06
-4.78627e-08
3.92536e-06
-4.59404e-08
3.89998e-06
-4.39836e-08
3.87469e-06
-4.20006e-08
3.84953e-06
-3.99987e-08
3.82449e-06
-3.79511e-08
3.79962e-06
-3.59005e-08
3.77501e-06
-3.39029e-08
3.75073e-06
-3.19364e-08
3.7268e-06
-2.99996e-08
3.70326e-06
-2.81043e-08
3.68013e-06
-2.62431e-08
3.65747e-06
-2.44287e-08
3.63529e-06
-2.26649e-08
3.61362e-06
-2.09612e-08
3.59248e-06
-1.9321e-08
3.5719e-06
-1.7749e-08
3.55189e-06
-1.62416e-08
3.53247e-06
-1.48008e-08
3.51366e-06
-1.34163e-08
3.49548e-06
-1.20981e-08
3.47795e-06
-1.08276e-08
3.4611e-06
-9.60296e-09
3.44495e-06
-8.40866e-09
3.42954e-06
-7.2415e-09
3.41492e-06
-6.08109e-09
3.40112e-06
-4.92498e-09
3.38821e-06
-3.74192e-09
3.37626e-06
-2.53991e-09
3.36528e-06
-1.20688e-09
3.35537e-06
2.03816e-10
3.34663e-06
1.72376e-09
3.33915e-06
3.43649e-09
3.33306e-06
5.26275e-09
3.32872e-06
7.22231e-09
3.32635e-06
9.36419e-09
3.32609e-06
1.17204e-08
3.32819e-06
1.444e-08
3.33302e-06
1.74153e-08
3.34092e-06
2.07763e-08
3.35231e-06
2.45682e-08
3.36764e-06
2.88854e-08
3.3874e-06
3.38014e-08
3.41219e-06
3.93824e-08
3.44266e-06
4.57234e-08
3.47958e-06
5.29258e-08
3.52378e-06
6.10998e-08
3.57625e-06
7.03441e-08
3.6381e-06
8.0778e-08
3.71064e-06
9.25922e-08
3.79536e-06
1.06005e-07
3.89391e-06
1.21204e-07
4.00769e-06
1.38281e-07
4.13777e-06
1.57176e-07
4.28506e-06
1.78243e-07
4.45075e-06
2.01729e-07
4.63619e-06
2.27341e-07
4.84177e-06
2.52573e-07
5.06831e-06
2.75607e-07
5.31673e-06
2.96964e-07
5.58594e-06
3.15469e-07
5.87297e-06
3.28792e-07
6.17258e-06
3.34684e-07
3.31213e-07
6.4774e-06
4.38961e-06
4.32861e-06
4.26319e-06
4.19521e-06
4.12497e-06
4.05285e-06
3.97983e-06
3.90614e-06
3.83214e-06
3.75798e-06
3.6838e-06
3.6097e-06
3.53584e-06
3.46231e-06
3.38914e-06
3.31638e-06
3.24408e-06
3.17228e-06
3.10105e-06
3.03042e-06
2.96044e-06
2.89117e-06
2.82264e-06
2.75488e-06
2.68796e-06
2.62189e-06
2.55668e-06
2.49227e-06
2.42879e-06
2.36647e-06
2.30543e-06
2.24577e-06
2.18759e-06
2.13095e-06
2.07593e-06
2.02262e-06
1.97106e-06
1.92132e-06
1.87345e-06
1.82751e-06
1.78353e-06
1.74153e-06
1.70153e-06
1.66358e-06
1.62768e-06
1.59378e-06
1.56184e-06
1.53184e-06
1.50374e-06
1.47749e-06
1.45306e-06
1.4304e-06
1.40944e-06
1.39012e-06
1.37237e-06
1.35613e-06
1.34133e-06
1.32791e-06
1.31581e-06
1.30498e-06
1.29538e-06
1.28697e-06
1.27973e-06
1.27365e-06
1.26872e-06
1.26498e-06
1.26244e-06
1.26124e-06
1.26144e-06
1.26316e-06
1.2666e-06
1.27186e-06
1.27909e-06
1.28845e-06
1.30017e-06
1.31461e-06
1.33202e-06
1.3528e-06
1.37737e-06
1.40625e-06
1.44006e-06
1.47944e-06
1.52516e-06
1.57809e-06
1.63919e-06
1.70953e-06
1.79031e-06
1.8829e-06
1.98891e-06
2.11011e-06
2.24839e-06
2.40557e-06
2.58381e-06
2.78554e-06
3.01288e-06
3.26545e-06
3.54106e-06
3.83802e-06
4.15349e-06
4.48228e-06
4.81697e-06
5.14818e-06
3.76092e-06
2.93299e-06
1.7515e-06
2.00943e-06
5.66528e-07
1.18497e-06
-4.5684e-08
6.12212e-07
-4.15199e-07
3.69515e-07
-6.21557e-07
2.06359e-07
-7.36152e-07
1.14594e-07
-7.83487e-07
4.73358e-08
-7.63629e-07
-1.98588e-08
-6.99571e-07
-6.40578e-08
-6.08866e-07
-9.07052e-08
-5.12626e-07
-9.62397e-08
-4.21962e-07
-9.06637e-08
-3.42186e-07
-7.97768e-08
-2.77301e-07
-6.48843e-08
-2.33399e-07
-4.3902e-08
-2.15022e-07
-1.83767e-08
-2.23853e-07
8.83076e-09
-2.48459e-07
2.46059e-08
-2.56821e-07
8.36214e-09
-2.33239e-07
-2.35828e-08
-1.69716e-07
-6.35224e-08
-5.96868e-08
-1.10029e-07
9.20385e-08
-1.51725e-07
2.77997e-07
-1.85959e-07
4.88858e-07
-2.10861e-07
7.12991e-07
-2.24133e-07
9.416e-07
-2.28609e-07
1.16968e-06
-2.28085e-07
1.39563e-06
-2.25946e-07
-2.19103e-07
1.61473e-06
6.59733e-06
3.16067e-06
6.10943e-06
2.49732e-06
5.37373e-06
1.92067e-06
4.54125e-06
1.44469e-06
3.84545e-06
1.06531e-06
3.27888e-06
7.72935e-07
2.86101e-06
5.32458e-07
2.5611e-06
3.47243e-07
2.33941e-06
2.01837e-07
2.18564e-06
8.97073e-08
2.09416e-06
7.8154e-10
2.05114e-06
-5.32189e-08
2.0509e-06
-9.04287e-08
2.07976e-06
-1.08634e-07
2.13126e-06
-1.1639e-07
2.20098e-06
-1.13614e-07
2.29009e-06
-1.07488e-07
2.40352e-06
-1.04606e-07
2.54216e-06
-1.14031e-07
2.6906e-06
-1.40081e-07
2.84591e-06
-1.78891e-07
3.0102e-06
-2.27815e-07
3.18393e-06
-2.83757e-07
3.36606e-06
-3.33852e-07
3.55277e-06
-3.72666e-07
3.744e-06
-4.02091e-07
3.93573e-06
-4.15872e-07
4.12662e-06
-4.19499e-07
4.31586e-06
-4.17316e-07
4.502e-06
-4.12087e-07
-4.05984e-07
4.68888e-06
7.54705e-06
2.60665e-06
7.80637e-06
2.238e-06
7.81371e-06
1.91333e-06
7.6747e-06
1.5837e-06
7.48246e-06
1.25756e-06
7.28495e-06
9.70446e-07
7.08945e-06
7.27952e-07
6.91385e-06
5.22849e-07
6.76748e-06
3.482e-07
6.65315e-06
2.04043e-07
6.55875e-06
9.51799e-08
6.48611e-06
1.94202e-08
6.43493e-06
-3.9251e-08
6.40223e-06
-7.59341e-08
6.38632e-06
-1.00473e-07
6.38602e-06
-1.13316e-07
6.40061e-06
-1.22083e-07
6.42986e-06
-1.33848e-07
6.46925e-06
-1.53422e-07
6.51477e-06
-1.85609e-07
6.56486e-06
-2.28978e-07
6.61665e-06
-2.79603e-07
6.66585e-06
-3.3296e-07
6.71209e-06
-3.80092e-07
6.75754e-06
-4.18117e-07
6.80396e-06
-4.48508e-07
6.85422e-06
-4.6613e-07
6.91013e-06
-4.75409e-07
6.97212e-06
-4.79305e-07
7.04093e-06
-4.80902e-07
-4.82244e-07
7.11719e-06
7.53275e-06
2.02952e-06
7.91597e-06
1.85478e-06
8.17201e-06
1.65729e-06
8.33097e-06
1.42475e-06
8.41204e-06
1.17648e-06
8.43568e-06
9.46808e-07
8.42808e-06
7.35545e-07
8.4021e-06
5.48828e-07
8.36617e-06
3.84134e-07
8.32271e-06
2.47499e-07
8.27872e-06
1.39171e-07
8.24195e-06
5.61915e-08
8.21062e-06
-7.92048e-09
8.18527e-06
-5.05835e-08
8.16857e-06
-8.3771e-08
8.1615e-06
-1.06252e-07
8.16353e-06
-1.24111e-07
8.17316e-06
-1.43473e-07
8.18746e-06
-1.67727e-07
8.20119e-06
-1.99335e-07
8.20988e-06
-2.37672e-07
8.2104e-06
-2.80116e-07
8.20115e-06
-3.23719e-07
8.18552e-06
-3.64456e-07
8.16672e-06
-3.99322e-07
8.14569e-06
-4.27479e-07
8.12795e-06
-4.48383e-07
8.11655e-06
-4.64011e-07
8.11264e-06
-4.75399e-07
8.11664e-06
-4.84903e-07
-4.94978e-07
8.12938e-06
7.34544e-06
1.57369e-06
7.72574e-06
1.47449e-06
8.05138e-06
1.33165e-06
8.30121e-06
1.17492e-06
8.48326e-06
9.94436e-07
8.61264e-06
8.1742e-07
8.70062e-06
6.47569e-07
8.75581e-06
4.93636e-07
8.7823e-06
3.5765e-07
8.78792e-06
2.41878e-07
8.78207e-06
1.4502e-07
8.77184e-06
6.64216e-08
8.75586e-06
8.05741e-09
8.7422e-06
-3.69236e-08
8.72987e-06
-7.14403e-08
8.72116e-06
-9.75444e-08
8.71625e-06
-1.19194e-07
8.71355e-06
-1.40778e-07
8.71035e-06
-1.64523e-07
8.70317e-06
-1.92155e-07
8.68972e-06
-2.24226e-07
8.66914e-06
-2.59536e-07
8.64128e-06
-2.95855e-07
8.60754e-06
-3.30716e-07
8.57027e-06
-3.62056e-07
8.53197e-06
-3.89183e-07
8.49552e-06
-4.11931e-07
8.46265e-06
-4.31142e-07
8.43536e-06
-4.48106e-07
8.41535e-06
-4.64895e-07
-4.83149e-07
8.40352e-06
7.22697e-06
1.21274e-06
7.55586e-06
1.1456e-06
7.84932e-06
1.03819e-06
8.10604e-06
9.18204e-07
8.31454e-06
7.85934e-07
8.48013e-06
6.51825e-07
8.60408e-06
5.2362e-07
8.69321e-06
4.04509e-07
8.75444e-06
2.96423e-07
8.79349e-06
2.02823e-07
8.81459e-06
1.23916e-07
8.82221e-06
5.88045e-08
8.82311e-06
7.15787e-09