/*--------------------------------*- C++ -*----------------------------------*\
| =========                 |                                                 |
| \\      /  F ield         | OpenFOAM: The Open Source CFD Toolbox           |
|  \\    /   O peration     | Version:  2206                                  |
|   \\  /    A nd           | Website:  www.openfoam.com                      |
|    \\/     M anipulation  |                                                 |
\*---------------------------------------------------------------------------*/
FoamFile
{
    version     2.0;
    format      ascii;
    arch        "LSB;label=32;scalar=64";
    class       volVectorField;
    location    "19.1001";
    object      U;
}
// * * * * * * * * * * * * * * * * * * * * * * * * * * * * * * * * * * * * * //

dimensions      [0 1 -1 0 0 0 0];

internalField   nonuniform List<vector> 
1850
(
(1.88586 0.0570004 0)
(1.89511 0.0527703 0)
(1.90409 0.0467013 0)
(1.91257 0.0390458 0)
(1.92028 0.0301365 0)
(1.92689 0.0204187 0)
(1.93214 0.0102998 0)
(1.93586 0.000165399 0)
(1.93796 -0.00961196 0)
(1.93841 -0.0186984 0)
(1.93726 -0.0268115 0)
(1.93456 -0.0337301 0)
(1.93038 -0.039265 0)
(1.92487 -0.0432396 0)
(1.91832 -0.0455883 0)
(1.91099 -0.0464062 0)
(1.90317 -0.0457861 0)
(1.89514 -0.0438036 0)
(1.88721 -0.0405515 0)
(1.87967 -0.03615 0)
(1.8728 -0.030748 0)
(1.86681 -0.0244881 0)
(1.86187 -0.0175195 0)
(1.85813 -0.0100228 0)
(1.85569 -0.00222594 0)
(1.85457 0.00559398 0)
(1.85474 0.0131414 0)
(1.85612 0.0201302 0)
(1.8586 0.026303 0)
(1.86203 0.0314461 0)
(1.86629 0.0353943 0)
(1.87121 0.0380324 0)
(1.87663 0.0393108 0)
(1.88237 0.0392568 0)
(1.88831 0.037905 0)
(1.89429 0.0352949 0)
(1.90014 0.0315169 0)
(1.9057 0.0267211 0)
(1.91076 0.021104 0)
(1.91513 0.0149276 0)
(1.91862 0.00844081 0)
(1.92113 0.0018878 0)
(1.92259 -0.00448439 0)
(1.92299 -0.0104489 0)
(1.92236 -0.0158145 0)
(1.92073 -0.0204294 0)
(1.91814 -0.0241661 0)
(1.91466 -0.0268963 0)
(1.91047 -0.0285472 0)
(1.90573 -0.0291627 0)
(1.90059 -0.0287987 0)
(1.89525 -0.0275022 0)
(1.88991 -0.0253388 0)
(1.88475 -0.0224023 0)
(1.87999 -0.0188156 0)
(1.87578 -0.0147036 0)
(1.87228 -0.0101842 0)
(1.86956 -0.00538935 0)
(1.86771 -0.000473971 0)
(1.86673 0.00438304 0)
(1.8666 0.00900181 0)
(1.86727 0.0132161 0)
(1.86867 0.0168824 0)
(1.87072 0.0198827 0)
(1.87336 0.022119 0)
(1.87647 0.0235191 0)
(1.87995 0.0240748 0)
(1.8837 0.0238156 0)
(1.88763 0.0227618 0)
(1.89165 0.0209412 0)
(1.89564 0.0184095 0)
(1.89949 0.0152598 0)
(1.90305 0.0116245 0)
(1.90619 0.00767627 0)
(1.90878 0.00356769 0)
(1.91075 -0.00054761 0)
(1.91205 -0.00451406 0)
(1.91267 -0.00818997 0)
(1.91263 -0.0114607 0)
(1.91196 -0.0142407 0)
(1.91069 -0.0164616 0)
(1.90884 -0.0180447 0)
(1.90651 -0.0189316 0)
(1.9038 -0.0191539 0)
(1.90078 -0.0187538 0)
(1.89759 -0.0177622 0)
(1.89433 -0.0162195 0)
(1.89113 -0.0141879 0)
(1.88812 -0.0117503 0)
(1.88543 -0.00900709 0)
(1.88315 -0.00604648 0)
(1.88134 -0.00295935 0)
(1.88006 0.000151614 0)
(1.87932 0.00317759 0)
(1.8791 0.00601443 0)
(1.87937 0.00857001 0)
(1.88011 0.0107677 0)
(1.88126 0.0125454 0)
(1.8828 0.0138469 0)
(1.88466 0.0146277 0)
(1.88676 0.0148958 0)
(1.88906 0.0146751 0)
(1.89151 0.0139796 0)
(1.89402 0.0128277 0)
(1.89654 0.0112572 0)
(1.89897 0.00932878 0)
(1.90123 0.00712512 0)
(1.90322 0.00474539 0)
(1.90488 0.00227535 0)
(1.90614 -0.000194092 0)
(1.90699 -0.00257142 0)
(1.90742 -0.00477509 0)
(1.90744 -0.00673952 0)
(1.90706 -0.00841736 0)
(1.9063 -0.0097695 0)
(1.90516 -0.0107444 0)
(1.90371 -0.0113027 0)
(1.90197 -0.0114669 0)
(1.89999 -0.0112457 0)
(1.89789 -0.0107012 0)
(1.89549 -0.00965701 0)
(1.89358 -0.00874384 0)
(1.89036 -0.00627323 0)
(1.75025 0.0491383 0)
(1.76114 0.0467168 0)
(1.77206 0.0425325 0)
(1.78267 0.0367944 0)
(1.79249 0.0298495 0)
(1.80114 0.0220571 0)
(1.80829 0.0137583 0)
(1.8137 0.00528616 0)
(1.81721 -0.00303919 0)
(1.81878 -0.010935 0)
(1.81838 -0.0181636 0)
(1.81604 -0.0244998 0)
(1.81184 -0.0296795 0)
(1.80604 -0.0335594 0)
(1.79893 -0.0361661 0)
(1.79086 -0.0375502 0)
(1.78218 -0.037758 0)
(1.77323 -0.036851 0)
(1.76434 -0.0349139 0)
(1.75581 -0.0320399 0)
(1.7479 -0.0283134 0)
(1.7408 -0.0238223 0)
(1.73471 -0.0186588 0)
(1.72977 -0.0129289 0)
(1.72611 -0.00677022 0)
(1.7238 -0.000364397 0)
(1.72286 0.00606413 0)
(1.72329 0.0122741 0)
(1.72504 0.018027 0)
(1.72804 0.0230914 0)
(1.73217 0.0272493 0)
(1.73725 0.0303425 0)
(1.74314 0.0322996 0)
(1.74964 0.0330942 0)
(1.75657 0.032716 0)
(1.76374 0.0311786 0)
(1.77095 0.0285481 0)
(1.77791 0.0249612 0)
(1.78434 0.0206218 0)
(1.78998 0.0157278 0)
(1.79463 0.0104752 0)
(1.79814 0.00505909 0)
(1.8004 -0.000315968 0)
(1.80139 -0.00546228 0)
(1.80108 -0.0102204 0)
(1.79947 -0.0144279 0)
(1.79663 -0.0178897 0)
(1.79272 -0.0205055 0)
(1.7879 -0.0222736 0)
(1.78241 -0.0232128 0)
(1.77649 -0.0233465 0)
(1.77035 -0.0227161 0)
(1.76422 -0.0213848 0)
(1.75835 -0.019431 0)
(1.75289 -0.0169307 0)
(1.74802 -0.013961 0)
(1.74385 -0.010599 0)
(1.74048 -0.0069282 0)
(1.73799 -0.00304649 0)
(1.73643 0.000925608 0)
(1.73578 0.00484941 0)
(1.73605 0.00858283 0)
(1.73721 0.0119836 0)
(1.73922 0.0149035 0)
(1.74198 0.0172096 0)
(1.7454 0.0188377 0)
(1.74936 0.0197586 0)
(1.75375 0.0199577 0)
(1.75844 0.0194305 0)
(1.76331 0.0181971 0)
(1.7682 0.0163112 0)
(1.77294 0.013867 0)
(1.77731 0.0109952 0)
(1.78116 0.00781855 0)
(1.78436 0.00446014 0)
(1.78681 0.00104314 0)
(1.78846 -0.00230622 0)
(1.7893 -0.00547712 0)
(1.78931 -0.00837726 0)
(1.7885 -0.0109156 0)
(1.7869 -0.012973 0)
(1.78461 -0.0144645 0)
(1.78173 -0.0153921 0)
(1.77841 -0.0157774 0)
(1.77477 -0.0156412 0)
(1.77098 -0.0150132 0)
(1.76716 -0.0139374 0)
(1.76347 -0.0124723 0)
(1.76004 -0.0106782 0)
(1.75698 -0.00861445 0)
(1.75436 -0.00633854 0)
(1.75227 -0.00390947 0)
(1.75073 -0.00139808 0)
(1.74978 0.00111789 0)
(1.74941 0.00355724 0)
(1.74962 0.00584079 0)
(1.75041 0.00788567 0)
(1.75174 0.0096003 0)
(1.75355 0.0109151 0)
(1.75578 0.0118039 0)
(1.75836 0.012258 0)
(1.76121 0.012274 0)
(1.76423 0.0118567 0)
(1.76735 0.0110291 0)
(1.77046 0.00983239 0)
(1.77343 0.00833153 0)
(1.77614 0.0065966 0)
(1.7785 0.00469604 0)
(1.78044 0.00269737 0)
(1.78191 0.000670803 0)
(1.78289 -0.00131293 0)
(1.78335 -0.00319262 0)
(1.7833 -0.0049173 0)
(1.78273 -0.00642804 0)
(1.78166 -0.00764086 0)
(1.78015 -0.00851497 0)
(1.77826 -0.00905125 0)
(1.77606 -0.00925826 0)
(1.77365 -0.00914815 0)
(1.77108 -0.00872432 0)
(1.76853 -0.00805207 0)
(1.76582 -0.00701253 0)
(1.76374 -0.00612909 0)
(1.7606 -0.00397009 0)
(1.62605 0.0373553 0)
(1.63765 0.0347095 0)
(1.64886 0.0307823 0)
(1.65923 0.0258358 0)
(1.66835 0.0201425 0)
(1.67588 0.0139701 0)
(1.68158 0.00757533 0)
(1.68533 0.00118555 0)
(1.68709 -0.00500005 0)
(1.68683 -0.0107879 0)
(1.68461 -0.0159263 0)
(1.68058 -0.0201931 0)
(1.67501 -0.0235743 0)
(1.6682 -0.0260799 0)
(1.6605 -0.0277135 0)
(1.65223 -0.0284867 0)
(1.64369 -0.028429 0)
(1.63516 -0.0275882 0)
(1.6269 -0.0260114 0)
(1.6191 -0.0237328 0)
(1.61196 -0.0207931 0)
(1.60565 -0.0172546 0)
(1.60032 -0.013195 0)
(1.59612 -0.0087032 0)
(1.59315 -0.00388417 0)
(1.5915 0.00112692 0)
(1.59123 0.00615119 0)
(1.59234 0.0109671 0)
(1.59482 0.0153355 0)
(1.59858 0.0190863 0)
(1.60348 0.0220789 0)
(1.60935 0.0242018 0)
(1.61597 0.0253796 0)
(1.62313 0.0255816 0)
(1.63057 0.0248297 0)
(1.638 0.0231997 0)
(1.64508 0.0208173 0)
(1.65154 0.0178241 0)
(1.65714 0.0143638 0)
(1.66168 0.0105744 0)
(1.66504 0.00659247 0)
(1.66713 0.00254952 0)
(1.66791 -0.00142176 0)
(1.66736 -0.00517393 0)
(1.66553 -0.00850289 0)
(1.66251 -0.0113062 0)
(1.65849 -0.0135602 0)
(1.65368 -0.0152495 0)
(1.64829 -0.0163597 0)
(1.64255 -0.0168875 0)
(1.63666 -0.0168518 0)
(1.63084 -0.0162905 0)
(1.62525 -0.0152428 0)
(1.62004 -0.0137417 0)
(1.61532 -0.0118264 0)
(1.61123 -0.00955203 0)
(1.60785 -0.00698252 0)
(1.60527 -0.00418367 0)
(1.60353 -0.00122321 0)
(1.60269 0.00180798 0)
(1.60276 0.00479091 0)
(1.60376 0.00757234 0)
(1.60565 0.0100185 0)
(1.60838 0.012044 0)
(1.61183 0.0135774 0)
(1.61588 0.0145621 0)
(1.62039 0.0149631 0)
(1.62519 0.0147746 0)
(1.63011 0.014025 0)
(1.63496 0.0127762 0)
(1.63953 0.0111073 0)
(1.64366 0.0091025 0)
(1.6472 0.00684425 0)
(1.65006 0.00441604 0)
(1.65216 0.00190227 0)
(1.65345 -0.000618913 0)
(1.65394 -0.00307087 0)
(1.6536 -0.0053638 0)
(1.65247 -0.00737013 0)
(1.65063 -0.00901662 0)
(1.64816 -0.0102897 0)
(1.6452 -0.0111836 0)
(1.6419 -0.0116916 0)
(1.63838 -0.0118132 0)
(1.63478 -0.0115652 0)
(1.63123 -0.0109799 0)
(1.62785 -0.0100918 0)
(1.62473 -0.00893202 0)
(1.62194 -0.0075322 0)
(1.61957 -0.00593273 0)
(1.61767 -0.00417979 0)
(1.61628 -0.00231982 0)
(1.61544 -0.000402862 0)
(1.61517 0.00151077 0)
(1.61547 0.0033439 0)
(1.61635 0.00500221 0)
(1.61777 0.0064243 0)
(1.61968 0.00756982 0)
(1.62201 0.00840535 0)
(1.62467 0.00890591 0)
(1.62756 0.00906008 0)
(1.63057 0.00887604 0)
(1.63359 0.0083809 0)
(1.6365 0.00761547 0)
(1.63919 0.00662393 0)
(1.64157 0.00545005 0)
(1.64357 0.00413587 0)
(1.64514 0.00272519 0)
(1.64623 0.00126206 0)
(1.64685 -0.000211367 0)
(1.64696 -0.00164909 0)
(1.64656 -0.00298247 0)
(1.64568 -0.00413301 0)
(1.64436 -0.00507475 0)
(1.64267 -0.00579753 0)
(1.64068 -0.00629444 0)
(1.63848 -0.0065572 0)
(1.63615 -0.00658625 0)
(1.63376 -0.00638977 0)
(1.63142 -0.0059847 0)
(1.62918 -0.00539863 0)
(1.62704 -0.00458649 0)
(1.62534 -0.00385856 0)
(1.62317 -0.00213351 0)
(1.49758 0.0255827 0)
(1.50701 0.0234171 0)
(1.51563 0.0204667 0)
(1.52313 0.0168945 0)
(1.52926 0.0128757 0)
(1.53387 0.00857879 0)
(1.53688 0.00414838 0)
(1.53827 -0.000283437 0)
(1.53805 -0.00455512 0)
(1.5363 -0.00843815 0)
(1.53316 -0.0118279 0)
(1.52886 -0.0147025 0)
(1.52361 -0.0170237 0)
(1.51767 -0.0187576 0)
(1.51124 -0.0198902 0)
(1.50454 -0.0204214 0)
(1.49775 -0.0203614 0)
(1.49106 -0.0197282 0)
(1.48464 -0.0185397 0)
(1.47863 -0.0168231 0)
(1.4732 -0.014618 0)
(1.46848 -0.0119756 0)
(1.4646 -0.00895684 0)
(1.46168 -0.00563171 0)
(1.45982 -0.00208184 0)
(1.4591 0.00158349 0)
(1.45957 0.00520372 0)
(1.46125 0.00859431 0)
(1.46407 0.0116316 0)
(1.46792 0.0141979 0)
(1.47263 0.0161901 0)
(1.478 0.0175344 0)
(1.4838 0.0181966 0)
(1.48977 0.0181863 0)
(1.49563 0.0175549 0)
(1.50115 0.0163738 0)
(1.50611 0.0147154 0)
(1.51035 0.0126581 0)
(1.51374 0.0102904 0)
(1.51618 0.00769453 0)
(1.51763 0.00494834 0)
(1.51807 0.00214894 0)
(1.51748 -0.00056187 0)
(1.51592 -0.00306042 0)
(1.5135 -0.00530353 0)
(1.51036 -0.00725198 0)
(1.50664 -0.00886024 0)
(1.5025 -0.0100925 0)
(1.49808 -0.0109296 0)
(1.49354 -0.0113658 0)
(1.48901 -0.0114076 0)
(1.4846 -0.0110682 0)
(1.48044 -0.0103631 0)
(1.47663 -0.00931796 0)
(1.47326 -0.00796892 0)
(1.47041 -0.00635901 0)
(1.46817 -0.00453445 0)
(1.46658 -0.00254222 0)
(1.4657 -0.000438855 0)
(1.46557 0.00169777 0)
(1.46621 0.00374574 0)
(1.46759 0.00561452 0)
(1.46966 0.00724028 0)
(1.47233 0.00856032 0)
(1.47547 0.00952243 0)
(1.47896 0.0100943 0)
(1.48265 0.0102654 0)
(1.48637 0.0100485 0)
(1.48997 0.00947859 0)
(1.49333 0.00859411 0)
(1.49633 0.00743266 0)
(1.49887 0.00604109 0)
(1.50088 0.00447217 0)
(1.50233 0.00277825 0)
(1.50318 0.00101109 0)
(1.50343 -0.000766278 0)
(1.50307 -0.00246939 0)
(1.50214 -0.00401579 0)
(1.5007 -0.00537616 0)
(1.49882 -0.00652443 0)
(1.4966 -0.00743056 0)
(1.49413 -0.00807087 0)
(1.4915 -0.00843554 0)
(1.48881 -0.00852654 0)
(1.48615 -0.00835651 0)
(1.4836 -0.00794187 0)
(1.48121 -0.00730014 0)
(1.47907 -0.00645488 0)
(1.47721 -0.00543552 0)
(1.4757 -0.00427365 0)
(1.47458 -0.00300211 0)
(1.47386 -0.00165514 0)
(1.47359 -0.000274137 0)
(1.47376 0.0010832 0)
(1.47438 0.00235052 0)
(1.47542 0.00349077 0)
(1.47683 0.00446927 0)
(1.47854 0.00525313 0)
(1.48049 0.00581742 0)
(1.48258 0.00614958 0)
(1.48474 0.00624987 0)
(1.48686 0.00613123 0)
(1.48887 0.0058129 0)
(1.49071 0.00531335 0)
(1.49232 0.00465395 0)
(1.49364 0.00386182 0)
(1.49464 0.00296391 0)
(1.49531 0.00198649 0)
(1.49562 0.000961161 0)
(1.49557 -6.52934e-05 0)
(1.49516 -0.00103505 0)
(1.49441 -0.00192007 0)
(1.49336 -0.00270265 0)
(1.49206 -0.00336268 0)
(1.49057 -0.00387887 0)
(1.48894 -0.00423627 0)
(1.48722 -0.00442782 0)
(1.48549 -0.00445498 0)
(1.48377 -0.00432204 0)
(1.48214 -0.00403354 0)
(1.4806 -0.00360674 0)
(1.47922 -0.00301172 0)
(1.47807 -0.0024455 0)
(1.47683 -0.00112918 0)
(1.34131 0.0176907 0)
(1.34717 0.0162994 0)
(1.35235 0.0143519 0)
(1.35671 0.011949 0)
(1.36013 0.00919911 0)
(1.36253 0.00621056 0)
(1.3639 0.00309448 0)
(1.36423 -3.5046e-05 0)
(1.36353 -0.00304269 0)
(1.3619 -0.00581959 0)
(1.35944 -0.00830443 0)
(1.35627 -0.0104329 0)
(1.35253 -0.0121601 0)
(1.34835 -0.0134598 0)
(1.34385 -0.0143181 0)
(1.33917 -0.014731 0)
(1.33444 -0.0147022 0)
(1.32978 -0.0142422 0)
(1.3253 -0.0133676 0)
(1.32114 -0.0121018 0)
(1.31739 -0.0104754 0)
(1.31417 -0.00852884 0)
(1.31156 -0.00631164 0)
(1.30965 -0.00388134 0)
(1.30851 -0.00130486 0)
(1.30819 0.00133083 0)
(1.30871 0.00390697 0)
(1.31005 0.00631778 0)
(1.31213 0.00848162 0)
(1.31485 0.0103223 0)
(1.31807 0.0117774 0)
(1.32164 0.0128033 0)
(1.32538 0.0133783 0)
(1.32911 0.0135041 0)
(1.3327 0.0131989 0)
(1.33601 0.0124902 0)
(1.33893 0.01142 0)
(1.34136 0.0100413 0)
(1.34323 0.00841304 0)
(1.34451 0.00659652 0)
(1.34514 0.0046584 0)
(1.34512 0.00267986 0)
(1.34447 0.000743065 0)
(1.34324 -0.0011006 0)
(1.34149 -0.00279238 0)
(1.3393 -0.00428119 0)
(1.33675 -0.00552986 0)
(1.33393 -0.00651245 0)
(1.33092 -0.00721273 0)
(1.32783 -0.00762181 0)
(1.32474 -0.00773704 0)
(1.32173 -0.00756484 0)
(1.31888 -0.0071193 0)
(1.31628 -0.00642062 0)
(1.31399 -0.00549435 0)
(1.31206 -0.00437172 0)
(1.31057 -0.00308941 0)
(1.30954 -0.00168644 0)
(1.30901 -0.000208079 0)
(1.309 0.00128546 0)
(1.30952 0.00271577 0)
(1.31052 0.00402795 0)
(1.31195 0.00517381 0)
(1.31375 0.00611074 0)
(1.31582 0.00680532 0)
(1.31808 0.0072353 0)
(1.32042 0.00739077 0)
(1.32276 0.00727397 0)
(1.32499 0.00689671 0)
(1.32705 0.0062792 0)
(1.32888 0.0054507 0)
(1.3304 0.00444601 0)
(1.33159 0.00330507 0)
(1.3324 0.00206818 0)
(1.33282 0.000776663 0)
(1.33284 -0.000520398 0)
(1.33247 -0.00176543 0)
(1.33172 -0.00291732 0)
(1.33065 -0.00394053 0)
(1.3293 -0.00480379 0)
(1.32773 -0.00548575 0)
(1.32599 -0.00597312 0)
(1.32414 -0.00625964 0)
(1.32225 -0.00634513 0)
(1.32038 -0.00623467 0)
(1.31857 -0.00593881 0)
(1.31689 -0.00547248 0)
(1.31538 -0.0048539 0)
(1.31407 -0.00410382 0)
(1.313 -0.00324631 0)
(1.3122 -0.00230792 0)
(1.31169 -0.00131632 0)
(1.31148 -0.000302547 0)
(1.31157 0.000696171 0)
(1.31196 0.00163672 0)
(1.31261 0.00248794 0)
(1.31348 0.00322389 0)
(1.31454 0.00382319 0)
(1.31574 0.00426983 0)
(1.31702 0.00455426 0)
(1.31832 0.00467333 0)
(1.31959 0.0046302 0)
(1.32079 0.00443318 0)
(1.32188 0.00409618 0)
(1.32282 0.00363646 0)
(1.32358 0.00307436 0)
(1.32413 0.00243024 0)
(1.32446 0.00172594 0)
(1.32456 0.000988333 0)
(1.32442 0.000251822 0)
(1.32404 -0.00045881 0)
(1.32346 -0.00112029 0)
(1.32269 -0.00170852 0)
(1.32176 -0.00220472 0)
(1.32071 -0.00259526 0)
(1.31956 -0.0028708 0)
(1.31836 -0.00302568 0)
(1.31715 -0.00305752 0)
(1.31595 -0.00296514 0)
(1.3148 -0.0027513 0)
(1.31372 -0.00242962 0)
(1.31275 -0.00197032 0)
(1.31192 -0.00152648 0)
(1.31108 -0.000485464 0)
(1.14203 0.0131372 0)
(1.14579 0.0121384 0)
(1.14916 0.0107213 0)
(1.15202 0.00895931 0)
(1.15429 0.00693417 0)
(1.15591 0.00473157 0)
(1.15684 0.00243132 0)
(1.15707 0.000115649 0)
(1.1566 -0.00212281 0)
(1.15549 -0.00419423 0)
(1.15379 -0.006043 0)
(1.15158 -0.00762604 0)
(1.14895 -0.00891136 0)
(1.14598 -0.00987652 0)
(1.14277 -0.0105088 0)
(1.13942 -0.0108042 0)
(1.13601 -0.0107654 0)
(1.13265 -0.0104 0)
(1.12941 -0.00972084 0)
(1.1264 -0.00874707 0)
(1.12368 -0.00750479 0)
(1.12135 -0.00602607 0)
(1.11945 -0.00434855 0)
(1.11805 -0.00251767 0)
(1.11719 -0.000591807 0)
(1.1169 0.00137021 0)
(1.11719 0.00329291 0)
(1.11803 0.00509692 0)
(1.11936 0.00672586 0)
(1.12113 0.00812612 0)
(1.12324 0.00925126 0)
(1.1256 0.0100672 0)
(1.12811 0.0105541 0)
(1.13067 0.0107041 0)
(1.13317 0.0105248 0)
(1.13554 0.0100385 0)
(1.13768 0.00927754 0)
(1.13953 0.00828088 0)
(1.14102 0.00709319 0)
(1.14213 0.00576183 0)
(1.14281 0.00433418 0)
(1.14305 0.00285935 0)
(1.14285 0.00140186 0)
(1.14224 1.50237e-05 0)
(1.14125 -0.00126407 0)
(1.13993 -0.00240133 0)
(1.13832 -0.00336699 0)
(1.1365 -0.00413897 0)
(1.13451 -0.0047032 0)
(1.13243 -0.00505193 0)
(1.13033 -0.00518127 0)
(1.12826 -0.00509452 0)
(1.12628 -0.00480265 0)
(1.12447 -0.0043212 0)
(1.12286 -0.00367005 0)
(1.12151 -0.00287243 0)
(1.12046 -0.00195561 0)
(1.11973 -0.000952353 0)
(1.11936 0.000103286 0)
(1.11935 0.00116819 0)
(1.1197 0.00218752 0)
(1.12039 0.00312215 0)
(1.12138 0.00393843 0)
(1.12262 0.00460523 0)
(1.12405 0.00509729 0)
(1.12563 0.0053977 0)
(1.12728 0.00549861 0)
(1.12894 0.00540035 0)
(1.13054 0.00511166 0)
(1.13202 0.00464834 0)
(1.13335 0.00403127 0)
(1.13446 0.00328591 0)
(1.13534 0.00244156 0)
(1.13594 0.00152606 0)
(1.13625 0.000571307 0)
(1.13626 -0.000387384 0)
(1.13599 -0.00130719 0)
(1.13544 -0.00215548 0)
(1.13464 -0.00290856 0)
(1.13362 -0.00354627 0)
(1.13243 -0.0040525 0)
(1.13111 -0.00441577 0)
(1.1297 -0.00463017 0)
(1.12825 -0.00469488 0)
(1.1268 -0.00461296 0)
(1.1254 -0.00439172 0)
(1.12407 -0.00404186 0)
(1.12287 -0.0035771 0)
(1.12182 -0.00301339 0)
(1.12094 -0.00236921 0)
(1.12026 -0.00166447 0)
(1.11979 -0.000920515 0)
(1.11954 -0.000162196 0)
(1.11951 0.000585854 0)
(1.1197 0.00129439 0)
(1.12008 0.00193634 0)
(1.12063 0.0024947 0)
(1.12133 0.00295399 0)
(1.12213 0.00330197 0)
(1.123 0.00353106 0)
(1.1239 0.00363767 0)
(1.1248 0.00362291 0)
(1.12567 0.00349358 0)
(1.12646 0.00325971 0)
(1.12716 0.00293359 0)
(1.12773 0.00252929 0)
(1.12817 0.00206293 0)
(1.12844 0.00155136 0)
(1.12855 0.00101253 0)
(1.12849 0.000470528 0)
(1.12826 -5.25566e-05 0)
(1.12788 -0.000539167 0)
(1.12736 -0.000974814 0)
(1.12672 -0.00134571 0)
(1.12598 -0.00164055 0)
(1.12517 -0.0018509 0)
(1.12432 -0.00197117 0)
(1.12345 -0.00199855 0)
(1.12258 -0.00192968 0)
(1.12176 -0.00176965 0)
(1.12098 -0.00151736 0)
(1.1203 -0.00116746 0)
(1.11969 -0.000800361 0)
(1.11915 2.91114e-05 0)
(0.905284 0.00978048 0)
(0.908291 0.00903717 0)
(0.91101 0.00799105 0)
(0.913348 0.00669408 0)
(0.915234 0.00520536 0)
(0.916612 0.00358524 0)
(0.917448 0.00188872 0)
(0.917725 0.000179053 0)
(0.917447 -0.00147109 0)
(0.916646 -0.0029951 0)
(0.915373 -0.00435665 0)
(0.913686 -0.0055232 0)
(0.911653 -0.00646871 0)
(0.909348 -0.00717537 0)
(0.906847 -0.00763291 0)
(0.904228 -0.00783772 0)
(0.90157 -0.00779183 0)
(0.898953 -0.00750146 0)
(0.896449 -0.00697637 0)
(0.894131 -0.00623187 0)
(0.892065 -0.00528852 0)
(0.890314 -0.00417175 0)
(0.888929 -0.00291063 0)
(0.887949 -0.00153724 0)
(0.887412 -8.81702e-05 0)
(0.887347 0.00138086 0)
(0.887749 0.00280882 0)
(0.888595 0.00414942 0)
(0.889851 0.00536116 0)
(0.891467 0.00640385 0)
(0.893383 0.00724378 0)
(0.895527 0.00785627 0)
(0.897824 0.00822686 0)
(0.900192 0.00834986 0)
(0.902549 0.00822983 0)
(0.904819 0.00788219 0)
(0.906932 0.00732964 0)
(0.90883 0.00659969 0)
(0.91046 0.00572649 0)
(0.911784 0.00474546 0)
(0.912773 0.00369445 0)
(0.91341 0.00261242 0)
(0.913694 0.00153518 0)
(0.913635 0.000496001 0)
(0.913256 -0.000464798 0)
(0.912591 -0.00131999 0)
(0.911681 -0.00205019 0)
(0.910569 -0.00263955 0)
(0.909305 -0.00307727 0)
(0.907943 -0.00335737 0)
(0.906533 -0.00347688 0)
(0.905134 -0.00343781 0)
(0.903792 -0.00324772 0)
(0.902556 -0.0029183 0)
(0.901472 -0.00246446 0)
(0.900578 -0.00190328 0)
(0.899903 -0.00125526 0)
(0.899474 -0.000541608 0)
(0.899313 0.000210141 0)
(0.899428 0.000962016 0)
(0.899812 0.0016818 0)
(0.900447 0.0023437 0)
(0.901306 0.00292187 0)
(0.902356 0.00339347 0)
(0.903554 0.00374055 0)
(0.904854 0.00395096 0)
(0.906206 0.00401884 0)
(0.907557 0.00394411 0)
(0.90886 0.00373215 0)
(0.910068 0.00339341 0)
(0.911139 0.00294341 0)
(0.91204 0.0024013 0)
(0.912742 0.00178683 0)
(0.913223 0.00112082 0)
(0.913469 0.000426186 0)
(0.913473 -0.000270477 0)
(0.913238 -0.000936366 0)
(0.912781 -0.00155063 0)
(0.912122 -0.00209641 0)
(0.91129 -0.00255817 0)
(0.910314 -0.00292378 0)
(0.90923 -0.00318495 0)
(0.908074 -0.0033373 0)
(0.906883 -0.00338004 0)
(0.905694 -0.00331539 0)
(0.904543 -0.00314839 0)
(0.90346 -0.00288652 0)
(0.902477 -0.00254032 0)
(0.901619 -0.00212148 0)
(0.900908 -0.00164351 0)
(0.900361 -0.00112145 0)
(0.899989 -0.000570816 0)
(0.8998 -7.57611e-06 0)
(0.899799 0.000547224 0)
(0.899977 0.00107021 0)
(0.90032 0.00154531 0)
(0.900808 0.00196008 0)
(0.901419 0.00230272 0)
(0.902126 0.00256419 0)
(0.902902 0.00273868 0)
(0.903715 0.00282361 0)
(0.904536 0.00281941 0)
(0.905335 0.0027303 0)
(0.906087 0.00256339 0)
(0.906766 0.00232776 0)
(0.907354 0.0020345 0)
(0.907832 0.00169607 0)
(0.908189 0.00132526 0)
(0.908414 0.000935665 0)
(0.908506 0.000540966 0)
(0.908467 0.000156095 0)
(0.908302 -0.000202446 0)
(0.908024 -0.000523739 0)
(0.907648 -0.00079784 0)
(0.907193 -0.00101657 0)
(0.906679 -0.00117366 0)
(0.906125 -0.00126468 0)
(0.905557 -0.0012867 0)
(0.90499 -0.00123663 0)
(0.904463 -0.00111864 0)
(0.903962 -0.000926533 0)
(0.903568 -0.000662779 0)
(0.903178 -0.0003602 0)
(0.903016 0.000286149 0)
(0.650229 0.00672731 0)
(0.653007 0.00620046 0)
(0.655516 0.00546797 0)
(0.657674 0.00456486 0)
(0.659416 0.00353122 0)
(0.6607 0.00240694 0)
(0.661495 0.00123674 0)
(0.661794 6.00349e-05 0)
(0.661596 -0.00106827 0)
(0.66093 -0.00210973 0)
(0.659847 -0.00304111 0)
(0.6584 -0.0038377 0)
(0.656654 -0.00448044 0)
(0.654675 -0.00495655 0)
(0.652536 -0.00525897 0)
(0.650309 -0.00538535 0)
(0.648068 -0.00533749 0)
(0.645885 -0.00511972 0)
(0.643827 -0.00473925 0)
(0.64196 -0.00420762 0)
(0.640345 -0.00354043 0)
(0.639035 -0.00275626 0)
(0.638076 -0.00187562 0)
(0.637507 -0.000917807 0)
(0.637351 9.35774e-05 0)
(0.637625 0.00109963 0)
(0.638328 0.00207731 0)
(0.639439 0.00299831 0)
(0.640923 0.00382991 0)
(0.642737 0.00454376 0)
(0.644824 0.00511723 0)
(0.64712 0.00553384 0)
(0.649555 0.00578394 0)
(0.652058 0.00586438 0)
(0.654552 0.00577864 0)
(0.656969 0.00553663 0)
(0.659245 0.00515357 0)
(0.661324 0.00464923 0)
(0.663158 0.00404631 0)
(0.664712 0.00337016 0)
(0.665962 0.00264767 0)
(0.666892 0.00190602 0)
(0.6675 0.00116842 0)
(0.667794 0.000456968 0)
(0.667789 -0.000207353 0)
(0.667513 -0.000799986 0)
(0.667005 -0.00130423 0)
(0.666304 -0.0017122 0)
(0.665453 -0.00201659 0)
(0.6645 -0.00221314 0)
(0.663489 -0.00229983 0)
(0.662472 -0.00227882 0)
(0.66149 -0.00215412 0)
(0.660588 -0.00193371 0)
(0.659804 -0.00162804 0)
(0.659173 -0.00125106 0)
(0.658721 -0.000815416 0)
(0.65847 -0.000333572 0)
(0.658439 0.000170917 0)
(0.658631 0.000672924 0)
(0.659043 0.00115644 0)
(0.659659 0.00160163 0)
(0.660456 0.00199023 0)
(0.661407 0.00230693 0)
(0.662476 0.00253973 0)
(0.663623 0.00268061 0)
(0.664808 0.00272569 0)
(0.665985 0.00267494 0)
(0.667115 0.00253176 0)
(0.668159 0.00230315 0)
(0.669083 0.00199945 0)
(0.669855 0.00163269 0)
(0.670452 0.00121641 0)
(0.670857 0.000766889 0)
(0.671061 0.000298928 0)
(0.671058 -0.000168843 0)
(0.670851 -0.000614891 0)
(0.670454 -0.00102797 0)
(0.669888 -0.00139572 0)
(0.669176 -0.00170711 0)
(0.668345 -0.0019537 0)
(0.667426 -0.0021297 0)
(0.66645 -0.00223192 0)
(0.66545 -0.0022597 0)
(0.664459 -0.00221441 0)
(0.663507 -0.0020992 0)
(0.662623 -0.00191937 0)
(0.661833 -0.00168181 0)
(0.66116 -0.00139519 0)
(0.660623 -0.00106928 0)
(0.660236 -0.000713978 0)
(0.660009 -0.00033808 0)
(0.65995 4.95416e-05 0)
(0.660059 0.000424173 0)
(0.66033 0.000777579 0)
(0.660749 0.00110061 0)
(0.661299 0.00138295 0)
(0.66196 0.00161615 0)
(0.66271 0.00179409 0)
(0.663523 0.00191283 0)
(0.664372 0.00197076 0)
(0.665231 0.00196819 0)
(0.666073 0.00190777 0)
(0.666875 0.00179413 0)
(0.667615 0.0016334 0)
(0.668274 0.00143299 0)
(0.668838 0.00120152 0)
(0.669294 0.000948522 0)
(0.669637 0.000684127 0)
(0.669863 0.000417627 0)
(0.669973 0.000156783 0)
(0.669971 -9.12929e-05 0)
(0.669868 -0.000313183 0)
(0.669677 -0.000501591 0)
(0.669413 -0.000652111 0)
(0.669094 -0.000760246 0)
(0.668738 -0.000822961 0)
(0.668366 -0.000837857 0)
(0.667996 -0.000803275 0)
(0.667656 -0.000719644 0)
(0.667343 -0.000582115 0)
(0.667129 -0.000392575 0)
(0.666897 -0.000165688 0)
(0.666997 0.000306946 0)
(0.393162 0.00389042 0)
(0.39576 0.00360335 0)
(0.398092 0.00319457 0)
(0.400082 0.00268428 0)
(0.401671 0.00209578 0)
(0.40282 0.00145348 0)
(0.403509 0.000780521 0)
(0.403738 8.92894e-05 0)
(0.403491 -0.000591497 0)
(0.402801 -0.00121749 0)
(0.401728 -0.00177651 0)
(0.40032 -0.00225726 0)
(0.398636 -0.00264979 0)
(0.396742 -0.00294676 0)
(0.394707 -0.00314383 0)
(0.3926 -0.0032394 0)
(0.390496 -0.00323363 0)
(0.388461 -0.00312841 0)
(0.386562 -0.00292804 0)
(0.384862 -0.00263896 0)
(0.383417 -0.00226951 0)
(0.382278 -0.00183023 0)
(0.381482 -0.00133334 0)
(0.381061 -0.00078949 0)
(0.38103 -0.000210989 0)
(0.381413 0.000384394 0)
(0.38221 0.000965083 0)
(0.383387 0.00150652 0)
(0.384911 0.00199274 0)
(0.38674 0.00240968 0)
(0.388821 0.00274586 0)
(0.391094 0.00299333 0)
(0.393492 0.00314704 0)
(0.395945 0.00320436 0)
(0.398385 0.00316635 0)
(0.400749 0.00303886 0)
(0.402978 0.00283101 0)
(0.405018 0.00255344 0)
(0.406825 0.00221865 0)
(0.408365 0.00184094 0)
(0.409613 0.00143444 0)
(0.410559 0.00101389 0)
(0.411202 0.000595385 0)
(0.411556 0.000191154 0)
(0.411627 -0.000196611 0)
(0.411438 -0.000539246 0)
(0.411031 -0.000828972 0)
(0.410443 -0.00106302 0)
(0.409714 -0.00123722 0)
(0.408887 -0.00134966 0)
(0.408004 -0.00139988 0)
(0.407113 -0.00138801 0)
(0.406253 -0.00131534 0)
(0.405466 -0.00118745 0)
(0.404786 -0.00101061 0)
(0.404246 -0.000791356 0)
(0.403871 -0.000536099 0)
(0.403676 -0.000254301 0)
(0.40368 4.81291e-05 0)
(0.403891 0.000351421 0)
(0.4043 0.000640415 0)
(0.404891 0.000904956 0)
(0.405645 0.001136 0)
(0.406535 0.00132543 0)
(0.40753 0.00146677 0)
(0.408595 0.00155564 0)
(0.409691 0.00158968 0)
(0.410779 0.0015683 0)
(0.411823 0.00149262 0)
(0.412784 0.00136642 0)
(0.413634 0.00119504 0)
(0.414344 0.000986348 0)
(0.414894 0.000749722 0)
(0.415268 0.000493636 0)
(0.41546 0.000223808 0)
(0.415462 -5.51358e-05 0)
(0.415274 -0.000322894 0)
(0.414914 -0.000569853 0)
(0.414402 -0.000789621 0)
(0.413759 -0.000976738 0)
(0.413008 -0.00112675 0)
(0.412178 -0.0012365 0)
(0.411299 -0.00130417 0)
(0.4104 -0.0013292 0)
(0.409511 -0.00131201 0)
(0.408661 -0.00125428 0)
(0.407876 -0.00115902 0)
(0.40718 -0.00103012 0)
(0.406596 -0.000872391 0)
(0.40614 -0.000691076 0)
(0.405825 -0.000491919 0)
(0.405661 -0.000279744 0)
(0.405648 -5.92146e-05 0)
(0.405791 0.000161193 0)
(0.406087 0.000368827 0)
(0.406518 0.000556782 0)
(0.407069 0.000720533 0)
(0.407721 0.00085589 0)
(0.408453 0.000959527 0)
(0.409242 0.00102955 0)
(0.410063 0.00106531 0)
(0.410892 0.00106666 0)
(0.411704 0.00103472 0)
(0.412478 0.000972213 0)
(0.413193 0.000882824 0)
(0.413833 0.000770608 0)
(0.414383 0.000640332 0)
(0.414833 0.000496996 0)
(0.415176 0.000346018 0)
(0.41541 0.000193421 0)
(0.415537 4.37905e-05 0)
(0.415561 -0.000100296 0)
(0.415491 -0.000228021 0)
(0.41534 -0.000335776 0)
(0.415121 -0.000421806 0)
(0.414852 -0.000483542 0)
(0.414549 -0.000519059 0)
(0.414232 -0.000526184 0)
(0.413921 -0.000504303 0)
(0.413636 -0.000451566 0)
(0.413388 -0.00036869 0)
(0.41323 -0.000252553 0)
(0.413067 -0.000105389 0)
(0.413274 0.000193556 0)
(0.135099 0.00121399 0)
(0.137577 0.0011283 0)
(0.13984 0.00100375 0)
(0.141811 0.000846205 0)
(0.143428 0.000662462 0)
(0.14464 0.000460684 0)
(0.145416 0.000247818 0)
(0.145741 2.58609e-05 0)
(0.145633 -0.00021342 0)
(0.145114 -0.000424625 0)
(0.144198 -0.000610355 0)
(0.142926 -0.000769613 0)
(0.141352 -0.000900385 0)
(0.139532 -0.0010013 0)
(0.137531 -0.00107169 0)
(0.135414 -0.00111118 0)
(0.133249 -0.001119 0)
(0.131102 -0.00109534 0)
(0.129039 -0.00104159 0)
(0.127121 -0.000959365 0)
(0.125406 -0.000850494 0)
(0.123949 -0.000718248 0)
(0.122794 -0.000566669 0)
(0.121982 -0.000400477 0)
(0.121545 -0.000223221 0)
(0.121475 -2.02447e-05 0)
(0.121769 0.000171074 0)
(0.122427 0.000344448 0)
(0.123428 0.000500751 0)
(0.124736 0.000634875 0)
(0.126303 0.000743268 0)
(0.128076 0.000823607 0)
(0.129994 0.000875289 0)
(0.131996 0.000898917 0)
(0.134019 0.000894066 0)
(0.136001 0.00086117 0)
(0.137885 0.000802556 0)
(0.139621 0.000721505 0)
(0.141165 0.000622065 0)
(0.142483 0.000509049 0)
(0.143549 0.000387818 0)
(0.144346 0.000262934 0)
(0.144868 0.000138181 0)
(0.145117 1.50203e-05 0)
(0.145116 -0.000109866 0)
(0.144884 -0.000215017 0)
(0.144443 -0.000303019 0)
(0.143824 -0.000373975 0)
(0.143066 -0.000426993 0)
(0.142208 -0.000460769 0)
(0.14129 -0.000474916 0)
(0.140354 -0.000469712 0)
(0.139441 -0.000446589 0)
(0.138589 -0.000406259 0)
(0.137835 -0.000349646 0)
(0.137209 -0.000278587 0)
(0.13674 -0.000197622 0)
(0.13645 -0.000108594 0)
(0.136347 -7.34215e-06 0)
(0.136433 9.54544e-05 0)
(0.13671 0.000189869 0)
(0.137173 0.000275401 0)
(0.137805 0.000349692 0)
(0.138581 0.000410573 0)
(0.139474 0.000456262 0)
(0.14045 0.000485501 0)
(0.141474 0.000497679 0)
(0.14251 0.00049252 0)
(0.14352 0.000470547 0)
(0.14447 0.000433035 0)
(0.145328 0.000381731 0)
(0.146065 0.000318342 0)
(0.146657 0.000244956 0)
(0.147088 0.000164342 0)
(0.147342 7.9069e-05 0)
(0.147421 -1.39436e-05 0)
(0.147329 -0.000104822 0)
(0.14707 -0.000186081 0)
(0.146654 -0.000257843 0)
(0.1461 -0.000318902 0)
(0.145428 -0.00036828 0)
(0.144664 -0.00040537 0)
(0.143835 -0.000429731 0)
(0.142967 -0.00044104 0)
(0.14209 -0.000439109 0)
(0.141231 -0.00042435 0)
(0.140416 -0.000397712 0)
(0.13967 -0.000360299 0)
(0.139014 -0.000313306 0)
(0.138466 -0.000258533 0)
(0.138043 -0.000198109 0)
(0.137755 -0.000134211 0)
(0.13761 -6.82916e-05 0)
(0.137602 6.67796e-06 0)
(0.137726 7.37781e-05 0)
(0.13798 0.000133199 0)
(0.138352 0.000184906 0)
(0.138825 0.000227837 0)
(0.139382 0.000260926 0)
(0.14 0.00028352 0)
(0.140658 0.000295656 0)
(0.141333 0.00029768 0)
(0.142002 0.000289648 0)
(0.142645 0.000271893 0)
(0.143241 0.00024548 0)
(0.143774 0.000211691 0)
(0.144231 0.000171965 0)
(0.144599 0.000128165 0)
(0.144871 8.20902e-05 0)
(0.145043 3.52448e-05 0)
(0.145115 -1.15208e-05 0)
(0.145094 -5.74639e-05 0)
(0.144986 -9.6978e-05 0)
(0.1448 -0.000130248 0)