/*--------------------------------*- C++ -*----------------------------------*\
| =========                 |                                                 |
| \\      /  F ield         | OpenFOAM: The Open Source CFD Toolbox           |
|  \\    /   O peration     | Version:  2206                                  |
|   \\  /    A nd           | Website:  www.openfoam.com                      |
|    \\/     M anipulation  |                                                 |
\*---------------------------------------------------------------------------*/
FoamFile
{
    version     2.0;
    format      ascii;
    arch        "LSB;label=32;scalar=64";
    class       surfaceScalarField;
    location    "19.4001";
    object      phi_0;
}
// * * * * * * * * * * * * * * * * * * * * * * * * * * * * * * * * * * * * * //

dimensions      [0 3 -1 0 0 0 0];

oriented        oriented;

internalField   nonuniform List<scalar> 
3516
(
5.98354e-06
1.1484e-07
-9.15901e-08
5.96552e-06
7.65724e-08
-5.85502e-08
5.95331e-06
3.50382e-08
-2.28295e-08
5.9473e-06
-8.44428e-09
1.44565e-08
5.94737e-06
-5.19272e-08
5.1852e-08
5.95309e-06
-9.34477e-08
8.77335e-08
5.96369e-06
-1.31107e-07
1.205e-07
5.97822e-06
-1.63266e-07
1.48744e-07
5.99561e-06
-1.88772e-07
1.71374e-07
6.01501e-06
-2.07078e-07
1.87679e-07
6.03584e-06
-2.18124e-07
1.97298e-07
6.05764e-06
-2.21991e-07
2.00189e-07
6.07988e-06
-2.18717e-07
1.96477e-07
6.10191e-06
-2.08326e-07
1.863e-07
6.12307e-06
-1.91189e-07
1.7003e-07
6.14283e-06
-1.68138e-07
1.48375e-07
6.16077e-06
-1.4014e-07
1.222e-07
6.17646e-06
-1.08182e-07
9.24929e-08
6.1893e-06
-7.33599e-08
6.05133e-08
6.19874e-06
-3.71158e-08
2.76774e-08
6.20451e-06
-1.08054e-09
-4.68923e-09
6.20652e-06
3.34253e-08
-3.54278e-08
6.2048e-06
6.52507e-08
-6.35362e-08
6.19958e-06
9.34091e-08
-8.81931e-08
6.1912e-06
1.17129e-07
-1.08748e-07
6.18e-06
1.35895e-07
-1.24694e-07
6.16629e-06
1.49425e-07
-1.35708e-07
6.15049e-06
1.57614e-07
-1.41818e-07
6.13319e-06
1.60553e-07
-1.43254e-07
6.11501e-06
1.58493e-07
-1.40308e-07
6.09664e-06
1.51607e-07
-1.33243e-07
6.07891e-06
1.40068e-07
-1.22331e-07
6.06251e-06
1.24335e-07
-1.07942e-07
6.04805e-06
1.04964e-07
-9.05051e-08
6.03603e-06
8.24888e-08
-7.0465e-08
6.02688e-06
5.74652e-08
-4.83124e-08
6.02098e-06
3.05615e-08
-2.46632e-08
6.01857e-06
2.80442e-09
-3.92767e-10
6.01956e-06
-2.45234e-08
2.35346e-08
6.0237e-06
-5.03156e-08
4.61754e-08
6.03058e-06
-7.35221e-08
6.66419e-08
6.03967e-06
-9.32727e-08
8.41751e-08
6.05045e-06
-1.08972e-07
9.82e-08
6.06243e-06
-1.20314e-07
1.08333e-07
6.07529e-06
-1.27237e-07
1.14378e-07
6.08873e-06
-1.2976e-07
1.16316e-07
6.10238e-06
-1.27865e-07
1.14218e-07
6.11578e-06
-1.21586e-07
1.0818e-07
6.12851e-06
-1.11169e-07
9.84446e-08
6.14018e-06
-9.71292e-08
8.54609e-08
6.15047e-06
-8.00565e-08
6.97664e-08
6.15904e-06
-6.05859e-08
5.20113e-08
6.16553e-06
-3.94236e-08
3.29316e-08
6.16965e-06
-1.74784e-08
1.33582e-08
6.17133e-06
4.24003e-09
-5.91337e-09
6.17058e-06
2.49249e-08
-2.41796e-08
6.16755e-06
4.38543e-08
-4.08175e-08
6.16242e-06
6.0418e-08
-5.52949e-08
6.15545e-06
7.41483e-08
-6.71754e-08
6.14683e-06
8.47268e-08
-7.61057e-08
6.13677e-06
9.19665e-08
-8.19098e-08
6.12559e-06
9.58016e-08
-8.46219e-08
6.11364e-06
9.6294e-08
-8.43386e-08
6.10127e-06
9.35729e-08
-8.12058e-08
6.08895e-06
8.77072e-08
-7.53895e-08
6.07717e-06
7.89119e-08
-6.7133e-08
6.06639e-06
6.75586e-08
-5.67718e-08
6.05699e-06
5.40317e-08
-4.46387e-08
6.04934e-06
3.87167e-08
-3.10668e-08
6.04374e-06
2.20508e-08
-1.64434e-08
6.04039e-06
4.62291e-09
-1.2761e-09
6.03933e-06
-1.28301e-08
1.38839e-08
6.04049e-06
-2.96112e-08
2.8459e-08
6.04366e-06
-4.50638e-08
4.18954e-08
6.04857e-06
-5.86113e-08
5.36972e-08
6.05491e-06
-6.97987e-08
6.34556e-08
6.06238e-06
-7.83256e-08
7.08591e-08
6.07072e-06
-8.40506e-08
7.57137e-08
6.07969e-06
-8.695e-08
7.7976e-08
6.08905e-06
-8.70481e-08
7.7685e-08
6.09855e-06
-8.43851e-08
7.48849e-08
6.10788e-06
-7.89793e-08
6.96476e-08
6.11675e-06
-7.10346e-08
6.21687e-08
6.1249e-06
-6.0892e-08
5.27472e-08
6.13207e-06
-4.89166e-08
4.17403e-08
6.138e-06
-3.55148e-08
2.9582e-08
6.14243e-06
-2.1176e-08
1.67482e-08
6.1452e-06
-6.52111e-09
3.75671e-09
6.14626e-06
7.85216e-09
-8.9165e-09
6.14566e-06
2.14311e-08
-2.08332e-08
6.14351e-06
3.37613e-08
-3.16078e-08
6.13996e-06
4.44691e-08
-4.09156e-08
6.13517e-06
5.32704e-08
-4.84869e-08
6.1293e-06
5.99775e-08
-5.41009e-08
6.12248e-06
6.44803e-08
-5.76605e-08
6.11492e-06
6.67395e-08
-5.91799e-08
6.10684e-06
6.67925e-08
-5.8715e-08
6.09847e-06
6.47256e-08
-5.63571e-08
6.09008e-06
6.06197e-08
-5.22281e-08
6.08195e-06
5.4638e-08
-4.65068e-08
6.07437e-06
4.70222e-08
-3.94416e-08
6.06762e-06
3.80334e-08
-3.12909e-08
6.06199e-06
2.79561e-08
-2.23206e-08
6.05768e-06
1.7139e-08
-1.28329e-08
6.05483e-06
6.00393e-09
-3.15191e-09
6.05346e-06
-5.01033e-09
6.38389e-09
6.05352e-06
-1.55077e-08
1.54442e-08
6.05492e-06
-2.51228e-08
2.37244e-08
6.0575e-06
-3.35398e-08
3.09579e-08
6.0611e-06
-4.05183e-08
3.69242e-08
6.06555e-06
-4.59035e-08
4.14472e-08
6.07073e-06
-4.96107e-08
4.44322e-08
6.07647e-06
-5.16173e-08
4.58817e-08
6.0826e-06
-5.19659e-08
4.58311e-08
6.08901e-06
-5.07396e-08
4.43348e-08
6.09552e-06
-4.79573e-08
4.14476e-08
6.10196e-06
-4.37463e-08
3.73012e-08
6.10817e-06
-3.8207e-08
3.19934e-08
6.114e-06
-3.18203e-08
2.59906e-08
6.11906e-06
-2.39352e-08
1.88801e-08
6.12356e-06
-1.74752e-08
1.29706e-08
-5.45636e-09
2.22486e-09
6.34287e-06
1.33751e-07
6.32836e-06
9.10853e-08
6.31876e-06
4.4635e-08
6.3145e-06
-4.18559e-09
6.31546e-06
-5.28879e-08
6.32114e-06
-9.91229e-08
6.33074e-06
-1.40706e-07
6.34323e-06
-1.75762e-07
6.35747e-06
-2.03011e-07
6.37245e-06
-2.22055e-07
6.38768e-06
-2.33357e-07
6.40328e-06
-2.37594e-07
6.41943e-06
-2.34863e-07
6.43539e-06
-2.24292e-07
6.45064e-06
-2.06436e-07
6.46478e-06
-1.82277e-07
6.47747e-06
-1.52831e-07
6.4884e-06
-1.19114e-07
6.49723e-06
-8.21914e-08
6.50347e-06
-4.33507e-08
6.50682e-06
-4.42777e-09
6.50722e-06
3.30205e-08
6.50477e-06
6.77072e-08
6.49969e-06
9.84887e-08
6.49238e-06
1.24436e-07
6.48334e-06
1.44929e-07
6.47302e-06
1.59748e-07
6.46162e-06
1.69015e-07
6.44922e-06
1.72948e-07
6.43604e-06
1.71675e-07
6.4226e-06
1.6505e-07
6.40959e-06
1.53074e-07
6.39758e-06
1.36348e-07
6.38704e-06
1.15506e-07
6.37838e-06
9.11477e-08
6.37195e-06
6.38906e-08
6.36807e-06
3.44404e-08
6.36701e-06
3.86942e-09
6.36871e-06
-2.62219e-08
6.37294e-06
-5.45441e-08
6.37928e-06
-7.98663e-08
6.3872e-06
-1.01189e-07
6.39608e-06
-1.17856e-07
6.40541e-06
-1.29639e-07
6.41492e-06
-1.36747e-07
6.42465e-06
-1.39495e-07
6.43455e-06
-1.37764e-07
6.44411e-06
-1.31149e-07
6.45299e-06
-1.2005e-07
6.46093e-06
-1.0507e-07
6.46771e-06
-8.6834e-08
6.47313e-06
-6.60001e-08
6.47696e-06
-4.32585e-08
6.47895e-06
-1.94643e-08
6.47898e-06
4.20374e-09
6.47711e-06
2.68013e-08
6.47345e-06
4.75092e-08
6.46825e-06
6.56213e-08
6.4618e-06
8.05936e-08
6.45444e-06
9.20944e-08
6.44638e-06
1.00026e-07
6.43773e-06
1.04449e-07
6.4286e-06
1.05423e-07
6.4192e-06
1.0297e-07
6.40993e-06
9.69761e-08
6.40116e-06
8.76841e-08
6.3932e-06
7.55195e-08
6.38632e-06
6.09097e-08
6.38075e-06
4.42856e-08
6.3767e-06
2.6099e-08
6.37441e-06
6.91515e-09
6.37397e-06
-1.23903e-08
6.37533e-06
-3.09709e-08
6.37833e-06
-4.80664e-08
6.38272e-06
-6.30003e-08
6.38816e-06
-7.52307e-08
6.39426e-06
-8.44347e-08
6.40078e-06
-9.0568e-08
6.40762e-06
-9.37848e-08
6.41474e-06
-9.41662e-08
6.42197e-06
-9.16167e-08
6.42898e-06
-8.599e-08
6.43553e-06
-7.75896e-08
6.44144e-06
-6.68012e-08
6.44654e-06
-5.4015e-08
6.45067e-06
-3.96473e-08
6.45365e-06
-2.41546e-08
6.45529e-06
-8.16131e-09
6.45553e-06
7.61196e-09
6.45441e-06
2.25545e-08
6.45202e-06
3.61529e-08
6.44852e-06
4.79673e-08
6.44412e-06
5.7664e-08
6.43904e-06
6.5058e-08
6.43342e-06
7.01031e-08
6.42734e-06
7.28241e-08
6.4209e-06
7.32274e-08
6.41429e-06
7.13395e-08
6.40772e-06
6.7189e-08
6.4014e-06
6.0954e-08
6.39553e-06
5.28951e-08
6.39027e-06
4.32924e-08
6.38579e-06
3.24358e-08
6.38228e-06
2.06461e-08
6.37992e-06
8.37242e-09
6.37874e-06
-3.83181e-09
6.37873e-06
-1.55056e-08
6.37984e-06
-2.62256e-08
6.38191e-06
-3.56122e-08
6.38477e-06
-4.33748e-08
6.38821e-06
-4.93495e-08
6.3921e-06
-5.34987e-08
6.39635e-06
-5.58712e-08
6.40093e-06
-5.65393e-08
6.40576e-06
-5.55693e-08
6.41067e-06
-5.28671e-08
6.4155e-06
-4.85739e-08
6.42015e-06
-4.28603e-08
6.42454e-06
-3.62127e-08
6.42844e-06
-2.78317e-08
6.43192e-06
-2.09556e-08
-8.03972e-09
6.64555e-06
1.46728e-07
6.636e-06
1.00635e-07
6.63016e-06
5.04701e-08
6.62806e-06
-2.08423e-09
6.62925e-06
-5.40754e-08
6.63316e-06
-1.03031e-07
6.63922e-06
-1.46765e-07
6.64682e-06
-1.83368e-07
6.65526e-06
-2.11445e-07
6.66371e-06
-2.3051e-07
6.67165e-06
-2.41288e-07
6.67926e-06
-2.45212e-07
6.68794e-06
-2.43539e-07
6.69703e-06
-2.33384e-07
6.70603e-06
-2.15439e-07
6.71472e-06
-1.90963e-07
6.72283e-06
-1.60942e-07
6.7301e-06
-1.2638e-07
6.7362e-06
-8.82958e-08
6.7407e-06
-4.78513e-08
6.74314e-06
-6.8606e-09
6.74335e-06
3.2807e-08
6.74131e-06
6.97416e-08
6.73716e-06
1.02638e-07
6.73124e-06
1.30358e-07
6.72411e-06
1.5206e-07
6.71639e-06
1.67465e-07
6.70855e-06
1.76855e-07
6.70067e-06
1.80832e-07
6.69198e-06
1.80367e-07
6.68288e-06
1.74146e-07
6.67432e-06
1.61639e-07
6.66663e-06
1.4404e-07
6.66015e-06
1.21979e-07
6.65519e-06
9.61137e-08
6.65197e-06
6.71069e-08
6.65068e-06
3.57294e-08
6.65137e-06
3.1836e-09
6.65384e-06
-2.86979e-08
6.65784e-06
-5.85375e-08
6.66297e-06
-8.50009e-08
6.66883e-06
-1.07051e-07
6.67495e-06
-1.23969e-07
6.68079e-06
-1.35481e-07
6.68608e-06
-1.42042e-07
6.69106e-06
-1.44475e-07
6.6965e-06
-1.43204e-07
6.70177e-06
-1.36412e-07
6.70661e-06
-1.24898e-07
6.71092e-06
-1.09372e-07
6.71455e-06
-9.04663e-08
6.71739e-06
-6.88435e-08
6.71929e-06
-4.51593e-08
6.72002e-06
-2.01942e-08
6.7194e-06
4.82936e-09
6.71737e-06
2.88231e-08
6.71401e-06
5.08747e-08
6.70946e-06
7.01718e-08
6.70401e-06
8.60459e-08
6.69801e-06
9.80903e-08
6.6918e-06
1.0624e-07
6.68551e-06
1.10732e-07
6.67903e-06
1.11911e-07
6.6721e-06
1.09898e-07
6.66534e-06
1.03731e-07
6.65905e-06
9.39803e-08
6.65344e-06
8.11273e-08
6.64872e-06
6.56317e-08
6.64504e-06
4.79608e-08
6.64256e-06
2.85858e-08
6.64141e-06
8.0638e-09
6.64166e-06
-1.26441e-08
6.64325e-06
-3.25626e-08
6.64603e-06
-5.08435e-08
6.64977e-06
-6.67379e-08
6.65413e-06
-7.95968e-08
6.65871e-06
-8.90148e-08
6.66315e-06
-9.50097e-08
6.66738e-06
-9.80134e-08
6.6717e-06
-9.84837e-08
6.67636e-06
-9.62765e-08
6.68079e-06
-9.04194e-08
6.68488e-06
-8.16774e-08
6.68851e-06
-7.04359e-08
6.69161e-06
-5.71107e-08
6.69409e-06
-4.21246e-08
6.69584e-06
-2.59088e-08
6.69673e-06
-9.04981e-09
6.69662e-06
7.72147e-09
6.69552e-06
2.36575e-08
6.69345e-06
3.82215e-08
6.69052e-06
5.08959e-08
6.68692e-06
6.12613e-08
6.6829e-06
6.90836e-08
6.67864e-06
7.43616e-08
6.67419e-06
7.72687e-08
6.66949e-06
7.79334e-08
6.66453e-06
7.62943e-08
6.65959e-06
7.21276e-08
6.65484e-06
6.5706e-08
6.65042e-06
5.7312e-08
6.64647e-06
4.7251e-08
6.64307e-06
3.58324e-08
6.64034e-06
2.33708e-08
6.63844e-06
1.02768e-08
6.63744e-06
-2.82773e-09
6.63734e-06
-1.5413e-08
6.63813e-06
-2.70087e-08
6.63968e-06
-3.71682e-08
6.64183e-06
-4.55248e-08
6.64436e-06
-5.18729e-08
6.64703e-06
-5.61748e-08
6.64975e-06
-5.85895e-08
6.65257e-06
-5.93615e-08
6.65579e-06
-5.87882e-08
6.65909e-06
-5.61693e-08
6.66233e-06
-5.18133e-08
6.66544e-06
-4.59717e-08
6.66839e-06
-3.91634e-08
6.67107e-06
-3.05022e-08
6.6735e-06
-2.33871e-08
-9.87633e-09
6.87759e-06
1.53695e-07
6.87219e-06
1.0603e-07
6.86818e-06
5.44799e-08
6.86522e-06
8.74452e-10
6.86284e-06
-5.16895e-08
6.8608e-06
-1.0099e-07
6.8591e-06
-1.4507e-07
6.85795e-06
-1.82212e-07
6.85749e-06
-2.10989e-07
6.85772e-06
-2.3074e-07
6.85828e-06
-2.41847e-07
6.85903e-06
-2.45966e-07
6.86076e-06
-2.45261e-07
6.86354e-06
-2.36173e-07
6.86715e-06
-2.1904e-07
6.87137e-06
-1.95186e-07
6.87595e-06
-1.65525e-07
6.88062e-06
-1.31045e-07
6.88508e-06
-9.27609e-08
6.88901e-06
-5.1778e-08
6.89189e-06
-9.74513e-09
6.89348e-06
3.12163e-08
6.89363e-06
6.95991e-08
6.89232e-06
1.03945e-07
6.88976e-06
1.32915e-07
6.88636e-06
1.55463e-07
6.88261e-06
1.71218e-07
6.87895e-06
1.80511e-07
6.87562e-06
1.84159e-07
6.87182e-06
1.84172e-07
6.86764e-06
1.78324e-07
6.86388e-06
1.65404e-07
6.8607e-06
1.47211e-07
6.85831e-06
1.24375e-07
6.85679e-06
9.76307e-08
6.85621e-06
6.76929e-08
6.8565e-06
3.54385e-08
6.85743e-06
2.24513e-09
6.85869e-06
-2.99517e-08
6.86004e-06
-5.98916e-08
6.86134e-06
-8.6294e-08
6.86252e-06
-1.08232e-07
6.86359e-06
-1.25041e-07
6.86453e-06
-1.36422e-07
6.86524e-06
-1.42747e-07
6.86581e-06
-1.45053e-07
6.86652e-06
-1.43907e-07
6.86734e-06
-1.37234e-07
6.86826e-06
-1.25819e-07
6.86923e-06
-1.1034e-07
6.87016e-06
-9.13994e-08
6.87097e-06
-6.96554e-08
6.87156e-06
-4.57461e-08
6.87176e-06
-2.03996e-08
6.87138e-06
5.21657e-09
6.87029e-06
2.99147e-08
6.86841e-06
5.27474e-08
6.86579e-06
7.27962e-08
6.86259e-06
8.92393e-08
6.85913e-06
1.01551e-07
6.8557e-06
1.09679e-07
6.85247e-06
1.1396e-07
6.84927e-06
1.1511e-07
6.84547e-06
1.13698e-07
6.84175e-06
1.07447e-07
6.83833e-06
9.74036e-08
6.83535e-06
8.41057e-08
6.83295e-06
6.80349e-08
6.83122e-06
4.96872e-08
6.83025e-06
2.9557e-08
6.83007e-06
8.24515e-09
6.8306e-06
-1.31792e-08
6.83171e-06
-3.36709e-08
6.83325e-06
-5.23851e-08
6.83509e-06
-6.85742e-08
6.83705e-06
-8.15542e-08
6.83893e-06
-9.08936e-08
6.84058e-06
-9.66608e-08
6.84193e-06
-9.93666e-08
6.84324e-06
-9.97958e-08
6.84483e-06
-9.78623e-08
6.84634e-06
-9.19302e-08
6.84775e-06
-8.30844e-08
6.849e-06
-7.1685e-08
6.85004e-06
-5.81562e-08
6.85084e-06
-4.29272e-08
6.85136e-06
-2.6422e-08
6.85152e-06
-9.21058e-09
6.85121e-06
8.03256e-09
6.85039e-06
2.44725e-08
6.84904e-06
3.9574e-08
6.84717e-06
5.27638e-08
6.8449e-06
6.35312e-08
6.84242e-06
7.15651e-08
6.83992e-06
7.68619e-08
6.83748e-06
7.97081e-08
6.83492e-06
8.04896e-08
6.83213e-06
7.90908e-08
6.82929e-06
7.49696e-08
6.82652e-06
6.84748e-08
6.82392e-06
5.99108e-08
6.82157e-06
4.95983e-08
6.81954e-06
3.7859e-08
6.81791e-06
2.50067e-08
6.81675e-06
1.14337e-08
6.81612e-06
-2.20046e-09
6.816e-06
-1.52929e-08
6.81635e-06
-2.7355e-08
6.81709e-06
-3.791e-08
6.81813e-06
-4.65667e-08
6.81934e-06
-5.30796e-08
6.82055e-06
-5.73841e-08
6.82167e-06
-5.97123e-08
6.82276e-06
-6.04492e-08
6.82415e-06
-6.01832e-08
6.82564e-06
-5.76523e-08
6.82711e-06
-5.32883e-08
6.82855e-06
-4.74062e-08
6.82992e-06
-4.05385e-08
6.83118e-06
-3.17624e-08
6.83237e-06
-2.45738e-08
-1.08473e-08
6.99131e-06
6.98701e-06
6.98209e-06
6.9763e-06
6.96967e-06
6.96247e-06
6.95504e-06
6.94786e-06
6.94142e-06
6.93618e-06
6.93245e-06
6.93004e-06
6.92835e-06
6.92811e-06
6.92908e-06
6.93106e-06
6.93377e-06
6.93697e-06
6.9404e-06
6.94373e-06
6.94659e-06
6.9489e-06
6.95069e-06
6.95204e-06
6.95304e-06
6.95382e-06
6.95443e-06
6.95502e-06
6.95558e-06
6.95622e-06
6.95706e-06
6.9578e-06
6.95843e-06
6.95889e-06
6.95908e-06
6.95887e-06
6.95812e-06
6.95662e-06
6.95447e-06
6.95177e-06
6.94868e-06
6.94538e-06
6.9421e-06
6.93911e-06
6.93656e-06
6.93447e-06
6.9323e-06
6.93054e-06
6.92926e-06
6.92843e-06
6.92798e-06
6.92781e-06
6.92777e-06
6.92773e-06
6.92754e-06
6.92718e-06
6.92663e-06
6.9259e-06
6.92505e-06
6.92418e-06
6.92344e-06
6.92299e-06
6.92274e-06
6.92231e-06
6.92203e-06
6.92188e-06
6.92182e-06
6.92182e-06
6.92182e-06
6.92171e-06
6.92144e-06
6.92093e-06
6.92024e-06
6.91942e-06
6.9185e-06
6.91756e-06
6.91666e-06
6.91587e-06
6.91518e-06
6.91455e-06
6.9139e-06
6.9134e-06
6.91305e-06
6.91283e-06
6.9127e-06
6.91262e-06
6.91254e-06
6.91232e-06
6.91199e-06
6.91149e-06
6.91083e-06
6.91001e-06
6.90909e-06
6.9081e-06
6.90713e-06
6.9063e-06
6.90558e-06
6.90477e-06
6.90402e-06
6.90332e-06
6.90268e-06
6.9021e-06
6.90156e-06
6.90103e-06
6.90048e-06
6.89989e-06
6.89927e-06
6.89866e-06
6.89808e-06
6.89759e-06
6.89722e-06
6.89695e-06
6.89675e-06
6.89664e-06
6.89666e-06
6.89682e-06
6.8971e-06
6.8975e-06
6.89797e-06
6.89849e-06
-3.22794e-08
6.89899e-06
-2.50757e-08
-1.11978e-08
6.89951e-06
6.89908e-06
2.25182e-07
-7.36408e-09
2.34304e-07
-9.1218e-09
2.45043e-07
-1.07385e-08
2.5722e-07
-1.21771e-08
2.70614e-07
-1.3394e-08
2.84959e-07
-1.43452e-08
2.99952e-07
-1.49926e-08
3.15256e-07
-1.53045e-08
3.30516e-07
-1.526e-08
3.45363e-07
-1.48468e-08
3.59439e-07
-1.40764e-08
3.72406e-07
-1.29668e-08
3.8396e-07
-1.15544e-08
3.93831e-07
-9.8702e-09
4.01807e-07
-7.97592e-09
4.07725e-07
-5.91802e-09
4.11472e-07
-3.74768e-09
4.12961e-07
-1.48885e-09
4.12478e-07
4.8276e-10
4.10023e-07
2.45491e-09
4.05714e-07
4.30977e-09
3.99764e-07
5.94985e-09
3.92433e-07
7.3308e-09
3.84008e-07
8.42456e-09
3.74794e-07
9.21437e-09
3.65104e-07
9.69005e-09
3.5525e-07
9.8538e-09
3.45533e-07
9.71723e-09
3.36232e-07
9.30116e-09
3.27607e-07
8.6248e-09
3.19895e-07
7.71184e-09
3.13306e-07
6.58894e-09
3.08007e-07
5.29918e-09
3.04134e-07
3.87364e-09
3.01786e-07
2.34738e-09
3.01035e-07
7.50954e-10
3.01635e-07
-5.99992e-10
3.03673e-07
-2.0376e-09
3.07051e-07
-3.37804e-09
3.11618e-07
-4.56734e-09
3.17188e-07
-5.57029e-09
3.2355e-07
-6.36134e-09
3.30474e-07
-6.92426e-09
3.37726e-07
-7.25164e-09
3.45068e-07
-7.34276e-09
3.52272e-07
-7.20335e-09
3.5912e-07
-6.84835e-09
3.65423e-07
-6.30298e-09
3.71017e-07
-5.59375e-09
3.75764e-07
-4.74755e-09
3.7957e-07
-3.80584e-09
3.82373e-07
-2.80283e-09
3.84143e-07
-1.76967e-09
3.84875e-07
-7.32419e-10
3.84699e-07
1.76063e-10
3.83632e-07
1.06757e-09
3.81769e-07
1.86292e-09
3.79235e-07
2.53388e-09
3.76171e-07
3.06415e-09
3.72728e-07
3.44287e-09
3.69062e-07
3.66543e-09
3.65331e-07
3.73179e-09
3.61685e-07
3.64534e-09
3.58272e-07
3.41358e-09
3.55225e-07
3.04692e-09
3.52666e-07
2.55851e-09
3.50702e-07
1.96378e-09
3.49423e-07
1.27911e-09
3.48895e-07
5.27958e-10
3.49067e-07
-1.71516e-10
3.49983e-07
-9.15816e-10
3.51636e-07
-1.65322e-09
3.53979e-07
-2.34261e-09
3.56937e-07
-2.95893e-09
3.60421e-07
-3.48362e-09
3.64323e-07
-3.90178e-09
3.68525e-07
-4.20215e-09
3.72904e-07
-4.37862e-09
3.77333e-07
-4.4291e-09
3.81689e-07
-4.35618e-09
3.85855e-07
-4.16623e-09
3.89725e-07
-3.86996e-09
3.93207e-07
-3.48199e-09
3.96225e-07
-3.01788e-09
3.9872e-07
-2.49471e-09
4.0065e-07
-1.93023e-09
4.01996e-07
-1.34641e-09
4.02754e-07
-7.58056e-10
4.02931e-07
-1.76201e-10
4.02615e-07
3.15732e-10
4.01809e-07
8.05514e-10
4.00577e-07
1.2325e-09
3.98989e-07
1.58803e-09
3.97123e-07
1.86552e-09
3.95063e-07
2.06041e-09
3.92889e-07
2.1739e-09
3.90684e-07
2.20514e-09
3.88525e-07
2.15858e-09
3.86486e-07
2.03938e-09
3.84631e-07
1.85504e-09
3.83016e-07
1.61516e-09
3.81682e-07
1.33377e-09
3.80664e-07
1.01797e-09
3.7998e-07
6.84026e-10
3.79641e-07
3.39062e-10
3.79613e-07
2.78486e-11
3.79884e-07
-2.71038e-10
3.8043e-07
-5.45669e-10
3.81209e-07
-7.78985e-10
3.82174e-07
-9.65392e-10
3.83272e-07
-1.09818e-09
3.84451e-07
-1.17898e-09
3.85661e-07
-1.20937e-09
3.86849e-07
-1.18882e-09
3.87971e-07
-1.1214e-09
3.88979e-07
-1.00839e-09
3.89846e-07
-8.6647e-10
3.9054e-07
-6.94174e-10
3.9109e-07
-5.50004e-10
3.91463e-07
-3.73321e-10
-5.21173e-10
9.012e-07
-1.88072e-08
9.14199e-07
-2.21207e-08
9.28587e-07
-2.5127e-08
9.4416e-07
-2.77497e-08
9.60665e-07
-2.98995e-08
9.77808e-07
-3.14879e-08
9.95254e-07
-3.24381e-08
1.01264e-06
-3.26925e-08
1.0296e-06
-3.22185e-08
1.04576e-06
-3.10056e-08
1.06076e-06
-2.90747e-08
1.07426e-06
-2.64728e-08
1.08598e-06
-2.32672e-08
1.09567e-06
-1.9568e-08
1.10317e-06
-1.54677e-08
1.10834e-06
-1.10958e-08
1.11121e-06
-6.6165e-09
1.11172e-06
-1.99821e-09
1.10998e-06
2.22283e-09
1.10615e-06
6.28606e-09
1.10051e-06
9.9497e-09
1.09334e-06
1.31248e-08
1.08493e-06
1.57373e-08
1.07562e-06
1.77351e-08
1.06574e-06
1.90889e-08
1.05565e-06
1.97881e-08
1.04566e-06
1.9844e-08
1.03609e-06
1.92878e-08
1.02722e-06
1.81615e-08
1.01934e-06
1.65141e-08
1.01263e-06
1.44131e-08
1.0073e-06
1.19256e-08
1.00344e-06
9.15217e-09
1.00117e-06
6.15109e-09
1.00056e-06
2.95627e-09
1.00147e-06
-1.61097e-10
1.00409e-06
-3.21645e-09
1.00818e-06
-6.13417e-09
1.01362e-06
-8.81033e-09
1.02021e-06
-1.11571e-08
1.02774e-06
-1.31067e-08
1.03599e-06
-1.46076e-08
1.04469e-06
-1.5627e-08
1.05359e-06
-1.61504e-08
1.06243e-06
-1.61837e-08
1.07097e-06
-1.57474e-08
1.079e-06
-1.4875e-08
1.08631e-06
-1.3614e-08
1.09275e-06
-1.20271e-08
1.09818e-06
-1.01864e-08
1.10255e-06
-8.16656e-09
1.10579e-06
-6.04285e-09
1.1079e-06
-3.88004e-09
1.10892e-06
-1.75776e-09
1.10892e-06
1.74848e-10
1.10799e-06
1.99499e-09
1.10628e-06
3.5808e-09
1.10392e-06
4.89167e-09
1.10108e-06
5.90316e-09
1.09793e-06
6.59531e-09
1.09463e-06
6.95915e-09
1.09137e-06
6.99763e-09
1.08829e-06
6.72294e-09
1.08555e-06
6.154e-09
1.08328e-06
5.31662e-09
1.0816e-06
4.24299e-09
1.08059e-06
2.96784e-09
1.08035e-06
1.51685e-09
1.08088e-06
6.03908e-12
1.08226e-06
-1.55392e-09
1.08445e-06
-3.10891e-09
1.0874e-06
-4.60522e-09
1.09105e-06
-5.98852e-09
1.0953e-06
-7.21187e-09
1.10005e-06
-8.23599e-09
1.10518e-06
-9.0299e-09
1.11055e-06
-9.57171e-09
1.11602e-06
-9.84967e-09
1.12146e-06
-9.86237e-09
1.12672e-06
-9.61732e-09
1.13168e-06
-9.13018e-09
1.13624e-06
-8.42397e-09
1.14028e-06
-7.52793e-09
1.14374e-06
-6.47966e-09
1.14657e-06
-5.31834e-09
1.14872e-06
-4.08567e-09
1.1502e-06
-2.82038e-09
1.15099e-06
-1.55481e-09
1.15117e-06
-3.48759e-10
1.15071e-06
7.73064e-10
1.14972e-06
1.79537e-09
1.14827e-06
2.67825e-09
1.14646e-06
3.40537e-09
1.14436e-06
3.96311e-09
1.14207e-06
4.34362e-09
1.1397e-06
4.54585e-09
1.13733e-06
4.57314e-09
1.13506e-06
4.43532e-09
1.13295e-06
4.14462e-09
1.13109e-06
3.71852e-09
1.12953e-06
3.1783e-09
1.12831e-06
2.54766e-09
1.12748e-06
1.8531e-09
1.12704e-06
1.1199e-09
1.12701e-06
3.73057e-10
1.12737e-06
-3.3073e-10
1.1281e-06
-1.00068e-09
1.12915e-06
-1.6028e-09
1.13049e-06
-2.11925e-09
1.13206e-06
-2.53635e-09
1.13381e-06
-2.84547e-09
1.13568e-06
-3.04472e-09
1.1376e-06
-3.13628e-09
1.13954e-06
-3.12478e-09
1.14143e-06
-3.01436e-09
1.14325e-06
-2.82245e-09
1.14494e-06
-2.55808e-09
1.1465e-06
-2.25839e-09
1.14787e-06
-1.9165e-09
1.14904e-06
-1.54488e-09
-1.39493e-09
1.64014e-06
-2.81531e-08
1.65113e-06
-3.31199e-08
1.66369e-06
-3.7682e-08
1.67766e-06
-4.17173e-08
1.69283e-06
-4.50729e-08
1.70894e-06
-4.7598e-08
1.72567e-06
-4.9164e-08
1.74264e-06
-4.96645e-08
1.75946e-06
-4.90407e-08
1.77573e-06
-4.72745e-08
1.79106e-06
-4.44013e-08
1.80507e-06
-4.04835e-08
1.81743e-06
-3.56278e-08
1.82786e-06
-2.99956e-08
1.83613e-06
-2.37446e-08
1.84211e-06
-1.70692e-08
1.8457e-06
-1.02149e-08
1.84696e-06
-3.25785e-09
1.84589e-06
3.29936e-09
1.84265e-06
9.51973e-09
1.83749e-06
1.51106e-08
1.83069e-06
1.99287e-08
1.82255e-06
2.38757e-08
1.8134e-06
2.68807e-08
1.80359e-06
2.89019e-08
1.79345e-06
2.99279e-08
1.78332e-06
2.99754e-08
1.77351e-06
2.90997e-08
1.7643e-06
2.73723e-08
1.75595e-06
2.48636e-08
1.74869e-06
2.16668e-08
1.74272e-06
1.79009e-08
1.73819e-06
1.36792e-08
1.73523e-06
9.1143e-09
1.73392e-06
4.2625e-09
1.73425e-06
-4.86691e-10
1.73626e-06
-5.22418e-09
1.73984e-06
-9.72149e-09
1.74488e-06
-1.38454e-08
1.75119e-06
-1.74664e-08
1.75857e-06
-2.04856e-08
1.76678e-06
-2.28242e-08
1.77559e-06
-2.44289e-08
1.78471e-06
-2.52738e-08
1.79388e-06
-2.53593e-08
1.80285e-06
-2.47171e-08
1.81138e-06
-2.34025e-08
1.81926e-06
-2.14889e-08
1.8263e-06
-1.90676e-08
1.83236e-06
-1.6245e-08
1.83733e-06
-1.31412e-08
1.84116e-06
-9.87375e-09
1.84384e-06
-6.56342e-09
1.84541e-06
-3.32476e-09
1.84586e-06
-2.73506e-10
1.84532e-06
2.53372e-09
1.84391e-06
4.99142e-09
1.84178e-06
7.02716e-09
1.83908e-06
8.60121e-09
1.83599e-06
9.68502e-09
1.83268e-06
1.02677e-08
1.82932e-06
1.03528e-08
1.82609e-06
9.95988e-09
1.82312e-06
9.1205e-09
1.82056e-06
7.87273e-09
1.81854e-06
6.26357e-09
1.81717e-06
4.33815e-09
1.81653e-06
2.16305e-09
1.81665e-06
-1.20409e-10
1.8176e-06
-2.50242e-09
1.81936e-06
-4.8697e-09
1.8219e-06
-7.14357e-09
1.82516e-06
-9.24451e-09
1.82905e-06
-1.11018e-08
1.83347e-06
-1.2656e-08
1.8383e-06
-1.38599e-08
1.84341e-06
-1.46802e-08
1.84865e-06
-1.50985e-08
1.8539e-06
-1.51121e-08
1.85902e-06
-1.47349e-08
1.86388e-06
-1.39929e-08
1.86838e-06
-1.29199e-08
1.87241e-06
-1.15594e-08
1.8759e-06
-9.96532e-09
1.87878e-06
-8.19946e-09
1.88102e-06
-6.32488e-09
1.8826e-06
-4.40491e-09
1.88354e-06
-2.48914e-09
1.88385e-06
-6.58044e-10
1.88357e-06
1.0536e-09
1.88276e-06
2.60458e-09
1.88149e-06
3.94258e-09
1.87986e-06
5.04045e-09
1.87794e-06
5.8776e-09
1.87584e-06
6.44235e-09
1.87366e-06
6.73366e-09
1.87147e-06
6.75827e-09
1.86937e-06
6.53123e-09
1.86745e-06
6.07372e-09
1.86575e-06
5.41172e-09
1.86436e-06
4.57502e-09
1.8633e-06
3.6e-09
1.86263e-06
2.52816e-09
1.86235e-06
1.40312e-09
1.86245e-06
2.67886e-10
1.86295e-06
-8.25984e-10
1.86379e-06
-1.84823e-09
1.86495e-06
-2.76395e-09
1.86638e-06
-3.5459e-09
1.86802e-06
-4.17525e-09
1.86981e-06
-4.63947e-09
1.8717e-06
-4.93421e-09
1.87363e-06
-5.06185e-09
1.87554e-06
-5.03292e-09
1.87738e-06
-4.85794e-09
1.87912e-06
-4.56473e-09
1.88072e-06
-4.15597e-09
1.88215e-06
-3.68924e-09
1.88338e-06
-3.14585e-09
1.88443e-06
-2.59421e-09
-1.93383e-09
2.44e-06
-3.1573e-08
2.44513e-06
-3.82421e-08
2.45201e-06
-4.45678e-08
2.46066e-06
-5.03669e-08
2.47097e-06
-5.53802e-08
2.48275e-06
-5.93759e-08
2.49574e-06
-6.21561e-08
2.50963e-06
-6.35536e-08
2.52404e-06
-6.34507e-08
2.53855e-06
-6.17867e-08
2.55272e-06
-5.85759e-08
2.56614e-06
-5.39022e-08
2.57842e-06
-4.79071e-08
2.58921e-06
-4.07832e-08
2.59822e-06
-3.27584e-08
2.60525e-06
-2.40943e-08
2.61011e-06
-1.50808e-08
2.61285e-06
-5.9929e-09
2.61332e-06
2.82656e-09
2.61169e-06
1.11564e-08
2.60807e-06
1.87227e-08
2.6027e-06
2.52994e-08
2.59583e-06
3.07469e-08
2.58776e-06
3.49558e-08
2.57879e-06
3.7867e-08
2.56925e-06
3.94685e-08
2.55944e-06
3.97838e-08
2.54967e-06
3.88712e-08
2.54023e-06
3.68188e-08
2.53136e-06
3.37307e-08
2.5233e-06
2.97281e-08
2.51626e-06
2.49384e-08
2.51043e-06
1.95073e-08
2.50594e-06
1.3602e-08
2.50283e-06
7.37987e-09
2.50126e-06
1.0774e-09
2.50119e-06
-5.15502e-09
2.50259e-06
-1.11165e-08
2.50535e-06
-1.66125e-08
2.50936e-06
-2.14746e-08
2.51445e-06
-2.55726e-08
2.52042e-06
-2.87988e-08
2.52707e-06
-3.10786e-08
2.53417e-06
-3.23724e-08
2.54149e-06
-3.26745e-08
2.54878e-06
-3.20137e-08
2.55584e-06
-3.04572e-08
2.56245e-06
-2.81004e-08
2.56844e-06
-2.5059e-08
2.57367e-06
-2.14719e-08
2.57802e-06
-1.74904e-08
2.58142e-06
-1.32724e-08
2.58383e-06
-8.97472e-09
2.58525e-06
-4.74972e-09
2.58572e-06
-7.36272e-10
2.5853e-06
2.95372e-09
2.58408e-06
6.21015e-09
2.58217e-06
8.93506e-09
2.57971e-06
1.10588e-08
2.57685e-06
1.25431e-08
2.57375e-06
1.33741e-08
2.57055e-06
1.35541e-08
2.5674e-06
1.31026e-08
2.56447e-06
1.20585e-08
2.56187e-06
1.04713e-08
2.55973e-06
8.40221e-09
2.55814e-06
5.9227e-09
2.55718e-06
3.12237e-09
2.55694e-06
1.26183e-10
2.55741e-06
-2.97227e-09
2.55859e-06
-6.05328e-09
2.56045e-06
-9.00643e-09
2.56294e-06
-1.17271e-08
2.56596e-06
-1.41209e-08
2.56941e-06
-1.61098e-08
2.57318e-06
-1.76318e-08
2.57714e-06
-1.86437e-08
2.58117e-06
-1.91247e-08
2.58514e-06
-1.90772e-08
2.58892e-06
-1.85226e-08
2.59243e-06
-1.74952e-08
2.59555e-06
-1.60419e-08
2.59821e-06
-1.42205e-08
2.60034e-06
-1.2101e-08
2.60191e-06
-9.76774e-09
2.6029e-06
-7.31032e-09
2.6033e-06
-4.8078e-09
2.60315e-06
-2.34066e-09
2.60248e-06
9.88437e-12
2.60136e-06
2.18224e-09
2.59984e-06
4.11962e-09
2.59801e-06
5.76966e-09
2.59596e-06
7.09349e-09
2.59378e-06
8.06356e-09
2.59155e-06
8.66915e-09
2.58937e-06
8.91353e-09
2.58732e-06
8.80905e-09
2.58547e-06
8.37808e-09
2.58389e-06
7.64998e-09
2.58265e-06
6.66039e-09
2.58177e-06
5.44969e-09
2.58131e-06
4.06358e-09
2.58128e-06
2.55823e-09
2.58167e-06
1.0104e-09
2.58246e-06
-5.19751e-10
2.58361e-06
-1.97724e-09
2.58507e-06
-3.3123e-09
2.58679e-06
-4.48107e-09
2.58869e-06
-5.44876e-09
2.59071e-06
-6.19286e-09
2.59277e-06
-6.69966e-09
2.5948e-06
-6.96534e-09
2.59674e-06
-6.99702e-09
2.59852e-06
-6.81168e-09
2.60009e-06
-6.43069e-09
2.60141e-06
-5.88562e-09
2.60246e-06
-5.20591e-09
2.6032e-06
-4.43319e-09
2.60362e-06
-3.55775e-09
2.60372e-06
-2.69762e-09
-1.44609e-09
3.22009e-06
-2.82783e-08
3.21885e-06
-3.70042e-08
3.21983e-06
-4.55495e-08
3.22312e-06
-5.36613e-08
3.22868e-06
-6.09328e-08
3.23628e-06
-6.69792e-08
3.24566e-06
-7.15345e-08
3.25647e-06
-7.43651e-08
3.26832e-06
-7.52997e-08
3.28078e-06
-7.42501e-08
3.29343e-06
-7.12199e-08
3.30582e-06
-6.62961e-08
3.31753e-06
-5.9621e-08
3.32817e-06
-5.14175e-08
3.33738e-06
-4.19752e-08
3.34491e-06
-3.16152e-08
3.35053e-06
-2.07027e-08
3.35415e-06
-9.61076e-09
3.3557e-06
1.27463e-09
3.35522e-06
1.1632e-08
3.3528e-06
2.11422e-08
3.34858e-06
2.95218e-08
3.34277e-06
3.65543e-08
3.33565e-06
4.20767e-08
3.32751e-06
4.60047e-08
3.31866e-06
4.8321e-08
3.30939e-06
4.90541e-08
3.29999e-06
4.82695e-08
3.29075e-06
4.60615e-08
3.28193e-06
4.25505e-08
3.27378e-06
3.78751e-08
3.26653e-06
3.219e-08
3.26036e-06
2.56782e-08
3.25542e-06
1.85384e-08
3.25181e-06
1.09929e-08
3.24963e-06
3.2604e-09
3.24886e-06
-4.38944e-09
3.24946e-06
-1.17134e-08
3.25132e-06
-1.84726e-08
3.2543e-06
-2.44541e-08
3.25821e-06
-2.94875e-08
3.26285e-06
-3.34367e-08
3.26799e-06
-3.62143e-08
3.27339e-06
-3.77786e-08
3.27885e-06
-3.81277e-08
3.28413e-06
-3.73001e-08
3.28905e-06
-3.53756e-08
3.29342e-06
-3.24707e-08
3.2971e-06
-2.87318e-08
3.29995e-06
-2.43277e-08
3.30191e-06
-1.94512e-08
3.30294e-06
-1.42962e-08
3.30302e-06
-9.05497e-09
3.30218e-06
-3.91175e-09
3.30048e-06
9.65233e-10
3.29801e-06
5.42245e-09
3.29489e-06
9.32544e-09
3.29126e-06
1.25653e-08
3.28726e-06
1.50613e-08
3.28304e-06
1.67646e-08
3.27876e-06
1.76557e-08
3.27457e-06
1.77386e-08
3.27064e-06
1.70384e-08
3.2671e-06
1.55993e-08
3.26408e-06
1.34827e-08
3.26172e-06
1.07643e-08
3.26011e-06
7.53618e-09
3.25932e-06
3.91519e-09
3.25939e-06
5.25804e-11
3.26032e-06
-3.90317e-09
3.26207e-06
-7.80371e-09
3.26457e-06
-1.15075e-08
3.26772e-06
-1.48777e-08
3.27139e-06
-1.77916e-08
3.27543e-06
-2.01483e-08
3.27968e-06
-2.18761e-08
3.28396e-06
-2.29312e-08
3.28814e-06
-2.32998e-08
3.29205e-06
-2.29933e-08
3.29558e-06
-2.20457e-08
3.29859e-06
-2.05073e-08
3.30099e-06
-1.84424e-08
3.3027e-06
-1.59263e-08
3.30364e-06
-1.30499e-08
3.30381e-06
-9.93259e-09
3.30321e-06
-6.70948e-09
3.30188e-06
-3.48401e-09
3.2999e-06
-3.52643e-10
3.29731e-06
2.59169e-09
3.29423e-06
5.26367e-09
3.29076e-06
7.58978e-09
3.28702e-06
9.51152e-09
3.28313e-06
1.09869e-08
3.2792e-06
1.19882e-08
3.27536e-06
1.25078e-08
3.27172e-06
1.25541e-08
3.26839e-06
1.21482e-08
3.26544e-06
1.1323e-08
3.26297e-06
1.01219e-08
3.26104e-06
8.59333e-09
3.25969e-06
6.79073e-09
3.25899e-06
4.76948e-09