/*--------------------------------*- C++ -*----------------------------------*\
| =========                 |                                                 |
| \\      /  F ield         | OpenFOAM: The Open Source CFD Toolbox           |
|  \\    /   O peration     | Version:  2206                                  |
|   \\  /    A nd           | Website:  www.openfoam.com                      |
|    \\/     M anipulation  |                                                 |
\*---------------------------------------------------------------------------*/
FoamFile
{
    version     2.0;
    format      ascii;
    arch        "LSB;label=32;scalar=64";
    class       volVectorField;
    location    "19.2";
    object      ddtCorrDdt0(U);
}
// * * * * * * * * * * * * * * * * * * * * * * * * * * * * * * * * * * * * * //

dimensions      [0 1 -2 0 0 0 0];

internalField   nonuniform List<vector> 
4852
(
(-9.83089 -32.6985 0)
(-8.1639 -20.5456 0)
(-6.20012 -10.6758 0)
(-4.20206 -3.67768 0)
(-1.99021 3.66466 0)
(0.614255 11.5729 0)
(2.66071 15.1242 0)
(4.43569 16.98 0)
(6.08944 17.5198 0)
(7.61511 17.0416 0)
(9.084 15.9835 0)
(10.5079 14.5626 0)
(11.9038 12.8774 0)
(13.3182 10.9623 0)
(14.7674 8.79843 0)
(16.3031 6.44827 0)
(17.9467 3.99533 0)
(19.6684 1.5569 0)
(21.4258 -0.659083 0)
(23.1412 -2.35645 0)
(24.7144 -3.18253 0)
(26.0473 -2.78974 0)
(27.0663 -0.913771 0)
(27.7388 2.55749 0)
(28.0754 7.5453 0)
(28.1154 13.7827 0)
(27.9182 20.8802 0)
(27.5451 28.374 0)
(27.0302 35.8299 0)
(26.3649 42.9448 0)
(25.4933 49.5453 0)
(24.3352 55.5708 0)
(22.8051 61.026 0)
(20.8326 65.9287 0)
(18.3764 70.269 0)
(15.4314 73.992 0)
(12.0349 76.9964 0)
(8.25393 79.1405 0)
(4.16521 80.2108 0)
(-0.0575626 80.1711 0)
(-4.22305 79.1626 0)
(-8.24073 77.1151 0)
(-12.0412 74.0947 0)
(-15.5336 70.2056 0)
(-18.634 65.5812 0)
(-21.2882 60.3874 0)
(-23.465 54.8056 0)
(-25.1528 49.0172 0)
(-26.3554 43.1948 0)
(-27.0923 37.498 0)
(-27.3914 32.067 0)
(-27.2871 27.0208 0)
(-26.8194 22.4572 0)
(-26.0337 18.4497 0)
(-24.9769 15.0472 0)
(-23.701 12.2817 0)
(-22.2549 10.1568 0)
(-20.6891 8.62609 0)
(-19.06 7.63621 0)
(-17.4124 7.10241 0)
(-15.791 6.90767 0)
(-14.2471 6.90498 0)
(-12.8288 6.92555 0)
(-11.5579 6.80554 0)
(-10.412 6.42524 0)
(-9.34827 5.73524 0)
(-8.36149 4.73149 0)
(-7.53699 3.3425 0)
(-6.97067 1.24636 0)
(-6.28298 -1.72865 0)
(-5.56344 -5.22225 0)
(-4.95342 -9.12858 0)
(-4.43158 -13.4581 0)
(-4.0103 -18.218 0)
(-3.70425 -23.4067 0)
(-3.52291 -29.0178 0)
(-3.47306 -35.0322 0)
(-3.55436 -41.4083 0)
(-3.75728 -48.0732 0)
(-4.06347 -54.9161 0)
(-4.44786 -61.7867 0)
(-4.88098 -68.4999 0)
(-5.33244 -74.8442 0)
(-5.77581 -80.5905 0)
(-6.19043 -85.5051 0)
(-6.55804 -89.3413 0)
(-6.83436 -91.7816 0)
(-6.89235 -92.2804 0)
(-6.72629 -91.113 0)
(-6.3665 -88.6205 0)
(-5.79371 -84.9075 0)
(-5.01507 -80.1304 0)
(-4.0617 -74.4811 0)
(-2.97356 -68.1699 0)
(-1.79241 -61.4049 0)
(-0.561641 -54.3735 0)
(0.672706 -47.2423 0)
(1.87506 -40.1508 0)
(3.02452 -33.209 0)
(4.09745 -26.5003 0)
(5.09 -20.1206 0)
(5.98362 -14.1643 0)
(6.78857 -8.72201 0)
(8.20685 -3.61067 0)
(9.54186 1.62288 0)
(11.1989 5.8959 0)
(12.7721 9.39872 0)
(14.2392 11.9323 0)
(15.7134 13.5293 0)
(17.1617 14.3472 0)
(18.5237 14.5519 0)
(19.7565 14.3428 0)
(20.8237 13.9314 0)
(21.7053 13.5112 0)
(22.4046 13.235 0)
(22.9435 13.2073 0)
(23.3513 13.4868 0)
(23.6544 14.0951 0)
(23.8693 15.0305 0)
(24.0006 16.283 0)
(24.04 17.8466 0)
(23.9683 19.727 0)
(23.7565 21.9409 0)
(23.3675 24.5075 0)
(22.7766 27.4526 0)
(21.9528 30.7599 0)
(20.8779 34.4074 0)
(19.5371 38.3451 0)
(17.9233 42.4934 0)
(16.04 46.7465 0)
(13.9007 50.9768 0)
(11.529 55.042 0)
(8.95814 58.794 0)
(6.23041 62.0878 0)
(3.39564 64.7876 0)
(0.511854 66.7728 0)
(-2.35508 67.9392 0)
(-5.11127 68.1306 0)
(-15.185 -34.7116 0)
(-13.223 -23.1052 0)
(-10.8946 -13.5375 0)
(-8.90275 -5.7023 0)
(-7.42573 2.1423 0)
(-4.67956 8.62067 0)
(-2.23576 12.6711 0)
(-0.0830064 14.8237 0)
(1.88591 15.5553 0)
(3.71015 15.1811 0)
(5.44214 14.2115 0)
(7.0988 12.8441 0)
(8.70673 11.1861 0)
(10.3109 9.26031 0)
(11.9113 7.02581 0)
(13.5844 4.58763 0)
(15.3385 2.0495 0)
(17.1442 -0.439881 0)
(18.96 -2.63708 0)
(20.7123 -4.21987 0)
(22.3126 -4.82895 0)
(23.6808 -4.13487 0)
(24.7662 -1.91218 0)
(25.558 1.90824 0)
(26.0729 7.21071 0)
(26.3504 13.7195 0)
(26.4434 21.0313 0)
(26.3852 28.6874 0)
(26.1823 36.3181 0)
(25.7933 43.6596 0)
(25.145 50.5701 0)
(24.1497 57.0011 0)
(22.7233 62.9477 0)
(20.802 68.4002 0)
(18.3543 73.3109 0)
(15.3877 77.5787 0)
(11.9489 81.061 0)
(8.11593 83.5859 0)
(3.99105 84.9191 0)
(-0.251126 84.9057 0)
(-4.43649 83.7832 0)
(-8.46037 81.5211 0)
(-12.2254 78.1767 0)
(-15.6423 73.8688 0)
(-18.6372 68.757 0)
(-21.1604 63.0312 0)
(-23.1859 56.8959 0)
(-24.7079 50.553 0)
(-25.7385 44.1933 0)
(-26.3045 37.9882 0)
(-26.4389 32.0846 0)
(-26.1786 26.6071 0)
(-25.5609 21.6574 0)
(-24.6241 17.3157 0)
(-23.4092 13.6369 0)
(-21.9622 10.6476 0)
(-20.3379 8.35053 0)
(-18.5974 6.72578 0)
(-16.7919 5.69334 0)
(-14.9698 5.16025 0)
(-13.166 5.017 0)
(-11.4172 5.12568 0)
(-9.77847 5.30324 0)
(-8.32419 5.34676 0)
(-7.07262 5.10911 0)
(-5.91728 4.54737 0)
(-4.76303 3.64266 0)
(-3.77953 2.39716 0)
(-3.13271 0.419824 0)
(-2.23162 -2.61449 0)
(-1.3767 -6.03482 0)
(-0.661497 -9.82882 0)
(-0.0562147 -14.039 0)
(0.443794 -18.6697 0)
(0.818565 -23.7142 0)
(1.04718 -29.1655 0)
(1.11206 -35.0108 0)
(1.00342 -41.2181 0)
(0.721251 -47.7251 0)
(0.275338 -54.4304 0)
(-0.315721 -61.1912 0)
(-1.02637 -67.8269 0)
(-1.82723 -74.1261 0)
(-2.68812 -79.8584 0)
(-3.57948 -84.7909 0)
(-4.47321 -88.6729 0)
(-5.32094 -91.2235 0)
(-5.99753 -91.9954 0)
(-6.4557 -91.0317 0)
(-6.72027 -88.7794 0)
(-6.75991 -85.3209 0)
(-6.56449 -80.7825 0)
(-6.15023 -75.3383 0)
(-5.54687 -69.1941 0)
(-4.7876 -62.5523 0)
(-3.91055 -55.5847 0)
(-2.96183 -48.4688 0)
(-1.9759 -41.3786 0)
(-0.97104 -34.401 0)
(0.0269614 -27.6514 0)
(1.01409 -21.2827 0)
(1.97479 -15.3409 0)
(2.75243 -9.77759 0)
(3.74495 -4.76079 0)
(5.20643 -0.581525 0)
(7.13017 4.18966 0)
(9.00529 7.68367 0)
(10.5327 10.2021 0)
(12.0627 11.829 0)
(13.6041 12.713 0)
(15.0635 13.0327 0)
(16.4002 12.9843 0)
(17.5798 12.7662 0)
(18.5799 12.5493 0)
(19.4028 12.4624 0)
(20.0707 12.596 0)
(20.6108 13.0081 0)
(21.0435 13.7282 0)
(21.3788 14.7666 0)
(21.6154 16.1265 0)
(21.7417 17.8155 0)
(21.7355 19.8489 0)
(21.5651 22.2472 0)
(21.2096 25.0424 0)
(20.6405 28.233 0)
(19.8382 31.8113 0)
(18.7871 35.7487 0)
(17.4755 39.9854 0)
(15.9019 44.4323 0)
(14.0743 48.9723 0)
(12.0098 53.4666 0)
(9.735 57.7624 0)
(7.28558 61.702 0)
(4.70429 65.13 0)
(2.04088 67.9044 0)
(-0.646407 69.8993 0)
(-3.29068 70.9868 0)
(-5.78614 70.9715 0)
(-19.7292 -36.7048 0)
(-17.8237 -25.3647 0)
(-15.7044 -15.7391 0)
(-13.7397 -7.7172 0)
(-11.9959 -0.545878 0)
(-9.38759 5.72305 0)
(-6.74466 9.95637 0)
(-4.40084 12.3679 0)
(-2.16813 13.2608 0)
(-0.0792261 13.0405 0)
(1.86657 12.1862 0)
(3.72549 10.8915 0)
(5.52504 9.28279 0)
(7.29411 7.38096 0)
(9.00512 5.10488 0)
(10.7698 2.60561 0)
(12.5968 0.00939506 0)
(14.4564 -2.5043 0)
(16.3073 -4.65858 0)
(18.0802 -6.1127 0)
(19.6975 -6.50763 0)
(21.0935 -5.53484 0)
(22.2373 -3.01216 0)
(23.1346 1.0909 0)
(23.8162 6.6477 0)
(24.3275 13.3734 0)
(24.6908 20.8452 0)
(24.9216 28.6651 0)
(24.9931 36.4966 0)
(24.8439 44.1123 0)
(24.3907 51.3919 0)
(23.5431 58.289 0)
(22.2213 64.7815 0)
(20.3696 70.8283 0)
(17.9659 76.3408 0)
(15.0267 81.1746 0)
(11.605 85.1492 0)
(7.78656 88.0534 0)
(3.68727 89.6293 0)
(-0.512612 89.6248 0)
(-4.64059 88.3742 0)
(-8.58686 85.8627 0)
(-12.2461 82.1602 0)
(-15.529 77.4029 0)
(-18.3657 71.7747 0)
(-20.7109 65.4926 0)
(-22.544 58.7867 0)
(-23.8652 51.8807 0)
(-24.6953 44.9849 0)
(-25.0688 38.2814 0)
(-25.0259 31.9219 0)
(-24.6106 26.031 0)
(-23.8619 20.7076 0)
(-22.8119 16.031 0)
(-21.4897 12.0619 0)
(-19.9256 8.83923 0)
(-18.1604 6.37205 0)
(-16.2537 4.63219 0)
(-14.2817 3.5581 0)
(-12.3093 3.03474 0)
(-10.3741 2.92477 0)
(-8.49567 3.11452 0)
(-6.68594 3.47674 0)
(-5.01158 3.76778 0)
(-3.58593 3.6619 0)
(-2.4219 3.05317 0)
(-1.34884 2.29553 0)
(-0.211191 1.49315 0)
(0.73091 -0.128557 0)
(1.86307 -3.81392 0)
(2.70636 -6.97 0)
(3.43929 -10.6108 0)
(4.10896 -14.7017 0)
(4.67642 -19.2002 0)
(5.11044 -24.0851 0)
(5.3813 -29.3491 0)
(5.46144 -34.9861 0)
(5.33162 -40.9744 0)
(4.98247 -47.263 0)
(4.41531 -53.7616 0)
(3.64186 -60.3373 0)
(2.68253 -66.8167 0)
(1.56484 -72.9934 0)
(0.322056 -78.6398 0)
(-1.0109 -83.5245 0)
(-2.39511 -87.4007 0)
(-3.77449 -90.0283 0)
(-5.02875 -91.0275 0)
(-6.07915 -90.2727 0)
(-6.93374 -88.2669 0)
(-7.55544 -85.0762 0)
(-7.92406 -80.8061 0)
(-8.04209 -75.6157 0)
(-7.92709 -69.6968 0)
(-7.60436 -63.2406 0)
(-7.10529 -56.4158 0)
(-6.46768 -49.4088 0)
(-5.72535 -42.3856 0)
(-4.90321 -35.4484 0)
(-4.0239 -28.7162 0)
(-3.09951 -22.3027 0)
(-2.13312 -16.2648 0)
(-1.12001 -10.7226 0)
(0.0206989 -5.94361 0)
(1.25735 -2.19021 0)
(2.91347 1.09875 0)
(4.99448 5.97341 0)
(6.7366 8.43877 0)
(8.389 10.0578 0)
(10.0131 10.9908 0)
(11.5506 11.414 0)
(12.9657 11.517 0)
(14.2288 11.4851 0)
(15.3177 11.4671 0)
(16.237 11.5637 0)
(17.0117 11.8526 0)
(17.6643 12.3964 0)
(18.2051 13.2352 0)
(18.635 14.3909 0)
(18.9478 15.879 0)
(19.1282 17.7161 0)
(19.1519 19.9223 0)
(19.0034 22.5302 0)
(18.6625 25.5525 0)
(18.1063 28.9912 0)
(17.3214 32.8391 0)
(16.294 37.0584 0)
(15.0191 41.5809 0)
(13.5006 46.3073 0)
(11.7508 51.1106 0)
(9.79065 55.8418 0)
(7.64932 60.3382 0)
(5.36326 64.4341 0)
(2.97487 67.9677 0)
(0.532629 70.7856 0)
(-1.90542 72.7554 0)
(-4.26843 73.737 0)
(-6.44567 73.4787 0)
(-23.67 -38.5068 0)
(-21.953 -27.5115 0)
(-19.9913 -18.0198 0)
(-17.9832 -9.95994 0)
(-15.9654 -3.02505 0)
(-13.633 2.83871 0)
(-10.9764 7.13257 0)
(-8.35551 9.63416 0)
(-5.91638 10.6719 0)
(-3.66968 10.6676 0)
(-1.58848 9.94229 0)
(0.395295 8.73081 0)
(2.33329 7.20046 0)
(4.24777 5.37176 0)
(6.03889 3.09534 0)
(7.85638 0.561869 0)
(9.73079 -2.08019 0)
(11.6201 -4.60296 0)
(13.4829 -6.69923 0)
(15.2593 -8.0207 0)
(16.8825 -8.20683 0)
(18.2813 -6.97273 0)
(19.4407 -4.19736 0)
(20.4138 0.125265 0)
(21.2563 5.87548 0)
(21.978 12.7437 0)
(22.5879 20.3609 0)
(23.0668 28.3495 0)
(23.3699 36.4079 0)
(23.4253 44.3381 0)
(23.1439 52.0318 0)
(22.4368 59.4363 0)
(21.2302 66.5078 0)
(19.4765 73.1727 0)
(17.1614 79.3016 0)
(14.3069 84.7107 0)
(10.9701 89.1789 0)
(7.242 92.4579 0)
(3.24703 94.2597 0)
(-0.827587 94.2464 0)
(-4.81126 92.8475 0)
(-8.59272 90.0599 0)
(-12.0658 85.9714 0)
(-15.144 80.7394 0)
(-17.762 74.5744 0)
(-19.8799 67.7214 0)
(-21.482 60.4367 0)
(-22.5739 52.9673 0)
(-23.182 45.5436 0)
(-23.3473 38.3587 0)
(-23.1161 31.5699 0)
(-22.5424 25.3 0)
(-21.6701 19.6375 0)
(-20.5336 14.6528 0)
(-19.1537 10.3993 0)
(-17.5366 6.92017 0)
(-15.6976 4.24705 0)
(-13.6878 2.38202 0)
(-11.5776 1.26238 0)
(-9.45069 0.764424 0)
(-7.38481 0.721295 0)
(-5.40802 0.930816 0)
(-3.5418 1.29209 0)
(-1.78368 1.87823 0)
(-0.232962 2.38341 0)
(1.0637 2.14696 0)
(2.25207 1.07996 0)
(3.37167 0.13992 0)
(4.63688 -2.18796 0)
(5.71719 -4.722 0)
(6.5221 -7.82525 0)
(7.28921 -11.4193 0)
(8.01312 -15.4244 0)
(8.62921 -19.7936 0)
(9.1041 -24.5063 0)
(9.40288 -29.5604 0)
(9.49054 -34.9571 0)
(9.33936 -40.6843 0)
(8.93117 -46.7026 0)
(8.25894 -52.9338 0)
(7.32704 -59.2565 0)
(6.15062 -65.5077 0)
(4.75497 -71.4905 0)
(3.17432 -76.9832 0)
(1.44829 -81.7587 0)
(-0.374927 -85.5873 0)
(-2.23234 -88.2391 0)
(-4.01162 -89.4211 0)
(-5.60761 -88.8744 0)
(-7.00855 -87.115 0)
(-8.17559 -84.2025 0)
(-9.07969 -80.2257 0)
(-9.70978 -75.3257 0)
(-10.0725 -69.6777 0)
(-10.187 -63.4657 0)
(-10.075 -56.8517 0)
(-9.76443 -50.0149 0)
(-9.29146 -43.1247 0)
(-8.67437 -36.2965 0)
(-7.92466 -29.6591 0)
(-7.05218 -23.3585 0)
(-6.04067 -17.5032 0)
(-4.84977 -12.1903 0)
(-3.48452 -7.54443 0)
(-2.07788 -3.62732 0)
(-1.01893 -0.371641 0)
(0.838597 3.56897 0)
(2.81712 6.36231 0)
(4.63548 8.12503 0)
(6.35504 9.17093 0)
(7.96809 9.71679 0)
(9.44712 9.97305 0)
(10.7724 10.1252 0)
(11.9296 10.3004 0)
(12.9299 10.5653 0)
(13.7977 10.9956 0)
(14.543 11.6701 0)
(15.1631 12.6407 0)
(15.6521 13.9367 0)
(16.0004 15.5776 0)
(16.192 17.5824 0)
(16.2238 19.9855 0)
(16.0803 22.8043 0)
(15.7388 26.0507 0)
(15.1889 29.7365 0)
(14.417 33.845 0)
(13.4162 38.331 0)
(12.1882 43.1177 0)
(10.7421 48.0964 0)
(9.09503 53.131 0)
(7.27115 58.0638 0)
(5.30155 62.7248 0)
(3.22218 66.9406 0)
(1.07337 70.5434 0)
(-1.09866 73.3757 0)
(-3.2371 75.29 0)
(-5.25938 76.1068 0)
(-7.06829 75.6062 0)
(-21.6723 -12.2323 0)
(-19.5672 -5.46899 0)
(-17.2115 0.0441899 0)
(-14.6043 4.11921 0)
(-11.9451 6.7082 0)
(-9.41105 7.97041 0)
(-7.06654 8.18478 0)
(-4.89209 7.6173 0)
(-2.83868 6.46815 0)
(-0.874668 4.95928 0)
(1.16602 3.27193 0)
(3.08574 1.00542 0)
(4.91165 -1.52464 0)
(6.79257 -4.19553 0)
(8.67642 -6.71117 0)
(10.5186 -8.73538 0)
(12.2796 -9.9237 0)
(13.881 -9.89996 0)
(15.1765 -8.39289 0)
(16.3435 -5.40979 0)
(17.3679 -0.938516 0)
(18.3373 4.8962 0)
(19.2535 11.8739 0)
(20.0692 19.6277 0)
(20.7466 27.7915 0)
(21.2381 36.0969 0)
(21.4653 44.3686 0)
(21.3365 52.5031 0)
(20.7677 60.4361 0)
(19.6925 68.1005 0)
(18.0707 75.3889 0)
(15.894 82.1341 0)
(13.1887 88.1132 0)
(10.0143 93.0671 0)
(6.46282 96.7081 0)
(2.66505 98.711 0)
(-1.18526 98.6657 0)
(-4.92469 97.095 0)
(-8.44403 94.0104 0)
(-11.6407 89.5177 0)
(-14.435 83.7997 0)
(-16.7691 77.0922 0)
(-18.6098 69.6685 0)
(-19.9461 61.8099 0)
(-20.7874 53.7871 0)
(-21.1628 45.8499 0)
(-21.115 38.2046 0)
(-20.6935 31.0148 0)
(-19.9608 24.4032 0)
(-18.9673 18.4462 0)
(-17.7573 13.197 0)
(-16.3543 8.68685 0)
(-14.739 4.94604 0)
(-12.8795 2.03428 0)
(-10.8126 -0.000696476 0)
(-8.6299 -1.20676 0)
(-6.41615 -1.68894 0)
(-4.2526 -1.60434 0)
(-2.18013 -1.109 0)
(-0.347255 -0.439293 0)
(1.19438 -0.0727273 0)
(3.08477 0.291958 0)
(4.63029 0.39582 0)
(5.89906 -0.111175 0)
(7.08874 -1.2358 0)
(8.23376 -3.08238 0)
(9.21934 -5.68646 0)
(10.0863 -8.78339 0)
(10.8967 -12.2977 0)
(11.6335 -16.1952 0)
(12.2623 -20.4232 0)
(12.7487 -24.9534 0)
(13.0529 -29.7826 0)
(13.1339 -34.9157 0)
(12.9561 -40.3493 0)
(12.4927 -46.0551 0)
(11.7286 -51.9681 0)
(10.6609 -57.9799 0)
(9.29975 -63.9408 0)
(7.66735 -69.6654 0)
(5.79771 -74.9426 0)
(3.73469 -79.5562 0)
(1.53169 -83.2883 0)
(-0.743466 -85.9236 0)
(-2.98725 -87.2448 0)
(-5.07182 -86.8943 0)
(-6.96601 -85.3752 0)
(-8.63169 -82.7434 0)
(-10.0319 -79.0758 0)
(-11.1428 -74.4934 0)
(-11.9599 -69.1541 0)
(-12.4933 -63.2321 0)
(-12.7562 -56.885 0)
(-12.7668 -50.2861 0)
(-12.5501 -43.6054 0)
(-12.1209 -36.98 0)
(-11.4842 -30.5441 0)
(-10.65 -24.4414 0)
(-9.62693 -18.774 0)
(-8.42882 -13.6186 0)
(-7.09305 -9.07257 0)
(-5.69259 -5.19684 0)
(-4.42593 -1.74422 0)
(-3.0288 1.53845 0)
(-0.998436 4.21067 0)
(0.967406 6.05246 0)
(2.76081 7.24701 0)
(4.42527 7.9529 0)
(5.93256 8.37225 0)
(7.26719 8.69936 0)
(8.45765 9.05081 0)
(9.52975 9.46904 0)
(10.4765 10.042 0)
(11.283 10.8676 0)
(11.9359 11.9974 0)
(12.43 13.4558 0)
(12.7625 15.2639 0)
(12.9516 17.4605 0)
(12.9742 20.0569 0)
(12.815 23.0784 0)
(12.466 26.5505 0)
(11.9146 30.4747 0)
(11.1544 34.8278 0)
(10.1861 39.5575 0)
(9.01768 44.5785 0)
(7.66403 49.774 0)
(6.14653 55.0002 0)
(4.4922 60.0924 0)
(2.73284 64.8746 0)
(0.903404 69.1709 0)
(-0.959122 72.8059 0)
(-2.81368 75.6147 0)
(-4.60504 77.4428 0)
(-6.23384 78.0333 0)
(-7.63559 77.3153 0)
(-10.5609 -0.701677 0)
(-8.91513 -0.767311 0)
(-7.29101 -0.758394 0)
(-5.68123 -0.802031 0)
(-4.11619 -0.929348 0)
(-2.57424 -1.00412 0)
(-1.18029 -1.13628 0)
(0.28244 -1.02616 0)
(1.90761 -0.88952 0)
(3.65498 -0.900622 0)
(5.34304 -0.907224 0)
(6.92986 -0.930216 0)
(8.50375 -0.991618 0)
(10.1263 -1.05399 0)
(11.7964 -1.08949 0)
(13.4769 -1.06752 0)
(15.0926 -0.974504 0)
(16.5296 -0.806559 0)
(17.6531 -0.579733 0)
(18.3184 -0.33206 0)
(18.4271 -0.0995437 0)
(18.1495 0.195366 0)
(17.2293 0.597179 0)
(15.5724 1.05935 0)
(13.1895 1.51106 0)
(10.0785 1.86571 0)
(6.3053 2.0481 0)
(2.23726 2.00743 0)
(-1.41169 2.07829 0)
(-5.26733 1.65242 0)
(-8.39714 1.67227 0)
(-10.4496 1.22865 0)
(-12.5529 0.819627 0)
(-13.9641 0.447599 0)
(-14.6877 0.140139 0)
(-14.8117 -0.104808 0)
(-14.4213 -0.296083 0)
(-13.6694 -0.42608 0)
(-12.6108 -0.488987 0)
(-11.4218 -0.490447 0)
(-10.2251 -0.449276 0)
(-9.06942 -0.384507 0)
(-8.01732 -0.306335 0)
(-7.10001 -0.225189 0)
(-6.32882 -0.150513 0)
(-5.6995 -0.0893196 0)
(-5.19677 -0.0462428 0)
(-4.79777 -0.0267078 0)
(-4.4715 -0.0465715 0)
(-4.17617 -0.088914 0)
(-3.86287 -0.103271 0)
(-3.48511 -0.149518 0)
(-3.01879 -0.321073 0)
(-2.44457 -0.567422 0)
(-1.72148 -0.627357 0)
(-0.83477 -0.673501 0)
(0.246962 -0.80901 0)
(1.46268 -0.833281 0)
(2.7172 -0.787386 0)
(3.97335 -0.773045 0)
(5.23833 -0.746618 0)
(6.44675 -0.658366 0)
(7.48823 -0.527054 0)
(8.2809 -0.377975 0)
(8.77393 -0.238955 0)
(8.99549 -0.119695 0)
(8.95494 -0.00669603 0)
(8.65835 0.10562 0)
(8.12793 0.210521 0)
(7.39355 0.303486 0)
(6.52617 0.393941 0)
(5.48595 0.476081 0)
(4.28233 0.522561 0)
(2.96525 0.617196 0)
(1.68636 0.742497 0)
(0.523534 0.651117 0)
(-0.61368 0.577313 0)
(-1.61529 0.495827 0)
(-2.43842 0.421995 0)
(-3.07403 0.346218 0)
(-3.49467 0.251138 0)
(-3.69344 0.157843 0)
(-3.70667 0.0863455 0)
(-3.6098 0.0292998 0)
(-3.42783 -0.0242163 0)
(-3.17193 -0.080348 0)
(-2.84621 -0.140413 0)
(-2.45868 -0.193594 0)
(-2.03354 -0.216038 0)
(-1.59269 -0.199641 0)
(-1.14057 -0.189633 0)
(-0.684154 -0.209964 0)
(-0.293507 -0.283157 0)
(0.113241 -0.31523 0)
(0.487145 -0.264849 0)
(0.849976 -0.213197 0)
(1.16684 -0.191415 0)
(1.46743 -0.199122 0)
(1.78351 -0.191069 0)
(2.0997 -0.169814 0)
(2.39225 -0.146406 0)
(2.64152 -0.121121 0)
(2.84406 -0.102604 0)
(3.00922 -0.0845891 0)
(3.13847 -0.0674265 0)
(3.22403 -0.0483568 0)
(3.25212 -0.0224425 0)
(3.21008 0.00846799 0)
(3.09655 0.0430248 0)
(2.91405 0.082648 0)
(2.65581 0.125265 0)
(2.32772 0.166028 0)
(1.93803 0.201059 0)
(1.49339 0.225818 0)
(0.995189 0.234324 0)
(0.464654 0.256054 0)
(-0.0558938 0.300195 0)
(-0.515737 0.264208 0)
(-0.974119 0.250626 0)
(-1.39529 0.220587 0)
(-1.75783 0.186379 0)
(-2.05229 0.151185 0)
(-2.27287 0.115043 0)
(-2.41645 0.079397 0)
(-2.48642 0.0479598 0)
(-2.49449 0.022082 0)
(-2.45079 0.0011146 0)
(-2.36653 -0.0167296 0)
(-2.25297 -0.0325277 0)
(-2.11851 -0.0446136 0)
(-1.97703 -0.051613 0)
(-1.84198 -0.0544756 0)
(-1.72409 -0.0542969 0)
(-1.62954 -0.0522821 0)
(-1.55976 -0.050104 0)
(-1.51217 -0.0495549 0)
(-1.48081 -0.0484927 0)
(-1.4532 -0.0391181 0)
(-1.42134 -0.0293593 0)
(-12.0621 -3.05089 0)
(-8.5468 -2.77328 0)
(-5.41665 -2.74473 0)
(-2.15825 -2.7328 0)
(0.850887 -2.2209 0)
(3.52503 -2.05055 0)
(5.91375 -2.32117 0)
(7.97267 -2.733 0)
(9.74348 -3.13028 0)
(11.4281 -3.23637 0)
(12.8423 -2.96025 0)
(13.9883 -2.80174 0)
(15.0364 -2.80835 0)
(16.1348 -2.78432 0)
(17.2955 -2.71629 0)
(18.4439 -2.56095 0)
(19.4718 -2.26729 0)
(20.241 -1.77194 0)
(20.5891 -1.04092 0)
(20.3 -0.0954021 0)
(19.2635 0.945089 0)
(17.1522 1.98372 0)
(14.3675 3.0294 0)
(11.1015 4.0068 0)
(7.59534 4.8657 0)
(4.12695 5.60532 0)
(0.718637 6.11926 0)
(-2.18901 6.22841 0)
(-5.37862 6.10365 0)
(-9.182 5.41924 0)
(-12.3014 5.02303 0)
(-14.7279 3.96566 0)
(-16.6194 2.73291 0)
(-17.7932 1.48449 0)
(-18.2247 0.395681 0)
(-17.9622 -0.488678 0)
(-17.2809 -1.17599 0)
(-16.2535 -1.68664 0)
(-14.9703 -2.01415 0)
(-13.5216 -2.15239 0)
(-11.9894 -2.14081 0)
(-10.4563 -2.03068 0)
(-8.98899 -1.85672 0)
(-7.63023 -1.65015 0)
(-6.39947 -1.43554 0)
(-5.29932 -1.22985 0)
(-4.32742 -1.04654 0)
(-3.47113 -0.888252 0)
(-2.69278 -0.741548 0)
(-1.9803 -0.646771 0)
(-1.30419 -0.738412 0)
(-0.469714 -0.782703 0)
(0.390472 -0.844163 0)
(1.40206 -1.11233 0)
(2.55099 -1.4172 0)
(3.74139 -1.67604 0)
(5.03108 -1.86058 0)
(6.36764 -1.94752 0)
(7.53851 -1.97234 0)
(8.50264 -1.95877 0)
(9.42769 -1.87763 0)
(10.2765 -1.69068 0)
(10.8606 -1.37182 0)
(11.1013 -0.930242 0)
(11.0594 -0.462957 0)
(10.7553 -0.00707603 0)
(10.2225 0.464169 0)
(9.46014 0.936168 0)
(8.48667 1.3242 0)
(7.35864 1.59941 0)
(6.06298 1.80765 0)
(4.67978 2.00445 0)
(3.19649 2.21793 0)
(1.6233 2.23448 0)
(-0.0599595 2.18275 0)
(-1.7702 2.03859 0)
(-3.29334 1.77552 0)
(-4.5697 1.4346 0)
(-5.61549 1.06681 0)
(-6.4335 0.665524 0)
(-6.93098 0.249196 0)
(-7.01053 -0.101619 0)
(-6.8248 -0.300937 0)
(-6.43894 -0.430375 0)
(-5.88957 -0.525359 0)
(-5.19482 -0.60239 0)
(-4.36376 -0.668861 0)
(-3.41533 -0.712853 0)
(-2.4205 -0.715796 0)
(-1.49891 -0.724755 0)
(-0.604982 -0.776098 0)
(0.254045 -0.693884 0)
(0.996435 -0.649916 0)
(1.77407 -0.633312 0)
(2.5181 -0.592274 0)
(3.05952 -0.536323 0)
(3.36646 -0.488339 0)
(3.59668 -0.47565 0)
(3.86512 -0.500103 0)
(4.10214 -0.521456 0)
(4.26176 -0.477162 0)
(4.32849 -0.362491 0)
(4.31655 -0.290784 0)
(4.26499 -0.227978 0)
(4.17542 -0.145168 0)
(4.04892 -0.0359011 0)
(3.87056 0.103777 0)
(3.62093 0.245832 0)
(3.28411 0.373019 0)
(2.86235 0.488616 0)
(2.377 0.592473 0)
(1.84303 0.677404 0)
(1.27808 0.740686 0)
(0.700866 0.79771 0)
(0.0877292 0.862051 0)
(-0.526764 0.845377 0)
(-1.16483 0.868227 0)
(-1.79694 0.838091 0)
(-2.34712 0.759891 0)
(-2.82989 0.651952 0)
(-3.23724 0.524565 0)
(-3.55694 0.386743 0)
(-3.78162 0.241657 0)
(-3.90363 0.0945216 0)
(-3.909 -0.0308218 0)
(-3.83324 -0.125928 0)
(-3.69822 -0.198383 0)
(-3.50948 -0.252468 0)
(-3.27186 -0.287965 0)
(-2.99641 -0.300151 0)
(-2.70251 -0.286677 0)
(-2.40995 -0.249054 0)
(-2.1348 -0.193516 0)
(-1.88816 -0.131331 0)
(-1.67451 -0.0728401 0)
(-1.48869 -0.0215149 0)
(-1.33136 0.0164672 0)
(-1.20754 0.00257594 0)
(-1.06286 -0.0142193 0)
(-20.6612 -8.54527 0)
(-17.1865 -8.42117 0)
(-13.2777 -8.07922 0)
(-9.2584 -7.78765 0)
(-5.04074 -7.84173 0)
(-0.309214 -7.38507 0)
(4.25513 -6.24664 0)
(8.54267 -4.86328 0)
(12.3235 -4.67831 0)
(15.3917 -3.84557 0)
(17.2906 -3.09014 0)
(17.9633 -2.67225 0)
(18.2322 -2.72226 0)
(18.5263 -3.11852 0)
(18.6225 -3.42557 0)
(18.5214 -3.42405 0)
(18.2724 -3.09652 0)
(17.8352 -2.26419 0)
(17.1106 -0.903667 0)
(15.9844 0.883745 0)
(14.4022 2.84077 0)
(12.4365 4.6552 0)
(10.2038 6.24124 0)
(7.76913 7.63751 0)
(5.14659 8.75699 0)
(2.35094 9.41518 0)
(-0.478708 9.77773 0)
(-3.56012 10.0193 0)
(-6.83181 9.63174 0)
(-9.89726 8.96598 0)
(-12.5164 7.96272 0)
(-14.6117 6.42353 0)
(-16.1629 4.45999 0)
(-17.0558 2.2826 0)
(-17.2911 0.364798 0)
(-17.0413 -1.10896 0)
(-16.4417 -2.24932 0)
(-15.4779 -3.10862 0)
(-14.1997 -3.69686 0)
(-12.7102 -3.99204 0)
(-11.0969 -4.02193 0)
(-9.43436 -3.84257 0)
(-7.79397 -3.5079 0)
(-6.23063 -3.08392 0)
(-4.78108 -2.63635 0)
(-3.47781 -2.21366 0)
(-2.35183 -1.83138 0)
(-1.43595 -1.50615 0)
(-0.709092 -1.3411 0)
(0.0326914 -1.40134 0)
(0.818115 -1.57808 0)
(1.49392 -1.945 0)
(1.94399 -2.30894 0)
(2.34539 -2.66499 0)
(2.78078 -3.02302 0)
(3.26614 -3.4111 0)
(3.89203 -3.9566 0)
(4.58581 -4.08214 0)
(5.36283 -3.28481 0)
(6.34152 -3.099 0)
(7.49959 -3.04001 0)
(8.7291 -2.4134 0)
(9.86528 -1.44546 0)
(10.6831 -0.458441 0)
(11.1712 0.388045 0)
(11.4106 1.0578 0)
(11.4776 1.60997 0)
(11.2448 2.07153 0)
(10.6836 2.4552 0)
(9.86532 2.79328 0)
(8.85159 3.12468 0)
(7.65066 3.47464 0)
(6.27451 3.81352 0)
(4.76202 4.1036 0)
(3.13416 4.27153 0)
(1.49748 4.22962 0)
(-0.161831 3.88337 0)
(-1.75568 3.121 0)
(-3.2742 2.69559 0)
(-4.62267 2.14169 0)
(-5.73961 1.11703 0)
(-6.51133 0.1942 0)
(-7.02518 -0.457231 0)
(-7.45308 -0.950135 0)
(-7.7715 -1.37858 0)
(-7.88644 -1.78007 0)
(-7.76766 -2.18428 0)
(-7.29785 -2.48716 0)
(-6.49332 -2.48787 0)
(-5.48236 -2.33831 0)
(-4.37967 -2.22128 0)
(-3.3495 -1.99545 0)
(-2.35433 -1.90305 0)
(-1.21472 -1.982 0)
(0.00496039 -1.87693 0)
(1.11951 -1.23723 0)
(2.14635 -0.673484 0)
(3.01577 -0.862689 0)
(3.7133 -0.769143 0)
(4.34958 -0.511285 0)
(4.91696 -0.283395 0)
(5.21474 -0.103873 0)
(5.16915 0.0564203 0)
(5.08814 0.177866 0)
(4.98428 0.250725 0)
(4.84596 0.301027 0)
(4.63529 0.401813 0)
(4.33316 0.58158 0)
(3.96785 0.773143 0)
(3.552 0.961412 0)
(3.07862 1.14067 0)
(2.54519 1.28959 0)
(1.95977 1.40098 0)
(1.34337 1.51054 0)
(0.704799 1.64834 0)
(0.0508108 1.73341 0)
(-0.568341 1.63377 0)
(-1.16777 1.51277 0)
(-1.72807 1.37423 0)
(-2.22194 1.20088 0)
(-2.63233 0.998307 0)
(-2.959 0.782634 0)
(-3.20583 0.543837 0)
(-3.35793 0.271243 0)
(-3.41757 0.03626 0)
(-3.39088 -0.133732 0)
(-3.32762 -0.270596 0)
(-3.22592 -0.402696 0)
(-3.08155 -0.527047 0)
(-2.89967 -0.609527 0)
(-2.69891 -0.640923 0)
(-2.50373 -0.634328 0)
(-2.33534 -0.603401 0)
(-2.20643 -0.558273 0)
(-2.11523 -0.51125 0)
(-2.04225 -0.470949 0)
(-1.96413 -0.440503 0)
(-1.8816 -0.424282 0)
(-1.80725 -0.40361 0)
(-17.7388 -10.3502 0)
(-16.739 -11.0906 0)
(-15.297 -11.5779 0)
(-13.4171 -11.8927 0)
(-11.2547 -11.9899 0)
(-9.02453 -11.7489 0)
(-6.52087 -11.402 0)
(-3.29339 -11.2869 0)
(0.461779 -10.8797 0)
(4.19855 -9.85502 0)
(7.82838 -6.54539 0)
(11.4396 -4.52566 0)
(14.6871 -4.27707 0)
(17.4677 -3.40854 0)
(19.3385 -2.70299 0)
(19.1582 -1.95115 0)
(17.9013 -1.12293 0)
(16.3418 -0.190032 0)
(14.6344 1.06834 0)
(12.8066 2.78057 0)
(10.8594 4.6871 0)
(8.86051 6.72941 0)
(6.6794 8.64208 0)
(4.3361 10.1629 0)
(1.94336 11.3117 0)
(-0.495822 12.1063 0)
(-3.00408 12.6798 0)
(-5.58844 12.9533 0)
(-8.13025 12.7596 0)
(-10.3124 11.9512 0)
(-11.938 10.3722 0)
(-13.2509 8.36909 0)
(-14.2343 5.94433 0)
(-14.7465 3.10862 0)
(-14.8591 0.580193 0)
(-14.9119 -1.38743 0)
(-14.8912 -2.93781 0)
(-14.7378 -4.21746 0)
(-14.2189 -5.09271 0)
(-13.4908 -5.61391 0)
(-12.6206 -5.82622 0)
(-11.6416 -5.77565 0)
(-10.5917 -5.53934 0)
(-9.49511 -5.19114 0)
(-8.33959 -4.76188 0)
(-7.10393 -4.25976 0)
(-5.77553 -3.69283 0)
(-4.3715 -3.15346 0)
(-2.90381 -2.83414 0)
(-1.37474 -2.69936 0)
(0.0275338 -2.44785 0)
(1.3828 -2.27316 0)
(2.61006 -2.20424 0)
(3.50535 -2.17386 0)
(4.06596 -2.23682 0)
(4.39933 -2.47952 0)
(4.33962 -2.74876 0)
(3.79852 -2.89138 0)
(3.33935 -3.23418 0)
(2.99837 -3.75884 0)
(2.59471 -4.24477 0)
(2.35254 -4.47707 0)
(2.71757 -4.12945 0)
(3.64771 -2.99748 0)
(4.99394 -1.94227 0)
(6.538 -1.09745 0)
(8.03383 -0.00257209 0)
(9.23753 1.60254 0)
(10.069 2.97618 0)
(10.5586 3.98912 0)
(10.6759 4.73617 0)
(10.6158 5.34609 0)
(10.403 5.85035 0)
(9.99475 6.13828 0)
(9.18682 6.18244 0)
(8.23362 5.93435 0)
(7.26028 5.43759 0)
(6.12047 4.80068 0)
(4.76098 4.07752 0)
(3.38377 3.22854 0)
(2.0911 2.31948 0)
(0.849213 1.03552 0)
(-0.116039 0.694667 0)
(-1.01091 0.29652 0)
(-1.91356 -0.123214 0)
(-2.85938 -0.615507 0)
(-3.79757 -1.24791 0)
(-4.55955 -1.99559 0)
(-5.09364 -2.73892 0)
(-5.50811 -3.01833 0)
(-5.85375 -3.06455 0)
(-6.03979 -3.03204 0)
(-6.03032 -3.10343 0)
(-5.90057 -3.19612 0)
(-5.70381 -3.14048 0)
(-5.30334 -2.86318 0)
(-4.59827 -2.46657 0)
(-3.83429 -2.11489 0)
(-3.1393 -1.98116 0)
(-2.29547 -2.03047 0)
(-1.3355 -1.78293 0)
(-0.290596 -0.632065 0)
(0.72055 -0.37693 0)
(1.58258 -0.220969 0)
(2.24615 -0.0254084 0)
(2.77241 0.232916 0)
(3.23414 0.680801 0)
(3.56727 1.0405 0)
(3.66602 1.3618 0)
(3.60228 1.64213 0)
(3.42681 1.89171 0)
(3.11814 2.09078 0)
(2.68214 2.21803 0)
(2.15185 2.28368 0)
(1.59523 2.29867 0)
(0.946446 2.26525 0)
(0.285165 2.23384 0)
(-0.310129 2.13687 0)
(-0.866491 1.95925 0)
(-1.34418 1.69506 0)
(-1.71271 1.37084 0)
(-2.00552 1.04135 0)
(-2.26201 0.711275 0)
(-2.40734 0.315914 0)
(-2.38471 -0.0548776 0)
(-2.34063 -0.311624 0)
(-2.30137 -0.481737 0)
(-2.22384 -0.622773 0)
(-2.06785 -0.754621 0)
(-1.84848 -0.830229 0)
(-1.60487 -0.830664 0)
(-1.36812 -0.745515 0)
(-1.16978 -0.588002 0)
(-1.03288 -0.400664 0)
(-0.960058 -0.240224 0)
(-0.94276 -0.132082 0)
(-0.975295 -0.0717633 0)
(-1.06248 -0.0505242 0)
(-1.20622 -0.0546195 0)
(-3.66098 -10.1736 0)
(-4.559 -11.1693 0)
(-5.23564 -11.9173 0)
(-5.68526 -12.4845 0)
(-5.97794 -12.875 0)
(-6.08307 -13.0772 0)
(-5.86097 -13.1998 0)
(-5.29423 -13.2771 0)
(-4.49414 -12.8914 0)
(-3.67944 -11.7224 0)
(-2.52191 -10.3607 0)
(-0.442652 -9.47037 0)
(2.04813 -8.80829 0)
(4.42394 -8.36217 0)
(6.49685 -5.59758 0)
(8.21052 -2.13624 0)
(9.02048 -0.796095 0)
(9.17215 0.740257 0)
(9.16381 2.51873 0)
(8.80167 4.72165 0)
(7.84101 7.3806 0)
(6.51225 9.33005 0)
(5.02007 11.1803 0)
(3.4313 12.8017 0)
(1.76216 14.1118 0)
(0.0560735 15.0399 0)
(-1.74699 15.5465 0)
(-3.52072 15.6779 0)
(-5.00257 14.9954 0)
(-6.02676 13.4473 0)
(-6.74938 11.4212 0)
(-7.26445 9.10199 0)
(-7.36302 6.50086 0)
(-8.24918 2.7713 0)
(-8.52693 0.756531 0)
(-8.80412 -0.871259 0)
(-9.21295 -2.32519 0)
(-9.58237 -3.7258 0)
(-9.8657 -5.04996 0)
(-10.1591 -5.75441 0)
(-10.4521 -6.07847 0)
(-10.7225 -6.13721 0)
(-10.8857 -5.89661 0)
(-11.0642 -5.53497 0)
(-11.3061 -5.18606 0)
(-11.5714 -4.90784 0)
(-11.7051 -4.66694 0)
(-11.5557 -4.48883 0)
(-11.2147 -4.44059 0)
(-10.7568 -4.49744 0)
(-10.2334 -4.53243 0)
(-9.68708 -4.47029 0)
(-8.93577 -4.37429 0)
(-7.99146 -4.28504 0)
(-6.84149 -4.2494 0)
(-5.44681 -4.22326 0)
(-3.84422 -4.06146 0)
(-2.11815 -3.72641 0)
(-0.37511 -3.32536 0)
(1.09753 -3.08734 0)
(1.49312 -2.75939 0)
(1.39282 -2.49237 0)
(1.14732 -2.55656 0)
(1.13587 -2.35719 0)
(1.32047 -2.03286 0)
(1.61726 -1.5189 0)
(1.98875 -0.74214 0)
(2.35572 0.191506 0)
(2.87496 1.04288 0)
(3.72168 1.78948 0)
(4.96476 2.493 0)
(6.55999 3.2323 0)
(8.28591 4.13811 0)
(9.92681 5.05488 0)
(11.3801 5.69604 0)
(12.6889 6.0596 0)
(13.7424 6.2083 0)
(14.366 6.229 0)
(14.637 6.17792 0)
(14.5191 5.73614 0)
(14.2337 4.15671 0)
(13.301 2.77675 0)
(12.1242 1.88026 0)
(10.8827 1.27723 0)
(9.57552 0.869781 0)
(8.31433 0.491908 0)
(7.20821 -0.150624 0)
(5.78293 -1.24619 0)
(4.35542 -1.51733 0)
(2.86067 -1.68228 0)
(1.30834 -1.74502 0)
(-0.320247 -1.86686 0)
(-1.89448 -2.08059 0)
(-3.2357 -2.30611 0)
(-4.43458 -2.49608 0)
(-5.50582 -2.57883 0)
(-6.35764 -2.54284 0)
(-6.94695 -2.50105 0)
(-7.31327 -2.5387 0)
(-7.53796 -2.55769 0)
(-7.61172 -2.46361 0)
(-7.29171 -2.31308 0)
(-6.66292 -1.8231 0)
(-5.82412 -1.39167 0)
(-5.00527 -0.980633 0)
(-4.19265 -0.756028 0)
(-3.57707 -0.51186 0)
(-2.83287 0.115083 0)
(-2.04303 0.590228 0)
(-1.28341 1.04984 0)
(-0.563275 1.5139 0)
(0.0787694 1.96264 0)
(0.602401 2.36726 0)
(0.982442 2.72923 0)
(1.1995 3.01948 0)
(1.26751 3.06652 0)
(1.17077 3.0367 0)
(0.934824 2.86984 0)
(0.65137 2.5809 0)
(0.350248 2.17714 0)
(0.062415 1.74852 0)
(-0.233152 1.41115 0)
(-0.536289 1.04587 0)
(-0.884985 0.415754 0)
(-1.15936 0.0569741 0)
(-1.31846 -0.153741 0)
(-1.50763 -0.332313 0)
(-1.75443 -0.563192 0)
(-1.96432 -0.845249 0)
(-2.07764 -1.03925 0)
(-2.15267 -1.10197 0)
(-2.24586 -1.05926 0)
(-2.35985 -0.931771 0)
(-2.49082 -0.774142 0)
(-2.60376 -0.63116 0)