/*--------------------------------*- C++ -*----------------------------------*\
| =========                 |                                                 |
| \\      /  F ield         | OpenFOAM: The Open Source CFD Toolbox           |
|  \\    /   O peration     | Version:  2206                                  |
|   \\  /    A nd           | Website:  www.openfoam.com                      |
|    \\/     M anipulation  |                                                 |
\*---------------------------------------------------------------------------*/
FoamFile
{
    version     2.0;
    format      ascii;
    arch        "LSB;label=32;scalar=64";
    class       volVectorField;
    location    "19.4001";
    object      ddt0(U);
}
// * * * * * * * * * * * * * * * * * * * * * * * * * * * * * * * * * * * * * //

dimensions      [0 1 -2 0 0 0 0];

internalField   nonuniform List<vector> 
1865
(
(-4.24506 -0.190936 0)
(-3.05396 0.0526785 0)
(-2.23115 0.200124 0)
(-1.61813 0.183688 0)
(-0.966162 -0.0646734 0)
(-0.20465 -0.778183 0)
(2.64599 -2.34468 0)
(3.36334 -5.20435 0)
(-7.02843 -2.23705 0)
(-6.80344 -1.75108 0)
(-6.5938 -1.32258 0)
(-6.34979 -1.10099 0)
(-5.99685 -1.2531 0)
(-5.47569 -2.06897 0)
(-4.72804 -3.92485 0)
(-4.93522 -7.67562 0)
(-6.97669 -1.26239 0)
(-7.41409 -0.940467 0)
(-7.73092 -0.705695 0)
(-7.93231 -0.714162 0)
(-8.06532 -1.09349 0)
(-8.25245 -2.05956 0)
(-8.77854 -3.85183 0)
(-10.2745 -6.62138 0)
(-7.3676 -0.993698 0)
(-7.67916 -0.777434 0)
(-7.90876 -0.643039 0)
(-8.09831 -0.684112 0)
(-8.34865 -1.01308 0)
(-8.80992 -1.72947 0)
(-9.78299 -2.86371 0)
(-11.5057 -4.32887 0)
(-7.50831 -0.5483 0)
(-7.79352 -0.423755 0)
(-8.04822 -0.343046 0)
(-8.33777 -0.359946 0)
(-8.75037 -0.530736 0)
(-9.4219 -0.887855 0)
(-10.5463 -1.38901 0)
(-12.3092 -1.86156 0)
(-7.64874 -0.33782 0)
(-7.90864 -0.218451 0)
(-8.17142 -0.102551 0)
(-8.50884 -0.02299 0)
(-8.87071 0.0112415 0)
(-9.60526 0.016188 0)
(-10.714 0.0320643 0)
(-12.2633 0.15023 0)
(-7.57814 -0.0266161 0)
(-7.79353 0.0722963 0)
(-8.02252 0.209668 0)
(-8.29875 0.371625 0)
(-8.64987 0.57163 0)
(-9.13753 0.842124 0)
(-9.82269 1.20437 0)
(-10.7668 1.702 0)
(-7.07413 0.0812698 0)
(-7.18805 0.198652 0)
(-7.30384 0.411484 0)
(-7.43877 0.591536 0)
(-7.61512 0.889475 0)
(-7.85509 1.2962 0)
(-8.17798 1.82279 0)
(-8.58627 2.50434 0)
(-6.11135 0.193604 0)
(-6.06729 0.271141 0)
(-5.97689 0.4062 0)
(-5.83189 0.605963 0)
(-5.63642 0.881863 0)
(-5.35725 1.25197 0)
(-5.00131 1.74196 0)
(-4.39567 2.36892 0)
(-4.80491 0.0382995 0)
(-4.66984 0.119487 0)
(-4.44654 0.23997 0)
(-4.08352 0.393286 0)
(-3.52656 0.595297 0)
(-2.70258 0.859269 0)
(-1.54357 1.16535 0)
(0.0525671 1.48002 0)
(12.578 -17.8214 0)
(4.47386 -22.6845 0)
(-10.6975 -31.0696 0)
(-33.5189 -37.4424 0)
(-59.2941 -41.2053 0)
(-91.2152 -38.5754 0)
(-125.833 -23.6614 0)
(-157.801 2.59392 0)
(-182.85 36.9219 0)
(-198.571 79.2962 0)
(-219.69 141.631 0)
(-214.89 204.348 0)
(-139.172 209.308 0)
(-49.6046 179.762 0)
(23.5407 141.904 0)
(78.2551 108.63 0)
(123.74 73.1539 0)
(158.387 25.9877 0)
(185.573 -14.3431 0)
(202.82 -44.518 0)
(210.494 -67.5425 0)
(212.661 -85.1244 0)
(212.182 -95.8244 0)
(202.327 -98.4993 0)
(181.339 -102.918 0)
(157.883 -109.057 0)
(163.065 -96.6627 0)
(214.668 -45.9135 0)
(282.592 11.9838 0)
(302.148 27.8185 0)
(247.056 -16.1491 0)
(163.918 -84.619 0)
(59.6582 -150.087 0)
(-9.27422 -184.662 0)
(-102.369 -196.37 0)
(-136.632 -185.482 0)
(-160.235 -166.103 0)
(-174.032 -144.658 0)
(-182.483 -120.726 0)
(-191.304 -93.681 0)
(-204.188 -61.5387 0)
(-222.396 -20.8688 0)
(-246.437 30.3081 0)
(-275.817 91.8782 0)
(-305.248 162.819 0)
(-327.637 238.188 0)
(-332.782 301.714 0)
(-299.871 319.838 0)
(-239.917 300.179 0)
(-163.394 253.916 0)
(-87.5256 194.417 0)
(-27.7386 137.772 0)
(28.1218 87.0561 0)
(103.96 11.6248 0)
(157.879 -54.0768 0)
(200.228 -98.1649 0)
(222.839 -123.833 0)
(225.906 -131.182 0)
(215.585 -121.501 0)
(201.967 -98.067 0)
(190.65 -60.3928 0)
(183.922 -10.6091 0)
(176.38 38.4181 0)
(165.107 67.4824 0)
(151.997 69.8163 0)
(137.208 51.1359 0)
(120.157 19.6193 0)
(101.017 -20.6938 0)
(74.7741 -65.1169 0)
(46.9014 -103.101 0)
(19.9332 -129.669 0)
(-7.04439 -143.653 0)
(-32.3976 -145.368 0)
(-54.426 -136.365 0)
(-73.3047 -120.365 0)
(-88.6995 -99.5408 0)
(-100.57 -75.8119 0)
(-109.409 -50.6536 0)
(-115.575 -25.1723 0)
(-118.977 -0.281155 0)
(-121.545 23.0983 0)
(-124.248 44.7437 0)
(-128.165 65.3357 0)
(-134.066 86.234 0)
(-141.165 108.589 0)
(-144.996 128.541 0)
(-136.636 135.826 0)
(-118.748 130.963 0)
(-93.3207 116.171 0)
(-58.2521 99.7747 0)
(-31.2167 77.7267 0)
(6.56181 53.4262 0)
(57.8182 18.2596 0)
(98.6108 -15.8819 0)
(130.094 -35.3484 0)
(148.73 -41.1707 0)
(149.649 -34.2338 0)
(141.635 -20.2993 0)
(127.631 -5.27481 0)
(111.114 6.50359 0)
(94.9002 12.4073 0)
(80.5196 11.4889 0)
(68.5583 4.18828 0)
(58.6707 -8.35866 0)
(49.1998 -24.5129 0)
(38.7155 -41.1761 0)
(28.153 -56.9563 0)
(16.6451 -70.1516 0)
(4.14699 -79.5141 0)
(-8.89952 -84.0945 0)
(-21.4733 -83.0981 0)
(-32.884 -77.2705 0)
(-42.992 -67.8631 0)
(-51.6277 -55.5538 0)
(-58.8712 -41.1087 0)
(-64.7786 -25.2663 0)
(-68.8932 -8.76218 0)
(-71.6843 7.76729 0)
(-73.3277 24.0174 0)
(-5.19593 -15.4798 0)
(-14.1002 -21.3739 0)
(-24.5885 -26.4573 0)
(-38.5623 -27.9511 0)
(-56.152 -22.93 0)
(-76.2837 -12.202 0)
(-98.1703 4.94386 0)
(-118.815 28.6259 0)
(-130.829 56.5418 0)
(-134.934 90.3569 0)
(-128.795 126.109 0)
(-79.8156 149.305 0)
(-20.6421 139.048 0)
(26.9567 117.355 0)
(68.2204 96.572 0)
(99.4546 71.1769 0)
(139.459 32.7256 0)
(166.307 -2.50754 0)
(187.851 -31.6829 0)
(201.396 -54.3472 0)
(207.226 -70.5324 0)
(207.249 -82.1787 0)
(201.281 -88.4819 0)
(188.818 -87.1649 0)
(172.582 -82.734 0)
(150.207 -80.4692 0)
(120.123 -78.0067 0)
(97.7889 -66.9275 0)
(103.788 -42.7987 0)
(107.288 -20.507 0)
(163.433 -15.2977 0)
(156.046 -23.7795 0)
(118.207 -47.6034 0)
(60.7298 -81.9587 0)
(-14.584 -114.142 0)
(-87.8703 -132.327 0)
(-139.122 -133.763 0)
(-187.142 -122.505 0)
(-224.857 -102.642 0)
(-251.05 -75.1914 0)
(-278.55 -38.9584 0)
(-308.266 7.6562 0)
(-340.293 64.2536 0)
(-369.399 126.512 0)
(-384.046 187.238 0)
(-369.499 237.451 0)
(-320.473 262.385 0)
(-250.129 253.266 0)
(-178.855 220.298 0)
(-97.0594 181.221 0)
(-35.7306 128.675 0)
(26.6656 70.8177 0)
(121.035 4.70491 0)
(192.45 -59.6364 0)
(223.325 -98.9223 0)
(238.067 -119.808 0)
(233.367 -124.651 0)
(217.053 -117.883 0)
(195.877 -103.413 0)
(173.329 -80.3693 0)
(155.479 -47.003 0)
(146.781 -2.10544 0)
(141.432 45.4047 0)
(138.951 76.5485 0)
(132.836 80.6736 0)
(125.687 64.4428 0)
(114.98 36.0188 0)
(100.28 1.16342 0)
(80.33 -39.1471 0)
(52.592 -76.029 0)
(24.6358 -102.536 0)
(-3.28486 -116.696 0)
(-29.2432 -121.047 0)
(-51.6269 -114.67 0)
(-71.7014 -100.918 0)
(-89.5986 -83.1894 0)
(-104.501 -62.7974 0)
(-115.881 -40.7833 0)
(-124.438 -18.356 0)
(-131.431 4.16956 0)
(-138.264 26.7925 0)
(-146.202 49.7559 0)
(-155.77 73.371 0)
(-164.008 95.7975 0)
(-164.999 113.002 0)
(-152.724 118.769 0)
(-128.027 114.08 0)
(-93.3994 104.706 0)
(-60.4981 85.4964 0)
(-21.3275 65.8201 0)
(28.3612 32.4857 0)
(74.5355 2.4119 0)
(111.645 -29.9009 0)
(133.941 -47.7962 0)
(138.44 -49.683 0)
(132.363 -40.1334 0)
(121.057 -23.8864 0)
(107.247 -5.21901 0)
(93.2575 11.1497 0)
(81.1429 21.9629 0)
(71.9361 25.4886 0)
(65.4966 21.8411 0)
(60.7663 12.5051 0)
(56.316 -0.667993 0)
(50.6218 -15.9408 0)
(42.3286 -31.3381 0)
(32.2708 -45.7536 0)
(20.5451 -57.8545 0)
(7.56353 -66.4621 0)
(-6.16595 -70.592 0)
(-19.8928 -70.1137 0)
(-32.8006 -65.3288 0)
(-44.5714 -57.1377 0)
(-55.0492 -46.2246 0)
(-63.9071 -33.2307 0)
(-71.3555 -19.1516 0)
(-77.521 -4.44064 0)
(-82.5929 10.7557 0)
(-86.6371 26.2481 0)
(-13.1159 -10.5226 0)
(-19.9625 -12.4062 0)
(-27.9894 -13.0073 0)
(-38.4715 -10.7383 0)
(-50.7754 -4.26603 0)
(-61.812 5.36426 0)
(-71.5867 18.6643 0)
(-76.8432 36.424 0)
(-72.7055 57.1023 0)
(-67.5368 78.1997 0)
(-47.5764 93.3394 0)
(-12.8027 105.568 0)
(17.7317 98.0658 0)
(32.8589 81.4346 0)
(71.985 65.8277 0)
(104.441 38.077 0)
(131.725 4.49563 0)
(158.51 -24.6513 0)
(180.082 -47.7101 0)
(193.682 -63.6609 0)
(200.04 -73.4302 0)
(200.007 -78.6268 0)
(188.825 -75.9611 0)
(172.579 -70.6343 0)
(152.733 -65.184 0)
(128.443 -57.6679 0)
(99.4163 -45.7625 0)
(69.9962 -31.7154 0)
(47.8472 -20.7166 0)
(33.4473 -21.1358 0)
(19.3277 -31.1882 0)
(5.45538 -39.8457 0)
(-0.249725 -47.5601 0)
(-12.9094 -50.3228 0)
(-43.7664 -50.9334 0)
(-87.3678 -58.5355 0)
(-138.382 -65.5703 0)
(-190.55 -64.2619 0)
(-238.561 -54.6678 0)
(-282.345 -35.1985 0)
(-321.951 -2.13909 0)
(-353.795 42.7151 0)
(-373.563 92.462 0)
(-367.955 132.404 0)
(-337.706 155.094 0)
(-283.344 167.744 0)
(-216.378 176.057 0)
(-122.113 179.107 0)
(-68.779 148.086 0)
(-3.25279 109.162 0)
(86.5175 45.3339 0)
(177.872 -16.0789 0)
(214.274 -68.3377 0)
(226.183 -94.3487 0)
(217.409 -104.393 0)
(201.674 -108.157 0)
(183.571 -104.796 0)
(163.177 -93.9048 0)
(139.526 -77.4341 0)
(115.96 -56.9069 0)
(98.1575 -31.0234 0)
(90.4945 4.43151 0)
(87.1168 45.9152 0)
(90.3867 76.6693 0)
(93.5688 82.6536 0)
(96.9045 68.9763 0)
(97.9946 44.5227 0)
(93.1441 15.5843 0)
(82.2056 -15.8289 0)
(62.5368 -47.3114 0)
(35.165 -72.2084 0)
(11.6036 -88.143 0)
(-14.5026 -94.5475 0)
(-48.8663 -92.3007 0)
(-69.2658 -81.8945 0)
(-90.3078 -66.6773 0)
(-108.434 -49.43 0)
(-123.115 -30.8797 0)
(-135.245 -10.123 0)
(-146.743 13.6587 0)
(-158.97 39.291 0)
(-170.871 63.7939 0)
(-177.722 83.2586 0)
(-167.676 93.877 0)
(-142.213 96.7967 0)
(-105.116 91.7987 0)
(-68.2269 75.7293 0)
(-24.2054 62.9205 0)
(26.7242 33.2204 0)
(69.7383 13.2543 0)
(101.705 -14.2761 0)
(119.637 -33.5859 0)
(121.136 -42.7419 0)
(111.109 -42.9109 0)
(95.391 -35.7755 0)
(79.3029 -23.294 0)
(66.2549 -7.37837 0)
(56.1063 8.80521 0)
(48.809 21.7432 0)
(46.0201 28.2958 0)
(47.3886 28.1663 0)
(50.7361 22.6902 0)
(53.7661 13.4067 0)
(54.6959 1.84521 0)
(52.4939 -10.639 0)
(46.8139 -23.1665 0)
(37.6635 -34.953 0)
(25.5092 -44.8296 0)
(11.6048 -52.009 0)
(-3.09157 -55.6836 0)
(-18.1663 -55.5091 0)
(-32.8683 -51.779 0)
(-46.6261 -45.0164 0)
(-59.1446 -35.7523 0)
(-70.2379 -24.4702 0)
(-79.7995 -11.563 0)
(-87.6926 2.60325 0)
(-93.3115 17.2376 0)
(-95.5559 30.852 0)
(-14.6678 -5.62346 0)
(-19.3081 -5.98676 0)
(-25.217 -5.21906 0)
(-32.8596 -2.45519 0)
(-39.5789 3.06026 0)
(-42.4647 11.7875 0)
(-51.1042 23.1612 0)
(-53.0626 36.5363 0)
(-50.1613 51.5052 0)
(-44.7504 63.1582 0)
(-39.4805 71.2403 0)
(-5.41823 79.2445 0)
(13.132 76.8296 0)
(35.7982 58.4368 0)
(63.594 37.0514 0)
(97.8935 4.58347 0)
(123.434 -25.9355 0)
(149.872 -50.7666 0)
(171.594 -67.3846 0)
(185.344 -74.8318 0)
(191.876 -76.3184 0)
(188.253 -71.8324 0)
(173.633 -61.2941 0)
(153.244 -49.4055 0)
(128.985 -38.2859 0)
(102.265 -28.5746 0)
(74.5582 -19.715 0)
(48.4438 -10.7481 0)
(26.159 -3.14816 0)
(7.53759 -0.166169 0)
(-9.81496 -1.07931 0)
(-33.1761 -9.02193 0)
(-60.4784 -21.7551 0)
(-87.5681 -30.3373 0)
(-114.66 -31.619 0)
(-142.571 -29.1882 0)
(-172.11 -26.6271 0)
(-201.679 -21.6995 0)
(-230.269 -11.7727 0)
(-255.787 4.43712 0)
(-272.189 27.4724 0)
(-274.265 51.7665 0)
(-257.918 70.4758 0)
(-211.026 89.3213 0)
(-149.883 106.542 0)
(-114.737 116.358 0)
(-51.8361 116.391 0)
(31.7387 104.439 0)
(114.303 74.4303 0)
(181.61 24.7304 0)
(210.577 -23.2399 0)
(203.233 -49.5516 0)
(178.973 -58.215 0)
(150.708 -65.8313 0)
(125.722 -76.8812 0)
(105.294 -84.4571 0)
(90.4992 -82.8895 0)
(76.9765 -71.8047 0)
(63.2982 -55.9912 0)
(47.2993 -38.0163 0)
(33.669 -18.2711 0)
(29.162 10.459 0)
(28.1451 44.2982 0)
(33.5974 69.0902 0)
(42.049 73.2594 0)
(51.9894 60.0225 0)
(61.5843 40.0488 0)
(68.5819 16.8849 0)
(68.6212 -8.00736 0)
(59.1179 -31.8305 0)
(41.7276 -50.4908 0)
(17.1824 -61.3682 0)
(-3.73778 -62.9432 0)
(-38.0825 -61.2037 0)
(-65.2559 -54.5494 0)
(-90.8208 -42.9659 0)
(-114.77 -28.2572 0)
(-133.733 -11.8956 0)
(-147.303 7.44399 0)
(-156.764 30.0504 0)
(-158.287 50.9457 0)
(-144.708 65.359 0)
(-114.901 72.9186 0)
(-90.123 58.5578 0)
(-52.0666 48.414 0)
(-10.759 42.6529 0)
(30.9137 24.5528 0)
(62.4365 11.5367 0)
(82.6215 -3.37115 0)
(92.9164 -13.4938 0)
(92.5577 -19.5919 0)
(84.5941 -22.5217 0)
(71.0379 -23.0377 0)
(54.765 -20.4724 0)
(38.8306 -15.568 0)
(26.3897 -9.26244 0)
(18.9503 -2.05213 0)
(14.5856 14.1227 0)
(15.9529 20.8525 0)
(22.231 22.9602 0)
(30.6286 20.7956 0)
(38.9693 15.5903 0)
(45.5457 8.64912 0)
(49.1178 0.816387 0)
(48.6746 -7.37579 0)
(44.4556 -15.6841 0)
(36.7489 -23.9167 0)
(25.7562 -31.5248 0)
(12.2398 -37.4184 0)
(-2.69079 -40.2468 0)
(-17.9992 -39.8368 0)
(-33.1879 -36.3362 0)
(-47.5804 -30.1445 0)
(-60.5186 -21.7243 0)
(-71.3961 -11.6329 0)
(-79.4776 -0.732898 0)
(-83.8289 9.80224 0)
(-82.3087 18.4567 0)
(-75.6039 24.4628 0)
(-14.9449 -2.06311 0)
(-18.0699 -1.52534 0)
(-21.5084 0.353504 0)
(-27.4342 3.75948 0)
(-31.9082 8.67332 0)
(-35.8892 15.8881 0)
(-38.2616 25.6152 0)
(-39.0739 36.2287 0)
(-35.4634 47.4748 0)
(-28.452 57.1915 0)
(-20.5134 60.744 0)
(-10.1352 61.0862 0)
(7.47142 50.7439 0)
(27.1387 30.7281 0)
(52.3514 7.33478 0)
(78.2042 -24.0089 0)
(105.937 -52.3671 0)
(133.272 -73.7894 0)
(155.182 -84.5039 0)
(169.187 -84.6191 0)
(174.105 -77.2942 0)
(163.021 -60.4342 0)
(145.216 -42.4771 0)
(123.004 -26.6637 0)
(97.4156 -13.1486 0)
(69.1388 -0.960418 0)
(41.6849 9.07422 0)
(19.1775 16.0973 0)
(1.30875 19.0935 0)
(-15.1285 19.5053 0)
(-34.8858 17.6845 0)
(-56.1863 13.6896 0)
(-78.2772 8.52311 0)
(-99.7074 3.12917 0)
(-116.335 -0.964242 0)
(-126.288 -3.56056 0)
(-137.648 -3.95286 0)
(-152.519 -1.45839 0)
(-163.82 2.6686 0)
(-168.858 9.16444 0)
(-164.924 18.7634 0)
(-142.011 31.9635 0)
(-108.263 37.6084 0)
(-70.3166 41.3338 0)
(-20.9517 54.4721 0)
(47.4511 40.8776 0)
(115.533 30.2156 0)
(174.901 14.3183 0)
(197.489 10.1332 0)
(173.024 13.4978 0)
(137.539 4.43661 0)
(101.332 -0.942774 0)
(73.7208 -12.487 0)
(53.3153 -34.9847 0)
(35.577 -55.8346 0)
(28.9212 -70.3142 0)
(28.4315 -75.3597 0)
(24.3132 -64.4562 0)
(14.8127 -47.1627 0)
(2.20474 -27.2896 0)
(-6.36992 -8.13023 0)
(-10.1652 6.54577 0)
(-11.7552 42.688 0)
(-11.4438 62.4237 0)
(-6.55941 65.1029 0)
(3.38339 50.3659 0)
(14.3938 30.342 0)
(21.2241 11.4698 0)
(23.9654 -2.76026 0)
(21.3056 -19.6522 0)
(15.0373 -32.2729 0)
(6.7386 -38.4109 0)
(-7.44971 -36.8484 0)
(-25.6899 -32.8975 0)
(-46.6785 -26.6971 0)
(-66.0868 -15.0995 0)
(-80.6572 -5.69645 0)
(-88.7575 1.44217 0)
(-96.2286 11.7813 0)
(-91.5992 22.0762 0)
(-69.0412 24.503 0)
(-45.3423 23.906 0)
(-19.2877 26.1802 0)
(5.67447 23.8322 0)
(23.3014 18.6701 0)
(35.7739 11.7955 0)
(43.5329 7.47388 0)
(46.7263 5.20719 0)
(46.4867 1.82989 0)
(43.6367 -2.0772 0)
(38.404 -6.56055 0)
(30.9228 -9.63491 0)
(22.0048 -10.6969 0)
(13.0494 -9.35287 0)
(5.69755 -7.00891 0)
(-0.572479 -3.46931 0)
(-5.16438 5.90061 0)
(-4.71348 11.1957 0)
(0.831877 13.8903 0)
(8.79695 13.8293 0)
(17.3555 11.4825 0)
(25.2686 7.7394 0)
(31.5006 3.29614 0)
(35.3023 -1.48077 0)
(36.1122 -6.54198 0)
(34.5827 -11.6805 0)
(29.2072 -15.8603 0)
(21.1036 -19.2861 0)
(10.6178 -22.4656 0)
(-1.98408 -24.6024 0)
(-15.2239 -23.8488 0)
(-27.7075 -21.2345 0)
(-38.6031 -17.0199 0)
(-47.0415 -11.6276 0)
(-52.3643 -5.6565 0)
(-53.7942 0.141872 0)
(-51.4842 5.04168 0)
(-46.2714 8.9552 0)
(-38.9253 11.9906 0)
(-14.1897 0.515409 0)
(-16.5915 1.49889 0)
(-19.1003 3.69384 0)
(-21.4138 7.15259 0)
(-23.5177 11.8611 0)
(-25.316 18.3638 0)
(-26.1768 26.5365 0)
(-24.8009 35.0137 0)
(-21.9456 42.9714 0)
(-17.2658 49.1671 0)
(-10.382 51.7345 0)
(-0.78784 48.9544 0)
(10.5908 35.7785 0)
(26.2734 15.13 0)
(43.9106 -16.495 0)
(62.7449 -51.7755 0)
(82.95 -82.1283 0)
(101.412 -100.506 0)
(116.199 -103.611 0)
(124.91 -92.7133 0)
(118.587 -70.156 0)
(107.181 -45.1997 0)
(89.1038 -21.1204 0)
(65.2333 -1.08653 0)
(42.5676 14.9518 0)
(22.379 25.9987 0)
(3.51346 29.877 0)
(-10.8971 30.651 0)
(-23.3932 34.2231 0)
(-35.7414 39.0444 0)
(-44.9397 40.178 0)
(-48.6053 31.9821 0)
(-48.7048 20.1811 0)
(-50.0683 7.13061 0)
(-53.9758 2.48778 0)
(-58.0074 -3.80459 0)
(-59.9199 -1.67537 0)
(-59.3534 2.48342 0)
(-56.3889 4.56978 0)
(-49.6255 4.06009 0)
(-36.1815 1.16699 0)
(-13.4787 -3.80104 0)
(17.2376 -10.5081 0)
(49.5365 -15.2038 0)
(75.2818 -14.3579 0)
(87.6167 -4.12405 0)
(84.382 2.01416 0)
(74.0855 18.7528 0)
(53.011 63.4503 0)
(33.1122 67.0326 0)
(23.6678 46.4852 0)
(19.0401 18.5034 0)
(14.6746 -3.36535 0)
(10.2835 -29.0151 0)
(7.40464 -58.3362 0)
(6.66873 -77.5584 0)
(5.3732 -75.8242 0)
(-1.64072 -57.9858 0)
(-11.1517 -35.7347 0)
(-20.1456 -16.7163 0)
(-28.9634 -4.86786 0)
(-36.4028 13.7371 0)
(-40.9349 48.1329 0)
(-35.0609 62.7595 0)
(-20.1011 53.1931 0)
(-5.86819 36.7058 0)
(5.80231 19.4022 0)
(15.2015 4.15381 0)
(17.3841 -4.64343 0)
(15.266 -23.2112 0)
(10.1783 -32.7791 0)
(1.58621 -31.9001 0)
(-6.96172 -27.488 0)
(-13.8354 -21.6504 0)
(-19.213 -15.8676 0)
(-21.8972 -10.4968 0)
(-21.5604 -5.19462 0)
(-18.5155 0.693246 0)
(-13.4955 4.81693 0)
(-9.30407 6.27337 0)
(-6.90393 9.18089 0)
(-5.67745 15.0163 0)
(-4.33207 20.2915 0)
(-1.44631 20.6846 0)
(0.998581 19.2749 0)
(3.36332 15.693 0)
(5.97885 11.2099 0)
(9.93437 6.5435 0)
(13.5738 0.723323 0)
(15.5891 -3.27884 0)
(14.6456 -5.05987 0)
(11.9244 -5.579 0)
(8.17775 -5.20536 0)
(4.62485 -4.34609 0)
(1.36627 -1.9229 0)
(-1.95853 1.09051 0)
(-2.75825 3.92023 0)
(-0.40881 6.37022 0)
(3.78558 7.13525 0)
(8.40899 6.21286 0)
(12.728 4.1425 0)
(16.2958 1.49644 0)
(18.7726 -1.09165 0)
(19.9339 -3.43559 0)
(19.6548 -5.92132 0)
(17.5855 -8.39143 0)
(14.2556 -10.0649 0)
(9.55172 -11.8663 0)
(3.79586 -13.5654 0)
(-2.91131 -14.4034 0)
(-9.819 -14.0646 0)
(-16.1724 -12.8818 0)
(-21.4721 -10.7702 0)
(-25.3033 -7.91751 0)
(-27.4514 -4.62186 0)
(-27.8126 -1.13482 0)
(-26.7289 2.31648 0)
(-24.4889 5.4905 0)
(-21.356 8.14025 0)
(-11.9824 2.45698 0)
(-13.5363 3.7093 0)
(-15.1867 5.74716 0)
(-16.4393 8.7941 0)
(-16.9528 12.9383 0)
(-16.3329 18.3683 0)
(-14.0865 24.8702 0)
(-10.189 31.9274 0)
(-4.94271 38.9408 0)
(1.40711 44.3048 0)
(8.78113 45.7186 0)
(17.3821 42.5829 0)
(26.0115 23.3556 0)
(32.3433 2.80281 0)
(35.1948 -27.0533 0)
(30.5361 -60.5868 0)
(26.0821 -90.581 0)
(25.8591 -110.594 0)
(31.0797 -114.799 0)
(29.2222 -94.2671 0)
(22.0227 -63.3307 0)
(8.53793 -34.2051 0)
(-3.11311 -1.26992 0)
(-17.618 19.9893 0)
(-26.2385 29.0362 0)
(-31.917 41.696 0)
(-37.7445 46.5114 0)
(-36.4463 44.816 0)
(-25.9026 39.5107 0)
(-9.32049 31.7294 0)
(7.0781 25.6749 0)
(12.3752 20.9634 0)
(6.75165 16.4626 0)
(-1.49436 11.7412 0)
(-8.9462 6.61115 0)
(-14.0617 2.07645 0)
(-16.7229 -1.11705 0)
(-16.1742 -3.19588 0)
(-12.189 -6.03146 0)
(-5.71438 -11.0238 0)
(3.73191 -17.3692 0)
(9.8356 -22.1239 0)
(12.2687 -19.6 0)
(14.1513 -10.6319 0)
(14.9417 2.76567 0)
(13.97 11.6406 0)
(10.5277 30.7586 0)
(4.40826 44.8131 0)
(8.94646 51.7201 0)
(23.0755 48.4169 0)
(29.8266 32.8638 0)
(30.125 12.7416 0)
(28.1178 -5.44408 0)
(21.3701 -24.5302 0)
(11.2613 -54.8078 0)
(2.07496 -68.6479 0)
(-6.97188 -63.2354 0)
(-17.7183 -47.5637 0)
(-24.4246 -29.3009 0)
(-28.3731 -12.3817 0)
(-30.3579 5.82115 0)
(-28.842 23.661 0)
(-21.6328 37.6472 0)
(-7.78788 40.298 0)
(5.66402 33.7822 0)
(14.6692 23.9879 0)
(16.6307 12.7887 0)
(15.9952 3.33075 0)
(15.0923 -5.66214 0)
(12.0299 -14.5963 0)
(7.25475 -22.1566 0)
(1.21654 -25.9863 0)
(-3.34413 -24.0029 0)
(-5.84761 -20.3802 0)
(-7.71248 -16.1383 0)
(-10.0243 -11.2161 0)
(-12.2959 -5.83272 0)
(-14.4417 -2.17305 0)
(-16.3737 6.59308 0)
(-17.8655 13.6035 0)
(-18.067 17.4455 0)
(-16.015 19.1969 0)
(-12.0364 18.9727 0)
(-6.13827 16.4809 0)
(-0.432635 11.9242 0)
(3.8024 8.0655 0)
(7.55876 4.21773 0)
(10.3492 -1.18135 0)
(11.6404 -2.92915 0)
(11.3418 -3.46792 0)
(10.3106 -3.53399 0)
(8.85989 -3.17542 0)
(6.95038 -2.96771 0)
(5.16288 -1.95534 0)
(3.14062 0.563876 0)
(1.9226 2.32972 0)
(1.75818 3.98457 0)
(2.69824 4.83423 0)
(4.33813 4.94415 0)
(6.31682 4.29744 0)
(8.10118 2.7713 0)
(9.36643 0.817091 0)
(10.0769 -1.18804 0)
(10.2164 -3.10673 0)
(9.76585 -4.86803 0)
(8.49082 -6.39824 0)
(6.50097 -7.94027 0)
(4.08593 -9.22317 0)
(1.01998 -9.9753 0)
(-2.50075 -10.2283 0)
(-6.15668 -9.86876 0)
(-9.60523 -8.88703 0)
(-12.5943 -7.33271 0)
(-14.878 -5.33754 0)
(-16.3083 -3.08311 0)
(-16.7619 -0.73684 0)
(-16.3193 1.5186 0)
(-15.0661 3.52207 0)
(-13.1355 5.17387 0)
(-9.04238 3.41276 0)
(-9.40872 4.674 0)
(-9.4502 6.39913 0)
(-8.61987 8.07632 0)
(-6.24007 11.5445 0)
(-2.16431 14.5761 0)
(4.23566 19.3816 0)
(12.9864 25.2465 0)
(22.9701 31.3669 0)
(37.254 34.6797 0)
(53.4418 33.5828 0)
(66.9464 28.6268 0)
(71.7156 21.1011 0)
(56.3901 10.948 0)
(20.5642 -6.88428 0)
(-6.47979 -37.68 0)
(-35.3899 -68.2756 0)
(-60.5904 -91.9313 0)
(-75.614 -99.6876 0)
(-81.4929 -80.1365 0)
(-86.5644 -46.7277 0)
(-86.8669 -15.7457 0)
(-83.4257 8.02034 0)
(-74.2036 17.5566 0)
(-60.9829 29.7665 0)
(-43.0094 33.3285 0)
(-24.3461 27.7377 0)
(-9.86534 18.3982 0)
(-2.95241 15.0442 0)
(-2.96554 20.0486 0)
(-4.75272 28.0721 0)
(-3.48803 28.8497 0)
(0.306138 24.0676 0)
(3.99768 16.4813 0)
(5.85321 9.26458 0)
(6.06301 3.2197 0)
(5.70022 -1.10829 0)
(5.69053 -4.87802 0)
(6.01856 -8.99865 0)
(6.20958 -13.3201 0)
(4.12505 -16.7711 0)
(-0.440929 -17.8378 0)
(-3.8829 -14.963 0)
(-8.1579 -9.30136 0)
(-10.7617 0.404846 0)
(-10.803 12.227 0)
(-7.34049 22.9242 0)
(1.34851 32.6955 0)
(14.4672 42.3111 0)
(29.4381 39.1695 0)
(41.9624 28.3504 0)
(49.0259 13.0682 0)
(49.5597 -2.65641 0)
(42.7724 -22.463 0)
(30.5983 -40.4611 0)
(15.2365 -50.2085 0)
(-2.26943 -47.9756 0)
(-16.3515 -36.2197 0)
(-23.6311 -22.0514 0)
(-27.4009 -8.41401 0)
(-28.2454 3.76087 0)
(-25.7463 15.4629 0)
(-18.747 25.8803 0)
(-8.40489 30.284 0)
(2.29187 28.9087 0)
(11.0364 21.1111 0)
(15.9665 11.8686 0)
(18.209 2.52647 0)
(17.7555 -5.76703 0)
(14.9876 -13.2876 0)
(9.97848 -18.5189 0)
(2.44396 -20.6916 0)
(-5.26079 -18.7654 0)
(-10.9476 -15.2534 0)
(-15.4347 -10.9245 0)
(-18.805 -6.29862 0)
(-20.9752 -1.67898 0)
(-21.9591 2.75354 0)
(-21.2276 6.31059 0)
(-18.5445 8.74248 0)
(-14.6148 10.2509 0)
(-9.97028 11.2266 0)
(-4.80246 11.4676 0)
(-0.36795 10.6066 0)
(3.07105 8.28785 0)
(6.35098 5.5809 0)
(8.35247 2.59363 0)
(9.12504 0.412907 0)
(8.66283 -1.12036 0)
(7.8076 -1.90685 0)
(6.81206 -2.03059 0)
(5.73929 -1.71242 0)
(4.62596 -1.04285 0)
(3.63642 -0.0893538 0)
(3.13596 1.0292 0)
(3.38222 2.06466 0)
(4.22967 2.86695 0)
(5.41186 3.20562 0)
(6.77827 2.96849 0)
(8.12886 2.15472 0)
(9.16256 1.00171 0)
(9.70215 -0.278629 0)
(9.68827 -1.54825 0)
(9.17158 -2.73376 0)
(8.28577 -3.88452 0)
(6.69926 -5.01339 0)
(4.61399 -5.6685 0)
(2.36366 -6.35388 0)
(-0.188802 -6.82471 0)
(-2.9526 -6.97924 0)
(-5.7421 -6.7204 0)
(-8.37419 -6.07302 0)
(-10.669 -5.06595 0)
(-12.4692 -3.76405 0)
(-13.6676 -2.26657 0)
(-14.1964 -0.668686 0)
(-14.0535 0.924994 0)
(-13.2979 2.40152 0)
(-12.0021 3.66905 0)
(-3.54511 3.16945 0)
(-2.47671 4.11159 0)
(-0.0946034 4.99578 0)
(3.67371 5.79807 0)
(9.4725 6.42986 0)
(18.0052 7.01893 0)
(29.9161 7.41686 0)
(46.1931 7.26694 0)
(68.5949 6.55673 0)
(86.5101 9.39768 0)
(98.2453 19.039 0)
(99.1596 29.9149 0)
(97.0345 31.7977 0)
(97.6139 27.4802 0)
(95.0066 3.59128 0)
(91.6768 -25.8623 0)
(67.9012 -52.1459 0)
(26.0007 -67.1324 0)
(-19.7561 -72.0475 0)
(-50.3894 -67.066 0)
(-72.8328 -45.6684 0)
(-85.5737 -23.8467 0)
(-86.1718 -6.85147 0)
(-81.0004 2.88615 0)
(-72.8158 7.65455 0)
(-63.3094 11.7229 0)
(-54.8905 16.1817 0)
(-46.1407 19.0069 0)
(-38.1067 21.2418 0)
(-28.8956 20.6255 0)
(-18.4013 18.1068 0)
(-6.29954 16.4651 0)
(4.58069 13.261 0)
(11.8214 9.56476 0)
(15.8185 5.81187 0)
(17.778 2.27997 0)
(17.6029 -0.696841 0)
(16.1512 -3.11795 0)
(13.235 -6.04174 0)
(8.57866 -9.11006 0)
(2.41134 -11.9383 0)
(-4.13446 -11.2617 0)
(-11.6348 -9.30095 0)
(-16.7447 -5.30635 0)
(-17.7722 0.649612 0)
(-15.7421 7.30033 0)
(-8.94669 14.2554 0)
(2.28958 20.0747 0)
(17.5387 23.2201 0)
(34.5762 22.1829 0)
(49.0023 16.2677 0)
(60.0404 8.82217 0)
(61.923 -0.414016 0)
(53.7649 -11.8192 0)
(40.2455 -23.0166 0)
(20.3073 -29.981 0)
(-0.0321038 -31.2801 0)
(-16.0511 -24.108 0)
(-27.6635 -15.0747 0)
(-34.0086 -6.0538 0)
(-35.2298 2.32871 0)
(-31.1146 9.88631 0)
(-22.2744 15.3817 0)
(-10.4514 17.3591 0)
(1.08306 16.2128 0)
(10.7146 12.3347 0)
(16.8867 7.20219 0)
(19.4121 2.11271 0)
(18.6729 -2.58632 0)
(14.9454 -7.09007 0)
(8.5433 -10.5382 0)
(1.53763 -12.6797 0)
(-5.31109 -11.47 0)
(-12.0468 -9.34029 0)
(-17.3009 -6.85293 0)
(-20.873 -4.20624 0)
(-22.672 -1.60222 0)
(-22.735 0.848632 0)
(-21.1682 3.40518 0)
(-18.1163 5.43166 0)
(-14.0341 6.6604 0)
(-9.3745 7.19255 0)
(-4.56632 6.97256 0)
(-0.182595 5.82514 0)
(3.42069 4.62113 0)
(6.06091 3.06632 0)
(7.62088 1.45577 0)
(8.12611 0.0327246 0)
(7.82737 -0.837751 0)
(7.12003 -1.15225 0)
(6.27648 -1.178 0)
(5.47795 -0.961865 0)
(4.87607 -0.592 0)
(4.56067 -0.012149 0)
(4.68193 0.743091 0)
(5.2397 1.46504 0)
(6.20507 1.90173 0)
(7.34298 2.02718 0)
(8.54579 1.88292 0)
(9.56338 1.44797 0)
(10.1853 0.774113 0)
(10.3245 -0.03358 0)
(9.97494 -0.862117 0)
(9.13951 -1.68445 0)
(7.80834 -2.47751 0)
(6.32264 -3.28124 0)
(4.39984 -3.84434 0)
(1.81361 -4.09004 0)
(-0.852348 -4.21368 0)
(-3.62753 -4.25826 0)
(-6.35503 -4.04869 0)
(-8.90499 -3.62144 0)
(-11.1176 -2.99833 0)
(-12.8538 -2.21645 0)
(-14.021 -1.33045 0)
(-14.5588 -0.396508 0)
(-14.4457 0.526217 0)
(-13.7306 1.37436 0)
(-12.473 2.0959 0)
(2.07256 1.85544 0)
(5.36239 1.94416 0)
(7.9835 1.21777 0)
(9.83437 -0.279849 0)
(11.7596 -1.60141 0)
(13.093 -2.69319 0)
(12.5126 -3.79732 0)
(11.1701 -1.58235 0)
(12.6578 8.18266 0)
(19.6446 21.5784 0)
(34.9204 32.2222 0)
(58.2859 29.8556 0)
(94.9501 16.6127 0)
(123.123 9.68179 0)
(137.488 -4.31065 0)
(131.378 -15.8029 0)
(101.597 -20.058 0)
(65.0735 -21.1579 0)
(21.3065 -23.8141 0)
(-21.8504 -21.9387 0)
(-54.5894 -19.2748 0)
(-78.0258 -12.01 0)
(-92.3896 -4.37553 0)
(-93.0562 1.46434 0)
(-90.1796 5.567 0)
(-83.271 7.89947 0)
(-73.4454 8.11866 0)
(-61.5719 7.39079 0)
(-48.8335 6.90762 0)
(-35.8805 6.71542 0)
(-22.388 6.68283 0)
(-10.9392 7.44389 0)
(-1.14913 5.78625 0)
(7.35432 4.11348 0)
(13.748 2.66269 0)
(17.835 1.32899 0)
(19.4155 0.167041 0)
(18.1237 -1.42418 0)
(14.7686 -2.42994 0)
(9.57314 -3.45245 0)
(3.2006 -4.5499 0)
(-4.09158 -4.45986 0)
(-11.7109 -3.64118 0)
(-17.2666 -1.61307 0)
(-19.0788 0.301269 0)
(-16.7759 2.6118 0)
(-9.57556 4.97252 0)
(2.19769 6.95116 0)
(16.2431 8.7329 0)
(31.0407 8.26605 0)
(46.6702 6.51398 0)
(58.5464 4.71736 0)
(60.0396 -1.9424 0)
(53.4644 -5.19375 0)
(41.4277 -8.17965 0)
(23.6275 -10.3548 0)
(5.09156 -11.0884 0)
(-11.4581 -8.98005 0)
(-25.8985 -5.59811 0)
(-33.7691 -2.18348 0)
(-35.3717 0.800459 0)
(-31.8981 3.31055 0)
(-23.5782 5.11369 0)
(-12.1175 5.82248 0)
(-0.764659 5.52069 0)
(9.0125 4.29611 0)
(15.9982 2.67682 0)
(19.5701 0.873209 0)
(19.5696 -1.02706 0)
(15.9815 -2.49609 0)
(10.0791 -3.54394 0)
(3.11631 -4.02025 0)
(-4.00761 -3.89645 0)
(-10.9574 -3.28069 0)
(-16.7736 -2.44273 0)
(-20.8375 -1.51419 0)
(-22.9672 -0.592429 0)
(-23.4522 0.294596 0)
(-22.0548 1.11931 0)
(-19.1175 1.75811 0)
(-15.1871 2.15441 0)
(-10.5371 2.35337 0)
(-5.74098 2.31402 0)
(-1.32891 2.05181 0)
(2.34592 1.59801 0)
(5.0695 1.08693 0)
(6.6854 0.555226 0)
(7.20193 0.0908118 0)
(6.99249 -0.246741 0)
(6.41382 -0.345204 0)
(5.59869 -0.358602 0)
(4.85965 -0.280084 0)
(4.33875 -0.141674 0)
(4.17291 0.05649 0)
(4.47569 0.287893 0)
(5.21831 0.499715 0)
(6.34132 0.62531 0)
(7.72226 0.688921 0)
(9.13942 0.651745 0)
(10.3609 0.507689 0)
(11.2007 0.282757 0)
(11.5232 0.0136651 0)
(11.2674 -0.268144 0)
(10.4075 -0.53697 0)
(8.98552 -0.790463 0)
(7.11413 -0.974571 0)
(5.09325 -1.40801 0)
(2.82783 -1.4076 0)
(0.0142614 -1.4028 0)
(-2.83846 -1.41927 0)
(-5.58054 -1.33769 0)
(-8.19498 -1.19416 0)
(-10.49 -0.992786 0)
(-12.337 -0.743433 0)
(-13.6408 -0.461624 0)
(-14.344 -0.163699 0)
(-14.4284 0.13335 0)
(-13.9153 0.409972 0)
(-12.8648 0.648423 0)
(-2.62431 -110.201 0)
(-7.68816 -124.344 0)
(-14.1863 -141.117 0)
(-23.6297 -159.772 0)
(-33.8037 -173.853 0)
(-44.9511 -170.502 0)
(-58.1048 -146.771 0)
(-66.186 -104.46 0)
(-80.7269 -34.6373 0)
(-106.533 55.7015 0)
(-150.165 178.54 0)
(-171.047 284.386 0)
(-175.381 366.374 0)
(-164.993 408.184 0)
(-136.693 398.528 0)
(-111.596 356.539 0)
(-80.0923 294.421 0)
(-42.1933 224.097 0)
(-1.20949 157.347 0)
(43.7598 105.618 0)
(98.907 65.4948 0)
(165.13 49.9773 0)
(247.761 63.3899 0)
(284.238 64.1104 0)
(274.271 29.2546 0)
(214.073 -50.4256 0)
(154.315 -144.705 0)
(69.5315 -264.134 0)
(-48.2366 -378.618 0)
(-112.941 -440.365 0)
(-150.774 -443.161 0)
(-165.217 -410.221 0)
(-162.482 -356.567 0)
(-147.225 -290.703 0)
(-122.886 -220.643 0)
(-92.2276 -154.489 0)
(-58.2372 -97.471 0)
(-23.6539 -50.6683 0)
(14.3763 -22.505 0)
(48.9399 -10.9562 0)
(89.0513 -11.0701 0)
(110.451 -23.8937 0)
(116.254 -30.791 0)
(110.568 -24.3026 0)
(90.6203 8.84208 0)
(52.2088 79.4742 0)
(8.24022 163.824 0)
(-34.0987 251.911 0)
(-72.5379 327.833 0)
(-103.521 377.412 0)
(-118.875 384.431 0)
(-119.528 355.943 0)
(-108.969 303.344 0)
(-89.7488 236.502 0)
(-65.2652 164.985 0)
(-38.8993 98.2923 0)
(-13.2288 45.5765 0)
(14.1959 6.85438 0)
(52.0625 -45.3084 0)
(81.4176 -56.6549 0)
(97.8801 -47.8578 0)
(103.6 -29.5973 0)
(100.964 -14.1278 0)
(91.4917 -8.65926 0)
(77.9431 -19.8628 0)
(57.0671 -49.5431 0)
(34.6334 -94.1364 0)
(12.6818 -144.605 0)
(-8.45764 -192.297 0)
(-27.737 -230.024 0)
(-42.6163 -250.557 0)
(-50.0589 -247.173 0)
(-52.087 -228.19 0)
(-49.4464 -196.747 0)
(-42.9276 -156.767 0)
(-34.0936 -113.287 0)
(-23.3005 -70.7312 0)
(-10.7437 -35.7488 0)
(1.99869 -12.0718 0)
(16.3109 21.017 0)
(24.6111 39.492 0)
(25.1173 46.754 0)
(21.1204 54.2484 0)
(15.1431 63.3197 0)
(7.19252 76.8222 0)
(-2.9909 94.9546 0)
(-13.0476 116.451 0)
(-22.7205 139.229 0)
(-31.2675 159.543 0)
(-36.5429 173.006 0)
(-35.8808 172.733 0)
(-31.089 163.457 0)
(-23.1856 146.563 0)
(-13.5728 123.163 0)
(-3.45167 95.6153 0)
(5.19351 65.6267 0)
(14.7088 36.96 0)
(25.0294 12.0379 0)
(34.6682 -10.5203 0)
(40.4755 -30.1055 0)
(41.3047 -44.9123 0)
(37.5307 -55.7052 0)
(30.2721 -65.5287 0)
(21.3238 -75.8472 0)
(12.2832 -86.732 0)
(3.8741 -98.3171 0)
(-3.72542 -110.027 0)
(-10.3353 -120.355 0)
(-15.1292 -126.461 0)
(-17.298 -124.889 0)
(-17.4767 -117.776 0)
(-16.1748 -105.669 0)
(-13.9402 -89.1778 0)
(-11.4989 -69.3377 0)
(-9.02454 -47.7847 0)
(-5.60266 -27.1491 0)
(-1.73127 -11.738 0)
(3.72872 4.203 0)
(4.89762 28.8912 0)
(-7.06781 -98.9159 0)