/*--------------------------------*- C++ -*----------------------------------*\
| =========                 |                                                 |
| \\      /  F ield         | OpenFOAM: The Open Source CFD Toolbox           |
|  \\    /   O peration     | Version:  2206                                  |
|   \\  /    A nd           | Website:  www.openfoam.com                      |
|    \\/     M anipulation  |                                                 |
\*---------------------------------------------------------------------------*/
FoamFile
{
    version     2.0;
    format      ascii;
    arch        "LSB;label=32;scalar=64";
    class       volScalarField;
    location    "19.2";
    object      p;
}
// * * * * * * * * * * * * * * * * * * * * * * * * * * * * * * * * * * * * * //

dimensions      [0 2 -2 0 0 0 0];

internalField   nonuniform List<scalar> 
3080
(
0.0118879
0.00895857
0.0059023
0.00287764
5.14441e-05
-0.00241044
-0.00435417
-0.00564842
-0.00620133
-0.0059877
-0.00501015
-0.00331638
-0.00100646
0.00178648
0.00490732
0.00819318
0.0114826
0.014568
0.0171993
0.0194717
0.0215618
0.0232553
0.0243512
0.0248859
0.0249165
0.0245102
0.023762
0.0227833
0.0216979
0.0206287
0.0195547
0.0186804
0.0181826
0.0177939
0.0171779
0.0170485
0.0172037
0.0171459
0.0171594
0.017045
0.0163754
0.0152084
0.0137126
0.0119072
0.00984338
0.00759657
0.00524207
0.00286942
0.000578784
-0.00152555
-0.00334116
-0.00477421
-0.00574548
-0.00620235
-0.00613646
-0.0055469
-0.00446614
-0.00295763
-0.00110427
0.000996646
0.00324176
0.00552856
0.00772734
0.00966494
0.011363
0.0129985
0.0144558
0.0155415
0.0162535
0.0166209
0.0166723
0.0164525
0.0160187
0.0154364
0.0147731
0.014021
0.0132966
0.0126347
0.0120372
0.0114245
0.0108781
0.0104061
0.00987228
0.00930235
0.0087151
0.00790943
0.00672496
0.00528407
0.00367008
0.00191378
6.47839e-05
-0.00182461
-0.00369549
-0.00548182
-0.00711592
-0.00853203
-0.00967027
-0.0104805
-0.0109303
-0.0110169
-0.0107386
-0.0101163
-0.00919087
-0.00801534
-0.00665174
-0.00516676
-0.00362641
-0.0021082
-0.000729165
0.0004634
0.00163298
0.00274645
0.00363169
0.00425949
0.00464263
0.00478407
0.00469939
0.00440531
0.00393674
0.00323143
0.00247983
0.00168447
0.000741209
0.0135744
0.0105468
0.00742606
0.00437453
0.00155717
-0.000869456
-0.00276074
-0.00399184
-0.00447918
-0.00420609
-0.00317781
-0.00144096
0.000907835
0.00374065
0.00690857
0.0102521
0.0136013
0.016743
0.0194994
0.0219999
0.0242673
0.0260685
0.027293
0.0279647
0.0281245
0.0278355
0.0271872
0.0262881
0.02526
0.0241589
0.0230681
0.0221256
0.021625
0.0209676
0.0202466
0.0201256
0.020062
0.0199429
0.0197795
0.0191899
0.0181238
0.0167374
0.0150328
0.0130325
0.0108008
0.0084177
0.00595679
0.00350446
0.00115871
-0.000977204
-0.00280413
-0.00423167
-0.00518333
-0.00560967
-0.00550832
-0.00487789
-0.00375098
-0.00219063
-0.000278536
0.00189022
0.00421374
0.0065841
0.00886374
0.0109214
0.0128253
0.0146349
0.0161969
0.0173933
0.0182225
0.0186985
0.0188453
0.0187046
0.0183309
0.0177897
0.0171175
0.0163465
0.0155852
0.0148564
0.0141579
0.0134805
0.0128419
0.012233
0.0116194
0.0109674
0.0101377
0.00899423
0.00759267
0.00600253
0.00423991
0.00234684
0.000377048
-0.00161536
-0.00357192
-0.00542775
-0.00711541
-0.00856995
-0.00973267
-0.0105546
-0.0110048
-0.0110851
-0.0107919
-0.0101466
-0.00919023
-0.00797564
-0.0065647
-0.00502423
-0.00342424
-0.00185081
-0.000401688
0.00092745
0.00222035
0.00339604
0.0043332
0.00501188
0.00543212
0.00559093
0.00550202
0.00517683
0.00466293
0.00385741
0.00296819
0.00203968
0.000854613
0.0154689
0.0124167
0.00931449
0.00628505
0.00350955
0.00114972
-0.000661725
-0.00181281
-0.00222825
-0.00189899
-0.000830446
0.000931866
0.00329401
0.00613232
0.00930295
0.0126511
0.0160038
0.0191617
0.0220225
0.0246822
0.0270411
0.0288945
0.0301938
0.0309497
0.0311929
0.0309821
0.0304022
0.0295616
0.0285677
0.0274375
0.026359
0.0254003
0.0246397
0.0239528
0.0233985
0.0230846
0.0229226
0.0227072
0.0221412
0.0211669
0.0198996
0.018324
0.0164337
0.0142821
0.0119333
0.00946658
0.00696193
0.00448536
0.00212269
-1.39815e-05
-0.00182566
-0.00322773
-0.00414872
-0.00454265
-0.00441206
-0.00375604
-0.00260596
-0.00102312
0.000913235
0.00311077
0.00546841
0.00787225
0.0101904
0.012342
0.0143954
0.0163051
0.017919
0.0191794
0.0200778
0.0206188
0.0208236
0.0207311
0.0203954
0.0198714
0.019169
0.0183918
0.0175996
0.0168214
0.0160677
0.0153408
0.0146487
0.013993
0.013321
0.0124753
0.0113631
0.0100256
0.00850081
0.0067872
0.00491045
0.00292403
0.000881567
-0.00116634
-0.00316771
-0.00506036
-0.00677399
-0.00824524
-0.00941791
-0.0102441
-0.0106936
-0.0107721
-0.0104757
-0.00982506
-0.00886077
-0.007635
-0.00620875
-0.00464904
-0.00302951
-0.00143649
6.03913e-05
0.00148803
0.00284939
0.00404339
0.00499773
0.00569314
0.0061213
0.0062745
0.00616642
0.00579446
0.00523365
0.00435744
0.00334831
0.00233351
0.000920458
0.0174925
0.0144337
0.0114011
0.00847981
0.00579809
0.00353214
0.00182244
0.00076582
0.000429205
0.000813923
0.00191239
0.00368109
0.00602993
0.00884134
0.0119782
0.0152863
0.0185909
0.0217332
0.0246825
0.0274171
0.0297746
0.0316323
0.0329577
0.0337493
0.0340333
0.0338651
0.0333301
0.0325365
0.0315193
0.0304093
0.0293274
0.0283429
0.0275001
0.0267843
0.0262488
0.0259478
0.0256815
0.0251143
0.0242039
0.0230529
0.0216231
0.0198884
0.017856
0.0155804
0.013157
0.0106563
0.00815154
0.00571153
0.00339554
0.00129059
-0.000483592
-0.00184251
-0.00272329
-0.00308294
-0.00292757
-0.00225824
-0.00110412
0.000475354
0.00240363
0.00459091
0.00693582
0.00932438
0.0116487
0.0138786
0.0160122
0.0179405
0.0195625
0.0208427
0.0217653
0.0223315
0.0225613
0.0224929
0.0221721
0.0216241
0.0209185
0.0201356
0.0193249
0.0185207
0.0177407
0.0170016
0.016317
0.0156319
0.0147831
0.0137036
0.0124456
0.011014
0.00939192
0.00759039
0.00563619
0.00358632
0.0015088
-0.00054933
-0.00254433
-0.00442986
-0.006143
-0.00760969
-0.00877547
-0.00959695
-0.0100445
-0.0101247
-0.00983639
-0.00919808
-0.00824889
-0.00703928
-0.00562884
-0.00408477
-0.00248223
-0.000897544
0.000630563
0.0021106
0.00348156
0.00465709
0.00559708
0.00627772
0.00668738
0.00681742
0.00668773
0.00624158
0.00563731
0.00472222
0.00362064
0.00256222
0.000927358
0.0195355
0.016512
0.0135576
0.0107816
0.00827026
0.00614317
0.00455423
0.00360509
0.00335275
0.00379671
0.00491783
0.00667831
0.00899289
0.0117491
0.0148143
0.0180358
0.0212584
0.0243861
0.0273647
0.0300697
0.032368
0.0341885
0.0354945
0.0362794
0.0365684
0.0364169
0.0359094
0.0351034
0.0340889
0.0329954
0.0319152
0.0309211
0.0300597
0.0293807
0.0289418
0.0285669
0.0279658
0.0270992
0.0260441
0.024753
0.0231862
0.0213187
0.0191857
0.0168703
0.014432
0.0119317
0.00944527
0.007054
0.00483093
0.00282383
0.00111726
-0.000184233
-0.00101507
-0.00133831
-0.00115892
-0.000486556
0.000654551
0.0022081
0.00410031
0.00624347
0.00853664
0.0108772
0.0131974
0.0154603
0.0175852
0.0194728
0.0210658
0.0223268
0.0232363
0.0237959
0.0240264
0.023953
0.0236128
0.0230514
0.0223482
0.0215631
0.0207487
0.0199437
0.0191838
0.0184924
0.0177921
0.0169428
0.015905
0.0147318
0.0134061
0.0119052
0.0102156
0.00834868
0.00635958
0.00430284
0.00222257
0.000169222
-0.0017999
-0.0036358
-0.00530055
-0.0067395
-0.00788722
-0.00869649
-0.00914037
-0.00922318
-0.0089498
-0.00833568
-0.00741804
-0.00624605
-0.0048783
-0.00338198
-0.00182673
-0.000266725
0.00127236
0.00274261
0.00406682
0.00519622
0.00609515
0.00673625
0.00710772
0.00719925
0.00704436
0.00655151
0.00587039
0.00494843
0.00379086
0.00272982
0.000877278
0.0214933
0.0185602
0.0157234
0.0130957
0.0107777
0.00884624
0.00740613
0.00657302
0.00640421
0.00690813
0.00804984
0.00978765
0.0120435
0.0147126
0.0176708
0.0207811
0.0239303
0.0270213
0.0299272
0.0325269
0.0347325
0.0364779
0.0377257
0.038471
0.0387393
0.0385792
0.0380607
0.037249
0.0362562
0.03518
0.0341129
0.0331347
0.0323366
0.0317879
0.0312939
0.0306185
0.0297626
0.0287745
0.0275947
0.0261821
0.0244937
0.0225361
0.0203788
0.018073
0.0156626
0.0132086
0.0107838
0.00846667
0.00633527
0.00445329
0.00286529
0.00164349
0.000868886
0.00058231
0.000785884
0.00145749
0.00257085
0.00407553
0.00590296
0.00797065
0.0101873
0.012478
0.0147736
0.0169865
0.0190334
0.020849
0.022379
0.023585
0.024451
0.0249797
0.0251807
0.0250884
0.0247271
0.0241651
0.0234644
0.0226871
0.0218895
0.02113
0.0204455
0.0197355
0.0188854
0.0178924
0.0167959
0.0155689
0.0141899
0.0126399
0.0109033
0.00902113
0.00704809
0.00501568
0.00296565
0.000948385
-0.000981048
-0.00276603
-0.00435772
-0.00572585
-0.0068298
-0.00762044
-0.00806045
-0.00814604
-0.00789134
-0.00731298
-0.00644467
-0.00533263
-0.00403225
-0.00260483
-0.00110192
0.000426721
0.00192069
0.00331834
0.00456982
0.00563147
0.00646755
0.00705183
0.0073723
0.00741271
0.00720692
0.0067195
0.0059706
0.00505531
0.00386517
0.00283594
0.000774493
0.0232666
0.020467
0.0177875
0.0153348
0.0132094
0.0114913
0.0102386
0.00953251
0.00944837
0.01
0.0111525
0.0128571
0.0150424
0.0176137
0.0204613
0.0234664
0.0265108
0.029471
0.0322329
0.0346974
0.0367802
0.0384187
0.0395812
0.0402653
0.0404832
0.0403048
0.0397721
0.0389736
0.038001
0.0369493
0.0359167
0.0350328
0.0344017
0.0337946
0.0330258
0.0321445
0.0311816
0.030075
0.0287838
0.0272588
0.0254853
0.0235142
0.0213834
0.0191213
0.0167748
0.0144032
0.012074
0.0098617
0.00784189
0.00608173
0.00463015
0.00352212
0.00281321
0.00256304
0.00278137
0.00344343
0.00451821
0.00596228
0.00771519
0.00970341
0.011845
0.014057
0.0162529
0.0183563
0.0202979
0.022014
0.0234531
0.024579
0.0253773
0.0258556
0.0260316
0.0259081
0.0255389
0.0249798
0.0242886
0.0235351
0.0228005
0.0221391
0.0214297
0.0205814
0.0196274
0.0185929
0.0174483
0.016175
0.0147622
0.0131769
0.0114318
0.00957924
0.00764632
0.00566343
0.0036714
0.00171729
-0.000147192
-0.00186719
-0.00339034
-0.00467853
-0.00571124
-0.00646453
-0.00690069
-0.00699547
-0.00676365
-0.00622672
-0.00541491
-0.00436961
-0.00314031
-0.00178177
-0.000349966
0.00109428
0.00249465
0.00379951
0.00496068
0.00593653
0.00669403
0.00720325
0.00747194
0.00748072
0.00721841
0.00672151
0.00595425
0.00506258
0.00386746
0.00288741
0.000640425
0.0247933
0.0221624
0.0196679
0.01741
0.0154854
0.0139713
0.0129144
0.01235
0.0123499
0.0129372
0.0140889
0.015759
0.0178748
0.0203459
0.0230683
0.0259291
0.028814
0.0316098
0.0342092
0.0365164
0.0384523
0.0399601
0.041014
0.0416116
0.0418007
0.0415938
0.0410609
0.0402808
0.039335
0.0383313
0.0374212
0.0367241
0.0360239
0.0351555
0.0342274
0.0332533
0.0321778
0.0309658
0.0295683
0.0279612
0.0261763
0.0242357
0.0221548
0.0199659
0.0177136
0.0154518
0.0132426
0.0111553
0.00926262
0.00763126
0.00630964
0.00532592
0.00470306
0.00449286
0.00472174
0.00536732
0.00640034
0.00778177
0.00945464
0.0113481
0.0133823
0.0154726
0.01754
0.0195152
0.0213315
0.0229286
0.0242587
0.0252804
0.0260154
0.0264564
0.0265872
0.0264465
0.0260768
0.0255254
0.0248611
0.0241811
0.023557
0.0228654
0.0220265
0.0211055
0.0201186
0.0190394
0.0178521
0.0165488
0.0151055
0.0135118
0.0117981
0.009993
0.00811846
0.00620496
0.00429021
0.00241736
0.00063432
-0.00100684
-0.00245352
-0.00366479
-0.00462231
-0.00532095
-0.0057437
-0.00585054
-0.00564499
-0.00515021
-0.00439608
-0.00342233
-0.00227676
-0.00101194
0.000317704
0.00165678
0.00295152
0.00415087
0.00520738
0.00608368
0.00675833
0.00721773
0.00742829
0.00739098
0.00710202
0.00659599
0.00583525
0.00497552
0.00381292
0.00288769
0.000504125
0.0260385
0.0235952
0.0212982
0.0192396
0.0175142
0.0161989
0.0153303
0.0149199
0.0150136
0.0156365
0.016781
0.018404
0.0204298
0.0227741
0.0253434
0.0280342
0.03074
0.0333525
0.0357695
0.0379026
0.0396763
0.0410288
0.0419817
0.0425449
0.0426893
0.0424705
0.0419487
0.0411879
0.0402985
0.039451
0.0387205
0.0379516
0.0370027
0.0360214
0.0350133
0.033935
0.0327611
0.0314457
0.029969
0.0283508
0.0265932
0.0247
0.0226907
0.0205963
0.018457
0.0163217
0.0142468
0.0122956
0.0105361
0.00903373
0.00783556
0.00696476
0.00643083
0.00626824
0.00650944
0.00713268
0.00811192
0.00941751
0.0109971
0.0127835
0.0146987
0.0166531
0.0185737
0.0204052
0.0220817
0.0235442
0.0247629
0.0257288
0.0264023
0.0267844
0.0268888
0.0267414
0.0263758
0.0258507
0.0252694
0.0247012
0.0240467
0.0232316
0.0223438
0.021396
0.0203677
0.0192489
0.0180325
0.0167022
0.0152438
0.0136705
0.0120022
0.010254
0.00844817
0.00661385
0.00478563
0.00300286
0.00130883
-0.000248873
-0.00161892
-0.00275662
-0.00364384
-0.00428888
-0.00468947
-0.00480223
-0.00462273
-0.00417391
-0.00348419
-0.00259013
-0.00153641
-0.000372687
0.000849019
0.00207604
0.00325728
0.00434385
0.00528875
0.00608431
0.00670027
0.00708999
0.00724951
0.00718279
0.00688273
0.00637455
0.00563931
0.00483809
0.0036956
0.00282107
0.000393481
0.0270031
0.024755
0.0226591
0.0207952
0.019254
0.0181129
0.0173971
0.0171205
0.0172886
0.0179267
0.0190724
0.0206532
0.0225852
0.0247994
0.0272099
0.0297216
0.0322365
0.0346541
0.0368749
0.0388188
0.0404237
0.0416914
0.0425874
0.0430824
0.0432005
0.0429809
0.0424721
0.0417742
0.0410728
0.0403606
0.0395538
0.0385704
0.0375498
0.0365039
0.0354052
0.0342408
0.0329698
0.0315824
0.0300956
0.0284934
0.02677
0.024934
0.0230047
0.0210099
0.0189864
0.016979
0.0150385
0.0132217
0.0115917
0.0102106
0.00912286
0.00835022
0.00789903
0.0077962
0.00805926
0.00865589
0.00956717
0.0107861
0.012266
0.0139457
0.0157495
0.0175607
0.0193135
0.0209887
0.0225184
0.0238811
0.02504
0.0259274
0.0265429
0.0268926
0.0269839
0.0268355
0.0264934
0.0260574
0.0255744
0.0249793
0.0242142
0.0233701
0.0224626
0.0214802
0.020419
0.0192751
0.0180362
0.0166903
0.0152412
0.0136993
0.0120741
0.0103815
0.00864354
0.0068872
0.00514454
0.00345151
0.00184682
0.000372459
-0.000924562
-0.001998
-0.00282651
-0.00342764
-0.0038047
-0.00392014
-0.00376543
-0.00336112
-0.00273435
-0.00191967
-0.000959087
0.000100747
0.00121071
0.00232147
0.00338538
0.00436636
0.00524078
0.00596552
0.00650443
0.00684316
0.00697419
0.00689256
0.00658977
0.00608691
0.00539763
0.00467575
0.00353445
0.00267115
0.00033478
0.0298586
0.0276978
0.0256243
0.0237065
0.0220092
0.0206226
0.0196285
0.0190356
0.0189789
0.0192855
0.0198616
0.0209728
0.022499
0.0243044
0.0263473
0.0285589
0.0308646
0.0331811
0.0354091
0.0374338
0.0392447
0.0408058
0.0419916
0.0428178
0.0432761
0.0433819
0.0431714
0.0427579
0.0422325
0.0416231
0.0408116
0.0398493
0.0388359
0.0377763
0.0366692
0.035495
0.0342472
0.0329371
0.0315481
0.0300664
0.0284834
0.0267994
0.0250235
0.0231734
0.0212745
0.0193599
0.0174705
0.0156525
0.0139569
0.0124428
0.0111702
0.0101672
0.00944364
0.00905307
0.00900518
0.00929206
0.00985356
0.010688
0.0118306
0.0132108
0.0147753
0.0164689
0.0181117
0.0196915
0.0212651
0.0227366
0.0240228
0.0250915
0.0259239
0.0265101
0.0268424
0.0269256
0.0267979
0.0265444
0.0261836
0.025672
0.0249882
0.0242121
0.0233588
0.0224274
0.0214214
0.0203405
0.0191772
0.0179248
0.0165843
0.0151573
0.0136473
0.0120642
0.010424
0.00874734
0.00705941
0.00539043
0.00377369
0.00224421
0.000839116
-0.000399872
-0.00142744
-0.00221663
-0.00278535
-0.0031413
-0.00325732
-0.00312579
-0.00276503
-0.00220008
-0.00146285
-0.000592155
0.000368391
0.00137235
0.00237559
0.00335426
0.00427289
0.00507646
0.00573315
0.00622379
0.00653269
0.00664712
0.00655823
0.00625932
0.00577911
0.00515366
0.00446264
0.00334856
0.00244731
0.000341582
0.0302269
0.0282106
0.0262944
0.0245447
0.0229909
0.0217185
0.0208195
0.0203166
0.0202433
0.0205475
0.0212213
0.0223056
0.0237333
0.0254326
0.0273489
0.0294075
0.0315467
0.0336834
0.0357663
0.0377415
0.0394624
0.040883
0.0419876
0.0427799
0.0432165
0.0433419
0.0432226
0.0429435
0.0424813
0.0417318
0.0408596
0.0399043
0.0388761
0.0377733
0.0366065
0.0353957
0.0341369
0.0328171
0.031423
0.0299472
0.0283856
0.0267387
0.0250161
0.0232347
0.0214172
0.0195931
0.0178005
0.0160814
0.0144811
0.0130544
0.0118517
0.0108765
0.0101723
0.00985112
0.00993508
0.0103457
0.0108133
0.0114086
0.0124273
0.013697
0.0152094
0.0170302
0.0185161
0.0198033
0.0213249
0.0227436
0.0239647
0.0249874
0.0257931
0.0263622
0.0266852
0.0267846
0.0267305
0.0265302
0.0261286
0.0255634
0.0248868
0.024112
0.0232479
0.0223046
0.0212864
0.020193
0.0190215
0.0177699
0.0164365
0.0150232
0.0135356
0.0119838
0.0103839
0.00875542
0.00712246
0.00551441
0.00396247
0.00249879
0.00115618
-3.03407e-05
-0.00102163
-0.0017887
-0.00233934
-0.00268303
-0.00280657
-0.00270249
-0.00238607
-0.00187966
-0.00121224
-0.000419567
0.000456939
0.00137523
0.00231602
0.00324113
0.00409254
0.00483682
0.00544899
0.00590719
0.00619486
0.00629923
0.00621038
0.00592842
0.00549237
0.00490327
0.00419283
0.00313876
0.00219373
0.000401084
0.0304367
0.0285199
0.0267084
0.0250526
0.0235745
0.0223637
0.0215291
0.0211342
0.0211956
0.0216248
0.022374
0.023423
0.0247325
0.0262594
0.0279571
0.0297489
0.0316923
0.0337851
0.0358194
0.037684
0.039328
0.040697
0.0417953
0.0425661
0.0430101
0.0432259
0.0432147
0.042889
0.0423352
0.0416168
0.0407732
0.0398201
0.0387734
0.037659
0.0364937
0.0352783
0.0340082
0.0326771
0.0312789
0.0298082
0.0282605
0.0266381
0.0249549
0.0232286
0.0214759
0.0197234
0.0180084
0.0163698
0.0148489
0.0134885
0.0123329
0.0114337
0.0108296
0.0105027
0.0104694
0.0107384
0.0112322
0.0119532
0.0129467
0.014149
0.015517
0.0170267
0.0185084
0.0199339
0.0213575
0.0226789
0.0238439
0.0248275
0.0256064
0.0261628
0.0264973
0.0266488
0.0266141
0.0263667
0.0259565
0.0254111
0.0247447
0.0239727
0.0231098
0.0221652
0.0211434
0.0200458
0.0188717
0.0176203
0.0162922
0.0148907
0.0134223
0.0118983
0.0103341
0.00874393
0.00715067
0.0055861
0.0040802
0.00266316
0.00136542
0.000217663
-0.000748154
-0.00150559
-0.00204934
-0.00238553
-0.00251881
-0.00243824
-0.00215633
-0.00169488
-0.00108085
-0.000347555
0.00046638
0.00133164
0.00221845
0.00308084
0.0038775
0.00457776
0.00515486
0.00558729
0.00585925
0.00595894
0.00587924
0.00562344
0.00521253
0.00462712
0.00391531
0.0029416
0.00198158
0.000470567
0.0306065
0.0287702
0.027032
0.02544
0.0240751
0.0229921
0.0222214
0.0217988
0.0217604
0.0220957
0.0227812
0.023786
0.0250682
0.0265776
0.02826
0.0300705
0.0319796
0.0339243
0.0358109
0.037571
0.0391434
0.0404693
0.0415455
0.0423177
0.0428163
0.0430277
0.0429571
0.042652
0.0421454
0.0414648
0.0406414
0.0397035
0.0386726
0.0375684
0.0364032
0.0351818
0.0339047
0.0325667
0.0311637
0.0296946
0.0281585
0.0265596
0.0249087
0.0232221
0.0215187
0.0198213
0.0181641
0.0165861
0.0151251
0.0138198
0.0127068
0.0118273
0.011228
0.0109179
0.0108966
0.0111381
0.0116168
0.012323
0.0132613
0.0144017
0.0157022
0.0171205
0.01856
0.0199528
0.0212948
0.0225516
0.0236732
0.0246262
0.0253887
0.0259466
0.0262958
0.0264399
0.0263955
0.0261682
0.0257805
0.0252497
0.0245943
0.0238314
0.022974
0.0220311
0.0210086
0.0199094
0.0187345
0.0174849
0.0161623
0.0147707
0.0133173
0.0118135
0.0102749
0.00871757
0.00716131
0.0056354
0.00417044
0.00279459
0.00153592
0.000421545
-0.000522887
-0.00127343
-0.00181314
-0.00214446
-0.00228516
-0.00222787
-0.00197787
-0.00155626
-0.000988925
-0.000306435
0.000456369
0.00126814
0.00209847
0.00290889
0.00366055
0.00432251
0.00486916
0.00527991
0.00553922
0.00563611
0.00556472
0.0053257
0.00492748
0.00436363
0.00367145
0.00276731
0.00182638
0.000508301
0.0307468
0.0289757
0.0273051
0.0257824
0.0244621
0.0234061
0.0226827
0.0223173
0.0223123
0.0226602
0.0233387
0.0243096
0.0255296
0.0269544
0.0285398
0.0302437
0.0320331
0.033866
0.0356687
0.037361
0.0388821
0.0401847
0.0412416
0.042021
0.0425119
0.0427266
0.042695
0.0424314
0.0419565
0.0413039
0.0405054
0.0395872
0.038571
0.037475
0.0363117
0.0350879
0.0338057
0.0324639
0.031061
0.0295966
0.0280717
0.0264917
0.0248673
0.0232145
0.0215523
0.0199034
0.0182993
0.0167763
0.0153702
0.0141172
0.0130521
0.0122086
0.01162
0.0113112
0.0112754
0.0114902
0.0119468
0.0126349
0.0135382
0.014627
0.0158613
0.0171934
0.0185615
0.0199126
0.0212116
0.0224216
0.0235034
0.0244269
0.0251702
0.0257192
0.0260686
0.0262203
0.0261826
0.0259691
0.0255947
0.0250776
0.0244353
0.0236829
0.0228326
0.0218942
0.0208738
0.0197758
0.0186025
0.0173562
0.0160401
0.0146592
0.0132216
0.0117387
0.0102258
0.0086984
0.00717699
0.00568911
0.00426275
0.00292463
0.00170116
0.00061723
-0.000304829
-0.00104573
-0.00158899
-0.00192677
-0.00207071
-0.00202998
-0.00180762
-0.00142095
-0.000895135
-0.000258606
0.000456994
0.00121936
0.00199794
0.00275928
0.00346741
0.00409201
0.00460857
0.00499716
0.00524259
0.00533427
0.00526664
0.00503969
0.00465861
0.00412082
0.00345456
0.00260983
0.00170364
0.000515334
0.0308808
0.0291745
0.027571
0.02612
0.0248732
0.0238796
0.0231811
0.0228147
0.0227954
0.023116
0.0237538
0.0246776
0.0258479
0.0272222
0.0287574
0.0304101
0.0321362
0.0338874
0.0356034
0.0372182
0.0386751
0.0399298
0.0409507
0.0417148
0.0422095
0.0424375
0.0424177
0.0421744
0.0417279
0.0411054
0.0403344
0.0394394
0.0384416
0.0373584
0.0362025
0.0349817
0.0337001
0.032359
0.0309589
0.0295011
0.0279888
0.0264283
0.0248306
0.0232111
0.0215883
0.0199851
0.0184314
0.0169601
0.0156053
0.0144012
0.0133805
0.0125742
0.0120081
0.0116991
0.0116504
0.0118537
0.0122943
0.0129562
0.0138195
0.0148557
0.0160279
0.0172909
0.0185938
0.0198879
0.0211316
0.0222885
0.0233258
0.024215
0.0249348
0.0254707
0.0258157
0.0259705
0.0259416
0.02574
0.0253813
0.0248807
0.0242536
0.0235139
0.0226738
0.0217426
0.0207274
0.0196335
0.0184646
0.0172244
0.0159173
0.0145494
0.0131294
0.011669
0.0101828
0.00868669
0.00720152
0.00575264
0.00436567
0.00306612
0.00187883
0.000826983
-6.88136e-05
-0.000791566
-0.00132898
-0.0016754
-0.001833
-0.00180874
-0.00161268
-0.00126117
-0.00077711
-0.000186999
0.000479656
0.00119184
0.00191923
0.00263091
0.00329441
0.00388056
0.00436582
0.004731
0.00496142
0.00504685
0.00498151
0.00476382
0.00439738
0.00388491
0.00324743
0.00245698
0.00159022
0.000507916
0.0310002
0.0293606
0.0278266
0.0264456
0.0252658
0.0243327
0.0236818
0.0233379
0.0233233
0.0236332
0.0242433
0.0251219
0.0262333
0.0275384
0.0289969
0.0305674
0.0322062
0.0338668
0.0354948
0.0370309
0.0384227
0.0396281
0.0406154
0.0413624
0.041857
0.0420984
0.0420986
0.0418814
0.0414661
0.0408752
0.0401337
0.0392649
0.0382887
0.0372219
0.0360774
0.0348641
0.0335876
0.0322511
0.0308573
0.0294091
0.0279113
0.0263714
0.0248008
0.0232145
0.021631
0.0200737
0.0185705
0.0171515
0.0158483
0.0146929
0.0137156
0.0129444
0.0124009
0.0120976
0.0120401
0.0122271
0.0126447
0.013274
0.014094
0.0150765
0.0161861
0.0173809
0.0186165
0.0198487
0.021036
0.0221424
0.0231366
0.0239918
0.0246876
0.0252093
0.0255484
0.0257038
0.025683
0.0254943
0.0251518
0.0246679
0.0240568
0.0233317
0.0225038
0.0215828
0.0205761
0.0194898
0.0183287
0.0170979
0.0158027
0.0144502
0.0130499
0.0116136
0.0101554
0.00869167
0.00724286
0.00583207
0.00448322
0.00322038
0.00206678
0.00104409
0.000171554
-0.000534909
-0.00106463
-0.00141399
-0.00158374
-0.00157656
-0.00140488
-0.00108634
-0.000641862
-9.62212e-05
0.000522887
0.0011861
0.001864
0.00252758
0.00314711
0.003695
0.00414874
0.00448986
0.00470416
0.00478186
0.00471713
0.00450755
0.00415554
0.00366612
0.00305571
0.0023129
0.00148675
0.000493121
0.0311211
0.0295442
0.0280758
0.02676
0.025641
0.0247582
0.0241403
0.0238177
0.0238042
0.0240935
0.024668
0.0255008
0.026559
0.0278057
0.0292014
0.030704
0.03227
0.0338533
0.0354023
0.0368646
0.0381928
0.0393475
0.0402981
0.0410238
0.0415128
0.0417625
0.0417794
0.0415817
0.0411959
0.0406347
0.0399224
0.0390803
0.0381271
0.0370789
0.0359487
0.0347459
0.0334775
0.0321485
0.030763
0.0293259
0.0278431
0.0263234
0.0247787
0.0232237
0.021677
0.0201619
0.0187043
0.0173328
0.0160767
0.0149654
0.0140272
0.0132876
0.0127654
0.0124683
0.0124094
0.0125836
0.0129775
0.0135744
0.0143526
0.0152843
0.0163357
0.0174679
0.0186406
0.0198128
0.0209448
0.0220018
0.0229537
0.0237752
0.0244465
0.0249533
0.0252865
0.0254425
0.0254249
0.0252504
0.0249245
0.0244569
0.023862
0.0231519
0.0223373
0.0214277
0.0204309
0.0193537
0.018202
0.0169817
0.0156992
0.0143627
0.0129818
0.0115688
0.0101375
0.0087046
0.00728999
0.00591513
0.00460252
0.00337474
0.00225354
0.00125898
0.000408769
-0.000282303
-0.000804388
-0.00115571
-0.00133372
-0.0013425
-0.0011952
-0.00090787
-0.000500267
4.14428e-06
0.000579196
0.00119705
0.00182956
0.00244913
0.00302801
0.00354031
0.00396444
0.0042826
0.00448095
0.00454992
0.00448391
0.00428086
0.0039423
0.00347237
0.00288515
0.00218083
0.00139136
0.000471301
0.031214
0.0296896
0.0282756
0.0270129
0.0259423
0.0251
0.0245109
0.0242096
0.0242002
0.024476
0.0250232
0.0258184
0.0268312
0.0280265
0.029366
0.0308087
0.0323116
0.0338296
0.0353142
0.0367171
0.0379942
0.0391082
0.0400297
0.0407382
0.0412223
0.0414788
0.0415121
0.041335
0.0409755
0.0404338
0.0397437
0.0389229
0.0379886
0.0369562
0.0358384
0.0346454
0.033385
0.0320633
0.030686
0.0292589
0.0277894
0.0262869
0.0247634
0.0232342
0.0217179
0.0202368
0.0188159
0.0174822
0.0162635
0.0151872
0.0142793
0.0135634
0.0130566
0.0127609
0.0127075
0.0128718
0.0132466
0.0138166
0.0145602
0.0154503
0.0164547
0.0175368
0.0186586
0.0197817
0.0208686
0.0218856
0.0228033
0.0235974
0.0242484
0.0247423
0.0250706
0.0252292
0.0252194
0.0250522
0.0247419
0.024284
0.0237009
0.0230026
0.022199
0.0212992
0.0203113
0.0192425
0.0180995
0.0168888
0.0156179
0.0142951
0.0129308
0.0115372
0.0101282
0.0087207
0.00733363
0.00598751
0.00470373
0.00350372
0.00240804
0.0014356
0.000602925
-7.61488e-05
-0.000592649
-0.00094524
-0.00112566
-0.00114646
-0.00101784
-0.000754754
-0.000376155
9.55918e-05
0.000635552
0.00121717
0.00181339
0.00239772
0.00294399
0.00342764
0.00382776
0.00412707
0.00431204
0.00437316
0.00430482
0.0041052
0.00377611
0.00332205
0.0027524
0.00207407
0.00131142
0.000446877
0.0312657
0.0297734
0.0283932
0.0271638
0.026124
0.0253116
0.0247654
0.0244752
0.0244569
0.0247187
0.0252473
0.0260193
0.0270053
0.0281709
0.0294782
0.0308865
0.0323528
0.0338322
0.0352783
0.0366449
0.03789
0.0389775
0.039879
0.0405742
0.0410515
0.0413078
0.0413467
0.0411765
0.0408072
0.040287
0.0396153
0.0388095
0.0378877
0.0368656
0.0357562
0.0345699
0.0333152
0.0319989
0.0306273
0.0292071
0.0277461
0.0262542
0.024744
0.0232309
0.0217336
0.0202738
0.0188759
0.017566
0.0163711
0.0153175
0.0144301
0.0137312
0.0132411
0.0129796
0.0129116
0.0130621
0.0134219
0.0139738
0.0146959
0.0155611
0.0165375
0.01759
0.0186815
0.0197747
0.0208338
0.0218257
0.0227217
0.0234978
0.0241348
0.0246189
0.0249416
0.0250992
0.0250928
0.0249253
0.0246038
0.0241593
0.0235876
0.0228984
0.0221025
0.0212093
0.0202274
0.0191643
0.0180271
0.0168228
0.0155592
0.0142452
0.0128912
0.0115096
0.0101148
0.00872318
0.0073534
0.00602551
0.00476021
0.00357822
0.00249945
0.00154216
0.000722321
5.31177e-05
-0.000454001
-0.000793822
-0.000982308
-0.00101367
-0.000897799
-0.000649836
-0.000288621
0.000163876
0.000683289
0.00124373
0.00181872
0.00238213
0.00290871
0.00337485
0.00376
0.00404717
0.00422304
0.00427815
0.00420693
0.00400746
0.00368153
0.00323412
0.00267344
0.00200905
0.00125668
0.000428343
0.0105265
0.00883801
0.00677794
0.00448536
0.00215451
-2.95327e-05
-0.00189605
-0.00328661
-0.00408139
-0.00426344
-0.00378999
-0.00270601
-0.0011029
0.000890607
0.00311607
0.0054012
0.00757629
0.00950926
0.0110389
0.0118593
0.012706
0.012906
0.0124275
0.0114604
0.0102675
0.00884509
0.00719425
0.00553318
0.00400176
0.00271968
0.00179749
0.00125808
0.00116369
0.00150818
0.00224293
0.00329019
0.00454648
0.00589462
0.00721477
0.00838954
0.00933939
0.0102369
0.010743
0.010004
0.00961697
0.00884897
0.00769508
0.00634341
0.00487499
0.00338004
0.0019728
0.000752009
-0.000194353
-0.000798666
-0.00105007
-0.000925757
-0.00044654
0.000337247
0.00135514
0.00252056
0.00373826
0.00491204
0.00596688
0.00682503
0.00715647
0.00736558
0.00772966
0.00745588
0.00685995
0.0060682
0.00514305
0.00413748
0.00311126
0.00213395
0.00128076
0.000616217
0.000162235
-5.14359e-05
-3.11456e-05
0.000199853
0.000611093
0.00114962
0.00174654
0.00233
0.00283778
0.00325631
0.00358801
0.0036681
0.00325085
0.00287373
0.00221036
0.00140062
0.000598911
-0.000388335
-0.00139106
-0.00231912
-0.00313758
-0.00379656
-0.00424833
-0.00448179
-0.00449338
-0.00429234
-0.00390119
-0.00335458
-0.00270104
-0.00200066
-0.0013087
-0.000666223
-0.000104946
0.000251572
0.000252132
0.000727089
0.000773991
0.000510616
0.00024862
-1.25374e-05
-0.000393521
-0.000729509
0.00964143
0.00762627
0.00530107
0.00280643
0.000320706
-0.00196936
-0.0038908
-0.00528748
-0.00604286
-0.00613126
-0.00552366
-0.00426523
-0.00245024
-0.00021218
0.0022817
0.00485112
0.00732937
0.00960266
0.0114675
0.0123836
0.0134772
0.0141572
0.0141344
0.0136262
0.0126799
0.0114436
0.0100207
0.00853734
0.00711899
0.00589075
0.00496511
0.00435364
0.00413615
0.00430544
0.00481899
0.005606
0.00656548
0.00758383
0.00854672
0.00934199
0.00996688
0.0107743
0.0110242
0.00975545
0.00890266
0.00779126
0.00633723
0.00472217
0.0030401
0.00138286
-0.000140779
-0.00142931
-0.00239405
-0.00296935
-0.00313929
-0.00288976
-0.00224489
-0.00125848
-6.23906e-06
0.00141846
0.00291281
0.00437658
0.00574472
0.00691542
0.00742709
0.0078489
0.00862774
0.00871301
0.00848506
0.00799333
0.00728322
0.00645243
0.0055748
0.00470547
0.00390976
0.00325174
0.00274461
0.00243828
0.0023174
0.00235247
0.00253349
0.00281663
0.00314383
0.0034605
0.0036386
0.00368097
0.00383572
0.00390909
0.00301127
0.00218375
0.00130697
0.000230366
-0.000908981
-0.00209192
-0.00324818
-0.00430292
-0.00520296
-0.00589855
-0.00634835
-0.00653775
-0.00646529
-0.00614293
-0.00559927
-0.00487666
-0.00402881
-0.00311566
-0.00219567
-0.00131264
-0.00050675
-1.16686e-06
0.00018209
0.000853149
0.00113504
0.00116285
0.0010921
0.000912844
0.000619624
0.000296628
9.01641e-05
-0.000103123
-0.000303207
-0.0002746
-0.00010955
0.00938626
0.00707617
0.00450157
0.00181616
-0.000804928
-0.00318018
-0.0051392
-0.00653041
-0.00724215
-0.00724227
-0.00651416
-0.00510454
-0.00311206
-0.000674004
0.00204258
0.00486056
0.00762386
0.0102123
0.0123387
0.0136566
0.0148976
0.0159008
0.0162639
0.0160761
0.0154527
0.0144749
0.0132425
0.0118945
0.0105697
0.00938853
0.00845449
0.00777104
0.00743242
0.00742519
0.00771578
0.00824509
0.00891297
0.00961342
0.0102535
0.0107523
0.01125
0.0116442
0.0111459
0.00994733
0.00867012
0.0071705
0.00543149
0.00356868
0.0016806
-0.000132504
-0.00176324
-0.00311131
-0.00408982
-0.00463599