/*--------------------------------*- C++ -*----------------------------------*\
| =========                 |                                                 |
| \\      /  F ield         | OpenFOAM: The Open Source CFD Toolbox           |
|  \\    /   O peration     | Version:  2206                                  |
|   \\  /    A nd           | Website:  www.openfoam.com                      |
|    \\/     M anipulation  |                                                 |
\*---------------------------------------------------------------------------*/
FoamFile
{
    version     2.0;
    format      ascii;
    arch        "LSB;label=32;scalar=64";
    class       surfaceScalarField;
    location    "18.8001";
    object      phi;
}
// * * * * * * * * * * * * * * * * * * * * * * * * * * * * * * * * * * * * * //

dimensions      [0 3 -1 0 0 0 0];

oriented        oriented;

internalField   nonuniform List<scalar> 
9487
(
1.16046e-05
-1.08402e-06
1.066e-06
1.16088e-05
-1.47949e-06
1.47529e-06
1.15988e-05
-1.82322e-06
1.83316e-06
1.1575e-05
-2.11342e-06
2.1373e-06
1.15378e-05
-2.35139e-06
2.38857e-06
1.14882e-05
-2.54082e-06
2.59042e-06
1.1427e-05
-2.68705e-06
2.7482e-06
1.1355e-05
-2.79618e-06
2.86819e-06
1.12726e-05
-2.87429e-06
2.95668e-06
1.11804e-05
-2.92727e-06
3.01946e-06
1.10796e-05
-2.96115e-06
3.06198e-06
1.09717e-05
-2.98141e-06
3.08927e-06
1.08584e-05
-2.99136e-06
3.1047e-06
1.07411e-05
-2.99129e-06
3.10859e-06
1.06214e-05
-2.9786e-06
3.09831e-06
1.05009e-05
-2.94836e-06
3.0689e-06
1.03811e-05
-2.89426e-06
3.01399e-06
1.02639e-05
-2.80974e-06
2.92699e-06
1.01508e-05
-2.68903e-06
2.80212e-06
1.00436e-05
-2.52797e-06
2.63519e-06
9.94398e-06
-2.32439e-06
2.42397e-06
9.85376e-06
-2.07821e-06
2.16843e-06
9.77457e-06
-1.79144e-06
1.87063e-06
9.70793e-06
-1.46785e-06
1.53449e-06
9.65514e-06
-1.11267e-06
1.16546e-06
9.61711e-06
-7.32373e-07
7.70396e-07
9.5943e-06
-3.34559e-07
3.57373e-07
9.58629e-06
7.21309e-08
-6.41214e-08
9.59164e-06
4.78053e-07
-4.83407e-07
9.60857e-06
8.75805e-07
-8.92736e-07
9.63502e-06
1.25883e-06
-1.28527e-06
9.66865e-06
1.62154e-06
-1.65517e-06
9.707e-06
1.95941e-06
-1.99776e-06
9.74765e-06
2.26894e-06
-2.30959e-06
9.78835e-06
2.54778e-06
-2.58848e-06
9.82709e-06
2.79455e-06
-2.8333e-06
9.86211e-06
3.00867e-06
-3.04369e-06
9.89206e-06
3.19008e-06
-3.22003e-06
9.91639e-06
3.33887e-06
-3.3632e-06
9.9353e-06
3.45503e-06
-3.47395e-06
9.94905e-06
3.53851e-06
-3.55225e-06
9.95773e-06
3.59033e-06
-3.599e-06
9.96037e-06
3.61357e-06
-3.61621e-06
9.9545e-06
3.61078e-06
-3.60491e-06
9.94176e-06
3.56228e-06
-3.54954e-06
9.92508e-06
3.47134e-06
-3.45466e-06
9.90536e-06
3.34148e-06
-3.32175e-06
9.8836e-06
3.17247e-06
-3.15071e-06
9.86094e-06
2.96451e-06
-2.94185e-06
9.83863e-06
2.71843e-06
-2.69612e-06
9.81793e-06
2.43603e-06
-2.41533e-06
9.80004e-06
2.12015e-06
-2.10227e-06
9.78608e-06
1.77483e-06
-1.76087e-06
9.77696e-06
1.40539e-06
-1.39626e-06
9.77332e-06
1.01848e-06
-1.01484e-06
9.77537e-06
6.22403e-07
-6.24459e-07
9.78273e-06
2.27559e-07
-2.34917e-07
9.79471e-06
-1.58001e-07
1.46021e-07
9.8103e-06
-5.27298e-07
5.11705e-07
9.82841e-06
-8.73921e-07
8.55818e-07
9.84776e-06
-1.19252e-06
1.17317e-06
9.86712e-06
-1.47893e-06
1.45957e-06
9.8853e-06
-1.73026e-06
1.71207e-06
9.90118e-06
-1.94496e-06
1.92908e-06
9.91385e-06
-2.12275e-06
2.11008e-06
9.92263e-06
-2.26443e-06
2.25566e-06
9.92698e-06
-2.37153e-06
2.36717e-06
9.92686e-06
-2.44649e-06
2.44661e-06
9.92273e-06
-2.49241e-06
2.49654e-06
9.91492e-06
-2.51276e-06
2.52056e-06
9.90075e-06
-2.50823e-06
2.5224e-06
9.88026e-06
-2.47755e-06
2.49804e-06
9.85771e-06
-2.42308e-06
2.44564e-06
9.83463e-06
-2.34751e-06
2.37059e-06
9.81288e-06
-2.25221e-06
2.27396e-06
9.79439e-06
-2.13771e-06
2.15619e-06
9.78099e-06
-2.00426e-06
2.01767e-06
9.7742e-06
-1.85219e-06
1.85898e-06
9.77518e-06
-1.68216e-06
1.68118e-06
9.78467e-06
-1.4954e-06
1.4859e-06
9.80303e-06
-1.29373e-06
1.27537e-06
9.83024e-06
-1.07956e-06
1.05235e-06
9.86601e-06
-8.55793e-07
8.20028e-07
9.90978e-06
-6.25698e-07
5.81922e-07
9.96073e-06
-3.92895e-07
3.41943e-07
1.0018e-05
-1.61493e-07
1.04257e-07
1.00808e-05
6.54222e-08
-1.28235e-07
1.01484e-05
2.85328e-07
-3.5296e-07
1.02201e-05
4.95917e-07
-5.67599e-07
1.02951e-05
6.95147e-07
-7.70125e-07
1.03726e-05
8.81246e-07
-9.588e-07
1.04521e-05
1.05271e-06
-1.13217e-06
1.05328e-05
1.20828e-06
-1.28904e-06
1.06144e-05
1.34691e-06
-1.42846e-06
1.06963e-05
1.46775e-06
-1.54967e-06
1.07783e-05
1.57005e-06
-1.65201e-06
1.08601e-05
1.65317e-06
-1.73498e-06
1.09417e-05
1.71643e-06
-1.798e-06
1.1023e-05
1.75891e-06
-1.84031e-06
1.11044e-05
1.77889e-06
-1.86021e-06
1.11854e-05
1.77379e-06
-1.85478e-06
1.12655e-05
1.74195e-06
-1.82208e-06
1.13441e-05
1.68255e-06
-1.76116e-06
1.14204e-05
1.59521e-06
-1.67153e-06
1.14936e-05
1.48012e-06
-1.55328e-06
1.15626e-05
1.33808e-06
-1.4071e-06
1.16264e-05
1.17053e-06
-1.23438e-06
1.1684e-05
9.79646e-07
-1.03726e-06
1.17344e-05
7.68321e-07
-8.18631e-07
1.17763e-05
5.40214e-07
-5.82188e-07
1.1809e-05
2.99862e-07
-3.32533e-07
1.18313e-05
5.32427e-08
-7.5583e-08
1.18426e-05
-1.92323e-07
1.81084e-07
1.18424e-05
-4.31768e-07
4.31959e-07
1.18306e-05
-6.60898e-07
6.72664e-07
1.18073e-05
-8.76243e-07
8.99526e-07
1.17728e-05
-1.07512e-06
1.10966e-06
1.17275e-05
-1.25565e-06
1.30098e-06
1.1672e-05
-1.41665e-06
1.47212e-06
1.16071e-05
-1.55751e-06
1.62243e-06
1.15335e-05
-1.67812e-06
1.75173e-06
1.14519e-05
-1.77865e-06
1.86019e-06
1.13632e-05
-1.85941e-06
1.94814e-06
1.1268e-05
-1.92073e-06
2.01593e-06
1.11671e-05
-1.96296e-06
2.06385e-06
1.10615e-05
-1.98652e-06
2.09213e-06
1.09523e-05
-1.99193e-06
2.10114e-06
1.08406e-05
-1.97962e-06
2.09132e-06
1.07275e-05
-1.94966e-06
2.06277e-06
1.0614e-05
-1.90189e-06
2.01534e-06
1.05013e-05
-1.83604e-06
1.94873e-06
1.03905e-05
-1.75178e-06
1.86264e-06
1.02825e-05
-1.64887e-06
1.75684e-06
1.01784e-05
-1.52734e-06
1.6314e-06
1.00792e-05
-1.38754e-06
1.48673e-06
9.98579e-06
-1.23028e-06
1.32373e-06
9.89882e-06
-1.05684e-06
1.1438e-06
-8.68999e-07
9.48821e-07
1.18571e-05
-1.08661e-06
1.18434e-05
-1.46582e-06
1.18139e-05
-1.79373e-06
1.17695e-05
-2.06902e-06
1.17114e-05
-2.2933e-06
1.1641e-05
-2.47037e-06
1.15594e-05
-2.60547e-06
1.14676e-05
-2.70438e-06
1.13663e-05
-2.77302e-06
1.12567e-05
-2.8176e-06
1.114e-05
-2.84446e-06
1.10177e-05
-2.85914e-06
1.08912e-05
-2.86482e-06
1.07617e-05
-2.86181e-06
1.06307e-05
-2.84764e-06
1.04999e-05
-2.8175e-06
1.03708e-05
-2.76518e-06
1.02452e-05
-2.68419e-06
1.0125e-05
-2.56877e-06
1.00117e-05
-2.41474e-06
9.90732e-06
-2.21996e-06
9.81344e-06
-1.98433e-06
9.73175e-06
-1.70975e-06
9.66371e-06
-1.39981e-06
9.61053e-06
-1.05949e-06
9.57302e-06
-6.94866e-07
9.55144e-06
-3.12976e-07
9.54563e-06
7.79376e-08
9.55401e-06
4.69673e-07
9.57454e-06
8.55274e-07
9.60552e-06
1.22785e-06
9.64483e-06
1.58223e-06
9.69013e-06
1.91411e-06
9.73902e-06
2.22005e-06
9.78915e-06
2.49765e-06
9.83842e-06
2.74528e-06
9.88517e-06
2.96192e-06
9.92834e-06
3.1469e-06
9.96739e-06
3.29983e-06
1.00019e-05
3.42053e-06
1.00311e-05
3.50925e-06
1.00542e-05
3.5673e-06
1.00708e-05
3.59694e-06
1.00836e-05
3.59799e-06
1.00901e-05
3.55579e-06
1.00916e-05
3.46983e-06
1.00896e-05
3.34349e-06
1.00851e-05
3.17694e-06
1.00792e-05
2.97043e-06
1.00728e-05
2.72482e-06
1.00669e-05
2.44191e-06
1.00624e-05
2.12461e-06
1.00602e-05
1.77706e-06
1.00609e-05
1.40471e-06
1.00649e-05
1.01443e-06
1.00724e-05
6.14911e-07
1.00829e-05
2.1708e-07
1.00957e-05
-1.70766e-07
1.01098e-05
-5.4144e-07
1.01243e-05
-8.8844e-07
1.01382e-05
-1.20636e-06
1.01503e-05
-1.49108e-06
1.01599e-05
-1.73981e-06
1.01661e-05
-1.95115e-06
1.01683e-05
-2.12499e-06
1.01661e-05
-2.26227e-06
1.01595e-05
-2.3649e-06
1.01486e-05
-2.43556e-06
1.01336e-05
-2.47743e-06
1.01141e-05
-2.49327e-06
1.00883e-05
-2.48238e-06
1.00576e-05
-2.44686e-06
1.00242e-05
-2.38974e-06
9.9901e-06
-2.31337e-06
9.95711e-06
-2.21922e-06
9.92729e-06
-2.10789e-06
9.90258e-06
-1.97955e-06
9.8847e-06
-1.83431e-06
9.87503e-06
-1.67249e-06
9.87451e-06
-1.49488e-06
9.88366e-06
-1.30288e-06
9.9026e-06
-1.0985e-06
9.9311e-06
-8.8429e-07
9.96865e-06
-6.63245e-07
1.00145e-05
-4.38701e-07
1.00675e-05
-2.14556e-07
1.01271e-05
5.83443e-09
1.01925e-05
2.19971e-07
1.02628e-05
4.25548e-07
1.03375e-05
6.20506e-07
1.04157e-05
8.03045e-07
1.04968e-05
9.71612e-07
1.05802e-05
1.12489e-06
1.06653e-05
1.26176e-06
1.07518e-05
1.3813e-06
1.08391e-05
1.48268e-06
1.09271e-05
1.56516e-06
1.10156e-05
1.62795e-06
1.11045e-05
1.67005e-06
1.11936e-05
1.68975e-06
1.12826e-05
1.6848e-06
1.13708e-05
1.65381e-06
1.14573e-05
1.59607e-06
1.15411e-05
1.51133e-06
1.16214e-05
1.39988e-06
1.16968e-05
1.26261e-06
1.17663e-05
1.10104e-06
1.18286e-05
9.17373e-07
1.18825e-05
7.14461e-07
1.19268e-05
4.95879e-07
1.19605e-05
2.66105e-07
1.19826e-05
3.11441e-08
1.19924e-05
-2.0211e-07
1.19897e-05
-4.29013e-07
1.19744e-05
-6.45587e-07
1.19467e-05
-8.48583e-07
1.19071e-05
-1.03552e-06
1.18562e-05
-1.2047e-06
1.17946e-05
-1.35508e-06
1.17232e-05
-1.48618e-06
1.1643e-05
-1.59789e-06
1.15547e-05
-1.69035e-06
1.14592e-05
-1.76386e-06
1.13572e-05
-1.81875e-06
1.12497e-05
-1.85545e-06
1.11377e-05
-1.87454e-06
1.10224e-05
-1.87666e-06
1.0905e-05
-1.86214e-06
1.07864e-05
-1.83106e-06
1.06677e-05
-1.78325e-06
1.05501e-05
-1.71844e-06
1.04346e-05
-1.63629e-06
1.03223e-05
-1.53657e-06
1.02143e-05
-1.41927e-06
1.01114e-05
-1.28471e-06
1.00148e-05
-1.13361e-06
9.92508e-06
-9.67163e-07
-7.87035e-07
1.20967e-05
-1.07367e-06
1.20655e-05
-1.43457e-06
1.20171e-05
-1.74534e-06
1.19531e-05
-2.00505e-06
1.18753e-05
-2.2155e-06
1.17854e-05
-2.38046e-06
1.16848e-05
-2.50489e-06
1.15748e-05
-2.59435e-06
1.14565e-05
-2.65476e-06
1.13314e-05
-2.69252e-06
1.1201e-05
-2.71402e-06
1.10664e-05
-2.72455e-06
1.09287e-05
-2.72716e-06
1.07892e-05
-2.72222e-06
1.0649e-05
-2.70744e-06
1.05097e-05
-2.67824e-06
1.03731e-05
-2.62857e-06
1.02409e-05
-2.55204e-06
1.01151e-05
-2.44292e-06
9.99736e-06
-2.29701e-06
9.88949e-06
-2.11209e-06
9.79319e-06
-1.88803e-06
9.71004e-06
-1.6266e-06
9.64146e-06
-1.33123e-06
9.58867e-06
-1.00669e-06
9.55238e-06
-6.58582e-07
9.53273e-06
-2.93326e-07
9.52864e-06
8.20268e-08
9.53909e-06
4.5923e-07
9.56334e-06
8.3102e-07
9.59929e-06
1.1919e-06
9.64458e-06
1.53694e-06
9.69685e-06
1.86184e-06
9.75376e-06
2.16314e-06
9.81313e-06
2.43828e-06
9.87305e-06
2.68536e-06
9.93198e-06
2.90299e-06
9.98872e-06
3.09016e-06
1.00423e-05
3.24625e-06
1.00918e-05
3.37105e-06
1.01362e-05
3.46487e-06
1.01748e-05
3.52868e-06
1.0208e-05
3.56373e-06
1.02388e-05
3.56721e-06
1.02652e-05
3.52937e-06
1.02864e-05
3.44863e-06
1.03037e-05
3.32623e-06
1.0318e-05
3.16263e-06
1.03302e-05
2.95822e-06
1.0341e-05
2.714e-06
1.03511e-05
2.43184e-06
1.0361e-05
2.11472e-06
1.03711e-05
1.76687e-06
1.0382e-05
1.39382e-06
1.03939e-05
1.00256e-06
1.04067e-05
6.02153e-07
1.04198e-05
2.03956e-07
1.04326e-05
-1.83588e-07
1.04443e-05
-5.53155e-07
1.04541e-05
-8.98203e-07
1.04611e-05
-1.21334e-06
1.04645e-05
-1.49455e-06
1.04639e-05
-1.73919e-06
1.04588e-05
-1.94603e-06
1.0449e-05
-2.11515e-06
1.04344e-05
-2.24772e-06
1.04153e-05
-2.3458e-06
1.0392e-05
-2.41222e-06
1.03646e-05
-2.45006e-06
1.0332e-05
-2.4607e-06
1.0294e-05
-2.44432e-06
1.02518e-05
-2.40473e-06
1.02072e-05
-2.34515e-06
1.01619e-05
-2.268e-06
1.01176e-05
-2.17491e-06
1.00763e-05
-2.06663e-06
1.00401e-05
-1.94336e-06
1.00109e-05
-1.80506e-06
9.99011e-06
-1.65175e-06
9.97906e-06
-1.48382e-06
9.97841e-06
-1.30223e-06
9.98844e-06
-1.10853e-06
1.0009e-05
-9.0489e-07
1.00398e-05
-6.93963e-07
1.00799e-05
-4.78817e-07
1.01283e-05
-2.63009e-07
1.01843e-05
-5.01307e-08
1.0247e-05
1.57263e-07
1.03157e-05
3.56859e-07
1.03896e-05
5.46583e-07
1.04681e-05
7.246e-07
1.05504e-05
8.89314e-07
1.06359e-05
1.03936e-06
1.07241e-05
1.17355e-06
1.08145e-05
1.29092e-06
1.09066e-05
1.39056e-06
1.10001e-05
1.47165e-06
1.10947e-05
1.53334e-06
1.11902e-05
1.57454e-06
1.12863e-05
1.59365e-06
1.13824e-05
1.58871e-06
1.14777e-05
1.55856e-06
1.15711e-05
1.50263e-06
1.16616e-05
1.42078e-06
1.17481e-05
1.31343e-06
1.18291e-05
1.18157e-06
1.19034e-05
1.02679e-06
1.19695e-05
8.51256e-07
1.20262e-05
6.57749e-07
1.20723e-05
4.49741e-07
1.21068e-05
2.3166e-07
1.21284e-05
9.56335e-09
1.21366e-05
-2.1032e-07
1.21313e-05
-4.23695e-07
1.21125e-05
-6.26855e-07
1.20807e-05
-8.16796e-07
1.20365e-05
-9.91254e-07
1.19805e-05
-1.14867e-06
1.19135e-05
-1.28814e-06
1.18366e-05
-1.40924e-06
1.17506e-05
-1.51189e-06
1.16564e-05
-1.59622e-06
1.15551e-05
-1.66248e-06
1.14474e-05
-1.71105e-06
1.13344e-05
-1.74247e-06
1.12173e-05
-1.75742e-06
1.10971e-05
-1.75652e-06
1.09751e-05
-1.74008e-06
1.08522e-05
-1.70816e-06
1.07295e-05
-1.66059e-06
1.06082e-05
-1.5971e-06
1.04892e-05
-1.51735e-06
1.03738e-05
-1.4211e-06
1.02628e-05
-1.30832e-06
1.01574e-05
-1.1793e-06
1.00585e-05
-1.03471e-06
9.96698e-06
-8.7563e-07
-7.03627e-07
1.23158e-05
-1.0458e-06
1.22679e-05
-1.38675e-06
1.2202e-05
-1.6794e-06
1.21201e-05
-1.92311e-06
1.20243e-05
-2.11974e-06
1.19168e-05
-2.27292e-06
1.17992e-05
-2.38735e-06
1.16732e-05
-2.46836e-06
1.15404e-05
-2.52191e-06
1.14024e-05
-2.55448e-06
1.12605e-05
-2.57218e-06
1.11159e-05
-2.57993e-06
1.09693e-05
-2.58059e-06
1.08217e-05
-2.57464e-06
1.06743e-05
-2.56004e-06
1.05286e-05
-2.53249e-06
1.03862e-05
-2.4862e-06
1.02491e-05
-2.41492e-06
1.01192e-05
-2.31298e-06
9.99827e-06
-2.17613e-06
9.88819e-06
-2.00202e-06
9.79058e-06
-1.79042e-06
9.70695e-06
-1.54296e-06
9.63858e-06
-1.26287e-06
9.58651e-06
-9.54614e-07
9.55149e-06
-6.23561e-07
9.53367e-06
-2.75514e-07
9.53216e-06
8.35382e-08
9.54603e-06
4.45357e-07
9.57441e-06
8.0265e-07
9.61519e-06
1.15111e-06
9.66621e-06
1.48592e-06
9.72524e-06
1.80281e-06
9.79007e-06
2.0983e-06
9.85869e-06
2.36967e-06
9.92926e-06
2.61479e-06
1.00002e-05
2.83205e-06
1.00701e-05
3.02026e-06
1.01377e-05
3.17862e-06
1.0202e-05
3.30679e-06
1.0262e-05
3.40483e-06
1.03176e-05
3.47317e-06
1.03693e-05
3.51198e-06
1.04187e-05
3.51777e-06
1.04646e-05
3.4835e-06
1.05061e-05
3.40713e-06
1.05437e-05
3.28867e-06
1.05779e-05
3.12841e-06
1.06093e-05
2.92684e-06
1.06382e-05
2.68505e-06
1.0665e-05
2.40504e-06
1.06899e-05
2.08988e-06
1.07129e-05
1.74385e-06
1.07342e-05
1.37251e-06
1.07538e-05
9.8291e-07
1.07716e-05
5.84414e-07
1.07868e-05
1.88724e-07
1.07989e-05
-1.95704e-07
1.08072e-05
-5.61475e-07
1.08111e-05
-9.02077e-07
1.081e-05
-1.21221e-06
1.08034e-05
-1.488e-06
1.07913e-05
-1.72702e-06
1.07735e-05
-1.92824e-06
1.07502e-05
-2.09191e-06
1.07219e-05
-2.21939e-06
1.0689e-05
-2.31291e-06
1.0652e-05
-2.37518e-06
1.06106e-05
-2.4087e-06
1.05641e-05
-2.41421e-06
1.05133e-05
-2.39352e-06
1.04593e-05
-2.35066e-06
1.04032e-05
-2.28903e-06
1.03464e-05
-2.21128e-06
1.02908e-05
-2.11925e-06
1.02381e-05
-2.01394e-06
1.01904e-05
-1.89566e-06
1.01496e-05
-1.76431e-06
1.01176e-05
-1.6197e-06
1.00956e-05
-1.46187e-06
1.00847e-05
-1.2913e-06
1.00853e-05
-1.1091e-06
1.00974e-05
-9.1699e-07
1.01207e-05
-7.17264e-07
1.01545e-05
-5.12668e-07
1.01979e-05
-3.06389e-07
1.02498e-05
-1.02057e-07
1.03095e-05
9.75823e-08
1.03762e-05
2.90216e-07
1.0449e-05
4.73744e-07
1.05273e-05
6.46297e-07
1.06104e-05
8.0624e-07
1.06976e-05
9.52155e-07
1.07883e-05
1.08282e-06
1.0882e-05
1.1972e-06
1.09782e-05
1.29435e-06
1.10765e-05
1.37338e-06
1.11764e-05
1.43339e-06
1.12777e-05
1.47328e-06
1.13798e-05
1.49153e-06
1.14821e-05
1.48647e-06
1.15835e-05
1.45717e-06
1.16829e-05
1.4032e-06
1.17791e-05
1.32456e-06
1.18707e-05
1.22182e-06
1.19563e-05
1.09601e-06
1.20344e-05
9.48728e-07
1.21035e-05
7.82103e-07
1.21624e-05
5.9884e-07
1.22098e-05
4.02327e-07
1.22446e-05
1.96928e-07
1.22654e-05
-1.12897e-08
1.2272e-05
-2.16907e-07
1.22642e-05
-4.15937e-07
1.22424e-05
-6.04971e-07
1.22068e-05
-7.81279e-07
1.21584e-05
-9.42816e-07
1.20979e-05
-1.08819e-06
1.20264e-05
-1.21658e-06
1.19447e-05
-1.32758e-06
1.18539e-05
-1.42112e-06
1.1755e-05
-1.49731e-06
1.1649e-05
-1.55641e-06
1.15367e-05
-1.59884e-06
1.14195e-05
-1.62526e-06
1.12985e-05
-1.63638e-06
1.11747e-05
-1.63275e-06
1.10493e-05
-1.61465e-06
1.09233e-05
-1.58214e-06
1.07977e-05
-1.53506e-06
1.06738e-05
-1.47313e-06
1.05525e-05
-1.39603e-06
1.04349e-05
-1.30352e-06
1.03221e-05
-1.19555e-06
1.02151e-05
-1.07236e-06
1.0115e-05
-9.3456e-07
1.00226e-05
-7.83179e-07
-6.19654e-07
1.25078e-05
-1.00428e-06
1.24451e-05
-1.32407e-06
1.23636e-05
-1.59792e-06
1.22659e-05
-1.82541e-06
1.21545e-05
-2.00837e-06
1.20318e-05
-2.15023e-06
1.18999e-05
-2.25541e-06
1.17606e-05
-2.32911e-06
1.1616e-05
-2.37725e-06
1.14676e-05
-2.40612e-06
1.13168e-05
-2.42143e-06
1.11645e-05
-2.42762e-06
1.10113e-05
-2.42735e-06
1.08578e-05
-2.42118e-06
1.07052e-05
-2.40739e-06
1.05548e-05
-2.38206e-06
1.04083e-05
-2.33974e-06
1.02678e-05
-2.27437e-06
1.01351e-05
-2.18035e-06
1.00123e-05
-2.05335e-06
9.90119e-06
-1.89087e-06
9.80327e-06
-1.69249e-06
9.71997e-06
-1.45966e-06
9.65251e-06
-1.1954e-06
9.6018e-06
-9.03912e-07
9.56843e-06
-5.90184e-07
9.5526e-06
-2.5969e-07
9.55445e-06
8.16895e-08
9.57259e-06
4.27219e-07
9.60515e-06
7.70089e-07
9.65069e-06
1.10557e-06
9.70735e-06
1.42926e-06
9.77305e-06
1.73711e-06
9.84573e-06
2.02563e-06
9.92342e-06
2.29197e-06
1.00043e-05
2.53386e-06
1.00869e-05
2.74951e-06
1.01695e-05
2.93759e-06
1.0251e-05
3.09712e-06
1.03303e-05
3.22753e-06
1.04066e-05
3.32854e-06
1.04797e-05
3.40003e-06
1.05502e-05
3.44147e-06
1.06187e-05
3.44928e-06
1.06844e-05
3.41785e-06
1.07464e-05
3.34509e-06
1.08047e-05
3.23039e-06
1.08593e-05
3.07378e-06
1.09104e-05
2.87576e-06
1.09579e-05
2.63754e-06
1.10018e-05
2.36121e-06
1.10417e-05
2.0499e-06
1.10776e-05
1.70795e-06
1.11092e-05
1.34089e-06
1.11364e-05
9.55789e-07
1.11586e-05
5.62214e-07
1.11752e-05
1.72077e-07
1.11858e-05
-2.06268e-07
1.11897e-05
-5.65438e-07
1.11867e-05
-8.99027e-07
1.11764e-05
-1.2019e-06
1.11588e-05
-1.47038e-06
1.1134e-05
-1.70227e-06
1.11025e-05
-1.89677e-06
1.1065e-05
-2.05434e-06
1.1022e-05
-2.17642e-06
1.09743e-05
-2.26524e-06
1.09225e-05
-2.32333e-06
1.08663e-05
-2.35254e-06
1.08058e-05
-2.35367e-06
1.07419e-05
-2.32963e-06
1.06756e-05
-2.28434e-06
1.06078e-05
-2.22126e-06
1.05398e-05
-2.14325e-06
1.04729e-05
-2.05242e-06
1.0409e-05
-1.95005e-06
1.035e-05
-1.83666e-06
1.02979e-05
-1.71219e-06
1.02545e-05
-1.57634e-06
1.02215e-05
-1.42883e-06
1.02e-05
-1.26976e-06
1.01906e-05
-1.09976e-06
1.01937e-05
-9.20072e-07
1.0209e-05
-7.32578e-07
1.0236e-05
-5.39669e-07
1.02738e-05
-3.44174e-07
1.03213e-05
-1.49493e-07
1.03775e-05
4.1344e-08
1.04417e-05
2.26009e-07
1.05131e-05
4.02373e-07
1.05908e-05
5.68537e-07
1.06742e-05
7.22823e-07
1.07626e-05
8.63768e-07
1.08553e-05
9.90109e-07
1.09518e-05
1.10076e-06
1.10514e-05
1.19474e-06
1.11537e-05
1.27112e-06
1.12581e-05
1.32895e-06
1.13643e-05
1.36713e-06
1.14715e-05
1.38428e-06
1.15789e-05
1.37903e-06
1.16855e-05
1.35065e-06
1.17898e-05
1.29887e-06
1.18905e-05
1.22383e-06
1.19862e-05
1.12616e-06
1.20753e-05
1.00693e-06
1.21562e-05
8.67756e-07
1.22276e-05
7.10702e-07
1.22881e-05
5.38388e-07
1.23363e-05
3.54123e-07
1.23709e-05
1.62286e-07
1.23909e-05
-3.12676e-08
1.23959e-05
-2.21902e-07
1.23859e-05
-4.05954e-07
1.23613e-05
-5.80334e-07
1.23226e-05
-7.42586e-07
1.22707e-05
-8.90893e-07
1.22065e-05
-1.02402e-06
1.21311e-05
-1.14122e-06
1.20457e-05
-1.24212e-06
1.19512e-05
-1.32661e-06
1.18486e-05
-1.39477e-06
1.17391e-05
-1.44686e-06
1.16237e-05
-1.48341e-06
1.15035e-05
-1.50512e-06
1.13798e-05
-1.51267e-06
1.12536e-05
-1.50655e-06
1.1126e-05
-1.48702e-06
1.0998e-05
-1.45414e-06
1.08707e-05
-1.40776e-06
1.07452e-05
-1.34762e-06
1.06225e-05
-1.27339e-06
1.05039e-05
-1.18485e-06
1.03902e-05
-1.08192e-06
1.02827e-05
-9.64815e-07
1.01822e-05
-8.34092e-07
1.00897e-05
-6.90691e-07
-5.35955e-07
1.26678e-05
-9.50819e-07
1.25924e-05
-1.24869e-06
1.24979e-05
-1.50338e-06
1.23871e-05
-1.71461e-06
1.22628e-05
-1.88414e-06
1.21278e-05
-2.01519e-06
1.19844e-05
-2.11199e-06
1.18349e-05
-2.17959e-06
1.16813e-05
-2.22372e-06
1.15255e-05
-2.25023e-06
1.13684e-05
-2.26434e-06
1.12108e-05
-2.27004e-06
1.10532e-05
-2.26972e-06
1.0896e-05
-2.26397e-06
1.074e-05
-2.25142e-06
1.05866e-05
-2.22868e-06
1.04376e-05
-2.19072e-06
1.0295e-05
-2.13175e-06
1.01609e-05
-2.04625e-06
1.00373e-05
-1.9298e-06
9.92616e-06
-1.77971e-06
9.82896e-06
-1.59529e-06
9.74704e-06
-1.37774e-06
9.68146e-06
-1.12983e-06
9.63305e-06
-8.55504e-07
9.60235e-06
-5.59484e-07
9.58959e-06
-2.46927e-07
9.59456e-06
7.67154e-08
9.61617e-06
4.05611e-07
9.65283e-06
7.33432e-07
9.70311e-06
1.05529e-06
9.76533e-06
1.36705e-06
9.83758e-06
1.66486e-06
9.91789e-06
1.94531e-06
1.00044e-05
2.20547e-06
1.00953e-05
2.44294e-06
1.01891e-05
2.65578e-06
1.02841e-05
2.8425e-06
1.03793e-05
3.00194e-06
1.04736e-05
3.13327e-06
1.05662e-05
3.2359e-06
1.0657e-05
3.3093e-06
1.07461e-05
3.35235e-06
1.08338e-05
3.36155e-06
1.09193e-05
3.33232e-06
1.10018e-05
3.26261e-06
1.10807e-05
3.15151e-06
1.11556e-05
2.99887e-06
1.12262e-05
2.80517e-06
1.12921e-05
2.57169e-06
1.13527e-05
2.30061e-06
1.14074e-05
1.99512e-06
1.14558e-05
1.65956e-06
1.14973e-05
1.29943e-06
1.15313e-05
9.21739e-07
1.15574e-05
5.36198e-07
1.15747e-05
1.54744e-07
1.15829e-05
-2.14482e-07
1.15817e-05
-5.64209e-07
1.15709e-05
-8.88235e-07
1.15507e-05
-1.18167e-06
1.15213e-05
-1.44108e-06
1.14836e-05
-1.66448e-06
1.14381e-05
-1.85129e-06
1.13858e-05
-2.00209e-06
1.13278e-05
-2.1184e-06
1.12649e-05
-2.20234e-06
1.11977e-05
-2.25614e-06
1.11265e-05
-2.28129e-06
1.10518e-05
-2.27903e-06
1.09748e-05
-2.25262e-06
1.08963e-05
-2.20578e-06
1.0817e-05
-2.14195e-06
1.07379e-05
-2.06415e-06
1.06602e-05
-1.97475e-06
1.05855e-05
-1.87534e-06
1.05156e-05
-1.76672e-06
1.04524e-05
-1.649e-06
1.03979e-05
-1.52184e-06
1.03538e-05
-1.38477e-06
1.03215e-05
-1.2375e-06
1.0302e-05
-1.08022e-06
1.02957e-05
-9.13719e-07
1.03025e-05
-7.39404e-07
1.03221e-05
-5.59264e-07
1.03537e-05
-3.75784e-07
1.03962e-05
-1.91964e-07
1.04485e-05
-1.1e-08
1.05098e-05
1.6468e-07
1.05793e-05
3.32917e-07
1.0656e-05
4.91779e-07
1.07393e-05
6.39546e-07
1.08284e-05
7.74716e-07
1.09225e-05
8.95985e-07
1.1021e-05
1.00222e-06
1.11234e-05
1.09241e-06
1.12289e-05
1.16559e-06
1.1337e-05
1.22079e-06
1.14472e-05
1.25696e-06
1.15586e-05
1.27288e-06
1.16702e-05
1.26746e-06
1.17807e-05
1.24016e-06
1.18887e-05
1.19083e-06
1.19928e-05
1.11971e-06
1.20915e-05
1.0275e-06
1.21831e-05
9.15317e-07
1.22661e-05
7.84747e-07
1.2339e-05
6.37799e-07
1.24004e-05
4.7699e-07
1.2449e-05
3.0557e-07
1.24832e-05
1.28017e-07
1.25023e-05
-5.02947e-08
1.25058e-05
-2.25418e-07
1.24939e-05
-3.94048e-07
1.2467e-05
-5.53425e-07
1.24258e-05
-7.01372e-07
1.23712e-05
-8.36289e-07
1.23042e-05
-9.57086e-07
1.22261e-05
-1.06308e-06
1.21379e-05
-1.15391e-06
1.20407e-05
-1.22944e-06
1.19357e-05
-1.28973e-06
1.18239e-05
-1.33507e-06
1.17065e-05
-1.36605e-06
1.15847e-05
-1.38335e-06
1.14596e-05
-1.38756e-06
1.13322e-05
-1.37914e-06
1.12036e-05
-1.35835e-06
1.10747e-05
-1.32526e-06
1.09467e-05
-1.27974e-06
1.08206e-05
-1.22155e-06
1.06976e-05
-1.15038e-06
1.05787e-05
-1.066e-06
1.04651e-05
-9.68326e-07
1.03579e-05
-8.57545e-07
1.02579e-05
-7.34146e-07
1.01662e-05
-5.98991e-07
-4.53325e-07
1.27928e-05
-8.87547e-07
1.27073e-05
-1.16314e-06
1.26025e-05
-1.39858e-06
1.24816e-05
-1.5937e-06
1.23476e-05
-1.75014e-06
1.22033e-05
-1.87097e-06
1.20516e-05
-1.96026e-06
1.18949e-05
-2.0229e-06
1.17355e-05
-2.06427e-06
1.15749e-05
-2.08963e-06
1.14141e-05
-2.10355e-06
1.12536e-05
-2.10957e-06
1.10937e-05
-2.10986e-06
1.09348e-05
-2.10503e-06
1.07774e-05
-2.09401e-06
1.06227e-05
-2.07399e-06
1.04725e-05
-2.04055e-06
1.0329e-05
-1.98825e-06
1.01944e-05
-1.91167e-06
1.0071e-05
-1.80632e-06
9.96051e-06
-1.66926e-06
9.86469e-06
-1.49948e-06
9.78478e-06
-1.29783e-06
9.72175e-06
-1.0668e-06
9.67629e-06
-8.10042e-07
9.64881e-06
-5.32003e-07
9.63944e-06
-2.37556e-07
9.64792e-06
6.82375e-08
9.67337e-06
3.80155e-07
9.7143e-06
6.92504e-07
9.7694e-06
1.00019e-06
9.83713e-06
1.29932e-06
9.91576e-06
1.58623e-06
1.00035e-05
1.8576e-06
1.00984e-05
2.11049e-06
1.0199e-05
2.34239e-06
1.03035e-05
2.55124e-06
1.04107e-05
2.73536e-06
1.05192e-05
2.89342e-06
1.06281e-05
3.02436e-06
1.07367e-05
3.1273e-06
1.08446e-05
3.20135e-06
1.0952e-05
3.24501e-06
1.10586e-05
3.25496e-06
1.11635e-05
3.2274e-06
1.12657e-05
3.16037e-06
1.13644e-05
3.05281e-06
1.14589e-05
2.90444e-06
1.15483e-05
2.71573e-06
1.16319e-05
2.48805e-06
1.17089e-05
2.22368e-06
1.1778e-05
1.92596e-06
1.18384e-05
1.59921e-06
1.1889e-05
1.24881e-06
1.19291e-05
8.81647e-07
1.19578e-05
5.07474e-07
1.19747e-05
1.3788e-07
1.19794e-05
-2.19241e-07
1.1972e-05
-5.56813e-07
1.19527e-05
-8.68901e-07
1.19219e-05
-1.1509e-06
1.18805e-05
-1.39964e-06
1.18294e-05
-1.61338e-06
1.17698e-05
-1.79169e-06
1.17029e-05
-1.93525e-06
1.16301e-05
-2.04556e-06
1.15523e-05
-2.12455e-06
1.14703e-05
-2.17413e-06
1.13847e-05
-2.19571e-06
1.12967e-05
-2.19096e-06
1.12071e-05
-2.16306e-06
1.11168e-05
-2.11548e-06
1.10264e-05
-2.0516e-06
1.09368e-05
-1.9745e-06
1.08488e-05
-1.88679e-06
1.07639e-05
-1.79038e-06
1.06836e-05
-1.68642e-06
1.06098e-05
-1.57525e-06
1.05446e-05
-1.45662e-06
1.04897e-05
-1.32991e-06
1.04468e-05
-1.19457e-06
1.0417e-05
-1.05038e-06
1.04009e-05
-8.97634e-07
1.03988e-05
-7.37297e-07
1.04104e-05
-5.7092e-07
1.04352e-05
-4.00601e-07
1.04722e-05
-2.28922e-07
1.05201e-05
-5.89323e-08
1.05781e-05
1.06719e-07
1.06452e-05
2.65854e-07
1.07204e-05
4.16501e-07
1.08031e-05
5.56909e-07
1.08923e-05
6.85533e-07
1.09872e-05
8.01026e-07
1.10872e-05
9.02216e-07
1.11916e-05
9.88057e-07
1.12996e-05
1.05757e-06
1.14106e-05
1.1098e-06
1.15238e-05
1.14376e-06
1.16382e-05
1.1584e-06
1.17528e-05
1.15289e-06
1.18662e-05
1.12681e-06
1.19769e-05
1.08014e-06
1.20833e-05
1.01323e-06
1.2184e-05
9.2682e-07
1.22773e-05
8.22073e-07
1.23615e-05
7.00518e-07
1.24352e-05
5.64078e-07
1.2497e-05
4.15182e-07
1.25455e-05
2.57054e-07
1.25792e-05
9.43192e-08
1.25973e-05
-6.83904e-08
1.25996e-05
-2.27666e-07
1.25861e-05
-3.80611e-07
1.25575e-05
-5.24816e-07
1.25145e-05
-6.58376e-07
1.24581e-05
-7.79891e-07
1.23895e-05
-8.88402e-07
1.23097e-05
-9.83282e-07
1.22199e-05
-1.06416e-06
1.21213e-05
-1.13086e-06
1.20151e-05
-1.18347e-06
1.19023e-05
-1.22234e-06
1.17843e-05
-1.24802e-06
1.16621e-05
-1.26112e-06
1.15367e-05
-1.26218e-06
1.14092e-05
-1.25161e-06
1.12805e-05
-1.22969e-06
1.11518e-05
-1.19651e-06
1.1024e-05
-1.15196e-06
1.08983e-05
-1.09584e-06
1.07758e-05
-1.02787e-06
1.06576e-05
-9.47809e-07
1.05448e-05
-8.5558e-07
1.04386e-05
-7.51319e-07
1.03399e-05
-6.35464e-07
1.02497e-05
-5.08799e-07
-3.72466e-07
1.28819e-05
-8.16812e-07
1.27889e-05
-1.0701e-06
1.26767e-05
-1.28641e-06
1.25487e-05
-1.46567e-06
1.2408e-05
-1.60946e-06
1.22578e-05
-1.72072e-06
1.21009e-05
-1.80342e-06
1.19402e-05
-1.86217e-06
1.17778e-05
-1.90184e-06
1.16151e-05
-1.92697e-06
1.14531e-05
-1.9415e-06
1.12919e-05
-1.94846e-06
1.11319e-05
-1.9498e-06
1.09731e-05
-1.9462e-06
1.0816e-05
-1.9369e-06
1.06616e-05
-1.91961e-06
1.05116e-05
-1.89061e-06
1.03684e-05
-1.84498e-06
1.02342e-05
-1.77751e-06
1.01115e-05
-1.68361e-06
1.00023e-05
-1.56007e-06
9.90833e-06
-1.4055e-06
9.83084e-06
-1.22034e-06
9.77074e-06
-1.0067e-06
9.7286e-06
-7.67903e-07
9.70471e-06
-5.08119e-07
9.6991e-06
-2.31942e-07
9.71145e-06
5.58814e-08
9.74106e-06
3.50552e-07
9.78653e-06
6.47037e-07
9.84653e-06
9.4018e-07
9.91972e-06
1.22613e-06
1.00045e-05
1.50142e-06
1.00993e-05
1.76282e-06
1.02024e-05
2.00743e-06
1.03121e-05
2.23269e-06
1.04269e-05
2.4364e-06
1.05456e-05
2.61673e-06
1.06668e-05
2.77216e-06
1.07898e-05
2.90143e-06
1.09136e-05
3.00344e-06
1.10379e-05
3.07701e-06
1.11626e-05
3.12041e-06
1.1287e-05
3.13053e-06
1.14102e-05
3.10417e-06
1.15311e-05
3.03945e-06
1.16487e-05
2.93525e-06
1.17618e-05
2.79132e-06
1.18693e-05
2.60828e-06
1.19697e-05
2.38761e-06
1.20617e-05
2.13172e-06
1.21437e-05
1.84393e-06
1.22144e-05
1.52846e-06
1.22727e-05
1.19051e-06
1.23176e-05
8.3676e-07
1.23481e-05
4.77049e-07
1.23637e-05
1.22248e-07
1.23645e-05
-2.20007e-07
1.23506e-05
-5.42943e-07
1.23226e-05
-8.40941e-07
1.22814e-05
-1.10971e-06
1.22282e-05
-1.34637e-06
1.21642e-05
-1.54939e-06
1.2091e-05
-1.71847e-06
1.201e-05
-1.85434e-06
1.19229e-05
-1.95839e-06
1.18307e-05
-2.03237e-06
1.17345e-05
-2.07797e-06
1.16355e-05
-2.09663e-06
1.15347e-05
-2.09023e-06
1.14334e-05
-2.0617e-06
1.13321e-05
-2.01423e-06
1.12315e-05
-1.95103e-06
1.11322e-05
-1.87518e-06
1.10349e-05
-1.78944e-06
1.09405e-05
-1.69604e-06
1.08506e-05
-1.59654e-06
1.07671e-05
-1.49166e-06
1.06917e-05
-1.38129e-06
1.06265e-05
-1.26473e-06
1.05732e-05
-1.14126e-06
1.05331e-05
-1.01027e-06
1.05072e-05
-8.71674e-07
1.04958e-05
-7.25935e-07
1.0499e-05
-5.74157e-07
1.05165e-05
-4.18026e-07
1.05473e-05
-2.59717e-07
1.05902e-05
-1.01881e-07
1.06442e-05
5.26964e-08
1.07083e-05
2.01752e-07
1.07816e-05
3.43283e-07
1.0863e-05
4.75503e-07
1.09517e-05
5.96832e-07
1.10468e-05
7.05883e-07
1.11476e-05
8.01449e-07
1.12532e-05
8.82458e-07
1.13628e-05
9.4793e-07
1.14757e-05
9.96923e-07
1.15909e-05
1.02852e-06
1.17075e-05
1.04186e-06
1.18241e-05
1.0363e-06
1.19393e-05
1.01159e-06
1.20517e-05
9.67791e-07
1.21595e-05
9.05341e-07
1.22613e-05
8.25039e-07
1.23554e-05
7.28026e-07
1.24401e-05
6.15776e-07
1.25141e-05
4.90116e-07
1.25759e-05
3.53395e-07
1.2624e-05
2.0892e-07
1.2657e-05
6.12721e-08
1.26743e-05
-8.56814e-08
1.26756e-05
-2.28947e-07
1.26611e-05
-3.66126e-07
1.26315e-05
-4.95184e-07
1.25876e-05
-6.14451e-07
1.25304e-05
-7.22697e-07
1.24611e-05
-8.19081e-07
1.23808e-05
-9.03013e-07
1.22907e-05
-9.74109e-07
1.21921e-05
-1.0322e-06
1.2086e-05
-1.07738e-06
1.19737e-05
-1.11003e-06
1.18563e-05
-1.13061e-06
1.17348e-05
-1.13964e-06
1.16102e-05
-1.1376e-06
1.14835e-05
-1.12493e-06
1.13557e-05
-1.10191e-06
1.12279e-05
-1.06866e-06
1.11011e-05
-1.02515e-06
1.09765e-05
-9.71197e-07
1.08551e-05
-9.06545e-07
1.07383e-05
-8.30973e-07
1.06271e-05
-7.44372e-07
1.05226e-05
-6.46837e-07
1.04259e-05
-5.38744e-07
1.03379e-05
-4.20797e-07
-2.94044e-07
1.29363e-05
-7.41098e-07
1.28384e-05
-9.72202e-07
1.27216e-05
-1.16961e-06
1.25893e-05
-1.33334e-06
1.24448e-05
-1.46499e-06
1.22916e-05
-1.56746e-06
1.21327e-05
-1.64451e-06
1.19709e-05
-1.70036e-06
1.18082e-05
-1.7392e-06
1.16461e-05
-1.76483e-06
1.14851e-05
-1.7805e-06
1.13254e-05
-1.78877e-06
1.1167e-05
-1.79143e-06
1.101e-05
-1.7892e-06
1.08547e-05
-1.78163e-06
1.07021e-05
-1.76697e-06
1.05537e-05
-1.74216e-06
1.04116e-05
-1.70297e-06
1.02786e-05
-1.64452e-06
1.01572e-05
-1.56219e-06
1.00497e-05
-1.4525e-06