/*--------------------------------*- C++ -*----------------------------------*\
| =========                 |                                                 |
| \\      /  F ield         | OpenFOAM: The Open Source CFD Toolbox           |
|  \\    /   O peration     | Version:  2206                                  |
|   \\  /    A nd           | Website:  www.openfoam.com                      |
|    \\/     M anipulation  |                                                 |
\*---------------------------------------------------------------------------*/
FoamFile
{
    version     2.0;
    format      ascii;
    arch        "LSB;label=32;scalar=64";
    class       surfaceScalarField;
    location    "18.8001";
    object      ddtCorrDdt0(phi);
}
// * * * * * * * * * * * * * * * * * * * * * * * * * * * * * * * * * * * * * //

dimensions      [0 3 -2 0 0 0 0];

oriented        oriented;

internalField   nonuniform List<scalar> 
3470
(
-7.07345e-05
0.000150935
-8.02009e-05
-0.000171606
0.000213644
-0.000112772
-0.000266671
0.000239308
-0.000144243
-0.000354091
0.000230536
-0.000143116
-0.000417567
0.000192092
-0.000128616
-0.000460388
0.000115504
-7.26836e-05
-0.000480579
2.97201e-07
1.98939e-05
-0.00049081
-0.000136988
0.00014722
-0.000507961
-0.000303556
0.000320706
-0.000536724
-0.00057131
0.000600073
-0.000405795
-0.000873743
0.000742814
-0.000149717
-0.000922668
0.00066659
9.26271e-05
-0.000766096
0.000523753
0.000276019
-0.000560493
0.000377101
0.000419768
-0.000369826
0.000226077
0.000537774
-0.000189752
7.17454e-05
0.000623677
-1.09339e-05
-7.49691e-05
0.000681787
0.000129709
-0.000187819
0.000710286
0.000242244
-0.000270743
0.000706943
0.000331221
-0.000327878
0.000658953
0.000409209
-0.000361219
0.000604256
0.000443791
-0.000389094
0.000646509
0.000360337
-0.00040259
0.000844862
0.000152153
-0.000350506
0.00108984
-2.79397e-05
-0.000217042
0.00115124
-7.11699e-06
-5.4282e-05
0.000957628
0.000198184
-4.56949e-06
0.00062788
0.00043477
-0.000105022
0.000277984
0.000612344
-0.000262448
-3.97434e-05
0.000702566
-0.000384838
-0.00027262
0.000730681
-0.000497804
-0.000426771
0.000682904
-0.000528753
-0.000519295
0.0006012
-0.000508676
-0.000579024
0.000518916
-0.000459187
-0.00062645
0.000437405
-0.000389979
-0.000682389
0.000352167
-0.000296228
-0.000753256
0.000256578
-0.000185711
-0.00084607
0.000139241
-4.64276e-05
-0.000961672
-1.3502e-05
0.000129105
-0.00108758
-0.000207006
0.000332911
-0.00118644
-0.000435805
0.000534672
-0.00120888
-0.000681313
0.000703747
-0.00111968
-0.000887334
0.000798134
-0.000924572
-0.000999225
0.000804118
-0.000677196
-0.000990477
0.000743101
-0.000418931
-0.000895363
0.000637098
-0.000195134
-0.000742622
0.000518826
-1.78726e-06
-0.000570483
0.000377136
0.000199798
-0.000401159
0.000199574
0.000397338
-0.0001942
-3.34053e-06
0.000546604
1.56758e-05
-0.000164942
0.000641019
0.000178913
-0.000273327
0.000674332
0.000296533
-0.000329846
0.00065932
0.000366997
-0.000351985
0.000617234
0.000390724
-0.000348638
0.000571762
0.00036762
-0.000322147
0.000538671
0.000298662
-0.000265572
0.000528433
0.000180298
-0.00017006
0.000540431
2.06877e-05
-3.26852e-05
0.000556378
-0.000136042
0.000120095
0.000551035
-0.000227482
0.000232824
0.000517395
-0.000227524
0.000261164
0.000464274
-0.000156344
0.000209464
0.000395111
-4.19781e-05
0.000111142
0.000306936
9.59529e-05
-7.77817e-06
0.00020164
0.000238358
-0.000133063
9.16176e-05
0.000356161
-0.000246138
-1.13661e-05
0.000433313
-0.00033033
-9.98851e-05
0.000468376
-0.000379857
-0.00017451
0.000462329
-0.000387704
-0.000237294
0.000422463
-0.000359679
-0.000290091
0.000362712
-0.000309916
-0.000333997
0.000290404
-0.000246498
-0.000370864
0.000211531
-0.000174664
-0.000400484
0.000131354
-0.000101734
-0.000424339
5.3227e-05
-2.9372e-05
-0.000446994
-2.28978e-05
4.55534e-05
-0.000473165
-9.79572e-05
0.000124128
-0.000503964
-0.000171625
0.000202424
-0.00053527
-0.000244188
0.000275494
-0.000548095
-0.000315108
0.000327933
-0.000528915
-0.000376659
0.000357478
-0.000476241
-0.000410485
0.000357812
-0.000381852
-0.000401353
0.000306964
-0.00036864
0.000256048
-0.000110139
0.000261074
-0.000203151
0.000306656
-0.000280413
0.000316569
-0.000351499
0.000301622
-0.000413352
0.000253945
-0.000461513
0.000163665
-0.000477167
1.5951e-05
-0.000435645
-0.00017851
-0.000357878
-0.000381322
-0.000325937
-0.000603251
-0.000287222
-0.000912457
-0.000165756
-0.00104413
9.78635e-06
-0.000941638
0.000186931
-0.000737638
0.000330734
-0.000513628
0.000440194
-0.000299212
0.000547812
-0.000118552
0.00065425
2.32713e-05
0.00069025
0.000206244
0.000679146
0.000342325
0.000691566
0.00039679
0.00083905
0.000296307
0.001128
7.13854e-05
0.00133911
-5.8951e-05
0.00126872
4.24454e-05
0.000949177
0.000312426
0.000562793
0.000584569
0.00022008
0.000777482
-6.73473e-05
0.000899772
-0.000281782
0.000917001
-0.000397712
0.000846611
-0.000454828
0.00074002
-0.000478808
0.00062518
-0.000477709
0.000517817
-0.000465534
0.00042523
-0.000459789
0.000346422
-0.000475732
0.00027252
-0.000521204
0.000184712
-0.000599642
6.49367e-05
-0.000706384
-0.000100265
-0.000823884
-0.000318304
-0.000931031
-0.000574166
-0.00098825
-0.000830116
-0.000948833
-0.00103864
-0.000806371
-0.00113294
-0.000603819
-0.00109791
-0.0003748
-0.000971641
-0.000158162
-0.000787121
1.63454e-05
-0.000575666
0.000190705
-0.00036856
0.000358335
-0.000151954
0.000488314
4.89335e-05
0.000574365
0.000210482
0.00061671
0.000324652
0.000621487
0.000385946
0.000610252
0.000378855
0.000604528
0.000304387
0.000610051
0.000174775
0.000618186
1.25528e-05
0.000609625
-0.000127482
0.000575599
-0.000193455
0.00052301
-0.000174935
0.000457248
-9.05815e-05
0.000377066
3.82039e-05
0.00027837
0.000194649
0.000172055
0.000344673
6.79039e-05
0.000460312
-2.91465e-05
0.000530364
-0.000113564
0.000552793
-0.000181987
0.000530752
-0.0002378
0.000478276
-0.000280738
0.00040565
-0.000312119
0.000321786
-0.000334803
0.000234214
-0.000351399
0.00014795
-0.000363356
6.51834e-05
-0.000373255
-1.29981e-05
-0.000385813
-8.53993e-05
-0.00040384
-0.000153598
-0.000427794
-0.000220234
-0.000454233
-0.000288669
-0.000471501
-0.000359391
-0.000459767
-0.000422219
-0.000407908
-0.000453211
-0.000445084
-8.14034e-05
0.000342478
-0.000157379
0.000382632
-0.000232689
0.000391879
-0.000309905
0.000378838
-0.000383485
0.000327525
-0.000446177
0.000226358
-0.000490585
6.03586e-05
-0.000492194
-0.000176901
-0.000417832
-0.000455685
-0.000303687
-0.000717396
-0.00023836
-0.000977784
-0.000155397
-0.0011271
-3.88081e-05
-0.00105823
0.000100289
-0.000876735
0.00023149
-0.000644829
0.000345516
-0.000413239
0.000439458
-0.000212494
0.000534972
-7.22422e-05
0.000599129
0.000142086
0.000694735
0.000246718
0.000924597
0.000166928
0.00123146
-1.05603e-05
0.00137561
-7.27579e-05
0.00123333
8.3324e-05
0.000896401
0.000379377
0.00053447
0.000674357
0.000207206
0.000911833
-9.7725e-05
0.00108241
-0.000306709
0.00110876
-0.000411514
0.00102181
-0.000456927
0.000892023
-0.000461118
0.000744211
-0.000434393
0.000598456
-0.000385392
0.000468816
-0.000324816
0.000364654
-0.000269709
0.000291314
-0.000237355
0.000240167
-0.000239218
0.000186575
-0.000285748
0.000111467
-0.000385206
-8.0717e-07
-0.000499166
-0.000204344
-0.000615375
-0.000457957
-0.000718336
-0.000727156
-0.000779647
-0.00097733
-0.000755105
-0.00115748
-0.000646294
-0.00120673
-0.000488582
-0.00112935
-0.000308574
-0.00096713
-0.000130164
-0.000754076
2.66056e-05
-0.00052533
0.000177221
-0.000302569
0.000319126
-9.29723e-05
0.000438723
9.08848e-05
0.00051611
0.000247266
0.000562199
0.000339857
0.000588922
0.000352131
0.000610784
0.000282525
0.000629062
0.000156496
0.000630459
1.1156e-05
0.000604695
-0.000101717
0.000556009
-0.000144769
0.000494001
-0.000112927
0.000421992
-1.85718e-05
0.000332769
0.000127426
0.00023282
0.000294598
0.000131331
0.000446163
3.33547e-05
0.000558288
-5.67892e-05
0.000620508
-0.00013139
0.000627394
-0.000190434
0.000589796
-0.000234085
0.000521927
-0.00026228
0.000433845
-0.000276751
0.000336257
-0.000281527
0.000238989
-0.000282318
0.000148741
-0.000283475
6.63412e-05
-0.000284198
-1.22753e-05
-0.000287975
-8.16225e-05
-0.000298874
-0.0001427
-0.000317227
-0.00020188
-0.000341088
-0.000264809
-0.000366794
-0.000333684
-0.000383453
-0.00040556
-0.000371644
-0.00046502
-0.000490904
-6.39428e-05
0.00040642
-0.000119543
0.000438233
-0.000181402
0.000453737
-0.000248786
0.000446222
-0.000316824
0.000395563
-0.000374485
0.000284018
-0.000417417
0.000103291
-0.00045843
-0.000135888
-0.000431568
-0.000482547
-0.000367743
-0.000781221
-0.000296289
-0.00104924
-0.000225478
-0.00119791
-0.000141713
-0.00114199
-3.86641e-05
-0.000979784
7.56292e-05
-0.000759122
0.000193886
-0.000531496
0.000308237
-0.000326844
0.000424912
-0.000188917
0.000632412
-6.54139e-05
0.000918532
-3.94015e-05
0.00118869
-0.00010323
0.00127115
-9.30198e-05
0.00110713
9.12576e-05
0.000807098
0.00038336
0.000495123
0.000691352
0.000170934
0.000998546
-0.000151582
0.00123435
-0.000350421
0.00128125
-0.000444792
0.00120313
-0.000483441
0.00106046
-0.000476214
0.000884796
-0.000433935
0.000701932
-0.000365992
0.000530513
-0.000281192
0.000384017
-0.000185048
0.00026851
-9.31491e-05
0.000199416
-2.39616e-05
0.00017098
8.48869e-06
0.000154124
-2.70636e-06
0.000122662
-7.55829e-05
7.20694e-05
-0.000196519
-8.34078e-05
-0.000320178
-0.000334298
-0.000444294
-0.00060304
-0.00054858
-0.000873044
-0.000607505
-0.00109856
-0.000590434
-0.0012238
-0.000511026
-0.00120876
-0.000390726
-0.00108743
-0.000250526
-0.000894275
-0.000112372
-0.000663485
1.27308e-05
-0.000427672
0.000138293
-0.000218535
0.000270659
-4.14808e-05
0.000384408
0.000133516
0.000463997
0.000260268
0.000524075
0.000292053
0.000567047
0.000239554
0.000591422
0.000132121
0.000587275
1.53032e-05
0.000552946
-6.73889e-05
0.000498019
-8.9842e-05
0.000432119
-4.70271e-05
0.000352389
6.11577e-05
0.000260339
0.000219477
0.00016444
0.000390496
7.07423e-05
0.000539861
-1.7334e-05
0.000646364
-9.38278e-05
0.000697002
-0.000152649
0.000686215
-0.000195776
0.000632922
-0.000222102
0.000548254
-0.000232048
0.000443791
-0.00022782
0.000332029
-0.000214102
0.000225272
-0.000197601
0.000132239
-0.000186369
5.51094e-05
-0.000178554
-2.009e-05
-0.000174362
-8.58144e-05
-0.000182028
-0.000135034
-0.000200501
-0.000183407
-0.000225917
-0.000239393
-0.00025496
-0.000304641
-0.000283176
-0.000377344
-0.000299232
-0.000448964
-0.000501967
-3.82001e-05
-7.15895e-05
-0.000111132
-0.000155464
-0.000198671
-0.000243637
-0.000268196
-0.00031257
-0.000340196
-0.000327254
-0.000308193
-0.000278049
-0.00022852
-0.000133198
-9.57489e-06
0.000142336
0.000329821
0.000538441
0.000779802
0.000973103
0.00102132
0.000900782
0.000673329
0.000405881
6.52616e-05
-0.000258334
-0.00044031
-0.000521622
-0.00053949
-0.000509705
-0.000446458
-0.00035951
-0.000255975
-0.000142107
-2.36224e-05
9.10122e-05
0.000188406
0.000242929
0.000245518
0.000207758
0.000102458
-3.87095e-05
-0.000184031
-0.000317102
-0.000423517
-0.000479968
-0.000471797
-0.000417774
-0.00032935
-0.000223083
-0.000113326
-1.08455e-05
9.52844e-05
0.000228462
0.000336779
0.000420732
0.000477671
0.000504116
0.000497397
0.000460843
0.000405676
0.000335727
0.00025046
0.000159202
7.05745e-05
-1.19673e-05
-8.45049e-05
-0.000138239
-0.000173903
-0.000192588
-0.000195137
-0.000184061
-0.000162375
-0.00013292
-0.00010028
-7.79819e-05
-5.58114e-05
-4.73812e-05
-5.63724e-05
-7.9303e-05
-0.000110734
-0.00014483
-0.000178415
-0.000207119
-0.000487773
-1.15894e-05
9.5257e-08
-1.18003e-05
2.10899e-07
-1.20719e-05
2.71671e-07
-1.23579e-05
2.85929e-07
-1.26337e-05
2.75861e-07
-1.28656e-05
2.31892e-07
-1.30277e-05
1.62118e-07
-1.31323e-05
1.04586e-07
-1.32029e-05
7.05754e-08
-1.32731e-05
7.02636e-08
-1.33641e-05
9.09764e-08
-1.34963e-05
1.32201e-07
-1.36843e-05
1.88006e-07
-1.39314e-05
2.47118e-07
-1.42271e-05
2.95678e-07
-1.45489e-05
3.21846e-07
-1.48651e-05
3.1628e-07
-1.5137e-05
2.71896e-07
-1.5328e-05
1.90974e-07
-1.53989e-05
7.09754e-08
-1.53273e-05
-7.15152e-08
-1.51082e-05
-2.19126e-07
-1.47477e-05
-3.60424e-07
-1.4271e-05
-4.76729e-07
-1.37192e-05
-5.51677e-07
-1.31343e-05
-5.84863e-07
-1.25674e-05
-5.66951e-07
-1.20653e-05
-5.02097e-07
-1.1667e-05
-3.98328e-07
-1.14011e-05
-2.65866e-07
-1.12785e-05
-1.2263e-07
-1.1292e-05
1.34963e-08
-1.1409e-05
1.17114e-07
-1.15877e-05
1.78681e-07
-1.17792e-05
1.91491e-07
-1.19356e-05
1.56449e-07
-1.19983e-05
6.277e-08
-1.19051e-05
-9.32199e-08
-1.16247e-05
-2.80408e-07
-1.10813e-05
-5.43355e-07
-1.02463e-05
-8.35044e-07
-9.11103e-06
-1.13522e-06
-7.67438e-06
-1.4367e-06
-5.94179e-06
-1.73253e-06
-3.97048e-06
-1.97123e-06
-1.86007e-06
-2.11037e-06
3.18189e-07
-2.17832e-06
2.53781e-06
-2.21957e-06
4.80255e-06
-2.26468e-06
7.15633e-06
-2.35377e-06
9.67082e-06
-2.5146e-06
1.23616e-05
-2.69074e-06
-2.85915e-06
1.52207e-05
-1.32337e-05
1.98185e-07
-1.33693e-05
3.4651e-07
-1.35006e-05
4.02945e-07
-1.35988e-05
3.84143e-07
-1.36375e-05
3.14622e-07
-1.36184e-05
2.12809e-07
-1.35548e-05
9.84301e-08
-1.34522e-05
2.07935e-09
-1.33267e-05
-5.49141e-08
-1.32204e-05
-3.60758e-08
-1.31382e-05
8.75981e-09
-1.30965e-05
9.05531e-08
-1.31064e-05
1.97861e-07
-1.31727e-05
3.13437e-07
-1.32949e-05
4.17935e-07
-1.34678e-05
4.94717e-07
-1.36822e-05
5.30724e-07
-1.3919e-05
5.08672e-07
-1.41724e-05
4.44379e-07
-1.4403e-05
3.01634e-07
-1.46002e-05
1.25754e-07
-1.47537e-05
-6.56011e-08
-1.48608e-05
-2.53306e-07
-1.49048e-05
-4.32735e-07
-1.48744e-05
-5.82057e-07
-1.47789e-05
-6.80355e-07
-1.4624e-05
-7.21899e-07
-1.4422e-05
-7.03994e-07
-1.41893e-05
-6.31082e-07
-1.39335e-05
-5.21709e-07
-1.36575e-05
-3.98556e-07
-1.33629e-05
-2.81079e-07
-1.30572e-05
-1.88583e-07
-1.27465e-05
-1.32092e-07
-1.24215e-05
-1.33479e-07
-1.20873e-05
-1.7769e-07
-1.17356e-05
-2.88916e-07
-1.13277e-05
-5.01131e-07
-1.09272e-05
-6.80932e-07
-1.04392e-05
-1.03131e-06
-9.87091e-06
-1.40332e-06
-9.20715e-06
-1.799e-06
-8.43149e-06
-2.21235e-06
-7.53234e-06
-2.63164e-06
-6.44522e-06
-3.05833e-06
-5.05514e-06
-3.50044e-06
-3.26006e-06
-3.97339e-06
-9.49742e-07
-4.52985e-06
2.02532e-06
-5.23973e-06
5.83339e-06
-6.16185e-06
1.08852e-05
-7.56648e-06
1.75063e-05
-9.31182e-06
-1.18316e-05
2.64787e-05
-1.41868e-05
3.54226e-07
-1.43246e-05
4.84245e-07
-1.44113e-05
4.89695e-07
-1.44318e-05
4.04666e-07
-1.43782e-05
2.60941e-07
-1.42455e-05
8.0114e-08
-1.40461e-05
-1.00896e-07
-1.37994e-05
-2.44688e-07
-1.3527e-05
-3.27267e-07
-1.3253e-05
-3.10035e-07
-1.3001e-05
-2.43312e-07
-1.27906e-05
-1.19827e-07
-1.26369e-05
4.41746e-08
-1.25497e-05
2.26305e-07
-1.25328e-05
4.01006e-07
-1.25846e-05
5.46507e-07
-1.27069e-05
6.53076e-07
-1.28738e-05
6.75599e-07
-1.30976e-05
6.68188e-07
-1.33442e-05
5.4827e-07
-1.35867e-05
3.68252e-07
-1.38249e-05
1.72625e-07
-1.40524e-05
-2.58126e-08
-1.42517e-05
-2.33406e-07
-1.4414e-05
-4.19797e-07
-1.45284e-05
-5.65945e-07
-1.45895e-05
-6.6079e-07
-1.459e-05
-7.03497e-07
-1.45347e-05
-6.86385e-07
-1.44194e-05
-6.37032e-07
-1.42608e-05
-5.57145e-07
-1.4059e-05
-4.82802e-07
-1.3823e-05
-4.24596e-07
-1.35615e-05
-3.93616e-07
-1.32823e-05
-4.12662e-07
-1.29909e-05
-4.69017e-07
-1.26937e-05
-5.8616e-07
-1.2395e-05
-7.99818e-07
-1.20945e-05
-9.81472e-07
-1.17945e-05
-1.33131e-06
-1.14896e-05
-1.70815e-06
-1.11711e-05
-2.11753e-06
-1.08276e-05
-2.55585e-06
-1.04367e-05
-3.02247e-06
-9.97938e-06
-3.51566e-06
-9.43303e-06
-4.04677e-06
-8.75851e-06
-4.64791e-06
-7.91685e-06
-5.37149e-06
-6.85561e-06
-6.30095e-06
-5.48901e-06
-7.52846e-06
-3.68153e-06
-9.37398e-06
-1.14557e-06
-1.18478e-05
-1.55611e-05
2.58389e-06
-1.43653e-05
5.99458e-07
-1.45932e-05
7.12116e-07
-1.47591e-05
6.55614e-07
-1.48169e-05
4.6249e-07
-1.47363e-05
1.80314e-07
-1.45335e-05
-1.22689e-07
-1.42367e-05
-3.97658e-07
-1.3881e-05
-6.00367e-07
-1.35034e-05
-7.04876e-07
-1.31137e-05
-6.99756e-07
-1.27572e-05
-5.99836e-07
-1.24566e-05
-4.20418e-07
-1.22276e-05
-1.84781e-07
-1.20778e-05
7.64596e-08
-1.20093e-05
3.32503e-07
-1.20378e-05
5.75015e-07
-1.21393e-05
7.54636e-07
-1.23144e-05
8.50714e-07
-1.25261e-05
8.7984e-07
-1.27631e-05
7.85323e-07
-1.30219e-05
6.27038e-07
-1.32883e-05
4.39038e-07
-1.35542e-05
2.4016e-07
-1.38033e-05
1.56913e-08
-1.40272e-05
-1.9589e-07
-1.42146e-05
-3.78607e-07
-1.43585e-05
-5.16794e-07
-1.44488e-05
-6.13269e-07
-1.44813e-05
-6.53897e-07
-1.44603e-05
-6.57949e-07
-1.43931e-05
-6.24422e-07
-1.42856e-05
-5.90256e-07
-1.41472e-05
-5.63007e-07
-1.39857e-05
-5.55057e-07
-1.38177e-05
-5.80673e-07
-1.36402e-05
-6.46475e-07
-1.34622e-05
-7.64162e-07
-1.33195e-05
-9.42507e-07
-1.31373e-05
-1.16369e-06
-1.30055e-05
-1.46308e-06
-1.29015e-05
-1.81216e-06
-1.28223e-05
-2.19675e-06
-1.27645e-05
-2.61362e-06
-1.27276e-05
-3.05934e-06
-1.27122e-05
-3.5311e-06
-1.27201e-05
-4.03887e-06
-1.2768e-05
-4.59996e-06
-1.28874e-05
-5.25211e-06
-1.3106e-05
-6.08235e-06
-1.344e-05
-7.19439e-06
-1.40256e-05
-8.78846e-06
-1.4644e-05
-1.12294e-05
-1.49291e-05
-1.52759e-05
-1.39813e-05
1.13377e-06
-1.44737e-05
1.20458e-06
-1.48534e-05
1.03532e-06
-1.50631e-05
6.72166e-07
-1.50873e-05
2.04533e-07
-1.49293e-05
-2.80707e-07
-1.46166e-05
-7.10375e-07
-1.42036e-05
-1.01335e-06
-1.37447e-05
-1.16375e-06
-1.32804e-05
-1.16402e-06
-1.28639e-05
-1.01633e-06
-1.25319e-05
-7.52406e-07
-1.23068e-05
-4.09935e-07
-1.21956e-05
-3.47754e-08
-1.21905e-05
3.2748e-07
-1.22716e-05
6.56095e-07
-1.24075e-05
8.90569e-07
-1.25873e-05
1.03054e-06
-1.27964e-05
1.08895e-06
-1.30656e-05
1.05452e-06
-1.33608e-05
9.2222e-07
-1.36485e-05
7.2671e-07
-1.39079e-05
4.99614e-07
-1.41352e-05
2.43021e-07
-1.43209e-05
-1.02567e-08
-1.44603e-05
-2.39139e-07
-1.45493e-05
-4.27844e-07
-1.4594e-05
-5.68492e-07
-1.45906e-05
-6.57331e-07
-1.45388e-05
-7.09721e-07
-1.44388e-05
-7.24431e-07
-1.43127e-05
-7.16381e-07
-1.41731e-05
-7.02566e-07
-1.40301e-05
-6.98101e-07
-1.38931e-05
-7.17604e-07
-1.37669e-05
-7.72666e-07
-1.36587e-05
-8.72426e-07
-1.35763e-05
-1.02491e-06
-1.35112e-05
-1.2287e-06
-1.34881e-05
-1.48617e-06
-1.3504e-05
-1.79632e-06
-1.35558e-05
-2.14493e-06
-1.36488e-05
-2.52064e-06
-1.37985e-05
-2.90958e-06
-1.401e-05
-3.3196e-06
-1.43007e-05
-3.74817e-06
-1.47161e-05
-4.18455e-06
-1.53466e-05
-4.6216e-06
-1.62972e-05
-5.13175e-06
-1.78113e-05
-5.6803e-06
-2.00679e-05
-6.53184e-06
-2.28941e-05
-8.40315e-06
-1.11478e-05
-2.66754e-05
-1.37605e-05
1.92102e-06
-1.44477e-05
1.89177e-06
-1.49769e-05
1.56448e-06
-1.52655e-05
9.60816e-07
-1.53154e-05
2.54379e-07
-1.51342e-05
-4.61881e-07
-1.47597e-05
-1.08488e-06
-1.42674e-05
-1.50563e-06
-1.37225e-05
-1.70862e-06
-1.31869e-05
-1.6996e-06
-1.27146e-05
-1.48865e-06
-1.23478e-05
-1.11919e-06
-1.21103e-05
-6.47404e-07
-1.20102e-05
-1.34882e-07
-1.20534e-05
3.70652e-07
-1.22047e-05
8.07404e-07
-1.24491e-05
1.13496e-06
-1.27603e-05
1.34174e-06
-1.30941e-05
1.42278e-06
-1.34236e-05
1.38404e-06
-1.37403e-05
1.23893e-06
-1.40264e-05
1.01285e-06
-1.42587e-05
7.31873e-07
-1.44381e-05
4.22394e-07
-1.45626e-05
1.14278e-07
-1.46332e-05
-1.68565e-07
-1.46538e-05
-4.0719e-07
-1.463e-05
-5.92298e-07
-1.45686e-05
-7.18773e-07
-1.44863e-05
-7.91978e-07
-1.43891e-05
-8.21594e-07
-1.42844e-05
-8.21091e-07
-1.41805e-05
-8.06477e-07
-1.40842e-05
-7.94387e-07
-1.40018e-05
-8.00005e-07
-1.39374e-05
-8.37064e-07
-1.38947e-05
-9.15097e-07
-1.38777e-05
-1.04186e-06
-1.38871e-05
-1.21933e-06
-1.39255e-05
-1.44779e-06
-1.39974e-05
-1.72433e-06
-1.41043e-05
-2.03803e-06
-1.42488e-05
-2.3761e-06
-1.44292e-05
-2.72926e-06
-1.46803e-05
-3.06843e-06
-1.50577e-05
-3.37074e-06
-1.56162e-05
-3.62599e-06
-1.64208e-05
-3.81709e-06
-1.76677e-05
-3.88477e-06
-1.94254e-05
-3.92265e-06
-2.20847e-05
-3.87253e-06
-2.69678e-05
-3.5201e-06
-3.97075e-06
-3.41448e-05
-1.3578e-05
3.03497e-06
-1.45451e-05
2.85891e-06
-1.5272e-05
2.29136e-06
-1.56938e-05
1.38266e-06
-1.58328e-05
3.93373e-07
-1.57086e-05
-5.86122e-07
-1.53778e-05
-1.41564e-06
-1.49066e-05
-1.97685e-06
-1.43547e-05
-2.26049e-06
-1.3801e-05
-2.25335e-06
-1.33082e-05
-1.98144e-06
-1.2923e-05
-1.50437e-06
-1.26697e-05
-9.00642e-07
-1.25446e-05
-2.59957e-07
-1.25723e-05
3.98344e-07
-1.27149e-05
9.49967e-07
-1.29472e-05
1.3673e-06
-1.32349e-05
1.62942e-06
-1.35438e-05
1.73168e-06
-1.38449e-05
1.68516e-06
-1.41172e-05
1.5112e-06
-1.43427e-05
1.23841e-06
-1.45112e-05
9.0037e-07
-1.46217e-05
5.3289e-07
-1.46768e-05
1.69355e-07
-1.46807e-05
-1.64658e-07
-1.46413e-05
-4.4656e-07
-1.45691e-05
-6.64526e-07
-1.44732e-05
-8.1463e-07
-1.43666e-05
-8.98583e-07
-1.42614e-05
-9.26846e-07
-1.41664e-05
-9.15986e-07
-1.409e-05
-8.8295e-07
-1.40383e-05
-8.45974e-07
-1.40161e-05
-8.2224e-07
-1.40267e-05
-8.26486e-07
-1.40721e-05
-8.69664e-07
-1.41542e-05
-9.59766e-07
-1.42735e-05
-1.10004e-06
-1.44313e-05
-1.28992e-06
-1.46309e-05
-1.52479e-06
-1.48734e-05
-1.79546e-06
-1.51621e-05
-2.08744e-06
-1.55048e-05
-2.38654e-06
-1.59048e-05
-2.66836e-06
-1.63851e-05
-2.89046e-06
-1.7011e-05
-3.0001e-06
-1.78969e-05
-2.9311e-06
-1.9246e-05
-2.53568e-06
-2.14929e-05
-1.67581e-06
-2.52117e-05
-1.53665e-07
-3.10394e-05
2.30761e-06
5.33283e-06
-4.03431e-05
-1.2375e-05
4.1921e-06
-1.37442e-05
4.4042e-06
-1.49398e-05
4.0545e-06
-1.59197e-05
3.27127e-06
-1.67011e-05
2.16402e-06
-1.71853e-05
8.77582e-07
-1.73644e-05
-4.06979e-07
-1.73261e-05
-1.45394e-06
-1.71115e-05
-2.19143e-06
-1.67796e-05
-2.59242e-06
-1.6387e-05
-2.64595e-06
-1.59928e-05
-2.37559e-06
-1.56425e-05
-1.85464e-06
-1.53522e-05
-1.19094e-06
-1.51108e-05
-5.01324e-07
-1.49118e-05
1.99326e-07
-1.47513e-05
7.89407e-07
-1.46152e-05
1.23129e-06
-1.44913e-05
1.50546e-06
-1.43721e-05
1.6125e-06
-1.42513e-05
1.56441e-06
-1.41252e-05
1.38513e-06
-1.39939e-05
1.10712e-06
-1.38599e-05
7.66303e-07
-1.3727e-05
3.9997e-07
-1.35975e-05
3.9879e-08
-1.34774e-05
-2.84726e-07
-1.3372e-05
-5.51931e-07
-1.32863e-05
-7.5033e-07
-1.32275e-05
-8.73397e-07
-1.31985e-05
-9.27548e-07
-1.32013e-05
-9.24056e-07
-1.32399e-05
-8.77348e-07
-1.33178e-05
-8.05004e-07
-1.34372e-05
-7.26592e-07
-1.35994e-05
-6.59992e-07
-1.38064e-05
-6.19543e-07
-1.40599e-05
-6.16164e-07
-1.43624e-05
-6.57224e-07
-1.47164e-05
-7.46028e-07
-1.51247e-05
-8.81618e-07
-1.55905e-05
-1.05891e-06
-1.61172e-05
-1.26881e-06
-1.67071e-05
-1.49744e-06
-1.73659e-05
-1.72786e-06
-1.80986e-05
-1.93561e-06
-1.89127e-05
-2.07634e-06
-1.98281e-05
-2.08468e-06
-2.09028e-05
-1.85639e-06
-2.22497e-05
-1.18879e-06
-2.41828e-05
2.57308e-07
-2.74227e-05
3.0863e-06
-3.32583e-05
8.14307e-06
1.61209e-05
-4.40463e-05
-1.58724e-05
3.26034e-06
-1.49085e-05
3.44036e-06
-1.40414e-05
3.18732e-06
-1.33458e-05
2.57574e-06
-1.28872e-05
1.70545e-06
-1.27012e-05
6.91497e-07
-1.27912e-05
-3.16955e-07
-1.30841e-05
-1.16104e-06
-1.35212e-05
-1.75429e-06
-1.40449e-05
-2.06873e-06
-1.4555e-05
-2.13582e-06
-1.5011e-05
-1.91959e-06
-1.54027e-05
-1.46295e-06
-1.56822e-05
-9.11466e-07
-1.58312e-05
-3.52263e-07
-1.57985e-05
1.66579e-07
-1.56023e-05
5.93212e-07
-1.52731e-05
9.02166e-07
-1.48512e-05
1.08349e-06
-1.43768e-05
1.13817e-06
-1.38904e-05
1.07795e-06
-1.34295e-05
9.24226e-07
-1.3025e-05
7.02628e-07
-1.2701e-05
4.42343e-07
-1.24718e-05
1.70745e-07
-1.23458e-05
-8.61257e-08
-1.23247e-05
-3.05834e-07
-1.24031e-05
-4.73526e-07
-1.2573e-05
-5.80438e-07
-1.28222e-05
-6.24146e-07
-1.31318e-05
-6.17939e-07
-1.34808e-05
-5.7508e-07
-1.38573e-05
-5.00874e-07
-1.425e-05
-4.12202e-07
-1.46498e-05
-3.26766e-07
-1.50518e-05
-2.58033e-07
-1.54569e-05
-2.14409e-07
-1.58706e-05
-2.02487e-07
-1.63023e-05
-2.25468e-07
-1.67642e-05
-2.84144e-07
-1.72702e-05
-3.75627e-07
-1.78342e-05
-4.9493e-07
-1.84688e-05
-6.34153e-07
-1.91851e-05
-7.81156e-07
-1.9989e-05
-9.2401e-07
-2.08724e-05
-1.05219e-06
-2.18236e-05
-1.12506e-06
-2.28079e-05
-1.10037e-06
-2.37622e-05
-9.02089e-07
-2.45864e-05
-3.64627e-07
-2.51377e-05
8.08658e-07
-2.56009e-05
3.54949e-06
-2.67727e-05
9.31483e-06
2.33778e-05
-3.40296e-05
-1.76907e-05
-1.42504e-05
-1.1063e-05
-8.48728e-06
-6.78183e-06
-6.09033e-06
-6.40729e-06
-7.56833e-06
-9.32261e-06
-1.13913e-05
-1.35271e-05
-1.54467e-05
-1.69097e-05
-1.78211e-05
-1.81734e-05
-1.80068e-05
-1.74136e-05
-1.65114e-05
-1.54279e-05
-1.42898e-05
-1.32118e-05
-1.22876e-05
-1.1585e-05
-1.11426e-05
-1.09719e-05
-1.1058e-05
-1.13638e-05
-1.18374e-05
-1.24178e-05
-1.30419e-05
-1.36599e-05
-1.42349e-05
-1.47358e-05
-1.5148e-05
-1.54748e-05
-1.57328e-05
-1.59472e-05
-1.61497e-05
-1.63751e-05
-1.66593e-05
-1.70349e-05
-1.75298e-05
-1.8164e-05
-1.89451e-05
-1.98692e-05
-2.09213e-05
-2.20464e-05
-2.31468e-05
-2.40489e-05
-2.44135e-05
-2.36048e-05
-2.00553e-05
-1.07405e-05
1.26372e-05
1.80347e-05
-2.81402e-06
2.0343e-05
-2.30838e-06
2.17483e-05
-1.40532e-06
2.43343e-05
-2.58596e-06
3.33133e-05
-8.979e-06
5.28951e-05
-1.95819e-05
8.55003e-05
-3.26052e-05
0.00013247
-4.69696e-05
0.000191677
-5.92068e-05
0.000258659
-6.69826e-05
0.000322915
-6.42562e-05
0.000372183
-4.92672e-05
0.000391587
-1.94047e-05
0.000358507
3.308e-05
0.00028061
7.78973e-05
0.000162594
0.000118016
1.46577e-05
0.000147936
-0.000100855
0.000115512
-0.000196816
9.59617e-05
-0.0002635
6.6684e-05
-0.000300417
3.69169e-05
-0.000312025
1.16076e-05
-0.000304862
-7.16279e-06
-0.000285681
-1.91815e-05
-0.000255081
-3.05993e-05
-0.000215823
-3.92585e-05
-0.000171196
-4.46264e-05
-0.000123318
-4.78783e-05
-7.22151e-05
-5.11029e-05
-3.43065e-05
-3.79087e-05
5.73576e-06
-4.00422e-05
3.83932e-05
-3.26574e-05
6.34227e-05
-2.50295e-05
8.04346e-05
-1.70119e-05
8.99489e-05
-9.51428e-06
9.22904e-05
-2.34146e-06
8.78664e-05
4.42396e-06
7.65709e-05
1.12955e-05
5.91929e-05
1.7378e-05
4.09727e-05
1.82202e-05
2.02486e-05
2.07242e-05
2.5337e-06
1.77148e-05
-8.26402e-06
1.07977e-05
-1.0106e-05
1.84198e-06
-2.68382e-06
-7.42218e-06
1.30498e-05
-1.57336e-05
3.46158e-05
-2.1566e-05
5.76734e-05
-2.30577e-05
8.09897e-05
-2.33162e-05
9.96474e-05
-1.86578e-05
0.000109531
-9.88331e-06
0.000108108
1.42297e-06
9.36808e-05
1.44269e-05
6.66797e-05
2.70012e-05
3.02494e-05
3.64302e-05
-9.6391e-06
3.98885e-05
-4.47802e-05
3.51411e-05
-7.1722e-05
2.69418e-05
-8.59751e-05
1.4253e-05
-8.6418e-05
4.42956e-07
-7.42159e-05
-1.22021e-05
-5.28395e-05
-2.13764e-05
-2.73462e-05
-2.54933e-05
-3.16651e-06
-2.41797e-05
1.54762e-05
-1.86427e-05
2.77602e-05
-1.2284e-05
3.25372e-05
-4.77695e-06
2.98467e-05
2.69046e-06
2.0517e-05
9.32972e-06
6.43231e-06
1.40847e-05
-9.96075e-06
1.63931e-05
-2.55491e-05
1.55884e-05
-3.98121e-05
1.4263e-05
-5.05524e-05
1.07403e-05
-5.65753e-05
6.02292e-06
-5.73648e-05
7.89486e-07
-5.29614e-05
-4.40347e-06
-4.3983e-05
-8.97838e-06
-3.15101e-05
-1.24728e-05
-1.71076e-05
-1.44026e-05
-2.57003e-06
-1.45375e-05
1.0778e-05
-1.3348e-05
2.19668e-05
-1.11888e-05
2.99168e-05
-7.95004e-06
3.39716e-05
-4.05479e-06
-1.0571e-07
3.89658e-05
-1.53011e-05
5.66519e-05
-1.99944e-05
8.18528e-05
-2.66062e-05
0.000114836
-3.55691e-05
0.000150253
-4.43961e-05
0.000182459
-5.17877e-05
0.00020905
-5.9196e-05
0.00022837
-6.62903e-05
0.000242226
-7.3063e-05
0.00025841
-8.31659e-05
0.000283906
-8.97528e-05
0.000311921
-7.7282e-05
0.0003154
-2.28836e-05
0.000280453
6.8027e-05
0.000197766
0.000160584
7.3586e-05
0.000242197
-7.22498e-05
0.000293772
-0.000159267
0.00020253
-0.000240033
0.000176727
-0.000274169
0.00010082
-0.000282481
4.52289e-05
-0.000278318
7.44444e-06
-0.000266275
-1.92058e-05
-0.000249094
-3.63625e-05
-0.000225604
-5.40895e-05
-0.000193148
-7.17145e-05
-0.000153903
-8.38712e-05
-0.000109818
-9.19637e-05
-6.23833e-05
-9.85372e-05
-1.41985e-05
-8.60935e-05
2.4343e-05
-7.85838e-05
5.36436e-05
-6.1958e-05
7.33193e-05
-4.47053e-05
8.54044e-05
-2.9097e-05
9.20349e-05
-1.61447e-05
9.31433e-05
-3.44987e-06
8.84279e-05
9.13933e-06
7.72303e-05
2.24931e-05
5.93146e-05
3.52938e-05
3.89929e-05
3.85419e-05
1.71021e-05
4.2615e-05
-4.50816e-07
3.52677e-05
-1.06633e-05
2.10102e-05
-1.19304e-05
3.10904e-06
-3.51796e-06
-1.58346e-05
1.38985e-05
-3.31501e-05
3.78891e-05
-4.55566e-05
6.2925e-05
-4.80936e-05
8.75267e-05
-4.79179e-05
0.000106925
-3.80565e-05
0.000115785
-1.87428e-05
0.000112414
4.79437e-06
9.52355e-05
3.1605e-05
6.35131e-05
5.87235e-05
2.19796e-05
7.79637e-05
-2.16795e-05
8.35477e-05
-5.87136e-05
7.21752e-05
-8.43525e-05
5.25806e-05
-9.58832e-05
2.57837e-05
-9.28373e-05
-2.60297e-06
-7.68027e-05
-2.82367e-05
-5.18027e-05
-4.63764e-05
-2.3375e-05
-5.3921e-05
2.38208e-06
-4.99368e-05
2.20879e-05
-3.83485e-05
3.37323e-05
-2.39284e-05
3.687e-05
-7.91467e-06
3.22157e-05
7.34481e-06
2.11246e-05
2.04208e-05
5.50737e-06
2.97019e-05
-1.24676e-05
3.4368e-05
-2.92223e-05
3.23431e-05
-4.33796e-05
2.84204e-05
-5.31887e-05
2.05493e-05
-5.79335e-05
1.07677e-05
-5.74812e-05
3.37136e-07
-5.2019e-05
-9.86566e-06
-4.22356e-05
-1.87618e-05
-2.9176e-05
-2.55325e-05
-1.42187e-05
-2.93598e-05
7.20189e-07
-2.94765e-05
1.49845e-05
-2.76124e-05
2.65982e-05
-2.28025e-05
3.45864e-05
-1.59383e-05
3.81786e-05
-7.647e-06
4.76338e-07
8.13731e-06
-2.08546e-05
1.62693e-05
-2.81265e-05
2.76727e-05
-3.80096e-05
4.2959e-05
-5.08554e-05
6.46837e-05
-6.61207e-05
9.43974e-05
-8.15014e-05
0.000129867
-9.46656e-05
0.000165488
-0.000101911
0.000190913
-9.84881e-05
0.000189697
-8.195e-05
0.000155931
-5.59863e-05
9.47933e-05
-1.61446e-05
2.37074e-05
4.82023e-05
-4.94412e-05
0.000141176
-0.000128602
0.000239745
-0.000202273
0.000315867
-0.000241367
0.000332866
-0.000291273
0.000252436
-0.000285479
0.000170933
-0.000257117
7.24584e-05
-0.000214659
2.77104e-06
-0.000174002
-3.32126e-05
-0.000136998
-5.62097e-05
-0.000109583
-6.37775e-05
-9.74188e-05
-6.62539e-05
-9.73235e-05
-7.18099e-05
-9.71505e-05
-8.40441e-05
-8.50059e-05
-0.000104108
-5.31556e-05
-0.000130387
-1.36175e-05
-0.000125632
1.55516e-05
-0.000107753
3.75196e-05
-8.3926e-05
5.33456e-05
-6.05313e-05
6.44204e-05
-4.01718e-05
7.17956e-05
-2.35199e-05
7.67961e-05
-8.45044e-06
7.7771e-05
8.16443e-06
7.31434e-05
2.71207e-05
6.07266e-05
4.77106e-05
4.23912e-05
5.68774e-05
2.17645e-05
6.32417e-05
1.71906e-06
5.53132e-05
-1.07292e-05
3.34585e-05
-1.4553e-05
6.93286e-06
-8.17223e-06
-2.22154e-05
8.77285e-06
-5.00952e-05
3.43063e-05
-7.109e-05
6.09738e-05
-7.47611e-05
8.62572e-05
-7.32013e-05
0.00010421
-5.60097e-05
0.000114764
-2.92961e-05
0.00011406
5.49797e-06
0.000100638
4.50274e-05
6.97536e-05
8.96074e-05
2.38857e-05
0.000123832
-2.55365e-05
0.00013297
-6.19769e-05
0.000108616
-8.76301e-05
7.82338e-05
-9.85032e-05
3.66568e-05
-9.51449e-05