/*--------------------------------*- C++ -*----------------------------------*\
| =========                 |                                                 |
| \\      /  F ield         | OpenFOAM: The Open Source CFD Toolbox           |
|  \\    /   O peration     | Version:  2206                                  |
|   \\  /    A nd           | Website:  www.openfoam.com                      |
|    \\/     M anipulation  |                                                 |
\*---------------------------------------------------------------------------*/
FoamFile
{
    version     2.0;
    format      ascii;
    arch        "LSB;label=32;scalar=64";
    class       volVectorField;
    location    "19.2";
    object      ddt0(U);
}
// * * * * * * * * * * * * * * * * * * * * * * * * * * * * * * * * * * * * * //

dimensions      [0 1 -2 0 0 0 0];

internalField   nonuniform List<vector> 
1840
(
(-1.15763 -20.5067 0)
(-4.49983 -19.2694 0)
(-7.49894 -17.2146 0)
(-10.0829 -14.4775 0)
(-12.2361 -11.224 0)
(-13.9603 -7.63284 0)
(-15.1843 -3.90413 0)
(-15.9565 -0.204329 0)
(-16.3667 3.44573 0)
(-16.3537 6.97172 0)
(-15.8962 10.2015 0)
(-14.976 12.9759 0)
(-13.5254 15.1384 0)
(-11.4867 16.5356 0)
(-9.03897 17.2866 0)
(-6.30256 17.3693 0)
(-3.41932 16.8054 0)
(-0.505556 15.6654 0)
(2.36849 14.0514 0)
(5.19692 12.0426 0)
(7.9012 9.65703 0)
(10.2108 6.95466 0)
(12.0635 4.25923 0)
(13.4367 1.70394 0)
(14.2879 -0.74494 0)
(14.6102 -3.07868 0)
(14.3928 -5.24946 0)
(13.6202 -7.20185 0)
(12.3946 -8.93398 0)
(10.8011 -10.4577 0)
(8.88913 -11.7428 0)
(6.71902 -12.7226 0)
(4.38063 -13.2947 0)
(2.00088 -13.3671 0)
(-0.311041 -12.913 0)
(-2.4807 -11.9538 0)
(-4.45089 -10.5454 0)
(-6.19488 -8.76225 0)
(-7.69581 -6.68106 0)
(-8.90934 -4.39783 0)
(-9.78262 -2.06366 0)
(-10.4176 0.234311 0)
(-10.7954 2.51542 0)
(-10.8848 4.72689 0)
(-10.6589 6.75688 0)
(-10.0929 8.49772 0)
(-9.13178 9.83169 0)
(-7.78638 10.7008 0)
(-6.17102 11.1554 0)
(-4.3782 11.1712 0)
(-2.49638 10.7656 0)
(-0.60986 9.98763 0)
(1.23588 8.90799 0)
(3.05129 7.58038 0)
(4.80262 6.00283 0)
(6.30917 4.19641 0)
(7.5491 2.39611 0)
(8.50897 0.683443 0)
(9.14921 -0.968516 0)
(9.45343 -2.54272 0)
(9.40054 -3.99152 0)
(8.97672 -5.26454 0)
(8.2007 -6.32395 0)
(7.16421 -7.19942 0)
(5.90005 -7.87588 0)
(4.47545 -8.31783 0)
(2.96636 -8.47503 0)
(1.45106 -8.32198 0)
(-0.0146064 -7.86327 0)
(-1.38933 -7.12721 0)
(-2.65587 -6.1529 0)
(-3.80487 -4.97551 0)
(-4.80625 -3.6276 0)
(-5.58804 -2.18759 0)
(-6.21212 -0.773516 0)
(-6.67741 0.623947 0)
(-6.9705 2.00953 0)
(-7.07073 3.33975 0)
(-6.95316 4.54446 0)
(-6.59709 5.5585 0)
(-5.9534 6.29515 0)
(-5.08907 6.77729 0)
(-4.05273 6.99938 0)
(-2.91092 6.95019 0)
(-1.71824 6.6441 0)
(-0.531541 6.11665 0)
(0.624759 5.41243 0)
(1.76663 4.56379 0)
(2.87872 3.55792 0)
(3.8332 2.40021 0)
(4.64401 1.25984 0)
(5.28992 0.170571 0)
(5.74444 -0.884852 0)
(5.99413 -1.88885 0)
(6.01985 -2.80366 0)
(5.80752 -3.59137 0)
(5.34737 -4.21144 0)
(4.71048 -4.69141 0)
(3.92328 -5.02429 0)
(3.03471 -5.19161 0)
(2.09541 -5.1743 0)
(1.15616 -4.97177 0)
(0.25062 -4.5985 0)
(-0.601189 -4.07926 0)
(-1.40135 -3.43774 0)
(-2.14855 -2.67906 0)
(-2.78922 -1.81174 0)
(-3.31695 -0.932463 0)
(-3.75359 -0.0800102 0)
(-4.0841 0.764764 0)
(-4.29939 1.59628 0)
(-4.38289 2.38156 0)
(-4.31685 3.07912 0)
(-4.08536 3.6505 0)
(-3.66681 4.04811 0)
(-3.11237 4.29959 0)
(-2.448 4.39258 0)
(-1.71735 4.32535 0)
(-0.943502 4.10301 0)
(-0.211206 3.80288 0)
(0.643296 3.34469 0)
(1.29792 2.8954 0)
(2.42392 1.86747 0)
(-0.97502 -16.8535 0)
(-4.60489 -15.8714 0)
(-8.02863 -14.1608 0)
(-11.0929 -11.7847 0)
(-13.7064 -8.93515 0)
(-15.8498 -5.8417 0)
(-17.5112 -2.63977 0)
(-18.6887 0.618938 0)
(-19.3472 3.86133 0)
(-19.4004 6.91937 0)
(-18.7137 9.5551 0)
(-17.2084 11.5886 0)
(-15.0584 13.0559 0)
(-12.3484 13.9646 0)
(-9.23348 14.3175 0)
(-5.88686 14.1276 0)
(-2.43599 13.4609 0)
(1.08762 12.374 0)
(4.61501 10.8215 0)
(7.83287 8.7977 0)
(10.6371 6.70016 0)
(12.8929 4.63674 0)
(14.519 2.61682 0)
(15.5274 0.655239 0)
(15.9625 -1.20379 0)
(15.7758 -2.91927 0)
(15.1217 -4.50756 0)
(14.0468 -5.97618 0)
(12.6083 -7.31999 0)
(10.8516 -8.51787 0)
(8.81938 -9.53839 0)
(6.56601 -10.3312 0)
(4.16869 -10.8046 0)
(1.72175 -10.8796 0)
(-0.721954 -10.5301 0)
(-3.11839 -9.74752 0)
(-5.37788 -8.52776 0)
(-7.39579 -6.93215 0)
(-9.14424 -5.11568 0)
(-10.5884 -3.17787 0)
(-11.7117 -1.16875 0)
(-12.5086 0.882927 0)
(-12.9467 2.90001 0)
(-12.9544 4.76785 0)
(-12.4048 6.34022 0)
(-11.3509 7.56358 0)
(-9.87084 8.44736 0)
(-8.03867 8.99082 0)
(-5.96465 9.18111 0)
(-3.76311 9.02835 0)
(-1.49779 8.57974 0)
(0.821639 7.8574 0)
(3.13064 6.80485 0)
(5.22493 5.4379 0)
(7.05595 4.01793 0)
(8.53929 2.61465 0)
(9.6217 1.23572 0)
(10.3048 -0.102349 0)
(10.6025 -1.35965 0)
(10.4752 -2.49859 0)
(10.0005 -3.51789 0)
(9.22928 -4.41891 0)
(8.20446 -5.20329 0)
(6.96915 -5.86507 0)
(5.56334 -6.38086 0)
(4.03646 -6.71798 0)
(2.44776 -6.83991 0)
(0.847852 -6.72129 0)
(-0.752081 -6.35382 0)
(-2.31686 -5.72323 0)
(-3.75763 -4.81937 0)
(-5.04945 -3.75613 0)
(-6.16489 -2.60272 0)
(-7.07963 -1.3942 0)
(-7.78237 -0.147986 0)
(-8.26225 1.0985 0)
(-8.48623 2.2895 0)
(-8.3962 3.35791 0)
(-7.93276 4.22649 0)
(-7.18128 4.90027 0)
(-6.17143 5.37749 0)
(-4.96338 5.65343 0)
(-3.62404 5.71616 0)
(-2.22099 5.57581 0)
(-0.778636 5.26423 0)
(0.703459 4.78333 0)
(2.16052 4.07597 0)
(3.47474 3.18545 0)
(4.62912 2.27062 0)
(5.56875 1.36606 0)
(6.2607 0.474207 0)
(6.70241 -0.387678 0)
(6.89543 -1.19 0)
(6.80738 -1.90487 0)
(6.48252 -2.52572 0)
(5.95903 -3.05207 0)
(5.26614 -3.48671 0)
(4.43665 -3.82662 0)
(3.50518 -4.05636 0)
(2.51216 -4.16249 0)
(1.49598 -4.1343 0)
(0.474381 -3.96898 0)
(-0.551674 -3.66049 0)
(-1.55153 -3.18412 0)
(-2.4638 -2.55407 0)
(-3.28254 -1.86145 0)
(-3.98278 -1.1388 0)
(-4.54559 -0.394833 0)
(-4.96386 0.359626 0)
(-5.22487 1.09352 0)
(-5.30439 1.77429 0)
(-5.15435 2.3595 0)
(-4.79513 2.8299 0)
(-4.2614 3.18666 0)
(-3.58103 3.42919 0)
(-2.79208 3.55171 0)
(-1.9389 3.55008 0)
(-1.04483 3.44244 0)
(-0.106323 3.23023 0)
(0.847234 2.91879 0)
(1.83513 2.37676 0)
(2.62144 1.92506 0)
(3.68272 1.03492 0)
(-1.99926 -13.0207 0)
(-5.76101 -12.0833 0)
(-9.32452 -10.6037 0)
(-12.5324 -8.64763 0)
(-15.2613 -6.31105 0)
(-17.4455 -3.7149 0)
(-19.0389 -0.992355 0)
(-19.9801 1.69819 0)
(-20.1312 4.18562 0)
(-19.3481 6.30348 0)
(-17.795 8.0076 0)
(-15.5451 9.28026 0)
(-12.7446 10.1274 0)
(-9.57156 10.5697 0)
(-6.19966 10.6502 0)
(-2.72829 10.3905 0)
(0.826959 9.73512 0)
(4.2295 8.53318 0)
(7.29836 7.1839 0)
(9.89956 5.81613 0)
(11.9335 4.42485 0)
(13.3982 3.01391 0)
(14.3319 1.61144 0)
(14.7593 0.253604 0)
(14.6941 -1.03509 0)
(14.2576 -2.27905 0)
(13.4626 -3.48809 0)
(12.3382 -4.62936 0)
(10.9126 -5.6696 0)
(9.21466 -6.58938 0)
(7.27308 -7.37235 0)
(5.12602 -7.98168 0)
(2.8245 -8.34913 0)
(0.406709 -8.38246 0)
(-2.06668 -7.98446 0)
(-4.4822 -7.21333 0)
(-6.74665 -6.16157 0)
(-8.75909 -4.86372 0)
(-10.4448 -3.37167 0)
(-11.7591 -1.75437 0)
(-12.6639 -0.0969839 0)
(-13.1046 1.50383 0)
(-12.9425 2.9429 0)
(-12.2565 4.16625 0)
(-11.0963 5.15504 0)
(-9.52977 5.90644 0)
(-7.65682 6.41653 0)
(-5.58762 6.69664 0)
(-3.40844 6.7603 0)
(-1.15552 6.59397 0)
(1.13392 6.11366 0)
(3.28529 5.31029 0)
(5.21923 4.43034 0)
(6.84321 3.51699 0)
(8.09803 2.56799 0)
(8.98344 1.5918 0)
(9.52044 0.621703 0)
(9.70322 -0.303945 0)
(9.56271 -1.16444 0)
(9.16448 -1.97312 0)
(8.52401 -2.7329 0)
(7.6652 -3.41942 0)
(6.61578 -4.00945 0)
(5.40371 -4.49896 0)
(4.05764 -4.88316 0)
(2.60912 -5.13729 0)
(1.08088 -5.21606 0)
(-0.511732 -5.06072 0)
(-2.09658 -4.63874 0)
(-3.61249 -4.05146 0)
(-4.99113 -3.32244 0)
(-6.17268 -2.4711 0)
(-7.12158 -1.5298 0)
(-7.81295 -0.5435 0)
(-8.22161 0.429164 0)
(-8.28849 1.33047 0)
(-8.00474 2.1199 0)
(-7.42798 2.78554 0)
(-6.58487 3.32483 0)
(-5.52631 3.73639 0)
(-4.31279 4.01475 0)
(-3.00313 4.16452 0)
(-1.63493 4.18265 0)
(-0.215249 4.04285 0)
(1.19655 3.67209 0)
(2.50773 3.15291 0)
(3.67803 2.59192 0)
(4.64718 2.0033 0)
(5.38394 1.3857 0)
(5.89008 0.748332 0)
(6.1747 0.120761 0)
(6.21652 -0.467142 0)
(6.06279 -1.0052 0)
(5.73741 -1.49939 0)
(5.25556 -1.94887 0)
(4.63598 -2.33728 0)
(3.90108 -2.65121 0)
(3.07413 -2.89028 0)
(2.17936 -3.05359 0)
(1.23654 -3.12952 0)
(0.254188 -3.08902 0)
(-0.748335 -2.88389 0)
(-1.71857 -2.53802 0)
(-2.62347 -2.11791 0)
(-3.4166 -1.63403 0)
(-4.06503 -1.09576 0)
(-4.55305 -0.521464 0)
(-4.86847 0.0566069 0)
(-4.9916 0.604429 0)
(-4.88958 1.09318 0)
(-4.61084 1.51756 0)
(-4.16577 1.87569 0)
(-3.58217 2.16928 0)
(-2.89204 2.39248 0)
(-2.12759 2.54044 0)
(-1.3118 2.61364 0)
(-0.44935 2.59933 0)
(0.441731 2.45686 0)
(1.29938 2.17951 0)
(2.1004 1.86108 0)
(2.83646 1.46659 0)
(3.39158 1.13937 0)
(3.943 0.506245 0)
(-3.40653 -9.10684 0)
(-6.68735 -8.34059 0)
(-9.71382 -7.18165 0)
(-12.3416 -5.67564 0)
(-14.4432 -3.91091 0)
(-15.9083 -2.00395 0)
(-16.6759 -0.0949017 0)
(-16.5888 1.66947 0)
(-15.8318 3.22019 0)
(-14.4474 4.54059 0)
(-12.5436 5.60713 0)
(-10.2546 6.39778 0)
(-7.71965 6.93837 0)
(-5.05623 7.26077 0)
(-2.3289 7.33672 0)
(0.401463 7.03938 0)
(2.95833 6.4184 0)
(5.23585 5.72778 0)
(7.1428 4.95694 0)
(8.66496 4.09086 0)
(9.81935 3.1631 0)
(10.6234 2.2037 0)
(11.0981 1.23132 0)
(11.224 0.262483 0)
(11.0805 -0.693475 0)
(10.6612 -1.6333 0)
(9.97105 -2.53615 0)
(9.02031 -3.37801 0)
(7.82362 -4.13912 0)
(6.40073 -4.80391 0)
(4.77335 -5.36057 0)
(2.96595 -5.78122 0)
(1.00074 -5.99918 0)
(-1.0715 -5.89461 0)
(-3.1321 -5.51544 0)
(-5.07959 -4.92693 0)
(-6.81374 -4.13228 0)
(-8.25525 -3.16505 0)
(-9.33911 -2.08259 0)
(-10.0221 -0.951895 0)
(-10.238 0.151561 0)
(-10.0105 1.16244 0)
(-9.40607 2.07029 0)
(-8.46099 2.86881 0)
(-7.2388 3.5293 0)
(-5.81379 4.0412 0)
(-4.25459 4.41488 0)
(-2.61207 4.64758 0)
(-0.920622 4.68705 0)
(0.754217 4.45321 0)
(2.31901 4.0812 0)
(3.70501 3.6407 0)
(4.85907 3.1165 0)
(5.77325 2.51084 0)
(6.44913 1.85508 0)
(6.89224 1.17626 0)
(7.09607 0.496645 0)
(7.07901 -0.165053 0)
(6.87355 -0.804504 0)
(6.48254 -1.41261 0)
(5.91729 -1.97251 0)
(5.1918 -2.47061 0)
(4.32377 -2.89884 0)
(3.33297 -3.25184 0)
(2.23796 -3.52234 0)
(1.0518 -3.68413 0)
(-0.206548 -3.67478 0)
(-1.47136 -3.47788 0)
(-2.68133 -3.16893 0)
(-3.77271 -2.7454 0)
(-4.69905 -2.21522 0)
(-5.42312 -1.60701 0)
(-5.91816 -0.95517 0)
(-6.15725 -0.296967 0)
(-6.1236 0.32758 0)
(-5.87063 0.902948 0)
(-5.41202 1.4291 0)
(-4.7768 1.89221 0)
(-4.00134 2.27534 0)
(-3.12257 2.5781 0)
(-2.17189 2.79977 0)
(-1.17517 2.92125 0)
(-0.150454 2.89912 0)
(0.84959 2.72721 0)
(1.77582 2.49454 0)
(2.58365 2.20711 0)
(3.24999 1.85649 0)
(3.76884 1.45155 0)
(4.13751 1.01605 0)
(4.35778 0.569556 0)
(4.41442 0.130467 0)
(4.34447 -0.290524 0)
(4.14945 -0.691649 0)
(3.83842 -1.0618 0)
(3.42252 -1.38987 0)
(2.91383 -1.66852 0)
(2.32709 -1.89375 0)
(1.67752 -2.06453 0)
(0.977925 -2.17659 0)
(0.237932 -2.21054 0)
(-0.516169 -2.12819 0)
(-1.24295 -1.95641 0)
(-1.91026 -1.72753 0)
(-2.4839 -1.43812 0)
(-2.94272 -1.0963 0)
(-3.27169 -0.721685 0)
(-3.46251 -0.334407 0)
(-3.49242 0.0437411 0)
(-3.39502 0.397503 0)
(-3.17829 0.728225 0)
(-2.85595 1.03288 0)
(-2.44525 1.29988 0)
(-1.96468 1.52361 0)
(-1.42965 1.70017 0)
(-0.852596 1.81711 0)
(-0.244321 1.8508 0)
(0.368668 1.78851 0)
(0.960573 1.67771 0)
(1.49934 1.52385 0)
(1.97172 1.32847 0)
(2.35776 1.04666 0)
(2.6652 0.816038 0)
(2.89935 0.330271 0)
(-3.33318 -6.21166 0)
(-5.52288 -5.67327 0)
(-7.45445 -4.88214 0)
(-9.02584 -3.87978 0)
(-10.1555 -2.72871 0)
(-10.7993 -1.50256 0)
(-10.9004 -0.280477 0)
(-10.5791 0.886658 0)
(-9.86014 1.97378 0)
(-8.80693 2.93422 0)
(-7.4941 3.73668 0)
(-5.99385 4.36656 0)
(-4.37005 4.81949 0)
(-2.67111 5.08824 0)
(-0.94259 5.14854 0)
(0.724702 4.98026 0)
(2.25243 4.6869 0)
(3.60492 4.25491 0)
(4.76591 3.71248 0)
(5.72807 3.09493 0)
(6.48275 2.42664 0)
(7.02502 1.7257 0)
(7.36029 1.00856 0)
(7.46978 0.283102 0)
(7.38546 -0.437151 0)
(7.0993 -1.13756 0)
(6.6134 -1.80565 0)
(5.93553 -2.42723 0)
(5.07896 -2.9871 0)
(4.05957 -3.46998 0)
(2.8968 -3.85573 0)
(1.60936 -4.12523 0)
(0.217217 -4.24715 0)
(-1.20207 -4.14862 0)
(-2.55901 -3.8883 0)
(-3.79465 -3.48374 0)
(-4.85209 -2.94663 0)
(-5.68338 -2.30203 0)
(-6.25569 -1.58328 0)
(-6.54438 -0.827689 0)
(-6.55449 -0.0720632 0)
(-6.33028 0.657983 0)
(-5.88668 1.33865 0)
(-5.25285 1.94338 0)
(-4.46289 2.45142 0)
(-3.55265 2.855 0)
(-2.55397 3.14792 0)
(-1.49486 3.31976 0)
(-0.411558 3.34622 0)
(0.635265 3.23449 0)
(1.59873 3.03077 0)
(2.45424 2.72465 0)
(3.18724 2.34154 0)
(3.78525 1.90456 0)
(4.237 1.43153 0)
(4.53917 0.937971 0)
(4.68618 0.435942 0)
(4.68594 -0.0616174 0)
(4.55079 -0.542186 0)
(4.28162 -0.995886 0)
(3.88688 -1.41436 0)
(3.37755 -1.78812 0)
(2.76751 -2.10757 0)
(2.0718 -2.36478 0)
(1.30477 -2.55055 0)
(0.478505 -2.65218 0)
(-0.376896 -2.63828 0)
(-1.20588 -2.50974 0)
(-1.97195 -2.2973 0)
(-2.64523 -2.00396 0)
(-3.19989 -1.64131 0)
(-3.61443 -1.22573 0)
(-3.87813 -0.776791 0)
(-3.97692 -0.313579 0)
(-3.9341 0.145085 0)
(-3.75793 0.583908 0)
(-3.45918 0.986155 0)
(-3.05364 1.339 0)
(-2.55895 1.63351 0)
(-1.99345 1.86494 0)
(-1.37347 2.0286 0)
(-0.713856 2.11633 0)
(-0.0494682 2.10716 0)
(0.58515 2.02481 0)
(1.16937 1.87352 0)
(1.68699 1.65951 0)
(2.12582 1.39913 0)
(2.47545 1.1056 0)
(2.72821 0.790884 0)
(2.88352 0.465813 0)
(2.93287 0.138374 0)
(2.894 -0.180705 0)
(2.76688 -0.482008 0)
(2.55711 -0.758837 0)
(2.27267 -1.00582 0)
(1.92307 -1.21699 0)
(1.51965 -1.38668 0)
(1.07415 -1.51072 0)
(0.596911 -1.58583 0)
(0.0973937 -1.60707 0)
(-0.400635 -1.56045 0)
(-0.865706 -1.44263 0)
(-1.28259 -1.27713 0)
(-1.6369 -1.07007 0)
(-1.91589 -0.829061 0)
(-2.11084 -0.564042 0)
(-2.21835 -0.286139 0)
(-2.23528 -0.00486039 0)
(-2.17521 0.269421 0)
(-2.04033 0.526413 0)
(-1.83738 0.759077 0)
(-1.57425 0.961631 0)
(-1.2597 1.13025 0)
(-0.902976 1.2599 0)
(-0.514725 1.34236 0)
(-0.109257 1.36394 0)
(0.292335 1.34162 0)
(0.675564 1.27046 0)
(1.02698 1.14816 0)
(1.34653 0.990392 0)
(1.60839 0.77152 0)
(1.83213 0.591492 0)
(1.99358 0.197285 0)
(-2.19907 -4.49487 0)
(-3.57219 -4.13151 0)
(-4.78112 -3.59032 0)
(-5.76968 -2.89645 0)
(-6.4954 -2.08929 0)
(-6.9402 -1.21503 0)
(-7.0855 -0.313081 0)
(-6.96135 0.570381 0)
(-6.58544 1.39145 0)
(-5.98357 2.11727 0)
(-5.19332 2.72595 0)
(-4.25426 3.2025 0)
(-3.20518 3.5433 0)
(-2.08002 3.7527 0)
(-0.918232 3.8255 0)
(0.215669 3.7368 0)
(1.27965 3.50457 0)
(2.25244 3.18586 0)
(3.11245 2.79363 0)
(3.83929 2.34192 0)
(4.42087 1.846 0)
(4.85133 1.32153 0)
(5.13085 0.782334 0)
(5.25304 0.234313 0)
(5.21914 -0.3119 0)
(5.03657 -0.841926 0)
(4.70524 -1.34525 0)
(4.2328 -1.81058 0)
(3.62954 -2.22616 0)
(2.91205 -2.58065 0)
(2.09726 -2.85883 0)
(1.19442 -3.03653 0)
(0.231235 -3.12028 0)
(-0.731402 -3.058 0)
(-1.64436 -2.86887 0)
(-2.4768 -2.58009 0)
(-3.19698 -2.19528 0)
(-3.77653 -1.72978 0)
(-4.19563 -1.20724 0)
(-4.44585 -0.651896 0)
(-4.51387 -0.0861598 0)
(-4.4187 0.461294 0)
(-4.16741 0.967306 0)
(-3.7754 1.41696 0)
(-3.26312 1.79768 0)
(-2.65345 2.0982 0)
(-1.96938 2.31539 0)
(-1.23294 2.44778 0)
(-0.474903 2.4863 0)
(0.269056 2.41279 0)
(0.966148 2.25548 0)
(1.59734 2.03376 0)
(2.14959 1.75841 0)
(2.60751 1.43965 0)
(2.96169 1.08986 0)
(3.20873 0.722234 0)
(3.34686 0.346264 0)
(3.37006 -0.0287801 0)
(3.29193 -0.39185 0)
(3.1117 -0.734559 0)
(2.83643 -1.04942 0)
(2.47534 -1.32973 0)
(2.03895 -1.56917 0)
(1.54023 -1.75961 0)
(0.990053 -1.89086 0)
(0.39918 -1.96207 0)
(-0.204935 -1.95061 0)
(-0.788753 -1.85652 0)
(-1.32914 -1.70304 0)
(-1.80945 -1.49082 0)
(-2.2129 -1.22653 0)
(-2.52543 -0.92197 0)
(-2.73879 -0.591822 0)
(-2.84741 -0.248482 0)
(-2.8479 0.0934371 0)
(-2.75171 0.418614 0)
(-2.56233 0.716714 0)
(-2.29006 0.979322 0)
(-1.94742 1.19889 0)
(-1.54771 1.37085 0)
(-1.10348 1.49331 0)
(-0.627332 1.56221 0)
(-0.143412 1.56459 0)
(0.322951 1.49833 0)
(0.758868 1.38816 0)
(1.15187 1.23623 0)
(1.48988 1.04932 0)
(1.76374 0.835101 0)
(1.96755 0.602649 0)
(2.10022 0.361144 0)
(2.15829 0.116616 0)
(2.14407 -0.123094 0)
(2.06309 -0.349891 0)
(1.91798 -0.558387 0)
(1.71536 -0.743849 0)
(1.46267 -0.902111 0)
(1.16857 -1.02969 0)
(0.842933 -1.12239 0)
(0.494123 -1.17599 0)
(0.13117 -1.18835 0)
(-0.233114 -1.15239 0)
(-0.576109 -1.0643 0)
(-0.884476 -0.943667 0)
(-1.1497 -0.792446 0)
(-1.36355 -0.614954 0)
(-1.51966 -0.418755 0)
(-1.61532 -0.21229 0)
(-1.64653 -0.00324922 0)
(-1.61549 0.200023 0)
(-1.52713 0.391062 0)
(-1.38502 0.565102 0)
(-1.1949 0.717316 0)
(-0.963308 0.843304 0)
(-0.697691 0.940057 0)
(-0.407668 1.00308 0)
(-0.102899 1.02286 0)
(0.20091 0.999366 0)
(0.49396 0.941271 0)
(0.765894 0.849233 0)
(1.01498 0.729071 0)
(1.21672 0.560931 0)
(1.39743 0.413672 0)
(1.51338 0.0960188 0)
(-1.62751 -3.29179 0)
(-2.66821 -3.02108 0)
(-3.59894 -2.62215 0)
(-4.37769 -2.11472 0)
(-4.97095 -1.52684 0)
(-5.35959 -0.890721 0)
(-5.5279 -0.235702 0)
(-5.47497 0.405848 0)
(-5.22255 1.00525 0)
(-4.78377 1.53892 0)
(-4.18682 1.99011 0)
(-3.4622 2.34617 0)
(-2.64207 2.59995 0)
(-1.75716 2.75194 0)
(-0.840826 2.80492 0)
(0.0611001 2.75786 0)
(0.929373 2.602 0)
(1.72511 2.36613 0)
(2.432 2.07896 0)
(3.03617 1.74634 0)
(3.52505 1.37913 0)
(3.89163 0.98891 0)
(4.13344 0.585979 0)
(4.24706 0.176651 0)
(4.22761 -0.230359 0)
(4.08671 -0.625208 0)
(3.82297 -0.998782 0)
(3.44396 -1.34259 0)
(2.95858 -1.64798 0)
(2.38175 -1.90888 0)
(1.73664 -2.11876 0)
(1.00589 -2.26153 0)
(0.230467 -2.29674 0)
(-0.519904 -2.23425 0)
(-1.23828 -2.10022 0)
(-1.89973 -1.88958 0)
(-2.47882 -1.60848 0)
(-2.95309 -1.26967 0)
(-3.30543 -0.889637 0)
(-3.52639 -0.485967 0)
(-3.60645 -0.0748736 0)
(-3.54929 0.325405 0)
(-3.3661 0.697865 0)
(-3.06671 1.03054 0)
(-2.66701 1.31238 0)
(-2.18551 1.53471 0)
(-1.64311 1.69322 0)
(-1.05921 1.78714 0)
(-0.451808 1.81766 0)
(0.149027 1.78091 0)
(0.715627 1.66606 0)
(1.23352 1.50189 0)
(1.69107 1.30035 0)
(2.07398 1.06695 0)
(2.37347 0.810312 0)
(2.58492 0.539501 0)
(2.70857 0.262045 0)
(2.73695 -0.0152144 0)
(2.68004 -0.284005 0)
(2.53832 -0.537605 0)
(2.31718 -0.770218 0)
(2.02408 -0.976904 0)
(1.67013 -1.15326 0)
(1.27084 -1.29628 0)
(0.820824 -1.40083 0)
(0.336345 -1.43976 0)
(-0.146435 -1.42165 0)
(-0.613227 -1.35874 0)
(-1.04807 -1.24826 0)
(-1.43741 -1.09354 0)
(-1.76754 -0.90106 0)
(-2.02663 -0.679686 0)
(-2.20704 -0.43944 0)
(-2.30478 -0.189455 0)
(-2.3135 0.060155 0)
(-2.24363 0.299164 0)
(-2.09694 0.519161 0)
(-1.88163 0.712917 0)
(-1.60784 0.87429 0)
(-1.28669 0.999747 0)
(-0.929482 1.08632 0)
(-0.549344 1.13324 0)
(-0.161252 1.13954 0)
(0.222582 1.10139 0)
(0.579946 1.01764 0)
(0.900774 0.906055 0)
(1.17977 0.769688 0)
(1.40818 0.613708 0)
(1.5804 0.444397 0)
(1.69423 0.267994 0)
(1.74768 0.0890716 0)
(1.74005 -0.0865495 0)
(1.67772 -0.25323 0)
(1.56194 -0.40643 0)
(1.39775 -0.542436 0)
(1.19146 -0.658613 0)
(0.951232 -0.752478 0)
(0.687849 -0.820991 0)
(0.401215 -0.861828 0)
(0.101786 -0.866063 0)
(-0.1919 -0.832532 0)
(-0.46854 -0.772588 0)
(-0.718163 -0.685884 0)
(-0.933569 -0.575351 0)
(-1.10801 -0.445634 0)
(-1.23579 -0.302359 0)
(-1.3143 -0.151413 0)
(-1.33893 0.00121862 0)
(-1.31359 0.150212 0)
(-1.24013 0.290997 0)
(-1.12162 0.418658 0)
(-0.963243 0.529128 0)
(-0.771063 0.619562 0)
(-0.551225 0.688321 0)
(-0.310191 0.734217 0)
(-0.0581748 0.752742 0)
(0.192785 0.731342 0)
(0.435698 0.685073 0)
(0.659544 0.614619 0)
(0.864104 0.520187 0)
(1.02445 0.392494 0)
(1.17319 0.271673 0)
(1.24271 0.0217557 0)
(-1.5162 -2.26728 0)
(-2.43705 -2.07679 0)
(-3.25859 -1.79948 0)
(-3.94554 -1.44966 0)
(-4.46928 -1.04619 0)
(-4.81284 -0.60989 0)
(-4.96142 -0.160646 0)
(-4.91664 0.281054 0)
(-4.69308 0.695107 0)
(-4.30255 1.06419 0)
(-3.76881 1.37527 0)
(-3.11915 1.61948 0)
(-2.3827 1.79196 0)
(-1.59063 1.89116 0)
(-0.773923 1.92138 0)
(0.0355382 1.89297 0)
(0.831336 1.80167 0)
(1.55424 1.63413 0)
(2.19347 1.43731 0)
(2.74087 1.20927 0)
(3.18367 0.955685 0)
(3.51468 0.684937 0)
(3.73055 0.404475 0)
(3.8288 0.120198 0)
(3.8054 -0.161998 0)
(3.67036 -0.436584 0)
(3.42377 -0.696214 0)
(3.07404 -0.933119 0)
(2.63096 -1.1422 0)
(2.10562 -1.32096 0)
(1.51542 -1.46895 0)
(0.875268 -1.5794 0)
(0.207515 -1.56976 0)
(-0.463608 -1.53126 0)
(-1.10038 -1.43966 0)
(-1.68413 -1.29333 0)
(-2.19443 -1.09953 0)
(-2.61165 -0.867091 0)
(-2.9219 -0.606876 0)
(-3.11594 -0.331052 0)
(-3.18662 -0.0507592 0)
(-3.13758 0.222841 0)
(-2.97666 0.478842 0)
(-2.71177 0.706942 0)
(-2.35782 0.899375 0)
(-1.93099 1.05065 0)
(-1.45056 1.1578 0)
(-0.934889 1.22082 0)
(-0.404042 1.23795 0)
(0.126114 1.20733 0)
(0.637661 1.14403 0)
(1.09824 1.02954 0)
(1.50339 0.892388 0)
(1.84386 0.733601 0)
(2.11151 0.558388 0)
(2.30075 0.372783 0)
(2.4101 0.182045 0)
(2.43485 -0.0091011 0)
(2.38226 -0.194666 0)
(2.25382 -0.369358 0)
(2.05503 -0.529129 0)
(1.79335 -0.670271 0)
(1.47613 -0.790791 0)
(1.11121 -0.892055 0)
(0.714127 -0.96202 0)
(0.296405 -0.971501 0)
(-0.132761 -0.968729 0)
(-0.542974 -0.928933 0)
(-0.924866 -0.853479 0)
(-1.26702 -0.747744 0)
(-1.55703 -0.61661 0)
(-1.78489 -0.465887 0)
(-1.94367 -0.302243 0)
(-2.0301 -0.132216 0)
(-2.03888 0.0373997 0)
(-1.97885 0.20039 0)
(-1.85072 0.350782 0)
(-1.66183 0.483557 0)
(-1.42119 0.594642 0)
(-1.1391 0.680109 0)
(-0.82673 0.737642 0)
(-0.496732 0.76682 0)
(-0.161279 0.769621 0)
(0.173273 0.746142 0)
(0.490824 0.69664 0)
(0.771245 0.618218 0)
(1.01512 0.526125 0)
(1.21519 0.420588 0)
(1.36639 0.305455 0)
(1.4664 0.185082 0)
(1.514 0.0632059 0)
(1.50754 -0.0563066 0)
(1.4525 -0.170303 0)
(1.35026 -0.275369 0)
(1.2059 -0.368553 0)
(1.02508 -0.447359 0)
(0.815069 -0.5111 0)
(0.581752 -0.559435 0)
(0.327481 -0.57894 0)
(0.0700015 -0.580693 0)
(-0.182327 -0.563849 0)
(-0.419444 -0.524217 0)
(-0.63388 -0.465204 0)
(-0.818434 -0.390126 0)
(-0.966761 -0.302142 0)
(-1.07418 -0.204932 0)
(-1.13806 -0.102588 0)
(-1.15464 0.00113212 0)
(-1.12864 0.102823 0)
(-1.05969 0.198828 0)
(-0.951273 0.285672 0)
(-0.807925 0.360662 0)
(-0.635157 0.421726 0)
(-0.439147 0.467303 0)
(-0.226993 0.496623 0)
(-0.00757983 0.507854 0)
(0.213201 0.493679 0)
(0.424759 0.461357 0)
(0.616465 0.412912 0)
(0.790292 0.34524 0)
(0.919396 0.257618 0)
(1.04024 0.163732 0)
(1.06373 -0.0177043 0)
(-1.53842 -1.33394 0)
(-2.3994 -1.21898 0)
(-3.16451 -1.05761 0)
(-3.80096 -0.856725 0)
(-4.28322 -0.625739 0)
(-4.59601 -0.375983 0)
(-4.72696 -0.118353 0)
(-4.67918 0.136162 0)
(-4.46221 0.375727 0)
(-4.0878 0.590296 0)
(-3.57784 0.77313 0)
(-2.95842 0.918605 0)
(-2.25761 1.02277 0)
(-1.50415 1.08446 0)
(-0.727768 1.10666 0)
(0.0350826 1.10066 0)
(0.797909 1.0735 0)
(1.49248 0.969517 0)
(2.09684 0.853111 0)
(2.61562 0.720433 0)
(3.03674 0.574356 0)
(3.3508 0.418804 0)
(3.5536 0.257162 0)
(3.64136 0.0924071 0)
(3.61317 -0.0730071 0)
(3.47538 -0.234066 0)
(3.22945 -0.385815 0)
(2.8854 -0.525405 0)
(2.45402 -0.64884 0)
(1.94795 -0.752561 0)
(1.38176 -0.840349 0)
(0.79245 -0.902255 0)
(0.168704 -0.932972 0)
(-0.472201 -0.90582 0)
(-1.06364 -0.845101 0)
(-1.6047 -0.757299 0)
(-2.07676 -0.644773 0)
(-2.46151 -0.511549 0)
(-2.74575 -0.363019 0)
(-2.92166 -0.205454 0)
(-2.98293 -0.0443323 0)
(-2.93345 0.113847 0)
(-2.77897 0.261991 0)
(-2.52756 0.394743 0)
(-2.19242 0.508036 0)
(-1.78931 0.598276 0)
(-1.33573 0.663418 0)
(-0.851234 0.702572 0)
(-0.36206 0.719065 0)
(0.136514 0.726161 0)
(0.626237 0.682995 0)
(1.05408 0.608641 0)
(1.43003 0.528306 0)
(1.74713 0.436559 0)
(1.99618 0.335652 0)
(2.17213 0.228751 0)
(2.2726 0.119145 0)
(2.29371 0.00903111 0)
(2.24116 -0.0988285 0)
(2.11658 -0.201074 0)
(1.92508 -0.294767 0)
(1.67389 -0.377686 0)
(1.37197 -0.44874 0)
(1.03174 -0.509104 0)
(0.666969 -0.555114 0)
(0.264745 -0.591284 0)
(-0.144387 -0.579289 0)
(-0.518973 -0.547176 0)
(-0.870681 -0.500082 0)
(-1.18675 -0.437838 0)
(-1.45434 -0.362169 0)
(-1.66421 -0.276018 0)
(-1.81039 -0.182761 0)
(-1.88905 -0.0857595 0)
(-1.89678 0.0119514 0)
(-1.83983 0.106584 0)
(-1.71976 0.193838 0)
(-1.54338 0.270928 0)
(-1.31916 0.33583 0)
(-1.05645 0.386876 0)
(-0.765625 0.422461 0)
(-0.459251 0.442031 0)
(-0.152929 0.447706 0)
(0.156593 0.448385 0)
(0.455056 0.414471 0)
(0.712187 0.363697 0)
(0.93567 0.309799 0)
(1.12002 0.249232 0)
(1.25946 0.18356 0)
(1.35138 0.114754 0)
(1.39399 0.0447874 0)
(1.38702 -0.0246552 0)
(1.3346 -0.0911128 0)
(1.23829 -0.152217 0)
(1.10281 -0.206557 0)
(0.933735 -0.252875 0)
(0.738676 -0.291445 0)
(0.52517 -0.32559 0)
(0.286773 -0.346442 0)
(0.0439608 -0.347273 0)
(-0.184867 -0.33258 0)
(-0.39989 -0.307381 0)
(-0.595009 -0.272746 0)
(-0.762603 -0.229593 0)
(-0.896711 -0.179412 0)
(-0.993133 -0.124118 0)
(-1.04916 -0.0657711 0)
(-1.0625 -0.00611892 0)
(-1.03576 0.0527122 0)
(-0.969136 0.108361 0)
(-0.865988 0.159055 0)
(-0.730724 0.203183 0)
(-0.568655 0.239168 0)
(-0.386009 0.26576 0)
(-0.190684 0.283119 0)
(0.00959596 0.294102 0)
(0.217126 0.290059 0)
(0.411004 0.269915 0)
(0.583234 0.239634 0)
(0.735818 0.19918 0)
(0.845951 0.147619 0)
(0.945946 0.0850414 0)
(0.935181 -0.0183716 0)
(-1.07109 -0.430316 0)
(-1.92908 -0.39068 0)
(-2.70306 -0.338833 0)
(-3.36271 -0.275949 0)
(-3.88322 -0.204491 0)
(-4.24701 -0.127657 0)
(-4.44435 -0.0476839 0)
(-4.47106 0.0324208 0)
(-4.33149 0.108041 0)
(-4.04117 0.176014 0)
(-3.6156 0.234346 0)
(-3.07713 0.281299 0)
(-2.4503 0.315961 0)
(-1.76073 0.338014 0)
(-1.03288 0.346251 0)
(-0.294589 0.34635 0)
(0.411996 0.354436 0)
(1.06726 0.31395 0)
(1.67621 0.27551 0)
(2.21153 0.233493 0)
(2.65901 0.187758 0)
(3.0091 0.13941 0)
(3.25564 0.0892754 0)
(3.39505 0.0378612 0)
(3.42413 -0.0137906 0)
(3.34532 -0.064322 0)
(3.16218 -0.11282 0)
(2.87903 -0.158392 0)
(2.50455 -0.198953 0)
(2.04896 -0.232869 0)
(1.52427 -0.256939 0)
(0.956699 -0.270767 0)
(0.383857 -0.31386 0)
(-0.19022 -0.291085 0)
(-0.768646 -0.270776 0)
(-1.30721 -0.241323 0)
(-1.78405 -0.205404 0)
(-2.18281 -0.163776 0)
(-2.49045 -0.117898 0)
(-2.69826 -0.0693223 0)
(-2.80115 -0.019376 0)
(-2.79711 0.0299514 0)
(-2.69202 0.0764827 0)
(-2.49205 0.118606 0)
(-2.20855 0.154735 0)
(-1.85465 0.183909 0)
(-1.4451 0.205782 0)
(-0.99528 0.219732 0)
(-0.518281 0.229598 0)
(-0.0658146 0.247515 0)
(0.373632 0.224477 0)
(0.800277 0.196608 0)
(1.18436 0.170234 0)
(1.51455 0.141296 0)
(1.78291 0.110154 0)
(1.9838 0.0773343 0)
(2.11389 0.0434159 0)
(2.17133 0.00889035 0)
(2.15584 -0.0252335 0)
(2.07022 -0.0576245 0)
(1.91781 -0.0876505 0)
(1.70426 -0.114562 0)
(1.43641 -0.137475 0)
(1.1207 -0.156224 0)
(0.765379 -0.173836 0)
(0.419675 -0.212584 0)
(0.0692251 -0.190432 0)
(-0.301411 -0.176025 0)
(-0.651956 -0.15946 0)
(-0.968956 -0.139133 0)
(-1.24266 -0.115399 0)
(-1.46437 -0.0887348 0)
(-1.62802 -0.0600019 0)
(-1.72957 -0.0301561 0)
(-1.76644 0.000157075 0)
(-1.73963 0.0296588 0)
(-1.65208 0.0569924 0)
(-1.50889 0.081422 0)
(-1.31714 0.102167 0)
(-1.08522 0.118803 0)
(-0.822447 0.13082 0)
(-0.537637 0.138032 0)
(-0.238627 0.143057 0)
(0.0392839 0.154666 0)
(0.306948 0.133772 0)
(0.566056 0.116535 0)
(0.794626 0.099238 0)
(0.986617 0.0803049 0)
(1.13772 0.0600257 0)
(1.24482 0.0388216 0)
(1.30642 0.017112 0)
(1.32136 -0.00455604 0)
(1.29133 -0.0254407 0)
(1.21826 -0.0449796 0)
(1.10573 -0.0625205 0)
(0.958004 -0.0776926 0)
(0.779308 -0.0901736 0)
(0.572867 -0.101046 0)
(0.365433 -0.120273 0)
(0.153309 -0.116266 0)
(-0.0668287 -0.106631 0)
(-0.279921 -0.0983703 0)
(-0.47552 -0.0869144 0)
(-0.646914 -0.0733328 0)
(-0.788587 -0.0578362 0)
(-0.896134 -0.0408765 0)
(-0.966657 -0.0229066 0)
(-0.998091 -0.00431313 0)
(-0.990214 0.0141895 0)
(-0.944191 0.0317265 0)
(-0.862201 0.0477882 0)
(-0.747793 0.0619094 0)
(-0.605477 0.0736608 0)
(-0.440686 0.0825903 0)
(-0.259204 0.0880955 0)
(-0.0705079 0.091712 0)
(0.117554 0.0965646 0)
(0.295909 0.0872762 0)
(0.465042 0.0767159 0)
(0.613692 0.0638649 0)
(0.731649 0.0469184 0)
(0.817637 0.0285613 0)
(0.82681 -0.00139731 0)
(0.935892 -29.8168 0)
(1.28998 -27.234 0)
(1.46253 -23.5872 0)
(1.43034 -19.008 0)
(1.18115 -13.8883 0)
(0.758743 -8.87235 0)
(0.330106 -4.64089 0)
(0.0689202 -1.90713 0)
(-0.241805 2.48895 0)
(-0.737494 7.76712 0)
(-1.11944 12.0244 0)
(-1.37915 15.807 0)
(-1.52098 19.0113 0)
(-1.56716 21.6411 0)
(-1.44009 23.693 0)
(-1.14007 24.9949 0)
(-0.743757 24.9585 0)
(-0.355861 23.9579 0)
(0.0274135 22.0069 0)
(0.377066 19.1441 0)
(0.655119 15.4943 0)
(0.808249 11.4095 0)
(0.756992 7.39299 0)
(0.486618 3.92981 0)
(0.278922 1.49136 0)
(0.323755 -1.57918 0)
(0.34141 -6.14623 0)
(0.204556 -9.67093 0)
(0.0679892 -12.8019 0)
(-0.0198337 -15.481 0)
(-0.057321 -17.7164 0)
(-0.0180709 -19.4826 0)
(0.138252 -20.5426 0)
(0.360642 -20.4162 0)
(0.542007 -19.4617 0)
(0.665389 -17.7341 0)
(0.709305 -15.3126 0)
(0.662355 -12.3061 0)
(0.517956 -8.9611 0)
(0.310325 -5.69038 0)
(0.116175 -2.93666 0)
(0.00495009 -1.21816 0)
(-0.132635 1.78567 0)
(-0.379308 5.22111 0)
(-0.596645 7.97547 0)
(-0.763947 10.3953 0)
(-0.875422 12.4265 0)
(-0.913639 14.0822 0)
(-0.897738 15.3424 0)
(-0.772927 16.0481 0)
(-0.582421 15.9463 0)
(-0.387098 15.2379 0)
(-0.194097 13.9083 0)
(-0.0122779 12.0081 0)
(0.143036 9.65724 0)
(0.247746 7.04739 0)
(0.246092 4.49797 0)
(0.130254 2.36527 0)
(0.0957723 0.939222 0)
(0.185897 -1.39849 0)
(0.220278 -4.09137 0)
(0.187141 -6.31836 0)
(0.157889 -8.26538 0)
(0.144512 -9.91817 0)
(0.148126 -11.2934 0)
(0.184258 -12.358 0)
(0.275673 -12.9149 0)
(0.3783 -12.7705 0)
(0.446433 -12.1231 0)
(0.480388 -10.9825 0)
(0.473621 -9.39623 0)
(0.419308 -7.47844 0)
(0.317806 -5.3989 0)
(0.193632 -3.39101 0)
(0.0763313 -1.74864 0)
(0.0327072 -0.742493 0)
(-0.0574965 1.42559 0)
(-0.19464 3.45086 0)
(-0.327666 5.1367 0)
(-0.434712 6.61435 0)
(-0.511722 7.84983 0)
(-0.552901 8.85163 0)
(-0.547712 9.59893 0)
(-0.487628 9.95182 0)
(-0.394479 9.8293 0)
(-0.29437 9.34103 0)
(-0.191866 8.48313 0)
(-0.0933089 7.28009 0)
(-0.00576161 5.81186 0)
(0.0612096 4.22587 0)
(0.0776028 2.69334 0)
(0.0300821 1.39565 0)
(0.0274962 0.477617 0)
(0.0861526 -1.00205 0)
(0.120596 -2.56563 0)
(0.122299 -3.89648 0)
(0.125641 -5.05271 0)
(0.13602 -6.03045 0)
(0.153917 -6.83775 0)
(0.186268 -7.45251 0)
(0.241176 -7.73599 0)
(0.292306 -7.60817 0)
(0.331019 -7.18182 0)
(0.346683 -6.46155 0)
(0.339313 -5.47233 0)
(0.306234 -4.28929 0)
(0.244018 -3.04231 0)
(0.168299 -1.88147 0)
(0.0824793 -0.948913 0)
(0.0706722 -0.271663 0)
(0.00745738 1.16406 0)
(-0.0797356 2.28545 0)
(-0.163533 3.29009 0)
(-0.232995 4.1697 0)
(-0.285139 4.90816 0)
(-0.313722 5.50974 0)
(-0.310354 5.95245 0)
(-0.271093 6.16643 0)