/*--------------------------------*- C++ -*----------------------------------*\
| =========                 |                                                 |
| \\      /  F ield         | OpenFOAM: The Open Source CFD Toolbox           |
|  \\    /   O peration     | Version:  2206                                  |
|   \\  /    A nd           | Website:  www.openfoam.com                      |
|    \\/     M anipulation  |                                                 |
\*---------------------------------------------------------------------------*/
FoamFile
{
    version     2.0;
    format      ascii;
    arch        "LSB;label=32;scalar=64";
    class       surfaceScalarField;
    location    "18.6";
    object      phi;
}
// * * * * * * * * * * * * * * * * * * * * * * * * * * * * * * * * * * * * * //

dimensions      [0 3 -1 0 0 0 0];

oriented        oriented;

internalField   nonuniform List<scalar> 
5978
(
9.25385e-06
-2.51176e-07
2.2752e-07
9.26716e-06
-3.94146e-07
3.80836e-07
9.26979e-06
-5.2221e-07
5.19583e-07
9.26179e-06
-6.32834e-07
6.40833e-07
9.24355e-06
-7.24396e-07
7.42629e-07
9.21567e-06
-7.96137e-07
8.24017e-07
9.1785e-06
-8.47603e-07
8.84773e-07
9.132e-06
-8.78254e-07
9.24755e-07
9.0768e-06
-8.88393e-07
9.43589e-07
9.01485e-06
-8.79836e-07
9.41795e-07
8.94827e-06
-8.5464e-07
9.21213e-07
8.87938e-06
-8.14729e-07
8.83622e-07
8.81046e-06
-7.61774e-07
8.3069e-07
8.74361e-06
-6.97104e-07
7.6396e-07
8.68057e-06
-6.21741e-07
6.84783e-07
8.62276e-06
-5.36531e-07
5.94333e-07
8.57134e-06
-4.42324e-07
4.93747e-07
8.5272e-06
-3.40148e-07
3.84284e-07
8.49109e-06
-2.31348e-07
2.67467e-07
8.46359e-06
-1.17778e-07
1.45271e-07
8.44511e-06
-2.04837e-09
2.05348e-08
8.43552e-06
1.13262e-07
-1.03674e-07
8.43452e-06
2.25727e-07
-2.24733e-07
8.44161e-06
3.32927e-07
-3.40017e-07
8.45609e-06
4.32563e-07
-4.47036e-07
8.47708e-06
5.22568e-07
-5.43565e-07
8.50364e-06
6.01204e-07
-6.27758e-07
8.53476e-06
6.67121e-07
-6.98242e-07
8.56958e-06
7.19318e-07
-7.54142e-07
8.60757e-06
7.56979e-07
-7.94961e-07
8.64862e-06
7.79105e-07
-8.20161e-07
8.69264e-06
7.8439e-07
-8.28412e-07
8.73891e-06
7.72012e-07
-8.18281e-07
8.78666e-06
7.41696e-07
-7.89443e-07
8.83506e-06
6.93577e-07
-7.41978e-07
8.88333e-06
6.28366e-07
-6.7663e-07
8.93072e-06
5.47262e-07
-5.94657e-07
8.97652e-06
4.51924e-07
-4.97723e-07
9.01993e-06
3.44543e-07
-3.87949e-07
9.05993e-06
2.28028e-07
-2.6803e-07
9.09503e-06
1.06469e-07
-1.41568e-07
9.12379e-06
-1.52109e-08
-1.35532e-08
9.14542e-06
-1.33212e-07
1.11588e-07
9.15932e-06
-2.44293e-07
2.30386e-07
9.16501e-06
-3.45523e-07
3.39834e-07
9.16265e-06
-4.35373e-07
4.3774e-07
9.15263e-06
-5.12677e-07
5.22688e-07
9.13503e-06
-5.75746e-07
5.9335e-07
9.11029e-06
-6.24227e-07
6.48971e-07
9.07853e-06
-6.57606e-07
6.89366e-07
9.03991e-06
-6.75587e-07
7.14208e-07
8.99539e-06
-6.78756e-07
7.23268e-07
8.94655e-06
-6.68344e-07
7.17189e-07
8.89499e-06
-6.456e-07
6.97161e-07
8.84241e-06
-6.11736e-07
6.64314e-07
8.79047e-06
-5.67867e-07
6.19805e-07
8.74065e-06
-5.14984e-07
5.64801e-07
8.69421e-06
-4.53967e-07
5.00409e-07
8.65218e-06
-3.85655e-07
4.2769e-07
8.61538e-06
-3.10945e-07
3.47746e-07
8.58447e-06
-2.30898e-07
2.61802e-07
8.56002e-06
-1.46883e-07
1.71337e-07
8.54242e-06
-6.07397e-08
7.83383e-08
8.53168e-06
2.56247e-08
-1.48865e-08
8.52764e-06
1.10445e-07
-1.06402e-07
8.52998e-06
1.91962e-07
-1.94305e-07
8.53827e-06
2.6849e-07
-2.76777e-07
8.55194e-06
3.38489e-07
-3.52157e-07
8.57033e-06
4.00623e-07
-4.19019e-07
8.59276e-06
4.5381e-07
-4.76242e-07
8.61859e-06
4.97207e-07
-5.23036e-07
8.64735e-06
5.30125e-07
-5.5888e-07
8.67885e-06
5.51843e-07
-5.8334e-07
8.71303e-06
5.61481e-07
-5.95668e-07
8.7495e-06
5.58327e-07
-5.94797e-07
8.78767e-06
5.42135e-07
-5.80299e-07
8.82689e-06
5.12853e-07
-5.52075e-07
8.86649e-06
4.70835e-07
-5.10438e-07
8.90581e-06
4.16841e-07
-4.5616e-07
8.94417e-06
3.52002e-07
-3.90361e-07
8.98085e-06
2.77842e-07
-3.14516e-07
9.015e-06
1.96348e-07
-2.30497e-07
9.04552e-06
1.10171e-07
-1.40691e-07
9.07118e-06
2.27075e-08
-4.83756e-08
9.09134e-06
-6.32599e-08
4.31026e-08
9.10549e-06
-1.45449e-07
1.31303e-07
9.11332e-06
-2.21893e-07
2.14055e-07
9.11491e-06
-2.91131e-07
2.89543e-07
9.11024e-06
-3.5172e-07
3.56387e-07
9.09956e-06
-4.02555e-07
4.13236e-07
9.08336e-06
-4.43175e-07
4.5938e-07
9.06179e-06
-4.73241e-07
4.94807e-07
9.03497e-06
-4.92364e-07
5.19183e-07
9.00335e-06
-5.00513e-07
5.3214e-07
8.96793e-06
-4.9825e-07
5.33664e-07
8.92985e-06
-4.86286e-07
5.24365e-07
8.8903e-06
-4.65355e-07
5.04906e-07
8.85052e-06
-4.36205e-07
4.75992e-07
8.81166e-06
-3.99586e-07
4.38445e-07
8.77475e-06
-3.56238e-07
3.93144e-07
8.74067e-06
-3.06886e-07
3.40967e-07
8.71013e-06
-2.52279e-07
2.82814e-07
8.68373e-06
-1.93256e-07
2.19661e-07
8.66194e-06
-1.3082e-07
1.52613e-07
8.64516e-06
-6.6264e-08
8.30387e-08
8.63353e-06
-1.04454e-09
1.26751e-08
8.62698e-06
6.35367e-08
-5.69815e-08
8.62533e-06
1.26181e-07
-1.24531e-07
8.62832e-06
1.85634e-07
-1.88624e-07
8.63559e-06
2.40726e-07
-2.47995e-07
8.64669e-06
2.90423e-07
-3.01532e-07
8.66116e-06
3.33856e-07
-3.48319e-07
8.67849e-06
3.7034e-07
-3.87668e-07
8.69826e-06
3.99344e-07
-4.19122e-07
8.72025e-06
4.20379e-07
-4.42362e-07
8.74439e-06
4.32892e-07
-4.57038e-07
8.77059e-06
4.36273e-07
-4.62473e-07
8.79844e-06
4.30327e-07
-4.58174e-07
8.82747e-06
4.14564e-07
-4.43593e-07
8.85722e-06
3.90889e-07
-4.20647e-07
8.88715e-06
3.52427e-07
-3.82352e-07
8.91717e-06
3.19973e-07
-3.49989e-07
2.3471e-07
-2.62186e-07
9.29576e-06
-2.73404e-07
9.30545e-06
-4.03837e-07
9.30266e-06
-5.19421e-07
9.28786e-06
-6.18027e-07
9.26155e-06
-6.98088e-07
9.22411e-06
-7.58699e-07
9.17557e-06
-7.99056e-07
9.11657e-06
-8.19254e-07
9.0491e-06
-8.20926e-07
8.97553e-06
-8.06271e-07
8.89838e-06
-7.77483e-07
8.82015e-06
-7.36501e-07
8.74322e-06
-6.84846e-07
8.66966e-06
-6.23546e-07
8.60117e-06
-5.5325e-07
8.53908e-06
-4.74437e-07
8.48441e-06
-3.87654e-07
8.43797e-06
-2.9371e-07
8.40042e-06
-1.93796e-07
8.37231e-06
-8.96642e-08
8.35384e-06
1.64184e-08
8.34488e-06
1.22221e-07
8.34511e-06
2.25501e-07
8.35401e-06
3.24027e-07
8.37089e-06
4.15677e-07
8.39493e-06
4.98528e-07
8.42522e-06
5.70922e-07
8.46084e-06
6.31499e-07
8.50105e-06
6.79109e-07
8.54538e-06
7.12649e-07
8.59355e-06
7.30933e-07
8.64502e-06
7.32917e-07
8.69895e-06
7.18087e-07
8.75446e-06
6.8618e-07
8.81065e-06
6.37391e-07
8.86658e-06
5.72438e-07
8.92132e-06
4.9252e-07
8.97389e-06
3.99356e-07
9.02313e-06
2.95305e-07
9.06749e-06
1.8366e-07
9.10506e-06
6.89058e-08
9.13458e-06
-4.47359e-08
9.15533e-06
-1.53959e-07
9.16682e-06
-2.55784e-07
9.16948e-06
-3.48186e-07
9.16324e-06
-4.29132e-07
9.1476e-06
-4.97037e-07
9.12308e-06
-5.51226e-07
9.09001e-06
-5.91158e-07
9.04874e-06
-6.16334e-07
9.00035e-06
-6.27197e-07
8.94652e-06
-6.24932e-07
8.88905e-06
-6.10872e-07
8.82977e-06
-5.8632e-07
8.77049e-06
-5.52451e-07
8.71287e-06
-5.10252e-07
8.65839e-06
-4.60502e-07
8.60825e-06
-4.03831e-07
8.56343e-06
-3.4083e-07
8.52468e-06
-2.72192e-07
8.4926e-06
-1.98826e-07
8.46771e-06
-1.21992e-07
8.45024e-06
-4.32686e-08
8.44014e-06
3.57284e-08
8.43721e-06
1.13369e-07
8.44114e-06
1.88029e-07
8.45148e-06
2.5815e-07
8.46767e-06
3.22299e-07
8.48908e-06
3.79216e-07
8.51507e-06
4.27823e-07
8.54508e-06
4.67198e-07
8.57873e-06
4.96476e-07
8.61578e-06
5.14784e-07
8.65589e-06
5.2137e-07
8.69843e-06
5.15791e-07
8.74276e-06
4.97807e-07
8.78816e-06
4.67448e-07
8.83388e-06
4.25123e-07
8.8791e-06
3.71618e-07
8.92298e-06
3.0812e-07
8.96456e-06
2.3626e-07
9.00265e-06
1.58261e-07
9.03574e-06
7.7084e-08
9.06272e-06
-4.27893e-09
9.08295e-06
-8.34916e-08
9.09599e-06
-1.58489e-07
9.10165e-06
-2.27549e-07
9.09981e-06
-2.89295e-07
9.09069e-06
-3.42596e-07
9.07475e-06
-3.86614e-07
9.05231e-06
-4.20734e-07
9.02358e-06
-4.44509e-07
8.98914e-06
-4.57929e-07
8.9501e-06
-4.61474e-07
8.90771e-06
-4.55852e-07
8.86325e-06
-4.4183e-07
8.81806e-06
-4.20161e-07
8.7734e-06
-3.91547e-07
8.73045e-06
-3.56638e-07
8.69023e-06
-3.16017e-07
8.65358e-06
-2.7024e-07
8.6212e-06
-2.19896e-07
8.59364e-06
-1.65693e-07
8.57135e-06
-1.08535e-07
8.55463e-06
-4.9541e-08
8.54348e-06
1.00994e-08
8.53783e-06
6.91941e-08
8.53746e-06
1.26546e-07
8.5421e-06
1.80991e-07
8.55138e-06
2.31446e-07
8.56487e-06
2.76939e-07
8.58209e-06
3.16632e-07
8.60262e-06
3.49813e-07
8.62611e-06
3.75849e-07
8.65238e-06
3.94111e-07
8.68123e-06
4.04045e-07
8.71228e-06
4.05217e-07
8.74508e-06
3.97529e-07
8.77909e-06
3.80561e-07
8.81383e-06
3.56143e-07
8.84862e-06
3.17644e-07
8.88334e-06
2.85244e-07
2.0353e-07
9.32653e-06
-2.92558e-07
9.33109e-06
-4.08393e-07
9.32168e-06
-5.10012e-07
9.29921e-06
-5.95564e-07
9.26365e-06
-6.62525e-07
9.21501e-06
-7.10058e-07
9.15401e-06
-7.3806e-07
9.08268e-06
-7.47926e-07
9.00362e-06
-7.41864e-07
8.9196e-06
-7.22254e-07
8.83342e-06
-6.91294e-07
8.74767e-06
-6.50759e-07
8.66474e-06
-6.01913e-07
8.58659e-06
-5.45392e-07
8.51473e-06
-4.81398e-07
8.45033e-06
-4.10029e-07
8.39422e-06
-3.3155e-07
8.3471e-06
-2.46593e-07
8.30955e-06
-1.56242e-07
8.28198e-06
-6.20943e-08
8.26448e-06
3.39228e-08
8.2569e-06
1.29801e-07
8.25892e-06
2.23474e-07
8.27006e-06
3.12888e-07
8.28966e-06
3.96081e-07
8.31693e-06
4.71252e-07
8.35106e-06
5.36794e-07
8.39126e-06
5.91299e-07
8.4369e-06
6.3347e-07
8.48749e-06
6.62058e-07
8.54245e-06
6.75976e-07
8.60091e-06
6.74459e-07
8.66197e-06
6.57022e-07
8.72468e-06
6.23475e-07
8.78798e-06
5.74088e-07
8.8508e-06
5.09613e-07
8.91201e-06
4.31315e-07
8.9703e-06
3.41063e-07
9.02409e-06
2.41517e-07
9.07123e-06
1.36516e-07
9.10991e-06
3.02263e-08
9.13908e-06
-7.38985e-08
9.15793e-06
-1.7281e-07
9.16636e-06
-2.64213e-07
9.16436e-06
-3.46192e-07
9.15179e-06
-4.1656e-07
9.12884e-06
-4.74083e-07
9.09589e-06
-5.18277e-07
9.05334e-06
-5.48606e-07
9.00236e-06
-5.65359e-07
8.94477e-06
-5.69605e-07
8.88253e-06
-5.62696e-07
8.81766e-06
-5.45997e-07
8.7521e-06
-5.20761e-07
8.68768e-06
-4.88027e-07
8.62604e-06
-4.48613e-07
8.56857e-06
-4.03036e-07
8.51638e-06
-3.51644e-07
8.47033e-06
-2.94777e-07
8.43107e-06
-2.32927e-07
8.3991e-06
-1.66858e-07
8.37478e-06
-9.76771e-08
8.35823e-06
-2.67163e-08
8.34939e-06
4.45726e-08
8.34806e-06
1.14693e-07
8.35394e-06
1.8215e-07
8.36659e-06
2.45501e-07
8.38549e-06
3.034e-07
8.41008e-06
3.54631e-07
8.4398e-06
3.98101e-07
8.4742e-06
4.32799e-07
8.5129e-06
4.57774e-07
8.55545e-06
4.72229e-07
8.60124e-06
4.75588e-07
8.64957e-06
4.67455e-07
8.69974e-06
4.47638e-07
8.75093e-06
4.16255e-07
8.80227e-06
3.73782e-07
8.85281e-06
3.2108e-07
8.90147e-06
2.59458e-07
8.94695e-06
1.90787e-07
8.98754e-06
1.17673e-07
9.0217e-06
4.29173e-08
9.04852e-06
-3.10997e-08
9.06735e-06
-1.02318e-07
9.07782e-06
-1.68962e-07
9.07984e-06
-2.29571e-07
9.07353e-06
-2.82985e-07
9.05919e-06
-3.28255e-07
9.03713e-06
-3.64552e-07
9.00766e-06
-3.91266e-07
8.97152e-06
-4.08369e-07
8.92988e-06
-4.16292e-07
8.88412e-06
-4.15711e-07
8.83566e-06
-4.0739e-07
8.78592e-06
-3.92086e-07
8.73626e-06
-3.70501e-07
8.68795e-06
-3.43245e-07
8.64217e-06
-3.10851e-07
8.59988e-06
-2.73728e-07
8.56188e-06
-2.32241e-07
8.52879e-06
-1.86811e-07
8.5011e-06
-1.38003e-07
8.47915e-06
-8.65785e-08
8.46307e-06
-3.34656e-08
8.45288e-06
2.02898e-08
8.44848e-06
7.35956e-08
8.44967e-06
1.25352e-07
8.45618e-06
1.74485e-07
8.46764e-06
2.19982e-07
8.48367e-06
2.60917e-07
8.50384e-06
2.96459e-07
8.5278e-06
3.25848e-07
8.55527e-06
3.48381e-07
8.58595e-06
3.63434e-07
8.61942e-06
3.7057e-07
8.65521e-06
3.69433e-07
8.69277e-06
3.59965e-07
8.73151e-06
3.41821e-07
8.77095e-06
3.16704e-07
8.81011e-06
2.7848e-07
8.84885e-06
2.46509e-07
1.69639e-07
9.34221e-06
-3.0623e-07
9.34108e-06
-4.07258e-07
9.32517e-06
-4.94108e-07
9.29349e-06
-5.63882e-07
9.24652e-06
-6.15555e-07
9.18518e-06
-6.48717e-07
9.11154e-06
-6.64422e-07
9.02845e-06
-6.64829e-07
8.93899e-06
-6.5241e-07
8.84629e-06
-6.29547e-07
8.75328e-06
-5.98289e-07
8.66265e-06
-5.60129e-07
8.57651e-06
-5.15776e-07
8.49641e-06
-4.65289e-07
8.42353e-06
-4.08518e-07
8.35883e-06
-3.45324e-07
8.30305e-06
-2.75773e-07
8.25679e-06
-2.00338e-07
8.22053e-06
-1.19976e-07
8.19452e-06
-3.60874e-08
8.17882e-06
4.96227e-08
8.1733e-06
1.35319e-07
8.17767e-06
2.19105e-07
8.19147e-06
2.99086e-07
8.21412e-06
3.73439e-07
8.24491e-06
4.4046e-07
8.28313e-06
4.98576e-07
8.32811e-06
5.46321e-07
8.37924e-06
5.82331e-07
8.43586e-06
6.05441e-07
8.49709e-06
6.14746e-07
8.562e-06
6.09555e-07
8.62959e-06
5.89423e-07
8.6988e-06
5.54265e-07
8.76846e-06
5.0443e-07
8.83732e-06
4.40759e-07
8.90396e-06
3.6467e-07
8.96671e-06
2.78312e-07
9.02329e-06
1.84939e-07
9.07138e-06
8.84222e-08
9.10943e-06
-7.82114e-09
9.13637e-06
-1.00841e-07
9.15169e-06
-1.88125e-07
9.15508e-06
-2.67604e-07
9.14636e-06
-3.37468e-07
9.12593e-06
-3.96129e-07
9.0942e-06
-4.42355e-07
9.05153e-06
-4.75612e-07
8.99916e-06
-4.96237e-07
8.939e-06
-5.05191e-07
8.87318e-06
-5.03795e-07
8.80393e-06
-4.93441e-07
8.73335e-06
-4.75418e-07
8.66346e-06
-4.50871e-07
8.59607e-06
-4.20638e-07
8.53264e-06
-3.85182e-07
8.47428e-06
-3.44677e-07
8.42189e-06
-2.99249e-07
8.37617e-06
-2.49062e-07
8.33769e-06
-1.94449e-07
8.30686e-06
-1.36029e-07
8.28392e-06
-7.4739e-08
8.26897e-06
-1.1757e-08
8.26194e-06
5.15999e-08
8.26267e-06
1.13961e-07
8.27087e-06
1.73948e-07
8.28616e-06
2.30218e-07
8.30806e-06
2.81498e-07
8.3361e-06
3.26594e-07
8.36981e-06
3.64386e-07
8.40877e-06
3.93842e-07
8.45244e-06
4.14098e-07
8.50019e-06
4.24482e-07
8.55131e-06
4.24464e-07
8.60507e-06
4.13695e-07
8.66064e-06
3.92068e-07
8.7171e-06
3.59795e-07
8.77343e-06
3.17452e-07
8.82846e-06
2.66054e-07
8.88073e-06
2.07189e-07
8.92835e-06
1.43165e-07
8.96951e-06
7.6517e-08
9.00295e-06
9.47546e-09
9.02782e-06
-5.59665e-08
9.04358e-06
-1.18079e-07
9.05003e-06
-1.7541e-07
9.04722e-06
-2.26769e-07
9.03539e-06
-2.71148e-07
9.01473e-06
-3.07599e-07
8.98559e-06
-3.35409e-07
8.94881e-06
-3.54487e-07
8.90566e-06
-3.65215e-07
8.85762e-06
-3.68251e-07
8.80624e-06
-3.64334e-07
8.75305e-06
-3.542e-07
8.6995e-06
-3.38539e-07
8.64699e-06
-3.17995e-07
8.59679e-06
-2.93045e-07
8.54993e-06
-2.63985e-07
8.50719e-06
-2.30993e-07
8.46924e-06
-1.94288e-07
8.4366e-06
-1.54167e-07
8.40966e-06
-1.11065e-07
8.38868e-06
-6.56009e-08
8.37379e-06
-1.85738e-08
8.36499e-06
2.90852e-08
8.36221e-06
7.63838e-08
8.36525e-06
1.22311e-07
8.37386e-06
1.65872e-07
8.38773e-06
2.06115e-07
8.4065e-06
2.42142e-07
8.42985e-06
2.73116e-07
8.45744e-06
2.98258e-07
8.48891e-06
3.16903e-07
8.52382e-06
3.28528e-07
8.56164e-06
3.3275e-07
8.60185e-06
3.2922e-07
8.64382e-06
3.17998e-07
8.68691e-06
2.98731e-07
8.73054e-06
2.73076e-07
8.77324e-06
2.35781e-07
8.81483e-06
2.04912e-07
1.34413e-07
9.34504e-06
-3.13215e-07
9.33609e-06
-3.98313e-07
9.30978e-06
-4.67798e-07
9.26594e-06
-5.20033e-07
9.20564e-06
-5.55258e-07
9.13109e-06
-5.74168e-07
9.04537e-06
-5.78699e-07
8.95192e-06
-5.71381e-07
8.85422e-06
-5.54714e-07
8.75564e-06
-5.30963e-07
8.65913e-06
-5.01776e-07
8.56686e-06
-4.67869e-07
8.48037e-06
-4.29279e-07
8.40083e-06
-3.85747e-07
8.32919e-06
-3.36887e-07
8.26624e-06
-2.82367e-07
8.21257e-06
-2.22108e-07
8.16868e-06
-1.56447e-07
8.13492e-06
-8.62127e-08
8.1115e-06
-1.26654e-08
8.09847e-06
6.26484e-08
8.09574e-06
1.38048e-07
8.10306e-06
2.11786e-07
8.12004e-06
2.8211e-07
8.14616e-06
3.47314e-07
8.18085e-06
4.05771e-07
8.22349e-06
4.55937e-07
8.27345e-06
4.96361e-07
8.32997e-06
5.2581e-07
8.39218e-06
5.43235e-07
8.45914e-06
5.4778e-07
8.52988e-06
5.38813e-07
8.60332e-06
5.15986e-07
8.67826e-06
4.79323e-07
8.75339e-06
4.29298e-07
8.82722e-06
3.66938e-07
8.89789e-06
2.93991e-07
8.96294e-06
2.13265e-07
9.01971e-06
1.28172e-07
9.06625e-06
4.18842e-08
9.10118e-06
-4.27592e-08
9.12361e-06
-1.23265e-07
9.13304e-06
-1.97554e-07
9.12933e-06
-2.63895e-07
9.11258e-06
-3.2072e-07
9.08299e-06
-3.66543e-07
9.04114e-06
-4.00501e-07
8.98839e-06
-4.22859e-07
8.92674e-06
-4.3459e-07
8.85854e-06
-4.36987e-07
8.78617e-06
-4.31429e-07
8.71196e-06
-4.19233e-07
8.63814e-06
-4.01595e-07
8.56661e-06
-3.79336e-07
8.49877e-06
-3.52803e-07
8.43569e-06
-3.22106e-07
8.37827e-06
-2.87248e-07
8.32722e-06
-2.48208e-07
8.28318e-06
-2.05021e-07
8.24662e-06
-1.57884e-07
8.21787e-06
-1.07275e-07
8.19713e-06
-5.3999e-08
8.18448e-06
8.86678e-10
8.1799e-06
5.61815e-08
8.18324e-06
1.10626e-07
8.19424e-06
1.62941e-07
8.21259e-06
2.11871e-07
8.23789e-06
2.56192e-07
8.26977e-06
2.94723e-07
8.30775e-06
3.26403e-07
8.35126e-06
3.50335e-07
8.39965e-06
3.65705e-07
8.45225e-06
3.71881e-07
8.50831e-06
3.684e-07
8.56701e-06
3.55e-07
8.62739e-06
3.31686e-07
8.68839e-06
2.98797e-07
8.74874e-06
2.57106e-07
8.80682e-06
2.07972e-07
8.86055e-06
1.53456e-07
8.90792e-06
9.57953e-08
8.94745e-06
3.69894e-08
8.97804e-06
-2.11194e-08
8.999e-06
-7.69207e-08
9.00998e-06
-1.29063e-07
9.01098e-06
-1.76412e-07
9.00215e-06
-2.1794e-07
8.98362e-06
-2.52615e-07
8.95569e-06
-2.79666e-07
8.91925e-06
-2.98976e-07
8.87567e-06
-3.10902e-07
8.82653e-06
-3.16073e-07
8.77348e-06
-3.15207e-07
8.71816e-06
-3.09013e-07
8.66213e-06
-2.98169e-07
8.6069e-06
-2.83306e-07
8.55374e-06
-2.64837e-07
8.50362e-06
-2.42923e-07
8.4573e-06
-2.17662e-07
8.41544e-06
-1.89139e-07
8.37863e-06
-1.57472e-07
8.34732e-06
-1.22857e-07
8.32187e-06
-8.56156e-08
8.30251e-06
-4.6245e-08
8.28937e-06
-5.43147e-09
8.28246e-06
3.5995e-08
8.28171e-06
7.71318e-08
8.28698e-06
1.17048e-07
8.29803e-06
1.54814e-07
8.31462e-06
1.89525e-07
8.33647e-06
2.20298e-07
8.36325e-06
2.46337e-07
8.39454e-06
2.66968e-07
8.42987e-06
2.81576e-07
8.46873e-06
2.89667e-07
8.51056e-06
2.90918e-07
8.55475e-06
2.85024e-07
8.60056e-06
2.7219e-07
8.64734e-06
2.51951e-07
8.69411e-06
2.26308e-07
8.73884e-06
1.91057e-07
8.78156e-06
1.62184e-07
9.96368e-08
9.33109e-06
-3.10329e-07
9.30949e-06
-3.76713e-07
9.26897e-06
-4.27278e-07
9.21054e-06
-4.61606e-07
9.13619e-06
-4.80899e-07
9.04917e-06
-4.87153e-07
8.95327e-06
-4.82804e-07
8.85233e-06
-4.70433e-07
8.75006e-06
-4.52447e-07
8.64966e-06
-4.30559e-07
8.55334e-06
-4.05459e-07
8.46262e-06
-3.77149e-07
8.37862e-06
-3.45279e-07
8.3022e-06
-3.09324e-07
8.23405e-06
-2.68739e-07
8.17477e-06
-2.2309e-07
8.12486e-06
-1.72202e-07
8.08473e-06
-1.16313e-07
8.05467e-06
-5.61503e-08
8.03487e-06
7.13125e-09
8.02541e-06
7.21109e-08
8.02622e-06
1.37233e-07
8.03713e-06
2.00879e-07
8.05783e-06
2.61412e-07
8.08794e-06
3.17204e-07
8.12698e-06
3.66734e-07
8.1743e-06
4.08613e-07
8.22913e-06
4.41528e-07
8.29065e-06
4.64293e-07
8.35796e-06
4.75922e-07
8.43011e-06
4.75637e-07
8.50602e-06
4.62898e-07
8.58453e-06
4.3748e-07
8.66428e-06
3.99566e-07
8.74371e-06
3.49867e-07
8.82082e-06
2.89833e-07
8.89288e-06
2.21932e-07
8.957e-06
1.49139e-07
9.01092e-06
7.42521e-08
9.05293e-06
-1.21353e-10
9.08183e-06
-7.16599e-08
9.097e-06
-1.38433e-07
9.09825e-06
-1.988e-07
9.08554e-06
-2.51185e-07
9.0588e-06
-2.93982e-07
9.0186e-06
-3.26341e-07
8.96643e-06
-3.48333e-07
8.90447e-06
-3.60905e-07
8.83523e-06
-3.6535e-07
8.76128e-06
-3.63032e-07
8.68511e-06
-3.55261e-07
8.6091e-06
-3.43221e-07
8.53517e-06
-3.27665e-07
8.46467e-06
-3.0884e-07
8.39863e-06
-2.86763e-07
8.33787e-06
-2.61346e-07
8.2831e-06
-2.32473e-07
8.23492e-06
-2.00035e-07
8.19388e-06
-1.63977e-07
8.16038e-06
-1.24381e-07
8.1347e-06
-8.16018e-08
8.11704e-06
-3.63338e-08
8.10747e-06
1.04595e-08
8.10598e-06
5.76683e-08
8.11249e-06
1.04119e-07
8.12683e-06
1.48602e-07
8.14875e-06
1.8995e-07
8.17789e-06
2.27045e-07
8.21381e-06
2.58809e-07
8.25597e-06
2.84244e-07
8.30379e-06
3.02507e-07
8.35662e-06
3.12882e-07
8.41369e-06
3.14805e-07
8.47419e-06
3.07901e-07
8.53716e-06
2.92031e-07
8.60148e-06
2.67364e-07
8.6658e-06
2.34481e-07
8.72829e-06
1.94614e-07
8.78672e-06
1.49541e-07
8.83897e-06
1.0121e-07
8.8834e-06
5.13597e-08
8.91875e-06
1.64093e-09
8.94415e-06
-4.65234e-08
8.9592e-06
-9.19625e-08
8.96381e-06
-1.33676e-07
8.95806e-06
-1.70668e-07
8.94197e-06
-2.01847e-07
8.91585e-06
-2.26492e-07
8.88061e-06
-2.4443e-07
8.83768e-06
-2.56042e-07
8.78871e-06
-2.61936e-07
8.73544e-06
-2.62802e-07
8.67955e-06
-2.59321e-07
8.62268e-06
-2.52143e-07
8.56636e-06
-2.41847e-07
8.51182e-06
-2.28763e-07
8.45996e-06
-2.12972e-07
8.41152e-06
-1.94487e-07
8.36716e-06
-1.73301e-07
8.32744e-06
-1.49421e-07
8.29287e-06
-1.22899e-07
8.26386e-06
-9.38517e-08
8.24075e-06
-6.25027e-08
8.22375e-06
-2.92422e-08
8.21297e-06
5.34117e-09
8.20847e-06
4.05023e-08
8.21019e-06
7.54063e-08
8.21806e-06
1.09176e-07
8.23194e-06
1.40933e-07
8.2516e-06
1.6987e-07
8.2767e-06
1.95195e-07
8.30687e-06
2.16172e-07
8.34166e-06
2.32176e-07
8.38056e-06
2.4267e-07
8.423e-06
2.47227e-07
8.46834e-06
2.45579e-07
8.51585e-06
2.37522e-07
8.56465e-06
2.23384e-07
8.61374e-06
2.02862e-07
8.66172e-06
1.78328e-07
8.70627e-06
1.46506e-07
8.74785e-06
1.20602e-07
6.74484e-08
9.28855e-06
-2.93768e-07
9.25137e-06
-3.3953e-07
9.19469e-06
-3.70595e-07
9.12097e-06
-3.8789e-07
9.03369e-06
-3.93613e-07
8.93683e-06
-3.90292e-07
8.83453e-06
-3.80507e-07
8.73081e-06
-3.66712e-07
8.62896e-06
-3.506e-07
8.53118e-06
-3.32781e-07
8.43892e-06
-3.13192e-07
8.35315e-06
-2.91387e-07
8.27461e-06
-2.66732e-07
8.20383e-06
-2.38552e-07
8.14134e-06
-2.0624e-07
8.08758e-06
-1.6933e-07
8.04298e-06
-1.27605e-07
8.00791e-06
-8.12384e-08
7.98264e-06
-3.08814e-08
7.96738e-06
2.23879e-08
7.96225e-06
7.72398e-08
7.96728e-06
1.32204e-07
7.98238e-06
1.8578e-07
8.00733e-06
2.36458e-07
8.04179e-06
2.82745e-07
8.08526e-06
3.23266e-07
8.13709e-06
3.56779e-07
8.19651e-06
3.8211e-07
8.26264e-06
3.9816e-07
8.33457e-06
4.03996e-07
8.41128e-06
3.98925e-07
8.49163e-06
3.82553e-07
8.57425e-06
3.54857e-07
8.65748e-06
3.16336e-07
8.73908e-06
2.68269e-07
8.81609e-06
2.1282e-07
8.88549e-06
1.52534e-07
8.94482e-06
8.98042e-08
8.99214e-06
2.69313e-08
9.02606e-06
-3.40373e-08
9.04582e-06
-9.14206e-08
9.05116e-06
-1.43775e-07
9.04194e-06
-1.89572e-07
9.01793e-06
-2.27176e-07
8.9797e-06
-2.5576e-07
8.92882e-06
-2.75459e-07
8.86764e-06
-2.87153e-07
8.79881e-06
-2.92077e-07
8.72503e-06
-2.91561e-07
8.64888e-06
-2.86889e-07
8.5728e-06
-2.7918e-07
8.49865e-06
-2.69073e-07
8.4277e-06
-2.56713e-07
8.36089e-06
-2.42026e-07
8.29896e-06
-2.24833e-07
8.24254e-06
-2.04925e-07
8.19218e-06
-1.82115e-07
8.1484e-06
-1.56253e-07
8.11165e-06
-1.27228e-07
8.0823e-06
-9.50345e-08
8.06062e-06
-5.99199e-08
8.04678e-06
-2.24971e-08
8.04092e-06
1.63278e-08
8.0431e-06
5.54832e-08
8.05333e-06
9.3891e-08
8.07145e-06
1.30477e-07
8.09722e-06
1.64183e-07
8.13029e-06
1.93979e-07
8.17021e-06
2.18891e-07
8.21642e-06
2.38026e-07
8.26832e-06
2.50613e-07
8.32517e-06
2.56027e-07
8.38616e-06
2.53818e-07
8.4503e-06
2.43759e-07
8.51642e-06
2.25914e-07
8.58302e-06
2.00766e-07
8.64807e-06
1.69429e-07
8.70925e-06
1.33435e-07
8.76444e-06
9.43545e-08
8.81193e-06
5.37182e-08
8.85034e-06
1.29468e-08
8.87874e-06
-2.67571e-08
8.89666e-06
-6.44498e-08
8.90404e-06
-9.93379e-08
8.90089e-06
-1.30525e-07
8.88712e-06
-1.569e-07
8.86305e-06
-1.77779e-07
8.82963e-06
-1.9307e-07
8.78834e-06
-2.03144e-07
8.74089e-06
-2.08585e-07
8.68899e-06
-2.10043e-07
8.63436e-06
-2.08162e-07
8.57858e-06
-2.03545e-07
8.52313e-06
-1.96695e-07
8.46915e-06
-1.87869e-07
8.41748e-06
-1.77094e-07
8.36882e-06
-1.64312e-07
8.32377e-06
-1.49438e-07
8.28287e-06
-1.32394e-07
8.24659e-06
-1.13141e-07
8.21537e-06
-9.16866e-08
8.18962e-06
-6.80947e-08
8.16963e-06
-4.25169e-08
8.15564e-06
-1.52514e-08
8.14779e-06
1.31948e-08
8.14615e-06
4.21341e-08
8.1508e-06
7.07608e-08
8.16168e-06
9.82965e-08
8.17864e-06
1.23977e-07
8.20143e-06
1.4708e-07
8.22972e-06
1.66905e-07
8.26308e-06
1.82807e-07
8.30103e-06
1.94229e-07
8.34299e-06
2.0071e-07
8.38829e-06
2.01925e-07
8.43618e-06
1.97693e-07
8.48566e-06
1.88036e-07
8.53567e-06
1.73378e-07
8.5845e-06
1.54026e-07
8.631e-06
1.31834e-07
8.67258e-06
1.04929e-07
8.71025e-06
8.29259e-08
4.01737e-08
9.20511e-06
-2.5955e-07
9.15021e-06
-2.84625e-07
9.0775e-06
-2.97889e-07
8.99095e-06
-3.01337e-07
8.89485e-06
-2.97516e-07
8.79358e-06
-2.89019e-07
8.69128e-06
-2.78203e-07
8.59115e-06
-2.66587e-07
8.49521e-06
-2.5466e-07
8.40472e-06
-2.42293e-07
8.32049e-06
-2.28958e-07
8.24303e-06
-2.13929e-07
8.17273e-06
-1.96431e-07
8.10993e-06
-1.75753e-07
8.055e-06
-1.51306e-07
8.00833e-06
-1.2266e-07
7.97033e-06
-8.96057e-08
7.94137e-06
-5.22841e-08
7.92178e-06
-1.1288e-08
7.91181e-06
3.23561e-08
7.91168e-06
7.73737e-08
7.92144e-06
1.22438e-07
7.94106e-06
1.66158e-07
7.97043e-06
2.07094e-07
8.00928e-06
2.43889e-07
8.05717e-06
2.75385e-07
8.11338e-06
3.00563e-07
8.17709e-06
3.18399e-07
8.2474e-06
3.27855e-07
8.32333e-06
3.28061e-07
8.40378e-06
3.1848e-07
8.48734e-06
2.98988e-07
8.57222e-06
2.69982e-07
8.65584e-06
2.32711e-07
8.73508e-06
1.89029e-07
8.80689e-06
1.41007e-07
8.86876e-06
9.06661e-08
8.91861e-06
3.99513e-08
8.95499e-06
-9.44756e-09
8.97715e-06
-5.61964e-08
8.98484e-06
-9.91092e-08
8.97777e-06
-1.367e-07
8.95563e-06
-1.67437e-07
8.91909e-06
-1.90639e-07
8.8699e-06
-2.06564e-07
8.81051e-06
-2.1607e-07
8.74366e-06
-2.20303e-07
8.67208e-06
-2.20495e-07
8.59837e-06
-2.17857e-07
8.52486e-06
-2.13375e-07
8.45321e-06
-2.07534e-07
8.38454e-06
-2.00398e-07
8.31965e-06
-1.9182e-07
8.25916e-06
-1.81541e-07
8.2036e-06
-1.69273e-07
8.15343e-06
-1.54752e-07
8.10909e-06
-1.37777e-07
8.07104e-06
-1.182e-07
8.0397e-06
-9.58917e-08
8.01544e-06
-7.07772e-08
7.99854e-06
-4.30199e-08
7.98922e-06
-1.31748e-08
7.98771e-06
1.78388e-08
7.99416e-06
4.90306e-08
8.00857e-06
7.94866e-08
8.03076e-06
1.08279e-07
8.0605e-06
1.34448e-07
8.09743e-06
1.57051e-07
8.14111e-06
1.75209e-07
8.19098e-06
1.8815e-07
8.24637e-06
1.95232e-07
8.30641e-06
1.95982e-07
8.37009e-06
1.90142e-07
8.43611e-06
1.77732e-07
8.50281e-06
1.59216e-07
8.568e-06
1.3558e-07
8.62936e-06
1.08066e-07
8.68488e-06
7.7917e-08
8.73283e-06
4.64075e-08
8.77183e-06
1.47104e-08
8.801e-06
-1.62153e-08
8.81992e-06
-4.56824e-08
8.82859e-06
-7.31174e-08
8.82698e-06
-9.77264e-08
8.81491e-06
-1.18463e-07
8.79277e-06
-1.34751e-07
8.76158e-06
-1.46592e-07
8.72287e-06
-1.54356e-07
8.6783e-06
-1.58576e-07
8.62955e-06
-1.59837e-07
8.57822e-06
-1.58714e-07
8.5258e-06
-1.55741e-07
8.47359e-06
-1.51339e-07
8.42259e-06
-1.45694e-07
8.37352e-06
-1.38794e-07
8.32697e-06
-1.30549e-07
8.28349e-06
-1.20824e-07
8.24353e-06
-1.09484e-07
8.20756e-06
-9.642e-08
8.17599e-06
-8.15728e-08
8.14923e-06
-6.49291e-08
8.12765e-06
-4.65161e-08
8.11156e-06
-2.64265e-08
8.1012e-06
-4.89221e-09
8.09677e-06
1.76334e-08
8.09844e-06
4.04598e-08
8.10633e-06
6.28733e-08
8.12037e-06
8.42499e-08
8.14039e-06
1.03958e-07
8.16612e-06
1.21358e-07
8.19718e-06
1.3584e-07
8.23313e-06
1.46861e-07
8.27338e-06
1.53971e-07
8.31726e-06
1.56831e-07
8.36392e-06
1.55271e-07
8.41236e-06
1.4925e-07
8.46124e-06
1.39158e-07
8.50912e-06
1.255e-07
8.55424e-06
1.08903e-07
8.59571e-06
9.03611e-08
8.63109e-06
6.95534e-08
8.66205e-06
5.19673e-08
1.99619e-08
9.06464e-06
-2.05467e-07
8.9933e-06
-2.13287e-07
8.90896e-06
-2.13547e-07
8.81617e-06
-2.08547e-07
8.7194e-06
-2.00754e-07
8.62263e-06
-1.92246e-07
8.52862e-06
-1.84189e-07
8.43896e-06
-1.76931e-07
8.35461e-06
-1.70313e-07
8.2761e-06
-1.63783e-07
8.20372e-06
-1.56573e-07
8.13764e-06
-1.47849e-07
8.07804e-06
-1.36832e-07
8.02516e-06
-1.22873e-07
7.97933e-06
-1.05477e-07
7.94096e-06
-8.42861e-08
7.91049e-06
-5.91367e-08
7.88839e-06
-3.0182e-08
7.87507e-06
2.02469e-09
7.87095e-06
3.6476e-08
7.87626e-06
7.20637e-08
7.89105e-06
1.07651e-07
7.91533e-06
1.4188e-07
7.94911e-06
1.73317e-07
7.99226e-06
2.00738e-07
8.04434e-06
2.23299e-07
8.10457e-06
2.40332e-07
8.17198e-06
2.50993e-07
8.24557e-06
2.54267e-07
8.32422e-06
2.49412e-07
8.40644e-06
2.36256e-07
8.49016e-06
2.1527e-07
8.57253e-06
1.87616e-07
8.65031e-06
1.54929e-07
8.7206e-06
1.18733e-07
8.78094e-06
8.06755e-08
8.82931e-06
4.22908e-08
8.86445e-06
4.80885e-09
8.88579e-06
-3.07851e-08
8.89316e-06
-6.35681e-08
8.88604e-06
-9.19808e-08
8.86428e-06
-1.14946e-07
8.82879e-06
-1.31944e-07
8.78154e-06
-1.43389e-07
8.72507e-06
-1.50095e-07
8.66208e-06
-1.53084e-07
8.59521e-06
-1.53434e-07
8.52692e-06
-1.52202e-07
8.45921e-06
-1.50149e-07
8.39342e-06
-1.47582e-07
8.3304e-06
-1.44511e-07
8.27075e-06
-1.40751e-07
8.21493e-06
-1.36004e-07
8.16333e-06
-1.29932e-07
8.11628e-06
-1.22222e-07
8.07414e-06
-1.12621e-07
8.03732e-06
-1.00956e-07
8.00623e-06
-8.71097e-08
7.9813e-06
-7.09584e-08
7.96291e-06
-5.23839e-08
7.95138e-06
-3.14973e-08
7.94709e-06
-8.88168e-09
7.95039e-06
1.45432e-08
7.9614e-06
3.802e-08
7.98008e-06
6.08047e-08
8.00628e-06
8.20731e-08
8.03977e-06
1.00967e-07
8.08016e-06
1.16659e-07
8.12695e-06
1.28418e-07
8.17946e-06
1.3564e-07
8.23682e-06
1.37869e-07
8.29793e-06
1.34875e-07
8.36135e-06
1.26714e-07
8.42522e-06
1.13871e-07
8.48729e-06
9.71432e-08
8.54543e-06
7.74374e-08
8.59779e-06
5.5709e-08
8.64275e-06
3.29537e-08
8.6791e-06
1.00606e-08
8.7061e-06
-1.22944e-08
8.72355e-06
-3.36625e-08
8.73153e-06
-5.36615e-08
8.72992e-06
-7.15071e-08
8.71862e-06
-8.64233e-08
8.69809e-06
-9.79315e-08
8.66948e-06
-1.06149e-07
8.6343e-06
-1.11411e-07
8.59411e-06
-1.14165e-07
8.55043e-06
-1.14898e-07
8.50468e-06
-1.14085e-07
8.45813e-06
-1.12166e-07
8.41185e-06
-1.09457e-07
8.36659e-06
-1.06075e-07
8.32289e-06
-1.02001e-07
8.28124e-06
-9.7139e-08
8.24203e-06
-9.13436e-08
8.20566e-06
-8.44503e-08
8.17248e-06
-7.63099e-08
8.14288e-06
-6.68172e-08
8.11723e-06
-5.59206e-08
8.09591e-06
-4.3607e-08
8.07928e-06
-2.98864e-08
8.06767e-06
-1.48236e-08
8.06141e-06
1.37354e-09
8.0608e-06
1.82389e-08
8.06611e-06
3.51556e-08
8.07734e-06
5.16386e-08
8.09438e-06
6.72165e-08
8.11698e-06
8.13518e-08
8.14485e-06
9.34875e-08
8.17757e-06
1.03124e-07
8.21457e-06
1.09856e-07
8.25516e-06
1.13387e-07
8.29844e-06
1.13545e-07
8.34335e-06
1.1036e-07
8.38853e-06
1.0408e-07
8.43245e-06
9.52329e-08
8.47383e-06
8.41231e-08
8.5113e-06
7.14319e-08
8.544e-06
5.76618e-08
8.57045e-06
4.30997e-08
8.59226e-06
3.01564e-08
8.33782e-09
8.85203e-06
-1.36186e-07
8.77241e-06
-1.33667e-07
8.68693e-06
-1.28075e-07
8.59981e-06
-1.21425e-07
8.51424e-06
-1.15185e-07
8.43212e-06
-1.10126e-07
8.35446e-06
-1.06532e-07
8.28178e-06
-1.04247e-07
8.21424e-06
-1.02773e-07
8.15184e-06
-1.01385e-07
8.09453e-06
-9.92645e-08
8.04231e-06
-9.56295e-08
7.9953e-06
-8.98178e-08
7.95375e-06
-8.13244e-08
7.91807e-06
-6.97911e-08
7.88873e-06
-5.49538e-08
7.86632e-06
-3.6723e-08
7.85148e-06
-1.53425e-08
7.84488e-06
8.62641e-09
7.84702e-06
3.43321e-08
7.85801e-06
6.10745e-08
7.87779e-06
8.78755e-08
7.90639e-06
1.13278e-07
7.94404e-06
1.35661e-07
7.99091e-06
1.53868e-07
8.04662e-06
1.67594e-07
8.11002e-06
1.7693e-07
8.17957e-06
1.81443e-07
8.25381e-06
1.80032e-07
8.33116e-06
1.72055e-07