/*--------------------------------*- C++ -*----------------------------------*\
| =========                 |                                                 |
| \\      /  F ield         | OpenFOAM: The Open Source CFD Toolbox           |
|  \\    /   O peration     | Version:  2206                                  |
|   \\  /    A nd           | Website:  www.openfoam.com                      |
|    \\/     M anipulation  |                                                 |
\*---------------------------------------------------------------------------*/
FoamFile
{
    version     2.0;
    format      ascii;
    arch        "LSB;label=32;scalar=64";
    class       volVectorField;
    location    "19.5999";
    object      U;
}
// * * * * * * * * * * * * * * * * * * * * * * * * * * * * * * * * * * * * * //

dimensions      [0 1 -1 0 0 0 0];

internalField   nonuniform List<vector> 
4866
(
(1.47761 7.05233e-05 0)
(1.47764 0.000196071 0)
(1.47771 0.000312242 0)
(1.47782 0.000418014 0)
(1.47796 0.000513151 0)
(1.47814 0.000597685 0)
(1.47835 0.000671725 0)
(1.4786 0.000735449 0)
(1.47888 0.000789129 0)
(1.47919 0.000833121 0)
(1.47954 0.000867836 0)
(1.47991 0.000893725 0)
(1.48031 0.000911271 0)
(1.48074 0.000920967 0)
(1.4812 0.000923337 0)
(1.48168 0.000918895 0)
(1.48219 0.000908165 0)
(1.48271 0.000891657 0)
(1.48326 0.000869868 0)
(1.48382 0.000843273 0)
(1.48441 0.000812324 0)
(1.48501 0.000777436 0)
(1.48562 0.00073899 0)
(1.48624 0.000697318 0)
(1.48688 0.000652701 0)
(1.48753 0.000605361 0)
(1.48818 0.000555455 0)
(1.48884 0.000503068 0)
(1.48951 0.000448213 0)
(1.49018 0.000390819 0)
(1.49085 0.00033075 0)
(1.49152 0.00026772 0)
(1.49219 0.000201387 0)
(1.49285 0.000131433 0)
(1.49351 5.73152e-05 0)
(1.49417 -2.14855e-05 0)
(1.49481 -0.000105713 0)
(1.49545 -0.000196036 0)
(1.49607 -0.000293392 0)
(1.49668 -0.000398553 0)
(1.49728 -0.000512676 0)
(1.49786 -0.000636564 0)
(1.49841 -0.000771625 0)
(1.49895 -0.000918672 0)
(1.49947 -0.00107925 0)
(1.49996 -0.00125436 0)
(1.50043 -0.00144539 0)
(1.50086 -0.00165377 0)
(1.50127 -0.00188056 0)
(1.50165 -0.00212765 0)
(1.50199 -0.00239563 0)
(1.50229 -0.00268696 0)
(1.50255 -0.00300173 0)
(1.50278 -0.00334277 0)
(1.50296 -0.00371172 0)
(1.50309 -0.00411004 0)
(1.50317 -0.00453972 0)
(1.5032 -0.00500269 0)
(1.50317 -0.00550091 0)
(1.50308 -0.00603648 0)
(1.50293 -0.00661166 0)
(1.50272 -0.00722886 0)
(1.50243 -0.00789062 0)
(1.50206 -0.00859973 0)
(1.50161 -0.00935916 0)
(1.50108 -0.0101721 0)
(1.50045 -0.0110422 0)
(1.49972 -0.0119732 0)
(1.49888 -0.0129693 0)
(1.49793 -0.0140353 0)
(1.49686 -0.0151763 0)
(1.49565 -0.0163981 0)
(1.4943 -0.0177072 0)
(1.4928 -0.0191107 0)
(1.49113 -0.0206168 0)
(1.48927 -0.0222347 0)
(1.48722 -0.0239747 0)
(1.48496 -0.0258486 0)
(1.48247 -0.0278698 0)
(1.47972 -0.0300536 0)
(1.4767 -0.0324175 0)
(1.47337 -0.0349815 0)
(1.46972 -0.0377689 0)
(1.4657 -0.0408064 0)
(1.46129 -0.0441249 0)
(1.45643 -0.0477607 0)
(1.4511 -0.0517557 0)
(1.44522 -0.0561596 0)
(1.43876 -0.0610303 0)
(1.43164 -0.0664369 0)
(1.42379 -0.0724611 0)
(1.41512 -0.0792005 0)
(1.40555 -0.0867726 0)
(1.39496 -0.0953189 0)
(1.38323 -0.105012 0)
(1.37022 -0.116061 0)
(1.35577 -0.128725 0)
(1.33969 -0.143324 0)
(1.32178 -0.160258 0)
(1.30178 -0.180029 0)
(1.27942 -0.203276 0)
(1.25436 -0.230817 0)
(1.22619 -0.26371 0)
(1.19445 -0.303356 0)
(1.15848 -0.351603 0)
(1.11742 -0.411049 0)
(1.06988 -0.485085 0)
(1.01325 -0.579313 0)
(0.943408 -0.700066 0)
(0.843447 -0.869516 0)
(0.727086 -1.09582 0)
(0.236155 -1.65575 0)
(1.47761 4.98328e-05 0)
(1.47764 0.000135842 0)
(1.47771 0.000212233 0)
(1.47781 0.000278411 0)
(1.47795 0.000334339 0)
(1.47813 0.000380212 0)
(1.47834 0.000416309 0)
(1.47858 0.000442955 0)
(1.47886 0.000460543 0)
(1.47916 0.00046953 0)
(1.4795 0.000470427 0)
(1.47987 0.000463775 0)
(1.48026 0.000450137 0)
(1.48068 0.000430088 0)
(1.48113 0.000404202 0)
(1.4816 0.000373049 0)
(1.4821 0.000337192 0)
(1.48261 0.000297178 0)
(1.48315 0.000253535 0)
(1.4837 0.000206766 0)
(1.48427 0.000157345 0)
(1.48486 0.000105708 0)
(1.48546 5.22508e-05 0)
(1.48608 -2.68099e-06 0)
(1.4867 -5.87957e-05 0)
(1.48734 -0.000115862 0)
(1.48798 -0.000173715 0)
(1.48863 -0.000232258 0)
(1.48928 -0.000291474 0)
(1.48994 -0.000351418 0)
(1.49059 -0.000412233 0)
(1.49125 -0.000474197 0)
(1.49191 -0.000537608 0)
(1.49256 -0.000602773 0)
(1.4932 -0.000670256 0)
(1.49384 -0.000740526 0)
(1.49447 -0.000814355 0)
(1.4951 -0.000892349 0)
(1.4957 -0.000975457 0)
(1.4963 -0.00106442 0)
(1.49688 -0.00116035 0)
(1.49744 -0.00126407 0)
(1.49799 -0.0013769 0)
(1.49851 -0.00149962 0)
(1.49901 -0.00163383 0)
(1.49948 -0.00178026 0)
(1.49993 -0.00194059 0)
(1.50035 -0.00211578 0)
(1.50074 -0.00230736 0)
(1.5011 -0.00251637 0)
(1.50142 -0.00274448 0)
(1.5017 -0.00299259 0)
(1.50194 -0.00326234 0)
(1.50215 -0.00355409 0)
(1.5023 -0.00387135 0)
(1.50241 -0.00421468 0)
(1.50246 -0.00458584 0)
(1.50247 -0.00498665 0)
(1.50241 -0.00541883 0)
(1.50229 -0.00588416 0)
(1.50211 -0.00638459 0)
(1.50185 -0.00692219 0)
(1.50153 -0.00749913 0)
(1.50112 -0.00811773 0)
(1.50063 -0.00878048 0)
(1.50004 -0.00949008 0)
(1.49936 -0.0102494 0)
(1.49858 -0.0110618 0)
(1.49768 -0.0119305 0)
(1.49666 -0.0128595 0)
(1.49551 -0.0138531 0)
(1.49423 -0.0149159 0)
(1.49279 -0.0160533 0)
(1.49119 -0.0172712 0)
(1.48941 -0.0185762 0)
(1.48744 -0.0199758 0)
(1.48526 -0.0214787 0)
(1.48286 -0.0230945 0)
(1.4802 -0.0248342 0)
(1.47728 -0.0267105 0)
(1.47406 -0.0287379 0)
(1.47052 -0.0309331 0)
(1.46662 -0.0333153 0)
(1.46232 -0.0359069 0)
(1.45759 -0.0387338 0)
(1.45238 -0.0418262 0)
(1.44664 -0.0452195 0)
(1.44031 -0.0489554 0)
(1.43332 -0.0530829 0)
(1.42559 -0.0576606 0)
(1.41704 -0.062758 0)
(1.40756 -0.0684584 0)
(1.39704 -0.0748622 0)
(1.38533 -0.0820914 0)
(1.37228 -0.0902942 0)
(1.3577 -0.099653 0)
(1.34137 -0.110393 0)
(1.32304 -0.122793 0)
(1.30238 -0.137203 0)
(1.27902 -0.154064 0)
(1.25252 -0.173933 0)
(1.22231 -0.197524 0)
(1.1877 -0.225748 0)
(1.14779 -0.259781 0)
(1.10138 -0.301138 0)
(1.04686 -0.351775 0)
(0.981792 -0.414102 0)
(0.902745 -0.49131 0)
(0.803868 -0.587101 0)
(0.677744 -0.704915 0)
(0.505237 -0.846615 0)
(0.237032 -0.930221 0)
(1.47761 2.91241e-05 0)
(1.47764 7.6928e-05 0)
(1.4777 0.000114171 0)
(1.47781 0.000141312 0)
(1.47795 0.000158674 0)
(1.47812 0.000166591 0)
(1.47833 0.000165461 0)
(1.47857 0.000155721 0)
(1.47884 0.00013788 0)
(1.47914 0.000112497 0)
(1.47947 8.01789e-05 0)
(1.47983 4.1554e-05 0)
(1.48022 -2.73627e-06 0)
(1.48063 -5.20468e-05 0)
(1.48107 -0.00010574 0)
(1.48154 -0.000163185 0)
(1.48202 -0.000223771 0)
(1.48253 -0.000286907 0)
(1.48306 -0.000352035 0)
(1.4836 -0.000418626 0)
(1.48417 -0.000486186 0)
(1.48475 -0.000554261 0)
(1.48534 -0.000622441 0)
(1.48594 -0.000690366 0)
(1.48656 -0.00075773 0)
(1.48718 -0.000824289 0)
(1.48781 -0.000889868 0)
(1.48845 -0.000954359 0)
(1.48909 -0.00101774 0)
(1.48974 -0.00108003 0)
(1.49038 -0.00114142 0)
(1.49103 -0.00120213 0)
(1.49167 -0.00126244 0)
(1.49231 -0.00132264 0)
(1.49295 -0.00138331 0)
(1.49357 -0.00144488 0)
(1.49419 -0.00150813 0)
(1.4948 -0.00157359 0)
(1.4954 -0.00164228 0)
(1.49598 -0.00171479 0)
(1.49655 -0.00179233 0)
(1.4971 -0.0018756 0)
(1.49763 -0.00196588 0)
(1.49814 -0.00206402 0)
(1.49862 -0.00217137 0)
(1.49908 -0.0022888 0)
(1.49952 -0.00241786 0)
(1.49992 -0.0025594 0)
(1.5003 -0.00271486 0)
(1.50064 -0.00288548 0)
(1.50094 -0.00307253 0)
(1.50121 -0.00327677 0)
(1.50143 -0.00350025 0)
(1.50161 -0.00374273 0)
(1.50175 -0.00400637 0)
(1.50184 -0.00429334 0)
(1.50187 -0.00460449 0)
(1.50185 -0.00494145 0)
(1.50177 -0.0053057 0)
(1.50163 -0.00569872 0)
(1.50141 -0.0061221 0)
(1.50113 -0.00657755 0)
(1.50077 -0.0070668 0)
(1.50033 -0.00759172 0)
(1.4998 -0.00815427 0)
(1.49918 -0.00875656 0)
(1.49845 -0.00940087 0)
(1.49762 -0.0100897 0)
(1.49667 -0.0108257 0)
(1.4956 -0.0116118 0)
(1.49439 -0.0124512 0)
(1.49304 -0.0133477 0)
(1.49153 -0.0143051 0)
(1.48985 -0.0153279 0)
(1.48798 -0.0164214 0)
(1.48592 -0.0175911 0)
(1.48363 -0.0188436 0)
(1.48111 -0.0201863 0)
(1.47833 -0.0216275 0)
(1.47526 -0.023177 0)
(1.47188 -0.0248457 0)
(1.46815 -0.0266466 0)
(1.46405 -0.0285944 0)
(1.45953 -0.0307062 0)
(1.45455 -0.0330021 0)
(1.44905 -0.0355052 0)
(1.44298 -0.038243 0)
(1.43628 -0.0412477 0)
(1.42886 -0.0445573 0)
(1.42064 -0.0482169 0)
(1.41151 -0.0522806 0)
(1.40137 -0.0568132 0)
(1.39007 -0.061893 0)
(1.37745 -0.0676149 0)
(1.36332 -0.0740948 0)
(1.34745 -0.0814751 0)
(1.32958 -0.0899318 0)
(1.30938 -0.0996836 0)
(1.28645 -0.111004 0)
(1.26033 -0.124235 0)
(1.23041 -0.13981 0)
(1.19598 -0.158275 0)
(1.15611 -0.180315 0)
(1.10963 -0.206789 0)
(1.05504 -0.238761 0)
(0.990364 -0.277471 0)
(0.912959 -0.324377 0)
(0.819268 -0.380968 0)
(0.704112 -0.448394 0)
(0.560495 -0.526518 0)
(0.374768 -0.613459 0)
(0.130711 -0.71332 0)
(1.47761 9.53587e-06 0)
(1.47764 1.86047e-05 0)
(1.4777 1.71619e-05 0)
(1.47781 5.90192e-06 0)
(1.47794 -1.47055e-05 0)
(1.47812 -4.41649e-05 0)
(1.47832 -8.19459e-05 0)
(1.47855 -0.000127487 0)
(1.47882 -0.000180198 0)
(1.47912 -0.000239423 0)
(1.47945 -0.000304463 0)
(1.4798 -0.000374594 0)
(1.48019 -0.000449089 0)
(1.4806 -0.00052723 0)
(1.48103 -0.000608316 0)
(1.48149 -0.000691661 0)
(1.48197 -0.000776611 0)
(1.48247 -0.000862536 0)
(1.48299 -0.00094884 0)
(1.48353 -0.00103496 0)
(1.48408 -0.00112038 0)
(1.48466 -0.00120463 0)
(1.48524 -0.00128726 0)
(1.48584 -0.00136792 0)
(1.48644 -0.00144629 0)
(1.48706 -0.0015221 0)
(1.48768 -0.00159519 0)
(1.48831 -0.00166542 0)
(1.48894 -0.00173276 0)
(1.48958 -0.00179724 0)
(1.49022 -0.00185902 0)
(1.49085 -0.0019183 0)
(1.49149 -0.00197535 0)
(1.49212 -0.00203044 0)
(1.49274 -0.00208415 0)
(1.49336 -0.00213686 0)
(1.49397 -0.00218939 0)
(1.49457 -0.00224215 0)
(1.49515 -0.00229628 0)
(1.49572 -0.00235212 0)
(1.49628 -0.00241117 0)
(1.49682 -0.00247365 0)
(1.49734 -0.00254132 0)
(1.49784 -0.00261446 0)
(1.49831 -0.00269479 0)
(1.49876 -0.00278284 0)
(1.49918 -0.00288023 0)
(1.49958 -0.0029876 0)
(1.49994 -0.00310657 0)
(1.50027 -0.00323811 0)
(1.50056 -0.00338304 0)
(1.50081 -0.00354344 0)
(1.50102 -0.00371906 0)
(1.50119 -0.00391218 0)
(1.50131 -0.00412106 0)
(1.50138 -0.00435065 0)
(1.50139 -0.00460063 0)
(1.50135 -0.00487238 0)
(1.50125 -0.00516723 0)
(1.50109 -0.00548631 0)
(1.50086 -0.00583078 0)
(1.50055 -0.00620193 0)
(1.50016 -0.00660112 0)
(1.49969 -0.00702977 0)
(1.49914 -0.00748931 0)
(1.49848 -0.00798124 0)
(1.49772 -0.00850715 0)
(1.49685 -0.0090687 0)
(1.49587 -0.0096677 0)
(1.49475 -0.0103061 0)
(1.49349 -0.0109862 0)
(1.49209 -0.0117104 0)
(1.49052 -0.0124814 0)
(1.48878 -0.013302 0)
(1.48685 -0.0141757 0)
(1.48471 -0.0151063 0)
(1.48234 -0.016098 0)
(1.47973 -0.0171557 0)
(1.47685 -0.018285 0)
(1.47367 -0.0194924 0)
(1.47017 -0.0207853 0)
(1.46631 -0.0221722 0)
(1.46206 -0.0236629 0)
(1.45737 -0.0252689 0)
(1.45219 -0.0270034 0)
(1.44648 -0.0288819 0)
(1.44017 -0.0309227 0)
(1.43318 -0.0331471 0)
(1.42545 -0.0355804 0)
(1.41686 -0.0382525 0)
(1.40732 -0.0411994 0)
(1.39668 -0.044464 0)
(1.38481 -0.0480978 0)
(1.37152 -0.0521636 0)
(1.3566 -0.0567378 0)
(1.33979 -0.0619139 0)
(1.32079 -0.0678071 0)
(1.29922 -0.0745602 0)
(1.27465 -0.0823503 0)
(1.24651 -0.0913987 0)
(1.21414 -0.101981 0)
(1.17667 -0.11444 0)
(1.13307 -0.129199 0)
(1.08202 -0.146775 0)
(1.02186 -0.167771 0)
(0.95056 -0.192871 0)
(0.865563 -0.222759 0)
(0.763804 -0.257934 0)
(0.641593 -0.298363 0)
(0.495265 -0.342328 0)
(0.321134 -0.387871 0)
(0.115814 -0.382602 0)
(1.481 -0.00110547 0)
(1.48146 -0.00121438 0)
(1.48193 -0.00132337 0)
(1.48243 -0.00143176 0)
(1.48294 -0.00153894 0)
(1.48348 -0.0016443 0)
(1.48403 -0.00174731 0)
(1.48459 -0.00184747 0)
(1.48517 -0.00194433 0)
(1.48576 -0.0020375 0)
(1.48636 -0.00212666 0)
(1.48697 -0.00221152 0)
(1.48759 -0.00229191 0)
(1.48821 -0.00236769 0)
(1.48883 -0.00243881 0)
(1.48946 -0.0025053 0)
(1.49009 -0.0025673 0)
(1.49072 -0.00262499 0)
(1.49135 -0.00267863 0)
(1.49197 -0.0027285 0)
(1.49259 -0.00277509 0)
(1.4932 -0.00281886 0)
(1.4938 -0.00286048 0)
(1.49439 -0.00290052 0)
(1.49497 -0.00293984 0)
(1.49553 -0.00297906 0)
(1.49608 -0.00301927 0)
(1.49661 -0.00306105 0)
(1.49712 -0.00310575 0)
(1.49761 -0.00315385 0)
(1.49808 -0.0032069 0)
(1.49852 -0.00326537 0)
(1.49893 -0.0033308 0)
(1.49931 -0.00340376 0)
(1.49967 -0.00348589 0)
(1.49998 -0.00357749 0)
(1.50026 -0.00368047 0)
(1.50051 -0.00379552 0)
(1.5007 -0.00392317 0)
(1.50086 -0.00406551 0)
(1.50097 -0.00422099 0)
(1.50103 -0.00439154 0)
(1.50103 -0.00457944 0)
(1.50098 -0.00478479 0)
(1.50086 -0.00500885 0)
(1.50068 -0.00525263 0)
(1.50043 -0.00551692 0)
(1.50011 -0.00580254 0)
(1.49971 -0.00611029 0)
(1.49922 -0.00644103 0)
(1.49864 -0.00679556 0)
(1.49796 -0.00717476 0)
(1.49718 -0.00757953 0)
(1.49628 -0.00801086 0)
(1.49526 -0.00846976 0)
(1.49412 -0.00895724 0)
(1.49283 -0.00947435 0)
(1.49139 -0.0100222 0)
(1.48978 -0.010602 0)
(1.488 -0.0112151 0)
(1.48602 -0.0118631 0)
(1.48383 -0.0125479 0)
(1.48141 -0.0132715 0)
(1.47874 -0.0140362 0)
(1.47579 -0.0148447 0)
(1.47254 -0.0156999 0)
(1.46896 -0.0166053 0)
(1.46501 -0.0175649 0)
(1.46066 -0.0185832 0)
(1.45586 -0.0196656 0)
(1.45056 -0.0208181 0)
(1.44471 -0.022048 0)
(1.43825 -0.0233635 0)
(1.43109 -0.0247746 0)
(1.42315 -0.0262927 0)
(1.41434 -0.0279312 0)
(1.40454 -0.0297061 0)
(1.39361 -0.0316362 0)
(1.3814 -0.033744 0)
(1.3677 -0.0360563 0)
(1.35231 -0.0386055 0)
(1.33495 -0.0414303 0)
(1.31529 -0.0445778 0)
(1.29295 -0.0481052 0)
(1.26744 -0.0520826 0)
(1.23817 -0.0565953 0)
(1.20441 -0.0617484 0)
(1.16528 -0.0676654 0)
(1.11966 -0.0744977 0)
(1.06618 -0.082423 0)
(1.00314 -0.0916413 0)
(0.928521 -0.102358 0)
(0.839889 -0.114747 0)
(0.734544 -0.128877 0)
(0.60951 -0.144541 0)
(0.462635 -0.161054 0)
(0.290404 -0.176742 0)
(0.096357 -0.185723 0)
(1.46265 0.00732238 0)
(1.45465 0.0143112 0)
(1.43946 0.0170918 0)
(1.41893 0.0183608 0)
(1.39699 0.0191997 0)
(1.37497 0.0197884 0)
(1.35277 0.0201695 0)
(1.33023 0.0203916 0)
(1.30737 0.020509 0)
(1.28432 0.0205581 0)
(1.26116 0.0205565 0)
(1.23793 0.0205075 0)
(1.21466 0.0204089 0)
(1.19137 0.0202726 0)
(1.16809 0.0201127 0)
(1.14485 0.0199354 0)
(1.12164 0.0197409 0)
(1.09848 0.0195293 0)
(1.07539 0.019302 0)
(1.05237 0.0190604 0)
(1.02945 0.0188079 0)
(1.00663 0.0185461 0)
(0.98393 0.0182751 0)
(0.961358 0.0179954 0)
(0.93893 0.0177058 0)
(0.91666 0.0174069 0)
(0.894559 0.0170999 0)
(0.872637 0.0167869 0)
(0.850919 0.0164758 0)
(0.829399 0.0161779 0)
(0.807906 0.0158621 0)
(0.786847 0.0154928 0)
(0.766084 0.0150721 0)
(0.745638 0.0146127 0)
(0.725578 0.0141203 0)
(0.705946 0.0135971 0)
(0.686774 0.0130455 0)
(0.668096 0.0124678 0)
(0.649947 0.0118659 0)
(0.632363 0.0112427 0)
(0.615376 0.0106001 0)
(0.599021 0.00993918 0)
(0.583323 0.00926148 0)
(0.568315 0.00857096 0)
(0.554019 0.00786903 0)
(0.540472 0.00714884 0)
(0.527694 0.00643079 0)
(0.515681 0.00573223 0)
(0.504437 0.00505574 0)
(0.493966 0.00439998 0)
(0.484269 0.00376423 0)
(0.475343 0.00314852 0)
(0.467178 0.00255454 0)
(0.459766 0.00198427 0)
(0.453089 0.00144001 0)
(0.447131 0.000922288 0)
(0.44187 0.000430237 0)
(0.43729 -1.15561e-05 0)
(0.433354 -0.000432086 0)
(0.430053 -0.000828956 0)
(0.42735 -0.00120302 0)
(0.425242 -0.00154985 0)
(0.423686 -0.00187837 0)
(0.422678 -0.00215999 0)
(0.422207 -0.00248309 0)
(0.422271 -0.0027204 0)
(0.422834 -0.0030406 0)
(0.423915 -0.00333889 0)
(0.425481 -0.00358238 0)
(0.427502 -0.00379233 0)
(0.429955 -0.00397493 0)
(0.43282 -0.00413575 0)
(0.436091 -0.00428864 0)
(0.439751 -0.00443885 0)
(0.443796 -0.00457022 0)
(0.44822 -0.0046935 0)
(0.453017 -0.00481317 0)
(0.458186 -0.00493167 0)
(0.463727 -0.00504998 0)
(0.46964 -0.00517098 0)
(0.47593 -0.0052952 0)
(0.4826 -0.00542092 0)
(0.489653 -0.00554883 0)
(0.497093 -0.00567963 0)
(0.504924 -0.00581337 0)
(0.513151 -0.0059499 0)
(0.521776 -0.00608881 0)
(0.530803 -0.00622944 0)
(0.540231 -0.0063706 0)
(0.550062 -0.00651099 0)
(0.560292 -0.00664899 0)
(0.570916 -0.00678267 0)
(0.581925 -0.00690952 0)
(0.593307 -0.00702732 0)
(0.605046 -0.00713359 0)
(0.617123 -0.00722584 0)
(0.629515 -0.00730198 0)
(0.642195 -0.00735944 0)
(0.655132 -0.00739456 0)
(0.668289 -0.00740279 0)
(0.681621 -0.00738036 0)
(0.695079 -0.00732475 0)
(0.708611 -0.00723294 0)
(0.722156 -0.00710264 0)
(0.735669 -0.00692766 0)
(0.749035 -0.00670586 0)
(0.762239 -0.00643024 0)
(0.775123 -0.00610358 0)
(0.787704 -0.00572243 0)
(0.799774 -0.00528972 0)
(0.811391 -0.00479781 0)
(0.822292 -0.00425254 0)
(1.47957 0.0102996 0)
(1.48586 0.0198139 0)
(1.49302 0.0236295 0)
(1.49594 0.0257549 0)
(1.49734 0.0271748 0)
(1.49825 0.0283769 0)
(1.49862 0.0291257 0)
(1.49836 0.029738 0)
(1.4975 0.0302152 0)
(1.49612 0.0305728 0)
(1.49425 0.0308913 0)
(1.49193 0.0311757 0)
(1.48919 0.0313898 0)
(1.48607 0.0315571 0)
(1.48259 0.0317061 0)
(1.47874 0.0318433 0)
(1.47454 0.0319662 0)
(1.47 0.0320728 0)
(1.46512 0.032162 0)
(1.45993 0.0322311 0)
(1.45443 0.032281 0)
(1.44862 0.0323127 0)
(1.44253 0.0323254 0)
(1.43615 0.0323168 0)
(1.4295 0.0322877 0)
(1.42259 0.0322377 0)
(1.41542 0.0321673 0)
(1.408 0.0320752 0)
(1.40036 0.0319612 0)
(1.39251 0.0318324 0)
(1.38447 0.0316666 0)
(1.37627 0.0314343 0)
(1.36789 0.0311402 0)
(1.35935 0.030792 0)
(1.35065 0.0303905 0)
(1.34184 0.029934 0)
(1.33292 0.0294215 0)
(1.32391 0.0288526 0)
(1.31484 0.0282271 0)
(1.30572 0.0275473 0)
(1.29659 0.0268166 0)
(1.28745 0.0260342 0)
(1.27834 0.0252003 0)
(1.26928 0.0243171 0)
(1.26029 0.0233888 0)
(1.25136 0.0224167 0)
(1.24252 0.0214072 0)
(1.23383 0.0203707 0)
(1.2253 0.0193063 0)
(1.21696 0.0182187 0)
(1.20882 0.0171173 0)
(1.20091 0.0160093 0)
(1.19324 0.0148991 0)
(1.18584 0.0137946 0)
(1.17872 0.0126987 0)
(1.1719 0.0116184 0)
(1.16538 0.0105528 0)
(1.15918 0.00950994 0)
(1.1533 0.00848746 0)
(1.14778 0.00749172 0)
(1.1426 0.00651892 0)
(1.13779 0.00556862 0)
(1.13335 0.00464258 0)
(1.12927 0.00372909 0)
(1.1256 0.0028405 0)
(1.12228 0.00196192 0)
(1.11932 0.00109988 0)
(1.11676 0.000258906 0)
(1.11455 -0.000572855 0)
(1.11276 -0.00138461 0)
(1.1114 -0.00218531 0)
(1.11049 -0.00297189 0)
(1.11004 -0.00373148 0)
(1.11002 -0.00445726 0)
(1.11046 -0.00520378 0)
(1.11136 -0.00594798 0)
(1.11274 -0.00668747 0)
(1.1146 -0.00742503 0)
(1.11695 -0.00816352 0)
(1.1198 -0.00890493 0)
(1.12315 -0.0096502 0)
(1.12701 -0.0104 0)
(1.13138 -0.0111547 0)
(1.13628 -0.0119144 0)
(1.14171 -0.0126789 0)
(1.14766 -0.0134475 0)
(1.15416 -0.0142191 0)
(1.16119 -0.014992 0)
(1.16876 -0.0157634 0)
(1.17688 -0.01653 0)
(1.18553 -0.017288 0)
(1.19471 -0.0180326 0)
(1.20441 -0.0187581 0)
(1.21463 -0.0194589 0)
(1.22535 -0.0201297 0)
(1.23654 -0.0207647 0)
(1.2482 -0.0213577 0)
(1.2603 -0.0219018 0)
(1.27281 -0.0223886 0)
(1.2857 -0.0228084 0)
(1.29894 -0.0231529 0)
(1.31248 -0.0234149 0)
(1.32629 -0.0235858 0)
(1.34031 -0.0236571 0)
(1.35449 -0.023618 0)
(1.36876 -0.02346 0)
(1.38306 -0.0231753 0)
(1.39736 -0.0227567 0)
(1.41152 -0.0221995 0)
(1.42553 -0.0214969 0)
(1.43926 -0.0206474 0)
(1.45268 -0.0196451 0)
(1.47829 0.00466042 0)
(1.4809 0.0106452 0)
(1.48471 0.0140215 0)
(1.48854 0.0165654 0)
(1.49171 0.0187102 0)
(1.49459 0.0205513 0)
(1.49725 0.02207 0)
(1.49971 0.0233375 0)
(1.50185 0.0244012 0)
(1.50388 0.025341 0)
(1.50558 0.0261664 0)
(1.50743 0.0269228 0)
(1.50896 0.0276183 0)
(1.51026 0.0282593 0)
(1.51142 0.0288533 0)
(1.51243 0.0294055 0)
(1.51332 0.0299191 0)
(1.51408 0.0303942 0)
(1.51472 0.0308467 0)
(1.51525 0.031269 0)
(1.51565 0.0316631 0)
(1.51595 0.0320286 0)
(1.51613 0.0323647 0)
(1.51621 0.0326791 0)
(1.51617 0.0329534 0)
(1.51602 0.033208 0)
(1.51575 0.0334438 0)
(1.51536 0.0336621 0)
(1.51486 0.0338679 0)
(1.51427 0.0339981 0)
(1.51359 0.0340561 0)
(1.5128 0.0340457 0)
(1.51191 0.0339766 0)
(1.5109 0.0338485 0)
(1.50977 0.0336586 0)
(1.50853 0.0334039 0)
(1.50718 0.0330814 0)
(1.50572 0.0326894 0)
(1.50415 0.0322259 0)
(1.50249 0.0316904 0)
(1.50072 0.0310857 0)
(1.49886 0.0304162 0)
(1.4969 0.0296834 0)
(1.49485 0.028889 0)
(1.49272 0.028037 0)
(1.49053 0.0271322 0)
(1.48828 0.0261773 0)
(1.48597 0.0251753 0)
(1.48362 0.0241317 0)
(1.48123 0.0230517 0)
(1.47882 0.0219392 0)
(1.47639 0.0207994 0)
(1.47397 0.0196392 0)
(1.47156 0.0184664 0)
(1.46918 0.0172867 0)
(1.46684 0.0161049 0)
(1.46456 0.0149243 0)
(1.46234 0.01375 0)
(1.46021 0.0125786 0)
(1.45816 0.011406 0)
(1.45623 0.01024 0)
(1.45441 0.00908012 0)
(1.45272 0.00792637 0)
(1.45117 0.00677997 0)
(1.44978 0.00563373 0)
(1.44854 0.00449494 0)
(1.44749 0.0033725 0)
(1.44662 0.00224567 0)
(1.44596 0.00113208 0)
(1.44548 1.35252e-05 0)
(1.44521 -0.001103 0)
(1.44516 -0.00222479 0)
(1.44535 -0.0033561 0)
(1.44578 -0.00449098 0)
(1.44649 -0.00563121 0)
(1.44747 -0.00678079 0)
(1.44874 -0.00794294 0)
(1.45031 -0.00911997 0)
(1.45218 -0.0103135 0)
(1.45437 -0.0115246 0)
(1.4569 -0.0127538 0)
(1.45977 -0.0140013 0)
(1.46299 -0.0152666 0)
(1.46658 -0.0165491 0)
(1.47054 -0.0178476 0)
(1.47488 -0.0191604 0)
(1.47962 -0.0204849 0)
(1.48476 -0.0218178 0)
(1.49031 -0.0231547 0)
(1.49628 -0.0244901 0)
(1.50267 -0.0258182 0)
(1.50948 -0.0271305 0)
(1.51671 -0.0284177 0)
(1.52436 -0.0296704 0)
(1.53243 -0.030879 0)
(1.5409 -0.0320377 0)
(1.54977 -0.0331391 0)
(1.55902 -0.0341708 0)
(1.56866 -0.035118 0)
(1.57865 -0.0359672 0)
(1.58898 -0.0367052 0)
(1.59963 -0.0373182 0)
(1.61055 -0.037792 0)
(1.62172 -0.0381127 0)
(1.63309 -0.0382666 0)
(1.64464 -0.0382406 0)
(1.6563 -0.0380243 0)
(1.66804 -0.0376061 0)
(1.67979 -0.0369753 0)
(1.69152 -0.0361241 0)
(1.70316 -0.0350468 0)
(1.71466 -0.0337397 0)
(1.47792 0.00288428 0)
(1.47934 0.00814312 0)
(1.48193 0.0122119 0)
(1.48482 0.0153713 0)
(1.48742 0.0178653 0)
(1.48981 0.019915 0)
(1.49211 0.0215926 0)
(1.49435 0.0229818 0)
(1.4965 0.0241482 0)
(1.49854 0.025143 0)
(1.50048 0.0260244 0)
(1.50231 0.0267711 0)
(1.50408 0.0274557 0)
(1.50581 0.0280999 0)
(1.5075 0.0286916 0)
(1.50914 0.0292263 0)
(1.51075 0.029712 0)
(1.51229 0.0301569 0)
(1.51383 0.0305666 0)
(1.51529 0.0309502 0)
(1.51674 0.0312961 0)
(1.51816 0.0316135 0)
(1.51956 0.031909 0)
(1.52095 0.0321835 0)
(1.52231 0.032426 0)
(1.52369 0.0326459 0)
(1.525 0.0328362 0)
(1.52645 0.0330016 0)
(1.52785 0.0331364 0)
(1.52921 0.0332415 0)
(1.53055 0.0333065 0)
(1.53187 0.0333223 0)
(1.53315 0.0332837 0)
(1.5344 0.0331876 0)
(1.53562 0.0330322 0)
(1.5368 0.0328163 0)
(1.53793 0.032538 0)
(1.53902 0.0321957 0)
(1.54006 0.0317823 0)
(1.54103 0.0313228 0)
(1.54195 0.0308199 0)
(1.54281 0.0302282 0)
(1.54362 0.0295697 0)
(1.54437 0.0288503 0)
(1.54505 0.028074 0)
(1.54568 0.0272435 0)
(1.54625 0.0263607 0)
(1.54676 0.0254281 0)
(1.54722 0.0244527 0)
(1.54761 0.0234426 0)
(1.54794 0.022394 0)
(1.54823 0.0213025 0)
(1.54848 0.0201758 0)
(1.5487 0.0190245 0)
(1.54889 0.0178553 0)
(1.54906 0.0166726 0)
(1.54921 0.0154797 0)
(1.54936 0.0142798 0)
(1.54952 0.0130745 0)
(1.54969 0.0118641 0)
(1.54987 0.0106465 0)
(1.55009 0.00942054 0)
(1.55035 0.00818922 0)
(1.55066 0.00695534 0)
(1.55103 0.00571927 0)
(1.55147 0.00447948 0)
(1.55198 0.00323291 0)
(1.55257 0.00197864 0)
(1.55327 0.000714951 0)
(1.55407 -0.000561942 0)
(1.55498 -0.00185137 0)
(1.55601 -0.00315327 0)
(1.55717 -0.00446765 0)
(1.55847 -0.00579588 0)
(1.55992 -0.00714341 0)
(1.56154 -0.00851436 0)
(1.56333 -0.00991055 0)
(1.56531 -0.0113331 0)
(1.56748 -0.0127834 0)
(1.56985 -0.0142625 0)
(1.57244 -0.0157712 0)
(1.57526 -0.0173097 0)
(1.57832 -0.0188776 0)
(1.58163 -0.0204741 0)
(1.5852 -0.0220978 0)
(1.58905 -0.0237467 0)
(1.59318 -0.0254176 0)
(1.59759 -0.0271066 0)
(1.60232 -0.0288096 0)
(1.60735 -0.030518 0)
(1.61271 -0.0322285 0)
(1.6184 -0.0339275 0)
(1.62442 -0.0356042 0)
(1.63078 -0.0372456 0)
(1.63748 -0.0388307 0)
(1.64452 -0.0403611 0)
(1.65191 -0.0418353 0)
(1.65967 -0.0432391 0)
(1.66778 -0.0445525 0)
(1.67624 -0.0457568 0)
(1.68504 -0.0468332 0)
(1.69415 -0.0477619 0)
(1.70356 -0.0485245 0)
(1.71324 -0.0491033 0)
(1.72318 -0.049481 0)
(1.73334 -0.0496409 0)
(1.74368 -0.0495672 0)
(1.75417 -0.0492449 0)
(1.76475 -0.0486607 0)
(1.77539 -0.0478038 0)
(1.78604 -0.0466663 0)
(1.79664 -0.0452415 0)
(1.47778 0.00215116 0)
(1.47857 0.00631084 0)
(1.48018 0.00978319 0)
(1.48217 0.0125307 0)
(1.48419 0.0147637 0)
(1.48615 0.0166508 0)
(1.4881 0.0182727 0)
(1.49005 0.0196589 0)
(1.49195 0.0208531 0)
(1.49378 0.0218897 0)
(1.49556 0.0228084 0)
(1.49729 0.0236328 0)
(1.49898 0.0243918 0)
(1.50063 0.025093 0)
(1.50226 0.0257392 0)
(1.50388 0.0263328 0)
(1.50548 0.026882 0)
(1.50706 0.0273914 0)
(1.50864 0.027868 0)
(1.51022 0.0283174 0)
(1.51179 0.0287331 0)
(1.51338 0.0291162 0)
(1.51495 0.0294674 0)
(1.51654 0.0297875 0)
(1.51813 0.0300814 0)
(1.51973 0.0303449 0)
(1.52132 0.030569 0)
(1.52292 0.0307524 0)
(1.52451 0.030915 0)
(1.52613 0.0310547 0)
(1.52776 0.0311561 0)
(1.52941 0.0312082 0)
(1.53106 0.0312066 0)
(1.53271 0.0311497 0)
(1.53436 0.0310366 0)
(1.53599 0.0308659 0)
(1.53762 0.0306349 0)
(1.53923 0.0303435 0)
(1.54083 0.0299893 0)
(1.5424 0.0295752 0)
(1.54394 0.0290973 0)
(1.54547 0.0285563 0)
(1.54696 0.0279532 0)
(1.54841 0.0272922 0)
(1.54983 0.026569 0)
(1.55121 0.025783 0)
(1.55255 0.0249493 0)
(1.55386 0.0240616 0)
(1.55512 0.0231342 0)
(1.55637 0.0221632 0)
(1.55763 0.0211534 0)
(1.55881 0.0201089 0)
(1.55994 0.0190342 0)
(1.56102 0.0179329 0)
(1.56207 0.016808 0)
(1.56309 0.0156624 0)
(1.56408 0.014499 0)
(1.56505 0.0133201 0)
(1.56601 0.012129 0)
(1.56696 0.0109275 0)
(1.56791 0.00970962 0)
(1.56887 0.00846712 0)
(1.56986 0.00720437 0)
(1.57088 0.00592948 0)
(1.57193 0.0046443 0)
(1.57302 0.00334611 0)
(1.57415 0.00203362 0)
(1.57534 0.000708866 0)
(1.57658 -0.000630565 0)
(1.5779 -0.00198891 0)
(1.57928 -0.00336994 0)
(1.58076 -0.00477485 0)
(1.58233 -0.00620552 0)
(1.584 -0.0076647 0)
(1.58579 -0.00915573 0)
(1.5877 -0.0106813 0)
(1.58974 -0.0122433 0)
(1.59192 -0.0138437 0)
(1.59426 -0.0154842 0)
(1.59676 -0.0171662 0)
(1.59943 -0.0188906 0)
(1.60229 -0.0206577 0)
(1.60534 -0.0224672 0)
(1.6086 -0.0243184 0)
(1.61208 -0.0262097 0)
(1.61579 -0.0281389 0)
(1.61974 -0.0301028 0)
(1.62394 -0.0320973 0)
(1.62841 -0.034117 0)
(1.63315 -0.0361556 0)
(1.63821 -0.0382055 0)
(1.6435 -0.0402575 0)
(1.64922 -0.0423017 0)
(1.65514 -0.0443268 0)
(1.66156 -0.0463202 0)
(1.66835 -0.0482692 0)
(1.67547 -0.0501581 0)
(1.68296 -0.0519682 0)
(1.69079 -0.0536795 0)
(1.69898 -0.0552713 0)
(1.7075 -0.0567221 0)
(1.71635 -0.0580095 0)
(1.72552 -0.059111 0)
(1.73498 -0.0600041 0)
(1.74472 -0.0606661 0)
(1.7547 -0.0610751 0)
(1.76489 -0.0612099 0)
(1.77526 -0.0610511 0)
(1.78576 -0.0605816 0)
(1.79635 -0.0597865 0)
(1.80697 -0.0586543 0)
(1.81758 -0.0571764 0)
(1.47771 0.00170552 0)
(1.47819 0.00505031 0)
(1.47928 0.0080597 0)
(1.48076 0.0106509 0)
(1.48239 0.0128785 0)
(1.48406 0.0148209 0)
(1.48575 0.0165235 0)
(1.48745 0.0180093 0)
(1.48914 0.0193067 0)
(1.4908 0.0204468 0)
(1.49244 0.0214587 0)
(1.49404 0.0223629 0)
(1.49561 0.0231748 0)
(1.49716 0.0239094 0)
(1.49869 0.0245761 0)
(1.50021 0.0251828 0)
(1.50172 0.0257353 0)
(1.50321 0.0262401 0)
(1.50471 0.0267019 0)
(1.5062 0.0271245 0)
(1.50769 0.027508 0)
(1.50919 0.0278548 0)
(1.51069 0.0281676 0)
(1.51219 0.0284486 0)
(1.51371 0.0286974 0)
(1.51523 0.0289146 0)
(1.51677 0.0290993 0)
(1.51832 0.0292532 0)
(1.51988 0.0293799 0)
(1.52147 0.0294757 0)
(1.52307 0.0295321 0)
(1.52469 0.0295432 0)
(1.52632 0.0295067 0)
(1.52797 0.0294212 0)
(1.52962 0.0292851 0)
(1.53129 0.0290966 0)
(1.53295 0.028854 0)
(1.53461 0.0285564 0)
(1.53627 0.0282031 0)
(1.53791 0.0277946 0)
(1.53955 0.0273304 0)
(1.54117 0.0268083 0)
(1.54278 0.0262288 0)
(1.54436 0.0255909 0)
(1.54591 0.0249041 0)
(1.54743 0.0241664 0)
(1.54892 0.0233783 0)
(1.55038 0.0225377 0)
(1.55179 0.0216484 0)
(1.55317 0.0207073 0)
(1.55451 0.0197267 0)
(1.5558 0.018722 0)
(1.55708 0.0176901 0)
(1.55833 0.0166286 0)
(1.55955 0.0155378 0)
(1.56075 0.0144197 0)
(1.56193 0.0132766 0)
(1.5631 0.01211 0)
(1.56425 0.0109214 0)
(1.56542 0.00971151 0)
(1.56662 0.00848062 0)
(1.5678 0.00722879 0)
(1.56893 0.00595606 0)
(1.57011 0.00466223 0)
(1.57128 0.00334645 0)
(1.57251 0.00200759 0)
(1.57374 0.00064497 0)
(1.57504 -0.000742977 0)
(1.57641 -0.00215599 0)
(1.57784 -0.00359593 0)
(1.57934 -0.00506551 0)
(1.58092 -0.00656738 0)
(1.58258 -0.00810424 0)
(1.58434 -0.00967893 0)
(1.58621 -0.0112944 0)
(1.58819 -0.0129536 0)
(1.59029 -0.0146592 0)
(1.59253 -0.0164135 0)
(1.59491 -0.0182188 0)
(1.59744 -0.0200768 0)
(1.60014 -0.0219888 0)
(1.60302 -0.0239557 0)
(1.60609 -0.0259778 0)
(1.60936 -0.0280546 0)
(1.61284 -0.030185 0)
(1.61655 -0.0323671 0)
(1.6205 -0.0345979 0)
(1.6247 -0.0368737 0)
(1.62918 -0.0391885 0)
(1.63393 -0.0415383 0)
(1.63899 -0.0439116 0)
(1.64435 -0.0463044 0)
(1.65004 -0.0487071 0)
(1.65606 -0.0511097 0)
(1.66242 -0.0535073 0)
(1.66911 -0.0558697 0)
(1.67616 -0.0581671 0)
(1.68359 -0.0603786 0)
(1.69138 -0.0624861 0)
(1.69954 -0.0644684 0)
(1.70807 -0.0663009 0)
(1.71695 -0.0679575 0)
(1.72617 -0.069411 0)
(1.73572 -0.0706337 0)
(1.74557 -0.0715973 0)
(1.75569 -0.0722741 0)
(1.76606 -0.0726375 0)
(1.77663 -0.0726631 0)
(1.78736 -0.0723286 0)
(1.79821 -0.0716152 0)
(1.80911 -0.0705076 0)
(1.82003 -0.0689941 0)
(1.47768 0.00141801 0)
(1.47802 0.00422026 0)
(1.4788 0.00684972 0)
(1.47992 0.00920912 0)
(1.48122 0.0112857 0)
(1.4826 0.0131136 0)
(1.48403 0.0147301 0)
(1.4855 0.0161586 0)
(1.48699 0.0174208 0)
(1.48848 0.0185392 0)
(1.48997 0.0195361 0)
(1.49145 0.0204294 0)
(1.49291 0.0212344 0)
(1.49437 0.0219647 0)
(1.49581 0.02263 0)
(1.49725 0.0232371 0)
(1.49869 0.0237919 0)
(1.50012 0.0242994 0)
(1.50156 0.0247642 0)
(1.50299 0.0251894 0)
(1.50442 0.0255775 0)
(1.50586 0.0259303 0)
(1.50731 0.0262493 0)
(1.50876 0.0265358 0)
(1.51022 0.0267902 0)
(1.51169 0.0270125 0)
(1.51317 0.0272021 0)
(1.51466 0.0273583 0)
(1.51616 0.0274806 0)
(1.51768 0.0275673 0)
(1.51921 0.0276153 0)
(1.52075 0.0276211 0)
(1.52231 0.0275823 0)
(1.52387 0.0274968 0)
(1.52544 0.0273627 0)
(1.52702 0.0271783 0)
(1.52859 0.0269424 0)
(1.53017 0.0266541 0)
(1.53174 0.0263126 0)
(1.5333 0.0259181 0)
(1.53486 0.02547 0)
(1.5364 0.0249674 0)
(1.53793 0.0244104 0)
(1.53943 0.0238002 0)
(1.54092 0.023138 0)
(1.54238 0.0224251 0)
(1.54382 0.021663 0)
(1.54524 0.020853 0)
(1.54662 0.0199981 0)
(1.54798 0.0190996 0)