/*--------------------------------*- C++ -*----------------------------------*\
| =========                 |                                                 |
| \\      /  F ield         | OpenFOAM: The Open Source CFD Toolbox           |
|  \\    /   O peration     | Version:  2206                                  |
|   \\  /    A nd           | Website:  www.openfoam.com                      |
|    \\/     M anipulation  |                                                 |
\*---------------------------------------------------------------------------*/
FoamFile
{
    version     2.0;
    format      ascii;
    arch        "LSB;label=32;scalar=64";
    class       surfaceScalarField;
    location    "18.6999";
    object      ddtCorrDdt0(phi);
}
// * * * * * * * * * * * * * * * * * * * * * * * * * * * * * * * * * * * * * //

dimensions      [0 3 -2 0 0 0 0];

oriented        oriented;

internalField   nonuniform List<scalar> 
3588
(
1.75215e-05
-5.12545e-06
2.43404e-05
-6.8189e-06
3.23125e-05
-7.97211e-06
4.09926e-05
-8.68003e-06
4.9977e-05
-8.98443e-06
5.86083e-05
-8.63132e-06
6.54341e-05
-6.82579e-06
-2.97684e-06
6.84109e-05
2.88085e-05
-8.37673e-06
3.28553e-05
-1.08657e-05
3.76377e-05
-1.27545e-05
4.30803e-05
-1.41226e-05
4.92201e-05
-1.51243e-05
5.64077e-05
-1.58188e-05
6.58269e-05
-1.6245e-05
-1.7548e-05
8.0398e-05
3.14039e-05
-9.48046e-06
3.26042e-05
-1.2066e-05
3.40894e-05
-1.42397e-05
3.60211e-05
-1.60544e-05
3.85979e-05
-1.77011e-05
4.22e-05
-1.94209e-05
4.7508e-05
-2.15531e-05
-2.50195e-05
5.49795e-05
2.24492e-05
-9.06962e-06
2.19624e-05
-1.15792e-05
2.15688e-05
-1.38461e-05
2.14611e-05
-1.59467e-05
2.17159e-05
-1.79559e-05
2.25276e-05
-2.02325e-05
2.41965e-05
-2.3222e-05
-2.76455e-05
2.68225e-05
1.77862e-05
-8.26463e-06
1.67743e-05
-1.05673e-05
1.57286e-05
-1.28004e-05
1.48482e-05
-1.50662e-05
1.4468e-05
-1.75757e-05
1.4698e-05
-2.04626e-05
1.54307e-05
-2.39546e-05
-2.82753e-05
1.60605e-05
1.57e-05
-7.38321e-06
1.4579e-05
-9.44624e-06
1.33617e-05
-1.15831e-05
1.21083e-05
-1.38129e-05
1.08056e-05
-1.62729e-05
9.46504e-06
-1.9122e-05
8.03317e-06
-2.25228e-05
-2.67098e-05
6.46769e-06
1.36e-05
-6.22199e-06
1.20796e-05
-7.92591e-06
1.02501e-05
-9.75361e-06
8.21636e-06
-1.17791e-05
6.03187e-06
-1.40884e-05
3.64928e-06
-1.67394e-05
9.44522e-07
-1.9818e-05
-2.33733e-05
-2.39201e-06
9.72728e-06
-4.61265e-06
7.77422e-06
-5.97285e-06
5.51008e-06
-7.48947e-06
2.91254e-06
-9.18156e-06
-9.06977e-08
-1.10852e-05
-3.60561e-06
-1.32245e-05
-7.80063e-06
-1.5623e-05
-1.81506e-05
-1.30233e-05
4.67444e-06
-2.50035e-06
2.02491e-06
-3.32331e-06
-1.21643e-06
-4.24813e-06
-5.11824e-06
-5.27975e-06
-9.77623e-06
-6.42717e-06
-1.53113e-05
-7.68945e-06
-2.19606e-05
-8.9737e-06
-1.02019e-05
-2.99093e-05
1.17085e-06
-2.15246e-06
-6.40059e-06
-1.16803e-05
-1.81075e-05
-2.57969e-05
-3.47706e-05
-4.49725e-05
0.000132601
1.57301e-05
-7.99203e-05
0.000195596
4.17068e-06
-6.71652e-05
0.000269918
-1.9211e-05
-5.51112e-05
0.000337581
-6.97271e-05
2.06405e-06
0.000392211
-0.000141109
8.64791e-05
0.00043254
-0.000202508
0.000162179
0.000448882
-0.0002473
0.000230959
0.000432737
-0.000296105
0.00031225
0.000361699
-0.000328351
0.000399389
0.000226149
-0.000335079
0.000470629
2.55694e-05
-0.000316802
0.000517382
-0.000217733
-0.000269746
0.000513048
-0.000484675
-0.00019343
0.000460373
-0.000716372
-0.000106233
0.00033793
-0.000900898
2.02069e-05
0.000164319
-0.00103944
0.000177086
-3.85485e-05
-0.00113616
0.000362303
-0.000265579
-0.00115156
0.000538325
-0.000522923
-0.00103929
0.000680982
-0.000793254
-0.00080903
0.000732427
-0.000962687
-0.000533293
0.000658881
-0.000934618
-0.00025587
0.000494778
-0.000772201
-2.00183e-05
0.00034218
-0.000578031
0.000158455
0.000259457
-0.000437931
0.000309367
0.000177758
-0.00032867
0.00044962
8.16078e-05
-0.000221861
0.000557907
-6.81729e-06
-0.00010147
0.000631274
-7.35558e-05
1.88497e-07
0.000674609
-0.000125864
8.25286e-05
0.000693123
-0.000168483
0.000149969
0.000687453
-0.000194458
0.000200128
0.000658631
-0.000203512
0.000232334
0.000606691
-0.000203258
0.000255197
0.000536936
-0.000197962
0.000267717
0.000478259
-0.000181775
0.000240452
0.000475992
-0.000137431
0.000139697
0.000552725
-5.3036e-05
-2.36968e-05
0.000680568
4.83408e-05
-0.000176184
0.000785264
0.000120247
-0.000224942
0.000796874
0.000135541
-0.000147151
0.000701692
7.50539e-05
2.01278e-05
0.00051538
-4.52088e-05
0.000231521
0.000293625
-0.000201118
0.000422873
8.74843e-05
-0.000349787
0.000555927
-9.88379e-05
-0.000457483
0.000643805
-0.000243708
-0.000513911
0.000658782
-0.000326384
-0.000518456
0.000601131
-0.00037772
-0.000464569
0.000515905
-0.00040945
-0.000388491
0.000420221
-0.000426469
-0.000308347
0.000325366
-0.000439395
-0.00022402
0.000236947
-0.000455689
-0.000137939
0.000154232
-0.000478272
-5.29495e-05
7.55323e-05
-0.000509712
3.49812e-05
-3.54104e-06
-0.00055364
0.000135753
-9.18241e-05
-0.000613284
0.000257025
-0.000197382
-0.000688193
0.000399248
-0.000324339
-0.000762073
0.00054868
-0.0004748
-0.000781353
0.000649632
-0.000630352
-0.000707857
0.000659342
-0.000732838
-0.000558673
0.000586553
-0.000735737
-0.000384835
0.000485796
-0.000659635
-0.000221575
0.000373069
-0.000536328
-7.65008e-05
0.000251642
-0.000396717
9.26796e-05
0.00012207
-0.00029125
0.000292881
-3.14278e-05
-0.000168773
0.000459229
-0.000159644
-6.704e-06
0.000580774
-0.000254705
0.00013316
0.000641964
-0.000289457
0.000228267
0.000647926
-0.000268812
0.00026285
0.000619871
-0.000208126
0.000236181
0.000572826
-0.000119688
0.000166732
0.000517203
-2.17428e-05
7.73664e-05
0.000458475
6.908e-05
-1.03525e-05
0.00040308
0.000129554
-7.41582e-05
0.000353715
0.000148541
-9.91765e-05
0.000310908
0.000125436
-8.26287e-05
0.000272481
6.84985e-05
-3.00715e-05
0.000231763
-1.02859e-05
5.10036e-05
0.000184887
-9.76844e-05
0.000144561
0.000130988
-0.000179818
0.000233717
7.16718e-05
-0.000247629
0.000306945
8.7971e-06
-0.000294901
0.000357776
-5.47405e-05
-0.00031929
0.000382827
-0.000113647
-0.000320699
0.000379605
-0.000165952
-0.000301293
0.000353597
-0.000210893
-0.000265426
0.000310367
-0.000247792
-0.000217293
0.000254193
-0.000276506
-0.000160871
0.000189585
-0.000297254
-9.9639e-05
0.000120387
-0.000310773
-3.65247e-05
5.00439e-05
-0.000318684
2.62209e-05
-1.83099e-05
-0.000323412
8.70309e-05
-8.23031e-05
-0.000327862
0.000145181
-0.000140731
-0.000334148
0.00020052
-0.000194235
-0.000340796
0.000251603
-0.000244955
-0.000338382
0.000290484
-0.000292899
-0.000316589
0.000308735
-0.000330527
-0.000272417
0.000302287
-0.000346459
-0.00021144
0.000275159
-0.000336136
-0.00013951
0.000233191
-0.000305121
-4.96183e-05
0.000176106
-0.000265998
5.57727e-05
0.000113732
-0.000219123
0.000166784
3.70041e-05
-0.000148016
0.000263812
-2.6989e-05
-7.00392e-05
0.000330415
-6.67596e-05
1.56957e-07
0.000358955
-7.4415e-05
4.58753e-05
0.000354164
-5.82177e-05
6.30081e-05
0.000329243
-3.1e-05
5.5921e-05
0.00029467
-2.11086e-06
3.66842e-05
0.000257097
1.96607e-05
1.79122e-05
0.000221174
2.87381e-05
7.18542e-06
0.00018939
2.3283e-05
8.50017e-06
0.000161886
4.60961e-06
2.28944e-05
0.000136365
-2.4267e-05
4.97884e-05
0.00011025
-5.97171e-05
8.58321e-05
8.30772e-05
-9.66191e-05
0.000123792
5.43129e-05
-0.000132252
0.000161016
-0.00016269
0.000193095
0.000112841
-1.67127e-05
0.000146412
-2.94006e-05
0.000179453
-5.22517e-05
0.000199283
-8.9557e-05
0.000195916
-0.000137743
0.000174468
-0.00018106
0.000136918
-0.000209751
8.08414e-05
-0.000240028
6.46369e-06
-0.000253974
-8.49055e-05
-0.00024371
-0.000193312
-0.000208396
-0.000314792
-0.000148266
-0.000444927
-6.32955e-05
-0.00057969
2.85302e-05
-0.000696445
0.000136963
-0.000781541
0.000262181
-0.00078847
0.000369232
-0.000717969
0.000467824
-0.000587997
0.00055101
-0.000392937
0.000537366
-0.000187962
0.000453906
-2.3624e-05
0.00033044
0.000101509
0.000217047
0.000229045
0.000131921
0.000378976
2.78268e-05
0.000516135
-5.5551e-05
0.000614262
-0.000104945
0.000678002
-0.000137296
0.000712624
-0.000160486
0.00071498
-0.000170838
0.000689516
-0.000168994
0.000644526
-0.000158522
0.0005802
-0.000138932
0.000496292
-0.000114054
0.000402854
-8.83373e-05
0.000325739
-6.03158e-05
0.000295955
-2.3252e-05
0.000323873
2.04232e-05
0.000401363
4.27565e-05
0.000501058
3.5846e-05
0.000573842
2.2694e-06
0.000578945
-5.03119e-05
0.00048104
-0.000103213
0.000307187
-0.000175933
0.000116001
-0.000266297
-6.98403e-05
-0.00032807
-0.000226012
-0.000362285
-0.000336818
-0.000353763
-0.00040716
-0.000318149
-0.000455665
-0.000259843
-0.000498462
-0.000181223
-0.000540393
-9.6007e-05
-0.000583538
-9.80508e-06
-0.000633469
8.49131e-05
-0.000700553
0.000202836
-0.000792393
0.000348865
-0.000881177
0.000488033
-0.000887322
0.000554825
-0.000788841
0.000551151
-0.000635597
0.000506099
-0.000443772
0.000394727
-0.000254163
0.000296188
-8.9448e-05
0.000208354
9.24135e-05
6.97803e-05
0.000301655
-8.71715e-05
0.000497284
-0.000227057
0.0006288
-0.00029116
0.000673477
-0.000299382
0.00065631
-0.000272291
0.000605106
-0.000217609
0.000539766
-0.000142785
0.000467986
-4.79087e-05
0.000407659
3.85849e-05
0.000356004
0.000120735
0.000321725
0.000163832
0.000299961
0.000170305
0.000284409
0.000140987
0.000267306
8.56016e-05
0.000240477
1.65437e-05
0.000198526
-5.5734e-05
0.000143505
-0.000124797
8.16439e-05
-0.000185767
1.67871e-05
-0.000230044
-4.92349e-05
-0.000253268
-0.000111855
-0.000258079
-0.000168283
-0.000244865
-0.000218223
-0.000215486
-0.000260047
-0.000175469
-0.000293419
-0.0001275
-0.000319858
-7.32e-05
-0.000341527
-1.48553e-05
-0.000360304
4.4998e-05
-0.00037743
0.000104157
-0.000392493
0.000160244
-0.000399132
0.00020716
-0.00038751
0.000239981
-0.000350557
0.000253531
-0.000287975
0.000246153
-0.000208962
0.000223274
-0.000119568
0.000185765
-1.25966e-05
0.00012622
0.00010163
6.18789e-05
0.00020902
6.34266e-06
0.000286414
-4.03906e-05
0.000324771
-6.53457e-05
0.000326297
-6.82861e-05
0.000306307
-5.44247e-05
0.000277807
-2.97171e-05
0.0002472
-3.9386e-07
0.000219109
2.59808e-05
0.000196051
4.27189e-05
0.00017826
4.65286e-05
0.000164452
3.70913e-05
0.000152149
1.69128e-05
0.000138165
-1.02835e-05
0.000119592
-4.11443e-05
9.59726e-05
-7.29995e-05
6.78538e-05
-0.000104133
-0.000131201
6.75781e-05
-2.93113e-05
7.94214e-05
-4.12439e-05
8.73015e-05
-6.01317e-05
8.38257e-05
-8.60811e-05
6.35973e-05
-0.000117514
2.88299e-05
-0.000146293
-1.43822e-05
-0.000166539
-7.43936e-05
-0.000180017
-0.000147653
-0.000180714
-0.000230375
-0.000160988
-0.000318006
-0.000120765
-0.000396133
-7.01391e-05
-0.000453665
-5.76328e-06
-0.000508098
8.29631e-05
-0.000555633
0.000184498
-0.000569097
0.000275645
-0.000549966
0.000350102
-0.000501297
0.000419154
-0.000427441
0.000477154
-0.000312288
0.000422213
-0.000153319
0.000294938
-7.01536e-06
0.000184136
0.000110148
9.98836e-05
0.000266987
-2.49174e-05
0.000431144
-0.00013633
0.000558552
-0.00018296
0.00065124
-0.000197632
0.000710643
-0.000196699
0.000729322
-0.000179165
0.000708923
-0.00015044
0.000661064
-0.000121135
0.000593616
-9.10734e-05
0.000513293
-5.86089e-05
0.000424979
-2.57399e-05
0.000333791
2.85088e-06
0.000249066
2.44091e-05
0.000185532
4.02823e-05
0.000156349
4.9606e-05
0.000158117
4.09885e-05
0.000178012
1.59505e-05
0.00020076
-2.04786e-05
0.000228307
-7.78583e-05
0.00027252
-0.000147426
0.000281695
-0.000185108
0.000207465
-0.000192067
7.18058e-05
-0.000192411
-9.17387e-05
-0.00019874
-0.000241027
-0.000204474
-0.000363816
-0.00019536
-0.000472299
-0.000151361
-0.00056765
-8.58715e-05
-0.000649009
-1.46484e-05
-0.000721078
6.22643e-05
-0.000791804
0.000155639
-0.000870305
0.000281337
-0.000933688
0.000412248
-0.000922433
0.000476778
-0.000789458
0.000421851
-0.000581408
0.000343101
-0.000364776
0.000289467
-0.000172317
0.000202268
4.28535e-05
8.10168e-05
0.000277718
-2.65101e-05
0.000468967
-0.00012147
0.000583821
-0.000202025
0.000614245
-0.000257481
0.000592559
-0.000269475
0.000538905
-0.000245728
0.000460689
-0.000194074
0.000376789
-0.000133709
0.000302682
-6.86777e-05
0.000237486
1.72873e-05
0.000190682
8.53888e-05
0.000172697
0.00013872
0.000183072
0.000153458
0.00020889
0.000144487
0.000237578
0.000112299
0.000254455
6.87242e-05
0.000248681
2.23176e-05
0.000218081
-2.5134e-05
0.000167478
-7.41939e-05
0.000103591
-0.00012188
3.37991e-05
-0.000160253
-3.90045e-05
-0.000180464
-0.000106556
-0.000190528
-0.000167431
-0.000183989
-0.000223792
-0.000159125
-0.00027185
-0.000127411
-0.000312566
-8.67836e-05
-0.000348623
-3.71436e-05
-0.000381733
1.82555e-05
-0.000409748
7.30122e-05
-0.000427001
0.00012141
-0.000421486
0.000154729
-0.000385171
0.000170844
-0.000321119
0.000175929
-0.000238121
0.000170534
-0.000140381
0.000148413
-3.03394e-05
0.000113232
8.06772e-05
7.47481e-05
0.000176028
3.08694e-05
0.000240305
-2.39803e-06
0.000272464
-2.58159e-05
0.000271072
-3.89992e-05
0.000248546
-4.282e-05
0.00021759
-3.73292e-05
0.000187181
-2.4016e-05
0.000163042
-5.5786e-06
0.000146582
1.60669e-05
0.000138074
3.44882e-05
0.000137472
4.33207e-05
0.0001416
4.24014e-05
0.000145949
3.27414e-05
0.000146935
1.59275e-05
0.000142238
-5.58678e-06
0.000130223
-2.91295e-05
0.000110412
-5.31882e-05
8.29822e-05
-7.67031e-05
-9.78757e-05
3.14244e-05
-3.39132e-05
3.39604e-05
-4.37799e-05
3.20026e-05
-5.81739e-05
2.26671e-05
-7.67456e-05
3.15286e-06
-9.80003e-05
-2.66154e-05
-0.000116525
-6.55092e-05
-0.000127645
-0.00011524
-0.000130286
-0.000173491
-0.000122463
-0.000234627
-9.98511e-05
-0.000294347
-6.10458e-05
-0.000350008
-1.44782e-05
-0.000404735
4.89643e-05
-0.000444206
0.000122434
-0.000464429
0.000204721
-0.000469707
0.000280923
-0.000458376
0.00033877
-0.000439618
0.000400397
-0.000394652
0.000432188
-0.000292581
0.000320143
-0.000164767
0.000167124
-6.00116e-05
7.93803e-05
8.94086e-05
-4.95365e-05
0.000264221
-0.00019973
0.000421157
-0.000293266
0.000555031
-0.000316834
0.000649816
-0.000292417
0.000693952
-0.000240835
0.000687941
-0.000173153
0.00064693
-0.000109429
0.000579235
-5.34398e-05
0.000493862
-5.70082e-06
0.000400531
3.47225e-05
0.000308739
6.60517e-05
0.000222504
8.90865e-05
0.000143834
0.000103079
7.97546e-05
0.000104362
4.00826e-05
8.9278e-05
2.38557e-05
5.72154e-05
2.05028e-05
1.93035e-05
2.56219e-05
-2.55977e-05
2.55997e-05
-7.78361e-05
6.54315e-06
-0.00012837
-1.24909e-05
-0.000166074
-2.71756e-05
-0.000177382
-6.24021e-05
-0.000157184
-0.00012669
-0.000134452
-0.000221006
-0.000110158
-0.000342816
-7.35489e-05
-0.000464578
-2.95989e-05
-0.000576054
2.56045e-05
-0.000678596
8.78938e-05
-0.000767489
0.000151157
-0.000824016
0.000212166
-0.000799485
0.000256805
-0.00067258
0.000285344
-0.000476772
0.00028097
-0.000282395
0.000227473
-8.32281e-05
0.000143934
0.000132368
7.38701e-05
0.000309617
2.50203e-05
0.000428675
-3.8042e-05
0.000498698
-9.65329e-05
0.00052357
-0.000146341
0.000502251
-0.000180706
0.000433939
-0.000189168
0.000349064
-0.0001846
0.000258737
-0.000155401
0.000176904
-0.000112241
0.000111445
-6.82497e-05
5.85408e-05
-1.57735e-05
1.11196e-05
6.47085e-05
-1.13089e-05
0.000107817
9.98928e-06
0.000117421
5.75969e-05
0.00010585
0.000113472
8.86125e-05
0.000165942
5.98287e-05
0.000206559
2.81073e-05
0.000222016
6.86087e-06
0.000208256
-1.13742e-05
0.000171154
-3.70921e-05
0.000116244
-6.69695e-05
4.97626e-05
-9.37716e-05
-2.05759e-05
-0.000110125
-9.73621e-05
-0.000113741
-0.000172002
-0.000109349
-0.000236107
-9.50201e-05
-0.000290084
-7.34342e-05
-0.000334009
-4.28577e-05
-0.000366856
-4.29714e-06
-0.000382512
3.3912e-05
-0.000372775
6.32751e-05
-0.000336177
8.4812e-05
-0.000276968
9.55199e-05
-0.000202302
9.61774e-05
-0.00011644
9.00679e-05
-2.524e-05
7.93338e-05
6.20103e-05
6.11623e-05
0.000132001
4.32418e-05
0.00017883
2.79188e-05
0.000196434
1.32656e-05
0.000192328
1.70733e-06
0.000174194
-7.68196e-06
0.000148329
-1.3134e-05
0.000120509
-1.49998e-05
9.61137e-05
-1.29339e-05
7.8746e-05
-6.64825e-06
6.97163e-05
3.4511e-06
7.03879e-05
1.53952e-05
8.05607e-05
2.43154e-05
9.65122e-05
2.73692e-05
0.000113353
2.55603e-05
0.000126807
1.92875e-05
0.000133664
9.07056e-06
0.000132365
-4.28808e-06
0.000122833
-1.95974e-05
0.000105393
-3.57477e-05
8.03457e-05
-5.1656e-05
-6.64201e-05
1.63573e-05
-3.421e-05
1.51864e-05
-4.2609e-05
1.04642e-05
-5.34518e-05
-3.34165e-07
-6.59472e-05
-1.91816e-05
-7.91528e-05
-4.61045e-05
-8.96016e-05
-7.97482e-05
-9.40012e-05
-0.000119675
-9.0359e-05
-0.000163974
-7.8165e-05
-0.000207774
-5.60509e-05
-0.000255566
-1.32542e-05
-0.000300603
3.05597e-05
-0.000337633
8.59936e-05
-0.000364522
0.000149323
-0.000377876
0.000218074
-0.000383414
0.000286462
-0.000383364
0.00033872
-0.000369743
0.000386776
-0.000324468
0.000386914
-0.000244781
0.000240456
-0.000160015
8.23583e-05
-7.61091e-05
-4.52607e-06
8.33405e-05
-0.000208986
0.000248107
-0.000364496
0.000393711
-0.000438871
0.000506314
-0.000429436
0.000568915
-0.000355018
0.000581501
-0.000253422
0.000546571
-0.000138223
0.000480597
-4.34554e-05
0.000394568
3.25894e-05
0.000306295
8.25724e-05
0.000221039
0.000119978
0.000145412
0.000141679
7.69692e-05
0.00015753
1.18814e-05
0.000168166
-3.72882e-05
0.000153532
-6.38273e-05
0.000115817
-7.59673e-05
6.93554e-05
-7.9063e-05
2.23992e-05
-8.46532e-05
-2.00075e-05
-8.53518e-05
-7.71375e-05
-9.63479e-05
-0.000117374
-0.000122037
-0.000140385
-0.000127233
-0.000172187
-0.000157296
-0.000127121
-0.000202804
-8.89441e-05
-0.00026356
-4.94017e-05
-0.000331595
-5.51477e-06
-0.000391863
3.06693e-05
-0.000440848
7.45899e-05
-0.000464981
0.000112027
-0.000449041
0.000135217
-0.000369735
0.00013286
-0.000234948
0.000122019
-7.34955e-05
0.000123891
6.4586e-05
0.000142888
0.000161236
0.000130823
0.000213794
9.13763e-05
0.000243734
4.393e-05
0.000281867
-1.3112e-05
0.000314717
-7.08922e-05
0.00033076
-0.000112576
0.000315906
-0.000131487
0.000270729
-0.000135529
0.000209499
-0.000127939
0.000136048
-0.000111148
6.75661e-05
-8.69194e-05
1.00892e-05
-5.47639e-05
-5.36751e-05
-4.48541e-06
-0.000115041
4.5592e-05
-0.00013596
8.56278e-05
-0.000116457
8.83148e-05
-7.36244e-05
7.45885e-05
-2.5146e-05
5.73718e-05
2.10012e-05
4.24654e-05
6.35804e-05
1.72495e-05
9.43815e-05
-2.69379e-06
0.000117264
-1.60218e-05
0.000133386
-2.74961e-05
0.000125874
-2.95805e-05
9.41387e-05
-3.52338e-05
4.58865e-05
-4.55194e-05
-8.85254e-06
-5.53863e-05
-6.39867e-05
-5.86073e-05
-0.000119166
-5.41696e-05
-0.000170825
-4.33618e-05
-0.000212596
-3.16629e-05
-0.00023835
-1.7104e-05
-0.000238999
-3.64743e-06
-0.000213734
8.64693e-06
-0.000171542
2.1083e-05
-0.000120146
3.3416e-05
-6.70286e-05
4.24022e-05
-1.79238e-05
4.70727e-05
2.47196e-05
4.74245e-05
5.80277e-05
4.60257e-05
7.87522e-05
4.04378e-05
8.73221e-05
3.46719e-05
8.61129e-05
2.9128e-05
7.87956e-05
2.05829e-05
6.84652e-05
1.20377e-05
5.62621e-05
4.52116e-06
4.40534e-05
-9.25212e-07
3.32236e-05
-4.17007e-06
2.51109e-05
-4.8212e-06
2.14401e-05
-2.97745e-06
2.38633e-05
1.02784e-06
3.39764e-05
5.28209e-06
4.97458e-05
8.54605e-06
6.70994e-05
1.00157e-05
8.29952e-05
9.6644e-06
9.49307e-05
7.35201e-06
0.000101074
2.9273e-06
0.000100525
-3.73901e-06
9.34782e-05
-1.25506e-05
8.03002e-05
-2.25698e-05
6.10966e-05
-3.24523e-05
-4.26919e-05
4.29257e-06
-3.20349e-05
3.23441e-07
-3.86398e-05
-7.06652e-06
-4.60618e-05
-1.93002e-05
-5.37135e-05
-3.73087e-05
-6.11444e-05
-6.07652e-05
-6.61451e-05
-8.8301e-05
-6.64654e-05
-0.000119402
-5.92582e-05
-0.000156038
-4.15287e-05
-0.000193834
-1.82547e-05
-0.000222345
1.52564e-05
-0.000243889
5.21035e-05
-0.000260132
0.000102237
-0.000270613
0.000159804
-0.000267952
0.000215413
-0.000261905
0.000280415
-0.000254505
0.00033132
-0.000206336
0.000338606
-0.000151572
0.00033215
-0.000121797
0.000210681
-0.000104916
6.54781e-05
-4.28762e-05
-6.65662e-05
4.26155e-05
-0.000294478
0.000136329
-0.000458209
0.000234218
-0.00053676
0.000287601
-0.000482819
0.000306069
-0.000373486
0.000276389
-0.000223742
0.000224666
-8.64999e-05
0.000175419
5.79202e-06
0.000114736
9.32725e-05
5.92554e-05
0.000138053
9.55191e-06
0.000169682
-3.11591e-05
0.00018239
-5.77025e-05
0.000184073
-6.83091e-05
0.000178773
-5.70426e-05
0.000142265
-4.17601e-05
0.000100535
-3.11239e-05
5.87192e-05
-2.80508e-05
1.93262e-05
-3.8737e-05
-9.32134e-06
-6.01321e-05
-5.57424e-05
-8.83949e-05
-8.91108e-05
-0.000117133
-0.000111647
-0.00015754
-0.000131779
-0.000166929
-0.000117732
-0.00016008
-9.57936e-05
-0.000147246
-6.22353e-05
-0.000124503
-2.82577e-05
-8.83141e-05
-5.51961e-06
-2.80198e-05
1.42956e-05
5.05057e-05
3.35013e-05
0.000112675
7.30476e-05
0.00013225
0.000113285
0.000100348
0.000153921
4.54511e-05
0.000178788
1.96431e-05
0.000168696
2.9027e-05
0.000121439
4.95489e-05
7.08544e-05
8.8265e-05
5.21394e-06
0.00014135
-6.6197e-05
0.000178035
-0.000107577
0.000184054
-0.000118595
0.000160757
-0.00010819
0.000119109
-9.38807e-05
6.7599e-05
-7.64291e-05
1.29203e-05
-5.64695e-05
-4.46957e-05
-2.93034e-05
-0.000100327
8.67004e-07
-0.000141493
3.66811e-05
-0.000149966
5.40645e-05
-0.000122564
5.8226e-05
-8.51399e-05
5.08908e-05
-4.73257e-05
3.67743e-05
-1.46433e-05
2.46894e-05
1.69497e-05
1.08724e-05
4.49068e-05
-1.07077e-05
6.25969e-05
-2.03839e-05
6.73118e-05
-2.07367e-05
6.05015e-05
-2.06857e-05
5.07865e-05
-1.98656e-05
3.79409e-05
-2.23881e-05
2.06989e-05
-2.82774e-05
-1.43872e-06
-3.32487e-05
-2.47919e-05
-3.52541e-05
-4.63322e-05
-3.26293e-05
-6.29872e-05
-2.67069e-05
-7.53057e-05
-1.93444e-05
-8.13133e-05
-1.10964e-05
-8.1135e-05
-3.82569e-06
-7.56727e-05
3.18459e-06
-6.58172e-05
1.12275e-05
-5.18459e-05
1.94448e-05
-3.54866e-05
2.60429e-05
-1.88585e-05
3.04446e-05
-4.28739e-06
3.28533e-05
8.22792e-06
3.35104e-05
1.64804e-05
3.21854e-05
2.19231e-05
2.92291e-05
2.62562e-05
2.47949e-05
2.8136e-05
1.87031e-05
2.78739e-05
1.22998e-05
2.59883e-05
6.40668e-06
2.34763e-05
1.58683e-06
2.11797e-05
-1.87347e-06
1.99207e-05
-3.56223e-06
2.08613e-05
-3.91805e-06
2.44037e-05
-2.51451e-06
3.00032e-05
-3.17439e-07
3.65959e-05
1.95338e-06
4.29423e-05
3.66932e-06
4.82218e-05
4.38486e-06
5.18043e-05
3.76952e-06
5.33108e-05
1.42083e-06
5.23598e-05
-2.78801e-06
4.84428e-05
-8.63367e-06
4.116e-05
-1.5287e-05
3.06247e-05
-2.19171e-05
-2.78262e-05
-6.95214e-06
-2.74748e-05
-1.35696e-05
-3.20224e-05
-2.27805e-05
-3.68509e-05
-3.54126e-05
-4.10814e-05
-5.24318e-05
-4.41251e-05
-7.31276e-05
-4.54494e-05
-9.60341e-05
-4.35588e-05
-0.000118815
-3.64773e-05
-0.000137415
-2.29286e-05
-0.000153247
-2.42246e-06
-0.000165493
2.75021e-05
-0.000176698
6.33085e-05
-0.00017645
0.000101989
-0.000159308
0.000142663
-0.000123588
0.000179692
-4.97637e-05
0.000206591
6.29313e-05
0.000218625
0.000162803
0.000238734
0.000187901
0.000307052
0.00012898
0.000269602
6.59089e-05
0.000128549
5.83002e-05
-5.89575e-05
4.53263e-05
-0.000281504
3.68195e-05
-0.000449702
2.0373e-05
-0.000520314
-4.61395e-05
-0.000416306
-8.93004e-05
-0.000330325
-0.00011899
-0.000194052
-0.000137204
-6.82865e-05
-0.000148697
1.72857e-05
-0.000155592
0.000100167
-0.000151847
0.000134308
-0.000125311
0.000143146
-8.10365e-05
0.000138115
-2.96736e-05
0.00013271
2.12427e-05
0.000127857
4.95048e-05
0.000114003
5.32554e-05
9.67839e-05
4.52003e-05
6.67743e-05
3.17391e-05
3.27874e-05
2.24708e-05
-5.30395e-08
2.90955e-06
-3.61811e-05
-1.82185e-05
-6.79827e-05
-3.54207e-05
-9.44446e-05
-4.80111e-05
-0.000119189
-6.88644e-05
-9.68791e-05
-5.55734e-05
-0.000109085
-3.31524e-05
-8.46562e-05
-6.94099e-06
-5.44692e-05
1.0533e-05
-2.29936e-05
1.53826e-05
9.44593e-06
3.86489e-06
4.5019e-05
-2.14592e-05
9.83717e-05
-4.95191e-05
0.000141345
-4.68851e-05
0.000151287
-2.80017e-05
0.000159904
7.65791e-06
0.000133036
4.18785e-05
8.72184e-05
7.33443e-05
3.93886e-05
0.000103016
-2.44581e-05
0.000114657
-7.78378e-05
0.000105352
-9.82714e-05
7.96891e-05
-9.29327e-05
5.39085e-05
-8.24098e-05
2.5433e-05
-6.54052e-05
-4.39177e-06
-4.66044e-05
-3.21445e-05
-2.87168e-05
-5.53359e-05
-6.11193e-06
-6.72925e-05
1.28235e-05
-5.83861e-05
2.77748e-05
-4.22065e-05
3.78849e-05
-2.22258e-05
3.82453e-05
-5.82191e-06
3.44869e-05
6.493e-06
2.44594e-05
1.80424e-05
1.314e-05
2.95988e-05
-6.84014e-07
3.3102e-05
-1.42109e-05
2.84344e-05
-1.57162e-05
2.6957e-05
-1.92593e-05
2.46812e-05
-1.84099e-05
2.20362e-05
-1.72205e-05
1.70598e-05
-1.74118e-05
8.11141e-06
-1.9329e-05
-4.45083e-06
-2.06865e-05
-1.87795e-05
-2.09254e-05
-3.21197e-05
-1.92891e-05
-4.30083e-05
-1.58183e-05
-5.05872e-05
-1.17656e-05
-5.40455e-05
-7.6381e-06
-5.40645e-05
-3.8067e-06
-5.13088e-05
4.28909e-07
-4.56344e-05
5.5531e-06
-3.72889e-05
1.10993e-05
-2.7399e-05
1.6153e-05
-1.71421e-05
2.01877e-05
-7.33218e-06
2.30434e-05
1.65914e-06
2.45191e-05
9.13143e-06
2.47131e-05
1.48448e-05
2.35158e-05
1.89845e-05
2.06553e-05
2.15099e-05
1.61777e-05
2.24789e-05
1.13307e-05
2.23768e-05
6.5088e-06
2.15652e-05
2.39844e-06
2.03752e-05
-6.83459e-07
1.93012e-05
-2.48826e-06
1.84766e-05
-3.09346e-06
1.8377e-05
-2.41484e-06
1.91183e-05
-1.05873e-06
2.05795e-05
4.92171e-07
2.25303e-05
1.71852e-06
2.45898e-05
2.32538e-06
2.64245e-05
1.93483e-06
2.75952e-05
2.5009e-07
2.75572e-05
-2.75001e-06
2.57337e-05
-6.81018e-06
2.19576e-05
-1.15109e-05
1.55698e-05
-1.55293e-05
-1.97639e-05
-1.98307e-05
-2.06674e-05
-2.87374e-05
-2.31157e-05
-4.0483e-05
-2.51053e-05
-5.52262e-05
-2.63381e-05
-7.2526e-05
-2.68254e-05
-9.15662e-05
-2.64092e-05
-0.000110283
-2.48424e-05
-0.000125378
-2.13821e-05
-0.00013327
-1.5036e-05
-0.000134199
-1.49401e-06
-0.000129132
2.24353e-05
-0.000112261
4.64375e-05
-6.95899e-05
5.93175e-05
2.2209e-05
5.08636e-05
0.00016137
4.05315e-05
0.000315517
5.24446e-05
0.000420307
0.000113834
0.000370365
0.000288677
0.000310774
0.000366642
0.000305703
0.000274674
0.000325839
0.000108413
0.000296957
-3.00749e-05
0.000226467
-0.000211015
0.000114562
-0.000337797
-2.3704e-05
-0.000382048
-0.000145359
-0.000294652
-0.000232737
-0.000242946
-0.000275202
-0.000151588
-0.000277116
-6.63725e-05
-0.000262548
2.71809e-06
-0.000217406
5.50245e-05
-0.00016174
7.86418e-05
-0.00010872
9.01271e-05
-6.59013e-05
9.52955e-05
-3.22346e-05
9.90437e-05
-2.31269e-06
9.79349e-05
2.55736e-05
8.61168e-05
4.99653e-05
7.23922e-05
6.51415e-05
5.15981e-05
7.04778e-05
2.74511e-05
6.88572e-05
1.56766e-06
5.50548e-05
-2.23788e-05
3.47822e-05
-4.77101e-05
9.68034e-06
-6.93427e-05
-2.19248e-05
-8.7584e-05
-5.29307e-05
-6.58732e-05
-7.95175e-05
-8.24978e-05
-9.66325e-05
-6.75412e-05
-0.000107197
-4.39045e-05
-0.000114042
-1.61485e-05
-0.000117624
1.30279e-05
-0.000117241
4.46359e-05
-9.69727e-05
7.81033e-05
-5.81823e-05
0.000102555
-1.57605e-05
0.000108865
3.45838e-05
0.00010956
7.70489e-05
9.05713e-05
0.000106101
5.81659e-05
0.000125658
1.98325e-05
0.00012347
-2.22708e-05
0.00010152
-5.58878e-05
7.3642e-05
-7.03931e-05
4.45528e-05
-6.38435e-05
2.02837e-05
-5.81407e-05
-3.20255e-07
-4.48012e-05
-1.66967e-05
-3.0228e-05
-2.91075e-05
-1.6306e-05
-3.28985e-05
-2.32089e-06
-3.01572e-05
1.00822e-05
-2.252e-05
2.01376e-05
-1.09107e-05
2.62756e-05
1.1775e-06
2.61571e-05
1.31501e-05
2.25143e-05
2.22015e-05
1.5408e-05
2.85376e-05
6.80386e-06
3.01503e-05
-2.29671e-06
2.60623e-05
-1.01229e-05
2.16328e-05
-1.12867e-05
1.58365e-05
-1.3463e-05
1.06122e-05
-1.31856e-05
5.71637e-06
-1.23247e-05
2.43425e-07
-1.19388e-05
-6.65562e-06
-1.24299e-05
-1.44351e-05
-1.2907e-05
-2.25072e-05
-1.28533e-05
-2.97711e-05
-1.20252e-05
-3.52899e-05
-1.02995e-05
-3.89824e-05
-8.07313e-06
-4.10361e-05
-5.58438e-06
-4.17947e-05
-3.04805e-06
-4.11743e-05
-1.91497e-07
-3.88286e-05
3.20733e-06
-3.46048e-05
6.87557e-06
-2.88188e-05
1.03669e-05
-2.19602e-05
1.33292e-05
-1.44068e-05
1.54899e-05
-6.59439e-06
1.67067e-05
1.14193e-06
1.69768e-05
8.44261e-06
1.62151e-05
1.45532e-05
1.45447e-05
1.99138e-05
1.08171e-05
2.29212e-05
8.32329e-06
2.43566e-05
5.07344e-06
2.45008e-05
2.25424e-06
2.37073e-05
1.10038e-07
2.24427e-05
-1.22373e-06
2.10488e-05
-1.69948e-06
2.0107e-05
-1.47306e-06
1.97681e-05
-7.19798e-07
2.00793e-05
1.80936e-07
2.09122e-05
8.85621e-07
2.20634e-05
1.17418e-06
2.31911e-05
8.07145e-07
2.38134e-05
-3.72203e-07
2.34521e-05
-2.3887e-06
2.16999e-05
-5.058e-06
1.83544e-05
-8.1654e-06
1.33583e-05
-1.05333e-05
-1.31077e-05
-3.93794e-05
-1.11973e-05
-5.21914e-05
-1.03037e-05
-6.92462e-05
-8.05051e-06
-8.90672e-05
-6.51713e-06
-0.000110057
-5.83585e-06
-0.000130926
-5.54029e-06
-0.000150332
-5.43553e-06
-0.000164939
-6.77552e-06
-0.000164753
-1.52219e-05
-0.000137556
-2.86913e-05
-9.65799e-05
-1.85406e-05
-2.81449e-05
-2.19975e-05
3.711e-05
-5.93743e-06
7.19692e-05
1.60045e-05
6.70682e-05
4.54324e-05
5.4847e-05
6.46659e-05
6.91748e-05
9.95063e-05
0.000184189
0.000173663
0.000367805
0.000183026
0.000496071
0.000146408
0.000507617
9.68662e-05
0.000512155
-3.46123e-05
0.000405317
-0.000104177
0.000231073
-0.000163553
4.86837e-05
-0.000199659
-9.99412e-05
-0.000146027
-0.000207845
-0.000135042
-0.000268877
-9.05557e-05
-0.00029195
-4.32995e-05
-0.000285045
-4.18745e-06
-0.000252075
2.20548e-05
-0.000210699
3.72657e-05
-0.000165376
4.48044e-05
-0.000117759
4.7678e-05
-7.20504e-05
5.33352e-05
-2.68074e-05
5.26918e-05
2.18335e-05
3.74759e-05
5.62106e-05
3.80151e-05
7.92347e-05
2.85739e-05
9.01092e-05
1.65767e-05
8.72855e-05
4.39133e-06
7.67415e-05
-1.18348e-05
5.22651e-05
-2.32337e-05
1.67047e-05
-3.37822e-05
-2.80983e-05
-4.2781e-05
-6.01505e-05
-3.3821e-05
-0.000100186
-4.2462e-05
-0.000132436
-3.52919e-05
-0.000152972
-2.33676e-05
-0.000160045
-9.07556e-06
-0.000155044
8.02649e-06
-0.000132889
2.24808e-05
-9.37484e-05
3.89628e-05
-4.30882e-05
5.18943e-05
1.47242e-05
5.1053e-05
6.99821e-05
5.43023e-05
0.000114457
4.60969e-05
0.000141651
3.09717e-05
0.000150807
1.06768e-05
0.000139078
-1.05427e-05
0.000109463
-2.62724e-05
7.44487e-05
-3.53788e-05
4.17919e-05
-3.11867e-05
1.44737e-05
-3.08226e-05
-7.06515e-06
-2.32623e-05
-2.17465e-05
-1.55466e-05
-2.9771e-05
-8.2815e-06
-3.10389e-05
-1.05302e-06
-2.63004e-05
5.34379e-06
-1.65527e-05
1.03898e-05
-3.35936e-06
1.30823e-05
9.38762e-06
1.34101e-05
2.03245e-05
1.15774e-05
2.78183e-05
7.91419e-06
3.11703e-05
3.45189e-06
2.9956e-05
-1.08238e-06
2.457e-05
-4.73686e-06
1.96697e-05
-6.38648e-06
1.259e-05
-6.38337e-06
6.38632e-06
-6.98191e-06
6.31544e-07
-6.56988e-06
-5.01083e-06
-6.29644e-06
-1.10802e-05
-6.36051e-06
-1.75416e-05
-6.44566e-06
-2.40582e-05
-6.33668e-06
-3.01456e-05
-5.93777e-06
-3.52982e-05
-5.14687e-06
-3.92265e-05
-4.14481e-06
-4.18594e-05
-2.9515e-06