/*--------------------------------*- C++ -*----------------------------------*\
| =========                 |                                                 |
| \\      /  F ield         | OpenFOAM: The Open Source CFD Toolbox           |
|  \\    /   O peration     | Version:  2206                                  |
|   \\  /    A nd           | Website:  www.openfoam.com                      |
|    \\/     M anipulation  |                                                 |
\*---------------------------------------------------------------------------*/
FoamFile
{
    version     2.0;
    format      ascii;
    arch        "LSB;label=32;scalar=64";
    class       volVectorField;
    location    "18.3";
    object      U_0;
}
// * * * * * * * * * * * * * * * * * * * * * * * * * * * * * * * * * * * * * //

dimensions      [0 1 -1 0 0 0 0];

internalField   nonuniform List<vector> 
4830
(
(1.47761 -9.3319e-05 0)
(1.47764 -0.000283174 0)
(1.47771 -0.000478519 0)
(1.47782 -0.000677971 0)
(1.47797 -0.000880567 0)
(1.47815 -0.00108544 0)
(1.47836 -0.00129168 0)
(1.47861 -0.00149835 0)
(1.4789 -0.0017045 0)
(1.47921 -0.00190921 0)
(1.47955 -0.00211153 0)
(1.47993 -0.00231057 0)
(1.48033 -0.00250543 0)
(1.48075 -0.00269527 0)
(1.48121 -0.00287925 0)
(1.48168 -0.00305656 0)
(1.48218 -0.00322645 0)
(1.4827 -0.00338818 0)
(1.48324 -0.00354107 0)
(1.48379 -0.00368448 0)
(1.48437 -0.00381781 0)
(1.48495 -0.00394053 0)
(1.48555 -0.00405214 0)
(1.48616 -0.00415221 0)
(1.48678 -0.00424034 0)
(1.48741 -0.00431622 0)
(1.48805 -0.00437956 0)
(1.48869 -0.00443012 0)
(1.48934 -0.00446774 0)
(1.48998 -0.0044923 0)
(1.49063 -0.00450369 0)
(1.49128 -0.00450189 0)
(1.49192 -0.0044869 0)
(1.49256 -0.00445878 0)
(1.4932 -0.00441762 0)
(1.49383 -0.00436357 0)
(1.49445 -0.00429677 0)
(1.49506 -0.00421744 0)
(1.49565 -0.00412576 0)
(1.49624 -0.004022 0)
(1.4968 -0.00390635 0)
(1.49735 -0.00377908 0)
(1.49788 -0.0036404 0)
(1.49839 -0.0034905 0)
(1.49888 -0.0033296 0)
(1.49934 -0.00315775 0)
(1.49978 -0.00297515 0)
(1.50018 -0.00278168 0)
(1.50056 -0.00257735 0)
(1.5009 -0.00236205 0)
(1.50121 -0.00213529 0)
(1.50147 -0.00189727 0)
(1.5017 -0.00164673 0)
(1.50189 -0.00138445 0)
(1.50203 -0.00110869 0)
(1.50212 -0.000819853 0)
(1.50216 -0.000514705 0)
(1.50214 -0.000192574 0)
(1.50206 0.000148012 0)
(1.50192 0.0005088 0)
(1.50172 0.000891768 0)
(1.50145 0.00129916 0)
(1.5011 0.00173352 0)
(1.50067 0.00219773 0)
(1.50015 0.002695 0)
(1.49955 0.00322891 0)
(1.49884 0.00380343 0)
(1.49804 0.00442301 0)
(1.49712 0.00509258 0)
(1.49608 0.0058176 0)
(1.49492 0.00660415 0)
(1.49362 0.007459 0)
(1.49217 0.00838967 0)
(1.49057 0.00940456 0)
(1.48879 0.010513 0)
(1.48683 0.0117255 0)
(1.48467 0.0130538 0)
(1.48229 0.0145112 0)
(1.47968 0.0161126 0)
(1.47681 0.0178748 0)
(1.47367 0.0198171 0)
(1.47023 0.0219614 0)
(1.46646 0.0243326 0)
(1.46234 0.0269595 0)
(1.45783 0.0298753 0)
(1.45289 0.0331183 0)
(1.44748 0.0367332 0)
(1.44156 0.040772 0)
(1.43508 0.0452959 0)
(1.42798 0.0503767 0)
(1.42021 0.0560997 0)
(1.41168 0.0625662 0)
(1.40233 0.0698972 0)
(1.39208 0.0782383 0)
(1.38082 0.0877652 0)
(1.36847 0.0986913 0)
(1.35491 0.111278 0)
(1.34003 0.125845 0)
(1.3237 0.142792 0)
(1.3058 0.162615 0)
(1.28622 0.185939 0)
(1.26484 0.213563 0)
(1.24159 0.246517 0)
(1.21644 0.28616 0)
(1.18951 0.334301 0)
(1.16083 0.393524 0)
(1.13185 0.467332 0)
(1.10066 0.561896 0)
(1.08402 0.683963 0)
(1.04473 0.856552 0)
(1.18917 1.07011 0)
(1.08548 1.52821 0)
(1.47761 -0.000114278 0)
(1.47764 -0.000345959 0)
(1.47771 -0.000582806 0)
(1.47783 -0.000823259 0)
(1.47798 -0.00106619 0)
(1.47816 -0.00131059 0)
(1.47838 -0.00155541 0)
(1.47864 -0.00179958 0)
(1.47893 -0.00204203 0)
(1.47925 -0.00228173 0)
(1.4796 -0.00251766 0)
(1.47999 -0.00274883 0)
(1.4804 -0.00297431 0)
(1.48083 -0.00319317 0)
(1.4813 -0.00340453 0)
(1.48178 -0.00360758 0)
(1.48229 -0.00380151 0)
(1.48282 -0.00398558 0)
(1.48337 -0.0041591 0)
(1.48394 -0.00432141 0)
(1.48452 -0.00447192 0)
(1.48512 -0.0046101 0)
(1.48573 -0.00473544 0)
(1.48635 -0.00484752 0)
(1.48698 -0.00494595 0)
(1.48762 -0.0050304 0)
(1.48827 -0.0051006 0)
(1.48892 -0.00515631 0)
(1.48958 -0.00519735 0)
(1.49024 -0.0052236 0)
(1.4909 -0.00523497 0)
(1.49155 -0.00523139 0)
(1.49221 -0.00521288 0)
(1.49286 -0.00517946 0)
(1.49351 -0.00513123 0)
(1.49415 -0.00506829 0)
(1.49478 -0.0049908 0)
(1.4954 -0.0048989 0)
(1.49601 -0.00479281 0)
(1.49661 -0.00467269 0)
(1.49719 -0.00453876 0)
(1.49775 -0.00439121 0)
(1.49829 -0.00423022 0)
(1.49882 -0.00405592 0)
(1.49932 -0.0038685 0)
(1.4998 -0.00366792 0)
(1.50025 -0.00345436 0)
(1.50067 -0.00322752 0)
(1.50106 -0.0029876 0)
(1.50142 -0.00273394 0)
(1.50174 -0.00246672 0)
(1.50203 -0.00218498 0)
(1.50228 -0.00188884 0)
(1.50249 -0.00157694 0)
(1.50265 -0.00124974 0)
(1.50276 -0.000904506 0)
(1.50283 -0.000540146 0)
(1.50284 -0.000155238 0)
(1.50279 0.000252021 0)
(1.50268 0.000683621 0)
(1.50251 0.00114182 0)
(1.50227 0.00162918 0)
(1.50196 0.00214862 0)
(1.50157 0.00270341 0)
(1.50111 0.00329719 0)
(1.50055 0.00393402 0)
(1.4999 0.00461843 0)
(1.49916 0.00535542 0)
(1.4983 0.00615059 0)
(1.49734 0.0070101 0)
(1.49625 0.00794083 0)
(1.49504 0.00895042 0)
(1.49369 0.0100474 0)
(1.49219 0.0112411 0)
(1.49052 0.0125423 0)
(1.48869 0.0139626 0)
(1.48667 0.0155152 0)
(1.48446 0.0172152 0)
(1.48202 0.019079 0)
(1.47936 0.0211258 0)
(1.47644 0.0233767 0)
(1.47325 0.0258562 0)
(1.46977 0.028592 0)
(1.46596 0.0316158 0)
(1.46181 0.034964 0)
(1.45728 0.0386786 0)
(1.45234 0.0428083 0)
(1.44696 0.0474095 0)
(1.44109 0.0525479 0)
(1.4347 0.0583006 0)
(1.42773 0.0647582 0)
(1.42015 0.0720275 0)
(1.4119 0.0802351 0)
(1.40293 0.089532 0)
(1.39318 0.100099 0)
(1.3826 0.112152 0)
(1.37115 0.125954 0)
(1.35878 0.141822 0)
(1.34547 0.160146 0)
(1.33121 0.181403 0)
(1.31606 0.206185 0)
(1.30012 0.235228 0)
(1.28362 0.269465 0)
(1.26694 0.310083 0)
(1.25086 0.358619 0)
(1.23631 0.417105 0)
(1.22651 0.4882 0)
(1.22228 0.575631 0)
(1.24025 0.683028 0)
(1.26716 0.817881 0)
(1.36886 0.957055 0)
(1.50381 1.23201 0)
(1.47761 -0.000135879 0)
(1.47764 -0.000410667 0)
(1.47772 -0.000690264 0)
(1.47783 -0.000972922 0)
(1.47799 -0.00125734 0)
(1.47818 -0.00154233 0)
(1.47841 -0.00182672 0)
(1.47867 -0.0021093 0)
(1.47897 -0.00238888 0)
(1.4793 -0.00266431 0)
(1.47967 -0.00293449 0)
(1.48006 -0.00319836 0)
(1.48048 -0.00345492 0)
(1.48093 -0.00370319 0)
(1.4814 -0.00394228 0)
(1.4819 -0.00417132 0)
(1.48242 -0.00438951 0)
(1.48297 -0.00459608 0)
(1.48353 -0.00479034 0)
(1.48411 -0.00497164 0)
(1.4847 -0.0051394 0)
(1.48531 -0.00529307 0)
(1.48594 -0.00543217 0)
(1.48657 -0.00555628 0)
(1.48722 -0.00566502 0)
(1.48787 -0.00575807 0)
(1.48853 -0.00583515 0)
(1.48919 -0.00589604 0)
(1.48986 -0.00594056 0)
(1.49054 -0.00596857 0)
(1.49121 -0.00597999 0)
(1.49188 -0.00597474 0)
(1.49255 -0.00595282 0)
(1.49322 -0.00591426 0)
(1.49388 -0.00585912 0)
(1.49453 -0.0057875 0)
(1.49518 -0.00569952 0)
(1.49581 -0.00559533 0)
(1.49643 -0.00547508 0)
(1.49705 -0.00533894 0)
(1.49764 -0.00518707 0)
(1.49822 -0.00501963 0)
(1.49878 -0.00483676 0)
(1.49932 -0.00463858 0)
(1.49984 -0.00442515 0)
(1.50033 -0.00419649 0)
(1.5008 -0.0039526 0)
(1.50124 -0.00369325 0)
(1.50165 -0.00341848 0)
(1.50203 -0.00312755 0)
(1.50238 -0.0028208 0)
(1.50269 -0.00249661 0)
(1.50296 -0.00215594 0)
(1.50319 -0.00179615 0)
(1.50338 -0.00141821 0)
(1.50352 -0.0010189 0)
(1.50361 -0.000597345 0)
(1.50365 -0.000151819 0)
(1.50364 0.000319687 0)
(1.50357 0.00081941 0)
(1.50343 0.00134986 0)
(1.50324 0.0019139 0)
(1.50297 0.00251476 0)
(1.50263 0.00315605 0)
(1.50222 0.0038418 0)
(1.50172 0.00457648 0)
(1.50113 0.00536508 0)
(1.50045 0.00621313 0)
(1.49967 0.00712676 0)
(1.49879 0.00811279 0)
(1.4978 0.00917877 0)
(1.49668 0.0103331 0)
(1.49543 0.0115851 0)
(1.49405 0.012945 0)
(1.49252 0.0144246 0)
(1.49084 0.0160366 0)
(1.48898 0.0177954 0)
(1.48694 0.0197173 0)
(1.48471 0.0218203 0)
(1.48227 0.0241248 0)
(1.4796 0.026654 0)
(1.47669 0.0294339 0)
(1.47352 0.0324942 0)
(1.47007 0.0358688 0)
(1.46632 0.0395962 0)
(1.46224 0.0437209 0)
(1.45781 0.0482937 0)
(1.45301 0.0533735 0)
(1.44781 0.0590284 0)
(1.44217 0.0653376 0)
(1.43608 0.0723934 0)
(1.42951 0.0803037 0)
(1.42242 0.0891953 0)
(1.41479 0.0992174 0)
(1.40662 0.110546 0)
(1.39788 0.123391 0)
(1.38858 0.138001 0)
(1.37875 0.154671 0)
(1.36845 0.173758 0)
(1.35777 0.195687 0)
(1.3469 0.22097 0)
(1.3361 0.250222 0)
(1.32581 0.284186 0)
(1.31665 0.323743 0)
(1.30969 0.369942 0)
(1.30633 0.423935 0)
(1.30925 0.487036 0)
(1.3211 0.560076 0)
(1.34808 0.643202 0)
(1.39545 0.738218 0)
(1.45925 0.814945 0)
(1.60178 0.950172 0)
(1.47761 -0.00015824 0)
(1.47764 -0.000477645 0)
(1.47772 -0.000801465 0)
(1.47784 -0.00112774 0)
(1.478 -0.00145498 0)
(1.4782 -0.00178184 0)
(1.47844 -0.00210697 0)
(1.47871 -0.00242903 0)
(1.47902 -0.00274669 0)
(1.47936 -0.00305871 0)
(1.47974 -0.00336389 0)
(1.48014 -0.00366111 0)
(1.48058 -0.0039493 0)
(1.48104 -0.00422745 0)
(1.48153 -0.00449463 0)
(1.48204 -0.00474997 0)
(1.48258 -0.00499264 0)
(1.48313 -0.00522189 0)
(1.48371 -0.00543702 0)
(1.4843 -0.00563741 0)
(1.48491 -0.00582247 0)
(1.48554 -0.00599168 0)
(1.48618 -0.00614457 0)
(1.48683 -0.00628073 0)
(1.48749 -0.0063998 0)
(1.48816 -0.00650147 0)
(1.48883 -0.00658547 0)
(1.48951 -0.00665157 0)
(1.4902 -0.00669961 0)
(1.49088 -0.00672945 0)
(1.49157 -0.00674101 0)
(1.49226 -0.0067342 0)
(1.49294 -0.00670901 0)
(1.49363 -0.00666546 0)
(1.4943 -0.0066036 0)
(1.49497 -0.00652352 0)
(1.49563 -0.0064253 0)
(1.49629 -0.00630909 0)
(1.49693 -0.006175 0)
(1.49755 -0.00602318 0)
(1.49817 -0.00585376 0)
(1.49876 -0.00566687 0)
(1.49934 -0.00546262 0)
(1.4999 -0.00524107 0)
(1.50044 -0.00500226 0)
(1.50095 -0.00474618 0)
(1.50144 -0.00447271 0)
(1.5019 -0.00418173 0)
(1.50233 -0.00387295 0)
(1.50274 -0.00354599 0)
(1.50311 -0.00320051 0)
(1.50344 -0.00283573 0)
(1.50374 -0.00245111 0)
(1.504 -0.00204578 0)
(1.50421 -0.00161822 0)
(1.50438 -0.00116692 0)
(1.50451 -0.00069039 0)
(1.50459 -0.000186686 0)
(1.50461 0.000346353 0)
(1.50458 0.000911199 0)
(1.50449 0.00151059 0)
(1.50434 0.00214761 0)
(1.50412 0.00282575 0)
(1.50384 0.00354894 0)
(1.50348 0.00432152 0)
(1.50304 0.00514834 0)
(1.50253 0.00603477 0)
(1.50192 0.00698678 0)
(1.50123 0.00801098 0)
(1.50043 0.0091147 0)
(1.49954 0.0103061 0)
(1.49853 0.011594 0)
(1.4974 0.0129887 0)
(1.49615 0.014501 0)
(1.49477 0.0161433 0)
(1.49324 0.0179295 0)
(1.49156 0.0198747 0)
(1.48972 0.0219961 0)
(1.48771 0.0243128 0)
(1.48551 0.0268464 0)
(1.48311 0.0296211 0)
(1.48051 0.0326642 0)
(1.47768 0.0360065 0)
(1.47461 0.0396831 0)
(1.47128 0.0437337 0)
(1.46769 0.0482037 0)
(1.4638 0.0531449 0)
(1.45962 0.0586168 0)
(1.45511 0.0646875 0)
(1.45028 0.0714357 0)
(1.44509 0.0789523 0)
(1.43955 0.0873423 0)
(1.43365 0.0967275 0)
(1.4274 0.10725 0)
(1.4208 0.119074 0)
(1.41389 0.132393 0)
(1.40671 0.147431 0)
(1.39934 0.164449 0)
(1.39191 0.183753 0)
(1.38459 0.205698 0)
(1.37763 0.230691 0)
(1.37139 0.2592 0)
(1.36641 0.29175 0)
(1.36341 0.328902 0)
(1.36341 0.37124 0)
(1.3678 0.419238 0)
(1.37843 0.473206 0)
(1.39793 0.53296 0)
(1.42818 0.596584 0)
(1.47746 0.666458 0)
(1.5379 0.722282 0)
(1.63606 0.798733 0)
(1.47761 -0.000181489 0)
(1.47764 -0.000547274 0)
(1.47773 -0.00091704 0)
(1.47785 -0.0012886 0)
(1.47802 -0.00166023 0)
(1.47823 -0.00203042 0)
(1.47847 -0.00239765 0)
(1.47876 -0.00276041 0)
(1.47908 -0.00311727 0)
(1.47943 -0.00346685 0)
(1.47982 -0.00380789 0)
(1.48024 -0.00413918 0)
(1.48069 -0.00445961 0)
(1.48117 -0.00476815 0)
(1.48167 -0.00506383 0)
(1.4822 -0.00534578 0)
(1.48275 -0.00561319 0)
(1.48333 -0.0058653 0)
(1.48392 -0.00610144 0)
(1.48453 -0.006321 0)
(1.48516 -0.00652342 0)
(1.4858 -0.00670821 0)
(1.48646 -0.00687491 0)
(1.48712 -0.00702314 0)
(1.4878 -0.00715255 0)
(1.48848 -0.00726285 0)
(1.48918 -0.00735378 0)
(1.48987 -0.00742514 0)
(1.49058 -0.00747676 0)
(1.49128 -0.00750851 0)
(1.49199 -0.0075203 0)
(1.49269 -0.00751205 0)
(1.49339 -0.00748374 0)
(1.49409 -0.00743537 0)
(1.49479 -0.00736699 0)
(1.49547 -0.00727867 0)
(1.49615 -0.00717049 0)
(1.49682 -0.00704254 0)
(1.49748 -0.00689495 0)
(1.49813 -0.00672783 0)
(1.49876 -0.00654128 0)
(1.49938 -0.00633541 0)
(1.49998 -0.0061103 0)
(1.50056 -0.00586597 0)
(1.50112 -0.00560244 0)
(1.50165 -0.00531966 0)
(1.50216 -0.00501744 0)
(1.50265 -0.00469571 0)
(1.50311 -0.00435394 0)
(1.50353 -0.0039921 0)
(1.50393 -0.00360909 0)
(1.50429 -0.00320503 0)
(1.50462 -0.00277815 0)
(1.50491 -0.00232846 0)
(1.50516 -0.00185365 0)
(1.50536 -0.00135253 0)
(1.50552 -0.000823348 0)
(1.50564 -0.000264056 0)
(1.5057 0.000327663 0)
(1.50572 0.000954362 0)
(1.50567 0.001619 0)
(1.50557 0.00232492 0)
(1.50541 0.00307584 0)
(1.50518 0.00387591 0)
(1.50489 0.00472975 0)
(1.50452 0.0056425 0)
(1.50408 0.00661985 0)
(1.50356 0.00766813 0)
(1.50295 0.00879432 0)
(1.50226 0.0100062 0)
(1.50147 0.0113122 0)
(1.50058 0.012722 0)
(1.49958 0.014246 0)
(1.49847 0.0158957 0)
(1.49724 0.0176842 0)
(1.49589 0.0196258 0)
(1.4944 0.0217363 0)
(1.49277 0.0240336 0)
(1.49099 0.0265374 0)
(1.48905 0.0292699 0)
(1.48694 0.032256 0)
(1.48466 0.0355234 0)
(1.48218 0.0391037 0)
(1.47951 0.0430321 0)
(1.47664 0.0473485 0)
(1.47354 0.0520982 0)
(1.47022 0.0573326 0)
(1.46667 0.0631099 0)
(1.46289 0.0694967 0)
(1.45886 0.0765686 0)
(1.45459 0.0844123 0)
(1.4501 0.0931269 0)
(1.44538 0.102826 0)
(1.44048 0.113638 0)
(1.43542 0.125713 0)
(1.43027 0.139221 0)
(1.4251 0.154354 0)
(1.42004 0.171332 0)
(1.41525 0.190403 0)
(1.41093 0.211843 0)
(1.4074 0.235955 0)
(1.40505 0.263062 0)
(1.40441 0.293493 0)
(1.40619 0.327556 0)
(1.41129 0.365493 0)
(1.42092 0.407401 0)
(1.43644 0.45308 0)
(1.45989 0.502128 0)
(1.49258 0.552497 0)
(1.5387 0.604769 0)
(1.59794 0.64964 0)
(1.66983 0.690676 0)
(1.47761 -0.000205767 0)
(1.47765 -0.00061998 0)
(1.47773 -0.00103769 0)
(1.47786 -0.00145643 0)
(1.47804 -0.00187428 0)
(1.47826 -0.00228949 0)
(1.47851 -0.00270036 0)
(1.47881 -0.00310524 0)
(1.47914 -0.00350254 0)
(1.47951 -0.00389079 0)
(1.47992 -0.00426863 0)
(1.48035 -0.0046348 0)
(1.48082 -0.00498814 0)
(1.48131 -0.00532761 0)
(1.48184 -0.00565223 0)
(1.48238 -0.00596113 0)
(1.48295 -0.00625352 0)
(1.48355 -0.00652867 0)
(1.48416 -0.00678595 0)
(1.48479 -0.00702476 0)
(1.48544 -0.00724459 0)
(1.4861 -0.00744496 0)
(1.48677 -0.00762548 0)
(1.48746 -0.00778577 0)
(1.48815 -0.00792552 0)
(1.48886 -0.00804446 0)
(1.48957 -0.00814235 0)
(1.49029 -0.008219 0)
(1.49101 -0.00827425 0)
(1.49173 -0.00830798 0)
(1.49245 -0.0083201 0)
(1.49318 -0.00831053 0)
(1.4939 -0.00827925 0)
(1.49462 -0.00822625 0)
(1.49533 -0.00815157 0)
(1.49604 -0.00805526 0)
(1.49674 -0.00793738 0)
(1.49743 -0.00779802 0)
(1.49811 -0.00763728 0)
(1.49878 -0.00745526 0)
(1.49943 -0.00725203 0)
(1.50007 -0.00702768 0)
(1.50069 -0.00678225 0)
(1.5013 -0.00651576 0)
(1.50188 -0.0062282 0)
(1.50244 -0.00591945 0)
(1.50298 -0.0055894 0)
(1.50349 -0.00523778 0)
(1.50397 -0.00486425 0)
(1.50443 -0.00446839 0)
(1.50485 -0.00404961 0)
(1.50524 -0.00360713 0)
(1.5056 -0.00314036 0)
(1.50592 -0.00264749 0)
(1.50621 -0.00212757 0)
(1.50645 -0.00157895 0)
(1.50665 -0.00099971 0)
(1.50681 -0.000387703 0)
(1.50691 0.000259495 0)
(1.50697 0.000944541 0)
(1.50698 0.00167055 0)
(1.50694 0.00244105 0)
(1.50683 0.00325992 0)
(1.50667 0.00413151 0)
(1.50644 0.00506065 0)
(1.50615 0.00605271 0)
(1.50579 0.00711363 0)
(1.50536 0.00825 0)
(1.50485 0.0094691 0)
(1.50425 0.010779 0)
(1.50358 0.0121885 0)
(1.50281 0.0137075 0)
(1.50195 0.0153468 0)
(1.50099 0.0171184 0)
(1.49993 0.0190356 0)
(1.49876 0.021113 0)
(1.49747 0.023367 0)
(1.49606 0.0258157 0)
(1.49452 0.0284791 0)
(1.49286 0.0313796 0)
(1.49105 0.0345422 0)
(1.48909 0.0379947 0)
(1.48699 0.0417685 0)
(1.48473 0.0458983 0)
(1.48231 0.0504235 0)
(1.47973 0.0553881 0)
(1.47699 0.0608418 0)
(1.47408 0.0668404 0)
(1.47101 0.0734471 0)
(1.46779 0.0807329 0)
(1.46443 0.0887782 0)
(1.46096 0.0976736 0)
(1.4574 0.107521 0)
(1.45379 0.118436 0)
(1.4502 0.130546 0)
(1.4467 0.143997 0)
(1.4434 0.158947 0)
(1.44043 0.175573 0)
(1.43798 0.194063 0)
(1.43629 0.21462 0)
(1.43566 0.237449 0)
(1.43649 0.262752 0)
(1.43928 0.290703 0)
(1.44466 0.321424 0)
(1.4534 0.354938 0)
(1.46646 0.391119 0)
(1.4849 0.429551 0)
(1.51007 0.469608 0)
(1.54305 0.509696 0)
(1.58512 0.548542 0)
(1.63724 0.58213 0)
(1.69651 0.607274 0)
(1.47761 -0.000231234 0)
(1.47765 -0.000696236 0)
(1.47774 -0.00116418 0)
(1.47788 -0.00163233 0)
(1.47806 -0.00209846 0)
(1.47829 -0.00256062 0)
(1.47856 -0.00301691 0)
(1.47887 -0.00346549 0)
(1.47922 -0.00390464 0)
(1.4796 -0.00433277 0)
(1.48002 -0.00474845 0)
(1.48048 -0.00515036 0)
(1.48096 -0.00553733 0)
(1.48148 -0.00590829 0)
(1.48202 -0.00626229 0)
(1.48259 -0.00659848 0)
(1.48318 -0.00691609 0)
(1.4838 -0.00721445 0)
(1.48443 -0.00749295 0)
(1.48508 -0.00775107 0)
(1.48575 -0.00798831 0)
(1.48643 -0.00820428 0)
(1.48713 -0.00839859 0)
(1.48783 -0.00857092 0)
(1.48855 -0.00872099 0)
(1.48928 -0.00884856 0)
(1.49001 -0.00895341 0)
(1.49075 -0.00903537 0)
(1.49149 -0.0090943 0)
(1.49223 -0.00913008 0)
(1.49298 -0.00914263 0)
(1.49373 -0.00913188 0)
(1.49447 -0.00909779 0)
(1.49521 -0.00904035 0)
(1.49595 -0.00895958 0)
(1.49668 -0.00885553 0)
(1.4974 -0.00872826 0)
(1.49811 -0.00857782 0)
(1.49881 -0.0084043 0)
(1.4995 -0.00820778 0)
(1.50018 -0.00798833 0)
(1.50084 -0.00774601 0)
(1.50149 -0.00748084 0)
(1.50212 -0.00719283 0)
(1.50273 -0.00688194 0)
(1.50331 -0.00654803 0)
(1.50388 -0.00619102 0)
(1.50442 -0.00581046 0)
(1.50493 -0.00540632 0)
(1.50541 -0.00497763 0)
(1.50587 -0.00452438 0)
(1.50629 -0.0040453 0)
(1.50669 -0.0035396 0)
(1.50704 -0.00300603 0)
(1.50736 -0.0024432 0)
(1.50765 -0.00184942 0)
(1.50789 -0.00122275 0)
(1.50809 -0.000561006 0)
(1.50824 0.000138288 0)
(1.50835 0.000877998 0)
(1.50842 0.00166133 0)
(1.50843 0.00249187 0)
(1.50839 0.00337364 0)
(1.50829 0.00431112 0)
(1.50814 0.0053093 0)
(1.50792 0.00637372 0)
(1.50765 0.0075105 0)
(1.50731 0.0087264 0)
(1.5069 0.0100289 0)
(1.50641 0.0114263 0)
(1.50586 0.0129275 0)
(1.50522 0.0145428 0)
(1.5045 0.016283 0)
(1.5037 0.0181603 0)
(1.50281 0.0201883 0)
(1.50183 0.0223818 0)
(1.50075 0.024757 0)
(1.49957 0.0273322 0)
(1.49828 0.0301274 0)
(1.49689 0.0331648 0)
(1.49539 0.0364691 0)
(1.49378 0.0400676 0)
(1.49205 0.0439909 0)
(1.49021 0.0482729 0)
(1.48825 0.0529513 0)
(1.48618 0.0580681 0)
(1.48401 0.0636705 0)
(1.48174 0.0698107 0)
(1.47938 0.0765473 0)
(1.47695 0.0839454 0)
(1.47447 0.0920777 0)
(1.47198 0.101025 0)
(1.46951 0.110876 0)
(1.46713 0.12173 0)
(1.4649 0.133694 0)
(1.46292 0.146887 0)
(1.46129 0.161434 0)
(1.46019 0.177469 0)
(1.45978 0.195128 0)
(1.46031 0.214547 0)
(1.46208 0.235852 0)
(1.46544 0.259146 0)
(1.47086 0.28449 0)
(1.47885 0.311878 0)
(1.49005 0.341198 0)
(1.50517 0.372189 0)
(1.525 0.404355 0)
(1.55035 0.436956 0)
(1.58192 0.468771 0)
(1.62006 0.498297 0)
(1.66507 0.523427 0)
(1.71584 0.542103 0)
(1.47761 -0.000258071 0)
(1.47765 -0.000776583 0)
(1.47775 -0.00129742 0)
(1.47789 -0.0018175 0)
(1.47809 -0.00233429 0)
(1.47833 -0.00284559 0)
(1.47861 -0.00334928 0)
(1.47894 -0.00384334 0)
(1.4793 -0.00432589 0)
(1.47971 -0.00479523 0)
(1.48015 -0.00524987 0)
(1.48062 -0.00568846 0)
(1.48113 -0.00610979 0)
(1.48167 -0.00651283 0)
(1.48224 -0.00689664 0)
(1.48283 -0.00726042 0)
(1.48344 -0.00760346 0)
(1.48408 -0.00792514 0)
(1.48474 -0.00822493 0)
(1.48541 -0.00850236 0)
(1.4861 -0.00875701 0)
(1.48681 -0.00898852 0)
(1.48753 -0.00919657 0)
(1.48826 -0.00938089 0)
(1.489 -0.00954123 0)
(1.48975 -0.00967739 0)
(1.4905 -0.00978919 0)
(1.49126 -0.00987647 0)
(1.49203 -0.00993912 0)
(1.4928 -0.00997702 0)
(1.49356 -0.0099901 0)
(1.49433 -0.0099783 0)
(1.4951 -0.00994156 0)
(1.49586 -0.00987987 0)
(1.49662 -0.00979326 0)
(1.49738 -0.00968174 0)
(1.49812 -0.00954536 0)
(1.49886 -0.00938418 0)
(1.49959 -0.00919827 0)
(1.50031 -0.00898768 0)
(1.50101 -0.00875247 0)
(1.5017 -0.00849269 0)
(1.50237 -0.00820836 0)
(1.50302 -0.00789947 0)
(1.50366 -0.00756595 0)
(1.50427 -0.00720773 0)
(1.50487 -0.00682455 0)
(1.50544 -0.00641624 0)
(1.50598 -0.00598229 0)
(1.5065 -0.00552243 0)
(1.50699 -0.00503572 0)
(1.50745 -0.00452166 0)
(1.50787 -0.003979 0)
(1.50827 -0.00340659 0)
(1.50863 -0.00280299 0)
(1.50895 -0.00216651 0)
(1.50924 -0.0014952 0)
(1.50949 -0.000786817 0)
(1.50969 -3.88054e-05 0)
(1.50985 0.000751743 0)
(1.50997 0.00158809 0)
(1.51004 0.00247391 0)
(1.51007 0.00341329 0)
(1.51004 0.00441083 0)
(1.50996 0.00547159 0)
(1.50983 0.0066012 0)
(1.50964 0.0078059 0)
(1.5094 0.00909254 0)
(1.50909 0.0104687 0)
(1.50872 0.0119427 0)
(1.50829 0.0135238 0)
(1.50779 0.015222 0)
(1.50722 0.0170484 0)
(1.50658 0.0190153 0)
(1.50586 0.021136 0)
(1.50507 0.0234254 0)
(1.50421 0.0258996 0)
(1.50326 0.0285765 0)
(1.50223 0.0314759 0)
(1.50112 0.0346196 0)
(1.49993 0.0380314 0)
(1.49866 0.0417379 0)
(1.49731 0.0457683 0)
(1.49588 0.0501549 0)
(1.49439 0.0549334 0)
(1.49282 0.0601434 0)
(1.49121 0.0658283 0)
(1.48956 0.0720364 0)
(1.48789 0.0788207 0)
(1.48622 0.0862395 0)
(1.48458 0.0943569 0)
(1.48302 0.103243 0)
(1.48158 0.112973 0)
(1.48032 0.12363 0)
(1.47934 0.135301 0)
(1.47872 0.148078 0)
(1.47858 0.162056 0)
(1.47909 0.177331 0)
(1.48042 0.193993 0)
(1.48279 0.212124 0)
(1.48649 0.231786 0)
(1.49183 0.253009 0)
(1.49918 0.275777 0)
(1.509 0.300002 0)
(1.52175 0.325496 0)
(1.53798 0.351943 0)
(1.5582 0.378848 0)
(1.58292 0.405515 0)
(1.61252 0.431001 0)
(1.64713 0.454151 0)
(1.6866 0.473613 0)
(1.73032 0.488052 0)
(1.47761 -0.000286485 0)
(1.47765 -0.000861644 0)
(1.47775 -0.00143842 0)
(1.47791 -0.00201333 0)
(1.47812 -0.00258349 0)
(1.47837 -0.00314642 0)
(1.47867 -0.00369974 0)
(1.47901 -0.00424124 0)
(1.4794 -0.00476889 0)
(1.47983 -0.00528089 0)
(1.48029 -0.00577568 0)
(1.48079 -0.00625189 0)
(1.48132 -0.00670834 0)
(1.48189 -0.00714401 0)
(1.48248 -0.00755803 0)
(1.48309 -0.00794967 0)
(1.48373 -0.00831829 0)
(1.4844 -0.00866337 0)
(1.48508 -0.00898445 0)
(1.48578 -0.00928114 0)
(1.4865 -0.00955311 0)
(1.48723 -0.00980006 0)
(1.48797 -0.0100217 0)
(1.48873 -0.010218 0)
(1.48949 -0.0103885 0)
(1.49027 -0.0105332 0)
(1.49105 -0.0106519 0)
(1.49183 -0.0107445 0)
(1.49262 -0.0108109 0)
(1.49342 -0.010851 0)
(1.49421 -0.0108647 0)
(1.495 -0.010852 0)
(1.4958 -0.0108128 0)
(1.49659 -0.010747 0)
(1.49737 -0.0106548 0)
(1.49815 -0.0105361 0)
(1.49893 -0.0103909 0)
(1.49969 -0.0102193 0)
(1.50044 -0.0100214 0)
(1.50119 -0.00979715 0)
(1.50192 -0.00954666 0)
(1.50263 -0.00926994 0)
(1.50334 -0.00896702 0)
(1.50402 -0.00863789 0)
(1.50468 -0.00828248 0)
(1.50533 -0.00790068 0)
(1.50595 -0.00749231 0)
(1.50655 -0.0070571 0)
(1.50713 -0.00659469 0)
(1.50768 -0.00610456 0)
(1.50821 -0.00558615 0)
(1.5087 -0.00503847 0)
(1.50917 -0.00446062 0)
(1.5096 -0.0038514 0)
(1.51 -0.00320933 0)
(1.51037 -0.0025327 0)
(1.5107 -0.00181956 0)
(1.511 -0.00106767 0)
(1.51125 -0.000274447 0)
(1.51147 0.000563029 0)
(1.51165 0.00144805 0)
(1.51178 0.0023843 0)
(1.51187 0.00337593 0)
(1.51192 0.00442755 0)
(1.51192 0.00554428 0)
(1.51187 0.00673178 0)
(1.51178 0.0079963 0)
(1.51163 0.00934474 0)
(1.51143 0.0107847 0)
(1.51118 0.0123245 0)
(1.51087 0.0139733 0)
(1.51051 0.0157411 0)
(1.51009 0.0176391 0)
(1.50961 0.0196791 0)
(1.50908 0.0218746 0)
(1.50848 0.02424 0)
(1.50783 0.0267911 0)
(1.50711 0.0295455 0)
(1.50634 0.0325223 0)
(1.50552 0.0357423 0)
(1.50463 0.0392287 0)
(1.5037 0.0430066 0)
(1.50272 0.0471036 0)
(1.50171 0.0515501 0)
(1.50066 0.0563792 0)
(1.49959 0.0616274 0)
(1.49852 0.0673344 0)
(1.49747 0.0735436 0)
(1.49645 0.080302 0)
(1.4955 0.0876609 0)
(1.49465 0.0956755 0)
(1.49395 0.104405 0)
(1.49346 0.113912 0)
(1.49323 0.124262 0)
(1.49336 0.135525 0)
(1.49395 0.147768 0)
(1.49511 0.16106 0)
(1.49699 0.175462 0)
(1.49977 0.19103 0)
(1.50365 0.207802 0)
(1.50886 0.225792 0)
(1.51569 0.244981 0)
(1.52445 0.265301 0)
(1.53547 0.286619 0)
(1.54914 0.308719 0)
(1.56582 0.331276 0)
(1.58587 0.353838 0)
(1.60959 0.375811 0)
(1.63715 0.396453 0)
(1.66857 0.414897 0)
(1.70357 0.430171 0)
(1.74157 0.441322 0)
(1.47761 -0.00031672 0)
(1.47766 -0.000952143 0)
(1.47776 -0.00158836 0)
(1.47793 -0.00222143 0)
(1.47815 -0.00284805 0)
(1.47842 -0.00346541 0)
(1.47874 -0.00407086 0)
(1.4791 -0.00466197 0)
(1.47951 -0.00523657 0)
(1.47996 -0.00579276 0)
(1.48045 -0.00632894 0)
(1.48098 -0.00684374 0)
(1.48154 -0.00733603 0)
(1.48213 -0.00780485 0)
(1.48275 -0.00824942 0)
(1.48339 -0.0086691 0)
(1.48406 -0.00906338 0)
(1.48475 -0.00943183 0)
(1.48546 -0.00977412 0)
(1.48619 -0.0100899 0)
(1.48694 -0.0103791 0)
(1.4877 -0.0106413 0)
(1.48847 -0.0108765 0)
(1.48925 -0.0110844 0)
(1.49004 -0.011265 0)
(1.49085 -0.0114182 0)
(1.49165 -0.0115438 0)
(1.49247 -0.0116417 0)
(1.49328 -0.0117118 0)
(1.4941 -0.0117541 0)
(1.49492 -0.0117686 0)
(1.49574 -0.0117551 0)
(1.49656 -0.0117135 0)
(1.49738 -0.011644 0)
(1.49819 -0.0115464 0)
(1.499 -0.0114207 0)
(1.4998 -0.0112671 0)
(1.5006 -0.0110854 0)
(1.50138 -0.0108759 0)
(1.50215 -0.0106384 0)
(1.50291 -0.0103731 0)
(1.50366 -0.0100799 0)
(1.50439 -0.00975897 0)
(1.5051 -0.0094102 0)
(1.5058 -0.00903361 0)
(1.50648 -0.00862898 0)
(1.50713 -0.00819632 0)
(1.50777 -0.00773515 0)
(1.50838 -0.00724535 0)
(1.50897 -0.00672629 0)
(1.50953 -0.00617732 0)
(1.51006 -0.00559772 0)
(1.51057 -0.00498651 0)
(1.51104 -0.00434244 0)
(1.51149 -0.0036641 0)
(1.5119 -0.00294983 0)
(1.51228 -0.0021977 0)
(1.51262 -0.00140547 0)
(1.51293 -0.000570583 0)
(1.51321 0.000309871 0)
(1.51344 0.00123916 0)
(1.51364 0.00222097 0)
(1.5138 0.00325944 0)
(1.51392 0.00435915 0)
(1.514 0.0055252 0)
(1.51404 0.00676322 0)
(1.51404 0.00807944 0)
(1.51399 0.00948071 0)
(1.5139 0.0109745 0)
(1.51376 0.0125692 0)
(1.51359 0.0142737 0)
(1.51336 0.016098 0)
(1.51309 0.0180529 0)
(1.51278 0.0201501 0)
(1.51243 0.0224027 0)
(1.51203 0.0248246 0)
(1.51159 0.0274314 0)
(1.51111 0.0302397 0)
(1.51059 0.0332678 0)
(1.51004 0.0365358 0)
(1.50947 0.0400653 0)
(1.50887 0.0438801 0)
(1.50825 0.0480059 0)
(1.50763 0.0524707 0)
(1.50702 0.0573049 0)
(1.50643 0.0625415 0)
(1.50588 0.0682161 0)
(1.50539 0.074367 0)
(1.50499 0.0810354 0)
(1.50471 0.0882652 0)
(1.5046 0.0961027 0)
(1.50469 0.104597 0)
(1.50505 0.113798 0)
(1.50575 0.123757 0)
(1.50687 0.134525 0)
(1.50851 0.146151 0)
(1.51078 0.15868 0)
(1.51382 0.172147 0)
(1.51778 0.186578 0)
(1.52286 0.201978 0)
(1.52924 0.218329 0)
(1.53718 0.235579 0)
(1.5469 0.253632 0)
(1.55869 0.272335 0)
(1.57281 0.291465 0)
(1.58953 0.310718 0)
(1.60908 0.329696 0)
(1.63162 0.347906 0)
(1.65722 0.36476 0)
(1.68579 0.379599 0)
(1.71708 0.391728 0)
(1.75057 0.4005 0)
(1.47761 -0.000349063 0)
(1.47766 -0.00104894 0)
(1.47778 -0.00174866 0)
(1.47795 -0.00244369 0)
(1.47819 -0.0031303 0)
(1.47848 -0.00380524 0)
(1.47882 -0.0044656 0)
(1.47921 -0.0051087 0)
(1.47964 -0.00573223 0)
(1.48012 -0.00633421 0)
(1.48064 -0.00691303 0)
(1.48119 -0.00746736 0)
(1.48178 -0.00799615 0)
(1.48241 -0.00849855 0)
(1.48306 -0.00897391 0)
(1.48373 -0.00942173 0)
(1.48443 -0.00984163 0)
(1.48515 -0.0102333 0)
(1.4859 -0.0105966 0)
(1.48665 -0.0109314 0)
(1.48743 -0.0112374 0)
(1.48822 -0.0115147 0)
(1.48902 -0.0117631 0)
(1.48983 -0.0119826 0)
(1.49065 -0.0121731 0)
(1.49148 -0.0123346 0)
(1.49232 -0.0124669 0)
(1.49316 -0.0125701 0)
(1.49401 -0.012644 0)
(1.49486 -0.0126886 0)
(1.49571 -0.0127039 0)
(1.49656 -0.0126897 0)
(1.49741 -0.0126461 0)
(1.49825 -0.0125729 0)
(1.4991 -0.0124701 0)
(1.49993 -0.0123378 0)
(1.50076 -0.012176 0)
(1.50159 -0.0119847 0)
(1.5024 -0.0117638 0)
(1.5032 -0.0115135 0)
(1.504 -0.0112338 0)
(1.50477 -0.0109247 0)
(1.50554 -0.0105863 0)
(1.50628 -0.0102185 0)
(1.50701 -0.00982131 0)
(1.50773 -0.00939471 0)
(1.50842 -0.00893843 0)
(1.50909 -0.0084524 0)
(1.50973 -0.00793615 0)
(1.51036 -0.00738929 0)
(1.51096 -0.00681125 0)
(1.51153 -0.00620125 0)
(1.51208 -0.00555835 0)
(1.51259 -0.00488139 0)
(1.51308 -0.00416902 0)
(1.51354 -0.00341963 0)
(1.51397 -0.00263132 0)
(1.51436 -0.00180191 0)
(1.51473 -0.000928894 0)
(1.51506 -9.41873e-06 0)
(1.51536 0.000959744 0)
(1.51562 0.00198224 0)
(1.51585 0.00306212 0)
(1.51605 0.00420391 0)
(1.51621 0.00541264 0)
(1.51633 0.00669387 0)
(1.51642 0.00805371 0)
(1.51648 0.0094989 0)
(1.5165 0.0110368 0)
(1.51648 0.0126756 0)
(1.51643 0.014424 0)
(1.51634 0.0162917 0)
(1.51623 0.0182892 0)
(1.51608 0.020428 0)
(1.5159 0.0227205 0)
(1.5157 0.0251803 0)
(1.51547 0.027822 0)
(1.51522 0.0306617 0)
(1.51495 0.0337167 0)
(1.51468 0.0370057 0)
(1.5144 0.040549 0)
(1.51412 0.0443686 0)
(1.51386 0.0484882 0)
(1.51362 0.0529333 0)
(1.51342 0.0577313 0)
(1.51329 0.0629117 0)
(1.51323 0.0685059 0)
(1.51327 0.0745471 0)
(1.51344 0.0810706 0)
(1.51379 0.0881131 0)
(1.51434 0.0957128 0)
(1.51515 0.103909 0)
(1.51628 0.11274 0)
(1.5178 0.122245 0)
(1.51978 0.132459 0)
(1.52233 0.143415 0)
(1.52553 0.155137 0)
(1.52953 0.167642 0)
(1.53446 0.180931 0)
(1.54047 0.194988 0)
(1.54774 0.209773 0)
(1.55646 0.225215 0)
(1.56683 0.241202 0)
(1.57904 0.257578 0)
(1.5933 0.27413 0)
(1.60979 0.290584 0)
(1.62866 0.306597 0)
(1.64997 0.321766 0)
(1.67374 0.335629 0)
(1.69984 0.347688 0)
(1.72803 0.357447 0)
(1.75792 0.364454 0)
(1.47761 -0.00038386 0)
(1.47767 -0.00115306 0)
(1.47779 -0.00192097 0)
(1.47798 -0.00268238 0)
(1.47824 -0.00343297 0)
(1.47855 -0.00416906 0)
(1.47891 -0.00488739 0)
(1.47933 -0.00558506 0)
(1.47979 -0.0062596 0)
(1.4803 -0.00690904 0)
(1.48085 -0.00753176 0)
(1.48144 -0.00812652 0)
(1.48206 -0.00869238 0)
(1.48272 -0.00922866 0)
(1.4834 -0.00973489 0)
(1.48411 -0.0102108 0)
(1.48485 -0.0106561 0)
(1.4856 -0.0110708 0)
(1.48638 -0.0114548 0)
(1.48717 -0.0118081 0)
(1.48798 -0.0121307 0)
(1.4888 -0.0124226 0)
(1.48963 -0.012684 0)
(1.49048 -0.0129148 0)
(1.49133 -0.0131149 0)
(1.49219 -0.0132845 0)
(1.49306 -0.0134236 0)
(1.49393 -0.0135319 0)
(1.49481 -0.0136096 0)
(1.49569 -0.0136566 0)
(1.49657 -0.0136727 0)
(1.49745 -0.013658 0)
(1.49833 -0.0136124 0)
(1.49921 -0.0135358 0)
(1.50008 -0.0134282 0)
(1.50095 -0.0132896 0)
(1.50181 -0.0131199 0)
(1.50267 -0.0129191 0)
(1.50351 -0.0126874 0)
(1.50435 -0.0124246 0)
(1.50517 -0.0121309 0)
(1.50599 -0.0118064 0)
(1.50678 -0.0114509 0)
(1.50757 -0.0110647 0)
(1.50833 -0.0106475 0)
(1.50908 -0.0101995 0)
(1.5098 -0.00972052 0)