/*--------------------------------*- C++ -*----------------------------------*\
| =========                 |                                                 |
| \\      /  F ield         | OpenFOAM: The Open Source CFD Toolbox           |
|  \\    /   O peration     | Version:  2206                                  |
|   \\  /    A nd           | Website:  www.openfoam.com                      |
|    \\/     M anipulation  |                                                 |
\*---------------------------------------------------------------------------*/
FoamFile
{
    version     2.0;
    format      ascii;
    arch        "LSB;label=32;scalar=64";
    class       surfaceScalarField;
    location    "19.8999";
    object      phi_0;
}
// * * * * * * * * * * * * * * * * * * * * * * * * * * * * * * * * * * * * * //

dimensions      [0 3 -1 0 0 0 0];

oriented        oriented;

internalField   nonuniform List<scalar> 
9482
(
2.34513e-06
-9.65059e-07
-1.38007e-06
3.66969e-06
6.96084e-07
-2.02064e-06
4.46524e-06
2.07606e-06
-2.87161e-06
4.90373e-06
3.11288e-06
-3.55137e-06
5.0269e-06
3.80696e-06
-3.93013e-06
4.93025e-06
4.22468e-06
-4.12803e-06
4.66573e-06
4.42893e-06
-4.16441e-06
4.23755e-06
4.45601e-06
-4.02783e-06
3.62458e-06
4.3753e-06
-3.76233e-06
2.82848e-06
4.23082e-06
-3.43471e-06
1.97765e-06
3.96748e-06
-3.11666e-06
1.28364e-06
3.51451e-06
-2.8205e-06
9.13997e-07
2.83669e-06
-2.46705e-06
9.07105e-07
1.9634e-06
-1.9565e-06
1.19795e-06
9.61411e-07
-1.25226e-06
1.65135e-06
-4.84627e-08
-4.04937e-07
2.20901e-06
-1.04285e-06
4.852e-07
2.79026e-06
-1.9545e-06
1.37325e-06
3.35986e-06
-2.76698e-06
2.19738e-06
3.90153e-06
-3.4742e-06
2.93253e-06
4.41179e-06
-4.07722e-06
3.56696e-06
4.89834e-06
-4.57527e-06
4.08872e-06
5.3832e-06
-4.96495e-06
4.48008e-06
5.90481e-06
-5.2319e-06
4.71029e-06
6.50697e-06
-5.33358e-06
4.73142e-06
7.22015e-06
-5.20441e-06
4.49123e-06
8.04839e-06
-4.77742e-06
3.94918e-06
8.96863e-06
-4.01908e-06
3.09884e-06
9.92956e-06
-2.96023e-06
1.9993e-06
1.08405e-05
-1.70333e-06
7.92388e-07
1.16176e-05
-4.12034e-07
-3.65026e-07
1.2223e-05
7.73495e-07
-1.37897e-06
1.26496e-05
1.78025e-06
-2.20686e-06
1.29102e-05
2.58006e-06
-2.84067e-06
1.30303e-05
3.17569e-06
-3.29579e-06
1.30404e-05
3.58981e-06
-3.59982e-06
1.2966e-05
3.85459e-06
-3.78019e-06
1.28267e-05
4.00089e-06
-3.86167e-06
1.26444e-05
4.05233e-06
-3.86996e-06
1.24414e-05
4.0364e-06
-3.8334e-06
1.22336e-05
3.98177e-06
-3.77397e-06
1.20299e-05
3.90939e-06
-3.70567e-06
1.18331e-05
3.83277e-06
-3.63603e-06
1.16429e-05
3.75947e-06
-3.56928e-06
1.14577e-05
3.69309e-06
-3.50787e-06
1.12756e-05
3.63486e-06
-3.45274e-06
1.10945e-05
3.58459e-06
-3.40351e-06
1.09113e-05
3.54267e-06
-3.35943e-06
1.07203e-05
3.51228e-06
-3.32135e-06
1.05139e-05
3.4997e-06
-3.29328e-06
1.02847e-05
3.51119e-06
-3.28203e-06
1.00311e-05
3.54518e-06
-3.29156e-06
9.76066e-06
3.58432e-06
-3.31386e-06
9.48951e-06
3.59433e-06
-3.32318e-06
9.23848e-06
3.53051e-06
-3.27948e-06
9.0281e-06
3.34916e-06
-3.13878e-06
8.87492e-06
3.01965e-06
-2.86647e-06
8.7891e-06
2.53375e-06
-2.44793e-06
8.77363e-06
1.90764e-06
-1.89217e-06
8.82477e-06
1.17684e-06
-1.22798e-06
8.93272e-06
3.88261e-07
-4.96211e-07
9.08232e-06
-4.03016e-07
2.53411e-07
9.26164e-06
-1.15505e-06
9.75737e-07
9.45878e-06
-1.84143e-06
1.64429e-06
9.66225e-06
-2.44431e-06
2.24084e-06
9.86199e-06
-2.95491e-06
2.75517e-06
1.005e-05
-3.37264e-06
3.18459e-06
1.02207e-05
-3.70333e-06
3.53269e-06
1.03703e-05
-3.95761e-06
3.80801e-06
1.04971e-05
-4.14902e-06
4.02218e-06
1.06007e-05
-4.29248e-06
4.18891e-06
1.06809e-05
-4.40313e-06
4.32293e-06
1.07379e-05
-4.49564e-06
4.43861e-06
1.07736e-05
-4.58231e-06
4.54666e-06
1.07917e-05
-4.66816e-06
4.65002e-06
1.07988e-05
-4.75086e-06
4.74383e-06
1.08005e-05
-4.82039e-06
4.81865e-06
1.07999e-05
-4.86525e-06
4.86582e-06
1.07953e-05
-4.87538e-06
4.88004e-06
1.07837e-05
-4.83068e-06
4.84231e-06
1.07727e-05
-4.6913e-06
4.70222e-06
1.07641e-05
-4.45182e-06
4.46049e-06
1.0758e-05
-4.10401e-06
4.11003e-06
1.07553e-05
-3.64625e-06
3.64901e-06
1.07569e-05
-3.0847e-06
3.08313e-06
1.07641e-05
-2.43285e-06
2.42557e-06
1.07783e-05
-1.71115e-06
1.69702e-06
1.07994e-05
-9.47434e-07
9.26284e-07
1.08256e-05
-1.80838e-07
1.54633e-07
1.08542e-05
5.56815e-07
-5.85413e-07
1.0882e-05
1.24206e-06
-1.26985e-06
1.09058e-05
1.85624e-06
-1.88001e-06
1.09227e-05
2.38674e-06
-2.40369e-06
1.09307e-05
2.82737e-06
-2.83537e-06
1.09284e-05
3.17796e-06
-3.17564e-06
1.09151e-05
3.44319e-06
-3.42992e-06
1.08911e-05
3.63095e-06
-3.60695e-06
1.0857e-05
3.75168e-06
-3.71754e-06
1.08122e-05
3.81662e-06
-3.77183e-06
1.07535e-05
3.83372e-06
-3.77505e-06
1.06815e-05
3.80731e-06
-3.73529e-06
1.05973e-05
3.75013e-06
-3.66588e-06
1.05013e-05
3.67352e-06
-3.57753e-06
1.03938e-05
3.58595e-06
-3.47845e-06
1.02753e-05
3.49282e-06
-3.37432e-06
1.01471e-05
3.39615e-06
-3.26801e-06
1.0012e-05
3.29436e-06
-3.15924e-06
9.87399e-06
3.18251e-06
-3.0445e-06
9.73836e-06
3.05311e-06
-2.91748e-06
9.61091e-06
2.89763e-06
-2.77017e-06
9.49714e-06
2.7083e-06
-2.59452e-06
9.40157e-06
2.47974e-06
-2.38417e-06
9.32733e-06
2.21002e-06
-2.13578e-06
9.27613e-06
1.90095e-06
-1.84974e-06
9.24835e-06
1.55776e-06
-1.52998e-06
1.1884e-06
-1.18327e-06
3.75745e-07
-1.3408e-06
9.83943e-07
8.78862e-08
1.5679e-06
1.4921e-06
1.99013e-06
2.69064e-06
2.14976e-06
3.64733e-06
2.01863e-06
4.35581e-06
1.62426e-06
4.8233e-06
1.02453e-06
5.05574e-06
3.62064e-07
5.03777e-06
-1.88057e-07
4.78094e-06
-4.85011e-07
4.26444e-06
-4.81493e-07
3.51099e-06
-2.0306e-07
2.55826e-06
2.97091e-07
1.46324e-06
9.37343e-07
3.2116e-07
1.63444e-06
-7.45565e-07
2.32732e-06
-1.73573e-06
2.98411e-06
-2.61128e-06
3.5828e-06
-3.36567e-06
4.1088e-06
-4.0002e-06
4.55537e-06
-4.52379e-06
4.92524e-06
-4.94513e-06
5.23611e-06
-5.27582e-06
5.52423e-06
-5.52002e-06
5.84636e-06
-5.65571e-06
6.2742e-06
-5.63224e-06
6.85116e-06
-5.35438e-06
7.57409e-06
-4.74201e-06
8.41625e-06
-3.8024e-06
9.31161e-06
-2.59869e-06
1.01637e-05
-1.26408e-06
1.09013e-05
3.5871e-08
1.14913e-05
1.19022e-06
1.19249e-05
2.14649e-06
1.22108e-05
2.88981e-06
1.2369e-05
3.43159e-06
1.24256e-05
3.79802e-06
1.24045e-05
4.0219e-06
1.23204e-05
4.13648e-06
1.21918e-05
4.16498e-06
1.20363e-05
4.13727e-06
1.18697e-05
4.07603e-06
1.17008e-05
4.00162e-06
1.15333e-05
3.92701e-06
1.13673e-05
3.85911e-06
1.1202e-05
3.8001e-06
1.10358e-05
3.75085e-06
1.08647e-05
3.71378e-06
1.06825e-05
3.69443e-06
1.04821e-05
3.70013e-06
1.02588e-05
3.73449e-06
1.00147e-05
3.78926e-06
9.76037e-06
3.83866e-06
9.51195e-06
3.84275e-06
9.28826e-06
3.7542e-06
9.10777e-06
3.52965e-06
8.98478e-06
3.14265e-06
8.92692e-06
2.59161e-06
8.93514e-06
1.89942e-06
9.00488e-06
1.1071e-06
9.1257e-06
2.67443e-07
9.28308e-06
-5.60395e-07
9.46498e-06
-1.33695e-06
9.6591e-06
-2.03555e-06
9.85397e-06
-2.63918e-06
1.004e-05
-3.14097e-06
1.021e-05
-3.54266e-06
1.03591e-05
-3.85234e-06
1.04842e-05
-4.08277e-06
1.05845e-05
-4.24934e-06
1.06602e-05
-4.36819e-06
1.07122e-05
-4.45505e-06
1.07409e-05
-4.52433e-06
1.07467e-05
-4.58816e-06
1.0732e-05
-4.6535e-06
1.07027e-05
-4.72151e-06
1.06655e-05
-4.78323e-06
1.06251e-05
-4.82479e-06
1.05807e-05
-4.83097e-06
1.05285e-05
-4.77848e-06
1.04787e-05
-4.64156e-06
1.04324e-05
-4.40551e-06
1.03908e-05
-4.06238e-06
1.03557e-05
-3.61118e-06
1.03295e-05
-3.05849e-06
1.03145e-05
-2.41788e-06
1.03127e-05
-1.70937e-06
1.03249e-05
-9.59622e-07
1.03493e-05
-2.05179e-07
1.03829e-05
5.23213e-07
1.04219e-05
1.20302e-06
1.04623e-05
1.81582e-06
1.05002e-05
2.34884e-06
1.05324e-05
2.79521e-06
1.0556e-05
3.15439e-06
1.05693e-05
3.42983e-06
1.05716e-05
3.62871e-06
1.05624e-05
3.76084e-06
1.05421e-05
3.83693e-06
1.05083e-05
3.8675e-06
1.04575e-05
3.8581e-06
1.03912e-05
3.81642e-06
1.03102e-05
3.75451e-06
1.02152e-05
3.68102e-06
1.01072e-05
3.60082e-06
9.9884e-06
3.51492e-06
9.86235e-06
3.42041e-06
9.73381e-06
3.31106e-06
9.60834e-06
3.17858e-06
9.49164e-06
3.01432e-06
9.38887e-06
2.81107e-06
9.30409e-06
2.56451e-06
9.2401e-06
2.27401e-06
9.19836e-06
1.94269e-06
9.17931e-06
1.57682e-06
1.18563e-06
-4.9648e-07
-8.44324e-07
-6.47759e-07
2.39165e-07
-6.80977e-07
1.52532e-06
-7.27018e-07
2.73668e-06
-8.55557e-07
3.77587e-06
-1.073e-06
4.57326e-06
-1.3201e-06
5.0704e-06
-1.55901e-06
5.29465e-06
-1.70697e-06
5.18572e-06
-1.67212e-06
4.74609e-06
-1.42871e-06
4.02103e-06
-9.71625e-07
3.05391e-06
-3.17945e-07
1.90458e-06
4.52707e-07
6.92592e-07
1.2479e-06
-4.74037e-07
2.04679e-06
-1.54445e-06
2.80249e-06
-2.49144e-06
3.49252e-06
-3.30132e-06
4.09642e-06
-3.96957e-06
4.59844e-06
-4.50222e-06
4.98955e-06
-4.9149e-06
5.27338e-06
-5.22897e-06
5.46593e-06
-5.46837e-06
5.5952e-06
-5.64929e-06
5.70057e-06
-5.76108e-06
5.84531e-06
-5.77698e-06
6.11732e-06
-5.62639e-06
6.5684e-06
-5.19309e-06
7.20021e-06
-4.43421e-06
7.9681e-06
-3.36658e-06
8.7932e-06
-2.08918e-06
9.58316e-06
-7.54097e-07
1.02782e-05
4.95155e-07
1.08475e-05
1.57721e-06
1.12813e-05
2.45601e-06
1.15855e-05
3.12743e-06
1.17751e-05
3.6084e-06
1.18707e-05
3.92629e-06
1.18953e-05
4.11192e-06
1.18631e-05
4.19719e-06
1.17843e-05
4.21603e-06
1.1672e-05
4.18837e-06
1.15424e-05
4.13114e-06
1.14063e-05
4.06316e-06
1.12671e-05
3.99824e-06
1.11256e-05
3.94163e-06
1.098e-05
3.8965e-06
1.08262e-05
3.86755e-06
1.06584e-05
3.8622e-06
1.0471e-05
3.88753e-06
1.02622e-05
3.94335e-06
1.00371e-05
4.01432e-06
9.80775e-06
4.06801e-06
9.58907e-06
4.06143e-06
9.39851e-06
3.94475e-06
9.25256e-06
3.67561e-06
9.1625e-06
3.23271e-06
9.1334e-06
2.62071e-06
9.16515e-06
1.86767e-06
9.25281e-06
1.01945e-06
9.38486e-06
1.35386e-07
9.54732e-06
-7.22853e-07
9.72781e-06
-1.51744e-06
9.91399e-06
-2.22173e-06
1.00947e-05
-2.81992e-06
1.02613e-05
-3.30757e-06
1.04077e-05
-3.689e-06
1.05299e-05
-3.97455e-06
1.06262e-05
-4.17909e-06
1.06964e-05
-4.31952e-06
1.07412e-05
-4.413e-06
1.07623e-05
-4.47618e-06
1.07611e-05
-4.52311e-06
1.07368e-05
-4.56391e-06
1.06911e-05
-4.60775e-06
1.0628e-05
-4.65843e-06
1.05538e-05
-4.70906e-06
1.04737e-05
-4.74468e-06
1.03893e-05
-4.74654e-06
1.03022e-05
-4.6914e-06
1.02168e-05
-4.55616e-06
1.01358e-05
-4.32451e-06
1.00617e-05
-3.98828e-06
9.99743e-06
-3.5469e-06
9.94613e-06
-3.00719e-06
9.91095e-06
-2.3827e-06
9.89445e-06
-1.69287e-06
9.89786e-06
-9.63032e-07
9.9195e-06
-2.26818e-07
9.95638e-06
4.86332e-07
1.00043e-05
1.15513e-06
1.00585e-05
1.76163e-06
1.01142e-05
2.29311e-06
1.01673e-05
2.74206e-06
1.0214e-05
3.10773e-06
1.02514e-05
3.39242e-06
1.02777e-05
3.60239e-06
1.02918e-05
3.74677e-06
1.0293e-05
3.83572e-06
1.02808e-05
3.8797e-06
1.02513e-05
3.8876e-06
1.02029e-05
3.86485e-06
1.01369e-05
3.82055e-06
1.00545e-05
3.76341e-06
9.95755e-06
3.69772e-06
9.84911e-06
3.62337e-06
9.73334e-06
3.53618e-06
9.61548e-06
3.42891e-06
9.50128e-06
3.29278e-06
9.3963e-06
3.11929e-06
9.30539e-06
2.90199e-06
9.23218e-06
2.63772e-06
9.17892e-06
2.32727e-06
9.14664e-06
1.97496e-06
9.13575e-06
1.58771e-06
1.1759e-06
-7.60632e-07
-8.3692e-08
-1.34816e-06
8.26689e-07
-1.76184e-06
1.93901e-06
-2.08157e-06
3.05641e-06
-2.31943e-06
4.01373e-06
-2.47514e-06
4.72896e-06
-2.53755e-06
5.13281e-06
-2.50976e-06
5.26686e-06
-2.33856e-06
5.01452e-06
-1.98266e-06
4.39019e-06
-1.41427e-06
3.45264e-06
-6.54101e-07
2.29374e-06
1.93061e-07
1.05742e-06
1.06488e-06
-1.79226e-07
1.93172e-06
-1.34088e-06
2.76715e-06
-2.37988e-06
3.54309e-06
-3.26737e-06
4.2337e-06
-3.99192e-06
4.81952e-06
-4.55539e-06
5.28737e-06
-4.97007e-06
5.62866e-06
-5.2562e-06
5.84078e-06
-5.44109e-06
5.93036e-06
-5.55795e-06
5.92967e-06
-5.64859e-06
5.88501e-06
-5.71642e-06
5.84369e-06
-5.73566e-06
5.85695e-06
-5.63966e-06
6.00549e-06
-5.34163e-06
6.36628e-06
-4.795e-06
6.93153e-06
-3.93183e-06
7.63571e-06
-2.79336e-06
8.39297e-06
-1.51135e-06
9.12213e-06
-2.34007e-07
9.77364e-06
9.25693e-07
1.03186e-05
1.91109e-06
1.07466e-05
2.69936e-06
1.10615e-05
3.29357e-06
1.12754e-05
3.71239e-06
1.14044e-05
3.98286e-06
1.14643e-05
4.13729e-06
1.14724e-05
4.20796e-06
1.14356e-05
4.22515e-06
1.13625e-05
4.20422e-06
1.1269e-05
4.15668e-06
1.11646e-05
4.10267e-06
1.10525e-05
4.0537e-06
1.0932e-05
4.017e-06
1.07998e-05
3.99975e-06
1.06514e-05
4.01055e-06
1.04835e-05
4.05546e-06
1.0297e-05
4.12993e-06
1.00999e-05
4.21138e-06
9.9037e-06
4.2642e-06
9.72185e-06
4.24328e-06
9.57071e-06
4.09589e-06
9.46384e-06
3.78248e-06
9.40933e-06
3.28722e-06
9.41056e-06
2.61949e-06
9.46663e-06
1.81159e-06
9.5719e-06
9.14178e-07
9.7132e-06
-5.91254e-09
9.8773e-06
-8.86954e-07
1.00516e-05
-1.69175e-06
1.02242e-05
-2.3943e-06
1.03848e-05
-2.98051e-06
1.05259e-05
-3.44869e-06
1.06429e-05
-3.80601e-06
1.07334e-05
-4.06506e-06
1.07971e-05
-4.24278e-06
1.0835e-05
-4.35738e-06
1.08485e-05
-4.42656e-06
1.08377e-05
-4.46531e-06
1.0802e-05
-4.48749e-06
1.07439e-05
-4.50577e-06
1.06664e-05
-4.53029e-06
1.05724e-05
-4.56437e-06
1.04656e-05
-4.60225e-06
1.03507e-05
-4.62982e-06
1.02313e-05
-4.62711e-06
1.01106e-05
-4.57075e-06
9.99266e-06
-4.43819e-06
9.88089e-06
-4.21274e-06
9.77853e-06
-3.88592e-06
9.68904e-06
-3.4574e-06
9.61609e-06
-2.93425e-06
9.5633e-06
-2.3299e-06
9.53365e-06
-1.66322e-06
9.52872e-06
-9.58106e-07
9.54705e-06
-2.45141e-07
9.58556e-06
4.47823e-07
9.6399e-06
1.10078e-06
9.70492e-06
1.69661e-06
9.7753e-06
2.22273e-06
9.84583e-06
2.67153e-06
9.91221e-06
3.04134e-06
9.9707e-06
3.33392e-06
1.00184e-05
3.55473e-06
1.00531e-05
3.71203e-06
1.00736e-05
3.81519e-06
1.00793e-05
3.87406e-06
1.00683e-05
3.89862e-06
1.00369e-05
3.89623e-06
9.98525e-06
3.87217e-06
9.91554e-06
3.83312e-06
9.83042e-06
3.78284e-06
9.73362e-06
3.72017e-06
9.62995e-06
3.63985e-06
9.52497e-06
3.5339e-06
9.42436e-06
3.39339e-06
9.33332e-06
3.21033e-06
9.25603e-06
2.97928e-06
9.19534e-06
2.69841e-06
9.15283e-06
2.36978e-06
9.12941e-06
1.99838e-06
9.12454e-06
1.59258e-06
1.16136e-06
-8.27258e-07
-1.52408e-06
-2.01097e-06
-2.32333e-06
-2.49461e-06
-2.55629e-06
-2.55355e-06
-2.40377e-06
-2.00974e-06
-1.38289e-06
-5.93838e-07
2.64971e-07
1.1623e-06
2.06166e-06
2.93873e-06
3.76665e-06
4.51773e-06
5.16729e-06
5.70196e-06
6.11882e-06
6.42179e-06
6.60231e-06
6.64027e-06
6.53392e-06
6.32812e-06
6.09949e-06
5.92443e-06
5.85903e-06
5.94522e-06
6.25156e-06
6.76913e-06
7.41865e-06
8.11325e-06
8.7863e-06
9.39524e-06
9.91416e-06
1.03332e-05
1.06539e-05
1.08837e-05
1.10344e-05
1.11205e-05
1.11575e-05
1.11539e-05
1.11161e-05
1.10548e-05
1.09789e-05
1.08896e-05
1.07851e-05
1.06627e-05
1.05213e-05
1.03649e-05
1.02043e-05
1.00494e-05
9.91097e-06
9.80464e-06
9.7408e-06
9.72483e-06
9.75856e-06
9.83996e-06
9.96206e-06
1.01102e-05
1.02718e-05
1.04346e-05
1.05872e-05
1.07213e-05
1.08309e-05
1.0913e-05
1.09673e-05
1.0995e-05
1.09982e-05
1.09771e-05
1.09306e-05
1.08607e-05
1.07706e-05
1.06627e-05
1.0539e-05
1.04025e-05
1.02572e-05
1.01071e-05
9.95659e-06
9.81026e-06
9.67214e-06
9.54598e-06
9.43554e-06
9.3447e-06
9.27726e-06
9.23636e-06
9.22374e-06
9.23818e-06
9.27668e-06
9.33491e-06
9.40749e-06
9.48875e-06
9.57296e-06
9.65515e-06
9.7308e-06
9.79627e-06
9.84867e-06
9.88608e-06
9.9072e-06
9.91109e-06
9.89554e-06
9.85836e-06
9.80202e-06
9.73008e-06
9.64686e-06
9.55743e-06
3.72929e-06
9.46717e-06
3.62416e-06
9.3812e-06
3.47936e-06
9.30387e-06
3.28766e-06
9.23856e-06
3.04459e-06
9.18792e-06
2.74905e-06
9.15407e-06
2.40363e-06
9.13805e-06
2.0144e-06
9.14102e-06
1.58961e-06
1.13888e-06
9.5191e-06
9.44371e-06
9.37154e-06
9.30664e-06
9.25249e-06
9.21185e-06
9.18705e-06
9.18004e-06
9.19192e-06
4.9421e-06
1.84117e-07
4.74585e-06
1.96248e-07
4.5372e-06
2.08656e-07
4.31607e-06
2.21129e-07
4.08253e-06
2.33538e-07
3.83697e-06
2.45558e-07
3.58045e-06
2.56521e-07
3.31545e-06
2.65004e-07
3.04736e-06
2.68086e-07
2.78259e-06
2.64766e-07
2.5256e-06
2.56992e-07
2.27894e-06
2.4666e-07
2.04404e-06
2.34897e-07
1.82184e-06
2.22207e-07
1.61288e-06
2.08955e-07
1.41746e-06
1.95422e-07
1.23569e-06
1.81769e-07
1.06765e-06
1.68038e-07
9.1344e-07
1.54214e-07
7.73018e-07
1.40422e-07
6.46292e-07
1.26726e-07
5.33106e-07
1.13186e-07
4.3272e-07
1.00386e-07
3.43097e-07
8.96233e-08
8.06201e-08
2.62477e-07
1.08385e-05
2.95852e-07
1.07164e-05
3.18339e-07
1.05837e-05
3.41435e-07
1.04403e-05
3.64517e-07
1.02862e-05
3.87635e-07
1.01213e-05
4.10455e-07
9.9455e-06
4.32301e-07
9.75808e-06
4.5242e-07
9.556e-06
4.70166e-07
9.33607e-06
4.84697e-07
9.09756e-06
4.955e-07
8.84125e-06
5.02972e-07
8.56843e-06
5.07718e-07
8.28052e-06
5.10114e-07
7.97904e-06
5.10438e-07
7.66553e-06
5.0893e-07
7.34157e-06
5.05728e-07
7.00863e-06
5.00978e-07
6.66806e-06
4.94787e-07
6.32122e-06
4.87264e-07
5.96947e-06
4.78473e-07
5.61423e-06
4.68428e-07
5.25775e-06
4.56862e-07
4.90424e-06
4.43135e-07
4.27493e-07
4.55737e-06
1.31525e-05
3.43073e-07
1.30995e-05
3.71408e-07
1.30406e-05
4.00354e-07
1.29757e-05
4.29366e-07
1.29049e-05
4.5849e-07
1.28279e-05
4.87405e-07
1.27446e-05
5.15629e-07
1.26544e-05
5.42622e-07
1.25567e-05
5.67837e-07
1.24506e-05
5.90802e-07
1.23349e-05
6.11247e-07
1.22086e-05
6.29223e-07
1.20714e-05
6.44943e-07
1.19229e-05
6.58619e-07
1.17629e-05
6.70425e-07
1.15914e-05
6.80453e-07
1.14083e-05
6.88767e-07
1.12139e-05
6.95424e-07
1.10082e-05
7.0045e-07
1.07916e-05
7.03851e-07
1.05645e-05
7.05627e-07
1.03271e-05
7.05764e-07
1.00796e-05
7.04364e-07
9.82132e-06
7.01447e-07
6.96772e-07
9.55205e-06
1.38992e-05
3.59923e-07
1.38791e-05
3.9148e-07
1.38561e-05
4.23325e-07
1.38302e-05
4.55291e-07
1.38014e-05
4.8727e-07
1.37698e-05
5.19053e-07
1.37351e-05
5.50309e-07
1.3697e-05
5.80663e-07
1.36551e-05
6.09748e-07
1.36087e-05
6.37262e-07
1.35569e-05
6.62991e-07
1.34993e-05
6.86891e-07
1.34351e-05
7.09058e-07
1.33642e-05
7.29567e-07
1.32862e-05
7.48439e-07
1.32009e-05
7.65718e-07
1.31083e-05
7.81432e-07
1.30081e-05
7.9558e-07
1.29004e-05
8.08143e-07
1.27852e-05
8.19089e-07
1.26624e-05
8.2838e-07
1.25322e-05
8.35973e-07
1.23948e-05
8.41804e-07
1.22504e-05
8.45834e-07
8.48029e-07
1.20991e-05
1.41192e-05
3.65987e-07
1.4111e-05
3.99626e-07
1.41011e-05
4.3332e-07
1.40893e-05
4.67015e-07
1.4076e-05
5.00598e-07
1.40611e-05
5.33952e-07
1.40446e-05
5.66852e-07
1.40262e-05
5.99056e-07
1.40056e-05
6.30296e-07
1.39825e-05
6.60383e-07
1.39564e-05
6.89064e-07
1.3927e-05
7.16346e-07
1.38938e-05
7.42191e-07
1.38568e-05
7.66602e-07
1.38157e-05
7.89562e-07
1.37703e-05
8.11045e-07
1.37208e-05
8.31023e-07
1.36669e-05
8.49455e-07
1.36087e-05
8.66294e-07
1.35463e-05
8.81482e-07
1.34798e-05
8.94958e-07
1.34091e-05
9.06661e-07
1.33343e-05
9.16568e-07
1.32555e-05
9.24603e-07
9.30653e-07
1.31729e-05
1.41783e-05
3.68691e-07
1.41738e-05
4.04091e-07
1.41678e-05
4.39331e-07
1.41604e-05
4.74407e-07
1.41517e-05
5.0926e-07
1.41418e-05
5.43837e-07
1.41307e-05
5.77993e-07
1.41182e-05
6.1157e-07
1.41041e-05
6.44392e-07
1.40881e-05
6.76342e-07
1.407e-05
7.07187e-07
1.40495e-05
7.36891e-07
1.40263e-05
7.65327e-07
1.40005e-05
7.92454e-07
1.39718e-05
8.18201e-07
1.39404e-05
8.42489e-07
1.39062e-05
8.65235e-07
1.38693e-05
8.86354e-07
1.38298e-05
9.05761e-07
1.37879e-05
9.23368e-07
1.37438e-05
9.39087e-07
1.36976e-05
9.52839e-07
1.36496e-05
9.64564e-07
1.36001e-05
9.74178e-07
9.81649e-07
1.35491e-05
1.42065e-05
3.71005e-07
1.42025e-05
4.08067e-07
1.41971e-05
4.44761e-07
1.41904e-05
4.81147e-07
1.41824e-05
5.17229e-07
1.41732e-05
5.53001e-07
1.41628e-05
5.88395e-07
1.41511e-05
6.23306e-07
1.41378e-05
6.57628e-07
1.4123e-05
6.91234e-07
1.41062e-05
7.23977e-07
1.40873e-05
7.55754e-07
1.40662e-05
7.86423e-07
1.40428e-05
8.15883e-07
1.4017e-05
8.43998e-07
1.39888e-05
8.70635e-07
1.39584e-05
8.95659e-07
1.39258e-05
9.18932e-07
1.38913e-05
9.40328e-07
1.38549e-05
9.5971e-07
1.3817e-05
9.76967e-07
1.37779e-05
9.91987e-07
1.37378e-05
1.00467e-06
1.3697e-05
1.01493e-06
1.02276e-06
1.36559e-05
1.42353e-05
3.73796e-07
1.42309e-05
4.12445e-07
1.42251e-05
4.5054e-07
1.42181e-05
4.88203e-07
1.42098e-05
5.25512e-07
1.42003e-05
5.62519e-07
1.41894e-05
5.99212e-07
1.41772e-05
6.35542e-07
1.41634e-05
6.71438e-07
1.41478e-05
7.06796e-07
1.41303e-05
7.41488e-07
1.41107e-05
7.7537e-07
1.40888e-05
8.08279e-07
1.40647e-05
8.40049e-07
1.40382e-05
8.7049e-07
1.40094e-05
8.99415e-07
1.39784e-05
9.26629e-07
1.39454e-05
9.51945e-07
1.39106e-05
9.75192e-07
1.38741e-05
9.96187e-07
1.38363e-05
1.01479e-06
1.37974e-05
1.03083e-06
1.37579e-05
1.04421e-06
1.3718e-05
1.05482e-06
1.06262e-06
1.36781e-05
1.42687e-05
3.77464e-07
1.42636e-05
4.17586e-07
1.42572e-05
4.56973e-07
1.42496e-05
4.95822e-07
1.42407e-05
5.34317e-07
1.42307e-05
5.72564e-07
1.42193e-05
6.10602e-07
1.42064e-05
6.48436e-07
1.41918e-05
6.86026e-07
1.41753e-05
7.23289e-07
1.41567e-05
7.60092e-07
1.41358e-05
7.96263e-07
1.41125e-05
8.31599e-07
1.40867e-05
8.65872e-07
1.40584e-05
8.98835e-07
1.40275e-05
9.30231e-07
1.39944e-05
9.59803e-07
1.3959e-05
9.87302e-07
1.39217e-05
1.0125e-06
1.38827e-05
1.03516e-06
1.38424e-05
1.0551e-06
1.38011e-05
1.07212e-06
1.37592e-05
1.08609e-06
1.37172e-05
1.09688e-06
1.10442e-06
1.36754e-05
1.43064e-05
3.82254e-07
1.43003e-05
4.23662e-07
1.42932e-05
4.64139e-07
1.4285e-05
5.0401e-07
1.42757e-05
5.43582e-07
1.42653e-05
5.83005e-07
1.42535e-05
6.22379e-07
1.42402e-05
6.6177e-07
1.4225e-05
7.01173e-07
1.42078e-05
7.40515e-07
1.41882e-05
7.7965e-07
1.41661e-05
8.18373e-07
1.41413e-05
8.56429e-07
1.41137e-05
8.93523e-07
1.40832e-05
9.29336e-07
1.40498e-05
9.63533e-07
1.40139e-05
9.95782e-07
1.39754e-05
1.02576e-06
1.39347e-05
1.05318e-06
1.38921e-05
1.07775e-06
1.3848e-05
1.09922e-06
1.38028e-05
1.11736e-06
1.37569e-05
1.13201e-06
1.37107e-05
1.14302e-06
1.15029e-06
1.36649e-05
1.43476e-05
3.88461e-07
1.43404e-05
4.30853e-07
1.43325e-05
4.72107e-07
1.43237e-05
5.12738e-07
1.43141e-05
5.53169e-07
1.43035e-05
5.93607e-07
1.42917e-05
6.34243e-07
1.42782e-05
6.75204e-07
1.42629e-05
7.16521e-07
1.42453e-05
7.58125e-07
1.42251e-05
7.99853e-07
1.4202e-05
8.41453e-07
1.41758e-05
8.82603e-07
1.41464e-05
9.22927e-07
1.41138e-05
9.62015e-07
1.40778e-05
9.9944e-07
1.40388e-05
1.03478e-06
1.3997e-05
1.06763e-06
1.39525e-05
1.09763e-06
1.39058e-05
1.12443e-06
1.38573e-05
1.14772e-06
1.38075e-05
1.16723e-06
1.37567e-05
1.18275e-06
1.37056e-05
1.19411e-06
1.20118e-06
1.36548e-05
1.43915e-05
3.96409e-07
1.43831e-05
4.39349e-07
1.43742e-05
4.80931e-07
1.4365e-05
5.21922e-07
1.43553e-05
5.62862e-07
1.43449e-05
6.04057e-07
1.43333e-05
6.45804e-07
1.43202e-05
6.88303e-07
1.43051e-05
7.31624e-07
1.42876e-05
7.757e-07
1.42671e-05
8.20333e-07
1.42433e-05
8.65209e-07
1.4216e-05
9.09918e-07
1.4185e-05
9.53982e-07
1.41501e-05
9.96877e-07
1.41115e-05
1.03806e-06
1.40692e-05
1.07701e-06
1.40237e-05
1.11321e-06
1.39751e-05
1.14622e-06
1.39239e-05
1.17563e-06
1.38705e-05
1.20108e-06
1.38155e-05
1.22224e-06
1.37594e-05
1.23886e-06
1.37027e-05
1.25074e-06
1.25774e-06
1.36462e-05
1.44376e-05
4.06479e-07
1.44275e-05
4.4936e-07
1.44178e-05
4.9064e-07
1.44083e-05
5.31413e-07
1.43989e-05
5.72354e-07
1.4389e-05
6.13921e-07
1.43783e-05
6.56542e-07
1.43661e-05
7.00502e-07
1.43518e-05
7.45914e-07
1.43348e-05
7.92708e-07
1.43145e-05
8.40634e-07
1.42904e-05
8.8929e-07
1.42621e-05
9.38149e-07
1.42295e-05
9.86595e-07
1.41924e-05
1.03396e-06
1.41509e-05
1.07957e-06
1.41052e-05
1.12274e-06
1.40555e-05
1.16288e-06
1.40023e-05
1.19942e-06
1.39461e-05
1.23191e-06
1.38872e-05
1.2599e-06
1.38265e-05
1.28303e-06
1.37643e-05
1.301e-06
1.37015e-05
1.3136e-06
1.32064e-06
1.36386e-05
1.44847e-05
4.19113e-07
1.4473e-05
4.6111e-07
1.44624e-05
5.01221e-07
1.44528e-05
5.4096e-07
1.4444e-05
5.81194e-07
1.44353e-05
6.22588e-07
1.44261e-05
6.65736e-07
1.44156e-05
7.1103e-07
1.44029e-05
7.5863e-07
1.43871e-05
8.08448e-07
1.43676e-05
8.60161e-07
1.43437e-05
9.13243e-07
1.43148e-05
9.67004e-07
1.42808e-05
1.02065e-06
1.42414e-05
1.07332e-06
1.41968e-05
1.12417e-06
1.41472e-05
1.17235e-06
1.4093e-05
1.21711e-06
1.40346e-05
1.25781e-06
1.39726e-05
1.29389e-06
1.39076e-05
1.32487e-06
1.38403e-05
1.35033e-06
1.37713e-05
1.36995e-06
1.37015e-05
1.38348e-06
1.39073e-06
1.36314e-05
1.45319e-05
4.34834e-07
1.45182e-05
4.74837e-07
1.45068e-05
5.12592e-07
1.44976e-05
5.50181e-07
1.44901e-05
5.88743e-07
1.44834e-05
6.2922e-07
1.44767e-05
6.72418e-07
1.44689e-05
7.1886e-07
1.44588e-05
7.6876e-07
1.44452e-05
8.22e-07
1.44273e-05
8.78144e-07
1.4404e-05
9.36488e-07
1.43749e-05
9.96122e-07
1.43395e-05
1.05601e-06
1.42978e-05
1.11505e-06
1.42498e-05
1.17214e-06
1.41959e-05
1.22627e-06
1.41365e-05
1.27649e-06
1.40723e-05
1.32206e-06
1.40038e-05
1.36235e-06
1.39319e-05
1.39682e-06
1.38572e-05
1.42502e-06
1.37806e-05
1.4466e-06
1.37027e-05
1.46131e-06
1.46895e-06
1.36245e-05
1.45777e-05
4.54272e-07
1.45617e-05
4.90815e-07
1.45497e-05
5.24615e-07
1.45414e-05
5.58525e-07
1.4536e-05
5.94088e-07
1.45326e-05
6.32638e-07
1.45298e-05
6.7525e-07
1.4526e-05
7.22598e-07
1.45198e-05
7.74952e-07
1.45097e-05
8.32142e-07
1.44943e-05
8.93568e-07
1.44725e-05
9.58274e-07
1.44436e-05
1.02505e-06
1.44071e-05
1.09251e-06
1.43629e-05
1.15925e-06
1.43111e-05
1.22386e-06
1.42523e-05
1.28506e-06
1.41871e-05
1.34174e-06
1.41161e-05
1.39301e-06
1.40403e-05
1.43818e-06
1.39605e-05
1.47668e-06
1.38774e-05
1.50803e-06
1.37921e-05
1.53192e-06
1.37053e-05
1.54809e-06
1.55634e-06
1.3618e-05
1.46201e-05
4.7814e-07
1.46016e-05
5.09266e-07
1.45892e-05
5.37021e-07
1.45825e-05
5.6521e-07
1.45806e-05
5.95993e-07
1.4582e-05
6.31249e-07
1.45848e-05
6.72424e-07
1.45871e-05
7.20364e-07
1.45866e-05
7.75405e-07
1.45815e-05
8.3728e-07
1.45699e-05
9.05141e-07
1.45505e-05
9.77674e-07
1.45223e-05
1.05323e-06
1.44848e-05
1.13e-06
1.44379e-05
1.20613e-06
1.4382e-05
1.27982e-06
1.43176e-05
1.34946e-06
1.42456e-05
1.41373e-06
1.41669e-05
1.47165e-06
1.40827e-05
1.52245e-06
1.39938e-05
1.56552e-06
1.39014e-05
1.60045e-06
1.38064e-05
1.62698e-06
1.37095e-05
1.64491e-06
1.65403e-06
1.36118e-05
1.46561e-05
5.07364e-07
1.4635e-05
5.30341e-07
1.46227e-05
5.49323e-07
1.46189e-05
5.69016e-07
1.46222e-05
5.92693e-07
1.46305e-05
6.22884e-07
1.46415e-05
6.61494e-07
1.46522e-05
7.09624e-07
1.46599e-05
7.67689e-07
1.46619e-05
8.35264e-07
1.46559e-05
9.11145e-07
1.46401e-05
9.93498e-07
1.46133e-05
1.08005e-06
1.45749e-05
1.16839e-06
1.4525e-05
1.25608e-06
1.4464e-05
1.34081e-06
1.43929e-05
1.42053e-06
1.43129e-05
1.49372e-06
1.42253e-05
1.55929e-06
1.41313e-05
1.61642e-06
1.40323e-05
1.66453e-06
1.39293e-05
1.70339e-06
1.38234e-05
1.73288e-06
1.37155e-05
1.75287e-06
1.76318e-06
1.36063e-05
1.46821e-05
5.42992e-07
1.46587e-05
5.53756e-07
1.46471e-05
5.60867e-07
1.46477e-05
5.684e-07
1.46587e-05
5.81728e-07
1.46771e-05
6.04501e-07
1.46994e-05
6.39122e-07
1.4722e-05
6.87033e-07
1.4741e-05
7.48697e-07
1.47529e-05
8.23415e-07
1.47546e-05
9.09471e-07
1.47438e-05
1.00429e-06
1.47191e-05
1.10474e-06
1.46799e-05
1.2076e-06
1.46263e-05
1.30964e-06
1.45593e-05
1.40779e-06
1.44803e-05
1.49957e-06
1.43907e-05
1.58329e-06
1.42924e-05
1.65761e-06
1.41871e-05
1.7217e-06
1.40764e-05
1.77522e-06
1.39616e-05
1.81825e-06
1.38436e-05
1.8509e-06
1.37232e-05
1.87321e-06
1.88507e-06
1.36013e-05
1.46938e-05
5.88514e-07
1.4668e-05
5.79555e-07
1.46602e-05
5.68664e-07
1.46684e-05
5.60149e-07
1.46904e-05
5.597e-07
1.4723e-05
5.71979e-07
1.47615e-05
6.00629e-07
1.48006e-05
6.47854e-07
1.48353e-05
7.14049e-07
1.48606e-05
7.98099e-07
1.48725e-05
8.97602e-07
1.48681e-05
1.00867e-06
1.48459e-05
1.12692e-06
1.48052e-05
1.24829e-06
1.47465e-05
1.36834e-06
1.46714e-05
1.48286e-06
1.45821e-05
1.58895e-06
1.44806e-05
1.68474e-06
1.43696e-05
1.76862e-06
1.42513e-05
1.84e-06
1.41275e-05
1.89902e-06
1.39995e-05
1.94623e-06
1.38683e-05
1.98213e-06
1.37345e-05
2.00703e-06
2.02093e-06
1.35986e-05
1.47603e-05
6.68544e-07
1.47041e-05
6.44668e-07
1.46735e-05
6.1018e-07
1.46677e-05
5.7444e-07
1.46851e-05
5.42726e-07
1.47224e-05
5.2246e-07
1.47743e-05
5.20083e-07
1.48345e-05
5.40373e-07
1.4896e-05
5.86368e-07
1.49518e-05
6.58263e-07
1.49955e-05
7.54361e-07
1.50215e-05
8.7165e-07
1.5026e-05
1.00417e-06
1.50073e-05
1.14565e-06
1.49646e-05
1.29095e-06
1.4899e-05
1.43395e-06
1.48129e-05
1.56897e-06
1.47092e-05
1.69259e-06
1.45917e-05
1.80233e-06
1.44638e-05
1.89645e-06
1.43288e-05
1.97497e-06
1.4189e-05
2.03889e-06
1.40456e-05
2.0896e-06
1.38995e-05
2.12826e-06
1.37508e-05
2.15565e-06
2.17202e-06
1.35998e-05
1.47532e-05
7.71231e-07
1.46824e-05
7.15463e-07
1.46468e-05
6.45794e-07
1.46466e-05
5.74689e-07
1.46781e-05
5.11131e-07
1.47374e-05
4.63204e-07
1.48171e-05
4.40368e-07
1.49077e-05
4.49775e-07
1.49997e-05
4.94388e-07
1.50839e-05
5.74053e-07
1.51513e-05
6.86935e-07
1.51946e-05
8.2843e-07
1.52113e-05
9.87396e-07
1.51983e-05
1.15873e-06
1.51538e-05
1.33545e-06
1.50814e-05
1.50629e-06
1.49841e-05
1.66631e-06
1.48655e-05
1.81119e-06
1.47305e-05
1.93735e-06
1.45841e-05
2.04286e-06
1.44305e-05
2.12856e-06
1.42725e-05
2.19685e-06
1.41118e-05
2.25026e-06
1.3949e-05
2.29106e-06
1.37838e-05
2.32092e-06
2.34048e-06
1.36153e-05
1.45863e-05
8.95502e-07
1.45045e-05
7.97204e-07
1.44691e-05
6.81163e-07
1.44796e-05
5.64285e-07
1.4533e-05
4.57676e-07
1.4622e-05
3.7423e-07
1.47373e-05
3.2508e-07
1.48685e-05
3.18565e-07
1.50033e-05
3.59552e-07
1.51288e-05
4.48525e-07
1.52337e-05
5.82032e-07
1.53092e-05
7.53011e-07
1.53434e-05
9.53182e-07
1.53342e-05
1.16791e-06
1.52896e-05
1.38001e-06
1.52116e-05
1.58431e-06
1.51031e-05
1.77478e-06
1.49709e-05
1.94343e-06
1.48231e-05
2.08512e-06
1.46653e-05
2.20063e-06
1.45014e-05
2.29247e-06
1.4334e-05
2.36432e-06
1.41643e-05
2.4199e-06
1.39924e-05
2.46295e-06
1.3817e-05
2.49638e-06
2.52143e-06
1.3636e-05
1.40962e-05
1.03892e-06
1.40077e-05
8.85664e-07
1.39804e-05
7.08448e-07
1.40131e-05
5.31623e-07
1.4099e-05
3.71725e-07
1.42277e-05
2.45567e-07
1.43904e-05
1.62344e-07
1.45758e-05
1.33231e-07
1.47662e-05
1.69125e-07
1.49411e-05
2.73651e-07
1.50817e-05
4.41355e-07
1.51775e-05
6.57251e-07
1.52277e-05
9.02967e-07
1.52314e-05
1.16419e-06
1.51919e-05
1.41951e-06
1.51167e-05
1.65949e-06
1.50144e-05
1.8771e-06
1.48929e-05
2.06501e-06
1.47538e-05
2.22418e-06
1.46013e-05
2.35309e-06
1.44438e-05
2.45e-06
1.42852e-05
2.52294e-06
1.41257e-05
2.57933e-06
1.39633e-05
2.62535e-06
1.37947e-05
2.66507e-06
2.70054e-06
1.36155e-05
1.29352e-05
1.17744e-06
1.28538e-05
9.67074e-07
1.28354e-05
7.2688e-07
1.2885e-05
4.8197e-07
1.3002e-05
2.5477e-07
1.31687e-05
7.88872e-08
1.33713e-05
-4.02895e-08
1.35956e-05
-9.1091e-08
1.38263e-05
-6.15365e-08
1.40481e-05
5.17922e-08
1.42435e-05
2.4597e-07
1.43976e-05
5.03141e-07
1.45053e-05
7.9525e-07
1.45668e-05
1.10274e-06
1.4583e-05
1.40328e-06
1.45587e-05
1.68378e-06
1.45013e-05
1.93458e-06
1.44185e-05
2.14778e-06
1.43197e-05