/*--------------------------------*- C++ -*----------------------------------*\
| =========                 |                                                 |
| \\      /  F ield         | OpenFOAM: The Open Source CFD Toolbox           |
|  \\    /   O peration     | Version:  2206                                  |
|   \\  /    A nd           | Website:  www.openfoam.com                      |
|    \\/     M anipulation  |                                                 |
\*---------------------------------------------------------------------------*/
FoamFile
{
    version     2.0;
    format      ascii;
    arch        "LSB;label=32;scalar=64";
    class       volVectorField;
    location    "19.4001";
    object      ddt0(U);
}
// * * * * * * * * * * * * * * * * * * * * * * * * * * * * * * * * * * * * * //

dimensions      [0 1 -2 0 0 0 0];

internalField   nonuniform List<vector> 
4824
(
(-6.06697 -14.1547 0)
(-5.66783 -20.0502 0)
(-5.31154 -25.9179 0)
(-4.97604 -31.6886 0)
(-4.64449 -37.2708 0)
(-4.30692 -42.5531 0)
(-3.95513 -47.4134 0)
(-3.5844 -51.727 0)
(-3.19396 -55.3683 0)
(-2.78581 -58.2055 0)
(-2.35504 -60.0703 0)
(-1.87481 -60.6295 0)
(-1.33832 -59.9946 0)
(-0.752325 -58.482 0)
(-0.112997 -56.1502 0)
(0.579353 -53.0873 0)
(1.3187 -49.4019 0)
(2.09341 -45.2157 0)
(2.88679 -40.6547 0)
(3.67739 -35.8385 0)
(4.43841 -30.8736 0)
(5.13881 -25.859 0)
(5.74821 -20.8861 0)
(6.23889 -16.0382 0)
(6.5415 -11.3987 0)
(6.62171 -7.06117 0)
(7.09071 -2.69143 0)
(7.05623 2.4449 0)
(6.9022 7.60846 0)
(6.46404 12.6458 0)
(5.72261 17.5443 0)
(4.77094 22.304 0)
(3.63888 26.8858 0)
(2.35626 31.2301 0)
(0.964722 35.2675 0)
(-0.496958 38.9255 0)
(-1.99242 42.1331 0)
(-3.48505 44.8258 0)
(-4.93837 46.95 0)
(-6.31801 48.4603 0)
(-7.58742 49.3077 0)
(-8.67158 49.3754 0)
(-9.57266 48.7757 0)
(-10.3396 47.6823 0)
(-10.9639 46.1318 0)
(-11.4416 44.1664 0)
(-11.7773 41.8321 0)
(-11.9783 39.1779 0)
(-12.0545 36.2507 0)
(-12.0165 33.0948 0)
(-11.8752 29.7543 0)
(-11.6428 26.2731 0)
(-11.3327 22.694 0)
(-10.9583 19.0611 0)
(-10.5391 15.4206 0)
(-10.0962 11.8113 0)
(-9.63835 8.25651 0)
(-9.2545 4.69736 0)
(-9.10269 0.789345 0)
(-8.68049 -3.61261 0)
(-8.30138 -8.18345 0)
(-7.91929 -12.8075 0)
(-7.49343 -17.4428 0)
(-7.06113 -22.0613 0)
(-6.62731 -26.6261 0)
(-6.18538 -31.0944 0)
(-5.72925 -35.4142 0)
(-5.24956 -39.5238 0)
(-4.73334 -43.3546 0)
(-4.17076 -46.8354 0)
(-3.55501 -49.896 0)
(-2.88225 -52.4669 0)
(-2.15348 -54.4721 0)
(-1.36626 -55.8079 0)
(-0.504625 -56.25 0)
(0.42918 -55.7545 0)
(1.41659 -54.5911 0)
(2.45399 -52.7918 0)
(3.53634 -50.4074 0)
(4.65483 -47.5029 0)
(5.79884 -44.1534 0)
(6.95634 -40.442 0)
(8.11318 -36.4538 0)
(9.25084 -32.2712 0)
(10.352 -27.9732 0)
(11.4094 -23.6325 0)
(12.4276 -19.308 0)
(13.4062 -15.0255 0)
(14.3824 -10.7726 0)
(15.4209 -6.50904 0)
(16.368 -2.27898 0)
(17.1749 1.75066 0)
(17.9074 5.58495 0)
(18.4793 9.26129 0)
(18.8887 12.7995 0)
(19.1289 16.2277 0)
(19.1905 19.5688 0)
(19.0727 22.834 0)
(18.7802 26.022 0)
(18.3213 29.1179 0)
(17.7067 32.0944 0)
(16.9473 34.915 0)
(16.0533 37.5364 0)
(15.0344 39.9119 0)
(13.9 41.9945 0)
(12.6599 43.7346 0)
(11.3258 45.0742 0)
(9.90732 45.9431 0)
(8.41027 46.2023 0)
(6.90522 46.0003 0)
(5.41219 45.3276 0)
(3.9453 44.1824 0)
(2.52365 42.5611 0)
(1.13508 40.4735 0)
(-0.194943 38.0458 0)
(-1.38717 35.2819 0)
(-2.44122 32.1224 0)
(-3.41739 28.6574 0)
(-4.27649 24.9587 0)
(-5.02619 21.0849 0)
(-5.67692 17.1316 0)
(-6.21502 13.1704 0)
(-6.63751 9.23723 0)
(-7.28624 5.13896 0)
(-7.9159 0.442208 0)
(-8.42788 -4.33104 0)
(-8.92598 -9.03076 0)
(-9.27908 -13.569 0)
(-9.53792 -17.8652 0)
(-9.72915 -21.8799 0)
(-9.85386 -25.5653 0)
(-9.92032 -28.9022 0)
(-9.91993 -31.7998 0)
(-9.8962 -34.4235 0)
(-9.82201 -36.5012 0)
(-9.59615 -37.9004 0)
(-9.4341 -38.8346 0)
(-8.86435 -38.6777 0)
(-3.76703 -14.6218 0)
(-3.33751 -20.4633 0)
(-3.02484 -26.2806 0)
(-2.75793 -32.0198 0)
(-2.51869 -37.5883 0)
(-2.29713 -42.8686 0)
(-2.085 -47.7342 0)
(-1.87735 -52.0565 0)
(-1.67195 -55.7074 0)
(-1.46766 -58.5564 0)
(-1.25596 -60.4468 0)
(-1.00988 -61.0673 0)
(-0.71364 -60.4849 0)
(-0.364771 -59.034 0)
(0.0439531 -56.7673 0)
(0.516124 -53.7681 0)
(1.04878 -50.1389 0)
(1.63115 -45.9931 0)
(2.2472 -41.4494 0)
(2.87783 -36.6239 0)
(3.49828 -31.6198 0)
(4.07406 -26.5276 0)
(4.57148 -21.4374 0)
(4.9661 -16.4385 0)
(5.18888 -11.6285 0)
(5.10385 -7.16837 0)
(5.46926 -2.91138 0)
(5.47126 2.42245 0)
(5.31843 7.99457 0)
(4.83075 13.3482 0)
(4.06713 18.4906 0)
(3.12825 23.4632 0)
(2.0332 28.2176 0)
(0.814089 32.6905 0)
(-0.490347 36.8144 0)
(-1.84716 40.5198 0)
(-3.22196 43.7372 0)
(-4.57703 46.3986 0)
(-5.87574 48.448 0)
(-7.08521 49.8438 0)
(-8.16266 50.5318 0)
(-9.03054 50.3575 0)
(-9.74075 49.6059 0)
(-10.3104 48.3513 0)
(-10.7331 46.6378 0)
(-11.0087 44.5116 0)
(-11.1449 42.0245 0)
(-11.1526 39.2288 0)
(-11.0452 36.1733 0)
(-10.835 32.9011 0)
(-10.5344 29.4573 0)
(-10.1571 25.888 0)
(-9.71328 22.2331 0)
(-9.21126 18.5397 0)
(-8.66835 14.8642 0)
(-8.10587 11.2569 0)
(-7.5333 7.75371 0)
(-7.06087 4.30562 0)
(-6.89588 0.438479 0)
(-6.39428 -4.03236 0)
(-5.97964 -8.64828 0)
(-5.55655 -13.283 0)
(-5.12261 -17.9152 0)
(-4.71764 -22.5251 0)
(-4.34101 -27.0819 0)
(-3.98364 -31.5477 0)
(-3.63733 -35.8735 0)
(-3.29194 -40.0004 0)
(-2.93704 -43.861 0)
(-2.56275 -47.3826 0)
(-2.16009 -50.4918 0)
(-1.72303 -53.1152 0)
(-1.24802 -55.1752 0)
(-0.727495 -56.5767 0)
(-0.140045 -57.1069 0)
(0.520121 -56.6798 0)
(1.24298 -55.583 0)
(2.02768 -53.8463 0)
(2.87225 -51.5171 0)
(3.77009 -48.657 0)
(4.70904 -45.3382 0)
(5.67619 -41.64 0)
(6.65709 -37.6458 0)
(7.64102 -33.4427 0)
(8.61887 -29.1156 0)
(9.57874 -24.7417 0)
(10.5114 -20.3837 0)
(11.4094 -16.081 0)
(12.2881 -11.8333 0)
(13.2337 -7.58674 0)
(14.2185 -3.30282 0)
(14.9974 0.875733 0)
(15.7446 4.85227 0)
(16.3448 8.69244 0)
(16.7811 12.4134 0)
(17.0553 16.0332 0)
(17.1624 19.5684 0)
(17.1037 23.0245 0)
(16.8855 26.3959 0)
(16.5156 29.665 0)
(16.002 32.8044 0)
(15.3517 35.7781 0)
(14.5709 38.5438 0)
(13.6661 41.0549 0)
(12.6447 43.2599 0)
(11.5182 45.1076 0)
(10.3071 46.5467 0)
(9.02999 47.4933 0)
(7.6921 47.7973 0)
(6.34975 47.5892 0)
(5.0276 46.8986 0)
(3.7322 45.724 0)
(2.47105 44.0697 0)
(1.25048 41.9509 0)
(0.0892954 39.4048 0)
(-0.981807 36.4659 0)
(-1.95 33.1725 0)
(-2.81815 29.5895 0)
(-3.57714 25.7778 0)
(-4.21648 21.8071 0)
(-4.74266 17.7546 0)
(-5.14743 13.6874 0)
(-5.38705 9.67897 0)
(-5.76542 5.6991 0)
(-6.43225 1.11304 0)
(-6.84915 -3.76885 0)
(-7.31816 -8.58664 0)
(-7.6387 -13.227 0)
(-7.87672 -17.6074 0)
(-8.07623 -21.6908 0)
(-8.23429 -25.4364 0)
(-8.35485 -28.8291 0)
(-8.426 -31.7781 0)
(-8.47947 -34.4309 0)
(-8.5005 -36.5892 0)
(-8.40627 -38.0951 0)
(-8.3343 -39.0872 0)
(-7.96942 -39.0483 0)
(-1.38418 -15.1938 0)
(-1.03165 -20.8644 0)
(-0.771579 -26.5803 0)
(-0.573542 -32.2596 0)
(-0.424856 -37.7899 0)
(-0.31631 -43.0426 0)
(-0.240679 -47.8872 0)
(-0.192145 -52.1935 0)
(-0.16626 -55.832 0)
(-0.158425 -58.6752 0)
(-0.156216 -60.5758 0)
(-0.13308 -61.2449 0)
(-0.0665146 -60.7133 0)
(0.0549775 -59.3277 0)
(0.240319 -57.1355 0)
(0.495189 -54.2109 0)
(0.819042 -50.6487 0)
(1.20506 -46.556 0)
(1.6409 -42.0508 0)
(2.10922 -37.2414 0)
(2.58117 -32.2114 0)
(3.02256 -27.0564 0)
(3.40104 -21.8712 0)
(3.68391 -16.7339 0)
(3.80246 -11.7432 0)
(3.54694 -7.12179 0)
(3.68153 -3.03954 0)
(3.89096 2.38019 0)
(3.81271 8.45731 0)
(3.16977 14.0501 0)
(2.35128 19.4222 0)
(1.4442 24.5833 0)
(0.407704 29.4788 0)
(-0.729805 34.0525 0)
(-1.93702 38.2478 0)
(-3.18393 41.9902 0)
(-4.43153 45.1932 0)
(-5.63754 47.7975 0)
(-6.77215 49.7583 0)
(-7.80503 51.0259 0)
(-8.6707 51.4952 0)
(-9.32924 51.1321 0)
(-9.84446 50.2157 0)
(-10.2134 48.7935 0)
(-10.4302 46.9146 0)
(-10.4985 44.6283 0)
(-10.4302 41.9936 0)
(-10.2399 39.0663 0)
(-9.94329 35.8953 0)
(-9.55578 32.5221 0)
(-9.09639 28.9936 0)
(-8.58189 25.3525 0)
(-8.01847 21.6333 0)
(-7.40764 17.8846 0)
(-6.75735 14.1722 0)
(-6.07702 10.5676 0)
(-5.36971 7.13146 0)
(-4.80682 3.83798 0)
(-4.65765 0.0675469 0)
(-4.10576 -4.50953 0)
(-3.6084 -9.17453 0)
(-3.12742 -13.7878 0)
(-2.69212 -18.3763 0)
(-2.32316 -22.9384 0)
(-2.01238 -27.452 0)
(-1.74839 -31.885 0)
(-1.52021 -36.1907 0)
(-1.31627 -40.3099 0)
(-1.1255 -44.1741 0)
(-0.937395 -47.7098 0)
(-0.742399 -50.8419 0)
(-0.532956 -53.4948 0)
(-0.302563 -55.5933 0)
(-0.0419845 -57.0427 0)
(0.272307 -57.6538 0)
(0.653138 -57.2989 0)
(1.09964 -56.2767 0)
(1.61486 -54.6146 0)
(2.20044 -52.3559 0)
(2.85284 -49.5569 0)
(3.56631 -46.2871 0)
(4.33168 -42.6264 0)
(5.13845 -38.6591 0)
(5.97375 -34.4689 0)
(6.8236 -30.1401 0)
(7.67439 -25.7514 0)
(8.51281 -21.3685 0)
(9.32392 -17.0407 0)
(10.0974 -12.7913 0)
(10.9078 -8.58695 0)
(11.8705 -4.31558 0)
(12.6626 -0.00780971 0)
(13.3996 4.10889 0)
(14.0345 8.1042 0)
(14.499 12.0005 0)
(14.8027 15.8008 0)
(14.9503 19.5144 0)
(14.9471 23.1438 0)
(14.8009 26.6807 0)
(14.5179 30.1077 0)
(14.102 33.3988 0)
(13.5556 36.5195 0)
(12.881 39.4267 0)
(12.0821 42.069 0)
(11.1713 44.396 0)
(10.1697 46.3519 0)
(9.09598 47.8652 0)
(7.97401 48.8655 0)
(6.80748 49.2088 0)
(5.63883 48.9834 0)
(4.49798 48.2636 0)
(3.38955 47.0488 0)
(2.32087 45.3455 0)
(1.30082 43.1744 0)
(0.338253 40.5615 0)
(-0.557263 37.5409 0)
(-1.37961 34.1565 0)
(-2.12111 30.4563 0)
(-2.77165 26.5061 0)
(-3.32228 22.3882 0)
(-3.76752 18.1933 0)
(-4.09825 14.0129 0)
(-4.25586 9.95763 0)
(-4.35564 6.09019 0)
(-4.97585 1.76216 0)
(-5.27007 -3.26576 0)
(-5.67539 -8.23682 0)
(-5.94765 -12.9497 0)
(-6.15672 -17.3593 0)
(-6.35218 -21.4743 0)
(-6.53495 -25.2537 0)
(-6.70651 -28.6839 0)
(-6.85057 -31.6712 0)
(-6.98442 -34.3401 0)
(-7.09834 -36.5591 0)
(-7.1331 -38.1556 0)
(-7.15242 -39.199 0)
(-6.99067 -39.2732 0)
(0.964858 -15.5391 0)
(1.2283 -21.1549 0)
(1.44385 -26.7998 0)
(1.572 -32.4096 0)
(1.62952 -37.8784 0)
(1.62509 -43.0778 0)
(1.56503 -47.8764 0)
(1.4574 -52.1433 0)
(1.30924 -55.7494 0)
(1.12829 -58.5702 0)
(0.930164 -60.471 0)
(0.740956 -61.1722 0)
(0.588803 -60.6933 0)
(0.49246 -59.3748 0)
(0.461993 -57.2594 0)
(0.506361 -54.4147 0)
(0.627284 -50.9325 0)
(0.820494 -46.9112 0)
(1.07789 -42.4594 0)
(1.37756 -37.6756 0)
(1.68404 -32.6414 0)
(1.96314 -27.4446 0)
(2.18159 -22.1647 0)
(2.30237 -16.8805 0)
(2.28365 -11.6928 0)
(2.0874 -6.87623 0)
(2.15994 -2.90129 0)
(2.27053 1.49008 0)
(2.14951 9.33088 0)
(1.44512 14.9155 0)
(0.628978 20.3826 0)
(-0.234776 25.6485 0)
(-1.20242 30.6454 0)
(-2.25706 35.3202 0)
(-3.37379 39.5724 0)
(-4.50391 43.3129 0)
(-5.60638 46.4823 0)
(-6.65446 49.0196 0)
(-7.61806 50.8734 0)
(-8.4626 51.9856 0)
(-9.10936 52.2168 0)
(-9.56195 51.6844 0)
(-9.87601 50.5993 0)
(-10.0413 49.0067 0)
(-10.0516 46.9572 0)
(-9.91335 44.5124 0)
(-9.64087 41.7355 0)
(-9.24995 38.6835 0)
(-8.75701 35.4071 0)
(-8.1849 31.9526 0)
(-7.56134 28.3667 0)
(-6.90734 24.6815 0)
(-6.23029 20.9175 0)
(-5.53457 17.1236 0)
(-4.82454 13.375 0)
(-4.08331 9.762 0)
(-3.23993 6.39486 0)
(-2.46989 3.32648 0)
(-2.40723 -0.406032 0)
(-1.8238 -5.11137 0)
(-1.19386 -9.76541 0)
(-0.64633 -14.3083 0)
(-0.232986 -18.8098 0)
(0.0798041 -23.2867 0)
(0.313202 -27.7273 0)
(0.478013 -32.1008 0)
(0.585788 -36.3601 0)
(0.647437 -40.4456 0)
(0.67345 -44.2884 0)
(0.674558 -47.8145 0)
(0.661066 -50.9476 0)
(0.6424 -53.611 0)
(0.627826 -55.7297 0)
(0.628613 -57.2114 0)
(0.671267 -57.8904 0)
(0.775355 -57.6035 0)
(0.946165 -56.6585 0)
(1.1901 -55.079 0)
(1.51361 -52.9034 0)
(1.91875 -50.1861 0)
(2.4025 -46.9923 0)
(2.9587 -43.3965 0)
(3.57917 -39.4808 0)
(4.25263 -35.3286 0)
(4.96434 -31.0198 0)
(5.69752 -26.6309 0)
(6.43779 -22.2342 0)
(7.1693 -17.8873 0)
(7.86301 -13.6279 0)
(8.52779 -9.45979 0)
(9.3593 -5.27835 0)
(10.2326 -0.927581 0)
(10.9239 3.33491 0)
(11.5902 7.47958 0)
(12.0768 11.5522 0)
(12.3957 15.5292 0)
(12.5742 19.4078 0)
(12.6238 23.1924 0)
(12.5497 26.877 0)
(12.3528 30.4485 0)
(12.0301 33.884 0)
(11.5787 37.1474 0)
(10.9982 40.19 0)
(10.3054 42.9642 0)
(9.51935 45.4024 0)
(8.65666 47.4356 0)
(7.73904 49.0078 0)
(6.78393 50.0497 0)
(5.79591 50.4224 0)
(4.80963 50.1728 0)
(3.85597 49.4212 0)
(2.93769 48.1639 0)
(2.06483 46.4066 0)
(1.24761 44.1725 0)
(0.488015 41.4917 0)
(-0.211762 38.3976 0)
(-0.845638 34.9348 0)
(-1.41421 31.1557 0)
(-1.92106 27.1221 0)
(-2.35421 22.9046 0)
(-2.69391 18.5859 0)
(-2.93474 14.268 0)
(-3.04485 10.0975 0)
(-2.94207 6.22856 0)
(-3.45281 2.27143 0)
(-3.7953 -2.80568 0)
(-4.12753 -7.93106 0)
(-4.25195 -12.7203 0)
(-4.37005 -17.1663 0)
(-4.55369 -21.2795 0)
(-4.77096 -25.0394 0)
(-4.99289 -28.465 0)
(-5.205 -31.4698 0)
(-5.41936 -34.1508 0)
(-5.62396 -36.4083 0)
(-5.78656 -38.0808 0)
(-5.89758 -39.169 0)
(-5.94011 -39.3495 0)
(3.1741 -15.9077 0)
(3.44967 -21.3954 0)
(3.63283 -26.9521 0)
(3.68668 -32.4725 0)
(3.6422 -37.8511 0)
(3.5177 -42.9711 0)
(3.32021 -47.7019 0)
(3.05814 -51.9101 0)
(2.74094 -55.4669 0)
(2.37937 -58.2525 0)
(1.99075 -60.1392 0)
(1.60101 -60.8648 0)
(1.24168 -60.4343 0)
(0.936617 -59.1807 0)
(0.698643 -57.149 0)
(0.541391 -54.3939 0)
(0.468688 -50.9979 0)
(0.473099 -47.0617 0)
(0.540859 -42.6753 0)
(0.648242 -37.9175 0)
(0.76069 -32.8689 0)
(0.843456 -27.6131 0)
(0.878697 -22.2419 0)
(0.867034 -16.8442 0)
(0.834634 -11.5669 0)
(0.876442 -6.76722 0)
(0.871502 -2.9659 0)
(0.608236 1.46713 0)
(0.108555 9.92369 0)
(-0.380191 15.6879 0)
(-1.03637 21.2686 0)
(-1.85514 26.6539 0)
(-2.78015 31.766 0)
(-3.77437 36.4929 0)
(-4.78256 40.7589 0)
(-5.7774 44.4869 0)
(-6.73217 47.6041 0)
(-7.61604 50.0512 0)
(-8.40131 51.7806 0)
(-9.04603 52.7222 0)
(-9.46649 52.6949 0)
(-9.7196 52.0059 0)
(-9.83004 50.7532 0)
(-9.78875 48.9899 0)
(-9.59242 46.7698 0)
(-9.25257 44.1679 0)
(-8.78276 41.2524 0)
(-8.1927 38.0748 0)
(-7.50373 34.6999 0)
(-6.74544 31.1808 0)
(-5.94926 27.559 0)
(-5.13972 23.8617 0)
(-4.33163 20.0945 0)
(-3.54782 16.2989 0)
(-2.805 12.5274 0)
(-2.07376 8.85522 0)
(-1.26496 5.42709 0)
(-0.427003 2.47401 0)
(-0.113981 -0.0874244 0)
(0.658384 -6.09893 0)
(1.33121 -10.5161 0)
(1.83522 -14.8448 0)
(2.19086 -19.1968 0)
(2.43627 -23.5552 0)
(2.58704 -27.9002 0)
(2.65283 -32.1928 0)
(2.6424 -36.383 0)
(2.56471 -40.4106 0)
(2.42942 -44.2071 0)
(2.24715 -47.6989 0)
(2.02885 -50.8088 0)
(1.78592 -53.4618 0)
(1.53021 -55.5829 0)
(1.27556 -57.0829 0)
(1.05187 -57.8219 0)
(0.885357 -57.6038 0)
(0.787637 -56.7381 0)
(0.767506 -55.2489 0)
(0.834857 -53.1707 0)
(0.995611 -50.5507 0)
(1.25037 -47.4507 0)
(1.59638 -43.9447 0)
(2.02746 -40.1094 0)
(2.53308 -36.0188 0)
(3.09973 -31.7575 0)
(3.71212 -27.4028 0)
(4.34884 -23.0135 0)
(4.98615 -18.6503 0)
(5.59683 -14.3697 0)
(6.13578 -10.2021 0)
(6.71848 -6.1233 0)
(7.61724 -1.86345 0)
(8.28017 2.55252 0)
(8.98501 6.84861 0)
(9.50825 11.1 0)
(9.83858 15.2375 0)
(10.0493 19.2551 0)
(10.1602 23.1701 0)
(10.1624 26.9852 0)
(10.0455 30.6929 0)
(9.79959 34.2668 0)
(9.42451 37.6668 0)
(8.94434 40.8483 0)
(8.37061 43.7288 0)
(7.72126 46.2455 0)
(7.01389 48.3436 0)
(6.26214 49.9633 0)
(5.48131 51.039 0)
(4.67835 51.4265 0)
(3.88192 51.1521 0)
(3.1214 50.3647 0)
(2.40104 49.0566 0)
(1.73091 47.238 0)
(1.11884 44.944 0)
(0.564795 42.201 0)
(0.0701436 39.0317 0)
(-0.36433 35.503 0)
(-0.746762 31.6678 0)
(-1.08497 27.5637 0)
(-1.37154 23.25 0)
(-1.5882 18.838 0)
(-1.7406 14.432 0)
(-1.80461 10.143 0)
(-1.60571 6.20278 0)
(-1.77548 2.72329 0)
(-2.16494 -2.33376 0)
(-2.47599 -7.82992 0)
(-2.52553 -12.6034 0)
(-2.62956 -16.988 0)
(-2.80406 -21.0414 0)
(-2.98891 -24.7862 0)
(-3.21901 -28.2073 0)
(-3.49267 -31.2051 0)
(-3.80072 -33.8622 0)
(-4.09622 -36.1363 0)
(-4.38148 -37.8699 0)
(-4.58206 -38.9976 0)
(-4.8272 -39.2779 0)
(-2.15036 -33.4864 0)
(-2.50808 -35.7673 0)
(-2.92109 -37.5389 0)
(-3.21904 -38.6854 0)
(-3.67147 -39.0573 0)
(-1.67525 -0.113956 0)
(-1.20355 -0.116642 0)
(-0.787781 -0.0606088 0)
(-0.478183 -0.0337325 0)
(-0.252721 -0.135855 0)
(-0.060605 -0.162388 0)
(0.157215 -0.145562 0)
(0.342238 -0.13005 0)
(0.44203 -0.107202 0)
(0.428766 -0.0500213 0)
(0.335263 -0.0172148 0)
(0.214368 0.00530406 0)
(0.0886406 0.033052 0)
(-0.0541556 0.0777397 0)
(-0.21531 0.13866 0)
(-0.402894 0.154731 0)
(-0.599744 0.145553 0)
(-0.774531 0.141567 0)
(-0.913605 0.137127 0)
(-1.02046 0.131627 0)
(-1.09896 0.125418 0)
(-1.1504 0.116026 0)
(-1.16552 0.101426 0)
(-1.14037 0.0820812 0)
(-1.06737 0.0528178 0)
(-0.920209 0.0094487 0)
(-0.683352 -0.0847037 0)
(-0.322164 -0.276546 0)
(0.141661 -0.389172 0)
(0.791224 -0.523515 0)
(1.64705 -0.673713 0)
(2.70985 -0.811014 0)
(3.98954 -0.988793 0)
(5.48771 -1.11662 0)
(7.18063 -1.19995 0)
(9.02008 -1.22913 0)
(10.9172 -1.18509 0)
(12.7444 -1.06496 0)
(14.3608 -0.881958 0)
(15.6406 -0.652494 0)
(16.4781 -0.395858 0)
(16.8105 -0.139546 0)
(16.6514 0.0773727 0)
(16.0234 0.218718 0)
(15.2494 0.361117 0)
(14.1551 0.52622 0)
(12.8038 0.686199 0)
(11.2327 0.822916 0)
(9.47778 0.930447 0)
(7.56475 1.00788 0)
(5.49976 1.04586 0)
(3.42584 1.01687 0)
(1.44518 1.11897 0)
(-0.281983 1.00757 0)
(-2.30379 0.853746 0)
(-4.02518 0.898201 0)
(-5.38806 0.776274 0)
(-6.85385 0.675558 0)
(-8.14467 0.58274 0)
(-9.24361 0.493229 0)
(-10.1378 0.405025 0)
(-10.8161 0.317362 0)
(-11.2714 0.231729 0)
(-11.5025 0.148227 0)
(-11.5173 0.0675333 0)
(-11.3351 -0.00649696 0)
(-10.9828 -0.0743048 0)
(-10.4882 -0.140007 0)
(-9.86628 -0.203958 0)
(-9.13676 -0.264087 0)
(-8.34035 -0.321998 0)
(-7.48176 -0.375128 0)
(-6.5856 -0.417947 0)
(-5.6729 -0.448552 0)
(-4.76499 -0.460673 0)
(-3.89 -0.444647 0)
(-3.07304 -0.412989 0)
(-2.29183 -0.40885 0)
(-1.50558 -0.375007 0)
(-0.786825 -0.37612 0)
(-0.120245 -0.396269 0)
(0.450712 -0.329607 0)
(0.990999 -0.268858 0)
(1.45003 -0.196151 0)
(1.83327 -0.163363 0)
(2.15941 -0.127286 0)
(2.40534 -0.071769 0)
(2.55302 -0.0156212 0)
(2.60786 0.0298669 0)
(2.59222 0.0601976 0)
(2.52417 0.0792328 0)
(2.4132 0.0924952 0)
(2.26226 0.105305 0)
(2.07085 0.117138 0)
(1.84444 0.124856 0)
(1.59753 0.126258 0)
(1.34584 0.123123 0)
(1.09558 0.123424 0)
(0.843336 0.12819 0)
(0.590119 0.125882 0)
(0.346249 0.112305 0)
(0.124563 0.0993648 0)
(-0.0817059 0.0896667 0)
(-0.266179 0.0864515 0)
(-0.428291 0.0804229 0)
(-0.564102 0.0626092 0)
(-0.674806 0.0502768 0)
(-0.762022 0.0420178 0)
(-0.82965 0.0316469 0)
(-0.87713 0.0198302 0)
(-0.903413 0.00796523 0)
(-0.906471 -0.00502611 0)
(-0.883206 -0.0197304 0)
(-0.835158 -0.0337005 0)
(-0.76297 -0.0437096 0)
(-0.668794 -0.050921 0)
(-0.560132 -0.0578676 0)
(-0.441477 -0.06548 0)
(-0.312721 -0.0699371 0)
(-0.175165 -0.0700296 0)
(-0.0310661 -0.0742475 0)
(0.118687 -0.0760362 0)
(0.268828 -0.0751979 0)
(0.415616 -0.0713399 0)
(0.554621 -0.065784 0)
(0.679988 -0.0568131 0)
(0.792518 -0.0442075 0)
(0.890995 -0.0325527 0)
(0.962499 -0.0202186 0)
(1.01392 -0.00523054 0)
(1.03966 0.00967877 0)
(1.03831 0.0270989 0)
(1.01581 0.0434649 0)
(0.969046 0.0563112 0)
(0.89737 0.0743562 0)
(0.810012 0.081069 0)
(0.634823 0.0942604 0)
(-3.6944 -0.911571 0)
(-2.29145 -0.784859 0)
(-1.18426 -0.642748 0)
(-0.277983 -0.583046 0)
(0.620189 -0.316762 0)
(1.51825 -0.409297 0)
(2.34276 -0.35876 0)
(3.01377 -0.193514 0)
(3.55208 0.0522448 0)
(3.89107 0.262503 0)
(4.02029 0.353069 0)
(4.0827 0.345519 0)
(4.157 0.297891 0)
(4.22754 0.280131 0)
(4.21597 0.310675 0)
(4.13527 0.352528 0)
(4.05686 0.301991 0)
(4.02585 0.204745 0)
(4.04769 0.125513 0)
(4.12087 0.0536905 0)
(4.23281 -0.017184 0)
(4.37868 -0.0932454 0)
(4.56629 -0.17869 0)
(4.80078 -0.256952 0)
(5.08035 -0.335314 0)
(5.41335 -0.432007 0)
(5.78824 -0.581736 0)
(6.30582 -0.819284 0)
(7.01773 -1.09943 0)
(7.88891 -1.39867 0)
(8.91934 -1.70261 0)
(10.0858 -2.0113 0)
(11.3542 -2.32266 0)
(12.7075 -2.62323 0)
(14.1374 -2.87219 0)
(15.5994 -3.00721 0)
(16.9936 -2.96933 0)
(18.2519 -2.70605 0)
(19.2242 -2.20004 0)
(19.7695 -1.47877 0)
(19.7472 -0.617298 0)
(19.226 0.268161 0)
(18.1899 1.08388 0)
(16.7174 1.75167 0)
(14.5906 2.24738 0)
(12.2488 2.61668 0)
(9.85025 2.87729 0)
(7.51138 3.05788 0)
(5.28725 3.18485 0)
(3.18647 3.29169 0)
(1.15357 3.37347 0)
(-0.613494 3.30298 0)
(-2.31708 3.34103 0)
(-4.51224 3.21606 0)
(-6.62849 2.95719 0)
(-8.58842 2.89045 0)
(-10.3972 2.61537 0)
(-12.1201 2.30078 0)
(-13.7002 1.96171 0)
(-15.0871 1.59478 0)
(-16.2303 1.20408 0)
(-17.1158 0.799389 0)
(-17.72 0.385758 0)
(-18.0034 -0.0253775 0)
(-17.9599 -0.405552 0)
(-17.6261 -0.731335 0)
(-17.0154 -1.0021 0)
(-16.1555 -1.22604 0)
(-15.0714 -1.39943 0)
(-13.7908 -1.51798 0)
(-12.348 -1.58869 0)
(-10.7893 -1.61634 0)
(-9.16916 -1.60179 0)
(-7.53747 -1.54922 0)
(-5.94324 -1.47156 0)
(-4.46485 -1.38439 0)
(-3.17904 -1.28371 0)
(-2.04214 -1.19522 0)
(-0.957555 -1.23227 0)
(0.0928656 -1.1448 0)
(1.02357 -1.03571 0)
(1.84648 -0.883533 0)
(2.50933 -0.755016 0)
(2.96731 -0.655716 0)
(3.29457 -0.554007 0)
(3.58863 -0.432631 0)
(3.79474 -0.295129 0)
(3.82679 -0.159758 0)
(3.74513 -0.0539922 0)
(3.58397 0.0294549 0)
(3.37466 0.105459 0)
(3.13475 0.175195 0)
(2.86473 0.254007 0)
(2.55767 0.336518 0)
(2.21738 0.401442 0)
(1.86543 0.430646 0)
(1.52857 0.435913 0)
(1.21008 0.428926 0)
(0.891277 0.414854 0)
(0.57395 0.399658 0)
(0.281948 0.392395 0)
(0.0306594 0.390453 0)
(-0.176672 0.346453 0)
(-0.371748 0.295714 0)
(-0.538298 0.233009 0)
(-0.653883 0.207839 0)
(-0.721178 0.157427 0)
(-0.761271 0.11656 0)
(-0.778054 0.0824549 0)
(-0.767862 0.0506872 0)
(-0.730148 0.018048 0)
(-0.665687 -0.0213812 0)
(-0.569041 -0.0714577 0)
(-0.438931 -0.103652 0)
(-0.285888 -0.147255 0)
(-0.116463 -0.178318 0)
(0.0820113 -0.194389 0)
(0.282459 -0.201913 0)
(0.491793 -0.219593 0)
(0.70206 -0.2453 0)
(0.911367 -0.253879 0)
(1.13151 -0.255691 0)
(1.34556 -0.251083 0)
(1.54835 -0.242582 0)
(1.73774 -0.226491 0)
(1.91145 -0.202204 0)
(2.06234 -0.170249 0)
(2.18544 -0.137671 0)
(2.28956 -0.102535 0)
(2.3634 -0.0658192 0)
(2.41115 -0.0288011 0)
(2.43611 0.0132138 0)
(2.42268 0.0498969 0)
(2.4017 0.0976341 0)
(2.32667 0.127194 0)
(2.27496 0.18904 0)
(2.12264 0.227651 0)
(-11.0279 -3.32983 0)
(-9.98421 -3.25509 0)
(-8.87848 -2.52413 0)
(-7.62106 -1.89757 0)
(-6.24698 -2.0248 0)
(-4.74283 -2.10373 0)
(-3.2927 -1.76193 0)
(-1.99104 -1.40687 0)
(-0.649965 -1.34566 0)
(0.840078 -0.648766 0)
(2.18689 -0.387415 0)
(3.39848 -0.342667 0)
(4.53037 -0.265462 0)
(5.6607 -0.024564 0)
(6.74776 0.162415 0)
(7.57955 0.24181 0)
(8.16472 0.228397 0)
(8.75937 0.158284 0)
(9.39039 0.0483273 0)
(9.95232 -0.0634765 0)
(10.4096 -0.119255 0)
(10.7615 -0.165581 0)
(11.0327 -0.278436 0)
(11.2378 -0.373363 0)
(11.3653 -0.47004 0)
(11.4276 -0.63869 0)
(11.4545 -0.923405 0)
(11.4993 -1.30581 0)
(11.5954 -1.79981 0)
(11.7678 -2.35215 0)
(12.0354 -2.87046 0)
(12.402 -3.30493 0)
(12.8927 -3.68345 0)
(13.5573 -4.01703 0)
(14.4289 -4.27194 0)
(15.4778 -4.34995 0)
(16.5929 -4.12596 0)
(17.5311 -3.53409 0)
(18.1204 -2.58065 0)
(18.211 -1.34406 0)
(17.8593 0.0254098 0)
(17.0822 1.40685 0)
(15.9177 2.705 0)
(14.4658 3.83585 0)
(12.8584 4.7002 0)
(11.1975 5.23219 0)
(9.53352 5.48582 0)
(7.87388 5.57446 0)
(6.18645 5.59454 0)
(4.42699 5.6188 0)
(2.54661 5.71401 0)
(0.651602 5.91194 0)
(-1.28911 5.63188 0)
(-3.36242 5.46374 0)
(-5.38932 5.31646 0)
(-7.32389 5.11571 0)
(-9.1705 4.8002 0)
(-10.9439 4.39289 0)
(-12.6289 3.90314 0)
(-14.2042 3.33691 0)
(-15.6684 2.7101 0)
(-16.9918 2.03156 0)
(-18.1493 1.29934 0)
(-19.0968 0.521931 0)
(-19.795 -0.238535 0)
(-20.2492 -0.939171 0)
(-20.4618 -1.57708 0)
(-20.4552 -2.15994 0)
(-20.2283 -2.69771 0)
(-19.7088 -3.18451 0)
(-18.8713 -3.58665 0)
(-17.7382 -3.87729 0)
(-16.3327 -4.05277 0)
(-14.6952 -4.10705 0)
(-12.8733 -4.03125 0)
(-10.957 -3.68813 0)
(-9.06575 -3.00957 0)
(-7.03602 -3.11382 0)
(-5.14419 -2.91199 0)
(-3.51903 -2.49999 0)
(-2.06361 -2.25546 0)
(-0.629677 -2.16694 0)
(0.7143 -1.76599 0)
(1.85305 -1.02951 0)
(2.81301 -0.974696 0)
(3.53966 -0.848499 0)
(4.03989 -0.43272 0)
(4.31746 0.0168049 0)
(4.3914 0.378154 0)
(4.33874 0.585615 0)
(4.22448 0.694235 0)
(4.06406 0.763433 0)
(3.85115 0.840709 0)
(3.55461 0.912818 0)
(3.17735 0.936285 0)
(2.77059 0.919526 0)
(2.38819 0.836871 0)
(1.99995 0.81138 0)
(1.59707 0.865713 0)
(1.21963 0.820378 0)
(0.898119 0.715584 0)
(0.570618 0.636216 0)
(0.254519 0.559763 0)
(-0.0270656 0.494857 0)
(-0.29457 0.403232 0)
(-0.501505 0.251284 0)
(-0.648873 0.156825 0)
(-0.755372 0.109156 0)
(-0.83045 0.0400047 0)
(-0.879077 -0.0444066 0)
(-0.904578 -0.124037 0)
(-0.902109 -0.205691 0)
(-0.846547 -0.283799 0)
(-0.724673 -0.350935 0)
(-0.560068 -0.41536 0)
(-0.361722 -0.471552 0)
(-0.135189 -0.498197 0)
(0.11524 -0.520656 0)
(0.387929 -0.539588 0)
(0.691448 -0.559211 0)
(1.00565 -0.579792 0)
(1.31795 -0.570247 0)
(1.63214 -0.548591 0)
(1.94191 -0.517308 0)
(2.24081 -0.476365 0)
(2.52462 -0.425995 0)
(2.78794 -0.368517 0)
(3.02598 -0.301555 0)
(3.238 -0.229602 0)
(3.41736 -0.155215 0)
(3.57389 -0.07793 0)
(3.68531 -0.00249502 0)
(3.77604 0.0725368 0)
(3.82545 0.142276 0)
(3.85256 0.214958 0)
(3.85475 0.276338 0)
(3.81988 0.329185 0)
(-8.79623 -3.03972 0)
(-9.08862 -3.17577 0)
(-9.2413 -3.26546 0)
(-9.10155 -3.38782 0)
(-8.85001 -3.53543 0)
(-8.58748 -3.62766 0)
(-8.15219 -3.55856 0)
(-7.44821 -3.36842 0)
(-6.56337 -3.10982 0)
(-5.4832 -2.72264 0)
(-4.15844 -2.33656 0)
(-2.90952 -2.01955 0)
(-1.69576 -2.12052 0)
(-0.233322 -2.2152 0)
(1.24374 -2.00908 0)
(2.71818 -1.03158 0)
(4.21252 -0.977367 0)
(5.68362 -1.25937 0)
(7.11913 -1.20248 0)
(8.55496 -1.0819 0)
(9.87964 -0.965258 0)
(10.9272 -0.861811 0)
(11.8232 -0.779048 0)
(12.7296 -0.733061 0)
(13.5776 -0.732412 0)
(14.3423 -0.793285 0)
(15.0131 -0.942398 0)
(15.5413 -1.19024 0)
(15.8905 -1.53621 0)
(16.0226 -1.9424 0)
(15.8 -2.37783 0)
(15.4552 -2.89594 0)
(15.0353 -3.53863 0)
(14.6176 -4.26089 0)
(14.2732 -4.92674 0)
(14.0459 -5.32027 0)
(13.9493 -5.21826 0)
(13.9759 -4.48606 0)
(14.0499 -3.13596 0)
(14.0825 -1.37488 0)
(13.9654 0.500664 0)
(13.6274 2.30004 0)
(13.0875 3.93046 0)
(12.3546 5.26758 0)
(11.463 6.19202 0)
(10.4367 6.69973 0)
(9.30094 6.9308 0)
(8.06988 7.05634 0)
(6.74508 7.18079 0)
(5.3464 7.35963 0)
(3.96617 7.59684 0)
(2.28023 7.86305 0)
(0.461204 7.87498 0)
(-1.09302 7.74058 0)
(-2.63325 7.48556 0)
(-4.15188 7.17319 0)
(-5.62568 6.79056 0)
(-7.06128 6.32502 0)
(-8.45822 5.76676 0)
(-9.80353 5.11757 0)
(-11.0909 4.39766 0)
(-12.3309 3.61601 0)
(-13.5269 2.73763 0)
(-14.6139 1.73737 0)
(-15.526 0.742399 0)
(-16.2802 -0.136557 0)
(-16.9316 -0.928787 0)
(-17.5056 -1.67844 0)
(-17.9867 -2.41752 0)
(-18.3585 -3.18403 0)
(-18.5629 -3.93011 0)
(-18.5418 -4.56119 0)
(-18.3346 -5.06216 0)
(-17.9239 -5.42724 0)
(-17.2811 -5.63706 0)
(-16.3782 -5.68354 0)
(-15.153 -5.63423 0)
(-13.752 -5.49368 0)
(-12.3044 -5.17664 0)
(-10.7182 -4.72014 0)
(-9.06547 -4.27218 0)
(-7.54343 -3.84308 0)
(-6.12541 -3.39064 0)
(-4.68695 -2.89672 0)
(-3.3053 -2.37066 0)
(-2.15325 -1.74347 0)
(-1.23315 -1.08803 0)
(-0.39607 -0.538299 0)
(0.432737 -0.193119 0)
(1.02987 0.0803715 0)
(1.52543 0.311615 0)
(2.00035 0.457148 0)
(2.41944 0.697729 0)
(2.68021 0.988391 0)
(2.78552 1.26863 0)
(2.7962 1.30015 0)
(2.73426 1.28504 0)
(2.5867 1.2988 0)
(2.40514 1.27882 0)
(2.2191 1.218 0)
(2.00474 1.1477 0)
(1.75821 1.07142 0)
(1.50366 1.0003 0)
(1.24483 0.929482 0)
(1.00564 0.834516 0)
(0.819889 0.607156 0)
(0.595318 0.469861 0)
(0.413019 0.349603 0)
(0.269463 0.245029 0)
(0.145013 0.156176 0)
(0.0428365 0.0767623 0)
(-0.0197157 -0.0131993 0)
(-0.0542966 -0.247774 0)
(-0.0605054 -0.425936 0)
(-0.0253651 -0.541365 0)
(0.0343884 -0.63837 0)
(0.119172 -0.725162 0)
(0.241132 -0.801472 0)
(0.394134 -0.865951 0)
(0.579489 -0.912104 0)
(0.787078 -0.946764 0)
(1.01216 -0.962499 0)
(1.25731 -0.956641 0)
(1.51661 -0.929946 0)
(1.78328 -0.883519 0)
(2.05232 -0.81904 0)
(2.31854 -0.739338 0)
(2.57638 -0.646142 0)
(2.82085 -0.544364 0)
(3.04817 -0.438091 0)
(3.2571 -0.327036 0)
(3.44181 -0.213528 0)
(3.61404 -0.100958 0)
(3.74553 0.00238627 0)
(3.87453 0.105802 0)
(3.96047 0.185268 0)
(4.07179 0.281552 0)
(-1.13643 -2.62467 0)
(-1.21382 -2.61213 0)
(-1.44435 -2.57232 0)
(-1.78006 -2.56666 0)
(-2.20197 -2.66392 0)
(-2.73554 -2.82671 0)
(-3.34161 -2.97836 0)
(-3.91351 -3.14115 0)
(-4.40003 -3.34725 0)
(-4.66987 -3.43165 0)
(-4.69179 -3.3987 0)
(-4.46838 -3.34094 0)
(-4.09654 -3.35039 0)
(-3.67338 -3.30042 0)
(-3.20759 -3.08918 0)
(-2.52353 -2.96759 0)
(-1.49843 -3.05598 0)
(-0.368246 -3.07669 0)
(0.758758 -3.1511 0)
(1.99789 -3.24506 0)
(3.34182 -2.79491 0)
(4.77348 -2.17073 0)
(6.25424 -2.42147 0)
(7.75402 -2.31625 0)
(9.25545 -2.1978 0)
(10.7219 -2.12686 0)
(12.1049 -2.11337 0)
(13.3486 -2.15784 0)
(14.4138 -2.23946 0)
(15.2817 -2.3163 0)
(15.9492 -2.39219 0)
(16.3703 -2.53272 0)
(16.4551 -2.77178 0)
(16.0083 -3.11088 0)
(15.2041 -3.60351 0)
(14.0678 -4.02393 0)
(12.7202 -4.08561 0)
(11.3111 -3.68744 0)
(10.0762 -2.78186 0)
(9.24126 -1.426 0)
(8.8476 0.323198 0)
(8.55811 2.22193 0)
(8.43083 3.9992 0)
(8.34735 5.53833 0)
(8.16084 6.75485 0)
(7.79876 7.64387 0)
(7.14301 8.16558 0)
(6.26611 8.48017 0)
(5.24981 8.73212 0)
(4.15366 8.95879 0)
(3.06384 9.1129 0)
(1.98353 9.08849 0)
(0.943623 9.10855 0)
(0.0778088 8.9825 0)
(-0.695133 8.739 0)
(-1.42874 8.41766 0)
(-2.1127 8.02132 0)
(-2.74828 7.54602 0)
(-3.33938 6.97726 0)
(-3.88475 6.31632 0)
(-4.40888 5.60227 0)
(-4.95397 4.86041 0)
(-5.62426 4.0451 0)
(-6.33415 2.982 0)
(-6.9457 1.83648 0)
(-7.52395 0.816319 0)
(-8.19837 -0.0385333 0)
(-8.97494 -0.827132 0)
(-9.84989 -1.63462 0)
(-10.755 -2.47055 0)
(-11.5551 -3.30895 0)
(-12.2088 -4.09715 0)
(-12.7615 -4.77863 0)
(-13.2336 -5.34157 0)
(-13.6567 -5.78432 0)
(-13.9704 -6.06976 0)
(-14.1191 -6.20833 0)
(-14.1556 -6.30882 0)
(-14.052 -6.30941 0)
(-13.7501 -6.1513 0)
(-13.2289 -5.87279 0)
(-12.516 -5.5107 0)
(-11.6634 -5.03582 0)
(-10.7235 -4.45033 0)
(-9.72462 -3.84855 0)
(-8.64002 -3.24564 0)
(-7.44544 -2.62464 0)
(-6.22129 -1.89 0)
(-5.02807 -1.12696 0)
(-3.89427 -0.629866 0)
(-2.86697 -0.340502 0)
(-2.00873 -0.203697 0)
(-1.46855 0.129646 0)
(-0.898287 0.614198 0)
(-0.397006 0.869639 0)
(0.101586 1.03258 0)
(0.588094 1.15289 0)
(0.919173 1.25368 0)
(1.06645 1.31991 0)
(1.09578 1.31503 0)
(1.05424 1.26542 0)
(0.960583 1.19858 0)
(0.846791 1.12869 0)
(0.751844 1.03474 0)
(0.66611 0.904681 0)
(0.572543 0.731952 0)
(0.474646 0.557253 0)
(0.397091 0.41892 0)
(0.353376 0.300948 0)
(0.330524 0.184219 0)
(0.341045 0.0499349 0)
(0.403992 -0.103473 0)
(0.519838 -0.262283 0)
(0.646825 -0.403596 0)
(0.786929 -0.528998 0)
(0.944874 -0.643767 0)
(1.1102 -0.749402 0)
(1.27081 -0.844548 0)