/*--------------------------------*- C++ -*----------------------------------*\
| =========                 |                                                 |
| \\      /  F ield         | OpenFOAM: The Open Source CFD Toolbox           |
|  \\    /   O peration     | Version:  2206                                  |
|   \\  /    A nd           | Website:  www.openfoam.com                      |
|    \\/     M anipulation  |                                                 |
\*---------------------------------------------------------------------------*/
FoamFile
{
    version     2.0;
    format      ascii;
    arch        "LSB;label=32;scalar=64";
    class       surfaceScalarField;
    location    "18.9999";
    object      phi_0;
}
// * * * * * * * * * * * * * * * * * * * * * * * * * * * * * * * * * * * * * //

dimensions      [0 3 -1 0 0 0 0];

oriented        oriented;

internalField   nonuniform List<scalar> 
5927
(
9.19309e-06
-1.1807e-06
1.12478e-06
9.24643e-06
-1.0458e-06
9.92455e-07
9.29702e-06
-8.87485e-07
8.36898e-07
9.34466e-06
-7.0837e-07
6.60723e-07
9.389e-06
-5.11496e-07
4.67157e-07
9.4292e-06
-3.00906e-07
2.60707e-07
9.46341e-06
-8.28231e-08
4.86139e-08
9.48989e-06
1.3381e-07
-1.60291e-07
9.50718e-06
3.42114e-07
-3.59398e-07
9.51408e-06
5.36303e-07
-5.43206e-07
9.51027e-06
7.11526e-07
-7.07715e-07
9.49599e-06
8.63903e-07
-8.49624e-07
9.47165e-06
9.90799e-07
-9.66461e-07
9.43791e-06
1.09103e-06
-1.05729e-06
9.39508e-06
1.16461e-06
-1.12177e-06
9.34285e-06
1.21181e-06
-1.15957e-06
9.28163e-06
1.23245e-06
-1.17124e-06
9.21379e-06
1.22708e-06
-1.15925e-06
9.14205e-06
1.19825e-06
-1.12651e-06
9.0693e-06
1.14818e-06
-1.07543e-06
8.9983e-06
1.07895e-06
-1.00795e-06
8.93129e-06
9.92426e-07
-9.25423e-07
8.87002e-06
8.90022e-07
-8.28748e-07
8.81578e-06
7.72856e-07
-7.18611e-07
8.76952e-06
6.42039e-07
-5.95783e-07
8.73198e-06
4.98873e-07
-4.61333e-07
8.70372e-06
3.45076e-07
-3.16819e-07
8.68518e-06
1.83057e-07
-1.64509e-07
8.67655e-06
1.63871e-08
-7.76612e-09
8.67765e-06
-1.49774e-07
1.48675e-07
8.68796e-06
-3.11163e-07
3.00861e-07
8.7067e-06
-4.63891e-07
4.45145e-07
8.73287e-06
-6.04265e-07
5.78099e-07
8.76518e-06
-7.29054e-07
6.9674e-07
8.80221e-06
-8.35752e-07
7.98722e-07
8.84252e-06
-9.22823e-07
8.82512e-07
8.88487e-06
-9.89708e-07
9.47361e-07
8.92845e-06
-1.03664e-06
9.93066e-07
8.97314e-06
-1.06399e-06
1.0193e-06
9.01908e-06
-1.0705e-06
1.02456e-06
9.06556e-06
-1.05398e-06
1.0075e-06
9.11164e-06
-1.01424e-06
9.68158e-07
9.15651e-06
-9.51969e-07
9.07099e-07
9.19957e-06
-8.68595e-07
8.25533e-07
9.2404e-06
-7.65927e-07
7.25095e-07
9.27867e-06
-6.46009e-07
6.07735e-07
9.31404e-06
-5.11126e-07
4.75759e-07
9.346e-06
-3.63937e-07
3.31979e-07
9.37373e-06
-2.0782e-07
1.80096e-07
9.39589e-06
-4.77795e-08
2.56138e-08
9.41176e-06
1.10123e-07
-1.25992e-07
9.42079e-06
2.6164e-07
-2.70668e-07
9.42316e-06
4.02842e-07
-4.05216e-07
9.41857e-06
5.30725e-07
-5.26136e-07
9.40626e-06
6.4286e-07
-6.30551e-07
9.38658e-06
7.37015e-07
-7.1733e-07
9.36019e-06
8.12299e-07
-7.85907e-07
9.32756e-06
8.68442e-07
-8.35813e-07
9.28885e-06
9.05504e-07
-8.66801e-07
9.24445e-06
9.23401e-07
-8.78996e-07
9.19584e-06
9.22008e-07
-8.73403e-07
9.1449e-06
9.02394e-07
-8.51454e-07
9.09358e-06
8.65671e-07
-8.14343e-07
9.04372e-06
8.13075e-07
-7.63215e-07
8.99684e-06
7.4604e-07
-6.99161e-07
8.95413e-06
6.65877e-07
-6.23172e-07
8.91652e-06
5.73832e-07
-5.36224e-07
8.88471e-06
4.71223e-07
-4.39406e-07
8.85921e-06
3.59514e-07
-3.34014e-07
8.84043e-06
2.4044e-07
-2.21658e-07
8.82865e-06
1.16221e-07
-1.04443e-07
8.82396e-06
-9.90295e-09
1.45865e-08
8.82615e-06
-1.34269e-07
1.32081e-07
8.83482e-06
-2.54041e-07
2.45373e-07
8.84941e-06
-3.66477e-07
3.51887e-07
8.8692e-06
-4.69064e-07
4.49278e-07
8.8933e-06
-5.59657e-07
5.35555e-07
8.92073e-06
-6.36636e-07
6.09208e-07
8.95048e-06
-6.99017e-07
6.69266e-07
8.9817e-06
-7.46501e-07
7.15279e-07
9.01389e-06
-7.79328e-07
7.47137e-07
9.04707e-06
-7.97716e-07
7.64535e-07
9.08127e-06
-8.00529e-07
7.6633e-07
9.11588e-06
-7.86333e-07
7.51724e-07
9.15019e-06
-7.55057e-07
7.20751e-07
9.18352e-06
-7.07217e-07
6.73883e-07
9.21534e-06
-6.43882e-07
6.12066e-07
9.24519e-06
-5.66416e-07
5.36559e-07
9.27273e-06
-4.76424e-07
4.48885e-07
9.29763e-06
-3.75745e-07
3.50846e-07
9.31952e-06
-2.66491e-07
2.44607e-07
9.33784e-06
-1.51269e-07
1.32946e-07
9.35186e-06
-3.3833e-08
1.98175e-08
9.36123e-06
8.18906e-08
-9.1268e-08
9.36537e-06
1.93604e-07
-1.97737e-07
9.36368e-06
2.98735e-07
-2.9705e-07
9.35625e-06
3.9419e-07
-3.86761e-07
9.34364e-06
4.77646e-07
-4.6503e-07
9.32633e-06
5.48117e-07
-5.30809e-07
9.30474e-06
6.05132e-07
-5.83544e-07
9.27935e-06
6.48283e-07
-6.22889e-07
9.25041e-06
6.77552e-07
-6.48618e-07
9.21811e-06
6.92908e-07
-6.60601e-07
9.18316e-06
6.93917e-07
-6.58975e-07
9.14678e-06
6.80761e-07
-6.44372e-07
9.11021e-06
6.53893e-07
-6.17331e-07
9.07473e-06
6.14017e-07
-5.78528e-07
9.04134e-06
5.62193e-07
-5.28809e-07
9.0109e-06
4.99515e-07
-4.69077e-07
8.98408e-06
4.27138e-07
-4.00311e-07
8.96136e-06
3.46339e-07
-3.23624e-07
8.94316e-06
2.58479e-07
-2.40278e-07
8.92972e-06
1.65202e-07
-1.51763e-07
8.92142e-06
6.83081e-08
-6.00019e-08
8.91779e-06
-2.90747e-08
3.26991e-08
8.91948e-06
-1.24683e-07
1.22989e-07
8.92483e-06
-2.16456e-07
2.11106e-07
8.93532e-06
-3.01715e-07
2.91227e-07
8.94832e-06
-3.82312e-07
3.69319e-07
8.96389e-06
-4.4441e-07
4.28838e-07
-5.25524e-07
5.06941e-07
9.21527e-06
-1.22245e-06
9.2549e-06
-1.08544e-06
9.29257e-06
-9.25153e-07
9.32841e-06
-7.44206e-07
9.3624e-06
-5.45489e-07
9.39414e-06
-3.32647e-07
9.42239e-06
-1.11073e-07
9.4455e-06
1.10698e-07
9.46223e-06
3.25386e-07
9.47147e-06
5.27058e-07
9.47253e-06
7.10474e-07
9.46509e-06
8.71342e-07
9.44929e-06
1.0066e-06
9.42572e-06
1.11459e-06
9.39521e-06
1.19512e-06
9.35792e-06
1.24909e-06
9.31308e-06
1.27729e-06
9.26104e-06
1.27913e-06
9.204e-06
1.25528e-06
9.14466e-06
1.20753e-06
9.08571e-06
1.1379e-06
9.02937e-06
1.04877e-06
8.97737e-06
9.42018e-07
8.93107e-06
8.1916e-07
8.89147e-06
6.8164e-07
8.85933e-06
5.31013e-07
8.83523e-06
3.69171e-07
8.8196e-06
1.98686e-07
8.81265e-06
2.33362e-08
8.81418e-06
-1.51303e-07
8.82371e-06
-3.20691e-07
8.84054e-06
-4.80716e-07
8.86371e-06
-6.27436e-07
8.89202e-06
-7.5737e-07
8.92411e-06
-8.67843e-07
8.95854e-06
-9.57253e-07
8.99402e-06
-1.02518e-06
9.02966e-06
-1.07228e-06
9.06538e-06
-1.09971e-06
9.10183e-06
-1.10695e-06
9.13858e-06
-1.09072e-06
9.17465e-06
-1.05031e-06
9.20933e-06
-9.8664e-07
9.24219e-06
-9.01463e-07
9.2731e-06
-7.96831e-07
9.30199e-06
-6.74906e-07
9.32882e-06
-5.37949e-07
9.3534e-06
-3.88523e-07
9.37533e-06
-2.29753e-07
9.39362e-06
-6.60667e-08
9.40731e-06
9.6439e-08
9.4159e-06
2.53047e-07
9.41921e-06
3.9953e-07
9.41725e-06
5.32682e-07
9.40981e-06
6.503e-07
9.39678e-06
7.50046e-07
9.37872e-06
8.30366e-07
9.35606e-06
8.91094e-07
9.32898e-06
9.32589e-07
9.29714e-06
9.55237e-07
9.26055e-06
9.58603e-07
9.22067e-06
9.42273e-07
9.17937e-06
9.06969e-07
9.13849e-06
8.53959e-07
9.09949e-06
7.85034e-07
9.06357e-06
7.018e-07
9.03165e-06
6.05748e-07
9.00446e-06
4.98417e-07
8.98253e-06
3.81448e-07
8.96626e-06
2.56704e-07
8.95596e-06
1.2652e-07
8.95175e-06
-5.69336e-09
8.95345e-06
-1.35965e-07
8.96072e-06
-2.61308e-07
8.97308e-06
-3.78839e-07
8.9899e-06
-4.85887e-07
9.01038e-06
-5.8014e-07
9.03358e-06
-6.5983e-07
9.05849e-06
-7.23933e-07
9.08425e-06
-7.72262e-07
9.11029e-06
-8.05367e-07
9.13665e-06
-8.24071e-07
9.16377e-06
-8.27648e-07
9.19125e-06
-8.1381e-07
9.21832e-06
-7.8213e-07
9.24436e-06
-7.33259e-07
9.26895e-06
-6.68475e-07
9.2918e-06
-5.89259e-07
9.31269e-06
-4.97319e-07
9.33152e-06
-3.94569e-07
9.34812e-06
-2.83096e-07
9.36217e-06
-1.65316e-07
9.37283e-06
-4.44929e-08
9.37956e-06
7.51576e-08
9.38269e-06
1.90478e-07
9.38269e-06
2.9873e-07
9.37924e-06
3.97643e-07
9.37154e-06
4.85346e-07
9.35953e-06
5.60127e-07
9.34403e-06
6.20629e-07
9.32578e-06
6.66533e-07
9.30513e-06
6.98202e-07
9.2819e-06
7.16138e-07
9.25578e-06
7.20043e-07
9.2275e-06
7.09035e-07
9.19836e-06
6.83035e-07
9.16955e-06
6.42829e-07
9.14202e-06
5.89716e-07
9.1166e-06
5.24942e-07
9.0939e-06
4.49834e-07
9.07442e-06
3.65823e-07
9.05854e-06
2.74352e-07
9.04655e-06
1.77199e-07
9.03876e-06
7.60918e-08
9.03487e-06
-2.51829e-08
9.03541e-06
-1.25218e-07
9.03896e-06
-2.20011e-07
9.04707e-06
-3.09821e-07
9.05662e-06
-3.91861e-07
9.06886e-06
-4.5665e-07
-5.39946e-07
9.22682e-06
-1.24919e-06
9.25209e-06
-1.1107e-06
9.27642e-06
-9.49482e-07
9.30015e-06
-7.67942e-07
9.32346e-06
-5.68794e-07
9.34622e-06
-3.55411e-07
9.36775e-06
-1.32601e-07
9.38668e-06
9.17692e-08
9.40196e-06
3.10105e-07
9.41254e-06
5.16476e-07
9.41752e-06
7.05497e-07
9.41626e-06
8.72596e-07
9.40855e-06
1.01431e-06
9.39462e-06
1.12852e-06
9.37523e-06
1.21451e-06
9.35123e-06
1.27309e-06
9.32237e-06
1.30616e-06
9.28686e-06
1.31464e-06
9.24525e-06
1.29689e-06
9.20031e-06
1.25248e-06
9.15459e-06
1.18361e-06
9.11019e-06
1.09317e-06
9.0688e-06
9.83405e-07
9.03177e-06
8.56187e-07
9.00012e-06
7.13298e-07
8.97459e-06
5.56544e-07
8.95575e-06
3.8801e-07
8.94398e-06
2.10448e-07
8.93946e-06
2.78617e-08
8.94193e-06
-1.53775e-07
8.95093e-06
-3.29693e-07
8.96582e-06
-4.95603e-07
8.98574e-06
-6.47358e-07
9.00965e-06
-7.81281e-07
9.03633e-06
-8.9452e-07
9.06442e-06
-9.85347e-07
9.09263e-06
-1.05338e-06
9.11996e-06
-1.09962e-06
9.14628e-06
-1.12603e-06
9.17276e-06
-1.13343e-06
9.19945e-06
-1.11741e-06
9.22498e-06
-1.07584e-06
9.24888e-06
-1.01054e-06
9.27104e-06
-9.23624e-07
9.29159e-06
-8.17381e-07
9.3108e-06
-6.94119e-07
9.32892e-06
-5.56067e-07
9.346e-06
-4.056e-07
9.36187e-06
-2.45628e-07
9.37595e-06
-8.0146e-08
9.38752e-06
8.48729e-08
9.396e-06
2.4456e-07
9.40066e-06
3.94875e-07
9.40096e-06
5.32383e-07
9.39709e-06
6.54167e-07
9.38938e-06
7.57753e-07
9.37812e-06
8.41632e-07
9.36393e-06
9.05284e-07
9.34728e-06
9.49234e-07
9.32769e-06
9.74824e-07
9.30371e-06
9.82586e-07
9.27545e-06
9.70536e-07
9.245e-06
9.37419e-07
9.21407e-06
8.84892e-07
9.18396e-06
8.15138e-07
9.15582e-06
7.29944e-07
9.13055e-06
6.31014e-07
9.10887e-06
5.20099e-07
9.09131e-06
3.9901e-07
9.07827e-06
2.69745e-07
9.07004e-06
1.3475e-07
9.06674e-06
-2.39688e-09
9.06822e-06
-1.37444e-07
9.07418e-06
-2.67272e-07
9.08424e-06
-3.88902e-07
9.09789e-06
-4.99535e-07
9.11445e-06
-5.96696e-07
9.13308e-06
-6.78465e-07
9.15289e-06
-7.43736e-07
9.17297e-06
-7.92345e-07
9.19268e-06
-8.25074e-07
9.21197e-06
-8.4336e-07
9.23175e-06
-8.47435e-07
9.25196e-06
-8.34016e-07
9.27152e-06
-8.0169e-07
9.28995e-06
-7.51692e-07
9.30708e-06
-6.85603e-07
9.32276e-06
-6.04943e-07
9.33692e-06
-5.11474e-07
9.34958e-06
-4.0723e-07
9.36074e-06
-2.94257e-07
9.37006e-06
-1.74632e-07
9.37705e-06
-5.14889e-08
9.38159e-06
7.06224e-08
9.38386e-06
1.88201e-07
9.38417e-06
2.98424e-07
9.38229e-06
3.99525e-07
9.37787e-06
4.89766e-07
9.37096e-06
5.67039e-07
9.36178e-06
6.29806e-07
9.35071e-06
6.77598e-07
9.33809e-06
7.10821e-07
9.32395e-06
7.30284e-07
9.30732e-06
7.36668e-07
9.28753e-06
7.28831e-07
9.26637e-06
7.04196e-07
9.24488e-06
6.64317e-07
9.22388e-06
6.10713e-07
9.20417e-06
5.44648e-07
9.18632e-06
4.67687e-07
9.17075e-06
3.814e-07
9.15781e-06
2.87289e-07
9.14779e-06
1.87222e-07
9.14093e-06
8.29515e-08
9.13712e-06
-2.13751e-08
9.13659e-06
-1.24688e-07
9.13856e-06
-2.21979e-07
9.14393e-06
-3.15199e-07
9.1501e-06
-3.98029e-07
9.15908e-06
-4.65624e-07
-5.50096e-07
9.22627e-06
-1.26069e-06
9.23716e-06
-1.12159e-06
9.24802e-06
-9.60335e-07
9.2594e-06
-7.79326e-07
9.27174e-06
-5.81136e-07
9.28522e-06
-3.68884e-07
9.29956e-06
-1.46946e-07
9.31376e-06
7.75713e-08
9.32691e-06
2.96955e-07
9.33803e-06
5.05351e-07
9.34614e-06
6.97386e-07
9.3504e-06
8.68343e-07
9.35024e-06
1.01447e-06
9.34558e-06
1.13318e-06
9.33679e-06
1.2233e-06
9.32474e-06
1.28514e-06
9.31016e-06
1.32075e-06
9.29152e-06
1.33327e-06
9.26491e-06
1.3235e-06
9.23463e-06
1.28276e-06
9.20301e-06
1.21523e-06
9.17168e-06
1.1245e-06
9.14216e-06
1.01293e-06
9.11567e-06
8.82677e-07
9.09316e-06
7.35808e-07
9.07535e-06
5.74351e-07
9.06279e-06
4.00577e-07
9.0558e-06
2.17438e-07
9.05444e-06
2.92211e-08
9.0584e-06
-1.57737e-07
9.06717e-06
-3.38464e-07
9.08011e-06
-5.0854e-07
9.09646e-06
-6.63713e-07
9.11541e-06
-8.00232e-07
9.13604e-06
-9.15146e-07
9.15727e-06
-1.00658e-06
9.17791e-06
-1.07402e-06
9.19682e-06
-1.11853e-06
9.21348e-06
-1.14269e-06
9.22929e-06
-1.14924e-06
9.24595e-06
-1.13407e-06
9.26028e-06
-1.09018e-06
9.27272e-06
-1.02298e-06
9.28389e-06
-9.34803e-07
9.2943e-06
-8.27785e-07
9.30416e-06
-7.03981e-07
9.3137e-06
-5.65607e-07
9.32315e-06
-4.15052e-07
9.33261e-06
-2.55089e-07
9.34184e-06
-8.93769e-08
9.35036e-06
7.63573e-08
9.35765e-06
2.37266e-07
9.36309e-06
3.89439e-07
9.36617e-06
5.29305e-07
9.36663e-06
6.53705e-07
9.36435e-06
7.60029e-07
9.35952e-06
8.46464e-07
9.35265e-06
9.12157e-07
9.34446e-06
9.57426e-07
9.33545e-06
9.83827e-07
9.32427e-06
9.93769e-07
9.30729e-06
9.87518e-07
9.28776e-06
9.56951e-07
9.26725e-06
9.05398e-07
9.24677e-06
8.3562e-07
9.22728e-06
7.49434e-07
9.20959e-06
6.48702e-07
9.19436e-06
5.35331e-07
9.18208e-06
4.1129e-07
9.17312e-06
2.78707e-07
9.16772e-06
1.40147e-07
9.16596e-06
-6.38349e-10
9.16766e-06
-1.39145e-07
9.17256e-06
-2.72173e-07
9.18035e-06
-3.96684e-07
9.19062e-06
-5.09805e-07
9.20289e-06
-6.08965e-07
9.21656e-06
-6.92138e-07
9.23093e-06
-7.58103e-07
9.24519e-06
-8.06605e-07
9.25855e-06
-8.3844e-07
9.27071e-06
-8.55513e-07
9.2828e-06
-8.59527e-07
9.2959e-06
-8.47116e-07
9.30765e-06
-8.13438e-07
9.31805e-06
-7.62093e-07
9.32743e-06
-6.94989e-07
9.336e-06
-6.13515e-07
9.34375e-06
-5.19223e-07
9.35061e-06
-4.14083e-07
9.35647e-06
-3.00118e-07
9.36157e-06
-1.79737e-07
9.36603e-06
-5.59502e-08
9.3696e-06
6.70605e-08
9.3719e-06
1.85897e-07
9.37246e-06
2.9786e-07
9.37128e-06
4.00705e-07
9.36876e-06
4.92285e-07
9.36527e-06
5.70536e-07
9.36083e-06
6.34241e-07
9.35553e-06
6.82904e-07
9.34977e-06
7.16572e-07
9.34369e-06
7.36372e-07
9.3365e-06
7.43853e-07
9.32545e-06
7.39887e-07
9.31242e-06
7.17224e-07
9.29838e-06
6.78356e-07
9.28426e-06
6.24831e-07
9.27079e-06
5.58119e-07
9.25831e-06
4.80165e-07
9.24719e-06
3.92525e-07
9.23776e-06
2.96715e-07
9.23029e-06
1.94692e-07
9.22489e-06
8.83543e-08
9.22161e-06
-1.81014e-08
9.22035e-06
-1.23422e-07
9.2209e-06
-2.2253e-07
9.22345e-06
-3.17753e-07
9.22656e-06
-4.01133e-07
9.23185e-06
-4.70915e-07
-5.5572e-07
9.2127e-06
9.20846e-06
9.20532e-06
9.20418e-06
9.20561e-06
9.20995e-06
9.21718e-06
9.22658e-06
9.23738e-06
9.24865e-06
9.25938e-06
9.26864e-06
9.27568e-06
9.28013e-06
9.28199e-06
9.28156e-06
9.27931e-06
9.27474e-06
9.26347e-06
9.248e-06
9.23086e-06
9.21314e-06
9.19616e-06
9.18102e-06
9.16852e-06
9.15932e-06
9.15391e-06
9.15253e-06
9.1551e-06
9.16117e-06
9.17013e-06
9.1813e-06
9.19395e-06
9.20742e-06
9.2211e-06
9.2344e-06
9.24666e-06
9.25711e-06
9.26497e-06
9.27078e-06
9.27592e-06
9.2787e-06
9.27999e-06
9.28033e-06
9.28022e-06
9.28023e-06
9.28088e-06
9.28261e-06
9.28567e-06
9.29006e-06
9.29544e-06
9.30141e-06
9.30741e-06
9.31291e-06
9.31747e-06
9.3208e-06
9.32275e-06
9.32342e-06
9.3231e-06
9.32226e-06
9.32087e-06
9.31579e-06
9.30791e-06
9.29846e-06
9.28817e-06
9.27787e-06
9.2683e-06
9.26005e-06
9.25358e-06
9.24922e-06
9.24717e-06
9.24742e-06
9.24977e-06
9.25391e-06
9.25952e-06
9.26627e-06
9.27386e-06
9.28197e-06
9.29025e-06
9.29829e-06
9.30554e-06
9.31124e-06
9.31601e-06
9.32123e-06
9.32513e-06
9.32811e-06
9.33012e-06
9.33134e-06
9.33223e-06
9.33304e-06
9.33394e-06
9.33506e-06
9.33647e-06
9.33816e-06
9.33987e-06
9.34131e-06
9.34238e-06
9.34305e-06
9.34318e-06
9.34275e-06
9.34197e-06
9.3411e-06
9.34051e-06
9.33995e-06
9.33737e-06
9.33338e-06
9.3287e-06
9.32313e-06
9.31663e-06
9.30988e-06
4.86921e-07
9.30346e-06
3.9894e-07
9.29775e-06
3.02425e-07
9.293e-06
1.99449e-07
9.28927e-06
9.20774e-08
9.28663e-06
-1.54596e-08
9.28493e-06
-1.21723e-07
9.28409e-06
-2.2169e-07
9.28408e-06
-3.17744e-07
9.28433e-06
-4.01376e-07
9.28537e-06
-4.71961e-07
-5.56758e-07
9.33416e-06
9.33355e-06
9.3326e-06
9.33151e-06
9.33037e-06
9.32909e-06
9.32771e-06
9.32613e-06
9.32425e-06
9.32226e-06
9.31937e-06
5.67896e-07
4.3622e-09
5.64221e-07
3.67564e-09
5.61519e-07
2.70136e-09
5.60081e-07
1.43835e-09
5.60235e-07
-1.54217e-10
5.6192e-07
-1.68453e-09
5.65332e-07
-3.4123e-09
5.70495e-07
-5.16266e-09
5.7734e-07
-6.8453e-09
5.85704e-07
-8.36372e-09
5.95343e-07
-9.6393e-09
6.05944e-07
-1.06014e-08
6.17168e-07
-1.12234e-08
6.28688e-07
-1.15198e-08
6.40171e-07
-1.14834e-08
6.51281e-07
-1.11104e-08
6.61725e-07
-1.04437e-08
6.71271e-07
-9.54574e-09
6.79757e-07
-8.48563e-09
6.87089e-07
-7.33288e-09
6.93245e-07
-6.15513e-09
6.98259e-07
-5.01406e-09
7.02215e-07
-3.95672e-09
7.0523e-07
-3.01505e-09
7.07436e-07
-2.2053e-09
7.08964e-07
-1.52864e-09
7.09937e-07
-9.72857e-10
7.10465e-07
-5.27354e-10
7.10626e-07
-1.61825e-10
7.10422e-07
2.04242e-10
7.0995e-07
4.71761e-10
7.09228e-07
7.22366e-10
7.08231e-07
9.97564e-10
7.06928e-07
1.30251e-09
7.05298e-07
1.63011e-09
7.033e-07
1.99765e-09
7.00902e-07
2.39869e-09
6.98085e-07
2.81694e-09
6.94857e-07
3.22787e-09
6.91249e-07
3.60759e-09
6.87318e-07
3.93107e-09
6.83149e-07
4.16875e-09
6.78861e-07
4.28837e-09
6.7459e-07
4.27087e-09
6.70479e-07
4.1108e-09
6.6667e-07
3.80892e-09
6.63294e-07
3.37644e-09
6.60458e-07
2.83615e-09
6.58285e-07
2.17232e-09
6.56882e-07
1.40311e-09
6.56289e-07
5.93151e-10
6.5652e-07
-2.30655e-10
6.57521e-07
-1.00103e-09
6.59268e-07
-1.74731e-09
6.61684e-07
-2.41562e-09
6.64668e-07
-2.98371e-09
6.68105e-07
-3.43788e-09
6.71846e-07
-3.74024e-09
6.75732e-07
-3.88602e-09
6.79642e-07
-3.91081e-09
6.83473e-07
-3.83033e-09
6.8713e-07
-3.65703e-09
6.90543e-07
-3.41337e-09
6.93674e-07
-3.1305e-09
6.96509e-07
-2.8351e-09
6.99056e-07
-2.5476e-09
7.0134e-07
-2.28334e-09
7.03394e-07
-2.05408e-09
7.05258e-07
-1.86454e-09
7.0697e-07
-1.71207e-09
7.08559e-07
-1.58843e-09
7.10038e-07
-1.4796e-09
7.11416e-07
-1.37775e-09
7.12695e-07
-1.27925e-09
7.13861e-07
-1.16536e-09
7.14875e-07
-1.01464e-09
7.15707e-07
-8.31447e-10
7.16318e-07
-6.11398e-10
7.16662e-07
-3.43344e-10
7.16673e-07
-1.18166e-11
7.16404e-07
2.68982e-10
7.15785e-07
6.19899e-10
7.14796e-07
9.881e-10
7.13445e-07
1.35178e-09
7.11754e-07
1.69118e-09
7.09764e-07
1.98948e-09
7.07531e-07
2.23349e-09
7.05122e-07
2.40865e-09
7.02621e-07
2.50068e-09
7.00116e-07
2.50518e-09
6.97694e-07
2.42251e-09
6.95436e-07
2.25708e-09
6.93416e-07
2.02029e-09
6.91681e-07
1.73502e-09
6.90304e-07
1.37756e-09
6.89318e-07
9.86085e-10
6.8875e-07
5.67547e-10
6.88599e-07
1.50854e-10
6.8883e-07
-2.31036e-10
6.89453e-07
-6.22795e-10
6.90415e-07
-9.62403e-10
6.91688e-07
-1.27241e-09
6.93244e-07
-1.55658e-09
6.95043e-07
-1.79892e-09
6.97046e-07
-2.00275e-09
6.99224e-07
-2.17778e-09
7.01548e-07
-2.32399e-09
7.03998e-07
-2.44976e-09
7.06569e-07
-2.57154e-09
7.09268e-07
-2.69938e-09
7.12104e-07
-2.83542e-09
7.1508e-07
-2.97652e-09
7.18193e-07
-3.11288e-09
7.21436e-07
-3.24249e-09
7.24781e-07
-3.34503e-09
7.28203e-07
-3.42233e-09
7.31645e-07
-3.44168e-09
7.35028e-07
-3.38304e-09
7.38266e-07
-3.23782e-09
7.41186e-07
-2.91997e-09
-1.69698e-09
1.76754e-06
4.31369e-09
1.76866e-06
2.55798e-09
1.7712e-06
1.67871e-10
1.77521e-06
-2.57341e-09
1.78093e-06
-5.87317e-09
1.78867e-06
-9.43103e-09
1.79841e-06
-1.31511e-08
1.81006e-06
-1.68164e-08
1.82345e-06
-2.02312e-08
1.83834e-06
-2.32555e-08
1.85445e-06
-2.57433e-08
1.87135e-06
-2.7508e-08
1.88859e-06
-2.84635e-08
1.90575e-06
-2.86753e-08
1.92244e-06
-2.81732e-08
1.93829e-06
-2.696e-08
1.95295e-06
-2.5107e-08
1.96615e-06
-2.27428e-08
1.97769e-06
-2.0023e-08
1.98746e-06
-1.71067e-08
1.99545e-06
-1.41447e-08
2.00171e-06
-1.12723e-08
2.00635e-06
-8.59471e-09
2.00952e-06
-6.18611e-09
2.01139e-06
-4.08326e-09
2.01217e-06
-2.29992e-09
2.01202e-06
-8.23161e-10
2.01111e-06
3.82789e-10
2.0096e-06
1.3471e-09
2.00763e-06
2.17256e-09
2.00522e-06
2.88103e-09
2.00242e-06
3.51811e-09
1.9993e-06
4.11664e-09
1.99591e-06
4.69578e-09
1.99226e-06
5.2858e-09
1.98839e-06
5.86626e-09
1.98431e-06
6.47235e-09
1.98005e-06
7.07881e-09
1.97565e-06
7.62963e-09
1.97117e-06
8.08406e-09
1.96672e-06
8.38654e-09
1.9624e-06
8.48766e-09
1.95834e-06
8.34337e-09
1.95468e-06
7.93019e-09
1.95156e-06
7.23912e-09
1.94909e-06
6.27411e-09
1.9474e-06
5.07259e-09
1.94652e-06
3.71149e-09
1.94655e-06
2.14502e-09
1.94764e-06
3.15021e-10
1.94973e-06
-1.4995e-09
1.95286e-06
-3.36e-09
1.95698e-06
-5.12842e-09
1.96198e-06
-6.74518e-09
1.9677e-06
-8.13088e-09
1.97395e-06
-9.24062e-09
1.98061e-06
-1.00938e-08
1.98744e-06
-1.05727e-08
1.99424e-06
-1.06811e-08
2.00083e-06
-1.05064e-08
2.00709e-06
-1.00832e-08
2.01287e-06
-9.4422e-09
2.01809e-06
-8.6342e-09
2.0227e-06
-7.73699e-09
2.02667e-06
-6.80913e-09
2.03002e-06
-5.8982e-09
2.03278e-06
-5.04295e-09
2.035e-06
-4.27096e-09
2.03673e-06
-3.59593e-09
2.03804e-06
-3.01733e-09
2.03897e-06
-2.52287e-09
2.03956e-06
-2.07096e-09
2.03986e-06
-1.67741e-09
2.0399e-06
-1.32094e-09
2.03971e-06
-9.70165e-10
2.03929e-06
-5.95001e-10
2.03864e-06
-1.77647e-10
2.03773e-06
2.91168e-10
2.03659e-06
8.03858e-10
2.03521e-06
1.35921e-09
2.03357e-06
1.91679e-09
2.03168e-06
2.51107e-09
2.02958e-06
3.08753e-09
2.02729e-06
3.6355e-09
2.02487e-06
4.10852e-09
2.02239e-06
4.47383e-09
2.01992e-06
4.70786e-09
2.01753e-06
4.79271e-09
2.01532e-06
4.70995e-09
2.01337e-06
4.45662e-09
2.01176e-06
4.03292e-09
2.01057e-06
3.44731e-09
2.00986e-06
2.73541e-09
2.00964e-06
1.95555e-09
2.00993e-06
1.08147e-09
2.01083e-06
9.09916e-11
2.01228e-06
-8.90907e-10
2.01427e-06
-1.83907e-09
2.01679e-06
-2.74559e-09
2.01981e-06
-3.64092e-09
2.02316e-06
-4.31163e-09
2.02681e-06
-4.92426e-09
2.03071e-06
-5.45853e-09
2.03478e-06
-5.87327e-09
2.03896e-06
-6.17897e-09
2.04319e-06
-6.40616e-09
2.04741e-06
-6.54846e-09
2.05159e-06
-6.62986e-09
2.05571e-06
-6.69127e-09
2.05977e-06
-6.757e-09
2.06377e-06
-6.8345e-09
2.06771e-06
-6.91904e-09
2.0716e-06
-6.99804e-09
2.07542e-06
-7.06222e-09
2.07916e-06
-7.09127e-09
2.0828e-06
-7.05463e-09
2.0863e-06
-6.9489e-09
2.08959e-06
-6.66713e-09
2.0926e-06
-6.24579e-09
2.09547e-06
-5.78946e-09
-4.01501e-09
3.0366e-06
1.86548e-09
3.0397e-06
-5.41093e-10
3.04351e-06
-3.64385e-09
3.04853e-06
-7.59656e-09
3.05489e-06
-1.22357e-08
3.06279e-06
-1.7332e-08
3.07229e-06
-2.265e-08
3.08335e-06
-2.78747e-08
3.09585e-06
-3.27341e-08
3.10966e-06
-3.70611e-08
3.12456e-06
-4.06425e-08
3.14015e-06
-4.30983e-08
3.15593e-06
-4.42405e-08
3.17154e-06
-4.42852e-08
3.18665e-06
-4.32828e-08
3.20089e-06
-4.1209e-08
3.21397e-06
-3.81821e-08
3.22561e-06
-3.43863e-08
3.23565e-06
-3.00592e-08
3.24399e-06
-2.54503e-08
3.25065e-06
-2.07972e-08
3.25569e-06
-1.63157e-08
3.25927e-06
-1.2175e-08
3.26157e-06
-8.48856e-09
3.2628e-06
-5.31607e-09
3.26318e-06
-2.67339e-09
3.26289e-06
-5.32861e-10
3.26205e-06
1.21972e-09
3.26081e-06
2.58377e-09
3.25928e-06
3.70983e-09
3.2575e-06
4.65587e-09
3.25553e-06
5.49091e-09
3.25339e-06
6.25541e-09
3.25109e-06
6.99382e-09
3.24861e-06
7.764e-09
3.24593e-06
8.55267e-09
3.24301e-06
9.39181e-09
3.23985e-06
1.02417e-08
3.23645e-06
1.10292e-08
3.23283e-06
1.16952e-08
3.22907e-06
1.21475e-08
3.22525e-06
1.23151e-08
3.22149e-06
1.20978e-08
3.21795e-06
1.14731e-08
3.21474e-06
1.04442e-08
3.21201e-06
9.00723e-09
3.20989e-06
7.19588e-09
3.20851e-06
5.08776e-09
3.20797e-06
2.68235e-09
3.20833e-06
-3.74937e-11
3.20967e-06
-2.84638e-09
3.212e-06
-5.68819e-09
3.21526e-06
-8.38834e-09
3.21938e-06
-1.08641e-08
3.22421e-06
-1.29616e-08
3.22959e-06
-1.46197e-08
3.23552e-06
-1.60214e-08
3.24169e-06
-1.67434e-08
3.24786e-06
-1.6854e-08
3.25391e-06
-1.65514e-08
3.2597e-06
-1.58803e-08
3.26514e-06
-1.48818e-08
3.27011e-06
-1.35966e-08
3.27455e-06
-1.2182e-08
3.27847e-06
-1.07252e-08
3.28187e-06
-9.30043e-09
3.28479e-06
-7.9677e-09
3.28729e-06
-6.76986e-09
3.28942e-06
-5.7278e-09
3.29124e-06
-4.83769e-09
3.29279e-06
-4.07301e-09
3.2941e-06
-3.37948e-09
3.29519e-06
-2.76018e-09
3.29604e-06
-2.17159e-09
3.29665e-06
-1.57938e-09
3.29702e-06
-9.71161e-10
3.29715e-06
-3.10489e-10
3.29701e-06
4.3593e-10
3.29656e-06
1.25484e-09
3.29577e-06
2.14865e-09
3.29461e-06
3.07751e-09
3.29309e-06
4.03208e-09
3.29122e-06
4.95901e-09
3.28901e-06
5.83746e-09
3.28653e-06
6.59683e-09
3.28383e-06
7.17304e-09
3.28099e-06
7.54077e-09
3.27811e-06
7.67847e-09
3.27528e-06
7.53539e-09
3.27261e-06
7.12798e-09
3.27019e-06
6.45231e-09
3.26812e-06
5.52164e-09
3.26648e-06
4.37037e-09
3.26538e-06
3.06193e-09
3.26481e-06
1.65278e-09
3.2648e-06
9.96507e-11
3.26536e-06
-1.45582e-09
3.26654e-06
-3.01595e-09
3.2683e-06
-4.51065e-09
3.27059e-06
-5.93205e-09
3.27335e-06
-7.06869e-09
3.27651e-06
-8.08515e-09
3.28002e-06
-8.96482e-09
3.28381e-06
-9.66018e-09
3.28781e-06
-1.0179e-08
3.292e-06
-1.0604e-08
3.29632e-06
-1.0861e-08
3.30068e-06
-1.09915e-08
3.30507e-06
-1.10842e-08
3.3095e-06
-1.11853e-08
3.31398e-06
-1.13106e-08
3.3185e-06
-1.14391e-08
3.32304e-06
-1.15444e-08
3.32758e-06
-1.16013e-08
3.33209e-06
-1.16024e-08
3.33653e-06
-1.14948e-08
3.34085e-06
-1.1271e-08
3.34502e-06
-1.08345e-08
3.34893e-06
-1.0157e-08
3.35271e-06
-9.56468e-09
-7.65791e-09
4.33854e-06
-1.73906e-09
4.34203e-06
-4.02587e-09
4.34572e-06
-7.32968e-09
4.34987e-06
-1.17508e-08
4.35472e-06
-1.70906e-08
4.36047e-06
-2.30774e-08
4.36729e-06
-2.94653e-08
4.37514e-06
-3.57344e-08
4.38392e-06
-4.15073e-08
4.39357e-06
-4.6709e-08
4.40398e-06
-5.10613e-08
4.41467e-06
-5.3783e-08
4.42507e-06
-5.46415e-08
4.43521e-06
-5.44254e-08
4.44495e-06
-5.30247e-08
4.45388e-06
-5.01354e-08
4.46168e-06
-4.59876e-08
4.46817e-06
-4.08674e-08
4.47321e-06
-3.5101e-08
4.47678e-06
-2.90266e-08
4.47897e-06
-2.29805e-08
4.47992e-06
-1.72685e-08
4.47988e-06
-1.21327e-08
4.4791e-06
-7.70659e-09
4.47784e-06
-4.06167e-09
4.47635e-06
-1.18276e-09
4.47488e-06
9.37053e-10
4.47356e-06
2.54381e-09
4.47245e-06
3.68939e-09
4.47162e-06
4.54277e-09
4.471e-06
5.27346e-09
4.47065e-06
5.83725e-09
4.47057e-06
6.34421e-09
4.47065e-06
6.90822e-09
4.47079e-06
7.6253e-09
4.47081e-06
8.52864e-09
4.47058e-06
9.62318e-09
4.46998e-06
1.08444e-08
4.46891e-06
1.21026e-08
4.4673e-06
1.32987e-08
4.46514e-06
1.43093e-08
4.46245e-06
1.50094e-08
4.45933e-06
1.52137e-08
4.45591e-06
1.48919e-08
4.4523e-06
1.40521e-08
4.44866e-06
1.26519e-08
4.44515e-06
1.07033e-08
4.44203e-06
8.20594e-09
4.43946e-06
5.25449e-09
4.43749e-06
1.93822e-09
4.43623e-06
-1.5893e-09
4.43569e-06
-5.14989e-09
4.43587e-06
-8.56351e-09
4.43672e-06
-1.17138e-08
4.43814e-06
-1.43854e-08
4.44003e-06
-1.65141e-08
4.44241e-06
-1.83968e-08
4.44499e-06
-1.93197e-08
4.44756e-06
-1.94262e-08
4.45005e-06
-1.9041e-08
4.45238e-06
-1.8212e-08
4.45448e-06
-1.69787e-08
4.45628e-06
-1.53992e-08
4.45778e-06
-1.36864e-08
4.45903e-06
-1.19751e-08
4.4601e-06
-1.03713e-08
4.46108e-06
-8.94471e-09
4.46206e-06
-7.74963e-09
4.46314e-06
-6.80326e-09
4.4644e-06
-6.10274e-09
4.46591e-06
-5.58309e-09
4.46768e-06
-5.15102e-09
4.46967e-06
-4.7502e-09
4.47184e-06
-4.34276e-09
4.47416e-06
-3.89455e-09
4.47655e-06
-3.36373e-09
4.47894e-06
-2.70355e-09
4.48125e-06
-1.8726e-09
4.48337e-06
-8.59667e-10
4.48519e-06
3.26386e-10
4.48661e-06
1.65918e-09
4.48753e-06
3.10726e-09
4.48788e-06
4.61621e-09
4.48759e-06
6.12245e-09
4.48666e-06
7.52411e-09
4.48511e-06
8.72513e-09
4.48298e-06
9.6716e-09
4.48032e-06
1.03366e-08
4.47727e-06
1.05852e-08
4.47391e-06
1.04877e-08
4.47038e-06
9.9839e-09
4.46681e-06
9.09739e-09
4.46332e-06
7.8522e-09
4.46007e-06
6.31565e-09
4.45715e-06
4.57304e-09
4.45457e-06
2.67806e-09
4.45242e-06
6.98724e-10
4.4507e-06
-1.30391e-09
4.44943e-06
-3.23884e-09
4.44854e-06
-5.04179e-09
4.44811e-06
-6.63429e-09
4.44806e-06
-8.03612e-09
4.44836e-06
-9.26972e-09
4.449e-06
-1.02914e-08
4.44992e-06
-1.11053e-08
4.45112e-06
-1.18053e-08
4.4526e-06
-1.23383e-08
4.45436e-06
-1.27489e-08
4.45643e-06
-1.31546e-08
4.45884e-06
-1.36001e-08
4.46163e-06
-1.41009e-08
4.46484e-06
-1.46447e-08
4.46848e-06
-1.51863e-08
4.47256e-06
-1.56813e-08
4.47704e-06
-1.60859e-08
4.48192e-06
-1.63689e-08
4.48709e-06
-1.64468e-08
4.49255e-06
-1.62943e-08
4.49814e-06
-1.57476e-08
4.50388e-06
-1.53012e-08
-1.34833e-08
5.58778e-06
-4.56382e-09
5.58951e-06
-5.75884e-09
5.59037e-06
-8.19281e-09
5.59084e-06
-1.22213e-08
5.59123e-06
-1.74758e-08
5.59182e-06
-2.36721e-08
5.59282e-06
-3.04617e-08
5.59431e-06
-3.72204e-08
5.59632e-06
-4.35169e-08
5.59886e-06
-4.92564e-08
5.60199e-06
-5.41859e-08
5.60529e-06
-5.70814e-08
5.60848e-06
-5.78343e-08
5.61136e-06
-5.73084e-08
5.61382e-06
-5.54856e-08
5.61578e-06
-5.20896e-08
5.61682e-06
-4.70341e-08
5.61674e-06
-4.07798e-08
5.61537e-06
-3.37368e-08
5.61272e-06
-2.63748e-08
5.60891e-06
-1.91722e-08
5.60421e-06
-1.25694e-08
5.59896e-06
-6.87707e-09
5.59352e-06
-2.26463e-09
5.5883e-06
1.15359e-09
5.58369e-06
3.42639e-09
5.57996e-06
4.66973e-09
5.57735e-06
5.152e-09
5.57591e-06
5.13132e-09
5.57569e-06
4.75747e-09
5.57667e-06
4.29247e-09
5.57881e-06
3.70488e-09
5.58196e-06
3.18756e-09
5.58594e-06
2.92958e-09
5.59048e-06
3.08847e-09
5.59526e-06
3.74903e-09
5.59994e-06
4.94577e-09
5.60418e-06
6.60032e-09
5.60772e-06
8.5613e-09
5.61037e-06
1.06544e-08
5.61195e-06
1.27259e-08
5.61238e-06
1.45754e-08
5.61167e-06
1.59273e-08
5.60983e-06
1.67312e-08
5.60702e-06
1.68609e-08
5.60336e-06
1.63167e-08
5.59892e-06
1.51407e-08
5.59405e-06
1.30756e-08
5.58907e-06
1.02381e-08
5.58414e-06
6.86781e-09
5.57942e-06
3.12917e-09
5.57506e-06
-7.87433e-10
5.57114e-06
-4.65254e-09
5.56768e-06
-8.24971e-09
5.56466e-06
-1.13614e-08
5.56201e-06
-1.38713e-08
5.55949e-06
-1.58726e-08
5.55707e-06
-1.68974e-08
5.55472e-06
-1.70802e-08
5.55233e-06
-1.66511e-08
5.54978e-06
-1.56653e-08
5.54702e-06
-1.4211e-08
5.54405e-06
-1.24367e-08
5.54094e-06
-1.05727e-08
5.53779e-06
-8.82343e-09
5.53475e-06
-7.32999e-09
5.53198e-06
-6.1756e-09
5.52965e-06
-5.4177e-09
5.52791e-06
-5.06335e-09
5.52688e-06
-5.07718e-09
5.52665e-06
-5.3557e-09
5.52731e-06
-5.80352e-09
5.52884e-06
-6.27958e-09
5.53118e-06
-6.6867e-09
5.53428e-06
-6.99218e-09
5.53803e-06
-7.12028e-09
5.54232e-06
-6.99024e-09
5.54697e-06
-6.5262e-09
5.5518e-06
-5.68317e-09
5.55658e-06
-4.45771e-09
5.56113e-06
-2.88668e-09
5.56525e-06
-1.01491e-09
5.56877e-06
1.09562e-09
5.57155e-06
3.34527e-09
5.57348e-06
5.59194e-09
5.57449e-06
7.71034e-09
5.57455e-06
9.6185e-09
5.57364e-06
1.12443e-08
5.57181e-06
1.24121e-08
5.56911e-06
1.31862e-08
5.5657e-06
1.33967e-08
5.56171e-06
1.30892e-08
5.55731e-06
1.22509e-08
5.55266e-06
1.09667e-08
5.5479e-06
9.3287e-09
5.54316e-06
7.42629e-09
5.53849e-06
5.36126e-09
5.53396e-06
3.22662e-09