/*--------------------------------*- C++ -*----------------------------------*\
| =========                 |                                                 |
| \\      /  F ield         | OpenFOAM: The Open Source CFD Toolbox           |
|  \\    /   O peration     | Version:  2206                                  |
|   \\  /    A nd           | Website:  www.openfoam.com                      |
|    \\/     M anipulation  |                                                 |
\*---------------------------------------------------------------------------*/
FoamFile
{
    version     2.0;
    format      ascii;
    arch        "LSB;label=32;scalar=64";
    class       volVectorField;
    location    "19.2999";
    object      U_0;
}
// * * * * * * * * * * * * * * * * * * * * * * * * * * * * * * * * * * * * * //

dimensions      [0 1 -1 0 0 0 0];

internalField   nonuniform List<vector> 
3080
(
(1.77105 0.42533 0)
(1.79103 0.38547 0)
(1.8107 0.336024 0)
(1.82986 0.27749 0)
(1.84824 0.210793 0)
(1.86553 0.137395 0)
(1.88125 0.0595634 0)
(1.89461 -0.0190391 0)
(1.90497 -0.0952016 0)
(1.91198 -0.166483 0)
(1.91536 -0.230815 0)
(1.91495 -0.286626 0)
(1.91071 -0.332915 0)
(1.90279 -0.36923 0)
(1.89144 -0.395562 0)
(1.87638 -0.412148 0)
(1.85714 -0.419055 0)
(1.83448 -0.417316 0)
(1.80886 -0.408973 0)
(1.78121 -0.395726 0)
(1.75252 -0.378825 0)
(1.72375 -0.358899 0)
(1.69577 -0.335958 0)
(1.66925 -0.309607 0)
(1.64471 -0.279334 0)
(1.62255 -0.244732 0)
(1.6031 -0.205615 0)
(1.58668 -0.162079 0)
(1.5736 -0.114518 0)
(1.56414 -0.0636447 0)
(1.55847 -0.010503 0)
(1.55667 0.0434346 0)
(1.55861 0.0965695 0)
(1.56405 0.147625 0)
(1.57264 0.195381 0)
(1.58396 0.23876 0)
(1.59748 0.276895 0)
(1.61267 0.309185 0)
(1.62902 0.335297 0)
(1.64609 0.355113 0)
(1.66355 0.368604 0)
(1.68145 0.375587 0)
(1.6998 0.37556 0)
(1.71817 0.368255 0)
(1.73653 0.353688 0)
(1.75467 0.332016 0)
(1.77247 0.303501 0)
(1.78984 0.268471 0)
(1.8067 0.227328 0)
(1.82289 0.180585 0)
(1.83827 0.12894 0)
(1.85261 0.0734257 0)
(1.86547 0.0157402 0)
(1.8762 -0.0416589 0)
(1.88438 -0.0968839 0)
(1.88971 -0.148284 0)
(1.89193 -0.194446 0)
(1.89091 -0.234281 0)
(1.88665 -0.267099 0)
(1.8793 -0.292585 0)
(1.869 -0.310717 0)
(1.85541 -0.321555 0)
(1.83868 -0.325043 0)
(1.81936 -0.322144 0)
(1.79803 -0.314077 0)
(1.77549 -0.30188 0)
(1.75254 -0.286373 0)
(1.72993 -0.268042 0)
(1.70829 -0.247045 0)
(1.68811 -0.223308 0)
(1.66973 -0.196677 0)
(1.65344 -0.167028 0)
(1.63948 -0.134348 0)
(1.62806 -0.0987901 0)
(1.61938 -0.0607117 0)
(1.61358 -0.020709 0)
(1.61075 0.0203062 0)
(1.61087 0.0611189 0)
(1.61379 0.100728 0)
(1.61929 0.138187 0)
(1.62708 0.17262 0)
(1.6368 0.203283 0)
(1.64806 0.229613 0)
(1.66046 0.251238 0)
(1.67364 0.267969 0)
(1.6873 0.279732 0)
(1.70144 0.286385 0)
(1.7161 0.287552 0)
(1.73093 0.282975 0)
(1.74584 0.272669 0)
(1.76063 0.256775 0)
(1.77514 0.235556 0)
(1.78926 0.209348 0)
(1.8029 0.178538 0)
(1.81597 0.14357 0)
(1.82839 0.104987 0)
(1.84002 0.0635392 0)
(1.85055 0.020413 0)
(1.85947 -0.0226399 0)
(1.86643 -0.0642355 0)
(1.87113 -0.103189 0)
(1.87335 -0.138491 0)
(1.87299 -0.169348 0)
(1.87003 -0.195223 0)
(1.86458 -0.215855 0)
(1.85679 -0.231207 0)
(1.84658 -0.241275 0)
(1.83386 -0.245959 0)
(1.81909 -0.245655 0)
(1.80269 -0.241143 0)
(1.78527 -0.233093 0)
(1.76746 -0.222077 0)
(1.74987 -0.208507 0)
(1.733 -0.1926 0)
(1.71728 -0.174421 0)
(1.70298 -0.15396 0)
(1.69034 -0.131212 0)
(1.67953 -0.106226 0)
(1.67068 -0.0791465 0)
(1.66392 -0.0502422 0)
(1.65935 -0.0199392 0)
(1.65701 0.0111194 0)
(1.65689 0.0420575 0)
(1.65887 0.0721448 0)
(1.79102 0.402872 0)
(1.81552 0.363347 0)
(1.83949 0.31447 0)
(1.86259 0.256805 0)
(1.88445 0.19133 0)
(1.90459 0.119612 0)
(1.92238 0.044183 0)
(1.93687 -0.0312538 0)
(1.94749 -0.103827 0)
(1.95389 -0.171199 0)
(1.95587 -0.231439 0)
(1.95335 -0.283124 0)
(1.94642 -0.325379 0)
(1.93537 -0.357798 0)
(1.92024 -0.380297 0)
(1.90044 -0.392808 0)
(1.87642 -0.395632 0)
(1.84879 -0.390681 0)
(1.8184 -0.380005 0)
(1.78634 -0.365394 0)
(1.75368 -0.348125 0)
(1.72142 -0.328756 0)
(1.69042 -0.307159 0)
(1.66133 -0.282753 0)
(1.63461 -0.254853 0)
(1.6106 -0.222955 0)
(1.5896 -0.186852 0)
(1.5719 -0.146628 0)
(1.55776 -0.102657 0)
(1.54744 -0.0555991 0)
(1.54111 -0.00640608 0)
(1.53884 0.043606 0)
(1.54052 0.0929922 0)
(1.54592 0.140582 0)
(1.55472 0.185256 0)
(1.5665 0.226014 0)
(1.58079 0.26204 0)
(1.59707 0.292734 0)
(1.61488 0.317709 0)
(1.63377 0.33674 0)
(1.65349 0.349641 0)
(1.67402 0.35609 0)
(1.69516 0.355669 0)
(1.71659 0.348221 0)
(1.73815 0.333729 0)
(1.75959 0.312306 0)
(1.78071 0.284188 0)
(1.80132 0.249701 0)
(1.82123 0.20926 0)
(1.84024 0.163406 0)
(1.85811 0.112891 0)
(1.87452 0.0588763 0)
(1.88882 0.00333579 0)
(1.90033 -0.051394 0)
(1.90861 -0.103585 0)
(1.91337 -0.151673 0)
(1.91439 -0.194362 0)
(1.91161 -0.2307 0)
(1.90512 -0.260098 0)
(1.89514 -0.282273 0)
(1.88149 -0.297156 0)
(1.86403 -0.304577 0)
(1.84343 -0.30507 0)
(1.82021 -0.299936 0)
(1.79524 -0.290395 0)
(1.7694 -0.27754 0)
(1.74356 -0.262158 0)
(1.71845 -0.244642 0)
(1.69468 -0.225016 0)
(1.67268 -0.203063 0)
(1.65275 -0.178513 0)
(1.63513 -0.151182 0)
(1.62004 -0.121037 0)
(1.60768 -0.088215 0)
(1.59823 -0.0530427 0)
(1.59185 -0.0160699 0)
(1.58861 0.0218743 0)
(1.5885 0.059706 0)
(1.59138 0.0965098 0)
(1.59704 0.131415 0)
(1.6052 0.163613 0)
(1.61552 0.19241 0)
(1.62763 0.21726 0)
(1.64116 0.237775 0)
(1.65575 0.253695 0)
(1.67117 0.264825 0)
(1.68737 0.270908 0)
(1.70423 0.271617 0)
(1.72142 0.266815 0)
(1.7388 0.256502 0)
(1.75612 0.24079 0)
(1.77317 0.219912 0)
(1.7898 0.194176 0)
(1.80585 0.163953 0)
(1.8212 0.129691 0)
(1.83568 0.0919664 0)
(1.84905 0.0516347 0)
(1.86086 0.010114 0)
(1.87053 -0.0308892 0)
(1.8777 -0.0701057 0)
(1.88205 -0.106416 0)
(1.88339 -0.138937 0)
(1.8817 -0.166986 0)
(1.87707 -0.190123 0)
(1.86964 -0.208156 0)
(1.8594 -0.220972 0)
(1.84616 -0.22842 0)
(1.83039 -0.230679 0)
(1.81253 -0.228559 0)
(1.79324 -0.222833 0)
(1.77322 -0.214209 0)
(1.75313 -0.203243 0)
(1.73358 -0.190279 0)
(1.71506 -0.175435 0)
(1.69793 -0.158664 0)
(1.68245 -0.139855 0)
(1.6688 -0.118937 0)
(1.65714 -0.0959295 0)
(1.64759 -0.0709581 0)
(1.64029 -0.0442708 0)
(1.63532 -0.016262 0)
(1.63272 0.0124806 0)
(1.6325 0.0411693 0)
(1.63453 0.0691334 0)
(1.81116 0.376038 0)
(1.83977 0.337 0)
(1.86761 0.288974 0)
(1.89424 0.232589 0)
(1.91913 0.168894 0)
(1.94175 0.0995581 0)
(1.9612 0.027369 0)
(1.9765 -0.0440369 0)
(1.9871 -0.112161 0)
(1.9927 -0.174821 0)
(1.99312 -0.230252 0)
(1.98839 -0.277189 0)
(1.97876 -0.314851 0)
(1.96446 -0.342821 0)
(1.94506 -0.360816 0)
(1.92054 -0.368559 0)
(1.89164 -0.367329 0)
(1.85912 -0.359287 0)
(1.82417 -0.346565 0)
(1.788 -0.331028 0)
(1.75183 -0.313929 0)
(1.71673 -0.29569 0)
(1.68334 -0.275906 0)
(1.65222 -0.253804 0)
(1.62381 -0.228596 0)
(1.59848 -0.199724 0)
(1.57643 -0.166906 0)
(1.55791 -0.130223 0)
(1.54314 -0.0900368 0)
(1.53233 -0.0469663 0)
(1.52566 -0.00188434 0)
(1.52316 0.0440398 0)
(1.52475 0.0895023 0)
(1.53021 0.133432 0)
(1.53925 0.174803 0)
(1.55147 0.212689 0)
(1.56645 0.246316 0)
(1.58371 0.275086 0)
(1.60282 0.298564 0)
(1.62338 0.316427 0)
(1.64516 0.328358 0)
(1.66809 0.333975 0)
(1.69179 0.332961 0)
(1.71599 0.325206 0)
(1.74045 0.31067 0)
(1.76485 0.289448 0)
(1.78893 0.261767 0)
(1.81242 0.227948 0)
(1.83504 0.188416 0)
(1.85653 0.143732 0)
(1.87659 0.0947147 0)
(1.89473 0.0427118 0)
(1.91011 -0.0099977 0)
(1.92205 -0.0614149 0)
(1.9301 -0.109904 0)
(1.93395 -0.154047 0)
(1.93347 -0.192694 0)
(1.9287 -0.225013 0)
(1.91983 -0.250486 0)
(1.90683 -0.268871 0)
(1.88943 -0.279863 0)
(1.86817 -0.28356 0)
(1.84362 -0.281161 0)
(1.81669 -0.27398 0)
(1.78838 -0.263305 0)
(1.75969 -0.250219 0)
(1.73152 -0.23544 0)
(1.70457 -0.219195 0)
(1.67928 -0.201292 0)
(1.65599 -0.181375 0)
(1.63499 -0.159121 0)
(1.61652 -0.134315 0)
(1.60073 -0.106887 0)
(1.58781 -0.0769633 0)
(1.57793 -0.0448503 0)
(1.57123 -0.0110568 0)
(1.5678 0.023669 0)
(1.56762 0.0583664 0)
(1.57055 0.0922008 0)
(1.57642 0.124374 0)
(1.58494 0.154142 0)
(1.59582 0.180853 0)
(1.6087 0.203977 0)
(1.62324 0.223103 0)
(1.63913 0.237909 0)
(1.65617 0.248105 0)
(1.67426 0.253384 0)
(1.6931 0.253495 0)
(1.71243 0.248359 0)
(1.73204 0.237958 0)
(1.75163 0.222389 0)
(1.77098 0.201861 0)
(1.78986 0.176659 0)
(1.80809 0.147139 0)
(1.82547 0.113758 0)
(1.84177 0.0771543 0)
(1.8566 0.0383418 0)
(1.86928 -0.00102751 0)
(1.87931 -0.0394887 0)
(1.88633 -0.0757776 0)
(1.88999 -0.108855 0)
(1.89014 -0.138103 0)
(1.8869 -0.163018 0)
(1.88046 -0.183105 0)
(1.87077 -0.198126 0)
(1.8576 -0.207873 0)
(1.84132 -0.212343 0)
(1.82244 -0.212279 0)
(1.80168 -0.208515 0)
(1.77981 -0.201853 0)
(1.7576 -0.192996 0)
(1.73574 -0.182447 0)
(1.71481 -0.170452 0)
(1.69516 -0.156964 0)
(1.67709 -0.141809 0)
(1.66082 -0.124819 0)
(1.64654 -0.105893 0)
(1.63437 -0.0850129 0)
(1.62442 -0.062286 0)
(1.61682 -0.0379438 0)
(1.61165 -0.0123527 0)
(1.60897 0.0139517 0)
(1.60875 0.0402678 0)
(1.6109 0.0659783 0)
(1.83077 0.34528 0)
(1.86295 0.306889 0)
(1.89413 0.26001 0)
(1.92375 0.205323 0)
(1.95121 0.143908 0)
(1.97586 0.0775716 0)
(1.99653 0.00954858 0)
(2.0123 -0.0570756 0)
(2.02264 -0.11997 0)
(2.02722 -0.177175 0)
(2.02594 -0.227144 0)
(2.01895 -0.268752 0)
(2.00657 -0.301237 0)
(1.98865 -0.324074 0)
(1.9647 -0.336689 0)
(1.9355 -0.339398 0)
(1.90168 -0.33417 0)
(1.86447 -0.323248 0)
(1.82526 -0.308917 0)
(1.78547 -0.29309 0)
(1.7465 -0.276863 0)
(1.70911 -0.260255 0)
(1.67393 -0.242686 0)
(1.64144 -0.223288 0)
(1.61198 -0.201141 0)
(1.58586 -0.175557 0)
(1.56331 -0.14627 0)
(1.54446 -0.113319 0)
(1.5295 -0.0770623 0)
(1.51859 -0.0380933 0)
(1.51189 0.00278071 0)
(1.50943 0.0445254 0)
(1.51112 0.0859574 0)
(1.51676 0.126097 0)
(1.52609 0.164001 0)
(1.53877 0.198812 0)
(1.5544 0.229793 0)
(1.57256 0.256348 0)
(1.59286 0.278 0)
(1.61495 0.294336 0)
(1.63864 0.304956 0)
(1.66369 0.309495 0)
(1.68967 0.307721 0)
(1.71633 0.29952 0)
(1.74334 0.284848 0)
(1.77034 0.263806 0)
(1.79699 0.236612 0)
(1.82296 0.203585 0)
(1.84791 0.165146 0)
(1.87154 0.121878 0)
(1.89343 0.0747177 0)
(1.91284 0.025354 0)
(1.92884 -0.0239167 0)
(1.94079 -0.0713545 0)
(1.94819 -0.115459 0)
(1.95072 -0.155047 0)
(1.9484 -0.189134 0)
(1.94142 -0.216951 0)
(1.92982 -0.238073 0)
(1.91327 -0.252069 0)
(1.89208 -0.25863 0)
(1.86686 -0.258692 0)
(1.83851 -0.253584 0)
(1.80818 -0.244712 0)
(1.77702 -0.233405 0)
(1.74617 -0.220694 0)
(1.71643 -0.20704 0)
(1.68826 -0.192396 0)
(1.66205 -0.176458 0)
(1.63808 -0.15881 0)
(1.61656 -0.139042 0)
(1.5977 -0.116896 0)
(1.58167 -0.092316 0)
(1.56858 -0.0653996 0)
(1.55861 -0.0364424 0)
(1.55188 -0.00591839 0)
(1.54848 0.0255008 0)
(1.5484 0.056969 0)
(1.5515 0.0877236 0)
(1.55762 0.117035 0)
(1.56653 0.144216 0)
(1.57794 0.168655 0)
(1.59154 0.189832 0)
(1.60702 0.207314 0)
(1.62413 0.220723 0)
(1.64267 0.229718 0)
(1.66244 0.234007 0)
(1.68305 0.23341 0)
(1.70429 0.227846 0)
(1.72586 0.21729 0)
(1.74747 0.201834 0)
(1.76884 0.181667 0)
(1.78972 0.157053 0)
(1.80987 0.128342 0)
(1.82903 0.0960195 0)
(1.84683 0.0608401 0)
(1.8626 0.0241265 0)
(1.8756 -0.012547 0)
(1.88542 -0.0479045 0)
(1.89174 -0.0807329 0)
(1.89413 -0.110204 0)
(1.89328 -0.13589 0)
(1.88834 -0.157307 0)
(1.87974 -0.173898 0)
(1.86717 -0.185395 0)
(1.85089 -0.191616 0)
(1.83147 -0.193208 0)
(1.80966 -0.191025 0)
(1.78635 -0.185937 0)
(1.7624 -0.178759 0)
(1.73864 -0.170146 0)
(1.71571 -0.16045 0)
(1.69397 -0.149692 0)
(1.67372 -0.137728 0)
(1.6552 -0.124341 0)
(1.63858 -0.109302 0)
(1.62403 -0.0924579 0)
(1.61167 -0.0737969 0)
(1.60161 -0.0533983 0)
(1.59395 -0.0314799 0)
(1.58877 -0.00838656 0)
(1.58615 0.0153991 0)
(1.58604 0.0392579 0)
(1.58838 0.0626224 0)
(1.84909 0.311166 0)
(1.88424 0.273619 0)
(1.91816 0.228181 0)
(1.95019 0.175549 0)
(1.97974 0.116854 0)
(2.00588 0.0542272 0)
(2.02732 -0.00897216 0)
(2.04325 -0.0701085 0)
(2.05304 -0.127045 0)
(2.05634 -0.178109 0)
(2.05318 -0.221998 0)
(2.04385 -0.257677 0)
(2.02844 -0.284352 0)
(2.00631 -0.301233 0)
(1.97792 -0.307799 0)
(1.94386 -0.30546 0)
(1.90528 -0.296341 0)
(1.86369 -0.282916 0)
(1.82074 -0.267627 0)
(1.77817 -0.252306 0)
(1.73703 -0.237566 0)
(1.69805 -0.223131 0)
(1.66179 -0.208229 0)
(1.62862 -0.191875 0)
(1.5988 -0.173082 0)
(1.57254 -0.15107 0)
(1.55003 -0.125483 0)
(1.53137 -0.0963946 0)
(1.51666 -0.0641507 0)
(1.50603 -0.0293347 0)
(1.49962 0.00729711 0)
(1.49744 0.0448224 0)
(1.49943 0.0821842 0)
(1.5054 0.118462 0)
(1.51512 0.152792 0)
(1.52829 0.184376 0)
(1.54457 0.212514 0)
(1.56359 0.236604 0)
(1.585 0.256129 0)
(1.60852 0.27062 0)
(1.63391 0.279661 0)
(1.66077 0.282938 0)
(1.68875 0.280266 0)
(1.71753 0.271508 0)
(1.74671 0.256642 0)
(1.7759 0.235778 0)
(1.8047 0.209132 0)
(1.83274 0.177013 0)
(1.85964 0.13984 0)
(1.88501 0.0982522 0)
(1.90825 0.0534019 0)
(1.92831 0.0073515 0)
(1.94436 -0.037948 0)
(1.95579 -0.0807872 0)
(1.96203 -0.11981 0)
(1.9628 -0.154239 0)
(1.95835 -0.183315 0)
(1.94888 -0.206258 0)
(1.93393 -0.222478 0)
(1.91356 -0.231322 0)
(1.88832 -0.2334 0)
(1.85915 -0.229979 0)
(1.8273 -0.222523 0)
(1.79411 -0.212541 0)
(1.76093 -0.201337 0)
(1.72875 -0.189632 0)
(1.69812 -0.177539 0)
(1.66945 -0.164834 0)
(1.64301 -0.151113 0)
(1.619 -0.135908 0)
(1.59757 -0.118782 0)
(1.57887 -0.0994212 0)
(1.56303 -0.077749 0)
(1.55019 -0.053894 0)
(1.54046 -0.0281344 0)
(1.53398 -0.00091577 0)
(1.53084 0.0271643 0)
(1.53102 0.0553635 0)
(1.53441 0.0829816 0)
(1.54088 0.10935 0)
(1.55021 0.133832 0)
(1.56216 0.155848 0)
(1.57647 0.174881 0)
(1.59287 0.190479 0)
(1.61113 0.202243 0)
(1.63103 0.209833 0)
(1.65222 0.213001 0)
(1.6744 0.211602 0)
(1.69729 0.205528 0)
(1.72056 0.194765 0)
(1.7439 0.179398 0)
(1.76702 0.1596 0)
(1.78962 0.135621 0)
(1.81143 0.107825 0)
(1.83207 0.0767958 0)
(1.85091 0.0435443 0)
(1.86706 0.00958568 0)
(1.87991 -0.0238359 0)
(1.88909 -0.055575 0)
(1.89407 -0.0846664 0)
(1.89496 -0.110387 0)
(1.8928 -0.132152 0)
(1.88545 -0.149487 0)
(1.87386 -0.162004 0)
(1.85803 -0.169383 0)
(1.83848 -0.172135 0)
(1.81604 -0.171101 0)
(1.79172 -0.167183 0)
(1.76646 -0.161284 0)
(1.74121 -0.154174 0)
(1.7167 -0.146307 0)
(1.69332 -0.137776 0)
(1.67138 -0.128477 0)
(1.65111 -0.118199 0)
(1.63264 -0.106681 0)
(1.61614 -0.093673 0)
(1.60171 -0.0789897 0)
(1.5895 -0.0625794 0)
(1.5796 -0.044549 0)
(1.57211 -0.0250941 0)
(1.56712 -0.00453694 0)
(1.56469 0.0166905 0)
(1.56482 0.038046 0)
(1.56742 0.0590081 0)
(1.8654 0.274297 0)
(1.90286 0.237782 0)
(1.93886 0.194041 0)
(1.97276 0.143768 0)
(2.00384 0.0882334 0)
(2.03085 0.0300512 0)
(2.05261 -0.0277633 0)
(2.06832 -0.0827651 0)
(2.07719 -0.133047 0)
(2.07885 -0.177357 0)
(2.07358 -0.214618 0)
(2.06169 -0.243749 0)
(2.04257 -0.263874 0)
(2.01617 -0.273801 0)
(1.98302 -0.274163 0)
(1.9441 -0.266774 0)
(1.90101 -0.254068 0)
(1.85556 -0.238795 0)
(1.80984 -0.223452 0)
(1.76529 -0.209387 0)
(1.72285 -0.196774 0)
(1.68317 -0.185055 0)
(1.64668 -0.173264 0)
(1.61361 -0.16029 0)
(1.58414 -0.14509 0)
(1.5584 -0.126838 0)
(1.53649 -0.105085 0)
(1.5185 -0.0799146 0)
(1.50448 -0.0517051 0)
(1.4945 -0.0210322 0)
(1.48869 0.0113838 0)
(1.48707 0.0447176 0)
(1.48956 0.0780187 0)
(1.49601 0.110413 0)
(1.50623 0.141107 0)
(1.51996 0.169355 0)
(1.53692 0.19448 0)
(1.55678 0.215883 0)
(1.57927 0.233027 0)
(1.6041 0.245436 0)
(1.63089 0.252717 0)
(1.65929 0.254611 0)
(1.68894 0.250923 0)
(1.71945 0.241534 0)
(1.7504 0.226449 0)
(1.78135 0.205787 0)
(1.81189 0.179755 0)
(1.84159 0.14864 0)
(1.87007 0.112874 0)
(1.89678 0.0732517 0)
(1.92063 0.0314147 0)
(1.94056 -0.0107026 0)
(1.95582 -0.0513815 0)
(1.96587 -0.088974 0)
(1.97014 -0.122395 0)
(1.96929 -0.151301 0)
(1.96252 -0.17508 0)
(1.94982 -0.192605 0)
(1.93094 -0.202954 0)
(1.90628 -0.206424 0)
(1.87682 -0.204191 0)
(1.84396 -0.197704 0)
(1.8092 -0.188593 0)
(1.77411 -0.178381 0)
(1.73993 -0.168053 0)
(1.7073 -0.15789 0)
(1.67668 -0.147759 0)
(1.64835 -0.137294 0)
(1.62244 -0.126004 0)
(1.59907 -0.113366 0)
(1.57832 -0.0989253 0)
(1.56029 -0.0823758 0)
(1.5451 -0.06362 0)
(1.53286 -0.0428055 0)
(1.52371 -0.0202205 0)
(1.51775 0.00371889 0)
(1.51507 0.0284786 0)
(1.51569 0.0534144 0)
(1.51951 0.0778734 0)
(1.52642 0.101242 0)
(1.53624 0.122929 0)
(1.54878 0.142382 0)
(1.56381 0.159096 0)
(1.58112 0.172624 0)
(1.60046 0.182573 0)
(1.62149 0.188633 0)
(1.64391 0.190603 0)
(1.66742 0.188316 0)
(1.69169 0.18167 0)
(1.71638 0.17066 0)
(1.74119 0.155362 0)
(1.76578 0.135934 0)
(1.78986 0.112635 0)
(1.81305 0.0858989 0)
(1.83475 0.0565128 0)
(1.85399 0.0258394 0)
(1.87002 -0.00487333 0)
(1.88222 -0.034497 0)
(1.89025 -0.0620881 0)
(1.89339 -0.0870443 0)
(1.89281 -0.108544 0)
(1.88718 -0.125961 0)
(1.87666 -0.138734 0)
(1.86151 -0.146584 0)
(1.84217 -0.149958 0)
(1.81949 -0.149619 0)
(1.79458 -0.146469 0)
(1.76848 -0.141466 0)
(1.74226 -0.135464 0)
(1.7167 -0.129005 0)
(1.69223 -0.122253 0)
(1.66918 -0.115146 0)
(1.64773 -0.107482 0)
(1.628 -0.0989844 0)
(1.6101 -0.0893644 0)
(1.59412 -0.0783705 0)
(1.58019 -0.065829 0)
(1.56842 -0.0516757 0)
(1.55893 -0.0359906 0)
(1.55182 -0.0189867 0)
(1.54719 -0.000957435 0)
(1.5451 0.0177073 0)
(1.54556 0.0365461 0)
(1.54851 0.055068 0)
(1.87896 0.235439 0)
(1.91806 0.200142 0)
(1.95559 0.158282 0)
(1.9909 0.110599 0)
(2.02293 0.0587218 0)
(2.05013 0.00547943 0)
(2.07148 -0.0465114 0)
(2.08623 -0.0947649 0)
(2.09363 -0.137497 0)
(2.09335 -0.174301 0)
(2.08572 -0.204507 0)
(2.07064 -0.226694 0)
(2.04738 -0.239114 0)
(2.01618 -0.241632 0)
(1.97792 -0.2357 0)
(1.93425 -0.223514 0)
(1.88716 -0.207906 0)
(1.83894 -0.191824 0)
(1.7916 -0.177393 0)
(1.74622 -0.165351 0)
(1.70362 -0.155492 0)
(1.66432 -0.146989 0)
(1.62857 -0.138681 0)
(1.59647 -0.12934 0)
(1.56809 -0.117873 0)
(1.54348 -0.103452 0)
(1.52271 -0.0856021 0)
(1.50584 -0.0643457 0)
(1.49291 -0.0401299 0)
(1.48394 -0.0135321 0)
(1.47902 0.0147491 0)
(1.47818 0.0439544 0)
(1.48138 0.0732598 0)
(1.4885 0.101805 0)
(1.49935 0.128839 0)
(1.51375 0.15367 0)
(1.53144 0.175661 0)
(1.55217 0.194226 0)
(1.57566 0.208828 0)
(1.60153 0.219008 0)
(1.62947 0.224442 0)
(1.6591 0.224862 0)
(1.69006 0.220082 0)
(1.72191 0.210023 0)
(1.75421 0.194713 0)
(1.78651 0.174265 0)
(1.81839 0.148867 0)
(1.84943 0.118812 0)
(1.87912 0.0846549 0)
(1.90647 0.0476514 0)
(1.93018 0.00963127 0)
(1.94929 -0.0278065 0)
(1.96311 -0.0631729 0)
(1.97081 -0.0952465 0)
(1.97232 -0.123192 0)
(1.97005 -0.146326 0)
(1.95956 -0.16405 0)
(1.94241 -0.174868 0)
(1.91875 -0.178887 0)
(1.88937 -0.177174 0)
(1.8559 -0.171121 0)
(1.82003 -0.162415 0)
(1.78354 -0.152743 0)
(1.74792 -0.143307 0)
(1.71389 -0.134545 0)
(1.68197 -0.12642 0)
(1.65242 -0.11861 0)
(1.62535 -0.110611 0)
(1.60078 -0.101851 0)
(1.57873 -0.0917938 0)
(1.55922 -0.0800071 0)
(1.54235 -0.0662123 0)
(1.52822 -0.0503279 0)
(1.51695 -0.0324879 0)
(1.50866 -0.0130061 0)
(1.50346 0.00772357 0)
(1.50146 0.0292182 0)
(1.50268 0.0509291 0)
(1.50707 0.072258 0)
(1.51455 0.0926184 0)
(1.52496 0.111462 0)
(1.53817 0.128268 0)
(1.55396 0.142546 0)
(1.57209 0.153858 0)
(1.59229 0.161881 0)
(1.61428 0.166351 0)
(1.63773 0.167047 0)
(1.66232 0.163805 0)
(1.68771 0.156541 0)
(1.71358 0.145244 0)
(1.73959 0.129984 0)
(1.76542 0.110916 0)
(1.79069 0.0883505 0)
(1.81478 0.0629241 0)
(1.83668 0.0358477 0)
(1.85547 0.00830197 0)
(1.8704 -0.0186095 0)
(1.88093 -0.0439359 0)
(1.88678 -0.0669496 0)
(1.88779 -0.087101 0)
(1.88377 -0.103782 0)
(1.87441 -0.116279 0)
(1.85997 -0.123999 0)
(1.84101 -0.127436 0)
(1.81842 -0.127339 0)
(1.79334 -0.124577 0)
(1.76693 -0.120131 0)
(1.74031 -0.11491 0)
(1.71435 -0.109512 0)
(1.68948 -0.104158 0)
(1.666 -0.0988128 0)
(1.64406 -0.0932884 0)
(1.62376 -0.0873115 0)
(1.60514 -0.0805795 0)
(1.58827 -0.072807 0)
(1.57322 -0.0637611 0)
(1.56012 -0.0532862 0)
(1.54907 -0.0413268 0)
(1.54023 -0.0279457 0)
(1.5337 -0.0133389 0)
(1.52959 0.00219953 0)
(1.52796 0.0183219 0)
(1.52885 0.0346298 0)
(1.53224 0.0507006 0)
(1.88912 0.195087 0)
(1.92931 0.161088 0)
(1.96797 0.121168 0)
(2.00425 0.0763748 0)
(2.0365 0.0290306 0)
(2.0632 -0.0184198 0)
(2.08325 -0.063701 0)
(2.09581 -0.104711 0)
(2.09974 -0.140147 0)
(2.09887 -0.169259 0)
(2.08832 -0.192027 0)
(2.06874 -0.205723 0)
(2.04021 -0.209423 0)
(2.00322 -0.204307 0)
(1.95962 -0.192304 0)
(1.91166 -0.176112 0)
(1.86182 -0.158874 0)
(1.81258 -0.143316 0)
(1.76518 -0.130761 0)
(1.72054 -0.121471 0)
(1.67925 -0.114919 0)
(1.6416 -0.110024 0)
(1.60768 -0.105428 0)
(1.57745 -0.0998095 0)
(1.5509 -0.0920851 0)
(1.52802 -0.0814678 0)
(1.50889 -0.0674813 0)
(1.49357 -0.0500919 0)
(1.48211 -0.0297681 0)
(1.47447 -0.00712251 0)
(1.47073 0.0171599 0)
(1.47091 0.0423589 0)
(1.47499 0.0677064 0)
(1.48291 0.092441 0)
(1.49454 0.115848 0)
(1.5097 0.13726 0)
(1.52817 0.156056 0)
(1.54969 0.171681 0)
(1.57395 0.183656 0)
(1.60066 0.191574 0)
(1.62946 0.195097 0)
(1.66 0.193977 0)
(1.69187 0.188073 0)
(1.72466 0.177341 0)
(1.7579 0.161814 0)
(1.79116 0.141585 0)
(1.82406 0.116825 0)
(1.85612 0.0879096 0)
(1.88643 0.0557962 0)
(1.91355 0.0221809 0)
(1.9363 -0.0114185 0)
(1.95369 -0.043526 0)
(1.96528 -0.0729169 0)
(1.9699 -0.0990698 0)
(1.96944 -0.120985 0)
(1.96178 -0.137994 0)
(1.9458 -0.148151 0)
(1.92296 -0.151734 0)
(1.89386 -0.14981 0)
(1.86012 -0.143645 0)
(1.82366 -0.134927 0)
(1.78647 -0.125441 0)
(1.75018 -0.116522 0)
(1.71558 -0.108732 0)
(1.68322 -0.102133 0)
(1.65334 -0.0964434 0)
(1.62598 -0.0911573 0)
(1.60111 -0.0856706 0)
(1.57865 -0.0793927 0)
(1.55856 -0.0718159 0)
(1.54084 -0.0625547 0)
(1.52558 -0.0513733 0)
(1.51289 -0.0382158 0)
(1.50291 -0.0232229 0)
(1.49576 -0.00671101 0)
(1.49158 0.0109275 0)
(1.49045 0.0292628 0)
(1.49243 0.0478009 0)
(1.49752 0.0660109 0)
(1.50565 0.0833569 0)
(1.51671 0.0993156 0)
(1.53057 0.113398 0)
(1.54703 0.125171 0)
(1.56586 0.134256 0)
(1.58681 0.140341 0)
(1.60957 0.143171 0)
(1.63384 0.142545 0)
(1.65928 0.138317 0)
(1.68557 0.130398 0)
(1.71238 0.118771 0)
(1.73939 0.103509 0)
(1.76617 0.0848231 0)
(1.79205 0.0632567 0)
(1.81591 0.0398987 0)
(1.83677 0.0158263 0)
(1.85377 -0.00790972 0)
(1.86626 -0.0303812 0)
(1.87387 -0.0508774 0)
(1.87645 -0.0688424 0)
(1.87383 -0.0838796 0)
(1.86555 -0.0953104 0)
(1.85186 -0.102306 0)
(1.83335 -0.105297 0)
(1.81108 -0.105011 0)
(1.78625 -0.10231 0)
(1.76007 -0.0981636 0)
(1.73377 -0.0934917 0)
(1.70817 -0.0889009 0)
(1.6837 -0.084631 0)
(1.6606 -0.0806692 0)
(1.63899 -0.0768517 0)
(1.61891 -0.0729203 0)
(1.60037 -0.0685708 0)
(1.58338 -0.0635009 0)
(1.56796 -0.0574489 0)
(1.55421 -0.0502163 0)
(1.54224 -0.0416793 0)
(1.53219 -0.0317972 0)
(1.52421 -0.0206271 0)
(1.51844 -0.00833607 0)
(1.515 0.00479557 0)
(1.51396 0.0184458 0)
(1.51539 0.0322608 0)
(1.51929 0.0458561 0)
(1.89541 0.154086 0)
(1.93637 0.12128 0)
(1.97587 0.0833263 0)
(2.01249 0.0420199 0)
(2.04441 -0.000245449 0)
(2.06999 -0.0412746 0)
(2.08818 -0.0790602 0)
(2.09785 -0.112424 0)
(2.09925 -0.140411 0)
(2.09504 -0.161926 0)
(2.07802 -0.17516 0)
(2.05119 -0.178582 0)
(2.01526 -0.173375 0)
(1.97182 -0.161131 0)
(1.9235 -0.144271 0)
(1.87304 -0.125889 0)
(1.82319 -0.108972 0)
(1.77525 -0.0952522 0)
(1.73011 -0.0854634 0)
(1.6883 -0.0795214 0)
(1.65009 -0.0766303 0)
(1.61554 -0.0754782 0)
(1.5846 -0.0745776 0)
(1.55716 -0.0725754 0)
(1.53313 -0.0684334 0)
(1.51253 -0.0614491 0)
(1.49544 -0.0511865 0)
(1.482 -0.0375495 0)
(1.47228 -0.0209857 0)
(1.46625 -0.00213987 0)
(1.46395 0.018327 0)
(1.46538 0.0397148 0)
(1.47052 0.0612642 0)
(1.47936 0.0822602 0)
(1.49181 0.102055 0)
(1.50772 0.120045 0)
(1.52689 0.13567 0)
(1.54906 0.148418 0)
(1.57393 0.157828 0)
(1.60121 0.163497 0)
(1.63057 0.165108 0)
(1.66166 0.16245 0)
(1.69409 0.155417 0)
(1.72745 0.143988 0)
(1.7613 0.128184 0)
(1.79527 0.10807 0)
(1.82889 0.0838793 0)
(1.86128 0.0564163 0)
(1.89087 0.0272248 0)
(1.91638 -0.0022306 0)
(1.93658 -0.0305096 0)
(1.95068 -0.0565433 0)
(1.9579 -0.0796767 0)
(1.95892 -0.0991051 0)
(1.95217 -0.114299 0)
(1.93727 -0.123167 0)
(1.91485 -0.125582 0)
(1.88603 -0.122804 0)
(1.85248 -0.116106 0)
(1.81619 -0.107099 0)
(1.77933 -0.0976077 0)
(1.74354 -0.0889899 0)
(1.70962 -0.0818761 0)
(1.67805 -0.0764031 0)
(1.64902 -0.0723434 0)
(1.62253 -0.069217 0)
(1.59844 -0.0664118 0)
(1.57661 -0.0632965 0)
(1.55693 -0.059306 0)
(1.53934 -0.0539924 0)
(1.52385 -0.0470415 0)
(1.51056 -0.0382753 0)
(1.49962 -0.0276668 0)
(1.49118 -0.0153599 0)
(1.4854 -0.00166394 0)
(1.48242 0.0130414 0)
(1.48234 0.0283691 0)
(1.48523 0.0438677 0)
(1.4911 0.0590493 0)
(1.49993 0.0734307 0)
(1.51165 0.0865415 0)
(1.52611 0.0979398 0)
(1.54315 0.107229 0)
(1.56256 0.114064 0)
(1.5841 0.118165 0)
(1.60749 0.11931 0)
(1.6324 0.117322 0)
(1.65852 0.112054 0)
(1.68553 0.103412 0)
(1.71309 0.0913893 0)
(1.74073 0.0761525 0)
(1.76764 0.0582299 0)
(1.7926 0.0385963 0)
(1.8146 0.0181858 0)
(1.83269 -0.00204252 0)
(1.84614 -0.0212252 0)
(1.85457 -0.0387069 0)
(1.85791 -0.0539988 0)
(1.85596 -0.0667965 0)
(1.84824 -0.0763336 0)
(1.83501 -0.0819432 0)
(1.81695 -0.0840294 0)
(1.7952 -0.0832305 0)
(1.77108 -0.0803702 0)
(1.74584 -0.0763922 0)
(1.72073 -0.0721716 0)
(1.69644 -0.0682504 0)
(1.67333 -0.0648476 0)
(1.6516 -0.0619677 0)
(1.63128 -0.0594787 0)
(1.61236 -0.0571481 0)
(1.59479 -0.0546851 0)
(1.57853 -0.0517882 0)
(1.56358 -0.0481836 0)
(1.54998 -0.043652 0)
(1.53781 -0.0380402 0)
(1.52722 -0.0312613 0)
(1.51836 -0.0232954 0)
(1.51143 -0.0141982 0)
(1.50657 -0.00411835 0)
(1.50394 0.00669265 0)
(1.50361 0.0179422 0)
(1.50566 0.0293213 0)
(1.51012 0.0404857 0)
(1.89758 0.112197 0)
(1.93932 0.0806237 0)
(1.97922 0.044992 0)
(2.01511 0.00777372 0)
(2.04509 -0.0285799 0)
(2.06772 -0.0620939 0)
(2.08149 -0.0916205 0)
(2.08668 -0.116331 0)
(2.08279 -0.135911 0)
(2.0672 -0.147559 0)
(2.04094 -0.14938 0)
(2.0052 -0.14302 0)
(1.96196 -0.130154 0)
(1.91395 -0.112795 0)
(1.86426 -0.093773 0)
(1.81573 -0.0759566 0)
(1.76955 -0.0611268 0)
(1.7264 -0.0503126 0)
(1.68658 -0.0438709 0)
(1.65014 -0.0414859 0)
(1.61706 -0.0421837 0)
(1.58721 -0.0445478 0)
(1.56046 -0.0470417 0)
(1.53667 -0.0483262 0)
(1.5158 -0.0474346 0)
(1.4979 -0.0437737 0)
(1.48313 -0.0369905 0)
(1.47171 -0.0269313 0)
(1.46384 -0.0139627 0)
(1.45954 0.00121799 0)
(1.45881 0.0180246 0)
(1.4616 0.0358047 0)
(1.46788 0.0537447 0)
(1.47769 0.0711622 0)
(1.49099 0.0874828 0)
(1.50763 0.102163 0)
(1.52742 0.114697 0)
(1.55009 0.124608 0)
(1.57535 0.131459 0)
(1.60291 0.134874 0)
(1.63246 0.134568 0)
(1.66372 0.130365 0)
(1.69637 0.122199 0)
(1.73004 0.11007 0)
(1.76432 0.0939633 0)
(1.79866 0.0739766 0)
(1.83203 0.0508184 0)
(1.86273 0.0259335 0)
(1.88928 0.0006688 0)
(1.91038 -0.0235944 0)
(1.92518 -0.0457088 0)
(1.93338 -0.0649023 0)
(1.93475 -0.0809454 0)
(1.9282 -0.0932474 0)
(1.91337 -0.0998413 0)
(1.89082 -0.100744 0)
(1.862 -0.0968181 0)
(1.8289 -0.0893576 0)
(1.79364 -0.0800266 0)
(1.75848 -0.0706021 0)
(1.72476 -0.062296 0)
(1.69317 -0.0557216 0)
(1.66404 -0.0510602 0)
(1.63743 -0.048166 0)
(1.61323 -0.0466316 0)
(1.59126 -0.0458769 0)
(1.57129 -0.0452599 0)
(1.55314 -0.0441741 0)
(1.53671 -0.042119 0)
(1.52196 -0.0387294 0)
(1.50896 -0.0337716 0)
(1.49788 -0.0271302 0)
(1.48887 -0.018813 0)
(1.48215 -0.00897658 0)
(1.4779 0.00207086 0)
(1.47627 0.0139865 0)
(1.47735 0.0264599 0)
(1.48123 0.0390557 0)
(1.48794 0.051303 0)
(1.49751 0.0627927 0)
(1.50984 0.0731151 0)
(1.52484 0.0818698 0)
(1.54236 0.0886921 0)
(1.56222 0.0932717 0)
(1.58423 0.0953734 0)
(1.60811 0.0948337 0)
(1.63355 0.0914976 0)
(1.66019 0.085192 0)
(1.68764 0.0758155 0)
(1.71532 0.063534 0)
(1.7422 0.0489721 0)
(1.76706 0.0329503 0)
(1.78883 0.0162723 0)
(1.80655 -0.000216297 0)
(1.81955 -0.0157468 0)
(1.82754 -0.0297727 0)
(1.83052 -0.0420037 0)
(1.82813 -0.0521961 0)
(1.82008 -0.0593234 0)
(1.80678 -0.0630892 0)
(1.78905 -0.0639536 0)
(1.76814 -0.0624905 0)
(1.74536 -0.0594589 0)
(1.72201 -0.0557214 0)
(1.69918 -0.0520119 0)
(1.67733 -0.048745 0)
(1.65675 -0.0460935 0)
(1.6375 -0.0440749 0)
(1.61957 -0.0425898 0)
(1.60286 -0.0414418 0)
(1.58727 -0.0403724 0)
(1.5727 -0.039102 0)
(1.55912 -0.0373669 0)
(1.54653 -0.0349459 0)
(1.53499 -0.0316766 0)
(1.52463 -0.0274542 0)
(1.51562 -0.0222314 0)
(1.50813 -0.0160105 0)
(1.50237 -0.00884102 0)
(1.49852 -0.000854469 0)
(1.49677 0.0077253 0)
(1.49725 0.0166867 0)
(1.49999 0.0257474 0)
(1.50508 0.0345218 0)
(1.89873 0.0699575 0)
(1.94032 0.0394771 0)
(1.97773 0.00729849 0)
(2.00897 -0.0240775 0)
(2.0321 -0.0527836 0)
(2.0464 -0.0775474 0)
(2.05183 -0.0977101 0)
(2.04666 -0.113241 0)
(2.02966 -0.121285 0)
(2.00155 -0.120898 0)
(1.96422 -0.113099 0)
(1.92051 -0.0995075 0)
(1.8735 -0.0821992 0)
(1.82647 -0.0637245 0)
(1.78161 -0.0462491 0)
(1.74 -0.031272 0)
(1.70205 -0.0198177 0)
(1.66765 -0.0124864 0)
(1.63643 -0.00940146 0)
(1.60798 -0.0101699 0)
(1.58202 -0.0138306 0)
(1.5584 -0.0189689 0)
(1.53695 -0.024083 0)
(1.51761 -0.0279121 0)
(1.50041 -0.0296089 0)
(1.48553 -0.0287149 0)
(1.47323 -0.0249937 0)
(1.46381 -0.018272 0)
(1.45764 -0.00874484 0)
(1.45504 0.00293465 0)
(1.45541 0.0162896 0)
(1.45943 0.0306627 0)
(1.46682 0.0451577 0)
(1.47756 0.0591279 0)
(1.49163 0.0720815 0)
(1.5089 0.0835715 0)
(1.52914 0.0931813 0)
(1.5521 0.100485 0)
(1.57749 0.105042 0)
(1.60506 0.10645 0)
(1.63459 0.10439 0)
(1.6659 0.0986538 0)
(1.69875 0.0891674 0)
(1.73266 0.0760058 0)
(1.76672 0.0594505 0)
(1.79942 0.0402906 0)
(1.82924 0.019732 0)
(1.85461 -0.000954562 0)
(1.87417 -0.0205485 0)
(1.88726 -0.0381818 0)
(1.89371 -0.0533423 0)
(1.89303 -0.0659357 0)
(1.88428 -0.0745912 0)
(1.86767 -0.0781212 0)
(1.8441 -0.076906 0)
(1.81533 -0.0717216 0)
(1.78353 -0.0637731 0)
(1.751 -0.0546608 0)
(1.7196 -0.045852 0)
(1.69018 -0.0382482 0)
(1.66317 -0.0323454 0)
(1.63864 -0.0283386 0)
(1.61647 -0.0261924 0)
(1.5964 -0.0256412 0)
(1.57817 -0.0262058 0)
(1.5615 -0.0272948 0)
(1.54618 -0.028307 0)
(1.53206 -0.0287153 0)
(1.5191 -0.0281197 0)
(1.50735 -0.0262565 0)
(1.49696 -0.0229766 0)
(1.48812 -0.0182152 0)
(1.48109 -0.0119888 0)
(1.47612 -0.00441889 0)
(1.47345 0.00422221 0)
(1.47314 0.0136183 0)
(1.47526 0.0234176 0)
(1.48026 0.0332477 0)
(1.48787 0.0427436 0)
(1.49818 0.0515252 0)
(1.51112 0.0592118 0)
(1.52661 0.0654386 0)
(1.54455 0.0698749 0)
(1.5648 0.072235 0)
(1.58723 0.0723095 0)
(1.61152 0.0699976 0)
(1.63717 0.0651969 0)
(1.66355 0.057858 0)
(1.68987 0.0481969 0)
(1.71502 0.0368079 0)
(1.7379 0.0243737 0)
(1.75743 0.0115611 0)