/*--------------------------------*- C++ -*----------------------------------*\
| =========                 |                                                 |
| \\      /  F ield         | OpenFOAM: The Open Source CFD Toolbox           |
|  \\    /   O peration     | Version:  2206                                  |
|   \\  /    A nd           | Website:  www.openfoam.com                      |
|    \\/     M anipulation  |                                                 |
\*---------------------------------------------------------------------------*/
FoamFile
{
    version     2.0;
    format      ascii;
    arch        "LSB;label=32;scalar=64";
    class       volVectorField;
    location    "18.9";
    object      U;
}
// * * * * * * * * * * * * * * * * * * * * * * * * * * * * * * * * * * * * * //

dimensions      [0 1 -1 0 0 0 0];

internalField   nonuniform List<vector> 
1848
(
(1.47765 0.000552319 0)
(1.47788 0.00164575 0)
(1.47842 0.00269877 0)
(1.47923 0.00368235 0)
(1.48026 0.00457936 0)
(1.48149 0.00538506 0)
(1.48287 0.00610202 0)
(1.4844 0.00673536 0)
(1.48605 0.0072912 0)
(1.4878 0.00777666 0)
(1.48964 0.0081996 0)
(1.49155 0.00856786 0)
(1.49353 0.0088887 0)
(1.49556 0.0091685 0)
(1.49764 0.00941275 0)
(1.49977 0.00962607 0)
(1.50193 0.00981231 0)
(1.50413 0.00997467 0)
(1.50635 0.0101158 0)
(1.50861 0.0102379 0)
(1.51088 0.0103425 0)
(1.51317 0.0104311 0)
(1.51548 0.0105046 0)
(1.5178 0.0105637 0)
(1.52014 0.0106089 0)
(1.52248 0.0106405 0)
(1.52482 0.0106587 0)
(1.52717 0.0106634 0)
(1.52952 0.0106546 0)
(1.53187 0.0106322 0)
(1.53421 0.010596 0)
(1.53654 0.0105458 0)
(1.53886 0.0104814 0)
(1.54116 0.0104026 0)
(1.54345 0.0103095 0)
(1.54571 0.0102022 0)
(1.54795 0.0100809 0)
(1.55016 0.00994612 0)
(1.55233 0.00979821 0)
(1.55448 0.00963773 0)
(1.55658 0.00946536 0)
(1.55865 0.0092818 0)
(1.56067 0.00908787 0)
(1.56265 0.00888437 0)
(1.56458 0.00867218 0)
(1.56646 0.00845204 0)
(1.56829 0.00822489 0)
(1.57007 0.00799146 0)
(1.5718 0.00775268 0)
(1.57348 0.00750916 0)
(1.5751 0.00726165 0)
(1.57666 0.00701032 0)
(1.57817 0.00675529 0)
(1.57963 0.00649632 0)
(1.58103 0.00623291 0)
(1.58238 0.0059645 0)
(1.58366 0.00568985 0)
(1.58489 0.00540777 0)
(1.58607 0.00511628 0)
(1.58718 0.00481317 0)
(1.58823 0.00449578 0)
(1.58921 0.0041604 0)
(1.59013 0.00380358 0)
(1.59098 0.00341962 0)
(1.59175 0.00300427 0)
(1.59244 0.00254909 0)
(1.59305 0.00204925 0)
(1.59356 0.00149434 0)
(1.59396 0.000876978 0)
(1.59424 0.00018235 0)
(1.59439 -0.000602452 0)
(1.59439 -0.00149448 0)
(1.59423 -0.00251307 0)
(1.59387 -0.00368075 0)
(1.5933 -0.00502421 0)
(1.59247 -0.00657536 0)
(1.59136 -0.0083726 0)
(1.58993 -0.0104622 0)
(1.58811 -0.0129 0)
(1.58586 -0.0157533 0)
(1.5831 -0.0191045 0)
(1.57976 -0.0230541 0)
(1.57574 -0.0277261 0)
(1.57092 -0.0332737 0)
(1.56517 -0.0398873 0)
(1.55834 -0.0478054 0)
(1.55025 -0.0573281 0)
(1.54067 -0.0688364 0)
(1.52936 -0.0828166 0)
(1.516 -0.0998953 0)
(1.50024 -0.120885 0)
(1.48166 -0.146849 0)
(1.45974 -0.179191 0)
(1.43386 -0.2198 0)
(1.40326 -0.271205 0)
(1.36687 -0.337061 0)
(1.32326 -0.42208 0)
(1.26915 -0.534819 0)
(1.20192 -0.683532 0)
(1.09323 -0.902735 0)
(0.984675 -1.1977 0)
(0.335433 -2.00145 0)
(1.47765 0.000416049 0)
(1.47786 0.00124058 0)
(1.47834 0.00203776 0)
(1.47909 0.00278755 0)
(1.48005 0.00347717 0)
(1.48119 0.00410162 0)
(1.4825 0.00466098 0)
(1.48396 0.00515781 0)
(1.48554 0.00559598 0)
(1.48723 0.0059803 0)
(1.48901 0.00631627 0)
(1.49088 0.00660951 0)
(1.49281 0.00686539 0)
(1.49481 0.00708875 0)
(1.49686 0.00728382 0)
(1.49896 0.00745424 0)
(1.50109 0.00760307 0)
(1.50327 0.00773285 0)
(1.50547 0.0078457 0)
(1.5077 0.00794333 0)
(1.50996 0.00802709 0)
(1.51224 0.00809803 0)
(1.51453 0.00815697 0)
(1.51684 0.00820449 0)
(1.51916 0.008241 0)
(1.52148 0.00826675 0)
(1.52382 0.00828186 0)
(1.52615 0.00828641 0)
(1.52849 0.0082803 0)
(1.53082 0.00826351 0)
(1.53314 0.00823592 0)
(1.53546 0.00819737 0)
(1.53776 0.00814774 0)
(1.54005 0.00808695 0)
(1.54232 0.00801507 0)
(1.54457 0.00793217 0)
(1.54679 0.00783853 0)
(1.54899 0.00773434 0)
(1.55115 0.00762004 0)
(1.55328 0.00749596 0)
(1.55537 0.00736271 0)
(1.55743 0.00722072 0)
(1.55944 0.00707069 0)
(1.5614 0.00691317 0)
(1.56333 0.00674886 0)
(1.5652 0.0065783 0)
(1.56702 0.00640225 0)
(1.5688 0.00622116 0)
(1.57052 0.00603582 0)
(1.57219 0.00584651 0)
(1.5738 0.00565393 0)
(1.57537 0.00545795 0)
(1.57687 0.00525902 0)
(1.57832 0.00505643 0)
(1.57972 0.00485037 0)
(1.58106 0.00463958 0)
(1.58233 0.00442388 0)
(1.58356 0.00420141 0)
(1.58472 0.00397146 0)
(1.58582 0.00373136 0)
(1.58685 0.00347985 0)
(1.58782 0.00321301 0)
(1.58871 0.00292904 0)
(1.58953 0.00262226 0)
(1.59027 0.00229015 0)
(1.59092 0.00192476 0)
(1.59148 0.00152337 0)
(1.59193 0.00107429 0)
(1.59226 0.000579303 0)
(1.59247 1.87152e-05 0)
(1.59253 -0.000614592 0)
(1.59242 -0.00133478 0)
(1.59212 -0.00215837 0)
(1.59161 -0.00310395 0)
(1.59086 -0.00419333 0)
(1.58982 -0.00545275 0)
(1.58846 -0.00691396 0)
(1.58673 -0.00861529 0)
(1.58456 -0.0106032 0)
(1.58188 -0.0129339 0)
(1.57861 -0.0156764 0)
(1.57464 -0.0189152 0)
(1.56987 -0.0227551 0)
(1.56413 -0.0273259 0)
(1.55727 -0.0327903 0)
(1.54906 -0.0393525 0)
(1.53926 -0.0472714 0)
(1.52756 -0.0568771 0)
(1.51358 -0.0685932 0)
(1.49685 -0.0829673 0)
(1.47681 -0.100712 0)
(1.45274 -0.122762 0)
(1.42373 -0.150346 0)
(1.38861 -0.185097 0)
(1.34583 -0.229183 0)
(1.29325 -0.28552 0)
(1.22777 -0.357901 0)
(1.14469 -0.451602 0)
(1.03632 -0.572664 0)
(0.89091 -0.729965 0)
(0.686448 -0.923912 0)
(0.337777 -1.08785 0)
(1.47764 0.000290413 0)
(1.47784 0.000866359 0)
(1.4783 0.00142465 0)
(1.479 0.0019522 0)
(1.4799 0.00244022 0)
(1.48099 0.00288463 0)
(1.48225 0.00328466 0)
(1.48365 0.00364147 0)
(1.48518 0.00395735 0)
(1.48682 0.00423538 0)
(1.48857 0.00447911 0)
(1.4904 0.00469229 0)
(1.4923 0.00487857 0)
(1.49427 0.00504129 0)
(1.49629 0.00518341 0)
(1.49837 0.0053075 0)
(1.50049 0.00541575 0)
(1.50264 0.00551001 0)
(1.50483 0.0055918 0)
(1.50705 0.00566238 0)
(1.50929 0.00572275 0)
(1.51156 0.00577371 0)
(1.51384 0.00581586 0)
(1.51613 0.00584967 0)
(1.51844 0.00587545 0)
(1.52076 0.00589344 0)
(1.52308 0.00590373 0)
(1.5254 0.00590646 0)
(1.52773 0.00590144 0)
(1.53005 0.00588883 0)
(1.53236 0.00586852 0)
(1.53467 0.00584046 0)
(1.53696 0.00580454 0)
(1.53924 0.00576077 0)
(1.5415 0.00570915 0)
(1.54374 0.00564982 0)
(1.54595 0.00558287 0)
(1.54813 0.00550853 0)
(1.55029 0.00542701 0)
(1.5524 0.00533864 0)
(1.55449 0.00524373 0)
(1.55653 0.00514269 0)
(1.55854 0.00503588 0)
(1.5605 0.00492381 0)
(1.56241 0.0048068 0)
(1.56428 0.00468544 0)
(1.5661 0.00455997 0)
(1.56787 0.00443102 0)
(1.56958 0.00429876 0)
(1.57125 0.00416375 0)
(1.57286 0.00402604 0)
(1.57442 0.00388591 0)
(1.57592 0.00374326 0)
(1.57736 0.00359794 0)
(1.57875 0.00344971 0)
(1.58009 0.00329798 0)
(1.58136 0.00314225 0)
(1.58258 0.00298154 0)
(1.58373 0.00281484 0)
(1.58482 0.0026408 0)
(1.58584 0.00245762 0)
(1.58679 0.00226361 0)
(1.58767 0.0020558 0)
(1.58846 0.00183215 0)
(1.58918 0.00158808 0)
(1.5898 0.00132087 0)
(1.59032 0.0010242 0)
(1.59072 0.000694021 0)
(1.591 0.000325033 0)
(1.59115 -8.59553e-05 0)
(1.59113 -0.000553743 0)
(1.59094 -0.0010855 0)
(1.59054 -0.00169417 0)
(1.58992 -0.00239417 0)
(1.58902 -0.00320161 0)
(1.58782 -0.00413587 0)
(1.58626 -0.00522064 0)
(1.58429 -0.00648478 0)
(1.58183 -0.00796316 0)
(1.57882 -0.00969833 0)
(1.57514 -0.0117423 0)
(1.57068 -0.0141594 0)
(1.56531 -0.0170291 0)
(1.55884 -0.0204506 0)
(1.55107 -0.0245483 0)
(1.54175 -0.0294793 0)
(1.53057 -0.0354431 0)
(1.51714 -0.0426949 0)
(1.50099 -0.0515629 0)
(1.48151 -0.0624723 0)
(1.45796 -0.0759762 0)
(1.42938 -0.0927966 0)
(1.39456 -0.113877 0)
(1.35192 -0.14045 0)
(1.29939 -0.174111 0)
(1.2342 -0.216882 0)
(1.15261 -0.271253 0)
(1.04945 -0.340104 0)
(0.917095 -0.426158 0)
(0.744953 -0.531167 0)
(0.511945 -0.652874 0)
(0.187742 -0.803567 0)
(1.47764 0.000171631 0)
(1.47783 0.000512171 0)
(1.47827 0.000842813 0)
(1.47894 0.00115615 0)
(1.47981 0.00144707 0)
(1.48087 0.00171296 0)
(1.48209 0.00195311 0)
(1.48345 0.00216793 0)
(1.48495 0.00235861 0)
(1.48657 0.00252683 0)
(1.48828 0.00267457 0)
(1.49009 0.00280398 0)
(1.49197 0.00291716 0)
(1.49392 0.00301607 0)
(1.49593 0.00310245 0)
(1.49799 0.00317787 0)
(1.50009 0.00324364 0)
(1.50224 0.00330087 0)
(1.50442 0.00335051 0)
(1.50662 0.00339332 0)
(1.50886 0.00342993 0)
(1.51111 0.00346083 0)
(1.51339 0.00348639 0)
(1.51568 0.00350691 0)
(1.51798 0.00352258 0)
(1.52029 0.00353357 0)
(1.5226 0.00353993 0)
(1.52492 0.00354181 0)
(1.52724 0.00353892 0)
(1.52955 0.00353158 0)
(1.53186 0.00351958 0)
(1.53415 0.00350302 0)
(1.53644 0.00348174 0)
(1.53871 0.00345583 0)
(1.54096 0.00342518 0)
(1.54319 0.00338999 0)
(1.5454 0.00335017 0)
(1.54757 0.00330602 0)
(1.54972 0.00325747 0)
(1.55183 0.0032049 0)
(1.55391 0.0031483 0)
(1.55595 0.00308812 0)
(1.55795 0.00302432 0)
(1.5599 0.00295747 0)
(1.56181 0.00288744 0)
(1.56367 0.00281493 0)
(1.56549 0.00273967 0)
(1.56725 0.00266249 0)
(1.56897 0.00258295 0)
(1.57063 0.00250195 0)
(1.57224 0.00241887 0)
(1.57379 0.00233451 0)
(1.5753 0.00224816 0)
(1.57674 0.00216033 0)
(1.57813 0.00207029 0)
(1.57945 0.0019782 0)
(1.58072 0.00188322 0)
(1.58193 0.00178526 0)
(1.58308 0.00168307 0)
(1.58416 0.00157658 0)
(1.58517 0.00146366 0)
(1.58611 0.00134453 0)
(1.58698 0.00121577 0)
(1.58776 0.0010781 0)
(1.58846 0.000926094 0)
(1.58905 0.000761746 0)
(1.58955 0.000575248 0)
(1.58992 0.000371966 0)
(1.59017 0.000136184 0)
(1.59026 -0.000115158 0)
(1.5902 -0.000408274 0)
(1.58995 -0.000740796 0)
(1.58949 -0.00112088 0)
(1.58877 -0.00155812 0)
(1.58778 -0.00206264 0)
(1.58646 -0.00264651 0)
(1.58477 -0.00332459 0)
(1.58263 -0.0041149 0)
(1.57998 -0.00503928 0)
(1.57673 -0.00612427 0)
(1.57276 -0.00740251 0)
(1.56796 -0.00891424 0)
(1.56216 -0.0107094 0)
(1.55518 -0.0128505 0)
(1.54679 -0.015416 0)
(1.53669 -0.0185048 0)
(1.52453 -0.0222433 0)
(1.50988 -0.0267929 0)
(1.49218 -0.0323616 0)
(1.47075 -0.0392187 0)
(1.44471 -0.0477136 0)
(1.41295 -0.0583008 0)
(1.37403 -0.0715693 0)
(1.32613 -0.0882768 0)
(1.26689 -0.109379 0)
(1.19326 -0.136046 0)
(1.10137 -0.169615 0)
(0.986329 -0.211399 0)
(0.842078 -0.26222 0)
(0.661982 -0.32083 0)
(0.438509 -0.384346 0)
(0.166891 -0.403887 0)
(1.47825 0.000278661 0)
(1.47891 0.00038252 0)
(1.47977 0.00047915 0)
(1.48081 0.000567669 0)
(1.48201 0.000647784 0)
(1.48336 0.000719595 0)
(1.48484 0.000783456 0)
(1.48644 0.00083989 0)
(1.48814 0.000889535 0)
(1.48994 0.000933077 0)
(1.49181 0.000971198 0)
(1.49375 0.00100454 0)
(1.49575 0.00103367 0)
(1.4978 0.0010591 0)
(1.4999 0.00108127 0)
(1.50204 0.00110055 0)
(1.50421 0.00111725 0)
(1.50641 0.00113162 0)
(1.50864 0.00114388 0)
(1.5109 0.00115418 0)
(1.51317 0.00116266 0)
(1.51545 0.00116942 0)
(1.51775 0.00117453 0)
(1.52005 0.00117806 0)
(1.52236 0.00118002 0)
(1.52468 0.00118049 0)
(1.52699 0.00117933 0)
(1.5293 0.00117671 0)
(1.53161 0.00117253 0)
(1.5339 0.00116685 0)
(1.53618 0.00115961 0)
(1.53844 0.00115087 0)
(1.5407 0.00114052 0)
(1.54292 0.00112874 0)
(1.54513 0.00111535 0)
(1.54729 0.00110062 0)
(1.54944 0.00108433 0)
(1.55155 0.00106682 0)
(1.55363 0.00104784 0)
(1.55566 0.00102776 0)
(1.55766 0.00100636 0)
(1.5596 0.000983978 0)
(1.56152 0.000960429 0)
(1.56337 0.000936069 0)
(1.5652 0.000910641 0)
(1.56695 0.000884616 0)
(1.56867 0.000857535 0)
(1.57032 0.000830112 0)
(1.57194 0.000801535 0)
(1.57348 0.000772831 0)
(1.57499 0.000742786 0)
(1.57642 0.000712667 0)
(1.57782 0.000680987 0)
(1.57913 0.000649015 0)
(1.58041 0.000615257 0)
(1.58161 0.000580717 0)
(1.58276 0.000544017 0)
(1.58382 0.000505891 0)
(1.58485 0.000464779 0)
(1.58576 0.000421703 0)
(1.58664 0.000373932 0)
(1.58739 0.000324161 0)
(1.58811 0.000266359 0)
(1.58867 0.000207758 0)
(1.58918 0.000134379 0)
(1.58951 6.5196e-05 0)
(1.58977 -4.09893e-05 0)
(1.58982 -0.000122601 0)
(1.58973 -0.00022987 0)
(1.58945 -0.000353788 0)
(1.58894 -0.000496392 0)
(1.58819 -0.000660708 0)
(1.58714 -0.00084999 0)
(1.58576 -0.00106846 0)
(1.58399 -0.00132142 0)
(1.58177 -0.00161526 0)
(1.57902 -0.00195766 0)
(1.57564 -0.00235804 0)
(1.57153 -0.00282785 0)
(1.56655 -0.0033813 0)
(1.56053 -0.00403594 0)
(1.55328 -0.00481365 0)
(1.54455 -0.0057418 0)
(1.53405 -0.00685502 0)
(1.52138 -0.00819731 0)
(1.50609 -0.00982495 0)
(1.48759 -0.0118104 0)
(1.46514 -0.0142471 0)
(1.43781 -0.0172564 0)
(1.40438 -0.0209951 0)
(1.36335 -0.0256654 0)
(1.31276 -0.0315249 0)
(1.25011 -0.0388944 0)
(1.17229 -0.0481557 0)
(1.07542 -0.0597249 0)
(0.954912 -0.0739794 0)
(0.80553 -0.0910206 0)
(0.622658 -0.110489 0)
(0.400839 -0.129746 0)
(0.142375 -0.149208 0)
(1.46082 0.00792082 0)
(1.45128 0.0148469 0)
(1.43397 0.0174262 0)
(1.41113 0.0185005 0)
(1.387 0.019197 0)
(1.36294 0.019666 0)
(1.3388 0.0199403 0)
(1.3144 0.0200625 0)
(1.28977 0.0200893 0)
(1.26504 0.0200526 0)
(1.2403 0.0199663 0)
(1.21558 0.0198307 0)
(1.19091 0.0196425 0)
(1.16633 0.0194176 0)
(1.14187 0.019172 0)
(1.11755 0.0189109 0)
(1.09337 0.0186348 0)
(1.06935 0.0183434 0)
(1.0455 0.0180363 0)
(1.02185 0.0177151 0)
(0.998412 0.0173833 0)
(0.975199 0.0170427 0)
(0.952227 0.0166923 0)
(0.929508 0.0163339 0)
(0.907057 0.0159663 0)
(0.884888 0.0155906 0)
(0.863017 0.0152132 0)
(0.841468 0.014852 0)
(0.820001 0.0144788 0)
(0.799068 0.0140593 0)
(0.778526 0.0135971 0)
(0.758395 0.0131065 0)
(0.738738 0.0125938 0)
(0.719591 0.0120618 0)
(0.700973 0.0115136 0)
(0.682909 0.0109522 0)
(0.665419 0.0103801 0)
(0.648527 0.00979941 0)
(0.63225 0.00921207 0)
(0.616609 0.00862095 0)
(0.601613 0.00802907 0)
(0.587276 0.00743956 0)
(0.573601 0.0068567 0)
(0.560599 0.00627031 0)
(0.548284 0.00568907 0)
(0.536646 0.00513049 0)
(0.525666 0.00459823 0)
(0.515337 0.00409106 0)
(0.505644 0.00360814 0)
(0.496578 0.00314997 0)
(0.488125 0.00271526 0)
(0.480266 0.00230351 0)
(0.472987 0.00191514 0)
(0.466262 0.00155086 0)
(0.460073 0.00121043 0)
(0.454392 0.000893372 0)
(0.449205 0.000598185 0)
(0.444481 0.000323223 0)
(0.440212 7.17482e-05 0)
(0.436363 -0.000162327 0)
(0.432938 -0.000384652 0)
(0.429898 -0.000596957 0)
(0.427268 -0.000802091 0)
(0.424999 -0.00100252 0)
(0.423143 -0.00120014 0)
(0.421633 -0.00140135 0)
(0.420571 -0.00159789 0)
(0.419836 -0.00181921 0)
(0.419649 -0.00201723 0)
(0.419874 -0.00228931 0)
(0.420641 -0.00263892 0)
(0.422009 -0.00302604 0)
(0.424 -0.00341781 0)
(0.426693 -0.00383273 0)
(0.430123 -0.00429139 0)
(0.4344 -0.00482414 0)
(0.439617 -0.00535737 0)
(0.445887 -0.00596712 0)
(0.453341 -0.00666558 0)
(0.462134 -0.00747731 0)
(0.472458 -0.0084311 0)
(0.484526 -0.00952001 0)
(0.49858 -0.0107591 0)
(0.514893 -0.0121675 0)
(0.533776 -0.0137657 0)
(0.555572 -0.0155727 0)
(0.580662 -0.0176058 0)
(0.60947 -0.0198912 0)
(0.642481 -0.0224656 0)
(0.680261 -0.0253521 0)
(0.72341 -0.0285482 0)
(0.77259 -0.0320499 0)
(0.828173 -0.0359666 0)
(0.891387 -0.0403719 0)
(0.963079 -0.045307 0)
(1.04298 -0.0502396 0)
(1.13113 -0.0545402 0)
(1.22688 -0.0582369 0)
(1.32928 -0.0612396 0)
(1.43704 -0.0631418 0)
(1.54813 -0.063485 0)
(1.65978 -0.0619323 0)
(1.47989 0.0112657 0)
(1.48676 0.0207579 0)
(1.49459 0.0242298 0)
(1.49752 0.0260444 0)
(1.49889 0.0272127 0)
(1.49979 0.0282539 0)
(1.50013 0.0288019 0)
(1.49982 0.029297 0)
(1.4989 0.0296108 0)
(1.49746 0.0298398 0)
(1.49552 0.03004 0)
(1.49314 0.0302011 0)
(1.49034 0.0302831 0)
(1.48717 0.0303208 0)
(1.48365 0.0303416 0)
(1.47977 0.030348 0)
(1.47554 0.0303367 0)
(1.47098 0.0303063 0)
(1.4661 0.0302547 0)
(1.46091 0.0301795 0)
(1.45544 0.0300832 0)
(1.44967 0.0299686 0)
(1.44364 0.0298339 0)
(1.43734 0.0296782 0)
(1.43078 0.0295028 0)
(1.42399 0.029314 0)
(1.41697 0.0291145 0)
(1.40975 0.0289059 0)
(1.40236 0.0286517 0)
(1.3948 0.0283224 0)
(1.38708 0.0279336 0)
(1.37919 0.027502 0)
(1.37116 0.0270314 0)
(1.36301 0.0265216 0)
(1.35477 0.0259737 0)
(1.34644 0.0253894 0)
(1.33804 0.0247705 0)
(1.3296 0.0241182 0)
(1.32112 0.0234349 0)
(1.31264 0.0227245 0)
(1.30416 0.0219897 0)
(1.29571 0.0212338 0)
(1.28729 0.0204608 0)
(1.27893 0.0196731 0)
(1.27058 0.0188712 0)
(1.26232 0.0180624 0)
(1.25417 0.017251 0)
(1.24612 0.0164398 0)
(1.2382 0.0156337 0)
(1.2304 0.014826 0)
(1.22276 0.0140285 0)
(1.21526 0.0132435 0)
(1.20794 0.0124769 0)
(1.20078 0.0117283 0)
(1.19382 0.0110019 0)
(1.18703 0.0102949 0)
(1.18044 0.00961072 0)
(1.17404 0.00894453 0)
(1.16786 0.00829946 0)
(1.16186 0.00766848 0)
(1.15612 0.00705454 0)
(1.15056 0.00644726 0)
(1.14529 0.00584969 0)
(1.14022 0.005247 0)
(1.13546 0.00464337 0)
(1.13094 0.00401854 0)
(1.12676 0.00337792 0)
(1.12287 0.00269402 0)
(1.11937 0.00197409 0)
(1.11618 0.00119086 0)
(1.11344 0.0003512 0)
(1.1111 -0.000581661 0)
(1.10929 -0.00158801 0)
(1.10806 -0.00275119 0)
(1.10754 -0.00394068 0)
(1.10773 -0.00532866 0)
(1.10877 -0.0068952 0)
(1.11077 -0.00865659 0)
(1.11386 -0.010641 0)
(1.11818 -0.0128819 0)
(1.12389 -0.0154174 0)
(1.13119 -0.0182907 0)
(1.14027 -0.0215498 0)
(1.15137 -0.0252452 0)
(1.16476 -0.0294315 0)
(1.18074 -0.034166 0)
(1.19966 -0.0395171 0)
(1.22193 -0.0455714 0)
(1.248 -0.052452 0)
(1.27842 -0.0602569 0)
(1.31372 -0.0689723 0)
(1.35434 -0.0785345 0)
(1.40067 -0.0890051 0)
(1.45288 -0.100427 0)
(1.51208 -0.112879 0)
(1.57665 -0.125497 0)
(1.64905 -0.137246 0)
(1.72861 -0.14804 0)
(1.81501 -0.157441 0)
(1.90785 -0.164475 0)
(2.00589 -0.167988 0)
(2.10694 -0.167016 0)
(1.47847 0.00517293 0)
(1.48163 0.0113203 0)
(1.48608 0.0145195 0)
(1.49042 0.0168936 0)
(1.49394 0.018838 0)
(1.49724 0.0204923 0)
(1.50032 0.0218124 0)
(1.50328 0.0228858 0)
(1.50589 0.0237567 0)
(1.50845 0.0245233 0)
(1.51064 0.0251856 0)
(1.51314 0.0257635 0)
(1.51527 0.0262873 0)
(1.51721 0.0267637 0)
(1.51902 0.0271943 0)
(1.5207 0.0275852 0)
(1.52226 0.0279474 0)
(1.5237 0.0282704 0)
(1.52502 0.0285583 0)
(1.52622 0.0288144 0)
(1.52729 0.0290361 0)
(1.52824 0.0292263 0)
(1.52909 0.0293761 0)
(1.52982 0.0295352 0)
(1.53043 0.029636 0)
(1.53092 0.0297055 0)
(1.5313 0.0297647 0)
(1.53155 0.0298049 0)
(1.53169 0.0297815 0)
(1.53172 0.029712 0)
(1.53163 0.0295618 0)
(1.53142 0.0293527 0)
(1.53108 0.0290927 0)
(1.53061 0.0287831 0)
(1.53 0.0284245 0)
(1.52927 0.0280184 0)
(1.52841 0.0275671 0)
(1.52743 0.0270676 0)
(1.52632 0.0265221 0)
(1.5251 0.0259385 0)
(1.52376 0.025324 0)
(1.52231 0.0246819 0)
(1.52075 0.0240129 0)
(1.51909 0.0233225 0)
(1.51734 0.0226156 0)
(1.51549 0.0218933 0)
(1.51356 0.0211584 0)
(1.51155 0.0204163 0)
(1.50946 0.0196708 0)
(1.50731 0.0189211 0)
(1.5051 0.0181687 0)
(1.50285 0.0174184 0)
(1.50055 0.0166759 0)
(1.49823 0.0159442 0)
(1.49588 0.0152246 0)
(1.49351 0.0145169 0)
(1.49114 0.0138206 0)
(1.48877 0.0131339 0)
(1.48641 0.0124548 0)
(1.48406 0.0117821 0)
(1.48174 0.0111102 0)
(1.47946 0.010432 0)
(1.47723 0.00974363 0)
(1.47506 0.00903802 0)
(1.47296 0.00830797 0)
(1.47094 0.00754519 0)
(1.46903 0.00674144 0)
(1.46723 0.00589125 0)
(1.46555 0.00494664 0)
(1.46405 0.00391602 0)
(1.46273 0.00277003 0)
(1.46164 0.00151278 0)
(1.46076 8.95004e-05 0)
(1.46013 -0.00149583 0)
(1.45982 -0.00327181 0)
(1.4599 -0.00527175 0)
(1.46041 -0.00752875 0)
(1.46143 -0.0100831 0)
(1.46304 -0.0129813 0)
(1.46532 -0.0162754 0)
(1.4684 -0.0200249 0)
(1.47239 -0.0242947 0)
(1.47745 -0.0291563 0)
(1.48374 -0.0346863 0)
(1.49147 -0.0409726 0)
(1.50085 -0.0480998 0)
(1.51216 -0.056166 0)
(1.52565 -0.0652995 0)
(1.5417 -0.0756906 0)
(1.56056 -0.0874719 0)
(1.58253 -0.100596 0)
(1.60809 -0.114973 0)
(1.6379 -0.130649 0)
(1.6725 -0.147729 0)
(1.71365 -0.165934 0)
(1.75688 -0.184891 0)
(1.81213 -0.20427 0)
(1.87573 -0.223258 0)
(1.94771 -0.240605 0)
(2.02836 -0.254738 0)
(2.11693 -0.263722 0)
(2.21161 -0.265885 0)
(1.47801 0.00312093 0)
(1.47978 0.00857116 0)
(1.48287 0.0125369 0)
(1.48628 0.0154832 0)
(1.48933 0.0177355 0)
(1.49217 0.0195363 0)
(1.49498 0.0209539 0)
(1.49775 0.0221239 0)
(1.50047 0.0230914 0)
(1.50313 0.0238765 0)
(1.50571 0.0244626 0)
(1.50821 0.02495 0)
(1.51068 0.0254173 0)
(1.51314 0.0258591 0)
(1.51559 0.0262545 0)
(1.51803 0.0266022 0)
(1.52044 0.0269056 0)
(1.52282 0.027177 0)
(1.52518 0.0274177 0)
(1.52754 0.0276332 0)
(1.52987 0.0278218 0)
(1.53219 0.0279838 0)
(1.53448 0.0281178 0)
(1.53677 0.0282183 0)
(1.53903 0.0282916 0)
(1.54131 0.0283435 0)
(1.54351 0.0283721 0)
(1.54586 0.0283742 0)
(1.54818 0.0283412 0)
(1.55042 0.0282667 0)
(1.55261 0.0281475 0)
(1.55473 0.0279853 0)
(1.55679 0.0277804 0)
(1.55877 0.0275339 0)
(1.56068 0.0272469 0)
(1.56252 0.02692 0)
(1.56427 0.0265542 0)
(1.56595 0.0261511 0)
(1.56752 0.0257125 0)
(1.569 0.025234 0)
(1.57039 0.0247114 0)
(1.5717 0.0241605 0)
(1.57293 0.0236057 0)
(1.57407 0.0230348 0)
(1.57512 0.0224278 0)
(1.57609 0.0217994 0)
(1.57697 0.0211562 0)
(1.57777 0.0205045 0)
(1.57847 0.0198533 0)
(1.57909 0.0191935 0)
(1.57963 0.0185182 0)
(1.5801 0.0178331 0)
(1.58051 0.0171472 0)
(1.58085 0.0164648 0)
(1.58113 0.0157875 0)
(1.58135 0.0151155 0)
(1.58152 0.0144483 0)
(1.58164 0.0137842 0)
(1.58171 0.0131208 0)
(1.58176 0.0124547 0)
(1.58177 0.0117818 0)
(1.58176 0.0110962 0)
(1.58173 0.0103919 0)
(1.58169 0.0096608 0)
(1.58165 0.0088938 0)
(1.58161 0.00808042 0)
(1.58159 0.00721016 0)
(1.58159 0.00627108 0)
(1.58163 0.00524761 0)
(1.5817 0.00412115 0)
(1.58183 0.00287052 0)
(1.58202 0.00147512 0)
(1.5823 -9.20455e-05 0)
(1.58268 -0.00184557 0)
(1.58317 -0.0038181 0)
(1.58379 -0.00605332 0)
(1.58459 -0.00859469 0)
(1.5856 -0.0114903 0)
(1.58686 -0.0147939 0)
(1.58842 -0.018566 0)
(1.59034 -0.0228785 0)
(1.59269 -0.0278105 0)
(1.59557 -0.0334531 0)
(1.59908 -0.0399044 0)
(1.60336 -0.0472997 0)
(1.60856 -0.0557454 0)
(1.6149 -0.065343 0)
(1.62256 -0.0762851 0)
(1.63214 -0.088725 0)
(1.64315 -0.102871 0)
(1.65644 -0.118862 0)
(1.67303 -0.136893 0)
(1.69441 -0.157108 0)
(1.7206 -0.179567 0)
(1.75275 -0.203903 0)
(1.79232 -0.230234 0)
(1.84014 -0.258554 0)
(1.89721 -0.287496 0)
(1.96476 -0.314938 0)
(2.04359 -0.338797 0)
(2.13339 -0.355758 0)
(2.23211 -0.363287 0)
(1.47783 0.00224527 0)
(1.47886 0.00650399 0)
(1.48089 0.00987429 0)
(1.48337 0.01242 0)
(1.48585 0.0143982 0)
(1.4883 0.0160165 0)
(1.49077 0.0173556 0)
(1.49327 0.018458 0)
(1.49576 0.0193673 0)
(1.49823 0.0201327 0)
(1.50068 0.0207885 0)
(1.50311 0.0213614 0)
(1.50552 0.0218799 0)
(1.50793 0.0223511 0)
(1.51035 0.0227718 0)
(1.51279 0.023147 0)
(1.51523 0.0234852 0)
(1.51768 0.0237918 0)
(1.52015 0.024069 0)
(1.52264 0.0243188 0)
(1.52513 0.0245411 0)
(1.52764 0.0247363 0)
(1.53016 0.0249032 0)
(1.53269 0.0250558 0)
(1.53521 0.0251834 0)
(1.53775 0.0252818 0)
(1.54027 0.0253417 0)
(1.54279 0.0253582 0)
(1.54529 0.0253504 0)
(1.54779 0.0253262 0)
(1.5503 0.0252735 0)
(1.55278 0.0251829 0)
(1.55526 0.0250501 0)
(1.55769 0.0248778 0)
(1.56011 0.0246622 0)
(1.56246 0.0244091 0)
(1.5648 0.0241137 0)
(1.56707 0.0237859 0)
(1.56931 0.02342 0)
(1.57147 0.0230272 0)
(1.57361 0.0225931 0)
(1.57564 0.0221353 0)
(1.57765 0.0216361 0)
(1.57954 0.0211203 0)
(1.58143 0.0205704 0)
(1.58319 0.0200205 0)
(1.58495 0.0194409 0)
(1.58657 0.018866 0)
(1.58821 0.0182771 0)
(1.58982 0.0176806 0)
(1.59131 0.0170799 0)
(1.59273 0.0164776 0)
(1.59406 0.0158753 0)
(1.59532 0.0152735 0)
(1.59651 0.0146727 0)
(1.59764 0.0140727 0)
(1.5987 0.0134726 0)
(1.59972 0.0128707 0)
(1.60068 0.0122646 0)
(1.6016 0.0116512 0)
(1.60247 0.0110262 0)
(1.60331 0.0103838 0)
(1.60412 0.0097174 0)
(1.60489 0.00901956 0)
(1.60565 0.00828162 0)
(1.60637 0.00749319 0)
(1.60707 0.00664243 0)
(1.60777 0.00571597 0)
(1.60845 0.00469587 0)
(1.60913 0.00356368 0)
(1.60981 0.0023005 0)
(1.61049 0.000886166 0)
(1.61118 -0.000697451 0)
(1.61188 -0.00249206 0)
(1.61259 -0.0045312 0)
(1.61333 -0.00685523 0)
(1.61412 -0.0095094 0)
(1.61498 -0.0125444 0)
(1.6159 -0.01602 0)
(1.61694 -0.0200048 0)
(1.61813 -0.024583 0)
(1.61952 -0.0298499 0)
(1.62118 -0.0359039 0)
(1.62311 -0.0428658 0)
(1.62556 -0.0508798 0)
(1.62822 -0.0601202 0)
(1.632 -0.0707832 0)
(1.63678 -0.0830808 0)
(1.64283 -0.0972049 0)
(1.65067 -0.113308 0)
(1.66085 -0.131836 0)
(1.67386 -0.153282 0)
(1.69037 -0.177943 0)
(1.71139 -0.205916 0)
(1.73827 -0.237277 0)
(1.77257 -0.272137 0)
(1.81597 -0.310135 0)
(1.87048 -0.350234 0)
(1.93781 -0.390145 0)
(2.02022 -0.427848 0)
(2.11786 -0.456778 0)
(2.22841 -0.473699 0)
(1.47774 0.00170836 0)
(1.4784 0.00502008 0)
(1.47982 0.00788448 0)
(1.48174 0.0102453 0)
(1.48384 0.0121893 0)
(1.486 0.013826 0)
(1.48822 0.0152108 0)
(1.49049 0.0163778 0)
(1.49279 0.0173582 0)
(1.49511 0.0181869 0)
(1.49742 0.0188893 0)
(1.49974 0.0194915 0)
(1.50205 0.0200149 0)
(1.50438 0.0204755 0)
(1.50672 0.0208812 0)
(1.50907 0.0212391 0)
(1.51144 0.0215558 0)
(1.51382 0.0218361 0)
(1.51622 0.0220831 0)
(1.51863 0.0222992 0)
(1.52106 0.0224864 0)
(1.5235 0.0226464 0)
(1.52595 0.0227802 0)
(1.52842 0.0228888 0)
(1.53089 0.0229707 0)
(1.53338 0.0230263 0)
(1.53587 0.0230543 0)
(1.53837 0.0230564 0)
(1.54086 0.0230383 0)
(1.54336 0.0229986 0)
(1.54586 0.0229299 0)
(1.54835 0.0228265 0)
(1.55084 0.0226876 0)
(1.55331 0.0225151 0)
(1.55576 0.0223087 0)
(1.55818 0.0220706 0)
(1.56058 0.0218004 0)
(1.56294 0.0215011 0)
(1.56527 0.0211715 0)
(1.56755 0.020813 0)
(1.5698 0.0204234 0)
(1.57198 0.020009 0)
(1.57413 0.0195752 0)
(1.5762 0.0191273 0)
(1.57823 0.0186598 0)
(1.58018 0.0181754 0)
(1.58208 0.0176733 0)
(1.58391 0.0171559 0)
(1.58568 0.0166185 0)
(1.58737 0.0160758 0)
(1.589 0.0155398 0)
(1.59058 0.0150078 0)
(1.5921 0.0144746 0)
(1.59356 0.0139388 0)
(1.59497 0.0133998 0)
(1.59631 0.0128568 0)
(1.59761 0.012312 0)
(1.59885 0.0117578 0)
(1.60005 0.0111961 0)
(1.6012 0.0106231 0)
(1.6023 0.0100344 0)
(1.60336 0.00942437 0)
(1.60438 0.00878751 0)
(1.60537 0.00811624 0)
(1.60632 0.00740254 0)
(1.60723 0.00663617 0)
(1.60812 0.00580446 0)
(1.60897 0.00489309 0)
(1.60978 0.00388619 0)
(1.61057 0.00276646 0)
(1.61132 0.00151464 0)
(1.61204 0.00010854 0)
(1.61272 -0.00147647 0)
(1.6134 -0.00327331 0)
(1.61406 -0.00531584 0)
(1.61468 -0.00764416 0)
(1.61528 -0.0103069 0)
(1.61585 -0.0133597 0)
(1.61642 -0.0168683 0)
(1.61698 -0.0209114 0)
(1.61759 -0.0255798 0)
(1.61818 -0.0309751 0)
(1.61889 -0.0372157 0)
(1.61974 -0.0444497 0)
(1.62087 -0.0528308 0)
(1.62236 -0.0625858 0)
(1.62431 -0.0739896 0)
(1.62689 -0.0872756 0)
(1.63037 -0.102725 0)
(1.63512 -0.120741 0)
(1.64161 -0.141821 0)
(1.65042 -0.166476 0)
(1.66235 -0.195177 0)
(1.67847 -0.22838 0)
(1.70023 -0.266555 0)
(1.72952 -0.310041 0)
(1.76857 -0.35877 0)
(1.82047 -0.412169 0)
(1.8874 -0.46752 0)
(1.97578 -0.524338 0)
(2.0831 -0.569392 0)
(2.21591 -0.608321 0)
(1.4777 0.00135073 0)
(1.47818 0.00400018 0)
(1.47925 0.00641627 0)
(1.48077 0.00850345 0)
(1.48252 0.0102619 0)
(1.4844 0.0117489 0)
(1.48637 0.0130129 0)
(1.48842 0.0140845 0)
(1.49054 0.0149889 0)
(1.4927 0.0157541 0)
(1.49489 0.0164047 0)
(1.4971 0.0169638 0)
(1.49934 0.0174497 0)
(1.50159 0.0178765 0)
(1.50387 0.0182535 0)
(1.50617 0.0185869 0)
(1.50848 0.0188818 0)
(1.51082 0.0191429 0)
(1.51317 0.0193737 0)
(1.51554 0.019577 0)
(1.51792 0.0197548 0)
(1.52032 0.0199086 0)
(1.52273 0.0200393 0)
(1.52516 0.0201479 0)
(1.52759 0.0202345 0)
(1.53003 0.0202983 0)
(1.53248 0.0203386 0)
(1.53493 0.0203551 0)
(1.53738 0.0203478 0)
(1.53983 0.0203157 0)
(1.54228 0.0202569 0)
(1.54472 0.0201693 0)
(1.54716 0.0200523 0)
(1.54957 0.0199061 0)
(1.55197 0.0197305 0)
(1.55434 0.0195261 0)
(1.55669 0.0192931 0)
(1.55901 0.0190325 0)
(1.56129 0.0187448 0)
(1.56353 0.0184315 0)
(1.56573 0.0180934 0)
(1.56789 0.0177332 0)
(1.56999 0.0173527 0)
(1.57205 0.0169541 0)
(1.57406 0.0165375 0)
(1.57601 0.0161057 0)
(1.5779 0.0156596 0)
(1.57974 0.0152021 0)
(1.58152 0.0147348 0)
(1.58324 0.0142643 0)
(1.58489 0.0137943 0)
(1.5865 0.0133224 0)
(1.58804 0.0128462 0)
(1.58954 0.0123655 0)
(1.59098 0.0118807 0)
(1.59236 0.0113914 0)
(1.5937 0.0108968 0)
(1.59498 0.0103952 0)
(1.59621 0.00988405 0)
(1.5974 0.00936016 0)
(1.59854 0.00881927 0)
(1.59963 0.00825674 0)
(1.60068 0.0076661 0)
(1.60168 0.00704079 0)
(1.60264 0.00637221 0)
(1.60356 0.0056504 0)
(1.60443 0.00486335 0)
(1.60525 0.0039982 0)
(1.60601 0.0030399 0)
(1.60673 0.00197118 0)
(1.60739 0.000772246 0)
(1.60799 -0.000579493 0)
(1.60852 -0.00211225 0)
(1.60898 -0.00385805 0)
(1.60937 -0.00584752 0)
(1.60968 -0.00811908 0)
(1.60991 -0.010724 0)
(1.61006 -0.0137228 0)
(1.61013 -0.017185 0)
(1.6101 -0.0211922 0)
(1.61 -0.0258343 0)
(1.60982 -0.0312237 0)
(1.60959 -0.0375026 0)
(1.60933 -0.0448372 0)
(1.60907 -0.0534176 0)
(1.60888 -0.0634774 0)
(1.60885 -0.0752933 0)
(1.60911 -0.0891794 0)
(1.60986 -0.105525 0)
(1.61137 -0.124815 0)
(1.61406 -0.147633 0)
(1.61846 -0.174665 0)
(1.62532 -0.206703 0)
(1.63572 -0.244629 0)
(1.6512 -0.28942 0)
(1.6739 -0.341962 0)
(1.70676 -0.40299 0)
(1.75375 -0.472282 0)
(1.81857 -0.547515 0)
(1.91237 -0.628797 0)
(2.02423 -0.690591 0)
(2.20033 -0.773931 0)
(1.47768 0.00108967 0)
(1.47805 0.00323022 0)
(1.47889 0.00523279 0)
(1.48013 0.00701604 0)
(1.48162 0.00856314 0)
(1.48327 0.00989512 0)
(1.48505 0.0110494 0)
(1.48693 0.0120436 0)
(1.4889 0.0128965 0)
(1.49094 0.0136285 0)
(1.49303 0.0142589 0)
(1.49516 0.0148044 0)
(1.49732 0.0152793 0)
(1.49951 0.0156951 0)
(1.50173 0.0160604 0)
(1.50398 0.0163816 0)
(1.50625 0.0166639 0)
(1.50854 0.0169121 0)
(1.51086 0.0171298 0)
(1.51319 0.01732 0)
(1.51554 0.0174846 0)
(1.5179 0.0176252 0)
(1.52028 0.017743 0)
(1.52267 0.017839 0)
(1.52507 0.0179133 0)
(1.52748 0.0179657 0)
(1.5299 0.0179961 0)
(1.53231 0.0180041 0)
(1.53473 0.0179901 0)
(1.53714 0.0179541 0)
(1.53956 0.0178954 0)
(1.54196 0.0178127 0)
(1.54435 0.017705 0)
(1.54673 0.0175721 0)
(1.54909 0.0174138 0)
(1.55142 0.0172306 0)
(1.55373 0.0170229 0)
(1.55601 0.0167916 0)
(1.55825 0.0165373 0)
(1.56046 0.0162612 0)
(1.56263 0.0159643 0)
(1.56475 0.0156481 0)
(1.56682 0.0153144 0)
(1.56885 0.0149651 0)
(1.57083 0.0146014 0)
(1.57275 0.0142248 0)
(1.57463 0.0138364 0)
(1.57644 0.0134384 0)
(1.5782 0.0130321 0)
(1.5799 0.01262 0)
(1.58155 0.0122038 0)
(1.58314 0.011784 0)
(1.58467 0.0113602 0)
(1.58615 0.0109326 0)
(1.58758 0.0105008 0)
(1.58895 0.0100642 0)
(1.59027 0.00962144 0)
(1.59154 0.00917071 0)
(1.59276 0.00870909 0)
(1.59392 0.00823396 0)
(1.59504 0.00774101 0)
(1.5961 0.00722579 0)
(1.59712 0.00668243 0)
(1.59808 0.00610433 0)
(1.59899 0.00548348 0)
(1.59984 0.00481147 0)
(1.60064 0.0040764 0)