/*--------------------------------*- C++ -*----------------------------------*\
| =========                 |                                                 |
| \\      /  F ield         | OpenFOAM: The Open Source CFD Toolbox           |
|  \\    /   O peration     | Version:  2206                                  |
|   \\  /    A nd           | Website:  www.openfoam.com                      |
|    \\/     M anipulation  |                                                 |
\*---------------------------------------------------------------------------*/
FoamFile
{
    version     2.0;
    format      ascii;
    arch        "LSB;label=32;scalar=64";
    class       surfaceScalarField;
    location    "19.5999";
    object      phi_0;
}
// * * * * * * * * * * * * * * * * * * * * * * * * * * * * * * * * * * * * * //

dimensions      [0 3 -1 0 0 0 0];

oriented        oriented;

internalField   nonuniform List<scalar> 
5953
(
9.562e-06
-1.08812e-06
1.0011e-06
9.64253e-06
-5.92163e-07
5.11639e-07
9.71136e-06
-8.19621e-08
1.31316e-08
9.7653e-06
4.16341e-07
-4.70283e-07
9.80173e-06
8.84838e-07
-9.21267e-07
9.81878e-06
1.30851e-06
-1.32557e-06
9.81546e-06
1.67614e-06
-1.67281e-06
9.79156e-06
1.98075e-06
-1.95685e-06
9.74748e-06
2.21966e-06
-2.17558e-06
9.68367e-06
2.39394e-06
-2.33013e-06
9.5992e-06
2.50728e-06
-2.42281e-06
9.49221e-06
2.56284e-06
-2.45585e-06
9.36552e-06
2.56486e-06
-2.43817e-06
9.22398e-06
2.52449e-06
-2.38295e-06
9.07291e-06
2.45179e-06
-2.30072e-06
8.91806e-06
2.35276e-06
-2.19791e-06
8.76492e-06
2.22937e-06
-2.07623e-06
8.61811e-06
2.08033e-06
-1.93352e-06
8.4813e-06
1.90261e-06
-1.76579e-06
8.35744e-06
1.69302e-06
-1.56916e-06
8.24913e-06
1.44958e-06
-1.34127e-06
8.15873e-06
1.17229e-06
-1.08189e-06
8.08839e-06
8.63578e-07
-7.93234e-07
8.03983e-06
5.28481e-07
-4.79918e-07
8.0141e-06
1.74718e-07
-1.48995e-07
8.01114e-06
-1.86637e-07
1.896e-07
8.02961e-06
-5.42391e-07
5.23917e-07
8.06747e-06
-8.82774e-07
8.44922e-07
8.12199e-06
-1.19869e-06
1.14416e-06
8.18994e-06
-1.48218e-06
1.41423e-06
8.26771e-06
-1.7271e-06
1.64933e-06
8.35168e-06
-1.92964e-06
1.84566e-06
8.4387e-06
-2.08851e-06
2.00149e-06
8.52643e-06
-2.20448e-06
2.11674e-06
8.61384e-06
-2.27937e-06
2.19197e-06
8.70139e-06
-2.31364e-06
2.22609e-06
8.78886e-06
-2.30243e-06
2.21496e-06
8.87496e-06
-2.24296e-06
2.15687e-06
8.95896e-06
-2.13615e-06
2.05215e-06
9.04076e-06
-1.98374e-06
1.90194e-06
9.1204e-06
-1.78754e-06
1.70789e-06
9.19777e-06
-1.54953e-06
1.47216e-06
9.27248e-06
-1.27237e-06
1.19766e-06
9.34376e-06
-9.5989e-07
8.8861e-07
9.41035e-06
-6.17918e-07
5.51326e-07
9.46995e-06
-2.5559e-07
1.95986e-07
9.51915e-06
1.1196e-07
-1.61161e-07
9.55588e-06
4.69283e-07
-5.06007e-07
9.57827e-06
8.04765e-07
-8.27162e-07
9.58495e-06
1.10818e-06
-1.11485e-06
9.57514e-06
1.37148e-06
-1.36167e-06
9.5488e-06
1.5894e-06
-1.56306e-06
9.50653e-06
1.75952e-06
-1.71724e-06
9.44888e-06
1.88207e-06
-1.82443e-06
9.37531e-06
1.95863e-06
-1.88506e-06
9.28546e-06
1.99006e-06
-1.90022e-06
9.18273e-06
1.97848e-06
-1.87575e-06
9.07123e-06
1.93055e-06
-1.81905e-06
8.95548e-06
1.85188e-06
-1.73613e-06
8.84001e-06
1.74663e-06
-1.63116e-06
8.7287e-06
1.61757e-06
-1.50626e-06
8.62462e-06
1.46589e-06
-1.36181e-06
8.53022e-06
1.29176e-06
-1.19736e-06
8.44748e-06
1.09518e-06
-1.01244e-06
8.37808e-06
8.76646e-07
-8.07245e-07
8.32348e-06
6.37705e-07
-5.83104e-07
8.28487e-06
3.81423e-07
-3.42814e-07
8.26305e-06
1.12793e-07
-9.09749e-08
8.25813e-06
-1.60321e-07
1.6524e-07
8.26931e-06
-4.28844e-07
4.17664e-07
8.29527e-06
-6.85632e-07
6.59672e-07
8.3342e-06
-9.23824e-07
8.849e-07
8.38381e-06
-1.13731e-06
1.0877e-06
8.44153e-06
-1.32129e-06
1.26358e-06
8.5047e-06
-1.47267e-06
1.4095e-06
8.57101e-06
-1.59025e-06
1.52393e-06
8.63887e-06
-1.67437e-06
1.60652e-06
8.70779e-06
-1.72607e-06
1.65714e-06
8.77827e-06
-1.74436e-06
1.67388e-06
8.84954e-06
-1.72493e-06
1.65366e-06
8.92023e-06
-1.66679e-06
1.5961e-06
8.98937e-06
-1.57116e-06
1.50202e-06
9.05643e-06
-1.44028e-06
1.37322e-06
9.12113e-06
-1.27672e-06
1.21202e-06
9.18325e-06
-1.08319e-06
1.02107e-06
9.2425e-06
-8.62763e-07
8.0351e-07
9.29837e-06
-6.19192e-07
5.6332e-07
9.34978e-06
-3.57658e-07
3.06245e-07
9.39439e-06
-8.6305e-08
4.16949e-08
9.43005e-06
1.83123e-07
-2.18774e-07
9.45513e-06
4.41588e-07
-4.66673e-07
9.46831e-06
6.81338e-07
-6.94515e-07
9.4687e-06
8.95778e-07
-8.96176e-07
9.45603e-06
1.07991e-06
-1.06724e-06
9.43061e-06
1.2307e-06
-1.20528e-06
9.3932e-06
1.34707e-06
-1.30966e-06
9.34439e-06
1.42948e-06
-1.38067e-06
9.28379e-06
1.47879e-06
-1.41819e-06
9.21183e-06
1.49498e-06
-1.42302e-06
9.13141e-06
1.47956e-06
-1.39914e-06
9.04577e-06
1.43633e-06
-1.35069e-06
8.95846e-06
1.3684e-06
-1.28109e-06
8.87283e-06
1.27853e-06
-1.19291e-06
8.79167e-06
1.16893e-06
-1.08776e-06
8.71714e-06
1.04103e-06
-9.66501e-07
8.65096e-06
8.95817e-07
-8.29632e-07
8.59445e-06
7.34287e-07
-6.77781e-07
8.5487e-06
5.57791e-07
-5.12041e-07
8.51457e-06
3.6838e-07
-3.34253e-07
8.4927e-06
1.69184e-07
-1.47307e-07
8.4833e-06
-3.48715e-08
4.427e-08
8.48598e-06
-2.37167e-07
2.34484e-07
8.49995e-06
-4.32527e-07
4.18559e-07
8.52407e-06
-6.15948e-07
5.91832e-07
8.55686e-06
-7.82784e-07
7.49986e-07
8.59662e-06
-9.29146e-07
8.89389e-07
8.6415e-06
-1.05226e-06
1.00738e-06
8.68974e-06
-1.15063e-06
1.10239e-06
8.73994e-06
-1.22396e-06
1.17376e-06
8.79138e-06
-1.27276e-06
1.22133e-06
8.84428e-06
-1.2971e-06
1.24419e-06
-1.2942e-06
1.2399e-06
9.30844e-06
-1.15499e-06
9.37444e-06
-6.5816e-07
9.43553e-06
-1.43052e-07
9.48815e-06
3.63723e-07
9.52934e-06
8.43644e-07
9.55655e-06
1.2813e-06
9.56794e-06
1.66475e-06
9.56238e-06
1.98632e-06
9.53946e-06
2.24258e-06
9.49937e-06
2.43402e-06
9.44201e-06
2.56464e-06
9.36552e-06
2.63933e-06
9.269e-06
2.66137e-06
9.15667e-06
2.63683e-06
9.03317e-06
2.57528e-06
8.90384e-06
2.48209e-06
8.77397e-06
2.35923e-06
8.64809e-06
2.20622e-06
8.52988e-06
2.02081e-06
8.42249e-06
1.80041e-06
8.32867e-06
1.5434e-06
8.25093e-06
1.25003e-06
8.19145e-06
9.2306e-07
8.15192e-06
5.68009e-07
8.13329e-06
1.9335e-07
8.13519e-06
-1.88542e-07
8.15615e-06
-5.63343e-07
8.19402e-06
-9.20645e-07
8.24607e-06
-1.25075e-06
8.30907e-06
-1.54517e-06
8.37943e-06
-1.79746e-06
8.45357e-06
-2.00378e-06
8.5283e-06
-2.16324e-06
8.60129e-06
-2.27747e-06
8.67147e-06
-2.34955e-06
8.73969e-06
-2.38186e-06
8.80644e-06
-2.36918e-06
8.87038e-06
-2.30691e-06
8.93136e-06
-2.19713e-06
8.99004e-06
-2.04241e-06
9.04716e-06
-1.84466e-06
9.10328e-06
-1.60566e-06
9.1586e-06
-1.32769e-06
9.21289e-06
-1.01418e-06
9.26547e-06
-6.7049e-07
9.31487e-06
-3.04996e-07
9.35814e-06
6.86868e-08
9.39326e-06
4.34165e-07
9.41831e-06
7.79719e-07
9.43163e-06
1.09486e-06
9.43201e-06
1.3711e-06
9.4189e-06
1.6025e-06
9.39246e-06
1.78596e-06
9.35331e-06
1.92122e-06
9.30157e-06
2.01038e-06
9.23591e-06
2.05572e-06
9.15678e-06
2.05762e-06
9.06774e-06
2.01958e-06
8.97297e-06
1.94665e-06
8.87682e-06
1.84279e-06
8.78303e-06
1.71137e-06
8.69464e-06
1.55428e-06
8.61415e-06
1.37225e-06
8.54362e-06
1.16571e-06
8.48478e-06
9.35482e-07
8.4391e-06
6.83389e-07
8.40771e-06
4.12815e-07
8.39131e-06
1.29185e-07
8.38988e-06
-1.58891e-07
8.40257e-06
-4.41525e-07
8.42802e-06
-7.1109e-07
8.46446e-06
-9.60265e-07
8.50967e-06
-1.18252e-06
8.5611e-06
-1.37272e-06
8.61612e-06
-1.52769e-06
8.67242e-06
-1.64654e-06
8.72833e-06
-1.73029e-06
8.78341e-06
-1.78114e-06
8.8387e-06
-1.79965e-06
8.89398e-06
-1.78021e-06
8.94786e-06
-1.72066e-06
8.99966e-06
-1.62296e-06
9.04943e-06
-1.49005e-06
9.0974e-06
-1.3247e-06
9.14381e-06
-1.1296e-06
9.18876e-06
-9.07707e-07
9.2321e-06
-6.62537e-07
9.27327e-06
-3.98824e-07
9.31068e-06
-1.23713e-07
9.3423e-06
1.51496e-07
9.36667e-06
4.17224e-07
9.38237e-06
6.65633e-07
9.38833e-06
8.89823e-07
9.38388e-06
1.08436e-06
9.36896e-06
1.24562e-06
9.34405e-06
1.37198e-06
9.30991e-06
1.46362e-06
9.26669e-06
1.52201e-06
9.21344e-06
1.54823e-06
9.15119e-06
1.54181e-06
9.08261e-06
1.50492e-06
9.01104e-06
1.43997e-06
8.93977e-06
1.34979e-06
8.87147e-06
1.23722e-06
8.80832e-06
1.10418e-06
8.75205e-06
9.52088e-07
8.70404e-06
7.82294e-07
8.66539e-06
5.9644e-07
8.63695e-06
3.96823e-07
8.61929e-06
1.86839e-07
8.6126e-06
-2.81784e-08
8.61644e-06
-2.41011e-07
8.63006e-06
-4.46138e-07
8.65235e-06
-6.38247e-07
8.68195e-06
-8.12379e-07
8.71717e-06
-9.64372e-07
8.75622e-06
-1.09131e-06
8.79734e-06
-1.19174e-06
8.83906e-06
-1.26568e-06
8.8806e-06
-1.31431e-06
8.92239e-06
-1.33888e-06
-1.33682e-06
9.06504e-06
-1.20052e-06
9.11485e-06
-7.0797e-07
9.16612e-06
-1.94327e-07
9.21524e-06
3.14607e-07
9.25916e-06
7.9972e-07
9.29487e-06
1.24559e-06
9.31975e-06
1.63987e-06
9.33171e-06
1.97435e-06
9.32939e-06
2.24491e-06
9.3122e-06
2.45121e-06
9.28013e-06
2.5967e-06
9.23244e-06
2.68702e-06
9.16669e-06
2.72712e-06
9.08409e-06
2.71943e-06
8.9888e-06
2.67057e-06
8.8861e-06
2.58479e-06
8.78117e-06
2.46416e-06
8.6783e-06
2.30909e-06
8.58107e-06
2.11805e-06
8.49262e-06
1.88886e-06
8.41581e-06
1.6202e-06
8.35317e-06
1.31267e-06
8.30678e-06
9.6945e-07
8.2782e-06
5.96589e-07
8.26812e-06
2.03424e-07
8.2758e-06
-1.96223e-07
8.2996e-06
-5.87138e-07
8.33728e-06
-9.58325e-07
8.38605e-06
-1.29952e-06
8.44277e-06
-1.60189e-06
8.50419e-06
-1.85888e-06
8.56708e-06
-2.06666e-06
8.62832e-06
-2.22448e-06
8.6854e-06
-2.33455e-06
8.73708e-06
-2.40123e-06
8.78469e-06
-2.42946e-06
8.83003e-06
-2.41452e-06
8.87056e-06
-2.34744e-06
8.90718e-06
-2.23375e-06
8.94157e-06
-2.0768e-06
8.9752e-06
-1.87829e-06
9.0092e-06
-1.63966e-06
9.04429e-06
-1.36278e-06
9.08079e-06
-1.05067e-06
9.11852e-06
-7.08223e-07
9.15662e-06
-3.43099e-07
9.19289e-06
3.2417e-08
9.22523e-06
4.01823e-07
9.25174e-06
7.53207e-07
9.27056e-06
1.07604e-06
9.28011e-06
1.36155e-06
9.27931e-06
1.6033e-06
9.26774e-06
1.79753e-06
9.24568e-06
1.94328e-06
9.2138e-06
2.04225e-06
9.17167e-06
2.09785e-06
9.11706e-06
2.11224e-06
9.05142e-06
2.08522e-06
8.97889e-06
2.01918e-06
8.90362e-06
1.91806e-06
8.82916e-06
1.78583e-06
8.75844e-06
1.62499e-06
8.69393e-06
1.43677e-06
8.63767e-06
1.22197e-06
8.59138e-06
9.81772e-07
8.55643e-06
7.18336e-07
8.53384e-06
4.35407e-07
8.52415e-06
1.38876e-07
8.52708e-06
-1.61819e-07
8.54167e-06
-4.56116e-07
8.56653e-06
-7.35949e-07
8.59991e-06
-9.9365e-07
8.6398e-06
-1.22241e-06
8.68397e-06
-1.41688e-06
8.72998e-06
-1.57371e-06
8.77549e-06
-1.69205e-06
8.81866e-06
-1.77346e-06
8.85893e-06
-1.82141e-06
8.89806e-06
-1.83878e-06
8.93674e-06
-1.8189e-06
8.97269e-06
-1.75661e-06
9.00593e-06
-1.6562e-06
9.0373e-06
-1.52142e-06
9.06761e-06
-1.35501e-06
9.09756e-06
-1.15955e-06
9.12758e-06
-9.37736e-07
9.15785e-06
-6.92804e-07
9.18813e-06
-4.29106e-07
9.21749e-06
-1.53067e-07
9.24416e-06
1.24826e-07
9.2668e-06
3.94587e-07
9.28401e-06
6.48423e-07
9.29454e-06
8.79293e-07
9.29743e-06
1.08146e-06
9.29221e-06
1.25084e-06
9.27894e-06
1.38525e-06
9.25825e-06
1.48431e-06
9.23096e-06
1.54931e-06
9.19661e-06
1.58257e-06
9.15338e-06
1.58504e-06
9.10263e-06
1.55567e-06
9.04796e-06
1.49464e-06
8.99241e-06
1.40534e-06
8.93849e-06
1.29114e-06
8.88831e-06
1.15436e-06
8.84358e-06
9.96823e-07
8.80564e-06
8.20228e-07
8.77556e-06
6.2652e-07
8.75412e-06
4.18268e-07
8.7418e-06
1.99157e-07
8.73867e-06
-2.50462e-08
8.74421e-06
-2.46558e-07
8.75766e-06
-4.59589e-07
8.778e-06
-6.58582e-07
8.80397e-06
-8.38348e-07
8.8341e-06
-9.94501e-07
8.86675e-06
-1.12396e-06
8.90019e-06
-1.22519e-06
8.93292e-06
-1.29841e-06
8.96402e-06
-1.34541e-06
8.99399e-06
-1.36886e-06
-1.36734e-06
8.83827e-06
-1.22448e-06
8.87138e-06
-7.41083e-07
8.91166e-06
-2.34602e-07
8.9558e-06
2.70466e-07
9.00067e-06
7.54851e-07
9.04288e-06
1.20338e-06
9.07938e-06
1.60337e-06
9.1071e-06
1.94663e-06
9.12366e-06
2.22835e-06
9.12775e-06
2.44712e-06
9.11882e-06
2.60564e-06
9.09685e-06
2.70899e-06
9.06096e-06
2.76301e-06
9.00913e-06
2.77126e-06
8.94276e-06
2.73694e-06
8.86793e-06
2.65962e-06
8.78949e-06
2.5426e-06
8.71136e-06
2.38722e-06
8.63703e-06
2.19238e-06
8.56967e-06
1.95622e-06
8.51211e-06
1.67776e-06
8.46673e-06
1.35806e-06
8.43538e-06
1.0008e-06
8.41935e-06
6.12623e-07
8.419e-06
2.03766e-07
8.43315e-06
-2.10366e-07
8.45999e-06
-6.13982e-07
8.4971e-06
-9.95434e-07
8.54155e-06
-1.34398e-06
8.59038e-06
-1.65072e-06
8.64092e-06
-1.90942e-06
8.69064e-06
-2.11639e-06
8.73705e-06
-2.27088e-06
8.77755e-06
-2.37505e-06
8.81005e-06
-2.43374e-06
8.83572e-06
-2.45514e-06
8.8589e-06
-2.43769e-06
8.87475e-06
-2.36329e-06
8.88599e-06
-2.24499e-06
8.89543e-06
-2.08625e-06
8.90511e-06
-1.88797e-06
8.91662e-06
-1.65116e-06
8.93113e-06
-1.37729e-06
8.94941e-06
-1.06895e-06
8.97175e-06
-7.30562e-07
8.99785e-06
-3.69196e-07
9.02627e-06
3.99699e-09
9.05496e-06
3.73136e-07
9.082e-06
7.2616e-07
9.10535e-06
1.0527e-06
9.1231e-06
1.3438e-06
9.13377e-06
1.59263e-06
9.13639e-06
1.79492e-06
9.13072e-06
1.94895e-06
9.1174e-06
2.05557e-06
9.09722e-06
2.11803e-06
9.06833e-06
2.14113e-06
9.02538e-06
2.12816e-06
8.97499e-06
2.06958e-06
8.92152e-06
1.97153e-06
8.86781e-06
1.83954e-06
8.81641e-06
1.67639e-06
8.7696e-06
1.48358e-06
8.72935e-06
1.26222e-06
8.69727e-06
1.01385e-06
8.67459e-06
7.41017e-07
8.66215e-06
4.47841e-07
8.66028e-06
1.40749e-07
8.66835e-06
-1.69883e-07
8.68521e-06
-4.72982e-07
8.70933e-06
-7.60067e-07
8.73898e-06
-1.0233e-06
8.77241e-06
-1.25584e-06
8.8079e-06
-1.45238e-06
8.84366e-06
-1.60946e-06
8.87765e-06
-1.72603e-06
8.90785e-06
-1.80366e-06
8.93297e-06
-1.84654e-06
8.95457e-06
-1.86037e-06
8.97631e-06
-1.84064e-06
8.99312e-06
-1.77342e-06
9.00682e-06
-1.6699e-06
9.01915e-06
-1.53375e-06
9.03139e-06
-1.36725e-06
9.04452e-06
-1.17268e-06
9.05926e-06
-9.52475e-07
9.07606e-06
-7.09606e-07
9.09504e-06
-4.48088e-07
9.11577e-06
-1.73801e-07
9.13683e-06
1.03764e-07
9.15701e-06
3.74412e-07
9.17492e-06
6.30511e-07
9.1892e-06
8.65014e-07
9.19866e-06
1.072e-06
9.20249e-06
1.24702e-06
9.20036e-06
1.38738e-06
9.1926e-06
1.49206e-06
9.18018e-06
1.56173e-06
9.16351e-06
1.59925e-06
9.14002e-06
1.60853e-06
9.10632e-06
1.58937e-06
9.06891e-06
1.53205e-06
9.03009e-06
1.44416e-06
8.99188e-06
1.32936e-06
8.95611e-06
1.19013e-06
8.92434e-06
1.02859e-06
8.89785e-06
8.46723e-07
8.87761e-06
6.46757e-07
8.86431e-06
4.31563e-07
8.85834e-06
2.05131e-07
8.85956e-06
-2.62674e-08
8.86733e-06
-2.54326e-07
8.88081e-06
-4.73068e-07
8.89899e-06
-6.76764e-07
8.92076e-06
-8.6012e-07
8.94497e-06
-1.01871e-06
8.97038e-06
-1.14936e-06
8.99556e-06
-1.25038e-06
9.01904e-06
-1.32189e-06
9.03952e-06
-1.36589e-06
9.05696e-06
-1.3863e-06
-1.38535e-06
8.63244e-06
8.64868e-06
8.67722e-06
8.71522e-06
8.75953e-06
8.80652e-06
8.85268e-06
8.89434e-06
8.92825e-06
8.9522e-06
8.96519e-06
8.96737e-06
8.95925e-06
8.93817e-06
8.8998e-06
8.85264e-06
8.80138e-06
8.7492e-06
8.69938e-06
8.65502e-06
8.61869e-06
8.59239e-06
8.57766e-06
8.5754e-06
8.5856e-06
8.60663e-06
8.63648e-06
8.67249e-06
8.71169e-06
8.75131e-06
8.78909e-06
8.82314e-06
8.85188e-06
8.87397e-06
8.88823e-06
8.89391e-06
8.89123e-06
8.88124e-06
8.867e-06
8.85136e-06
8.83709e-06
8.82626e-06
8.82038e-06
8.82054e-06
8.82745e-06
8.84129e-06
8.86118e-06
8.88538e-06
8.91204e-06
8.93899e-06
8.96403e-06
8.98532e-06
9.00148e-06
9.01187e-06
9.01651e-06
9.01583e-06
9.00939e-06
8.99082e-06
8.96298e-06
8.93203e-06
8.89997e-06
8.86898e-06
8.84113e-06
8.81822e-06
8.80166e-06
8.79247e-06
8.79126e-06
8.79805e-06
8.81177e-06
8.83111e-06
8.8544e-06
8.87992e-06
8.90607e-06
8.93146e-06
8.95493e-06
8.97543e-06
8.99188e-06
9.00318e-06
9.00932e-06
9.01115e-06
9.00788e-06
9.00188e-06
8.99483e-06
8.98858e-06
8.98455e-06
8.9838e-06
8.98704e-06
8.99466e-06
9.00655e-06
9.02164e-06
9.03886e-06
9.05687e-06
9.07425e-06
9.08968e-06
9.1021e-06
9.11088e-06
9.11587e-06
9.1174e-06
9.11593e-06
9.11005e-06
9.09441e-06
9.07473e-06
9.05322e-06
9.03142e-06
9.01094e-06
8.99313e-06
8.97909e-06
8.96971e-06
8.96554e-06
8.96678e-06
8.97305e-06
8.98358e-06
8.99741e-06
9.01347e-06
9.03069e-06
9.04814e-06
9.065e-06
9.08052e-06
9.09385e-06
9.10411e-06
9.11065e-06
-2.23645e-07
-7.95491e-09
-2.06899e-07
-1.67461e-08
-1.83458e-07
-2.34409e-08
-1.55792e-07
-2.76657e-08
-1.26418e-07
-2.93741e-08
-9.76546e-08
-2.87635e-08
-7.14205e-08
-2.62341e-08
-4.9105e-08
-2.23154e-08
-3.14582e-08
-1.76469e-08
-1.86078e-08
-1.28503e-08
-1.01974e-08
-8.41047e-09
-5.45684e-09
-4.74053e-09
-3.23204e-09
-2.2248e-09
-2.11013e-09
-1.12191e-09
-7.82488e-10
-1.32764e-09
1.95301e-09
-2.7355e-09
7.07038e-09
-5.11737e-09
1.50845e-08
-8.01412e-09
2.64191e-08
-1.13346e-08
4.10985e-08
-1.46794e-08
5.87387e-08
-1.76402e-08
7.8654e-08
-1.99153e-08
1.00062e-07
-2.14085e-08
1.22192e-07
-2.21293e-08
1.44326e-07
-2.2134e-08
1.65872e-07
-2.15461e-08
1.86393e-07
-2.05209e-08
2.05589e-07
-1.91966e-08
2.233e-07
-1.77103e-08
2.39452e-07
-1.61529e-08
2.54101e-07
-1.4649e-08
2.67415e-07
-1.33136e-08
2.79601e-07
-1.21855e-08
2.90919e-07
-1.13183e-08
3.01589e-07
-1.06698e-08
3.11787e-07
-1.01986e-08
3.21653e-07
-9.86538e-09
3.31297e-07
-9.64407e-09
3.40782e-07
-9.48487e-09
3.50079e-07
-9.29751e-09
3.59098e-07
-9.01845e-09
3.67722e-07
-8.62449e-09
3.7584e-07
-8.11797e-09
3.83359e-07
-7.51893e-09
3.90217e-07
-6.85797e-09
3.96392e-07
-6.17516e-09
4.01908e-07
-5.5163e-09
4.06829e-07
-4.92063e-09
4.11243e-07
-4.41376e-09
4.15249e-07
-4.00621e-09
4.18947e-07
-3.69847e-09
4.22429e-07
-3.48199e-09
4.25771e-07
-3.34106e-09
4.29025e-07
-3.25495e-09
4.32229e-07
-3.20394e-09
4.35408e-07
-3.17838e-09
4.38591e-07
-3.18314e-09
4.41823e-07
-3.23217e-09
4.45163e-07
-3.34009e-09
4.48675e-07
-3.51205e-09
4.52425e-07
-3.74994e-09
4.56484e-07
-4.05857e-09
4.6092e-07
-4.43646e-09
4.65805e-07
-4.88453e-09
4.71211e-07
-5.4067e-09
4.77203e-07
-5.99112e-09
4.83809e-07
-6.60622e-09
4.91035e-07
-7.22612e-09
4.98868e-07
-7.83281e-09
5.07279e-07
-8.4114e-09
5.16222e-07
-8.94278e-09
5.25622e-07
-9.40001e-09
5.35372e-07
-9.75021e-09
5.45328e-07
-9.95564e-09
5.55304e-07
-9.97642e-09
5.65089e-07
-9.78448e-09
5.7447e-07
-9.38142e-09
5.83268e-07
-8.79749e-09
5.9134e-07
-8.07238e-09
5.98583e-07
-7.24347e-09
6.04931e-07
-6.34725e-09
6.10356e-07
-5.42522e-09
6.14875e-07
-4.51962e-09
6.18542e-07
-3.66676e-09
6.21436e-07
-2.89342e-09
6.23653e-07
-2.21769e-09
6.25302e-07
-1.64889e-09
6.2649e-07
-1.18777e-09
6.27311e-07
-8.21468e-10
6.27845e-07
-5.34026e-10
6.28142e-07
-2.96102e-10
6.28227e-07
-8.5812e-11
6.28131e-07
9.60915e-11
6.27832e-07
2.99268e-10
6.27318e-07
5.13789e-10
6.2658e-07
7.38447e-10
6.2562e-07
9.59406e-10
6.24458e-07
1.16253e-09
6.23122e-07
1.3362e-09
6.21665e-07
1.45679e-09
6.2016e-07
1.5053e-09
6.18702e-07
1.45718e-09
6.17419e-07
1.28352e-09
6.16453e-07
9.65879e-10
6.15946e-07
5.06724e-10
6.15973e-07
-2.69459e-11
6.1663e-07
-6.56949e-10
6.18045e-07
-1.41525e-09
6.20275e-07
-2.22939e-09
6.2333e-07
-3.05498e-09
6.2718e-07
-3.84996e-09
6.31759e-07
-4.57936e-09
6.36976e-07
-5.2173e-09
6.42724e-07
-5.74759e-09
6.48884e-07
-6.15972e-09
6.5533e-07
-6.44597e-09
6.61929e-07
-6.59908e-09
6.68539e-07
-6.61021e-09
6.75012e-07
-6.47315e-09
6.81202e-07
-6.18973e-09
6.86973e-07
-5.77125e-09
-5.23872e-09
2.81218e-07
-3.26678e-08
3.13776e-07
-4.93046e-08
3.51978e-07
-6.16423e-08
3.93367e-07
-6.90551e-08
4.35504e-07
-7.1511e-08
4.7633e-07
-6.95896e-08
5.14218e-07
-6.41222e-08
5.48048e-07
-5.61449e-08
5.77263e-07
-4.68626e-08
6.01864e-07
-3.74507e-08
6.22333e-07
-2.88799e-08
6.39479e-07
-2.18864e-08
6.54292e-07
-1.70376e-08
6.67891e-07
-1.47215e-08
6.81624e-07
-1.50605e-08
6.96723e-07
-1.78342e-08
7.14154e-07
-2.25485e-08
7.34648e-07
-2.85086e-08
7.58386e-07
-3.50725e-08
7.85213e-07
-4.15056e-08
8.14605e-07
-4.70322e-08
8.45813e-07
-5.11234e-08
8.78094e-07
-5.36902e-08
9.10713e-07
-5.47479e-08
9.43003e-07
-5.44245e-08
9.74466e-07
-5.30084e-08
1.00474e-06
-5.07921e-08
1.03359e-06
-4.80453e-08
1.06088e-06
-4.5003e-08
1.08658e-06
-4.18537e-08
1.11071e-06
-3.87788e-08
1.13338e-06
-3.59834e-08
1.15485e-06
-3.36592e-08
1.17541e-06
-3.18716e-08
1.19526e-06
-3.05211e-08
1.21455e-06
-2.9492e-08
1.23339e-06
-2.87022e-08
1.25186e-06
-2.81206e-08
1.27003e-06
-2.76495e-08
1.28784e-06
-2.71062e-08
1.30518e-06
-2.63582e-08
1.3219e-06
-2.53499e-08
1.33788e-06
-2.41003e-08
1.35305e-06
-2.26839e-08
1.36737e-06
-2.11744e-08
1.38084e-06
-1.96514e-08
1.39354e-06
-1.82142e-08
1.40556e-06
-1.6941e-08
1.41702e-06
-1.58738e-08
1.42804e-06
-1.50246e-08
1.43873e-06
-1.43881e-08
1.44919e-06
-1.39412e-08
1.45949e-06
-1.36449e-08
1.46969e-06
-1.34507e-08
1.47979e-06
-1.331e-08
1.48981e-06
-1.31974e-08
1.49975e-06
-1.31258e-08
1.50965e-06
-1.31277e-08
1.51955e-06
-1.32415e-08
1.52951e-06
-1.34742e-08
1.53959e-06
-1.38257e-08
1.54984e-06
-1.43136e-08
1.56034e-06
-1.49304e-08
1.57114e-06
-1.5683e-08
1.58232e-06
-1.65926e-08
1.59397e-06
-1.76425e-08
1.60612e-06
-1.87518e-08
1.61876e-06
-1.98666e-08
1.63188e-06
-2.09536e-08
1.64546e-06
-2.19886e-08
1.65946e-06
-2.29405e-08
1.67381e-06
-2.37528e-08
1.68842e-06
-2.43567e-08
1.70313e-06
-2.46696e-08
1.71775e-06
-2.46017e-08
1.73206e-06
-2.40892e-08
1.74581e-06
-2.31361e-08
1.75883e-06
-2.18148e-08
1.77097e-06
-2.02156e-08
1.78214e-06
-1.84132e-08
1.79228e-06
-1.64795e-08
1.80135e-06
-1.45006e-08
1.8094e-06
-1.25657e-08
1.81648e-06
-1.0752e-08
1.8227e-06
-9.1149e-09
1.82818e-06
-7.69096e-09
1.83303e-06
-6.49989e-09
1.83738e-06
-5.5401e-09
1.84135e-06
-4.78811e-09
1.84502e-06
-4.20325e-09
1.84845e-06
-3.73245e-09
1.85169e-06
-3.32399e-09
1.85473e-06
-2.93966e-09
1.85757e-06
-2.54013e-09
1.86019e-06
-2.10853e-09
1.86257e-06
-1.64637e-09
1.86472e-06
-1.18914e-09
1.86665e-06
-7.68454e-10
1.86838e-06
-3.9441e-10
1.86996e-06
-1.21707e-10
1.87147e-06
-3.74786e-13
1.87298e-06
-5.67548e-11
1.87464e-06
-3.71954e-10
1.87656e-06
-9.53053e-10
1.87886e-06
-1.79563e-09
1.88171e-06
-2.87828e-09
1.88523e-06
-4.17916e-09
1.88948e-06
-5.66305e-09
1.8945e-06
-7.25161e-09
1.9003e-06
-8.8555e-09
1.90684e-06
-1.03867e-08
1.91403e-06
-1.17729e-08
1.92178e-06
-1.29647e-08
1.92997e-06
-1.39319e-08
1.93846e-06
-1.46566e-08
1.94714e-06
-1.51248e-08
1.95586e-06
-1.53229e-08
1.96449e-06
-1.52356e-08
1.97287e-06
-1.48505e-08
1.98085e-06
-1.4169e-08
1.98829e-06
-1.32149e-08
-1.20341e-08
1.4586e-06
-6.19011e-08
1.49461e-06
-8.53142e-08
1.53562e-06
-1.02654e-07
1.57974e-06
-1.1317e-07
1.62471e-06
-1.16482e-07
1.66877e-06
-1.13655e-07
1.71044e-06
-1.05786e-07
1.74863e-06
-9.43328e-08
1.7827e-06
-8.09369e-08
1.81243e-06
-6.71794e-08
1.83808e-06
-5.45351e-08
1.8603e-06
-4.4101e-08
1.87991e-06
-3.6649e-08
1.89783e-06
-3.26437e-08
1.91506e-06
-3.22887e-08
1.93272e-06
-3.54904e-08
1.95185e-06
-4.16827e-08
1.97327e-06
-4.99228e-08
1.99743e-06
-5.92397e-08
2.02445e-06
-6.85233e-08
2.05398e-06
-7.65653e-08
2.0853e-06
-8.24383e-08
2.11782e-06
-8.62109e-08
2.15096e-06
-8.78845e-08
2.18408e-06
-8.75436e-08
2.21673e-06
-8.56636e-08
2.24856e-06
-8.26207e-08
2.27926e-06
-7.8746e-08
2.3086e-06
-7.43457e-08
2.33645e-06
-6.97016e-08
2.36276e-06
-6.50867e-08
2.38757e-06
-6.07998e-08
2.4111e-06
-5.71813e-08
2.43356e-06
-5.43332e-08
2.45508e-06
-5.20414e-08
2.47571e-06
-5.01213e-08
2.49551e-06
-4.85084e-08
2.51468e-06
-4.72899e-08
2.5334e-06
-4.63701e-08
2.55169e-06
-4.53924e-08
2.56946e-06
-4.41261e-08
2.58662e-06
-4.25101e-08
2.60311e-06
-4.05897e-08
2.61888e-06
-3.84541e-08
2.6339e-06
-3.61988e-08
2.64818e-06
-3.39257e-08
2.66175e-06
-3.17884e-08
2.6747e-06
-2.98942e-08
2.68712e-06
-2.82882e-08
2.69906e-06
-2.69673e-08
2.7106e-06
-2.59239e-08
2.72178e-06
-2.51263e-08
2.73266e-06
-2.45211e-08
2.74325e-06
-2.40426e-08
2.75356e-06
-2.36161e-08
2.76357e-06
-2.32091e-08
2.77331e-06
-2.28697e-08
2.78285e-06
-2.26653e-08
2.7923e-06
-2.26916e-08
2.80177e-06
-2.29399e-08
2.81134e-06
-2.33997e-08
2.82115e-06
-2.41213e-08
2.83126e-06
-2.50476e-08
2.84176e-06
-2.61742e-08
2.85273e-06
-2.75668e-08
2.86432e-06
-2.92302e-08
2.87652e-06
-3.09503e-08
2.88929e-06
-3.2641e-08
2.9026e-06
-3.42607e-08
2.9164e-06
-3.57924e-08
2.93067e-06
-3.7212e-08
2.94535e-06
-3.84305e-08
2.96034e-06
-3.93497e-08
2.97551e-06
-3.98404e-08
2.99066e-06
-3.97433e-08
3.0055e-06
-3.89342e-08
3.01978e-06
-3.74188e-08
3.03331e-06
-3.53414e-08
3.04596e-06
-3.28618e-08
3.05762e-06
-3.00794e-08
3.06823e-06
-2.70887e-08
3.07776e-06
-2.40257e-08
3.08623e-06
-2.10373e-08
3.09372e-06
-1.82477e-08
3.10034e-06
-1.57361e-08
3.10621e-06
-1.35532e-08
3.11143e-06
-1.17276e-08
3.11615e-06
-1.02577e-08
3.12047e-06
-9.10864e-09
3.12449e-06
-8.21866e-09
3.12826e-06
-7.50031e-09
3.1318e-06
-6.86921e-09
3.13513e-06
-6.26471e-09
3.13822e-06
-5.63321e-09
3.14105e-06
-4.936e-09
3.14358e-06
-4.17469e-09
3.14579e-06
-3.40844e-09
3.14772e-06
-2.69566e-09
3.14938e-06
-2.05414e-09
3.15083e-06
-1.57047e-09
3.15216e-06
-1.32661e-09
3.15346e-06
-1.36225e-09
3.15488e-06
-1.78549e-09
3.15654e-06
-2.61609e-09
3.1586e-06
-3.85364e-09
3.16121e-06
-5.49216e-09
3.16452e-06
-7.49254e-09
3.16864e-06
-9.77741e-09
3.17362e-06
-1.22293e-08
3.17946e-06
-1.47027e-08
3.18613e-06
-1.70523e-08
3.19352e-06
-1.91618e-08
3.20151e-06
-2.09571e-08
3.20998e-06
-2.24008e-08
3.2188e-06
-2.34734e-08
3.22783e-06
-2.41593e-08
3.23695e-06
-2.44397e-08
3.246e-06
-2.42892e-08
3.25483e-06
-2.3681e-08
3.26327e-06
-2.26079e-08
3.27116e-06
-2.11029e-08
-1.9238e-08
3.1133e-06
-8.66531e-08
3.14239e-06
-1.144e-07
3.17503e-06
-1.35299e-07
3.2106e-06
-1.48737e-07
3.24744e-06
-1.53316e-07
3.28516e-06
-1.51377e-07
3.32269e-06
-1.43321e-07
3.35891e-06
-1.30554e-07
3.3929e-06
-1.14922e-07
3.42405e-06
-9.83293e-08
3.45221e-06
-8.27016e-08
3.47745e-06
-6.93333e-08
3.49992e-06
-5.91254e-08
3.51989e-06
-5.2614e-08
3.53775e-06
-5.0146e-08
3.55396e-06
-5.16958e-08
3.56904e-06
-5.67654e-08
3.58381e-06
-6.46969e-08
3.59938e-06
-7.48083e-08
3.6166e-06
-8.5738e-08
3.63565e-06
-9.56209e-08
3.65649e-06
-1.03271e-07
3.67907e-06
-1.08794e-07
3.70338e-06
-1.122e-07
3.72908e-06
-1.13237e-07
3.7561e-06
-1.12691e-07
3.78426e-06
-1.10773e-07
3.81319e-06
-1.07676e-07
3.84238e-06
-1.03537e-07
3.8712e-06
-9.85219e-08
3.899e-06
-9.28862e-08
3.92516e-06
-8.69659e-08
3.94951e-06
-8.15227e-08
3.97208e-06
-7.69123e-08
3.99274e-06
-7.27012e-08
4.01123e-06
-6.86084e-08
4.02752e-06
-6.48015e-08
4.04188e-06
-6.16454e-08
4.05465e-06
-5.91393e-08
4.06624e-06
-5.69788e-08
4.07703e-06
-5.49177e-08
4.08724e-06
-5.27215e-08
4.09701e-06
-5.03593e-08
4.10651e-06
-4.79542e-08
4.1159e-06
-4.5595e-08
4.12532e-06
-4.33438e-08
4.13487e-06
-4.13395e-08
4.14455e-06
-3.95729e-08
4.15428e-06
-3.80207e-08
4.16391e-06
-3.65919e-08
4.17331e-06
-3.53209e-08
4.18233e-06
-3.41521e-08
4.19084e-06
-3.30297e-08
4.19869e-06
-3.18962e-08
4.20573e-06
-3.06481e-08
4.2118e-06
-2.92779e-08
4.2169e-06
-2.79701e-08
4.2211e-06
-2.68707e-08
4.22474e-06
-2.63318e-08
4.22811e-06
-2.63121e-08
4.23144e-06
-2.67302e-08
4.235e-06
-2.76823e-08
4.2391e-06
-2.91456e-08
4.24401e-06
-3.10863e-08
4.25e-06
-3.35474e-08
4.25723e-06
-3.64652e-08
4.26576e-06
-3.9484e-08
4.2755e-06
-4.23745e-08
4.28629e-06
-4.50502e-08
4.29799e-06
-4.7492e-08
4.31049e-06
-4.97201e-08
4.32362e-06
-5.15571e-08
4.33717e-06
-5.28952e-08
4.35089e-06
-5.35676e-08
4.36449e-06
-5.33365e-08
4.37754e-06
-5.19915e-08
4.38969e-06
-4.95632e-08
4.40072e-06
-4.63738e-08
4.41059e-06
-4.27329e-08
4.41926e-06
-3.875e-08
4.42671e-06
-3.4532e-08
4.43296e-06
-3.02816e-08
4.43814e-06
-2.62168e-08
4.4424e-06
-2.25063e-08
4.44589e-06
-1.92228e-08
4.44875e-06
-1.64144e-08
4.45114e-06
-1.41147e-08
4.45319e-06
-1.2314e-08
4.45504e-06
-1.09534e-08
4.45675e-06
-9.93745e-09
4.45837e-06
-9.11335e-09
4.45985e-06
-8.34803e-09
4.46113e-06
-7.55273e-09
4.46215e-06
-6.65319e-09
4.46281e-06
-5.59133e-09
4.46302e-06
-4.38176e-09
4.46275e-06
-3.14488e-09
4.46204e-06
-1.98587e-09
4.46091e-06
-9.15453e-10
4.4594e-06
-6.43354e-11
4.45764e-06
4.30121e-10
4.45582e-06
4.57326e-10
4.4541e-06
-6.34059e-11
4.45267e-06
-1.18485e-09
4.45173e-06
-2.91825e-09
4.45151e-06
-5.26669e-09
4.45219e-06
-8.17486e-09
4.45394e-06
-1.15259e-08
4.45685e-06
-1.5144e-08
4.46094e-06
-1.87909e-08
4.46612e-06
-2.22291e-08
4.47224e-06
-2.52814e-08
4.47912e-06
-2.78431e-08
4.4866e-06
-2.98767e-08
4.4945e-06
-3.13764e-08
4.50268e-06
-3.234e-08
4.511e-06
-3.27542e-08
4.51929e-06
-3.25796e-08
4.52737e-06
-3.17617e-08
4.53504e-06
-3.02747e-08
4.54209e-06
-2.81596e-08
-2.55232e-08
4.89875e-06
-8.41221e-08
4.89957e-06
-1.15218e-07
4.9052e-06
-1.40931e-07
4.91676e-06
-1.60297e-07
4.93456e-06
-1.71113e-07
4.95805e-06
-1.74867e-07
4.98679e-06
-1.72065e-07
5.02045e-06
-1.64205e-07
5.0575e-06
-1.51975e-07
5.09512e-06
-1.35956e-07
5.13082e-06
-1.18401e-07
5.16307e-06
-1.01579e-07
5.19131e-06
-8.73677e-08
5.2156e-06
-7.69068e-08
5.23625e-06
-7.07924e-08
5.25336e-06
-6.88071e-08
5.26683e-06
-7.02317e-08
5.27665e-06
-7.45221e-08
5.28342e-06
-8.15726e-08
5.28853e-06
-9.08511e-08
5.29301e-06
-1.00096e-07
5.29745e-06
-1.07717e-07
5.30223e-06
-1.13575e-07
5.30795e-06
-1.17919e-07
5.3154e-06
-1.2069e-07
5.32501e-06
-1.22301e-07
5.33706e-06
-1.22819e-07
5.35189e-06
-1.22504e-07
5.36962e-06
-1.21264e-07
5.39002e-06
-1.18929e-07
5.41243e-06
-1.1529e-07
5.43596e-06
-1.10496e-07
5.45986e-06
-1.05429e-07
5.48317e-06
-1.00215e-07
5.50458e-06
-9.41183e-08
5.52268e-06
-8.67062e-08
5.53667e-06
-7.87884e-08
5.54656e-06
-7.15385e-08
5.55277e-06
-6.53474e-08
5.55596e-06
-6.01737e-08
5.55713e-06
-5.60836e-08
5.55707e-06
-5.2667e-08
5.55634e-06
-4.96264e-08
5.55563e-06
-4.72414e-08
5.55569e-06
-4.56579e-08
5.55709e-06
-4.47468e-08
5.56018e-06
-4.44258e-08
5.56508e-06
-4.44707e-08
5.57168e-06
-4.46176e-08
5.57939e-06
-4.43066e-08
5.58763e-06
-4.35556e-08
5.59562e-06
-4.21436e-08
5.60277e-06
-4.01848e-08
5.60872e-06
-3.78422e-08
5.6131e-06
-3.50297e-08
5.61559e-06
-3.1767e-08
5.61605e-06
-2.84359e-08
5.61442e-06
-2.52388e-08
5.6111e-06
-2.30084e-08
5.60666e-06
-2.18767e-08
5.60166e-06
-2.17289e-08
5.59656e-06
-2.25766e-08
5.59187e-06
-2.44556e-08
5.58815e-06
-2.73713e-08
5.58591e-06
-3.13047e-08
5.58553e-06
-3.60839e-08
5.5873e-06
-4.12522e-08
5.59119e-06
-4.62718e-08
5.5971e-06
-5.09575e-08
5.60494e-06
-5.53292e-08
5.6146e-06
-5.9384e-08
5.62591e-06
-6.28631e-08
5.63862e-06
-6.56057e-08
5.65239e-06
-6.73379e-08
5.66663e-06
-6.75817e-08
5.68047e-06
-6.58321e-08
5.6931e-06
-6.21922e-08
5.70415e-06
-5.74186e-08
5.71353e-06
-5.21113e-08
5.72106e-06
-4.62833e-08
5.7266e-06
-4.00738e-08
5.73018e-06
-3.38595e-08
5.73196e-06
-2.79974e-08
5.73226e-06
-2.2804e-08
5.73136e-06
-1.8329e-08
5.72958e-06
-1.46351e-08
5.72724e-06
-1.17712e-08
5.72462e-06
-9.68919e-09
5.72193e-06
-8.26425e-09
5.71932e-06
-7.33307e-09
5.71688e-06
-6.66937e-09
5.71458e-06
-6.05406e-09
5.71234e-06