/*--------------------------------*- C++ -*----------------------------------*\
| =========                 |                                                 |
| \\      /  F ield         | OpenFOAM: The Open Source CFD Toolbox           |
|  \\    /   O peration     | Version:  2206                                  |
|   \\  /    A nd           | Website:  www.openfoam.com                      |
|    \\/     M anipulation  |                                                 |
\*---------------------------------------------------------------------------*/
FoamFile
{
    version     2.0;
    format      ascii;
    arch        "LSB;label=32;scalar=64";
    class       surfaceScalarField;
    location    "19.7001";
    object      phi_0;
}
// * * * * * * * * * * * * * * * * * * * * * * * * * * * * * * * * * * * * * //

dimensions      [0 3 -1 0 0 0 0];

oriented        oriented;

internalField   nonuniform List<scalar> 
5898
(
7.38823e-06
8.81181e-10
-1.11466e-09
7.38893e-06
2.63849e-09
-3.33944e-09
7.3901e-06
4.37043e-09
-5.53312e-09
7.39171e-06
6.06272e-09
-7.67675e-09
7.39376e-06
7.70344e-09
-9.75462e-09
7.39623e-06
9.28316e-09
-1.17543e-08
7.39911e-06
1.07942e-08
-1.3666e-08
7.40236e-06
1.22306e-08
-1.54818e-08
7.40596e-06
1.35881e-08
-1.71963e-08
7.40991e-06
1.48641e-08
-1.88066e-08
7.41416e-06
1.60577e-08
-2.03113e-08
7.4187e-06
1.71691e-08
-2.17111e-08
7.42351e-06
1.81995e-08
-2.30075e-08
7.42856e-06
1.91507e-08
-2.42032e-08
7.43384e-06
2.00252e-08
-2.53013e-08
7.43932e-06
2.08257e-08
-2.63053e-08
7.44498e-06
2.15549e-08
-2.72188e-08
7.45081e-06
2.22154e-08
-2.80455e-08
7.45679e-06
2.28099e-08
-2.87885e-08
7.4629e-06
2.33404e-08
-2.94509e-08
7.46913e-06
2.38091e-08
-3.00353e-08
7.47545e-06
2.42175e-08
-3.0544e-08
7.48187e-06
2.45668e-08
-3.09786e-08
7.48835e-06
2.4858e-08
-3.13405e-08
7.49489e-06
2.50916e-08
-3.16307e-08
7.50147e-06
2.5268e-08
-3.18496e-08
7.50808e-06
2.5387e-08
-3.19976e-08
7.51471e-06
2.54486e-08
-3.20745e-08
7.52133e-06
2.5452e-08
-3.20799e-08
7.52795e-06
2.53972e-08
-3.20137e-08
7.53454e-06
2.52833e-08
-3.18751e-08
7.5411e-06
2.51098e-08
-3.16635e-08
7.5476e-06
2.48759e-08
-3.13784e-08
7.55404e-06
2.45813e-08
-3.10191e-08
7.5604e-06
2.42252e-08
-3.05854e-08
7.56667e-06
2.38077e-08
-3.00768e-08
7.57283e-06
2.33281e-08
-2.94931e-08
7.57888e-06
2.27866e-08
-2.88341e-08
7.5848e-06
2.21824e-08
-2.80997e-08
7.59057e-06
2.15164e-08
-2.72897e-08
7.59619e-06
2.07872e-08
-2.64042e-08
7.60163e-06
1.99962e-08
-2.54429e-08
7.6069e-06
1.91412e-08
-2.44054e-08
7.61196e-06
1.82241e-08
-2.32912e-08
7.61682e-06
1.72412e-08
-2.20993e-08
7.62146e-06
1.61948e-08
-2.08286e-08
7.62585e-06
1.50794e-08
-1.94769e-08
7.63e-06
1.38973e-08
-1.80416e-08
7.63388e-06
1.26405e-08
-1.65196e-08
7.63747e-06
1.1311e-08
-1.49056e-08
7.64077e-06
9.89819e-09
-1.31958e-08
7.64375e-06
8.40216e-09
-1.13806e-08
7.64639e-06
6.81034e-09
-9.45635e-09
7.64868e-06
5.11964e-09
-7.40775e-09
7.6506e-06
3.31763e-09
-5.23245e-09
7.65211e-06
1.39716e-09
-2.90883e-09
7.6532e-06
-6.49778e-10
-4.38444e-10
7.65382e-06
-2.83661e-09
2.21524e-09
7.65394e-06
-5.19716e-09
5.07035e-09
7.65354e-06
-7.74458e-09
8.15009e-09
7.65256e-06
-1.05022e-08
1.14826e-08
7.65095e-06
-1.34966e-08
1.50995e-08
7.64868e-06
-1.67577e-08
1.90364e-08
7.64566e-06
-2.03196e-08
2.33349e-08
7.64184e-06
-2.4222e-08
2.80423e-08
7.63714e-06
-2.85101e-08
3.32131e-08
7.63146e-06
-3.32361e-08
3.89093e-08
7.62472e-06
-3.84596e-08
4.52024e-08
7.6168e-06
-4.42492e-08
5.21745e-08
7.60756e-06
-5.06844e-08
5.99203e-08
7.59687e-06
-5.7857e-08
6.85492e-08
7.58455e-06
-6.58739e-08
7.81884e-08
7.57043e-06
-7.48592e-08
8.89854e-08
7.55427e-06
-8.4959e-08
1.01113e-07
7.53584e-06
-9.63442e-08
1.14773e-07
7.51486e-06
-1.09217e-07
1.30205e-07
7.49098e-06
-1.23818e-07
1.47689e-07
7.46386e-06
-1.40432e-07
1.6756e-07
7.43304e-06
-1.59404e-07
1.90219e-07
7.39804e-06
-1.81147e-07
2.16145e-07
7.35829e-06
-2.06162e-07
2.45918e-07
7.31311e-06
-2.35065e-07
2.80242e-07
7.26174e-06
-2.68609e-07
3.19977e-07
7.20329e-06
-3.07727e-07
3.66183e-07
7.1367e-06
-3.53585e-07
4.20169e-07
7.06078e-06
-4.07647e-07
4.83574e-07
6.97409e-06
-4.71769e-07
5.58456e-07
6.87498e-06
-5.48323e-07
6.47431e-07
6.7615e-06
-6.40368e-07
7.53846e-07
6.63134e-06
-7.51886e-07
8.82046e-07
6.48173e-06
-8.88106e-07
1.03772e-06
6.30923e-06
-1.05599e-06
1.22849e-06
6.10949e-06
-1.26482e-06
1.46456e-06
5.87603e-06
-1.52739e-06
1.76085e-06
5.59997e-06
-1.86065e-06
2.13671e-06
5.25962e-06
-2.29e-06
2.63035e-06
4.82419e-06
-2.84233e-06
3.27776e-06
4.13563e-06
-3.57956e-06
4.26812e-06
3.01085e-06
-4.47232e-06
5.59709e-06
-6.12715e-06
9.138e-06
7.38823e-06
6.54572e-10
7.38891e-06
1.95822e-09
7.39004e-06
3.24164e-09
7.3916e-06
4.49467e-09
7.3936e-06
5.70884e-09
7.396e-06
6.87747e-09
7.3988e-06
7.99511e-09
7.40198e-06
9.0575e-09
7.4055e-06
1.00616e-08
7.40936e-06
1.10057e-08
7.41353e-06
1.18892e-08
7.41799e-06
1.27121e-08
7.42271e-06
1.34756e-08
7.42768e-06
1.41809e-08
7.43288e-06
1.48299e-08
7.43828e-06
1.54246e-08
7.44386e-06
1.59671e-08
7.44962e-06
1.64592e-08
7.45553e-06
1.69027e-08
7.46157e-06
1.72992e-08
7.46773e-06
1.76501e-08
7.47399e-06
1.79564e-08
7.48034e-06
1.82189e-08
7.48676e-06
1.8438e-08
7.49323e-06
1.86139e-08
7.49976e-06
1.87467e-08
7.50631e-06
1.8836e-08
7.51287e-06
1.88818e-08
7.51944e-06
1.88827e-08
7.526e-06
1.8839e-08
7.53253e-06
1.87496e-08
7.53903e-06
1.86141e-08
7.54548e-06
1.84313e-08
7.55186e-06
1.82014e-08
7.55816e-06
1.79231e-08
7.56437e-06
1.75969e-08
7.57047e-06
1.72214e-08
7.57646e-06
1.67978e-08
7.58232e-06
1.63242e-08
7.58804e-06
1.58026e-08
7.59359e-06
1.52305e-08
7.59898e-06
1.46106e-08
7.60418e-06
1.39393e-08
7.60918e-06
1.32205e-08
7.61398e-06
1.24485e-08
7.61854e-06
1.16286e-08
7.62287e-06
1.07524e-08
7.62694e-06
9.8268e-09
7.63074e-06
8.83977e-09
7.63425e-06
7.79964e-09
7.63746e-06
6.69011e-09
7.64034e-06
5.5209e-09
7.64288e-06
4.27018e-09
7.64505e-06
2.94925e-09
7.64684e-06
1.53021e-09
7.64821e-06
2.90012e-11
7.64914e-06
-1.58634e-09
7.64959e-06
-3.28599e-09
7.64953e-06
-5.13261e-09
7.64891e-06
-7.12529e-09
7.64769e-06
-9.2818e-09
7.64582e-06
-1.1624e-08
7.64323e-06
-1.41752e-08
7.63988e-06
-1.69617e-08
7.63567e-06
-2.00143e-08
7.63053e-06
-2.33685e-08
7.62435e-06
-2.70649e-08
7.61705e-06
-3.11502e-08
7.60847e-06
-3.56781e-08
7.5985e-06
-4.07106e-08
7.58696e-06
-4.63197e-08
7.57368e-06
-5.25889e-08
7.55843e-06
-5.9616e-08
7.54099e-06
-6.75151e-08
7.52107e-06
-7.64211e-08
7.49834e-06
-8.64932e-08
7.47245e-06
-9.79208e-08
7.44294e-06
-1.10931e-07
7.40934e-06
-1.25795e-07
7.37103e-06
-1.42844e-07
7.32735e-06
-1.62479e-07
7.27748e-06
-1.85193e-07
7.22046e-06
-2.11593e-07
7.15517e-06
-2.42436e-07
7.08026e-06
-2.7867e-07
6.9941e-06
-3.2149e-07
6.89475e-06
-3.72421e-07
6.77984e-06
-4.33413e-07
6.64646e-06
-5.0699e-07
6.49101e-06
-5.96431e-07
6.30892e-06
-7.06017e-07
6.0943e-06
-8.41363e-07
5.83927e-06
-1.00979e-06
5.5327e-06
-1.22083e-06
5.15847e-06
-1.48642e-06
4.6898e-06
-1.82133e-06
4.08962e-06
-2.24215e-06
3.27472e-06
-2.76465e-06
2.20732e-06
-3.40492e-06
-3.91983e-06
7.38822e-06
4.32931e-10
7.38889e-06
1.29293e-09
7.38999e-06
2.13741e-09
7.39153e-06
2.96e-09
7.39348e-06
3.75543e-09
7.39584e-06
4.51959e-09
7.39858e-06
5.2492e-09
7.4017e-06
5.94174e-09
7.40516e-06
6.5955e-09
7.40896e-06
7.20959e-09
7.41307e-06
7.7838e-09
7.41746e-06
8.31852e-09
7.42212e-06
8.81455e-09
7.42703e-06
9.27304e-09
7.43216e-06
9.69532e-09
7.43751e-06
1.00828e-08
7.44304e-06
1.04368e-08
7.44874e-06
1.07588e-08
7.45459e-06
1.10497e-08
7.46058e-06
1.13107e-08
7.46669e-06
1.15423e-08
7.4729e-06
1.17452e-08
7.4792e-06
1.19196e-08
7.48557e-06
1.20655e-08
7.492e-06
1.21829e-08
7.49847e-06
1.22714e-08
7.50498e-06
1.23305e-08
7.5115e-06
1.23598e-08
7.51803e-06
1.23581e-08
7.52454e-06
1.23253e-08
7.53103e-06
1.22601e-08
7.53748e-06
1.21625e-08
7.54388e-06
1.20309e-08
7.55022e-06
1.18657e-08
7.55648e-06
1.16652e-08
7.56264e-06
1.14305e-08
7.5687e-06
1.11594e-08
7.57465e-06
1.08539e-08
7.58046e-06
1.05114e-08
7.58613e-06
1.01346e-08
7.59164e-06
9.72024e-09
7.59698e-06
9.27213e-09
7.60213e-06
8.78572e-09
7.60709e-06
8.26623e-09
7.61183e-06
7.70689e-09
7.61634e-06
7.1151e-09
7.62061e-06
6.48076e-09
7.62462e-06
5.81395e-09
7.62836e-06
5.10034e-09
7.63181e-06
4.35296e-09
7.63495e-06
3.55212e-09
7.63775e-06
2.71486e-09
7.64021e-06
1.81315e-09
7.64229e-06
8.70603e-10
7.64397e-06
-1.53997e-10
7.64523e-06
-1.22496e-09
7.64604e-06
-2.40083e-09
7.64636e-06
-3.60098e-09
7.64614e-06
-4.91797e-09
7.64536e-06
-6.3382e-09
7.64395e-06
-7.87345e-09
7.64186e-06
-9.54036e-09
7.63904e-06
-1.13552e-08
7.63542e-06
-1.33357e-08
7.63091e-06
-1.55035e-08
7.62542e-06
-1.78836e-08
7.61886e-06
-2.05043e-08
7.61111e-06
-2.33982e-08
7.60203e-06
-2.66026e-08
7.59148e-06
-3.01606e-08
7.57929e-06
-3.41223e-08
7.56524e-06
-3.8546e-08
7.54913e-06
-4.34994e-08
7.53067e-06
-4.9062e-08
7.50958e-06
-5.53277e-08
7.4855e-06
-6.2407e-08
7.45801e-06
-7.0432e-08
7.42664e-06
-7.95607e-08
7.39082e-06
-8.99834e-08
7.34991e-06
-1.01931e-07
7.30312e-06
-1.15684e-07
7.24951e-06
-1.3159e-07
7.188e-06
-1.50076e-07
7.11724e-06
-1.71677e-07
7.03563e-06
-1.97064e-07
6.94123e-06
-2.27085e-07
6.83163e-06
-2.62824e-07
6.70388e-06
-3.05669e-07
6.55431e-06
-3.57414e-07
6.37826e-06
-4.20379e-07
6.16981e-06
-4.97573e-07
5.92132e-06
-5.92875e-07
5.62275e-06
-7.11217e-07
5.26063e-06
-8.58705e-07
4.81661e-06
-1.0424e-06
4.26494e-06
-1.26967e-06
3.56849e-06
-1.5457e-06
2.66963e-06
-1.86579e-06
1.47658e-06
-2.21187e-06
-2.44325e-06
7.38822e-06
7.38887e-06
7.38996e-06
7.39148e-06
7.3934e-06
7.39573e-06
2.19309e-09
7.39844e-06
2.5383e-09
7.40152e-06
2.86383e-09
7.40494e-06
3.16929e-09
7.4087e-06
3.45474e-09
7.41276e-06
3.72051e-09
7.41711e-06
3.96724e-09
7.42173e-06
4.19572e-09
7.4266e-06
4.40687e-09
7.43169e-06
4.60164e-09
7.43699e-06
4.78095e-09
7.44248e-06
4.94563e-09
7.44815e-06
5.09638e-09
7.45396e-06
5.23372e-09
7.45992e-06
5.35803e-09
7.46599e-06
5.46947e-09
7.47217e-06
5.56805e-09
7.47843e-06
5.65357e-09
7.48477e-06
5.72568e-09
7.49117e-06
5.7839e-09
7.49761e-06
5.82761e-09
7.50409e-06
5.85606e-09
7.51058e-06
5.86859e-09
7.51707e-06
5.86407e-09
7.52356e-06
5.84206e-09
7.53002e-06
5.80092e-09
7.53644e-06
5.74119e-09
7.54281e-06
5.66089e-09
7.54911e-06
5.56038e-09
7.55534e-06
5.43792e-09
7.56148e-06
5.29464e-09
7.56751e-06
5.12836e-09
7.57342e-06
4.94109e-09
7.5792e-06
4.73013e-09
7.58484e-06
4.49844e-09
7.59031e-06
4.24265e-09
7.59562e-06
3.96677e-09
7.60074e-06
3.66639e-09
7.60566e-06
3.34676e-09
7.61036e-06
3.00193e-09
7.61484e-06
2.63882e-09
7.61907e-06
2.249e-09
7.62304e-06
1.84182e-09
7.62674e-06
1.40524e-09
7.63014e-06
9.51716e-10
7.63323e-06
4.64594e-10
7.63598e-06
-3.94979e-11
7.63838e-06
-5.84983e-10
7.6404e-06
-1.14584e-09
7.64201e-06
-1.76436e-09
7.64318e-06
-2.39492e-09
7.64389e-06
-3.11736e-09
7.64412e-06
-3.82238e-09
7.64379e-06
-4.59725e-09
7.64289e-06
-5.43185e-09
7.64135e-06
-6.33141e-09
7.63911e-06
-7.30725e-09
7.63613e-06
-8.36751e-09
7.63231e-06
-9.52132e-09
7.62759e-06
-1.07805e-08
7.62186e-06
-1.21588e-08
7.61503e-06
-1.36717e-08
7.60697e-06
-1.53369e-08
7.59754e-06
-1.71745e-08
7.58659e-06
-1.92078e-08
7.57393e-06
-2.14638e-08
7.55936e-06
-2.39735e-08
7.54263e-06
-2.67733e-08
7.52347e-06
-2.99051e-08
7.50157e-06
-3.34184e-08
7.47653e-06
-3.73715e-08
7.44793e-06
-4.18339e-08
7.41526e-06
-4.68884e-08
7.37791e-06
-5.26348e-08
7.33517e-06
-5.9194e-08
7.2862e-06
-6.67137e-08
7.22999e-06
-7.53752e-08
7.16532e-06
-8.54031e-08
7.09072e-06
-9.70775e-08
7.0044e-06
-1.1075e-07
6.90418e-06
-1.26866e-07
6.78735e-06
-1.45993e-07
6.65054e-06
-1.68857e-07
6.48952e-06
-1.96395e-07
6.29896e-06
-2.29811e-07
6.07204e-06
-2.70658e-07
5.80008e-06
-3.2091e-07
5.47189e-06
-3.83032e-07
5.07315e-06
-4.59965e-07
4.58569e-06
-5.54942e-07
3.98695e-06
-6.70927e-07
3.25033e-06
-8.09072e-07
2.34952e-06
-9.6498e-07
1.2635e-06
-1.12585e-06
-1.17975e-06
7.39567e-06
7.39837e-06
7.40143e-06
7.40483e-06
7.40857e-06
7.41261e-06
7.41694e-06
7.42153e-06
7.42638e-06
7.43145e-06
7.43673e-06
7.4422e-06
7.44784e-06
7.45364e-06
7.45957e-06
7.46563e-06
7.47179e-06
7.47804e-06
7.48436e-06
7.49074e-06
7.49717e-06
7.50362e-06
7.5101e-06
7.51658e-06
7.52304e-06
7.52949e-06
7.53589e-06
7.54225e-06
7.54853e-06
7.55474e-06
7.56086e-06
7.56688e-06
7.57277e-06
7.57854e-06
7.58415e-06
7.58961e-06
7.5949e-06
7.6e-06
7.6049e-06
7.60958e-06
7.61404e-06
7.61824e-06
7.62219e-06
7.62586e-06
7.62923e-06
7.63229e-06
7.63502e-06
7.63738e-06
7.63937e-06
7.64094e-06
7.64207e-06
7.64271e-06
7.64287e-06
7.64249e-06
7.64151e-06
7.63989e-06
7.63757e-06
7.63449e-06
7.63057e-06
7.62573e-06
7.61987e-06
7.61288e-06
7.60465e-06
7.59503e-06
7.58386e-06
7.57095e-06
7.55609e-06
7.53903e-06
7.5195e-06
7.49715e-06
7.47161e-06
7.44242e-06
7.40905e-06
7.37088e-06
7.32718e-06
7.27706e-06
7.21946e-06
7.15312e-06
7.0765e-06
6.9877e-06
6.88443e-06
6.7638e-06
6.62224e-06
6.45524e-06
6.25713e-06
6.02067e-06
5.73669e-06
5.39356e-06
4.97672e-06
4.46836e-06
3.84768e-06
3.09261e-06
2.18515e-06
1.11983e-06
7.31324e-06
7.47586e-08
7.20832e-06
1.04921e-07
7.09551e-06
1.12809e-07
6.97861e-06
1.16899e-07
6.8575e-06
1.21109e-07
6.73308e-06
1.24423e-07
6.60675e-06
1.26332e-07
6.47905e-06
1.27698e-07
6.35054e-06
1.28507e-07
6.2215e-06
1.29048e-07
6.09212e-06
1.29381e-07
5.96267e-06
1.29446e-07
5.83336e-06
1.29314e-07
5.70427e-06
1.29087e-07
5.57549e-06
1.2878e-07
5.44711e-06
1.28378e-07
5.31923e-06
1.27882e-07
5.19194e-06
1.27291e-07
5.06533e-06
1.26608e-07
4.93949e-06
1.25837e-07
4.81452e-06
1.24976e-07
4.69049e-06
1.2403e-07
4.56751e-06
1.22981e-07
4.44565e-06
1.21854e-07
4.32499e-06
1.20667e-07
4.20548e-06
1.19501e-07
4.08711e-06
1.18374e-07
3.97019e-06
1.16917e-07
3.8552e-06
1.14995e-07
3.74238e-06
1.12821e-07
3.63194e-06
1.10437e-07
3.52411e-06
1.07832e-07
3.4191e-06
1.05009e-07
3.31712e-06
1.01979e-07
3.21837e-06
9.87485e-08
3.12304e-06
9.53272e-08
3.03132e-06
9.17274e-08
2.94335e-06
8.79604e-08
2.85932e-06
8.4032e-08
2.77936e-06
7.99608e-08
2.70366e-06
7.56991e-08
2.63236e-06
7.13054e-08
2.56541e-06
6.6943e-08
2.50286e-06
6.25586e-08
2.44471e-06
5.81507e-08
2.39096e-06
5.37482e-08
2.34158e-06
4.93741e-08
2.29653e-06
4.50493e-08
2.25573e-06
4.0804e-08
2.21907e-06
3.66579e-08
2.18644e-06
3.26329e-08
2.15772e-06
2.87215e-08
2.13274e-06
2.49728e-08
2.11139e-06
2.13593e-08
2.09349e-06
1.7892e-08
2.07895e-06
1.45395e-08
2.06763e-06
1.13204e-08
2.05946e-06
8.16969e-09
2.05433e-06
5.13341e-09
2.05236e-06
1.97206e-09
2.0534e-06
-1.03848e-09
2.05751e-06
-4.11334e-09
2.06479e-06
-7.28375e-09
2.07513e-06
-1.03369e-08
2.08848e-06
-1.33507e-08
2.10483e-06
-1.63516e-08
2.12426e-06
-1.94312e-08
2.1468e-06
-2.25369e-08
2.17262e-06
-2.58166e-08
2.20182e-06
-2.91989e-08
2.23455e-06
-3.2732e-08
2.271e-06
-3.64518e-08
2.3114e-06
-4.0402e-08
2.35601e-06
-4.46124e-08
2.40511e-06
-4.90962e-08
2.45899e-06
-5.38782e-08
2.51797e-06
-5.89788e-08
2.58238e-06
-6.44122e-08
2.65257e-06
-7.01869e-08
2.72887e-06
-7.63034e-08
2.81162e-06
-8.2754e-08
2.90115e-06
-8.95287e-08
2.99777e-06
-9.6615e-08
3.10176e-06
-1.03992e-07
3.21341e-06
-1.11645e-07
3.33295e-06
-1.19549e-07
3.46061e-06
-1.27657e-07
3.59651e-06
-1.35899e-07
3.74072e-06
-1.44207e-07
3.89316e-06
-1.52443e-07
4.05353e-06
-1.60372e-07
4.22134e-06
-1.67802e-07
4.39597e-06
-1.74632e-07
4.57669e-06
-1.80721e-07
4.76239e-06
-1.85702e-07
4.95161e-06
-1.89222e-07
5.14276e-06
-1.91147e-07
5.33413e-06
-1.91373e-07
5.52394e-06
-1.89812e-07
-1.86622e-07
5.71057e-06
7.42843e-06
3.43326e-08
7.45809e-06
7.5256e-08
7.47708e-06
9.38215e-08
7.48778e-06
1.06192e-07
7.4933e-06
1.15594e-07
7.49464e-06
1.23078e-07
7.49217e-06
1.28807e-07
7.48634e-06
1.3353e-07
7.47745e-06
1.37398e-07
7.46567e-06
1.40825e-07
7.45118e-06
1.43867e-07
7.43437e-06
1.46258e-07
7.41531e-06
1.4837e-07
7.39404e-06
1.50364e-07
7.37061e-06
1.52206e-07
7.34512e-06
1.5387e-07
7.31764e-06
1.55359e-07
7.28825e-06
1.56686e-07
7.25701e-06
1.57851e-07
7.22397e-06
1.58874e-07
7.18921e-06
1.59737e-07
7.15276e-06
1.60481e-07
7.11472e-06
1.61021e-07
7.07513e-06
1.61442e-07
7.03408e-06
1.61716e-07
6.99167e-06
1.61911e-07
6.94813e-06
1.61909e-07
6.90354e-06
1.61512e-07
6.85782e-06
1.60719e-07
6.81107e-06
1.59563e-07
6.76344e-06
1.58075e-07
6.71501e-06
1.56256e-07
6.66592e-06
1.54097e-07
6.6163e-06
1.51599e-07
6.56629e-06
1.48767e-07
6.51599e-06
1.45621e-07
6.46555e-06
1.4217e-07
6.41511e-06
1.38404e-07
6.3648e-06
1.34344e-07
6.31475e-06
1.30009e-07
6.26499e-06
1.25457e-07
6.21563e-06
1.20669e-07
6.16692e-06
1.15648e-07
6.11904e-06
1.10434e-07
6.07212e-06
1.05073e-07
6.02628e-06
9.9593e-08
5.98163e-06
9.40201e-08
5.93831e-06
8.83755e-08
5.8964e-06
8.271e-08
5.85601e-06
7.70476e-08
5.81722e-06
7.14243e-08
5.7801e-06
6.58425e-08
5.74473e-06
6.03357e-08
5.7112e-06
5.48894e-08
5.67958e-06
4.95122e-08
5.64994e-06
4.41842e-08
5.62234e-06
3.89194e-08
5.59685e-06
3.36579e-08
5.5736e-06
2.83829e-08
5.55252e-06
2.30513e-08
5.53377e-06
1.77171e-08
5.51731e-06
1.23419e-08
5.50322e-06
6.80563e-09
5.49165e-06
1.23399e-09
5.48299e-06
-4.68624e-09
5.47741e-06
-1.07774e-08
5.47505e-06
-1.70671e-08
5.47597e-06
-2.34584e-08
5.48038e-06
-3.02236e-08
5.48852e-06
-3.73372e-08
5.50062e-06
-4.4832e-08
5.51691e-06
-5.27493e-08
5.53765e-06
-6.11359e-08
5.56307e-06
-7.00353e-08
5.59346e-06
-7.94853e-08
5.6291e-06
-8.95228e-08
5.67031e-06
-1.0018e-07
5.71737e-06
-1.1148e-07
5.77062e-06
-1.23434e-07
5.83036e-06
-1.36044e-07
5.8969e-06
-1.4929e-07
5.97052e-06
-1.63155e-07
6.05155e-06
-1.77643e-07
6.14032e-06
-1.92757e-07
6.23713e-06
-2.08463e-07
6.34226e-06
-2.24677e-07
6.4559e-06
-2.41296e-07
6.57823e-06
-2.58224e-07
6.70941e-06
-2.75388e-07
6.84937e-06
-2.92407e-07
6.9978e-06
-3.08801e-07
7.15412e-06
-3.24125e-07
7.31742e-06
-3.37926e-07
7.48685e-06
-3.50157e-07
7.66182e-06
-3.60672e-07
7.84158e-06
-3.68979e-07
8.02511e-06
-3.74675e-07
8.21128e-06
-3.77549e-07
8.39894e-06
-3.77473e-07
-3.74088e-07
8.58641e-06
7.40207e-06
2.02657e-08
7.42299e-06
5.43302e-08
7.44208e-06
7.47352e-08
7.46006e-06
8.82153e-08
7.47657e-06
9.90803e-08
7.49156e-06
1.08086e-07
7.50488e-06
1.15489e-07
7.51691e-06
1.21499e-07
7.52777e-06
1.26538e-07
7.53786e-06
1.30737e-07
7.54727e-06
1.34451e-07
7.55548e-06
1.38053e-07
7.56249e-06
1.41363e-07
7.56854e-06
1.4431e-07
7.57378e-06
1.46967e-07
7.57827e-06
1.4938e-07
7.58202e-06
1.51605e-07
7.58504e-06
1.53664e-07
7.58735e-06
1.55549e-07
7.58895e-06
1.57269e-07
7.58986e-06
1.58824e-07
7.59009e-06
1.60256e-07
7.58961e-06
1.615e-07
7.58842e-06
1.62636e-07
7.58646e-06
1.63673e-07
7.58382e-06
1.6455e-07
7.58062e-06
1.65106e-07
7.57682e-06
1.65317e-07
7.57231e-06
1.65229e-07
7.56706e-06
1.64814e-07
7.56107e-06
1.64063e-07
7.55435e-06
1.62975e-07
7.54691e-06
1.61541e-07
7.53875e-06
1.59753e-07
7.52994e-06
1.57581e-07
7.52046e-06
1.551e-07
7.51029e-06
1.52335e-07
7.4995e-06
1.492e-07
7.48811e-06
1.45736e-07
7.47615e-06
1.41963e-07
7.46372e-06
1.37892e-07
7.45084e-06
1.33551e-07
7.43754e-06
1.28949e-07
7.42386e-06
1.24111e-07
7.40986e-06
1.19069e-07
7.39562e-06
1.13838e-07
7.38121e-06
1.08428e-07
7.36671e-06
1.02874e-07
7.3522e-06
9.72228e-08
7.33774e-06
9.15061e-08
7.32342e-06
8.57458e-08
7.3093e-06
7.99553e-08
7.29549e-06
7.4149e-08
7.28205e-06
6.83269e-08
7.26908e-06
6.24813e-08
7.25667e-06
5.65979e-08
7.2449e-06
5.06867e-08
7.23386e-06
4.47053e-08
7.22361e-06
3.8629e-08
7.21421e-06
3.24502e-08
7.20583e-06
2.60925e-08
7.19856e-06
1.96172e-08
7.19247e-06
1.28937e-08
7.1877e-06
6.00417e-09
7.18417e-06
-1.15709e-09
7.18215e-06
-8.75146e-09
7.18172e-06
-1.66385e-08
7.18317e-06
-2.49123e-08
7.18661e-06
-3.36574e-08
7.19219e-06
-4.29222e-08
7.20011e-06
-5.2755e-08
7.21057e-06
-6.32102e-08
7.22378e-06
-7.43467e-08
7.23997e-06
-8.62233e-08
7.25938e-06
-9.8896e-08
7.28228e-06
-1.12417e-07
7.30893e-06
-1.26834e-07
7.33963e-06
-1.42183e-07
7.37469e-06
-1.58487e-07
7.41439e-06
-1.75744e-07
7.45901e-06
-1.93912e-07
7.50884e-06
-2.12987e-07
7.56423e-06
-2.33031e-07
7.62552e-06
-2.54046e-07
7.69298e-06
-2.75929e-07
7.76687e-06
-2.98566e-07
7.84743e-06
-3.21852e-07
7.93493e-06
-3.45728e-07
8.0296e-06
-3.70057e-07
8.13115e-06
-3.93957e-07
8.23954e-06
-4.1719e-07
8.35442e-06
-4.39005e-07
8.47563e-06
-4.59137e-07
8.60373e-06
-4.7825e-07
8.73855e-06
-4.95496e-07
8.87955e-06
-5.09975e-07
9.02593e-06
-5.21064e-07
9.17669e-06
-5.28309e-07
9.33055e-06
-5.31331e-07
-5.29801e-07
9.48626e-06
7.3945e-06
1.37675e-08
7.40873e-06
4.0094e-08
7.42382e-06
5.9649e-08
7.43815e-06
7.38904e-08
7.45196e-06
8.52705e-08
7.4652e-06
9.48381e-08
7.47787e-06
1.02823e-07
7.48994e-06
1.09428e-07
7.50147e-06
1.15012e-07
7.51234e-06
1.19867e-07
7.52268e-06
1.24104e-07
7.53281e-06
1.27925e-07
7.54272e-06
1.31456e-07
7.55235e-06
1.34676e-07
7.56172e-06
1.37602e-07
7.57083e-06
1.40269e-07
7.5797e-06
1.42736e-07
7.58837e-06
1.4499e-07
7.59688e-06
1.47042e-07
7.60523e-06
1.4892e-07
7.61342e-06
1.50631e-07
7.62151e-06
1.52164e-07
7.62951e-06
1.53508e-07
7.63748e-06
1.54664e-07
7.64558e-06
1.55571e-07
7.65377e-06
1.56359e-07
7.66179e-06
1.5709e-07
7.66953e-06
1.57572e-07
7.67702e-06
1.57741e-07
7.68424e-06
1.57595e-07
7.69118e-06
1.57121e-07
7.69783e-06
1.56331e-07
7.70415e-06
1.55217e-07
7.71012e-06
1.53779e-07
7.71572e-06
1.51987e-07
7.7209e-06
1.49923e-07
7.72568e-06
1.47553e-07
7.73007e-06
1.44808e-07
7.73408e-06
1.41728e-07
7.73767e-06
1.38367e-07
7.74088e-06
1.3469e-07
7.74366e-06
1.30767e-07
7.74604e-06
1.26564e-07
7.74799e-06
1.22168e-07
7.74948e-06
1.17582e-07
7.75057e-06
1.12742e-07
7.75135e-06
1.0765e-07
7.75182e-06
1.02405e-07
7.752e-06
9.7046e-08
7.75191e-06
9.15919e-08
7.7516e-06
8.60516e-08
7.75112e-06
8.04397e-08
7.75051e-06
7.47616e-08
7.74982e-06
6.90131e-08
7.74913e-06
6.31708e-08
7.74851e-06
5.72221e-08
7.74802e-06
5.11756e-08
7.74771e-06
4.50144e-08
7.74763e-06
3.87045e-08
7.74787e-06
3.22185e-08
7.74844e-06
2.55218e-08
7.74945e-06
1.85989e-08
7.75095e-06
1.13983e-08
7.75305e-06
3.89985e-09
7.75585e-06
-3.95235e-09
7.75933e-06
-1.22305e-08
7.76364e-06
-2.09518e-08
7.7689e-06
-3.01745e-08
7.77521e-06
-3.99655e-08
7.78269e-06
-5.03968e-08
7.79147e-06
-6.15342e-08
7.8017e-06
-7.34433e-08
7.81355e-06
-8.61938e-08
7.82718e-06
-9.98574e-08
7.84279e-06
-1.14506e-07
7.86058e-06
-1.3021e-07
7.88079e-06
-1.47039e-07
7.90365e-06
-1.6505e-07
7.92947e-06
-1.84301e-07
7.95849e-06
-2.04765e-07
7.99092e-06
-2.26345e-07
8.02717e-06
-2.49232e-07
8.06775e-06
-2.73612e-07
8.11309e-06
-2.99389e-07
8.16361e-06
-3.26444e-07
8.21969e-06
-3.5465e-07
8.28167e-06
-3.83829e-07
8.34958e-06
-4.13637e-07
8.42315e-06
-4.43636e-07
8.50326e-06
-4.74057e-07
8.59053e-06
-5.04469e-07
8.68639e-06
-5.34857e-07
8.79193e-06
-5.64682e-07
8.90592e-06
-5.92238e-07
9.02744e-06
-6.17014e-07
9.15594e-06
-6.38472e-07
9.29078e-06
-6.55903e-07
9.43106e-06
-6.68592e-07
9.57564e-06
-6.75913e-07
-6.77367e-07
9.72321e-06
7.39141e-06
1.03544e-08
7.40023e-06
3.12762e-08
7.41102e-06
4.88563e-08
7.42215e-06
6.2765e-08
7.43338e-06
7.40417e-08
7.44463e-06
8.35877e-08
7.45572e-06
9.17302e-08
7.4665e-06
9.8646e-08
7.47696e-06
1.04555e-07
7.48713e-06
1.09694e-07
7.49703e-06
1.14203e-07
7.50673e-06
1.18225e-07
7.51631e-06
1.21876e-07
7.52579e-06
1.25195e-07
7.5352e-06
1.28198e-07
7.54454e-06
1.30925e-07
7.55386e-06
1.33412e-07
7.56318e-06
1.35678e-07
7.57248e-06
1.37738e-07
7.58179e-06
1.3961e-07
7.59113e-06
1.41295e-07
7.60048e-06
1.42814e-07
7.60982e-06
1.4416e-07
7.61916e-06
1.45323e-07
7.62844e-06
1.46294e-07
7.63772e-06
1.47077e-07
7.64711e-06
1.47701e-07
7.65656e-06
1.48128e-07
7.666e-06
1.48302e-07
7.6754e-06
1.4819e-07
7.68473e-06
1.47792e-07
7.69396e-06
1.47102e-07
7.70307e-06
1.46104e-07
7.71204e-06
1.44807e-07
7.72083e-06
1.43198e-07
7.72945e-06
1.41309e-07
7.73789e-06
1.39113e-07
7.74609e-06
1.36607e-07
7.75403e-06
1.3378e-07
7.76172e-06
1.3068e-07
7.76914e-06
1.27272e-07
7.77628e-06
1.23631e-07
7.78314e-06
1.19701e-07
7.78977e-06
1.1554e-07
7.79625e-06
1.11097e-07
7.80248e-06
1.06515e-07
7.8083e-06
1.01824e-07
7.81372e-06
9.69896e-08
7.81879e-06
9.19792e-08
7.82354e-06
8.68378e-08
7.82803e-06
8.15612e-08
7.83228e-06
7.61925e-08
7.8363e-06
7.07351e-08
7.84016e-06
6.51517e-08
7.84396e-06
5.93721e-08
7.84775e-06
5.34404e-08
7.85151e-06
4.74099e-08
7.85529e-06
4.12342e-08
7.85913e-06
3.4861e-08
7.86309e-06
2.82659e-08
7.8672e-06
2.14129e-08
7.87152e-06
1.42733e-08
7.87611e-06
6.80802e-09
7.88102e-06
-1.00587e-09
7.88629e-06
-9.22121e-09
7.89197e-06
-1.79127e-08
7.89816e-06
-2.71387e-08
7.90493e-06
-3.69511e-08
7.91239e-06
-4.74195e-08
7.92061e-06
-5.86231e-08
7.92972e-06
-7.06397e-08
7.93982e-06
-8.35473e-08
7.95106e-06
-9.74272e-08
7.96356e-06
-1.12364e-07
7.9775e-06
-1.28444e-07
7.99304e-06
-1.45753e-07
8.01038e-06
-1.64374e-07
8.02973e-06
-1.84399e-07
8.05133e-06
-2.05907e-07
8.07562e-06
-2.29053e-07
8.10333e-06
-2.54054e-07
8.13492e-06
-2.80822e-07
8.17053e-06
-3.09218e-07
8.21045e-06
-3.39312e-07
8.25513e-06
-3.71121e-07
8.30505e-06
-4.04572e-07
8.36074e-06
-4.39518e-07
8.42285e-06
-4.75749e-07
8.49218e-06
-5.12969e-07
8.56907e-06
-5.50945e-07
8.65396e-06
-5.8936e-07
8.74683e-06
-6.27727e-07
8.84756e-06
-6.6541e-07
8.95671e-06
-7.01387e-07
9.07427e-06
-7.34578e-07
9.19986e-06
-7.64055e-07
9.3328e-06
-7.88851e-07
9.47218e-06
-8.07971e-07
9.61677e-06
-8.20499e-07
-8.25691e-07
9.76509e-06
7.38995e-06
8.4013e-09
7.39576e-06
2.54687e-08
7.40383e-06
4.07842e-08
7.4129e-06
5.37021e-08
7.42241e-06
6.45307e-08
7.43216e-06
7.383e-08
7.44199e-06
8.19076e-08
7.45173e-06
8.89039e-08
7.46132e-06
9.4962e-08
7.47076e-06
1.00256e-07
7.48004e-06
1.04928e-07
7.48917e-06
1.09092e-07
7.49821e-06
1.12837e-07
7.50718e-06
1.1622e-07
7.51611e-06
1.19275e-07
7.52499e-06
1.2204e-07
7.53386e-06
1.24546e-07
7.54272e-06
1.26819e-07
7.55158e-06
1.28876e-07
7.56046e-06
1.30729e-07
7.56936e-06
1.3239e-07
7.57831e-06
1.33868e-07
7.58731e-06
1.35163e-07
7.59636e-06
1.36272e-07
7.60546e-06
1.37191e-07
7.61462e-06
1.37919e-07
7.62386e-06
1.38464e-07
7.63317e-06
1.38812e-07
7.64255e-06
1.38927e-07
7.65195e-06
1.38784e-07
7.66137e-06
1.38375e-07
7.67078e-06
1.37694e-07
7.68015e-06
1.36736e-07
7.68945e-06
1.35498e-07
7.69867e-06
1.33977e-07
7.7078e-06
1.32182e-07
7.71681e-06
1.30106e-07
7.72566e-06
1.27751e-07
7.73434e-06
1.25107e-07
7.74282e-06
1.22202e-07
7.75105e-06
1.19042e-07
7.75904e-06
1.15638e-07
7.76676e-06
1.11977e-07
7.77421e-06
1.08097e-07
7.78132e-06
1.03983e-07
7.78815e-06
9.96874e-08
7.79474e-06
9.52349e-08
7.80108e-06
9.06462e-08
7.80717e-06
8.58865e-08
7.81302e-06
8.09895e-08
7.81865e-06
7.59355e-08
7.8241e-06
7.07449e-08
7.82944e-06
6.53864e-08
7.8347e-06
5.98982e-08
7.83973e-06
5.43403e-08
7.84453e-06
4.86435e-08
7.84921e-06
4.27241e-08
7.85386e-06
3.65829e-08
7.85851e-06
3.02143e-08
7.86319e-06
2.35842e-08
7.86794e-06
1.66632e-08
7.8728e-06
9.41077e-09
7.87783e-06
1.78675e-09
7.88309e-06
-6.26594e-09
7.88867e-06
-1.48026e-08
7.8946e-06
-2.38483e-08
7.90094e-06
-3.34769e-08
7.90775e-06
-4.37651e-08
7.91513e-06
-5.47915e-08
7.92314e-06
-6.66406e-08
7.9319e-06
-7.94008e-08
7.94152e-06
-9.31643e-08
7.95212e-06
-1.08029e-07
7.96386e-06
-1.24098e-07
7.97689e-06
-1.41478e-07
7.99142e-06
-1.60282e-07
8.00767e-06
-1.80625e-07
8.0259e-06
-2.02628e-07
8.04641e-06
-2.26419e-07
8.06949e-06
-2.52131e-07
8.09534e-06
-2.79907e-07
8.12436e-06
-3.09835e-07
8.15707e-06
-3.41929e-07
8.19397e-06
-3.76217e-07
8.23559e-06
-4.12734e-07
8.28247e-06
-4.5146e-07
8.33526e-06
-4.923e-07
8.39459e-06
-5.35086e-07
8.46119e-06
-5.79562e-07
8.53565e-06
-6.25412e-07
8.61853e-06
-6.72233e-07
8.71023e-06
-7.19432e-07
8.81104e-06
-7.66224e-07
8.9212e-06
-8.11544e-07
9.04075e-06
-8.54126e-07
9.16939e-06
-8.92694e-07
9.30647e-06
-9.25936e-07
9.451e-06
-9.52499e-07
9.6016e-06
-9.711e-07
-9.8066e-07
9.75657e-06
7.38933e-06
7.06672e-09
7.39346e-06
2.13406e-08
7.39961e-06
3.46353e-08
7.40692e-06
4.63914e-08
7.41487e-06
5.65824e-08
7.42322e-06
6.54801e-08
7.43182e-06
7.33101e-08
7.44053e-06
8.01932e-08
7.44926e-06
8.6232e-08
7.45796e-06
9.15515e-08
7.46662e-06
9.62683e-08
7.47524e-06
1.00478e-07
7.48382e-06
1.04254e-07
7.49238e-06
1.07656e-07
7.50093e-06
1.10725e-07
7.50948e-06
1.13498e-07
7.51802e-06
1.16002e-07
7.52657e-06
1.18265e-07
7.53515e-06
1.20302e-07
7.54375e-06
1.2213e-07
7.55238e-06
1.2376e-07
7.56105e-06
1.25198e-07
7.56976e-06
1.26449e-07
7.57852e-06
1.27514e-07
7.58732e-06
1.2839e-07
7.59616e-06
1.29075e-07
7.60506e-06
1.29569e-07
7.61401e-06
1.29863e-07
7.623e-06
1.29937e-07
7.63201e-06
1.29772e-07
7.64102e-06
1.29361e-07
7.65002e-06
1.28697e-07
7.65898e-06
1.27776e-07
7.66789e-06
1.26595e-07
7.67671e-06
1.25151e-07
7.68545e-06
1.23446e-07
7.69407e-06
1.21481e-07
7.70257e-06
1.19256e-07
7.7109e-06
1.16771e-07
7.71907e-06
1.14038e-07
7.72705e-06
1.11063e-07
7.73483e-06
1.07857e-07
7.74239e-06
1.04418e-07
7.74972e-06
1.00766e-07
7.7568e-06
9.69037e-08
7.76363e-06
9.28558e-08
7.77022e-06
8.86418e-08
7.77659e-06
8.42773e-08
7.78273e-06
7.97478e-08
7.78865e-06
7.50644e-08
7.79437e-06
7.02217e-08
7.79989e-06
6.52279e-08
7.8052e-06
6.00732e-08
7.81034e-06
5.47585e-08
7.81538e-06
4.92977e-08
7.82035e-06
4.36736e-08
7.82523e-06
3.78431e-08
7.83004e-06
3.17715e-08
7.83482e-06
2.54389e-08
7.83959e-06
1.88169e-08
7.84438e-06
1.18687e-08
7.84924e-06
4.5543e-09
7.8542e-06
-3.17688e-09
7.85931e-06
-1.13732e-08
7.8646e-06
-2.00924e-08
7.87014e-06
-2.93916e-08
7.876e-06
-3.93367e-08
7.88224e-06
-5.00074e-08
7.88894e-06
-6.14902e-08
7.89618e-06
-7.38774e-08
7.90405e-06
-8.72683e-08
7.91265e-06
-1.01769e-07
7.92212e-06
-1.17493e-07
7.93258e-06
-1.34562e-07
7.94421e-06
-1.53105e-07
7.95718e-06
-1.73259e-07
7.97173e-06
-1.95169e-07
7.98808e-06
-2.18985e-07
8.00653e-06
-2.44868e-07
8.02738e-06
-2.72981e-07
8.05097e-06
-3.03492e-07
8.07768e-06
-3.36549e-07
8.10801e-06
-3.72251e-07
8.14247e-06
-4.1068e-07
8.18165e-06
-4.51916e-07
8.22619e-06
-4.95998e-07
8.27678e-06
-5.42895e-07
8.33419e-06
-5.92488e-07
8.39919e-06
-6.44564e-07
8.47257e-06
-6.98795e-07
8.55504e-06
-7.54707e-07
8.64723e-06
-8.11618e-07
8.74961e-06
-8.68601e-07
8.86252e-06
-9.24452e-07
8.98611e-06
-9.77717e-07
9.12018e-06
-1.02677e-06
9.26411e-06
-1.06986e-06
9.41676e-06
-1.10516e-06
9.57656e-06
-1.1309e-06
-1.14555e-06
9.74145e-06
7.38901e-06
6.06158e-09
7.39209e-06
1.82583e-08
7.39687e-06
2.98547e-08
7.40282e-06
4.04363e-08
7.40954e-06
4.98634e-08
7.41679e-06
5.82351e-08
7.4244e-06
6.56937e-08
7.43226e-06
7.23344e-08