/*--------------------------------*- C++ -*----------------------------------*\
| =========                 |                                                 |
| \\      /  F ield         | OpenFOAM: The Open Source CFD Toolbox           |
|  \\    /   O peration     | Version:  2206                                  |
|   \\  /    A nd           | Website:  www.openfoam.com                      |
|    \\/     M anipulation  |                                                 |
\*---------------------------------------------------------------------------*/
FoamFile
{
    version     2.0;
    format      ascii;
    arch        "LSB;label=32;scalar=64";
    class       volVectorField;
    location    "18.8001";
    object      U;
}
// * * * * * * * * * * * * * * * * * * * * * * * * * * * * * * * * * * * * * //

dimensions      [0 1 -1 0 0 0 0];

internalField   nonuniform List<vector> 
1826
(
(0.235674 -0.0122303 0)
(0.267142 -0.0127232 0)
(0.298697 -0.0130023 0)
(0.330396 -0.0130209 0)
(0.362094 -0.0127866 0)
(0.393486 -0.012335 0)
(0.424216 -0.0117113 0)
(0.453858 -0.0109741 0)
(0.482293 -0.0101633 0)
(0.509194 -0.0092705 0)
(0.534134 -0.00833835 0)
(0.557249 -0.00744465 0)
(0.578497 -0.0066469 0)
(0.597945 -0.00597616 0)
(0.615771 -0.00545452 0)
(0.632187 -0.00508635 0)
(0.647439 -0.00486564 0)
(0.661783 -0.00477391 0)
(0.675476 -0.00478753 0)
(0.688759 -0.00488338 0)
(0.701848 -0.00503591 0)
(0.71493 -0.0052213 0)
(0.728141 -0.00543417 0)
(0.74162 -0.00567421 0)
(0.755481 -0.00594517 0)
(0.769824 -0.00625672 0)
(0.784752 -0.00662607 0)
(0.800381 -0.00707593 0)
(0.816854 -0.00763139 0)
(0.834341 -0.00832133 0)
(0.853055 -0.00917401 0)
(0.873252 -0.0102218 0)
(0.895237 -0.0114941 0)
(0.91937 -0.0130258 0)
(0.946061 -0.0148393 0)
(0.975772 -0.0169904 0)
(1.00904 -0.019505 0)
(1.04638 -0.0223797 0)
(1.08848 -0.0256755 0)
(1.13562 -0.0288205 0)
(1.18848 -0.0333184 0)
(1.24755 -0.0276832 0)
(1.25749 -0.0541599 0)
(1.28954 -0.0535662 0)
(1.32029 -0.0532587 0)
(1.34981 -0.0529593 0)
(1.37812 -0.0524081 0)
(1.40526 -0.0514186 0)
(1.4312 -0.0499219 0)
(1.45594 -0.0479545 0)
(1.47945 -0.0456042 0)
(1.50169 -0.0429456 0)
(1.52271 -0.0400791 0)
(1.54256 -0.0371549 0)
(1.56128 -0.0343074 0)
(1.57894 -0.0316382 0)
(1.59563 -0.0292285 0)
(1.61144 -0.0271414 0)
(1.62652 -0.0254169 0)
(1.64098 -0.0240735 0)
(1.65495 -0.0231095 0)
(1.66858 -0.0225049 0)
(1.68197 -0.022227 0)
(1.6953 -0.0222363 0)
(1.70869 -0.0224942 0)
(1.72226 -0.0229665 0)
(1.73612 -0.0236301 0)
(1.75042 -0.0244746 0)
(1.76526 -0.0255042 0)
(1.7808 -0.0267372 0)
(1.79717 -0.0282067 0)
(1.81454 -0.0299595 0)
(1.83308 -0.0320528 0)
(1.85302 -0.0345541 0)
(1.87458 -0.0375365 0)
(1.89804 -0.0410802 0)
(1.92371 -0.0452647 0)
(1.95195 -0.0501735 0)
(1.98314 -0.055886 0)
(2.01774 -0.0624791 0)
(2.05629 -0.0699817 0)
(2.09954 -0.0783403 0)
(2.14878 -0.0871956 0)
(2.20685 -0.096202 0)
(2.23526 -0.078834 0)
(2.24845 -0.0768352 0)
(2.26109 -0.0750869 0)
(2.27307 -0.073437 0)
(2.28435 -0.0717239 0)
(2.29494 -0.0698069 0)
(2.30492 -0.0675961 0)
(2.31439 -0.0650558 0)
(2.32343 -0.0622 0)
(2.33211 -0.059078 0)
(2.34047 -0.0557627 0)
(2.34858 -0.0523485 0)
(2.35645 -0.0489165 0)
(2.36413 -0.0456061 0)
(2.37162 -0.0425478 0)
(2.37897 -0.0398165 0)
(2.38616 -0.0374693 0)
(2.39324 -0.0355369 0)
(2.40021 -0.0340378 0)
(2.4071 -0.0329688 0)
(2.41393 -0.0323156 0)
(2.42078 -0.0320466 0)
(2.42766 -0.0321296 0)
(2.43464 -0.0325279 0)
(2.44177 -0.0332168 0)
(2.44912 -0.0341861 0)
(2.45678 -0.03544 0)
(2.46483 -0.0369963 0)
(2.47337 -0.0388883 0)
(2.48249 -0.0411667 0)
(2.4923 -0.0438952 0)
(2.50294 -0.0471516 0)
(2.51454 -0.0510224 0)
(2.52725 -0.0556091 0)
(2.54125 -0.0610191 0)
(2.55676 -0.0673644 0)
(2.57397 -0.0747598 0)
(2.59316 -0.0833399 0)
(2.61462 -0.0932423 0)
(2.63877 -0.104614 0)
(2.66617 -0.117587 0)
(2.69767 -0.132571 0)
(2.73444 -0.150218 0)
(2.71449 -0.0845344 0)
(2.71521 -0.0822335 0)
(2.71597 -0.0801523 0)
(2.71668 -0.0781553 0)
(2.71732 -0.0761317 0)
(2.7179 -0.0739734 0)
(2.7185 -0.0715961 0)
(2.71919 -0.0689603 0)
(2.72003 -0.0660656 0)
(2.7211 -0.0629454 0)
(2.72245 -0.0596675 0)
(2.72411 -0.0563224 0)
(2.72607 -0.0530074 0)
(2.72836 -0.0498291 0)
(2.73095 -0.046881 0)
(2.73383 -0.04424 0)
(2.73694 -0.0419608 0)
(2.74025 -0.0400711 0)
(2.7437 -0.0385851 0)
(2.74726 -0.0375179 0)
(2.75089 -0.0368652 0)
(2.75458 -0.0366134 0)
(2.75832 -0.0367377 0)
(2.76212 -0.0372112 0)
(2.76597 -0.0380258 0)
(2.76991 -0.0391885 0)
(2.77399 -0.0407083 0)
(2.77825 -0.0426031 0)
(2.78274 -0.04491 0)
(2.78752 -0.0476846 0)
(2.79264 -0.0509975 0)
(2.79819 -0.0549319 0)
(2.80422 -0.0595819 0)
(2.81083 -0.0650591 0)
(2.81809 -0.0714839 0)
(2.82606 -0.0789715 0)
(2.83482 -0.0876549 0)
(2.84451 -0.0976982 0)
(2.85528 -0.109313 0)
(2.86734 -0.122738 0)
(2.88097 -0.138274 0)
(2.89653 -0.156481 0)
(2.91439 -0.178573 0)
(2.86401 -0.0790543 0)
(2.86028 -0.0773479 0)
(2.85684 -0.0756797 0)
(2.85364 -0.0740144 0)
(2.85066 -0.0722878 0)
(2.8479 -0.0704293 0)
(2.84542 -0.0683868 0)
(2.84325 -0.0661357 0)
(2.84144 -0.0636797 0)
(2.84004 -0.0610535 0)
(2.83908 -0.0583144 0)
(2.83856 -0.0555137 0)
(2.83852 -0.0527278 0)
(2.83891 -0.0500915 0)
(2.83972 -0.0476481 0)
(2.84089 -0.0454486 0)
(2.8424 -0.043562 0)
(2.84419 -0.0420096 0)
(2.84618 -0.0407954 0)
(2.84832 -0.0399424 0)
(2.85058 -0.0394674 0)
(2.85291 -0.0393509 0)
(2.8553 -0.0395791 0)
(2.85772 -0.0401311 0)
(2.86014 -0.0410098 0)
(2.8626 -0.0422515 0)
(2.8651 -0.0438774 0)
(2.86768 -0.045908 0)
(2.87033 -0.048383 0)
(2.87309 -0.0513637 0)
(2.87597 -0.054926 0)
(2.87901 -0.0591584 0)
(2.88225 -0.0641604 0)
(2.88573 -0.070037 0)
(2.88941 -0.0769024 0)
(2.89338 -0.084886 0)
(2.89776 -0.0941457 0)
(2.9026 -0.104876 0)
(2.90798 -0.117296 0)
(2.9138 -0.131717 0)
(2.92036 -0.148564 0)
(2.92835 -0.168444 0)
(2.93719 -0.191757 0)
(2.90009 -0.0764621 0)
(2.89514 -0.0749763 0)
(2.89056 -0.0734681 0)
(2.88627 -0.0719273 0)
(2.88228 -0.0703315 0)
(2.8786 -0.0686346 0)
(2.87524 -0.0668173 0)
(2.87223 -0.0648459 0)
(2.8696 -0.0627254 0)
(2.8674 -0.0604758 0)
(2.86563 -0.0581379 0)
(2.86434 -0.0557798 0)
(2.86352 -0.0534177 0)
(2.86318 -0.0511692 0)
(2.86324 -0.0490226 0)
(2.86361 -0.0471383 0)
(2.86428 -0.0454997 0)
(2.86504 -0.0441239 0)
(2.86618 -0.0430341 0)
(2.86748 -0.0422924 0)
(2.86892 -0.0418308 0)
(2.87048 -0.0417604 0)
(2.87212 -0.0420049 0)
(2.87376 -0.0425382 0)
(2.8756 -0.0434212 0)
(2.87737 -0.0446536 0)
(2.87906 -0.0462569 0)
(2.88073 -0.0482711 0)
(2.88235 -0.0507468 0)
(2.88395 -0.0537512 0)
(2.88553 -0.0573606 0)
(2.88711 -0.0616648 0)
(2.88872 -0.0667688 0)
(2.89039 -0.0727738 0)
(2.89214 -0.0797865 0)
(2.89398 -0.0879524 0)
(2.89584 -0.0974435 0)
(2.89765 -0.108433 0)
(2.89952 -0.121147 0)
(2.9014 -0.135918 0)
(2.9032 -0.153223 0)
(2.90473 -0.173515 0)
(2.90578 -0.197374 0)
(2.89634 -0.0685024 0)
(2.89063 -0.0675688 0)
(2.8853 -0.0665733 0)
(2.88046 -0.0655195 0)
(2.87591 -0.0643906 0)
(2.87168 -0.0631614 0)
(2.86778 -0.0618089 0)
(2.86425 -0.0603179 0)
(2.86109 -0.0586891 0)
(2.85831 -0.0569414 0)
(2.8559 -0.0551112 0)
(2.85388 -0.0532441 0)
(2.85224 -0.0513877 0)
(2.85097 -0.0496065 0)
(2.85003 -0.0479062 0)
(2.84941 -0.0463491 0)
(2.84908 -0.0449877 0)
(2.84897 -0.0438749 0)
(2.84904 -0.0430532 0)
(2.84922 -0.0425477 0)
(2.84947 -0.0423223 0)
(2.8498 -0.0423497 0)
(2.85013 -0.0426661 0)
(2.85044 -0.0432939 0)
(2.85066 -0.0442361 0)
(2.85078 -0.0454812 0)
(2.85077 -0.047059 0)
(2.85061 -0.0490288 0)
(2.85027 -0.0514577 0)
(2.84971 -0.0544178 0)
(2.84892 -0.0579899 0)
(2.84786 -0.0622619 0)
(2.84651 -0.0673267 0)
(2.84485 -0.0732821 0)
(2.84284 -0.080231 0)
(2.84043 -0.0882896 0)
(2.83751 -0.0975896 0)
(2.83396 -0.108308 0)
(2.82957 -0.120672 0)
(2.8241 -0.134964 0)
(2.8172 -0.151519 0)
(2.8084 -0.170702 0)
(2.79716 -0.192882 0)
(2.86271 -0.0642065 0)
(2.85472 -0.063573 0)
(2.84693 -0.0628769 0)
(2.83935 -0.0621166 0)
(2.83198 -0.0612625 0)
(2.82485 -0.0603032 0)
(2.81799 -0.0592284 0)
(2.81141 -0.058018 0)
(2.80513 -0.0566679 0)
(2.79914 -0.0551926 0)
(2.79344 -0.0536578 0)
(2.78805 -0.0521241 0)
(2.78297 -0.0505841 0)
(2.77817 -0.0490671 0)
(2.77365 -0.0476141 0)
(2.76937 -0.0462739 0)
(2.76531 -0.0450937 0)
(2.76142 -0.0441155 0)
(2.75765 -0.0433684 0)
(2.75396 -0.0428673 0)
(2.75028 -0.0426194 0)
(2.74655 -0.0426288 0)
(2.74274 -0.0428635 0)
(2.73877 -0.0433302 0)
(2.73459 -0.044039 0)
(2.73013 -0.0450072 0)
(2.72533 -0.0462574 0)
(2.72012 -0.0478757 0)
(2.71445 -0.0498654 0)
(2.70822 -0.0523731 0)
(2.70136 -0.0553895 0)
(2.69379 -0.059072 0)
(2.6854 -0.0635811 0)
(2.67608 -0.0689288 0)
(2.66568 -0.0751659 0)
(2.65398 -0.0823555 0)
(2.64075 -0.0905904 0)
(2.62555 -0.0999853 0)
(2.60791 -0.110701 0)
(2.58728 -0.122921 0)
(2.56298 -0.136842 0)
(2.53414 -0.152661 0)
(2.49969 -0.170568 0)
(2.66501 -0.0516705 0)
(2.64723 -0.0511933 0)
(2.62952 -0.0506502 0)
(2.61192 -0.050046 0)
(2.59445 -0.0493761 0)
(2.57716 -0.0486542 0)
(2.5601 -0.0478807 0)
(2.54333 -0.0470089 0)
(2.52686 -0.0460145 0)
(2.5107 -0.0449176 0)
(2.49488 -0.0437475 0)
(2.47943 -0.0425317 0)
(2.46434 -0.0413006 0)
(2.4496 -0.0400912 0)
(2.43521 -0.0389366 0)
(2.42112 -0.0378698 0)
(2.40732 -0.0369213 0)
(2.39372 -0.0361141 0)
(2.38029 -0.0354647 0)
(2.36692 -0.0349847 0)
(2.35355 -0.0346768 0)
(2.34009 -0.0345384 0)
(2.32646 -0.0345671 0)
(2.31253 -0.0347644 0)
(2.29823 -0.0351356 0)
(2.28346 -0.0356923 0)
(2.26813 -0.0364565 0)
(2.25211 -0.0374632 0)
(2.23527 -0.0387585 0)
(2.21744 -0.0403984 0)
(2.19847 -0.0424473 0)
(2.17815 -0.0449742 0)
(2.15625 -0.0480463 0)
(2.13251 -0.0517192 0)
(2.10657 -0.0560237 0)
(2.0782 -0.0609173 0)
(2.04633 -0.0662835 0)
(2.01005 -0.0720962 0)
(1.96843 -0.0784466 0)
(1.92046 -0.085439 0)
(1.86498 -0.093049 0)
(1.80067 -0.101211 0)
(1.72598 -0.109792 0)
(1.74457 -0.0276525 0)
(1.70619 -0.0271524 0)
(1.66832 -0.0266289 0)
(1.63099 -0.0260872 0)
(1.59422 -0.0255252 0)
(1.55817 -0.0249591 0)
(1.52254 -0.0243837 0)
(1.48762 -0.0237434 0)
(1.45365 -0.0230104 0)
(1.42052 -0.0222014 0)
(1.38834 -0.0213507 0)
(1.35714 -0.0204895 0)
(1.32696 -0.019641 0)
(1.29778 -0.0188201 0)
(1.26957 -0.0180417 0)
(1.24227 -0.0173198 0)
(1.2158 -0.0166701 0)
(1.19007 -0.0161023 0)
(1.16495 -0.0156249 0)
(1.14032 -0.0152379 0)
(1.11605 -0.0149348 0)
(1.09201 -0.0147044 0)
(1.06812 -0.0145333 0)
(1.04425 -0.0144124 0)
(1.0203 -0.0143482 0)
(0.996171 -0.0143595 0)
(0.971719 -0.0144678 0)
(0.946792 -0.0147047 0)
(0.921216 -0.0151004 0)
(0.894762 -0.0157006 0)
(0.867163 -0.016542 0)
(0.838091 -0.0176657 0)
(0.807159 -0.0191204 0)
(0.773915 -0.020916 0)
(0.737972 -0.0230238 0)
(0.698552 -0.0251732 0)
(0.656325 -0.0269098 0)
(0.611633 -0.0280181 0)
(0.564165 -0.0285541 0)
(0.513831 -0.0285365 0)
(0.460779 -0.0280054 0)
(0.405201 -0.0268056 0)
(0.347396 -0.0246972 0)
(1.31528 -0.0569974 0)
(1.41836 -0.060867 0)
(1.58526 -0.0687881 0)
(1.80697 -0.11033 0)
(2.04789 -0.215787 0)
(2.27026 -0.386925 0)
(2.41883 -0.582881 0)
(2.47847 -0.757074 0)
(2.46978 -0.882773 0)
(2.41512 -0.959902 0)
(2.32421 -0.986696 0)
(2.21349 -0.96262 0)
(2.09315 -0.898485 0)
(1.9727 -0.805101 0)
(1.86229 -0.689527 0)
(1.76934 -0.555501 0)
(1.69186 -0.412286 0)
(1.61073 -0.28012 0)
(1.49733 -0.178057 0)
(1.35204 -0.115756 0)
(1.21323 -0.0684065 0)
(1.12057 -0.00899795 0)
(1.10121 0.0763309 0)
(1.15711 0.167219 0)
(1.27117 0.248689 0)
(1.43127 0.310365 0)
(1.62886 0.344223 0)
(1.859 0.342939 0)
(2.11798 0.30009 0)
(2.39808 0.214484 0)
(2.67493 0.0986458 0)
(2.91651 -0.0245733 0)
(3.10099 -0.134978 0)
(3.22076 -0.223288 0)
(3.28207 -0.292579 0)
(3.29558 -0.355182 0)
(3.27889 -0.409445 0)
(3.21684 -0.447376 0)
(3.12863 -0.466646 0)
(3.0196 -0.467814 0)
(2.89653 -0.45188 0)
(2.76732 -0.421686 0)
(2.64083 -0.381715 0)
(2.52392 -0.335676 0)
(2.42097 -0.286422 0)
(2.33407 -0.237026 0)
(2.26258 -0.190759 0)
(2.20123 -0.151028 0)
(2.14002 -0.12347 0)
(2.06759 -0.114891 0)
(1.97346 -0.127951 0)
(1.85788 -0.157967 0)
(1.7348 -0.188755 0)
(1.62164 -0.20242 0)
(1.52963 -0.191119 0)
(1.46503 -0.153311 0)
(1.43059 -0.0925099 0)
(1.42553 -0.0191648 0)
(1.44498 0.0580286 0)
(1.48333 0.132848 0)
(1.53521 0.199096 0)
(1.59734 0.253226 0)
(1.66707 0.294337 0)
(1.74189 0.322369 0)
(1.81985 0.337778 0)
(1.89964 0.341376 0)
(1.98076 0.333746 0)
(2.0636 0.314617 0)
(2.14937 0.282517 0)
(2.23936 0.235676 0)
(2.33339 0.173483 0)
(2.42684 0.0993012 0)
(2.51198 0.0193936 0)
(2.58266 -0.0556191 0)
(2.63604 -0.11953 0)
(2.66372 -0.174538 0)
(2.67239 -0.212895 0)
(2.66077 -0.237149 0)
(2.6216 -0.239751 0)
(2.55271 -0.221298 0)
(2.46334 -0.189445 0)
(2.36259 -0.152332 0)
(2.25954 -0.118237 0)
(2.16055 -0.0934579 0)
(2.06906 -0.0812334 0)
(1.98728 -0.0821522 0)
(1.91626 -0.0937005 0)
(1.85574 -0.110749 0)
(1.80446 -0.127442 0)
(1.76105 -0.138814 0)
(1.72441 -0.141499 0)
(1.6941 -0.133267 0)
(1.67108 -0.113275 0)
(2.28013 -0.102755 0)
(2.37236 -0.114343 0)
(2.4836 -0.149728 0)
(2.60595 -0.222291 0)
(2.7227 -0.335513 0)
(2.80629 -0.476648 0)
(2.83372 -0.614657 0)
(2.80998 -0.733039 0)
(2.74575 -0.820071 0)
(2.65089 -0.867271 0)
(2.53789 -0.871316 0)
(2.41556 -0.837539 0)
(2.2924 -0.773126 0)
(2.17504 -0.684833 0)
(2.06678 -0.578295 0)
(1.97236 -0.461968 0)
(1.89639 -0.344683 0)
(1.84103 -0.23119 0)
(1.806 -0.12546 0)
(1.78336 -0.034773 0)
(1.76331 0.0326636 0)
(1.74743 0.0762789 0)
(1.75032 0.104999 0)
(1.78861 0.121845 0)
(1.87161 0.133882 0)
(2.00261 0.13679 0)
(2.17931 0.123338 0)
(2.39569 0.0857354 0)
(2.63517 0.022657 0)
(2.86547 -0.05478 0)
(3.06189 -0.131252 0)
(3.21186 -0.195508 0)
(3.30856 -0.241962 0)
(3.35587 -0.275356 0)
(3.36393 -0.306499 0)
(3.34448 -0.333283 0)
(3.27026 -0.348656 0)
(3.16656 -0.35167 0)
(3.03949 -0.345369 0)
(2.89623 -0.330365 0)
(2.74647 -0.307718 0)
(2.60199 -0.280932 0)
(2.46923 -0.252141 0)
(2.35478 -0.222226 0)
(2.26182 -0.191544 0)
(2.19008 -0.160914 0)
(2.13815 -0.131702 0)
(2.09993 -0.102933 0)
(2.06703 -0.0746968 0)
(2.02916 -0.0503183 0)
(1.97375 -0.0358747 0)
(1.89043 -0.0386492 0)
(1.77904 -0.0589529 0)
(1.65507 -0.0846542 0)
(1.54186 -0.0981385 0)
(1.45198 -0.0910943 0)
(1.39205 -0.0639443 0)
(1.36822 -0.0190711 0)
(1.3689 0.0331765 0)
(1.39658 0.0878271 0)
(1.44692 0.139664 0)
(1.5095 0.183165 0)
(1.58252 0.216422 0)
(1.6631 0.239375 0)
(1.74942 0.252093 0)
(1.84097 0.254025 0)
(1.93763 0.244295 0)
(2.03862 0.221314 0)
(2.14228 0.183423 0)
(2.24665 0.13084 0)
(2.34591 0.0706311 0)
(2.43419 0.00851083 0)
(2.5026 -0.0525769 0)
(2.54247 -0.111099 0)
(2.56412 -0.155678 0)
(2.56074 -0.185967 0)
(2.5246 -0.197322 0)
(2.46059 -0.191141 0)
(2.37606 -0.164294 0)
(2.28093 -0.124837 0)
(2.18594 -0.08318 0)
(2.09752 -0.0461804 0)
(2.01868 -0.0184801 0)
(1.94988 -0.00311319 0)
(1.88932 -0.00147364 0)
(1.83525 -0.0131826 0)
(1.78681 -0.0346282 0)
(1.74278 -0.0598994 0)
(1.70194 -0.0830961 0)
(1.66383 -0.0999153 0)
(1.62876 -0.107826 0)
(1.59763 -0.105628 0)
(1.57185 -0.0928649 0)
(2.77806 -0.173699 0)
(2.82758 -0.207738 0)
(2.88136 -0.257553 0)
(2.9327 -0.326588 0)
(2.96717 -0.411753 0)
(2.97435 -0.505909 0)
(2.95647 -0.598888 0)
(2.91226 -0.679146 0)
(2.83509 -0.733887 0)
(2.73909 -0.757614 0)
(2.63075 -0.750429 0)
(2.51597 -0.714456 0)
(2.40107 -0.653933 0)
(2.29073 -0.573993 0)
(2.18846 -0.479874 0)
(2.09928 -0.378603 0)
(2.02601 -0.276478 0)
(1.97098 -0.182764 0)
(1.9361 -0.106381 0)
(1.92356 -0.0484882 0)
(1.93166 -0.00201543 0)
(1.96018 0.0325867 0)
(2.0138 0.0499764 0)
(2.08945 0.0498075 0)
(2.1901 0.0337969 0)
(2.31795 0.00117647 0)
(2.47192 -0.0496698 0)
(2.64472 -0.11414 0)
(2.81711 -0.177164 0)
(2.97621 -0.226951 0)
(3.10593 -0.261302 0)
(3.19677 -0.280019 0)
(3.24709 -0.285214 0)
(3.26098 -0.28407 0)
(3.23523 -0.275208 0)
(3.161 -0.25907 0)
(3.05175 -0.23744 0)
(2.91635 -0.215187 0)
(2.76274 -0.193377 0)
(2.60137 -0.172019 0)
(2.44508 -0.152876 0)
(2.30345 -0.138144 0)
(2.18346 -0.128583 0)
(2.08956 -0.122777 0)
(2.02373 -0.117165 0)
(1.98209 -0.109118 0)
(1.95714 -0.0962471 0)
(1.94334 -0.0762024 0)
(1.93556 -0.0501322 0)
(1.92516 -0.0196214 0)
(1.90297 0.0119548 0)
(1.85915 0.0376127 0)
(1.78785 0.0482944 0)
(1.69227 0.0384412 0)
(1.5869 0.0167893 0)
(1.4927 -0.000364906 0)
(1.41947 -0.00528439 0)
(1.37495 0.00417326 0)
(1.36148 0.0264951 0)
(1.36993 0.0548512 0)
(1.41114 0.0856778 0)
(1.47103 0.115869 0)
(1.54635 0.14055 0)
(1.63508 0.155458 0)
(1.735 0.158118 0)
(1.84344 0.148493 0)
(1.95543 0.12925 0)
(2.0643 0.102721 0)
(2.16292 0.0692161 0)
(2.24465 0.0283802 0)
(2.29904 -0.0188502 0)
(2.33599 -0.060266 0)
(2.34915 -0.0945701 0)
(2.33181 -0.120187 0)
(2.28554 -0.131328 0)
(2.21694 -0.12959 0)
(2.13566 -0.113208 0)
(2.0516 -0.0875543 0)
(1.97257 -0.0570953 0)
(1.90344 -0.0261527 0)
(1.84655 0.000196877 0)
(1.80239 0.0201866 0)
(1.76949 0.0330679 0)
(1.74458 0.0383833 0)
(1.72362 0.0357013 0)
(1.7038 0.0222778 0)
(1.68206 0.000505799 0)
(1.65639 -0.0238987 0)
(1.62708 -0.0466838 0)
(1.59583 -0.0639378 0)
(1.56397 -0.0735929 0)
(1.5334 -0.0748079 0)
(1.50617 -0.0675901 0)
(2.93365 -0.205931 0)
(2.95433 -0.24066 0)
(2.97639 -0.284957 0)
(2.99457 -0.339481 0)
(2.99883 -0.403934 0)
(2.99334 -0.476443 0)
(2.96489 -0.548562 0)
(2.91208 -0.607542 0)
(2.84115 -0.644188 0)
(2.75549 -0.655469 0)
(2.65846 -0.640777 0)
(2.55432 -0.601577 0)
(2.44774 -0.541957 0)
(2.3424 -0.466715 0)
(2.24197 -0.381217 0)
(2.15208 -0.293188 0)
(2.07652 -0.208793 0)
(2.01849 -0.134359 0)
(1.97975 -0.075902 0)
(1.96076 -0.0364134 0)
(1.96166 -0.0122336 0)
(1.98616 -0.00450001 0)
(2.03268 -0.0163632 0)
(2.10016 -0.0448255 0)
(2.18903 -0.0881441 0)
(2.30034 -0.14612 0)
(2.43117 -0.213175 0)
(2.56439 -0.274925 0)
(2.68135 -0.323479 0)
(2.77558 -0.349849 0)
(2.84475 -0.356079 0)
(2.88916 -0.346314 0)
(2.90356 -0.312604 0)
(2.87542 -0.263624 0)
(2.80589 -0.208059 0)
(2.69996 -0.151061 0)
(2.56419 -0.0984957 0)
(2.40803 -0.0552106 0)
(2.24829 -0.0239203 0)
(2.09773 -0.0068864 0)
(1.964 -0.00490335 0)
(1.85528 -0.0152931 0)
(1.77809 -0.0338709 0)
(1.73205 -0.05686 0)
(1.71238 -0.0790488 0)
(1.70971 -0.0921544 0)
(1.71837 -0.0947238 0)
(1.73346 -0.0826795 0)
(1.75047 -0.0553982 0)
(1.76235 -0.0148194 0)
(1.75976 0.0328465 0)
(1.7378 0.0773622 0)
(1.7003 0.106388 0)
(1.65461 0.114201 0)
(1.59685 0.101579 0)
(1.53548 0.0775525 0)
(1.48242 0.0546262 0)
(1.44706 0.0401637 0)
(1.43399 0.0353678 0)
(1.44555 0.0345967 0)
(1.48543 0.0365569 0)
(1.54769 0.0394618 0)
(1.62511 0.0397282 0)
(1.71125 0.0362953 0)
(1.79809 0.0310189 0)
(1.87535 0.0255674 0)
(1.93221 0.0191935 0)
(1.97862 0.0110516 0)
(2.01026 0.00170035 0)
(2.02279 -0.00978544 0)
(2.01369 -0.0245627 0)
(1.98141 -0.0373378 0)
(1.93126 -0.0455427 0)
(1.87066 -0.0472351 0)
(1.80692 -0.0442725 0)
(1.74658 -0.0385297 0)
(1.69329 -0.0310376 0)
(1.65022 -0.0220147 0)
(1.61903 -0.00869714 0)
(1.5998 0.00691341 0)
(1.59075 0.0223468 0)
(1.58894 0.0348664 0)
(1.59142 0.0423332 0)
(1.59649 0.0442803 0)
(1.60112 0.0411976 0)
(1.60248 0.0298594 0)
(1.59734 0.014069 0)
(1.58491 -0.00393964 0)
(1.56601 -0.0214824 0)
(1.54257 -0.0357596 0)
(1.5173 -0.044675 0)
(1.4925 -0.0474897 0)
(1.47055 -0.0441917 0)
(2.94707 -0.219747 0)
(2.95939 -0.254053 0)
(2.96624 -0.295532 0)
(2.96966 -0.344271 0)
(2.9663 -0.400284 0)
(2.94982 -0.459745 0)
(2.91725 -0.513569 0)
(2.86792 -0.553061 0)
(2.80243 -0.572739 0)
(2.72245 -0.569835 0)
(2.63064 -0.544073 0)
(2.53076 -0.498028 0)
(2.42729 -0.43592 0)
(2.32362 -0.362482 0)
(2.22511 -0.28484 0)
(2.13515 -0.20885 0)
(2.05654 -0.138818 0)
(1.99317 -0.0807663 0)
(1.94905 -0.0423145 0)
(1.92629 -0.0252961 0)
(1.91916 -0.0236208 0)
(1.92549 -0.03693 0)
(1.95172 -0.0681727 0)
(1.99628 -0.11639 0)
(2.0556 -0.180858 0)
(2.1208 -0.255218 0)
(2.17593 -0.320711 0)
(2.21477 -0.367492 0)
(2.23869 -0.391266 0)
(2.2495 -0.395569 0)
(2.24757 -0.388031 0)
(2.22619 -0.347198 0)
(2.18301 -0.280772 0)
(2.11524 -0.19705 0)
(2.02069 -0.105434 0)
(1.90393 -0.0174253 0)
(1.78109 0.0536782 0)
(1.66251 0.100697 0)
(1.55613 0.121003 0)
(1.46923 0.118438 0)
(1.40504 0.0998918 0)
(1.36456 0.0545236 0)
(1.34962 -0.00360687 0)
(1.35192 -0.057911 0)
(1.36182 -0.0964709 0)
(1.37527 -0.116334 0)
(1.39274 -0.121117 0)
(1.412 -0.112608 0)
(1.43437 -0.083112 0)
(1.45762 -0.0313175 0)
(1.47616 0.0363054 0)
(1.48189 0.0981366 0)
(1.4784 0.136526 0)
(1.46747 0.146885 0)
(1.45126 0.142302 0)
(1.4312 0.120982 0)
(1.41471 0.0878342 0)
(1.40818 0.0531904 0)
(1.41283 0.0223384 0)
(1.42554 -0.00375333 0)
(1.44309 -0.0239039 0)
(1.46614 -0.0250875 0)
(1.49356 -0.0208525 0)
(1.51992 -0.0134272 0)
(1.5418 -0.00193892 0)
(1.5585 0.0114781 0)
(1.56829 0.0196211 0)
(1.56999 0.021681 0)
(1.56004 0.0221965 0)
(1.53822 0.0219998 0)
(1.50835 0.0207932 0)
(1.47351 0.0178339 0)
(1.4375 0.0121993 0)
(1.40507 0.00466181 0)
(1.37938 -0.00207452 0)
(1.36277 -0.00739502 0)
(1.3548 -0.0101658 0)
(1.35295 -0.0100577 0)
(1.35729 -0.00659861 0)
(1.36792 1.09682e-05 0)
(1.38262 0.00865522 0)
(1.39775 0.0175974 0)
(1.41041 0.024545 0)
(1.41964 0.0285105 0)
(1.42562 0.029595 0)
(1.4282 0.0266069 0)
(1.42484 0.019172 0)
(1.41645 0.00857278 0)
(1.40446 -0.00332992 0)
(1.38996 -0.014433 0)
(1.37422 -0.0228719 0)
(1.35836 -0.0275105 0)
(1.34369 -0.0277632 0)
(2.90584 -0.225774 0)
(2.90399 -0.258903 0)
(2.89929 -0.296753 0)
(2.88981 -0.339546 0)
(2.87275 -0.385602 0)
(2.8453 -0.430505 0)
(2.80515 -0.467993 0)
(2.75117 -0.491941 0)
(2.68338 -0.497661 0)
(2.60259 -0.482948 0)
(2.51071 -0.44859 0)
(2.41115 -0.397962 0)
(2.30843 -0.334749 0)
(2.2064 -0.263639 0)
(2.1095 -0.191251 0)
(2.02127 -0.125063 0)
(1.94322 -0.0693712 0)
(1.87695 -0.0301651 0)
(1.82299 -0.00906476 0)
(1.78402 -0.00182581 0)
(1.7578 -0.00746952 0)
(1.74284 -0.0358633 0)
(1.7337 -0.0853977 0)
(1.71565 -0.141547 0)
(1.67722 -0.195872 0)
(1.62082 -0.249246 0)
(1.56339 -0.297957 0)
(1.51313 -0.336627 0)
(1.46464 -0.35861 0)
(1.41332 -0.355901 0)
(1.3562 -0.324893 0)
(1.29127 -0.265177 0)
(1.22055 -0.178561 0)
(1.14437 -0.0758585 0)
(1.07246 0.0221005 0)
(1.01363 0.100757 0)
(0.969786 0.15266 0)
(0.941376 0.174426 0)
(0.927844 0.173839 0)
(0.92494 0.145379 0)
(0.930608 0.097864 0)
(0.936148 0.0402486 0)
(0.93329 -0.0154523 0)
(0.920453 -0.0628453 0)
(0.904902 -0.0985153 0)
(0.893625 -0.120429 0)
(0.889852 -0.127405 0)
(0.893052 -0.124286 0)
(0.907524 -0.101582 0)
(0.933418 -0.0567187 0)
(0.969701 0.00569774 0)
(1.00852 0.0700889 0)
(1.04183 0.113846 0)
(1.06638 0.133029 0)
(1.084 0.133728 0)
(1.09309 0.116088 0)
(1.08663 0.0872108 0)
(1.06613 0.0570055 0)
(1.04166 0.0334276 0)
(1.02303 0.0166797 0)
(1.014 0.00251542 0)
(1.01603 -0.0109212 0)
(1.0262 -0.0185706 0)
(1.04042 -0.0184498 0)
(1.05422 -0.0130565 0)
(1.06504 -0.00403038 0)
(1.06967 0.00787028 0)
(1.06596 0.0225479 0)
(1.05622 0.0379871 0)
(1.04341 0.0441294 0)
(1.03347 0.0437042 0)
(1.02531 0.0399213 0)
(1.02024 0.0294789 0)
(1.01927 0.0152224 0)
(1.02145 -0.00108765 0)
(1.02546 -0.0155812 0)
(1.03022 -0.0234597 0)
(1.03519 -0.0250449 0)
(1.03961 -0.0239472 0)
(1.04428 -0.0178382 0)
(1.04928 -0.00695466 0)
(1.05429 0.00678841 0)
(1.05823 0.0194727 0)
(1.06075 0.0275036 0)
(1.06223 0.0306851 0)
(1.06243 0.0305943 0)
(1.06038 0.025963 0)
(1.05641 0.0168133 0)
(1.05116 0.00606724 0)
(1.04483 -0.00375746 0)
(1.03755 -0.011117 0)
(1.03001 -0.0152472 0)
(1.02305 -0.0158768 0)
(2.78263 -0.218536 0)
(2.76369 -0.247887 0)
(2.73912 -0.280875 0)
(2.70743 -0.316901 0)
(2.66703 -0.353985 0)
(2.61626 -0.388364 0)
(2.55371 -0.414509 0)
(2.47856 -0.426281 0)
(2.3909 -0.419153 0)
(2.29215 -0.39255 0)
(2.1854 -0.349569 0)
(2.07483 -0.294816 0)
(1.9651 -0.231263 0)
(1.86328 -0.162534 0)
(1.77108 -0.0929591 0)
(1.68762 -0.0290193 0)
(1.61296 0.0194895 0)
(1.54815 0.0474411 0)
(1.49609 0.0521015 0)
(1.45056 0.0343331 0)
(1.40249 0.0115051 0)
(1.32893 -0.00451978 0)
(1.22226 -0.0224039 0)
(1.11735 -0.0505762 0)
(1.03498 -0.100285 0)
(0.973161 -0.166497 0)
(0.919274 -0.229165 0)
(0.860317 -0.272363 0)
(0.79285 -0.288488 0)
(0.720299 -0.278091 0)
(0.645266 -0.243819 0)
(0.572993 -0.185916 0)
(0.51101 -0.110142 0)
(0.463906 -0.0267235 0)
(0.43596 0.0501173 0)
(0.424927 0.107559 0)
(0.428221 0.142099 0)
(0.441796 0.154421 0)
(0.460408 0.145143 0)
(0.478503 0.119484 0)
(0.491257 0.0851097 0)
(0.495314 0.0449495 0)
(0.490518 0.00131553 0)
(0.47787 -0.0404938 0)
(0.459978 -0.0763848 0)
(0.439756 -0.103595 0)
(0.420331 -0.120099 0)
(0.403135 -0.122864 0)
(0.391204 -0.109318 0)
(0.388605 -0.0740294 0)
(0.39816 -0.0212319 0)
(0.42035 0.0369637 0)
(0.44987 0.0821116 0)
(0.477456 0.108188 0)
(0.498895 0.116992 0)
(0.513607 0.114684 0)
(0.522525 0.102329 0)
(0.528783 0.0776481 0)
(0.536857 0.0448565 0)
(0.547845 0.00899496 0)
(0.558227 -0.0207406 0)
(0.565592 -0.0364192 0)
(0.571361 -0.0393947 0)
(0.575754 -0.0355189 0)
(0.579056 -0.020311 0)
(0.579584 0.000782546 0)
(0.5788 0.020734 0)
(0.580407 0.0351989 0)
(0.584707 0.0426492 0)
(0.59181 0.0435756 0)
(0.599656 0.0402379 0)
(0.607218 0.0303189 0)
(0.613836 0.017002 0)
(0.618503 0.00387561 0)
(0.61963 -0.00738078 0)
(0.617306 -0.0151753 0)
(0.613271 -0.0194589 0)
(0.609145 -0.020142 0)
(0.60573 -0.0171552 0)
(0.60324 -0.0108738 0)
(0.601781 -0.00202329 0)
(0.603196 0.00862195 0)
(0.607235 0.0181341 0)
(0.612528 0.0246875 0)
(0.61853 0.0279885 0)
(0.624595 0.0277338 0)
(0.629905 0.0235832 0)
(0.633689 0.0160278 0)
(0.635309 0.00682442 0)
(0.634825 -0.00165821 0)
(0.632534 -0.00831233 0)
(0.629243 -0.0124816 0)
(0.62554 -0.0138485 0)
(2.4581 -0.190804 0)
(2.40773 -0.213457 0)
(2.34705 -0.238363 0)
(2.27444 -0.265092 0)
(2.18911 -0.291866 0)
(2.08869 -0.314686 0)
(1.97386 -0.328738 0)
(1.84772 -0.328991 0)
(1.71398 -0.311551 0)
(1.57769 -0.276731 0)
(1.44092 -0.228469 0)
(1.31609 -0.176733 0)
(1.20652 -0.125264 0)
(1.12991 -0.0792034 0)
(1.07673 -0.0306951 0)
(1.02577 0.0193797 0)
(0.977106 0.0565152 0)
(0.919127 0.0810766 0)
(0.843071 0.0976378 0)
(0.747846 0.116366 0)
(0.667218 0.131168 0)
(0.611524 0.12994 0)
(0.575213 0.091416 0)
(0.559133 0.0117523 0)
(0.541127 -0.0651965 0)
(0.502958 -0.128485 0)
(0.444268 -0.173074 0)
(0.369594 -0.198575 0)
(0.286423 -0.2052 0)
(0.203078 -0.193594 0)
(0.125961 -0.163505 0)
(0.0605565 -0.117419 0)
(0.0127334 -0.0604071 0)
(-0.0129262 -0.000945973 0)
(-0.0172018 0.0514074 0)
(-0.00213302 0.0913157 0)
(0.026763 0.115055 0)
(0.0618927 0.122668 0)
(0.0983488 0.115868 0)
(0.13107 0.0972956 0)
(0.155848 0.0697228 0)
(0.170412 0.0366987 0)
(0.174042 0.00247387 0)
(0.16563 -0.0297411 0)
(0.146367 -0.0567203 0)
(0.118864 -0.0774202 0)
(0.085995 -0.0896245 0)
(0.0510247 -0.0916587 0)
(0.0182641 -0.0808659 0)
(-0.00596779 -0.0555593 0)
(-0.0160114 -0.0181501 0)
(-0.00955107 0.0242711 0)
(0.0126622 0.059873 0)
(0.0434692 0.0822269 0)
(0.077118 0.0908481 0)
(0.111112 0.0862881 0)
(0.142459 0.0703618 0)
(0.16819 0.0470857 0)
(0.185492 0.0219474 0)
(0.193438 -0.00098549 0)
(0.193949 -0.0187365 0)
(0.189969 -0.0289641 0)
(0.184019 -0.031757 0)
(0.178492 -0.0268934 0)
(0.175517 -0.0162869 0)
(0.176757 -0.00271371 0)
(0.181848 0.0111091 0)
(0.190586 0.0217658 0)
(0.201495 0.0280578 0)
(0.213346 0.0293284 0)
(0.224665 0.0267704 0)
(0.234324 0.0216126 0)
(0.240849 0.0143982 0)
(0.244022 0.00560789 0)
(0.243821 -0.00355919 0)
(0.241396 -0.0105888 0)
(0.237437 -0.0147985 0)
(0.232817 -0.0159825 0)
(0.228606 -0.0145094 0)
(0.225568 -0.0101896 0)
(0.224525 -0.00349211 0)
(0.226395 0.00464125 0)
(0.230908 0.0118205 0)
(0.237666 0.0166534 0)
(0.245794 0.018812 0)
(0.254242 0.0184061 0)
(0.262023 0.0154641 0)
(0.268093 0.0104592 0)
(0.27165 0.00451385 0)
(0.272715 -0.00124144 0)
(0.271722 -0.00578991 0)
(0.269369 -0.00852899 0)
(0.26635 -0.00916479 0)
(1.63877 -0.118594 0)
(1.53681 -0.127269 0)
(1.4184 -0.13535 0)
(1.28153 -0.14286 0)
(1.12597 -0.150204 0)
(0.961099 -0.156559 0)
(0.791575 -0.159168 0)
(0.628382 -0.155469 0)
(0.482527 -0.142392 0)
(0.354773 -0.115708 0)
(0.238525 -0.0766094 0)
(0.12225 -0.0359256 0)
(0.0238899 -0.0125061 0)
(-0.0396111 0.00725366 0)
(-0.0552069 0.0440406 0)
(-0.0389548 0.0921945 0)
(-0.0110655 0.137145 0)
(0.0270709 0.167491 0)
(0.0702608 0.17734 0)
(0.123293 0.162132 0)
(0.179568 0.128278 0)
(0.232893 0.0904689 0)
(0.272543 0.0482163 0)
(0.288432 0.00721345 0)
(0.272587 -0.0320383 0)
(0.228634 -0.0674893 0)
(0.164289 -0.094321 0)
(0.0849029 -0.110737 0)
(0.00085662 -0.116731 0)
(-0.0824563 -0.11163 0)
(-0.157157 -0.0948248 0)
(-0.215959 -0.0681292 0)
(-0.252694 -0.0338087 0)
(-0.265061 0.00227223 0)
(-0.254741 0.0347901 0)
(-0.225881 0.0601613 0)
(-0.183924 0.0748993 0)
(-0.135632 0.0797019 0)
(-0.0871516 0.0753128 0)
(-0.0435324 0.0636837 0)
(-0.00962473 0.0472187 0)
(0.0120319 0.0278495 0)
(0.0201208 0.00732484 0)
(0.0149578 -0.0129981 0)
(-0.00375067 -0.0306961 0)
(-0.0331324 -0.0445284 0)
(-0.0690025 -0.0534151 0)
(-0.108043 -0.0562462 0)
(-0.145211 -0.0514368 0)
(-0.175023 -0.0378575 0)
(-0.191392 -0.0168224 0)
(-0.190174 0.00741424 0)
(-0.173366 0.0290572 0)
(-0.144591 0.0431973 0)
(-0.109332 0.0493408 0)
(-0.0725282 0.0479203 0)
(-0.039323 0.0404623 0)
(-0.0136571 0.028258 0)
(0.00148736 0.0141011 0)
(0.00564906 -0.000351957 0)
(0.000981464 -0.0120272 0)
(-0.0109626 -0.0192241 0)
(-0.0254388 -0.0214384 0)
(-0.0387143 -0.0190925 0)
(-0.0484306 -0.0126968 0)
(-0.0522092 -0.00401725 0)
(-0.0495723 0.00465223 0)
(-0.0421341 0.0115284 0)
(-0.031318 0.0157232 0)
(-0.0191457 0.0170489 0)
(-0.00726203 0.0158819 0)
(0.00301617 0.0124706 0)
(0.0105334 0.00748751 0)
(0.0146364 0.00197715 0)
(0.0148836 -0.00323737 0)
(0.0119811 -0.00737229 0)
(0.00699901 -0.00991955 0)
(0.000942302 -0.0107287 0)
(-0.00492876 -0.00978528 0)
(-0.0093164 -0.0071739 0)
(-0.0113288 -0.00330806 0)
(-0.0103498 0.00118453 0)
(-0.00652569 0.00538024 0)
(-0.000166683 0.00841188 0)
(0.00764817 0.00997864 0)
(0.0157396 0.00996714 0)
(0.0231309 0.00837299 0)
(0.0288725 0.00551043 0)
(0.0322823 0.00197536 0)
(0.0333244 -0.00153367 0)
(0.0322162 -0.00437913 0)
(0.0296102 -0.00616367 0)
(0.0263167 -0.00671337 0)
(0.287645 -0.0214243 0)
(0.226876 -0.0168125 0)
(0.166326 -0.0113788 0)
(0.109971 -0.00843986 0)
(0.0469953 -0.0113504 0)
(-0.0262191 -0.0162821 0)
(-0.105621 -0.0173197 0)
(-0.192175 -0.00922598 0)
(-0.2751 0.00702136 0)
(-0.340995 0.0235973 0)
(-0.37857 0.0315749 0)
(-0.393898 0.0275712 0)
(-0.402939 0.00681837 0)
(-0.411203 -0.00897311 0)
(-0.410309 -0.0119006 0)