/*--------------------------------*- C++ -*----------------------------------*\
| =========                 |                                                 |
| \\      /  F ield         | OpenFOAM: The Open Source CFD Toolbox           |
|  \\    /   O peration     | Version:  2206                                  |
|   \\  /    A nd           | Website:  www.openfoam.com                      |
|    \\/     M anipulation  |                                                 |
\*---------------------------------------------------------------------------*/
FoamFile
{
    version     2.0;
    format      ascii;
    arch        "LSB;label=32;scalar=64";
    class       surfaceScalarField;
    location    "18.9999";
    object      ddtCorrDdt0(phi);
}
// * * * * * * * * * * * * * * * * * * * * * * * * * * * * * * * * * * * * * //

dimensions      [0 3 -2 0 0 0 0];

oriented        oriented;

internalField   nonuniform List<scalar> 
9531
(
5.40678e-05
-0.000543565
0.00057428
2.11918e-05
-0.000556328
0.000589204
-1.19477e-05
-0.000559101
0.000592241
-4.4712e-05
-0.000553795
0.000586559
-7.7209e-05
-0.000539641
0.000572138
-0.000107862
-0.000518974
0.000549627
-0.000135702
-0.000492035
0.000519875
-0.000160024
-0.000459597
0.000483919
-0.000180312
-0.000422871
0.000443159
-0.000196287
-0.000383176
0.000399151
-0.000207891
-0.00034188
0.000353483
-0.000215251
-0.000300317
0.000307677
-0.000218644
-0.000259712
0.000263105
-0.000218451
-0.000221134
0.000220942
-0.000215127
-0.000185463
0.000182139
-0.000209173
-0.000153378
0.000147424
-0.000201116
-0.000125365
0.000117309
-0.000191477
-0.000101746
9.21068e-05
-0.000180791
-8.26637e-05
7.19775e-05
-0.000169575
-6.80462e-05
5.68303e-05
-0.000158227
-5.7744e-05
4.63959e-05
-0.000147018
-5.15346e-05
4.03257e-05
-0.000136088
-4.91881e-05
3.82582e-05
-0.000125468
-5.05325e-05
3.99122e-05
-0.000115195
-5.5425e-05
4.51525e-05
-0.000105488
-6.34253e-05
5.37186e-05
-9.66302e-05
-7.32381e-05
6.438e-05
-8.87458e-05
-8.32055e-05
7.5321e-05
-8.22228e-05
-9.13699e-05
8.48469e-05
-7.73011e-05
-9.47761e-05
8.98543e-05
-7.34226e-05
-9.27821e-05
8.89037e-05
-6.97714e-05
-8.57002e-05
8.2049e-05
-6.54051e-05
-7.45432e-05
7.01769e-05
-6.01352e-05
-6.01915e-05
5.49215e-05
-5.54839e-05
-4.22174e-05
3.75661e-05
-5.34945e-05
-1.64833e-05
1.44938e-05
-4.91664e-05
1.99303e-05
-2.42584e-05
-4.34118e-05
6.27525e-05
-6.85071e-05
-3.82784e-05
0.0001091
-0.000114234
-3.39266e-05
0.000158646
-0.000162997
-3.04588e-05
0.000211081
-0.000214549
-2.79052e-05
0.000265904
-0.000268457
-2.62651e-05
0.000322442
-0.000324082
-2.54777e-05
0.000379775
-0.000380562
-2.54143e-05
0.000436694
-0.000436757
-2.59027e-05
0.000491699
-0.000491211
-2.67738e-05
0.000543053
-0.000542182
-2.78913e-05
0.000588801
-0.000587683
-2.90982e-05
0.000626778
-0.000625571
-3.01208e-05
0.0006544
-0.000653377
-3.011e-05
0.000667317
-0.000667328
-2.89356e-05
0.000663261
-0.000664435
-2.64354e-05
0.000647399
-0.000649899
-2.25627e-05
0.00062058
-0.000624453
-1.74116e-05
0.000584279
-0.00058943
-1.12454e-05
0.000540286
-0.000546453
-4.37514e-06
0.00049063
-0.000497501
2.90114e-06
0.000437349
-0.000444625
1.0202e-05
0.00038225
-0.000389551
1.72521e-05
0.000326955
-0.000334005
2.39201e-05
0.000272752
-0.00027942
3.00287e-05
0.00022058
-0.000226689
3.56083e-05
0.000171234
-0.000176813
4.07791e-05
0.000125389
-0.00013056
4.58537e-05
8.32726e-05
-8.83472e-05
5.2258e-05
4.40838e-05
-5.0488e-05
6.13178e-05
6.05531e-06
-1.51152e-05
7.30484e-05
-2.70382e-05
1.53075e-05
8.23789e-05
-5.47564e-05
4.54259e-05
9.22565e-05
-7.56082e-05
6.57306e-05
0.000102769
-8.95299e-05
7.90175e-05
0.000113816
-9.70646e-05
8.60174e-05
0.00012512
-9.88942e-05
8.75906e-05
0.000136296
-9.59723e-05
8.47964e-05
0.000146899
-8.96114e-05
7.90079e-05
0.000156493
-8.14089e-05
7.18151e-05
0.000164729
-7.31116e-05
6.48754e-05
0.000171406
-6.64e-05
5.97237e-05
0.000176482
-6.26788e-05
5.76028e-05
0.000180068
-6.29201e-05
5.93334e-05
0.000182397
-6.75603e-05
6.52318e-05
0.00018376
-7.64764e-05
7.51132e-05
0.00018444
-8.90746e-05
8.83947e-05
0.000184637
-0.00010447
0.000104274
0.000184419
-0.000121714
0.000121931
0.000183707
-0.000139996
0.000140708
0.000182283
-0.000158775
0.000160199
0.000179819
-0.000177818
0.000180282
0.000175992
-0.000197145
0.000200972
0.000170472
-0.000216851
0.000222371
0.000162965
-0.000237081
0.000244588
0.000153244
-0.000257884
0.000267605
0.000141173
-0.00027914
0.000291212
0.000126716
-0.000300533
0.000314989
0.000109946
-0.000321562
0.000338332
9.10411e-05
-0.000341588
0.000360492
7.02891e-05
-0.000359889
0.000380641
4.80614e-05
-0.000375703
0.00039793
2.4787e-05
-0.000388282
0.000411556
9.83639e-07
-0.000397025
0.000420829
-2.26472e-05
-0.000401492
0.000425123
-4.52838e-05
-0.000400742
0.000423379
-6.68187e-05
-0.000395163
0.000416698
-8.68561e-05
-0.000385392
0.000405429
-0.000105037
-0.00037164
0.000389821
-0.000121089
-0.000354236
0.000370288
-0.000134813
-0.00033367
0.000347395
-0.000146088
-0.000310525
0.0003218
-0.000154864
-0.000285446
0.000294221
-0.000161159
-0.000259098
0.000265393
-0.000165057
-0.000232139
0.000236037
-0.000166696
-0.000205189
0.000206827
-0.000166256
-0.000178806
0.000178367
-0.00016396
-0.000153471
0.000151175
-0.000160053
-0.000129573
0.000125666
-0.00015479
-0.000107406
0.000102143
-0.000148399
-8.71929e-05
8.08012e-05
-0.000141105
-6.90594e-05
6.17657e-05
-0.000133175
-5.29826e-05
4.50524e-05
-0.000124884
-3.88769e-05
3.05858e-05
-0.000116526
-2.65632e-05
1.82057e-05
-0.000108391
-1.57544e-05
7.61942e-06
-0.000100741
-6.06766e-06
-1.58247e-06
-9.37954e-05
2.95674e-06
-9.90254e-06
-8.77209e-05
1.18006e-05
-1.78753e-05
-8.26454e-05
2.08364e-05
-2.59119e-05
-7.867e-05
3.01965e-05
-3.41719e-05
-7.58065e-05
4.03125e-05
-4.31761e-05
-7.40789e-05
5.16461e-05
-5.33737e-05
-7.34564e-05
6.4556e-05
-6.51786e-05
-7.38824e-05
7.93583e-05
-7.89323e-05
-7.52796e-05
9.63164e-05
-9.49192e-05
-7.75413e-05
0.00011563
-0.000113369
-8.05267e-05
0.000137417
-0.000134432
-8.4058e-05
0.000161688
-0.000158157
-8.79222e-05
0.000188326
-0.000184462
-9.18772e-05
0.00021707
-0.000213115
0.000247509
-0.000243723
4.83062e-05
-0.000513876
1.81999e-05
-0.000526222
-1.32321e-05
-0.000527669
-4.54801e-05
-0.000521547
-7.62261e-05
-0.000508895
-0.000105247
-0.000489953
-0.000131925
-0.000465357
-0.000155519
-0.000436003
-0.000175509
-0.000402881
-0.000191588
-0.000367098
-0.000203645
-0.000329823
-0.00021175
-0.000292212
-0.000216123
-0.000255339
-0.000217101
-0.000220156
-0.0002151
-0.000187463
-0.000210593
-0.000157885
-0.000204077
-0.000131881
-0.000196049
-0.000109774
-0.00018703
-9.16829e-05
-0.00017746
-7.76163e-05
-0.000167693
-6.75105e-05
-0.000157978
-6.12494e-05
-0.000148464
-5.87026e-05
-0.000139249
-5.97472e-05
-0.000130484
-6.41903e-05
-0.000122456
-7.14532e-05
-0.000115488
-8.02062e-05
-0.00010972
-8.89732e-05
-0.000105373
-9.57167e-05
-0.000102181
-9.79684e-05
-9.94991e-05
-9.54639e-05
-9.6631e-05
-8.85683e-05
-9.33096e-05
-7.78646e-05
-9.00718e-05
-6.34294e-05
-8.80391e-05
-4.42501e-05
-8.68043e-05
-1.77181e-05
-8.40098e-05
1.71359e-05
-7.98997e-05
5.86423e-05
-7.56194e-05
0.00010482
-7.16353e-05
0.000154662
-6.81071e-05
0.000207553
-6.5054e-05
0.000262851
-6.24016e-05
0.00031979
-6.00112e-05
0.000377385
-5.77034e-05
0.000434386
-5.52728e-05
0.000489269
-5.25405e-05
0.00054032
-4.94044e-05
0.000585665
-4.57836e-05
0.000623157
-4.14172e-05
0.000650034
-3.55235e-05
0.000661423
-2.8397e-05
0.000656134
-2.01054e-05
0.000639107
-1.08129e-05
0.000611288
-7.89514e-07
0.000574256
9.61111e-06
0.000529886
2.00245e-05
0.000480217
3.0119e-05
0.000427254
3.96048e-05
0.000372764
4.82697e-05
0.000318291
5.59723e-05
0.00026505
6.26107e-05
0.000213942
6.82277e-05
0.000165617
7.32418e-05
0.000120375
7.85716e-05
7.79428e-05
8.55931e-05
3.70623e-05
9.38699e-05
-2.22145e-06
0.000102447
-3.56151e-05
0.000110892
-6.32013e-05
0.000119725
-8.44415e-05
0.000129142
-9.89472e-05
0.000139079
-0.000107001
0.000149295
-0.00010911
0.000159428
-0.000106106
0.000169033
-9.92161e-05
0.000177662
-9.00383e-05
0.000184964
-8.04127e-05
0.0001907
-7.21366e-05
0.00019477
-6.67482e-05
0.000197222
-6.53722e-05
0.000198257
-6.85955e-05
0.000198178
-7.63977e-05
0.000197321
-8.82178e-05
0.000195963
-0.000103112
0.000194253
-0.000120004
0.000192181
-0.000137924
0.000189586
-0.00015618
0.000186181
-0.000174412
0.000181597
-0.000192561
0.000175497
-0.000210751
0.00016757
-0.000229154
0.000157566
-0.00024788
0.000145323
-0.000266897
0.000130783
-0.000285993
0.000113992
-0.000304771
9.51028e-05
-0.000322698
7.43733e-05
-0.00033916
5.21515e-05
-0.000353481
2.87966e-05
-0.000364927
4.67203e-06
-0.000372901
-1.93217e-05
-0.000377499
-4.23219e-05
-0.000377742
-6.44377e-05
-0.000373047
-8.52579e-05
-0.000364572
-0.000104353
-0.000352545
-0.000121428
-0.000337162
-0.000136264
-0.000318834
-0.000148717
-0.000298073
-0.000158716
-0.000275447
-0.000166262
-0.000251552
-0.00017142
-0.000226981
-0.000174313
-0.000202295
-0.000175115
-0.000178004
-0.000174037
-0.00015455
-0.000171313
-0.000132296
-0.00016718
-0.000111539
-0.000161863
-9.25102e-05
-0.000155657
-7.52652e-05
-0.000148843
-5.97968e-05
-0.000141703
-4.60171e-05
-0.000134521
-3.3745e-05
-0.000127568
-2.27072e-05
-0.000121089
-1.25467e-05
-0.00011529
-2.84275e-06
-0.000110317
6.82746e-06
-0.000106251
1.67707e-05
-0.000103155
2.71011e-05
-0.00010108
3.82373e-05
-0.000100055
5.06209e-05
-0.000100052
6.45526e-05
-0.000101001
8.03079e-05
-0.000102804
9.8119e-05
-0.000105324
0.000118151
-0.000108388
0.000140482
-0.000111789
0.000165089
-0.00011529
0.000191826
-0.000118634
0.000220415
0.000250436
4.18054e-05
-0.000485074
1.3238e-05
-0.000497655
-1.65534e-05
-0.000497878
-4.66808e-05
-0.00049142
-7.54838e-05
-0.000480092
-0.000102818
-0.000462619
-0.000128085
-0.00044009
-0.000150642
-0.000413446
-0.00017002
-0.000383503
-0.000185904
-0.000351213
-0.000198154
-0.000317573
-0.000206797
-0.000283569
-0.000212003
-0.000250133
-0.000214059
-0.000218101
-0.000213336
-0.000188186
-0.000210262
-0.00016096
-0.00020529
-0.000136853
-0.000198904
-0.000116161
-0.000191557
-9.90296e-05
-0.000183643
-8.55304e-05
-0.000175483
-7.56706e-05
-0.000167318
-6.94146e-05
-0.000159322
-6.66981e-05
-0.000151663
-6.7407e-05
-0.000144584
-7.12686e-05
-0.000138433
-7.76047e-05
-0.000133482
-8.5157e-05
-0.000129858
-9.25973e-05
-0.000127465
-9.811e-05
-0.000125803
-9.96304e-05
-0.000124445
-9.68212e-05
-0.000123026
-8.99879e-05
-0.000121591
-7.92996e-05
-0.000120544
-6.4476e-05
-0.000120261
-4.45337e-05
-0.000120043
-1.79352e-05
-0.000118739
1.58315e-05
-0.00011622
5.61236e-05
-0.000113015
0.000101615
-0.000109559
0.000151205
-0.000106055
0.000204049
-0.000102529
0.000259324
-9.88713e-05
0.000316132
-9.48674e-05
0.000373381
-9.02242e-05
0.000429742
-8.46687e-05
0.000483713
-7.8019e-05
0.000533671
-7.02375e-05
0.000577883
-6.14047e-05
0.000614324
-5.14091e-05
0.000640038
-3.94955e-05
0.00064951
-2.65493e-05
0.000643188
-1.26969e-05
0.000625255
1.74527e-06
0.000596846
1.63861e-05
0.000559615
3.07749e-05
0.000515497
4.44815e-05
0.00046651
5.71426e-05
0.000414593
6.84702e-05
0.000361436
7.83254e-05
0.000308435
8.66891e-05
0.000256686
9.36768e-05
0.000206954
9.96019e-05
0.000159692
0.000105006
0.000114971
0.000110805
7.21437e-05
0.000117617
3.0251e-05
0.000124373
-8.97814e-06
0.0001314
-4.2642e-05
0.000138756
-7.05572e-05
0.000146544
-9.22296e-05
0.000154907
-0.00010731
0.000163761
-0.000115855
0.00017287
-0.000118219
0.00018188
-0.000115116
0.000190355
-0.000107691
0.000197857
-9.75399e-05
0.000204074
-8.66298e-05
0.000208764
-7.68267e-05
0.000211767
-6.97513e-05
0.000213054
-6.66592e-05
0.00021277
-6.83116e-05
0.000211198
-7.48255e-05
0.000208715
-8.5735e-05
0.000205673
-0.00010007
0.000202312
-0.000116642
0.000198709
-0.000134322
0.000194774
-0.000152245
0.000190265
-0.000169903
0.000184831
-0.000187127
0.000178111
-0.000204031
0.000169764
-0.000220807
0.000159508
-0.000237624
0.000147157
-0.000254545
0.00013263
-0.000271466
0.000115954
-0.000288094
9.72673e-05
-0.000304012
7.67985e-05
-0.000318691
5.48827e-05
-0.000331565
3.19197e-05
-0.000341964
7.53488e-06
-0.000348516
-1.65102e-05
-0.000353454
-3.9229e-05
-0.000355024
-6.17136e-05
-0.000350562
-8.30282e-05
-0.000343257
-0.000102724
-0.000332849
-0.000120531
-0.000319354
-0.000136218
-0.000303146
-0.000149625
-0.000284666
-0.000160665
-0.000264406
-0.000169324
-0.000242894
-0.00017565
-0.000220655
-0.000179752
-0.000198193
-0.000181787
-0.000175969
-0.00018195
-0.000154387
-0.000180458
-0.000133789
-0.000177525
-0.000114471
-0.000173438
-9.65978e-05
-0.00016848
-8.02226e-05
-0.000162934
-6.53434e-05
-0.000157079
-5.18718e-05
-0.000151189
-3.96347e-05
-0.000145519
-2.8377e-05
-0.0001403
-1.77667e-05
-0.000135722
-7.42e-06
-0.000131913
3.01822e-06
-0.000128897
1.37543e-05
-0.000126729
2.49334e-05
-0.000125493
3.70017e-05
-0.000125199
5.03265e-05
-0.000125807
6.51603e-05
-0.000127236
8.17375e-05
-0.000129368
0.000100251
-0.000132044
0.000120827
-0.000135071
0.000143509
-0.000138226
0.000168245
-0.00014127
0.00019487
-0.00014394
0.000223086
0.000252434
3.44757e-05
-0.00045595
6.29066e-06
-0.00046947
-2.13463e-05
-0.000470241
-4.83589e-05
-0.000464407
-7.51847e-05
-0.000453267
-0.000100751
-0.000437052
-0.000124439
-0.000416402
-0.000145763
-0.000392122
-0.000164297
-0.000364969
-0.000179746
-0.000335765
-0.000191961
-0.000305358
-0.000200942
-0.000274588
-0.000206816
-0.000244259
-0.000209821
-0.000215096
-0.00021028
-0.000187727
-0.000208568
-0.000162671
-0.000205098
-0.000140324
-0.000200303
-0.000120955
-0.000194584
-0.000104749
-0.000188295
-9.18195e-05
-0.000181735
-8.22305e-05
-0.000175146
-7.60039e-05
-0.000168736
-7.31084e-05
-0.000162733
-7.34093e-05
-0.00015744
-7.65618e-05
-0.00015323
-8.18152e-05
-0.000150269
-8.81183e-05
-0.000148647
-9.42184e-05
-0.000148146
-9.86112e-05
-0.000148148
-9.96286e-05
-0.000148405
-9.65641e-05
-0.000148745
-8.96478e-05
-0.00014924
-7.8805e-05
-0.000150119
-6.3597e-05
-0.000151432
-4.32204e-05
-0.000152542
-1.68255e-05
-0.000152715
1.60044e-05
-0.000151779
5.51883e-05
-0.000149911
9.97468e-05
-0.000147283
0.000148577
-0.000143962
0.000200728
-0.000139923
0.000255285
-0.000135022
0.000311231
-0.000129018
0.000367377
-0.00012165
0.000422374
-0.000112693
0.000474756
-0.000102011
0.000522988
-8.96145e-05
0.000565487
-7.56644e-05
0.000600374
-6.01524e-05
0.000624526
-4.24741e-05
0.000631831
-2.39316e-05
0.000624645
-4.79433e-06
0.000606118
1.44869e-05
0.000577564
3.3403e-05
0.000540699
5.14374e-05
0.000497463
6.81133e-05
0.000449835
8.30678e-05
0.000399639
9.60553e-05
0.000348449
0.000106985
0.000297506
0.000115957
0.000247713
0.000123247
0.000199664
0.000129344
0.000153595
0.000134984
0.00010933
0.000140937
6.61911e-05
0.000147184
2.40042e-05
0.000153074
-1.48689e-05
0.000159161
-4.87283e-05
0.000165628
-7.70248e-05
0.000172547
-9.91486e-05
0.000179957
-0.00011472
0.000187761
-0.000123658
0.000195737
-0.000126196
0.000203548
-0.000122927
0.000210703
-0.000114845
0.000216895
-0.000103733
0.000221898
-9.16326e-05
0.000225441
-8.03701e-05
0.000227326
-7.16357e-05
0.000227472
-6.68058e-05
0.000225911
-6.67501e-05
0.000222858
-7.17724e-05
0.000218732
-8.1609e-05
0.000213934
-9.52727e-05
0.000208799
-0.000111507
0.000203514
-0.000129037
0.000198079
-0.00014681
0.000192311
-0.000164136
0.000185922
-0.000180738
0.000178544
-0.000196654
0.000169801
-0.000212064
0.000159368
-0.000227191
0.000147007
-0.000242184
0.00013259
-0.000257049
0.000116138
-0.000271642
9.77345e-05
-0.000285608
7.75526e-05
-0.000298509
5.59088e-05
-0.000309921
3.32737e-05
-0.000319329
1.08722e-05
-0.000326114
-1.25551e-05
-0.000330026
-3.67105e-05
-0.000330868
-5.93154e-05
-0.000327957
-8.06619e-05
-0.00032191
-0.000100603
-0.000312908
-0.000118812
-0.000301145
-0.000135055
-0.000286903
-0.000149168
-0.000270553
-0.000161047
-0.000252527
-0.000170661
-0.00023328
-0.00017804
-0.000213275
-0.000183274
-0.000192959
-0.0001865
-0.000172743
-0.000187894
-0.000152994
-0.000187651
-0.000134032
-0.000186007
-0.000116115
-0.000183249
-9.93555e-05
-0.000179648
-8.38239e-05
-0.000175477
-6.95149e-05
-0.000171004
-5.63442e-05
-0.00016649
-4.41491e-05
-0.000162177
-3.26901e-05
-0.000158283
-2.16603e-05
-0.000154978
-1.07253e-05
-0.000152343
3.83378e-07
-0.000150379
1.17899e-05
-0.000149164
2.37184e-05
-0.000148771
3.66093e-05
-0.000149189
5.07443e-05
-0.000150363
6.63342e-05
-0.0001522
8.35744e-05
-0.000154566
0.000102617
-0.000157292
0.000123552
-0.000160179
0.000146395
-0.000163
0.000171067
-0.000165499
0.000197368
-0.000167349
0.000224935
0.000253246
2.81463e-05
-0.000425319
-3.92925e-07
-0.00044093
-2.64358e-05
-0.000444198
-5.17088e-05
-0.000439134
-7.6275e-05
-0.0004287
-9.97435e-05
-0.000413584
-0.000121614
-0.000394531
-0.000141457
-0.00037228
-0.000158897
-0.000347528
-0.000173667
-0.000320996
-0.000185616
-0.000293409
-0.00019472
-0.000265485
-0.00020107
-0.000237909
-0.000204858
-0.000211307
-0.000206355
-0.00018623
-0.000205888
-0.000163138
-0.000203817
-0.000142395
-0.000200513
-0.000124259
-0.000196336
-0.000108926
-0.000191604
-9.6551e-05
-0.000186602
-8.7233e-05
-0.00018158
-8.10258e-05
-0.000176785
-7.79038e-05
-0.000172489
-7.77053e-05
-0.000169008
-8.00428e-05
-0.000166657
-8.41657e-05
-0.000165579
-8.91966e-05
-0.000165815
-9.39825e-05
-0.000167148
-9.72779e-05
-0.000168964
-9.78127e-05
-0.000170926
-9.46015e-05
-0.000173093
-8.74817e-05
-0.000175515
-7.63822e-05
-0.00017828
-6.08323e-05
-0.000181141
-4.03595e-05
-0.000183629
-1.43374e-05
-0.000185387
1.7762e-05
-0.000185973
5.57748e-05
-0.000185181
9.89545e-05
-0.00018304
0.000146437
-0.00017963
0.000197318
-0.000174906
0.00025056
-0.000168691
0.000305016
-0.000160735
0.000359421
-0.000150762
0.000412402
-0.000138548
0.000462543
-0.000124025
0.000508465
-0.000107293
0.000548755
-8.85184e-05
0.000581599
-6.77136e-05
0.000603721
-4.46514e-05
0.000608769
-2.08988e-05
0.000600893
3.09858e-06
0.00058212
2.67561e-05
0.000553907
4.94615e-05
0.000517994
7.06478e-05
0.000476276
8.98416e-05
0.000430641
0.000106699
0.000382782
0.000121049
0.000334099
0.000132894
0.00028566
0.000142429
0.000238179
0.000150067
0.000192026
0.000156409
0.000147253
0.000162237
0.000103502
0.000168193
6.02357e-05
0.000174059
1.81384e-05
0.000179573
-2.03833e-05
0.000185199
-5.43546e-05
0.000191126
-8.29511e-05
0.000197408
-0.000105431
0.000204033
-0.000121345
0.000210892
-0.000130517
0.000217763
-0.000133067
0.000224244
-0.000129408
0.000229964
-0.000120566
0.00023481
-0.000108578
0.000238502
-9.53244e-05
0.000240754
-8.26228e-05
0.000241367
-7.22481e-05
0.00024026
-6.5699e-05
0.000237477
-6.39668e-05
0.000233142
-6.74373e-05
0.000227453
-7.59207e-05
0.000220884
-8.87032e-05
0.000213917
-0.000104541
0.000206843
-0.000121962
0.00019976
-0.000139727
0.000192586
-0.000156961
0.000185102
-0.000173254
0.000176969
-0.00018852
0.000167809
-0.000202904
0.000157268
-0.00021665
0.000145059
-0.000229975
0.000130993
-0.000242983
0.00011498
-0.000255629
9.70805e-05
-0.000267709
7.74668e-05
-0.000278895
5.63093e-05
-0.000288764
3.40274e-05
-0.000297047
1.22134e-05
-0.0003043
-1.0421e-05
-0.000307392
-3.4274e-05
-0.000307015
-5.67586e-05
-0.000305473
-7.79884e-05
-0.000300681
-9.79561e-05
-0.000292941
-0.000116358
-0.000282744
-0.000132954
-0.000270306
-0.00014758
-0.000255928
-0.000160126
-0.000239981
-0.000170547
-0.000222859
-0.000178859
-0.000204963
-0.000185133
-0.000186684
-0.000189489
-0.000168387
-0.000192084
-0.000150399
-0.000193103
-0.000133012
-0.000192803
-0.000116415
-0.000191434
-0.000100724
-0.000189253
-8.60045e-05
-0.000186519
-7.22492e-05
-0.000183486
-5.93775e-05
-0.0001804
-4.7235e-05
-0.000177493
-3.55973e-05
-0.000174963
-2.419e-05
-0.00017294
-1.27482e-05
-0.000171448
-1.10922e-06
-0.000170506
1.08484e-05
-0.000170226
2.34388e-05
-0.000170642
3.70252e-05
-0.000171718
5.18199e-05
-0.000173386
6.80019e-05
-0.000175542
8.57307e-05
-0.000178046
0.000105122
-0.000180726
0.000126232
-0.000183374
0.000149043
-0.000185741
0.000173433
-0.000187499
0.000199127
-0.00018827
0.000225706
0.000252735
2.3289e-05
-0.000392693
-5.92204e-06
-0.000411719
-3.15936e-05
-0.000418527
-5.55728e-05
-0.000415155
-7.83374e-05
-0.000405936
-9.98454e-05
-0.000392076
-0.000119859
-0.000374518
-0.000138093
-0.000354045
-0.000154264
-0.000331357
-0.000168151
-0.000307108
-0.000179618
-0.000281942
-0.000188628
-0.000256475
-0.000195243
-0.000231293
-0.000199615
-0.000206935
-0.000201968
-0.000183878
-0.000202576
-0.000162529
-0.000201749
-0.000143222
-0.000199796
-0.000126211
-0.000197036
-0.000111687
-0.00019376
-9.98269e-05
-0.000190241
-9.07518e-05
-0.000186741
-8.45254e-05
-0.00018353
-8.11155e-05
-0.0001809
-8.03348e-05
-0.000179181
-8.17618e-05
-0.000178582
-8.47644e-05
-0.000179245
-8.85344e-05
-0.000181158
-9.20688e-05
-0.000184133
-9.43033e-05
-0.000187789
-9.41571e-05
-0.000191649
-9.07416e-05
-0.000195669
-8.3461e-05
-0.00019995
-7.21019e-05
-0.000204342
-5.64395e-05
-0.000208654
-3.60482e-05
-0.000212586
-1.04054e-05
-0.000215603
2.07799e-05
-0.000217213
5.73848e-05
-0.000217216
9.89567e-05
-0.000215538
0.000144759
-0.000212077
0.000193857
-0.000206693
0.000245177
-0.00019919
0.000297513
-0.000189321
0.000349551
-0.000176839
0.00039992
-0.000161567
0.000447271
-0.000143484
0.000490382
-0.000122775
0.000528046
-9.96297e-05
0.000558454
-7.38152e-05
0.000577907
-4.60341e-05
0.000580988
-1.77083e-05
0.000572567
1.04995e-05
0.000553913
3.78777e-05
0.000526529
6.37473e-05
0.000492124
8.75102e-05
0.000452513
0.000108714
0.000409437
0.000127078
0.000364418
0.0001425
0.000318677
0.00015509
0.00027307
0.000165153
0.000228117
0.00017319
0.000183988
0.000179913
0.000140529
0.000186103
9.7312e-05
0.000192208
5.41313e-05
0.000198035
1.23117e-05
0.000203605
-2.59537e-05
0.000209206
-5.99559e-05
0.000214961
-8.87056e-05
0.000220879
-0.00011135
0.000226906
-0.000127372
0.000232911
-0.000136522
0.000238659
-0.000138815
0.000243729
-0.000134478
0.000248042
-0.000124879
0.0002515
-0.000112036
0.000253819
-9.76432e-05
0.000254723
-8.35265e-05
0.000254006
-7.15314e-05
0.000251573
-6.32657e-05
0.00024745
-5.98434e-05
0.000241767
-6.17547e-05
0.000234723
-6.88769e-05
0.000226589
-8.05692e-05
0.000217826
-9.57777e-05
0.000208927
-0.000113063
0.000200115
-0.000130915
0.000191427
-0.000148273
0.000182702
-0.00016453
0.000173651
-0.000179469
0.00016392
-0.000193172
0.000153147
-0.000205878
0.000141021
-0.000217849
0.000127314
-0.000229275
0.000111904
-0.000240219
9.47967e-05
-0.000250602
7.61063e-05
-0.000260205
5.60727e-05
-0.00026873
3.49688e-05
-0.000275943
1.22379e-05
-0.000281569
-1.04544e-05
-0.0002847
-3.22221e-05
-0.000285247
-5.39817e-05
-0.000283713
-7.50266e-05
-0.000279636
-9.48679e-05
-0.000273099
-0.000113287
-0.000264325
-0.000130074
-0.00025352
-0.000145055
-0.000240946
-0.000158121
-0.000226916
-0.000169217
-0.000211763
-0.000178349
-0.000195831
-0.000185574
-0.00017946
-0.000190995
-0.000162966
-0.000194756
-0.000146637
-0.000197048
-0.00013072
-0.000198099
-0.000115365
-0.000198135
-0.000100688
-0.000197396
-8.67441e-05
-0.000196121
-7.35245e-05
-0.000194549
-6.09488e-05
-0.000192916
-4.88685e-05
-0.000191434
-3.70793e-05
-0.000190264
-2.53598e-05
-0.000189473
-1.35389e-05
-0.000189055
-1.5278e-06
-0.000189094
1.08876e-05
-0.000189701
2.40461e-05
-0.000190858
3.81821e-05
-0.000192512
5.3474e-05
-0.000194586
7.00761e-05
-0.000196969
8.81134e-05
-0.000199514
0.000107667
-0.000202037
0.000128755
-0.000204307
0.000151313
-0.000206018
0.000175145
-0.000206812
0.000199921
-0.00020641
0.000225304
0.000250904
2.17706e-05
-0.000356727
-9.72946e-06
-0.000380219
-3.65046e-05
-0.000391751
-5.97599e-05
-0.0003919
-8.11959e-05
-0.0003845
-0.000101038
-0.000372234
-0.000119317
-0.000356239
-0.000135934
-0.000337428
-0.000150742
-0.000316549
-0.000163594
-0.000294257
-0.000174389
-0.000271147
-0.000183095
-0.000247769
-0.000189758
-0.000224631
-0.000194495
-0.000202198
-0.000197488
-0.000180885
-0.000198964
-0.000161053
-0.000199182
-0.000143004
-0.000198407
-0.000126986
-0.000196906
-0.000113189
-0.000194953
-0.000101779
-0.000192811
-9.28939e-05
-0.000190743
-8.65941e-05
-0.000189026
-8.28319e-05
-0.000187961
-8.13996e-05
-0.00018786
-8.18634e-05
-0.00018888
-8.37443e-05
-0.000191129
-8.62851e-05
-0.000194578
-8.86203e-05
-0.000199067
-8.98137e-05
-0.000204316
-8.89088e-05
-0.000210009
-8.50479e-05
-0.000215878
-7.75925e-05
-0.000221797
-6.61831e-05
-0.000227676
-5.05606e-05
-0.000233323
-3.04012e-05
-0.000238369
-5.35911e-06
-0.000242319
2.47297e-05
-0.000244784
5.98503e-05
-0.000245454
9.96269e-05
-0.000244082
0.000143387
-0.000240461
0.000190236
-0.000234384
0.0002391
-0.000225627
0.000288756
-0.00021395
0.000337874
-0.000199138
0.000385108
-0.00018108
0.000429214
-0.00015984
0.000469142
-0.000135638
0.000503843
-0.000108671
0.000531488
-7.85065e-05
0.000547742
-4.68396e-05
0.000549321
-1.47748e-05
0.000540502
1.68182e-05
0.00052232
4.71282e-05
0.000496219
7.54319e-05
0.00046382
0.00010114
0.000426805
0.000123834
0.000386743
0.000143299
0.000344953
0.000159529
0.000302447
0.000172718
0.000259881
0.000183284
0.000217551
0.000191845
0.000175427
0.000199189
0.000133186
0.000206097
9.04039e-05
0.000212778
4.745e-05
0.000219037
6.05328e-06
0.000225139
-3.20556e-05
0.000231176
-6.59936e-05
0.000237131
-9.46602e-05
0.000242956
-0.000117175
0.000248551
-0.000132967
0.000253753
-0.000141724
0.000258298
-0.00014336
0.000261917
-0.000138097
0.000264775
-0.000127737
0.000266747
-0.000114009
0.000267613
-9.85087e-05
0.000267121
-8.30351e-05
0.000265064
-6.94741e-05
0.000261321
-5.9523e-05
0.000255891
-5.44137e-05
0.000248884
-5.4747e-05
0.000240488
-6.04809e-05
0.000230957
-7.10384e-05
0.000220622
-8.54424e-05
0.000209961
-0.000102402
0.000199419
-0.000120373
0.000189163
-0.000138017
0.000179118
-0.000154485
0.000169058
-0.000169409
0.000158663
-0.000182777
0.000147579
-0.000194794
0.000135476
-0.000205746
0.000122089
-0.000215888
0.000107246
-0.000225377
9.0895e-05
-0.000234251
7.30993e-05
-0.000242409
5.40112e-05
-0.000249642
3.37752e-05
-0.000255707
1.25226e-05
-0.000260317
-9.0788e-06
-0.000263098
-3.04664e-05
-0.00026386
-5.15626e-05
-0.000262617
-7.20556e-05
-0.000259143
-9.1565e-05
-0.00025359
-0.000109831
-0.000246059
-0.000126637
-0.000236713
-0.000141819
-0.000225764
-0.000155263
-0.000213471
-0.000166912
-0.000200115
-0.000176759
-0.000185985
-0.000184849
-0.00017137
-0.000191272
-0.000156543
-0.000196161
-0.000141748
-0.000199698
-0.000127184
-0.000202074
-0.000112989
-0.000203494
-9.92668e-05
-0.000204178
-8.60607e-05
-0.00020435
-7.33528e-05
-0.000204237
-6.10618e-05
-0.000204053
-4.90518e-05
-0.000203974
-3.71585e-05
-0.000204091
-2.52423e-05
-0.000204404
-1.32265e-05
-0.000204988
-9.44102e-07
-0.000205978
1.18781e-05
-0.000207393
2.54615e-05
-0.0002092
3.99887e-05
-0.000211338
5.56124e-05
-0.000213721
7.24585e-05
-0.000216225
9.06181e-05
-0.000218693
0.000110134
-0.000220917
0.000130979
-0.000222625
0.000153021
-0.000223486
0.000176006
-0.000223238
0.000199673
-0.000221654
0.00022372
0.000247725
2.51434e-05
-0.00031629
-1.00912e-05
-0.000344985
-3.9593e-05
-0.00036225
-6.36221e-05
-0.000367871
-8.44428e-05
-0.000363679
-0.000103132
-0.000353545
-0.000119983
-0.000339388
-0.000135123
-0.000322288
-0.000148572
-0.0003031
-0.0001603
-0.000282529
-0.000170272
-0.000261175
-0.000178482
-0.000239558
-0.000184975
-0.000218138
-0.000189846
-0.000197327
-0.000193243
-0.000177488
-0.000195353
-0.000158943
-0.000196392
-0.000141966
-0.000196588
-0.00012679
-0.000196169
-0.000113608
-0.000195376
-0.000102572
-0.000194464
-9.38061e-05
-0.00019369
-8.73684e-05
-0.000193328
-8.31934e-05
-0.000193685
-8.10431e-05
-0.000195011
-8.05372e-05
-0.000197468
-8.12876e-05
-0.000201126
-8.2627e-05
-0.000205952
-8.37943e-05
-0.000211817
-8.39488e-05
-0.000218496
-8.22295e-05
-0.000225696
-7.78482e-05
-0.000233112
-7.0176e-05
-0.000240512
-5.8783e-05
-0.000247706
-4.33671e-05
-0.000254449
-2.36583e-05
-0.000260377
5.69822e-07
-0.000265097
2.94491e-05
-0.000268195
6.29488e-05
-0.00026928
0.000100712
-0.000268016
0.000142122
-0.000264114
0.000186333
-0.000257312
0.000232297
-0.00024736
0.000278805
-0.000234032
0.000324546
-0.00021716
0.000368235
-0.000196703
0.000408757
-0.000172808
0.000445247
-0.000145744
0.000476779
-0.000115615
0.000501359
-8.20578e-05
0.000514185
-4.73869e-05
0.00051465
-1.25668e-05
0.000505682
2.14532e-05
0.0004883
5.38147e-05
0.000463857
8.37792e-05
0.000433856
0.00011078
0.000399804
0.000134452
0.000363071
0.00015465
0.000324755
0.000171453
0.000285643
0.000185165
0.00024617
0.000196314
0.000206402
0.000205642
0.000166098
0.000214032
0.000124796
0.000222144
8.22923e-05
0.000229968
3.9626e-05
0.000237298
-1.27751e-06
0.000244426
-3.91829e-05
0.000251294
-7.28618e-05
0.000257764
-0.000101131
0.000263711
-0.000123121
0.000268979
-0.000138235
0.000273378
-0.000146123
0.000276569
-0.000146551
0.000278668
-0.000140196
0.000279948
-0.000129018
0.000280328
-0.000114389
0.000279651
-9.78316e-05
0.000277715
-8.10988e-05
0.000274316
-6.60756e-05
0.000269313
-5.45199e-05
0.000262668
-4.77685e-05
0.000254452
-4.65308e-05
0.000244823
-5.08523e-05
0.000234009
-6.02238e-05
0.000222299
-7.37325e-05
0.000210081
-9.01845e-05
0.000197889
-0.000108181
0.00018605
-0.000126178
0.000174631
-0.000143066
0.000163483
-0.000158261
0.000152337
-0.000171631
0.000140862
-0.000183319
0.000128723
-0.000193607
0.000115628
-0.000202793
0.000101365
-0.000211114
8.58084e-05
-0.000218694
6.89448e-05
-0.000225546
5.08718e-05
-0.000231569
3.17451e-05
-0.000236581
1.17798e-05
-0.000240352
-8.64702e-06
-0.000242671
-2.91531e-05
-0.000243354
-4.94641e-05
-0.000242306
-6.9247e-05
-0.00023936
-8.82442e-05
-0.000234593
-0.000106187
-0.000228116
-0.000122861
-0.00022004
-0.000138103
-0.000210522
-0.000151798
-0.000199776
-0.000163884
-0.000188029
-0.000174346
-0.000175522
-0.000183218
-0.000162499
-0.000190573
-0.000149187
-0.00019653
-0.000135792
-0.000201246
-0.000122468
-0.000204887
-0.000109348
-0.000207638
-9.65152e-05
-0.000209702
-8.39964e-05
-0.000211292
-7.17633e-05
-0.000212611
-5.97425e-05
-0.000213828
-4.78345e-05
-0.000215039
-3.59484e-05
-0.000216261
-2.40203e-05
-0.000217591
-1.18965e-05
-0.000219159
6.24341e-07
-0.000221008
1.37268e-05
-0.00022313
2.75832e-05
-0.000225483