/*--------------------------------*- C++ -*----------------------------------*\
| =========                 |                                                 |
| \\      /  F ield         | OpenFOAM: The Open Source CFD Toolbox           |
|  \\    /   O peration     | Version:  2206                                  |
|   \\  /    A nd           | Website:  www.openfoam.com                      |
|    \\/     M anipulation  |                                                 |
\*---------------------------------------------------------------------------*/
FoamFile
{
    version     2.0;
    format      ascii;
    arch        "LSB;label=32;scalar=64";
    class       surfaceScalarField;
    location    "19.8999";
    object      phi_0;
}
// * * * * * * * * * * * * * * * * * * * * * * * * * * * * * * * * * * * * * //

dimensions      [0 3 -1 0 0 0 0];

oriented        oriented;

internalField   nonuniform List<scalar> 
5976
(
8.85e-06
-1.04606e-06
9.9981e-07
8.89608e-06
-1.01301e-06
9.66919e-07
8.94113e-06
-9.56431e-07
9.11384e-07
8.98452e-06
-8.77671e-07
8.3428e-07
9.02581e-06
-7.785e-07
7.37214e-07
9.06463e-06
-6.61017e-07
6.22191e-07
9.10067e-06
-5.27686e-07
4.91647e-07
9.13351e-06
-3.81417e-07
3.4858e-07
9.16247e-06
-2.25852e-07
1.96889e-07
9.18635e-06
-6.60392e-08
4.21567e-08
9.20434e-06
9.19611e-08
-1.09949e-07
9.2158e-06
2.43849e-07
-2.55308e-07
9.22024e-06
3.85821e-07
-3.90258e-07
9.21738e-06
5.14583e-07
-5.11722e-07
9.2072e-06
6.27509e-07
-6.17329e-07
9.18993e-06
7.22775e-07
-7.05508e-07
9.16602e-06
7.99376e-07
-7.75464e-07
9.13591e-06
8.57033e-07
-8.26927e-07
9.09968e-06
8.95855e-07
-8.5962e-07
9.05725e-06
9.15699e-07
-8.73275e-07
9.00966e-06
9.162e-07
-8.6861e-07
8.95851e-06
8.98283e-07
-8.47127e-07
8.9056e-06
8.63113e-07
-8.10206e-07
8.85289e-06
8.11915e-07
-7.59204e-07
8.80217e-06
7.46128e-07
-6.95405e-07
8.75498e-06
6.6711e-07
-6.19923e-07
8.71263e-06
5.761e-07
-5.33753e-07
8.67618e-06
4.74374e-07
-4.37925e-07
8.64646e-06
3.63375e-07
-3.33649e-07
8.62407e-06
2.44851e-07
-2.22462e-07
8.60942e-06
1.21052e-07
-1.06401e-07
8.60265e-06
-4.82733e-09
1.15995e-08
8.60343e-06
-1.29177e-07
1.28389e-07
8.61127e-06
-2.49179e-07
2.41347e-07
8.62544e-06
-3.62106e-07
3.47931e-07
8.6451e-06
-4.65469e-07
4.45807e-07
8.66928e-06
-5.57146e-07
5.32973e-07
8.69691e-06
-6.35493e-07
6.07856e-07
8.72699e-06
-6.99435e-07
6.69359e-07
8.75863e-06
-7.48502e-07
7.1686e-07
8.79133e-06
-7.82753e-07
7.50054e-07
8.82512e-06
-8.02251e-07
7.68463e-07
8.86005e-06
-8.05723e-07
7.70789e-07
8.89546e-06
-7.91492e-07
7.56082e-07
8.93059e-06
-7.59443e-07
7.24314e-07
8.9648e-06
-7.10164e-07
6.75959e-07
8.99759e-06
-6.44811e-07
6.12021e-07
9.02857e-06
-5.64852e-07
5.33867e-07
9.05742e-06
-4.72036e-07
4.43192e-07
9.08378e-06
-3.6842e-07
3.42059e-07
9.10723e-06
-2.56462e-07
2.33011e-07
9.12709e-06
-1.39232e-07
1.19375e-07
9.14259e-06
-2.09835e-08
5.48085e-09
9.1533e-06
9.45396e-08
-1.05252e-07
9.15879e-06
2.04474e-07
-2.09964e-07
9.15882e-06
3.06319e-07
-3.06352e-07
9.15347e-06
3.97973e-07
-3.92618e-07
9.14294e-06
4.77739e-07
-4.67213e-07
9.12759e-06
5.44439e-07
-5.29082e-07
9.10785e-06
5.9747e-07
-5.77732e-07
9.08407e-06
6.3671e-07
-6.12934e-07
9.05622e-06
6.62208e-07
-6.34357e-07
9.02428e-06
6.73693e-07
-6.4175e-07
8.9891e-06
6.70713e-07
-6.3554e-07
8.95187e-06
6.53791e-07
-6.16553e-07
8.91392e-06
6.23542e-07
-5.85597e-07
8.87665e-06
5.80884e-07
-5.43614e-07
8.84129e-06
5.26971e-07
-4.91608e-07
8.8089e-06
4.62938e-07
-4.30553e-07
8.78039e-06
3.89943e-07
-3.61432e-07
8.75648e-06
3.09236e-07
-2.85322e-07
8.73772e-06
2.22221e-07
-2.03465e-07
8.72453e-06
1.30574e-07
-1.17382e-07
8.71714e-06
3.64971e-08
-2.91109e-08
8.71548e-06
-5.72026e-08
5.88705e-08
8.71922e-06
-1.48344e-07
1.44599e-07
8.72794e-06
-2.34909e-07
2.26193e-07
8.74106e-06
-3.15024e-07
3.01904e-07
8.75791e-06
-3.8705e-07
3.70195e-07
8.77777e-06
-4.49678e-07
4.29819e-07
8.79988e-06
-5.01965e-07
4.79855e-07
8.82354e-06
-5.43365e-07
5.19705e-07
8.84825e-06
-5.73743e-07
5.49039e-07
8.87385e-06
-5.9318e-07
5.6758e-07
8.90047e-06
-6.01264e-07
5.74643e-07
8.9278e-06
-5.96675e-07
5.69342e-07
8.95526e-06
-5.78971e-07
5.51506e-07
8.9823e-06
-5.48326e-07
5.21289e-07
9.00845e-06
-5.05401e-07
4.79256e-07
9.03332e-06
-4.51182e-07
4.26306e-07
9.0566e-06
-3.86863e-07
3.63582e-07
9.07798e-06
-3.13856e-07
2.92478e-07
9.09713e-06
-2.33821e-07
2.14672e-07
9.11362e-06
-1.48751e-07
1.32262e-07
9.12676e-06
-6.12273e-08
4.8091e-08
9.13612e-06
2.56698e-08
-3.50345e-08
9.14158e-06
1.09662e-07
-1.15122e-07
9.14319e-06
1.88639e-07
-1.90245e-07
9.14103e-06
2.61067e-07
-2.58912e-07
9.13506e-06
3.25937e-07
-3.19963e-07
9.12534e-06
3.81944e-07
-3.72221e-07
9.11233e-06
4.28182e-07
-4.15175e-07
9.09639e-06
4.64393e-07
-4.48452e-07
9.07764e-06
4.90535e-07
-4.71784e-07
9.05596e-06
5.06528e-07
-4.84855e-07
9.03145e-06
5.11962e-07
-4.8745e-07
9.00484e-06
5.06477e-07
-4.79862e-07
8.97697e-06
4.90404e-07
-4.62537e-07
8.94883e-06
4.64158e-07
-4.36012e-07
8.92135e-06
4.28468e-07
-4.00992e-07
8.89539e-06
3.84229e-07
-3.58268e-07
8.87168e-06
3.32371e-07
-3.08664e-07
8.85087e-06
2.73884e-07
-2.53068e-07
8.83341e-06
2.09891e-07
-1.92438e-07
8.81982e-06
1.41565e-07
-1.27972e-07
8.81008e-06
7.04333e-08
-6.069e-08
8.80496e-06
-1.47755e-09
6.59374e-09
8.80322e-06
-7.26377e-08
7.43765e-08
8.80592e-06
-1.39957e-07
1.37261e-07
8.81181e-06
-2.07834e-07
2.01944e-07
8.82015e-06
-2.59736e-07
2.51398e-07
-3.34444e-07
3.22726e-07
8.88298e-06
-1.08218e-06
8.91845e-06
-1.04848e-06
8.95251e-06
-9.90486e-07
8.98481e-06
-9.0997e-07
9.0152e-06
-8.08892e-07
9.04362e-06
-6.89435e-07
9.07002e-06
-5.54085e-07
9.09427e-06
-4.05665e-07
9.11601e-06
-2.47595e-07
9.13447e-06
-8.44993e-08
9.1489e-06
7.75315e-08
9.15875e-06
2.34001e-07
9.16351e-06
3.81062e-07
9.1628e-06
5.1529e-07
9.15645e-06
6.33856e-07
9.14453e-06
7.34696e-07
9.12736e-06
8.1655e-07
9.10539e-06
8.78999e-07
9.07892e-06
9.22329e-07
9.04763e-06
9.46989e-07
9.01128e-06
9.52546e-07
8.97109e-06
9.38472e-07
8.92869e-06
9.05516e-07
8.88592e-06
8.5469e-07
8.84442e-06
7.87622e-07
8.80563e-06
7.05901e-07
8.77076e-06
6.10969e-07
8.74082e-06
5.04312e-07
8.71662e-06
3.87581e-07
8.69874e-06
2.62732e-07
8.68756e-06
1.32229e-07
8.68321e-06
-4.74018e-10
8.68537e-06
-1.31338e-07
8.69354e-06
-2.57356e-07
8.70706e-06
-3.75625e-07
8.72511e-06
-4.83513e-07
8.74673e-06
-5.78772e-07
8.77093e-06
-6.59692e-07
8.79668e-06
-7.25181e-07
8.82307e-06
-7.74895e-07
8.84955e-06
-8.09232e-07
8.87619e-06
-8.28896e-07
8.90353e-06
-8.33054e-07
8.93106e-06
-8.1903e-07
8.95799e-06
-7.86371e-07
8.98377e-06
-7.35946e-07
9.00813e-06
-6.69171e-07
9.0309e-06
-5.87614e-07
9.05194e-06
-4.9308e-07
9.07116e-06
-3.87639e-07
9.08836e-06
-2.73662e-07
9.10317e-06
-1.54044e-07
9.11497e-06
-3.27852e-08
9.12341e-06
8.61058e-08
9.12812e-06
1.99758e-07
9.12888e-06
3.05561e-07
9.1256e-06
4.01256e-07
9.11833e-06
4.85004e-07
9.10729e-06
5.55476e-07
9.09286e-06
6.11908e-07
9.07546e-06
6.54105e-07
9.05532e-06
6.82346e-07
9.03208e-06
6.9694e-07
9.00556e-06
6.97227e-07
8.9767e-06
6.82657e-07
8.94676e-06
6.53477e-07
8.91705e-06
6.10595e-07
8.88867e-06
5.5535e-07
8.86259e-06
4.89019e-07
8.83964e-06
4.12899e-07
8.82049e-06
3.28387e-07
8.80568e-06
2.37031e-07
8.7956e-06
1.40655e-07
8.79047e-06
4.16227e-08
8.79023e-06
-5.69665e-08
8.7946e-06
-1.5271e-07
8.80315e-06
-2.43459e-07
8.81535e-06
-3.27225e-07
8.83056e-06
-4.02263e-07
8.84809e-06
-4.67204e-07
8.86718e-06
-5.21055e-07
8.88712e-06
-5.63308e-07
8.90739e-06
-5.94007e-07
8.9278e-06
-6.13597e-07
8.94871e-06
-6.22171e-07
8.97011e-06
-6.18071e-07
8.99141e-06
-6.00275e-07
9.01207e-06
-5.68989e-07
9.03174e-06
-5.25066e-07
9.05019e-06
-4.69635e-07
9.06726e-06
-4.03936e-07
9.08281e-06
-3.29406e-07
9.09671e-06
-2.47718e-07
9.10875e-06
-1.60789e-07
9.11854e-06
-7.10165e-08
9.12577e-06
1.84417e-08
9.13025e-06
1.05179e-07
9.13171e-06
1.87182e-07
9.13e-06
2.6277e-07
9.12539e-06
3.30551e-07
9.11807e-06
3.8926e-07
9.10827e-06
4.37987e-07
9.09637e-06
4.76294e-07
9.08271e-06
5.04197e-07
9.06722e-06
5.22017e-07
9.04939e-06
5.29787e-07
9.02934e-06
5.26533e-07
9.00779e-06
5.1195e-07
8.98568e-06
4.86271e-07
8.96386e-06
4.50284e-07
8.94309e-06
4.05003e-07
8.92401e-06
3.51443e-07
8.90722e-06
2.90679e-07
8.89314e-06
2.23965e-07
8.88223e-06
1.52474e-07
8.87452e-06
7.81486e-08
8.87069e-06
2.35458e-09
8.86956e-06
-7.15074e-08
8.87251e-06
-1.42913e-07
8.87752e-06
-2.12847e-07
8.88473e-06
-2.66945e-07
-3.44245e-07
8.91351e-06
-1.10793e-06
8.93788e-06
-1.07284e-06
8.96027e-06
-1.01288e-06
8.98081e-06
-9.30511e-07
8.99974e-06
-8.27824e-07
9.01733e-06
-7.07019e-07
9.03375e-06
-5.70506e-07
9.04909e-06
-4.21011e-07
9.06328e-06
-2.61787e-07
9.07589e-06
-9.71003e-08
9.08631e-06
6.71048e-08
9.09408e-06
2.26235e-07
9.09867e-06
3.76466e-07
9.09966e-06
5.14304e-07
9.09672e-06
6.36792e-07
9.08976e-06
7.41656e-07
9.07891e-06
8.27399e-07
9.06452e-06
8.93389e-07
9.04703e-06
9.39822e-07
9.02645e-06
9.67569e-07
9.00175e-06
9.77245e-07
8.97287e-06
9.6736e-07
8.94147e-06
9.36913e-07
8.9093e-06
8.86862e-07
8.87779e-06
8.19128e-07
8.84823e-06
7.35462e-07
8.82172e-06
6.37477e-07
8.79919e-06
5.26843e-07
8.78137e-06
4.05398e-07
8.76881e-06
2.75298e-07
8.76181e-06
1.39227e-07
8.76041e-06
9.21287e-10
8.7643e-06
-1.35223e-07
8.77298e-06
-2.66035e-07
8.78583e-06
-3.88474e-07
8.8021e-06
-4.99783e-07
8.82093e-06
-5.97605e-07
8.84141e-06
-6.80172e-07
8.86254e-06
-7.46315e-07
8.88341e-06
-7.95757e-07
8.90339e-06
-8.2922e-07
8.9226e-06
-8.48101e-07
8.94208e-06
-8.52537e-07
8.96157e-06
-8.38518e-07
8.9799e-06
-8.04704e-07
8.99678e-06
-7.52821e-07
9.01223e-06
-6.84628e-07
9.0264e-06
-6.01782e-07
9.03938e-06
-5.06054e-07
9.0512e-06
-3.99465e-07
9.06188e-06
-2.84334e-07
9.07126e-06
-1.63433e-07
9.07898e-06
-4.04985e-08
9.08474e-06
8.03379e-08
9.08828e-06
1.96224e-07
9.08933e-06
3.04509e-07
9.08774e-06
4.02851e-07
9.08342e-06
4.89315e-07
9.07646e-06
5.62444e-07
9.06707e-06
6.21292e-07
9.05565e-06
6.65532e-07
9.0426e-06
6.95387e-07
9.02779e-06
7.11754e-07
9.01009e-06
7.14927e-07
8.98975e-06
7.02996e-07
8.96821e-06
6.75012e-07
8.94656e-06
6.32251e-07
8.92573e-06
5.7618e-07
8.90658e-06
5.08166e-07
8.88985e-06
4.2963e-07
8.87615e-06
3.42092e-07
8.86595e-06
2.47231e-07
8.85959e-06
1.47012e-07
8.85725e-06
4.39626e-08
8.85884e-06
-5.85538e-08
8.86408e-06
-1.5795e-07
8.87258e-06
-2.51962e-07
8.88386e-06
-3.38505e-07
8.89734e-06
-4.15741e-07
8.91238e-06
-4.82251e-07
8.9283e-06
-5.36972e-07
8.94439e-06
-5.79393e-07
8.96008e-06
-6.09702e-07
8.97517e-06
-6.28689e-07
8.99016e-06
-6.37155e-07
9.00553e-06
-6.33444e-07
9.0205e-06
-6.15243e-07
9.03453e-06
-5.83016e-07
9.04741e-06
-5.37955e-07
9.05917e-06
-4.81387e-07
9.06983e-06
-4.14603e-07
9.07942e-06
-3.38994e-07
9.08791e-06
-2.56209e-07
9.09524e-06
-1.6812e-07
9.10124e-06
-7.70129e-08
9.10571e-06
1.39719e-08
9.10848e-06
1.02405e-07
9.10937e-06
1.86293e-07
9.10827e-06
2.63867e-07
9.10522e-06
3.33608e-07
9.10028e-06
3.94197e-07
9.09363e-06
4.44636e-07
9.08556e-06
4.84369e-07
9.07638e-06
5.1337e-07
9.06632e-06
5.32077e-07
9.05498e-06
5.41125e-07
9.04153e-06
5.39992e-07
9.02642e-06
5.2706e-07
9.01061e-06
5.02072e-07
8.99481e-06
4.66089e-07
8.97962e-06
4.2019e-07
8.96564e-06
3.6543e-07
8.95336e-06
3.0296e-07
8.94317e-06
2.3415e-07
8.93543e-06
1.60218e-07
8.93025e-06
8.33295e-08
8.928e-06
4.60042e-09
8.92795e-06
-7.14556e-08
8.93116e-06
-1.46123e-07
8.93546e-06
-2.17149e-07
8.94172e-06
-2.73208e-07
-3.52207e-07
8.94053e-06
-1.12325e-06
8.95313e-06
-1.08545e-06
8.96325e-06
-1.023e-06
8.97167e-06
-9.38931e-07
8.9789e-06
-8.35056e-07
8.98542e-06
-7.1353e-07
8.99165e-06
-5.76736e-07
8.99792e-06
-4.27288e-07
9.0044e-06
-2.6826e-07
9.01091e-06
-1.03617e-07
9.01709e-06
6.09276e-08
9.0225e-06
2.20826e-07
9.02664e-06
3.72324e-07
9.02902e-06
5.11927e-07
9.0292e-06
6.36606e-07
9.02693e-06
7.43932e-07
9.02213e-06
8.32193e-07
9.01503e-06
9.00491e-07
9.00608e-06
9.48769e-07
8.99568e-06
9.77974e-07
8.98304e-06
9.89883e-07
8.96496e-06
9.85438e-07
8.94422e-06
9.57651e-07
8.92289e-06
9.08199e-07
8.90191e-06
8.40109e-07
8.88228e-06
7.5509e-07
8.8649e-06
6.54851e-07
8.85058e-06
5.41166e-07
8.83994e-06
4.16034e-07
8.83344e-06
2.81805e-07
8.83127e-06
1.41397e-07
8.83332e-06
-1.1285e-09
8.83923e-06
-1.41131e-07
8.8485e-06
-2.75305e-07
8.86055e-06
-4.00525e-07
8.87473e-06
-5.13969e-07
8.89035e-06
-6.13219e-07
8.90665e-06
-6.96475e-07
8.92282e-06
-7.62489e-07
8.93802e-06
-8.10958e-07
8.95151e-06
-8.42702e-07
8.96306e-06
-8.59649e-07
8.97418e-06
-8.63661e-07
8.98559e-06
-8.49927e-07
8.9949e-06
-8.14019e-07
9.00258e-06
-7.60495e-07
9.00902e-06
-6.91073e-07
9.01448e-06
-6.07239e-07
9.01918e-06
-5.10757e-07
9.02341e-06
-4.03692e-07
9.02736e-06
-2.88285e-07
9.03111e-06
-1.67184e-07
9.03452e-06
-4.39082e-08
9.03741e-06
7.74517e-08
9.03953e-06
1.94102e-07
9.04063e-06
3.03408e-07
9.04047e-06
4.03008e-07
9.03889e-06
4.90895e-07
9.03584e-06
5.65493e-07
9.03142e-06
6.25716e-07
9.0258e-06
6.71154e-07
9.01936e-06
7.01825e-07
9.01234e-06
7.18771e-07
9.0036e-06
7.23666e-07
8.99116e-06
7.15435e-07
8.97793e-06
6.88249e-07
8.96458e-06
6.45597e-07
8.95176e-06
5.88999e-07
8.94011e-06
5.19815e-07
8.93022e-06
4.39526e-07
8.92258e-06
3.49727e-07
8.9176e-06
2.52208e-07
8.91554e-06
1.49073e-07
8.91647e-06
4.30319e-08
8.92023e-06
-6.23149e-08
8.92655e-06
-1.6426e-07
8.93504e-06
-2.60456e-07
8.94529e-06
-3.48755e-07
8.95682e-06
-4.27275e-07
8.96913e-06
-4.94554e-07
8.98162e-06
-5.49464e-07
8.9937e-06
-5.91475e-07
9.0048e-06
-6.20807e-07
9.01454e-06
-6.38421e-07
9.02328e-06
-6.45899e-07
9.03269e-06
-6.42852e-07
9.04114e-06
-6.23688e-07
9.04828e-06
-5.90161e-07
9.05431e-06
-5.43989e-07
9.0594e-06
-4.86469e-07
9.06362e-06
-4.18831e-07
9.06715e-06
-3.42517e-07
9.0701e-06
-2.59163e-07
9.07258e-06
-1.70598e-07
9.0746e-06
-7.90365e-08
9.07611e-06
1.24642e-08
9.07699e-06
1.01524e-07
9.07711e-06
1.86172e-07
9.07638e-06
2.64598e-07
9.07472e-06
3.35272e-07
9.07209e-06
3.96824e-07
9.06854e-06
4.48184e-07
9.06421e-06
4.88698e-07
9.05937e-06
5.18212e-07
9.05434e-06
5.37114e-07
9.049e-06
5.46462e-07
9.04181e-06
5.47179e-07
9.03257e-06
5.36304e-07
9.02304e-06
5.11603e-07
9.01346e-06
4.75669e-07
9.00421e-06
4.29437e-07
8.99573e-06
3.73908e-07
8.98842e-06
3.10265e-07
8.98259e-06
2.39985e-07
8.97847e-06
1.64337e-07
8.97623e-06
8.55725e-08
8.97594e-06
4.88772e-09
8.97729e-06
-7.28049e-08
8.98073e-06
-1.49559e-07
8.98463e-06
-2.21051e-07
8.98996e-06
-2.78541e-07
-3.58164e-07
8.96299e-06
8.96298e-06
8.96062e-06
8.9565e-06
8.95161e-06
8.94685e-06
8.94287e-06
8.94018e-06
8.93907e-06
8.93963e-06
8.94161e-06
8.94466e-06
8.94828e-06
8.95195e-06
8.95519e-06
8.95761e-06
8.95901e-06
8.95931e-06
8.95857e-06
8.95693e-06
8.95416e-06
8.94739e-06
8.93771e-06
8.92759e-06
8.91757e-06
8.90834e-06
8.9006e-06
8.89502e-06
8.8921e-06
8.89217e-06
8.8953e-06
8.90115e-06
8.90931e-06
8.91926e-06
8.93039e-06
8.94212e-06
8.95385e-06
8.96516e-06
8.97561e-06
8.98471e-06
8.99192e-06
8.99673e-06
8.99991e-06
9.0019e-06
9.00184e-06
9.00023e-06
8.99724e-06
8.9935e-06
8.9897e-06
8.98629e-06
8.98361e-06
8.98187e-06
8.98112e-06
8.98124e-06
8.982e-06
8.98316e-06
8.98446e-06
8.98567e-06
8.98663e-06
8.98721e-06
8.98745e-06
8.98739e-06
8.98693e-06
8.98548e-06
8.98147e-06
8.97673e-06
8.97191e-06
8.96738e-06
8.96355e-06
8.96087e-06
8.95972e-06
8.96039e-06
8.96304e-06
8.96759e-06
8.97378e-06
8.9813e-06
8.98978e-06
8.99882e-06
9.00802e-06
9.01704e-06
9.02555e-06
9.03321e-06
9.03967e-06
9.04456e-06
9.04777e-06
9.05072e-06
9.0522e-06
9.05244e-06
9.05161e-06
9.04978e-06
9.0473e-06
9.04457e-06
9.04192e-06
9.03958e-06
9.03772e-06
9.03637e-06
9.03547e-06
9.0349e-06
9.03456e-06
9.03432e-06
9.03407e-06
9.03376e-06
9.03335e-06
9.03286e-06
9.03231e-06
9.03161e-06
9.02994e-06
9.0268e-06
9.02351e-06
9.02024e-06
9.01724e-06
4.32439e-07
9.01462e-06
3.76528e-07
9.01257e-06
3.12322e-07
9.01136e-06
2.41185e-07
9.0112e-06
1.64497e-07
9.01215e-06
8.46288e-08
9.01418e-06
2.86067e-09
9.01703e-06
-7.56574e-08
9.0208e-06
-1.53328e-07
9.02451e-06
-2.24761e-07
9.02869e-06
-2.82724e-07
-3.61851e-07
9.01858e-06
9.02165e-06
9.02502e-06
9.02875e-06
9.03293e-06
9.03742e-06
9.04211e-06
9.04669e-06
9.05099e-06
9.05469e-06
9.05762e-06
5.33182e-07
-4.01204e-09
5.36697e-07
-3.51502e-09
5.39706e-07
-3.00901e-09
5.42224e-07
-2.5183e-09
5.44286e-07
-2.06198e-09
5.45941e-07
-1.65458e-09
5.47248e-07
-1.30742e-09
5.48274e-07
-1.0255e-09
5.49081e-07
-8.07449e-10
5.49731e-07
-6.49835e-10
5.50277e-07
-5.46365e-10
5.50764e-07
-4.87215e-10
5.51226e-07
-4.61379e-10
5.51683e-07
-4.57362e-10
5.52146e-07
-4.6327e-10
5.52615e-07
-4.69065e-10
5.53082e-07
-4.66464e-10
5.53534e-07
-4.52342e-10
5.53964e-07
-4.29233e-10
5.54366e-07
-4.02647e-10
5.54747e-07
-3.80838e-10
5.55122e-07
-3.74651e-10
5.55518e-07
-3.96443e-10
5.55976e-07
-4.58268e-10
5.56547e-07
-5.70607e-10
5.57287e-07
-7.40376e-10
5.58258e-07
-9.70701e-10
5.59518e-07
-1.26038e-09
5.61121e-07
-1.60307e-09
5.63109e-07
-1.98739e-09
5.65506e-07
-2.39678e-09
5.68317e-07
-2.81135e-09
5.71527e-07
-3.20965e-09
5.75098e-07
-3.57098e-09
5.78976e-07
-3.87818e-09
5.83096e-07
-4.12057e-09
5.87391e-07
-4.29495e-09
5.91795e-07
-4.40328e-09
5.96244e-07
-4.44909e-09
6.00679e-07
-4.43557e-09
6.05045e-07
-4.36618e-09
6.09292e-07
-4.2461e-09
6.13374e-07
-4.08254e-09
6.1726e-07
-3.88553e-09
6.20927e-07
-3.66688e-09
6.24366e-07
-3.43896e-09
6.27579e-07
-3.21329e-09
6.30579e-07
-2.99971e-09
6.33384e-07
-2.80544e-09
6.36019e-07
-2.63469e-09
6.38507e-07
-2.48798e-09
6.40869e-07
-2.36284e-09
6.43124e-07
-2.25442e-09
6.4528e-07
-2.15626e-09
6.47342e-07
-2.06169e-09
6.49307e-07
-1.96469e-09
6.51167e-07
-1.8601e-09
6.52911e-07
-1.74425e-09
6.54527e-07
-1.61575e-09
6.56004e-07
-1.47693e-09
6.57337e-07
-1.33354e-09
6.58527e-07
-1.18957e-09
6.59575e-07
-1.04813e-09
6.60491e-07
-9.16222e-10
6.61293e-07
-8.01919e-10
6.62005e-07
-7.12186e-10
6.62657e-07
-6.51884e-10
6.63281e-07
-6.23622e-10
6.6391e-07
-6.29483e-10
6.6458e-07
-6.70045e-10
6.65323e-07
-7.4317e-10
6.66167e-07
-8.4343e-10
6.6713e-07
-9.63373e-10
6.68225e-07
-1.0949e-09
6.69454e-07
-1.22894e-09
6.7081e-07
-1.35624e-09
6.72279e-07
-1.46849e-09
6.73837e-07
-1.55807e-09
6.75455e-07
-1.61846e-09
6.77099e-07
-1.64393e-09
6.78729e-07
-1.63008e-09
6.80303e-07
-1.57425e-09
6.8178e-07
-1.4762e-09
6.83118e-07
-1.33826e-09
6.84284e-07
-1.16598e-09
6.8525e-07
-9.66382e-10
6.85997e-07
-7.47001e-10
6.86515e-07
-5.17785e-10
6.86801e-07
-2.86288e-10
6.8686e-07
-5.82012e-11
6.86732e-07
1.27193e-10
6.86421e-07
3.11391e-10
6.85954e-07
4.67183e-10
6.8536e-07
5.93575e-10
6.84669e-07
6.90928e-10
6.83909e-07
7.60324e-10
6.83103e-07
8.06299e-10
6.8227e-07
8.32263e-10
6.8143e-07
8.40751e-10
6.80596e-07
8.33254e-10
6.79786e-07
8.10823e-10
6.79005e-07
7.80095e-10
6.7826e-07
7.45663e-10
6.77556e-07
7.03837e-10
6.76905e-07
6.51288e-10
6.76316e-07
5.8891e-10
6.75805e-07
5.10822e-10
6.75391e-07
4.1349e-10
6.75096e-07
2.94991e-10
6.74946e-07
1.50388e-10
6.74951e-07
-4.97816e-12
6.75116e-07
-1.64877e-10
6.75472e-07
-3.56226e-10
6.76034e-07
-5.62275e-10
6.76809e-07
-7.74403e-10
6.77796e-07
-9.87136e-10
6.78982e-07
-1.18612e-09
6.80358e-07
-1.37569e-09
6.81865e-07
-1.50769e-09
6.83543e-07
-1.67717e-09
6.8522e-07
-1.67708e-09
-2.02248e-09
1.6565e-06
-9.41963e-09
1.66141e-06
-8.41661e-09
1.6658e-06
-7.40477e-09
1.66972e-06
-6.4337e-09
1.6732e-06
-5.54193e-09
1.6763e-06
-4.75691e-09
1.67909e-06
-4.10289e-09
1.68166e-06
-3.58969e-09
1.68406e-06
-3.209e-09
1.68636e-06
-2.95327e-09
1.68863e-06
-2.80968e-09
1.6909e-06
-2.7576e-09
1.69321e-06
-2.77566e-09
1.69559e-06
-2.83899e-09
1.69805e-06
-2.92008e-09
1.70058e-06
-2.99815e-09
1.70317e-06
-3.05406e-09
1.7058e-06
-3.0816e-09
1.70845e-06
-3.08702e-09
1.71113e-06
-3.08132e-09
1.71383e-06
-3.08135e-09
1.71657e-06
-3.11003e-09
1.71937e-06
-3.19407e-09
1.72227e-06
-3.35918e-09
1.72532e-06
-3.62751e-09
1.7286e-06
-4.01177e-09
1.73214e-06
-4.51687e-09
1.73602e-06
-5.13997e-09
1.74029e-06
-5.86778e-09
1.74498e-06
-6.67649e-09
1.75011e-06
-7.53219e-09
1.75569e-06
-8.39347e-09
1.7617e-06
-9.21555e-09
1.76808e-06
-9.95509e-09
1.77478e-06
-1.05757e-08
1.78171e-06
-1.10554e-08
1.78881e-06
-1.13897e-08
1.79599e-06
-1.15857e-08
1.8032e-06
-1.16526e-08
1.81036e-06
-1.15986e-08
1.81742e-06
-1.14309e-08
1.82434e-06
-1.11585e-08
1.83105e-06
-1.07956e-08
1.83753e-06
-1.03627e-08
1.84374e-06
-9.88471e-09
1.84969e-06
-9.38738e-09
1.85537e-06
-8.89467e-09
1.8608e-06
-8.42669e-09
1.86599e-06
-7.99827e-09
1.87098e-06
-7.61765e-09
1.87577e-06
-7.28482e-09
1.8804e-06
-6.99329e-09
1.88488e-06
-6.73265e-09
1.88922e-06
-6.49056e-09
1.89341e-06
-6.25363e-09
1.89745e-06
-6.00843e-09
1.90134e-06
-5.74353e-09
1.90504e-06
-5.45113e-09
1.90855e-06
-5.128e-09
1.91186e-06
-4.77907e-09
1.91494e-06
-4.41905e-09
1.91781e-06
-4.056e-09
1.92046e-06
-3.69517e-09
1.92289e-06
-3.35323e-09
1.92514e-06
-3.0471e-09
1.92722e-06
-2.79214e-09
1.92916e-06
-2.5987e-09
1.93101e-06
-2.47137e-09
1.9328e-06
-2.41513e-09
1.93456e-06
-2.4308e-09
1.93633e-06
-2.51493e-09
1.93814e-06
-2.65715e-09
1.94002e-06
-2.84182e-09
1.94198e-06
-3.05209e-09
1.94402e-06
-3.2707e-09
1.94614e-06
-3.47732e-09
1.94833e-06
-3.65607e-09
1.95056e-06
-3.79236e-09
1.95282e-06
-3.87317e-09
1.95506e-06
-3.88717e-09
1.95726e-06
-3.8255e-09
1.95937e-06
-3.68348e-09
1.96135e-06
-3.46083e-09
1.96318e-06
-3.16343e-09
1.96481e-06
-2.80192e-09
1.96624e-06
-2.39059e-09
1.96744e-06
-1.9476e-09
1.96841e-06
-1.4913e-09
1.96917e-06
-1.04017e-09
1.96972e-06
-6.13658e-10
1.97008e-06
-2.32801e-10
1.97029e-06
9.75987e-11
1.97039e-06
3.67433e-10
1.97041e-06
5.74408e-10
1.97039e-06
7.17983e-10
1.97035e-06
8.0094e-10
1.97032e-06
8.35816e-10
1.97032e-06
8.31981e-10
1.97036e-06
7.9572e-10
1.97047e-06
7.24776e-10
1.97066e-06
6.21301e-10
1.97094e-06
5.04138e-10
1.9713e-06
3.79411e-10
1.97177e-06
2.39576e-10
1.97234e-06
8.05748e-11
1.97301e-06
-8.88673e-11
1.97382e-06
-2.91178e-10
1.97476e-06
-5.29136e-10
1.97586e-06
-8.05794e-10
1.97713e-06
-1.12364e-09
1.97861e-06
-1.4794e-09
1.98031e-06
-1.8696e-09
1.98225e-06
-2.29578e-09
1.98444e-06
-2.74772e-09
1.98688e-06
-3.21227e-09
1.98956e-06
-3.67576e-09
1.9925e-06
-4.11716e-09
1.99565e-06
-4.5311e-09
1.99901e-06
-4.86793e-09
2.00255e-06
-5.21913e-09
2.00628e-06
-5.3999e-09
-5.7316e-09
2.89779e-06
-1.39679e-08
2.90186e-06
-1.24781e-08
2.90544e-06
-1.09855e-08
2.90857e-06
-9.564e-09
2.91129e-06
-8.26882e-09
2.91368e-06
-7.14176e-09
2.91579e-06
-6.21716e-09
2.91771e-06
-5.51099e-09
2.91952e-06
-5.01166e-09
2.92127e-06
-4.71093e-09
2.92305e-06
-4.58803e-09
2.9249e-06
-4.60447e-09
2.92685e-06
-4.72488e-09
2.92892e-06
-4.90814e-09
2.93111e-06
-5.11268e-09
2.93343e-06
-5.31317e-09
2.93584e-06
-5.46827e-09
2.93833e-06
-5.56704e-09
2.94086e-06
-5.62503e-09
2.94344e-06
-5.6581e-09
2.94605e-06
-5.6913e-09
2.9487e-06
-5.76079e-09
2.95142e-06
-5.91191e-09
2.95425e-06
-6.18599e-09
2.95724e-06
-6.62161e-09
2.96046e-06
-7.23681e-09
2.96399e-06
-8.0396e-09
2.96787e-06
-9.02772e-09
2.97219e-06
-1.01813e-08
2.97698e-06
-1.14639e-08
2.98227e-06
-1.28224e-08
2.98806e-06
-1.41906e-08
2.99434e-06
-1.54963e-08
3.00106e-06
-1.66687e-08
3.00813e-06
-1.76456e-08
3.01546e-06
-1.83889e-08
3.02297e-06
-1.88966e-08
3.03057e-06
-1.91868e-08
3.03819e-06
-1.92771e-08
3.04578e-06
-1.91817e-08
3.05326e-06
-1.89105e-08
3.06057e-06
-1.84731e-08
3.06766e-06
-1.78884e-08
3.07449e-06
-1.71889e-08
3.08102e-06
-1.64154e-08
3.08724e-06
-1.56097e-08
3.09316e-06
-1.48103e-08
3.09878e-06
-1.40495e-08
3.10414e-06
-1.33522e-08
3.10925e-06
-1.27319e-08
3.11415e-06
-1.21874e-08
3.11887e-06
-1.17078e-08
3.12341e-06
-1.12776e-08
3.1278e-06
-1.08773e-08
3.13203e-06
-1.04851e-08
3.1361e-06
-1.00793e-08
3.14e-06
-9.64152e-09
3.1437e-06
-9.15699e-09
3.14719e-06
-8.61831e-09
3.15045e-06
-8.03365e-09
3.15347e-06
-7.44213e-09
3.15627e-06
-6.8499e-09
3.15882e-06
-6.24908e-09
3.16115e-06
-5.67831e-09
3.16326e-06
-5.16673e-09
3.16521e-06
-4.74034e-09
3.16703e-06
-4.41556e-09
3.16875e-06
-4.19445e-09
3.17043e-06
-4.08799e-09
3.17209e-06
-4.0938e-09
3.17378e-06
-4.21073e-09
3.17555e-06
-4.4231e-09
3.17741e-06
-4.70212e-09
3.17938e-06
-5.02161e-09
3.18147e-06
-5.35866e-09
3.18367e-06
-5.67454e-09
3.18596e-06
-5.94827e-09
3.18832e-06
-6.15776e-09
3.19073e-06
-6.28234e-09
3.19315e-06
-6.30365e-09
3.19553e-06
-6.20832e-09
3.19784e-06
-5.9889e-09
3.20002e-06
-5.64449e-09
3.20204e-06
-5.18345e-09
3.20386e-06
-4.62312e-09
3.20546e-06
-3.98724e-09
3.20681e-06
-3.30295e-09
3.20792e-06
-2.60125e-09
3.2088e-06
-1.91235e-09
3.20945e-06
-1.26659e-09
3.20991e-06
-6.90625e-10
3.21021e-06
-2.01398e-10
3.21038e-06
1.89641e-10
3.21048e-06
4.76816e-10
3.21055e-06
6.51878e-10
3.21061e-06
7.35705e-10
3.2107e-06
7.45783e-10
3.21084e-06
6.95923e-10
3.21104e-06
5.96767e-10
3.21132e-06
4.43126e-10
3.2117e-06
2.36595e-10
3.2122e-06
4.43641e-12
3.21281e-06
-2.22974e-10
3.21352e-06
-4.7705e-10
3.21436e-06
-7.5597e-10
3.21533e-06
-1.05883e-09
3.21644e-06
-1.39846e-09
3.2177e-06
-1.79055e-09
3.21913e-06
-2.24033e-09
3.22076e-06
-2.75262e-09
3.22261e-06
-3.32805e-09
3.2247e-06
-3.96311e-09
3.22706e-06
-4.65085e-09
3.22969e-06
-5.37796e-09
3.2326e-06
-6.12539e-09
3.2358e-06
-6.87054e-09
3.23927e-06
-7.58803e-09
3.24299e-06
-8.25759e-09
3.24697e-06
-8.84294e-09
3.25115e-06
-9.39606e-09
3.25555e-06
-9.80494e-09
-1.02213e-08
4.22787e-06
-1.63664e-08
4.22975e-06
-1.43575e-08
4.23113e-06
-1.23598e-08
4.23204e-06
-1.04735e-08
4.23253e-06
-8.76141e-09
4.23266e-06
-7.27689e-09
4.23252e-06
-6.06895e-09
4.23218e-06
-5.17714e-09
4.23175e-06
-4.57933e-09
4.23131e-06
-4.27281e-09
4.23095e-06
-4.22112e-09
4.2307e-06
-4.35755e-09
4.2306e-06
-4.62446e-09
4.23066e-06
-4.97066e-09
4.23089e-06
-5.34031e-09
4.23127e-06
-5.69231e-09
4.23177e-06
-5.97538e-09
4.23238e-06
-6.17045e-09
4.23304e-06
-6.29199e-09
4.23375e-06
-6.36324e-09
4.23448e-06
-6.421e-09
4.23524e-06
-6.51679e-09
4.23604e-06
-6.71435e-09
4.23693e-06
-7.07686e-09
4.23799e-06
-7.68423e-09
4.2393e-06
-8.54327e-09
4.24092e-06
-9.66555e-09
4.24295e-06
-1.10569e-08
4.24546e-06
-1.2691e-08
4.24852e-06
-1.45196e-08
4.25216e-06
-1.64656e-08
4.2564e-06
-1.84323e-08
4.26122e-06
-2.0314e-08
4.26656e-06
-2.20053e-08
4.27232e-06
-2.34069e-08
4.27838e-06
-2.44531e-08
4.28464e-06
-2.51544e-08
4.29101e-06
-2.55531e-08
4.29741e-06
-2.56785e-08
4.30378e-06
-2.55513e-08
4.31005e-06
-2.51816e-08
4.31615e-06
-2.4573e-08
4.32201e-06
-2.37458e-08
4.32757e-06
-2.2748e-08
4.33279e-06
-2.16409e-08
4.33767e-06
-2.04863e-08
4.3422e-06
-1.93397e-08
4.34639e-06
-1.82471e-08
4.35029e-06
-1.72491e-08
4.35393e-06
-1.63694e-08
4.35734e-06
-1.56015e-08
4.36056e-06
-1.49272e-08
4.36361e-06
-1.43248e-08
4.3665e-06
-1.37671e-08
4.36924e-06
-1.32229e-08
4.37182e-06
-1.26602e-08
4.37423e-06
-1.20521e-08
4.37645e-06
-1.13792e-08
4.37846e-06
-1.06299e-08
4.38025e-06
-9.81754e-09
4.38179e-06
-8.98834e-09
4.38309e-06
-8.15017e-09
4.38415e-06
-7.30681e-09
4.38499e-06
-6.51352e-09
4.38563e-06
-5.80893e-09
4.38612e-06
-5.23637e-09
4.38653e-06
-4.8252e-09
4.3869e-06
-4.55652e-09
4.38726e-06
-4.45554e-09
4.38769e-06
-4.52323e-09
4.38824e-06
-4.75827e-09
4.38895e-06
-5.13633e-09
4.38986e-06
-5.60911e-09
4.39098e-06
-6.14024e-09
4.39231e-06
-6.69008e-09
4.39384e-06
-7.20723e-09
4.39556e-06
-7.66001e-09
4.39742e-06
-8.01854e-09
4.39939e-06
-8.25399e-09
4.40142e-06
-8.3385e-09
4.40346e-06
-8.2501e-09
4.40545e-06
-7.97758e-09
4.40733e-06
-7.52044e-09
4.40903e-06
-6.88915e-09
4.41052e-06
-6.10859e-09
4.41175e-06
-5.21403e-09
4.41269e-06
-4.24555e-09
4.41333e-06
-3.24454e-09
4.41367e-06
-2.25453e-09
4.41373e-06
-1.32386e-09
4.41354e-06
-4.95898e-10
4.41313e-06
2.09512e-10
4.41254e-06
7.72585e-10
4.41184e-06
1.1827e-09
4.41106e-06
1.43204e-09
4.41025e-06
1.54302e-09
4.40946e-06
1.53857e-09
4.40871e-06
1.44733e-09
4.40802e-06
1.28472e-09
4.40741e-06
1.04749e-09
4.4069e-06
7.46411e-10
4.40649e-06
4.16453e-10
4.40619e-06
7.39703e-11
4.40601e-06
-2.94145e-10
4.40596e-06
-7.00917e-10
4.40604e-06
-1.1376e-09
4.40626e-06
-1.61909e-09
4.40665e-06
-2.18238e-09
4.40723e-06
-2.82549e-09
4.40804e-06
-3.55932e-09
4.4091e-06
-4.38877e-09
4.41045e-06
-5.30978e-09
4.4121e-06
-6.30739e-09
4.41409e-06
-7.36303e-09
4.41641e-06
-8.44997e-09
4.41908e-06
-9.53479e-09
4.42207e-06
-1.05827e-08
4.42538e-06
-1.15622e-08
4.42898e-06
-1.24438e-08
4.43283e-06
-1.32505e-08
4.43692e-06
-1.38932e-08
-1.44815e-08
5.52881e-06
-1.70552e-08
5.5288e-06
-1.43514e-08
5.52813e-06
-1.1685e-08
5.52684e-06
-9.1874e-09
5.52501e-06
-6.92883e-09
5.52271e-06
-4.98084e-09
5.52003e-06
-3.38836e-09
5.51708e-06
-2.2286e-09
5.51398e-06
-1.47719e-09
5.51084e-06
-1.12847e-09
5.50774e-06
-1.12584e-09
5.50477e-06
-1.38276e-09
5.50195e-06
-1.81003e-09
5.49931e-06
-2.32887e-09
5.49684e-06
-2.86658e-09
5.4945e-06
-3.36094e-09
5.49229e-06
-3.76028e-09
5.49015e-06
-4.03374e-09
5.48805e-06
-4.18595e-09
5.48594e-06
-4.25993e-09
5.48383e-06
-4.30797e-09
5.48172e-06
-4.4019e-09
5.47963e-06
-4.6295e-09
5.47764e-06
-5.08306e-09
5.47582e-06
-5.8628e-09
5.47426e-06
-6.98398e-09
5.47307e-06
-8.47554e-09
5.47236e-06
-1.0356e-08
5.47227e-06
-1.25919e-08
5.47286e-06
-1.51179e-08
5.47423e-06
-1.78287e-08
5.47638e-06
-2.05898e-08
5.47932e-06
-2.32446e-08
5.48295e-06
-2.56368e-08
5.48714e-06
-2.76032e-08
5.4917e-06
-2.90117e-08
5.49646e-06
-2.99099e-08
5.50129e-06
-3.03874e-08
5.50612e-06
-3.0505e-08
5.51088e-06
-3.03095e-08
5.5155e-06
-2.98032e-08
5.51989e-06
-2.89652e-08
5.52395e-06
-2.78092e-08
5.52762e-06
-2.64103e-08
5.53084e-06
-2.48634e-08
5.53361e-06
-2.326e-08
5.53595e-06
-2.16795e-08
5.53789e-06
-2.01852e-08
5.53948e-06
-1.88385e-08
5.54079e-06
-1.7679e-08
5.54187e-06
-1.66814e-08
5.54276e-06
-1.58165e-08
5.54349e-06
-1.50593e-08
5.5441e-06
-1.43728e-08
5.54459e-06
-1.3712e-08
5.54495e-06
-1.30277e-08
5.54518e-06
-1.22786e-08
5.54524e-06
-1.14387e-08
5.54511e-06
-1.04986e-08
5.54476e-06
-9.47234e-09
5.54417e-06
-8.39401e-09
5.54332e-06
-7.29822e-09
5.54224e-06
-6.22449e-09
5.54095e-06
-5.22721e-09
5.5395e-06
-4.35715e-09
5.53793e-06
-3.67063e-09
5.53632e-06
-3.21258e-09
5.53474e-06
-2.97268e-09
5.53325e-06
-2.97457e-09
5.53195e-06
-3.22008e-09
5.53089e-06
-3.69892e-09
5.53013e-06
-4.37437e-09
5.52971e-06
-5.18775e-09
5.52966e-06
-6.08983e-09
5.52998e-06
-7.01437e-09
5.53067e-06
-7.89931e-09
5.5317e-06
-8.68506e-09
5.53301e-06
-9.33189e-09
5.53456e-06
-9.80228e-09
5.53628e-06
-1.00543e-08
5.53808e-06
-1.00522e-08
5.53988e-06
-9.77367e-09
5.54157e-06