/*--------------------------------*- C++ -*----------------------------------*\
| =========                 |                                                 |
| \\      /  F ield         | OpenFOAM: The Open Source CFD Toolbox           |
|  \\    /   O peration     | Version:  2206                                  |
|   \\  /    A nd           | Website:  www.openfoam.com                      |
|    \\/     M anipulation  |                                                 |
\*---------------------------------------------------------------------------*/
FoamFile
{
    version     2.0;
    format      ascii;
    arch        "LSB;label=32;scalar=64";
    class       surfaceScalarField;
    location    "18.6999";
    object      ddtCorrDdt0(phi);
}
// * * * * * * * * * * * * * * * * * * * * * * * * * * * * * * * * * * * * * //

dimensions      [0 3 -2 0 0 0 0];

oriented        oriented;

internalField   nonuniform List<scalar> 
5927
(
0.000126147
-0.000282256
0.000238636
0.000175391
-0.000160118
0.000110874
0.000223564
-4.69851e-05
-1.18825e-06
0.000264439
3.82209e-05
-7.90959e-05
0.000297494
9.23273e-05
-0.000125382
0.000321229
0.000123491
-0.000147226
0.000334273
0.000143285
-0.000156329
0.000336067
0.000164524
-0.000166318
0.000327335
0.000197403
-0.000188671
0.000309742
0.00024713
-0.000229537
0.000284974
0.000313273
-0.000288505
0.000254185
0.000391015
-0.000360227
0.000217985
0.000473465
-0.000437265
0.00017677
0.000553416
-0.000512202
0.000131271
0.000624106
-0.000578606
8.27025e-05
0.000679541
-0.000630972
3.29717e-05
0.00071447
-0.000664739
-1.46201e-05
0.000721913
-0.000674321
-5.83646e-05
0.000705977
-0.000662233
-9.66074e-05
0.000670676
-0.000632433
-0.000128127
0.000618291
-0.000586771
-0.000152154
0.000552229
-0.000528202
-0.00016841
0.000476641
-0.000460384
-0.000177265
0.000396166
-0.000387312
-0.000179823
0.000315239
-0.000312681
-0.000177904
0.000237313
-0.000239232
-0.000174109
0.00016404
-0.000167834
-0.000171515
9.32616e-05
-9.58558e-05
-0.000169317
1.44071e-05
-1.66049e-05
-0.000165684
-7.1206e-05
6.75732e-05
-0.00016205
-0.000156909
0.000153275
-0.000159458
-0.000242428
0.000239836
-0.000157766
-0.000328468
0.000326776
-0.000156279
-0.0004146
0.000413113
-0.000154104
-0.000499061
0.000496886
-0.000150363
-0.000578806
0.000575065
-0.000144124
-0.000649527
0.000643288
-0.000133898
-0.000704949
0.000694723
-0.000116296
-0.000734734
0.000717132
-9.36782e-05
-0.000728661
0.000706044
-6.6786e-05
-0.000697674
0.000670782
-3.65785e-05
-0.000643944
0.000613737
-4.21693e-06
-0.000571462
0.0005391
2.89587e-05
-0.00048554
0.000452365
6.17163e-05
-0.000392169
0.000359411
9.36911e-05
-0.000297127
0.000265152
0.000126863
-0.000204538
0.000171366
0.000162714
-0.000114141
7.82905e-05
0.000193852
-2.65788e-05
-4.55914e-06
0.000217233
4.61759e-05
-6.95575e-05
0.000232115
0.000104189
-0.00011907
0.000237875
0.000151464
-0.000157225
0.000235239
0.000192136
-0.0001895
0.00022581
0.000230618
-0.000221189
0.000211125
0.000270418
-0.000255732
0.000192276
0.000313056
-0.000294208
0.000169863
0.000358245
-0.000335831
0.000144184
0.000404325
-0.000378646
0.000115493
0.000448639
-0.000419948
8.42095e-05
0.000487763
-0.00045648
5.10662e-05
0.000517626
-0.000484482
1.73907e-05
0.000532823
-0.000499148
-1.4989e-05
0.000529141
-0.000496762
-4.49037e-05
0.000510967
-0.000481053
-7.1238e-05
0.000478714
-0.000452379
-9.30763e-05
0.000433983
-0.000412145
-0.000109812
0.000379406
-0.00036267
-0.000121266
0.000318303
-0.000306849
-0.000127895
0.000254237
-0.000247609
-0.000130961
0.000190505
-0.000187439
-0.000132632
0.000129037
-0.000127366
-0.000135158
6.72067e-05
-6.46799e-05
-0.000136511
-2.85303e-06
4.2053e-06
-0.000135313
-7.53096e-05
7.41118e-05
-0.000132516
-0.000145684
0.000142887
-0.000129138
-0.000212376
0.000208999
-0.000125607
-0.000275315
0.000271784
-0.000121974
-0.000334577
0.000330944
-0.000118033
-0.000389887
0.000385947
-0.000113381
-0.000440339
0.000435688
-0.000107255
-0.000483935
0.000477809
-9.8086e-05
-0.000516577
0.000507407
-8.32317e-05
-0.000529862
0.000515008
-6.49034e-05
-0.000521106
0.000502778
-4.33092e-05
-0.000496016
0.000474422
-1.92035e-05
-0.000455918
0.000431812
6.39643e-06
-0.0004035
0.0003779
3.23039e-05
-0.000342387
0.00031648
5.7398e-05
-0.000276621
0.000251527
8.13199e-05
-0.000209877
0.000185955
0.000105831
-0.000144387
0.000119876
0.000131379
-7.92509e-05
5.37025e-05
0.000152363
-1.51014e-05
-5.88216e-06
0.000167252
4.08617e-05
-5.5751e-05
0.000175308
8.90506e-05
-9.71059e-05
0.00017633
0.000130895
-0.000131917
0.000171261
0.000167854
-0.000162785
0.000161406
0.000202021
-0.000192166
0.000147902
0.000235157
-0.000221654
0.000131594
0.000267979
-0.00025167
0.00011302
0.000300295
-0.000281721
9.25221e-05
0.000331124
-0.000310626
7.03707e-05
0.000358791
-0.00033664
4.69209e-05
0.000380938
-0.000357489
2.28104e-05
0.000394172
-0.000370061
-6.56284e-07
0.000393844
-0.000370378
-2.27312e-05
0.000383268
-0.000361193
-4.26572e-05
0.000362473
-0.000342547
-5.97572e-05
0.000332256
-0.000315156
-7.35209e-05
0.000294202
-0.000280438
-8.36887e-05
0.000250495
-0.000240327
-9.03851e-05
0.000203614
-0.000196918
-9.4283e-05
0.000155972
-0.000152074
-9.67841e-05
0.000109336
-0.000106835
-9.9807e-05
6.2869e-05
-5.98462e-05
-0.000102567
1.07051e-05
-7.94489e-06
-0.000103216
-4.51458e-05
4.57944e-05
-0.000101913
-0.000100575
9.92728e-05
-9.93727e-05
-0.000153331
0.00015079
-9.61527e-05
-0.00020247
0.000199251
-9.25628e-05
-0.000247762
0.000244172
-0.000288943
0.000285098
7.35904e-05
-0.000319997
0.000115615
-0.000202142
0.000164448
-9.58188e-05
0.000207391
-4.72151e-06
0.000243056
5.66617e-05
0.000270044
9.65031e-05
0.000286573
0.000126756
0.000291965
0.000159132
0.000287044
0.000202324
0.000273429
0.000260745
0.00025261
0.000334091
0.000225536
0.000418089
0.000192696
0.000506306
0.000154537
0.000591575
0.000112043
0.0006666
6.65976e-05
0.000724986
2.02682e-05
0.000760799
-2.32564e-05
0.000765438
-6.25002e-05
0.000745221
-9.58939e-05
0.00070407
-0.000122397
0.000644794
-0.000141377
0.000571209
-0.000152645
0.000487909
-0.000156555
0.000400077
-0.000154064
0.000312748
-0.000146824
0.000230074
-0.000137571
0.000154787
-0.00013045
8.61403e-05
-0.000125017
8.974e-06
-0.000117375
-7.88477e-05
-0.000111402
-0.000162882
-0.000108095
-0.000245736
-0.00010711
-0.000329453
-0.000107669
-0.000414041
-0.000108816
-0.000497914
-0.000109594
-0.000578028
-0.000109096
-0.000650024
-0.00010605
-0.000707995
-9.75991e-05
-0.000743185
-8.38026e-05
-0.000742458
-6.58957e-05
-0.000715581
-4.42444e-05
-0.000665596
-1.96024e-05
-0.000596104
6.94091e-06
-0.000512084
3.41181e-05
-0.000419346
6.08939e-05
-0.000323903
8.7441e-05
-0.000231086
0.000116613
-0.000143313
0.000148114
-5.80797e-05
0.000172765
2.1524e-05
0.000190214
8.67405e-05
0.00019916
0.000142519
0.000199993
0.000191303
0.000194163
0.000236448
0.000182926
0.000281654
0.000167255
0.000328728
0.000147779
0.000377721
0.00012492
0.000427184
9.90779e-05
0.000474481
7.07766e-05
0.000516064
4.08244e-05
0.000547578
1.06581e-05
0.000562989
-1.80029e-05
0.000557803
-4.40691e-05
0.000537033
-6.65619e-05
0.000501207
-8.4649e-05
0.00045207
-9.76977e-05
0.000392455
-0.000105447
0.000326052
-0.000108244
0.000257035
-0.000107294
0.000189554
-0.000104961
0.000126704
-0.000104599
6.68452e-05
-0.000104183
-3.26911e-06
-0.000100811
-7.8682e-05
-9.65263e-05
-0.000149969
-9.28285e-05
-0.000216074
-9.00218e-05
-0.000278121
-8.80091e-05
-0.00033659
-8.64306e-05
-0.000391466
-8.48312e-05
-0.000441939
-8.25573e-05
-0.000486209
-7.83968e-05
-0.000520737
-6.9783e-05
-0.000538476
-5.78763e-05
-0.000533012
-4.28063e-05
-0.000511086
-2.4981e-05
-0.000473743
-5.10595e-06
-0.000423375
1.58035e-05
-0.000363297
3.65706e-05
-0.000297388
5.63141e-05
-0.00022962
7.53759e-05
-0.000163449
9.6088e-05
-9.9963e-05
0.000117471
-3.64843e-05
0.000133704
2.46282e-05
0.000144052
7.87029e-05
0.000147696
0.000127251
0.000145399
0.000170151
0.000138357
0.000209063
0.00012754
0.000245974
0.000113754
0.000281765
9.75877e-05
0.000316461
7.94695e-05
0.000349243
5.97656e-05
0.000378495
3.89124e-05
0.000401792
1.76241e-05
0.00041546
-2.91898e-06
0.000414387
-2.20589e-05
0.000402408
-3.91384e-05
0.000379553
-5.353e-05
0.000346648
-6.47082e-05
0.00030538
-7.23324e-05
0.000258119
-7.64145e-05
0.000207696
-7.75631e-05
0.000157121
-7.71639e-05
0.000108937
-7.76842e-05
6.33892e-05
-7.93322e-05
1.23531e-05
-7.88223e-05
-4.56557e-05
-7.63351e-05
-0.000103063
-7.3267e-05
-0.000156399
-7.0279e-05
-0.000205458
-6.75856e-05
-0.000250455
-0.000291325
2.47864e-05
-0.000354145
6.08924e-05
-0.000238248
0.000103359
-0.000138286
0.000148666
-5.0028e-05
0.000186417
1.89105e-05
0.000215915
6.7005e-05
0.000235142
0.000107529
0.000243296
0.000150977
0.000241602
0.000204019
0.000231647
0.000270701
0.000214555
0.000351183
0.000191003
0.000441641
0.000161499
0.00053581
0.000126805
0.000626269
8.79479e-05
0.000705457
4.64854e-05
0.000766449
4.65705e-06
0.000802627
-3.35446e-05
0.000803639
-6.70422e-05
0.000778719
-9.44107e-05
0.000731439
-0.000114789
0.000665172
-0.000127785
0.000584205
-0.000133575
0.000493699
-0.000132671
0.000399172
-0.000125663
0.00030574
-0.000113646
0.000218057
-9.913e-05
0.00014027
-8.66681e-05
7.36784e-05
-8.05531e-05
2.85897e-06
-6.69546e-05
-9.24462e-05
-5.89145e-05
-0.000170922
-5.53385e-05
-0.000249312
-5.53785e-05
-0.000329413
-5.80597e-05
-0.00041136
-6.24388e-05
-0.000493535
-6.76245e-05
-0.000572843
-7.27081e-05
-0.000644941
-7.65181e-05
-0.000704185
-7.70101e-05
-0.000742693
-7.20007e-05
-0.000747467
-6.30448e-05
-0.000724537
-4.99912e-05
-0.000678649
-3.32499e-05
-0.000612845
-1.35742e-05
-0.000531759
7.93346e-06
-0.000440853
3.00022e-05
-0.000345971
5.16566e-05
-0.00025274
7.39468e-05
-0.000165603
0.000100304
-8.44372e-05
0.000126114
-4.28526e-06
0.00014627
6.65841e-05
0.000157543
0.000131245
0.000161119
0.000187727
0.000158328
0.000239239
0.000150216
0.000289766
0.000137611
0.000341333
0.000121125
0.000394207
0.00010128
0.000447029
7.86237e-05
0.000497137
5.37828e-05
0.000540905
2.76301e-05
0.00057373
1.80341e-06
0.000588816
-2.21876e-05
0.000581794
-4.342e-05
0.000558266
-6.1165e-05
0.000518952
-7.47988e-05
0.000465704
-8.38095e-05
0.000401465
-8.79053e-05
0.000330148
-8.71103e-05
0.00025624
-8.22246e-05
0.000184668
-7.56334e-05
0.000120113
-7.19484e-05
6.31602e-05
-7.09728e-05
-4.24478e-06
-6.4392e-05
-8.52628e-05
-5.84089e-05
-0.000155952
-5.46478e-05
-0.000219835
-5.29073e-05
-0.000279862
-5.28336e-05
-0.000336664
-5.38865e-05
-0.000390413
-5.54734e-05
-0.000440352
-5.70053e-05
-0.000484677
-5.75544e-05
-0.000520188
-5.49323e-05
-0.000541098
-4.92033e-05
-0.000538742
-4.05379e-05
-0.000519751
-2.90061e-05
-0.000485275
-1.49889e-05
-0.000437392
7.63184e-07
-0.000379049
1.72068e-05
-0.000313832
3.31885e-05
-0.000245602
4.78976e-05
-0.000178158
6.26534e-05
-0.000114719
8.09688e-05
-5.47998e-05
9.82557e-05
7.34133e-06
0.00011063
6.63286e-05
0.000116408
0.000121473
0.000116522
0.000170038
0.000112
0.000213584
0.000103727
0.000254248
9.24744e-05
0.000293018
7.88531e-05
0.000330082
6.3361e-05
0.000364735
4.64374e-05
0.000395419
2.85821e-05
0.000419647
1.06395e-05
0.000433403
-6.37761e-06
0.000431405
-2.19236e-05
0.000417954
-3.5502e-05
0.000393131
-4.66518e-05
0.000357797
-5.4945e-05
0.000313673
-5.99802e-05
0.000263154
-6.15259e-05
0.000209242
-5.99275e-05
0.000155522
-5.65336e-05
0.000105543
-5.42509e-05
6.11065e-05
-5.53617e-05
1.34639e-05
-5.34309e-05
-4.75865e-05
-4.93073e-05
-0.000107186
-4.5755e-05
-0.000159951
-4.31972e-05
-0.000208016
-4.17825e-05
-0.00025187
-0.000291873
-2.06397e-05
1.19791e-05
4.74626e-05
8.86557e-05
0.000127709
0.000159253
0.00018041
0.000190633
0.000191697
0.000184966
0.000171093
0.000150692
0.00012459
9.37778e-05
0.000657081
5.92608e-05
0.000739974
2.26848e-05
0.000803025
-1.32775e-05
0.00083859
-4.49496e-05
0.000835312
-7.15689e-05
0.000805338
-9.18749e-05
0.000751745
-0.000105035
0.000678332
-0.000110959
0.00059013
-0.000110521
0.00049326
-0.000104749
0.0003934
-9.40191e-05
0.000295011
-7.86587e-05
0.000202696
-6.01233e-05
0.000121735
-4.34693e-05
5.70244e-05
-3.16762e-05
-8.93419e-06
-1.50148e-05
-0.000109108
-5.81561e-06
-0.000180121
-2.62916e-06
-0.000252498
-3.86816e-06
-0.000328174
-8.70593e-06
-0.000406522
-1.62819e-05
-0.000485959
-2.56669e-05
-0.000563458
-3.59635e-05
-0.000634644
-4.61836e-05
-0.000693965
-5.46725e-05
-0.000734204
-5.84427e-05
-0.000743697
-5.84669e-05
-0.000724513
-5.40757e-05
-0.00068304
-4.52766e-05
-0.000621644
-3.26004e-05
-0.000544435
-1.6924e-05
-0.00045653
5.01043e-07
-0.000363396
1.81028e-05
-0.000270342
3.46089e-05
-0.000182109
5.27654e-05
-0.000102594
7.8529e-05
-3.00489e-05
0.000103026
4.20866e-05
0.000114065
0.000120206
0.000119344
0.000182449
0.000119008
0.000239574
0.000113723
0.000295052
0.000104025
0.000351032
9.05082e-05
0.000407723
7.38174e-05
0.00046372
5.46304e-05
0.000516324
3.36501e-05
0.000561885
1.18181e-05
0.000595562
-8.95084e-06
0.000609585
-2.74704e-05
0.000600313
-4.29727e-05
0.000573768
-5.49297e-05
0.000530909
-6.30571e-05
0.000473832
-6.73687e-05
0.000405777
-6.78998e-05
0.000330679
-6.44607e-05
0.000252801
-5.68957e-05
0.000177103
-4.61119e-05
0.000109329
-3.70422e-05
5.40905e-05
-3.70399e-05
-4.24707e-06
-2.54652e-05
-9.68376e-05
-1.86049e-05
-0.000162812
-1.5526e-05
-0.000222914
-1.53131e-05
-0.000280075
-1.72946e-05
-0.000334682
-2.09395e-05
-0.000386768
-2.57208e-05
-0.000435571
-3.10447e-05
-0.000479353
-3.60835e-05
-0.000515149
-3.927e-05
-0.000537912
-3.94565e-05
-0.000538555
-3.70239e-05
-0.000522184
-3.16973e-05
-0.000490602
-2.35498e-05
-0.00044554
-1.30897e-05
-0.000389509
-1.24328e-06
-0.000325678
1.0858e-05
-0.000257703
2.2037e-05
-0.000189337
3.17373e-05
-0.000124419
4.33337e-05
-6.63962e-05
6.31811e-05
-1.25061e-05
7.75449e-05
5.19648e-05
8.34153e-05
0.000115602
8.50186e-05
0.000168434
8.26315e-05
0.000215971
7.68585e-05
0.000260021
6.82376e-05
0.000301639
5.73336e-05
0.000340986
4.46862e-05
0.000377382
3.07837e-05
0.000409321
1.61975e-05
0.000434233
1.9759e-06
0.000447624
-1.10415e-05
0.000444422
-2.23927e-05
0.000429305
-3.17434e-05
0.000402482
-3.88893e-05
0.000364943
-4.37024e-05
0.000318487
-4.60202e-05
0.000265472
-4.55476e-05
0.000208769
-4.19729e-05
0.000151948
-3.56145e-05
9.91848e-05
-2.9328e-05
5.482e-05
-3.16236e-05
1.57595e-05
-2.63101e-05
-5.29e-05
-2.06192e-05
-0.000112877
-1.74066e-05
-0.000163164
-1.61324e-05
-0.000209291
-1.61015e-05
-0.000251901
-0.000290863
5.57427e-05
2.63776e-05
-4.23155e-06
-3.27902e-05
-5.68637e-05
-7.55769e-05
-8.78237e-05
-9.2973e-05
-9.12484e-05
-8.37608e-05
-7.2e-05
-5.71029e-05
-4.03475e-05
-2.27973e-05
-2.5724e-06
2.4258e-05
3.70624e-05
4.62273e-05
4.93079e-05
4.64748e-05
3.91501e-05
2.83983e-05
1.49745e-05
-3.29164e-07
-1.65674e-05
-3.21336e-05
-4.40267e-05
-5.23643e-05
-5.63077e-05
-5.54719e-05
-4.99508e-05
-4.04227e-05
-2.82182e-05
-1.4935e-05
-1.97711e-06
1.03748e-05
2.96666e-05
5.88947e-05
6.92415e-05
7.55647e-05
7.71556e-05
7.42708e-05
6.71819e-05
5.65485e-05
4.31295e-05
2.76526e-05
1.08552e-05
-6.18159e-06
-2.13013e-05
-3.37801e-05
-4.28995e-05
-4.82512e-05
-4.99264e-05
-4.84069e-05
-4.43174e-05
-3.81765e-05
-2.9935e-05
-1.89533e-05
-6.96413e-06
3.41482e-06
1.42538e-05
2.0516e-05
2.34439e-05
2.24925e-05
1.83897e-05
1.19271e-05
3.79989e-06
-5.34272e-06
-1.47633e-05
-2.33391e-05
-2.92326e-05
-3.27489e-05
-3.33972e-05
-3.10708e-05
-2.60648e-05
-1.90828e-05
-1.10719e-05
-3.10346e-06
4.01422e-06
1.11312e-05
2.65706e-05
4.39409e-05
4.92173e-05
5.19722e-05
5.13394e-05
4.7792e-05
4.16578e-05
3.34675e-05
2.37643e-05
1.30479e-05
1.95799e-06
-8.24974e-06
-1.69625e-05
-2.37479e-05
-2.83411e-05
-3.07232e-05
-3.10795e-05
-2.97144e-05
-2.68955e-05
-2.26145e-05
-1.64699e-05
-7.81245e-06
-4.76603e-06
3.41472e-06
7.96578e-06
1.06044e-05
1.15837e-05
1.04288e-05
2.81272e-05
-2.04271e-06
2.74344e-05
6.92779e-07
2.39128e-05
3.52162e-06
1.79053e-05
6.00751e-06
9.86502e-06
8.04027e-06
3.1042e-06
6.76082e-06
-5.09134e-06
8.19555e-06
-1.23142e-05
7.22285e-06
-1.7665e-05
5.35082e-06
-2.07642e-05
3.09914e-06
-2.16243e-05
8.60182e-07
-2.05661e-05
-1.0582e-06
-1.81015e-05
-2.46463e-06
-1.47909e-05
-3.31055e-06
-1.11932e-05
-3.59779e-06
-7.82626e-06
-3.3669e-06
-5.12536e-06
-2.7009e-06
-3.43775e-06
-1.68761e-06
-3.02136e-06
-4.16384e-07
-3.90049e-06
8.79128e-07
-5.91126e-06
2.01077e-06
-8.74703e-06
2.83576e-06
-1.20247e-05
3.27772e-06
-1.52824e-05
3.25763e-06
-1.79844e-05
2.70203e-06
-1.96078e-05
1.62339e-06
-1.97727e-05
1.64898e-07
-1.83083e-05
-1.4644e-06
-1.52425e-05
-3.06576e-06
-1.08375e-05
-4.40505e-06
-5.39954e-06
-5.43794e-06
6.91067e-07
-6.09061e-06
6.97825e-06
-6.28718e-06
1.30472e-05
-6.06895e-06
1.74587e-05
-4.41153e-06
2.15354e-05
-4.07666e-06
2.40432e-05
-2.50783e-06
2.48615e-05
-8.18239e-07
2.40456e-05
8.15921e-07
2.1592e-05
2.45359e-06
1.78841e-05
3.70791e-06
1.39787e-05
3.90538e-06
9.77522e-06
4.20345e-06
5.56458e-06
4.21064e-06
1.89371e-06
3.67087e-06
-9.13311e-07
2.80702e-06
-2.68489e-06
1.77158e-06
-3.38952e-06
7.04622e-07
-3.10887e-06
-2.80638e-07
-2.02278e-06
-1.08609e-06
-3.90742e-07
-1.63204e-06
1.48476e-06
-1.8755e-06
3.29419e-06
-1.80943e-06
4.7528e-06
-1.45861e-06
5.63374e-06
-8.80936e-07
5.78863e-06
-1.54886e-07
5.14654e-06
6.42084e-07
3.71503e-06
1.43152e-06
1.59066e-06
2.12437e-06
-1.06745e-06
2.65811e-06
-4.07061e-06
3.00316e-06
-7.21561e-06
3.145e-06
-1.03013e-05
3.08569e-06
-1.31408e-05
2.83955e-06
-1.55677e-05
2.42682e-06
-1.74313e-05
1.86361e-06
-1.85954e-05
1.16417e-06
-1.89409e-05
3.45506e-07
-1.83862e-05
-5.54735e-07
-1.69267e-05
-1.45952e-06
-1.46519e-05
-2.27476e-06
-1.17098e-05
-2.94209e-06
-8.25757e-06
-3.45227e-06
-4.45607e-06
-3.8015e-06
-4.0056e-07
-4.05551e-06
2.74596e-06
-3.14652e-06
6.1268e-06
-3.38084e-06
9.00269e-06
-2.87589e-06
1.12695e-05
-2.26682e-06
1.28987e-05
-1.62915e-06
1.39635e-05
-1.06488e-06
1.44406e-05
-4.77119e-07
1.43144e-05
1.26228e-07
1.36457e-05
6.68747e-07
1.26247e-05
1.02094e-06
1.13997e-05
1.22504e-06
1.00287e-05
1.37098e-06
8.66214e-06
1.36656e-06
7.28333e-06
1.37881e-06
6.26601e-06
1.01732e-06
5.34892e-06
9.17095e-07
4.57573e-06
7.73182e-07
3.93208e-06
6.43652e-07
3.37304e-06
5.5904e-07
2.84106e-06
5.31977e-07
2.27512e-06
5.65934e-07
1.6172e-06
6.5792e-07
8.15437e-07
8.01758e-07
-1.69545e-07
9.84983e-07
-1.35544e-06
1.18588e-06
-2.73188e-06
1.37645e-06
-4.25967e-06
1.52778e-06
-5.87535e-06
1.61567e-06
-7.50375e-06
1.62839e-06
-9.06827e-06
1.56452e-06
-1.0487e-05
1.41873e-06
-1.16806e-05
1.19355e-06
-1.25803e-05
8.99703e-07
-1.31263e-05
5.45987e-07
-1.32746e-05
1.48376e-07
-1.3004e-05
-2.70626e-07
-1.23108e-05
-6.93203e-07
-1.12032e-05
-1.10759e-06
-9.70036e-06
-1.5029e-06
-7.82958e-06
-1.87078e-06
-5.57664e-06
-2.25295e-06
-3.64446e-06
-1.93218e-06
-1.32652e-06
-2.31795e-06
9.80523e-07
-2.30703e-06
3.14697e-06
-2.16646e-06
5.08031e-06
-1.93337e-06
-1.62891e-06
2.64202e-05
-3.18775e-06
2.49271e-05
2.18579e-06
2.03273e-05
8.12148e-06
1.32717e-05
1.30631e-05
6.98067e-06
1.43313e-05
-2.15049e-06
1.5892e-05
-9.73255e-06
1.57776e-05
-1.59219e-05
1.34122e-05
-2.00203e-05
9.44918e-06
-2.18666e-05
4.9455e-06
-2.1679e-05
6.72588e-07
-1.98268e-05
-2.91041e-06
-1.67785e-05
-5.51291e-06
-1.31587e-05
-6.93042e-06
-9.51018e-06
-7.24628e-06
-6.28756e-06
-6.58952e-06
-3.8281e-06
-5.16037e-06
-2.3873e-06
-3.12841e-06
-2.18269e-06
-6.20994e-07
-3.27444e-06
1.97088e-06
-5.48146e-06
4.2178e-06
-8.44497e-06
5.79927e-06
-1.17281e-05
6.56083e-06
-1.48525e-05
6.38206e-06
-1.72847e-05
5.13419e-06
-1.85295e-05
2.86824e-06
-1.82847e-05
-7.99699e-08
-1.64493e-05
-3.29981e-06
-1.31331e-05
-6.38192e-06
-8.53195e-06
-9.0062e-06
-2.95733e-06
-1.10125e-05
3.16329e-06
-1.22112e-05
9.26169e-06
-1.23856e-05
1.46301e-05
-1.14374e-05
1.96092e-05
-9.39065e-06
2.25458e-05
-7.01321e-06
2.41953e-05
-4.15738e-06
2.43759e-05
-9.98787e-07
2.29843e-05
2.20753e-06
2.02544e-05
5.18347e-06
1.68916e-05
7.0707e-06
1.23516e-05
8.44543e-06
7.62577e-06
8.92923e-06
3.27905e-06
8.55735e-06
-3.83124e-07
7.33305e-06
-3.0772e-06
5.5011e-06
-4.65898e-06
3.35337e-06
-5.11938e-06
1.16502e-06
-4.56253e-06
-8.37489e-07
-3.20042e-06
-2.4482e-06
-1.31345e-06
-3.51901e-06
7.85351e-07
-3.9743e-06
2.77451e-06
-3.79859e-06
4.3587e-06
-3.0428e-06
5.30875e-06
-1.83098e-06
5.48686e-06
-3.32994e-07
4.84297e-06
1.28597e-06
3.38209e-06
2.8924e-06
1.20891e-06
4.29755e-06
-1.47582e-06
5.34284e-06
-4.45735e-06
5.98469e-06
-7.52199e-06
6.20964e-06
-1.0468e-05
6.03173e-06
-1.3114e-05
5.4855e-06
-1.53089e-05
4.62177e-06
-1.6913e-05
3.4677e-06
-1.78072e-05
2.05835e-06
-1.78791e-05
4.17377e-07
-1.70351e-05
-1.39866e-06
-1.5266e-05
-3.22867e-06
-1.26855e-05
-4.85523e-06
-9.47484e-06
-6.15278e-06
-5.84072e-06
-7.08638e-06
-2.00181e-06
-7.64041e-06
1.70397e-06
-7.76129e-06
5.78494e-06
-7.22749e-06
8.90659e-06
-6.50249e-06
1.15131e-05
-5.48237e-06
1.34191e-05
-4.1728e-06
1.46035e-05
-2.81361e-06
1.51102e-05
-1.57153e-06
1.51175e-05
-4.84464e-07
1.43759e-05
8.67841e-07
1.31845e-05
1.86014e-06
1.1647e-05
2.55845e-06
9.984e-06
2.88803e-06
8.21366e-06
3.14132e-06
6.62304e-06
2.95718e-06
5.24588e-06
2.75598e-06
3.89494e-06
2.36825e-06
2.82757e-06
1.98446e-06
1.98753e-06
1.61322e-06
1.33535e-06
1.29583e-06
8.09659e-07
1.08473e-06
3.42285e-07
9.9935e-07
-1.31507e-07
1.03972e-06
-6.72153e-07
1.19856e-06
-1.33549e-06
1.46509e-06
-2.16697e-06
1.81647e-06
-3.18803e-06
2.20693e-06
-4.38901e-06
2.57743e-06
-5.72431e-06
2.86308e-06
-7.1207e-06
3.01206e-06
-8.50002e-06
3.00771e-06
-9.79304e-06
2.85754e-06
-1.09246e-05
2.55032e-06
-1.18152e-05
2.08408e-06
-1.23907e-05
1.47524e-06
-1.25902e-05
7.45471e-07
-1.23791e-05
-6.27831e-08
-1.175e-05
-8.99701e-07
-1.07158e-05
-1.72742e-06
-9.30037e-06
-2.523e-06
-7.54413e-06
-3.25915e-06
-5.51078e-06
-3.90414e-06
-3.33818e-06
-4.42555e-06
-7.37029e-07
-4.53334e-06
1.68725e-06
-4.74224e-06
3.96398e-06
-4.58377e-06
6.01554e-06
-4.21803e-06
7.76579e-06
-3.68362e-06
-3.00216e-06
1.76749e-05
-3.70956e-06
1.66868e-05
3.17382e-06
1.38253e-05
1.0983e-05
9.73645e-06
1.71519e-05
4.0291e-06
2.00387e-05
-2.75117e-06
2.26722e-05
-9.21428e-06
2.22407e-05
-1.4375e-05
1.85729e-05
-1.75494e-05
1.26236e-05
-1.86039e-05
5.99994e-06
-1.78944e-05
-3.68355e-08
-1.58677e-05
-4.93714e-06
-1.29898e-05
-8.39083e-06
-9.80251e-06
-1.01177e-05
-6.7579e-06
-1.02909e-05
-4.17559e-06
-9.17183e-06
-2.32138e-06
-7.01457e-06
-1.37023e-06
-4.07956e-06
-1.4592e-06
-5.32023e-07
-2.57685e-06
3.08853e-06
-4.64508e-06
6.28602e-06
-7.3609e-06
8.5151e-06
-1.03555e-05
9.55542e-06
-1.32777e-05
9.30424e-06
-1.56863e-05
7.54279e-06
-1.70434e-05
4.2254e-06
-1.7005e-05
-1.18441e-07
-1.54223e-05
-4.8825e-06
-1.24385e-05
-9.36564e-06
-8.34723e-06
-1.30975e-05
-3.32004e-06
-1.60397e-05
2.35259e-06
-1.78839e-05
8.07287e-06
-1.81059e-05
1.3189e-05
-1.65535e-05
1.7449e-05
-1.36507e-05
2.03744e-05
-9.93859e-06
2.19481e-05
-5.73113e-06
2.22174e-05
-1.26813e-06
2.10677e-05
3.35722e-06
1.8621e-05
7.63023e-06
1.49183e-05
1.07734e-05
1.05801e-05
1.27836e-05
6.0261e-06
1.34833e-05
1.76669e-06
1.28168e-05
-1.75186e-06
1.08516e-05
-4.24703e-06
7.99628e-06
-5.61289e-06
4.71922e-06
-5.83184e-06
1.38397e-06
-5.00615e-06
-1.66318e-06
-3.36196e-06
-4.09239e-06
-1.17125e-06
-5.70972e-06
1.25566e-06
-6.4012e-06
3.58473e-06
-6.12766e-06
5.48842e-06
-4.94649e-06
6.71701e-06
-3.05957e-06
7.13626e-06
-7.52247e-07
6.73044e-06
1.69179e-06
5.50513e-06
4.11771e-06
3.51434e-06
6.28834e-06
9.67169e-07
7.89e-06
-1.9139e-06
8.86577e-06
-4.92077e-06
9.21651e-06
-7.86571e-06
8.97667e-06
-1.05758e-05
8.19559e-06
-1.29345e-05
6.9805e-06
-1.48135e-05
5.34666e-06
-1.60899e-05
3.33474e-06
-1.66098e-05
9.37327e-07
-1.62191e-05
-1.78942e-06
-1.48433e-05
-4.60442e-06
-1.2621e-05
-7.07756e-06
-9.78956e-06
-8.98421e-06
-6.52586e-06
-1.03501e-05
-2.98476e-06
-1.11815e-05
6.18112e-07
-1.13642e-05
4.16432e-06
-1.07737e-05
7.01012e-06
-9.34829e-06
9.27548e-06
-7.74773e-06
1.09034e-05
-5.80071e-06
1.19232e-05
-3.83337e-06
1.23597e-05
-2.00804e-06
1.22562e-05
-3.81042e-07
1.15137e-05
1.61036e-06
1.03006e-05
3.07328e-06
8.7339e-06
4.12514e-06
7.41164e-06
4.21029e-06
5.81808e-06
4.73487e-06
4.35111e-06
4.42415e-06
3.17409e-06
3.93299e-06
2.2625e-06
3.27985e-06
1.64222e-06
2.60474e-06
1.28135e-06
1.97409e-06
1.15273e-06
1.42445e-06
1.16153e-06
1.07593e-06
1.21608e-06
9.44796e-07
1.23013e-06
1.02567e-06
1.12883e-06
1.29986e-06
8.38302e-07
1.75562e-06
2.93398e-07
2.36137e-06
-5.42183e-07
3.04251e-06
-1.67256e-06
3.7078e-06
-3.0502e-06
4.24072e-06
-4.58031e-06
4.54216e-06
-6.14669e-06
4.57408e-06
-7.67695e-06
4.38779e-06
-9.09117e-06
3.96454e-06
-1.03024e-05
3.29535e-06
-1.12275e-05
2.40027e-06
-1.1782e-05
1.3e-06
-1.19182e-05
7.33728e-08
-1.16281e-05
-1.1898e-06
-1.09225e-05
-2.43302e-06
-9.80588e-06
-3.63962e-06
-8.28665e-06
-4.77839e-06
-6.39855e-06
-5.79225e-06
-4.16713e-06
-6.65698e-06
-2.0504e-06
-6.65008e-06
4.23888e-07
-7.21653e-06
2.77159e-06
-6.93148e-06
4.91049e-06
-6.35692e-06
6.74244e-06
-5.51557e-06
-4.44466e-06
1.07887e-05
-4.08335e-06
1.05389e-05
3.42358e-06
9.36527e-06
1.21566e-05
8.3349e-06
1.81823e-05
4.0224e-06
2.43512e-05
-1.08768e-06
2.77823e-05
-5.94085e-06
2.70939e-05
-9.49694e-06
2.2129e-05
-1.13302e-05
1.44568e-05
-1.15535e-05
6.22328e-06
-1.07017e-05
-8.88592e-07
-9.13069e-06
-6.50819e-06
-7.22496e-06
-1.02966e-05
-5.71282e-06
-1.16298e-05
-4.75475e-06
-1.1249e-05
-4.15562e-06
-9.77097e-06
-3.79417e-06
-7.37601e-06
-3.73341e-06
-4.14031e-06
-4.42017e-06
1.54731e-07
-5.67647e-06
4.34483e-06
-7.2446e-06
7.85415e-06
-8.90123e-06
1.01717e-05
-1.06142e-05
1.12684e-05
-1.23332e-05
1.10232e-05
-1.37314e-05
8.94098e-06
-1.4395e-05
4.88903e-06
-1.41972e-05
-3.16216e-07
-1.27875e-05
-6.29217e-06
-1.02401e-05
-1.19131e-05
-7.03094e-06
-1.63067e-05
-3.00256e-06
-2.00681e-05
1.89314e-06
-2.27796e-05
7.05155e-06
-2.32643e-05
1.15646e-05
-2.10666e-05
1.51466e-05
-1.72326e-05
1.75216e-05
-1.23136e-05
1.87007e-05
-6.91019e-06
1.89001e-05
-1.46749e-06
1.78867e-05
4.37057e-06
1.56506e-05
9.86633e-06
1.23989e-05
1.40251e-05
8.60838e-06
1.65741e-05
4.66868e-06
1.7423e-05
1.01266e-06
1.64728e-05
-1.83933e-06
1.37036e-05
-3.6296e-06
9.78655e-06
-4.4417e-06
5.53132e-06
-4.3443e-06
1.28657e-06
-3.34235e-06
-2.66512e-06
-1.58164e-06
-5.85311e-06
6.74632e-07
-7.96599e-06
3.09075e-06
-8.81732e-06
5.32606e-06
-8.36297e-06
7.04355e-06
-6.66398e-06
8.00484e-06
-4.02086e-06
8.0984e-06
-8.4581e-07
7.45906e-06
2.33113e-06
6.15982e-06
5.41696e-06
4.1239e-06
8.32425e-06
1.6282e-06
1.03857e-05
-1.11898e-06
1.1613e-05
-3.94161e-06
1.20391e-05
-6.71734e-06
1.17524e-05
-9.28093e-06
1.07592e-05
-1.16177e-05
9.31726e-06
-1.35798e-05
7.30879e-06
-1.51107e-05
4.86564e-06
-1.6008e-05
1.83462e-06
-1.59313e-05
-1.86613e-06
-1.46469e-05
-5.88881e-06
-1.24454e-05
-9.27913e-06
-9.71194e-06
-1.17176e-05
-6.58533e-06
-1.34767e-05
-3.19068e-06
-1.45762e-05
2.29047e-07
-1.47839e-05
3.36222e-06
-1.39069e-05
6.09831e-06
-1.20844e-05
8.15449e-06
-9.80392e-06
9.60797e-06
-7.25419e-06
1.04786e-05
-4.70404e-06
1.08566e-05
-2.38598e-06
1.0553e-05
-7.741e-08
9.64797e-06
2.51534e-06
8.28242e-06
4.43883e-06
6.8198e-06
5.58776e-06
4.96251e-06
6.06758e-06
3.53147e-06
6.16591e-06
2.28233e-06
5.67329e-06
1.35357e-06
4.86175e-06
7.75136e-07
3.85828e-06
5.50103e-07
2.82977e-06
6.68957e-07
1.85523e-06
1.11372e-06
9.79686e-07
1.68726e-06
5.02384e-07
2.31499e-06
3.17061e-07
2.87698e-06
4.63681e-07
3.28828e-06
8.8856e-07
3.44971e-06
1.59418e-06
3.24293e-06
2.56815e-06
2.61248e-06
3.67296e-06
1.53546e-06
4.78482e-06
3.60436e-08
5.74014e-06
-1.75939e-06
6.33759e-06
-3.65026e-06
6.46495e-06
-5.62642e-06
6.36395e-06
-7.57065e-06
5.90876e-06
-9.33176e-06
5.05646e-06
-1.08137e-05
3.88216e-06
-1.18768e-05
2.36313e-06
-1.24476e-05
6.44178e-07
-1.25531e-05
-1.0843e-06
-1.22267e-05
-2.75944e-06
-1.14493e-05
-4.41704e-06
-1.02044e-05
-6.02331e-06
-8.55566e-06
-7.44096e-06
-6.65344e-06
-8.5592e-06
-4.12038e-06
-9.18315e-06
-1.78848e-06
-9.54844e-06
6.23375e-07
-9.34334e-06
2.93716e-06
-8.6707e-06
5.00581e-06
-7.58421e-06
-6.15016e-06
-1.17571e-05
-6.66895e-06
-1.0103e-05
1.76951e-06
-8.50606e-06
1.05597e-05
-7.04049e-06
1.67167e-05
-5.88915e-06
2.31999e-05
-5.36803e-06
2.72612e-05
-4.61411e-06
2.634e-05
-3.49031e-06
2.10052e-05
-1.64906e-06
1.26155e-05
1.02819e-06
3.54603e-06
3.64917e-06
-3.50957e-06
6.68114e-06
-9.54017e-06
9.77423e-06
-1.33896e-05
1.1749e-05
-1.36046e-05
1.18538e-05
-1.13538e-05
9.85673e-06
-7.77391e-06
6.28325e-06
-3.80253e-06
1.93804e-06
2.04892e-07
-2.48035e-06
4.57313e-06
-6.79675e-06
8.66123e-06
-1.03834e-05
1.14408e-05
-1.26782e-05
1.24666e-05
-1.38303e-05
1.24205e-05
-1.39751e-05
1.11679e-05
-1.33118e-05
8.27774e-06
-1.18266e-05
3.40379e-06
-1.02351e-05
-1.90775e-06
-7.62373e-06
-8.9035e-06
-3.91216e-06
-1.56246e-05
-1.06072e-06
-1.91581e-05
1.47949e-06
-2.26083e-05
4.75643e-06
-2.60565e-05
8.39923e-06
-2.69071e-05
1.12558e-05
-2.39232e-05
1.32134e-05
-1.91901e-05
1.40216e-05
-1.31219e-05
1.35571e-05
-6.44565e-06
1.25398e-05
-4.5022e-07
1.09843e-05
5.9261e-06
8.26302e-06
1.25876e-05
4.74606e-06
1.75421e-05
9.62929e-07
2.03572e-05
-2.61887e-06
2.10048e-05
-5.53703e-06
1.9391e-05
-7.14635e-06
1.53129e-05
-7.21212e-06
9.85233e-06
-6.36003e-06
4.67923e-06
-4.64907e-06
-4.24395e-07
-1.95942e-06
-5.35476e-06
1.46729e-06
-9.27983e-06
5.22813e-06
-1.17268e-05
8.83624e-06
-1.24254e-05
1.19491e-05
-1.14758e-05
1.41955e-05
-8.91036e-06
1.53451e-05
-5.17054e-06
1.52257e-05
-7.26338e-07
1.37598e-05
3.797e-06
1.12769e-05
7.89989e-06
8.06279e-06
1.15383e-05
4.38961e-06
1.40589e-05
6.45721e-07
1.53568e-05
-2.95298e-06
1.56378e-05
-6.35065e-06
1.51501e-05
-9.5477e-06
1.39562e-05
-1.24505e-05
1.22201e-05
-1.51314e-05
9.98963e-06
-1.76073e-05
7.34158e-06
-1.96298e-05
3.85716e-06
-2.05804e-05
-9.15552e-07
-1.97092e-05
-6.76e-06
-1.77503e-05
-1.1238e-05
-1.53837e-05
-1.40843e-05
-1.24015e-05
-1.64589e-05
-8.85867e-06
-1.8119e-05
-4.91506e-06
-1.87275e-05
-9.5424e-07
-1.78677e-05
2.65958e-06
-1.56982e-05
5.65346e-06
-1.27978e-05
8.0062e-06
-9.60693e-06
9.61286e-06
-6.31069e-06
1.04004e-05
-3.17353e-06
1.08907e-05
-5.67734e-07
1.03592e-05
3.04683e-06
9.23768e-06
5.56038e-06
7.94431e-06
6.88113e-06
6.5061e-06
7.50579e-06
5.34187e-06
7.33014e-06
4.48675e-06
6.52842e-06
3.98592e-06
5.36258e-06
3.86333e-06
3.98087e-06
4.05646e-06
2.63665e-06