/*--------------------------------*- C++ -*----------------------------------*\
| =========                 |                                                 |
| \\      /  F ield         | OpenFOAM: The Open Source CFD Toolbox           |
|  \\    /   O peration     | Version:  2206                                  |
|   \\  /    A nd           | Website:  www.openfoam.com                      |
|    \\/     M anipulation  |                                                 |
\*---------------------------------------------------------------------------*/
FoamFile
{
    version     2.0;
    format      ascii;
    arch        "LSB;label=32;scalar=64";
    class       surfaceScalarField;
    location    "19.1001";
    object      ddtCorrDdt0(phi);
}
// * * * * * * * * * * * * * * * * * * * * * * * * * * * * * * * * * * * * * //

dimensions      [0 3 -2 0 0 0 0];

oriented        oriented;

internalField   nonuniform List<scalar> 
9482
(
5.59618e-12
1.81751e-08
-1.81818e-08
-5.17579e-10
4.82664e-08
-4.77425e-08
-1.23696e-09
7.05801e-08
-6.98625e-08
-2.10069e-09
8.59766e-08
-8.51131e-08
-3.05789e-09
9.45493e-08
-9.35915e-08
-4.05185e-09
9.63519e-08
-9.53607e-08
-5.01504e-09
9.15101e-08
-9.05492e-08
-5.8825e-09
8.01935e-08
-7.93278e-08
-6.59531e-09
6.26177e-08
-6.19043e-08
-7.10216e-09
3.9061e-08
-3.85542e-08
-7.34919e-09
9.89968e-09
-9.65224e-09
-7.28874e-09
-2.43823e-08
2.43221e-08
-6.88239e-09
-6.31963e-08
6.27897e-08
-6.09645e-09
-1.05891e-07
1.05105e-07
-4.90321e-09
-1.51789e-07
1.50596e-07
-3.27875e-09
-2.00221e-07
1.98597e-07
-1.2051e-09
-2.50532e-07
2.48458e-07
1.33251e-09
-3.02087e-07
2.9955e-07
4.3419e-09
-3.54263e-07
3.51254e-07
7.82698e-09
-4.06447e-07
4.02962e-07
1.17833e-08
-4.58039e-07
4.54082e-07
1.6202e-08
-5.08462e-07
5.04044e-07
2.10651e-08
-5.57171e-07
5.52308e-07
2.63516e-08
-6.03659e-07
5.98373e-07
3.20333e-08
-6.47462e-07
6.41781e-07
3.80805e-08
-6.88164e-07
6.82118e-07
4.44587e-08
-7.25397e-07
7.19019e-07
5.11347e-08
-7.58844e-07
7.52169e-07
5.80711e-08
-7.88241e-07
7.81305e-07
6.52321e-08
-8.13386e-07
8.06226e-07
7.25825e-08
-8.34161e-07
8.26811e-07
8.00669e-08
-8.50477e-07
8.42994e-07
8.76641e-08
-8.62372e-07
8.54776e-07
9.53122e-08
-8.69892e-07
8.62245e-07
1.02987e-07
-8.73252e-07
8.65578e-07
1.10627e-07
-8.72632e-07
8.64993e-07
1.18222e-07
-8.68437e-07
8.60842e-07
1.257e-07
-8.6089e-07
8.53414e-07
1.33082e-07
-8.50633e-07
8.43252e-07
1.40278e-07
-8.37844e-07
8.3065e-07
1.4734e-07
-8.23421e-07
8.1636e-07
1.54179e-07
-8.07468e-07
8.00632e-07
1.60853e-07
-7.91058e-07
7.84385e-07
1.67309e-07
-7.74341e-07
7.67888e-07
1.73585e-07
-7.58267e-07
7.51992e-07
1.79697e-07
-7.43414e-07
7.37306e-07
1.85634e-07
-7.30013e-07
7.24079e-07
1.91549e-07
-7.19754e-07
7.13841e-07
1.97197e-07
-7.11284e-07
7.05638e-07
2.0333e-07
-7.08175e-07
7.02045e-07
2.08617e-07
-7.07064e-07
7.0178e-07
2.15156e-07
-7.12611e-07
7.06076e-07
2.21145e-07
-7.22261e-07
7.16276e-07
2.26547e-07
-7.36637e-07
7.31238e-07
2.33035e-07
-7.5994e-07
7.53456e-07
2.40064e-07
-7.88588e-07
7.81561e-07
2.47333e-07
-8.23784e-07
8.16519e-07
2.54867e-07
-8.66041e-07
8.58509e-07
2.62858e-07
-9.15555e-07
9.07567e-07
2.715e-07
-9.72415e-07
9.63776e-07
2.80936e-07
-1.03665e-06
1.02721e-06
2.9126e-07
-1.10821e-06
1.09789e-06
3.0252e-07
-1.18697e-06
1.17571e-06
3.1474e-07
-1.27273e-06
1.26051e-06
3.27949e-07
-1.36527e-06
1.35206e-06
3.42209e-07
-1.46432e-06
1.45007e-06
3.57606e-07
-1.56959e-06
1.5542e-06
3.74241e-07
-1.68073e-06
1.6641e-06
3.92209e-07
-1.79737e-06
1.7794e-06
4.1159e-07
-1.9191e-06
1.89972e-06
4.32454e-07
-2.04552e-06
2.02466e-06
4.54862e-07
-2.17623e-06
2.15382e-06
4.78873e-07
-2.31085e-06
2.28683e-06
5.04549e-07
-2.449e-06
2.42332e-06
5.31958e-07
-2.59036e-06
2.56295e-06
5.61175e-07
-2.73462e-06
2.7054e-06
5.92286e-07
-2.88153e-06
2.85043e-06
6.25383e-07
-3.0309e-06
2.9978e-06
6.60574e-07
-3.18255e-06
3.14736e-06
6.97974e-07
-3.3364e-06
3.29901e-06
7.37714e-07
-3.49244e-06
3.45271e-06
7.79938e-07
-3.65072e-06
3.6085e-06
8.24807e-07
-3.81137e-06
3.76651e-06
8.72497e-07
-3.97463e-06
3.92695e-06
9.23209e-07
-4.14082e-06
4.09012e-06
9.77156e-07
-4.31039e-06
4.25644e-06
1.0346e-06
-4.48385e-06
4.42641e-06
1.09578e-06
-4.66187e-06
4.60069e-06
1.16101e-06
-4.84526e-06
4.78004e-06
1.23062e-06
-5.03496e-06
4.96536e-06
1.30496e-06
-5.23201e-06
5.15768e-06
1.38441e-06
-5.43762e-06
5.35819e-06
1.46934e-06
-5.65316e-06
5.56823e-06
1.56017e-06
-5.88015e-06
5.78933e-06
1.65725e-06
-6.12025e-06
6.02318e-06
1.76092e-06
-6.37533e-06
6.27168e-06
1.87138e-06
-6.64739e-06
6.53695e-06
1.98864e-06
-6.93861e-06
6.82137e-06
2.11239e-06
-7.25134e-06
7.12762e-06
2.24177e-06
-7.5881e-06
7.45873e-06
2.37512e-06
-7.95152e-06
7.81819e-06
2.50946e-06
-8.34435e-06
8.21002e-06
2.63977e-06
-8.76922e-06
8.63893e-06
2.75782e-06
-9.22859e-06
9.11056e-06
2.85022e-06
-9.72358e-06
9.63119e-06
2.8971e-06
-1.02557e-05
1.02088e-05
2.85897e-06
-1.08134e-05
1.08516e-05
2.6914e-06
-1.13863e-05
1.15539e-05
2.39641e-06
-1.20038e-05
1.22988e-05
1.74698e-06
-1.25838e-05
1.32332e-05
1.08739e-06
-1.32859e-05
1.39456e-05
-1.32619e-05
1.43493e-05
-8.09967e-11
1.82562e-08
-4.17789e-10
4.86033e-08
-9.62441e-10
7.11256e-08
-1.6484e-09
8.66626e-08
-2.41392e-09
9.53144e-08
-3.20184e-09
9.7139e-08
-3.96079e-09
9.22678e-08
-4.64299e-09
8.08766e-08
-5.202e-09
6.31763e-08
-5.59096e-09
3.9452e-08
-5.77358e-09
1.00821e-08
-5.715e-09
-2.44412e-08
-5.38521e-09
-6.35265e-08
-4.76064e-09
-1.06515e-07
-3.82211e-09
-1.52728e-07
-2.55077e-09
-2.01492e-07
-9.30996e-10
-2.52152e-07
1.04929e-09
-3.04068e-07
3.39724e-09
-3.56611e-07
6.11493e-09
-4.09165e-07
9.19939e-09
-4.61123e-07
1.2642e-08
-5.11905e-07
1.643e-08
-5.60959e-07
2.0546e-08
-6.07774e-07
2.49685e-08
-6.51884e-07
2.96727e-08
-6.92868e-07
3.46321e-08
-7.30356e-07
3.98197e-08
-7.64031e-07
4.52064e-08
-7.93627e-07
5.07665e-08
-8.18945e-07
5.6463e-08
-8.39857e-07
6.2271e-08
-8.56284e-07
6.81693e-08
-8.6827e-07
7.41057e-08
-8.75827e-07
8.00766e-08
-8.79222e-07
8.60113e-08
-8.78566e-07
9.193e-08
-8.74354e-07
9.77488e-08
-8.66707e-07
1.03502e-07
-8.56385e-07
1.0911e-07
-8.4345e-07
1.14602e-07
-8.28911e-07
1.19933e-07
-8.12797e-07
1.25088e-07
-7.96211e-07
1.30115e-07
-7.79366e-07
1.3491e-07
-7.63059e-07
1.39645e-07
-7.48145e-07
1.44153e-07
-7.34517e-07
1.4864e-07
-7.24237e-07
1.53064e-07
-7.15703e-07
1.57565e-07
-7.12672e-07
1.61815e-07
-7.1131e-07
1.67049e-07
-7.17841e-07
1.70889e-07
-7.26097e-07
1.76859e-07
-7.42602e-07
1.81064e-07
-7.64142e-07
1.86169e-07
-7.93689e-07
1.91622e-07
-8.29234e-07
1.97519e-07
-8.71934e-07
2.03959e-07
-9.21993e-07
2.10921e-07
-9.79372e-07
2.18364e-07
-1.04409e-06
2.26333e-07
-1.11617e-06
2.34955e-07
-1.19558e-06
2.44365e-07
-1.28214e-06
2.54656e-07
-1.37556e-06
2.65871e-07
-1.47554e-06
2.78024e-07
-1.58174e-06
2.91132e-07
-1.69384e-06
3.05226e-07
-1.81146e-06
3.20355e-07
-1.93423e-06
3.36587e-07
-2.06175e-06
3.53988e-07
-2.19363e-06
3.72623e-07
-2.32948e-06
3.92551e-07
-2.46893e-06
4.13827e-07
-2.61163e-06
4.36502e-07
-2.75729e-06
4.60633e-07
-2.90566e-06
4.8628e-07
-3.05654e-06
5.13517e-07
-3.20978e-06
5.42427e-07
-3.36531e-06
5.73113e-07
-3.52312e-06
6.05686e-07
-3.68329e-06
6.40281e-07
-3.84596e-06
6.7704e-07
-4.01138e-06
7.16129e-07
-4.1799e-06
7.57718e-07
-4.35197e-06
8.02025e-07
-4.52815e-06
8.49261e-07
-4.7091e-06
8.99626e-07
-4.89562e-06
9.53366e-07
-5.0887e-06
1.01074e-06
-5.28938e-06
1.07202e-06
-5.49889e-06
1.13747e-06
-5.71861e-06
1.20735e-06
-5.95002e-06
1.28187e-06
-6.19477e-06
1.36117e-06
-6.45462e-06
1.44524e-06
-6.73145e-06
1.53386e-06
-7.02722e-06
1.62646e-06
-7.34393e-06
1.72194e-06
-7.68357e-06
1.81842e-06
-8.04799e-06
1.91282e-06
-8.43874e-06
2.00042e-06
-8.8568e-06
2.07386e-06
-9.30201e-06
2.12298e-06
-9.77267e-06
2.12968e-06
-1.02623e-05
2.07822e-06
-1.07619e-05
1.95772e-06
-1.12658e-05
1.70492e-06
-1.1751e-05
1.26581e-06
-1.21446e-05
3.56004e-07
-1.23761e-05
-1.29059e-05
-5.78237e-11
1.83143e-08
-2.73314e-10
4.88194e-08
-6.78542e-10
7.15311e-08
-1.2207e-09
8.72056e-08
-1.83007e-09
9.59242e-08
-2.44599e-09
9.7754e-08
-3.02088e-09
9.28421e-08
-3.52365e-09
8.13788e-08
-3.92228e-09
6.35771e-08
-4.18322e-09
3.97122e-08
-4.26715e-09
1.01661e-08
-4.15741e-09
-2.45512e-08
-3.85156e-09
-6.38327e-08
-3.34972e-09
-1.07018e-07
-2.64545e-09
-1.53433e-07
-1.72592e-09
-2.02412e-07
-5.73409e-10
-2.53304e-07
8.29199e-10
-3.0547e-07
2.49341e-09
-3.58275e-07
4.42444e-09
-4.11095e-07
6.62024e-09
-4.63319e-07
9.07443e-09
-5.14359e-07
1.17767e-08
-5.63661e-07
1.47137e-08
-6.10711e-07
1.78691e-08
-6.55038e-07
2.12242e-08
-6.96222e-07
2.47591e-08
-7.3389e-07
2.8453e-08
-7.67724e-07
3.22848e-08
-7.97458e-07
3.62332e-08
-8.22892e-07
4.02822e-08
-8.43905e-07
4.44067e-08
-8.60407e-07
4.85928e-08
-8.72454e-07
5.28118e-08
-8.80045e-07
5.70594e-08
-8.83469e-07
6.12869e-08
-8.82791e-07
6.55198e-08
-8.78584e-07
6.96612e-08
-8.70847e-07
7.37914e-08
-8.60513e-07
7.77665e-08
-8.47422e-07
8.16998e-08
-8.32842e-07
8.54676e-08
-8.16561e-07
8.91069e-08
-7.99847e-07
9.268e-08
-7.82934e-07
9.59451e-08
-7.6632e-07
9.93934e-08
-7.51589e-07
1.0225e-07
-7.37369e-07
1.05677e-07
-7.2766e-07
1.08354e-07
-7.18376e-07
1.11571e-07
-7.15884e-07
1.14775e-07
-7.14509e-07
1.18009e-07
-7.2107e-07
1.20998e-07
-7.29081e-07
1.25647e-07
-7.47245e-07
1.28175e-07
-7.66665e-07
1.31923e-07
-7.97433e-07
1.35906e-07
-8.33213e-07
1.40055e-07
-8.76078e-07
1.44534e-07
-9.26467e-07
1.49475e-07
-9.84309e-07
1.54949e-07
-1.04956e-06
1.60941e-07
-1.12216e-06
1.67368e-07
-1.20201e-06
1.74163e-07
-1.28893e-06
1.81342e-07
-1.38273e-06
1.89011e-07
-1.4832e-06
1.97314e-07
-1.59005e-06
2.06386e-07
-1.70291e-06
2.16312e-07
-1.82138e-06
2.27131e-07
-1.94504e-06
2.38845e-07
-2.07346e-06
2.51435e-07
-2.20622e-06
2.64886e-07
-2.34293e-06
2.79197e-07
-2.48323e-06
2.94388e-07
-2.62682e-06
3.10491e-07
-2.77339e-06
3.27549e-07
-2.92272e-06
3.45616e-07
-3.0746e-06
3.64749e-07
-3.22891e-06
3.8501e-07
-3.38557e-06
4.06468e-07
-3.54458e-06
4.29207e-07
-3.70602e-06
4.53318e-07
-3.87007e-06
4.78909e-07
-4.03697e-06
5.06102e-07
-4.20709e-06
5.3504e-07
-4.3809e-06
5.65872e-07
-4.55897e-06
5.98755e-07
-4.74197e-06
6.33842e-07
-4.93071e-06
6.71307e-07
-5.12616e-06
7.11327e-07
-5.32939e-06
7.54069e-07
-5.54163e-06
7.9969e-07
-5.76423e-06
8.48319e-07
-5.99864e-06
9.00056e-07
-6.2465e-06
9.54974e-07
-6.50953e-06
1.01298e-06
-6.78945e-06
1.07378e-06
-7.08801e-06
1.1368e-06
-7.40693e-06
1.20104e-06
-7.7478e-06
1.26493e-06
-8.11187e-06
1.32606e-06
-8.49985e-06
1.38091e-06
-8.91164e-06
1.42463e-06
-9.34572e-06
1.45012e-06
-9.79815e-06
1.44927e-06
-1.02615e-05
1.41661e-06
-1.07293e-05
1.33955e-06
-1.11887e-05
1.20736e-06
-1.16188e-05
1.05644e-06
-1.19937e-05
9.25248e-07
-1.22449e-05
-1.19806e-05
5.07489e-11
-7.61767e-11
-3.52963e-10
-7.27657e-10
-1.14399e-09
-1.54816e-09
-1.91217e-09
-2.22243e-09
-2.46368e-09
-2.62004e-09
-2.6823e-09
1.0228e-08
-2.63666e-09
-2.4597e-08
-2.47149e-09
-6.39988e-08
-2.1772e-09
-1.07313e-07
-1.7447e-09
-1.53866e-07
-1.16375e-09
-2.02992e-07
-4.27038e-10
-2.5404e-07
4.67776e-10
-3.06364e-07
1.51816e-09
-3.59325e-07
2.71889e-09
-4.12296e-07
4.06373e-09
-4.64663e-07
5.54725e-09
-5.15842e-07
7.16542e-09
-5.65278e-07
8.91332e-09
-6.12457e-07
1.07855e-08
-6.56909e-07
1.27735e-08
-6.98208e-07
1.48678e-08
-7.35982e-07
1.70561e-08
-7.6991e-07
1.93259e-08
-7.99726e-07
2.16553e-08
-8.2522e-07
2.4056e-08
-8.46304e-07
2.65014e-08
-8.62851e-07
2.89812e-08
-8.74933e-07
3.14955e-08
-8.82557e-07
3.3995e-08
-8.85965e-07
3.65563e-08
-8.85349e-07
3.89961e-08
-8.81021e-07
4.15525e-08
-8.734e-07
4.38772e-08
-8.62835e-07
4.63377e-08
-8.49879e-07
4.8564e-08
-8.35064e-07
5.07857e-08
-8.18779e-07
5.301e-08
-8.02066e-07
5.4847e-08
-7.84766e-07
5.71278e-08
-7.68596e-07
5.8591e-08
-7.53047e-07
6.07368e-08
-7.3951e-07
6.22461e-08
-7.29163e-07
6.36216e-08
-7.19745e-07
6.59818e-08
-7.18238e-07
6.66409e-08
-7.15162e-07
6.90584e-08
-7.23481e-07
7.15056e-08
-7.31522e-07
7.35935e-08
-7.49327e-07
7.49504e-08
-7.68016e-07
7.70169e-08
-7.99494e-07
7.97806e-08
-8.35972e-07
8.29607e-08
-8.79253e-07
8.61021e-08
-9.29603e-07
8.88989e-08
-9.87101e-07
9.14299e-08
-1.05208e-06
9.40645e-08
-1.12479e-06
9.72026e-08
-1.20514e-06
1.01088e-07
-1.29281e-06
1.05749e-07
-1.38739e-06
1.11048e-07
-1.4885e-06
1.16782e-07
-1.59578e-06
1.22779e-07
-1.7089e-06
1.2895e-07
-1.82755e-06
1.35298e-07
-1.95139e-06
1.41885e-07
-2.08004e-06
1.48808e-07
-2.21314e-06
1.56169e-07
-2.35029e-06
1.64058e-07
-2.49112e-06
1.72547e-07
-2.6353e-06
1.81681e-07
-2.78252e-06
1.91483e-07
-2.93251e-06
2.01955e-07
-3.08506e-06
2.13093e-07
-3.24004e-06
2.24889e-07
-3.39736e-06
2.3734e-07
-3.55703e-06
2.50462e-07
-3.71914e-06
2.64284e-07
-3.88388e-06
2.78852e-07
-4.05153e-06
2.94223e-07
-4.22245e-06
3.10509e-07
-4.39718e-06
3.27825e-07
-4.57628e-06
3.46219e-07
-4.76036e-06
3.65811e-07
-4.95029e-06
3.86708e-07
-5.14705e-06
4.09025e-07
-5.3517e-06
4.32876e-07
-5.56548e-06
4.58367e-07
-5.78971e-06
4.856e-07
-6.02587e-06
5.14624e-07
-6.27552e-06
5.45374e-07
-6.54028e-06
5.7775e-07
-6.82182e-06
6.11553e-07
-7.12181e-06
6.46409e-07
-7.44178e-06
6.81701e-07
-7.78309e-06
7.16467e-07
-8.14663e-06
7.49317e-07
-8.5327e-06
7.78266e-07
-8.94058e-06
8.00613e-07
-9.36806e-06
8.13333e-07
-9.81087e-06
8.14292e-07
-1.02624e-05
7.98094e-07
-1.07131e-05
7.58967e-07
-1.11496e-05
6.92811e-07
-1.15526e-05
5.97962e-07
-1.18989e-05
6.39024e-07
-1.22859e-05
-1.13416e-05
-1.02266e-09
-1.05003e-09
-1.03278e-09
-9.52721e-10
-7.98809e-10
-5.73055e-10
-2.83829e-10
5.89725e-11
4.48075e-10
8.78165e-10
1.34752e-09
1.85553e-09
2.40165e-09
2.98425e-09
3.60043e-09
4.2466e-09
4.91976e-09
5.6131e-09
6.32757e-09
7.05693e-09
7.78488e-09
8.57226e-09
9.31395e-09
1.01324e-08
1.08746e-08
1.16774e-08
1.24377e-08
1.32005e-08
1.39625e-08
1.47095e-08
1.53735e-08
1.61669e-08
1.66429e-08
1.74221e-08
1.78867e-08
1.82123e-08
1.92269e-08
1.84526e-08
2.02656e-08
1.88867e-08
1.96846e-08
2.06411e-08
1.92536e-08
2.12185e-08
2.34203e-08
2.42645e-08
2.40548e-08
2.35736e-08
2.35493e-08
2.45413e-08
2.65552e-08
2.91356e-08
3.17685e-08
3.41559e-08
3.62138e-08
3.79552e-08
3.93944e-08
4.05441e-08
4.1435e-08
4.21427e-08
4.27807e-08
4.34849e-08
4.43813e-08
4.55707e-08
4.71172e-08
4.90525e-08
5.13729e-08
5.407e-08
5.71192e-08
6.049e-08
6.41367e-08
6.80089e-08
7.20382e-08
7.61591e-08
8.02782e-08
8.44376e-08
8.8732e-08
9.29505e-08
9.72255e-08
1.01624e-07
1.06208e-07
1.11058e-07
1.16241e-07
1.21818e-07
1.27808e-07
1.34168e-07
1.40881e-07
1.47905e-07
1.55131e-07
1.62384e-07
1.69394e-07
1.75818e-07
1.81227e-07
1.85237e-07
1.8831e-07
1.91307e-07
1.95691e-07
2.02409e-07
2.0722e-07
1.63128e-07
-1.02639e-07
-9.18191e-10
9.19339e-10
-3.15058e-09
2.23364e-09
-5.94882e-09
2.79955e-09
-8.56868e-09
2.62128e-09
-1.15616e-08
2.99443e-09
-1.38708e-08
2.31053e-09
-1.53008e-08
1.43124e-09
-1.5839e-08
5.38715e-10
-1.43278e-08
-1.5104e-09
-1.05936e-08
-3.73354e-09
-4.42865e-09
-6.16333e-09
4.38661e-09
-8.81581e-09
1.59611e-08
-1.15752e-08
3.05748e-08
-1.46133e-08
4.85772e-08
-1.79993e-08
7.01501e-08
-2.1572e-08
9.53313e-08
-2.51803e-08
1.24756e-07
-2.9423e-08
1.57961e-07
-3.32011e-08
1.94541e-07
-3.65796e-08
2.3415e-07
-3.9609e-08
2.76551e-07
-4.23998e-08
3.21414e-07
-4.48603e-08
3.67467e-07
-4.60528e-08
4.14456e-07
-4.6989e-08
4.61757e-07
-4.73003e-08
5.08762e-07
-4.70015e-08
5.55405e-07
-4.66414e-08
5.99783e-07
-4.43773e-08
6.40989e-07
-4.12043e-08
6.78406e-07
-3.74127e-08
7.12708e-07
-3.43013e-08
7.44044e-07
-3.13358e-08
7.72633e-07
-2.85869e-08
7.99067e-07
-2.64291e-08
8.24218e-07
-2.51494e-08
8.49167e-07
-2.49476e-08
8.75152e-07
-2.59824e-08
9.03529e-07
-2.83722e-08
9.35588e-07
-3.20576e-08
9.72187e-07
-3.6598e-08
1.01391e-06
-4.17253e-08
1.06122e-06
-4.73072e-08
1.1142e-06
-5.29732e-08
1.17208e-06
-5.78781e-08
1.23489e-06
-6.28076e-08
1.3022e-06
-6.73145e-08
1.37245e-06
-7.0238e-08
1.44273e-06
-7.02811e-08
1.51263e-06
-6.98959e-08
1.58132e-06
-6.86829e-08
1.64761e-06
-6.62879e-08
1.71107e-06
-6.34569e-08
1.77149e-06
-6.04111e-08
1.82941e-06
-5.79186e-08
1.88531e-06
-5.58987e-08
1.94062e-06
-5.52983e-08
1.99542e-06
-5.47924e-08
2.05337e-06
-5.795e-08
2.11443e-06
-6.10393e-08
2.17879e-06
-6.43459e-08
2.24873e-06
-6.9929e-08
2.32324e-06
-7.45147e-08
2.40444e-06
-8.11902e-08
2.49798e-06
-9.35203e-08
2.59271e-06
-9.4729e-08
2.70453e-06
-1.11829e-07
2.81643e-06
-1.11899e-07
2.92647e-06
-1.10035e-07
3.03216e-06
-1.05696e-07
3.13053e-06
-9.83933e-08
3.23703e-06
-1.06506e-07
3.33085e-06
-9.38349e-08
3.43855e-06
-1.07711e-07
3.5473e-06
-1.08769e-07
3.65823e-06
-1.10926e-07
3.77249e-06
-1.14241e-07
3.89032e-06
-1.17818e-07
4.01131e-06
-1.20995e-07
4.13571e-06
-1.24385e-07
4.26271e-06
-1.26983e-07
4.39178e-06
-1.29052e-07
4.52231e-06
-1.30545e-07
4.65379e-06
-1.31461e-07
4.78559e-06
-1.31774e-07
4.9172e-06
-1.31597e-07
5.04814e-06
-1.30954e-07
5.17803e-06
-1.29847e-07
5.3063e-06
-1.28236e-07
5.4325e-06
-1.26179e-07
5.55619e-06
-1.23706e-07
5.67687e-06
-1.20669e-07
5.79395e-06
-1.17062e-07
5.90696e-06
-1.13007e-07
6.01586e-06
-1.08948e-07
6.12168e-06
-1.05831e-07
6.22392e-06
-1.02256e-07
6.32201e-06
-9.81074e-08
6.41657e-06
-9.46194e-08
6.50739e-06
-9.08468e-08
6.59306e-06
-8.56806e-08
6.67237e-06
-7.93274e-08
6.74432e-06
-7.19918e-08
6.80814e-06
-6.38249e-08
6.86295e-06
-5.47933e-08
6.90824e-06
-4.52734e-08
6.94363e-06
-3.54114e-08
6.96837e-06
-2.47265e-08
6.98226e-06
-1.38652e-08
6.98714e-06
-4.88602e-09
6.98301e-06
4.09901e-09
1.11958e-08
6.9718e-06
-6.21071e-10
1.54143e-09
-2.87951e-09
4.4932e-09
-6.29013e-09
6.21136e-09
-9.5069e-09
5.83918e-09
-1.24724e-08
5.96149e-09
-1.4884e-08
4.72367e-09
-1.67616e-08
3.31004e-09
-1.75707e-08
1.34858e-09
-1.71666e-08
-1.91329e-09
-1.50236e-08
-5.87506e-09
-1.11785e-08
-1.00077e-08
-5.48785e-09
-1.45067e-08
1.96765e-09
-1.90303e-08
1.19799e-08
-2.4624e-08
2.47261e-08
-3.07441e-08
4.0221e-08
-3.70662e-08
5.7635e-08
-4.25927e-08
7.94322e-08
-5.1218e-08
1.04204e-07
-5.79714e-08
1.32096e-07
-6.44707e-08
1.62844e-07
-7.03561e-08
1.96787e-07
-7.6341e-08
2.34265e-07
-8.23372e-08
2.72583e-07
-8.43711e-08
3.13413e-07
-8.78182e-08
3.56163e-07
-9.00487e-08
3.99582e-07
-9.04186e-08
4.46792e-07
-9.38511e-08
4.91826e-07
-8.941e-08
5.37101e-07
-8.64766e-08
5.83545e-07
-8.3854e-08
6.30093e-07
-8.08492e-08
6.76549e-07
-7.77904e-08
7.22949e-07
-7.4984e-08
7.69201e-07
-7.26787e-08
8.15192e-07
-7.1139e-08
8.60904e-07
-7.06575e-08
9.06481e-07
-7.1557e-08
9.52836e-07
-7.47252e-08
9.99611e-07
-7.88314e-08
1.04617e-06
-8.3154e-08
1.09307e-06
-8.86303e-08
1.14071e-06
-9.49375e-08
1.18933e-06
-1.01594e-07
1.23988e-06
-1.08426e-07
1.29163e-06
-1.14556e-07
1.34426e-06
-1.19948e-07
1.3985e-06
-1.24476e-07
1.45481e-06
-1.26582e-07
1.51345e-06
-1.28531e-07
1.57448e-06
-1.29713e-07
1.63786e-06
-1.29669e-07
1.7038e-06
-1.29394e-07
1.77264e-06
-1.29249e-07
1.84434e-06
-1.29619e-07
1.91903e-06
-1.30584e-07
1.99605e-06
-1.32314e-07
2.07542e-06
-1.34156e-07
2.16105e-06
-1.43577e-07
2.24917e-06
-1.49142e-07
2.34148e-06
-1.56648e-07
2.43925e-06
-1.67703e-07
2.54173e-06
-1.76982e-07
2.6484e-06
-1.87855e-07
2.75256e-06
-1.97677e-07
2.86458e-06
-2.06745e-07
2.96702e-06
-2.14273e-07
3.07936e-06
-2.24232e-07
3.1961e-06
-2.26773e-07
3.33241e-06
-2.42021e-07
3.46739e-06
-2.33373e-07
3.60908e-06
-2.48201e-07
3.75466e-06
-2.39434e-07
3.89755e-06
-2.50616e-07
4.04483e-06
-2.56053e-07
4.19459e-06
-2.60678e-07
4.34583e-06
-2.65479e-07
4.49836e-06
-2.70343e-07
4.65226e-06
-2.74889e-07
4.80686e-06
-2.7896e-07
4.96208e-06
-2.82197e-07
5.11763e-06
-2.84606e-07
5.27333e-06
-2.8624e-07
5.42907e-06
-2.87185e-07
5.58472e-06
-2.87416e-07
5.74013e-06
-2.87009e-07
5.89512e-06
-2.85931e-07
6.04948e-06
-2.8418e-07
6.20292e-06
-2.81659e-07
6.35495e-06
-2.78218e-07
6.50527e-06
-2.7402e-07
6.65308e-06
-2.68459e-07
6.79817e-06
-2.62153e-07
6.93929e-06
-2.54141e-07
7.07592e-06
-2.45594e-07
7.20997e-06
-2.39878e-07
7.34185e-06
-2.3415e-07
7.47171e-06
-2.27991e-07
7.59803e-06
-2.20968e-07
7.71823e-06
-2.11056e-07
7.83129e-06
-1.98761e-07
7.93676e-06
-1.84821e-07
8.03425e-06
-1.69503e-07
8.12342e-06
-1.52984e-07
8.20383e-06
-1.35201e-07
8.27495e-06
-1.16397e-07
8.33636e-06
-9.68246e-08
8.38834e-06
-7.66885e-08
8.43123e-06
-5.67541e-08
8.46301e-06
-3.66669e-08
8.48549e-06
-1.83842e-08
-1.65365e-09
8.49834e-06
-1.05651e-09
2.59885e-09
-2.94451e-09
6.3821e-09
-5.76305e-09
9.03074e-09
-9.54664e-09
9.62394e-09
-1.37151e-08
1.01312e-08
-1.78516e-08
8.86158e-09
-2.16774e-08
7.13719e-09
-2.41566e-08
3.82887e-09
-2.61585e-08
8.96384e-11
-2.59961e-08
-6.03626e-09
-2.57539e-08
-1.02489e-08
-2.33536e-08
-1.69067e-08
-1.83868e-08
-2.39965e-08
-1.10601e-08
-3.19496e-08
-1.69812e-09
-4.01045e-08
9.94316e-09
-4.87064e-08
2.36195e-08
-5.62679e-08
3.99194e-08
-6.75161e-08
5.77617e-08
-7.58122e-08
7.74246e-08
-8.41329e-08
9.73151e-08
-9.0246e-08
1.22219e-07
-1.01244e-07
1.48389e-07
-1.08506e-07
1.76826e-07
-1.12807e-07
2.06925e-07
-1.17917e-07
2.40911e-07
-1.24033e-07
2.77786e-07
-1.27293e-07
3.11875e-07
-1.27939e-07
3.47668e-07
-1.25202e-07
3.86329e-07
-1.25136e-07
4.27121e-07
-1.24644e-07
4.69502e-07
-1.23229e-07
5.13132e-07
-1.21418e-07
5.57748e-07
-1.19599e-07
6.03061e-07
-1.17989e-07
6.48624e-07
-1.16701e-07
6.93906e-07
-1.15938e-07
7.37324e-07
-1.14974e-07
7.82372e-07
-1.19771e-07
8.28237e-07
-1.24696e-07
8.71786e-07
-1.26702e-07
9.14219e-07
-1.31063e-07
9.55447e-07
-1.36166e-07
9.95527e-07
-1.41673e-07
1.03449e-06
-1.4739e-07
1.07303e-06
-1.53098e-07
1.11156e-06
-1.58475e-07
1.15014e-06
-1.63055e-07
1.19032e-06
-1.6675e-07
1.23181e-06
-1.70018e-07
1.27443e-06
-1.72335e-07
1.31871e-06
-1.73946e-07
1.36526e-06
-1.75944e-07
1.41455e-06
-1.78531e-07
1.46672e-06
-1.81791e-07
1.52198e-06
-1.85841e-07
1.58049e-06
-1.90817e-07
1.64233e-06
-1.95998e-07
1.70799e-06
-2.09233e-07
1.77665e-06
-2.17796e-07
1.84932e-06
-2.29313e-07
1.9246e-06
-2.4297e-07
2.0043e-06
-2.5668e-07
2.08682e-06
-2.70372e-07
2.17259e-06
-2.83441e-07
2.26537e-06
-2.99526e-07
2.35976e-06
-3.08667e-07
2.45653e-06
-3.20992e-07
2.56089e-06
-3.31131e-07
2.67946e-06
-3.60597e-07
2.79167e-06
-3.45587e-07
2.90436e-06
-3.60899e-07
3.03329e-06
-3.6837e-07
3.16051e-06
-3.77842e-07
3.29159e-06
-3.87135e-07
3.42696e-06
-3.96047e-07
3.56618e-06
-4.04686e-07
3.70896e-06
-4.1312e-07
3.85515e-06
-4.21072e-07
4.00435e-06
-4.28148e-07
4.15624e-06
-4.34078e-07
4.31048e-06
-4.38844e-07
4.46676e-06
-4.4251e-07
4.62478e-06
-4.45209e-07
4.78429e-06
-4.46915e-07
4.94513e-06
-4.4785e-07
5.10691e-06
-4.47712e-07
5.26963e-06
-4.46886e-07
5.43264e-06
-4.44654e-07
5.59593e-06
-4.41512e-07
5.75859e-06
-4.36684e-07
5.91947e-06
-4.29331e-07
6.07817e-06
-4.20846e-07
6.23141e-06
-4.07392e-07
6.38093e-06
-3.95116e-07
6.52991e-06
-3.88858e-07
6.67829e-06
-3.82539e-07
6.82251e-06
-3.72218e-07
6.95981e-06
-3.58286e-07
7.09219e-06
-3.43455e-07
7.2205e-06
-3.27078e-07
7.34421e-06
-3.0855e-07
7.46252e-06
-2.87827e-07
7.57458e-06
-2.65044e-07
7.67959e-06
-2.40201e-07
7.77661e-06
-2.13416e-07
7.86465e-06
-1.84865e-07
7.94284e-06
-1.54876e-07
8.01015e-06
-1.24056e-07
8.0667e-06
-9.32173e-08
8.11155e-06
-6.32313e-08
-3.50068e-08
8.14491e-06
-8.36288e-10
3.43578e-09
-2.86462e-09
8.41109e-09
-5.93159e-09
1.20987e-08
-9.77317e-09
1.34663e-08
-1.38669e-08
1.4226e-08
-1.80689e-08
1.3065e-08
-2.20266e-08
1.10961e-08
-2.54655e-08
7.2687e-09
-2.81283e-08
2.75355e-09
-3.02475e-08
-3.91595e-09
-3.06762e-08
-9.81941e-09
-2.95728e-08
-1.80093e-08
-2.68282e-08
-2.67402e-08
-2.26911e-08
-3.60853e-08
-1.6564e-08
-4.62304e-08
-8.97049e-09
-5.62988e-08
2.24579e-09
-6.74829e-08
1.33732e-08
-7.86422e-08
2.69116e-08
-8.93495e-08
4.44101e-08
-1.01631e-07
6.34495e-08
-1.09284e-07
8.47008e-08
-1.22494e-07
1.07378e-07
-1.31182e-07
1.33124e-07
-1.38552e-07
1.61537e-07
-1.46329e-07
1.86017e-07
-1.48511e-07
2.11624e-07
-1.52898e-07
2.45687e-07
-1.62001e-07
2.86606e-07
-1.66119e-07
3.28412e-07
-1.6694e-07
3.7085e-07
-1.67081e-07
4.14274e-07
-1.66652e-07
4.58404e-07
-1.65546e-07
5.02999e-07
-1.64192e-07
5.47695e-07
-1.62683e-07
5.92168e-07
-1.61171e-07
6.36277e-07
-1.60046e-07
6.79557e-07
-1.58251e-07
7.22101e-07
-1.62314e-07
7.62859e-07
-1.65453e-07
8.01119e-07
-1.64962e-07
8.3738e-07
-1.67323e-07
8.72094e-07
-1.7088e-07
9.05293e-07
-1.74871e-07
9.36833e-07
-1.78929e-07
9.67048e-07
-1.83311e-07
9.96624e-07
-1.88048e-07
1.0253e-06
-1.91732e-07
1.05579e-06
-1.97234e-07
1.08642e-06
-2.00646e-07
1.11552e-06
-2.0143e-07
1.14581e-06
-2.0423e-07
1.17838e-06
-2.08512e-07
1.21324e-06
-2.13393e-07
1.2505e-06
-2.1905e-07
1.29047e-06
-2.25813e-07
1.3336e-06
-2.33937e-07
1.38125e-06
-2.43649e-07
1.4283e-06
-2.56282e-07
1.4799e-06
-2.69392e-07
1.53399e-06
-2.83394e-07
1.58943e-06
-2.98409e-07
1.64723e-06
-3.14485e-07
1.70832e-06
-3.3145e-07
1.77456e-06
-3.49677e-07
1.84242e-06
-3.67388e-07
1.91683e-06
-3.83074e-07
1.99665e-06
-4.00807e-07
2.08279e-06
-4.17263e-07
2.15532e-06
-4.33133e-07
2.25051e-06
-4.40773e-07
2.34519e-06
-4.55587e-07
2.44861e-06
-4.71796e-07
2.55686e-06
-4.86096e-07
2.66899e-06
-4.99258e-07
2.78489e-06
-5.1194e-07
2.90458e-06
-5.24365e-07
3.02802e-06
-5.36557e-07
3.15533e-06
-5.48364e-07
3.28664e-06
-5.59442e-07
3.42201e-06
-5.6944e-07
3.56135e-06
-5.78184e-07
3.70449e-06
-5.85648e-07
3.85128e-06
-5.92001e-07
4.00141e-06
-5.97043e-07
4.15513e-06
-6.01572e-07
4.31134e-06
-6.03911e-07
4.47177e-06
-6.0731e-07
4.63292e-06
-6.05803e-07
4.79989e-06
-6.08483e-07
4.96534e-06
-6.02143e-07
5.13613e-06
-6.00114e-07
5.30117e-06
-5.85893e-07
5.45626e-06
-5.62488e-07
5.63011e-06
-5.68958e-07
5.81138e-06
-5.70125e-07
5.99093e-06
-5.62092e-07
6.16813e-06
-5.49428e-07
6.3437e-06
-5.33859e-07
6.51568e-06
-5.15445e-07
6.68269e-06
-4.94099e-07
6.84379e-06
-4.69661e-07
6.99803e-06
-4.4207e-07
7.14429e-06
-4.11307e-07
7.28144e-06
-3.77359e-07
7.4084e-06
-3.4037e-07
7.52418e-06
-3.00642e-07
7.62796e-06
-2.58655e-07
7.719e-06
-2.15091e-07
7.7966e-06
-1.70816e-07
7.86011e-06
-1.26734e-07
-8.37963e-08
7.9089e-06
-8.61509e-10
4.29804e-09
-2.96445e-09
1.05149e-08
-5.98085e-09
1.51157e-08
-9.86181e-09
1.73483e-08
-1.38673e-08
1.82326e-08
-1.81886e-08
1.73873e-08
-2.20111e-08
1.49198e-08
-2.57054e-08
1.0964e-08
-2.82792e-08
5.32846e-09
-3.07537e-08
-1.44056e-09
-3.10356e-08
-9.53652e-09
-3.04968e-08
-1.85472e-08
-2.81027e-08
-2.91332e-08
-2.40426e-08
-4.01444e-08
-1.79385e-08
-5.23333e-08
-9.80153e-09
-6.44347e-08
-1.12118e-10
-7.71713e-08
1.15727e-08
-9.0326e-08
2.52014e-08
-1.02977e-07
3.94059e-08
-1.15834e-07
5.79412e-08
-1.27819e-07
7.60854e-08
-1.40637e-07
9.66914e-08
-1.51787e-07
1.19897e-07
-1.61757e-07
1.44243e-07
-1.70674e-07
1.74434e-07
-1.78701e-07
2.06878e-07
-1.85342e-07
2.36755e-07
-1.91876e-07
2.68647e-07
-1.98009e-07
3.03626e-07
-2.01918e-07
3.40693e-07
-2.04146e-07
3.79537e-07
-2.05494e-07
4.20144e-07
-2.06151e-07
4.62037e-07
-2.06084e-07
5.04856e-07
-2.055e-07
5.48462e-07
-2.04776e-07
5.92401e-07
-2.03984e-07
6.37637e-07
-2.03486e-07
6.79557e-07
-2.04234e-07
7.18833e-07
-2.04728e-07
7.58635e-07
-2.04764e-07
7.9677e-07
-2.05458e-07
8.32958e-07
-2.07067e-07
8.66736e-07
-2.08649e-07
8.98857e-07
-2.11049e-07
9.29197e-07
-2.13649e-07
9.57367e-07
-2.16215e-07
9.84108e-07
-2.1847e-07
1.00719e-06
-2.20308e-07
1.03002e-06
-2.23474e-07
1.05854e-06
-2.29945e-07
1.08939e-06
-2.35084e-07
1.12077e-06
-2.39882e-07
1.15301e-06
-2.4563e-07
1.18657e-06
-2.52611e-07
1.22163e-06
-2.60873e-07
1.25841e-06
-2.70717e-07
1.2971e-06
-2.82332e-07
1.33796e-06
-2.97146e-07
1.38081e-06
-3.12238e-07
1.42346e-06
-3.26042e-07
1.46714e-06
-3.42085e-07
1.51371e-06
-3.61059e-07
1.56438e-06
-3.82113e-07
1.61998e-06
-4.05279e-07
1.67604e-06
-4.23439e-07
1.73762e-06
-4.44652e-07
1.803e-06
-4.66181e-07
1.86781e-06
-4.82065e-07
1.93506e-06
-5.00382e-07
2.01531e-06
-5.21019e-07
2.10076e-06
-5.41039e-07
2.18929e-06
-5.60327e-07
2.28202e-06
-5.78828e-07
2.37985e-06
-5.97081e-07
2.48299e-06
-6.15075e-07
2.5914e-06
-6.32764e-07
2.70504e-06
-6.50179e-07
2.82386e-06
-6.67169e-07
2.94782e-06
-6.83396e-07
3.07694e-06
-6.98546e-07
3.2112e-06
-7.12438e-07
3.35059e-06
-7.25036e-07
3.49484e-06
-7.36253e-07
3.6442e-06
-7.46398e-07
3.79736e-06
-7.54726e-07
3.95632e-06
-7.62873e-07
4.11648e-06
-7.67473e-07
4.28492e-06
-7.74247e-07
4.45054e-06
-7.74105e-07
4.62808e-06
-7.79691e-07
4.80609e-06
-7.78131e-07
5.00554e-06
-7.85342e-07
5.24234e-06
-7.99283e-07
5.45519e-06
-7.81799e-07
5.64985e-06
-7.6478e-07
5.83884e-06
-7.5108e-07
6.02551e-06
-7.361e-07
6.20905e-06
-7.1741e-07
6.38832e-06
-6.94713e-07
6.56251e-06
-6.68297e-07
6.73094e-06
-6.38102e-07
6.89266e-06
-6.03795e-07
7.04646e-06
-5.65112e-07
7.19112e-06
-5.22023e-07
7.3255e-06
-4.74753e-07
7.44856e-06
-4.237e-07
7.5593e-06
-3.69389e-07
7.65669e-06
-3.12479e-07
7.73964e-06
-2.53761e-07
7.80709e-06
-1.94181e-07
-1.34874e-07
7.85817e-06
-7.85254e-10
5.08386e-09
-2.9804e-09
1.27106e-08
-5.96444e-09
1.81008e-08
-9.81274e-09
2.11973e-08
-1.39586e-08
2.23793e-08
-1.8223e-08
2.1653e-08
-2.22992e-08
1.89972e-08
-2.58963e-08
1.45622e-08
-2.88288e-08
8.26191e-09
-3.07993e-08
5.30913e-10
-3.14105e-08
-8.92429e-09
-3.0527e-08
-1.94297e-08
-2.8216e-08
-3.14432e-08
-2.41283e-08
-4.4231e-08
-1.85273e-08
-5.79333e-08
-1.07486e-08
-7.22125e-08
-1.12916e-09
-8.67897e-08
1.0386e-08
-1.0184e-07
2.41444e-08
-1.16735e-07
3.99726e-08
-1.31661e-07
5.82719e-08
-1.46117e-07
7.77915e-08
-1.60156e-07
9.93915e-08
-1.73386e-07
1.23277e-07
-1.85641e-07
1.49345e-07
-1.96742e-07
1.77234e-07
-2.06588e-07
2.07174e-07
-2.1528e-07
2.38549e-07
-2.23251e-07
2.71018e-07
-2.30476e-07
3.05135e-07
-2.36034e-07
3.40879e-07
-2.39888e-07
3.77937e-07
-2.4255e-07
4.16097e-07
-2.4431e-07
4.55269e-07
-2.45254e-07
4.95258e-07
-2.45488e-07
5.3573e-07
-2.45246e-07
5.76477e-07
-2.44729e-07
6.17079e-07
-2.44087e-07
6.56409e-07
-2.43563e-07
6.94819e-07
-2.43138e-07
7.32697e-07
-2.42641e-07
7.69482e-07
-2.42242e-07
8.0467e-07
-2.42255e-07
8.3851e-07
-2.42489e-07
8.70948e-07
-2.43485e-07
9.01551e-07
-2.4425e-07
9.30756e-07
-2.45417e-07
9.59222e-07
-2.46933e-07
9.87925e-07
-2.49007e-07
1.0158e-06
-2.51345e-07
1.04132e-06
-2.55457e-07
1.06675e-06
-2.60518e-07
1.09308e-06
-2.6621e-07
1.12028e-06
-2.72827e-07
1.14844e-06
-2.80762e-07
1.17776e-06
-2.90193e-07
1.2082e-06
-3.01149e-07
1.2397e-06
-3.13838e-07
1.26972e-06
-3.2716e-07
1.30094e-06
-3.43461e-07
1.33905e-06
-3.64151e-07
1.38282e-06
-3.85848e-07
1.42893e-06
-4.07172e-07
1.47496e-06
-4.28143e-07
1.51788e-06
-4.48193e-07
1.56889e-06