/*--------------------------------*- C++ -*----------------------------------*\
| =========                 |                                                 |
| \\      /  F ield         | OpenFOAM: The Open Source CFD Toolbox           |
|  \\    /   O peration     | Version:  2206                                  |
|   \\  /    A nd           | Website:  www.openfoam.com                      |
|    \\/     M anipulation  |                                                 |
\*---------------------------------------------------------------------------*/
FoamFile
{
    version     2.0;
    format      ascii;
    arch        "LSB;label=32;scalar=64";
    class       volVectorField;
    location    "18.3999";
    object      U_0;
}
// * * * * * * * * * * * * * * * * * * * * * * * * * * * * * * * * * * * * * //

dimensions      [0 1 -1 0 0 0 0];

internalField   nonuniform List<vector> 
4797
(
(1.58016 0.129732 0)
(1.58317 0.0922932 0)
(1.58573 0.0538217 0)
(1.58779 0.0153304 0)
(1.58927 -0.0224058 0)
(1.59012 -0.0587711 0)
(1.5903 -0.0932136 0)
(1.58976 -0.12526 0)
(1.58846 -0.154533 0)
(1.58638 -0.18075 0)
(1.58352 -0.203714 0)
(1.5799 -0.223313 0)
(1.57556 -0.239507 0)
(1.57057 -0.252312 0)
(1.56502 -0.261773 0)
(1.55903 -0.26795 0)
(1.55249 -0.270772 0)
(1.54556 -0.269977 0)
(1.53846 -0.265569 0)
(1.5313 -0.257603 0)
(1.5243 -0.246135 0)
(1.51766 -0.231253 0)
(1.51151 -0.213084 0)
(1.50599 -0.191811 0)
(1.5012 -0.16769 0)
(1.4972 -0.141055 0)
(1.49402 -0.112305 0)
(1.49168 -0.0818996 0)
(1.49016 -0.050348 0)
(1.48945 -0.0182441 0)
(1.4895 0.0137223 0)
(1.49026 0.045057 0)
(1.49167 0.0753248 0)
(1.49368 0.104108 0)
(1.49625 0.131034 0)
(1.49931 0.155754 0)
(1.50279 0.177963 0)
(1.50664 0.197407 0)
(1.51076 0.213898 0)
(1.51511 0.227304 0)
(1.5196 0.23756 0)
(1.52411 0.24467 0)
(1.52863 0.248695 0)
(1.53339 0.249325 0)
(1.53813 0.246026 0)
(1.54286 0.238789 0)
(1.54752 0.227743 0)
(1.55198 0.213098 0)
(1.55621 0.195127 0)
(1.56015 0.17415 0)
(1.56377 0.150535 0)
(1.56702 0.124693 0)
(1.56989 0.0970729 0)
(1.57234 0.0681712 0)
(1.57435 0.0385464 0)
(1.57588 0.00889052 0)
(1.57688 -0.0202634 0)
(1.57734 -0.0484863 0)
(1.57723 -0.0753815 0)
(1.57654 -0.100594 0)
(1.57525 -0.123823 0)
(1.57335 -0.144816 0)
(1.57087 -0.16337 0)
(1.56784 -0.179339 0)
(1.56429 -0.192627 0)
(1.56028 -0.203183 0)
(1.55592 -0.210995 0)
(1.5513 -0.216089 0)
(1.54631 -0.218388 0)
(1.54107 -0.217586 0)
(1.53573 -0.21364 0)
(1.53037 -0.206621 0)
(1.52515 -0.196627 0)
(1.5202 -0.183794 0)
(1.51561 -0.168297 0)
(1.51147 -0.150352 0)
(1.50785 -0.130223 0)
(1.50479 -0.108213 0)
(1.50232 -0.0846681 0)
(1.50046 -0.0599696 0)
(1.49922 -0.0345384 0)
(1.49858 -0.00886524 0)
(1.49853 0.0165532 0)
(1.49904 0.0413642 0)
(1.50007 0.0652318 0)
(1.50161 0.0878359 0)
(1.50362 0.108879 0)
(1.50604 0.128095 0)
(1.50885 0.145258 0)
(1.51198 0.160183 0)
(1.51539 0.172716 0)
(1.51902 0.182766 0)
(1.52279 0.190303 0)
(1.52664 0.195344 0)
(1.53059 0.197863 0)
(1.53475 0.197495 0)
(1.53891 0.194008 0)
(1.5431 0.187459 0)
(1.54722 0.177975 0)
(1.55118 0.165745 0)
(1.55493 0.150999 0)
(1.55843 0.134 0)
(1.56164 0.115044 0)
(1.56451 0.0944554 0)
(1.56703 0.0725811 0)
(1.56916 0.0497988 0)
(1.57088 0.0265386 0)
(1.57215 0.00331212 0)
(1.57295 -0.0195055 0)
(1.57327 -0.0415949 0)
(1.57309 -0.0626569 0)
(1.57241 -0.0824214 0)
(1.57123 -0.100647 0)
(1.56955 -0.117134 0)
(1.56739 -0.131709 0)
(1.56479 -0.144238 0)
(1.56178 -0.154629 0)
(1.55843 -0.16283 0)
(1.55481 -0.168822 0)
(1.55099 -0.172606 0)
(1.54687 -0.174068 0)
(1.54256 -0.172949 0)
(1.53816 -0.16924 0)
(1.53374 -0.163003 0)
(1.52941 -0.154337 0)
(1.52528 -0.143373 0)
(1.52142 -0.130276 0)
(1.51788 -0.115237 0)
(1.51473 -0.0984976 0)
(1.51199 -0.0802792 0)
(1.50971 -0.0609368 0)
(1.50789 -0.0406715 0)
(1.50654 -0.0197258 0)
(1.50561 0.000523955 0)
(1.50527 0.0228609 0)
(1.50512 0.0401215 0)
(1.50617 0.069018 0)
(1.60344 0.125782 0)
(1.60701 0.0889031 0)
(1.60998 0.0510607 0)
(1.61226 0.0132734 0)
(1.61379 -0.0237032 0)
(1.61455 -0.0592539 0)
(1.61447 -0.0928323 0)
(1.61354 -0.123979 0)
(1.61172 -0.152328 0)
(1.60903 -0.177614 0)
(1.60547 -0.199668 0)
(1.60107 -0.2184 0)
(1.5959 -0.233792 0)
(1.59002 -0.245879 0)
(1.58354 -0.25472 0)
(1.57652 -0.260343 0)
(1.56891 -0.262645 0)
(1.56094 -0.261491 0)
(1.55276 -0.25695 0)
(1.54455 -0.249074 0)
(1.53653 -0.237911 0)
(1.52889 -0.223527 0)
(1.52179 -0.206023 0)
(1.51539 -0.18555 0)
(1.5098 -0.16233 0)
(1.5051 -0.136661 0)
(1.50134 -0.10891 0)
(1.49853 -0.0795101 0)
(1.49669 -0.0489497 0)
(1.49577 -0.0177966 0)
(1.49573 0.0132804 0)
(1.49652 0.0437831 0)
(1.49809 0.0732795 0)
(1.50037 0.101355 0)
(1.5033 0.127641 0)
(1.50682 0.151795 0)
(1.51086 0.173518 0)
(1.51533 0.19256 0)
(1.52016 0.208734 0)
(1.52527 0.22191 0)
(1.53058 0.232018 0)
(1.53597 0.239046 0)
(1.54144 0.242985 0)
(1.54716 0.243488 0)
(1.55285 0.240153 0)
(1.55853 0.232992 0)
(1.56411 0.22212 0)
(1.56947 0.207732 0)
(1.57455 0.190085 0)
(1.57929 0.16949 0)
(1.58362 0.146305 0)
(1.58751 0.120934 0)
(1.59092 0.0938203 0)
(1.59381 0.065458 0)
(1.59615 0.0364154 0)
(1.59789 0.0073863 0)
(1.599 -0.0211113 0)
(1.59945 -0.0486496 0)
(1.59922 -0.0748379 0)
(1.59831 -0.0993312 0)
(1.5967 -0.121835 0)
(1.59439 -0.142115 0)
(1.59143 -0.159986 0)
(1.58784 -0.175317 0)
(1.58367 -0.18803 0)
(1.57899 -0.19809 0)
(1.5739 -0.205491 0)
(1.56846 -0.210229 0)
(1.56261 -0.212183 0)
(1.55651 -0.21114 0)
(1.55028 -0.207123 0)
(1.54404 -0.200194 0)
(1.53797 -0.190442 0)
(1.53218 -0.177986 0)
(1.5268 -0.162979 0)
(1.52193 -0.145616 0)
(1.51765 -0.126137 0)
(1.51402 -0.104827 0)
(1.51108 -0.0820101 0)
(1.50884 -0.0580523 0)
(1.50732 -0.0333594 0)
(1.50651 -0.00840717 0)
(1.50638 0.0163159 0)
(1.50691 0.0404595 0)
(1.50806 0.0636938 0)
(1.50981 0.0857052 0)
(1.51211 0.106203 0)
(1.51491 0.124927 0)
(1.51817 0.141654 0)
(1.52182 0.156203 0)
(1.5258 0.168434 0)
(1.53005 0.17825 0)
(1.53449 0.185617 0)
(1.53905 0.19053 0)
(1.54378 0.192907 0)
(1.5487 0.192403 0)
(1.55363 0.188875 0)
(1.55857 0.18238 0)
(1.56342 0.173039 0)
(1.5681 0.161026 0)
(1.57253 0.146562 0)
(1.57666 0.129901 0)
(1.58044 0.11133 0)
(1.58382 0.0911662 0)
(1.58678 0.0697511 0)
(1.58928 0.0474589 0)
(1.59128 0.0247258 0)
(1.59275 0.00205888 0)
(1.59367 -0.0201785 0)
(1.59402 -0.0416704 0)
(1.59379 -0.0621244 0)
(1.59297 -0.0812777 0)
(1.59158 -0.0989002 0)
(1.58961 -0.114798 0)
(1.58709 -0.128818 0)
(1.58407 -0.140841 0)
(1.58059 -0.150782 0)
(1.57671 -0.158599 0)
(1.57251 -0.164274 0)
(1.56803 -0.16778 0)
(1.56321 -0.168965 0)
(1.55821 -0.167657 0)
(1.55309 -0.163885 0)
(1.54796 -0.157707 0)
(1.54295 -0.149212 0)
(1.53814 -0.138519 0)
(1.53363 -0.12578 0)
(1.5295 -0.11117 0)
(1.52581 -0.0949148 0)
(1.52261 -0.0772288 0)
(1.51993 -0.0584283 0)
(1.5178 -0.0387778 0)
(1.51625 -0.0183378 0)
(1.51519 0.0013184 0)
(1.51482 0.0230062 0)
(1.51467 0.0397906 0)
(1.516 0.0679256 0)
(1.62841 0.121121 0)
(1.63253 0.0849833 0)
(1.63587 0.047961 0)
(1.63835 0.0110722 0)
(1.63991 -0.0249574 0)
(1.64052 -0.0595175 0)
(1.64015 -0.0920699 0)
(1.63878 -0.12217 0)
(1.63641 -0.149471 0)
(1.63307 -0.173725 0)
(1.62877 -0.194781 0)
(1.62359 -0.212576 0)
(1.61757 -0.227111 0)
(1.61082 -0.238427 0)
(1.60342 -0.246583 0)
(1.59539 -0.251585 0)
(1.58677 -0.253342 0)
(1.5778 -0.251838 0)
(1.5686 -0.247171 0)
(1.55939 -0.239399 0)
(1.55038 -0.228567 0)
(1.54177 -0.214727 0)
(1.53376 -0.197952 0)
(1.5265 -0.178363 0)
(1.52012 -0.156146 0)
(1.51473 -0.13156 0)
(1.51039 -0.104937 0)
(1.50712 -0.0766792 0)
(1.50494 -0.0472487 0)
(1.50381 -0.0171822 0)
(1.50369 0.0128713 0)
(1.50452 0.0424096 0)
(1.50623 0.0710073 0)
(1.50877 0.0982564 0)
(1.51206 0.123789 0)
(1.51603 0.147275 0)
(1.52061 0.168416 0)
(1.5257 0.18697 0)
(1.53122 0.20275 0)
(1.53709 0.215627 0)
(1.54321 0.225525 0)
(1.54947 0.232409 0)
(1.55589 0.236209 0)
(1.56255 0.236576 0)
(1.56919 0.233216 0)
(1.57582 0.226147 0)
(1.58231 0.215477 0)
(1.58857 0.201387 0)
(1.59449 0.184123 0)
(1.60001 0.163983 0)
(1.60506 0.141316 0)
(1.60958 0.116515 0)
(1.61353 0.0900186 0)
(1.61685 0.0623147 0)
(1.61951 0.0339826 0)
(1.62145 0.00571044 0)
(1.62265 -0.0220015 0)
(1.62307 -0.0487296 0)
(1.6227 -0.0740911 0)
(1.62155 -0.0977514 0)
(1.6196 -0.11943 0)
(1.61688 -0.138904 0)
(1.61342 -0.156009 0)
(1.60927 -0.170634 0)
(1.60449 -0.182709 0)
(1.59915 -0.192212 0)
(1.59334 -0.199137 0)
(1.58711 -0.203454 0)
(1.58044 -0.205026 0)
(1.57351 -0.203738 0)
(1.56644 -0.199648 0)
(1.55937 -0.192816 0)
(1.55247 -0.183322 0)
(1.54588 -0.171274 0)
(1.53973 -0.156808 0)
(1.53414 -0.140095 0)
(1.52921 -0.121352 0)
(1.525 -0.100839 0)
(1.52157 -0.0788605 0)
(1.51895 -0.0557593 0)
(1.51715 -0.0319235 0)
(1.51615 -0.00780879 0)
(1.51594 0.0161049 0)
(1.51649 0.039474 0)
(1.51776 0.0619714 0)
(1.51971 0.0832925 0)
(1.5223 0.103153 0)
(1.52547 0.121299 0)
(1.52916 0.137514 0)
(1.53331 0.151621 0)
(1.53785 0.163486 0)
(1.54271 0.173016 0)
(1.5478 0.180161 0)
(1.55306 0.184897 0)
(1.55855 0.187095 0)
(1.56421 0.186456 0)
(1.5699 0.182896 0)
(1.57558 0.176472 0)
(1.58116 0.167297 0)
(1.58652 0.155536 0)
(1.59162 0.1414 0)
(1.59637 0.125132 0)
(1.60071 0.107012 0)
(1.6046 0.0873462 0)
(1.60799 0.0664727 0)
(1.61085 0.044759 0)
(1.61314 0.0226474 0)
(1.6148 0.000638172 0)
(1.61583 -0.0209236 0)
(1.6162 -0.0417249 0)
(1.61591 -0.0614787 0)
(1.61496 -0.0799331 0)
(1.61335 -0.0968685 0)
(1.6111 -0.112104 0)
(1.60824 -0.125497 0)
(1.60481 -0.136944 0)
(1.60087 -0.146377 0)
(1.59649 -0.153754 0)
(1.59174 -0.159048 0)
(1.58663 -0.162208 0)
(1.58115 -0.163082 0)
(1.57548 -0.161578 0)
(1.56968 -0.157741 0)
(1.56388 -0.151628 0)
(1.55819 -0.14332 0)
(1.55272 -0.132928 0)
(1.54759 -0.120589 0)
(1.54287 -0.106467 0)
(1.53865 -0.0907637 0)
(1.53498 -0.0736933 0)
(1.5319 -0.0555203 0)
(1.52945 -0.0365828 0)
(1.52767 -0.0167661 0)
(1.52648 0.00221616 0)
(1.52608 0.0231445 0)
(1.5259 0.0393611 0)
(1.52749 0.0665962 0)
(1.65458 0.115767 0)
(1.65922 0.0805607 0)
(1.6629 0.0445591 0)
(1.66554 0.00876795 0)
(1.66709 -0.0261205 0)
(1.66752 -0.0595068 0)
(1.66682 -0.0908702 0)
(1.66499 -0.119781 0)
(1.66204 -0.145914 0)
(1.65802 -0.169041 0)
(1.65298 -0.189033 0)
(1.64699 -0.205836 0)
(1.64015 -0.219466 0)
(1.63253 -0.229971 0)
(1.62422 -0.237396 0)
(1.61524 -0.24173 0)
(1.60569 -0.242934 0)
(1.59577 -0.241086 0)
(1.58563 -0.236299 0)
(1.57548 -0.228638 0)
(1.56554 -0.218153 0)
(1.55602 -0.204885 0)
(1.54712 -0.18889 0)
(1.53902 -0.170257 0)
(1.53187 -0.149135 0)
(1.5258 -0.125744 0)
(1.52088 -0.100377 0)
(1.51715 -0.0733993 0)
(1.51462 -0.0452411 0)
(1.51328 -0.0164016 0)
(1.51307 0.0124929 0)
(1.51392 0.0409362 0)
(1.51578 0.0685096 0)
(1.51857 0.0948147 0)
(1.52221 0.119485 0)
(1.52663 0.142199 0)
(1.53173 0.162667 0)
(1.53744 0.180648 0)
(1.54364 0.195958 0)
(1.55025 0.208467 0)
(1.55717 0.21809 0)
(1.5643 0.224768 0)
(1.57163 0.228381 0)
(1.57922 0.228602 0)
(1.5868 0.225223 0)
(1.59435 0.218265 0)
(1.60176 0.207825 0)
(1.60888 0.194077 0)
(1.61564 0.177253 0)
(1.62193 0.15764 0)
(1.62768 0.135577 0)
(1.63282 0.111447 0)
(1.63729 0.08568 0)
(1.64104 0.0587575 0)
(1.64401 0.0312659 0)
(1.64613 0.00388504 0)
(1.64739 -0.022911 0)
(1.64777 -0.0487052 0)
(1.64725 -0.0731229 0)
(1.64583 -0.0958417 0)
(1.64354 -0.116598 0)
(1.64039 -0.135184 0)
(1.63644 -0.151448 0)
(1.63174 -0.165297 0)
(1.62635 -0.176678 0)
(1.62037 -0.18557 0)
(1.61387 -0.191957 0)
(1.60688 -0.19579 0)
(1.59942 -0.196954 0)
(1.59172 -0.195419 0)
(1.58386 -0.191256 0)
(1.576 -0.184526 0)
(1.56831 -0.175308 0)
(1.56095 -0.163698 0)
(1.55406 -0.149816 0)
(1.54777 -0.133814 0)
(1.54219 -0.115885 0)
(1.53742 -0.096262 0)
(1.5335 -0.0752233 0)
(1.53049 -0.0530891 0)
(1.52839 -0.0302243 0)
(1.52721 -0.00706145 0)
(1.52691 0.0159301 0)
(1.52747 0.0384162 0)
(1.52885 0.0600753 0)
(1.531 0.0806085 0)
(1.53386 0.0997423 0)
(1.53738 0.117229 0)
(1.5415 0.132856 0)
(1.54613 0.146454 0)
(1.55121 0.157893 0)
(1.55666 0.16708 0)
(1.56238 0.173955 0)
(1.56833 0.178463 0)
(1.57456 0.180451 0)
(1.58093 0.179675 0)
(1.58735 0.176092 0)
(1.59376 0.169754 0)
(1.60004 0.160769 0)
(1.60608 0.149294 0)
(1.61182 0.135527 0)
(1.61717 0.119707 0)
(1.62207 0.102099 0)
(1.62645 0.0830039 0)
(1.63027 0.0627489 0)
(1.63348 0.0417019 0)
(1.63603 0.0203067 0)
(1.63788 -0.000950835 0)
(1.63901 -0.0217409 0)
(1.6394 -0.0417576 0)
(1.63904 -0.0607233 0)
(1.63794 -0.0783937 0)
(1.63611 -0.0945625 0)
(1.63358 -0.109064 0)
(1.63038 -0.121768 0)
(1.62656 -0.132582 0)
(1.62219 -0.141448 0)
(1.61732 -0.148329 0)
(1.61203 -0.153188 0)
(1.60633 -0.155946 0)
(1.60025 -0.15648 0)
(1.59395 -0.15477 0)
(1.58752 -0.150862 0)
(1.58107 -0.144812 0)
(1.57475 -0.136702 0)
(1.56866 -0.126633 0)
(1.56292 -0.11473 0)
(1.55764 -0.101144 0)
(1.55289 -0.0860546 0)
(1.54876 -0.0696775 0)
(1.54529 -0.0522137 0)
(1.54251 -0.0340626 0)
(1.54049 -0.0150066 0)
(1.53915 0.00322394 0)
(1.53871 0.0233031 0)
(1.5385 0.0388602 0)
(1.54031 0.0650539 0)
(1.68134 0.109751 0)
(1.68647 0.0756676 0)
(1.69045 0.0408877 0)
(1.69321 0.00639272 0)
(1.69471 -0.0271653 0)
(1.69493 -0.0592015 0)
(1.69387 -0.0892142 0)
(1.69155 -0.116798 0)
(1.68802 -0.141648 0)
(1.68333 -0.163557 0)
(1.67757 -0.182413 0)
(1.67081 -0.198179 0)
(1.66316 -0.210872 0)
(1.65471 -0.220533 0)
(1.64554 -0.227192 0)
(1.63566 -0.23084 0)
(1.62524 -0.231502 0)
(1.61446 -0.229318 0)
(1.60345 -0.224412 0)
(1.59244 -0.216866 0)
(1.58164 -0.206737 0)
(1.57126 -0.194064 0)
(1.56152 -0.178886 0)
(1.55263 -0.161267 0)
(1.54474 -0.141321 0)
(1.538 -0.119225 0)
(1.5325 -0.0952317 0)
(1.5283 -0.069665 0)
(1.52543 -0.0429154 0)
(1.52386 -0.0154468 0)
(1.52355 0.0121525 0)
(1.52442 0.03937 0)
(1.52641 0.0657953 0)
(1.52944 0.091039 0)
(1.53342 0.114741 0)
(1.53827 0.136582 0)
(1.5439 0.156285 0)
(1.55019 0.173611 0)
(1.55705 0.188376 0)
(1.56439 0.200447 0)
(1.57209 0.209731 0)
(1.58006 0.216142 0)
(1.5883 0.219526 0)
(1.59678 0.219592 0)
(1.60527 0.216198 0)
(1.61373 0.209364 0)
(1.62201 0.199183 0)
(1.62999 0.185818 0)
(1.63755 0.169491 0)
(1.64459 0.150479 0)
(1.65102 0.129106 0)
(1.65676 0.105746 0)
(1.66174 0.0808168 0)
(1.66589 0.0547994 0)
(1.66914 0.028279 0)
(1.67143 0.0019213 0)
(1.67274 -0.0238264 0)
(1.67305 -0.0485577 0)
(1.67235 -0.0719122 0)
(1.67066 -0.0935822 0)
(1.66801 -0.113319 0)
(1.66444 -0.130933 0)
(1.65999 -0.146292 0)
(1.65475 -0.159312 0)
(1.64879 -0.169948 0)
(1.64218 -0.178182 0)
(1.63501 -0.183987 0)
(1.6273 -0.187297 0)
(1.61915 -0.18804 0)
(1.61071 -0.186254 0)
(1.60212 -0.182011 0)
(1.59353 -0.175381 0)
(1.58511 -0.166445 0)
(1.57703 -0.155291 0)
(1.56943 -0.142028 0)
(1.56247 -0.126788 0)
(1.55627 -0.10974 0)
(1.55093 -0.0910905 0)
(1.54653 -0.0710894 0)
(1.54312 -0.0500292 0)
(1.54073 -0.0282485 0)
(1.53934 -0.0061534 0)
(1.53895 0.0158036 0)
(1.53952 0.0372979 0)
(1.54099 0.0580171 0)
(1.54331 0.0776685 0)
(1.54644 0.0959857 0)
(1.5503 0.112732 0)
(1.55482 0.1277 0)
(1.55991 0.140724 0)
(1.56551 0.151678 0)
(1.57152 0.160467 0)
(1.57787 0.167019 0)
(1.58449 0.171253 0)
(1.5914 0.173005 0)
(1.59848 0.172089 0)
(1.6056 0.168487 0)
(1.6127 0.162249 0)
(1.61966 0.153475 0)
(1.62636 0.142318 0)
(1.63272 0.128965 0)
(1.63865 0.113643 0)
(1.64408 0.09661 0)
(1.64894 0.0781545 0)
(1.65317 0.0585949 0)
(1.65672 0.0382969 0)
(1.65953 0.0177188 0)
(1.66155 -0.00269297 0)
(1.66276 -0.0226169 0)
(1.66315 -0.041755 0)
(1.66272 -0.059841 0)
(1.66147 -0.0766444 0)
(1.65942 -0.0919713 0)
(1.65661 -0.105668 0)
(1.65308 -0.117622 0)
(1.64889 -0.127751 0)
(1.6441 -0.136003 0)
(1.63878 -0.142337 0)
(1.63298 -0.146707 0)
(1.62671 -0.149024 0)
(1.62009 -0.149207 0)
(1.61321 -0.147281 0)
(1.60619 -0.143294 0)
(1.59915 -0.137307 0)
(1.59224 -0.129398 0)
(1.58556 -0.119666 0)
(1.57926 -0.108226 0)
(1.57343 -0.0952176 0)
(1.56817 -0.0807962 0)
(1.56358 -0.0651799 0)
(1.55972 -0.0484998 0)
(1.55662 -0.031209 0)
(1.55435 -0.0130368 0)
(1.55285 0.00435518 0)
(1.55236 0.0234995 0)
(1.55209 0.0383156 0)
(1.55409 0.0633292 0)
(1.70814 0.10313 0)
(1.71369 0.0703584 0)
(1.71792 0.037019 0)
(1.72074 0.00401366 0)
(1.72213 -0.0280286 0)
(1.7221 -0.0585484 0)
(1.72065 -0.087071 0)
(1.71783 -0.113213 0)
(1.71371 -0.136691 0)
(1.70837 -0.157316 0)
(1.70191 -0.174987 0)
(1.69444 -0.189674 0)
(1.68605 -0.201393 0)
(1.67685 -0.210179 0)
(1.66688 -0.216046 0)
(1.65621 -0.219002 0)
(1.64502 -0.21914 0)
(1.63346 -0.21663 0)
(1.62168 -0.211605 0)
(1.60989 -0.204171 0)
(1.59831 -0.194399 0)
(1.58715 -0.182328 0)
(1.57664 -0.167991 0)
(1.56699 -0.15143 0)
(1.55839 -0.132726 0)
(1.551 -0.112014 0)
(1.54494 -0.0895017 0)
(1.54027 -0.0654675 0)
(1.53704 -0.0402605 0)
(1.53524 -0.0143042 0)
(1.53481 0.0118637 0)
(1.53569 0.0377252 0)
(1.5378 0.0628799 0)
(1.54105 0.0869468 0)
(1.54536 0.109574 0)
(1.55062 0.130447 0)
(1.55673 0.149293 0)
(1.5636 0.165884 0)
(1.5711 0.18003 0)
(1.57913 0.191595 0)
(1.58758 0.200474 0)
(1.59637 0.206559 0)
(1.60548 0.209676 0)
(1.61481 0.209579 0)
(1.62418 0.206174 0)
(1.6335 0.199482 0)
(1.64262 0.18959 0)
(1.65141 0.176651 0)
(1.65975 0.160877 0)
(1.66751 0.142532 0)
(1.67459 0.121933 0)
(1.6809 0.0994397 0)
(1.68634 0.0754592 0)
(1.69086 0.0504662 0)
(1.69435 0.0250636 0)
(1.69676 -0.000139255 0)
(1.69807 -0.0247113 0)
(1.69828 -0.0482604 0)
(1.69738 -0.0704434 0)
(1.6954 -0.0909698 0)
(1.69239 -0.10961 0)
(1.68839 -0.126187 0)
(1.68349 -0.140583 0)
(1.67774 -0.152725 0)
(1.67125 -0.162572 0)
(1.66408 -0.1701 0)
(1.6563 -0.175271 0)
(1.64794 -0.178026 0)
(1.63916 -0.178346 0)
(1.63007 -0.176305 0)
(1.62081 -0.171981 0)
(1.61156 -0.165451 0)
(1.60247 -0.156799 0)
(1.59372 -0.146113 0)
(1.58547 -0.133492 0)
(1.57787 -0.119053 0)
(1.57107 -0.102942 0)
(1.56519 -0.0853395 0)
(1.56031 -0.0664643 0)
(1.55651 -0.0465787 0)
(1.5538 -0.0259907 0)
(1.55221 -0.0050762 0)
(1.55171 0.0157353 0)
(1.55226 0.0361313 0)
(1.55381 0.0558098 0)
(1.55631 0.0744867 0)
(1.55968 0.0919027 0)
(1.56385 0.107829 0)
(1.56875 0.122068 0)
(1.57428 0.134456 0)
(1.58037 0.144865 0)
(1.58693 0.1532 0)
(1.59386 0.159378 0)
(1.60112 0.163295 0)
(1.60869 0.16479 0)
(1.61642 0.163732 0)
(1.62422 0.160118 0)
(1.63198 0.153994 0)
(1.63958 0.145455 0)
(1.6469 0.134645 0)
(1.65386 0.121743 0)
(1.66035 0.106967 0)
(1.66628 0.0905653 0)
(1.67159 0.0728165 0)
(1.67621 0.0540317 0)
(1.68006 0.0345707 0)
(1.68309 0.0149043 0)
(1.68525 -0.00456643 0)
(1.68651 -0.0235301 0)
(1.68688 -0.0417019 0)
(1.68635 -0.0588279 0)
(1.68493 -0.0746907 0)
(1.68266 -0.0891119 0)
(1.67958 -0.101952 0)
(1.67574 -0.113107 0)
(1.67121 -0.122506 0)
(1.66604 -0.130098 0)
(1.66031 -0.13584 0)
(1.65406 -0.139669 0)
(1.6473 -0.141506 0)
(1.64019 -0.141324 0)
(1.6328 -0.139169 0)
(1.62525 -0.135093 0)
(1.61769 -0.129162 0)
(1.61023 -0.121457 0)
(1.60302 -0.112073 0)
(1.59619 -0.101115 0)
(1.58985 -0.088717 0)
(1.58411 -0.0750104 0)
(1.57908 -0.0602119 0)
(1.57483 -0.0443875 0)
(1.5714 -0.0280338 0)
(1.56888 -0.010846 0)
(1.56721 0.00561821 0)
(1.56665 0.0237415 0)
(1.56632 0.0377448 0)
(1.56847 0.061448 0)
(1.73427 0.0959775 0)
(1.74017 0.0647086 0)
(1.74459 0.0330038 0)
(1.74744 0.00167546 0)
(1.74871 -0.028677 0)
(1.74842 -0.0575243 0)
(1.74659 -0.0844204 0)
(1.74329 -0.109012 0)
(1.73861 -0.131037 0)
(1.73265 -0.150326 0)
(1.72555 -0.166783 0)
(1.7174 -0.180378 0)
(1.70833 -0.191116 0)
(1.69844 -0.199013 0)
(1.68777 -0.204076 0)
(1.67642 -0.206345 0)
(1.66458 -0.205967 0)
(1.65236 -0.203128 0)
(1.63992 -0.197982 0)
(1.62746 -0.190654 0)
(1.61518 -0.181231 0)
(1.60333 -0.169761 0)
(1.59211 -0.156275 0)
(1.58177 -0.1408 0)
(1.5725 -0.123387 0)
(1.56449 -0.104132 0)
(1.55787 -0.0831943 0)
(1.55274 -0.0608049 0)
(1.54915 -0.0372671 0)
(1.54709 -0.0129589 0)
(1.54654 0.0116434 0)
(1.5474 0.0360196 0)
(1.54961 0.0597812 0)
(1.55306 0.0825574 0)
(1.55766 0.104005 0)
(1.56331 0.123814 0)
(1.56989 0.141717 0)
(1.57729 0.157491 0)
(1.58539 0.170948 0)
(1.59408 0.181942 0)
(1.60325 0.190355 0)
(1.61281 0.196062 0)
(1.62273 0.198883 0)
(1.63288 0.198619 0)
(1.64308 0.195207 0)
(1.65322 0.188669 0)
(1.66315 0.179086 0)
(1.67272 0.166608 0)
(1.68178 0.151439 0)
(1.69021 0.133834 0)
(1.69789 0.114097 0)
(1.70471 0.0925745 0)
(1.71057 0.0696609 0)
(1.7154 0.0458211 0)
(1.7191 0.0216699 0)
(1.7216 -0.00224827 0)
(1.7229 -0.0255198 0)
(1.72298 -0.0477722 0)
(1.72187 -0.0686827 0)
(1.71961 -0.0879811 0)
(1.71624 -0.105454 0)
(1.71184 -0.120943 0)
(1.70648 -0.134339 0)
(1.70025 -0.145573 0)
(1.69325 -0.154604 0)
(1.68556 -0.161397 0)
(1.67721 -0.165906 0)
(1.66829 -0.168091 0)
(1.65896 -0.167982 0)
(1.64931 -0.165674 0)
(1.63949 -0.161253 0)
(1.62966 -0.154809 0)
(1.61998 -0.146435 0)
(1.61063 -0.136218 0)
(1.60178 -0.124252 0)
(1.5936 -0.110642 0)
(1.58623 -0.0955136 0)
(1.57983 -0.0790198 0)
(1.57449 -0.0613485 0)
(1.57029 -0.0427288 0)
(1.56727 -0.023436 0)
(1.56546 -0.0038118 0)
(1.56484 0.0157471 0)
(1.56536 0.0349401 0)
(1.56697 0.0534789 0)
(1.56961 0.0710899 0)
(1.57319 0.0875224 0)
(1.57766 0.102554 0)
(1.5829 0.115993 0)
(1.58885 0.127684 0)
(1.5954 0.137496 0)
(1.60245 0.145324 0)
(1.60994 0.151077 0)
(1.61781 0.154636 0)
(1.626 0.155857 0)
(1.63437 0.15465 0)
(1.6428 0.151023 0)
(1.65119 0.14502 0)
(1.6594 0.136732 0)
(1.66732 0.126297 0)
(1.67483 0.113887 0)
(1.68183 0.0997101 0)
(1.68823 0.0840029 0)
(1.69394 0.0670315 0)
(1.6989 0.0490992 0)
(1.70303 0.030573 0)
(1.70625 0.0119119 0)
(1.70852 -0.00652661 0)
(1.70983 -0.0244423 0)
(1.71016 -0.0415639 0)
(1.70952 -0.0576537 0)
(1.70794 -0.0725101 0)
(1.70546 -0.0859693 0)
(1.70211 -0.0979053 0)
(1.69798 -0.108224 0)
(1.69311 -0.116861 0)
(1.68759 -0.123763 0)
(1.68147 -0.128877 0)
(1.67477 -0.132133 0)
(1.66759 -0.133476 0)
(1.66003 -0.132924 0)
(1.6522 -0.130529 0)
(1.6442 -0.12635 0)
(1.63618 -0.120463 0)
(1.62826 -0.112952 0)
(1.62058 -0.103912 0)
(1.61327 -0.0934436 0)
(1.60647 -0.081674 0)
(1.60029 -0.0687149 0)
(1.59485 -0.0547767 0)
(1.59022 -0.0398732 0)
(1.58648 -0.0245252 0)
(1.58371 -0.00840878 0)
(1.58186 0.00703951 0)
(1.5812 0.0240579 0)
(1.5808 0.0371844 0)
(1.58306 0.0594535 0)
(1.75901 0.0883758 0)
(1.76522 0.0587854 0)
(1.76977 0.0288879 0)
(1.77263 -0.000600706 0)
(1.77377 -0.029112 0)
(1.77322 -0.0561526 0)
(1.77104 -0.0813092 0)
(1.76731 -0.104259 0)
(1.76214 -0.124762 0)
(1.75565 -0.142662 0)
(1.74797 -0.157874 0)
(1.73925 -0.170358 0)
(1.72959 -0.180106 0)
(1.71909 -0.187114 0)
(1.70781 -0.191388 0)
(1.69591 -0.193 0)
(1.68351 -0.192127 0)
(1.67073 -0.188961 0)
(1.65775 -0.183678 0)
(1.64474 -0.176432 0)
(1.63189 -0.167332 0)
(1.61942 -0.156447 0)
(1.60758 -0.143809 0)
(1.59661 -0.129434 0)
(1.58673 -0.113347 0)
(1.57814 -0.0956057 0)
(1.57099 -0.0763217 0)
(1.56541 -0.0556758 0)
(1.56144 -0.0339212 0)
(1.55912 -0.0113839 0)
(1.55842 0.0115162 0)
(1.55924 0.0342849 0)
(1.56151 0.0565361 0)
(1.56513 0.077911 0)
(1.56999 0.098077 0)
(1.57598 0.116731 0)
(1.58298 0.13361 0)
(1.59088 0.14849 0)
(1.59954 0.161187 0)
(1.60885 0.171546 0)
(1.6187 0.179431 0)
(1.62899 0.184704 0)
(1.63968 0.187195 0)
(1.65059 0.18675 0)
(1.66156 0.183332 0)
(1.67246 0.176962 0)
(1.68312 0.167724 0)
(1.69337 0.155757 0)
(1.70307 0.141258 0)
(1.71209 0.124469 0)
(1.72029 0.105679 0)
(1.72756 0.0852184 0)
(1.73379 0.0634718 0)
(1.7389 0.0409075 0)
(1.74276 0.0181263 0)
(1.74532 -0.00439129 0)
(1.74659 -0.0262518 0)
(1.74656 -0.0471065 0)
(1.74525 -0.0666539 0)
(1.74272 -0.0846457 0)
(1.73903 -0.100888 0)
(1.73426 -0.115236 0)
(1.7285 -0.127591 0)
(1.72185 -0.137885 0)
(1.71439 -0.146072 0)
(1.70622 -0.152105 0)
(1.69737 -0.155937 0)
(1.68797 -0.157555 0)
(1.67814 -0.157032 0)
(1.66799 -0.154461 0)
(1.65768 -0.149938 0)
(1.64735 -0.14357 0)
(1.63716 -0.135458 0)
(1.62729 -0.125698 0)
(1.61791 -0.114385 0)
(1.6092 -0.101617 0)
(1.60133 -0.0875001 0)
(1.59444 -0.0721632 0)
(1.58867 -0.0557615 0)
(1.58409 -0.0384882 0)
(1.58078 -0.020583 0)
(1.57876 -0.00235284 0)
(1.57801 0.0158494 0)
(1.57849 0.0337409 0)
(1.58014 0.0510457 0)
(1.58289 0.0675019 0)
(1.58667 0.0828697 0)
(1.59139 0.0969341 0)
(1.59695 0.109509 0)
(1.60327 0.120438 0)
(1.61024 0.129593 0)
(1.61778 0.136862 0)
(1.62579 0.142137 0)
(1.63422 0.145298 0)
(1.64299 0.146226 0)
(1.65193 0.144871 0)
(1.66094 0.141239 0)
(1.66989 0.135374 0)
(1.67865 0.127365 0)
(1.68708 0.117342 0)
(1.69508 0.105467 0)
(1.70254 0.091938 0)
(1.70935 0.0769789 0)
(1.71543 0.0608471 0)
(1.7207 0.0438392 0)
(1.72507 0.0263288 0)
(1.72846 0.00875474 0)
(1.73082 -0.00856825 0)
(1.73215 -0.0253553 0)
(1.73244 -0.0413521 0)
(1.73171 -0.0563376 0)
(1.72997 -0.0701269 0)
(1.72729 -0.0825727 0)
(1.72372 -0.0935603 0)
(1.71932 -0.103006 0)
(1.71416 -0.110845 0)
(1.70832 -0.117021 0)
(1.70184 -0.12147 0)
(1.69476 -0.124127 0)
(1.6872 -0.124971 0)
(1.67925 -0.124048 0)
(1.67102 -0.12141 0)
(1.66262 -0.117127 0)
(1.65419 -0.11128 0)
(1.64586 -0.103959 0)
(1.63776 -0.0952618 0)
(1.63003 -0.0852865 0)
(1.62282 -0.0741579 0)
(1.61624 -0.0619677 0)
(1.61042 -0.0489193 0)
(1.60544 -0.0349899 0)
(1.60143 -0.0207236 0)
(1.59844 -0.00573884 0)
(1.59641 0.00861466 0)
(1.59567 0.0244458 0)
(1.5952 0.0366421 0)
(1.59754 0.0573687 0)
(1.78176 0.080398 0)
(1.78819 0.0526468 0)
(1.79284 0.0247064 0)
(1.79567 -0.00279805 0)
(1.79669 -0.0293381 0)
(1.79592 -0.0544595 0)
(1.79343 -0.0777862 0)
(1.78934 -0.0990225 0)
(1.78376 -0.117954 0)
(1.77684 -0.134436 0)
(1.76871 -0.148381 0)
(1.75953 -0.159741 0)
(1.7494 -0.16849 0)
(1.73842 -0.174606 0)
(1.72666 -0.178099 0)
(1.71431 -0.179076 0)
(1.70146 -0.177725 0)
(1.68825 -0.174241 0)
(1.67482 -0.168821 0)
(1.66135 -0.161639 0)
(1.64802 -0.152835 0)
(1.63505 -0.142501 0)
(1.62269 -0.130686 0)
(1.61116 -0.117407 0)
(1.60073 -0.102665 0)
(1.59161 -0.0864786 0)
(1.58397 -0.0689106 0)
(1.57795 -0.0500895 0)
(1.57363 -0.0302161 0)
(1.57103 -0.00956597 0)
(1.57015 0.0115041 0)
(1.57092 0.0325457 0)
(1.57322 0.0531734 0)
(1.57697 0.0730408 0)
(1.58205 0.0918248 0)
(1.58834 0.109232 0)
(1.59572 0.125003 0)
(1.60406 0.138914 0)
(1.61323 0.150777 0)
(1.62311 0.160431 0)
(1.63358 0.167732 0)
(1.64454 0.172531 0)
(1.65591 0.174678 0)
(1.66749 0.174062 0)
(1.67913 0.170659 0)
(1.69068 0.164489 0)
(1.70196 0.15563 0)
(1.71281 0.144218 0)
(1.72307 0.13044 0)
(1.73259 0.114527 0)
(1.74124 0.0967516 0)
(1.74889 0.0774352 0)
(1.75544 0.0569494 0)
(1.76077 0.0357711 0)
(1.76476 0.0144679 0)
(1.76737 -0.00654343 0)
(1.76859 -0.0268951 0)
(1.76844 -0.0462636 0)
(1.76696 -0.0643728 0)
(1.76419 -0.080997 0)
(1.76022 -0.0959601 0)
(1.75514 -0.109131 0)
(1.74905 -0.120415 0)
(1.74204 -0.129745 0)
(1.73422 -0.137063 0)
(1.72564 -0.142312 0)
(1.71638 -0.145454 0)
(1.70658 -0.146511 0)
(1.69634 -0.145571 0)
(1.68578 -0.14273 0)
(1.67505 -0.1381 0)
(1.66429 -0.131797 0)
(1.65366 -0.123937 0)
(1.64333 -0.114625 0)
(1.63348 -0.10396 0)
(1.62429 -0.0920388 0)
(1.61595 -0.0789557 0)
(1.60863 -0.0648149 0)
(1.60245 -0.0497393 0)
(1.59753 -0.0338839 0)
(1.59394 -0.0174492 0)
(1.59171 -0.000704529 0)
(1.59083 0.0160495 0)
(1.59125 0.0325494 0)
(1.59293 0.0485351 0)
(1.59577 0.0637572 0)
(1.59971 0.0779854 0)
(1.60465 0.0910132 0)
(1.6105 0.10266 0)
(1.61714 0.11277 0)
(1.6245 0.121212 0)
(1.63246 0.127867 0)
(1.64095 0.132622 0)
(1.64989 0.13536 0)
(1.65915 0.135993 0)
(1.6686 0.134494 0)
(1.67812 0.130867 0)
(1.68757 0.125155 0)
(1.6968 0.117445 0)
(1.70569 0.107858 0)
(1.71412 0.0965506 0)
(1.72198 0.0837077 0)
(1.72915 0.0695436 0)
(1.73556 0.0543036 0)
(1.7411 0.0382839 0)
(1.74567 0.021881 0)
(1.74919 0.00546654 0)
(1.75163 -0.010667 0)
(1.75298 -0.0262543 0)
(1.75322 -0.0410603 0)
(1.7524 -0.0548834 0)
(1.75053 -0.0675568 0)
(1.74768 -0.0789488 0)
(1.74391 -0.0889559 0)
(1.73928 -0.0974988 0)
(1.73388 -0.104512 0)
(1.72777 -0.109931 0)
(1.72097 -0.113685 0)
(1.71359 -0.115726 0)
(1.70571 -0.116071 0)
(1.69743 -0.114768 0)
(1.68887 -0.111878 0)
(1.68014 -0.107479 0)
(1.67136 -0.101662 0)
(1.66267 -0.0945218 0)
(1.6542 -0.0861616 0)
(1.6461 -0.0766786 0)
(1.63852 -0.0662029 0)
(1.63157 -0.0548001 0)
(1.6254 -0.0426754 0)
(1.62011 -0.0297771 0)
(1.61585 -0.0166535 0)
(1.61266 -0.00285969 0)
(1.61047 0.010335 0)
(1.60963 0.0249067 0)
(1.60909 0.0361257 0)
(1.61149 0.0552193 0)
(1.80192 0.0721335 0)
(1.80851 0.0463604 0)
(1.81322 0.0204977 0)
(1.81602 -0.00491073 0)
(1.81692 -0.0293801 0)
(1.81597 -0.0525005 0)
(1.81325 -0.0739317 0)
(1.80889 -0.0934095 0)
(1.80302 -0.110738 0)
(1.7958 -0.125782 0)
(1.78736 -0.13845 0)
(1.77786 -0.14868 0)
(1.76741 -0.156422 0)
(1.75607 -0.16164 0)
(1.744 -0.164361 0)
(1.73132 -0.164716 0)
(1.71813 -0.162888 0)
(1.70458 -0.159082 0)
(1.6908 -0.153511 0)
(1.67697 -0.146374 0)
(1.66326 -0.137839 0)
(1.64987 -0.128026 0)
(1.63706 -0.117006 0)
(1.62507 -0.104804 0)
(1.61417 -0.0914096 0)
(1.60458 -0.0768044 0)
(1.5965 -0.061 0)
(1.59007 -0.0440687 0)
(1.58539 -0.0261576 0)
(1.58251 -0.00748908 0)
(1.58144 0.01164 0)
(1.5821 0.0308441 0)
(1.58441 0.049743 0)
(1.58824 0.0680049 0)
(1.59349 0.0853163 0)
(1.60003 0.101391 0)
(1.60772 0.115976 0)
(1.61644 0.128846 0)
(1.62605 0.139811 0)
(1.63642 0.148701 0)
(1.64744 0.155368 0)
(1.65898 0.159664 0)
(1.67093 0.16146 0)
(1.68309 0.160679 0)
(1.69531 0.157301 0)
(1.70741 0.151348 0)
(1.71922 0.142898 0)
(1.73056 0.132081 0)
(1.74128 0.119071 0)
(1.75121 0.104089 0)
(1.76023 0.0873932 0)
(1.7682 0.0692892 0)
(1.775 0.0501488 0)
(1.78049 0.0304676 0)
(1.78457 0.0107287 0)
(1.7872 -0.00869094 0)
(1.78838 -0.0274539 0)
(1.78813 -0.0452665 0)
(1.78649 -0.0618792 0)
(1.78354 -0.077089 0)
(1.77936 -0.0907373 0)
(1.77404 -0.102704 0)
(1.7677 -0.112896 0)
(1.76043 -0.12124 0)
(1.75231 -0.127666 0)
(1.74342 -0.132115 0)
(1.73385 -0.134563 0)
(1.72374 -0.135063 0)
(1.71317 -0.133702 0)
(1.70229 -0.130584 0)
(1.69122 -0.125832 0)
(1.6801 -0.119576 0)
(1.6691 -0.111946 0)
(1.65838 -0.103062 0)
(1.64812 -0.0930351 0)
(1.63852 -0.081962 0)
(1.62977 -0.0699284 0)
(1.62204 -0.0570156 0)
(1.6155 -0.0433133 0)
(1.61027 -0.0289366 0)
(1.60641 -0.0140453 0)
(1.60398 0.0011336 0)
(1.60297 0.0163589 0)
(1.60333 0.0313875 0)
(1.605 0.0459763 0)
(1.6079 0.0598902 0)
(1.61196 0.0729099 0)
(1.61708 0.0848368 0)
(1.62316 0.0954948 0)
(1.63009 0.104729 0)
(1.63777 0.112405 0)
(1.64611 0.118397 0)
(1.65502 0.12259 0)
(1.6644 0.124886 0)
(1.6741 0.125223 0)
(1.68399 0.123582 0)
(1.69394 0.119967 0)
(1.70381 0.114422 0)
(1.71345 0.107031 0)
(1.72272 0.0979078 0)
(1.73152 0.0871992 0)
(1.73971 0.0750789 0)