/*--------------------------------*- C++ -*----------------------------------*\
| =========                 |                                                 |
| \\      /  F ield         | OpenFOAM: The Open Source CFD Toolbox           |
|  \\    /   O peration     | Version:  2206                                  |
|   \\  /    A nd           | Website:  www.openfoam.com                      |
|    \\/     M anipulation  |                                                 |
\*---------------------------------------------------------------------------*/
FoamFile
{
    version     2.0;
    format      ascii;
    arch        "LSB;label=32;scalar=64";
    class       volVectorField;
    location    "18.6";
    object      ddt0(U);
}
// * * * * * * * * * * * * * * * * * * * * * * * * * * * * * * * * * * * * * //

dimensions      [0 1 -2 0 0 0 0];

internalField   nonuniform List<vector> 
3037
(
(-2.70338e-06 0.000319547 0)
(-1.14354e-05 0.00051043 0)
(-2.33915e-05 0.000317205 0)
(-2.73931e-05 -0.000267241 0)
(-1.71036e-05 -0.0012069 0)
(1.02273e-05 -0.0024815 0)
(5.96597e-05 -0.00406518 0)
(0.000137681 -0.00591521 0)
(0.00024973 -0.00797721 0)
(0.000400217 -0.0101932 0)
(0.000591786 -0.0125048 0)
(0.00082628 -0.0148553 0)
(0.0011042 -0.0171896 0)
(0.00142539 -0.0194564 0)
(0.00178809 -0.0216086 0)
(0.00219044 -0.0236072 0)
(0.0026284 -0.02542 0)
(0.00309792 -0.0270241 0)
(0.00359452 -0.0284036 0)
(0.00411493 -0.0295512 0)
(0.0046536 -0.030467 0)
(0.00520585 -0.03116 0)
(0.00576761 -0.0316468 0)
(0.0063361 -0.0319527 0)
(0.00690652 -0.0321105 0)
(0.00747574 -0.0321613 0)
(0.00804209 -0.0321511 0)
(0.00860545 -0.0321298 0)
(0.00916423 -0.0321523 0)
(0.00972027 -0.0322741 0)
(0.010264 -0.0325476 0)
(0.010838 -0.0330302 0)
(0.0113697 -0.0337667 0)
(0.0119742 -0.0348115 0)
(0.0125249 -0.0361968 0)
(0.0131704 -0.0379698 0)
(0.0137797 -0.0401505 0)
(0.0144838 -0.0427728 0)
(0.0152011 -0.0458482 0)
(0.0159787 -0.0493893 0)
(0.0168504 -0.0534092 0)
(0.017734 -0.0578896 0)
(0.018792 -0.0628536 0)
(0.0198275 -0.0682498 0)
(0.0210911 -0.074115 0)
(0.0223289 -0.0803693 0)
(0.0238157 -0.0870645 0)
(0.0253039 -0.0941027 0)
(0.0270256 -0.101543 0)
(0.0288221 -0.1093 0)
(0.0307824 -0.117398 0)
(0.032953 -0.125832 0)
(0.0351801 -0.134511 0)
(0.0377686 -0.143601 0)
(0.0403199 -0.15279 0)
(0.0433073 -0.162553 0)
(0.0462597 -0.172341 0)
(0.0494386 -0.182905 0)
(0.0527331 -0.193789 0)
(0.0562813 -0.205173 0)
(0.0600835 -0.217136 0)
(0.0641275 -0.229734 0)
(0.0684132 -0.243024 0)
(0.0729437 -0.257074 0)
(0.0777457 -0.271976 0)
(0.0828476 -0.287843 0)
(0.0882815 -0.304796 0)
(0.094075 -0.322961 0)
(0.100269 -0.342463 0)
(0.106901 -0.363432 0)
(0.114024 -0.386 0)
(0.121685 -0.410303 0)
(0.129947 -0.436484 0)
(0.138874 -0.46469 0)
(0.148542 -0.495074 0)
(0.159029 -0.527801 0)
(0.17043 -0.563047 0)
(0.182838 -0.601002 0)
(0.196376 -0.641873 0)
(0.211166 -0.685887 0)
(0.227368 -0.733291 0)
(0.245142 -0.784358 0)
(0.264686 -0.839392 0)
(0.286231 -0.89873 0)
(0.310016 -0.962779 0)
(0.336347 -1.03198 0)
(0.365527 -1.10686 0)
(0.39786 -1.18806 0)
(0.433717 -1.27632 0)
(0.473405 -1.37259 0)
(0.5172 -1.47802 0)
(0.565204 -1.5941 0)
(0.617164 -1.72289 0)
(0.672094 -1.86681 0)
(0.728368 -2.03087 0)
(0.778477 -2.21509 0)
(0.816508 -2.43729 0)
(0.830805 -2.71905 0)
(0.806278 -3.08957 0)
(0.04569 -3.88986 0)
(-2.14341e-06 0.000326171 0)
(-9.27064e-06 0.000520329 0)
(-1.68889e-05 0.000321241 0)
(-1.79058e-05 -0.000273391 0)
(-1.0673e-05 -0.00122569 0)
(7.92212e-06 -0.00251635 0)
(4.41024e-05 -0.00412231 0)
(0.000104309 -0.00600094 0)
(0.000192324 -0.00809637 0)
(0.00031119 -0.0103481 0)
(0.000461941 -0.0126971 0)
(0.000645912 -0.0150855 0)
(0.000863004 -0.0174584 0)
(0.00111368 -0.0197628 0)
(0.00139672 -0.0219515 0)
(0.0017109 -0.0239836 0)
(0.00205265 -0.0258271 0)
(0.00241957 -0.0274577 0)
(0.00280828 -0.0288598 0)
(0.00321588 -0.0300254 0)
(0.0036368 -0.0309559 0)
(0.0040685 -0.0316591 0)
(0.004508 -0.0321527 0)
(0.00495286 -0.0324616 0)
(0.00539816 -0.0326205 0)
(0.00584259 -0.0326695 0)
(0.00628601 -0.0326561 0)
(0.00672491 -0.0326307 0)
(0.0071655 -0.0326504 0)
(0.00759208 -0.0327689 0)
(0.0080232 -0.033044 0)
(0.00847003 -0.0335288 0)
(0.00888133 -0.0342742 0)
(0.0093631 -0.0353299 0)
(0.00977592 -0.0367346 0)
(0.0102999 -0.0385311 0)
(0.0107529 -0.0407444 0)
(0.0113288 -0.0434054 0)
(0.0118627 -0.0465279 0)
(0.0124938 -0.0501246 0)
(0.0131555 -0.0542063 0)
(0.0138543 -0.0587576 0)
(0.0146836 -0.0638013 0)
(0.015471 -0.0692794 0)
(0.0164937 -0.0752459 0)
(0.0174061 -0.0815879 0)
(0.0186245 -0.0884072 0)
(0.0197225 -0.0955394 0)
(0.0211059 -0.103121 0)
(0.0224761 -0.110987 0)
(0.0239832 -0.119238 0)
(0.0257019 -0.127813 0)
(0.0273591 -0.136661 0)
(0.0294405 -0.145923 0)
(0.0313974 -0.15533 0)
(0.0338085 -0.165212 0)
(0.0361315 -0.175108 0)
(0.0387385 -0.18588 0)
(0.0413256 -0.196934 0)
(0.0440661 -0.20851 0)
(0.046998 -0.220643 0)
(0.0501538 -0.233385 0)
(0.0535397 -0.246848 0)
(0.0571547 -0.261154 0)
(0.0609819 -0.276367 0)
(0.0650236 -0.292579 0)
(0.069291 -0.309888 0)
(0.0738205 -0.328433 0)
(0.0786433 -0.348327 0)
(0.0838043 -0.369721 0)
(0.0893413 -0.392738 0)
(0.095308 -0.417542 0)
(0.101752 -0.444268 0)
(0.108737 -0.473093 0)
(0.116317 -0.504158 0)
(0.124561 -0.537659 0)
(0.13353 -0.573755 0)
(0.143306 -0.612677 0)
(0.153972 -0.654612 0)
(0.165634 -0.699836 0)
(0.178411 -0.748578 0)
(0.192433 -0.801157 0)
(0.20787 -0.857878 0)
(0.224879 -0.919129 0)
(0.243657 -0.985291 0)
(0.264431 -1.05687 0)
(0.287387 -1.13439 0)
(0.312762 -1.21852 0)
(0.340753 -1.30995 0)
(0.371523 -1.40957 0)
(0.405081 -1.51829 0)
(0.441239 -1.63738 0)
(0.479246 -1.76808 0)
(0.517981 -1.91217 0)
(0.553747 -2.07067 0)
(0.583119 -2.24594 0)
(0.593298 -2.44109 0)
(0.580968 -2.65732 0)
(0.430887 -2.87295 0)
(0.220757 -3.02407 0)
(-1.84826e-06 0.000331194 0)
(-6.92386e-06 0.000527532 0)
(-1.06363e-05 0.000325196 0)
(-1.25045e-05 -0.000274675 0)
(-1.0847e-05 -0.0012347 0)
(-1.05109e-07 -0.0025386 0)
(2.58647e-05 -0.0041637 0)
(6.99442e-05 -0.0060656 0)
(0.000134699 -0.00818642 0)
(0.000221193 -0.0104651 0)
(0.000330843 -0.0128416 0)
(0.000463587 -0.0152584 0)
(0.000620158 -0.0176595 0)
(0.000799795 -0.0199919 0)
(0.00100282 -0.0222075 0)
(0.00122701 -0.024265 0)
(0.00147174 -0.0261311 0)
(0.00173415 -0.0277817 0)
(0.00201309 -0.0292007 0)
(0.00230448 -0.0303807 0)
(0.00260672 -0.0313218 0)
(0.00291602 -0.0320332 0)
(0.00323166 -0.0325319 0)
(0.00354987 -0.0328439 0)
(0.0038697 -0.0330031 0)
(0.00418792 -0.0330512 0)
(0.00450681 -0.0330352 0)
(0.00481896 -0.0330081 0)
(0.00514058 -0.0330244 0)
(0.00543846 -0.0331397 0)
(0.00575068 -0.0334154 0)
(0.00607145 -0.0339026 0)
(0.0063623 -0.0346547 0)
(0.00671618 -0.0357183 0)
(0.00699531 -0.0371379 0)
(0.0073917 -0.0389505 0)
(0.00769146 -0.041189 0)
(0.00812571 -0.0438762 0)
(0.00848868 -0.0470365 0)
(0.00895302 -0.0506698 0)
(0.00941961 -0.0548024 0)
(0.00991904 -0.0594016 0)
(0.0105207 -0.0645077 0)
(0.0110669 -0.0700447 0)
(0.0118265 -0.0760856 0)
(0.0124363 -0.0824935 0)
(0.0133635 -0.0894033 0)
(0.0140784 -0.0966011 0)
(0.0151274 -0.104291 0)
(0.0160549 -0.112225 0)
(0.0171196 -0.120594 0)
(0.0183724 -0.129253 0)
(0.0194329 -0.138244 0)
(0.0209827 -0.147614 0)
(0.022257 -0.157238 0)
(0.0241199 -0.167268 0)
(0.025808 -0.177355 0)
(0.0278236 -0.18808 0)
(0.0296279 -0.199069 0)
(0.0315735 -0.210854 0)
(0.0337715 -0.223378 0)
(0.03612 -0.236477 0)
(0.0385433 -0.250174 0)
(0.0410938 -0.264578 0)
(0.0438313 -0.279842 0)
(0.046754 -0.296117 0)
(0.0498498 -0.313553 0)
(0.0531273 -0.332276 0)
(0.0566098 -0.352425 0)
(0.0603225 -0.374122 0)
(0.064294 -0.397514 0)
(0.0685597 -0.422737 0)
(0.0731627 -0.44995 0)
(0.0781518 -0.479298 0)
(0.0835752 -0.51095 0)
(0.0894824 -0.545067 0)
(0.0959206 -0.58185 0)
(0.102944 -0.621497 0)
(0.110613 -0.664257 0)
(0.119002 -0.710369 0)
(0.128198 -0.760139 0)
(0.138306 -0.813843 0)
(0.149441 -0.871845 0)
(0.161714 -0.934522 0)
(0.175273 -1.00229 0)
(0.190245 -1.07565 0)
(0.206776 -1.15515 0)
(0.225004 -1.24137 0)
(0.245033 -1.33503 0)
(0.266927 -1.43684 0)
(0.290585 -1.54764 0)
(0.315705 -1.66824 0)
(0.341549 -1.7994 0)
(0.366924 -1.94197 0)
(0.388544 -2.09438 0)
(0.403381 -2.25896 0)
(0.40644 -2.43331 0)
(0.372687 -2.61059 0)
(0.319683 -2.75404 0)
(0.154696 -3.47025 0)
(-1.09093e-06 0.000333064 0)
(-4.01679e-06 0.000526542 0)
(-1.13138e-05 0.00032642 0)
(-1.94273e-05 -0.000271258 0)
(-2.14559e-05 -0.00123634 0)
(-1.3713e-05 -0.00255162 0)
(4.14615e-06 -0.00419106 0)
(3.37775e-05 -0.00610869 0)
(7.52934e-05 -0.0082467 0)
(0.000130315 -0.0105434 0)
(0.000198511 -0.0129388 0)
(0.000281148 -0.0153743 0)
(0.000377095 -0.0177942 0)
(0.000487091 -0.020145 0)
(0.000609168 -0.0223785 0)
(0.000744356 -0.0244528 0)
(0.000889929 -0.0263347 0)
(0.00104663 -0.0279989 0)
(0.00121217 -0.0294297 0)
(0.00138719 -0.0306191 0)
(0.00156708 -0.0315678 0)
(0.00175252 -0.0322842 0)
(0.00194125 -0.0327864 0)
(0.00213376 -0.0330997 0)
(0.00232511 -0.0332592 0)
(0.00251684 -0.0333061 0)
(0.00270765 -0.0332886 0)
(0.00289851 -0.0332595 0)
(0.00308621 -0.0332743 0)
(0.0032719 -0.0333886 0)
(0.00346218 -0.0336643 0)
(0.00365034 -0.0341497 0)
(0.00381889 -0.0349078 0)
(0.00404848 -0.0359744 0)
(0.00418799 -0.0374069 0)
(0.00446001 -0.0392274 0)
(0.00459395 -0.0414858 0)
(0.00490659 -0.0441875 0)
(0.00506635 -0.0473746 0)
(0.00539797 -0.051031 0)
(0.00563245 -0.0551978 0)
(0.00596457 -0.0598285 0)
(0.00630972 -0.0649761 0)
(0.00663258 -0.070553 0)
(0.00711974 -0.0766414 0)
(0.00741939 -0.0830949 0)
(0.0080888 -0.0900643 0)
(0.00834794 -0.0972951 0)
(0.00918691 -0.105079 0)
(0.00952329 -0.113008 0)
(0.0102945 -0.12151 0)
(0.0110278 -0.13015 0)
(0.0114537 -0.139262 0)
(0.0125837 -0.148651 0)
(0.0130484 -0.158522 0)
(0.0140331 -0.168446 0)
(0.0150214 -0.178835 0)
(0.0171446 -0.190147 0)
(0.0179972 -0.201031 0)
(0.0186114 -0.212453 0)
(0.0197634 -0.224686 0)
(0.021402 -0.237761 0)
(0.0232231 -0.251707 0)
(0.0250707 -0.266475 0)
(0.0268868 -0.282086 0)
(0.0286871 -0.298654 0)
(0.0305146 -0.316325 0)
(0.0324176 -0.335243 0)
(0.0344257 -0.355556 0)
(0.0365666 -0.377411 0)
(0.0388632 -0.400966 0)
(0.0413508 -0.426381 0)
(0.0440644 -0.453821 0)
(0.0470414 -0.483449 0)
(0.0503067 -0.515429 0)
(0.0538783 -0.549931 0)
(0.0577694 -0.587144 0)
(0.0620018 -0.62728 0)
(0.0666086 -0.670583 0)
(0.0716392 -0.717315 0)
(0.0771506 -0.767775 0)
(0.0832216 -0.822279 0)
(0.0899147 -0.88116 0)
(0.0973254 -0.944822 0)
(0.105502 -1.0137 0)
(0.114542 -1.08827 0)
(0.124518 -1.16904 0)
(0.13549 -1.25661 0)
(0.14753 -1.35162 0)
(0.16063 -1.45473 0)
(0.17469 -1.56663 0)
(0.189467 -1.68788 0)
(0.204542 -1.81896 0)
(0.218795 -1.95953 0)
(0.231098 -2.10954 0)
(0.238698 -2.26722 0)
(0.237587 -2.4283 0)
(0.217379 -2.58449 0)
(0.198777 -2.74107 0)
(0.101502 -2.43676 0)
(-1.81369e-05 -0.000266149 0)
(-1.95571e-05 -0.00123944 0)
(-1.62315e-05 -0.00256295 0)
(-8.0145e-06 -0.00421052 0)
(3.83327e-06 -0.00613607 0)
(2.02517e-05 -0.00828184 0)
(4.03863e-05 -0.010587 0)
(6.54886e-05 -0.0129912 0)
(9.45744e-05 -0.0154357 0)
(0.0001287 -0.0178639 0)
(0.000166127 -0.0202226 0)
(0.000208049 -0.0224633 0)
(0.000252221 -0.0245446 0)
(0.000300471 -0.026433 0)
(0.000350918 -0.0281036 0)
(0.00040527 -0.0295401 0)
(0.000460873 -0.0307348 0)
(0.000520191 -0.0316875 0)
(0.00058036 -0.0324072 0)
(0.000643628 -0.0329111 0)
(0.000706697 -0.0332264 0)
(0.000771313 -0.0333866 0)
(0.000835108 -0.0334333 0)
(0.000900025 -0.0334151 0)
(0.000963255 -0.0333849 0)
(0.00102466 -0.0333986 0)
(0.00109167 -0.0335112 0)
(0.00114228 -0.033788 0)
(0.00123213 -0.0342722 0)
(0.00125358 -0.0350335 0)
(0.00136874 -0.0361003 0)
(0.00137281 -0.0375386 0)
(0.00149986 -0.0393621 0)
(0.0015163 -0.0416309 0)
(0.001626 -0.0443383 0)
(0.00169238 -0.0475414 0)
(0.00176287 -0.0512057 0)
(0.00190564 -0.0553951 0)
(0.00192345 -0.0600346 0)
(0.00215139 -0.0652138 0)
(0.00213398 -0.0707968 0)
(0.0024143 -0.0769256 0)
(0.00242301 -0.0833868 0)
(0.0026922 -0.0903922 0)
(0.00277767 -0.0976462 0)
(0.00302182 -0.105455 0)
(0.00318536 -0.113401 0)
(0.00334644 -0.121966 0)
(0.0037742 -0.130544 0)
(0.00351272 -0.13978 0)
(0.00446109 -0.149097 0)
(0.00387339 -0.158964 0)
(0.00425884 -0.168896 0)
(0.00450161 -0.180704 0)
(0.00495156 -0.18853 0)
(0.00588799 -0.201378 0)
(0.00596691 -0.214009 0)
(0.00651102 -0.226713 0)
(0.00735653 -0.239953 0)
(0.00814124 -0.253787 0)
(0.00878587 -0.26818 0)
(0.00931113 -0.283348 0)
(0.00977708 -0.299605 0)
(0.0102742 -0.317145 0)
(0.0108384 -0.336072 0)
(0.0114887 -0.356474 0)
(0.0122222 -0.378475 0)
(0.0130458 -0.402219 0)
(0.0139526 -0.427867 0)
(0.0149436 -0.455569 0)
(0.0160045 -0.485468 0)
(0.0171333 -0.517704 0)
(0.0183215 -0.552441 0)
(0.0195771 -0.589871 0)
(0.0209084 -0.630227 0)
(0.0223443 -0.673764 0)
(0.0239111 -0.720773 0)
(0.0256504 -0.771549 0)
(0.027591 -0.826422 0)
(0.029779 -0.885734 0)
(0.0322261 -0.949863 0)
(0.0349773 -1.01922 0)
(0.0380314 -1.09429 0)
(0.0414208 -1.1756 0)
(0.0451563 -1.26371 0)
(0.04925 -1.35921 0)
(0.0536811 -1.46275 0)
(0.058415 -1.57487 0)
(0.0633513 -1.69604 0)
(0.0683456 -1.82644 0)
(0.0730975 -1.9657 0)
(0.0771219 -2.11348 0)
(0.0792911 -2.26711 0)
(0.0763752 -2.42174 0)
(0.0656214 -2.56767 0)
(0.0168007 -2.69642 0)
(-0.042577 -2.72269 0)
(-2.39328e-06 4.07328e-05 0)
(-1.59591e-05 -3.29529e-05 0)
(5.487e-06 -1.16152e-05 0)
(0.000100345 -4.38808e-05 0)
(0.000258158 -7.99793e-05 0)
(0.000520084 -0.000136928 0)
(0.000910008 -0.00020958 0)
(0.00146184 -0.000288288 0)
(0.00220206 -0.000378605 0)
(0.00313021 -0.000475724 0)
(0.00423257 -0.000572608 0)
(0.00549204 -0.000666455 0)
(0.00690247 -0.000771013 0)
(0.00847124 -0.000876297 0)
(0.0101968 -0.000962181 0)
(0.0120525 -0.001016 0)
(0.014025 -0.0010641 0)
(0.0160964 -0.00111019 0)
(0.0182259 -0.00111923 0)
(0.0203563 -0.00107638 0)
(0.0224604 -0.00101816 0)
(0.0244991 -0.000929778 0)
(0.0264453 -0.000832035 0)
(0.0282937 -0.000748144 0)
(0.0300911 -0.000688392 0)
(0.0317464 -0.000717993 0)
(0.0337852 -0.000738865 0)
(0.035292 -0.000772033 0)
(0.0370784 -0.000875805 0)
(0.0390637 -0.00104828 0)
(0.0412522 -0.00126585 0)
(0.0437209 -0.00151202 0)
(0.0465352 -0.00176671 0)
(0.0497 -0.00200993 0)
(0.0532458 -0.00222321 0)
(0.0571344 -0.00240367 0)
(0.0613635 -0.00252782 0)
(0.0659162 -0.00257704 0)
(0.0706607 -0.00256993 0)
(0.0756756 -0.00253724 0)
(0.0807609 -0.00248427 0)
(0.0860141 -0.00250511 0)
(0.0915405 -0.00260915 0)
(0.0971571 -0.00277893 0)
(0.103068 -0.00302582 0)
(0.1092 -0.00326714 0)
(0.115822 -0.00357566 0)
(0.122716 -0.00391361 0)
(0.130305 -0.00433362 0)
(0.138352 -0.00474847 0)
(0.147115 -0.0051701 0)
(0.156549 -0.00558601 0)
(0.166521 -0.00555191 0)
(0.177035 -0.00596416 0)
(0.188213 -0.00615167 0)
(0.199705 -0.00656764 0)
(0.212127 -0.00666521 0)
(0.225407 -0.00750751 0)
(0.238448 -0.00731589 0)
(0.256186 -0.0106184 0)
(0.271231 -0.0107748 0)
(0.290254 -0.013783 0)
(0.309214 -0.010429 0)
(0.327362 -0.00889326 0)
(0.34558 -0.00847955 0)
(0.365081 -0.00852187 0)
(0.384414 -0.0106951 0)
(0.406553 -0.0131321 0)
(0.430599 -0.0130545 0)
(0.456256 -0.0138937 0)
(0.483361 -0.0147993 0)
(0.511889 -0.0155306 0)
(0.54205 -0.0167247 0)
(0.573653 -0.0172875 0)
(0.606534 -0.0176992 0)
(0.640598 -0.0181083 0)
(0.675819 -0.0185659 0)
(0.712196 -0.0190741 0)
(0.749733 -0.0196192 0)
(0.788438 -0.0201908 0)
(0.828254 -0.0207275 0)
(0.869164 -0.0212695 0)
(0.911284 -0.0218654 0)
(0.954802 -0.0225429 0)
(0.999861 -0.0233039 0)
(1.04641 -0.0239627 0)
(1.09423 -0.0244356 0)
(1.14299 -0.0246931 0)
(1.19255 -0.0246078 0)
(1.24265 -0.0238865 0)
(1.2914 -0.0227384 0)
(1.34047 -0.0216264 0)
(1.38092 -0.0217657 0)
(1.43837 -0.021705 0)
(1.47521 -0.0191142 0)
(1.50823 -0.0151948 0)
(1.53954 -0.0114396 0)
(1.56584 -0.00824703 0)
(1.58667 -0.00571321 0)
(1.60218 -0.00377944 0)
(-4.61134e-05 -4.46347e-05 0)
(5.27138e-05 0.000113032 0)
(-0.000148379 -0.000217296 0)
(4.56523e-05 -0.000160193 0)
(0.000197367 -0.000398631 0)
(0.000446915 -0.00051875 0)
(0.000798029 -0.000731112 0)
(0.0012713 -0.00101115 0)
(0.00189006 -0.00128424 0)
(0.00267137 -0.00153154 0)
(0.00357932 -0.00174541 0)
(0.00461504 -0.00192314 0)
(0.00577764 -0.00214227 0)
(0.00710692 -0.00238174 0)
(0.00860174 -0.00259611 0)
(0.0102126 -0.00277488 0)
(0.0119457 -0.00289941 0)
(0.0138402 -0.00302826 0)
(0.0158706 -0.00311488 0)
(0.0179572 -0.00314465 0)
(0.0201002 -0.0031029 0)
(0.0222843 -0.00303813 0)
(0.0244702 -0.00295987 0)
(0.0266631 -0.00288266 0)
(0.0288451 -0.00281102 0)
(0.031065 -0.00273261 0)
(0.0332722 -0.00269675 0)
(0.0354493 -0.00275072 0)
(0.0376969 -0.00290961 0)
(0.0400362 -0.00315137 0)
(0.0424595 -0.00346529 0)
(0.0449831 -0.00384791 0)
(0.0476363 -0.00428675 0)
(0.0504487 -0.00476423 0)
(0.0534446 -0.00525839 0)
(0.0566708 -0.00578961 0)
(0.0601773 -0.00632451 0)
(0.0639874 -0.00681773 0)
(0.0681109 -0.00725824 0)
(0.0725952 -0.00765736 0)
(0.0773964 -0.00803153 0)
(0.0827967 -0.00839475 0)
(0.0883594 -0.00884838 0)
(0.0945127 -0.00904006 0)
(0.101106 -0.00946092 0)
(0.107891 -0.00998297 0)
(0.115678 -0.0105027 0)
(0.122932 -0.0112321 0)
(0.13187 -0.0119098 0)
(0.139843 -0.0128478 0)
(0.14996 -0.0136181 0)
(0.159011 -0.0146578 0)
(0.170036 -0.0154882 0)
(0.180796 -0.0164842 0)
(0.192234 -0.0174369 0)
(0.205704 -0.0182454 0)
(0.216435 -0.0195551 0)
(0.232696 -0.0200881 0)
(0.244435 -0.0218796 0)
(0.263044 -0.0226903 0)
(0.276696 -0.0243846 0)
(0.291318 -0.0260292 0)
(0.310347 -0.0268893 0)
(0.325215 -0.029678 0)
(0.349252 -0.0317478 0)
(0.37066 -0.0345314 0)
(0.397167 -0.0306875 0)
(0.419267 -0.0353761 0)
(0.445533 -0.0383531 0)
(0.473313 -0.0407007 0)
(0.502098 -0.0429146 0)
(0.532162 -0.0451101 0)
(0.56368 -0.0472225 0)
(0.596567 -0.0492341 0)
(0.630881 -0.0511773 0)
(0.666695 -0.053046 0)
(0.704022 -0.0548599 0)
(0.742837 -0.0566109 0)
(0.783051 -0.0583133 0)
(0.824658 -0.0599863 0)
(0.867504 -0.0616655 0)
(0.911491 -0.0635238 0)
(0.956501 -0.0655653 0)
(1.00372 -0.0677073 0)
(1.05234 -0.069889 0)
(1.10215 -0.0718936 0)
(1.15306 -0.0736255 0)
(1.20494 -0.0753063 0)
(1.25836 -0.0767596 0)
(1.31309 -0.0761118 0)
(1.36531 -0.0738223 0)
(1.41728 -0.0718335 0)
(1.4662 -0.0693939 0)
(1.51088 -0.0651732 0)
(1.55225 -0.0591995 0)
(1.59243 -0.0521494 0)
(1.63148 -0.0446853 0)
(1.66723 -0.0373692 0)
(1.70024 -0.0302494 0)
(1.7267 -0.0232893 0)
(-1.47841e-05 5.68969e-05 0)
(-4.10706e-05 5.05043e-05 0)
(-0.000100378 -8.57456e-05 0)
(-0.000107565 -0.000206082 0)
(-0.000136112 -0.000441141 0)
(2.72142e-05 -0.0006876 0)
(0.000196459 -0.00103592 0)
(0.000673037 -0.00137214 0)
(0.00105333 -0.00181533 0)
(0.00187012 -0.00223017 0)
(0.00228692 -0.00263882 0)
(0.00349662 -0.00302777 0)
(0.0046512 -0.00339845 0)
(0.00591169 -0.00373976 0)
(0.00731932 -0.00404956 0)
(0.00884228 -0.00422342 0)
(0.010424 -0.00479655 0)
(0.0121019 -0.00501863 0)
(0.0139338 -0.00513644 0)
(0.0157843 -0.00514058 0)
(0.0176723 -0.00544946 0)
(0.0196868 -0.00525359 0)
(0.0216764 -0.00518876 0)
(0.0237472 -0.00517339 0)
(0.0258994 -0.00512258 0)
(0.0280677 -0.00544084 0)
(0.0301434 -0.0049544 0)
(0.0322285 -0.00509576 0)
(0.0343997 -0.00532122 0)
(0.0366337 -0.00561791 0)
(0.0388926 -0.00600147 0)
(0.0411769 -0.00646926 0)
(0.0435054 -0.00700892 0)
(0.0459013 -0.00760298 0)
(0.0483531 -0.00822647 0)
(0.0509264 -0.00887279 0)
(0.0537206 -0.00956824 0)
(0.0567649 -0.0102786 0)
(0.0600644 -0.0109821 0)
(0.0636518 -0.0116833 0)
(0.0675637 -0.0124037 0)
(0.0718479 -0.0131714 0)
(0.0765234 -0.0139906 0)
(0.0816169 -0.0148712 0)
(0.0871989 -0.0157961 0)
(0.0932271 -0.0167469 0)
(0.0996462 -0.0177762 0)
(0.106458 -0.0189755 0)
(0.113745 -0.0203107 0)
(0.121522 -0.0217475 0)
(0.129817 -0.023219 0)
(0.138637 -0.0247089 0)
(0.148036 -0.0261858 0)
(0.15806 -0.0276271 0)
(0.168682 -0.0290701 0)
(0.179984 -0.0305161 0)
(0.191896 -0.0313334 0)
(0.204586 -0.0359878 0)
(0.217967 -0.0381927 0)
(0.23183 -0.0400556 0)
(0.245971 -0.0419275 0)
(0.263152 -0.0422711 0)
(0.278003 -0.0462033 0)
(0.29559 -0.0470164 0)
(0.315821 -0.0470488 0)
(0.336486 -0.050089 0)
(0.356332 -0.0563974 0)
(0.37725 -0.0604944 0)
(0.399721 -0.0638788 0)
(0.423664 -0.0673872 0)
(0.448884 -0.0710189 0)
(0.475538 -0.0746605 0)
(0.503763 -0.0783303 0)
(0.533586 -0.0819937 0)
(0.565082 -0.0856318 0)
(0.598353 -0.0892045 0)
(0.633422 -0.0928012 0)
(0.670472 -0.0962359 0)
(0.709079 -0.0996671 0)
(0.749869 -0.102682 0)
(0.791583 -0.105255 0)
(0.83446 -0.108583 0)
(0.878696 -0.11258 0)
(0.926073 -0.116435 0)
(0.973822 -0.119747 0)
(1.02331 -0.122684 0)
(1.07423 -0.125271 0)
(1.12761 -0.128323 0)
(1.18199 -0.131715 0)
(1.23443 -0.130378 0)
(1.28561 -0.126202 0)
(1.34026 -0.124061 0)
(1.39041 -0.118311 0)
(1.44297 -0.109233 0)
(1.49722 -0.102193 0)
(1.55161 -0.0955662 0)
(1.60435 -0.0871298 0)
(1.65292 -0.0771117 0)
(1.6958 -0.0658917 0)
(1.73274 -0.053626 0)
(-9.86202e-06 6.7999e-05 0)
(-3.38931e-05 9.31546e-05 0)
(-9.10922e-05 -3.73274e-05 0)
(-0.000122351 -0.0002513 0)
(-9.41798e-05 -0.000540818 0)
(1.24072e-05 -0.000895524 0)
(0.000173796 -0.00134442 0)
(0.000497174 -0.00180915 0)
(0.000880409 -0.00245472 0)
(0.00138783 -0.00268227 0)
(0.00207347 -0.00325565 0)
(0.00299388 -0.00386532 0)
(0.00392795 -0.00449451 0)
(0.00500737 -0.00509806 0)
(0.0062686 -0.00555146 0)
(0.00767262 -0.00606676 0)
(0.00931042 -0.00614115 0)
(0.0108531 -0.00692411 0)
(0.0125706 -0.00701928 0)
(0.0144327 -0.00705033 0)
(0.0162021 -0.00704071 0)
(0.0184803 -0.00696337 0)
(0.0196741 -0.00708672 0)
(0.02311 -0.00696542 0)
(0.0236582 -0.00703772 0)
(0.0263405 -0.0070616 0)
(0.0289629 -0.00710019 0)
(0.0313221 -0.00724068 0)
(0.0336707 -0.00747174 0)
(0.0359941 -0.00773222 0)
(0.0382506 -0.00809645 0)
(0.0404569 -0.00855987 0)
(0.0426307 -0.00910366 0)
(0.0448187 -0.00972041 0)
(0.0469988 -0.0103071 0)
(0.0494258 -0.01143 0)
(0.0516835 -0.0123072 0)
(0.0541248 -0.0132008 0)
(0.0567684 -0.0141474 0)
(0.0596338 -0.0151592 0)
(0.0627649 -0.0162281 0)
(0.0662112 -0.0173851 0)
(0.0700093 -0.0185949 0)
(0.0742283 -0.0199919 0)
(0.0790237 -0.0214644 0)
(0.0841129 -0.0226812 0)
(0.089383 -0.0239005 0)
(0.0950381 -0.0253815 0)
(0.101255 -0.0270782 0)
(0.108045 -0.0289422 0)
(0.115365 -0.0308913 0)
(0.123218 -0.0329433 0)
(0.131653 -0.0350448 0)
(0.140686 -0.0371664 0)
(0.150327 -0.0394136 0)
(0.160629 -0.0417637 0)
(0.171828 -0.0441923 0)
(0.183755 -0.0467133 0)
(0.195951 -0.0493377 0)
(0.208689 -0.0520071 0)
(0.2222 -0.0548733 0)
(0.236718 -0.0577728 0)
(0.252143 -0.0608738 0)
(0.269665 -0.0648044 0)
(0.286603 -0.065939 0)
(0.302054 -0.0693395 0)
(0.320281 -0.0748698 0)
(0.34072 -0.0804023 0)
(0.361688 -0.0854451 0)
(0.383157 -0.0904293 0)
(0.405585 -0.0954473 0)
(0.42918 -0.10048 0)
(0.454083 -0.105579 0)
(0.480441 -0.110753 0)
(0.50846 -0.116052 0)
(0.53816 -0.121335 0)
(0.569972 -0.126996 0)
(0.603454 -0.132221 0)
(0.639483 -0.13809 0)
(0.677219 -0.142842 0)
(0.715558 -0.145559 0)
(0.75668 -0.150288 0)
(0.801736 -0.156765 0)
(0.850217 -0.163184 0)
(0.901014 -0.168769 0)
(0.953849 -0.173673 0)
(1.00708 -0.17797 0)
(1.06532 -0.18128 0)
(1.11157 -0.182962 0)
(1.15639 -0.183267 0)
(1.23598 -0.182774 0)
(1.29187 -0.180668 0)
(1.35436 -0.17709 0)
(1.42955 -0.172668 0)
(1.49392 -0.166051 0)
(1.55383 -0.156097 0)
(1.61137 -0.14296 0)
(1.66357 -0.127105 0)
(1.70942 -0.108919 0)
(1.74794 -0.0889311 0)
(-1.03953e-05 9.15046e-05 0)
(-3.12347e-05 0.000145301 0)
(-0.000100116 -1.7613e-05 0)
(-9.89406e-05 -0.00023041 0)
(-9.7945e-05 -0.00059365 0)
(3.38634e-05 -0.00100147 0)
(0.000186098 -0.00154882 0)
(0.000497263 -0.00213543 0)
(0.000889066 -0.0027932 0)
(0.00137565 -0.00348988 0)
(0.00209349 -0.00419418 0)
(0.00287386 -0.00493231 0)
(0.00387982 -0.00558428 0)
(0.00489969 -0.00621944 0)
(0.00620244 -0.00675664 0)
(0.00748969 -0.00730329 0)
(0.00899517 -0.0077603 0)
(0.0106051 -0.00818873 0)
(0.012189 -0.00856566 0)
(0.0139112 -0.0088509 0)
(0.0157436 -0.00906364 0)
(0.017729 -0.00923183 0)
(0.0197194 -0.0093372 0)
(0.021787 -0.00936107 0)
(0.0240052 -0.00929252 0)
(0.0261584 -0.00944222 0)
(0.0282266 -0.00962235 0)
(0.0302918 -0.00975903 0)
(0.0323902 -0.00991387 0)
(0.0345341 -0.0101392 0)
(0.036655 -0.0104594 0)
(0.0387704 -0.010877 0)
(0.040854 -0.0114019 0)
(0.0429788 -0.0120335 0)
(0.0450552 -0.0127564 0)
(0.0473442 -0.0136074 0)
(0.0494575 -0.0144803 0)
(0.0519083 -0.0155141 0)
(0.0542554 -0.0165897 0)
(0.0570681 -0.0178114 0)
(0.0597118 -0.0190298 0)
(0.0631669 -0.0206113 0)
(0.0659576 -0.0219178 0)
(0.0707052 -0.023767 0)
(0.0723367 -0.0255736 0)
(0.0775645 -0.0274616 0)
(0.0835357 -0.0294806 0)
(0.0895303 -0.0316429 0)
(0.0959945 -0.0338999 0)
(0.102999 -0.0362695 0)
(0.11041 -0.0387291 0)
(0.118272 -0.041349 0)
(0.126633 -0.0440094 0)
(0.135411 -0.0465517 0)
(0.144587 -0.0492355 0)
(0.154375 -0.0521991 0)
(0.164824 -0.0552518 0)
(0.175782 -0.0586422 0)
(0.187138 -0.062166 0)
(0.199066 -0.0655972 0)
(0.21179 -0.0693988 0)
(0.225104 -0.0726007 0)
(0.23876 -0.0763923 0)
(0.254703 -0.0802844 0)
(0.270299 -0.0855961 0)
(0.284998 -0.0896327 0)
(0.30205 -0.0940291 0)
(0.320496 -0.0996165 0)
(0.339409 -0.105538 0)
(0.359131 -0.111303 0)
(0.380124 -0.117155 0)
(0.402472 -0.123316 0)
(0.426184 -0.129816 0)
(0.45128 -0.136609 0)
(0.478105 -0.143622 0)
(0.505652 -0.150818 0)
(0.537574 -0.15815 0)
(0.563997 -0.165666 0)
(0.608186 -0.173304 0)
(0.626007 -0.181159 0)
(0.688028 -0.189294 0)
(0.732751 -0.197731 0)
(0.777593 -0.20615 0)
(0.82588 -0.214192 0)
(0.876478 -0.221662 0)
(0.928796 -0.228344 0)
(0.983116 -0.2341 0)
(1.04016 -0.237824 0)
(1.10101 -0.23923 0)
(1.16419 -0.242705 0)
(1.22664 -0.246363 0)
(1.29029 -0.244955 0)
(1.35522 -0.243373 0)
(1.41881 -0.240998 0)
(1.48142 -0.231645 0)
(1.54409 -0.216487 0)
(1.60476 -0.19806 0)
(1.66094 -0.176536 0)
(1.71121 -0.151685 0)
(1.75413 -0.123971 0)
(-9.99858e-06 0.000122427 0)
(-3.71347e-05 0.000171159 0)
(-8.45082e-05 3.03327e-05 0)
(-0.000106033 -0.000240682 0)
(-8.49331e-05 -0.000643999 0)
(1.21446e-05 -0.00115515 0)
(0.000181748 -0.00178298 0)
(0.000467087 -0.00248487 0)
(0.000853952 -0.00325776 0)
(0.00137419 -0.00405305 0)
(0.00204857 -0.00486977 0)
(0.00285823 -0.00570033 0)
(0.00379592 -0.0065158 0)
(0.00485728 -0.00730435 0)
(0.00604928 -0.00804648 0)
(0.00738281 -0.00872898 0)
(0.00883066 -0.00933817 0)
(0.0104004 -0.0098812 0)
(0.0120443 -0.0103236 0)
(0.013765 -0.0106586 0)
(0.0156163 -0.0109007 0)
(0.0175188 -0.0110611 0)
(0.0194813 -0.0111863 0)
(0.021479 -0.0112673 0)
(0.0235172 -0.0113326 0)
(0.0255712 -0.0114524 0)
(0.0276085 -0.011575 0)
(0.0296259 -0.0116863 0)
(0.0316366 -0.0118379 0)
(0.0336436 -0.0120694 0)
(0.0356368 -0.0123946 0)
(0.0376315 -0.0128226 0)
(0.0395989 -0.0133555 0)
(0.0416076 -0.014006 0)
(0.0436288 -0.014782 0)
(0.0457087 -0.0157043 0)
(0.0478383 -0.0167492 0)
(0.0500532 -0.0179087 0)
(0.0524742 -0.0192019 0)
(0.0549895 -0.0206453 0)
(0.0578872 -0.0222341 0)
(0.0608617 -0.0238416 0)
(0.0642676 -0.0256786 0)
(0.0679909 -0.027476 0)
(0.0721852 -0.0294526 0)
(0.0766499 -0.0319355 0)
(0.0813091 -0.0347123 0)
(0.0862623 -0.0374592 0)
(0.0916087 -0.0400881 0)
(0.0978942 -0.0430993 0)
(0.104034 -0.0457495 0)
(0.111618 -0.0489069 0)
(0.11769 -0.0520149 0)
(0.126538 -0.0551933 0)
(0.135513 -0.0584902 0)
(0.144802 -0.0619325 0)
(0.154194 -0.0655283 0)
(0.16523 -0.0693251 0)
(0.175146 -0.0732672 0)
(0.187428 -0.0773004 0)
(0.199951 -0.0814505 0)
(0.209355 -0.0857442 0)
(0.231112 -0.0900984 0)
(0.23549 -0.0941892 0)
(0.255078 -0.100322 0)
(0.274886 -0.105951 0)
(0.292461 -0.111571 0)
(0.310797 -0.11792 0)
(0.330092 -0.124715 0)
(0.350228 -0.131736 0)
(0.371628 -0.139048 0)
(0.394579 -0.146654 0)
(0.419028 -0.154531 0)
(0.444913 -0.162701 0)
(0.472342 -0.171127 0)
(0.501417 -0.17995 0)
(0.532455 -0.188812 0)
(0.565486 -0.198477 0)
(0.600862 -0.207934 0)
(0.63848 -0.218747 0)
(0.676798 -0.231901 0)
(0.716361 -0.243305 0)
(0.759393 -0.25306 0)
(0.806062 -0.262527 0)
(0.855443 -0.272006 0)
(0.907249 -0.281076 0)
(0.961815 -0.289324 0)
(1.01944 -0.296436 0)
(1.08023 -0.30261 0)
(1.14385 -0.308426 0)
(1.20941 -0.312562 0)
(1.27667 -0.313317 0)
(1.34575 -0.3111 0)
(1.41541 -0.305151 0)
(1.48438 -0.294044 0)
(1.55226 -0.278152 0)
(1.61807 -0.257696 0)
(1.67992 -0.232095 0)
(1.73581 -0.201047 0)
(1.78349 -0.164949 0)
(-9.31888e-06 0.000146603 0)
(-3.72041e-05 0.000209542 0)
(-8.19196e-05 6.31667e-05 0)
(-0.000106031 -0.000244092 0)
(-8.3938e-05 -0.000701134 0)
(3.03332e-06 -0.00129222 0)
(0.000173197 -0.00200507 0)
(0.000443401 -0.00281821 0)
(0.000827657 -0.00370517 0)
(0.00134051 -0.00463968 0)
(0.00197961 -0.00560866 0)
(0.00276891 -0.00658608 0)
(0.00367306 -0.00755601 0)
(0.00473327 -0.00848001 0)
(0.00590164 -0.00935151 0)
(0.00722622 -0.0101429 0)
(0.00864613 -0.0108579 0)
(0.0101835 -0.011485 0)
(0.011812 -0.0120112 0)
(0.0135046 -0.0124388 0)
(0.0153056 -0.0127674 0)
(0.017148 -0.0130197 0)
(0.0190456 -0.0132038 0)
(0.0209835 -0.0133336 0)
(0.0229468 -0.0134265 0)
(0.0249261 -0.0135086 0)
(0.0268998 -0.0135972 0)
(0.0288523 -0.0137049 0)
(0.0307887 -0.0138566 0)
(0.0327196 -0.0140778 0)
(0.0346407 -0.0143888 0)
(0.0365724 -0.0148068 0)
(0.0384705 -0.015339 0)
(0.0404341 -0.0160114 0)
(0.0423787 -0.0168228 0)
(0.0444255 -0.0178023 0)
(0.0464904 -0.0189173 0)
(0.0487175 -0.0201996 0)
(0.0510585 -0.0216297 0)
(0.0535869 -0.0232318 0)
(0.0563474 -0.0250138 0)
(0.0592786 -0.0269361 0)
(0.0625997 -0.0290724 0)
(0.0661449 -0.0313338 0)
(0.0701159 -0.0338636 0)
(0.0743861 -0.0366686 0)
(0.0790375 -0.0396799 0)
(0.0839101 -0.0426551 0)
(0.0892848 -0.0457775 0)
(0.0950663 -0.0489994 0)
(0.101315 -0.0523841 0)
(0.108089 -0.0557986 0)
(0.115383 -0.0594038 0)
(0.123088 -0.0632968 0)
(0.131301 -0.0673748 0)
(0.140101 -0.0713811 0)
(0.149571 -0.0755461 0)
(0.15969 -0.0798903 0)
(0.170394 -0.0844678 0)
(0.181716 -0.089297 0)
(0.193871 -0.0939817 0)
(0.206718 -0.0994786 0)
(0.220294 -0.104922 0)
(0.234742 -0.110651 0)
(0.249822 -0.117154 0)
(0.265195 -0.124393 0)
(0.281657 -0.130857 0)
(0.299969 -0.137216 0)
(0.319461 -0.144462 0)
(0.339632 -0.152665 0)
(0.360786 -0.161442 0)
(0.38326 -0.170553 0)
(0.407145 -0.179948 0)
(0.432521 -0.18967 0)
(0.459534 -0.199784 0)
(0.488321 -0.210375 0)
(0.519021 -0.221435 0)
(0.551751 -0.233132 0)
(0.586577 -0.245322 0)
(0.623569 -0.258326 0)
(0.662653 -0.271826 0)
(0.703892 -0.284566 0)