/*--------------------------------*- C++ -*----------------------------------*\
| =========                 |                                                 |
| \\      /  F ield         | OpenFOAM: The Open Source CFD Toolbox           |
|  \\    /   O peration     | Version:  2206                                  |
|   \\  /    A nd           | Website:  www.openfoam.com                      |
|    \\/     M anipulation  |                                                 |
\*---------------------------------------------------------------------------*/
FoamFile
{
    version     2.0;
    format      ascii;
    arch        "LSB;label=32;scalar=64";
    class       volVectorField;
    location    "18.3999";
    object      ddt0(U);
}
// * * * * * * * * * * * * * * * * * * * * * * * * * * * * * * * * * * * * * //

dimensions      [0 1 -2 0 0 0 0];

internalField   nonuniform List<vector> 
3025
(
(-8.57019e-06 -0.00102322 0)
(-4.64895e-05 -0.00300317 0)
(-0.000132507 -0.00494754 0)
(-0.000266214 -0.00683649 0)
(-0.000442052 -0.00863913 0)
(-0.000657759 -0.0103027 0)
(-0.000909009 -0.0117847 0)
(-0.0011937 -0.0130549 0)
(-0.00150576 -0.0140926 0)
(-0.00184122 -0.0148844 0)
(-0.0021926 -0.0154251 0)
(-0.00255615 -0.0157158 0)
(-0.00292425 -0.0157652 0)
(-0.00329381 -0.015588 0)
(-0.00365766 -0.0152064 0)
(-0.00401357 -0.0146497 0)
(-0.00435548 -0.0139548 0)
(-0.00468295 -0.0131644 0)
(-0.00499155 -0.0123255 0)
(-0.00528173 -0.0114859 0)
(-0.00555156 -0.0106939 0)
(-0.00580549 -0.00999604 0)
(-0.00604349 -0.00943683 0)
(-0.00627016 -0.00905661 0)
(-0.0064882 -0.00889212 0)
(-0.00670638 -0.00897507 0)
(-0.00692772 -0.00933275 0)
(-0.00716357 -0.0099845 0)
(-0.0074086 -0.0109484 0)
(-0.0076905 -0.0122316 0)
(-0.0080007 -0.0138361 0)
(-0.00836124 -0.01576 0)
(-0.00875542 -0.01799 0)
(-0.00922897 -0.0205163 0)
(-0.0097419 -0.0233118 0)
(-0.0103534 -0.026361 0)
(-0.0110161 -0.0296292 0)
(-0.011785 -0.0330961 0)
(-0.012619 -0.036726 0)
(-0.0135639 -0.0404975 0)
(-0.0145827 -0.0443786 0)
(-0.0157177 -0.0483527 0)
(-0.0169325 -0.0523945 0)
(-0.0182564 -0.0564926 0)
(-0.0196858 -0.0606404 0)
(-0.0211892 -0.06482 0)
(-0.0228438 -0.0690629 0)
(-0.0245367 -0.0733337 0)
(-0.0263967 -0.0777003 0)
(-0.0283265 -0.0821416 0)
(-0.0303503 -0.0866922 0)
(-0.0325627 -0.091447 0)
(-0.034771 -0.0963106 0)
(-0.0372116 -0.101507 0)
(-0.0397118 -0.106937 0)
(-0.0423333 -0.112717 0)
(-0.0451396 -0.119041 0)
(-0.0480175 -0.125747 0)
(-0.0510975 -0.133024 0)
(-0.0543882 -0.14091 0)
(-0.0578781 -0.149469 0)
(-0.0615751 -0.158764 0)
(-0.0655089 -0.168864 0)
(-0.0697099 -0.17983 0)
(-0.07421 -0.191732 0)
(-0.0790388 -0.204634 0)
(-0.0842299 -0.218604 0)
(-0.0898147 -0.233697 0)
(-0.09583 -0.249976 0)
(-0.102313 -0.267499 0)
(-0.109312 -0.286332 0)
(-0.116878 -0.306541 0)
(-0.125074 -0.328201 0)
(-0.133965 -0.351387 0)
(-0.143629 -0.376184 0)
(-0.15415 -0.402683 0)
(-0.165628 -0.430986 0)
(-0.178172 -0.461205 0)
(-0.191914 -0.493474 0)
(-0.207005 -0.527939 0)
(-0.22363 -0.564776 0)
(-0.242003 -0.604185 0)
(-0.262388 -0.646399 0)
(-0.285092 -0.691691 0)
(-0.310504 -0.740381 0)
(-0.339099 -0.792846 0)
(-0.371455 -0.849543 0)
(-0.408268 -0.911024 0)
(-0.450426 -0.977971 0)
(-0.49904 -1.05127 0)
(-0.555536 -1.1321 0)
(-0.621706 -1.2221 0)
(-0.700148 -1.32368 0)
(-0.79383 -1.44063 0)
(-0.909389 -1.57867 0)
(-1.05192 -1.75082 0)
(-1.25367 -1.96149 0)
(-1.52406 -2.30299 0)
(-2.23416 -2.60994 0)
(-2.99884 -3.80371 0)
(-1.01971e-05 -0.000998055 0)
(-5.41071e-05 -0.0029299 0)
(-0.000155029 -0.00482646 0)
(-0.000311232 -0.00666896 0)
(-0.000517476 -0.00842653 0)
(-0.000769522 -0.0100477 0)
(-0.00106443 -0.0114916 0)
(-0.00139739 -0.012729 0)
(-0.00176384 -0.0137395 0)
(-0.00215645 -0.0145101 0)
(-0.00256961 -0.0150356 0)
(-0.00299543 -0.0153171 0)
(-0.00342856 -0.0153633 0)
(-0.00386163 -0.0151882 0)
(-0.00428959 -0.014814 0)
(-0.0047064 -0.0142689 0)
(-0.00510804 -0.01359 0)
(-0.00549111 -0.012818 0)
(-0.00585319 -0.0119992 0)
(-0.00619231 -0.0111796 0)
(-0.00650954 -0.0104077 0)
(-0.00680679 -0.00972753 0)
(-0.00708654 -0.00918296 0)
(-0.00735189 -0.00881248 0)
(-0.00760883 -0.00865335 0)
(-0.00786458 -0.00873485 0)
(-0.00812407 -0.00908424 0)
(-0.00840178 -0.0097197 0)
(-0.00868433 -0.0106588 0)
(-0.00902247 -0.0119095 0)
(-0.00937837 -0.0134727 0)
(-0.00980269 -0.0153458 0)
(-0.0102668 -0.0175184 0)
(-0.0108115 -0.0199762 0)
(-0.0114285 -0.0227006 0)
(-0.0121222 -0.0256659 0)
(-0.012923 -0.0288509 0)
(-0.0137961 -0.0322214 0)
(-0.0147992 -0.0357587 0)
(-0.0158782 -0.0394254 0)
(-0.0171006 -0.0432088 0)
(-0.0183995 -0.0470709 0)
(-0.0198528 -0.0510129 0)
(-0.0213811 -0.054996 0)
(-0.0230651 -0.0590383 0)
(-0.0248405 -0.0631099 0)
(-0.0267398 -0.0672303 0)
(-0.0287878 -0.071411 0)
(-0.0308883 -0.0756307 0)
(-0.0332234 -0.0799929 0)
(-0.0355448 -0.0843946 0)
(-0.0381349 -0.0890328 0)
(-0.0407571 -0.0937953 0)
(-0.0435538 -0.0988203 0)
(-0.0465071 -0.104151 0)
(-0.0495593 -0.109779 0)
(-0.0528166 -0.115933 0)
(-0.0562396 -0.122489 0)
(-0.0598826 -0.129561 0)
(-0.063726 -0.13724 0)
(-0.0678078 -0.14557 0)
(-0.0721487 -0.154609 0)
(-0.0767698 -0.164435 0)
(-0.0817001 -0.175103 0)
(-0.0869705 -0.186676 0)
(-0.0926161 -0.199211 0)
(-0.0986741 -0.212771 0)
(-0.105188 -0.227409 0)
(-0.1122 -0.243191 0)
(-0.119759 -0.26017 0)
(-0.127917 -0.278411 0)
(-0.136733 -0.297974 0)
(-0.14627 -0.318925 0)
(-0.156604 -0.34133 0)
(-0.167817 -0.365264 0)
(-0.180004 -0.390801 0)
(-0.193272 -0.418032 0)
(-0.207746 -0.447049 0)
(-0.22357 -0.477963 0)
(-0.240915 -0.510896 0)
(-0.25998 -0.545989 0)
(-0.281004 -0.583403 0)
(-0.304272 -0.623317 0)
(-0.330126 -0.665942 0)
(-0.358986 -0.711516 0)
(-0.391376 -0.760322 0)
(-0.427921 -0.812673 0)
(-0.469409 -0.868961 0)
(-0.516843 -0.929641 0)
(-0.571523 -0.995299 0)
(-0.635143 -1.06667 0)
(-0.710022 -1.14474 0)
(-0.799515 -1.23092 0)
(-0.908135 -1.3273 0)
(-1.04596 -1.43638 0)
(-1.21514 -1.56455 0)
(-1.48623 -1.70679 0)
(-1.68462 -1.89259 0)
(-2.7052 -2.06341 0)
(-1.90582 -1.81981 0)
(-1.15665e-05 -0.000969228 0)
(-6.17052e-05 -0.00284557 0)
(-0.000176732 -0.00468649 0)
(-0.000355224 -0.00647577 0)
(-0.00059065 -0.00818194 0)
(-0.000878652 -0.00975496 0)
(-0.00121545 -0.0111548 0)
(-0.00159634 -0.0123536 0)
(-0.00201487 -0.0133317 0)
(-0.00246393 -0.0140772 0)
(-0.0029357 -0.0145845 0)
(-0.00342286 -0.0148555 0)
(-0.00391782 -0.0148978 0)
(-0.00441356 -0.0147258 0)
(-0.00490298 -0.0143603 0)
(-0.00537994 -0.0138296 0)
(-0.00583945 -0.0131687 0)
(-0.00627775 -0.0124183 0)
(-0.00669167 -0.0116224 0)
(-0.00707995 -0.0108269 0)
(-0.00744322 -0.0100776 0)
(-0.00778349 -0.00941816 0)
(-0.00810335 -0.00889009 0)
(-0.00840733 -0.00853193 0)
(-0.0087016 -0.00837815 0)
(-0.00899419 -0.00845857 0)
(-0.00929044 -0.00879783 0)
(-0.00960788 -0.00941607 0)
(-0.00993169 -0.0103264 0)
(-0.0103138 -0.0115392 0)
(-0.0107275 -0.013055 0)
(-0.0111995 -0.0148701 0)
(-0.0117416 -0.0169763 0)
(-0.0123514 -0.0193567 0)
(-0.0130625 -0.0219964 0)
(-0.0138497 -0.0248681 0)
(-0.014763 -0.0279525 0)
(-0.0157611 -0.0312166 0)
(-0.0169034 -0.0346418 0)
(-0.0181383 -0.0381927 0)
(-0.0195286 -0.0418556 0)
(-0.0210225 -0.0455981 0)
(-0.0226631 -0.0494105 0)
(-0.0244378 -0.0532773 0)
(-0.0263247 -0.0571799 0)
(-0.0283916 -0.0611399 0)
(-0.0305289 -0.0651158 0)
(-0.0328851 -0.0691793 0)
(-0.0352924 -0.0732646 0)
(-0.0379184 -0.0774802 0)
(-0.0406406 -0.0817807 0)
(-0.0435086 -0.0862256 0)
(-0.0465706 -0.0908959 0)
(-0.0497399 -0.0957512 0)
(-0.0530792 -0.100894 0)
(-0.0566384 -0.106459 0)
(-0.0603226 -0.112352 0)
(-0.0642216 -0.118702 0)
(-0.0683871 -0.125534 0)
(-0.0728127 -0.132971 0)
(-0.0774735 -0.14103 0)
(-0.0824244 -0.149791 0)
(-0.0877026 -0.159308 0)
(-0.0933317 -0.169635 0)
(-0.0993472 -0.180827 0)
(-0.105786 -0.192945 0)
(-0.112689 -0.206041 0)
(-0.120102 -0.220177 0)
(-0.128075 -0.235405 0)
(-0.13666 -0.251781 0)
(-0.145915 -0.269358 0)
(-0.155905 -0.288193 0)
(-0.166702 -0.308339 0)
(-0.178385 -0.329857 0)
(-0.191044 -0.352809 0)
(-0.204782 -0.377261 0)
(-0.219713 -0.403284 0)
(-0.23597 -0.430957 0)
(-0.253706 -0.460365 0)
(-0.273102 -0.491603 0)
(-0.294369 -0.524776 0)
(-0.317756 -0.560001 0)
(-0.343561 -0.597406 0)
(-0.372139 -0.637128 0)
(-0.403932 -0.679326 0)
(-0.439471 -0.724164 0)
(-0.479409 -0.771822 0)
(-0.524562 -0.822492 0)
(-0.57597 -0.876386 0)
(-0.634982 -0.933705 0)
(-0.703356 -0.994671 0)
(-0.783523 -1.05945 0)
(-0.878863 -1.12816 0)
(-0.993934 -1.20052 0)
(-1.13786 -1.27601 0)
(-1.31246 -1.3508 0)
(-1.56872 -1.42369 0)
(-1.80908 -1.45475 0)
(-2.41988 -1.48435 0)
(-2.73243 -1.3464 0)
(-1.26602e-05 -0.000937324 0)
(-6.76237e-05 -0.00275185 0)
(-0.000196681 -0.00452907 0)
(-0.000397568 -0.00625622 0)
(-0.000661358 -0.00790325 0)
(-0.000982941 -0.00942185 0)
(-0.00135916 -0.0107731 0)
(-0.00178553 -0.0119294 0)
(-0.00225492 -0.0128719 0)
(-0.00275881 -0.0135889 0)
(-0.00328816 -0.0140756 0)
(-0.00383457 -0.0143337 0)
(-0.00438973 -0.0143713 0)
(-0.0049457 -0.0142022 0)
(-0.00549473 -0.0138467 0)
(-0.00602999 -0.0133319 0)
(-0.00654576 -0.0126919 0)
(-0.00703775 -0.0119658 0)
(-0.0075027 -0.0111963 0)
(-0.0079392 -0.0104276 0)
(-0.00834758 -0.00970392 0)
(-0.00872998 -0.00906744 0)
(-0.00908953 -0.00855834 0)
(-0.00943131 -0.00821351 0)
(-0.00976197 -0.00806627 0)
(-0.0100902 -0.00814504 0)
(-0.0104233 -0.00847379 0)
(-0.0107768 -0.00907131 0)
(-0.0111482 -0.00995104 0)
(-0.0115615 -0.0111207 0)
(-0.0120363 -0.0125834 0)
(-0.0125557 -0.0143331 0)
(-0.0131634 -0.0163633 0)
(-0.0138489 -0.0186578 0)
(-0.0146329 -0.0212001 0)
(-0.0155282 -0.0239679 0)
(-0.0165293 -0.0269365 0)
(-0.0176688 -0.030083 0)
(-0.0189199 -0.0333775 0)
(-0.0203324 -0.0368024 0)
(-0.0218558 -0.040323 0)
(-0.0235601 -0.0439349 0)
(-0.0253732 -0.0476002 0)
(-0.027371 -0.0513285 0)
(-0.0294953 -0.055091 0)
(-0.0317762 -0.0588952 0)
(-0.0342298 -0.0627491 0)
(-0.0367879 -0.0666301 0)
(-0.039582 -0.0706166 0)
(-0.0424253 -0.0746244 0)
(-0.0455497 -0.0788216 0)
(-0.0487329 -0.0830857 0)
(-0.0521449 -0.0875798 0)
(-0.0557286 -0.0922948 0)
(-0.0594555 -0.0972463 0)
(-0.0634258 -0.102603 0)
(-0.0675699 -0.108291 0)
(-0.0719577 -0.114392 0)
(-0.0766469 -0.120971 0)
(-0.0816068 -0.128227 0)
(-0.0868312 -0.135989 0)
(-0.0923859 -0.144395 0)
(-0.0982834 -0.153543 0)
(-0.10457 -0.163466 0)
(-0.111291 -0.174225 0)
(-0.118483 -0.185871 0)
(-0.12619 -0.198456 0)
(-0.134461 -0.21203 0)
(-0.143347 -0.226644 0)
(-0.152905 -0.242347 0)
(-0.163198 -0.259186 0)
(-0.174297 -0.277212 0)
(-0.186277 -0.296473 0)
(-0.199222 -0.317019 0)
(-0.213228 -0.338901 0)
(-0.2284 -0.362173 0)
(-0.244859 -0.386889 0)
(-0.26274 -0.413108 0)
(-0.282204 -0.440893 0)
(-0.303433 -0.47031 0)
(-0.326643 -0.501428 0)
(-0.352086 -0.534323 0)
(-0.38006 -0.569066 0)
(-0.410921 -0.605731 0)
(-0.445102 -0.644387 0)
(-0.483124 -0.685094 0)
(-0.525623 -0.72789 0)
(-0.573387 -0.772785 0)
(-0.627403 -0.819731 0)
(-0.688928 -0.868591 0)
(-0.75957 -0.919074 0)
(-0.841459 -0.970634 0)
(-0.937402 -1.02227 0)
(-1.05095 -1.07209 0)
(-1.18801 -1.1172 0)
(-1.35093 -1.14958 0)
(-1.56086 -1.16734 0)
(-1.78948 -1.11363 0)
(-2.09191 -1.04727 0)
(-2.51278 -0.873553 0)
(-1.30588e-05 -0.000899783 0)
(-6.96425e-05 -0.0026452 0)
(-0.000209779 -0.00435572 0)
(-0.000431698 -0.00601716 0)
(-0.000724147 -0.00759976 0)
(-0.00107999 -0.00905541 0)
(-0.00149549 -0.0103485 0)
(-0.00196574 -0.0114551 0)
(-0.00248333 -0.0123576 0)
(-0.00303892 -0.0130441 0)
(-0.00362297 -0.0135092 0)
(-0.00422629 -0.013754 0)
(-0.00483994 -0.0137865 0)
(-0.00545474 -0.0136203 0)
(-0.00606202 -0.0132752 0)
(-0.00665417 -0.0127775 0)
(-0.00722496 -0.0121601 0)
(-0.0077694 -0.0114607 0)
(-0.00828409 -0.0107203 0)
(-0.00876746 -0.00998153 0)
(-0.00921997 -0.0092867 0)
(-0.00964355 -0.00867628 0)
(-0.0100419 -0.00818858 0)
(-0.0104205 -0.00785902 0)
(-0.0107868 -0.00771934 0)
(-0.0111498 -0.00779674 0)
(-0.0115177 -0.00811416 0)
(-0.0119086 -0.00868883 0)
(-0.0123146 -0.00953465 0)
(-0.0127779 -0.0106586 0)
(-0.0132889 -0.0120612 0)
(-0.0138724 -0.0137405 0)
(-0.0145284 -0.0156855 0)
(-0.0152912 -0.0178856 0)
(-0.0161471 -0.0203197 0)
(-0.0171338 -0.0229711 0)
(-0.0182351 -0.0258126 0)
(-0.0194874 -0.0288253 0)
(-0.0208683 -0.0319784 0)
(-0.0224184 -0.0352563 0)
(-0.0241077 -0.0386278 0)
(-0.0259683 -0.0420813 0)
(-0.0279933 -0.0455978 0)
(-0.030165 -0.0491575 0)
(-0.03254 -0.0527729 0)
(-0.0350294 -0.0564049 0)
(-0.0377507 -0.0601062 0)
(-0.0405789 -0.0638244 0)
(-0.0436258 -0.0676302 0)
(-0.0468331 -0.0715111 0)
(-0.0501873 -0.0754748 0)
(-0.053786 -0.0796288 0)
(-0.0575129 -0.0839058 0)
(-0.06145 -0.0884148 0)
(-0.0656276 -0.0932409 0)
(-0.0699693 -0.0983292 0)
(-0.0745429 -0.103792 0)
(-0.0793642 -0.109703 0)
(-0.0846394 -0.116109 0)
(-0.0901427 -0.122846 0)
(-0.0957888 -0.130271 0)
(-0.101906 -0.138357 0)
(-0.108434 -0.147116 0)
(-0.11537 -0.156625 0)
(-0.122774 -0.166923 0)
(-0.130685 -0.178058 0)
(-0.139152 -0.19008 0)
(-0.148228 -0.203038 0)
(-0.157971 -0.216979 0)
(-0.168441 -0.231947 0)
(-0.179706 -0.247985 0)
(-0.191839 -0.265135 0)
(-0.204918 -0.283438 0)
(-0.219031 -0.302935 0)
(-0.234276 -0.323666 0)
(-0.25076 -0.345671 0)
(-0.268606 -0.368992 0)
(-0.287951 -0.393667 0)
(-0.308953 -0.419738 0)
(-0.331798 -0.447243 0)
(-0.356684 -0.476215 0)
(-0.383878 -0.506691 0)
(-0.413659 -0.538694 0)
(-0.446368 -0.572233 0)
(-0.48241 -0.607301 0)
(-0.522272 -0.643859 0)
(-0.566533 -0.681821 0)
(-0.615904 -0.721035 0)
(-0.671247 -0.761244 0)
(-0.733632 -0.802033 0)
(-0.804368 -0.842744 0)
(-0.885079 -0.882345 0)
(-0.977744 -0.919197 0)
(-1.08466 -0.950709 0)
(-1.20877 -0.973021 0)
(-1.35186 -0.978771 0)
(-1.51791 -0.962481 0)
(-1.70541 -0.898635 0)
(-1.88653 -0.777 0)
(-2.13972 -0.624534 0)
(-1.42626e-05 -0.000878517 0)
(-7.8507e-05 -0.00253052 0)
(-0.000230783 -0.00415764 0)
(-0.000467675 -0.00574382 0)
(-0.000778638 -0.0072604 0)
(-0.00115937 -0.00865405 0)
(-0.0016107 -0.00988744 0)
(-0.00212627 -0.0109397 0)
(-0.00269419 -0.0117964 0)
(-0.00330217 -0.0124471 0)
(-0.00393946 -0.0128865 0)
(-0.00459709 -0.0131162 0)
(-0.00526612 -0.0131436 0)
(-0.00593704 -0.0129813 0)
(-0.00660031 -0.0126482 0)
(-0.00724756 -0.0121697 0)
(-0.00787186 -0.0115773 0)
(-0.00846782 -0.0109069 0)
(-0.00903171 -0.010198 0)
(-0.00956171 -0.00949146 0)
(-0.0100578 -0.00882774 0)
(-0.0105222 -0.00824547 0)
(-0.0109587 -0.00778111 0)
(-0.0113736 -0.00746824 0)
(-0.0117743 -0.00733697 0)
(-0.012171 -0.0074132 0)
(-0.0125717 -0.00771848 0)
(-0.0129985 -0.00826954 0)
(-0.0134349 -0.00907777 0)
(-0.0139444 -0.0101514 0)
(-0.0144947 -0.01149 0)
(-0.0151261 -0.0130911 0)
(-0.0158439 -0.0149456 0)
(-0.0166602 -0.0170396 0)
(-0.0176025 -0.0193586 0)
(-0.018658 -0.0218793 0)
(-0.0198704 -0.0245849 0)
(-0.0212134 -0.0274471 0)
(-0.0227346 -0.0304496 0)
(-0.0243979 -0.0335612 0)
(-0.0262584 -0.0367735 0)
(-0.028265 -0.040052 0)
(-0.0304772 -0.0433999 0)
(-0.0328502 -0.0467882 0)
(-0.035409 -0.0502194 0)
(-0.0381682 -0.0536944 0)
(-0.0410674 -0.0571891 0)
(-0.0442257 -0.0607683 0)
(-0.0474703 -0.0643491 0)
(-0.0510195 -0.0680809 0)
(-0.0546628 -0.0718477 0)
(-0.0585612 -0.0757881 0)
(-0.0626589 -0.0798915 0)
(-0.0669413 -0.0841811 0)
(-0.0714877 -0.0887736 0)
(-0.0762472 -0.0936293 0)
(-0.0813004 -0.0988379 0)
(-0.0866582 -0.104473 0)
(-0.0921352 -0.110582 0)
(-0.098011 -0.116994 0)
(-0.10442 -0.124063 0)
(-0.111095 -0.131759 0)
(-0.118159 -0.14009 0)
(-0.125696 -0.14913 0)
(-0.133729 -0.15892 0)
(-0.142311 -0.169503 0)
(-0.151494 -0.180921 0)
(-0.161331 -0.19322 0)
(-0.171882 -0.206442 0)
(-0.183209 -0.220625 0)
(-0.195381 -0.235808 0)
(-0.208473 -0.252024 0)
(-0.222568 -0.269309 0)
(-0.237754 -0.287694 0)
(-0.25413 -0.30721 0)
(-0.271803 -0.327886 0)
(-0.290895 -0.349747 0)
(-0.311542 -0.372816 0)
(-0.333897 -0.397112 0)
(-0.358137 -0.422648 0)
(-0.384464 -0.44943 0)
(-0.413109 -0.477452 0)
(-0.444342 -0.506693 0)
(-0.478477 -0.537113 0)
(-0.515881 -0.568639 0)
(-0.556985 -0.601152 0)
(-0.60229 -0.634467 0)
(-0.652393 -0.66831 0)
(-0.707993 -0.702273 0)
(-0.769918 -0.735762 0)
(-0.839124 -0.767904 0)
(-0.916704 -0.797441 0)
(-1.00385 -0.822528 0)
(-1.10174 -0.840507 0)
(-1.2114 -0.847645 0)
(-1.33309 -0.838229 0)
(-1.46543 -0.805823 0)
(-1.60707 -0.740095 0)
(-1.73825 -0.62182 0)
(-1.8618 -0.472024 0)
(-1.6759e-05 -0.000830638 0)
(-9.20698e-05 -0.00240687 0)
(-0.000257228 -0.00396155 0)
(-0.000515031 -0.00547145 0)
(-0.000851251 -0.00690191 0)
(-0.00125373 -0.00821931 0)
(-0.00173171 -0.00938555 0)
(-0.00228239 -0.0103789 0)
(-0.00289202 -0.0111869 0)
(-0.00354562 -0.0118009 0)
(-0.00423213 -0.0122122 0)
(-0.00494238 -0.0124229 0)
(-0.0056658 -0.0124424 0)
(-0.00639131 -0.0122835 0)
(-0.00710906 -0.0119632 0)
(-0.00781023 -0.0115051 0)
(-0.00848677 -0.0109394 0)
(-0.00913249 -0.0103007 0)
(-0.00974391 -0.00962654 0)
(-0.0103192 -0.00895559 0)
(-0.0108579 -0.00832635 0)
(-0.0113619 -0.00777548 0)
(-0.0118353 -0.00733732 0)
(-0.0122844 -0.00704348 0)
(-0.0127173 -0.00692234 0)
(-0.0131445 -0.00699847 0)
(-0.0135754 -0.00729179 0)
(-0.0140313 -0.00781869 0)
(-0.0145042 -0.00858758 0)
(-0.0150381 -0.00960608 0)
(-0.0156407 -0.0108773 0)
(-0.016305 -0.0123933 0)
(-0.0170847 -0.0141501 0)
(-0.0179556 -0.0161298 0)
(-0.0189694 -0.0183224 0)
(-0.0201066 -0.0207039 0)
(-0.0214065 -0.0232586 0)
(-0.0228577 -0.0259612 0)
(-0.0244881 -0.0287942 0)
(-0.0262905 -0.0317333 0)
(-0.0282774 -0.0347605 0)
(-0.0304637 -0.0378631 0)
(-0.0328174 -0.0410132 0)
(-0.0354055 -0.0442256 0)
(-0.0381375 -0.047455 0)
(-0.0411254 -0.050747 0)
(-0.0442558 -0.0540502 0)
(-0.0476281 -0.0574192 0)
(-0.051191 -0.0608415 0)
(-0.0549308 -0.064315 0)
(-0.058945 -0.0679383 0)
(-0.0631072 -0.0716323 0)
(-0.0675209 -0.0755088 0)
(-0.0721929 -0.0796217 0)
(-0.077063 -0.0839302 0)
(-0.0822082 -0.0885237 0)
(-0.0876498 -0.0934459 0)
(-0.093391 -0.0987176 0)
(-0.0994073 -0.10438 0)
(-0.105779 -0.110648 0)
(-0.112565 -0.117348 0)
(-0.11975 -0.124619 0)
(-0.127382 -0.132521 0)
(-0.135496 -0.14107 0)
(-0.144133 -0.150317 0)
(-0.153345 -0.160307 0)
(-0.163192 -0.171077 0)
(-0.173736 -0.18267 0)
(-0.185036 -0.195122 0)
(-0.197155 -0.20847 0)
(-0.210164 -0.222743 0)
(-0.22414 -0.237972 0)
(-0.239165 -0.254183 0)
(-0.25533 -0.271402 0)
(-0.27273 -0.289649 0)
(-0.291473 -0.308943 0)
(-0.311675 -0.329296 0)
(-0.333467 -0.350715 0)
(-0.356996 -0.3732 0)
(-0.382425 -0.396741 0)
(-0.409945 -0.42132 0)
(-0.439766 -0.446898 0)
(-0.472134 -0.473419 0)
(-0.507325 -0.500799 0)
(-0.545658 -0.528913 0)
(-0.587493 -0.557585 0)
(-0.633241 -0.586561 0)
(-0.68337 -0.615488 0)
(-0.738406 -0.643871 0)
(-0.798927 -0.671027 0)
(-0.865552 -0.69601 0)
(-0.938898 -0.717523 0)
(-1.01951 -0.733792 0)
(-1.10772 -0.742415 0)
(-1.20339 -0.740233 0)
(-1.30552 -0.723009 0)
(-1.41139 -0.685562 0)
(-1.51669 -0.622587 0)
(-1.61142 -0.524552 0)
(-1.67637 -0.395256 0)
(-1.97763e-05 -0.000786027 0)
(-0.000107327 -0.00226587 0)
(-0.000286088 -0.0037299 0)
(-0.000572211 -0.00512985 0)
(-0.000877257 -0.00657431 0)
(-0.00135755 -0.00774679 0)
(-0.00187555 -0.00883513 0)
(-0.00245767 -0.00977397 0)
(-0.00310254 -0.0105356 0)
(-0.003794 -0.0111132 0)
(-0.00452079 -0.0114992 0)
(-0.00527814 -0.0116911 0)
(-0.00605395 -0.0116993 0)
(-0.00683241 -0.0115388 0)
(-0.00760125 -0.0112284 0)
(-0.00835209 -0.0107916 0)
(-0.00907726 -0.010255 0)
(-0.00976989 -0.00964964 0)
(-0.0104255 -0.00901151 0)
(-0.011042 -0.00837799 0)
(-0.0116189 -0.00778527 0)
(-0.0121579 -0.00726792 0)
(-0.0126633 -0.00685832 0)
(-0.0131419 -0.00658588 0)
(-0.0136023 -0.0064767 0)
(-0.0140557 -0.00655363 0)
(-0.0145132 -0.006835 0)
(-0.0149935 -0.00733653 0)
(-0.0154997 -0.00806437 0)
(-0.016057 -0.00902301 0)
(-0.0167033 -0.0102201 0)
(-0.0174089 -0.011646 0)
(-0.0182323 -0.0132955 0)
(-0.01917 -0.0151545 0)
(-0.0202353 -0.0172083 0)
(-0.0214659 -0.0194431 0)
(-0.0228317 -0.0218325 0)
(-0.0244049 -0.0243685 0)
(-0.0261198 -0.0270145 0)
(-0.0280725 -0.029774 0)
(-0.0301725 -0.0326005 0)
(-0.0325233 -0.0355116 0)
(-0.0350408 -0.0384615 0)
(-0.0377861 -0.0414643 0)
(-0.0407482 -0.0445078 0)
(-0.0438809 -0.0475664 0)
(-0.0472995 -0.0507015 0)
(-0.0508278 -0.0538177 0)
(-0.0546962 -0.0570671 0)
(-0.0586636 -0.0603043 0)
(-0.0629487 -0.0637024 0)
(-0.0674216 -0.0671851 0)
(-0.0721279 -0.0708182 0)
(-0.0771167 -0.0746775 0)
(-0.0823357 -0.0787279 0)
(-0.0878471 -0.0830435 0)
(-0.0936624 -0.0876659 0)
(-0.0997838 -0.0926302 0)
(-0.106219 -0.0979792 0)
(-0.113031 -0.103795 0)
(-0.120295 -0.110067 0)
(-0.127982 -0.116932 0)
(-0.136101 -0.124357 0)
(-0.144728 -0.132396 0)
(-0.153919 -0.141086 0)
(-0.163721 -0.150448 0)
(-0.174191 -0.160531 0)
(-0.185392 -0.171381 0)
(-0.197384 -0.183031 0)
(-0.210233 -0.195507 0)
(-0.224011 -0.208836 0)
(-0.238794 -0.223041 0)
(-0.254666 -0.238142 0)
(-0.271717 -0.254156 0)
(-0.29004 -0.271098 0)
(-0.309737 -0.288976 0)
(-0.330919 -0.307792 0)
(-0.35371 -0.327541 0)
(-0.378244 -0.348204 0)
(-0.404672 -0.369755 0)
(-0.433165 -0.392152 0)
(-0.463913 -0.415331 0)
(-0.49713 -0.43921 0)
(-0.533054 -0.463672 0)
(-0.571947 -0.488561 0)
(-0.6141 -0.513661 0)
(-0.659824 -0.538681 0)
(-0.709461 -0.563227 0)
(-0.763366 -0.586774 0)
(-0.821894 -0.608625 0)
(-0.885371 -0.627857 0)
(-0.954034 -0.643262 0)
(-1.02795 -0.653277 0)
(-1.10686 -0.655908 0)
(-1.18997 -0.648692 0)
(-1.2756 -0.628664 0)
(-1.36073 -0.592462 0)
(-1.44026 -0.537104 0)
(-1.5081 -0.459477 0)
(-1.5472 -0.360669 0)
(-2.08595e-05 -0.000714169 0)
(-0.000109432 -0.00213327 0)
(-0.000300517 -0.00351342 0)
(-0.000574009 -0.00486619 0)
(-0.000956656 -0.00611459 0)
(-0.00142145 -0.00726807 0)
(-0.00197869 -0.00827305 0)
(-0.00259579 -0.00914297 0)
(-0.0032892 -0.00984232 0)
(-0.00402409 -0.0103766 0)
(-0.00483762 -0.0107059 0)
(-0.00564252 -0.010882 0)
(-0.00645888 -0.0108925 0)
(-0.0072789 -0.0107423 0)
(-0.00809262 -0.010445 0)
(-0.00888879 -0.0100282 0)
(-0.00965598 -0.00952074 0)
(-0.0103876 -0.00895153 0)
(-0.0110798 -0.00835383 0)
(-0.0117295 -0.0077628 0)
(-0.012336 -0.00721174 0)
(-0.0129021 -0.00673212 0)
(-0.0134326 -0.00635399 0)
(-0.0139347 -0.00610496 0)
(-0.0144178 -0.00600933 0)
(-0.0148935 -0.00608796 0)
(-0.015376 -0.00635744 0)
(-0.0158767 -0.00683143 0)
(-0.0164268 -0.00751624 0)
(-0.0169978 -0.00841338 0)
(-0.0176766 -0.00952992 0)
(-0.0184307 -0.0108604 0)
(-0.0192894 -0.0123951 0)
(-0.0202894 -0.0141253 0)
(-0.021408 -0.0160317 0)
(-0.022716 -0.0181073 0)
(-0.0241591 -0.0203224 0)
(-0.0258274 -0.0226748 0)
(-0.0276475 -0.0251266 0)
(-0.0297147 -0.0276846 0)
(-0.0319517 -0.030306 0)
(-0.0344347 -0.0330027 0)
(-0.0371216 -0.0357444 0)
(-0.040019 -0.0385249 0)
(-0.043177 -0.04136 0)
(-0.0464878 -0.0441935 0)
(-0.0501199 -0.0471163 0)
(-0.0538595 -0.0500064 0)
(-0.0579532 -0.053029 0)
(-0.0621762 -0.0560449 0)
(-0.0667015 -0.0591943 0)
(-0.0714568 -0.0624431 0)
(-0.0764475 -0.0658234 0)
(-0.0817361 -0.0694175 0)
(-0.0872789 -0.0731902 0)
(-0.0931271 -0.07721 0)
(-0.0992914 -0.0815185 0)
(-0.105782 -0.0861547 0)
(-0.112618 -0.0911635 0)
(-0.119828 -0.0965671 0)
(-0.127528 -0.102325 0)
(-0.135684 -0.108858 0)
(-0.144269 -0.115799 0)
(-0.153399 -0.123259 0)
(-0.163089 -0.131339 0)
(-0.173408 -0.140055 0)
(-0.184448 -0.149426 0)
(-0.196261 -0.159497 0)
(-0.208895 -0.170303 0)
(-0.222415 -0.181867 0)
(-0.236894 -0.194206 0)
(-0.252412 -0.207339 0)
(-0.269051 -0.221286 0)
(-0.286897 -0.236058 0)
(-0.306043 -0.251663 0)
(-0.326584 -0.2681 0)
(-0.348624 -0.285364 0)
(-0.372274 -0.303435 0)
(-0.397658 -0.322286 0)
(-0.424909 -0.341873 0)
(-0.454184 -0.362136 0)
(-0.48564 -0.382993 0)
(-0.519462 -0.40434 0)
(-0.555851 -0.426043 0)
(-0.595013 -0.447931 0)
(-0.637165 -0.46977 0)
(-0.682527 -0.491252 0)
(-0.731324 -0.511978 0)
(-0.783763 -0.531432 0)
(-0.840012 -0.548954 0)
(-0.900163 -0.563708 0)
(-0.964175 -0.574645 0)
(-1.03179 -0.580479 0)
(-1.10241 -0.579665 0)
(-1.17491 -0.570428 0)
(-1.24742 -0.55084 0)
(-1.31704 -0.519036 0)
(-1.37938 -0.473548 0)
(-1.42942 -0.41434 0)
(-1.45705 -0.342555 0)
(-2.02375e-05 -0.00066746 0)
(-0.000111297 -0.001969 0)
(-0.000302002 -0.00327413 0)
(-0.00061193 -0.00449776 0)
(-0.0010103 -0.0056792 0)
(-0.00151034 -0.00673813 0)
(-0.00209953 -0.00766502 0)
(-0.0027478 -0.00846841 0)
(-0.00348535 -0.00910182 0)
(-0.00425678 -0.00958684 0)
(-0.00509687 -0.00988979 0)
(-0.00592934 -0.0100554 0)
(-0.00680691 -0.0100499 0)
(-0.00768265 -0.0098985 0)
(-0.00853756 -0.00961931 0)
(-0.00936878 -0.00923211 0)
(-0.010174 -0.00875819 0)
(-0.010944 -0.00822501 0)
(-0.0116723 -0.00766751 0)
(-0.0123546 -0.00711912 0)
(-0.0129903 -0.00661095 0)
(-0.013584 -0.00617121 0)
(-0.0141418 -0.00582609 0)
(-0.0146711 -0.00560028 0)
(-0.0151808 -0.00551653 0)
(-0.0156822 -0.0055944 0)
(-0.0161897 -0.00584963 0)
(-0.0167153 -0.00629269 0)
(-0.0172893 -0.0069324 0)
(-0.0178896 -0.00776718 0)
(-0.0185969 -0.00879714 0)
(-0.0193909 -0.0100247 0)
(-0.0202907 -0.0114396 0)
(-0.0213324 -0.0130317 0)
(-0.0225128 -0.0147851 0)
(-0.0238757 -0.0166897 0)
(-0.0253997 -0.0187231 0)
(-0.0271456 -0.0208797 0)
(-0.0290633 -0.0231273 0)
(-0.0312358 -0.0254734 0)
(-0.0335911 -0.0278765 0)
(-0.036203 -0.0303505 0)
(-0.0390357 -0.0328691 0)
(-0.0420823 -0.0354198 0)
(-0.045412 -0.0380321 0)
(-0.0488968 -0.0406333 0)
(-0.0527094 -0.043325 0)
(-0.0566717 -0.0459943 0)
(-0.0609287 -0.0487464 0)
(-0.0654366 -0.0515656 0)
(-0.0701552 -0.0544271 0)
(-0.07517 -0.0574202 0)
(-0.0804679 -0.0605712 0)
(-0.0860057 -0.0638503 0)
(-0.0918507 -0.0673234 0)
(-0.0980193 -0.0710292 0)
(-0.104515 -0.0750075 0)
(-0.111353 -0.0793022 0)
(-0.118528 -0.0839566 0)
(-0.126023 -0.0890424 0)
(-0.134302 -0.0946581 0)
(-0.143019 -0.100356 0)
(-0.151872 -0.106702 0)
(-0.161411 -0.113633 0)
(-0.171608 -0.121073 0)
(-0.182433 -0.12907 0)
(-0.193983 -0.137683 0)
(-0.206343 -0.146948 0)
(-0.219557 -0.156889 0)
(-0.23368 -0.167521 0)
(-0.248787 -0.178854 0)
(-0.264963 -0.1909 0)
(-0.282289 -0.203671 0)
(-0.300846 -0.217177 0)
(-0.320721 -0.231425 0)
(-0.342003 -0.246412 0)
(-0.364786 -0.262124 0)
(-0.389172 -0.278532 0)
(-0.415268 -0.295597 0)
(-0.443192 -0.313264 0)
(-0.473071 -0.331459 0)
(-0.505046 -0.350088 0)
(-0.539273 -0.369032 0)
(-0.575916 -0.388151 0)
(-0.615132 -0.40727 0)
(-0.657062 -0.42616 0)
(-0.701844 -0.44452 0)
(-0.7496 -0.461972 0)
(-0.800416 -0.47804 0)
(-0.854315 -0.492134 0)
(-0.91122 -0.503529 0)
(-0.97091 -0.51136 0)
(-1.03294 -0.514618 0)
(-1.09655 -0.512181 0)
(-1.16053 -0.502867 0)
(-1.2231 -0.485537 0)
(-1.28169 -0.459327 0)
(-1.33301 -0.423877 0)
(-1.37263 -0.38027 0)
(-1.39632 -0.330148 0)
(-2.13709e-05 -0.000607032 0)
(-0.000114005 -0.00181597 0)
(-0.000318174 -0.003011 0)
(-0.000643119 -0.00414589 0)
(-0.00106381 -0.00522106 0)
(-0.00158993 -0.00618328 0)
(-0.00219943 -0.00703448 0)
(-0.0028905 -0.00775402 0)
(-0.00365233 -0.00833145 0)
(-0.00446751 -0.00876239 0)
(-0.00532961 -0.00903877 0)
(-0.0062124 -0.0091722 0)
(-0.0071235 -0.0091559 0)
(-0.00802004 -0.00901409 0)
(-0.00893258 -0.00874679 0)
(-0.00978736 -0.00839213 0)
(-0.0106561 -0.00794421 0)
(-0.0114408 -0.00745907 0)
(-0.0121961 -0.00695127 0)
(-0.0129108 -0.00644799 0)
(-0.0135813 -0.00598136 0)
(-0.0142091 -0.00558021 0)
(-0.0147994 -0.00526864 0)
(-0.0153591 -0.00506857 0)
(-0.0158969 -0.00500044 0)
(-0.0164244 -0.00508168 0)
(-0.0169554 -0.00532568 0)
(-0.0175067 -0.00574086 0)
(-0.0180958 -0.00633474 0)
(-0.0187456 -0.00710494 0)
(-0.0194589 -0.00804724 0)
(-0.0202818 -0.00916776 0)
(-0.0212243 -0.0104581 0)
(-0.0222957 -0.0119039 0)
(-0.0235315 -0.0134959 0)
(-0.0249434 -0.01522 0)
(-0.0265341 -0.0170597 0)
(-0.0283538 -0.0190104 0)
(-0.0303533 -0.0210401 0)
(-0.0326233 -0.0231623 0)
(-0.0350834 -0.0253339 0)
(-0.0378133 -0.0275722 0)
(-0.0407765 -0.0298538 0)
(-0.0439673 -0.0321661 0)
(-0.0474407 -0.0345357 0)
(-0.0511071 -0.0369085 0)
(-0.0550598 -0.0393402 0)
(-0.0592388 -0.0417856 0)
(-0.0636593 -0.044265 0)
(-0.0683776 -0.0468284 0)
(-0.073331 -0.0494431 0)
(-0.0785621 -0.0521538 0)
(-0.0841053 -0.0550219 0)
(-0.0899126 -0.0580129 0)
(-0.0960439 -0.0611778 0)
(-0.102517 -0.0645555 0)
(-0.109339 -0.0681882 0)
(-0.11652 -0.072115 0)
(-0.124117 -0.0763705 0)
(-0.132222 -0.081027 0)
(-0.140437 -0.0861889 0)
(-0.149194 -0.0913534 0)
(-0.158852 -0.0971208 0)
(-0.168884 -0.103503 0)
(-0.179419 -0.110375 0)
(-0.19067 -0.117683 0)
(-0.202727 -0.125502 0)
(-0.215612 -0.133929 0)
(-0.229362 -0.142986 0)
(-0.244034 -0.152657 0)
(-0.259706 -0.162948 0)
(-0.276461 -0.173876 0)
(-0.294386 -0.185452 0)
(-0.313568 -0.197681 0)
(-0.334087 -0.210563 0)
(-0.35602 -0.224092 0)
(-0.379447 -0.238251 0)
(-0.404455 -0.253009 0)
(-0.431138 -0.268322 0)
(-0.459595 -0.284127 0)
(-0.489931 -0.300337 0)
(-0.522265 -0.31684 0)
(-0.556731 -0.333514 0)
(-0.593465 -0.350236 0)
(-0.632574 -0.366842 0)
(-0.674142 -0.383097 0)
(-0.718236 -0.398715 0)
(-0.764896 -0.413356 0)
(-0.81411 -0.42661 0)
(-0.865785 -0.43798 0)
(-0.919728 -0.446871 0)
(-0.975608 -0.452596 0)
(-1.0329 -0.454401 0)
(-1.09081 -0.451509 0)
(-1.14821 -0.443196 0)
(-1.2035 -0.4289 0)
(-1.2546 -0.408383 0)
(-1.29906 -0.381986 0)
(-1.33347 -0.351005 0)
(-1.35626 -0.317717 0)
(-2.20046e-05 -0.000550181 0)
(-0.000117333 -0.00165193 0)
(-0.000330897 -0.00273804 0)
(-0.000667295 -0.0037689 0)
(-0.00110932 -0.00473331 0)
(-0.00165695 -0.00560056 0)
(-0.00228912 -0.00636932 0)
(-0.00301506 -0.00700932 0)
(-0.00379931 -0.00752888 0)
(-0.00465208 -0.00790508 0)
(-0.00554043 -0.00814883 0)
(-0.00646173 -0.00825703 0)
(-0.00740103 -0.00823633 0)
(-0.00833406 -0.00809726 0)
(-0.00927147 -0.00784789 0)
(-0.0101658 -0.00751567 0)
(-0.0110634 -0.00710519 0)
(-0.0118767 -0.00666525 0)
(-0.0126968 -0.00619462 0)
(-0.013426 -0.00574052 0)
(-0.0141271 -0.00531515 0)
(-0.0147877 -0.00495158 0)
(-0.0154071 -0.00467406 0)
(-0.0159928 -0.0045012 0)
(-0.016556 -0.00444966 0)
(-0.0171091 -0.00453397 0)
(-0.0176652 -0.00476468 0)
(-0.0182409 -0.00514928 0)
(-0.018852 -0.00569266 0)
(-0.01953 -0.00639661 0)
(-0.0202567 -0.00725399 0)
(-0.0211064 -0.00826262 0)
(-0.0220836 -0.00942161 0)
(-0.0231868 -0.0107176 0)
(-0.0244562 -0.0121411 0)
(-0.0259198 -0.0136814 0)
(-0.0275526 -0.0153174 0)
(-0.0294447 -0.0170567 0)
(-0.0315068 -0.0188581 0)
(-0.0338654 -0.0207479 0)
(-0.0364179 -0.0226775 0)
(-0.0392523 -0.0246693 0)
(-0.0423348 -0.0267041 0)
(-0.0456534 -0.0287679 0)
(-0.0492663 -0.030891 0)