/*--------------------------------*- C++ -*----------------------------------*\
| =========                 |                                                 |
| \\      /  F ield         | OpenFOAM: The Open Source CFD Toolbox           |
|  \\    /   O peration     | Version:  2206                                  |
|   \\  /    A nd           | Website:  www.openfoam.com                      |
|    \\/     M anipulation  |                                                 |
\*---------------------------------------------------------------------------*/
FoamFile
{
    version     2.0;
    format      ascii;
    arch        "LSB;label=32;scalar=64";
    class       volVectorField;
    location    "18.8001";
    object      ddtCorrDdt0(U);
}
// * * * * * * * * * * * * * * * * * * * * * * * * * * * * * * * * * * * * * //

dimensions      [0 1 -2 0 0 0 0];

internalField   nonuniform List<vector> 
4825
(
(13.7087 -10.1847 0)
(14.7593 -11.7354 0)
(15.4781 -13.4017 0)
(15.8534 -15.3244 0)
(15.895 -17.5952 0)
(15.6342 -20.25 0)
(15.1152 -23.2705 0)
(14.3845 -26.5924 0)
(13.4831 -30.1202 0)
(12.4421 -33.7413 0)
(11.2816 -37.3361 0)
(10.0145 -40.7871 0)
(8.6639 -43.9934 0)
(7.24175 -46.8444 0)
(5.76479 -49.2594 0)
(4.25041 -51.1719 0)
(2.7188 -52.5154 0)
(1.20474 -53.1949 0)
(-0.254697 -53.1162 0)
(-1.64296 -52.5098 0)
(-2.94277 -51.395 0)
(-4.13497 -49.8034 0)
(-5.20398 -47.7749 0)
(-6.13915 -45.3588 0)
(-6.93597 -42.6129 0)
(-7.59549 -39.5955 0)
(-8.12083 -36.3612 0)
(-8.51643 -32.9636 0)
(-8.78771 -29.4585 0)
(-8.94261 -25.9077 0)
(-8.97585 -22.3514 0)
(-8.89267 -18.8286 0)
(-8.71947 -15.371 0)
(-8.47635 -11.9798 0)
(-8.22596 -8.61235 0)
(-8.19214 -5.08513 0)
(-8.21025 -1.1104 0)
(-8.09333 3.11003 0)
(-8.00289 7.38677 0)
(-7.87405 11.6727 0)
(-7.76196 15.9657 0)
(-7.67698 20.2579 0)
(-7.60542 24.528 0)
(-7.53421 28.7393 0)
(-7.44887 32.8391 0)
(-7.33558 36.7623 0)
(-7.18348 40.435 0)
(-6.9858 43.7773 0)
(-6.73979 46.7048 0)
(-6.44583 49.1278 0)
(-6.10169 50.9289 0)
(-5.67228 51.8949 0)
(-5.13789 51.8681 0)
(-4.54453 51.1436 0)
(-3.88335 49.7354 0)
(-3.15164 47.6837 0)
(-2.35203 45.0498 0)
(-1.49234 41.9186 0)
(-0.584914 38.3945 0)
(0.35019 34.5876 0)
(1.28512 30.6096 0)
(2.19059 26.5683 0)
(3.03817 22.5545 0)
(3.79981 18.6351 0)
(4.44524 14.8624 0)
(4.94287 11.2636 0)
(5.41408 7.79826 0)
(6.14495 4.17311 0)
(6.6007 0.379614 0)
(7.00826 -3.2492 0)
(7.17523 -6.72749 0)
(7.09354 -10.0257 0)
(6.80315 -13.1683 0)
(6.30031 -16.1868 0)
(5.5804 -19.0993 0)
(4.65155 -21.917 0)
(3.52872 -24.6389 0)
(2.235 -27.2499 0)
(0.802025 -29.7214 0)
(-0.731889 -32.0137 0)
(-2.32441 -34.0786 0)
(-3.93125 -35.8628 0)
(-5.50819 -37.3093 0)
(-7.01519 -38.3622 0)
(-8.403 -38.9413 0)
(-9.59479 -38.9008 0)
(-10.6173 -38.3641 0)
(-11.4981 -37.3957 0)
(-12.2314 -36.0112 0)
(-12.8171 -34.2339 0)
(-13.2627 -32.0965 0)
(-13.5759 -29.6467 0)
(-13.7656 -26.9384 0)
(-13.8431 -24.031 0)
(-13.8216 -20.9862 0)
(-13.7171 -17.8603 0)
(-13.5482 -14.6932 0)
(-13.3308 -11.4932 0)
(-13.1068 -8.21155 0)
(-12.9423 -4.70605 0)
(-12.6683 -0.900503 0)
(-12.2973 3.04875 0)
(-11.8991 7.07908 0)
(-11.3966 11.1404 0)
(-10.8054 15.1846 0)
(-10.1321 19.1633 0)
(-9.37167 23.0259 0)
(-8.52238 26.7208 0)
(-7.58296 30.1976 0)
(-6.55229 33.4087 0)
(-5.4315 36.3109 0)
(-4.22498 38.8674 0)
(-2.94066 41.0441 0)
(-1.59091 42.7912 0)
(-0.184037 43.995 0)
(1.28017 44.3913 0)
(2.77457 44.0536 0)
(4.27238 43.1262 0)
(5.76354 41.6339 0)
(7.23922 39.6189 0)
(8.68742 37.1392 0)
(10.0963 34.2671 0)
(11.454 31.0836 0)
(12.7493 27.6724 0)
(13.9745 24.1128 0)
(15.1257 20.4678 0)
(16.2028 16.7767 0)
(17.2328 13.0435 0)
(18.2784 9.24557 0)
(19.2874 5.4191 0)
(20.1525 1.725 0)
(20.9884 -1.73767 0)
(21.7198 -4.95136 0)
(22.329 -7.91289 0)
(22.8473 -10.5696 0)
(23.2019 -13.2594 0)
(23.5088 -15.1396 0)
(23.5023 -18.3105 0)
(16.5047 -11.5181 0)
(17.5164 -12.708 0)
(18.1857 -13.9862 0)
(18.4928 -15.516 0)
(18.4412 -17.4141 0)
(18.058 -19.7373 0)
(17.3879 -22.4787 0)
(16.4826 -25.5755 0)
(15.3915 -28.9247 0)
(14.1562 -32.4019 0)
(12.8071 -35.8777 0)
(11.3641 -39.2289 0)
(9.83937 -42.3427 0)
(8.25116 -45.1273 0)
(6.6128 -47.4939 0)
(4.94131 -49.377 0)
(3.25633 -50.7179 0)
(1.58962 -51.4431 0)
(-0.0224929 -51.4311 0)
(-1.5626 -50.9129 0)
(-3.01761 -49.9072 0)
(-4.36872 -48.4428 0)
(-5.60088 -46.5565 0)
(-6.70394 -44.2918 0)
(-7.67205 -41.699 0)
(-8.50439 -38.8322 0)
(-9.20019 -35.7443 0)
(-9.76273 -32.4967 0)
(-10.1923 -29.1444 0)
(-10.488 -25.7307 0)
(-10.6631 -22.3015 0)
(-10.7337 -18.8881 0)
(-10.723 -15.5034 0)
(-10.6583 -12.1308 0)
(-10.6137 -8.70143 0)
(-10.7334 -5.05034 0)
(-10.8125 -1.0651 0)
(-10.8268 3.07091 0)
(-10.8421 7.30271 0)
(-10.8029 11.5817 0)
(-10.7488 15.8787 0)
(-10.6881 20.1731 0)
(-10.6101 24.4349 0)
(-10.5035 28.6227 0)
(-10.3548 32.6836 0)
(-10.1507 36.5541 0)
(-9.88074 40.1643 0)
(-9.53877 43.4396 0)
(-9.12335 46.2997 0)
(-8.63724 48.6518 0)
(-8.07673 50.3693 0)
(-7.3903 51.1994 0)
(-6.58124 51.0896 0)
(-5.70949 50.2849 0)
(-4.76443 48.7971 0)
(-3.74653 46.6669 0)
(-2.66289 43.9636 0)
(-1.52621 40.7783 0)
(-0.3562 37.2196 0)
(0.820436 33.4069 0)
(1.97219 29.46 0)
(3.06625 25.4843 0)
(4.07134 21.5661 0)
(4.96499 17.7707 0)
(5.7221 14.1258 0)
(6.35726 10.6153 0)
(7.10409 7.11285 0)
(7.85121 3.42306 0)
(8.39355 -0.161042 0)
(8.84188 -3.57076 0)
(9.06517 -6.81599 0)
(9.07195 -9.87796 0)
(8.87067 -12.7785 0)
(8.45195 -15.5497 0)
(7.81008 -18.2164 0)
(6.94676 -20.7973 0)
(5.8705 -23.3005 0)
(4.59843 -25.7208 0)
(3.15691 -28.0388 0)
(1.58066 -30.2217 0)
(-0.08929 -32.2254 0)
(-1.80879 -33.9982 0)
(-3.53279 -35.484 0)
(-5.21737 -36.6218 0)
(-6.82135 -37.3432 0)
(-8.27214 -37.5274 0)
(-9.54255 -37.1505 0)
(-10.6721 -36.3489 0)
(-11.6541 -35.1306 0)
(-12.4852 -33.5175 0)
(-13.1674 -31.5413 0)
(-13.7059 -29.2425 0)
(-14.1083 -26.673 0)
(-14.3837 -23.893 0)
(-14.545 -20.9594 0)
(-14.6077 -17.9246 0)
(-14.5891 -14.8239 0)
(-14.5048 -11.6638 0)
(-14.3922 -8.40056 0)
(-14.3037 -4.92665 0)
(-14.1014 -1.19921 0)
(-13.791 2.6521 0)
(-13.4332 6.58018 0)
(-12.9585 10.5379 0)
(-12.3787 14.4765 0)
(-11.6988 18.3478 0)
(-10.9139 22.1013 0)
(-10.0228 25.6858 0)
(-9.02526 29.0516 0)
(-7.92183 32.1527 0)
(-6.71534 34.9493 0)
(-5.41266 37.4081 0)
(-4.02323 39.4991 0)
(-2.55979 41.1733 0)
(-1.02935 42.312 0)
(0.571738 42.6425 0)
(2.21039 42.2923 0)
(3.85496 41.3643 0)
(5.49369 39.8847 0)
(7.1156 37.8961 0)
(8.7064 35.4572 0)
(10.2518 32.6399 0)
(11.738 29.5252 0)
(13.1526 26.194 0)
(14.4868 22.72 0)
(15.7372 19.1585 0)
(16.9073 15.536 0)
(18.0349 11.847 0)
(19.1678 8.0843 0)
(20.1759 4.32914 0)
(21.0887 0.7531 0)
(21.9276 -2.60459 0)
(22.6455 -5.70408 0)
(23.248 -8.54637 0)
(23.7634 -11.0776 0)
(24.1101 -13.5986 0)
(24.4023 -15.3453 0)
(24.3794 -18.2363 0)
(19.3277 -12.7951 0)
(20.277 -13.6187 0)
(20.8767 -14.4951 0)
(21.0987 -15.6091 0)
(20.94 -17.1063 0)
(20.4263 -19.0697 0)
(19.6027 -21.5056 0)
(18.5235 -24.3555 0)
(17.2442 -27.5132 0)
(15.8133 -30.8444 0)
(14.2691 -34.2068 0)
(12.6388 -37.4668 0)
(10.9404 -40.5067 0)
(9.18557 -43.2273 0)
(7.39079 -45.5525 0)
(5.56872 -47.4126 0)
(3.73852 -48.7551 0)
(1.92814 -49.5222 0)
(0.173189 -49.5856 0)
(-1.50723 -49.1507 0)
(-3.10629 -48.25 0)
(-4.60637 -46.9081 0)
(-5.99269 -45.1577 0)
(-7.2556 -43.0378 0)
(-8.38718 -40.5936 0)
(-9.38187 -37.8774 0)
(-10.2398 -34.9506 0)
(-10.9552 -31.8596 0)
(-11.531 -28.6534 0)
(-11.977 -25.3803 0)
(-12.3066 -22.0768 0)
(-12.5384 -18.7631 0)
(-12.6948 -15.4391 0)
(-12.8079 -12.0758 0)
(-12.9579 -8.59609 0)
(-13.2198 -4.88253 0)
(-13.3702 -0.927943 0)
(-13.5079 3.14601 0)
(-13.6125 7.32802 0)
(-13.6532 11.5711 0)
(-13.6547 15.8383 0)
(-13.6183 20.1002 0)
(-13.5344 24.3197 0)
(-13.3923 28.4513 0)
(-13.1791 32.4412 0)
(-12.8823 36.2282 0)
(-12.4925 39.7459 0)
(-12.005 42.9241 0)
(-11.4202 45.6887 0)
(-10.7411 47.9466 0)
(-9.95615 49.5463 0)
(-8.99636 50.193 0)
(-7.91228 50.0005 0)
(-6.75921 49.1077 0)
(-5.52943 47.5363 0)
(-4.22847 45.3311 0)
(-2.86809 42.5648 0)
(-1.46536 39.3379 0)
(-0.0454781 35.7687 0)
(1.35808 31.9819 0)
(2.70807 28.0977 0)
(3.96824 24.2216 0)
(5.11086 20.4332 0)
(6.11474 16.7739 0)
(6.97238 13.2438 0)
(7.79433 9.77989 0)
(8.75079 6.22671 0)
(9.45576 2.62109 0)
(10.1149 -0.759512 0)
(10.6055 -3.96463 0)
(10.8884 -6.983 0)
(10.9704 -9.81155 0)
(10.8445 -12.4739 0)
(10.5026 -14.9984 0)
(9.93609 -17.4133 0)
(9.1416 -19.744 0)
(8.12136 -22.0077 0)
(6.88579 -24.2094 0)
(5.45499 -26.3401 0)
(3.85906 -28.3763 0)
(2.13629 -30.2807 0)
(0.330285 -32.0041 0)
(-1.51335 -33.4903 0)
(-3.34952 -34.6796 0)
(-5.13601 -35.5045 0)
(-6.81522 -35.8749 0)
(-8.32383 -35.6632 0)
(-9.6866 -35.0286 0)
(-10.9039 -33.9796 0)
(-11.9692 -32.5362 0)
(-12.8806 -30.7274 0)
(-13.6401 -28.5927 0)
(-14.2515 -26.1797 0)
(-14.7237 -23.5415 0)
(-15.0673 -20.7358 0)
(-15.2968 -17.8098 0)
(-15.4291 -14.7957 0)
(-15.4792 -11.6979 0)
(-15.482 -8.47836 0)
(-15.479 -5.05796 0)
(-15.3464 -1.4256 0)
(-15.1024 2.31237 0)
(-14.7866 6.12227 0)
(-14.3425 9.95951 0)
(-13.7797 13.7748 0)
(-13.1012 17.5205 0)
(-12.3027 21.1469 0)
(-11.3834 24.6037 0)
(-10.3439 27.8424 0)
(-9.18612 30.8192 0)
(-7.91416 33.4978 0)
(-6.53609 35.8492 0)
(-5.06588 37.8453 0)
(-3.51603 39.4359 0)
(-1.88411 40.4971 0)
(-0.165563 40.7473 0)
(1.59443 40.3799 0)
(3.36528 39.4479 0)
(5.13385 37.9803 0)
(6.88607 36.0199 0)
(8.60495 33.6259 0)
(10.274 30.8709 0)
(11.8766 27.8339 0)
(13.3991 24.593 0)
(14.8325 21.2145 0)
(16.1722 17.7433 0)
(17.4294 14.1949 0)
(18.6529 10.5593 0)
(19.8474 6.85927 0)
(20.858 3.21434 0)
(21.8136 -0.233611 0)
(22.652 -3.46771 0)
(23.354 -6.43475 0)
(23.9486 -9.15926 0)
(24.434 -11.5629 0)
(24.7418 -13.9159 0)
(25.0071 -15.5383 0)
(24.9579 -18.1546 0)
(22.1506 -13.9883 0)
(23.0126 -14.4432 0)
(23.5206 -14.9068 0)
(23.6409 -15.5875 0)
(23.3663 -16.6589 0)
(22.7189 -18.2354 0)
(21.7424 -20.3456 0)
(20.4922 -22.9349 0)
(19.0269 -25.8897 0)
(17.4017 -29.0687 0)
(15.6625 -32.3204 0)
(13.8425 -35.4988 0)
(11.9651 -38.4766 0)
(10.0461 -41.1507 0)
(8.09639 -43.4406 0)
(6.13018 -45.2858 0)
(4.16228 -46.6372 0)
(2.21633 -47.442 0)
(0.327429 -47.5897 0)
(-1.48459 -47.234 0)
(-3.21869 -46.4334 0)
(-4.8591 -45.2079 0)
(-6.39073 -43.5867 0)
(-7.80239 -41.6064 0)
(-9.08376 -39.3123 0)
(-10.2285 -36.7579 0)
(-11.2294 -33.9868 0)
(-12.09 -31.0506 0)
(-12.8149 -27.9956 0)
(-13.4126 -24.8604 0)
(-13.8973 -21.6741 0)
(-14.2904 -18.4509 0)
(-14.6156 -15.1808 0)
(-14.9092 -11.8244 0)
(-15.239 -8.31063 0)
(-15.6154 -4.58293 0)
(-15.8565 -0.684178 0)
(-16.1045 3.3281 0)
(-16.2876 7.44841 0)
(-16.3978 11.6316 0)
(-16.4467 15.8394 0)
(-16.4295 20.0363 0)
(-16.3365 24.1802 0)
(-16.157 28.2227 0)
(-15.8788 32.1096 0)
(-15.4905 35.7817 0)
(-14.984 39.1782 0)
(-14.3558 42.2355 0)
(-13.6061 44.8793 0)
(-12.7328 47.0045 0)
(-11.705 48.4403 0)
(-10.4571 48.8739 0)
(-9.11166 48.5957 0)
(-7.68721 47.6155 0)
(-6.18536 45.9636 0)
(-4.6176 43.6881 0)
(-2.99698 40.8698 0)
(-1.34392 37.617 0)
(0.310224 34.0579 0)
(1.92556 30.324 0)
(3.45867 26.5365 0)
(4.87306 22.7951 0)
(6.14217 19.161 0)
(7.24981 15.6486 0)
(8.2402 12.2184 0)
(9.28009 8.76277 0)
(10.264 5.2147 0)
(11.0543 1.80231 0)
(11.7536 -1.4066 0)
(12.2702 -4.42282 0)
(12.6057 -7.22825 0)
(12.7561 -9.83065 0)
(12.7053 -12.2543 0)
(12.4387 -14.5304 0)
(11.9464 -16.6909 0)
(11.2235 -18.7641 0)
(10.2662 -20.7733 0)
(9.07824 -22.7332 0)
(7.67303 -24.6471 0)
(6.07558 -26.5029 0)
(4.32139 -28.2712 0)
(2.4526 -29.9084 0)
(0.514779 -31.3601 0)
(-1.44602 -32.5645 0)
(-3.38694 -33.4575 0)
(-5.25842 -33.9565 0)
(-6.99111 -33.9348 0)
(-8.57039 -33.4544 0)
(-10.008 -32.573 0)
(-11.2939 -31.3025 0)
(-12.4222 -29.6678 0)
(-13.3927 -27.7047 0)
(-14.2075 -25.4584 0)
(-14.8711 -22.9798 0)
(-15.394 -20.3174 0)
(-15.7885 -17.5174 0)
(-16.0693 -14.6082 0)
(-16.254 -11.593 0)
(-16.3759 -8.43953 0)
(-16.4646 -5.0952 0)
(-16.3999 -1.57823 0)
(-16.2281 2.03212 0)
(-15.9567 5.70988 0)
(-15.5461 9.41064 0)
(-15.0054 13.0867 0)
(-14.3354 16.6915 0)
(-13.5326 20.1759 0)
(-12.5968 23.4904 0)
(-11.5296 26.5886 0)
(-10.3341 29.429 0)
(-9.01637 31.9789 0)
(-7.58611 34.2142 0)
(-6.0579 36.1096 0)
(-4.44448 37.6087 0)
(-2.73217 38.5648 0)
(-0.918116 38.7343 0)
(0.940492 38.34 0)
(2.81932 37.3982 0)
(4.70176 35.9397 0)
(6.56899 34.0076 0)
(8.40132 31.6615 0)
(10.1797 28.9745 0)
(11.8854 26.0239 0)
(13.5029 22.8823 0)
(15.0224 19.6078 0)
(16.4401 16.2341 0)
(17.779 12.7652 0)
(19.0895 9.19497 0)
(20.2923 5.58341 0)
(21.3482 2.08315 0)
(22.3182 -1.23167 0)
(23.152 -4.32925 0)
(23.8391 -7.15264 0)
(24.4337 -9.75102 0)
(24.8657 -11.9972 0)
(25.1344 -14.1808 0)
(25.3659 -15.6852 0)
(25.2622 -18.0466 0)
(24.9456 -15.0651 0)
(25.6859 -15.1527 0)
(26.0713 -15.2028 0)
(26.0506 -15.4337 0)
(25.6646 -16.0767 0)
(24.9146 -17.2593 0)
(23.7914 -19.005 0)
(22.3759 -21.3047 0)
(20.7323 -24.0508 0)
(18.9161 -27.0772 0)
(16.9807 -30.2193 0)
(14.9697 -33.3238 0)
(12.912 -36.2529 0)
(10.8263 -38.8945 0)
(8.72488 -41.1649 0)
(6.61864 -43.005 0)
(4.51982 -44.3702 0)
(2.44656 -45.2149 0)
(0.433005 -45.4503 0)
(-1.50182 -45.1719 0)
(-3.3611 -44.467 0)
(-5.13092 -43.3529 0)
(-6.79441 -41.8573 0)
(-8.33911 -40.0178 0)
(-9.75463 -37.8773 0)
(-11.032 -35.4762 0)
(-12.1708 -32.8627 0)
(-13.1721 -30.0809 0)
(-14.0409 -27.1717 0)
(-14.787 -24.1685 0)
(-15.4258 -21.0937 0)
(-15.9784 -17.9534 0)
(-16.469 -14.7306 0)
(-16.936 -11.3835 0)
(-17.4319 -7.86139 0)
(-17.8908 -4.16135 0)
(-18.247 -0.337255 0)
(-18.5828 3.6057 0)
(-18.8344 7.64966 0)
(-19.003 11.7512 0)
(-19.0895 15.8727 0)
(-19.0852 19.975 0)
(-18.9803 24.0128 0)
(-18.7636 27.9364 0)
(-18.4228 31.6921 0)
(-17.9455 35.2237 0)
(-17.3218 38.4722 0)
(-16.5427 41.3738 0)
(-15.6156 43.8586 0)
(-14.543 45.8156 0)
(-13.2516 46.9949 0)
(-11.7489 47.2879 0)
(-10.1564 46.9009 0)
(-8.47768 45.8294 0)
(-6.72493 44.0998 0)
(-4.91269 41.7607 0)
(-3.05402 38.8987 0)
(-1.17205 35.6341 0)
(0.695588 32.1073 0)
(2.50098 28.4564 0)
(4.19502 24.7984 0)
(5.74128 21.2193 0)
(7.11704 17.7555 0)
(8.33137 14.3844 0)
(9.50278 11.025 0)
(10.7037 7.58253 0)
(11.6725 4.15504 0)
(12.5654 0.938445 0)
(13.2958 -2.09542 0)
(13.8486 -4.9221 0)
(14.2297 -7.5277 0)
(14.4297 -9.92002 0)
(14.4375 -12.1178 0)
(14.241 -14.1501 0)
(13.827 -16.0525 0)
(13.1811 -17.8608 0)
(12.2945 -19.6041 0)
(11.1635 -21.3038 0)
(9.7946 -22.9752 0)
(8.20898 -24.621 0)
(6.44004 -26.2223 0)
(4.52811 -27.7394 0)
(2.51785 -29.121 0)
(0.455895 -30.3079 0)
(-1.61273 -31.233 0)
(-3.64273 -31.8216 0)
(-5.57095 -31.9688 0)
(-7.3534 -31.6418 0)
(-8.99484 -30.9275 0)
(-10.485 -29.8314 0)
(-11.8163 -28.3753 0)
(-12.9854 -26.5917 0)
(-13.9919 -24.5216 0)
(-14.8394 -22.2118 0)
(-15.5349 -19.7088 0)
(-16.0903 -17.0506 0)
(-16.5178 -14.2632 0)
(-16.8354 -11.3479 0)
(-17.0783 -8.28029 0)
(-17.2621 -5.03558 0)
(-17.2637 -1.65187 0)
(-17.1665 1.81241 0)
(-16.9434 5.34345 0)
(-16.5713 8.8963 0)
(-16.057 12.4197 0)
(-15.4013 15.8691 0)
(-14.6024 19.1978 0)
(-13.6611 22.3585 0)
(-12.5794 25.3062 0)
(-11.3615 28.0024 0)
(-10.0151 30.4178 0)
(-8.5523 32.5313 0)
(-6.98891 34.3202 0)
(-5.33379 35.7188 0)
(-3.55858 36.5357 0)
(-1.67148 36.6342 0)
(0.268107 36.1935 0)
(2.24129 35.2312 0)
(4.22435 33.7786 0)
(6.19043 31.8754 0)
(8.11872 29.5805 0)
(9.98952 26.9673 0)
(11.7814 24.111 0)
(13.4778 21.0774 0)
(15.0676 17.9143 0)
(16.5518 14.6427 0)
(17.9699 11.2584 0)
(19.3474 7.77476 0)
(20.5303 4.28203 0)
(21.6331 0.935801 0)
(22.6022 -2.23455 0)
(23.4278 -5.18284 0)
(24.0983 -7.85448 0)
(24.6793 -10.3101 0)
(25.0591 -12.3896 0)
(25.2947 -14.4038 0)
(25.4919 -15.7833 0)
(25.3203 -17.892 0)
(27.6908 -15.9944 0)
(28.2635 -15.6974 0)
(28.4494 -15.3108 0)
(28.302 -15.1363 0)
(27.7954 -15.368 0)
(26.9284 -16.1376 0)
(25.718 -17.5236 0)
(24.1837 -19.5184 0)
(22.3461 -21.9995 0)
(20.3424 -24.8605 0)
(18.2174 -27.9012 0)
(16.0152 -30.9408 0)
(13.7758 -33.8336 0)
(11.5229 -36.4592 0)
(9.27026 -38.727 0)
(7.02722 -40.5752 0)
(4.80272 -41.9618 0)
(2.6109 -42.8515 0)
(0.481982 -43.1786 0)
(-1.56548 -42.9768 0)
(-3.53629 -42.3647 0)
(-5.41948 -41.3597 0)
(-7.19818 -39.9903 0)
(-8.85961 -38.2907 0)
(-10.3939 -36.296 0)
(-11.7961 -34.0479 0)
(-13.0636 -31.5878 0)
(-14.1976 -28.9553 0)
(-15.2038 -26.1864 0)
(-16.0931 -23.3089 0)
(-16.8811 -20.3387 0)
(-17.5879 -17.2747 0)
(-18.2389 -14.0958 0)
(-18.8739 -10.767 0)
(-19.5105 -7.27123 0)
(-20.0259 -3.63438 0)
(-20.4996 0.106957 0)
(-20.9064 3.9684 0)
(-21.2187 7.91888 0)
(-21.436 11.9185 0)
(-21.5513 15.9304 0)
(-21.5546 19.9127 0)
(-21.4345 23.8184 0)
(-21.1769 27.5964 0)
(-20.7654 31.1912 0)
(-20.1801 34.5426 0)
(-19.4166 37.6009 0)
(-18.4891 40.3218 0)
(-17.4064 42.6338 0)
(-16.1384 44.3823 0)
(-14.5821 45.2615 0)
(-12.8608 45.4269 0)
(-11.0382 44.9299 0)
(-9.1281 43.7726 0)
(-7.15282 41.973 0)
(-5.1259 39.5774 0)
(-3.05859 36.6797 0)
(-0.975 33.4163 0)
(1.08069 29.9432 0)
(3.05132 26.4052 0)
(4.88314 22.9097 0)
(6.53712 19.5163 0)
(8.00267 16.2268 0)
(9.35327 12.978 0)
(10.7217 9.66724 0)
(11.9267 6.2849 0)
(13.0015 3.06376 0)
(13.9445 0.0185763 0)
(14.7122 -2.83691 0)
(15.3133 -5.47216 0)
(15.7439 -7.87936 0)
(15.9943 -10.0639 0)
(16.0554 -12.0431 0)
(15.918 -13.8453 0)
(15.5721 -15.5034 0)
(15.0045 -17.0489 0)
(14.1974 -18.5132 0)
(13.1324 -19.9327 0)
(11.8059 -21.3371 0)
(10.2394 -22.7421 0)
(8.46884 -24.1434 0)
(6.53262 -25.5116 0)
(4.47051 -26.7975 0)
(2.32842 -27.9392 0)
(0.153958 -28.8684 0)
(-2.0079 -29.5133 0)
(-4.10128 -29.7881 0)
(-6.06804 -29.6123 0)
(-7.89452 -29.0624 0)
(-9.57101 -28.1405 0)
(-11.0887 -26.8652 0)
(-12.4416 -25.2661 0)
(-13.6273 -23.3804 0)
(-14.6469 -21.2497 0)
(-15.5061 -18.9157 0)
(-16.2145 -16.4133 0)
(-16.7846 -13.7625 0)
(-17.2366 -10.9629 0)
(-17.6011 -8.00002 0)
(-17.8668 -4.87971 0)
(-17.9467 -1.64829 0)
(-17.9221 1.6631 0)
(-17.7504 5.03319 0)
(-17.4222 8.41734 0)
(-16.9422 11.7749 0)
(-16.309 15.0614 0)
(-15.521 18.2268 0)
(-14.5804 21.224 0)
(-13.4918 24.0114 0)
(-12.2621 26.5547 0)
(-10.9015 28.8297 0)
(-9.42421 30.8202 0)
(-7.84551 32.4975 0)
(-6.16562 33.7779 0)
(-4.34426 34.4396 0)
(-2.40808 34.4613 0)
(-0.401824 33.9572 0)
(1.66146 32.9621 0)
(3.73549 31.5173 0)
(5.77948 29.6453 0)
(7.7788 27.4033 0)
(9.71976 24.8697 0)
(11.5781 22.1153 0)
(13.3341 19.1966 0)
(14.9766 16.15 0)
(16.5185 12.9827 0)
(18.0089 9.68786 0)
(19.3901 6.30702 0)
(20.6056 2.97577 0)
(21.7208 -0.21775 0)
(22.6803 -3.23298 0)
(23.4936 -6.02043 0)
(24.1416 -8.5298 0)
(24.6927 -10.8267 0)
(25.032 -12.7422 0)
(25.2252 -14.5808 0)
(25.3851 -15.8303 0)
(25.1363 -17.6877 0)
(30.3111 -16.7175 0)
(30.6517 -16.0086 0)
(30.697 -15.254 0)
(30.4054 -14.6991 0)
(29.7649 -14.5389 0)
(28.7735 -14.9129 0)
(27.4408 -15.904 0)
(25.7912 -17.5432 0)
(23.8627 -19.7846 0)
(21.6658 -22.4392 0)
(19.3495 -25.3615 0)
(16.9691 -28.3499 0)
(14.552 -31.2206 0)
(12.1329 -33.8457 0)
(9.73036 -36.1278 0)
(7.35323 -37.9997 0)
(5.00836 -39.4214 0)
(2.70557 -40.3633 0)
(0.469359 -40.7822 0)
(-1.67883 -40.664 0)
(-3.74421 -40.1453 0)
(-5.72332 -39.2493 0)
(-7.60042 -38.0033 0)
(-9.36348 -36.4368 0)
(-11.0053 -34.5849 0)
(-12.52 -32.4841 0)
(-13.905 -30.1715 0)
(-15.1621 -27.6826 0)
(-16.2974 -25.0477 0)
(-17.322 -22.2891 0)
(-18.2514 -19.4164 0)
(-19.105 -16.423 0)
(-19.9104 -13.2881 0)
(-20.6964 -9.99597 0)
(-21.413 -6.56193 0)
(-22.022 -3.0181 0)
(-22.5817 0.638426 0)
(-23.0477 4.40395 0)
(-23.4115 8.24395 0)
(-23.6662 12.1234 0)
(-23.8004 16.0044 0)
(-23.8013 19.8428 0)
(-23.6531 23.5885 0)
(-23.3349 27.1841 0)
(-22.825 30.5713 0)
(-22.1264 33.7142 0)
(-21.2452 36.5771 0)
(-20.1926 39.112 0)
(-18.9675 41.2202 0)
(-17.4749 42.6617 0)
(-15.6991 43.305 0)
(-13.7842 43.3248 0)
(-11.755 42.7147 0)
(-9.64299 41.4784 0)
(-7.47826 39.6189 0)
(-5.2727 37.1754 0)
(-3.03291 34.2479 0)
(-0.780621 30.9952 0)
(1.43393 27.5958 0)
(3.54275 24.199 0)
(5.48512 20.8947 0)
(7.22145 17.703 0)
(8.77991 14.5778 0)
(10.3093 11.4204 0)
(11.7608 8.15228 0)
(13.0215 4.94799 0)
(14.1809 1.91212 0)
(15.167 -0.961115 0)
(15.9868 -3.63271 0)
(16.6436 -6.07871 0)
(17.1289 -8.28979 0)
(17.4345 -10.2683 0)
(17.5521 -12.0312 0)
(17.4756 -13.6067 0)
(17.2006 -15.0267 0)
(16.7128 -16.3196 0)
(15.9802 -17.5132 0)
(14.9583 -18.6229 0)
(13.6775 -19.7356 0)
(12.1487 -20.8886 0)
(10.3928 -22.0775 0)
(8.43846 -23.2587 0)
(6.33721 -24.404 0)
(4.13748 -25.4653 0)
(1.88436 -26.3714 0)
(-0.382523 -27.0491 0)
(-2.61236 -27.4212 0)
(-4.74173 -27.3928 0)
(-6.73515 -27.0012 0)
(-8.5803 -26.2515 0)
(-10.2674 -25.158 0)
(-11.7879 -23.7465 0)
(-13.1375 -22.0502 0)
(-14.3162 -20.1064 0)
(-15.3276 -17.9511 0)
(-16.1802 -15.6141 0)
(-16.8876 -13.1097 0)
(-17.4726 -10.4386 0)
(-17.9565 -7.60281 0)
(-18.2898 -4.63153 0)
(-18.4578 -1.56684 0)
(-18.4991 1.5806 0)
(-18.3809 4.78179 0)
(-18.1022 7.9928 0)
(-17.6629 11.1712 0)
(-17.0596 14.2735 0)
(-16.2925 17.258 0)
(-15.3648 20.0825 0)
(-14.282 22.7076 0)
(-13.0521 25.1005 0)
(-11.6878 27.238 0)
(-10.2057 29.1054 0)
(-8.61779 30.6667 0)
(-6.90555 31.8147 0)
(-5.02942 32.3016 0)
(-3.07175 32.2358 0)
(-1.02883 31.6175 0)
(1.11403 30.5681 0)
(3.26085 29.1735 0)
(5.34119 27.3591 0)
(7.37912 25.165 0)
(9.37316 22.7115 0)
(11.281 20.0642 0)
(13.0789 17.2639 0)
(14.761 14.334 0)
(16.3589 11.2704 0)
(17.9039 8.07741 0)
(19.253 4.82149 0)
(20.5082 1.66055 0)
(21.6178 -1.37199 0)
(22.5654 -4.21971 0)
(23.362 -6.83574 0)
(23.9814 -9.17202 0)
(24.4995 -11.3023 0)
(24.7963 -13.0488 0)
(24.9415 -14.7053 0)
(25.0581 -15.8168 0)
(24.7202 -17.423 0)
(32.7072 -17.1838 0)
(32.8843 -16.1361 0)
(32.7604 -15.0252 0)
(32.3114 -14.0932 0)
(31.526 -13.5478 0)
(30.4035 -13.5456 0)
(28.9539 -14.1765 0)
(27.1939 -15.4647 0)
(25.1519 -17.3836 0)
(22.8731 -19.8486 0)
(20.3793 -22.6336 0)
(17.8118 -25.5522 0)
(15.233 -28.4171 0)
(12.6547 -31.0577 0)
(10.105 -33.3709 0)
(7.59794 -35.2849 0)
(5.1387 -36.755 0)
(2.73283 -37.7567 0)
(0.396999 -38.2748 0)
(-1.8417 -38.2519 0)
(-3.98565 -37.8286 0)
(-6.04354 -37.0392 0)
(-8.00356 -35.911 0)
(-9.85455 -34.4735 0)
(-11.5893 -32.7583 0)
(-13.2025 -30.7983 0)
(-14.6923 -28.6267 0)
(-16.0607 -26.2742 0)
(-17.3143 -23.766 0)
(-18.4642 -21.1185 0)
(-19.5256 -18.3359 0)
(-20.5188 -15.4089 0)
(-21.4681 -12.3272 0)
(-22.363 -9.10288 0)
(-23.1318 -5.76058 0)
(-23.8419 -2.31561 0)
(-24.463 1.24534 0)
(-24.9796 4.89863 0)
(-25.3831 8.6127 0)
(-25.6609 12.3538 0)
(-25.7983 16.0815 0)
(-25.7782 19.7473 0)
(-25.5774 23.2938 0)
(-25.1782 26.6683 0)
(-24.5807 29.8377 0)
(-23.7853 32.7688 0)
(-22.8031 35.4295 0)
(-21.6439 37.7611 0)
(-20.2666 39.6162 0)
(-18.5329 40.6791 0)
(-16.6033 41.1391 0)
(-14.5191 41.008 0)
(-12.3128 40.2891 0)
(-10.0334 38.9846 0)
(-7.71598 37.0805 0)
(-5.37276 34.5995 0)
(-3.0026 31.6454 0)
(-0.619393 28.4075 0)
(1.72272 25.0981 0)
(3.94164 21.8699 0)
(5.96274 18.779 0)
(7.76209 15.7925 0)
(9.45682 12.8084 0)
(11.125 9.70321 0)
(12.5914 6.55509 0)
(13.9685 3.5555 0)
(15.1813 0.688841 0)
(16.2265 -2.00631 0)
(17.113 -4.49348 0)
(17.8346 -6.751 0)
(18.384 -8.76542 0)
(18.7542 -10.5382 0)
(18.9398 -12.0891 0)
(18.9386 -13.4512 0)
(18.7463 -14.6516 0)
(18.3199 -15.6827 0)
(17.5888 -16.5396 0)
(16.6095 -17.354 0)
(15.375 -18.1813 0)
(13.8918 -19.0547 0)
(12.173 -19.9894 0)
(10.2433 -20.9783 0)
(8.13686 -21.987 0)
(5.89276 -22.9558 0)
(3.56069 -23.8056 0)
(1.1949 -24.4694 0)
(-1.14564 -24.8948 0)
(-3.40806 -24.9971 0)
(-5.54747 -24.7597 0)
(-7.54181 -24.1805 0)
(-9.37968 -23.2698 0)
(-11.0505 -22.0489 0)
(-12.5479 -20.5465 0)
(-13.8702 -18.7949 0)
(-15.0208 -16.8255 0)
(-16.0088 -14.6602 0)
(-16.8513 -12.3085 0)
(-17.5683 -9.77953 0)
(-18.152 -7.09737 0)
(-18.5451 -4.29815 0)
(-18.8035 -1.4067 0)
(-18.9068 1.56789 0)
(-18.8448 4.58875 0)
(-18.6167 7.61536 0)
(-18.2206 10.6086 0)
(-17.6554 13.5272 0)
(-16.9216 16.3281 0)
(-16.0214 18.9704 0)
(-14.9596 21.4178 0)
(-13.7437 23.6452 0)
(-12.3879 25.6379 0)
(-10.908 27.3759 0)
(-9.29808 28.8065 0)
(-7.51645 29.7599 0)
(-5.5659 30.1105 0)
(-3.54795 29.9732 0)
(-1.30212 29.3172 0)
(0.448016 28.1743 0)
(2.65387 26.784 0)
(4.86967 25.0229 0)
(6.90482 22.8688 0)
(8.95536 20.4902 0)
(10.908 17.9551 0)
(12.7301 15.2806 0)
(14.4422 12.4716 0)
(16.09 9.51405 0)
(17.621 6.42897 0)
(18.9922 3.34351 0)
(20.25 0.34683 0)
(21.3444 -2.51688 0)
(22.276 -5.1872 0)
(23.0487 -7.62193 0)
(23.6342 -9.77643 0)
(24.1178 -11.7345 0)
(24.3681 -13.3049 0)
(24.4567 -14.7697 0)
(24.5228 -15.7345 0)
(24.0855 -17.0906 0)
(34.91 -17.4256 0)
(34.8869 -16.0583 0)
(34.576 -14.6084 0)
(33.9606 -13.316 0)
(33.0278 -12.4014 0)
(31.7746 -12.0357 0)
(30.2114 -12.3206 0)
(28.3554 -13.2854 0)
(26.2267 -14.8988 0)
(23.8552 -17.09 0)
(21.2879 -19.738 0)
(18.5552 -22.5815 0)
(15.8056 -25.4275 0)
(13.0861 -28.1021 0)
(10.3985 -30.4628 0)
(7.76619 -32.4347 0)
(5.19846 -33.9703 0)
(2.69754 -35.0443 0)
(0.271243 -35.6506 0)
(-2.05223 -35.7638 0)
(-4.26325 -35.4315 0)
(-6.3838 -34.7463 0)
(-8.41101 -33.7322 0)
(-10.3338 -32.418 0)
(-12.1455 -30.8328 0)
(-13.8421 -29.0065 0)
(-15.4224 -26.9683 0)
(-16.8888 -24.7441 0)
(-18.2483 -22.354 0)
(-19.5119 -19.8083 0)
(-20.6954 -17.1076 0)
(-21.818 -14.2503 0)
(-22.882 -11.248 0)
(-23.8154 -8.11599 0)
(-24.6784 -4.8843 0)
(-25.4516 -1.53745 0)
(-26.12 1.91157 0)
(-26.6741 5.43619 0)
(-27.1 9.00708 0)
(-27.3819 12.5882 0)
(-27.5019 16.1352 0)
(-27.4384 19.5944 0)
(-27.1749 22.9167 0)
(-26.7065 26.0659 0)
(-26.0292 29.0081 0)
(-25.1504 31.7209 0)
(-24.0865 34.1744 0)
(-22.8259 36.2681 0)
(-21.2388 37.7379 0)
(-19.3651 38.553 0)
(-17.3053 38.8073 0)
(-15.0787 38.5115 0)
(-12.7321 37.6893 0)
(-10.3207 36.3309 0)
(-7.88698 34.4025 0)
(-5.44793 31.8991 0)
(-2.99342 28.9196 0)
(-0.521573 25.6926 0)
(1.91596 22.4834 0)
(4.21545 19.4481 0)
(6.27991 16.5855 0)
(8.15472 13.7936 0)
(10.0216 10.9115 0)
(11.6854 7.85365 0)
(13.2781 4.9122 0)
(14.7247 2.08086 0)
(16.0039 -0.614374 0)
(17.1288 -3.12957 0)
(18.0956 -5.4342 0)
(18.8965 -7.50283 0)
(19.5246 -9.32077 0)
(19.9735 -10.8919 0)
(20.239 -12.2385 0)
(20.3185 -13.3872 0)
(20.1917 -14.3338 0)
(19.7529 -15.0297 0)
(19.064 -15.6029 0)
(18.1194 -16.1384 0)
(16.9194 -16.6908 0)
(15.4726 -17.297 0)
(13.7913 -17.9765 0)
(11.8932 -18.728 0)
(9.80132 -19.5302 0)
(7.54579 -20.3432 0)
(5.16715 -21.1166 0)
(2.72225 -21.781 0)
(0.279634 -22.2518 0)
(-2.09615 -22.4653 0)
(-4.36112 -22.3699 0)
(-6.48425 -21.9552 0)
(-8.45296 -21.2253 0)
(-10.2551 -20.1959 0)
(-11.8825 -18.89 0)
(-13.3334 -17.3344 0)
(-14.612 -15.5511 0)
(-15.7314 -13.5556 0)
(-16.7077 -11.3656 0)
(-17.5369 -9.00355 0)
(-18.1748 -6.49819 0)
(-18.6634 -3.88431 0)
(-18.9942 -1.16807 0)
(-19.1588 1.62451 0)
(-19.1542 4.457 0)
(-18.9776 7.29267 0)
(-18.6271 10.0933 0)
(-18.1017 12.8185 0)
(-17.4021 15.4284 0)
(-16.5308 17.8851 0)
(-15.4934 20.1561 0)
(-14.3008 22.2184 0)
(-12.9653 24.0559 0)
(-11.4987 25.6404 0)
(-9.88418 26.8911 0)
(-8.04297 27.5904 0)
(-6.0719 27.8314 0)
(-4.07761 27.6363 0)
(-1.88417 27.0434 0)
(0.32823 25.9441 0)
(1.72053 24.4006 0)
(4.57489 22.5806 0)
(6.50153 20.521 0)
(8.54538 18.2641 0)
(10.5139 15.8435 0)
(12.3338 13.2906 0)
(14.0617 10.5932 0)
(15.7291 7.73991 0)
(17.2123 4.7797 0)
(18.6015 1.86789 0)
(19.8417 -0.959468 0)
(20.9172 -3.64401 0)
(21.8276 -6.1279 0)
(22.57 -8.37242 0)
(23.1192 -10.3398 0)
(23.5647 -12.1189 0)
(23.7608 -13.5018 0)
(23.7818 -14.7631 0)
(23.7905 -15.5744 0)
(23.2468 -16.6844 0)
(36.8459 -17.4179 0)
(36.5938 -15.7531 0)
(36.08 -13.9868 0)
(35.2911 -12.3592 0)
(34.2114 -11.0995 0)
(32.8353 -10.392 0)
(31.1696 -10.3505 0)
(29.231 -11.0112 0)
(27.04 -12.3434 0)
(24.6152 -14.2711 0)
(21.9836 -16.6935 0)
(19.1932 -19.4615 0)
(16.2837 -22.281 0)
(13.4185 -24.9851 0)
(10.6115 -27.4128 0)
(7.86321 -29.4588 0)
(5.19329 -31.0752 0)
(2.60617 -32.2354 0)
(0.104373 -32.9391 0)
(-2.29739 -33.1886 0)
(-4.57497 -32.9679 0)
(-6.74461 -32.3875 0)
(-8.82167 -31.4852 0)
(-10.7999 -30.2883 0)
(-12.6724 -28.8259 0)
(-14.4363 -27.1255 0)
(-16.0917 -25.2124 0)
(-17.6422 -23.1074 0)
(-19.0949 -20.8241 0)
(-20.4618 -18.3699 0)
(-21.7569 -15.7528 0)
(-22.9791 -12.9846 0)
(-24.0753 -10.0781 0)
(-25.091 -7.06606 0)
(-26.0125 -3.93782 0)
(-26.8283 -0.702757 0)
(-27.53 2.61729 0)
(-28.1035 5.99736 0)
(-28.5324 9.40611 0)
(-28.7994 12.8047 0)
(-28.8848 16.1455 0)
(-28.7718 19.3807 0)
(-28.4518 22.4725 0)
(-27.9175 25.384 0)
(-27.1707 28.0936 0)
(-26.2264 30.5882 0)
(-25.0967 32.8171 0)
(-23.6971 34.5878 0)
(-21.9477 35.708 0)
(-19.9824 36.2872 0)
(-17.8205 36.3357 0)
(-15.4897 35.8789 0)
(-13.0424 34.9567 0)
(-10.5347 33.5572 0)
(-8.01837 31.6277 0)
(-5.52076 29.1245 0)
(-3.02829 26.123 0)
(-0.515839 22.8928 0)
(1.98096 19.7838 0)
(4.33035 16.966 0)
(6.42459 14.3451 0)
(8.4257 11.7079 0)
(10.32 8.83233 0)
(12.1019 5.96206 0)
(13.7824 3.18677 0)
(15.3026 0.514412 0)
(16.674 -2.00962 0)
(17.8971 -4.34965 0)
(18.9614 -6.47322 0)
(19.8575 -8.35203 0)
(20.5766 -9.97208 0)
(21.1112 -11.3392 0)
(21.4565 -12.4741 0)
(21.6075 -13.387 0)
(21.4952 -14.0297 0)
(21.0789 -14.4221 0)
(20.4184 -14.705 0)
(19.4935 -14.952 0)
(18.3102 -15.2203 0)
(16.8801 -15.5547 0)
(15.2181 -15.9829 0)
(13.3437 -16.5088 0)
(11.2785 -17.1115 0)
(9.04734 -17.7522 0)
(6.67165 -18.3976 0)
(4.19054 -19.0013 0)
(1.66138 -19.4989 0)
(-0.826901 -19.7976 0)
(-3.19675 -19.844 0)
(-5.42707 -19.5936 0)
(-7.50702 -19.0428 0)
(-9.42292 -18.2037 0)
(-11.1658 -17.0936 0)
(-12.7368 -15.7313 0)
(-14.1434 -14.135 0)
(-15.3896 -12.3197 0)
(-16.4547 -10.3014 0)
(-17.3515 -8.12621 0)
(-18.0834 -5.81753 0)
(-18.6482 -3.38552 0)
(-19.0448 -0.853231 0)
(-19.2704 1.74827 0)
(-19.3212 4.38602 0)
(-19.1943 7.02474 0)
(-18.8884 9.62688 0)
(-18.4024 12.1536 0)
(-17.7373 14.5666 0)
(-16.8964 16.8308 0)
(-15.8875 18.919 0)
(-14.724 20.8132 0)
(-13.4229 22.4968 0)
(-11.987 23.9253 0)
(-10.3589 24.9473 0)
(-8.53919 25.4802 0)
(-6.60661 25.6034 0)
(-4.58964 25.3199 0)
(-2.48602 24.6715 0)
(-0.252701 23.6078 0)
(1.95388 22.0221 0)
(4.07649 20.1407 0)
(6.13542 18.1597 0)
(8.15262 16.014 0)
(10.0673 13.7195 0)
(11.861 11.3 0)
(13.592 8.72224 0)
(15.2162 5.96986 0)
(16.7049 3.17146 0)
(18.0843 0.417372 0)
(19.3025 -2.24401 0)
(20.3565 -4.7473 0)
(21.2386 -7.03869 0)
(21.9447 -9.08566 0)
(22.4544 -10.86 0)
(22.8516 -12.4465 0)
(22.9829 -13.6271 0)
(22.9252 -14.6759 0)
(22.8706 -15.3325 0)
(22.2249 -16.2038 0)
(38.4432 -17.1342 0)
(37.9365 -15.1967 0)
(37.2037 -13.1477 0)
(36.2347 -11.2218 0)
(35.013 -9.65096 0)
(33.5271 -8.62979 0)
(31.7776 -8.28573 0)
(29.7777 -8.66483 0)
(27.5466 -9.73797 0)
(25.1014 -11.423 0)
(22.4559 -13.6147 0)