/*--------------------------------*- C++ -*----------------------------------*\
| =========                 |                                                 |
| \\      /  F ield         | OpenFOAM: The Open Source CFD Toolbox           |
|  \\    /   O peration     | Version:  2206                                  |
|   \\  /    A nd           | Website:  www.openfoam.com                      |
|    \\/     M anipulation  |                                                 |
\*---------------------------------------------------------------------------*/
FoamFile
{
    version     2.0;
    format      ascii;
    arch        "LSB;label=32;scalar=64";
    class       surfaceScalarField;
    location    "19.1001";
    object      phi;
}
// * * * * * * * * * * * * * * * * * * * * * * * * * * * * * * * * * * * * * //

dimensions      [0 3 -1 0 0 0 0];

oriented        oriented;

internalField   nonuniform List<scalar> 
9467
(
9.70324e-07
3.53659e-07
-1.32398e-06
1.21196e-06
1.32526e-06
-1.56689e-06
1.28744e-06
1.83199e-06
-1.90747e-06
1.27664e-06
1.97222e-06
-1.96142e-06
1.13417e-06
1.96514e-06
-1.82267e-06
8.14527e-07
2.00087e-06
-1.68123e-06
3.01954e-07
2.16849e-06
-1.65592e-06
-3.54312e-07
2.41251e-06
-1.75624e-06
-1.06127e-06
2.63709e-06
-1.93013e-06
-1.70753e-06
2.74971e-06
-2.10345e-06
-2.19879e-06
2.68908e-06
-2.19783e-06
-2.47888e-06
2.43044e-06
-2.15034e-06
-2.54493e-06
1.98804e-06
-1.92199e-06
-2.35738e-06
1.35088e-06
-1.53844e-06
-1.94894e-06
6.14452e-07
-1.02289e-06
-1.42525e-06
-1.2543e-07
-3.98253e-07
-7.91376e-07
-8.59532e-07
2.25655e-07
-1.23195e-07
-1.55237e-06
8.84186e-07
5.39867e-07
-2.18165e-06
1.51859e-06
1.1739e-06
-2.73542e-06
2.10139e-06
1.76988e-06
-3.21591e-06
2.61993e-06
2.32905e-06
-3.62429e-06
3.06513e-06
2.86264e-06
-3.96261e-06
3.42902e-06
3.39611e-06
-4.23229e-06
3.69882e-06
3.96176e-06
-4.42138e-06
3.85573e-06
4.59204e-06
-4.50231e-06
3.87202e-06
5.3118e-06
-4.43669e-06
3.71693e-06
6.1316e-06
-4.1884e-06
3.3686e-06
7.04631e-06
-3.73086e-06
2.81615e-06
8.03662e-06
-3.05985e-06
2.06955e-06
9.06156e-06
-2.20047e-06
1.17553e-06
1.00475e-05
-1.21341e-06
2.275e-07
1.09216e-05
-1.95262e-07
-6.78861e-07
1.16449e-05
7.60444e-07
-1.48379e-06
1.22038e-05
1.59893e-06
-2.15783e-06
1.26024e-05
2.29477e-06
-2.69339e-06
1.28581e-05
2.84105e-06
-3.09674e-06
1.29941e-05
3.24944e-06
-3.38536e-06
1.30367e-05
3.53593e-06
-3.57859e-06
1.3006e-05
3.72109e-06
-3.69033e-06
1.29144e-05
3.82499e-06
-3.73342e-06
1.27789e-05
3.85832e-06
-3.72288e-06
1.26152e-05
3.83939e-06
-3.6757e-06
1.24364e-05
3.78423e-06
-3.6054e-06
1.22519e-05
3.70658e-06
-3.5221e-06
1.20682e-05
3.61619e-06
-3.43241e-06
1.18879e-05
3.52099e-06
-3.34069e-06
1.17113e-05
3.42605e-06
-3.2495e-06
1.15376e-05
3.33434e-06
-3.16061e-06
1.13658e-05
3.24701e-06
-3.07525e-06
1.11958e-05
3.16341e-06
-2.99342e-06
1.10276e-05
3.08169e-06
-2.91344e-06
1.08588e-05
3.00195e-06
-2.83318e-06
1.0682e-05
2.93075e-06
-2.75388e-06
1.04834e-05
2.88279e-06
-2.68427e-06
1.02494e-05
2.87558e-06
-2.64155e-06
9.97801e-06
2.91392e-06
-2.64252e-06
9.68882e-06
2.97447e-06
-2.68528e-06
9.41314e-06
3.01227e-06
-2.7366e-06
9.1827e-06
2.97646e-06
-2.74602e-06
9.02674e-06
2.81418e-06
-2.65822e-06
8.96201e-06
2.4916e-06
-2.42687e-06
8.98924e-06
2.00796e-06
-2.03519e-06
9.09307e-06
1.39462e-06
-1.49845e-06
9.25071e-06
7.01194e-07
-8.58843e-07
9.438e-06
-1.41778e-08
-1.73106e-07
9.63707e-06
-7.01429e-07
5.02361e-07
9.83623e-06
-1.33268e-06
1.13352e-06
1.00254e-05
-1.89004e-06
1.70085e-06
1.01967e-05
-2.36395e-06
2.19262e-06
1.03444e-05
-2.75213e-06
2.60443e-06
1.04647e-05
-3.05825e-06
2.93802e-06
1.05549e-05
-3.29106e-06
3.20083e-06
1.06131e-05
-3.46367e-06
3.40549e-06
1.06373e-05
-3.59257e-06
3.56839e-06
1.06254e-05
-3.69493e-06
3.7068e-06
1.05752e-05
-3.7832e-06
3.83345e-06
1.04887e-05
-3.86913e-06
3.9556e-06
1.03744e-05
-3.96325e-06
4.0775e-06
1.02458e-05
-4.06296e-06
4.19156e-06
1.0116e-05
-4.15175e-06
4.28158e-06
9.99391e-06
-4.20924e-06
4.33134e-06
9.88906e-06
-4.21019e-06
4.31504e-06
9.81722e-06
-4.11906e-06
4.1909e-06
9.78634e-06
-3.9102e-06
3.94108e-06
9.79872e-06
-3.57417e-06
3.56179e-06
9.85345e-06
-3.11684e-06
3.06212e-06
9.94683e-06
-2.55735e-06
2.46396e-06
1.00729e-05
-1.92529e-06
1.79926e-06
1.02219e-05
-1.25739e-06
1.10831e-06
1.03836e-05
-5.95575e-07
4.33958e-07
1.05495e-05
3.06885e-08
-1.96637e-07
1.07115e-05
6.0094e-07
-7.62951e-07
1.08627e-05
1.10044e-06
-1.25165e-06
1.09979e-05
1.5212e-06
-1.65636e-06
1.11135e-05
1.86089e-06
-1.97656e-06
1.12081e-05
2.12285e-06
-2.21742e-06
1.12816e-05
2.31305e-06
-2.38654e-06
1.13346e-05
2.44139e-06
-2.49438e-06
1.13685e-05
2.5188e-06
-2.55267e-06
1.13856e-05
2.55622e-06
-2.57336e-06
1.13875e-05
2.56649e-06
-2.56837e-06
1.13726e-05
2.54785e-06
-2.53293e-06
1.13461e-05
2.5065e-06
-2.48005e-06
2.45419e-06
-2.41929e-06
-1.95141e-07
5.48801e-07
-2.30804e-07
1.36092e-06
-1.10134e-07
1.71132e-06
-1.00842e-07
1.96293e-06
-3.24878e-07
2.18918e-06
-7.7974e-07
2.45573e-06
-1.35926e-06
2.74801e-06
-1.95408e-06
3.00734e-06
-2.47886e-06
3.16186e-06
-2.8676e-06
3.13845e-06
-3.07966e-06
2.90114e-06
-3.08273e-06
2.43351e-06
-2.84553e-06
1.75084e-06
-2.3876e-06
8.92955e-07
-1.78846e-06
1.5306e-08
-1.08692e-06
-8.26971e-07
-3.37726e-07
-1.60872e-06
3.98505e-07
-2.2886e-06
1.08329e-06
-2.86643e-06
1.69831e-06
-3.35044e-06
2.23637e-06
-3.75397e-06
2.69684e-06
-4.08476e-06
3.08678e-06
-4.35255e-06
3.42396e-06
-4.56947e-06
3.73993e-06
-4.73735e-06
4.07719e-06
-4.83957e-06
4.493e-06
-4.8525e-06
5.03545e-06
-4.73085e-06
5.71055e-06
-4.40596e-06
6.51142e-06
-3.86073e-06
7.41334e-06
-3.10239e-06
8.36832e-06
-2.1684e-06
9.3026e-06
-1.12954e-06
1.01481e-05
-8.50295e-08
1.08665e-05
8.80506e-07
1.14407e-05
1.72061e-06
1.18698e-05
2.41188e-06
1.21664e-05
2.9529e-06
1.23484e-05
3.35392e-06
1.24367e-05
3.63274e-06
1.24537e-05
3.80805e-06
1.24121e-05
3.8999e-06
1.23232e-05
3.92831e-06
1.21986e-05
3.90882e-06
1.20512e-05
3.85402e-06
1.18937e-05
3.7737e-06
1.17326e-05
3.68204e-06
1.1571e-05
3.58766e-06
1.14098e-05
3.49553e-06
1.12494e-05
3.40738e-06
1.10904e-05
3.32247e-06
1.09315e-05
3.24053e-06
1.07676e-05
3.16591e-06
1.05875e-05
3.11076e-06
1.03782e-05
3.09211e-06
1.01335e-05
3.1203e-06
9.86464e-06
3.18278e-06
9.59784e-06
3.24128e-06
9.36109e-06
3.24902e-06
9.18321e-06
3.15434e-06
9.08559e-06
2.91181e-06
9.07574e-06
2.50145e-06
9.14609e-06
1.93761e-06
9.27998e-06
1.26073e-06
9.45686e-06
5.2432e-07
9.65436e-06
-2.11682e-07
9.85766e-06
-9.04725e-07
1.00546e-05
-1.52967e-06
1.02354e-05
-2.0708e-06
1.03927e-05
-2.52129e-06
1.05223e-05
-2.88165e-06
1.06219e-05
-3.15791e-06
1.06912e-05
-3.3603e-06
1.07297e-05
-3.50222e-06
1.07365e-05
-3.59939e-06
1.07088e-05
-3.66722e-06
1.06427e-05
-3.71711e-06
1.05395e-05
-3.76592e-06
1.04045e-05
-3.82825e-06
1.02481e-05
-3.90654e-06
1.00844e-05
-3.98801e-06
9.92483e-06
-4.04972e-06
9.78068e-06
-4.06604e-06
9.66622e-06
-4.0046e-06
9.5925e-06
-3.83648e-06
9.56461e-06
-3.54628e-06
9.58303e-06
-3.13526e-06
9.64497e-06
-2.61929e-06
9.74515e-06
-2.02547e-06
9.87539e-06
-1.38763e-06
1.00249e-05
-7.45131e-07
1.01858e-05
-1.30203e-07
1.03496e-05
4.37176e-07
1.05089e-05
9.41113e-07
1.06577e-05
1.37242e-06
1.07912e-05
1.72737e-06
1.09066e-05
2.00751e-06
1.1002e-05
2.21762e-06
1.10771e-05
2.36624e-06
1.11327e-05
2.46328e-06
1.11704e-05
2.51849e-06
1.11945e-05
2.54235e-06
1.1203e-05
2.53933e-06
1.11974e-05
2.51218e-06
2.4707e-06
-3.48545e-07
8.97346e-07
-4.71735e-07
1.48411e-06
-5.56914e-07
1.7965e-06
-7.39373e-07
2.14539e-06
-1.05451e-06
2.50431e-06
-1.45849e-06
2.85971e-06
-1.89117e-06
3.18069e-06
-2.29533e-06
3.41149e-06
-2.62725e-06
3.49379e-06
-2.84573e-06
3.35693e-06
-2.89395e-06
2.94936e-06
-2.70391e-06
2.24347e-06
-2.25499e-06
1.30192e-06
-1.62113e-06
2.5909e-07
-8.78372e-07
-7.27449e-07
-7.07699e-08
-1.63457e-06
7.23939e-07
-2.40343e-06
1.46837e-06
-3.03303e-06
2.1335e-06
-3.53157e-06
2.70331e-06
-3.92025e-06
3.16876e-06
-4.21942e-06
3.52921e-06
-4.44522e-06
3.79177e-06
-4.61511e-06
3.97268e-06
-4.75038e-06
4.10236e-06
-4.86704e-06
4.22138e-06
-4.95859e-06
4.36594e-06
-4.99706e-06
4.59115e-06
-4.95606e-06
4.95383e-06
-4.76864e-06
5.48212e-06
-4.38902e-06
6.16636e-06
-3.78663e-06
6.97175e-06
-2.97378e-06
7.84437e-06
-2.00216e-06
8.71071e-06
-9.51373e-07
9.50964e-06
8.15799e-08
1.02039e-05
1.02633e-06
1.07738e-05
1.84198e-06
1.12161e-05
2.51062e-06
1.15378e-05
3.03224e-06
1.17534e-05
3.41712e-06
1.18802e-05
3.68121e-06
1.19355e-05
3.84462e-06
1.19364e-05
3.92746e-06
1.18897e-05
3.95544e-06
1.18021e-05
3.94166e-06
1.16855e-05
3.89028e-06
1.15544e-05
3.81321e-06
1.14155e-05
3.7265e-06
1.12731e-05
3.63797e-06
1.11295e-05
3.55092e-06
1.09854e-05
3.46657e-06
1.08377e-05
3.38831e-06
1.06778e-05
3.32571e-06
1.04942e-05
3.2944e-06
1.02785e-05
3.30782e-06
1.00353e-05
3.36345e-06
9.78498e-06
3.43315e-06
9.55177e-06
3.47448e-06
9.36087e-06
3.43992e-06
9.23655e-06
3.27866e-06
9.1936e-06
2.95476e-06
9.23216e-06
2.4629e-06
9.34088e-06
1.82888e-06
9.5032e-06
1.09841e-06
9.69827e-06
3.29247e-07
9.90566e-06
-4.19065e-07
1.01116e-05
-1.11068e-06
1.03042e-05
-1.72231e-06
1.04743e-05
-2.24088e-06
1.06156e-05
-2.66255e-06
1.07249e-05
-2.99099e-06
1.0802e-05
-3.23495e-06
1.0848e-05
-3.4063e-06
1.08645e-05
-3.5188e-06
1.08519e-05
-3.58674e-06
1.0806e-05
-3.62134e-06
1.07241e-05
-3.63519e-06
1.06068e-05
-3.64858e-06
1.04564e-05
-3.67791e-06
1.02797e-05
-3.72984e-06
1.00889e-05
-3.79724e-06
9.89795e-06
-3.85872e-06
9.71897e-06
-3.88706e-06
9.56628e-06
-3.85191e-06
9.4528e-06
-3.723e-06
9.38663e-06
-3.48011e-06
9.37018e-06
-3.11881e-06
9.40163e-06
-2.65074e-06
9.47602e-06
-2.09986e-06
9.58617e-06
-1.49777e-06
9.72155e-06
-8.80519e-07
9.87375e-06
-2.82399e-07
1.00349e-05
2.7607e-07
1.0197e-05
7.7893e-07
1.03537e-05
1.21575e-06
1.04993e-05
1.58176e-06
1.06299e-05
1.87692e-06
1.07426e-05
2.1049e-06
1.08363e-05
2.27257e-06
1.09112e-05
2.38837e-06
1.09686e-05
2.46114e-06
1.10112e-05
2.49968e-06
1.104e-05
2.51059e-06
1.10537e-05
2.49843e-06
2.46957e-06
-3.03635e-07
-4.94443e-07
-6.78415e-07
-9.10971e-07
-1.19131e-06
-1.49408e-06
-1.78029e-06
-2.01757e-06
-2.1717e-06
-2.18578e-06
3.371e-06
-1.98584e-06
2.74942e-06
-1.55987e-06
1.8175e-06
-9.4722e-07
6.89277e-07
-2.2324e-07
-4.6489e-07
5.78161e-07
-1.52885e-06
1.38233e-06
-2.43875e-06
2.14368e-06
-3.16478e-06
2.83478e-06
-3.72413e-06
3.43985e-06
-4.13663e-06
3.95063e-06
-4.43103e-06
4.36191e-06
-4.63069e-06
4.66474e-06
-4.74805e-06
4.84797e-06
-4.79834e-06
4.913e-06
-4.81542e-06
4.87942e-06
-4.83345e-06
4.79381e-06
-4.87298e-06
4.71154e-06
-4.91479e-06
4.68083e-06
-4.92536e-06
4.75333e-06
-4.84113e-06
4.97263e-06
-4.60832e-06
5.37763e-06
-4.19163e-06
5.95941e-06
-3.55556e-06
6.67489e-06
-2.71764e-06
7.46486e-06
-1.74134e-06
8.25855e-06
-7.12114e-07
9.00194e-06
2.82943e-07
9.66025e-06
1.18367e-06
1.02135e-05
1.95742e-06
1.06559e-05
2.58975e-06
1.09915e-05
3.08155e-06
1.12301e-05
3.44264e-06
1.1385e-05
3.68969e-06
1.14703e-05
3.8422e-06
1.15021e-05
3.92364e-06
1.14904e-05
3.95331e-06
1.14365e-05
3.94421e-06
1.13489e-05
3.9008e-06
1.12429e-05
3.8325e-06
1.11268e-05
3.75401e-06
1.10055e-05
3.67227e-06
1.08793e-05
3.59276e-06
1.07432e-05
3.52438e-06
1.05875e-05
3.48141e-06
1.0403e-05
3.47895e-06
1.01893e-05
3.52146e-06
9.96083e-06
3.59196e-06
9.7398e-06
3.65419e-06
9.54715e-06
3.66713e-06
9.40655e-06
3.58052e-06
9.33741e-06
3.3478e-06
9.34743e-06
2.94473e-06
9.43141e-06
2.37891e-06
9.57696e-06
1.68333e-06
9.76706e-06
9.08316e-07
9.97898e-06
1.17321e-07
1.0195e-05
-6.35112e-07
1.04015e-05
-1.31718e-06
1.05871e-05
-1.90789e-06
1.07434e-05
-2.39719e-06
1.08655e-05
-2.78465e-06
1.09518e-05
-3.07725e-06
1.10035e-05
-3.28668e-06
1.10238e-05
-3.42661e-06
1.1016e-05
-3.51101e-06
1.09802e-05
-3.55094e-06
1.09135e-05
-3.55461e-06
1.08163e-05
-3.53801e-06
1.06878e-05
-3.52006e-06
1.05273e-05
-3.51738e-06
1.03375e-05
-3.54011e-06
1.01272e-05
-3.58691e-06
9.91033e-06
-3.64184e-06
9.70131e-06
-3.67803e-06
9.51501e-06
-3.66562e-06
9.36545e-06
-3.57344e-06
9.26301e-06
-3.37768e-06
9.21283e-06
-3.06862e-06
9.21446e-06
-2.65237e-06
9.26354e-06
-2.14894e-06
9.35303e-06
-1.58727e-06
9.4731e-06
-1.00059e-06
9.61435e-06
-4.23645e-07
9.76917e-06
1.2125e-07
9.92985e-06
6.18248e-07
1.00894e-05
1.05622e-06
1.02418e-05
1.42934e-06
1.03824e-05
1.73629e-06
1.05079e-05
1.97942e-06
1.06164e-05
2.16404e-06
1.07076e-05
2.2972e-06
1.0782e-05
2.38672e-06
1.08413e-05
2.44041e-06
1.08866e-05
2.46533e-06
1.09176e-05
2.46738e-06
2.45189e-06
-7.55619e-07
-3.48081e-07
1.9477e-07
8.36756e-07
1.55383e-06
2.28442e-06
2.9841e-06
3.63225e-06
4.21139e-06
4.71134e-06
5.12828e-06
5.46859e-06
5.732e-06
5.90447e-06
5.96524e-06
5.89254e-06
5.68975e-06
5.41746e-06
5.15408e-06
4.97367e-06
4.92515e-06
5.04137e-06
5.35307e-06
5.85353e-06
6.49169e-06
7.20442e-06
7.92691e-06
8.61314e-06
9.23079e-06
9.7604e-06
1.01942e-05
1.05336e-05
1.07852e-05
1.09581e-05
1.10654e-05
1.11206e-05
1.11343e-05
1.11086e-05
1.10486e-05
1.09682e-05
1.08749e-05
1.0769e-05
1.06449e-05
1.04946e-05
1.03152e-05
1.01149e-05
9.913e-06
9.72897e-06
9.58285e-06
9.49653e-06
9.48401e-06
9.5464e-06
9.67593e-06
9.85905e-06
1.00763e-05
1.03043e-05
1.0527e-05
1.07307e-05
1.0905e-05
1.10432e-05
1.11426e-05
1.12033e-05
1.12283e-05
1.1222e-05
1.11871e-05
1.11233e-05
1.10337e-05
1.09205e-05
1.07819e-05
1.06147e-05
1.04178e-05
1.01957e-05
9.95988e-06
9.72591e-06
9.50969e-06
9.32718e-06
9.19078e-06
9.10769e-06
9.07969e-06
9.10335e-06
9.17188e-06
9.27587e-06
9.40472e-06
9.5508e-06
9.70658e-06
9.86502e-06
1.002e-05
1.01665e-05
1.03007e-05
1.04205e-05
1.05246e-05
1.06129e-05
1.06862e-05
1.07454e-05
1.0791e-05
5.71129e-06
1.42545e-07
5.55857e-06
1.52722e-07
5.39559e-06
1.62978e-07
5.22231e-06
1.7328e-07
5.03874e-06
1.83572e-07
4.84487e-06
1.9387e-07
4.64096e-06
2.03903e-07
4.42754e-06
2.13428e-07
4.20521e-06
2.22329e-07
3.97485e-06
2.30361e-07
3.73781e-06
2.37032e-07
3.49608e-06
2.41728e-07
3.25386e-06
2.42224e-07
3.01642e-06
2.37443e-07
2.78738e-06
2.29036e-07
2.56871e-06
2.18676e-07
2.36129e-06
2.07413e-07
2.16553e-06
1.95761e-07
1.98148e-06
1.84053e-07
1.80895e-06
1.7253e-07
1.64761e-06
1.61343e-07
1.49702e-06
1.5059e-07
1.35668e-06
1.4034e-07
1.22605e-06
1.30625e-07
1.10456e-06
1.21493e-07
9.91627e-07
1.1293e-07
8.86768e-07
1.04859e-07
7.89564e-07
9.72042e-08
6.99675e-07
8.98897e-08
6.16865e-07
8.28096e-08
5.41029e-07
7.58364e-08
4.72269e-07
6.876e-08
4.10672e-07
6.15966e-08
3.55963e-07
5.47087e-08
3.08118e-07
4.78457e-08
2.67755e-07
4.03628e-08
3.18727e-08
2.35882e-07
1.15296e-05
2.15588e-07
1.14477e-05
2.34693e-07
1.13567e-05
2.5398e-07
1.12565e-05
2.734e-07
1.11473e-05
2.92753e-07
1.10287e-05
3.1248e-07
1.09008e-05
3.31825e-07
1.07639e-05
3.50369e-07
1.06181e-05
3.68123e-07
1.04637e-05
3.84694e-07
1.03011e-05
3.99684e-07
1.01304e-05
4.12456e-07
9.94997e-06
4.22626e-07
9.75767e-06
4.29745e-07
9.5532e-06
4.335e-07
9.33763e-06
4.34245e-07
9.11249e-06
4.32558e-07
8.87935e-06
4.28895e-07
8.6398e-06
4.23613e-07
8.3953e-06
4.17026e-07
8.14724e-06
4.09406e-07
7.89684e-06
4.00983e-07
7.64522e-06
3.91965e-07
7.3933e-06
3.82541e-07
7.14194e-06
3.72855e-07
6.89185e-06
3.63017e-07
6.64357e-06
3.53139e-07
6.39748e-06
3.43294e-07
6.15383e-06
3.33542e-07
5.9127e-06
3.23943e-07
5.67402e-06
3.14516e-07
5.4375e-06
3.05275e-07
5.203e-06
2.96099e-07
4.97094e-06
2.86772e-07
4.74138e-06
2.77406e-07
4.51353e-06
2.68214e-07
2.59213e-07
4.28619e-06
1.36101e-05
2.36956e-07
1.35833e-05
2.61544e-07
1.35509e-05
2.8631e-07
1.35131e-05
3.1119e-07
1.34699e-05
3.35979e-07
1.34213e-05
3.61099e-07
1.33673e-05
3.85802e-07
1.3308e-05
4.09681e-07
1.32434e-05
4.32753e-07
1.31734e-05
4.54696e-07
1.30978e-05
4.75207e-07
1.30166e-05
4.9373e-07
1.29294e-05
5.09837e-07
1.28359e-05
5.23234e-07
1.27356e-05
5.33792e-07
1.26282e-05
5.4163e-07
1.25137e-05
5.47015e-07
1.23924e-05
5.50219e-07
1.22645e-05
5.51488e-07
1.21305e-05
5.51054e-07
1.19908e-05
5.49128e-07
1.18459e-05
5.4591e-07
1.16962e-05
5.41637e-07
1.15422e-05
5.36524e-07
1.13843e-05
5.30736e-07
1.12229e-05
5.24431e-07
1.10583e-05
5.1776e-07
1.08907e-05
5.1085e-07
1.07204e-05
5.03832e-07
1.05475e-05
4.96857e-07
1.0372e-05
4.90071e-07
1.01936e-05
4.83616e-07
1.0012e-05
4.77686e-07
9.82637e-06
4.72441e-07
9.63581e-06
4.6797e-07
9.4396e-06
4.64418e-07
4.61977e-07
9.23684e-06
1.42245e-05
2.36517e-07
1.42213e-05
2.64728e-07
1.42146e-05
2.93036e-07
1.42045e-05
3.21332e-07
1.41909e-05
3.49544e-07
1.41744e-05
3.77626e-07
1.41549e-05
4.05282e-07
1.41323e-05
4.32233e-07
1.41068e-05
4.58316e-07
1.40782e-05
4.83262e-07
1.40466e-05
5.06778e-07
1.40119e-05
5.28468e-07
1.39737e-05
5.48041e-07
1.39317e-05
5.65268e-07
1.38854e-05
5.80037e-07
1.38347e-05
5.9235e-07
1.37794e-05
6.02294e-07
1.37196e-05
6.10019e-07
1.36554e-05
6.15706e-07
1.35869e-05
6.19547e-07
1.35143e-05
6.21746e-07
1.34377e-05
6.22499e-07
1.33574e-05
6.21959e-07
1.32736e-05
6.20297e-07
1.31866e-05
6.17715e-07
1.30966e-05
6.14419e-07
1.30038e-05
6.10583e-07
1.29083e-05
6.06342e-07
1.28103e-05
6.01872e-07
1.27097e-05
5.97389e-07
1.26067e-05
5.93091e-07
1.25012e-05
5.89182e-07
1.2393e-05
5.85867e-07
1.22821e-05
5.83353e-07
1.21681e-05
5.81888e-07
1.20508e-05
5.81775e-07
5.83316e-07
1.19295e-05
1.43945e-05
2.29359e-07
1.43987e-05
2.60489e-07
1.44002e-05
2.91578e-07
1.4399e-05
3.22517e-07
1.43953e-05
3.53234e-07
1.43894e-05
3.83595e-07
1.43812e-05
4.13481e-07
1.43708e-05
4.42591e-07
1.43583e-05
4.70812e-07
1.43438e-05
4.97776e-07
1.43272e-05
5.23365e-07
1.43086e-05
5.47107e-07
1.42876e-05
5.6896e-07
1.42642e-05
5.88675e-07
1.42381e-05
6.06157e-07
1.42091e-05
6.21332e-07
1.41773e-05
6.3415e-07
1.41426e-05
6.44703e-07
1.41052e-05
6.53139e-07
1.40651e-05
6.59614e-07
1.40226e-05
6.64287e-07
1.39777e-05
6.67327e-07
1.39308e-05
6.68906e-07
1.38819e-05
6.69208e-07
1.38311e-05
6.68435e-07
1.37787e-05
6.66857e-07
1.37247e-05
6.64604e-07
1.36693e-05
6.61758e-07
1.36126e-05
6.58592e-07
1.35546e-05
6.55364e-07
1.34954e-05
6.52288e-07
1.3435e-05
6.49597e-07
1.33732e-05
6.47613e-07
1.331e-05
6.46528e-07
1.32455e-05
6.46444e-07
1.31795e-05
6.4777e-07
6.50948e-07
1.31119e-05
1.44364e-05
2.20004e-07
1.4443e-05
2.53942e-07
1.44469e-05
2.87677e-07
1.44482e-05
3.21137e-07
1.44472e-05
3.54236e-07
1.4444e-05
3.8683e-07
1.44387e-05
4.18839e-07
1.44313e-05
4.49977e-07
1.44219e-05
4.80164e-07
1.44106e-05
5.09052e-07
1.43974e-05
5.36604e-07
1.43822e-05
5.6235e-07
1.43649e-05
5.86233e-07
1.43456e-05
6.0798e-07
1.43243e-05
6.27419e-07
1.43011e-05
6.445e-07
1.4276e-05
6.59329e-07
1.42487e-05
6.71957e-07
1.42194e-05
6.82428e-07
1.41882e-05
6.9082e-07
1.41553e-05
6.97242e-07
1.41208e-05
7.01832e-07
1.40849e-05
7.04742e-07
1.4048e-05
7.06134e-07
1.40103e-05
7.06173e-07
1.39721e-05
7.04993e-07
1.39338e-05
7.02903e-07
1.38953e-05
7.00265e-07
1.38566e-05
6.9728e-07
1.38178e-05
6.94161e-07
1.3779e-05
6.91109e-07
1.37402e-05
6.88392e-07
1.37015e-05
6.86356e-07
1.36629e-05
6.85109e-07
1.36246e-05
6.84741e-07
1.35864e-05
6.85937e-07
6.8916e-07
1.35482e-05
1.44618e-05
2.10526e-07
1.44684e-05
2.47305e-07
1.44723e-05
2.83743e-07
1.44737e-05
3.19789e-07
1.44726e-05
3.55348e-07
1.44691e-05
3.90295e-07
1.44634e-05
4.24531e-07
1.44555e-05
4.57842e-07
1.44456e-05
4.90092e-07
1.44336e-05
5.21031e-07
1.44197e-05
5.50494e-07
1.44039e-05
5.78224e-07
1.43861e-05
6.0403e-07
1.43663e-05
6.27718e-07
1.43446e-05
6.49137e-07
1.43209e-05
6.68178e-07
1.42954e-05
6.84846e-07
1.42682e-05
6.9916e-07
1.42395e-05
7.11149e-07
1.42094e-05
7.20879e-07
1.41782e-05
7.28445e-07
1.41461e-05
7.33972e-07
1.41132e-05
7.37606e-07
1.40799e-05
7.39519e-07
1.40461e-05
7.399e-07
1.40122e-05
7.38955e-07
1.39782e-05
7.36913e-07
1.39444e-05
7.34049e-07
1.3911e-05
7.30614e-07
1.38783e-05
7.26885e-07
1.38463e-05
7.23163e-07
1.3815e-05
7.19637e-07
1.37848e-05
7.16543e-07
1.37555e-05
7.14399e-07
1.37268e-05
7.13518e-07
1.36991e-05
7.13593e-07
7.14803e-07
1.36735e-05
1.44826e-05
1.61363e-07
1.44917e-05
2.01439e-07
1.44979e-05
2.41135e-07
1.45013e-05
2.8037e-07
1.4502e-05
3.19105e-07
1.45001e-05
3.57253e-07
1.44956e-05
3.94704e-07
1.44888e-05
4.3136e-07
1.44796e-05
4.67037e-07
1.44681e-05
5.01585e-07
1.44544e-05
5.34786e-07
1.44384e-05
5.66445e-07
1.44203e-05
5.96338e-07
1.44001e-05
6.24242e-07
1.43778e-05
6.4997e-07
1.43536e-05
6.7335e-07
1.43275e-05
6.94263e-07
1.42997e-05
7.12651e-07
1.42704e-05
7.28498e-07
1.42397e-05
7.41811e-07
1.4208e-05
7.52628e-07
1.41754e-05
7.61034e-07
1.41422e-05
7.67152e-07
1.41087e-05
7.71137e-07
1.4075e-05
7.73168e-07
1.40415e-05
7.73452e-07
1.40082e-05
7.72215e-07
1.39754e-05
7.69707e-07
1.39433e-05
7.66217e-07
1.39119e-05
7.62017e-07
1.38814e-05
7.57362e-07
1.3852e-05
7.52568e-07
1.38237e-05
7.47922e-07
1.37966e-05
7.43605e-07
1.37711e-05
7.39892e-07
1.37475e-05
7.37187e-07
1.37254e-05
7.35655e-07
7.35285e-07
1.37049e-05
1.45199e-05
1.49719e-07
1.45285e-05
1.92912e-07
1.4534e-05
2.35604e-07
1.45366e-05
2.77736e-07
1.45364e-05
3.19274e-07
1.45335e-05
3.60154e-07
1.4528e-05
4.00281e-07
1.45198e-05
4.39561e-07
1.4509e-05
4.77832e-07
1.44956e-05
5.14935e-07
1.44798e-05
5.50661e-07
1.44614e-05
5.84796e-07
1.44406e-05
6.17105e-07
1.44175e-05
6.47356e-07
1.43922e-05
6.75328e-07
1.43647e-05
7.00828e-07
1.43352e-05
7.23702e-07
1.4304e-05
7.43846e-07
1.42713e-05
7.61201e-07
1.42374e-05
7.75748e-07
1.42025e-05
7.87511e-07
1.4167e-05
7.96563e-07
1.41311e-05
8.03024e-07
1.40952e-05
8.07057e-07
1.40595e-05
8.08858e-07
1.40243e-05
8.08656e-07
1.39898e-05
8.06705e-07
1.39562e-05
8.03281e-07
1.39238e-05
7.9869e-07
1.38926e-05
7.93234e-07
1.38627e-05
7.87188e-07
1.38344e-05
7.80858e-07
1.38078e-05
7.74564e-07
1.37828e-05
7.68564e-07
1.37596e-05
7.63087e-07
1.37384e-05
7.58402e-07
1.37193e-05
7.54749e-07
7.52303e-07
1.37023e-05
1.45632e-05
1.38688e-07
1.4571e-05
1.8506e-07
1.45758e-05
2.30814e-07
1.45777e-05
2.75916e-07
1.45766e-05
3.20352e-07
1.45726e-05
3.64084e-07
1.45659e-05
4.07041e-07
1.45563e-05
4.49138e-07
1.45439e-05
4.90228e-07
1.45287e-05
5.30145e-07
1.45107e-05
5.68678e-07
1.44899e-05
6.05588e-07
1.44664e-05
6.40615e-07
1.44402e-05
6.73496e-07
1.44116e-05
7.03968e-07
1.43806e-05
7.318e-07
1.43475e-05
7.56787e-07
1.43126e-05
7.78781e-07
1.42761e-05
7.97678e-07
1.42384e-05
8.13434e-07
1.41999e-05
8.26052e-07
1.41609e-05
8.35602e-07
1.41217e-05
8.42207e-07
1.40827e-05
8.46041e-07
1.40442e-05
8.4732e-07
1.40066e-05
8.46306e-07
1.397e-05
8.43285e-07
1.39347e-05
8.38559e-07
1.3901e-05
8.32461e-07
1.38689e-05
8.25332e-07
1.38386e-05
8.17487e-07
1.38102e-05
8.09218e-07
1.37839e-05
8.00862e-07
1.37597e-05
7.92746e-07
1.37377e-05
7.85127e-07
1.37179e-05
7.78168e-07
1.37006e-05
7.72046e-07
7.67021e-07
1.36859e-05
1.46123e-05
1.28425e-07
1.46194e-05
1.7802e-07
1.46233e-05
2.26876e-07
1.46242e-05
2.74992e-07
1.46222e-05
3.2239e-07
1.46172e-05
3.69068e-07
1.46092e-05
4.1499e-07
1.45983e-05
4.60084e-07
1.45843e-05
5.04218e-07
1.45672e-05
5.4722e-07
1.45471e-05
5.8886e-07
1.45238e-05
6.28875e-07
1.44974e-05
6.66957e-07
1.44681e-05
7.02801e-07
1.4436e-05
7.36073e-07
1.44013e-05
7.66496e-07
1.43643e-05
7.93795e-07
1.43253e-05
8.17776e-07
1.42847e-05
8.38282e-07
1.42429e-05
8.55239e-07
1.42003e-05
8.68636e-07
1.41574e-05
8.78537e-07
1.41145e-05
8.85071e-07
1.40721e-05
8.88437e-07
1.40306e-05
8.88881e-07
1.39902e-05
8.86695e-07
1.39512e-05
8.82217e-07
1.3914e-05
8.75788e-07
1.38787e-05
8.6777e-07
1.38455e-05
8.5855e-07
1.38145e-05
8.48497e-07
1.37858e-05
8.37927e-07
1.37595e-05
8.27158e-07
1.37357e-05
8.16532e-07
1.37144e-05
8.06387e-07
1.36957e-05
7.96937e-07
1.36794e-05
7.88275e-07
7.80512e-07
1.36659e-05
1.46668e-05
1.19098e-07
1.46729e-05
1.71927e-07
1.46759e-05
2.23883e-07
1.46759e-05
2.75015e-07
1.46729e-05
3.25397e-07
1.46669e-05
3.75082e-07
1.46578e-05
4.24075e-07
1.46455e-05
4.72333e-07
1.463e-05
5.19744e-07
1.46111e-05
5.66124e-07
1.45888e-05
6.11217e-07
1.45629e-05
6.54716e-07
1.45336e-05
6.96248e-07
1.4501e-05
7.35453e-07
1.44651e-05
7.71898e-07
1.44264e-05
8.05241e-07
1.43851e-05
8.35116e-07
1.43416e-05
8.61271e-07
1.42964e-05
8.83489e-07
1.425e-05
9.01662e-07
1.42028e-05
9.15759e-07
1.41555e-05
9.25843e-07
1.41085e-05
9.32064e-07
1.40623e-05
9.34646e-07
1.40173e-05
9.33884e-07
1.39739e-05
9.30117e-07
1.39324e-05
9.23733e-07
1.3893e-05
9.1514e-07
1.38561e-05
9.04747e-07
1.38216e-05
8.92978e-07
1.37899e-05
8.80262e-07
1.37608e-05
8.66965e-07
1.37346e-05
8.53415e-07
1.37111e-05
8.3996e-07
1.36906e-05
8.26955e-07
1.36729e-05
8.14639e-07
1.3658e-05
8.03098e-07
7.92429e-07
1.36461e-05
1.47267e-05
1.10897e-07
1.47317e-05
1.6693e-07
1.47337e-05
2.21935e-07
1.47327e-05
2.76021e-07
1.47287e-05
3.29342e-07
1.47218e-05
3.8204e-07
1.47117e-05
4.34188e-07
1.46982e-05
4.85772e-07
1.46813e-05
5.36698e-07
1.46606e-05
5.86775e-07
1.46361e-05
6.35716e-07
1.46077e-05
6.83151e-07
1.45753e-05
7.28632e-07
1.45391e-05
7.71684e-07
1.44992e-05
8.11774e-07
1.4456e-05
8.48456e-07
1.44098e-05
8.81257e-07
1.43613e-05
9.09838e-07
1.43108e-05
9.33916e-07
1.42592e-05
9.53338e-07
1.42069e-05
9.68055e-07
1.41546e-05
9.78136e-07
1.41029e-05
9.83759e-07
1.40523e-05
9.85191e-07
1.40034e-05
9.82786e-07
1.39566e-05
9.76953e-07
1.39122e-05
9.68149e-07
1.38705e-05
9.56856e-07
1.38317e-05
9.43554e-07
1.37959e-05
9.28726e-07
1.37633e-05
9.1285e-07
1.37339e-05
8.96349e-07
1.37078e-05
8.7959e-07
1.36848e-05
8.62942e-07
1.3665e-05
8.46769e-07
1.36483e-05
8.31287e-07
1.36348e-05
8.16588e-07
8.02843e-07
1.36244e-05
1.47917e-05
1.04049e-07
1.47954e-05
1.63199e-07
1.47962e-05
2.21119e-07
1.47943e-05
2.77995e-07
1.47895e-05
3.34132e-07
1.47817e-05
3.89805e-07
1.47708e-05
4.45139e-07
1.47564e-05
5.00172e-07
1.47382e-05
5.54849e-07
1.4716e-05
6.08982e-07
1.46895e-05
6.62242e-07
1.46584e-05
7.14172e-07
1.46229e-05
7.64213e-07
1.45828e-05
8.11742e-07
1.45385e-05
8.56097e-07
1.44903e-05
8.9666e-07
1.44387e-05
9.32845e-07
1.43843e-05
9.64185e-07
1.43279e-05
9.90325e-07
1.42702e-05
1.01105e-06
1.4212e-05
1.0263e-06
1.41539e-05
1.03616e-06
1.40969e-05
1.04084e-06
1.40414e-05
1.04069e-06
1.3988e-05
1.03612e-06
1.39373e-05
1.02765e-06
1.38897e-05
1.01582e-06
1.38453e-05
1.0012e-06
1.38045e-05
9.84378e-07
1.37673e-05
9.65903e-07
1.37339e-05
9.46317e-07
1.37041e-05
9.26098e-07
1.3678e-05
9.05669e-07
1.36555e-05
8.85439e-07
1.36365e-05
8.6577e-07
1.3621e-05
8.46849e-07
1.36088e-05
8.288e-07
8.11884e-07
1.35997e-05
1.48616e-05
9.88514e-08
1.48638e-05
1.60951e-07
1.48634e-05
2.21525e-07
1.48605e-05
2.80906e-07
1.4855e-05
3.39648e-07
1.48466e-05
3.98138e-07
1.48352e-05
4.56585e-07
1.48202e-05
5.15145e-07
1.48012e-05
5.73825e-07
1.47778e-05
6.32438e-07
1.47494e-05
6.90594e-07
1.47159e-05
7.47721e-07
1.4677e-05
8.03102e-07
1.46328e-05
8.55923e-07
1.45836e-05
9.05327e-07
1.45298e-05
9.50478e-07
1.4472e-05
9.90647e-07
1.4411e-05
1.02519e-06
1.43476e-05
1.05366e-06
1.42829e-05
1.07577e-06
1.42178e-05
1.09145e-06
1.41531e-05
1.10082e-06
1.40898e-05
1.10414e-06
1.40286e-05
1.10186e-06
1.39703e-05
1.0945e-06
1.39152e-05
1.08269e-06
1.38639e-05
1.06711e-06
1.38167e-05
1.04845e-06
1.37737e-05
1.02739e-06
1.3735e-05
1.00459e-06
1.37006e-05
9.80675e-07
1.36705e-05
9.56182e-07
1.36446e-05
9.31595e-07
1.36227e-05
9.07369e-07
1.36046e-05
8.83859e-07
1.35902e-05
8.61241e-07
1.35793e-05
8.39692e-07
8.19496e-07
1.35717e-05
1.49359e-05
9.56783e-08
1.49364e-05
1.60442e-07
1.49347e-05
2.23262e-07
1.49309e-05
2.84719e-07
1.49249e-05
3.45675e-07
1.49164e-05
4.06625e-07
1.4905e-05
4.67985e-07
1.489e-05
5.30088e-07
1.48708e-05
5.93033e-07
1.48466e-05
6.56633e-07
1.48168e-05
7.20413e-07
1.47809e-05
7.83638e-07
1.47386e-05
8.45377e-07
1.469e-05
9.04558e-07
1.46353e-05
9.60045e-07
1.4575e-05
1.01072e-06
1.451e-05
1.05563e-06
1.44413e-05
1.09395e-06
1.43699e-05
1.12508e-06
1.4297e-05
1.14868e-06
1.42238e-05
1.16466e-06
1.41514e-05
1.17318e-06
1.40809e-05
1.17462e-06
1.40132e-05
1.16953e-06
1.39491e-05
1.1586e-06
1.38892e-05
1.14262e-06
1.38339e-05
1.12242e-06
1.37835e-05
1.09884e-06
1.37382e-05
1.07271e-06
1.3698e-05
1.04481e-06
1.36628e-05
1.01586e-06
1.36325e-05
9.86478e-07
1.36069e-05
9.57215e-07
1.35857e-05
9.28558e-07
1.35687e-05
9.00861e-07
1.35556e-05
8.74306e-07
1.35462e-05
8.4911e-07
8.25502e-07
1.35402e-05
1.50144e-05
9.5045e-08
1.50128e-05
1.62022e-07
1.50096e-05
2.26488e-07
1.50049e-05
2.89353e-07
1.49988e-05
3.51854e-07
1.49907e-05
4.14687e-07
1.49801e-05
4.78593e-07
1.4966e-05
5.44157e-07
1.49474e-05
6.11621e-07
1.49233e-05
6.80812e-07
1.48925e-05
7.51125e-07
1.48546e-05
8.21602e-07
1.48089e-05
8.91027e-07
1.47555e-05
9.57973e-07
1.46946e-05
1.02092e-06
1.4627e-05
1.07836e-06
1.45536e-05
1.12901e-06
1.44757e-05
1.17184e-06
1.43948e-05
1.20606e-06
1.43122e-05
1.23126e-06
1.42295e-05
1.24736e-06
1.41481e-05
1.25457e-06
1.40693e-05
1.25344e-06
1.39941e-05
1.24469e-06
1.39235e-05
1.22922e-06
1.38581e-05
1.20802e-06
1.37984e-05
1.18214e-06
1.37446e-05
1.1526e-06
1.36969e-05
1.12041e-06
1.36552e-05
1.0865e-06
1.36194e-05
1.05172e-06
1.35891e-05
1.01675e-06
1.35641e-05
9.82244e-07
1.35439e-05
9.48702e-07
1.35283e-05
9.16484e-07
1.35168e-05
8.85777e-07
1.35091e-05
8.568e-07
8.29673e-07
1.3505e-05
1.50964e-05
9.76699e-08
1.50922e-05
1.66238e-07
1.50872e-05
2.3148e-07
1.50819e-05
2.94707e-07
1.50761e-05
3.57658e-07
1.50694e-05
4.21402e-07
1.50607e-05
4.87206e-07
1.50489e-05
5.56026e-07
1.50322e-05
6.28299e-07
1.50091e-05
7.03869e-07
1.49783e-05
7.81919e-07
1.49387e-05
8.61194e-07
1.48897e-05
9.40086e-07
1.4831e-05
1.01665e-06
1.47631e-05
1.08883e-06
1.46868e-05
1.15464e-06
1.46035e-05
1.21236e-06
1.45146e-05
1.26065e-06
1.44222e-05
1.29849e-06
1.43281e-05
1.32539e-06
1.42341e-05
1.3413e-06
1.41421e-05
1.34658e-06
1.40536e-05
1.34196e-06
1.39699e-05
1.32845e-06
1.38919e-05
1.30719e-06
1.38204e-05
1.27948e-06
1.3756e-05
1.24661e-06
1.36987e-05
1.20987e-06
1.36486e-05
1.17046e-06
1.36056e-05
1.12949e-06
1.35694e-05
1.08794e-06
1.35395e-05
1.04663e-06
1.35155e-05
1.00626e-06
1.34969e-05
9.67362e-07
1.34831e-05
9.30305e-07
1.34736e-05
8.95266e-07
1.34679e-05
8.62418e-07
8.31742e-07
1.34659e-05
1.51837e-05
1.0447e-07
1.51761e-05
1.73796e-07
1.51689e-05
2.38669e-07
1.51628e-05
3.00822e-07
1.51578e-05
3.62679e-07
1.51534e-05
4.25797e-07
1.51483e-05
4.9231e-07
1.51404e-05
5.63875e-07
1.51275e-05
6.41244e-07
1.51072e-05
7.24171e-07
1.50776e-05
8.11468e-07
1.50372e-05
9.0159e-07
1.49849e-05
9.92437e-07
1.49203e-05
1.08123e-06
1.48441e-05
1.16509e-06
1.47573e-05
1.24137e-06
1.46619e-05
1.30781e-06
1.45598e-05
1.36277e-06
1.44534e-05