/*--------------------------------*- C++ -*----------------------------------*\
| =========                 |                                                 |
| \\      /  F ield         | OpenFOAM: The Open Source CFD Toolbox           |
|  \\    /   O peration     | Version:  2206                                  |
|   \\  /    A nd           | Website:  www.openfoam.com                      |
|    \\/     M anipulation  |                                                 |
\*---------------------------------------------------------------------------*/
FoamFile
{
    version     2.0;
    format      ascii;
    arch        "LSB;label=32;scalar=64";
    class       surfaceScalarField;
    location    "19.5999";
    object      ddtCorrDdt0(phi);
}
// * * * * * * * * * * * * * * * * * * * * * * * * * * * * * * * * * * * * * //

dimensions      [0 3 -2 0 0 0 0];

oriented        oriented;

internalField   nonuniform List<scalar> 
5918
(
-0.000143431
0.000183429
-3.99979e-05
-0.000248151
0.000131234
-2.65143e-05
-0.000320678
3.80808e-05
3.44462e-05
-0.000381167
-8.46091e-05
0.000145098
-0.000474927
-0.00026273
0.000356491
-0.000572428
-0.000605959
0.00070346
-0.000450795
-0.00111158
0.000989949
-0.000112881
-0.0012805
0.000942583
0.00017218
-0.00102678
0.000741715
0.000371303
-0.000700009
0.000500886
0.000500065
-0.00041211
0.000283349
0.000584307
-0.000177764
9.35217e-05
0.000630898
1.88486e-05
-6.54393e-05
0.000649635
0.000162935
-0.000181672
0.000652023
0.000260234
-0.000262622
0.000633056
0.000341518
-0.000322551
0.000608376
0.000412723
-0.000388043
0.000668106
0.000401043
-0.000460774
0.000877887
0.000255206
-0.000464987
0.0010774
0.000145845
-0.000345356
0.00100757
0.000310314
-0.00024049
0.000656449
0.000714254
-0.000363129
0.000219154
0.00113151
-0.000694216
-0.000153777
0.00141388
-0.00104095
-0.000376611
0.0014798
-0.00125696
-0.000459375
0.00135929
-0.00127653
-0.000474743
0.00116858
-0.00115322
-0.000443651
0.000959904
-0.000990997
-0.000381111
0.000763249
-0.000825789
-0.00029959
0.000597805
-0.000679326
-0.000210345
0.000475738
-0.000564983
-0.000126146
0.000402704
-0.000486904
-6.23256e-05
0.000368884
-0.000432704
-2.92012e-05
0.000336968
-0.000370092
-3.97556e-05
0.000268306
-0.000257752
-0.000117694
0.000123586
-4.56467e-05
-0.000271565
-0.000143492
0.000297362
-0.000408516
-0.000629176
0.000766127
-0.000548667
-0.0011167
0.00125685
-0.000657514
-0.00157349
0.00168233
-0.000691001
-0.00190107
0.00193456
-0.000633949
-0.00199242
0.00193536
-0.000525196
-0.00187531
0.00176655
-0.000384948
-0.00163722
0.00149698
-0.000235996
-0.00133331
0.00118436
-9.61512e-05
-0.00101435
0.000874507
2.43971e-05
-0.000717209
0.00059666
0.000127431
-0.000462549
0.000359516
0.000218617
-0.000251219
0.000160033
0.000287825
-7.66428e-05
7.43514e-06
0.000329913
4.44735e-05
-8.65618e-05
0.000354971
0.000114453
-0.000139511
0.00037139
0.000149267
-0.000165686
0.000386466
0.000158643
-0.000173719
0.000406021
0.000146775
-0.00016633
0.00043239
0.000116735
-0.000143103
0.000462514
7.6661e-05
-0.000106785
0.000488051
4.36681e-05
-6.92053e-05
0.000498405
4.11496e-05
-5.15033e-05
0.000484893
8.95507e-05
-7.60386e-05
0.00044433
0.000196967
-0.000156405
0.000380025
0.000354167
-0.000289861
0.000299116
0.000537597
-0.000456688
0.00020886
0.000718031
-0.000627776
0.000115859
0.000868354
-0.000775353
2.60877e-05
0.000969744
-0.000879972
-5.37022e-05
0.00101103
-0.000931239
-0.000121496
0.000993979
-0.000926185
-0.000176588
0.000940285
-0.000885193
-0.000217367
0.000858448
-0.000817668
-0.000243513
0.000758596
-0.00073245
-0.000256033
0.000650776
-0.000638256
-0.00025697
0.000543664
-0.000542727
-0.000248966
0.000443677
-0.000451681
-0.00023454
0.000354355
-0.000368781
-0.000216011
0.000276666
-0.000295195
-0.000196083
0.000210252
-0.00023018
-0.000178662
0.000153114
-0.000170535
-0.000169218
9.9437e-05
-0.000108881
-0.000168968
3.11037e-05
-3.13535e-05
-0.000170857
-6.62728e-05
6.81612e-05
-0.000174954
-0.000182468
0.000186566
-0.000181566
-0.00031337
0.000319981
-0.000188817
-0.000456398
0.000463649
-0.000194725
-0.000604214
0.000610123
-0.000197707
-0.000746654
0.000749636
-0.000872112
0.000870739
-0.000107965
0.000291394
-0.000197947
0.000221215
-0.00025267
9.2804e-05
-0.000253601
-8.36778e-05
-0.000206973
-0.000309359
-0.000202366
-0.000610566
-0.000248999
-0.00106495
-0.000105185
-0.00142431
0.000103056
-0.00123502
0.000289635
-0.000886588
0.000423395
-0.00054587
0.000527397
-0.000281766
0.000607423
-6.11778e-05
0.000673917
9.64411e-05
0.00067994
0.000254211
0.000672847
0.000348612
0.000754421
0.000331149
0.000988854
0.00016661
0.00119769
4.63672e-05
0.00111974
0.000223795
0.000756814
0.000673244
0.0003071
0.00116397
-0.000103011
0.00154162
-0.000377809
0.00168867
-0.000491496
0.00159349
-0.000520247
0.00138804
-0.000494253
0.00114259
-0.000430424
0.000896075
-0.000343239
0.000676065
-0.000243567
0.000498132
-0.000138409
0.00037058
-3.62688e-05
0.000300564
4.64419e-05
0.000286173
9.69918e-05
0.000286418
0.000113284
0.000252015
8.18586e-05
0.00015501
-3.93528e-05
-2.22804e-05
-0.000178125
-0.000490404
-0.000335705
-0.00095912
-0.00047939
-0.0014298
-0.00057657
-0.00180389
-0.000587131
-0.00198185
-0.00053669
-0.00192575
-0.000442343
-0.00173157
-0.000324208
-0.00145145
-0.000200157
-0.0011384
-8.46572e-05
-0.000832709
1.48915e-05
-0.000562098
0.000103873
-0.000340201
0.000187286
-0.000160056
0.000248435
-1.66753e-05
0.000288897
7.39913e-05
0.000317622
0.000120541
0.000342998
0.000133267
0.000371018
0.000118755
0.000402914
8.48381e-05
0.000434366
4.52095e-05
0.000457029
2.10048e-05
0.000461967
3.62119e-05
0.000443245
0.000108273
0.000400243
0.000239969
0.000336779
0.000417631
0.000258529
0.000615847
0.000171912
0.000804648
8.32612e-05
0.000957005
-1.76741e-06
0.00105477
-7.57884e-05
0.00108505
-0.000138231
0.00105642
-0.00018698
0.000989034
-0.000220665
0.000892133
-0.000239186
0.000777116
-0.000243721
0.000655311
-0.00023647
0.000536413
-0.000220551
0.000427757
-0.000199171
0.000332975
-0.000174748
0.000252243
-0.000148969
0.000184473
-0.000123991
0.000128136
-0.000105094
8.05402e-05
-0.000100831
2.68404e-05
-9.877e-05
-6.83335e-05
-0.000100646
-0.000180592
-0.000107856
-0.000306159
-0.000117782
-0.000446472
-0.00012846
-0.000593537
-0.000138299
-0.000736815
-0.000864481
-8.48717e-05
0.000376266
-0.000165314
0.000301657
-0.000213614
0.000141105
-0.000238861
-5.8431e-05
-0.000191543
-0.000356677
-0.000103016
-0.000699093
-7.43152e-05
-0.00109365
-4.83446e-05
-0.00145028
6.32919e-05
-0.00134665
0.000204332
-0.00102763
0.000342006
-0.000683545
0.000452001
-0.000391761
0.00053285
-0.000142027
0.000616253
1.30386e-05
0.00066333
0.000207134
0.00078345
0.000228491
0.00104794
6.66581e-05
0.00126963
-5.50812e-05
0.00120167
0.000114333
0.000848519
0.000576942
0.000399785
0.00112198
-4.32155e-05
0.00160697
-0.00037896
0.00187737
-0.0005274
0.00183711
-0.000573136
0.00163922
-0.00055033
0.00136524
-0.00048151
0.00107377
-0.000386385
0.00080095
-0.000278945
0.000568624
-0.000167757
0.000386945
-5.63353e-05
0.000259158
5.46983e-05
0.000189531
0.000149793
0.000191079
0.000216677
0.000219533
0.000245112
0.00022358
0.000232393
0.00016773
0.00017856
3.15528e-05
3.30662e-05
-0.000344911
-0.000132997
-0.000793057
-0.000298853
-0.00126395
-0.000436373
-0.00166637
-0.000509176
-0.00190905
-0.000512742
-0.00192218
-0.000467886
-0.00177643
-0.000386942
-0.00153239
-0.000286588
-0.00123876
-0.00018201
-0.000937287
-8.39e-05
-0.000660208
1.59985e-06
-0.000425701
8.10023e-05
-0.000239458
0.000151828
-8.7501e-05
0.000211092
1.47269e-05
0.000254413
7.72208e-05
0.000291399
9.62809e-05
0.000327861
8.22933e-05
0.000364104
4.85949e-05
0.000395439
1.38751e-05
0.000414648
1.79519e-06
0.000415115
3.57451e-05
0.000393344
0.000130044
0.000349844
0.000283469
0.000287854
0.000479621
0.000212578
0.000691123
0.000130446
0.000886779
4.69145e-05
0.00104054
-3.2368e-05
0.00113405
-9.93227e-05
0.001152
-0.000154266
0.00111136
-0.000194812
0.00102958
-0.000219943
0.000917265
-0.000229946
0.000787119
-0.00022623
0.000651595
-0.000210912
0.000521095
-0.000187151
0.000403995
-0.00015864
0.000304464
-0.000128483
0.000222087
-9.8611e-05
0.000154601
-6.98741e-05
9.93986e-05
-4.49925e-05
5.56587e-05
-3.23966e-05
1.42445e-05
-2.35833e-05
-7.71468e-05
-2.561e-05
-0.000178566
-3.43195e-05
-0.00029745
-4.70649e-05
-0.000433727
-6.20807e-05
-0.000578521
-7.80896e-05
-0.000720806
-0.00084867
-7.18131e-05
0.000448079
-0.00013524
0.000365084
-0.00017736
0.000183224
-0.000197869
-3.79216e-05
-0.000193289
-0.000361257
-0.000126282
-0.0007661
-7.1311e-05
-0.00114862
-8.76123e-05
-0.00143398
-3.33993e-05
-0.00140087
6.9983e-05
-0.00113101
0.00019306
-0.000806622
0.000302399
-0.0005011
0.000414047
-0.000253675
0.000532751
-0.000105665
0.000748882
-8.99675e-06
0.00104953
-7.21593e-05
0.0012672
-0.000151006
0.00120467
7.43967e-06
0.000884481
0.000434527
0.000465317
0.000996105
7.00839e-06
0.00158029
-0.000386539
0.00200052
-0.000586034
0.00207686
-0.000648757
0.00189984
-0.000624003
0.00161447
-0.000543761
0.00128499
-0.000431558
0.000961568
-0.000308133
0.000677524
-0.000189686
0.000450178
-7.83938e-05
0.000275653
2.65306e-05
0.000154234
0.000131553
8.45085e-05
0.000236482
8.61496e-05
0.000323533
0.000132482
0.000369564
0.000177549
0.000369281
0.000168013
0.000342106
5.8728e-05
0.000216543
-0.000219348
5.34253e-05
-0.000629939
-0.0001233
-0.00108722
-0.000286986
-0.00150268
-0.000408643
-0.00178739
-0.000460513
-0.00187031
-0.000462596
-0.00177434
-0.000422
-0.00157299
-0.000351627
-0.00130913
-0.000264511
-0.0010244
-0.000173952
-0.000750767
-8.96815e-05
-0.000509972
-1.51151e-05
-0.000314025
5.71663e-05
-0.000159782
0.000125318
-5.34245e-05
0.000183674
1.8864e-05
0.000231665
4.82902e-05
0.000275634
3.83245e-05
0.000314811
9.4175e-06
0.000345044
-1.63574e-05
0.000361155
-1.43162e-05
0.000358761
3.81389e-05
0.000335453
0.000153352
0.000291878
0.000327044
0.000231578
0.000539921
0.000160353
0.000762348
8.34893e-05
0.000963643
6.11192e-06
0.00111791
-6.55762e-05
0.00120574
-0.000123498
0.00120993
-0.0001686
0.00115647
-0.000198806
0.00105979
-0.000213682
0.00093214
-0.000214053
0.00078749
-0.000201745
0.000639288
-0.000178846
0.000498197
-0.000148081
0.00037323
-0.000112988
0.000269371
-7.73647e-05
0.000186463
-4.51631e-05
0.0001224
-1.61723e-05
7.04078e-05
1.09403e-05
2.85461e-05
3.81583e-05
-1.29734e-05
4.91105e-05
-8.80989e-05
4.63463e-05
-0.000175801
3.65181e-05
-0.000287621
2.13996e-05
-0.000418608
2.42766e-06
-0.000559549
-1.93198e-05
-0.000699058
-0.000825333
-7.04604e-05
-0.000123397
-0.000167621
-0.000167147
-0.000169478
-0.000148882
-0.000124472
-0.000137654
-0.000137736
-5.39217e-05
6.61402e-05
0.000218867
0.000416906
0.000650359
0.000932437
0.00110655
0.00107448
0.000828824
0.000476322
2.07562e-05
-0.000422431
-0.000674978
-0.000748443
-0.000719325
-0.000621356
-0.000486988
-0.000340368
-0.000199075
-7.36451e-05
2.36521e-05
0.000113312
0.00020835
0.000309611
0.000400021
0.00046233
0.000483938
0.000462547
0.000371944
0.000220163
3.97966e-05
-0.000141487
-0.000295989
-0.000390396
-0.000432645
-0.000429794
-0.00039096
-0.000327575
-0.000251756
-0.000173147
-9.93617e-05
-2.83803e-05
3.8335e-05
0.000106337
0.000165232
0.000215983
0.000256705
0.000284961
0.000298452
0.000293976
0.000268768
0.00022483
0.000167243
0.000100945
3.02973e-05
-3.95405e-05
-0.00010069
-0.000147641
-0.000180681
-0.000198633
-0.000201921
-0.000192029
-0.000171183
-0.000141792
-0.000106073
-6.67772e-05
-2.74903e-05
1.1821e-05
4.9042e-05
7.90483e-05
0.000106165
0.000114886
0.000113607
0.000103272
8.60499e-05
6.34108e-05
3.64845e-05
-0.000672132
-0.000795349
8.76307e-05
-1.66628e-06
1.91847e-06
-4.26184e-06
2.59556e-06
-7.36006e-06
3.09821e-06
-1.07388e-05
3.37875e-06
-1.41003e-05
3.36145e-06
-1.709e-05
2.98975e-06
-1.93484e-05
2.25843e-06
-2.05582e-05
1.20972e-06
-2.04743e-05
-8.38341e-08
-1.89574e-05
-1.51688e-06
-1.59685e-05
-2.98897e-06
-1.16091e-05
-4.35937e-06
-6.28273e-06
-5.32638e-06
-6.4264e-07
-5.64009e-06
4.09843e-06
-4.74107e-06
7.00109e-06
-2.90266e-06
7.93966e-06
-9.38569e-07
7.36547e-06
5.74191e-07
5.68708e-06
1.67839e-06
3.26718e-06
2.4199e-06
4.41004e-07
2.82617e-06
-2.38291e-06
2.82391e-06
-4.87279e-06
2.48988e-06
-6.93491e-06
2.06213e-06
-8.48682e-06
1.55191e-06
-9.50999e-06
1.02318e-06
-1.00814e-05
5.71434e-07
-1.0216e-05
1.34572e-07
-9.77664e-06
-4.39362e-07
-8.72363e-06
-1.05301e-06
-7.14054e-06
-1.58309e-06
-4.9695e-06
-2.17104e-06
-2.02617e-06
-2.94333e-06
1.92296e-06
-3.94912e-06
7.13168e-06
-5.20873e-06
1.38326e-05
-6.70091e-06
2.22355e-05
-8.40289e-06
3.20919e-05
-9.85646e-06
4.16816e-05
-9.58962e-06
5.13706e-05
-9.68904e-06
5.81876e-05
-6.81701e-06
6.0052e-05
-1.86434e-06
2.40369e-06
5.76483e-05
-4.37086e-07
2.45407e-06
-1.42819e-06
3.58666e-06
-2.77417e-06
4.44419e-06
-4.41904e-06
5.02362e-06
-6.24923e-06
5.19164e-06
-8.10365e-06
4.84417e-06
-9.80131e-06
3.95608e-06
-1.11829e-05
2.59132e-06
-1.21645e-05
8.97773e-07
-1.27186e-05
-9.62803e-07
-1.28119e-05
-2.89566e-06
-1.23066e-05
-4.86471e-06
-1.12402e-05
-6.39276e-06
-9.88747e-06
-6.9928e-06
-7.88978e-06
-6.73876e-06
-5.0889e-06
-5.70354e-06
-1.94559e-06
-4.08188e-06
8.98193e-07
-2.26959e-06
3.01086e-06
-4.34277e-07
4.15434e-06
1.27642e-06
4.31068e-06
2.66983e-06
3.43628e-06
3.69831e-06
1.63109e-06
4.29507e-06
-7.21141e-07
4.41436e-06
-3.26204e-06
4.0928e-06
-5.6036e-06
3.36474e-06
-7.25522e-06
2.22305e-06
-7.80569e-06
6.8504e-07
-7.15908e-06
-1.08597e-06
-5.25238e-06
-2.95971e-06
-1.94651e-06
-4.88896e-06
2.64821e-06
-6.76576e-06
8.17217e-06
-8.4673e-06
1.41446e-05
-9.92153e-06
1.99888e-05
-1.10529e-05
2.50747e-05
-1.17869e-05
2.87642e-05
-1.20923e-05
3.06065e-05
-1.16988e-05
3.11867e-05
-1.01698e-05
2.92914e-05
-7.79373e-06
2.68414e-05
-4.36698e-06
2.52402e-05
-2.63174e-07
3.55024e-06
2.40936e-05
-3.75983e-07
2.27804e-06
-5.52603e-07
3.76328e-06
-1.06544e-06
4.95703e-06
-1.90148e-06
5.85966e-06
-3.0089e-06
6.29907e-06
-4.28124e-06
6.11651e-06
-5.62768e-06
5.30252e-06
-6.9543e-06
3.91794e-06
-8.22047e-06
2.16394e-06
-9.40935e-06
2.26077e-07
-1.04585e-05
-1.84653e-06
-1.1296e-05
-4.02724e-06
-1.18412e-05
-5.84755e-06
-1.19851e-05
-6.84885e-06
-1.16012e-05
-7.12269e-06
-1.06223e-05
-6.68237e-06
-9.09771e-06
-5.60652e-06
-7.24022e-06
-4.12707e-06
-5.23306e-06
-2.44144e-06
-3.25478e-06
-7.01861e-07
-1.49915e-06
9.14201e-07
-5.50797e-08
2.25424e-06
1.0294e-06
3.21059e-06
1.74166e-06
3.7021e-06
2.15696e-06
3.67751e-06
2.38382e-06
3.13788e-06
2.53112e-06
2.07575e-06
2.69841e-06
5.17751e-07
3.0155e-06
-1.40306e-06
3.6052e-06
-3.54941e-06
4.54106e-06
-5.82481e-06
5.89388e-06
-8.11858e-06
7.71025e-06
-1.02837e-05
9.953e-06
-1.21643e-05
1.24858e-05
-1.35857e-05
1.50531e-05
-1.43542e-05
1.72291e-05
-1.42683e-05
1.8597e-05
-1.30668e-05
1.89454e-05
-1.05182e-05
1.79009e-05
-6.7492e-06
1.55889e-05
-2.05498e-06
1.22924e-05
3.03333e-06
7.72734e-06
8.11526e-06
3.98505e-07
1.95225e-06
3.46281e-07
3.8155e-06
-1.18086e-07
5.4214e-06
-9.80777e-07
6.72235e-06
-2.19192e-06
7.51021e-06
-3.54557e-06
7.47016e-06
-4.97436e-06
6.7313e-06
-6.37594e-06
5.31953e-06
-7.75541e-06
3.5434e-06
-9.06812e-06
1.53879e-06
-1.01526e-05
-7.62052e-07
-1.1089e-05
-3.09079e-06
-1.18405e-05
-5.09614e-06
-1.2185e-05
-6.50431e-06
-1.20518e-05
-7.2559e-06
-1.14264e-05
-7.30773e-06
-1.03369e-05
-6.69611e-06
-8.8974e-06
-5.56652e-06
-7.23893e-06
-4.09991e-06
-5.47121e-06
-2.46958e-06
-3.70791e-06
-8.49102e-07
-2.04602e-06
5.92349e-07
-5.57508e-07
1.72208e-06
7.21575e-07
2.42302e-06
1.784e-06
2.61508e-06
2.66261e-06
2.25927e-06
3.39655e-06
1.34182e-06
3.99009e-06
-7.57943e-08
4.45955e-06
-1.87252e-06
4.86383e-06
-3.95369e-06
5.28553e-06
-6.24652e-06
5.77437e-06
-8.60741e-06
6.35909e-06
-1.08684e-05
7.06202e-06
-1.28672e-05
7.88309e-06
-1.44068e-05
8.81357e-06
-1.52847e-05
9.84941e-06
-1.53041e-05
1.10619e-05
-1.42793e-05
1.26272e-05
-1.20835e-05
1.46558e-05
-8.77781e-06
1.72162e-05
-4.61538e-06
2.02596e-05
-1.00982e-08
4.47942e-06
2.35075e-05
2.22879e-06
1.40736e-06
2.15278e-06
3.89151e-06
1.45552e-06
6.11866e-06
4.06126e-07
7.77174e-06
-8.76612e-07
8.79294e-06
-2.41443e-06
9.00798e-06
-4.37495e-06
8.69183e-06
-6.90381e-06
7.84838e-06
-9.39574e-06
6.03534e-06
-1.11459e-05
3.28897e-06
-1.23054e-05
3.9742e-07
-1.30418e-05
-2.35435e-06
-1.33096e-05
-4.82833e-06
-1.31004e-05
-6.7136e-06
-1.24071e-05
-7.94912e-06
-1.1324e-05
-8.39088e-06
-9.95082e-06
-8.06927e-06
-8.3715e-06
-7.14584e-06
-6.70008e-06
-5.77133e-06
-5.03476e-06
-4.1349e-06
-3.45701e-06
-2.42685e-06
-2.02869e-06
-8.35967e-07
-7.91381e-07
4.84763e-07
2.46512e-07
1.38512e-06
1.08017e-06
1.78142e-06
1.72907e-06
1.61037e-06
2.27069e-06
8.00194e-07
2.7131e-06
-5.18204e-07
3.00521e-06
-2.16463e-06
3.19144e-06
-4.13991e-06
3.34297e-06
-6.39805e-06
3.52207e-06
-8.78651e-06
3.75322e-06
-1.10995e-05
4.08582e-06
-1.31998e-05
4.61536e-06
-1.49363e-05
5.4256e-06
-1.60949e-05
6.63864e-06
-1.65172e-05
8.43869e-06
-1.60793e-05
1.10604e-05
-1.47052e-05
1.47097e-05
-1.24272e-05
1.95108e-05
-9.4164e-06
2.54593e-05
-5.95865e-06
-2.4143e-06
3.2353e-05
4.35412e-06
1.02787e-06
3.96022e-06
4.28541e-06
2.85196e-06
7.22693e-06
1.08332e-06
9.54038e-06
-1.12102e-06
1.09973e-05
-3.56138e-06
1.14483e-05
-5.96313e-06
1.10936e-05
-8.22218e-06
1.01074e-05
-1.03105e-05
8.12366e-06
-1.20881e-05
5.06656e-06
-1.33705e-05
1.6798e-06
-1.4038e-05
-1.68677e-06
-1.41223e-05
-4.74403e-06
-1.36409e-05
-7.19509e-06
-1.26118e-05
-8.97816e-06
-1.12182e-05
-9.78446e-06
-9.57703e-06
-9.71048e-06
-7.7964e-06
-8.92646e-06
-6.0209e-06
-7.54683e-06
-4.36131e-06
-5.7945e-06
-2.89019e-06
-3.89797e-06
-1.6538e-06
-2.07235e-06
-6.77397e-07
-4.91645e-07
5.08043e-08
6.56923e-07
5.74608e-07
1.25762e-06
9.20911e-07
1.26406e-06
9.78621e-07
7.42485e-07
9.38259e-07
-4.77842e-07
9.69303e-07
-2.19568e-06
1.03204e-06
-4.20265e-06
1.12832e-06
-6.49434e-06
1.25806e-06
-8.91626e-06
1.54221e-06
-1.13837e-05
2.04595e-06
-1.37036e-05
2.78792e-06
-1.56783e-05
3.90035e-06
-1.72073e-05
5.54642e-06
-1.81632e-05
7.91712e-06
-1.845e-05
1.12302e-05
-1.80182e-05
1.56926e-05
-1.68895e-05
2.1449e-05
-1.51728e-05
2.85378e-05
-1.30475e-05
-1.07257e-05
3.68492e-05
7.4637e-06
6.78417e-07
6.70375e-06
5.04536e-06
4.95015e-06
8.98053e-06
2.37414e-06
1.21164e-05
-7.64448e-07
1.41359e-05
-4.14488e-06
1.48288e-05
-7.42838e-06
1.43771e-05
-1.04531e-05
1.31322e-05
-1.30539e-05
1.07244e-05
-1.49957e-05
7.00837e-06
-1.61695e-05
2.85364e-06
-1.64941e-05
-1.36217e-06
-1.60446e-05
-5.19358e-06
-1.48727e-05
-8.36696e-06
-1.31835e-05
-1.06674e-05
-1.1117e-05
-1.1851e-05
-8.91734e-06
-1.19101e-05
-6.79298e-06
-1.10508e-05
-4.85746e-06
-9.48235e-06
-3.22372e-06
-7.42824e-06
-1.94414e-06
-5.17754e-06
-9.88214e-07
-3.02828e-06
-3.92864e-07
-1.087e-06
-1.48081e-07
4.1214e-07
-1.39977e-07
1.24952e-06
-3.79622e-07
1.50371e-06
-7.80869e-07
1.14373e-06
-1.15555e-06
-1.03161e-07
-1.4248e-06
-1.92643e-06
-1.64814e-06
-3.97931e-06
-1.78557e-06
-6.35691e-06
-1.56772e-06
-9.13411e-06
-1.05392e-06
-1.18975e-05
-3.50144e-07
-1.44073e-05
7.44422e-07
-1.67728e-05
2.35408e-06
-1.8817e-05
4.58488e-06
-2.0394e-05
7.57579e-06
-2.14409e-05
1.14955e-05
-2.19379e-05
1.65149e-05
-2.1909e-05
2.27693e-05
-2.14273e-05
3.0324e-05
-2.06021e-05
-1.95468e-05
3.91451e-05
1.16329e-05
3.44319e-07
1.04444e-05
6.23385e-06
7.88487e-06
1.15401e-05
4.20982e-06
1.57914e-05
-2.15605e-07
1.85613e-05
-4.89639e-06
1.95096e-05
-9.29747e-06
1.87782e-05
-1.32056e-05
1.70403e-05
-1.65365e-05
1.40553e-05
-1.89217e-05
9.39359e-06
-2.01771e-05
4.10897e-06
-2.02168e-05
-1.32244e-06
-1.9129e-05
-6.28138e-06
-1.70731e-05
-1.04229e-05
-1.43078e-05
-1.34326e-05
-1.11617e-05
-1.49972e-05
-8.04474e-06
-1.5027e-05
-5.20125e-06
-1.38943e-05
-2.80792e-06
-1.18757e-05
-9.65505e-07
-9.27066e-06
2.44705e-07
-6.38775e-06
8.56549e-07
-3.64013e-06
9.76421e-07
-1.20687e-06
5.54893e-07
8.33668e-07
-1.25623e-07
1.93003e-06
-8.41289e-07
2.21938e-06
-1.90663e-06
2.20908e-06
-3.03752e-06
1.02773e-06
-3.60467e-06
-1.35928e-06
-4.07372e-06
-3.51026e-06
-4.28068e-06
-6.14995e-06
-4.29381e-06
-9.12098e-06
-3.91401e-06
-1.22773e-05
-2.90963e-06
-1.54117e-05
-1.40816e-06
-1.82743e-05
6.31784e-07
-2.08569e-05
3.32902e-06
-2.30913e-05
6.8005e-06
-2.49124e-05
1.11744e-05
-2.63118e-05
1.65835e-05
-2.73181e-05
2.31434e-05
-2.79871e-05
3.09353e-05
-2.8394e-05
-2.85944e-05
3.99829e-05
1.73048e-05
-7.68601e-09
1.55408e-05
7.99784e-06
1.19131e-05
1.51678e-05
6.82549e-06
2.08791e-05
7.32274e-07
2.46545e-05
-5.75482e-06
2.59966e-05
-1.17754e-05
2.47988e-05
-1.68466e-05
2.21115e-05
-2.11484e-05
1.83571e-05
-2.41171e-05
1.23623e-05
-2.5419e-05
5.4109e-06
-2.50421e-05
-1.6993e-06
-2.31451e-05
-8.17837e-06
-1.99433e-05
-1.36247e-05
-1.58059e-05
-1.757e-05
-1.13044e-05
-1.94986e-05
-6.94957e-06
-1.93819e-05
-3.15089e-06
-1.7693e-05
-1.5481e-07
-1.48718e-05
1.93843e-06
-1.13639e-05
3.07249e-06
-7.52182e-06
3.30655e-06
-3.87419e-06
2.94059e-06
-8.409e-07
1.9343e-06
1.83996e-06
3.22482e-07
3.54185e-06
-1.17623e-06
3.71809e-06
-2.65585e-06
3.68869e-06
-4.66203e-06
3.03391e-06
-6.12204e-06
1.00724e-07
-6.91701e-06
-2.71529e-06
-7.32233e-06
-5.74463e-06
-7.26469e-06
-9.17862e-06
-6.74536e-06
-1.27966e-05
-5.68932e-06
-1.64678e-05
-3.98134e-06
-1.99823e-05
-1.61573e-06
-2.32226e-05
1.44179e-06
-2.61488e-05
5.2703e-06
-2.87409e-05
9.96971e-06
-3.10112e-05
1.56454e-05
-3.29939e-05
2.24006e-05
-3.47424e-05
3.03416e-05
-3.6335e-05
-3.78049e-05
3.95522e-05
2.49659e-05
-3.47966e-07
2.2458e-05
1.05057e-05
1.75016e-05
2.01242e-05
1.06363e-05
2.77444e-05
2.30322e-06
3.29876e-05
-6.84209e-06
3.5142e-05
-1.53872e-05
3.33439e-05
-2.17932e-05
2.85175e-05
-2.6985e-05
2.35489e-05
-3.07885e-05
1.61657e-05
-3.22036e-05
6.82601e-06
-3.13399e-05
-2.56301e-06
-2.8424e-05
-1.10943e-05
-2.36811e-05
-1.83676e-05
-1.76753e-05
-2.35758e-05
-1.13831e-05
-2.57908e-05
-5.50933e-06
-2.52557e-05
-4.93198e-07
-2.27091e-05
3.26633e-06
-1.86313e-05
5.63516e-06
-1.37327e-05
6.71796e-06
-8.60462e-06
6.53248e-06
-3.68871e-06
5.37906e-06
3.12518e-07
3.61192e-06
3.6071e-06
1.17135e-06
5.98242e-06
-1.49054e-06
6.37998e-06
-3.94563e-06
6.14378e-06
-6.40371e-06
5.49199e-06
-8.3772e-06
2.07421e-06
-9.82536e-06
-1.26712e-06
-1.06923e-05
-4.87764e-06
-1.08195e-05
-9.0515e-06
-1.02856e-05
-1.33305e-05
-9.0666e-06
-1.76868e-05
-7.1322e-06
-2.19167e-05
-4.48272e-06
-2.5872e-05
-1.11632e-06
-2.95152e-05
3.00345e-06
-3.28607e-05
7.94976e-06
-3.59575e-05
1.3809e-05
-3.88531e-05
2.06833e-05
-4.16166e-05
2.87311e-05
-4.43828e-05
-4.71945e-05
3.81206e-05
3.58487e-05
-5.88982e-07
3.20638e-05
1.42907e-05
2.50233e-05
2.71647e-05
1.58036e-05
3.6964e-05
5.05862e-06
4.37326e-05
-6.80389e-06
4.70045e-05
-1.91063e-05
4.56463e-05
-2.9087e-05
3.84982e-05
-3.59281e-05
3.039e-05
-4.0045e-05
2.02827e-05
-4.15386e-05
8.31956e-06
-4.00352e-05
-4.06634e-06
-3.56887e-05
-1.54408e-05
-2.86757e-05
-2.53807e-05
-1.98809e-05
-3.23706e-05
-1.0897e-05
-3.47747e-05
-3.03067e-06
-3.3122e-05
3.31201e-06
-2.90518e-05
7.80642e-06
-2.31257e-05
1.03898e-05
-1.63161e-05
1.12292e-05
-9.44399e-06
1.05005e-05
-2.95997e-06
8.44053e-06
2.37246e-06
5.48688e-06
6.56075e-06
2.05518e-06
9.41411e-06
-1.69775e-06
1.01329e-05
-5.56975e-06
1.00158e-05
-8.69656e-06
8.6188e-06
-1.1233e-05
4.61066e-06
-1.33498e-05
8.49706e-07
-1.45879e-05
-3.63961e-06
-1.50131e-05
-8.62628e-06
-1.4517e-05
-1.38266e-05
-1.3138e-05
-1.90657e-05
-1.09448e-05
-2.41099e-05
-8.00012e-06
-2.88167e-05
-4.34618e-06
-3.31691e-05
2.12696e-08
-3.72281e-05
5.16416e-06
-4.11004e-05
1.11267e-05
-4.48156e-05
1.79975e-05
-4.84874e-05
2.60654e-05
-5.24508e-05
-5.67571e-05
3.56281e-05
4.94971e-05
-8.05473e-07
4.41122e-05
1.96756e-05
3.43183e-05
3.69586e-05
2.16494e-05
4.96329e-05
6.90861e-06
5.84734e-05
-8.31672e-06
6.22298e-05
-2.36625e-05
6.09921e-05
-3.61955e-05
5.10312e-05
-4.63364e-05
4.05308e-05
-5.25446e-05
2.64909e-05
-5.41028e-05
9.87776e-06
-5.18359e-05
-6.33327e-06
-4.58385e-05
-2.14382e-05
-3.53879e-05
-3.58313e-05
-2.3114e-05
-4.46445e-05
-1.05262e-05
-4.73625e-05
5.77942e-07
-4.42262e-05
9.1004e-06
-3.75743e-05
1.46038e-05
-2.86291e-05
1.73562e-05
-1.90686e-05
1.77632e-05
-9.85098e-06
1.60925e-05
-1.28924e-06
1.27368e-05
5.72815e-06
8.26158e-06
1.1036e-05
3.27332e-06
1.44024e-05
-2.03022e-06
1.54365e-05
-7.19094e-06
1.51765e-05
-1.14054e-05
1.28332e-05
-1.51093e-05
8.31463e-06
-1.78746e-05
3.61501e-06
-1.95404e-05
-1.97381e-06
-2.01579e-05
-8.00888e-06
-1.96644e-05
-1.43201e-05
-1.81114e-05
-2.06186e-05
-1.5636e-05
-2.65853e-05
-1.23675e-05
-3.20852e-05
-8.40866e-06
-3.7128e-05
-3.80538e-06
-4.18314e-05
1.54967e-06
-4.64555e-05
7.634e-06
-5.08999e-05
1.43933e-05
-5.52467e-05
2.22552e-05
-6.03127e-05
-6.62611e-05
3.17591e-05
6.43542e-05
-5.96334e-07
5.68258e-05
2.7204e-05
4.37364e-05
5.00479e-05
2.73823e-05
6.5987e-05
9.65501e-06
7.62008e-05
-1.0399e-05
8.22838e-05
-2.99953e-05
8.05884e-05
-4.54392e-05
6.64751e-05
-5.7581e-05
5.26727e-05
-6.63166e-05
3.52265e-05
-6.9941e-05
1.35022e-05
-6.60126e-05
-1.02617e-05
-5.56897e-05
-3.17611e-05
-4.25442e-05
-4.89768e-05
-2.58589e-05
-6.13297e-05
-8.98541e-06
-6.4236e-05
4.88163e-06
-5.80932e-05
1.56113e-05
-4.83039e-05
2.21902e-05
-3.52081e-05
2.52117e-05
-2.20901e-05
2.5332e-05
-9.9713e-06
2.27412e-05
1.30162e-06
1.79424e-05
1.0527e-05
1.18049e-05
1.71734e-05
5.0336e-06
2.11737e-05
-2.0794e-06
2.25495e-05
-8.74008e-06
2.18372e-05
-1.43818e-05
1.84749e-05
-1.93652e-05
1.32981e-05
-2.28276e-05
7.07738e-06
-2.50445e-05
2.43071e-07
-2.59218e-05
-7.13155e-06
-2.54129e-05
-1.4829e-05
-2.36325e-05
-2.2399e-05
-2.08e-05
-2.94178e-05
-1.71714e-05
-3.57139e-05
-1.29532e-05
-4.13462e-05
-8.21661e-06
-4.6568e-05
-2.851e-06
-5.18211e-05
2.7287e-06
-5.64797e-05
8.71437e-06
-6.12324e-05
1.60911e-05
-6.76894e-05
-7.54158e-05
2.52459e-05
7.57611e-05
9.05057e-07
6.58727e-05
3.70924e-05
5.21128e-05
6.38078e-05
3.28149e-05
8.52849e-05
9.6583e-06
9.93574e-05
-1.48778e-05
0.00010682
-3.73345e-05
0.000103045
-6.15541e-05
9.06947e-05
-8.02006e-05
7.13192e-05
-8.82775e-05
4.33034e-05
-8.62599e-05
1.14845e-05
-7.71809e-05
-1.93407e-05
-6.17355e-05
-4.72064e-05
-4.09769e-05
-6.97354e-05
-2.39977e-05
-7.83089e-05
-6.67586e-06
-8.15579e-05
1.21279e-05
-7.68969e-05
2.54742e-05
-6.16502e-05
3.11103e-05
-4.08443e-05
3.38089e-05
-2.47887e-05
3.27746e-05
-8.93699e-06
2.84694e-05
5.60678e-06
2.18173e-05
1.71791e-05
1.37692e-05
2.52216e-05
5.16166e-06
2.97813e-05
-3.85184e-06
3.1563e-05
-1.23619e-05
3.03473e-05
-1.90397e-05
2.51526e-05
-2.46188e-05
1.88772e-05
-2.92354e-05
1.16941e-05
-3.21636e-05
3.17122e-06
-3.32285e-05
-6.06662e-06
-3.24657e-05
-1.55919e-05
-3.01659e-05
-2.46987e-05
-2.69138e-05
-3.26699e-05
-2.30606e-05
-3.9567e-05
-1.87675e-05
-4.56393e-05
-1.4409e-05
-5.09265e-05
-1.04218e-05
-5.58083e-05
-5.21032e-06
-6.16911e-05
1.91484e-06
-6.83575e-05
9.43491e-06
-7.52095e-05
-8.40619e-05
1.8081e-05
8.09406e-05
1.28823e-07
6.62889e-05
5.17441e-05
5.44114e-05
7.56853e-05
3.59891e-05
0.000103707
1.22188e-05
0.000123128
-1.35285e-05
0.000132567
-3.99499e-05
0.000129467
-6.56243e-05
0.000116369
-8.53339e-05
9.10289e-05
-9.82244e-05
5.61939e-05
-0.000101662
1.49225e-05
-9.41383e-05
-2.68648e-05
-7.58909e-05
-6.54538e-05
-4.63195e-05
-9.93069e-05
-1.65069e-05
-0.000108121
7.51881e-06
-0.000105584
2.72649e-05
-9.6643e-05
4.10324e-05
-7.54177e-05
4.1498e-05
-4.13098e-05
4.5006e-05
-2.82967e-05
4.27501e-05
-6.68113e-06
3.5697e-05
1.26599e-05
2.64551e-05
2.64209e-05
1.59271e-05
3.57496e-05
4.73825e-06
4.09701e-05
-6.43556e-06
4.27368e-05
-1.64023e-05
4.0314e-05
-2.55224e-05
3.42727e-05
-3.32151e-05
2.65699e-05
-3.84021e-05
1.68811e-05
-4.08362e-05
5.60532e-06
-4.05726e-05
-6.33025e-06
-3.86388e-05
-1.75256e-05
-3.57539e-05
-2.75836e-05
-3.16613e-05
-3.67626e-05
-2.66738e-05
-4.45546e-05
-2.14309e-05
-5.08821e-05
-1.6143e-05
-5.62145e-05
-1.11501e-05
-6.08011e-05
-7.15179e-06
-6.56895e-05
-3.53736e-06
-7.1972e-05
6.67196e-07
-7.9414e-05
-8.92431e-05
5.84832e-06
3.37616e-05
-7.8783e-06
3.48923e-05
5.06133e-05
3.08479e-05
7.97298e-05
2.24643e-05
0.000112091
9.10312e-06
0.000136489
-9.05054e-06
0.000150721
-3.35828e-05
0.000153999
-5.57576e-05
0.000138544
-7.11782e-05
0.00010645
-8.07933e-05
6.5809e-05
-8.1894e-05
1.60232e-05
-7.4906e-05
-3.38529e-05
-6.13952e-05
-7.89645e-05
-3.85801e-05
-0.000122122
-6.42165e-06
-0.00014028
2.26719e-05
-0.000134677
4.33496e-05
-0.000117321
5.28198e-05
-8.4888e-05
5.35526e-05
-4.20426e-05
5.16471e-05
-2.63912e-05
4.82544e-05
-3.28841e-06
3.98619e-05
2.10524e-05
2.97305e-05
3.65523e-05
1.81981e-05
4.7282e-05
5.64604e-06
5.35222e-05
-6.49624e-06
5.4879e-05
-1.75398e-05
5.13576e-05
-2.76019e-05
4.43349e-05
-3.58158e-05
3.47838e-05
-4.1846e-05
2.29113e-05
-4.57742e-05
9.53351e-06
-4.75485e-05
-4.55595e-06
-4.66354e-05
-1.84388e-05
-4.32621e-05
-3.09569e-05
-3.86095e-05
-4.14152e-05
-3.36162e-05
-4.95479e-05
-2.88302e-05
-5.56681e-05
-2.4719e-05
-6.03257e-05
-2.13624e-05
-6.41577e-05
-1.88343e-05
-6.82176e-05
-1.68672e-05
-7.39391e-05
-1.44696e-05
-8.18116e-05
-9.22354e-05
-1.14773e-05
-6.98522e-05
-3.6349e-05
-4.40997e-05
2.48609e-05
-2.62123e-05
6.18424e-05
-6.17049e-06
9.20489e-05
1.32013e-05
0.000117117
2.86194e-05
0.000135303
3.67966e-05
0.000145822
3.81525e-05
0.000137188
3.2785e-05
0.000111817
2.61706e-05
7.24233e-05
2.49875e-05
1.72064e-05
2.30409e-05
-3.19063e-05
1.97383e-05
-7.5662e-05
1.67269e-05
-0.000119111
2.18032e-05
-0.000145356
3.23557e-05
-0.00014523
3.98944e-05
-0.000124859
3.77238e-05
-8.27174e-05
3.66017e-05
-4.09204e-05
2.87062e-05
-1.84958e-05
2.17497e-05
3.66816e-06
1.47084e-05
2.80936e-05
7.15846e-06
4.41023e-05
-9.67052e-07
5.54075e-05
-9.28923e-06
6.18444e-05
-1.71374e-05
6.27272e-05
-2.47319e-05
5.89521e-05
-3.18225e-05
5.14255e-05
-3.77555e-05
4.07168e-05
-4.22333e-05
2.73891e-05
-4.51366e-05
1.24368e-05
-4.66936e-05
-2.99893e-06
-4.7095e-05
-1.80374e-05
-4.64107e-05
-3.16412e-05
-4.48209e-05
-4.3005e-05
-4.28945e-05
-5.14742e-05
-4.14449e-05
-5.71177e-05
-4.10291e-05
-6.07415e-05
-4.1828e-05
-6.33588e-05
-4.39324e-05
-6.61132e-05
-4.74584e-05
-7.04132e-05
-5.11461e-05
-7.81238e-05
-9.01498e-05
-5.32317e-05
-7.22533e-05
-6.24462e-05
-3.61722e-05
-1.12202e-05
-4.00715e-06
2.96773e-05
2.30276e-05
6.50141e-05
4.01411e-05
0.000100004
4.57878e-05
0.000129656
4.32996e-05
0.00014831
4.3091e-05
0.000137397