/*--------------------------------*- C++ -*----------------------------------*\
| =========                 |                                                 |
| \\      /  F ield         | OpenFOAM: The Open Source CFD Toolbox           |
|  \\    /   O peration     | Version:  2206                                  |
|   \\  /    A nd           | Website:  www.openfoam.com                      |
|    \\/     M anipulation  |                                                 |
\*---------------------------------------------------------------------------*/
FoamFile
{
    version     2.0;
    format      ascii;
    arch        "LSB;label=32;scalar=64";
    class       volVectorField;
    location    "20.0001";
    object      U_0;
}
// * * * * * * * * * * * * * * * * * * * * * * * * * * * * * * * * * * * * * //

dimensions      [0 1 -1 0 0 0 0];

internalField   nonuniform List<vector> 
1813
(
(0.198355 -0.216771 0)
(0.423749 -0.223459 0)
(0.708913 -0.136388 0)
(1.00526 0.0293062 0)
(1.26641 0.249279 0)
(1.465 0.482701 0)
(1.57803 0.681066 0)
(1.61799 0.818514 0)
(1.6115 0.892634 0)
(1.56853 0.911479 0)
(1.49685 0.876001 0)
(1.40504 0.793688 0)
(1.2897 0.687802 0)
(1.14032 0.578026 0)
(0.962534 0.472419 0)
(0.791589 0.365059 0)
(0.677115 0.240695 0)
(0.645071 0.0933983 0)
(0.696791 -0.0660849 0)
(0.810761 -0.213238 0)
(0.973714 -0.331085 0)
(1.17601 -0.410075 0)
(1.41162 -0.441731 0)
(1.67904 -0.416613 0)
(1.97813 -0.327162 0)
(2.30202 -0.177221 0)
(2.61459 0.00382588 0)
(2.87827 0.178597 0)
(3.07381 0.32168 0)
(3.19854 0.421899 0)
(3.26095 0.487568 0)
(3.27243 0.535423 0)
(3.24328 0.569517 0)
(3.17866 0.582616 0)
(3.08553 0.57869 0)
(2.97361 0.561117 0)
(2.85027 0.530872 0)
(2.72209 0.490362 0)
(2.5973 0.443644 0)
(2.48234 0.393567 0)
(2.38227 0.342711 0)
(2.29879 0.294752 0)
(2.22957 0.255226 0)
(2.16629 0.230077 0)
(2.09948 0.22371 0)
(2.01882 0.234584 0)
(1.91769 0.256658 0)
(1.80113 0.280512 0)
(1.68279 0.291561 0)
(1.5786 0.277358 0)
(1.49795 0.231538 0)
(1.44726 0.15885 0)
(1.43159 0.0703835 0)
(1.44003 -0.0227877 0)
(1.47127 -0.111637 0)
(1.51759 -0.189771 0)
(1.57453 -0.252939 0)
(1.63963 -0.299534 0)
(1.71141 -0.329292 0)
(1.78855 -0.342966 0)
(1.87055 -0.342228 0)
(1.95743 -0.328803 0)
(2.04992 -0.303848 0)
(2.14945 -0.266756 0)
(2.25744 -0.21458 0)
(2.37298 -0.146079 0)
(2.4867 -0.0672522 0)
(2.58678 0.0133691 0)
(2.66654 0.0878548 0)
(2.72399 0.149912 0)
(2.75676 0.200114 0)
(2.76476 0.238169 0)
(2.75469 0.262716 0)
(2.71755 0.267515 0)
(2.65113 0.251056 0)
(2.55895 0.219885 0)
(2.45548 0.181403 0)
(2.3497 0.14317 0)
(2.24852 0.111138 0)
(2.15551 0.0892506 0)
(2.07218 0.0795845 0)
(1.99829 0.0818289 0)
(1.93263 0.0934281 0)
(1.87382 0.109829 0)
(1.82085 0.125381 0)
(0.0360475 -0.465407 0)
(0.13968 -0.43773 0)
(0.25826 -0.361858 0)
(0.385006 -0.210372 0)
(0.533912 0.0270444 0)
(0.69447 0.307124 0)
(0.830086 0.566118 0)
(0.90852 0.760469 0)
(0.931208 0.882807 0)
(0.89706 0.949552 0)
(0.799848 0.960915 0)
(0.639905 0.93068 0)
(0.436633 0.869529 0)
(0.245961 0.77172 0)
(0.117145 0.628121 0)
(0.0783477 0.436745 0)
(0.121144 0.214714 0)
(0.219665 -0.0174306 0)
(0.358559 -0.225778 0)
(0.514157 -0.398789 0)
(0.683634 -0.535423 0)
(0.866412 -0.633816 0)
(1.06452 -0.687631 0)
(1.2832 -0.689092 0)
(1.52809 -0.629877 0)
(1.80132 -0.504268 0)
(2.0977 -0.317116 0)
(2.39027 -0.0978354 0)
(2.64395 0.111729 0)
(2.8384 0.285386 0)
(2.96786 0.417628 0)
(3.03978 0.517971 0)
(3.06488 0.590725 0)
(3.05145 0.642175 0)
(3.00334 0.666352 0)
(2.92995 0.665907 0)
(2.83854 0.645499 0)
(2.73588 0.609637 0)
(2.62905 0.559911 0)
(2.52571 0.500084 0)
(2.43063 0.436435 0)
(2.34352 0.377579 0)
(2.25849 0.333631 0)
(2.16797 0.314191 0)
(2.06676 0.322321 0)
(1.95344 0.350705 0)
(1.83599 0.382371 0)
(1.72506 0.399918 0)
(1.6285 0.391521 0)
(1.55247 0.349912 0)
(1.50712 0.276428 0)
(1.48968 0.176463 0)
(1.49814 0.0620633 0)
(1.52679 -0.0521454 0)
(1.57024 -0.156196 0)
(1.62398 -0.244853 0)
(1.68409 -0.315551 0)
(1.74768 -0.367839 0)
(1.81336 -0.40236 0)
(1.88079 -0.420255 0)
(1.94962 -0.423275 0)
(2.0202 -0.413687 0)
(2.09358 -0.392984 0)
(2.1709 -0.360984 0)
(2.25379 -0.315652 0)
(2.34379 -0.254442 0)
(2.44057 -0.176399 0)
(2.53815 -0.0861791 0)
(2.62661 0.00704728 0)
(2.69718 0.0935078 0)
(2.74592 0.168781 0)
(2.77256 0.228067 0)
(2.77873 0.272527 0)
(2.7705 0.301364 0)
(2.73109 0.313447 0)
(2.67033 0.305733 0)
(2.58994 0.28221 0)
(2.49588 0.249587 0)
(2.39615 0.215758 0)
(2.2978 0.187767 0)
(2.2044 0.16949 0)
(2.11874 0.162019 0)
(2.04251 0.163835 0)
(1.97639 0.170994 0)
(1.92001 0.178217 0)
(0.00113252 -0.45746 0)
(0.00446242 -0.469753 0)
(-0.00011864 -0.399611 0)
(-0.00116418 -0.259715 0)
(0.0132294 -0.044745 0)
(0.0475782 0.22642 0)
(0.0842176 0.503591 0)
(0.103284 0.744975 0)
(0.0801052 0.928599 0)
(0.0096601 1.05135 0)
(-0.0948614 1.11146 0)
(-0.20191 1.09211 0)
(-0.272959 0.999642 0)
(-0.29086 0.835319 0)
(-0.24132 0.610045 0)
(-0.13636 0.347343 0)
(0.0126511 0.0735107 0)
(0.181156 -0.175602 0)
(0.349418 -0.389587 0)
(0.509887 -0.566286 0)
(0.659606 -0.705738 0)
(0.800279 -0.808916 0)
(0.937503 -0.874324 0)
(1.08363 -0.895818 0)
(1.2504 -0.861453 0)
(1.44803 -0.763052 0)
(1.67645 -0.597486 0)
(1.92857 -0.377221 0)
(2.18018 -0.135392 0)
(2.40225 0.0908771 0)
(2.57824 0.283783 0)
(2.70256 0.439462 0)
(2.7785 0.558582 0)
(2.81457 0.645688 0)
(2.81912 0.701625 0)
(2.79347 0.728059 0)
(2.74393 0.727977 0)
(2.67631 0.702407 0)
(2.59655 0.656783 0)
(2.5117 0.59588 0)
(2.42498 0.529214 0)
(2.33532 0.470647 0)
(2.2374 0.433204 0)
(2.12953 0.424823 0)
(2.01344 0.441808 0)
(1.89801 0.469439 0)
(1.79131 0.491184 0)
(1.69824 0.493217 0)
(1.62571 0.464693 0)
(1.57968 0.398544 0)
(1.56231 0.296339 0)
(1.57021 0.169426 0)
(1.59865 0.033664 0)
(1.64177 -0.0959229 0)
(1.69494 -0.210718 0)
(1.7539 -0.30575 0)
(1.81469 -0.379188 0)
(1.8743 -0.431713 0)
(1.93114 -0.465369 0)
(1.98507 -0.482497 0)
(2.0369 -0.485494 0)
(2.08747 -0.476897 0)
(2.13876 -0.458694 0)
(2.19331 -0.43088 0)
(2.25315 -0.39148 0)
(2.3198 -0.337421 0)
(2.39389 -0.266154 0)
(2.47424 -0.177325 0)
(2.55607 -0.0755895 0)
(2.63011 0.0274388 0)
(2.68974 0.122333 0)
(2.73038 0.202052 0)
(2.75065 0.26556 0)
(2.75039 0.314945 0)
(2.73358 0.350068 0)
(2.69483 0.364763 0)
(2.63857 0.359636 0)
(2.56643 0.340032 0)
(2.48326 0.312626 0)
(2.39479 0.284612 0)
(2.30711 0.26183 0)
(2.22398 0.246583 0)
(2.14855 0.238393 0)
(2.08291 0.234632 0)
(2.02772 0.231263 0)
(-0.0331573 -0.448442 0)
(-0.1145 -0.41753 0)
(-0.207756 -0.331043 0)
(-0.304098 -0.181589 0)
(-0.383434 0.0227475 0)
(-0.437288 0.271534 0)
(-0.474697 0.538512 0)
(-0.500801 0.787264 0)
(-0.524608 0.986777 0)
(-0.544645 1.1126 0)
(-0.557117 1.16544 0)
(-0.54328 1.12479 0)
(-0.494055 0.992751 0)
(-0.402053 0.768828 0)
(-0.251636 0.486397 0)
(-0.057978 0.181021 0)
(0.142601 -0.100897 0)
(0.336064 -0.344487 0)
(0.512991 -0.546504 0)
(0.667369 -0.707297 0)
(0.796884 -0.830643 0)
(0.902464 -0.920018 0)
(0.987783 -0.980968 0)
(1.06196 -1.01255 0)
(1.13958 -1.0042 0)
(1.24568 -0.938064 0)
(1.39004 -0.805737 0)
(1.57097 -0.609083 0)
(1.7765 -0.368567 0)
(1.98314 -0.118774 0)
(2.16976 0.113631 0)
(2.32263 0.314083 0)
(2.43737 0.476721 0)
(2.5159 0.601614 0)
(2.56178 0.689187 0)
(2.58003 0.742064 0)
(2.57622 0.765341 0)
(2.55009 0.76229 0)
(2.50485 0.728271 0)
(2.4447 0.674912 0)
(2.37243 0.616066 0)
(2.28729 0.567722 0)
(2.18892 0.541994 0)
(2.08135 0.541111 0)
(1.97265 0.557177 0)
(1.87153 0.576324 0)
(1.78382 0.584174 0)
(1.71372 0.567033 0)
(1.66905 0.512399 0)
(1.65214 0.41705 0)
(1.66031 0.288462 0)
(1.68964 0.140369 0)
(1.73425 -0.0105912 0)
(1.78827 -0.150462 0)
(1.84739 -0.271019 0)
(1.90712 -0.367451 0)
(1.96398 -0.438894 0)
(2.01507 -0.487125 0)
(2.05911 -0.515876 0)
(2.09631 -0.528252 0)
(2.12812 -0.527343 0)
(2.1559 -0.517436 0)
(2.1824 -0.500948 0)
(2.21179 -0.477631 0)
(2.24729 -0.444639 0)
(2.29074 -0.397973 0)
(2.34275 -0.334096 0)
(2.40275 -0.251366 0)
(2.46864 -0.151642 0)
(2.53552 -0.0418419 0)
(2.59553 0.066557 0)
(2.64274 0.165486 0)
(2.67344 0.250415 0)
(2.68668 0.318772 0)
(2.6836 0.369463 0)
(2.66455 0.401838 0)
(2.62897 0.413854 0)
(2.5791 0.408333 0)
(2.51764 0.39084 0)
(2.4482 0.367459 0)
(2.37575 0.343932 0)
(2.30515 0.323852 0)
(2.23978 0.30784 0)
(2.18208 0.294442 0)
(2.13335 0.280881 0)
(-0.0568663 -0.331225 0)
(-0.18452 -0.30499 0)
(-0.310193 -0.223791 0)
(-0.42351 -0.0926009 0)
(-0.514845 0.0888051 0)
(-0.583687 0.316004 0)
(-0.625403 0.562996 0)
(-0.640638 0.796029 0)
(-0.641835 0.987593 0)
(-0.633402 1.10299 0)
(-0.610841 1.14256 0)
(-0.548051 1.05659 0)
(-0.421959 0.858548 0)
(-0.234865 0.58649 0)
(-0.0106662 0.27232 0)
(0.217541 -0.0354149 0)
(0.431185 -0.306483 0)
(0.626287 -0.531401 0)
(0.795262 -0.706904 0)
(0.931647 -0.836254 0)
(1.03209 -0.927486 0)
(1.09767 -0.987776 0)
(1.13364 -1.02332 0)
(1.1515 -1.04513 0)
(1.16484 -1.04892 0)
(1.18471 -1.01589 0)
(1.23184 -0.925179 0)
(1.33127 -0.768705 0)
(1.4695 -0.552907 0)
(1.63128 -0.306614 0)
(1.79788 -0.0596668 0)
(1.95294 0.167105 0)
(2.08659 0.361933 0)
(2.19379 0.518708 0)
(2.27389 0.635794 0)
(2.32877 0.713953 0)
(2.35991 0.756963 0)
(2.37221 0.772805 0)
(2.36589 0.765301 0)
(2.33611 0.730129 0)
(2.28462 0.689293 0)
(2.21442 0.6576 0)
(2.13042 0.642898 0)
(2.04017 0.645037 0)
(1.95263 0.655786 0)
(1.87481 0.662791 0)
(1.81204 0.652977 0)
(1.77135 0.611051 0)
(1.75719 0.529008 0)
(1.76763 0.408407 0)
(1.79903 0.258863 0)
(1.84659 0.0946233 0)
(1.90332 -0.0661517 0)
(1.96408 -0.211256 0)
(2.02427 -0.332161 0)
(2.07973 -0.424909 0)
(2.12743 -0.489503 0)
(2.16497 -0.529043 0)
(2.19271 -0.547884 0)
(2.20989 -0.552551 0)
(2.21935 -0.546252 0)
(2.22167 -0.531659 0)
(2.22184 -0.514813 0)
(2.22468 -0.49642 0)
(2.23481 -0.471967 0)
(2.25417 -0.434885 0)
(2.28371 -0.380351 0)
(2.32313 -0.305675 0)
(2.37087 -0.211457 0)
(2.424 -0.102051 0)
(2.47684 0.012973 0)
(2.52324 0.123412 0)
(2.55911 0.222826 0)
(2.58219 0.306794 0)
(2.59226 0.372595 0)
(2.59026 0.418768 0)
(2.57556 0.446046 0)
(2.54721 0.453814 0)
(2.50796 0.446361 0)
(2.46047 0.429737 0)
(2.40813 0.40815 0)
(2.3553 0.38564 0)
(2.3054 0.364244 0)
(2.26088 0.343651 0)
(2.22327 0.32169 0)
(2.29003 0.349605 0)
(1.72355 0.0272744 0)
(1.68561 0.0268443 0)
(1.64812 0.0263682 0)
(1.61114 0.0258434 0)
(1.57472 0.0252631 0)
(1.53914 0.0246657 0)
(1.5038 0.0240286 0)
(1.46959 0.0232909 0)
(1.43632 0.0224609 0)
(1.40398 0.0215837 0)
(1.37268 0.0206871 0)
(1.34247 0.0197842 0)
(1.31335 0.018887 0)
(1.28532 0.018005 0)
(1.25834 0.0171472 0)
(1.23239 0.0163186 0)
(1.20742 0.0155211 0)
(1.18338 0.0147519 0)
(1.16024 0.0140052 0)
(1.13795 0.0132746 0)
(1.11649 0.012554 0)
(1.09585 0.0118385 0)
(1.07602 0.0111224 0)
(1.05699 0.0104053 0)
(1.03877 0.00970364 0)
(1.02133 0.00903888 0)
(1.00462 0.00843094 0)
(0.988577 0.00789618 0)
(0.973149 0.00746623 0)
(0.958195 0.00716412 0)
(0.943611 0.00700898 0)
(0.929206 0.00701397 0)
(0.914793 0.0071762 0)
(0.900218 0.00748356 0)
(0.885266 0.0079347 0)
(0.869711 0.00853134 0)
(0.853331 0.00926635 0)
(0.835887 0.010147 0)
(0.81712 0.0111843 0)
(0.796762 0.0123837 0)
(0.774538 0.0137517 0)
(0.750154 0.0152896 0)
(0.723337 0.0169933 0)
(0.693662 0.0187644 0)
(0.661216 0.0203944 0)
(0.626223 0.02178 0)
(0.588433 0.0229797 0)
(0.547584 0.0240496 0)
(0.503547 0.0249252 0)
(0.45622 0.0255413 0)
(0.405563 0.0257016 0)
(0.351684 0.0251886 0)
(0.294895 0.0237952 0)
(2.64495 0.0507748 0)
(2.6273 0.0503933 0)
(2.6097 0.0499056 0)
(2.5922 0.0493074 0)
(2.57488 0.0485977 0)
(2.55781 0.0478085 0)
(2.54108 0.0469315 0)
(2.52472 0.045911 0)
(2.50877 0.0447575 0)
(2.49322 0.0435112 0)
(2.47808 0.0422064 0)
(2.46338 0.0408707 0)
(2.44911 0.0395333 0)
(2.43526 0.0382163 0)
(2.42182 0.036941 0)
(2.40876 0.0357209 0)
(2.39605 0.0345632 0)
(2.38366 0.0334671 0)
(2.37156 0.0324241 0)
(2.35972 0.0314233 0)
(2.34811 0.0304539 0)
(2.33671 0.0295046 0)
(2.3255 0.0285683 0)
(2.31444 0.0276386 0)
(2.30352 0.0267303 0)
(2.29273 0.0258551 0)
(2.28206 0.0250295 0)
(2.27148 0.0242752 0)
(2.26095 0.0236224 0)
(2.25042 0.0231016 0)
(2.23985 0.0227483 0)
(2.22915 0.0226028 0)
(2.21826 0.0227005 0)
(2.20709 0.0230679 0)
(2.19554 0.0237294 0)
(2.18349 0.0247079 0)
(2.17081 0.0260262 0)
(2.15737 0.0277031 0)
(2.143 0.0297584 0)
(2.12748 0.0322175 0)
(2.11062 0.0351093 0)
(2.09217 0.0384594 0)
(2.07185 0.0422869 0)
(2.04939 0.0465821 0)
(2.02417 0.0513067 0)
(1.99543 0.0564766 0)
(1.96245 0.0621836 0)
(1.92446 0.0685284 0)
(1.8806 0.0755685 0)
(1.82986 0.0832895 0)
(1.77111 0.0916307 0)
(1.70306 0.100453 0)
(1.62433 0.109497 0)
(2.84424 0.063364 0)
(2.83624 0.0628841 0)
(2.82843 0.0622583 0)
(2.82084 0.0614605 0)
(2.81352 0.0604818 0)
(2.80652 0.0593355 0)
(2.79988 0.0580226 0)
(2.79361 0.0565292 0)
(2.78773 0.054922 0)
(2.78223 0.0532732 0)
(2.7771 0.0515701 0)
(2.77234 0.0498329 0)
(2.76793 0.0480923 0)
(2.76385 0.0463799 0)
(2.76006 0.0447236 0)
(2.75654 0.0431433 0)
(2.75323 0.0416509 0)
(2.75012 0.0402518 0)
(2.74715 0.0389457 0)
(2.74429 0.0377206 0)
(2.74152 0.0365596 0)
(2.7388 0.0354485 0)
(2.7361 0.0343793 0)
(2.73342 0.0333505 0)
(2.73072 0.0323657 0)
(2.72799 0.0314377 0)
(2.72521 0.0305899 0)
(2.72237 0.0298594 0)
(2.71943 0.0292899 0)
(2.71641 0.0289304 0)
(2.71327 0.0288355 0)
(2.70999 0.0290141 0)
(2.70657 0.0294686 0)
(2.70295 0.0302339 0)
(2.69909 0.0313433 0)
(2.69496 0.03285 0)
(2.69049 0.034737 0)
(2.68561 0.0371228 0)
(2.68024 0.0400695 0)
(2.6743 0.0435684 0)
(2.66767 0.0476583 0)
(2.66022 0.0523925 0)
(2.6518 0.0578279 0)
(2.64221 0.0640337 0)
(2.63118 0.0711083 0)
(2.61842 0.0791836 0)
(2.60357 0.0884187 0)
(2.58621 0.0989857 0)
(2.56581 0.111044 0)
(2.54176 0.124733 0)
(2.51331 0.140162 0)
(2.47955 0.157374 0)
(2.43941 0.176282 0)
(2.87814 0.0674579 0)
(2.87236 0.0667154 0)
(2.86703 0.0657945 0)
(2.86207 0.0646851 0)
(2.8575 0.0633797 0)
(2.85335 0.0618811 0)
(2.84967 0.0602008 0)
(2.84646 0.058358 0)
(2.84373 0.0563866 0)
(2.84145 0.054333 0)
(2.83964 0.0522428 0)
(2.83825 0.0501618 0)
(2.83728 0.0481284 0)
(2.83667 0.0461416 0)
(2.83639 0.0442707 0)
(2.8364 0.0425346 0)
(2.83663 0.0409452 0)
(2.83704 0.0395004 0)
(2.83759 0.0381718 0)
(2.83824 0.0369625 0)
(2.83894 0.0358467 0)
(2.83969 0.034802 0)
(2.84045 0.033816 0)
(2.84121 0.0328875 0)
(2.84196 0.0320189 0)
(2.84267 0.0312223 0)
(2.84334 0.030518 0)
(2.84395 0.0299386 0)
(2.84448 0.0295177 0)
(2.84494 0.0292757 0)
(2.84534 0.0292498 0)
(2.84568 0.0294892 0)
(2.84597 0.0300407 0)
(2.84618 0.0309443 0)
(2.8463 0.0322376 0)
(2.84632 0.0339587 0)
(2.8462 0.0361476 0)
(2.84592 0.038846 0)
(2.84547 0.0421006 0)
(2.8448 0.0459663 0)
(2.84388 0.0505066 0)
(2.84267 0.0557944 0)
(2.84107 0.0619146 0)
(2.83903 0.0689748 0)
(2.83642 0.0771069 0)
(2.83311 0.0864671 0)
(2.82893 0.0972515 0)
(2.82365 0.109688 0)
(2.81701 0.124024 0)
(2.80864 0.14051 0)
(2.79806 0.159406 0)
(2.78468 0.180886 0)
(2.76773 0.204976 0)
(2.88298 0.0756412 0)
(2.87785 0.0744235 0)
(2.87298 0.0729992 0)
(2.86842 0.0713483 0)
(2.8642 0.0694756 0)
(2.8604 0.0673945 0)
(2.85707 0.0651034 0)
(2.85425 0.062637 0)
(2.85198 0.0600429 0)
(2.85026 0.0573807 0)
(2.84909 0.0547131 0)
(2.84846 0.0520495 0)
(2.84831 0.0495053 0)
(2.84855 0.0470744 0)
(2.8491 0.0448548 0)
(2.84992 0.0427899 0)
(2.85094 0.0408995 0)
(2.85215 0.0391878 0)
(2.85346 0.0376445 0)
(2.85496 0.0362454 0)
(2.85654 0.0349738 0)
(2.85815 0.0338175 0)
(2.85981 0.0327407 0)
(2.86146 0.0317519 0)
(2.86315 0.030823 0)
(2.86479 0.0300026 0)
(2.86649 0.029263 0)
(2.86809 0.0286739 0)
(2.86984 0.0282398 0)
(2.87156 0.0280045 0)
(2.87324 0.0280109 0)
(2.87492 0.0282964 0)
(2.87659 0.0288962 0)
(2.87827 0.0298439 0)
(2.87994 0.0311778 0)
(2.88161 0.0329384 0)
(2.88327 0.0351673 0)
(2.88492 0.0379144 0)
(2.88658 0.0412381 0)
(2.88822 0.0451967 0)
(2.88986 0.0498548 0)
(2.89147 0.0552908 0)
(2.89305 0.0615962 0)
(2.89458 0.0688861 0)
(2.89602 0.0773204 0)
(2.89726 0.0870853 0)
(2.89829 0.0983917 0)
(2.89906 0.111498 0)
(2.89945 0.126709 0)
(2.89931 0.14436 0)
(2.89837 0.164891 0)
(2.89617 0.188736 0)
(2.89211 0.215888 0)
(2.84811 0.078129 0)
(2.84393 0.076862 0)
(2.83999 0.0753552 0)
(2.83631 0.0735693 0)
(2.83295 0.0714817 0)
(2.83 0.0690915 0)
(2.82749 0.0664234 0)
(2.8255 0.0635301 0)
(2.82403 0.0604931 0)
(2.82308 0.0573742 0)
(2.82265 0.0542496 0)
(2.82273 0.0511781 0)
(2.82326 0.0482813 0)
(2.82417 0.0455655 0)
(2.82543 0.043071 0)
(2.82696 0.0408237 0)
(2.8287 0.0388206 0)
(2.83058 0.0370456 0)
(2.83255 0.0354669 0)
(2.83457 0.0340517 0)
(2.83661 0.0327797 0)
(2.83865 0.0316297 0)
(2.8407 0.0305797 0)
(2.84275 0.029616 0)
(2.84479 0.028729 0)
(2.84683 0.0279213 0)
(2.84888 0.0272085 0)
(2.85094 0.0266095 0)
(2.85301 0.0261535 0)
(2.85511 0.0258965 0)
(2.85724 0.0258816 0)
(2.85944 0.0261406 0)
(2.86169 0.0267066 0)
(2.86399 0.0276179 0)
(2.86636 0.0289152 0)
(2.86881 0.030641 0)
(2.87133 0.0328383 0)
(2.87395 0.0355551 0)
(2.87666 0.0388437 0)
(2.8795 0.0427615 0)
(2.88247 0.047376 0)
(2.88558 0.052769 0)
(2.88886 0.0590397 0)
(2.89227 0.0663095 0)
(2.89585 0.074728 0)
(2.89968 0.0844834 0)
(2.90377 0.0958003 0)
(2.90811 0.10895 0)
(2.91265 0.124275 0)
(2.91745 0.142179 0)
(2.92197 0.163156 0)
(2.92687 0.18765 0)
(2.93178 0.216353 0)
(2.70186 0.0843693 0)
(2.70177 0.0826821 0)
(2.70162 0.0807842 0)
(2.70145 0.0785783 0)
(2.70136 0.0760138 0)
(2.70142 0.0730823 0)
(2.70174 0.0698092 0)
(2.70238 0.0662627 0)
(2.70338 0.0625369 0)
(2.70473 0.0587361 0)
(2.70641 0.0549596 0)
(2.70841 0.0512988 0)
(2.71072 0.0478418 0)
(2.71329 0.0446545 0)
(2.71607 0.041778 0)
(2.719 0.0392245 0)
(2.72201 0.0369835 0)
(2.72506 0.0350322 0)
(2.7281 0.0333357 0)
(2.73109 0.0318556 0)
(2.73402 0.0305541 0)
(2.73689 0.0293966 0)
(2.73969 0.028349 0)
(2.74243 0.027388 0)
(2.74514 0.0265001 0)
(2.74782 0.0256874 0)
(2.75049 0.024961 0)
(2.75318 0.0243433 0)
(2.7559 0.0238655 0)
(2.75867 0.0235696 0)
(2.76151 0.023494 0)
(2.76445 0.0236748 0)
(2.7675 0.024148 0)
(2.77069 0.0249525 0)
(2.77404 0.0261271 0)
(2.77757 0.0277118 0)
(2.78132 0.0297468 0)
(2.78533 0.0322755 0)
(2.78964 0.0353459 0)
(2.79429 0.0390138 0)
(2.79935 0.0433453 0)
(2.80487 0.0484211 0)
(2.81094 0.0543452 0)
(2.81761 0.061242 0)
(2.82494 0.0692532 0)
(2.83302 0.0785544 0)
(2.8419 0.0893759 0)
(2.85169 0.102011 0)
(2.86243 0.116829 0)
(2.87418 0.134316 0)
(2.88688 0.154987 0)
(2.90023 0.179722 0)
(2.91357 0.209836 0)
(2.2179 0.0801904 0)
(2.23049 0.0791276 0)
(2.24242 0.0779199 0)
(2.25364 0.0764146 0)
(2.26417 0.0744992 0)
(2.27413 0.0721233 0)
(2.28364 0.0692921 0)
(2.29275 0.0660601 0)
(2.30149 0.0625152 0)
(2.30993 0.0588037 0)
(2.31808 0.0550359 0)
(2.326 0.051231 0)
(2.33367 0.0474965 0)
(2.3411 0.043988 0)
(2.34828 0.0407623 0)
(2.35523 0.0378834 0)
(2.36193 0.0353668 0)
(2.36839 0.0332013 0)
(2.3746 0.0313544 0)
(2.38058 0.0297816 0)
(2.38632 0.0284304 0)
(2.39185 0.027249 0)
(2.39717 0.0261909 0)
(2.40233 0.0252176 0)
(2.40733 0.0243038 0)
(2.41221 0.0234363 0)
(2.41699 0.0226166 0)
(2.42171 0.0218583 0)
(2.42639 0.0211851 0)
(2.43106 0.0206297 0)
(2.43576 0.0202281 0)
(2.44053 0.0200211 0)
(2.44541 0.0200485 0)
(2.45045 0.0203452 0)
(2.45569 0.0209434 0)
(2.4612 0.0218762 0)
(2.46704 0.0231764 0)
(2.47329 0.0248769 0)
(2.48003 0.0270119 0)
(2.48735 0.02962 0)
(2.49537 0.0327465 0)
(2.5042 0.0364461 0)
(2.51399 0.0407877 0)
(2.52488 0.0458597 0)
(2.53708 0.0517734 0)
(2.55077 0.0586626 0)
(2.56621 0.066696 0)
(2.58364 0.0760905 0)
(2.60338 0.0871262 0)
(2.62578 0.100162 0)
(2.65123 0.115681 0)
(2.68019 0.134306 0)
(2.71305 0.157094 0)
(2.75018 0.18559 0)
(1.1868 0.0576977 0)
(1.2215 0.0576374 0)
(1.2549 0.057692 0)
(1.287 0.0575462 0)
(1.31776 0.056926 0)
(1.34717 0.055683 0)
(1.37521 0.0538192 0)
(1.40185 0.0514224 0)
(1.42707 0.0486038 0)
(1.45084 0.0454996 0)
(1.47318 0.0422387 0)
(1.49411 0.0389433 0)
(1.5137 0.035738 0)
(1.53202 0.0327239 0)
(1.54916 0.0299739 0)
(1.56519 0.0275374 0)
(1.58023 0.0254373 0)
(1.59439 0.0236715 0)
(1.60775 0.022214 0)
(1.62042 0.0210218 0)
(1.63248 0.0200416 0)
(1.64401 0.019218 0)
(1.65507 0.0185003 0)
(1.66573 0.0178445 0)
(1.67603 0.0172192 0)
(1.686 0.0166052 0)
(1.69569 0.015998 0)
(1.70512 0.0154056 0)
(1.71434 0.0148449 0)
(1.72337 0.0143443 0)
(1.73228 0.013933 0)
(1.7411 0.0136474 0)
(1.74995 0.0135225 0)
(1.75888 0.0135903 0)
(1.76799 0.0138769 0)
(1.77738 0.0144076 0)
(1.78719 0.0152075 0)
(1.79755 0.0162998 0)
(1.8086 0.0177073 0)
(1.82052 0.0194533 0)
(1.83349 0.0215656 0)
(1.84772 0.0240786 0)
(1.86343 0.0270366 0)
(1.88089 0.0304962 0)
(1.90039 0.0345313 0)
(1.92227 0.0392358 0)
(1.94691 0.0447294 0)
(1.97478 0.0511695 0)
(2.00641 0.0587589 0)
(2.04247 0.0677774 0)
(2.08375 0.078561 0)
(2.13132 0.0916481 0)
(2.1867 0.10758 0)
(2.25262 0.127497 0)
(0.166712 0.0122566 0)
(0.199621 0.0128862 0)
(0.233184 0.013333 0)
(0.267122 0.01347 0)
(0.301155 0.0132763 0)
(0.334898 0.0128118 0)
(0.367883 0.0121514 0)
(0.399665 0.0113551 0)
(0.429894 0.0104753 0)
(0.458234 0.00958218 0)
(0.484826 0.008685 0)
(0.509184 0.00779487 0)
(0.53148 0.00696524 0)
(0.551832 0.00624813 0)
(0.570365 0.00565921 0)
(0.587291 0.00519687 0)
(0.602841 0.00484662 0)
(0.61724 0.00458555 0)
(0.630701 0.00438216 0)
(0.643404 0.00420761 0)
(0.655487 0.00403563 0)
(0.66705 0.00384903 0)
(0.678152 0.00363608 0)
(0.688824 0.00339569 0)
(0.699074 0.0031328 0)
(0.708897 0.00285881 0)
(0.718291 0.00258901 0)
(0.727255 0.00234036 0)
(0.735809 0.00213138 0)
(0.743983 0.00197986 0)
(0.751848 0.00189806 0)
(0.759468 0.0018981 0)
(0.766959 0.00198789 0)
(0.774467 0.00217431 0)
(0.782111 0.00245668 0)
(0.790061 0.00283922 0)
(0.798498 0.0033268 0)
(0.807607 0.00392434 0)
(0.817587 0.0046354 0)
(0.828652 0.00546627 0)
(0.841029 0.00642622 0)
(0.854966 0.00752932 0)
(0.870734 0.00879582 0)
(0.88864 0.0102525 0)
(0.909037 0.0119473 0)
(0.932336 0.013917 0)
(0.959024 0.0162232 0)
(0.989672 0.0189439 0)
(1.02502 0.0221851 0)
(1.06583 0.0260715 0)
(1.1135 0.030861 0)
(1.16849 0.036362 0)
(1.23455 0.0448987 0)
(1.31153 0.0466494 0)
(0.235622 0.0214239 0)
(0.174571 0.0182775 0)
(0.112737 0.0154515 0)
(0.0515414 0.0149942 0)
(-0.0200093 0.0145752 0)
(-0.0948761 0.0095489 0)
(-0.171163 -0.00248251 0)
(-0.237298 -0.0224782 0)
(-0.281375 -0.0448182 0)
(-0.298648 -0.0566864 0)
(-0.290566 -0.0560554 0)
(-0.275983 -0.0342587 0)
(-0.264721 -0.0104194 0)
(-0.248604 0.000471224 0)
(-0.213909 -0.00871677 0)
(-0.154752 -0.0298506 0)
(-0.0722739 -0.0428268 0)
(0.0207206 -0.0424046 0)
(0.107047 -0.0339619 0)
(0.172449 -0.0213491 0)
(0.206068 -0.00420399 0)
(0.205781 0.0191558 0)
(0.172916 0.0402297 0)
(0.105081 0.0551819 0)
(0.00837569 0.0647024 0)
(-0.102333 0.0665952 0)
(-0.209885 0.0599666 0)
(-0.304986 0.0483908 0)
(-0.378537 0.0334635 0)
(-0.423799 0.0167699 0)
(-0.438957 3.4397e-05 0)
(-0.426115 -0.015357 0)
(-0.38966 -0.0272601 0)
(-0.33569 -0.0345085 0)
(-0.272137 -0.0372712 0)
(-0.206647 -0.0360007 0)
(-0.145451 -0.0316962 0)
(-0.0936929 -0.0254307 0)
(-0.0544943 -0.018067 0)
(-0.0291347 -0.0105873 0)
(-0.0176256 -0.00350207 0)
(-0.0186266 0.00292095 0)
(-0.0301891 0.00828721 0)
(-0.0503367 0.0122309 0)
(-0.0763127 0.0145702 0)
(-0.105149 0.0152275 0)
(-0.133403 0.0140451 0)
(-0.157505 0.0110355 0)
(-0.174193 0.00637338 0)
(-0.180956 0.00063137 0)
(-0.176929 -0.00548771 0)
(-0.162541 -0.0109936 0)
(-0.139039 -0.014888 0)
(-0.10962 -0.0170572 0)
(-0.0785962 -0.0169131 0)
(-0.0496362 -0.0145887 0)
(-0.0266103 -0.0104534 0)
(-0.0121194 -0.00555906 0)
(-0.00705542 -0.000313415 0)
(-0.0120476 0.00441694 0)
(-0.0251547 0.00838783 0)
(-0.0432797 0.0106673 0)
(-0.0634107 0.0109968 0)
(-0.0824977 0.00973097 0)
(-0.0981271 0.00724948 0)
(-0.108645 0.00415344 0)
(-0.113497 0.00117278 0)
(-0.113409 -0.00131953 0)
(-0.109607 -0.00302346 0)
(-0.10349 -0.00379431 0)
(-0.0966289 -0.00371421 0)
(-0.0904261 -0.00296844 0)
(-0.0859519 -0.00177875 0)
(-0.0839169 -0.000387805 0)
(-0.0844521 0.000961966 0)
(-0.0873473 0.00216035 0)
(-0.0922018 0.00306637 0)
(-0.0983786 0.00357445 0)
(-0.105078 0.00363108 0)
(-0.111456 0.00324367 0)
(-0.11674 0.00248421 0)
(-0.120361 0.00150386 0)
(-0.122071 0.000471486 0)
(-0.122041 -0.000439862 0)
(-0.120687 -0.00107231 0)
(-0.118567 -0.00130934 0)
(1.53338 0.11842 0)
(1.42895 0.126786 0)
(1.31046 0.134159 0)
(1.17861 0.140393 0)
(1.03809 0.144216 0)
(0.894339 0.143535 0)
(0.755701 0.136719 0)
(0.630805 0.121669 0)
(0.519698 0.0967599 0)
(0.409441 0.061986 0)
(0.292441 0.0256153 0)
(0.182509 0.00164747 0)
(0.101594 -0.0197478 0)
(0.0649825 -0.0602127 0)
(0.0727601 -0.111625 0)
(0.0883359 -0.15527 0)
(0.116825 -0.175148 0)
(0.162997 -0.162253 0)
(0.215438 -0.120599 0)
(0.264798 -0.0723604 0)
(0.29538 -0.0224413 0)
(0.289647 0.0291463 0)
(0.241323 0.0799521 0)
(0.157706 0.122314 0)
(0.0488052 0.150684 0)
(-0.068979 0.161748 0)
(-0.184481 0.154448 0)
(-0.284837 0.129809 0)
(-0.360207 0.0917389 0)
(-0.408042 0.0451679 0)
(-0.423253 -0.00249931 0)
(-0.408371 -0.044187 0)
(-0.369244 -0.0754709 0)
(-0.31542 -0.0945828 0)
(-0.253619 -0.101619 0)
(-0.190833 -0.0979963 0)
(-0.133047 -0.0859234 0)
(-0.0850858 -0.0684503 0)
(-0.050701 -0.0480862 0)
(-0.0306397 -0.026822 0)
(-0.0241309 -0.00677242 0)
(-0.0301328 0.0114504 0)
(-0.0466017 0.0263296 0)
(-0.0715451 0.0374318 0)
(-0.101922 0.0438899 0)
(-0.134373 0.0454788 0)
(-0.165368 0.0417497 0)
(-0.191327 0.0326695 0)
(-0.208391 0.0189843 0)
(-0.215206 0.00220197 0)
(-0.209418 -0.0145303 0)
(-0.193039 -0.0299781 0)
(-0.167921 -0.0410345 0)
(-0.137576 -0.0467158 0)
(-0.106161 -0.0460502 0)
(-0.0773842 -0.0397845 0)
(-0.05536 -0.0287043 0)
(-0.0427751 -0.0143433 0)
(-0.0400404 0.000660069 0)
(-0.047431 0.0140678 0)
(-0.0629135 0.0246834 0)
(-0.0833937 0.0308098 0)
(-0.105379 0.0315126 0)
(-0.125625 0.0277777 0)
(-0.141049 0.0207074 0)
(-0.150938 0.0119745 0)
(-0.15494 0.00336888 0)
(-0.153438 -0.00358621 0)
(-0.148468 -0.00826706 0)
(-0.141753 -0.01039 0)
(-0.134685 -0.0102467 0)
(-0.128493 -0.00830623 0)
(-0.124088 -0.00510049 0)
(-0.122 -0.00120894 0)
(-0.122308 0.00269124 0)
(-0.125147 0.00614418 0)
(-0.130081 0.00873431 0)
(-0.136345 0.0101659 0)
(-0.143047 0.0103133 0)
(-0.149286 0.00919313 0)
(-0.154237 0.00699289 0)
(-0.157306 0.0041296 0)
(-0.158188 0.00119736 0)
(-0.157085 -0.00134145 0)
(-0.154658 -0.00298779 0)
(-0.151583 -0.00354821 0)
(2.39165 0.196687 0)
(2.33502 0.218161 0)
(2.26854 0.239815 0)
(2.19159 0.259925 0)
(2.10476 0.275533 0)
(2.00775 0.282868 0)
(1.90244 0.278368 0)
(1.79048 0.259785 0)
(1.67436 0.229115 0)
(1.55611 0.191914 0)
(1.44355 0.155892 0)
(1.34309 0.123289 0)
(1.26176 0.0922829 0)
(1.19735 0.0580875 0)
(1.12608 0.0199326 0)
(1.0357 -0.0148688 0)
(0.914643 -0.0500897 0)
(0.771113 -0.0937766 0)
(0.65915 -0.12551 0)
(0.588789 -0.120865 0)
(0.549158 -0.0497815 0)
(0.526992 0.0575099 0)
(0.487236 0.152781 0)
(0.411523 0.225113 0)
(0.307948 0.269332 0)
(0.191668 0.28328 0)
(0.0750445 0.26559 0)
(-0.0301093 0.21952 0)
(-0.114584 0.152311 0)
(-0.170424 0.0742274 0)
(-0.197048 -0.00413654 0)
(-0.196121 -0.0699343 0)
(-0.173838 -0.119019 0)
(-0.135444 -0.148747 0)
(-0.0880806 -0.159515 0)
(-0.0388198 -0.153861 0)
(0.00607113 -0.134134 0)
(0.0419758 -0.104532 0)
(0.0660788 -0.0703598 0)
(0.0769351 -0.0354232 0)
(0.0758229 -0.00286074 0)
(0.0635171 0.0259848 0)
(0.0416673 0.0493373 0)
(0.0122941 0.066282 0)
(-0.0216796 0.0760735 0)
(-0.0572783 0.0780358 0)
(-0.0916117 0.071346 0)
(-0.121159 0.0558185 0)
(-0.142337 0.0324071 0)
(-0.15117 0.00369504 0)
(-0.147648 -0.0259773 0)
(-0.133317 -0.0514092 0)
(-0.109248 -0.0688626 0)
(-0.0790313 -0.0765128 0)
(-0.0463026 -0.0743747 0)
(-0.0152261 -0.0632174 0)
(0.0104359 -0.0446637 0)
(0.0270679 -0.0209734 0)
(0.0332694 0.00395076 0)
(0.0296156 0.0258043 0)
(0.0180942 0.0423261 0)
(0.000547442 0.0511454 0)
(-0.0189001 0.051766 0)
(-0.0364855 0.0450673 0)
(-0.0502833 0.0327604 0)
(-0.0583308 0.0179009 0)
(-0.0603086 0.00364469 0)
(-0.0576207 -0.00756845 0)
(-0.0520613 -0.0145906 0)
(-0.0450109 -0.0173646 0)
(-0.0380478 -0.0166872 0)
(-0.0321518 -0.0133085 0)
(-0.0281562 -0.00806925 0)
(-0.0264839 -0.00187372 0)
(-0.0270438 0.00453677 0)
(-0.0296527 0.010072 0)
(-0.0339729 0.0140936 0)
(-0.0392889 0.01617 0)
(-0.0447884 0.0161625 0)
(-0.0496851 0.014084 0)
(-0.0530769 0.0102205 0)
(-0.0544238 0.00523955 0)
(-0.0535199 9.82684e-05 0)
(-0.0507996 -0.00415146 0)
(-0.0466533 -0.0067087 0)
(-0.0419281 -0.0074175 0)
(2.74624 0.231655 0)
(2.71908 0.260527 0)
(2.68489 0.290381 0)
(2.64221 0.318977 0)
(2.59014 0.343003 0)
(2.52848 0.358595 0)
(2.45748 0.362004 0)
(2.37771 0.351058 0)
(2.29061 0.327104 0)
(2.19893 0.293975 0)
(2.10568 0.254704 0)
(2.01633 0.211523 0)
(1.9334 0.16546 0)
(1.85499 0.117247 0)
(1.77962 0.0736033 0)
(1.70973 0.0449165 0)
(1.64288 0.0376749 0)
(1.57346 0.0471572 0)
(1.48019 0.0574204 0)
(1.33633 0.0593247 0)
(1.16836 0.0670572 0)
(1.03447 0.110074 0)
(0.937962 0.199803 0)
(0.861146 0.301838 0)
(0.778753 0.375918 0)
(0.683745 0.403858 0)
(0.583039 0.384983 0)
(0.483417 0.327609 0)
(0.392361 0.239543 0)
(0.318497 0.133737 0)
(0.267244 0.0254606 0)
(0.240586 -0.0708851 0)
(0.233121 -0.141923 0)
(0.243123 -0.184604 0)
(0.264475 -0.200679 0)
(0.290113 -0.192489 0)
(0.31332 -0.1662 0)
(0.328248 -0.128154 0)
(0.332626 -0.0836019 0)
(0.327079 -0.0365102 0)
(0.31341 0.00925408 0)
(0.292267 0.0487162 0)
(0.265058 0.0798771 0)
(0.233433 0.101249 0)
(0.199179 0.112856 0)
(0.16416 0.114304 0)
(0.130564 0.103655 0)
(0.101522 0.0807629 0)
(0.0805432 0.0464919 0)
(0.0704975 0.0043965 0)
(0.0736737 -0.0401887 0)
(0.0864604 -0.0772447 0)
(0.105486 -0.102606 0)
(0.128235 -0.114624 0)
(0.1536 -0.113053 0)
(0.180627 -0.0974966 0)
(0.207001 -0.0700202 0)
(0.228822 -0.0361389 0)
(0.241695 -0.00182357 0)
(0.245179 0.0295811 0)
(0.241039 0.0532001 0)
(0.230632 0.0660328 0)
(0.216951 0.0676064 0)
(0.203151 0.0585604 0)
(0.191199 0.0418465 0)
(0.183484 0.0211321 0)
(0.180929 0.00162083 0)
(0.182862 -0.0134133 0)
(0.187504 -0.0222018 0)
(0.193087 -0.0250097 0)
(0.19849 -0.02315 0)
(0.202883 -0.018174 0)
(0.205719 -0.0108552 0)
(0.206829 -0.00223325 0)
(0.206176 0.00627584 0)
(0.203674 0.0136003 0)
(0.199979 0.0188573 0)
(0.195583 0.0213022 0)
(0.190977 0.0208651 0)
(0.186867 0.017559 0)
(0.184058 0.011661 0)
(0.183264 0.0041764 0)
(0.184882 -0.00323818 0)
(0.188823 -0.00913097 0)