/*--------------------------------*- C++ -*----------------------------------*\
| =========                 |                                                 |
| \\      /  F ield         | OpenFOAM: The Open Source CFD Toolbox           |
|  \\    /   O peration     | Version:  2206                                  |
|   \\  /    A nd           | Website:  www.openfoam.com                      |
|    \\/     M anipulation  |                                                 |
\*---------------------------------------------------------------------------*/
FoamFile
{
    version     2.0;
    format      ascii;
    arch        "LSB;label=32;scalar=64";
    class       volScalarField;
    location    "19.8";
    object      p;
}
// * * * * * * * * * * * * * * * * * * * * * * * * * * * * * * * * * * * * * //

dimensions      [0 2 -2 0 0 0 0];

internalField   nonuniform List<scalar> 
1865
(
-1.26317
-1.26442
-1.27218
-1.28737
-1.31132
-1.34582
-1.3918
-1.45349
-1.26604
-1.26654
-1.27342
-1.28755
-1.30987
-1.34127
-1.38201
-1.43047
-1.25944
-1.25802
-1.26181
-1.27124
-1.28655
-1.30752
-1.333
-1.36016
-1.24264
-1.23784
-1.23671
-1.23931
-1.24541
-1.25432
-1.26466
-1.27394
-1.22065
-1.21167
-1.20495
-1.20055
-1.19837
-1.1978
-1.19745
-1.19449
-1.19628
-1.18319
-1.17127
-1.16041
-1.15038
-1.14087
-1.13102
-1.11848
-1.17125
-1.154
-1.13694
-1.12005
-1.10323
-1.0862
-1.06837
-1.04869
-1.14699
-1.12569
-1.10386
-1.08144
-1.05843
-1.03483
-1.01067
-0.985926
-1.12388
-1.09904
-1.07311
-1.04594
-1.01772
-0.988883
-0.959938
-0.931981
-1.11304
-1.08682
-1.05923
-1.03009
-0.999719
-0.968778
-0.938226
-0.909493
-1.52322
-1.58907
-1.6392
-1.64123
-1.5675
-1.4194
-1.21576
-0.975416
-0.708559
-0.4351
-0.177343
0.0470487
0.225284
0.352367
0.425012
0.458263
0.438253
0.373478
0.265178
0.113058
-0.081099
-0.292159
-0.489812
-0.656543
-0.778471
-0.860825
-0.903888
-0.884263
-0.810911
-0.713759
-0.6028
-0.490619
-0.388759
-0.305224
-0.243026
-0.201269
-0.177307
-0.167219
-0.166316
-0.17341
-0.192167
-0.221199
-0.254452
-0.290792
-0.329226
-0.362323
-0.389441
-0.403021
-0.400069
-0.382331
-0.348353
-0.302632
-0.249965
-0.195748
-0.14422
-0.0987222
-0.0624385
-0.0381625
-0.0273865
-0.0303498
-0.0463441
-0.0737442
-0.109934
-0.148183
-0.183605
-0.211733
-0.227374
-0.238182
-0.239683
-0.218204
-0.18956
-0.165442
-0.139849
-0.116252
-0.0976587
-0.0846222
-0.0785461
-0.0799201
-0.0888547
-0.104568
-0.125311
-0.148967
-0.173449
-0.197436
-0.218843
-0.234109
-0.241233
-0.238396
-0.226227
-0.205738
-0.178454
-0.14655
-0.112502
-0.078521
-0.0462186
-0.0172002
0.00694429
0.0254006
0.0380002
0.0449746
0.0467685
0.0443396
0.0384908
0.0306052
0.0219892
0.0151339
0.0102854
0.00741838
0.00454838
0.00289608
0.00164123
-0.00113247
-0.0057592
-0.0123768
-0.0213303
-0.0326242
-0.045796
-0.0600469
-0.0744985
-1.48318
-1.52446
-1.53188
-1.49725
-1.408
-1.26432
-1.07554
-0.861095
-0.633989
-0.403746
-0.186374
0.00370394
0.158471
0.272398
0.346617
0.385901
0.377952
0.322688
0.229628
0.104638
-0.0532378
-0.231661
-0.409892
-0.572159
-0.704442
-0.812514
-0.886926
-0.880188
-0.80258
-0.708085
-0.598833
-0.486423
-0.385054
-0.302186
-0.24004
-0.198179
-0.174851
-0.166506
-0.168584
-0.177762
-0.19509
-0.221792
-0.253181
-0.282785
-0.307015
-0.327254
-0.342886
-0.35343
-0.353218
-0.331321
-0.297839
-0.257694
-0.207529
-0.155024
-0.102667
-0.0552826
-0.0178493
0.00650628
0.0164438
0.0117693
-0.00622878
-0.0361081
-0.0747357
-0.113816
-0.148435
-0.172916
-0.192471
-0.21113
-0.214509
-0.200243
-0.180073
-0.160938
-0.140142
-0.11964
-0.101483
-0.0879158
-0.081762
-0.0822876
-0.0894749
-0.102613
-0.119776
-0.139641
-0.160799
-0.181116
-0.198835
-0.211673
-0.217201
-0.214671
-0.203305
-0.184288
-0.158934
-0.129043
-0.0967715
-0.064099
-0.0328068
-0.00451812
0.0194288
0.0382914
0.0514124
0.0587269
0.0611561
0.059025
0.0531231
0.0461143
0.0377166
0.0310666
0.0248007
0.0190029
0.0138713
0.00954882
0.00580375
0.00223367
-0.00241867
-0.00894758
-0.0177191
-0.0286698
-0.0413645
-0.0551572
-0.0692539
-1.38384
-1.39452
-1.38033
-1.33556
-1.25028
-1.12504
-0.969007
-0.790249
-0.60189
-0.412025
-0.231258
-0.0699058
0.0665413
0.172577
0.248629
0.295946
0.30024
0.270438
0.213983
0.123091
-0.00827366
-0.170577
-0.353172
-0.538439
-0.69581
-0.82483
-0.91681
-0.919297
-0.845862
-0.747664
-0.630136
-0.508092
-0.398946
-0.30996
-0.242519
-0.196185
-0.16938
-0.159398
-0.162533
-0.175677
-0.196801
-0.224738
-0.25761
-0.289082
-0.31426
-0.33063
-0.333147
-0.330363
-0.319256
-0.29656
-0.263253
-0.215445
-0.165768
-0.117577
-0.0645631
-0.0165529
0.0203101
0.0425112
0.0484451
0.036534
0.0130131
-0.017778
-0.0606713
-0.0936915
-0.127717
-0.157952
-0.173335
-0.18277
-0.189501
-0.188623
-0.180111
-0.165962
-0.146466
-0.127028
-0.110633
-0.0990283
-0.0912448
-0.0910542
-0.0969171
-0.106479
-0.118972
-0.134112
-0.150917
-0.167244
-0.180793
-0.190234
-0.194436
-0.191574
-0.181135
-0.164011
-0.14099
-0.113665
-0.0839203
-0.053373
-0.0236275
0.00367842
0.0268227
0.0451635
0.0583554
0.0660158
0.068552
0.0673583
0.0625095
0.0566156
0.0495924
0.0404434
0.0316889
0.0235209
0.0167382
0.011712
0.0075858
0.00353872
-0.0013075
-0.00775464
-0.0161397
-0.0263658
-0.0380827
-0.0508177
-0.0639153
-1.2783
-1.27249
-1.25044
-1.20267
-1.12266
-1.01448
-0.885601
-0.740962
-0.587465
-0.431703
-0.281304
-0.142987
-0.0209752
0.0833391
0.16452
0.218808
0.246827
0.247486
0.217124
0.148417
0.0343654
-0.127238
-0.324704
-0.538212
-0.734695
-0.900335
-1.0036
-1.01914
-0.955108
-0.840905
-0.70176
-0.560324
-0.433454
-0.329125
-0.249896
-0.19454
-0.161507
-0.14783
-0.150207
-0.165399
-0.191756
-0.22709
-0.266312
-0.302524
-0.332218
-0.353422
-0.359163
-0.345891
-0.322789
-0.289069
-0.245226
-0.193096
-0.141063
-0.0889286
-0.0355346
0.0130635
0.0495175
0.0658698
0.0620452
0.0447879
0.0235548
-0.0129631
-0.0605743
-0.0930928
-0.118446
-0.140469
-0.156807
-0.172024
-0.18197
-0.183057
-0.174938
-0.160957
-0.143793
-0.128136
-0.11449
-0.103571
-0.0985868
-0.0995416
-0.104841
-0.111573
-0.120067
-0.13055
-0.142809
-0.155195
-0.165499
-0.172558
-0.17522
-0.17108
-0.161079
-0.146454
-0.1259
-0.100861
-0.0739238
-0.0463502
-0.0194332
0.00559499
0.0274542
0.0453124
0.0586347
0.0671093
0.0707482
0.0712443
0.0684166
0.0611434
0.0526879
0.0428074
0.0334778
0.0254975
0.0187984
0.0133018
0.00869278
0.00420756
-0.00103981
-0.00750633
-0.0154219
-0.0248361
-0.0355291
-0.047161
-0.0591629
-1.1854
-1.16743
-1.13657
-1.08753
-1.01787
-0.929086
-0.824328
-0.707006
-0.581496
-0.45227
-0.324172
-0.20186
-0.089032
0.0126479
0.101177
0.16944
0.216932
0.2412
0.234778
0.184475
0.0818378
-0.0837175
-0.305241
-0.560205
-0.812441
-1.03079
-1.1599
-1.18109
-1.10488
-0.961235
-0.7903
-0.621864
-0.473106
-0.351168
-0.258555
-0.19209
-0.149627
-0.129638
-0.131923
-0.152318
-0.185603
-0.228698
-0.277904
-0.324503
-0.364728
-0.390668
-0.394233
-0.376765
-0.34356
-0.299524
-0.246073
-0.187344
-0.127505
-0.0710672
-0.0164008
0.0345415
0.0730824
0.0866369
0.0770135
0.054483
0.0218547
-0.0225403
-0.0657734
-0.102938
-0.129684
-0.148646
-0.160604
-0.167997
-0.170403
-0.167093
-0.158723
-0.146491
-0.132933
-0.121836
-0.113678
-0.107355
-0.105511
-0.107808
-0.112764
-0.118455
-0.124457
-0.13238
-0.141372
-0.148824
-0.154835
-0.159794
-0.161926
-0.15758
-0.147957
-0.134236
-0.116575
-0.0956265
-0.0725698
-0.0478034
-0.0218702
0.0030514
0.0249987
0.0426587
0.0562744
0.0658143
0.0706244
0.0702062
0.0664552
0.0599422
0.0519753
0.0432689
0.0346594
0.0266879
0.01964
0.0136471
0.00847288
0.00356801
-0.00178037
-0.00801305
-0.0154355
-0.024175
-0.0340721
-0.0448009
-0.0557852
-1.10064
-1.07595
-1.04242
-0.997056
-0.937819
-0.864962
-0.780432
-0.686542
-0.585449
-0.478879
-0.368194
-0.256028
-0.147651
-0.04426
0.0538837
0.139376
0.206866
0.255855
0.278704
0.250146
0.156135
-0.0206771
-0.269253
-0.566461
-0.886541
-1.15629
-1.31466
-1.33903
-1.24197
-1.07471
-0.876592
-0.680586
-0.510047
-0.369887
-0.262815
-0.187941
-0.140964
-0.119137
-0.120513
-0.141324
-0.177443
-0.224667
-0.279478
-0.336169
-0.386813
-0.423785
-0.438716
-0.423471
-0.382022
-0.322087
-0.253108
-0.182137
-0.11045
-0.0428589
0.0198516
0.0723827
0.103535
0.104227
0.0802656
0.0432765
-0.00181811
-0.049114
-0.0931237
-0.124888
-0.142489
-0.152057
-0.156599
-0.157362
-0.155912
-0.150163
-0.141366
-0.132307
-0.124537
-0.117867
-0.112896
-0.112035
-0.11348
-0.116894
-0.121473
-0.125737
-0.128679
-0.132366
-0.137323
-0.142704
-0.147819
-0.15213
-0.152669
-0.149058
-0.14116
-0.129111
-0.113065
-0.0942404
-0.0727988
-0.0495801
-0.0256871
-0.00241049
0.0189891
0.0369192
0.0510517
0.0608639
0.0663073
0.0673894
0.0649324
0.0596367
0.0523834
0.0441756
0.0358363
0.0277852
0.0204728
0.0141454
0.0086252
0.00339941
-0.00212515
-0.00838819
-0.015668
-0.0240394
-0.0334152
-0.0434766
-0.0536485
-1.02599
-0.999094
-0.966558
-0.926514
-0.877427
-0.818937
-0.752596
-0.679791
-0.60008
-0.512327
-0.414726
-0.307971
-0.196058
-0.0841484
0.0218553
0.120452
0.208579
0.28069
0.328545
0.337781
0.26413
0.0702827
-0.216465
-0.545596
-0.883601
-1.15732
-1.31693
-1.35551
-1.26123
-1.09695
-0.89992
-0.70354
-0.529538
-0.386601
-0.275779
-0.196761
-0.144363
-0.115929
-0.116318
-0.136847
-0.173422
-0.221124
-0.275247
-0.332547
-0.383967
-0.422565
-0.44017
-0.429676
-0.389449
-0.328163
-0.254884
-0.177652
-0.102861
-0.0351053
0.0220142
0.0645338
0.0881517
0.0881266
0.0664065
0.0289572
-0.017147
-0.0643761
-0.104962
-0.133285
-0.146839
-0.151703
-0.150996
-0.14685
-0.141632
-0.135356
-0.128056
-0.12001
-0.114176
-0.112899
-0.113964
-0.116916
-0.121097
-0.125643
-0.130013
-0.132454
-0.133476
-0.134258
-0.135742
-0.138082
-0.140882
-0.143231
-0.143431
-0.140505
-0.133792
-0.123255
-0.109126
-0.0919859
-0.0722528
-0.0506172
-0.0281087
-0.00594557
0.0146008
0.0323768
0.0466194
0.0568084
0.062714
0.0644256
0.0625502
0.0578391
0.0511627
0.0434141
0.0353292
0.0274074
0.0200836
0.013597
0.0078166
0.00237
-0.00319939
-0.00931063
-0.0162415
-0.024127
-0.0328676
-0.0421577
-0.0514765
-0.960292
-0.932768
-0.902568
-0.868666
-0.829609
-0.784831
-0.735118
-0.681809
-0.624091
-0.556905
-0.468853
-0.357952
-0.235087
-0.115657
-0.0128066
0.0799558
0.179684
0.28556
0.355112
0.35059
0.262173
0.0795085
-0.181231
-0.491126
-0.798116
-1.04964
-1.19787
-1.22569
-1.16551
-1.03161
-0.862725
-0.689801
-0.530531
-0.397403
-0.29332
-0.218079
-0.169616
-0.146425
-0.140913
-0.154295
-0.182737
-0.222164
-0.268402
-0.316967
-0.361283
-0.394704
-0.409991
-0.4014
-0.367031
-0.312777
-0.246354
-0.175449
-0.106229
-0.0422657
0.0114946
0.0501296
0.0694421
0.0682642
0.0478319
0.0136267
-0.0275442
-0.0706915
-0.105576
-0.128271
-0.139992
-0.143814
-0.142473
-0.138418
-0.13264
-0.126509
-0.121224
-0.117324
-0.115616
-0.11512
-0.116946
-0.120293
-0.12461
-0.128752
-0.131735
-0.133361
-0.133922
-0.134133
-0.134591
-0.13555
-0.136732
-0.137378
-0.13647
-0.133107
-0.126707
-0.117094
-0.104343
-0.0887208
-0.0706187
-0.0506598
-0.0298345
-0.00920743
0.0101121
0.0270939
0.0409337
0.0511048
0.0573571
0.0597714
0.0588048
0.0551468
0.0493908
0.0424709
0.0350032
0.027514
0.0203983
0.0138797
0.00784986
0.00205509
-0.00378794
-0.00998605
-0.0168143
-0.024418
-0.0326553
-0.0412274
-0.0496777
-0.906001
-0.880597
-0.854072
-0.825226
-0.792137
-0.75418
-0.71198
-0.668639
-0.627574
-0.587883
-0.52667
-0.418365
-0.27685
-0.133278
-0.0134625
0.0743188
0.144893
0.21021
0.25569
0.265193
0.205677
0.0656732
-0.147861
-0.430735
-0.696073
-0.921309
-1.06306
-1.10691
-1.06411
-0.958293
-0.81881
-0.670828
-0.531825
-0.412487
-0.316863
-0.245426
-0.197904
-0.171648
-0.163307
-0.172372
-0.19443
-0.226543
-0.264594
-0.304684
-0.340848
-0.367089
-0.377324
-0.366815
-0.337499
-0.290704
-0.232286
-0.168638
-0.106143
-0.0494523
-0.0028876
0.0297733
0.0467665
0.0471431
0.0320504
0.00381788
-0.0303471
-0.065545
-0.0955052
-0.116086
-0.129728
-0.135398
-0.135795
-0.13322
-0.129163
-0.124686
-0.120609
-0.117656
-0.116345
-0.116692
-0.118607
-0.121735
-0.125451
-0.128977
-0.131611
-0.133061
-0.133618
-0.133777
-0.133937
-0.134255
-0.134513
-0.13413
-0.132349
-0.128449
-0.121919
-0.112534
-0.100305
-0.0854549
-0.0683699
-0.0494996
-0.0300321
-0.0107802
0.00728365
0.0232466
0.0363808
0.0462022
0.0524914
0.0553068
0.054974
0.0519946
0.0472296
0.0411584
0.0343674
0.0273697
0.0205313
0.014036
0.00785748
0.00183116
-0.00424778
-0.0105929
-0.0174291
-0.0248082
-0.0326148
-0.0405763
-0.0482885
-0.884272
-0.864294
-0.84625
-0.823418
-0.793234
-0.756264
-0.713391
-0.665506
-0.615474
-0.562409
-0.495953
-0.404556
-0.288325
-0.160076
-0.0419313
0.0560002
0.134595
0.196759
0.232578
0.22207
0.158345
0.0351715
-0.163953
-0.396483
-0.637095
-0.84093
-0.970008
-1.01012
-0.987235
-0.905023
-0.787568
-0.65724
-0.530493
-0.418832
-0.328096
-0.259411
-0.21511
-0.188567
-0.180396
-0.185499
-0.203095
-0.231315
-0.264215
-0.29906
-0.330509
-0.352328
-0.359037
-0.347265
-0.319361
-0.276446
-0.222768
-0.164115
-0.10672
-0.0550955
-0.0129943
0.0166971
0.0320687
0.034159
0.0231785
-0.00396843
-0.0321412
-0.0623885
-0.0893749
-0.109566
-0.123055
-0.130036
-0.13197
-0.130738
-0.127816
-0.124292
-0.121047
-0.118754
-0.117781
-0.118049
-0.119663
-0.122273
-0.125371
-0.128324
-0.130601
-0.132155
-0.133027
-0.133414
-0.133608
-0.133711
-0.133517
-0.132562
-0.130232
-0.125922
-0.119194
-0.109828
-0.097823
-0.0834043
-0.0670279
-0.0483027
-0.0297634
-0.0113826
0.00588317
0.0211829
0.0338392
0.0433999
0.0496641
0.0526813
0.0527139
0.0502746
0.0459857
0.040378
0.0339953
0.0272994
0.0206242
0.0141465
0.00787979
0.00171498
-0.00451139
-0.0109777
-0.017829
-0.0250921
-0.0326523
-0.0402533
-0.0475148
-1.1207
-1.12832
-1.14624
-1.17044
-1.19884
-1.23454
-1.28118
-1.34527
-1.43708
-1.53194
-1.59911
-1.60194
-1.5335
-1.37904
-1.18731
-0.984144
-0.794309
-0.636822
-0.518394
-0.44809
-0.440566
-0.477608
-0.55841
-0.672911
-0.79154
-0.881806
-0.927935
-0.925209
-0.876635
-0.793288
-0.689276
-0.579125
-0.474649
-0.382308
-0.305857
-0.256389
-0.227675
-0.217696
-0.228641
-0.262227
-0.319519
-0.395106
-0.480713
-0.57146
-0.654285
-0.716264
-0.747629
-0.746548
-0.713944
-0.656615
-0.583747
-0.504825
-0.427672
-0.355164
-0.2928
-0.248799
-0.216011
-0.196559
-0.191751
-0.200026
-0.221138
-0.254367
-0.296895
-0.34384
-0.389068
-0.425441
-0.446838
-0.451572
-0.437171
-0.406361
-0.36402
-0.315463
-0.265316
-0.216822
-0.177302
-0.150975
-0.133215
-0.125305
-0.126813
-0.135348
-0.150495
-0.171583
-0.196067
-0.220962
-0.243119
-0.259237
-0.266668
-0.264811
-0.252693
-0.231867
-0.204805
-0.174815
-0.144707
-0.117046
-0.0950985
-0.0794518
-0.0697616
-0.0666633
-0.0688152
-0.0745649
-0.0829043
-0.0933613
-0.103894
-0.112862
-0.118812
-0.121152
-0.119105
-0.11271
-0.102748
-0.0902408
-0.0762726
-0.0620214
-0.0491302
-0.0405104
-0.0386639
-0.0381856
-0.0406649
-0.0455266
-0.0519033
-1.23527
-1.25764
-1.28803
-1.31809
-1.33588
-1.33767
-1.32582
-1.30224
-1.27908
-1.24912
-1.20762
-1.14483
-1.0438
-0.935932
-0.792119
-0.645149
-0.515489
-0.414655
-0.351074
-0.33872
-0.377747
-0.465357
-0.605095
-0.758702
-0.891822
-0.981942
-1.01921
-1.00137
-0.935318
-0.835744
-0.717599
-0.593994
-0.481106
-0.380594
-0.302751
-0.248209
-0.213978
-0.200203
-0.206348
-0.233872
-0.283654
-0.351189
-0.428917
-0.511897
-0.590597
-0.652235
-0.687717
-0.693082
-0.669603
-0.621546
-0.557158
-0.484742
-0.411816
-0.343986
-0.284028
-0.238876
-0.207651
-0.187616
-0.180322
-0.187342
-0.207954
-0.239417
-0.279458
-0.323976
-0.366491
-0.400051
-0.420375
-0.424051
-0.409723
-0.37987
-0.339285
-0.291896
-0.24143
-0.195447
-0.160726
-0.137328
-0.123919
-0.120483
-0.125515
-0.137426
-0.155085
-0.178272
-0.205351
-0.232491
-0.256277
-0.273478
-0.281388
-0.278893
-0.265831
-0.243564
-0.214563
-0.182134
-0.149357
-0.119627
-0.0960896
-0.074497
-0.0600333
-0.0515098
-0.0490479
-0.0517029
-0.0576405
-0.0656114
-0.074151
-0.0818337
-0.0877096
-0.0911023
-0.0905476
-0.0865486
-0.0798478
-0.0702721
-0.0593499
-0.0484716
-0.0408029
-0.037992
-0.0395802
-0.0433419
-0.0494327
-0.0574457
-0.0667971
-1.36385
-1.39362
-1.43429
-1.47476
-1.48354
-1.44962
-1.37321
-1.2589
-1.11849
-0.971942
-0.828312
-0.69371
-0.565847
-0.45705
-0.340369
-0.240476
-0.161947
-0.114382
-0.110825
-0.162255
-0.26874
-0.427675
-0.615893
-0.795418
-0.935533
-1.02136
-1.04868
-1.01932
-0.943157
-0.835663
-0.711169
-0.583148
-0.464485
-0.364123
-0.290446
-0.234296
-0.198725
-0.182066
-0.183319
-0.203661
-0.244476
-0.302952
-0.371269
-0.443805
-0.515356
-0.574644
-0.611952
-0.62275
-0.607735
-0.569422
-0.514283
-0.449645
-0.382556
-0.318659
-0.262203
-0.216856
-0.184573
-0.164844
-0.157229
-0.162361
-0.180046
-0.209147
-0.247059
-0.28908
-0.328722
-0.359909
-0.37946
-0.383127
-0.370494
-0.343193
-0.303999
-0.255896
-0.208569
-0.169855
-0.139911
-0.12009
-0.110265
-0.109666
-0.117267
-0.132211
-0.152672
-0.177153
-0.205327
-0.233934
-0.25873
-0.276558
-0.284822
-0.282032
-0.268674
-0.24588
-0.216065
-0.182269
-0.147661
-0.115593
-0.088176
-0.0637367
-0.0450146
-0.0330662
-0.0270892
-0.0261242
-0.0290873
-0.0348852
-0.0420796
-0.0492345
-0.0557632
-0.0600166
-0.0597988
-0.0588498
-0.057505
-0.0495092
-0.0401888
-0.034174
-0.0318806
-0.0327007
-0.0371483
-0.0445294
-0.0537144
-0.0640543
-0.075478
-1.47149
-1.51092
-1.58079
-1.61563
-1.60633
-1.53212
-1.39424
-1.20127
-0.964631
-0.725519
-0.500205
-0.303686
-0.14089
-0.00250107
0.0827423
0.143895
0.176418
0.168822
0.111658
-0.00103517
-0.168333
-0.376164
-0.593527
-0.783534
-0.920007
-0.999109
-1.02128
-0.989755
-0.91196
-0.80147
-0.676844
-0.551562
-0.437043
-0.343726
-0.271438
-0.219483
-0.186738
-0.169435
-0.16674
-0.180868
-0.212599
-0.260252
-0.317827
-0.378538
-0.43806
-0.492099
-0.530225
-0.545357
-0.537104
-0.507611
-0.461135
-0.40413
-0.342858
-0.28287
-0.228722
-0.183856
-0.150786
-0.129261
-0.119724
-0.123375
-0.139746
-0.167486
-0.203718
-0.243418
-0.28055
-0.310606
-0.329171
-0.334541
-0.326072
-0.300534
-0.259599
-0.216339
-0.178245
-0.145316
-0.11956
-0.10293
-0.0955901
-0.0966675
-0.105882
-0.122505
-0.144774
-0.170249
-0.198131
-0.226816
-0.251674
-0.269374
-0.277596
-0.27488
-0.261744
-0.239206
-0.20945
-0.175317
-0.139908
-0.106174
-0.075766
-0.0489994
-0.0274895
-0.012436
-0.00341805
0.000251158
-0.000529536
-0.00465623
-0.0108198
-0.0181322
-0.0254267
-0.031027
-0.0326507
-0.0346554
-0.0349154
-0.0283288
-0.0221173
-0.0206504
-0.0212582
-0.0250745
-0.0323672
-0.0421035
-0.0536404
-0.0661599
-0.0791172
-1.566
-1.59517
-1.6637
-1.69317
-1.65069
-1.52785
-1.34099
-1.10276
-0.82644
-0.542577
-0.27664
-0.0480575
0.132271
0.266342
0.35476
0.391412
0.388491
0.340951
0.24402
0.0962949
-0.0981969
-0.32181
-0.543121
-0.726417
-0.856228
-0.932454
-0.959965
-0.932954
-0.858596
-0.750679
-0.632623
-0.516011
-0.409395
-0.321025
-0.25392
-0.208046
-0.180531
-0.166574
-0.162663
-0.171612
-0.195236
-0.231231
-0.277646
-0.327986
-0.375355
-0.418429
-0.451559
-0.467785
-0.46538
-0.443312
-0.404017
-0.353617
-0.297522
-0.240847
-0.188265
-0.143431
-0.108527
-0.0849696
-0.0743023
-0.077059
-0.0926243
-0.119557
-0.154958
-0.193478
-0.229969
-0.258756
-0.275783
-0.281684
-0.278162
-0.254163
-0.218342
-0.18562
-0.154239
-0.125914
-0.104022
-0.0898955
-0.0835854
-0.0853145
-0.0950634
-0.11206
-0.13456
-0.160016
-0.186636
-0.213599
-0.237369
-0.254227
-0.262035
-0.259377
-0.246597
-0.224869
-0.19605
-0.162663
-0.127489
-0.0931257
-0.0611953
-0.032802
-0.00947966
0.00774828
0.0189547
0.0246114
0.0254352
0.0224458
0.016564
0.00890301
0.00100353
-0.00571609
-0.0100676
-0.0120093
-0.0109278
-0.00979227
-0.00875251
-0.00902211
-0.0118542
-0.0178452
-0.0264644
-0.0374846
-0.050402
-0.0642957
-0.0783435
)
;

boundaryField
{
    inlet
    {
        type            zeroGradient;
    }
    outlet
    {
        type            fixedValue;
        value           nonuniform List<scalar> 0();
    }
    topWall
    {
        type            zeroGradient;
    }
    lowerWall
    {
        type            zeroGradient;
    }
    leadingEdge
    {
        type            zeroGradient;
    }
    trailingEdge
    {
        type            zeroGradient;
    }
    upperSurface
    {
        type            zeroGradient;
    }
    lowerSurface
    {
        type            zeroGradient;
    }
    frontAndBack
    {
        type            empty;
    }
    procBoundary5to1
    {
        type            processor;
        value           nonuniform List<scalar> 
119
(
-1.00902
-1.01162
-1.02118
-1.0423
-1.08121
-1.1456
-1.24744
-1.39918
-1.58725
-1.78245
-1.93033
-1.97574
-1.90257
-1.72259
-1.48435
-1.22759
-0.982879
-0.772435
-0.601333
-0.483289
-0.427102
-0.434505
-0.482536
-0.554784
-0.646335
-0.734226
-0.78809
-0.79964
-0.769846
-0.706408
-0.621397
-0.528066
-0.437725
-0.358413
-0.2921
-0.248461
-0.22599
-0.221072
-0.237491
-0.27692
-0.342999
-0.42409
-0.516463
-0.611792
-0.695936
-0.75548
-0.781641
-0.773689
-0.733026
-0.668336
-0.589448
-0.506686
-0.426131
-0.349843
-0.291907
-0.246697
-0.213347
-0.194702
-0.190997
-0.200589
-0.222159
-0.255076
-0.298453
-0.347273
-0.394397
-0.432851
-0.456374
-0.462176
-0.449054
-0.419089
-0.376525
-0.32726
-0.276214
-0.228213
-0.187696
-0.157275
-0.135928
-0.123186
-0.120161
-0.125773
-0.137981
-0.155547
-0.176901
-0.199207
-0.219341
-0.234112
-0.241561
-0.240556
-0.230118
-0.211531
-0.187527
-0.160774
-0.133336
-0.107407
-0.0877629
-0.0796992
-0.0753055
-0.0761938
-0.0817929
-0.0911712
-0.103275
-0.116589
-0.12932
-0.13978
-0.146387
-0.148096
-0.144655
-0.135889
-0.122626
-0.106253
-0.0885392
-0.0712726
-0.055597
-0.0426511
-0.0336302
-0.0292008
-0.0283385
-0.0296554
-0.0329139
)
;
    }
    procBoundary5to4
    {
        type            processor;
        value           nonuniform List<scalar> 10(-1.26766 -1.27108 -1.26534 -1.25068 -1.23162 -1.21042 -1.18874 -1.16784 -1.14786 -1.1385);
    }
    procBoundary5to6
    {
        type            processor;
        value           nonuniform List<scalar> 
15
(
-0.0885945
-0.0828021
-0.0764385
-0.0706213
-0.0661765
-0.0631483
-0.0601244
-0.0574092
-0.0552316
-0.053971
-0.0592913
-0.0766122
-0.0874993
-0.092508
-0.0923947
)
;
    }
}


// ************************************************************************* //
