/*--------------------------------*- C++ -*----------------------------------*\
| =========                 |                                                 |
| \\      /  F ield         | OpenFOAM: The Open Source CFD Toolbox           |
|  \\    /   O peration     | Version:  2206                                  |
|   \\  /    A nd           | Website:  www.openfoam.com                      |
|    \\/     M anipulation  |                                                 |
\*---------------------------------------------------------------------------*/
FoamFile
{
    version     2.0;
    format      ascii;
    arch        "LSB;label=32;scalar=64";
    class       volVectorField;
    location    "18.3999";
    object      ddtCorrDdt0(U);
}
// * * * * * * * * * * * * * * * * * * * * * * * * * * * * * * * * * * * * * //

dimensions      [0 1 -2 0 0 0 0];

internalField   nonuniform List<vector> 
1838
(
(-1.40343e-07 -7.91219e-06 0)
(2.05889e-06 -7.41403e-05 0)
(7.33855e-06 -0.000140736 0)
(1.59922e-05 -0.000222405 0)
(2.92099e-05 -0.000312287 0)
(4.68877e-05 -0.000408672 0)
(6.96461e-05 -0.000507044 0)
(9.74433e-05 -0.000604964 0)
(0.000130347 -0.000698698 0)
(0.000168037 -0.000786605 0)
(0.000210686 -0.000866907 0)
(0.000258302 -0.000938547 0)
(0.000309169 -0.00100212 0)
(0.000362701 -0.00105853 0)
(0.00041893 -0.00110942 0)
(0.000478436 -0.00115793 0)
(0.000540961 -0.00120526 0)
(0.000605555 -0.00125647 0)
(0.000672266 -0.0013134 0)
(0.000742184 -0.00138182 0)
(0.000815621 -0.00146346 0)
(0.00089235 -0.00156529 0)
(0.000973741 -0.00168887 0)
(0.00106146 -0.00184047 0)
(0.00115647 -0.00202079 0)
(0.00126067 -0.00223584 0)
(0.00137461 -0.00248582 0)
(0.00150418 -0.00277648 0)
(0.00163981 -0.00310719 0)
(0.00180455 -0.00348374 0)
(0.00198264 -0.00390418 0)
(0.00218133 -0.00437435 0)
(0.0024088 -0.00489367 0)
(0.00265421 -0.00546607 0)
(0.00294391 -0.00609476 0)
(0.00325133 -0.00677999 0)
(0.00361219 -0.00752973 0)
(0.00399459 -0.00834625 0)
(0.00443056 -0.00923921 0)
(0.00490918 -0.0102129 0)
(0.00543251 -0.0112772 0)
(0.00602748 -0.0124446 0)
(0.00664796 -0.0137214 0)
(0.00738039 -0.0151297 0)
(0.0081311 -0.0166705 0)
(0.00900682 -0.0183759 0)
(0.00993147 -0.0202509 0)
(0.0109573 -0.0223231 0)
(0.0121078 -0.0246156 0)
(0.0133102 -0.0271424 0)
(0.0147263 -0.0299489 0)
(0.0161559 -0.0330313 0)
(0.0178693 -0.0364606 0)
(0.0196172 -0.0402247 0)
(0.0216376 -0.0444028 0)
(0.0238423 -0.0490145 0)
(0.0261971 -0.054091 0)
(0.0289766 -0.059737 0)
(0.0317876 -0.0659076 0)
(0.035176 -0.0727882 0)
(0.0386513 -0.0803103 0)
(0.0427179 -0.0886781 0)
(0.0470356 -0.0978331 0)
(0.0519591 -0.108002 0)
(0.0573835 -0.119151 0)
(0.0632434 -0.131314 0)
(0.0701646 -0.145013 0)
(0.0771704 -0.159391 0)
(0.0855261 -0.176202 0)
(0.0942236 -0.194464 0)
(0.103762 -0.214444 0)
(0.114459 -0.236474 0)
(0.126335 -0.260832 0)
(0.139418 -0.287692 0)
(0.153853 -0.317331 0)
(0.169787 -0.350067 0)
(0.187382 -0.386172 0)
(0.206861 -0.425971 0)
(0.228496 -0.469873 0)
(0.25258 -0.518341 0)
(0.279409 -0.5719 0)
(0.309338 -0.631123 0)
(0.342733 -0.69667 0)
(0.379964 -0.769304 0)
(0.421459 -0.84984 0)
(0.467676 -0.939156 0)
(0.519141 -1.03824 0)
(0.57654 -1.14823 0)
(0.6406 -1.27053 0)
(0.711981 -1.40674 0)
(0.791497 -1.5586 0)
(0.879941 -1.72828 0)
(0.978076 -1.91842 0)
(1.08656 -2.13252 0)
(1.20505 -2.37502 0)
(1.33395 -2.65304 0)
(1.46568 -2.97261 0)
(1.59875 -3.35063 0)
(1.71204 -3.81024 0)
(1.80481 -4.43822 0)
(1.78168 -5.24681 0)
(0.321823 -7.08409 0)
(-1.36844e-07 -9.21793e-06 0)
(1.81174e-06 -7.61343e-05 0)
(5.86293e-06 -0.000146605 0)
(1.28935e-05 -0.000231816 0)
(2.33556e-05 -0.000326116 0)
(3.74813e-05 -0.000426892 0)
(5.5463e-05 -0.000530328 0)
(7.75284e-05 -0.000632553 0)
(0.000103553 -0.00073097 0)
(0.000133162 -0.00082284 0)
(0.00016722 -0.000906979 0)
(0.000204878 -0.000981953 0)
(0.000245118 -0.00104938 0)
(0.000287613 -0.00110842 0)
(0.000331864 -0.00116277 0)
(0.000379198 -0.00121262 0)
(0.000428557 -0.00126293 0)
(0.000479569 -0.00131555 0)
(0.000532455 -0.00137589 0)
(0.000587918 -0.00144542 0)
(0.00064541 -0.00153171 0)
(0.000705129 -0.00163647 0)
(0.000768742 -0.0017665 0)
(0.000837589 -0.00192323 0)
(0.00091265 -0.00211281 0)
(0.000995011 -0.00233559 0)
(0.00108521 -0.00259815 0)
(0.00118715 -0.00289928 0)
(0.00129569 -0.00324641 0)
(0.00142587 -0.00363749 0)
(0.00156502 -0.00407772 0)
(0.0017255 -0.00456774 0)
(0.0018972 -0.00511057 0)
(0.00210089 -0.00570909 0)
(0.00231909 -0.00636489 0)
(0.00257375 -0.00708124 0)
(0.00285045 -0.00786607 0)
(0.00315504 -0.00871947 0)
(0.00350035 -0.00965434 0)
(0.00387017 -0.0106697 0)
(0.00429777 -0.0117851 0)
(0.00474349 -0.0130003 0)
(0.00526153 -0.014337 0)
(0.00580554 -0.0158016 0)
(0.00642805 -0.0174126 0)
(0.00709714 -0.0191906 0)
(0.00782786 -0.0211436 0)
(0.00865713 -0.0233098 0)
(0.0095195 -0.0256884 0)
(0.0105293 -0.0283332 0)
(0.0115687 -0.0312397 0)
(0.0127759 -0.0344683 0)
(0.0140541 -0.038025 0)
(0.0154778 -0.0419592 0)
(0.0170637 -0.0463134 0)
(0.0187548 -0.051109 0)
(0.0206979 -0.0564238 0)
(0.0227723 -0.0622777 0)
(0.0251031 -0.0687449 0)
(0.0276489 -0.0758908 0)
(0.0304952 -0.0837711 0)
(0.0335365 -0.0924639 0)
(0.0370813 -0.102088 0)
(0.0407959 -0.112663 0)
(0.0450579 -0.124328 0)
(0.0498759 -0.137273 0)
(0.0549782 -0.151163 0)
(0.0610414 -0.166884 0)
(0.0674761 -0.18394 0)
(0.0742406 -0.202615 0)
(0.0819835 -0.223536 0)
(0.0904734 -0.246666 0)
(0.0998732 -0.272158 0)
(0.11025 -0.300278 0)
(0.121653 -0.331295 0)
(0.134211 -0.365531 0)
(0.148083 -0.4033 0)
(0.163448 -0.444982 0)
(0.180523 -0.490977 0)
(0.199528 -0.541794 0)
(0.220714 -0.597972 0)
(0.244357 -0.660128 0)
(0.270719 -0.728971 0)
(0.300111 -0.805285 0)
(0.332884 -0.889911 0)
(0.369384 -0.983816 0)
(0.410037 -1.08803 0)
(0.455332 -1.20376 0)
(0.505767 -1.3324 0)
(0.561821 -1.47555 0)
(0.62398 -1.63493 0)
(0.692668 -1.81266 0)
(0.76813 -2.01108 0)
(0.850096 -2.23313 0)
(0.937813 -2.48235 0)
(1.02828 -2.76253 0)
(1.11673 -3.07907 0)
(1.19474 -3.43957 0)
(1.23593 -3.85602 0)
(1.22258 -4.33157 0)
(0.95933 -4.85443 0)
(0.433977 -5.29097 0)
(-2.26139e-07 -1.07137e-05 0)
(1.40253e-06 -7.82285e-05 0)
(4.51903e-06 -0.000151533 0)
(9.63146e-06 -0.000239165 0)
(1.74078e-05 -0.00033665 0)
(2.77227e-05 -0.000440625 0)
(4.08721e-05 -0.000547516 0)
(5.69513e-05 -0.000653186 0)
(7.56352e-05 -0.000755044 0)
(9.71215e-05 -0.000850382 0)
(0.000121711 -0.000937366 0)
(0.00014899 -0.00101612 0)
(0.000178299 -0.00108555 0)
(0.000208889 -0.00114772 0)
(0.000241142 -0.00120347 0)
(0.000275648 -0.00125506 0)
(0.000311506 -0.00130654 0)
(0.000348443 -0.00136057 0)
(0.000387125 -0.00142174 0)
(0.00042715 -0.00149394 0)
(0.00046828 -0.00158241 0)
(0.000511062 -0.0016907 0)
(0.000556447 -0.00182418 0)
(0.000606079 -0.00198554 0)
(0.00066068 -0.00217994 0)
(0.000720213 -0.00240985 0)
(0.000786019 -0.00267987 0)
(0.000857927 -0.00299051 0)
(0.000941987 -0.00334847 0)
(0.00102788 -0.00375336 0)
(0.00113515 -0.00420835 0)
(0.00124777 -0.00471548 0)
(0.0013687 -0.00527537 0)
(0.00152477 -0.00589425 0)
(0.00166784 -0.00656933 0)
(0.00187334 -0.00731301 0)
(0.00204976 -0.00812106 0)
(0.00229151 -0.00900512 0)
(0.00252536 -0.00996903 0)
(0.00279866 -0.0110188 0)
(0.00311303 -0.0121704 0)
(0.00341621 -0.0134236 0)
(0.00381826 -0.0148062 0)
(0.00417374 -0.0163123 0)
(0.00466446 -0.01798 0)
(0.0051053 -0.0198066 0)
(0.00566952 -0.0218257 0)
(0.00624482 -0.0240532 0)
(0.0068684 -0.0265074 0)
(0.00762353 -0.0292321 0)
(0.00831591 -0.0322254 0)
(0.00926743 -0.035557 0)
(0.0100937 -0.0392175 0)
(0.0112175 -0.0432802 0)
(0.0122778 -0.0477634 0)
(0.0135453 -0.0527067 0)
(0.0149539 -0.058192 0)
(0.0163742 -0.0642048 0)
(0.0181884 -0.0709055 0)
(0.0198415 -0.0782262 0)
(0.022056 -0.0863963 0)
(0.0240966 -0.0953151 0)
(0.0267039 -0.105268 0)
(0.029309 -0.116156 0)
(0.0323209 -0.128249 0)
(0.0357131 -0.1416 0)
(0.0393501 -0.156217 0)
(0.0438258 -0.172355 0)
(0.0485544 -0.189509 0)
(0.0539385 -0.209428 0)
(0.0594508 -0.230991 0)
(0.0655462 -0.25476 0)
(0.0723082 -0.280939 0)
(0.07979 -0.309809 0)
(0.0880483 -0.341711 0)
(0.0971619 -0.376965 0)
(0.107219 -0.415951 0)
(0.118343 -0.459038 0)
(0.130672 -0.506668 0)
(0.144362 -0.559332 0)
(0.159609 -0.617587 0)
(0.176612 -0.682072 0)
(0.19558 -0.753497 0)
(0.216754 -0.83264 0)
(0.240377 -0.920404 0)
(0.266715 -1.01776 0)
(0.296057 -1.12579 0)
(0.328695 -1.24575 0)
(0.364977 -1.37906 0)
(0.405155 -1.52705 0)
(0.449625 -1.69179 0)
(0.498533 -1.87499 0)
(0.551756 -2.07876 0)
(0.608743 -2.30521 0)
(0.668447 -2.55706 0)
(0.726999 -2.83435 0)
(0.781758 -3.14256 0)
(0.82216 -3.48098 0)
(0.833884 -3.84793 0)
(0.775183 -4.23346 0)
(0.630064 -4.57965 0)
(0.277391 -5.76075 0)
(-2.95171e-09 -1.20374e-05 0)
(9.49169e-07 -7.98396e-05 0)
(3.17685e-06 -0.000154486 0)
(6.36067e-06 -0.000244148 0)
(1.1224e-05 -0.000343253 0)
(1.75421e-05 -0.000449684 0)
(2.56093e-05 -0.000558782 0)
(3.52896e-05 -0.000667091 0)
(4.66117e-05 -0.000771313 0)
(5.96269e-05 -0.000869026 0)
(7.44848e-05 -0.00095848 0)
(9.13633e-05 -0.00103905 0)
(0.000109298 -0.00111061 0)
(0.000128008 -0.00117425 0)
(0.000148099 -0.00123098 0)
(0.000169302 -0.00128375 0)
(0.000191256 -0.00133564 0)
(0.000214038 -0.00139063 0)
(0.000237301 -0.0014526 0)
(0.000261541 -0.00152657 0)
(0.000286448 -0.00161662 0)
(0.000311819 -0.00172748 0)
(0.000339311 -0.00186266 0)
(0.000369579 -0.00202723 0)
(0.00040246 -0.00222493 0)
(0.000438212 -0.00245998 0)
(0.000478885 -0.00273495 0)
(0.000519421 -0.00305309 0)
(0.000581668 -0.00341744 0)
(0.000612435 -0.00382972 0)
(0.000699278 -0.00429632 0)
(0.000751216 -0.00481516 0)
(0.000832913 -0.00538715 0)
(0.000930056 -0.00601866 0)
(0.00100106 -0.00670905 0)
(0.00115421 -0.00746787 0)
(0.00122059 -0.0082936 0)
(0.00141458 -0.00919668 0)
(0.00150895 -0.0101805 0)
(0.00171097 -0.0112522 0)
(0.00188471 -0.0124295 0)
(0.00205673 -0.0137077 0)
(0.00234027 -0.0151205 0)
(0.00248637 -0.0166553 0)
(0.0028739 -0.0183596 0)
(0.00304102 -0.0202202 0)
(0.00347433 -0.022282 0)
(0.00375373 -0.0245505 0)
(0.0041598 -0.0270573 0)
(0.00463879 -0.0298344 0)
(0.0049723 -0.0328887 0)
(0.00569374 -0.0362873 0)
(0.00599798 -0.040019 0)
(0.00689161 -0.0441652 0)
(0.00733562 -0.0487366 0)
(0.00824033 -0.0537723 0)
(0.00903747 -0.0593785 0)
(0.00984789 -0.0654898 0)
(0.0110828 -0.0723505 0)
(0.0118475 -0.0797842 0)
(0.0134766 -0.0881425 0)
(0.0143357 -0.0972036 0)
(0.0163023 -0.107385 0)
(0.0174065 -0.118392 0)
(0.0195033 -0.130845 0)
(0.0213268 -0.144343 0)
(0.0229246 -0.159291 0)
(0.0261889 -0.176431 0)
(0.0282268 -0.193233 0)
(0.0325975 -0.213723 0)
(0.0360346 -0.235505 0)
(0.0397879 -0.25969 0)
(0.0441214 -0.286574 0)
(0.0488501 -0.316325 0)
(0.0539307 -0.349082 0)
(0.0594232 -0.385141 0)
(0.0654233 -0.424917 0)
(0.0720434 -0.468854 0)
(0.0793845 -0.517452 0)
(0.0875582 -0.571233 0)
(0.0966765 -0.630788 0)
(0.106866 -0.696758 0)
(0.118256 -0.769862 0)
(0.130967 -0.850887 0)
(0.145165 -0.940735 0)
(0.161012 -1.0404 0)
(0.178651 -1.151 0)
(0.198275 -1.27377 0)
(0.22008 -1.41008 0)
(0.244239 -1.56148 0)
(0.270883 -1.72948 0)
(0.300035 -1.91586 0)
(0.331523 -2.12238 0)
(0.365015 -2.35083 0)
(0.399326 -2.60223 0)
(0.433286 -2.87867 0)
(0.463549 -3.17938 0)
(0.483582 -3.5013 0)
(0.484854 -3.83661 0)
(0.445345 -4.17025 0)
(0.390803 -4.48702 0)
(0.200054 -4.23964 0)
(1.72459e-06 -0.000155657 0)
(3.08934e-06 -0.000246265 0)
(5.00441e-06 -0.000346771 0)
(6.93007e-06 -0.000454286 0)
(9.72229e-06 -0.000564689 0)
(1.29765e-05 -0.000674168 0)
(1.67204e-05 -0.000779677 0)
(2.10808e-05 -0.00087853 0)
(2.63901e-05 -0.000969302 0)
(3.24817e-05 -0.00105101 0)
(3.90175e-05 -0.0011238 0)
(4.58561e-05 -0.00118779 0)
(5.33445e-05 -0.0012451 0)
(6.13494e-05 -0.00129826 0)
(6.9315e-05 -0.00135076 0)
(7.70671e-05 -0.00140607 0)
(8.51216e-05 -0.00146885 0)
(9.31748e-05 -0.00154331 0)
(0.000101329 -0.00163427 0)
(0.000110087 -0.00174557 0)
(0.000119252 -0.00188223 0)
(0.000129078 -0.00204831 0)
(0.000139984 -0.00224841 0)
(0.00015186 -0.00248573 0)
(0.000165815 -0.0027638 0)
(0.000179139 -0.00308615 0)
(0.000203023 -0.00345357 0)
(0.000210965 -0.00387126 0)
(0.000262233 -0.00434171 0)
(0.00023583 -0.0048609 0)
(0.000296939 -0.00544463 0)
(0.000319816 -0.00607737 0)
(0.00032029 -0.00678164 0)
(0.000431362 -0.00754346 0)
(0.000362024 -0.00838206 0)
(0.000543175 -0.0092928 0)
(0.000450952 -0.0102857 0)
(0.000631083 -0.0113736 0)
(0.000614773 -0.012556 0)
(0.000684979 -0.0138551 0)
(0.000848894 -0.015275 0)
(0.000740528 -0.0168294 0)
(0.00111093 -0.0185518 0)
(0.000871582 -0.0204189 0)
(0.00132889 -0.0225236 0)
(0.00115242 -0.0247856 0)
(0.00145483 -0.0273561 0)
(0.00160983 -0.0301154 0)
(0.00152591 -0.0332466 0)
(0.00217938 -0.0366333 0)
(0.00167354 -0.0404366 0)
(0.00271906 -0.0446004 0)
(0.00208749 -0.0492202 0)
(0.00306212 -0.0543162 0)
(0.00293863 -0.0599565 0)
(0.00315013 -0.0661439 0)
(0.00418909 -0.0730769 0)
(0.00322132 -0.0805242 0)
(0.00545873 -0.0890902 0)
(0.00383587 -0.0979918 0)
(0.00624167 -0.108613 0)
(0.00539991 -0.119247 0)
(0.00642984 -0.132394 0)
(0.00757649 -0.145132 0)
(0.00637487 -0.1614 0)
(0.00964264 -0.176927 0)
(0.00512982 -0.196311 0)
(0.0107286 -0.216727 0)
(0.0126343 -0.2392 0)
(0.0139313 -0.263589 0)
(0.0153594 -0.290132 0)
(0.0168924 -0.319581 0)
(0.0185443 -0.352314 0)
(0.0203223 -0.388571 0)
(0.0223035 -0.428709 0)
(0.0245542 -0.473155 0)
(0.0270902 -0.522363 0)
(0.0299033 -0.576849 0)
(0.0329866 -0.637169 0)
(0.0363471 -0.703956 0)
(0.0400234 -0.777922 0)
(0.0440884 -0.859887 0)
(0.0486202 -0.950762 0)
(0.0536994 -1.05157 0)
(0.0594194 -1.16341 0)
(0.0658495 -1.28754 0)
(0.0730587 -1.42529 0)
(0.0811145 -1.57812 0)
(0.0900221 -1.74755 0)
(0.0997881 -1.93526 0)
(0.110347 -2.14289 0)
(0.121542 -2.37184 0)
(0.133037 -2.62313 0)
(0.144219 -2.8973 0)
(0.153969 -3.19278 0)
(0.159897 -3.50532 0)
(0.15716 -3.82622 0)
(0.13607 -4.13504 0)
(0.0683356 -4.41388 0)
(-0.0140041 -4.48296 0)
(6.23817e-07 -3.32288e-07 0)
(6.64738e-06 -7.28549e-06 0)
(2.44798e-05 -8.30867e-06 0)
(5.30573e-05 -1.27092e-05 0)
(8.87891e-05 -1.82019e-05 0)
(0.000135628 -2.456e-05 0)
(0.0001942 -3.18758e-05 0)
(0.000264983 -3.88212e-05 0)
(0.000348102 -4.54294e-05 0)
(0.000441985 -5.33083e-05 0)
(0.000546971 -5.92736e-05 0)
(0.000659057 -6.04079e-05 0)
(0.000773012 -6.12231e-05 0)
(0.000888955 -6.35593e-05 0)
(0.00100921 -6.51394e-05 0)
(0.00113341 -6.49208e-05 0)
(0.00126083 -6.37492e-05 0)
(0.00139248 -6.36365e-05 0)
(0.00153028 -6.47471e-05 0)
(0.00167667 -6.97029e-05 0)
(0.00183516 -7.75295e-05 0)
(0.00201013 -8.86913e-05 0)
(0.00220513 -0.00010202 0)
(0.00242831 -0.000122974 0)
(0.0026825 -0.000144033 0)
(0.00297227 -0.000166684 0)
(0.00329506 -0.000193107 0)
(0.00368385 -0.000222292 0)
(0.00409583 -0.000245497 0)
(0.00455533 -0.000264496 0)
(0.00505652 -0.000284659 0)
(0.00561316 -0.000309059 0)
(0.00622499 -0.000338413 0)
(0.00691015 -0.00037351 0)
(0.00766407 -0.000414239 0)
(0.00849813 -0.000461001 0)
(0.00943378 -0.000515365 0)
(0.0104452 -0.000553493 0)
(0.0115362 -0.000591917 0)
(0.0127441 -0.000651362 0)
(0.0140991 -0.000744256 0)
(0.0156237 -0.000866986 0)
(0.0173371 -0.000994266 0)
(0.0192388 -0.00111883 0)
(0.0213657 -0.00123566 0)
(0.0236846 -0.00135089 0)
(0.0262378 -0.00147604 0)
(0.029071 -0.00163002 0)
(0.032145 -0.00180689 0)
(0.0355336 -0.00199412 0)
(0.0392404 -0.00219019 0)
(0.0433665 -0.00242482 0)
(0.0479352 -0.00270414 0)
(0.05303 -0.00300159 0)
(0.0587034 -0.00333653 0)
(0.0649471 -0.00366562 0)
(0.0719136 -0.00404275 0)
(0.0795341 -0.00448245 0)
(0.0880266 -0.00484409 0)
(0.097418 -0.00554842 0)
(0.10787 -0.00625174 0)
(0.11938 -0.00677818 0)
(0.131803 -0.00716497 0)
(0.145423 -0.00784926 0)
(0.160698 -0.00848493 0)
(0.177048 -0.00946624 0)
(0.196009 -0.0103618 0)
(0.217314 -0.0118309 0)
(0.239046 -0.0161365 0)
(0.265511 -0.0168108 0)
(0.295711 -0.0204924 0)
(0.326724 -0.0163762 0)
(0.359168 -0.0161402 0)
(0.393879 -0.0198569 0)
(0.433545 -0.0247587 0)
(0.478484 -0.0276662 0)
(0.527594 -0.0270818 0)
(0.58161 -0.0308908 0)
(0.640965 -0.0345772 0)
(0.706758 -0.039878 0)
(0.778799 -0.0427446 0)
(0.857106 -0.0453936 0)
(0.94207 -0.0484829 0)
(1.03434 -0.0521289 0)
(1.13456 -0.0562847 0)
(1.24319 -0.0608904 0)
(1.36119 -0.0663648 0)
(1.4905 -0.0730176 0)
(1.63263 -0.0797132 0)
(1.78802 -0.0858718 0)
(1.95608 -0.0921328 0)
(2.14195 -0.0985903 0)
(2.31807 -0.109577 0)
(2.5737 -0.125633 0)
(2.79335 -0.128779 0)
(3.01991 -0.117988 0)
(3.25407 -0.111045 0)
(3.48849 -0.109109 0)
(3.72451 -0.105206 0)
(3.95733 -0.0964792 0)
(4.17605 -0.0820417 0)
(4.36602 -0.0600842 0)
(-2.95691e-06 -6.42617e-06 0)
(8.44854e-06 -1.00736e-05 0)
(3.99165e-06 -5.06551e-05 0)
(5.24514e-05 -5.14204e-05 0)
(8.73822e-05 -6.73394e-05 0)
(0.000133458 -8.56834e-05 0)
(0.000189697 -9.36494e-05 0)
(0.000254221 -0.000117906 0)
(0.000327917 -0.000127037 0)
(0.000413996 -0.000148492 0)
(0.000513759 -0.000163278 0)
(0.000620128 -0.000162272 0)
(0.000726033 -0.000164913 0)
(0.000838135 -0.000173607 0)
(0.000960053 -0.00018265 0)
(0.00108859 -0.00019168 0)
(0.00122151 -0.000200711 0)
(0.00136031 -0.00021153 0)
(0.00150663 -0.000223449 0)
(0.00166239 -0.000240553 0)
(0.00182972 -0.000262664 0)
(0.00201148 -0.000289998 0)
(0.00220644 -0.000321853 0)
(0.00242519 -0.000360947 0)
(0.00267045 -0.000407384 0)
(0.00293986 -0.000464834 0)
(0.00323755 -0.000521624 0)
(0.00357409 -0.000582609 0)
(0.00395313 -0.00064377 0)
(0.00437219 -0.000714281 0)
(0.00483636 -0.00079537 0)
(0.0053557 -0.000885811 0)
(0.00593843 -0.000983732 0)
(0.00659082 -0.00109163 0)
(0.00732073 -0.00121 0)
(0.00813253 -0.00134172 0)
(0.0090523 -0.0014927 0)
(0.0100651 -0.00164741 0)
(0.011158 -0.00182621 0)
(0.0123476 -0.00201625 0)
(0.0136589 -0.00222112 0)
(0.0151234 -0.00246147 0)
(0.0167626 -0.00273209 0)
(0.0185961 -0.00302171 0)
(0.0205967 -0.00333216 0)
(0.0228202 -0.00367083 0)
(0.0252983 -0.00403902 0)
(0.0280714 -0.00447347 0)
(0.0310402 -0.00481823 0)
(0.0344607 -0.00530954 0)
(0.0380517 -0.00589267 0)
(0.0421825 -0.00653917 0)
(0.0465394 -0.00728719 0)
(0.0514987 -0.00810521 0)
(0.0569935 -0.00900063 0)
(0.0628908 -0.00999966 0)
(0.0698032 -0.0110485 0)
(0.0770351 -0.0122387 0)
(0.085241 -0.0134652 0)
(0.0938989 -0.0148479 0)
(0.10446 -0.0163223 0)
(0.115869 -0.0181318 0)
(0.12834 -0.020172 0)
(0.142639 -0.0223975 0)
(0.15634 -0.0250496 0)
(0.17399 -0.0276536 0)
(0.190989 -0.0309809 0)
(0.208806 -0.0343879 0)
(0.231697 -0.0379083 0)
(0.253467 -0.0422788 0)
(0.281145 -0.0446629 0)
(0.306442 -0.0501035 0)
(0.342964 -0.057258 0)
(0.387281 -0.0565851 0)
(0.424741 -0.0644128 0)
(0.469931 -0.0718579 0)
(0.519558 -0.0796266 0)
(0.57361 -0.087737 0)
(0.632471 -0.0962697 0)
(0.696646 -0.10523 0)
(0.766443 -0.114812 0)
(0.84285 -0.125224 0)
(0.926772 -0.136509 0)
(1.01883 -0.14864 0)
(1.1195 -0.161442 0)
(1.22838 -0.175194 0)
(1.34828 -0.19121 0)
(1.48019 -0.211188 0)
(1.62548 -0.231849 0)
(1.78234 -0.25212 0)
(1.95323 -0.270531 0)
(2.13 -0.286668 0)
(2.30916 -0.308277 0)
(2.5185 -0.339926 0)
(2.70388 -0.357008 0)
(2.93519 -0.356228 0)
(3.19132 -0.362767 0)
(3.45871 -0.373538 0)
(3.74178 -0.376529 0)
(4.02876 -0.364994 0)
(4.3074 -0.334381 0)
(4.56251 -0.280678 0)
(-5.19074e-07 -1.51788e-06 0)
(1.16449e-06 -2.79547e-05 0)
(1.42125e-05 -5.22037e-05 0)
(2.72126e-05 -7.47059e-05 0)
(5.6707e-05 -0.000100526 0)
(9.5875e-05 -0.00013023 0)
(0.000150698 -0.000159041 0)
(0.000223438 -0.000188306 0)
(0.000274493 -0.000214338 0)
(0.000390348 -0.000230578 0)
(0.000395258 -0.000270529 0)
(0.000543909 -0.000286618 0)
(0.000680477 -0.000300481 0)
(0.000802656 -0.000312277 0)
(0.000930924 -0.000324083 0)
(0.00106316 -0.000325514 0)
(0.00119731 -0.000337309 0)
(0.00133515 -0.000353011 0)
(0.00147644 -0.000372638 0)
(0.00162911 -0.000396522 0)
(0.00177846 -0.000426822 0)
(0.0019416 -0.000467289 0)
(0.00211795 -0.000504239 0)
(0.00231047 -0.000617071 0)
(0.00252258 -0.000648426 0)
(0.00275817 -0.000733491 0)
(0.00302282 -0.00083247 0)
(0.00332307 -0.0009662 0)
(0.00365353 -0.00104561 0)
(0.0040169 -0.00113156 0)
(0.00442728 -0.00125527 0)
(0.00489424 -0.0014022 0)
(0.00542184 -0.00156643 0)
(0.00601371 -0.0017482 0)
(0.00667581 -0.00195124 0)
(0.00741383 -0.00216596 0)
(0.00823846 -0.00246332 0)
(0.00914776 -0.00252487 0)
(0.0101666 -0.00275364 0)
(0.0112959 -0.00310324 0)
(0.0125131 -0.00350973 0)
(0.013845 -0.00393152 0)
(0.0153386 -0.00438671 0)
(0.0170031 -0.00488872 0)
(0.0188365 -0.00542805 0)
(0.0208585 -0.0060159 0)
(0.0230936 -0.0066549 0)
(0.0255645 -0.00735924 0)
(0.0283063 -0.00810423 0)
(0.0313469 -0.00889405 0)
(0.0346729 -0.00977664 0)
(0.0383104 -0.0107986 0)
(0.0423155 -0.0119637 0)
(0.0467396 -0.0132665 0)
(0.0516314 -0.0146919 0)
(0.05704 -0.016256 0)
(0.0630291 -0.0179735 0)
(0.0696671 -0.0198084 0)
(0.077004 -0.0216175 0)
(0.0851604 -0.0245628 0)
(0.0941495 -0.0282505 0)
(0.104064 -0.0306147 0)
(0.115099 -0.0325461 0)
(0.127301 -0.0353553 0)
(0.140707 -0.0386466 0)
(0.15528 -0.0421634 0)
(0.171837 -0.046046 0)
(0.187902 -0.0496735 0)
(0.209465 -0.0593446 0)
(0.231776 -0.0654957 0)
(0.254419 -0.0727274 0)
(0.278765 -0.0790565 0)
(0.310929 -0.0835003 0)
(0.347345 -0.0945074 0)
(0.382449 -0.106819 0)
(0.419846 -0.118051 0)
(0.462114 -0.129442 0)
(0.509279 -0.141936 0)
(0.56138 -0.155495 0)
(0.618948 -0.170344 0)
(0.682588 -0.186503 0)
(0.75305 -0.204024 0)
(0.830945 -0.223044 0)
(0.917143 -0.243608 0)
(1.01182 -0.26469 0)
(1.11358 -0.287309 0)
(1.22521 -0.313887 0)
(1.34955 -0.345669 0)
(1.47497 -0.376879 0)
(1.62013 -0.410285 0)
(1.76434 -0.440019 0)
(1.92967 -0.464445 0)
(2.10769 -0.500196 0)
(2.34609 -0.540092 0)
(2.48206 -0.576159 0)
(2.81548 -0.613143 0)
(3.09564 -0.648386 0)
(3.38614 -0.676326 0)
(3.69743 -0.688467 0)
(4.02062 -0.678282 0)
(4.34511 -0.637288 0)
(4.66148 -0.557859 0)
(-1.06067e-06 -4.44376e-06 0)
(4.98208e-06 -2.85945e-05 0)
(6.74256e-06 -6.96612e-05 0)
(3.09915e-05 -0.000100292 0)
(5.2303e-05 -0.000141926 0)
(9.2227e-05 -0.000177724 0)
(0.000141349 -0.00021825 0)
(0.000191581 -0.000249461 0)
(0.000268842 -0.000251706 0)
(0.000348578 -0.000338884 0)
(0.000441998 -0.000354323 0)
(0.000538279 -0.000383731 0)
(0.00063236 -0.000412465 0)
(0.000737016 -0.000431516 0)
(0.000850963 -0.000445766 0)
(0.000977304 -0.00046044 0)
(0.00110853 -0.000475783 0)
(0.00124643 -0.000495432 0)
(0.00139078 -0.000514207 0)
(0.00153584 -0.000547115 0)
(0.0016971 -0.000587061 0)
(0.00185524 -0.000638897 0)
(0.00204002 -0.00069888 0)
(0.0022139 -0.000775703 0)
(0.00242375 -0.000866254 0)
(0.00260783 -0.000974366 0)
(0.00289853 -0.0010917 0)
(0.00305032 -0.00122576 0)
(0.00338758 -0.00137661 0)
(0.00377143 -0.00154739 0)
(0.00418279 -0.00172888 0)
(0.00464918 -0.00192961 0)
(0.00516353 -0.00215138 0)
(0.00573533 -0.00239425 0)
(0.00636331 -0.00266598 0)
(0.00705534 -0.00295876 0)
(0.00781067 -0.00329244 0)
(0.00862155 -0.00364244 0)
(0.00965659 -0.00406714 0)
(0.010666 -0.00431955 0)
(0.0117644 -0.00471747 0)
(0.0129984 -0.00540859 0)
(0.0143288 -0.00604914 0)
(0.0158143 -0.00664446 0)
(0.0174395 -0.00730662 0)
(0.0192393 -0.00806469 0)
(0.021253 -0.00890315 0)
(0.0234972 -0.00987626 0)
(0.026058 -0.0109303 0)
(0.0288117 -0.0119252 0)
(0.0317403 -0.0130157 0)
(0.03496 -0.0143261 0)
(0.0385703 -0.0158559 0)
(0.0425982 -0.0175845 0)
(0.0470583 -0.0195077 0)
(0.0519852 -0.021628 0)
(0.0574535 -0.0240012 0)
(0.0635094 -0.0265738 0)
(0.070254 -0.0293496 0)
(0.0777797 -0.0324417 0)
(0.085798 -0.0358853 0)
(0.0942985 -0.0396718 0)
(0.103855 -0.0438688 0)
(0.114671 -0.0484566 0)
(0.126588 -0.0534409 0)
(0.139745 -0.0589833 0)
(0.154513 -0.0650813 0)
(0.17126 -0.0719063 0)
(0.189669 -0.0794094 0)
(0.209374 -0.0874078 0)
(0.2312 -0.0957714 0)
(0.257247 -0.104519 0)
(0.281191 -0.112387 0)
(0.305648 -0.125854 0)
(0.338653 -0.140819 0)
(0.374938 -0.155517 0)
(0.41279 -0.171456 0)
(0.453645 -0.18902 0)
(0.498928 -0.207964 0)
(0.548953 -0.228631 0)
(0.604416 -0.251171 0)
(0.666058 -0.275788 0)
(0.734897 -0.302761 0)
(0.812394 -0.332201 0)
(0.895836 -0.361015 0)
(0.990071 -0.391498 0)
(1.09271 -0.42895 0)
(1.21318 -0.469015 0)
(1.31168 -0.509309 0)
(1.47246 -0.55066 0)
(1.5606 -0.597645 0)
(1.81467 -0.651927 0)
(2.00973 -0.712598 0)
(2.22014 -0.768674 0)
(2.46201 -0.828796 0)
(2.72191 -0.898585 0)
(2.99977 -0.957832 0)
(3.30615 -0.999907 0)
(3.64171 -1.02448 0)
(4.00074 -1.02469 0)
(4.37511 -0.983637 0)
(4.75182 -0.889073 0)
(-1.26438e-06 -4.33595e-06 0)
(3.39498e-06 -3.7101e-05 0)
(9.70336e-06 -8.0741e-05 0)
(2.77004e-05 -0.000123336 0)
(5.49388e-05 -0.000168715 0)
(8.72676e-05 -0.000219116 0)
(0.000136147 -0.00026658 0)
(0.000185692 -0.000317443 0)
(0.000256915 -0.000361827 0)
(0.000339313 -0.000403356 0)
(0.00042105 -0.000444427 0)
(0.000508905 -0.000484621 0)
(0.000604456 -0.000518687 0)
(0.000708627 -0.000545474 0)
(0.000817441 -0.000569257 0)
(0.000933166 -0.000591928 0)
(0.00105562 -0.000615167 0)
(0.00118365 -0.000641682 0)
(0.00131781 -0.000671937 0)
(0.00145906 -0.000709001 0)
(0.00160803 -0.000754977 0)
(0.00176461 -0.00081294 0)
(0.00193132 -0.000885777 0)
(0.00210834 -0.000978215 0)
(0.00230098 -0.00108047 0)
(0.00250022 -0.00120165 0)
(0.00273344 -0.00133727 0)
(0.00299725 -0.00149681 0)
(0.00327628 -0.00169176 0)
(0.00359588 -0.00190956 0)
(0.00389369 -0.00214004 0)
(0.00436896 -0.00239371 0)
(0.0047282 -0.00266345 0)
(0.00531931 -0.00296934 0)
(0.00581641 -0.00329375 0)
(0.00647047 -0.00365414 0)
(0.00719473 -0.00405465 0)
(0.00787208 -0.00445942 0)
(0.00888131 -0.00494947 0)
(0.00963153 -0.00540966 0)
(0.0109561 -0.0060184 0)
(0.0119759 -0.00658732 0)
(0.0134061 -0.00731501 0)
(0.0147262 -0.00805864 0)
(0.0161626 -0.00890869 0)
(0.0181012 -0.00993767 0)
(0.0195306 -0.0108922 0)
(0.0220796 -0.012112 0)
(0.0231604 -0.0133948 0)
(0.0259972 -0.0147976 0)
(0.0292354 -0.016359 0)
(0.0325867 -0.0180921 0)
(0.0362689 -0.0199987 0)
(0.0403106 -0.0221053 0)
(0.0446954 -0.0244263 0)
(0.049417 -0.0269937 0)
(0.0546018 -0.0298185 0)
(0.0603247 -0.0329188 0)
(0.0665112 -0.0363476 0)
(0.0732448 -0.0402279 0)
(0.0805764 -0.0446261 0)
(0.0886271 -0.0492757 0)
(0.0976037 -0.054148 0)
(0.107604 -0.0594905 0)
(0.118412 -0.065382 0)
(0.131537 -0.071897 0)
(0.144601 -0.0791917 0)
(0.1593 -0.0873694 0)
(0.175384 -0.0967574 0)
(0.192888 -0.107147 0)
(0.212375 -0.118537 0)
(0.234183 -0.131195 0)
(0.257099 -0.148045 0)
(0.283449 -0.162076 0)
(0.312562 -0.175208 0)
(0.343297 -0.190673 0)
(0.377337 -0.209165 0)
(0.413205 -0.230044 0)
(0.455824 -0.253344 0)
(0.502451 -0.278981 0)
(0.554054 -0.307154 0)
(0.610805 -0.338604 0)
(0.674758 -0.373452 0)
(0.743564 -0.410262 0)
(0.809359 -0.44939 0)
(0.913432 -0.492474 0)
(1.00845 -0.539059 0)
(1.1134 -0.586579 0)
(1.23599 -0.639272 0)
(1.37743 -0.698023 0)
(1.53539 -0.768195 0)
(1.70397 -0.850567 0)
(1.88726 -0.929524 0)
(2.09548 -1.0061 0)
(2.33167 -1.08837 0)
(2.59494 -1.17594 0)
(2.88662 -1.25991 0)
(3.21348 -1.33597 0)
(3.57793 -1.39547 0)
(3.98541 -1.43043 0)
(4.42614 -1.40654 0)
(4.88957 -1.31216 0)
(-1.19804e-06 -4.51746e-06 0)
(3.1178e-06 -4.36274e-05 0)
(1.02369e-05 -9.25224e-05 0)
(2.68818e-05 -0.00014331 0)
(5.06743e-05 -0.0001998 0)
(8.31055e-05 -0.000258709 0)
(0.000126533 -0.000317231 0)
(0.000176959 -0.000375951 0)
(0.000243147 -0.000428777 0)
(0.000313909 -0.000483512 0)
(0.000392263 -0.00053297 0)
(0.000478121 -0.000575983 0)
(0.000570459 -0.000613851 0)
(0.000669866 -0.000646731 0)
(0.000773158 -0.000676171 0)
(0.000882311 -0.000703841 0)
(0.000997068 -0.000732121 0)
(0.00111678 -0.00076353 0)
(0.00124176 -0.000799938 0)
(0.00137278 -0.000844446 0)
(0.00151047 -0.00089965 0)
(0.00165579 -0.00096827 0)
(0.00181019 -0.00105226 0)
(0.00197507 -0.00115448 0)
(0.00215328 -0.00127415 0)
(0.00234877 -0.00141499 0)
(0.00256386 -0.00158032 0)
(0.00280281 -0.00177295 0)
(0.00306656 -0.0019937 0)
(0.00336716 -0.00223496 0)
(0.00367635 -0.00250478 0)
(0.00406276 -0.00280242 0)
(0.00444786 -0.00312712 0)
(0.00494401 -0.00348957 0)
(0.00542891 -0.00387771 0)
(0.00603853 -0.00431239 0)
(0.00666517 -0.00477566 0)
(0.00739004 -0.00528495 0)
(0.00820279 -0.00583717 0)
(0.00907157 -0.00642674 0)
(0.0101141 -0.00709716 0)
(0.011177 -0.0078449 0)
(0.0124184 -0.00870467 0)
(0.0137083 -0.0096105 0)
(0.0151889 -0.010614 0)
(0.0167781 -0.0116842 0)
(0.0185293 -0.0128674 0)
(0.020514 -0.0141294 0)
(0.02272 -0.0155441 0)
(0.0251091 -0.0172993 0)
(0.0276277 -0.0192782 0)
(0.0303071 -0.0213552 0)
(0.0333736 -0.0236061 0)
(0.0368259 -0.0260645 0)
(0.0405271 -0.0287612 0)
(0.0448234 -0.0315973 0)
(0.049131 -0.0354649 0)
(0.0544892 -0.0386951 0)
(0.0600046 -0.0425428 0)
(0.066258 -0.0470224 0)
(0.0730465 -0.0519362 0)
(0.0803923 -0.0572115 0)
(0.0887829 -0.0631177 0)
(0.0976477 -0.0693409 0)
(0.107948 -0.076714 0)
(0.11894 -0.0846391 0)
(0.131111 -0.0932915 0)
(0.144714 -0.102934 0)
(0.159664 -0.113748 0)
(0.176108 -0.125692 0)
(0.193849 -0.138809 0)
(0.213236 -0.153176 0)
(0.236206 -0.169007 0)
(0.251168 -0.185443 0)
(0.279103 -0.203863 0)
(0.312325 -0.224739 0)
(0.348295 -0.24746 0)
(0.387834 -0.27226 0)
(0.43232 -0.2995 0)
(0.477958 -0.329246 0)
(0.530558 -0.361686 0)
(0.584568 -0.397309 0)
(0.639663 -0.435992 0)
(0.701012 -0.477717 0)
(0.776176 -0.526483 0)
(0.855973 -0.581348 0)
(0.945128 -0.637322 0)
(1.04775 -0.69727 0)
(1.16366 -0.766746 0)
(1.29238 -0.845642 0)
(1.43576 -0.933038 0)
(1.59603 -1.02689 0)
(1.77567 -1.12403 0)
(1.97904 -1.22694 0)
(2.21106 -1.3388 0)
(2.47531 -1.4587 0)
(2.77544 -1.58217 0)
(3.11962 -1.7024 0)
(3.51044 -1.80694 0)
(3.97418 -1.89532 0)
(4.48197 -1.90812 0)
(5.07566 -1.87031 0)
(-1.14261e-06 -4.54749e-06 0)
(2.94965e-06 -5.06143e-05 0)
(1.10228e-05 -0.00010319 0)
(2.47424e-05 -0.00016348 0)
(4.74153e-05 -0.000227326 0)
(7.65924e-05 -0.000295429 0)
(0.000116693 -0.000363389 0)
(0.000163698 -0.000432033 0)
(0.000222418 -0.00049712 0)
(0.000288827 -0.000558979 0)
(0.000362122 -0.000615445 0)
(0.000444634 -0.000664901 0)
(0.000530442 -0.000709544 0)
(0.000621362 -0.000749121 0)
(0.000717605 -0.000784291 0)
(0.000819019 -0.000817205 0)
(0.000925154 -0.0008507 0)
(0.0010358 -0.000886775 0)
(0.00115115 -0.000928692 0)
(0.00127184 -0.000978678 0)
(0.00139858 -0.00104061 0)
(0.00153222 -0.00111651 0)
(0.00167416 -0.00121014 0)
(0.00182623 -0.0013231 0)
(0.00199059 -0.00145825 0)
(0.00217035 -0.00161725 0)
(0.00236801 -0.00180375 0)