/*--------------------------------*- C++ -*----------------------------------*\
| =========                 |                                                 |
| \\      /  F ield         | OpenFOAM: The Open Source CFD Toolbox           |
|  \\    /   O peration     | Version:  2206                                  |
|   \\  /    A nd           | Website:  www.openfoam.com                      |
|    \\/     M anipulation  |                                                 |
\*---------------------------------------------------------------------------*/
FoamFile
{
    version     2.0;
    format      ascii;
    arch        "LSB;label=32;scalar=64";
    class       volVectorField;
    location    "19.5";
    object      ddtCorrDdt0(U);
}
// * * * * * * * * * * * * * * * * * * * * * * * * * * * * * * * * * * * * * //

dimensions      [0 1 -2 0 0 0 0];

internalField   nonuniform List<vector> 
3050
(
(3.47232 -11.3374 0)
(19.6974 -10.9051 0)
(36.1654 -7.54958 0)
(48.8235 -4.27681 0)
(55.132 -1.01756 0)
(53.8354 3.07224 0)
(45.0385 6.98767 0)
(28.1479 11.2652 0)
(9.49779 10.0615 0)
(-9.36726 7.66501 0)
(-22.1472 3.98712 0)
(-31.0883 0.686531 0)
(-34.406 -1.56216 0)
(-32.8469 -2.89302 0)
(-28.6256 -3.92027 0)
(-19.7439 -4.05558 0)
(-12.007 -3.69779 0)
(-2.07665 -3.43024 0)
(8.06629 -2.94065 0)
(16.8095 -2.22171 0)
(24.281 -1.44196 0)
(29.8337 -0.665551 0)
(33.1212 0.135219 0)
(34.3627 0.931305 0)
(33.328 1.60782 0)
(30.6135 2.06736 0)
(26.7606 2.29214 0)
(22.1694 2.31934 0)
(17.1979 2.24549 0)
(11.9719 2.21992 0)
(6.90856 2.58379 0)
(-0.864559 4.62278 0)
(-5.64317 5.66058 0)
(0.460188 -23.9708 0)
(16.0085 -21.8698 0)
(28.7031 -15.9926 0)
(36.2929 -9.62342 0)
(40.8403 -1.73029 0)
(39.2546 7.14671 0)
(32.1676 18.0381 0)
(22.9248 27.9475 0)
(6.3389 29.8966 0)
(-5.28046 24.3185 0)
(-15.6543 14.9523 0)
(-22.0928 5.21554 0)
(-25.305 -1.91392 0)
(-25.1788 -6.63711 0)
(-22.9198 -10.6088 0)
(-18.7825 -13.8444 0)
(-12.8535 -15.5191 0)
(-5.76816 -15.9647 0)
(1.47132 -15.183 0)
(8.41339 -13.217 0)
(14.6214 -10.3847 0)
(19.6344 -7.01679 0)
(23.1753 -3.44456 0)
(25.4883 0.0159214 0)
(26.6837 3.02187 0)
(26.4492 5.34349 0)
(25.1567 6.86821 0)
(23.1575 7.66817 0)
(20.7092 7.94721 0)
(18.032 8.01721 0)
(15.4377 8.4098 0)
(13.411 10.1053 0)
(13.9803 13.7027 0)
(11.8874 -30.706 0)
(10.5366 -34.789 0)
(10.1549 -31.8243 0)
(9.73288 -19.7084 0)
(13.3347 -10.4142 0)
(13.4422 -3.19108 0)
(11.2629 20.6394 0)
(10.8077 37.1271 0)
(8.0092 43.3885 0)
(4.16252 38.6926 0)
(0.452856 28.4419 0)
(-2.73078 14.6398 0)
(-4.9555 2.80876 0)
(-6.23398 -4.89556 0)
(-7.20955 -10.5909 0)
(-7.10945 -14.7985 0)
(-6.18615 -17.5407 0)
(-4.75803 -18.7764 0)
(-3.08134 -18.496 0)
(-1.34032 -16.9296 0)
(0.466924 -14.3608 0)
(2.30752 -11.0307 0)
(4.25142 -7.30806 0)
(6.04596 -3.61937 0)
(7.67531 -0.143008 0)
(9.25696 2.85892 0)
(10.59 5.16197 0)
(11.6338 6.69888 0)
(12.3893 7.58474 0)
(12.9348 8.03467 0)
(13.6902 8.31584 0)
(15.326 8.90178 0)
(18.5428 9.9587 0)
(31.7879 -25.8092 0)
(31.057 -22.6591 0)
(27.1438 -20.2503 0)
(22.1873 -14.79 0)
(17.6885 -7.02727 0)
(11.2154 6.02466 0)
(4.372 19.2789 0)
(0.958892 32.23 0)
(3.68189 38.2298 0)
(8.36335 34.9347 0)
(13.2005 25.3512 0)
(13.1657 11.5421 0)
(12.0583 3.64785 0)
(10.793 -1.55886 0)
(8.95233 -7.61322 0)
(7.03652 -13.3564 0)
(5.13453 -16.683 0)
(3.01554 -18.3314 0)
(1.38536 -18.1025 0)
(-0.072057 -16.6062 0)
(-1.25435 -14.1871 0)
(-1.98324 -11.1198 0)
(-2.01955 -7.66891 0)
(-1.67643 -4.16239 0)
(-0.805562 -0.878837 0)
(0.512735 1.89764 0)
(2.1124 4.02181 0)
(3.9124 5.45137 0)
(5.76963 6.28425 0)
(7.66464 6.50921 0)
(10.0908 6.19738 0)
(13.0426 5.77916 0)
(16.5359 5.36803 0)
(5.35843 -28.541 0)
(0.0538443 -31.4402 0)
(-0.363375 -23.8923 0)
(-1.79654 -12.117 0)
(-4.76246 -3.05934 0)
(-6.68155 8.7252 0)
(-6.16555 21.3795 0)
(-2.59775 33.5094 0)
(6.32403 34.6577 0)
(14.8833 30.7321 0)
(20.1202 24.7196 0)
(22.375 14.3259 0)
(21.0579 3.79578 0)
(19.4633 0.377535 0)
(17.6539 -6.84836 0)
(15.1004 -11.158 0)
(11.9676 -13.7888 0)
(8.6165 -15.1278 0)
(5.34109 -15.2552 0)
(2.5909 -14.0844 0)
(0.35326 -12.1926 0)
(-1.43254 -9.83581 0)
(-2.37498 -7.15124 0)
(-2.62528 -4.37376 0)
(-2.14256 -1.83962 0)
(-0.934552 0.299541 0)
(0.655662 2.02549 0)
(2.58079 3.28236 0)
(4.52991 4.12255 0)
(6.865 4.18125 0)
(9.35986 3.3764 0)
(11.8057 2.65415 0)
(13.8885 1.95599 0)
(1.48154 -21.5296 0)
(-3.45849 -18.9453 0)
(-9.3739 -14.2115 0)
(-13.7663 -8.24477 0)
(-16.1453 -0.764042 0)
(-15.8463 8.35516 0)
(-12.2332 17.3657 0)
(-4.93267 23.1463 0)
(3.37538 23.4691 0)
(10.7551 21.9897 0)
(15.7463 17.6671 0)
(18.8051 11.5019 0)
(18.9356 5.14976 0)
(18.2842 -0.0985774 0)
(17.1488 -4.48901 0)
(14.8958 -7.9845 0)
(12.0165 -10.4454 0)
(8.97208 -11.6849 0)
(6.03189 -12.0577 0)
(3.30791 -11.5035 0)
(1.24537 -10.0437 0)
(-0.577942 -8.36517 0)
(-1.62957 -6.43253 0)
(-1.69339 -4.40251 0)
(-1.3659 -2.47388 0)
(-0.727295 -0.802959 0)
(0.588009 0.465419 0)
(2.58804 1.36473 0)
(4.09811 1.80937 0)
(7.82101 1.7428 0)
(9.00747 1.42693 0)
(10.1625 0.760457 0)
(13.782 -0.736508 0)
(-1.37786 -16.5787 0)
(-7.30813 -15.3169 0)
(-12.0249 -12.3504 0)
(-12.8204 -7.14702 0)
(-15.0479 -0.978341 0)
(-13.6253 5.65145 0)
(-8.44719 11.7527 0)
(-4.41455 15.9594 0)
(-0.158005 17.8048 0)
(6.41945 17.7961 0)
(11.5666 14.8542 0)
(14.3116 10.1818 0)
(15.7769 5.22211 0)
(15.7676 1.02184 0)
(14.9155 -2.70462 0)
(13.258 -5.73744 0)
(10.944 -7.93636 0)
(8.56718 -9.13301 0)
(6.22717 -9.53042 0)
(3.94823 -9.33415 0)
(2.06751 -8.24096 0)
(1.14428 -7.10939 0)
(-0.250022 -5.76937 0)
(-0.604844 -4.36543 0)
(-0.473921 -2.92571 0)
(0.16247 -1.68934 0)
(0.862678 -0.791061 0)
(1.92732 -0.248806 0)
(3.45298 -0.215823 0)
(4.8693 -0.348542 0)
(6.60875 -0.489153 0)
(8.57938 -1.36984 0)
(10.3664 -3.04745 0)
(-1.19377 -12.3626 0)
(-3.51567 -11.0587 0)
(-7.41128 -8.42575 0)
(-9.67901 -4.67888 0)
(-10.2231 -0.175247 0)
(-12.2565 3.99638 0)
(-6.5527 7.79073 0)
(-4.32224 11.5038 0)
(-0.745373 13.6956 0)
(5.38691 13.061 0)
(8.80632 10.3166 0)
(11.4176 7.23119 0)
(12.9123 3.916 0)
(13.1841 0.786241 0)
(12.6373 -1.99695 0)
(11.4276 -4.25084 0)
(9.81214 -5.93212 0)
(7.948 -7.05526 0)
(6.02258 -7.43372 0)
(4.32627 -7.48787 0)
(2.6733 -6.95773 0)
(1.8339 -5.95805 0)
(0.884322 -5.15422 0)
(0.473142 -4.16031 0)
(0.532538 -3.15181 0)
(0.919056 -2.23162 0)
(1.59752 -1.52917 0)
(2.46323 -1.21391 0)
(3.38508 -1.2748 0)
(4.35684 -1.5275 0)
(5.47022 -2.01687 0)
(6.72244 -2.99352 0)
(7.96076 -4.50988 0)
(0.254268 -9.59508 0)
(-2.31751 -8.28067 0)
(-4.80741 -6.30674 0)
(-6.45081 -3.66012 0)
(-6.9989 -0.304388 0)
(-6.43432 2.7311 0)
(-5.12489 5.40161 0)
(-2.82132 8.13819 0)
(0.495081 9.42278 0)
(4.05635 9.04846 0)
(6.92274 7.68563 0)
(8.91832 5.73804 0)
(10.0902 3.41733 0)
(10.4702 1.06026 0)
(10.2191 -1.1096 0)
(9.41736 -2.93719 0)
(8.32743 -4.38589 0)
(7.04 -5.43915 0)
(5.56643 -5.8483 0)
(4.35 -6.03775 0)
(3.11392 -5.9519 0)
(2.16814 -5.02719 0)
(1.89146 -4.55993 0)
(1.37336 -3.98164 0)
(1.29893 -3.3049 0)
(1.51759 -2.69201 0)
(1.94101 -2.24694 0)
(2.55054 -2.03821 0)
(3.26184 -2.08296 0)
(4.00816 -2.38105 0)
(4.80155 -2.97475 0)
(5.63868 -3.95017 0)
(6.4229 -5.36283 0)
(1.0919 -7.20862 0)
(-1.04635 -6.27765 0)
(-2.80746 -4.69227 0)
(-3.91541 -2.61218 0)
(-4.35796 -0.255271 0)
(-4.03735 2.01709 0)
(-3.01822 4.04103 0)
(-1.37665 5.72231 0)
(0.83639 6.60825 0)
(3.36917 6.65006 0)
(5.45479 5.725 0)
(6.97748 4.29331 0)
(7.97175 2.59076 0)
(8.42688 0.814144 0)
(8.39581 -0.862089 0)
(7.92625 -2.30692 0)
(7.23849 -3.4955 0)
(6.33869 -4.36606 0)
(5.23544 -4.75422 0)
(4.39318 -5.00265 0)
(3.50892 -4.96316 0)
(2.60779 -4.58952 0)
(2.32795 -4.27288 0)
(2.01804 -3.75267 0)
(1.84309 -3.26434 0)
(1.91606 -2.87779 0)
(2.16788 -2.61307 0)
(2.5426 -2.52742 0)
(2.99889 -2.6685 0)
(3.49868 -3.04669 0)
(4.02332 -3.67598 0)
(4.53545 -4.60401 0)
(4.95431 -5.87285 0)
(1.64013 -5.42824 0)
(0.0485273 -4.67324 0)
(-1.22185 -3.46014 0)
(-2.05519 -1.95702 0)
(-2.4037 -0.287557 0)
(-2.19351 1.3821 0)
(-1.45097 2.86057 0)
(-0.262189 4.01739 0)
(1.27127 4.68183 0)
(3.00378 4.77 0)
(4.50984 4.14599 0)
(5.71157 3.15185 0)
(6.52999 1.92574 0)
(6.96875 0.60711 0)
(7.02737 -0.677219 0)
(6.77325 -1.82531 0)
(6.34099 -2.8003 0)
(5.63981 -3.49689 0)
(4.91833 -3.93477 0)
(4.30696 -4.22348 0)
(3.53698 -4.20582 0)
(2.97227 -4.05468 0)
(2.60832 -3.82053 0)
(2.28263 -3.53064 0)
(2.12712 -3.22871 0)
(2.13158 -2.98892 0)
(2.24848 -2.85274 0)
(2.45475 -2.85849 0)
(2.72197 -3.04346 0)
(3.01313 -3.4298 0)
(3.29474 -4.03926 0)
(3.52863 -4.90138 0)
(3.65852 -6.03402 0)
(2.04798 -4.10435 0)
(0.870675 -3.50626 0)
(-0.065853 -2.60071 0)
(-0.688778 -1.47873 0)
(-0.957565 -0.235725 0)
(-0.833287 1.00107 0)
(-0.326041 2.08854 0)
(0.500209 2.90719 0)
(1.55277 3.36764 0)
(2.7498 3.44448 0)
(3.84937 3.02821 0)
(4.76412 2.30255 0)
(5.41671 1.37668 0)
(5.80038 0.362848 0)
(5.92205 -0.644025 0)
(5.81168 -1.57017 0)
(5.51869 -2.35429 0)
(5.07486 -2.95408 0)
(4.59049 -3.37793 0)
(4.0871 -3.62222 0)
(3.53434 -3.68222 0)
(3.11336 -3.63138 0)
(2.7864 -3.50637 0)
(2.50792 -3.32698 0)
(2.33983 -3.13476 0)
(2.27615 -2.99236 0)
(2.28806 -2.93877 0)
(2.35356 -3.00536 0)
(2.44988 -3.22261 0)
(2.54771 -3.61251 0)
(2.61641 -4.19155 0)
(2.62078 -4.97251 0)
(2.51519 -5.95714 0)
(2.39078 -3.09755 0)
(1.51163 -2.62078 0)
(0.809929 -1.9256 0)
(0.324042 -1.07885 0)
(0.0891551 -0.159566 0)
(0.13567 0.743327 0)
(0.461436 1.53126 0)
(1.0183 2.10792 0)
(1.74659 2.44497 0)
(2.5663 2.48604 0)
(3.35333 2.17621 0)
(4.03601 1.62095 0)
(4.54939 0.903053 0)
(4.88354 0.110199 0)
(5.03531 -0.687119 0)
(5.01162 -1.42939 0)
(4.85302 -2.07111 0)
(4.58253 -2.58103 0)
(4.24705 -2.95113 0)
(3.88479 -3.17961 0)
(3.50239 -3.27884 0)
(3.18336 -3.287 0)
(2.89069 -3.22707 0)
(2.64168 -3.11801 0)
(2.45448 -3.00459 0)
(2.32632 -2.93186 0)
(2.24253 -2.93028 0)
(2.18388 -3.02548 0)
(2.12839 -3.24345 0)
(2.05132 -3.60583 0)
(1.92694 -4.12804 0)
(1.72892 -4.81905 0)
(1.4289 -5.67924 0)
(2.68015 -2.33328 0)
(2.01696 -1.94996 0)
(1.47413 -1.40982 0)
(1.07792 -0.765255 0)
(0.861876 -0.0740693 0)
(0.848839 0.600236 0)
(1.03509 1.18044 0)
(1.38432 1.59634 0)
(1.87053 1.84946 0)
(2.40483 1.82658 0)
(2.95912 1.5743 0)
(3.45758 1.12263 0)
(3.85483 0.536157 0)
(4.14089 -0.113827 0)
(4.30837 -0.767956 0)
(4.36167 -1.38123 0)
(4.31254 -1.92161 0)
(4.16882 -2.3547 0)
(3.97662 -2.67258 0)
(3.72475 -2.87827 0)
(3.45005 -2.97316 0)
(3.18274 -2.9982 0)
(2.9223 -2.96662 0)
(2.67965 -2.89147 0)
(2.45608 -2.81663 0)
(2.25452 -2.7757 0)
(2.06689 -2.79168 0)
(1.87713 -2.88641 0)
(1.66519 -3.08386 0)
(1.41079 -3.40356 0)
(1.094 -3.86196 0)
(0.697955 -4.46734 0)
(0.210685 -5.2112 0)
(2.92762 -1.74974 0)
(2.42225 -1.42462 0)
(1.99101 -0.986078 0)
(1.65742 -0.47792 0)
(1.45035 0.0521743 0)
(1.38634 0.558077 0)
(1.45912 0.981364 0)
(1.64858 1.278 0)
(1.94058 1.43441 0)
(2.287 1.3807 0)
(2.66697 1.13879 0)
(3.03173 0.734344 0)
(3.35613 0.223475 0)
(3.6144 -0.340971 0)
(3.81274 -0.90023 0)
(3.93844 -1.42396 0)
(3.96497 -1.87842 0)
(3.90399 -2.24074 0)
(3.81422 -2.50358 0)
(3.59011 -2.66733 0)
(3.41214 -2.74649 0)
(3.15558 -2.75916 0)
(2.82229 -2.72091 0)
(2.57177 -2.65726 0)
(2.30014 -2.59167 0)
(2.01905 -2.54892 0)
(1.70834 -2.55009 0)
(1.38078 -2.61672 0)
(1.00722 -2.76992 0)
(0.571894 -3.02867 0)
(0.0593581 -3.4118 0)
(-0.542903 -3.92967 0)
(-1.24041 -4.57375 0)
(3.10202 -1.29932 0)
(2.70149 -1.01768 0)
(2.35659 -0.65436 0)
(2.08859 -0.239311 0)
(1.89469 0.190475 0)
(1.76702 0.59169 0)
(1.73561 0.913255 0)
(1.80462 1.12208 0)
(1.96376 1.19601 0)
(2.18742 1.08744 0)
(2.45864 0.831253 0)
(2.7457 0.443549 0)
(3.02568 -0.0365198 0)
(3.2762 -0.555776 0)
(3.47836 -1.06443 0)
(3.61245 -1.51943 0)
(3.66195 -1.89287 0)
(3.63195 -2.18024 0)
(3.52781 -2.37305 0)
(3.34231 -2.47545 0)
(3.11329 -2.50692 0)
(2.82763 -2.47476 0)
(2.51206 -2.40825 0)
(2.16862 -2.33368 0)
(1.79637 -2.2579 0)
(1.40572 -2.197 0)
(0.982285 -2.16984 0)
(0.525115 -2.19206 0)
(-0.00310192 -2.28067 0)
(-0.618519 -2.4586 0)
(-1.34269 -2.74751 0)
(-2.1833 -3.1617 0)
(-3.13505 -3.7019 0)
(3.17795 -0.928751 0)
(2.85611 -0.678305 0)
(2.56188 -0.366623 0)
(2.3099 -0.013539 0)
(2.11529 0.35026 0)
(1.99132 0.679042 0)
(1.93205 0.926626 0)
(1.92652 1.05798 0)
(1.98616 1.05507 0)
(2.11122 0.9022 0)
(2.28483 0.601932 0)
(2.49564 0.184726 0)
(2.7344 -0.29754 0)
(2.97917 -0.78818 0)
(3.19405 -1.23653 0)
(3.34143 -1.61124 0)
(3.39645 -1.90103 0)
(3.35021 -2.10453 0)
(3.20097 -2.21961 0)
(2.95491 -2.25477 0)
(2.62576 -2.2264 0)
(2.22301 -2.14813 0)
(1.76622 -2.0424 0)
(1.26863 -1.93057 0)
(0.740824 -1.82318 0)
(0.192471 -1.72892 0)
(-0.379614 -1.65465 0)
(-0.993219 -1.60482 0)
(-1.67804 -1.59529 0)
(-2.46517 -1.65647 0)
(-3.37756 -1.82287 0)
(-4.42564 -2.11718 0)
(-5.60882 -2.54442 0)
(3.03631 -0.635785 0)
(2.75279 -0.397917 0)
(2.49738 -0.108176 0)
(2.28317 0.210893 0)
(2.12109 0.527336 0)
(2.01736 0.796897 0)
(1.97363 1.01537 0)
(1.98477 1.0874 0)
(2.05073 1.00828 0)
(2.16862 0.796495 0)
(2.33563 0.437638 0)
(2.54371 -0.0331097 0)
(2.78104 -0.545895 0)
(3.01087 -1.02431 0)
(3.16944 -1.41464 0)
(3.21392 -1.70101 0)
(3.10523 -1.88485 0)
(2.8407 -1.9735 0)
(2.43248 -1.97859 0)
(1.90095 -1.91677 0)
(1.27329 -1.80757 0)
(0.579984 -1.67013 0)
(-0.147511 -1.52307 0)
(-0.879528 -1.38234 0)
(-1.59395 -1.25681 0)
(-2.26281 -1.14136 0)
(-2.93789 -1.02079 0)
(-3.57597 -0.895951 0)
(-4.20897 -0.773745 0)
(-4.88862 -0.688781 0)
(-5.66389 -0.700825 0)
(-6.58177 -0.853899 0)
(-7.68338 -1.14957 0)
(2.41797 -0.38998 0)
(2.17692 -0.196029 0)
(2.00865 0.0365825 0)
(1.92755 0.290124 0)
(1.94092 0.541317 0)
(2.04415 0.761342 0)
(2.22798 0.918102 0)
(2.47395 0.981112 0)
(2.74823 0.922736 0)
(3.01426 0.720589 0)
(3.2623 0.377166 0)
(3.43686 -0.104041 0)
(3.68754 -0.64702 0)
(3.77235 -1.1157 0)
(3.59779 -1.4229 0)
(3.11555 -1.56904 0)
(2.35889 -1.57114 0)
(1.40406 -1.45493 0)
(0.329627 -1.25545 0)
(-0.791543 -1.01216 0)
(-1.89329 -0.759282 0)
(-2.92014 -0.528057 0)
(-3.83012 -0.34536 0)
(-4.59766 -0.233591 0)
(-5.21167 -0.20908 0)
(-5.66345 -0.269572 0)
(-5.84196 -0.411928 0)
(-5.82185 -0.583453 0)
(-5.71879 -0.681066 0)
(-5.64836 -0.679934 0)
(-5.74844 -0.5516 0)
(-6.22861 -0.352925 0)
(-6.87159 -0.232691 0)
(1.22249 -0.0388493 0)
(1.06673 0.0877643 0)
(1.08562 0.227075 0)
(1.30039 0.364614 0)
(1.71498 0.482458 0)
(2.31074 0.559245 0)
(3.04484 0.574085 0)
(3.84116 0.499339 0)
(4.59857 0.322577 0)
(5.19987 0.0476285 0)
(5.47329 -0.296735 0)
(5.52469 -0.718837 0)
(4.57432 -1.02317 0)
(3.62244 -1.01572 0)
(2.62003 -0.718022 0)
(1.57009 -0.382186 0)
(0.627556 -0.115696 0)
(-0.137098 0.0570806 0)
(-0.734775 0.132782 0)
(-1.18361 0.122451 0)
(-1.50644 0.0406597 0)
(-1.74179 -0.0931311 0)
(-1.93481 -0.250996 0)
(-2.13329 -0.417218 0)
(-2.3946 -0.583926 0)
(-2.77213 -0.716271 0)
(-3.27099 -0.764032 0)
(-4.00134 -0.665558 0)
(-4.62152 -0.399611 0)
(-5.11761 -0.0523405 0)
(-5.39836 0.229995 0)
(-5.46837 0.315544 0)
(-5.41743 0.194019 0)
(-12.5833 29.2031 0)
(18.1739 41.1068 0)
(60.9646 30.6465 0)
(88.525 9.70391 0)
(103.637 -12.9608 0)
(114.825 -33.7759 0)
(120.343 -57.1468 0)
(119.847 -81.0167 0)
(113.074 -105.399 0)
(112.821 -123.003 0)
(142.866 -117.724 0)
(195.534 -94.3871 0)
(198.54 -94.3382 0)
(121.638 -147.585 0)
(21.4103 -212.153 0)
(-41.8963 -229.113 0)
(-76.9739 -213.197 0)
(-92.6503 -182.201 0)
(-107.537 -144.952 0)
(-129.529 -97.8318 0)
(-164.921 -33.1562 0)
(-207.069 56.6368 0)
(-253.378 169.223 0)
(-293.925 293.963 0)
(-314.578 399.764 0)
(-289.319 438.772 0)
(-226.658 410.009 0)
(-152.382 347.913 0)
(-82.1168 273.167 0)
(-23.3738 199.465 0)
(22.2148 135.394 0)
(59.3288 82.536 0)
(85.5353 36.8808 0)
(98.3247 6.11349 0)
(103.175 -11.5197 0)
(101.785 -21.0097 0)
(99.0681 -25.6576 0)
(96.5779 -27.5192 0)
(94.8877 -28.1543 0)
(93.8751 -28.7395 0)
(93.5973 -29.437 0)
(95.1774 -28.7854 0)
(100.699 -24.9972 0)
(110.397 -18.2173 0)
(120.42 -13.9112 0)
(123.65 -20.9809 0)
(115.645 -44.7303 0)
(95.6545 -83.5438 0)
(67.6135 -129.469 0)
(32.8444 -170.592 0)
(11.1782 -198.626 0)
(-20.0095 -211.608 0)
(-37.6141 -206.964 0)
(-50.8803 -192.253 0)
(-60.2589 -171.606 0)
(-65.1383 -148.233 0)
(-66.2644 -124.689 0)
(-64.5723 -103.021 0)
(-60.9532 -84.3519 0)
(-56.4138 -68.9619 0)
(-51.7656 -56.2985 0)
(-47.4867 -45.128 0)
(-44.4094 -33.5133 0)
(-44.8156 -18.1788 0)
(-46.7191 4.3915 0)
(-50.2755 34.8635 0)
(-53.9265 71.5607 0)
(-57.2531 111.859 0)
(-59.858 152.695 0)
(-61.0725 190.212 0)
(-60.2537 219.803 0)
(-56.0724 235.653 0)
(-47.8726 233.678 0)
(-37.572 220.417 0)
(-25.9693 198.313 0)
(-13.7127 170.314 0)
(-1.53581 139.289 0)
(9.86676 107.715 0)
(19.9581 77.4002 0)
(30.1691 49.1741 0)
(41.7727 22.0558 0)
(51.1031 -1.07666 0)
(59.798 -16.7616 0)
(66.8328 -25.838 0)
(72.1744 -29.6568 0)
(75.6758 -30.61 0)
(77.0102 -31.6149 0)
(76.0042 -35.3342 0)
(72.7183 -43.431 0)
(67.4711 -55.9804 0)
(60.6752 -71.6571 0)
(52.6336 -88.552 0)
(43.5508 -104.808 0)
(33.581 -118.888 0)
(22.9326 -129.63 0)
(11.9547 -136.141 0)
(19.3231 25.175 0)
(37.6655 29.9507 0)
(60.4377 16.7431 0)
(74.4163 -2.59989 0)
(82.357 -21.9011 0)
(86.8093 -42.2922 0)
(87.6585 -61.6096 0)
(85.5866 -79.0882 0)
(79.2633 -94.5181 0)
(67.2344 -109.29 0)
(52.3985 -125.215 0)
(46.2199 -136.168 0)
(59.5027 -128.244 0)
(80.4894 -110.307 0)
(65.7266 -107.9 0)
(0.597832 -141.504 0)
(-76.5758 -160.799 0)
(-133.448 -150.516 0)
(-176.688 -116.18 0)
(-215.982 -63.2086 0)
(-255.41 7.47797 0)
(-293.641 97.6839 0)
(-326.271 205.436 0)
(-343.911 313.739 0)
(-322.991 381.314 0)
(-256.817 377.983 0)
(-172.603 331.593 0)
(-91.6656 270.043 0)
(-21.8375 207.59 0)
(29.4891 149.558 0)
(68.9314 98.0728 0)
(96.2522 53.9319 0)
(109.057 22.3168 0)
(112.361 2.51936 0)
(110.13 -9.83932 0)
(105.851 -17.3877 0)
(101.408 -21.9592 0)
(97.8445 -24.7607 0)
(95.6231 -26.5482 0)
(94.5398 -27.9353 0)
(94.0415 -29.4794 0)
(94.3603 -31.0537 0)
(97.0254 -31.0824 0)
(103.679 -27.7022 0)
(113.531 -22.2813 0)
(121.303 -21.5859 0)
(119.627 -33.623 0)
(106.232 -61.1725 0)
(81.6149 -99.5601 0)
(47.7859 -140.019 0)
(18.1889 -170.512 0)
(-7.02442 -187.543 0)
(-32.0716 -189.846 0)
(-45.9266 -179.791 0)
(-57.2346 -163.583 0)
(-64.2708 -144.175 0)
(-67.5124 -123.905 0)
(-67.9759 -104.637 0)
(-66.4785 -87.4437 0)
(-63.9316 -72.6588 0)
(-61.1609 -59.7986 0)
(-58.8766 -47.5963 0)
(-58.2151 -34.0242 0)
(-60.2724 -16.2994 0)
(-63.1922 7.78727 0)
(-67.2969 38.5966 0)
(-71.1008 74.9269 0)
(-73.9148 114.324 0)
(-75.2551 153.687 0)
(-74.4733 189.079 0)
(-70.7223 215.673 0)
(-62.5931 227.347 0)
(-50.6178 222.845 0)
(-36.9732 207.922 0)
(-22.4963 185.04 0)
(-7.9224 157.079 0)
(5.94113 126.733 0)
(18.3739 96.1551 0)
(29.6261 66.7054 0)
(42.1134 38.2939 0)
(53.0833 11.0023 0)
(62.5762 -10.0294 0)
(70.5857 -24.1373 0)
(76.756 -31.6055 0)
(81.2074 -33.636 0)
(83.722 -32.5618 0)
(83.9195 -31.3001 0)
(82.1848 -32.8277 0)
(78.4095 -38.8706 0)
(72.3477 -49.551 0)
(64.7049 -63.8277 0)
(55.9216 -79.6562 0)
(46.2026 -95.0137 0)
(35.7387 -108.364 0)
(24.7174 -118.622 0)
(13.4177 -125.029 0)
(24.58 11.7266 0)
(34.9593 9.97583 0)
(46.163 0.822638 0)
(55.4005 -12.1041 0)
(59.0942 -26.9935 0)
(58.8937 -42.3506 0)
(55.4704 -57.6699 0)
(48.7924 -72.7478 0)
(39.3947 -86.8929 0)
(28.0822 -99.0724 0)
(14.7044 -107.831 0)
(-2.03944 -114.244 0)
(-19.6465 -123.498 0)
(-32.4126 -123.123 0)
(-37.7858 -105.955 0)
(-50.5977 -94.1901 0)
(-89.5173 -91.5938 0)
(-147.705 -83.3558 0)
(-208.643 -59.6081 0)
(-262.945 -16.6859 0)
(-306.524 45.1323 0)
(-336.82 124.268 0)
(-348.314 212.516 0)
(-326.32 285.434 0)
(-259.049 308.121 0)
(-169.381 285.952 0)
(-84.0129 244.378 0)
(-13.9035 199.935 0)
(30.7773 155.275 0)
(78.3487 109.605 0)
(102.085 70.1875 0)
(114.2 40.4362 0)
(116.942 19.7836 0)
(114.347 5.27122 0)
(109.568 -5.04633 0)
(104.355 -12.3356 0)
(99.6987 -17.6401 0)
(96.1723 -21.7264 0)
(94.0229 -24.8896 0)
(93.0506 -27.219 0)
(92.8614 -29.2816 0)
(93.069 -31.7786 0)
(93.9708 -34.2254 0)
(97.259 -34.6019 0)
(104.41 -31.4033 0)
(113.641 -27.1884 0)
(118.402 -29.5316 0)
(111.608 -44.6833 0)
(93.2799 -73.1144 0)
(64.3107 -108.353 0)
(30.4928 -140.741 0)
(5.94856 -161.347 0)
(-25.8456 -169.792 0)
(-41.0669 -165.438 0)
(-53.7576 -153.75 0)
(-62.7271 -138.078 0)
(-68.0185 -120.985 0)
(-70.5697 -104.111 0)
(-71.2024 -88.4546 0)
(-70.7756 -74.3186 0)
(-70.1255 -61.215 0)
(-70.0491 -47.926 0)
(-71.6332 -32.6004 0)
(-74.9666 -13.0803 0)
(-78.8347 11.8839 0)
(-83.3336 42.5918 0)
(-87.0181 78.0227 0)
(-89.1523 115.874 0)
(-89.0896 152.974 0)
(-86.0196 185.345 0)
(-79.2107 208.258 0)
(-67.1257 215.072 0)
(-51.8309 208.56 0)
(-35.2296 192.456 0)
(-18.2969 169.367 0)
(-1.82795 142.022 0)
(13.3295 112.823 0)
(26.7347 83.498 0)
(39.9744 54.7453 0)
(53.4174 26.0287 0)
(64.0153 0.619627 0)
(73.2689 -18.4112 0)
(80.4379 -30.7996 0)
(85.7382 -36.4904 0)
(89.2243 -36.5863 0)
(90.3883 -33.3437 0)
(89.7543 -30.1367 0)
(87.1561 -29.6546 0)
(82.6165 -33.5758 0)
(76.2257 -42.4738 0)
(67.7658 -55.2391 0)
(58.1975 -70.0413 0)
(47.8997 -84.6726 0)
(36.9913 -97.4421 0)
(25.6652 -107.315 0)
(14.1573 -113.658 0)
(20.9764 4.69792 0)
(26.6847 2.06249 0)
(33.9479 -4.80561 0)
(38.7545 -15.1515 0)
(40.3504 -26.925 0)
(38.8918 -39.2249 0)
(34.5217 -51.6854 0)
(27.2348 -63.8139 0)
(17.0435 -75.0915 0)
(4.03646 -85.1191 0)
(-11.4433 -93.5844 0)
(-28.6725 -99.5821 0)
(-47.5093 -101.731 0)
(-68.8174 -101.178 0)
(-89.9254 -95.1819 0)
(-106.817 -80.3313 0)
(-126.95 -61.8431 0)
(-155.688 -39.8593 0)
(-188.429 -11.1236 0)
(-221.618 25.5577 0)
(-248.536 73.9062 0)
(-261.94 133.515 0)
(-252.416 192.17 0)
(-208.475 222.481 0)
(-136.223 227.171 0)
(-53.0597 213.03 0)
(-11.4113 182.3 0)
(34.2423 151.429 0)
(78.3715 114.536 0)
(98.7667 82.5551 0)
(109.688 57.8171 0)
(113.126 38.1789 0)
(111.644 22.3772 0)
(107.899 9.84648 0)
(103.413 0.0328888 0)
(99.0352 -7.64216 0)
(95.3166 -13.8363 0)
(92.5733 -19.0926 0)
(90.8062 -23.4633 0)
(90.0012 -26.8329 0)
(90.2329 -29.5385 0)
(90.9047 -32.1837 0)
(91.4474 -35.2284 0)
(92.3754 -37.9722 0)
(95.5706 -38.3878 0)
(102.339 -35.3951 0)
(110.251 -32.1696 0)
(111.58 -35.9285 0)
(101.033 -51.9894 0)
(78.7673 -79.1936 0)
(46.8485 -108.937 0)
(14.6543 -132.431 0)
(-10.7288 -145.958 0)
(-35.4992 -149.029 0)
(-49.5114 -141.943 0)
(-60.4096 -130.083 0)
(-67.8769 -116.055 0)
(-72.5642 -101.492 0)
(-75.3766 -87.3078 0)
(-77.1538 -73.7612 0)
(-78.7158 -60.3943 0)
(-80.8758 -46.1227 0)
(-84.4045 -29.432 0)
(-88.6256 -8.83333 0)
(-93.3005 16.4197 0)
(-97.8633 46.608 0)
(-101.149 80.6357 0)
(-102.351 116.244 0)
(-100.671 150.317 0)
(-95.4491 179.012 0)
(-85.3698 197.12 0)
(-69.7024 199.601 0)
(-51.6482 191.3 0)
(-32.5654 174.51 0)
(-13.6069 151.754 0)
(4.32135 125.489 0)
(20.4821 97.7136 0)
(35.3542 69.6671 0)
(50.8119 41.3143 0)
(63.4657 13.4482 0)
(74.328 -9.24349 0)
(82.8718 -26.1879 0)
(89.1281 -36.6172 0)
(93.451 -40.3522 0)
(95.6125 -38.3249 0)
(95.7747 -33.1267 0)
(94.264 -28.0718 0)
(90.8568 -25.734 0)
(85.5891 -27.7454 0)
(78.5889 -34.686 0)
(69.9539 -46.0796 0)
(59.5588 -59.765 0)
(48.6776 -73.7924 0)
(37.3982 -86.1709 0)
(25.8292 -95.7982 0)
(14.1928 -102.147 0)
(17.5908 0.269492 0)
(22.0333 -3.15385 0)
(26.2782 -9.22414 0)
(28.8844 -17.4426 0)
(29.0565 -26.7732 0)
(26.7416 -36.5228 0)
(22.0416 -46.3018 0)
(14.9287 -55.7368 0)
(5.37264 -64.4075 0)
(-6.55576 -71.8451 0)
(-20.7271 -77.5029 0)
(-37.0271 -80.9046 0)
(-55.2452 -81.8162 0)
(-74.8856 -79.4757 0)
(-95.7144 -72.4257 0)
(-115.717 -60.2503 0)
(-133.625 -42.2322 0)
(-150.367 -18.2905 0)
(-165.531 11.0482 0)
(-177.168 45.914 0)
(-182.094 86.4029 0)
(-175.172 128.843 0)
(-147.351 160.492 0)
(-102.898 171.14 0)
(-57.4655 165.612 0)
(-4.78625 159.122 0)
(31.4535 142.56 0)
(63.7998 118.688 0)
(83.2182 94.3184 0)
(93.9412 73.4632 0)
(99.417 55.2208 0)
(101.115 38.9192 0)
(100.278 24.9703 0)
(98.0205 13.3425 0)
(95.1455 3.70872 0)
(92.2363 -4.30626 0)
(89.7738 -11.1694 0)
(87.9552 -17.2122 0)
(86.6261 -22.3658 0)
(86.13 -26.6781 0)
(86.4824 -30.1801 0)
(87.4412 -33.0282 0)
(88.3881 -35.7318 0)
(88.7662 -38.7018 0)
(89.1569 -41.2296 0)
(91.5166 -41.4618 0)
(97.0753 -38.6479 0)
(103.194 -36.146 0)
(101.347 -39.9767 0)
(88.2747 -54.6288 0)
(64.2354 -78.2573 0)
(31.7552 -101.561 0)
(1.81861 -118.789 0)
(-25.3793 -128.268 0)
(-44.6414 -128.188 0)
(-57.5778 -119.817 0)
(-67.225 -108.823 0)
(-74.1266 -96.6346 0)
(-79.1826 -83.924 0)
(-83.2399 -70.9515 0)
(-87.0447 -57.3853 0)
(-91.2609 -42.392 0)
(-96.216 -24.9068 0)
(-101.123 -3.91566 0)
(-106.189 21.1604 0)
(-110.497 50.3473 0)
(-113.126 82.4495 0)
(-113.235 115.283 0)
(-110.02 145.831 0)
(-102.56 170.085 0)
(-88.9536 182.234 0)
(-70.6333 181.578 0)
(-50.1973 171.573 0)
(-29.0223 154.531 0)
(-8.45746 132.597 0)
(10.4849 107.721 0)
(27.7195 81.4559 0)
(44.793 54.3716 0)
(60.5424 26.5035 0)
(73.3088 1.63514 0)
(83.6949 -18.502 0)
(91.2659 -33.1417 0)
(96.4161 -41.3835 0)
(99.4572 -42.9978 0)
(100.044 -38.8737 0)
(99.3763 -31.9823 0)
(97.0727 -25.1913 0)
(93.0122 -21.087 0)
(87.208 -21.3792 0)
(79.7501 -26.5894 0)
(70.7692 -36.2805 0)
(60.3096 -49.084 0)
(48.6945 -62.4295 0)
(37.0458 -74.5838 0)
(25.2951 -84.1346 0)
(13.5735 -90.5576 0)
(16.1391 -3.17 0)
(18.4143 -6.78327 0)
(20.4375 -11.7252 0)
(21.3216 -17.984 0)
(20.4787 -25.1263 0)
(17.7129 -32.6719 0)
(13.008 -40.2398 0)
(6.33862 -47.4659 0)
(-2.32341 -53.9559 0)
(-12.9482 -59.3014 0)
(-25.4477 -63.0972 0)
(-39.6465 -64.9213 0)
(-55.2619 -64.2843 0)
(-71.864 -60.6074 0)
(-88.9232 -53.3583 0)
(-105.705 -41.9368 0)
(-120.684 -26.2661 0)
(-132.705 -6.26071 0)
(-140.481 18.0408 0)
(-142.552 46.1189 0)
(-137.116 76.3778 0)
(-120.103 103.869 0)
(-92.3435 122.946 0)
(-59.5771 130.482 0)
(-27.5803 129.122 0)
(2.97003 123.666 0)
(31.1381 113.834 0)
(53.3615 98.8872 0)
(68.6535 82.1321 0)
(78.6799 66.0216 0)
(84.9914 51.0114 0)
(88.222 37.4168 0)
(89.0967 25.4269 0)
(88.5057 14.9399 0)
(87.109 5.7608 0)
(85.4499 -2.30366 0)
(83.9919 -9.52039 0)
(82.7858 -16.0058 0)
(81.9242 -21.7039 0)
(81.661 -26.6618 0)
(81.9732 -30.8296 0)
(82.833 -34.1049 0)
(83.9852 -36.589 0)
(84.7474 -38.7616 0)
(84.5016 -41.1156 0)
(83.885 -43.2043 0)
(84.8634 -43.2512 0)
(88.683 -40.4783 0)
(92.5774 -38.0739 0)
(88.4136 -40.9763 0)
(74.1253 -52.5214 0)
(50.0984 -71.1836 0)
(18.169 -89.2067 0)
(-6.71166 -101.944 0)
(-37.7288 -108.79 0)
(-53.918 -107.73 0)
(-66.298 -99.8085 0)
(-75.6927 -89.5145 0)
(-83.0081 -78.1528 0)
(-89.2746 -65.842 0)
(-95.134 -52.335 0)
(-100.989 -37.1199 0)
(-106.729 -19.4712 0)
(-112.175 1.3319 0)
(-117.185 25.7642 0)
(-121.026 53.518 0)
(-122.937 83.3127 0)
(-122.038 112.957 0)
(-117.353 139.432 0)
(-107.162 158.243 0)
(-90.3634 164.649 0)
(-70.0341 161.181 0)
(-47.4505 149.777 0)
(-24.3249 132.953 0)
(-2.59622 112.28 0)
(16.9872 88.7053 0)
(36.002 63.8536 0)
(54.6017 37.5737 0)
(69.8169 12.0061 0)
(82.5715 -9.71169 0)
(92.0138 -27.0162 0)
(98.3112 -38.9479 0)
(101.915 -44.7372 0)
(102.888 -44.0605 0)
(102.229 -38.3411 0)
(100.595 -30.0373 0)
(97.682 -21.7019 0)
(93.2568 -15.9402 0)
(87.2194 -14.6036 0)
(79.6108 -18.2486 0)
(70.5409 -26.369 0)
(60.1139 -37.8761 0)
(48.3647 -50.7734 0)
(36.1352 -62.662 0)
(24.2032 -72.3191 0)
(12.4223 -78.9507 0)
(12.0292 -5.25051 0)
(13.5624 -8.24235 0)
(14.6054 -12.2972 0)
(14.6826 -17.331 0)
(13.43 -23.0107 0)
(10.65 -28.9492 0)
(6.26251 -34.8075 0)
(0.229805 -40.2725 0)
(-7.45235 -45.0108 0)
(-16.7357 -48.6618 0)
(-27.5192 -50.8663 0)
(-39.6211 -51.2785 0)
(-52.7435 -49.554 0)
(-66.5031 -45.3545 0)
(-80.3421 -38.3039 0)
(-93.4466 -28.0664 0)
(-104.902 -14.69 0)
(-113.532 1.68153 0)
(-118.092 20.6747 0)
(-117.436 41.5717 0)
(-109.761 62.8292 0)
(-94.5698 82.1644 0)
(-73.6756 96.9596 0)
(-49.5405 103.866 0)
(-25.0936 102.923 0)
(-1.17562 98.4044 0)
(21.5356 91.778 0)
(40.6054 81.889 0)
(55.0088 69.7456 0)
(65.4291 57.279 0)
(72.6962 45.5587 0)
(77.3184 34.7181 0)
(79.467 24.624 0)
(80.124 15.3107 0)
(79.84 6.73033 0)
(79.0691 -1.16692 0)
(78.2846 -8.51194 0)
(77.4648 -15.2655 0)
(76.8198 -21.3716 0)
(76.6104 -26.7897 0)
(76.7993 -31.3845 0)
(77.3842 -35.0406 0)
(78.3399 -37.6503 0)
(79.3015 -39.2311 0)
(79.4279 -40.3063 0)
(78.1834 -41.7413 0)
(76.2909 -43.3085 0)
(75.5925 -43.2438 0)
(77.2301 -40.4683 0)
(78.0401 -37.4393 0)
(72.3738 -38.5667 0)
(58.0758 -45.9584 0)
(35.8151 -59.9812 0)
(6.43234 -74.2164 0)
(-18.5415 -83.3711 0)
(-45.022 -88.5492 0)
(-62.2856 -87.1963 0)
(-75.8291 -80.1746 0)
(-86.473 -70.3516 0)
(-95.0832 -58.8267 0)
(-102.629 -45.7315 0)
(-109.498 -30.8175 0)
(-115.815 -13.5821 0)
(-121.549 6.61212 0)
(-126.46 30.0258 0)
(-130.116 56.1137 0)
(-131.773 83.4335 0)
(-130.12 109.594 0)
(-123.212 131.083 0)
(-108.745 142.883 0)
(-89.4817 145.358 0)
(-67.1817 138.771 0)
(-42.8674 125.397 0)
(-18.1929 109.46 0)
(4.32226 91.0369 0)
(24.761 69.2765 0)
(45.8279 45.1758 0)
(64.0881 20.1034 0)
(79.6037 -1.88208 0)
(91.4073 -20.28 0)
(99.3502 -34.2366 0)
(103.737 -43.027 0)
(104.818 -46.0036 0)
(103.337 -43.3299 0)
(101.194 -36.5807 0)
(98.573 -27.3538 0)
(95.3143 -17.862 0)
(90.9859 -10.6949 0)
(85.2408 -7.84911 0)
(77.9769 -10.0233 0)
(69.2388 -16.6863 0)
(59.1243 -26.7079 0)
(47.7149 -38.7428 0)
(35.1963 -50.5146 0)
(22.8586 -60.3145 0)
(10.9531 -67.3045 0)
(9.04655 -6.54914 0)
(9.86949 -9.23798 0)
(10.2171 -12.6335 0)
(9.78956 -16.6341 0)
(8.3128 -21.0214 0)
(5.60349 -25.523 0)
(1.56535 -29.8696 0)
(-3.84036 -33.8033 0)
(-10.5967 -37.0526 0)
(-18.6478 -39.2988 0)
(-27.9177 -40.2375 0)
(-38.234 -39.6491 0)
(-49.2938 -37.2968 0)
(-60.7084 -32.9248 0)
(-71.9855 -26.3352 0)
(-82.4528 -17.385 0)
(-91.3088 -6.14272 0)
(-97.7129 7.08771 0)
(-100.703 21.812 0)
(-99.5079 37.3728 0)
(-92.8901 52.8243 0)
(-80.8336 66.8061 0)
(-64.6258 77.6336 0)
(-45.4795 82.6306 0)
(-25.3815 81.0306 0)
(-5.57082 76.8144 0)
(14.0169 72.7486 0)
(31.3908 65.9686 0)
(45.1776 57.294 0)
(55.9477 48.2092 0)
(63.8519 39.2604 0)
(69.1691 30.7374 0)
(72.4872 22.614 0)
(73.8814 14.5933 0)
(74.235 6.81318 0)
(73.7683 -0.662687 0)
(73.0236 -7.75848 0)
(72.2465 -14.494 0)
(71.4107 -20.7903 0)
(70.9617 -26.6177 0)
(70.9068 -31.6986 0)
(71.1994 -35.7309 0)
(71.8544 -38.5439 0)
(72.6484 -39.8926 0)
(73.0065 -40.0302 0)
(72.4599 -40.0957 0)
(69.875 -40.348 0)
(65.885 -40.6365 0)
(62.3669 -39.9018 0)
(60.6237 -37.1922 0)
(58.6686 -34.0354 0)
(51.9737 -33.6703 0)
(38.3302 -37.5173 0)
(19.2998 -46.5158 0)
(-6.18817 -57.9768 0)
(-28.1983 -65.0879 0)
(-54.0085 -67.7019 0)